/*--------------------------------*- C++ -*----------------------------------*\
| =========                 |                                                 |
| \\      /  F ield         | OpenFOAM: The Open Source CFD Toolbox           |
|  \\    /   O peration     | Version:  2406                                  |
|   \\  /    A nd           | Website:  www.openfoam.com                      |
|    \\/     M anipulation  |                                                 |
\*---------------------------------------------------------------------------*/
FoamFile
{
    version     2.0;
    format      ascii;
    arch        "LSB;label=32;scalar=64";
    class       surfaceScalarField;
    location    "1.35";
    object      alphaPhi0.air;
}
// * * * * * * * * * * * * * * * * * * * * * * * * * * * * * * * * * * * * * //

dimensions      [0 3 -1 0 0 0 0];

oriented        oriented;

internalField   nonuniform List<scalar> 
12225
(
0.510616
1.58707e-06
0.51061
6.14483e-06
0.510602
7.58332e-06
0.510596
5.80778e-06
0.510592
4.77962e-06
0.510587
4.87311e-06
0.510581
5.63706e-06
0.510575
5.99368e-06
0.510569
5.64061e-06
0.510564
5.56394e-06
0.510559
5.31985e-06
0.510554
4.82717e-06
0.510549
4.95388e-06
0.510543
5.53221e-06
0.510537
5.80459e-06
0.510532
5.73585e-06
0.510526
5.56544e-06
0.510521
5.30241e-06
0.510516
5.13487e-06
0.510511
4.93173e-06
0.510506
4.94475e-06
0.5105
5.50293e-06
0.510494
6.09488e-06
0.510488
6.31131e-06
0.510482
6.14692e-06
0.510476
5.95927e-06
0.51047
5.95128e-06
0.510464
5.7757e-06
0.510459
5.44625e-06
0.510453
5.34375e-06
0.510448
5.38786e-06
0.510442
5.55538e-06
0.510437
5.72074e-06
0.510431
5.48489e-06
0.510426
5.10055e-06
0.510421
4.95677e-06
0.510416
4.97263e-06
0.510411
5.17537e-06
0.510406
5.33731e-06
0.5104
5.36625e-06
0.510395
5.58655e-06
0.510389
5.64873e-06
0.510384
5.35652e-06
0.510379
5.08384e-06
0.510374
4.93753e-06
0.510369
4.99693e-06
0.510363
5.21494e-06
0.510358
5.49908e-06
0.510352
5.81679e-06
0.510346
5.90585e-06
0.51034
5.71216e-06
0.510335
5.55207e-06
0.510329
5.51079e-06
0.510324
5.38684e-06
0.510319
5.06207e-06
0.510314
4.80434e-06
0.510309
4.87838e-06
0.510304
4.95622e-06
0.510299
5.15123e-06
0.510294
5.65562e-06
0.510288
5.87944e-06
0.510282
5.90759e-06
0.510276
6.02069e-06
0.51027
5.99428e-06
0.510264
5.84232e-06
0.510258
5.49986e-06
0.510253
5.07626e-06
0.510248
4.99842e-06
0.510243
5.27583e-06
0.510237
5.54971e-06
0.510232
5.66653e-06
0.510226
5.69876e-06
0.51022
5.74351e-06
0.510215
5.73464e-06
0.510209
5.52852e-06
0.510204
5.3648e-06
0.510198
5.58032e-06
0.510192
5.88696e-06
0.510186
5.86565e-06
0.510181
5.68792e-06
0.510175
5.55795e-06
0.51017
5.28709e-06
0.510165
4.96599e-06
0.51016
4.9368e-06
0.510155
5.17975e-06
0.510149
5.45287e-06
0.510144
5.60021e-06
0.510138
5.53118e-06
0.510133
5.35492e-06
0.510128
5.29081e-06
0.510122
5.29353e-06
0.510117
5.21991e-06
0.510112
5.08031e-06
0.510107
4.88836e-06
0.510102
4.81812e-06
0.510097
5.14977e-06
0.510091
5.65308e-06
0.510086
5.85604e-06
0.51008
5.7462e-06
0.510074
5.51429e-06
0.510069
5.33561e-06
0.510064
5.36842e-06
0.510058
5.49617e-06
0.510053
5.52139e-06
0.510047
5.42259e-06
0.510042
5.23379e-06
0.510037
5.04927e-06
0.510032
5.07147e-06
0.510027
5.33352e-06
0.510021
5.58646e-06
0.510015
5.62852e-06
0.51001
5.50685e-06
0.510004
5.41722e-06
0.509999
5.44139e-06
0.509994
5.37231e-06
0.509988
5.14954e-06
0.509983
5.03348e-06
0.509978
5.12447e-06
0.509973
5.37062e-06
0.509967
5.70773e-06
0.509961
5.85001e-06
0.509956
5.62149e-06
0.50995
5.27965e-06
0.509945
5.08538e-06
0.50994
5.04687e-06
0.509935
5.15162e-06
0.50993
5.42973e-06
0.509924
5.71437e-06
0.509918
5.813e-06
0.509912
5.76553e-06
0.509907
5.66486e-06
0.509901
5.56216e-06
0.509896
5.44596e-06
0.50989
5.27974e-06
0.509885
5.15331e-06
0.50988
5.11741e-06
0.509875
5.16068e-06
0.50987
5.30899e-06
0.509864
5.42576e-06
0.509859
5.3697e-06
0.509854
5.27759e-06
0.509848
5.24157e-06
0.509843
5.24745e-06
0.509838
5.35114e-06
0.509832
5.51802e-06
0.509827
5.65313e-06
0.509821
5.64488e-06
0.509816
5.4432e-06
0.50981
5.18284e-06
0.509805
5.00082e-06
0.5098
5.02356e-06
0.509795
5.26309e-06
0.50979
5.47578e-06
0.509784
5.46912e-06
0.509779
5.32432e-06
0.509774
5.27051e-06
0.509768
5.42176e-06
0.509763
5.61381e-06
0.509757
5.62515e-06
0.509751
5.44819e-06
0.509746
5.24411e-06
0.509741
5.12959e-06
0.509736
5.18401e-06
0.50973
5.39109e-06
0.509725
5.56552e-06
0.509719
5.58978e-06
0.509714
5.48615e-06
0.509708
5.347e-06
0.509703
5.28688e-06
0.509698
5.3097e-06
0.509693
5.36348e-06
0.509687
5.43216e-06
0.509682
5.47646e-06
0.509676
5.45383e-06
0.509671
5.40176e-06
0.509665
5.38721e-06
0.50966
5.45666e-06
0.509654
5.57587e-06
0.509649
5.57124e-06
0.509643
5.39337e-06
0.509638
5.2595e-06
0.509633
5.30604e-06
0.509627
5.42291e-06
0.509622
5.45833e-06
0.509617
5.43076e-06
0.509611
5.41518e-06
0.509606
5.41589e-06
0.5096
5.47718e-06
0.509595
5.59793e-06
0.509589
5.66271e-06
0.509583
5.5747e-06
0.509578
5.36538e-06
0.509573
5.21955e-06
0.509568
5.28133e-06
0.509562
5.51283e-06
0.509556
5.8177e-06
0.50955
6.04923e-06
0.509544
6.06624e-06
0.509538
5.91142e-06
0.509532
5.74274e-06
0.509527
5.63361e-06
0.509521
5.61468e-06
0.509515
5.69642e-06
0.50951
5.77183e-06
0.509504
5.70877e-06
0.509498
5.55485e-06
0.509493
5.45909e-06
0.509488
5.44589e-06
0.509482
5.44624e-06
0.509477
5.42027e-06
0.509471
5.38143e-06
0.509466
5.36603e-06
0.509461
5.36496e-06
0.509455
5.39814e-06
0.50945
5.5003e-06
0.509444
5.5313e-06
0.509439
5.37546e-06
0.509433
5.25379e-06
0.509428
5.41717e-06
0.509422
5.72618e-06
0.509416
5.89761e-06
0.509411
5.88613e-06
0.509405
5.7533e-06
0.509399
5.50903e-06
0.509394
5.23619e-06
0.509389
5.10158e-06
0.509384
5.15603e-06
0.509379
5.25599e-06
0.509373
5.28087e-06
0.509368
5.29026e-06
0.509363
5.3091e-06
0.509357
5.2227e-06
0.509352
5.04928e-06
0.509347
4.97408e-06
0.509342
5.04672e-06
0.509337
5.12996e-06
0.509332
5.16469e-06
0.509327
5.25475e-06
0.509321
5.39753e-06
0.509316
5.39833e-06
0.509311
5.22118e-06
0.509306
5.07637e-06
0.509301
5.0931e-06
0.509295
5.18156e-06
0.50929
5.24242e-06
0.509285
5.29154e-06
0.50928
5.37899e-06
0.509274
5.38987e-06
0.509268
5.79114e-06
5.26208e-06
0.51062
3.53698e-07
0.510625
6.4566e-07
0.510632
1.41035e-06
0.510635
2.23091e-06
0.510638
2.38555e-06
0.51064
2.07846e-06
0.510644
2.11144e-06
0.510648
2.14688e-06
0.510651
2.37622e-06
0.510654
2.96019e-06
0.510656
3.21428e-06
0.510658
2.929e-06
0.51066
2.2961e-06
0.510664
2.07901e-06
0.510667
2.09774e-06
0.510671
1.99017e-06
0.510675
1.78404e-06
0.510679
1.64912e-06
0.510681
2.36406e-06
0.510683
3.22018e-06
0.510685
3.13545e-06
0.510688
2.53573e-06
0.510692
2.24586e-06
0.510696
2.49277e-06
0.510699
2.75146e-06
0.510702
2.70179e-06
0.510706
2.6349e-06
0.510709
2.74536e-06
0.510711
2.74562e-06
0.510714
2.55249e-06
0.510717
2.41173e-06
0.51072
2.31809e-06
0.510724
2.27476e-06
0.510727
2.41908e-06
0.510729
2.50636e-06
0.510732
2.4293e-06
0.510734
2.36509e-06
0.510737
2.2288e-06
0.510741
2.11666e-06
0.510744
2.09412e-06
0.510747
2.01435e-06
0.510751
2.02043e-06
0.510754
2.25983e-06
0.510757
2.69803e-06
0.510759
2.93548e-06
0.510761
2.86232e-06
0.510763
2.6593e-06
0.510766
2.46447e-06
0.51077
2.42741e-06
0.510773
2.43343e-06
0.510777
2.34095e-06
0.51078
2.20035e-06
0.510783
2.11033e-06
0.510786
2.23694e-06
0.510789
2.46794e-06
0.510791
2.6151e-06
0.510793
2.93329e-06
0.510795
3.23176e-06
0.510797
2.82002e-06
0.510801
2.12002e-06
0.510805
1.74723e-06
0.510809
1.95591e-06
0.510812
2.63419e-06
0.510815
3.06431e-06
0.510818
2.97359e-06
0.510821
2.85286e-06
0.510823
2.81664e-06
0.510825
2.75398e-06
0.510828
2.71943e-06
0.510831
2.77111e-06
0.510833
2.84263e-06
0.510836
2.90026e-06
0.510839
2.88349e-06
0.510842
2.77343e-06
0.510845
2.63586e-06
0.510848
2.39268e-06
0.510851
2.15239e-06
0.510855
2.18782e-06
0.510859
2.24426e-06
0.510862
2.09723e-06
0.510866
2.15061e-06
0.510868
2.51784e-06
0.510871
2.75818e-06
0.510873
2.66942e-06
0.510876
2.33677e-06
0.510879
1.93042e-06
0.510883
1.81688e-06
0.510886
2.14988e-06
0.510889
2.62835e-06
0.510891
3.00133e-06
0.510894
3.10594e-06
0.510896
2.82992e-06
0.510899
2.36699e-06
0.510902
1.95073e-06
0.510905
1.61936e-06
0.510908
1.52623e-06
0.510912
1.83225e-06
0.510916
2.39709e-06
0.510919
2.94643e-06
0.510921
3.18165e-06
0.510923
2.97077e-06
0.510926
2.60442e-06
0.510929
2.33639e-06
0.510932
2.16753e-06
0.510936
2.15712e-06
0.510939
2.33728e-06
0.510941
2.56839e-06
0.510943
2.73477e-06
0.510946
2.83834e-06
0.510949
2.90284e-06
0.510951
2.90664e-06
0.510954
2.7625e-06
0.510957
2.43008e-06
0.51096
2.13147e-06
0.510964
2.0876e-06
0.510967
2.25765e-06
0.510969
2.57622e-06
0.510971
2.84867e-06
0.510974
2.77576e-06
0.510977
2.46826e-06
0.510981
2.29771e-06
0.510984
2.2923e-06
0.510987
2.27823e-06
0.51099
2.31254e-06
0.510992
2.3994e-06
0.510995
2.40561e-06
0.510998
2.35599e-06
0.511002
2.36208e-06
0.511005
2.40721e-06
0.511008
2.44879e-06
0.511012
2.45855e-06
0.511015
2.48863e-06
0.511017
2.6593e-06
0.51102
2.84616e-06
0.511022
2.83787e-06
0.511025
2.59052e-06
0.511028
2.16835e-06
0.511031
1.89123e-06
0.511034
2.03543e-06
0.511037
2.37605e-06
0.51104
2.64586e-06
0.511043
2.81456e-06
0.511045
2.85081e-06
0.511047
2.81318e-06
0.51105
2.76003e-06
0.511053
2.64134e-06
0.511056
2.49193e-06
0.511059
2.35794e-06
0.511062
2.25824e-06
0.511065
2.20755e-06
0.511068
2.20472e-06
0.511071
2.34598e-06
0.511074
2.6782e-06
0.511076
3.01233e-06
0.511078
3.08896e-06
0.511081
2.8662e-06
0.511084
2.56172e-06
0.511087
2.40894e-06
0.51109
2.47038e-06
0.511093
2.64427e-06
0.511095
2.77083e-06
0.511098
2.71596e-06
0.5111
2.53668e-06
0.511103
2.47066e-06
0.511106
2.57559e-06
0.511109
2.66e-06
0.511112
2.62385e-06
0.511115
2.53507e-06
0.511118
2.49748e-06
0.511121
2.49665e-06
0.511123
2.44787e-06
0.511126
2.37945e-06
0.51113
2.36342e-06
0.511133
2.43552e-06
0.511135
2.59972e-06
0.511138
2.74853e-06
0.511141
2.73775e-06
0.511144
2.6153e-06
0.511147
2.51677e-06
0.51115
2.44136e-06
0.511153
2.38136e-06
0.511156
2.38923e-06
0.511158
2.45181e-06
0.511161
2.46598e-06
0.511165
2.40084e-06
0.511168
2.32518e-06
0.511171
2.24981e-06
0.511174
2.18849e-06
0.511177
2.22412e-06
0.511181
2.38569e-06
0.511184
2.60167e-06
0.511186
2.73224e-06
0.511189
2.69276e-06
0.511192
2.53365e-06
0.511195
2.34376e-06
0.511198
2.23818e-06
0.511202
2.31067e-06
0.511206
2.49255e-06
0.511209
2.63257e-06
0.511212
2.69185e-06
0.511215
2.68273e-06
0.511218
2.58801e-06
0.511221
2.47091e-06
0.511225
2.43621e-06
0.511228
2.45837e-06
0.511231
2.44994e-06
0.511234
2.43701e-06
0.511237
2.46173e-06
0.51124
2.48787e-06
0.511243
2.50501e-06
0.511246
2.55198e-06
0.511248
2.65079e-06
0.511251
2.70519e-06
0.511254
2.5934e-06
0.511257
2.45455e-06
0.51126
2.50157e-06
0.511263
2.60828e-06
0.511265
2.5496e-06
0.511268
2.40912e-06
0.511272
2.35066e-06
0.511275
2.34069e-06
0.511279
2.37981e-06
0.511282
2.57954e-06
0.511285
2.87303e-06
0.511287
3.01232e-06
0.511289
2.90482e-06
0.511291
2.7152e-06
0.511294
2.57136e-06
0.511297
2.41498e-06
0.5113
2.26912e-06
0.511303
2.32366e-06
0.511306
2.55364e-06
0.511308
2.66433e-06
0.51131
2.57279e-06
0.511313
2.50571e-06
0.511316
2.5339e-06
0.511318
2.4649e-06
0.511321
2.29054e-06
0.511324
2.2842e-06
0.511327
2.49167e-06
0.51133
2.62572e-06
0.511332
2.56864e-06
0.511335
2.51526e-06
0.511338
2.56769e-06
0.51134
2.62161e-06
0.511343
2.6347e-06
0.511346
2.69519e-06
0.511348
2.74499e-06
0.511351
2.66186e-06
2.70145e-06
0.510621
1.56828e-07
0.510621
8.23223e-07
0.51062
1.53688e-06
0.510621
1.59886e-06
0.510622
1.74039e-06
0.510622
1.99603e-06
0.510622
1.96226e-06
0.510622
1.84957e-06
0.510623
1.47306e-06
0.510625
1.58773e-06
0.510625
2.30115e-06
0.510626
2.71424e-06
0.510626
2.42972e-06
0.510625
2.15084e-06
0.510625
2.35252e-06
0.510625
2.44632e-06
0.510624
2.2125e-06
0.510624
2.0701e-06
0.510624
1.87302e-06
0.510626
1.68244e-06
0.510627
1.85541e-06
0.510628
2.19242e-06
0.510628
2.27993e-06
0.510628
2.22224e-06
0.510628
2.04739e-06
0.510629
1.7528e-06
0.51063
1.86371e-06
0.510631
2.15292e-06
0.510631
2.23843e-06
0.510631
2.49029e-06
0.510631
2.73421e-06
0.510631
2.66419e-06
0.51063
2.65609e-06
0.51063
2.90562e-06
0.510629
2.91518e-06
0.510629
2.56485e-06
0.510629
2.37547e-06
0.510629
2.48699e-06
0.510629
2.37661e-06
0.510629
1.99668e-06
0.510629
2.08463e-06
0.510628
2.38283e-06
0.510628
2.22014e-06
0.510629
2.14999e-06
0.51063
2.31712e-06
0.51063
2.34385e-06
0.51063
2.49917e-06
0.51063
2.72793e-06
0.51063
2.67576e-06
0.51063
2.40992e-06
0.51063
2.17999e-06
0.51063
2.03775e-06
0.51063
1.93158e-06
0.510631
1.88054e-06
0.510631
1.93429e-06
0.510632
2.06852e-06
0.510632
2.2244e-06
0.510633
2.46634e-06
0.510633
2.60948e-06
0.510633
2.54951e-06
0.510632
2.39978e-06
0.510632
2.20792e-06
0.510633
2.15694e-06
0.510633
2.29007e-06
0.510634
2.42444e-06
0.510634
2.36839e-06
0.510635
2.05827e-06
0.510636
1.81825e-06
0.510637
1.89511e-06
0.510637
2.21526e-06
0.510638
2.52781e-06
0.510638
2.58024e-06
0.510639
2.40517e-06
0.510639
2.18261e-06
0.51064
2.01113e-06
0.51064
1.87889e-06
0.510641
1.85967e-06
0.510641
2.12915e-06
0.51064
2.50522e-06
0.51064
2.59647e-06
0.51064
2.46601e-06
0.51064
2.38958e-06
0.51064
2.36219e-06
0.51064
2.31315e-06
0.510641
2.25385e-06
0.51064
2.12022e-06
0.51064
1.93176e-06
0.51064
1.95385e-06
0.510641
2.27746e-06
0.510641
2.71165e-06
0.510641
2.94065e-06
0.510641
2.72951e-06
0.510641
2.24758e-06
0.510642
1.88062e-06
0.510641
1.74643e-06
0.510641
1.84454e-06
0.510641
2.14441e-06
0.510641
2.38806e-06
0.510641
2.51391e-06
0.510642
2.67127e-06
0.510642
2.67822e-06
0.510642
2.44485e-06
0.510642
2.19773e-06
0.510643
1.96623e-06
0.510643
1.73771e-06
0.510644
1.65508e-06
0.510644
1.72638e-06
0.510645
1.88696e-06
0.510646
2.18663e-06
0.510646
2.51673e-06
0.510647
2.65154e-06
0.510647
2.55283e-06
0.510647
2.32854e-06
0.510647
2.17161e-06
0.510647
2.22349e-06
0.510647
2.31228e-06
0.510647
2.33302e-06
0.510647
2.48631e-06
0.510647
2.68858e-06
0.510647
2.57792e-06
0.510647
2.18584e-06
0.510648
1.81676e-06
0.510649
1.61504e-06
0.510649
1.6905e-06
0.510649
2.07116e-06
0.510649
2.47693e-06
0.510649
2.64328e-06
0.510649
2.5787e-06
0.510649
2.34502e-06
0.510649
2.09027e-06
0.51065
1.97229e-06
0.51065
1.98372e-06
0.510651
2.14213e-06
0.510651
2.39762e-06
0.510651
2.63249e-06
0.510651
2.79421e-06
0.510651
2.66959e-06
0.51065
2.19105e-06
0.510651
1.81187e-06
0.510651
1.81962e-06
0.510652
2.0567e-06
0.510652
2.37813e-06
0.510653
2.58974e-06
0.510653
2.542e-06
0.510653
2.38783e-06
0.510654
2.24378e-06
0.510654
2.10533e-06
0.510654
1.93905e-06
0.510655
1.76329e-06
0.510655
1.68526e-06
0.510656
1.67784e-06
0.510657
1.69651e-06
0.510657
1.82151e-06
0.510658
2.0896e-06
0.510659
2.37584e-06
0.510659
2.50452e-06
0.51066
2.45469e-06
0.51066
2.27095e-06
0.51066
2.02787e-06
0.510661
1.90432e-06
0.510662
2.04804e-06
0.510662
2.33177e-06
0.510662
2.45079e-06
0.510662
2.36582e-06
0.510662
2.29381e-06
0.510663
2.33295e-06
0.510663
2.39987e-06
0.510663
2.35258e-06
0.510663
2.24009e-06
0.510664
2.22398e-06
0.510664
2.30807e-06
0.510664
2.4118e-06
0.510664
2.4645e-06
0.510664
2.43986e-06
0.510664
2.4156e-06
0.510664
2.48251e-06
0.510664
2.61134e-06
0.510664
2.7039e-06
0.510664
2.67511e-06
0.510664
2.4624e-06
0.510664
2.17801e-06
0.510665
2.05884e-06
0.510665
2.20325e-06
0.510665
2.44621e-06
0.510665
2.57399e-06
0.510664
2.57727e-06
0.510664
2.49548e-06
0.510664
2.33617e-06
0.510664
2.19423e-06
0.510664
2.16139e-06
0.510665
2.25543e-06
0.510665
2.40561e-06
0.510665
2.5167e-06
0.510665
2.57557e-06
0.510665
2.56985e-06
0.510665
2.47895e-06
0.510665
2.37181e-06
0.510665
2.32565e-06
0.510665
2.32123e-06
0.510665
2.33448e-06
0.510666
2.38739e-06
0.510666
2.44667e-06
0.510666
2.45257e-06
0.510666
2.42339e-06
0.510666
2.39084e-06
0.510666
2.32117e-06
0.510666
2.24021e-06
0.510666
2.24677e-06
0.510667
2.31281e-06
0.510667
2.31574e-06
0.510667
2.20031e-06
0.510668
2.0704e-06
0.510668
2.07996e-06
0.510669
2.14924e-06
0.510669
2.11692e-06
0.51067
2.06899e-06
0.51067
2.11416e-06
0.51067
2.15334e-06
0.510671
2.14883e-06
0.510671
2.21374e-06
0.510671
2.28515e-06
0.510671
2.1648e-06
0.510672
1.91887e-06
0.510673
1.81987e-06
0.510674
1.94945e-06
0.510675
2.13388e-06
0.510675
2.25055e-06
0.510675
2.34501e-06
0.510675
2.37217e-06
0.510675
2.18479e-06
0.510676
1.9046e-06
0.510677
1.85451e-06
0.510677
2.04935e-06
0.510678
2.20278e-06
0.510678
2.22398e-06
0.510678
2.26693e-06
0.510678
2.33229e-06
0.510678
2.25096e-06
0.510679
2.08286e-06
0.510679
2.0827e-06
0.510679
2.23522e-06
0.51068
2.30113e-06
0.51068
2.27777e-06
0.51068
2.30051e-06
0.51068
2.34372e-06
0.510681
2.33993e-06
0.510681
2.3244e-06
0.510681
2.32475e-06
0.510682
2.26138e-06
2.21878e-06
0.51062
5.82981e-08
0.51062
8.31888e-07
0.51062
1.42669e-06
0.51062
1.21388e-06
0.510621
1.07915e-06
0.510621
1.26869e-06
0.510622
1.27227e-06
0.510622
1.89619e-06
0.510621
2.32827e-06
0.510621
1.84831e-06
0.510622
1.34536e-06
0.510623
1.49755e-06
0.510624
1.99628e-06
0.510624
1.98096e-06
0.510624
1.95266e-06
0.510624
2.31148e-06
0.510624
2.34373e-06
0.510624
1.93965e-06
0.510625
1.48929e-06
0.510625
1.7117e-06
0.510624
2.18336e-06
0.510624
2.21052e-06
0.510624
2.07206e-06
0.510625
1.94449e-06
0.510625
2.08028e-06
0.510624
2.40244e-06
0.510624
2.38686e-06
0.510623
2.24373e-06
0.510624
2.10055e-06
0.510624
1.92811e-06
0.510625
2.07812e-06
0.510625
2.2752e-06
0.510626
2.03804e-06
0.510627
1.74152e-06
0.510628
1.86596e-06
0.510628
2.2314e-06
0.510628
2.29209e-06
0.510629
2.11536e-06
0.510629
2.24308e-06
0.510629
2.26922e-06
0.510629
2.00149e-06
0.510629
1.95498e-06
0.510629
1.91391e-06
0.51063
1.76322e-06
0.510631
1.68036e-06
0.510631
1.53311e-06
0.510632
1.42003e-06
0.510634
1.29475e-06
0.510635
1.23197e-06
0.510636
1.58354e-06
0.510636
2.02002e-06
0.510636
2.13763e-06
0.510636
2.18615e-06
0.510635
2.43264e-06
0.510635
2.77391e-06
0.510634
2.84524e-06
0.510634
2.4036e-06
0.510634
1.88988e-06
0.510635
1.66115e-06
0.510636
1.70054e-06
0.510636
1.96197e-06
0.510636
2.12473e-06
0.510636
2.1778e-06
0.510636
2.24366e-06
0.510637
2.07165e-06
0.510637
1.78569e-06
0.510638
1.73491e-06
0.510638
1.90911e-06
0.510637
2.18299e-06
0.510637
2.50867e-06
0.510637
2.65895e-06
0.510637
2.4706e-06
0.510637
2.11788e-06
0.510638
1.84036e-06
0.510638
1.85543e-06
0.510638
2.03142e-06
0.510638
1.94617e-06
0.510638
1.80109e-06
0.510638
2.01821e-06
0.510639
2.34724e-06
0.510639
2.52602e-06
0.510638
2.59504e-06
0.510638
2.45181e-06
0.510639
2.06157e-06
0.510639
1.66054e-06
0.51064
1.45286e-06
0.51064
1.55171e-06
0.51064
1.93516e-06
0.51064
2.2678e-06
0.510641
2.3356e-06
0.510641
2.19965e-06
0.510642
1.83001e-06
0.510643
1.38662e-06
0.510644
1.27723e-06
0.510644
1.50841e-06
0.510644
1.77942e-06
0.510644
2.01595e-06
0.510644
2.14493e-06
0.510645
2.05757e-06
0.510646
1.96237e-06
0.510646
1.94439e-06
0.510647
1.8337e-06
0.510647
1.71495e-06
0.510648
1.68783e-06
0.510648
1.67047e-06
0.510648
1.73376e-06
0.510647
1.91498e-06
0.510647
2.00356e-06
0.510648
1.94209e-06
0.510648
1.87926e-06
0.510649
1.87804e-06
0.51065
1.93336e-06
0.51065
1.95888e-06
0.51065
1.94531e-06
0.51065
2.08416e-06
0.51065
2.40093e-06
0.51065
2.61054e-06
0.51065
2.59986e-06
0.51065
2.46926e-06
0.51065
2.25474e-06
0.510651
1.99504e-06
0.510651
1.79601e-06
0.510651
1.72258e-06
0.51065
1.78876e-06
0.51065
2.03985e-06
0.510651
2.36029e-06
0.510651
2.49916e-06
0.510651
2.45963e-06
0.510651
2.35822e-06
0.510651
2.23925e-06
0.51065
2.13834e-06
0.51065
1.99138e-06
0.510651
1.80927e-06
0.510651
1.72414e-06
0.510652
1.75808e-06
0.510653
1.91654e-06
0.510654
2.14379e-06
0.510654
2.20182e-06
0.510653
2.08374e-06
0.510653
2.02034e-06
0.510653
2.02213e-06
0.510654
2.09286e-06
0.510654
2.25082e-06
0.510654
2.30459e-06
0.510654
2.19818e-06
0.510655
2.00731e-06
0.510655
1.79521e-06
0.510655
1.67229e-06
0.510655
1.70108e-06
0.510655
1.88719e-06
0.510655
2.10846e-06
0.510654
2.18551e-06
0.510654
2.10443e-06
0.510654
2.00273e-06
0.510654
2.01369e-06
0.510655
2.06883e-06
0.510655
2.08462e-06
0.510655
2.0919e-06
0.510655
2.08067e-06
0.510655
2.02957e-06
0.510655
2.00372e-06
0.510655
2.09692e-06
0.510656
2.21164e-06
0.510656
2.17878e-06
0.510656
2.01422e-06
0.510657
1.85027e-06
0.510657
1.80396e-06
0.510658
1.81684e-06
0.510658
1.79846e-06
0.510659
1.8208e-06
0.510659
1.93068e-06
0.510659
2.08772e-06
0.510659
2.22637e-06
0.51066
2.27858e-06
0.51066
2.22471e-06
0.51066
2.11735e-06
0.510661
1.9969e-06
0.510662
1.89982e-06
0.510662
1.93668e-06
0.510663
2.11321e-06
0.510663
2.24818e-06
0.510662
2.21044e-06
0.510663
2.06105e-06
0.510663
1.95304e-06
0.510664
1.9317e-06
0.510664
2.0325e-06
0.510665
2.24663e-06
0.510664
2.39799e-06
0.510664
2.34165e-06
0.510664
2.10577e-06
0.510665
1.87583e-06
0.510665
1.8297e-06
0.510666
1.93768e-06
0.510666
2.09456e-06
0.510667
2.23358e-06
0.510667
2.26868e-06
0.510667
2.19896e-06
0.510667
2.11436e-06
0.510668
2.02849e-06
0.510668
1.91927e-06
0.510669
1.84569e-06
0.510669
1.83487e-06
0.51067
1.83842e-06
0.51067
1.84455e-06
0.510671
1.89525e-06
0.510671
1.97255e-06
0.510671
1.98274e-06
0.510672
1.91448e-06
0.510672
1.86036e-06
0.510673
1.88244e-06
0.510673
1.93763e-06
0.510673
1.95729e-06
0.510673
1.99733e-06
0.510673
2.05373e-06
0.510673
1.99437e-06
0.510674
1.87803e-06
0.510674
1.91751e-06
0.510674
2.07544e-06
0.510674
2.14889e-06
0.510674
2.17073e-06
0.510674
2.28717e-06
0.510674
2.40198e-06
0.510673
2.34688e-06
0.510673
2.18113e-06
0.510673
2.0512e-06
0.510673
1.94726e-06
0.510673
1.81295e-06
0.510674
1.76802e-06
0.510674
1.93616e-06
0.510674
2.1427e-06
0.510674
2.14175e-06
0.510674
1.9882e-06
0.510674
1.86928e-06
0.510675
1.77567e-06
0.510675
1.64681e-06
0.510676
1.60464e-06
0.510677
1.74528e-06
0.510677
1.90018e-06
0.510677
1.89013e-06
0.510677
1.83256e-06
0.510678
1.89716e-06
0.510678
1.97545e-06
0.510678
1.97459e-06
0.510679
2.00348e-06
0.510679
2.07532e-06
0.510679
2.08894e-06
0.510679
2.06996e-06
0.51068
2.09994e-06
0.51068
2.14024e-06
2.11662e-06
0.51062
-3.01318e-07
0.510621
7.84747e-08
0.510622
9.11461e-07
0.510621
1.9039e-06
0.51062
1.9292e-06
0.51062
1.57975e-06
0.510619
1.63839e-06
0.51062
1.29164e-06
0.510621
1.08661e-06
0.510622
1.40246e-06
0.510621
1.71885e-06
0.510621
1.42809e-06
0.510622
1.18812e-06
0.510623
1.10457e-06
0.510624
7.56984e-07
0.510626
7.71764e-07
0.510627
1.6523e-06
0.510626
2.62146e-06
0.510625
2.5041e-06
0.510625
1.56628e-06
0.510626
1.32193e-06
0.510626
1.73914e-06
0.510626
2.05295e-06
0.510626
2.25031e-06
0.510626
2.36321e-06
0.510626
2.38691e-06
0.510626
2.10401e-06
0.510627
1.67748e-06
0.510627
1.71687e-06
0.510627
1.95088e-06
0.510627
1.76644e-06
0.510628
1.4389e-06
0.510629
1.41963e-06
0.510629
1.65223e-06
0.510629
1.78268e-06
0.510629
1.77255e-06
0.51063
1.71654e-06
0.510631
1.46464e-06
0.510632
1.26616e-06
0.510633
1.3402e-06
0.510633
1.39346e-06
0.510634
1.54442e-06
0.510634
1.70379e-06
0.510634
1.7177e-06
0.510634
1.89966e-06
0.510633
1.97364e-06
0.510633
1.78478e-06
0.510632
1.88649e-06
0.510631
2.25219e-06
0.51063
2.39296e-06
0.51063
2.16081e-06
0.510631
1.75847e-06
0.510631
1.57157e-06
0.510632
1.88189e-06
0.510632
2.37856e-06
0.510632
2.49551e-06
0.510633
2.03772e-06
0.510633
1.35315e-06
0.510634
1.06946e-06
0.510634
1.39616e-06
0.510634
2.04048e-06
0.510634
2.43413e-06
0.510634
2.35901e-06
0.510634
2.11959e-06
0.510634
1.92382e-06
0.510634
1.84877e-06
0.510634
1.8944e-06
0.510634
1.98472e-06
0.510634
2.05317e-06
0.510634
2.05101e-06
0.510635
2.05166e-06
0.510635
2.11505e-06
0.510635
2.05943e-06
0.510635
1.72879e-06
0.510636
1.43842e-06
0.510636
1.49926e-06
0.510637
1.61435e-06
0.510637
1.56745e-06
0.510637
1.63942e-06
0.510638
1.91624e-06
0.510638
2.16096e-06
0.510639
2.17477e-06
0.510639
1.87102e-06
0.51064
1.35504e-06
0.51064
1.05407e-06
0.510641
1.24194e-06
0.510641
1.63336e-06
0.510641
1.94521e-06
0.510641
2.07342e-06
0.510641
1.9379e-06
0.510642
1.69522e-06
0.510642
1.37694e-06
0.510643
9.08889e-07
0.510643
6.25869e-07
0.510644
8.48394e-07
0.510644
1.38346e-06
0.510644
1.9443e-06
0.510644
2.34401e-06
0.510644
2.34801e-06
0.510644
2.04029e-06
0.510644
1.75241e-06
0.510644
1.5391e-06
0.510645
1.43133e-06
0.510645
1.52347e-06
0.510645
1.64444e-06
0.510645
1.68921e-06
0.510645
1.82829e-06
0.510645
2.07467e-06
0.510644
2.24776e-06
0.510644
2.24022e-06
0.510644
2.03508e-06
0.510644
1.76295e-06
0.510645
1.57398e-06
0.510645
1.52781e-06
0.510645
1.67761e-06
0.510646
1.9545e-06
0.510646
2.08697e-06
0.510647
1.96782e-06
0.510648
1.75139e-06
0.510648
1.54121e-06
0.510649
1.39121e-06
0.510649
1.40559e-06
0.51065
1.52973e-06
0.51065
1.56582e-06
0.51065
1.58689e-06
0.510651
1.79076e-06
0.510651
2.03612e-06
0.510652
2.09294e-06
0.510652
1.95354e-06
0.510653
1.78251e-06
0.510653
1.79784e-06
0.510653
1.96093e-06
0.510653
2.01853e-06
0.510653
1.85534e-06
0.510653
1.54964e-06
0.510653
1.32325e-06
0.510654
1.38688e-06
0.510655
1.56742e-06
0.510655
1.59563e-06
0.510656
1.62072e-06
0.510656
1.76089e-06
0.510656
1.88827e-06
0.510656
1.97388e-06
0.510657
1.93882e-06
0.510657
1.76382e-06
0.510658
1.61364e-06
0.510658
1.54788e-06
0.510658
1.50001e-06
0.510658
1.40334e-06
0.510659
1.34066e-06
0.510659
1.49287e-06
0.51066
1.82685e-06
0.51066
2.11115e-06
0.51066
2.193e-06
0.510659
2.15053e-06
0.510659
2.09155e-06
0.510659
2.02515e-06
0.51066
1.97251e-06
0.51066
1.91086e-06
0.51066
1.78105e-06
0.51066
1.65726e-06
0.510661
1.70879e-06
0.510661
1.90473e-06
0.510661
2.04033e-06
0.510661
2.0056e-06
0.510661
1.85188e-06
0.510661
1.75173e-06
0.510661
1.74157e-06
0.510661
1.689e-06
0.510662
1.60028e-06
0.510662
1.59429e-06
0.510662
1.75159e-06
0.510663
2.00025e-06
0.510663
2.12132e-06
0.510663
2.0128e-06
0.510663
1.82472e-06
0.510663
1.75106e-06
0.510664
1.78988e-06
0.510664
1.85152e-06
0.510664
1.87946e-06
0.510664
1.83926e-06
0.510665
1.77873e-06
0.510665
1.79713e-06
0.510665
1.90656e-06
0.510665
1.9514e-06
0.510665
1.83173e-06
0.510666
1.6954e-06
0.510667
1.69622e-06
0.510667
1.82506e-06
0.510667
1.96706e-06
0.510667
2.01241e-06
0.510667
1.94946e-06
0.510667
1.83111e-06
0.510667
1.73525e-06
0.510668
1.7414e-06
0.510668
1.82591e-06
0.510669
1.89699e-06
0.510669
1.94809e-06
0.510669
1.9829e-06
0.510669
1.9365e-06
0.510669
1.83168e-06
0.510669
1.77172e-06
0.510669
1.76632e-06
0.510669
1.75075e-06
0.510669
1.71226e-06
0.51067
1.68685e-06
0.51067
1.67813e-06
0.51067
1.70228e-06
0.51067
1.78269e-06
0.51067
1.87068e-06
0.51067
1.86863e-06
0.51067
1.72602e-06
0.510671
1.59846e-06
0.510671
1.69606e-06
0.510671
1.89482e-06
0.510671
1.92933e-06
0.510671
1.82006e-06
0.510672
1.72144e-06
0.510672
1.64549e-06
0.510673
1.61352e-06
0.510673
1.73292e-06
0.510674
1.95707e-06
0.510674
2.06948e-06
0.510674
1.97953e-06
0.510674
1.83572e-06
0.510675
1.77786e-06
0.510675
1.75026e-06
0.510675
1.68917e-06
0.510675
1.68494e-06
0.510675
1.77359e-06
0.510676
1.81157e-06
0.510676
1.74809e-06
0.510676
1.73433e-06
0.510676
1.8157e-06
0.510676
1.8356e-06
0.510676
1.73537e-06
0.510676
1.67089e-06
0.510676
1.73818e-06
0.510676
1.7956e-06
0.510676
1.74304e-06
0.510676
1.7367e-06
0.510676
1.83485e-06
0.510677
1.86199e-06
0.510677
1.79955e-06
0.510677
1.80923e-06
0.510677
1.88005e-06
0.510677
1.88063e-06
0.510678
1.82777e-06
0.510678
1.81175e-06
1.76903e-06
0.51062
3.02468e-07
0.510619
1.41182e-07
0.51062
2.14067e-07
0.510622
3.38894e-07
0.510623
7.68283e-07
0.510623
1.12534e-06
0.510624
9.34099e-07
0.510624
9.73465e-07
0.510624
1.36515e-06
0.510624
1.43907e-06
0.510625
1.13963e-06
0.510625
1.38827e-06
0.510624
2.04665e-06
0.510623
2.03981e-06
0.510622
1.78024e-06
0.510621
1.67793e-06
0.510621
1.21549e-06
0.510623
8.1867e-07
0.510625
9.72124e-07
0.510625
1.66162e-06
0.510624
1.7251e-06
0.510624
1.54044e-06
0.510625
1.23369e-06
0.510626
1.01957e-06
0.510628
1.09164e-06
0.510629
1.25641e-06
0.510629
1.53627e-06
0.510629
2.02435e-06
0.510629
2.26734e-06
0.510628
2.08654e-06
0.510628
1.92927e-06
0.510628
1.86835e-06
0.510628
1.6638e-06
0.510628
1.53938e-06
0.510628
1.73226e-06
0.510628
1.86537e-06
0.510628
1.81609e-06
0.510627
1.84473e-06
0.510626
1.95798e-06
0.510626
1.95072e-06
0.510626
1.51831e-06
0.510626
9.83372e-07
0.510627
1.14165e-06
0.510627
1.45887e-06
0.510628
1.27342e-06
0.510629
9.33373e-07
0.51063
8.95191e-07
0.51063
1.26755e-06
0.510631
1.57505e-06
0.510632
1.37545e-06
0.510633
1.10307e-06
0.510633
1.32033e-06
0.510633
1.68809e-06
0.510633
1.84396e-06
0.510634
1.90327e-06
0.510634
1.8946e-06
0.510635
1.82815e-06
0.510634
1.75735e-06
0.510634
1.60607e-06
0.510634
1.47899e-06
0.510634
1.70673e-06
0.510634
2.07635e-06
0.510635
2.05e-06
0.510635
1.69749e-06
0.510636
1.26288e-06
0.510637
9.47846e-07
0.510637
1.07835e-06
0.510638
1.52416e-06
0.510638
1.85744e-06
0.510638
1.88997e-06
0.510639
1.61003e-06
0.51064
1.26534e-06
0.51064
1.24353e-06
0.510641
1.4722e-06
0.51064
1.61748e-06
0.51064
1.76606e-06
0.51064
1.90663e-06
0.51064
1.8315e-06
0.51064
1.75471e-06
0.51064
1.84569e-06
0.51064
1.98655e-06
0.51064
2.04722e-06
0.51064
1.94967e-06
0.51064
1.63676e-06
0.510639
1.19651e-06
0.51064
1.00443e-06
0.51064
1.21621e-06
0.51064
1.64611e-06
0.51064
2.02492e-06
0.51064
1.94424e-06
0.510641
1.46868e-06
0.510641
1.14182e-06
0.510641
1.07528e-06
0.51064
1.0894e-06
0.51064
1.1835e-06
0.51064
1.3325e-06
0.51064
1.4991e-06
0.510641
1.69748e-06
0.510642
1.7346e-06
0.510642
1.5194e-06
0.510643
1.30626e-06
0.510643
1.13675e-06
0.510644
8.67265e-07
0.510644
6.83016e-07
0.510645
7.65718e-07
0.510646
1.04212e-06
0.510646
1.37887e-06
0.510647
1.63115e-06
0.510647
1.70379e-06
0.510648
1.62814e-06
0.510649
1.46169e-06
0.510649
1.34084e-06
0.510649
1.3732e-06
0.510649
1.47607e-06
0.510649
1.68065e-06
0.510649
2.064e-06
0.510649
2.36236e-06
0.510649
2.27193e-06
0.510648
1.8827e-06
0.510649
1.45173e-06
0.510649
1.13212e-06
0.510649
1.07446e-06
0.510649
1.35271e-06
0.510649
1.75473e-06
0.510649
1.99699e-06
0.510648
2.01933e-06
0.510649
1.90723e-06
0.510649
1.77071e-06
0.510649
1.68047e-06
0.510649
1.62077e-06
0.51065
1.59391e-06
0.51065
1.65098e-06
0.51065
1.79261e-06
0.51065
1.91505e-06
0.51065
1.83256e-06
0.51065
1.51498e-06
0.51065
1.24622e-06
0.51065
1.26209e-06
0.51065
1.43177e-06
0.51065
1.59599e-06
0.51065
1.72402e-06
0.51065
1.72365e-06
0.510651
1.65725e-06
0.510651
1.63178e-06
0.510651
1.51942e-06
0.510652
1.27034e-06
0.510652
1.01746e-06
0.510653
9.12124e-07
0.510653
9.75759e-07
0.510653
1.09249e-06
0.510654