/*--------------------------------*- C++ -*----------------------------------*\
| =========                 |                                                 |
| \\      /  F ield         | OpenFOAM: The Open Source CFD Toolbox           |
|  \\    /   O peration     | Version:  2406                                  |
|   \\  /    A nd           | Website:  www.openfoam.com                      |
|    \\/     M anipulation  |                                                 |
\*---------------------------------------------------------------------------*/
FoamFile
{
    version     2.0;
    format      ascii;
    arch        "LSB;label=32;scalar=64";
    class       surfaceScalarField;
    location    "1.35";
    object      phi;
}
// * * * * * * * * * * * * * * * * * * * * * * * * * * * * * * * * * * * * * //

dimensions      [0 3 -1 0 0 0 0];

oriented        oriented;

internalField   nonuniform List<scalar> 
12225
(
0.51062
2.09353e-06
0.510613
6.61125e-06
0.510605
7.59516e-06
0.5106
5.21574e-06
0.510596
4.4006e-06
0.510591
5.01412e-06
0.510585
5.60517e-06
0.510579
5.91545e-06
0.510573
5.73515e-06
0.510568
5.5155e-06
0.510563
5.41155e-06
0.510557
5.21931e-06
0.510552
4.97156e-06
0.510547
5.29061e-06
0.510541
5.61135e-06
0.510536
5.7927e-06
0.51053
5.72543e-06
0.510524
5.50539e-06
0.510519
5.39247e-06
0.510514
5.18232e-06
0.510509
4.9435e-06
0.510504
5.08135e-06
0.510498
5.70814e-06
0.510492
6.13553e-06
0.510486
6.30971e-06
0.510479
6.33257e-06
0.510473
5.99378e-06
0.510468
5.72101e-06
0.510462
5.56501e-06
0.510457
5.40203e-06
0.510451
5.17398e-06
0.510446
4.96314e-06
0.510441
5.31712e-06
0.510435
5.79845e-06
0.51043
5.68978e-06
0.510424
5.28789e-06
0.510419
5.00029e-06
0.510414
5.15677e-06
0.510409
5.44874e-06
0.510403
5.35458e-06
0.510398
5.35973e-06
0.510393
5.45918e-06
0.510387
5.36292e-06
0.510382
5.30273e-06
0.510377
4.96941e-06
0.510372
4.65565e-06
0.510367
4.9574e-06
0.510362
5.38819e-06
0.510356
5.78427e-06
0.51035
6.0981e-06
0.510344
5.88774e-06
0.510339
5.43502e-06
0.510333
5.30723e-06
0.510328
5.48826e-06
0.510322
5.56104e-06
0.510317
5.22069e-06
0.510312
4.80849e-06
0.510308
4.79023e-06
0.510303
4.99993e-06
0.510297
5.28184e-06
0.510292
5.67056e-06
0.510286
5.98596e-06
0.51028
6.05012e-06
0.510274
5.87771e-06
0.510268
5.67807e-06
0.510263
5.41031e-06
0.510257
5.17282e-06
0.510252
5.2624e-06
0.510247
5.50976e-06
0.510241
5.75337e-06
0.510235
5.86504e-06
0.510229
5.69558e-06
0.510224
5.53847e-06
0.510218
5.56995e-06
0.510213
5.54964e-06
0.510207
5.38729e-06
0.510202
5.39495e-06
0.510196
5.66686e-06
0.51019
5.83244e-06
0.510185
5.77386e-06
0.510179
5.67779e-06
0.510173
5.54364e-06
0.510168
5.32967e-06
0.510163
5.10794e-06
0.510158
4.95408e-06
0.510153
5.02111e-06
0.510148
5.33224e-06
0.510142
5.54438e-06
0.510137
5.47042e-06
0.510131
5.38039e-06
0.510126
5.44168e-06
0.51012
5.37637e-06
0.510115
5.12167e-06
0.51011
4.93493e-06
0.510106
4.83502e-06
0.510101
4.97705e-06
0.510095
5.42255e-06
0.510089
5.75241e-06
0.510084
5.76201e-06
0.510078
5.50739e-06
0.510073
5.22849e-06
0.510068
5.26649e-06
0.510062
5.48165e-06
0.510057
5.6688e-06
0.510051
5.7811e-06
0.510045
5.57679e-06
0.51004
5.08804e-06
0.510035
4.74216e-06
0.510031
4.80881e-06
0.510025
5.20672e-06
0.51002
5.68361e-06
0.510014
5.9723e-06
0.510008
5.85864e-06
0.510002
5.48986e-06
0.509997
5.21524e-06
0.509992
5.06467e-06
0.509987
5.02608e-06
0.509982
5.11492e-06
0.509977
5.2706e-06
0.509971
5.57361e-06
0.509965
5.84903e-06
0.509959
5.7693e-06
0.509954
5.45725e-06
0.509949
5.14759e-06
0.509944
4.95896e-06
0.509939
4.99779e-06
0.509934
5.27994e-06
0.509928
5.65964e-06
0.509922
5.86707e-06
0.509916
5.81927e-06
0.509911
5.69175e-06
0.509905
5.62446e-06
0.509899
5.62926e-06
0.509894
5.52179e-06
0.509889
5.21749e-06
0.509884
4.97557e-06
0.509879
4.9483e-06
0.509874
5.09167e-06
0.509868
5.32518e-06
0.509863
5.49962e-06
0.509857
5.56493e-06
0.509852
5.46265e-06
0.509847
5.18617e-06
0.509841
5.04685e-06
0.509836
5.23784e-06
0.509831
5.56723e-06
0.509825
5.74798e-06
0.509819
5.65348e-06
0.509814
5.36136e-06
0.509809
5.00317e-06
0.509804
4.81618e-06
0.509799
5.0113e-06
0.509794
5.43253e-06
0.509788
5.70289e-06
0.509782
5.63202e-06
0.509777
5.41546e-06
0.509772
5.35229e-06
0.509766
5.40166e-06
0.509761
5.43761e-06
0.509755
5.41859e-06
0.50975
5.31318e-06
0.509745
5.23535e-06
0.509739
5.2503e-06
0.509734
5.29215e-06
0.509729
5.36209e-06
0.509723
5.46028e-06
0.509718
5.53721e-06
0.509712
5.5219e-06
0.509707
5.43394e-06
0.509701
5.39033e-06
0.509696
5.38164e-06
0.509691
5.37705e-06
0.509685
5.43751e-06
0.50968
5.50558e-06
0.509674
5.46408e-06
0.509669
5.34722e-06
0.509664
5.34785e-06
0.509658
5.55143e-06
0.509652
5.68047e-06
0.509647
5.5114e-06
0.509642
5.26147e-06
0.509636
5.19882e-06
0.509631
5.33207e-06
0.509626
5.48224e-06
0.50962
5.49676e-06
0.509615
5.40373e-06
0.509609
5.30194e-06
0.509604
5.32143e-06
0.509599
5.51388e-06
0.509593
5.70236e-06
0.509587
5.6938e-06
0.509582
5.46717e-06
0.509577
5.1944e-06
0.509571
5.1407e-06
0.509566
5.39274e-06
0.50956
5.80436e-06
0.509554
6.12629e-06
0.509548
6.19075e-06
0.509542
6.02759e-06
0.509536
5.76785e-06
0.509531
5.54356e-06
0.509525
5.48834e-06
0.509519
5.64076e-06
0.509514
5.84713e-06
0.509508
5.88163e-06
0.509502
5.70071e-06
0.509496
5.45706e-06
0.509491
5.29944e-06
0.509486
5.29815e-06
0.50948
5.40582e-06
0.509475
5.48088e-06
0.50947
5.45936e-06
0.509464
5.35767e-06
0.509459
5.25036e-06
0.509454
5.28823e-06
0.509448
5.46065e-06
0.509443
5.54088e-06
0.509437
5.45301e-06
0.509432
5.40386e-06
0.509426
5.54575e-06
0.50942
5.76994e-06
0.509415
5.90967e-06
0.509409
5.90175e-06
0.509403
5.74161e-06
0.509397
5.47297e-06
0.509392
5.21777e-06
0.509387
5.12425e-06
0.509382
5.17682e-06
0.509377
5.21187e-06
0.509372
5.19213e-06
0.509366
5.19316e-06
0.509361
5.18824e-06
0.509356
5.1189e-06
0.509351
5.02334e-06
0.509346
4.98373e-06
0.509341
5.03116e-06
0.509336
5.13015e-06
0.509331
5.25131e-06
0.509325
5.40928e-06
0.50932
5.52399e-06
0.509314
5.4577e-06
0.509309
5.22976e-06
0.509304
5.02816e-06
0.509299
5.03033e-06
0.509294
5.20104e-06
0.509288
5.34583e-06
0.509283
5.42611e-06
0.509278
5.37796e-06
0.509272
5.72956e-06
5.22281e-06
0.510624
-2.26431e-07
0.51063
4.31137e-07
0.510636
1.7309e-06
0.510639
2.69146e-06
0.510641
2.67445e-06
0.510643
2.14598e-06
0.510647
2.12355e-06
0.510651
2.09899e-06
0.510654
2.2316e-06
0.510657
2.73641e-06
0.510659
2.94425e-06
0.510662
2.92615e-06
0.510664
2.67539e-06
0.510667
2.27335e-06
0.51067
2.32494e-06
0.510674
2.11827e-06
0.510678
1.86156e-06
0.510682
1.63071e-06
0.510686
1.55105e-06
0.510688
2.49337e-06
0.51069
3.45075e-06
0.510692
3.25115e-06
0.510695
2.62661e-06
0.510699
2.31584e-06
0.510702
2.37378e-06
0.510706
2.68617e-06
0.510709
2.85433e-06
0.510712
2.69163e-06
0.510715
2.57025e-06
0.510718
2.59072e-06
0.510721
2.70031e-06
0.510723
2.65317e-06
0.510726
2.23181e-06
0.51073
1.9444e-06
0.510733
2.15934e-06
0.510736
2.55218e-06
0.510738
2.66796e-06
0.510741
2.31983e-06
0.510745
2.01097e-06
0.510748
2.01737e-06
0.510751
2.0886e-06
0.510755
2.11065e-06
0.510758
2.00221e-06
0.510761
2.34681e-06
0.510763
3.06472e-06
0.510764
3.06314e-06
0.510767
2.58554e-06
0.51077
2.40143e-06
0.510773
2.43962e-06
0.510777
2.50545e-06
0.51078
2.54001e-06
0.510783
2.39157e-06
0.510786
2.04074e-06
0.51079
1.93355e-06
0.510793
2.1653e-06
0.510796
2.39663e-06
0.510798
2.70412e-06
0.5108
3.16881e-06
0.510802
3.23904e-06
0.510804
2.70807e-06
0.510808
1.999e-06
0.510812
1.74245e-06
0.510816
2.29161e-06
0.510819
2.95694e-06
0.510821
3.06943e-06
0.510824
2.91137e-06
0.510826
2.65912e-06
0.510829
2.54437e-06
0.510832
2.71367e-06
0.510835
2.82869e-06
0.510838
2.85019e-06
0.510841
2.90141e-06
0.510843
2.90536e-06
0.510846
2.89229e-06
0.510849
2.94586e-06
0.510851
2.80333e-06
0.510854
2.34837e-06
0.510858
2.08603e-06
0.510861
2.16859e-06
0.510865
2.21949e-06
0.510869
2.18776e-06
0.510872
2.21821e-06
0.510875
2.32753e-06
0.510877
2.53827e-06
0.51088
2.63362e-06
0.510882
2.33026e-06
0.510886
2.00463e-06
0.510889
2.14667e-06
0.510892
2.4237e-06
0.510895
2.50009e-06
0.510898
2.6155e-06
0.510901
2.77467e-06
0.510903
2.71804e-06
0.510905
2.51085e-06
0.510908
2.17139e-06
0.510911
1.70904e-06
0.510915
1.52309e-06
0.510919
1.79587e-06
0.510923
2.38591e-06
0.510925
2.9562e-06
0.510927
3.07908e-06
0.51093
2.86782e-06
0.510933
2.59114e-06
0.510936
2.2581e-06
0.51094
2.10072e-06
0.510943
2.22783e-06
0.510946
2.44637e-06
0.510948
2.65811e-06
0.51095
2.7966e-06
0.510952
2.8443e-06
0.510955
2.85151e-06
0.510958
2.87847e-06
0.510961
2.82564e-06
0.510964
2.51217e-06
0.510967
2.1065e-06
0.51097
1.93715e-06
0.510973
2.1403e-06
0.510976
2.59151e-06
0.510978
2.86991e-06
0.510981
2.81139e-06
0.510984
2.6504e-06
0.510987
2.50196e-06
0.51099
2.3116e-06
0.510993
2.20771e-06
0.510996
2.252e-06
0.510999
2.29099e-06
0.511002
2.26129e-06
0.511005
2.30417e-06
0.511009
2.4654e-06
0.511012
2.62014e-06
0.511015
2.62943e-06
0.511018
2.44313e-06
0.511021
2.352e-06
0.511024
2.5935e-06
0.511027
2.84387e-06
0.511029
2.79811e-06
0.511031
2.46183e-06
0.511034
2.03455e-06
0.511038
1.87934e-06
0.511041
2.06696e-06
0.511044
2.43571e-06
0.511047
2.87602e-06
0.511049
3.06897e-06
0.511051
2.88612e-06
0.511054
2.62177e-06
0.511057
2.46094e-06
0.51106
2.38297e-06
0.511064
2.36525e-06
0.511066
2.41752e-06
0.511069
2.45913e-06
0.511071
2.3465e-06
0.511074
2.19354e-06
0.511077
2.29719e-06
0.51108
2.70931e-06
0.511083
3.10476e-06
0.511085
3.14731e-06
0.511088
2.9045e-06
0.51109
2.61247e-06
0.511094
2.39412e-06
0.511097
2.39278e-06
0.511099
2.55428e-06
0.511102
2.66536e-06
0.511104
2.66287e-06
0.511107
2.60899e-06
0.51111
2.59177e-06
0.511113
2.62438e-06
0.511116
2.65417e-06
0.511119
2.63672e-06
0.511121
2.57436e-06
0.511124
2.55485e-06
0.511127
2.55509e-06
0.51113
2.47476e-06
0.511133
2.38104e-06
0.511136
2.38848e-06
0.511139
2.50993e-06
0.511142
2.63318e-06
0.511144
2.62057e-06
0.511147
2.57515e-06
0.511151
2.62308e-06
0.511153
2.61264e-06
0.511156
2.46891e-06
0.511159
2.33243e-06
0.511162
2.2882e-06
0.511165
2.34659e-06
0.511168
2.44635e-06
0.511171
2.48872e-06
0.511174
2.38936e-06
0.511177
2.1645e-06
0.511181
2.03328e-06
0.511184
2.17694e-06
0.511187
2.5196e-06
0.51119
2.82686e-06
0.511192
2.87956e-06
0.511195
2.64649e-06
0.511198
2.29206e-06
0.511202
2.0698e-06
0.511206
2.14045e-06
0.51121
2.40901e-06
0.511213
2.66958e-06
0.511216
2.80438e-06
0.511219
2.75794e-06
0.511222
2.55248e-06
0.511225
2.34409e-06
0.511228
2.3124e-06
0.511232
2.45742e-06
0.511235
2.59696e-06
0.511238
2.61629e-06
0.511241
2.53979e-06
0.511243
2.43609e-06
0.511246
2.39433e-06
0.511249
2.46119e-06
0.511252
2.61282e-06
0.511255
2.75372e-06
0.511257
2.70904e-06
0.51126
2.49196e-06
0.511263
2.39934e-06
0.511266
2.5379e-06
0.511269
2.63951e-06
0.511272
2.53613e-06
0.511275
2.38441e-06
0.511279
2.32039e-06
0.511282
2.33289e-06
0.511286
2.45467e-06
0.511289
2.70313e-06
0.511291
2.9447e-06
0.511293
2.9889e-06
0.511296
2.86028e-06
0.511298
2.74756e-06
0.511301
2.65666e-06
0.511303
2.48148e-06
0.511306
2.32629e-06
0.511309
2.35308e-06
0.511312
2.49739e-06
0.511314
2.58514e-06
0.511317
2.59426e-06
0.511319
2.58343e-06
0.511322
2.50656e-06
0.511325
2.29433e-06
0.511328
2.11438e-06
0.511331
2.23479e-06
0.511334
2.56677e-06
0.511336
2.75364e-06
0.511339
2.68597e-06
0.511341
2.55457e-06
0.511344
2.49996e-06
0.511347
2.53826e-06
0.51135
2.66444e-06
0.511352
2.78544e-06
0.511355
2.73501e-06
2.75742e-06
0.510624
-1.90372e-07
0.510624
5.00868e-07
0.510624
1.49434e-06
0.510625
1.62993e-06
0.510626
1.55595e-06
0.510626
2.15012e-06
0.510626
2.32934e-06
0.510626
1.96313e-06
0.510627
1.6102e-06
0.510628
1.49021e-06
0.510629
2.01639e-06
0.510629
2.67777e-06
0.510629
2.5257e-06
0.510629
2.23284e-06
0.51063
2.20125e-06
0.510629
2.52224e-06
0.510628
2.50288e-06
0.510628
2.10246e-06
0.510627
2.2299e-06
0.510628
2.01858e-06
0.51063
1.49736e-06
0.510631
1.79272e-06
0.510632
2.20315e-06
0.510632
2.23368e-06
0.510632
2.10877e-06
0.510633
1.86268e-06
0.510634
1.80956e-06
0.510635
1.96115e-06
0.510635
2.14114e-06
0.510635
2.41383e-06
0.510635
2.60775e-06
0.510635
2.49868e-06
0.510635
2.46291e-06
0.510634
2.81918e-06
0.510633
3.08338e-06
0.510633
2.88793e-06
0.510633
2.46974e-06
0.510633
2.34434e-06
0.510633
2.54376e-06
0.510632
2.36218e-06
0.510633
1.91561e-06
0.510633
2.04954e-06
0.510632
2.25825e-06
0.510633
2.04137e-06
0.510634
2.10055e-06
0.510634
2.48009e-06
0.510634
2.68726e-06
0.510634
2.61905e-06
0.510634
2.48478e-06
0.510634
2.39014e-06
0.510634
2.356e-06
0.510634
2.42072e-06
0.510634
2.21296e-06
0.510634
1.77436e-06
0.510635
1.69078e-06
0.510635
1.9157e-06
0.510636
2.05048e-06
0.510637
2.24552e-06
0.510637
2.62939e-06
0.510637
2.75027e-06
0.510637
2.48578e-06
0.510636
2.14334e-06
0.510637
1.98633e-06
0.510637
2.12291e-06
0.510638
2.44379e-06
0.510638
2.74986e-06
0.510638
2.60615e-06
0.510639
2.12966e-06
0.51064
1.8882e-06
0.51064
1.92657e-06
0.510641
2.15358e-06
0.510642
2.42003e-06
0.510642
2.48834e-06
0.510643
2.34206e-06
0.510643
2.19642e-06
0.510644
2.16096e-06
0.510644
2.08506e-06
0.510644
2.02022e-06
0.510644
2.12495e-06
0.510644
2.34599e-06
0.510644
2.56221e-06
0.510643
2.63598e-06
0.510643
2.45798e-06
0.510644
2.1681e-06
0.510644
2.07378e-06
0.510644
2.11803e-06
0.510644
2.02774e-06
0.510645
2.01373e-06
0.510645
2.30145e-06
0.510645
2.57451e-06
0.510645
2.63166e-06
0.510645
2.58337e-06
0.510645
2.38326e-06
0.510645
2.12247e-06
0.510646
2.0276e-06
0.510645
2.01923e-06
0.510645
2.0091e-06
0.510645
1.98706e-06
0.510645
2.05833e-06
0.510646
2.42155e-06
0.510646
2.77553e-06
0.510646
2.79564e-06
0.510646
2.58894e-06
0.510646
2.16375e-06
0.510646
1.71833e-06
0.510647
1.56734e-06
0.510648
1.58033e-06
0.510649
1.67913e-06
0.51065
2.02116e-06
0.51065
2.47139e-06
0.51065
2.70798e-06
0.51065
2.66924e-06
0.510651
2.4891e-06
0.510651
2.25434e-06
0.510651
2.14622e-06
0.510651
2.20964e-06
0.510651
2.27558e-06
0.510651
2.418e-06
0.510651
2.64649e-06
0.510651
2.67265e-06
0.510651
2.45982e-06
0.510652
2.16585e-06
0.510652
1.85124e-06
0.510653
1.64531e-06
0.510653
1.7406e-06
0.510653
2.12121e-06
0.510653
2.4984e-06
0.510653
2.64391e-06
0.510653
2.53093e-06
0.510653
2.28105e-06
0.510653
2.14216e-06
0.510654
2.12111e-06
0.510654
2.07476e-06
0.510655
2.09165e-06
0.510655
2.24591e-06
0.510655
2.51427e-06
0.510655
2.7292e-06
0.510655
2.58897e-06
0.510654
2.20064e-06
0.510654
1.88778e-06
0.510655
1.79444e-06
0.510656
2.06522e-06
0.510657
2.50357e-06
0.510657
2.63002e-06
0.510657
2.43954e-06
0.510657
2.23467e-06
0.510657
2.09747e-06
0.510658
1.93868e-06
0.510659
1.77949e-06
0.510659
1.78884e-06
0.51066
1.91174e-06
0.51066
1.92344e-06
0.51066
1.84309e-06
0.510661
1.86609e-06
0.510662
2.05224e-06
0.510663
2.25734e-06
0.510664
2.41662e-06
0.510664
2.49988e-06
0.510664
2.34399e-06
0.510664
2.05755e-06
0.510665
1.93992e-06
0.510665
2.05e-06
0.510666
2.25644e-06
0.510666
2.39867e-06
0.510666
2.41627e-06
0.510666
2.3814e-06
0.510667
2.40783e-06
0.510667
2.45996e-06
0.510667
2.37891e-06
0.510667
2.25535e-06
0.510668
2.27373e-06
0.510668
2.36739e-06
0.510668
2.42213e-06
0.510668
2.43615e-06
0.510668
2.45739e-06
0.510668
2.50922e-06
0.510668
2.52942e-06
0.510668
2.52548e-06
0.510668
2.58965e-06
0.510668
2.58952e-06
0.510668
2.39674e-06
0.510668
2.19828e-06
0.510668
2.16528e-06
0.510668
2.2551e-06
0.510668
2.35461e-06
0.510669
2.44401e-06
0.510668
2.52318e-06
0.510668
2.48487e-06
0.510668
2.30725e-06
0.510668
2.1217e-06
0.510668
2.0722e-06
0.510669
2.22084e-06
0.510669
2.47251e-06
0.510669
2.67644e-06
0.510669
2.72113e-06
0.510668
2.57027e-06
0.510668
2.34537e-06
0.510668
2.2026e-06
0.510669
2.19468e-06
0.510669
2.30975e-06
0.51067
2.474e-06
0.51067
2.55484e-06
0.510669
2.48571e-06
0.510669
2.34397e-06
0.51067
2.249e-06
0.51067
2.24065e-06
0.51067
2.29815e-06
0.51067
2.3821e-06
0.510671
2.41609e-06
0.510671
2.35586e-06
0.510671
2.21849e-06
0.510671
2.07455e-06
0.510672
2.06924e-06
0.510673
2.19453e-06
0.510673
2.21721e-06
0.510673
2.09366e-06
0.510674
2.05053e-06
0.510674
2.15168e-06
0.510674
2.23265e-06
0.510675
2.25517e-06
0.510675
2.28182e-06
0.510675
2.23822e-06
0.510675
2.06766e-06
0.510676
1.91663e-06
0.510677
1.95048e-06
0.510678
2.09914e-06
0.510678
2.16941e-06
0.510679
2.19032e-06
0.510679
2.27277e-06
0.51068
2.29455e-06
0.51068
2.15052e-06
0.51068
1.99446e-06
0.510681
1.99116e-06
0.510681
2.07213e-06
0.510682
2.12226e-06
0.510682
2.18963e-06
0.510682
2.33687e-06
0.510682
2.41591e-06
0.510682
2.25884e-06
0.510682
2.0299e-06
0.510683
2.00619e-06
0.510683
2.16812e-06
0.510684
2.31062e-06
0.510684
2.35158e-06
0.510684
2.35418e-06
0.510684
2.33199e-06
0.510684
2.29186e-06
0.510685
2.31613e-06
0.510685
2.34089e-06
2.30602e-06
0.510623
5.69162e-07
0.510623
1.23329e-06
0.510623
1.39785e-06
0.510623
1.24314e-06
0.510624
1.19157e-06
0.510625
9.08394e-07
0.510626
1.00183e-06
0.510626
1.89707e-06
0.510625
2.39781e-06
0.510625
2.12526e-06
0.510625
1.6477e-06
0.510627
1.21705e-06
0.510627
1.64951e-06
0.510627
2.1675e-06
0.510628
2.06164e-06
0.510628
1.96111e-06
0.510628
2.29909e-06
0.510628
2.48343e-06
0.510628
1.87524e-06
0.510629
1.44416e-06
0.510629
1.77714e-06
0.510628
2.08222e-06
0.510628
2.22971e-06
0.510628
2.30857e-06
0.510628
2.13758e-06
0.510628
2.19937e-06
0.510627
2.47555e-06
0.510627
2.45674e-06
0.510627
2.1752e-06
0.510627
1.84708e-06
0.510628
1.838e-06
0.510628
2.30844e-06
0.510628
2.4334e-06
0.510629
1.88064e-06
0.510631
1.42381e-06
0.510632
1.71828e-06
0.510632
2.32623e-06
0.510632
2.34562e-06
0.510633
2.00149e-06
0.510633
2.0092e-06
0.510633
2.1623e-06
0.510633
2.24034e-06
0.510633
2.14522e-06
0.510633
1.79692e-06
0.510634
1.57829e-06
0.510635
1.48178e-06
0.510636
1.49575e-06
0.510637
1.54141e-06
0.510638
1.29647e-06
0.510639
1.17871e-06
0.51064
1.50346e-06
0.510641
1.94447e-06
0.51064
2.27039e-06
0.51064
2.35445e-06
0.510639
2.40979e-06
0.510638
2.67422e-06
0.510638
2.73524e-06
0.510638
2.30743e-06
0.510638
1.8936e-06
0.510639
1.80324e-06
0.51064
1.89393e-06
0.51064
1.98565e-06
0.51064
2.05888e-06
0.51064
2.13322e-06
0.51064
1.99907e-06
0.510641
1.9196e-06
0.510642
2.06512e-06
0.510642
2.08401e-06
0.510642
2.10563e-06
0.510641
2.309e-06
0.510641
2.4858e-06
0.510641
2.53098e-06
0.510641
2.41813e-06
0.510641
2.13984e-06
0.510641
1.95209e-06
0.510641
2.02621e-06
0.510642
2.02468e-06
0.510642
1.8761e-06
0.510642
1.93356e-06
0.510642
2.13565e-06
0.510642
2.31294e-06
0.510642
2.4873e-06
0.510642
2.51612e-06
0.510642
2.25019e-06
0.510643
1.9039e-06
0.510643
1.72085e-06
0.510643
1.63018e-06
0.510644
1.66141e-06
0.510644
1.89762e-06
0.510645
2.11106e-06
0.510645
2.13293e-06
0.510646
2.02427e-06
0.510646
1.78282e-06
0.510647
1.5242e-06
0.510647
1.47973e-06
0.510648
1.57068e-06
0.510648
1.70122e-06
0.510648
1.87028e-06
0.510648
1.90449e-06
0.510649
1.9028e-06
0.51065
1.98684e-06
0.51065
1.99821e-06
0.510651
1.9946e-06
0.510651
1.89982e-06
0.510651
1.58881e-06
0.510652
1.43914e-06
0.510652
1.6196e-06
0.510651
1.84143e-06
0.510651
1.99643e-06
0.510652
2.1282e-06
0.510652
2.1575e-06
0.510653
2.05105e-06
0.510653
1.93127e-06
0.510654
1.84886e-06
0.510654
1.83343e-06
0.510654
2.01771e-06
0.510654
2.35832e-06
0.510654
2.67654e-06
0.510654
2.81345e-06
0.510654
2.65365e-06
0.510654
2.28949e-06
0.510654
1.93322e-06
0.510654
1.71941e-06
0.510654
1.67095e-06
0.510654
1.78159e-06
0.510654
2.05683e-06
0.510655
2.36425e-06
0.510655
2.53948e-06
0.510655
2.57346e-06
0.510654
2.45856e-06
0.510654
2.2525e-06
0.510654
2.05889e-06
0.510655
1.85053e-06
0.510655
1.7097e-06
0.510656
1.69042e-06
0.510656
1.72255e-06
0.510657
1.89814e-06
0.510658
2.14095e-06
0.510658
2.23972e-06
0.510657
2.20175e-06
0.510657
2.02424e-06
0.510657
1.87476e-06
0.510658
2.02865e-06
0.510658
2.26917e-06
0.510658
2.26316e-06
0.510658
2.06922e-06
0.510659
1.86368e-06
0.510659
1.71908e-06
0.510659
1.64812e-06
0.510659
1.71507e-06
0.510659
1.94618e-06
0.510659
2.19757e-06
0.510658
2.2911e-06
0.510658
2.22547e-06
0.510658
2.15868e-06
0.510658
2.09423e-06
0.510658
1.97527e-06
0.510659
1.95403e-06
0.510659
2.03736e-06
0.510659
2.06552e-06
0.510659
2.04981e-06
0.510659
2.06214e-06
0.510659
2.13265e-06
0.510659
2.21949e-06
0.51066
2.21531e-06
0.51066
2.06184e-06
0.510661
1.88375e-06
0.510661
1.86926e-06
0.510662
1.91285e-06
0.510662
1.86834e-06
0.510662
1.87025e-06
0.510663
1.98249e-06
0.510663
2.10097e-06
0.510663
2.17914e-06
0.510664
2.21827e-06
0.510664
2.2338e-06
0.510664
2.16434e-06
0.510665
1.95086e-06
0.510666
1.82761e-06
0.510666
1.97363e-06
0.510666
2.16537e-06
0.510666
2.1873e-06
0.510666
2.08599e-06
0.510667
1.97666e-06
0.510667
1.91658e-06
0.510668
1.93164e-06
0.510668
2.07586e-06
0.510668
2.27543e-06
0.510668
2.36293e-06
0.510668
2.25799e-06
0.510668
2.01614e-06
0.510669
1.81924e-06
0.510669
1.79535e-06
0.51067
1.91898e-06
0.510671
2.12183e-06
0.510671
2.28146e-06
0.510671
2.30587e-06
0.510671
2.21728e-06
0.510671
2.0549e-06
0.510672
1.88763e-06
0.510672
1.81021e-06
0.510673
1.82623e-06
0.510674
1.86959e-06
0.510674
1.89856e-06
0.510674
1.91127e-06
0.510675
1.92255e-06
0.510675
1.92144e-06
0.510676
1.90361e-06
0.510676
1.90167e-06
0.510676
1.93559e-06
0.510677
1.97611e-06
0.510677
1.95751e-06
0.510677
1.92356e-06
0.510677
1.99018e-06
0.510677
2.073e-06
0.510677
2.01893e-06
0.510677
1.92441e-06
0.510678
1.96613e-06
0.510678
2.07601e-06
0.510678
2.15128e-06
0.510678
2.26132e-06
0.510678
2.40954e-06
0.510677
2.45047e-06
0.510677
2.33255e-06
0.510677
2.17917e-06
0.510677
2.0889e-06
0.510677
1.99082e-06
0.510677
1.86288e-06
0.510678
1.85487e-06
0.510678
2.00259e-06
0.510678
2.11748e-06
0.510678
2.06917e-06
0.510678
1.94168e-06
0.510678
1.8402e-06
0.510679
1.74036e-06
0.510679
1.6298e-06
0.51068
1.62202e-06
0.510681
1.77072e-06
0.510681
1.91373e-06
0.510681
1.90094e-06
0.510681
1.8401e-06
0.510681
1.86615e-06
0.510682
1.94008e-06
0.510682
2.00759e-06
0.510682
2.04868e-06
0.510683
2.06786e-06
0.510683
2.06511e-06
0.510683
2.07074e-06
0.510683
2.10796e-06
2.11566e-06
0.510624
-1.5488e-07
0.510626
-1.3507e-07
0.510626
5.49801e-07
0.510626
1.69882e-06
0.510625
2.03409e-06
0.510624
1.80249e-06
0.510623
2.00512e-06
0.510623
1.6961e-06
0.510625
1.19119e-06
0.510626
1.30177e-06
0.510626
1.58014e-06
0.510625
1.72531e-06
0.510625
1.73364e-06
0.510626
1.24413e-06
0.510627
7.66412e-07
0.510628
7.86534e-07
0.51063
1.04742e-06
0.51063
1.69432e-06
0.51063
2.54716e-06
0.510629
2.4307e-06
0.510629
1.70704e-06
0.510629
1.56406e-06
0.51063
1.76753e-06
0.51063
1.89253e-06
0.51063
2.08486e-06
0.51063
2.26863e-06
0.51063
2.33068e-06
0.510631
2.14635e-06
0.510631
1.88721e-06
0.510631
1.92163e-06
0.510631
1.92644e-06
0.510632
1.59227e-06
0.510633
1.3281e-06
0.510633
1.4713e-06
0.510633
1.69988e-06
0.510633
1.72412e-06
0.510633
1.70073e-06
0.510634
1.6008e-06
0.510635
1.34516e-06
0.510635
1.28998e-06
0.510636
1.37263e-06
0.510637
1.43957e-06
0.510638
1.55224e-06
0.510638
1.50547e-06
0.510638
1.59652e-06
0.510637
1.97882e-06
0.510637
2.00154e-06
0.510637
1.78315e-06
0.510636
1.95692e-06
0.510635
2.31598e-06
0.510634
2.25129e-06
0.510634
1.9353e-06
0.510635
1.73635e-06
0.510635
1.64248e-06
0.510636
1.91014e-06
0.510636
2.36936e-06
0.510637
2.40267e-06
0.510637
1.94043e-06
0.510637
1.37136e-06
0.510638
1.18161e-06
0.510638
1.59252e-06
0.510638
2.09062e-06
0.510638
2.2532e-06
0.510638
2.38363e-06
0.510637
2.34358e-06
0.510637
2.00192e-06
0.510638
1.86768e-06
0.510638
1.93773e-06
0.510638
1.99908e-06
0.510638
2.07862e-06
0.510638
2.07737e-06
0.510639
2.09778e-06
0.510639
2.24453e-06
0.510639
2.17076e-06
0.510639
1.75481e-06
0.51064
1.5256e-06
0.51064
1.58182e-06
0.51064
1.57944e-06
0.510641
1.59345e-06
0.510641
1.73483e-06
0.510642
1.90551e-06
0.510642
2.03735e-06
0.510643
2.00414e-06
0.510643
1.69624e-06
0.510644
1.33089e-06
0.510644
1.32494e-06
0.510644
1.52526e-06
0.510644
1.59393e-06
0.510645
1.68152e-06
0.510645
1.82107e-06
0.510645
1.76803e-06
0.510646
1.59451e-06
0.510646
1.35387e-06
0.510647
9.8725e-07
0.510647
7.82296e-07
0.510648
9.68928e-07
0.510648
1.37118e-06
0.510648
1.82657e-06
0.510648
2.11779e-06
0.510648
2.1503e-06
0.510648
2.06373e-06
0.510648
1.82028e-06
0.510648
1.56211e-06
0.510649
1.53236e-06
0.510649
1.51535e-06
0.510649
1.4517e-06
0.510649
1.57397e-06
0.510649
1.85826e-06
0.510649
2.17633e-06
0.510648
2.42026e-06
0.510648
2.40554e-06
0.510648
2.09837e-06
0.510648
1.69689e-06
0.510649
1.42679e-06
0.510649
1.46973e-06
0.510649
1.78345e-06
0.51065
2.0169e-06
0.51065
2.05393e-06
0.510651
2.02002e-06
0.510652
1.8713e-06
0.510652
1.61644e-06
0.510653
1.44626e-06
0.510653
1.42083e-06
0.510653
1.43034e-06
0.510654
1.47359e-06
0.510654
1.66134e-06
0.510655
1.93987e-06
0.510655
2.11415e-06
0.510656
2.07733e-06
0.510656
1.8984e-06
0.510657
1.797e-06
0.510657
1.89257e-06
0.510657
1.96525e-06
0.510656
1.84941e-06
0.510657
1.64517e-06
0.510657
1.435e-06
0.510657
1.34857e-06
0.510658
1.41479e-06
0.510659
1.50083e-06
0.510659
1.6552e-06
0.51066
1.81569e-06
0.51066
1.80103e-06
0.51066
1.75835e-06
0.51066
1.79785e-06
0.510661
1.75916e-06
0.510661
1.62974e-06
0.510662
1.55674e-06
0.510662
1.54507e-06
0.510662
1.47982e-06
0.510662
1.37823e-06
0.510663
1.42571e-06
0.510663
1.69062e-06
0.510664
1.99717e-06
0.510664
2.15275e-06
0.510664
2.18988e-06
0.510664
2.19242e-06
0.510663
2.12243e-06
0.510663
2.01176e-06
0.510663
1.92982e-06
0.510664
1.82833e-06
0.510664
1.73617e-06
0.510664
1.73802e-06
0.510665
1.81553e-06
0.510665
1.91746e-06
0.510665
2.02133e-06
0.510665
2.05667e-06
0.510665
1.96423e-06
0.510665
1.86442e-06
0.510665
1.8232e-06
0.510665
1.7152e-06
0.510666
1.59671e-06
0.510666
1.6553e-06
0.510666
1.86135e-06
0.510666
2.02337e-06
0.510667
2.00081e-06
0.510667
1.88449e-06
0.510667
1.85198e-06
0.510667
1.85453e-06
0.510667
1.7949e-06
0.510668
1.76242e-06
0.510668
1.78306e-06
0.510668
1.79478e-06
0.510669
1.80901e-06
0.510669
1.84984e-06
0.510669
1.84719e-06
0.510669
1.75052e-06
0.510669
1.65339e-06
0.51067
1.66792e-06
0.510671
1.78223e-06
0.510671
1.92387e-06
0.510671
1.98835e-06
0.510671
1.93569e-06
0.510671
1.8286e-06
0.510671
1.73876e-06
0.510671
1.72279e-06
0.510672
1.77024e-06
0.510672
1.83058e-06
0.510673
1.91344e-06
0.510673
1.98265e-06
0.510673
1.9455e-06
0.510673
1.83667e-06
0.510673
1.76139e-06
0.510673
1.74045e-06
0.510673
1.74339e-06
0.510673
1.74289e-06
0.510673
1.72916e-06
0.510674
1.71163e-06
0.510674
1.70521e-06
0.510674
1.73564e-06
0.510674
1.81514e-06
0.510674
1.89302e-06
0.510674
1.86025e-06
0.510674
1.71607e-06
0.510675
1.65448e-06
0.510675
1.78739e-06
0.510675
1.93394e-06
0.510675
1.92569e-06
0.510675
1.83942e-06
0.510676
1.7694e-06
0.510676
1.69488e-06
0.510677
1.67756e-06
0.510677
1.8092e-06
0.510678
2.00243e-06
0.510678
2.06815e-06
0.510678
1.98945e-06
0.510678
1.91172e-06
0.510678
1.86512e-06
0.510679
1.77277e-06
0.510679
1.68095e-06
0.510679
1.68915e-06
0.510679
1.77192e-06
0.51068
1.83048e-06
0.51068
1.82776e-06
0.51068
1.81224e-06
0.51068
1.80079e-06
0.51068
1.74066e-06
0.51068
1.64928e-06
0.51068
1.66156e-06
0.51068
1.78101e-06
0.51068
1.82582e-06
0.51068
1.76505e-06
0.51068
1.72769e-06
0.51068
1.76031e-06
0.51068
1.79829e-06
0.510681
1.82308e-06
0.510681
1.86421e-06
0.510681
1.85738e-06
0.510681
1.80373e-06
0.510682
1.81027e-06
1.79196e-06
0.510624
2.40285e-07
0.510623
5.45805e-07
0.510623
5.44754e-07
0.510624
5.28193e-07
0.510626
7.76713e-07
0.510626
1.13527e-06
0.510628
9.00476e-07
0.510628
7.94342e-07
0.510628
1.17209e-06
0.510628
1.69076e-06
0.510628
1.59974e-06
0.510629
1.1889e-06
0.510629
1.37347e-06
0.510628
1.96251e-06
0.510627
2.18441e-06
0.510626
1.93272e-06
0.510625
1.73316e-06
0.510625
1.48308e-06
0.510627
8.03899e-07
0.510628
1.15941e-06
0.510628
1.79956e-06
0.510628
1.62388e-06
0.510628
1.30717e-06
0.510629
1.24273e-06
0.51063
1.26059e-06
0.510631
1.32483e-06
0.510632
1.28542e-06
0.510633
1.30437e-06
0.510633
1.7335e-06
0.510633
2.17552e-06
0.510632
2.23964e-06
0.510632
1.99609e-06
0.510632
1.61505e-06
0.510632
1.46441e-06
0.510632
1.6722e-06
0.510632
1.85688e-06
0.510632
1.76415e-06
0.510631
1.69488e-06
0.510631
1.86997e-06
0.51063
2.08991e-06
0.51063
1.86788e-06
0.51063
1.17132e-06
0.51063
9.44599e-07
0.510631
1.3721e-06
0.510631
1.43214e-06
0.510632
1.0116e-06
0.510633
7.20026e-07
0.510634
8.89505e-07
0.510635
1.24832e-06
0.510635
1.50967e-06
0.510636
1.46765e-06
0.510637
1.17816e-06
0.510637
1.31124e-06
0.510637
1.75237e-06
0.510637
1.87738e-06
0.510638
1.85197e-06
0.510638
1.89712e-06
0.510638
1.82538e-06
0.510638
1.63113e-06
0.510638
1.43348e-06
0.510638
1.48469e-06
0.510638
1.95218e-06
0.510638
2.23234e-06
0.510639
1.99558e-06
0.510639
1.63855e-06
0.51064
1.29546e-06
0.510641
1.17348e-06
0.510641
1.36627e-06
0.510642
1.54912e-06
0.510642
1.70907e-06
0.510642
1.79928e-06
0.510643
1.64431e-06
0.510644
1.52099e-06
0.510644
1.61262e-06
0.510644
1.5652e-06
0.510644
1.44718e-06
0.510644
1.6614e-06
0.510644
1.95914e-06
0.510643
2.06651e-06
0.510643
1.9883e-06
0.510643
1.7933e-06
0.510644
1.72414e-06
0.510644
1.84964e-06
0.510644
1.8684e-06
0.510643
1.55467e-06
0.510643
1.22974e-06
0.510644
1.25915e-06
0.510644
1.41203e-06
0.510644
1.53207e-06
0.510644
1.64248e-06
0.510644
1.58691e-06
0.510645
1.41008e-06
0.510645
1.34563e-06
0.510644
1.29021e-06
0.510644
1.11147e-06
0.510644
9.99495e-07
0.510644
1.09988e-06
0.510645
1.3856e-06
0.510645
1.65167e-06
0.510646
1.67301e-06
0.510646
1.5935e-06
0.510646
1.44327e-06
0.510647
1.07196e-06
0.510648
7.33466e-07
0.510649
5.93591e-07
0.510649
6.66852e-07
0.51065
1.07387e-06
0.51065
1.54548e-06
0.510651
1.74098e-06
0.510651
1.75266e-06
0.510652
1.6751e-06
0.510653
1.5048e-06
0.510653
1.38593e-06
0.510653
1.33845e-06
0.510653
1.38289e-06
0.510653
1.72536e-06
0.510653
2.21664e-06
0.510653
2.44782e-06
0.510652
2.31822e-06
0.510652
1.92905e-06
0.510652
1.44074e-06
0.510653
1.10787e-06
0.510653
1.12801e-06
0.510653
1.44329e-06
0.510653
1.76762e-06
0.510653
1.91031e-06
0.510653
1.93293e-06
0.510653
1.96923e-06
0.510653
1.98743e-06
0.510653
1.85796e-06
0.510653
1.58349e-06
0.510654
1.41674e-06
0.510654
1.52798e-06
0.510654
1.7454e-06
0.510654
1.83813e-06
0.510654
1.68916e-06
0.510654
1.42575e-06
0.510654
1.30833e-06
0.510654
1.33663e-06
0.510654
1.46484e-06
0.510654
1.66028e-06
0.510654
1.70587e-06
0.510654
1.58851e-06
0.510655
1.53095e-06
0.510655
1.48637e-06
0.510655
1.28538e-06
0.510656
1.0459e-06
0.510656
9.80139e-07
0.510657
1.07571e-06
0.510657