/*--------------------------------*- C++ -*----------------------------------*\
| =========                 |                                                 |
| \\      /  F ield         | OpenFOAM: The Open Source CFD Toolbox           |
|  \\    /   O peration     | Version:  2406                                  |
|   \\  /    A nd           | Website:  www.openfoam.com                      |
|    \\/     M anipulation  |                                                 |
\*---------------------------------------------------------------------------*/
FoamFile
{
    version     2.0;
    format      ascii;
    arch        "LSB;label=32;scalar=64";
    class       volVectorField;
    location    "1.35";
    object      U;
}
// * * * * * * * * * * * * * * * * * * * * * * * * * * * * * * * * * * * * * //

dimensions      [0 1 -1 0 0 0 0];

internalField   nonuniform List<vector> 
6250
(
(50.5147 0.000121075 0)
(85.3859 0.000530168 0)
(73.2127 0.00079343 0)
(60.5772 0.000778406 0)
(59.8373 0.000721336 0)
(63.2949 0.000726906 0)
(64.8026 0.000766325 0)
(64.3507 0.000805702 0)
(63.7341 0.000822959 0)
(63.6316 0.000826004 0)
(63.7741 0.000809508 0)
(63.8583 0.00078159 0)
(63.8478 0.000764258 0)
(63.8183 0.000808183 0)
(63.8095 0.000869476 0)
(63.8142 0.000909348 0)
(63.8179 0.00092118 0)
(63.8173 0.000921117 0)
(63.8154 0.000910831 0)
(63.8141 0.000861818 0)
(63.8137 0.000775389 0)
(63.8134 0.000727012 0)
(63.8127 0.00078067 0)
(63.8119 0.000871776 0)
(63.8111 0.000935912 0)
(63.8103 0.000966682 0)
(63.8095 0.000969858 0)
(63.8088 0.000960862 0)
(63.8081 0.000943003 0)
(63.8074 0.000926736 0)
(63.8067 0.00090661 0)
(63.8061 0.000884966 0)
(63.8055 0.000907342 0)
(63.8048 0.000951568 0)
(63.804 0.000954448 0)
(63.8034 0.000911124 0)
(63.8027 0.000855461 0)
(63.8021 0.000839437 0)
(63.8015 0.000866091 0)
(63.8007 0.000887235 0)
(63.8001 0.000909343 0)
(63.7994 0.00093901 0)
(63.7987 0.000957765 0)
(63.7981 0.000965457 0)
(63.7974 0.000934331 0)
(63.7968 0.000885206 0)
(63.7963 0.000882331 0)
(63.7956 0.000919197 0)
(63.7949 0.000972522 0)
(63.7942 0.00102332 0)
(63.7934 0.00103107 0)
(63.7927 0.000993141 0)
(63.792 0.000956801 0)
(63.7913 0.00094751 0)
(63.7906 0.000934874 0)
(63.79 0.000886225 0)
(63.7893 0.000823964 0)
(63.7888 0.000786491 0)
(63.7881 0.000784816 0)
(63.7875 0.000838102 0)
(63.7868 0.000943907 0)
(63.7861 0.00104878 0)
(63.7853 0.00109093 0)
(63.7846 0.00105393 0)
(63.7838 0.0009867 0)
(63.7832 0.000928237 0)
(63.7825 0.000887258 0)
(63.7819 0.000873252 0)
(63.7812 0.000879006 0)
(63.7805 0.000898359 0)
(63.7798 0.00092165 0)
(63.779 0.000927169 0)
(63.7783 0.0009148 0)
(63.7776 0.000902226 0)
(63.7769 0.000891215 0)
(63.7762 0.000878482 0)
(63.7756 0.000894463 0)
(63.7749 0.000956775 0)
(63.7742 0.00102344 0)
(63.7734 0.00105493 0)
(63.7727 0.00105253 0)
(63.772 0.00102275 0)
(63.7713 0.000967329 0)
(63.7707 0.000903063 0)
(63.7701 0.000858584 0)
(63.7694 0.000862632 0)
(63.7688 0.000914262 0)
(63.7681 0.000962987 0)
(63.7674 0.000963557 0)
(63.7667 0.000934398 0)
(63.7661 0.000915996 0)
(63.7654 0.000907779 0)
(63.7647 0.00090256 0)
(63.7641 0.000907898 0)
(63.7635 0.000916297 0)
(63.7629 0.000933107 0)
(63.7623 0.000970433 0)
(63.7615 0.0010056 0)
(63.7608 0.00100939 0)
(63.7601 0.000975021 0)
(63.7594 0.00093213 0)
(63.7588 0.000926284 0)
(63.7581 0.000959588 0)
(63.7574 0.00100384 0)
(63.7567 0.00103538 0)
(63.756 0.00102424 0)
(63.7553 0.000960073 0)
(63.7547 0.000880348 0)
(63.7541 0.000837736 0)
(63.7535 0.00085603 0)
(63.7528 0.000920481 0)
(63.7521 0.000990759 0)
(63.7513 0.00102359 0)
(63.7506 0.00101563 0)
(63.75 0.000993564 0)
(63.7493 0.000964671 0)
(63.7487 0.000926866 0)
(63.7481 0.000884667 0)
(63.7474 0.00085347 0)
(63.7467 0.000864178 0)
(63.746 0.000915373 0)
(63.7453 0.000961983 0)
(63.7446 0.000971313 0)
(63.7439 0.000947617 0)
(63.7433 0.000914001 0)
(63.7427 0.000894691 0)
(63.742 0.000906365 0)
(63.7414 0.000945074 0)
(63.7406 0.000982258 0)
(63.7399 0.000994439 0)
(63.7392 0.000983372 0)
(63.7385 0.000967806 0)
(63.7378 0.000964567 0)
(63.7371 0.000964543 0)
(63.7364 0.000951802 0)
(63.7358 0.000936522 0)
(63.7352 0.000932483 0)
(63.7345 0.00093874 0)
(63.7339 0.000944226 0)
(63.7332 0.000936035 0)
(63.7325 0.000918379 0)
(63.7318 0.000898546 0)
(63.7311 0.00087705 0)
(63.7305 0.000869336 0)
(63.7299 0.00088879 0)
(63.7292 0.000924563 0)
(63.7285 0.000954801 0)
(63.7278 0.000961952 0)
(63.7271 0.000938307 0)
(63.7264 0.000886908 0)
(63.7258 0.000834254 0)
(63.7252 0.000819865 0)
(63.7246 0.00085004 0)
(63.7238 0.000890526 0)
(63.7231 0.000907279 0)
(63.7224 0.000904829 0)
(63.7218 0.000909832 0)
(63.7211 0.000928129 0)
(63.7204 0.000946763 0)
(63.7198 0.000951386 0)
(63.7191 0.000935991 0)
(63.7184 0.000914506 0)
(63.7178 0.000907355 0)
(63.7171 0.000922202 0)
(63.7164 0.000952914 0)
(63.7158 0.000988514 0)
(63.7151 0.00101889 0)
(63.7144 0.00103309 0)
(63.7137 0.00102762 0)
(63.713 0.00101174 0)
(63.7124 0.000995804 0)
(63.7117 0.000988693 0)
(63.711 0.000994342 0)
(63.7103 0.00100034 0)
(63.7096 0.000989884 0)
(63.709 0.000966334 0)
(63.7083 0.000957613 0)
(63.7076 0.000985225 0)
(63.7069 0.00102609 0)
(63.7062 0.00103796 0)
(63.7055 0.00101388 0)
(63.7049 0.000980028 0)
(63.7042 0.000962382 0)
(63.7035 0.000966379 0)
(63.7029 0.000980542 0)
(63.7022 0.000992502 0)
(63.7015 0.000996844 0)
(63.7008 0.00100065 0)
(63.7002 0.00101323 0)
(63.6995 0.00102796 0)
(63.6987 0.00102842 0)
(63.698 0.001006 0)
(63.6974 0.000973151 0)
(63.6967 0.000958213 0)
(63.6961 0.000980471 0)
(63.6954 0.00103335 0)
(63.6946 0.0010888 0)
(63.6939 0.00111695 0)
(63.6931 0.00110735 0)
(63.6924 0.00107289 0)
(63.6917 0.00103865 0)
(63.691 0.00102898 0)
(63.6903 0.00105307 0)
(63.6896 0.00109368 0)
(63.6888 0.00111729 0)
(63.6881 0.00110432 0)
(63.6874 0.00106437 0)
(63.6867 0.00102149 0)
(63.6861 0.000995906 0)
(63.6854 0.000991439 0)
(63.6847 0.000994258 0)
(63.684 0.000989278 0)
(63.6834 0.000971797 0)
(63.6827 0.000951416 0)
(63.682 0.000948772 0)
(63.6814 0.000967429 0)
(63.6807 0.000980235 0)
(63.68 0.00096832 0)
(63.6793 0.000952882 0)
(63.6786 0.000963037 0)
(63.6779 0.000995085 0)
(63.6772 0.0010247 0)
(63.6765 0.00103227 0)
(63.6757 0.00100724 0)
(63.675 0.000954775 0)
(63.6743 0.000903467 0)
(63.6737 0.000888151 0)
(63.6731 0.000913028 0)
(63.6724 0.000947936 0)
(63.6718 0.000969372 0)
(63.6711 0.000975741 0)
(63.6705 0.000964208 0)
(63.6698 0.000931927 0)
(63.6692 0.000895778 0)
(63.6686 0.00087979 0)
(63.6679 0.000887493 0)
(63.6673 0.000905095 0)
(63.6667 0.000927142 0)
(63.666 0.000957565 0)
(63.6653 0.00098427 0)
(63.6646 0.000983289 0)
(63.6639 0.000953177 0)
(63.6633 0.000919059 0)
(63.6627 0.000904726 0)
(63.6621 0.000911845 0)
(63.6614 0.000925704 0)
(63.6607 0.000937977 0)
(63.66 0.000933488 0)
(63.6594 0.000955517 0)
(63.6584 0.000944658 0)
(50.5147 9.70553e-05 0)
(85.387 0.000445377 0)
(73.2157 0.000662188 0)
(60.5819 0.000633203 0)
(59.8425 0.000538843 0)
(63.3011 0.000493458 0)
(64.8096 0.000513446 0)
(64.359 0.000542093 0)
(63.7436 0.000556052 0)
(63.6423 0.000583034 0)
(63.7857 0.000588602 0)
(63.8709 0.000556164 0)
(63.8612 0.00049584 0)
(63.8327 0.000484031 0)
(63.8251 0.000516584 0)
(63.8308 0.000508762 0)
(63.8358 0.000465722 0)
(63.8364 0.000414961 0)
(63.8357 0.000393691 0)
(63.8355 0.000445703 0)
(63.836 0.000515423 0)
(63.8363 0.000547361 0)
(63.8366 0.000557381 0)
(63.8371 0.00055289 0)
(63.8375 0.000550744 0)
(63.8381 0.000558813 0)
(63.8385 0.00054776 0)
(63.8388 0.000517863 0)
(63.8392 0.000487698 0)
(63.8396 0.000466129 0)
(63.8399 0.00044274 0)
(63.8402 0.000408251 0)
(63.8405 0.000397486 0)
(63.841 0.000411824 0)
(63.8415 0.000417965 0)
(63.8419 0.000418697 0)
(63.8421 0.000423141 0)
(63.8424 0.0004353 0)
(63.8429 0.000449411 0)
(63.8433 0.000443167 0)
(63.8437 0.000434547 0)
(63.8442 0.00041887 0)
(63.8445 0.000374571 0)
(63.845 0.000366949 0)
(63.8453 0.000390166 0)
(63.8454 0.000378988 0)
(63.8457 0.000362835 0)
(63.846 0.000366124 0)
(63.8464 0.000386943 0)
(63.8469 0.000410168 0)
(63.8473 0.000406027 0)
(63.8477 0.0003821 0)
(63.8481 0.000372993 0)
(63.8485 0.000403667 0)
(63.849 0.000443698 0)
(63.8494 0.000442921 0)
(63.8497 0.000432268 0)
(63.8499 0.000458033 0)
(63.8501 0.000472123 0)
(63.8503 0.000439051 0)
(63.8507 0.000395695 0)
(63.8513 0.000382344 0)
(63.8518 0.000418377 0)
(63.8522 0.000463905 0)
(63.8525 0.000476691 0)
(63.8529 0.000454818 0)
(63.8531 0.000414808 0)
(63.8535 0.000409331 0)
(63.8538 0.000450186 0)
(63.8542 0.000495865 0)
(63.8546 0.000520204 0)
(63.8549 0.000518531 0)
(63.8552 0.000504995 0)
(63.8556 0.000497508 0)
(63.8559 0.0004943 0)
(63.8562 0.000471415 0)
(63.8566 0.000437528 0)
(63.857 0.000429122 0)
(63.8575 0.000427936 0)
(63.8579 0.000402709 0)
(63.8583 0.000374314 0)
(63.8588 0.000367139 0)
(63.8592 0.000379262 0)
(63.8595 0.000404469 0)
(63.8598 0.000420571 0)
(63.8601 0.000407064 0)
(63.8605 0.000392239 0)
(63.861 0.000402655 0)
(63.8614 0.00041361 0)
(63.8617 0.000412278 0)
(63.8621 0.000418445 0)
(63.8624 0.000416694 0)
(63.8627 0.000387513 0)
(63.863 0.000353865 0)
(63.8633 0.000324271 0)
(63.8636 0.000308797 0)
(63.8641 0.000332563 0)
(63.8647 0.000380576 0)
(63.8651 0.000425324 0)
(63.8655 0.000442588 0)
(63.8658 0.000419226 0)
(63.866 0.000389616 0)
(63.8664 0.000373746 0)
(63.8667 0.000361965 0)
(63.8672 0.000365192 0)
(63.8677 0.000376832 0)
(63.8681 0.000378099 0)
(63.8683 0.000382124 0)
(63.8686 0.00040262 0)
(63.8688 0.000427724 0)
(63.8692 0.000442353 0)
(63.8695 0.000443054 0)
(63.87 0.000420062 0)
(63.8703 0.000374912 0)
(63.8707 0.000336416 0)
(63.8711 0.000321743 0)
(63.8715 0.000342176 0)
(63.8718 0.000397284 0)
(63.8721 0.000450645 0)
(63.8724 0.000480872 0)
(63.8728 0.000490517 0)
(63.8732 0.000471643 0)
(63.8736 0.0004299 0)
(63.874 0.000391846 0)
(63.8743 0.000374495 0)
(63.8747 0.000372708 0)
(63.875 0.000380918 0)
(63.8754 0.000403416 0)
(63.8759 0.000431455 0)
(63.8763 0.000451095 0)
(63.8767 0.000455071 0)
(63.877 0.00043952 0)
(63.8774 0.00042271 0)
(63.8779 0.000415341 0)
(63.8782 0.000397141 0)
(63.8784 0.000365276 0)
(63.8787 0.000333201 0)
(63.8791 0.000318794 0)
(63.8795 0.000343888 0)
(63.8799 0.000395155 0)
(63.8803 0.000445488 0)
(63.8807 0.000475552 0)
(63.881 0.000464401 0)
(63.8812 0.000431691 0)
(63.8815 0.000421899 0)
(63.8819 0.000437839 0)
(63.8823 0.000450169 0)
(63.8827 0.000443195 0)
(63.8831 0.000426395 0)
(63.8835 0.000408679 0)
(63.8838 0.000395108 0)
(63.8841 0.000404548 0)
(63.8845 0.000446163 0)
(63.8849 0.000495657 0)
(63.8852 0.000513238 0)
(63.8855 0.000487998 0)
(63.8858 0.000448398 0)
(63.8861 0.000415768 0)
(63.8865 0.000396081 0)
(63.8869 0.000395261 0)
(63.8873 0.000403806 0)
(63.8876 0.000405792 0)
(63.8879 0.000396839 0)
(63.8882 0.000384204 0)
(63.8886 0.00037932 0)
(63.8889 0.000382032 0)
(63.8893 0.000381259 0)
(63.8896 0.000366983 0)
(63.89 0.00034632 0)
(63.8903 0.000339436 0)
(63.8907 0.000344008 0)
(63.8911 0.000345026 0)
(63.8914 0.000346328 0)
(63.8918 0.000354276 0)
(63.8922 0.00036483 0)
(63.8926 0.000370973 0)
(63.8929 0.000372417 0)
(63.8932 0.00037876 0)
(63.8936 0.000382657 0)
(63.894 0.000365652 0)
(63.8943 0.000342134 0)
(63.8947 0.000340537 0)
(63.8951 0.000359869 0)
(63.8955 0.000376117 0)
(63.8959 0.000373191 0)
(63.8962 0.000356444 0)
(63.8966 0.000337143 0)
(63.8969 0.000328071 0)
(63.8974 0.000343524 0)
(63.8978 0.000378388 0)
(63.8983 0.000407965 0)
(63.8986 0.00040892 0)
(63.8989 0.000379616 0)
(63.8992 0.000343952 0)
(63.8995 0.000326809 0)
(63.9 0.000337555 0)
(63.9005 0.000368667 0)
(63.901 0.000398341 0)
(63.9014 0.000408953 0)
(63.9018 0.000398599 0)
(63.9022 0.000374302 0)
(63.9025 0.000347725 0)
(63.9029 0.000332558 0)
(63.9033 0.00033413 0)
(63.9038 0.000342064 0)
(63.9042 0.000343336 0)
(63.9045 0.000338641 0)
(63.9049 0.000335398 0)
(63.9052 0.000337973 0)
(63.9056 0.000347061 0)
(63.906 0.000359503 0)
(63.9064 0.000374624 0)
(63.9067 0.000388294 0)
(63.907 0.000387866 0)
(63.9073 0.000378758 0)
(63.9077 0.000384056 0)
(63.9081 0.000401227 0)
(63.9085 0.000404863 0)
(63.9088 0.000395242 0)
(63.9092 0.000395768 0)
(63.9096 0.00040833 0)
(63.91 0.000419428 0)
(63.9105 0.000431047 0)
(63.9109 0.00044742 0)
(63.9113 0.000454271 0)
(63.9115 0.000437299 0)
(63.9118 0.00040809 0)
(63.9121 0.000385586 0)
(63.9124 0.000364667 0)
(63.9127 0.000340011 0)
(63.9131 0.000331716 0)
(63.9135 0.000350368 0)
(63.9138 0.000373154 0)
(63.9141 0.000377774 0)
(63.9144 0.000369933 0)
(63.9147 0.000364291 0)
(63.915 0.000358524 0)
(63.9154 0.000347021 0)
(63.9158 0.000345211 0)
(63.9162 0.000366203 0)
(63.9166 0.000389299 0)
(63.9169 0.000386807 0)
(63.9172 0.000366169 0)
(63.9175 0.000357175 0)
(63.9178 0.000368697 0)
(63.9182 0.000385802 0)
(63.9185 0.000402406 0)
(63.9189 0.000408077 0)
(63.9191 0.00043252 0)
(63.9197 0.000405583 0)
(50.5147 -1.25947e-05 0)
(85.3869 -1.34765e-05 0)
(73.2146 1.28684e-05 0)
(60.58 6.23974e-05 0)
(59.8408 8.25651e-05 0)
(63.2991 0.000117926 0)
(64.8073 0.000140513 0)
(64.3562 0.000108239 0)
(63.7403 5.58449e-05 0)
(63.6387 5.49719e-05 0)
(63.7821 0.000126377 0)
(63.8669 0.00020957 0)
(63.8571 0.000204743 0)
(63.8282 0.000134085 0)
(63.8201 8.98141e-05 0)
(63.8256 7.88068e-05 0)
(63.8299 6.41238e-05 0)
(63.83 3.48693e-05 0)
(63.8287 6.80243e-05 0)
(63.8279 0.000163062 0)
(63.8284 0.0002281 0)
(63.8289 0.000229184 0)
(63.829 0.000184672 0)
(63.829 0.00014611 0)
(63.8289 0.00013891 0)
(63.829 0.000144903 0)
(63.8292 0.000143309 0)
(63.8293 0.000134197 0)
(63.8294 0.000139051 0)
(63.8294 0.000168592 0)
(63.8294 0.000208453 0)
(63.8294 0.000213474 0)
(63.8294 0.000179546 0)
(63.8294 0.000170204 0)
(63.8292 0.000201996 0)
(63.8291 0.000224061 0)
(63.8291 0.000198902 0)
(63.8292 0.000151285 0)
(63.8292 0.000126987 0)
(63.829 0.000106052 0)
(63.829 8.37866e-05 0)
(63.8291 0.000108534 0)
(63.829 0.000144539 0)
(63.829 0.000182521 0)
(63.8292 0.000255973 0)
(63.8293 0.000308149 0)
(63.8293 0.000316591 0)
(63.8293 0.000310932 0)
(63.8292 0.000308083 0)
(63.8292 0.000301832 0)
(63.8293 0.00027836 0)
(63.8293 0.000234282 0)
(63.8293 0.000158657 0)
(63.8292 9.11211e-05 0)
(63.8293 8.54577e-05 0)
(63.8294 0.000124585 0)
(63.8294 0.000180873 0)
(63.8295 0.0002602 0)
(63.8297 0.00032134 0)
(63.8297 0.000293847 0)
(63.8296 0.000199248 0)
(63.8295 0.000123608 0)
(63.8295 0.000136856 0)
(63.8296 0.000207905 0)
(63.8297 0.000264889 0)
(63.8298 0.000298381 0)
(63.8298 0.000289248 0)
(63.8298 0.000252189 0)
(63.8299 0.000231039 0)
(63.83 0.000215087 0)
(63.8301 0.000201508 0)
(63.8302 0.000203598 0)
(63.8302 0.000215378 0)
(63.8303 0.000225811 0)
(63.8304 0.000235636 0)
(63.8305 0.000225863 0)
(63.8305 0.000175605 0)
(63.8305 0.00013001 0)
(63.8306 0.000127022 0)
(63.8305 0.000144908 0)
(63.8305 0.00016527 0)
(63.8305 0.000182414 0)
(63.8304 0.000188562 0)
(63.8304 0.00019072 0)
(63.8305 0.000194253 0)
(63.8306 0.00017621 0)
(63.8305 0.000142902 0)
(63.8305 0.000145941 0)
(63.8306 0.000190801 0)
(63.8306 0.000234795 0)
(63.8305 0.000266184 0)
(63.8306 0.000284436 0)
(63.8306 0.000268906 0)
(63.8306 0.000227898 0)
(63.8307 0.000179435 0)
(63.8307 0.000127678 0)
(63.8306 9.9881e-05 0)
(63.8306 0.000115113 0)
(63.8306 0.000176727 0)
(63.8307 0.000272595 0)
(63.8307 0.000340191 0)
(63.8307 0.000345378 0)
(63.8308 0.000307136 0)
(63.8307 0.00023738 0)
(63.8307 0.000173844 0)
(63.8309 0.0001576 0)
(63.8309 0.000177986 0)
(63.831 0.000217142 0)
(63.8312 0.000270036 0)
(63.8312 0.000318485 0)
(63.8313 0.000337481 0)
(63.8313 0.000325901 0)
(63.8313 0.000291451 0)
(63.8314 0.000234103 0)
(63.8314 0.000182552 0)
(63.8314 0.000166616 0)
(63.8313 0.000185077 0)
(63.8313 0.000229292 0)
(63.8314 0.000266206 0)
(63.8314 0.000258474 0)
(63.8314 0.000215785 0)
(63.8314 0.00016688 0)
(63.8315 0.00012961 0)
(63.8315 0.000118776 0)
(63.8316 0.000143437 0)
(63.8317 0.000188242 0)
(63.8317 0.000221945 0)
(63.8316 0.000232263 0)
(63.8316 0.000222412 0)
(63.8316 0.000202095 0)
(63.8317 0.000189026 0)
(63.8317 0.000184107 0)
(63.8317 0.00019213 0)
(63.8318 0.00022712 0)
(63.8319 0.000267827 0)
(63.8319 0.000288005 0)
(63.832 0.000274117 0)
(63.8319 0.000220906 0)
(63.8318 0.00016585 0)
(63.8318 0.000144886 0)
(63.8318 0.000161932 0)
(63.8319 0.000216049 0)
(63.8321 0.000269989 0)
(63.8321 0.000274834 0)
(63.8321 0.000240283 0)
(63.8321 0.000202608 0)
(63.8322 0.000176277 0)
(63.8322 0.000160219 0)
(63.8323 0.000157483 0)
(63.8324 0.000171488 0)
(63.8324 0.000183436 0)
(63.8325 0.000176947 0)
(63.8325 0.000170528 0)
(63.8326 0.000191038 0)
(63.8327 0.000232828 0)
(63.8328 0.000262807 0)
(63.8329 0.000270552 0)
(63.833 0.000262933 0)
(63.833 0.000238786 0)
(63.833 0.00021742 0)
(63.8331 0.000222432 0)
(63.8331 0.000247429 0)
(63.8332 0.000270781 0)
(63.8332 0.000277894 0)
(63.8332 0.000273209 0)
(63.8333 0.000269333 0)
(63.8333 0.000276041 0)
(63.8333 0.000288458 0)
(63.8334 0.000291427 0)
(63.8334 0.000289726 0)
(63.8334 0.000289675 0)
(63.8335 0.000280802 0)
(63.8335 0.000265182 0)
(63.8335 0.000258591 0)
(63.8335 0.000270034 0)
(63.8335 0.000290303 0)
(63.8335 0.00029682 0)
(63.8335 0.000288817 0)
(63.8335 0.000283457 0)
(63.8335 0.000272706 0)
(63.8335 0.000246122 0)
(63.8335 0.000222086 0)
(63.8335 0.000219054 0)
(63.8335 0.000234731 0)
(63.8336 0.000254072 0)
(63.8336 0.000264906 0)
(63.8336 0.000258081 0)
(63.8335 0.000226911 0)
(63.8335 0.000188339 0)
(63.8335 0.000172835 0)
(63.8335 0.000196588 0)
(63.8336 0.000249864 0)
(63.8337 0.000300077 0)
(63.8337 0.000318657 0)
(63.8336 0.000298297 0)
(63.8336 0.00025471 0)
(63.8335 0.000219658 0)
(63.8335 0.00021443 0)
(63.8336 0.000237861 0)
(63.8336 0.000275553 0)
(63.8337 0.000306177 0)
(63.8337 0.000311835 0)
(63.8337 0.000293902 0)
(63.8337 0.000273039 0)
(63.8337 0.000266223 0)
(63.8337 0.000270887 0)
(63.8338 0.00027726 0)
(63.8338 0.000280788 0)
(63.8338 0.000279375 0)
(63.8338 0.00027425 0)
(63.8338 0.000268155 0)
(63.8339 0.000265029 0)
(63.834 0.000270229 0)
(63.8341 0.000272123 0)
(63.8341 0.00025334 0)
(63.8341 0.000230236 0)
(63.8342 0.000231924 0)
(63.8342 0.000248612 0)
(63.8343 0.000249272 0)
(63.8343 0.000232634 0)
(63.8343 0.000214861 0)
(63.8343 0.000197996 0)
(63.8343 0.000186986 0)
(63.8344 0.000200103 0)
(63.8345 0.000240555 0)
(63.8347 0.00028071 0)
(63.8348 0.000295366 0)
(63.8348 0.000294357 0)
(63.8349 0.000290524 0)
(63.8349 0.000271363 0)
(63.8349 0.00023638 0)
(63.835 0.000216112 0)
(63.835 0.000228404 0)
(63.8351 0.000254582 0)
(63.8352 0.00027323 0)
(63.8352 0.000285813 0)
(63.8353 0.000293259 0)
(63.8353 0.000277597 0)
(63.8352 0.000237684 0)
(63.8352 0.000212596 0)
(63.8353 0.000229218 0)
(63.8354 0.000262718 0)
(63.8354 0.000280233 0)
(63.8355 0.000280058 0)
(63.8355 0.000274727 0)
(63.8355 0.000270475 0)
(63.8355 0.00027217 0)
(63.8356 0.000283303 0)
(63.8356 0.00027832 0)
(63.8357 0.000264495 0)
(50.5149 2.16857e-05 0)
(85.3866 0.000105296 0)
(73.2144 0.000209036 0)
(60.58 0.000236556 0)
(59.8404 0.000224961 0)
(63.2988 0.000258839 0)
(64.8072 0.000290687 0)
(64.3563 0.000325463 0)
(63.7402 0.000351774 0)
(63.6385 0.000347885 0)
(63.7814 0.000335137 0)
(63.8665 0.000335363 0)
(63.8569 0.000363598 0)
(63.8279 0.000405129 0)
(63.8199 0.000437994 0)
(63.8253 0.000488225 0)
(63.8299 0.00051985 0)
(63.83 0.000481903 0)
(63.8286 0.000395114 0)
(63.8282 0.00029465 0)
(63.8285 0.000244415 0)
(63.8286 0.000270275 0)
(63.8286 0.00032216 0)
(63.8286 0.000346374 0)
(63.8285 0.000331686 0)
(63.8285 0.000314488 0)
(63.8285 0.000327463 0)
(63.8284 0.000359399 0)
(63.8283 0.000385235 0)
(63.8283 0.000394104 0)
(63.8285 0.000406687 0)
(63.8286 0.000435043 0)
(63.8285 0.000456222 0)
(63.8285 0.000456525 0)
(63.8288 0.000444571 0)
(63.829 0.000444779 0)
(63.8291 0.000452831 0)
(63.829 0.000442695 0)
(63.829 0.00043394 0)
(63.8292 0.00042922 0)
(63.8291 0.000412622 0)
(63.8291 0.000420197 0)
(63.8291 0.000417955 0)
(63.8291 0.000367739 0)
(63.8291 0.000328971 0)
(63.8292 0.00031062 0)
(63.8294 0.000299569 0)
(63.8295 0.000287078 0)
(63.8296 0.000256406 0)
(63.8298 0.000238582 0)
(63.83 0.000263843 0)
(63.83 0.000325242 0)
(63.8301 0.000370662 0)
(63.83 0.000370349 0)
(63.8299 0.000364877 0)
(63.8299 0.000376552 0)
(63.8297 0.000368082 0)
(63.8297 0.000338327 0)
(63.8297 0.000333765 0)
(63.8298 0.000352146 0)
(63.83 0.000369245 0)
(63.83 0.000369999 0)
(63.83 0.0003593 0)
(63.83 0.000349777 0)
(63.83 0.000331691 0)
(63.8301 0.000323861 0)
(63.8302 0.000317403 0)
(63.8302 0.000287045 0)
(63.8302 0.000272045 0)
(63.8302 0.000298313 0)
(63.8301 0.000347206 0)
(63.8301 0.000384082 0)
(63.8301 0.000379726 0)
(63.8301 0.000338079 0)
(63.8301 0.000307283 0)
(63.8302 0.000319563 0)
(63.8302 0.000338203 0)
(63.8302 0.000352472 0)
(63.8302 0.000390393 0)
(63.8302 0.000437944 0)
(63.8303 0.000467389 0)
(63.8303 0.000469707 0)
(63.8303 0.00043908 0)
(63.8303 0.000386563 0)
(63.8303 0.000352075 0)
(63.8304 0.000346701 0)
(63.8304 0.000339493 0)
(63.8304 0.000335066 0)
(63.8305 0.000354897 0)
(63.8305 0.000377578 0)
(63.8306 0.000383798 0)
(63.8307 0.000379248 0)
(63.8307 0.000359347 0)
(63.8308 0.000339963 0)
(63.8309 0.000348497 0)
(63.8309 0.000365934 0)
(63.831 0.000369531 0)
(63.831 0.000355513 0)
(63.831 0.000328433 0)
(63.8311 0.000320192 0)
(63.8312 0.000332076 0)
(63.8312 0.00033545 0)
(63.8314 0.000332725 0)
(63.8314 0.000312815 0)
(63.8314 0.00026886 0)
(63.8314 0.000238809 0)
(63.8315 0.000232903 0)
(63.8314 0.000231914 0)
(63.8314 0.000241137 0)
(63.8314 0.000268772 0)
(63.8315 0.000297667 0)
(63.8316 0.000315394 0)
(63.8317 0.000327582 0)
(63.8317 0.00033412 0)
(63.8318 0.000344098 0)
(63.8318 0.000366259 0)
(63.8318 0.000385671 0)
(63.8318 0.000400557 0)
(63.8318 0.000412727 0)
(63.8317 0.000406711 0)
(63.8317 0.000382243 0)
(63.8318 0.00035182 0)
(63.8318 0.000320891 0)
(63.8318 0.000299105 0)
(63.8318 0.000304062 0)
(63.8318 0.000340823 0)
(63.8318 0.000383878 0)
(63.8318 0.000406272 0)
(63.8318 0.00040268 0)
(63.8318 0.000378237 0)
(63.8318 0.000351387 0)
(63.8318 0.000329249 0)
(63.8318 0.000304342 0)
(63.8318 0.000293282 0)
(63.8319 0.000309303 0)
(63.832 0.000346214 0)
(63.8321 0.000390357 0)
(63.8322 0.000406572 0)
(63.8322 0.000383093 0)
(63.8322 0.000345908 0)
(63.8321 0.00031231 0)
(63.8321 0.000307482 0)
(63.8322 0.000342296 0)
(63.8322 0.000372799 0)
(63.8323 0.00036916 0)
(63.8323 0.000349606 0)
(63.8323 0.000330893 0)
(63.8324 0.000309897 0)
(63.8324 0.000286335 0)
(63.8324 0.000278413 0)
(63.8324 0.000291175 0)
(63.8324 0.000302671 0)
(63.8323 0.000299696 0)
(63.8322 0.000292359 0)
(63.8322 0.000296462 0)
(63.8322 0.000305961 0)
(63.8323 0.000311652 0)
(63.8323 0.000318259 0)
(63.8324 0.000314169 0)
(63.8324 0.000294069 0)
(63.8324 0.000278682 0)
(63.8324 0.000282853 0)
(63.8324 0.00030358 0)
(63.8324 0.00032498 0)
(63.8324 0.000331622 0)
(63.8325 0.00032038 0)
(63.8325 0.000307091 0)
(63.8326 0.000304713 0)
(63.8327 0.000297488 0)
(63.8327 0.000282842 0)
(63.8328 0.000286289 0)
(63.8328 0.00031076 0)
(63.8329 0.000333942 0)
(63.8329 0.000342211 0)
(63.8329 0.000339791 0)
(63.833 0.000338377 0)
(63.833 0.000337342 0)
(63.833 0.000333508 0)
(63.8331 0.00034127 0)
(63.8333 0.000358661 0)
(63.8333 0.000359824 0)
(63.8333 0.000342148 0)
(63.8333 0.000324961 0)
(63.8333 0.000320505 0)
(63.8334 0.000326603 0)
(63.8334 0.000341631 0)
(63.8335 0.000367534 0)
(63.8335 0.000389995 0)
(63.8335 0.000390706 0)
(63.8335 0.000366526 0)
(63.8335 0.000330246 0)
(63.8335 0.000306923 0)
(63.8336 0.000308502 0)
(63.8337 0.000328341 0)
(63.8338 0.000354133 0)
(63.8339 0.000369556 0)
(63.8339 0.000365922 0)
(63.8339 0.000346778 0)
(63.8339 0.000319655 0)
(63.8339 0.000296855 0)
(63.834 0.000289766 0)
(63.8341 0.000295818 0)
(63.8342 0.000304288 0)
(63.8342 0.000309583 0)
(63.8343 0.000311777 0)
(63.8343 0.000311931 0)
(63.8344 0.000310649 0)
(63.8344 0.000308644 0)
(63.8345 0.000304913 0)
(63.8345 0.00029821 0)
(63.8346 0.000287057 0)
(63.8346 0.000271415 0)
(63.8346 0.000265718 0)
(63.8346 0.000280424 0)
(63.8347 0.000293512 0)
(63.8347 0.000284459 0)
(63.8347 0.00027196 0)
(63.8347 0.000278765 0)
(63.8347 0.000296324 0)
(63.8347 0.000313907 0)
(63.8347 0.000335684 0)
(63.8347 0.000350094 0)
(63.8347 0.000334553 0)
(63.8346 0.000294277 0)
(63.8346 0.000261845 0)
(63.8346 0.000253259 0)
(63.8346 0.000253731 0)
(63.8346 0.000258124 0)
(63.8347 0.000278929 0)
(63.8347 0.00030645 0)
(63.8348 0.000313258 0)
(63.8347 0.00029643 0)
(63.8347 0.000277674 0)
(63.8348 0.000267749 0)
(63.8348 0.00025979 0)
(63.8349 0.000255292 0)
(63.8349 0.000268524 0)
(63.835 0.000295426 0)
(63.8351 0.000308088 0)
(63.8351 0.000298459 0)
(63.8351 0.000290546 0)
(63.8352 0.000296896 0)
(63.8352 0.000305242 0)
(63.8353 0.000307796 0)
(63.8353 0.000307223 0)
(63.8353 0.000304078 0)
(63.8354 0.000298392 0)
(63.8354 0.000298088 0)
(63.8354 0.000302335 0)
(63.8355 0.000304573 0)
(50.5147 2.28171e-05 0)
(85.3869 6.86481e-05 0)
(73.2149 0.000126929 0)
(60.5804 0.000183389 0)
(59.8406 0.000192984 0)
(63.2989 0.00014406 0)
(64.807 0.000135361 0)
(64.3558 0.000173742 0)
(63.7401 0.000191373 0)
(63.6385 0.000172063 0)
(63.7816 0.000132471 0)
(63.8665 9.961e-05 0)
(63.8565 0.000108394 0)
(63.8277 9.65371e-05 0)
(63.8198 4.15954e-05 0)
(63.8253 1.53591e-05 0)
(63.8299 5.534e-05 0)
(63.8303 0.000138015 0)
(63.829 0.000190984 0)
(63.8282 0.000181594 0)
(63.8284 0.000166465 0)
(63.8287 0.000190169 0)
(63.8287 0.000228961 0)
(63.8288 0.000250872 0)
(63.8288 0.000246316 0)
(63.8288 0.00025459 0)
(63.8288 0.000272531 0)
(63.8288 0.000239964 0)
(63.8288 0.000172182 0)
(63.8289 0.000120377 0)
(63.8288 0.000102858 0)
(63.8288 0.000110747 0)
(63.829 0.000106836 0)
(63.8291 8.11392e-05 0)
(63.8291 5.88395e-05 0)
(63.8291 7.37611e-05 0)
(63.8291 0.000124798 0)
(63.8292 0.000143489 0)
(63.8293 0.000114213 0)
(63.8294 9.90109e-05 0)
(63.8295 0.000101166 0)
(63.8296 0.000109735 0)
(63.8297 0.000113467 0)
(63.8297 8.583e-05 0)
(63.8297 7.33303e-05 0)
(63.8297 9.66129e-05 0)
(63.8296 0.000116864 0)
(63.8296 0.000117368 0)
(63.8296 0.000107672 0)
(63.8294 0.000120094 0)
(63.8293 0.00014868 0)
(63.8292 0.00017542 0)
(63.8293 0.000194166 0)
(63.8294 0.000199651 0)
(63.8294 0.000231236 0)
(63.8295 0.000296849 0)
(63.8295 0.000316089 0)
(63.8296 0.000243748 0)
(63.8296 0.000143146 0)
(63.8297 9.3216e-05 0)
(63.8298 0.000116293 0)
(63.8298 0.000160476 0)
(63.8297 0.00018045 0)
(63.8298 0.000200317 0)
(63.8297 0.000207699 0)
(63.8296 0.000196601 0)
(63.8297 0.000203667 0)
(63.8297 0.000217319 0)
(63.8297 0.000230985 0)
(63.8298 0.000252297 0)
(63.8298 0.000264018 0)
(63.8298 0.000265796 0)
(63.8299 0.0002672 0)
(63.8299 0.000244001 0)
(63.8299 0.000195153 0)
(63.8299 0.000169331 0)
(63.83 0.000156675 0)
(63.83 0.000123794 0)
(63.8301 0.000100604 0)
(63.8301 0.000107939 0)
(63.8302 0.000135385 0)
(63.8302 0.000170094 0)
(63.8303 0.000183733 0)
(63.8304 0.000152245 0)
(63.8304 0.000103508 0)
(63.8305 8.72596e-05 0)
(63.8305 9.86966e-05 0)
(63.8305 0.000114574 0)
(63.8305 0.000140694 0)
(63.8306 0.000159221 0)
(63.8306 0.000146782 0)
(63.8307 0.000117559 0)
(63.8307 7.55276e-05 0)
(63.8308 2.24192e-05 0)
(63.8309 -2.05046e-06 0)
(63.831 2.2651e-05 0)
(63.831 7.89797e-05 0)
(63.8311 0.000140543 0)
(63.831 0.000173673 0)
(63.831 0.000178824 0)
(63.831 0.000177018 0)
(63.8309 0.000161098 0)
(63.831 0.000144275 0)
(63.8311 0.000143433 0)
(63.8311 0.00014023 0)
(63.8311 0.000143957 0)
(63.8311 0.000175237 0)
(63.8311 0.000217244 0)
(63.8311 0.000252579 0)
(63.8311 0.000273617 0)
(63.831 0.00026322 0)
(63.831 0.000218814 0)
(63.831 0.000167272 0)
(63.8311 0.000131958 0)
(63.8311 0.000129789 0)
(63.8312 0.000165669 0)
(63.8312 0.000210162 0)
(63.8312 0.00024072 0)
(63.8313 0.000254167 0)
(63.8314 0.000239535 0)
(63.8315 0.000201044 0)
(63.8316 0.00016372 0)
(63.8316 0.000143528 0)
(63.8317 0.000138008 0)
(63.8317 0.000145059 0)
(63.8317 0.000171731 0)
(63.8318 0.000209475 0)
(63.8319 0.000235508 0)
(63.8319 0.000238564 0)
(63.832 0.000221197 0)
(63.832 0.000203449 0)
(63.8321 0.000198727 0)
(63.8321 0.000185299 0)
(63.8321 0.000153466 0)
(63.8321 0.00011876 0)
(63.8321 9.36274e-05 0)
(63.8321 9.79742e-05 0)
(63.8322 0.000128819 0)
(63.8323 0.00015848 0)
(63.8324 0.00018108 0)
(63.8325 0.000188726 0)
(63.8324 0.000179058 0)
(63.8325 0.000180442 0)
(63.8325 0.000193463 0)
(63.8326 0.000189687 0)
(63.8326 0.000169358 0)
(63.8327 0.000152736 0)
(63.8327 0.000146819 0)
(63.8327 0.000145331 0)
(63.8328 0.000152187 0)
(63.8328 0.000179939 0)
(63.8329 0.000222162 0)
(63.8329 0.000252805 0)
(63.833 0.00025592 0)
(63.833 0.000244583 0)
(63.833 0.000231987 0)
(63.8329 0.000217054 0)
(63.8329 0.000210405 0)
(63.8329 0.00021556 0)
(63.8329 0.000217488 0)
(63.833 0.000213143 0)
(63.833 0.00021145 0)
(63.8331 0.00021581 0)
(63.8331 0.000221907 0)
(63.8331 0.000223571 0)
(63.8332 0.000213687 0)
(63.8331 0.000195504 0)
(63.8331 0.000188287 0)
(63.8332 0.000189955 0)
(63.8331 0.000181376 0)
(63.8332 0.000171658 0)
(63.8332 0.000179666 0)
(63.8333 0.00020134 0)
(63.8333 0.000218467 0)
(63.8333 0.000217014 0)
(63.8333 0.000202251 0)
(63.8334 0.000185656 0)
(63.8334 0.000165612 0)
(63.8334 0.000151781 0)
(63.8334 0.000161232 0)
(63.8335 0.000182586 0)
(63.8335 0.00019347 0)
(63.8336 0.000189557 0)
(63.8336 0.000178054 0)
(63.8336 0.000162798 0)
(63.8336 0.000147918 0)
(63.8336 0.000147372 0)
(63.8337 0.000165215 0)
(63.8338 0.000187955 0)
(63.8339 0.000200356 0)
(63.8339 0.000193789 0)
(63.8339 0.000176693 0)
(63.8338 0.000164237 0)
(63.8338 0.000162498 0)
(63.8339 0.000172479 0)
(63.834 0.000187354 0)
(63.834 0.000198684 0)
(63.8341 0.000206745 0)
(63.8341 0.000208697 0)
(63.8341 0.000198841 0)
(63.8341 0.000183284 0)
(63.8341 0.000171907 0)
(63.8341 0.000166364 0)
(63.8341 0.000164277 0)
(63.8341 0.000164185 0)
(63.8342 0.00016633 0)
(63.8342 0.000170026 0)
(63.8342 0.000174099 0)
(63.8342 0.000181205 0)
(63.8343 0.000195105 0)
(63.8343 0.000210871 0)
(63.8343 0.000214033 0)
(63.8343 0.000204903 0)
(63.8343 0.000206913 0)
(63.8344 0.000225903 0)
(63.8344 0.0002378 0)
(63.8344 0.000233011 0)
(63.8344 0.000227447 0)
(63.8344 0.000225375 0)
(63.8345 0.000220527 0)
(63.8345 0.000225222 0)
(63.8346 0.000251905 0)
(63.8347 0.000283625 0)
(63.8347 0.000294093 0)
(63.8348 0.000281978 0)