/*--------------------------------*- C++ -*----------------------------------*\
| =========                 |                                                 |
| \\      /  F ield         | OpenFOAM: The Open Source CFD Toolbox           |
|  \\    /   O peration     | Version:  2406                                  |
|   \\  /    A nd           | Website:  www.openfoam.com                      |
|    \\/     M anipulation  |                                                 |
\*---------------------------------------------------------------------------*/
FoamFile
{
    version     2.0;
    format      ascii;
    arch        "LSB;label=32;scalar=64";
    class       surfaceScalarField;
    location    "0.3";
    object      phi;
}
// * * * * * * * * * * * * * * * * * * * * * * * * * * * * * * * * * * * * * //

dimensions      [0 3 -1 0 0 0 0];

oriented        oriented;

internalField   nonuniform List<scalar> 
1192
(
5.69718e-06
-2.59343e-12
5.69718e-06
-1.10913e-12
5.69719e-06
1.97481e-12
5.6972e-06
6.17706e-12
5.6972e-06
9.96519e-12
5.6972e-06
1.01083e-11
5.6972e-06
7.20734e-12
5.69719e-06
3.74e-12
5.69719e-06
1.69769e-12
5.69719e-06
1.42907e-12
5.69719e-06
2.11072e-12
5.69719e-06
2.75464e-12
5.69719e-06
2.73575e-12
5.6972e-06
2.00717e-12
5.6972e-06
9.39258e-13
5.6972e-06
-7.5173e-14
5.6972e-06
-9.09266e-13
5.6972e-06
-1.72491e-12
5.69719e-06
-2.6862e-12
5.69719e-06
-3.62246e-12
5.69719e-06
-3.98846e-12
5.69719e-06
-3.36212e-12
5.69719e-06
-2.04882e-12
5.69719e-06
-9.58383e-13
5.69719e-06
-8.30628e-13
5.69719e-06
-1.41537e-12
5.69719e-06
-2.09823e-12
5.69719e-06
-2.03145e-12
5.69719e-06
-1.13044e-12
5.69719e-06
-4.48556e-15
5.69719e-06
8.00272e-13
5.69719e-06
1.14486e-12
5.69719e-06
1.41136e-12
5.69719e-06
1.90741e-12
5.69719e-06
2.4856e-12
5.69719e-06
2.632e-12
5.69719e-06
2.05961e-12
5.69719e-06
1.06938e-12
5.69719e-06
2.94224e-13
5.69719e-06
-2.16445e-14
5.69719e-06
-1.07686e-13
5.69719e-06
-4.38358e-13
5.69719e-06
-1.16113e-12
5.69719e-06
-1.92639e-12
5.69719e-06
-2.19814e-12
5.69719e-06
-1.80927e-12
5.69719e-06
-1.1298e-12
5.69719e-06
-6.6807e-13
5.69719e-06
-5.03188e-13
5.69719e-06
-2.55218e-13
5.69719e-06
3.8415e-13
5.69719e-06
1.15174e-12
5.69719e-06
1.31457e-12
5.69719e-06
4.65153e-13
5.69719e-06
-9.06016e-13
5.69719e-06
-1.80079e-12
5.69719e-06
-1.56258e-12
5.69719e-06
-6.48252e-13
5.69719e-06
-1.59313e-13
5.69719e-06
-7.73892e-13
5.69719e-06
-2.1375e-12
5.69719e-06
-2.962e-12
5.69719e-06
-2.55969e-12
5.69719e-06
-1.35041e-12
5.69719e-06
-4.31175e-13
5.69719e-06
-4.66747e-13
5.69719e-06
-1.13738e-12
5.69719e-06
-1.56025e-12
5.69719e-06
-1.2838e-12
5.69719e-06
-6.24265e-13
5.69719e-06
-2.07089e-13
5.69719e-06
-1.88504e-13
5.69719e-06
-1.94278e-14
5.69719e-06
1.10301e-12
5.69719e-06
3.61022e-12
5.69719e-06
6.93078e-12
5.69719e-06
9.28867e-12
5.69719e-06
8.61058e-12
5.69719e-06
4.52219e-12
1.50358e-12
1.41445e-05
-1.65046e-12
1.41445e-05
-6.23248e-13
1.41445e-05
6.2194e-13
1.41445e-05
2.51738e-12
1.41445e-05
4.79089e-12
1.41445e-05
5.61504e-12
1.41445e-05
4.73061e-12
1.41445e-05
3.01957e-12
1.41445e-05
1.72438e-12
1.41445e-05
1.32177e-12
1.41445e-05
1.60336e-12
1.41445e-05
2.10867e-12
1.41445e-05
2.3816e-12
1.41445e-05
2.13563e-12
1.41445e-05
1.35065e-12
1.41445e-05
2.64494e-13
1.41445e-05
-8.25831e-13
1.41445e-05
-1.68193e-12
1.41445e-05
-2.40179e-12
1.41445e-05
-3.09626e-12
1.41445e-05
-3.76165e-12
1.41445e-05
-4.02756e-12
1.41445e-05
-3.55268e-12
1.41445e-05
-2.37204e-12
1.41445e-05
-1.12327e-12
1.41445e-05
-4.61626e-13
1.41445e-05
-4.08251e-13
1.41445e-05
-4.44956e-13
1.41445e-05
-6.17693e-14
1.41445e-05
8.29443e-13
1.41445e-05
1.79175e-12
1.41445e-05
2.26427e-12
1.41445e-05
2.13761e-12
1.41445e-05
1.88015e-12
1.41445e-05
1.77997e-12
1.41445e-05
1.87428e-12
1.41445e-05
1.79851e-12
1.41445e-05
1.37724e-12
1.41445e-05
7.52867e-13
1.41445e-05
3.12578e-13
1.41445e-05
2.20904e-13
1.41445e-05
2.96099e-13
1.41445e-05
1.25786e-13
1.41445e-05
-4.47857e-13
1.41445e-05
-1.16004e-12
1.41445e-05
-1.53573e-12
1.41445e-05
-1.41677e-12
1.41445e-05
-1.00696e-12
1.41445e-05
-7.94597e-13
1.41445e-05
-8.98387e-13
1.41445e-05
-9.75954e-13
1.41445e-05
-6.50273e-13
1.41445e-05
-7.09646e-15
1.41445e-05
3.90331e-13
1.41445e-05
9.3559e-14
1.41445e-05
-5.9714e-13
1.41445e-05
-9.157e-13
1.41445e-05
-4.19101e-13
1.41445e-05
6.60038e-13
1.41445e-05
1.43456e-12
1.41445e-05
1.17732e-12
1.41445e-05
8.50348e-14
1.41445e-05
-7.85019e-13
1.41445e-05
-8.67865e-13
1.41445e-05
-3.5964e-13
1.41445e-05
9.53547e-14
1.41445e-05
-8.07036e-14
1.41445e-05
-6.22693e-13
1.41445e-05
-9.84566e-13
1.41445e-05
-9.06461e-13
1.41445e-05
-4.69696e-13
1.41445e-05
-2.02536e-13
1.41445e-05
-1.81229e-13
1.41445e-05
-9.52952e-14
1.41445e-05
7.70227e-13
1.41445e-05
2.93801e-12
1.41445e-05
5.66978e-12
1.41445e-05
7.50373e-12
1.41445e-05
5.96999e-12
2.90056e-12
1.97243e-05
-3.67777e-13
1.97243e-05
1.31866e-12
1.97243e-05
3.40229e-12
1.97243e-05
4.6677e-12
1.97243e-05
5.61944e-12
1.97243e-05
5.93538e-12
1.97243e-05
5.30257e-12
1.97243e-05
4.08507e-12
1.97243e-05
3.06974e-12
1.97243e-05
2.4419e-12
1.97243e-05
2.1256e-12
1.97243e-05
1.90555e-12
1.97243e-05
1.62075e-12
1.97243e-05
1.19647e-12
1.97243e-05
5.7768e-13
1.97243e-05
-2.85352e-13
1.97243e-05
-1.31782e-12
1.97243e-05
-2.32081e-12
1.97243e-05
-3.07696e-12
1.97243e-05
-3.58242e-12
1.97243e-05
-3.98159e-12
1.97243e-05
-4.25952e-12
1.97243e-05
-4.15071e-12
1.97243e-05
-3.40034e-12
1.97243e-05
-2.18683e-12
1.97243e-05
-7.91659e-13
1.97243e-05
2.93838e-13
1.97243e-05
9.46277e-13
1.97243e-05
1.36657e-12
1.97243e-05
1.82791e-12
1.97243e-05
2.38668e-12
1.97243e-05
2.83244e-12
1.97243e-05
2.8822e-12
1.97243e-05
2.51092e-12
1.97243e-05
1.99821e-12
1.97243e-05
1.62555e-12
1.97243e-05
1.40894e-12
1.97243e-05
1.15792e-12
1.97243e-05
7.55703e-13
1.97243e-05
2.79237e-13
1.97243e-05
-5.52975e-14
1.97243e-05
-1.35791e-13
1.97243e-05
-1.00988e-13
1.97243e-05
-2.2387e-13
1.97243e-05
-6.45765e-13
1.97243e-05
-1.20367e-12
1.97243e-05
-1.55284e-12
1.97243e-05
-1.53134e-12
1.97243e-05
-1.26767e-12
1.97243e-05
-1.01558e-12
1.97243e-05
-9.87008e-13
1.97243e-05
-9.92863e-13
1.97243e-05
-8.08298e-13
1.97243e-05
-3.69226e-13
1.97243e-05
2.19373e-14
1.97243e-05
2.70914e-14
1.97243e-05
-2.55206e-13
1.97243e-05
-3.90248e-13
1.97243e-05
3.05383e-14
1.97243e-05
7.26017e-13
1.97243e-05
1.32562e-12
1.97243e-05
1.29869e-12
1.97243e-05
6.98292e-13
1.97243e-05
3.75843e-14
1.97243e-05
-2.57934e-13
1.97243e-05
-1.96842e-13
1.97243e-05
-1.68317e-13
1.97243e-05
-3.39028e-13
1.97243e-05
-6.29595e-13
1.97243e-05
-7.21598e-13
1.97243e-05
-3.76179e-13
1.97243e-05
3.29832e-13
1.97243e-05
1.10132e-12
1.97243e-05
1.68421e-12
1.97243e-05
2.14859e-12
1.97243e-05
2.93704e-12
1.97243e-05
4.37486e-12
1.97243e-05
5.61767e-12
1.97243e-05
4.4782e-12
1.86626e-12
2.24978e-05
2.20578e-12
2.24978e-05
4.49038e-12
2.24978e-05
7.15979e-12
2.24978e-05
7.70742e-12
2.24978e-05
7.20337e-12
2.24978e-05
6.57836e-12
2.24978e-05
5.71965e-12
2.24978e-05
4.65719e-12
2.24978e-05
3.7056e-12
2.24978e-05
3.07936e-12
2.24978e-05
2.70458e-12
2.24978e-05
2.25186e-12
2.24978e-05
1.54116e-12
2.24978e-05
6.61941e-13
2.24978e-05
-2.6764e-13
2.24978e-05
-1.18345e-12
2.24978e-05
-2.11354e-12
2.24978e-05
-3.04961e-12
2.24978e-05
-3.80835e-12
2.24978e-05
-4.22057e-12
2.24978e-05
-4.29554e-12
2.24978e-05
-4.1982e-12
2.24978e-05
-3.97045e-12
2.24978e-05
-3.49214e-12
2.24978e-05
-2.60956e-12
2.24978e-05
-1.33713e-12
2.24978e-05
1.08735e-13
2.24978e-05
1.34722e-12
2.24978e-05
2.15425e-12
2.24978e-05
2.58502e-12
2.24978e-05
2.83149e-12
2.24978e-05
2.98396e-12
2.24978e-05
2.97651e-12
2.24978e-05
2.66926e-12
2.24978e-05
2.1964e-12
2.24978e-05
1.66313e-12
2.24978e-05
1.28016e-12
2.24978e-05
1.06553e-12
2.24978e-05
8.6585e-13
2.24978e-05
5.44211e-13
2.24978e-05
1.11083e-13
2.24978e-05
-2.7503e-13
2.24978e-05
-4.65701e-13
2.24978e-05
-5.00617e-13
2.24978e-05
-5.75473e-13
2.24978e-05
-8.3483e-13
2.24978e-05
-1.24215e-12
2.24978e-05
-1.53042e-12
2.24978e-05
-1.54452e-12
2.24978e-05
-1.29693e-12
2.24978e-05
-1.02187e-12
2.24978e-05
-8.77457e-13
2.24978e-05
-8.35485e-13
2.24978e-05
-6.48261e-13
2.24978e-05
-2.01473e-13
2.24978e-05
2.70131e-13
2.24978e-05
5.2882e-13
2.24978e-05
4.57297e-13
2.24978e-05
3.21603e-13
2.24978e-05
4.04153e-13
2.24978e-05
6.9006e-13
2.24978e-05
1.01736e-12
2.24978e-05
1.02211e-12
2.24978e-05
6.75609e-13
2.24978e-05
2.32147e-13
2.24978e-05
-5.36135e-14
2.24978e-05
-1.59111e-13
2.24978e-05
-2.45936e-13
2.24978e-05
-4.37684e-13
2.24978e-05
-6.78544e-13
2.24978e-05
-6.70982e-13
2.24978e-05
-1.78603e-13
2.24978e-05
9.23542e-13
2.24978e-05
2.24239e-12
2.24978e-05
3.17348e-12
2.24978e-05
3.46092e-12
2.24978e-05
3.47983e-12
2.24978e-05
3.4292e-12
2.24978e-05
2.21373e-12
1.28609e-13
2.24978e-05
4.74719e-12
2.24978e-05
7.30115e-12
2.24978e-05
9.86325e-12
2.24978e-05
9.25225e-12
2.24978e-05
7.08989e-12
2.24978e-05
5.37033e-12
2.24978e-05
4.25413e-12
2.24978e-05
3.4111e-12
2.24978e-05
2.82114e-12
2.24978e-05
2.55501e-12
2.24978e-05
2.48507e-12
2.24978e-05
2.27876e-12
2.24978e-05
1.68066e-12
2.24978e-05
7.00017e-13
2.24978e-05
-4.78472e-13
2.24978e-05
-1.54459e-12
2.24978e-05
-2.3708e-12
2.24978e-05
-3.03709e-12
2.24978e-05
-3.62285e-12
2.24978e-05
-4.01048e-12
2.24978e-05
-4.03127e-12
2.24978e-05
-3.6896e-12
2.24978e-05
-3.20442e-12
2.24978e-05
-2.69122e-12
2.24978e-05
-2.10819e-12
2.24978e-05
-1.3272e-12
2.24978e-05
-3.12417e-13
2.24978e-05
8.43365e-13
2.24978e-05
1.85176e-12
2.24978e-05
2.4361e-12
2.24978e-05
2.56617e-12
2.24978e-05
2.43821e-12
2.24978e-05
2.24473e-12
2.24978e-05
2.02061e-12
2.24978e-05
1.74112e-12
2.24978e-05
1.38092e-12
2.24978e-05
1.02537e-12
2.24978e-05
7.92705e-13
2.24978e-05
6.95486e-13
2.24978e-05
6.01566e-13
2.24978e-05
3.72542e-13
2.24978e-05
-6.42439e-14
2.24978e-05
-5.28518e-13
2.24978e-05
-7.81351e-13
2.24978e-05
-7.55501e-13
2.24978e-05
-6.35514e-13
2.24978e-05
-6.85132e-13
2.24978e-05
-9.65232e-13
2.24978e-05
-1.27764e-12
2.24978e-05
-1.32627e-12
2.24978e-05
-1.07626e-12
2.24978e-05
-7.13634e-13
2.24978e-05
-4.84251e-13
2.24978e-05
-4.1462e-13
2.24978e-05
-3.01106e-13
2.24978e-05
1.18024e-13
2.24978e-05
7.34661e-13
2.24978e-05
1.16886e-12
2.24978e-05
1.16291e-12
2.24978e-05
8.18833e-13
2.24978e-05
5.30446e-13
2.24978e-05
4.28144e-13
2.24978e-05
5.64508e-13
2.24978e-05
6.57812e-13
2.24978e-05
5.46171e-13
2.24978e-05
2.94317e-13
2.24978e-05
5.44099e-14
2.24978e-05
-8.46235e-14
2.24978e-05
-1.77256e-13
2.24978e-05
-3.58746e-13
2.24978e-05
-5.76033e-13
2.24978e-05
-4.71904e-13
2.24978e-05
3.32062e-13
2.24978e-05
1.62328e-12
2.24978e-05
2.87067e-12
2.24978e-05
3.0728e-12
2.24978e-05
2.13812e-12
2.24978e-05
8.90076e-13
2.24978e-05
-2.2257e-13
-1.46944e-12
1.97243e-05
5.57532e-12
1.97243e-05
8.16833e-12
1.97243e-05
1.05971e-11
1.97243e-05
9.19622e-12
1.97244e-05
5.67851e-12
1.97243e-05
2.92063e-12
1.97243e-05
1.55594e-12
1.97243e-05
9.55927e-13
1.97243e-05
6.66654e-13
1.97243e-05
6.99463e-13
1.97243e-05
9.51706e-13
1.97243e-05
1.20488e-12
1.97243e-05
1.0288e-12
1.97243e-05
2.69753e-13
1.97243e-05
-9.19183e-13
1.97243e-05
-1.98433e-12
1.97243e-05
-2.61896e-12
1.97243e-05
-2.83083e-12
1.97243e-05
-2.84956e-12
1.97243e-05
-2.89205e-12
1.97243e-05
-2.94366e-12
1.97243e-05
-2.73036e-12
1.97243e-05
-2.20342e-12
1.97243e-05
-1.48748e-12
1.97243e-05
-8.81046e-13
1.97243e-05
-4.20564e-13
1.97243e-05
6.40205e-14
1.97243e-05
7.52546e-13
1.97243e-05
1.59671e-12
1.97243e-05
2.27742e-12
1.97243e-05
2.46097e-12
1.97243e-05
2.14145e-12
1.97243e-05
1.58714e-12
1.97243e-05
1.05656e-12
1.97243e-05
7.65315e-13
1.97243e-05
5.97172e-13
1.97243e-05
3.95031e-13
1.97243e-05
1.79233e-13
1.97243e-05
8.79428e-14
1.97243e-05
1.46622e-13
1.97243e-05
2.55532e-13
1.97243e-05
1.62754e-13
1.97243e-05
-2.17433e-13
1.97243e-05
-6.40849e-13
1.97243e-05
-7.5837e-13
1.97243e-05
-4.65549e-13
1.97243e-05
-1.09808e-13
1.97243e-05
-7.63252e-14
1.97243e-05
-5.09858e-13
1.97243e-05
-1.14603e-12
1.97243e-05
-1.37774e-12
1.97243e-05
-1.04611e-12
1.97243e-05
-5.43439e-13
1.97243e-05
-2.25947e-13
1.97243e-05
-2.02184e-13
1.97243e-05
-2.10788e-13
1.97243e-05
1.56105e-13
1.97243e-05
9.06736e-13
1.97243e-05
1.52386e-12
1.97243e-05
1.54543e-12
1.97243e-05
9.89563e-13
1.97243e-05
4.13754e-13
1.97243e-05
1.1075e-13
1.97243e-05
1.77689e-13
1.97243e-05
4.20555e-13
1.97243e-05
4.7355e-13
1.97243e-05
3.34602e-13
1.97243e-05
1.8662e-13
1.97243e-05
2.02412e-13
1.97243e-05
3.5509e-13
1.97243e-05
4.78499e-13
1.97243e-05
5.55815e-13
1.97243e-05
8.71104e-13
1.97243e-05
1.62086e-12
1.97243e-05
2.28676e-12
1.97243e-05
1.83311e-12
1.97243e-05
6.71856e-14
1.97243e-05
-1.91249e-12
1.97243e-05
-2.61059e-12
-2.53263e-12
1.41445e-05
3.22227e-12
1.41445e-05
5.28914e-12
1.41445e-05
8.55297e-12
1.41445e-05
8.1805e-12
1.41445e-05
4.53326e-12
1.41445e-05
8.61904e-13
1.41445e-05
-1.09135e-12
1.41445e-05
-1.74346e-12
1.41445e-05
-1.83286e-12
1.41445e-05
-1.83632e-12
1.41445e-05
-1.73098e-12
1.41445e-05
-1.47218e-12
1.41445e-05
-1.28265e-12
1.41445e-05
-1.51989e-12
1.41445e-05
-2.2812e-12
1.41445e-05
-3.24062e-12
1.41445e-05
-3.8054e-12
1.41445e-05
-3.6074e-12
1.41445e-05
-2.85858e-12
1.41445e-05
-2.13471e-12
1.41445e-05
-1.82488e-12
1.41445e-05
-1.84198e-12
1.41445e-05
-1.79815e-12
1.41445e-05
-1.43321e-12
1.41445e-05
-8.37882e-13
1.41445e-05
-3.04235e-13
1.41445e-05
8.11987e-14
1.41445e-05
4.53269e-13
1.41445e-05
1.00588e-12
1.41445e-05
1.70861e-12
1.41445e-05
2.20982e-12
1.41445e-05
2.14769e-12
1.41445e-05
1.49064e-12
1.41445e-05
6.0629e-13
1.41445e-05
-6.824e-14
1.41445e-05
-3.89016e-13
1.41445e-05
-4.95023e-13
1.41445e-05
-6.0438e-13
1.41445e-05
-7.44178e-13
1.41445e-05
-7.32269e-13
1.41445e-05
-4.48226e-13
1.41445e-05
-3.61005e-14
1.41445e-05
1.96991e-13
1.41445e-05
1.31566e-13
1.41445e-05
3.98897e-14
1.41445e-05
2.67393e-13
1.41445e-05
8.29349e-13
1.41445e-05
1.29167e-12
1.41445e-05
1.08133e-12
1.41445e-05
8.62988e-14
1.41445e-05
-1.08998e-12
1.41445e-05
-1.75084e-12
1.41445e-05
-1.55007e-12
1.41445e-05
-9.18267e-13
1.41445e-05
-5.28452e-13
1.41445e-05
-5.8355e-13
1.41445e-05
-6.85168e-13
1.41445e-05
-3.11841e-13
1.41445e-05
5.03452e-13
1.41445e-05
1.34486e-12
1.41445e-05
1.59755e-12
1.41445e-05
1.14229e-12
1.41445e-05
4.52275e-13
1.41445e-05
9.56978e-14
1.41445e-05
2.66763e-13
1.41445e-05
6.921e-13
1.41445e-05
9.78329e-13
1.41445e-05
1.03777e-12
1.41445e-05
1.14501e-12
1.41445e-05
1.58312e-12
1.41445e-05
2.30192e-12
1.41445e-05
3.01415e-12
1.41445e-05
3.53588e-12
1.41445e-05
3.86022e-12
1.41445e-05
3.71446e-12
1.41445e-05
2.25813e-12
1.41445e-05
-9.31485e-13
1.41445e-05
-4.44603e-12
1.41445e-05
-5.53188e-12
-4.34946e-12
5.69718e-06
5.69718e-06
5.69719e-06
5.69719e-06
5.6972e-06
5.69719e-06
5.69719e-06
5.69719e-06
5.69719e-06
5.69719e-06
5.69719e-06
5.69719e-06
5.69719e-06
5.69719e-06
5.69719e-06
5.69719e-06
5.69719e-06
5.69719e-06
5.69719e-06
5.69719e-06
5.69719e-06
5.69719e-06
5.69719e-06
5.69719e-06
5.69719e-06
5.69719e-06
5.69719e-06
5.69719e-06
5.69719e-06
5.69719e-06
5.69719e-06
5.69719e-06
5.69719e-06
5.69719e-06
5.69719e-06
5.69719e-06
5.69719e-06
5.69719e-06
5.69719e-06
5.69719e-06
5.69719e-06
5.69719e-06
5.69719e-06
5.69719e-06
5.69719e-06
5.69719e-06
5.69719e-06
5.69719e-06
5.69719e-06
5.69719e-06
5.69719e-06
5.69719e-06
5.69719e-06
5.69719e-06
5.69719e-06
5.69719e-06
5.69719e-06
5.69719e-06
5.69719e-06
5.69719e-06
5.69719e-06
5.69719e-06
5.69719e-06
5.69719e-06
5.69719e-06
5.69719e-06
5.69719e-06
5.69719e-06
5.69719e-06
5.69719e-06
5.69719e-06
5.69719e-06
5.6972e-06
5.6972e-06
5.6972e-06
5.6972e-06
5.69719e-06
5.69719e-06
5.69719e-06
)
;

boundaryField
{
    inlet
    {
        type            calculated;
        value           nonuniform List<scalar> 8(-5.69718e-06 -1.41445e-05 -1.97243e-05 -2.24978e-05 -2.24978e-05 -1.97243e-05 -1.41445e-05 -5.69717e-06);
    }
    outlet
    {
        type            calculated;
        value           nonuniform List<scalar> 8(5.69718e-06 1.41445e-05 1.97243e-05 2.24978e-05 2.24978e-05 1.97243e-05 1.41445e-05 5.69718e-06);
    }
    walls
    {
        type            calculated;
        value           uniform 0;
    }
    frontAndBack
    {
        type            empty;
    }
}


// ************************************************************************* //
