/*--------------------------------*- C++ -*----------------------------------*\
| =========                 |                                                 |
| \\      /  F ield         | OpenFOAM: The Open Source CFD Toolbox           |
|  \\    /   O peration     | Version:  2406                                  |
|   \\  /    A nd           | Website:  www.openfoam.com                      |
|    \\/     M anipulation  |                                                 |
\*---------------------------------------------------------------------------*/
FoamFile
{
    version     2.0;
    format      ascii;
    arch        "LSB;label=32;scalar=64";
    class       volVectorField;
    location    "0.3";
    object      U;
}
// * * * * * * * * * * * * * * * * * * * * * * * * * * * * * * * * * * * * * //

dimensions      [0 1 -1 0 0 0 0];

internalField   nonuniform List<vector> 
640
(
(0.0455774 -1.21761e-08 0)
(0.0455774 -6.00134e-09 0)
(0.0455775 9.06373e-09 0)
(0.0455775 2.90666e-08 0)
(0.0455776 4.50124e-08 0)
(0.0455776 4.54209e-08 0)
(0.0455776 3.25501e-08 0)
(0.0455776 1.7244e-08 0)
(0.0455775 8.17647e-09 0)
(0.0455775 6.9277e-09 0)
(0.0455775 9.86672e-09 0)
(0.0455775 1.25971e-08 0)
(0.0455775 1.23639e-08 0)
(0.0455776 8.9989e-09 0)
(0.0455776 4.218e-09 0)
(0.0455776 -1.90398e-10 0)
(0.0455776 -3.7955e-09 0)
(0.0455776 -7.39221e-09 0)
(0.0455776 -1.17088e-08 0)
(0.0455776 -1.58442e-08 0)
(0.0455775 -1.73093e-08 0)
(0.0455775 -1.4375e-08 0)
(0.0455775 -8.58237e-09 0)
(0.0455775 -3.99748e-09 0)
(0.0455775 -3.6717e-09 0)
(0.0455775 -6.92468e-09 0)
(0.0455775 -9.98382e-09 0)
(0.0455775 -9.60883e-09 0)
(0.0455775 -5.59635e-09 0)
(0.0455775 -4.71179e-10 0)
(0.0455775 3.08741e-09 0)
(0.0455775 4.62624e-09 0)
(0.0455775 5.94751e-09 0)
(0.0455775 8.43822e-09 0)
(0.0455775 1.11702e-08 0)
(0.0455775 1.18058e-08 0)
(0.0455775 9.18872e-09 0)
(0.0455775 4.79831e-09 0)
(0.0455775 1.27602e-09 0)
(0.0455775 -1.64455e-10 0)
(0.0455775 -6.30874e-10 0)
(0.0455775 -2.2729e-09 0)
(0.0455775 -5.6022e-09 0)
(0.0455775 -8.94379e-09 0)
(0.0455775 -9.96036e-09 0)
(0.0455775 -8.07067e-09 0)
(0.0455775 -4.99697e-09 0)
(0.0455775 -2.9161e-09 0)
(0.0455775 -2.13118e-09 0)
(0.0455775 -8.46662e-10 0)
(0.0455775 2.22993e-09 0)
(0.0455775 5.64468e-09 0)
(0.0455775 6.14394e-09 0)
(0.0455775 2.14294e-09 0)
(0.0455775 -4.12914e-09 0)
(0.0455775 -8.00975e-09 0)
(0.0455775 -6.90291e-09 0)
(0.0455775 -3.02841e-09 0)
(0.0455775 -1.30681e-09 0)
(0.0455775 -4.69248e-09 0)
(0.0455775 -1.07666e-08 0)
(0.0455775 -1.41595e-08 0)
(0.0455775 -1.20073e-08 0)
(0.0455775 -6.45812e-09 0)
(0.0455775 -2.34104e-09 0)
(0.0455776 -2.57921e-09 0)
(0.0455776 -5.49811e-09 0)
(0.0455775 -7.17717e-09 0)
(0.0455775 -5.77265e-09 0)
(0.0455775 -2.79364e-09 0)
(0.0455775 -9.5589e-10 0)
(0.0455775 -8.45853e-10 0)
(0.0455775 2.4527e-11 0)
(0.0455775 5.32386e-09 0)
(0.0455775 1.66808e-08 0)
(0.0455775 3.11576e-08 0)
(0.0455775 4.08937e-08 0)
(0.0455775 3.74725e-08 0)
(0.0455775 2.0437e-08 0)
(0.0455775 7.84539e-09 0)
(0.113156 -2.14632e-08 0)
(0.113156 -1.07368e-08 0)
(0.113156 9.65909e-09 0)
(0.113156 3.77177e-08 0)
(0.113156 6.34064e-08 0)
(0.113156 6.81193e-08 0)
(0.113156 5.18327e-08 0)
(0.113156 2.94782e-08 0)
(0.113156 1.50689e-08 0)
(0.113156 1.2194e-08 0)
(0.113156 1.64909e-08 0)
(0.113156 2.15706e-08 0)
(0.113156 2.26978e-08 0)
(0.113156 1.84269e-08 0)
(0.113156 1.0282e-08 0)
(0.113156 1.02329e-09 0)
(0.113156 -7.27215e-09 0)
(0.113156 -1.4455e-08 0)
(0.113156 -2.16143e-08 0)
(0.113156 -2.87777e-08 0)
(0.113156 -3.33119e-08 0)
(0.113156 -3.16367e-08 0)
(0.113156 -2.34751e-08 0)
(0.113156 -1.35885e-08 0)
(0.113156 -8.09417e-09 0)
(0.113156 -8.88191e-09 0)
(0.113156 -1.21111e-08 0)
(0.113156 -1.21165e-08 0)
(0.113156 -6.33396e-09 0)
(0.113156 2.80726e-09 0)
(0.113156 1.05432e-08 0)
(0.113156 1.40436e-08 0)
(0.113156 1.48606e-08 0)
(0.113156 1.61556e-08 0)
(0.113156 1.87061e-08 0)
(0.113156 1.99417e-08 0)
(0.113156 1.7111e-08 0)
(0.113156 1.07741e-08 0)
(0.113156 4.43026e-09 0)
(0.113156 1.12019e-09 0)
(0.113156 5.14686e-10 0)
(0.113156 -6.22069e-10 0)
(0.113156 -4.7013e-09 0)
(0.113156 -1.07111e-08 0)
(0.113156 -1.50096e-08 0)
(0.113156 -1.48019e-08 0)
(0.113156 -1.09595e-08 0)
(0.113156 -7.06745e-09 0)
(0.113156 -5.4333e-09 0)
(0.113156 -4.71153e-09 0)
(0.113156 -2.01843e-09 0)
(0.113156 2.92556e-09 0)
(0.113156 6.38239e-09 0)
(0.113156 4.12248e-09 0)
(0.113156 -3.55165e-09 0)
(0.113156 -1.07794e-08 0)
(0.113156 -1.1271e-08 0)
(0.113156 -4.86591e-09 0)
(0.113156 1.83119e-09 0)
(0.113156 1.69e-09 0)
(0.113156 -5.73599e-09 0)
(0.113156 -1.39147e-08 0)
(0.113156 -1.58094e-08 0)
(0.113156 -1.05257e-08 0)
(0.113156 -3.8185e-09 0)
(0.113156 -2.00837e-09 0)
(0.113156 -5.60942e-09 0)
(0.113156 -9.82474e-09 0)
(0.113156 -1.01967e-08 0)
(0.113156 -6.69058e-09 0)
(0.113156 -2.94957e-09 0)
(0.113156 -1.81788e-09 0)
(0.113156 -1.49799e-09 0)
(0.113156 3.68166e-09 0)
(0.113156 1.86854e-08 0)
(0.113156 4.3065e-08 0)
(0.113156 6.66676e-08 0)
(0.113156 7.14764e-08 0)
(0.113156 4.66586e-08 0)
(0.113156 2.06193e-08 0)
(0.157795 -1.23652e-08 0)
(0.157795 -2.03894e-09 0)
(0.157795 1.14445e-08 0)
(0.157795 2.41452e-08 0)
(0.157795 3.68233e-08 0)
(0.157795 4.2361e-08 0)
(0.157795 3.74098e-08 0)
(0.157795 2.69483e-08 0)
(0.157795 1.8288e-08 0)
(0.157795 1.4358e-08 0)
(0.157795 1.42497e-08 0)
(0.157795 1.54914e-08 0)
(0.157795 1.57846e-08 0)
(0.157795 1.36154e-08 0)
(0.157795 8.32456e-09 0)
(0.157795 4.91322e-10 0)
(0.157795 -8.17048e-09 0)
(0.157795 -1.56083e-08 0)
(0.157795 -2.12292e-08 0)
(0.157795 -2.59376e-08 0)
(0.157795 -3.04701e-08 0)
(0.157795 -3.32356e-08 0)
(0.157795 -3.11986e-08 0)
(0.157795 -2.35038e-08 0)
(0.157795 -1.31612e-08 0)
(0.157795 -4.52312e-09 0)
(0.157795 1.80505e-10 0)
(0.157795 2.40637e-09 0)
(0.157795 5.39321e-09 0)
(0.157795 1.07349e-08 0)
(0.157795 1.68905e-08 0)
(0.157795 2.06619e-08 0)
(0.157795 2.0371e-08 0)
(0.157795 1.74182e-08 0)
(0.157795 1.47217e-08 0)
(0.157795 1.35773e-08 0)
(0.157795 1.26711e-08 0)
(0.157795 1.01318e-08 0)
(0.157795 6.04119e-09 0)
(0.157795 2.3643e-09 0)
(0.157795 8.74308e-10 0)
(0.157795 1.25264e-09 0)
(0.157795 1.08735e-09 0)
(0.157795 -1.65181e-09 0)
(0.157795 -6.57582e-09 0)
(0.157795 -1.08898e-08 0)
(0.157795 -1.20753e-08 0)
(0.157795 -1.03751e-08 0)
(0.157795 -8.26452e-09 0)
(0.157795 -7.79495e-09 0)
(0.157795 -8.33339e-09 0)
(0.157795 -7.44892e-09 0)
(0.157795 -3.93518e-09 0)
(0.157795 5.44837e-11 0)
(0.157795 1.03819e-09 0)
(0.157795 -1.77979e-09 0)
(0.157795 -4.81451e-09 0)
(0.157795 -3.46466e-09 0)
(0.157795 2.81029e-09 0)
(0.157795 9.71937e-09 0)
(0.157795 1.17604e-08 0)
(0.157795 7.36999e-09 0)
(0.157795 5.25001e-10 0)
(0.157795 -3.30724e-09 0)
(0.157795 -2.58021e-09 0)
(0.157795 -3.04334e-10 0)
(0.157795 -2.90882e-10 0)
(0.157795 -3.21173e-09 0)
(0.157795 -6.3136e-09 0)
(0.157795 -6.5197e-09 0)
(0.157795 -3.42119e-09 0)
(0.157795 5.83677e-10 0)
(0.157795 3.22764e-09 0)
(0.157795 5.00806e-09 0)
(0.157795 9.51679e-09 0)
(0.157795 2.1627e-08 0)
(0.157795 4.10242e-08 0)
(0.157795 5.5149e-08 0)
(0.157795 4.48867e-08 0)
(0.157795 2.18339e-08 0)
(0.179982 6.55783e-09 0)
(0.179982 2.24335e-08 0)
(0.179982 4.14984e-08 0)
(0.179982 4.89191e-08 0)
(0.179982 5.11451e-08 0)
(0.179982 5.03409e-08 0)
(0.179982 4.47407e-08 0)
(0.179982 3.59771e-08 0)
(0.179982 2.80208e-08 0)
(0.179982 2.28404e-08 0)
(0.179982 1.95878e-08 0)
(0.179982 1.64332e-08 0)
(0.179982 1.22418e-08 0)
(0.179982 6.99112e-09 0)
(0.179982 8.7625e-10 0)
(0.179982 -6.10133e-09 0)
(0.179982 -1.3949e-08 0)
(0.179982 -2.16814e-08 0)
(0.179982 -2.77677e-08 0)
(0.179982 -3.13863e-08 0)
(0.179982 -3.32736e-08 0)
(0.179982 -3.41479e-08 0)
(0.179982 -3.31711e-08 0)
(0.179982 -2.85447e-08 0)
(0.179982 -1.97115e-08 0)
(0.179982 -8.48619e-09 0)
(0.179982 2.09189e-09 0)
(0.179982 9.88309e-09 0)
(0.179982 1.48044e-08 0)
(0.179982 1.82395e-08 0)
(0.179982 2.13067e-08 0)
(0.179982 2.3669e-08 0)
(0.179982 2.38665e-08 0)
(0.179982 2.12182e-08 0)
(0.179982 1.69337e-08 0)
(0.179982 1.30886e-08 0)
(0.179982 1.06091e-08 0)
(0.179982 8.77679e-09 0)
(0.179982 6.41103e-09 0)
(0.179982 3.19621e-09 0)
(0.179982 4.93228e-11 0)
(0.179982 -1.78218e-09 0)
(0.179982 -2.24796e-09 0)
(0.179982 -2.69479e-09 0)
(0.179982 -4.6075e-09 0)
(0.179982 -8.06088e-09 0)
(0.179982 -1.14165e-08 0)
(0.179982 -1.27417e-08 0)
(0.179982 -1.16059e-08 0)
(0.179982 -9.44312e-09 0)
(0.179982 -8.10636e-09 0)
(0.179982 -7.8254e-09 0)
(0.179982 -7.02689e-09 0)
(0.179982 -4.4099e-09 0)
(0.179982 -7.94977e-10 0)
(0.179982 1.499e-09 0)
(0.179982 1.22698e-09 0)
(0.179982 1.26602e-11 0)
(0.179982 6.67565e-10 0)
(0.179982 4.18478e-09 0)
(0.179982 8.42622e-09 0)
(0.179982 1.00104e-08 0)
(0.179982 7.65503e-09 0)
(0.179982 3.31732e-09 0)
(0.179982 -1.84946e-11 0)
(0.179982 -1.14208e-09 0)
(0.179982 -1.28898e-09 0)
(0.179982 -2.2213e-09 0)
(0.179982 -4.1673e-09 0)
(0.179982 -5.53194e-09 0)
(0.179982 -4.09244e-09 0)
(0.179982 1.16497e-09 0)
(0.179982 8.99559e-09 0)
(0.179982 1.66655e-08 0)
(0.179982 2.20661e-08 0)
(0.179982 2.62574e-08 0)
(0.179982 3.22765e-08 0)
(0.179982 3.74282e-08 0)
(0.179982 2.80863e-08 0)
(0.179982 8.87111e-09 0)
(0.179982 3.07684e-08 0)
(0.179982 5.08115e-08 0)
(0.179982 7.21066e-08 0)
(0.179982 7.14608e-08 0)
(0.179982 6.01416e-08 0)
(0.179982 5.01985e-08 0)
(0.179982 4.19411e-08 0)
(0.179982 3.40379e-08 0)
(0.179982 2.76559e-08 0)
(0.179982 2.39228e-08 0)
(0.179982 2.17175e-08 0)
(0.179982 1.86292e-08 0)
(0.179982 1.3105e-08 0)
(0.179982 5.24908e-09 0)
(0.179982 -3.35257e-09 0)
(0.179982 -1.13383e-08 0)
(0.179982 -1.84089e-08 0)
(0.179982 -2.49249e-08 0)
(0.179982 -3.04279e-08 0)
(0.179982 -3.36189e-08 0)
(0.179982 -3.38721e-08 0)
(0.179982 -3.20015e-08 0)
(0.179982 -2.9164e-08 0)
(0.179982 -2.53467e-08 0)
(0.179982 -1.95035e-08 0)
(0.179982 -1.10532e-08 0)
(0.179982 -7.94436e-10 0)
(0.179982 9.21306e-09 0)
(0.179982 1.66916e-08 0)
(0.179982 2.06988e-08 0)
(0.179982 2.20004e-08 0)
(0.179982 2.19968e-08 0)
(0.179982 2.12322e-08 0)
(0.179982 1.93507e-08 0)
(0.179982 1.61529e-08 0)
(0.179982 1.23924e-08 0)
(0.179982 9.3255e-09 0)
(0.179982 7.54331e-09 0)
(0.179982 6.41146e-09 0)
(0.179982 4.77546e-09 0)
(0.179982 1.94096e-09 0)
(0.179982 -1.53899e-09 0)
(0.179982 -4.24365e-09 0)
(0.179982 -5.32238e-09 0)
(0.179982 -5.36412e-09 0)
(0.179982 -5.89988e-09 0)
(0.179982 -7.87187e-09 0)
(0.179982 -1.04319e-08 0)
(0.179982 -1.1805e-08 0)
(0.179982 -1.08101e-08 0)
(0.179982 -8.33254e-09 0)
(0.179982 -6.21627e-09 0)
(0.179982 -5.30093e-09 0)
(0.179982 -4.51921e-09 0)
(0.179982 -2.16432e-09 0)
(0.179982 1.88361e-09 0)
(0.179982 5.58145e-09 0)
(0.179982 6.90281e-09 0)
(0.179982 5.90299e-09 0)
(0.179982 4.52511e-09 0)
(0.179982 4.55903e-09 0)
(0.179982 5.878e-09 0)
(0.179982 6.74223e-09 0)
(0.179982 5.7837e-09 0)
(0.179982 3.39264e-09 0)
(0.179982 1.03351e-09 0)
(0.179982 -4.41825e-10 0)
(0.179982 -1.33546e-09 0)
(0.179982 -2.53536e-09 0)
(0.179982 -4.41743e-09 0)
(0.179982 -5.53631e-09 0)
(0.179982 -3.0495e-09 0)
(0.179982 4.77552e-09 0)
(0.179982 1.59151e-08 0)
(0.179982 2.48374e-08 0)
(0.179982 2.674e-08 0)
(0.179982 2.28e-08 0)
(0.179982 1.74394e-08 0)
(0.179982 7.49207e-09 0)
(0.179982 -6.22355e-09 0)
(0.157795 4.64643e-08 0)
(0.157795 6.77956e-08 0)
(0.157795 8.78976e-08 0)
(0.157795 7.87027e-08 0)
(0.157795 5.42074e-08 0)
(0.157795 3.48862e-08 0)
(0.157795 2.41836e-08 0)
(0.157795 1.8251e-08 0)
(0.157795 1.49384e-08 0)
(0.157795 1.42511e-08 0)
(0.157795 1.52624e-08 0)
(0.157795 1.54943e-08 0)
(0.157795 1.23804e-08 0)
(0.157795 4.97487e-09 0)
(0.157795 -4.8522e-09 0)
(0.157795 -1.37626e-08 0)
(0.157795 -1.96561e-08 0)
(0.157795 -2.30939e-08 0)
(0.157795 -2.56892e-08 0)
(0.157795 -2.77636e-08 0)
(0.157795 -2.80395e-08 0)
(0.157795 -2.55866e-08 0)
(0.157795 -2.11117e-08 0)
(0.157795 -1.61983e-08 0)
(0.157795 -1.16907e-08 0)
(0.157795 -7.00833e-09 0)
(0.157795 -9.84192e-10 0)
(0.157795 6.56157e-09 0)
(0.157795 1.41193e-08 0)
(0.157795 1.92017e-08 0)
(0.157795 2.03122e-08 0)
(0.157795 1.81999e-08 0)
(0.157795 1.50023e-08 0)
(0.157795 1.228e-08 0)
(0.157795 1.01492e-08 0)
(0.157795 8.02787e-09 0)
(0.157795 5.77576e-09 0)
(0.157795 3.98926e-09 0)
(0.157795 3.35111e-09 0)
(0.157795 3.48021e-09 0)
(0.157795 2.92964e-09 0)
(0.157795 5.06449e-10 0)
(0.157795 -3.19396e-09 0)
(0.157795 -6.0839e-09 0)
(0.157795 -6.47298e-09 0)
(0.157795 -4.82888e-09 0)
(0.157795 -3.5317e-09 0)
(0.157795 -4.68608e-09 0)
(0.157795 -7.84676e-09 0)
(0.157795 -1.03433e-08 0)
(0.157795 -9.80549e-09 0)
(0.157795 -6.59707e-09 0)
(0.157795 -3.43881e-09 0)
(0.157795 -2.19659e-09 0)
(0.157795 -1.93329e-09 0)
(0.157795 -1.58078e-10 0)
(0.157795 4.19083e-09 0)
(0.157795 9.1089e-09 0)
(0.157795 1.14358e-08 0)
(0.157795 9.76686e-09 0)
(0.157795 5.86901e-09 0)
(0.157795 2.87655e-09 0)
(0.157795 2.39276e-09 0)
(0.157795 3.42042e-09 0)
(0.157795 3.98256e-09 0)
(0.157795 3.04107e-09 0)
(0.157795 1.22447e-09 0)
(0.157795 -9.72655e-11 0)
(0.157795 -4.78636e-10 0)
(0.157795 -7.87715e-10 0)
(0.157795 -1.62698e-09 0)
(0.157795 -1.45563e-09 0)
(0.157795 2.72966e-09 0)
(0.157795 1.14399e-08 0)
(0.157795 1.95572e-08 0)
(0.157795 1.90564e-08 0)
(0.157795 7.9988e-09 0)
(0.157795 -5.6643e-09 0)
(0.157795 -1.3784e-08 0)
(0.157795 -1.85698e-08 0)
(0.113156 3.94654e-08 0)
(0.113156 5.91662e-08 0)
(0.113156 8.28119e-08 0)
(0.113156 7.46271e-08 0)
(0.113156 4.32144e-08 0)
(0.113156 1.47969e-08 0)
(0.113156 -3.47964e-10 0)
(0.113156 -5.63073e-09 0)
(0.113156 -6.88336e-09 0)
(0.113156 -6.58284e-09 0)
(0.113156 -4.87516e-09 0)
(0.113156 -2.53979e-09 0)
(0.113156 -2.10087e-09 0)
(0.113156 -6.059e-09 0)
(0.113156 -1.42935e-08 0)
(0.113156 -2.3156e-08 0)
(0.113156 -2.81884e-08 0)
(0.113156 -2.7782e-08 0)
(0.113156 -2.42056e-08 0)
(0.113156 -2.11036e-08 0)
(0.113156 -1.98997e-08 0)
(0.113156 -1.91465e-08 0)
(0.113156 -1.67574e-08 0)
(0.113156 -1.23238e-08 0)
(0.113156 -7.25263e-09 0)
(0.113156 -3.02612e-09 0)
(0.113156 5.04778e-10 0)
(0.113156 4.77451e-09 0)
(0.113156 1.06551e-08 0)
(0.113156 1.67165e-08 0)
(0.113156 1.99204e-08 0)
(0.113156 1.82867e-08 0)
(0.113156 1.28654e-08 0)
(0.113156 6.76538e-09 0)
(0.113156 2.4824e-09 0)
(0.113156 3.50221e-10 0)
(0.113156 -9.30126e-10 0)
(0.113156 -2.33937e-09 0)
(0.113156 -3.35354e-09 0)
(0.113156 -2.87397e-09 0)
(0.113156 -9.63562e-10 0)
(0.113156 6.77271e-10 0)
(0.113156 3.22155e-10 0)
(0.113156 -1.62569e-09 0)
(0.113156 -2.59831e-09 0)
(0.113156 -4.98475e-10 0)
(0.113156 3.6812e-09 0)
(0.113156 5.96941e-09 0)
(0.113156 3.13268e-09 0)
(0.113156 -4.00076e-09 0)
(0.113156 -1.06224e-08 0)
(0.113156 -1.23575e-08 0)
(0.113156 -9.18724e-09 0)
(0.113156 -4.96356e-09 0)
(0.113156 -3.26309e-09 0)
(0.113156 -3.71736e-09 0)
(0.113156 -2.77723e-09 0)
(0.113156 1.84443e-09 0)
(0.113156 8.41577e-09 0)
(0.113156 1.25575e-08 0)
(0.113156 1.15385e-08 0)
(0.113156 6.72724e-09 0)
(0.113156 2.19834e-09 0)
(0.113156 1.07695e-09 0)
(0.113156 2.96685e-09 0)
(0.113156 5.24369e-09 0)
(0.113156 5.98027e-09 0)
(0.113156 5.68864e-09 0)
(0.113156 6.38091e-09 0)
(0.113156 9.19281e-09 0)
(0.113156 1.30959e-08 0)
(0.113156 1.65594e-08 0)
(0.113156 1.98611e-08 0)
(0.113156 2.38506e-08 0)
(0.113156 2.53488e-08 0)
(0.113156 1.66038e-08 0)
(0.113156 -5.61213e-09 0)
(0.113156 -3.03505e-08 0)
(0.113156 -3.82445e-08 0)
(0.113156 -3.21753e-08 0)
(0.0455774 1.45814e-08 0)
(0.0455774 2.31604e-08 0)
(0.0455775 3.58989e-08 0)
(0.0455775 3.39976e-08 0)
(0.0455776 1.85559e-08 0)
(0.0455776 2.74323e-09 0)
(0.0455776 -6.16741e-09 0)
(0.0455775 -8.94013e-09 0)
(0.0455775 -9.18652e-09 0)
(0.0455775 -9.10271e-09 0)
(0.0455775 -8.62928e-09 0)
(0.0455775 -7.50984e-09 0)
(0.0455775 -6.59123e-09 0)
(0.0455775 -7.39277e-09 0)
(0.0455775 -1.04801e-08 0)
(0.0455775 -1.45027e-08 0)
(0.0455775 -1.68736e-08 0)
(0.0455775 -1.59308e-08 0)
(0.0455775 -1.25154e-08 0)
(0.0455775 -9.1678e-09 0)
(0.0455775 -7.69689e-09 0)
(0.0455775 -7.79072e-09 0)
(0.0455775 -7.75851e-09 0)
(0.0455775 -6.36521e-09 0)
(0.0455775 -3.87104e-09 0)
(0.0455775 -1.47757e-09 0)
(0.0455775 1.81061e-10 0)
(0.0455775 1.69487e-09 0)
(0.0455775 4.00687e-09 0)
(0.0455775 7.02888e-09 0)
(0.0455775 9.28634e-09 0)
(0.0455775 9.14502e-09 0)
(0.0455775 6.38259e-09 0)
(0.0455775 2.52676e-09 0)
(0.0455775 -5.09567e-10 0)
(0.0455775 -1.94506e-09 0)
(0.0455775 -2.40449e-09 0)
(0.0455775 -2.85638e-09 0)
(0.0455775 -3.44743e-09 0)
(0.0455775 -3.39052e-09 0)
(0.0455775 -2.12178e-09 0)
(0.0455775 -1.99464e-10 0)
(0.0455775 1.02945e-09 0)
(0.0455775 9.57616e-10 0)
(0.0455775 6.08152e-10 0)
(0.0455775 1.53096e-09 0)
(0.0455775 3.95889e-09 0)
(0.0455775 6.02789e-09 0)
(0.0455775 5.19882e-09 0)
(0.0455775 9.10255e-10 0)
(0.0455775 -4.47224e-09 0)
(0.0455775 -7.59411e-09 0)
(0.0455775 -6.92579e-09 0)
(0.0455775 -4.20783e-09 0)
(0.0455775 -2.4252e-09 0)
(0.0455775 -2.65493e-09 0)
(0.0455775 -3.23416e-09 0)
(0.0455775 -1.84925e-09 0)
(0.0455775 1.83384e-09 0)
(0.0455775 5.65133e-09 0)
(0.0455775 6.95133e-09 0)
(0.0455775 5.12165e-09 0)
(0.0455775 2.08987e-09 0)
(0.0455775 5.08755e-10 0)
(0.0455775 1.22848e-09 0)
(0.0455776 3.12268e-09 0)
(0.0455775 4.51427e-09 0)
(0.0455775 4.93465e-09 0)
(0.0455775 5.50237e-09 0)
(0.0455775 7.48793e-09 0)
(0.0455775 1.07555e-08 0)
(0.0455775 1.40162e-08 0)
(0.0455776 1.63124e-08 0)
(0.0455776 1.74932e-08 0)
(0.0455776 1.64008e-08 0)
(0.0455776 9.60578e-09 0)
(0.0455776 -4.51428e-09 0)
(0.0455775 -1.98861e-08 0)
(0.0455775 -2.48843e-08 0)
(0.0455775 -1.95861e-08 0)
)
;

boundaryField
{
    inlet
    {
        type            zeroGradient;
    }
    outlet
    {
        type            zeroGradient;
    }
    walls
    {
        type            noSlip;
    }
    frontAndBack
    {
        type            empty;
    }
}


// ************************************************************************* //
