/*--------------------------------*- C++ -*----------------------------------*\
| =========                 |                                                 |
| \\      /  F ield         | OpenFOAM: The Open Source CFD Toolbox           |
|  \\    /   O peration     | Version:  2406                                  |
|   \\  /    A nd           | Website:  www.openfoam.com                      |
|    \\/     M anipulation  |                                                 |
\*---------------------------------------------------------------------------*/
FoamFile
{
    version     2.0;
    format      ascii;
    arch        "LSB;label=32;scalar=64";
    class       surfaceScalarField;
    location    "0.2";
    object      phi;
}
// * * * * * * * * * * * * * * * * * * * * * * * * * * * * * * * * * * * * * //

dimensions      [0 3 -1 0 0 0 0];

oriented        oriented;

internalField   nonuniform List<scalar> 
4335
(
1.49745e-06
-3.47801e-12
1.49745e-06
-3.15549e-12
1.49746e-06
-2.96501e-12
1.49746e-06
-3.30071e-12
1.49746e-06
-2.78102e-12
1.49747e-06
-2.6508e-12
1.49747e-06
-3.39865e-12
1.49747e-06
-2.77889e-12
1.49747e-06
-1.7895e-12
1.49748e-06
-2.05178e-12
1.49748e-06
-2.5521e-12
1.49748e-06
-2.445e-12
1.49748e-06
-1.96422e-12
1.49748e-06
-1.30824e-12
1.49748e-06
-7.40754e-13
1.49748e-06
-1.90256e-13
1.49748e-06
-1.55807e-13
1.49748e-06
-6.41645e-13
1.49748e-06
-1.19874e-12
1.49749e-06
-1.351e-12
1.49749e-06
-8.06665e-13
1.49749e-06
-1.60857e-13
1.49749e-06
-3.29695e-13
1.49749e-06
-1.1695e-12
1.49749e-06
-1.97718e-12
1.49749e-06
-2.52369e-12
1.4975e-06
-2.81254e-12
1.4975e-06
-3.03953e-12
1.4975e-06
-3.59483e-12
1.49751e-06
-4.43593e-12
1.49751e-06
-5.08048e-12
1.49752e-06
-5.40727e-12
1.49752e-06
-5.64767e-12
1.49753e-06
-5.852e-12
1.49753e-06
-5.9647e-12
1.49754e-06
-5.85652e-12
1.49754e-06
-5.25134e-12
1.49755e-06
-4.14543e-12
1.49755e-06
-2.77223e-12
1.49755e-06
-1.15134e-12
1.49755e-06
6.7324e-13
1.49755e-06
2.50838e-12
1.49754e-06
4.45172e-12
1.49754e-06
6.62017e-12
1.49753e-06
8.66373e-12
1.49752e-06
1.02238e-11
1.49751e-06
1.13583e-11
1.4975e-06
1.22702e-11
1.49748e-06
1.30589e-11
1.49747e-06
1.35835e-11
1.49746e-06
1.34203e-11
1.49745e-06
1.22886e-11
1.49744e-06
1.04049e-11
1.49743e-06
8.21287e-12
1.49742e-06
5.9631e-12
1.49742e-06
3.53666e-12
1.49742e-06
6.24304e-13
1.49742e-06
-2.76068e-12
1.49743e-06
-6.08441e-12
1.49744e-06
-8.79575e-12
1.49745e-06
-1.06774e-11
1.49746e-06
-1.18624e-11
1.49747e-06
-1.26438e-11
1.49749e-06
-1.31507e-11
1.4975e-06
-1.31313e-11
1.49751e-06
-1.22425e-11
1.49752e-06
-1.05123e-11
1.49753e-06
-8.39785e-12
1.49753e-06
-6.40577e-12
1.49754e-06
-4.65713e-12
1.49754e-06
-2.88476e-12
1.49754e-06
-8.84759e-13
1.49754e-06
1.15309e-12
1.49754e-06
2.78249e-12
1.49754e-06
3.76735e-12
1.49753e-06
4.34724e-12
1.49753e-06
4.98299e-12
1.49752e-06
5.83662e-12
1.49752e-06
6.63554e-12
1.49751e-06
7.05729e-12
1.4975e-06
7.10968e-12
1.4975e-06
7.09241e-12
1.49749e-06
7.24628e-12
1.49748e-06
7.48516e-12
1.49748e-06
7.45956e-12
1.49747e-06
6.86488e-12
1.49747e-06
5.70329e-12
1.49746e-06
4.24951e-12
1.49746e-06
2.75788e-12
1.49746e-06
1.20472e-12
1.49746e-06
-6.97781e-13
1.49746e-06
-3.06785e-12
1.49747e-06
-5.68514e-12
1.49747e-06
-8.03113e-12
1.49748e-06
-9.74161e-12
1.49749e-06
-1.08957e-11
1.4975e-06
-1.17926e-11
1.49752e-06
-1.24845e-11
1.49753e-06
-1.266e-11
1.49754e-06
-1.19892e-11
1.49755e-06
-1.05002e-11
1.49756e-06
-8.58821e-12
1.49756e-06
-6.63916e-12
1.49757e-06
-4.67189e-12
1.49757e-06
-2.43627e-12
1.49757e-06
1.81366e-13
1.49757e-06
2.9188e-12
1.49756e-06
5.40223e-12
1.49756e-06
7.38598e-12
1.49755e-06
8.83598e-12
1.49754e-06
9.85462e-12
1.49753e-06
1.055e-11
1.49752e-06
1.08972e-11
1.49751e-06
1.0727e-11
1.4975e-06
9.91548e-12
1.49749e-06
8.62663e-12
1.49748e-06
7.26192e-12
1.49747e-06
6.04892e-12
1.49747e-06
4.81357e-12
1.49747e-06
3.31296e-12
1.49747e-06
1.63809e-12
1.49747e-06
1.53874e-13
1.49747e-06
-9.46591e-13
1.49747e-06
-1.63006e-12
1.49747e-06
-2.20884e-12
1.49747e-06
-2.85588e-12
1.49748e-06
-3.39449e-12
1.49748e-06
-3.58641e-12
1.49748e-06
-3.47577e-12
1.49749e-06
-3.18848e-12
1.49749e-06
-2.78339e-12
1.49749e-06
-2.38025e-12
1.49749e-06
-2.05625e-12
1.4975e-06
-1.76744e-12
1.4975e-06
-1.54097e-12
1.4975e-06
-1.42843e-12
1.4975e-06
-1.38602e-12
1.4975e-06
-1.39524e-12
1.49751e-06
-1.42472e-12
1.49751e-06
-1.40381e-12
1.49751e-06
-1.35711e-12
1.49751e-06
-1.35336e-12
1.49751e-06
-1.40872e-12
1.49751e-06
-1.48112e-12
1.49751e-06
-1.51305e-12
1.49752e-06
-1.40642e-12
1.49752e-06
-1.35301e-12
1.49752e-06
-1.67567e-12
1.49752e-06
-2.38061e-12
-3.61457e-12
4.04765e-06
-1.01099e-11
4.04765e-06
-9.52986e-12
4.04766e-06
-8.79073e-12
4.04767e-06
-9.03577e-12
4.04767e-06
-1.02575e-11
4.04768e-06
-9.54821e-12
4.04768e-06
-8.56752e-12
4.04769e-06
-8.6222e-12
4.0477e-06
-8.50485e-12
4.0477e-06
-8.37708e-12
4.0477e-06
-7.97505e-12
4.04771e-06
-7.11312e-12
4.04771e-06
-6.0488e-12
4.04772e-06
-4.7977e-12
4.04772e-06
-3.6255e-12
4.04773e-06
-2.76231e-12
4.04773e-06
-2.52958e-12
4.04773e-06
-2.61828e-12
4.04773e-06
-2.53615e-12
4.04773e-06
-2.48758e-12
4.04774e-06
-2.69213e-12
4.04774e-06
-3.08393e-12
4.04774e-06
-4.0086e-12
4.04775e-06
-5.60732e-12
4.04775e-06
-7.36897e-12
4.04776e-06
-9.08676e-12
4.04777e-06
-1.08584e-11
4.04777e-06
-1.25873e-11
4.04778e-06
-1.43031e-11
4.0478e-06
-1.61644e-11
4.04781e-06
-1.79647e-11
4.04782e-06
-1.93625e-11
4.04784e-06
-2.02232e-11
4.04785e-06
-2.03802e-11
4.04787e-06
-1.9756e-11
4.04788e-06
-1.84738e-11
4.04789e-06
-1.63532e-11
4.0479e-06
-1.30333e-11
4.04791e-06
-8.51448e-12
4.04791e-06
-2.97414e-12
4.04791e-06
3.29105e-12
4.0479e-06
9.67801e-12
4.04789e-06
1.5894e-11
4.04787e-06
2.22347e-11
4.04785e-06
2.87335e-11
4.04783e-06
3.48056e-11
4.0478e-06
3.98017e-11
4.04777e-06
4.33146e-11
4.04773e-06
4.52175e-11
4.0477e-06
4.56101e-11
4.04767e-06
4.44193e-11
4.04764e-06
4.12682e-11
4.04761e-06
3.59421e-11
4.04759e-06
2.8678e-11
4.04758e-06
2.0032e-11
4.04757e-06
1.06109e-11
4.04757e-06
7.38171e-13
4.04758e-06
-9.31897e-12
4.04759e-06
-1.91322e-11
4.04761e-06
-2.79347e-11
4.04764e-06
-3.50454e-11
4.04767e-06
-4.00375e-11
4.0477e-06
-4.2843e-11
4.04773e-06
-4.37026e-11
4.04776e-06
-4.28382e-11
4.04779e-06
-4.023e-11
4.04782e-06
-3.58188e-11
4.04784e-06
-2.98635e-11
4.04785e-06
-2.30681e-11
4.04787e-06
-1.62682e-11
4.04787e-06
-9.91411e-12
4.04788e-06
-3.95578e-12
4.04787e-06
1.80581e-12
4.04787e-06
7.24253e-12
4.04786e-06
1.18728e-11
4.04785e-06
1.53097e-11
4.04784e-06
1.7707e-11
4.04782e-06
1.96304e-11
4.04781e-06
2.14975e-11
4.04779e-06
2.32596e-11
4.04777e-06
2.45805e-11
4.04776e-06
2.52227e-11
4.04774e-06
2.52304e-11
4.04772e-06
2.47739e-11
4.0477e-06
2.38583e-11
4.04769e-06
2.21888e-11
4.04767e-06
1.93278e-11
4.04767e-06
1.50286e-11
4.04766e-06
9.44903e-12
4.04766e-06
3.01061e-12
4.04766e-06
-3.95206e-12
4.04767e-06
-1.13267e-11
4.04768e-06
-1.90355e-11
4.0477e-06
-2.666e-11
4.04773e-06
-3.33684e-11
4.04775e-06
-3.83589e-11
4.04778e-06
-4.13547e-11
4.04781e-06
-4.25691e-11
4.04785e-06
-4.22371e-11
4.04787e-06
-4.0278e-11
4.0479e-06
-3.64189e-11
4.04792e-06
-3.06131e-11
4.04794e-06
-2.32771e-11
4.04795e-06
-1.50607e-11
4.04795e-06
-6.45996e-12
4.04795e-06
2.24185e-12
4.04794e-06
1.074e-11
4.04793e-06
1.86123e-11
4.04791e-06
2.54131e-11
4.04789e-06
3.07812e-11
4.04787e-06
3.45018e-11
4.04784e-06
3.65592e-11
4.04781e-06
3.71111e-11
4.04779e-06
3.63316e-11
4.04776e-06
3.4247e-11
4.04774e-06
3.08433e-11
4.04772e-06
2.63984e-11
4.0477e-06
2.15142e-11
4.04769e-06
1.6687e-11
4.04768e-06
1.2019e-11
4.04768e-06
7.40352e-12
4.04767e-06
2.8443e-12
4.04768e-06
-1.42978e-12
4.04768e-06
-5.01527e-12
4.04769e-06
-7.70147e-12
4.04769e-06
-9.64326e-12
4.0477e-06
-1.10078e-11
4.04771e-06
-1.17371e-11
4.04772e-06
-1.1855e-11
4.04773e-06
-1.15272e-11
4.04773e-06
-1.08454e-11
4.04774e-06
-9.92184e-12
4.04775e-06
-8.92942e-12
4.04775e-06
-7.94005e-12
4.04776e-06
-7.01122e-12
4.04777e-06
-6.25428e-12
4.04777e-06
-5.65856e-12
4.04777e-06
-5.19994e-12
4.04778e-06
-4.99775e-12
4.04778e-06
-5.07912e-12
4.04779e-06
-5.30784e-12
4.04779e-06
-5.52296e-12
4.04779e-06
-5.59481e-12
4.0478e-06
-5.54506e-12
4.0478e-06
-5.61912e-12
4.04781e-06
-5.82081e-12
4.04781e-06
-5.92493e-12
4.04782e-06
-6.09167e-12
4.04782e-06
-6.85055e-12
-8.45624e-12
6.17057e-06
-1.35272e-11
6.17057e-06
-1.48393e-11
6.17058e-06
-1.57749e-11
6.17058e-06
-1.48722e-11
6.17059e-06
-1.48609e-11
6.1706e-06
-1.52286e-11
6.1706e-06
-1.53678e-11
6.17061e-06
-1.60168e-11
6.17061e-06
-1.62364e-11
6.17062e-06
-1.58387e-11
6.17063e-06
-1.44357e-11
6.17063e-06
-1.29915e-11
6.17064e-06
-1.10744e-11
6.17064e-06
-9.38613e-12
6.17065e-06
-8.32436e-12
6.17065e-06
-7.45693e-12
6.17065e-06
-6.73447e-12
6.17066e-06
-6.06483e-12
6.17066e-06
-5.32604e-12
6.17066e-06
-5.0875e-12
6.17067e-06
-5.98299e-12
6.17067e-06
-7.67798e-12
6.17068e-06
-9.77556e-12
6.17069e-06
-1.23733e-11
6.17069e-06
-1.53604e-11
6.1707e-06
-1.86659e-11
6.17072e-06
-2.251e-11
6.17073e-06
-2.66666e-11
6.17074e-06
-3.05657e-11
6.17076e-06
-3.40499e-11
6.17078e-06
-3.71355e-11
6.1708e-06
-3.96073e-11
6.17082e-06
-4.12168e-11
6.17084e-06
-4.15603e-11
6.17086e-06
-4.01445e-11
6.17088e-06
-3.69194e-11
6.1709e-06
-3.19473e-11
6.17091e-06
-2.49888e-11
6.17092e-06
-1.60328e-11
6.17092e-06
-5.35261e-12
6.17092e-06
6.84217e-12
6.17091e-06
2.00262e-11
6.17089e-06
3.33944e-11
6.17087e-06
4.65776e-11
6.17084e-06
5.94141e-11
6.1708e-06
7.12774e-11
6.17076e-06
8.1241e-11
6.17072e-06
8.84408e-11
6.17067e-06
9.22305e-11
6.17062e-06
9.24098e-11
6.17058e-06
8.90832e-11
6.17054e-06
8.22442e-11
6.1705e-06
7.17775e-11
6.17047e-06
5.77126e-11
6.17045e-06
4.04617e-11
6.17044e-06
2.10155e-11
6.17044e-06
6.92597e-13
6.17045e-06
-1.93402e-11
6.17047e-06
-3.81858e-11
6.1705e-06
-5.501e-11
6.17053e-06
-6.90642e-11
6.17057e-06
-7.95953e-11
6.17061e-06
-8.59315e-11
6.17066e-06
-8.78332e-11
6.1707e-06
-8.56045e-11
6.17074e-06
-7.98236e-11
6.17078e-06
-7.10561e-11
6.17081e-06
-5.98136e-11
6.17083e-06
-4.6766e-11
6.17085e-06
-3.29064e-11
6.17086e-06
-1.93266e-11
6.17086e-06
-6.79126e-12
6.17086e-06
4.45592e-12
6.17085e-06
1.4509e-11
6.17084e-06
2.33739e-11
6.17083e-06
3.07837e-11
6.17081e-06
3.65102e-11
6.17079e-06
4.07386e-11
6.17077e-06
4.39977e-11
6.17074e-06
4.67541e-11
6.17072e-06
4.90866e-11
6.17069e-06
5.06908e-11
6.17067e-06
5.11415e-11
6.17064e-06
5.01474e-11
6.17062e-06
4.75876e-11
6.1706e-06
4.33515e-11
6.17058e-06
3.71664e-11
6.17057e-06
2.86639e-11
6.17056e-06
1.77016e-11
6.17056e-06
4.6204e-12
6.17056e-06
-9.8343e-12
6.17057e-06
-2.48301e-11
6.17059e-06
-3.97103e-11
6.17062e-06
-5.39209e-11
6.17066e-06
-6.66875e-11
6.17069e-06
-7.69293e-11
6.17074e-06
-8.36557e-11
6.17078e-06
-8.64159e-11
6.17082e-06
-8.53135e-11
6.17086e-06
-8.0642e-11
6.1709e-06
-7.25552e-11
6.17093e-06
-6.11154e-11
6.17095e-06
-4.6653e-11
6.17097e-06
-2.99919e-11
6.17097e-06
-1.22654e-11
6.17097e-06
5.4393e-12
6.17096e-06
2.22702e-11
6.17094e-06
3.75948e-11
6.17092e-06
5.08939e-11
6.17089e-06
6.16665e-11
6.17085e-06
6.9444e-11
6.17082e-06
7.39182e-11
6.17078e-06
7.50939e-11
6.17074e-06
7.33381e-11
6.1707e-06
6.91621e-11
6.17067e-06
6.28983e-11
6.17064e-06
5.47583e-11
6.17062e-06
4.52106e-11
6.1706e-06
3.5026e-11
6.17059e-06
2.49051e-11
6.17058e-06
1.52483e-11
6.17058e-06
6.23753e-12
6.17058e-06
-2.01043e-12
6.17058e-06
-9.23751e-12
6.17059e-06
-1.50169e-11
6.1706e-06
-1.91221e-11
6.17061e-06
-2.17032e-11
6.17062e-06
-2.30166e-11
6.17063e-06
-2.33517e-11
6.17065e-06
-2.30036e-11
6.17066e-06
-2.2058e-11
6.17067e-06
-2.05319e-11
6.17068e-06
-1.86606e-11
6.17069e-06
-1.67502e-11
6.17069e-06
-1.49453e-11
6.1707e-06
-1.33419e-11
6.17071e-06
-1.20108e-11
6.17071e-06
-1.09348e-11
6.17072e-06
-1.02012e-11
6.17073e-06
-9.8962e-12
6.17073e-06
-9.92581e-12
6.17074e-06
-1.01721e-11
6.17074e-06
-1.05134e-11
6.17074e-06
-1.08089e-11
6.17075e-06
-1.11308e-11
6.17076e-06
-1.14969e-11
6.17076e-06
-1.18098e-11
6.17077e-06
-1.1957e-11
6.17077e-06
-1.25769e-11
-1.38614e-11
7.88247e-06
-1.33578e-11
7.88247e-06
-1.47721e-11
7.88247e-06
-1.66504e-11
7.88247e-06
-1.76367e-11
7.88248e-06
-1.83816e-11
7.88248e-06
-1.96023e-11
7.88248e-06
-2.07722e-11
7.88249e-06
-2.10831e-11
7.88249e-06
-2.03969e-11
7.8825e-06
-1.97774e-11
7.8825e-06
-1.86723e-11
7.88251e-06
-1.7509e-11
7.88251e-06
-1.61501e-11
7.88252e-06
-1.45939e-11
7.88252e-06
-1.33539e-11
7.88252e-06
-1.19819e-11
7.88253e-06
-1.05447e-11
7.88253e-06
-9.62906e-12
7.88254e-06
-9.21468e-12
7.88254e-06
-9.38714e-12
7.88255e-06
-1.07218e-11
7.88255e-06
-1.319e-11
7.88256e-06
-1.63284e-11
7.88257e-06
-2.01618e-11
7.88258e-06
-2.48209e-11
7.88259e-06
-3.01263e-11
7.8826e-06
-3.59763e-11
7.88262e-06
-4.2177e-11
7.88263e-06
-4.82027e-11
7.88265e-06
-5.36768e-11
7.88268e-06
-5.83907e-11
7.8827e-06
-6.18996e-11
7.88272e-06
-6.38161e-11
7.88275e-06
-6.38724e-11
7.88277e-06
-6.15125e-11
7.88279e-06
-5.63183e-11
7.8828e-06
-4.83192e-11
7.88282e-06
-3.74697e-11
7.88283e-06
-2.37752e-11
7.88283e-06
-7.62525e-12
7.88282e-06
1.06916e-11
7.88281e-06
3.09226e-11
7.88279e-06
5.21884e-11
7.88277e-06
7.32661e-11
7.88274e-06
9.31549e-11
7.8827e-06
1.10963e-10
7.88265e-06
1.25818e-10
7.8826e-06
1.36863e-10
7.88255e-06
1.43116e-10
7.8825e-06
1.43749e-10
7.88245e-06
1.38443e-10
7.88241e-06
1.27256e-10
7.88237e-06
1.10472e-10
7.88233e-06
8.8603e-11
7.88231e-06
6.23547e-11
7.8823e-06
3.28325e-11
7.8823e-06
1.68565e-12
7.88231e-06
-2.92302e-11
7.88233e-06
-5.83139e-11
7.88236e-06
-8.41557e-11
7.8824e-06
-1.05652e-10
7.88244e-06
-1.21926e-10
7.88249e-06
-1.32152e-10
7.88253e-06
-1.35722e-10
7.88258e-06
-1.32625e-10
7.88262e-06
-1.23594e-10
7.88266e-06
-1.09852e-10
7.8827e-06
-9.26606e-11
7.88272e-06
-7.30697e-11
7.88274e-06
-5.21051e-11
7.88275e-06
-3.09782e-11
7.88276e-06
-1.09487e-11
7.88275e-06
7.03183e-12
7.88275e-06
2.26078e-11
7.88273e-06
3.59193e-11
7.88272e-06
4.71636e-11
7.8827e-06
5.6354e-11
7.88268e-06
6.3512e-11
7.88265e-06
6.89084e-11
7.88262e-06
7.30013e-11
7.8826e-06
7.61268e-11
7.88257e-06
7.82416e-11
7.88254e-06
7.89096e-11
7.88251e-06
7.75018e-11
7.88249e-06
7.34509e-11
7.88246e-06
6.64178e-11
7.88245e-06
5.62582e-11
7.88243e-06
4.28612e-11
7.88242e-06
2.61559e-11
7.88242e-06
6.33192e-12
7.88243e-06
-1.59035e-11
7.88244e-06
-3.93141e-11
7.88246e-06
-6.2438e-11
7.88249e-06
-8.39851e-11
7.88253e-06
-1.02925e-10
7.88257e-06
-1.18239e-10
7.88262e-06
-1.288e-10
7.88267e-06
-1.33624e-10
7.88271e-06
-1.32233e-10
7.88276e-06
-1.24747e-10
7.8828e-06
-1.11663e-10
7.88283e-06
-9.36013e-11
7.88286e-06
-7.13198e-11
7.88287e-06
-4.58865e-11
7.88288e-06
-1.87003e-11
7.88288e-06
8.69544e-12
7.88287e-06
3.48451e-11
7.88285e-06
5.85643e-11
7.88282e-06
7.89894e-11
7.88279e-06
9.5458e-11
7.88275e-06
1.07421e-10
7.88271e-06
1.14516e-10
7.88266e-06
1.16659e-10
7.88262e-06
1.14123e-10
7.88258e-06
1.07564e-10
7.88255e-06
9.78095e-11
7.88252e-06
8.55208e-11
7.88249e-06
7.12221e-11
7.88247e-06
5.56363e-11
7.88245e-06
3.97038e-11
7.88245e-06
2.42988e-11
7.88244e-06
1.00391e-11
7.88244e-06
-2.68046e-12
7.88244e-06
-1.35746e-11
7.88245e-06
-2.23567e-11
7.88246e-06
-2.88863e-11
7.88247e-06
-3.33114e-11
7.88249e-06
-3.58205e-11
7.8825e-06
-3.6604e-11
7.88251e-06
-3.60812e-11
7.88252e-06
-3.46713e-11
7.88254e-06
-3.25232e-11
7.88255e-06
-2.97668e-11
7.88256e-06
-2.67355e-11
7.88257e-06
-2.37442e-11
7.88257e-06
-2.10031e-11
7.88258e-06
-1.87227e-11
7.88259e-06
-1.69381e-11
7.88259e-06
-1.55952e-11
7.8826e-06
-1.47424e-11
7.8826e-06
-1.43874e-11
7.88261e-06
-1.44558e-11
7.88261e-06
-1.47658e-11
7.88262e-06
-1.50683e-11
7.88262e-06
-1.5355e-11
7.88262e-06
-1.57356e-11
7.88263e-06
-1.61034e-11
7.88263e-06
-1.64528e-11
7.88264e-06
-1.66963e-11
-1.74666e-11
9.19774e-06
-1.11156e-11
9.19774e-06
-1.19252e-11
9.19774e-06
-1.31541e-11
9.19773e-06
-1.51339e-11
9.19773e-06
-1.68593e-11
9.19773e-06
-1.8083e-11
9.19773e-06
-1.90542e-11
9.19773e-06
-1.97037e-11
9.19773e-06
-2.06362e-11
9.19773e-06
-2.11679e-11
9.19773e-06
-2.09585e-11
9.19774e-06
-1.99373e-11
9.19774e-06
-1.9089e-11
9.19774e-06
-1.82378e-11
9.19774e-06
-1.71377e-11
9.19775e-06
-1.57873e-11
9.19775e-06
-1.43298e-11
9.19775e-06
-1.34558e-11
9.19776e-06
-1.34193e-11
9.19776e-06
-1.40551e-11
9.19777e-06
-1.56444e-11
9.19777e-06
-1.85247e-11
9.19778e-06
-2.26655e-11
9.19779e-06
-2.80445e-11
9.1978e-06
-3.45357e-11
9.19781e-06
-4.16928e-11
9.19782e-06
-4.92791e-11
9.19784e-06
-5.72596e-11
9.19785e-06
-6.51558e-11
9.19787e-06
-7.22925e-11
9.19789e-06
-7.82629e-11
9.19791e-06
-8.25893e-11
9.19793e-06
-8.4738e-11
9.19796e-06
-8.4443e-11
9.19798e-06
-8.12709e-11
9.198e-06
-7.45297e-11
9.19801e-06
-6.38798e-11
9.19802e-06
-4.92875e-11
9.19803e-06
-3.08409e-11
9.19803e-06
-9.04211e-12
9.19803e-06
1.54356e-11
9.19802e-06
4.21066e-11
9.198e-06
7.01995e-11
9.19798e-06
9.83592e-11
9.19794e-06
1.2503e-10
9.19791e-06
1.48719e-10
9.19787e-06
1.6817e-10
9.19782e-06
1.82439e-10
9.19777e-06
1.90544e-10
9.19773e-06
1.91388e-10
9.19768e-06
1.84271e-10
9.19764e-06
1.69136e-10
9.1976e-06
1.46475e-10
9.19757e-06
1.17239e-10
9.19755e-06
8.26166e-11
9.19754e-06
4.39492e-11
9.19754e-06
3.03182e-12
9.19755e-06
-3.79952e-11
9.19756e-06
-7.68403e-11
9.19759e-06
-1.11463e-10
9.19763e-06
-1.40135e-10
9.19767e-06
-1.61599e-10
9.19771e-06
-1.75001e-10
9.19775e-06
-1.7985e-10
9.1978e-06
-1.76136e-10
9.19784e-06
-1.64497e-10
9.19787e-06
-1.46272e-10
9.1979e-06
-1.23259e-10
9.19793e-06
-9.72346e-11
9.19794e-06
-6.96917e-11
9.19796e-06
-4.19418e-11
9.19796e-06
-1.52677e-11
9.19796e-06
9.11318e-12
9.19795e-06
3.0334e-11
9.19794e-06
4.81727e-11
9.19793e-06
6.29579e-11
9.19791e-06
7.51433e-11
9.19789e-06
8.50159e-11
9.19786e-06
9.27344e-11
9.19784e-06
9.84838e-11
9.19781e-06
1.02472e-10
9.19779e-06
1.04747e-10
9.19776e-06
1.05036e-10
9.19773e-06
1.02756e-10
9.19771e-06
9.71693e-11
9.19769e-06
8.76263e-11
9.19767e-06
7.37811e-11
9.19766e-06
5.5604e-11
9.19765e-06
3.32939e-11
9.19765e-06
7.26686e-12
9.19765e-06
-2.17275e-11
9.19767e-06
-5.24427e-11
9.19769e-06
-8.31286e-11
9.19772e-06
-1.11842e-10
9.19775e-06
-1.36879e-10
9.19779e-06
-1.56911e-10
9.19783e-06
-1.70789e-10
9.19788e-06
-1.77418e-10
9.19792e-06
-1.75948e-10
9.19796e-06
-1.6614e-10
9.198e-06
-1.48513e-10
9.19803e-06
-1.24149e-10
9.19805e-06
-9.44035e-11
9.19807e-06
-6.08095e-11
9.19808e-06
-2.50596e-11
9.19807e-06
1.1068e-11
9.19806e-06
4.57995e-11
9.19804e-06
7.74937e-11
9.19802e-06
1.04827e-10
9.19799e-06
1.26853e-10
9.19795e-06
1.42914e-10
9.19791e-06
1.52624e-10
9.19788e-06
1.55918e-10
9.19784e-06
1.53034e-10
9.1978e-06
1.44549e-10
9.19777e-06
1.31429e-10
9.19774e-06
1.14839e-10
9.19771e-06
9.58186e-11
9.19769e-06
7.52383e-11
9.19768e-06
5.40483e-11
9.19767e-06
3.33616e-11
9.19766e-06
1.42257e-11
9.19766e-06
-2.68833e-12
9.19767e-06
-1.71036e-11
9.19767e-06
-2.8814e-11
9.19768e-06
-3.76277e-11
9.19769e-06
-4.36922e-11
9.1977e-06
-4.73768e-11
9.19772e-06
-4.8919e-11
9.19773e-06
-4.85844e-11
9.19774e-06
-4.68178e-11
9.19775e-06
-4.40124e-11
9.19776e-06
-4.04159e-11
9.19777e-06
-3.63378e-11
9.19778e-06
-3.21752e-11
9.19779e-06
-2.82074e-11
9.19779e-06
-2.46703e-11
9.1978e-06
-2.17444e-11
9.1978e-06
-1.94545e-11
9.19781e-06
-1.77906e-11
9.19781e-06
-1.67028e-11
9.19781e-06
-1.61709e-11
9.19781e-06
-1.6205e-11
9.19781e-06
-1.65194e-11
9.19782e-06
-1.67536e-11
9.19782e-06
-1.71523e-11
9.19782e-06
-1.74438e-11
9.19782e-06
-1.77211e-11
9.19782e-06
-1.80267e-11
-1.85687e-11
1.01283e-05
-3.46456e-12
1.01283e-05
-4.7393e-12
1.01283e-05
-6.49463e-12
1.01283e-05
-8.51388e-12
1.01282e-05
-1.011e-11
1.01282e-05
-1.19299e-11
1.01282e-05
-1.44372e-11
1.01282e-05
-1.61116e-11
1.01282e-05
-1.74053e-11
1.01282e-05
-1.81653e-11
1.01282e-05
-1.90113e-11
1.01282e-05
-1.97051e-11
1.01282e-05
-1.98102e-11
1.01282e-05
-1.92255e-11
1.01282e-05
-1.80474e-11
1.01282e-05
-1.68789e-11
1.01282e-05
-1.58799e-11
1.01282e-05
-1.54545e-11
1.01282e-05
-1.60324e-11
1.01282e-05
-1.74511e-11
1.01282e-05
-1.97654e-11
1.01282e-05
-2.34166e-11
1.01282e-05
-2.85117e-11
1.01283e-05
-3.49194e-11
1.01283e-05
-4.25256e-11
1.01283e-05
-5.09434e-11
1.01283e-05
-5.97357e-11
1.01283e-05
-6.88168e-11
1.01283e-05
-7.79408e-11
1.01283e-05
-8.64096e-11
1.01283e-05
-9.35442e-11
1.01284e-05
-9.87121e-11
1.01284e-05
-1.0123e-10
1.01284e-05
-1.007e-10
1.01284e-05
-9.67843e-11
1.01284e-05
-8.88265e-11
1.01284e-05
-7.63086e-11
1.01284e-05
-5.9098e-11
1.01284e-05
-3.72199e-11
1.01284e-05
-1.10732e-11
1.01284e-05
1.84679e-11
1.01284e-05
5.04308e-11
1.01284e-05
8.37193e-11
1.01284e-05
1.16902e-10
1.01284e-05
1.48399e-10
1.01283e-05
1.76581e-10
1.01283e-05
1.99806e-10
1.01283e-05
2.16721e-10
1.01282e-05
2.26262e-10
1.01282e-05
2.27391e-10
1.01282e-05
2.19284e-10
1.01281e-05
2.01666e-10
1.01281e-05
1.74907e-10
1.01281e-05
1.40116e-10
1.01281e-05
9.89625e-11
1.01281e-05
5.32927e-11
1.01281e-05
5.09763e-12
1.01281e-05
-4.33577e-11
1.01281e-05
-8.9544e-11
1.01281e-05
-1.3093e-10
1.01281e-05
-1.65242e-10
1.01282e-05
-1.90797e-10
1.01282e-05
-2.06626e-10
1.01282e-05
-2.12399e-10
1.01283e-05
-2.08339e-10
1.01283e-05
-1.95146e-10
1.01283e-05
-1.74052e-10
1.01283e-05
-1.46901e-10
1.01284e-05
-1.15912e-10
1.01284e-05
-8.32389e-11
1.01284e-05
-5.06403e-11
1.01284e-05
-1.94319e-11
1.01284e-05
9.34542e-12
1.01284e-05
3.48125e-11
1.01284e-05
5.64139e-11
1.01284e-05
7.41541e-11
1.01283e-05
8.85325e-11
1.01283e-05
1.00179e-10
1.01283e-05
1.09505e-10
1.01283e-05
1.16623e-10
1.01283e-05
1.21495e-10
1.01283e-05
1.24042e-10
1.01282e-05
1.24085e-10
1.01282e-05
1.21205e-10
1.01282e-05
1.14674e-10
1.01282e-05
1.03611e-10
1.01282e-05
8.73389e-11
1.01282e-05
6.56923e-11
1.01281e-05
3.90436e-11
1.01281e-05
8.15479e-12
1.01282e-05
-2.59681e-11
1.01282e-05
-6.20481e-11
1.01282e-05
-9.8369e-11
1.01282e-05
-1.32736e-10
1.01282e-05
-1.62821e-10
1.01283e-05
-1.8665e-10
1.01283e-05
-2.02812e-10
1.01283e-05
-2.10318e-10
1.01284e-05
-2.08467e-10
1.01284e-05
-1.96979e-10
1.01284e-05
-1.76272e-10
1.01284e-05
-1.47504e-10
1.01285e-05
-1.12347e-10
1.01285e-05
-7.27175e-11
1.01285e-05
-3.06096e-11
1.01285e-05
1.20121e-11
1.01285e-05
5.32132e-11
1.01284e-05
9.10653e-11
1.01284e-05
1.23818e-10
1.01284e-05
1.50165e-10
1.01284e-05
1.69316e-10
1.01284e-05
1.80943e-10
1.01283e-05
1.85116e-10
1.01283e-05
1.82187e-10
1.01283e-05
1.72686e-10
1.01282e-05
1.57448e-10
1.01282e-05
1.37731e-10
1.01282e-05
1.15034e-10
1.01282e-05
9.07143e-11
1.01282e-05
6.58746e-11
1.01282e-05
4.15307e-11
1.01282e-05
1.87834e-11
1.01282e-05
-1.38524e-12
1.01282e-05
-1.8509e-11
1.01282e-05
-3.25374e-11
1.01282e-05
-4.33901e-11
1.01282e-05
-5.1034e-11
1.01282e-05
-5.57319e-11
1.01282e-05
-5.78489e-11
1.01282e-05
-5.77162e-11
1.01282e-05
-5.57274e-11
1.01282e-05
-5.23431e-11
1.01282e-05
-4.79982e-11
1.01282e-05
-4.30717e-11
1.01282e-05
-3.79694e-11
1.01282e-05
-3.30086e-11
1.01283e-05
-2.84233e-11
1.01283e-05
-2.45059e-11
1.01283e-05
-2.14167e-11
1.01283e-05
-1.90786e-11
1.01283e-05
-1.72488e-11
1.01283e-05
-1.57981e-11
1.01283e-05
-1.49106e-11
1.01283e-05
-1.46947e-11
1.01283e-05
-1.4794e-11
1.01283e-05
-1.50928e-11
1.01283e-05
-1.56648e-11
1.01282e-05
-1.62332e-11
1.01282e-05
-1.67062e-11
-1.71136e-11
1.06829e-05
5.03446e-12
1.06829e-05
4.49729e-12
1.06829e-05
3.95423e-12
1.06829e-05
2.32796e-12
1.06829e-05
-6.20397e-14
1.06829e-05
-2.49651e-12
1.06829e-05
-4.82727e-12
1.06829e-05
-7.15166e-12
1.06829e-05
-9.9836e-12
1.06829e-05
-1.28752e-11
1.06829e-05
-1.49941e-11
1.06829e-05
-1.63515e-11
1.06829e-05
-1.70182e-11
1.06829e-05
-1.70112e-11
1.06829e-05
-1.65625e-11
1.06829e-05
-1.63061e-11
1.06829e-05
-1.62046e-11
1.06829e-05
-1.63048e-11
1.06829e-05
-1.72493e-11
1.06829e-05
-1.92669e-11
1.06829e-05
-2.23202e-11
1.06829e-05
-2.66483e-11
1.06829e-05
-3.23212e-11
1.06829e-05
-3.90927e-11
1.06829e-05
-4.69163e-11
1.06829e-05
-5.58069e-11
1.06829e-05
-6.54152e-11
1.06829e-05
-7.53148e-11
1.06829e-05
-8.50897e-11
1.06829e-05
-9.40943e-11
1.06829e-05
-1.01743e-10
1.06829e-05
-1.07535e-10
1.06829e-05
-1.10649e-10
1.06829e-05
-1.10258e-10
1.06829e-05
-1.05861e-10
1.0683e-05
-9.6946e-11
1.0683e-05
-8.30876e-11
1.0683e-05
-6.42409e-11
1.0683e-05
-4.04926e-11
1.0683e-05
-1.21107e-11
1.0683e-05
2.0067e-11
1.0683e-05
5.48219e-11
1.0683e-05
9.0842e-11
1.06829e-05
1.26663e-10
1.06829e-05
1.60755e-10
1.06829e-05
1.91542e-10
1.06829e-05
2.17216e-10
1.06829e-05
2.35969e-10
1.06829e-05
2.46378e-10
1.06828e-05
2.47407e-10
1.06828e-05
2.38455e-10
1.06828e-05
2.19469e-10
1.06828e-05
1.90816e-10
1.06828e-05
1.53358e-10
1.06828e-05
1.08665e-10
1.06828e-05
5.88744e-11
1.06828e-05
6.40991e-12
1.06828e-05
-4.61403e-11
1.06828e-05
-9.61633e-11
1.06828e-05
-1.41102e-10
1.06828e-05
-1.78541e-10
1.06828e-05
-2.06505e-10
1.06828e-05
-2.23767e-10
1.06829e-05
-2.29958e-10
1.06829e-05
-2.25506e-10
1.06829e-05
-2.11398e-10
1.06829e-05
-1.88972e-10
1.06829e-05
-1.59943e-10
1.06829e-05
-1.26445e-10
1.06829e-05
-9.08208e-11
1.06829e-05
-5.52538e-11
1.06829e-05
-2.14225e-11
1.06829e-05
9.59663e-12
1.06829e-05
3.71459e-11
1.06829e-05
6.08078e-11
1.06829e-05
8.0431e-11
1.06829e-05
9.624e-11
1.06829e-05
1.08788e-10
1.06829e-05
1.18704e-10
1.06829e-05
1.26395e-10
1.06829e-05
1.31902e-10
1.06829e-05
1.34962e-10
1.06829e-05
1.35122e-10
1.06828e-05
1.31838e-10
1.06828e-05
1.24488e-10
1.06828e-05
1.12363e-10
1.06828e-05
9.47922e-11
1.06828e-05
7.14248e-11
1.06828e-05
4.24526e-11
1.06828e-05
8.67972e-12
1.06828e-05
-2.85714e-11
1.06828e-05
-6.76758e-11
1.06828e-05
-1.06816e-10
1.06828e-05
-1.4392e-10
1.06829e-05
-1.76657e-10
1.06829e-05
-2.02731e-10
1.06829e-05
-2.2031e-10
1.06829e-05
-2.28244e-10
1.06829e-05
-2.2598e-10
1.06829e-05
-2.13456e-10
1.0683e-05
-1.91171e-10
1.0683e-05
-1.60243e-10
1.0683e-05
-1.22306e-10
1.0683e-05
-7.9362e-11
1.0683e-05
-3.36549e-11
1.0683e-05
1.25673e-11
1.0683e-05
5.72312e-11
1.0683e-05
9.83875e-11
1.0683e-05
1.34194e-10
1.06829e-05
1.63146e-10
1.06829e-05
1.8425e-10
1.06829e-05
1.97015e-10
1.06829e-05
2.01472e-10
1.06829e-05
1.98165e-10
1.06829e-05
1.87909e-10
1.06829e-05
1.71613e-10
1.06828e-05
1.504e-10
1.06828e-05
1.25752e-10
1.06828e-05
9.93052e-11
1.06828e-05
7.24849e-11
1.06828e-05
4.63463e-11
1.06828e-05
2.17459e-11
1.06828e-05
-4.33028e-13
1.06828e-05
-1.94496e-11
1.06828e-05
-3.49695e-11
1.06828e-05
-4.69049e-11
1.06828e-05
-5.53143e-11
1.06828e-05
-6.05187e-11
1.06828e-05
-6.28998e-11
1.06828e-05
-6.27436e-11
1.06828e-05
-6.04426e-11
1.06828e-05
-5.65632e-11
1.06828e-05
-5.16909e-11
1.06829e-05
-4.62868e-11
1.06829e-05
-4.07314e-11
1.06829e-05
-3.52853e-11
1.06829e-05
-3.00114e-11
1.06829e-05
-2.50748e-11
1.06829e-05
-2.0823e-11
1.06829e-05
-1.74692e-11
1.06829e-05
-1.48563e-11
1.06829e-05
-1.2688e-11
1.06828e-05
-1.09406e-11
1.06828e-05
-9.86917e-12
1.06828e-05
-9.7225e-12
1.06828e-05
-1.00385e-11
1.06828e-05
-1.07169e-11
1.06828e-05
-1.17037e-11
1.06828e-05
-1.25567e-11
-1.2754e-11
1.08672e-05
1.5068e-11
1.08672e-05
1.5008e-11
1.08672e-05
1.47352e-11
1.08672e-05
1.35755e-11
1.08672e-05
1.18712e-11
1.08672e-05
9.07898e-12
1.08672e-05
5.77602e-12
1.08672e-05
2.178e-12
1.08672e-05
-1.40213e-12
1.08671e-05
-5.07866e-12
1.08671e-05
-8.49016e-12
1.08671e-05
-1.10083e-11
1.08671e-05
-1.2475e-11
1.08671e-05
-1.30827e-11
1.08671e-05
-1.32287e-11
1.08671e-05
-1.3666e-11
1.08671e-05
-1.45991e-11
1.08671e-05
-1.56936e-11
1.08671e-05
-1.71427e-11
1.08671e-05
-1.93569e-11
1.08671e-05
-2.25808e-11
1.08671e-05
-2.70406e-11
1.08671e-05
-3.27835e-11
1.08671e-05
-3.95991e-11
1.08671e-05
-4.73979e-11
1.08671e-05
-5.62139e-11
1.08671e-05
-6.57765e-11
1.08671e-05
-7.56371e-11
1.08671e-05
-8.53832e-11
1.08671e-05
-9.43498e-11
1.08671e-05
-1.0182e-10
1.08671e-05
-1.074e-10
1.08671e-05
-1.10531e-10
1.08671e-05
-1.10274e-10
1.08671e-05
-1.05881e-10
1.08671e-05
-9.68579e-11
1.08671e-05
-8.28133e-11
1.08671e-05
-6.37196e-11
1.08671e-05
-3.98451e-11
1.08671e-05
-1.15229e-11
1.08671e-05
2.05844e-11
1.08671e-05
5.534e-11
1.08671e-05
9.13583e-11
1.08671e-05
1.27112e-10
1.08671e-05
1.61072e-10
1.08671e-05
1.91779e-10
1.08671e-05
2.17542e-10
1.08671e-05
2.36448e-10
1.08671e-05
2.46879e-10
1.08671e-05
2.47748e-10
1.08671e-05
2.38507e-10
1.08671e-05
2.19225e-10
1.08671e-05
1.90461e-10
1.08671e-05
1.53077e-10
1.08671e-05
1.08429e-10
1.08671e-05
5.85199e-11
1.08671e-05
5.85143e-12
1.08671e-05
-4.68088e-11
1.08671e-05
-9.67038e-11
1.08671e-05
-1.41342e-10
1.08671e-05
-1.78529e-10
1.08671e-05
-2.06434e-10
1.08671e-05
-2.23756e-10
1.08671e-05
-2.29911e-10
1.08671e-05
-2.2519e-10
1.08671e-05
-2.10707e-10
1.08671e-05
-1.88063e-10
1.08671e-05
-1.5908e-10
1.08671e-05
-1.25753e-10
1.08671e-05
-9.02021e-11
1.08671e-05
-5.45122e-11
1.08671e-05
-2.04817e-11
1.08671e-05
1.06247e-11
1.08671e-05
3.81081e-11
1.08671e-05
6.16758e-11
1.08671e-05
8.12985e-11
1.08671e-05
9.71746e-11
1.08671e-05
1.09717e-10
1.08671e-05
1.19457e-10
1.08671e-05
1.26847e-10
1.08671e-05
1.32088e-10
1.08671e-05
1.35036e-10
1.08671e-05
1.35206e-10
1.08671e-05
1.31897e-10
1.08671e-05
1.24383e-10
1.08671e-05
1.12026e-10
1.08671e-05
9.43356e-11
1.08671e-05
7.10466e-11
1.08671e-05
4.2243e-11
1.08671e-05
8.51105e-12
1.08671e-05
-2.89234e-11
1.08671e-05
-6.82503e-11
1.08671e-05
-1.07382e-10
1.08671e-05
-1.44215e-10
1.08671e-05
-1.76655e-10
1.08671e-05
-2.02604e-10
1.08671e-05
-2.20173e-10
1.08671e-05
-2.28041e-10
1.08671e-05
-2.25615e-10
1.08671e-05
-2.12933e-10
1.08671e-05
-1.90581e-10
1.08671e-05
-1.59685e-10
1.08671e-05
-1.2181e-10
1.08671e-05
-7.88208e-11
1.08671e-05
-3.28916e-11
1.08671e-05
1.35888e-11
1.08671e-05
5.83456e-11
1.08671e-05
9.941e-11
1.08671e-05
1.35045e-10
1.08671e-05
1.63814e-10
1.08671e-05
1.84793e-10
1.08671e-05
1.97542e-10
1.08671e-05
2.01975e-10
1.08671e-05
1.98468e-10
1.08671e-05
1.87916e-10
1.08671e-05
1.7147e-10
1.08671e-05
1.50303e-10
1.08671e-05
1.25701e-10
1.08671e-05
9.91539e-11
1.08671e-05
7.21652e-11
1.08671e-05
4.59637e-11
1.08671e-05
2.14519e-11
1.08671e-05
-6.04178e-13
1.08671e-05
-1.95734e-11
1.08671e-05
-3.51453e-11
1.08671e-05
-4.72175e-11
1.08671e-05
-5.57108e-11
1.08671e-05
-6.08214e-11
1.08671e-05
-6.30189e-11
1.08671e-05
-6.2724e-11
1.08671e-05
-6.03405e-11
1.08671e-05
-5.64024e-11
1.08671e-05
-5.14621e-11
1.08671e-05
-4.5904e-11
1.08671e-05
-4.0007e-11
1.08671e-05
-3.41119e-11
1.08671e-05
-2.84706e-11
1.08671e-05
-2.31384e-11
1.08671e-05
-1.81421e-11
1.08671e-05
-1.37174e-11
1.08671e-05
-1.01484e-11
1.08671e-05
-7.37942e-12
1.08671e-05