/*--------------------------------*- C++ -*----------------------------------*\
| =========                 |                                                 |
| \\      /  F ield         | OpenFOAM: The Open Source CFD Toolbox           |
|  \\    /   O peration     | Version:  2406                                  |
|   \\  /    A nd           | Website:  www.openfoam.com                      |
|    \\/     M anipulation  |                                                 |
\*---------------------------------------------------------------------------*/
FoamFile
{
    version     2.0;
    format      ascii;
    arch        "LSB;label=32;scalar=64";
    class       volVectorField;
    location    "0.2";
    object      U;
}
// * * * * * * * * * * * * * * * * * * * * * * * * * * * * * * * * * * * * * //

dimensions      [0 1 -1 0 0 0 0];

internalField   nonuniform List<vector> 
2250
(
(0.0224617 -2.40307e-08 0)
(0.0224618 -2.10283e-08 0)
(0.0224618 -1.97738e-08 0)
(0.0224619 -2.05187e-08 0)
(0.0224619 -1.56824e-08 0)
(0.022462 -1.40526e-08 0)
(0.022462 -1.82858e-08 0)
(0.022462 -1.48659e-08 0)
(0.0224621 -8.64417e-09 0)
(0.0224621 -9.50563e-09 0)
(0.0224621 -1.2259e-08 0)
(0.0224622 -1.21864e-08 0)
(0.0224622 -1.03614e-08 0)
(0.0224622 -7.19392e-09 0)
(0.0224622 -2.92108e-09 0)
(0.0224623 1.77444e-09 0)
(0.0224623 2.62334e-09 0)
(0.0224623 -4.10626e-10 0)
(0.0224623 -4.34751e-09 0)
(0.0224623 -6.13528e-09 0)
(0.0224623 -2.89938e-09 0)
(0.0224623 1.97975e-09 0)
(0.0224623 1.69083e-09 0)
(0.0224623 -3.16247e-09 0)
(0.0224624 -7.53789e-09 0)
(0.0224624 -9.90622e-09 0)
(0.0224624 -1.07344e-08 0)
(0.0224625 -1.12305e-08 0)
(0.0224625 -1.38971e-08 0)
(0.0224626 -1.86515e-08 0)
(0.0224626 -2.23374e-08 0)
(0.0224627 -2.42443e-08 0)
(0.0224628 -2.60577e-08 0)
(0.0224629 -2.79301e-08 0)
(0.022463 -2.93266e-08 0)
(0.0224631 -2.94275e-08 0)
(0.0224631 -2.65121e-08 0)
(0.0224632 -2.09225e-08 0)
(0.0224632 -1.44489e-08 0)
(0.0224633 -6.72808e-09 0)
(0.0224633 2.33209e-09 0)
(0.0224633 1.12069e-08 0)
(0.0224632 2.03841e-08 0)
(0.0224631 3.09578e-08 0)
(0.022463 4.0876e-08 0)
(0.0224629 4.80676e-08 0)
(0.0224627 5.32516e-08 0)
(0.0224626 5.76993e-08 0)
(0.0224624 6.19845e-08 0)
(0.0224622 6.54947e-08 0)
(0.022462 6.56549e-08 0)
(0.0224618 6.04271e-08 0)
(0.0224616 5.08507e-08 0)
(0.0224615 3.95249e-08 0)
(0.0224614 2.81829e-08 0)
(0.0224613 1.63796e-08 0)
(0.0224613 2.20131e-09 0)
(0.0224613 -1.46063e-08 0)
(0.0224614 -3.13233e-08 0)
(0.0224615 -4.49502e-08 0)
(0.0224616 -5.42868e-08 0)
(0.0224618 -5.99192e-08 0)
(0.022462 -6.34895e-08 0)
(0.0224622 -6.59323e-08 0)
(0.0224624 -6.58916e-08 0)
(0.0224625 -6.12698e-08 0)
(0.0224627 -5.20154e-08 0)
(0.0224628 -4.06269e-08 0)
(0.022463 -3.00628e-08 0)
(0.022463 -2.11834e-08 0)
(0.0224631 -1.25695e-08 0)
(0.0224631 -2.95203e-09 0)
(0.0224631 6.84554e-09 0)
(0.0224631 1.45718e-08 0)
(0.0224631 1.88999e-08 0)
(0.022463 2.11218e-08 0)
(0.022463 2.38046e-08 0)
(0.0224629 2.77794e-08 0)
(0.0224628 3.14866e-08 0)
(0.0224627 3.3294e-08 0)
(0.0224626 3.3451e-08 0)
(0.0224625 3.36344e-08 0)
(0.0224624 3.50338e-08 0)
(0.0224623 3.70306e-08 0)
(0.0224622 3.76612e-08 0)
(0.0224621 3.52429e-08 0)
(0.022462 2.97292e-08 0)
(0.022462 2.267e-08 0)
(0.0224619 1.55432e-08 0)
(0.0224619 8.13999e-09 0)
(0.0224619 -9.80686e-10 0)
(0.0224619 -1.27479e-08 0)
(0.022462 -2.58759e-08 0)
(0.022462 -3.75681e-08 0)
(0.0224622 -4.5855e-08 0)
(0.0224623 -5.12709e-08 0)
(0.0224625 -5.55949e-08 0)
(0.0224627 -5.91685e-08 0)
(0.0224628 -6.02967e-08 0)
(0.022463 -5.72082e-08 0)
(0.0224632 -5.00706e-08 0)
(0.0224633 -4.09917e-08 0)
(0.0224634 -3.19607e-08 0)
(0.0224635 -2.28619e-08 0)
(0.0224636 -1.21342e-08 0)
(0.0224636 7.19584e-10 0)
(0.0224635 1.42816e-08 0)
(0.0224635 2.64793e-08 0)
(0.0224634 3.60775e-08 0)
(0.0224633 4.2926e-08 0)
(0.0224631 4.75923e-08 0)
(0.022463 5.06615e-08 0)
(0.0224628 5.1996e-08 0)
(0.0224627 5.06914e-08 0)
(0.0224625 4.60845e-08 0)
(0.0224624 3.91312e-08 0)
(0.0224623 3.21683e-08 0)
(0.0224622 2.64253e-08 0)
(0.0224621 2.06311e-08 0)
(0.022462 1.32127e-08 0)
(0.022462 4.74658e-09 0)
(0.022462 -2.66532e-09 0)
(0.022462 -7.53727e-09 0)
(0.022462 -1.04099e-08 0)
(0.022462 -1.28332e-08 0)
(0.0224621 -1.57538e-08 0)
(0.0224621 -1.80136e-08 0)
(0.0224622 -1.82829e-08 0)
(0.0224622 -1.70794e-08 0)
(0.0224623 -1.5075e-08 0)
(0.0224623 -1.2372e-08 0)
(0.0224624 -9.74665e-09 0)
(0.0224624 -7.70528e-09 0)
(0.0224624 -5.88844e-09 0)
(0.0224625 -4.6328e-09 0)
(0.0224625 -4.53844e-09 0)
(0.0224625 -5.13466e-09 0)
(0.0224626 -5.77429e-09 0)
(0.0224626 -6.13206e-09 0)
(0.0224626 -6.08764e-09 0)
(0.0224626 -5.93409e-09 0)
(0.0224626 -5.98306e-09 0)
(0.0224627 -5.97572e-09 0)
(0.0224627 -5.82304e-09 0)
(0.0224627 -5.59057e-09 0)
(0.0224627 -4.42109e-09 0)
(0.0224627 -3.95261e-09 0)
(0.0224628 -6.73337e-09 0)
(0.0224628 -1.31675e-08 0)
(0.0224629 -2.32516e-08 0)
(0.0607147 -1.0225e-07 0)
(0.0607147 -9.34267e-08 0)
(0.0607148 -8.4155e-08 0)
(0.060715 -8.79764e-08 0)
(0.060715 -9.18511e-08 0)
(0.0607151 -8.44162e-08 0)
(0.0607152 -8.33818e-08 0)
(0.0607153 -7.75972e-08 0)
(0.0607154 -6.82786e-08 0)
(0.0607155 -6.97833e-08 0)
(0.0607155 -7.1178e-08 0)
(0.0607156 -6.42698e-08 0)
(0.0607157 -5.34062e-08 0)
(0.0607157 -3.98366e-08 0)
(0.0607158 -2.68938e-08 0)
(0.0607159 -1.55962e-08 0)
(0.0607159 -1.33218e-08 0)
(0.0607159 -1.80188e-08 0)
(0.0607159 -2.21601e-08 0)
(0.060716 -2.3009e-08 0)
(0.060716 -1.96894e-08 0)
(0.0607161 -1.63601e-08 0)
(0.0607161 -2.29012e-08 0)
(0.0607162 -3.9456e-08 0)
(0.0607162 -5.68158e-08 0)
(0.0607163 -7.13622e-08 0)
(0.0607164 -8.39688e-08 0)
(0.0607165 -9.57837e-08 0)
(0.0607167 -1.10293e-07 0)
(0.0607169 -1.28406e-07 0)
(0.060717 -1.44835e-07 0)
(0.0607173 -1.56339e-07 0)
(0.0607175 -1.64194e-07 0)
(0.0607177 -1.6765e-07 0)
(0.0607179 -1.65441e-07 0)
(0.0607181 -1.57541e-07 0)
(0.0607183 -1.40797e-07 0)
(0.0607185 -1.12569e-07 0)
(0.0607186 -7.46304e-08 0)
(0.0607186 -2.83636e-08 0)
(0.0607187 2.4008e-08 0)
(0.0607186 7.68304e-08 0)
(0.0607185 1.28689e-07 0)
(0.0607183 1.83055e-07 0)
(0.060718 2.38145e-07 0)
(0.0607176 2.87264e-07 0)
(0.0607172 3.26442e-07 0)
(0.0607167 3.54818e-07 0)
(0.0607163 3.72634e-07 0)
(0.0607158 3.79695e-07 0)
(0.0607153 3.72211e-07 0)
(0.0607148 3.45082e-07 0)
(0.0607144 2.98274e-07 0)
(0.060714 2.36851e-07 0)
(0.0607138 1.66515e-07 0)
(0.0607136 9.03355e-08 0)
(0.0607135 7.97566e-09 0)
(0.0607136 -7.95221e-08 0)
(0.0607137 -1.65254e-07 0)
(0.060714 -2.40056e-07 0)
(0.0607144 -2.97853e-07 0)
(0.0607148 -3.3694e-07 0)
(0.0607152 -3.59263e-07 0)
(0.0607157 -3.67729e-07 0)
(0.0607162 -3.62112e-07 0)
(0.0607166 -3.39383e-07 0)
(0.0607171 -2.98822e-07 0)
(0.0607174 -2.4537e-07 0)
(0.0607177 -1.87708e-07 0)
(0.0607179 -1.32544e-07 0)
(0.0607181 -8.07276e-08 0)
(0.0607181 -2.98346e-08 0)
(0.0607181 2.04116e-08 0)
(0.0607181 6.59919e-08 0)
(0.060718 1.01712e-07 0)
(0.0607178 1.26588e-07 0)
(0.0607177 1.4518e-07 0)
(0.0607175 1.62654e-07 0)
(0.0607172 1.79796e-07 0)
(0.060717 1.93815e-07 0)
(0.0607167 2.02522e-07 0)
(0.0607165 2.066e-07 0)
(0.0607162 2.08179e-07 0)
(0.0607159 2.0778e-07 0)
(0.0607157 2.02896e-07 0)
(0.0607154 1.89292e-07 0)
(0.0607152 1.63876e-07 0)
(0.060715 1.26936e-07 0)
(0.0607149 8.15224e-08 0)
(0.0607148 3.03244e-08 0)
(0.0607149 -2.63914e-08 0)
(0.0607149 -8.93944e-08 0)
(0.0607151 -1.56738e-07 0)
(0.0607154 -2.21898e-07 0)
(0.0607157 -2.76492e-07 0)
(0.0607161 -3.15757e-07 0)
(0.0607165 -3.40419e-07 0)
(0.060717 -3.52747e-07 0)
(0.0607175 -3.52184e-07 0)
(0.0607179 -3.35586e-07 0)
(0.0607183 -3.01123e-07 0)
(0.0607187 -2.51315e-07 0)
(0.060719 -1.91741e-07 0)
(0.0607192 -1.2666e-07 0)
(0.0607193 -5.71851e-08 0)
(0.0607193 1.57091e-08 0)
(0.0607193 8.83204e-08 0)
(0.0607191 1.55172e-07 0)
(0.0607189 2.11661e-07 0)
(0.0607186 2.55177e-07 0)
(0.0607182 2.85081e-07 0)
(0.0607178 3.02151e-07 0)
(0.0607174 3.07365e-07 0)
(0.060717 3.00681e-07 0)
(0.0607166 2.81238e-07 0)
(0.0607162 2.49984e-07 0)
(0.0607159 2.11753e-07 0)
(0.0607157 1.72359e-07 0)
(0.0607154 1.3369e-07 0)
(0.0607153 9.42168e-08 0)
(0.0607152 5.36015e-08 0)
(0.0607151 1.44797e-08 0)
(0.0607151 -1.94926e-08 0)
(0.0607152 -4.62382e-08 0)
(0.0607152 -6.64757e-08 0)
(0.0607153 -8.26232e-08 0)
(0.0607154 -9.44034e-08 0)
(0.0607156 -9.95867e-08 0)
(0.0607157 -9.87717e-08 0)
(0.0607158 -9.40263e-08 0)
(0.060716 -8.62268e-08 0)
(0.0607161 -7.68642e-08 0)
(0.0607162 -6.77249e-08 0)
(0.0607163 -5.90754e-08 0)
(0.0607164 -5.15156e-08 0)
(0.0607164 -4.62431e-08 0)
(0.0607165 -4.27757e-08 0)
(0.0607166 -4.0568e-08 0)
(0.0607167 -4.00757e-08 0)
(0.0607167 -4.09728e-08 0)
(0.0607168 -4.25557e-08 0)
(0.0607168 -4.44386e-08 0)
(0.0607169 -4.56079e-08 0)
(0.0607169 -4.55584e-08 0)
(0.060717 -4.57529e-08 0)
(0.0607171 -4.58302e-08 0)
(0.0607171 -4.60533e-08 0)
(0.0607172 -5.0313e-08 0)
(0.0607173 -6.28409e-08 0)
(0.0607174 -8.65195e-08 0)
(0.0925585 -1.84848e-07 0)
(0.0925585 -1.91332e-07 0)
(0.0925586 -1.92074e-07 0)
(0.0925587 -1.8597e-07 0)
(0.0925588 -1.94779e-07 0)
(0.0925589 -1.91463e-07 0)
(0.092559 -1.83595e-07 0)
(0.0925591 -1.88167e-07 0)
(0.0925592 -1.87727e-07 0)
(0.0925593 -1.82758e-07 0)
(0.0925593 -1.68499e-07 0)
(0.0925594 -1.50963e-07 0)
(0.0925595 -1.28025e-07 0)
(0.0925596 -1.04727e-07 0)
(0.0925597 -8.66836e-08 0)
(0.0925597 -7.27038e-08 0)
(0.0925598 -6.51091e-08 0)
(0.0925598 -6.05948e-08 0)
(0.0925599 -5.43562e-08 0)
(0.0925599 -5.19428e-08 0)
(0.09256 -5.95804e-08 0)
(0.0925601 -7.42868e-08 0)
(0.0925601 -9.59044e-08 0)
(0.0925602 -1.26329e-07 0)
(0.0925603 -1.60723e-07 0)
(0.0925605 -1.96909e-07 0)
(0.0925606 -2.37421e-07 0)
(0.0925608 -2.80096e-07 0)
(0.092561 -3.20973e-07 0)
(0.0925613 -3.59925e-07 0)
(0.0925616 -3.95571e-07 0)
(0.0925619 -4.24036e-07 0)
(0.0925622 -4.42583e-07 0)
(0.0925625 -4.46889e-07 0)
(0.0925628 -4.32697e-07 0)
(0.0925631 -4.00529e-07 0)
(0.0925633 -3.49457e-07 0)
(0.0925636 -2.7517e-07 0)
(0.0925637 -1.77794e-07 0)
(0.0925638 -6.06479e-08 0)
(0.0925638 7.26401e-08 0)
(0.0925637 2.13784e-07 0)
(0.0925635 3.54878e-07 0)
(0.0925632 4.95602e-07 0)
(0.0925628 6.35115e-07 0)
(0.0925623 7.64634e-07 0)
(0.0925617 8.72764e-07 0)
(0.0925611 9.5027e-07 0)
(0.0925604 9.91535e-07 0)
(0.0925597 9.95845e-07 0)
(0.092559 9.63356e-07 0)
(0.0925584 8.91218e-07 0)
(0.0925578 7.77074e-07 0)
(0.0925573 6.22901e-07 0)
(0.0925569 4.35696e-07 0)
(0.0925567 2.2696e-07 0)
(0.0925566 8.66016e-09 0)
(0.0925567 -2.09393e-07 0)
(0.0925569 -4.16837e-07 0)
(0.0925572 -6.02104e-07 0)
(0.0925577 -7.54856e-07 0)
(0.0925583 -8.6668e-07 0)
(0.0925589 -9.32344e-07 0)
(0.0925595 -9.51875e-07 0)
(0.0925602 -9.28997e-07 0)
(0.0925608 -8.67698e-07 0)
(0.0925614 -7.71692e-07 0)
(0.0925619 -6.46689e-07 0)
(0.0925623 -5.02797e-07 0)
(0.0925626 -3.53353e-07 0)
(0.0925628 -2.09487e-07 0)
(0.0925629 -7.62065e-08 0)
(0.0925629 4.62597e-08 0)
(0.0925629 1.57753e-07 0)
(0.0925627 2.5484e-07 0)
(0.0925625 3.32752e-07 0)
(0.0925623 3.90978e-07 0)
(0.092562 4.35008e-07 0)
(0.0925617 4.71738e-07 0)
(0.0925613 5.04248e-07 0)
(0.0925609 5.30755e-07 0)
(0.0925606 5.47381e-07 0)
(0.0925602 5.51312e-07 0)
(0.0925598 5.41508e-07 0)
(0.0925594 5.16971e-07 0)
(0.0925591 4.74717e-07 0)
(0.0925588 4.09636e-07 0)
(0.0925586 3.17356e-07 0)
(0.0925584 1.97992e-07 0)
(0.0925583 5.69907e-08 0)
(0.0925584 -9.7892e-08 0)
(0.0925585 -2.59806e-07 0)
(0.0925587 -4.23365e-07 0)
(0.0925591 -5.81455e-07 0)
(0.0925596 -7.22404e-07 0)
(0.0925601 -8.32568e-07 0)
(0.0925607 -9.0278e-07 0)
(0.0925614 -9.31361e-07 0)
(0.092562 -9.20827e-07 0)
(0.0925626 -8.72761e-07 0)
(0.0925632 -7.86293e-07 0)
(0.0925637 -6.61509e-07 0)
(0.0925641 -5.03829e-07 0)
(0.0925644 -3.23931e-07 0)
(0.0925646 -1.33586e-07 0)
(0.0925646 5.72593e-08 0)
(0.0925645 2.40154e-07 0)
(0.0925643 4.07422e-07 0)
(0.092564 5.52149e-07 0)
(0.0925635 6.68205e-07 0)
(0.092563 7.50709e-07 0)
(0.0925625 7.97295e-07 0)
(0.0925619 8.09093e-07 0)
(0.0925614 7.90062e-07 0)
(0.0925608 7.44207e-07 0)
(0.0925603 6.73885e-07 0)
(0.0925599 5.82603e-07 0)
(0.0925595 4.78065e-07 0)
(0.0925592 3.69444e-07 0)
(0.0925589 2.62553e-07 0)
(0.0925588 1.59498e-07 0)
(0.0925587 6.15599e-08 0)
(0.0925587 -2.86973e-08 0)
(0.0925587 -1.06473e-07 0)
(0.0925588 -1.67073e-07 0)
(0.0925589 -2.10061e-07 0)
(0.0925591 -2.37787e-07 0)
(0.0925592 -2.51738e-07 0)
(0.0925594 -2.54343e-07 0)
(0.0925596 -2.48976e-07 0)
(0.0925598 -2.36797e-07 0)
(0.0925599 -2.18728e-07 0)
(0.0925601 -1.97797e-07 0)
(0.0925602 -1.76708e-07 0)
(0.0925604 -1.56954e-07 0)
(0.0925605 -1.40211e-07 0)
(0.0925606 -1.26877e-07 0)
(0.0925607 -1.16447e-07 0)
(0.0925608 -1.10381e-07 0)
(0.0925608 -1.09527e-07 0)
(0.0925609 -1.12281e-07 0)
(0.092561 -1.16465e-07 0)
(0.0925611 -1.19931e-07 0)
(0.0925611 -1.21822e-07 0)
(0.0925612 -1.2481e-07 0)
(0.0925613 -1.29114e-07 0)
(0.0925614 -1.32186e-07 0)
(0.0925615 -1.34922e-07 0)
(0.0925615 -1.46244e-07 0)
(0.0925617 -1.69047e-07 0)
(0.118237 -2.17304e-07 0)
(0.118237 -2.37725e-07 0)
(0.118237 -2.60033e-07 0)
(0.118237 -2.60587e-07 0)
(0.118237 -2.65809e-07 0)
(0.118237 -2.77288e-07 0)
(0.118237 -2.85547e-07 0)
(0.118237 -2.91145e-07 0)
(0.118237 -2.86443e-07 0)
(0.118237 -2.77595e-07 0)
(0.118238 -2.57447e-07 0)
(0.118238 -2.35815e-07 0)
(0.118238 -2.08877e-07 0)
(0.118238 -1.82588e-07 0)
(0.118238 -1.64019e-07 0)
(0.118238 -1.46485e-07 0)
(0.118238 -1.29849e-07 0)
(0.118238 -1.17601e-07 0)
(0.118238 -1.08438e-07 0)
(0.118238 -1.07321e-07 0)
(0.118238 -1.23412e-07 0)
(0.118238 -1.54131e-07 0)
(0.118238 -1.93178e-07 0)
(0.118238 -2.41445e-07 0)
(0.118239 -2.98888e-07 0)
(0.118239 -3.63534e-07 0)
(0.118239 -4.36292e-07 0)
(0.118239 -5.1395e-07 0)
(0.118239 -5.88372e-07 0)
(0.11824 -6.55817e-07 0)
(0.11824 -7.14826e-07 0)
(0.11824 -7.60159e-07 0)
(0.118241 -7.86975e-07 0)
(0.118241 -7.90332e-07 0)
(0.118241 -7.62323e-07 0)
(0.118242 -6.99395e-07 0)
(0.118242 -6.02252e-07 0)
(0.118242 -4.68684e-07 0)
(0.118242 -2.98709e-07 0)
(0.118242 -9.75783e-08 0)
(0.118242 1.308e-07 0)
(0.118242 3.8076e-07 0)
(0.118242 6.3995e-07 0)
(0.118242 8.96621e-07 0)
(0.118241 1.14202e-06 0)
(0.118241 1.36453e-06 0)
(0.11824 1.55052e-06 0)
(0.118239 1.68717e-06 0)
(0.118239 1.76243e-06 0)
(0.118238 1.7686e-06 0)
(0.118237 1.704e-06 0)
(0.118236 1.56892e-06 0)
(0.118236 1.36472e-06 0)
(0.118235 1.09561e-06 0)
(0.118235 7.69921e-07 0)
(0.118235 4.03155e-07 0)
(0.118234 1.75284e-08 0)
(0.118235 -3.64773e-07 0)
(0.118235 -7.24312e-07 0)
(0.118235 -1.04416e-06 0)
(0.118236 -1.31037e-06 0)
(0.118236 -1.51091e-06 0)
(0.118237 -1.63481e-06 0)
(0.118238 -1.67578e-06 0)
(0.118238 -1.63583e-06 0)
(0.118239 -1.52452e-06 0)
(0.11824 -1.3553e-06 0)
(0.11824 -1.14173e-06 0)
(0.118241 -8.97004e-07 0)
(0.118241 -6.36276e-07 0)
(0.118241 -3.76531e-07 0)
(0.118241 -1.32671e-07 0)
(0.118241 8.63523e-08 0)
(0.118241 2.78329e-07 0)
(0.118241 4.44153e-07 0)
(0.118241 5.83391e-07 0)
(0.118241 6.9474e-07 0)
(0.11824 7.79986e-07 0)
(0.11824 8.45067e-07 0)
(0.11824 8.9666e-07 0)
(0.118239 9.37707e-07 0)
(0.118239 9.65686e-07 0)
(0.118238 9.74328e-07 0)
(0.118238 9.56766e-07 0)
(0.118238 9.07681e-07 0)
(0.118237 8.23512e-07 0)
(0.118237 7.01081e-07 0)
(0.118237 5.36922e-07 0)
(0.118236 3.296e-07 0)
(0.118236 8.31223e-08 0)
(0.118236 -1.91791e-07 0)
(0.118236 -4.79835e-07 0)
(0.118237 -7.651e-07 0)
(0.118237 -1.03351e-06 0)
(0.118238 -1.2713e-06 0)
(0.118238 -1.46277e-06 0)
(0.118239 -1.59228e-06 0)
(0.11824 -1.64922e-06 0)
(0.11824 -1.63068e-06 0)
(0.118241 -1.53954e-06 0)
(0.118242 -1.38063e-06 0)
(0.118242 -1.15922e-06 0)
(0.118243 -8.83709e-07 0)
(0.118243 -5.68338e-07 0)
(0.118243 -2.31973e-07 0)
(0.118243 1.0584e-07 0)
(0.118243 4.27856e-07 0)
(0.118243 7.20401e-07 0)
(0.118243 9.73023e-07 0)
(0.118242 1.17697e-06 0)
(0.118242 1.32464e-06 0)
(0.118241 1.41112e-06 0)
(0.11824 1.43588e-06 0)
(0.11824 1.40362e-06 0)
(0.118239 1.323e-06 0)
(0.118238 1.20269e-06 0)
(0.118238 1.04939e-06 0)
(0.118238 8.70641e-07 0)
(0.118237 6.77616e-07 0)
(0.118237 4.8248e-07 0)
(0.118237 2.94661e-07 0)
(0.118237 1.20212e-07 0)
(0.118237 -3.69128e-08 0)
(0.118237 -1.72493e-07 0)
(0.118237 -2.81262e-07 0)
(0.118237 -3.60664e-07 0)
(0.118237 -4.12984e-07 0)
(0.118237 -4.41408e-07 0)
(0.118237 -4.49435e-07 0)
(0.118238 -4.42515e-07 0)
(0.118238 -4.24532e-07 0)
(0.118238 -3.96767e-07 0)
(0.118238 -3.62077e-07 0)
(0.118238 -3.25384e-07 0)
(0.118238 -2.89985e-07 0)
(0.118239 -2.57966e-07 0)
(0.118239 -2.31523e-07 0)
(0.118239 -2.1094e-07 0)
(0.118239 -1.9642e-07 0)
(0.118239 -1.88764e-07 0)
(0.118239 -1.8714e-07 0)
(0.118239 -1.90209e-07 0)
(0.118239 -1.95848e-07 0)
(0.118239 -2.00945e-07 0)
(0.118239 -2.06023e-07 0)
(0.118239 -2.11978e-07 0)
(0.118239 -2.17258e-07 0)
(0.118239 -2.21001e-07 0)
(0.11824 -2.27716e-07 0)
(0.11824 -2.43358e-07 0)
(0.137966 -1.99832e-07 0)
(0.137966 -2.17275e-07 0)
(0.137966 -2.42302e-07 0)
(0.137966 -2.65914e-07 0)
(0.137966 -2.84396e-07 0)
(0.137966 -3.01397e-07 0)
(0.137966 -3.17368e-07 0)
(0.137966 -3.2346e-07 0)
(0.137966 -3.24502e-07 0)
(0.137966 -3.22537e-07 0)
(0.137966 -3.10603e-07 0)
(0.137966 -2.91644e-07 0)
(0.137966 -2.72882e-07 0)
(0.137966 -2.53372e-07 0)
(0.137966 -2.34912e-07 0)
(0.137966 -2.13693e-07 0)
(0.137966 -1.90956e-07 0)
(0.137966 -1.7659e-07 0)
(0.137966 -1.72498e-07 0)
(0.137966 -1.78029e-07 0)
(0.137966 -1.99771e-07 0)
(0.137967 -2.4013e-07 0)
(0.137967 -2.95207e-07 0)
(0.137967 -3.64986e-07 0)
(0.137967 -4.49635e-07 0)
(0.137967 -5.44349e-07 0)
(0.137967 -6.46349e-07 0)
(0.137967 -7.53899e-07 0)
(0.137968 -8.59596e-07 0)
(0.137968 -9.55555e-07 0)
(0.137968 -1.03701e-06 0)
(0.137969 -1.09681e-06 0)
(0.137969 -1.12784e-06 0)
(0.137969 -1.12598e-06 0)
(0.13797 -1.08383e-06 0)
(0.13797 -9.9316e-07 0)
(0.13797 -8.51673e-07 0)
(0.13797 -6.58664e-07 0)
(0.13797 -4.14754e-07 0)
(0.13797 -1.26762e-07 0)
(0.13797 1.97891e-07 0)
(0.13797 5.53561e-07 0)
(0.13797 9.27848e-07 0)
(0.13797 1.30137e-06 0)
(0.137969 1.65483e-06 0)
(0.137969 1.97001e-06 0)
(0.137968 2.23049e-06 0)
(0.137968 2.42246e-06 0)
(0.137967 2.53113e-06 0)
(0.137966 2.54215e-06 0)
(0.137966 2.44798e-06 0)
(0.137965 2.24851e-06 0)
(0.137964 1.94939e-06 0)
(0.137964 1.5616e-06 0)
(0.137963 1.09961e-06 0)
(0.137963 5.8217e-07 0)
(0.137963 3.54069e-08 0)
(0.137963 -5.10239e-07 0)
(0.137963 -1.02562e-06 0)
(0.137964 -1.4845e-06 0)
(0.137964 -1.86528e-06 0)
(0.137965 -2.15162e-06 0)
(0.137965 -2.33075e-06 0)
(0.137966 -2.39445e-06 0)
(0.137967 -2.34274e-06 0)
(0.137967 -2.18597e-06 0)
(0.137968 -1.94344e-06 0)
(0.137968 -1.63824e-06 0)
(0.137969 -1.29193e-06 0)
(0.137969 -9.2382e-07 0)
(0.137969 -5.53132e-07 0)
(0.137969 -1.98999e-07 0)
(0.137969 1.22345e-07 0)
(0.137969 4.01659e-07 0)
(0.137969 6.38132e-07 0)
(0.137969 8.35555e-07 0)
(0.137969 9.97488e-07 0)
(0.137968 1.1265e-06 0)
(0.137968 1.22606e-06 0)
(0.137968 1.30098e-06 0)
(0.137967 1.35514e-06 0)
(0.137967 1.38838e-06 0)
(0.137967 1.39543e-06 0)
(0.137966 1.36736e-06 0)
(0.137966 1.29441e-06 0)
(0.137965 1.16901e-06 0)
(0.137965 9.87165e-07 0)
(0.137965 7.47631e-07 0)
(0.137965 4.51434e-07 0)
(0.137965 1.03404e-07 0)
(0.137965 -2.85246e-07 0)
(0.137965 -6.95792e-07 0)
(0.137965 -1.10412e-06 0)
(0.137966 -1.4858e-06 0)
(0.137966 -1.8199e-06 0)
(0.137967 -2.08834e-06 0)
(0.137967 -2.27378e-06 0)
(0.137968 -2.36063e-06 0)
(0.137968 -2.33902e-06 0)
(0.137969 -2.20805e-06 0)
(0.13797 -1.97521e-06 0)
(0.13797 -1.65328e-06 0)
(0.137971 -1.25839e-06 0)
(0.137971 -8.10476e-07 0)
(0.137971 -3.33077e-07 0)
(0.137971 1.48734e-07 0)
(0.137971 6.1062e-07 0)
(0.137971 1.0312e-06 0)
(0.13797 1.3938e-06 0)
(0.13797 1.68608e-06 0)
(0.13797 1.89881e-06 0)
(0.137969 2.02636e-06 0)
(0.137968 2.06774e-06 0)
(0.137968 2.02689e-06 0)
(0.137967 1.913e-06 0)
(0.137967 1.73949e-06 0)
(0.137966 1.52021e-06 0)
(0.137966 1.26723e-06 0)
(0.137966 9.92842e-07 0)
(0.137965 7.11369e-07 0)
(0.137965 4.37701e-07 0)
(0.137965 1.8431e-07 0)
(0.137965 -4.06727e-08 0)
(0.137965 -2.32837e-07 0)
(0.137965 -3.88371e-07 0)
(0.137965 -5.04813e-07 0)
(0.137965 -5.84482e-07 0)
(0.137965 -6.31548e-07 0)
(0.137966 -6.49135e-07 0)
(0.137966 -6.4245e-07 0)
(0.137966 -6.18193e-07 0)
(0.137966 -5.80612e-07 0)
(0.137966 -5.32617e-07 0)
(0.137966 -4.79081e-07 0)
(0.137967 -4.2535e-07 0)
(0.137967 -3.7505e-07 0)
(0.137967 -3.31585e-07 0)
(0.137967 -2.96717e-07 0)
(0.137967 -2.70228e-07 0)
(0.137967 -2.52196e-07 0)
(0.137967 -2.42162e-07 0)
(0.137967 -2.39502e-07 0)
(0.137967 -2.429e-07 0)
(0.137967 -2.48406e-07 0)
(0.137967 -2.52884e-07 0)
(0.137967 -2.59195e-07 0)
(0.137967 -2.64335e-07 0)
(0.137967 -2.68897e-07 0)
(0.137967 -2.72398e-07 0)
(0.137967 -2.82082e-07 0)
(0.151924 -1.21393e-07 0)
(0.151924 -1.38563e-07 0)
(0.151924 -1.62244e-07 0)
(0.151924 -1.93425e-07 0)
(0.151924 -2.18829e-07 0)
(0.151924 -2.42466e-07 0)
(0.151924 -2.68328e-07 0)
(0.151923 -2.86144e-07 0)
(0.151923 -3.01852e-07 0)
(0.151923 -3.10359e-07 0)
(0.151923 -3.13601e-07 0)
(0.151923 -3.09767e-07 0)
(0.151923 -3.02932e-07 0)
(0.151923 -2.90969e-07 0)
(0.151923 -2.72798e-07 0)
(0.151923 -2.52873e-07 0)
(0.151923 -2.3348e-07 0)
(0.151923 -2.2272e-07 0)
(0.151923 -2.25976e-07 0)
(0.151923 -2.41116e-07 0)
(0.151924 -2.7068e-07 0)
(0.151924 -3.2044e-07 0)
(0.151924 -3.90836e-07 0)
(0.151924 -4.80598e-07 0)
(0.151924 -5.87949e-07 0)
(0.151924 -7.06686e-07 0)
(0.151924 -8.31782e-07 0)
(0.151924 -9.62233e-07 0)
(0.151924 -1.0923e-06 0)
(0.151925 -1.2114e-06 0)
(0.151925 -1.31134e-06 0)
(0.151925 -1.38367e-06 0)
(0.151925 -1.41907e-06 0)
(0.151926 -1.41248e-06 0)
(0.151926 -1.35802e-06 0)
(0.151926 -1.24552e-06 0)
(0.151926 -1.06859e-06 0)
(0.151927 -8.26104e-07 0)
(0.151927 -5.18843e-07 0)
(0.151927 -1.53385e-07 0)
(0.151927 2.58674e-07 0)
(0.151927 7.06139e-07 0)
(0.151926 1.17456e-06 0)
(0.151926 1.64257e-06 0)
(0.151926 2.08628e-06 0)
(0.151925 2.48199e-06 0)
(0.151925 2.8076e-06 0)
(0.151924 3.04547e-06 0)
(0.151924 3.17984e-06 0)
(0.151923 3.19451e-06 0)
(0.151923 3.07812e-06 0)
(0.151922 2.82825e-06 0)
(0.151922 2.45134e-06 0)
(0.151922 1.9629e-06 0)
(0.151921 1.38466e-06 0)
(0.151921 7.41101e-07 0)
(0.151921 6.11094e-08 0)
(0.151921 -6.21027e-07 0)
(0.151921 -1.26937e-06 0)
(0.151921 -1.84906e-06 0)
(0.151922 -2.32965e-06 0)
(0.151922 -2.68854e-06 0)
(0.151923 -2.91159e-06 0)
(0.151923 -2.99243e-06 0)
(0.151924 -2.93287e-06 0)
(0.151924 -2.74335e-06 0)
(0.151925 -2.44354e-06 0)
(0.151925 -2.06102e-06 0)
(0.151925 -1.62605e-06 0)
(0.151926 -1.16647e-06 0)
(0.151926 -7.05908e-07 0)
(0.151926 -2.64361e-07 0)
(0.151926 1.41027e-07 0)
(0.151926 4.97179e-07 0)
(0.151926 7.98306e-07 0)
(0.151925 1.0468e-06 0)
(0.151925 1.24965e-06 0)
(0.151925 1.41372e-06 0)
(0.151925 1.54347e-06 0)
(0.151925 1.64141e-06 0)
(0.151924 1.70894e-06 0)
(0.151924 1.7457e-06 0)
(0.151924 1.74812e-06 0)
(0.151923 1.70854e-06 0)
(0.151923 1.61588e-06 0)
(0.151923 1.45861e-06 0)
(0.151923 1.22891e-06 0)
(0.151922 9.25156e-07 0)
(0.151922 5.51562e-07 0)
(0.151922 1.17158e-07 0)
(0.151922 -3.64446e-07 0)
(0.151922 -8.73903e-07 0)
(0.151923 -1.38487e-06 0)
(0.151923 -1.86601e-06 0)
(0.151923 -2.28668e-06 0)
(0.151924 -2.62155e-06 0)
(0.151924 -2.85088e-06 0)
(0.151925 -2.95868e-06 0)
(0.151925 -2.93323e-06 0)
(0.151926 -2.77074e-06 0)
(0.151926 -2.47841e-06 0)
(0.151926 -2.07321e-06 0)
(0.151927 -1.57807e-06 0)
(0.151927 -1.01932e-06 0)
(0.151927 -4.25224e-07 0)
(0.151927 1.75612e-07 0)
(0.151927 7.54927e-07 0)
(0.151927 1.28556e-06 0)
(0.151927 1.7441e-06 0)
(0.151926 2.11334e-06 0)
(0.151926 2.38215e-06 0)
(0.151925 2.545e-06 0)
(0.151925 2.60195e-06 0)
(0.151925 2.5576e-06 0)
(0.151924 2.42047e-06 0)
(0.151924 2.20425e-06 0)
(0.151923 1.92734e-06 0)
(0.151923 1.60904e-06 0)
(0.151923 1.2664e-06 0)
(0.151923 9.15147e-07 0)
(0.151922 5.71567e-07 0)
(0.151922 2.51994e-07 0)
(0.151922 -3.1051e-08 0)
(0.151922 -2.71866e-07 0)
(0.151922 -4.68366e-07 0)
(0.151922 -6.18415e-07 0)
(0.151923 -7.22947e-07 0)
(0.151923 -7.86814e-07 0)
(0.151923 -8.1462e-07 0)
(0.151923 -8.11029e-07 0)
(0.151923 -7.82561e-07 0)
(0.151923 -7.35668e-07 0)
(0.151923 -6.75382e-07 0)
(0.151923 -6.06947e-07 0)
(0.151924 -5.36617e-07 0)
(0.151924 -4.68995e-07 0)
(0.151924 -4.076e-07 0)
(0.151924 -3.56023e-07 0)
(0.151924 -3.1565e-07 0)
(0.151924 -2.85809e-07 0)
(0.151924 -2.64361e-07 0)
(0.151924 -2.50165e-07 0)
(0.151924 -2.4463e-07 0)
(0.151924 -2.46248e-07 0)
(0.151924 -2.49519e-07 0)
(0.151924 -2.55002e-07 0)
(0.151924 -2.61583e-07 0)
(0.151924 -2.67202e-07 0)
(0.151924 -2.7242e-07 0)
(0.151924 -2.78859e-07 0)
(0.160244 5.34393e-09 0)
(0.160244 -8.51002e-09 0)
(0.160244 -2.66863e-08 0)
(0.160244 -5.49809e-08 0)
(0.160244 -8.57554e-08 0)
(0.160244 -1.18751e-07 0)
(0.160243 -1.55351e-07 0)
(0.160243 -1.85361e-07 0)
(0.160243 -2.16178e-07 0)
(0.160243 -2.42939e-07 0)
(0.160243 -2.64758e-07 0)
(0.160243 -2.80047e-07 0)
(0.160243 -2.85688e-07 0)
(0.160243 -2.80651e-07 0)
(0.160243 -2.67598e-07 0)
(0.160243 -2.56175e-07 0)
(0.160243 -2.47209e-07 0)
(0.160243 -2.44285e-07 0)
(0.160243 -2.55663e-07 0)
(0.160243 -2.81755e-07 0)
(0.160243 -3.22745e-07 0)
(0.160243 -3.83875e-07 0)
(0.160243 -4.6639e-07 0)
(0.160243 -5.67212e-07 0)
(0.160243 -6.8509e-07 0)
(0.160243 -8.17398e-07 0)
(0.160243 -9.58254e-07 0)
(0.160243 -1.10359e-06 0)
(0.160243 -1.24815e-06 0)
(0.160243 -1.38162e-06 0)
(0.160244 -1.49436e-06 0)
(0.160244 -1.57778e-06 0)
(0.160244 -1.62044e-06 0)
(0.160244 -1.61302e-06 0)
(0.160244 -1.5491e-06 0)
(0.160244 -1.41976e-06 0)
(0.160244 -1.21781e-06 0)
(0.160244 -9.42026e-07 0)
(0.160245 -5.93294e-07 0)
(0.160245 -1.76522e-07 0)
(0.160245 2.95444e-07 0)
(0.160245 8.05886e-07 0)
(0.160244 1.33621e-06 0)
(0.160244 1.86405e-06 0)
(0.160244 2.36554e-06 0)
(0.160244 2.81622e-06 0)
(0.160244 3.18986e-06 0)
(0.160243 3.46244e-06 0)
(0.160243 3.61485e-06 0)
(0.160243 3.63119e-06 0)
(0.160243 3.50051e-06 0)
(0.160242 3.22038e-06 0)
(0.160242 2.79655e-06 0)
(0.160242 2.24413e-06 0)
(0.160242 1.58782e-06 0)
(0.160242 8.57998e-07 0)
(0.160241 8.83288e-08 0)
(0.160241 -6.83923e-07 0)
(0.160242 -1.41954e-06 0)
(0.160242 -2.07958e-06 0)
(0.160242 -2.62828e-06 0)
(0.160242 -3.03774e-06 0)
(0.160242 -3.29111e-06 0)
(0.160243 -3.38288e-06 0)
(0.160243 -3.31792e-06 0)
(0.160243 -3.10921e-06 0)
(0.160243 -2.77657e-06 0)
(0.160244 -2.3473e-06 0)
(0.160244 -1.85454e-06 0)
(0.160244 -1.33244e-06 0)
(0.160244 -8.11035e-07 0)
(0.160244 -3.1337e-07 0)
(0.160244 1.44175e-07 0)
(0.160244 5.49817e-07 0)
(0.160244 8.9623e-07 0)
(0.160244 1.18239e-06 0)
(0.160244 1.41371e-06 0)
(0.160244 1.59905e-06 0)
(0.160244 1.74627e-06 0)
(0.160243 1.85941e-06 0)
(0.160243 1.9387e-06 0)
(0.160243 1.98161e-06 0)
(0.160243 1.98322e-06 0)
(0.160243 1.93601e-06 0)
(0.160243 1.82955e-06 0)
(0.160242 1.65175e-06 0)
(0.160242 1.39252e-06 0)
(0.160242 1.04808e-06 0)
(0.160242 6.22706e-07 0)
(0.160242 1.28178e-07 0)
(0.160242 -4.178e-07 0)
(0.160242 -9.92916e-07 0)
(0.160242 -1.56998e-06 0)
(0.160242 -2.11637e-06 0)
(0.160243 -2.59662e-06 0)
(0.160243 -2.97823e-06 0)
(0.160243 -3.23635e-06 0)
(0.160243 -3.3545e-06 0)
(0.160244 -3.32295e-06 0)
(0.160244 -3.13917e-06 0)
(0.160244 -2.81031e-06 0)
(0.160244 -2.3539e-06 0)
(0.160245 -1.79511e-06 0)
(0.160245 -1.16376e-06 0)
(0.160245 -4.92155e-07 0)
(0.160245 1.87464e-07 0)
(0.160245 8.4434e-07 0)
(0.160245 1.44873e-06 0)
(0.160245 1.97318e-06 0)
(0.160244 2.39623e-06 0)
(0.160244 2.70432e-06 0)
(0.160244 2.89108e-06 0)
(0.160244 2.95718e-06 0)
(0.160243 2.90945e-06 0)
(0.160243 2.75835e-06 0)
(0.160243 2.51735e-06 0)
(0.160243 2.20463e-06 0)
(0.160243 1.84282e-06 0)
(0.160242 1.45463e-06 0)
(0.160242 1.05938e-06 0)
(0.160242 6.73046e-07 0)
(0.160242 3.10748e-07 0)
(0.160242 -1.32343e-08 0)
(0.160242 -2.89763e-07 0)
(0.160242 -5.15876e-07 0)
(0.160242 -6.90214e-07 0)
(0.160242 -8.12978e-07 0)
(0.160242 -8.88727e-07 0)
(0.160242 -9.23252e-07 0)
(0.160243 -9.21295e-07 0)
(0.160243 -8.88862e-07 0)
(0.160243 -8.33726e-07 0)
(0.160243 -7.63544e-07 0)
(0.160243 -6.84718e-07 0)
(0.160243 -6.03437e-07 0)
(0.160243 -5.24196e-07 0)
(0.160243 -4.49115e-07 0)
(0.160243 -3.81641e-07 0)
(0.160243 -3.25794e-07 0)
(0.160243 -2.82703e-07 0)
(0.160243 -2.49266e-07 0)
(0.160243 -2.2219e-07 0)
(0.160243 -2.02769e-07 0)
(0.160243 -1.93375e-07 0)
(0.160243 -1.93333e-07 0)
(0.160243 -1.98178e-07 0)
(0.160242 -2.07173e-07 0)
(0.160242 -2.18477e-07 0)
(0.160242 -2.27749e-07 0)
(0.160242 -2.32493e-07 0)
(0.163009 1.5288e-07 0)
(0.163009 1.48704e-07 0)
(0.163008 1.42531e-07 0)
(0.163008 1.21099e-07 0)
(0.163008 8.97122e-08 0)
(0.163008 5.0208e-08 0)
(0.163008 6.89729e-09 0)
(0.163008 -3.78383e-08 0)
(0.163007 -8.6306e-08 0)
(0.163007 -1.36454e-07 0)
(0.163007 -1.79123e-07 0)
(0.163007 -2.09118e-07 0)
(0.163007 -2.2561e-07 0)
(0.163007 -2.30412e-07 0)
(0.163007 -2.28269e-07 0)
(0.163007 -2.29578e-07 0)
(0.163007 -2.35855e-07 0)
(0.163007 -2.45114e-07 0)
(0.163007 -2.63662e-07 0)
(0.163007 -2.96336e-07 0)
(0.163007 -3.44696e-07 0)
(0.163007 -4.1223e-07 0)
(0.163007 -4.99818e-07 0)
(0.163007 -6.04018e-07 0)
(0.163007 -7.23789e-07 0)
(0.163007 -8.59406e-07 0)
(0.163007 -1.00604e-06 0)
(0.163007 -1.15704e-06 0)
(0.163007 -1.30615e-06 0)
(0.163007 -1.44335e-06 0)
(0.163007 -1.55871e-06 0)
(0.163007 -1.64542e-06 0)
(0.163007 -1.69293e-06 0)
(0.163007 -1.68771e-06 0)
(0.163007 -1.6202e-06 0)
(0.163007 -1.48281e-06 0)
(0.163007 -1.26926e-06 0)
(0.163007 -9.7883e-07 0)
(0.163007 -6.14167e-07 0)
(0.163007 -1.7996e-07 0)
(0.163007 3.12206e-07 0)
(0.163007 8.44306e-07 0)
(0.163007 1.39575e-06 0)
(0.163007 1.94362e-06 0)
(0.163007 2.46441e-06 0)
(0.163007 2.93476e-06 0)
(0.163007 3.32799e-06 0)
(0.163007 3.61587e-06 0)
(0.163007 3.77528e-06 0)
(0.163007 3.78993e-06 0)
(0.163007 3.65082e-06 0)
(0.163007 3.35796e-06 0)
(0.163007 2.91855e-06 0)
(0.163007 2.34594e-06 0)
(0.163007 1.66255e-06 0)
(0.163007 8.99936e-07 0)
(0.163007 9.5632e-08 0)
(0.163007 -7.09479e-07 0)
(0.163007 -1.47427e-06 0)
(0.163007 -2.15997e-06 0)
(0.163007 -2.73122e-06 0)
(0.163007 -3.15893e-06 0)
(0.163007 -3.4239e-06 0)
(0.163007 -3.51888e-06 0)
(0.163007 -3.44929e-06 0)
(0.163007 -3.23107e-06 0)
(0.163007 -2.88666e-06 0)
(0.163007 -2.44321e-06 0)
(0.163007 -1.93233e-06 0)
(0.163007 -1.38806e-06 0)
(0.163007 -8.42867e-07 0)
(0.163007 -3.23251e-07 0)
(0.163007 1.52731e-07 0)
(0.163007 5.74442e-07 0)
(0.163007 9.36285e-07 0)