/*--------------------------------*- C++ -*----------------------------------*\
| =========                 |                                                 |
| \\      /  F ield         | OpenFOAM: The Open Source CFD Toolbox           |
|  \\    /   O peration     | Version:  2406                                  |
|   \\  /    A nd           | Website:  www.openfoam.com                      |
|    \\/     M anipulation  |                                                 |
\*---------------------------------------------------------------------------*/
FoamFile
{
    version     2.0;
    format      ascii;
    arch        "LSB;label=32;scalar=64";
    class       surfaceScalarField;
    location    "2.25";
    object      alphaPhi0.air;
}
// * * * * * * * * * * * * * * * * * * * * * * * * * * * * * * * * * * * * * //

dimensions      [0 3 -1 0 0 0 0];

oriented        oriented;

internalField   nonuniform List<scalar> 
12225
(
0.511142
1.71439e-06
0.511136
6.37657e-06
0.511128
7.85262e-06
0.511122
5.84731e-06
0.511117
4.7398e-06
0.511112
4.93208e-06
0.511107
5.412e-06
0.511101
5.65558e-06
0.511096
5.45366e-06
0.511091
4.93262e-06
0.511086
4.77637e-06
0.511081
5.15731e-06
0.511075
5.37847e-06
0.51107
5.10343e-06
0.511065
4.8825e-06
0.51106
5.16386e-06
0.511055
5.4348e-06
0.511049
5.63143e-06
0.511044
5.66639e-06
0.511038
5.10544e-06
0.511033
5.01054e-06
0.511028
5.56458e-06
0.511022
5.44638e-06
0.511017
5.13618e-06
0.511012
5.27525e-06
0.511007
5.14154e-06
0.511002
5.00243e-06
0.510996
5.44979e-06
0.510991
5.84879e-06
0.510985
5.69335e-06
0.510979
5.43047e-06
0.510974
5.59847e-06
0.510968
5.97463e-06
0.510962
5.98457e-06
0.510956
5.64712e-06
0.510951
5.47201e-06
0.510945
5.5682e-06
0.51094
5.58118e-06
0.510934
5.34676e-06
0.510929
5.19024e-06
0.510924
5.35869e-06
0.510918
5.42934e-06
0.510913
5.2993e-06
0.510908
5.44905e-06
0.510902
5.75995e-06
0.510896
5.73689e-06
0.510891
5.45138e-06
0.510885
5.46359e-06
0.510879
5.71308e-06
0.510874
5.55026e-06
0.510869
5.07785e-06
0.510864
4.7639e-06
0.510859
4.80169e-06
0.510854
5.33495e-06
0.510848
5.87522e-06
0.510842
5.82504e-06
0.510837
5.40197e-06
0.510832
5.06581e-06
0.510827
5.04679e-06
0.510821
5.35261e-06
0.510816
5.64832e-06
0.51081
5.68266e-06
0.510804
5.74703e-06
0.510798
5.847e-06
0.510793
5.56863e-06
0.510788
5.15756e-06
0.510783
5.02222e-06
0.510778
5.00084e-06
0.510773
5.01527e-06
0.510767
5.22934e-06
0.510762
5.52421e-06
0.510756
5.78871e-06
0.51075
5.98542e-06
0.510744
5.78075e-06
0.510739
5.30499e-06
0.510734
5.06035e-06
0.510729
4.91784e-06
0.510724
4.77218e-06
0.510719
4.88973e-06
0.510714
5.28729e-06
0.510708
5.65277e-06
0.510703
5.7783e-06
0.510697
5.84553e-06
0.510691
5.8987e-06
0.510685
5.67542e-06
0.51068
5.22105e-06
0.510675
5.03843e-06
0.51067
5.3256e-06
0.510664
5.58079e-06
0.510658
5.6452e-06
0.510653
5.70544e-06
0.510647
5.51289e-06
0.510642
5.17968e-06
0.510637
5.13552e-06
0.510631
5.4343e-06
0.510626
5.90392e-06
0.510619
6.21414e-06
0.510613
6.35602e-06
0.510607
6.36751e-06
0.510601
5.95246e-06
0.510595
5.38476e-06
0.51059
5.13025e-06
0.510585
5.04403e-06
0.51058
4.96098e-06
0.510575
4.9928e-06
0.51057
5.08312e-06
0.510565
5.12707e-06
0.51056
5.32824e-06
0.510554
5.55491e-06
0.510549
5.50165e-06
0.510543
5.50512e-06
0.510537
5.69788e-06
0.510532
5.75542e-06
0.510526
5.65138e-06
0.51052
5.49173e-06
0.510515
5.23707e-06
0.51051
4.89409e-06
0.510506
4.76413e-06
0.5105
5.03461e-06
0.510495
5.43345e-06
0.510489
5.64866e-06
0.510484
5.58363e-06
0.510478
5.4889e-06
0.510473
5.57625e-06
0.510467
5.71777e-06
0.510461
5.82051e-06
0.510455
5.74508e-06
0.51045
5.41726e-06
0.510445
5.13932e-06
0.51044
5.14332e-06
0.510435
5.1686e-06
0.51043
4.94716e-06
0.510425
4.76693e-06
0.51042
4.92231e-06
0.510415
5.19777e-06
0.510409
5.43498e-06
0.510404
5.68999e-06
0.510398
5.92119e-06
0.510392
6.0783e-06
0.510386
6.01523e-06
0.51038
5.69967e-06
0.510375
5.39588e-06
0.510369
5.23378e-06
0.510364
5.2356e-06
0.510359
5.43905e-06
0.510353
5.59353e-06
0.510348
5.51821e-06
0.510342
5.5008e-06
0.510336
5.59753e-06
0.510331
5.52578e-06
0.510325
5.41217e-06
0.51032
5.29205e-06
0.510315
5.10072e-06
0.51031
5.1905e-06
0.510304
5.51272e-06
0.510299
5.7336e-06
0.510293
5.80326e-06
0.510287
5.76125e-06
0.510281
5.75775e-06
0.510276
5.70822e-06
0.51027
5.59406e-06
0.510264
5.7187e-06
0.510259
5.78994e-06
0.510253
5.44788e-06
0.510248
5.10673e-06
0.510243
5.01383e-06
0.510238
4.97502e-06
0.510233
5.10073e-06
0.510227
5.46983e-06
0.510222
5.63529e-06
0.510216
5.41841e-06
0.510211
5.2286e-06
0.510206
5.25769e-06
0.5102
5.37642e-06
0.510195
5.4424e-06
0.51019
5.36129e-06
0.510185
5.16094e-06
0.51018
4.90935e-06
0.510175
4.80889e-06
0.51017
5.09738e-06
0.510164
5.5401e-06
0.510158
5.73028e-06
0.510153
5.67311e-06
0.510147
5.62466e-06
0.510141
5.7236e-06
0.510136
5.83318e-06
0.51013
5.80871e-06
0.510124
5.68288e-06
0.510119
5.54829e-06
0.510113
5.49618e-06
0.510108
5.50194e-06
0.510102
5.5324e-06
0.510096
5.588e-06
0.510091
5.54576e-06
0.510085
5.41162e-06
0.51008
5.3295e-06
0.510075
5.25966e-06
0.51007
5.2011e-06
0.510064
5.29211e-06
0.510059
5.48947e-06
0.510053
5.67058e-06
0.510047
5.73708e-06
0.510042
5.67516e-06
0.510036
5.70965e-06
0.51003
5.83094e-06
0.510024
5.8027e-06
0.510019
5.67498e-06
0.510013
5.48098e-06
0.510008
5.27821e-06
0.510003
5.23131e-06
0.509998
5.28716e-06
0.509992
5.49605e-06
0.509986
5.73029e-06
0.509981
5.58664e-06
0.509975
5.31911e-06
0.50997
5.36595e-06
0.509964
5.54378e-06
0.509959
5.62007e-06
0.509953
5.51744e-06
0.509948
5.16633e-06
0.509943
4.81382e-06
0.509938
4.92198e-06
0.509933
5.32643e-06
0.509928
5.42322e-06
0.509922
5.35564e-06
0.509917
5.49362e-06
0.509911
5.63657e-06
0.509906
5.68547e-06
0.5099
5.60338e-06
0.509895
5.39578e-06
0.509889
5.24352e-06
0.509884
5.03312e-06
0.509879
4.87969e-06
0.509874
5.07714e-06
0.509869
5.41195e-06
0.509863
5.6668e-06
0.509858
5.70528e-06
0.509852
5.52603e-06
0.509847
5.40954e-06
0.509841
5.29915e-06
0.509836
5.00131e-06
0.509831
4.83902e-06
0.509826
5.11598e-06
0.509821
5.49306e-06
0.509815
5.66565e-06
0.509809
5.77545e-06
0.509804
5.8339e-06
0.509798
5.76079e-06
0.509791
6.30471e-06
5.83309e-06
0.511148
-9.04363e-08
0.511154
6.05881e-07
0.51116
1.679e-06
0.511164
2.22364e-06
0.511166
2.45146e-06
0.511169
2.22999e-06
0.511172
2.23714e-06
0.511175
2.56205e-06
0.511178
2.66718e-06
0.51118
2.38926e-06
0.511183
2.28754e-06
0.511185
2.57259e-06
0.511188
2.62985e-06
0.511191
2.25857e-06
0.511194
1.78798e-06
0.511197
1.94892e-06
0.5112
2.59779e-06
0.511203
2.51872e-06
0.511206
2.38869e-06
0.511209
2.94704e-06
0.511211
2.90752e-06
0.511214
2.4898e-06
0.511217
2.56679e-06
0.511219
2.5214e-06
0.511222
2.3105e-06
0.511225
2.43282e-06
0.511227
2.64171e-06
0.51123
2.75634e-06
0.511233
2.52751e-06
0.511237
2.29915e-06
0.51124
2.47112e-06
0.511243
2.65541e-06
0.511246
2.76486e-06
0.511249
2.78765e-06
0.511252
2.54317e-06
0.511255
2.30731e-06
0.511259
2.09452e-06
0.511262
2.01318e-06
0.511265
2.38203e-06
0.511268
2.63286e-06
0.511271
2.46419e-06
0.511274
2.36043e-06
0.511277
2.36426e-06
0.51128
2.34774e-06
0.511283
2.28806e-06
0.511287
2.35846e-06
0.511289
2.81561e-06
0.511291
3.30865e-06
0.511294
3.53451e-06
0.511296
3.24925e-06
0.511298
2.54595e-06
0.511301
2.2206e-06
0.511304
2.22291e-06
0.511307
2.05578e-06
0.511311
1.95442e-06
0.511315
2.02483e-06
0.511318
2.21172e-06
0.51132
2.54352e-06
0.511323
2.84833e-06
0.511325
2.73406e-06
0.511329
2.26897e-06
0.511332
2.00576e-06
0.511336
2.09779e-06
0.511339
2.28379e-06
0.511342
2.52975e-06
0.511345
2.88794e-06
0.511347
3.14357e-06
0.511349
2.93564e-06
0.511351
2.502e-06
0.511354
2.26404e-06
0.511358
2.07999e-06
0.511362
1.85557e-06
0.511366
1.85187e-06
0.511369
2.05714e-06
0.511372
2.31712e-06
0.511375
2.68131e-06
0.511377
3.00577e-06
0.511378
3.0236e-06
0.511381
2.74408e-06
0.511383
2.45949e-06
0.511387
2.37391e-06
0.51139
2.45542e-06
0.511393
2.59898e-06
0.511397
2.50872e-06
0.5114
2.26365e-06
0.511403
2.31862e-06
0.511405
2.47075e-06
0.511408
2.53793e-06
0.511411
2.74694e-06
0.511414
2.91525e-06
0.511417
2.81946e-06
0.51142
2.58785e-06
0.511422
2.42526e-06
0.511425
2.37778e-06
0.511428
2.31464e-06
0.511432
2.27474e-06
0.511436
2.2841e-06
0.51144
2.22224e-06
0.511444
2.14025e-06
0.511448
2.21149e-06
0.511451
2.5559e-06
0.511453
2.89862e-06
0.511455
2.8487e-06
0.511458
2.59012e-06
0.51146
2.47097e-06
0.511463
2.52784e-06
0.511465
2.58362e-06
0.511468
2.64397e-06
0.511471
2.81278e-06
0.511473
2.76156e-06
0.511476
2.36149e-06
0.51148
1.99814e-06
0.511484
1.94026e-06
0.511487
2.16183e-06
0.511491
2.39403e-06
0.511493
2.63811e-06
0.511495
2.89085e-06
0.511497
2.81697e-06
0.5115
2.4974e-06
0.511503
2.35704e-06
0.511506
2.38373e-06
0.511509
2.39101e-06
0.511512
2.40524e-06
0.511515
2.42575e-06
0.511519
2.44468e-06
0.511522
2.56074e-06
0.511525
2.70534e-06
0.511528
2.71335e-06
0.51153
2.59632e-06
0.511533
2.54124e-06
0.511535
2.67166e-06
0.511538
2.78939e-06
0.511539
2.79182e-06
0.511542
2.88906e-06
0.511544
2.87293e-06
0.511547
2.47464e-06
0.51155
2.17629e-06
0.511554
2.32189e-06
0.511557
2.57757e-06
0.511561
2.64244e-06
0.511564
2.46806e-06
0.511567
2.33336e-06
0.51157
2.50454e-06
0.511572
2.62971e-06
0.511575
2.57298e-06
0.511578
2.67633e-06
0.511581
2.73491e-06
0.511584
2.47658e-06
0.511587
2.28679e-06
0.511591
2.28691e-06
0.511594
2.25688e-06
0.511597
2.29693e-06
0.511599
2.40169e-06
0.511602
2.5168e-06
0.511605
2.64432e-06
0.511608
2.63814e-06
0.511611
2.57164e-06
0.511614
2.64153e-06
0.511617
2.79426e-06
0.51162
2.88794e-06
0.511623
2.79891e-06
0.511626
2.4621e-06
0.51163
2.06797e-06
0.511633
1.966e-06
0.511636
2.18458e-06
0.511639
2.47007e-06
0.511641
2.62705e-06
0.511644
2.53332e-06
0.511647
2.40979e-06
0.51165
2.56413e-06
0.511653
2.75015e-06
0.511655
2.66685e-06
0.511658
2.36493e-06
0.511661
2.06728e-06
0.511665
2.08117e-06
0.511668
2.3593e-06
0.51167
2.62219e-06
0.511672
2.79976e-06
0.511674
2.74378e-06
0.511677
2.54044e-06
0.51168
2.60836e-06
0.511683
2.88724e-06
0.511685
3.0027e-06
0.511688
2.89274e-06
0.511691
2.65089e-06
0.511695
2.39708e-06
0.511698
2.30447e-06
0.511701
2.40958e-06
0.511705
2.50762e-06
0.511708
2.47455e-06
0.511711
2.39683e-06
0.511714
2.36222e-06
0.511717
2.37791e-06
0.51172
2.40704e-06
0.511723
2.36081e-06
0.511726
2.24427e-06
0.511729
2.135e-06
0.511733
2.03607e-06
0.511736
2.05388e-06
0.511739
2.29715e-06
0.511742
2.59391e-06
0.511745
2.73998e-06
0.511748
2.70948e-06
0.511751
2.65308e-06
0.511754
2.56267e-06
0.511758
2.33767e-06
0.511761
2.2922e-06
0.511764
2.44044e-06
0.511767
2.35425e-06
0.51177
2.16976e-06
0.511773
2.12763e-06
0.511777
2.19044e-06
0.51178
2.37837e-06
0.511783
2.53373e-06
0.511786
2.53512e-06
0.511789
2.53131e-06
0.511792
2.61085e-06
0.511795
2.65317e-06
0.511798
2.56858e-06
0.5118
2.59591e-06
0.511802
2.84279e-06
0.511804
3.05559e-06
0.511806
3.11212e-06
0.511809
2.86732e-06
0.511812
2.44343e-06
0.511815
2.51383e-06
0.511817
2.95393e-06
0.51182
3.01899e-06
0.511823
2.73747e-06
0.511826
2.4643e-06
0.511829
2.35239e-06
0.511831
2.33983e-06
0.511834
2.14111e-06
0.511837
1.79721e-06
0.511841
1.72769e-06
0.511845
2.09436e-06
0.511848
2.52146e-06
0.511851
2.75906e-06
0.511853
2.94053e-06
0.511855
3.08263e-06
0.511857
3.16705e-06
0.511859
3.22286e-06
0.511861
3.0967e-06
0.511864
2.72623e-06
0.511867
2.37127e-06
0.51187
2.29266e-06
0.511874
2.44316e-06
0.511877
2.44635e-06
0.511881
2.24093e-06
2.50071e-06
0.511146
2.43512e-07
0.511146
1.00894e-06
0.511146
1.54062e-06
0.511146
1.66391e-06
0.511147
1.62758e-06
0.511147
1.81492e-06
0.511148
2.04109e-06
0.511148
1.97872e-06
0.511149
1.94581e-06
0.511149
2.25558e-06
0.511149
2.35158e-06
0.511149
2.35272e-06
0.511149
2.48641e-06
0.51115
2.14883e-06
0.511149
1.9084e-06
0.511149
1.93854e-06
0.51115
1.99972e-06
0.51115
2.76889e-06
0.511149
3.19527e-06
0.511149
2.53979e-06
0.51115
2.32885e-06
0.51115
2.55044e-06
0.51115
2.39459e-06
0.51115
2.16541e-06
0.511151
1.83917e-06
0.511152
1.66845e-06
0.511152
1.84885e-06
0.511153
2.19716e-06
0.511153
2.62662e-06
0.511153
2.49777e-06
0.511153
1.97976e-06
0.511154
1.81239e-06
0.511155
1.94385e-06
0.511155
2.25198e-06
0.511156
2.28439e-06
0.511156
1.95956e-06
0.511156
1.87357e-06
0.511156
1.96308e-06
0.511157
2.06199e-06
0.511157
2.1834e-06
0.511157
2.12362e-06
0.511158
2.06601e-06
0.511158
2.1736e-06
0.511158
2.39451e-06
0.511158
2.56568e-06
0.511157
2.52564e-06
0.511157
2.68569e-06
0.511158
3.03708e-06
0.511158
3.05488e-06
0.511159
2.70018e-06
0.511159
2.21738e-06
0.511159
2.05685e-06
0.51116
1.98388e-06
0.51116
1.58806e-06
0.51116
1.50038e-06
0.511161
1.63659e-06
0.511162
1.54163e-06
0.511162
1.76236e-06
0.511163
2.31461e-06
0.511163
2.59187e-06
0.511163
2.59874e-06
0.511162
2.52244e-06
0.511162
2.40441e-06
0.511162
2.37844e-06
0.511162
2.28483e-06
0.511163
2.1044e-06
0.511164
2.29111e-06
0.511164
2.53048e-06
0.511164
2.24904e-06
0.511164
2.04561e-06
0.511164
2.27046e-06
0.511164
2.21708e-06
0.511164
1.73037e-06
0.511165
1.38922e-06
0.511166
1.35915e-06
0.511167
1.73314e-06
0.511167
2.46253e-06
0.511167
3.00421e-06
0.511167
2.91171e-06
0.511167
2.46546e-06
0.511167
2.27478e-06
0.511167
2.34852e-06
0.511168
2.25044e-06
0.511168
1.90081e-06
0.511169
1.70985e-06
0.511169
1.92809e-06
0.511169
2.20271e-06
0.51117
2.37904e-06
0.51117
2.55648e-06
0.51117
2.52125e-06
0.511171
2.38672e-06
0.511171
2.45164e-06
0.51117
2.63111e-06
0.51117
2.72545e-06
0.51117
2.63463e-06
0.51117
2.56857e-06
0.511169
2.56201e-06
0.511169
2.31559e-06
0.511169
1.95493e-06
0.51117
1.67847e-06
0.511171
1.54829e-06
0.511172
1.73169e-06
0.511173
2.02983e-06
0.511173
2.09417e-06
0.511174
2.05395e-06
0.511174
2.25695e-06
0.511174
2.52815e-06
0.511174
2.49747e-06
0.511175
2.42108e-06
0.511175
2.40955e-06
0.511175
2.20349e-06
0.511175
1.99365e-06
0.511175
1.97378e-06
0.511175
2.01132e-06
0.511176
2.07849e-06
0.511176
2.2816e-06
0.511176
2.5508e-06
0.511176
2.6528e-06
0.511176
2.59364e-06
0.511176
2.5292e-06
0.511176
2.44184e-06
0.511176
2.26103e-06
0.511177
2.14813e-06
0.511177
2.3054e-06
0.511177
2.52598e-06
0.511177
2.55775e-06
0.511177
2.5206e-06
0.511177
2.56718e-06
0.511177
2.62261e-06
0.511177
2.51258e-06
0.511177
2.28772e-06
0.511178
2.18079e-06
0.511178
2.18136e-06
0.511179
2.23888e-06
0.51118
2.36057e-06
0.51118
2.35005e-06
0.51118
2.19245e-06
0.51118
2.12721e-06
0.51118
2.12965e-06
0.511181
2.18145e-06
0.511181
2.26678e-06
0.511181
2.17179e-06
0.511182
2.03287e-06
0.511182
2.12088e-06
0.511182
2.31806e-06
0.511183
2.53372e-06
0.511183
2.76966e-06
0.511182
2.80468e-06
0.511182
2.57664e-06
0.511182
2.23861e-06
0.511182
1.95375e-06
0.511183
2.00532e-06
0.511183
2.36731e-06
0.511183
2.59184e-06
0.511183
2.48586e-06
0.511183
2.25625e-06
0.511184
2.06172e-06
0.511184
1.94814e-06
0.511185
2.14546e-06
0.511185
2.63448e-06
0.511185
2.89073e-06
0.511185
2.65156e-06
0.511185
2.18288e-06
0.511185
1.84566e-06
0.511185
1.7561e-06
0.511186
1.80428e-06
0.511187
1.96771e-06
0.511187
2.1328e-06
0.511187
2.11504e-06
0.511188
2.13356e-06
0.511188
2.3101e-06
0.511189
2.39167e-06
0.511188
2.39623e-06
0.511188
2.34173e-06
0.511188
2.06819e-06
0.511189
1.83064e-06
0.511189
1.93647e-06
0.51119
2.21847e-06
0.51119
2.40523e-06
0.51119
2.51535e-06
0.51119
2.60184e-06
0.511191
2.55994e-06
0.511191
2.51868e-06
0.511191
2.71289e-06
0.511191
2.88466e-06
0.511191
2.69833e-06
0.511191
2.35795e-06
0.511191
2.15738e-06
0.511191
2.10089e-06
0.511192
2.22173e-06
0.511192
2.47781e-06
0.511191
2.53857e-06
0.511192
2.30918e-06
0.511192
2.04518e-06
0.511192
1.84792e-06
0.511193
1.74142e-06
0.511193
1.79337e-06
0.511193
1.83441e-06
0.511194
1.82552e-06
0.511194
1.91175e-06
0.511195
2.01279e-06
0.511195
2.24351e-06
0.511195
2.62072e-06
0.511195
2.75685e-06
0.511195
2.59721e-06
0.511195
2.2636e-06
0.511196
1.86567e-06
0.511196
1.64482e-06
0.511197
1.61275e-06
0.511198
1.73678e-06
0.511198
1.84707e-06
0.511198
1.73769e-06
0.511199
1.68939e-06
0.5112
1.90468e-06
0.5112
2.27414e-06
0.5112
2.66844e-06
0.511199
2.85605e-06
0.511199
2.77868e-06
0.511199
2.60182e-06
0.511199
2.49775e-06
0.5112
2.51544e-06
0.5112
2.4762e-06
0.511201
2.41392e-06
0.511201
2.48355e-06
0.511201
2.55636e-06
0.511201
2.65434e-06
0.511201
2.87256e-06
0.511201
3.01212e-06
0.511201
2.81148e-06
0.511201
2.25025e-06
0.511202
1.68111e-06
0.511203
1.383e-06
0.511204
1.38523e-06
0.511204
1.59581e-06
0.511204
1.76442e-06
0.511204
1.8738e-06
0.511205
2.14175e-06
0.511205
2.52402e-06
0.511205
2.82669e-06
0.511205
2.95256e-06
0.511205
3.02191e-06
0.511205
3.05246e-06
0.511206
2.85971e-06
0.511206
2.6215e-06
0.511206
2.4228e-06
0.511206
2.06971e-06
0.511206
1.80223e-06
0.511207
1.86276e-06
0.511207
1.93662e-06
2.00887e-06
0.511146
2.11227e-07
0.511147
8.14467e-07
0.511147
1.16829e-06
0.511148
9.79622e-07
0.511148
8.42332e-07
0.511149
1.4401e-06
0.511149
1.96249e-06
0.511149
1.99107e-06
0.511149
2.01856e-06
0.511149
2.22925e-06
0.511149
2.3074e-06
0.511149
1.83075e-06
0.511151
1.15216e-06
0.511152
1.20396e-06
0.511152
1.74205e-06
0.511152
2.05113e-06
0.511151
2.27209e-06
0.511152
2.27133e-06
0.511153
2.08721e-06
0.511153
2.25048e-06
0.511153
2.15721e-06
0.511154
1.80424e-06
0.511155
1.92839e-06
0.511155
2.33464e-06
0.511154
2.46508e-06
0.511153
2.22767e-06
0.511153
2.10912e-06
0.511153
2.04391e-06
0.511154
1.96975e-06
0.511154
2.05295e-06
0.511154
2.04322e-06
0.511154
1.98978e-06
0.511154
1.8875e-06
0.511155
1.60903e-06
0.511156
1.54667e-06
0.511156
1.54922e-06
0.511156
1.39831e-06
0.511157
1.56462e-06
0.511157
2.00859e-06
0.511157
2.19709e-06
0.511157
2.04836e-06
0.511157
1.87031e-06
0.511157
1.85997e-06
0.511158
1.96291e-06
0.511158
2.31676e-06
0.511158
2.92439e-06
0.511157
3.25068e-06
0.511157
2.82481e-06
0.511158
1.98052e-06
0.511159
1.69809e-06
0.51116
1.98615e-06
0.51116
2.06261e-06
0.51116
1.96549e-06
0.511159
1.8062e-06
0.51116
1.46153e-06
0.51116
1.40561e-06
0.51116
1.7863e-06
0.511159
1.94473e-06
0.51116
1.75129e-06
0.511161
1.65449e-06
0.511162
1.81054e-06
0.511162
2.19943e-06
0.511162
2.45914e-06
0.511162
2.29881e-06
0.511162
2.12084e-06
0.511162
1.96986e-06
0.511163
1.6546e-06
0.511164
1.63374e-06
0.511164
1.91966e-06
0.511164
1.82629e-06
0.511165
1.44803e-06
0.511166
1.45432e-06
0.511166
1.79893e-06
0.511165
2.07293e-06
0.511164
2.2333e-06
0.511164
2.24378e-06
0.511164
2.06125e-06
0.511165
1.9957e-06
0.511166
2.15223e-06
0.511166
2.34035e-06
0.511166
2.52371e-06
0.511166
2.32616e-06
0.511166
1.70241e-06
0.511167
1.36042e-06
0.511167
1.41178e-06
0.511168
1.59699e-06
0.511168
1.9222e-06
0.511168
2.3191e-06
0.511168
2.63246e-06
0.511168
2.51901e-06
0.511168
2.06528e-06
0.511169
1.87565e-06
0.511169
2.02812e-06
0.51117
2.1619e-06
0.51117
2.17702e-06
0.511171
2.29744e-06
0.511171
2.47431e-06
0.511171
2.31794e-06
0.511171
2.00233e-06
0.51117
1.92096e-06
0.51117
1.9076e-06
0.51117
1.74534e-06
0.511171
1.51116e-06
0.511171
1.4088e-06
0.511172
1.56821e-06
0.511172
1.92424e-06
0.511172
2.23122e-06
0.511173
2.16987e-06
0.511173
1.80974e-06
0.511174
1.55465e-06
0.511175
1.55838e-06
0.511175
1.67704e-06
0.511175
1.85132e-06
0.511175
2.11829e-06
0.511175
2.24043e-06
0.511175
2.15603e-06
0.511175
2.26897e-06
0.511176
2.49362e-06
0.511176
2.42006e-06
0.511176
2.17036e-06
0.511176
2.05478e-06
0.511177
2.14427e-06
0.511176
2.31953e-06
0.511176
2.44579e-06
0.511176
2.48237e-06
0.511176
2.37879e-06
0.511177
2.18773e-06
0.511177
2.24419e-06
0.511177
2.58196e-06
0.511177
2.6834e-06
0.511177
2.40914e-06
0.511177
2.17568e-06
0.511177
1.99322e-06
0.511178
1.65522e-06
0.511179
1.48491e-06
0.511179
1.6806e-06
0.511179
1.9146e-06
0.51118
1.98467e-06
0.51118
1.891e-06
0.51118
1.80314e-06
0.511181
1.93054e-06
0.511181
1.9992e-06
0.511181
1.90659e-06
0.511181
1.90159e-06
0.511182
1.86104e-06
0.511182
1.89072e-06
0.511183
2.23158e-06
0.511183
2.44664e-06
0.511183
2.41361e-06
0.511183
2.36082e-06
0.511183
2.12602e-06
0.511183
2.02802e-06
0.511183
2.37384e-06
0.511183
2.58073e-06
0.511183
2.41057e-06
0.511183
2.17481e-06
0.511183
2.02631e-06
0.511183
2.03677e-06
0.511183
2.18266e-06
0.511183
2.30743e-06
0.511184
2.25323e-06
0.511185
2.02039e-06
0.511185
1.83605e-06
0.511185
1.83371e-06
0.511185
1.84926e-06
0.511185
1.75093e-06
0.511185
1.63178e-06
0.511186
1.61429e-06
0.511186
1.71855e-06
0.511186
1.87672e-06
0.511187
1.9629e-06
0.511187
1.96925e-06
0.511188
1.99376e-06
0.511188
2.04365e-06
0.511188
2.11205e-06
0.511188
2.12266e-06
0.511188
1.96138e-06
0.511188
1.91373e-06
0.511188
2.18687e-06
0.511188
2.42117e-06
0.511188
2.50972e-06
0.511188
2.60207e-06
0.511188
2.52154e-06
0.511189
2.22338e-06
0.51119
2.02322e-06
0.51119
2.09142e-06
0.51119
2.25415e-06
0.51119
2.23076e-06
0.51119
2.05725e-06
0.511191
1.9424e-06
0.511191
1.9729e-06
0.511191
2.11373e-06
0.511192
2.1197e-06
0.511192
1.92328e-06
0.511192
1.68993e-06
0.511192
1.30666e-06
0.511193
1.03794e-06
0.511194
1.32611e-06
0.511194
1.75723e-06
0.511194
1.95406e-06
0.511194
2.03345e-06
0.511194
2.06403e-06
0.511194
2.11944e-06
0.511195
2.17258e-06
0.511195
2.13045e-06
0.511196
1.93858e-06
0.511196
1.59618e-06
0.511196
1.28964e-06
0.511197
1.19716e-06
0.511197
1.40756e-06
0.511197
1.65465e-06
0.511197
1.56173e-06
0.511198
1.42625e-06
0.511198
1.59489e-06
0.511198
1.94882e-06
0.511199
2.33685e-06
0.511199
2.56888e-06
0.511199
2.63187e-06
0.511199
2.63513e-06
0.511199
2.57427e-06
0.511199
2.53865e-06
0.511199
2.32838e-06
0.5112
1.94332e-06
0.5112
2.05662e-06
0.5112
2.54152e-06
0.5112
2.67205e-06
0.5112
2.4953e-06
0.511201
2.29684e-06
0.511202
2.14216e-06
0.511202
1.96462e-06
0.511202
1.5875e-06
0.511202
1.18933e-06
0.511203
1.131e-06
0.511203
1.31549e-06
0.511203
1.48298e-06
0.511203
1.72249e-06
0.511203
2.10317e-06
0.511203
2.40758e-06
0.511204
2.54604e-06
0.511204
2.52968e-06
0.511205
2.39907e-06
0.511205
2.39731e-06
0.511206
2.50774e-06
0.511206
2.49047e-06
0.511206
2.39172e-06
0.511206
2.18511e-06
0.511206
1.91792e-06
0.511206
1.80094e-06
0.511206
1.74274e-06
1.78362e-06
0.511147
8.55377e-08
0.511147
3.82225e-07
0.511148
6.32328e-07
0.511148
7.63644e-07
0.511148
1.08594e-06
0.511148
1.49294e-06
0.511148
1.52364e-06
0.511149
1.4706e-06
0.511149
1.57514e-06
0.511149
1.77355e-06
0.51115
1.79677e-06
0.51115
1.56615e-06
0.51115
1.54426e-06
0.511149
1.85887e-06
0.511149
2.26165e-06
0.511148
2.58199e-06
0.511148
2.48048e-06
0.511148
2.20021e-06
0.511148
1.85112e-06
0.511149
1.34928e-06
0.51115
1.40073e-06
0.51115
1.94459e-06
0.511149
2.2712e-06
0.511149
2.31038e-06
0.51115
2.08791e-06
0.51115
1.79517e-06
0.511151
1.61568e-06
0.511152
1.26763e-06
0.511153
9.56244e-07
0.511154
1.01456e-06
0.511154
1.32643e-06
0.511155
1.63234e-06
0.511155
1.56975e-06
0.511155
1.18131e-06
0.511156
1.02011e-06
0.511156
1.27995e-06
0.511156
1.64158e-06
0.511156
1.70763e-06
0.511156
1.47311e-06
0.511157
1.47732e-06
0.511157
1.8518e-06
0.511157
2.08116e-06
0.511157
2.11751e-06
0.511157
2.25147e-06
0.511156
2.52985e-06
0.511157
2.70318e-06
0.511157
2.48714e-06
0.511158
2.14982e-06
0.511158
1.93487e-06
0.511158
1.76015e-06
0.511158
1.63701e-06
0.511159
1.49344e-06
0.511159
1.34083e-06
0.51116
1.16446e-06
0.511161
9.9997e-07
0.511161
1.25758e-06
0.511161
1.71709e-06
0.511161
1.77815e-06
0.511161
1.6214e-06
0.511161
1.57004e-06
0.511161
1.59546e-06
0.511162
1.70234e-06
0.511163
1.82386e-06
0.511163
1.86643e-06
0.511163
1.77757e-06
0.511164
1.4855e-06
0.511164
1.31243e-06
0.511164
1.46182e-06
0.511165
1.46988e-06
0.511165
1.2821e-06
0.511165
1.33693e-06
0.511165
1.46852e-06
0.511166
1.52144e-06
0.511166
1.83211e-06
0.511166
2.24198e-06
0.511166
2.35928e-06
0.511166
2.14359e-06
0.511166
1.871e-06
0.511166
1.976e-06
0.511166
2.1733e-06
0.511167
1.98428e-06
0.511167
1.6217e-06
0.511168
1.2646e-06
0.511168
1.00776e-06
0.511169
1.02644e-06
0.511169
1.32822e-06
0.511169
1.78297e-06
0.511169
2.13232e-06
0.51117
2.26481e-06
0.51117
2.26878e-06
0.51117
2.30546e-06
0.511169
2.33257e-06
0.511169
2.19276e-06
0.511169
2.10588e-06
0.511169
2.05344e-06
0.51117
1.87664e-06
0.51117
1.8422e-06
0.511171
1.81538e-06
0.511171
1.6541e-06
0.511171
1.61435e-06
0.511172
1.56157e-06
0.511172
1.44861e-06
0.511172
1.50351e-06
0.511172
1.58892e-06
0.511172
1.54318e-06
0.511172
1.58431e-06
0.511173
1.82495e-06
0.511173
1.92125e-06
0.511173
1.67704e-06
0.511173
1.37115e-06
0.511173
1.25494e-06
0.511174
1.36424e-06
0.511174
1.56338e-06
0.511174
1.76807e-06
0.511175
2.00558e-06
0.511175
2.04389e-06
0.511175
1.88204e-06
0.511176
1.98135e-06
0.511176
2.26286e-06
0.511176
2.28074e-06
0.511176
2.14262e-06
0.511176
2.07636e-06
0.511176
2.05554e-06
0.511176
2.1302e-06
0.511177
2.20498e-06
0.511177
2.11525e-06
0.511177
2.0385e-06
0.511177
2.12053e-06
0.511177
2.20075e-06
0.511178
2.13815e-06
0.511178
2.01757e-06
0.511179
2.01879e-06
0.511178
2.04155e-06
0.511178
1.8325e-06
0.511178
1.56054e-06
0.511178
1.54901e-06
0.511179
1.6201e-06
0.511179
1.5106e-06
0.51118
1.38312e-06
0.51118
1.36464e-06
0.511181
1.36793e-06
0.511181
1.43879e-06
0.511182
1.62399e-06
0.511182
1.86538e-06
0.511181
2.06483e-06
0.511181
2.06988e-06
0.511181
2.0277e-06
0.511182
2.12421e-06
0.511182
2.11503e-06
0.511182
2.02391e-06
0.511182
2.14753e-06
0.511182
2.27823e-06
0.511182
2.23807e-06
0.511183
2.22394e-06
0.511183
2.13779e-06
0.511183
1.91783e-06
0.511183
1.94323e-06
0.511183
2.18981e-06
0.511183
2.27212e-06
0.511183
2.12834e-06
0.511184
1.80765e-06
0.511184
1.50779e-06
0.511184
1.44119e-06
0.511185
1.40891e-06
0.511185
1.31918e-06
0.511186
1.34209e-06
0.511186
1.43186e-06
0.511186
1.56626e-06
0.511186
1.72206e-06
0.511186
1.67342e-06
0.511187
1.51325e-06
0.511187
1.47351e-06
0.511188
1.44963e-06
0.511188
1.47746e-06
0.511189
1.71427e-06
0.511189
1.99068e-06
0.511189
2.07585e-06
0.511189
2.04451e-06
0.511189
2.12067e-06
0.511189
2.25204e-06
0.511189
2.26071e-06
0.511189
2.23015e-06
0.51119
2.19262e-06
0.51119
2.06553e-06
0.51119
1.9702e-06
0.51119
1.91511e-06
0.511191
1.82164e-06
0.511191
1.83415e-06
0.511191
1.89887e-06
0.511191
1.87008e-06
0.511191
1.8323e-06
0.511192
1.80216e-06
0.511192
1.68563e-06
0.511193
1.46485e-06
0.511193
1.25395e-06
0.511193
1.10194e-06
0.511193
1.01012e-06
0.511193
1.12035e-06
0.511194
1.38622e-06
0.511194
1.64709e-06
0.511194
1.84644e-06
0.511195
1.85968e-06
0.511195
1.69195e-06
0.511196
1.52366e-06
0.511196
1.50181e-06
0.511197
1.50838e-06
0.511197
1.34399e-06
0.511197
1.20341e-06
0.511197
1.18375e-06
0.511197
1.16898e-06
0.511198
1.20867e-06
0.511198
1.16424e-06
0.511198
1.14203e-06
0.511199
1.45567e-06
0.511199
1.8234e-06
0.511199
2.0763e-06
0.511199
2.32918e-06
0.511199
2.40571e-06
0.5112
2.35217e-06
0.5112
2.35208e-06
0.5112
2.31058e-06
0.5112
2.2432e-06
0.5112
2.2506e-06
0.5112
2.31666e-06
0.5112
2.38354e-06
0.5112
2.31215e-06
0.511201
2.05177e-06
0.511201
1.81248e-06
0.511202
1.68204e-06
0.511202
1.51228e-06
0.511202
1.38108e-06
0.511202
1.31953e-06
0.511202
1.20644e-06
0.511202
1.22532e-06
0.511202
1.39975e-06
0.511202
1.53867e-06
0.511203
1.74399e-06
0.511203
1.98654e-06
0.511203
2.16446e-06
0.511204
2.31545e-06
0.511204
2.23219e-06
0.511204
2.06976e-06
0.511204
2.23632e-06
0.511205
2.40018e-06
0.511205
2.20319e-06
0.511205
1.92449e-06
0.511205
1.80224e-06
0.511205
1.64887e-06
0.511206
1.41128e-06
1.40096e-06
0.511146
3.74093e-08
0.511147
6.01637e-08
0.511147
1.82753e-07
0.511147
7.26506e-07
0.511147
1.40189e-06
0.511147
1.39594e-06
0.511148
1.02754e-06
0.511148
9.73849e-07
0.511149
1.13382e-06
0.511149
1.11362e-06
0.51115
1.16818e-06
0.51115
1.6167e-06
0.511149
1.88966e-06
0.511149
1.91098e-06
0.511149
2.17089e-06
0.51115
2.21123e-06
0.51115
1.88757e-06
0.511151
1.57443e-06
0.511151
1.56672e-06
0.511151
1.83082e-06
0.51115
1.88664e-06
0.511151
1.75107e-06
0.511151
1.6106e-06
0.511152
1.48616e-06
0.511152
1.68721e-06
0.511153
1.69535e-06
0.511153
1.2079e-06
0.511153
9.66907e-07
0.511153
8.95671e-07
0.511153
9.35332e-07
0.511154
1.08468e-06
0.511154
9.44347e-07
0.511155
9.19785e-07
0.511155
1.10801e-06
0.511155
1.21275e-06
0.511155
1.39565e-06
0.511155
1.29848e-06
0.511156
1.03282e-06
0.511156
1.23487e-06
0.511156
1.41258e-06
0.511156
1.42418e-06
0.511157
1.77651e-06
0.511157
2.09955e-06
0.511157
2.15467e-06
0.511157
2.26398e-06
0.511158
2.35631e-06
0.511158
1.98953e-06
0.511159
1.48698e-06
0.511159
1.48081e-06
0.511159
1.6382e-06
0.511159
1.62639e-06
0.511159
1.4293e-06
0.51116
1.00251e-06
0.51116
8.62633e-07
0.51116
1.1625e-06
0.51116
1.43547e-06
0.51116
1.57369e-06
0.51116
1.47237e-06
0.51116
1.23415e-06
0.511161
1.41014e-06
0.51116
1.79906e-06
0.51116
1.80639e-06
0.511161
1.55742e-06
0.511161
1.31562e-06
0.511162
1.14388e-06
0.511162
1.10416e-06
0.511162
1.10169e-06
0.511163
1.09566e-06
0.511163
1.18552e-06
0.511163
1.18285e-06
0.511163
1.06196e-06
0.511164
1.20528e-06
0.511164
1.46232e-06
0.511164
1.56541e-06
0.511164
1.72327e-06
0.511165
1.92194e-06
0.511165
1.87586e-06
0.511165
1.76294e-06
0.511165
1.97375e-06
0.511165
2.13468e-06
0.511166
1.74165e-06
0.511166
1.16769e-06
0.511166
8.9609e-07
0.511166
9.89053e-07
0.511166
1.17574e-06
0.511166
1.27148e-06
0.511167
1.53386e-06
0.511167
1.83504e-06
0.511167
1.86372e-06
0.511168
1.80086e-06
0.511168
1.80989e-06
0.511169
1.84327e-06
0.511169
1.75049e-06
0.51117
1.67985e-06
0.51117
1.8609e-06
0.51117
1.9239e-06
0.51117
1.67904e-06
0.51117
1.39208e-06
0.511171
1.26674e-06
0.511171
1.38377e-06
0.511171
1.46165e-06
0.511171
1.29248e-06
0.511172
1.19649e-06
0.511172
1.28404e-06
0.511172
1.33777e-06
0.511172
1.37851e-06
0.511173
1.4551e-06
0.511173
1.44366e-06
0.511173
1.34979e-06
0.511174
1.27294e-06
0.511173
1.3275e-06
0.511173
1.49957e-06
0.511173
1.53761e-06
0.511174
1.48609e-06
0.511174
1.55211e-06
0.511175
1.59518e-06
0.511175
1.65621e-06
0.511175
1.84763e-06
0.511175
1.92493e-06
0.511176
1.90548e-06
0.511176
2.0449e-06
0.511176
2.23906e-06
0.511175
2.29034e-06
0.511175
2.16404e-06
0.511175
1.95396e-06
0.511176
1.89542e-06
0.511176
2.02649e-06
0.511176
2.05222e-06
0.511176
1.89562e-06
0.511176
1.75883e-06
0.511177
1.65223e-06
0.511177
1.54289e-06
0.511178
1.48843e-06
0.511178
1.41861e-06
0.511178
1.35419e-06
0.511179
1.40914e-06
0.511179
1.46714e-06
0.511179
1.39898e-06
0.511179
1.22926e-06
0.511179
1.01029e-06
0.51118
9.36029e-07
0.51118
1.06906e-06
0.511181
1.15381e-06
0.511181
1.25949e-06
0.511182
1.60535e-06
0.511182
1.9038e-06
0.511182
2.002e-06
0.511182
1.99491e-06
0.511182
1.83418e-06
0.511183
1.77186e-06
0.511183
1.99833e-06
0.511183
2.22936e-06