/*--------------------------------*- C++ -*----------------------------------*\
| =========                 |                                                 |
| \\      /  F ield         | OpenFOAM: The Open Source CFD Toolbox           |
|  \\    /   O peration     | Version:  2406                                  |
|   \\  /    A nd           | Website:  www.openfoam.com                      |
|    \\/     M anipulation  |                                                 |
\*---------------------------------------------------------------------------*/
FoamFile
{
    version     2.0;
    format      ascii;
    arch        "LSB;label=32;scalar=64";
    class       volScalarField;
    location    "2.25";
    object      p;
}
// * * * * * * * * * * * * * * * * * * * * * * * * * * * * * * * * * * * * * //

dimensions      [1 -1 -2 0 0 0 0];

internalField   nonuniform List<scalar> 
6250
(
-3.49703
-3227.19
-1038.05
539.06
494.446
25.3105
-135.401
-58.1018
18.3672
24.75
4.59771
-4.99412
-2.71219
0.991514
1.73492
0.926251
0.394058
0.421979
0.584192
0.633002
0.599079
0.573255
0.574595
0.578004
0.577372
0.573838
0.567316
0.565051
0.563037
0.561795
0.564198
0.56333
0.561493
0.564208
0.567927
0.566133
0.559013
0.553773
0.550016
0.546142
0.545365
0.543657
0.53835
0.535945
0.534422
0.526049
0.517554
0.515394
0.512522
0.506098
0.501875
0.498778
0.491353
0.483768
0.481346
0.480183
0.478454
0.478194
0.478644
0.480215
0.481856
0.480486
0.477331
0.475067
0.473279
0.47037
0.470148
0.474755
0.476538
0.472882
0.470807
0.472283
0.473296
0.472235
0.466161
0.455633
0.450554
0.450935
0.451229
0.453069
0.452795
0.449185
0.445929
0.442657
0.43972
0.435338
0.428255
0.423363
0.42495
0.428474
0.426931
0.423632
0.420645
0.417116
0.418382
0.420838
0.41831
0.41437
0.40951
0.403829
0.400036
0.398114
0.395884
0.389885
0.382912
0.380542
0.38101
0.379166
0.374632
0.37183
0.37072
0.36967
0.367362
0.360528
0.353528
0.349518
0.345962
0.344139
0.342868
0.341063
0.341242
0.343802
0.346157
0.345314
0.341458
0.335464
0.32875
0.324222
0.322762
0.323687
0.32502
0.325515
0.324833
0.322465
0.319502
0.314053
0.305858
0.300329
0.295867
0.28843
0.281319
0.275621
0.270037
0.26623
0.263857
0.259816
0.253598
0.247416
0.242725
0.240355
0.238554
0.235351
0.233428
0.233225
0.233095
0.23379
0.233795
0.231694
0.228972
0.226298
0.222566
0.218612
0.215935
0.21207
0.207908
0.20684
0.20651
0.205377
0.203879
0.203126
0.203586
0.201652
0.200574
0.204329
0.2061
0.204415
0.202768
0.20046
0.198332
0.196256
0.195465
0.196674
0.19522
0.193001
0.193396
0.192306
0.18931
0.189001
0.190768
0.188307
0.182978
0.180173
0.177293
0.175074
0.174108
0.169249
0.16263
0.157524
0.154527
0.153603
0.149964
0.143593
0.138619
0.134015
0.128213
0.121895
0.116225
0.113049
0.112294
0.11006
0.105578
0.102508
0.100715
0.0983614
0.0957719
0.0950876
0.0972904
0.0967909
0.0917447
0.0890389
0.0893363
0.088464
0.0875068
0.0862967
0.0819584
0.0771933
0.0739053
0.0683542
0.0604459
0.0528456
0.0482
0.0482993
0.047872
0.0445924
0.0436244
0.043401
0.0400199
0.0349401
0.0288014
0.0244029
0.0247442
0.0255287
0.0243044
0.0229127
0.0209953
0.0192376
0.0171444
0.0125817
0.0106179
8.86262e-05
-3.52873
-3227.26
-1038.09
539.066
494.456
25.3101
-135.401
-58.0976
18.3665
24.7456
4.59965
-4.98964
-2.71127
0.989391
1.73329
0.923825
0.386604
0.415066
0.58004
0.632055
0.606964
0.579297
0.570509
0.574797
0.577307
0.574171
0.568391
0.564373
0.562933
0.5609
0.559226
0.558528
0.559667
0.566843
0.571561
0.566132
0.558863
0.552054
0.546272
0.548714
0.550731
0.545282
0.5419
0.538504
0.527678
0.518111
0.517409
0.516976
0.511503
0.506737
0.502831
0.49829
0.49426
0.487424
0.479874
0.477373
0.477628
0.479031
0.48106
0.480455
0.477126
0.474699
0.475818
0.476946
0.475093
0.474548
0.476203
0.475113
0.4714
0.469565
0.471627
0.474249
0.471596
0.466645
0.463606
0.459439
0.458287
0.45873
0.453584
0.448598
0.444864
0.441172
0.441797
0.442564
0.440456
0.437989
0.434083
0.427592
0.424288
0.426116
0.424917
0.421755
0.421211
0.419392
0.417512
0.416462
0.415413
0.414695
0.408713
0.402199
0.403171
0.403077
0.397185
0.39097
0.385766
0.380564
0.378616
0.379338
0.376648
0.373293
0.370516
0.365435
0.361739
0.357968
0.353835
0.351759
0.348923
0.346875
0.345554
0.34203
0.340079
0.342146
0.34379
0.341361
0.337408
0.332771
0.328187
0.327635
0.328211
0.327099
0.32681
0.326867
0.325985
0.323161
0.317572
0.31046
0.303147
0.297516
0.293856
0.289306
0.28236
0.275302
0.271253
0.268537
0.263253
0.257373
0.253941
0.24968
0.242766
0.238921
0.239108
0.237066
0.234046
0.233155
0.232029
0.23025
0.229466
0.230944
0.231995
0.228759
0.223425
0.21868
0.214318
0.210684
0.209753
0.210104
0.207389
0.204649
0.203815
0.201803
0.20154
0.202445
0.202462
0.204871
0.205467
0.202616
0.202146
0.202467
0.200928
0.197796
0.194469
0.193313
0.192436
0.191769
0.192372
0.192222
0.190676
0.189008
0.190422
0.191021
0.185349
0.179008
0.174639
0.172753
0.174039
0.17183
0.166263
0.160426
0.153507
0.149142
0.146813
0.143103
0.139335
0.135285
0.129167
0.121051
0.114202
0.11372
0.116487
0.112385
0.103768
0.0999531
0.0972792
0.0944298
0.0964301
0.0981771
0.0977856
0.0982595
0.0950177
0.0904961
0.0913944
0.0912955
0.0869815
0.0836852
0.0785191
0.0726816
0.0722361
0.0698201
0.0617357
0.0551107
0.0511959
0.0491489
0.0474955
0.0442987
0.0419057
0.0399197
0.0367462
0.0345767
0.0323658
0.0291509
0.0273741
0.0252796
0.0214189
0.0193693
0.018723
0.0178193
0.0165093
0.0124044
0.0049219
0.00262297
-3.52764
-3227.25
-1038.08
539.079
494.46
25.3039
-135.403
-58.095
18.3665
24.7442
4.59978
-4.98963
-2.70934
0.997398
1.7392
0.922225
0.383021
0.413778
0.584919
0.637391
0.606323
0.580354
0.575126
0.57583
0.573895
0.569226
0.564952
0.563533
0.564829
0.565691
0.562414
0.560748
0.565479
0.567549
0.564493
0.563388
0.561635
0.555744
0.549159
0.547222
0.548127
0.545276
0.540564
0.535505
0.527362
0.520738
0.520497
0.521352
0.515866
0.505538
0.499133
0.496689
0.491354
0.48512
0.482209
0.481585
0.481069
0.480518
0.480189
0.478121
0.476015
0.476983
0.478074
0.477193
0.475785
0.47416
0.473694
0.474314
0.472183
0.468924
0.47316
0.480816
0.475995
0.464741
0.460878
0.45642
0.451273
0.454702
0.457443
0.452697
0.447275
0.445921
0.444671
0.440095
0.437015
0.435402
0.432255
0.429171
0.427751
0.427533
0.423282
0.418773
0.420714
0.420936
0.418987
0.420108
0.418987
0.414499
0.408849
0.404477
0.40301
0.399542
0.393316
0.38878
0.386919
0.382861
0.37639
0.375013
0.376042
0.375245
0.373755
0.369063
0.36408
0.359714
0.353912
0.350087
0.346785
0.343343
0.341719
0.340589
0.341871
0.346221
0.347093
0.341857
0.336866
0.333199
0.328269
0.32638
0.327543
0.327827
0.327172
0.325623
0.324281
0.321307
0.314923
0.310237
0.307168
0.302074
0.296876
0.290434
0.280811
0.273342
0.271248
0.268793
0.262273
0.255977
0.25281
0.250333
0.245699
0.240611
0.237782
0.235281
0.233487
0.23413
0.233898
0.232356
0.23176
0.231255
0.229764
0.227541
0.223815
0.217737
0.213009
0.211574
0.211152
0.210671
0.207104
0.203077
0.203757
0.203243
0.200918
0.201767
0.203681
0.206197
0.20662
0.202971
0.200475
0.198989
0.197696
0.197758
0.197206
0.19683
0.195431
0.192029
0.1906
0.191767
0.192786
0.191281
0.189454
0.188289
0.184208
0.180289
0.17745
0.173315
0.170513
0.167192
0.163576
0.161736
0.15724
0.151601
0.147537
0.142786
0.139071
0.13581
0.128684
0.120181
0.115404
0.113857
0.112738
0.109893
0.106051
0.10321
0.0995608
0.0965916
0.0973101
0.0970032
0.0948084
0.0945251
0.093461
0.0912432
0.0915719
0.0912225
0.0873591
0.0840721
0.0811533
0.0767458
0.0728476
0.0664229
0.0582733
0.0548299
0.0529909
0.0495211
0.0472733
0.0457923
0.0440604
0.041422
0.0372021
0.0337524
0.0315962
0.0284439
0.0256085
0.0239406
0.0218219
0.0197945
0.0187343
0.0188818
0.0181459
0.0129597
0.00630027
0.00275414
-3.53197
-3227.26
-1038.09
539.068
494.454
25.3006
-135.41
-58.1008
18.3691
24.7491
4.5976
-4.99384
-2.71345
0.990181
1.73382
0.921331
0.382869
0.413348
0.58197
0.633641
0.606901
0.580545
0.572482
0.574955
0.575919
0.572339
0.564732
0.560861
0.561318
0.5597
0.559961
0.563017
0.567713
0.568654
0.562009
0.558992
0.559056
0.554359
0.551118
0.550747
0.547847
0.54363
0.540026
0.532789
0.522862
0.519511
0.521096
0.519291
0.514182
0.506972
0.501582
0.498613
0.491127
0.48487
0.483636
0.480686
0.480409
0.483576
0.48068
0.474805
0.474784
0.477178
0.476764
0.475919
0.474593
0.473981
0.47693
0.475898
0.470904
0.472219
0.475311
0.473714
0.470545
0.466436
0.461876
0.457652
0.45469
0.453488
0.452012
0.450225
0.448466
0.445987
0.442272
0.439325
0.43944
0.436549
0.430933
0.429736
0.427993
0.423914
0.422102
0.421728
0.421493
0.420139
0.41944
0.419505
0.416856
0.413169
0.407788
0.402822
0.402534
0.399926
0.393168
0.38884
0.387977
0.386156
0.380348
0.376179
0.375464
0.374202
0.37169
0.365791
0.360035
0.357473
0.353986
0.351028
0.349146
0.34648
0.344259
0.341956
0.340583
0.341861
0.342812
0.339687
0.334803
0.33236
0.330675
0.329091
0.328661
0.327952
0.327388
0.326322
0.324153
0.321185
0.315001
0.308368
0.305099
0.30168
0.296346
0.289453
0.280856
0.274679
0.272494
0.269113
0.262774
0.256175
0.25066
0.247516
0.24549
0.242048
0.23917
0.236804
0.233166
0.231735
0.233729
0.234769
0.232975
0.230844
0.228963
0.225802
0.222071
0.21736
0.212956
0.211856
0.211167
0.209636
0.207994
0.205608
0.204524
0.202764
0.20029
0.201902
0.204154
0.204227
0.204496
0.204786
0.203734
0.19985
0.196889
0.197301
0.195789
0.194295
0.196017
0.195813
0.192473
0.190468
0.191918
0.191849
0.187781
0.184853
0.181955
0.178255
0.177202
0.17548
0.171353
0.166555
0.161896
0.15995
0.158625
0.153924
0.148144
0.144116
0.139417
0.131688
0.124227
0.1207
0.11882
0.115336
0.111568
0.108995
0.106543
0.103093
0.0985265
0.0958048
0.0966635
0.0970097
0.0952465
0.0943198
0.0942895
0.0927749
0.090684
0.0900589
0.0882299
0.0845339
0.0818896
0.0782662
0.0717894
0.0641276
0.0578411
0.0551921
0.0537579
0.0517113
0.0496654
0.0461827
0.0426095
0.0402288
0.0372268
0.0340797
0.0312497
0.028206
0.0254955
0.0230864
0.021352
0.0199112
0.0178036
0.0173397
0.0168871
0.0129485
0.0079294
0.00306936
-3.53324
-3227.26
-1038.09
539.066
494.461
25.3071
-135.409
-58.1013
18.3699
24.7502
4.5981
-4.9923
-2.71109
0.993737
1.73565
0.91827
0.381492
0.414637
0.5873
0.640189
0.604804
0.577064
0.57538
0.579361
0.576867
0.568356
0.563692
0.565143
0.562655
0.559662
0.562756
0.563126
0.563889
0.566528
0.562899
0.560116
0.561021
0.559482
0.554423
0.547861
0.545633
0.543823
0.5373
0.532072
0.528057
0.523832
0.520157
0.514817
0.511689
0.510185
0.506569
0.501247
0.491879
0.484839
0.484987
0.48389
0.481771
0.48108
0.477769
0.475742
0.478154
0.478821
0.476078
0.475997
0.47736
0.476148
0.475949
0.475786
0.474203
0.474513
0.473695
0.471495
0.470218
0.466203
0.460661
0.45771
0.456311
0.454837
0.453381
0.45144
0.446448
0.441256
0.440687
0.441687
0.441716
0.438514
0.432269
0.429006
0.42639
0.42274
0.422797
0.423834
0.423021
0.421559
0.42107
0.42065
0.41612
0.410568
0.407366
0.404882
0.402923
0.399419
0.395235
0.39093
0.385901
0.384015
0.382002
0.378114
0.376392
0.374347
0.370604
0.365449
0.3598
0.356235
0.35361
0.352431
0.351277
0.347153
0.343792
0.342409
0.341059
0.341132
0.341114
0.337093
0.33221
0.331928
0.33291
0.332465
0.331822
0.329171
0.326686
0.32523
0.322137
0.319688
0.315839
0.309062
0.305168
0.302159
0.295155
0.288039
0.282962
0.27748
0.272198
0.267739
0.262824
0.257995
0.252794
0.247608
0.244789
0.242039
0.238722
0.237275
0.235246
0.233432
0.234874
0.235568
0.233317
0.230988
0.227961
0.223096
0.219156
0.216552
0.215718
0.216898
0.213769
0.207922
0.206158
0.204975
0.203987
0.204333
0.20256
0.201576
0.202927
0.203993
0.204731
0.204826
0.203568
0.2003
0.197596
0.197964
0.196745
0.19378
0.194222
0.195236
0.1934
0.192238
0.193579
0.192814
0.188202
0.183995
0.180503
0.177268
0.176009
0.173831
0.169825
0.166391
0.163397
0.161341
0.159319
0.15429
0.148101
0.144015
0.139349
0.131339
0.123981
0.120677
0.118744
0.116055
0.113595
0.110624
0.106605
0.103056
0.0990384
0.0950526
0.0940448
0.0943299
0.094687
0.0964263
0.0969318
0.0943804
0.0912049
0.0890613
0.0874008
0.0853225
0.0821305
0.0769397
0.0704683
0.0644237
0.0596052
0.0569197
0.0559354
0.054401
0.050246
0.0449238
0.0422208
0.040474
0.0367597
0.0330102
0.0301329
0.0277221
0.0263968
0.0239036
0.0200641
0.0190581
0.0186233
0.0167131
0.0152987
0.0121466
0.00720871
0.00274801
-3.53626
-3227.27
-1038.1
539.066
494.458
25.3049
-135.409
-58.1006
18.3667
24.7452
4.59541
-4.99419
-2.71225
0.991618
1.73247
0.91387
0.378144
0.414557
0.583659
0.639342
0.609177
0.574564
0.570989
0.577857
0.573377
0.566686
0.563406
0.56227
0.563866
0.564699
0.565333
0.563096
0.558771
0.559682
0.562713
0.564097
0.562404
0.556186
0.550592
0.547078
0.544409
0.541104
0.536264
0.530929
0.52524
0.522602
0.521795
0.515917
0.510792
0.509584
0.504918
0.499199
0.494207
0.48786
0.484503
0.484029
0.482971
0.48051
0.477173
0.476586
0.478099
0.477254
0.475363
0.476339
0.478515
0.478063
0.475342
0.472852
0.474135
0.477308
0.474867
0.469723
0.467903
0.465042
0.458462
0.45359
0.454428
0.45595
0.453007
0.450072
0.447677
0.442069
0.439057
0.441009
0.441546
0.438188
0.433118
0.428769
0.42418
0.420969
0.422795
0.424986
0.423304
0.420259
0.420062
0.42132
0.416371
0.409139
0.406894
0.404311
0.400662
0.399569
0.397788
0.391752
0.384782
0.382461
0.381769
0.37968
0.377202
0.372387
0.367993
0.364504
0.359387
0.357726
0.357177
0.352225
0.348025
0.345914
0.342851
0.340657
0.340583
0.340586
0.339426
0.336358
0.332221
0.331867
0.334087
0.333418
0.331648
0.329359
0.326631
0.324814
0.320703
0.316221
0.313366
0.309266
0.306724
0.304306
0.29606
0.287248
0.283156
0.278645
0.271622
0.265396
0.260704
0.257257
0.25344
0.248079
0.245054
0.243655
0.239042
0.234837
0.235066
0.236354
0.236541
0.236056
0.233678
0.22996
0.226588
0.221284
0.216437
0.2167
0.217577
0.216052
0.212836
0.208563
0.206363
0.204612
0.202482
0.203227
0.204515
0.203909
0.203494
0.204078
0.204074
0.203531
0.203133
0.201094
0.198441
0.197317
0.195682
0.193895
0.194783
0.196559
0.195584
0.192668
0.191235
0.190507
0.187218
0.182922
0.179558
0.176335
0.173891
0.171718
0.169044
0.166826
0.163882
0.16029
0.158085
0.155335
0.150151
0.144115
0.137408
0.13014
0.124366
0.120681
0.117978
0.115777
0.114264
0.111814
0.106855
0.101828
0.0979731
0.0942834
0.0926438
0.0936361
0.0956807
0.0975551
0.0962307
0.092163
0.0899074
0.0896876
0.0891157
0.0869192
0.082202
0.0764003
0.0717134
0.066348
0.0596168
0.0569471
0.05803
0.0556157
0.0496904
0.0448362
0.0418946
0.0393408
0.0358449
0.0323767
0.0300028
0.0276226
0.0249914
0.0216361
0.0178987
0.0176912
0.0189677
0.0181475
0.0162948
0.0107647
0.00504002
0.00221588
-3.53904
-3227.27
-1038.1
539.065
494.454
25.3022
-135.41
-58.103
18.3665
24.7498
4.6011
-4.99191
-2.71348
0.989322
1.72825
0.912057
0.380756
0.418558
0.586785
0.63741
0.606158
0.576207
0.572397
0.57784
0.574113
0.567061
0.567351
0.567616
0.563275
0.562394
0.563979
0.56278
0.559531
0.559467
0.564795
0.566194
0.560608
0.556199
0.550608
0.545008
0.545601
0.54314
0.535068
0.531264
0.527343
0.521028
0.519281
0.518282
0.514472
0.511074
0.506562
0.500148
0.494679
0.490409
0.487495
0.485466
0.481604
0.478493
0.479877
0.480628
0.478189
0.47758
0.478257
0.477337
0.477501
0.477952
0.47652
0.476155
0.477004
0.475848
0.473671
0.471055
0.466178
0.461462
0.457721
0.454458
0.455578
0.457424
0.452851
0.447625
0.446244
0.444258
0.442838
0.441984
0.438858
0.437005
0.434175
0.427603
0.42354
0.423218
0.424436
0.425743
0.424736
0.42279
0.421779
0.419289
0.413548
0.409306
0.408254
0.405058
0.401377
0.400167
0.397631
0.392795
0.387479
0.383431
0.381332
0.379568
0.376757
0.372535
0.368306
0.363617
0.35905
0.358695
0.357729
0.352494
0.349245
0.346466
0.342053
0.340856
0.34089
0.338492
0.336037
0.335072
0.334115
0.334476
0.335875
0.334317
0.331533
0.32912
0.326665
0.325094
0.320429
0.314549
0.312946
0.310824
0.306526
0.3026
0.296283
0.288846
0.283828
0.278767
0.272509
0.26677
0.261044
0.256448
0.253397
0.24909
0.246048
0.244724
0.239749
0.235886
0.237245
0.237858
0.237526
0.237257
0.233833
0.22919
0.225282
0.219841
0.215947
0.217769
0.219578
0.216811
0.211751
0.207239
0.206333
0.206585
0.204705
0.203576
0.203567
0.202857
0.203544
0.206457
0.206954
0.203742
0.201347
0.200551
0.199217
0.19765
0.196942
0.195868
0.193578
0.193712
0.196083
0.195511
0.19269
0.189802
0.186006
0.182204
0.17903
0.175804
0.172624
0.169429
0.167335
0.167
0.165737
0.162247
0.158418
0.15495
0.149931
0.14259
0.135958
0.131165
0.126216
0.122185
0.119741
0.116589
0.113965
0.111781
0.106378
0.10061
0.0975673
0.0940243
0.091526
0.0939991
0.0978302
0.0985145
0.0954689
0.091328
0.0901827
0.090673
0.0899512
0.0880011
0.0832121
0.0769757
0.072002
0.0663069
0.0615426
0.0606524
0.0588184
0.0540623
0.0502579
0.0470211
0.0428196
0.0377841
0.0325202
0.0297973
0.0306715
0.0306874
0.0264742
0.020734
0.0164034
0.0161074
0.0184317
0.0182448
0.014683
0.0085848
0.00359529
0.00147078
-3.54022
-3227.27
-1038.1
539.06
494.452
25.3021
-135.412
-58.1041
18.3672
24.7489
4.59877
-4.99643
-2.71727
0.990187
1.73159
0.913095
0.377394
0.412494
0.581007
0.637991
0.610789
0.577782
0.5724
0.578145
0.574266
0.564428
0.560978
0.564532
0.566192
0.564969
0.56309
0.561056
0.559837
0.560939
0.564277
0.565336
0.558977
0.550322
0.547263
0.547216
0.544422
0.537445
0.53286
0.532291
0.526681
0.519916
0.519486
0.518578
0.514355
0.511242
0.506747
0.498882
0.493791
0.491839
0.4884
0.485713
0.48311
0.479414
0.479906
0.481316
0.478781
0.477467
0.478831
0.478707
0.476845
0.476674
0.478739
0.478538
0.475068
0.472948
0.472617
0.468537
0.462962
0.461421
0.458073
0.453239
0.454775
0.455713
0.450807
0.447118
0.446121
0.444251
0.441936
0.440491
0.43908
0.437204
0.432661
0.426495
0.423957
0.424463
0.424735
0.423682
0.422555
0.423736
0.422998
0.418016
0.41332
0.409172
0.405221
0.404339
0.404753
0.401068
0.39462
0.391325
0.388924
0.384396
0.381178
0.378872
0.375308
0.370952
0.366182
0.362735
0.36107
0.35954
0.35678
0.352117
0.347904
0.345328
0.342869
0.340628
0.338998
0.336506
0.333097
0.332696
0.335083
0.336306
0.336481
0.334862
0.331848
0.32966
0.327184
0.323596
0.317662
0.311759
0.310774
0.310566
0.30696
0.302604
0.297887
0.291442
0.284129
0.27748
0.271326
0.265048
0.25963
0.255775
0.253287
0.250844
0.247606
0.244428
0.240561
0.23744
0.237603
0.238701
0.238618
0.236845
0.233368
0.228595
0.222623
0.21785
0.216662
0.218736
0.219823
0.216041
0.21064
0.20676
0.203852
0.203689
0.205875
0.206289
0.205063
0.203815
0.203023
0.205408
0.20737
0.204727
0.202193
0.200526
0.197765
0.195986
0.196228
0.197162
0.195847
0.193953
0.194958
0.194985
0.192578
0.190144
0.185108
0.178492
0.175307
0.173896
0.171838
0.170304
0.168495
0.166348
0.164475
0.161364
0.157655
0.1544
0.149155
0.141642
0.134887
0.130266
0.127364
0.12489
0.12116
0.11671
0.112928
0.109195
0.104551
0.0997997
0.0962717
0.0938076
0.0926323
0.0949391
0.0982202
0.0970705
0.0936613
0.0921391
0.0913996
0.0901603
0.0887276
0.0871149
0.0851281
0.0811439
0.0735549
0.0660874
0.0631406
0.0618915
0.0585615
0.0539704
0.0491607
0.0450313
0.0417561
0.0373325
0.0332816
0.0320312
0.0313816
0.0287629
0.0240559
0.0194143
0.0157109
0.0142502
0.0153666
0.0157375
0.0140886
0.00988079
0.00475276
0.00143648
-3.53813
-3227.28
-1038.1
539.062
494.453
25.2996
-135.414
-58.1068
18.3653
24.7481
4.59875
-4.9915
-2.71139
0.989236
1.72568
0.90967
0.37829
0.414243
0.581021
0.636143
0.607054
0.576807
0.573866
0.575867
0.570967
0.566483
0.567877
0.568262
0.563675
0.563357
0.563965
0.559677
0.562387
0.567771
0.56501
0.561066
0.554997
0.547436
0.546967
0.548066
0.543871
0.53865
0.534283
0.529951
0.525037
0.52182
0.521192
0.520339
0.518293
0.512839
0.505085
0.498957
0.495568
0.494475
0.491054
0.48553
0.483113
0.482456
0.482092
0.481076
0.479229
0.480864
0.483295
0.480202
0.474908
0.475629
0.480025
0.479709
0.477327
0.475554
0.471091
0.46571
0.46145
0.458268
0.456615
0.456204
0.456278
0.454706
0.451612
0.448249
0.445271
0.443773
0.442672
0.441143
0.43875
0.435778
0.431782
0.426271
0.424679
0.427588
0.427562
0.42465
0.423517
0.423765
0.42174
0.417125
0.413981
0.41109
0.406446
0.404628
0.404634
0.400661
0.395669
0.393144
0.388944
0.383748
0.381009
0.378125
0.375306
0.372858
0.368793
0.365627
0.361953
0.356654
0.353631
0.350845
0.348274
0.347592
0.344849
0.340718
0.337553
0.333964
0.332133
0.334755
0.337864
0.337639
0.336177
0.334113
0.331565
0.329804
0.326662
0.322254
0.317747
0.312866
0.310757
0.310364
0.307018
0.302275
0.298107
0.292584
0.284798
0.276723
0.270902
0.266543
0.261073
0.255403
0.253229
0.25234
0.24844
0.244999
0.242643
0.239632
0.239689
0.240754
0.239644
0.237986
0.233888
0.227282
0.221222
0.217322
0.217609
0.219863
0.218255
0.213563
0.209971
0.207389
0.206314
0.207445
0.20664
0.203208
0.203021
0.205707
0.206761
0.207509
0.207345
0.204681
0.202017
0.199894
0.199262
0.198593
0.196113
0.196332
0.196868
0.194561
0.194307
0.194236
0.191841
0.189883
0.185786
0.179565
0.175134
0.171539
0.168812
0.168747
0.167875
0.166162
0.16581
0.163505
0.158139
0.152865
0.147835
0.142071
0.135988
0.130815
0.128411
0.125905
0.120858
0.116188
0.112052
0.108237
0.105808
0.10151
0.0956749
0.0936177
0.0943003
0.0955408
0.0971048
0.0959655
0.0934037
0.0933653
0.0938354
0.0920306
0.0894191
0.08804
0.0859358
0.0805008
0.0740706
0.0691709
0.0650499
0.0614366
0.0585579
0.0557544
0.0515661
0.0455136
0.0400315
0.0358068
0.0325687
0.0321071
0.0320458
0.0289612
0.0230899
0.0186165
0.0173585
0.0159598
0.0147779
0.0141342
0.0122808
0.00879883
0.00530898
0.00216377
-3.53968
-3227.28
-1038.1
539.064
494.452
25.2969
-135.415
-58.1047
18.3657
24.7502
4.60323
-4.99612
-2.72059
0.987717
1.7307
0.91273
0.374342
0.406862
0.578573
0.637097
0.607014
0.577497
0.575407
0.57562
0.572285
0.567792
0.560528
0.563699
0.572619
0.568757
0.558939
0.557327
0.564577
0.568304
0.562199
0.556069
0.551818
0.547275
0.547146
0.546556
0.540617
0.534585
0.531897
0.529768
0.526677
0.52445
0.521917
0.518004
0.515752
0.512233
0.505095
0.500559
0.498041
0.493668
0.48958
0.487859
0.486191
0.482742
0.481152
0.481385
0.481258
0.483149
0.482692
0.479083
0.478282
0.478544
0.478491
0.479039
0.476912
0.471282
0.466504
0.464901
0.461567
0.458039
0.457574
0.45541
0.453007
0.452713
0.451121
0.448885
0.444784
0.439853
0.439776
0.441888
0.439532
0.434695
0.430244
0.426597
0.426365
0.427367
0.426001
0.424863
0.424187
0.423097
0.421746
0.417065
0.412497
0.410557
0.406855
0.404038
0.403623
0.400137
0.395288
0.392573
0.388663
0.383758
0.381078
0.377669
0.373509
0.371416
0.368897
0.366002
0.362125
0.355781
0.351421
0.350009
0.348437
0.346767
0.343951
0.33979
0.335913
0.333676
0.333236
0.333881
0.335645
0.336952
0.336632
0.334914
0.332328
0.330093
0.32557
0.318908
0.314709
0.311599
0.310277
0.311706
0.308917
0.301703
0.296329
0.291651
0.285286
0.27723
0.269945
0.26444
0.259773
0.256514
0.255244
0.254168
0.249951
0.244089
0.240804
0.240439
0.242207
0.242987
0.241467
0.238864
0.232487
0.224616
0.219601
0.216474
0.217009
0.219202
0.21704
0.212838
0.20957
0.206545
0.205
0.206408
0.207764
0.205285
0.203014
0.20484
0.205961
0.206795
0.208146
0.206402
0.203168
0.200537
0.198941
0.198153
0.195878
0.194573
0.195404
0.195356
0.195369
0.195302
0.192665
0.187875
0.181725
0.175781
0.173188
0.172062
0.170205
0.168647
0.166923
0.164252
0.163825
0.163499
0.158483
0.15226
0.146494
0.139796
0.135068
0.132315
0.129544
0.126275
0.120381
0.113782
0.11007
0.107633
0.105408
0.102263
0.0970346
0.093819
0.0949597
0.0957033
0.0949857
0.0950134
0.0947831
0.0947183
0.0937483
0.0900233
0.0886353
0.0904459
0.0883754
0.0820019
0.0747973
0.0679401
0.0644892
0.0633383
0.0598181
0.0554959
0.0507931
0.0439045
0.0393708
0.0372712
0.033855
0.0320081
0.0311344
0.0275761
0.0223725
0.0174391
0.0150694
0.0143586
0.013848
0.0129962
0.0122312
0.0104347
0.00622993
0.00212673
-3.53915
-3227.27
-1038.1
539.06
494.451
25.2992
-135.414
-58.1063
18.3624
24.7447
4.59965
-4.99219
-2.71544
0.988569
1.72808
0.91037
0.374159
0.407537
0.579136
0.636754
0.608733
0.578813
0.571435
0.572325
0.570927
0.56596
0.563957
0.568818
0.569292
0.563583
0.563277
0.56604
0.565982
0.563556
0.559149
0.554677
0.551564
0.548485
0.544456
0.542204
0.540588
0.536994
0.533217
0.528273
0.523715
0.524222
0.525829
0.523582
0.517348
0.50892
0.504014
0.503333
0.500132
0.495085
0.491755
0.488164
0.48638
0.486186
0.483472
0.482003
0.484179
0.48548
0.483377
0.480408
0.479606
0.479552
0.479557
0.478864
0.476312
0.471783
0.466048
0.4626
0.461073
0.458039
0.456551
0.456449
0.455007
0.452785
0.449649
0.446854
0.444664
0.441099
0.440821
0.442222
0.438349
0.432286
0.429716
0.429066
0.42843
0.428985
0.429076
0.426735
0.424025
0.422309
0.42066
0.41766
0.414165
0.411694
0.408388
0.403944
0.401646
0.40132
0.398402
0.392489
0.386737
0.382683
0.38089
0.378586
0.374913
0.373215
0.370817
0.365612
0.360014
0.354564
0.352407
0.352311
0.349931
0.346919
0.343578
0.33837
0.333886
0.332817
0.334967
0.337049
0.337149
0.337363
0.337265
0.334375
0.330571
0.328502
0.325022
0.31938
0.315582
0.312268
0.310004
0.310505
0.308016
0.303311
0.298449
0.290972
0.283861
0.27788
0.270537
0.265238
0.261727
0.257392
0.254857
0.254769
0.251329
0.245415
0.243475
0.243548
0.244109
0.245475
0.243207
0.23803
0.231257
0.223313
0.219092
0.21812
0.218099
0.218157
0.214886
0.210436
0.209049
0.209243
0.208757
0.207851
0.206462
0.203361
0.203408
0.207285
0.20824
0.208123
0.208427
0.206054
0.204653
0.202382
0.198708
0.198467
0.196846
0.194363
0.19687
0.197843
0.194147
0.192283
0.19167
0.187433
0.181395
0.176997
0.173722
0.171485
0.169192
0.166256
0.16561
0.166153
0.164845
0.162064
0.157463
0.152279
0.146911
0.139837
0.134946
0.132802
0.129952
0.125858
0.118795
0.112584
0.111425
0.109419
0.105081
0.1021
0.0986621
0.0957466
0.0968662
0.0968819
0.0935338
0.0935704
0.0960655
0.0956825
0.0940538
0.0927258
0.0912071
0.0898592
0.0878847
0.0835867
0.0764354
0.0694112
0.0654681
0.0632297
0.0598042
0.0557132
0.0517255
0.0456977
0.0390626
0.0359944
0.0348843
0.0334126
0.0313507
0.0261352
0.0207544
0.0167164
0.0147538
0.0162267
0.0165463
0.0143895
0.0132167
0.0107676
0.00536955
0.00168483
-3.53946
-3227.27
-1038.1
539.062
494.456
25.3012
-135.416
-58.1084
18.3641
24.7494
4.6001
-4.99502
-2.71913
0.986525
1.72805
0.910107
0.375825
0.408059
0.577585
0.637235
0.607838
0.574652
0.5697
0.573731
0.569971
0.564091
0.565805
0.569599
0.568387
0.566187
0.564807
0.564454
0.563756
0.55917
0.555231
0.5544
0.552192
0.549136
0.543591
0.538148
0.537409
0.534928
0.531683
0.530256
0.525669
0.523447
0.525494
0.523091
0.515784
0.510802
0.506944
0.500567
0.496953
0.496592
0.493962
0.490692
0.487846
0.483444
0.483256
0.48767
0.487356
0.484265
0.483402
0.48092
0.480208
0.48314
0.481337
0.475901
0.472696
0.468568
0.46363
0.462751
0.461597
0.457518
0.455622
0.454877
0.452158
0.452027
0.450544
0.443969
0.439671
0.439117
0.440596
0.441788
0.436941
0.431709
0.431937
0.430961
0.427579
0.427297
0.428093
0.426537
0.424802
0.422377
0.420343
0.418928
0.413818
0.409504
0.409083
0.405646
0.400222
0.398326
0.396143
0.390786
0.386667
0.383483
0.381173
0.379577
0.374838
0.370708
0.368559
0.364129
0.359403
0.355989
0.352623
0.350801
0.348598
0.344168
0.340763
0.339315
0.336812
0.333875
0.334281
0.335354
0.335383
0.336889
0.336593
0.333515
0.330921
0.327561
0.322859
0.317785
0.313727
0.312146
0.311668
0.310653
0.307314
0.302247
0.29637
0.289619
0.284007
0.277794
0.270418
0.265482
0.262134
0.258808
0.256153
0.253877
0.250447
0.245816
0.244697
0.246094
0.246409
0.247163
0.244214
0.237112
0.229722
0.221026
0.216211
0.217384
0.218104
0.217513
0.21529
0.210875
0.207232
0.206565
0.207311
0.207254
0.207287
0.205666
0.203247
0.205347
0.208361
0.209006
0.208179
0.206245
0.205207
0.202644
0.199133
0.198661
0.196428
0.193432
0.194887
0.1965
0.196268
0.195696
0.191347
0.183197
0.176601
0.173957
0.173019
0.172399
0.169634
0.165019
0.16469
0.166599
0.164287
0.160911
0.156415
0.149736
0.144112
0.138236
0.134504
0.133986
0.130078
0.122967
0.116229
0.111714
0.111399
0.111046
0.108
0.104815
0.100768
0.0952241
0.0933192
0.0941041
0.0936574
0.0964092
0.0990255
0.0948779
0.0914174
0.0919508
0.0919958
0.0921587
0.090332
0.0836897
0.0758477
0.0702088
0.0668138
0.0639426
0.0589433
0.0532103
0.0493418
0.0451888
0.0400414
0.0376026
0.036049
0.0325218
0.0293807
0.0257705
0.0221396
0.018397
0.0142334
0.0136891
0.0146828
0.0143654
0.013127
0.0103148
0.00630641
0.00223638
-3.53907
-3227.27
-1038.1
539.061
494.455
25.301
-135.412
-58.1038
18.3628
24.7432
4.59379
-4.99623
-2.71393
0.98817
1.72669
0.911367
0.37438
0.403224
0.576443
0.638852
0.606902
0.574408
0.571963
0.57609
0.571613
0.566284
0.565216
0.564769
0.564371
0.565763
0.568726
0.567476
0.560987
0.555689
0.555679
0.555828
0.550889
0.546718
0.54338
0.538588
0.537305
0.535522
0.530704
0.527338
0.525491
0.527151
0.528243
0.522253
0.515378
0.511286
0.507049
0.503975
0.501656
0.496688
0.491521
0.489671
0.489099
0.488755
0.488861
0.487413
0.485563
0.486861
0.486832
0.482334
0.481574
0.484496
0.481575
0.475512
0.472103
0.468173
0.462951
0.46052
0.461637
0.460251
0.456991
0.455154
0.452594
0.449892
0.447535
0.442604
0.439657
0.440868
0.44144
0.438846
0.435374
0.434542
0.433438
0.430823
0.429949
0.429748
0.429019
0.427422
0.424875
0.4227
0.421142
0.419024
0.415194
0.411323
0.408586
0.406115
0.40237
0.3984
0.394187
0.389412
0.385923
0.38438
0.383332
0.380844
0.376188
0.371961
0.367693
0.361744
0.358409
0.357248
0.35471
0.352578
0.349368
0.34419
0.340778
0.338033
0.335322
0.335045
0.336364
0.336828
0.336971
0.337079
0.335015
0.332171
0.329665
0.32608
0.323514
0.319771
0.314803
0.313264
0.311862
0.308773
0.305748
0.30129
0.296532
0.290701
0.283692
0.278443
0.273189
0.266459
0.261307
0.259299
0.256749
0.253385
0.251913
0.249932
0.249528
0.250511
0.248037
0.246119
0.242889
0.234761
0.228316
0.222704
0.218218
0.218611
0.218089
0.21512
0.213152
0.211521
0.209189
0.207945
0.208502
0.207584
0.205755
0.205462
0.205565
0.207325
0.20873
0.208878
0.209583
0.208335
0.206026
0.202587
0.198174
0.19714
0.197733
0.197543
0.197457
0.196294
0.195328
0.193674
0.189246
0.183247
0.177651
0.175048
0.173721
0.170634
0.168313
0.166576
0.165757
0.166333
0.163868
0.15907
0.155058
0.149603
0.14241
0.136351
0.134229
0.133351
0.128897
0.123068
0.117752
0.113411
0.111678
0.110555
0.108274
0.106333
0.103755
0.0991324
0.0947043
0.0926593
0.0929574
0.0958494
0.0982763
0.0969038
0.0945775
0.0932931
0.0930489
0.0933374
0.0908646
0.084999
0.0781591
0.0708259