/*--------------------------------*- C++ -*----------------------------------*\
| =========                 |                                                 |
| \\      /  F ield         | OpenFOAM: The Open Source CFD Toolbox           |
|  \\    /   O peration     | Version:  2406                                  |
|   \\  /    A nd           | Website:  www.openfoam.com                      |
|    \\/     M anipulation  |                                                 |
\*---------------------------------------------------------------------------*/
FoamFile
{
    version     2.0;
    format      ascii;
    arch        "LSB;label=32;scalar=64";
    class       surfaceScalarField;
    location    "2.25";
    object      phi;
}
// * * * * * * * * * * * * * * * * * * * * * * * * * * * * * * * * * * * * * //

dimensions      [0 3 -1 0 0 0 0];

oriented        oriented;

internalField   nonuniform List<scalar> 
12225
(
0.511142
1.70766e-06
0.511136
6.43022e-06
0.511128
7.88526e-06
0.511122
5.98423e-06
0.511117
4.93371e-06
0.511112
5.09344e-06
0.511107
5.23453e-06
0.511102
5.16395e-06
0.511096
5.37915e-06
0.511091
5.40614e-06
0.511086
4.95357e-06
0.511081
4.82512e-06
0.511076
5.13978e-06
0.511071
5.2818e-06
0.511066
5.02654e-06
0.511061
5.0153e-06
0.511055
5.51868e-06
0.511049
5.9088e-06
0.511043
5.95593e-06
0.511038
5.43093e-06
0.511033
4.72016e-06
0.511028
4.90969e-06
0.511023
5.3876e-06
0.511017
5.34446e-06
0.511012
5.3358e-06
0.511007
5.25569e-06
0.511002
5.13806e-06
0.510996
5.41772e-06
0.510991
5.61898e-06
0.510985
5.59345e-06
0.510979
5.60093e-06
0.510974
5.69174e-06
0.510968
5.87945e-06
0.510962
5.81181e-06
0.510956
5.61078e-06
0.510951
5.60985e-06
0.510945
5.57348e-06
0.51094
5.60377e-06
0.510934
5.62691e-06
0.510929
5.28744e-06
0.510924
5.14189e-06
0.510918
5.28561e-06
0.510913
5.11509e-06
0.510908
5.16681e-06
0.510902
5.79045e-06
0.510896
6.03612e-06
0.510891
5.60035e-06
0.510885
5.40029e-06
0.51088
5.63972e-06
0.510874
5.6411e-06
0.510868
5.40625e-06
0.510863
5.12117e-06
0.510859
4.73374e-06
0.510854
4.83298e-06
0.510848
5.47295e-06
0.510843
5.79126e-06
0.510837
5.60471e-06
0.510832
5.25123e-06
0.510827
5.01903e-06
0.510821
5.23524e-06
0.510816
5.70756e-06
0.51081
5.89331e-06
0.510804
5.75854e-06
0.510798
5.65357e-06
0.510793
5.55179e-06
0.510788
5.21845e-06
0.510783
4.95701e-06
0.510778
5.09437e-06
0.510772
5.28491e-06
0.510767
5.28772e-06
0.510762
5.25381e-06
0.510756
5.34628e-06
0.510751
5.69722e-06
0.510745
5.99782e-06
0.510739
5.81714e-06
0.510734
5.33925e-06
0.510729
4.84451e-06
0.510724
4.54132e-06
0.510719
4.67673e-06
0.510714
5.138e-06
0.510709
5.67443e-06
0.510703
6.01778e-06
0.510697
6.00086e-06
0.510691
5.86527e-06
0.510685
5.7172e-06
0.51068
5.34057e-06
0.510675
4.94333e-06
0.51067
5.01466e-06
0.510664
5.41869e-06
0.510659
5.69888e-06
0.510653
5.82591e-06
0.510647
5.7357e-06
0.510642
5.35896e-06
0.510637
5.06354e-06
0.510631
5.22197e-06
0.510626
5.72746e-06
0.51062
6.06303e-06
0.510614
6.14471e-06
0.510607
6.31822e-06
0.510601
6.24139e-06
0.510595
5.66137e-06
0.51059
5.23524e-06
0.510585
5.19471e-06
0.51058
5.08314e-06
0.510575
4.92372e-06
0.51057
5.01348e-06
0.510565
5.1641e-06
0.510559
5.21989e-06
0.510554
5.30706e-06
0.510549
5.3285e-06
0.510543
5.38761e-06
0.510538
5.67544e-06
0.510532
5.87323e-06
0.510526
5.82788e-06
0.51052
5.67346e-06
0.510515
5.41534e-06
0.51051
5.12607e-06
0.510505
4.90595e-06
0.5105
4.86509e-06
0.510495
5.06261e-06
0.51049
5.34498e-06
0.510484
5.48307e-06
0.510479
5.55263e-06
0.510473
5.70771e-06
0.510467
5.83374e-06
0.510461
5.89045e-06
0.510455
5.83821e-06
0.51045
5.51789e-06
0.510445
5.1572e-06
0.51044
5.06297e-06
0.510435
5.08752e-06
0.51043
5.02653e-06
0.510425
4.88789e-06
0.51042
4.87096e-06
0.510415
5.10522e-06
0.510409
5.35876e-06
0.510404
5.49123e-06
0.510398
5.68698e-06
0.510392
5.94082e-06
0.510386
6.02661e-06
0.51038
5.92182e-06
0.510374
5.72451e-06
0.510369
5.43011e-06
0.510364
5.22457e-06
0.510358
5.36326e-06
0.510353
5.57697e-06
0.510347
5.49056e-06
0.510342
5.34053e-06
0.510337
5.42113e-06
0.510331
5.50562e-06
0.510326
5.46319e-06
0.51032
5.3946e-06
0.510315
5.28298e-06
0.51031
5.23718e-06
0.510304
5.39829e-06
0.510299
5.69779e-06
0.510293
5.90816e-06
0.510287
5.78536e-06
0.510281
5.5627e-06
0.510276
5.54041e-06
0.51027
5.57933e-06
0.510265
5.69926e-06
0.510259
5.86264e-06
0.510253
5.70857e-06
0.510248
5.29015e-06
0.510243
4.99313e-06
0.510238
4.959e-06
0.510233
5.07756e-06
0.510227
5.27495e-06
0.510222
5.50815e-06
0.510216
5.55532e-06
0.510211
5.38683e-06
0.510206
5.27173e-06
0.5102
5.2876e-06
0.510195
5.36667e-06
0.51019
5.43745e-06
0.510184
5.32846e-06
0.510179
5.04894e-06
0.510174
4.81904e-06
0.51017
4.85565e-06
0.510164
5.20847e-06
0.510159
5.61842e-06
0.510153
5.78312e-06
0.510147
5.75232e-06
0.510141
5.75704e-06
0.510136
5.75932e-06
0.51013
5.6854e-06
0.510124
5.68553e-06
0.510119
5.66106e-06
0.510113
5.4924e-06
0.510108
5.42338e-06
0.510102
5.51774e-06
0.510097
5.64166e-06
0.510091
5.68453e-06
0.510085
5.55408e-06
0.51008
5.36152e-06
0.510075
5.18399e-06
0.51007
5.07067e-06
0.510065
5.21772e-06
0.510059
5.51329e-06
0.510053
5.68464e-06
0.510048
5.71284e-06
0.510042
5.65695e-06
0.510036
5.62682e-06
0.510031
5.69818e-06
0.510025
5.81241e-06
0.510019
5.86921e-06
0.510013
5.66051e-06
0.510008
5.27751e-06
0.510003
5.17795e-06
0.509998
5.31287e-06
0.509992
5.4347e-06
0.509986
5.66717e-06
0.509981
5.76475e-06
0.509975
5.4746e-06
0.50997
5.30219e-06
0.509964
5.45239e-06
0.509959
5.51587e-06
0.509953
5.45886e-06
0.509948
5.32841e-06
0.509943
4.98589e-06
0.509938
4.81761e-06
0.509933
5.10539e-06
0.509928
5.37145e-06
0.509922
5.46753e-06
0.509917
5.57679e-06
0.509911
5.5683e-06
0.509906
5.56443e-06
0.5099
5.61837e-06
0.509895
5.4622e-06
0.509889
5.25446e-06
0.509884
5.15318e-06
0.509879
5.05759e-06
0.509874
5.0461e-06
0.509869
5.2023e-06
0.509863
5.51531e-06
0.509858
5.76052e-06
0.509852
5.66548e-06
0.509847
5.3799e-06
0.509841
5.16722e-06
0.509836
5.02395e-06
0.509831
4.99459e-06
0.509826
5.20679e-06
0.509821
5.46987e-06
0.509815
5.61045e-06
0.509809
5.71425e-06
0.509804
5.76401e-06
0.509798
5.69181e-06
0.509792
6.24094e-06
5.7879e-06
0.511148
-1.36811e-07
0.511154
4.93995e-07
0.51116
1.45667e-06
0.511164
1.94653e-06
0.511167
2.31736e-06
0.511169
2.53051e-06
0.511172
2.47738e-06
0.511175
2.51312e-06
0.511177
2.67682e-06
0.51118
2.60402e-06
0.511183
2.39386e-06
0.511185
2.44931e-06
0.511188
2.51446e-06
0.511191
2.15593e-06
0.511194
1.85305e-06
0.511197
2.0499e-06
0.5112
2.50117e-06
0.511203
2.63418e-06
0.511207
2.46604e-06
0.51121
2.64985e-06
0.511211
2.87573e-06
0.511214
2.58185e-06
0.511217
2.40655e-06
0.511219
2.53988e-06
0.511222
2.59688e-06
0.511225
2.63669e-06
0.511227
2.6121e-06
0.51123
2.61447e-06
0.511233
2.58916e-06
0.511236
2.41355e-06
0.51124
2.44214e-06
0.511243
2.49447e-06
0.511246
2.35813e-06
0.511249
2.66181e-06
0.511252
3.015e-06
0.511255
2.75035e-06
0.511258
2.27283e-06
0.511262
1.9504e-06
0.511265
2.0616e-06
0.511268
2.45769e-06
0.511271
2.49785e-06
0.511274
2.3618e-06
0.511276
2.44032e-06
0.511279
2.52e-06
0.511282
2.46135e-06
0.511286
2.40599e-06
0.511289
2.53443e-06
0.511292
2.69934e-06
0.511294
3.00408e-06
0.511297
3.38975e-06
0.511299
3.17723e-06
0.511301
2.6658e-06
0.511304
2.47992e-06
0.511306
2.23365e-06
0.51131
1.91391e-06
0.511314
1.84472e-06
0.511317
1.95325e-06
0.51132
2.18935e-06
0.511323
2.51375e-06
0.511325
2.73738e-06
0.511329
2.64942e-06
0.511332
2.31062e-06
0.511336
2.14883e-06
0.511339
2.23523e-06
0.511342
2.35707e-06
0.511345
2.60234e-06
0.511347
2.91364e-06
0.511349
2.88645e-06
0.511352
2.66654e-06
0.511355
2.57279e-06
0.511358
2.27416e-06
0.511361
1.79639e-06
0.511365
1.78207e-06
0.511369
2.14915e-06
0.511372
2.28794e-06
0.511375
2.47712e-06
0.511377
2.94766e-06
0.511379
3.04907e-06
0.511381
2.68602e-06
0.511383
2.47937e-06
0.511387
2.42128e-06
0.51139
2.3096e-06
0.511394
2.46319e-06
0.511397
2.74679e-06
0.5114
2.69612e-06
0.511403
2.55345e-06
0.511405
2.45829e-06
0.511408
2.28488e-06
0.511411
2.32917e-06
0.511414
2.63219e-06
0.511417
2.8987e-06
0.51142
2.93069e-06
0.511423
2.67219e-06
0.511425
2.43429e-06
0.511428
2.29939e-06
0.511432
2.12896e-06
0.511436
2.16656e-06
0.511439
2.34759e-06
0.511443
2.28956e-06
0.511447
2.15252e-06
0.511451
2.32247e-06
0.511453
2.68702e-06
0.511456
2.87675e-06
0.511458
2.80219e-06
0.51146
2.52135e-06
0.511463
2.33659e-06
0.511466
2.53947e-06
0.511468
2.77259e-06
0.511471
2.80369e-06
0.511473
2.72551e-06
0.511476
2.46067e-06
0.51148
2.17968e-06
0.511483
2.07407e-06
0.511487
2.1144e-06
0.511491
2.24278e-06
0.511494
2.43368e-06
0.511496
2.68174e-06
0.511498
2.84045e-06
0.5115
2.75091e-06
0.511503
2.57968e-06
0.511506
2.4247e-06
0.511509
2.29422e-06
0.511512
2.30545e-06
0.511515
2.4439e-06
0.511519
2.53413e-06
0.511522
2.57193e-06
0.511525
2.67567e-06
0.511528
2.74168e-06
0.51153
2.61401e-06
0.511533
2.4356e-06
0.511536
2.47105e-06
0.511538
2.65199e-06
0.51154
2.73434e-06
0.511542
2.85768e-06
0.511544
3.04791e-06
0.511547
2.88854e-06
0.51155
2.45837e-06
0.511553
2.24673e-06
0.511557
2.29872e-06
0.51156
2.44745e-06
0.511564
2.5406e-06
0.511567
2.46859e-06
0.51157
2.40101e-06
0.511573
2.42816e-06
0.511576
2.51579e-06
0.511579
2.73278e-06
0.511581
2.90031e-06
0.511584
2.71957e-06
0.511587
2.39726e-06
0.51159
2.2877e-06
0.511593
2.28142e-06
0.511596
2.26965e-06
0.511599
2.271e-06
0.511602
2.31302e-06
0.511605
2.44649e-06
0.511608
2.51922e-06
0.511612
2.50139e-06
0.511615
2.62574e-06
0.511618
2.83079e-06
0.51162
2.90406e-06
0.511623
2.8747e-06
0.511626
2.77567e-06
0.511629
2.49095e-06
0.511633
2.12938e-06
0.511636
2.00969e-06
0.511639
2.14599e-06
0.511642
2.39026e-06
0.511644
2.54745e-06
0.511647
2.45958e-06
0.51165
2.45688e-06
0.511653
2.69031e-06
0.511656
2.73405e-06
0.511658
2.47568e-06
0.511661
2.19099e-06
0.511665
2.09111e-06
0.511668
2.21977e-06
0.511671
2.46761e-06
0.511673
2.77524e-06
0.511675
2.88939e-06
0.511677
2.6605e-06
0.51168
2.49545e-06
0.511683
2.59621e-06
0.511686
2.76009e-06
0.511689
2.87967e-06
0.511692
2.8695e-06
0.511695
2.68343e-06
0.511698
2.41037e-06
0.511701
2.28417e-06
0.511705
2.41768e-06
0.511708
2.56261e-06
0.51171
2.52936e-06
0.511714
2.40029e-06
0.511717
2.30936e-06
0.51172
2.38706e-06
0.511723
2.52202e-06
0.511726
2.53188e-06
0.511729
2.37989e-06
0.511732
2.07122e-06
0.511735
1.85268e-06
0.511739
1.98121e-06
0.511742
2.31838e-06
0.511745
2.61857e-06
0.511748
2.71602e-06
0.511751
2.69477e-06
0.511754
2.72006e-06
0.511757
2.58953e-06
0.511761
2.33193e-06
0.511764
2.34012e-06
0.511767
2.47853e-06
0.51177
2.36941e-06
0.511773
2.12344e-06
0.511776
2.03757e-06
0.51178
2.16831e-06
0.511783
2.34266e-06
0.511786
2.45388e-06
0.511789
2.55015e-06
0.511792
2.70776e-06
0.511794
2.83841e-06
0.511797
2.71564e-06
0.5118
2.51299e-06
0.511802
2.57468e-06
0.511805
2.76563e-06
0.511807
2.93858e-06
0.511809
2.98235e-06
0.511812
2.67054e-06
0.511815
2.44208e-06
0.511818
2.7369e-06
0.51182
3.10403e-06
0.511823
3.11976e-06
0.511825
2.76813e-06
0.511828
2.37227e-06
0.511831
2.24357e-06
0.511834
2.13009e-06
0.511837
1.85537e-06
0.511841
1.72046e-06
0.511845
1.8961e-06
0.511848
2.26308e-06
0.511851
2.58992e-06
0.511854
2.81275e-06
0.511856
2.99572e-06
0.511858
3.15021e-06
0.511859
3.20567e-06
0.511862
3.10753e-06
0.511864
2.90802e-06
0.511867
2.69143e-06
0.51187
2.49365e-06
0.511874
2.43248e-06
0.511877
2.434e-06
0.511881
2.29138e-06
2.4939e-06
0.511146
2.35244e-07
0.511146
9.78503e-07
0.511146
1.54384e-06
0.511146
1.77943e-06
0.511147
1.58955e-06
0.511148
1.60568e-06
0.511148
2.11892e-06
0.511148
2.25662e-06
0.511149
1.87178e-06
0.51115
1.79421e-06
0.51115
2.17949e-06
0.51115
2.41756e-06
0.51115
2.58497e-06
0.51115
2.57344e-06
0.511149
2.26211e-06
0.511149
1.96155e-06
0.51115
1.90932e-06
0.51115
2.3341e-06
0.51115
2.81851e-06
0.51115
2.71118e-06
0.51115
2.44807e-06
0.51115
2.55708e-06
0.51115
2.55704e-06
0.51115
2.29169e-06
0.511151
1.90942e-06
0.511152
1.6498e-06
0.511153
1.83828e-06
0.511153
2.16845e-06
0.511153
2.52726e-06
0.511153
2.7517e-06
0.511153
2.36486e-06
0.511154
1.8853e-06
0.511154
1.75183e-06
0.511155
1.90933e-06
0.511156
2.24736e-06
0.511156
2.35826e-06
0.511156
2.20583e-06
0.511156
1.97927e-06
0.511156
1.73713e-06
0.511157
1.78751e-06
0.511157
2.11199e-06
0.511158
2.23853e-06
0.511158
2.18955e-06
0.511158
2.39245e-06
0.511158
2.65842e-06
0.511158
2.50185e-06
0.511158
2.4676e-06
0.511158
2.9308e-06
0.511157
3.14315e-06
0.511158
2.82876e-06
0.511159
2.33838e-06
0.511159
2.06113e-06
0.51116
2.06207e-06
0.51116
1.85471e-06
0.511161
1.59392e-06
0.511161
1.59201e-06
0.511161
1.46611e-06
0.511162
1.44195e-06
0.511163
1.96823e-06
0.511163
2.51649e-06
0.511163
2.58623e-06
0.511163
2.46016e-06
0.511162
2.41878e-06
0.511162
2.43531e-06
0.511162
2.41393e-06
0.511163
2.21589e-06
0.511163
2.07767e-06
0.511164
2.32983e-06
0.511164
2.41702e-06
0.511165
2.06535e-06
0.511165
2.07775e-06
0.511164
2.42999e-06
0.511164
2.17273e-06
0.511164
1.56981e-06
0.511165
1.38966e-06
0.511166
1.49418e-06
0.511167
1.87553e-06
0.511168
2.64943e-06
0.511167
3.14643e-06
0.511167
2.86783e-06
0.511167
2.40267e-06
0.511167
2.34659e-06
0.511167
2.4038e-06
0.511168
2.13383e-06
0.511169
1.744e-06
0.511169
1.74921e-06
0.51117
2.02529e-06
0.51117
2.15719e-06
0.51117
2.37567e-06
0.51117
2.68038e-06
0.51117
2.59699e-06
0.511171
2.36132e-06
0.511171
2.43458e-06
0.511171
2.60931e-06
0.51117
2.59136e-06
0.51117
2.56448e-06
0.51117
2.61969e-06
0.511169
2.51319e-06
0.511169
2.27941e-06
0.51117
1.97792e-06
0.51117
1.64164e-06
0.511171
1.65482e-06
0.511172
1.94348e-06
0.511173
2.04199e-06
0.511174
1.96288e-06
0.511174
1.95657e-06
0.511174
2.13675e-06
0.511175
2.37655e-06
0.511175
2.51103e-06
0.511175
2.52908e-06
0.511175
2.40266e-06
0.511175
2.25949e-06
0.511175
2.18309e-06
0.511175
2.0687e-06
0.511175
2.011e-06
0.511176
2.09689e-06
0.511176
2.23977e-06
0.511177
2.3913e-06
0.511177
2.50705e-06
0.511177
2.56822e-06
0.511177
2.57784e-06
0.511176
2.53448e-06
0.511176
2.41445e-06
0.511176
2.37714e-06
0.511176
2.5369e-06
0.511176
2.58318e-06
0.511177
2.40913e-06
0.511177
2.32877e-06
0.511177
2.43069e-06
0.511177
2.51884e-06
0.511177
2.44078e-06
0.511178
2.31911e-06
0.511178
2.28517e-06
0.511179
2.2548e-06
0.511179
2.28935e-06
0.51118
2.39215e-06
0.51118
2.33364e-06
0.51118
2.17951e-06
0.51118
2.12493e-06
0.51118
2.18911e-06
0.511181
2.26158e-06
0.511181
2.15938e-06
0.511181
2.00811e-06
0.511182
2.04081e-06
0.511182
2.13788e-06
0.511183
2.28542e-06
0.511183
2.62723e-06
0.511183
2.87679e-06
0.511182
2.75269e-06
0.511182
2.44011e-06
0.511182
2.11115e-06
0.511183
1.94408e-06
0.511183
2.16354e-06
0.511183
2.49965e-06
0.511183
2.51403e-06
0.511183
2.28504e-06
0.511183
2.08898e-06
0.511184
1.97376e-06
0.511185
2.0553e-06
0.511185
2.45397e-06
0.511185
2.81544e-06
0.511185
2.80046e-06
0.511185
2.50152e-06
0.511185
2.07776e-06
0.511185
1.79967e-06
0.511186
1.81198e-06
0.511186
1.88724e-06
0.511187
1.94962e-06
0.511187
2.01624e-06
0.511188
2.09276e-06
0.511188
2.22658e-06
0.511189
2.30026e-06
0.511189
2.3595e-06
0.511188
2.47225e-06
0.511188
2.33034e-06
0.511188
1.94127e-06
0.511189
1.75887e-06
0.51119
1.95988e-06
0.511191
2.27485e-06
0.511191
2.46569e-06
0.511191
2.59657e-06
0.511191
2.6536e-06
0.511191
2.53142e-06
0.511191
2.47227e-06
0.511192
2.63357e-06
0.511191
2.73434e-06
0.511191
2.54355e-06
0.511191
2.26738e-06
0.511192
2.22619e-06
0.511192
2.34815e-06
0.511192
2.49514e-06
0.511192
2.60868e-06
0.511191
2.44993e-06
0.511192
2.1392e-06
0.511192
1.99355e-06
0.511193
1.94773e-06
0.511193
1.95592e-06
0.511193
1.90748e-06
0.511194
1.70708e-06
0.511194
1.66846e-06
0.511194
1.82556e-06
0.511195
1.98607e-06
0.511195
2.31362e-06
0.511195
2.76265e-06
0.511195
2.91205e-06
0.511195
2.56816e-06
0.511195
2.02572e-06
0.511196
1.73504e-06
0.511197
1.70725e-06
0.511197
1.73751e-06
0.511198
1.75932e-06
0.511198
1.73376e-06
0.511199
1.7209e-06
0.511199
1.81075e-06
0.5112
2.02137e-06
0.5112
2.33647e-06
0.5112
2.65066e-06
0.5112
2.81332e-06
0.5112
2.70657e-06
0.5112
2.51505e-06
0.5112
2.55275e-06
0.5112
2.60517e-06
0.5112
2.49813e-06
0.511201
2.45819e-06
0.511201
2.40666e-06
0.511201
2.39338e-06
0.511201
2.69238e-06
0.511201
3.02356e-06
0.511202
3.00702e-06
0.511202
2.64855e-06
0.511202
2.10451e-06
0.511203
1.56667e-06
0.511203
1.30312e-06
0.511204
1.4227e-06
0.511204
1.6351e-06
0.511204
1.73062e-06
0.511204
1.8771e-06
0.511205
2.20419e-06
0.511205
2.60819e-06
0.511205
2.8701e-06
0.511205
2.98906e-06
0.511205
3.08485e-06
0.511206
3.04046e-06
0.511206
2.87854e-06
0.511206
2.69328e-06
0.511206
2.36539e-06
0.511206
2.03587e-06
0.511207
1.90215e-06
0.511207
1.82009e-06
1.90359e-06
0.511147
4.76965e-08
0.511147
6.52834e-07
0.511147
1.32791e-06
0.511147
1.47468e-06
0.511148
1.01776e-06
0.511149
1.0171e-06
0.511149
1.57695e-06
0.511149
1.94249e-06
0.511149
2.03919e-06
0.511149
2.13743e-06
0.511149
2.32932e-06
0.511149
2.16382e-06
0.51115
1.67566e-06
0.511151
1.28792e-06
0.511152
1.48554e-06
0.511152
2.03619e-06
0.511152
2.30217e-06
0.511152
2.3461e-06
0.511152
2.10022e-06
0.511153
2.02273e-06
0.511153
2.24513e-06
0.511154
2.04131e-06
0.511154
1.83325e-06
0.511155
2.0217e-06
0.511154
2.33282e-06
0.511153
2.53574e-06
0.511153
2.32656e-06
0.511153
1.91896e-06
0.511154
1.90201e-06
0.511154
2.02766e-06
0.511155
1.92748e-06
0.511155
1.99271e-06
0.511154
2.14714e-06
0.511154
1.98923e-06
0.511155
1.76284e-06
0.511156
1.61248e-06
0.511156
1.38588e-06
0.511157
1.26056e-06
0.511157
1.59712e-06
0.511157
2.13201e-06
0.511157
2.20196e-06
0.511157
2.05292e-06
0.511157
2.11716e-06
0.511157
2.00902e-06
0.511158
1.89813e-06
0.511158
2.34248e-06
0.511158
2.99392e-06
0.511158
3.21517e-06
0.511158
2.77867e-06
0.511159
2.0784e-06
0.511159
1.75183e-06
0.51116
1.76165e-06
0.51116
1.89617e-06
0.51116
1.91498e-06
0.51116
1.56048e-06
0.51116
1.26842e-06
0.51116
1.48192e-06
0.51116
1.85081e-06
0.51116
1.93657e-06
0.51116
1.76948e-06
0.511161
1.65964e-06
0.511162
1.90355e-06
0.511162
2.2886e-06
0.511162
2.34795e-06
0.511162
2.16895e-06
0.511163
2.02202e-06
0.511163
1.84603e-06
0.511163
1.69356e-06
0.511164
1.67962e-06
0.511165
1.66523e-06
0.511165
1.59318e-06
0.511166
1.63902e-06
0.511166
1.81229e-06
0.511166
2.00008e-06
0.511165
2.15273e-06
0.511164
2.20191e-06
0.511164
2.10523e-06
0.511165
2.00639e-06
0.511166
2.03789e-06
0.511166
2.21139e-06
0.511166
2.5319e-06
0.511166
2.66602e-06
0.511166
2.24325e-06
0.511167
1.66878e-06
0.511167
1.34908e-06
0.511167
1.27136e-06
0.511168
1.56193e-06
0.511168
2.07605e-06
0.511168
2.51318e-06
0.511168
2.64939e-06
0.511168
2.36151e-06
0.511169
2.00107e-06
0.511169
1.88905e-06
0.51117
1.95844e-06
0.51117
2.06623e-06
0.511171
2.16987e-06
0.511171
2.39933e-06
0.511171
2.54802e-06
0.511171
2.3153e-06
0.511171
2.02838e-06
0.51117
1.96526e-06
0.51117
1.86439e-06
0.511171
1.55144e-06
0.511171
1.36364e-06
0.511172
1.56317e-06
0.511172
1.80456e-06
0.511172
1.91321e-06
0.511172
1.99228e-06
0.511173
1.91325e-06
0.511174
1.77708e-06
0.511174
1.72924e-06
0.511175
1.68259e-06
0.511175
1.75499e-06
0.511176
2.0131e-06
0.511175
2.17534e-06
0.511175
2.1125e-06
0.511175
2.12048e-06
0.511176
2.32455e-06
0.511176
2.39622e-06
0.511176
2.26582e-06
0.511176
2.17806e-06
0.511177
2.21775e-06
0.511177
2.3423e-06
0.511177
2.49893e-06
0.511177
2.6087e-06
0.511177
2.53545e-06
0.511177
2.25738e-06
0.511177
2.05269e-06
0.511177
2.18423e-06
0.511177
2.47513e-06
0.511177
2.53535e-06
0.511177
2.41515e-06
0.511177
2.30836e-06
0.511177
2.03611e-06
0.511178
1.67985e-06
0.511179
1.59813e-06
0.511179
1.71509e-06
0.51118
1.83737e-06
0.51118
1.9332e-06
0.51118
1.92317e-06
0.511181
1.84564e-06
0.511181
1.82798e-06
0.511181
1.89719e-06
0.511181
1.99653e-06
0.511181
1.96901e-06
0.511182
1.84088e-06
0.511182
1.93481e-06
0.511183
2.22439e-06
0.511183
2.39591e-06
0.511183
2.41145e-06
0.511183
2.26462e-06
0.511183
2.06813e-06
0.511183
2.13394e-06
0.511183
2.33044e-06
0.511183
2.37361e-06
0.511183
2.27722e-06
0.511183
2.10468e-06
0.511183
2.0235e-06
0.511183
2.15516e-06
0.511183
2.38648e-06
0.511184
2.51111e-06
0.511184
2.34393e-06
0.511185
1.94564e-06
0.511185
1.64345e-06
0.511185
1.66403e-06
0.511185
1.80561e-06
0.511185
1.76299e-06
0.511186
1.67318e-06
0.511186
1.70035e-06
0.511186
1.72827e-06
0.511187
1.77964e-06
0.511187
1.90681e-06
0.511188
2.00199e-06
0.511188
2.03499e-06
0.511188
2.08565e-06
0.511188
2.13916e-06
0.511188
2.04293e-06
0.511188
1.89065e-06
0.511188
1.97861e-06
0.511188
2.18675e-06
0.511189
2.34552e-06
0.511189
2.56472e-06
0.511189
2.65227e-06
0.511189
2.42127e-06
0.511189
2.13502e-06
0.51119
2.03308e-06
0.51119
2.12851e-06
0.51119
2.19889e-06
0.51119
2.13186e-06
0.511191
2.07934e-06
0.511191
2.09967e-06
0.511192
2.17589e-06
0.511192
2.24106e-06
0.511192
2.18162e-06
0.511192
1.99441e-06
0.511192
1.60305e-06
0.511193
1.17849e-06
0.511194
1.15079e-06
0.511194
1.43697e-06
0.511194
1.69436e-06
0.511194
1.88358e-06
0.511194
1.99966e-06
0.511194
2.08246e-06
0.511195
2.18258e-06
0.511195
2.23465e-06
0.511196
2.15353e-06
0.511196
1.87772e-06
0.511196
1.49475e-06
0.511197
1.20553e-06
0.511197
1.21729e-06
0.511197
1.45973e-06
0.511198
1.53697e-06
0.511198
1.44849e-06
0.511198
1.54049e-06
0.511198
1.84484e-06
0.511198
2.21353e-06
0.511199
2.45024e-06
0.511199
2.48476e-06
0.511199
2.48949e-06
0.511199
2.49881e-06
0.511199
2.53553e-06
0.511199
2.52022e-06
0.5112
2.2196e-06
0.5112
2.00234e-06
0.5112
2.23203e-06
0.5112
2.53581e-06
0.5112
2.61102e-06
0.511201
2.46626e-06
0.511201
2.24683e-06
0.511202
2.0669e-06
0.511202
1.72408e-06
0.511203
1.27181e-06
0.511203
1.11054e-06
0.511203
1.22684e-06
0.511203
1.35765e-06
0.511204
1.5377e-06
0.511204
1.86595e-06
0.511204
2.22249e-06
0.511204
2.48278e-06
0.511204
2.58029e-06
0.511204
2.47045e-06
0.511205
2.40153e-06
0.511206
2.54153e-06
0.511206
2.57706e-06
0.511206
2.47772e-06
0.511206
2.3809e-06
0.511206
2.17632e-06
0.511206
1.97417e-06
0.511206
1.84979e-06
1.80949e-06
0.511147
1.38736e-07
0.511147
4.86146e-07
0.511147
6.81766e-07
0.511148
7.26667e-07
0.511148
9.7156e-07
0.511148
1.27548e-06
0.511148
1.3698e-06
0.511149
1.40226e-06
0.511149
1.63556e-06
0.511149
1.84405e-06
0.51115
1.82654e-06
0.51115
1.69205e-06
0.51115
1.54431e-06
0.51115
1.65153e-06
0.51115
1.99789e-06
0.511149
2.50994e-06
0.511149
2.69186e-06
0.511149
2.406e-06
0.511149
2.18869e-06
0.511149
1.59149e-06
0.51115
1.19402e-06
0.51115
1.74974e-06
0.51115
2.1848e-06
0.51115
2.24797e-06
0.51115
2.29634e-06
0.51115
2.0943e-06
0.511151
1.88081e-06
0.511151
1.6657e-06
0.511152
1.10342e-06
0.511153
7.67538e-07
0.511154
9.48619e-07
0.511155
1.28899e-06
0.511155
1.73788e-06
0.511155
1.80417e-06
0.511156
1.32643e-06
0.511156
1.00342e-06
0.511156
1.18376e-06
0.511156
1.5756e-06
0.511156
1.63704e-06
0.511157
1.54461e-06
0.511157
1.79511e-06
0.511157
2.0409e-06
0.511157
2.04839e-06
0.511157
2.19305e-06
0.511156
2.45627e-06
0.511156
2.57024e-06
0.511157
2.49674e-06
0.511158
2.36981e-06
0.511158
2.16746e-06
0.511158
1.85982e-06
0.511158
1.72885e-06
0.511159
1.65453e-06
0.511159
1.34755e-06
0.51116
1.11364e-06
0.51116
1.05102e-06
0.511161
1.07113e-06
0.511161
1.31191e-06
0.511161
1.62709e-06
0.511161
1.71204e-06
0.511161
1.56282e-06
0.511162
1.48394e-06
0.511162
1.6396e-06
0.511162
1.79445e-06
0.511163
1.8129e-06
0.511163
1.71967e-06
0.511164
1.49427e-06
0.511164
1.41047e-06
0.511164
1.54746e-06
0.511165
1.46206e-06
0.511165
1.20262e-06
0.511165
1.23151e-06
0.511166
1.43538e-06
0.511166
1.52424e-06
0.511166
1.69289e-06
0.511166
2.10705e-06
0.511166
2.47115e-06
0.511166
2.3871e-06
0.511166
1.99377e-06
0.511166
1.91697e-06
0.511166
2.09889e-06
0.511167
2.03753e-06
0.511167
1.89488e-06
0.511168
1.67665e-06
0.511168
1.24399e-06
0.511169
1.01881e-06
0.511169
1.12412e-06
0.511169
1.36874e-06
0.511169
1.76509e-06
0.51117
2.18738e-06
0.51117
2.38098e-06
0.51117
2.32866e-06
0.51117
2.22708e-06
0.511169
2.16392e-06
0.511169
2.15584e-06
0.511169
2.10549e-06
0.511169
1.92105e-06
0.51117
1.90328e-06
0.51117
1.96758e-06
0.511171
1.77011e-06
0.511171
1.65669e-06
0.511172
1.7042e-06
0.511172
1.55266e-06
0.511172
1.39621e-06
0.511172
1.4209e-06
0.511172
1.47982e-06
0.511172
1.57354e-06
0.511173
1.716e-06
0.511173
1.76877e-06
0.511173
1.70939e-06
0.511173
1.63774e-06
0.511173
1.51773e-06
0.511174
1.42387e-06
0.511174
1.49296e-06
0.511174
1.54016e-06
0.511175
1.6232e-06
0.511175
1.89398e-06
0.511175
2.01926e-06
0.511176
2.01721e-06
0.511176
2.18571e-06
0.511176
2.29557e-06
0.511176
2.19365e-06
0.511176
2.141e-06
0.511176
2.20087e-06
0.511176
2.23989e-06
0.511177
2.2579e-06
0.511177
2.18025e-06
0.511177
2.00163e-06
0.511177
1.96337e-06
0.511177
2.06274e-06
0.511178
2.10608e-06
0.511178
2.0696e-06
0.511179
2.02787e-06
0.511179
2.09528e-06
0.511179
2.14372e-06
0.511178
1.94452e-06
0.511178
1.67789e-06
0.511179
1.54116e-06
0.511179
1.46281e-06
0.511179
1.44238e-06
0.51118
1.42663e-06
0.51118
1.30724e-06
0.511181
1.24967e-06
0.511181
1.43395e-06
0.511182
1.74209e-06
0.511182
1.98864e-06
0.511181
2.04179e-06
0.511181
1.99557e-06
0.511182
2.07441e-06
0.511182
2.10578e-06
0.511182
1.97115e-06
0.511183
2.03394e-06
0.511182
2.24517e-06
0.511182
2.21219e-06
0.511183
2.09868e-06
0.511183
2.08474e-06
0.511183
1.96021e-06
0.511183
1.87268e-06
0.511183
2.05501e-06
0.511183
2.26236e-06
0.511183
2.36772e-06
0.511183
2.27599e-06
0.511184
1.82379e-06
0.511185
1.42148e-06
0.511185
1.35769e-06
0.511185
1.34288e-06
0.511186
1.34157e-06
0.511186
1.40842e-06
0.511186
1.48582e-06
0.511186
1.63782e-06
0.511186
1.67791e-06
0.511187
1.50832e-06
0.511187
1.42207e-06
0.511188
1.43808e-06
0.511188
1.43025e-06
0.511189
1.5431e-06
0.511189
1.79787e-06
0.511189
1.99309e-06
0.511189
2.01177e-06
0.511189
2.01297e-06
0.511189
2.16086e-06
0.511189
2.27664e-06
0.511189
2.26844e-06
0.51119
2.24763e-06
0.51119
2.13314e-06
0.51119
1.92952e-06
0.51119
1.83595e-06
0.511191
1.86551e-06
0.511191
1.91857e-06
0.511191
1.95507e-06
0.511191
1.96755e-06
0.511191
1.94535e-06
0.511192
1.92281e-06
0.511192
1.9071e-06
0.511192
1.7856e-06
0.511193
1.54629e-06
0.511193
1.26462e-06
0.511193
1.02935e-06
0.511193
1.02411e-06
0.511194
1.21357e-06
0.511194
1.38991e-06
0.511194
1.55936e-06
0.511195
1.7619e-06
0.511195
1.87748e-06
0.511195
1.77691e-06
0.511196
1.59872e-06
0.511196
1.53241e-06
0.511197
1.43433e-06
0.511197
1.26475e-06
0.511197
1.14164e-06
0.511197
1.06505e-06
0.511198
1.13273e-06
0.511198
1.23646e-06
0.511198
1.20502e-06
0.511198
1.31554e-06
0.511199
1.63931e-06
0.511199
1.92901e-06
0.511199
2.12221e-06
0.511199
2.21463e-06
0.5112
2.30341e-06
0.5112
2.43068e-06
0.5112
2.41475e-06
0.5112
2.28807e-06
0.5112
2.18729e-06
0.5112
2.16226e-06
0.5112
2.28226e-06
0.5112
2.37986e-06
0.5112
2.21411e-06
0.511201
1.94144e-06
0.511201
1.77333e-06
0.511202
1.5593e-06
0.511202
1.31674e-06
0.511202
1.27928e-06
0.511202
1.26908e-06
0.511202
1.20259e-06
0.511202
1.2821e-06
0.511202
1.44456e-06
0.511203
1.65573e-06
0.511203
1.90777e-06
0.511203
2.0603e-06
0.511204
2.16636e-06
0.511204
2.22695e-06
0.511204
2.21718e-06
0.511204
2.34086e-06
0.511204
2.47445e-06
0.511205
2.3377e-06
0.511205
2.07787e-06
0.511205
1.93164e-06
0.511205
1.91479e-06
0.511205
1.74877e-06
1.53674e-06
0.511147
1.48659e-07
0.511147
2.31654e-07
0.511148
1.81671e-07
0.511148
4.86363e-07
0.511148
1.20847e-06
0.511147
1.53226e-06
0.511147
1.36303e-06
0.511148
1.26034e-06
0.511148
1.14928e-06
0.511149
9.31218e-07
0.51115
9.29033e-07
0.51115
1.33628e-06
0.51115
1.79167e-06
0.51115
1.9961e-06
0.511149
2.3216e-06
0.511149
2.36426e-06
0.51115
2.05409e-06
0.511151
1.73159e-06
0.511151
1.59462e-06
0.511151
1.91628e-06
0.51115
2.01474e-06
0.51115
1.6743e-06
0.511151
1.60631e-06
0.511151
1.63726e-06
0.511152
1.67318e-06
0.511152
1.73761e-06
0.511153
1.32696e-06
0.511154
9.71384e-07
0.511154
9.84702e-07
0.511154
9.41177e-07
0.511154
1.01055e-06
0.511154
1.04582e-06
0.511155
1.01023e-06
0.511155
1.1172e-06
0.511155
1.05077e-06
0.511155
1.12112e-06
0.511155
1.32696e-06
0.511156
1.29198e-06
0.511156
1.3993e-06
0.511156
1.53848e-06
0.511156
1.30746e-06
0.511157
1.47209e-06
0.511157
1.96909e-06
0.511157
2.09446e-06
0.511157
2.15126e-06
0.511157
2.47367e-06
0.511157
2.42132e-06
0.511158
1.78457e-06
0.511159
1.40422e-06
0.511159
1.46151e-06
0.511159
1.51661e-06
0.51116
1.52332e-06
0.51116
1.292e-06
0.51116
9.20661e-07
0.51116
8.49338e-07
0.51116
1.07052e-06
0.51116
1.43836e-06
0.51116
1.57915e-06
0.51116
1.28073e-06
0.511161
1.18844e-06
0.511161
1.52827e-06
0.511161
1.67419e-06
0.511161
1.56238e-06
0.511161
1.47172e-06
0.511162
1.35118e-06
0.511162
1.20526e-06
0.511162
1.06749e-06
0.511163
9.05662e-07
0.511163
9.71923e-07
0.511163
1.21054e-06
0.511163
1.16907e-06
0.511164
1.1317e-06
0.511164
1.4429e-06
0.511164
1.6846e-06
0.511164
1.7322e-06
0.511165
1.82749e-06
0.511165
1.86277e-06
0.511166
1.78292e-06
0.511166
1.91286e-06
0.511165
2.21974e-06
0.511165
2.11576e-06
0.511166
1.52624e-06
0.511166
9.83435e-07
0.511167
9.10012e-07
0.511167
1.14008e-06
0.511167
1.20033e-06
0.511167
1.32745e-06
0.511167
1.73533e-06
0.511167
1.89524e-06
0.511168
1.76767e-06
0.511168
1.72004e-06
0.511169
1.774e-06
0.511169
1.76271e-06
0.51117
1.62979e-06
0.51117
1.68764e-06
0.51117
1.9519e-06
0.51117
1.96736e-06
0.51117
1.67451e-06
0.511171
1.40161e-06
0.511171
1.35674e-06
0.511171
1.37181e-06
0.511171
1.28192e-06
0.511172
1.24233e-06
0.511172
1.23017e-06
0.511172
1.18797e-06
0.511172
1.28024e-06
0.511173
1.4289e-06
0.511173
1.48624e-06
0.511173
1.46162e-06
0.511173
1.3506e-06
0.511174
1.32014e-06
0.511174
1.45522e-06
0.511174
1.50542e-06
0.511174
1.44527e-06
0.511174
1.48826e-06
0.511174
1.53932e-06
0.511175
1.54722e-06
0.511175
1.71689e-06
0.511175
1.89763e-06
0.511176
1.91593e-06
0.511176
2.01391e-06
0.511176
2.2684e-06
0.511175
2.46174e-06
0.511175
2.39078e-06
0.511175
2.06225e-06
0.511176
1.80883e-06
0.511176
1.82643e-06
0.511176
1.93763e-06
0.511176
1.96849e-06
0.511176
1.91301e-06
0.511177
1.79028e-06
0.511177
1.64046e-06
0.511178
1.59544e-06
0.511178
1.60625e-06
0.511179
1.49133e-06
0.511179
1.37471e-06
0.511179
1.43205e-06
0.511179
1.49762e-06
0.511179
1.35401e-06
0.511179
1.08007e-06
0.51118
9.36592e-07
0.51118
9.77697e-07
0.51118
1.02621e-06
0.511181
1.10709e-06
0.511182
1.40879e-06
0.511182
1.76484e-06
0.511182
1.9154e-06
0.511182
1.93096e-06
0.511182
1.8399e-06
0.511183
1.73358e-06
0.511183
1.83143e-06
0.511183
2.00519e-06
0.511183
2.12443e-06