/*--------------------------------*- C++ -*----------------------------------*\
| =========                 |                                                 |
| \\      /  F ield         | OpenFOAM: The Open Source CFD Toolbox           |
|  \\    /   O peration     | Version:  2406                                  |
|   \\  /    A nd           | Website:  www.openfoam.com                      |
|    \\/     M anipulation  |                                                 |
\*---------------------------------------------------------------------------*/
FoamFile
{
    version     2.0;
    format      ascii;
    arch        "LSB;label=32;scalar=64";
    class       volVectorField;
    location    "2.25";
    object      U;
}
// * * * * * * * * * * * * * * * * * * * * * * * * * * * * * * * * * * * * * //

dimensions      [0 1 -1 0 0 0 0];

internalField   nonuniform List<vector> 
6250
(
(50.5478 9.5684e-05 0)
(85.4622 0.000530153 0)
(73.2914 0.000843568 0)
(60.644 0.000875861 0)
(59.8989 0.000803229 0)
(63.3583 0.000763789 0)
(64.868 0.000753353 0)
(64.4167 0.000759818 0)
(63.7996 0.000784658 0)
(63.6968 0.000791384 0)
(63.8393 0.000768268 0)
(63.9237 0.000767913 0)
(63.9132 0.00079796 0)
(63.8837 0.000820102 0)
(63.875 0.000815947 0)
(63.8797 0.000821154 0)
(63.8836 0.000853294 0)
(63.8829 0.000875891 0)
(63.8809 0.000884454 0)
(63.8796 0.000856464 0)
(63.8792 0.00079377 0)
(63.8789 0.000786153 0)
(63.8782 0.000830484 0)
(63.8775 0.000856319 0)
(63.8769 0.00086322 0)
(63.8761 0.000853263 0)
(63.8755 0.000833941 0)
(63.8749 0.000828726 0)
(63.8741 0.000828396 0)
(63.8735 0.000833848 0)
(63.8728 0.000852684 0)
(63.872 0.000884979 0)
(63.8714 0.000927822 0)
(63.8706 0.00094807 0)
(63.8699 0.000936205 0)
(63.8692 0.000921932 0)
(63.8685 0.00092166 0)
(63.8678 0.000942358 0)
(63.8671 0.000958533 0)
(63.8664 0.000933629 0)
(63.8658 0.000905826 0)
(63.8651 0.000904036 0)
(63.8644 0.000891061 0)
(63.8639 0.000882114 0)
(63.8632 0.000919509 0)
(63.8624 0.000959751 0)
(63.8617 0.000945351 0)
(63.861 0.00091257 0)
(63.8603 0.000910653 0)
(63.8596 0.000907996 0)
(63.8589 0.00087948 0)
(63.8582 0.000841514 0)
(63.8576 0.000810205 0)
(63.857 0.000824603 0)
(63.8564 0.000891755 0)
(63.8557 0.000946493 0)
(63.8549 0.000946064 0)
(63.8543 0.000906668 0)
(63.8536 0.000868245 0)
(63.853 0.000867102 0)
(63.8523 0.00090851 0)
(63.8516 0.000958313 0)
(63.8509 0.000986065 0)
(63.8502 0.00099779 0)
(63.8494 0.000992409 0)
(63.8488 0.00095125 0)
(63.8482 0.0008917 0)
(63.8475 0.000854921 0)
(63.8469 0.000854377 0)
(63.8462 0.000872919 0)
(63.8456 0.000893312 0)
(63.8449 0.000925535 0)
(63.8442 0.000985044 0)
(63.8435 0.0010363 0)
(63.8427 0.00102644 0)
(63.842 0.000961608 0)
(63.8414 0.000875485 0)
(63.8408 0.000801943 0)
(63.8403 0.000781798 0)
(63.8396 0.000822442 0)
(63.8389 0.000891035 0)
(63.8382 0.000947199 0)
(63.8374 0.000970328 0)
(63.8367 0.000973148 0)
(63.836 0.000969779 0)
(63.8353 0.000950095 0)
(63.8346 0.000918316 0)
(63.834 0.000915929 0)
(63.8334 0.000951224 0)
(63.8327 0.000981615 0)
(63.832 0.000988855 0)
(63.8312 0.000977253 0)
(63.8305 0.000949618 0)
(63.8299 0.000930063 0)
(63.8293 0.000950002 0)
(63.8286 0.00101035 0)
(63.8278 0.00106712 0)
(63.8271 0.00109249 0)
(63.8263 0.00110707 0)
(63.8255 0.00109597 0)
(63.8247 0.00102754 0)
(63.8241 0.000941586 0)
(63.8234 0.000889952 0)
(63.8228 0.000871993 0)
(63.8222 0.000876192 0)
(63.8216 0.000900467 0)
(63.8209 0.000922574 0)
(63.8203 0.000925986 0)
(63.8196 0.000922585 0)
(63.8189 0.000915601 0)
(63.8183 0.000919172 0)
(63.8176 0.000958219 0)
(63.8169 0.0010141 0)
(63.8161 0.0010499 0)
(63.8154 0.00104998 0)
(63.8147 0.00101858 0)
(63.814 0.000968015 0)
(63.8134 0.000912034 0)
(63.8128 0.000872988 0)
(63.8122 0.000870581 0)
(63.8116 0.000896767 0)
(63.8109 0.000924673 0)
(63.8102 0.000942012 0)
(63.8095 0.000957974 0)
(63.8087 0.000979369 0)
(63.808 0.00100656 0)
(63.8073 0.00102413 0)
(63.8066 0.00100538 0)
(63.8059 0.000962861 0)
(63.8053 0.000933535 0)
(63.8046 0.000918085 0)
(63.804 0.0008885 0)
(63.8034 0.000837042 0)
(63.8028 0.000795502 0)
(63.8022 0.000791616 0)
(63.8015 0.000820958 0)
(63.8008 0.000882513 0)
(63.8001 0.000975989 0)
(63.7994 0.00106827 0)
(63.7986 0.00111438 0)
(63.7979 0.0011037 0)
(63.7972 0.00106028 0)
(63.7965 0.00100403 0)
(63.7958 0.000951299 0)
(63.7952 0.00093137 0)
(63.7945 0.000943467 0)
(63.7938 0.00095207 0)
(63.7931 0.000958161 0)
(63.7924 0.000989836 0)
(63.7917 0.00103319 0)
(63.791 0.00105264 0)
(63.7904 0.00103726 0)
(63.7897 0.00099646 0)
(63.789 0.000957328 0)
(63.7884 0.000943839 0)
(63.7877 0.000955563 0)
(63.787 0.000972864 0)
(63.7862 0.000971001 0)
(63.7855 0.000959396 0)
(63.7848 0.000965298 0)
(63.7841 0.000986396 0)
(63.7834 0.00101777 0)
(63.7827 0.00105155 0)
(63.782 0.00105381 0)
(63.7813 0.00100897 0)
(63.7807 0.000946918 0)
(63.78 0.00090581 0)
(63.7794 0.000895989 0)
(63.7788 0.000912689 0)
(63.7781 0.000945978 0)
(63.7774 0.000965963 0)
(63.7767 0.000959029 0)
(63.7761 0.000951421 0)
(63.7754 0.000960232 0)
(63.7747 0.00097519 0)
(63.774 0.000975804 0)
(63.7734 0.0009448 0)
(63.7727 0.000888873 0)
(63.7721 0.000839755 0)
(63.7715 0.000835943 0)
(63.7709 0.00088839 0)
(63.7702 0.000958138 0)
(63.7695 0.000998007 0)
(63.7688 0.00100382 0)
(63.7681 0.00100629 0)
(63.7673 0.00102233 0)
(63.7666 0.00104329 0)
(63.7659 0.0010602 0)
(63.7652 0.00105824 0)
(63.7645 0.00103063 0)
(63.7638 0.00100342 0)
(63.7631 0.00100138 0)
(63.7624 0.0010217 0)
(63.7617 0.00104023 0)
(63.761 0.00103391 0)
(63.7603 0.00100966 0)
(63.7597 0.000982831 0)
(63.759 0.000963188 0)
(63.7584 0.000965039 0)
(63.7577 0.000980415 0)
(63.757 0.000988762 0)
(63.7563 0.000989957 0)
(63.7556 0.000992218 0)
(63.7549 0.00100663 0)
(63.7542 0.00103666 0)
(63.7535 0.00106796 0)
(63.7527 0.00108272 0)
(63.752 0.00105776 0)
(63.7513 0.000996765 0)
(63.7507 0.000949221 0)
(63.75 0.00093779 0)
(63.7494 0.00094872 0)
(63.7487 0.000978551 0)
(63.7479 0.00100618 0)
(63.7472 0.00100673 0)
(63.7466 0.0010033 0)
(63.7459 0.00101842 0)
(63.7452 0.00103343 0)
(63.7445 0.0010314 0)
(63.7438 0.00100419 0)
(63.7432 0.000942816 0)
(63.7426 0.000879671 0)
(63.742 0.000860842 0)
(63.7413 0.000875041 0)
(63.7406 0.000901369 0)
(63.74 0.000942916 0)
(63.7393 0.000983131 0)
(63.7385 0.00101133 0)
(63.7379 0.00102968 0)
(63.7371 0.00102728 0)
(63.7365 0.00100803 0)
(63.7359 0.0009782 0)
(63.7352 0.000939796 0)
(63.7346 0.000919274 0)
(63.734 0.000939852 0)
(63.7333 0.00098994 0)
(63.7326 0.00102926 0)
(63.7318 0.00102435 0)
(63.7311 0.000988397 0)
(63.7305 0.000952452 0)
(63.7299 0.000922054 0)
(63.7292 0.000898599 0)
(63.7286 0.000900163 0)
(63.7279 0.000926534 0)
(63.7272 0.000956762 0)
(63.7265 0.000981723 0)
(63.7258 0.000998908 0)
(63.7251 0.000997414 0)
(63.7245 0.00104382 0)
(63.7233 0.00105897 0)
(50.5479 7.38825e-05 0)
(85.4634 0.000418167 0)
(73.2945 0.000660815 0)
(60.6489 0.000635792 0)
(59.9048 0.000551101 0)
(63.365 0.000531699 0)
(64.8756 0.00052383 0)
(64.4253 0.000521588 0)
(63.8092 0.000550206 0)
(63.7075 0.000553002 0)
(63.851 0.000499214 0)
(63.9363 0.000472488 0)
(63.9267 0.000479098 0)
(63.8982 0.000446053 0)
(63.8905 0.000388624 0)
(63.8963 0.000394331 0)
(63.9011 0.000483703 0)
(63.9016 0.000548864 0)
(63.9008 0.000535454 0)
(63.9007 0.000491906 0)
(63.9012 0.000446922 0)
(63.9015 0.000436883 0)
(63.902 0.000458691 0)
(63.9023 0.000470403 0)
(63.9026 0.000487902 0)
(63.9029 0.000503321 0)
(63.9033 0.000501011 0)
(63.9036 0.000516428 0)
(63.904 0.000524398 0)
(63.9043 0.000501465 0)
(63.9048 0.000490872 0)
(63.9051 0.000499323 0)
(63.9056 0.000511161 0)
(63.906 0.000520967 0)
(63.9063 0.000512433 0)
(63.9066 0.000484139 0)
(63.9071 0.000450775 0)
(63.9075 0.000432336 0)
(63.908 0.00043887 0)
(63.9084 0.000439798 0)
(63.9087 0.000427569 0)
(63.909 0.000419947 0)
(63.9094 0.000406552 0)
(63.9097 0.000410949 0)
(63.91 0.000447228 0)
(63.9105 0.000465293 0)
(63.911 0.000451629 0)
(63.9113 0.000450991 0)
(63.9116 0.000490567 0)
(63.912 0.00052606 0)
(63.9122 0.000504101 0)
(63.9125 0.000451389 0)
(63.9128 0.000409546 0)
(63.9131 0.000399189 0)
(63.9135 0.000426453 0)
(63.914 0.000448897 0)
(63.9145 0.000440834 0)
(63.9149 0.000426138 0)
(63.9152 0.000429061 0)
(63.9155 0.000452936 0)
(63.9159 0.000467288 0)
(63.9163 0.000448953 0)
(63.9167 0.000422666 0)
(63.9172 0.000416339 0)
(63.9176 0.000417783 0)
(63.918 0.000415238 0)
(63.9183 0.000422498 0)
(63.9185 0.000428232 0)
(63.9188 0.000417248 0)
(63.9192 0.000408494 0)
(63.9195 0.000395515 0)
(63.9199 0.000371903 0)
(63.9203 0.000386615 0)
(63.9209 0.00043841 0)
(63.9213 0.000458445 0)
(63.9217 0.000444841 0)
(63.9221 0.00043187 0)
(63.9222 0.00040622 0)
(63.9224 0.000378468 0)
(63.9227 0.000393218 0)
(63.9231 0.000440996 0)
(63.9235 0.000471029 0)
(63.924 0.000477333 0)
(63.9244 0.000478817 0)
(63.9248 0.000464907 0)
(63.9252 0.000430463 0)
(63.9255 0.000391155 0)
(63.9258 0.000376012 0)
(63.9262 0.000397988 0)
(63.9266 0.000425977 0)
(63.9269 0.000442745 0)
(63.9273 0.00043703 0)
(63.9276 0.000390914 0)
(63.928 0.000342312 0)
(63.9283 0.000335998 0)
(63.9287 0.000365777 0)
(63.9292 0.000401292 0)
(63.9297 0.000427415 0)
(63.9301 0.000451548 0)
(63.9307 0.000457816 0)
(63.9312 0.000443341 0)
(63.9315 0.000445014 0)
(63.9318 0.00045343 0)
(63.9321 0.000426899 0)
(63.9324 0.000374367 0)
(63.9327 0.000346864 0)
(63.9331 0.000359077 0)
(63.9334 0.000380372 0)
(63.9337 0.000398763 0)
(63.934 0.000403969 0)
(63.9343 0.00039314 0)
(63.9347 0.000393224 0)
(63.9352 0.00040099 0)
(63.9357 0.000400269 0)
(63.9361 0.000395043 0)
(63.9365 0.00038714 0)
(63.9369 0.000379076 0)
(63.9371 0.000366948 0)
(63.9374 0.000355625 0)
(63.9377 0.000364615 0)
(63.938 0.000387514 0)
(63.9384 0.000403398 0)
(63.9388 0.000415689 0)
(63.9392 0.000433012 0)
(63.9396 0.000442259 0)
(63.94 0.000443098 0)
(63.9404 0.000445222 0)
(63.9408 0.000429071 0)
(63.9411 0.000390754 0)
(63.9414 0.00036542 0)
(63.9418 0.000374692 0)
(63.9421 0.000398063 0)
(63.9424 0.00040762 0)
(63.9426 0.000423279 0)
(63.9429 0.000455669 0)
(63.9431 0.000455137 0)
(63.9435 0.000417945 0)
(63.9439 0.000398109 0)
(63.9444 0.000405546 0)
(63.9448 0.000413977 0)
(63.9453 0.000408056 0)
(63.9457 0.000392446 0)
(63.9461 0.000380873 0)
(63.9464 0.000379558 0)
(63.9468 0.000394928 0)
(63.9472 0.000418211 0)
(63.9475 0.000411753 0)
(63.9478 0.000369745 0)
(63.9481 0.000338148 0)
(63.9486 0.00033588 0)
(63.9489 0.000343041 0)
(63.9493 0.000349744 0)
(63.9497 0.000350327 0)
(63.9501 0.00035332 0)
(63.9505 0.000380818 0)
(63.9508 0.000422827 0)
(63.9513 0.000450658 0)
(63.9517 0.000454381 0)
(63.952 0.000448547 0)
(63.9524 0.000442484 0)
(63.9527 0.000426707 0)
(63.953 0.000409604 0)
(63.9534 0.000394424 0)
(63.9539 0.000365664 0)
(63.9543 0.000336748 0)
(63.9547 0.000332526 0)
(63.955 0.000354171 0)
(63.9554 0.000377702 0)
(63.9557 0.000387491 0)
(63.9561 0.000404582 0)
(63.9565 0.000424197 0)
(63.9568 0.000413698 0)
(63.9571 0.000380949 0)
(63.9575 0.000351131 0)
(63.9579 0.000344097 0)
(63.9583 0.000367203 0)
(63.9587 0.000397059 0)
(63.959 0.000410464 0)
(63.9593 0.000397581 0)
(63.9595 0.000374326 0)
(63.9598 0.000379525 0)
(63.9602 0.000407733 0)
(63.9605 0.000424471 0)
(63.9609 0.000426562 0)
(63.9613 0.000421446 0)
(63.9616 0.000402442 0)
(63.962 0.000373294 0)
(63.9625 0.000362992 0)
(63.9629 0.000374256 0)
(63.9633 0.000375302 0)
(63.9636 0.000363915 0)
(63.964 0.000356147 0)
(63.9644 0.00035908 0)
(63.9648 0.000372461 0)
(63.9652 0.000378016 0)
(63.9656 0.00036774 0)
(63.9659 0.000345282 0)
(63.9663 0.000315445 0)
(63.9667 0.000312634 0)
(63.9671 0.000352874 0)
(63.9676 0.000403253 0)
(63.968 0.000434178 0)
(63.9683 0.000430885 0)
(63.9687 0.000406596 0)
(63.9691 0.000390797 0)
(63.9694 0.000381635 0)
(63.9699 0.000375506 0)
(63.9704 0.000374527 0)
(63.9707 0.000367913 0)
(63.971 0.000361019 0)
(63.9714 0.000357721 0)
(63.9718 0.000361453 0)
(63.9723 0.000386821 0)
(63.9727 0.000406108 0)
(63.9731 0.000387826 0)
(63.9735 0.000363515 0)
(63.9738 0.000363882 0)
(63.9742 0.000371359 0)
(63.9745 0.000365014 0)
(63.9748 0.000350039 0)
(63.9752 0.000338034 0)
(63.9754 0.000346655 0)
(63.9757 0.000391271 0)
(63.976 0.00042795 0)
(63.9763 0.000413556 0)
(63.9767 0.000391701 0)
(63.9771 0.000397052 0)
(63.9774 0.000408456 0)
(63.9777 0.000400756 0)
(63.978 0.000364292 0)
(63.9784 0.000332683 0)
(63.9787 0.000332093 0)
(63.9791 0.000332139 0)
(63.9795 0.000317459 0)
(63.9799 0.000315124 0)
(63.9803 0.000345552 0)
(63.9808 0.000386235 0)
(63.9812 0.000399719 0)
(63.9816 0.000389386 0)
(63.9819 0.000379978 0)
(63.9821 0.000374581 0)
(63.9823 0.000371629 0)
(63.9825 0.000380964 0)
(63.9829 0.00040075 0)
(63.9832 0.000413312 0)
(63.9836 0.000415033 0)
(63.984 0.000416482 0)
(63.9844 0.000408792 0)
(63.9848 0.000432275 0)
(63.9855 0.00041933 0)
(50.548 1.38192e-05 0)
(85.463 2.47852e-05 0)
(73.2932 7.39077e-06 0)
(60.6468 -5.27314e-06 0)
(59.9022 2.31725e-05 0)
(63.3624 8.95926e-05 0)
(64.8728 0.000141573 0)
(64.4221 0.000145388 0)
(63.8057 0.000115925 0)
(63.7039 9.51133e-05 0)
(63.8471 0.000106523 0)
(63.932 0.000144721 0)
(63.9222 0.000193972 0)
(63.8933 0.000195019 0)
(63.8851 0.0001587 0)
(63.8904 0.000137011 0)
(63.895 0.000138994 0)
(63.8952 0.000160888 0)
(63.8939 0.00018409 0)
(63.8933 0.00020812 0)
(63.8936 0.000230497 0)
(63.8938 0.000227285 0)
(63.8938 0.000203681 0)
(63.8938 0.000171175 0)
(63.8938 0.000124579 0)
(63.8939 9.12569e-05 0)
(63.8941 0.000102987 0)
(63.8941 0.000146156 0)
(63.8942 0.000188911 0)
(63.8941 0.000195755 0)
(63.894 0.000171366 0)
(63.8942 0.000142028 0)
(63.8943 0.000117905 0)
(63.8943 0.000144015 0)
(63.8944 0.000201505 0)
(63.8945 0.000206155 0)
(63.8945 0.00015833 0)
(63.8945 0.000104554 0)
(63.8945 8.62769e-05 0)
(63.8946 0.000118261 0)
(63.8947 0.000154837 0)
(63.8947 0.000173985 0)
(63.8947 0.000192866 0)
(63.8948 0.000221231 0)
(63.8947 0.000234547 0)
(63.8947 0.000207065 0)
(63.8947 0.000197252 0)
(63.8947 0.000239882 0)
(63.8946 0.000286912 0)
(63.8947 0.00030179 0)
(63.8948 0.000257821 0)
(63.8949 0.000196772 0)
(63.8949 0.000172639 0)
(63.895 0.000136869 0)
(63.8951 8.86003e-05 0)
(63.8951 7.27723e-05 0)
(63.8951 7.20012e-05 0)
(63.8952 9.3292e-05 0)
(63.8953 0.00016042 0)
(63.8953 0.000229428 0)
(63.8954 0.00023545 0)
(63.8954 0.000190451 0)
(63.8953 0.000155808 0)
(63.8953 0.000152875 0)
(63.8953 0.000166326 0)
(63.8953 0.000187141 0)
(63.8954 0.000227128 0)
(63.8955 0.000276106 0)
(63.8955 0.000285182 0)
(63.8955 0.000245867 0)
(63.8957 0.000203033 0)
(63.8956 0.000171572 0)
(63.8954 0.000131644 0)
(63.8955 8.86e-05 0)
(63.8956 6.9514e-05 0)
(63.8957 0.00010289 0)
(63.8959 0.000200116 0)
(63.896 0.000306585 0)
(63.896 0.00034218 0)
(63.8959 0.000297583 0)
(63.8959 0.00022572 0)
(63.8959 0.000181763 0)
(63.8958 0.000188536 0)
(63.8959 0.000205572 0)
(63.896 0.000186752 0)
(63.8961 0.000169435 0)
(63.8962 0.000178962 0)
(63.8962 0.00018486 0)
(63.8963 0.000204958 0)
(63.8962 0.000248772 0)
(63.8962 0.000278156 0)
(63.8963 0.000284469 0)
(63.8964 0.000283436 0)
(63.8963 0.000281092 0)
(63.8963 0.000260953 0)
(63.8963 0.000223802 0)
(63.8962 0.00019977 0)
(63.8962 0.000179952 0)
(63.8962 0.000141616 0)
(63.8962 0.000100748 0)
(63.8962 9.77207e-05 0)
(63.8963 0.000152423 0)
(63.8965 0.00022056 0)
(63.8966 0.000250818 0)
(63.8967 0.000243291 0)
(63.8967 0.000233986 0)
(63.8968 0.000254872 0)
(63.8968 0.000284095 0)
(63.8969 0.000298189 0)
(63.8969 0.000300327 0)
(63.8969 0.000275848 0)
(63.8969 0.000230438 0)
(63.8969 0.000185089 0)
(63.8969 0.000149672 0)
(63.8969 0.000142486 0)
(63.8969 0.00017106 0)
(63.897 0.000226901 0)
(63.8971 0.000279936 0)
(63.8971 0.000299494 0)
(63.8971 0.000289875 0)
(63.8971 0.000264818 0)
(63.8971 0.000234802 0)
(63.897 0.000213843 0)
(63.897 0.000211057 0)
(63.8971 0.000218467 0)
(63.897 0.000216932 0)
(63.8971 0.000210451 0)
(63.8971 0.000213769 0)
(63.8972 0.000221906 0)
(63.8972 0.000223724 0)
(63.8971 0.000222067 0)
(63.8972 0.000231006 0)
(63.8972 0.000250832 0)
(63.8973 0.000280575 0)
(63.8974 0.000318556 0)
(63.8975 0.000322722 0)
(63.8975 0.000272209 0)
(63.8975 0.000213105 0)
(63.8975 0.000182603 0)
(63.8975 0.000185213 0)
(63.8976 0.0002014 0)
(63.8976 0.000200266 0)
(63.8977 0.000194282 0)
(63.8977 0.000211585 0)
(63.8977 0.000243667 0)
(63.8978 0.000284476 0)
(63.8979 0.000328067 0)
(63.8979 0.000334923 0)
(63.8978 0.000292273 0)
(63.8978 0.00023622 0)
(63.8978 0.000192704 0)
(63.8978 0.000179262 0)
(63.8979 0.000205158 0)
(63.8978 0.000240832 0)
(63.8978 0.000252092 0)
(63.8978 0.000234833 0)
(63.8979 0.000212188 0)
(63.8979 0.000211474 0)
(63.898 0.000238245 0)
(63.8981 0.000277601 0)
(63.8982 0.000301339 0)
(63.8981 0.000288427 0)
(63.8982 0.000236941 0)
(63.8982 0.000174634 0)
(63.8982 0.000155082 0)
(63.8982 0.000184473 0)
(63.8982 0.000221882 0)
(63.8983 0.000242009 0)
(63.8984 0.00023635 0)
(63.8984 0.000228941 0)
(63.8985 0.000243207 0)
(63.8986 0.000251698 0)
(63.8986 0.00024171 0)
(63.8986 0.000226954 0)
(63.8985 0.000203889 0)
(63.8985 0.000180399 0)
(63.8986 0.000188128 0)
(63.8987 0.000241243 0)
(63.8988 0.000295188 0)
(63.8989 0.00030159 0)
(63.8988 0.000288493 0)
(63.8988 0.000285817 0)
(63.8988 0.000281915 0)
(63.8989 0.000284743 0)
(63.8989 0.000297159 0)
(63.8989 0.000289584 0)
(63.8989 0.000249275 0)
(63.8989 0.000212304 0)
(63.8989 0.000217309 0)
(63.899 0.000247654 0)
(63.899 0.000272934 0)
(63.899 0.000276394 0)
(63.8989 0.000247436 0)
(63.8989 0.000216295 0)
(63.899 0.000211832 0)
(63.8991 0.000220685 0)
(63.8991 0.000228709 0)
(63.8992 0.000215974 0)
(63.8992 0.000182712 0)
(63.8992 0.000170489 0)
(63.8993 0.000188174 0)
(63.8993 0.000216073 0)
(63.8994 0.000251012 0)
(63.8994 0.000286259 0)
(63.8994 0.000299316 0)
(63.8994 0.000263854 0)
(63.8994 0.000204947 0)
(63.8995 0.000187094 0)
(63.8996 0.000208718 0)
(63.8996 0.000221357 0)
(63.8997 0.000209724 0)
(63.8997 0.000192126 0)
(63.8998 0.00019074 0)
(63.8999 0.000203963 0)
(63.8999 0.000224606 0)
(63.9 0.00025606 0)
(63.9 0.000288619 0)
(63.9 0.000301954 0)
(63.9 0.000282595 0)
(63.9 0.000260275 0)
(63.9 0.000282104 0)
(63.9 0.000324597 0)
(63.9 0.000348662 0)
(63.9001 0.000348203 0)
(63.9001 0.00030983 0)
(63.9001 0.00027223 0)
(63.9002 0.000293915 0)
(63.9002 0.000342906 0)
(63.9002 0.000354688 0)
(63.9002 0.00031024 0)
(63.9002 0.000242642 0)
(63.9003 0.000198628 0)
(63.9004 0.000182277 0)
(63.9005 0.000174107 0)
(63.9005 0.000165918 0)
(63.9005 0.000166328 0)
(63.9005 0.000189596 0)
(63.9006 0.000237504 0)
(63.9006 0.000297633 0)
(63.9006 0.000347365 0)
(63.9007 0.000380613 0)
(63.9007 0.000403521 0)
(63.9007 0.000395138 0)
(63.9007 0.000350811 0)
(63.9007 0.000297853 0)
(63.9007 0.000248318 0)
(63.9007 0.000214751 0)
(63.9008 0.000207339 0)
(63.9009 0.000189363 0)
(63.901 0.000191034 0)
(50.5479 1.15754e-05 0)
(85.4631 0.000104827 0)
(73.2934 0.000227845 0)
(60.647 0.000294472 0)
(59.9025 0.00026801 0)
(63.3625 0.000260303 0)
(64.873 0.000318059 0)
(64.4224 0.000365596 0)
(63.8059 0.000361853 0)
(63.7038 0.000360336 0)
(63.847 0.00039598 0)
(63.9319 0.000402348 0)
(63.9221 0.000374082 0)
(63.8934 0.000342869 0)
(63.8854 0.000336736 0)
(63.8909 0.000350743 0)
(63.8953 0.00035161 0)
(63.8954 0.00037611 0)
(63.8941 0.000411752 0)
(63.8938 0.000418929 0)
(63.894 0.000413213 0)
(63.8942 0.000396357 0)
(63.8943 0.00037756 0)
(63.8944 0.000377813 0)
(63.8943 0.000383715 0)
(63.8942 0.000382914 0)
(63.8941 0.000376434 0)
(63.8941 0.000363214 0)
(63.8942 0.000380909 0)
(63.8943 0.000415127 0)
(63.8943 0.000392394 0)
(63.8944 0.000343772 0)
(63.8944 0.000319287 0)
(63.8943 0.000321217 0)
(63.8943 0.000347159 0)
(63.8944 0.000363331 0)
(63.8945 0.000350988 0)
(63.8946 0.00033191 0)
(63.8947 0.000334827 0)
(63.8946 0.000370374 0)
(63.8946 0.00039021 0)
(63.8946 0.000372801 0)
(63.8946 0.000356701 0)
(63.8946 0.000355369 0)
(63.8947 0.000364477 0)
(63.8949 0.000383856 0)
(63.8948 0.000428502 0)
(63.8947 0.000479398 0)
(63.8947 0.000463425 0)
(63.8948 0.000390267 0)
(63.8949 0.000334889 0)
(63.8949 0.000326294 0)
(63.8949 0.000347331 0)
(63.895 0.000342113 0)
(63.8949 0.000303767 0)
(63.895 0.000284974 0)
(63.8951 0.000290167 0)
(63.895 0.000308417 0)
(63.8949 0.000340338 0)
(63.895 0.000361686 0)
(63.8951 0.000368094 0)
(63.8952 0.0003924 0)
(63.8952 0.000431283 0)
(63.8953 0.000442878 0)
(63.8953 0.000420737 0)
(63.8953 0.000377586 0)
(63.8953 0.000331244 0)
(63.8954 0.000312945 0)
(63.8955 0.000308936 0)
(63.8956 0.000292358 0)
(63.8956 0.000298465 0)
(63.8957 0.000339002 0)
(63.8958 0.000355502 0)
(63.8958 0.000335144 0)
(63.8957 0.000317044 0)
(63.8956 0.000306108 0)
(63.8955 0.000305435 0)
(63.8955 0.000338689 0)
(63.8957 0.000380734 0)
(63.8958 0.000386113 0)
(63.8958 0.000381431 0)
(63.8958 0.000394328 0)
(63.8957 0.000379896 0)
(63.8958 0.00032261 0)
(63.8959 0.000271662 0)
(63.8959 0.000272465 0)
(63.896 0.000313645 0)
(63.896 0.000350261 0)
(63.896 0.000384882 0)
(63.896 0.000407596 0)
(63.896 0.000373183 0)
(63.8961 0.000319662 0)
(63.8961 0.000314693 0)
(63.8962 0.000346147 0)
(63.8963 0.000367531 0)
(63.8963 0.000383169 0)
(63.8964 0.000420206 0)
(63.8964 0.000441411 0)
(63.8963 0.000412773 0)
(63.8964 0.000365094 0)
(63.8963 0.000323921 0)
(63.8963 0.000294494 0)
(63.8963 0.000270793 0)
(63.8964 0.0002547 0)
(63.8965 0.000262769 0)
(63.8965 0.000285988 0)
(63.8965 0.000312486 0)
(63.8965 0.000329628 0)
(63.8966 0.00032166 0)
(63.8967 0.000303877 0)
(63.8968 0.000290207 0)
(63.8968 0.000289339 0)
(63.8969 0.000312947 0)
(63.897 0.000348074 0)
(63.8969 0.000370076 0)
(63.8969 0.00036561 0)
(63.8969 0.000354588 0)
(63.8969 0.000360419 0)
(63.8969 0.000365627 0)
(63.897 0.000356355 0)
(63.897 0.000347076 0)
(63.8971 0.000348934 0)
(63.8971 0.000357911 0)
(63.8971 0.000375724 0)
(63.8971 0.000405068 0)
(63.8971 0.000416512 0)
(63.8971 0.000393432 0)
(63.8971 0.000372173 0)
(63.8971 0.000385318 0)
(63.8972 0.000412061 0)
(63.8972 0.00040759 0)
(63.8971 0.000373065 0)
(63.8971 0.00033314 0)
(63.8971 0.000282876 0)
(63.8972 0.00024208 0)
(63.8973 0.000246269 0)
(63.8974 0.00027897 0)
(63.8974 0.000314398 0)
(63.8975 0.00034526 0)
(63.8975 0.000361791 0)
(63.8975 0.000360642 0)
(63.8976 0.000341543 0)
(63.8976 0.000316263 0)
(63.8976 0.000300992 0)
(63.8976 0.000283856 0)
(63.8977 0.000271732 0)
(63.8977 0.000303874 0)
(63.8979 0.000361166 0)
(63.8979 0.000390566 0)
(63.8979 0.000388812 0)
(63.8979 0.000360105 0)
(63.8979 0.00032089 0)
(63.8979 0.000321566 0)
(63.8979 0.000354409 0)
(63.8979 0.000363481 0)
(63.8979 0.000338583 0)
(63.8979 0.000305489 0)
(63.8979 0.000283128 0)
(63.8979 0.000286729 0)
(63.8979 0.000328695 0)
(63.8979 0.00038331 0)
(63.898 0.000403323 0)
(63.8981 0.000376291 0)
(63.8981 0.000325732 0)
(63.8982 0.000291285 0)
(63.8982 0.000281808 0)
(63.8981 0.000270886 0)
(63.8982 0.000262668 0)
(63.8982 0.000269845 0)
(63.8983 0.000283722 0)
(63.8983 0.000303952 0)
(63.8984 0.000325329 0)
(63.8984 0.000344785 0)
(63.8985 0.000364989 0)
(63.8985 0.00036432 0)
(63.8985 0.000329386 0)
(63.8985 0.000282602 0)
(63.8984 0.000260854 0)
(63.8985 0.000277811 0)
(63.8985 0.000305686 0)
(63.8985 0.000331517 0)
(63.8986 0.000359078 0)
(63.8986 0.000365942 0)
(63.8985 0.00035347 0)
(63.8986 0.00035102 0)
(63.8987 0.000361292 0)
(63.8988 0.000366151 0)
(63.8988 0.000353876 0)
(63.8988 0.000334252 0)
(63.8988 0.000324068 0)
(63.8989 0.000331652 0)
(63.8989 0.000353686 0)
(63.899 0.000361529 0)
(63.899 0.000344812 0)
(63.899 0.00032074 0)
(63.899 0.000282551 0)
(63.899 0.000242389 0)
(63.8992 0.000231538 0)
(63.8992 0.000239489 0)
(63.8992 0.000255956 0)
(63.8992 0.000275425 0)
(63.8992 0.000287052 0)
(63.8992 0.000313999 0)
(63.8993 0.000365428 0)
(63.8994 0.00040171 0)
(63.8995 0.00038486 0)
(63.8995 0.000323431 0)
(63.8995 0.000259911 0)
(63.8995 0.000216719 0)
(63.8996 0.0002033 0)
(63.8997 0.000219511 0)
(63.8997 0.00023129 0)
(63.8997 0.000228913 0)
(63.8998 0.000238649 0)
(63.8998 0.000273044 0)
(63.8998 0.000329923 0)
(63.8998 0.000384527 0)
(63.8998 0.000408659 0)
(63.8999 0.000400971 0)
(63.8999 0.000376734 0)
(63.8999 0.000359222 0)
(63.8999 0.000336119 0)
(63.8999 0.000285965 0)
(63.9 0.000255042 0)
(63.9 0.000276183 0)
(63.9 0.0003227 0)
(63.9 0.000372082 0)
(63.9 0.000400363 0)
(63.9001 0.000393142 0)
(63.9002 0.000356622 0)
(63.9003 0.000289304 0)
(63.9003 0.000208216 0)
(63.9004 0.000161869 0)
(63.9004 0.000173347 0)
(63.9004 0.000210884 0)
(63.9004 0.000245331 0)
(63.9004 0.000282806 0)
(63.9004 0.000325566 0)
(63.9004 0.00036175 0)
(63.9005 0.000375071 0)
(63.9005 0.000365542 0)
(63.9006 0.000364006 0)
(63.9007 0.00037525 0)
(63.9007 0.000370105 0)
(63.9008 0.000349338 0)
(63.9008 0.000321395 0)
(63.9007 0.000289518 0)
(63.9007 0.000271881 0)
(63.9007 0.000268511 0)
(63.9007 0.000282657 0)
(50.5479 1.11159e-05 0)
(85.463 7.16127e-05 0)
(73.2934 0.00012938 0)
(60.6471 0.000125955 0)
(59.9025 7.86366e-05 0)
(63.3624 7.54654e-05 0)
(64.8728 0.000115801 0)
(64.4222 0.000147749 0)
(63.8058 0.000173182 0)
(63.7038 0.00020268 0)
(63.847 0.000222926 0)
(63.932 0.000189586 0)
(63.9222 0.000108544 0)
(63.8934 5.77752e-05 0)
(63.8851 8.72045e-05 0)
(63.8905 0.000176812 0)
(63.8949 0.000243874 0)
(63.895 0.000250947 0)
(63.8938 0.000205097 0)
(63.8932 0.000128802 0)
(63.8935 9.44421e-05 0)
(63.8939 0.000118879 0)
(63.8938 0.000148939 0)
(63.8937 0.000175879 0)
(63.8937 0.000209487 0)
(63.8937 0.000220101 0)
(63.8938 0.000196822 0)
(63.8939 0.000157991 0)
(63.8938 0.000117048 0)
(63.8941 9.9119e-05 0)
(63.8942 0.000107528 0)
(63.8942 0.000150687 0)
(63.8944 0.000208932 0)
(63.8944 0.00019873 0)
(63.8944 0.000121049 0)
(63.8945 5.42386e-05 0)
(63.8946 3.11809e-05 0)
(63.8945 4.9046e-05 0)
(63.8945 8.79952e-05 0)
(63.8945 0.000129067 0)
(63.8947 0.000158279 0)
(63.8946 0.000169015 0)
(63.8946 0.000170981 0)
(63.8947 0.00016929 0)
(63.8946 0.000182938 0)
(63.8945 0.000233474 0)
(63.8945 0.000289643 0)
(63.8946 0.000306523 0)
(63.8948 0.00025862 0)
(63.8948 0.00017261 0)
(63.8948 0.000126293 0)
(63.8948 0.000125027 0)
(63.8948 0.000125771 0)
(63.895 0.000119595 0)
(63.895 9.21767e-05 0)
(63.895 6.2191e-05 0)
(63.8951 7.81088e-05 0)
(63.8951 0.00012247 0)
(63.8951 0.000140442 0)
(63.8952 0.000117708 0)
(63.8952 9.02259e-05 0)
(63.8952 0.000100306 0)
(63.8952 0.000136528 0)
(63.8954 0.000155613 0)
(63.8954 0.000148853 0)
(63.8954 0.000131576 0)
(63.8955 0.000121325 0)
(63.8955 0.000126147 0)
(63.8956 0.000123804 0)
(63.8956 0.000105191 0)
(63.8957 9.78651e-05 0)
(63.8957 0.000109309 0)
(63.8957 0.000124232 0)
(63.8958 0.000154681 0)
(63.8958 0.00021088 0)
(63.8958 0.000254071 0)
(63.8957 0.000239969 0)
(63.8957 0.000188348 0)
(63.8957 0.000165399 0)
(63.8958 0.000184775 0)
(63.8957 0.000216381 0)
(63.8959 0.000235191 0)
(63.896 0.00019923 0)
(63.896 0.000120237 0)
(63.8961 6.69995e-05 0)
(63.8961 6.30984e-05 0)
(63.8961 0.000101901 0)
(63.8961 0.000167917 0)
(63.8962 0.000232455 0)
(63.8962 0.000261061 0)
(63.8962 0.000236351 0)
(63.8962 0.00019387 0)
(63.8962 0.000169335 0)
(63.8962 0.00016706 0)
(63.8962 0.000172009 0)
(63.8961 0.000168162 0)
(63.8962 0.000178645 0)
(63.8963 0.000195071 0)
(63.8963 0.000180801 0)
(63.8964 0.000167128 0)
(63.8964 0.000171358 0)
(63.8965 0.000159534 0)
(63.8965 0.000129376 0)
(63.8965 0.000109041 0)
(63.8965 0.000115236 0)
(63.8965 0.000135644 0)
(63.8966 0.000156787 0)
(63.8966 0.000172992 0)
(63.8966 0.000172822 0)
(63.8966 0.000163693 0)
(63.8967 0.000152491 0)
(63.8967 0.000139531 0)
(63.8967 0.000138565 0)
(63.8968 0.000149508 0)
(63.8968 0.00016672 0)
(63.8969 0.000184567 0)
(63.8969 0.000194561 0)
(63.8969 0.000207092 0)
(63.897 0.000223059 0)
(63.897 0.000226497 0)
(63.897 0.000219726 0)
(63.897 0.000217234 0)
(63.897 0.000222556 0)
(63.897 0.000232785 0)
(63.897 0.000241574 0)
(63.8971 0.000226989 0)
(63.8971 0.000186768 0)
(63.8971 0.000162661 0)
(63.8972 0.000178029 0)
(63.8972 0.00020689 0)
(63.8972 0.000219242 0)
(63.8973 0.000225153 0)
(63.8973 0.000242019 0)
(63.8974 0.00023746 0)
(63.8973 0.000193629 0)
(63.8973 0.000154787 0)
(63.8973 0.000141546 0)
(63.8973 0.000135312 0)
(63.8974 0.000131311 0)
(63.8975 0.000127661 0)
(63.8975 0.000121968 0)
(63.8976 0.000129281 0)
(63.8977 0.000162353 0)
(63.8977 0.000207165 0)
(63.8977 0.000228596 0)
(63.8977 0.000211146 0)
(63.8977 0.00018976 0)
(63.8977 0.000193706 0)
(63.8977 0.000200929 0)
(63.8977 0.000199434 0)
(63.8978 0.000204706 0)
(63.8978 0.000216082 0)
(63.8978 0.000225722 0)
(63.8978 0.000232736 0)
(63.8978 0.000234202 0)
(63.8979 0.000226461 0)
(63.8979 0.000220893 0)
(63.8979 0.000232875 0)
(63.8979 0.000252948 0)
(63.8979 0.000265377 0)
(63.8979 0.000248907 0)
(63.898 0.00019025 0)
(63.898 0.000133917 0)
(63.8981 0.000120195 0)
(63.8981 0.000132438 0)
(63.8982 0.00014774 0)
(63.8982 0.000152677 0)
(63.8982 0.000153197 0)
(63.8983 0.000163325 0)
(63.8983 0.000164085 0)
(63.8983 0.000148415 0)
(63.8983 0.000142483 0)
(63.8984 0.000147276 0)
(63.8985 0.000151059 0)
(63.8986 0.000166503 0)
(63.8986 0.000198751 0)
(63.8986 0.000219205 0)
(63.8986 0.000214961 0)
(63.8986 0.000220255 0)
(63.8986 0.000246591 0)
(63.8986 0.00026651 0)
(63.8986 0.000275784 0)
(63.8987 0.000272176 0)
(63.8987 0.000240726 0)
(63.8988 0.00019821 0)
(63.8988 0.000177719 0)
(63.8988 0.000186631 0)
(63.8989 0.000203844 0)
(63.8989 0.000210888 0)
(63.8989 0.000208995 0)
(63.8989 0.000201789 0)
(63.8989 0.00019666 0)
(63.899 0.000195852 0)
(63.899 0.000186151 0)
(63.8991 0.000162985 0)
(63.8991 0.000122799 0)
(63.8992 7.96773e-05 0)
(63.8992 7.80541e-05 0)
(63.8992 0.000115869 0)
(63.8992 0.000155369 0)
(63.8993 0.000188484 0)
(63.8993 0.000212256 0)
(63.8993 0.000215905 0)
(63.8993 0.000196693 0)
(63.8994 0.000170504 0)
(63.8995 0.000154772 0)
(63.8996 0.000141219 0)
(63.8996 0.000123922 0)
(63.8996 0.000108626 0)
(63.8996 0.000108839 0)
(63.8997 0.000135747 0)
(63.8997 0.000153726 0)
(63.8997 0.000144105 0)
(63.8998 0.00014992 0)
(63.8998 0.000180463 0)
(63.8998 0.000210012 0)
(63.8999 0.000227375 0)
(63.8999 0.000230239 0)
(63.8999 0.000237155 0)
(63.9 0.000258214 0)
(63.9 0.000278496 0)
(63.9 0.0002835 0)
(63.9 0.00026409 0)
(63.9 0.000249039 0)
(63.9 0.000270008 0)
(63.9 0.000292849 0)
(63.9 0.00027493 0)
(63.9001 0.000227516 0)