/*--------------------------------*- C++ -*----------------------------------*\
| =========                 |                                                 |
| \\      /  F ield         | OpenFOAM: The Open Source CFD Toolbox           |
|  \\    /   O peration     | Version:  2406                                  |
|   \\  /    A nd           | Website:  www.openfoam.com                      |
|    \\/     M anipulation  |                                                 |
\*---------------------------------------------------------------------------*/
FoamFile
{
    version     2.0;
    format      ascii;
    arch        "LSB;label=32;scalar=64";
    class       volScalarField;
    location    "1000";
    object      alphat;
}
// * * * * * * * * * * * * * * * * * * * * * * * * * * * * * * * * * * * * * //

dimensions      [0 2 -1 0 0 0 0];

internalField   nonuniform List<scalar> 
5619
(
4.76403e-05
4.75387e-05
4.74322e-05
4.73511e-05
4.72856e-05
4.72353e-05
4.7199e-05
4.71764e-05
4.71675e-05
4.71726e-05
4.7192e-05
4.7226e-05
4.72751e-05
4.73404e-05
4.7423e-05
4.75236e-05
4.76426e-05
4.77807e-05
4.79384e-05
4.81157e-05
4.83123e-05
4.85267e-05
4.87563e-05
4.8997e-05
4.92442e-05
4.94937e-05
4.97448e-05
5.00021e-05
5.02782e-05
5.05928e-05
5.09703e-05
5.1434e-05
5.19999e-05
5.26722e-05
5.3443e-05
5.42938e-05
5.52e-05
5.61339e-05
5.70686e-05
5.79789e-05
5.88428e-05
5.96416e-05
6.03599e-05
6.09855e-05
6.15091e-05
6.19243e-05
6.2227e-05
6.24156e-05
6.24903e-05
6.24532e-05
6.23078e-05
6.20589e-05
6.17123e-05
6.12744e-05
6.07522e-05
6.01527e-05
5.94827e-05
5.87697e-05
5.8029e-05
5.72695e-05
5.6499e-05
5.57241e-05
5.49504e-05
5.41829e-05
5.34254e-05
5.26813e-05
5.19531e-05
5.12428e-05
5.05519e-05
4.98814e-05
4.92319e-05
4.86039e-05
4.79973e-05
4.74121e-05
4.68478e-05
4.6304e-05
4.57802e-05
4.52756e-05
4.47895e-05
4.43212e-05
4.38697e-05
4.34343e-05
4.30141e-05
4.26084e-05
4.22161e-05
4.18365e-05
4.14688e-05
4.11122e-05
4.07658e-05
4.0429e-05
4.0101e-05
3.97811e-05
3.94685e-05
3.91626e-05
3.88628e-05
3.85684e-05
3.82788e-05
3.79935e-05
3.77118e-05
3.74333e-05
3.71577e-05
3.68566e-05
3.65294e-05
3.61762e-05
3.57977e-05
3.53953e-05
3.49713e-05
3.45284e-05
3.40703e-05
3.36014e-05
3.31263e-05
3.26501e-05
3.2178e-05
3.17148e-05
3.12652e-05
3.08332e-05
3.04221e-05
3.00345e-05
2.96721e-05
2.93359e-05
2.90261e-05
2.87425e-05
2.84843e-05
2.82505e-05
2.80395e-05
2.785e-05
2.76803e-05
2.75287e-05
2.7394e-05
2.72617e-05
2.7131e-05
2.70013e-05
2.68719e-05
2.67424e-05
2.66121e-05
2.64805e-05
2.63473e-05
2.62119e-05
2.6074e-05
2.59333e-05
2.57894e-05
2.56422e-05
2.54914e-05
2.5337e-05
2.51788e-05
2.50169e-05
2.48515e-05
2.46826e-05
2.45107e-05
2.43362e-05
2.41595e-05
2.39814e-05
2.38026e-05
2.3624e-05
2.34468e-05
2.3272e-05
2.31009e-05
2.29349e-05
2.27754e-05
2.26238e-05
2.24814e-05
2.23497e-05
2.22298e-05
2.21227e-05
2.20293e-05
2.195e-05
2.1885e-05
2.18343e-05
2.17974e-05
2.17736e-05
2.1762e-05
2.17613e-05
2.17708e-05
2.17889e-05
2.18148e-05
2.18481e-05
2.18907e-05
2.19475e-05
2.20294e-05
2.21557e-05
2.23559e-05
2.26663e-05
2.31177e-05
2.37046e-05
2.43128e-05
2.45255e-05
2.30393e-05
0.000138008
0.000137167
0.000136478
0.000135908
0.000135493
0.000135215
0.000135061
0.000135014
0.000135057
0.000135173
0.000135341
0.000135539
0.000135745
0.000135924
0.000136086
0.000136219
0.000136303
0.000136312
0.000136219
0.000135995
0.00013561
0.000135027
0.000134199
0.000133059
0.000131512
0.000129435
0.000126685
0.000123123
0.000118656
0.000113274
0.000107081
0.00010029
9.31974e-05
8.61181e-05
7.93345e-05
7.30561e-05
6.74061e-05
6.24305e-05
5.81182e-05
5.44231e-05
5.12818e-05
4.86268e-05
4.63937e-05
4.45249e-05
4.29707e-05
4.16896e-05
4.06468e-05
3.98132e-05
3.91639e-05
3.8677e-05
3.83319e-05
3.81082e-05
3.79847e-05
3.79378e-05
3.79413e-05
3.7917e-05
3.781e-05
3.76816e-05
3.75502e-05
3.74058e-05
3.72408e-05
3.705e-05
3.68305e-05
3.65813e-05
3.63032e-05
3.59987e-05
3.56712e-05
3.53249e-05
3.49648e-05
3.45959e-05
3.42232e-05
3.38515e-05
3.34852e-05
3.31281e-05
3.27835e-05
3.24541e-05
3.2142e-05
3.18486e-05
3.15751e-05
3.13219e-05
3.10894e-05
3.08773e-05
3.06854e-05
3.0513e-05
3.03595e-05
3.02241e-05
3.0106e-05
3.00042e-05
2.9918e-05
2.98465e-05
2.9789e-05
2.97445e-05
2.97125e-05
2.96923e-05
2.96833e-05
2.96851e-05
2.96971e-05
2.9719e-05
2.97505e-05
2.97911e-05
2.98408e-05
2.9906e-05
2.99896e-05
3.00953e-05
3.02268e-05
3.03877e-05
3.05817e-05
3.08118e-05
3.10801e-05
3.13879e-05
3.17349e-05
3.21193e-05
3.2538e-05
3.2986e-05
3.34572e-05
3.39449e-05
3.44413e-05
3.49391e-05
3.54311e-05
3.59108e-05
3.63728e-05
3.68126e-05
3.72268e-05
3.76134e-05
3.79711e-05
3.82995e-05
3.8599e-05
3.88702e-05
3.91148e-05
3.93586e-05
3.96028e-05
3.98486e-05
4.0097e-05
4.03491e-05
4.06061e-05
4.0869e-05
4.11389e-05
4.14167e-05
4.17036e-05
4.20003e-05
4.23079e-05
4.2627e-05
4.29585e-05
4.33029e-05
4.36606e-05
4.4032e-05
4.4417e-05
4.48155e-05
4.52269e-05
4.56504e-05
4.60847e-05
4.6528e-05
4.6978e-05
4.74319e-05
4.78862e-05
4.83369e-05
4.87793e-05
4.92081e-05
4.96174e-05
5.0001e-05
5.03521e-05
5.0664e-05
5.09295e-05
5.11417e-05
5.12937e-05
5.13788e-05
5.13901e-05
5.13204e-05
5.11616e-05
5.09039e-05
5.05347e-05
5.00365e-05
4.94168e-05
4.86809e-05
4.7784e-05
4.66692e-05
4.5265e-05
4.34886e-05
4.12614e-05
3.85421e-05
3.53842e-05
3.2005e-05
2.88365e-05
2.65327e-05
2.60331e-05
2.91792e-05
4.27104e-05
0.000215893
0.000213532
0.000211472
0.00020971
0.000208239
0.00020699
0.000205895
0.00020488
0.000203874
0.000202807
0.000201613
0.000200224
0.000198572
0.000196637
0.000194397
0.000191807
0.000188818
0.00018538
0.000181438
0.000176937
0.000171824
0.000166063
0.00015964
0.000152586
0.000144984
0.000136983
0.000128794
0.000120674
0.000112909
0.000105773
9.95004e-05
9.42606e-05
9.01496e-05
8.71954e-05
8.5375e-05
8.46357e-05
8.49148e-05
8.61529e-05
8.8302e-05
9.13281e-05
9.52105e-05
9.99384e-05
0.000105507
0.000111912
0.000119143
0.000127175
0.000135963
0.000145429
0.000155458
0.000165883
0.000176487
0.000186999
0.000197101
0.000206366
0.000214019
0.000220971
0.00022734
0.000233127
0.00023828
0.000242728
0.000246412
0.000249287
0.000251325
0.000252511
0.000252849
0.000252357
0.000251069
0.00024903
0.000246297
0.000242938
0.000239023
0.000234628
0.00022983
0.000224705
0.000219327
0.000213765
0.000208083
0.000202339
0.000196584
0.000190863
0.000185213
0.000179667
0.000174248
0.000168977
0.000163868
0.000158932
0.000154174
0.000149599
0.000145205
0.000140993
0.000136957
0.000133095
0.000129399
0.000125863
0.000122481
0.000119245
0.000116148
0.000113184
0.000110345
0.000107623
0.00010501
0.000102249
9.93538e-05
9.6357e-05
9.32952e-05
9.02125e-05
8.71572e-05
8.41792e-05
8.13271e-05
7.86449e-05
7.61686e-05
7.39245e-05
7.19278e-05
7.0183e-05
6.86845e-05
6.74189e-05
6.63672e-05
6.55064e-05
6.48123e-05
6.42606e-05
6.38282e-05
6.3494e-05
6.32396e-05
6.30489e-05
6.29082e-05
6.28067e-05
6.27353e-05
6.26862e-05
6.26542e-05
6.26328e-05
6.26209e-05
6.26181e-05
6.26242e-05
6.26391e-05
6.26628e-05
6.26954e-05
6.27372e-05
6.27887e-05
6.28502e-05
6.29223e-05
6.30056e-05
6.31007e-05
6.32083e-05
6.3329e-05
6.34632e-05
6.36114e-05
6.37737e-05
6.39502e-05
6.41406e-05
6.43439e-05
6.45591e-05
6.47842e-05
6.50165e-05
6.52525e-05
6.54879e-05
6.57171e-05
6.59335e-05
6.61293e-05
6.62955e-05
6.6422e-05
6.64978e-05
6.6511e-05
6.64492e-05
6.62995e-05
6.60493e-05
6.56862e-05
6.51983e-05
6.45749e-05
6.38064e-05
6.28848e-05
6.18045e-05
6.05649e-05
5.92351e-05
5.78173e-05
5.63221e-05
5.47772e-05
5.32363e-05
5.17915e-05
5.05896e-05
4.98498e-05
4.98836e-05
5.11202e-05
5.41721e-05
6.00493e-05
7.08367e-05
9.19077e-05
0.000143291
0.000293448
0.00028695
0.000281342
0.000276526
0.00027231
0.000268483
0.000264859
0.000261274
0.000257587
0.000253676
0.000249432
0.000244768
0.000239686
0.000234171
0.000228215
0.000221835
0.000215073
0.000208013
0.000200774
0.000193516
0.000186434
0.000179751
0.000173707
0.000168539
0.000164473
0.000161704
0.00016039
0.000160643
0.000162531
0.000166081
0.00017129
0.000178134
0.000186584
0.000196618
0.000208223
0.0002214
0.00023616
0.000252516
0.000270471
0.000290009
0.000311081
0.000333594
0.000357397
0.000382281
0.000407969
0.000434126
0.000460369
0.000486284
0.00051145
0.00053547
0.00055799
0.000578728
0.000597481
0.000613733
0.000628629
0.000642303
0.000654718
0.00066581
0.000675512
0.000683766
0.000690527
0.000695768
0.000699476
0.000701655
0.000702326
0.000701523
0.000699296
0.000695707
0.000690829
0.000684747
0.00067755
0.000669335
0.000660201
0.000650249
0.000639581
0.000628295
0.000616489
0.000604254
0.000591676
0.000578838
0.000565812
0.000552666
0.000539462
0.000526252
0.000513084
0.000499997
0.000487027
0.000474201
0.000461543
0.000449071
0.000436799
0.000424737
0.000412892
0.000401268
0.000389867
0.000378688
0.000367729
0.000356988
0.000346466
0.000336139
0.000325979
0.000315039
0.000303292
0.000290814
0.000277705
0.000264111
0.000250212
0.000236219
0.00022236
0.000208869
0.000195965
0.000183836
0.000172629
0.000162438
0.000153305
0.000145226
0.000138157
0.000132029
0.000126755
0.000122241
0.000118394
0.000115123
0.000112347
0.000109992
0.000107995
0.000106299
0.00010486
0.000103633
0.000102587
0.000101597
0.000100653
9.97481e-05
9.88771e-05
9.80352e-05
9.72183e-05
9.64233e-05
9.56475e-05
9.48889e-05
9.41461e-05
9.34182e-05
9.27048e-05
9.2006e-05
9.13221e-05
9.0654e-05
9.00027e-05
8.93697e-05
8.87564e-05
8.81646e-05
8.75957e-05
8.70514e-05
8.65329e-05
8.60411e-05
8.55763e-05
8.51385e-05
8.47265e-05
8.43387e-05
8.39724e-05
8.3624e-05
8.32894e-05
8.29639e-05
8.26424e-05
8.23202e-05
8.19935e-05
8.166e-05
8.13197e-05
8.09758e-05
8.06356e-05
8.03115e-05
8.00218e-05
7.97911e-05
7.96515e-05
7.96925e-05
8.00223e-05
8.07133e-05
8.18652e-05
8.36076e-05
8.61063e-05
8.95697e-05
9.42546e-05
0.000100475
0.000108622
0.000119227
0.000133139
0.000151977
0.000179251
0.000223395
0.000309453
0.000390262
0.000370345
0.000354046
0.000341005
0.000330454
0.000321688
0.000314161
0.000307462
0.000301308
0.000295512
0.000289989
0.000284788
0.000279967
0.000275616
0.000271856
0.000268835
0.000266709
0.000265641
0.000265784
0.000267275
0.000270229
0.000274732
0.00028084
0.000288581
0.000297956
0.000308945
0.000321515
0.000335625
0.000351235
0.000368311
0.000386824
0.000406756
0.000428084
0.000450778
0.000474784
0.000500016
0.000526342
0.000553581
0.000581503
0.000609833
0.000638262
0.000666465
0.00069412
0.000720927
0.000746627
0.000771018
0.000793957
0.000815365
0.000835217
0.000853531
0.000870357
0.000885762
0.000899729
0.000912876
0.000925349
0.000937139
0.000948213
0.000958528
0.000968035
0.000976681
0.000984412
0.000991176
0.000996926
0.00100162
0.00100522
0.00100771
0.00100908
0.0010093
0.00100841
0.0010064
0.00100331
0.000999165
0.00099402
0.000987919
0.000980917
0.000973071
0.000964443
0.000955094
0.000945087
0.000934482
0.000923341
0.000911719
0.000899671
0.000887249
0.0008745
0.000861466
0.000848188
0.0008347
0.000821035
0.000807218
0.000793274
0.000779224
0.000765083
0.000750866
0.000736584
0.000722245
0.000707855
0.000693422
0.000678959
0.00066443
0.000649747
0.000633647
0.000615944
0.000596624
0.000575721
0.000553337
0.000529646
0.000504902
0.000479432
0.000453628
0.000427923
0.000402759
0.000378558
0.000355684
0.000334419
0.000314953
0.000297375
0.000281693
0.000267843
0.00025571
0.000245153
0.00023601
0.000228122
0.000221333
0.000215498
0.000210488
0.00020619
0.000202495
0.00019931
0.000196281
0.000193371
0.000190562
0.000187837
0.000185183
0.000182587
0.000180041
0.000177536
0.000175066
0.000172627
0.000170214
0.000167826
0.000165464
0.000163129
0.000160822
0.000158548
0.000156312
0.000154121
0.000151981
0.0001499
0.000147888
0.000145954
0.000144108
0.000142361
0.000140724
0.000139206
0.00013782
0.000136577
0.000135487
0.000134562
0.000133813
0.000133254
0.000132898
0.00013276
0.000132857
0.000133207
0.000133832
0.000134758
0.00013601
0.000137622
0.000139626
0.000142065
0.000145055
0.000148836
0.00015343
0.000158928
0.00016544
0.000173096
0.000182053
0.000192512
0.000204744
0.00021915
0.00023638
0.000257531
0.00028452
0.000320754
0.000372205
0.000448375
0.0006333
0.000574695
0.000525517
0.000486462
0.000456566
0.000434347
0.000418339
0.000407224
0.00039994
0.000395706
0.000394026
0.000394484
0.0003968
0.000400778
0.000406273
0.000413167
0.000421357
0.000430748
0.000441251
0.000452784
0.000465275
0.000478665
0.000492905
0.000507962
0.00052381
0.000540431
0.000557806
0.000575916
0.000594729
0.0006142
0.000634262
0.000654822
0.000675757
0.000696914
0.000718114
0.000739153
0.000759824
0.000779919
0.000799255
0.000817679
0.000835083
0.000851408
0.000866644
0.000880822
0.000894006
0.000906283
0.000917746
0.00092849
0.000938596
0.000948131
0.000957145
0.000965667
0.000974098
0.00098275
0.000991633
0.00100074
0.00101003
0.00101946
0.001029
0.00103857
0.0010481
0.00105752
0.00106675
0.00107571
0.00108431
0.00109247
0.00110012
0.00110719
0.00111361
0.00111931
0.00112426
0.00112841
0.00113172
0.00113419
0.0011358
0.00113654
0.00113641
0.00113544
0.00113364
0.00113102
0.00112762
0.00112347
0.00111859
0.00111302
0.00110679
0.00109994
0.00109249
0.00108448
0.00107593
0.00106687
0.00105733
0.00104733
0.00103688
0.00102601
0.00101472
0.00100304
0.00099097
0.000978518
0.00096571
0.000952499
0.000938749
0.000923373
0.000906059
0.000886669
0.000865101
0.000841319
0.000815366
0.000787385
0.000757633
0.000726483
0.000694415
0.000661988
0.000629803
0.000598447
0.000568451
0.000540245
0.000514136
0.000490305
0.000468817
0.00044964
0.000432669
0.000417752
0.000404712
0.000393358
0.000383503
0.000374967
0.000367591
0.000361206
0.000355657
0.000350375
0.000345279
0.000340339
0.000335526
0.00033082
0.000326199
0.000321647
0.000317151
0.000312701
0.000308288
0.000303907
0.000299557
0.000295237
0.00029095
0.000286702
0.000282501
0.000278357
0.000274284
0.000270297
0.000266412
0.00026265
0.00025903
0.000255574
0.000252306
0.000249249
0.000246427
0.000243863
0.000241583
0.000239608
0.000237962
0.000236668
0.000235746
0.000235219
0.000235106
0.000235427
0.000236202
0.00023745
0.00023919
0.000241441
0.000244225
0.000247566
0.000251492
0.000256041
0.000261437
0.000267731
0.000274931
0.000283102
0.000292337
0.000302767
0.000314578
0.000328035
0.000343516
0.000361563
0.000382928
0.000408608
0.000439731
0.000476896
0.000517956
0.00118362
0.0010739
0.000972117
0.000881778
0.000804715
0.000741512
0.000691815
0.000654413
0.000627604
0.00060953
0.000598621
0.000593174
0.000591875
0.000593705
0.000597886
0.000603836
0.000611126
0.000619443
0.000628561
0.000638313
0.00064858
0.000659272
0.000670319
0.000681661
0.000693241
0.000705002
0.000716877
0.000728794
0.000740667
0.000752399
0.000763886
0.000775016
0.000785676
0.000795759
0.000805172
0.000813843
0.000821726
0.000828804
0.000835095
0.000840641
0.000845511
0.000849787
0.00085356
0.000856924
0.000859964
0.000862757
0.000865368
0.000867846
0.000870227
0.000872536
0.000874785
0.000876976
0.000879595
0.000882764
0.000886499
0.000890807
0.000895693
0.000901156
0.000907194
0.000913798
0.000920955
0.000928646
0.000936842
0.00094551
0.000954607
0.000964083
0.000973879
0.000983931
0.000994167
0.00100451
0.00101489
0.00102522
0.00103542
0.00104541
0.00105513
0.00106449
0.00107344
0.00108191
0.00108987
0.00109725
0.00110404
0.00111019
0.00111568
0.00112049
0.00112462
0.00112805
0.00113078
0.00113281
0.00113414
0.00113476
0.00113469
0.00113393
0.00113247
0.00113033
0.00112751
0.001124
0.00111981
0.00111494
0.00110939
0.00110312
0.00109601
0.00108754
0.00107736
0.00106518
0.0010507
0.00103366
0.00101384
0.000991098
0.000965437
0.000937014
0.000906173
0.000873449
0.000839531
0.000805204
0.000771272
0.000738474
0.000707418
0.000678545
0.00065212
0.000628251
0.000606922
0.000588025
0.000571395
0.000556835
0.000544138
0.000533098
0.000523527
0.000515217
0.000507958
0.000501063
0.000494409
0.000487952
0.000481655
0.000475491
0.000469433
0.00046346
0.000457556
0.000451707
0.000445903
0.000440138
0.000434409
0.000428717
0.000423067
0.000417466
0.000411926
0.000406462
0.000401091
0.000395834
0.000390716
0.000385761
0.000380998
0.000376455
0.000372163
0.00036815
0.000364447
0.000361082
0.000358082
0.000355471
0.000353272
0.000351506
0.000350189
0.000349336
0.000348959
0.00034907
0.000349675
0.000350784
0.000352401
0.000354535
0.000357194
0.000360387
0.000364129
0.000368438
0.00037334
0.000379013
0.000385438
0.000392643
0.000400686
0.000409649
0.000419639
0.000430785
0.000443238
0.00045715
0.000472631
0.000489646
0.000507806
0.000525994
0.00054195
0.00185963
0.00172289
0.00158753
0.00145749
0.00133513
0.00122259
0.00112176
0.00103392
0.000959627
0.000898777
0.000850527
0.000813564
0.000786199
0.000766687
0.000753405
0.000744942
0.000740138
0.000738065
0.000738003
0.000739401
0.000741837
0.000744992
0.00074862
0.00075253
0.000756571
0.000760619
0.00076457
0.000768334
0.000771832
0.000774995
0.000777765
0.000780094
0.000781947
0.000783305
0.000784161
0.000784529
0.000784437
0.000783924
0.000783043
0.000781854
0.000780418
0.000778798
0.000777053
0.000775235
0.000773392
0.00077156
0.000769771
0.000768046
0.000766402
0.000764847
0.000763386
0.000762018
0.000760738
0.000759538
0.00075842
0.000757394
0.000756482
0.000755711
0.000755118
0.000754747
0.000754647
0.000754871
0.000755476
0.000756518
0.000758053
0.000760134
0.000762806
0.000766111
0.00077008
0.000774733
0.000780081
0.000786124
0.000792849
0.000800233
0.000808242
0.000816834
0.000825957
0.000835554
0.000845562
0.000855915
0.000866544
0.000877382
0.000888359
0.00089941
0.00091047
0.00092148
0.000932381
0.000943121
0.00095365
0.00096392
0.00097389
0.000983518
0.000992768
0.0010016
0.00100999
0.00101789
0.00102527
0.0010321
0.00103836
0.00104397
0.00104888
0.0010536
0.00105784
0.00106127
0.00106342
0.00106375
0.00106167
0.00105652
0.00104772
0.00103476
0.0010174
0.000995666
0.000969964
0.000941045
0.000909934
0.000877789
0.000845746
0.00081478
0.000785626
0.000758756
0.000734403
0.000712617
0.000693318
0.000676346
0.000661501
0.000648568
0.000637341
0.000627586
0.000619046
0.000610959
0.00060317
0.000595621
0.000588267
0.000581074
0.000574012
0.000567059
0.000560194
0.000553402
0.000546673
0.00054
0.000533381
0.000526818
0.000520316
0.000513886
0.000507543
0.000501303
0.000495189
0.000489226
0.00048344
0.000477862
0.000472524
0.000467456
0.000462692
0.000458261
0.000454195
0.000450518
0.000447254
0.000444423
0.000442037
0.000440109
0.000438641
0.000437636
0.000437091
0.000437
0.000437355
0.000438148
0.000439368
0.000441008
0.000443061
0.00044552
0.000448385
0.000451655
0.000455335
0.000459434
0.000464052
0.000469155
0.00047475
0.000480847
0.000487453
0.000494565
0.000502157
0.000510165
0.000518457
0.000526804
0.000534847
0.000542095
0.000548049
0.00250736
0.00236184
0.00221562
0.00207105
0.00192933
0.00179162
0.00165924
0.00153366
0.0014164
0.00130884
0.00121215
0.0011272
0.00105428
0.000993132
0.000943006
0.00090278
0.000871128
0.000846666
0.000828069
0.000814148
0.000803884
0.000796435
0.000791124
0.000787418
0.000784901
0.000783254
0.000782232
0.00078165
0.000781365
0.000781272
0.000781293
0.000781369
0.000781461
0.000781543
0.0007816
0.000781624
0.000781615
0.000781576
0.000781509
0.000781419
0.000781306
0.000781167
0.000780993
0.000780773
0.000780489
0.000780121
0.000779646
0.00077904
0.000778277
0.000777335
0.000776191
0.000774825
0.000773046
0.000770677
0.000767693
0.000764084
0.000759848
0.000754994
0.00074954
0.000743514
0.000736957
0.00072992
0.000722465
0.000714667
0.000706607
0.00069838
0.000690084
0.000681825
0.000673713
0.000665858
0.000658369
0.000651352
0.000644907
0.000639124
0.000634087
0.000629866
0.000626519
0.000624092
0.00062262
0.000622122
0.000622608
0.000624075
0.000626513
0.000629899
0.000634208
0.000639405
0.000645453
0.00065231
0.000659933
0.000668277
0.000677298
0.000686951
0.00069719
0.000707973
0.000719258
0.000731001
0.00074316
0.000755696
0.000768574
0.000781718
0.000795144
0.000810246
0.000827098
0.000845683
0.000865827
0.000887173
0.000909126
0.000930814
0.000951077
0.000968518
0.000981624
0.000988977
0.000989513
0.000982775
0.000969066
0.000949421
0.000925415
0.000898836
0.000871379
0.000844412
0.000818896
0.000795398
0.000774177
0.000755277
0.000738606
0.000724002
0.000711281
0.000700204
0.000690488
0.00068131
0.000672489
0.00066395
0.000655643
0.000647527
0.000639572
0.000631753
0.000624047
0.000616439
0.000608919
0.000601479
0.000594119
0.000586842
0.000579655
0.000572571
0.000565608
0.000558784
0.000552126
0.000545661
0.000539419
0.000533432
0.000527733
0.000522356
0.000517332
0.00051269
0.000508459
0.000504658
0.000501305
0.000498409
0.000495975
0.000494
0.000492474
0.000491384
0.000490709
0.000490428
0.000490515
0.000490945
0.000491695
0.000492741
0.000494062
0.000495642
0.000497466
0.000499521
0.0005018
0.000504295
0.000507
0.000509948
0.000513109
0.000516466
0.000519997
0.000523675
0.000527461
0.000531305
0.000535143
0.000538904
0.000542518
0.000545949
0.000549234
0.00315334
0.00301707
0.00287987
0.00274298
0.00260657
0.00247096
0.0023365
0.00220353
0.00207249
0.00194397
0.00181884
0.0016982
0.00158333
0.0014756
0.00137627
0.00128634
0.00120647
0.00113688
0.00107738
0.00102741
0.000986171
0.000952679
0.000925908
0.000904844
0.000888549
0.00087619
0.000867052
0.000860538
0.000856159
0.00085352
0.000852302
0.000852256
0.000853178
0.000854906
0.000857307
0.000860268
0.000863693
0.000867492
0.000871584
0.000875887
0.000880322
0.000884809
0.000889266
0.000893612
0.000897766
0.000901645
0.000905174
0.000908277
0.000910887
0.000912941
0.000914385
0.000915174
0.000915465
0.000915078
0.000913967
0.000912095
0.000909419
0.000905898
0.000901484
0.000896132
0.000889797
0.000882438
0.000874022
0.000864524
0.000853933
0.000842251
0.0008295
0.000815717
0.000800963
0.000785317
0.00076888
0.000751771
0.000734127
0.000716097
0.000697843
0.000679532
0.000661332
0.000643412
0.000625931
0.000609042
0.000592882
0.000577575
0.000563226
0.000549926
0.000537744
0.000526735
0.000516938
0.000508377
0.000501065
0.000495003
0.000490187
0.000486605
0.000484242
0.000483083
0.00048311
0.000484309
0.000486666
0.000490174
0.000494833
0.000500621
0.000507565
0.000516611
0.000528211
0.000542897
0.000561218
0.000583704
0.000610788
0.000642693
0.00067927
0.000719818
0.000762911
0.000806305
0.000847046
0.000881859
0.000907793
0.000922949
0.000926974
0.000921071
0.000907538
0.000889064
0.000868115
0.000846593
0.000825762
0.000806353
0.000788708
0.00077293
0.000758987
0.000746727
0.000735897
0.000725652
0.000715796
0.000706244
0.00069694
0.000687847
0.000678932
0.000670172
0.000661546
0.000653039
0.000644642
0.000636351
0.000628166
0.000620092
0.000612142
0.000604329
0.000596674
0.000589201
0.000581937
0.000574914
0.000568163
0.000561719
0.000555617
0.000549889
0.000544567
0.000539677
0.000535242
0.000531279
0.000527797
0.000524797
0.000522273
0.000520211
0.00051859
0.000517382
0.000516554
0.000516071
0.000515897
0.000515994
0.000516329
0.00051687
0.000517591
0.000518468
0.000519485
0.000520625
0.00052188
0.000523239
0.000524698
0.000526252
0.000527908
0.000529655
0.000531486
0.000533395
0.000535379
0.000537435
0.000539568
0.000541792
0.000544136
0.000546649
0.000549414
0.00376698
0.00365165
0.00353592
0.00342053
0.00330504
0.00318958
0.00307424
0.00295903
0.00284386
0.00272862
0.00261318
0.00249748
0.00238155
0.00226562
0.00215014
0.00203585
0.00192374
0.00181502
0.00171097
0.00161286
0.00152182
0.0014387
0.00136403
0.00129804
0.0012406
0.00119136
0.00114976
0.00111511
0.00108666
0.00106368
0.00104543
0.00103125
0.00102055
0.00101279
0.00100753
0.00100435
0.00100293
0.00100297
0.00100422
0.00100646
0.00100949
0.00101314
0.00101725
0.00102167
0.00102626
0.0010309
0.00103548
0.00103988
0.001044
0.00104775
0.00105106
0.00105384
0.00105621
0.00105849
0.00106069
0.0010628
0.00106481
0.00106668
0.00106838
0.00106984
0.00107098
0.0010717
0.00107187
0.00107135
0.00106999
0.00106762
0.00106407
0.00105917
0.00105275
0.00104465
0.00103473
0.00102289
0.00100904
0.000993137
0.000975183
0.00095522
0.00093334
0.000909678
0.000884412
0.000857759
0.000829968
0.000801311
0.000772076
0.000742556
0.000713042
0.000683813
0.000655129
0.000627225
0.000600306
0.000574547
0.000550089
0.000527043
0.000505488
0.000485478
0.000467043
0.000450196
0.000434932
0.000421244
0.000409118
0.000398518
0.00038939
0.000381088
0.000374028
0.000368834
0.000366247
0.000367133
0.000372478
0.000383376
0.000400996
0.000426497
0.000460863
0.000504597
0.000557266
0.000616955
0.000679893
0.000740654
0.00079325
0.000832879
0.000857414
0.000867732
0.000866808
0.000858312
0.000845518
0.000830833
0.000815803
0.000801322
0.000787866
0.00077561
0.000764506
0.00075385
0.000743479
0.000733318
0.000723329
0.000713487
0.000703774
0.000694178
0.000684688
0.000675298
0.000666007
0.000656817
0.000647738
0.00063878
0.000629964
0.000621309
0.000612844
0.000604598
0.000596605
0.000588901
0.000581523
0.000574508
0.000567894
0.000561713
0.000555998
0.000550772
0.000546056
0.00054186
0.000538187
0.000535031
0.000532379
0.000530204
0.000528478
0.000527162
0.000526215
0.000525593
0.000525251
0.000525147
0.000525242
0.000525501
0.000525896
0.000526403
0.000527006
0.000527691
0.000528451
0.000529282
0.000530181
0.00053115
0.000532193
0.000533316
0.000534524
0.000535828
0.00053724
0.000538776
0.000540459
0.000542321
0.0005444
0.000546749
0.000549434
0.00427587
0.00418675
0.00409756
0.00400918
0.00392074
0.00383248
0.00374452
0.0036569
0.00356955
0.00348228
0.00339488
0.00330705
0.00321852
0.00312898
0.00303818
0.00294588
0.00285191
0.00275621
0.00265884
0.00256006
0.00246033
0.00236035
0.00226099
0.00216324
0.00206817
0.00197679
0.00188999
0.00180849
0.00173276
0.00166307
0.00159943
0.00154171
0.00148959
0.00144267
0.0014005
0.00136261
0.00132855
0.00129792
0.00127036
0.00124559
0.00122339
0.00120358
0.00118604
0.00117067
0.00115737
0.00114605
0.00113659
0.00112886
0.0011227
0.00111793
0.00111436
0.00111178
0.00110999
0.00110907
0.00110866
0.00110877
0.00110953
0.00111108
0.00111353
0.001117
0.00112157
0.00112728
0.00113415
0.00114215
0.00115123
0.00116128
0.00117214
0.00118362
0.00119547
0.00120739
0.00121904
0.00123006
0.00124001
0.00124847
0.00125497
0.00125907
0.00126033
0.00125833
0.00125272
0.0012432
0.00122957
0.00121173
0.00118966
0.00116348
0.00113341
0.00109976
0.00106297
0.0010235
0.000981912
0.00093877
0.000894653
0.000850123
0.000805708
0.000761884
0.000719064
0.000677596
0.000637755
0.000599756
0.00056376
0.000529836
0.000497894
0.000465278
0.000432398
0.00040005
0.000369169
0.000340782
0.000315954
0.00029575
0.000281217
0.000273412
0.000273472
0.000282699
0.000302609
0.000334829
0.000380659
0.000440151
0.000510803
0.000586605
0.000658777
0.000718718
0.000761473
0.000787015
0.000798755
0.00080109
0.00079777
0.000791397
0.0007836
0.000775321
0.000767055
0.000758651
0.000750072
0.000741314
0.000732392
0.000723326
0.000714139
0.000704851
0.000695483
0.000686053
0.000676586
0.000667104
0.000657637
0.000648216
0.000638877
0.00062966
0.000620607
0.000611765
0.000603182
0.000594905
0.000586983
0.000579463
0.00057239
0.000565801
0.000559732
0.000554207
0.000549245
0.000544854
0.000541032
0.000537767
0.000535036
0.000532808
0.000531045
0.000529701
0.000528729
0.000528077
0.000527696
0.000527541
0.00052757
0.000527746
0.000528042
0.000528435
0.000528907
0.00052945
0.000530056
0.000530724
0.000531457
0.000532257
0.000533131
0.000534088
0.000535139
0.000536297
0.000537578
0.000539004
0.0005406
0.000542397
0.000544433
0.000546759
0.000549436
0.00461328
0.00455142
0.00448901
0.00442783
0.00436663
0.00430591
0.00424592
0.00418689
0.0041289
0.0040719
0.00401578
0.00396029
0.00390516
0.00385005
0.00379461
0.00373846
0.00368125
0.00362264
0.00356235
0.00350013
0.00343582
0.00336932
0.00330063
0.00322982
0.00315711
0.00308279
0.00300728
0.00293105
0.00285464
0.00277857
0.00270332
0.00262927
0.00255667
0.00248561
0.00241604
0.00234774
0.00228039
0.00221358
0.00214686
0.00207984
0.00201219
0.00194374
0.00187454
0.00180487
0.00173528
0.00166653
0.00159956
0.0015354
0.00147508
0.00141949
0.00136934
0.00132507
0.00128681
0.00125441
0.00122847
0.00120495
0.00118304
0.00116279
0.00114432
0.00112788
0.00111372
0.00110204
0.00109309
0.00108707
0.00108415
0.00108448
0.00108819
0.00109537
0.00110608
0.00112033
0.0011381
0.0011593
0.00118378
0.00121132
0.00124158
0.00127416
0.00130849
0.00134393
0.00137967
0.00141478
0.00144824
0.00147892
0.00150564
0.00152722
0.00154254
0.00155062
0.00155063
0.00154203
0.00152455
0.00149826
0.00146356
0.0014211
0.00137184
0.00131688
0.00125744
0.00119474
0.00112998
0.00106425
0.000998518
0.000933539
0.000869475
0.000801585
0.000730365
0.000657178
0.00058382
0.00051236
0.000444943
0.000383558
0.000329818
0.000284826
0.000249172
0.000223074
0.000206632
0.000200131
0.000204344
0.00022075
0.000251457
0.000298467
0.000361854
0.000437232
0.000514883
0.000583265
0.000634984
0.000669385
0.000690158
0.000701778
0.000707687
0.000710068
0.000710309
0.000709362
0.000707405
0.000704539
0.00070085
0.000696421
0.000691325
0.000685627
0.000679387
0.000672662
0.000665509
0.000657986
0.000650153
0.000642073
0.000633814
0.000625448
0.000617049
0.000608694
0.000600462
0.00059243
0.000584675
0.000577266
0.000570269
0.000563741
0.00055773
0.00055227
0.000547387
0.000543093
0.000539384
0.000536248
0.000533659
0.000531581
0.000529971
0.000528777
0.000527948
0.00052743
0.00052717
0.000527121
0.000527241
0.000527494
0.000527852
0.000528295
0.000528806
0.000529378
0.000530007
0.000530691
0.000531435
0.000532243
0.000533123
0.000534083
0.000535136
0.000536295
0.000537578
0.000539004
0.0005406
0.000542397
0.000544433
0.000546759
0.000549436
0.00473918
0.00470305
0.00466497
0.00462823
0.00459134
0.00455505
0.00451975
0.00448584
0.00445358
0.00442315
0.00439458
0.00436783
0.00434277
0.00431921
0.00429689
0.00427555
0.00425488
0.00423457
0.00421428
0.0041937
0.00417251
0.0041504
0.00412711
0.00410242
0.00407617
0.00404825
0.00401865
0.00398742
0.00395468
0.00392061
0.00388544
0.0038494
0.00381272
0.00377558
0.00373812
0.00370036
0.00366222
0.00362347
0.00358368
0.00354225
0.00349826
0.00345056
0.00339772
0.00333817
0.00327024
0.00319237
0.00310322
0.00300191
0.00288825
0.00276296
0.00262774
0.0024853
0.00233923
0.00219369
0.00205284
0.00192532