/*--------------------------------*- C++ -*----------------------------------*\
| =========                 |                                                 |
| \\      /  F ield         | OpenFOAM: The Open Source CFD Toolbox           |
|  \\    /   O peration     | Version:  2406                                  |
|   \\  /    A nd           | Website:  www.openfoam.com                      |
|    \\/     M anipulation  |                                                 |
\*---------------------------------------------------------------------------*/
FoamFile
{
    version     2.0;
    format      ascii;
    arch        "LSB;label=32;scalar=64";
    class       volScalarField;
    location    "1000";
    object      epsilon;
}
// * * * * * * * * * * * * * * * * * * * * * * * * * * * * * * * * * * * * * //

dimensions      [0 2 -3 0 0 0 0];

internalField   nonuniform List<scalar> 
5619
(
2.36952
2.35389
2.3375
2.32493
2.31462
2.30652
2.30042
2.29625
2.29404
2.29382
2.29567
2.29965
2.30583
2.31435
2.32539
2.3391
2.35561
2.37505
2.39753
2.42312
2.45183
2.48352
2.51784
2.55422
2.59198
2.63052
2.6697
2.7103
2.75438
2.80536
2.86761
2.94562
3.04306
3.16197
3.3024
3.46252
3.63895
3.82725
4.02236
4.2189
4.41149
4.59493
4.76441
4.91561
5.04488
5.14928
5.2267
5.27583
5.2962
5.28809
5.25247
5.19091
5.10547
4.99851
4.87266
4.73062
4.57504
4.41285
4.24836
4.08394
3.92147
3.76244
3.60798
3.45896
3.31595
3.17933
3.04931
2.92594
2.80916
2.69884
2.59477
2.4967
2.40435
2.31744
2.23565
2.15867
2.0862
2.01795
1.95362
1.89295
1.83566
1.78153
1.7303
1.68177
1.63573
1.59198
1.55036
1.51068
1.47281
1.43659
1.40189
1.36859
1.33657
1.30573
1.27595
1.24717
1.21928
1.19221
1.16588
1.14023
1.11523
1.08832
1.05958
1.02913
0.997162
0.963906
0.929666
0.894783
0.859636
0.824618
0.790125
0.75653
0.724174
0.693344
0.664267
0.637106
0.611958
0.58886
0.567797
0.54871
0.531509
0.51608
0.502296
0.490023
0.479126
0.469475
0.460944
0.453415
0.446791
0.440346
0.434043
0.427847
0.421727
0.415656
0.409609
0.403564
0.397502
0.391406
0.385261
0.379057
0.372783
0.366435
0.360009
0.353504
0.346924
0.340276
0.333568
0.326815
0.320034
0.313245
0.306471
0.299742
0.293087
0.286541
0.28014
0.273921
0.267924
0.26219
0.256757
0.251663
0.246942
0.242627
0.238743
0.235309
0.23234
0.229839
0.227804
0.226224
0.225078
0.224342
0.223983
0.223964
0.224255
0.224816
0.225617
0.226655
0.227982
0.229762
0.232344
0.236364
0.242826
0.253082
0.268508
0.28948
0.31234
0.320609
0.265784
0.899496
0.892122
0.886204
0.881566
0.878256
0.876276
0.875658
0.87645
0.878722
0.882554
0.888018
0.895157
0.903937
0.91451
0.927102
0.941924
0.959144
0.978928
1.00143
1.02675
1.05491
1.08573
1.11874
1.15297
1.1869
1.21833
1.24449
1.26235
1.26915
1.26299
1.24343
1.21168
1.17042
1.12312
1.07331
1.02391
0.976905
0.933329
0.893417
0.856866
0.823067
0.791288
0.7608
0.730957
0.701237
0.671265
0.640818
0.609821
0.578338
0.546556
0.514771
0.48336
0.45276
0.423447
0.395909
0.371156
0.349851
0.330274
0.311854
0.294581
0.278437
0.263393
0.249412
0.236451
0.224462
0.213394
0.203192
0.193801
0.185166
0.177231
0.169944
0.163253
0.15711
0.151467
0.146282
0.141515
0.137128
0.133086
0.129359
0.125917
0.122733
0.119784
0.117049
0.114506
0.112139
0.109931
0.107868
0.105937
0.104125
0.102422
0.100819
0.0993058
0.0978755
0.0965207
0.0952351
0.0940129
0.0928489
0.0917386
0.0906781
0.0896621
0.0886885
0.087658
0.0865747
0.0854483
0.0842897
0.0831123
0.0819312
0.0807627
0.0796234
0.0785295
0.0774955
0.0765341
0.0756548
0.074864
0.0741647
0.0735567
0.0730368
0.0725997
0.0722384
0.0719451
0.0717112
0.0715287
0.0713897
0.071287
0.0712141
0.0711655
0.0711365
0.0711217
0.071118
0.0711233
0.0711364
0.0711576
0.0711865
0.0712235
0.0712689
0.071323
0.0713865
0.0714601
0.0715445
0.0716408
0.0717499
0.0718729
0.0720111
0.0721658
0.0723383
0.07253
0.0727422
0.0729763
0.0732335
0.0735149
0.0738214
0.0741535
0.0745114
0.074895
0.0753034
0.0757351
0.0761882
0.0766598
0.0771463
0.0776436
0.0781465
0.0786498
0.0791473
0.0796326
0.0800988
0.0805383
0.0809425
0.0813014
0.0816017
0.0818261
0.0819504
0.0819409
0.0818401
0.0815969
0.0811312
0.0803304
0.0790468
0.0771032
0.0743204
0.0705794
0.0659253
0.0606806
0.0554702
0.0510174
0.0475961
0.0440459
0.0357099
0.421867
0.417874
0.414909
0.412687
0.411339
0.410898
0.411374
0.412757
0.415025
0.418138
0.42201
0.426521
0.431693
0.43745
0.443725
0.450369
0.457155
0.463767
0.469794
0.474723
0.477952
0.478828
0.476702
0.471009
0.461369
0.447673
0.430155
0.4094
0.386297
0.361913
0.337341
0.313536
0.291199
0.270734
0.25226
0.23568
0.220763
0.207214
0.194738
0.183073
0.172016
0.161422
0.151209
0.141348
0.131846
0.122743
0.11409
0.105947
0.0983683
0.0914012
0.0850805
0.0794271
0.074448
0.0701543
0.0665972
0.0633539
0.0603381
0.0575029
0.0548296
0.0523095
0.0499346
0.0476974
0.0455909
0.0436083
0.0417434
0.0399904
0.0383437
0.0367981
0.0353485
0.0339903
0.0327188
0.0315297
0.0304186
0.0293815
0.0284142
0.0275129
0.0266737
0.025893
0.0251671
0.0244925
0.0238659
0.0232841
0.022744
0.0222427
0.0217774
0.0213456
0.0209448
0.0205726
0.020227
0.019906
0.0196078
0.0193306
0.0190729
0.0188333
0.0186105
0.0184033
0.0182107
0.0180318
0.0178661
0.0177115
0.0175685
0.0174236
0.0172779
0.0171353
0.0169994
0.0168744
0.0167647
0.0166746
0.0166083
0.0165694
0.0165606
0.0165838
0.0166394
0.0167268
0.0168438
0.0169877
0.0171544
0.0173395
0.0175383
0.0177459
0.0179579
0.0181699
0.0183783
0.0185802
0.0187732
0.0189555
0.0191262
0.0192841
0.0194293
0.0195767
0.0197267
0.0198803
0.020038
0.0202008
0.0203695
0.0205449
0.0207279
0.0209195
0.0211208
0.0213326
0.0215561
0.0217923
0.0220422
0.022307
0.0225876
0.0228849
0.0231997
0.0235328
0.0238846
0.0242552
0.0246444
0.0250516
0.0254755
0.0259142
0.026365
0.0268242
0.0272871
0.027748
0.0281998
0.0286345
0.0290428
0.0294144
0.0297383
0.0300027
0.0301958
0.0303055
0.03032
0.0302285
0.0300207
0.0296884
0.0292264
0.0286548
0.0279516
0.0271031
0.0260959
0.0249184
0.0235651
0.0220435
0.0203821
0.0186388
0.0169057
0.0153029
0.0139533
0.0129303
0.0121633
0.0112655
0.0091252
0.219279
0.217249
0.215602
0.214172
0.213063
0.212316
0.211908
0.211766
0.211783
0.21181
0.211719
0.211417
0.210755
0.209599
0.207805
0.205238
0.201786
0.197372
0.191966
0.185598
0.178357
0.17039
0.161892
0.153088
0.144212
0.13549
0.127118
0.119251
0.11199
0.105384
0.0994301
0.0940827
0.0892671
0.0848925
0.0808656
0.0771009
0.0735288
0.0700987
0.0667799
0.0635601
0.0604418
0.0574382
0.0545687
0.0518551
0.0493179
0.0469737
0.044834
0.0429039
0.0411822
0.0396617
0.03833
0.0371708
0.0361642
0.0352841
0.0344565
0.0336597
0.0328845
0.0321248
0.0313761
0.0306351
0.0298992
0.0291666
0.0284362
0.0277078
0.0269815
0.0262581
0.0255387
0.0248249
0.0241182
0.0234203
0.022733
0.0220581
0.021397
0.0207512
0.020122
0.0195104
0.0189172
0.0183432
0.0177887
0.0172539
0.0167391
0.0162441
0.0157687
0.0153126
0.0148753
0.0144564
0.0140552
0.0136712
0.0133036
0.0129518
0.0126151
0.0122928
0.0119841
0.0116884
0.011405
0.0111334
0.0108727
0.0106226
0.0103829
0.0101515
0.00992879
0.00969397
0.00944659
0.00918993
0.00892702
0.00866182
0.0083988
0.00814281
0.00789876
0.00767134
0.00746468
0.00728203
0.00712559
0.00699636
0.00689422
0.00681798
0.00676564
0.00673458
0.00672185
0.00672434
0.00673899
0.00676294
0.0067936
0.00682875
0.00686648
0.00690531
0.00694416
0.00698174
0.00701771
0.00705547
0.0070949
0.00713631
0.00717986
0.00722577
0.00727429
0.00732569
0.00738026
0.00743834
0.00750026
0.00756639
0.0076371
0.00771278
0.00779382
0.00788061
0.00797349
0.00807282
0.00817885
0.00829178
0.00841169
0.00853852
0.00867202
0.00881168
0.00895672
0.00910599
0.00925792
0.00941048
0.00956112
0.00970675
0.00984374
0.00996795
0.0100748
0.0101596
0.0102174
0.0102434
0.0102337
0.0101847
0.0100944
0.00996223
0.00978936
0.00957931
0.0093382
0.00906389
0.00875252
0.00840931
0.00804029
0.00765295
0.00725677
0.0068635
0.0064873
0.00614424
0.00585072
0.00562007
0.00545597
0.00534027
0.00521047
0.0049233
0.0042058
0.109583
0.108359
0.107158
0.105835
0.1044
0.10287
0.101238
0.0994748
0.0975448
0.0954342
0.0931452
0.0906606
0.0879826
0.085128
0.0821279
0.0790257
0.0758748
0.0727341
0.0696633
0.0667177
0.0639442
0.0613779
0.059041
0.0569418
0.0550768
0.0534319
0.0519853
0.0507096
0.0495739
0.0485459
0.0475938
0.0466884
0.0458046
0.0449228
0.0440305
0.0431221
0.0421989
0.041268
0.040341
0.0394323
0.038557
0.0377299
0.0369636
0.0362677
0.0356484
0.0351082
0.0346458
0.034257
0.0339348
0.03367
0.0334522
0.0332701
0.0331039
0.0329238
0.0327198
0.0324863
0.0322188
0.0319142
0.0315704
0.0311865
0.0307625
0.0302994
0.0297989
0.0292638
0.0286971
0.0281026
0.0274842
0.0268461
0.0261923
0.025527
0.0248542
0.0241776
0.0235006
0.0228263
0.0221575
0.0214967
0.020846
0.0202071
0.0195814
0.0189702
0.0183742
0.0177942
0.0172305
0.0166833
0.0161527
0.0156387
0.015141
0.0146592
0.0141931
0.0137422
0.0133059
0.0128837
0.0124751
0.0120796
0.0116964
0.0113251
0.010965
0.0106158
0.0102774
0.00994753
0.00962557
0.0092829
0.00891776
0.0085334
0.00813327
0.00772206
0.00730534
0.00688944
0.00648108
0.00608696
0.00571329
0.00536534
0.00504711
0.00476109
0.00450828
0.00428826
0.00409949
0.00393961
0.00380572
0.00369473
0.0036035
0.00352907
0.00346873
0.00342004
0.00338091
0.00334958
0.00332465
0.00330455
0.00328847
0.00327439
0.00326185
0.00325084
0.00324125
0.00323303
0.00322613
0.00322056
0.00321634
0.00321349
0.00321209
0.0032122
0.00321391
0.00321733
0.00322258
0.00322978
0.00323906
0.00325053
0.00326431
0.00328049
0.00329912
0.00332024
0.00334381
0.00336971
0.00339776
0.00342765
0.00345897
0.00349117
0.00352357
0.00355533
0.00358551
0.00361304
0.00363682
0.00365572
0.00366868
0.00367479
0.00367339
0.00366412
0.00364703
0.00362258
0.00359173
0.00355586
0.0035167
0.00347395
0.00342381
0.00337002
0.00331532
0.00326258
0.00321483
0.00317517
0.00314669
0.00313211
0.00313316
0.0031494
0.00317611
0.003201
0.00319956
0.00313229
0.00295543
0.054429
0.0524346
0.0506673
0.0490644
0.0475801
0.0461835
0.0448507
0.0435708
0.0423467
0.0411813
0.0400774
0.0390449
0.0380944
0.0372368
0.0364815
0.0358364
0.0353065
0.0348938
0.0345969
0.0344112
0.0343289
0.0343396
0.034431
0.0345892
0.0347997
0.0350478
0.0353191
0.0356002
0.0358787
0.0361442
0.0363883
0.0366051
0.0367915
0.0369471
0.0370744
0.037178
0.0372648
0.0373424
0.037419
0.0375024
0.0375994
0.0377153
0.0378533
0.0380148
0.038199
0.0384031
0.038623
0.0388528
0.039086
0.0393149
0.0395319
0.0397289
0.0398687
0.0399365
0.039927
0.0398364
0.0396629
0.0394061
0.0390674
0.0386497
0.0381572
0.0375952
0.03697
0.0362886
0.0355583
0.0347867
0.0339812
0.0331492
0.0322974
0.0314325
0.0305602
0.0296859
0.0288141
0.027949
0.027094
0.026252
0.0254253
0.0246158
0.0238249
0.0230537
0.022303
0.0215731
0.0208642
0.0201763
0.0195093
0.0188627
0.0182362
0.0176291
0.0170408
0.0164707
0.015918
0.015382
0.014862
0.0143571
0.0138668
0.0133902
0.0129266
0.0124754
0.0120367
0.0116077
0.0111867
0.0107375
0.0102574
0.00974967
0.00921859
0.00866987
0.00811051
0.00754865
0.00699308
0.00645279
0.00593632
0.00545113
0.00500312
0.00459624
0.00423241
0.00391162
0.00363224
0.00339146
0.00318571
0.00301109
0.00286362
0.00273953
0.00263534
0.00254796
0.00247469
0.00241324
0.00236175
0.00231825
0.00228148
0.00224734
0.00221508
0.00218455
0.00215554
0.00212787
0.00210143
0.00207611
0.00205184
0.00202857
0.00200628
0.00198497
0.00196466
0.0019454
0.00192725
0.00191027
0.00189455
0.0018802
0.00186731
0.001856
0.00184637
0.00183853
0.00183254
0.00182849
0.00182642
0.00182632
0.00182817
0.00183189
0.00183735
0.00184439
0.00185278
0.00186227
0.00187258
0.00188342
0.00189451
0.0019056
0.00191652
0.00192716
0.00193753
0.00194773
0.00195799
0.00196864
0.00198011
0.00199287
0.00200611
0.00202043
0.00203703
0.00205696
0.00208128
0.00211099
0.002147
0.00218997
0.00224012
0.00229686
0.00235841
0.00242146
0.00248143
0.00253543
0.00259216
0.0385975
0.0355921
0.0329036
0.0305948
0.0286862
0.0271691
0.0260143
0.0251809
0.0246251
0.0243055
0.0241745
0.0242008
0.0243613
0.024638
0.0250168
0.0254862
0.0260363
0.0266581
0.0273433
0.0280839
0.0288722
0.0297007
0.0305624
0.0314505
0.0323586
0.033281
0.0342126
0.0351489
0.0360862
0.0370217
0.0379533
0.0388798
0.0398007
0.0407162
0.041627
0.0425341
0.0434384
0.0443406
0.0452409
0.0461388
0.0470332
0.0479216
0.0488011
0.0496674
0.0505157
0.05134
0.0521341
0.0528909
0.0536031
0.0542631
0.0548632
0.0553961
0.0557914
0.0560323
0.0561124
0.0560289
0.0557818
0.0553744
0.0548131
0.0541067
0.0532667
0.0523062
0.0512398
0.0500829
0.0488512
0.0475604
0.0462255
0.0448606
0.0434787
0.0420915
0.0407092
0.0393405
0.0379927
0.0366718
0.0353823
0.0341278
0.0329107
0.0317327
0.0305946
0.0294966
0.0284385
0.0274196
0.0264389
0.0254953
0.0245873
0.0237135
0.0228723
0.0220621
0.0212813
0.0205282
0.0198013
0.0190991
0.0184201
0.0177628
0.0171259
0.0165081
0.0159082
0.0153251
0.0147586
0.0142052
0.0136617
0.0130822
0.0124629
0.0118081
0.0111228
0.0104144
0.00969161
0.00896473
0.00824493
0.00754368
0.00687202
0.00623977
0.00565483
0.00512268
0.00464619
0.00422567
0.00385924
0.00354335
0.00327336
0.00304413
0.00285041
0.00268719
0.0025499
0.00243449
0.00233742
0.00225573
0.00218699
0.00212874
0.00207925
0.00203317
0.00198951
0.001948
0.00190833
0.00187028
0.00183366
0.00179832
0.00176415
0.00173105
0.00169899
0.00166793
0.00163786
0.00160882
0.00158084
0.00155399
0.00152835
0.00150401
0.00148109
0.0014597
0.00143996
0.001422
0.00140594
0.00139188
0.00137993
0.00137016
0.00136264
0.00135738
0.00135438
0.00135362
0.00135503
0.00135851
0.00136394
0.0013712
0.00138014
0.00139064
0.00140258
0.00141588
0.00143052
0.00144651
0.00146393
0.00148293
0.0015037
0.00152652
0.00155169
0.00157918
0.00160957
0.00164348
0.00168151
0.00172433
0.0017726
0.00182703
0.00188834
0.00195731
0.00203492
0.00212267
0.0022234
0.0023431
0.0024938
0.0459887
0.0425235
0.0391132
0.0358925
0.0329617
0.0304036
0.0282747
0.0266012
0.0253788
0.0245835
0.0241711
0.024091
0.0242919
0.0247268
0.0253552
0.0261437
0.0270655
0.0281
0.0292309
0.0304456
0.0317347
0.0330907
0.034508
0.0359825
0.0375108
0.0390908
0.0407206
0.042399
0.0441247
0.0458969
0.0477141
0.0495749
0.0514773
0.0534184
0.0553947
0.0574018
0.0594343
0.0614858
0.063549
0.0656158
0.0676768
0.0697224
0.0717416
0.0737232
0.0756551
0.0775245
0.0793187
0.0810243
0.0826282
0.0841173
0.0854791
0.0867019
0.0876745
0.0883537
0.088726
0.0887839
0.0885257
0.0879554
0.0870829
0.0859235
0.0844971
0.0828281
0.0809439
0.0788743
0.0766505
0.074304
0.0718658
0.0693658
0.0668317
0.0642888
0.0617596
0.0592636
0.0568169
0.0544329
0.0521219
0.0498915
0.0477468
0.0456909
0.0437251
0.0418492
0.0400618
0.0383604
0.0367421
0.0352031
0.0337397
0.0323477
0.031023
0.0297612
0.0285585
0.0274106
0.026314
0.0252648
0.0242597
0.0232954
0.0223689
0.0214775
0.0206183
0.0197892
0.0189889
0.0182124
0.0174545
0.0166502
0.0157957
0.0148975
0.0139635
0.013004
0.0120314
0.0110594
0.0101028
0.00917597
0.00829276
0.00746503
0.00670209
0.00601023
0.00539248
0.00484879
0.00437641
0.00397053
0.00362493
0.00333269
0.00308679
0.0028805
0.00270769
0.00256295
0.00244161
0.00233977
0.00225424
0.00218194
0.00212058
0.00206363
0.0020098
0.00195868
0.00190986
0.00186307
0.00181806
0.00177462
0.00173262
0.00169192
0.00165246
0.00161418
0.00157707
0.00154114
0.00150642
0.00147297
0.00144087
0.00141021
0.00138111
0.00135369
0.00132806
0.00130436
0.00128273
0.00126327
0.0012461
0.00123132
0.00121898
0.00120916
0.00120186
0.00119708
0.00119478
0.00119491
0.00119738
0.0012021
0.00120894
0.00121781
0.00122861
0.00124127
0.00125573
0.00127201
0.00129015
0.00131025
0.00133248
0.00135703
0.0013842
0.00141432
0.00144765
0.00148473
0.00152618
0.00157267
0.00162505
0.0016843
0.00175169
0.0018288
0.00191776
0.00202148
0.0021441
0.00229154
0.00247204
0.0693932
0.0665869
0.0634919
0.060177
0.0567178
0.0532101
0.0497625
0.046488
0.0434953
0.040874
0.0386943
0.0369984
0.0358
0.0350881
0.0348333
0.0349949
0.0355275
0.0363858
0.0375284
0.0389195
0.0405294
0.0423346
0.0443172
0.0464637
0.0487647
0.0512139
0.0538069
0.0565411
0.0594149
0.0624267
0.0655748
0.068857
0.0722695
0.0758073
0.0794632
0.0832282
0.0870909
0.0910377
0.0950527
0.0991179
0.103213
0.107317
0.111406
0.115455
0.119437
0.123325
0.127092
0.13071
0.134151
0.137388
0.140397
0.143151
0.145551
0.147471
0.14888
0.149753
0.150075
0.149838
0.149048
0.147715
0.145861
0.143517
0.140719
0.13751
0.13394
0.13006
0.125924
0.121587
0.117102
0.112522
0.107894
0.103265
0.0986722
0.0941518
0.0897326
0.0854387
0.0812889
0.0772971
0.0734729
0.0698219
0.0663463
0.0630455
0.0599166
0.0569547
0.0541537
0.0515061
0.0490043
0.0466398
0.0444042
0.0422891
0.0402862
0.0383876
0.0365855
0.0348729
0.0332428
0.0316891
0.0302058
0.0287876
0.0274309
0.0261272
0.0248683
0.0235414
0.0221451
0.020693
0.0192007
0.0176875
0.0161752
0.0146867
0.0132452
0.0118725
0.0105872
0.00940378
0.00833165
0.0073749
0.00653281
0.00580073
0.00517116
0.00463479
0.00418143
0.00380067
0.00348241
0.00321719
0.0029965
0.00281287
0.00265987
0.00253219
0.00242547
0.00233571
0.00225987
0.00218987
0.00212404
0.00206174
0.00200246
0.00194583
0.00189152
0.00183927
0.00178888
0.00174021
0.00169313
0.00164757
0.00160351
0.00156093
0.00151985
0.00148034
0.00144246
0.0014063
0.00137197
0.00133959
0.00130928
0.00128117
0.00125539
0.00123204
0.00121123
0.00119306
0.00117759
0.00116486
0.00115489
0.00114766
0.00114315
0.00114128
0.00114198
0.00114513
0.00115064
0.00115839
0.00116828
0.00118024
0.00119422
0.00121022
0.00122826
0.00124845
0.00127093
0.00129591
0.00132367
0.00135455
0.00138897
0.00142739
0.00147045
0.00151892
0.00157371
0.00163597
0.00170713
0.00178897
0.00188379
0.00199459
0.00212525
0.00228091
0.0024683
0.104731
0.104332
0.103562
0.102372
0.100723
0.098616
0.0960662
0.0931094
0.0898045
0.0862367
0.0825166
0.078774
0.0751487
0.0717785
0.068788
0.066279
0.0643253
0.0629714
0.0622348
0.0621107
0.0625774
0.0636033
0.0651515
0.0671845
0.0696671
0.0725679
0.0758605
0.0795229
0.0835375
0.0878897
0.0925671
0.0975585
0.102853
0.108437
0.114298
0.120419
0.12678
0.13336
0.140132
0.147066
0.154131
0.16129
0.168504
0.175732
0.18293
0.19005
0.197045
0.203865
0.21046
0.216781
0.222779
0.228405
0.233662
0.23827
0.242158
0.245274
0.247574
0.249027
0.249613
0.249324
0.248167
0.24616
0.243332
0.239726
0.235392
0.23039
0.22479
0.218662
0.212086
0.20514
0.197903
0.190455
0.182869
0.175218
0.167566
0.159972
0.152489
0.145161
0.138026
0.131114
0.124447
0.118042
0.111911
0.106058
0.100485
0.0951892
0.0901643
0.0854021
0.0808925
0.0766238
0.0725837
0.0687592
0.065137
0.0617041
0.0584476
0.0553553
0.0524151
0.0496165
0.0469506
0.0444017
0.0419569
0.0393866
0.0366949
0.0339118
0.0310706
0.0282115
0.0253791
0.0226205
0.0199828
0.0175096
0.0152377
0.0131937
0.0113918
0.00983284
0.00850583
0.00739041
0.006461
0.00569056
0.00505354
0.00452746
0.00409328
0.0037351
0.00343964
0.00319579
0.00299424
0.00282729
0.00268873
0.002573
0.00247591
0.00238703
0.00230404
0.00222598
0.00215214
0.00208197
0.00201505
0.00195103
0.00188962
0.0018306
0.00177382
0.00171916
0.00166655
0.00161596
0.0015674
0.0015209
0.00147652
0.00143434
0.00139445
0.00135696
0.00132198
0.00128962
0.00125999
0.00123318
0.00120929
0.00118837
0.00117047
0.00115561
0.00114378
0.00113495
0.00112906
0.00112601
0.00112572
0.00112805
0.00113287
0.00114008
0.00114955
0.0011612
0.00117497
0.00119085
0.00120888
0.00122914
0.00125177
0.00127699
0.00130508
0.00133637
0.0013713
0.00141039
0.00145426
0.0015037
0.00155964
0.00162325
0.00169596
0.00177957
0.00187634
0.00198917
0.00212182
0.00227919
0.00246778
0.144433
0.147871
0.151247
0.154473
0.157433
0.160085
0.162373
0.164236
0.165604
0.166406
0.166578
0.166071
0.164862
0.162964
0.160432
0.157367
0.153906
0.150219
0.146493
0.142917
0.139671
0.136916
0.134781
0.133366
0.132739
0.13294
0.133985
0.135868
0.138574
0.142076
0.146342
0.151337
0.157025
0.163368
0.17033
0.177875
0.185964
0.194561
0.203625
0.213116
0.222989
0.233196
0.243685
0.254401
0.265281
0.27626
0.287269
0.298232
0.309076
0.31972
0.330088
0.3401
0.349817
0.358865
0.366954
0.373991
0.379904
0.384638
0.388155
0.390433
0.391463
0.391252
0.38982
0.3872
0.383437
0.378587
0.372717
0.365901
0.358222
0.349771
0.34064
0.330926
0.320728
0.310142
0.299265
0.288187
0.276996
0.265772
0.254589
0.243513
0.232601
0.221904
0.211464
0.201315
0.191483
0.181988
0.172845
0.164061
0.15564
0.147581
0.139879
0.132527
0.125515
0.118831
0.112462
0.106392
0.100606
0.0950887
0.0898271
0.0847928
0.0799662
0.0748849
0.0695587
0.064044
0.0584028
0.0527088
0.047044
0.0414958
0.036155
0.0311114
0.0264501
0.0222441
0.0185473
0.0153868
0.0127582
0.0106261
0.00893087
0.00759931
0.00655692
0.00573717
0.00508637
0.00456422
0.00414152
0.00379713
0.00351526
0.00328375
0.00309304
0.00293503
0.00280354
0.00268431
0.00257396
0.00247096
0.00237426
0.00228306
0.00219674
0.00211476
0.00203673
0.00196231
0.00189125
0.00182337
0.00175853
0.00169666
0.00163772
0.0015817
0.00152863
0.00147855
0.00143153
0.00138765
0.00134697
0.00130958
0.00127553
0.0012449
0.00121771
0.001194
0.00117375
0.00115694
0.00114352
0.00113342
0.00112651
0.00112268
0.00112179
0.00112368
0.00112819
0.00113519
0.00114453
0.00115611
0.00116986
0.00118577
0.00120385
0.00122419
0.00124694
0.00127229
0.00130053
0.001332
0.00136714
0.00140647
0.00145063
0.00150038
0.00155668
0.00162067
0.0016938
0.00177783
0.00187504
0.00198828
0.00212129
0.00227893
0.00246771
0.179206
0.186698
0.194582
0.202847
0.211366
0.220157
0.229209
0.238508
0.248014
0.25767
0.267395
0.277087
0.286623
0.295863
0.304653
0.312832
0.320242
0.326744
0.332226
0.336623
0.339925
0.342179
0.343491
0.344016
0.343945
0.34349
0.342868
0.342284
0.341922
0.341934
0.34244
0.343525
0.345243
0.347625
0.350682
0.354416
0.358826
0.363912
0.369682
0.376153
0.38335
0.391304
0.400045
0.4096
0.419981
0.431185
0.443182
0.455915
0.469297
0.483213
0.497526
0.512077
0.526695
0.541731
0.555178
0.566864
0.576725
0.584734
0.590885
0.595194
0.597696
0.598432
0.597456
0.594831
0.590628
0.584925
0.57781
0.569377
0.559725
0.548963
0.537203
0.524562
0.51116
0.497118
0.482556
0.467592
0.452339
0.436904
0.421386
0.405876
0.390454
0.375189
0.360142
0.34536
0.330883
0.316741
0.302956
0.289542
0.276511
0.263868
0.251616
0.239756
0.228289
0.217214
0.206529
0.196231
0.186315
0.176778
0.16762
0.158802
0.150304
0.141335
0.131899
0.122093
0.112021
0.101803
0.0915623
0.0814245
0.0715112
0.0619422
0.0528396
0.0443326
0.0365574
0.0296462
0.0237059
0.0187911
0.0148839
0.0118922
0.00966847
0.00804241
0.00685279
0.00596827
0.00529374
0.00476598
0.00434468
0.00400389
0.00372601
0.00349778
0.00330947
0.00314032
0.0029852
0.00284161
0.00270792
0.00258292
0.00246561
0.00235521
0.00225106
0.00215266
0.00205959
0.00197154
0.00188824
0.00180954
0.0017353
0.00166544
0.00159992
0.00153869
0.00148176
0.00142913
0.00138079
0.00133675
0.001297
0.00126152
0.00123027
0.00120319
0.0011802
0.0011612
0.00114606
0.00113463
0.00112674
0.00112221
0.00112084
0.00112242
0.00112676
0.00113368
0.001143
0.00115462
0.00116843
0.00118441
0.00120258
0.001223
0.00124583
0.00127126
0.00129957
0.00133112
0.00136633
0.00140573
0.00144995
0.00149978
0.00155615
0.00162023
0.00169343
0.00177754
0.00187482
0.00198813
0.00212119
0.00227888
0.00246769
0.2025
0.213134
0.224476
0.236664
0.249578
0.263326
0.277989
0.293654
0.310397
0.328284
0.347363
0.367668
0.389214
0.411997
0.43599
0.461142
0.48738
0.514599
0.542669
0.571434
0.600712
0.630304
0.660002
0.689598
0.718899
0.747736
0.77597
0.803495
0.830236
0.856132
0.881128
0.905152
0.928102
0.949824
0.970112
0.988697
1.00526
1.01946
1.03095
1.0394
1.04457
1.04635
1.04478
1.04012
1.03284
1.02363
1.01335
1.00296
0.993416
0.985639
0.980379
0.978176
0.979321
0.983914
0.994015
1.00242
1.00805
1.01093
1.01108
1.00867
1.00383
0.996688
0.987392
0.976077
0.962869
0.947887
0.931244
0.913052
0.893424
0.87248
0.850344
0.827154
0.803056
0.778207
0.752776
0.726937
0.700869
0.674752
0.648763
0.623069
0.597826
0.573174
0.549231
0.526089
0.503818
0.482456
0.462017
0.442488
0.423834
0.406001
0.388924
0.372527
0.356736
0.341483
0.326708
0.312369
0.298438
0.284906
0.271786
0.259045
0.246652
0.233551
0.219727
0.205335
0.190548
0.175553
0.160533
0.145637
0.130975
0.116611
0.102578
0.0889081
0.0756745
0.063026
0.0512053
0.0405255
0.0313024
0.0237579
0.0179397
0.0137008
0.0107504
0.00874656
0.00737986
0.00641784
0.00570899
0.00516401
0.00473233
0.00438395
0.00410014
0.00384787
0.00361872
0.00340853
0.00321461
0.00303495
0.00286795
0.00271229
0.00256693
0.002431
0.00230378
0.00218472
0.00207335
0.0019693
0.00187229
0.00178206
0.00169841
0.00162117
0.00155018
0.00148529
0.00142637
0.00137327
0.00132584
0.00128392
0.00124733
0.00121589
0.0011894
0.00116762
0.00115034
0.00113729
0.00112822
0.00112285
0.00112091
0.00112213
0.00112628
0.0011331
0.00114242
0.00115407
0.00116795
0.001184
0.00120224
0.00122273
0.00124561
0.0012711
0.00129945
0.00133103
0.00136627
0.00140569
0.00144993
0.00149976
0.00155614
0.00162022
0.00169342
0.00177754
0.00187482
0.00198813
0.00212119
0.00227888
0.00246769
0.2127
0.225093
0.23827
0.252532
0.267759
0.284129
0.301785
0.320901
0.341646
0.364196
0.388729
0.415421
0.444449
0.475988
0.510212
0.547291
0.587388
0.630658
0.677243
0.727268
0.780837
0.838033
0.898911
0.963502
1.03181
1.10381
1.17948
1.25873
1.34151
1.42771
1.51724
1.60996
1.7057
1.80426
1.90535
2.00856
2.11338
2.21907
2.32469
2.42896
2.53022
2.62632
2.71466
2.79228
2.85601
2.90276
2.92977
2.93497
2.9174
2.87749
2.81718
2.73992
2.65048
2.55449
2.45743
2.37331
2.30727
2.24785
2.18795
2.12847
2.06979
2.0118
1.95448
1.8978
1.84169
1.78608
1.73087
1.67597
1.62124
1.56657
1.51184
1.45694
1.40181
1.34641
1.29075
1.2349
1.17897
1.12312
1.06757
1.01259
0.95849
0.905599
0.854277
0.804881
0.757752
0.713193
0.671449
0.632695
0.597018
0.564411
0.534766
0.507882
0.483476
0.461201
0.440678
0.421531
0.403416
0.386067
0.369319
0.353029
0.337076
0.32023
0.302503
0.284173
0.265583
0.24711
0.229106
0.211842
0.195454
0.179908
0.164998
0.150379
0.135644
0.12043
0.104557
0.0881477
0.0716959
0.0560229
0.0420782
0.0306366
0.0220312
0.0160759
0.0122165
0.00979212
0.00824428
0.00719756
0.00643818
0.00585593
0.00539575
0.00499384
0.00463393
0.00430807
0.00401118
0.00373942
0.00348979
0.00325984
0.0030476
0.00285145
0.00267007
0.00250235
0.00234741
0.00220446
0.00207286
0.00195203
0.00184147
0.0017407
0.00164928
0.00156678
0.0014928
0.00142693
0.00136877
0.00131791
0.00127396
0.00123652
0.0012052
0.0011796
0.00115932
0.00114396
0.00113315
0.00112649
0.00112362
0.0011242
0.0011279
0.00113443
0.00114356
0.00115509
0.0011689
0.00118492
0.00120313
0.00122361
0.00124647
0.00127194
0.00130027
0.00133181
0.00136701
0.00140638
0.00145056
0.00150034
0.00155665
0.00162065
0.00169378
0.00177783
0.00187503
0.00198828
0.00212129
0.00227893
0.00246771
0.212362
0.225252
0.23881
0.25348
0.269133
0.28598
0.304192
0.323976
0.345551
0.369148
0.395014
0.423405
0.454592
0.488859
0.526505
0.567847
0.613218
0.662964
0.71745
0.777049
0.842143
0.913114
0.990344
1.0742
1.16503
1.26316
1.36887
1.4824
1.60393
1.73358
1.87138
2.01729
2.17117
2.33276
2.50171
2.67756
2.85975
3.04769
3.24079
3.43856
3.64049
3.84591
4.05406
4.26406
4.475
4.6858
4.89488
5.09978
5.29674
5.48023
5.64269
5.77463
5.86536
5.90463
5.88495
5.80164
5.65387
5.46672
5.26579
5.06548
4.86736
4.6666
4.46614
4.26935
4.07798
3.89305
3.71511
3.54441
3.3809
3.22429
3.07412
2.92978
2.79062
2.65593
2.52504
2.3973
2.2721
2.14892
2.02733
1.90705
1.78794
1.67004
1.55361
1.43913
1.32728
1.21892
1.11507
1.01681
0.925245
0.841386
0.766041
0.699705
0.642472
0.593977
0.553401
0.519537
0.490926
0.466051
0.443583
0.42246
0.401902
0.380193
0.357286
0.333609
0.309798
0.286608
0.264812
0.245094
0.227948
0.213593
0.201909
0.192418
0.184286
0.176377
0.167354
0.155876
0.140914
0.12218
0.100494
0.0778222
0.0567359
0.039449
0.0269747
0.0189585
0.0142134
0.0114596
0.00976885
0.0086224
0.0077785
0.00706725
0.00644602
0.00589512
0.0054023
0.00495871
0.00455755
0.00419347
0.00386221
0.0035603
0.00328492
0.00303372
0.00280476
0.00259637
0.00240709
0.00223566
0.00208092
0.0019418
0.00181729
0.00170645
0.00160836
0.00152212
0.00144689
0.00138184
0.00132618
0.00127916
0.00124005
0.00120816
0.00118286
0.00116351
0.00114955
0.00114042
0.00113562
0.00113468
0.0011372
0.0011428
0.0011512
0.00116215
0.00117548
0.00119109
0.00120897
0.00122914
0.00125174
0.00127695
0.00130503
0.00133632
0.00137126
0.00141034
0.00145423
0.00150367
0.00155962
0.00162324
0.00169595
0.00177956
0.00187633
0.00198917
0.00212182
0.00227919
0.00246778
0.206094
0.218609
0.231591
0.245581
0.260444
0.276397
0.293606
0.31228
0.332643
0.354939
0.379428
0.406388
0.436117
0.46893
0.505167
0.545193
0.589401
0.638212
0.692079
0.751482
0.816929
0.88895
0.968091
1.05491
1.14995
1.25375
1.3668
1.48956
1.6224
1.76558
1.91927
2.08346
2.25798
2.44246
2.63632
2.83874
3.0487
3.26504
3.48662
3.71257
3.94222
4.1747
4.40904
4.64426
4.8796
5.11462
5.34906
5.58271
5.81557
6.04785
6.27989
6.5122
6.74551
6.98042
7.21659
7.45132
7.68024
7.89538
8.08166
8.21464
8.28302
8.29231
8.24378
8.14066
7.98881
7.79391
7.5645
7.30891
7.03457
6.74771
6.45363
6.1567
5.86036
5.56717
5.27902
4.9972
4.72243
4.45484
4.19411
3.93951
3.69003
3.44457
3.20205
2.96163
2.72279
2.48553
2.25042
2.01872
1.7925
1.57471
1.36913
1.18004
1.01173
0.867763
0.750155
0.658684
0.590639
0.541193
0.504468
0.474854
0.448117
0.420521
0.39128
0.3607
0.329632
0.299201
0.270608
0.244975
0.223236
0.206065
0.193838
0.186618
0.184124
0.185673
0.190079
0.195519
0.19943
0.198583
0.189628
0.170368
0.141472
0.107336
0.0746068
0.048837
0.0319246
0.0223353
0.0172537
0.0144177
0.0126121
0.0112011
0.0100216
0.00900658
0.00811903
0.00733488
0.006637
0.00601258
0.00545179
0.00494688
0.00449164
0.004081
0.00371079
0.00337745
0.00307796
0.00280963
0.00257007
0.00235709
0.00216864
0.00200278
0.00185769
0.00173157
0.00162275
0.00152961
0.00145061
0.00138432
0.00132939
0.00128457
0.00124873
0.00122082
0.0011999
0.00118512
0.00117572
0.00117103
0.00117047
0.00117354
0.00117984
0.00118903
0.00120087
0.00121523
0.00123201
0.00125123
0.00127297
0.00129738
0.0013247
0.00135523
0.00138938
0.00142763
0.00147059
0.00151899
0.00157375
0.00163599
0.00170713
0.00178897
0.00188379
0.00199458
0.00212525
0.00228091
0.0024683
0.198704