/*--------------------------------*- C++ -*----------------------------------*\
| =========                 |                                                 |
| \\      /  F ield         | OpenFOAM: The Open Source CFD Toolbox           |
|  \\    /   O peration     | Version:  2406                                  |
|   \\  /    A nd           | Website:  www.openfoam.com                      |
|    \\/     M anipulation  |                                                 |
\*---------------------------------------------------------------------------*/
FoamFile
{
    version     2.0;
    format      ascii;
    arch        "LSB;label=32;scalar=64";
    class       volScalarField;
    location    "1000";
    object      k;
}
// * * * * * * * * * * * * * * * * * * * * * * * * * * * * * * * * * * * * * //

dimensions      [0 2 -2 0 0 0 0];

internalField   nonuniform List<scalar> 
5619
(
0.0326372
0.0324951
0.0323459
0.0322318
0.0321385
0.0320658
0.0320116
0.0319756
0.0319579
0.0319589
0.0319791
0.0320191
0.0320795
0.0321617
0.0322672
0.0323973
0.032553
0.0327352
0.0329448
0.0331822
0.0334471
0.033738
0.0340513
0.0343818
0.0347231
0.0350695
0.03542
0.0357812
0.0361711
0.0366191
0.0371617
0.0378354
0.0386676
0.0396702
0.0408373
0.0421472
0.0435666
0.0450556
0.0465722
0.0480747
0.0495238
0.0508841
0.0521242
0.0532175
0.0541428
0.0548835
0.0554287
0.0557721
0.0559122
0.055852
0.0555981
0.0551602
0.0545508
0.053784
0.0528753
0.0518408
0.050696
0.0494898
0.0482515
0.0469979
0.0457426
0.0444971
0.0432706
0.0420706
0.0409027
0.0397714
0.0386795
0.0376291
0.0366211
0.035656
0.0347334
0.0338528
0.0330129
0.0322125
0.0314502
0.0307241
0.0300327
0.0293741
0.0287466
0.0281484
0.0275777
0.0270328
0.0265122
0.0260142
0.0255373
0.02508
0.0246409
0.0242188
0.0238124
0.0234204
0.0230418
0.0226755
0.0223205
0.0219758
0.0216405
0.0213138
0.0209948
0.020683
0.0203774
0.0200775
0.0197829
0.0194634
0.0191193
0.0187513
0.0183609
0.0179504
0.0175228
0.0170817
0.0166315
0.0161767
0.0157224
0.0152736
0.014835
0.0144109
0.0140052
0.0136208
0.01326
0.0129242
0.0126141
0.0123299
0.0120708
0.0118361
0.0116244
0.0114343
0.0112641
0.0111123
0.0109773
0.0108575
0.0107515
0.0106478
0.010546
0.0104454
0.0103455
0.010246
0.0101464
0.0100463
0.00994547
0.00984352
0.00974023
0.00963538
0.00952877
0.00942029
0.00930983
0.00919735
0.00908287
0.00896645
0.00884823
0.00872841
0.00860724
0.00848508
0.00836232
0.00823946
0.00811705
0.00799574
0.0078762
0.00775921
0.00764555
0.00753607
0.0074316
0.00733297
0.00724099
0.00715638
0.0070798
0.00701176
0.00695265
0.00690267
0.00686187
0.00683009
0.00680702
0.00679218
0.00678493
0.00678454
0.00679041
0.00680174
0.00681788
0.00683876
0.00686544
0.00690112
0.00695273
0.00703269
0.00716031
0.00736052
0.00765667
0.00805034
0.00846876
0.00861758
0.00760479
0.0342324
0.0339894
0.033793
0.0336355
0.0335224
0.0334516
0.033422
0.0334325
0.0334821
0.0335702
0.0336954
0.0338557
0.0340469
0.0342681
0.0345242
0.0348165
0.0351444
0.0355063
0.0358998
0.036321
0.0367633
0.0372161
0.037661
0.0380696
0.0383999
0.0385958
0.0385905
0.0383154
0.037714
0.0367583
0.0354606
0.0338764
0.0320953
0.0302224
0.0283574
0.026579
0.0249382
0.0234593
0.022146
0.0209879
0.0199678
0.0190654
0.0182606
0.017535
0.0168726
0.0162604
0.0156876
0.0151459
0.0146291
0.0141328
0.0136544
0.0131926
0.0127474
0.0123201
0.0119132
0.0115307
0.0111786
0.0108427
0.0105175
0.0102022
0.00989666
0.00960074
0.00931458
0.00903846
0.00877268
0.00851758
0.00827348
0.00804063
0.0078192
0.0076093
0.00741092
0.00722397
0.00704825
0.00688349
0.00672936
0.00658545
0.00645131
0.00632646
0.00621039
0.0061026
0.00600256
0.00590977
0.00582372
0.00574394
0.00566997
0.00560136
0.00553772
0.00547866
0.00542382
0.00537287
0.00532552
0.00528148
0.00524051
0.00520236
0.00516683
0.00513373
0.0051029
0.00507418
0.00504746
0.00502253
0.00499937
0.00497567
0.00495175
0.00492811
0.00490528
0.00488386
0.0048645
0.00484783
0.00483444
0.00482483
0.00481939
0.00481833
0.0048217
0.00482935
0.00484096
0.00485608
0.00487415
0.00489454
0.0049166
0.00493971
0.0049633
0.00498686
0.00500996
0.00503229
0.00505357
0.00507364
0.00509241
0.00510974
0.00512565
0.0051418
0.0051582
0.00517494
0.00519211
0.00520976
0.00522799
0.00524688
0.00526651
0.00528699
0.0053084
0.00533083
0.00535439
0.00537915
0.00540521
0.00543266
0.00546157
0.00549201
0.00552403
0.00555768
0.00559296
0.00562987
0.00566836
0.00570836
0.00574972
0.00579229
0.00583581
0.00587999
0.00592448
0.00596885
0.00601261
0.00605523
0.0060961
0.00613461
0.00617008
0.00620185
0.00622922
0.00625146
0.00626782
0.00627743
0.00627928
0.00627205
0.00625401
0.00622274
0.00618029
0.00612498
0.00605095
0.00595037
0.00581315
0.00562746
0.00538163
0.00506868
0.00469374
0.00428274
0.00388677
0.00357551
0.00342087
0.003484
0.00379533
0.029331
0.029034
0.0287928
0.0285973
0.0284515
0.0283519
0.028294
0.0282721
0.0282802
0.0283118
0.0283585
0.0284107
0.0284635
0.0285125
0.028552
0.0285723
0.0285612
0.0285034
0.0283808
0.0281725
0.027856
0.0274093
0.0268135
0.0260566
0.0251372
0.0240676
0.0228753
0.0216013
0.0202964
0.0190145
0.0178053
0.016708
0.0157475
0.014934
0.0142651
0.0137294
0.0133105
0.0129901
0.0127498
0.0125727
0.012444
0.0123508
0.0122826
0.0122307
0.0121882
0.0121498
0.0121115
0.0120705
0.0120248
0.0119731
0.0119146
0.0118493
0.011777
0.011697
0.0116049
0.0115009
0.0113841
0.0112537
0.0111096
0.0109518
0.010781
0.0105978
0.0104032
0.0101983
0.00998434
0.00976275
0.00953502
0.0093027
0.00906732
0.00883042
0.00859346
0.00835782
0.00812476
0.00789542
0.0076708
0.00745176
0.007239
0.00703308
0.00683443
0.00664334
0.00646
0.00628447
0.00611676
0.00595678
0.00580436
0.00565931
0.00552138
0.0053903
0.00526578
0.00514752
0.00503519
0.00492848
0.00482709
0.00473072
0.00463906
0.00455185
0.00446881
0.00438971
0.00431437
0.00424237
0.00417363
0.0041014
0.00402601
0.00394847
0.00386982
0.00379137
0.0037145
0.0036407
0.0035714
0.00350793
0.00345138
0.00340256
0.00336194
0.00332963
0.00330542
0.0032888
0.00327903
0.00327524
0.00327647
0.00328176
0.00329017
0.00330087
0.0033131
0.00332622
0.00333972
0.00335319
0.00336634
0.00337888
0.00339071
0.00340298
0.00341566
0.00342886
0.0034426
0.00345697
0.00347203
0.00348785
0.00350452
0.00352213
0.00354076
0.00356051
0.00358148
0.00360377
0.00362747
0.00365267
0.00367946
0.00370792
0.0037381
0.00377004
0.00380376
0.00383923
0.00387638
0.00391508
0.00395513
0.00399628
0.00403815
0.00408029
0.00412212
0.00416295
0.00420198
0.00423828
0.00427082
0.00429848
0.00432007
0.00433435
0.00434006
0.00433596
0.00432087
0.00429366
0.00425334
0.00419909
0.00413034
0.00404853
0.0039544
0.00384704
0.00372575
0.00359044
0.00344213
0.00328366
0.00312064
0.0029623
0.00282217
0.00271814
0.00267186
0.00270798
0.00285261
0.00312709
0.00351414
0.0246579
0.0242735
0.0239461
0.023663
0.0234221
0.0232167
0.0230374
0.0228733
0.0227118
0.0225395
0.0223444
0.022118
0.0218522
0.0215393
0.0211717
0.0207435
0.0202515
0.0196964
0.0190828
0.0184203
0.017723
0.0170085
0.0162971
0.0156097
0.0149662
0.0143838
0.0138757
0.0134503
0.0131113
0.0128575
0.012684
0.0125831
0.0125449
0.0125591
0.0126149
0.0127022
0.0128118
0.0129358
0.0130674
0.0132012
0.0133329
0.0134595
0.0135788
0.0136897
0.0137915
0.0138841
0.0139676
0.0140424
0.0141086
0.0141665
0.0142159
0.0142564
0.0142875
0.014303
0.0143045
0.0142909
0.014261
0.0142141
0.0141493
0.0140662
0.0139646
0.0138446
0.0137063
0.0135506
0.013378
0.0131898
0.0129871
0.0127713
0.0125439
0.0123064
0.0120605
0.0118078
0.0115498
0.011288
0.0110239
0.0107588
0.0104939
0.0102303
0.00996902
0.00971088
0.00945662
0.00920684
0.00896205
0.00872264
0.00848892
0.00826109
0.00803929
0.00782358
0.00761397
0.00741042
0.00721283
0.00702108
0.00683503
0.00665449
0.00647928
0.0063092
0.00614403
0.00598362
0.00582789
0.00567608
0.00552799
0.00536981
0.00520111
0.00502335
0.00483812
0.00464764
0.00445451
0.00426171
0.0040724
0.00388972
0.00371658
0.00355545
0.00340819
0.00327597
0.00315925
0.00305785
0.00297105
0.00289776
0.00283662
0.00278618
0.00274498
0.00271161
0.00268479
0.00266338
0.00264637
0.00263293
0.00262239
0.00261406
0.00260752
0.00260189
0.00259699
0.00259283
0.00258935
0.00258654
0.00258437
0.00258286
0.00258202
0.00258186
0.00258242
0.00258373
0.00258585
0.00258881
0.00259269
0.00259753
0.00260339
0.00261033
0.00261839
0.0026276
0.00263798
0.00264952
0.00266219
0.0026759
0.00269054
0.00270592
0.00272179
0.00273784
0.00275366
0.00276879
0.00278268
0.0027947
0.0028042
0.00281048
0.00281286
0.00281071
0.00280351
0.00279088
0.00277264
0.00274888
0.00272
0.00268678
0.00265043
0.00261189
0.00257194
0.00253187
0.0024933
0.00245825
0.00242928
0.00240958
0.0024031
0.00241464
0.00244992
0.00251563
0.00261925
0.00276859
0.00297001
0.00322295
0.00350598
0.0200902
0.019468
0.0189338
0.0184698
0.0180598
0.0176883
0.0173409
0.0170044
0.0166684
0.0163265
0.015977
0.0156194
0.015255
0.0148873
0.0145215
0.0141641
0.013823
0.0135059
0.0132207
0.0129739
0.0127711
0.012616
0.0125104
0.0124544
0.0124465
0.0124838
0.0125623
0.0126773
0.0128234
0.0129953
0.0131874
0.0133944
0.013611
0.0138326
0.0140549
0.0142743
0.0144878
0.0146933
0.0148892
0.0150748
0.0152498
0.0154148
0.0155704
0.0157178
0.0158579
0.0159919
0.0161205
0.0162441
0.0163628
0.0164763
0.0165837
0.016684
0.0167727
0.0168487
0.0169107
0.0169572
0.0169867
0.0169978
0.0169896
0.0169611
0.0169119
0.0168416
0.0167502
0.0166381
0.0165058
0.0163541
0.016184
0.0159967
0.0157936
0.0155761
0.0153458
0.0151041
0.0148527
0.014593
0.0143266
0.0140547
0.0137788
0.0135
0.0132195
0.0129383
0.0126573
0.0123772
0.0120988
0.0118226
0.0115492
0.0112789
0.0110121
0.0107489
0.0104897
0.0102345
0.00998335
0.0097363
0.00949333
0.00925439
0.00901941
0.00878828
0.00856087
0.00833712
0.00811717
0.00789993
0.0076847
0.00745259
0.00720179
0.00693353
0.0066494
0.00635193
0.00604448
0.00573116
0.00541671
0.00510623
0.00480482
0.00451726
0.0042476
0.00399893
0.00377322
0.0035713
0.00339299
0.00323729
0.00310262
0.00298701
0.00288838
0.0028046
0.00273366
0.00267372
0.00262311
0.00258041
0.00254441
0.00251387
0.00248795
0.00246369
0.00244068
0.00241879
0.00239789
0.00237787
0.00235863
0.00234011
0.00232225
0.00230502
0.0022884
0.00227239
0.00225701
0.00224226
0.0022282
0.00221486
0.0022023
0.00219059
0.00217978
0.00216995
0.00216116
0.00215347
0.00214692
0.00214155
0.00213737
0.00213437
0.00213251
0.00213172
0.0021319
0.00213293
0.00213464
0.00213685
0.00213939
0.00214207
0.00214475
0.00214732
0.00214973
0.00215206
0.00215444
0.00215716
0.00216065
0.00216543
0.0021722
0.00218156
0.0021938
0.00220984
0.00223075
0.00225782
0.00229251
0.00233653
0.00239191
0.002461
0.00254654
0.0026516
0.0027794
0.00293284
0.00311329
0.00331826
0.00353768
0.0180023
0.0168407
0.0158379
0.015001
0.0143155
0.013759
0.0133081
0.0129419
0.0126441
0.0124026
0.0122088
0.012057
0.0119439
0.0118674
0.0118264
0.0118203
0.0118484
0.0119096
0.0120028
0.0121263
0.0122782
0.012456
0.0126573
0.0128792
0.0131189
0.0133735
0.0136398
0.0139151
0.0141962
0.0144805
0.0147651
0.0150474
0.0153252
0.0155963
0.015859
0.0161121
0.0163548
0.0165868
0.0168081
0.0170195
0.0172216
0.0174157
0.0176027
0.0177836
0.0179594
0.0181303
0.0182966
0.0184579
0.0186135
0.0187624
0.0189032
0.0190343
0.0191509
0.0192522
0.0193367
0.0194032
0.0194506
0.019478
0.0194846
0.0194701
0.0194342
0.0193771
0.0192989
0.0192004
0.019082
0.0189448
0.0187896
0.0186176
0.01843
0.018228
0.018013
0.0177861
0.0175487
0.0173021
0.0170474
0.0167858
0.0165185
0.0162464
0.0159706
0.0156918
0.0154109
0.0151287
0.0148457
0.0145625
0.0142796
0.0139974
0.0137163
0.0134364
0.0131582
0.0128816
0.0126069
0.012334
0.0120631
0.0117941
0.011527
0.0112618
0.0109983
0.0107366
0.0104769
0.0102179
0.00995819
0.00967598
0.00936808
0.00903505
0.00867802
0.00829931
0.00790235
0.00749178
0.00707329
0.00665342
0.00623918
0.00583753
0.00545487
0.00509657
0.00476656
0.00446724
0.00419946
0.00396274
0.00375557
0.00357575
0.00342066
0.00328755
0.00317371
0.00307658
0.0029938
0.00292332
0.00286339
0.00281215
0.00276825
0.00272698
0.00268758
0.00264984
0.00261351
0.00257841
0.00254438
0.0025113
0.00247907
0.00244762
0.0024169
0.00238689
0.0023576
0.00232903
0.00230125
0.0022743
0.00224828
0.00222326
0.00219936
0.00217669
0.00215538
0.00213555
0.00211733
0.00210084
0.00208618
0.00207345
0.00206272
0.00205405
0.00204747
0.00204298
0.00204058
0.00204023
0.00204188
0.00204549
0.00205101
0.00205841
0.0020677
0.0020789
0.0020921
0.00210745
0.00212514
0.00214544
0.00216868
0.00219524
0.00222561
0.00226027
0.00229985
0.00234516
0.00239715
0.00245689
0.00252562
0.00260476
0.00269586
0.00280058
0.0029205
0.00305689
0.0032102
0.0033793
0.00356095
0.0207119
0.0189501
0.017341
0.0159311
0.0147417
0.0137759
0.0130238
0.0124649
0.0120734
0.0118223
0.0116853
0.011639
0.0116652
0.0117497
0.0118817
0.0120525
0.0122555
0.0124855
0.012738
0.0130095
0.0132968
0.0135973
0.0139086
0.0142284
0.0145548
0.0148857
0.0152194
0.0155542
0.0158882
0.0162199
0.0165477
0.01687
0.0171855
0.0174931
0.0177919
0.0180811
0.0183603
0.0186295
0.0188888
0.0191384
0.0193787
0.0196101
0.019833
0.0200475
0.0202537
0.0204514
0.02064
0.020819
0.0209874
0.0211442
0.0212881
0.021418
0.0215265
0.0216118
0.0216731
0.0217096
0.0217211
0.0217077
0.0216696
0.0216079
0.0215233
0.0214173
0.0212913
0.0211468
0.0209854
0.0208088
0.0206187
0.0204166
0.0202041
0.0199823
0.0197527
0.0195164
0.0192744
0.0190275
0.0187767
0.0185224
0.0182655
0.0180062
0.0177453
0.0174829
0.0172194
0.0169551
0.0166903
0.016425
0.0161596
0.015894
0.0156284
0.0153629
0.0150974
0.0148319
0.0145665
0.014301
0.0140355
0.0137697
0.0135037
0.0132373
0.0129703
0.0127026
0.0124346
0.0121647
0.0118912
0.0115912
0.0112604
0.0108985
0.0105054
0.0100826
0.00963267
0.00915991
0.00867002
0.00817014
0.00766855
0.00717413
0.00669568
0.00624121
0.00581729
0.00542856
0.00507761
0.00476505
0.00448987
0.00424984
0.00404199
0.00386298
0.00370943
0.00357804
0.00346579
0.00336998
0.00328832
0.00321838
0.00315827
0.00310181
0.00304788
0.00299616
0.00294631
0.00289806
0.00285121
0.00280559
0.00276105
0.00271749
0.00267486
0.0026331
0.00259223
0.00255226
0.00251324
0.00247526
0.00243841
0.00240282
0.00236864
0.00233601
0.00230512
0.00227613
0.00224922
0.00222457
0.00220233
0.00218266
0.00216568
0.0021515
0.00214018
0.00213176
0.00212626
0.00212366
0.00212391
0.00212696
0.00213274
0.00214117
0.00215221
0.00216581
0.00218199
0.00220079
0.00222229
0.00224664
0.00227403
0.00230474
0.00233907
0.00237756
0.00242059
0.0024687
0.00252255
0.00258288
0.00265052
0.00272641
0.00281155
0.00290702
0.00301386
0.00313307
0.00326548
0.00341173
0.00357272
0.0283526
0.0262465
0.0241678
0.0221879
0.0203553
0.0187119
0.0172887
0.0161028
0.015156
0.0144385
0.0139293
0.0136021
0.013428
0.0133791
0.0134306
0.0135613
0.013754
0.0139949
0.0142733
0.0145807
0.0149108
0.0152585
0.0156199
0.0159918
0.0163717
0.0167576
0.0171478
0.0175406
0.0179347
0.0183287
0.0187213
0.0191113
0.0194975
0.0198788
0.0202541
0.0206225
0.020983
0.021335
0.0216777
0.0220106
0.0223331
0.0226445
0.0229443
0.0232319
0.0235063
0.0237668
0.0240125
0.0242421
0.0244547
0.0246491
0.0248241
0.0249787
0.0250973
0.0251745
0.0252089
0.0252
0.0251481
0.0250542
0.0249198
0.0247472
0.0245393
0.0242993
0.0240309
0.0237381
0.0234247
0.023095
0.0227529
0.022402
0.0220459
0.0216876
0.02133
0.0209753
0.0206255
0.020282
0.0199459
0.0196179
0.0192986
0.0189879
0.0186859
0.0183923
0.0181066
0.0178285
0.0175572
0.0172921
0.0170327
0.0167781
0.0165279
0.0162813
0.0160377
0.0157964
0.0155571
0.0153189
0.0150815
0.0148444
0.0146069
0.0143688
0.0141294
0.0138884
0.0136459
0.0134
0.013149
0.0128713
0.0125619
0.0122192
0.0118419
0.0114296
0.0109831
0.0105046
0.00999802
0.00946931
0.0089262
0.00837806
0.00783527
0.00730839
0.00680723
0.00633992
0.00591223
0.00552736
0.00518599
0.00488679
0.00462697
0.0044029
0.00421059
0.00404606
0.00390555
0.00378568
0.00368355
0.00359616
0.00352104
0.00345067
0.0033836
0.00331932
0.00325741
0.00319753
0.00313941
0.00308284
0.00302765
0.00297369
0.00292089
0.00286919
0.00281858
0.00276909
0.00272078
0.00267373
0.00262806
0.00258392
0.00254148
0.00250093
0.00246245
0.00242627
0.00239258
0.0023616
0.00233351
0.0023085
0.00228669
0.00226822
0.00225316
0.00224154
0.00223338
0.00222862
0.0022272
0.00222902
0.00223397
0.00224192
0.00225275
0.00226637
0.00228271
0.00230175
0.00232349
0.00234801
0.00237544
0.00240595
0.00243979
0.00247727
0.00251885
0.0025649
0.00261591
0.00267246
0.00273519
0.00280485
0.00288228
0.00296843
0.00306437
0.00317137
0.00329098
0.00342523
0.00357706
0.0404523
0.0384636
0.036383
0.0342507
0.0320992
0.0299661
0.0278932
0.0259245
0.0241028
0.0224643
0.0210378
0.0198407
0.0188773
0.0181404
0.0176137
0.0172747
0.0170982
0.0170591
0.0171336
0.0173009
0.0175433
0.0178464
0.0181984
0.0185901
0.0190143
0.0194654
0.019939
0.0204317
0.0209406
0.0214635
0.0219983
0.0225431
0.0230964
0.0236562
0.0242208
0.0247883
0.0253569
0.0259245
0.0264889
0.027048
0.0275992
0.0281401
0.0286681
0.0291803
0.0296739
0.030146
0.0305936
0.031014
0.0314042
0.0317616
0.0320838
0.0323684
0.0326009
0.0327647
0.0328568
0.0328752
0.0328189
0.0326879
0.0324833
0.0322073
0.0318629
0.0314544
0.0309866
0.0304654
0.0298971
0.0292886
0.0286474
0.0279806
0.0272958
0.0266001
0.0259005
0.0252033
0.0245142
0.0238385
0.0231804
0.0225436
0.0219308
0.0213442
0.0207849
0.0202539
0.0197511
0.0192763
0.0188285
0.0184069
0.0180099
0.017636
0.0172835
0.0169508
0.0166359
0.0163372
0.0160529
0.0157814
0.0155209
0.01527
0.0150272
0.0147912
0.0145604
0.0143339
0.0141108
0.0138886
0.0136657
0.0134218
0.0131524
0.0128559
0.0125302
0.0121737
0.0117847
0.0113625
0.0109073
0.0104209
0.00990699
0.00937179
0.00882376
0.00827336
0.00773219
0.00721185
0.0067226
0.00627236
0.005866
0.00550534
0.00518957
0.00491596
0.00468065
0.00447926
0.00430741
0.004161
0.00403645
0.00393009
0.00383885
0.00375373
0.00367287
0.00359556
0.00352127
0.00344957
0.00338013
0.00331269
0.00324702
0.00318296
0.0031204
0.00305927
0.00299956
0.00294129
0.00288451
0.00282932
0.00277585
0.00272425
0.00267472
0.00262745
0.00258266
0.00254057
0.0025014
0.00246537
0.00243269
0.00240352
0.002378
0.00235626
0.00233834
0.00232428
0.00231403
0.00230753
0.00230467
0.0023053
0.00230925
0.00231634
0.00232642
0.00233932
0.00235493
0.00237317
0.002394
0.00241745
0.0024436
0.0024726
0.00250463
0.00253997
0.00257892
0.00262194
0.00266943
0.00272192
0.00278004
0.00284451
0.00291619
0.00299613
0.0030856
0.00318618
0.00329989
0.0034294
0.00357821
0.0557411
0.0544244
0.0529819
0.0514156
0.0497219
0.0479085
0.0459869
0.0439728
0.0418877
0.0397601
0.0376262
0.0355282
0.0335119
0.0316224
0.0299002
0.0283778
0.027077
0.0260081
0.025171
0.0245564
0.0241489
0.023929
0.0238754
0.0239673
0.0241849
0.0245105
0.024929
0.0254272
0.0259944
0.0266215
0.027301
0.0280265
0.0287923
0.0295934
0.0304252
0.0312831
0.0321625
0.033059
0.0339677
0.0348838
0.035802
0.0367172
0.0376236
0.0385157
0.0393876
0.0402333
0.0410469
0.0418224
0.0425543
0.043237
0.0438654
0.0444348
0.0449501
0.0453813
0.0457221
0.045968
0.046115
0.0461603
0.0461016
0.0459378
0.0456686
0.0452949
0.0448185
0.0442426
0.0435712
0.0428098
0.0419647
0.0410434
0.040054
0.0390058
0.0379084
0.0367719
0.0356067
0.0344231
0.0332311
0.0320405
0.0308603
0.0296988
0.0285636
0.027461
0.0263964
0.0253742
0.0243976
0.023469
0.0225897
0.0217602
0.0209802
0.0202489
0.0195649
0.0189262
0.0183307
0.017776
0.0172594
0.0167784
0.0163302
0.0159121
0.0155214
0.0151557
0.0148129
0.0144892
0.014182
0.0138627
0.01353
0.0131864
0.0128332
0.012471
0.0120998
0.0117178
0.0113225
0.0109104
0.0104782
0.0100235
0.00954629
0.00904947
0.00853954
0.0080261
0.0075208
0.00703564
0.00658127
0.00616556
0.005793
0.00546471
0.00517921
0.00493323
0.0047226
0.00454293
0.00439007
0.00425973
0.00414818
0.0040446
0.00394659
0.00385319
0.00376371
0.00367762
0.00359452
0.00351406
0.00343599
0.00336009
0.00328624
0.00321434
0.00314436
0.00307631
0.00301025
0.00294628
0.00288453
0.00282517
0.00276839
0.00271439
0.0026634
0.00261564
0.00257133
0.00253069
0.00249389
0.0024611
0.00243244
0.00240799
0.00238777
0.00237177
0.00235991
0.00235207
0.00234809
0.00234778
0.00235091
0.00235727
0.00236664
0.00237883
0.00239367
0.00241106
0.00243093
0.00245329
0.0024782
0.00250579
0.00253625
0.00256981
0.00260681
0.00264761
0.00269271
0.00274262
0.00279799
0.0028596
0.00292838
0.00300544
0.0030922
0.00319037
0.00330215
0.00343031
0.00357842
0.0715568
0.0712922
0.0709561
0.070536
0.0700036
0.0693545
0.0685818
0.0676772
0.0666309
0.0654327
0.0640746
0.0625523
0.060868
0.0590325
0.057067
0.0550031
0.0528822
0.0507526
0.0486663
0.0466743
0.0448234
0.0431525
0.0416906
0.0404565
0.0394586
0.0386967
0.0381634
0.0378462
0.0377295
0.0377958
0.0380272
0.0384062
0.0389164
0.0395422
0.0402696
0.0410857
0.0419788
0.042938
0.0439532
0.0450151
0.0461144
0.0472424
0.0483902
0.0495493
0.0507107
0.0518657
0.0530056
0.0541216
0.0552053
0.0562482
0.0572425
0.0581806
0.0590721
0.0598959
0.0606301
0.0612695
0.0618102
0.062249
0.0625829
0.0628093
0.0629257
0.0629299
0.0628197
0.0625932
0.0622488
0.0617853
0.0612023
0.0605002
0.0596801
0.0587444
0.0576966
0.0565414
0.055285
0.0539347
0.0524992
0.0509881
0.0494123
0.0477831
0.0461128
0.0444136
0.042698
0.0409783
0.0392661
0.0375725
0.0359079
0.0342813
0.0327008
0.0311732
0.0297039
0.0282973
0.0269563
0.0256829
0.0244778
0.023341
0.0222716
0.021268
0.0203281
0.0194494
0.0186297
0.0178641
0.0171485
0.0164169
0.0156751
0.0149362
0.0142132
0.0135189
0.0128645
0.0122577
0.0117017
0.0111947
0.0107299
0.0102962
0.00988023
0.0094688
0.00905121
0.00862154
0.00817974
0.0077315
0.00728667
0.00685684
0.00645279
0.00608257
0.00575073
0.00545841
0.00520418
0.00498505
0.00479734
0.00463671
0.0044991
0.00437161
0.00425126
0.00413678
0.00402731
0.00392226
0.00382111
0.0037235
0.00362909
0.00353767
0.00344905
0.00336314
0.0032799
0.00319934
0.0031215
0.00304651
0.00297449
0.00290562
0.00284009
0.0027781
0.00271988
0.00266564
0.00261557
0.00256988
0.0025287
0.00249216
0.00246033
0.00243325
0.00241089
0.00239316
0.00237994
0.00237104
0.00236623
0.00236527
0.00236789
0.00237381
0.00238278
0.00239457
0.00240899
0.00242591
0.00244526
0.00246702
0.00249125
0.00251809
0.00254771
0.00258038
0.00261642
0.00265621
0.00270023
0.00274904
0.00280331
0.00286384
0.00293159
0.00300772
0.00309367
0.00319121
0.00330253
0.00343043
0.00357844
0.0849321
0.0857869
0.0866484
0.0875177
0.088354
0.0891605
0.0899343
0.0906703
0.0913584
0.0919845
0.0925306
0.0929761
0.0932979
0.0934717
0.0934731
0.0932789
0.0928689
0.0922283
0.0913501
0.0902369
0.0889029
0.0873739
0.085686
0.0838841
0.0820175
0.0801371
0.078291
0.0765221
0.0748652
0.0733464
0.0719827
0.0707827
0.0697479
0.0688746
0.0681552
0.0675804
0.0671405
0.0668264
0.0666311
0.0665491
0.0665772
0.0667138
0.066958
0.0673091
0.0677657
0.0683244
0.0689798
0.0697236
0.0705447
0.0714296
0.0723629
0.0733278
0.0743067
0.0753281
0.0762425
0.0770444
0.0777382
0.0783307
0.0788287
0.0792393
0.0795682
0.0798201
0.0799982
0.080104
0.0801377
0.0800976
0.0799808
0.079783
0.079499
0.0791226
0.0786474
0.0780667
0.077374
0.0765634
0.0756297
0.074569
0.0733788
0.0720584
0.0706088
0.0690331
0.0673364
0.065526
0.063611
0.0616023
0.0595128
0.0573561
0.0551475
0.0529024
0.0506368
0.0483666
0.0461072
0.0438731
0.0416777
0.039533
0.0374494
0.0354356
0.0334982
0.0316427
0.0298732
0.0281885
0.0265843
0.0249204
0.023208
0.0214772
0.0197624
0.0181007
0.0165291
0.0150807
0.0137814
0.0126471
0.0116823
0.0108797
0.0102217
0.00968264
0.00923197
0.00883842
0.00847385
0.00811703
0.00775602
0.00738858
0.00702017
0.00666041
0.00631935
0.00600483
0.00572138
0.00547043
0.00525113
0.00506081
0.00489639
0.00474342
0.00459856
0.00446033
0.00432787
0.00420055
0.00407791
0.00395957
0.00384523
0.00373467
0.00362775
0.0035244
0.00342459
0.00332836
0.00323581
0.00314706
0.00306227
0.00298164
0.00290536
0.00283365
0.00276671
0.00270474
0.00264791
0.00259637
0.00255022
0.00250952
0.00247428
0.00244445
0.00241993
0.00240056
0.00238612
0.00237635
0.00237097
0.00236964
0.00237203
0.00237783
0.00238673
0.00239848
0.00241285
0.0024297
0.00244894
0.00247057
0.00249463
0.00252126
0.00255064
0.00258304
0.00261878
0.00265827
0.00270198
0.00275048
0.00280445
0.0028647
0.00293219
0.00300811
0.0030939
0.00319131
0.00330256
0.00343042
0.00357843
0.093789
0.0955783
0.0974203
0.0993535
0.101329
0.103366
0.105472
0.107657
0.109925
0.112277
0.114706
0.117204
0.119759
0.122353
0.124967
0.127578
0.130161
0.132688
0.135131
0.137461
0.139648
0.141666
0.14349
0.1451
0.146484
0.147634
0.148551
0.149244
0.149725
0.150011
0.150118
0.150058
0.149841
0.149467
0.148928
0.148208
0.147284
0.146128
0.144713
0.143013
0.14101
0.138699
0.136096
0.133234
0.130171
0.126986
0.123772
0.120631
0.117665
0.114967
0.11261
0.110646
0.109097
0.107966
0.107391
0.106803
0.106122
0.105357
0.104525
0.103647
0.102747
0.101844
0.100957
0.100102
0.0992901
0.0985315
0.0978314
0.0971918
0.0966118
0.0960871
0.0956108
0.0951732
0.0947622
0.0943636
0.0939615
0.0935381
0.0930748
0.0925521
0.0919504
0.0912502
0.0904328
0.0894808
0.0883788
0.0871139
0.085676
0.0840584
0.0822583
0.0802769
0.0781196
0.0757962
0.0733203
0.0707095
0.0679846
0.065169
0.0622881
0.0593679
0.0564342
0.0535121
0.0506258
0.0477896
0.0450039
0.0420479
0.0389305
0.0356986
0.032413
0.0291454
0.0259724
0.0229683
0.0201981
0.0177108
0.0155366
0.0136861
0.0121523
0.0109146
0.00994103
0.00919201
0.00862219
0.00818371
0.00783018
0.00752183
0.00723034
0.00694131
0.00665264
0.00636971
0.00610015
0.00585032
0.00562398
0.0054221
0.00524455
0.00507726
0.00491696
0.00476235
0.00461278
0.00446784
0.00432725
0.00419081
0.00405837
0.00392986
0.00380526
0.00368462
0.00356804
0.00345569
0.00334776
0.00324447
0.00314607
0.00305282
0.00296497
0.00288278
0.00280647
0.00273624
0.00267223
0.00261455
0.00256325
0.00251832
0.0024797
0.00244724
0.00242075
0.00239998
0.0023846
0.00237429
0.00236864
0.00236727
0.00236977
0.00237578
0.00238493
0.00239695
0.00241159
0.00242869
0.00244816
0.00246997
0.00249418
0.00252093
0.00255041
0.00258288
0.00261867
0.0026582
0.00270193
0.00275045
0.00280443
0.00286469
0.00293219
0.00300811
0.00309389
0.00319131
0.00330256
0.00343042
0.00357843
0.0974339
0.0998542
0.102325
0.104934
0.107628
0.110439
0.113387
0.116494
0.119779
0.123257
0.126941
0.130839
0.134956
0.139296
0.143856
0.148633
0.153621
0.158811
0.164189
0.169741
0.175448
0.181289
0.187242
0.193283
0.199387
0.20553
0.21169
0.217846
0.223979
0.230076
0.236122
0.242107
0.248019
0.253845
0.259566
0.265157
0.270583
0.275795
0.280725
0.285282
0.289347
0.292763
0.295345
0.296885
0.297166
0.295979
0.293148
0.288554
0.282165
0.274057
0.264425
0.253584
0.241949
0.230002
0.218213
0.207674
0.198781
0.190715
0.182961
0.175569
0.16856
0.161928
0.155678
0.149815
0.144342
0.139261
0.134572
0.130273
0.126358
0.12282
0.119649
0.116832
0.114356
0.112204
0.110358
0.108797
0.107497
0.106434
0.105578
0.104898
0.104359
0.103925
0.103557
0.10321
0.102843
0.102409
0.101863
0.101161
0.100263
0.0991311
0.0977355
0.0960539
0.0940731
0.091791
0.0892161
0.0863682
0.0832774
0.0799825
0.0765304
0.0729609
0.0692841
0.0652431
0.0608381
0.0561252
0.0511902
0.0461451
0.0411192
0.0362468
0.0316514
0.0274312
0.0236496
0.0203332
0.0174767
0.0150532
0.0130259
0.0113572
0.010013
0.00896177
0.00816841
0.00758882
0.00716915
0.0068527
0.00659131
0.00635428
0.00612885
0.00591387
0.00571241
0.00552734
0.00536152
0.00520284
0.00504832
0.00489695
0.0047484
0.00460252
0.00445926
0.00431859
0.0041806
0.00404537
0.00391311
0.00378404
0.00365846
0.00353673
0.00341922
0.00330635
0.00319854
0.00309623
0.00299981
0.00290966
0.00282609
0.00274938
0.00267972
0.00261724
0.00256196
0.00251384
0.00247277
0.00243854
0.00241086
0.00238941
0.00237377
0.00236351
0.00235818
0.00235729
0.0023604
0.00236707
0.00237692
0.00238962
0.00240492
0.00242265
0.0024427
0.00246506
0.00248979
0.00251702
0.00254695
0.00257985
0.00261606
0.00265598
0.00270008
0.00274895
0.00280326
0.00286381
0.00293157
0.00300771
0.00309367
0.00319121
0.00330253
0.00343043
0.00357844
0.0963883
0.0991309
0.101885
0.10479
0.107789
0.110925
0.114222
0.117713
0.121424
0.125383
0.129615
0.134141
0.138981
0.144152
0.14967
0.155549
0.161802
0.168437
0.175464
0.182889
0.190714
0.198941
0.207567
0.216586
0.225988
0.235759
0.245883
0.25634
0.267106
0.278153
0.289452
0.300967
0.312663
0.324496
0.33642
0.348384
0.360334
0.372216
0.383975
0.395565
0.406933
0.418007
0.428706
0.438942
0.448626
0.457669
0.465957
0.473336
0.479587
0.484397
0.487343
0.487894
0.485454
0.479454
0.469484
0.455315
0.436967
0.416216
0.394881
0.374006
0.353701
0.333646
0.314054
0.295167
0.277124
0.260023
0.243927
0.22887
0.214866
0.201905
0.189969
0.179027
0.169047
0.159992
0.151825
0.144508
0.138004
0.132276
0.127285
0.122995
0.119367
0.116363
0.113943
0.112063
0.110676
0.109725
0.109146
0.108868
0.108805
0.108864
0.10894
0.108925
0.108709
0.108187
0.107273
0.105898
0.104026
0.101649
0.0987975
0.095516
0.0918286
0.0874983
0.0825139
0.0769318
0.0708543
0.0644304
0.0578466
0.0513109
0.0450301
0.0391833
0.0339
0.0292479
0.0252322
0.0218065
0.0188888
0.0163824
0.0141971
0.0122708
0.0105846
0.00915883
0.00802553
0.00719081
0.00661412
0.00622093
0.0059355
0.00570636
0.00550895
0.00533448
0.00518196
0.00503795
0.00489867
0.0047627
0.00462931
0.00449803
0.00436852
0.0042406
0.00411416
0.00398921
0.00386586
0.00374433
0.0036249
0.00350795
0.00339394
0.00328339
0.00317685
0.00307492
0.00297816
0.00288715
0.0028024
0.00272434
0.00265334
0.00258963
0.00253336
0.00248454
0.00244309
0.00240881
0.0023814
0.00236048
0.00234562
0.00233633
0.00233208
0.00233238
0.00233671
0.00234462
0.0023557
0.00236961
0.00238609
0.00240497
0.00242614
0.00244961
0.00247543
0.00250375
0.00253478
0.00256879
0.00260612
0.00264718
0.00269244
0.00274246
0.0027979
0.00285955
0.00292835
0.00300543
0.00309219
0.00319037
0.00330215
0.00343031
0.00357842
0.0918641
0.0946758
0.0974444
0.100355
0.103349
0.106475
0.109759
0.113235
0.116936
0.120894
0.12514
0.129703
0.13461
0.139889
0.145563
0.151658
0.158196
0.165202
0.172695
0.180698
0.18923
0.198308
0.207945
0.218154
0.228939
0.240303
0.25224
0.264739
0.277778
0.291331
0.30536
0.319816
0.334642
0.349768
0.365113
0.380585
0.396083
0.411503