/*--------------------------------*- C++ -*----------------------------------*\
| =========                 |                                                 |
| \\      /  F ield         | OpenFOAM: The Open Source CFD Toolbox           |
|  \\    /   O peration     | Version:  2406                                  |
|   \\  /    A nd           | Website:  www.openfoam.com                      |
|    \\/     M anipulation  |                                                 |
\*---------------------------------------------------------------------------*/
FoamFile
{
    version     2.0;
    format      ascii;
    arch        "LSB;label=32;scalar=64";
    class       volScalarField;
    location    "1000";
    object      nut;
}
// * * * * * * * * * * * * * * * * * * * * * * * * * * * * * * * * * * * * * //

dimensions      [0 2 -1 0 0 0 0];

internalField   nonuniform List<scalar> 
5619
(
4.04583e-05
4.03731e-05
4.02838e-05
4.02162e-05
4.01619e-05
4.01206e-05
4.00914e-05
4.00738e-05
4.00681e-05
4.00742e-05
4.00926e-05
4.01233e-05
4.0167e-05
4.02245e-05
4.02968e-05
4.03843e-05
4.04875e-05
4.06069e-05
4.07429e-05
4.08956e-05
4.10647e-05
4.12489e-05
4.1446e-05
4.16526e-05
4.18646e-05
4.20785e-05
4.22938e-05
4.25143e-05
4.27507e-05
4.30199e-05
4.33426e-05
4.37383e-05
4.42207e-05
4.47934e-05
4.54494e-05
4.6173e-05
4.69433e-05
4.77368e-05
4.85305e-05
4.93033e-05
5.00364e-05
5.07139e-05
5.1323e-05
5.18531e-05
5.22965e-05
5.26477e-05
5.29034e-05
5.30621e-05
5.31241e-05
5.30911e-05
5.29662e-05
5.27534e-05
5.24576e-05
5.20844e-05
5.16395e-05
5.1129e-05
5.05587e-05
4.99523e-05
4.93223e-05
4.86766e-05
4.80215e-05
4.73627e-05
4.6705e-05
4.60526e-05
4.54088e-05
4.47763e-05
4.41573e-05
4.35537e-05
4.29664e-05
4.23966e-05
4.18447e-05
4.13109e-05
4.07954e-05
4.0298e-05
3.98185e-05
3.93564e-05
3.89112e-05
3.84824e-05
3.80693e-05
3.76713e-05
3.72876e-05
3.69176e-05
3.65606e-05
3.62157e-05
3.58823e-05
3.55597e-05
3.52473e-05
3.49442e-05
3.46498e-05
3.43636e-05
3.40848e-05
3.38129e-05
3.35472e-05
3.32873e-05
3.30325e-05
3.27822e-05
3.25361e-05
3.22937e-05
3.20543e-05
3.18176e-05
3.15834e-05
3.13274e-05
3.10493e-05
3.07491e-05
3.04275e-05
3.00855e-05
2.97251e-05
2.93487e-05
2.89594e-05
2.85608e-05
2.8157e-05
2.77523e-05
2.7351e-05
2.69573e-05
2.65752e-05
2.6208e-05
2.58586e-05
2.55292e-05
2.52211e-05
2.49354e-05
2.46721e-05
2.4431e-05
2.42116e-05
2.40128e-05
2.38335e-05
2.36724e-05
2.35281e-05
2.33993e-05
2.32848e-05
2.31724e-05
2.30613e-05
2.2951e-05
2.28411e-05
2.2731e-05
2.26202e-05
2.25084e-05
2.23951e-05
2.22801e-05
2.21629e-05
2.20432e-05
2.1921e-05
2.17958e-05
2.16677e-05
2.15364e-05
2.1402e-05
2.12644e-05
2.11237e-05
2.09802e-05
2.08341e-05
2.06857e-05
2.05355e-05
2.03841e-05
2.02322e-05
2.00804e-05
1.99297e-05
1.97812e-05
1.96358e-05
1.94947e-05
1.93591e-05
1.92302e-05
1.91092e-05
1.89973e-05
1.88953e-05
1.88043e-05
1.87249e-05
1.86575e-05
1.86022e-05
1.85591e-05
1.85278e-05
1.85075e-05
1.84977e-05
1.84971e-05
1.85051e-05
1.85206e-05
1.85425e-05
1.85709e-05
1.86071e-05
1.86554e-05
1.8725e-05
1.88324e-05
1.90025e-05
1.92663e-05
1.96501e-05
2.01489e-05
2.06659e-05
2.08467e-05
1.95834e-05
0.000117251
0.000116548
0.000115974
0.0001155
0.000115157
0.00011493
0.000114808
0.000114776
0.00011482
0.000114924
0.00011507
0.000115241
0.000115415
0.000115567
0.000115708
0.000115823
0.000115896
0.000115905
0.000115826
0.000115636
0.000115307
0.00011481
0.000114104
0.000113131
0.000111812
0.000110042
0.000107699
0.000104666
0.000100864
9.62841e-05
9.10153e-05
8.5241e-05
7.92109e-05
7.3194e-05
6.74297e-05
6.20954e-05
5.72955e-05
5.30688e-05
4.94057e-05
4.62668e-05
4.35983e-05
4.13429e-05
3.94459e-05
3.78582e-05
3.65379e-05
3.54496e-05
3.45636e-05
3.38554e-05
3.33039e-05
3.28901e-05
3.25968e-05
3.24066e-05
3.23012e-05
3.22608e-05
3.22629e-05
3.22401e-05
3.21465e-05
3.20363e-05
3.19237e-05
3.17999e-05
3.16586e-05
3.14954e-05
3.13078e-05
3.1095e-05
3.08577e-05
3.0598e-05
3.03188e-05
3.00238e-05
2.97171e-05
2.9403e-05
2.90858e-05
2.87695e-05
2.84578e-05
2.81541e-05
2.78611e-05
2.7581e-05
2.73157e-05
2.70663e-05
2.68339e-05
2.66188e-05
2.64213e-05
2.62412e-05
2.60782e-05
2.59319e-05
2.58016e-05
2.56867e-05
2.55865e-05
2.55002e-05
2.54271e-05
2.53665e-05
2.53177e-05
2.52801e-05
2.52531e-05
2.52361e-05
2.52286e-05
2.52303e-05
2.52406e-05
2.52594e-05
2.52863e-05
2.53209e-05
2.53633e-05
2.54188e-05
2.549e-05
2.558e-05
2.56918e-05
2.58288e-05
2.59938e-05
2.61894e-05
2.64176e-05
2.66793e-05
2.69743e-05
2.73012e-05
2.76571e-05
2.8038e-05
2.84386e-05
2.88531e-05
2.92751e-05
2.96983e-05
3.01165e-05
3.05243e-05
3.09169e-05
3.12908e-05
3.16429e-05
3.19715e-05
3.22755e-05
3.25546e-05
3.28092e-05
3.30398e-05
3.32477e-05
3.34549e-05
3.36625e-05
3.38714e-05
3.40825e-05
3.42968e-05
3.45153e-05
3.47388e-05
3.49681e-05
3.52043e-05
3.54481e-05
3.57004e-05
3.59618e-05
3.6233e-05
3.65148e-05
3.68075e-05
3.71116e-05
3.74272e-05
3.77545e-05
3.80932e-05
3.84429e-05
3.88029e-05
3.9172e-05
3.95488e-05
3.99313e-05
4.03171e-05
4.07033e-05
4.10864e-05
4.14625e-05
4.18269e-05
4.21748e-05
4.25009e-05
4.27993e-05
4.30644e-05
4.32901e-05
4.34704e-05
4.35997e-05
4.3672e-05
4.36816e-05
4.36223e-05
4.34873e-05
4.32683e-05
4.29545e-05
4.2531e-05
4.20043e-05
4.13788e-05
4.06164e-05
3.96689e-05
3.84753e-05
3.69653e-05
3.50722e-05
3.27608e-05
3.00766e-05
2.72042e-05
2.4511e-05
2.25528e-05
2.21282e-05
2.48023e-05
3.63038e-05
0.000183536
0.000181556
0.000179828
0.000178349
0.000177114
0.000176065
0.000175143
0.000174286
0.000173434
0.000172527
0.000171509
0.000170321
0.000168906
0.000167257
0.000165349
0.000163142
0.000160595
0.000157665
0.000154306
0.000150471
0.000146116
0.000141208
0.000135739
0.000129732
0.000123261
0.000116452
0.000109484
0.000102578
9.59753e-05
8.99099e-05
8.45808e-05
8.01317e-05
7.66438e-05
7.41402e-05
7.26012e-05
7.19817e-05
7.22284e-05
7.32905e-05
7.51274e-05
7.77099e-05
8.10204e-05
8.50496e-05
8.97934e-05
9.52477e-05
0.000101403
0.000108239
0.000115716
0.000123768
0.000132295
0.000141156
0.000150167
0.000159095
0.000167672
0.000175524
0.000182
0.000187901
0.000193307
0.00019822
0.000202592
0.000206365
0.000209489
0.000211925
0.000213649
0.000214649
0.000214928
0.000214502
0.000213399
0.000211658
0.000209329
0.000206467
0.000203133
0.000199393
0.00019531
0.00019095
0.000186375
0.000181645
0.000176814
0.00017193
0.000167038
0.000162174
0.000157373
0.000152659
0.000148054
0.000143575
0.000139234
0.000135039
0.000130997
0.00012711
0.000123378
0.000119799
0.000116371
0.00011309
0.000109951
0.000106947
0.000104075
0.000101326
9.86958e-05
9.61778e-05
9.37668e-05
9.14543e-05
8.9235e-05
8.68899e-05
8.4431e-05
8.18856e-05
7.92849e-05
7.66664e-05
7.40711e-05
7.15415e-05
6.91188e-05
6.68403e-05
6.47367e-05
6.28303e-05
6.11341e-05
5.96518e-05
5.83788e-05
5.73037e-05
5.64102e-05
5.56789e-05
5.50892e-05
5.46205e-05
5.42532e-05
5.39693e-05
5.37532e-05
5.35911e-05
5.34717e-05
5.33854e-05
5.33248e-05
5.32832e-05
5.3256e-05
5.32378e-05
5.32277e-05
5.32254e-05
5.32306e-05
5.32433e-05
5.32634e-05
5.32911e-05
5.33267e-05
5.33704e-05
5.34227e-05
5.3484e-05
5.35548e-05
5.36357e-05
5.37272e-05
5.38297e-05
5.39438e-05
5.40697e-05
5.42077e-05
5.43578e-05
5.45196e-05
5.46924e-05
5.48753e-05
5.50666e-05
5.52641e-05
5.54647e-05
5.56648e-05
5.58596e-05
5.60435e-05
5.62099e-05
5.63512e-05
5.64587e-05
5.65232e-05
5.65344e-05
5.64818e-05
5.63546e-05
5.6142e-05
5.58333e-05
5.54186e-05
5.48887e-05
5.42354e-05
5.34521e-05
5.25339e-05
5.14801e-05
5.03499e-05
4.91447e-05
4.78737e-05
4.65606e-05
4.52509e-05
4.40228e-05
4.30011e-05
4.23723e-05
4.24011e-05
4.34522e-05
4.60463e-05
5.10419e-05
6.02112e-05
7.81215e-05
0.000121797
0.00024955
0.000244089
0.000239365
0.000235299
0.000231732
0.000228485
0.000225405
0.000222352
0.000219207
0.000215866
0.000212236
0.000208254
0.000203917
0.000199213
0.000194132
0.000188689
0.000182922
0.0001769
0.000170727
0.000164537
0.000158499
0.000152802
0.000147651
0.000143248
0.000139785
0.00013743
0.000136315
0.000136536
0.000138151
0.000141182
0.000145626
0.000151462
0.000158667
0.00016722
0.00017711
0.000188338
0.000200913
0.000214843
0.000230132
0.000246766
0.0002647
0.000283856
0.000304104
0.000325265
0.000347103
0.000369335
0.000391632
0.000413644
0.000435014
0.000455404
0.000474517
0.000492111
0.000508017
0.000521814
0.000534461
0.000546072
0.000556613
0.00056603
0.000574265
0.000581268
0.000587003
0.000591445
0.000594585
0.000596425
0.000596983
0.000596289
0.000594384
0.000591322
0.000587166
0.000581985
0.000575858
0.000568866
0.000561093
0.000552626
0.000543551
0.000533952
0.000523911
0.000513506
0.000502811
0.000491894
0.000480819
0.000469643
0.000458418
0.000447189
0.000435995
0.000424872
0.000413848
0.000402947
0.00039219
0.00038159
0.000371162
0.000360912
0.000350847
0.00034097
0.000331283
0.000321785
0.000312473
0.000303347
0.000294407
0.000285633
0.000277001
0.000267707
0.000257727
0.000247125
0.000235988
0.000224439
0.00021263
0.000200741
0.000188966
0.000177504
0.00016654
0.000156235
0.000146713
0.000138054
0.000130294
0.00012343
0.000117423
0.000112216
0.000107735
0.000103899
0.00010063
9.78503e-05
9.54912e-05
9.34902e-05
9.17928e-05
9.03521e-05
8.91286e-05
8.80865e-05
8.71972e-05
8.63561e-05
8.55536e-05
8.47847e-05
8.40445e-05
8.33289e-05
8.26347e-05
8.1959e-05
8.12996e-05
8.06549e-05
8.00236e-05
7.9405e-05
7.87987e-05
7.82047e-05
7.76234e-05
7.70556e-05
7.65021e-05
7.5964e-05
7.54428e-05
7.49397e-05
7.44563e-05
7.39936e-05
7.35529e-05
7.31348e-05
7.27398e-05
7.23677e-05
7.20175e-05
7.16879e-05
7.13765e-05
7.10804e-05
7.0796e-05
7.05193e-05
7.0246e-05
6.99722e-05
6.96945e-05
6.9411e-05
6.91217e-05
6.88294e-05
6.85403e-05
6.82648e-05
6.80185e-05
6.78224e-05
6.77038e-05
6.77386e-05
6.80189e-05
6.86063e-05
6.95854e-05
7.10664e-05
7.31904e-05
7.61342e-05
8.01164e-05
8.54038e-05
9.23288e-05
0.000101343
0.000113168
0.000129181
0.000152363
0.000189886
0.000263035
0.00033149
0.00031479
0.000301089
0.000290093
0.000281169
0.000273731
0.000267325
0.00026161
0.000256347
0.000251377
0.000246645
0.000242188
0.000238052
0.000234317
0.000231086
0.000228484
0.000226646
0.000225712
0.000225811
0.000227062
0.000229562
0.000233384
0.000238577
0.000245164
0.000253146
0.000262505
0.000273213
0.000285236
0.000298537
0.000313086
0.000328861
0.000345842
0.00036401
0.000383337
0.000403778
0.000425257
0.000447661
0.000470835
0.000494583
0.000518671
0.000542836
0.000566802
0.000590295
0.000613063
0.000634886
0.000655594
0.000675068
0.000693239
0.000710089
0.000725633
0.000739914
0.000752989
0.000764839
0.000776008
0.000786604
0.00079662
0.000806027
0.000814789
0.000822863
0.000830205
0.00083677
0.000842512
0.000847392
0.000851374
0.00085443
0.000856539
0.000857688
0.000857873
0.000857101
0.000855386
0.00085275
0.000849224
0.000844843
0.00083965
0.000833691
0.000827016
0.000819675
0.000811723
0.000803211
0.000794192
0.000784717
0.000774835
0.000764591
0.000754029
0.000743189
0.000732108
0.00072082
0.000709354
0.000697738
0.000685993
0.000674142
0.000662199
0.000650181
0.000638098
0.00062596
0.000613774
0.000601545
0.000589279
0.000576989
0.000564642
0.000552166
0.000538485
0.000523441
0.000507024
0.000489262
0.000470242
0.000450111
0.000429085
0.000407443
0.000385516
0.000363673
0.000342291
0.000321727
0.00030229
0.00028422
0.000267679
0.000252742
0.000239416
0.000227647
0.000217337
0.000208365
0.000200596
0.000193893
0.000188123
0.000183165
0.000178908
0.000175255
0.000172115
0.000169408
0.000166834
0.000164361
0.000161973
0.000159657
0.000157402
0.000155196
0.000153032
0.000150903
0.000148804
0.000146731
0.00014468
0.000142651
0.000140643
0.000138658
0.000136697
0.000134765
0.000132865
0.000131002
0.000129183
0.000127414
0.000125704
0.00012406
0.000122492
0.000121007
0.000119615
0.000118325
0.000117147
0.00011609
0.000115164
0.000114377
0.000113741
0.000113266
0.000112963
0.000112846
0.000112928
0.000113226
0.000113757
0.000114544
0.000115609
0.000116978
0.000118682
0.000120755
0.000123297
0.000126511
0.000130416
0.000135089
0.000140624
0.000147131
0.000154745
0.000163635
0.000174032
0.000186278
0.000200923
0.000218902
0.000241842
0.000272641
0.000316374
0.000381118
0.000535881
0.000486794
0.000445565
0.00041278
0.00038764
0.000368916
0.000355392
0.000345975
0.000339779
0.000336177
0.000334727
0.000335089
0.000337031
0.000340391
0.000345045
0.000350895
0.000357853
0.000365838
0.000374775
0.000384594
0.000395232
0.000406638
0.000418771
0.000431602
0.000445107
0.000459271
0.000474078
0.000489508
0.000505536
0.00052212
0.000539203
0.000556706
0.000574523
0.000592522
0.000610551
0.000628439
0.000646006
0.000663079
0.000679501
0.000695145
0.00070992
0.000723777
0.000736707
0.000748739
0.000759928
0.000770347
0.000780076
0.000789194
0.000797772
0.000805866
0.000813517
0.00082075
0.00082792
0.000835278
0.000842832
0.000850572
0.000858472
0.000866497
0.000874603
0.000882737
0.00089084
0.000898848
0.000906693
0.000914305
0.000921616
0.000928555
0.000935057
0.000941061
0.000946511
0.000951358
0.000955559
0.000959081
0.000961898
0.000963991
0.000965352
0.000965976
0.000965868
0.000965037
0.000963499
0.000961272
0.000958379
0.000954844
0.000950694
0.000945956
0.000940659
0.000934831
0.000928497
0.000921684
0.000914416
0.000906716
0.000898604
0.000890099
0.000881219
0.000871977
0.000862386
0.000852456
0.000842195
0.000831612
0.000820726
0.000809498
0.000797813
0.000784745
0.000770031
0.000753553
0.000735224
0.000715013
0.000692958
0.00066918
0.000643897
0.000617425
0.000590174
0.000562618
0.000535267
0.000508621
0.000483131
0.000459161
0.000436974
0.000416723
0.000398463
0.000382166
0.000367744
0.000355068
0.000343986
0.000334338
0.000325963
0.000318709
0.000312441
0.000307014
0.000302299
0.00029781
0.000293479
0.00028928
0.000285191
0.00028119
0.000277263
0.000273395
0.000269574
0.000265791
0.000262041
0.000258318
0.00025462
0.000250948
0.000247305
0.000243694
0.000240124
0.000236602
0.00023314
0.000229751
0.000226449
0.000223251
0.000220175
0.000217238
0.00021446
0.000211861
0.000209462
0.000207284
0.000205345
0.000203666
0.000202267
0.000201167
0.000200384
0.000199936
0.00019984
0.000200113
0.000200772
0.000201833
0.000203311
0.000205225
0.000207591
0.000210431
0.000213768
0.000217635
0.000222222
0.000227572
0.000233692
0.000240637
0.000248486
0.000257352
0.000267391
0.00027883
0.000291989
0.000307329
0.000325489
0.000347317
0.000373771
0.000405362
0.000440263
0.00100028
0.000908055
0.000822523
0.000746598
0.000681809
0.000628647
0.000586821
0.000555328
0.000532748
0.000517535
0.000508356
0.000503782
0.000502718
0.000504305
0.000507885
0.000512968
0.000519191
0.000526287
0.000534063
0.00054238
0.000551135
0.000560251
0.000569667
0.000579333
0.000589201
0.000599219
0.000609332
0.000619478
0.000629582
0.000639563
0.000649331
0.000658791
0.000667848
0.00067641
0.0006844
0.000691757
0.000698442
0.000704443
0.000709774
0.000714473
0.000718599
0.000722222
0.000725419
0.00072827
0.000730848
0.000733217
0.000735431
0.000737533
0.000739554
0.000741514
0.000743422
0.000745282
0.000747516
0.000750219
0.000753401
0.000757069
0.000761227
0.000765877
0.000771014
0.000776632
0.00078272
0.00078926
0.00079623
0.000803601
0.000811337
0.000819394
0.000827723
0.000836269
0.000844973
0.000853769
0.000862591
0.000871371
0.000880042
0.000888537
0.000896794
0.000904753
0.000912359
0.000919563
0.000926323
0.0009326
0.000938364
0.000943589
0.000948256
0.000952348
0.000955855
0.000958769
0.000961088
0.000962809
0.000963933
0.000964462
0.000964399
0.000963747
0.000962509
0.000960688
0.000958286
0.000955304
0.000951741
0.000947597
0.000942885
0.000937555
0.000931508
0.000924314
0.000915659
0.000905304
0.000892999
0.000878516
0.000861667
0.000842341
0.000820532
0.000796376
0.000770166
0.000742355
0.00071353
0.000684357
0.000655521
0.000627648
0.000601256
0.000576718
0.000554262
0.000533978
0.000515852
0.000499793
0.00048566
0.000473288
0.000462497
0.000453115
0.000444982
0.00043792
0.000431751
0.000425891
0.000420236
0.000414748
0.000409398
0.000404159
0.00039901
0.000393934
0.000388916
0.000383945
0.000379012
0.000374112
0.000369243
0.000364406
0.000359603
0.000354843
0.000350134
0.00034549
0.000340925
0.000336458
0.000332107
0.000327896
0.000323847
0.000319986
0.000316337
0.000312927
0.000309779
0.000306919
0.000304369
0.00030215
0.000300281
0.00029878
0.00029766
0.000296935
0.000296615
0.000296709
0.000297224
0.000298166
0.000299541
0.000301355
0.000303615
0.000306329
0.000309509
0.000313172
0.000317339
0.000322161
0.000327623
0.000333746
0.000340583
0.000348202
0.000356693
0.000366168
0.000376752
0.000388578
0.000401737
0.000416199
0.000431635
0.000447095
0.000460657
0.00157318
0.001458
0.00134399
0.00123444
0.00113133
0.00103647
0.000951416
0.000877295
0.000814591
0.000763213
0.000722441
0.000691188
0.000668038
0.000651523
0.000640277
0.000633112
0.000629048
0.000627301
0.00062726
0.000628459
0.00063054
0.00063323
0.000636322
0.000639652
0.000643093
0.000646537
0.000649897
0.000653096
0.000656067
0.000658751
0.000661099
0.000663071
0.000664637
0.000665782
0.0006665
0.000666804
0.000666717
0.000666275
0.000665521
0.000664506
0.000663283
0.000661906
0.000660423
0.00065888
0.000657316
0.000655762
0.000654244
0.000652782
0.000651387
0.000650068
0.000648829
0.000647669
0.000646582
0.000645563
0.000644612
0.000643739
0.000642962
0.000642305
0.000641799
0.000641481
0.000641394
0.000641583
0.000642095
0.00064298
0.000644284
0.000646052
0.000648324
0.000651133
0.000654507
0.000658463
0.00066301
0.000668148
0.000673867
0.000680145
0.000686955
0.000694261
0.000702018
0.000710177
0.000718686
0.000727488
0.000736525
0.000745738
0.00075507
0.000764464
0.000773866
0.000783225
0.000792492
0.00080162
0.000810569
0.000819299
0.000827772
0.000835955
0.000843816
0.000851324
0.00085845
0.000865165
0.000871438
0.000877244
0.000882562
0.000887325
0.000891495
0.000895505
0.000899111
0.00090202
0.000903844
0.000904128
0.000902353
0.000897979
0.000890492
0.000879481
0.000864722
0.000846249
0.000824404
0.000799826
0.000773384
0.000746065
0.000718832
0.000692515
0.000667739
0.000644903
0.000624207
0.000605692
0.000589291
0.000574868
0.000562252
0.000551261
0.00054172
0.00053343
0.000526173
0.0005193
0.000512681
0.000506266
0.000500016
0.000493903
0.000487901
0.000481992
0.000476157
0.000470385
0.000464666
0.000458995
0.000453369
0.000447791
0.000442265
0.0004368
0.000431408
0.000426105
0.000420909
0.00041584
0.000410923
0.000406182
0.000401644
0.000397337
0.000393287
0.000389521
0.000386065
0.00038294
0.000380166
0.000377759
0.000375732
0.000374092
0.000372845
0.000371991
0.000371527
0.00037145
0.000371752
0.000372425
0.000373463
0.000374857
0.000376601
0.000378692
0.000381127
0.000383907
0.000387035
0.000390519
0.000394444
0.000398782
0.000403538
0.00040872
0.000414335
0.00042038
0.000426833
0.00043364
0.000440688
0.000447784
0.00045462
0.00046078
0.000465842
0.00212232
0.00199965
0.00187638
0.00175449
0.00163498
0.00151882
0.00140714
0.00130113
0.00120209
0.00111117
0.00102943
0.000957573
0.000895856
0.000844068
0.000801582
0.000767461
0.000740594
0.000719815
0.000704008
0.000692168
0.000683433
0.000677091
0.000672568
0.000669409
0.000667263
0.000665857
0.000664984
0.000664485
0.00066424
0.000664159
0.000664174
0.000664238
0.000664315
0.000664385
0.000664434
0.000664456
0.00066445
0.000664419
0.000664366
0.000664293
0.000664201
0.000664086
0.000663942
0.000663758
0.00066352
0.000663209
0.000662807
0.000662293
0.000661645
0.000660843
0.000659869
0.000658706
0.000657184
0.000655161
0.000652615
0.000649537
0.000645927
0.000641791
0.000637145
0.000632014
0.000626432
0.000620442
0.000614098
0.000607462
0.000600605
0.000593605
0.000586549
0.000579524
0.000572625
0.000565945
0.000559577
0.00055361
0.000548131
0.000543215
0.000538934
0.000535346
0.000532502
0.000530442
0.000529192
0.000528771
0.000529187
0.000530437
0.000532511
0.000535392
0.000539057
0.000543478
0.000548621
0.000554452
0.000560933
0.000568028
0.000575698
0.000583904
0.000592609
0.000601776
0.000611368
0.00062135
0.000631686
0.000642341
0.000653287
0.000664459
0.000675871
0.000688706
0.000703029
0.000718824
0.000735944
0.000754085
0.000772741
0.000791172
0.000808391
0.000823211
0.000834346
0.000840592
0.000841044
0.000835314
0.000823659
0.000806961
0.000786556
0.000763967
0.00074063
0.000717711
0.000696025
0.000676055
0.00065802
0.000641958
0.000627789
0.000615379
0.000604567
0.000595154
0.000586896
0.000579096
0.0005716
0.000564344
0.000557283
0.000550387
0.000543626
0.00053698
0.000530431
0.000523966
0.000517574
0.000511251
0.000504996
0.000498811
0.000492703
0.000486682
0.000480763
0.000474964
0.000469305
0.00046381
0.000458504
0.000453415
0.000448572
0.000444001
0.000439731
0.000435786
0.000432189
0.000428959
0.000426109
0.000423647
0.000421579
0.0004199
0.000418603
0.000417676
0.000417103
0.000416863
0.000416938
0.000417304
0.000417941
0.00041883
0.000419953
0.000421296
0.000422846
0.000424593
0.00042653
0.000428651
0.00043095
0.000433456
0.000436143
0.000438996
0.000441998
0.000445124
0.000448342
0.000451609
0.000454872
0.000458068
0.00046114
0.000464056
0.000466849
0.00267003
0.00255514
0.00243948
0.00232407
0.00220906
0.00209469
0.00198126
0.00186904
0.0017584
0.00164985
0.00154412
0.00144214
0.00134499
0.00125382
0.00116971
0.00109352
0.0010258
0.000966758
0.00091624
0.00087379
0.000838727
0.000810235
0.000787447
0.000769506
0.00075562
0.000745082
0.000737286
0.000731725
0.000727983
0.000725723
0.000724676
0.000724627
0.000725404
0.000726868
0.000728906
0.000731421
0.000734331
0.000737559
0.000741035
0.000744691
0.000748459
0.00075227
0.000756054
0.000759744
0.000763268
0.000766559
0.00076955
0.00077218
0.000774389
0.000776125
0.000777343
0.000778005
0.000778244
0.000777906
0.000776954
0.000775355
0.000773075
0.000770075
0.000766316
0.00076176
0.000756369
0.000750107
0.000742946
0.000734866
0.000725857
0.000715921
0.000705075
0.000693353
0.000680805
0.0006675
0.000653523
0.000638975
0.000623973
0.000608644
0.000593125
0.000577558
0.000562087
0.000546854
0.000531995
0.000517639
0.000503905
0.000490895
0.000478701
0.000467398
0.000457046
0.000447691
0.000439367
0.000432093
0.000425881
0.000420732
0.000416641
0.000413599
0.000411594
0.000410611
0.000410637
0.000411658
0.000413664
0.000416648
0.00042061
0.000425532
0.000431436
0.000439127
0.000448988
0.000461472
0.000477046
0.00049616
0.000519182
0.0005463
0.000577389
0.000611853
0.000648478
0.000685358
0.000719982
0.000749567
0.000771605
0.000784482
0.000787899
0.000782879
0.000771374
0.000755671
0.000737866
0.000719573
0.000701869
0.000685373
0.000670376
0.000656967
0.000645116
0.000634697
0.000625493
0.000616786
0.00060841
0.000600292
0.000592386
0.000584657
0.000577081
0.000569636
0.000562305
0.000555075
0.000547939
0.000540892
0.000533935
0.000527074
0.000520316
0.000513676
0.000507169
0.000500818
0.000494644
0.000488674
0.000482937
0.00047746
0.000472273
0.000467405
0.000462881
0.000458725
0.000454955
0.000451587
0.000448627
0.000446077
0.000443932
0.000442179
0.000440801
0.000439775
0.000439071
0.000438661
0.000438512
0.000438595
0.000438879
0.00043934
0.000439952
0.000440698
0.000441562
0.000442532
0.000443598
0.000444754
0.000445994
0.000447315
0.000448722
0.000450207
0.000451763
0.000453386
0.000455072
0.00045682
0.000458633
0.000460523
0.000462515
0.000464652
0.000467002
0.00319064
0.00309345
0.00299596
0.00289876
0.00280148
0.00270422
0.00260703
0.00250992
0.00241281
0.0023156
0.00221818
0.00212049
0.00202256
0.00192457
0.00182692
0.00173023
0.00163533
0.00154324
0.00145507
0.00137188
0.00129463
0.00122405
0.00116062
0.00110452
0.00105567
0.00101375
0.000978321
0.000948788
0.00092453
0.000904913
0.000889325
0.000877203
0.00086804
0.000861386
0.000856853
0.000854105
0.000852852
0.000852846
0.000853872
0.000855741
0.000858287
0.00086136
0.000864826
0.000868557
0.000872439
0.000876365
0.000880234
0.000883954
0.00088744
0.000890615
0.000893409
0.00089576
0.000897771
0.000899716
0.000901586
0.00090338
0.000905086
0.000906682
0.000908131
0.000909378
0.000910351
0.000910963
0.000911109
0.00091067
0.000909514
0.0009075
0.000904481
0.000900311
0.000894848
0.000887957
0.000879523
0.00086945
0.00085767
0.000844147
0.000828879
0.000811905
0.000793301
0.000773182
0.000751702
0.000729043
0.000705418
0.000681057
0.000656206
0.000631114
0.000606028
0.000581184
0.000556805
0.000533088
0.00051021
0.000488318
0.000467532
0.000447946
0.000429628
0.000412622
0.000396956
0.000382639
0.000369668
0.000358036
0.000347732
0.000338725
0.000330969
0.000323915
0.000317916
0.000313505
0.000311309
0.000312065
0.000316611
0.000325878
0.000340857
0.000362536
0.000391748
0.000428923
0.000473691
0.000524425
0.000577919
0.00062956
0.00067426
0.000707939
0.000728787
0.000737553
0.000736766
0.000729543
0.000718667
0.000706185
0.00069341
0.000681102
0.000669665
0.000659249
0.000649812
0.000640756
0.000631941
0.000623306
0.000614816
0.000606451
0.000598197
0.000590041
0.000581976
0.000573995
0.000566098
0.000558288
0.000550571
0.000542958
0.000535465
0.000528109
0.000520914
0.000513906
0.000507112
0.000500564
0.000494293
0.000488331
0.000482708
0.000477455
0.000472597
0.000468156
0.000464147
0.00046058
0.000457459
0.000454777
0.000452522
0.000450674
0.000449206
0.000448088
0.000447283
0.000446754
0.000446463
0.000446375
0.000446456
0.000446676
0.000447012
0.000447443
0.000447955
0.000448538
0.000449184
0.000449889
0.000450654
0.000451478
0.000452364
0.000453318
0.000454346
0.000455454
0.000456654
0.00045796
0.00045939
0.000460972
0.00046274
0.000464736
0.000467019
0.00362271
0.00354769
0.00347265
0.00339834
0.00332398
0.0032498
0.00317586
0.0031022
0.00302874
0.00295534
0.00288178
0.00280782
0.00273322
0.00265773
0.00258113
0.00250321
0.00242384
0.00234296
0.00226062
0.00217704
0.00209262
0.00200794
0.00192374
0.00184087
0.00176022
0.00168266
0.00160894
0.00153968
0.00147528
0.00141598
0.0013618
0.00131262
0.00126818
0.00122814
0.00119214
0.00115977
0.00113065
0.00110444
0.00108086
0.00105965
0.00104063
0.00102367
0.00100865
0.000995476
0.000984084
0.000974385
0.000966283
0.000959662
0.000954385
0.0009503
0.000947238
0.000945028
0.000943494
0.000942698
0.000942335
0.000942423
0.000943068
0.000944383
0.000946475
0.000949433
0.000953325
0.000958191
0.000964044
0.000970863
0.000978594
0.000987146
0.000996389
0.00100615
0.00101623
0.00102636
0.00103627
0.00104563
0.00105409
0.00106127
0.00106679
0.00107027
0.00107132
0.00106961
0.00106483
0.00105673
0.00104514
0.00102996
0.00101119
0.000988928
0.000963358
0.000934755
0.000903472
0.000869924
0.000834571
0.000797899
0.0007604
0.00072255
0.000684799
0.000647551
0.000611157
0.000575911
0.00054205
0.000509754
0.00047916
0.000450328
0.00042318
0.000395459
0.000367515
0.000340022
0.000313777
0.000289651
0.000268551
0.000251381
0.000239031
0.0002324
0.000232454
0.0002403
0.000257227
0.000284617
0.000323574
0.000374144
0.000434197
0.000498626
0.000559967
0.000610911
0.000647247
0.000668954
0.00067893
0.000680913
0.000678089
0.000672672
0.000666045
0.000659008
0.000651982
0.000644839
0.000637548
0.000630105
0.000622521
0.000614816
0.000607008
0.000599115
0.000591152
0.000583138
0.000575091
0.000567032
0.000558986
0.000550979
0.000543041
0.000535207
0.000527513
0.000519998
0.000512702
0.000505667
0.000498934
0.000492542
0.00048653
0.00048093
0.000475771
0.000471076
0.000466858
0.000463126
0.000459877
0.000457101
0.00045478
0.000452887
0.000451388
0.000450246
0.000449419
0.000448865
0.000448542
0.00044841
0.000448434
0.000448584
0.000448836
0.000449169
0.000449571
0.000450032
0.000450548
0.000451116
0.000451738
0.000452418
0.000453161
0.000453975
0.000454868
0.000455852
0.000456942
0.000458154
0.00045951
0.000461037
0.000462768
0.000464745
0.00046702
0.0039095
0.00385752
0.00380515
0.00375385
0.00370258
0.00365174
0.00360155
0.00355216
0.00350365
0.00345598
0.00340902
0.00336257
0.0033164
0.00327021
0.00322371
0.00317658
0.0031285
0.00307921
0.00302845
0.00297602
0.00292178
0.00286565
0.00280762
0.00274778
0.00268628
0.0026234
0.00255947
0.0024949
0.00243014
0.00236564
0.00230179
0.00223893
0.00217725
0.00211684
0.00205765
0.00199949
0.0019421
0.00188513
0.0018282
0.00177097
0.00171318
0.00165469
0.00159554
0.001536
0.00147652
0.00141778
0.00136058
0.0013058
0.00125432
0.0012069
0.00116414
0.00112641
0.00109381
0.00106625
0.0010442
0.00102414
0.00100547
0.000988218
0.000972509
0.00095854
0.000946508
0.000936607
0.000929026
0.000923935
0.000921483
0.0009218
0.000924987
0.000931122
0.000940254
0.000952396
0.000967524
0.000985565
0.00100639
0.00102981
0.00105554
0.00108323
0.00111242
0.00114254
0.00117291
0.00120275
0.00123117
0.00125723
0.00127992
0.00129825
0.00131126
0.0013181
0.00131809
0.00131076
0.00129589
0.00127353
0.00124402
0.00120792
0.00116605
0.00111932
0.00106879
0.00101549
0.000960448
0.000904578
0.000848708
0.000793477
0.000739024
0.000681319
0.000620783
0.000558576
0.000496224
0.000435485
0.000378183
0.000326009
0.000280333
0.000242092
0.000211789
0.000189609
0.000175636
0.000170112
0.000173696
0.000187644
0.000213747
0.000253708
0.000307588
0.000371659
0.000437659
0.000495779
0.000539737
0.000568975
0.000586629
0.000596505
0.000601527
0.00060355
0.000603755
0.000602949
0.000601286
0.00059885
0.000595715
0.000591951
0.000587619
0.000582776
0.000577473
0.000571757
0.000565678
0.000559284
0.000552626
0.000545758
0.000538739
0.000531628
0.000524489
0.000517387
0.00051039
0.000503564
0.000496972
0.000490675
0.000484728
0.000479179
0.00047407
0.000469429
0.000465279
0.000461628
0.000458476
0.000455811
0.00045361
0.000451844
0.000450475
0.000449461
0.000448756
0.000448315
0.000448094
0.000448053
0.000448155
0.00044837
0.000448674
0.00044905
0.000449485
0.000449972
0.000450506
0.000451088
0.00045172
0.000452407
0.000453154
0.000453971
0.000454866
0.000455851
0.000456941
0.000458154
0.00045951
0.000461037
0.000462768
0.000464745
0.00046702
0.00401694
0.00398669
0.00395489
0.00392427
0.00389358
0.00386344
0.00383416
0.00380608
0.00377942
0.00375431
0.00373076
0.00370875
0.00368814
0.00366878
0.00365046
0.00363293
0.00361594
0.00359922
0.0035825
0.0035655
0.00354795
0.0035296
0.00351022
0.00348962
0.00346767
0.00344428
0.00341944
0.00339318
0.00336561
0.00333689
0.0033072
0.00327674
0.0032457
0.00321424
0.00318246