/*--------------------------------*- C++ -*----------------------------------*\
| =========                 |                                                 |
| \\      /  F ield         | OpenFOAM: The Open Source CFD Toolbox           |
|  \\    /   O peration     | Version:  2406                                  |
|   \\  /    A nd           | Website:  www.openfoam.com                      |
|    \\/     M anipulation  |                                                 |
\*---------------------------------------------------------------------------*/
FoamFile
{
    version     2.0;
    format      ascii;
    arch        "LSB;label=32;scalar=64";
    class       volScalarField;
    location    "1000";
    object      p;
}
// * * * * * * * * * * * * * * * * * * * * * * * * * * * * * * * * * * * * * //

dimensions      [0 2 -2 0 0 0 0];

internalField   nonuniform List<scalar> 
5619
(
-0.000959638
0.00549877
0.00848193
0.011901
0.0149628
0.0178121
0.0203517
0.022483
0.0241105
0.0251274
0.0254281
0.0249101
0.0234735
0.0210159
0.0174296
0.0125993
0.00639688
-0.00132069
-0.0107147
-0.0219646
-0.0352694
-0.0508438
-0.068916
-0.0897199
-0.113487
-0.140436
-0.170754
-0.204585
-0.242007
-0.283016
-0.327512
-0.375286
-0.426021
-0.479285
-0.534539
-0.591142
-0.648361
-0.705388
-0.761357
-0.815368
-0.866521
-0.913937
-0.956788
-0.994323
-1.02588
-1.05092
-1.06901
-1.07986
-1.08328
-1.07924
-1.06781
-1.04919
-1.02368
-0.991655
-0.953572
-0.909927
-0.861306
-0.808351
-0.75165
-0.691786
-0.629339
-0.564867
-0.498899
-0.431922
-0.364383
-0.296685
-0.229182
-0.162183
-0.0959542
-0.0307174
0.0333441
0.0960837
0.157388
0.217172
0.275379
0.331974
0.386943
0.440288
0.492025
0.542186
0.590807
0.637939
0.683633
0.72795
0.770953
0.812709
0.853284
0.89275
0.931175
0.96863
1.00518
1.04091
1.07587
1.11013
1.14377
1.17684
1.20944
1.24148
1.27306
1.3054
1.33994
1.3773
1.41774
1.46104
1.50704
1.55544
1.60584
1.65778
1.7107
1.764
1.81704
1.86922
1.91992
1.96864
2.01492
2.05844
2.09894
2.13631
2.17049
2.20154
2.22956
2.2547
2.27715
2.29712
2.31482
2.33042
2.34412
2.35659
2.36845
2.38001
2.39142
2.4027
2.41391
2.42509
2.43629
2.44754
2.45888
2.47032
2.4819
2.49363
2.50553
2.51759
2.52982
2.54222
2.55477
2.56746
2.58027
2.59315
2.60608
2.619
2.63187
2.64464
2.65723
2.66959
2.68164
2.69332
2.70457
2.7153
2.72547
2.73501
2.74389
2.75206
2.75951
2.76622
2.7722
2.77746
2.78204
2.78597
2.78933
2.79216
2.79455
2.79655
2.79825
2.7997
2.80098
2.80214
2.80324
2.80432
2.80542
2.80657
2.80781
2.80917
2.8107
2.81247
2.81444
2.81654
2.8272
-0.000964833
0.00549288
0.00847625
0.0118957
0.0149576
0.0178068
0.0203464
0.0224778
0.0241056
0.025123
0.0254246
0.024908
0.0234731
0.0210175
0.0174338
0.0126067
0.00640836
-0.00130428
-0.0106923
-0.021935
-0.0352312
-0.0507952
-0.0688548
-0.0896435
-0.113392
-0.140318
-0.170609
-0.204409
-0.241797
-0.282773
-0.327239
-0.374992
-0.425715
-0.478978
-0.534243
-0.590867
-0.648114
-0.705173
-0.761176
-0.815222
-0.86641
-0.913859
-0.956742
-0.994306
-1.02589
-1.05096
-1.06907
-1.07994
-1.08338
-1.07935
-1.06794
-1.04933
-1.02384
-0.991818
-0.953762
-0.910198
-0.861672
-0.808768
-0.752098
-0.692263
-0.629843
-0.565399
-0.499457
-0.432506
-0.364991
-0.297315
-0.229832
-0.162852
-0.0966381
-0.0314147
0.0326358
0.0953665
0.156664
0.216443
0.274647
0.331241
0.38621
0.439556
0.491296
0.541459
0.590085
0.637221
0.682921
0.727243
0.770252
0.812014
0.852595
0.892067
0.930498
0.967958
1.00452
1.04025
1.07521
1.10948
1.14311
1.17619
1.20877
1.24079
1.27232
1.30469
1.33929
1.37669
1.41715
1.46047
1.50649
1.55491
1.60533
1.65728
1.71022
1.76354
1.81661
1.86881
1.91953
1.96827
2.01458
2.05811
2.09863
2.13601
2.17022
2.20128
2.22931
2.25447
2.27693
2.2969
2.31461
2.3302
2.34388
2.35635
2.36823
2.3798
2.39121
2.4025
2.41371
2.4249
2.43611
2.44737
2.45871
2.47016
2.48175
2.49348
2.50538
2.51745
2.52969
2.5421
2.55466
2.56735
2.58016
2.59305
2.60598
2.61892
2.6318
2.64457
2.65717
2.66953
2.68159
2.69328
2.70453
2.71527
2.72544
2.73499
2.74387
2.75205
2.7595
2.76622
2.77219
2.77746
2.78204
2.78598
2.78933
2.79217
2.79455
2.79656
2.79826
2.79971
2.80099
2.80215
2.80325
2.80433
2.80543
2.80658
2.80782
2.80917
2.81068
2.81236
2.81407
2.81517
2.81968
-0.000979159
0.00548769
0.00847246
0.0118918
0.0149538
0.0178032
0.0203435
0.022476
0.0241053
0.025125
0.0254296
0.0249165
0.0234857
0.021035
0.0174574
0.0126375
0.00644786
-0.00125394
-0.0106285
-0.0218543
-0.0351298
-0.0506687
-0.0686984
-0.0894525
-0.113162
-0.140045
-0.17029
-0.204043
-0.241386
-0.28232
-0.326752
-0.374481
-0.425196
-0.478469
-0.533762
-0.590433
-0.647746
-0.704888
-0.76099
-0.815151
-0.866467
-0.914059
-0.957098
-0.994832
-1.0266
-1.05186
-1.07019
-1.08128
-1.08495
-1.08118
-1.07002
-1.05168
-1.02645
-0.994727
-0.956949
-0.913619
-0.865321
-0.812653
-0.756213
-0.696592
-0.634368
-0.5701
-0.504312
-0.437492
-0.370086
-0.302494
-0.235072
-0.16813
-0.101933
-0.0367053
0.0273685
0.0901399
0.151494
0.211344
0.26963
0.326317
0.381388
0.434843
0.486698
0.53698
0.585728
0.632988
0.678814
0.723262
0.766397
0.808284
0.848989
0.888583
0.927134
0.964713
1.00139
1.03723
1.07231
1.10668
1.14042
1.1736
1.20629
1.2384
1.27001
1.30247
1.33719
1.37471
1.41528
1.45873
1.50487
1.55341
1.60396
1.65605
1.70912
1.76256
1.81575
1.86806
1.9189
1.96774
2.01413
2.05775
2.09835
2.1358
2.17006
2.20118
2.22926
2.25445
2.27694
2.29695
2.31468
2.33029
2.34399
2.35648
2.36838
2.37997
2.39139
2.40269
2.41391
2.42511
2.43633
2.44759
2.45894
2.4704
2.48199
2.49373
2.50564
2.51771
2.52995
2.54236
2.55492
2.56761
2.58042
2.59331
2.60624
2.61917
2.63204
2.6448
2.6574
2.66975
2.6818
2.69348
2.70471
2.71544
2.7256
2.73514
2.74401
2.75217
2.75961
2.76631
2.77227
2.77753
2.7821
2.78603
2.78937
2.7922
2.79458
2.79659
2.79828
2.79973
2.80101
2.80217
2.80328
2.80436
2.80546
2.80661
2.80785
2.80923
2.81078
2.8126
2.81465
2.8167
2.82175
-0.00101011
0.00548712
0.00847633
0.0118941
0.0149567
0.0178072
0.0203497
0.0224854
0.0241194
0.0251453
0.0254569
0.0249521
0.0235318
0.0210939
0.0175311
0.0127286
0.00655891
-0.00112057
-0.0104707
-0.0216706
-0.0349193
-0.0504313
-0.0684347
-0.0891637
-0.11285
-0.13971
-0.169933
-0.203662
-0.240979
-0.281882
-0.326279
-0.373972
-0.424649
-0.47789
-0.533161
-0.589826
-0.647153
-0.704334
-0.760502
-0.814761
-0.866208
-0.913965
-0.957208
-0.995186
-1.02724
-1.05283
-1.07152
-1.08301
-1.08713
-1.08383
-1.07316
-1.05534
-1.03065
-0.999479
-0.962265
-0.919515
-0.87178
-0.819644
-0.763704
-0.704552
-0.642764
-0.578896
-0.513471
-0.446974
-0.379851
-0.312503
-0.245284
-0.178505
-0.112434
-0.0472955
0.0167238
0.0794736
0.140836
0.200723
0.259073
0.315846
0.371024
0.424605
0.476603
0.527043
0.575961
0.623401
0.669416
0.714061
0.757399
0.799493
0.840409
0.880216
0.918982
0.956776
0.993667
1.02972
1.06501
1.0996
1.13355
1.16693
1.19982
1.23215
1.26395
1.29661
1.33157
1.36936
1.41022
1.45398
1.50045
1.54933
1.60024
1.65268
1.7061
1.7599
1.81343
1.86607
1.91721
1.96633
2.01299
2.05683
2.09764
2.13527
2.16969
2.20095
2.22914
2.25444
2.27701
2.29709
2.31488
2.33054
2.34428
2.3568
2.36873
2.38034
2.39179
2.40311
2.41437
2.42559
2.43683
2.44811
2.45948
2.47096
2.48257
2.49433
2.50625
2.51834
2.53059
2.54301
2.55558
2.56828
2.58109
2.59398
2.60691
2.61983
2.63269
2.64544
2.65802
2.67035
2.68238
2.69403
2.70523
2.71592
2.72604
2.73554
2.74437
2.75249
2.75989
2.76655
2.77248
2.7777
2.78224
2.78614
2.78946
2.79227
2.79464
2.79662
2.7983
2.79975
2.80102
2.80218
2.80328
2.80436
2.80545
2.8066
2.80783
2.80918
2.81068
2.81238
2.81422
2.81611
2.82117
-0.00107104
0.00549781
0.00849431
0.011908
0.0149718
0.0178246
0.0203716
0.0225135
0.0241549
0.0251884
0.0255089
0.0250147
0.0236057
0.0211798
0.0176302
0.0128425
0.00668987
-0.000969119
-0.0102938
-0.0214615
-0.0346689
-0.0501284
-0.0680662
-0.0887146
-0.112304
-0.139053
-0.169151
-0.202746
-0.239924
-0.280693
-0.324969
-0.372562
-0.423174
-0.47639
-0.531686
-0.588431
-0.645898
-0.703283
-0.759721
-0.814318
-0.866172
-0.914406
-0.95819
-0.996772
-1.02949
-1.05579
-1.07524
-1.08752
-1.09245
-1.08998
-1.08013
-1.06312
-1.03925
-1.00886
-0.972395
-0.930355
-0.883291
-0.83178
-0.776412
-0.717774
-0.656444
-0.592975
-0.527893
-0.461686
-0.394799
-0.327638
-0.26056
-0.19388
-0.127867
-0.0627496
0.00128194
0.0640747
0.125508
0.185491
0.24396
0.300873
0.35621
0.409967
0.462156
0.512801
0.561937
0.609606
0.655859
0.700752
0.744344
0.786699
0.827882
0.867961
0.907004
0.945078
0.982253
1.0186
1.05417
1.08905
1.12329
1.15697
1.19015
1.22277
1.25486
1.28781
1.3231
1.36125
1.40251
1.4467
1.49364
1.54302
1.59444
1.64743
1.70141
1.75576
1.80984
1.86302
1.91467
1.96428
2.01139
2.05564
2.09682
2.13478
2.16949
2.20099
2.22941
2.25489
2.27762
2.29783
2.31574
2.33151
2.34533
2.35792
2.3699
2.38157
2.39306
2.40443
2.41572
2.42698
2.43825
2.44957
2.46096
2.47246
2.48409
2.49587
2.5078
2.51989
2.53215
2.54456
2.55713
2.56982
2.58261
2.59548
2.60838
2.62127
2.63409
2.64679
2.65931
2.67159
2.68355
2.69513
2.70625
2.71687
2.72691
2.73632
2.74506
2.7531
2.76042
2.767
2.77286
2.77801
2.78249
2.78634
2.78962
2.79239
2.79472
2.79668
2.79835
2.79978
2.80105
2.8022
2.80329
2.80437
2.80547
2.80663
2.80787
2.80924
2.81078
2.81253
2.81441
2.81634
2.82091
-0.00115461
0.00555413
0.00855181
0.0119465
0.0150013
0.0178481
0.0203938
0.0225373
0.0241821
0.0252218
0.0255518
0.0250694
0.0236757
0.0212694
0.0177449
0.0129888
0.00687568
-0.000734555
-0.01
-0.021097
-0.0342215
-0.0495855
-0.0674153
-0.0879436
-0.111402
-0.13801
-0.16796
-0.201402
-0.238427
-0.279052
-0.323202
-0.3707
-0.421261
-0.474487
-0.529865
-0.586779
-0.64451
-0.702261
-0.759172
-0.814348
-0.866886
-0.915904
-0.960565
-1.00011
-1.03386
-1.06126
-1.08186
-1.09534
-1.10149
-1.10024
-1.09161
-1.07579
-1.0531
-1.02386
-0.988489
-0.947479
-0.901362
-0.850707
-0.796099
-0.738124
-0.677358
-0.614359
-0.549654
-0.483736
-0.417056
-0.350025
-0.283007
-0.216323
-0.15025
-0.0850234
-0.0208382
0.0421462
0.103804
0.16404
0.222785
0.279994
0.335644
0.389727
0.442254
0.493246
0.542737
0.590766
0.637385
0.682647
0.726612
0.769341
0.810901
0.851358
0.890781
0.929236
0.966792
1.00352
1.03948
1.07474
1.10937
1.14343
1.177
1.21003
1.24252
1.27587
1.3116
1.35025
1.39206
1.43686
1.48445
1.53452
1.58668
1.64042
1.69518
1.75032
1.80519
1.85913
1.91153
1.96184
2.0096
2.05446
2.09618
2.13462
2.16976
2.20163
2.23036
2.25611
2.27908
2.29948
2.31755
2.33345
2.34739
2.36006
2.37212
2.38386
2.39542
2.40685
2.4182
2.42951
2.44083
2.45219
2.46362
2.47516
2.48682
2.49861
2.51056
2.52267
2.53493
2.54735
2.5599
2.57257
2.58533
2.59816
2.61101
2.62383
2.63658
2.6492
2.66162
2.67378
2.68562
2.69707
2.70806
2.71853
2.72842
2.73768
2.74627
2.75416
2.76133
2.76778
2.77351
2.77854
2.78292
2.78668
2.78988
2.79258
2.79486
2.79678
2.79842
2.79983
2.80107
2.80222
2.8033
2.80438
2.80547
2.80662
2.80786
2.80922
2.81074
2.81247
2.81436
2.81638
2.82058
-0.00124211
0.00564757
0.00865108
0.0120194
0.0150596
0.0178931
0.0204316
0.0225733
0.0242217
0.0252701
0.0256148
0.0251531
0.0237854
0.0214114
0.0179261
0.0132176
0.00716211
-0.000378534
-0.00956013
-0.0205565
-0.0335614
-0.0487847
-0.0664513
-0.0867939
-0.110046
-0.136429
-0.166143
-0.199346
-0.236143
-0.276563
-0.320551
-0.367952
-0.4185
-0.471818
-0.527416
-0.584691
-0.642939
-0.701371
-0.759132
-0.815325
-0.869044
-0.919399
-0.965546
-1.00671
-1.0422
-1.07143
-1.09395
-1.10941
-1.11759
-1.11838
-1.11174
-1.09789
-1.07713
-1.04975
-1.01614
-0.976768
-0.932143
-0.882821
-0.829374
-0.772383
-0.712424
-0.650054
-0.585806
-0.520181
-0.453642
-0.386611
-0.319464
-0.252537
-0.18612
-0.120463
-0.0557735
0.00777685
0.0700512
0.130944
0.190377
0.248299
0.304678
0.359502
0.412776
0.464519
0.514759
0.563537
0.610899
0.656899
0.701596
0.745051
0.787329
0.828497
0.868623
0.907776
0.946023
0.983433
1.02007
1.05601
1.09131
1.12604
1.16028
1.19397
1.22712
1.26113
1.29758
1.33701
1.37966
1.42537
1.47392
1.52501
1.57823
1.63307
1.68894
1.74521
1.80118
1.85621
1.90964
1.96093
2.00959
2.05528
2.09774
2.13684
2.17254
2.20491
2.23406
2.26016
2.28343
2.30408
2.32235
2.33842
2.3525
2.36528
2.37743
2.38925
2.40088
2.41237
2.42377
2.43512
2.44647
2.45786
2.46931
2.48085
2.4925
2.50429
2.51621
2.52828
2.54049
2.55283
2.56531
2.57788
2.59053
2.60323
2.61593
2.62859
2.64116
2.65358
2.66579
2.67772
2.68932
2.70051
2.71123
2.72142
2.73103
2.74002
2.74834
2.75596
2.76288
2.76908
2.77459
2.77943
2.78363
2.78724
2.79031
2.79291
2.7951
2.79695
2.79854
2.79991
2.80113
2.80225
2.80333
2.8044
2.80549
2.80664
2.80788
2.80925
2.81077
2.8125
2.81438
2.81647
2.82024
-0.00128754
0.00571877
0.00873788
0.0120785
0.0151143
0.0179444
0.0204858
0.0226338
0.0242931
0.025357
0.0257233
0.0252908
0.0239611
0.0216342
0.0182068
0.0135685
0.00759827
0.00016099
-0.0088958
-0.0197427
-0.0325704
-0.0475868
-0.0650154
-0.0850895
-0.108044
-0.134107
-0.163484
-0.196347
-0.232816
-0.272943
-0.316697
-0.363954
-0.41448
-0.467932
-0.523849
-0.581657
-0.640673
-0.700125
-0.759166
-0.816905
-0.872431
-0.924845
-0.973289
-1.01697
-1.05519
-1.08733
-1.11291
-1.13156
-1.14303
-1.14717
-1.1439
-1.1334
-1.11594
-1.09175
-1.06118
-1.02463
-0.98259
-0.93558
-0.884153
-0.828879
-0.770325
-0.709049
-0.645591
-0.580462
-0.514139
-0.447063
-0.379633
-0.312207
-0.245099
-0.178582
-0.11289
-0.0482169
0.0152788
0.0774715
0.138265
0.197591
0.255404
0.31168
0.366413
0.419613
0.471302
0.521515
0.570294
0.61769
0.663759
0.708561
0.752161
0.794626
0.836023
0.876422
0.915893
0.954505
0.992327
1.02943
1.06587
1.10173
1.13708
1.17188
1.20612
1.24125
1.27889
1.31958
1.36359
1.41073
1.4608
1.51348
1.56833
1.62484
1.6824
1.74034
1.79797
1.85459
1.90955
1.96227
2.01226
2.05915
2.10267
2.14271
2.17921
2.21226
2.24198
2.26855
2.2922
2.31316
2.33168
2.34796
2.36219
2.37509
2.38733
2.39923
2.41092
2.42246
2.4339
2.44528
2.45664
2.46802
2.47945
2.49096
2.50257
2.51428
2.52612
2.53809
2.55017
2.56237
2.57467
2.58705
2.59948
2.61192
2.62434
2.63669
2.64892
2.66098
2.67279
2.68431
2.69547
2.70621
2.71647
2.72619
2.73532
2.74384
2.75169
2.75887
2.76537
2.77119
2.77634
2.78085
2.78477
2.78813
2.79099
2.79342
2.79548
2.79722
2.79872
2.80003
2.80121
2.80231
2.80336
2.80442
2.8055
2.80665
2.80789
2.80926
2.81078
2.81251
2.81438
2.81654
2.81988
-0.00119445
0.00572635
0.00876979
0.0120722
0.015112
0.0179519
0.0205166
0.022695
0.0243908
0.0254959
0.0259071
0.025524
0.0242504
0.0219906
0.0186456
0.0141094
0.00826523
0.000982095
-0.00788812
-0.0185116
-0.0310746
-0.0457809
-0.0628513
-0.0825179
-0.105018
-0.130586
-0.159439
-0.191766
-0.227712
-0.26736
-0.31072
-0.357711
-0.408148
-0.461739
-0.518072
-0.576618
-0.636737
-0.697687
-0.758644
-0.818727
-0.877027
-0.932638
-0.984684
-1.03235
-1.0749
-1.11168
-1.14218
-1.16597
-1.18277
-1.19239
-1.19474
-1.18984
-1.17785
-1.15899
-1.1335
-1.10173
-1.06413
-1.02115
-0.973319
-0.921172
-0.865257
-0.80612
-0.744299
-0.680314
-0.614659
-0.547794
-0.48015
-0.412114
-0.344037
-0.27623
-0.208963
-0.142469
-0.0769428
-0.0125449
0.0505959
0.112381
0.172737
0.231616
0.288991
0.344852
0.399206
0.452075
0.50349
0.553493
0.602133
0.649466
0.695552
0.740456
0.784245
0.826987
0.868752
0.909612
0.949635
0.988891
1.02745
1.06538
1.10277
1.13955
1.17574
1.21289
1.25266
1.29559
1.34198
1.39159
1.44423
1.49952
1.55701
1.61614
1.67629
1.73675
1.7968
1.85573
1.91287
1.96761
2.01946
2.06803
2.11305
2.15439
2.19202
2.22601
2.25651
2.28372
2.30788
2.32924
2.34808
2.3646
2.37903
2.39206
2.4044
2.41636
2.42811
2.43967
2.45111
2.46247
2.47379
2.48511
2.49646
2.50785
2.51931
2.53086
2.54249
2.55422
2.56604
2.57793
2.58989
2.60188
2.61389
2.62586
2.63778
2.64958
2.66122
2.67264
2.68379
2.69461
2.70505
2.71504
2.72454
2.7335
2.74188
2.74965
2.75678
2.76328
2.76912
2.77434
2.77895
2.78297
2.78646
2.78945
2.79201
2.79418
2.79603
2.79762
2.799
2.80022
2.80134
2.80239
2.80342
2.80445
2.80553
2.80667
2.80791
2.80928
2.8108
2.81252
2.81439
2.8166
2.81954
-0.000839514
0.00565885
0.0087384
0.0119835
0.015027
0.0178738
0.0204639
0.0226823
0.0244355
0.0256148
0.0261167
0.0258388
0.0246825
0.0225506
0.0193451
0.0149641
0.00929815
0.00222581
-0.00639007
-0.0167047
-0.0288941
-0.0431544
-0.0597012
-0.0787657
-0.100589
-0.125415
-0.153478
-0.184993
-0.22014
-0.259048
-0.301783
-0.348328
-0.398572
-0.452296
-0.509165
-0.56872
-0.630383
-0.693461
-0.757162
-0.820622
-0.882932
-0.943171
-1.00044
-1.05388
-1.10272
-1.14628
-1.18397
-1.21535
-1.24008
-1.25798
-1.26899
-1.27297
-1.26984
-1.25966
-1.24256
-1.2188
-1.18869
-1.15264
-1.1111
-1.06455
-1.01351
-0.958497
-0.900039
-0.838655
-0.77485
-0.709108
-0.641888
-0.573619
-0.504696
-0.435479
-0.366292
-0.297421
-0.229115
-0.161589
-0.0950228
-0.0295635
0.0346712
0.097591
0.15913
0.219247
0.277917
0.335135
0.39091
0.445265
0.498232
0.549855
0.600183
0.649271
0.697182
0.743978
0.789727
0.834499
0.878362
0.921386
0.96364
1.00521
1.04616
1.08642
1.126
1.16671
1.2103
1.25724
1.30786
1.3619
1.41908
1.47898
1.5411
1.60478
1.66934
1.73399
1.79797
1.86052
1.92095
1.97865
2.03313
2.08401
2.13107
2.17416
2.21328
2.24852
2.28004
2.30807
2.33287
2.35473
2.37395
2.39076
2.40539
2.41855
2.43095
2.44296
2.4547
2.46624
2.47762
2.48889
2.50008
2.51123
2.52238
2.53353
2.54471
2.55594
2.5672
2.57852
2.58986
2.60123
2.61261
2.62397
2.63528
2.6465
2.6576
2.66853
2.67924
2.68968
2.6998
2.70955
2.71889
2.72775
2.73612
2.74395
2.75121
2.75788
2.76397
2.76947
2.77439
2.77875
2.78258
2.78591
2.7888
2.79128
2.79341
2.79523
2.7968
2.79817
2.79938
2.80048
2.80151
2.8025
2.80349
2.8045
2.80556
2.80669
2.80793
2.80929
2.81082
2.81253
2.8144
2.81664
2.81925
-0.000136165
0.00553726
0.00866864
0.0118343
0.0148816
0.0177304
0.020339
0.0225847
0.024378
0.0256125
0.0261903
0.0260149
0.0249946
0.0230382
0.0200526
0.0159395
0.0105917
0.00389026
-0.00429864
-0.0141251
-0.025758
-0.0393853
-0.0552142
-0.0734699
-0.094392
-0.11823
-0.145234
-0.175649
-0.209695
-0.247561
-0.289384
-0.335234
-0.385097
-0.438858
-0.496287
-0.557029
-0.6206
-0.686386
-0.753655
-0.821581
-0.889273
-0.95581
-1.02028
-1.08179
-1.13951
-1.1927
-1.2407
-1.28297
-1.31909
-1.34879
-1.37197
-1.38865
-1.39847
-1.40101
-1.39625
-1.38438
-1.36568
-1.34048
-1.30913
-1.272
-1.22952
-1.18213
-1.13029
-1.07447
-1.01517
-0.952859
-0.88801
-0.821079
-0.752503
-0.682692
-0.612031
-0.540876
-0.46955
-0.398342
-0.327509
-0.257274
-0.187827
-0.119328
-0.0519059
0.0143376
0.079326
0.143006
0.205346
0.266331
0.325963
0.384259
0.441244
0.496958
0.551444
0.604755
0.656949
0.708086
0.75823
0.807447
0.855803
0.903383
0.950266
0.996318
1.04157
1.08825
1.13827
1.19201
1.24985
1.31144
1.37642
1.44428
1.51437
1.58592
1.65807
1.72993
1.80058
1.86919
1.935
1.99739
2.05588
2.11015
2.16002
2.20543
2.24646
2.28325
2.31601
2.34501
2.37055
2.39296
2.41257
2.42964
2.44445
2.45768
2.47007
2.48203
2.49368
2.50507
2.51625
2.52727
2.53818
2.54899
2.55974
2.57044
2.58111
2.59176
2.60239
2.61299
2.62356
2.63407
2.64452
2.65487
2.66508
2.67514
2.68499
2.6946
2.70392
2.71291
2.72153
2.72974
2.7375
2.74478
2.75155
2.7578
2.76352
2.76871
2.77338
2.77753
2.78121
2.78444
2.78725
2.78969
2.79179
2.79361
2.79518
2.79656
2.79777
2.79886
2.79986
2.8008
2.80172
2.80264
2.80357
2.80455
2.80559
2.80672
2.80795
2.80931
2.81083
2.81254
2.8144
2.81667
2.81903
0.000891274
0.00537775
0.00858419
0.0116505
0.0147032
0.0175531
0.0201825
0.0224587
0.0242952
0.0255847
0.0262301
0.0261363
0.0252151
0.0233816
0.0205531
0.0166452
0.0115681
0.00522191
-0.00250774
-0.0117531
-0.0226682
-0.0354304
-0.0502416
-0.0673282
-0.0869384
-0.109339
-0.13481
-0.163636
-0.196097
-0.232453
-0.272936
-0.317723
-0.366925
-0.420562
-0.478547
-0.540665
-0.60656
-0.675725
-0.747504
-0.821109
-0.89565
-0.970177
-1.04372
-1.11531
-1.18402
-1.24899
-1.30948
-1.36486
-1.41464
-1.4585
-1.49625
-1.52798
-1.55443
-1.57443
-1.58696
-1.59245
-1.59075
-1.58185
-1.56596
-1.54341
-1.51456
-1.47977
-1.43944
-1.39395
-1.34374
-1.28921
-1.23081
-1.16897
-1.10413
-1.03671
-0.967128
-0.895779
-0.823046
-0.749286
-0.674836
-0.600006
-0.525078
-0.450306
-0.375917
-0.302108
-0.229046
-0.156871
-0.0856973
-0.0156112
0.0533238
0.121066
0.187594
0.252904
0.317006
0.379923
0.441691
0.502352
0.561956
0.620557
0.678211
0.735002
0.79101
0.846052
0.900134
0.956033
1.01599
1.08035
1.14953
1.22309
1.30055
1.38124
1.46432
1.54881
1.63359
1.71754
1.7995
1.87841
1.95335
2.0236
2.08866
2.14829
2.20242
2.25117
2.29475
2.33346
2.36765
2.39768
2.42395
2.44684
2.46673
2.48394
2.49879
2.51192
2.52412
2.53583
2.54717
2.55818
2.56893
2.57946
2.58979
2.59997
2.61001
2.61993
2.62974
2.63945
2.64905
2.65853
2.66789
2.6771
2.68615
2.695
2.70363
2.712
2.72009
2.72784
2.73524
2.74224
2.74883
2.75496
2.76063
2.76582
2.77053
2.77475
2.77851
2.78182
2.7847
2.7872
2.78935
2.7912
2.79277
2.79413
2.7953
2.79634
2.79726
2.7981
2.79889
2.79966
2.80041
2.80118
2.80197
2.80279
2.80367
2.80461
2.80563
2.80674
2.80796
2.80932
2.81084
2.81254
2.81441
2.81668
2.81892
0.00211816
0.00519923
0.00850794
0.0114619
0.0145204
0.0173668
0.0200125
0.0223135
0.024188
0.0255289
0.0262424
0.0262361
0.025425
0.0237278
0.0210659
0.0173602
0.0125277
0.00647815
-0.000889749
-0.00969136
-0.0200602
-0.0321509
-0.046143
-0.0622432
-0.0806872
-0.10174
-0.125695
-0.152865
-0.183584
-0.218183
-0.256989
-0.300295
-0.348345
-0.40131
-0.459257
-0.522131
-0.589726
-0.661673
-0.737422
-0.816255
-0.897328
-0.979724
-1.06249
-1.14468
-1.22536
-1.30365
-1.3787
-1.44977
-1.51617
-1.57733
-1.63275
-1.68188
-1.72466
-1.76353
-1.79635
-1.82004
-1.83644
-1.84632
-1.84981
-1.84686
-1.83733
-1.82125
-1.79882
-1.77028
-1.73589
-1.69596
-1.6508
-1.60074
-1.54613
-1.48733
-1.42472
-1.35868
-1.28958
-1.21782
-1.14376
-1.06776
-0.990161
-0.911297
-0.831475
-0.750986
-0.670099
-0.589065
-0.508113
-0.42745
-0.347257
-0.267695
-0.188894
-0.110961
-0.0339752
0.0420076
0.116956
0.190857
0.263718
0.335556
0.4064
0.476311
0.545361
0.613336
0.680177
0.749136
0.82304
0.902468
0.987848
1.07861
1.17415
1.27355
1.37573
1.4794
1.58313
1.68544
1.78485
1.87999
1.96967
2.0529
2.12902
2.19767
2.25886
2.31288
2.36025
2.40158
2.43751
2.46863
2.49551
2.51866
2.53856
2.55562
2.57019
2.58291
2.59458
2.60569
2.61634
2.62659
2.6365
2.6461
2.65543
2.66451
2.67338
2.68203
2.69047
2.69872
2.70676
2.71458
2.72217
2.72951
2.73658
2.74335
2.74981
2.75591
2.76164
2.76698
2.77189
2.77636
2.78038
2.78394
2.78704
2.7897
2.79192
2.79375
2.7952
2.79633
2.79718
2.79779
2.79822
2.79852
2.79873
2.7989
2.79906
2.79924
2.79946
2.79974
2.80008
2.8005
2.801
2.80157
2.80222
2.80295
2.80377
2.80467
2.80566
2.80676
2.80797
2.80932
2.81084
2.81254
2.81441
2.81668
2.81892
0.00337779
0.0050295
0.00846425
0.0113053
0.0143705
0.017211
0.0198696
0.0221903
0.0240955
0.0254777
0.0262449
0.0263067
0.025581
0.0239912
0.021465
0.0179309
0.0133155
0.00753895
0.000511108
-0.00787226
-0.0177338
-0.0292184
-0.042497
-0.0577703
-0.075271
-0.0952669
-0.11806
-0.143987
-0.173413
-0.206724
-0.244315
-0.286572
-0.333852
-0.386459
-0.444608
-0.508404
-0.577802
-0.652578
-0.732298
-0.816295
-0.903725
-0.993636
-1.085
-1.17675
-1.26779
-1.35706
-1.44355
-1.52634
-1.60464
-1.67782
-1.74545
-1.80726
-1.86276
-1.91137
-1.95748
-2.0056
-2.05055
-2.08592
-2.11181
-2.13033
-2.14219
-2.14778
-2.14723
-2.14051
-2.12757
-2.10852
-2.08348
-2.05264
-2.01619
-1.97432
-1.92728
-1.87528
-1.81859
-1.75747
-1.6922
-1.62309
-1.55043
-1.47455
-1.39577
-1.31439
-1.23072
-1.14507
-1.05772
-0.968946
-0.879029
-0.788234
-0.696827
-0.605074
-0.513232
-0.42155
-0.330251
-0.239524
-0.149518
-0.0603391
0.0279436
0.115313
0.201786
0.287115
0.37114
0.457333
0.549399
0.64853
0.755107
0.868444
0.987709
1.11174
1.23911
1.36816
1.49705
1.62388
1.74679
1.86405
1.97415
2.0759
2.16842
2.25118
2.32402
2.38711
2.44103
2.48669
2.5252
2.55766
2.58504
2.60815
2.62766
2.64411
2.65796
2.66978
2.68042
2.6904
2.69982
2.70875
2.71723
2.72531
2.73303
2.7404
2.74746
2.75421
2.76066
2.7668
2.77264
2.77816
2.78336
2.78821
2.79271
2.79682
2.80054
2.80384
2.8067
2.80912
2.8111
2.81261
2.81368
2.81432
2.81455
2.8144
2.81391
2.81314
2.81213
2.81095
2.80966
2.80832
2.80699
2.80573
2.80457
2.80355
2.80271
2.80205
2.80158
2.80131
2.80122
2.80131
2.80155
2.80194
2.80246
2.80311
2.80386
2.80472
2.80569
2.80677
2.80797
2.80932
2.81084
2.81254
2.8144
2.81667
2.81903
0.00452722
0.00490195
0.00847379
0.0112131
0.0142858
0.0171193
0.0197879
0.0221237
0.0240539
0.0254702
0.0262826
0.0264016
0.0257477
0.0242466
0.0218296
0.0184301
0.01398
0.00840667
0.00162804
-0.006451
-0.0159434
-0.0269844
-0.0397365
-0.0543939
-0.071187
-0.0903862
-0.112303
-0.137291
-0.165742
-0.198077
-0.234738
-0.276166
-0.322782
-0.374961
-0.432998
-0.49708
-0.56725
-0.643373
-0.725096
-0.811784
-0.902628
-0.996756
-1.09324
-1.19118
-1.28966
-1.38775
-1.48457
-1.57922
-1.67082
-1.75842
-1.84107
-1.9178
-1.98765
-2.04961
-2.10278
-2.14565
-2.18229
-2.22051
-2.26273
-2.30524
-2.34184
-2.37086
-2.39376
-2.41102
-2.42288
-2.42948
-2.4307
-2.42636
-2.41625
-2.40021
-2.37815
-2.35003
-2.31587
-2.2758
-2.22995
-2.1785
-2.12165
-2.0596
-1.99256
-1.92074
-1.84436
-1.76367
-1.67891
-1.59036
-1.49828
-1.40295
-1.30461
-1.20352
-1.09993
-0.994127
-0.886478
-0.777422
-0.667482
-0.557219
-0.447156
-0.337685
-0.229038
-0.121603
-0.0156946
0.0921686
0.206807
0.330271
0.462861
0.603684
0.751589
0.905035
1.06217
1.22089
1.37896
1.53413
1.68419
1.82715
1.96124
2.08505
2.19753
2.29807
2.38646
2.46282
2.52753
2.58122
2.62492
2.66008
2.68835
2.71123
2.72989
2.74518
2.75775
2.7681
2.7771
2.78533
2.79288
2.79981
2.8062
2.81208
2.8175
2.82249
2.82707
2.83125
2.83505
2.83847
2.84151
2.84416
2.84642
2.84829
2.84974
2.85077
2.85136
2.85152
2.85123
2.85049
2.84931
2.84771
2.8457
2.84332
2.84062
2.83765
2.83447
2.83114
2.82774
2.82434
2.82102
2.81785
2.81488
2.81217
2.80976
2.80767
2.80592
2.80452
2.80344
2.80268
2.80221
2.802
2.80203
2.80226
2.80267
2.80324
2.80394
2.80476
2.80571
2.80678
2.80797
2.80931
2.81083
2.81253
2.8144
2.81664
2.81925
0.00548478
0.00484693
0.00854929
0.0112064
0.0142869
0.0171144
0.0197911
0.0221391
0.0240897
0.0255339
0.0263831
0.0265489
0.0259532
0.0245241
0.0221955
0.0189043
0.0145869
0.00917525
0.00259287
-0.00524979
-0.0144601
-0.0251681
-0.0375321
-0.0517437
-0.0680331
-0.0866737
-0.107985
-0.132332
-0.160125
-0.19181
-0.227861
-0.268755
-0.314958
-0.366888
-0.424891
-0.489204
-0.559917
-0.636941
-0.719945
-0.808222
-0.90085
-0.99689
-1.09531
-1.19514
-1.2954
-1.39508
-1.49333
-1.58942
-1.68273
-1.77283
-1.85942
-1.94246
-2.02199
-2.09798
-2.17024
-2.2379
-2.2999
-2.35462
-2.3992
-2.43471
-2.46756
-2.50102
-2.53475
-2.56521
-2.59004
-2.61052
-2.62712
-2.64019
-2.64997
-2.65646
-2.6595
-2.65879
-2.65392
-2.64445
-2.62982
-2.60951
-2.58298
-2.54984
-2.50977
-2.4626
-2.40829
-2.3469
-2.27854
-2.20341
-2.1217
-2.03363
-1.93942
-1.83929
-1.73349
-1.62229
-1.50589
-1.3845
-1.2583
-1.1277
-0.993543
-0.857207
-0.720315
-0.584464
-0.450697
-0.315706
-0.173343
-0.0205483
0.142856
0.315608
0.496051
0.68209
0.871309
1.06112
1.24891
1.43217
1.60861
1.77624
1.9334
2.07875
2.21129
2.33031
2.43544
2.52667
2.60442
2.66938
2.72229
2.76395
2.79559
2.81917
2.83688
2.85049
2.86113
2.86938
2.87609
2.88193
2.88695
2.89126
2.89492
2.898
2.90056
2.90262
2.90423
2.9054
2.90616
2.90651
2.90645
2.906
2.90514
2.90387
2.90219
2.90008
2.89755
2.89459
2.89121
2.88741
2.88321
2.87865
2.87375
2.86857
2.86317
2.85762
2.852
2.84638
2.84087
2.83553
2.83046
2.82571
2.82136
2.81743
2.81398
2.811
2.80851
2.8065
2.80493
2.80378
2.803
2.80256
2.80241
2.80252
2.80284
2.80334
2.804
2.8048
2.80572
2.80678
2.80797
2.8093
2.81082
2.81253
2.81439
2.8166
2.81954
0.00623199
0.00488258
0.00869329
0.011291
0.0143785
0.0172021
0.0198858
0.0222445
0.0242126
0.0256809
0.0265619
0.026768
0.0262222
0.024854
0.0225994
0.0193976
0.0151879
0.00990566
0.00347826
-0.00417987
-0.013172
-0.0236244
-0.0356923
-0.0495653
-0.0654732
-0.083691
-0.104543
-0.128401
-0.155687
-0.186863
-0.222416
-0.262848
-0.308644
-0.360248
-0.418031
-0.48226
-0.55305
-0.630362
-0.713901
-0.802884
-0.896298
-0.993238
-1.09264
-1.19361
-1.29521
-1.39635
-1.49625
-1.59415
-1.68932
-1.78111
-1.86896
-1.95261
-2.03188
-2.10667
-2.17712
-2.24356
-2.30659
-2.36671
-2.42393
-2.47814
-2.52896
-2.57484
-2.61377
-2.64887
-2.68344
-2.71681
-2.74713
-2.77287
-2.79434
-2.8116
-2.82473
-2.8339
-2.83935
-2.84159
-2.84113
-2.83836
-2.83351
-2.82652
-2.81687
-2.80364
-2.78555
-2.76113
-2.72897
-2.68797
-2.6374
-2.57676
-2.5058
-2.4244
-2.33252
-2.23024
-2.11778
-1.99548
-1.86372
-1.72279
-1.57269
-1.4133
-1.24563
-1.07351
-0.902246
-0.73127
-0.553625
-0.364694
-0.164603
0.0447913
0.260952
0.481035
0.701959
0.920775
1.13475
1.3415
1.53905
1.72579
1.90046
2.06215
2.21022
2.34425
2.464
2.56931
2.66015
2.7368
2.79999
2.85076
2.89
2.91834
2.93719
2.9493
2.95745
2.96289
2.96666
2.96948
2.97139
2.97254
2.97304
2.97297
2.9724
2.97139
2.96998
2.96819
2.96604
2.96354
2.96069
2.95747
2.95389
2.94992
2.94555
2.94078
2.93558
2.92997
2.92395
2.91754
2.91077
2.90367
2.89631
2.88876
2.88108
2.87338
2.86574
2.85825
2.85102
2.84413
2.83766
2.83168
2.82624
2.82138
2.81713
2.81348
2.81043
2.80796
2.80602
2.80458
2.80358
2.80297
2.80269
2.8027
2.80296
2.80341
2.80404
2.80482
2.80573
2.80677
2.80796
2.80929
2.8108
2.81251
2.81438
2.81654
2.81988
0.00679302
0.00500959
0.00889819
0.011458
0.0145509
0.0173729
0.0200633
0.0224319
0.0244159
0.0259059
0.0268157
0.0270582
0.0265575
0.0252441
0.0230554
0.0199325
0.0158168
0.0106461
0.00435076
-0.00315196
-0.0119621
-0.0222031
-0.0340273
-0.0476225
-0.0632175
-0.0810875
-0.101558
-0.125007
-0.151859
-0.182585
-0.217683
-0.257664
-0.303028
-0.35423
-0.411657
-0.475592
-0.546167
-0.623392
-0.707018
-0.796151
-0.889662
-0.986731
-1.08622
-1.18733
-1.28918
-1.39055
-1.4908
-1.58923
-1.68511
-1.77782
-1.86665
-1.95155
-2.0326
-2.10961
-2.18257
-2.25149
-2.31642
-2.37738
-2.43441
-2.4878
-2.53796
-2.58504
-2.62894
-2.67
-2.70804
-2.74214
-2.7739
-2.80531
-2.83579
-2.86452
-2.89109
-2.91506
-2.93643
-2.95543
-2.97136
-2.9835
-2.99166
-2.9957
-2.9956
-2.99153
-2.98383
-2.97305
-2.9597
-2.944
-2.92626
-2.90502
-2.87749
-2.83995
-2.78884
-2.7219
-2.63827
-2.53763
-2.41938
-2.2832
-2.12953
-1.95923
-1.77185
-1.56684
-1.34987
-1.12914
-0.905322
-0.670485
-0.426121
-0.174471
0.0802598
0.334517
0.584517
0.827335
1.06058
1.28264
1.49243
1.68934
1.873
2.04317
2.19968
2.34243
2.47139
2.58656
2.68793
2.77539
2.84887