/*--------------------------------*- C++ -*----------------------------------*\
| =========                 |                                                 |
| \\      /  F ield         | OpenFOAM: The Open Source CFD Toolbox           |
|  \\    /   O peration     | Version:  2406                                  |
|   \\  /    A nd           | Website:  www.openfoam.com                      |
|    \\/     M anipulation  |                                                 |
\*---------------------------------------------------------------------------*/
FoamFile
{
    version     2.0;
    format      ascii;
    arch        "LSB;label=32;scalar=64";
    class       surfaceScalarField;
    location    "1000";
    object      phi;
}
// * * * * * * * * * * * * * * * * * * * * * * * * * * * * * * * * * * * * * //

dimensions      [0 3 -1 0 0 0 0];

oriented        oriented;

internalField   nonuniform List<scalar> 
10988
(
-6.55926e-05
-3.00086e-08
-6.54388e-05
-1.5372e-07
-6.53001e-05
-1.38731e-07
-6.51852e-05
-1.14901e-07
-6.50851e-05
-1.00126e-07
-6.49974e-05
-8.76855e-08
-6.49203e-05
-7.70609e-08
-6.48538e-05
-6.65153e-08
-6.47984e-05
-5.54327e-08
-6.47552e-05
-4.32305e-08
-6.47257e-05
-2.94819e-08
-6.47118e-05
-1.38507e-08
-6.47158e-05
4.02212e-09
-6.47393e-05
2.34235e-08
-6.4783e-05
4.37685e-08
-6.48487e-05
6.56598e-08
-6.49383e-05
8.96444e-08
-6.50545e-05
1.16212e-07
-6.52005e-05
1.45948e-07
-6.538e-05
1.79506e-07
-6.55975e-05
2.17544e-07
-6.58582e-05
2.6065e-07
-6.61676e-05
3.09388e-07
-6.65319e-05
3.64347e-07
-6.69581e-05
4.26202e-07
-6.7454e-05
4.95876e-07
-6.80286e-05
5.74615e-07
-6.86925e-05
6.63863e-07
-6.94574e-05
7.64882e-07
-7.03355e-05
8.78133e-07
-7.1338e-05
1.00254e-06
-7.24729e-05
1.13491e-06
-7.37429e-05
1.26997e-06
-7.51438e-05
1.40094e-06
-7.66645e-05
1.52065e-06
-7.82871e-05
1.62263e-06
-7.99891e-05
1.70197e-06
-8.17447e-05
1.75562e-06
-8.35271e-05
1.78234e-06
-8.53094e-05
1.78237e-06
-8.70665e-05
1.75704e-06
-8.87749e-05
1.70842e-06
-9.04139e-05
1.63903e-06
-9.19656e-05
1.55163e-06
-9.34146e-05
1.44906e-06
-9.47487e-05
1.33413e-06
-9.59583e-05
1.2096e-06
-9.70364e-05
1.07806e-06
-9.79784e-05
9.41959e-07
-9.87819e-05
8.03538e-07
-9.94468e-05
6.64909e-07
-9.99748e-05
5.28023e-07
-0.000100369
3.94516e-07
-0.000100635
2.65681e-07
-0.000100778
1.42874e-07
-0.000100805
2.70402e-08
-0.000100719
-8.58628e-08
-0.000100523
-1.9655e-07
-0.000100223
-2.99648e-07
-9.98301e-05
-3.92761e-07
-9.93544e-05
-4.75703e-07
-9.88057e-05
-5.48653e-07
-9.81938e-05
-6.11989e-07
-9.75275e-05
-6.66209e-07
-9.68157e-05
-7.11878e-07
-9.6066e-05
-7.49619e-07
-9.5286e-05
-7.80089e-07
-9.4482e-05
-8.03948e-07
-9.36601e-05
-8.21867e-07
-9.28256e-05
-8.34504e-07
-9.19832e-05
-8.42479e-07
-9.11368e-05
-8.46386e-07
-9.029e-05
-8.46784e-07
-8.94458e-05
-8.44191e-07
-8.86067e-05
-8.39083e-07
-8.77748e-05
-8.31898e-07
-8.69518e-05
-8.23029e-07
-8.61389e-05
-8.12832e-07
-8.53373e-05
-8.01622e-07
-8.45476e-05
-7.89684e-07
-8.37704e-05
-7.77269e-07
-8.30058e-05
-7.64597e-07
-8.22539e-05
-7.51863e-07
-8.15147e-05
-7.39236e-07
-8.07878e-05
-7.26862e-07
-8.00729e-05
-7.14867e-07
-7.93696e-05
-7.03361e-07
-7.86771e-05
-6.92439e-07
-7.7995e-05
-6.82182e-07
-7.73223e-05
-6.72659e-07
-7.66584e-05
-6.63929e-07
-7.60023e-05
-6.56043e-07
-7.53533e-05
-6.49044e-07
-7.47103e-05
-6.42971e-07
-7.40725e-05
-6.3786e-07
-7.34387e-05
-6.33754e-07
-7.2808e-05
-6.30695e-07
-7.21793e-05
-6.28705e-07
-7.15514e-05
-6.27922e-07
-7.09225e-05
-6.28934e-07
-7.02259e-05
-6.9658e-07
-6.94594e-05
-7.66506e-07
-6.86211e-05
-8.38225e-07
-6.77107e-05
-9.10437e-07
-6.67291e-05
-9.81603e-07
-6.56792e-05
-1.04986e-06
-6.45661e-05
-1.11311e-06
-6.3397e-05
-1.16915e-06
-6.21812e-05
-1.2158e-06
-6.09301e-05
-1.25105e-06
-5.96568e-05
-1.27328e-06
-5.83755e-05
-1.28136e-06
-5.71007e-05
-1.27483e-06
-5.58468e-05
-1.2539e-06
-5.46273e-05
-1.21946e-06
-5.34543e-05
-1.17303e-06
-5.23377e-05
-1.11655e-06
-5.12855e-05
-1.05226e-06
-5.0303e-05
-9.82497e-07
-4.93934e-05
-9.09532e-07
-4.8558e-05
-8.35442e-07
-4.7796e-05
-7.62015e-07
-4.71053e-05
-6.90712e-07
-4.64826e-05
-6.22656e-07
-4.59239e-05
-5.58654e-07
-4.54247e-05
-4.99199e-07
-4.49801e-05
-4.44619e-07
-4.45848e-05
-3.95335e-07
-4.41953e-05
-3.8948e-07
-4.381e-05
-3.85317e-07
-4.3427e-05
-3.83002e-07
-4.30446e-05
-3.82443e-07
-4.2661e-05
-3.83562e-07
-4.22747e-05
-3.86269e-07
-4.18843e-05
-3.90466e-07
-4.14882e-05
-3.96052e-07
-4.10853e-05
-4.02924e-07
-4.06743e-05
-4.10968e-07
-4.02543e-05
-4.20064e-07
-3.98242e-05
-4.30077e-07
-3.93833e-05
-4.40862e-07
-3.89311e-05
-4.52254e-07
-3.8467e-05
-4.64071e-07
-3.79909e-05
-4.76107e-07
-3.75027e-05
-4.88133e-07
-3.70028e-05
-4.99894e-07
-3.64917e-05
-5.1111e-07
-3.59703e-05
-5.21473e-07
-3.54396e-05
-5.30649e-07
-3.49013e-05
-5.38283e-07
-3.43573e-05
-5.44e-07
-3.38099e-05
-5.47413e-07
-3.32618e-05
-5.48132e-07
-3.2716e-05
-5.45778e-07
-3.2176e-05
-5.39995e-07
-3.16455e-05
-5.30466e-07
-3.11286e-05
-5.16938e-07
-3.06294e-05
-4.9924e-07
-3.01521e-05
-4.77301e-07
-2.97009e-05
-4.51173e-07
-2.92798e-05
-4.21044e-07
-2.88926e-05
-3.87247e-07
-2.85423e-05
-3.50259e-07
-2.82316e-05
-3.10689e-07
-2.79624e-05
-2.6925e-07
-2.77357e-05
-2.26721e-07
-2.75518e-05
-1.8389e-07
-2.74103e-05
-1.41495e-07
-2.73101e-05
-1.00156e-07
-2.72498e-05
-6.03086e-08
-2.72277e-05
-2.21119e-08
-2.72412e-05
1.34717e-08
-2.72861e-05
4.49416e-08
-2.73597e-05
7.36302e-08
-2.74619e-05
1.02169e-07
-2.75943e-05
1.32384e-07
-2.77614e-05
1.67088e-07
-2.7972e-05
2.10676e-07
-2.8242e-05
2.69947e-07
-2.8597e-05
3.54986e-07
-2.90766e-05
4.79642e-07
-2.97374e-05
6.6082e-07
-3.06538e-05
9.16384e-07
-3.19162e-05
1.26238e-06
-3.36136e-05
1.6974e-06
-3.58577e-05
2.24409e-06
4.14231e-06
-0.000101223
-9.11857e-08
-0.000101005
-3.71589e-07
-0.000100802
-3.41517e-07
-0.000100634
-2.82969e-07
-0.000100487
-2.47194e-07
-0.000100359
-2.15876e-07
-0.000100248
-1.87875e-07
-0.000100156
-1.58796e-07
-0.000100085
-1.26907e-07
-0.000100037
-9.06818e-08
-0.000100018
-4.89795e-08
-0.000100031
-9.27994e-10
-0.000100079
5.29e-08
-0.000100167
1.11345e-07
-0.000100299
1.74984e-07
-0.000100478
2.45163e-07
-0.000100711
3.23027e-07
-0.000101005
4.09918e-07
-0.000101367
5.07382e-07
-0.000101804
6.17121e-07
-0.000102328
7.40922e-07
-0.000102948
8.80604e-07
-0.000103676
1.03794e-06
-0.000104526
1.21461e-06
-0.000105512
1.41201e-06
-0.000106647
1.6311e-06
-0.000107945
1.87202e-06
-0.000109414
2.13346e-06
-0.000111062
2.41209e-06
-0.000112886
2.70207e-06
-0.000114878
2.99479e-06
-0.000117022
3.27929e-06
-0.000119295
3.54324e-06
-0.000121669
3.7744e-06
-0.00012411
3.962e-06
-0.000126586
4.0979e-06
-0.000129061
4.17703e-06
-0.000131502
4.19742e-06
-0.00013388
4.15975e-06
-0.000136164
4.06679e-06
-0.00013833
3.92284e-06
-0.000140355
3.73325e-06
-0.00014222
3.50398e-06
-0.000143909
3.24129e-06
-0.000145412
2.9515e-06
-0.000146719
2.64082e-06
-0.000147824
2.31519e-06
-0.000148726
1.98022e-06
-0.000149425
1.64109e-06
-0.000149924
1.30253e-06
-0.000150228
9.68909e-07
-0.000150345
6.44216e-07
-0.000150282
3.31748e-07
-0.00015005
3.40767e-08
-0.000149659
-2.48774e-07
-0.000149116
-5.15426e-07
-0.000148439
-7.62751e-07
-0.000147647
-9.89239e-07
-0.000146752
-1.19387e-06
-0.000145769
-1.37625e-06
-0.000144708
-1.53661e-06
-0.000143581
-1.67563e-06
-0.000142399
-1.79423e-06
-0.000141171
-1.89355e-06
-0.000139908
-1.97489e-06
-0.000138618
-2.03964e-06
-0.000137309
-2.08922e-06
-0.000135988
-2.12509e-06
-0.000134661
-2.14868e-06
-0.000133334
-2.1614e-06
-0.000132012
-2.1646e-06
-0.000130699
-2.15956e-06
-0.000129398
-2.14748e-06
-0.000128113
-2.12947e-06
-0.000126846
-2.10656e-06
-0.000125598
-2.07969e-06
-0.000124371
-2.04969e-06
-0.000123167
-2.01733e-06
-0.000121985
-1.9833e-06
-0.000120826
-1.94819e-06
-0.000119691
-1.91255e-06
-0.000118579
-1.87683e-06
-0.000117489
-1.84145e-06
-0.000116422
-1.80676e-06
-0.000115376
-1.77307e-06
-0.00011435
-1.74064e-06
-0.000113344
-1.7097e-06
-0.000112356
-1.68044e-06
-0.000111385
-1.65303e-06
-0.00011043
-1.62759e-06
-0.000109489
-1.60424e-06
-0.000108562
-1.58308e-06
-0.000107647
-1.56419e-06
-0.000106743
-1.54764e-06
-0.000105847
-1.53347e-06
-0.000104959
-1.52175e-06
-0.000104077
-1.51254e-06
-0.0001032
-1.50587e-06
-0.000102326
-1.50187e-06
-0.000101454
-1.50068e-06
-0.000100493
-1.65828e-06
-9.94368e-05
-1.82234e-06
-9.82845e-05
-1.99057e-06
-9.7035e-05
-2.15986e-06
-9.56902e-05
-2.3264e-06
-9.42543e-05
-2.48574e-06
-9.27345e-05
-2.63293e-06
-9.11409e-05
-2.7628e-06
-8.94864e-05
-2.87027e-06
-8.77867e-05
-2.95072e-06
-8.60596e-05
-3.00042e-06
-8.43241e-05
-3.01687e-06
-8.25998e-05
-2.99908e-06
-8.09061e-05
-2.94766e-06
-7.92607e-05
-2.86483e-06
-7.76796e-05
-2.75416e-06
-7.61759e-05
-2.62027e-06
-7.47597e-05
-2.4684e-06
-7.34382e-05
-2.30402e-06
-7.22153e-05
-2.13242e-06
-7.10923e-05
-1.9584e-06
-7.00682e-05
-1.78611e-06
-6.91401e-05
-1.61891e-06
-6.83034e-05
-1.45935e-06
-6.75528e-05
-1.30926e-06
-6.68822e-05
-1.16976e-06
-6.62853e-05
-1.04148e-06
-6.5756e-05
-9.24621e-07
-6.52359e-05
-9.09588e-07
-6.4722e-05
-8.99212e-07
-6.42118e-05
-8.93273e-07
-6.37027e-05
-8.91526e-07
-6.31925e-05
-8.93729e-07
-6.26791e-05
-8.99646e-07
-6.21606e-05
-9.09037e-07
-6.1635e-05
-9.21663e-07
-6.11006e-05
-9.3727e-07
-6.0556e-05
-9.55595e-07
-5.99997e-05
-9.7635e-07
-5.94306e-05
-9.99222e-07
-5.88475e-05
-1.02387e-06
-5.82499e-05
-1.0499e-06
-5.76371e-05
-1.07689e-06
-5.70088e-05
-1.10436e-06
-5.63652e-05
-1.13177e-06
-5.57065e-05
-1.15853e-06
-5.50336e-05
-1.18399e-06
-5.43477e-05
-1.20742e-06
-5.36503e-05
-1.22806e-06
-5.29435e-05
-1.24507e-06
-5.22299e-05
-1.25758e-06
-5.15126e-05
-1.26469e-06
-5.07953e-05
-1.26549e-06
-5.0082e-05
-1.25911e-06
-4.93772e-05
-1.24471e-06
-4.86861e-05
-1.22156e-06
-4.8014e-05
-1.18907e-06
-4.73664e-05
-1.14681e-06
-4.67491e-05
-1.09462e-06
-4.61677e-05
-1.0326e-06
-4.56276e-05
-9.61162e-07
-4.51338e-05
-8.81047e-07
-4.46907e-05
-7.93326e-07
-4.4302e-05
-6.99363e-07
-4.39705e-05
-6.00757e-07
-4.3698e-05
-4.99247e-07
-4.34853e-05
-3.96584e-07
-4.33324e-05
-2.94398e-07
-4.32385e-05
-1.94036e-07
-4.32024e-05
-9.64224e-08
-4.32226e-05
-1.85808e-09
-4.32948e-05
8.57032e-08
-4.34158e-05
1.65899e-07
-4.35866e-05
2.4441e-07
-4.38088e-05
3.24364e-07
-4.40861e-05
4.09735e-07
-4.44247e-05
5.05716e-07
-4.48333e-05
6.1919e-07
-4.53224e-05
7.59063e-07
-4.59037e-05
9.36348e-07
-4.65877e-05
1.16358e-06
-4.738e-05
1.45316e-06
-4.82786e-05
1.81498e-06
-4.927e-05
2.25373e-06
-5.03162e-05
2.74358e-06
-5.13566e-05
3.28455e-06
5.21916e-06
-0.000144048
-1.77068e-07
-0.000143757
-6.61835e-07
-0.00014349
-6.08714e-07
-0.000143272
-5.0124e-07
-0.000143088
-4.31501e-07
-0.000142936
-3.67148e-07
-0.000142818
-3.05977e-07
-0.000142737
-2.40112e-07
-0.000142698
-1.66202e-07
-0.000142707
-8.14358e-08
-0.000142772
1.63747e-08
-0.000142899
1.26189e-07
-0.000143093
2.46609e-07
-0.000143361
3.79039e-07
-0.000143711
5.25155e-07
-0.000144153
6.86851e-07
-0.000144696
8.66383e-07
-0.000145352
1.06636e-06
-0.000146135
1.28953e-06
-0.000147056
1.53848e-06
-0.00014813
1.81519e-06
-0.00014937
2.12067e-06
-0.000150787
2.45447e-06
-0.000152387
2.81447e-06
-0.000154171
3.19677e-06
-0.000156136
3.59578e-06
-0.000158269
4.00458e-06
-0.00016055
4.41515e-06
-0.000162957
4.81871e-06
-0.000165461
5.20594e-06
-0.000168033
5.56697e-06
-0.000170645
5.8915e-06
-0.000173271
6.16908e-06
-0.000175886
6.38968e-06
-0.000178469
6.54441e-06
-0.000180997
6.62638e-06
-0.000183451
6.6312e-06
-0.000185811
6.55726e-06
-0.000188057
6.40566e-06
-0.00019017
6.17993e-06
-0.000192133
5.88553e-06
-0.000193929
5.52944e-06
-0.000195545
5.11964e-06
-0.000196968
4.66475e-06
-0.00019819
4.1736e-06
-0.000199205
3.65499e-06
-0.000200007
3.11747e-06
-0.000200596
2.56916e-06
-0.000200972
2.0176e-06
-0.000201139
1.46977e-06
-0.000201103
9.32084e-07
-0.000200869
4.10568e-07
-0.000200447
-9.0035e-08
-0.000199847
-5.66603e-07
-0.00019908
-1.01555e-06
-0.000198162
-1.43341e-06
-0.000197106
-1.81825e-06
-0.000195927
-2.16867e-06
-0.000194637
-2.48382e-06
-0.00019325
-2.76343e-06
-0.000191778
-3.00794e-06
-0.000190236
-3.21836e-06
-0.000188634
-3.39615e-06
-0.000186984
-3.54314e-06
-0.000185298
-3.66136e-06
-0.000183584
-3.75302e-06
-0.000181853
-3.82043e-06
-0.000180112
-3.86593e-06
-0.000178369
-3.89186e-06
-0.00017663
-3.90047e-06
-0.000174901
-3.89395e-06
-0.000173186
-3.87437e-06
-0.00017149
-3.84368e-06
-0.000169815
-3.80369e-06
-0.000168166
-3.75605e-06
-0.000166543
-3.7023e-06
-0.000164949
-3.6438e-06
-0.000163385
-3.5818e-06
-0.000161851
-3.51741e-06
-0.000160347
-3.45161e-06
-0.000158875
-3.38527e-06
-0.000157432
-3.31916e-06
-0.00015602
-3.25395e-06
-0.000154636
-3.19022e-06
-0.000153281
-3.12847e-06
-0.000151952
-3.06913e-06
-0.000150649
-3.01258e-06
-0.000149371
-2.95912e-06
-0.000148115
-2.90901e-06
-0.00014688
-2.86249e-06
-0.000145664
-2.81973e-06
-0.000144467
-2.78089e-06
-0.000143285
-2.74608e-06
-0.000142117
-2.71542e-06
-0.000140961
-2.68897e-06
-0.000139816
-2.66681e-06
-0.00013868
-2.649e-06
-0.00013755
-2.63557e-06
-0.000136426
-2.62653e-06
-0.000135304
-2.62191e-06
-0.000134068
-2.89445e-06
-0.000132712
-3.17836e-06
-0.000131233
-3.46924e-06
-0.000129632
-3.76167e-06
-0.000127909
-4.04887e-06
-0.000126072
-4.32304e-06
-0.000124129
-4.57557e-06
-0.000122095
-4.79749e-06
-0.000119985
-4.98004e-06
-0.00011782
-5.11533e-06
-0.000115624
-5.19704e-06
-0.000113419
-5.22103e-06
-0.000111233
-5.18578e-06
-0.000109088
-5.09257e-06
-0.000107007
-4.94542e-06
-0.000105011
-4.75066e-06
-0.000103115
-4.51638e-06
-0.000101331
-4.25172e-06
-9.96692e-05
-3.96612e-06
-9.81329e-05
-3.66865e-06
-9.67237e-05
-3.36758e-06
-9.54399e-05
-3.06996e-06
-9.42773e-05
-2.78149e-06
-9.32302e-05
-2.50647e-06
-9.22915e-05
-2.24794e-06
-9.14535e-05
-2.00776e-06
-9.07082e-05
-1.78683e-06
-9.00475e-05
-1.58527e-06
-8.93987e-05
-1.5584e-06
-8.87581e-05
-1.53981e-06
-8.81225e-05
-1.52892e-06
-8.74887e-05
-1.52527e-06
-8.68541e-05
-1.5284e-06
-8.62158e-05
-1.53789e-06
-8.55715e-05
-1.55332e-06
-8.49189e-05
-1.57425e-06
-8.42559e-05
-1.60026e-06
-8.35807e-05
-1.63086e-06
-8.28914e-05
-1.66558e-06
-8.21868e-05
-1.70385e-06
-8.14656e-05
-1.7451e-06
-8.07268e-05
-1.78864e-06
-7.997e-05
-1.83375e-06
-7.91947e-05
-1.87959e-06
-7.84013e-05
-1.92525e-06
-7.75901e-05
-1.96971e-06
-7.67622e-05
-2.01185e-06
-7.59192e-05
-2.05043e-06
-7.50631e-05
-2.08414e-06
-7.41966e-05
-2.11157e-06
-7.3323e-05
-2.13122e-06
-7.24461e-05
-2.14157e-06
-7.15705e-05
-2.14108e-06
-7.07014e-05
-2.12825e-06
-6.98444e-05
-2.10166e-06
-6.90059e-05
-2.06008e-06
-6.81925e-05
-2.00248e-06
-6.74112e-05
-1.92816e-06
-6.6669e-05
-1.83682e-06
-6.5973e-05
-1.72861e-06
-6.53299e-05
-1.60423e-06
-6.4746e-05
-1.4649e-06
-6.42269e-05
-1.31243e-06
-6.37772e-05
-1.14912e-06
-6.34003e-05
-9.77662e-07
-6.30985e-05
-8.01026e-07
-6.28728e-05
-6.22232e-07
-6.27231e-05
-4.44143e-07
-6.26479e-05
-2.69231e-07
-6.26449e-05
-9.9389e-08
-6.2709e-05
6.22995e-08
-6.28355e-05
2.12158e-07
-6.30217e-05
3.52063e-07
-6.32642e-05
4.86949e-07
-6.35598e-05
6.19985e-07
-6.3905e-05
7.54917e-07
-6.42954e-05
8.96137e-07
-6.47252e-05
1.04892e-06
-6.51858e-05
1.21969e-06
-6.56658e-05
1.41634e-06
-6.61506e-05
1.64843e-06
-6.66239e-05
1.92649e-06
-6.70695e-05
2.2605e-06
-6.74721e-05
2.65631e-06
-6.78124e-05
3.08391e-06
-6.80684e-05
3.54053e-06
5.38086e-06
-0.000198461
-2.71796e-07
-0.000198112
-1.01096e-06
-0.000197794
-9.25953e-07
-0.000197545
-7.5115e-07
-0.000197352
-6.24325e-07
-0.000197219
-4.99467e-07
-0.000197151
-3.74079e-07
-0.000197155
-2.36734e-07
-0.000197239
-8.22346e-08
-0.000197412
9.24354e-08
-0.000197681
2.84948e-07
-0.00019805
4.94772e-07
-0.000198527
7.24093e-07
-0.000199121
9.73223e-07
-0.000199839
1.24238e-06
-0.000200684
1.53201e-06
-0.00020166
1.84262e-06
-0.000202768
2.17478e-06
-0.000204008
2.52904e-06
-0.000205375
2.90583e-06
-0.000206865
3.30521e-06
-0.000208471
3.72672e-06
-0.000210186
4.16913e-06
-0.000212002
4.63028e-06
-0.000213912
5.10686e-06
-0.00021591
5.59436e-06
-0.000217993
6.08698e-06
-0.000220155
6.57757e-06
-0.000222394
7.05758e-06
-0.000224705
7.51691e-06
-0.000227082
7.944e-06
-0.000229517
8.32596e-06
-0.000231997
8.64917e-06
-0.000234507
8.90013e-06
-0.000237029
9.06663e-06
-0.000239542
9.13875e-06
-0.00024202
9.10969e-06
-0.000244439
8.97619e-06
-0.000246772
8.73853e-06
-0.000248992
8.4003e-06
-0.000251075
7.96787e-06
-0.000252995
7.44987e-06
-0.000254732
6.85657e-06
-0.000256267
6.19935e-06
-0.000257583
5.49019e-06
-0.00025867
4.74122e-06
-0.000259516
3.96439e-06
-0.000260118
3.17121e-06
-0.000260473
2.37251e-06
-0.000260582
1.57835e-06
-0.000260448
7.98178e-07
-0.000260079
4.10363e-08
-0.000259482
-6.86126e-07
-0.000258672
-1.37745e-06
-0.00025766
-2.02755e-06
-0.000256461
-2.63225e-06
-0.000255091
-3.18851e-06
-0.000253565
-3.69413e-06
-0.000251901
-4.14779e-06
-0.000250115
-4.5492e-06
-0.000248224
-4.899e-06
-0.000246244
-5.19866e-06
-0.00024419
-5.45031e-06
-0.000242076
-5.65656e-06
-0.000239917
-5.82042e-06
-0.000237725
-5.94515e-06
-0.000235511
-6.03417e-06
-0.000233286
-6.09095e-06
-0.000231059
-6.11894e-06
-0.000228838
-6.12153e-06
-0.00022663
-6.10196e-06
-0.000224441
-6.06332e-06
-0.000222276
-6.00851e-06
-0.00022014
-5.9402e-06
-0.000218035
-5.86089e-06
-0.000215965
-5.77281e-06
-0.00021393
-5.67802e-06
-0.000211934
-5.57835e-06
-0.000209976
-5.47544e-06
-0.000208057
-5.37075e-06
-0.000206176
-5.26557e-06
-0.000204335
-5.16102e-06
-0.00020253
-5.05809e-06
-0.000200763
-4.95764e-06
-0.000199031
-4.86041e-06
-0.000197333
-4.76702e-06
-0.000195668
-4.67802e-06
-0.000194033
-4.59388e-06
-0.000192427
-4.51498e-06
-0.000190848
-4.44163e-06
-0.000189293
-4.37412e-06
-0.000187762
-4.31266e-06
-0.00018625
-4.25742e-06
-0.000184757
-4.20855e-06
-0.00018328
-4.16616e-06
-0.000181817
-4.13034e-06
-0.000180364
-4.10114e-06
-0.000178921
-4.07863e-06
-0.000177485
-4.06277e-06
-0.000176053
-4.05355e-06
-0.000174475
-4.47265e-06
-0.000172745
-4.90878e-06
-0.000170859
-5.35511e-06
-0.000168818
-5.80312e-06
-0.000166624
-6.24231e-06
-0.000164287
-6.66057e-06
-0.000161818
-7.04456e-06
-0.000159235
-7.38046e-06
-0.00015656
-7.65483e-06
-0.000153819
-7.85564e-06
-0.000151043
-7.9734e-06
-0.000148262
-8.00201e-06
-0.000145508
-7.9395e-06
-0.000142813
-7.78824e-06
-0.000140203
-7.55475e-06
-0.000137705
-7.24911e-06
-0.000135337
-6.88401e-06
-0.000133115
-6.47361e-06
-0.000131049
-6.03246e-06
-0.000129143
-5.57449e-06
-0.000127399
-5.11221e-06
-0.000125812
-4.6563e-06
-0.000124378
-4.21529e-06
-0.000123089
-3.7956e-06
-0.000121936
-3.40166e-06
-0.000120907
-3.03616e-06
-0.000119994
-2.70034e-06
-0.000119185
-2.39429e-06
-0.000118391
-2.35243e-06
-0.000117607
-2.32314e-06
-0.000116831
-2.3055e-06
-0.000116057
-2.29879e-06
-0.000115283
-2.30229e-06
-0.000114506
-2.31535e-06
-0.000113722
-2.33731e-06
-0.000112929
-2.36749e-06
-0.000112124
-2.40522e-06
-0.000111305
-2.44977e-06
-0.00011047
-2.50038e-06
-0.000109618
-2.55622e-06
-0.000108746
-2.61635e-06
-0.000107855
-2.67977e-06
-0.000106944
-2.74535e-06
-0.000106011
-2.81183e-06
-0.000105059
-2.87781e-06
-0.000104087
-2.94178e-06
-0.000103097
-3.00203e-06
-0.00010209
-3.05673e-06
-0.000101071
-3.10392e-06
-0.000100041
-3.1415e-06
-9.90045e-05
-3.16727e-06
-9.79671e-05
-3.17901e-06
-9.69337e-05
-3.17446e-06
-9.59105e-05
-3.15146e-06
-9.49042e-05
-3.10799e-06
-9.39219e-05
-3.04231e-06
-9.29714e-05
-2.95301e-06
-9.20604e-05
-2.8392e-06
-9.11966e-05
-2.70057e-06
-9.03877e-05
-2.53752e-06
-8.96407e-05
-2.35124e-06
-8.89618e-05
-2.14376e-06
-8.83563e-05
-1.91794e-06
-8.7828e-05
-1.67742e-06
-8.73792e-05
-1.42642e-06
-8.70106e-05
-1.16963e-06
-8.6721e-05
-9.11836e-07
-8.65075e-05
-6.57677e-07
-8.63654e-05
-4.11302e-07
-8.62887e-05
-1.76116e-07
-8.62712e-05
4.47981e-08
-8.6307e-05
2.47984e-07
-8.63888e-05
4.33858e-07
-8.65083e-05
6.06455e-07
-8.66573e-05
7.68993e-07
-8.68278e-05
9.2539e-07
-8.70119e-05
1.08031e-06
-8.72023e-05
1.23934e-06
-8.73919e-05
1.40924e-06
-8.75738e-05
1.59826e-06
-8.77416e-05
1.81626e-06
-8.78892e-05
2.07401e-06
-8.80102e-05
2.38157e-06
-8.80988e-05
2.74488e-06
-8.81457e-05
3.1308e-06
-8.81361e-05
3.53092e-06
5.18898e-06
-0.000266031
-2.82571e-07
-0.000265764
-1.27817e-06
-0.000265485
-1.20539e-06
-0.000265251
-9.84919e-07
-0.000265072
-8.03352e-07
-0.000264965
-6.06463e-07
-0.00026494
-3.98508e-07
-0.000265008
-1.69581e-07
-0.000265172
8.24865e-08
-0.000265435
3.54642e-07
-0.000265793
6.43576e-07
-0.000266249
9.50706e-07
-0.000266801
1.27616e-06
-0.000267447
1.61904e-06
-0.000268183
1.97877e-06
-0.000269007
2.35558e-06
-0.000269915
2.75043e-06
-0.000270905
3.16496e-06
-0.000271977
3.60138e-06
-0.000273134
4.06214e-06
-0.000274378
4.54947e-06
-0.000275716
5.06502e-06
-0.000277156
5.60929e-06
-0.000278707
6.18129e-06
-0.000280379
6.77817e-06
-0.000282179
7.39492e-06
-0.000284117
8.02434e-06
-0.000286196
8.65688e-06
-0.000288419
9.28062e-06
-0.000290783
9.88137e-06
-0.000293282
1.04428e-05
-0.000295903
1.09471e-05
-0.00029863
1.13754e-05
-0.000301439
1.17094e-05
-0.000304305
1.19326e-05
-0.000307197
1.20311e-05
-0.000310083
1.19954e-05
-0.000312927
1.182e-05
-0.000315692
1.15042e-05
-0.000318344
1.10518e-05
-0.000320846
1.04702e-05
-0.000323166
9.77014e-06
-0.000325275
8.9649e-06
-0.000327145
8.06946e-06
-0.000328754
7.09985e-06
-0.000330086
6.07259e-06
-0.000331125
5.00412e-06
-0.000331865
3.91038e-06
-0.000332299
2.80656e-06
-0.000332427
1.70681e-06
-0.000332253
6.2445e-07
-0.000331785
-4.27481e-07
-0.000331032
-1.43864e-06
-0.000330009
-2.40064e-06
-0.000328731
-3.30592e-06
-0.000327215
-4.14823e-06
-0.000325481
-4.92281e-06
-0.000323548
-5.62633e-06
-0.000321439
-6.25689e-06
-0.000319174
-6.81403e-06
-0.000316775
-7.29856e-06
-0.000314261
-7.71246e-06
-0.000311653
-8.05864e-06
-0.000308969
-8.34073e-06
-0.000306226
-8.56296e-06
-0.000303441
-8.72991e-06
-0.000300629
-8.84641e-06
-0.000297803
-8.9174e-06
-0.000294974
-8.94779e-06
-0.000292153
-8.9424e-06
-0.000289349
-8.90586e-06
-0.00028657
-8.84256e-06
-0.000283822
-8.75665e-06
-0.00028111
-8.65194e-06
-0.000278439
-8.53197e-06
-0.000275812
-8.39994e-06
-0.000273231
-8.25877e-06
-0.000270698
-8.11104e-06
-0.000268214
-7.95909e-06
-0.00026578
-7.80498e-06
-0.000263395
-7.65051e-06
-0.000261059
-7.49727e-06
-0.00025877
-7.34665e-06
-0.000256528
-7.19984e-06
-0.000254331
-7.05788e-06
-0.000252176
-6.92163e-06
-0.000250062
-6.79186e-06
-0.000247987
-6.6692e-06
-0.000245948
-6.55418e-06
-0.000243942
-6.44724e-06
-0.000241968
-6.34875e-06
-0.000240021
-6.259e-06
-0.0002381
-6.17823e-06
-0.000236202
-6.10662e-06
-0.000234324
-6.04431e-06
-0.000232463
-5.99141e-06
-0.000230616
-5.94798e-06
-0.000228781
-5.91407e-06
-0.000226954
-5.88965e-06
-0.000225133
-5.87469e-06
-0.000223125
-6.48005e-06
-0.000220925
-7.10939e-06
-0.000218527
-7.75287e-06
-0.000215932
-8.39801e-06
-0.000213145
-9.02955e-06
-0.000210176
-9.62985e-06
-0.000207041
-1.01795e-05
-0.000203763
-1.06585e-05
-0.00020037
-1.10474e-05
-0.000196897
-1.13288e-05
-0.000193381
-1.14892e-05
-0.000189863
-1.152e-05
-0.000186384
-1.14189e-05
-0.000182982
-1.11896e-05
-0.000179695
-1.08422e-05
-0.000176552
-1.03917e-05
-0.000173579
-9.85693e-06
-0.000170794
-9.25858e-06
-0.000168209
-8.61782e-06
-0.000165829
-7.95475e-06
-0.000163654
-7.28735e-06
-0.000161679
-6.63078e-06
-0.000159897
-5.9971e-06
-0.000158298
-5.39526e-06
-0.000156868
-4.83136e-06
-0.000155595
-4.30903e-06
-0.000154466
-3.82983e-06
-0.000153466
-3.39373e-06
-0.000152486
-3.33238e-06
-0.00015152
-3.28898e-06
-0.000150564
-3.26211e-06
-0.000149612
-3.25071e-06
-0.00014866
-3.25374e-06
-0.000147705
-3.27023e-06
-0.000146744
-3.29921e-06
-0.000145771
-3.33971e-06
-0.000144786
-3.39074e-06
-0.000143784
-3.45125e-06
-0.000142765
-3.52012e-06
-0.000141725
-3.59615e-06
-0.000140663
-3.67802e-06
-0.000139579
-3.76427e-06
-0.000138471
-3.85329e-06
-0.000137339
-3.94329e-06
-0.000136185
-4.03232e-06
-0.000135008
-4.11821e-06
-0.000133812
-4.19861e-06
-0.000132597
-4.27097e-06
-0.000131369
-4.33256e-06
-0.00013013
-4.38052e-06
-0.000128885
-4.41186e-06
-0.000127641
-4.42357e-06
-0.000126402
-4.41267e-06
-0.000125177
-4.3763e-06
-0.000123974
-4.31186e-06
-0.000122799
-4.21717e-06
-0.000121661
-4.09054e-06
-0.000120569
-3.93102e-06
-0.000119531
-3.73849e-06
-0.000118555
-3.51382e-06
-0.000117647
-3.25894e-06
-0.000116814
-2.97693e-06
-0.00011606
-2.67199e-06
-0.000115388
-2.3493e-06
-0.0001148
-2.01484e-06
-0.000114294
-1.67513e-06
-0.000113869
-1.33683e-06
-0.000113521
-1.00632e-06
-0.000113243
-6.89334e-07
-0.000113028
-3.90566e-07
-0.00011287
-1.13463e-07
-0.000112761
1.39388e-07
-0.000112695
3.67269e-07
-0.000112661
5.72751e-07
-0.000112652
7.59853e-07
-0.00011266
9.33151e-07
-0.000112678
1.09809e-06
-0.000112699
1.26103e-06
-0.000112719
1.42934e-06
-0.000112733
1.61166e-06
-0.000112734
1.81787e-06
-0.000112719
2.05835e-06
-0.00011268
2.34261e-06
-0.000112611
2.67658e-06
-0.000112506
3.02538e-06
-0.000112351
3.3758e-06
4.81165e-06
-0.000344485
4.25266e-08
-0.000344738
-1.02586e-06
-0.000344812
-1.13111e-06
-0.000344773
-1.02388e-06
-0.000344653
-9.23672e-07
-0.000344499
-7.60011e-07
-0.000344348
-5.49553e-07
-0.000344227
-2.91065e-07
-0.000344153
8.55988e-09
-0.00034414
3.41785e-07
-0.000344197
7.00786e-07
-0.000344329
1.08288e-06
-0.00034454
1.48707e-06
-0.000344833
1.91221e-06
-0.000345213
2.35809e-06
-0.000345683
2.82566e-06
-0.000346249
3.31699e-06
-0.00034692
3.83511e-06
-0.000347702
4.38368e-06
-0.000348606
4.96657e-06
-0.000349644
5.58728e-06
-0.000350827
6.24843e-06
-0.000352169
6.95104e-06
-0.000353682
7.69408e-06
-0.000355378
8.47397e-06
-0.000357267
9.28421e-06
-0.000359358
1.01152e-05
-0.000361655
1.0954e-05
-0.000364159
1.17844e-05
-0.000366865
1.25873e-05
-0.000369763
1.33406e-05
-0.000372836
1.40204e-05
-0.000376062
1.46019e-05
-0.000379414
1.5061e-05
-0.000382857
1.53755e-05
-0.000386353
1.55271e-05
-0.00038986
1.55022e-05
-0.000393332
1.52928e-05
-0.000396725
1.48968e-05
-0.000399991
1.43178e-05
-0.000403085
1.35645e-05
-0.000405965
1.26503e-05
-0.000408593
1.1592e-05
-0.000410932
1.04091e-05
-0.000412955
9.12276e-06
-0.000414638
7.75501e-06
-0.000415961
6.32798e-06
-0.000416914
4.86326e-06
-0.000417489
3.38148e-06
-0.000417684
1.90194e-06
-0.000417503
4.4269e-07
-0.000416951
-9.78609e-07
-0.000416043
-2.34753e-06
-0.000414791
-3.65224e-06
-0.000413215
-4.88194e-06
-0.000411336
-6.02747e-06
-0.000409177
-7.08171e-06
-0.000406763
-8.03963e-06
-0.000404122
-8.8983e-06
-0.000401279
-9.6568e-06
-0.000398262
-1.0316e-05
-0.000395096
-1.08784e-05
-0.000391807
-1.13477e-05
-0.000388419
-1.17289e-05
-0.000384954
-1.20276e-05
-0.000381434
-1.22501e-05
-0.000377877
-1.24029e-05
-0.000374302
-1.24929e-05
-0.000370723
-1.25269e-05
-0.000367154
-1.25116e-05
-0.000363606
-1.24533e-05
-0.00036009
-1.23583e-05
-0.000356615
-1.22322e-05
-0.000353186
-1.20805e-05
-0.00034981
-1.1908e-05
-0.000346491
-1.17192e-05
-0.000343232
-1.15181e-05
-0.000340035
-1.13084e-05
-0.0003369
-1.10932e-05
-0.00033383
-1.08755e-05
-0.000330823
-1.06577e-05
-0.000327878
-1.0442e-05
-0.000324994
-1.02303e-05
-0.00032217
-1.00242e-05
-0.000319403
-9.82513e-06
-0.00031669
-9.63426e-06
-0.000314029
-9.45262e-06
-0.000311417
-9.28103e-06
-0.000308851
-9.12022e-06
-0.000306328
-8.97075e-06
-0.000303844
-8.83312e-06
-0.000301395
-8.70769e-06
-0.000298978
-8.59477e-06
-0.00029659
-8.4946e-06
-0.000294227
-8.40732e-06
-0.000291886
-8.33307e-06
-0.000289562
-8.27192e-06
-0.000287252
-8.22387e-06
-0.000284953
-8.18892e-06
-0.00028266
-8.16702e-06
-0.000280133
-9.00718e-06
-0.000277363
-9.88e-06
-0.000274344
-1.07718e-05
-0.000271077
-1.16651e-05
-0.000267567
-1.25387e-05
-0.000263829
-1.33679e-05
-0.000259883
-1.41257e-05
-0.000255758
-1.47842e-05
-0.000251489
-1.53162e-05
-0.00024712
-1.56979e-05
-0.000242698
-1.59104e-05
-0.000238276
-1.59421e-05
-0.000233905
-1.57899e-05
-0.000229635
-1.54598e-05
-0.000225511
-1.4966e-05
-0.000221573
-1.43302e-05
-0.000217851
-1.35789e-05
-0.000214368
-1.27413e-05
-0.000211139
-1.18472e-05
-0.000208169
-1.09244e-05
-0.000205459
-9.99787e-06
-0.000203001
-9.08838e-06
-0.000200786
-8.21238e-06
-0.000198799
-7.38192e-06
-0.000197025
-6.60513e-06
-0.000195448
-5.88669e-06
-0.000194049
-5.22851e-06
-0.000192812
-4.63034e-06
-0.000191601
-4.544e-06
-0.000190407
-4.48233e-06
-0.000189226
-4.44328e-06
-0.000188052
-4.42531e-06
-0.000186878
-4.42696e-06
-0.000185702
-4.44687e-06
-0.000184517
-4.48368e-06
-0.000183321
-4.53603e-06
-0.000182109
-4.60253e-06
-0.000180879
-4.68173e-06
-0.000179627
-4.77206e-06
-0.000178351
-4.87186e-06
-0.00017705
-4.97929e-06
-0.000175722
-5.09235e-06
-0.000174366
-5.20884e-06
-0.000172983
-5.32633e-06
-0.000171573
-5.44215e-06
-0.000170138
-5.55338e-06
-0.00016868
-5.65686e-06
-0.000167202
-5.74919e-06
-0.000165707
-5.82675e-06
-0.000164202
-5.88578e-06
-0.000162692
-5.92237e-06
-0.000161183
-5.93264e-06
-0.000159682
-5.91276e-06
-0.0001582
-5.85916e-06
-0.000156743
-5.76862e-06
-0.000155321
-5.63851e-06
-0.000153945
-5.46695e-06
-0.000152623
-5.25301e-06
-0.000151365
-4.99689e-06
-0.000150178
-4.70012e-06
-0.000149072
-4.36558e-06
-0.000148051
-3.99765e-06
-0.000147121
-3.60207e-06
-0.000146284
-3.18583e-06
-0.000145542
-2.75689e-06
-0.000144894
-2.32379e-06
-0.000144335
-1.89521e-06
-0.000143862
-1.47943e-06
-0.000143468
-1.08382e-06
-0.000143144
-7.14401e-07
-0.000142882
-3.75513e-07
-0.000142673
-6.96349e-08
-0.000142508
2.02498e-07
-0.000142378
4.42789e-07
-0.000142274
6.55596e-07
-0.000142187
8.46341e-07
-0.00014211
1.02136e-06
-0.000142037
1.18785e-06
-0.000141962
1.35388e-06
-0.000141878
1.52845e-06
-0.000141782
1.72147e-06
-0.000141667
1.94289e-06
-0.000141526
2.2017e-06
-0.000141353
2.50373e-06
-0.00014114
2.81222e-06
-0.000140878
3.11448e-06
4.29787e-06
-0.000428112
8.5868e-07
-0.000429225
8.65249e-08
-0.000430047
-3.08852e-07
-0.000430606
-4.65093e-07
-0.000430903
-6.26154e-07
-0.000430987
-6.7604e-07
-0.000430909
-6.27417e-07
-0.000430725
-4.75605e-07
-0.000430484
-2.31962e-07
-0.000430234
9.1452e-08
-0.000430013
4.79682e-07
-0.00042985
9.19971e-07
-0.000429767
1.40365e-06
-0.000429779
1.92496e-06
-0.000429902
2.48065e-06
-0.000430146
3.06997e-06
-0.000430524
3.6943e-06
-0.000431045
4.35671e-06
-0.000431723
5.06138e-06
-0.000432569
5.81295e-06
-0.000433598
6.61572e-06
-0.000434822
7.47301e-06