/*--------------------------------*- C++ -*----------------------------------*\
| =========                 |                                                 |
| \\      /  F ield         | OpenFOAM: The Open Source CFD Toolbox           |
|  \\    /   O peration     | Version:  2406                                  |
|   \\  /    A nd           | Website:  www.openfoam.com                      |
|    \\/     M anipulation  |                                                 |
\*---------------------------------------------------------------------------*/
FoamFile
{
    version     2.0;
    format      ascii;
    arch        "LSB;label=32;scalar=64";
    class       volScalarField;
    location    "1000";
    object      T;
}
// * * * * * * * * * * * * * * * * * * * * * * * * * * * * * * * * * * * * * //

dimensions      [0 0 0 1 0 0 0];

internalField   nonuniform List<scalar> 
5619
(
293.621
293.457
293.408
293.355
293.328
293.298
293.279
293.259
293.242
293.226
293.211
293.198
293.187
293.178
293.172
293.167
293.163
293.16
293.158
293.156
293.155
293.154
293.153
293.152
293.152
293.151
293.151
293.151
293.15
293.15
293.15
293.15
293.15
293.15
293.15
293.15
293.15
293.15
293.15
293.15
293.15
293.15
293.15
293.15
293.15
293.15
293.15
293.15
293.15
293.15
293.15
293.15
293.15
293.15
293.15
293.15
293.15
293.15
293.15
293.15
293.15
293.15
293.15
293.15
293.15
293.15
293.15
293.15
293.15
293.15
293.15
293.15
293.15
293.15
293.15
293.15
293.15
293.15
293.15
293.15
293.15
293.15
293.15
293.15
293.15
293.15
293.15
293.15
293.15
293.15
293.15
293.15
293.15
293.15
293.15
293.15
293.15
293.15
293.15
293.15
293.15
293.15
293.15
293.15
293.15
293.15
293.15
293.15
293.15
293.15
293.15
293.15
293.15
293.15
293.15
293.15
293.15
293.15
293.15
293.15
293.15
293.15
293.15
293.15
293.15
293.15
293.15
293.15
293.15
293.15
293.15
293.15
293.15
293.15
293.15
293.15
293.15
293.15
293.15
293.15
293.15
293.15
293.15
293.15
293.15
293.15
293.15
293.15
293.15
293.15
293.15
293.15
293.15
293.15
293.15
293.15
293.15
293.15
293.15
293.15
293.15
293.15
293.15
293.15
293.15
293.15
293.15
293.15
293.15
293.15
293.15
293.15
293.15
293.15
293.15
293.15
293.15
293.15
293.15
293.15
293.15
293.15
293.15
293.15
293.15
293.15
293.15
293.741
293.536
293.475
293.408
293.373
293.336
293.313
293.288
293.268
293.248
293.231
293.214
293.201
293.19
293.182
293.175
293.17
293.166
293.163
293.16
293.158
293.156
293.155
293.154
293.153
293.152
293.152
293.151
293.151
293.151
293.151
293.151
293.15
293.15
293.15
293.15
293.15
293.15
293.15
293.15
293.15
293.15
293.15
293.15
293.15
293.15
293.15
293.15
293.15
293.15
293.15
293.15
293.15
293.15
293.15
293.15
293.15
293.15
293.15
293.15
293.15
293.15
293.15
293.15
293.15
293.15
293.15
293.15
293.15
293.15
293.15
293.15
293.15
293.15
293.15
293.15
293.15
293.15
293.15
293.15
293.15
293.15
293.15
293.15
293.15
293.15
293.15
293.15
293.15
293.15
293.15
293.15
293.15
293.15
293.15
293.15
293.15
293.15
293.15
293.15
293.15
293.15
293.15
293.15
293.15
293.15
293.15
293.15
293.15
293.15
293.15
293.15
293.15
293.15
293.15
293.15
293.15
293.15
293.15
293.15
293.15
293.15
293.15
293.15
293.15
293.15
293.15
293.15
293.15
293.15
293.15
293.15
293.15
293.15
293.15
293.15
293.15
293.15
293.15
293.15
293.15
293.15
293.15
293.15
293.15
293.15
293.15
293.15
293.15
293.15
293.15
293.15
293.15
293.15
293.15
293.15
293.15
293.15
293.15
293.15
293.15
293.15
293.15
293.15
293.15
293.15
293.15
293.15
293.15
293.15
293.15
293.15
293.15
293.15
293.15
293.15
293.15
293.15
293.15
293.15
293.15
293.15
293.15
293.15
293.15
293.15
293.15
293.968
293.692
293.606
293.511
293.461
293.409
293.377
293.344
293.317
293.291
293.268
293.247
293.229
293.214
293.202
293.193
293.185
293.179
293.173
293.169
293.166
293.163
293.161
293.159
293.157
293.156
293.155
293.154
293.154
293.153
293.153
293.152
293.152
293.152
293.151
293.151
293.151
293.151
293.151
293.151
293.15
293.15
293.15
293.15
293.15
293.15
293.15
293.15
293.15
293.15
293.15
293.15
293.15
293.15
293.15
293.15
293.15
293.15
293.15
293.15
293.15
293.15
293.15
293.15
293.15
293.15
293.15
293.15
293.15
293.15
293.15
293.15
293.15
293.15
293.15
293.15
293.15
293.15
293.15
293.15
293.15
293.15
293.15
293.15
293.15
293.15
293.15
293.15
293.15
293.15
293.15
293.15
293.15
293.15
293.15
293.15
293.15
293.15
293.15
293.15
293.15
293.15
293.15
293.15
293.15
293.15
293.15
293.15
293.15
293.15
293.15
293.15
293.15
293.15
293.15
293.15
293.15
293.15
293.15
293.15
293.15
293.15
293.15
293.15
293.15
293.15
293.15
293.15
293.15
293.15
293.15
293.15
293.15
293.15
293.15
293.15
293.15
293.15
293.15
293.15
293.15
293.15
293.15
293.15
293.15
293.15
293.15
293.15
293.15
293.15
293.15
293.15
293.15
293.15
293.15
293.15
293.15
293.15
293.15
293.15
293.15
293.15
293.15
293.15
293.15
293.15
293.15
293.15
293.15
293.15
293.15
293.15
293.15
293.15
293.15
293.15
293.15
293.15
293.15
293.15
293.15
293.15
293.15
293.15
293.15
293.15
293.15
294.417
294.01
293.876
293.726
293.643
293.559
293.509
293.457
293.419
293.38
293.347
293.316
293.291
293.268
293.25
293.235
293.222
293.212
293.203
293.195
293.189
293.184
293.179
293.176
293.173
293.17
293.168
293.166
293.164
293.162
293.161
293.16
293.158
293.157
293.156
293.156
293.155
293.154
293.154
293.153
293.153
293.152
293.152
293.151
293.151
293.151
293.151
293.15
293.15
293.15
293.15
293.15
293.15
293.15
293.15
293.15
293.15
293.15
293.15
293.15
293.15
293.15
293.15
293.15
293.15
293.15
293.15
293.15
293.15
293.15
293.15
293.15
293.15
293.15
293.15
293.15
293.15
293.15
293.15
293.15
293.15
293.15
293.15
293.15
293.15
293.15
293.15
293.15
293.15
293.15
293.15
293.15
293.15
293.15
293.15
293.15
293.15
293.15
293.15
293.15
293.15
293.15
293.15
293.15
293.15
293.15
293.15
293.15
293.15
293.15
293.15
293.15
293.15
293.15
293.15
293.15
293.15
293.15
293.15
293.15
293.15
293.15
293.15
293.15
293.15
293.15
293.15
293.15
293.15
293.15
293.15
293.15
293.15
293.15
293.15
293.15
293.15
293.15
293.15
293.15
293.15
293.15
293.15
293.15
293.15
293.15
293.15
293.15
293.15
293.15
293.15
293.15
293.15
293.15
293.15
293.15
293.15
293.15
293.15
293.15
293.15
293.15
293.15
293.15
293.15
293.15
293.15
293.15
293.15
293.15
293.15
293.15
293.15
293.15
293.15
293.15
293.15
293.15
293.15
293.15
293.15
293.15
293.15
293.15
293.15
293.15
293.15
295.302
294.681
294.456
294.199
294.042
293.891
293.798
293.706
293.641
293.576
293.525
293.475
293.435
293.397
293.367
293.34
293.318
293.298
293.281
293.266
293.253
293.242
293.233
293.224
293.217
293.21
293.204
293.199
293.194
293.189
293.185
293.181
293.178
293.175
293.172
293.17
293.167
293.165
293.163
293.161
293.16
293.158
293.157
293.156
293.155
293.154
293.153
293.152
293.152
293.151
293.151
293.151
293.15
293.15
293.15
293.15
293.15
293.15
293.15
293.15
293.15
293.15
293.15
293.15
293.15
293.15
293.15
293.15
293.15
293.15
293.15
293.15
293.15
293.15
293.15
293.15
293.15
293.15
293.15
293.15
293.15
293.15
293.15
293.15
293.15
293.15
293.15
293.15
293.15
293.15
293.15
293.15
293.15
293.15
293.15
293.15
293.15
293.15
293.15
293.15
293.15
293.15
293.15
293.15
293.15
293.15
293.15
293.15
293.15
293.15
293.15
293.15
293.15
293.15
293.15
293.15
293.15
293.15
293.15
293.15
293.15
293.15
293.15
293.15
293.15
293.15
293.15
293.15
293.15
293.15
293.15
293.15
293.15
293.15
293.15
293.15
293.15
293.15
293.15
293.15
293.15
293.15
293.15
293.15
293.15
293.15
293.15
293.15
293.15
293.15
293.15
293.15
293.15
293.15
293.15
293.15
293.15
293.15
293.15
293.15
293.15
293.15
293.15
293.15
293.15
293.15
293.15
293.15
293.15
293.15
293.15
293.15
293.15
293.15
293.15
293.15
293.15
293.15
293.15
293.15
293.15
293.15
293.15
293.15
293.15
293.15
293.15
296.804
295.967
295.626
295.213
294.91
294.632
294.436
294.256
294.127
294.004
293.909
293.818
293.745
293.675
293.619
293.567
293.524
293.484
293.451
293.421
293.396
293.374
293.354
293.337
293.321
293.306
293.293
293.281
293.269
293.259
293.249
293.241
293.233
293.226
293.22
293.214
293.208
293.202
293.197
293.192
293.187
293.182
293.178
293.174
293.171
293.167
293.164
293.162
293.159
293.157
293.156
293.154
293.153
293.152
293.152
293.151
293.151
293.151
293.15
293.15
293.15
293.15
293.15
293.15
293.15
293.15
293.15
293.15
293.15
293.15
293.15
293.15
293.15
293.15
293.15
293.15
293.15
293.15
293.15
293.15
293.15
293.15
293.15
293.15
293.15
293.15
293.15
293.15
293.15
293.15
293.15
293.15
293.15
293.15
293.15
293.15
293.15
293.15
293.15
293.15
293.15
293.15
293.15
293.15
293.15
293.15
293.15
293.15
293.15
293.15
293.15
293.15
293.15
293.15
293.15
293.15
293.15
293.15
293.15
293.15
293.15
293.15
293.15
293.15
293.15
293.15
293.15
293.15
293.15
293.15
293.15
293.15
293.15
293.15
293.15
293.15
293.15
293.15
293.15
293.15
293.15
293.15
293.15
293.15
293.15
293.15
293.15
293.15
293.15
293.15
293.15
293.15
293.15
293.15
293.15
293.15
293.15
293.15
293.15
293.15
293.15
293.15
293.15
293.15
293.15
293.15
293.15
293.15
293.15
293.15
293.15
293.15
293.15
293.15
293.15
293.15
293.15
293.15
293.15
293.15
293.15
293.15
293.15
293.15
293.15
293.15
293.15
298.697
297.818
297.424
296.917
296.467
296.044
295.687
295.366
295.105
294.871
294.681
294.508
294.366
294.236
294.128
294.029
293.947
293.873
293.811
293.757
293.712
293.674
293.639
293.606
293.575
293.547
293.522
293.497
293.475
293.454
293.437
293.422
293.408
293.395
293.383
293.372
293.359
293.347
293.334
293.321
293.308
293.295
293.283
293.271
293.259
293.248
293.236
293.225
293.214
293.203
293.193
293.184
293.177
293.171
293.166
293.162
293.159
293.157
293.155
293.153
293.152
293.152
293.151
293.151
293.151
293.15
293.15
293.15
293.15
293.15
293.15
293.15
293.15
293.15
293.15
293.15
293.15
293.15
293.15
293.15
293.15
293.15
293.15
293.15
293.15
293.15
293.15
293.15
293.15
293.15
293.15
293.15
293.15
293.15
293.15
293.15
293.15
293.15
293.15
293.15
293.15
293.15
293.15
293.15
293.15
293.15
293.15
293.15
293.15
293.15
293.15
293.15
293.15
293.15
293.15
293.15
293.15
293.15
293.15
293.15
293.15
293.15
293.15
293.15
293.15
293.15
293.15
293.15
293.15
293.15
293.15
293.15
293.15
293.15
293.15
293.15
293.15
293.15
293.15
293.15
293.15
293.15
293.15
293.15
293.15
293.15
293.15
293.15
293.15
293.15
293.15
293.15
293.15
293.15
293.15
293.15
293.15
293.15
293.15
293.15
293.15
293.15
293.15
293.15
293.15
293.15
293.15
293.15
293.15
293.15
293.15
293.15
293.15
293.15
293.15
293.15
293.15
293.15
293.15
293.15
293.15
293.15
293.15
293.15
293.15
293.15
293.15
300.774
300.031
299.677
299.198
298.724
298.253
297.797
297.359
296.954
296.578
296.244
295.94
295.675
295.439
295.234
295.054
294.899
294.763
294.65
294.555
294.486
294.428
294.369
294.308
294.25
294.2
294.158
294.119
294.084
294.054
294.044
294.033
294.019
294.005
294.002
293.996
293.992
293.98
293.96
293.931
293.91
293.888
293.864
293.844
293.817
293.804
293.761
293.72
293.669
293.621
293.562
293.505
293.449
293.397
293.352
293.316
293.286
293.26
293.237
293.217
293.201
293.188
293.177
293.169
293.163
293.159
293.156
293.154
293.153
293.152
293.152
293.151
293.151
293.151
293.15
293.15
293.15
293.15
293.15
293.15
293.15
293.15
293.15
293.15
293.15
293.15
293.15
293.15
293.15
293.15
293.15
293.15
293.15
293.15
293.15
293.15
293.15
293.15
293.15
293.15
293.15
293.15
293.15
293.15
293.15
293.15
293.15
293.15
293.15
293.15
293.15
293.15
293.15
293.15
293.15
293.15
293.15
293.15
293.15
293.15
293.15
293.15
293.15
293.15
293.15
293.15
293.15
293.15
293.15
293.15
293.15
293.15
293.15
293.15
293.15
293.15
293.15
293.15
293.15
293.15
293.15
293.15
293.15
293.15
293.15
293.15
293.15
293.15
293.15
293.15
293.15
293.15
293.15
293.15
293.15
293.15
293.15
293.15
293.15
293.15
293.15
293.15
293.15
293.15
293.15
293.15
293.15
293.15
293.15
293.15
293.15
293.15
293.15
293.15
293.15
293.15
293.15
293.15
293.15
293.15
293.15
293.15
293.15
293.15
293.15
293.15
293.15
303.032
302.545
302.297
301.953
301.597
301.222
300.831
300.427
300.015
299.6
299.19
298.79
298.405
298.043
297.708
297.402
297.129
296.886
296.676
296.5
296.362
296.271
296.187
296.12
296.036
295.959
295.896
295.865
295.842
295.833
295.833
295.829
295.849
295.905
295.969
296.055
296.147
296.245
296.346
296.446
296.547
296.647
296.742
296.831
296.927
297.039
297.153
297.217
297.206
297.118
296.956
296.725
296.466
296.197
295.936
295.699
295.487
295.264
295.037
294.802
294.569
294.339
294.12
293.919
293.739
293.585
293.459
293.363
293.298
293.267
293.242
293.221
293.204
293.191
293.18
293.171
293.165
293.16
293.157
293.154
293.152
293.151
293.151
293.15
293.15
293.15
293.15
293.15
293.15
293.15
293.15
293.15
293.15
293.15
293.15
293.15
293.15
293.15
293.15
293.15
293.15
293.15
293.15
293.15
293.15
293.15
293.15
293.15
293.15
293.15
293.15
293.15
293.15
293.15
293.15
293.15
293.15
293.15
293.15
293.15
293.15
293.15
293.15
293.15
293.15
293.15
293.15
293.15
293.15
293.15
293.15
293.15
293.15
293.15
293.15
293.15
293.15
293.15
293.15
293.15
293.15
293.15
293.15
293.15
293.15
293.15
293.15
293.15
293.15
293.15
293.15
293.15
293.15
293.15
293.15
293.15
293.15
293.15
293.15
293.15
293.15
293.15
293.15
293.15
293.15
293.15
293.15
293.15
293.15
293.15
293.15
293.15
293.15
293.15
293.15
293.15
293.15
293.15
293.15
293.15
293.15
293.15
293.15
293.15
293.15
293.15
293.15
305.387
305.189
305.08
304.922
304.755
304.573
304.376
304.162
303.928
303.676
303.408
303.124
302.825
302.515
302.199
301.884
301.578
301.285
301.018
300.783
300.589
300.446
300.36
300.263
300.184
300.144
300.134
300.182
300.322
300.459
300.634
300.839
301.081
301.361
301.679
302.031
302.411
302.808
303.214
303.619
304.015
304.398
304.761
305.098
305.415
305.71
305.974
306.193
306.349
306.417
306.447
306.449
306.371
306.233
306.084
305.834
305.615
305.294
304.969
304.588
304.155
303.702
303.187
302.667
302.097
301.528
300.929
300.332
299.721
299.105
298.495
297.903
297.332
296.785
296.265
295.774
295.313
294.881
294.481
294.131
293.838
293.599
293.415
293.285
293.215
293.186
293.179
293.171
293.166
293.162
293.159
293.156
293.154
293.153
293.152
293.151
293.151
293.15
293.15
293.15
293.15
293.15
293.15
293.15
293.15
293.15
293.15
293.15
293.15
293.15
293.15
293.15
293.15
293.15
293.15
293.15
293.15
293.15
293.15
293.15
293.15
293.15
293.15
293.15
293.15
293.15
293.15
293.15
293.15
293.15
293.15
293.15
293.15
293.15
293.15
293.15
293.15
293.15
293.15
293.15
293.15
293.15
293.15
293.15
293.15
293.15
293.15
293.15
293.15
293.15
293.15
293.15
293.15
293.15
293.15
293.15
293.15
293.15
293.15
293.15
293.15
293.15
293.15
293.15
293.15
293.15
293.15
293.15
293.15
293.15
293.15
293.15
293.15
293.15
293.15
293.15
293.15
293.15
293.15
293.15
293.15
293.15
293.15
293.15
293.15
293.15
293.15
307.655
307.713
307.735
307.753
307.76
307.766
307.76
307.77
307.754
307.724
307.693
307.653
307.605
307.546
307.475
307.395
307.307
307.217
307.129
307.047
306.988
306.959
306.939
306.923
307.016
307.118
307.278
307.483
307.733
308.022
308.352
308.722
309.131
309.579
310.063
310.579
311.12
311.677
312.242
312.807
313.363
313.905
314.426
314.922
315.387
315.822
316.218
316.551
316.837
317.063
317.241
317.366
317.447
317.482
317.491
317.429
317.369
317.223
317.091
316.866
316.67
316.369
316.097
315.715
315.356
314.892
314.434
313.888
313.33
312.712
312.079
311.398
310.701
309.964
309.217
308.438
307.656
306.851
306.046
305.218
304.383
303.529
302.674
301.815
300.964
300.125
299.316
298.594
297.93
297.29
296.696
296.133
295.61
295.12
294.667
294.249
293.89
293.605
293.388
293.252
293.19
293.17
293.165
293.159
293.156
293.153
293.151
293.15
293.15
293.15
293.15
293.15
293.15
293.15
293.15
293.15
293.15
293.15
293.15
293.15
293.15
293.15
293.15
293.15
293.15
293.15
293.15
293.15
293.15
293.15
293.15
293.15
293.15
293.15
293.15
293.15
293.15
293.15
293.15
293.15
293.15
293.15
293.15
293.15
293.15
293.15
293.15
293.15
293.15
293.15
293.15
293.15
293.15
293.15
293.15
293.15
293.15
293.15
293.15
293.15
293.15
293.15
293.15
293.15
293.15
293.15
293.15
293.15
293.15
293.15
293.15
293.15
293.15
293.15
293.15
293.15
293.15
293.15
293.15
293.15
293.15
293.15
293.15
293.15
293.15
293.15
293.15
309.67
309.938
310.06
310.21
310.359
310.506
310.65
310.793
310.931
311.07
311.21
311.351
311.493
311.635
311.776
311.917
312.06
312.204
312.354
312.507
312.675
312.85
313.044
313.254
313.494
313.756
314.048
314.366
314.712
315.087
315.49
315.921
316.379
316.861
317.361
317.868
318.364
318.842
319.288
319.693
320.053
320.363
320.627
320.844
321.023
321.166
321.283
321.392
321.48
321.561
321.627
321.686
321.736
321.775
321.805
321.826
321.838
321.847
321.821
321.811
321.771
321.737
321.675
321.622
321.538
321.461
321.35
321.248
321.11
320.982
320.812
320.652
320.445
320.248
319.995
319.754
319.451
319.157
318.799
318.441
318.018
317.584
317.084
316.56
315.968
315.339
314.639
313.894
313.083
312.25
311.373
310.482
309.551
308.613
307.638
306.662
305.64
304.603
303.52
302.429
301.253
299.96
298.696
297.496
296.355
295.224
294.22
293.516
293.211
293.175
293.161
293.154
293.151
293.15
293.15
293.15
293.15
293.15
293.15
293.15
293.15
293.15
293.15
293.15
293.15
293.15
293.15
293.15
293.15
293.15
293.15
293.15
293.15
293.15
293.15
293.15
293.15
293.15
293.15
293.15
293.15
293.15
293.15
293.15
293.15
293.15
293.15
293.15
293.15
293.15
293.15
293.15
293.15
293.15
293.15
293.15
293.15
293.15
293.15
293.15
293.15
293.15
293.15
293.15
293.15
293.15
293.15
293.15
293.15
293.15
293.15
293.15
293.15
293.15
293.15
293.15
293.15
293.15
293.15
293.15
293.15
293.15
293.15
293.15
293.15
293.15
293.15
311.339
311.755
311.945
312.186
312.425
312.661
312.894
313.124
313.353
313.583
313.814
314.048
314.285
314.524
314.767
315.015
315.267
315.525
315.789
316.061
316.342
316.633
316.938
317.256
317.59
317.937
318.295
318.661
319.031
319.401
319.765
320.116
320.447
320.744
320.998
321.208
321.4
321.552
321.683
321.793
321.889
321.972
322.046
322.113
322.176
322.234
322.289
322.342
322.392
322.44
322.484
322.525
322.564
322.598
322.63
322.658
322.684
322.707
322.727
322.746
322.762
322.777
322.791
322.804
322.816
322.827
322.836
322.838
322.834
322.821
322.809
322.788
322.769
322.739
322.712
322.674
322.638
322.589
322.543
322.482
322.425
322.351
322.281
322.191
322.106
321.995
321.889
321.751
321.619
321.444
321.278
321.054
320.84
320.55
320.271
319.891
319.525
319.027
318.543
317.89
317.201
316.223
315.066
313.539
311.749
309.632
307.276
304.598
301.643
298.472
296.458
294.473
293.507
293.201
293.167
293.154
293.151
293.15
293.15
293.15
293.15
293.15
293.15
293.15
293.15
293.15
293.15
293.15
293.15
293.15
293.15
293.15
293.15
293.15
293.15
293.15
293.15
293.15
293.15
293.15
293.15
293.15
293.15
293.15
293.15
293.15
293.15
293.15
293.15
293.15
293.15
293.15
293.15
293.15
293.15
293.15
293.15
293.15
293.15
293.15
293.15
293.15
293.15
293.15
293.15
293.15
293.15
293.15
293.15
293.15
293.15
293.15
293.15
293.15
293.15
293.15
293.15
293.15
293.15
293.15
293.15
293.15
293.15
293.15
293.15
293.15
293.15
312.637
313.148
313.381
313.68
313.973
314.26
314.542
314.819
315.091
315.362
315.63
315.898
316.165
316.434
316.704
316.975
317.248
317.524
317.802
318.081
318.364
318.647
318.932
319.216
319.494
319.766
320.028
320.28
320.514
320.728
320.919
321.083
321.218
321.324
321.409
321.477
321.537
321.588
321.638
321.676
321.697
321.705
321.705
321.685
321.665
321.643
321.618
321.594
321.574
321.565
321.562
321.564
321.607
321.652
321.713
321.787
321.873
321.969
322.072
322.181
322.291
322.4
322.508
322.613
322.712
322.805
322.884
322.946
322.991
323.013
323.027
323.041
323.05
323.058
323.064
323.069
323.073
323.076
323.078
323.079
323.077
323.074
323.069
323.063
323.055
323.048
323.038
323.029
323.017
323.006
322.992
322.979
322.962
322.946
322.922
322.902
322.867
322.839
322.785
322.745
322.647
322.567
322.368
322.184
321.734
321.314
320.469
319.462
317.796
315.489
312.262
308.394
304.079
299.38
295.935
294.081
293.257
293.179
293.157
293.151
293.15
293.15
293.15
293.15
293.15
293.15
293.15
293.15
293.15
293.15
293.15
293.15
293.15
293.15
293.15
293.15
293.15
293.15
293.15
293.15
293.15
293.15
293.15
293.15
293.15
293.15
293.15
293.15
293.15
293.15
293.15
293.15
293.15
293.15
293.15
293.15
293.15
293.15
293.15
293.15
293.15
293.15
293.15
293.15
293.15
293.15
293.15
293.15
293.15
293.15
293.15
293.15
293.15
293.15
293.15
293.15
293.15
293.15
293.15
293.15
293.15
293.15
293.15
293.15
293.15
293.15
293.15
313.594
314.162
314.42
314.752
315.076
315.391
315.698
315.996
316.286
316.569
316.846
317.118
317.385
317.648
317.909
318.166
318.421
318.673
318.92
319.164
319.401
319.631
319.853
320.064
320.263
320.448
320.618
320.771
320.904
321.017
321.109
321.183
321.241
321.291
321.328
321.348
321.356
321.343
321.319
321.282
321.232
321.171
321.101
321.023
320.936
320.842
320.742
320.638
320.531
320.425
320.318
320.214
320.114
320.019
319.934
319.864
319.815
319.793
319.788
319.811
319.89
319.982
320.099
320.242
320.408
320.596
320.808
321.045
321.303
321.573
321.843
322.087
322.308
322.513
322.696
322.858
322.982
323.056
323.089
323.103
323.117
323.125
323.131
323.134
323.136
323.137
323.138
323.138
323.139
323.139
323.138
323.137
323.136
323.135
323.133
323.131
323.13
323.127
323.125
323.121
323.117
323.109
323.103
323.088
323.075
323.044
323.011
322.928
322.818
322.558
322.117
321.214
319.617
316.838
312.586
307.167
301.412
296.255
294.096
293.255
293.172
293.153
293.15
293.15
293.15
293.15
293.15
293.15
293.15
293.15
293.15
293.15
293.15
293.15
293.15
293.15
293.15
293.15
293.15
293.15
293.15
293.15
293.15
293.15
293.15
293.15
293.15
293.15
293.15
293.15
293.15
293.15
293.15
293.15
293.15
293.15
293.15
293.15
293.15
293.15
293.15
293.15
293.15
293.15
293.15
293.15
293.15
293.15
293.15
293.15
293.15
293.15
293.15
293.15
293.15
293.15
293.15
293.15
293.15
293.15
293.15
293.15
293.15
293.15
293.15
293.15
293.15
314.266
314.866
315.138
315.49
315.83
316.159
316.477
316.784
317.08
317.364
317.637
317.901
318.156
318.403
318.642
318.875
319.1
319.318
319.527
319.728
319.918
320.098
320.264
320.417
320.557
320.681
320.791
320.883
320.961
321.024
321.076
321.116
321.139
321.149
321.15
321.13
321.103
321.064
321.011
320.945
320.867
320.78
320.684
320.579
320.467
320.347
320.222
320.092
319.958
319.825
319.692
319.563
319.439
319.322
319.211
319.108
319.011
318.92
318.835
318.753
318.677
318.606
318.543
318.49
318.455
318.445
318.445
318.493
318.568
318.682
318.841
319.051
319.305
319.591
319.904
320.242
320.611
321.01
321.428
321.839
322.168
322.473
322.728
322.947
323.054
323.102
323.122
323.136
323.143
323.146
323.148
323.148
323.148
323.149
323.149
323.149
323.149
323.148
323.148
323.148
323.148
323.147
323.147
323.146
323.145
323.144
323.142
323.14
323.134
323.128
323.113
323.088
323.037
322.889
322.437
321.045
318.364
313.614
306.906
299.723
295.204
293.434
293.196
293.156
293.151
293.15
293.15
293.15
293.15
293.15
293.15
293.15
293.15
293.15
293.15
293.15
293.15
293.15
293.15
293.15
293.15
293.15
293.15
293.15
293.15
293.15
293.15
293.15
293.15
293.15
293.15
293.15
293.15
293.15
293.15
293.15
293.15
293.15
293.15
293.15
293.15
293.15
293.15
293.15
293.15
293.15
293.15
293.15
293.15
293.15
293.15
293.15
293.15
293.15
293.15
293.15
293.15
293.15
293.15
293.15
293.15
293.15
293.15
293.15
293.15
293.15
293.15
314.722
315.338
315.617
315.979
316.327
316.664
316.987
317.297
317.593
317.874
318.141
318.394
318.635
318.864
319.083
319.291
319.489
319.676
319.853
320.019
320.172
320.313
320.44
320.554
320.654
320.741
320.814
320.875
320.925
320.963
320.989
321.003
321.007
320.996
320.978
320.947
320.906
320.854
320.79
320.716
320.632
320.539
320.439
320.332
320.218
320.099
319.975
319.849
319.721
319.594
319.468
319.344
319.223
319.106
318.992
318.881
318.774
318.668
318.565
318.463
318.363
318.265
318.17
318.079
317.994
317.916
317.845
317.783
317.729
317.683
317.647
317.628
317.625
317.637
317.659
317.711
317.805
317.952
318.168
318.463
318.843
319.281
319.761
320.279
320.854
321.464
322.027
322.439
322.815
323.02
323.102
323.13
323.143
323.148
323.149
323.15
323.15
323.15
323.15
323.15
323.15
323.15
323.15
323.15
323.15
323.15
323.15
323.149
323.149
323.149
323.149
323.148
323.146
323.142
323.132
323.106
323.046
322.735
321.21
317.581
311.304
303.324
296.126
293.674
293.209
293.156
293.151
293.15
293.15
293.15
293.15
293.15
293.15
293.15
293.15
293.15
293.15
293.15
293.15
293.15
293.15
293.15
293.15
293.15
293.15
293.15
293.15
293.15
293.15
293.15
293.15
293.15
293.15
293.15
293.15
293.15
293.15
293.15
293.15
293.15
293.15
293.15
293.15
293.15
293.15
293.15
293.15
293.15
293.15
293.15
293.15
293.15
293.15
293.15
293.15
293.15
293.15
293.15
293.15
293.15
293.15
293.15
293.15
293.15
293.15
293.15
293.15
315.026
315.648
315.929
316.296
316.648
316.988
317.313
317.624
317.919
318.197
318.457
318.701
318.93
319.145
319.346
319.534
319.711
319.875
320.027
320.167
320.294
320.408
320.509
320.597
320.672
320.736
320.79
320.832
320.864
320.885
320.896
320.898
320.888
320.87
320.845
320.809
320.764
320.708
320.643
320.568
320.486
320.396
320.301
320.2
320.094
319.984
319.871
319.755
319.639
319.522
319.406
319.291
319.178
319.067
318.959
318.852
318.747
318.643
318.54
318.438
318.337
318.236
318.137
318.04
317.945
317.853
317.763
317.677
317.594
317.515
317.44
317.371
317.306
317.246
317.191
317.143
317.106
317.082
317.075
317.085
317.109
317.156
317.239
317.378
317.601
317.943
318.437
319.078
319.807
320.62
321.516
322.305
322.815
323.064
323.122
323.142
323.148
323.15
323.15
323.15
323.15
323.15
323.15
323.15
323.15
323.15
323.15
323.15
323.15
323.15
323.15
323.15
323.15
323.15
323.149
323.149
323.148
323.142
323.118
323.037
322.556
319.388
313.294
304.346
296.064
293.494
293.2
293.157
293.151
293.15
293.15
293.15
293.15
293.15
293.15
293.15
293.15
293.15
293.15
293.15
293.15
293.15
293.15
293.15
293.15
293.15
293.15
293.15
293.15
293.15
293.15
293.15
293.15
293.15
293.15
293.15
293.15
293.15
293.15
293.15
293.15
293.15
293.15
293.15
293.15
293.15
293.15
293.15
293.15
293.15
293.15
293.15
293.15
293.15
293.15
293.15
293.15
293.15
293.15
293.15
293.15
293.15
293.15
293.15
293.15
293.15
293.15
315.229
315.852
316.132
316.502
316.855
317.196
317.522
317.833
318.126
318.401
318.656
318.893
319.113
319.316
319.504
319.678
319.839
319.986
320.12
320.242
320.351
320.447
320.53
320.601
320.662
320.712
320.752
320.782
320.803
320.815
320.817
320.809
320.795
320.775
320.746
320.709
320.663
320.607
320.543
320.472
320.394
320.31
320.221
320.128
320.03
319.93
319.826
319.721
319.614
319.507
319.4
319.293
319.188
319.084
318.982
318.881
318.781
318.682
318.585
318.487
318.391
318.295
318.2
318.105
318.012
317.92
317.83
317.741
317.654
317.568
317.484
317.402
317.322
317.244
317.169
317.096
317.028
316.966
316.909
316.859
316.816
316.781
316.755
316.742
316.746
316.769
316.818
316.906
317.065
317.356
317.872
318.691
319.764
320.984
322.288
322.889
323.105
323.142
323.148
323.149
323.15
323.15
323.15
323.15
323.15
323.15
323.15
323.15
323.15
323.15
323.15
323.15
323.15
323.15
323.15
323.15
323.15
323.15
323.149
323.148
323.139
323.074
322.695
319.754
312.043
301.222
295.06
293.429
293.196
293.157
293.151
293.15
293.15
293.15
293.15
293.15
293.15
293.15
293.15
293.15
293.15
293.15
293.15
293.15
293.15
293.15
293.15
293.15
293.15
293.15
293.15
293.15
293.15
293.15
293.15
293.15
293.15
293.15
293.15
293.15
293.15
293.15
293.15
293.15
293.15
293.15
293.15
293.15
293.15
293.15
293.15
293.15
293.15
293.15
293.15
293.15
293.15
293.15
293.15
293.15
293.15
293.15
293.15
293.15
293.15
293.15
293.15
315.371
315.992
316.27
316.641
316.994
317.334
317.66
317.97
318.262
318.534
318.785
319.017
319.229
319.424
319.603
319.766
319.915
320.05
320.171
320.28
320.376
320.46
320.532
320.593
320.644
320.685
320.717
320.739
320.752
320.76
320.753
320.742
320.726
320.704
320.674
320.637
320.592
320.538
320.477
320.409
320.335
320.256
320.173
320.087
319.996
319.903
319.807
319.71
319.611
319.511
319.411
319.312
319.214
319.117
319.021
318.925
318.831
318.738
318.646
318.554
318.462
318.372
318.281
318.192
318.103
318.015
317.928
317.842
317.757
317.673
317.589
317.507
317.426
317.346
317.267
317.19
317.115
317.042
316.972
316.904
316.84
316.779
316.724
316.674
316.632
316.599
316.575
316.561
316.563
316.588
316.647
316.765
317.016
317.625
318.779
320.417
322.216
322.998
323.128
323.146
323.149
323.15
323.15
323.15
323.15
323.15
323.15
323.15
323.15
323.15
323.15
323.15
323.15
323.15
323.15
323.15
323.15
323.15
323.15
323.15
323.15
323.149
323.14
323.051
322.341
316.979
306.369
297.095
294.013
293.314
293.18
293.156
293.151
293.15
293.15
293.15
293.15
293.15
293.15
293.15
293.15
293.15
293.15
293.15
293.15
293.15
293.15
293.15
293.15
293.15
293.15
293.15
293.15
293.15
293.15
293.15
293.15
293.15
293.15
293.15
293.15
293.15
293.15
293.15
293.15
293.15
293.15
293.15
293.15
293.15
293.15
293.15
293.15
293.15
293.15
293.15
293.15
293.15
293.15
293.15
293.15
293.15
293.15
293.15
293.15
293.15
293.15
315.479
316.097
316.373
316.744
317.095
317.434
317.759
318.068
318.358
318.627
318.875
319.102
319.309
319.497
319.668
319.823
319.963
320.089
320.202
320.302
320.389
320.464
320.528
320.582
320.627
320.662
320.688
320.705
320.713
320.719
320.707
320.694
320.677
320.654
320.624
320.587
320.543
320.492
320.433
320.368
320.298
320.223
320.145
320.063
319.978
319.891
319.801
319.709
319.616
319.522
319.429
319.335
319.242
319.15
319.059
318.969
318.879
318.791
318.703
318.615
318.529
318.443
318.357
318.273
318.188
318.105
318.022
317.94
317.859
317.778
317.698
317.619
317.54
317.462
317.385
317.308
317.233
317.159
317.086
317.015
316.946
316.879
316.815
316.754
316.697
316.644
316.596
316.553
316.518
316.491
316.474
316.477
316.51
316.599
316.795
317.422
319.067
321.403
322.907
323.132
323.149
323.15
323.15
323.15
323.15
323.15
323.15
323.15
323.15
323.15
323.15
323.15
323.15
323.15
323.15
323.15
323.15
323.15
323.15
323.15
323.15
323.15
323.15
323.147
323.109
322.605
318.044
306.147
297.252
294.238
293.42
293.221
293.174
293.16
293.154
293.152
293.151
293.15
293.15
293.15
293.15
293.15
293.15
293.15
293.15
293.15
293.15
293.15
293.15
293.15
293.15
293.15
293.15
293.15
293.15
293.15
293.15
293.15
293.15
293.15
293.15
293.15
293.15
293.15
293.15
293.15
293.15
293.15
293.15
293.15
293.15
293.15
293.15
293.15