/*--------------------------------*- C++ -*----------------------------------*\
| =========                 |                                                 |
| \\      /  F ield         | OpenFOAM: The Open Source CFD Toolbox           |
|  \\    /   O peration     | Version:  2406                                  |
|   \\  /    A nd           | Website:  www.openfoam.com                      |
|    \\/     M anipulation  |                                                 |
\*---------------------------------------------------------------------------*/
FoamFile
{
    version     2.0;
    format      ascii;
    arch        "LSB;label=32;scalar=64";
    class       volVectorField;
    location    "1000";
    object      U;
}
// * * * * * * * * * * * * * * * * * * * * * * * * * * * * * * * * * * * * * //

dimensions      [0 1 -1 0 0 0 0];

internalField   nonuniform List<vector> 
5619
(
(1.64096 7.54829e-06 0)
(1.63819 5.56776e-05 0)
(1.63402 5.14941e-05 0)
(1.63101 4.48528e-05 0)
(1.62832 4.10276e-05 0)
(1.62599 3.80349e-05 0)
(1.62393 3.56939e-05 0)
(1.62213 3.33148e-05 0)
(1.62059 3.06362e-05 0)
(1.61935 2.73526e-05 0)
(1.61843 2.3177e-05 0)
(1.61787 1.78177e-05 0)
(1.61772 1.09352e-05 0)
(1.61806 2.73829e-06 0)
(1.61888 -6.48248e-06 0)
(1.62023 -1.72393e-05 0)
(1.62215 -3.03144e-05 0)
(1.6247 -4.65544e-05 0)
(1.62794 -6.69846e-05 0)
(1.63198 -9.27378e-05 0)
(1.6369 -0.000124861 0)
(1.64283 -0.00016399 0)
(1.6499 -0.000210089 0)
(1.65827 -0.000262324 0)
(1.66809 -0.000319144 0)
(1.67954 -0.000378809 0)
(1.69284 -0.000440336 0)
(1.70823 -0.00050466 0)
(1.72599 -0.000575518 0)
(1.74642 -0.000659564 0)
(1.76983 -0.000765214 0)
(1.79648 -0.000900365 0)
(1.82651 -0.00106979 0)
(1.85992 -0.00127331 0)
(1.8965 -0.00150561 0)
(1.93589 -0.00175751 0)
(1.97759 -0.00201801 0)
(2.02096 -0.00227622 0)
(2.06535 -0.0025225 0)
(2.11007 -0.00274899 0)
(2.15447 -0.0029496 0)
(2.19794 -0.00311974 0)
(2.23993 -0.00325612 0)
(2.27994 -0.00335645 0)
(2.31756 -0.00341925 0)
(2.35244 -0.00344373 0)
(2.38432 -0.00342969 0)
(2.41299 -0.00337746 0)
(2.4383 -0.0032878 0)
(2.46016 -0.00316188 0)
(2.47855 -0.00300137 0)
(2.49348 -0.00280849 0)
(2.50502 -0.00258584 0)
(2.51327 -0.00233679 0)
(2.51837 -0.00206409 0)
(2.52047 -0.00175873 0)
(2.51977 -0.00138856 0)
(2.51624 -0.000955463 0)
(2.51 -0.000499511 0)
(2.50131 -4.10188e-05 0)
(2.49041 0.000414061 0)
(2.47756 0.000861663 0)
(2.46301 0.00129863 0)
(2.44699 0.00172246 0)
(2.42972 0.00213114 0)
(2.41142 0.00252318 0)
(2.39226 0.00289742 0)
(2.37242 0.00325304 0)
(2.35207 0.00358965 0)
(2.33133 0.00390713 0)
(2.31034 0.00420554 0)
(2.28921 0.00448513 0)
(2.26802 0.00474633 0)
(2.24686 0.00498964 0)
(2.2258 0.00521571 0)
(2.2049 0.00542525 0)
(2.1842 0.00561901 0)
(2.16374 0.00579776 0)
(2.14354 0.00596234 0)
(2.12364 0.00611356 0)
(2.10404 0.00625224 0)
(2.08476 0.00637919 0)
(2.0658 0.00649518 0)
(2.04715 0.00660098 0)
(2.02882 0.00669732 0)
(2.01079 0.00678489 0)
(1.99306 0.00686438 0)
(1.97561 0.00693641 0)
(1.95842 0.00700158 0)
(1.94148 0.00706045 0)
(1.92477 0.00711356 0)
(1.90827 0.00716144 0)
(1.89196 0.00720462 0)
(1.8758 0.00724363 0)
(1.85979 0.0072791 0)
(1.84389 0.00731183 0)
(1.82808 0.0073428 0)
(1.81235 0.00737316 0)
(1.79672 0.00740678 0)
(1.78082 0.00745164 0)
(1.76438 0.00748673 0)
(1.74605 0.00750056 0)
(1.72599 0.00750568 0)
(1.70412 0.00750172 0)
(1.68046 0.00748882 0)
(1.65506 0.00746588 0)
(1.628 0.00743156 0)
(1.59946 0.00738445 0)
(1.56963 0.00732332 0)
(1.53878 0.00724727 0)
(1.5072 0.00715589 0)
(1.47525 0.00704934 0)
(1.44329 0.00692839 0)
(1.41167 0.00679445 0)
(1.38075 0.00664948 0)
(1.35084 0.00649588 0)
(1.32222 0.00633634 0)
(1.29512 0.00617369 0)
(1.26969 0.00601068 0)
(1.24606 0.00584992 0)
(1.22426 0.00569375 0)
(1.20431 0.00554419 0)
(1.18616 0.00540294 0)
(1.16976 0.00527153 0)
(1.155 0.00515138 0)
(1.1418 0.00504369 0)
(1.13007 0.00495132 0)
(1.11947 0.00488018 0)
(1.10973 0.0048175 0)
(1.10002 0.00474705 0)
(1.09042 0.00467511 0)
(1.08085 0.00460169 0)
(1.07128 0.00452707 0)
(1.06165 0.00445108 0)
(1.05194 0.00437343 0)
(1.0421 0.00429382 0)
(1.03211 0.00421189 0)
(1.02194 0.00412728 0)
(1.01154 0.00403963 0)
(1.00091 0.0039486 0)
(0.990018 0.00385385 0)
(0.978846 0.00375504 0)
(0.967384 0.00365189 0)
(0.955622 0.00354412 0)
(0.943559 0.00343148 0)
(0.931197 0.00331376 0)
(0.918546 0.00319083 0)
(0.905624 0.00306258 0)
(0.892457 0.00292902 0)
(0.879079 0.00279023 0)
(0.865532 0.00264639 0)
(0.851871 0.0024978 0)
(0.838156 0.00234489 0)
(0.824462 0.00218825 0)
(0.810869 0.0020286 0)
(0.797468 0.00186685 0)
(0.784356 0.00170406 0)
(0.771635 0.00154145 0)
(0.759412 0.00138038 0)
(0.747793 0.0012223 0)
(0.73688 0.00106877 0)
(0.726771 0.000921327 0)
(0.717552 0.000781487 0)
(0.709295 0.000650642 0)
(0.702055 0.000529997 0)
(0.695871 0.000420494 0)
(0.690758 0.000322759 0)
(0.686715 0.000237065 0)
(0.683721 0.000163306 0)
(0.681742 0.000100924 0)
(0.680737 4.86654e-05 0)
(0.680668 6.66423e-06 0)
(0.68144 -2.32544e-05 0)
(0.682938 -4.3268e-05 0)
(0.685143 -5.69476e-05 0)
(0.68807 -6.52432e-05 0)
(0.691789 -6.88183e-05 0)
(0.696456 -6.75754e-05 0)
(0.702366 -5.9066e-05 0)
(0.710016 -3.38702e-05 0)
(0.720207 3.68285e-05 0)
(0.734134 0.00023319 0)
(0.753444 0.000768921 0)
(0.78021 0.00221551 0)
(0.816923 0.00618178 0)
(0.866431 0.0176118 0)
(0.926668 0.0544988 0)
(1.93195 3.6019e-05 0)
(1.92874 0.000164362 0)
(1.92419 0.000157628 0)
(1.92082 0.000136523 0)
(1.91781 0.000125086 0)
(1.91519 0.000115004 0)
(1.91291 0.00010598 0)
(1.91096 9.56953e-05 0)
(1.90938 8.30573e-05 0)
(1.90822 6.69177e-05 0)
(1.90756 4.61096e-05 0)
(1.90747 1.92969e-05 0)
(1.90804 -1.43208e-05 0)
(1.90932 -5.40611e-05 0)
(1.91137 -9.99569e-05 0)
(1.9143 -0.000153548 0)
(1.9182 -0.000216258 0)
(1.92318 -0.000289602 0)
(1.92937 -0.000375433 0)
(1.93693 -0.000476135 0)
(1.94603 -0.00059489 0)
(1.95685 -0.000736047 0)
(1.96963 -0.000905605 0)
(1.98459 -0.0011117 0)
(2.00201 -0.00136482 0)
(2.02214 -0.00167754 0)
(2.04524 -0.00206342 0)
(2.07155 -0.00253489 0)
(2.10123 -0.00310026 0)
(2.13431 -0.00376063 0)
(2.17073 -0.0045074 0)
(2.21024 -0.00532159 0)
(2.25247 -0.0061754 0)
(2.29691 -0.00703566 0)
(2.34298 -0.00786792 0)
(2.39002 -0.00864007 0)
(2.43739 -0.00932466 0)
(2.48444 -0.00989978 0)
(2.53055 -0.010349 0)
(2.57516 -0.010661 0)
(2.61774 -0.0108283 0)
(2.65782 -0.0108473 0)
(2.69503 -0.0107171 0)
(2.72903 -0.0104396 0)
(2.75956 -0.0100186 0)
(2.78642 -0.00945972 0)
(2.80948 -0.00877018 0)
(2.82867 -0.00795857 0)
(2.84397 -0.00703467 0)
(2.85542 -0.00600939 0)
(2.86308 -0.00489499 0)
(2.86709 -0.00370528 0)
(2.86759 -0.00245426 0)
(2.86476 -0.0011544 0)
(2.85882 0.000191267 0)
(2.84988 0.00156987 0)
(2.83818 0.00297841 0)
(2.82411 0.00441225 0)
(2.80799 0.0058431 0)
(2.79004 0.00725097 0)
(2.7705 0.00862533 0)
(2.7496 0.00995801 0)
(2.72754 0.0112424 0)
(2.70452 0.0124734 0)
(2.68074 0.013647 0)
(2.65635 0.0147605 0)
(2.63153 0.0158119 0)
(2.60642 0.0168005 0)
(2.58114 0.0177263 0)
(2.55581 0.0185898 0)
(2.53052 0.0193925 0)
(2.50537 0.020136 0)
(2.48042 0.0208225 0)
(2.45574 0.0214544 0)
(2.43138 0.0220343 0)
(2.40738 0.0225649 0)
(2.38377 0.0230491 0)
(2.36058 0.0234895 0)
(2.33781 0.023889 0)
(2.31549 0.0242503 0)
(2.29361 0.0245759 0)
(2.27217 0.0248684 0)
(2.25116 0.0251302 0)
(2.23059 0.0253633 0)
(2.21042 0.02557 0)
(2.19066 0.0257522 0)
(2.17128 0.0259117 0)
(2.15226 0.0260502 0)
(2.13358 0.0261692 0)
(2.11521 0.0262702 0)
(2.09713 0.0263545 0)
(2.07932 0.0264232 0)
(2.06176 0.0264775 0)
(2.0444 0.0265184 0)
(2.02723 0.0265471 0)
(2.01022 0.0265646 0)
(1.99333 0.0265725 0)
(1.97658 0.0265721 0)
(1.95995 0.0265677 0)
(1.9431 0.0265688 0)
(1.92576 0.0265569 0)
(1.90648 0.0265133 0)
(1.88542 0.0264437 0)
(1.86251 0.0263454 0)
(1.83776 0.0262155 0)
(1.81123 0.0260501 0)
(1.78303 0.0258455 0)
(1.75332 0.0255979 0)
(1.72233 0.0253048 0)
(1.69033 0.0249647 0)
(1.65763 0.0245779 0)
(1.62459 0.0241464 0)
(1.59159 0.0236744 0)
(1.55899 0.0231675 0)
(1.52714 0.0226331 0)
(1.49637 0.0220793 0)
(1.46696 0.0215151 0)
(1.43912 0.0209491 0)
(1.41303 0.0203896 0)
(1.38878 0.0198441 0)
(1.36643 0.0193188 0)
(1.34597 0.0188188 0)
(1.32737 0.0183478 0)
(1.31055 0.0179087 0)
(1.29543 0.0175034 0)
(1.2819 0.0171331 0)
(1.26987 0.0168003 0)
(1.25903 0.0165103 0)
(1.2491 0.0162509 0)
(1.23922 0.0159857 0)
(1.22946 0.0157179 0)
(1.21973 0.015447 0)
(1.21001 0.0151724 0)
(1.20025 0.0148931 0)
(1.19041 0.0146082 0)
(1.18045 0.0143163 0)
(1.17034 0.0140165 0)
(1.16004 0.0137076 0)
(1.14954 0.0133884 0)
(1.1388 0.0130579 0)
(1.12781 0.0127151 0)
(1.11654 0.0123591 0)
(1.10499 0.0119889 0)
(1.09315 0.0116039 0)
(1.08101 0.0112034 0)
(1.06858 0.0107871 0)
(1.05587 0.0103546 0)
(1.0429 0.00990589 0)
(1.02969 0.00944133 0)
(1.01628 0.00896144 0)
(1.00272 0.00846716 0)
(0.989055 0.00795981 0)
(0.975354 0.00744114 0)
(0.96169 0.00691337 0)
(0.948147 0.0063792 0)
(0.934816 0.00584183 0)
(0.921796 0.00530489 0)
(0.909193 0.00477248 0)
(0.897115 0.004249 0)
(0.88567 0.0037391 0)
(0.874964 0.00324754 0)
(0.865099 0.00277895 0)
(0.856164 0.00233773 0)
(0.848236 0.00192772 0)
(0.841378 0.00155205 0)
(0.835632 0.00121291 0)
(0.831024 0.00091137 0)
(0.82756 0.000647287 0)
(0.825232 0.000419207 0)
(0.824018 0.000224295 0)
(0.82389 5.87531e-05 0)
(0.824827 -7.48754e-05 0)
(0.826677 -0.000179002 0)
(0.829472 -0.000266156 0)
(0.833223 -0.00034527 0)
(0.837982 -0.000424022 0)
(0.84384 -0.000511427 0)
(0.850941 -0.000619056 0)
(0.859473 -0.000763038 0)
(0.869657 -0.000968189 0)
(0.881716 -0.0012774 0)
(0.895819 -0.00177435 0)
(0.912013 -0.00263961 0)
(0.930145 -0.0042866 0)
(0.949846 -0.00766949 0)
(0.970489 -0.014968 0)
(0.988465 -0.0293062 0)
(2.11274 7.90837e-05 0)
(2.10937 0.000322983 0)
(2.10476 0.000311434 0)
(2.10135 0.000270034 0)
(2.09839 0.000246476 0)
(2.09593 0.000224341 0)
(2.09394 0.00020272 0)
(2.09246 0.000176875 0)
(2.09155 0.000144313 0)
(2.09129 0.000102275 0)
(2.0918 4.77205e-05 0)
(2.09319 -2.07716e-05 0)
(2.09551 -0.000103033 0)
(2.09884 -0.000200428 0)
(2.10333 -0.000316487 0)
(2.10908 -0.000455791 0)
(2.11624 -0.000623674 0)
(2.12497 -0.000826943 0)
(2.13544 -0.00107382 0)
(2.14785 -0.00137369 0)
(2.1624 -0.00173663 0)
(2.17929 -0.00217272 0)
(2.19869 -0.00269118 0)
(2.22075 -0.00329949 0)
(2.24553 -0.00400266 0)
(2.273 -0.00480281 0)
(2.30306 -0.00569898 0)
(2.33547 -0.00668695 0)
(2.3699 -0.00775897 0)
(2.40598 -0.00890307 0)
(2.44328 -0.010102 0)
(2.48137 -0.0113322 0)
(2.51984 -0.0125636 0)
(2.55834 -0.0137607 0)
(2.59652 -0.0148852 0)
(2.63406 -0.0158985 0)
(2.67066 -0.0167648 0)
(2.70603 -0.0174532 0)
(2.73987 -0.0179385 0)
(2.7719 -0.0182017 0)
(2.80186 -0.0182294 0)
(2.82949 -0.0180137 0)
(2.85457 -0.0175515 0)
(2.87691 -0.0168438 0)
(2.89635 -0.0158954 0)
(2.91279 -0.0147142 0)
(2.92615 -0.0133111 0)
(2.93637 -0.0116994 0)
(2.94347 -0.0098945 0)
(2.94747 -0.00791379 0)
(2.94844 -0.00577678 0)
(2.94645 -0.00350542 0)
(2.94165 -0.0011202 0)
(2.93415 0.00136368 0)
(2.92409 0.00392803 0)
(2.91172 0.00654684 0)
(2.89722 0.0091848 0)
(2.88081 0.0118175 0)
(2.86269 0.0144277 0)
(2.84303 0.0169966 0)
(2.82205 0.0195068 0)
(2.79993 0.0219435 0)
(2.77684 0.0242945 0)
(2.75298 0.0265501 0)
(2.7285 0.0287025 0)
(2.70355 0.0307462 0)
(2.67828 0.0326775 0)
(2.65281 0.0344944 0)
(2.62725 0.0361963 0)
(2.6017 0.0377841 0)
(2.57626 0.0392595 0)
(2.551 0.0406254 0)
(2.52599 0.0418853 0)
(2.50127 0.0430432 0)
(2.4769 0.0441037 0)
(2.45291 0.0450715 0)
(2.42932 0.0459516 0)
(2.40616 0.046749 0)
(2.38344 0.0474689 0)
(2.36117 0.0481162 0)
(2.33936 0.0486958 0)
(2.31799 0.0492124 0)
(2.29706 0.0496705 0)
(2.27656 0.0500745 0)
(2.25649 0.0504283 0)
(2.23682 0.0507358 0)
(2.21753 0.0510006 0)
(2.19861 0.0512259 0)
(2.18003 0.0514149 0)
(2.16177 0.0515703 0)
(2.14381 0.0516946 0)
(2.12613 0.0517903 0)
(2.10868 0.0518593 0)
(2.09146 0.0519038 0)
(2.07444 0.0519252 0)
(2.05757 0.0519252 0)
(2.04085 0.0519056 0)
(2.02425 0.0518672 0)
(2.00781 0.0518109 0)
(1.99116 0.0517396 0)
(1.97401 0.0516512 0)
(1.95497 0.0515281 0)
(1.9342 0.0513607 0)
(1.91162 0.0511416 0)
(1.88724 0.0508614 0)
(1.86114 0.0505115 0)
(1.83343 0.0500836 0)
(1.80426 0.0495711 0)
(1.77387 0.0489693 0)
(1.74253 0.0482761 0)
(1.71055 0.0474929 0)
(1.67829 0.0466245 0)
(1.6461 0.0456795 0)
(1.61435 0.0446697 0)
(1.58338 0.0436097 0)
(1.5535 0.0425158 0)
(1.52498 0.0414055 0)
(1.49803 0.0402957 0)
(1.47279 0.0392025 0)
(1.44937 0.0381402 0)
(1.4278 0.0371208 0)
(1.40808 0.0361535 0)
(1.39017 0.0352454 0)
(1.37399 0.0344007 0)
(1.35945 0.0336219 0)
(1.34645 0.0329093 0)
(1.33491 0.0322613 0)
(1.3245 0.031676 0)
(1.31498 0.0311493 0)
(1.30551 0.0306251 0)
(1.29617 0.0301001 0)
(1.28686 0.0295721 0)
(1.27756 0.0290387 0)
(1.26823 0.0284975 0)
(1.25883 0.0279461 0)
(1.24933 0.0273823 0)
(1.23968 0.0268037 0)
(1.22987 0.026208 0)
(1.21987 0.0255932 0)
(1.20965 0.024957 0)
(1.19919 0.0242975 0)
(1.18849 0.0236128 0)
(1.17752 0.0229011 0)
(1.16628 0.0221611 0)
(1.15478 0.0213914 0)
(1.14301 0.0205912 0)
(1.13098 0.01976 0)
(1.11872 0.0188976 0)
(1.10626 0.0180045 0)
(1.09362 0.0170819 0)
(1.08085 0.0161314 0)
(1.068 0.0151557 0)
(1.05514 0.014158 0)
(1.04234 0.0131427 0)
(1.02967 0.0121149 0)
(1.01722 0.0110808 0)
(1.0051 0.0100474 0)
(0.993395 0.00902244 0)
(0.982215 0.00801445 0)
(0.971662 0.00703229 0)
(0.96184 0.006085 0)
(0.952843 0.00518145 0)
(0.944759 0.00432994 0)
(0.937663 0.0035378 0)
(0.931615 0.00281095 0)
(0.926655 0.00215356 0)
(0.922809 0.00156779 0)
(0.920081 0.00105359 0)
(0.918459 0.000608783 0)
(0.917914 0.000229423 0)
(0.918407 -8.74662e-05 0)
(0.919827 -0.000341023 0)
(0.922145 -0.000542583 0)
(0.925312 -0.00070952 0)
(0.929281 -0.000850416 0)
(0.934003 -0.000973073 0)
(0.939422 -0.00108376 0)
(0.945468 -0.00118685 0)
(0.952037 -0.00128357 0)
(0.958983 -0.00136891 0)
(0.966113 -0.00142507 0)
(0.973194 -0.00140796 0)
(0.979978 -0.0012236 0)
(0.986223 -0.000695671 0)
(0.991737 0.00044575 0)
(0.996402 0.00209067 0)
(0.998422 0.000152523 0)
(2.25804 0.000139313 0)
(2.25496 0.000533661 0)
(2.25067 0.000511039 0)
(2.24755 0.000437592 0)
(2.245 0.000389472 0)
(2.24315 0.00033997 0)
(2.24198 0.000286706 0)
(2.24158 0.000220994 0)
(2.24204 0.000137159 0)
(2.24347 2.9602e-05 0)
(2.24597 -0.000104523 0)
(2.24955 -0.000266967 0)
(2.25432 -0.000461583 0)
(2.26038 -0.000693765 0)
(2.2678 -0.000969196 0)
(2.27666 -0.00129391 0)
(2.28699 -0.00167485 0)
(2.29883 -0.00211964 0)
(2.31216 -0.00263648 0)
(2.32698 -0.00323378 0)
(2.34323 -0.00391973 0)
(2.36083 -0.00470177 0)
(2.37972 -0.00558585 0)
(2.3998 -0.00657576 0)
(2.42099 -0.00767243 0)
(2.44322 -0.0088734 0)
(2.46642 -0.0101725 0)
(2.49056 -0.0115593 0)
(2.51558 -0.0130195 0)
(2.54146 -0.0145338 0)
(2.56813 -0.0160782 0)
(2.59551 -0.0176229 0)
(2.62348 -0.019133 0)
(2.6519 -0.0205684 0)
(2.68057 -0.0218859 0)
(2.70927 -0.0230409 0)
(2.73772 -0.0239904 0)
(2.76565 -0.0246947 0)
(2.79275 -0.0251193 0)
(2.81873 -0.0252362 0)
(2.84328 -0.0250241 0)
(2.86612 -0.0244689 0)
(2.887 -0.0235632 0)
(2.90567 -0.022306 0)
(2.92194 -0.0207021 0)
(2.93566 -0.0187613 0)
(2.9467 -0.0164982 0)
(2.95498 -0.0139313 0)
(2.96045 -0.0110826 0)
(2.96311 -0.00797728 0)
(2.96298 -0.00464409 0)
(2.96012 -0.00111661 0)
(2.95463 0.0025752 0)
(2.94662 0.0063997 0)
(2.93624 0.0103233 0)
(2.92365 0.0143116 0)
(2.90901 0.0183366 0)
(2.89252 0.0223653 0)
(2.87435 0.0263639 0)
(2.85471 0.0303017 0)
(2.83377 0.0341525 0)
(2.81172 0.0378937 0)
(2.78875 0.0415066 0)
(2.76502 0.0449761 0)
(2.7407 0.0482903 0)
(2.71592 0.0514402 0)
(2.69085 0.0544202 0)
(2.66558 0.0572266 0)
(2.64024 0.0598586 0)
(2.61493 0.062317 0)
(2.58972 0.0646042 0)
(2.5647 0.0667242 0)
(2.53993 0.068682 0)
(2.51546 0.0704833 0)
(2.49133 0.0721347 0)
(2.46758 0.0736429 0)
(2.44423 0.0750153 0)
(2.4213 0.076259 0)
(2.39881 0.0773815 0)
(2.37675 0.0783899 0)
(2.35514 0.0792914 0)
(2.33397 0.080093 0)
(2.31324 0.0808012 0)
(2.29293 0.0814225 0)
(2.27303 0.0819629 0)
(2.25352 0.0824281 0)
(2.23439 0.0828235 0)
(2.21563 0.0831542 0)
(2.1972 0.0834248 0)
(2.17909 0.0836397 0)
(2.16127 0.0838029 0)
(2.14372 0.0839181 0)
(2.12642 0.0839886 0)
(2.10933 0.0840175 0)
(2.09244 0.0840075 0)
(2.07572 0.0839611 0)
(2.05914 0.0838808 0)
(2.04269 0.0837685 0)
(2.02639 0.0836249 0)
(2.0099 0.083451 0)
(1.99291 0.0832487 0)
(1.97406 0.0829923 0)
(1.9535 0.0826645 0)
(1.93116 0.0822525 0)
(1.90707 0.0817404 0)
(1.88129 0.0811139 0)
(1.85395 0.0803595 0)
(1.82521 0.0794667 0)
(1.7953 0.0784282 0)
(1.76449 0.0772417 0)
(1.73311 0.0759105 0)
(1.70149 0.0744437 0)
(1.67001 0.0728563 0)
(1.63902 0.0711689 0)
(1.60886 0.0694058 0)
(1.57982 0.0675945 0)
(1.55216 0.065763 0)
(1.52608 0.063939 0)
(1.50171 0.0621478 0)
(1.47914 0.0604119 0)
(1.45841 0.0587497 0)
(1.43949 0.0571755 0)
(1.42233 0.0556996 0)
(1.40687 0.0543282 0)
(1.39299 0.0530645 0)
(1.3806 0.0519084 0)
(1.36962 0.0508565 0)
(1.35974 0.0499037 0)
(1.35069 0.0490461 0)
(1.3417 0.0481954 0)
(1.33284 0.0473451 0)
(1.32402 0.0464914 0)
(1.31522 0.0456302 0)
(1.3064 0.0447575 0)
(1.29752 0.0438694 0)
(1.28855 0.0429623 0)
(1.27946 0.0420325 0)
(1.27023 0.0410763 0)
(1.26082 0.0400905 0)
(1.25122 0.0390717 0)
(1.24142 0.0380168 0)
(1.23139 0.0369229 0)
(1.22113 0.0357874 0)
(1.21064 0.0346082 0)
(1.19992 0.0333834 0)
(1.18896 0.0321118 0)
(1.17779 0.0307925 0)
(1.16643 0.0294257 0)
(1.1549 0.0280122 0)
(1.14323 0.0265539 0)
(1.13147 0.0250536 0)
(1.11966 0.0235153 0)
(1.10787 0.0219444 0)
(1.09616 0.0203477 0)
(1.08461 0.0187334 0)
(1.07328 0.0171109 0)
(1.06228 0.0154912 0)
(1.05168 0.0138865 0)
(1.04158 0.01231 0)
(1.03206 0.0107755 0)
(1.02321 0.00929707 0)
(1.0151 0.00788862 0)
(1.0078 0.00656315 0)
(1.00136 0.0053322 0)
(0.995818 0.00420523 0)
(0.991188 0.00318903 0)
(0.987468 0.00228731 0)
(0.984634 0.00150048 0)
(0.982642 0.000825663 0)
(0.98143 0.00025722 0)
(0.980921 -0.000210005 0)
(0.981054 -0.000582128 0)
(0.981754 -0.000875324 0)
(0.982929 -0.00110877 0)
(0.984483 -0.00129627 0)
(0.986326 -0.00145036 0)
(0.988365 -0.00158271 0)
(0.990516 -0.00170484 0)
(0.992696 -0.00182924 0)
(0.994824 -0.00197103 0)
(0.996827 -0.00215018 0)
(0.998634 -0.0023933 0)
(1.00017 -0.0027328 0)
(1.00137 -0.00319094 0)
(1.00217 -0.00368568 0)
(1.00262 -0.00388164 0)
(1.00123 -0.00420157 0)
(2.37625 0.000204384 0)
(2.37503 0.000771836 0)
(2.37209 0.000735181 0)
(2.36985 0.000614677 0)
(2.36794 0.000517782 0)
(2.36663 0.000410041 0)
(2.36601 0.000289337 0)
(2.36618 0.000143933 0)
(2.36719 -3.32393e-05 0)
(2.3691 -0.000245911 0)
(2.37186 -0.000494695 0)
(2.37549 -0.000784009 0)
(2.37998 -0.00111965 0)
(2.38533 -0.00150521 0)
(2.3915 -0.00194426 0)
(2.39846 -0.00244127 0)
(2.40619 -0.00300141 0)
(2.41466 -0.00363074 0)
(2.42386 -0.00433635 0)
(2.43379 -0.00512631 0)
(2.44449 -0.00600938 0)
(2.456 -0.0069948 0)
(2.46838 -0.00809164 0)
(2.4817 -0.00930816 0)
(2.49606 -0.010651 0)
(2.51153 -0.0121241 0)
(2.52819 -0.0137277 0)
(2.54611 -0.0154571 0)
(2.56531 -0.0173009 0)
(2.58579 -0.0192395 0)
(2.60752 -0.0212435 0)
(2.6304 -0.0232735 0)
(2.65432 -0.0252797 0)
(2.67908 -0.0272042 0)
(2.70448 -0.0289838 0)
(2.73027 -0.0305534 0)
(2.75615 -0.0318499 0)
(2.78182 -0.0328148 0)
(2.80696 -0.0333969 0)
(2.83124 -0.0335536 0)
(2.85434 -0.0332517 0)
(2.87597 -0.0324679 0)
(2.89582 -0.0311885 0)
(2.91367 -0.0294087 0)
(2.92927 -0.0271322 0)
(2.94247 -0.0243702 0)
(2.95311 -0.0211406 0)
(2.96109 -0.0174672 0)
(2.96637 -0.0133791 0)
(2.9689 -0.00890978 0)
(2.96871 -0.00409874 0)
(2.96585 0.0010066 0)
(2.9604 0.00636073 0)
(2.95246 0.0119183 0)
(2.94217 0.0176288 0)
(2.92967 0.0234414 0)
(2.91513 0.0293052 0)
(2.89873 0.0351715 0)
(2.88066 0.0409942 0)
(2.86109 0.0467305 0)
(2.84023 0.0523421 0)
(2.81825 0.057796 0)
(2.79534 0.0630644 0)
(2.77168 0.0681244 0)
(2.74741 0.0729584 0)
(2.7227 0.0775532 0)
(2.69767 0.0819001 0)
(2.67247 0.0859941 0)
(2.64719 0.0898337 0)
(2.62193 0.0934203 0)
(2.59679 0.0967577 0)
(2.57184 0.0998517 0)
(2.54714 0.10271 0)
(2.52274 0.105341 0)
(2.49869 0.107754 0)
(2.47502 0.10996 0)
(2.45175 0.111969 0)
(2.42891 0.113791 0)
(2.4065 0.115438 0)
(2.38453 0.116919 0)
(2.363 0.118245 0)
(2.34191 0.119425 0)
(2.32125 0.120469 0)
(2.30102 0.121386 0)
(2.28119 0.122185 0)
(2.26175 0.122872 0)
(2.24269 0.123456 0)
(2.22398 0.123944 0)
(2.2056 0.124341 0)
(2.18753 0.124655 0)
(2.16976 0.12489 0)
(2.15225 0.125051 0)
(2.13498 0.125143 0)
(2.11792 0.12517 0)
(2.10106 0.125136 0)
(2.08436 0.125043 0)
(2.06779 0.124895 0)
(2.05136 0.124695 0)
(2.03507 0.124443 0)
(2.01862 0.12414 0)
(2.00163 0.123788 0)
(1.9828 0.123352 0)
(1.96227 0.122807 0)
(1.93996 0.122135 0)
(1.91592 0.121311 0)
(1.8902 0.120314 0)
(1.86292 0.119123 0)
(1.83426 0.117721 0)
(1.80446 0.116098 0)
(1.77378 0.11425 0)
(1.74255 0.112182 0)
(1.71112 0.109908 0)
(1.67986 0.107453 0)
(1.64913 0.104849 0)
(1.61926 0.102134 0)
(1.59055 0.099351 0)
(1.56325 0.0965435 0)
(1.53755 0.0937541 0)
(1.51358 0.0910216 0)
(1.49142 0.0883799 0)
(1.4711 0.0858563 0)
(1.45259 0.0834718 0)
(1.43584 0.0812407 0)
(1.42075 0.0791714 0)
(1.40724 0.0772673 0)
(1.39519 0.0755273 0)
(1.38452 0.0739461 0)
(1.37493 0.0725162 0)
(1.36615 0.0712279 0)
(1.35745 0.069952 0)
(1.34887 0.0686777 0)
(1.34034 0.0673996 0)
(1.33184 0.0661115 0)
(1.32333 0.0648076 0)
(1.31477 0.0634823 0)
(1.30613 0.06213 0)
(1.29738 0.0607455 0)
(1.2885 0.0593234 0)
(1.27947 0.057859 0)
(1.27027 0.0563473 0)
(1.26088 0.0547842 0)
(1.25129 0.0531654 0)
(1.24149 0.0514875 0)
(1.23149 0.0497474 0)
(1.22127 0.0479428 0)
(1.21085 0.0460722 0)
(1.20024 0.044135 0)
(1.18947 0.0421316 0)
(1.17855 0.0400638 0)
(1.16751 0.0379347 0)
(1.15641 0.0357492 0)
(1.14528 0.0335137 0)
(1.13418 0.0312365 0)
(1.12316 0.028928 0)
(1.1123 0.0266004 0)
(1.10167 0.024268 0)
(1.09133 0.021947 0)
(1.08136 0.0196549 0)
(1.07184 0.0174108 0)
(1.06284 0.0152344 0)
(1.05443 0.0131455 0)
(1.04665 0.0111634 0)
(1.03957 0.00930615 0)
(1.03321 0.00758932 0)
(1.0276 0.00602555 0)
(1.02273 0.0046236 0)
(1.0186 0.0033879 0)
(1.01516 0.00231822 0)
(1.01239 0.00140966 0)
(1.01022 0.000652979 0)
(1.00858 3.61978e-05 0)
(1.00741 -0.000452404 0)
(1.00665 -0.000829891 0)
(1.00623 -0.00111817 0)
(1.00606 -0.00133602 0)
(1.00607 -0.00149986 0)
(1.0062 -0.001624 0)
(1.00639 -0.00172063 0)
(1.00658 -0.00179975 0)
(1.00674 -0.00186915 0)
(1.00682 -0.00193419 0)
(1.00677 -0.00199764 0)
(1.00653 -0.00206222 0)
(1.00605 -0.00213976 0)
(1.0053 -0.00224527 0)
(1.00433 -0.00245287 0)
(1.0019 -0.00352961 0)
(2.45221 0.00013445 0)
(2.45571 0.000820851 0)
(2.45645 0.000848345 0)
(2.45662 0.000747264 0)
(2.45594 0.000649913 0)
(2.4549 0.000514542 0)
(2.45376 0.000347009 0)
(2.45275 0.000140257 0)
(2.45202 -0.00010783 0)
(2.45169 -0.000397121 0)
(2.45183 -0.000727826 0)
(2.45249 -0.00110472 0)
(2.4537 -0.00153226 0)
(2.45548 -0.00201436 0)
(2.45786 -0.00255601 0)
(2.46087 -0.00316378 0)
(2.46454 -0.00384609 0)
(2.46893 -0.00461345 0)
(2.47407 -0.00547831 0)
(2.48005 -0.00645484 0)
(2.48694 -0.00755818 0)
(2.49482 -0.00880375 0)
(2.50378 -0.010206 0)
(2.51391 -0.0117772 0)
(2.5253 -0.0135262 0)
(2.53804 -0.015457 0)
(2.55219 -0.0175674 0)
(2.5678 -0.0198475 0)
(2.58489 -0.0222785 0)
(2.60345 -0.0248314 0)
(2.62342 -0.0274656 0)
(2.64472 -0.0301285 0)
(2.66719 -0.0327558 0)
(2.69067 -0.0352738 0)
(2.71493 -0.0376014 0)
(2.73972 -0.0396546 0)
(2.76475 -0.0413502 0)
(2.7897 -0.0426095 0)
(2.81424 -0.0433616 0)
(2.83805 -0.0435458 0)
(2.8608 -0.0431133 0)
(2.88217 -0.0420278 0)
(2.90188 -0.0402661 0)
(2.91965 -0.0378175 0)
(2.93526 -0.0346833 0)
(2.94852 -0.0308758 0)
(2.95928 -0.0264175 0)
(2.96744 -0.0213396 0)
(2.97292 -0.0156814 0)
(2.97569 -0.00948938 0)
(2.97575 -0.00281825 0)
(2.97315 0.0042651 0)
(2.96795 0.011697 0)
(2.96025 0.0194167 0)
(2.95016 0.0273563 0)
(2.93784 0.0354447 0)
(2.92343 0.043611 0)
(2.90711 0.0517856 0)
(2.88908 0.0599026 0)
(2.86951 0.0679015 0)
(2.8486 0.0757284 0)
(2.82653 0.0833361 0)
(2.8035 0.090685 0)
(2.77968 0.0977427 0)
(2.75524 0.104484 0)
(2.73032 0.110889 0)
(2.70508 0.116947 0)
(2.67965 0.122649 0)
(2.65413 0.127995 0)
(2.62864 0.132985 0)
(2.60327 0.137626 0)
(2.57809 0.141926 0)
(2.55317 0.145896 0)
(2.52855 0.149548 0)
(2.5043 0.152896 0)
(2.48044 0.155956 0)
(2.45699 0.158741 0)
(2.43398 0.161267 0)
(2.41141 0.163549 0)
(2.3893 0.165601 0)
(2.36765 0.167438 0)
(2.34644 0.169074 0)
(2.32567 0.170522 0)
(2.30533 0.171793 0)
(2.28541 0.172899 0)
(2.26588 0.173852 0)
(2.24674 0.174661 0)
(2.22795 0.175335 0)
(2.2095 0.175883 0)
(2.19137 0.176313 0)
(2.17353 0.176632 0)
(2.15596 0.176847 0)
(2.13862 0.176963 0)
(2.12151 0.176985 0)
(2.10458 0.176919 0)
(2.08782 0.176768 0)
(2.07119 0.176536 0)
(2.05469 0.176225 0)
(2.03833 0.175838 0)
(2.02183 0.175376 0)
(2.00476 0.174838 0)
(1.98586 0.174172 0)
(1.96523 0.173349 0)
(1.94282 0.172339 0)
(1.91867 0.171111 0)
(1.89284 0.169631 0)
(1.86545 0.167872 0)
(1.83668 0.165809 0)
(1.80676 0.163426 0)
(1.77596 0.160718 0)
(1.74463 0.157694 0)
(1.71311 0.154373 0)
(1.68177 0.150792 0)
(1.65098 0.146997 0)
(1.62108 0.143046 0)
(1.59236 0.139001 0)
(1.56508 0.134925 0)
(1.53942 0.130882 0)
(1.51553 0.126928 0)
(1.49347 0.12311 0)
(1.47325 0.119469 0)
(1.45486 0.116034 0)
(1.43824 0.112824 0)
(1.42328 0.109852 0)
(1.4099 0.10712 0)
(1.39798 0.104628 0)
(1.38743 0.102366 0)
(1.37797 0.100325 0)
(1.3693 0.0984836 0)
(1.36073 0.0966642 0)
(1.35227 0.09485 0)
(1.34388 0.0930321 0)
(1.33551 0.0912019 0)
(1.32714 0.0893513 0)
(1.31873 0.0874725 0)
(1.31024 0.0855576 0)
(1.30166 0.0835993 0)
(1.29296 0.0815904 0)
(1.28411 0.0795241 0)
(1.2751 0.0773939 0)
(1.26592 0.0751939 0)
(1.25654 0.0729188 0)
(1.24698 0.0705639 0)
(1.23721 0.0681255 0)
(1.22726 0.0656007 0)
(1.21711 0.0629879 0)
(1.20679 0.0602869 0)
(1.19632 0.0574989 0)
(1.18572 0.0546271 0)
(1.17502 0.0516766 0)
(1.16427 0.0486547 0)
(1.1535 0.0455711 0)
(1.14276 0.042438 0)
(1.13212 0.0392702 0)
(1.12164 0.0360851 0)
(1.11137 0.0329029 0)
(1.1014 0.0297457 0)
(1.09178 0.0266378 0)
(1.08258 0.0236047 0)
(1.07386 0.0206728 0)
(1.06569 0.0178683 0)
(1.05812 0.0152162 0)
(1.05117 0.0127396 0)
(1.04489 0.010458 0)
(1.03928 0.00838672 0)
(1.03434 0.00653601 0)
(1.03006 0.00491023 0)
(1.02641 0.00350774 0)
(1.02334 0.00232096 0)
(1.0208 0.00133694 0)
(1.01874 0.000538065 0)
(1.01708 -9.57953e-05 0)
(1.01577 -0.000585885 0)
(1.01474 -0.000957251 0)
(1.01393 -0.00123504 0)
(1.01326 -0.00144147 0)
(1.01269 -0.00159632 0)
(1.01217 -0.001717 0)
(1.01165 -0.00181885 0)
(1.01109 -0.00191535 0)
(1.01046 -0.00201791 0)
(1.00971 -0.00213421 0)
(1.00881 -0.0022655 0)
(1.00769 -0.00240237 0)
(1.00634 -0.00249526 0)
(1.00478 -0.00253642 0)
(1.00202 -0.00326433 0)
(2.47656 -0.000212595 0)
(2.48481 0.000400972 0)
(2.49008 0.000586731 0)
(2.4942 0.000625185 0)
(2.49662 0.000661658 0)
(2.49767 0.000628448 0)
(2.49762 0.000530526 0)
(2.49679 0.000360177 0)
(2.49549 0.000118736 0)
(2.494 -0.000192014 0)
(2.49259 -0.000568292 0)
(2.49144 -0.00100953 0)
(2.49069 -0.00151879 0)
(2.49046 -0.00210075 0)
(2.49082 -0.00276161 0)
(2.49186 -0.00350961 0)
(2.49364 -0.00435523 0)
(2.49622 -0.00531155 0)
(2.49966 -0.00639409 0)
(2.50405 -0.00762066 0)
(2.50945 -0.00901067 0)
(2.51594 -0.0105843 0)
(2.52361 -0.012361 0)
(2.53255 -0.0143584 0)
(2.54282 -0.01659 0)
(2.55452 -0.0190634 0)
(2.56769 -0.0217784 0)
(2.58239 -0.0247246 0)
(2.59864 -0.0278792 0)
(2.61641 -0.0312052 0)
(2.63567 -0.0346498 0)
(2.65632 -0.0381442 0)
(2.67823 -0.0416043 0)
(2.70123 -0.044933 0)
(2.72511 -0.0480238 0)
(2.74961 -0.0507654 0)
(2.77444 -0.0530464 0)
(2.79931 -0.0547604 0)
(2.82387 -0.0558101 0)
(2.84779 -0.0561111 0)
(2.87074 -0.055594 0)
(2.8924 -0.0542068 0)
(2.91247 -0.0519146 0)
(2.93068 -0.0487003 0)
(2.94678 -0.0445628 0)
(2.96059 -0.0395164 0)
(2.97194 -0.0335892 0)
(2.98071 -0.0268208 0)
(2.98683 -0.0192616 0)
(2.99025 -0.0109709 0)
(2.99096 -0.00201722 0)
(2.989 0.00751823 0)
(2.98438 0.0175527 0)
(2.97719 0.0280003 0)
(2.96754 0.0387669 0)
(2.95555 0.049753 0)
(2.94137 0.060859 0)
(2.92519 0.0719884 0)
(2.90717 0.0830495 0)
(2.88751 0.0939579 0)
(2.86641 0.104638 0)
(2.84405 0.115023 0)
(2.82063 0.125056 0)
(2.79633 0.134691 0)
(2.77134 0.143891 0)
(2.74581 0.152629 0)
(2.7199 0.160887 0)
(2.69375 0.168653 0)
(2.6675 0.175926 0)
(2.64125 0.182707 0)
(2.6151 0.189005 0)
(2.58915 0.194832 0)
(2.56346 0.200203 0)
(2.53809 0.205136 0)
(2.5131 0.209653 0)
(2.48853 0.213772 0)
(2.4644 0.217517 0)
(2.44074 0.220908 0)
(2.41755 0.223968 0)
(2.39485 0.226717 0)
(2.37264 0.229174 0)
(2.3509 0.23136 0)
(2.32964 0.233293 0)
(2.30884 0.234988 0)
(2.28849 0.236463 0)
(2.26856 0.237732 0)
(2.24903 0.238808 0)
(2.22989 0.239704 0)
(2.21111 0.240431 0)
(2.19267 0.241 0)
(2.17453 0.241419 0)
(2.15668 0.241697 0)
(2.13909 0.241842 0)
(2.12173 0.241859 0)
(2.10457 0.241755 0)
(2.08758 0.241535 0)
(2.07074 0.241202 0)
(2.05403 0.24076 0)
(2.03747 0.240211 0)
(2.02077 0.239557 0)
(2.00349 0.238793 0)
(1.98438 0.237845 0)
(1.96352 0.236677 0)
(1.94088 0.235246 0)
(1.91647 0.23351 0)
(1.89039 0.231425 0)
(1.86273 0.228952 0)
(1.8337 0.226056 0)
(1.80352 0.222715 0)
(1.77247 0.218923 0)
(1.74089 0.214687 0)
(1.70913 0.210037 0)
(1.67757 0.205023 0)
(1.64657 0.199709 0)
(1.61649 0.194177 0)
(1.58763 0.188515 0)
(1.56023 0.182815 0)
(1.5345 0.177165 0)
(1.51055 0.171645 0)
(1.48847 0.166323 0)
(1.46827 0.161254 0)
(1.4499 0.156478 0)
(1.43332 0.152022 0)
(1.41843 0.147901 0)
(1.40511 0.144117 0)
(1.39326 0.140668 0)
(1.38277 0.137541 0)
(1.37339 0.134721 0)
(1.36478 0.132173 0)
(1.35628 0.12966 0)
(1.34791 0.127157 0)
(1.3396 0.124651 0)
(1.33133 0.12213 0)
(1.32306 0.119583 0)
(1.31476 0.117 0)
(1.30639 0.11437 0)
(1.29793 0.111683 0)
(1.28936 0.108929 0)
(1.28066 0.1061 0)
(1.27181 0.103187 0)
(1.26279 0.100183 0)
(1.2536 0.0970795 0)
(1.24423 0.0938723 0)
(1.23467 0.0905562 0)
(1.22494 0.0871281 0)
(1.21503 0.0835865 0)
(1.20497 0.0799317 0)
(1.19477 0.0761664 0)
(1.18446 0.0722954 0)
(1.17406 0.0683267 0)
(1.16362 0.0642708 0)
(1.15318 0.0601417 0)
(1.14279 0.0559566 0)
(1.13251 0.051736 0)
(1.12238 0.0475038 0)
(1.11248 0.0432872 0)
(1.10287 0.0391159 0)
(1.0936 0.0350221 0)
(1.08475 0.0310392 0)
(1.07637 0.0272013 0)
(1.06852 0.0235418 0)
(1.06122 0.0200924 0)
(1.05453 0.0168814 0)
(1.04846 0.0139326 0)
(1.04303 0.0112639 0)