/*--------------------------------*- C++ -*----------------------------------*\
| =========                 |                                                 |
| \\      /  F ield         | OpenFOAM: The Open Source CFD Toolbox           |
|  \\    /   O peration     | Version:  2406                                  |
|   \\  /    A nd           | Website:  www.openfoam.com                      |
|    \\/     M anipulation  |                                                 |
\*---------------------------------------------------------------------------*/
FoamFile
{
    version     2.0;
    format      ascii;
    arch        "LSB;label=32;scalar=64";
    class       volScalarField;
    location    "0.5";
    object      p_rgh;
}
// * * * * * * * * * * * * * * * * * * * * * * * * * * * * * * * * * * * * * //

dimensions      [1 -1 -2 0 0 0 0];

internalField   nonuniform List<scalar> 
6250
(
-87.2268
-3229.75
-962.996
598.553
524.859
51.0527
-102.874
-21.9863
53.4249
58.0889
37.4039
27.9273
30.2191
33.7124
34.2021
33.1973
32.5151
32.4034
32.4198
32.3212
32.1444
31.9749
31.834
31.7042
31.5721
31.4376
31.3043
31.1734
31.0441
30.9156
30.7878
30.6605
30.5339
30.4078
30.282
30.1566
30.0314
29.9065
29.7817
29.657
29.5324
29.4078
29.2833
29.1587
29.0341
28.9095
28.7848
28.6601
28.5352
28.4103
28.2852
28.16
28.0347
27.9092
27.7836
27.6579
27.532
27.4059
27.2797
27.1533
27.0268
26.9
26.7731
26.6461
26.5188
26.3914
26.2638
26.136
26.0081
25.8799
25.7516
25.6231
25.4944
25.3655
25.2365
25.1073
24.9778
24.8483
24.7185
24.5885
24.4584
24.328
24.1975
24.0668
23.9359
23.8049
23.6736
23.5422
23.4106
23.2788
23.1469
23.0147
22.8824
22.7499
22.6172
22.4843
22.3513
22.218
22.0846
21.9511
21.8173
21.6834
21.5493
21.415
21.2805
21.1459
21.011
20.876
20.7409
20.6055
20.47
20.3343
20.1985
20.0624
19.9262
19.7899
19.6533
19.5166
19.3797
19.2426
19.1054
18.968
18.8304
18.6927
18.5548
18.4167
18.2784
18.14
18.0014
17.8627
17.7238
17.5847
17.4455
17.306
17.1665
17.0267
16.8868
16.7467
16.6065
16.4661
16.3256
16.1848
16.044
15.9029
15.7617
15.6203
15.4788
15.3371
15.1953
15.0533
14.9111
14.7688
14.6263
14.4837
14.3409
14.1979
14.0548
13.9115
13.7681
13.6245
13.4808
13.3369
13.1928
13.0486
12.9043
12.7598
12.6151
12.4703
12.3253
12.1802
12.0349
11.8895
11.7439
11.5982
11.4523
11.3063
11.1601
11.0138
10.8673
10.7207
10.5739
10.427
10.2799
10.1327
9.98531
9.8378
9.69013
9.54232
9.39436
9.24626
9.09801
8.94962
8.80109
8.65243
8.50362
8.35466
8.20556
8.05632
7.90693
7.75739
7.60771
7.45789
7.30793
7.15784
7.00762
6.85727
6.70678
6.55616
6.4054
6.2545
6.10347
5.95229
5.80099
5.64955
5.49799
5.3463
5.1945
5.04259
4.89056
4.73842
4.58617
4.43381
4.28134
4.12877
3.97609
3.82333
3.67049
3.51759
3.36465
3.21169
3.05872
2.90576
2.75283
2.59996
2.44717
2.29452
2.14208
1.98993
1.83821
1.68707
1.53672
1.38739
1.23949
1.09327
0.950136
0.808301
0.678136
0.525962
0.456728
-0.0224702
-90.748
-3236.38
-966.973
597.822
524.635
50.0149
-104.25
-23.0662
52.6985
57.4965
36.8281
27.384
29.7427
33.3025
33.8402
32.8705
32.2193
32.1369
32.1797
32.1037
31.9466
31.7944
31.669
31.553
31.4332
31.3098
31.1863
31.0643
30.9431
30.8219
30.7006
30.5794
30.4583
30.3371
30.216
30.0948
29.9734
29.852
29.7305
29.6089
29.4871
29.3652
29.243
29.1208
28.9983
28.8757
28.7528
28.6298
28.5066
28.3831
28.2595
28.1356
28.0116
27.8873
27.7629
27.6382
27.5133
27.3882
27.2629
27.1374
27.0116
26.8857
26.7595
26.6332
26.5066
26.3798
26.2529
26.1257
25.9983
25.8707
25.7429
25.6149
25.4866
25.3582
25.2296
25.1008
24.9718
24.8426
24.7132
24.5836
24.4537
24.3237
24.1935
24.0632
23.9326
23.8018
23.6708
23.5397
23.4083
23.2768
23.145
23.0131
22.881
22.7487
22.6162
22.4835
22.3507
22.2176
22.0844
21.951
21.8174
21.6836
21.5497
21.4155
21.2812
21.1467
21.012
20.8772
20.7421
20.6069
20.4715
20.336
20.2002
20.0643
19.9282
19.7919
19.6555
19.5188
19.382
19.2451
19.1079
18.9706
18.8331
18.6954
18.5576
18.4196
18.2814
18.1431
18.0046
17.8659
17.7271
17.588
17.4489
17.3095
17.17
17.0303
16.8905
16.7505
16.6103
16.4699
16.3294
16.1888
16.0479
15.9069
15.7658
15.6244
15.483
15.3413
15.1995
15.0575
14.9154
14.7731
14.6307
14.4881
14.3453
14.2024
14.0593
13.9161
13.7727
13.6292
13.4854
13.3416
13.1976
13.0534
12.9091
12.7646
12.6199
12.4752
12.3302
12.1851
12.0399
11.8945
11.7489
11.6032
11.4574
11.3114
11.1652
11.0189
10.8724
10.7258
10.5791
10.4322
10.2851
10.1379
9.99056
9.84307
9.69544
9.54765
9.39972
9.25163
9.1034
8.95501
8.80648
8.65782
8.50901
8.36007
8.21099
8.06177
7.9124
7.7629
7.61324
7.46343
7.31348
7.16338
7.01315
6.86278
6.71229
6.56167
6.41091
6.26003
6.10901
5.95785
5.80654
5.6551
5.50352
5.3518
5.19997
5.04802
4.89596
4.74378
4.5915
4.4391
4.28658
4.13394
3.98118
3.82829
3.6753
3.52222
3.36906
3.21583
3.06255
2.90922
2.75584
2.60241
2.44893
2.29538
2.14177
1.98807
1.83427
1.68035
1.52624
1.3718
1.21678
1.06075
0.902792
0.742102
0.574392
0.405064
0.203397
0.111823
-90.5781
-3235.65
-966.219
598.269
525
50.4171
-103.795
-22.5829
53.1786
57.953
37.2558
27.7882
30.1278
33.668
34.1843
33.1931
32.5219
32.4212
32.4468
32.3546
32.1822
32.0159
31.8773
31.7491
31.618
31.4839
31.3506
31.2194
31.0896
30.9605
30.8318
30.7036
30.5759
30.4487
30.3218
30.1953
30.069
29.9428
29.8169
29.6911
29.5653
29.4397
29.3141
29.1885
29.0629
28.9373
28.8116
28.6859
28.5601
28.4343
28.3084
28.1823
28.0562
27.93
27.8036
27.6772
27.5506
27.4238
27.2969
27.1699
27.0428
26.9155
26.788
26.6604
26.5326
26.4047
26.2766
26.1483
26.0199
25.8913
25.7626
25.6336
25.5046
25.3753
25.2459
25.1163
24.9865
24.8566
24.7265
24.5962
24.4657
24.3351
24.2043
24.0733
23.9422
23.8108
23.6794
23.5477
23.4158
23.2838
23.1516
23.0193
22.8867
22.754
22.6211
22.488
22.3548
22.2214
22.0878
21.9541
21.8201
21.686
21.5518
21.4173
21.2827
21.1479
21.0129
20.8778
20.7425
20.607
20.4714
20.3356
20.1996
20.0634
19.9271
19.7906
19.6539
19.5171
19.3801
19.2429
19.1056
18.9681
18.8304
18.6926
18.5546
18.4164
18.278
18.1395
18.0009
17.862
17.723
17.5839
17.4445
17.3051
17.1654
17.0256
16.8856
16.7455
16.6051
16.4647
16.3241
16.1833
16.0423
15.9012
15.7599
15.6185
15.4769
15.3351
15.1932
15.0512
14.9089
14.7666
14.624
14.4813
14.3385
14.1955
14.0523
13.909
13.7655
13.6218
13.4781
13.3341
13.19
13.0458
12.9014
12.7568
12.6121
12.4672
12.3222
12.177
12.0317
11.8862
11.7406
11.5948
11.4489
11.3028
11.1566
11.0103
10.8637
10.7171
10.5702
10.4233
10.2762
10.1289
9.98148
9.83393
9.68624
9.5384
9.39041
9.24228
9.094
8.94557
8.797
8.64828
8.49941
8.35041
8.20126
8.05198
7.90256
7.753
7.6033
7.45346
7.30347
7.15334
7.00306
6.85265
6.70211
6.55143
6.40062
6.24967
6.0986
5.94738
5.79603
5.64454
5.49292
5.34116
5.18928
5.03727
4.88515
4.73291
4.58056
4.42808
4.27548
4.12275
3.9699
3.81692
3.66384
3.51064
3.35735
3.20397
3.05049
2.89693
2.74327
2.5895
2.43562
2.28162
2.12748
1.97317
1.81866
1.66388
1.50874
1.35312
1.19682
1.03962
0.881061
0.721202
0.557973
0.396943
0.219674
0.107232
-91.0824
-3236.87
-967.483
597.247
524.197
49.7088
-104.497
-23.2866
52.5067
57.3308
36.6777
27.2435
29.6122
33.1814
33.7265
32.7621
32.1154
32.0374
32.0842
32.0119
31.8579
31.7087
31.5861
31.4726
31.3554
31.2342
31.1129
30.9929
30.8736
30.7543
30.6347
30.5151
30.3955
30.2759
30.1561
30.0362
29.9162
29.796
29.6756
29.5551
29.4344
29.3134
29.1923
29.0709
28.9493
28.8275
28.7055
28.5832
28.4608
28.338
28.2151
28.0919
27.9685
27.8449
27.721
27.5969
27.4725
27.348
27.2232
27.0982
26.9729
26.8474
26.7217
26.5958
26.4697
26.3433
26.2167
26.0899
25.9629
25.8357
25.7082
25.5805
25.4527
25.3246
25.1963
25.0678
24.9391
24.8101
24.681
24.5517
24.4221
24.2924
24.1625
24.0323
23.902
23.7714
23.6407
23.5098
23.3786
23.2473
23.1158
22.9841
22.8522
22.7201
22.5878
22.4553
22.3226
22.1898
22.0567
21.9235
21.7901
21.6565
21.5227
21.3887
21.2545
21.1202
20.9857
20.851
20.7161
20.581
20.4458
20.3103
20.1747
20.0389
19.903
19.7668
19.6305
19.494
19.3573
19.2205
19.0835
18.9463
18.8089
18.6714
18.5337
18.3958
18.2577
18.1195
17.9811
17.8425
17.7038
17.5649
17.4258
17.2866
17.1472
17.0076
16.8678
16.7279
16.5879
16.4476
16.3072
16.1666
16.0259
15.885
15.7439
15.6027
15.4613
15.3198
15.1781
15.0362
14.8941
14.7519
14.6096
14.4671
14.3244
14.1816
14.0386
13.8954
13.7521
13.6087
13.465
13.3213
13.1773
13.0332
12.889
12.7446
12.6
12.4553
12.3105
12.1654
12.0203
11.8749
11.7295
11.5838
11.4381
11.2921
11.146
10.9998
10.8534
10.7069
10.5602
10.4134
10.2664
10.1193
9.972
9.82457
9.67699
9.52927
9.3814
9.23339
9.08523
8.93693
8.78848
8.63989
8.49116
8.34227
8.19325
8.04407
7.89475
7.74529
7.59569
7.44594
7.29605
7.14603
6.99587
6.84558
6.69515
6.54458
6.39386
6.24301
6.09201
5.94088
5.7896
5.63818
5.48664
5.33496
5.18317
5.03125
4.8792
4.72703
4.57473
4.42229
4.26971
4.11699
3.96413
3.81115
3.65804
3.50483
3.35151
3.19809
3.04454
2.89086
2.73703
2.58302
2.42883
2.27443
2.11982
1.96497
1.80987
1.65445
1.49865
1.34235
1.1854
1.02767
0.868914
0.709279
0.547882
0.387967
0.221247
0.087363
-91.3454
-3237.33
-967.76
597.161
524.21
49.7507
-104.441
-23.2008
52.632
57.4906
36.8602
27.4398
29.8188
33.3968
33.9485
32.988
32.3428
32.2647
32.3102
32.2356
32.0785
31.9256
31.7987
31.6807
31.5586
31.4324
31.306
31.1809
31.0564
30.9319
30.8072
30.6826
30.5581
30.4336
30.3092
30.1847
30.0602
29.9357
29.8111
29.6865
29.5618
29.4371
29.3123
29.1873
29.0623
28.9372
28.812
28.6866
28.5612
28.4356
28.3099
28.184
28.058
27.9319
27.8056
27.6792
27.5527
27.4259
27.2991
27.172
27.0449
26.9175
26.79
26.6623
26.5345
26.4065
26.2784
26.1501
26.0216
25.8929
25.7641
25.6351
25.5059
25.3766
25.2471
25.1174
24.9876
24.8576
24.7274
24.597
24.4665
24.3358
24.2049
24.0739
23.9427
23.8113
23.6797
23.548
23.4161
23.284
23.1517
23.0193
22.8867
22.7539
22.621
22.4878
22.3545
22.2211
22.0874
21.9536
21.8197
21.6855
21.5512
21.4167
21.282
21.1472
21.0122
20.877
20.7416
20.6061
20.4704
20.3346
20.1985
20.0623
19.926
19.7894
19.6527
19.5159
19.3788
19.2416
19.1042
18.9667
18.829
18.6911
18.5531
18.4149
18.2765
18.138
17.9993
17.8604
17.7214
17.5822
17.4428
17.3033
17.1636
17.0238
16.8838
16.7436
16.6032
16.4628
16.3221
16.1813
16.0403
15.8992
15.7579
15.6164
15.4748
15.333
15.1911
15.049
14.9068
14.7643
14.6218
14.4791
14.3362
14.1931
14.05
13.9066
13.7631
13.6195
13.4757
13.3317
13.1876
13.0433
12.8989
12.7543
12.6096
12.4647
12.3196
12.1745
12.0291
11.8836
11.738
11.5922
11.4463
11.3002
11.1539
11.0075
10.861
10.7143
10.5675
10.4205
10.2734
10.1261
9.97868
9.83111
9.6834
9.53553
9.38752
9.23936
9.09105
8.9426
8.79402
8.64529
8.49643
8.34742
8.19828
8.04898
7.89954
7.74995
7.60021
7.45032
7.3003
7.15014
6.99985
6.84943
6.69888
6.54819
6.39737
6.2464
6.09528
5.94401
5.79259
5.64104
5.48935
5.33754
5.18561
5.03356
4.88138
4.72908
4.57664
4.42406
4.27132
4.11842
3.96538
3.8122
3.65889
3.50547
3.35192
3.19826
3.04447
2.89054
2.73643
2.58212
2.4276
2.27283
2.11781
1.96252
1.80694
1.65106
1.49484
1.33821
1.18111
1.02346
0.86512
0.706253
0.546012
0.387344
0.221815
0.087409
-91.5715
-3237.79
-968.175
596.827
523.892
49.4151
-104.787
-23.5419
52.3012
57.1679
36.5428
27.1276
29.5128
33.0979
33.6568
32.7033
32.065
31.9938
32.0463
31.9785
31.8283
31.682
31.5617
31.4501
31.3342
31.2141
31.0937
30.9743
30.8554
30.7363
30.6169
30.4973
30.3777
30.258
30.1381
30.0181
29.8979
29.7775
29.6569
29.5361
29.4152
29.294
29.1727
29.0511
28.9293
28.8073
28.6851
28.5627
28.4401
28.3172
28.1941
28.0708
27.9473
27.8235
27.6995
27.5753
27.4509
27.3263
27.2014
27.0763
26.951
26.8255
26.6997
26.5738
26.4476
26.3212
26.1946
26.0678
25.9408
25.8135
25.6861
25.5584
25.4306
25.3025
25.1742
25.0457
24.917
24.7881
24.659
24.5297
24.4002
24.2705
24.1406
24.0105
23.8802
23.7497
23.619
23.4881
23.3571
23.2258
23.0943
22.9627
22.8308
22.6988
22.5665
22.4341
22.3015
22.1687
22.0357
21.9025
21.7692
21.6356
21.5019
21.368
21.2339
21.0996
20.9652
20.8305
20.6957
20.5607
20.4255
20.2901
20.1546
20.0189
19.883
19.7469
19.6107
19.4742
19.3376
19.2008
19.0639
18.9268
18.7895
18.652
18.5143
18.3765
18.2385
18.1004
17.9621
17.8236
17.6849
17.546
17.407
17.2679
17.1285
16.989
16.8493
16.7095
16.5695
16.4293
16.289
16.1484
16.0078
15.8669
15.7259
15.5848
15.4435
15.302
15.1603
15.0185
14.8765
14.7344
14.5921
14.4497
14.3071
14.1643
14.0214
13.8783
13.735
13.5916
13.4481
13.3044
13.1605
13.0165
12.8723
12.7279
12.5834
12.4388
12.294
12.149
12.0039
11.8586
11.7132
11.5677
11.4219
11.2761
11.1301
10.9839
10.8375
10.6911
10.5444
10.3977
10.2507
10.1037
9.95644
9.80908
9.66157
9.51391
9.36609
9.21813
9.07001
8.92175
8.77335
8.6248
8.47611
8.32729
8.17832
8.02921
7.87995
7.73054
7.58098
7.43128
7.28142
7.13143
6.9813
6.83104
6.68064
6.53011
6.37944
6.22863
6.07767
5.92655
5.77529
5.62388
5.47234
5.32066
5.16886
5.01693
4.86488
4.71269
4.56035
4.40787
4.25523
4.10243
3.94947
3.79637
3.64313
3.48976
3.33626
3.18261
3.02881
2.87485
2.72069
2.56634
2.41176
2.25695
2.1019
1.94659
1.791
1.63511
1.47889
1.32231
1.16533
1.00796
0.850128
0.692086
0.533147
0.376364
0.214003
0.0836856
-91.7488
-3238.14
-968.461
596.633
523.743
49.2822
-104.903
-23.6339
52.2371
57.1295
36.5265
27.131
29.5345
33.1363
33.71
32.7696
32.1427
32.0814
32.1424
32.082
31.9379
31.7968
31.6807
31.5725
31.4593
31.3413
31.2223
31.1039
30.9856
30.8666
30.7471
30.6271
30.5068
30.3862
30.2652
30.144
30.0224
29.9006
29.7785
29.6561
29.5335
29.4107
29.2876
29.1643
29.0407
28.917
28.793
28.6688
28.5444
28.4198
28.295
28.17
28.0448
27.9194
27.7939
27.6681
27.5421
27.4159
27.2896
27.163
27.0363
26.9094
26.7823
26.655
26.5275
26.3999
26.272
26.144
26.0158
25.8874
25.7588
25.63
25.5011
25.372
25.2427
25.1132
24.9835
24.8537
24.7236
24.5934
24.463
24.3325
24.2017
24.0708
23.9397
23.8084
23.6769
23.5453
23.4135
23.2815
23.1493
23.0169
22.8844
22.7517
22.6188
22.4857
22.3525
22.2191
22.0855
21.9517
21.8178
21.6837
21.5494
21.415
21.2803
21.1455
21.0105
20.8754
20.7401
20.6046
20.4689
20.3331
20.1971
20.0609
19.9245
19.788
19.6513
19.5145
19.3774
19.2402
19.1029
18.9653
18.8276
18.6898
18.5517
18.4135
18.2752
18.1366
17.9979
17.8591
17.72
17.5808
17.4415
17.302
17.1623
17.0224
16.8824
16.7422
16.6019
16.4614
16.3207
16.1799
16.0389
15.8978
15.7565
15.615
15.4734
15.3316
15.1897
15.0476
14.9053
14.7629
14.6203
14.4776
14.3347
14.1917
14.0485
13.9051
13.7616
13.618
13.4741
13.3302
13.186
13.0418
12.8973
12.7527
12.608
12.4631
12.3181
12.1729
12.0275
11.882
11.7364
11.5906
11.4446
11.2985
11.1523
11.0059
10.8593
10.7126
10.5658
10.4188
10.2716
10.1243
9.9769
9.82932
9.6816
9.53372
9.3857
9.23754
9.08923
8.94077
8.79217
8.64343
8.49454
8.34551
8.19634
8.04702
7.89756
7.74796
7.59821
7.44832
7.29829
7.14811
6.9978
6.84736
6.69677
6.54605
6.39518
6.24417
6.09301
5.9417
5.79025
5.63866
5.48694
5.33508
5.1831
5.03098
4.87873
4.72633
4.57379
4.42108
4.26821
4.11519
3.96201
3.8087
3.65525
3.50166
3.34794
3.19406
3.04002
2.88578
2.73134
2.57667
2.42178
2.26668
2.11136
1.95583
1.80008
1.64409
1.48781
1.33122
1.17428
1.01697
0.859238
0.701317
0.542386
0.385275
0.221246
0.0877674
-91.8875
-3238.41
-968.693
596.463
523.593
49.1249
-105.067
-23.7952
52.0823
56.9797
36.3793
26.9854
29.3904
32.9939
33.5691
32.6299
32.0039
31.9434
32.0052
31.9455
31.8021
31.6617
31.5463
31.4388
31.3264
31.2091
31.091
30.9734
30.856
30.738
30.6195
30.5005
30.3813
30.2618
30.142
30.0219
29.9015
29.7809
29.66
29.5389
29.4175
29.2959
29.174
29.052
28.9297
28.8072
28.6844
28.5615
28.4383
28.3149
28.1913
28.0675
27.9434
27.8192
27.6947
27.5701
27.4452
27.3202
27.1949
27.0694
26.9437
26.8178
26.6917
26.5654
26.4389
26.3122
26.1853
26.0582
25.9309
25.8034
25.6757
25.5478
25.4197
25.2914
25.1629
25.0342
24.9053
24.7762
24.647
24.5175
24.3878
24.258
24.128
23.9977
23.8673
23.7367
23.6059
23.4749
23.3437
23.2124
23.0808
22.9491
22.8172
22.685
22.5528
22.4203
22.2876
22.1548
22.0217
21.8885
21.7551
21.6215
21.4878
21.3538
21.2197
21.0854
20.951
20.8163
20.6815
20.5464
20.4113
20.2759
20.1403
20.0046
19.8687
19.7327
19.5964
19.46
19.3234
19.1866
19.0497
18.9126
18.7753
18.6379
18.5002
18.3624
18.2245
18.0863
17.948
17.8095
17.6709
17.5321
17.3931
17.254
17.1146
16.9752
16.8355
16.6957
16.5557
16.4156
16.2753
16.1348
15.9942
15.8534
15.7124
15.5713
15.43
15.2885
15.1469
15.0052
14.8632
14.7211
14.5789
14.4365
14.2939
14.1512
14.0083
13.8652
13.722
13.5787
13.4351
13.2915
13.1476
13.0036
12.8595
12.7152
12.5707
12.4261
12.2814
12.1365
11.9914
11.8462
11.7008
11.5553
11.4096
11.2637
11.1178
10.9716
10.8253
10.6789
10.5323
10.3856
10.2387
10.0917
9.94449
9.79716
9.64968
9.50204
9.35426
9.20634
9.05827
8.91005
8.7617
8.6132
8.46455
8.31576
8.16683
8.01774
7.8685
7.71911
7.56957
7.4199
7.27008
7.12013
6.97005
6.81982
6.66946
6.51895
6.36829
6.21748
6.06651
5.91539
5.76412
5.61272
5.46119
5.30953
5.15774
5.00581
4.85374
4.70152
4.54913
4.39657
4.24385
4.09096
3.93792
3.78474
3.63142
3.47797
3.32438
3.17064
3.01672
2.86261
2.70827
2.55371
2.39893
2.24391
2.08869
1.93327
1.77767
1.62187
1.46586
1.30961
1.1531
0.996326
0.839232
0.682117
0.524389
0.369175
0.20915
0.0814172
-91.9947
-3238.63
-968.873
596.332
523.48
49.0115
-105.179
-23.8978
51.9931
56.9032
36.3139
26.9304
29.3461
32.9603
33.5457
32.6161
31.9993
31.9473
32.0171
31.9648
31.8283
31.6942
31.5845
31.4824
31.3747
31.2618
31.1476
31.0337
30.9194
30.8043
30.6882
30.5715
30.4543
30.3365
30.2182
30.0994
29.9801
29.8605
29.7404
29.6199
29.4991
29.3779
29.2564
29.1345
29.0124
28.8899
28.7672
28.6442
28.5209
28.3973
28.2735
28.1495
28.0252
27.9006
27.7758
27.6508
27.5256
27.4001
27.2744
27.1485
27.0224
26.8961
26.7695
26.6428
26.5158
26.3886
26.2612
26.1336
26.0058
25.8779
25.7497
25.6213
25.4927
25.3639
25.2349
25.1057
24.9764
24.8468
24.717
24.5871
24.457
24.3266
24.1961
24.0654
23.9345
23.8034
23.6721
23.5407
23.409
23.2772
23.1452
23.013
22.8806
22.748
22.6153
22.4823
22.3492
22.2159
22.0825
21.9488
21.815
21.681
21.5468
21.4124
21.2779
21.1431
21.0082
20.8732
20.7379
20.6025
20.4669
20.3311
20.1951
20.059
19.9227
19.7863
19.6496
19.5128
19.3758
19.2387
19.1013
18.9638
18.8262
18.6883
18.5503
18.4122
18.2738
18.1353
17.9966
17.8578
17.7188
17.5796
17.4403
17.3008
17.1611
17.0213
16.8813
16.7411
16.6008
16.4603
16.3197
16.1788
16.0379
15.8967
15.7554
15.614
15.4724
15.3306
15.1887
15.0466
14.9043
14.7619
14.6193
14.4766
14.3337
14.1907
14.0475
13.9041
13.7606
13.617
13.4731
13.3292
13.185
13.0408
12.8963
12.7517
12.607
12.4621
12.317
12.1718
12.0265
11.881
11.7353
11.5895
11.4436
11.2975
11.1512
11.0048
10.8583
10.7115
10.5647
10.4177
10.2706
10.1233
9.97583
9.82825
9.68052
9.53263
9.3846
9.23641
9.08809
8.93962
8.79101
8.64227
8.49338
8.34435
8.19518
8.04585
7.89638
7.74675
7.59698
7.44706
7.29701
7.14682
6.99649
6.84604
6.69545
6.54471
6.39382
6.24278
6.09158
5.94023
5.78874
5.6371
5.48534
5.33344
5.18142
5.02926
4.87696
4.7245
4.57188
4.41909
4.26613
4.113
3.95973
3.80631
3.65275
3.49905
3.3452
3.1912
3.03702
2.88265
2.72807
2.57328
2.41829
2.26309
2.10769
1.95211
1.79633
1.64036
1.48419
1.32782
1.17124
1.01446
0.857375
0.700196
0.542017
0.385549
0.221861
0.0882714
-92.0744
-3238.78
-969.008
596.233
523.395
48.9238
-105.269
-23.9844
51.9126
56.8278
36.2418
26.8608
29.2789
32.8954
33.4828
32.5546
31.9387
31.8875
31.9577
31.9056
31.7691
31.6347
31.5247
31.422
31.3137
31.2001
31.0851
30.9703
30.8552
30.7392
30.6223
30.5048
30.3867
30.2681
30.1489
30.0294
29.9094
29.789
29.6682
29.5471
29.4257
29.304
29.1819
29.0596
28.937
28.8142
28.6911
28.5677
28.4441
28.3203
28.1963
28.072
27.9475
27.8228
27.6979
27.5728
27.4475
27.322
27.1963
27.0704
26.9443
26.818
26.6915
26.5648
26.4379
26.3109
26.1836
26.0561
25.9285
25.8007
25.6727
25.5445
25.4161
25.2875
25.1588
25.0298
24.9007
24.7714
24.6419
24.5122
24.3823
24.2523
24.1221
23.9917
23.8611
23.7303
23.5993
23.4682
23.3369
23.2054
23.0737
22.9418
22.8098
22.6776
22.5451
22.4126
22.2798
22.1469
22.0138
21.8805
21.747
21.6133
21.4795
21.3455
21.2113
21.077
20.9424
20.8077
20.6729
20.5378
20.4026
20.2672
20.1316
19.9958
19.8599
19.7238
19.5875
19.4511
19.3145
19.1777
19.0407
18.9036
18.7663
18.6289
18.4912
18.3534
18.2155
18.0773
17.939
17.8005
17.6619
17.5231
17.3841
17.2449
17.1056
16.9662
16.8265
16.6867
16.5467
16.4066
16.2663
16.1259
15.9852
15.8444
15.7035
15.5624
15.4211
15.2797
15.1381
14.9963
14.8544
14.7123
14.5701
14.4277
14.2852
14.1424
13.9996
13.8565
13.7134
13.57
13.4265
13.2829
13.1391
12.9951
12.851
12.7067
12.5623
12.4177
12.2729
12.128
11.983
11.8378
11.6924
11.5469
11.4013
11.2555
11.1095
10.9634
10.8171
10.6707
10.5242
10.3774
10.2306
10.0836
9.93642
9.78912
9.64167
9.49406
9.34631
9.19841
9.05036
8.90216
8.75382
8.60534
8.45672
8.30795
8.15903
8.00997
7.86075
7.71139
7.56188
7.41222
7.26242
7.11248
6.96241
6.8122
6.66184
6.51134
6.36069
6.20988
6.05892
5.90781
5.75655
5.60515
5.45362
5.30195
5.15015
4.99821
4.84611
4.69385
4.54143
4.38883
4.23607
4.08315
3.93008
3.77686
3.62351
3.47002
3.31637
3.16254
3.00852
2.8543
2.69987
2.54525
2.39044
2.23545
2.0803
1.92499
1.76951
1.61385
1.45797
1.30189
1.1456
0.989151
0.832537
0.676085
0.519225
0.365059
0.206419
0.0801159
-92.1294
-3238.89
-969.103
596.164
523.336
48.8628
-105.332
-24.0445
51.8579
56.7784
36.1965
26.8194
29.2418
32.8628
33.4547
32.5309
31.9193
31.8723
31.9466
31.8985
31.7659
31.6353
31.5288
31.4296
31.3247
31.2143
31.1024
30.9906
30.8783
30.765
30.6507
30.5355
30.4198
30.3034
30.1864
30.0689
29.9508
29.8323
29.7133
29.5938
29.4739
29.3537
29.2331
29.1121
28.9908
28.8691
28.7471
28.6249
28.5023
28.3794
28.2563
28.1329
28.0092
27.8852
27.761
27.6366
27.5119
27.3869
27.2617
27.1363
27.0106
26.8847
26.7586
26.6323
26.5057
26.3789
26.2519
26.1246
25.9972
25.8695
25.7417
25.6136
25.4853
25.3568
25.2281
25.0991
24.97
24.8407
24.7112
24.5814
24.4515
24.3214
24.1911
24.0605
23.9298
23.7989
23.6678
23.5365
23.405
23.2733
23.1415
23.0094
22.8771
22.7447
22.6121
22.4793
22.3463
22.2131
22.0797
21.9461
21.8124
21.6785
21.5444
21.4101
21.2756
21.141
21.0062
20.8711
20.736
20.6006
20.4651
20.3293
20.1934
20.0574
19.9211
19.7847
19.6481
19.5113
19.3744
19.2373
19.1
18.9625
18.8249
18.6871
18.5491
18.411
18.2727
18.1342
17.9956
17.8568
17.7178
17.5786
17.4393
17.2998
17.1602
17.0204
16.8804
16.7402
16.5999
16.4595
16.3188
16.178
16.0371
15.8959
15.7547
15.6132
15.4716
15.3298
15.1879
15.0458
14.9036
14.7612
14.6186
14.4759
14.333
14.19
14.0468
13.9035
13.76
13.6163
13.4725
13.3285
13.1844
13.0401
12.8957
12.7511
12.6063
12.4614
12.3164
12.1712
12.0258
11.8803
11.7347
11.5889
11.4429
11.2968
11.1506
11.0042
10.8576
10.7109
10.5641
10.4171
10.2699
10.1226
9.97518
9.82759
9.67985
9.53196
9.38393
9.23575
9.08743
8.93896
8.79036
8.64161
8.49271
8.34367
8.19448
8.04514
7.89565
7.74602
7.59625
7.44633
7.29628
7.14609
6.99576
6.8453
6.69468
6.54392
6.393
6.24193
6.09071
5.93935
5.78784
5.6362
5.48442
5.33251
5.18047
5.02827
4.87592
4.72341
4.57072
4.41786
4.26484
4.11167
3.95835
3.80489
3.65131
3.49757
3.34369
3.18963
3.03537
2.88091
2.72623
2.57136
2.4163
2.26107
2.1057
1.9502
1.79456
1.63876
1.48279
1.32662
1.17023
1.01362
0.856735
0.699797
0.541916
0.38578
0.222308
0.0886268
-92.1615
-3238.96
-969.159
596.123
523.301
48.8274
-105.369
-24.0809
51.8246
56.7479
36.1679
26.7921
29.2159
32.8384
33.4316
32.5088
31.898
31.8515
31.9262
31.8783
31.7456
31.6147
31.5079
31.4081
31.3025
31.1913
31.0784
30.9655
30.8521
30.7375
30.6219
30.5055
30.3883
30.2705
30.1521
30.0331
29.9135
29.7935
29.673
29.5521
29.4308
29.3091
29.1871
29.0648
28.9421
28.8191
28.6959
28.5724
28.4487
28.3246
28.2004
28.0759
27.9512
27.8263
27.7012
27.5758
27.4503
27.3245
27.1986
27.0724
26.9461
26.8195
26.6928
26.5659
26.4388
26.3115
26.1841
26.0564
25.9286
25.8006
25.6724
25.544
25.4154
25.2867
25.1578
25.0287
24.8994
24.7699
24.6403
24.5105
24.3805
24.2503
24.12
23.9894
23.8587
23.7278
23.5968
23.4656
23.3341
23.2025
23.0708
22.9388
22.8067
22.6744
22.5419
22.4093
22.2765
22.1435
22.0103
21.8769
21.7434
21.6097
21.4758
21.3418
21.2076
21.0732
20.9386
20.8039
20.669
20.5339
20.3986
20.2632
20.1276
19.9918
19.8558
19.7197
19.5834
19.447
19.3103
19.1735
19.0366
18.8994
18.7621
18.6246
18.487
18.3492
18.2112
18.0731
17.9347
17.7963
17.6576
17.5188
17.3798
17.2407
17.1013
16.9619
16.8222
16.6824
16.5424
16.4023
16.262
16.1216
15.9809
15.8401
15.6992
15.5581
15.4168
15.2754
15.1338
14.9921
14.8501
14.7081
14.5658
14.4235
14.2809
14.1382
13.9953
13.8523
13.7091
13.5658
13.4223
13.2787
13.1349
12.9909
12.8468
12.7025
12.5581
12.4135
12.2688
12.1239
11.9789
11.8337
11.6883
11.5429
11.3972
11.2514
11.1055
10.9593
10.8131
10.6667
10.5201
10.3734
10.2266
10.0796
9.93246
9.78517
9.63772
9.49011
9.34237
9.19447
9.04643
8.89825
8.74993
8.60147
8.45286
8.3041
8.15519
8.00613
7.85691
7.70755
7.55804
7.40839
7.2586
7.10868
6.95863
6.80843
6.65808
6.50758
6.35692
6.2061
6.05513
5.90401
5.75276
5.60136
5.44984
5.29818
5.14638
4.99443
4.84232
4.69004
4.53758
4.38495
4.23217
4.07922
3.92614
3.77291
3.61955
3.46604
3.31236
3.15851
3.00447
2.85023
2.69579
2.54115
2.38634
2.23135
2.07621
1.92092
1.76549
1.60991
1.45418
1.29829
1.14224
0.986055
0.829721
0.673552
0.517002
0.363212
0.205157
0.0795277
-92.1719
-3238.98
-969.178
596.109
523.29
48.8158
-105.382
-24.0931
51.8135
56.7379
36.1586
26.7834
29.2079
32.8313
33.4255
32.5037
31.8938
31.8484
31.9243
31.8776
31.7462
31.6167
31.5113
31.413
31.3089
31.1993
31.0881
30.9768
30.8651
30.7524
30.6385
30.5239
30.4086
30.2926
30.176
30.0588
29.9411
29.8229
29.7042
29.5851
29.4655
29.3455
29.2252
29.1045
28.9834
28.862
28.7403
28.6182
28.4959
28.3732
28.2503
28.1271
28.0036
27.8798
27.7558
27.6315
27.507
27.3822
27.2572
27.1319
27.0064
26.8807
26.7547
26.6285
26.502
26.3754
26.2485
26.1214
25.994
25.8665
25.7387
25.6107
25.4825
25.3541
25.2255
25.0967
24.9676
24.8384
24.7089
24.5793
24.4494
24.3194
24.1891
24.0587
23.928
23.7972
23.6661
23.5349
23.4034
23.2718
23.14
23.008
22.8758
22.7434
22.6108
22.478
22.345
22.2119
22.0786
21.945
21.8113
21.6774
21.5434
21.4091
21.2747
21.14
21.0052
20.8703
20.7351
20.5998
20.4642
20.3285
20.1927
20.0566
19.9204
19.784
19.6474
19.5107
19.3737
19.2366
19.0994
18.9619
18.8243
18.6865
18.5486
18.4104
18.2721
18.1337
17.995
17.8562
17.7173
17.5781
17.4388
17.2993
17.1597
17.0199
16.8799
16.7398
16.5995
16.459
16.3184
16.1776
16.0367
15.8955
15.7543
15.6128
15.4712
15.3295
15.1875
15.0455
14.9032
14.7608
14.6183
14.4755
14.3327
14.1896
14.0465
13.9031
13.7596
13.616
13.4721
13.3282
13.1841
13.0398
12.8953
12.7508
12.606
12.4611
12.3161
12.1709
12.0255
11.88
11.7344
11.5886
11.4426
11.2965
11.1503
11.0039
10.8573
10.7106
10.5637
10.4168
10.2696
10.1223
9.97488
9.82729
9.67955
9.53166
9.38363
9.23544
9.08712
8.93865
8.79005
8.6413
8.49241
8.34337
8.19418
8.04484
7.89535
7.74571
7.59593
7.44602
7.29596
7.14577
6.99544
6.84498
6.69436
6.54359
6.39267
6.24159
6.09036
5.93899
5.78748
5.63583
5.48406
5.33214
5.18009
5.02788
4.87551
4.72297
4.57026
4.41739
4.26435
4.11118
3.95786
3.80441
3.65081
3.49706
3.34314
3.18903
3.03473
2.88023
2.72554
2.57068
2.41566
2.26049
2.10517
1.9497
1.79406
1.63824
1.48224
1.32606
1.1697
1.01319
0.856454
0.699684
0.541933
0.385839
0.222321
0.0886131
-92.1615
-3238.96
-969.159
596.123
523.301
48.8274
-105.369
-24.0809
51.8246
56.7479
36.1679
26.7921
29.2159
32.8384
33.4316
32.5088
31.898
31.8515
31.9262
31.8783
31.7456
31.6147
31.5079
31.4081
31.3025
31.1913
31.0784
30.9655
30.8521
30.7375
30.6219
30.5055
30.3883
30.2705
30.1521
30.0331
29.9135
29.7935
29.673
29.5521
29.4308
29.3091
29.1871
29.0648
28.9421
28.8191
28.6959
28.5724
28.4487
28.3246
28.2004
28.0759
27.9512
27.8263
27.7012
27.5758
27.4503
27.3245
27.1986
27.0724
26.9461
26.8195
26.6928
26.5659
26.4388
26.3115
26.1841
26.0564
25.9286
25.8006
25.6724
25.544
25.4154
25.2867
25.1578
25.0287
24.8994
24.7699
24.6403
24.5105
24.3805
24.2503
24.12
23.9894
23.8587
23.7278
23.5968
23.4656
23.3341
23.2025
23.0708
22.9388
22.8067
22.6744
22.5419
22.4093
22.2765
22.1435
22.0103
21.8769
21.7434
21.6097
21.4758
21.3418
21.2076
21.0732
20.9386
20.8039
20.669
20.5339
20.3986
20.2632
20.1276
19.9918
19.8558
19.7197
19.5834
19.447
19.3103
19.1735
19.0366
18.8994
18.7621
18.6246
18.487
18.3492
18.2112
18.0731
17.9347
17.7963
17.6576
17.5188
17.3798
17.2407
17.1013
16.9619
16.8222
16.6824
16.5424
16.4023
16.262
16.1216
15.9809
15.8401
15.6992
15.5581
15.4168
15.2754
15.1338
14.9921
14.8501
14.7081
14.5658
14.4235
14.2809
14.1382
13.9953
13.8523
13.7091
13.5658
13.4223
13.2787
13.1349
12.9909
12.8468
12.7025
12.5581
12.4135
12.2688
12.1239
11.9789
11.8337
11.6883
11.5429
11.3972
11.2514
11.1055
10.9593
10.8131
10.6667
10.5201
10.3734
10.2266
10.0796
9.93246
9.78516
9.63771
9.49011
9.34237
9.19448
9.04644
8.89826
8.74994
8.60147
8.45286
8.30409
8.15518
8.00611
7.8569
7.70754
7.55804
7.4084
7.25862
7.1087
6.95864
6.80844
6.65808
6.50757
6.3569
6.20608
6.05512
5.90401
5.75276
5.60138
5.44986
5.29821
5.1464
4.99444
4.84231
4.69001
4.53755
4.38492
4.23213
4.0792
3.92614
3.77294
3.6196
3.4661
3.31242
3.15854
3.00446
2.85018
2.69571
2.54106
2.38625
2.23131
2.07623
1.92101
1.76563
1.61007
1.4543
1.29833
1.14218
0.985897
0.829507
0.67335
0.516879
0.363203
0.205227
0.0795785
-92.1294
-3238.89
-969.103
596.164
523.336
48.8628
-105.332
-24.0445
51.8579
56.7784
36.1965
26.8194
29.2418
32.8628
33.4547
32.5309
31.9193
31.8723
31.9466
31.8985
31.7659
31.6353
31.5288
31.4296
31.3247
31.2143
31.1024
30.9906
30.8783
30.765
30.6507
30.5355
30.4198
30.3034
30.1864
30.0689
29.9508
29.8323
29.7133
29.5938
29.4739
29.3537
29.2331
29.1121
28.9908
28.8691
28.7471
28.6249
28.5023
28.3794
28.2563
28.1329
28.0092
27.8852
27.761
27.6366
27.5119
27.3869
27.2617
27.1363
27.0106
26.8847
26.7586
26.6323
26.5057
26.3789
26.2519
26.1246
25.9972
25.8695
25.7417
25.6136
25.4853
25.3568
25.2281
25.0991
24.97
24.8407
24.7112
24.5814
24.4515
24.3214
24.1911
24.0605
23.9298
23.7989
23.6678
23.5365
23.405
23.2733
23.1415
23.0094
22.8771
22.7447
22.6121
22.4793
22.3463
22.2131
22.0797
21.9461
21.8124
21.6785
21.5444
21.4101
21.2756
21.141
21.0062
20.8711
20.736
20.6006
20.4651
20.3293
20.1934
20.0574
19.9211
19.7847
19.6481
19.5113
19.3744
19.2373
19.1
18.9625
18.8249
18.6871
18.5491
18.411
18.2727
18.1342
17.9956
17.8568
17.7178
17.5786
17.4393
17.2998
17.1602
17.0204
16.8804
16.7402
16.5999
16.4595
16.3188
16.178
16.0371
15.8959
15.7547
15.6132
15.4716
15.3299
15.1879
15.0458
14.9036
14.7612
14.6186
14.4759
14.333
14.19
14.0468
13.9035
13.76
13.6163
13.4725