/*--------------------------------*- C++ -*----------------------------------*\
| =========                 |                                                 |
| \\      /  F ield         | OpenFOAM: The Open Source CFD Toolbox           |
|  \\    /   O peration     | Version:  2406                                  |
|   \\  /    A nd           | Website:  www.openfoam.com                      |
|    \\/     M anipulation  |                                                 |
\*---------------------------------------------------------------------------*/
FoamFile
{
    version     2.0;
    format      ascii;
    arch        "LSB;label=32;scalar=64";
    class       surfaceScalarField;
    location    "0.7";
    object      alphaPhi0.air;
}
// * * * * * * * * * * * * * * * * * * * * * * * * * * * * * * * * * * * * * //

dimensions      [0 3 -1 0 0 0 0];

oriented        oriented;

internalField   nonuniform List<scalar> 
12225
(
0.491402
1.46497e-06
0.491396
6.60467e-06
0.491387
8.15845e-06
0.491382
5.87311e-06
0.491377
4.3438e-06
0.491373
4.17072e-06
0.491368
4.81636e-06
0.491363
5.23211e-06
0.491357
5.57216e-06
0.491352
5.5459e-06
0.491346
5.71209e-06
0.49134
6.2849e-06
0.491333
6.6134e-06
0.491327
6.44098e-06
0.491321
5.992e-06
0.491315
5.45041e-06
0.49131
5.11376e-06
0.491305
5.20444e-06
0.4913
5.30843e-06
0.491295
5.07323e-06
0.49129
4.70113e-06
0.491286
4.31118e-06
0.491282
3.91629e-06
0.491278
3.83931e-06
0.491274
3.9701e-06
0.49127
4.03589e-06
0.491266
4.30819e-06
0.491261
4.79908e-06
0.491256
5.04616e-06
0.491251
4.91497e-06
0.491246
4.68279e-06
0.491242
4.60105e-06
0.491237
4.63088e-06
0.491232
4.71424e-06
0.491227
4.95017e-06
0.491222
5.29764e-06
0.491216
5.50707e-06
0.491211
5.47115e-06
0.491206
5.44771e-06
0.4912
5.64457e-06
0.491194
5.88464e-06
0.491188
5.96303e-06
0.491182
5.95672e-06
0.491176
5.98684e-06
0.49117
6.09127e-06
0.491164
6.31249e-06
0.491157
6.54406e-06
0.491151
6.57112e-06
0.491144
6.40035e-06
0.491138
6.22724e-06
0.491132
6.19214e-06
0.491125
6.3317e-06
0.491119
6.54464e-06
0.491112
6.61555e-06
0.491106
6.49664e-06
0.491099
6.39614e-06
0.491093
6.45407e-06
0.491086
6.53731e-06
0.49108
6.48011e-06
0.491074
6.31931e-06
0.491067
6.17325e-06
0.491061
6.08526e-06
0.491055
6.05395e-06
0.491049
6.06748e-06
0.491043
6.03751e-06
0.491037
5.86482e-06
0.491032
5.62404e-06
0.491026
5.51881e-06
0.491021
5.56819e-06
0.491015
5.53164e-06
0.49101
5.28451e-06
0.491005
5.06825e-06
0.491
5.18121e-06
0.490994
5.52604e-06
0.490988
5.69665e-06
0.490983
5.50369e-06
0.490978
5.19742e-06
0.490973
5.09015e-06
0.490967
5.16967e-06
0.490962
5.21938e-06
0.490957
5.18492e-06
0.490952
5.18735e-06
0.490947
5.24415e-06
0.490941
5.20825e-06
0.490936
5.02501e-06
0.490931
4.84207e-06
0.490927
4.80205e-06
0.490922
4.8593e-06
0.490917
4.88184e-06
0.490912
4.83896e-06
0.490907
4.81679e-06
0.490902
4.87532e-06
0.490897
4.94008e-06
0.490893
4.87859e-06
0.490888
4.69954e-06
0.490883
4.59721e-06
0.490879
4.68818e-06
0.490874
4.80289e-06
0.490869
4.7063e-06
0.490865
4.45468e-06
0.49086
4.34399e-06
0.490856
4.45166e-06
0.490851
4.52932e-06
0.490847
4.38619e-06
0.490843
4.15197e-06
0.490839
4.05916e-06
0.490835
4.11599e-06
0.49083
4.16313e-06
0.490826
4.19029e-06
0.490822
4.33418e-06
0.490817
4.58786e-06
0.490813
4.70657e-06
0.490808
4.52306e-06
0.490804
4.23098e-06
0.4908
4.19938e-06
0.490795
4.51703e-06
0.49079
4.88215e-06
0.490785
4.99139e-06
0.49078
4.87557e-06
0.490776
4.78879e-06
0.490771
4.84411e-06
0.490766
4.9425e-06
0.490761
5.00213e-06
0.490756
5.07919e-06
0.49075
5.21919e-06
0.490745
5.3324e-06
0.49074
5.30538e-06
0.490735
5.17513e-06
0.49073
5.08814e-06
0.490724
5.11792e-06
0.490719
5.20669e-06
0.490714
5.293e-06
0.490709
5.39046e-06
0.490703
5.49198e-06
0.490698
5.47818e-06
0.490692
5.24976e-06
0.490687
4.92875e-06
0.490683
4.81092e-06
0.490678
5.05284e-06
0.490672
5.45782e-06
0.490666
5.68267e-06
0.490661
5.58345e-06
0.490656
5.32285e-06
0.49065
5.11483e-06
0.490645
4.98811e-06
0.490641
4.83436e-06
0.490636
4.63437e-06
0.490631
4.529e-06
0.490627
4.65851e-06
0.490622
4.95293e-06
0.490617
5.17204e-06
0.490612
5.11719e-06
0.490607
4.79749e-06
0.490602
4.37526e-06
0.490598
4.01923e-06
0.490595
3.81563e-06
0.490591
3.7655e-06
0.490587
3.7978e-06
0.490583
3.82801e-06
0.490579
3.8275e-06
0.490575
3.80498e-06
0.490572
3.73394e-06
0.490568
3.51866e-06
0.490565
3.10518e-06
0.490563
2.61024e-06
0.49056
2.21424e-06
0.490558
1.97805e-06
0.490556
1.86513e-06
0.490555
1.80447e-06
0.490553
1.79043e-06
0.490551
1.87522e-06
0.490549
1.99527e-06
0.490547
1.97383e-06
0.490545
1.69901e-06
0.490544
1.27072e-06
0.490543
8.99112e-07
0.490542
6.6528e-07
0.490542
5.35583e-07
0.490541
4.91915e-07
0.490541
4.8809e-07
0.49054
5.12766e-07
0.49054
5.51138e-07
0.490539
6.29343e-07
0.490539
7.53563e-07
0.490538
8.5037e-07
0.490537
7.93459e-07
0.490536
5.52158e-07
0.490536
2.69274e-07
0.490536
1.52347e-07
0.490536
2.08878e-07
0.490535
2.67817e-07
0.490535
2.32978e-07
0.490535
1.62637e-07
0.490535
2.70932e-07
0.490534
5.27668e-07
0.490534
7.07577e-07
0.490533
6.37484e-07
0.490532
4.28024e-07
0.490532
2.67668e-07
0.490532
2.69778e-07
0.490532
3.03206e-07
0.490531
2.37987e-07
0.490531
1.38712e-07
0.490531
4.94221e-08
0.490531
2.92376e-08
0.490531
3.13811e-08
0.490531
1.11567e-08
0.490531
1.87574e-09
0.490531
5.9946e-08
0.490531
1.72266e-07
0.490531
3.00192e-07
0.49053
4.45953e-07
0.49053
6.18849e-07
0.490529
7.42151e-07
0.490528
7.09469e-07
0.490528
5.48965e-07
0.490527
3.90073e-07
0.490527
3.46052e-07
0.490526
3.47384e-07
0.490526
2.55574e-07
0.490526
1.10597e-07
0.490526
-6.98594e-08
0.490526
-1.20047e-07
0.490526
-9.78666e-08
0.490527
-1.54303e-07
0.490527
-3.05974e-07
0.490527
-3.94153e-07
0.490528
-3.07375e-07
0.490528
-1.5809e-07
0.490528
-1.2547e-07
0.490528
-1.93627e-07
0.490528
-1.75213e-07
0.490528
-5.83192e-09
0.490528
1.73916e-07
0.490528
2.02607e-07
0.490528
1.54336e-07
0.490527
1.89244e-07
0.490527
3.62813e-07
0.490527
5.69207e-07
0.490526
6.87407e-07
0.490525
6.90189e-07
0.490525
6.06178e-07
0.490524
4.6526e-07
0.490524
2.62618e-07
0.490524
9.24475e-09
0.490524
-1.32429e-07
0.490524
-1.15533e-07
0.490524
-3.04786e-08
0.490524
-1.15895e-07
-6.92528e-08
0.491407
1.41129e-07
0.491413
4.68242e-07
0.491419
2.08956e-06
0.491422
3.15243e-06
0.491423
3.1482e-06
0.491424
2.61357e-06
0.491427
2.0055e-06
0.49143
1.94499e-06
0.491434
2.10125e-06
0.491437
2.50142e-06
0.49144
2.73397e-06
0.491444
2.62545e-06
0.491448
2.49641e-06
0.491452
2.48502e-06
0.491455
2.37428e-06
0.491459
2.14792e-06
0.491462
1.89846e-06
0.491465
1.84215e-06
0.491468
2.14902e-06
0.491471
2.42953e-06
0.491473
2.51672e-06
0.491475
2.66139e-06
0.491476
2.69668e-06
0.491477
2.51694e-06
0.491479
2.37359e-06
0.491481
2.15591e-06
0.491483
1.75861e-06
0.491486
1.69483e-06
0.491489
2.17537e-06
0.491492
2.67764e-06
0.491493
2.89485e-06
0.491495
2.95549e-06
0.491497
2.93238e-06
0.491499
2.69675e-06
0.491501
2.37748e-06
0.491504
2.30003e-06
0.491507
2.50716e-06
0.49151
2.68032e-06
0.491513
2.58824e-06
0.491516
2.43536e-06
0.491519
2.52424e-06
0.491523
2.7285e-06
0.491526
2.70739e-06
0.49153
2.39463e-06
0.491534
1.99467e-06
0.491538
1.80172e-06
0.491543
1.96749e-06
0.491547
2.36216e-06
0.491551
2.80632e-06
0.491554
3.14044e-06
0.491557
3.14871e-06
0.49156
2.8301e-06
0.491564
2.55083e-06
0.491568
2.52349e-06
0.491572
2.50179e-06
0.491576
2.31713e-06
0.491581
2.22727e-06
0.491585
2.42688e-06
0.491588
2.64814e-06
0.491592
2.58993e-06
0.491596
2.35745e-06
0.4916
2.27263e-06
0.491603
2.43187e-06
0.491607
2.69846e-06
0.49161
2.90032e-06
0.491613
2.90089e-06
0.491616
2.65661e-06
0.491619
2.33648e-06
0.491622
2.23407e-06
0.491626
2.4202e-06
0.491628
2.61847e-06
0.491631
2.55571e-06
0.491634
2.33098e-06
0.491637
2.27776e-06
0.49164
2.48868e-06
0.491643
2.70386e-06
0.491645
2.72023e-06
0.491648
2.69625e-06
0.49165
2.86537e-06
0.491652
3.10043e-06
0.491654
3.05005e-06
0.491657
2.67502e-06
0.49166
2.32829e-06
0.491663
2.27022e-06
0.491665
2.36531e-06
0.491668
2.38003e-06
0.49167
2.31529e-06
0.491673
2.32617e-06
0.491675
2.4166e-06
0.491678
2.4256e-06
0.49168
2.27109e-06
0.491683
2.09509e-06
0.491686
2.10547e-06
0.491688
2.28559e-06
0.491691
2.3878e-06
0.491693
2.29257e-06
0.491695
2.21583e-06
0.491698
2.37049e-06
0.4917
2.57502e-06
0.491702
2.47679e-06
0.491704
2.11275e-06
0.491707
1.89474e-06
0.491709
2.02945e-06
0.491711
2.2652e-06
0.491713
2.29085e-06
0.491715
2.15818e-06
0.491717
2.13473e-06
0.491719
2.27276e-06
0.491721
2.39946e-06
0.491723
2.42517e-06
0.491725
2.46629e-06
0.491727
2.61088e-06
0.491729
2.72946e-06
0.49173
2.63646e-06
0.491732
2.38857e-06
0.491734
2.27792e-06
0.491737
2.47098e-06
0.491739
2.79885e-06
0.491741
2.95434e-06
0.491743
2.84722e-06
0.491745
2.65867e-06
0.491747
2.57665e-06
0.49175
2.62078e-06
0.491752
2.72351e-06
0.491755
2.85077e-06
0.491757
2.97462e-06
0.491759
3.0037e-06
0.491762
2.84704e-06
0.491764
2.55142e-06
0.491767
2.29605e-06
0.49177
2.20884e-06
0.491773
2.2417e-06
0.491776
2.28059e-06
0.491779
2.32738e-06
0.491782
2.46212e-06
0.491785
2.62113e-06
0.491787
2.59472e-06
0.49179
2.30751e-06
0.491793
2.0206e-06
0.491796
2.06143e-06
0.491799
2.43851e-06
0.491802
2.78182e-06
0.491805
2.77054e-06
0.491807
2.46663e-06
0.49181
2.18225e-06
0.491813
2.1116e-06
0.491815
2.1771e-06
0.491818
2.22735e-06
0.49182
2.25974e-06
0.491823
2.39815e-06
0.491825
2.66764e-06
0.491827
2.92054e-06
0.491829
2.98649e-06
0.491831
2.82668e-06
0.491832
2.53403e-06
0.491834
2.25481e-06
0.491835
2.12701e-06
0.491837
2.21088e-06
0.491838
2.43566e-06
0.49184
2.64029e-06
0.491841
2.70723e-06
0.491842
2.65504e-06
0.491843
2.55883e-06
0.491843
2.43283e-06
0.491844
2.27899e-06
0.491844
2.1645e-06
0.491844
2.16593e-06
0.491843
2.28158e-06
0.491842
2.41726e-06
0.491842
2.48373e-06
0.491841
2.49504e-06
0.491841
2.51958e-06
0.49184
2.57401e-06
0.491839
2.59589e-06
0.491838
2.53137e-06
0.491836
2.41329e-06
0.491835
2.30592e-06
0.491833
2.24879e-06
0.491831
2.27221e-06
0.491829
2.38956e-06
0.491827
2.56213e-06
0.491825
2.66445e-06
0.491823
2.61046e-06
0.491821
2.48929e-06
0.49182
2.47587e-06
0.491818
2.59055e-06
0.491816
2.63905e-06
0.491814
2.45486e-06
0.491812
2.144e-06
0.49181
1.96823e-06
0.491808
2.02912e-06
0.491806
2.15011e-06
0.491804
2.09851e-06
0.491803
1.92463e-06
0.491801
1.89558e-06
0.4918
2.15162e-06
0.491798
2.50591e-06
0.491796
2.67178e-06
0.491794
2.57737e-06
0.491791
2.4118e-06
0.491789
2.32542e-06
0.491787
2.27804e-06
0.491785
2.17829e-06
0.491783
2.03379e-06
0.491781
1.95894e-06
0.491779
2.00472e-06
0.491777
2.10695e-06
0.491775
2.18864e-06
0.491773
2.25179e-06
0.491771
2.31213e-06
0.491769
2.31821e-06
0.491767
2.22607e-06
0.491765
2.12029e-06
0.491764
2.14482e-06
0.491762
2.28965e-06
0.491761
2.38027e-06
0.491759
2.30535e-06
0.491757
2.18248e-06
0.491755
2.19107e-06
0.491753
2.31909e-06
0.491751
2.38699e-06
0.491748
2.28449e-06
0.491746
2.1537e-06
0.491744
2.15213e-06
0.491741
2.2393e-06
0.491739
2.23593e-06
0.491736
2.09819e-06
0.491734
2.00496e-06
0.491732
2.1013e-06
0.491729
2.27803e-06
0.491727
2.3301e-06
0.491724
2.25474e-06
0.491722
2.24247e-06
0.49172
2.3973e-06
0.491718
2.58458e-06
0.491715
2.62453e-06
0.491713
2.50434e-06
0.491711
2.35497e-06
0.491709
2.27101e-06
0.491708
2.23548e-06
0.491706
2.21744e-06
0.491704
2.24945e-06
0.491703
2.35703e-06
0.4917
2.4575e-06
0.491698
2.43111e-06
0.491695
2.30649e-06
0.491693
2.23807e-06
0.491691
2.27852e-06
0.491688
2.50503e-06
2.32306e-06
0.491406
3.55539e-07
0.491407
4.04781e-07
0.491408
2.28507e-07
0.491411
9.04355e-07
0.491412
1.36743e-06
0.491413
2.24842e-06
0.491412
2.64181e-06
0.491412
2.32279e-06
0.491412
1.80149e-06
0.491413
1.3488e-06
0.491415
1.24665e-06
0.491416
1.50765e-06
0.491416
1.87784e-06
0.491417
2.33181e-06
0.491416
2.73084e-06
0.491415
3.11878e-06
0.491414
3.12573e-06
0.491413
2.64612e-06
0.491413
2.23084e-06
0.491413
2.2346e-06
0.491413
2.45772e-06
0.491413
2.63091e-06
0.491413
2.65849e-06
0.491413
2.78575e-06
0.491413
3.03398e-06
0.491412
3.12038e-06
0.49141
2.879e-06
0.49141
2.48123e-06
0.49141
2.31257e-06
0.49141
2.41326e-06
0.49141
2.45441e-06
0.491411
2.35554e-06
0.491411
2.41463e-06
0.491412
2.48539e-06
0.491412
2.24542e-06
0.491412
2.00759e-06
0.491412
2.14092e-06
0.491413
2.48946e-06
0.491412
2.69332e-06
0.491412
2.67055e-06
0.491412
2.63549e-06
0.491412
2.72858e-06
0.491412
2.88709e-06
0.491411
2.98091e-06
0.49141
2.85643e-06
0.49141
2.52493e-06
0.491409
2.22711e-06
0.49141
2.09507e-06
0.49141
2.07468e-06
0.491411
2.14206e-06
0.491412
2.22195e-06
0.491413
2.13602e-06
0.491414
1.94091e-06
0.491414
1.9386e-06
0.491415
2.17485e-06
0.491415
2.32794e-06
0.491415
2.24696e-06
0.491415
2.12667e-06
0.491415
2.1067e-06
0.491416
2.09016e-06
0.491416
1.99643e-06
0.491417
1.91675e-06
0.491417
1.93536e-06
0.491418
2.02181e-06
0.491419
2.12845e-06
0.491419
2.21438e-06
0.49142
2.17625e-06
0.49142
1.95224e-06
0.491421
1.7126e-06
0.491421
1.73548e-06
0.491422
2.043e-06
0.491422
2.31746e-06
0.491422
2.28098e-06
0.491422
2.03743e-06
0.491423
1.89714e-06
0.491424
1.94474e-06
0.491425
1.97148e-06
0.491425
1.86433e-06
0.491426
1.8223e-06
0.491427
2.03211e-06
0.491428
2.30695e-06
0.491429
2.31001e-06
0.491429
2.02764e-06
0.491429
1.77581e-06
0.49143
1.75695e-06
0.491431
1.86018e-06
0.491431
1.90678e-06
0.491431
1.90519e-06
0.491432
1.97206e-06
0.491432
2.123e-06
0.491432
2.23222e-06
0.491432
2.20628e-06
0.491432
2.15028e-06
0.491432
2.25748e-06
0.491432
2.5153e-06
0.491432
2.68187e-06
0.491431
2.64204e-06
0.491431
2.59563e-06
0.491431
2.72779e-06
0.49143
2.88067e-06
0.49143
2.78649e-06
0.491429
2.50861e-06
0.491429
2.35335e-06
0.491429
2.42732e-06
0.491428
2.50377e-06
0.491428
2.40046e-06
0.491428
2.24199e-06
0.491428
2.23136e-06
0.491428
2.33793e-06
0.491428
2.35139e-06
0.491428
2.18362e-06
0.491429
1.96972e-06
0.49143
1.85812e-06
0.491431
1.81203e-06
0.491431
1.71092e-06
0.491432
1.58435e-06
0.491433
1.60128e-06
0.491434
1.8267e-06
0.491435
2.08974e-06
0.491435
2.17805e-06
0.491436
2.08789e-06
0.491437
1.99422e-06
0.491437
2.02864e-06
0.491438
2.172e-06
0.491438
2.34246e-06
0.491439
2.49142e-06
0.491439
2.58132e-06
0.49144
2.54865e-06
0.49144
2.37061e-06
0.49144
2.15179e-06
0.49144
2.06563e-06
0.49144
2.16479e-06
0.49144
2.30648e-06
0.49144
2.33376e-06
0.49144
2.2858e-06
0.49144
2.32263e-06
0.491441
2.46577e-06
0.49144
2.53768e-06
0.49144
2.40643e-06
0.49144
2.20082e-06
0.49144
2.15499e-06
0.491441
2.29341e-06
0.491441
2.38055e-06
0.491441
2.20813e-06
0.491442
1.84518e-06
0.491442
1.56601e-06
0.491443
1.55464e-06
0.491443
1.74967e-06
0.491444
1.96639e-06
0.491444
2.09959e-06
0.491444
2.15951e-06
0.491445
2.17348e-06
0.491446
2.13221e-06
0.491447
2.03024e-06
0.491447
1.89515e-06
0.491448
1.77276e-06
0.491448
1.71997e-06
0.491449
1.78899e-06
0.491449
1.98593e-06
0.49145
2.2235e-06
0.49145
2.35907e-06
0.49145
2.34056e-06
0.491451
2.24322e-06
0.491451
2.14987e-06
0.491451
2.07819e-06
0.491451
2.03391e-06
0.491451
2.0606e-06
0.491451
2.19868e-06
0.491451
2.39851e-06
0.491451
2.53031e-06
0.491451
2.50733e-06
0.491451
2.36512e-06
0.491452
2.2121e-06
0.491452
2.11047e-06
0.491453
2.04045e-06
0.491453
1.97706e-06
0.491454
1.92749e-06
0.491454
1.89309e-06
0.491454
1.85581e-06
0.491455
1.83789e-06
0.491456
1.91893e-06
0.491456
2.11198e-06
0.491456
2.28861e-06
0.491457
2.31448e-06
0.491457
2.23043e-06
0.491457
2.20327e-06
0.491458
2.28727e-06
0.491458
2.33342e-06
0.491458
2.19234e-06
0.491458
1.93989e-06
0.491458
1.82302e-06
0.491458
1.97571e-06
0.491458
2.25044e-06
0.491457
2.40779e-06
0.491457
2.41418e-06
0.491457
2.45236e-06
0.491457
2.64442e-06
0.491456
2.87456e-06
0.491456
2.93991e-06
0.491456
2.81341e-06
0.491455
2.6446e-06
0.491455
2.54846e-06
0.491455
2.49738e-06
0.491454
2.42079e-06
0.491454
2.33503e-06
0.491454
2.31157e-06
0.491453
2.36244e-06
0.491453
2.42442e-06
0.491453
2.46098e-06
0.491453
2.50614e-06
0.491452
2.56732e-06
0.491452
2.55956e-06
0.491452
2.41808e-06
0.491452
2.23238e-06
0.491452
2.16358e-06
0.491452
2.23172e-06
0.491452
2.28998e-06
0.491452
2.23073e-06
0.491452
2.12935e-06
0.491452
2.11828e-06
0.491452
2.1856e-06
0.491453
2.17992e-06
0.491453
2.03365e-06
0.491453
1.87425e-06
0.491453
1.85596e-06
0.491454
1.94188e-06
0.491454
1.95988e-06
0.491454
1.86931e-06
0.491454
1.83151e-06
0.491454
1.96479e-06
0.491455
2.15993e-06
0.491455
2.23172e-06
0.491455
2.16971e-06
0.491455
2.1287e-06
0.491455
2.20495e-06
0.491456
2.3283e-06
0.491456
2.37956e-06
0.491456
2.3404e-06
0.491456
2.27995e-06
0.491456
2.23302e-06
0.491456
2.16716e-06
0.491456
2.08022e-06
0.491456
2.05065e-06
0.491457
2.13412e-06
0.491457
2.25841e-06
0.491457
2.30252e-06
0.491457
2.25851e-06
0.491457
2.19874e-06
0.491457
2.27082e-06
2.29215e-06
0.491405
-2.40167e-08
0.491405
6.44838e-07
0.491403
1.65353e-06
0.491402
2.22766e-06
0.491401
2.20348e-06
0.491401
1.96945e-06
0.491402
1.93757e-06
0.491403
1.74714e-06
0.491403
1.70899e-06
0.491402
1.82296e-06
0.491401
1.98612e-06
0.491401
1.99737e-06
0.491401
1.81104e-06
0.491402
1.53955e-06
0.491403
1.45514e-06
0.491405
1.72141e-06
0.491406
2.03683e-06
0.491406
2.17352e-06
0.491406
2.13368e-06
0.491407
1.79703e-06
0.491408
1.38465e-06
0.491409
1.41148e-06
0.49141
1.75193e-06
0.491411
1.83636e-06
0.491412
1.81447e-06
0.491413
2.06759e-06
0.491414
2.24005e-06
0.491414
2.0058e-06
0.491415
1.66957e-06
0.491416
1.45544e-06
0.491417
1.47778e-06
0.491417
1.65707e-06
0.491418
1.89545e-06
0.491418
2.22375e-06
0.491418
2.40893e-06
0.491418
2.21526e-06
0.491418
1.84691e-06
0.491419
1.70241e-06
0.49142
1.81607e-06
0.491421
1.92232e-06
0.491421
1.92234e-06
0.491422
1.91387e-06
0.491423
1.95938e-06
0.491424
2.06738e-06
0.491425
2.14732e-06
0.491425
2.09222e-06
0.491425
1.95332e-06
0.491426
1.81717e-06
0.491426
1.67426e-06
0.491427
1.60998e-06
0.491427
1.76922e-06
0.491427
2.00176e-06
0.491427
2.04528e-06
0.491427
1.98941e-06
0.491427
2.11037e-06
0.491427
2.3442e-06
0.491427
2.39702e-06
0.491427
2.23732e-06
0.491427
2.10603e-06
0.491427
2.13504e-06
0.491426
2.23879e-06
0.491426
2.31106e-06
0.491426
2.30245e-06
0.491426
2.1821e-06
0.491426
1.99805e-06
0.491426
1.91058e-06
0.491426
2.00951e-06
0.491426
2.16008e-06
0.491425
2.17942e-06
0.491425
2.1018e-06
0.491425
2.1211e-06
0.491425
2.28536e-06
0.491425
2.4048e-06
0.491425
2.32667e-06
0.491424
2.17443e-06
0.491424
2.17628e-06
0.491424
2.31237e-06
0.491423
2.33572e-06
0.491423
2.15553e-06
0.491423
1.99563e-06
0.491423
2.05109e-06
0.491423
2.21118e-06
0.491423
2.26325e-06
0.491423
2.21834e-06
0.491422
2.23904e-06
0.491422
2.34732e-06
0.491421
2.39369e-06
0.491421
2.28405e-06
0.491421
2.10771e-06
0.491421
2.01867e-06
0.491421
2.04007e-06
0.491421
2.02854e-06
0.491422
1.87772e-06
0.491422
1.707e-06
0.491423
1.70971e-06
0.491424
1.83277e-06
0.491425
1.81579e-06
0.491426
1.5951e-06
0.491427
1.42584e-06
0.491428
1.51474e-06
0.491429
1.71583e-06
0.49143
1.78576e-06
0.491431
1.73446e-06
0.491431
1.74727e-06
0.491432
1.86143e-06
0.491432
1.93675e-06
0.491433
1.92482e-06
0.491433
1.95752e-06
0.491433
2.1281e-06
0.491433
2.30538e-06
0.491433
2.27318e-06
0.491433
2.00778e-06
0.491433
1.72469e-06
0.491433
1.62881e-06
0.491433
1.70463e-06
0.491433
1.79796e-06
0.491433
1.84153e-06
0.491433
1.89711e-06
0.491433
1.99512e-06
0.491433
2.06718e-06
0.491433
2.07014e-06
0.491433
2.08165e-06
0.491433
2.20303e-06
0.491433
2.41077e-06
0.491432
2.57197e-06
0.491432
2.59314e-06
0.491432
2.49589e-06
0.491433
2.34473e-06
0.491433
2.1641e-06
0.491433
1.96918e-06
0.491433
1.84222e-06
0.491433
1.88363e-06
0.491434
2.05615e-06
0.491434
2.16321e-06
0.491434
2.06504e-06
0.491435
1.8619e-06
0.491435
1.78396e-06
0.491436
1.90966e-06
0.491436
2.07124e-06
0.491436
2.08941e-06
0.491437
1.97979e-06
0.491437
1.88102e-06
0.491437
1.84677e-06
0.491438
1.78374e-06
0.491438
1.61887e-06
0.491438
1.44126e-06
0.491438
1.42739e-06
0.491438
1.65071e-06
0.491438
1.99641e-06
0.491438
2.28002e-06
0.491438
2.39235e-06
0.491438
2.32872e-06
0.491438
2.14334e-06
0.491438
1.92569e-06
0.491438
1.78009e-06
0.491438
1.76215e-06
0.491438
1.84368e-06
0.491438
1.9611e-06
0.491438
2.08553e-06
0.491438
2.20015e-06
0.491438
2.2403e-06
0.491438
2.14709e-06
0.491438
1.96105e-06
0.491439
1.79777e-06
0.491439
1.73186e-06
0.491439
1.74264e-06
0.49144
1.7831e-06
0.49144
1.85804e-06
0.49144
1.98938e-06
0.491441
2.13699e-06
0.491441
2.20133e-06
0.491441
2.12089e-06
0.491442
1.94564e-06
0.491442
1.77991e-06
0.491442
1.67725e-06
0.491443
1.62757e-06
0.491443
1.62246e-06
0.491443
1.66923e-06
0.491443
1.73377e-06
0.491443
1.75672e-06
0.491443
1.75394e-06
0.491444
1.82017e-06
0.491444
1.98403e-06
0.491444
2.123e-06
0.491444
2.0965e-06
0.491445
1.92638e-06
0.491445
1.76617e-06
0.491446
1.69795e-06
0.491446
1.63341e-06
0.491447
1.45239e-06
0.491448
1.2034e-06
0.491448
1.09387e-06
0.491449
1.25119e-06
0.49145
1.56363e-06
0.491451
1.80848e-06
0.491451
1.90248e-06
0.491452
1.94699e-06
0.491453
2.02879e-06
0.491454
2.08674e-06
0.491455
2.02236e-06
0.491455
1.85777e-06
0.491456
1.71506e-06
0.491457
1.66995e-06
0.491458
1.68985e-06
0.491458
1.71715e-06
0.491459
1.7535e-06
0.491459
1.82673e-06
0.49146
1.90949e-06
0.49146
1.93859e-06
0.491461
1.91713e-06
0.491462
1.92246e-06
0.491462
1.98078e-06
0.491463
2.00414e-06
0.491463
1.91778e-06
0.491463
1.79355e-06
0.491464
1.76593e-06
0.491464
1.84872e-06
0.491465
1.91964e-06
0.491465
1.89051e-06
0.491465
1.82155e-06
0.491466
1.8204e-06
0.491466
1.87114e-06
0.491466
1.84722e-06
0.491466
1.70216e-06
0.491466
1.56272e-06
0.491467
1.56554e-06
0.491467
1.66135e-06
0.491467
1.6935e-06
0.491468
1.63926e-06
0.491468
1.64076e-06
0.491468
1.78509e-06
0.491468
1.97395e-06
0.491469
2.05995e-06
0.491469
2.02693e-06
0.491469
1.97355e-06
0.491469
1.96588e-06
0.49147
1.97237e-06
0.49147
1.94273e-06
0.49147
1.89461e-06
0.491471
1.87929e-06
0.491471
1.8868e-06
0.491471
1.85218e-06
0.491472
1.76556e-06
0.491472
1.70928e-06
0.491473
1.74567e-06
0.491473
1.82799e-06
0.491473
1.8681e-06
0.491474
1.83947e-06
0.491474
1.79898e-06
1.78599e-06
0.491407
-2.96914e-07
0.491408
-8.31863e-08
0.491409
1.40162e-07
0.491411
3.75487e-07
0.491412
6.79102e-07
0.491413
1.21437e-06
0.491413
1.83923e-06
0.491413
2.45195e-06
0.491412
2.51124e-06
0.491412
2.06556e-06
0.491412
1.77803e-06
0.491412
1.8286e-06
0.491412
2.01257e-06
0.491411
1.9951e-06
0.491411
1.61416e-06
0.491411
1.42096e-06
0.491412
1.62409e-06
0.491412
1.81588e-06
0.491412
1.94574e-06
0.491412
2.14147e-06
0.491411
2.14592e-06
0.491411
1.80128e-06
0.491411
1.46156e-06
0.491412
1.40876e-06
0.491412
1.31898e-06
0.491413
1.32156e-06
0.491413
1.66872e-06
0.491413
1.96376e-06
0.491413
2.14049e-06
0.491412
2.32698e-06
0.491411
2.38278e-06
0.491411
2.17956e-06
0.491411
1.89115e-06
0.491411
1.81594e-06
0.491412
1.92612e-06
0.491412
1.89189e-06
0.491412
1.59909e-06
0.491413
1.30824e-06
0.491413
1.23626e-06
0.491414
1.33432e-06
0.491414
1.49983e-06
0.491414
1.6632e-06
0.491415
1.72654e-06
0.491415
1.73114e-06
0.491415
1.80839e-06
0.491415
1.92135e-06
0.491415
1.96104e-06
0.491415
1.93012e-06
0.491415
1.8293e-06
0.491415
1.66389e-06
0.491415
1.61007e-06
0.491416
1.72805e-06
0.491416
1.79757e-06
0.491416
1.65851e-06
0.491417
1.5041e-06
0.491418
1.5362e-06
0.491418
1.65429e-06
0.491419
1.68346e-06
0.491419
1.65848e-06
0.49142
1.68978e-06
0.49142
1.76487e-06
0.491421
1.82058e-06
0.491421
1.84381e-06
0.491422
1.81564e-06
0.491422
1.69442e-06
0.491422
1.54441e-06
0.491423
1.5413e-06
0.491423
1.73238e-06
0.491423
1.912e-06
0.491424
1.85752e-06
0.491424
1.61522e-06
0.491425
1.43605e-06
0.491426
1.44357e-06
0.491427
1.50414e-06
0.491427
1.47337e-06
0.491428
1.4366e-06
0.491429
1.55069e-06
0.49143
1.73648e-06
0.49143
1.74623e-06
0.49143
1.53474e-06
0.491431
1.33947e-06
0.491432
1.35117e-06
0.491433
1.49049e-06
0.491433
1.5986e-06
0.491434
1.66848e-06
0.491435
1.78463e-06
0.491435
1.9433e-06
0.491435
2.04635e-06
0.491435
2.03945e-06
0.491435
2.00044e-06
0.491435
2.06377e-06
0.491435
2.24071e-06
0.491435
2.37414e-06
0.491434
2.35424e-06
0.491433
2.29791e-06
0.491433
2.35993e-06
0.491432
2.45037e-06
0.491431
2.34864e-06
0.491431
2.07568e-06
0.49143
1.90645e-06
0.49143
1.97785e-06
0.49143
2.11181e-06
0.491429
2.09545e-06
0.491429
1.96493e-06
0.491429
1.89573e-06
0.491429
1.93326e-06
0.491429
1.98568e-06
0.491429
2.01162e-06
0.491429
2.07137e-06
0.491429
2.18009e-06
0.491429
2.21387e-06
0.491429
2.04781e-06
0.491429
1.75468e-06
0.491429
1.57594e-06
0.491429
1.66641e-06
0.491429
1.92212e-06
0.491429
2.11192e-06
0.491429
2.12285e-06
0.491429
2.01307e-06
0.491429
1.87846e-06
0.491429
1.76557e-06
0.49143
1.71297e-06
0.49143
1.77241e-06
0.49143
1.93364e-06
0.491431
2.07334e-06
0.491432
2.04463e-06
0.491432
1.82394e-06
0.491433
1.53698e-06
0.491434
1.32708e-06
0.491435
1.23178e-06
0.491435
1.21577e-06
0.491436
1.28574e-06
0.491436
1.48052e-06
0.491437
1.73827e-06
0.491437
1.88423e-06
0.491437
1.81483e-06
0.491437
1.65627e-06
0.491437
1.63884e-06
0.491438
1.82447e-06
0.491438
2.04703e-06
0.491438
2.10552e-06
0.491438
1.97346e-06
0.491438
1.77972e-06
0.491438
1.63236e-06
0.491438
1.53811e-06
0.491438
1.47563e-06
0.491438
1.4825e-06
0.491438
1.62076e-06
0.491438
1.86856e-06
0.491438
2.1041e-06
0.491438
2.2034e-06
0.491438
2.12544e-06
0.491439
1.90829e-06
0.491439
1.6372e-06
0.491439
1.42946e-06
0.49144
1.38605e-06
0.49144
1.51265e-06
0.49144
1.71158e-06
0.49144
1.87776e-06
0.491441
1.97586e-06
0.491441
1.99926e-06
0.491441
1.92539e-06
0.491441
1.75822e-06
0.491442
1.58182e-06
0.491442
1.51347e-06
0.491442
1.59015e-06
0.491442
1.74007e-06
0.491442
1.87422e-06
0.491442
1.96713e-06
0.491442
2.04037e-06
0.491442
2.0869e-06
0.491442
2.05506e-06
0.491442
1.92005e-06
0.491442
1.72909e-06
0.491442
1.5529e-06
0.491443
1.41646e-06
0.491443
1.31955e-06
0.491443
1.29444e-06
0.491444
1.36387e-06
0.491444
1.46852e-06
0.491444
1.51483e-06
0.491445
1.50099e-06
0.491445
1.51903e-06
0.491446
1.60127e-06
0.491446
1.63905e-06
0.491446
1.5082e-06
0.491447
1.23541e-06
0.491448
9.81672e-07
0.491448
8.61878e-07
0.491449
8.25151e-07
0.49145
7.5293e-07
0.49145
6.50282e-07
0.491451
6.58016e-07
0.491451
8.73565e-07
0.491452
1.1997e-06
0.491452
1.44512e-06
0.491453
1.54112e-06
0.491453
1.56625e-06
0.491454
1.59075e-06
0.491454
1.58647e-06
0.491455
1.50678e-06
0.491455
1.38984e-06
0.491455
1.32818e-06
0.491455
1.36245e-06
0.491456
1.45179e-06
0.491456
1.54981e-06
0.491456
1.66299e-06
0.491456
1.80016e-06
0.491456
1.90524e-06
0.491456
1.90739e-06
0.491456
1.83148e-06
0.491457
1.78327e-06
0.491457
1.80191e-06
0.491457
1.80701e-06
0.491457
1.7319e-06
0.491457
1.63488e-06
0.491457
1.62262e-06
0.491458
1.69604e-06
0.491458
1.74133e-06
0.491458
1.68423e-06
0.491458
1.58915e-06
0.491458
1.56354e-06
0.491459
1.597e-06
0.491459
1.57332e-06
0.491459
1.45587e-06
0.491459
1.36714e-06
0.491459
1.42064e-06
0.491459
1.55489e-06
0.491459
1.62813e-06
0.491459
1.62398e-06
0.49146
1.65688e-06
0.49146
1.79228e-06
0.49146
1.95779e-06
0.49146
2.04595e-06
0.49146
2.03951e-06
0.49146
2.00111e-06
0.49146
1.97166e-06
0.49146
1.92651e-06
0.49146
1.84103e-06
0.49146
1.75503e-06
0.49146
1.72221e-06
0.49146
1.72021e-06
0.49146
1.67371e-06
0.49146
1.56788e-06
0.491461
1.47385e-06
0.491461
1.45002e-06
0.491462
1.47027e-06
0.491462
1.48178e-06
0.491462
1.44646e-06
1.42191e-06
0.491406
4.20426e-07
0.491405
1.25232e-06
0.491403
1.79596e-06
0.491402
1.45016e-06
0.491402
1.06812e-06
0.491402
5.72531e-07
0.491404
4.60327e-07
0.491406
7.10163e-07
0.491407
9.89029e-07
0.491408
1.22961e-06
0.491408
1.49657e-06
0.491409
1.44708e-06
0.491409
1.30905e-06
0.49141
1.55324e-06
0.49141
1.68551e-06
0.49141
1.41319e-06
0.49141
1.22115e-06
0.491411
1.22894e-06
0.491411
1.39294e-06
0.491412
1.58003e-06
0.491412
1.66129e-06
0.491412
1.76617e-06
0.491412
1.86132e-06
0.491412
1.71706e-06
0.491411
1.48635e-06
0.491411
1.39169e-06
0.491412
1.46365e-06
0.491412
1.58924e-06
0.491412
1.60942e-06
0.491413
1.54895e-06
0.491414
1.54274e-06
0.491415
1.58141e-06
0.491415
1.54716e-06
0.491415
1.46663e-06
0.491416
1.58614e-06
0.491416
1.95026e-06
0.491415
2.22981e-06
0.491414
2.18488e-06
0.491413
1.93388e-06
0.491413
1.66862e-06
0.491413
1.47441e-06
0.491413
1.36119e-06
0.491414
1.27031e-06
0.491414
1.19739e-06
0.491415
1.2423e-06
0.491415
1.39299e-06
0.491416
1.53935e-06
0.491416
1.70853e-06
0.491416
1.90247e-06
0.491416
1.94512e-06
0.491416
1.78438e-06
0.491416
1.63406e-06
0.491416
1.59929e-06
0.491416
1.51639e-06
0.491416
1.33015e-06
0.491417
1.23595e-06
0.491417
1.34537e-06
0.491417
1.53077e-06
0.491417
1.63621e-06
0.491417
1.6364e-06
0.491417
1.55831e-06
0.491418
1.43128e-06
0.491418
1.33683e-06
0.491419
1.36875e-06
0.491419
1.49788e-06
0.491419
1.59353e-06
0.491419
1.62208e-06
0.491419
1.67279e-06
0.491419
1.77414e-06
0.491419
1.80837e-06
0.491419
1.6727e-06
0.491419
1.46823e-06
0.491419
1.40397e-06
0.491419
1.52589e-06
0.491419
1.64643e-06
0.491418
1.61836e-06
0.491419
1.53786e-06
0.491419
1.55718e-06
0.491419
1.62066e-06
0.491419
1.56512e-06
0.491419
1.41092e-06
0.491419
1.348e-06
0.491419
1.44432e-06
0.491419
1.55474e-06
0.491419
1.54015e-06
0.491419
1.43815e-06
0.49142
1.37153e-06
0.491421
1.37987e-06
0.491421
1.38343e-06
0.491422
1.30883e-06
0.491423
1.22198e-06
0.491424
1.27208e-06
0.491425
1.46216e-06
0.491425
1.60138e-06
0.491426
1.5702e-06
0.491427
1.49286e-06
0.491428
1.52783e-06
0.491429
1.60547e-06
0.491429
1.5681e-06
0.49143
1.45384e-06
0.49143
1.43476e-06
0.491431
1.52608e-06
0.491431
1.53998e-06
0.491432
1.37173e-06
0.491433
1.16308e-06
0.491433
1.10811e-06
0.491434
1.2173e-06
0.491435
1.34103e-06
0.491436
1.37261e-06
0.491436
1.34183e-06
0.491437
1.30735e-06
0.491438
1.25432e-06
0.491439
1.15195e-06
0.491439
1.07271e-06
0.49144
1.1568e-06
0.49144
1.42655e-06
0.491441
1.7197e-06
0.491441
1.85199e-06
0.491441
1.80607e-06
0.491441
1.714e-06
0.491441
1.69591e-06
0.491441
1.77519e-06
0.491441
1.91998e-06
0.491441
2.09065e-06
0.491441
2.2239e-06
0.491441
2.22636e-06
0.49144
2.04621e-06
0.49144
1.75905e-06
0.49144
1.53385e-06
0.49144
1.47873e-06
0.491439
1.53774e-06
0.491439
1.58253e-06
0.491439
1.57528e-06
0.491439
1.57576e-06
0.491439
1.60201e-06
0.49144
1.57005e-06
0.49144
1.43207e-06
0.49144
1.28444e-06
0.491441
1.26679e-06
0.491441
1.38707e-06
0.491442
1.48255e-06
0.491443
1.40239e-06
0.491443
1.16726e-06
0.491444
9.32879e-07
0.491445
8.3602e-07
0.491445
8.96248e-07
0.491446
1.06074e-06
0.491446
1.28209e-06
0.491446