/*--------------------------------*- C++ -*----------------------------------*\
| =========                 |                                                 |
| \\      /  F ield         | OpenFOAM: The Open Source CFD Toolbox           |
|  \\    /   O peration     | Version:  2406                                  |
|   \\  /    A nd           | Website:  www.openfoam.com                      |
|    \\/     M anipulation  |                                                 |
\*---------------------------------------------------------------------------*/
FoamFile
{
    version     2.0;
    format      ascii;
    arch        "LSB;label=32;scalar=64";
    class       volScalarField;
    location    "0.7";
    object      p;
}
// * * * * * * * * * * * * * * * * * * * * * * * * * * * * * * * * * * * * * //

dimensions      [1 -1 -2 0 0 0 0];

internalField   nonuniform List<scalar> 
6250
(
401.64
-2591.4
-591.167
864.441
827.632
394.63
243.674
312.647
381.708
386.333
366.324
355.933
356.489
358.385
357.564
355.308
353.306
351.821
350.464
349.001
347.459
345.92
344.405
342.899
341.39
339.878
338.362
336.849
335.338
333.821
332.303
330.787
329.275
327.765
326.251
324.737
323.222
321.709
320.196
318.681
317.165
315.65
314.137
312.625
311.114
309.601
308.084
306.569
305.058
303.546
302.03
300.513
299
297.489
295.975
294.458
292.943
291.432
289.92
288.404
286.887
285.373
283.861
282.349
280.836
279.321
277.807
276.294
274.78
273.265
271.75
270.237
268.725
267.213
265.699
264.183
262.667
261.153
259.642
258.129
256.614
255.098
253.583
252.071
250.56
249.048
247.532
246.015
244.5
242.988
241.476
239.963
238.448
236.934
235.42
233.905
232.39
230.877
229.365
227.852
226.339
224.824
223.31
221.796
220.281
218.767
217.254
215.742
214.23
212.715
211.199
209.684
208.169
206.655
205.144
203.635
202.123
200.606
199.086
197.571
196.059
194.549
193.035
191.519
190.005
188.491
186.977
185.463
183.95
182.438
180.924
179.407
177.891
176.378
174.867
173.355
171.84
170.322
168.806
167.292
165.781
164.269
162.757
161.245
159.733
158.218
156.7
155.181
153.664
152.151
150.641
149.132
147.622
146.109
144.594
143.075
141.556
140.038
138.524
137.014
135.505
133.995
132.484
130.969
129.452
127.934
126.415
124.899
123.387
121.876
120.367
118.858
117.348
115.834
114.316
112.796
111.279
109.765
108.251
106.738
105.226
103.715
102.205
100.693
99.1775
97.6606
96.1437
94.6277
93.1128
91.5991
90.087
88.5759
87.0643
85.551
84.0365
82.5224
81.0086
79.4935
77.9766
76.4597
74.9458
73.4351
71.925
70.4131
68.8999
67.3874
65.8758
64.3632
62.8475
61.3297
59.8124
58.2965
56.7815
55.2671
53.7539
52.2428
50.7333
49.2242
47.7142
46.203
44.6903
43.1759
41.6593
40.1407
38.6209
37.1005
35.5803
34.0611
32.5436
31.0275
29.5125
27.9992
26.4888
24.9807
23.4735
21.966
20.458
18.9494
17.4393
15.9271
14.4127
12.8968
11.3795
9.86113
8.3423
6.82427
5.30688
3.78973
2.27298
0.757209
401.615
-2591.47
-591.21
864.448
827.648
394.635
243.68
312.659
381.713
386.33
366.316
355.924
356.481
358.381
357.562
355.306
353.305
351.822
350.466
349.004
347.46
345.924
344.412
342.903
341.39
339.878
338.36
336.84
335.33
333.822
332.308
330.79
329.273
327.761
326.247
324.732
323.219
321.706
320.193
318.679
317.166
315.652
314.139
312.625
311.111
309.598
308.083
306.566
305.052
303.543
302.035
300.52
298.999
297.482
295.971
294.461
292.946
291.431
289.919
288.406
286.89
285.374
283.861
282.349
280.837
279.322
277.807
276.293
274.781
273.269
271.755
270.239
268.724
267.21
265.697
264.183
262.668
261.154
259.642
258.13
256.616
255.099
253.583
252.07
250.56
249.049
247.534
246.016
244.499
242.987
241.477
239.965
238.449
236.932
235.418
233.907
232.393
230.878
229.364
227.852
226.34
224.826
223.31
221.795
220.282
218.769
217.257
215.744
214.23
212.713
211.195
209.681
208.17
206.66
205.146
203.631
202.117
200.604
199.088
197.572
196.058
194.547
193.034
191.519
190.003
188.49
186.978
185.465
183.951
182.436
180.922
179.407
177.892
176.377
174.865
173.355
171.843
170.327
168.806
167.288
165.775
164.268
162.761
161.25
159.735
158.217
156.699
155.181
153.664
152.151
150.641
149.134
147.625
146.112
144.596
143.076
141.556
140.038
138.524
137.014
135.508
133.999
132.488
130.973
129.455
127.936
126.417
124.901
123.388
121.879
120.37
118.86
117.348
115.836
114.321
112.801
111.281
109.763
108.25
106.74
105.229
103.717
102.205
100.692
99.1777
97.6614
96.1449
94.6292
93.1139
91.5991
90.0859
88.5751
87.0654
85.5538
84.0386
82.5214
81.0055
79.4919
77.9781
76.4624
74.9463
73.4332
71.924
70.4156
68.9043
67.3903
65.8758
64.3619
62.8469
61.3297
59.8114
58.294
56.7787
55.2653
53.7534
52.2431
50.734
49.2249
47.7152
46.2046
44.6927
43.1784
41.6613
40.1421
38.6217
37.1008
35.5797
34.0592
32.541
31.0259
29.5132
28.0014
26.49
24.9803
23.4726
21.9655
20.4573
18.948
17.4376
15.9259
14.4124
12.8972
11.3811
9.86375
8.34489
6.82507
5.30626
3.78889
2.27379
0.756363
401.602
-2591.46
-591.198
864.453
827.649
394.632
243.67
312.652
381.717
386.336
366.324
355.93
356.485
358.388
357.569
355.31
353.309
351.824
350.464
349.003
347.459
345.918
344.406
342.903
341.39
339.877
338.364
336.846
335.331
333.82
332.307
330.793
329.278
327.763
326.249
324.734
323.22
321.707
320.193
318.679
317.165
315.653
314.14
312.625
311.111
309.599
308.089
306.574
305.055
303.538
302.029
300.52
299.004
297.485
295.972
294.461
292.948
291.431
289.915
288.403
286.891
285.377
283.863
282.349
280.836
279.322
277.807
276.293
274.779
273.266
271.753
270.239
268.725
267.211
265.696
264.182
262.668
261.155
259.642
258.128
256.613
255.099
253.586
252.073
250.56
249.046
247.531
246.016
244.501
242.988
241.476
239.964
238.45
236.933
235.417
233.905
232.393
230.879
229.364
227.851
226.339
224.826
223.311
221.794
220.28
218.767
217.256
215.743
214.229
212.713
211.196
209.681
208.17
206.66
205.148
203.632
202.115
200.601
199.089
197.575
196.061
194.547
193.034
191.519
190.004
188.49
186.978
185.467
183.953
182.436
180.919
179.406
177.893
176.381
174.868
173.354
171.84
170.324
168.808
167.291
165.777
164.268
162.76
161.25
159.736
158.217
156.697
155.178
153.663
152.151
150.643
149.136
147.626
146.111
144.593
143.073
141.554
140.037
138.524
137.014
135.507
133.999
132.487
130.971
129.452
127.933
126.414
124.898
123.386
121.878
120.37
118.86
117.347
115.832
114.316
112.798
111.28
109.762
108.248
106.737
105.228
103.717
102.205
100.691
99.1768
97.6604
96.1431
94.627
93.1129
91.5999
90.0869
88.5742
87.0627
85.552
84.0398
82.5241
81.0061
79.489
77.9747
76.4618
74.9481
73.4342
71.9223
70.4129
68.9036
67.3916
65.8769
64.3611
62.8453
61.3287
59.8113
58.2942
56.779
55.2659
53.7542
52.2436
50.7341
49.2252
47.7158
46.2048
44.6918
43.1769
41.66
40.1411
38.6208
37.1001
35.5797
34.0596
32.5406
31.024
29.5107
27.9999
26.4902
24.9814
23.4735
21.9662
20.4583
18.9494
17.4392
15.9275
14.4137
12.8977
11.3803
9.86227
8.34362
6.82437
5.30549
3.78795
2.27194
0.7569
401.599
-2591.46
-591.202
864.441
827.643
394.629
243.67
312.648
381.708
386.329
366.322
355.93
356.482
358.383
357.564
355.302
353.301
351.824
350.467
349.006
347.463
345.919
344.405
342.901
341.387
339.873
338.362
336.849
335.333
333.818
332.304
330.791
329.276
327.761
326.247
324.733
323.221
321.708
320.193
318.679
317.165
315.651
314.136
312.623
311.109
309.596
308.085
306.574
305.058
303.54
302.025
300.516
299.005
297.488
295.971
294.458
292.946
291.432
289.916
288.402
286.89
285.377
283.863
282.348
280.834
279.322
277.809
276.296
274.781
273.265
271.752
270.239
268.726
267.211
265.695
264.181
262.668
261.157
259.644
258.128
256.612
255.097
253.586
252.075
250.561
249.046
247.53
246.016
244.503
242.989
241.474
239.961
238.449
236.935
235.42
233.905
232.392
230.879
229.365
227.851
226.338
224.825
223.311
221.795
220.281
218.768
217.256
215.742
214.228
212.713
211.198
209.683
208.17
206.659
205.147
203.632
202.115
200.599
199.087
197.576
196.062
194.547
193.032
191.518
190.004
188.49
186.978
185.466
183.953
182.436
180.918
179.403
177.891
176.382
174.87
173.356
171.839
170.322
168.806
167.292
165.779
164.268
162.759
161.249
159.735
158.216
156.696
155.178
153.664
152.153
150.644
149.136
147.626
146.111
144.592
143.072
141.553
140.038
138.527
137.018
135.509
134
132.487
130.971
129.452
127.933
126.416
124.901
123.389
121.88
120.372
118.863
117.349
115.832
114.314
112.797
111.281
109.765
108.251
106.74
105.23
103.72
102.207
100.692
99.1769
97.6604
96.1433
94.6267
93.1124
91.6005
90.0894
88.5774
87.0643
85.5513
84.0387
82.5247
81.0081
79.49
77.9736
76.4603
74.9487
73.4367
71.9243
70.413
68.9031
67.3923
65.8788
64.3628
62.8458
61.3287
59.8115
58.2943
56.7785
55.265
53.7537
52.2436
50.7343
49.2255
47.7163
46.2055
44.6926
43.1775
41.6604
40.1413
38.6206
37.0995
35.5793
34.0603
32.5422
31.0255
29.5111
27.9996
26.4902
24.9818
23.474
21.9666
20.4589
18.9498
17.4391
15.927
14.4132
12.8975
11.38
9.86173
8.34334
6.82473
5.306
3.78814
2.27171
0.75742
401.6
-2591.47
-591.206
864.445
827.64
394.625
243.674
312.659
381.716
386.328
366.312
355.926
356.484
358.386
357.57
355.311
353.304
351.822
350.462
349.003
347.468
345.924
344.407
342.905
341.393
339.875
338.361
336.848
335.333
333.818
332.305
330.793
329.279
327.763
326.247
324.734
323.22
321.706
320.193
318.681
317.168
315.652
314.137
312.626
311.114
309.599
308.083
306.571
305.058
303.544
302.027
300.515
299.004
297.49
295.973
294.457
292.944
291.432
289.918
288.404
286.891
285.378
283.862
282.347
280.834
279.322
277.81
276.296
274.781
273.265
271.751
270.239
268.726
267.211
265.695
264.181
262.668
261.156
259.643
258.129
256.613
255.098
253.585
252.074
250.561
249.046
247.53
246.016
244.503
242.99
241.475
239.96
238.447
236.935
235.422
233.906
232.391
230.878
229.365
227.852
226.338
224.824
223.31
221.795
220.281
218.768
217.255
215.742
214.227
212.712
211.2
209.687
208.172
206.657
205.144
203.631
202.116
200.601
199.088
197.577
196.064
194.548
193.031
191.516
190.004
188.492
186.979
185.466
183.952
182.436
180.919
179.403
177.891
176.381
174.871
173.358
171.841
170.322
168.805
167.291
165.78
164.27
162.76
161.248
159.733
158.215
156.696
155.178
153.665
152.154
150.646
149.136
147.625
146.11
144.591
143.071
141.553
140.038
138.528
137.019
135.51
133.999
132.486
130.969
129.45
127.931
126.414
124.901
123.39
121.88
120.371
118.861
117.348
115.831
114.312
112.794
111.278
109.764
108.251
106.74
105.229
103.719
102.206
100.691
99.1749
97.6584
96.142
94.6259
93.1111
91.5986
90.0883
88.5781
87.066
85.5517
84.0369
82.5223
81.0071
79.4903
77.9731
76.458
74.9462
73.4362
71.9257
70.4144
68.903
67.3916
65.8786
64.363
62.8455
61.3277
59.8103
58.2936
56.778
55.2644
53.7531
52.2433
50.7343
49.2253
47.716
46.2055
44.6927
43.1775
41.6601
40.1411
38.6204
37.0989
35.5779
34.0587
32.5413
31.0255
29.5114
27.9995
26.49
24.9818
23.4742
21.9666
20.4588
18.9499
17.4393
15.927
14.4133
12.8978
11.3806
9.86187
8.34284
6.82406
5.30554
3.78775
2.27129
0.757071
401.605
-2591.48
-591.213
864.448
827.649
394.626
243.664
312.649
381.716
386.335
366.32
355.928
356.48
358.38
357.565
355.308
353.3
351.822
350.465
348.997
347.459
345.922
344.407
342.903
341.393
339.874
338.36
336.848
335.332
333.816
332.302
330.791
329.278
327.763
326.249
324.735
323.219
321.705
320.192
318.68
317.167
315.651
314.136
312.623
311.112
309.6
308.084
306.568
305.055
303.544
302.03
300.515
299.001
297.489
295.974
294.458
292.943
291.43
289.918
288.405
286.891
285.376
283.861
282.347
280.836
279.323
277.809
276.294
274.779
273.265
271.752
270.239
268.725
267.211
265.696
264.182
262.668
261.155
259.642
258.128
256.614
255.1
253.585
252.072
250.559
249.046
247.532
246.017
244.502
242.989
241.475
239.961
238.447
236.934
235.421
233.907
232.391
230.877
229.365
227.852
226.339
224.824
223.309
221.795
220.281
218.767
217.254
215.741
214.227
212.712
211.2
209.688
208.174
206.657
205.141
203.627
202.115
200.603
199.09
197.577
196.063
194.547
193.03
191.515
190.003
188.493
186.981
185.466
183.95
182.433
180.918
179.404
177.892
176.381
174.871
173.358
171.842
170.323
168.805
167.29
165.779
164.27
162.76
161.247
159.731
158.214
156.695
155.179
153.665
152.155
150.647
149.137
147.624
146.108
144.59
143.071
141.553
140.039
138.529
137.021
135.511
134
132.485
130.968
129.449
127.931
126.415
124.902
123.393
121.883
120.373
118.861
117.347
115.831
114.313
112.794
111.278
109.764
108.253
106.742
105.232
103.72
102.207
100.692
99.1749
97.6578
96.1417
94.6268
93.1128
91.6
90.0887
88.5786
87.0677
85.5542
84.0382
82.5216
81.0058
79.4903
77.9745
76.4592
74.9461
73.4358
71.9266
70.4166
68.905
67.3926
65.8791
64.3638
62.8464
61.3281
59.8102
58.2935
56.7782
55.2646
53.7531
52.2435
50.7348
49.226
47.7165
46.2057
44.693
43.1777
41.6601
40.141
38.6208
37.0997
35.5785
34.0586
32.5409
31.0256
29.5121
28.0003
26.4906
24.9824
23.475
21.9674
20.4595
18.9506
17.44
15.9274
14.4131
12.8975
11.3805
9.86202
8.34276
6.82375
5.30537
3.78785
2.27164
0.757098
401.6
-2591.49
-591.22
864.438
827.639
394.624
243.665
312.654
381.717
386.333
366.316
355.927
356.486
358.385
357.566
355.309
353.305
351.826
350.468
348.999
347.459
345.923
344.405
342.899
341.392
339.878
338.363
336.848
335.335
333.82
332.304
330.79
329.277
327.763
326.249
324.734
323.22
321.706
320.193
318.681
317.168
315.654
314.138
312.622
311.11
309.6
308.087
306.57
305.055
303.544
302.031
300.515
298.998
297.486
295.975
294.461
292.945
291.431
289.919
288.406
286.89
285.374
283.86
282.349
280.838
279.325
277.809
276.292
274.778
273.266
271.753
270.24
268.726
267.211
265.696
264.182
262.668
261.155
259.642
258.128
256.615
255.1
253.586
252.071
250.558
249.046
247.533
246.018
244.502
242.988
241.475
239.962
238.448
236.934
235.421
233.907
232.392
230.878
229.364
227.851
226.338
224.825
223.31
221.796
220.282
218.767
217.253
215.74
214.228
212.715
211.201
209.687
208.173
206.657
205.14
203.626
202.115
200.605
199.093
197.578
196.062
194.545
193.029
191.515
190.004
188.494
186.983
185.468
183.95
182.432
180.916
179.404
177.894
176.383
174.872
173.358
171.841
170.323
168.806
167.291
165.779
164.27
162.76
161.247
159.731
158.213
156.695
155.18
153.667
152.157
150.648
149.137
147.623
146.106
144.588
143.07
141.555
140.041
138.531
137.022
135.512
133.999
132.484
130.966
129.448
127.931
126.415
124.903
123.394
121.885
120.374
118.86
117.344
115.828
114.311
112.793
111.277
109.764
108.253
106.743
105.232
103.72
102.206
100.691
99.1734
97.6557
96.1393
94.6251
93.1125
91.6007
90.0891
88.5779
87.0666
85.5539
84.0386
82.5212
81.0037
79.4877
77.9731
76.4591
74.9461
73.435
71.9258
70.4167
68.906
67.3933
65.879
64.3633
62.846
61.3276
59.8093
58.2923
56.7772
55.2638
53.7524
52.2428
50.7343
49.2259
47.7164
46.2055
44.6927
43.1774
41.6596
40.1401
38.6198
37.0992
35.5785
34.0586
32.5405
31.025
29.5117
28.0004
26.4907
24.9824
23.475
21.9675
20.4594
18.9503
17.4399
15.9275
14.4131
12.8971
11.38
9.86185
8.3427
6.82345
5.3049
3.78743
2.27118
0.75701
401.603
-2591.48
-591.217
864.445
827.644
394.621
243.659
312.646
381.712
386.335
366.319
355.925
356.482
358.382
357.565
355.309
353.3
351.82
350.47
349.003
347.46
345.924
344.406
342.897
341.39
339.876
338.359
336.845
335.335
333.821
332.304
330.788
329.275
327.763
326.25
324.735
323.219
321.705
320.192
318.679
317.166
315.652
314.139
312.624
311.109
309.596
308.084
306.571
305.056
303.542
302.029
300.515
299
297.487
295.974
294.459
292.944
291.431
289.919
288.406
286.889
285.374
283.861
282.35
280.837
279.323
277.807
276.292
274.779
273.266
271.753
270.24
268.726
267.211
265.696
264.181
262.667
261.155
259.643
258.129
256.614
255.099
253.585
252.071
250.558
249.046
247.533
246.019
244.503
242.988
241.474
239.961
238.448
236.934
235.42
233.907
232.393
230.878
229.363
227.85
226.337
224.825
223.311
221.797
220.282
218.766
217.251
215.738
214.227
212.716
211.203
209.687
208.171
206.655
205.14
203.626
202.115
200.606
199.094
197.578
196.06
194.543
193.028
191.516
190.005
188.494
186.982
185.467
183.949
182.431
180.915
179.403
177.894
176.385
174.873
173.357
171.84
170.322
168.806
167.292
165.78
164.27
162.759
161.246
159.73
158.212
156.695
155.18
153.668
152.157
150.647
149.136
147.622
146.105
144.586
143.069
141.555
140.043
138.533
137.023
135.512
133.999
132.482
130.964
129.447
127.931
126.417
124.905
123.395
121.885
120.374
118.86
117.344
115.826
114.309
112.793
111.278
109.765
108.255
106.745
105.234
103.721
102.206
100.69
99.173
97.6556
96.1392
94.6247
93.1128
91.6022
90.0916
88.5799
87.0674
85.5539
84.0391
82.5222
81.0041
79.4869
77.972
76.4592
74.9475
73.4366
71.9269
70.4177
68.9074
67.395
65.8803
64.3639
62.8464
61.328
59.8095
58.2923
56.7771
55.264
53.7527
52.2431
50.7346
49.2262
47.717
46.206
44.693
43.1779
41.6603
40.1405
38.6197
37.0989
35.5786
34.0592
32.5412
31.0254
29.5121
28.001
26.4914
24.9832
23.4757
21.9683
20.4601
18.9508
17.4402
15.9279
14.4136
12.8974
11.3799
9.8617
8.34277
6.82355
5.30487
3.78741
2.27127
0.757163
401.59
-2591.49
-591.216
864.441
827.645
394.628
243.66
312.641
381.709
386.335
366.318
355.922
356.484
358.385
357.562
355.309
353.305
351.821
350.465
349.002
347.46
345.922
344.408
342.901
341.392
339.879
338.362
336.845
335.332
333.82
332.306
330.79
329.275
327.764
326.251
324.735
323.219
321.706
320.194
318.68
317.165
315.652
314.14
312.627
311.111
309.596
308.084
306.573
305.058
303.54
302.026
300.515
299.004
297.49
295.974
294.458
292.945
291.432
289.919
288.404
286.89
285.376
283.863
282.35
280.836
279.321
277.807
276.294
274.78
273.266
271.753
270.24
268.727
267.212
265.696
264.18
262.667
261.156
259.644
258.13
256.614
255.098
253.584
252.072
250.56
249.046
247.532
246.019
244.505
242.989
241.474
239.96
238.447
236.934
235.421
233.908
232.394
230.878
229.363
227.849
226.337
224.826
223.313
221.798
220.282
218.766
217.251
215.738
214.227
212.717
211.205
209.688
208.17
206.653
205.14
203.628
202.117
200.607
199.094
197.578
196.059
194.542
193.028
191.517
190.007
188.496
186.982
185.466
183.948
182.431
180.916
179.404
177.895
176.385
174.873
173.358
171.84
170.322
168.806
167.293
165.782
164.271
162.759
161.245
159.729
158.212
156.695
155.182
153.67
152.159
150.648
149.135
147.62
146.104
144.586
143.07
141.556
140.045
138.535
137.024
135.512
133.998
132.481
130.963
129.446
127.931
126.419
124.907
123.397
121.886
120.373
118.859
117.342
115.824
114.307
112.791
111.278
109.767
108.256
106.746
105.234
103.721
102.205
100.688
99.171
97.6542
96.1383
94.6242
93.1121
91.6018
90.092
88.5809
87.0677
85.5531
84.0375
82.521
81.0035
79.4861
77.9704
76.4576
74.9469
73.437
71.9274
70.4179
68.9076
67.3954
65.8806
64.3637
62.8457
61.3272
59.8088
58.2914
56.776
55.2629
53.752
52.2426
50.7341
49.2258
47.7166
46.2056
44.6924
43.1771
41.6597
40.1403
38.6194
37.0982
35.5779
34.0587
32.541
31.0253
29.512
28.0009
26.4915
24.9833
23.4757
21.9683
20.4602
18.9507
17.4398
15.9275
14.4134
12.8973
11.3796
9.86108
8.34222
6.82321
5.30457
3.78705
2.27106
0.756848
401.584
-2591.5
-591.223
864.436
827.639
394.629
243.669
312.652
381.709
386.331
366.323
355.925
356.48
358.38
357.561
355.31
353.303
351.819
350.465
349.004
347.463
345.923
344.407
342.9
341.389
339.876
338.362
336.847
335.332
333.818
332.304
330.79
329.277
327.764
326.249
324.734
323.22
321.706
320.192
318.679
317.166
315.652
314.138
312.623
311.11
309.597
308.085
306.573
305.058
303.541
302.026
300.515
299.003
297.488
295.972
294.458
292.945
291.432
289.918
288.403
286.89
285.377
283.863
282.349
280.834
279.321
277.808
276.295
274.78
273.265
271.752
270.24
268.726
267.211
265.695
264.181
262.668
261.156
259.643
258.129
256.613
255.098
253.585
252.072
250.56
249.046
247.532
246.018
244.505
242.99
241.474
239.958
238.446
236.934
235.423
233.909
232.393
230.876
229.361
227.848
226.337
224.827
223.314
221.798
220.28
218.763
217.25
215.738
214.227
212.717
211.204
209.687
208.168
206.651
205.139
203.629
202.119
200.607
199.093
197.576
196.058
194.541
193.028
191.517
190.008
188.496
186.981
185.464
183.947
182.431
180.917
179.405
177.895
176.385
174.872
173.357
171.839
170.321
168.806
167.293
165.782
164.271
162.758
161.244
159.728
158.211
156.696
155.182
153.671
152.16
150.647
149.134
147.618
146.102
144.586
143.071
141.557
140.046
138.536
137.025
135.511
133.996
132.479
130.962
129.445
127.931
126.419
124.909
123.399
121.887
120.373
118.857
117.341
115.823
114.306
112.791
111.278
109.768
108.258
106.747
105.235
103.721
102.205
100.687
99.1697
97.653
96.1382
94.625
93.1133
91.6027
90.0929
88.5822
87.0694
85.5541
84.0373
82.5201
81.003
79.4863
77.9707
76.4576
74.9471
73.4381
71.9292
70.4196
68.9089
67.3966
65.8818
64.3648
62.8462
61.3273
59.8089
58.2915
56.776
55.2629
53.7521
52.2429
50.7345
49.2262
47.717
46.2061
44.6928
43.1772
41.6597
40.1405
38.6199
37.0987
35.5781
34.0589
32.5415
31.026
29.5127
28.0016
26.4923
24.9841
23.4764
21.9689
20.4608
18.9514
17.4403
15.9276
14.4134
12.8975
11.3799
9.8612
8.34213
6.82317
5.30468
3.78721
2.27111
0.757069
401.586
-2591.5
-591.218
864.442
827.64
394.621
243.661
312.647
381.705
386.326
366.32
355.926
356.483
358.386
357.563
355.307
353.304
351.821
350.464
349.003
347.461
345.919
344.406
342.902
341.389
339.873
338.362
336.851
335.336
333.819
332.304
330.79
329.277
327.762
326.248
324.736
323.222
321.707
320.191
318.679
317.169
315.655
314.138
312.623
311.11
309.598
308.084
306.57
305.057
303.544
302.03
300.516
299.002
297.487
295.973
294.458
292.945
291.432
289.919
288.405
286.891
285.376
283.862
282.348
280.835
279.323
277.81
276.295
274.78
273.265
271.752
270.24
268.726
267.211
265.696
264.182
262.669
261.156
259.642
258.128
256.614
255.1
253.586
252.072
250.558
249.045
247.532
246.019
244.506
242.99
241.474
239.958
238.445
236.935
235.424
233.91
232.393
230.875
229.36
227.848
226.339
224.829
223.316
221.799
220.279
218.762
217.249
215.74
214.23
212.717
211.203
209.686
208.169
206.652
205.14
203.63
202.12
200.608
199.092
197.574
196.057
194.542
193.029
191.518
190.008
188.497
186.981
185.464
183.946
182.431
180.918
179.407
177.896
176.385
174.871
173.355
171.839
170.322
168.807
167.295
165.783
164.271
162.758
161.243
159.727
158.212
156.697
155.184
153.672
152.16
150.648
149.133
147.617
146.101
144.586
143.072
141.559
140.048
138.538
137.026
135.511
133.995
132.478
130.961
129.446
127.932
126.421
124.911
123.4
121.888
120.373
118.856
117.339
115.822
114.305
112.791
111.279
109.769
108.259
106.748
105.235
103.721
102.204
100.686
99.1682
97.6515
96.137
94.6247
93.1138
91.6035
90.0931
88.5821
87.0694
85.5542
84.0367
82.5185
81.001
79.4849
77.9701
76.4572
74.9467
73.4379
71.9296
70.4204
68.9094
67.3967
65.8817
64.3646
62.8458
61.3265
59.8079
58.2906
56.7752
55.2621
53.7513
52.2422
50.734
49.2256
47.7164
46.2056
44.6925
43.1768
41.659
40.1397
38.6193
37.0984
35.5778
34.0586
32.5412
31.026
29.5128
28.0017
26.4924
24.9843
23.4766
21.9688
20.4605
18.9512
17.4403
15.9274
14.4128
12.8969
11.3795
9.86082
8.34165
6.82265
5.30425
3.78685
2.2709
0.756868
401.59
-2591.51
-591.231
864.437
827.635
394.619
243.665
312.656
381.714
386.327
366.319
355.927
356.48
358.385
357.567
355.308
353.303
351.823
350.463
349.001
347.463
345.923
344.408
342.903
341.39
339.874
338.36
336.848
335.334
333.82
332.305
330.789
329.275
327.762
326.249
324.736
323.222
321.706
320.191
318.678
317.165
315.652
314.138
312.624
311.112
309.599
308.084
306.568
305.055
303.543
302.029
300.515
299.002
297.488
295.973
294.458
292.943
291.431
289.919
288.406
286.891
285.375
283.86
282.348
280.836
279.324
277.81
276.294
274.779
273.265
271.752
270.239
268.725
267.211
265.697
264.183
262.669
261.154
259.64
258.127
256.615
255.102
253.587
252.071
250.556
249.043
247.533
246.021
244.506
242.989
241.472
239.957
238.446
236.936
235.425
233.91
232.391
230.873
229.359
227.849
226.34
224.829
223.315
221.797
220.278
218.761
217.249
215.74
214.23
212.717
211.201
209.684
208.167
206.653
205.141
203.631
202.12
200.606
199.09
197.572
196.056
194.542
193.03
191.519
190.008
188.495
186.98
185.463
183.947
182.432
180.919
179.408
177.896
176.384
174.869
173.353
171.837
170.322
168.809
167.296
165.784
164.271
162.757
161.241
159.726
158.211
156.698
155.185
153.673
152.16
150.646
149.131
147.615
146.099
144.585
143.073
141.561
140.05
138.538
137.025
135.51
133.993
132.476
130.96
129.446
127.934
126.422
124.912
123.401
121.888
120.372
118.855
117.337
115.82
114.304
112.791
111.28
109.77
108.26
106.749
105.236
103.72
102.203
100.685
99.1673
97.6509
96.1367
94.6249
93.1148
91.6052
90.0948
88.583
87.0697
85.5544
84.037
82.5184
81.0003
79.484
77.97
76.4579
74.9477
73.439
71.9309
70.4219
68.9111
67.398
65.8826
64.3653
62.8464
61.3269
59.8079
58.2906
56.7753
55.2623
53.7515
52.2426
50.7344
49.226
47.7166
46.2057
44.6927
43.1772
41.6593
40.1398
38.6194
37.0987
35.5783
34.0591
32.5418
31.0266
29.5136
28.0026
26.4932
24.985
23.4774
21.9695
20.4609
18.9515
17.4406
15.9278
14.4131
12.8969
11.3794
9.86094
8.34181
6.82274
5.30434
3.78703
2.271
0.75702
401.594
-2591.5
-591.223
864.441
827.646
394.624
243.657
312.645
381.713
386.331
366.316
355.923
356.479
358.383
357.565
355.306
353.304
351.824
350.461
348.998
347.463
345.923
344.404
342.9
341.392
339.877
338.359
336.845
335.333
333.822
332.306
330.789
329.275
327.763
326.251
324.735
323.22
321.707
320.194
318.68
317.165
315.651
314.138
312.625
311.111
309.598
308.086
306.572
305.057
303.542
302.028
300.515
299.003
297.489
295.974
294.458
292.944
291.432
289.919
288.405
286.89
285.375
283.861
282.349
280.837
279.324
277.81
276.294
274.779
273.265
271.751
270.238
268.726
267.213
265.699
264.183
262.668
261.152
259.639
258.128
256.617
255.104
253.587
252.07
250.554
249.043
247.534
246.022
244.507
242.988
241.471
239.957
238.447
236.938
235.426
233.909
232.39
230.873
229.36
227.851
226.342
224.83
223.314
221.796
220.278
218.763
217.251
215.741
214.231
212.717
211.2
209.683
208.167
206.655
205.143
203.632
202.12
200.606
199.089
197.572
196.057
194.543
193.032
191.521
190.008
188.494
186.979
185.463
183.948
182.434
180.921
179.409
177.896
176.382
174.867
173.352
171.837
170.324
168.811
167.298
165.785
164.271
162.756
161.241
159.726
158.212
156.699
155.187
153.674
152.161
150.646
149.13
147.614
146.099
144.586
143.074
141.563
140.052
138.539
137.025
135.509
133.992
132.475
130.959
129.446
127.935
126.425
124.914
123.401
121.887
120.371
118.854
117.335
115.818
114.304
112.792
111.281
109.771
108.261
106.75
105.236
103.72
102.202
100.683
99.166
97.6502
96.1364
94.6249
93.1151
91.6059
90.0957
88.5836
87.0693
85.5533
84.0358
82.5174
80.9992
79.4827
77.9689
76.4575
74.9479
73.4393
71.9312
70.4223
68.9116
67.3983
65.8826
64.3648
62.8458
61.3262
59.8071
58.2896
56.7744
55.2615
53.7509
52.2419
50.7338
49.2256
47.7162
46.205
44.6918
43.1765
41.6588
40.1392
38.6187
37.0981
35.5779
34.0589
32.5417
31.0266
29.5138
28.0028
26.4933
24.9851
23.4774
21.9695
20.4609
18.9511
17.4401
15.9274
14.4128
12.8964
11.3787
9.86031
8.34133
6.82234
5.30394
3.78668
2.27079
0.756839
401.588
-2591.5
-591.227
864.437
827.642
394.622
243.659
312.649
381.71
386.328
366.321
355.929
356.479
358.38
357.566
355.306
353.302
351.825
350.466
349
347.462
345.924
344.408
342.901
341.392
339.876
338.36
336.847
335.334
333.819
332.305
330.79
329.276
327.762
326.249
324.735
323.22
321.705
320.192
318.68
317.167
315.653
314.139
312.623
311.108
309.596
308.085
306.572
305.056
303.541
302.027
300.516
299.003
297.488
295.972
294.458
292.945
291.432
289.918
288.404
286.89
285.376
283.863
282.349
280.835
279.322
277.809
276.295
274.78
273.264
271.75
270.237
268.726
267.214
265.7
264.182
262.665
261.151
259.64
258.131
256.619
255.104
253.585
252.067
250.553
249.044
247.535
246.023
244.506
242.986
241.469
239.957
238.449
236.939
235.425
233.907
232.389
230.872
229.36
227.852
226.342
224.829
223.312
221.793
220.277
218.764
217.252
215.741
214.229
212.715
211.198
209.682
208.167
206.655
205.144
203.632
202.118
200.603
199.087
197.572
196.057
194.544
193.032
191.52
190.007
188.492
186.977
185.463
183.949
182.435
180.922
179.408
177.894
176.38
174.865
173.351
171.837
170.325
168.812
167.299
165.785
164.269
162.754
161.239
159.725
158.212
156.7
155.188
153.675
152.16
150.644
149.128
147.613
146.099
144.586
143.075
141.565
140.053
138.54
137.024
135.507
133.99
132.474
130.959
129.446
127.936
126.426
124.915
123.402
121.887
120.37
118.852
117.334
115.818
114.304
112.792
111.282
109.773
108.262
106.75
105.236
103.719
102.201
100.682
99.1649
97.6497
96.1368
94.6258
93.1161
91.6069
90.0968
88.5847
87.07
85.5532
84.0352
82.5169
80.999
79.4827
77.9689
76.4579
74.9489
73.4408
71.9327
70.4236
68.9128
67.3995
65.8835
64.3655
62.8461
61.3264
59.8073
58.2898
56.7746
55.2618
53.7512
52.2422
50.7341
49.2259
47.7165
46.2053
44.692
43.1766
41.6589
40.1395
38.619
37.0984
35.5784
34.0596
32.5424
31.0274
29.5147
28.0038
26.4943
24.9858
23.478
21.9701
20.4615
18.9516
17.4402
15.9274
14.4129
12.8965
11.3788
9.86028
8.34137
6.82248
5.30411
3.78685
2.27099
0.756992
401.593
-2591.5
-591.226
864.437
827.64
394.631
243.664
312.644
381.711
386.332
366.319
355.926
356.481
358.382
357.567
355.307
353.303
351.825
350.466
348.999
347.458
345.923
344.408
342.9
341.39
339.875
338.36
336.847
335.334
333.82
332.306
330.791
329.275
327.761
326.249
324.737
323.222
321.705
320.191
318.68
317.168
315.654
314.138
312.624
311.111
309.598
308.085
306.57
305.055
303.542
302.03
300.517
299.002
297.487
295.973
294.46
292.946
291.432
289.917
288.404
286.892
285.379
283.864
282.348
280.833
279.322
277.811
276.297
274.78
273.263
271.749
270.237
268.728
267.216
265.7
264.181
262.663
261.15
259.642
258.133
256.621
255.103
253.583
252.066
250.555
249.046
247.536
246.023
244.504
242.985
241.47
239.959
238.45
236.939
235.424
233.906
232.389
230.874
229.363
227.853
226.342
224.828
223.311
221.793
220.278
218.766
217.255
215.742
214.228
212.713
211.198
209.683
208.17
206.657
205.145
203.632
202.117
200.602
199.087
197.573
196.059
194.546
193.033
191.52
190.006
188.491
186.977
185.464
183.951
182.438
180.924
179.409
177.893
176.378
174.864
173.351
171.839
170.326
168.814
167.3
165.785
164.269
162.753
161.239
159.726
158.214
156.702
155.19
153.676
152.16
150.644
149.127
147.612
146.099
144.587
143.077
141.566
140.054
138.54
137.024
135.506
133.989
132.473
130.959
129.447
127.937
126.427
124.916
123.403
121.887
120.369
118.851
117.333
115.817
114.304
112.793
111.283
109.774
108.263
106.75
105.235
103.718
102.199
100.681
99.1637
97.6489
96.1367
94.6263
93.1169