/*--------------------------------*- C++ -*----------------------------------*\
| =========                 |                                                 |
| \\      /  F ield         | OpenFOAM: The Open Source CFD Toolbox           |
|  \\    /   O peration     | Version:  2406                                  |
|   \\  /    A nd           | Website:  www.openfoam.com                      |
|    \\/     M anipulation  |                                                 |
\*---------------------------------------------------------------------------*/
FoamFile
{
    version     2.0;
    format      ascii;
    arch        "LSB;label=32;scalar=64";
    class       surfaceScalarField;
    location    "0.7";
    object      phi;
}
// * * * * * * * * * * * * * * * * * * * * * * * * * * * * * * * * * * * * * //

dimensions      [0 3 -1 0 0 0 0];

oriented        oriented;

internalField   nonuniform List<scalar> 
12225
(
0.491544
1.35926e-06
0.491538
6.72946e-06
0.491529
8.47032e-06
0.491523
6.29007e-06
0.491518
4.84646e-06
0.491513
4.58228e-06
0.491509
4.42692e-06
0.491505
4.18301e-06
0.4915
4.66028e-06
0.491495
5.2477e-06
0.491489
5.92637e-06
0.491482
6.44697e-06
0.491476
6.67363e-06
0.491469
6.5161e-06
0.491463
6.14311e-06
0.491457
5.8169e-06
0.491452
5.46409e-06
0.491447
5.18703e-06
0.491442
5.06025e-06
0.491437
4.99168e-06
0.491432
4.90441e-06
0.491427
4.49367e-06
0.491423
4.0023e-06
0.491419
3.88859e-06
0.491415
4.01787e-06
0.491411
3.98756e-06
0.491407
4.14359e-06
0.491402
4.7437e-06
0.491397
5.11455e-06
0.491392
4.95359e-06
0.491388
4.58472e-06
0.491383
4.45115e-06
0.491379
4.61593e-06
0.491374
4.78334e-06
0.491369
5.00589e-06
0.491364
5.29039e-06
0.491358
5.46977e-06
0.491353
5.55664e-06
0.491347
5.60095e-06
0.491341
5.60264e-06
0.491336
5.60328e-06
0.49133
5.63742e-06
0.491324
5.72664e-06
0.491319
5.89768e-06
0.491312
6.11341e-06
0.491306
6.28644e-06
0.4913
6.41116e-06
0.491293
6.57636e-06
0.491286
6.72083e-06
0.49128
6.57338e-06
0.491274
6.12034e-06
0.491268
5.88806e-06
0.491262
6.26942e-06
0.491255
6.81991e-06
0.491248
6.85062e-06
0.491241
6.44767e-06
0.491235
6.24915e-06
0.491229
6.42793e-06
0.491222
6.56261e-06
0.491216
6.39496e-06
0.49121
6.14154e-06
0.491204
6.05645e-06
0.491198
6.09288e-06
0.491191
6.09554e-06
0.491185
6.04072e-06
0.491179
5.96343e-06
0.491174
5.85542e-06
0.491168
5.71242e-06
0.491162
5.5512e-06
0.491157
5.37203e-06
0.491152
5.20704e-06
0.491147
5.1397e-06
0.491141
5.23341e-06
0.491136
5.43186e-06
0.49113
5.58364e-06
0.491125
5.5611e-06
0.491119
5.38976e-06
0.491114
5.21309e-06
0.491109
5.14464e-06
0.491104
5.15757e-06
0.491099
5.17009e-06
0.491094
5.1703e-06
0.491088
5.19543e-06
0.491083
5.21935e-06
0.491078
5.15554e-06
0.491073
4.97983e-06
0.491068
4.80319e-06
0.491063
4.75705e-06
0.491059
4.83641e-06
0.491054
4.89386e-06
0.491049
4.83553e-06
0.491044
4.77159e-06
0.491039
4.85219e-06
0.491034
4.99419e-06
0.491029
4.95485e-06
0.491025
4.70831e-06
0.49102
4.52819e-06
0.491015
4.59347e-06
0.491011
4.72323e-06
0.491006
4.65416e-06
0.491002
4.44037e-06
0.490997
4.3468e-06
0.490993
4.4439e-06
0.490988
4.52128e-06
0.490984
4.39551e-06
0.49098
4.15173e-06
0.490976
3.99082e-06
0.490972
3.98435e-06
0.490968
4.11192e-06
0.490963
4.36045e-06
0.490959
4.64683e-06
0.490954
4.7489e-06
0.490949
4.52042e-06
0.490945
4.17675e-06
0.490941
4.12383e-06
0.490937
4.46383e-06
0.490932
4.84997e-06
0.490927
4.95153e-06
0.490922
4.83394e-06
0.490917
4.78857e-06
0.490912
4.88554e-06
0.490907
4.96275e-06
0.490902
4.95892e-06
0.490897
5.00602e-06
0.490892
5.17057e-06
0.490887
5.30889e-06
0.490882
5.27615e-06
0.490877
5.14831e-06
0.490871
5.10808e-06
0.490866
5.18581e-06
0.490861
5.25125e-06
0.490856
5.24561e-06
0.49085
5.27417e-06
0.490845
5.41539e-06
0.49084
5.53446e-06
0.490834
5.41349e-06
0.490829
5.05977e-06
0.490824
4.77973e-06
0.490819
4.88545e-06
0.490814
5.31901e-06
0.490808
5.69629e-06
0.490803
5.68328e-06
0.490797
5.34406e-06
0.490792
5.01483e-06
0.490787
4.91809e-06
0.490782
4.96107e-06
0.490778
4.93064e-06
0.490773
4.78704e-06
0.490768
4.69518e-06
0.490763
4.76357e-06
0.490758
4.90509e-06
0.490753
4.94048e-06
0.490749
4.80469e-06
0.490744
4.55942e-06
0.49074
4.28808e-06
0.490736
4.04539e-06
0.490732
3.88609e-06
0.490728
3.84281e-06
0.490724
3.86563e-06
0.49072
3.84577e-06
0.490717
3.73021e-06
0.490713
3.57142e-06
0.49071
3.41416e-06
0.490706
3.21615e-06
0.490703
2.92694e-06
0.490701
2.57267e-06
0.490699
2.25019e-06
0.490697
2.02225e-06
0.490695
1.8519e-06
0.490693
1.72479e-06
0.490691
1.71484e-06
0.490689
1.83563e-06
0.490688
1.92117e-06
0.490686
1.77002e-06
0.490684
1.41031e-06
0.490683
1.06223e-06
0.490682
8.72438e-07
0.490682
7.95153e-07
0.490681
6.86846e-07
0.49068
5.10362e-07
0.49068
3.8887e-07
0.49068
4.06661e-07
0.490679
5.28397e-07
0.490678
6.55961e-07
0.490678
7.48342e-07
0.490677
7.75321e-07
0.490676
6.89944e-07
0.490676
4.88146e-07
0.490675
2.80889e-07
0.490675
2.20168e-07
0.490675
2.88466e-07
0.490675
3.22124e-07
0.490674
2.04308e-07
0.490674
8.87784e-08
0.490674
1.89003e-07
0.490674
5.09799e-07
0.490673
7.65335e-07
0.490672
7.23355e-07
0.490672
4.26153e-07
0.490672
2.05353e-07
0.490671
2.33311e-07
0.490671
3.61557e-07
0.490671
3.33855e-07
0.490671
8.26704e-08
0.490671
-1.59897e-07
0.490671
-1.73753e-07
0.490671
-2.40855e-08
0.490671
8.41194e-08
0.490671
9.28256e-08
0.490671
1.1963e-07
0.49067
2.42443e-07
0.49067
4.31729e-07
0.490669
6.04789e-07
0.490669
7.10416e-07
0.490668
7.23702e-07
0.490667
6.4982e-07
0.490667
5.084e-07
0.490666
3.76302e-07
0.490666
2.92809e-07
0.490666
2.29344e-07
0.490666
1.42575e-07
0.490666
-2.19021e-08
0.490666
-1.59389e-07
0.490666
-1.81407e-07
0.490666
-1.54486e-07
0.490666
-1.78065e-07
0.490667
-2.3361e-07
0.490667
-2.03484e-07
0.490667
-9.25691e-08
0.490667
-4.63716e-08
0.490667
-1.47456e-07
0.490667
-2.65405e-07
0.490668
-2.25974e-07
0.490668
-9.68458e-09
0.490667
1.52943e-07
0.490667
1.90261e-07
0.490667
2.01328e-07
0.490667
2.89225e-07
0.490666
4.43358e-07
0.490666
5.72834e-07
0.490665
6.24426e-07
0.490665
5.9398e-07
0.490664
4.89052e-07
0.490664
3.06453e-07
0.490664
1.20295e-07
0.490664
-1.37335e-08
0.490664
-3.81205e-08
0.490664
8.37039e-09
0.490664
-6.58659e-08
-2.02557e-08
0.491549
6.07326e-07
0.491555
8.43208e-07
0.491562
1.83848e-06
0.491565
2.98796e-06
0.491567
3.06042e-06
0.491568
2.77352e-06
0.49157
2.79193e-06
0.491572
2.67904e-06
0.491574
2.14115e-06
0.491577
2.10047e-06
0.491581
2.1329e-06
0.491585
2.31824e-06
0.491589
2.49864e-06
0.491593
2.46352e-06
0.491597
2.41192e-06
0.491601
2.33389e-06
0.491604
2.12913e-06
0.491607
1.98414e-06
0.49161
2.1571e-06
0.491613
2.23844e-06
0.491615
2.39263e-06
0.491617
2.82562e-06
0.491618
2.92429e-06
0.491619
2.57944e-06
0.491621
2.40138e-06
0.491623
2.40938e-06
0.491625
1.97048e-06
0.491628
1.58666e-06
0.491631
1.88102e-06
0.491634
2.47823e-06
0.491635
2.81888e-06
0.491637
2.76008e-06
0.491639
2.70496e-06
0.491641
2.72325e-06
0.491643
2.57909e-06
0.491646
2.39958e-06
0.491649
2.39393e-06
0.491652
2.51765e-06
0.491655
2.6206e-06
0.491658
2.64395e-06
0.491661
2.64851e-06
0.491664
2.68046e-06
0.491667
2.69882e-06
0.491671
2.64526e-06
0.491674
2.44193e-06
0.491679
2.07166e-06
0.491683
1.72086e-06
0.491688
1.71083e-06
0.491693
2.23867e-06
0.491696
3.04683e-06
0.491699
3.46385e-06
0.491701
3.14201e-06
0.491705
2.57588e-06
0.49171
2.40358e-06
0.491714
2.5106e-06
0.491718
2.41808e-06
0.491722
2.20568e-06
0.491726
2.30883e-06
0.49173
2.6789e-06
0.491734
2.8253e-06
0.491737
2.5611e-06
0.491741
2.23332e-06
0.491745
2.19731e-06
0.491749
2.44084e-06
0.491752
2.73762e-06
0.491755
2.88587e-06
0.491758
2.79795e-06
0.491761
2.55862e-06
0.491764
2.38865e-06
0.491767
2.409e-06
0.49177
2.50559e-06
0.491773
2.49416e-06
0.491775
2.3708e-06
0.491779
2.31734e-06
0.491782
2.44688e-06
0.491785
2.63712e-06
0.491787
2.68426e-06
0.49179
2.6139e-06
0.491792
2.67826e-06
0.491795
2.96445e-06
0.491797
3.17535e-06
0.491799
2.99061e-06
0.491801
2.51984e-06
0.491804
2.19949e-06
0.491807
2.25132e-06
0.49181
2.46383e-06
0.491812
2.50657e-06
0.491815
2.35473e-06
0.491817
2.24876e-06
0.49182
2.32142e-06
0.491822
2.40653e-06
0.491825
2.30216e-06
0.491827
2.11321e-06
0.49183
2.11145e-06
0.491833
2.2988e-06
0.491835
2.38966e-06
0.491837
2.28032e-06
0.49184
2.22504e-06
0.491842
2.39801e-06
0.491844
2.56221e-06
0.491846
2.41621e-06
0.491849
2.07393e-06
0.491851
1.91856e-06
0.491854
2.07562e-06
0.491856
2.27922e-06
0.491858
2.29169e-06
0.491859
2.20624e-06
0.491861
2.20496e-06
0.491863
2.28046e-06
0.491865
2.3329e-06
0.491867
2.39894e-06
0.491869
2.55703e-06
0.491871
2.69807e-06
0.491873
2.61955e-06
0.491875
2.37668e-06
0.491877
2.29286e-06
0.491879
2.51883e-06
0.491881
2.82095e-06
0.491883
2.88584e-06
0.491885
2.72681e-06
0.491887
2.5969e-06
0.49189
2.61135e-06
0.491892
2.67097e-06
0.491894
2.70463e-06
0.491897
2.7807e-06
0.491899
2.92755e-06
0.491901
3.01151e-06
0.491904
2.89917e-06
0.491906
2.65764e-06
0.491909
2.47976e-06
0.491912
2.43367e-06
0.491914
2.39497e-06
0.491918
2.25889e-06
0.491921
2.13272e-06
0.491924
2.22454e-06
0.491927
2.52745e-06
0.491929
2.74002e-06
0.491932
2.58191e-06
0.491934
2.1672e-06
0.491938
1.91842e-06
0.491941
2.11669e-06
0.491944
2.55969e-06
0.491947
2.80315e-06
0.491949
2.65826e-06
0.491952
2.35024e-06
0.491955
2.19677e-06
0.491957
2.24361e-06
0.49196
2.30739e-06
0.491962
2.2739e-06
0.491965
2.24949e-06
0.491967
2.37023e-06
0.49197
2.60673e-06
0.491972
2.8153e-06
0.491973
2.89845e-06
0.491975
2.83933e-06
0.491976
2.64932e-06
0.491978
2.38236e-06
0.491979
2.1767e-06
0.491981
2.17495e-06
0.491982
2.36218e-06
0.491984
2.56231e-06
0.491984
2.63775e-06
0.491985
2.60908e-06
0.491986
2.55004e-06
0.491986
2.47021e-06
0.491987
2.35048e-06
0.491987
2.23979e-06
0.491986
2.22398e-06
0.491986
2.29396e-06
0.491985
2.3423e-06
0.491985
2.32729e-06
0.491984
2.35391e-06
0.491984
2.51805e-06
0.491983
2.72324e-06
0.491981
2.76557e-06
0.49198
2.58725e-06
0.491978
2.35154e-06
0.491977
2.24462e-06
0.491975
2.27519e-06
0.491973
2.33722e-06
0.491971
2.39243e-06
0.491969
2.46838e-06
0.491967
2.54575e-06
0.491965
2.56643e-06
0.491964
2.55308e-06
0.491962
2.59321e-06
0.49196
2.67863e-06
0.491958
2.64991e-06
0.491956
2.39789e-06
0.491954
2.06515e-06
0.491952
1.91898e-06
0.49195
2.03603e-06
0.491948
2.17992e-06
0.491946
2.09971e-06
0.491945
1.87317e-06
0.491943
1.83796e-06
0.491942
2.16382e-06
0.49194
2.61559e-06
0.491938
2.79224e-06
0.491935
2.60296e-06
0.491933
2.32707e-06
0.491931
2.23995e-06
0.491929
2.29893e-06
0.491927
2.26046e-06
0.491925
2.05009e-06
0.491923
1.85935e-06
0.491921
1.87594e-06
0.491919
2.05615e-06
0.491917
2.2257e-06
0.491915
2.30261e-06
0.491913
2.31889e-06
0.491911
2.30438e-06
0.491909
2.25227e-06
0.491908
2.20021e-06
0.491906
2.21686e-06
0.491905
2.28981e-06
0.491903
2.31329e-06
0.491901
2.24284e-06
0.491899
2.17451e-06
0.491897
2.21505e-06
0.491895
2.32166e-06
0.491892
2.34786e-06
0.49189
2.26753e-06
0.491888
2.19538e-06
0.491885
2.206e-06
0.491883
2.22267e-06
0.491881
2.1394e-06
0.491878
2.02495e-06
0.491876
2.0544e-06
0.491874
2.24672e-06
0.491871
2.40483e-06
0.491869
2.37244e-06
0.491866
2.24203e-06
0.491864
2.23203e-06
0.491862
2.37138e-06
0.491859
2.49927e-06
0.491857
2.4943e-06
0.491855
2.39908e-06
0.491853
2.3136e-06
0.491851
2.26462e-06
0.49185
2.23613e-06
0.491848
2.24974e-06
0.491846
2.33242e-06
0.491844
2.4288e-06
0.491842
2.44117e-06
0.49184
2.35599e-06
0.491837
2.29199e-06
0.491835
2.28919e-06
0.491832
2.47933e-06
2.32706e-06
0.491548
2.8281e-07
0.491548
4.54655e-07
0.491549
4.25447e-07
0.491551
1.16142e-06
0.491553
1.40069e-06
0.491554
1.97905e-06
0.491554
2.34049e-06
0.491554
2.4409e-06
0.491554
2.44175e-06
0.491554
1.98803e-06
0.491555
1.49585e-06
0.491556
1.37722e-06
0.491557
1.64522e-06
0.491557
1.95268e-06
0.491557
2.29016e-06
0.491557
2.86311e-06
0.491556
3.1834e-06
0.491555
2.76457e-06
0.491555
2.34674e-06
0.491555
2.17034e-06
0.491555
2.10088e-06
0.491556
2.24137e-06
0.491556
2.50056e-06
0.491556
2.79964e-06
0.491555
2.98574e-06
0.491555
3.1708e-06
0.491553
3.08676e-06
0.491552
2.578e-06
0.491552
2.25373e-06
0.491552
2.37023e-06
0.491552
2.52294e-06
0.491553
2.49765e-06
0.491553
2.44569e-06
0.491553
2.48096e-06
0.491553
2.41799e-06
0.491554
2.20507e-06
0.491554
2.0707e-06
0.491554
2.18612e-06
0.491554
2.43313e-06
0.491554
2.56414e-06
0.491555
2.59073e-06
0.491555
2.70045e-06
0.491554
2.88402e-06
0.491554
2.98188e-06
0.491554
2.9397e-06
0.491553
2.81157e-06
0.491552
2.587e-06
0.491551
2.21032e-06
0.491552
1.86572e-06
0.491553
1.93078e-06
0.491554
2.35573e-06
0.491555
2.51996e-06
0.491555
2.12905e-06
0.491556
1.7347e-06
0.491556
1.87548e-06
0.491557
2.25739e-06
0.491556
2.34128e-06
0.491557
2.16533e-06
0.491557
2.09176e-06
0.491558
2.15331e-06
0.491558
2.10938e-06
0.491559
1.93898e-06
0.491559
1.87081e-06
0.491559
2.00039e-06
0.49156
2.17786e-06
0.491561
2.22817e-06
0.491561
2.1121e-06
0.491562
1.911e-06
0.491562
1.77411e-06
0.491563
1.8084e-06
0.491564
1.9814e-06
0.491564
2.15145e-06
0.491564
2.2076e-06
0.491564
2.15422e-06
0.491565
2.07816e-06
0.491565
2.0385e-06
0.491566
1.98424e-06
0.491567
1.85682e-06
0.491568
1.75735e-06
0.491569
1.87437e-06
0.49157
2.17975e-06
0.49157
2.37006e-06
0.491571
2.21619e-06
0.491571
1.87166e-06
0.491572
1.68745e-06
0.491572
1.78924e-06
0.491573
1.96031e-06
0.491573
1.96212e-06
0.491574
1.85208e-06
0.491574
1.88997e-06
0.491574
2.14654e-06
0.491574
2.35626e-06
0.491574
2.28902e-06
0.491574
2.11653e-06
0.491574
2.18034e-06
0.491574
2.48169e-06
0.491574
2.69489e-06
0.491573
2.67253e-06
0.491573
2.62823e-06
0.491573
2.7424e-06
0.491572
2.86228e-06
0.491572
2.76843e-06
0.491571
2.52627e-06
0.491571
2.38555e-06
0.491571
2.40644e-06
0.49157
2.4318e-06
0.49157
2.38393e-06
0.49157
2.35932e-06
0.49157
2.39894e-06
0.49157
2.36825e-06
0.49157
2.17972e-06
0.491571
1.97345e-06
0.491572
1.91731e-06
0.491572
1.93595e-06
0.491573
1.83981e-06
0.491573
1.65512e-06
0.491574
1.61174e-06
0.491575
1.79299e-06
0.491576
1.99443e-06
0.491577
2.02237e-06
0.491578
1.94786e-06
0.491578
1.95552e-06
0.491579
2.06917e-06
0.491579
2.17486e-06
0.49158
2.24023e-06
0.49158
2.34475e-06
0.491581
2.49653e-06
0.491581
2.5643e-06
0.491582
2.45293e-06
0.491582
2.26179e-06
0.491582
2.18474e-06
0.491582
2.26851e-06
0.491582
2.35263e-06
0.491582
2.27979e-06
0.491582
2.12107e-06
0.491582
2.10668e-06
0.491583
2.32848e-06
0.491583
2.58606e-06
0.491582
2.59469e-06
0.491582
2.3364e-06
0.491582
2.09695e-06
0.491582
2.12551e-06
0.491583
2.33346e-06
0.491583
2.40726e-06
0.491583
2.18502e-06
0.491584
1.83328e-06
0.491584
1.62664e-06
0.491585
1.65179e-06
0.491585
1.78678e-06
0.491586
1.9099e-06
0.491586
2.00936e-06
0.491587
2.10177e-06
0.491587
2.15282e-06
0.491588
2.12907e-06
0.491589
2.05707e-06
0.49159
1.97742e-06
0.49159
1.8873e-06
0.49159
1.78589e-06
0.491591
1.75033e-06
0.491591
1.86707e-06
0.491592
2.09149e-06
0.491592
2.27682e-06
0.491592
2.33451e-06
0.491593
2.29971e-06
0.491593
2.23838e-06
0.491593
2.16397e-06
0.491593
2.08507e-06
0.491593
2.06984e-06
0.491594
2.18091e-06
0.491594
2.353e-06
0.491593
2.43022e-06
0.491593
2.35723e-06
0.491594
2.25313e-06
0.491594
2.24516e-06
0.491595
2.29195e-06
0.491595
2.24843e-06
0.491595
2.07679e-06
0.491596
1.89445e-06
0.491596
1.8057e-06
0.491597
1.79201e-06
0.491597
1.80979e-06
0.491598
1.8902e-06
0.491598
2.06132e-06
0.491599
2.2408e-06
0.491599
2.31437e-06
0.491599
2.2983e-06
0.491599
2.31579e-06
0.4916
2.39343e-06
0.4916
2.38346e-06
0.4916
2.16091e-06
0.4916
1.84436e-06
0.4916
1.72527e-06
0.4916
1.93636e-06
0.4916
2.27833e-06
0.4916
2.45531e-06
0.491599
2.42677e-06
0.491599
2.43504e-06
0.491599
2.66416e-06
0.491598
2.9707e-06
0.491598
3.05663e-06
0.491597
2.84149e-06
0.491597
2.54899e-06
0.491597
2.42074e-06
0.491597
2.44507e-06
0.491596
2.44175e-06
0.491596
2.33916e-06
0.491596
2.25057e-06
0.491595
2.28583e-06
0.491595
2.40518e-06
0.491595
2.50704e-06
0.491595
2.56106e-06
0.491594
2.58326e-06
0.491594
2.549e-06
0.491594
2.42966e-06
0.491594
2.28468e-06
0.491594
2.21717e-06
0.491594
2.23613e-06
0.491594
2.24178e-06
0.491594
2.17381e-06
0.491594
2.09852e-06
0.491594
2.10348e-06
0.491595
2.15076e-06
0.491595
2.12717e-06
0.491595
2.02012e-06
0.491595
1.94561e-06
0.491595
1.97307e-06
0.491596
2.00332e-06
0.491596
1.92195e-06
0.491596
1.79991e-06
0.491596
1.81736e-06
0.491597
2.00537e-06
0.491597
2.18882e-06
0.491597
2.21942e-06
0.491597
2.156e-06
0.491597
2.1468e-06
0.491597
2.22519e-06
0.491598
2.30067e-06
0.491598
2.30903e-06
0.491598
2.27775e-06
0.491598
2.24337e-06
0.491598
2.19107e-06
0.491598
2.11324e-06
0.491598
2.06922e-06
0.491599
2.11851e-06
0.491599
2.22286e-06
0.491599
2.28679e-06
0.491599
2.28766e-06
0.491599
2.24707e-06
0.491599
2.28467e-06
2.2899e-06
0.491546
-7.33999e-08
0.491546
6.36752e-07
0.491545
9.89422e-07
0.491545
1.15944e-06
0.491545
1.92931e-06
0.491545
2.21573e-06
0.491545
2.05847e-06
0.491546
1.69919e-06
0.491546
1.59549e-06
0.491546
1.95372e-06
0.491546
2.44426e-06
0.491545
2.31806e-06
0.491544
1.97856e-06
0.491544
1.84407e-06
0.491545
1.56521e-06
0.491547
1.35189e-06
0.491548
1.75558e-06
0.491548
2.29371e-06
0.491548
2.54521e-06
0.491548
2.24913e-06
0.491549
1.61942e-06
0.49155
1.3914e-06
0.491551
1.53326e-06
0.491552
1.50107e-06
0.491553
1.47173e-06
0.491555
1.81724e-06
0.491556
2.23035e-06
0.491556
2.31304e-06
0.491556
2.03941e-06
0.491557
1.7051e-06
0.491558
1.56382e-06
0.491559
1.53292e-06
0.491559
1.58266e-06
0.49156
1.88356e-06
0.49156
2.22223e-06
0.49156
2.27088e-06
0.49156
2.12835e-06
0.49156
2.00894e-06
0.491561
1.90442e-06
0.491562
1.79293e-06
0.491562
1.78288e-06
0.491563
1.8981e-06
0.491564
1.98842e-06
0.491565
1.96917e-06
0.491566
1.93387e-06
0.491567
2.01486e-06
0.491567
2.18683e-06
0.491567
2.20538e-06
0.491567
1.8807e-06
0.491568
1.4703e-06
0.491569
1.45668e-06
0.491569
1.81282e-06
0.491569
2.02559e-06
0.491569
1.94167e-06
0.491569
1.96513e-06
0.491569
2.2807e-06
0.491569
2.53164e-06
0.491569
2.4228e-06
0.491569
2.14096e-06
0.491569
2.00941e-06
0.491569
2.08051e-06
0.491569
2.21908e-06
0.491568
2.32406e-06
0.491568
2.33144e-06
0.491568
2.20024e-06
0.491568
2.01019e-06
0.491568
1.9219e-06
0.491568
1.97966e-06
0.491568
2.08201e-06
0.491567
2.13952e-06
0.491567
2.16792e-06
0.491567
2.22771e-06
0.491567
2.31382e-06
0.491567
2.34268e-06
0.491567
2.27239e-06
0.491567
2.2017e-06
0.491566
2.24151e-06
0.491566
2.32718e-06
0.491565
2.28583e-06
0.491565
2.11031e-06
0.491565
1.99054e-06
0.491566
2.05535e-06
0.491566
2.20454e-06
0.491565
2.27345e-06
0.491565
2.25213e-06
0.491564
2.25561e-06
0.491564
2.32678e-06
0.491563
2.3558e-06
0.491563
2.23594e-06
0.491563
2.05325e-06
0.491563
2.00542e-06
0.491563
2.09859e-06
0.491563
2.09402e-06
0.491564
1.86779e-06
0.491564
1.642e-06
0.491565
1.66693e-06
0.491566
1.82734e-06
0.491567
1.81252e-06
0.491568
1.58654e-06
0.491569
1.4379e-06
0.49157
1.54303e-06
0.491571
1.74449e-06
0.491572
1.8178e-06
0.491573
1.77471e-06
0.491573
1.76692e-06
0.491574
1.83036e-06
0.491574
1.89707e-06
0.491575
1.97425e-06
0.491575
2.1238e-06
0.491575
2.27046e-06
0.491575
2.22848e-06
0.491575
1.97934e-06
0.491575
1.75934e-06
0.491576
1.75941e-06
0.491575
1.87716e-06
0.491575
1.8937e-06
0.491575
1.80273e-06
0.491575
1.78017e-06
0.491575
1.87984e-06
0.491575
1.97042e-06
0.491575
1.97625e-06
0.491575
2.00726e-06
0.491575
2.17037e-06
0.491575
2.3867e-06
0.491575
2.49967e-06
0.491574
2.48776e-06
0.491574
2.45494e-06
0.491575
2.44412e-06
0.491575
2.37274e-06
0.491575
2.18032e-06
0.491575
1.96493e-06
0.491575
1.89853e-06
0.491576
2.01321e-06
0.491576
2.13283e-06
0.491576
2.07013e-06
0.491576
1.85439e-06
0.491577
1.71281e-06
0.491578
1.80783e-06
0.491578
2.03091e-06
0.491578
2.13718e-06
0.491578
2.03406e-06
0.491579
1.86983e-06
0.491579
1.82394e-06
0.49158
1.87325e-06
0.49158
1.84996e-06
0.49158
1.68644e-06
0.49158
1.51355e-06
0.49158
1.50482e-06
0.491581
1.6821e-06
0.49158
1.93348e-06
0.49158
2.15275e-06
0.49158
2.29245e-06
0.49158
2.31676e-06
0.49158
2.20277e-06
0.49158
2.00828e-06
0.49158
1.85948e-06
0.49158
1.82917e-06
0.49158
1.87107e-06
0.49158
1.91623e-06
0.49158
1.97059e-06
0.49158
2.05993e-06
0.49158
2.13877e-06
0.49158
2.12706e-06
0.49158
2.02412e-06
0.491581
1.91256e-06
0.491581
1.84343e-06
0.491581
1.78986e-06
0.491582
1.73728e-06
0.491582
1.75425e-06
0.491583
1.90125e-06
0.491583
2.09858e-06
0.491583
2.17911e-06
0.491583
2.08351e-06
0.491584
1.93057e-06
0.491584
1.85543e-06
0.491584
1.84105e-06
0.491585
1.7841e-06
0.491585
1.67352e-06
0.491585
1.60098e-06
0.491585
1.61389e-06
0.491585
1.66267e-06
0.491586
1.71499e-06
0.491586
1.8199e-06
0.491586
1.99801e-06
0.491586
2.14442e-06
0.491586
2.12949e-06
0.491587
1.96995e-06
0.491587
1.81319e-06
0.491588
1.73879e-06
0.491589
1.64839e-06
0.491589
1.41475e-06
0.49159
1.11176e-06
0.491591
9.92797e-07
0.491592
1.20877e-06
0.491592
1.60916e-06
0.491593
1.89573e-06
0.491593
1.95593e-06
0.491594
1.94443e-06
0.491595
2.02747e-06
0.491596
2.14767e-06
0.491597
2.11525e-06
0.491597
1.88426e-06
0.491598
1.63248e-06
0.491599
1.54715e-06
0.4916
1.61898e-06
0.491601
1.7071e-06
0.491601
1.74446e-06
0.491602
1.78384e-06
0.491602
1.86341e-06
0.491603
1.93781e-06
0.491603
1.96661e-06
0.491604
1.98025e-06
0.491604
2.0061e-06
0.491605
2.00116e-06
0.491605
1.92503e-06
0.491606
1.8291e-06
0.491606
1.80436e-06
0.491606
1.85521e-06
0.491607
1.89153e-06
0.491607
1.85979e-06
0.491607
1.81543e-06
0.491608
1.82414e-06
0.491608
1.84482e-06
0.491608
1.78528e-06
0.491608
1.66199e-06
0.491609
1.60488e-06
0.491609
1.66784e-06
0.491609
1.73792e-06
0.491609
1.70075e-06
0.49161
1.61845e-06
0.49161
1.64304e-06
0.49161
1.79853e-06
0.491611
1.95324e-06
0.491611
1.99949e-06
0.491611
1.96979e-06
0.491611
1.95e-06
0.491612
1.95427e-06
0.491612
1.94109e-06
0.491612
1.90629e-06
0.491613
1.88868e-06
0.491613
1.8925e-06
0.491613
1.87016e-06
0.491613
1.80361e-06
0.491614
1.74907e-06
0.491614
1.7594e-06
0.491615
1.81321e-06
0.491615
1.85626e-06
0.491616
1.86059e-06
0.491616
1.83837e-06
1.81076e-06
0.491549
-3.95036e-07
0.49155
3.53102e-07
0.49155
1.08392e-06
0.49155
8.40459e-07
0.491552
2.75754e-07
0.491553
6.73774e-07
0.491554
1.65899e-06
0.491553
2.34888e-06
0.491552
2.21512e-06
0.491553
1.64007e-06
0.491554
1.39927e-06
0.491554
1.63935e-06
0.491554
2.02187e-06
0.491554
2.17014e-06
0.491554
1.92731e-06
0.491553
1.64141e-06
0.491553
1.66167e-06
0.491554
1.5697e-06
0.491555
1.55233e-06
0.491555
2.1913e-06
0.491554
2.5626e-06
0.491553
2.08037e-06
0.491553
1.64674e-06
0.491553
1.60315e-06
0.491553
1.40378e-06
0.491554
1.24775e-06
0.491555
1.41313e-06
0.491555
1.64819e-06
0.491556
1.92566e-06
0.491555
2.21176e-06
0.491554
2.36122e-06
0.491553
2.31105e-06
0.491553
2.10874e-06
0.491553
1.89154e-06
0.491553
1.80792e-06
0.491554
1.83708e-06
0.491554
1.79293e-06
0.491554
1.59857e-06
0.491555
1.37926e-06
0.491556
1.28783e-06
0.491556
1.33878e-06
0.491556
1.46637e-06
0.491557
1.62281e-06
0.491557
1.75571e-06
0.491557
1.78314e-06
0.491557
1.72979e-06
0.491558
1.7959e-06
0.491558
2.05331e-06
0.491558
2.17642e-06
0.491557
1.88326e-06
0.491557
1.51924e-06
0.491557
1.5716e-06
0.491558
1.86874e-06
0.491558
1.86321e-06
0.491558
1.54781e-06
0.491559
1.39352e-06
0.49156
1.55486e-06
0.491561
1.71449e-06
0.491561
1.66497e-06
0.491562
1.57803e-06
0.491562
1.65886e-06
0.491562
1.84664e-06
0.491563
1.94599e-06
0.491563
1.86601e-06
0.491564
1.66812e-06
0.491564
1.50819e-06
0.491565
1.53021e-06
0.491565
1.71668e-06
0.491565
1.88782e-06
0.491565
1.89037e-06
0.491566
1.73751e-06
0.491566
1.56542e-06
0.491567
1.48449e-06
0.491568
1.47728e-06
0.491569
1.44881e-06
0.49157
1.3988e-06
0.491571
1.45476e-06
0.491571
1.65807e-06
0.491572
1.81726e-06
0.491572
1.71886e-06
0.491573
1.42806e-06
0.491573
1.2414e-06
0.491574
1.33026e-06
0.491575
1.56587e-06
0.491576
1.71482e-06
0.491576
1.72202e-06
0.491577
1.73419e-06
0.491577
1.86795e-06
0.491577
2.03323e-06
0.491577
2.0705e-06
0.491577
2.01718e-06
0.491577
2.06839e-06
0.491577
2.25872e-06
0.491577
2.38933e-06
0.491576
2.34887e-06
0.491575
2.28929e-06
0.491575
2.35545e-06
0.491574
2.42708e-06
0.491573
2.3135e-06
0.491573
2.07657e-06
0.491572
1.95361e-06
0.491572
2.0181e-06
0.491572
2.098e-06
0.491572
2.05344e-06
0.491571
1.95946e-06
0.491571
1.94159e-06
0.491571
1.98546e-06
0.491571
2.01273e-06
0.491571
2.04398e-06
0.491571
2.13181e-06
0.491571
2.1889e-06
0.491571
2.06667e-06
0.491571
1.81032e-06
0.491571
1.66889e-06
0.491571
1.77979e-06
0.491571
1.98453e-06
0.491571
2.057e-06
0.491571
1.98591e-06
0.491571
1.91517e-06
0.491571
1.89617e-06
0.491571
1.85856e-06
0.491571
1.79369e-06
0.491572
1.80005e-06
0.491572
1.91746e-06
0.491573
2.03005e-06
0.491573
2.0022e-06
0.491574
1.84482e-06
0.491574
1.68031e-06
0.491575
1.57472e-06
0.491576
1.47809e-06
0.491577
1.33805e-06
0.491577
1.22197e-06
0.491578
1.2666e-06
0.491579
1.49463e-06
0.491579
1.74237e-06
0.491579
1.81029e-06
0.491579
1.6919e-06
0.491579
1.59037e-06
0.49158
1.68212e-06
0.49158
1.91684e-06
0.49158
2.07882e-06
0.49158
2.04028e-06
0.49158
1.88302e-06
0.49158
1.7562e-06
0.49158
1.69548e-06
0.49158
1.63249e-06
0.49158
1.54591e-06
0.49158
1.5183e-06
0.49158
1.62175e-06
0.49158
1.81706e-06
0.49158
2.00073e-06
0.49158
2.1047e-06
0.491581
2.10543e-06
0.491581
1.98362e-06
0.491581
1.75302e-06
0.491581
1.51645e-06
0.491582
1.41257e-06
0.491582
1.4818e-06
0.491582
1.63538e-06
0.491583
1.77383e-06
0.491583
1.87274e-06
0.491583
1.93541e-06
0.491583
1.92677e-06
0.491583
1.82205e-06
0.491584
1.68425e-06
0.491584
1.61856e-06
0.491584
1.65011e-06
0.491584
1.70582e-06
0.491584
1.73746e-06
0.491584
1.79827e-06
0.491584
1.94605e-06
0.491584
2.11294e-06
0.491584
2.14928e-06
0.491584
2.00404e-06
0.491584
1.78636e-06
0.491585
1.6165e-06
0.491585
1.4947e-06
0.491585
1.37003e-06
0.491586
1.26698e-06
0.491586
1.25803e-06
0.491586
1.33931e-06
0.491586
1.42861e-06
0.491587
1.48981e-06
0.491587
1.56969e-06
0.491588
1.6794e-06
0.491588
1.71316e-06
0.491589
1.55548e-06
0.491589
1.24492e-06
0.49159
9.6302e-07
0.491591
8.37344e-07
0.491591
8.02282e-07
0.491592
7.16767e-07
0.491592
5.84658e-07
0.491593
5.89225e-07
0.491593
8.59436e-07
0.491594
1.26949e-06
0.491594
1.56146e-06
0.491595
1.62264e-06
0.491595
1.57362e-06
0.491596
1.57194e-06
0.491596
1.60732e-06
0.491597
1.55649e-06
0.491597
1.39278e-06
0.491597
1.24841e-06
0.491598
1.25199e-06
0.491598
1.38268e-06
0.491598
1.53428e-06
0.491598
1.66052e-06
0.491598
1.78143e-06
0.491598
1.88515e-06
0.491598
1.91966e-06
0.491599
1.88473e-06
0.491599
1.84604e-06
0.491599
1.83627e-06
0.491599
1.8106e-06
0.491599
1.73094e-06
0.491599
1.64619e-06
0.491599
1.63335e-06
0.4916
1.68231e-06
0.4916
1.70461e-06
0.4916
1.65772e-06
0.4916
1.60329e-06
0.4916
1.60311e-06
0.491601
1.60825e-06
0.491601
1.53393e-06
0.491601
1.4151e-06
0.491601
1.38448e-06
0.491601
1.48498e-06
0.491602
1.603e-06
0.491602
1.63215e-06
0.491602
1.61591e-06
0.491602
1.66783e-06
0.491602
1.80557e-06
0.491602
1.93605e-06
0.491602
1.98736e-06
0.491602
1.98137e-06
0.491602
1.96573e-06
0.491602
1.93847e-06
0.491602
1.87787e-06
0.491602
1.80594e-06
0.491602
1.76719e-06
0.491602
1.75553e-06
0.491602
1.7176e-06
0.491602
1.63523e-06
0.491603
1.55171e-06
0.491603
1.50747e-06
0.491603
1.49542e-06
0.491604
1.49475e-06
0.491604
1.47306e-06
1.45765e-06
0.491549
2.87621e-07
0.491548
9.73474e-07
0.491548
1.52235e-06
0.491547
2.02073e-06
0.491545
1.92824e-06
0.491545
1.13039e-06
0.491546
6.56788e-07
0.491548
4.78255e-07
0.491549
9.26915e-07
0.491549
1.3277e-06
0.491549
1.60901e-06
0.491549
1.52411e-06
0.49155
1.19186e-06
0.491551
1.31072e-06
0.491551
1.70174e-06
0.491551
1.55581e-06
0.491552
1.16225e-06
0.491552
1.07453e-06
0.491552
1.15316e-06
0.491553
1.29902e-06
0.491554
1.52431e-06
0.491555
1.75248e-06
0.491554
1.97775e-06
0.491554
2.06342e-06
0.491553
1.84379e-06
0.491553
1.39537e-06
0.491554
1.2603e-06
0.491554
1.46725e-06
0.491554
1.51592e-06
0.491555
1.42013e-06
0.491556
1.53382e-06
0.491556
1.7401e-06
0.491557
1.7461e-06
0.491557
1.57142e-06
0.491557
1.50683e-06
0.491557
1.70051e-06
0.491557
1.96153e-06
0.491557
2.08655e-06
0.491556
2.06773e-06
0.491555
1.92598e-06
0.491555
1.67051e-06
0.491555
1.40651e-06
0.491555
1.27566e-06
0.491556
1.30475e-06
0.491556
1.37638e-06
0.491557
1.35133e-06
0.491557
1.27488e-06
0.491558
1.37487e-06
0.491558
1.67681e-06
0.491558
1.88176e-06
0.491558
1.83239e-06
0.491558
1.77095e-06
0.491558
1.85041e-06
0.491558
1.82034e-06
0.491558
1.51512e-06
0.491558
1.20472e-06
0.491559
1.18151e-06
0.491559
1.35793e-06
0.491559
1.49168e-06
0.491559
1.54853e-06
0.491559
1.61491e-06
0.491559
1.64442e-06
0.49156
1.53084e-06
0.49156
1.34176e-06
0.491561
1.26512e-06
0.491561
1.37279e-06
0.491561
1.58397e-06
0.491561
1.76699e-06
0.491561
1.83869e-06
0.491561
1.79961e-06
0.491561
1.69151e-06
0.491561
1.55875e-06
0.491561
1.45763e-06
0.491561
1.45528e-06
0.491561
1.53634e-06
0.491561
1.59865e-06
0.491561
1.59284e-06
0.491561
1.58361e-06
0.491561
1.61398e-06
0.491561
1.60657e-06
0.491561
1.4919e-06
0.491561
1.35802e-06
0.491561
1.35848e-06
0.491561
1.50111e-06
0.491561
1.61855e-06
0.491561
1.56262e-06
0.491561
1.38559e-06
0.491562
1.28303e-06
0.491563
1.33806e-06
0.491563
1.40431e-06
0.491564
1.33126e-06
0.491565
1.22168e-06
0.491566
1.28715e-06
0.491567
1.50105e-06
0.491567
1.62029e-06
0.491568
1.54729e-06
0.491569
1.4572e-06
0.49157
1.50415e-06
0.491571
1.60434e-06
0.491571
1.60747e-06
0.491572
1.53097e-06
0.491572
1.49261e-06
0.491573
1.48812e-06
0.491573
1.41353e-06
0.491574
1.27381e-06
0.491575
1.20638e-06
0.491576
1.27308e-06
0.491576
1.35349e-06
0.491577
1.33185e-06
0.491578
1.26541e-06
0.491579
1.26193e-06
0.491579
1.28672e-06
0.49158
1.22766e-06
0.491581
1.125e-06
0.491581
1.15349e-06
0.491582
1.36109e-06
0.491582
1.58213e-06
0.491583
1.65944e-06
0.491583
1.63955e-06
0.491583
1.65953e-06
0.491583
1.74564e-06
0.491583
1.82819e-06
0.491583
1.89153e-06
0.491583
1.99021e-06
0.491583
2.12101e-06
0.491583
2.18004e-06
0.491583
2.0856e-06
0.491582
1.89266e-06
0.491582
1.73699e-06
0.491582
1.68439e-06
0.491582
1.66959e-06
0.491581
1.59936e-06
0.491581
1.48551e-06
0.491581
1.43514e-06
0.491581
1.50435e-06
0.491582
1.59654e-06
0.491582
1.56639e-06
0.491582
1.4027e-06
0.491582
1.25735e-06
0.491583
1.27309e-06
0.491584
1.4014e-06
0.491584
1.46121e-06
0.491585
1.34971e-06
0.491585
1.14275e-06
0.491586
9.8633e-07
0.491587
9.4085e-07
0.491587
9.77216e-07
0.491588
1.07454e-06
0.491588
1.24338e-06