/*--------------------------------*- C++ -*----------------------------------*\
| =========                 |                                                 |
| \\      /  F ield         | OpenFOAM: The Open Source CFD Toolbox           |
|  \\    /   O peration     | Version:  2406                                  |
|   \\  /    A nd           | Website:  www.openfoam.com                      |
|    \\/     M anipulation  |                                                 |
\*---------------------------------------------------------------------------*/
FoamFile
{
    version     2.0;
    format      ascii;
    arch        "LSB;label=32;scalar=64";
    class       volVectorField;
    location    "0.7";
    object      U;
}
// * * * * * * * * * * * * * * * * * * * * * * * * * * * * * * * * * * * * * //

dimensions      [0 1 -1 0 0 0 0];

internalField   nonuniform List<vector> 
6250
(
(48.4099 7.6539e-05 0)
(82.0604 0.000527247 0)
(70.5158 0.000844966 0)
(58.3705 0.000850637 0)
(57.6099 0.000720116 0)
(60.9166 0.000645131 0)
(62.3736 0.000623294 0)
(61.9475 0.000639624 0)
(61.3557 0.000699034 0)
(61.2553 0.000765754 0)
(61.3912 0.000804622 0)
(61.4722 0.000802064 0)
(61.4622 0.000800819 0)
(61.4337 0.000822145 0)
(61.4251 0.000868803 0)
(61.4295 0.000922297 0)
(61.4331 0.000947571 0)
(61.4325 0.000951264 0)
(61.4307 0.000944496 0)
(61.4295 0.000919459 0)
(61.4291 0.000883796 0)
(61.4287 0.000831077 0)
(61.4282 0.000766404 0)
(61.4277 0.000721847 0)
(61.4272 0.000709011 0)
(61.4266 0.000704694 0)
(61.4262 0.000729964 0)
(61.4257 0.000814494 0)
(61.425 0.00089432 0)
(61.4243 0.000890678 0)
(61.4237 0.000811643 0)
(61.4232 0.000735692 0)
(61.4226 0.00070736 0)
(61.422 0.000709146 0)
(61.4214 0.000731313 0)
(61.4208 0.000772547 0)
(61.4201 0.000815534 0)
(61.4194 0.000843236 0)
(61.4187 0.00085955 0)
(61.418 0.00088192 0)
(61.4173 0.000918336 0)
(61.4166 0.000961993 0)
(61.4159 0.00100604 0)
(61.4152 0.00105439 0)
(61.4145 0.001111 0)
(61.4137 0.00116615 0)
(61.4129 0.00120406 0)
(61.4121 0.00121598 0)
(61.4112 0.00119331 0)
(61.4104 0.00112356 0)
(61.4096 0.00102448 0)
(61.4088 0.000964215 0)
(61.4081 0.000994173 0)
(61.4073 0.00107206 0)
(61.4064 0.00111157 0)
(61.4056 0.00109824 0)
(61.4048 0.00108802 0)
(61.404 0.00110201 0)
(61.4032 0.00110086 0)
(61.4024 0.00106504 0)
(61.4016 0.00103024 0)
(61.4008 0.00102788 0)
(61.4001 0.00104109 0)
(61.3993 0.00103887 0)
(61.3986 0.00101798 0)
(61.3978 0.000993167 0)
(61.3971 0.000971959 0)
(61.3963 0.000954529 0)
(61.3956 0.000939966 0)
(61.3949 0.00092238 0)
(61.3943 0.000894324 0)
(61.3936 0.000861693 0)
(61.393 0.000844476 0)
(61.3923 0.000854285 0)
(61.3916 0.000874092 0)
(61.3909 0.000871546 0)
(61.3903 0.000835363 0)
(61.3896 0.000788774 0)
(61.389 0.000758978 0)
(61.3883 0.000747644 0)
(61.3877 0.000744717 0)
(61.387 0.000756236 0)
(61.3864 0.000793285 0)
(61.3857 0.000839373 0)
(61.3851 0.000856789 0)
(61.3844 0.000832197 0)
(61.3838 0.000795716 0)
(61.3832 0.000786656 0)
(61.3826 0.000811463 0)
(61.382 0.000845622 0)
(61.3814 0.000870467 0)
(61.3808 0.000894013 0)
(61.3802 0.000929593 0)
(61.3796 0.000964728 0)
(61.379 0.000971702 0)
(61.3784 0.000949977 0)
(61.3778 0.000933545 0)
(61.3772 0.000944144 0)
(61.3766 0.000959896 0)
(61.376 0.000951314 0)
(61.3755 0.000928583 0)
(61.3749 0.000924858 0)
(61.3744 0.000941629 0)
(61.3738 0.0009417 0)
(61.3733 0.00090085 0)
(61.3727 0.000839907 0)
(61.3722 0.000794872 0)
(61.3717 0.000775159 0)
(61.3712 0.000766995 0)
(61.3707 0.000763608 0)
(61.3701 0.000768322 0)
(61.3695 0.000771797 0)
(61.3689 0.000752915 0)
(61.3684 0.000711143 0)
(61.3679 0.000679176 0)
(61.3674 0.000686205 0)
(61.3668 0.000720076 0)
(61.3662 0.000743118 0)
(61.3655 0.00073982 0)
(61.365 0.000728839 0)
(61.3644 0.000730163 0)
(61.3637 0.000739858 0)
(61.3631 0.000744308 0)
(61.3625 0.000743305 0)
(61.3619 0.000746372 0)
(61.3612 0.000755146 0)
(61.3605 0.000763127 0)
(61.3599 0.000770587 0)
(61.3593 0.000787132 0)
(61.3586 0.000816225 0)
(61.3579 0.000846745 0)
(61.3573 0.000867305 0)
(61.3566 0.000883481 0)
(61.356 0.00090908 0)
(61.3553 0.000939703 0)
(61.3546 0.000948949 0)
(61.3539 0.000922715 0)
(61.3533 0.000889187 0)
(61.3527 0.000895605 0)
(61.3521 0.00095175 0)
(61.3514 0.00101034 0)
(61.3507 0.00101652 0)
(61.35 0.00096883 0)
(61.3494 0.000917834 0)
(61.3487 0.000904805 0)
(61.3481 0.000917436 0)
(61.3475 0.000914172 0)
(61.3469 0.000880119 0)
(61.3463 0.000841807 0)
(61.3457 0.000829506 0)
(61.3451 0.000839127 0)
(61.3445 0.000840847 0)
(61.3439 0.00081507 0)
(61.3433 0.00076918 0)
(61.3427 0.000722917 0)
(61.3422 0.000689863 0)
(61.3417 0.000673858 0)
(61.3412 0.00067122 0)
(61.3408 0.000670627 0)
(61.3403 0.00065918 0)
(61.3398 0.000635657 0)
(61.3393 0.000612556 0)
(61.3389 0.000599479 0)
(61.3385 0.000587893 0)
(61.3381 0.000559187 0)
(61.3378 0.00050721 0)
(61.3375 0.000445351 0)
(61.3372 0.000390728 0)
(61.337 0.000349307 0)
(61.3367 0.000319201 0)
(61.3365 0.000300191 0)
(61.3363 0.000292199 0)
(61.3361 0.000286096 0)
(61.3358 0.000264861 0)
(61.3356 0.000219574 0)
(61.3355 0.000160544 0)
(61.3354 0.000106563 0)
(61.3353 6.56843e-05 0)
(61.3352 3.20414e-05 0)
(61.3351 -7.90003e-07 0)
(61.335 -3.07337e-05 0)
(61.335 -5.07804e-05 0)
(61.3349 -5.5122e-05 0)
(61.3349 -4.16547e-05 0)
(61.3348 -1.75236e-05 0)
(61.3347 -1.29404e-06 0)
(61.3346 -9.95257e-06 0)
(61.3345 -3.87384e-05 0)
(61.3344 -6.25434e-05 0)
(61.3344 -6.2612e-05 0)
(61.3344 -4.69823e-05 0)
(61.3343 -4.08068e-05 0)
(61.3343 -5.19901e-05 0)
(61.3343 -5.95741e-05 0)
(61.3343 -3.96391e-05 0)
(61.3343 -1.64621e-08 0)
(61.3342 2.16306e-05 0)
(61.3341 -1.88768e-06 0)
(61.334 -5.29071e-05 0)
(61.3339 -8.82748e-05 0)
(61.3339 -8.65036e-05 0)
(61.3339 -6.69408e-05 0)
(61.3338 -6.24571e-05 0)
(61.3338 -8.01747e-05 0)
(61.3338 -9.98556e-05 0)
(61.3339 -0.000104655 0)
(61.3339 -9.99229e-05 0)
(61.3339 -0.000100707 0)
(61.3338 -0.00011007 0)
(61.3338 -0.000117812 0)
(61.3338 -0.000113243 0)
(61.3338 -9.47846e-05 0)
(61.3337 -6.79345e-05 0)
(61.3336 -4.2587e-05 0)
(61.3335 -3.20797e-05 0)
(61.3334 -4.56517e-05 0)
(61.3334 -7.51968e-05 0)
(61.3333 -0.000100352 0)
(61.3333 -0.000111141 0)
(61.3332 -0.000119653 0)
(61.3332 -0.000142588 0)
(61.3332 -0.000175683 0)
(61.3332 -0.000200849 0)
(61.3332 -0.000209606 0)
(61.3333 -0.000211314 0)
(61.3333 -0.000219843 0)
(61.3333 -0.000232191 0)
(61.3333 -0.00023347 0)
(61.3334 -0.000221438 0)
(61.3334 -0.00021453 0)
(61.3334 -0.000225603 0)
(61.3334 -0.000240436 0)
(61.3334 -0.000235908 0)
(61.3335 -0.000215254 0)
(61.3334 -0.000200688 0)
(61.3334 -0.00020269 0)
(61.3334 -0.000207092 0)
(61.3334 -0.000194833 0)
(61.3333 -0.000164898 0)
(61.3333 -0.000130748 0)
(61.3332 -0.000104268 0)
(61.3331 -9.05173e-05 0)
(61.333 -9.49505e-05 0)
(61.333 -0.000120452 0)
(61.333 -0.000156232 0)
(61.3329 -0.000182604 0)
(61.333 -0.000193554 0)
(61.333 -0.000193624 0)
(61.333 -0.000208613 0)
(61.333 -0.000221794 0)
(48.4103 9.29623e-05 0)
(82.0613 0.000461183 0)
(70.5191 0.000789762 0)
(58.3753 0.00081602 0)
(57.616 0.000691637 0)
(60.9229 0.000593208 0)
(62.3809 0.000516847 0)
(61.9554 0.000454007 0)
(61.3645 0.000437121 0)
(61.2651 0.000488943 0)
(61.4021 0.000584555 0)
(61.4843 0.000686552 0)
(61.4757 0.000738157 0)
(61.4486 0.000703714 0)
(61.4412 0.000612413 0)
(61.4468 0.000508501 0)
(61.4516 0.000403113 0)
(61.452 0.000333604 0)
(61.4513 0.000335805 0)
(61.451 0.000360863 0)
(61.4516 0.000380202 0)
(61.4521 0.000381213 0)
(61.4523 0.000347904 0)
(61.4523 0.0003085 0)
(61.4525 0.000297652 0)
(61.4527 0.000283516 0)
(61.4529 0.000246953 0)
(61.4533 0.000253485 0)
(61.4537 0.000313042 0)
(61.4541 0.000367806 0)
(61.4543 0.000381375 0)
(61.4545 0.000383031 0)
(61.4548 0.000413023 0)
(61.455 0.000447971 0)
(61.4553 0.000467825 0)
(61.4556 0.000484161 0)
(61.456 0.000502059 0)
(61.4564 0.000511019 0)
(61.4567 0.000500238 0)
(61.4571 0.000477925 0)
(61.4575 0.000461404 0)
(61.4579 0.000451721 0)
(61.4582 0.00043842 0)
(61.4586 0.000417947 0)
(61.459 0.000391647 0)
(61.4595 0.000362484 0)
(61.4601 0.000345694 0)
(61.4607 0.000368874 0)
(61.4613 0.000441484 0)
(61.4618 0.00052242 0)
(61.4622 0.000552716 0)
(61.4625 0.000536252 0)
(61.4629 0.000536885 0)
(61.4634 0.00057177 0)
(61.464 0.000578753 0)
(61.4645 0.000527466 0)
(61.465 0.000481553 0)
(61.4655 0.000499528 0)
(61.466 0.000546233 0)
(61.4665 0.000554622 0)
(61.4669 0.000520743 0)
(61.4674 0.000490003 0)
(61.4679 0.000486501 0)
(61.4684 0.000498433 0)
(61.4688 0.000510214 0)
(61.4692 0.000513517 0)
(61.4696 0.000501239 0)
(61.4699 0.000477342 0)
(61.4703 0.000460738 0)
(61.4707 0.000461999 0)
(61.4711 0.000468091 0)
(61.4714 0.000463003 0)
(61.4717 0.00045363 0)
(61.4721 0.000462796 0)
(61.4725 0.000496531 0)
(61.4729 0.000529695 0)
(61.4732 0.000536012 0)
(61.4736 0.000525933 0)
(61.4739 0.000532447 0)
(61.4742 0.000559395 0)
(61.4744 0.000570458 0)
(61.4747 0.000539775 0)
(61.475 0.000489234 0)
(61.4754 0.000457893 0)
(61.4758 0.000452347 0)
(61.4761 0.000447845 0)
(61.4764 0.000428462 0)
(61.4767 0.000404827 0)
(61.477 0.000391363 0)
(61.4773 0.000380998 0)
(61.4776 0.000354226 0)
(61.4779 0.00031136 0)
(61.4782 0.000279042 0)
(61.4786 0.000272756 0)
(61.479 0.00027005 0)
(61.4793 0.000244357 0)
(61.4795 0.000211218 0)
(61.4798 0.000207373 0)
(61.4801 0.000229396 0)
(61.4804 0.000232532 0)
(61.4807 0.000197283 0)
(61.4809 0.000161317 0)
(61.4812 0.000166631 0)
(61.4816 0.000202034 0)
(61.4818 0.000224453 0)
(61.4821 0.000220153 0)
(61.4823 0.000215397 0)
(61.4825 0.000233037 0)
(61.4827 0.000266814 0)
(61.483 0.000303218 0)
(61.4832 0.000341626 0)
(61.4836 0.000378687 0)
(61.4838 0.000395017 0)
(61.484 0.000380874 0)
(61.4842 0.000363359 0)
(61.4844 0.000380918 0)
(61.4847 0.000432856 0)
(61.485 0.000477484 0)
(61.4853 0.00048538 0)
(61.4855 0.000471258 0)
(61.4858 0.000465279 0)
(61.4861 0.000474237 0)
(61.4864 0.000486784 0)
(61.4866 0.000500868 0)
(61.4869 0.000523471 0)
(61.4873 0.00054798 0)
(61.4875 0.000552899 0)
(61.4878 0.000528462 0)
(61.4881 0.000491414 0)
(61.4884 0.000465253 0)
(61.4888 0.00045338 0)
(61.4891 0.000441388 0)
(61.4895 0.000423102 0)
(61.4899 0.0004116 0)
(61.4903 0.000417364 0)
(61.4907 0.000424151 0)
(61.491 0.000402107 0)
(61.4913 0.000348788 0)
(61.4916 0.000303527 0)
(61.492 0.000309045 0)
(61.4924 0.000360577 0)
(61.4929 0.000407551 0)
(61.4932 0.000408095 0)
(61.4935 0.00037163 0)
(61.4938 0.000339965 0)
(61.4941 0.000335343 0)
(61.4945 0.000342139 0)
(61.4948 0.000338783 0)
(61.4951 0.000330524 0)
(61.4954 0.000339695 0)
(61.4958 0.000372251 0)
(61.4961 0.000408808 0)
(61.4963 0.00042695 0)
(61.4966 0.000420457 0)
(61.4967 0.000394953 0)
(61.4969 0.000358039 0)
(61.4971 0.000321305 0)
(61.4973 0.000301131 0)
(61.4975 0.000304908 0)
(61.4977 0.000319944 0)
(61.4979 0.000325779 0)
(61.498 0.000315493 0)
(61.4981 0.000296702 0)
(61.4982 0.000274024 0)
(61.4983 0.000242482 0)
(61.4983 0.000201749 0)
(61.4983 0.000165367 0)
(61.4983 0.000147282 0)
(61.4983 0.000145978 0)
(61.4982 0.000150769 0)
(61.4981 0.000159462 0)
(61.4981 0.000178952 0)
(61.498 0.000206613 0)
(61.4979 0.000222312 0)
(61.4978 0.00020865 0)
(61.4976 0.000174336 0)
(61.4974 0.000146269 0)
(61.4972 0.000139501 0)
(61.497 0.000146063 0)
(61.4968 0.000153926 0)
(61.4966 0.000163106 0)
(61.4963 0.000177317 0)
(61.496 0.000191813 0)
(61.4958 0.00020023 0)
(61.4956 0.000205043 0)
(61.4953 0.000210319 0)
(61.4951 0.000208239 0)
(61.4949 0.000186289 0)
(61.4946 0.000148287 0)
(61.4943 0.000117852 0)
(61.4941 0.000113996 0)
(61.4939 0.000125769 0)
(61.4937 0.000124845 0)
(61.4934 0.000102427 0)
(61.4932 8.51673e-05 0)
(61.493 0.000104176 0)
(61.4929 0.000152992 0)
(61.4927 0.000189794 0)
(61.4924 0.000186389 0)
(61.4921 0.000158715 0)
(61.4918 0.000142519 0)
(61.4915 0.000147544 0)
(61.4913 0.000149189 0)
(61.491 0.000126786 0)
(61.4908 9.31003e-05 0)
(61.4905 7.75789e-05 0)
(61.4903 9.0503e-05 0)
(61.49 0.000115469 0)
(61.4898 0.000134685 0)
(61.4895 0.000147326 0)
(61.4892 0.00016082 0)
(61.489 0.000175093 0)
(61.4887 0.000186119 0)
(61.4886 0.000195919 0)
(61.4884 0.000207655 0)
(61.4882 0.000215035 0)
(61.488 0.000209766 0)
(61.4877 0.000196519 0)
(61.4875 0.000189924 0)
(61.4873 0.000194788 0)
(61.487 0.000198963 0)
(61.4867 0.00019204 0)
(61.4864 0.000180034 0)
(61.4861 0.000177357 0)
(61.4858 0.000185568 0)
(61.4855 0.000188435 0)
(61.4852 0.0001777 0)
(61.4849 0.000169045 0)
(61.4847 0.000180112 0)
(61.4844 0.000201072 0)
(61.4841 0.000206654 0)
(61.4837 0.000193538 0)
(61.4834 0.000186294 0)
(61.4831 0.000201443 0)
(61.4829 0.000227855 0)
(61.4826 0.000243995 0)
(61.4823 0.000245036 0)
(61.482 0.000243006 0)
(61.4818 0.000245824 0)
(61.4815 0.000249089 0)
(61.4813 0.000247191 0)
(61.4811 0.000242337 0)
(61.4809 0.000236767 0)
(61.4807 0.000226001 0)
(61.4804 0.000207826 0)
(61.4801 0.00019089 0)
(61.4798 0.000185554 0)
(61.4795 0.000194201 0)
(61.4793 0.000206947 0)
(61.4788 0.000207234 0)
(48.41 7.062e-05 0)
(82.0611 3.73249e-05 0)
(70.5178 -3.74344e-05 0)
(58.3737 -2.90501e-05 0)
(57.614 -1.3322e-05 0)
(60.9213 5.27832e-05 0)
(62.3789 0.000141606 0)
(61.9535 0.000187738 0)
(61.3621 0.000178228 0)
(61.2624 0.000115954 0)
(61.3991 3.13901e-05 0)
(61.4809 -8.08447e-06 0)
(61.4719 4.16268e-06 0)
(61.4443 4.51474e-05 0)
(61.4365 0.000101532 0)
(61.4416 0.000170351 0)
(61.4458 0.000209953 0)
(61.4457 0.00018652 0)
(61.4445 0.000165956 0)
(61.444 0.000160573 0)
(61.4442 0.000181626 0)
(61.4445 0.000245048 0)
(61.4446 0.000299174 0)
(61.4445 0.000312573 0)
(61.4444 0.000320271 0)
(61.4444 0.000340051 0)
(61.4442 0.000301571 0)
(61.4441 0.000218723 0)
(61.444 0.000190495 0)
(61.444 0.000245653 0)
(61.444 0.000316016 0)
(61.4441 0.000333025 0)
(61.4441 0.000312873 0)
(61.4441 0.000281638 0)
(61.4442 0.000226858 0)
(61.4442 0.000161861 0)
(61.4442 0.000128881 0)
(61.4443 0.00014744 0)
(61.4443 0.000188755 0)
(61.4443 0.000213156 0)
(61.4443 0.000219665 0)
(61.4443 0.000231166 0)
(61.4443 0.000252945 0)
(61.4443 0.000266773 0)
(61.4442 0.000253099 0)
(61.4442 0.000212149 0)
(61.444 0.000162725 0)
(61.4439 0.000129393 0)
(61.4439 0.00014089 0)
(61.444 0.000206968 0)
(61.4442 0.000273263 0)
(61.4443 0.000256262 0)
(61.4443 0.000157746 0)
(61.4444 7.55906e-05 0)
(61.4445 6.7467e-05 0)
(61.4446 8.57727e-05 0)
(61.4445 8.01279e-05 0)
(61.4445 7.51538e-05 0)
(61.4446 0.000103196 0)
(61.4447 0.000133968 0)
(61.4448 0.000122832 0)
(61.4448 8.41054e-05 0)
(61.4448 7.05052e-05 0)
(61.4449 0.000103436 0)
(61.4449 0.000156431 0)
(61.445 0.000191119 0)
(61.4451 0.000186622 0)
(61.4452 0.000149284 0)
(61.4453 0.00010956 0)
(61.4454 9.86551e-05 0)
(61.4454 0.000119512 0)
(61.4455 0.000145689 0)
(61.4455 0.000150293 0)
(61.4455 0.000133532 0)
(61.4456 0.000119184 0)
(61.4456 0.000121356 0)
(61.4457 0.000125837 0)
(61.4458 0.000118335 0)
(61.4459 0.000118096 0)
(61.446 0.000153133 0)
(61.4462 0.000205314 0)
(61.4463 0.000216983 0)
(61.4463 0.000165539 0)
(61.4463 0.000100785 0)
(61.4464 8.67465e-05 0)
(61.4465 0.000126587 0)
(61.4466 0.000169516 0)
(61.4466 0.000180165 0)
(61.4467 0.000177028 0)
(61.4467 0.000196607 0)
(61.4468 0.000237262 0)
(61.4468 0.00026207 0)
(61.4468 0.00025699 0)
(61.4467 0.000256033 0)
(61.4468 0.000289687 0)
(61.4468 0.000335971 0)
(61.4467 0.000354976 0)
(61.4467 0.000351823 0)
(61.4466 0.000363804 0)
(61.4466 0.000392944 0)
(61.4466 0.000397075 0)
(61.4465 0.000356206 0)
(61.4464 0.000308526 0)
(61.4463 0.000299069 0)
(61.4463 0.000320647 0)
(61.4463 0.000332754 0)
(61.4463 0.00032091 0)
(61.4463 0.000306634 0)
(61.4463 0.000304571 0)
(61.4462 0.00030153 0)
(61.4462 0.000285432 0)
(61.4463 0.000268652 0)
(61.4464 0.00026559 0)
(61.4465 0.000265651 0)
(61.4466 0.000249851 0)
(61.4466 0.000224738 0)
(61.4467 0.000216049 0)
(61.4469 0.000229983 0)
(61.447 0.000242849 0)
(61.4471 0.00023432 0)
(61.4471 0.000211917 0)
(61.4472 0.000194695 0)
(61.4473 0.000187936 0)
(61.4474 0.000185777 0)
(61.4474 0.000187929 0)
(61.4475 0.000198484 0)
(61.4476 0.000211062 0)
(61.4477 0.000209368 0)
(61.4477 0.000187359 0)
(61.4477 0.000160905 0)
(61.4477 0.000151648 0)
(61.4478 0.000160993 0)
(61.4478 0.000168618 0)
(61.4477 0.000161641 0)
(61.4477 0.000157577 0)
(61.4478 0.000185036 0)
(61.4478 0.000240153 0)
(61.4479 0.000278376 0)
(61.4478 0.000263241 0)
(61.4478 0.000215099 0)
(61.4477 0.000192991 0)
(61.4478 0.000225708 0)
(61.4478 0.000277323 0)
(61.4479 0.000290259 0)
(61.4479 0.00025217 0)
(61.4479 0.000204735 0)
(61.448 0.000190087 0)
(61.4481 0.000206821 0)
(61.4481 0.000225188 0)
(61.4482 0.000229081 0)
(61.4482 0.000229033 0)
(61.4483 0.00023914 0)
(61.4484 0.000257758 0)
(61.4485 0.000273378 0)
(61.4486 0.000277621 0)
(61.4486 0.000267184 0)
(61.4487 0.00024372 0)
(61.4488 0.000219992 0)
(61.4488 0.000217048 0)
(61.4489 0.00024406 0)
(61.449 0.000284831 0)
(61.449 0.000313183 0)
(61.449 0.000319649 0)
(61.4491 0.000316025 0)
(61.4491 0.000316229 0)
(61.4491 0.000322674 0)
(61.4491 0.00033292 0)
(61.4492 0.0003487 0)
(61.4492 0.000370427 0)
(61.4492 0.000389365 0)
(61.4492 0.000395297 0)
(61.4492 0.000390913 0)
(61.4492 0.000390315 0)
(61.4492 0.000400633 0)
(61.4493 0.000412028 0)
(61.4494 0.000411119 0)
(61.4494 0.000398802 0)
(61.4494 0.000387031 0)
(61.4495 0.000382382 0)
(61.4495 0.00038317 0)
(61.4496 0.00039023 0)
(61.4497 0.000406958 0)
(61.4498 0.000426645 0)
(61.4498 0.000433358 0)
(61.4498 0.000423872 0)
(61.4499 0.000416934 0)
(61.4499 0.000428596 0)
(61.45 0.00044489 0)
(61.45 0.000435125 0)
(61.45 0.000393622 0)
(61.4499 0.00035413 0)
(61.45 0.000353543 0)
(61.45 0.000385601 0)
(61.45 0.000407476 0)
(61.45 0.000393762 0)
(61.4499 0.000370547 0)
(61.4498 0.00038281 0)
(61.4498 0.000435399 0)
(61.4498 0.000482933 0)
(61.4498 0.000483421 0)
(61.4497 0.000444987 0)
(61.4497 0.000409521 0)
(61.4496 0.000400576 0)
(61.4496 0.00040262 0)
(61.4496 0.000392534 0)
(61.4495 0.000373793 0)
(61.4495 0.000367934 0)
(61.4494 0.000382956 0)
(61.4494 0.000405454 0)
(61.4494 0.000421346 0)
(61.4494 0.000427508 0)
(61.4493 0.000422762 0)
(61.4493 0.000403139 0)
(61.4493 0.000374059 0)
(61.4492 0.000354427 0)
(61.4492 0.000356495 0)
(61.4492 0.000367495 0)
(61.4493 0.000365568 0)
(61.4492 0.000349899 0)
(61.4493 0.000341549 0)
(61.4493 0.000352522 0)
(61.4493 0.000366953 0)
(61.4493 0.000364703 0)
(61.4493 0.000350235 0)
(61.4494 0.000344051 0)
(61.4494 0.00035116 0)
(61.4494 0.000353416 0)
(61.4494 0.000340075 0)
(61.4495 0.000328394 0)
(61.4495 0.000340452 0)
(61.4496 0.000368915 0)
(61.4496 0.000384573 0)
(61.4496 0.000375517 0)
(61.4496 0.000362571 0)
(61.4496 0.000367626 0)
(61.4497 0.000385578 0)
(61.4497 0.00039501 0)
(61.4497 0.000386248 0)
(61.4497 0.000367814 0)
(61.4497 0.000349516 0)
(61.4497 0.000333326 0)
(61.4497 0.000322185 0)
(61.4498 0.000325762 0)
(61.4498 0.000346995 0)
(61.4498 0.000371495 0)
(61.4499 0.000381156 0)
(61.4499 0.000377642 0)
(61.4499 0.000369392 0)
(61.4499 0.000385209 0)
(61.4499 0.000382995 0)
(48.4097 1.03501e-05 0)
(82.0611 6.2196e-05 0)
(70.5172 0.000102295 0)
(58.3731 0.000215362 0)
(57.6131 0.000344128 0)
(60.9202 0.000417341 0)
(62.3778 0.000403798 0)
(61.9523 0.000339846 0)
(61.3611 0.000304827 0)
(61.2615 0.00031563 0)
(61.398 0.00034248 0)
(61.4795 0.000334841 0)
(61.4703 0.000319303 0)
(61.4427 0.000316193 0)
(61.4349 0.000333001 0)
(61.4401 0.000392786 0)
(61.4447 0.000474699 0)
(61.4449 0.000498699 0)
(61.4437 0.000473504 0)
(61.4432 0.000409134 0)
(61.4433 0.000328073 0)
(61.4437 0.000300279 0)
(61.4438 0.00032606 0)
(61.4439 0.000353899 0)
(61.444 0.000369153 0)
(61.4443 0.000412259 0)
(61.4444 0.000449067 0)
(61.4445 0.000427601 0)
(61.4445 0.00037285 0)
(61.4445 0.000320306 0)
(61.4447 0.000280788 0)
(61.4448 0.000254115 0)
(61.4449 0.000255368 0)
(61.445 0.000302492 0)
(61.445 0.000356553 0)
(61.445 0.000375691 0)
(61.445 0.000373864 0)
(61.445 0.000384242 0)
(61.4451 0.000404844 0)
(61.4451 0.000411003 0)
(61.4453 0.000404999 0)
(61.4454 0.000407732 0)
(61.4455 0.000419668 0)
(61.4456 0.000426966 0)
(61.4457 0.000427905 0)
(61.4458 0.000430715 0)
(61.4459 0.000429927 0)
(61.4459 0.000400332 0)
(61.4459 0.000337604 0)
(61.4459 0.000290877 0)
(61.446 0.000305426 0)
(61.4462 0.000347661 0)
(61.4462 0.000355787 0)
(61.4462 0.000345269 0)
(61.4462 0.000379023 0)
(61.4462 0.000451575 0)
(61.4461 0.000491437 0)
(61.4461 0.000468168 0)
(61.4461 0.000422937 0)
(61.4461 0.000396855 0)
(61.4461 0.00038804 0)
(61.4461 0.000383331 0)
(61.446 0.000384397 0)
(61.446 0.000390158 0)
(61.446 0.00038793 0)
(61.446 0.000374131 0)
(61.446 0.000360745 0)
(61.446 0.000356394 0)
(61.446 0.000357717 0)
(61.4459 0.000360609 0)
(61.4459 0.000368504 0)
(61.4459 0.000385929 0)
(61.4459 0.00040653 0)
(61.4459 0.000414382 0)
(61.4458 0.000403346 0)
(61.4458 0.000386724 0)
(61.4458 0.000376438 0)
(61.4458 0.000364242 0)
(61.4457 0.000341109 0)
(61.4456 0.000323003 0)
(61.4456 0.000333412 0)
(61.4457 0.000365134 0)
(61.4457 0.000384126 0)
(61.4457 0.000373072 0)
(61.4456 0.000349819 0)
(61.4455 0.000337557 0)
(61.4455 0.000333557 0)
(61.4455 0.000318817 0)
(61.4454 0.000291296 0)
(61.4453 0.000275678 0)
(61.4454 0.000290913 0)
(61.4454 0.000316743 0)
(61.4454 0.000314784 0)
(61.4454 0.000284122 0)
(61.4455 0.000267001 0)
(61.4456 0.000287604 0)
(61.4457 0.000315827 0)
(61.4458 0.000313944 0)
(61.4459 0.000293232 0)
(61.4461 0.000293098 0)
(61.4462 0.000319725 0)
(61.4464 0.00033931 0)
(61.4465 0.000329433 0)
(61.4466 0.000306335 0)
(61.4466 0.000293879 0)
(61.4467 0.000291097 0)
(61.4468 0.00028575 0)
(61.4468 0.000280409 0)
(61.4469 0.000284013 0)
(61.4469 0.000287244 0)
(61.4469 0.000270106 0)
(61.4469 0.000233989 0)
(61.4469 0.000204879 0)
(61.4469 0.000198444 0)
(61.447 0.000200762 0)
(61.4469 0.000194701 0)
(61.4469 0.000188167 0)
(61.4469 0.000199869 0)
(61.4469 0.000228137 0)
(61.4469 0.000253865 0)
(61.4469 0.000270082 0)
(61.4469 0.000288987 0)
(61.4469 0.000318403 0)
(61.4469 0.000348202 0)
(61.4468 0.000366709 0)
(61.4468 0.000378103 0)
(61.4468 0.000393565 0)
(61.4468 0.000411532 0)
(61.4468 0.000417724 0)
(61.4468 0.000405701 0)
(61.4468 0.00038902 0)
(61.4469 0.000386428 0)
(61.447 0.000397012 0)
(61.447 0.000398497 0)
(61.447 0.000375417 0)
(61.447 0.000343055 0)
(61.447 0.000332912 0)
(61.4471 0.000353371 0)
(61.4472 0.000376204 0)
(61.4473 0.000368715 0)
(61.4473 0.00033279 0)
(61.4473 0.000300661 0)
(61.4474 0.000293752 0)
(61.4474 0.0002982 0)
(61.4475 0.000286481 0)
(61.4475 0.000254042 0)
(61.4475 0.000223764 0)
(61.4475 0.000217336 0)
(61.4476 0.00023358 0)
(61.4476 0.000256994 0)
(61.4476 0.00027599 0)
(61.4475 0.000285854 0)
(61.4475 0.000282879 0)
(61.4475 0.000267309 0)
(61.4475 0.000249369 0)
(61.4475 0.000241468 0)
(61.4475 0.000243596 0)
(61.4475 0.000245384 0)
(61.4475 0.000243447 0)
(61.4475 0.000246797 0)
(61.4475 0.000261499 0)
(61.4475 0.000278901 0)
(61.4475 0.00028574 0)
(61.4475 0.000279778 0)
(61.4476 0.000268117 0)
(61.4476 0.000254595 0)
(61.4477 0.000238265 0)
(61.4477 0.00022343 0)
(61.4477 0.000220449 0)
(61.4478 0.000231486 0)
(61.4479 0.000242414 0)
(61.4479 0.000236863 0)
(61.4479 0.000216033 0)
(61.4479 0.000196189 0)
(61.448 0.000186272 0)
(61.448 0.000177553 0)
(61.4481 0.000159352 0)
(61.4481 0.000135458 0)
(61.4481 0.000116851 0)
(61.4482 0.000105882 0)
(61.4482 9.90677e-05 0)
(61.4482 0.000100741 0)
(61.4482 0.000119722 0)
(61.4483 0.000151244 0)
(61.4483 0.000175149 0)
(61.4483 0.000178437 0)
(61.4483 0.00017116 0)
(61.4484 0.000170848 0)
(61.4485 0.00017594 0)
(61.4485 0.000166578 0)
(61.4486 0.000135161 0)
(61.4486 0.000106644 0)
(61.4487 0.000116072 0)
(61.4489 0.000167015 0)
(61.449 0.000223839 0)
(61.4491 0.000250984 0)
(61.4491 0.000251007 0)
(61.4492 0.000253511 0)
(61.4493 0.00027197 0)
(61.4495 0.000287283 0)
(61.4496 0.000276658 0)
(61.4496 0.00024586 0)
(61.4497 0.000221973 0)
(61.4498 0.000219271 0)
(61.45 0.000225657 0)
(61.45 0.000224306 0)
(61.4501 0.000215821 0)
(61.4502 0.000211393 0)
(61.4502 0.000213649 0)
(61.4503 0.000216424 0)
(61.4504 0.000218653 0)
(61.4504 0.000224903 0)
(61.4505 0.00023189 0)
(61.4506 0.000228141 0)
(61.4506 0.00021134 0)
(61.4507 0.000195359 0)
(61.4507 0.00019295 0)
(61.4508 0.000198847 0)
(61.4508 0.00019843 0)
(61.4509 0.000188984 0)
(61.4509 0.000182053 0)
(61.4509 0.000183671 0)
(61.451 0.000183435 0)
(61.451 0.000170418 0)
(61.451 0.000152568 0)
(61.4511 0.000147426 0)
(61.4511 0.000155167 0)
(61.4511 0.000157141 0)
(61.4512 0.000144854 0)
(61.4512 0.000134791 0)
(61.4512 0.000145173 0)
(61.4513 0.000169569 0)
(61.4513 0.00018552 0)
(61.4513 0.000183506 0)
(61.4513 0.000174591 0)
(61.4514 0.000171907 0)
(61.4514 0.000175852 0)
(61.4515 0.000180396 0)
(61.4515 0.000184999 0)
(61.4516 0.000192668 0)
(61.4516 0.000200353 0)
(61.4516 0.000200578 0)
(61.4517 0.000193585 0)
(61.4517 0.000189358 0)
(61.4518 0.000194288 0)
(61.4518 0.000202805 0)
(61.4519 0.000206703 0)
(61.4519 0.000202694 0)
(61.452 0.000197797 0)
(61.4521 0.00019557 0)
(48.4102 -3.2106e-05 0)
(82.0614 3.74479e-05 0)
(70.518 9.76816e-05 0)
(58.3735 8.15226e-05 0)
(57.6139 9.54436e-05 0)
(60.9211 0.000151852 0)
(62.379 0.000225068 0)
(61.9533 0.000246502 0)
(61.3619 0.000207153 0)
(61.2621 0.000170501 0)
(61.3989 0.000188675 0)
(61.4807 0.00022299 0)
(61.4716 0.000252732 0)
(61.4439 0.000246957 0)
(61.436 0.000169172 0)
(61.4411 7.23864e-05 0)
(61.4454 4.99936e-05 0)
(61.4455 7.45274e-05 0)
(61.4445 0.000117728 0)
(61.4442 0.000168505 0)
(61.4441 0.000164162 0)
(61.4442 0.000115283 0)
(61.4443 8.19465e-05 0)
(61.4442 7.2557e-05 0)
(61.4441 6.26658e-05 0)
(61.4442 7.53396e-05 0)
(61.4443 0.000116872 0)
(61.4444 0.000142136 0)
(61.4444 0.000142126 0)
(61.4444 0.000142296 0)
(61.4443 0.000152982 0)
(61.4442 0.000162949 0)
(61.4441 0.000168153 0)
(61.4441 0.000182424 0)
(61.4441 0.000202586 0)
(61.4442 0.000203653 0)
(61.4442 0.000173622 0)
(61.4443 0.000125608 0)
(61.4443 8.25055e-05 0)
(61.4444 6.39933e-05 0)
(61.4445 7.6455e-05 0)
(61.4445 0.000104428 0)
(61.4446 0.000123991 0)
(61.4446 0.000126049 0)
(61.4446 0.000118053 0)
(61.4446 0.000113518 0)
(61.4447 0.000124916 0)
(61.4448 0.000143961 0)
(61.4447 0.000136524 0)
(61.4447 9.5895e-05 0)
(61.4446 7.48481e-05 0)
(61.4447 0.00011141 0)
(61.4447 0.000160378 0)
(61.4447 0.00016195 0)
(61.4447 0.000133445 0)
(61.4448 0.000128155 0)
(61.4449 0.000147003 0)
(61.445 0.000151518 0)
(61.4451 0.000134364 0)
(61.4452 0.000126631 0)
(61.4452 0.000147404 0)
(61.4453 0.000181891 0)
(61.4453 0.000204688 0)
(61.4454 0.000200249 0)
(61.4454 0.000168073 0)
(61.4455 0.000127816 0)
(61.4456 0.000110765 0)
(61.4456 0.000129879 0)
(61.4456 0.00016489 0)
(61.4456 0.000184776 0)
(61.4457 0.000179514 0)
(61.4458 0.000165898 0)
(61.4459 0.000163547 0)
(61.446 0.000169709 0)
(61.4461 0.000167948 0)
(61.4462 0.000160652 0)
(61.4463 0.000171094 0)
(61.4464 0.000203835 0)
(61.4464 0.000226505 0)
(61.4465 0.000209862 0)
(61.4465 0.000170001 0)
(61.4466 0.00014898 0)
(61.4467 0.000163141 0)
(61.4468 0.000191661 0)
(61.4469 0.000211617 0)
(61.447 0.000224183 0)
(61.447 0.000241733 0)
(61.4471 0.000261543 0)
(61.4472 0.000264726 0)
(61.4472 0.000243798 0)
(61.4472 0.000218592 0)
(61.4472 0.000209795 0)
(61.4472 0.000206462 0)
(61.4471 0.000183746 0)
(61.447 0.000147628 0)
(61.4469 0.000130562 0)
(61.4469 0.000139362 0)
(61.4468 0.000140318 0)
(61.4467 0.000109933 0)
(61.4466 7.27053e-05 0)
(61.4466 6.75535e-05 0)
(61.4465 9.52965e-05 0)
(61.4465 0.000123616 0)
(61.4465 0.00013482 0)
(61.4464 0.00014282 0)
(61.4464 0.000163284 0)
(61.4464 0.000191205 0)
(61.4464 0.000216324 0)
(61.4464 0.000241326 0)
(61.4464 0.000269358 0)
(61.4464 0.000286541 0)
(61.4464 0.000277126 0)
(61.4464 0.000251653 0)
(61.4464 0.00024007 0)
(61.4464 0.000254146 0)
(61.4464 0.000273902 0)
(61.4464 0.00027689 0)
(61.4464 0.000264913 0)
(61.4464 0.000252486 0)
(61.4464 0.000243236 0)
(61.4464 0.000232494 0)
(61.4464 0.00022458 0)
(61.4464 0.000230623 0)
(61.4465 0.000249465 0)
(61.4466 0.00026351 0)
(61.4466 0.000257553 0)
(61.4467 0.000234293 0)
(61.4468 0.000206896 0)
(61.4469 0.000181365 0)
(61.4469 0.000153171 0)
(61.447 0.000121586 0)
(61.4471 0.000100188 0)
(61.4472 0.000104927 0)
(61.4473 0.000131104 0)
(61.4474 0.000150908 0)
(61.4474 0.000142096 0)
(61.4474 0.000115767 0)
(61.4474 0.000105744 0)
(61.4474 0.000129171 0)
(61.4475 0.000166562 0)
(61.4475 0.000186259 0)
(61.4475 0.000181109 0)
(61.4474 0.000171048 0)
(61.4475 0.000172671 0)
(61.4475 0.00017903 0)
(61.4475 0.000174961 0)
(61.4475 0.000162838 0)
(61.4475 0.000161985 0)
(61.4475 0.000184897 0)
(61.4475 0.000223821 0)
(61.4475 0.000261735 0)
(61.4475 0.000287107 0)
(61.4476 0.000294406 0)
(61.4476 0.000280434 0)
(61.4476 0.000249914 0)
(61.4476 0.000219734 0)
(61.4477 0.000207007 0)
(61.4478 0.000212772 0)
(61.4478 0.000224442 0)
(61.4478 0.000232863 0)
(61.4478 0.000238414 0)
(61.4479 0.000240816 0)
(61.4479 0.000233735 0)
(61.4479 0.000214531 0)
(61.4479 0.000192383 0)
(61.448 0.000179772 0)
(61.448 0.00017908 0)
(61.448 0.000184208 0)
(61.448 0.000193665 0)
(61.448 0.000213429 0)
(61.448 0.000243905 0)
(61.4481 0.000271451 0)
(61.4481 0.000280429 0)
(61.448 0.000271141 0)
(61.448 0.000258063 0)
(61.4481 0.00025127 0)
(61.4481 0.000248587 0)
(61.4481 0.000247206 0)
(61.4482 0.000252087 0)
(61.4482 0.000266554 0)
(61.4483 0.000283481 0)
(61.4483 0.000294906 0)
(61.4483 0.00030454 0)
(61.4484 0.000320234 0)
(61.4484 0.000336096 0)
(61.4485 0.000333548 0)
(61.4485 0.000304075 0)
(61.4486 0.000262991 0)
(61.4487 0.00023297 0)
(61.4488 0.00021687 0)
(61.4489 0.000196049 0)
(61.4489 0.000159084 0)
(61.449 0.000123918 0)
(61.449 0.000120926 0)
(61.4491 0.000155562 0)
(61.4492 0.000199275 0)
(61.4493 0.000221388 0)
(61.4493 0.000221106 0)
(61.4494 0.000219605 0)
(61.4494 0.000226761 0)
(61.4495 0.000228769 0)
(61.4496 0.00021081 0)
(61.4496 0.000180985 0)
(61.4496 0.000162531 0)
(61.4497 0.000166809 0)
(61.4497 0.000184451 0)
(61.4498 0.000202803 0)
(61.4498 0.000220372 0)
(61.4498 0.000239202 0)
(61.4498 0.000254006 0)
(61.4498 0.00025896 0)
(61.4498 0.000258917 0)
(61.4498 0.000262775 0)
(61.4498 0.000268718 0)
(61.4499 0.000266849 0)
(61.4499 0.00025647 0)
(61.4499 0.000250228 0)
(61.4499 0.000257029 0)
(61.4499 0.00026893 0)
(61.45 0.000272006 0)
(61.45 0.000265962 0)