/*--------------------------------*- C++ -*----------------------------------*\
| =========                 |                                                 |
| \\      /  F ield         | OpenFOAM: The Open Source CFD Toolbox           |
|  \\    /   O peration     | Version:  2406                                  |
|   \\  /    A nd           | Website:  www.openfoam.com                      |
|    \\/     M anipulation  |                                                 |
\*---------------------------------------------------------------------------*/
FoamFile
{
    version     2.0;
    format      ascii;
    arch        "LSB;label=32;scalar=64";
    class       volScalarField;
    location    "0.2";
    object      alpha.glycerin;
}
// * * * * * * * * * * * * * * * * * * * * * * * * * * * * * * * * * * * * * //

dimensions      [0 0 0 0 0 0 0];

internalField   nonuniform List<scalar> 
6250
(
-3.78603e-320
-3.79442e-320
-4.65163e-320
-4.28701e-320
-3.80826e-320
-4.11952e-320
-3.94709e-320
-4.62198e-320
-4.63681e-320
-4.51922e-320
-4.31962e-320
-4.57307e-320
-3.8799e-320
-4.58888e-320
-4.53058e-320
-4.5622e-320
-4.54491e-320
-4.06171e-320
-3.98415e-320
-3.8463e-320
-4.6625e-320
-4.13039e-320
-3.90954e-320
-4.10272e-320
-4.83493e-320
-4.02812e-320
-3.87199e-320
-3.98711e-320
-4.62347e-320
-4.25786e-320
-3.69067e-320
-3.91399e-320
-4.56418e-320
-4.22377e-320
-3.91843e-320
-3.74601e-320
-3.73761e-320
-4.54442e-320
-4.77416e-320
-4.2959e-320
-4.1625e-320
-4.29738e-320
-4.24205e-320
-3.80381e-320
-4.60568e-320
-4.28009e-320
-4.20549e-320
-4.07061e-320
-4.69461e-320
-4.35716e-320
-4.67485e-320
-4.78503e-320
-4.61902e-320
-4.8453e-320
-4.33197e-320
-4.77267e-320
-3.84284e-320
-3.75935e-320
-4.2791e-320
-4.83493e-320
-4.82257e-320
-4.35173e-320
-4.33049e-320
-4.47129e-320
-4.46586e-320
-4.46882e-320
-3.76626e-320
-4.28058e-320
-4.50193e-320
-4.04541e-320
-3.89867e-320
-4.28157e-320
-3.79739e-320
-4.0548e-320
-4.04689e-320
-4.51675e-320
-3.89571e-320
-3.85075e-320
-4.94411e-320
-4.09333e-320
-3.92881e-320
-3.8794e-320
-4.91002e-320
-4.07802e-320
-4.06912e-320
-3.9214e-320
-4.13434e-320
-4.23513e-320
-4.33543e-320
-3.88286e-320
-4.64817e-320
-4.51477e-320
-4.50489e-320
-4.56121e-320
-3.88484e-320
-3.91893e-320
-4.6709e-320
-4.15756e-320
-4.65607e-320
-4.69362e-320
-4.44363e-320
-4.30529e-320
-4.22179e-320
-4.1714e-320
-4.57258e-320
-4.03108e-320
-4.00737e-320
-4.42238e-320
-4.29244e-320
-4.02515e-320
-4.07258e-320
-4.03256e-320
-4.33246e-320
-4.05578e-320
-4.97919e-320
-4.2707e-320
-4.36112e-320
-4.31468e-320
-4.12545e-320
-3.96191e-320
-4.10074e-320
-4.27713e-320
-4.28602e-320
-4.07011e-320
-3.9792e-320
-3.98909e-320
-4.91497e-320
-4.86309e-320
-4.88433e-320
-3.99501e-320
-3.84037e-320
-4.11705e-320
-4.56023e-320
-4.06912e-320
-4.35964e-320
-4.36803e-320
-4.33493e-320
-5.00192e-320
-3.93919e-320
-4.07209e-320
-3.996e-320
-4.6788e-320
-4.20252e-320
-4.55677e-320
-4.20845e-320
-4.82356e-320
-4.3374e-320
-4.26132e-320
-4.51378e-320
-4.49402e-320
-4.14916e-320
-4.09432e-320
-3.90608e-320
-5.03749e-320
-4.94313e-320
-4.53453e-320
-4.32307e-320
-4.99352e-320
-4.44906e-320
-4.93967e-320
-3.93968e-320
-4.68572e-320
-4.28454e-320
-4.30084e-320
-4.24501e-320
-4.73463e-320
-3.87792e-320
-4.00193e-320
-4.62841e-320
-3.92338e-320
-4.34383e-320
-4.33246e-320
-5.00933e-320
-4.30628e-320
-4.38483e-320
-3.95944e-320
-4.1378e-320
-5.05577e-320
-4.55973e-320
-4.6536e-320
-4.28058e-320
-4.1541e-320
-4.50884e-320
-4.16399e-320
-4.41991e-320
-5.06368e-320
-4.16102e-320
-4.36606e-320
-4.02318e-320
-4.40212e-320
-4.64916e-320
-4.15707e-320
-4.52712e-320
-4.9283e-320
-4.1462e-320
-4.23315e-320
-4.51131e-320
-4.56418e-320
-4.13484e-320
-4.24205e-320
-5.06368e-320
-4.2712e-320
-4.34481e-320
-4.46388e-320
-4.94016e-320
-4.06418e-320
-4.00885e-320
-4.2707e-320
-4.46487e-320
-5.11803e-320
-4.95696e-320
-4.92732e-320
-4.07555e-320
-4.4624e-320
-4.34531e-320
-4.40163e-320
-5.09431e-320
-4.48661e-320
-5.09579e-320
-4.06023e-320
-4.76329e-320
-4.69807e-320
-4.121e-320
-4.46042e-320
-4.07258e-320
-4.08592e-320
-5.07455e-320
-4.22426e-320
-4.61161e-320
-4.31566e-320
-4.71734e-320
-4.51625e-320
-4.09729e-320
-4.31912e-320
-5.11309e-320
-5.07702e-320
-4.07011e-320
-4.89372e-320
-4.39076e-320
-4.43226e-320
-3.97328e-320
-4.27367e-320
-4.84086e-320
-4.65064e-320
-4.41991e-320
-5.10963e-320
-4.57455e-320
-3.45895e-320
4.5953e-320
4.56615e-320
-4.2707e-320
-4.25489e-320
-4.7875e-320
-3.90065e-320
-4.43473e-320
-4.7292e-320
-4.34778e-320
-4.01774e-320
-3.77516e-320
-4.04837e-320
-4.38879e-320
-3.77664e-320
-4.30331e-320
-4.41645e-320
-4.27219e-320
-3.8715e-320
-4.63434e-320
-4.34679e-320
-4.78404e-320
-3.76577e-320
-3.81419e-320
-3.7465e-320
-4.40904e-320
-4.80084e-320
-4.38137e-320
-3.77911e-320
-4.59827e-320
-4.45104e-320
-3.89225e-320
-4.62248e-320
-4.78256e-320
-4.4955e-320
-3.76083e-320
-4.03701e-320
-4.23908e-320
-4.31715e-320
-3.82506e-320
-4.29738e-320
-4.01478e-320
-4.30084e-320
-4.26774e-320
-4.50934e-320
-3.99501e-320
-3.73069e-320
-3.79492e-320
-4.28503e-320
-4.41398e-320
-4.03355e-320
-4.22179e-320
-3.78405e-320
-4.39669e-320
-4.31468e-320
-4.51329e-320
-3.7297e-320
-3.91695e-320
-3.78158e-320
-3.90855e-320
-3.78158e-320
-3.85075e-320
-4.51971e-320
-3.99897e-320
-4.40855e-320
-3.9298e-320
-4.20153e-320
-3.81369e-320
-4.52317e-320
-4.42386e-320
-3.81666e-320
-4.3463e-320
-3.87199e-320
-4.18918e-320
-3.97723e-320
-3.74749e-320
-4.32703e-320
-4.33394e-320
-4.05826e-320
-4.48562e-320
-3.90707e-320
-4.52021e-320
-4.68374e-320
-4.19066e-320
-3.77565e-320
-3.79936e-320
-4.47475e-320
-4.04887e-320
-3.84482e-320
-4.66892e-320
-4.28503e-320
-4.61556e-320
-4.35667e-320
-4.68325e-320
-4.64718e-320
-3.74946e-320
-4.19165e-320
-4.38483e-320
-4.64619e-320
-4.40311e-320
-3.74897e-320
-3.74699e-320
-3.77664e-320
-4.47426e-320
-3.95994e-320
-4.61902e-320
-3.83247e-320
-3.86359e-320
-4.4792e-320
-4.55529e-320
-4.66052e-320
-4.25094e-320
-3.74601e-320
-3.84927e-320
-4.32456e-320
-4.53948e-320
-3.75144e-320
-4.42337e-320
-4.59283e-320
-3.74699e-320
-4.48859e-320
-3.75243e-320
-4.12989e-320
-4.5958e-320
-4.04146e-320
-4.27811e-320
-3.75688e-320
-4.08543e-320
-4.01428e-320
-4.05974e-320
-4.04146e-320
-3.91399e-320
-3.74304e-320
-3.80925e-320
-3.87347e-320
-3.86409e-320
-4.57801e-320
-3.76379e-320
-4.59283e-320
-4.24699e-320
-4.05578e-320
-4.00193e-320
-3.80529e-320
-4.10272e-320
-3.77614e-320
-4.75143e-320
-4.18424e-320
-4.30875e-320
-4.75044e-320
-4.62791e-320
-4.09432e-320
-4.67534e-320
-4.47525e-320
-4.34926e-320
-4.51477e-320
-4.46981e-320
-4.1131e-320
-4.32258e-320
-3.7628e-320
-4.54738e-320
-3.98415e-320
-3.69018e-320
-4.66299e-320
-4.50489e-320
-4.33938e-320
-4.22574e-320
-4.1709e-320
-4.71833e-320
-4.17189e-320
-3.72525e-320
-3.88138e-320
-3.8048e-320
-3.82012e-320
-3.64275e-320
-4.05134e-320
-4.78404e-320
-4.12397e-320
-4.47969e-320
-4.27219e-320
-3.8878e-320
-4.01478e-320
-3.83593e-320
-3.74156e-320
-4.17436e-320
-4.70548e-320
-4.5375e-320
-3.64966e-320
-3.98909e-320
-3.955e-320
-3.95796e-320
-4.82554e-320
-3.75243e-320
-3.80035e-320
-3.66399e-320
-4.83641e-320
-3.97575e-320
-4.11853e-320
-4.24748e-320
-3.6551e-320
-4.69807e-320
-4.1378e-320
-3.84235e-320
-3.85668e-320
-4.81072e-320
-3.71389e-320
-4.73315e-320
-4.24304e-320
-4.78157e-320
-4.829e-320
-4.69758e-320
-3.75984e-320
-3.79344e-320
-4.05282e-320
-3.66103e-320
-4.58888e-320
-4.11063e-320
-4.55825e-320
-4.01725e-320
-4.58789e-320
-4.09136e-320
-4.50983e-320
-4.15608e-320
-4.71141e-320
-4.30677e-320
-3.63336e-320
-4.23908e-320
-3.87397e-320
-4.83295e-320
-3.75638e-320
-4.69906e-320
-4.21389e-320
-4.4456e-320
-3.65016e-320
-4.79441e-320
-3.84729e-320
-4.0963e-320
-4.14966e-320
-3.7964e-320
-4.58592e-320
-4.36507e-320
-4.44116e-320
-4.07357e-320
-4.7791e-320
-4.79046e-320
-4.02169e-320
-3.8715e-320
-4.50687e-320
-4.12792e-320
-4.75835e-320
-3.83099e-320
-4.43276e-320
4.30924e-320
3.89472e-320
-4.50934e-320
-4.3626e-320
-4.29392e-320
-4.28553e-320
-4.55776e-320
-3.7796e-320
-3.77318e-320
-4.75835e-320
-3.86112e-320
-4.3122e-320
-3.79146e-320
-4.79342e-320
-4.38137e-320
-4.24452e-320
-4.80825e-320
-3.84531e-320
-4.31616e-320
-3.74601e-320
-4.32703e-320
-3.77219e-320
-4.55281e-320
-4.3379e-320
-4.45697e-320
-4.27663e-320
-4.56961e-320
-3.955e-320
-4.43127e-320
-4.29837e-320
-3.92733e-320
-3.78059e-320
-4.43424e-320
-3.9797e-320
-4.204e-320
-4.40756e-320
-4.20351e-320
-4.24304e-320
-3.88286e-320
-3.99501e-320
-4.41299e-320
-3.98563e-320
-4.35865e-320
-4.41991e-320
-4.39521e-320
-4.38631e-320
-4.3206e-320
-4.06715e-320
-4.78009e-320
-4.20005e-320
-4.4046e-320
-3.85124e-320
-4.54195e-320
-4.20845e-320
-4.20746e-320
-4.49254e-320
-4.00835e-320
-3.73168e-320
-4.49353e-320
-3.80233e-320
-3.83197e-320
-3.92486e-320
-3.96685e-320
-4.5706e-320
-3.76577e-320
-4.49303e-320
-3.78405e-320
-3.7628e-320
-3.7796e-320
-3.80579e-320
-3.78306e-320
-4.29936e-320
-3.97328e-320
-4.25687e-320
-4.43276e-320
-3.74057e-320
-4.39471e-320
-4.45104e-320
-3.88583e-320
-4.19066e-320
-3.75836e-320
-4.41102e-320
-3.76725e-320
-4.31566e-320
-4.59086e-320
-4.56615e-320
-3.76725e-320
-3.90164e-320
-4.63236e-320
-4.68819e-320
-4.67683e-320
-4.4046e-320
-3.78701e-320
-4.19709e-320
-4.47278e-320
-4.16102e-320
-4.51527e-320
-3.9965e-320
-4.50884e-320
-3.84432e-320
-3.75786e-320
-3.72822e-320
-4.1457e-320
-4.56665e-320
-3.73168e-320
-4.59036e-320
-4.70943e-320
-3.86013e-320
-3.76132e-320
-4.1625e-320
-4.5123e-320
-4.60667e-320
-4.25539e-320
-3.69363e-320
-4.1961e-320
-4.46586e-320
-4.62989e-320
-3.91942e-320
-4.55281e-320
-4.07802e-320
-3.90608e-320
-4.24748e-320
-4.08543e-320
-4.61111e-320
-4.71388e-320
-3.75243e-320
-4.04393e-320
-4.47722e-320
-4.70054e-320
-4.50193e-320
-4.07555e-320
-4.31715e-320
-3.71241e-320
-3.71093e-320
-3.96537e-320
-4.07654e-320
-3.77565e-320
-4.00292e-320
-4.01675e-320
-3.71142e-320
-4.28404e-320
-3.76231e-320
-3.90707e-320
-4.10272e-320
-4.58147e-320
-4.09976e-320
-3.87199e-320
-3.88928e-320
-4.37643e-320
-4.18523e-320
-3.68919e-320
-4.27169e-320
-4.5454e-320
-4.34284e-320
-4.50934e-320
-3.72624e-320
-4.01972e-320
-4.5711e-320
-4.1798e-320
-4.81615e-320
-3.83988e-320
-4.48859e-320
-3.81863e-320
-4.82307e-320
-4.08296e-320
-4.06912e-320
-4.01626e-320
-4.22871e-320
-4.62149e-320
-4.08889e-320
-3.82308e-320
-3.83395e-320
-4.53948e-320
-4.59135e-320
-3.90361e-320
-4.70005e-320
-3.84531e-320
-4.16942e-320
-4.47475e-320
-4.16497e-320
-3.86063e-320
-3.81468e-320
-4.29689e-320
-3.75045e-320
-4.28997e-320
-4.66151e-320
-4.80331e-320
-3.63682e-320
-4.72623e-320
-4.29096e-320
-4.59629e-320
-4.16744e-320
-4.44363e-320
-3.7628e-320
-3.89274e-320
-4.18572e-320
-4.82208e-320
-3.82506e-320
-3.76527e-320
-4.54936e-320
-4.18424e-320
-3.77861e-320
-4.61309e-320
-4.04887e-320
-3.63138e-320
-3.95697e-320
-3.85371e-320
-4.25835e-320
-4.3962e-320
-4.40212e-320
-3.79986e-320
-4.09333e-320
-3.88632e-320
-4.47772e-320
-4.07851e-320
-4.70845e-320
-3.80678e-320
-4.54046e-320
-4.75637e-320
-3.70944e-320
-3.83889e-320
-4.56714e-320
-3.87743e-320
-4.44264e-320
-4.54392e-320
-4.35321e-320
-4.58888e-320
-4.78848e-320
-4.51033e-320
-4.19264e-320
-4.6956e-320
-4.26379e-320
-4.26724e-320
-4.11853e-320
-4.57011e-320
-3.65757e-320
-4.13237e-320
-4.11359e-320
-4.33246e-320
-4.60025e-320
-4.13582e-320
-3.68919e-320
-4.54392e-320
-3.81517e-320
-4.25736e-320
-3.77516e-320
-4.7455e-320
-4.55183e-320
-3.17635e-320
-3.0637e-320
4.64619e-320
4.75736e-320
-4.64422e-320
-4.63187e-320
-4.81912e-320
-3.88928e-320
-3.94758e-320
-4.38236e-320
-3.94462e-320
-4.05282e-320
-3.77071e-320
-3.95747e-320
-4.43572e-320
-4.28651e-320
-4.58444e-320
-3.77021e-320
-4.3626e-320
-4.03207e-320
-4.42485e-320
-3.79146e-320
-4.54046e-320
-3.76972e-320
-4.39471e-320
-3.79393e-320
-4.27021e-320
-3.79739e-320
-4.76971e-320
-4.49797e-320
-4.29047e-320
-4.77416e-320
-4.57999e-320
-3.73563e-320
-4.51922e-320
-3.76626e-320
-3.93672e-320
-3.96735e-320
-3.88632e-320
-3.7633e-320
-4.22377e-320
-4.51971e-320
-3.94264e-320
-3.76725e-320
-4.37545e-320
-4.30726e-320
-4.30578e-320
-3.76626e-320
-3.82456e-320
-4.05183e-320
-4.01972e-320
-4.2796e-320
-4.74056e-320
-4.42782e-320
-4.03602e-320
-4.49501e-320
-4.18523e-320
-4.26724e-320
-4.59086e-320
-3.85272e-320
-4.29096e-320
-3.74601e-320
-3.92189e-320
-3.73217e-320
-4.02911e-320
-4.0459e-320
-3.74601e-320
-3.74946e-320
-4.46833e-320
-3.72624e-320
-3.75984e-320
-3.89423e-320
-4.32406e-320
-4.03108e-320
-4.46981e-320
-3.77367e-320
-3.76774e-320
-4.20993e-320
-4.53009e-320
-4.17387e-320
-4.15707e-320
-3.75984e-320
-3.74107e-320
-3.95351e-320
-3.99551e-320
-3.94413e-320
-3.93177e-320
-3.79442e-320
-4.42436e-320
-4.21191e-320
-4.03701e-320
-4.02466e-320
-4.02861e-320
-4.15806e-320
-3.70895e-320
-4.24699e-320
-4.40608e-320
-4.03059e-320
-4.20153e-320
-3.8799e-320
-4.26823e-320
-3.75885e-320
-4.42139e-320
-4.6541e-320
-4.03207e-320
-4.67683e-320
-3.7297e-320
-3.7544e-320
-3.83049e-320
-4.18622e-320
-4.43869e-320
-4.35568e-320
-4.60815e-320
-3.82654e-320
-4.35865e-320
-4.49649e-320
-4.43375e-320
-3.78504e-320
-3.94215e-320
-4.57406e-320
-3.9461e-320
-3.74502e-320
-4.4456e-320
-4.29639e-320
-3.81023e-320
-3.69611e-320
-4.60815e-320
-3.81221e-320
-3.91992e-320
-4.13187e-320
-4.71289e-320
-3.73267e-320
-3.75391e-320
-4.24946e-320
-3.68425e-320
-4.69264e-320
-3.71488e-320
-3.80628e-320
-3.73217e-320
-4.1131e-320
-3.71587e-320
-4.06912e-320
-4.31122e-320
-3.7213e-320
-3.79097e-320
-3.77021e-320
-3.86903e-320
-4.01181e-320
-4.70449e-320
-4.02664e-320
-4.20895e-320
-4.16794e-320
-3.89867e-320
-3.7129e-320
-4.41546e-320
-4.00885e-320
-4.66299e-320
-3.79393e-320
-3.97179e-320
-4.03059e-320
-4.08296e-320
-3.86211e-320
-4.20746e-320
-4.04146e-320
-4.60321e-320
-4.03602e-320
-4.07011e-320
-4.20104e-320
-4.30183e-320
-3.6882e-320
-4.52811e-320
-4.56023e-320
-3.82456e-320
-4.20104e-320
-4.10322e-320
-4.33592e-320
-4.07456e-320
-4.77317e-320
-3.99304e-320
-4.29343e-320
-3.79097e-320
-3.84482e-320
-4.52564e-320
-3.80826e-320
-4.04442e-320
-4.04887e-320
-3.71735e-320
-4.02268e-320
-4.36161e-320
-3.71142e-320
-4.7455e-320
-3.73168e-320
-3.98069e-320
-4.67337e-320
-4.14126e-320
-4.54343e-320
-4.08642e-320
-3.84235e-320
-3.69709e-320
-3.90757e-320
-4.6956e-320
-4.55726e-320
-3.75045e-320
-3.66992e-320
-4.2045e-320
-4.48513e-320
-4.13088e-320
-4.33543e-320
-4.49056e-320
-4.19462e-320
-3.70549e-320
-4.48266e-320
-4.55281e-320
-4.05875e-320
-4.37199e-320
-4.26329e-320
-4.13731e-320
-3.84729e-320
-4.34432e-320
-4.43918e-320
-4.00243e-320
-3.73958e-320
-4.0548e-320
-3.87199e-320
-3.88484e-320
-3.98859e-320
-4.27021e-320
-4.53997e-320
-3.6551e-320
-4.7875e-320
-3.83938e-320
-3.93523e-320
-3.65164e-320
-4.75143e-320
-3.7302e-320
-4.79787e-320
-4.06122e-320
-3.73909e-320
-3.6299e-320
-3.95005e-320
-4.58295e-320
-4.15657e-320
-4.62347e-320
-3.78355e-320
-4.48068e-320
-3.84136e-320
-3.76379e-320
-4.56072e-320
-4.14027e-320
-4.38088e-320
-3.47575e-320
-3.69561e-320
4.71783e-320
4.70746e-320
-4.45548e-320
-3.89126e-320
-3.81221e-320
-3.77565e-320
-4.78997e-320
-4.43375e-320
-4.06073e-320
-3.77417e-320
-4.05875e-320
-3.84284e-320
-3.93128e-320
-3.77713e-320
-3.77367e-320
-4.34481e-320
-4.60716e-320
-4.39718e-320
-3.89867e-320
-4.42386e-320
-4.02021e-320
-4.0375e-320
-4.34926e-320
-4.31863e-320
-3.7712e-320
-4.43869e-320
-3.74205e-320
-4.32554e-320
-3.77071e-320
-3.91547e-320
-4.41645e-320
-3.81666e-320
-4.28553e-320
-4.06122e-320
-4.27515e-320
-4.35519e-320
-4.0627e-320
-3.84581e-320
-4.28503e-320
-3.96191e-320
-4.35321e-320
-4.41349e-320
-3.98316e-320
-4.35618e-320
-4.4792e-320
-4.5459e-320
-4.19808e-320
-3.73711e-320
-4.24057e-320
-4.41201e-320
-3.76429e-320
-3.76676e-320
-4.41695e-320
-4.19412e-320
-4.00193e-320
-4.43869e-320
-3.77071e-320
-3.72723e-320
-4.57011e-320
-4.18227e-320
-3.7885e-320
-3.80579e-320
-4.47426e-320
-4.03256e-320
-3.92239e-320
-4.34679e-320
-4.00094e-320
-3.74551e-320
-3.78454e-320
-4.34679e-320
-3.93919e-320
-3.94166e-320
-4.37298e-320
-4.18029e-320
-4.02812e-320
-4.2124e-320
-4.01527e-320
-4.17535e-320
-3.80579e-320
-4.62495e-320
-4.36112e-320
-3.71488e-320
-4.3705e-320
-4.56813e-320
-4.39175e-320
-4.01922e-320
-4.55726e-320
-4.46833e-320
-4.27169e-320
-4.22278e-320
-4.63088e-320
-3.74798e-320
-3.74008e-320
-4.40262e-320
-3.82802e-320
-3.75342e-320
-4.48513e-320
-3.82604e-320
-4.33444e-320
-3.76379e-320
-3.73267e-320
-3.74502e-320
-4.62001e-320
-4.68819e-320
-3.72723e-320
-4.4293e-320
-4.3374e-320
-3.91646e-320
-4.16547e-320
-3.7796e-320
-4.24699e-320
-3.69116e-320
-4.74007e-320
-3.91448e-320
-3.72773e-320
-3.82357e-320
-4.18918e-320
-4.39521e-320
-4.30084e-320
-4.73216e-320
-4.4624e-320
-4.54985e-320
-4.08592e-320
-4.46833e-320
-4.11013e-320
-4.4288e-320
-3.92041e-320
-3.68425e-320
-3.96784e-320
-3.92436e-320
-4.24254e-320
-3.79245e-320
-3.85223e-320
-4.6541e-320
-3.871e-320
-4.14422e-320
-4.24353e-320
-3.92387e-320
-3.87496e-320
-4.2791e-320
-3.86261e-320
-3.91349e-320
-4.11705e-320
-4.57307e-320
-4.6294e-320
-3.72624e-320
-4.46932e-320
-3.91596e-320
-4.10717e-320
-3.79788e-320
-3.84828e-320
-4.29788e-320
-4.25885e-320
-4.11013e-320
-3.92733e-320
-3.7796e-320
-3.68326e-320
-4.03009e-320
-4.67188e-320
-3.81913e-320
-4.2208e-320
-3.89867e-320
-3.84235e-320
-4.64965e-320
-4.15114e-320
-4.7875e-320
-3.71883e-320
-3.91547e-320
-4.16349e-320
-4.08988e-320
-4.3873e-320
-3.98168e-320
-4.35667e-320
-3.78504e-320
-3.71537e-320
-4.11359e-320
-4.16349e-320
-3.65806e-320
-3.82901e-320
-4.121e-320
-4.10272e-320
-4.33938e-320
-3.76972e-320
-3.68029e-320
-3.87842e-320
-4.63779e-320
-4.67534e-320
-3.76083e-320
-4.77811e-320
-3.85371e-320
-4.75933e-320
-4.05628e-320
-3.79492e-320
-4.22525e-320
-3.69166e-320
-4.08246e-320
-4.73068e-320
-3.96191e-320
-4.46487e-320
-3.77911e-320
-3.67387e-320
-4.07061e-320
-4.59777e-320
-4.06468e-320
-4.06912e-320
-3.83395e-320
-4.10865e-320
-3.81468e-320
-4.71734e-320
-4.00243e-320
-3.63385e-320
-3.99254e-320
-4.71635e-320
-3.72674e-320
-4.1215e-320
-4.58888e-320
-4.04541e-320
-4.13484e-320
-4.81912e-320
-3.79541e-320
-4.71635e-320
-4.37841e-320
-4.63384e-320
-4.7786e-320
-3.78701e-320
-3.74699e-320
-4.00045e-320
-4.63779e-320
-4.53503e-320
-4.24353e-320
-3.96834e-320
-4.32554e-320
-3.69907e-320
-4.26972e-320
-3.83889e-320
-4.18819e-320
-4.76329e-320
-4.49402e-320
-4.5711e-320
-4.5128e-320
-3.69363e-320
-4.1457e-320
-4.53058e-320
-4.80973e-320
-4.5627e-320
-4.49155e-320
-4.39669e-320
-3.63879e-320
-3.996e-320
-3.99304e-320
3.7885e-320
3.97278e-320
-4.39126e-320
-3.97575e-320
-3.90213e-320
-4.40756e-320
-4.61704e-320
-3.78899e-320
-4.07851e-320
-3.77318e-320
-3.83494e-320
-3.8715e-320
-4.80331e-320
-4.51082e-320
-4.42831e-320
-4.45746e-320
-4.27219e-320
-3.79591e-320
-4.00193e-320
-3.7717e-320
-3.77367e-320
-3.82456e-320
-4.7371e-320
-3.76527e-320
-4.40707e-320
-3.87446e-320
-4.40954e-320
-3.76577e-320
-4.21537e-320
-4.53898e-320
-4.25539e-320
-4.32456e-320
-3.88928e-320
-3.76577e-320
-3.87397e-320
-3.80035e-320
-4.01725e-320
-4.04541e-320
-3.93968e-320
-4.50044e-320
-3.96735e-320
-4.42436e-320
-4.53009e-320
-4.24155e-320
-4.30825e-320
-3.99946e-320
-3.75589e-320
-4.31566e-320
-4.41942e-320
-4.26922e-320
-3.84383e-320
-3.85668e-320
-4.19906e-320
-4.03849e-320
-3.97822e-320
-4.43523e-320
-3.83938e-320
-3.87545e-320
-3.94956e-320
-3.76824e-320
-4.59777e-320
-4.59185e-320
-3.74946e-320
-4.53058e-320
-3.82308e-320
-4.45301e-320
-3.75539e-320
-4.4293e-320
-3.98217e-320
-3.71834e-320
-3.86261e-320
-4.26428e-320
-4.6042e-320
-3.72377e-320
-4.60272e-320
-4.47623e-320
-3.9298e-320
-4.32604e-320
-4.39224e-320
-3.87347e-320
-3.93079e-320
-3.86656e-320
-4.16596e-320
-4.38236e-320
-4.61457e-320
-4.5958e-320
-3.75935e-320
-4.16053e-320
-4.2381e-320
-3.73365e-320
-4.26379e-320
-4.48612e-320
-4.46141e-320
-4.5706e-320
-4.25539e-320
-3.70944e-320
-4.21883e-320
-3.90015e-320
-4.20153e-320
-3.73464e-320
-3.70846e-320
-4.31715e-320
-4.60025e-320
-3.72328e-320
-4.3043e-320
-3.78701e-320
-4.56566e-320
-3.73217e-320
-4.20647e-320
-3.72278e-320
-4.60272e-320
-3.7633e-320
-4.17782e-320
-3.74255e-320
-4.25687e-320
-3.74304e-320
-4.63631e-320
-4.72129e-320
-4.68769e-320
-4.73611e-320
-4.34185e-320
-3.9797e-320
-4.23019e-320
-4.66793e-320
-4.22525e-320
-3.73415e-320
-3.83197e-320
-3.71241e-320
-3.69018e-320
-4.39175e-320
-3.69413e-320
-4.65509e-320
-4.41942e-320
-3.79442e-320
-4.10914e-320
-3.70846e-320
-4.66052e-320
-4.03652e-320
-3.80875e-320
-4.43177e-320
-3.86112e-320
-4.52564e-320
-4.21932e-320
-3.70352e-320
-4.15954e-320
-3.73612e-320
-4.0958e-320
-4.47623e-320
-3.87644e-320
-3.75737e-320
-4.05875e-320
-3.95055e-320
-3.97476e-320
-4.3542e-320
-3.79245e-320
-4.24748e-320
-4.27268e-320
-3.99304e-320
-3.73859e-320
-3.76083e-320
-4.29837e-320
-4.57258e-320
-3.81369e-320
-4.0548e-320
-3.85322e-320
-4.73117e-320
-4.19215e-320
-4.28306e-320
-4.00391e-320
-4.63187e-320
-3.84334e-320
-3.72328e-320
-4.78256e-320
-4.0044e-320
-4.55578e-320
-3.76478e-320
-3.95401e-320
-4.10519e-320
-4.45499e-320
-4.63928e-320
-4.76526e-320
-4.16991e-320
-4.50588e-320
-4.06468e-320
-3.64818e-320
-4.19363e-320
-4.57801e-320
-4.20895e-320
-4.5459e-320
-3.85668e-320
-3.84432e-320
-4.40114e-320
-4.18177e-320
-4.05826e-320
-3.89324e-320
-4.05727e-320
-4.10766e-320
-3.99403e-320
-4.54442e-320
-4.32851e-320
-3.83346e-320
-3.9377e-320
-4.06814e-320
-3.82209e-320
-3.74798e-320
-3.98859e-320
-4.5454e-320
-4.68868e-320
-4.74896e-320
-4.79046e-320
-4.60617e-320
-4.19412e-320
-4.19066e-320
-4.68275e-320
-4.579e-320
-4.12199e-320
-4.01675e-320
-4.46289e-320
-4.49155e-320
-3.71933e-320
-4.30628e-320
-4.13237e-320
-4.22871e-320
-4.62001e-320
-3.63089e-320
-4.74352e-320
-3.78603e-320
-4.67139e-320
-4.1625e-320
-4.49896e-320
-4.28997e-320
-4.70449e-320
-4.1798e-320
-4.10173e-320
-4.28207e-320
-4.52317e-320
-3.955e-320
-4.17387e-320
-4.0543e-320
-4.54293e-320
-4.42436e-320
-3.94264e-320
-4.55133e-320
-3.87002e-320
-4.46734e-320
-4.51625e-320
-4.31418e-320
-3.96339e-320
-4.43078e-320
-3.0637e-320
4.34234e-320
4.05974e-320
-3.77861e-320
-4.57851e-320
-3.81172e-320
-4.58938e-320
-4.45746e-320
-4.80479e-320
-3.83247e-320
-4.53948e-320
-4.35124e-320
-3.80678e-320
-4.00588e-320
-3.92634e-320
-3.85519e-320
-4.08839e-320
-3.77269e-320
-4.46882e-320
-3.82456e-320
-3.9214e-320
-3.77021e-320
-4.35025e-320
-3.80678e-320
-4.22624e-320
-4.60617e-320
-4.44511e-320
-4.73018e-320
-4.73809e-320
-3.76725e-320
-3.79541e-320
-3.76676e-320
-4.31863e-320
-3.8962e-320
-3.78207e-320
-3.74107e-320
-3.94215e-320
-3.76873e-320
-4.3122e-320
-3.85272e-320
-4.19709e-320
-4.38434e-320
-3.75737e-320
-4.53997e-320
-4.43918e-320
-4.07308e-320
-4.57455e-320
-4.74846e-320
-4.25885e-320
-4.54145e-320
-4.18424e-320
-4.33444e-320
-3.78948e-320
-4.40756e-320
-3.86112e-320
-4.52663e-320
-4.27564e-320
-4.31962e-320
-3.94017e-320
-3.92634e-320
-4.28009e-320
-4.2208e-320
-4.58789e-320
-4.29738e-320
-4.3379e-320
-3.87891e-320
-3.99057e-320
-4.33345e-320
-3.74452e-320
-3.74749e-320
-3.90905e-320
-3.74057e-320
-3.76676e-320
-3.86458e-320
-4.29936e-320
-4.29837e-320
-3.76231e-320
-4.44659e-320
-4.38829e-320
-4.30479e-320
-3.79591e-320
-4.32357e-320
-3.84334e-320
-3.73909e-320
-3.93177e-320
-3.77021e-320
-3.96735e-320
-4.21784e-320
-4.51971e-320
-4.32851e-320
-4.39669e-320
-4.29294e-320
-3.76527e-320
-3.87693e-320
-4.28355e-320
-3.92683e-320
-3.70401e-320
-4.24155e-320
-3.91498e-320
-4.16893e-320
-4.52959e-320
-4.33394e-320
-4.70943e-320
-4.54343e-320
-3.74502e-320
-3.7381e-320
-4.57999e-320
-4.56961e-320
-4.02565e-320
-3.72871e-320
-3.75045e-320
-4.16399e-320
-4.6042e-320
-3.98711e-320
-4.54689e-320
-4.62001e-320
-4.21043e-320
-4.25687e-320
-3.73168e-320
-4.53503e-320
-3.74304e-320
-4.53256e-320
-3.92338e-320
-4.18325e-320
-3.71537e-320
-4.10371e-320
-4.59283e-320
-3.71784e-320
-4.61457e-320
-3.69314e-320
-3.82407e-320
-3.71587e-320
-4.17831e-320
-4.38631e-320
-4.20746e-320
-4.62742e-320
-4.32554e-320
-4.33987e-320
-3.73316e-320
-4.3206e-320
-3.78306e-320
-4.09383e-320
-3.91942e-320
-3.7302e-320
-3.97575e-320
-4.27021e-320
-4.66398e-320
-4.55281e-320
-3.75391e-320
-3.68227e-320
-3.86458e-320
-3.77318e-320
-4.05381e-320
-4.11952e-320
-4.61951e-320
-3.96784e-320
-3.80332e-320
-3.84383e-320
-3.95005e-320
-3.91102e-320
-3.94166e-320
-4.47722e-320
-4.1294e-320
-3.67733e-320
-3.66201e-320
-4.66892e-320
-4.26873e-320
-3.86656e-320
-3.97328e-320
-4.27614e-320
-3.99403e-320
-3.63978e-320
-4.38829e-320
-4.46635e-320
-4.4955e-320
-4.02466e-320
-4.14818e-320
-3.98909e-320
-4.02169e-320
-4.46092e-320
-3.67387e-320
-3.87693e-320
-3.88286e-320
-3.88138e-320
-4.81171e-320
-3.8547e-320
-4.26922e-320
-3.7712e-320
-3.98563e-320
-4.30331e-320
-3.83099e-320
-4.04245e-320
-3.9876e-320
-3.80431e-320
-4.19857e-320
-4.25391e-320
-4.76329e-320
-3.89324e-320
-4.21092e-320
-4.2045e-320
-4.00144e-320
-4.68473e-320
-3.80925e-320
-4.05381e-320
-4.6294e-320
-4.36853e-320
-4.30875e-320
-3.76676e-320
-4.30084e-320
-4.02861e-320
-3.6462e-320
-4.61902e-320
-3.67931e-320
-3.8127e-320
-4.36013e-320
-3.86952e-320
-3.86013e-320
-4.09531e-320
-3.97179e-320
-3.76083e-320
-3.97031e-320
-4.71141e-320
-3.79047e-320
-4.59036e-320
-4.04146e-320
-4.02812e-320
-4.38434e-320
-4.69115e-320
-4.66102e-320
-4.21833e-320
-4.50835e-320
-4.80479e-320
-4.78107e-320
-3.76626e-320
-4.20895e-320
-4.08148e-320
-3.94511e-320
-3.7465e-320
-3.87496e-320
-4.13286e-320
-3.77417e-320
-3.90509e-320
-3.7213e-320
-4.07703e-320
-3.95005e-320
-3.99353e-320
-3.85075e-320
-3.78553e-320
-4.7786e-320
-3.50787e-320
-3.81616e-320
3.69858e-320
4.204e-320
-4.37693e-320
-3.78207e-320
-3.85075e-320
-4.55331e-320
-4.5375e-320
-4.50835e-320
-4.64718e-320
-4.43029e-320
-4.38088e-320
-3.81073e-320
-4.44363e-320
-3.9046e-320
-3.94511e-320
-4.21092e-320
-4.21191e-320
-3.94462e-320
-3.88434e-320
-4.58394e-320
-3.90806e-320
-3.74601e-320
-3.89225e-320
-4.58839e-320
-4.80133e-320
-3.76774e-320
-3.77861e-320
-4.26033e-320
-3.84877e-320
-4.31962e-320
-3.78158e-320
-4.42189e-320
-4.45697e-320
-3.96043e-320
-4.37693e-320
-4.60469e-320
-3.75836e-320
-3.7717e-320
-4.41349e-320
-4.49155e-320
-3.79097e-320
-3.81962e-320
-4.45845e-320
-3.78603e-320
-3.9377e-320
-4.00045e-320
-4.23365e-320
-4.43177e-320
-4.22179e-320
-4.77416e-320
-4.24304e-320
-4.22377e-320
-3.75688e-320
-4.33345e-320
-3.92832e-320
-4.21487e-320
-4.42831e-320
-3.9965e-320
-3.7885e-320
-4.54145e-320
-4.28207e-320
-3.75589e-320
-4.51675e-320
-4.57159e-320
-3.81122e-320
-3.84432e-320
-4.58098e-320
-4.60025e-320
-4.25885e-320
-4.54738e-320
-4.53206e-320
-3.7801e-320
-3.9713e-320
-3.87496e-320
-4.18424e-320
-4.25242e-320
-4.18128e-320
-4.55726e-320
-3.74699e-320
-4.2544e-320
-4.17189e-320
-3.88533e-320
-3.74354e-320
-3.92239e-320
-3.87743e-320
-3.76676e-320
-3.86705e-320
-4.52564e-320
-4.41744e-320
-4.30479e-320
-4.72179e-320
-4.71684e-320
-4.64768e-320
-4.20351e-320
-4.44758e-320
-4.28701e-320
-3.74996e-320
-4.68473e-320
-4.30973e-320
-4.1798e-320
-4.71981e-320
-4.39471e-320
-4.36013e-320
-4.49204e-320
-4.40163e-320
-4.49797e-320
-3.77861e-320
-4.1877e-320
-3.70895e-320
-3.75095e-320
-4.28207e-320
-4.68621e-320
-4.59333e-320
-4.24304e-320
-3.76972e-320
-4.37396e-320
-4.55034e-320
-4.63088e-320
-4.12248e-320
-3.93474e-320
-3.81468e-320
-3.72031e-320
-4.46388e-320
-3.73612e-320
-4.24946e-320
-3.7213e-320
-3.79887e-320
-4.16942e-320
-3.78306e-320
-3.7381e-320
-4.20104e-320
-3.7885e-320
-3.68672e-320
-4.08938e-320
-3.93424e-320
-4.371e-320
-3.8715e-320
-4.5538e-320
-4.46932e-320
-4.69807e-320
-4.00786e-320
-4.06616e-320
-4.35716e-320
-4.65212e-320
-4.29491e-320
-3.98217e-320
-4.40707e-320
-3.89423e-320
-3.8379e-320
-4.1462e-320
-3.88879e-320
-3.91843e-320
-4.23661e-320
-4.74945e-320
-4.39916e-320
-3.82259e-320
-3.86952e-320
-3.78701e-320
-4.0627e-320
-4.1793e-320
-3.81122e-320
-3.76083e-320
-3.91498e-320
-3.97426e-320
-4.06221e-320
-4.26972e-320
-4.08395e-320
-3.90855e-320
-3.86112e-320
-4.10371e-320
-4.28651e-320
-4.03652e-320
-3.69265e-320
-3.92486e-320
-3.89373e-320
-4.19758e-320
-4.71684e-320
-3.83e-320
-4.4545e-320
-4.45697e-320
-4.20499e-320
-4.66398e-320
-4.64422e-320
-3.91053e-320
-4.48019e-320
-4.22871e-320
-4.07011e-320
-4.59975e-320
-4.75044e-320
-4.13237e-320
-3.66103e-320
-4.49699e-320
-4.14126e-320
-3.75688e-320
-3.78207e-320
-4.69412e-320
-3.81517e-320
-4.5207e-320
-3.79245e-320
-3.97822e-320
-3.78652e-320
-4.20302e-320
-4.09482e-320
-4.25786e-320
-4.06863e-320
-4.06715e-320
-3.81419e-320
-3.88434e-320
-4.51823e-320
-4.82752e-320
-4.02911e-320
-4.03158e-320
-3.7381e-320
-3.86903e-320
-3.79097e-320
-4.28651e-320
-3.83099e-320
-4.14472e-320
-4.48908e-320
-4.21537e-320
-4.01478e-320
-4.1546e-320
-4.7035e-320
-4.77663e-320
-4.81467e-320
-4.0375e-320
-4.39126e-320
-3.68869e-320
-4.76477e-320
-4.3374e-320
-4.48019e-320
-3.90361e-320
-4.01675e-320
-4.76922e-320
-4.16399e-320
-4.15954e-320
-4.38286e-320
-3.64225e-320
-4.50983e-320
-3.83148e-320
-4.2381e-320
-3.88385e-320
-4.30381e-320
-3.84136e-320
-4.75933e-320
-4.72475e-320
-4.33444e-320
-3.81962e-320
-3.52862e-320
-3.72871e-320
4.77712e-320
4.73167e-320
-3.7964e-320
-3.99501e-320
-3.95203e-320
-4.39274e-320
-4.48957e-320
-4.80874e-320
-3.75638e-320
-3.79492e-320
-4.05578e-320
-3.79541e-320
-4.48019e-320
-4.36952e-320
-4.47278e-320
-3.77071e-320
-4.38483e-320
-3.84581e-320
-4.38681e-320
-3.75045e-320
-3.80579e-320
-4.21685e-320
-4.46882e-320
-4.31566e-320
-3.78257e-320
-3.7717e-320
-4.51033e-320
-4.62445e-320
-4.69708e-320
-4.42041e-320
-3.9298e-320
-4.59234e-320
-4.51428e-320
-4.68325e-320
-4.43473e-320
-4.29145e-320
-4.71339e-320
-3.86755e-320
-3.85865e-320
-4.0212e-320
-4.19215e-320
-4.37742e-320
-4.38137e-320
-4.44807e-320
-4.39817e-320
-4.33543e-320
-4.50489e-320
-4.67436e-320
-4.28948e-320
-4.06221e-320
-3.78899e-320
-3.90509e-320
-3.72575e-320
-3.99403e-320
-4.53157e-320
-3.86557e-320
-3.96636e-320
-4.26576e-320
-3.84828e-320
-3.78701e-320
-4.26576e-320
-4.55281e-320
-3.77664e-320
-4.31962e-320
-4.58987e-320
-4.53206e-320
-3.74551e-320
-4.75686e-320
-4.37446e-320
-4.31962e-320
-4.48661e-320
-3.96932e-320
-3.93128e-320
-3.72575e-320
-3.80233e-320
-4.21389e-320
-3.92338e-320
-3.77318e-320
-3.77565e-320
-4.38533e-320
-4.56023e-320
-3.83247e-320
-4.15855e-320
-3.93375e-320
-4.47278e-320
-4.3962e-320
-3.8547e-320
-3.86112e-320
-3.7302e-320
-4.01428e-320
-4.66349e-320
-4.41299e-320
-4.44412e-320
-4.39768e-320
-4.52119e-320
-3.75935e-320
-3.72773e-320