/*--------------------------------*- C++ -*----------------------------------*\
| =========                 |                                                 |
| \\      /  F ield         | OpenFOAM: The Open Source CFD Toolbox           |
|  \\    /   O peration     | Version:  2406                                  |
|   \\  /    A nd           | Website:  www.openfoam.com                      |
|    \\/     M anipulation  |                                                 |
\*---------------------------------------------------------------------------*/
FoamFile
{
    version     2.0;
    format      ascii;
    arch        "LSB;label=32;scalar=64";
    class       volScalarField;
    location    "0.2";
    object      p;
}
// * * * * * * * * * * * * * * * * * * * * * * * * * * * * * * * * * * * * * //

dimensions      [1 -1 -2 0 0 0 0];

internalField   nonuniform List<scalar> 
6250
(
-2469.3
-2313.33
-268.847
372.762
216.428
35.4548
-5.21382
14.4363
30.144
32.3179
29.889
28.3357
28.0607
28.1292
28.0858
27.9345
27.7667
27.6177
27.4828
27.3524
27.2233
27.096
26.9707
26.8475
26.726
26.6059
26.487
26.3691
26.2522
26.1361
26.0207
25.9059
25.7916
25.6779
25.5645
25.4515
25.3388
25.2264
25.1142
25.0022
24.8904
24.7787
24.6672
24.5558
24.4445
24.3333
24.2221
24.111
24
23.889
23.778
23.6671
23.5562
23.4452
23.3343
23.2234
23.1126
23.0017
22.8908
22.7798
22.6689
22.558
22.4471
22.3361
22.2251
22.1141
22.0031
21.8921
21.7811
21.67
21.5589
21.4478
21.3367
21.2255
21.1143
21.0031
20.8919
20.7806
20.6693
20.558
20.4467
20.3353
20.224
20.1125
20.0011
19.8897
19.7782
19.6667
19.5551
19.4436
19.332
19.2203
19.1087
18.997
18.8853
18.7736
18.6619
18.5501
18.4383
18.3264
18.2146
18.1027
17.9908
17.8789
17.7669
17.6549
17.5429
17.4308
17.3188
17.2067
17.0946
16.9824
16.8702
16.758
16.6458
16.5335
16.4213
16.3089
16.1966
16.0843
15.9719
15.8595
15.747
15.6345
15.5221
15.4095
15.297
15.1844
15.0718
14.9592
14.8465
14.7339
14.6212
14.5084
14.3957
14.2829
14.1701
14.0573
13.9444
13.8315
13.7186
13.6057
13.4927
13.3797
13.2667
13.1536
13.0406
12.9275
12.8144
12.7012
12.5881
12.4749
12.3616
12.2484
12.1351
12.0218
11.9085
11.7952
11.6818
11.5684
11.4549
11.3415
11.228
11.1145
11.001
10.8874
10.7739
10.6603
10.5466
10.4329
10.3193
10.2056
10.0918
9.97809
9.86431
9.7505
9.63665
9.52278
9.4089
9.295
9.18108
9.06713
8.95315
8.83913
8.72508
8.61101
8.49693
8.38283
8.26871
8.15455
8.04037
7.92615
7.81189
7.69762
7.58333
7.46903
7.3547
7.24034
7.12595
7.01153
6.89707
6.78259
6.66808
6.55356
6.43902
6.32445
6.20985
6.09521
5.98053
5.86581
5.75107
5.6363
5.52151
5.40671
5.29188
5.177
5.06205
4.94704
4.83197
4.71688
4.60179
4.48667
4.37151
4.25626
4.14089
4.0254
3.90981
3.79417
3.67853
3.56283
3.44702
3.331
3.21468
3.09809
2.98127
2.86428
2.74714
2.62967
2.51169
2.39294
2.2732
2.15239
2.03029
1.90653
1.78036
1.65045
1.5149
1.37082
1.21359
1.03587
-2472.9
-2316.67
-270.132
372.384
216.078
35.0149
-5.61527
14.1257
29.9028
32.1174
29.7158
28.1854
27.9303
28.0153
27.9854
27.845
27.6865
27.5455
27.4173
27.2927
27.1687
27.0458
26.9244
26.8046
26.6861
26.5687
26.4523
26.3366
26.2216
26.1073
25.9935
25.8802
25.7673
25.6548
25.5426
25.4306
25.3189
25.2074
25.096
24.9848
24.8737
24.7628
24.6519
24.5411
24.4303
24.3196
24.209
24.0983
23.9877
23.8771
23.7665
23.656
23.5454
23.4348
23.3242
23.2136
23.103
22.9924
22.8818
22.7711
22.6604
22.5497
22.439
22.3282
22.2175
22.1067
21.9958
21.885
21.7741
21.6632
21.5523
21.4413
21.3303
21.2193
21.1083
20.9972
20.8861
20.7749
20.6638
20.5526
20.4414
20.3301
20.2188
20.1075
19.9962
19.8848
19.7734
19.662
19.5505
19.439
19.3275
19.216
19.1044
18.9928
18.8812
18.7695
18.6578
18.5461
18.4344
18.3226
18.2108
18.099
17.9871
17.8752
17.7633
17.6514
17.5394
17.4274
17.3154
17.2033
17.0913
16.9792
16.867
16.7549
16.6427
16.5305
16.4182
16.3059
16.1936
16.0813
15.969
15.8566
15.7442
15.6317
15.5193
15.4068
15.2943
15.1817
15.0692
14.9566
14.8439
14.7313
14.6186
14.5059
14.3932
14.2804
14.1676
14.0548
13.942
13.8291
13.7162
13.6033
13.4904
13.3774
13.2644
13.1514
13.0383
12.9253
12.8122
12.699
12.5859
12.4727
12.3595
12.2463
12.133
12.0197
11.9064
11.7931
11.6798
11.5664
11.453
11.3395
11.226
11.1126
10.9991
10.8855
10.772
10.6584
10.5447
10.4311
10.3174
10.2037
10.09
9.97629
9.86252
9.74872
9.63489
9.52104
9.40717
9.29328
9.17937
9.06543
8.95146
8.83745
8.72342
8.60937
8.4953
8.3812
8.26709
8.15294
8.03877
7.92456
7.81032
7.69607
7.58179
7.46749
7.35317
7.23882
7.12444
7.01003
6.89559
6.78112
6.66663
6.55212
6.43758
6.32302
6.20842
6.0938
5.97913
5.86444
5.74971
5.63496
5.52019
5.40539
5.29056
5.17569
5.06076
4.94577
4.83074
4.71569
4.60061
4.4855
4.37035
4.25512
4.13978
4.02436
3.90884
3.79328
3.67769
3.56202
3.44626
3.33031
3.21414
3.09775
2.98117
2.86446
2.74761
2.63051
2.51305
2.39508
2.27652
2.15744
2.0379
1.91795
1.7977
1.67734
1.55764
1.44033
1.32903
1.23079
-2473.28
-2317.18
-270.291
372.432
216.129
35.0319
-5.59526
14.1694
29.9643
32.1854
29.7849
28.2546
27.9994
28.0838
28.0526
27.9105
27.7501
27.607
27.4767
27.35
27.224
27.099
26.9757
26.854
26.7337
26.6145
26.4963
26.3791
26.2626
26.1467
26.0315
25.9169
25.8027
25.6889
25.5755
25.4624
25.3496
25.237
25.1247
25.0125
24.9005
24.7887
24.6769
24.5653
24.4538
24.3424
24.231
24.1197
24.0084
23.8972
23.7861
23.6749
23.5638
23.4527
23.3416
23.2305
23.1194
23.0083
22.8973
22.7862
22.6751
22.564
22.4529
22.3418
22.2307
22.1195
22.0084
21.8972
21.7861
21.6749
21.5637
21.4524
21.3412
21.2299
21.1186
21.0073
20.896
20.7846
20.6732
20.5618
20.4504
20.339
20.2275
20.116
20.0045
19.893
19.7814
19.6698
19.5582
19.4466
19.3349
19.2232
19.1115
18.9998
18.888
18.7763
18.6644
18.5526
18.4408
18.3289
18.217
18.105
17.9931
17.8811
17.7691
17.6571
17.545
17.4329
17.3208
17.2087
17.0965
16.9843
16.8721
16.7599
16.6476
16.5353
16.423
16.3107
16.1983
16.0859
15.9735
15.861
15.7486
15.6361
15.5236
15.411
15.2984
15.1858
15.0732
14.9606
14.8479
14.7352
14.6225
14.5097
14.3969
14.2841
14.1713
14.0585
13.9456
13.8327
13.7197
13.6068
13.4938
13.3808
13.2678
13.1547
13.0416
12.9285
12.8154
12.7022
12.589
12.4758
12.3626
12.2493
12.136
12.0227
11.9094
11.796
11.6826
11.5692
11.4557
11.3423
11.2288
11.1153
11.0017
10.8882
10.7746
10.661
10.5473
10.4336
10.3199
10.2062
10.0925
9.97872
9.86492
9.7511
9.63726
9.52339
9.40949
9.29558
9.18163
9.06766
8.95367
8.83965
8.7256
8.61153
8.49744
8.38332
8.26917
8.155
8.0408
7.92658
7.81234
7.69807
7.58377
7.46945
7.3551
7.24073
7.12632
7.0119
6.89745
6.78297
6.66847
6.55394
6.43938
6.3248
6.21018
6.09554
5.98088
5.86618
5.75146
5.6367
5.52191
5.40709
5.29224
5.17736
5.06243
4.94748
4.83248
4.71745
4.60237
4.48725
4.37209
4.25687
4.14159
4.02626
3.91086
3.79539
3.67986
3.56424
3.44854
3.33273
3.21681
3.10078
2.98462
2.86834
2.75194
2.63538
2.51868
2.40182
2.28484
2.16783
2.05089
1.93417
1.81794
1.70264
1.58898
1.47805
1.37141
1.27109
-2473.92
-2318.16
-271.071
371.849
215.638
34.5809
-6.01057
13.796
29.6318
31.8878
29.5165
28.0112
27.7782
27.8821
27.8682
27.7413
27.5943
27.4632
27.3435
27.2263
27.1088
26.9914
26.875
26.7595
26.6448
26.5307
26.4172
26.3042
26.1915
26.0793
25.9674
25.8557
25.7443
25.6331
25.5221
25.4112
25.3005
25.1898
25.0793
24.9688
24.8584
24.748
24.6377
24.5274
24.4171
24.3069
24.1966
24.0863
23.9761
23.8658
23.7555
23.6452
23.5349
23.4246
23.3142
23.2038
23.0934
22.983
22.8725
22.762
22.6515
22.541
22.4304
22.3198
22.2092
22.0985
21.9878
21.8771
21.7663
21.6555
21.5447
21.4338
21.3229
21.212
21.101
20.99
20.879
20.7679
20.6569
20.5457
20.4346
20.3234
20.2122
20.101
19.9897
19.8784
19.767
19.6557
19.5443
19.4328
19.3214
19.2099
19.0984
18.9868
18.8753
18.7636
18.652
18.5403
18.4286
18.3169
18.2052
18.0934
17.9816
17.8697
17.7578
17.6459
17.534
17.422
17.3101
17.198
17.086
16.9739
16.8618
16.7497
16.6375
16.5254
16.4131
16.3009
16.1886
16.0763
15.964
15.8517
15.7393
15.6269
15.5144
15.402
15.2895
15.177
15.0644
14.9519
14.8393
14.7266
14.614
14.5013
14.3886
14.2759
14.1631
14.0503
13.9375
13.8247
13.7118
13.5989
13.486
13.373
13.26
13.147
13.034
12.921
12.8079
12.6948
12.5816
12.4685
12.3553
12.2421
12.1289
12.0156
11.9023
11.789
11.6756
11.5623
11.4489
11.3355
11.222
11.1086
10.9951
10.8815
10.768
10.6544
10.5408
10.4272
10.3135
10.1999
10.0862
9.97242
9.85867
9.7449
9.6311
9.51727
9.40342
9.28953
9.17562
9.06168
8.94773
8.83375
8.71975
8.60573
8.49167
8.37758
8.26346
8.14932
8.03516
7.92098
7.80678
7.69255
7.57829
7.464
7.34967
7.23533
7.12097
7.00658
6.89217
6.77774
6.66327
6.54877
6.43424
6.31969
6.20511
6.09051
5.97589
5.86124
5.74657
5.63185
5.5171
5.40231
5.28749
5.17265
5.05779
4.94291
4.82799
4.71303
4.598
4.48292
4.3678
4.25266
4.13751
4.02232
3.90709
3.79177
3.67634
3.56084
3.44529
3.32971
3.21413
3.09852
2.98281
2.86699
2.75104
2.63503
2.51906
2.40319
2.28749
2.17197
2.05667
1.9417
1.82731
1.71391
1.60197
1.49198
1.38443
1.27966
-2474.28
-2318.68
-271.436
371.62
215.477
34.4526
-6.11311
13.7212
29.5836
31.8618
29.5079
28.0164
27.7946
27.9078
27.9012
27.7802
27.6378
27.5102
27.3932
27.278
27.1618
27.0454
26.9294
26.8142
26.6994
26.5851
26.4711
26.3575
26.2441
26.1311
26.0183
25.9058
25.7934
25.6813
25.5693
25.4574
25.3457
25.2341
25.1225
25.0111
24.8997
24.7884
24.6772
24.566
24.4548
24.3437
24.2325
24.1215
24.0104
23.8994
23.7883
23.6773
23.5662
23.4552
23.3442
23.2332
23.1221
23.0111
22.9
22.789
22.6779
22.5668
22.4557
22.3446
22.2334
22.1223
22.0111
21.9
21.7888
21.6775
21.5663
21.455
21.3438
21.2325
21.1212
21.0098
20.8984
20.7871
20.6757
20.5642
20.4528
20.3413
20.2298
20.1183
20.0068
19.8952
19.7836
19.672
19.5604
19.4487
19.337
19.2253
19.1136
19.0018
18.89
18.7782
18.6664
18.5545
18.4427
18.3308
18.2188
18.1069
17.9949
17.8829
17.7709
17.6588
17.5467
17.4346
17.3225
17.2103
17.0982
16.9859
16.8737
16.7615
16.6492
16.5369
16.4245
16.3122
16.1998
16.0874
15.975
15.8625
15.75
15.6375
15.525
15.4124
15.2998
15.1872
15.0746
14.9619
14.8492
14.7365
14.6237
14.511
14.3982
14.2854
14.1725
14.0597
13.9468
13.8338
13.7209
13.6079
13.4949
13.3819
13.2689
13.1558
13.0427
12.9296
12.8164
12.7032
12.59
12.4768
12.3636
12.2503
12.137
12.0237
11.9103
11.7969
11.6835
11.5701
11.4567
11.3432
11.2297
11.1162
11.0026
10.889
10.7754
10.6618
10.5481
10.4345
10.3208
10.207
10.0933
9.97947
9.86567
9.75185
9.63801
9.52413
9.41022
9.29629
9.18232
9.06834
8.95434
8.84032
8.72628
8.61221
8.4981
8.38396
8.2698
8.15562
8.04142
7.9272
7.81296
7.69868
7.58438
7.47004
7.35568
7.2413
7.1269
7.01248
6.89803
6.78356
6.66906
6.55452
6.43996
6.32537
6.21076
6.09614
5.98149
5.86682
5.75212
5.63738
5.5226
5.40779
5.29295
5.1781
5.06324
4.94836
4.83344
4.71848
4.60345
4.48838
4.37328
4.25818
4.14309
4.02797
3.91282
3.79758
3.68224
3.56684
3.45144
3.33606
3.22074
3.10542
2.99004
2.87456
2.759
2.64346
2.52807
2.41291
2.29803
2.18336
2.0689
1.95471
1.84098
1.728
1.61597
1.50495
1.39483
1.28524
-2474.58
-2319.13
-271.801
371.329
215.211
34.1934
-6.36287
13.4862
29.3649
31.6582
29.3177
27.8384
27.6279
27.7515
27.7545
27.6423
27.5079
27.3876
27.2774
27.1684
27.0579
26.9466
26.8355
26.7246
26.6139
26.5033
26.3928
26.2824
26.172
26.0618
25.9516
25.8414
25.7313
25.6213
25.5113
25.4012
25.2912
25.1813
25.0713
24.9613
24.8513
24.7413
24.6313
24.5213
24.4113
24.3012
24.1911
24.081
23.9709
23.8607
23.7505
23.6403
23.5301
23.4198
23.3095
23.1992
23.0888
22.9784
22.868
22.7575
22.647
22.5365
22.4259
22.3153
22.2047
22.094
21.9833
21.8726
21.7619
21.6511
21.5402
21.4294
21.3185
21.2076
21.0966
20.9856
20.8746
20.7636
20.6525
20.5414
20.4302
20.3191
20.2079
20.0966
19.9854
19.8741
19.7627
19.6514
19.54
19.4286
19.3171
19.2056
19.0941
18.9826
18.871
18.7594
18.6478
18.5361
18.4244
18.3127
18.201
18.0892
17.9774
17.8656
17.7537
17.6418
17.5299
17.4179
17.306
17.194
17.0819
16.9699
16.8578
16.7457
16.6335
16.5214
16.4092
16.2969
16.1847
16.0724
15.9601
15.8477
15.7354
15.623
15.5105
15.3981
15.2856
15.1731
15.0606
14.948
14.8354
14.7228
14.6102
14.4975
14.3848
14.2721
14.1594
14.0466
13.9338
13.821
13.7081
13.5952
13.4823
13.3694
13.2564
13.1434
13.0304
12.9174
12.8043
12.6912
12.5781
12.465
12.3518
12.2386
12.1254
12.0121
11.8988
11.7855
11.6722
11.5589
11.4455
11.3321
11.2186
11.1052
10.9917
10.8782
10.7646
10.6511
10.5375
10.4239
10.3103
10.1966
10.0829
9.96917
9.85543
9.74167
9.62789
9.51407
9.40022
9.28635
9.17245
9.05853
8.94459
8.83063
8.71664
8.60262
8.48857
8.37449
8.26039
8.14627
8.03213
7.91796
7.80377
7.68955
7.5753
7.46102
7.34672
7.2324
7.11805
7.00369
6.88929
6.77487
6.66042
6.54595
6.43145
6.31692
6.20237
6.0878
5.97321
5.8586
5.74395
5.62927
5.51456
5.39983
5.28507
5.17029
5.0555
4.94069
4.82584
4.71096
4.59603
4.48108
4.3661
4.25112
4.13614
4.02115
3.90612
3.79103
3.67589
3.56072
3.44556
3.33043
3.21536
3.10031
2.98523
2.87011
2.75498
2.63994
2.52507
2.41042
2.29602
2.18182
2.0678
1.95406
1.84072
1.72797
1.61592
1.50463
1.39413
1.28447
-2474.81
-2319.47
-272.063
371.128
215.037
34.0334
-6.50701
13.3613
29.2597
31.571
29.2465
27.7816
27.5841
27.7193
27.7327
27.6296
27.5032
27.3899
27.2857
27.182
27.076
26.9687
26.8609
26.7528
26.6445
26.5359
26.427
26.318
26.2087
26.0993
25.9898
25.8802
25.7704
25.6606
25.5506
25.4406
25.3306
25.2204
25.1102
25
24.8897
24.7794
24.669
24.5586
24.4481
24.3377
24.2271
24.1166
24.006
23.8954
23.7847
23.6741
23.5634
23.4526
23.3419
23.2311
23.1203
23.0095
22.8986
22.7877
22.6768
22.5659
22.4549
22.3439
22.2329
22.1219
22.0108
21.8997
21.7886
21.6775
21.5663
21.4551
21.3439
21.2327
21.1214
21.0101
20.8988
20.7875
20.6761
20.5648
20.4533
20.3419
20.2304
20.119
20.0074
19.8959
19.7844
19.6728
19.5611
19.4495
19.3378
19.2262
19.1144
19.0027
18.8909
18.7791
18.6673
18.5555
18.4436
18.3317
18.2198
18.1079
17.9959
17.8839
17.7719
17.6598
17.5477
17.4356
17.3235
17.2114
17.0992
16.987
16.8747
16.7625
16.6502
16.5379
16.4256
16.3132
16.2008
16.0884
15.976
15.8635
15.751
15.6385
15.526
15.4134
15.3008
15.1882
15.0756
14.9629
14.8502
14.7375
14.6247
14.512
14.3992
14.2863
14.1735
14.0606
13.9477
13.8348
13.7218
13.6089
13.4959
13.3828
13.2698
13.1567
13.0436
12.9305
12.8173
12.7041
12.5909
12.4777
12.3644
12.2512
12.1379
12.0245
11.9112
11.7978
11.6844
11.5709
11.4575
11.344
11.2305
11.1169
11.0034
10.8898
10.7762
10.6626
10.5489
10.4352
10.3215
10.2078
10.094
9.98022
9.86641
9.75257
9.63871
9.52483
9.41091
9.29698
9.18302
9.06903
8.95503
8.84099
8.72694
8.61285
8.49874
8.38461
8.27045
8.15627
8.04206
7.92783
7.81358
7.69929
7.58498
7.47065
7.3563
7.24193
7.12753
7.0131
6.89865
6.78417
6.66967
6.55515
6.4406
6.32603
6.21144
6.09682
5.98218
5.86751
5.75282
5.63811
5.52337
5.40862
5.29384
5.17903
5.0642
4.94935
4.83448
4.71959
4.60468
4.48975
4.37481
4.25984
4.14487
4.02987
3.91486
3.79985
3.68482
3.5698
3.45478
3.33977
3.22479
3.10983
2.9949
2.88002
2.7652
2.65049
2.5359
2.42145
2.30717
2.19307
2.07918
1.96555
1.85221
1.73919
1.62643
1.51384
1.40125
1.28829
-2474.99
-2319.73
-272.277
370.958
214.88
33.8794
-6.65584
13.2209
29.1285
31.4483
29.1315
27.6735
27.4824
27.6235
27.6424
27.5442
27.4223
27.313
27.2126
27.1121
27.0092
26.9046
26.7993
26.6935
26.5872
26.4805
26.3733
26.2659
26.1581
26.05
25.9417
25.8332
25.7245
25.6156
25.5066
25.3975
25.2882
25.1789
25.0694
24.9599
24.8502
24.7405
24.6308
24.5209
24.411
24.3011
24.1911
24.081
23.9709
23.8607
23.7505
23.6403
23.53
23.4197
23.3093
23.1989
23.0885
22.978
22.8675
22.757
22.6464
22.5358
22.4251
22.3145
22.2037
22.093
21.9822
21.8714
21.7606
21.6497
21.5388
21.4279
21.317
21.206
21.095
20.9839
20.8728
20.7617
20.6506
20.5394
20.4282
20.317
20.2058
20.0945
19.9832
19.8718
19.7605
19.6491
19.5377
19.4262
19.3147
19.2032
19.0917
18.9801
18.8685
18.7569
18.6452
18.5336
18.4219
18.3101
18.1984
18.0866
17.9747
17.8629
17.751
17.6391
17.5272
17.4152
17.3032
17.1912
17.0792
16.9671
16.855
16.7429
16.6308
16.5186
16.4064
16.2941
16.1819
16.0696
15.9573
15.8449
15.7326
15.6202
15.5078
15.3953
15.2828
15.1703
15.0578
14.9452
14.8327
14.72
14.6074
14.4948
14.3821
14.2693
14.1566
14.0438
13.931
13.8182
13.7054
13.5925
13.4796
13.3667
13.2537
13.1407
13.0277
12.9147
12.8016
12.6885
12.5754
12.4623
12.3491
12.2359
12.1227
12.0095
11.8962
11.7829
11.6696
11.5562
11.4428
11.3294
11.216
11.1026
10.9891
10.8756
10.7621
10.6485
10.5349
10.4213
10.3077
10.194
10.0804
9.96666
9.85293
9.73916
9.62538
9.51156
9.39773
9.28388
9.17
9.05609
8.94215
8.82819
8.7142
8.60019
8.48615
8.3721
8.25802
8.14391
8.02977
7.9156
7.80141
7.6872
7.57297
7.45871
7.34444
7.23013
7.1158
7.00144
6.88705
6.77264
6.65821
6.54376
6.4293
6.3148
6.20028
6.08573
5.97116
5.85656
5.74194
5.62731
5.51266
5.398
5.2833
5.16858
5.05382
4.93905
4.82427
4.70948
4.59469
4.4799
4.36507
4.25022
4.13534
4.02045
3.90558
3.79073
3.67591
3.5611
3.44628
3.33145
3.21662
3.10182
2.98712
2.87252
2.75803
2.64363
2.52928
2.415
2.30083
2.18685
2.07313
1.9597
1.84652
1.73358
1.62086
1.50846
1.39658
1.28547
-2475.13
-2319.94
-272.44
370.828
214.761
33.7643
-6.76533
13.1202
29.0376
31.3671
29.0592
27.6099
27.427
27.576
27.6021
27.5108
27.3952
27.2918
27.1966
27.101
27.0025
26.9019
26.8002
26.6977
26.5943
26.4902
26.3854
26.28
26.1741
26.0677
25.9609
25.8537
25.7461
25.6382
25.5301
25.4217
25.3131
25.2044
25.0954
24.9863
24.877
24.7676
24.658
24.5484
24.4386
24.3288
24.2189
24.1089
23.9988
23.8887
23.7784
23.6682
23.5578
23.4475
23.337
23.2266
23.116
23.0055
22.8948
22.7842
22.6735
22.5628
22.452
22.3412
22.2304
22.1195
22.0086
21.8976
21.7867
21.6757
21.5646
21.4536
21.3425
21.2313
21.1202
21.009
20.8978
20.7865
20.6752
20.5639
20.4526
20.3412
20.2298
20.1184
20.007
19.8955
19.784
19.6725
19.5609
19.4493
19.3377
19.226
19.1144
19.0027
18.8909
18.7792
18.6674
18.5556
18.4438
18.3319
18.22
18.1081
17.9961
17.8842
17.7722
17.6601
17.5481
17.436
17.3239
17.2118
17.0996
16.9874
16.8752
16.763
16.6507
16.5384
16.4261
16.3137
16.2014
16.089
15.9765
15.8641
15.7516
15.6391
15.5266
15.414
15.3014
15.1888
15.0762
14.9635
14.8508
14.7381
14.6254
14.5126
14.3998
14.287
14.1741
14.0613
13.9484
13.8354
13.7225
13.6095
13.4965
13.3835
13.2704
13.1573
13.0442
12.9311
12.818
12.7048
12.5916
12.4783
12.3651
12.2518
12.1385
12.0252
11.9118
11.7984
11.685
11.5716
11.4581
11.3446
11.2311
11.1176
11.004
10.8904
10.7768
10.6632
10.5495
10.4358
10.3221
10.2084
10.0946
9.9808
9.86698
9.75314
9.63927
9.52538
9.41147
9.29754
9.18358
9.06959
8.95557
8.84153
8.72746
8.61338
8.49927
8.38514
8.27099
8.1568
8.04259
7.92835
7.81409
7.6998
7.5855
7.47118
7.35683
7.24246
7.12805
7.01362
6.89917
6.7847
6.67021
6.5557
6.44116
6.32661
6.21202
6.09742
5.98278
5.86812
5.75345
5.63877
5.52408
5.40936
5.29462
5.17986
5.06506
4.95025
4.83543
4.72062
4.60582
4.49101
4.37617
4.2613
4.14641
4.03152
3.91666
3.80184
3.68707
3.5723
3.45753
3.34273
3.22794
3.1132
2.99857
2.88408
2.7697
2.65538
2.54107
2.42679
2.3126
2.1986
2.08485
1.97131
1.85791
1.74453
1.63109
1.51756
1.40382
1.28951
-2475.23
-2320.09
-272.562
370.73
214.67
33.6746
-6.85257
13.0377
28.9608
31.2956
28.9925
27.5477
27.3689
27.5218
27.5516
27.4635
27.3508
27.25
27.1571
27.0636
26.9669
26.8678
26.7675
26.6661
26.5638
26.4605
26.3565
26.2517
26.1463
26.0403
25.9338
25.8269
25.7196
25.6119
25.504
25.3957
25.2872
25.1785
25.0696
24.9605
24.8512
24.7418
24.6323
24.5226
24.4129
24.303
24.1931
24.0831
23.973
23.8628
23.7526
23.6423
23.532
23.4216
23.3112
23.2007
23.0901
22.9796
22.869
22.7583
22.6477
22.537
22.4262
22.3154
22.2046
22.0938
21.9829
21.872
21.7611
21.6502
21.5392
21.4282
21.3171
21.206
21.0949
20.9838
20.8727
20.7615
20.6503
20.5391
20.4278
20.3165
20.2052
20.0939
19.9825
19.8711
19.7597
19.6482
19.5368
19.4253
19.3137
19.2022
19.0906
18.979
18.8674
18.7557
18.644
18.5323
18.4206
18.3088
18.197
18.0852
17.9733
17.8615
17.7496
17.6377
17.5257
17.4137
17.3017
17.1897
17.0776
16.9655
16.8534
16.7413
16.6291
16.5169
16.4047
16.2925
16.1802
16.0679
15.9556
15.8432
15.7309
15.6185
15.506
15.3936
15.2811
15.1686
15.056
14.9435
14.8309
14.7183
14.6056
14.493
14.3803
14.2676
14.1548
14.042
13.9292
13.8164
13.7036
13.5907
13.4778
13.3649
13.2519
13.1389
13.0259
12.9129
12.7998
12.6867
12.5736
12.4605
12.3473
12.2341
12.1209
12.0077
11.8944
11.7811
11.6678
11.5545
11.4411
11.3277
11.2143
11.1008
10.9874
10.8739
10.7603
10.6468
10.5332
10.4196
10.306
10.1923
10.0787
9.96496
9.85123
9.73747
9.62369
9.50989
9.39606
9.28221
9.16833
9.05443
8.94049
8.82653
8.71255
8.59855
8.48453
8.37048
8.2564
8.14229
8.02816
7.914
7.79982
7.68562
7.5714
7.45715
7.34288
7.22858
7.11426
6.99991
6.88554
6.77115
6.65674
6.5423
6.42785
6.31336
6.19886
6.08433
5.96978
5.85521
5.74063
5.62602
5.51141
5.39677
5.28212
5.16744
5.05274
4.93803
4.82331
4.7086
4.59388
4.47916
4.36442
4.24967
4.13491
4.02015
3.90542
3.79072
3.67607
3.56142
3.44678
3.33214
3.21751
3.10295
2.9885
2.87414
2.75988
2.64567
2.53148
2.41735
2.30331
2.18944
2.07577
1.96227
1.8489
1.73563
1.6225
1.50965
1.39729
1.28573
-2475.3
-2320.2
-272.647
370.662
214.607
33.6125
-6.91305
12.9808
28.9082
31.2473
28.9483
27.5074
27.3325
27.4892
27.5226
27.438
27.3287
27.231
27.1411
27.0504
26.9563
26.8597
26.7616
26.6623
26.562
26.4606
26.3582
26.255
26.1511
26.0465
25.9413
25.8356
25.7293
25.6227
25.5157
25.4083
25.3006
25.1927
25.0845
24.976
24.8674
24.7586
24.6496
24.5404
24.4311
24.3217
24.2122
24.1026
23.9928
23.883
23.7731
23.6631
23.5531
23.4429
23.3327
23.2225
23.1121
23.0018
22.8913
22.7809
22.6703
22.5598
22.4492
22.3385
22.2278
22.1171
22.0063
21.8955
21.7846
21.6737
21.5628
21.4518
21.3408
21.2298
21.1187
21.0076
20.8964
20.7853
20.6741
20.5628
20.4516
20.3403
20.2289
20.1176
20.0062
19.8948
19.7833
19.6718
19.5603
19.4488
19.3372
19.2256
19.114
19.0023
18.8906
18.7789
18.6671
18.5554
18.4436
18.3317
18.2199
18.108
17.9961
17.8841
17.7721
17.6601
17.5481
17.436
17.3239
17.2118
17.0997
16.9875
16.8753
16.7631
16.6508
16.5386
16.4263
16.3139
16.2016
16.0892
15.9767
15.8643
15.7518
15.6393
15.5268
15.4143
15.3017
15.1891
15.0765
14.9638
14.8511
14.7384
14.6257
14.5129
14.4001
14.2873
14.1745
14.0616
13.9487
13.8358
13.7228
13.6099
13.4969
13.3838
13.2708
13.1577
13.0446
12.9315
12.8183
12.7051
12.5919
12.4787
12.3654
12.2522
12.1388
12.0255
11.9122
11.7988
11.6854
11.5719
11.4585
11.345
11.2315
11.1179
11.0044
10.8908
10.7772
10.6635
10.5498
10.4362
10.3224
10.2087
10.0949
9.98114
9.86733
9.75349
9.63962
9.52573
9.41182
9.29788
9.18391
9.06992
8.95591
8.84187
8.72781
8.61372
8.49961
8.38547
8.27131
8.15712
8.04291
7.92868
7.81442
7.70014
7.58584
7.47151
7.35716
7.24278
7.12838
7.01396
6.89952
6.78505
6.67057
6.55606
6.44152
6.32697
6.21239
6.0978
5.98319
5.86855
5.7539
5.63923
5.52454
5.40984
5.29512
5.18039
5.06565
4.95089
4.83613
4.72136
4.60658
4.49179
4.37701
4.26224
4.14746
4.0327
3.91794
3.80321
3.68849
3.57381
3.45915
3.34452
3.22994
3.11541
3.00095
2.88654
2.77221
2.65794
2.54374
2.42963
2.31561
2.2017
2.08788
1.97413
1.86043
1.74675
1.63304
1.5192
1.40502
1.29009
-2475.34
-2320.26
-272.698
370.622
214.571
33.5757
-6.94939
12.9462
28.8761
31.2174
28.9204
27.4814
27.3084
27.4668
27.5018
27.4187
27.3106
27.2141
27.1252
27.0353
26.9419
26.846
26.7484
26.6495
26.5494
26.4482
26.346
26.2428
26.1388
26.0341
25.9288
25.8229
25.7164
25.6095
25.5022
25.3945
25.2865
25.1782
25.0697
24.9609
24.8519
24.7427
24.6333
24.5238
24.4142
24.3044
24.1946
24.0846
23.9745
23.8644
23.7541
23.6438
23.5335
23.4231
23.3126
23.2021
23.0915
22.9809
22.8702
22.7595
22.6488
22.538
22.4272
22.3164
22.2055
22.0946
21.9837
21.8728
21.7618
21.6508
21.5397
21.4287
21.3176
21.2064
21.0953
20.9841
20.8729
20.7617
20.6504
20.5392
20.4279
20.3165
20.2052
20.0938
19.9824
19.871
19.7595
19.648
19.5365
19.425
19.3135
19.2019
19.0903
18.9786
18.867
18.7553
18.6436
18.5319
18.4201
18.3083
18.1965
18.0847
17.9728
17.8609
17.749
17.6371
17.5251
17.4131
17.3011
17.189
17.077
16.9649
16.8527
16.7406
16.6284
16.5162
16.404
16.2917
16.1795
16.0672
15.9548
15.8425
15.7301
15.6177
15.5052
15.3928
15.2803
15.1678
15.0552
14.9427
14.8301
14.7175
14.6048
14.4922
14.3795
14.2667
14.154
14.0412
13.9284
13.8156
13.7027
13.5899
13.477
13.364
13.2511
13.1381
13.0251
12.912
12.799
12.6859
12.5728
12.4596
12.3465
12.2333
12.1201
12.0068
11.8936
11.7803
11.667
11.5536
11.4403
11.3269
11.2134
11.1
10.9865
10.873
10.7595
10.646
10.5324
10.4188
10.3052
10.1915
10.0778
9.96412
9.8504
9.73665
9.62288
9.50907
9.39525
9.28139
9.16751
9.05361
8.93968
8.82573
8.71176
8.59776
8.48373
8.36967
8.25559
8.14149
8.02737
7.91323
7.79905
7.68486
7.57063
7.45638
7.34211
7.22782
7.1135
6.99917
6.88481
6.77042
6.65601
6.54158
6.42712
6.31265
6.19816
6.08365
5.96912
5.85457
5.74
5.62541
5.51079
5.39617
5.28153
5.16689
5.05224
4.93758
4.8229
4.7082
4.5935
4.47879
4.3641
4.24943
4.13477
4.02011
3.90545
3.79079
3.67614
3.56153
3.44699
3.3325
3.21806
3.10365
2.98927
2.87492
2.76063
2.64643
2.53235
2.41839
2.30451
2.19069
2.07691
1.9632
1.84961
1.7362
1.62302
1.51012
1.39764
1.28588
-2475.35
-2320.28
-272.716
370.608
214.559
33.5636
-6.9614
12.9349
28.8655
31.2077
28.9115
27.4732
27.301
27.4602
27.496
27.4136
27.3063
27.2106
27.1224
27.0333
26.9407
26.8454
26.7486
26.6504
26.5511
26.4506
26.349
26.2466
26.1433
26.0393
25.9347
25.8294
25.7236
25.6174
25.5107
25.4037
25.2963
25.1886
25.0807
24.9725
24.8641
24.7554
24.6466
24.5376
24.4285
24.3192
24.2098
24.1003
23.9907
23.881
23.7712
23.6613
23.5513
23.4413
23.3312
23.221
23.1107
23.0004
22.8901
22.7797
22.6692
22.5587
22.4481
22.3375
22.2268
22.1162
22.0054
21.8946
21.7838
21.673
21.5621
21.4511
21.3402
21.2292
21.1181
21.007
20.8959
20.7848
20.6736
20.5624
20.4512
20.3399
20.2286
20.1172
20.0059
19.8944
19.783
19.6715
19.5601
19.4485
19.337
19.2254
19.1138
19.0021
18.8904
18.7787
18.667
18.5552
18.4434
18.3316
18.2198
18.1079
17.996
17.884
17.7721
17.6601
17.548
17.436
17.3239
17.2118
17.0997
16.9875
16.8753
16.7631
16.6508
16.5386
16.4263
16.3139
16.2016
16.0892
15.9768
15.8643
15.7519
15.6394
15.5269
15.4143
15.3017
15.1891
15.0765
14.9639
14.8512
14.7385
14.6257
14.513
14.4002
14.2874
14.1745
14.0617
13.9488
13.8359
13.7229
13.6099
13.4969
13.3839
13.2709
13.1578
13.0447
12.9316
12.8184
12.7052
12.592
12.4788
12.3655
12.2523
12.1389
12.0256
11.9122
11.7989
11.6855
11.572
11.4586
11.3451
11.2316
11.118
11.0045
10.8909
10.7773
10.6636
10.55
10.4363
10.3225
10.2088
10.095
9.98124
9.86743
9.75359
9.63973
9.52584
9.41192
9.29797
9.18401
9.07002
8.95601
8.84197
8.72791
8.61382
8.4997
8.38556
8.2714
8.15722
8.04301
7.92878
7.81453
7.70025
7.58594
7.4716
7.35725
7.24288
7.12849
7.01407
6.89963
6.78516
6.67067
6.55616
6.44163
6.32708
6.21251
6.09792
5.98332
5.86869
5.75405
5.63938
5.52469
5.40999
5.29528
5.18057
5.06585
4.95112
4.83637
4.7216
4.60682
4.49205
4.3773
4.26256
4.14784
4.03313
3.9184
3.80366
3.68895
3.57428
3.45968
3.34515
3.23066
3.1162
3.00174
2.88731
2.77295
2.6587
2.54458
2.43057
2.31663
2.2027
2.08877
1.97488
1.86106
1.74731
1.63356
1.51964
1.40531
1.29019
-2475.34
-2320.26
-272.698
370.622
214.571
33.5757
-6.94939
12.9462
28.8761
31.2174
28.9204
27.4814
27.3084
27.4668
27.5018
27.4187
27.3106
27.2141
27.1252
27.0353
26.9419
26.846
26.7484
26.6495
26.5494
26.4482
26.346
26.2428
26.1388
26.0341
25.9288
25.8229
25.7164
25.6095
25.5022
25.3945
25.2865
25.1782
25.0697
24.9609
24.8519
24.7427
24.6333
24.5238
24.4142
24.3044
24.1946
24.0846
23.9745
23.8644
23.7541
23.6438
23.5335
23.4231
23.3126
23.2021
23.0915
22.9809
22.8702
22.7595
22.6488
22.538
22.4272
22.3164
22.2055
22.0946
21.9837
21.8728
21.7618
21.6508
21.5397
21.4287
21.3176
21.2064
21.0953
20.9841
20.8729
20.7617
20.6504
20.5392
20.4279
20.3165
20.2052
20.0938
19.9824
19.871
19.7595
19.648
19.5365
19.425
19.3135
19.2019
19.0903
18.9786
18.867
18.7553
18.6436
18.5319
18.4201
18.3083
18.1965
18.0847
17.9728
17.8609
17.749
17.6371
17.5251
17.4131
17.3011
17.189
17.077
16.9649
16.8527
16.7406
16.6284
16.5162
16.404
16.2917
16.1795
16.0672
15.9548
15.8425
15.7301
15.6177
15.5052
15.3928
15.2803
15.1678
15.0552
14.9427
14.8301
14.7175
14.6048
14.4922
14.3795
14.2667
14.154
14.0412
13.9284
13.8156
13.7027
13.5899
13.477
13.364
13.2511
13.1381
13.0251
12.912
12.799
12.6859
12.5728
12.4597
12.3465
12.2333
12.1201
12.0068
11.8936
11.7803
11.667
11.5536
11.4403
11.3269
11.2134
11.1
10.9865
10.873
10.7595
10.646
10.5324
10.4188
10.3052
10.1915
10.0778
9.96413
9.8504
9.73665
9.62288
9.50907
9.39524
9.28139
9.16751
9.05361
8.93969
8.82574
8.71176
8.59775
8.48372
8.36967
8.25559
8.1415
8.02738
7.91323
7.79905
7.68485
7.57063
7.45638
7.34211
7.22782
7.11351
6.99917
6.88481
6.77042
6.65601
6.54158
6.42712
6.31265
6.19816
6.08365
5.96912
5.85457
5.73999
5.6254
5.51079
5.39617
5.28154
5.16689
5.05224
4.93758
4.82289
4.7082
4.5935
4.4788
4.36411
4.24944
4.13477
4.02011
3.90544
3.79078
3.67614
3.56154
3.447
3.33252
3.21807
3.10366
2.98926
2.8749
2.76062
2.64644
2.53239
2.41843
2.30453
2.19068
2.07687
1.96317
1.84961
1.73624
1.62307
1.51015
1.39764
1.28587
-2475.3
-2320.2
-272.647
370.662
214.607
33.6125
-6.91305
12.9808
28.9082
31.2473
28.9483
27.5074
27.3325
27.4892
27.5226
27.438
27.3287
27.231
27.1411
27.0504
26.9563
26.8597
26.7616
26.6623
26.562
26.4606
26.3582
26.255
26.1511
26.0465
25.9413
25.8356
25.7293
25.6227
25.5157
25.4083
25.3006
25.1927
25.0845
24.976
24.8674
24.7586
24.6496
24.5404
24.4311
24.3217
24.2122
24.1026
23.9928
23.883
23.7731
23.6631
23.5531
23.4429
23.3327
23.2225
23.1121
23.0018
22.8913
22.7809
22.6703
22.5598
22.4492
22.3385
22.2278
22.1171
22.0063
21.8955
21.7846
21.6737
21.5628
21.4518
21.3408
21.2298
21.1187
21.0076
20.8964
20.7853
20.6741
20.5628
20.4516
20.3403
20.2289
20.1176
20.0062
19.8948
19.7833
19.6718
19.5603
19.4488
19.3372
19.2256
19.114
19.0023
18.8906
18.7789
18.6671
18.5554
18.4436
18.3317
18.2199
18.108
17.9961
17.8841
17.7721
17.6601
17.5481
17.436
17.3239
17.2118
17.0997
16.9875
16.8753
16.7631
16.6508
16.5386
16.4263
16.3139
16.2016
16.0892
15.9767
15.8643
15.7518
15.6393
15.5268
15.4143
15.3017
15.1891
15.0765
14.9638
14.8511
14.7384
14.6257
14.5129
14.4001
14.2873
14.1745
14.0616
13.9487
13.8358
13.7228
13.6099
13.4969
13.3838
13.2708
13.1577
13.0446
12.9315
12.8183
12.7051
12.5919
12.4787
12.3654
12.2522
12.1388
12.0255
11.9122
11.7988
11.6854
11.5719
11.4585
11.345
11.2315
11.1179
11.0044
10.8908
10.7772
10.6635
10.5498
10.4362
10.3224
10.2087
10.0949
9.98115
9.86733
9.75349
9.63962
9.52573
9.41182
9.29788
9.18391
9.06992
8.95591
8.84187
8.72781
8.61372
8.4996