/*--------------------------------*- C++ -*----------------------------------*\
| =========                 |                                                 |
| \\      /  F ield         | OpenFOAM: The Open Source CFD Toolbox           |
|  \\    /   O peration     | Version:  2406                                  |
|   \\  /    A nd           | Website:  www.openfoam.com                      |
|    \\/     M anipulation  |                                                 |
\*---------------------------------------------------------------------------*/
FoamFile
{
    version     2.0;
    format      ascii;
    arch        "LSB;label=32;scalar=64";
    class       volScalarField;
    location    "0.2";
    object      p_rgh;
}
// * * * * * * * * * * * * * * * * * * * * * * * * * * * * * * * * * * * * * //

dimensions      [1 -1 -2 0 0 0 0];

internalField   nonuniform List<scalar> 
6250
(
-2469.31
-2313.34
-268.859
372.745
216.406
35.4284
-5.24507
14.4003
30.1031
32.2722
29.8385
28.2804
28.0006
28.0643
28.0161
27.86
27.6874
27.5336
27.3938
27.2586
27.1248
26.9926
26.8626
26.7346
26.6082
26.4833
26.3596
26.2369
26.1152
25.9943
25.8741
25.7545
25.6354
25.5168
25.3987
25.2808
25.1633
25.0461
24.9291
24.8123
24.6957
24.5793
24.4629
24.3467
24.2306
24.1146
23.9986
23.8827
23.7669
23.6511
23.5353
23.4195
23.3038
23.1881
23.0724
22.9567
22.841
22.7253
22.6096
22.4938
22.3781
22.2624
22.1466
22.0309
21.9151
21.7993
21.6835
21.5676
21.4518
21.3359
21.22
21.1041
20.9882
20.8722
20.7562
20.6402
20.5241
20.4081
20.292
20.1759
20.0597
19.9436
19.8274
19.7112
19.5949
19.4787
19.3624
19.2461
19.1297
19.0133
18.8969
18.7805
18.6641
18.5476
18.4311
18.3145
18.198
18.0814
17.9648
17.8482
17.7315
17.6148
17.4981
17.3813
17.2646
17.1478
17.0309
16.9141
16.7972
16.6803
16.5634
16.4464
16.3295
16.2124
16.0954
15.9783
15.8613
15.7441
15.627
15.5098
15.3926
15.2754
15.1582
15.0409
14.9236
14.8063
14.6889
14.5715
14.4541
14.3367
14.2192
14.1018
13.9842
13.8667
13.7492
13.6316
13.5139
13.3963
13.2786
13.1609
13.0432
12.9255
12.8077
12.6899
12.5721
12.4542
12.3364
12.2185
12.1005
11.9826
11.8646
11.7466
11.6286
11.5105
11.3924
11.2743
11.1562
11.0381
10.9199
10.8017
10.6834
10.5652
10.4469
10.3286
10.2102
10.0919
9.97351
9.85509
9.73665
9.61817
9.49968
9.38117
9.26265
9.14409
9.02551
8.90689
8.78823
8.66956
8.55087
8.43216
8.31344
8.19468
8.07589
7.95706
7.83821
7.71933
7.60044
7.48153
7.36261
7.24365
7.12465
7.00562
6.88657
6.76749
6.64839
6.52928
6.41014
6.29098
6.17178
6.05255
5.93329
5.814
5.69469
5.57535
5.456
5.33663
5.21722
5.09778
4.97829
4.85877
4.73921
4.61964
4.50005
4.38044
4.2608
4.14111
4.02135
3.90153
3.78166
3.66176
3.54186
3.42194
3.30198
3.18192
3.06174
2.94144
2.82104
2.7006
2.58015
2.45964
2.33903
2.2182
2.09707
1.97568
1.85405
1.73225
1.61031
1.48804
1.36525
1.24169
1.11714
0.991519
0.86462
0.736054
0.605074
0.470354
0.329997
0.18111
0.019071
-0.163453
-2472.9
-2316.68
-270.144
372.367
216.056
34.9885
-5.64652
14.0896
29.862
32.0717
29.6654
28.1301
27.8702
27.9504
27.9157
27.7705
27.6072
27.4613
27.3283
27.199
27.0702
26.9424
26.8163
26.6917
26.5684
26.4462
26.3249
26.2044
26.0846
25.9655
25.8469
25.7288
25.6111
25.4938
25.3767
25.26
25.1435
25.0271
24.911
24.7949
24.6791
24.5633
24.4476
24.332
24.2164
24.1009
23.9854
23.87
23.7546
23.6392
23.5238
23.4084
23.293
23.1776
23.0623
22.9468
22.8314
22.716
22.6006
22.4851
22.3696
22.2541
22.1386
22.023
21.9074
21.7918
21.6762
21.5605
21.4448
21.3291
21.2134
21.0976
20.9818
20.866
20.7501
20.6343
20.5183
20.4024
20.2864
20.1704
20.0544
19.9383
19.8223
19.7061
19.59
19.4738
19.3576
19.2414
19.1251
19.0088
18.8925
18.7761
18.6598
18.5434
18.4269
18.3105
18.194
18.0774
17.9609
17.8443
17.7277
17.6111
17.4944
17.3777
17.261
17.1443
17.0275
16.9107
16.7938
16.677
16.5601
16.4432
16.3262
16.2093
16.0923
15.9753
15.8582
15.7411
15.624
15.5069
15.3897
15.2725
15.1553
15.0381
14.9208
14.8035
14.6862
14.5688
14.4515
14.3341
14.2166
14.0992
13.9817
13.8642
13.7466
13.6291
13.5115
13.3939
13.2762
13.1586
13.0409
12.9231
12.8054
12.6876
12.5698
12.452
12.3341
12.2162
12.0983
11.9804
11.8625
11.7445
11.6265
11.5084
11.3904
11.2723
11.1542
11.036
10.9179
10.7997
10.6814
10.5632
10.4449
10.3266
10.2083
10.09
9.97161
9.85321
9.73477
9.61632
9.49785
9.37935
9.26083
9.14229
9.02371
8.90511
8.78647
8.66781
8.54914
8.43044
8.31172
8.19298
8.0742
7.95539
7.83655
7.71769
7.59881
7.47991
7.36099
7.24204
7.12305
7.00404
6.885
6.76593
6.64685
6.52774
6.40862
6.28946
6.17027
6.05105
5.9318
5.81253
5.69323
5.57391
5.45457
5.3352
5.2158
5.09637
4.9769
4.85739
4.73786
4.6183
4.49872
4.37912
4.25948
4.1398
4.02006
3.90027
3.78044
3.66057
3.54069
3.42078
3.30082
3.18078
3.06064
2.9404
2.82008
2.69971
2.57931
2.45884
2.33827
2.21752
2.09653
1.97534
1.85396
1.73243
1.61078
1.48887
1.3666
1.24382
1.12046
0.996576
0.872223
0.74747
0.622408
0.497249
0.372739
0.250621
0.134517
0.0314646
-2473.28
-2317.19
-270.303
372.415
216.107
35.0055
-5.62651
14.1334
29.9234
32.1397
29.7345
28.1993
27.9393
28.0189
27.9829
27.836
27.6708
27.5229
27.3878
27.2563
27.1255
26.9957
26.8675
26.741
26.6159
26.4919
26.369
26.2469
26.1256
26.0049
25.8849
25.7655
25.6465
25.5279
25.4097
25.2918
25.1741
25.0568
24.9396
24.8226
24.7058
24.5892
24.4727
24.3562
24.2399
24.1237
24.0075
23.8914
23.7753
23.6593
23.5433
23.4273
23.3114
23.1955
23.0796
22.9637
22.8478
22.7319
22.6161
22.5002
22.3843
22.2684
22.1525
22.0366
21.9206
21.8047
21.6887
21.5728
21.4568
21.3408
21.2248
21.1087
20.9927
20.8766
20.7605
20.6444
20.5282
20.4121
20.2959
20.1797
20.0635
19.9472
19.8309
19.7146
19.5983
19.482
19.3656
19.2492
19.1328
19.0164
18.8999
18.7834
18.6669
18.5503
18.4338
18.3172
18.2006
18.0839
17.9673
17.8506
17.7339
17.6171
17.5004
17.3836
17.2668
17.1499
17.0331
16.9162
16.7993
16.6823
16.5653
16.4484
16.3313
16.2143
16.0972
15.9801
15.863
15.7459
15.6287
15.5115
15.3943
15.277
15.1597
15.0424
14.9251
14.8078
14.6904
14.573
14.4555
14.3381
14.2206
14.1031
13.9856
13.868
13.7504
13.6328
13.5152
13.3975
13.2798
13.1621
13.0444
12.9266
12.8088
12.691
12.5732
12.4553
12.3374
12.2195
12.1015
11.9836
11.8656
11.7476
11.6295
11.5114
11.3933
11.2752
11.1571
11.0389
10.9207
10.8025
10.6842
10.566
10.4477
10.3293
10.211
10.0926
9.97422
9.8558
9.73735
9.61887
9.50037
9.38185
9.2633
9.14472
9.02612
8.90749
8.78884
8.67016
8.55146
8.43274
8.31399
8.19521
8.07641
7.95758
7.83873
7.71985
7.60095
7.48203
7.36307
7.2441
7.12509
7.00606
6.88701
6.76793
6.64883
6.5297
6.41055
6.29136
6.17215
6.05292
5.93366
5.81438
5.69507
5.57574
5.45637
5.33698
5.21756
5.09811
4.97864
4.85913
4.7396
4.62004
4.50045
4.38082
4.26116
4.14147
4.02174
3.90198
3.78218
3.66233
3.54245
3.42252
3.30255
3.18252
3.06244
2.9423
2.82209
2.70182
2.58148
2.46106
2.34055
2.21994
2.09921
1.97837
1.85741
1.73632
1.61511
1.49375
1.37223
1.25057
1.12878
1.00697
0.885213
0.763687
0.642654
0.522544
0.40408
0.288347
0.176892
0.0717724
-2473.93
-2318.17
-271.083
371.832
215.616
34.5545
-6.04181
13.7599
29.5909
31.8422
29.466
27.9559
27.7181
27.8172
27.7985
27.6668
27.515
27.379
27.2546
27.1326
27.0102
26.8881
26.7668
26.6465
26.527
26.4081
26.2898
26.172
26.0545
25.9375
25.8208
25.7043
25.5881
25.4721
25.3563
25.2406
25.125
25.0096
24.8942
24.7789
24.6637
24.5486
24.4334
24.3183
24.2032
24.0881
23.9731
23.858
23.7429
23.6279
23.5128
23.3977
23.2825
23.1674
23.0522
22.9371
22.8218
22.7066
22.5913
22.476
22.3607
22.2454
22.13
22.0146
21.8991
21.7836
21.6681
21.5526
21.437
21.3214
21.2058
21.0901
20.9744
20.8587
20.7429
20.6271
20.5113
20.3954
20.2795
20.1636
20.0476
19.9317
19.8156
19.6996
19.5835
19.4674
19.3512
19.2351
19.1189
19.0026
18.8864
18.7701
18.6537
18.5374
18.421
18.3046
18.1881
18.0717
17.9552
17.8386
17.7221
17.6055
17.4888
17.3722
17.2555
17.1388
17.0221
16.9053
16.7885
16.6717
16.5548
16.438
16.3211
16.2041
16.0872
15.9702
15.8531
15.7361
15.619
15.5019
15.3848
15.2676
15.1504
15.0332
14.916
14.7987
14.6814
14.5641
14.4467
14.3294
14.212
14.0945
13.9771
13.8596
13.7421
13.6245
13.507
13.3894
13.2717
13.1541
13.0364
12.9187
12.801
12.6832
12.5654
12.4476
12.3298
12.212
12.0941
11.9761
11.8582
11.7402
11.6223
11.5042
11.3862
11.2681
11.15
11.0319
10.9137
10.7956
10.6774
10.5592
10.4409
10.3226
10.2043
10.086
9.96763
9.84925
9.73085
9.61243
9.49397
9.37548
9.25697
9.13843
9.01987
8.90128
8.78268
8.66405
8.54539
8.4267
8.30797
8.18923
8.07047
7.95169
7.83288
7.71405
7.59518
7.47628
7.35736
7.23841
7.11945
7.00046
6.88145
6.76241
6.64335
6.52425
6.40512
6.28597
6.1668
6.0476
5.92839
5.80915
5.68987
5.57057
5.45123
5.33187
5.21248
5.09308
4.97365
4.8542
4.73471
4.61519
4.49563
4.37603
4.25641
4.13676
4.0171
3.89741
3.77769
3.65791
3.53808
3.41819
3.29826
3.17832
3.05836
2.93837
2.81832
2.6982
2.57797
2.45766
2.3373
2.21691
2.09653
1.9761
1.8556
1.73497
1.61421
1.4934
1.37261
1.25193
1.13143
1.01111
0.890998
0.771223
0.652027
0.533815
0.417065
0.302275
0.189914
0.0803424
-2474.28
-2318.68
-271.448
371.603
215.455
34.4262
-6.14436
13.6851
29.5427
31.8162
29.4574
27.9612
27.7345
27.8429
27.8315
27.7057
27.5585
27.426
27.3042
27.1842
27.0633
26.942
26.8213
26.7012
26.5816
26.4625
26.3437
26.2253
26.1071
25.9893
25.8717
25.7544
25.6372
25.5203
25.4034
25.2868
25.1702
25.0538
24.9375
24.8212
24.705
24.5889
24.4729
24.3569
24.2409
24.1249
24.009
23.8931
23.7773
23.6614
23.5456
23.4297
23.3139
23.1981
23.0822
22.9664
22.8505
22.7347
22.6188
22.5029
22.3871
22.2712
22.1553
22.0393
21.9234
21.8074
21.6915
21.5755
21.4595
21.3435
21.2274
21.1114
20.9953
20.8792
20.763
20.6469
20.5307
20.4145
20.2983
20.1821
20.0658
19.9495
19.8332
19.7169
19.6006
19.4842
19.3678
19.2514
19.1349
19.0185
18.902
18.7855
18.6689
18.5524
18.4358
18.3192
18.2025
18.0859
17.9692
17.8525
17.7357
17.619
17.5022
17.3854
17.2685
17.1517
17.0348
16.9179
16.8009
16.684
16.567
16.45
16.3329
16.2159
16.0988
15.9817
15.8645
15.7474
15.6302
15.513
15.3957
15.2785
15.1612
15.0438
14.9265
14.8091
14.6917
14.5743
14.4569
14.3394
14.2219
14.1044
13.9868
13.8693
13.7517
13.634
13.5164
13.3987
13.281
13.1633
13.0455
12.9277
12.8099
12.6921
12.5743
12.4564
12.3385
12.2206
12.1026
11.9846
11.8666
11.7486
11.6305
11.5124
11.3943
11.2762
11.158
11.0398
10.9216
10.8034
10.6852
10.5669
10.4486
10.3302
10.2119
10.0935
9.97506
9.85663
9.73817
9.61969
9.50118
9.38264
9.26407
9.14548
9.02687
8.90824
8.78959
8.67091
8.55219
8.43345
8.31468
8.19589
8.07708
7.95826
7.83941
7.72053
7.60161
7.48267
7.3637
7.24471
7.1257
7.00668
6.88763
6.76855
6.64943
6.53029
6.41112
6.29194
6.17273
6.0535
5.93425
5.81497
5.69566
5.57632
5.45695
5.33755
5.21814
5.0987
4.97925
4.85977
4.74026
4.62072
4.50113
4.38151
4.26187
4.14221
4.02254
3.90286
3.78313
3.66336
3.54353
3.42365
3.30374
3.18383
3.06394
2.94402
2.82405
2.70401
2.58386
2.46366
2.34345
2.22326
2.10314
1.983
1.86282
1.74254
1.62217
1.50182
1.38162
1.26166
1.14197
1.0225
0.903224
0.784233
0.665698
0.547905
0.431066
0.315246
0.20032
0.0859161
-2474.58
-2319.14
-271.813
371.312
215.189
34.1669
-6.39412
13.4501
29.324
31.6125
29.2672
27.7831
27.5678
27.6866
27.6848
27.5678
27.4286
27.3035
27.1885
27.0746
26.9593
26.8433
26.7273
26.6116
26.4961
26.3807
26.2654
26.1502
26.035
25.92
25.805
25.69
25.5751
25.4602
25.3454
25.2306
25.1158
25.001
24.8862
24.7714
24.6566
24.5418
24.427
24.3122
24.1974
24.0825
23.9676
23.8527
23.7377
23.6228
23.5078
23.3928
23.2777
23.1626
23.0475
22.9324
22.8172
22.702
22.5868
22.4715
22.3562
22.2409
22.1255
22.0101
21.8947
21.7792
21.6637
21.5482
21.4326
21.317
21.2014
21.0857
20.97
20.8543
20.7385
20.6227
20.5069
20.391
20.2751
20.1592
20.0433
19.9273
19.8113
19.6952
19.5792
19.4631
19.3469
19.2308
19.1146
18.9983
18.8821
18.7658
18.6495
18.5331
18.4168
18.3003
18.1839
18.0674
17.951
17.8344
17.7179
17.6013
17.4847
17.368
17.2514
17.1347
17.018
16.9012
16.7844
16.6676
16.5508
16.4339
16.317
16.2001
16.0831
15.9662
15.8491
15.7321
15.615
15.498
15.3808
15.2637
15.1465
15.0293
14.9121
14.7948
14.6775
14.5602
14.4429
14.3255
14.2081
14.0907
13.9733
13.8558
13.7383
13.6208
13.5032
13.3856
13.268
13.1504
13.0327
12.915
12.7973
12.6796
12.5618
12.444
12.3262
12.2084
12.0905
11.9726
11.8547
11.7367
11.6187
11.5007
11.3827
11.2646
11.1466
11.0284
10.9103
10.7922
10.674
10.5558
10.4375
10.3192
10.201
10.0826
9.96429
9.84593
9.72754
9.60912
9.49068
9.3722
9.2537
9.13517
9.01663
8.89806
8.77947
8.66084
8.54219
8.42351
8.3048
8.18608
8.06733
7.94856
7.82977
7.71094
7.59208
7.4732
7.35429
7.23536
7.11642
6.99744
6.87845
6.75942
6.64036
6.52127
6.40216
6.28303
6.16388
6.04471
5.92551
5.80628
5.68703
5.56774
5.44844
5.3291
5.20975
5.09037
4.97097
4.85155
4.7321
4.61261
4.4931
4.37355
4.25399
4.1344
4.0148
3.89519
3.77554
3.65585
3.53611
3.41635
3.29657
3.17678
3.05699
2.93719
2.81735
2.69746
2.57751
2.45754
2.33757
2.21764
2.09776
1.97789
1.85801
1.73809
1.61815
1.4983
1.37862
1.25917
1.13996
1.02095
0.902131
0.783584
0.665435
0.547875
0.431022
0.314924
0.199612
0.0851531
-2474.81
-2319.47
-272.075
371.111
215.015
34.0069
-6.53826
13.3253
29.2188
31.5253
29.196
27.7264
27.524
27.6544
27.663
27.5551
27.4239
27.3058
27.1968
27.0882
26.9775
26.8653
26.7527
26.6398
26.5267
26.4133
26.2997
26.1858
26.0717
25.9575
25.8432
25.7287
25.6142
25.4995
25.3848
25.27
25.1551
25.0402
24.9252
24.8101
24.695
24.5799
24.4647
24.3495
24.2342
24.1189
24.0036
23.8883
23.7729
23.6574
23.542
23.4265
23.311
23.1955
23.0799
22.9643
22.8487
22.7331
22.6174
22.5017
22.386
22.2703
22.1545
22.0387
21.9229
21.807
21.6912
21.5753
21.4593
21.3434
21.2274
21.1114
20.9954
20.8794
20.7633
20.6472
20.5311
20.415
20.2988
20.1826
20.0664
19.9501
19.8339
19.7176
19.6013
19.4849
19.3686
19.2522
19.1357
19.0193
18.9028
18.7863
18.6698
18.5533
18.4367
18.3201
18.2035
18.0868
17.9701
17.8534
17.7367
17.62
17.5032
17.3864
17.2695
17.1527
17.0358
16.9189
16.802
16.685
16.568
16.451
16.334
16.2169
16.0998
15.9827
15.8656
15.7484
15.6312
15.514
15.3967
15.2795
15.1622
15.0449
14.9275
14.8101
14.6927
14.5753
14.4579
14.3404
14.2229
14.1054
13.9878
13.8702
13.7526
13.635
13.5173
13.3997
13.282
13.1642
13.0465
12.9287
12.8109
12.693
12.5752
12.4573
12.3394
12.2215
12.1035
11.9855
11.8675
11.7495
11.6314
11.5133
11.3952
11.277
11.1589
11.0407
10.9225
10.8042
10.686
10.5677
10.4494
10.331
10.2127
10.0943
9.97584
9.8574
9.73894
9.62044
9.50192
9.38338
9.26481
9.14622
9.0276
8.90896
8.7903
8.6716
8.55288
8.43414
8.31537
8.19658
8.07777
7.95893
7.84006
7.72117
7.60225
7.48331
7.36435
7.24536
7.12635
7.00731
6.88825
6.76916
6.65004
6.53091
6.41175
6.29256
6.17336
6.05412
5.93486
5.81558
5.69627
5.57694
5.45759
5.33822
5.21882
5.09939
4.97994
4.86047
4.74097
4.62145
4.50191
4.38234
4.26276
4.14314
4.02351
3.90385
3.78417
3.66448
3.54476
3.42503
3.30527
3.1855
3.06572
2.94591
2.8261
2.70628
2.58645
2.46662
2.34679
2.22698
2.10719
1.98742
1.86768
1.748
1.62837
1.50885
1.38945
1.2702
1.15111
1.0322
0.913504
0.795066
0.676923
0.559092
0.44153
0.324136
0.206736
0.0889713
-2474.99
-2319.74
-272.289
370.941
214.858
33.853
-6.68708
13.1848
29.0876
31.4027
29.081
27.6182
27.4223
27.5586
27.5727
27.4697
27.343
27.2289
27.1236
27.0184
26.9107
26.8013
26.6911
26.5805
26.4694
26.3579
26.246
26.1337
26.0211
25.9082
25.7951
25.6818
25.5683
25.4546
25.3408
25.2269
25.1128
24.9986
24.8844
24.77
24.6556
24.5411
24.4265
24.3118
24.1971
24.0824
23.9675
23.8527
23.7378
23.6228
23.5078
23.3927
23.2776
23.1625
23.0473
22.9321
22.8169
22.7016
22.5863
22.4709
22.3556
22.2401
22.1247
22.0092
21.8937
21.7782
21.6626
21.547
21.4313
21.3157
21.2
21.0842
20.9685
20.8527
20.7368
20.621
20.5051
20.3892
20.2733
20.1573
20.0413
19.9253
19.8092
19.6931
19.577
19.4609
19.3447
19.2285
19.1122
18.996
18.8797
18.7634
18.647
18.5307
18.4143
18.2978
18.1814
18.0649
17.9484
17.8318
17.7153
17.5987
17.482
17.3654
17.2487
17.132
17.0153
16.8985
16.7817
16.6649
16.548
16.4312
16.3143
16.1973
16.0804
15.9634
15.8464
15.7293
15.6123
15.4952
15.3781
15.2609
15.1437
15.0265
14.9093
14.792
14.6748
14.5575
14.4401
14.3227
14.2054
14.0879
13.9705
13.853
13.7355
13.618
13.5005
13.3829
13.2653
13.1476
13.03
12.9123
12.7946
12.6769
12.5591
12.4413
12.3235
12.2057
12.0878
11.9699
11.852
11.734
11.6161
11.4981
11.38
11.262
11.1439
11.0258
10.9077
10.7895
10.6713
10.5531
10.4349
10.3166
10.1984
10.0801
9.96172
9.84336
9.72497
9.60655
9.48812
9.36966
9.25118
9.13266
9.01412
8.89555
8.77696
8.65834
8.5397
8.42104
8.30235
8.18364
8.06489
7.94612
7.82732
7.70851
7.58967
7.4708
7.35191
7.233
7.11405
6.99508
6.87609
6.75707
6.63803
6.51897
6.39988
6.28077
6.16163
6.04246
5.92327
5.80405
5.68482
5.56556
5.44629
5.32699
5.20766
5.0883
4.96892
4.84951
4.73009
4.61065
4.4912
4.37172
4.25222
4.13269
4.01313
3.89355
3.77396
3.65437
3.53477
3.41517
3.29554
3.17588
3.05619
2.9365
2.81681
2.69716
2.57753
2.45792
2.33829
2.21865
2.09901
1.97941
1.8599
1.74049
1.6212
1.50199
1.38284
1.26375
1.14477
1.02599
0.907461
0.789215
0.671236
0.553483
0.435959
0.318755
0.202062
0.0861522
-2475.13
-2319.95
-272.452
370.811
214.739
33.7379
-6.79658
13.0841
28.9968
31.3214
29.0087
27.5546
27.3669
27.5111
27.5324
27.4363
27.3159
27.2077
27.1077
27.0073
26.904
26.7986
26.6921
26.5847
26.4766
26.3677
26.2581
26.1479
26.0371
25.9259
25.8143
25.7022
25.5899
25.4772
25.3643
25.2511
25.1377
25.0241
24.9103
24.7964
24.6823
24.5681
24.4537
24.3393
24.2247
24.1101
23.9954
23.8805
23.7657
23.6507
23.5357
23.4206
23.3055
23.1903
23.0751
22.9598
22.8444
22.7291
22.6136
22.4982
22.3827
22.2671
22.1516
22.036
21.9203
21.8046
21.6889
21.5732
21.4574
21.3416
21.2257
21.1099
20.994
20.878
20.7621
20.6461
20.53
20.414
20.2979
20.1818
20.0656
19.9495
19.8333
19.717
19.6008
19.4845
19.3682
19.2519
19.1355
19.0191
18.9027
18.7862
18.6697
18.5532
18.4367
18.3201
18.2035
18.0869
17.9703
17.8536
17.7369
17.6202
17.5034
17.3867
17.2698
17.153
17.0362
16.9193
16.8024
16.6854
16.5684
16.4515
16.3344
16.2174
16.1003
15.9832
15.8661
15.7489
15.6317
15.5145
15.3973
15.28
15.1628
15.0454
14.9281
14.8107
14.6933
14.5759
14.4585
14.341
14.2235
14.106
13.9884
13.8709
13.7533
13.6356
13.518
13.4003
13.2826
13.1649
13.0471
12.9293
12.8115
12.6937
12.5758
12.4579
12.34
12.2221
12.1041
11.9862
11.8681
11.7501
11.632
11.5139
11.3958
11.2777
11.1595
11.0413
10.9231
10.8049
10.6866
10.5683
10.45
10.3316
10.2133
10.0949
9.97645
9.858
9.73952
9.62103
9.50251
9.38397
9.2654
9.14681
9.02818
8.90953
8.79085
8.67216
8.55344
8.4347
8.31594
8.19714
8.07831
7.95946
7.84059
7.7217
7.60278
7.48385
7.36489
7.24589
7.12687
7.00783
6.88876
6.76967
6.65056
6.53143
6.41228
6.29309
6.17388
6.05464
5.93538
5.81611
5.69681
5.57749
5.45815
5.33879
5.2194
5.09998
4.98054
4.86108
4.7416
4.62211
4.50261
4.38309
4.26354
4.14397
4.02436
3.90474
3.78512
3.66551
3.5459
3.42628
3.30663
3.18696
3.06726
2.94756
2.82789
2.70827
2.58869
2.46912
2.34954
2.22994
2.11033
1.99079
1.87136
1.75205
1.63287
1.51374
1.39462
1.27554
1.15655
1.03774
0.919177
0.800828
0.682619
0.564431
0.446193
0.327857
0.20931
0.0901868
-2475.23
-2320.1
-272.574
370.713
214.648
33.6481
-6.88382
13.0017
28.92
31.2499
28.942
27.4924
27.3089
27.4569
27.4819
27.389
27.2715
27.1658
27.0682
26.9698
26.8683
26.7645
26.6593
26.5531
26.446
26.338
26.2291
26.1195
26.0093
25.8985
25.7872
25.6755
25.5634
25.4509
25.3381
25.2251
25.1118
24.9982
24.8845
24.7706
24.6565
24.5423
24.428
24.3135
24.199
24.0843
23.9696
23.8547
23.7398
23.6249
23.5098
23.3948
23.2796
23.1644
23.0492
22.9339
22.8186
22.7032
22.5878
22.4723
22.3569
22.2413
22.1258
22.0102
21.8946
21.7789
21.6633
21.5476
21.4318
21.3161
21.2003
21.0845
20.9686
20.8527
20.7368
20.6209
20.5049
20.389
20.2729
20.1569
20.0408
19.9247
19.8086
19.6925
19.5763
19.4601
19.3439
19.2276
19.1114
18.995
18.8787
18.7624
18.646
18.5296
18.4131
18.2966
18.1802
18.0636
17.9471
17.8305
17.7139
17.5973
17.4806
17.364
17.2473
17.1305
17.0138
16.897
16.7802
16.6633
16.5465
16.4296
16.3127
16.1957
16.0787
15.9617
15.8447
15.7277
15.6106
15.4935
15.3764
15.2592
15.142
15.0248
14.9076
14.7903
14.673
14.5557
14.4384
14.321
14.2036
14.0862
13.9687
13.8513
13.7338
13.6162
13.4987
13.3811
13.2635
13.1459
13.0282
12.9105
12.7928
12.6751
12.5573
12.4395
12.3217
12.2039
12.086
11.9681
11.8502
11.7323
11.6143
11.4963
11.3783
11.2602
11.1421
11.024
10.9059
10.7878
10.6696
10.5514
10.4332
10.3149
10.1966
10.0783
9.95999
9.84163
9.72325
9.60484
9.48641
9.36795
9.24947
9.13096
9.01242
8.89386
8.77527
8.65666
8.53803
8.41937
8.30069
8.18198
8.06323
7.94447
7.82568
7.70687
7.58804
7.46918
7.3503
7.23138
7.11244
6.99348
6.87449
6.75549
6.63646
6.51741
6.39833
6.27922
6.16009
6.04093
5.92175
5.80256
5.68334
5.5641
5.44483
5.32555
5.20623
5.0869
4.96754
4.84817
4.72877
4.60937
4.48994
4.3705
4.25104
4.13155
4.01205
3.89253
3.773
3.65348
3.53396
3.41443
3.29489
3.17533
3.05576
2.93619
2.81666
2.69715
2.57769
2.45824
2.33879
2.21934
2.09991
1.98054
1.86128
1.74212
1.62305
1.50403
1.38504
1.2661
1.14725
1.02857
0.9101
0.791792
0.673616
0.555536
0.437599
0.319942
0.202778
0.0864123
-2475.3
-2320.2
-272.659
370.645
214.586
33.5861
-6.94429
12.9447
28.8674
31.2016
28.8978
27.4521
27.2725
27.4243
27.4529
27.3635
27.2494
27.1469
27.0522
26.9566
26.8577
26.7563
26.6534
26.5494
26.4442
26.338
26.2309
26.1229
26.0141
25.9047
25.7947
25.6841
25.5731
25.4617
25.3498
25.2377
25.1252
25.0124
24.8994
24.7862
24.6727
24.5591
24.4453
24.3313
24.2172
24.103
23.9887
23.8742
23.7597
23.6451
23.5304
23.4156
23.3007
23.1858
23.0707
22.9557
22.8406
22.7254
22.6101
22.4949
22.3795
22.2642
22.1487
22.0333
21.9178
21.8022
21.6866
21.571
21.4553
21.3396
21.2239
21.1081
20.9923
20.8765
20.7606
20.6447
20.5287
20.4127
20.2967
20.1807
20.0646
19.9485
19.8324
19.7162
19.6
19.4838
19.3675
19.2512
19.1349
19.0186
18.9022
18.7858
18.6693
18.5529
18.4364
18.3198
18.2033
18.0867
17.9701
17.8534
17.7368
17.6201
17.5033
17.3866
17.2698
17.153
17.0362
16.9193
16.8024
16.6855
16.5685
16.4515
16.3345
16.2175
16.1004
15.9834
15.8662
15.7491
15.6319
15.5147
15.3975
15.2803
15.163
15.0457
14.9284
14.811
14.6936
14.5762
14.4588
14.3413
14.2238
14.1063
13.9888
13.8712
13.7536
13.636
13.5183
13.4006
13.2829
13.1652
13.0475
12.9297
12.8119
12.694
12.5762
12.4583
12.3404
12.2225
12.1045
11.9865
11.8685
11.7505
11.6324
11.5143
11.3962
11.278
11.1599
11.0417
10.9235
10.8052
10.6869
10.5687
10.4503
10.332
10.2136
10.0952
9.9768
9.85835
9.73988
9.62139
9.50287
9.38432
9.26575
9.14715
9.02852
8.90988
8.7912
8.67251
8.55379
8.43504
8.31627
8.19747
8.07865
7.9598
7.84093
7.72204
7.60312
7.48418
7.36521
7.24622
7.1272
7.00816
6.88909
6.77001
6.6509
6.53176
6.4126
6.29342
6.17421
6.05498
5.93573
5.81646
5.69717
5.57785
5.45851
5.33915
5.21977
5.10037
4.98095
4.86151
4.74205
4.62257
4.50308
4.38356
4.26404
4.1445
4.02495
3.90539
3.78582
3.66624
3.54666
3.42707
3.30748
3.18789
3.06831
2.94874
2.82918
2.70964
2.59012
2.47062
2.35116
2.23173
2.11234
1.993
1.87373
1.75452
1.63538
1.5163
1.39729
1.27838
1.15955
1.04083
0.922207
0.803653
0.685148
0.566658
0.448136
0.329488
0.210506
0.0907642
-2475.34
-2320.27
-272.71
370.605
214.549
33.5493
-6.98064
12.9102
28.8352
31.1717
28.8699
27.4261
27.2483
27.4019
27.4321
27.3442
27.2313
27.1299
27.0363
26.9416
26.8434
26.7426
26.6402
26.5365
26.4317
26.3256
26.2186
26.1106
26.0018
25.8923
25.7822
25.6714
25.5602
25.4485
25.3364
25.2239
25.1111
24.998
24.8846
24.771
24.6572
24.5432
24.429
24.3147
24.2003
24.0857
23.971
23.8562
23.7414
23.6264
23.5114
23.3963
23.2811
23.1659
23.0506
22.9353
22.8199
22.7045
22.589
22.4735
22.358
22.2424
22.1268
22.0112
21.8955
21.7798
21.6641
21.5483
21.4325
21.3167
21.2008
21.085
20.9691
20.8531
20.7372
20.6212
20.5052
20.3892
20.2731
20.157
20.0409
19.9248
19.8086
19.6924
19.5762
19.46
19.3437
19.2274
19.1111
18.9948
18.8784
18.762
18.6456
18.5292
18.4127
18.2962
18.1797
18.0632
17.9466
17.83
17.7134
17.5968
17.4801
17.3634
17.2467
17.1299
17.0132
16.8964
16.7795
16.6627
16.5458
16.4289
16.312
16.195
16.078
15.961
15.844
15.7269
15.6098
15.4927
15.3756
15.2584
15.1412
15.024
14.9068
14.7895
14.6722
14.5549
14.4376
14.3202
14.2028
14.0854
13.9679
13.8504
13.7329
13.6154
13.4978
13.3803
13.2627
13.145
13.0274
12.9097
12.792
12.6742
12.5565
12.4387
12.3209
12.203
12.0852
11.9673
11.8493
11.7314
11.6134
11.4954
11.3774
11.2594
11.1413
11.0232
10.9051
10.7869
10.6687
10.5505
10.4323
10.3141
10.1958
10.0775
9.95915
9.8408
9.72242
9.60401
9.48558
9.36712
9.24863
9.13013
9.0116
8.89304
8.77446
8.65585
8.53721
8.41855
8.29986
8.18116
8.06242
7.94367
7.82489
7.70608
7.58724
7.46838
7.34949
7.23059
7.11166
6.9927
6.87373
6.75472
6.63569
6.51663
6.39755
6.27845
6.15933
6.04019
5.92102
5.80183
5.68262
5.56338
5.44411
5.32483
5.20553
5.08622
4.96688
4.84753
4.72815
4.60875
4.48933
4.36989
4.25045
4.131
4.01155
3.89208
3.77259
3.65309
3.53358
3.41406
3.29457
3.17509
3.05562
2.93616
2.81669
2.69722
2.57777
2.45835
2.33899
2.2197
2.10045
1.98124
1.86205
1.74289
1.62379
1.50479
1.38591
1.26714
1.14845
1.02982
0.911235
0.792718
0.674322
0.556105
0.438116
0.320409
0.203123
0.0865574
-2475.36
-2320.29
-272.728
370.592
214.537
33.5372
-6.99264
12.8988
28.8247
31.162
28.861
27.4179
27.2409
27.3953
27.4263
27.3391
27.227
27.1264
27.0335
26.9396
26.8421
26.7421
26.6404
26.5375
26.4333
26.328
26.2217
26.1144
26.0063
25.8975
25.788
25.678
25.5674
25.4564
25.3449
25.2331
25.1209
25.0084
24.8956
24.7826
24.6694
24.5559
24.4423
24.3285
24.2146
24.1005
23.9863
23.872
23.7576
23.6431
23.5284
23.4137
23.299
23.1841
23.0692
22.9542
22.8391
22.724
22.6089
22.4936
22.3784
22.263
22.1477
22.0323
21.9168
21.8013
21.6858
21.5702
21.4545
21.3389
21.2232
21.1074
20.9917
20.8758
20.76
20.6441
20.5282
20.4122
20.2963
20.1802
20.0642
19.9481
19.832
19.7158
19.5997
19.4835
19.3672
19.2509
19.1346
19.0183
18.9019
18.7856
18.6691
18.5527
18.4362
18.3197
18.2031
18.0866
17.97
17.8533
17.7367
17.62
17.5033
17.3865
17.2697
17.1529
17.0361
16.9192
16.8024
16.6854
16.5685
16.4515
16.3345
16.2175
16.1005
15.9834
15.8663
15.7491
15.632
15.5148
15.3976
15.2803
15.163
15.0457
14.9284
14.8111
14.6937
14.5763
14.4588
14.3414
14.2239
14.1064
13.9888
13.8713
13.7537
13.636
13.5184
13.4007
13.283
13.1653
13.0475
12.9298
12.812
12.6941
12.5763
12.4584
12.3405
12.2225
12.1046
11.9866
11.8686
11.7506
11.6325
11.5144
11.3963
11.2781
11.16
11.0418
10.9236
10.8053
10.6871
10.5688
10.4504
10.3321
10.2137
10.0953
9.9769
9.85846
9.73999
9.62149
9.50296
9.38441
9.26584
9.14724
9.02863
8.90998
8.79131
8.67261
8.55388
8.43513
8.31636
8.19757
8.07875
7.95991
7.84104
7.72214
7.60322
7.48427
7.3653
7.24631
7.1273
7.00826
6.8892
6.77011
6.65099
6.53186
6.4127
6.29352
6.17432
6.05509
5.93585
5.81657
5.69728
5.57796
5.45862
5.33926
5.21988
5.10049
4.98108
4.86165
4.74219
4.62272
4.50322
4.38371
4.2642
4.14468
4.02516
3.90562
3.78606
3.66649
3.5469
3.42732
3.30776
3.18822
3.0687
2.94917
2.82963
2.7101
2.59057
2.4711
2.35169
2.23235
2.11306
1.99379
1.87452
1.75529
1.63612
1.51706
1.39814
1.27932
1.16057
1.04183
0.923096
0.804398
0.685772
0.567218
0.44866
0.32993
0.210797
0.0908719
-2475.34
-2320.27
-272.71
370.605
214.549
33.5493
-6.98064
12.9102
28.8352
31.1717
28.8699
27.4261
27.2483
27.4019
27.4321
27.3442
27.2313
27.1299
27.0363
26.9416
26.8434
26.7426
26.6402
26.5365
26.4317
26.3256
26.2186
26.1106
26.0018
25.8923
25.7822
25.6714
25.5602
25.4485
25.3364
25.2239
25.1111
24.998
24.8846
24.771
24.6572
24.5432
24.429
24.3147
24.2003
24.0857
23.971
23.8562
23.7414
23.6264
23.5114
23.3963
23.2811
23.1659
23.0506
22.9353
22.8199
22.7045
22.589
22.4735
22.358
22.2424
22.1268
22.0112
21.8955
21.7798
21.6641
21.5483
21.4325
21.3167
21.2008
21.085
20.9691
20.8531
20.7372
20.6212
20.5052
20.3892
20.2731
20.157
20.0409
19.9248
19.8086
19.6924
19.5762
19.46
19.3437
19.2274
19.1111
18.9948
18.8784
18.762
18.6456
18.5292
18.4127
18.2962
18.1797
18.0632
17.9466
17.83
17.7134
17.5968
17.4801
17.3634
17.2467
17.1299
17.0132
16.8964
16.7795
16.6627
16.5458
16.4289
16.312
16.195
16.078
15.961
15.844
15.7269
15.6098
15.4927
15.3756
15.2584
15.1412
15.024
14.9068
14.7895
14.6722
14.5549
14.4376
14.3202
14.2028
14.0854
13.9679
13.8504
13.7329
13.6154
13.4978
13.3803
13.2627
13.145
13.0274
12.9097
12.792
12.6742
12.5565
12.4387
12.3209
12.203
12.0852
11.9673
11.8493
11.7314
11.6134
11.4954
11.3774
11.2594
11.1413
11.0232
10.9051
10.7869
10.6687
10.5505
10.4323
10.3141
10.1958
10.0775
9.95915
9.8408
9.72242
9.60401
9.48558
9.36712
9.24863
9.13013
9.0116
8.89304
8.77446
8.65585
8.53721
8.41855
8.29986
8.18116
8.06243
7.94367
7.82489
7.70607
7.58724
7.46838
7.34949
7.23059
7.11166
6.99271
6.87372
6.75472
6.63568
6.51663
6.39755
6.27846
6.15934
6.04019
5.92102
5.80183
5.68261
5.56337
5.44411
5.32483
5.20554
5.08622
4.96688
4.84752
4.72814
4.60874
4.48933
4.3699
4.25046
4.13101
4.01155
3.89208
3.77259
3.65308
3.53358
3.41407
3.29458
3.17509
3.05562
2.93615
2.81668
2.69721
2.57777
2.45836
2.33901
2.21972
2.10047
1.98124
1.86204
1.74288
1.62379
1.5048
1.38594
1.26717
1.14847
1.02981
0.911199
0.792689
0.674325
0.556143
0.438168
0.320442
0.203128
0.086553
-2475.3
-2320.2
-272.659
370.645
214.586
33.5861
-6.94429
12.9447
28.8674
31.2016
28.8978
27.4521
27.2725
27.4243
27.4529
27.3635
27.2494
27.1469
27.0522
26.9566
26.8577
26.7563
26.6534
26.5494
26.4442
26.338
26.2309
26.1229
26.0141
25.9047
25.7947
25.6841
25.5731
25.4617
25.3498
25.2377
25.1252
25.0124
24.8994
24.7862
24.6727
24.5591
24.4453
24.3313
24.2172
24.103
23.9887
23.8742
23.7597
23.6451
23.5304
23.4156
23.3007
23.1858
23.0707
22.9557
22.8406
22.7254
22.6101
22.4949
22.3795
22.2642
22.1487
22.0333
21.9178
21.8022
21.6866
21.571
21.4553
21.3396
21.2239
21.1081
20.9923
20.8765
20.7606
20.6447
20.5287
20.4127
20.2967
20.1807
20.0646
19.9485
19.8324
19.7162
19.6
19.4838
19.3675
19.2512
19.1349
19.0186
18.9022
18.7858
18.6693
18.5529
18.4364
18.3198
18.2033
18.0867
17.9701
17.8534
17.7368
17.6201
17.5033
17.3866
17.2698
17.153
17.0362
16.9193
16.8024
16.6855
16.5685
16.4515
16.3345
16.2175
16.1004
15.9834
15.8662
15.7491
15.6319
15.5147
15.3975
15.2803
15.163
15.0457
14.9284
14.811
14.6936
14.5762
14.4588
14.3413
14.2238
14.1063
13.9888
13.8712
13.7536
13.636
13.5183
13.4006
13.2829
13.1652
13.0475
12.9297
12.8119
12.694
12.5762
12.4583
12.3404
12.2225
12.1045
11.9865
11.8685
11.7505
11.6324
11.5143
11.3962
11.278
11.1599
11.0417
10.9235
10.8052
10.687
10.5687
10.4503
10.332
10.2136
10.0952