/*--------------------------------*- C++ -*----------------------------------*\
| =========                 |                                                 |
| \\      /  F ield         | OpenFOAM: The Open Source CFD Toolbox           |
|  \\    /   O peration     | Version:  2406                                  |
|   \\  /    A nd           | Website:  www.openfoam.com                      |
|    \\/     M anipulation  |                                                 |
\*---------------------------------------------------------------------------*/
FoamFile
{
    version     2.0;
    format      ascii;
    arch        "LSB;label=32;scalar=64";
    class       surfaceScalarField;
    location    "0.2";
    object      phi;
}
// * * * * * * * * * * * * * * * * * * * * * * * * * * * * * * * * * * * * * //

dimensions      [0 3 -1 0 0 0 0];

oriented        oriented;

internalField   nonuniform List<scalar> 
12225
(
5.08767e-05
6.96731e-09
5.08659e-05
1.08007e-08
5.08553e-05
1.05631e-08
5.08451e-05
1.0209e-08
5.08344e-05
1.06978e-08
5.0823e-05
1.13752e-08
5.08112e-05
1.18327e-08
5.07991e-05
1.21026e-08
5.07868e-05
1.22969e-08
5.07743e-05
1.24645e-08
5.07617e-05
1.26085e-08
5.0749e-05
1.27268e-08
5.07362e-05
1.28225e-08
5.07233e-05
1.2901e-08
5.07103e-05
1.29663e-08
5.06973e-05
1.3021e-08
5.06842e-05
1.30671e-08
5.06711e-05
1.31059e-08
5.0658e-05
1.31387e-08
5.06448e-05
1.31665e-08
5.06316e-05
1.31901e-08
5.06184e-05
1.32101e-08
5.06052e-05
1.32271e-08
5.0592e-05
1.32415e-08
5.05787e-05
1.32536e-08
5.05654e-05
1.32639e-08
5.05522e-05
1.32726e-08
5.05389e-05
1.32798e-08
5.05256e-05
1.32858e-08
5.05123e-05
1.32907e-08
5.0499e-05
1.32947e-08
5.04857e-05
1.32979e-08
5.04724e-05
1.33004e-08
5.04591e-05
1.33023e-08
5.04458e-05
1.33036e-08
5.04325e-05
1.33044e-08
5.04192e-05
1.33048e-08
5.04059e-05
1.33049e-08
5.03926e-05
1.33046e-08
5.03793e-05
1.33041e-08
5.0366e-05
1.33033e-08
5.03527e-05
1.33023e-08
5.03394e-05
1.3301e-08
5.03261e-05
1.32997e-08
5.03128e-05
1.32981e-08
5.02995e-05
1.32965e-08
5.02862e-05
1.32947e-08
5.02729e-05
1.32928e-08
5.02596e-05
1.32908e-08
5.02463e-05
1.32887e-08
5.0233e-05
1.32866e-08
5.02197e-05
1.32844e-08
5.02065e-05
1.32821e-08
5.01932e-05
1.32798e-08
5.01799e-05
1.32775e-08
5.01666e-05
1.32751e-08
5.01534e-05
1.32727e-08
5.01401e-05
1.32702e-08
5.01268e-05
1.32677e-08
5.01136e-05
1.32652e-08
5.01003e-05
1.32627e-08
5.0087e-05
1.32602e-08
5.00738e-05
1.32576e-08
5.00605e-05
1.3255e-08
5.00473e-05
1.32525e-08
5.0034e-05
1.32499e-08
5.00208e-05
1.32472e-08
5.00075e-05
1.32446e-08
4.99943e-05
1.3242e-08
4.9981e-05
1.32394e-08
4.99678e-05
1.32367e-08
4.99546e-05
1.32341e-08
4.99413e-05
1.32314e-08
4.99281e-05
1.32288e-08
4.99149e-05
1.32261e-08
4.99017e-05
1.32235e-08
4.98884e-05
1.32208e-08
4.98752e-05
1.32181e-08
4.9862e-05
1.32155e-08
4.98488e-05
1.32128e-08
4.98356e-05
1.32101e-08
4.98224e-05
1.32074e-08
4.98092e-05
1.32047e-08
4.9796e-05
1.32021e-08
4.97828e-05
1.31994e-08
4.97696e-05
1.31967e-08
4.97564e-05
1.3194e-08
4.97432e-05
1.31913e-08
4.973e-05
1.31886e-08
4.97168e-05
1.3186e-08
4.97036e-05
1.31833e-08
4.96905e-05
1.31806e-08
4.96773e-05
1.31779e-08
4.96641e-05
1.31752e-08
4.96509e-05
1.31725e-08
4.96378e-05
1.31698e-08
4.96246e-05
1.31671e-08
4.96114e-05
1.31645e-08
4.95983e-05
1.31618e-08
4.95851e-05
1.31591e-08
4.95719e-05
1.31564e-08
4.95588e-05
1.31537e-08
4.95456e-05
1.3151e-08
4.95325e-05
1.31483e-08
4.95194e-05
1.31456e-08
4.95062e-05
1.31429e-08
4.94931e-05
1.31402e-08
4.94799e-05
1.31375e-08
4.94668e-05
1.31348e-08
4.94537e-05
1.31322e-08
4.94405e-05
1.31295e-08
4.94274e-05
1.31268e-08
4.94143e-05
1.31241e-08
4.94012e-05
1.31214e-08
4.9388e-05
1.31187e-08
4.93749e-05
1.3116e-08
4.93618e-05
1.31133e-08
4.93487e-05
1.31106e-08
4.93356e-05
1.31079e-08
4.93225e-05
1.31052e-08
4.93094e-05
1.31025e-08
4.92963e-05
1.30998e-08
4.92832e-05
1.30972e-08
4.92701e-05
1.30945e-08
4.9257e-05
1.30918e-08
4.92439e-05
1.30891e-08
4.92308e-05
1.30864e-08
4.92177e-05
1.30837e-08
4.92047e-05
1.3081e-08
4.91916e-05
1.30783e-08
4.91785e-05
1.30756e-08
4.91654e-05
1.30729e-08
4.91524e-05
1.30702e-08
4.91393e-05
1.30675e-08
4.91262e-05
1.30648e-08
4.91132e-05
1.30621e-08
4.91001e-05
1.30595e-08
4.90871e-05
1.30568e-08
4.9074e-05
1.30541e-08
4.9061e-05
1.30514e-08
4.90479e-05
1.30487e-08
4.90349e-05
1.3046e-08
4.90218e-05
1.30433e-08
4.90088e-05
1.30406e-08
4.89957e-05
1.30379e-08
4.89827e-05
1.30352e-08
4.89697e-05
1.30325e-08
4.89566e-05
1.30298e-08
4.89436e-05
1.30271e-08
4.89306e-05
1.30244e-08
4.89176e-05
1.30218e-08
4.89045e-05
1.30191e-08
4.88915e-05
1.30164e-08
4.88785e-05
1.30137e-08
4.88655e-05
1.3011e-08
4.88525e-05
1.30083e-08
4.88395e-05
1.30056e-08
4.88265e-05
1.30029e-08
4.88135e-05
1.30002e-08
4.88005e-05
1.29975e-08
4.87875e-05
1.29948e-08
4.87745e-05
1.29921e-08
4.87615e-05
1.29894e-08
4.87485e-05
1.29868e-08
4.87355e-05
1.29841e-08
4.87226e-05
1.29814e-08
4.87096e-05
1.29787e-08
4.86966e-05
1.2976e-08
4.86836e-05
1.29733e-08
4.86707e-05
1.29706e-08
4.86577e-05
1.29679e-08
4.86447e-05
1.29652e-08
4.86318e-05
1.29625e-08
4.86188e-05
1.29598e-08
4.86058e-05
1.29571e-08
4.85929e-05
1.29544e-08
4.85799e-05
1.29518e-08
4.8567e-05
1.29491e-08
4.8554e-05
1.29464e-08
4.85411e-05
1.29437e-08
4.85282e-05
1.2941e-08
4.85152e-05
1.29383e-08
4.85023e-05
1.29356e-08
4.84894e-05
1.29329e-08
4.84764e-05
1.29302e-08
4.84635e-05
1.29275e-08
4.84506e-05
1.29248e-08
4.84377e-05
1.29221e-08
4.84247e-05
1.29194e-08
4.84118e-05
1.29167e-08
4.83989e-05
1.2914e-08
4.8386e-05
1.29113e-08
4.83731e-05
1.29086e-08
4.83602e-05
1.29059e-08
4.83473e-05
1.29032e-08
4.83344e-05
1.29005e-08
4.83215e-05
1.28978e-08
4.83086e-05
1.28951e-08
4.82957e-05
1.28924e-08
4.82828e-05
1.28897e-08
4.82699e-05
1.2887e-08
4.8257e-05
1.28842e-08
4.82441e-05
1.28815e-08
4.82313e-05
1.28788e-08
4.82184e-05
1.28761e-08
4.82055e-05
1.28733e-08
4.81926e-05
1.28706e-08
4.81798e-05
1.28678e-08
4.81669e-05
1.28651e-08
4.8154e-05
1.28623e-08
4.81412e-05
1.28596e-08
4.81283e-05
1.28568e-08
4.81155e-05
1.2854e-08
4.81026e-05
1.28512e-08
4.80898e-05
1.28483e-08
4.80769e-05
1.28455e-08
4.80641e-05
1.28426e-08
4.80513e-05
1.28397e-08
4.80384e-05
1.28368e-08
4.80256e-05
1.28338e-08
4.80128e-05
1.28308e-08
4.79999e-05
1.28278e-08
4.79871e-05
1.28247e-08
4.79743e-05
1.28216e-08
4.79615e-05
1.28184e-08
4.79486e-05
1.28151e-08
4.79358e-05
1.28116e-08
4.7923e-05
1.28081e-08
4.79102e-05
1.28044e-08
4.78974e-05
1.28006e-08
4.78846e-05
1.27966e-08
4.78718e-05
1.27924e-08
4.7859e-05
1.27878e-08
4.78463e-05
1.27829e-08
4.78335e-05
1.27774e-08
4.78207e-05
1.27713e-08
4.78079e-05
1.27645e-08
4.77952e-05
1.27566e-08
4.77824e-05
1.27474e-08
4.77697e-05
1.27363e-08
4.7757e-05
1.27225e-08
4.77443e-05
1.27049e-08
4.77316e-05
1.26817e-08
4.77189e-05
1.26501e-08
4.77063e-05
1.26056e-08
4.76938e-05
1.2541e-08
4.76814e-05
1.24439e-08
4.76691e-05
1.22935e-08
4.7657e-05
1.20542e-08
1.16671e-08
5.0907e-05
2.1096e-09
5.09125e-05
5.24171e-09
5.09158e-05
7.25582e-09
5.09179e-05
8.11706e-09
5.092e-05
8.64486e-09
5.09222e-05
9.19959e-09
5.09243e-05
9.73074e-09
5.09262e-05
1.01573e-08
5.0928e-05
1.04863e-08
5.09297e-05
1.07526e-08
5.09314e-05
1.09772e-08
5.09329e-05
1.11678e-08
5.09344e-05
1.13287e-08
5.09359e-05
1.14647e-08
5.09372e-05
1.15805e-08
5.09386e-05
1.16798e-08
5.09399e-05
1.17653e-08
5.09412e-05
1.18392e-08
5.09424e-05
1.19032e-08
5.09436e-05
1.1959e-08
5.09448e-05
1.20077e-08
5.09459e-05
1.20504e-08
5.09471e-05
1.20879e-08
5.09482e-05
1.21209e-08
5.09493e-05
1.21501e-08
5.09504e-05
1.21759e-08
5.09515e-05
1.21989e-08
5.09525e-05
1.22193e-08
5.09536e-05
1.22376e-08
5.09546e-05
1.22539e-08
5.09556e-05
1.22686e-08
5.09567e-05
1.22819e-08
5.09577e-05
1.22938e-08
5.09587e-05
1.23047e-08
5.09596e-05
1.23145e-08
5.09606e-05
1.23235e-08
5.09616e-05
1.23318e-08
5.09626e-05
1.23394e-08
5.09635e-05
1.23464e-08
5.09645e-05
1.23528e-08
5.09654e-05
1.23589e-08
5.09664e-05
1.23645e-08
5.09673e-05
1.23697e-08
5.09682e-05
1.23747e-08
5.09691e-05
1.23794e-08
5.097e-05
1.23838e-08
5.09709e-05
1.2388e-08
5.09719e-05
1.23921e-08
5.09727e-05
1.23959e-08
5.09736e-05
1.23996e-08
5.09745e-05
1.24032e-08
5.09754e-05
1.24067e-08
5.09763e-05
1.241e-08
5.09771e-05
1.24133e-08
5.0978e-05
1.24165e-08
5.09789e-05
1.24196e-08
5.09797e-05
1.24227e-08
5.09805e-05
1.24257e-08
5.09814e-05
1.24286e-08
5.09822e-05
1.24315e-08
5.0983e-05
1.24344e-08
5.09839e-05
1.24372e-08
5.09847e-05
1.244e-08
5.09855e-05
1.24427e-08
5.09863e-05
1.24455e-08
5.09871e-05
1.24482e-08
5.09879e-05
1.24508e-08
5.09887e-05
1.24535e-08
5.09895e-05
1.24562e-08
5.09903e-05
1.24588e-08
5.0991e-05
1.24614e-08
5.09918e-05
1.2464e-08
5.09926e-05
1.24666e-08
5.09933e-05
1.24692e-08
5.09941e-05
1.24717e-08
5.09948e-05
1.24743e-08
5.09956e-05
1.24768e-08
5.09963e-05
1.24794e-08
5.09971e-05
1.24819e-08
5.09978e-05
1.24844e-08
5.09985e-05
1.24869e-08
5.09992e-05
1.24894e-08
5.09999e-05
1.24919e-08
5.10006e-05
1.24944e-08
5.10013e-05
1.24969e-08
5.1002e-05
1.24994e-08
5.10027e-05
1.25019e-08
5.10034e-05
1.25043e-08
5.10041e-05
1.25068e-08
5.10048e-05
1.25092e-08
5.10055e-05
1.25117e-08
5.10061e-05
1.25141e-08
5.10068e-05
1.25166e-08
5.10074e-05
1.2519e-08
5.10081e-05
1.25214e-08
5.10087e-05
1.25239e-08
5.10094e-05
1.25263e-08
5.101e-05
1.25287e-08
5.10106e-05
1.25311e-08
5.10113e-05
1.25335e-08
5.10119e-05
1.25359e-08
5.10125e-05
1.25383e-08
5.10131e-05
1.25407e-08
5.10137e-05
1.2543e-08
5.10143e-05
1.25454e-08
5.10149e-05
1.25478e-08
5.10155e-05
1.25502e-08
5.10161e-05
1.25525e-08
5.10167e-05
1.25549e-08
5.10172e-05
1.25572e-08
5.10178e-05
1.25596e-08
5.10184e-05
1.25619e-08
5.10189e-05
1.25642e-08
5.10195e-05
1.25666e-08
5.102e-05
1.25689e-08
5.10206e-05
1.25712e-08
5.10211e-05
1.25735e-08
5.10217e-05
1.25758e-08
5.10222e-05
1.25782e-08
5.10227e-05
1.25805e-08
5.10232e-05
1.25828e-08
5.10237e-05
1.2585e-08
5.10243e-05
1.25873e-08
5.10248e-05
1.25896e-08
5.10253e-05
1.25919e-08
5.10258e-05
1.25942e-08
5.10262e-05
1.25964e-08
5.10267e-05
1.25987e-08
5.10272e-05
1.26009e-08
5.10277e-05
1.26032e-08
5.10282e-05
1.26054e-08
5.10286e-05
1.26077e-08
5.10291e-05
1.26099e-08
5.10295e-05
1.26122e-08
5.103e-05
1.26144e-08
5.10304e-05
1.26166e-08
5.10309e-05
1.26188e-08
5.10313e-05
1.2621e-08
5.10317e-05
1.26232e-08
5.10322e-05
1.26254e-08
5.10326e-05
1.26276e-08
5.1033e-05
1.26298e-08
5.10334e-05
1.2632e-08
5.10338e-05
1.26342e-08
5.10342e-05
1.26364e-08
5.10346e-05
1.26386e-08
5.1035e-05
1.26407e-08
5.10354e-05
1.26429e-08
5.10358e-05
1.26451e-08
5.10362e-05
1.26472e-08
5.10365e-05
1.26494e-08
5.10369e-05
1.26515e-08
5.10373e-05
1.26536e-08
5.10376e-05
1.26558e-08
5.1038e-05
1.26579e-08
5.10383e-05
1.266e-08
5.10387e-05
1.26621e-08
5.1039e-05
1.26643e-08
5.10393e-05
1.26664e-08
5.10397e-05
1.26685e-08
5.104e-05
1.26706e-08
5.10403e-05
1.26727e-08
5.10406e-05
1.26748e-08
5.10409e-05
1.26769e-08
5.10412e-05
1.26789e-08
5.10415e-05
1.2681e-08
5.10418e-05
1.26831e-08
5.10421e-05
1.26852e-08
5.10424e-05
1.26872e-08
5.10427e-05
1.26893e-08
5.1043e-05
1.26913e-08
5.10432e-05
1.26934e-08
5.10435e-05
1.26954e-08
5.10438e-05
1.26975e-08
5.1044e-05
1.26995e-08
5.10443e-05
1.27015e-08
5.10445e-05
1.27035e-08
5.10448e-05
1.27056e-08
5.1045e-05
1.27076e-08
5.10452e-05
1.27096e-08
5.10455e-05
1.27116e-08
5.10457e-05
1.27136e-08
5.10459e-05
1.27156e-08
5.10461e-05
1.27176e-08
5.10463e-05
1.27195e-08
5.10466e-05
1.27215e-08
5.10468e-05
1.27235e-08
5.1047e-05
1.27254e-08
5.10471e-05
1.27274e-08
5.10473e-05
1.27293e-08
5.10475e-05
1.27313e-08
5.10477e-05
1.27332e-08
5.10479e-05
1.27352e-08
5.1048e-05
1.27371e-08
5.10482e-05
1.2739e-08
5.10484e-05
1.27409e-08
5.10485e-05
1.27428e-08
5.10487e-05
1.27447e-08
5.10488e-05
1.27466e-08
5.1049e-05
1.27485e-08
5.10491e-05
1.27504e-08
5.10492e-05
1.27522e-08
5.10493e-05
1.2754e-08
5.10495e-05
1.27559e-08
5.10496e-05
1.27577e-08
5.10497e-05
1.27595e-08
5.10498e-05
1.27613e-08
5.10499e-05
1.27631e-08
5.105e-05
1.27648e-08
5.10501e-05
1.27665e-08
5.10502e-05
1.27682e-08
5.10503e-05
1.27699e-08
5.10504e-05
1.27716e-08
5.10504e-05
1.27732e-08
5.10505e-05
1.27748e-08
5.10506e-05
1.27763e-08
5.10507e-05
1.27778e-08
5.10507e-05
1.27793e-08
5.10508e-05
1.27806e-08
5.10508e-05
1.27819e-08
5.10509e-05
1.27832e-08
5.10509e-05
1.27843e-08
5.1051e-05
1.27854e-08
5.1051e-05
1.27863e-08
5.1051e-05
1.27871e-08
5.10511e-05
1.27877e-08
5.10511e-05
1.27882e-08
5.10511e-05
1.27883e-08
5.10511e-05
1.27883e-08
5.10511e-05
1.27879e-08
5.10511e-05
1.27872e-08
5.10511e-05
1.27861e-08
5.10511e-05
1.27844e-08
5.10511e-05
1.27821e-08
5.10511e-05
1.27789e-08
5.10511e-05
1.27746e-08
5.10511e-05
1.27691e-08
5.10511e-05
1.27621e-08
5.10511e-05
1.2753e-08
5.10511e-05
1.27414e-08
5.10511e-05
1.27262e-08
5.10511e-05
1.27066e-08
5.10511e-05
1.2681e-08
5.10511e-05
1.26477e-08
5.10511e-05
1.26043e-08
5.10511e-05
1.2548e-08
5.10511e-05
1.24753e-08
5.1051e-05
1.23829e-08
5.10508e-05
1.22691e-08
1.2137e-08
5.09058e-05
1.56826e-09
5.09074e-05
3.69182e-09
5.09095e-05
5.09599e-09
5.09117e-05
5.94905e-09
5.09137e-05
6.60261e-09
5.09157e-05
7.21696e-09
5.09177e-05
7.78441e-09
5.09195e-05
8.26934e-09
5.09214e-05
8.66945e-09
5.09231e-05
9.00358e-09
5.09248e-05
9.28874e-09
5.09264e-05
9.53426e-09
5.0928e-05
9.74556e-09
5.09296e-05
9.92734e-09
5.0931e-05
1.00841e-08
5.09325e-05
1.02198e-08
5.09339e-05
1.03376e-08
5.09353e-05
1.044e-08
5.09367e-05
1.05294e-08
5.09381e-05
1.06076e-08
5.09394e-05
1.0676e-08
5.09407e-05
1.07361e-08
5.0942e-05
1.07889e-08
5.09433e-05
1.08355e-08
5.09446e-05
1.08766e-08
5.09458e-05
1.0913e-08
5.09471e-05
1.09452e-08
5.09483e-05
1.09739e-08
5.09496e-05
1.09994e-08
5.09508e-05
1.10221e-08
5.0952e-05
1.10424e-08
5.09532e-05
1.10606e-08
5.09545e-05
1.1077e-08
5.09557e-05
1.10917e-08
5.09569e-05
1.1105e-08
5.09581e-05
1.1117e-08
5.09593e-05
1.11279e-08
5.09605e-05
1.11378e-08
5.09617e-05
1.11469e-08
5.09629e-05
1.11552e-08
5.09641e-05
1.11628e-08
5.09653e-05
1.11699e-08
5.09665e-05
1.11764e-08
5.09677e-05
1.11825e-08
5.09689e-05
1.11881e-08
5.097e-05
1.11934e-08
5.09712e-05
1.11984e-08
5.09724e-05
1.12031e-08
5.09736e-05
1.12075e-08
5.09748e-05
1.12118e-08
5.0976e-05
1.12158e-08
5.09772e-05
1.12196e-08
5.09784e-05
1.12233e-08
5.09796e-05
1.12269e-08
5.09807e-05
1.12303e-08
5.09819e-05
1.12337e-08
5.09831e-05
1.12369e-08
5.09843e-05
1.12401e-08
5.09855e-05
1.12432e-08
5.09867e-05
1.12462e-08
5.09879e-05
1.12491e-08
5.0989e-05
1.1252e-08
5.09902e-05
1.12549e-08
5.09914e-05
1.12577e-08
5.09926e-05
1.12605e-08
5.09938e-05
1.12632e-08
5.0995e-05
1.12659e-08
5.09961e-05
1.12686e-08
5.09973e-05
1.12712e-08
5.09985e-05
1.12739e-08
5.09997e-05
1.12765e-08
5.10009e-05
1.12791e-08
5.10021e-05
1.12817e-08
5.10033e-05
1.12842e-08
5.10044e-05
1.12868e-08
5.10056e-05
1.12893e-08
5.10068e-05
1.12918e-08
5.1008e-05
1.12943e-08
5.10092e-05
1.12968e-08
5.10104e-05
1.12993e-08
5.10116e-05
1.13018e-08
5.10127e-05
1.13043e-08
5.10139e-05
1.13068e-08
5.10151e-05
1.13092e-08
5.10163e-05
1.13117e-08
5.10175e-05
1.13141e-08
5.10187e-05
1.13166e-08
5.10198e-05
1.1319e-08
5.1021e-05
1.13215e-08
5.10222e-05
1.13239e-08
5.10234e-05
1.13263e-08
5.10246e-05
1.13287e-08
5.10258e-05
1.13312e-08
5.1027e-05
1.13336e-08
5.10281e-05
1.1336e-08
5.10293e-05
1.13384e-08
5.10305e-05
1.13408e-08
5.10317e-05
1.13432e-08
5.10329e-05
1.13456e-08
5.10341e-05
1.1348e-08
5.10353e-05
1.13503e-08
5.10364e-05
1.13527e-08
5.10376e-05
1.13551e-08
5.10388e-05
1.13575e-08
5.104e-05
1.13598e-08
5.10412e-05
1.13622e-08
5.10424e-05
1.13646e-08
5.10436e-05
1.13669e-08
5.10447e-05
1.13693e-08
5.10459e-05
1.13716e-08
5.10471e-05
1.1374e-08
5.10483e-05
1.13763e-08
5.10495e-05
1.13787e-08
5.10507e-05
1.1381e-08
5.10519e-05
1.13834e-08
5.1053e-05
1.13857e-08
5.10542e-05
1.1388e-08
5.10554e-05
1.13904e-08
5.10566e-05
1.13927e-08
5.10578e-05
1.1395e-08
5.1059e-05
1.13973e-08
5.10602e-05
1.13996e-08
5.10613e-05
1.1402e-08
5.10625e-05
1.14043e-08
5.10637e-05
1.14066e-08
5.10649e-05
1.14089e-08
5.10661e-05
1.14112e-08
5.10673e-05
1.14135e-08
5.10685e-05
1.14158e-08
5.10696e-05
1.14181e-08
5.10708e-05
1.14204e-08
5.1072e-05
1.14226e-08
5.10732e-05
1.14249e-08
5.10744e-05
1.14272e-08
5.10756e-05
1.14295e-08
5.10767e-05
1.14318e-08
5.10779e-05
1.1434e-08
5.10791e-05
1.14363e-08
5.10803e-05
1.14386e-08
5.10815e-05
1.14408e-08
5.10827e-05
1.14431e-08
5.10839e-05
1.14453e-08
5.1085e-05
1.14476e-08
5.10862e-05
1.14499e-08
5.10874e-05
1.14521e-08
5.10886e-05
1.14544e-08
5.10898e-05
1.14566e-08
5.1091e-05
1.14588e-08
5.10921e-05
1.14611e-08
5.10933e-05
1.14633e-08
5.10945e-05
1.14655e-08
5.10957e-05
1.14678e-08
5.10969e-05
1.147e-08
5.10981e-05
1.14722e-08
5.10992e-05
1.14744e-08
5.11004e-05
1.14767e-08
5.11016e-05
1.14789e-08
5.11028e-05
1.14811e-08
5.1104e-05
1.14833e-08
5.11052e-05
1.14855e-08
5.11063e-05
1.14877e-08
5.11075e-05
1.14899e-08
5.11087e-05
1.14921e-08
5.11099e-05
1.14943e-08
5.11111e-05
1.14965e-08
5.11123e-05
1.14987e-08
5.11134e-05
1.15009e-08
5.11146e-05
1.15031e-08
5.11158e-05
1.15052e-08
5.1117e-05
1.15074e-08
5.11182e-05
1.15096e-08
5.11193e-05
1.15118e-08
5.11205e-05
1.15139e-08
5.11217e-05
1.15161e-08
5.11229e-05
1.15183e-08
5.11241e-05
1.15204e-08
5.11253e-05
1.15226e-08
5.11264e-05
1.15247e-08
5.11276e-05
1.15269e-08
5.11288e-05
1.1529e-08
5.113e-05
1.15312e-08
5.11312e-05
1.15333e-08
5.11323e-05
1.15355e-08
5.11335e-05
1.15376e-08
5.11347e-05
1.15397e-08
5.11359e-05
1.15418e-08
5.11371e-05
1.1544e-08
5.11382e-05
1.15461e-08
5.11394e-05
1.15482e-08
5.11406e-05
1.15503e-08
5.11418e-05
1.15524e-08
5.1143e-05
1.15545e-08
5.11441e-05
1.15566e-08
5.11453e-05
1.15587e-08
5.11465e-05
1.15608e-08
5.11477e-05
1.15628e-08
5.11488e-05
1.15649e-08
5.115e-05
1.1567e-08
5.11512e-05
1.1569e-08
5.11524e-05
1.15711e-08
5.11536e-05
1.15731e-08
5.11547e-05
1.15751e-08
5.11559e-05
1.15771e-08
5.11571e-05
1.15791e-08
5.11583e-05
1.15811e-08
5.11594e-05
1.15831e-08
5.11606e-05
1.1585e-08
5.11618e-05
1.15869e-08
5.1163e-05
1.15888e-08
5.11641e-05
1.15907e-08
5.11653e-05
1.15926e-08
5.11665e-05
1.15944e-08
5.11677e-05
1.15961e-08
5.11688e-05
1.15979e-08
5.117e-05
1.15996e-08
5.11712e-05
1.16012e-08
5.11724e-05
1.16028e-08
5.11735e-05
1.16043e-08
5.11747e-05
1.16057e-08
5.11759e-05
1.16071e-08
5.11771e-05
1.16083e-08
5.11782e-05
1.16094e-08
5.11794e-05
1.16104e-08
5.11806e-05
1.16113e-08
5.11818e-05
1.1612e-08
5.11829e-05
1.16124e-08
5.11841e-05
1.16126e-08
5.11853e-05
1.16125e-08
5.11865e-05
1.16121e-08
5.11876e-05
1.16114e-08
5.11888e-05
1.16102e-08
5.119e-05
1.16085e-08
5.11912e-05
1.16061e-08
5.11924e-05
1.16029e-08
5.11935e-05
1.15988e-08
5.11947e-05
1.15936e-08
5.11959e-05
1.15871e-08
5.11971e-05
1.15791e-08
5.11983e-05
1.15691e-08
5.11995e-05
1.15568e-08
5.12006e-05
1.15416e-08
5.12018e-05
1.1523e-08
5.1203e-05
1.15002e-08
5.12042e-05
1.14727e-08
5.12053e-05
1.14399e-08
5.12065e-05
1.14014e-08
5.12076e-05
1.13575e-08
5.12087e-05
1.13098e-08
5.12097e-05
1.12622e-08
1.12235e-08
5.09093e-05
9.38668e-10
5.09106e-05
2.42113e-09
5.09121e-05
3.61053e-09
5.09136e-05
4.45823e-09
5.09151e-05
5.13626e-09
5.09165e-05
5.74459e-09
5.0918e-05
6.29736e-09
5.09195e-05
6.78258e-09
5.0921e-05
7.19887e-09
5.09224e-05
7.55589e-09
5.09238e-05
7.86467e-09
5.09252e-05
8.13309e-09
5.09266e-05
8.36654e-09
5.0928e-05
8.56952e-09
5.09293e-05
8.74612e-09
5.09306e-05
8.90004e-09
5.09319e-05
9.03442e-09
5.09332e-05
9.1519e-09
5.09345e-05
9.25475e-09
5.09358e-05
9.34492e-09
5.0937e-05
9.42408e-09
5.09383e-05
9.49366e-09
5.09395e-05
9.5549e-09
5.09407e-05
9.60889e-09
5.09419e-05
9.65653e-09
5.09432e-05
9.69864e-09
5.09444e-05
9.73591e-09
5.09456e-05
9.76894e-09
5.09468e-05
9.79826e-09
5.0948e-05
9.82432e-09
5.09492e-05
9.84752e-09
5.09504e-05
9.86822e-09
5.09515e-05
9.88671e-09
5.09527e-05
9.90327e-09
5.09539e-05
9.91812e-09
5.09551e-05
9.93148e-09
5.09563e-05
9.94351e-09
5.09575e-05
9.95439e-09
5.09587e-05
9.96424e-09
5.09598e-05
9.97319e-09
5.0961e-05
9.98134e-09
5.09622e-05
9.98879e-09
5.09634e-05
9.99563e-09
5.09646e-05
1.00019e-08
5.09657e-05
1.00077e-08
5.09669e-05
1.00131e-08
5.09681e-05
1.00181e-08
5.09693e-05
1.00228e-08
5.09705e-05
1.00272e-08
5.09716e-05
1.00313e-08
5.09728e-05
1.00352e-08
5.0974e-05
1.00389e-08
5.09752e-05
1.00424e-08
5.09764e-05
1.00458e-08
5.09776e-05
1.0049e-08
5.09787e-05
1.00521e-08
5.09799e-05
1.00551e-08
5.09811e-05
1.0058e-08
5.09823e-05
1.00609e-08
5.09835e-05
1.00636e-08
5.09846e-05
1.00663e-08
5.09858e-05
1.00689e-08
5.0987e-05
1.00714e-08
5.09882e-05
1.0074e-08
5.09894e-05
1.00764e-08
5.09906e-05
1.00789e-08
5.09917e-05
1.00813e-08
5.09929e-05
1.00837e-08
5.09941e-05
1.0086e-08
5.09953e-05
1.00883e-08
5.09965e-05
1.00907e-08
5.09977e-05
1.00929e-08
5.09989e-05
1.00952e-08
5.1e-05
1.00975e-08
5.10012e-05
1.00997e-08
5.10024e-05
1.0102e-08
5.10036e-05
1.01042e-08
5.10048e-05
1.01064e-08
5.1006e-05
1.01086e-08
5.10072e-05
1.01108e-08
5.10084e-05
1.0113e-08
5.10096e-05
1.01152e-08
5.10107e-05
1.01174e-08
5.10119e-05
1.01196e-08
5.10131e-05
1.01217e-08
5.10143e-05
1.01239e-08
5.10155e-05
1.0126e-08
5.10167e-05
1.01282e-08
5.10179e-05
1.01304e-08
5.10191e-05
1.01325e-08
5.10203e-05
1.01346e-08
5.10215e-05
1.01368e-08
5.10227e-05
1.01389e-08
5.10238e-05
1.01411e-08
5.1025e-05
1.01432e-08
5.10262e-05
1.01453e-08
5.10274e-05
1.01475e-08
5.10286e-05
1.01496e-08
5.10298e-05
1.01517e-08
5.1031e-05
1.01538e-08
5.10322e-05
1.01559e-08
5.10334e-05
1.0158e-08
5.10346e-05
1.01602e-08
5.10358e-05
1.01623e-08
5.1037e-05
1.01644e-08
5.10382e-05
1.01665e-08
5.10394e-05
1.01686e-08
5.10406e-05
1.01707e-08
5.10418e-05
1.01728e-08
5.1043e-05
1.01749e-08
5.10442e-05
1.0177e-08
5.10454e-05
1.01791e-08
5.10466e-05
1.01811e-08
5.10478e-05
1.01832e-08
5.10489e-05
1.01853e-08
5.10501e-05
1.01874e-08
5.10513e-05
1.01895e-08
5.10525e-05
1.01915e-08
5.10537e-05
1.01936e-08
5.10549e-05
1.01957e-08
5.10561e-05
1.01978e-08
5.10573e-05
1.01998e-08
5.10585e-05
1.02019e-08
5.10597e-05
1.0204e-08
5.10609e-05
1.0206e-08
5.10621e-05
1.02081e-08
5.10633e-05
1.02101e-08
5.10645e-05
1.02122e-08
5.10657e-05
1.02142e-08
5.10669e-05
1.02163e-08
5.10682e-05
1.02183e-08
5.10694e-05
1.02204e-08
5.10706e-05
1.02224e-08
5.10718e-05
1.02245e-08
5.1073e-05
1.02265e-08
5.10742e-05
1.02285e-08
5.10754e-05
1.02306e-08
5.10766e-05
1.02326e-08
5.10778e-05
1.02346e-08
5.1079e-05
1.02366e-08
5.10802e-05
1.02387e-08
5.10814e-05
1.02407e-08
5.10826e-05
1.02427e-08
5.10838e-05
1.02447e-08
5.1085e-05
1.02467e-08
5.10862e-05
1.02487e-08
5.10874e-05
1.02508e-08
5.10886e-05
1.02528e-08
5.10898e-05
1.02548e-08
5.1091e-05
1.02568e-08
5.10922e-05
1.02588e-08
5.10934e-05
1.02608e-08
5.10947e-05
1.02628e-08
5.10959e-05
1.02648e-08
5.10971e-05
1.02668e-08
5.10983e-05
1.02687e-08
5.10995e-05
1.02707e-08
5.11007e-05
1.02727e-08
5.11019e-05
1.02747e-08
5.11031e-05
1.02767e-08
5.11043e-05
1.02787e-08
5.11055e-05
1.02806e-08
5.11067e-05
1.02826e-08
5.1108e-05
1.02846e-08
5.11092e-05
1.02865e-08
5.11104e-05
1.02885e-08
5.11116e-05
1.02905e-08
5.11128e-05
1.02924e-08
5.1114e-05
1.02944e-08
5.11152e-05
1.02963e-08
5.11164e-05
1.02983e-08
5.11176e-05
1.03002e-08
5.11188e-05
1.03022e-08
5.11201e-05
1.03041e-08
5.11213e-05
1.03061e-08
5.11225e-05
1.0308e-08
5.11237e-05
1.03099e-08
5.11249e-05
1.03119e-08
5.11261e-05
1.03138e-08
5.11273e-05
1.03157e-08
5.11286e-05
1.03177e-08
5.11298e-05
1.03196e-08
5.1131e-05
1.03215e-08
5.11322e-05
1.03234e-08
5.11334e-05
1.03253e-08
5.11346e-05
1.03272e-08
5.11358e-05
1.03291e-08
5.11371e-05
1.03311e-08
5.11383e-05
1.03329e-08
5.11395e-05
1.03348e-08
5.11407e-05
1.03367e-08
5.11419e-05
1.03386e-08
5.11431e-05
1.03405e-08
5.11443e-05
1.03424e-08
5.11456e-05
1.03442e-08
5.11468e-05
1.03461e-08
5.1148e-05
1.03479e-08
5.11492e-05
1.03498e-08
5.11504e-05
1.03516e-08
5.11516e-05
1.03534e-08
5.11529e-05
1.03552e-08
5.11541e-05
1.0357e-08
5.11553e-05
1.03588e-08
5.11565e-05
1.03606e-08
5.11577e-05
1.03623e-08
5.1159e-05
1.03641e-08
5.11602e-05
1.03658e-08
5.11614e-05
1.03675e-08
5.11626e-05
1.03691e-08
5.11638e-05
1.03707e-08
5.11651e-05
1.03723e-08
5.11663e-05
1.03739e-08
5.11675e-05
1.03754e-08
5.11687e-05
1.03769e-08
5.11699e-05
1.03783e-08
5.11712e-05
1.03796e-08
5.11724e-05
1.03809e-08
5.11736e-05
1.03821e-08
5.11748e-05
1.03832e-08
5.11761e-05
1.03842e-08
5.11773e-05
1.03851e-08
5.11785e-05
1.03859e-08
5.11797e-05
1.03865e-08
5.11809e-05
1.03869e-08
5.11822e-05
1.03872e-08
5.11834e-05
1.03872e-08
5.11846e-05
1.03869e-08
5.11858e-05
1.03863e-08
5.11871e-05
1.03854e-08
5.11883e-05
1.0384e-08
5.11895e-05
1.03822e-08
5.11908e-05
1.03799e-08
5.1192e-05
1.03769e-08
5.11932e-05
1.03731e-08
5.11944e-05
1.03685e-08
5.11957e-05
1.03629e-08
5.11969e-05
1.03561e-08
5.11981e-05
1.0348e-08
5.11994e-05
1.03384e-08
5.12006e-05
1.03269e-08
5.12018e-05
1.03135e-08
5.12031e-05
1.02978e-08
5.12043e-05
1.02798e-08
5.12055e-05
1.02594e-08
5.12067e-05
1.02368e-08
5.12079e-05
1.02126e-08
5.12091e-05
1.01879e-08
5.12102e-05
1.01647e-08
5.12113e-05
1.01462e-08
1.01376e-08
5.09108e-05
7.82323e-10
5.09113e-05
1.92684e-09
5.09121e-05
2.82398e-09
5.09131e-05
3.50451e-09
5.09141e-05
4.08748e-09
5.09152e-05
4.62427e-09
5.09164e-05
5.11676e-09
5.09176e-05
5.55719e-09
5.09189e-05
5.94483e-09
5.09202e-05
6.28516e-09
5.09214e-05
6.58482e-09
5.09227e-05
6.84913e-09
5.0924e-05
7.08216e-09
5.09253e-05
7.2874e-09
5.09266e-05
7.46811e-09
5.09278e-05
7.62726e-09
5.09291e-05
7.76748e-09
5.09304e-05
7.89109e-09
5.09316e-05
8.00011e-09
5.09329e-05
8.09631e-09
5.09341e-05
8.18125e-09
5.09354e-05
8.2563e-09
5.09366e-05
8.32266e-09
5.09378e-05
8.38137e-09
5.0939e-05
8.43336e-09
5.09403e-05
8.47944e-09
5.09415e-05
8.52031e-09
5.09427e-05
8.55661e-09
5.09439e-05
8.58887e-09
5.09451e-05
8.61758e-09
5.09463e-05
8.64316e-09
5.09475e-05
8.66598e-09
5.09487e-05
8.68637e-09
5.09499e-05
8.70461e-09
5.09511e-05
8.72095e-09
5.09523e-05
8.73563e-09
5.09535e-05
8.74883e-09
5.09547e-05
8.76074e-09
5.09559e-05
8.77149e-09
5.09571e-05
8.78123e-09
5.09583e-05
8.79007e-09
5.09595e-05
8.79812e-09
5.09606e-05
8.80547e-09
5.09618e-05
8.8122e-09
5.0963e-05
8.81838e-09
5.09642e-05
8.82408e-09
5.09654e-05
8.82936e-09
5.09666e-05
8.83425e-09
5.09678e-05
8.83882e-09
5.0969e-05
8.84308e-09
5.09702e-05
8.84709e-09
5.09713e-05
8.85086e-09
5.09725e-05
8.85443e-09
5.09737e-05
8.85781e-09
5.09749e-05
8.86104e-09
5.09761e-05
8.86412e-09
5.09773e-05
8.86708e-09
5.09785e-05
8.86992e-09
5.09797e-05
8.87266e-09
5.09808e-05
8.87532e-09
5.0982e-05
8.8779e-09
5.09832e-05
8.8804e-09
5.09844e-05
8.88285e-09
5.09856e-05
8.88524e-09
5.09868e-05
8.88758e-09
5.0988e-05
8.88988e-09
5.09892e-05
8.89213e-09
5.09904e-05
8.89436e-09
5.09915e-05
8.89655e-09
5.09927e-05
8.89871e-09
5.09939e-05
8.90085e-09
5.09951e-05
8.90297e-09
5.09963e-05
8.90506e-09
5.09975e-05
8.90714e-09
5.09987e-05
8.9092e-09
5.09999e-05
8.91125e-09
5.10011e-05
8.91328e-09
5.10023e-05
8.9153e-09
5.10035e-05
8.91731e-09
5.10046e-05
8.91931e-09
5.10058e-05
8.9213e-09
5.1007e-05
8.92328e-09
5.10082e-05
8.92525e-09
5.10094e-05
8.92721e-09
5.10106e-05
8.92917e-09
5.10118e-05
8.93113e-09
5.1013e-05
8.93307e-09
5.10142e-05
8.93501e-09
5.10154e-05
8.93695e-09
5.10166e-05
8.93888e-09
5.10178e-05
8.94081e-09
5.1019e-05
8.94273e-09
5.10202e-05
8.94465e-09
5.10213e-05
8.94656e-09
5.10225e-05
8.94847e-09
5.10237e-05
8.95038e-09
5.10249e-05
8.95228e-09
5.10261e-05
8.95418e-09
5.10273e-05
8.95607e-09
5.10285e-05
8.95797e-09
5.10297e-05
8.95986e-09
5.10309e-05
8.96174e-09
5.10321e-05
8.96363e-09
5.10333e-05
8.96551e-09
5.10345e-05
8.96739e-09
5.10357e-05
8.96926e-09
5.10369e-05
8.97113e-09
5.10381e-05
8.973e-09
5.10393e-05
8.97487e-09
5.10405e-05
8.97674e-09
5.10417e-05
8.9786e-09
5.10429e-05
8.98046e-09
5.10441e-05
8.98231e-09
5.10453e-05
8.98417e-09
5.10465e-05
8.98602e-09
5.10477e-05
8.98787e-09
5.10489e-05
8.98972e-09
5.10501e-05
8.99156e-09
5.10513e-05
8.9934e-09
5.10525e-05
8.99524e-09
5.10537e-05
8.99708e-09
5.10549e-05
8.99891e-09
5.10561e-05
9.00075e-09
5.10573e-05
9.00258e-09
5.10585e-05
9.00441e-09
5.10597e-05
9.00623e-09
5.10609e-05
9.00805e-09
5.10621e-05
9.00987e-09
5.10633e-05
9.01169e-09
5.10645e-05
9.01351e-09
5.10657e-05
9.01532e-09
5.10669e-05
9.01714e-09
5.10681e-05
9.01895e-09
5.10693e-05
9.02075e-09
5.10705e-05
9.02256e-09
5.10717e-05
9.02436e-09
5.10729e-05
9.02616e-09
5.10741e-05
9.02796e-09
5.10753e-05
9.02976e-09
5.10765e-05
9.03155e-09
5.10777e-05
9.03334e-09
5.1079e-05
9.03513e-09
5.10802e-05
9.03692e-09
5.10814e-05
9.0387e-09
5.10826e-05
9.04049e-09
5.10838e-05
9.04227e-09
5.1085e-05
9.04405e-09
5.10862e-05
9.04582e-09
5.10874e-05
9.0476e-09
5.10886e-05
9.04937e-09
5.10898e-05
9.05114e-09
5.1091e-05
9.05291e-09
5.10922e-05
9.05467e-09
5.10934e-05
9.05644e-09
5.10946e-05
9.0582e-09
5.10959e-05
9.05996e-09
5.10971e-05
9.06172e-09
5.10983e-05
9.06347e-09
5.10995e-05
9.06522e-09
5.11007e-05
9.06697e-09
5.11019e-05
9.06872e-09
5.11031e-05
9.07047e-09
5.11043e-05
9.07221e-09
5.11055e-05
9.07395e-09
5.11067e-05
9.07569e-09
5.1108e-05
9.07743e-09
5.11092e-05
9.07916e-09
5.11104e-05
9.08089e-09
5.11116e-05
9.08262e-09
5.11128e-05
9.08435e-09
5.1114e-05
9.08608e-09
5.11152e-05
9.08781e-09
5.11164e-05
9.08953e-09
5.11177e-05
9.09124e-09
5.11189e-05
9.09296e-09
5.11201e-05
9.09467e-09
5.11213e-05
9.09638e-09
5.11225e-05
9.09809e-09
5.11237e-05
9.0998e-09
5.11249e-05
9.1015e-09
5.11261e-05
9.1032e-09
5.11274e-05
9.1049e-09
5.11286e-05
9.10659e-09
5.11298e-05
9.10828e-09
5.1131e-05
9.10997e-09
5.11322e-05
9.11165e-09
5.11334e-05
9.11334e-09
5.11347e-05
9.11501e-09
5.11359e-05
9.11668e-09
5.11371e-05
9.11835e-09
5.11383e-05
9.12001e-09
5.11395e-05
9.12166e-09
5.11407e-05
9.12331e-09
5.1142e-05
9.12496e-09
5.11432e-05
9.1266e-09
5.11444e-05
9.12823e-09
5.11456e-05
9.12985e-09
5.11468e-05
9.13147e-09
5.1148e-05
9.13307e-09
5.11493e-05
9.13466e-09
5.11505e-05
9.13624e-09
5.11517e-05
9.13781e-09
5.11529e-05
9.13936e-09
5.11541e-05
9.1409e-09
5.11554e-05
9.14242e-09
5.11566e-05
9.14391e-09
5.11578e-05
9.14538e-09
5.1159e-05
9.14683e-09
5.11602e-05
9.14825e-09
5.11615e-05
9.14963e-09
5.11627e-05
9.15099e-09
5.11639e-05
9.1523e-09
5.11651e-05
9.15357e-09
5.11664e-05
9.15477e-09
5.11676e-05
9.15592e-09
5.11688e-05
9.157e-09
5.117e-05
9.15801e-09
5.11712e-05
9.15893e-09
5.11725e-05
9.15976e-09
5.11737e-05
9.16048e-09
5.11749e-05
9.16108e-09
5.11761e-05
9.16153e-09
5.11774e-05
9.16182e-09
5.11786e-05