/*--------------------------------*- C++ -*----------------------------------*\
| =========                 |                                                 |
| \\      /  F ield         | OpenFOAM: The Open Source CFD Toolbox           |
|  \\    /   O peration     | Version:  2406                                  |
|   \\  /    A nd           | Website:  www.openfoam.com                      |
|    \\/     M anipulation  |                                                 |
\*---------------------------------------------------------------------------*/
FoamFile
{
    version     2.0;
    format      ascii;
    arch        "LSB;label=32;scalar=64";
    class       volVectorField;
    location    "0.2";
    object      U;
}
// * * * * * * * * * * * * * * * * * * * * * * * * * * * * * * * * * * * * * //

dimensions      [0 1 -1 0 0 0 0];

internalField   nonuniform List<vector> 
6250
(
(94.7099 0.00948881 0)
(80.553 0.0156972 0)
(63.3012 0.0168935 0)
(60.1724 0.0179611 0)
(62.3204 0.019589 0)
(63.725 0.021215 0)
(63.8415 0.0224804 0)
(63.5961 0.0234182 0)
(63.4631 0.0241656 0)
(63.4466 0.0248023 0)
(63.4541 0.0253527 0)
(63.4477 0.025826 0)
(63.4309 0.0262336 0)
(63.4125 0.026588 0)
(63.3957 0.0268994 0)
(63.3796 0.0271753 0)
(63.3635 0.0274212 0)
(63.3472 0.0276416 0)
(63.3307 0.0278402 0)
(63.3143 0.0280199 0)
(63.2978 0.0281832 0)
(63.2813 0.0283323 0)
(63.2648 0.0284689 0)
(63.2482 0.0285943 0)
(63.2317 0.0287099 0)
(63.2151 0.0288168 0)
(63.1985 0.0289157 0)
(63.1819 0.0290075 0)
(63.1653 0.029093 0)
(63.1487 0.0291726 0)
(63.1321 0.029247 0)
(63.1155 0.0293165 0)
(63.0988 0.0293816 0)
(63.0822 0.0294427 0)
(63.0656 0.0295001 0)
(63.0489 0.029554 0)
(63.0323 0.0296048 0)
(63.0157 0.0296527 0)
(62.9991 0.0296978 0)
(62.9824 0.0297404 0)
(62.9658 0.0297806 0)
(62.9492 0.0298186 0)
(62.9325 0.0298546 0)
(62.9159 0.0298886 0)
(62.8993 0.0299208 0)
(62.8827 0.0299513 0)
(62.866 0.0299802 0)
(62.8494 0.0300076 0)
(62.8328 0.0300336 0)
(62.8162 0.0300582 0)
(62.7996 0.0300815 0)
(62.783 0.0301037 0)
(62.7664 0.0301247 0)
(62.7498 0.0301446 0)
(62.7332 0.0301634 0)
(62.7166 0.0301813 0)
(62.7 0.0301982 0)
(62.6834 0.0302143 0)
(62.6668 0.0302295 0)
(62.6502 0.0302438 0)
(62.6337 0.0302574 0)
(62.6171 0.0302703 0)
(62.6005 0.0302824 0)
(62.5839 0.0302939 0)
(62.5674 0.0303047 0)
(62.5508 0.0303148 0)
(62.5342 0.0303244 0)
(62.5177 0.0303334 0)
(62.5011 0.0303418 0)
(62.4846 0.0303497 0)
(62.468 0.030357 0)
(62.4515 0.0303639 0)
(62.4349 0.0303703 0)
(62.4184 0.0303763 0)
(62.4019 0.0303818 0)
(62.3853 0.0303868 0)
(62.3688 0.0303915 0)
(62.3523 0.0303958 0)
(62.3358 0.0303997 0)
(62.3193 0.0304032 0)
(62.3027 0.0304063 0)
(62.2862 0.0304091 0)
(62.2697 0.0304116 0)
(62.2532 0.0304138 0)
(62.2367 0.0304156 0)
(62.2202 0.0304172 0)
(62.2037 0.0304184 0)
(62.1872 0.0304194 0)
(62.1707 0.0304201 0)
(62.1543 0.0304205 0)
(62.1378 0.0304207 0)
(62.1213 0.0304206 0)
(62.1048 0.0304203 0)
(62.0884 0.0304198 0)
(62.0719 0.030419 0)
(62.0554 0.030418 0)
(62.039 0.0304168 0)
(62.0225 0.0304154 0)
(62.0061 0.0304138 0)
(61.9896 0.030412 0)
(61.9732 0.03041 0)
(61.9567 0.0304078 0)
(61.9403 0.0304054 0)
(61.9238 0.0304029 0)
(61.9074 0.0304002 0)
(61.891 0.0303973 0)
(61.8745 0.0303943 0)
(61.8581 0.0303911 0)
(61.8417 0.0303878 0)
(61.8253 0.0303843 0)
(61.8089 0.0303807 0)
(61.7925 0.0303769 0)
(61.7761 0.030373 0)
(61.7597 0.030369 0)
(61.7433 0.0303648 0)
(61.7269 0.0303605 0)
(61.7105 0.0303561 0)
(61.6941 0.0303516 0)
(61.6777 0.0303469 0)
(61.6613 0.0303422 0)
(61.6449 0.0303373 0)
(61.6285 0.0303323 0)
(61.6122 0.0303272 0)
(61.5958 0.030322 0)
(61.5794 0.0303167 0)
(61.5631 0.0303114 0)
(61.5467 0.0303059 0)
(61.5304 0.0303003 0)
(61.514 0.0302946 0)
(61.4977 0.0302888 0)
(61.4813 0.030283 0)
(61.465 0.030277 0)
(61.4486 0.030271 0)
(61.4323 0.0302649 0)
(61.416 0.0302587 0)
(61.3996 0.0302524 0)
(61.3833 0.0302461 0)
(61.367 0.0302397 0)
(61.3507 0.0302331 0)
(61.3343 0.0302266 0)
(61.318 0.0302199 0)
(61.3017 0.0302132 0)
(61.2854 0.0302064 0)
(61.2691 0.0301996 0)
(61.2528 0.0301926 0)
(61.2365 0.0301856 0)
(61.2202 0.0301786 0)
(61.2039 0.0301715 0)
(61.1877 0.0301643 0)
(61.1714 0.030157 0)
(61.1551 0.0301497 0)
(61.1388 0.0301424 0)
(61.1225 0.0301349 0)
(61.1063 0.0301275 0)
(61.09 0.0301199 0)
(61.0737 0.0301123 0)
(61.0575 0.0301047 0)
(61.0412 0.030097 0)
(61.025 0.0300892 0)
(61.0087 0.0300814 0)
(60.9925 0.0300736 0)
(60.9762 0.0300657 0)
(60.96 0.0300577 0)
(60.9438 0.0300497 0)
(60.9275 0.0300416 0)
(60.9113 0.0300335 0)
(60.8951 0.0300254 0)
(60.8789 0.0300172 0)
(60.8626 0.030009 0)
(60.8464 0.0300007 0)
(60.8302 0.0299923 0)
(60.814 0.0299839 0)
(60.7978 0.0299755 0)
(60.7816 0.0299671 0)
(60.7654 0.0299586 0)
(60.7492 0.02995 0)
(60.733 0.0299414 0)
(60.7168 0.0299328 0)
(60.7006 0.0299241 0)
(60.6845 0.0299154 0)
(60.6683 0.0299067 0)
(60.6521 0.0298979 0)
(60.6359 0.0298891 0)
(60.6198 0.0298802 0)
(60.6036 0.0298713 0)
(60.5875 0.0298624 0)
(60.5713 0.0298534 0)
(60.5551 0.0298444 0)
(60.539 0.0298353 0)
(60.5228 0.0298263 0)
(60.5067 0.0298171 0)
(60.4906 0.029808 0)
(60.4744 0.0297988 0)
(60.4583 0.0297896 0)
(60.4422 0.0297803 0)
(60.426 0.029771 0)
(60.4099 0.0297617 0)
(60.3938 0.0297523 0)
(60.3777 0.0297429 0)
(60.3616 0.0297335 0)
(60.3454 0.029724 0)
(60.3293 0.0297145 0)
(60.3132 0.029705 0)
(60.2971 0.0296954 0)
(60.281 0.0296858 0)
(60.2649 0.0296762 0)
(60.2488 0.0296665 0)
(60.2328 0.0296568 0)
(60.2167 0.029647 0)
(60.2006 0.0296372 0)
(60.1845 0.0296274 0)
(60.1685 0.0296175 0)
(60.1524 0.0296076 0)
(60.1363 0.0295976 0)
(60.1203 0.0295876 0)
(60.1042 0.0295775 0)
(60.0881 0.0295674 0)
(60.0721 0.0295572 0)
(60.056 0.029547 0)
(60.04 0.0295367 0)
(60.024 0.0295263 0)
(60.0079 0.0295158 0)
(59.9919 0.0295053 0)
(59.9759 0.0294946 0)
(59.9598 0.0294838 0)
(59.9438 0.0294729 0)
(59.9278 0.0294619 0)
(59.9118 0.0294506 0)
(59.8958 0.0294392 0)
(59.8798 0.0294275 0)
(59.8638 0.0294155 0)
(59.8478 0.0294032 0)
(59.8318 0.0293905 0)
(59.8158 0.0293773 0)
(59.7998 0.0293633 0)
(59.7839 0.0293485 0)
(59.7679 0.0293326 0)
(59.752 0.0293153 0)
(59.736 0.029296 0)
(59.7201 0.029274 0)
(59.7042 0.0292481 0)
(59.6883 0.0292165 0)
(59.6724 0.0291764 0)
(59.6566 0.0291233 0)
(59.6408 0.0290497 0)
(59.6251 0.0289433 0)
(59.6094 0.0287824 0)
(59.594 0.02853 0)
(59.5787 0.02812 0)
(59.5602 0.0274405 0)
(94.7471 0.012727 0)
(80.6069 0.0250601 0)
(63.3701 0.0296803 0)
(60.2561 0.030731 0)
(62.4194 0.0316833 0)
(63.8401 0.0330322 0)
(63.9738 0.034248 0)
(63.7461 0.0350966 0)
(63.6308 0.0356658 0)
(63.632 0.0360837 0)
(63.6572 0.0364106 0)
(63.6686 0.036664 0)
(63.6697 0.0368541 0)
(63.6693 0.0369933 0)
(63.6703 0.0370937 0)
(63.6722 0.0371643 0)
(63.674 0.0372115 0)
(63.6757 0.03724 0)
(63.6772 0.0372536 0)
(63.6787 0.0372553 0)
(63.6802 0.0372476 0)
(63.6817 0.0372323 0)
(63.6831 0.0372109 0)
(63.6846 0.0371848 0)
(63.6859 0.0371548 0)
(63.6873 0.037122 0)
(63.6887 0.0370868 0)
(63.69 0.0370499 0)
(63.6913 0.0370118 0)
(63.6926 0.0369727 0)
(63.6939 0.0369331 0)
(63.6952 0.0368931 0)
(63.6964 0.036853 0)
(63.6977 0.036813 0)
(63.6989 0.0367732 0)
(63.7002 0.0367337 0)
(63.7014 0.0366946 0)
(63.7026 0.036656 0)
(63.7038 0.036618 0)
(63.705 0.0365806 0)
(63.7062 0.0365439 0)
(63.7074 0.0365078 0)
(63.7085 0.0364724 0)
(63.7097 0.0364378 0)
(63.7108 0.0364038 0)
(63.712 0.0363706 0)
(63.7131 0.0363381 0)
(63.7143 0.0363063 0)
(63.7154 0.0362753 0)
(63.7165 0.0362449 0)
(63.7176 0.0362153 0)
(63.7187 0.0361864 0)
(63.7198 0.0361581 0)
(63.7209 0.0361305 0)
(63.722 0.0361035 0)
(63.723 0.0360771 0)
(63.7241 0.0360514 0)
(63.7252 0.0360263 0)
(63.7262 0.0360018 0)
(63.7273 0.0359778 0)
(63.7283 0.0359544 0)
(63.7293 0.0359315 0)
(63.7303 0.0359092 0)
(63.7314 0.0358873 0)
(63.7324 0.035866 0)
(63.7334 0.0358451 0)
(63.7344 0.0358247 0)
(63.7354 0.0358047 0)
(63.7364 0.0357852 0)
(63.7373 0.0357661 0)
(63.7383 0.0357474 0)
(63.7393 0.0357292 0)
(63.7402 0.0357113 0)
(63.7412 0.0356937 0)
(63.7421 0.0356766 0)
(63.7431 0.0356598 0)
(63.744 0.0356433 0)
(63.7449 0.0356271 0)
(63.7459 0.0356113 0)
(63.7468 0.0355958 0)
(63.7477 0.0355806 0)
(63.7486 0.0355657 0)
(63.7495 0.0355511 0)
(63.7504 0.0355367 0)
(63.7512 0.0355226 0)
(63.7521 0.0355088 0)
(63.753 0.0354952 0)
(63.7538 0.0354818 0)
(63.7547 0.0354687 0)
(63.7556 0.0354559 0)
(63.7564 0.0354432 0)
(63.7572 0.0354308 0)
(63.7581 0.0354185 0)
(63.7589 0.0354065 0)
(63.7597 0.0353947 0)
(63.7605 0.0353831 0)
(63.7613 0.0353716 0)
(63.7621 0.0353604 0)
(63.7629 0.0353493 0)
(63.7637 0.0353384 0)
(63.7645 0.0353276 0)
(63.7652 0.035317 0)
(63.766 0.0353066 0)
(63.7668 0.0352963 0)
(63.7675 0.0352862 0)
(63.7683 0.0352762 0)
(63.769 0.0352664 0)
(63.7697 0.0352567 0)
(63.7705 0.0352471 0)
(63.7712 0.0352377 0)
(63.7719 0.0352284 0)
(63.7726 0.0352193 0)
(63.7733 0.0352102 0)
(63.774 0.0352013 0)
(63.7747 0.0351925 0)
(63.7754 0.0351838 0)
(63.7761 0.0351752 0)
(63.7767 0.0351667 0)
(63.7774 0.0351583 0)
(63.7781 0.0351501 0)
(63.7787 0.0351419 0)
(63.7794 0.0351338 0)
(63.78 0.0351258 0)
(63.7806 0.035118 0)
(63.7813 0.0351102 0)
(63.7819 0.0351025 0)
(63.7825 0.0350949 0)
(63.7831 0.0350874 0)
(63.7837 0.0350799 0)
(63.7843 0.0350726 0)
(63.7849 0.0350653 0)
(63.7855 0.0350581 0)
(63.7861 0.035051 0)
(63.7866 0.035044 0)
(63.7872 0.035037 0)
(63.7878 0.0350301 0)
(63.7883 0.0350233 0)
(63.7889 0.0350166 0)
(63.7894 0.0350099 0)
(63.7899 0.0350033 0)
(63.7905 0.0349968 0)
(63.791 0.0349903 0)
(63.7915 0.0349839 0)
(63.792 0.0349775 0)
(63.7925 0.0349713 0)
(63.793 0.034965 0)
(63.7935 0.0349589 0)
(63.794 0.0349528 0)
(63.7945 0.0349467 0)
(63.795 0.0349408 0)
(63.7954 0.0349348 0)
(63.7959 0.034929 0)
(63.7964 0.0349232 0)
(63.7968 0.0349174 0)
(63.7972 0.0349117 0)
(63.7977 0.034906 0)
(63.7981 0.0349004 0)
(63.7985 0.0348949 0)
(63.799 0.0348894 0)
(63.7994 0.0348839 0)
(63.7998 0.0348785 0)
(63.8002 0.0348732 0)
(63.8006 0.0348679 0)
(63.801 0.0348626 0)
(63.8014 0.0348574 0)
(63.8017 0.0348522 0)
(63.8021 0.0348471 0)
(63.8025 0.034842 0)
(63.8028 0.034837 0)
(63.8032 0.034832 0)
(63.8035 0.034827 0)
(63.8039 0.0348221 0)
(63.8042 0.0348172 0)
(63.8046 0.0348124 0)
(63.8049 0.0348076 0)
(63.8052 0.0348028 0)
(63.8055 0.0347981 0)
(63.8058 0.0347934 0)
(63.8061 0.0347888 0)
(63.8064 0.0347842 0)
(63.8067 0.0347796 0)
(63.807 0.0347751 0)
(63.8073 0.0347706 0)
(63.8075 0.0347662 0)
(63.8078 0.0347617 0)
(63.8081 0.0347573 0)
(63.8083 0.034753 0)
(63.8086 0.0347486 0)
(63.8088 0.0347444 0)
(63.809 0.0347401 0)
(63.8093 0.0347359 0)
(63.8095 0.0347317 0)
(63.8097 0.0347275 0)
(63.8099 0.0347233 0)
(63.8101 0.0347192 0)
(63.8103 0.0347151 0)
(63.8105 0.0347111 0)
(63.8107 0.034707 0)
(63.8109 0.034703 0)
(63.8111 0.034699 0)
(63.8113 0.034695 0)
(63.8114 0.0346911 0)
(63.8116 0.0346871 0)
(63.8118 0.0346832 0)
(63.8119 0.0346792 0)
(63.8121 0.0346753 0)
(63.8122 0.0346714 0)
(63.8123 0.0346675 0)
(63.8125 0.0346637 0)
(63.8126 0.0346597 0)
(63.8127 0.0346558 0)
(63.8128 0.0346519 0)
(63.8129 0.0346479 0)
(63.813 0.0346439 0)
(63.8131 0.0346399 0)
(63.8132 0.0346359 0)
(63.8133 0.0346318 0)
(63.8134 0.0346276 0)
(63.8134 0.0346233 0)
(63.8135 0.0346189 0)
(63.8136 0.0346144 0)
(63.8136 0.0346098 0)
(63.8137 0.034605 0)
(63.8137 0.0346 0)
(63.8138 0.0345948 0)
(63.8138 0.0345893 0)
(63.8138 0.0345835 0)
(63.8139 0.0345771 0)
(63.8139 0.0345704 0)
(63.8139 0.034563 0)
(63.8139 0.034555 0)
(63.8139 0.0345462 0)
(63.8139 0.0345363 0)
(63.8139 0.0345249 0)
(63.8139 0.0345119 0)
(63.8139 0.0344967 0)
(63.8139 0.0344788 0)
(63.8139 0.0344575 0)
(63.8139 0.0344316 0)
(63.8139 0.0343997 0)
(63.8139 0.0343593 0)
(63.8139 0.0343075 0)
(63.8139 0.0342397 0)
(63.8139 0.0341493 0)
(63.8139 0.0340266 0)
(63.8139 0.0338565 0)
(63.8139 0.0336162 0)
(63.8138 0.03327 0)
(63.8136 0.0327626 0)
(63.8131 0.0320082 0)
(94.747 0.00328898 0)
(80.6051 0.00806742 0)
(63.3629 0.0110812 0)
(60.2473 0.012803 0)
(62.411 0.0142214 0)
(63.8322 0.0156193 0)
(63.9657 0.0168929 0)
(63.7378 0.0179564 0)
(63.6225 0.0188318 0)
(63.6237 0.0195743 0)
(63.6489 0.0202199 0)
(63.6605 0.0207847 0)
(63.6616 0.0212787 0)
(63.6613 0.0217118 0)
(63.6625 0.0220936 0)
(63.6645 0.0224322 0)
(63.6665 0.0227338 0)
(63.6683 0.0230037 0)
(63.6701 0.0232461 0)
(63.6717 0.0234648 0)
(63.6734 0.0236628 0)
(63.6751 0.0238428 0)
(63.6767 0.024007 0)
(63.6783 0.0241573 0)
(63.6799 0.0242955 0)
(63.6815 0.0244229 0)
(63.6831 0.0245407 0)
(63.6846 0.0246501 0)
(63.6862 0.024752 0)
(63.6877 0.0248471 0)
(63.6893 0.0249363 0)
(63.6908 0.0250201 0)
(63.6923 0.0250991 0)
(63.6938 0.0251737 0)
(63.6953 0.0252445 0)
(63.6969 0.0253117 0)
(63.6984 0.0253758 0)
(63.6999 0.0254369 0)
(63.7014 0.0254955 0)
(63.7029 0.0255516 0)
(63.7044 0.0256055 0)
(63.7059 0.0256575 0)
(63.7073 0.0257076 0)
(63.7088 0.0257561 0)
(63.7103 0.025803 0)
(63.7118 0.0258485 0)
(63.7133 0.0258926 0)
(63.7148 0.0259355 0)
(63.7163 0.0259773 0)
(63.7178 0.0260181 0)
(63.7192 0.0260578 0)
(63.7207 0.0260966 0)
(63.7222 0.0261346 0)
(63.7237 0.0261717 0)
(63.7252 0.0262081 0)
(63.7267 0.0262438 0)
(63.7281 0.0262788 0)
(63.7296 0.0263131 0)
(63.7311 0.0263468 0)
(63.7326 0.02638 0)
(63.7341 0.0264126 0)
(63.7356 0.0264447 0)
(63.737 0.0264763 0)
(63.7385 0.0265074 0)
(63.74 0.026538 0)
(63.7415 0.0265683 0)
(63.743 0.0265981 0)
(63.7444 0.0266275 0)
(63.7459 0.0266565 0)
(63.7474 0.0266851 0)
(63.7489 0.0267134 0)
(63.7504 0.0267413 0)
(63.7518 0.0267689 0)
(63.7533 0.0267962 0)
(63.7548 0.0268232 0)
(63.7563 0.0268499 0)
(63.7578 0.0268763 0)
(63.7593 0.0269024 0)
(63.7607 0.0269282 0)
(63.7622 0.0269538 0)
(63.7637 0.0269791 0)
(63.7652 0.0270041 0)
(63.7667 0.027029 0)
(63.7681 0.0270535 0)
(63.7696 0.0270779 0)
(63.7711 0.027102 0)
(63.7726 0.0271259 0)
(63.7741 0.0271496 0)
(63.7755 0.0271731 0)
(63.777 0.0271964 0)
(63.7785 0.0272196 0)
(63.78 0.0272425 0)
(63.7815 0.0272652 0)
(63.783 0.0272877 0)
(63.7844 0.0273101 0)
(63.7859 0.0273323 0)
(63.7874 0.0273543 0)
(63.7889 0.0273762 0)
(63.7904 0.0273979 0)
(63.7918 0.0274194 0)
(63.7933 0.0274408 0)
(63.7948 0.027462 0)
(63.7963 0.0274831 0)
(63.7978 0.0275041 0)
(63.7993 0.0275249 0)
(63.8007 0.0275455 0)
(63.8022 0.027566 0)
(63.8037 0.0275864 0)
(63.8052 0.0276067 0)
(63.8067 0.0276268 0)
(63.8082 0.0276468 0)
(63.8096 0.0276667 0)
(63.8111 0.0276864 0)
(63.8126 0.027706 0)
(63.8141 0.0277256 0)
(63.8156 0.0277449 0)
(63.817 0.0277642 0)
(63.8185 0.0277834 0)
(63.82 0.0278024 0)
(63.8215 0.0278214 0)
(63.823 0.0278402 0)
(63.8245 0.027859 0)
(63.8259 0.0278776 0)
(63.8274 0.0278961 0)
(63.8289 0.0279145 0)
(63.8304 0.0279329 0)
(63.8319 0.0279511 0)
(63.8333 0.0279692 0)
(63.8348 0.0279873 0)
(63.8363 0.0280052 0)
(63.8378 0.0280231 0)
(63.8393 0.0280408 0)
(63.8407 0.0280585 0)
(63.8422 0.0280761 0)
(63.8437 0.0280936 0)
(63.8452 0.028111 0)
(63.8467 0.0281283 0)
(63.8482 0.0281455 0)
(63.8496 0.0281627 0)
(63.8511 0.0281797 0)
(63.8526 0.0281967 0)
(63.8541 0.0282136 0)
(63.8556 0.0282304 0)
(63.857 0.0282472 0)
(63.8585 0.0282638 0)
(63.86 0.0282804 0)
(63.8615 0.0282969 0)
(63.863 0.0283134 0)
(63.8644 0.0283297 0)
(63.8659 0.028346 0)
(63.8674 0.0283622 0)
(63.8689 0.0283784 0)
(63.8704 0.0283944 0)
(63.8718 0.0284104 0)
(63.8733 0.0284264 0)
(63.8748 0.0284422 0)
(63.8763 0.028458 0)
(63.8778 0.0284737 0)
(63.8792 0.0284894 0)
(63.8807 0.0285049 0)
(63.8822 0.0285204 0)
(63.8837 0.0285359 0)
(63.8851 0.0285513 0)
(63.8866 0.0285666 0)
(63.8881 0.0285818 0)
(63.8896 0.028597 0)
(63.8911 0.0286121 0)
(63.8925 0.0286272 0)
(63.894 0.0286422 0)
(63.8955 0.0286571 0)
(63.897 0.028672 0)
(63.8984 0.0286868 0)
(63.8999 0.0287015 0)
(63.9014 0.0287162 0)
(63.9029 0.0287308 0)
(63.9044 0.0287454 0)
(63.9058 0.0287599 0)
(63.9073 0.0287743 0)
(63.9088 0.0287887 0)
(63.9103 0.028803 0)
(63.9117 0.0288173 0)
(63.9132 0.0288315 0)
(63.9147 0.0288456 0)
(63.9162 0.0288597 0)
(63.9176 0.0288738 0)
(63.9191 0.0288877 0)
(63.9206 0.0289016 0)
(63.9221 0.0289155 0)
(63.9235 0.0289293 0)
(63.925 0.028943 0)
(63.9265 0.0289567 0)
(63.928 0.0289703 0)
(63.9294 0.0289839 0)
(63.9309 0.0289974 0)
(63.9324 0.0290108 0)
(63.9338 0.0290242 0)
(63.9353 0.0290375 0)
(63.9368 0.0290507 0)
(63.9383 0.0290639 0)
(63.9397 0.0290771 0)
(63.9412 0.0290901 0)
(63.9427 0.0291031 0)
(63.9441 0.029116 0)
(63.9456 0.0291289 0)
(63.9471 0.0291416 0)
(63.9486 0.0291543 0)
(63.95 0.0291669 0)
(63.9515 0.0291794 0)
(63.953 0.0291919 0)
(63.9544 0.0292042 0)
(63.9559 0.0292164 0)
(63.9574 0.0292285 0)
(63.9589 0.0292404 0)
(63.9603 0.0292523 0)
(63.9618 0.029264 0)
(63.9633 0.0292756 0)
(63.9647 0.029287 0)
(63.9662 0.0292982 0)
(63.9677 0.0293091 0)
(63.9691 0.0293198 0)
(63.9706 0.0293302 0)
(63.9721 0.0293404 0)
(63.9735 0.0293502 0)
(63.975 0.0293597 0)
(63.9765 0.0293688 0)
(63.9779 0.0293773 0)
(63.9794 0.0293851 0)
(63.9809 0.0293923 0)
(63.9824 0.0293987 0)
(63.9838 0.0294041 0)
(63.9853 0.0294086 0)
(63.9868 0.0294118 0)
(63.9882 0.0294134 0)
(63.9897 0.029413 0)
(63.9912 0.0294103 0)
(63.9927 0.0294047 0)
(63.9941 0.0293957 0)
(63.9956 0.0293826 0)
(63.9971 0.0293643 0)
(63.9986 0.0293393 0)
(64.0001 0.029306 0)
(64.0015 0.0292621 0)
(64.003 0.029205 0)
(64.0045 0.0291318 0)
(64.006 0.029039 0)
(64.0074 0.0289234 0)
(64.0088 0.0287828 0)
(64.0102 0.0286192 0)
(64.0115 0.028444 0)
(64.013 0.0282896 0)
(94.751 0.00320756 0)
(80.6109 0.00799955 0)
(63.3673 0.0116706 0)
(60.25 0.0142719 0)
(62.4128 0.0163595 0)
(63.8334 0.0182154 0)
(63.9665 0.019874 0)
(63.738 0.0213091 0)
(63.6222 0.0225272 0)
(63.623 0.0235622 0)
(63.6479 0.0244479 0)
(63.6591 0.0252088 0)
(63.66 0.0258625 0)
(63.6595 0.0264239 0)
(63.6604 0.0269062 0)
(63.6623 0.0273209 0)
(63.6641 0.0276779 0)
(63.6658 0.0279852 0)
(63.6674 0.0282499 0)
(63.6689 0.0284778 0)
(63.6705 0.0286741 0)
(63.6721 0.0288429 0)
(63.6736 0.0289881 0)
(63.6751 0.0291127 0)
(63.6767 0.0292195 0)
(63.6782 0.0293109 0)
(63.6797 0.0293888 0)
(63.6812 0.0294549 0)
(63.6827 0.0295109 0)
(63.6842 0.0295579 0)
(63.6857 0.0295973 0)
(63.6872 0.0296298 0)
(63.6887 0.0296564 0)
(63.6902 0.0296779 0)
(63.6917 0.0296949 0)
(63.6931 0.0297079 0)
(63.6946 0.0297175 0)
(63.6961 0.0297241 0)
(63.6976 0.0297281 0)
(63.6991 0.0297299 0)
(63.7005 0.0297297 0)
(63.702 0.0297277 0)
(63.7035 0.0297243 0)
(63.705 0.0297196 0)
(63.7064 0.0297138 0)
(63.7079 0.0297071 0)
(63.7094 0.0296995 0)
(63.7109 0.0296912 0)
(63.7123 0.0296823 0)
(63.7138 0.029673 0)
(63.7153 0.0296632 0)
(63.7168 0.029653 0)
(63.7182 0.0296426 0)
(63.7197 0.0296319 0)
(63.7212 0.0296211 0)
(63.7227 0.02961 0)
(63.7242 0.0295989 0)
(63.7256 0.0295877 0)
(63.7271 0.0295765 0)
(63.7286 0.0295652 0)
(63.7301 0.0295539 0)
(63.7315 0.0295427 0)
(63.733 0.0295314 0)
(63.7345 0.0295203 0)
(63.736 0.0295091 0)
(63.7375 0.029498 0)
(63.7389 0.029487 0)
(63.7404 0.0294761 0)
(63.7419 0.0294653 0)
(63.7434 0.0294545 0)
(63.7449 0.0294439 0)
(63.7464 0.0294333 0)
(63.7478 0.0294229 0)
(63.7493 0.0294126 0)
(63.7508 0.0294023 0)
(63.7523 0.0293922 0)
(63.7538 0.0293822 0)
(63.7553 0.0293722 0)
(63.7567 0.0293624 0)
(63.7582 0.0293527 0)
(63.7597 0.0293431 0)
(63.7612 0.0293337 0)
(63.7627 0.0293243 0)
(63.7642 0.029315 0)
(63.7657 0.0293058 0)
(63.7671 0.0292968 0)
(63.7686 0.0292878 0)
(63.7701 0.029279 0)
(63.7716 0.0292702 0)
(63.7731 0.0292616 0)
(63.7746 0.029253 0)
(63.7761 0.0292446 0)
(63.7776 0.0292362 0)
(63.7791 0.029228 0)
(63.7806 0.0292198 0)
(63.782 0.0292117 0)
(63.7835 0.0292037 0)
(63.785 0.0291959 0)
(63.7865 0.0291881 0)
(63.788 0.0291803 0)
(63.7895 0.0291727 0)
(63.791 0.0291652 0)
(63.7925 0.0291577 0)
(63.794 0.0291504 0)
(63.7955 0.0291431 0)
(63.797 0.0291359 0)
(63.7985 0.0291287 0)
(63.8 0.0291217 0)
(63.8015 0.0291147 0)
(63.803 0.0291078 0)
(63.8044 0.029101 0)
(63.8059 0.0290943 0)
(63.8074 0.0290876 0)
(63.8089 0.029081 0)
(63.8104 0.0290745 0)
(63.8119 0.0290681 0)
(63.8134 0.0290617 0)
(63.8149 0.0290554 0)
(63.8164 0.0290492 0)
(63.8179 0.029043 0)
(63.8194 0.0290369 0)
(63.8209 0.0290309 0)
(63.8224 0.0290249 0)
(63.8239 0.029019 0)
(63.8254 0.0290132 0)
(63.8269 0.0290074 0)
(63.8284 0.0290017 0)
(63.8299 0.028996 0)
(63.8314 0.0289904 0)
(63.8329 0.0289849 0)
(63.8344 0.0289795 0)
(63.8359 0.028974 0)
(63.8374 0.0289687 0)
(63.8389 0.0289634 0)
(63.8405 0.0289582 0)
(63.842 0.028953 0)
(63.8435 0.0289479 0)
(63.845 0.0289428 0)
(63.8465 0.0289378 0)
(63.848 0.0289329 0)
(63.8495 0.028928 0)
(63.851 0.0289231 0)
(63.8525 0.0289184 0)
(63.854 0.0289136 0)
(63.8555 0.028909 0)
(63.857 0.0289043 0)
(63.8585 0.0288997 0)
(63.86 0.0288952 0)
(63.8615 0.0288907 0)
(63.863 0.0288863 0)
(63.8645 0.0288819 0)
(63.8661 0.0288776 0)
(63.8676 0.0288733 0)
(63.8691 0.0288691 0)
(63.8706 0.0288649 0)
(63.8721 0.0288608 0)
(63.8736 0.0288567 0)
(63.8751 0.0288527 0)
(63.8766 0.0288487 0)
(63.8781 0.0288447 0)
(63.8796 0.0288408 0)
(63.8812 0.028837 0)
(63.8827 0.0288332 0)
(63.8842 0.0288294 0)
(63.8857 0.0288257 0)
(63.8872 0.028822 0)
(63.8887 0.0288184 0)
(63.8902 0.0288148 0)
(63.8917 0.0288112 0)
(63.8933 0.0288077 0)
(63.8948 0.0288043 0)
(63.8963 0.0288008 0)
(63.8978 0.0287975 0)
(63.8993 0.0287941 0)
(63.9008 0.0287908 0)
(63.9023 0.0287876 0)
(63.9039 0.0287843 0)
(63.9054 0.0287812 0)
(63.9069 0.028778 0)
(63.9084 0.0287749 0)
(63.9099 0.0287718 0)
(63.9114 0.0287688 0)
(63.913 0.0287658 0)
(63.9145 0.0287629 0)
(63.916 0.0287599 0)
(63.9175 0.028757 0)
(63.919 0.0287542 0)
(63.9206 0.0287514 0)
(63.9221 0.0287486 0)
(63.9236 0.0287458 0)
(63.9251 0.0287431 0)
(63.9266 0.0287404 0)
(63.9282 0.0287377 0)
(63.9297 0.0287351 0)
(63.9312 0.0287325 0)
(63.9327 0.0287299 0)
(63.9342 0.0287273 0)
(63.9358 0.0287248 0)
(63.9373 0.0287222 0)
(63.9388 0.0287197 0)
(63.9403 0.0287172 0)
(63.9418 0.0287147 0)
(63.9434 0.0287122 0)
(63.9449 0.0287098 0)
(63.9464 0.0287073 0)
(63.9479 0.0287048 0)
(63.9495 0.0287023 0)
(63.951 0.0286998 0)
(63.9525 0.0286973 0)
(63.954 0.0286947 0)
(63.9556 0.0286921 0)
(63.9571 0.0286894 0)
(63.9586 0.0286867 0)
(63.9601 0.0286839 0)
(63.9617 0.028681 0)
(63.9632 0.028678 0)
(63.9647 0.0286749 0)
(63.9662 0.0286716 0)
(63.9678 0.0286681 0)
(63.9693 0.0286644 0)
(63.9708 0.0286605 0)
(63.9724 0.0286563 0)
(63.9739 0.0286518 0)
(63.9754 0.028647 0)
(63.9769 0.0286417 0)
(63.9785 0.0286358 0)
(63.98 0.0286293 0)
(63.9815 0.0286221 0)
(63.9831 0.028614 0)
(63.9846 0.028605 0)
(63.9861 0.028595 0)
(63.9877 0.0285835 0)
(63.9892 0.0285705 0)
(63.9908 0.0285555 0)
(63.9923 0.0285382 0)
(63.9938 0.0285183 0)
(63.9954 0.0284953 0)
(63.9969 0.0284686 0)
(63.9984 0.0284376 0)
(64 0.0284014 0)
(64.0015 0.028359 0)
(64.0031 0.0283096 0)
(64.0046 0.0282524 0)
(64.0061 0.0281868 0)
(64.0076 0.0281126 0)
(64.0091 0.0280307 0)
(64.0106 0.0279437 0)
(64.012 0.0278573 0)
(64.0135 0.0277823 0)
(64.0152 0.0277368 0)
(94.7529 0.00211034 0)
(80.6133 0.00521135 0)
(63.3681 0.00755352 0)
(60.2495 0.00922287 0)
(62.4117 0.0105929 0)
(63.832 0.011837 0)
(63.9647 0.0129683 0)
(63.7359 0.0139634 0)
(63.6197 0.014821 0)
(63.6203 0.0155594 0)
(63.645 0.0161991 0)
(63.656 0.0167556 0)
(63.6568 0.01724 0)
(63.6562 0.0176617 0)
(63.657 0.0180289 0)
(63.6588 0.0183493 0)
(63.6606 0.0186293 0)
(63.6622 0.0188744 0)
(63.6638 0.0190894 0)
(63.6653 0.0192784 0)
(63.6669 0.0194447 0)
(63.6684 0.0195915 0)
(63.67 0.0197214 0)
(63.6715 0.0198365 0)
(63.673 0.0199388 0)
(63.6746 0.0200301 0)
(63.6761 0.0201116 0)
(63.6776 0.0201848 0)
(63.6791 0.0202507 0)
(63.6806 0.0203102 0)
(63.6821 0.0203641 0)
(63.6836 0.0204132 0)
(63.6851 0.0204582 0)
(63.6866 0.0204995 0)
(63.6881 0.0205376 0)
(63.6896 0.0205729 0)
(63.6911 0.0206058 0)
(63.6926 0.0206366 0)
(63.6941 0.0206656 0)
(63.6956 0.020693 0)
(63.6971 0.020719 0)
(63.6986 0.0207439 0)
(63.7001 0.0207677 0)
(63.7016 0.0207906 0)
(63.703 0.0208127 0)
(63.7045 0.0208341 0)
(63.706 0.020855 0)
(63.7075 0.0208753 0)
(63.709 0.0208952 0)
(63.7105 0.0209148 0)
(63.712 0.020934 0)
(63.7134 0.0209529 0)
(63.7149 0.0209716 0)
(63.7164 0.02099 0)
(63.7179 0.0210083 0)
(63.7194 0.0210265 0)
(63.7209 0.0210444 0)
(63.7223 0.0210623 0)
(63.7238 0.0210801 0)
(63.7253 0.0210978 0)
(63.7268 0.0211154 0)
(63.7283 0.0211329 0)
(63.7298 0.0211504 0)
(63.7313 0.0211678 0)
(63.7327 0.0211852 0)
(63.7342 0.0212025 0)
(63.7357 0.0212198 0)
(63.7372 0.0212371 0)
(63.7387 0.0212543 0)
(63.7402 0.0212715 0)
(63.7417 0.0212887 0)
(63.7432 0.0213058 0)
(63.7446 0.0213229 0)
(63.7461 0.0213399 0)
(63.7476 0.021357 0)
(63.7491 0.021374 0)
(63.7506 0.021391 0)
(63.7521 0.0214079 0)
(63.7536 0.0214248 0)
(63.7551 0.0214417 0)
(63.7565 0.0214586 0)
(63.758 0.0214754 0)
(63.7595 0.0214922 0)
(63.761 0.0215089 0)
(63.7625 0.0215256 0)
(63.764 0.0215423 0)
(63.7655 0.021559 0)
(63.767 0.0215756 0)
(63.7685 0.0215922 0)
(63.77 0.0216087 0)
(63.7715 0.0216252 0)
(63.773 0.0216416 0)
(63.7744 0.021658 0)
(63.7759 0.0216744 0)
(63.7774 0.0216907 0)
(63.7789 0.021707 0)
(63.7804 0.0217233 0)
(63.7819 0.0217394 0)
(63.7834 0.0217556 0)
(63.7849 0.0217717 0)
(63.7864 0.0217878 0)
(63.7879 0.0218038 0)
(63.7894 0.0218197 0)
(63.7909 0.0218356 0)
(63.7924 0.0218515 0)
(63.7939 0.0218673 0)
(63.7954 0.0218831 0)
(63.7969 0.0218988 0)
(63.7984 0.0219145 0)
(63.7999 0.0219301 0)
(63.8014 0.0219457 0)
(63.8029 0.0219612 0)
(63.8044 0.0219767 0)
(63.8059 0.0219921 0)
(63.8074 0.0220075 0)
(63.8089 0.0220228 0)
(63.8104 0.0220381 0)
(63.8119 0.0220533 0)
(63.8134 0.0220685 0)
(63.8149 0.0220836 0)
(63.8164 0.0220987 0)
(63.8179 0.0221137 0)
(63.8194 0.0221286 0)
(63.8209 0.0221435 0)
(63.8224 0.0221584 0)
(63.8239 0.0221732 0)
(63.8254 0.022188 0)
(63.8269 0.0222027 0)
(63.8284 0.0222173 0)
(63.8299 0.0222319 0)
(63.8314 0.0222465 0)
(63.8329 0.022261 0)
(63.8344 0.0222754 0)
(63.8359 0.0222898 0)
(63.8374 0.0223041 0)
(63.8389 0.0223184 0)
(63.8404 0.0223327 0)
(63.8419 0.0223468 0)
(63.8434 0.022361 0)
(63.8449 0.0223751 0)
(63.8464 0.0223891 0)
(63.8479 0.0224031 0)
(63.8494 0.022417 0)
(63.851 0.0224309 0)
(63.8525 0.0224447 0)
(63.854 0.0224585 0)
(63.8555 0.0224722 0)
(63.857 0.0224859 0)
(63.8585 0.0224995 0)
(63.86 0.0225131 0)
(63.8615 0.0225266 0)
(63.863 0.0225401 0)
(63.8645 0.0225535 0)
(63.866 0.0225669 0)
(63.8676 0.0225802 0)
(63.8691 0.0225935 0)
(63.8706 0.0226067 0)
(63.8721 0.0226199 0)
(63.8736 0.022633 0)
(63.8751 0.0226461 0)
(63.8766 0.0226591 0)
(63.8781 0.0226721 0)
(63.8796 0.022685 0)
(63.8812 0.0226979 0)
(63.8827 0.0227107 0)
(63.8842 0.0227235 0)
(63.8857 0.0227362 0)
(63.8872 0.0227489 0)
(63.8887 0.0227616 0)
(63.8902 0.0227742 0)
(63.8918 0.0227867 0)
(63.8933 0.0227992 0)
(63.8948 0.0228117 0)
(63.8963 0.0228241 0)
(63.8978 0.0228364 0)
(63.8993 0.0228487 0)
(63.9009 0.022861 0)
(63.9024 0.0228732 0)
(63.9039 0.0228854 0)
(63.9054 0.0228975 0)
(63.9069 0.0229096 0)
(63.9084 0.0229216 0)
(63.91 0.0229336 0)
(63.9115 0.0229455 0)
(63.913 0.0229574 0)
(63.9145 0.0229692 0)
(63.916 0.022981 0)
(63.9176 0.0229928 0)
(63.9191 0.0230045 0)
(63.9206 0.0230161 0)
(63.9221 0.0230277 0)
(63.9236 0.0230393 0)
(63.9252 0.0230507 0)
(63.9267 0.0230622 0)
(63.9282 0.0230736 0)
(63.9297 0.0230849 0)
(63.9313 0.0230962 0)
(63.9328 0.0231074 0)
(63.9343 0.0231185 0)
(63.9358 0.0231296 0)
(63.9373 0.0231406 0)
(63.9389 0.0231516 0)
(63.9404 0.0231625 0)
(63.9419 0.0231733 0)
(63.9434 0.023184 0)
(63.945 0.0231947 0)
(63.9465 0.0232052 0)
(63.948 0.0232156 0)
(63.9495 0.023226 0)
(63.9511 0.0232362 0)
(63.9526 0.0232463 0)
(63.9541 0.0232563 0)
(63.9557 0.0232661 0)
(63.9572 0.0232758 0)
(63.9587 0.0232853 0)
(63.9602 0.0232946 0)
(63.9618 0.0233037 0)
(63.9633 0.0233125 0)
(63.9648 0.0233211 0)
(63.9663 0.0233293 0)
(63.9679 0.0233372 0)
(63.9694 0.0233448 0)
(63.9709 0.0233519 0)
(63.9725 0.0233585 0)
(63.974 0.0233646 0)
(63.9755 0.02337 0)
(63.9771 0.0233747 0)
(63.9786 0.0233786 0)
(63.9801 0.0233817 0)
(63.9817 0.0233836 0)
(63.9832 0.0233843 0)
(63.9847 0.0233837 0)
(63.9863 0.0233815 0)
(63.9878 0.0233774 0)
(63.9893 0.0233713 0)
(63.9909 0.0233628 0)
(63.9924 0.0233517 0)
(63.9939 0.0233375 0)
(63.9955 0.0233199 0)
(63.997 0.0232986 0)
(63.9985 0.0232731 0)
(64.0001 0.0232434 0)
(64.0016 0.0232093 0)
(64.0031 0.0231712 0)
(64.0046 0.0231298 0)
(64.0061 0.0230864 0)
(64.0076 0.0230436 0)
(64.0091 0.023005 0)
(64.0105 0.0229758 0)
(64.0123 0.0229619 0)
(94.7548 0.0017109 0)
(80.616 0.00424323 0)
(63.3704 0.00625473 0)
(60.2512 0.00783246 0)
(62.4131 0.0092446 0)
(63.8332 0.010589 0)
(63.9658 0.0118519 0)
(63.7368 0.0130054 0)
(63.6204 0.0140437 0)
(63.6208 0.0149758 0)
(63.6454 0.0158133 0)
(63.6562 0.0165656 0)
(63.6569 0.01724 0)
(63.6561 0.0178436 0)
(63.6569 0.0183832 0)
(63.6585 0.0188653 0)
(63.6602 0.0192959 0)
(63.6618 0.0196805 0)
(63.6632 0.0200239 0)
(63.6647 0.0203306 0)
(63.6662 0.0206044 0)
(63.6677 0.0208491 0)
(63.6691 0.0210677 0)
(63.6706 0.021263 0)
(63.6721 0.0214377 0)
(63.6736 0.021594 0)
(63.6751 0.0217337 0)
(63.6765 0.0218589 0)
(63.678 0.0219709 0)
(63.6795 0.0220712 0)
(63.681 0.0221612 0)
(63.6824 0.0222418 0)
(63.6839 0.0223141 0)
(63.6854 0.022379 0)
(63.6869 0.0224372 0)
(63.6883 0.0224894 0)
(63.6898 0.0225363 0)
(63.6913 0.0225784 0)
(63.6927 0.0226162 0)
(63.6942 0.0226501 0)
(63.6957 0.0226805 0)
(63.6972 0.0227078 0)
(63.6986 0.0227323 0)
(63.7001 0.0227543 0)
(63.7016 0.0227739 0)
(63.703 0.0227915 0)
(63.7045 0.0228072 0)
(63.706 0.0228213 0)
(63.7075 0.0228337 0)
(63.7089 0.0228448 0)
(63.7104 0.0228546 0)
(63.7119 0.0228633 0)
(63.7134 0.0228709 0)
(63.7148 0.0228776 0)
(63.7163 0.0228833 0)
(63.7178 0.0228883 0)
(63.7193 0.0228926 0)
(63.7207 0.0228961 0)
(63.7222 0.0228991 0)
(63.7237 0.0229015 0)
(63.7252 0.0229033 0)
(63.7266 0.0229047 0)
(63.7281 0.0229057 0)
(63.7296 0.0229062 0)
(63.7311 0.0229064 0)
(63.7326 0.0229062 0)
(63.734 0.0229057 0)
(63.7355 0.0229049 0)
(63.737 0.0229038 0)
(63.7385 0.0229025 0)
(63.74 0.0229009 0)
(63.7414 0.0228991 0)
(63.7429 0.0228971 0)
(63.7444 0.0228949 0)
(63.7459 0.0228925 0)
(63.7474 0.02289 0)
(63.7489 0.0228873 0)
(63.7503 0.0228844 0)
(63.7518 0.0228814 0)
(63.7533 0.0228783 0)
(63.7548 0.0228751 0)
(63.7563 0.0228718 0)
(63.7578 0.0228684 0)
(63.7593 0.0228648 0)
(63.7607 0.0228612 0)
(63.7622 0.0228575 0)
(63.7637 0.0228538 0)