/*--------------------------------*- C++ -*----------------------------------*\
| =========                 |                                                 |
| \\      /  F ield         | OpenFOAM: The Open Source CFD Toolbox           |
|  \\    /   O peration     | Version:  2406                                  |
|   \\  /    A nd           | Website:  www.openfoam.com                      |
|    \\/     M anipulation  |                                                 |
\*---------------------------------------------------------------------------*/
FoamFile
{
    version     2.0;
    format      ascii;
    arch        "LSB;label=32;scalar=64";
    class       volScalarField;
    location    "400";
    object      alphat;
}
// * * * * * * * * * * * * * * * * * * * * * * * * * * * * * * * * * * * * * //

dimensions      [0 2 -1 0 0 0 0];

internalField   nonuniform List<scalar> 
5619
(
5.96549e-05
6.17424e-05
6.39663e-05
6.63749e-05
6.89248e-05
7.16043e-05
7.43831e-05
7.72223e-05
8.00698e-05
8.2864e-05
8.554e-05
8.80377e-05
9.03132e-05
9.23477e-05
9.41536e-05
9.57736e-05
9.72716e-05
9.87194e-05
0.000100182
0.00010171
0.000103331
0.000105056
0.000106884
0.000108806
0.000110809
0.000112882
0.000115015
0.0001172
0.000119432
0.000121704
0.000124014
0.00012636
0.000128739
0.00013115
0.000133593
0.000136065
0.000138568
0.0001411
0.00014366
0.000146248
0.000148862
0.000151499
0.000154159
0.000156837
0.000159529
0.000162232
0.000164941
0.000167651
0.000170355
0.000173048
0.000175724
0.000178379
0.000181006
0.000183601
0.00018616
0.000188681
0.000191161
0.000193599
0.000195997
0.000198355
0.000200679
0.000202975
0.000205251
0.000207522
0.000209805
0.000212125
0.000214419
0.000216683
0.000218919
0.000221123
0.000223294
0.00022543
0.000227526
0.000229576
0.000231574
0.000233511
0.000235377
0.000237158
0.00023884
0.000240406
0.000241834
0.000243102
0.000244184
0.000245047
0.00024566
0.000245982
0.000245972
0.000245581
0.000244758
0.000243445
0.000241579
0.000239094
0.000235916
0.00023197
0.000227173
0.00022144
0.000214683
0.000206815
0.000197756
0.000187469
0.000175791
0.000160507
0.00014537
0.000126714
0.000103908
8.2134e-05
5.80575e-05
2.26395e-05
3.3945e-05
3.51422e-05
3.56147e-05
3.56441e-05
3.53954e-05
3.49166e-05
3.42561e-05
3.34684e-05
3.25991e-05
3.16871e-05
3.08765e-05
3.01597e-05
2.95389e-05
2.9016e-05
2.85867e-05
2.82416e-05
2.79679e-05
2.77509e-05
2.75761e-05
2.74314e-05
2.73081e-05
2.71868e-05
2.70655e-05
2.69431e-05
2.6819e-05
2.66928e-05
2.65645e-05
2.64335e-05
2.62997e-05
2.61628e-05
2.60225e-05
2.58786e-05
2.57309e-05
2.55793e-05
2.54235e-05
2.52638e-05
2.51e-05
2.49325e-05
2.47613e-05
2.45869e-05
2.44098e-05
2.42305e-05
2.40497e-05
2.38683e-05
2.36871e-05
2.35073e-05
2.333e-05
2.31565e-05
2.2988e-05
2.28258e-05
2.26714e-05
2.2526e-05
2.23911e-05
2.22676e-05
2.21564e-05
2.20582e-05
2.19737e-05
2.1903e-05
2.18462e-05
2.18029e-05
2.17725e-05
2.17543e-05
2.17474e-05
2.17507e-05
2.17632e-05
2.17837e-05
2.18113e-05
2.18458e-05
2.18893e-05
2.19466e-05
2.20289e-05
2.21554e-05
2.23557e-05
2.26662e-05
2.31177e-05
2.37046e-05
2.43128e-05
2.45255e-05
2.30393e-05
0.000305679
0.00032465
0.000346839
0.000368986
0.000391274
0.000413422
0.000435405
0.000457259
0.000479105
0.000501083
0.000523285
0.000545681
0.000568069
0.000590106
0.000611392
0.000631624
0.000650722
0.000668877
0.000686485
0.000704021
0.000721913
0.00074046
0.000759802
0.000779955
0.000800847
0.000822364
0.00084438
0.000866769
0.000889421
0.000912238
0.00093514
0.00095806
0.000980944
0.00100375
0.00102645
0.00104903
0.00107146
0.00109376
0.00111594
0.001138
0.00115999
0.00118192
0.00120385
0.00122582
0.00124788
0.00127006
0.00129244
0.00131505
0.00133794
0.00136115
0.00138473
0.00140871
0.00143312
0.00145797
0.0014833
0.0015091
0.00153538
0.00156212
0.00158932
0.00161693
0.00164492
0.00167323
0.00170179
0.00173051
0.00175929
0.00178801
0.00181728
0.00184711
0.00187754
0.00190859
0.00194029
0.00197267
0.00200574
0.00203949
0.00207389
0.00210888
0.00214439
0.00218029
0.00221642
0.00225255
0.00228844
0.00232372
0.00235801
0.00239082
0.00242157
0.0024496
0.00247414
0.00249434
0.00250921
0.00251769
0.0025186
0.00251069
0.00249261
0.00246298
0.00242037
0.00236339
0.00229065
0.00220091
0.0020931
0.00196627
0.00181513
0.00163263
0.00141002
0.00114871
0.000844168
0.000477756
0.000176449
4.69216e-05
3.33027e-05
2.77908e-05
2.41026e-05
2.2121e-05
2.15247e-05
2.211e-05
2.37689e-05
2.62455e-05
2.89031e-05
3.08735e-05
3.22699e-05
3.35185e-05
3.46017e-05
3.55017e-05
3.6208e-05
3.67281e-05
3.70908e-05
3.73403e-05
3.75246e-05
3.76823e-05
3.78383e-05
3.80238e-05
3.82403e-05
3.84868e-05
3.87598e-05
3.90557e-05
3.9371e-05
3.97029e-05
4.00494e-05
4.04091e-05
4.0781e-05
4.11645e-05
4.1559e-05
4.19645e-05
4.23808e-05
4.28078e-05
4.32453e-05
4.36932e-05
4.4151e-05
4.46183e-05
4.50944e-05
4.55779e-05
4.60672e-05
4.65604e-05
4.70548e-05
4.75473e-05
4.80339e-05
4.85103e-05
4.89715e-05
4.94122e-05
4.98267e-05
5.02089e-05
5.05524e-05
5.08512e-05
5.10991e-05
5.12902e-05
5.14187e-05
5.14791e-05
5.14657e-05
5.13723e-05
5.11916e-05
5.09145e-05
5.0528e-05
5.00157e-05
4.94033e-05
4.86718e-05
4.77779e-05
4.66653e-05
4.52626e-05
4.34872e-05
4.12605e-05
3.85417e-05
3.5384e-05
3.20049e-05
2.88365e-05
2.65326e-05
2.60331e-05
2.91792e-05
4.27103e-05
0.000833357
0.00088817
0.000950583
0.00101291
0.00107548
0.00113763
0.00119928
0.00126044
0.0013213
0.00138205
0.00144273
0.00150305
0.00156228
0.00161936
0.00167312
0.00172276
0.00176817
0.00181008
0.00184978
0.00188878
0.00192838
0.00196949
0.00201253
0.00205754
0.00210433
0.00215256
0.0022019
0.00225199
0.00230254
0.00235331
0.00240409
0.00245474
0.00250513
0.0025552
0.00260491
0.00265424
0.00270323
0.00275192
0.00280039
0.00284875
0.00289713
0.00294564
0.00299443
0.00304365
0.00309343
0.0031439
0.00319516
0.00324731
0.00330042
0.00335452
0.00340965
0.00346579
0.00352292
0.00358098
0.00363989
0.00369957
0.00375992
0.00382082
0.00388215
0.00394379
0.00400563
0.00406757
0.00412955
0.00419153
0.00425351
0.00431556
0.00437814
0.00444109
0.00450438
0.00456802
0.00463199
0.00469627
0.0047608
0.00482547
0.00489014
0.00495458
0.0050185
0.00508153
0.00514321
0.00520295
0.00526005
0.0053137
0.00536292
0.00540659
0.00544343
0.005472
0.00549068
0.0054977
0.00549113
0.00546889
0.00542877
0.00536848
0.00528565
0.00517787
0.00504275
0.00487798
0.00468132
0.0044507
0.0041843
0.00388049
0.00352701
0.00310675
0.00261947
0.00206839
0.00145649
0.000789702
0.000269003
6.56224e-05
3.62593e-05
3.34416e-05
3.6001e-05
4.19966e-05
5.04387e-05
5.98804e-05
6.8449e-05
7.4331e-05
7.67827e-05
7.65235e-05
7.50023e-05
7.39844e-05
7.30593e-05
7.2214e-05
7.13982e-05
7.05528e-05
6.96527e-05
6.87218e-05
6.78189e-05
6.70053e-05
6.63293e-05
6.5759e-05
6.53012e-05
6.4952e-05
6.46979e-05
6.4522e-05
6.44077e-05
6.4341e-05
6.43108e-05
6.43085e-05
6.43282e-05
6.43653e-05
6.44169e-05
6.4481e-05
6.45566e-05
6.4643e-05
6.47401e-05
6.48478e-05
6.49666e-05
6.50968e-05
6.52384e-05
6.53912e-05
6.55543e-05
6.57264e-05
6.59051e-05
6.60871e-05
6.62681e-05
6.64424e-05
6.66033e-05
6.67428e-05
6.6852e-05
6.69206e-05
6.69378e-05
6.68921e-05
6.67716e-05
6.65647e-05
6.62594e-05
6.58444e-05
6.53089e-05
6.46431e-05
6.38381e-05
6.28863e-05
6.17819e-05
6.05471e-05
5.92222e-05
5.78079e-05
5.63153e-05
5.47723e-05
5.32328e-05
5.17891e-05
5.05879e-05
4.98486e-05
4.98829e-05
5.11198e-05
5.41718e-05
6.00491e-05
7.08363e-05
9.19073e-05
0.00014329
0.0015917
0.00168819
0.00179767
0.00190762
0.00201853
0.00212945
0.0022402
0.00235069
0.00246091
0.00257071
0.00267953
0.00278618
0.00288879
0.00298505
0.00307283
0.00315093
0.00321967
0.00328094
0.0033376
0.00339275
0.00344895
0.00350787
0.00357026
0.00363615
0.00370512
0.00377657
0.00384986
0.00392439
0.00399965
0.00407524
0.00415084
0.00422623
0.00430125
0.00437584
0.00444997
0.0045237
0.00459712
0.00467038
0.00474366
0.00481718
0.00489119
0.00496593
0.00504165
0.00511859
0.00519696
0.00527694
0.00535868
0.00544225
0.0055277
0.00561503
0.00570416
0.005795
0.00588739
0.00598115
0.00607605
0.00617188
0.00626837
0.00636529
0.0064624
0.00655946
0.00665629
0.00675271
0.00684861
0.0069439
0.00703853
0.00713245
0.00722554
0.0073175
0.00740815
0.00749734
0.00758492
0.00767069
0.00775441
0.00783579
0.00791449
0.00799006
0.008062
0.00812968
0.00819237
0.0082492
0.00829915
0.00834107
0.00837363
0.00839531
0.00840444
0.00839914
0.00837737
0.00833692
0.00827543
0.0081904
0.00807922
0.00793924
0.00776775
0.00756206
0.0073195
0.00703745
0.00671339
0.0063448
0.00592934
0.00546466
0.00493146
0.00430538
0.00358988
0.00279232
0.0019271
0.00104084
0.000345477
8.11555e-05
4.51167e-05
5.3215e-05
7.45592e-05
0.000103634
0.000133954
0.000158615
0.000173525
0.000178225
0.000174805
0.000166329
0.000155741
0.000146302
0.000138933
0.00013252
0.00012712
0.000122603
0.000118735
0.000115316
0.000112234
0.00010946
0.000107032
0.000104785
0.000102772
0.000101022
9.95287e-05
9.82614e-05
9.71797e-05
9.6242e-05
9.54113e-05
9.46575e-05
9.39575e-05
9.32942e-05
9.26551e-05
9.20317e-05
9.14186e-05
9.08125e-05
9.02122e-05
8.9618e-05
8.90315e-05
8.8455e-05
8.78912e-05
8.73433e-05
8.68142e-05
8.63066e-05
8.58224e-05
8.53625e-05
8.49271e-05
8.45149e-05
8.41237e-05
8.37504e-05
8.33906e-05
8.30398e-05
8.26928e-05
8.23454e-05
8.19941e-05
8.16372e-05
8.12753e-05
8.09122e-05
8.05557e-05
8.02184e-05
7.99185e-05
7.96808e-05
7.95365e-05
7.9605e-05
7.99554e-05
8.0663e-05
8.18282e-05
8.3581e-05
8.60878e-05
8.95572e-05
9.42465e-05
0.00010047
0.000108619
0.000119225
0.000133138
0.000151977
0.00017925
0.000223394
0.000309452
0.00250983
0.00264989
0.00280896
0.00296977
0.00313284
0.00329681
0.00346121
0.00362549
0.00378902
0.00395083
0.00410931
0.00426208
0.00440603
0.0045378
0.00465469
0.00475566
0.00484195
0.004917
0.00498546
0.00505205
0.00512054
0.00519328
0.00527125
0.00535441
0.00544211
0.00553345
0.00562749
0.0057234
0.00582046
0.00591813
0.006016
0.00611377
0.0062113
0.00630849
0.00640537
0.00650204
0.00659864
0.00669541
0.0067926
0.00689053
0.00698952
0.00708989
0.00719195
0.007296
0.00740228
0.00751098
0.00762222
0.00773606
0.00785249
0.00797141
0.00809267
0.00821604
0.00834124
0.00846795
0.00859579
0.0087244
0.00885335
0.00898226
0.0091107
0.00923831
0.00936469
0.0094895
0.00961239
0.00973301
0.00985103
0.00996611
0.0100774
0.0101848
0.0102879
0.0103863
0.0104799
0.010568
0.0106505
0.0107267
0.0107962
0.0108584
0.0109126
0.010958
0.0109939
0.0110191
0.0110326
0.011033
0.0110189
0.0109886
0.0109403
0.010872
0.0107817
0.010667
0.0105255
0.0103549
0.0101525
0.00991606
0.00964305
0.00933119
0.00897825
0.0085821
0.00814063
0.00765171
0.00711317
0.00652261
0.00585597
0.00508529
0.00421873
0.00327093
0.00226986
0.00127966
0.00046896
0.000115517
6.85836e-05
9.36064e-05
0.000141611
0.000199915
0.000255557
0.00029987
0.000329882
0.00034582
0.000349213
0.000342194
0.0003273
0.000307289
0.000286397
0.000268689
0.000252726
0.000238926
0.000227444
0.000218106
0.00021053
0.000204255
0.000198897
0.000193845
0.000189129
0.000184836
0.00018102
0.000177687
0.000174793
0.00017226
0.000170001
0.000167935
0.000165995
0.000164128
0.000162296
0.000160472
0.00015864
0.000156791
0.000154924
0.000153042
0.000151153
0.000149268
0.000147401
0.000145568
0.000143785
0.000142069
0.000140437
0.000138904
0.000137487
0.0001362
0.000135054
0.000134063
0.000133239
0.000132592
0.000132134
0.000131878
0.000131838
0.000132028
0.000132466
0.000133172
0.00013417
0.000135486
0.00013715
0.000139197
0.000141665
0.00014479
0.000148643
0.000153293
0.000158832
0.000165375
0.000173054
0.000182027
0.000192496
0.000204734
0.000219145
0.000236378
0.00025753
0.000284519
0.000320753
0.000372204
0.000448374
0.00352659
0.0037116
0.00392175
0.00413555
0.00435315
0.00457255
0.00479257
0.0050117
0.00522818
0.0054398
0.00564372
0.00583651
0.00601434
0.00617359
0.00631183
0.00642883
0.00652712
0.00661165
0.00668864
0.00676406
0.00684258
0.00692703
0.00701851
0.00711689
0.0072213
0.00733057
0.00744353
0.00755912
0.00767648
0.00779494
0.00791397
0.00803325
0.00815256
0.00827179
0.00839094
0.0085101
0.00862943
0.00874915
0.00886952
0.00899086
0.00911347
0.00923767
0.00936378
0.00949206
0.00962273
0.00975594
0.00989178
0.0100302
0.0101713
0.0103146
0.0104601
0.0106074
0.0107561
0.0109058
0.0110559
0.0112058
0.0113551
0.0115032
0.0116493
0.011793
0.0119336
0.0120705
0.012203
0.0123305
0.0124523
0.0125678
0.0126757
0.0127762
0.0128688
0.012953
0.0130285
0.0130947
0.0131511
0.0131971
0.0132322
0.0132557
0.013267
0.0132651
0.0132492
0.0132182
0.0131711
0.0131064
0.0130228
0.0129185
0.0127919
0.012641
0.0124638
0.0122582
0.0120222
0.0117537
0.0114508
0.0111117
0.0107348
0.010319
0.00986322
0.00936673
0.00882893
0.00824922
0.00762689
0.00696083
0.00622644
0.00539763
0.00448996
0.0035279
0.00254931
0.00161157
0.000804021
0.000294575
0.000155105
0.000176994
0.000240551
0.00031309
0.000378822
0.000431959
0.000472305
0.000500919
0.0005186
0.000525866
0.000523303
0.000511885
0.000493193
0.000469402
0.000445163
0.000422358
0.000401434
0.000382971
0.000367183
0.000354167
0.000343594
0.000334435
0.000326477
0.00031957
0.000313616
0.000308532
0.000304217
0.000300535
0.000297329
0.000294441
0.00029173
0.000289083
0.000286415
0.00028367
0.000280814
0.000277832
0.000274727
0.00027151
0.000268205
0.000264845
0.000261465
0.000258107
0.000254813
0.000251626
0.000248587
0.000245734
0.000243106
0.000240734
0.000238647
0.000236874
0.000235436
0.000234355
0.000233651
0.000233339
0.000233438
0.000233963
0.00023493
0.000236355
0.000238255
0.000240649
0.000243557
0.000247005
0.000251023
0.000255651
0.000261184
0.000267557
0.000274814
0.000283026
0.000292289
0.000302738
0.000314561
0.000328025
0.000343511
0.00036156
0.000382927
0.000408607
0.00043973
0.000476895
0.000517956
0.00458482
0.00481601
0.00507824
0.00534645
0.00561989
0.00589563
0.00617129
0.00644387
0.00670999
0.0069659
0.00720763
0.00743118
0.00763289
0.00780993
0.00796109
0.00808751
0.00819313
0.00828415
0.0083678
0.00845084
0.00853842
0.00863361
0.00873754
0.00884997
0.00896988
0.0090959
0.00922669
0.00936103
0.0094979
0.00963651
0.00977624
0.00991664
0.0100574
0.0101983
0.0103393
0.0104803
0.0106214
0.0107627
0.0109043
0.0110464
0.0111892
0.0113329
0.0114778
0.0116239
0.0117714
0.0119204
0.0120709
0.0122228
0.012376
0.0125302
0.0126852
0.0128405
0.0129957
0.0131503
0.0133036
0.013455
0.0136039
0.0137495
0.0138911
0.0140279
0.0141591
0.014284
0.0144019
0.0145119
0.0146134
0.0147048
0.0147865
0.0148582
0.0149196
0.0149701
0.0150094
0.015037
0.0150521
0.0150544
0.0150431
0.0150176
0.0149771
0.0149207
0.0148475
0.0147563
0.0146459
0.0145151
0.0143622
0.0141857
0.0139839
0.013755
0.0134972
0.0132088
0.0128882
0.012534
0.0121451
0.0117209
0.0112612
0.0107663
0.0102372
0.00967511
0.00908169
0.00845858
0.00780713
0.00712798
0.00639877
0.00559627
0.00473925
0.00385548
0.00298309
0.00216672
0.00144865
0.00086693
0.000515941
0.000414305
0.000433584
0.000481223
0.000525975
0.000561479
0.000589081
0.000611332
0.000629662
0.000644265
0.000654589
0.00065976
0.000658867
0.000651226
0.000636724
0.000616142
0.000592544
0.00056825
0.00054442
0.000521494
0.000500081
0.000480188
0.000462736
0.000448359
0.000437409
0.000429612
0.000424288
0.00042068
0.000418143
0.000416189
0.000414464
0.000412721
0.000410794
0.000408582
0.000406032
0.000403126
0.000399876
0.000396315
0.000392494
0.000388473
0.000384322
0.000380115
0.000375927
0.000371829
0.000367891
0.000364173
0.000360731
0.000357612
0.000354854
0.00035249
0.000350543
0.000349033
0.000347974
0.000347376
0.000347247
0.000347593
0.000348417
0.000349725
0.00035152
0.00035381
0.000356602
0.000359908
0.000363743
0.000368127
0.000373115
0.000378867
0.000385341
0.00039258
0.000400646
0.000409626
0.000419625
0.000430778
0.000443234
0.000457148
0.00047263
0.000489645
0.000507805
0.000525994
0.00054195
0.00562898
0.00590702
0.0062214
0.00654432
0.00687352
0.00720491
0.0075344
0.00785706
0.0081675
0.00846027
0.0087304
0.00897397
0.0091884
0.00937276
0.00952799
0.00965718
0.00976565
0.00986044
0.00994921
0.0100389
0.0101347
0.0102397
0.0103549
0.0104801
0.0106141
0.0107554
0.0109026
0.0110544
0.0112095
0.0113671
0.0115264
0.0116869
0.0118479
0.0120092
0.0121705
0.0123314
0.0124918
0.0126516
0.0128106
0.0129688
0.0131261
0.0132824
0.0134378
0.0135922
0.0137456
0.0138979
0.014049
0.0141987
0.014347
0.0144935
0.014638
0.0147803
0.0149199
0.0150563
0.0151893
0.0153182
0.0154425
0.0155617
0.0156752
0.0157825
0.015883
0.0159762
0.0160615
0.0161384
0.0162066
0.0162658
0.0163163
0.0163579
0.0163903
0.0164129
0.016425
0.0164261
0.0164153
0.016392
0.0163551
0.0163036
0.0162365
0.0161526
0.0160505
0.015929
0.0157864
0.0156214
0.0154322
0.0152172
0.0149746
0.014703
0.0144007
0.0140665
0.0136994
0.0132986
0.012864
0.0123962
0.0118961
0.0113654
0.0108064
0.0102218
0.00961411
0.00898579
0.00833836
0.00767214
0.00696466
0.00619026
0.00536425
0.00451216
0.00367148
0.00288706
0.00220008
0.00163548
0.00119917
0.000911055
0.000781427
0.000746535
0.0007505
0.000757036
0.000754641
0.000747881
0.00074228
0.000740586
0.000742775
0.00074719
0.000751617
0.000753937
0.000752394
0.000745713
0.000733235
0.00071507
0.000692434
0.00066748
0.000642457
0.000617651
0.000592764
0.000566336
0.000540495
0.000519689
0.000506028
0.00049863
0.000495437
0.000494576
0.000494741
0.000495116
0.000495232
0.000494831
0.000493794
0.000492087
0.000489732
0.000486791
0.000483348
0.000479506
0.000475376
0.000471071
0.000466702
0.000462373
0.00045818
0.000454205
0.000450519
0.000447176
0.000444222
0.000441686
0.000439589
0.000437941
0.000436745
0.000436
0.000435697
0.000435829
0.000436384
0.000437353
0.000438725
0.000440494
0.000442653
0.000445199
0.000448133
0.000451457
0.000455178
0.000459333
0.000463987
0.000469114
0.000474725
0.000480832
0.000487445
0.00049456
0.000502155
0.000510164
0.000518456
0.000526804
0.000534846
0.000542094
0.000548049
0.00660349
0.00692757
0.00729239
0.00766825
0.00805093
0.00843497
0.00881428
0.00918166
0.00952943
0.00985025
0.0101383
0.0103902
0.0106052
0.0107855
0.0109349
0.0110593
0.0111652
0.0112603
0.0113519
0.0114465
0.0115488
0.0116618
0.0117862
0.0119218
0.0120673
0.0122213
0.0123823
0.0125487
0.0127195
0.0128935
0.0130699
0.0132478
0.0134265
0.0136054
0.013784
0.0139615
0.0141375
0.0143116
0.0144831
0.0146516
0.0148168
0.0149781
0.0151353
0.0152879
0.0154358
0.0155786
0.0157162
0.0158484
0.0159751
0.0160962
0.0162117
0.0163217
0.0164263
0.0165255
0.0166195
0.0167086
0.016793
0.0168727
0.0169481
0.0170193
0.0170865
0.0171495
0.0172085
0.0172633
0.0173137
0.0173599
0.0174025
0.0174408
0.0174738
0.0175004
0.0175196
0.01753
0.0175304
0.0175193
0.0174953
0.0174568
0.0174022
0.0173299
0.0172383
0.0171256
0.0169901
0.0168302
0.0166441
0.0164304
0.0161874
0.0159139
0.0156087
0.0152709
0.0149002
0.0144965
0.0140602
0.0135923
0.0130945
0.0125687
0.0120171
0.0114422
0.0108459
0.0102296
0.00959345
0.00893655
0.0082346
0.00745642
0.00661045
0.00571513
0.00480127
0.00391011
0.00308687
0.00237166
0.00179173
0.00135829
0.00106997
0.00092662
0.000909628
0.000946848
0.000951279
0.000941556
0.000921778
0.000898104
0.000878746
0.000867614
0.000863506
0.000863193
0.000863377
0.000861516
0.000855996
0.000845953
0.000831034
0.000811084
0.000785612
0.000754417
0.00072081
0.00068717
0.000653465
0.000619286
0.000588004
0.000564651
0.000550813
0.000544391
0.000542408
0.000542542
0.000543334
0.000543964
0.000544012
0.000543299
0.000541784
0.00053951
0.000536572
0.000533091
0.000529205
0.000525055
0.000520776
0.000516497
0.000512329
0.000508369
0.000504695
0.000501368
0.000498431
0.000495912
0.000493822
0.000492164
0.000490928
0.0004901
0.000489659
0.000489581
0.000489842
0.000490418
0.000491287
0.000492428
0.000493824
0.000495462
0.000497329
0.000499417
0.00050172
0.000504232
0.000506963
0.000509926
0.000513096
0.000516458
0.000519993
0.000523673
0.00052746
0.000531305
0.000535143
0.000538903
0.000542518
0.000545948
0.000549234
0.00745069
0.00781762
0.00822827
0.00865207
0.00908263
0.00951311
0.0099353
0.0103396
0.0107159
0.0110549
0.0113498
0.011598
0.0118013
0.0119653
0.0120983
0.012209
0.0123058
0.0123963
0.0124872
0.0125837
0.0126897
0.0128075
0.0129377
0.01308
0.0132331
0.0133956
0.0135661
0.0137431
0.0139253
0.0141116
0.0143009
0.0144923
0.0146849
0.0148776
0.0150697
0.0152601
0.015448
0.0156324
0.0158125
0.0159873
0.0161559
0.0163175
0.0164714
0.0166169
0.0167534
0.0168806
0.0169981
0.0171059
0.0172041
0.017293
0.0173732
0.0174454
0.0175104
0.0175695
0.0176237
0.0176745
0.017723
0.0177705
0.017818
0.0178666
0.0179168
0.0179689
0.0180232
0.0180792
0.0181364
0.0181939
0.0182516
0.0183091
0.0183649
0.0184172
0.0184644
0.0185048
0.0185364
0.0185577
0.0185666
0.0185614
0.0185404
0.0185016
0.0184433
0.0183637
0.0182612
0.0181343
0.0179813
0.017801
0.0175922
0.017354
0.0170857
0.0167868
0.0164573
0.0160976
0.0157082
0.0152901
0.0148447
0.0143732
0.013877
0.0133573
0.0128146
0.0122488
0.0116588
0.0110427
0.0103754
0.0096217
0.00878235
0.00786579
0.00689034
0.00588392
0.00488128
0.00391972
0.00303516
0.00225937
0.00161759
0.00112544
0.000786583
0.000594944
0.000544683
0.000635772
0.000826986
0.000960415
0.000988761
0.00098604
0.000977114
0.000971282
0.000968769
0.000967965
0.000967245
0.000965043
0.00095947
0.000947923
0.000927254
0.000895211
0.0008547
0.000810343
0.000765603
0.000721402
0.000678479
0.000640621
0.00061219
0.000594123
0.000584139
0.000579163
0.00057675
0.000575338
0.000574038
0.000572393
0.000570206
0.00056743
0.000564106
0.000560323
0.000556199
0.000551862
0.000547441
0.000543056
0.000538815
0.000534809
0.000531112
0.000527777
0.000524839
0.000522319
0.000520218
0.00051853
0.000517235
0.000516308
0.000515718
0.000515432
0.000515417
0.00051564
0.000516071
0.000516685
0.00051746
0.000518376
0.000519419
0.000520579
0.000521846
0.000523215
0.00052468
0.000526242
0.000527902
0.000529652
0.000531484
0.000533395
0.000535379
0.000537435
0.000539568
0.000541792
0.000544135
0.000546649
0.000549413
0.00811123
0.00851484
0.00896311
0.00942597
0.00989484
0.0103618
0.0108165
0.0112474
0.0116419
0.0119887
0.0122801
0.0125139
0.0126945
0.0128316
0.0129379
0.0130259
0.0131061
0.0131862
0.0132717
0.0133661
0.013472
0.0135907
0.0137225
0.0138669
0.0140227
0.0141887
0.0143635
0.0145457
0.0147342
0.0149278
0.0151253
0.0153257
0.0155279
0.0157308
0.0159332
0.0161338
0.0163315
0.016525
0.016713
0.0168943
0.0170675
0.0172316
0.0173855
0.0175282
0.0176592
0.0177777
0.0178837
0.0179773
0.0180586
0.0181286
0.018188
0.0182383
0.0182809
0.0183175
0.0183498
0.0183797
0.0184088
0.0184388
0.018471
0.0185066
0.0185464
0.018591
0.0186405
0.0186948
0.0187533
0.0188154
0.0188797
0.0189454
0.0190119
0.0190779
0.0191421
0.0192027
0.0192581
0.0193066
0.0193465
0.019376
0.0193934
0.019397
0.0193851
0.019356
0.0193083
0.0192405
0.0191514
0.0190399
0.018905
0.0187461
0.0185627
0.0183546
0.0181217
0.0178642
0.0175823
0.0172765
0.0169472
0.0165944
0.0162183
0.0158184
0.0153936
0.0149425
0.0144628
0.0139519
0.0133861
0.0127304
0.0119787
0.0111303
0.0101917
0.00917754
0.00810916
0.00701282
0.00591709
0.00485088
0.00384274
0.00292116
0.00211466
0.0014496
0.000944596
0.000603946
0.000417647
0.000380095
0.000531061
0.000860251
0.00102278
0.00109702
0.00112674
0.00113422
0.00113072
0.00112019
0.00110317
0.00107868
0.00104482
0.000999914
0.000947302
0.000891354
0.000835696
0.000782009
0.000732007
0.000689237
0.000656868
0.000634988
0.000621091
0.000612171
0.000605931
0.000600945
0.000596427
0.00059198
0.000587426
0.000582706
0.000577831
0.000572846
0.000567821
0.000562834
0.000557963
0.000553284
0.000548867
0.000544767
0.00054103
0.000537688
0.000534759
0.000532248
0.00053015
0.000528448
0.000527118
0.00052613
0.000525447
0.000525033
0.000524853
0.00052487
0.000525053
0.000525376
0.000525814
0.000526351
0.000526972
0.00052767
0.000528438
0.000529273
0.000530175
0.000531147
0.000532191
0.000533315
0.000534524
0.000535829
0.00053724
0.000538776
0.000540459
0.00054232
0.000544399
0.000546748
0.000549434
0.00852955
0.00896086
0.00943531
0.00992486
0.0104191
0.0109092
0.0113835
0.0118286
0.0122301
0.0125749
0.0128544
0.0130665
0.0132175
0.0133206
0.0133928
0.0134509
0.0135077
0.0135715
0.0136469
0.0137355
0.0138377
0.0139534
0.0140827
0.0142247
0.0143785
0.014543
0.014717
0.0148993
0.015089
0.015285
0.0154862
0.0156916
0.0159
0.0161102
0.0163211
0.0165312
0.0167392
0.0169437
0.0171433
0.0173365
0.017522
0.0176985
0.0178647
0.0180198
0.0181629
0.0182934
0.018411
0.0185158
0.0186079
0.0186879
0.0187565
0.0188147
0.0188634
0.0189039
0.0189374
0.0189649
0.0189878
0.0190071
0.0190241
0.0190397
0.019055
0.0190712
0.0190892
0.0191098
0.019134
0.0191624
0.0191952
0.0192326
0.0192744
0.0193201
0.0193692
0.0194208
0.0194742
0.0195283
0.0195821
0.0196343
0.0196835
0.0197282
0.0197671
0.0197987
0.0198216
0.0198347
0.0198366
0.0198266
0.0198035
0.0197667
0.0197155
0.0196492
0.0195674
0.0194694
0.0193546
0.0192222
0.0190712
0.0189002
0.0187075
0.0184911
0.0182484
0.0179764
0.0176716
0.0173306
0.0169341
0.0164508
0.0158688
0.0151795
0.0143798
0.0134734
0.0124708
0.0113894
0.0102519
0.00908437
0.00791237
0.00675842
0.00564046
0.00457332
0.00357282
0.00266038
0.001865
0.00121899
0.000745993
0.000447382
0.000300928
0.000282819
0.000386605
0.000578682
0.000766049
0.000887071
0.000937395
0.000939076
0.000915043
0.000879018
0.00083784
0.000794283
0.000752283
0.000716052
0.000688105
0.000668227
0.000654414
0.000644385
0.000636397
0.000629366
0.000622717
0.000616183
0.000609668
0.000603155
0.000596668
0.000590246
0.000583937
0.00057779
0.000571858
0.000566191
0.000560834
0.000555831
0.000551214
0.000547011
0.000543241
0.000539911
0.000537024
0.000534568
0.000532528
0.00053088
0.000529592
0.00052863
0.000527957
0.000527535
0.000527326
0.000527295
0.000527411
0.000527647
0.000527982
0.000528399
0.000528887
0.000529438
0.00053005
0.000530722
0.000531455
0.000532256
0.000533131
0.000534088
0.000535139
0.000536297
0.000537579
0.000539005
0.0005406
0.000542397
0.000544433
0.000546759
0.000549436
0.00866298
0.00911107
0.00959834
0.0101004
0.0106053
0.011104
0.0115839
0.0120304
0.012428
0.0127625
0.0130243
0.0132112
0.0133304
0.0133976
0.0134335
0.0134583
0.0134878
0.0135312
0.0135931
0.0136733
0.0137695
0.0138799
0.0140038
0.0141402
0.0142884
0.0144475
0.0146165
0.0147947
0.0149813
0.0151756
0.0153767
0.0155838
0.0157957
0.0160115
0.0162301
0.0164502
0.0166706
0.0168899
0.0171068
0.01732
0.0175281
0.01773
0.0179243
0.0181101
0.0182864
0.0184524
0.0186073
0.0187507
0.018882
0.019001
0.0191075
0.0192012
0.0192821
0.0193501
0.0194052
0.0194475
0.0194771
0.0194944
0.0194998
0.0194942
0.0194786
0.0194543
0.0194229
0.0193864
0.0193471
0.0193072
0.0192693
0.0192357
0.0192085
0.0191897
0.0191807
0.019182
0.0191934
0.0192142
0.0192446
0.0192846
0.0193337
0.0193916
0.0194576
0.0195307
0.0196101
0.0196949
0.0197842
0.0198769
0.0199723
0.0200692
0.0201667
0.0202635
0.0203584
0.0204496
0.0205354
0.0206132
0.0206805
0.0207341
0.0207703
0.0207851
0.020774
0.0207324
0.0206551
0.0205373
0.0203664
0.0201185
0.0197759
0.019323
0.0187476
0.0180422
0.017206
0.0162458
0.0151771
0.0140245
0.0128194
0.0115949
0.0103795
0.0091915
0.00803699
0.00691278
0.0058123
0.00473294
0.00368319
0.00268844
0.00179384
0.0010593
0.000537728
0.000236131
9.96849e-05
5.49703e-05
6.15728e-05
0.000132906
0.000298534
0.000497265
0.00060335
0.000632743
0.000635527
0.000632413
0.000628678
0.000625118
0.000621586
0.000617879
0.000613894
0.000609612
0.000605057
0.000600277
0.000595322
0.00059024
0.000585083
0.000579898
0.000574736
0.000569647
0.000564684
0.000559898
0.000555338
0.000551048
0.000547069
0.000543433
0.000540164
0.000537277
0.000534778
0.000532665
0.000530924
0.000529537
0.000528476
0.000527711
0.000527208
0.00052693
0.000526844
0.000526916
0.000527117
0.000527423
0.000527814
0.000528275
0.000528798
0.000529376
0.000530007
0.000530692
0.000531436
0.000532244
0.000533123
0.000534084
0.000535137
0.000536296
0.000537578
0.000539005
0.0005406
0.000542397
0.000544433
0.000546759
0.000549436
0.00848957
0.00894245
0.00942869
0.00992892
0.0104303
0.0109238
0.0113963
0.0118327
0.0122171
0.0125348
0.0127755
0.0129368
0.0130261
0.0130603
0.0130624
0.0130555
0.0130578
0.0130799
0.0131278
0.0131992
0.0132894
0.0133941
0.0135116
0.0136409
0.0137814
0.0139324
0.0140935
0.0142643
0.0144445
0.0146336
0.0148313
0.015037
0.01525
0.0154695
0.0156948
0.0159249
0.0161587
0.0163953
0.0166336
0.0168723
0.0171103
0.0173464
0.0175794
0.017808
0.0180311
0.0182473
0.0184553
0.0186538
0.0188415
0.0190169
0.0191787
0.0193255
0.019456
0.019569
0.0196634
0.0197382
0.0197927
0.0198266
0.0198396
0.019832
0.0198043
0.0197577
0.0196935
0.0196136
0.0195204
0.0194164
0.0193048
0.0191889
0.0190724
0.018959
0.0188526
0.0187572
0.0186762
0.0186126
0.0185668
0.0185387
0.0185291
0.018539
0.0185693
0.0186208
0.018694
0.0187892
0.0189062
0.0190451
0.0192056
0.0193872
0.0195891
0.0198104
0.0200495
0.0203045
0.0205727
0.020851
0.0211351
0.0214203
0.021701
0.0219708
0.0222228
0.0224497
0.0226439
0.0227977
0.0229076
0.0229596
0.0229303
0.0227962
0.0225348
0.0221264
0.0215557
0.0208138
0.0199012
0.01883
0.0176263
0.0163284
0.0149815
0.013628
0.0122984
0.011007
0.00975395
0.00853112
0.00732922
0.00614295
0.00497466
0.00383728
0.00275804
0.00178365
0.000983394
0.00043336
0.000153096
5.62027e-05
4.01886e-05
8.75699e-05
0.000272694
0.000477388
0.00055215
0.00056993
0.000573706
0.000574315
0.000574042
0.000573331
0.000572263
0.000570854
0.000569117
0.000567067
0.000564728
0.00056213
0.000559311
0.000556315
0.000553193
0.000549997
0.000546785
0.000543612
0.000540535
0.000537605
0.000534867
0.000532361
0.000530118
0.00052816
0.000526502
0.000525147
0.00052409
0.00052332
0.000522817
0.000522556
0.000522508
0.000522644
0.000522934
0.000523349
0.000523866
0.000524462
0.000525123
0.000525838
0.000526599
0.000527404
0.000528252
0.000529148
0.000530094
0.000531096
0.000532162
0.000533299
0.000534516
0.000535825
0.000537238
0.000538775
0.000540459
0.000542321
0.0005444
0.000546749
0.000549435
0.00801179
0.0084565
0.00892789
0.00941268
0.00989757
0.0103737
0.0108279
0.0112452
0.0116095
0.011906
0.0121243
0.0122615
0.012325
0.0123318
0.012306
0.0122727
0.0122518
0.012257
0.0122936
0.0123574
0.0124423
0.0125428
0.0126543
0.0127762
0.0129079