/*--------------------------------*- C++ -*----------------------------------*\
| =========                 |                                                 |
| \\      /  F ield         | OpenFOAM: The Open Source CFD Toolbox           |
|  \\    /   O peration     | Version:  2406                                  |
|   \\  /    A nd           | Website:  www.openfoam.com                      |
|    \\/     M anipulation  |                                                 |
\*---------------------------------------------------------------------------*/
FoamFile
{
    version     2.0;
    format      ascii;
    arch        "LSB;label=32;scalar=64";
    class       volScalarField;
    location    "400";
    object      k;
}
// * * * * * * * * * * * * * * * * * * * * * * * * * * * * * * * * * * * * * //

dimensions      [0 2 -2 0 0 0 0];

internalField   nonuniform List<scalar> 
5619
(
0.0508797
0.0545051
0.0585086
0.0630081
0.0679591
0.0733716
0.0792152
0.0854324
0.0919234
0.098548
0.105134
0.111498
0.117478
0.122967
0.127939
0.132463
0.136682
0.140784
0.144958
0.149358
0.154091
0.159211
0.164735
0.170653
0.176944
0.183585
0.190553
0.197832
0.20541
0.213279
0.221433
0.229871
0.238594
0.247602
0.256899
0.266488
0.276373
0.286557
0.297044
0.307834
0.318928
0.330323
0.342013
0.353988
0.366236
0.378739
0.391477
0.404426
0.417557
0.430842
0.444248
0.457744
0.471298
0.484881
0.498464
0.512026
0.525546
0.539013
0.552422
0.565777
0.579092
0.5924
0.605747
0.619207
0.632888
0.646941
0.661022
0.67509
0.689133
0.703138
0.717088
0.73096
0.744724
0.758336
0.771747
0.784891
0.79769
0.81005
0.821858
0.832982
0.84327
0.852545
0.860607
0.867228
0.872155
0.875108
0.875777
0.873831
0.868913
0.860653
0.848669
0.832581
0.812021
0.786657
0.756203
0.720453
0.679309
0.632831
0.581312
0.525418
0.465225
0.394192
0.326948
0.254808
0.179361
0.116547
0.0641997
0.0149687
0.0151656
0.0166913
0.0175461
0.0178557
0.0177775
0.0174129
0.0168381
0.0161231
0.0153276
0.0144993
0.0137339
0.0130694
0.0125049
0.0120368
0.0116578
0.0113574
0.011123
0.010941
0.0107983
0.0106836
0.0105883
0.0104963
0.0104054
0.0103142
0.0102222
0.010129
0.0100344
0.00993823
0.00984031
0.00974052
0.00963873
0.00953483
0.00942871
0.00932029
0.00920958
0.00909662
0.00898153
0.00886444
0.00874557
0.00862521
0.00850375
0.00838161
0.00825929
0.00813734
0.00801642
0.00789723
0.00778052
0.00766704
0.00755758
0.00745294
0.00735395
0.00726136
0.00717584
0.00709796
0.0070282
0.00696692
0.00691438
0.00687062
0.00683555
0.00680889
0.00679029
0.00677924
0.00677518
0.00677742
0.00678536
0.00679825
0.00681553
0.00683723
0.00686447
0.00690054
0.00695237
0.00703248
0.00716018
0.00736046
0.00765665
0.00805034
0.00846876
0.00861758
0.00760479
0.0630948
0.0685649
0.0748913
0.0817823
0.0892569
0.097287
0.105841
0.114861
0.124263
0.133924
0.143691
0.153385
0.162826
0.171868
0.18044
0.188576
0.196415
0.204178
0.212114
0.220446
0.229343
0.238904
0.249167
0.260132
0.271773
0.284057
0.296952
0.310427
0.32446
0.339033
0.354131
0.369747
0.385873
0.402506
0.419644
0.437285
0.455431
0.47408
0.493233
0.512887
0.533038
0.55368
0.574801
0.596387
0.618419
0.640874
0.663724
0.686939
0.710484
0.734326
0.758428
0.782759
0.807285
0.831979
0.856817
0.881782
0.906865
0.932061
0.957375
0.982819
1.00842
1.0342
1.0602
1.08647
1.11306
1.14004
1.16723
1.1946
1.22213
1.24982
1.27765
1.30561
1.33364
1.36171
1.38975
1.41766
1.44533
1.47262
1.49935
1.52531
1.55023
1.5738
1.59565
1.61535
1.6324
1.64623
1.6562
1.66156
1.66155
1.65528
1.64187
1.62037
1.58986
1.54946
1.49841
1.43609
1.36216
1.27662
1.17995
1.07301
0.954002
0.819639
0.671354
0.512174
0.346552
0.190648
0.0715376
0.0183147
0.0113397
0.00898731
0.00730871
0.00615665
0.00535295
0.00478285
0.00439107
0.00414926
0.00403451
0.00402458
0.00405547
0.00410247
0.00415963
0.00422122
0.00428195
0.00433813
0.00438828
0.00443299
0.00447405
0.00451294
0.00455061
0.00459042
0.00463189
0.00467471
0.00471849
0.00476294
0.00480781
0.00485296
0.00489833
0.0049439
0.00498967
0.00503567
0.00508193
0.00512851
0.00517553
0.00522305
0.00527117
0.00531996
0.00536951
0.00541991
0.00547118
0.00552332
0.00557625
0.0056299
0.0056841
0.00573861
0.00579311
0.00584722
0.00590052
0.00595256
0.00600279
0.00605065
0.00609553
0.00613688
0.00617414
0.00620677
0.00623421
0.00625589
0.00627121
0.00627949
0.00627985
0.00627108
0.00625142
0.00621979
0.00617828
0.00612361
0.00605005
0.00594979
0.0058128
0.00562724
0.0053815
0.00506861
0.00469371
0.00428273
0.00388677
0.0035755
0.00342087
0.00348399
0.00379533
0.0774712
0.0850463
0.0936827
0.103054
0.11317
0.123977
0.135411
0.147366
0.159705
0.172258
0.184833
0.197234
0.209287
0.220873
0.231959
0.242627
0.253066
0.263544
0.274352
0.285749
0.297923
0.310989
0.324988
0.33992
0.355756
0.37246
0.389995
0.408327
0.427431
0.447286
0.467876
0.489191
0.511221
0.53396
0.557403
0.581544
0.606379
0.6319
0.6581
0.684966
0.712481
0.740624
0.769366
0.798673
0.828503
0.858807
0.889533
0.920619
0.952003
0.983621
1.01541
1.0473
1.07925
1.11119
1.14308
1.17489
1.20659
1.23816
1.26959
1.30089
1.33206
1.36312
1.3941
1.42501
1.45589
1.48675
1.51749
1.54803
1.57838
1.60853
1.63846
1.66815
1.69759
1.72671
1.75546
1.78374
1.81143
1.83839
1.86441
1.88925
1.91262
1.93414
1.95337
1.96982
1.98286
1.99181
1.9959
1.99425
1.98592
1.96991
1.94516
1.91063
1.86532
1.80831
1.73884
1.65638
1.56072
1.45197
1.33071
1.1979
1.05107
0.886296
0.708181
0.52296
0.341231
0.180336
0.0663819
0.0178103
0.00952801
0.00753574
0.00637904
0.00565206
0.00512238
0.00466253
0.00423811
0.00386608
0.00357485
0.00338034
0.00327304
0.00322166
0.00320646
0.00321388
0.00323283
0.00325454
0.00327362
0.00328831
0.00329966
0.00330957
0.00332012
0.00333348
0.00334977
0.00336891
0.00339039
0.00341362
0.00343808
0.00346336
0.00348921
0.00351546
0.00354205
0.00356899
0.00359634
0.00362419
0.00365268
0.00368194
0.00371212
0.00374337
0.00377584
0.00380965
0.00384489
0.00388159
0.00391972
0.00395918
0.00399979
0.00404124
0.00408313
0.00412494
0.00416604
0.0042057
0.00424304
0.00427711
0.00430688
0.00433127
0.00434918
0.00435947
0.00436104
0.00435278
0.00433368
0.00430281
0.00425931
0.00420252
0.00413202
0.00404976
0.00395527
0.00384763
0.00372614
0.00359068
0.00344226
0.00328373
0.00312066
0.00296231
0.00282218
0.00271814
0.00267186
0.00270797
0.0028526
0.00312708
0.00351413
0.0917743
0.101202
0.111882
0.12348
0.135989
0.149338
0.163428
0.178109
0.193194
0.208461
0.223679
0.238631
0.25314
0.267101
0.280511
0.293482
0.306246
0.319113
0.332421
0.346468
0.361473
0.377569
0.394808
0.413192
0.432692
0.453267
0.474878
0.497488
0.521068
0.545595
0.571048
0.597413
0.624677
0.652826
0.681849
0.711731
0.742458
0.774011
0.806366
0.839496
0.873366
0.907935
0.943152
0.978959
1.01529
1.05207
1.08922
1.12665
1.16427
1.20198
1.23971
1.27735
1.31483
1.35208
1.38902
1.4256
1.46177
1.49749
1.53275
1.56751
1.60176
1.6355
1.66873
1.70145
1.73364
1.76533
1.79638
1.82675
1.85642
1.88538
1.91359
1.94104
1.96769
1.99348
2.01833
2.04214
2.06479
2.08608
2.10582
2.12373
2.13948
2.15268
2.16285
2.16944
2.17184
2.16932
2.16111
2.14633
2.12409
2.09344
2.05345
2.00322
1.94191
1.86883
1.78348
1.68556
1.57507
1.45233
1.31806
1.17336
1.01558
0.8414
0.65731
0.472259
0.298689
0.153072
0.0554356
0.0156649
0.00881245
0.00803146
0.00781592
0.00761991
0.00729457
0.00678222
0.00610455
0.00534379
0.0046026
0.00397057
0.00349761
0.00318915
0.00299106
0.00286711
0.00279353
0.00275136
0.00272562
0.00270633
0.00268833
0.00266996
0.00265237
0.00263601
0.00262236
0.00261245
0.00260638
0.0026037
0.0026037
0.00260565
0.00260893
0.00261306
0.00261773
0.00262274
0.00262801
0.0026335
0.00263927
0.00264538
0.00265193
0.00265905
0.00266686
0.00267548
0.00268499
0.00269546
0.00270691
0.00271929
0.00273252
0.0027464
0.00276068
0.00277501
0.00278896
0.00280203
0.00281363
0.00282314
0.0028299
0.00283325
0.00283259
0.00282737
0.00281715
0.00280167
0.00278085
0.00275488
0.00272424
0.00268975
0.00265263
0.00261339
0.00257292
0.00253249
0.00249367
0.00245845
0.00242938
0.00240963
0.00240311
0.00241464
0.00244992
0.00251563
0.00261924
0.00276859
0.00297
0.00322294
0.00350598
0.106162
0.117377
0.130053
0.143839
0.158712
0.17458
0.191308
0.208704
0.226528
0.244512
0.262388
0.279917
0.29692
0.313299
0.329066
0.344355
0.359428
0.374638
0.390366
0.406957
0.424668
0.443656
0.463988
0.485672
0.508679
0.532967
0.558491
0.585211
0.613092
0.642104
0.672222
0.703423
0.735685
0.768983
0.803293
0.838586
0.87483
0.911987
0.950015
0.988863
1.02847
1.06878
1.10971
1.15118
1.19309
1.23536
1.27786
1.32051
1.36317
1.40574
1.44811
1.49018
1.53184
1.57301
1.61359
1.65352
1.69273
1.73117
1.76879
1.80554
1.8414
1.87632
1.91027
1.94324
1.97518
2.00607
2.03578
2.06425
2.09145
2.11734
2.14187
2.16498
2.18661
2.20667
2.22505
2.24162
2.25622
2.26865
2.27867
2.28598
2.29024
2.29105
2.28793
2.28037
2.26775
2.24945
2.22476
2.19297
2.15335
2.1052
2.04786
1.98076
1.90348
1.81573
1.71744
1.60874
1.49003
1.36196
1.2255
1.08193
0.928762
0.763345
0.59255
0.425106
0.271159
0.141443
0.0515366
0.0148325
0.00901045
0.00903345
0.00942065
0.00960472
0.00956338
0.00930771
0.00883253
0.00814648
0.00728841
0.00633435
0.00538664
0.00454654
0.00389849
0.00343833
0.00311169
0.00289086
0.00274702
0.00265456
0.00259269
0.00254599
0.00250548
0.00246525
0.00242624
0.00239051
0.0023595
0.00233377
0.00231296
0.0022962
0.00228245
0.00227073
0.00226027
0.00225049
0.00224101
0.00223161
0.00222216
0.00221266
0.00220316
0.00219378
0.00218467
0.00217599
0.0021679
0.00216059
0.00215419
0.00214883
0.00214457
0.00214145
0.00213946
0.00213853
0.00213854
0.00213936
0.00214081
0.00214268
0.00214478
0.00214695
0.00214905
0.00215099
0.00215277
0.00215448
0.00215631
0.00215857
0.00216172
0.0021663
0.00217299
0.00218209
0.00219412
0.00221002
0.00223084
0.00225786
0.00229252
0.00233653
0.0023919
0.00246099
0.00254654
0.0026516
0.0027794
0.00293283
0.00311328
0.00331825
0.00353768
0.120942
0.133968
0.148687
0.164722
0.182025
0.200482
0.219919
0.24009
0.260702
0.281431
0.301972
0.322066
0.341533
0.360288
0.378362
0.395914
0.413236
0.430721
0.448793
0.467838
0.488149
0.509907
0.533196
0.55803
0.584383
0.612208
0.641459
0.672087
0.704051
0.737313
0.771837
0.807589
0.84453
0.882622
0.92182
0.962074
1.00333
1.04552
1.08858
1.13243
1.17699
1.22215
1.26783
1.3139
1.36026
1.40679
1.45337
1.49987
1.54616
1.59214
1.63768
1.68267
1.72702
1.77063
1.81343
1.85532
1.89626
1.93617
1.975
2.01271
2.04923
2.08453
2.11855
2.15124
2.18255
2.21239
2.24062
2.26719
2.29201
2.315
2.33607
2.35511
2.37199
2.38658
2.39871
2.4082
2.41484
2.41837
2.41853
2.41499
2.4074
2.39533
2.37835
2.35598
2.32769
2.29296
2.25126
2.20209
2.14499
2.07962
2.00573
1.92323
1.83224
1.73303
1.62611
1.51216
1.392
1.26657
1.1369
1.00399
0.865192
0.717666
0.566924
0.419828
0.283788
0.165643
0.0733671
0.0242219
0.0118609
0.010654
0.0107778
0.0108777
0.010877
0.010821
0.0107013
0.0104734
0.0100868
0.00950636
0.0087272
0.00778482
0.00675581
0.00575412
0.00489358
0.00421108
0.00368117
0.00329288
0.0030264
0.00285233
0.00273717
0.00265129
0.00258298
0.00252605
0.00247798
0.00243786
0.00240498
0.00237824
0.00235621
0.00233741
0.00232049
0.00230441
0.0022884
0.00227198
0.0022549
0.00223707
0.00221856
0.00219955
0.00218028
0.00216106
0.00214224
0.00212416
0.00210715
0.00209151
0.00207751
0.00206535
0.00205519
0.00204714
0.00204123
0.00203747
0.00203582
0.00203621
0.00203858
0.00204283
0.00204893
0.00205681
0.00206648
0.00207799
0.00209143
0.00210696
0.00212479
0.00214521
0.00216853
0.00219514
0.00222556
0.00226022
0.0022998
0.00234513
0.00239712
0.00245687
0.00252561
0.00260475
0.00269586
0.00280057
0.00292049
0.00305689
0.0032102
0.00337929
0.00356095
0.136133
0.151007
0.167824
0.186174
0.205974
0.227082
0.249267
0.272224
0.295581
0.318951
0.341979
0.364391
0.38602
0.40682
0.42687
0.446376
0.465672
0.485183
0.505365
0.526625
0.549277
0.573518
0.599443
0.627072
0.65638
0.687321
0.719844
0.753895
0.789426
0.826387
0.864731
0.904408
0.945363
0.987536
1.03086
1.07526
1.12064
1.16693
1.214
1.26177
1.31009
1.35886
1.40795
1.45722
1.50653
1.55576
1.60478
1.65346
1.70169
1.74936
1.79637
1.84264
1.88809
1.93267
1.97633
2.01902
2.0607
2.10135
2.14093
2.17942
2.21679
2.25298
2.28797
2.32169
2.35409
2.38502
2.41436
2.44198
2.46774
2.49148
2.51301
2.53215
2.54868
2.56235
2.57291
2.58007
2.58352
2.58294
2.57795
2.56818
2.55322
2.53263
2.50596
2.47276
2.4326
2.38506
2.32979
2.26653
2.19516
2.1157
2.02838
1.93364
1.83214
1.72477
1.61254
1.49658
1.37796
1.25762
1.13622
1.01404
0.887797
0.753617
0.615364
0.478703
0.350476
0.237073
0.142913
0.0714082
0.0331492
0.019835
0.01562
0.0138702
0.0128998
0.0123223
0.0119984
0.0118309
0.0117296
0.0116099
0.0113969
0.0110285
0.0104599
0.0096727
0.00868652
0.00757347
0.00645914
0.00544151
0.00458887
0.00392956
0.00344513
0.00309582
0.00286145
0.00271072
0.00261626
0.00255763
0.00252124
0.00249843
0.00248359
0.00247291
0.00246378
0.00245437
0.00244351
0.00243049
0.00241497
0.00239693
0.00237655
0.00235419
0.00233033
0.00230552
0.00228037
0.00225548
0.00223144
0.00220879
0.00218799
0.00216944
0.00215344
0.00214021
0.00212987
0.0021225
0.0021181
0.0021166
0.00211795
0.00212203
0.00212874
0.002138
0.00214975
0.00216394
0.00218059
0.00219975
0.00222153
0.00224608
0.00227363
0.00230444
0.00233887
0.00237743
0.0024205
0.00246864
0.00252251
0.00258286
0.00265051
0.0027264
0.00281155
0.00290702
0.00301386
0.00313307
0.00326547
0.00341172
0.00357272
0.15134
0.168045
0.186945
0.207592
0.229856
0.25355
0.278377
0.30394
0.329772
0.355396
0.3804
0.404502
0.427582
0.449684
0.470986
0.491785
0.512466
0.533476
0.555267
0.578238
0.602697
0.628837
0.656755
0.686477
0.717981
0.751224
0.786154
0.822717
0.860858
0.900521
0.941649
0.984176
1.02803
1.07314
1.11941
1.16673
1.215
1.26409
1.31386
1.36418
1.4149
1.46585
1.5169
1.56788
1.61866
1.6691
1.71907
1.76848
1.81723
1.86527
1.91256
1.95906
2.00479
2.04977
2.09402
2.13758
2.1805
2.22282
2.26458
2.30582
2.34653
2.38672
2.42636
2.4654
2.50378
2.54136
2.57791
2.61316
2.64685
2.67868
2.70832
2.73541
2.75959
2.78044
2.79755
2.81046
2.81871
2.82182
2.81931
2.81069
2.79545
2.77312
2.74322
2.70533
2.65908
2.60418
2.54045
2.4679
2.38667
2.29715
2.19999
2.09604
1.98642
1.87239
1.75529
1.63639
1.51671
1.39692
1.27715
1.15694
1.03225
0.89798
0.757025
0.614681
0.478125
0.354737
0.249974
0.16594
0.101844
0.0596328
0.0380173
0.0274896
0.021738
0.0182778
0.0161206
0.0147869
0.014003
0.0135686
0.013328
0.013156
0.0129505
0.0126301
0.0121338
0.0114226
0.0104862
0.00935244
0.00809523
0.00682261
0.00563769
0.00459395
0.00378592
0.003228
0.00287923
0.00268174
0.00258182
0.00253905
0.00252686
0.00252921
0.00253676
0.0025442
0.00254857
0.00254836
0.00254296
0.00253233
0.00251683
0.00249707
0.00247387
0.00244812
0.00242078
0.00239278
0.00236501
0.00233828
0.00231329
0.00229061
0.0022707
0.00225387
0.00224034
0.00223022
0.00222353
0.0022202
0.00222016
0.00222325
0.00222934
0.00223828
0.00224996
0.00226427
0.00228116
0.00230061
0.00232267
0.00234743
0.00237502
0.00240565
0.00243957
0.00247714
0.00251877
0.00256485
0.00261588
0.00267244
0.00273518
0.00280485
0.00288228
0.00296843
0.00306437
0.00317137
0.00329098
0.00342522
0.00357706
0.165677
0.184073
0.204881
0.227626
0.252108
0.27809
0.305181
0.332876
0.360583
0.387716
0.413798
0.438559
0.461973
0.484237
0.505701
0.526789
0.54795
0.569625
0.592224
0.616094
0.6415
0.668615
0.697528
0.728268
0.76082
0.795151
0.831218
0.868971
0.908361
0.949331
0.991823
1.03577
1.08109
1.1277
1.17549
1.22435
1.27415
1.32474
1.37597
1.42768
1.47969
1.53184
1.58396
1.63589
1.6875
1.73865
1.78927
1.83929
1.88868
1.93745
1.98566
2.03338
2.08073
2.12785
2.17488
2.22198
2.26932
2.31701
2.36518
2.4139
2.46319
2.51303
2.56336
2.61404
2.66491
2.71583
2.76651
2.81646
2.8652
2.91222
2.95702
2.99905
3.03773
3.07248
3.10269
3.12775
3.14703
3.15991
3.16578
3.16406
3.15419
3.13565
3.10799
3.07082
3.02388
2.96703
2.90026
2.82377
2.73799
2.64355
2.54133
2.43242
2.3181
2.19972
2.0786
1.95589
1.83238
1.70841
1.58376
1.45767
1.32551
1.18114
1.02674
0.866927
0.70833
0.558321
0.423511
0.308614
0.215918
0.145284
0.0947186
0.0625667
0.0441324
0.0336247
0.0269975
0.0224651
0.019397
0.0174006
0.0161513
0.0153763
0.0148539
0.0144123
0.0139314
0.0133403
0.0126097
0.0117393
0.0107427
0.00963161
0.00840639
0.00707709
0.00579412
0.00468846
0.00384039
0.00326164
0.00291045
0.00272115
0.00263325
0.00260202
0.00259891
0.0026071
0.00261722
0.00262429
0.00262593
0.00262123
0.00261022
0.00259348
0.00257191
0.0025466
0.00251875
0.00248951
0.00245999
0.00243119
0.00240396
0.00237902
0.0023569
0.00233801
0.0023226
0.00231079
0.00230261
0.00229802
0.00229689
0.00229906
0.00230435
0.00231259
0.0023236
0.00233726
0.00235345
0.00237212
0.00239327
0.00241694
0.00244325
0.00247235
0.00250446
0.00253985
0.00257885
0.00262189
0.0026694
0.00272191
0.00278003
0.00284451
0.00291619
0.00299613
0.0030856
0.00318617
0.00329989
0.00342939
0.00357821
0.177807
0.197566
0.21988
0.244262
0.270432
0.298092
0.326751
0.355778
0.384445
0.412048
0.438045
0.462194
0.484607
0.505691
0.526021
0.546189
0.566708
0.587991
0.610362
0.634077
0.659331
0.686257
0.714927
0.745371
0.777592
0.811572
0.847286
0.884706
0.923799
0.964525
1.00684
1.05069
1.09601
1.14272
1.19073
1.23994
1.29021
1.34141
1.3934
1.44602
1.4991
1.55248
1.60601
1.65955
1.71298
1.76621
1.81919
1.87191
1.9244
1.97673
2.02904
2.08149
2.13426
2.18759
2.24168
2.29676
2.35301
2.41061
2.46965
2.53017
2.59215
2.65547
2.71997
2.78536
2.85132
2.91746
2.98364
3.04956
3.1145
3.17782
3.23887
3.29699
3.3515
3.40171
3.4469
3.48634
3.51933
3.54514
3.56311
3.57258
3.57299
3.56381
3.54462
3.51513
3.47516
3.42468
3.36385
3.293
3.21266
3.12355
3.02658
2.92279
2.81328
2.69919
2.5815
2.46103
2.33823
2.21317
2.08551
1.95455
1.81541
1.66126
1.4936
1.31598
1.13365
0.952594
0.77856
0.616425
0.470165
0.343111
0.237983
0.156398
0.0982078
0.0608931
0.0397197
0.028942
0.0234717
0.0203053
0.0182111
0.0167893
0.0158215
0.0151234
0.0145609
0.014051
0.0135448
0.0130037
0.0123772
0.0115894
0.0105573
0.00924115
0.00778772
0.00638184
0.00517654
0.004251
0.00360793
0.00320114
0.00296561
0.00284029
0.00277889
0.00275087
0.00273782
0.00272932
0.00271988
0.00270685
0.00268927
0.00266712
0.00264098
0.00261174
0.00258043
0.00254816
0.00251596
0.0024848
0.00245552
0.00242879
0.00240512
0.00238491
0.00236836
0.00235558
0.00234658
0.00234126
0.00233949
0.00234106
0.00234578
0.00235345
0.00236385
0.00237684
0.00239229
0.00241012
0.0024303
0.00245288
0.00247793
0.00250562
0.00253613
0.00256974
0.00260676
0.00264759
0.00269269
0.00274261
0.00279799
0.0028596
0.00292838
0.00300544
0.00309219
0.00319037
0.00330214
0.00343031
0.00357842
0.186216
0.206812
0.229993
0.255286
0.282331
0.310776
0.340036
0.369367
0.397915
0.424863
0.449611
0.471952
0.492138
0.510807
0.528781
0.546841
0.565575
0.58536
0.606414
0.628873
0.652844
0.678402
0.705601
0.734472
0.765035
0.797298
0.831269
0.86695
0.904343
0.943442
0.984237
1.02671
1.07083
1.11656
1.16385
1.21262
1.2628
1.3143
1.367
1.42079
1.47555
1.53115
1.58749
1.64446
1.70196
1.75994
1.81837
1.87723
1.93655
1.99641
2.05688
2.11808
2.18013
2.24316
2.3073
2.37266
2.43932
2.50736
2.57678
2.64758
2.71969
2.793
2.86736
2.94254
3.01829
3.09425
3.17005
3.24539
3.32018
3.394
3.46625
3.53632
3.60357
3.66729
3.72677
3.78126
3.83001
3.87227
3.90732
3.93446
3.95311
3.96271
3.96286
3.95325
3.93373
3.90428
3.86506
3.81635
3.75861
3.69238
3.61832
3.53712
3.44947
3.35597
3.25709
3.15312
3.0441
2.92981
2.80981
2.68354
2.54616
2.39068
2.21797
2.03071
1.83302
1.62983
1.42592
1.22537
1.0313
0.846163
0.672348
0.512833
0.371502
0.25274
0.160178
0.0949663
0.0546092
0.0333353
0.0241221
0.0207669
0.0194654
0.0185713
0.0178137
0.017082
0.0163123
0.0154604
0.0144845
0.0133371
0.0119754
0.0103761
0.00869876
0.00712199
0.00578704
0.00476223
0.00404445
0.00358111
0.00329986
0.00313437
0.00303554
0.00297192
0.00292529
0.0028859
0.00284882
0.00281175
0.00277382
0.00273491
0.00269531
0.00265553
0.0026162
0.00257798
0.0025415
0.00250736
0.00247606
0.002448
0.00242351
0.00240277
0.0023859
0.00237291
0.00236376
0.00235831
0.0023564
0.00235783
0.00236238
0.00236982
0.00237996
0.00239263
0.00240768
0.00242505
0.00244471
0.00246667
0.00249104
0.00251796
0.00254764
0.00258034
0.00261639
0.00265619
0.00270022
0.00274904
0.00280331
0.00286384
0.00293159
0.00300772
0.00309367
0.00319121
0.00330253
0.00343042
0.00357844
0.189704
0.210474
0.233729
0.259038
0.285981
0.314169
0.342953
0.371516
0.398914
0.424248
0.446869
0.466582
0.483746
0.499185
0.513944
0.528988
0.545003
0.562354
0.581173
0.601475
0.62325
0.646515
0.671298
0.69763
0.725549
0.755095
0.786311
0.819243
0.853934
0.890429
0.928764
0.968973
1.01108
1.05511
1.10107
1.14894
1.19873
1.2504
1.30391
1.35923
1.41629
1.47502
1.53537
1.59725
1.66061
1.72536
1.79144
1.85878
1.9273
1.99692
2.06756
2.13911
2.21146
2.28448
2.35804
2.432
2.50622
2.58058
2.65499
2.72938
2.80374
2.87808
2.95245
3.02693
3.1016
3.1765
3.25165
3.32699
3.40238
3.47767
3.5527
3.6273
3.70122
3.77401
3.84511
3.91387
3.97959
4.04153
4.09895
4.15116
4.19747
4.23731
4.27016
4.29562
4.31339
4.32329
4.32526
4.31931
4.30553
4.28406
4.25503
4.21852
4.17458
4.12309
4.06383
3.9964
3.92026
3.83475
3.73916
3.63279
3.51116
3.36751
3.202
3.01656
2.81479
2.60148
2.3818
2.16059
1.94168
1.7275
1.51898
1.31586
1.11735
0.923142
0.734636
0.555913
0.393975
0.257481
0.153677
0.0846516
0.0455821
0.0272421
0.0197616
0.0165308
0.0145014
0.0127281
0.0110282
0.00942873
0.00797438
0.00666948
0.00560008
0.00479097
0.00421926
0.003839
0.00359609
0.0034412
0.00333706
0.0032594
0.00319411
0.00313389
0.00307539
0.0030174
0.00295972
0.00290258
0.00284638
0.00279157
0.00273861
0.00268794
0.00263998
0.00259512
0.00255369
0.00251598
0.00248222
0.00245255
0.00242707
0.0024058
0.00238872
0.00237573
0.00236669
0.00236143
0.00235971
0.00236133
0.00236604
0.00237361
0.00238384
0.00239654
0.00241159
0.00242891
0.00244846
0.00247028
0.00249447
0.00252117
0.00255059
0.00258302
0.00261877
0.00265826
0.00270198
0.00275048
0.00280445
0.0028647
0.00293219
0.00300812
0.0030939
0.00319131
0.00330256
0.00343042
0.00357843
0.187867
0.208134
0.230668
0.255107
0.280996
0.307936
0.33526
0.362127
0.387567
0.410646
0.430684
0.447473
0.461403
0.473391
0.484626
0.496225
0.508982
0.523287
0.539299
0.556933
0.576
0.596464
0.618329
0.641625
0.666404
0.692733
0.720689
0.75036
0.781834
0.815204
0.850558
0.887985
0.927568
0.969387
1.01352
1.06002
1.10896
1.16038
1.21432
1.2708
1.32983
1.3914
1.45549
1.52204
1.59097
1.66219
1.73553
1.81083
1.88785
1.96632
2.04592
2.12629
2.20702
2.2877
2.36788
2.44714
2.5251
2.60141
2.67581
2.74816
2.81842
2.8867
2.95323
3.01836
3.08256
3.14634
3.21028
3.27489
3.34066
3.40794
3.47696
3.54756
3.61934
3.69262
3.76754
3.84397
3.92158
3.99985
4.07818
4.15594
4.23245
4.30708
4.37921
4.44828
4.51379
4.5753
4.63242
4.68476
4.73193
4.77353
4.80903
4.83781
4.85911
4.87196
4.87524
4.86764
4.84772
4.81399
4.76496
4.69925
4.61301
4.49992
4.35858
4.18949
3.99525
3.78042
3.55105
3.314
3.07608
2.8431
2.61905
2.40543
2.20104
2.00214
1.8033
1.59861
1.38329
1.15551
0.918239
0.680775
0.458953
0.272623
0.138478
0.0597456
0.0230737
0.00937779
0.00514131
0.00399125
0.00366556
0.00351804
0.00341723
0.00334198
0.00328736
0.00324652
0.00321232
0.00317955
0.00314521
0.00310803
0.00306783
0.00302496
0.00297999
0.00293352
0.00288613
0.00283834
0.00279064
0.00274352
0.00269743
0.00265285
0.00261022
0.00256998
0.0025325
0.00249815
0.00246721
0.00243991
0.00241641
0.0023968
0.00238111
0.00236929
0.00236124
0.00235681
0.00235583
0.00235807
0.00236333
0.00237137
0.00238201
0.00239507
0.00241042
0.00242799
0.00244775
0.00246975
0.00249407
0.00252088
0.00255039
0.00258287
0.00261868
0.0026582
0.00270194
0.00275045
0.00280444
0.00286469
0.00293219
0.00300811
0.0030939
0.00319131
0.00330256
0.00343042
0.00357843
0.181248
0.200454
0.221637
0.244506
0.268603
0.293543
0.318678
0.343201
0.366175
0.386689
0.404061
0.41806
0.429037
0.437895
0.445855
0.454119
0.46358
0.474694
0.487719
0.502482
0.518767
0.536347
0.555227
0.575437
0.597033
0.620098
0.644736
0.671066
0.699212
0.729304
0.761475
0.795854
0.832573
0.871761
0.913541
0.958037
1.00536
1.05563
1.10892
1.16533
1.2249
1.28769
1.35367
1.42282
1.49505
1.57022
1.64811
1.72844
1.81086
1.89494
1.98016
2.06594
2.15167
2.23668
2.32028
2.40182
2.48068
2.55631
2.62826
2.69621
2.76002
2.8197
2.87546
2.92772
2.97708
3.02433
3.07041
3.11637
3.16334
3.21241
3.26464
3.32093
3.38195
3.44716
3.51582
3.58878
3.6665
3.74912
3.83657
3.92857
4.02473
4.12453
4.22743
4.33285
4.44021
4.54894
4.65846
4.76817
4.87745
4.98553
5.09155
5.19441
5.29276
5.38497
5.46905
5.5427
5.60333
5.64813
5.67416
5.67856
5.6584
5.60819
5.52338
5.40104
5.24057
5.0441
4.81664
4.56583
4.30121
4.03297
3.77049
3.52082
3.28751
3.07009
2.86418
2.66247
2.45607
2.23614
1.99539
1.72964
1.43927
1.13092
0.819239
0.527865
0.287189
0.124205
0.0421625
0.0130098
0.0052237
0.0034079
0.00307902
0.00302114
0.00300426
0.00299222
0.00297892
0.00296313
0.0029446
0.00292326
0.00289915
0.00287238
0.00284311
0.00281159
0.00277813
0.00274311
0.00270695
0.00267016
0.00263324
0.00259674
0.00256119
0.00252712
0.00249502
0.00246531
0.00243837
0.00241452
0.00239397
0.0023769
0.00236338
0.00235342
0.00234699
0.00234397
0.00234421
0.00234754
0.00235377
0.00236269
0.00237411
0.00238789
0.00240391
0.00242208
0.00244241
0.00246493
0.00248975
0.00251702
0.00254697
0.00257987
0.00261608
0.00265599
0.00270009
0.00274896
0.00280327
0.00286382
0.00293158
0.00300772
0.00309367
0.00319121
0.00330253
0.00343043
0.00357844
0.171066
0.188858
0.20831
0.229204
0.251095
0.273625
0.296192
0.318054
0.338353
0.356249
0.371098
0.382651
0.391193
0.397531
0.402824
0.408273
0.414826
0.423137
0.433354
0.445338
0.458913
0.473852
0.489987
0.50736
0.526027
0.546077
0.567624
0.590806
0.615768
0.642665
0.671653
0.70289
0.736534
0.772744
0.811674
0.853479
0.898307
0.9463
0.99759
1.05229
1.11049
1.17226
1.23762
1.30655
1.37895
1.45469
1.53351
1.6151
1.69904
1.78479
1.87175
1.95921
2.0464
2.13251
2.2167
2.29814
2.37605
2.44969
2.51845
2.58182
2.63947
2.69124
2.73718
2.77754
2.8128
2.84367
2.87103
2.896
2.91985
2.94404
2.97014
2.99982
3.03479
3.07674
3.12708
3.18468
3.24967
3.32272
3.40426
3.49446
3.5933
3.70059
3.81599
3.93906
4.06929
4.20615
4.34907
4.49751
4.65088
4.80859
4.96998
5.1342
5.30016
5.46639
5.63095
5.79126
5.9441
6.08558
6.2112
6.31601
6.3989
6.45644
6.47971
6.46015
6.39076
6.2675
6.09048
5.86474
5.6001
5.30997
5.00926
4.7119
4.42856
4.16512
3.92212
3.69531
3.47695
3.25749
3.02708
2.7768
2.49942
2.19027
1.84862
1.47997
1.09887
0.731064
0.412527
0.181478
0.057108
0.0134936
0.00445788
0.00324929
0.00311659
0.00307919
0.00304848
0.00301599
0.0029815
0.00294539
0.00290787
0.00286913
0.00282936
0.00278879
0.00274776
0.0027066
0.00266573
0.00262553
0.00258645
0.00254887
0.00251319
0.00247977
0.00244891
0.0024209
0.00239596
0.00237426
0.00235594
0.00234107
0.00232968
0.00232175
0.00231721
0.00231596
0.00231784
0.00232269
0.00233032
0.00234056
0.00235323
0.00236819
0.00238534
0.00240462
0.00242602
0.00244961
0.00247548
0.00250382
0.00253484
0.00256884
0.00260616
0.00264721
0.00269246
0.00274247
0.00279791
0.00285956
0.00292835
0.00300543
0.00309219
0.00319037
0.00330215
0.00343031
0.00357842
0.158723
0.174953
0.192545
0.211345
0.230931
0.250975
0.270926
0.290122
0.307798
0.323207
0.33577
0.345245
0.351854
0.356291
0.359596
0.362917
0.367235
0.373251
0.381095
0.390684
0.401861
0.414461
0.428237
0.443159
0.459278
0.476681
0.495483
0.515827
0.537867
0.561767
0.587694
0.615817
0.646304
0.679323
0.715041
0.753623
0.795231
0.84002
0.888134
0.939706
0.994844
1.05363
1.11611
1.18228
1.25206
1.32533
1.40186
1.48132
1.56329
1.64723
1.73251
1.81839
1.90403
1.98857
2.0711
2.1507
2.22649
2.29761
2.36329
2.42288
2.47587
2.52194
2.56096
2.593
2.61834
2.6375
2.6512
2.66032
2.66597
2.6694
2.67206
2.67554
2.68163
2.69229
2.7097
2.73621
2.77241
2.81877
2.87628
2.94571
3.0276
3.12229
3.22986
3.35014
3.48275
3.62707
3.78237
3.94778
4.12247
4.30566
4.49674
4.69523
4.90084
5.11325
5.33192
5.55577
5.78281
6.00979
6.232
6.44325
6.64534
6.83893
7.0112
7.14689
7.23021
7.24727
7.18894
7.05319
6.84621
6.58169
6.27828
5.95605
5.63279
5.32139
5.0286
4.75518
4.49727
4.24815
4.00002
3.745
3.47548
3.18366
2.86142
2.50137
2.10022
1.6643
1.21485
0.788384
0.423801
0.158866
0.0331997
0.00557596
0.00324284
0.00306644
0.00300492
0.00294913
0.00289413
0.00284125
0.00279092
0.00274311
0.00269766
0.00265444
0.00261335
0.00257433
0.00253736
0.00250243
0.00246956
0.00243878
0.00241013
0.00238369
0.00235954
0.00233778
0.00231854
0.00230192
0.00228806
0.00227707
0.00226901
0.00226395
0.0022619
0.0022628
0.0022666
0.00227318
0.00228241
0.00229416
0.00230828
0.00232466
0.00234323
0.00236396
0.00238685
0.00241199
0.00243951
0.00246958
0.00250247
0.00253848
0.00257795
0.00262131
0.00266904
0.00272169
0.00277991
0.00284444
0.00291616
0.00299612
0.0030856
0.00318618
0.0032999
0.0034294
0.00357822
0.145396
0.160067
0.175843
0.192626
0.210024
0.227733
0.245256
0.261999
0.277288
0.290466
0.301022
0.308739
0.313797
0.316796
0.31866
0.320459
0.323166
0.327456
0.333462
0.341151
0.350385
0.360991
0.372814
0.385679
0.399637
0.414764
0.431172
0.449001
0.468407
0.489551
0.512602
0.537726
0.565092
0.594864
0.627209
0.662288
0.70026
0.741279
0.785491
0.833029
0.884007
0.938515
0.99661
1.0583
1.12355
1.19224
1.26418
1.33909
1.41657
1.49614
1.57719
1.659
1.74079
1.82167
1.90076
1.97714
2.04988
2.11803
2.18072
2.23715
2.28669
2.329
2.36389
2.39113
2.41088
2.42361
2.42992
2.43055
2.42637
2.41841
2.40783
2.39589
2.38401
2.37373
2.36678
2.36509
2.37085
2.38508
2.40916
2.44449
2.49248
2.55456
2.63218
2.72681
2.83968
2.97004
3.11784
3.28241
3.46252
3.65645
3.86223
4.07797
4.30238
4.53507
4.77665
5.02845
5.29183
5.56716
5.85261
6.14327
6.44488
6.76367
7.08475
7.38702
7.64567
7.83588
7.93728
7.93814
7.83807
7.64823
7.38865
7.08356
6.75625
6.42504
6.10132
5.78957
5.48898
5.19577
4.9054
4.61402
4.31863
4.01597
3.70045
3.3621
2.98634
2.55834
2.07417
1.55435
1.03493
0.557933
0.206649
0.0387522
0.00490241
0.00305732
0.00291199
0.00283307
0.00276156
0.002697
0.00263941
0.00258799
0.00254188
0.00250032
0.00246268
0.00242841
0.00239706
0.00236827
0.00234174
0.00231725
0.00229466
0.0022739
0.00225495