/*--------------------------------*- C++ -*----------------------------------*\
| =========                 |                                                 |
| \\      /  F ield         | OpenFOAM: The Open Source CFD Toolbox           |
|  \\    /   O peration     | Version:  2406                                  |
|   \\  /    A nd           | Website:  www.openfoam.com                      |
|    \\/     M anipulation  |                                                 |
\*---------------------------------------------------------------------------*/
FoamFile
{
    version     2.0;
    format      ascii;
    arch        "LSB;label=32;scalar=64";
    class       volScalarField;
    location    "400";
    object      nut;
}
// * * * * * * * * * * * * * * * * * * * * * * * * * * * * * * * * * * * * * //

dimensions      [0 2 -1 0 0 0 0];

internalField   nonuniform List<scalar> 
5619
(
5.07316e-05
5.25061e-05
5.43956e-05
5.64411e-05
5.86054e-05
6.08779e-05
6.32323e-05
6.56346e-05
6.80402e-05
7.03969e-05
7.26496e-05
7.47488e-05
7.66588e-05
7.83659e-05
7.98829e-05
8.12474e-05
8.25144e-05
8.37442e-05
8.49912e-05
8.62954e-05
8.76801e-05
8.91533e-05
9.07128e-05
9.23505e-05
9.40565e-05
9.58212e-05
9.76362e-05
9.94947e-05
0.000101392
0.000103323
0.000105287
0.00010728
0.000109301
0.00011135
0.000113425
0.000115525
0.000117651
0.000119801
0.000121976
0.000124173
0.000126393
0.000128633
0.000130892
0.000133167
0.000135454
0.00013775
0.000140052
0.000142354
0.000144652
0.00014694
0.000149215
0.00015147
0.000153703
0.000155908
0.000158084
0.000160226
0.000162333
0.000164405
0.000166443
0.000168446
0.000170421
0.000172371
0.000174304
0.000176233
0.000178172
0.000180143
0.000182088
0.000184008
0.000185902
0.000187769
0.000189606
0.000191412
0.000193183
0.000194914
0.000196598
0.000198229
0.000199798
0.000201293
0.000202701
0.000204007
0.000205194
0.000206242
0.000207127
0.000207824
0.000208303
0.000208531
0.000208471
0.000208083
0.000207321
0.000206137
0.000204476
0.00020228
0.000199488
0.000196032
0.000191843
0.000186846
0.000180963
0.000174116
0.00016623
0.000157255
0.000146953
0.000133782
0.000120323
0.000103741
8.35298e-05
6.47482e-05
4.40937e-05
1.38008e-05
2.92827e-05
3.00818e-05
3.03815e-05
3.03489e-05
3.00979e-05
2.966e-05
2.90795e-05
2.84006e-05
2.76603e-05
2.68895e-05
2.62196e-05
2.5626e-05
2.5113e-05
2.46814e-05
2.43269e-05
2.40412e-05
2.38134e-05
2.36313e-05
2.34831e-05
2.33593e-05
2.3253e-05
2.31482e-05
2.30434e-05
2.29376e-05
2.28304e-05
2.27217e-05
2.26111e-05
2.24983e-05
2.23832e-05
2.22654e-05
2.21448e-05
2.20212e-05
2.18943e-05
2.17641e-05
2.16304e-05
2.14933e-05
2.13529e-05
2.12092e-05
2.10625e-05
2.0913e-05
2.07613e-05
2.06078e-05
2.0453e-05
2.02977e-05
2.01427e-05
1.99889e-05
1.98373e-05
1.9689e-05
1.95449e-05
1.94064e-05
1.92745e-05
1.91504e-05
1.90352e-05
1.89297e-05
1.88348e-05
1.8751e-05
1.86789e-05
1.86186e-05
1.85701e-05
1.8533e-05
1.8507e-05
1.84915e-05
1.84855e-05
1.84883e-05
1.84988e-05
1.85162e-05
1.85396e-05
1.8569e-05
1.86059e-05
1.86547e-05
1.87246e-05
1.88321e-05
1.90023e-05
1.92663e-05
1.96501e-05
2.01489e-05
2.06659e-05
2.08467e-05
1.95834e-05
0.000259939
0.000276003
0.000294798
0.000313544
0.000332402
0.000351137
0.000369733
0.000388224
0.000406714
0.000425321
0.000444117
0.000463067
0.000481996
0.00050061
0.000518577
0.000535657
0.0005518
0.000567182
0.000582143
0.000597081
0.000612348
0.000628182
0.000644693
0.000661886
0.000679696
0.000698026
0.000716767
0.000735815
0.000755076
0.00077447
0.000793929
0.000813396
0.000832828
0.000852189
0.000871454
0.000890607
0.00090964
0.000928553
0.000947355
0.000966063
0.000984701
0.0010033
0.00102189
0.00104051
0.00105921
0.00107803
0.001097
0.00111618
0.0011356
0.00115531
0.00117533
0.00119569
0.00121643
0.00123756
0.00125909
0.00128104
0.00130339
0.00132616
0.00134931
0.00137282
0.00139666
0.00142077
0.0014451
0.00146957
0.00149408
0.00151853
0.00154346
0.00156888
0.00159479
0.00162124
0.00164823
0.00167579
0.00170393
0.00173263
0.00176187
0.00179159
0.00182173
0.00185218
0.00188278
0.00191336
0.00194367
0.00197342
0.00200226
0.00202977
0.00205546
0.00207873
0.00209895
0.00211535
0.0021271
0.00213328
0.00213286
0.00212478
0.00210787
0.00208093
0.00204275
0.0019921
0.00192778
0.00184868
0.00175385
0.00164238
0.00150958
0.0013496
0.00115297
0.000922672
0.000654989
0.000332175
0.000103628
3.02678e-05
2.6804e-05
2.24818e-05
1.97284e-05
1.83552e-05
1.81019e-05
1.88162e-05
2.04002e-05
2.25785e-05
2.47558e-05
2.62334e-05
2.73961e-05
2.8433e-05
2.93304e-05
3.00732e-05
3.06551e-05
3.10855e-05
3.13907e-05
3.16082e-05
3.17764e-05
3.1925e-05
3.2072e-05
3.2243e-05
3.24386e-05
3.26573e-05
3.28966e-05
3.31535e-05
3.34254e-05
3.37103e-05
3.40068e-05
3.43138e-05
3.46308e-05
3.49573e-05
3.5293e-05
3.56379e-05
3.5992e-05
3.63552e-05
3.67274e-05
3.71085e-05
3.74983e-05
3.78963e-05
3.83019e-05
3.87141e-05
3.91314e-05
3.95521e-05
3.9974e-05
4.03943e-05
4.08097e-05
4.12164e-05
4.16103e-05
4.19868e-05
4.23409e-05
4.26675e-05
4.2961e-05
4.32164e-05
4.34284e-05
4.35921e-05
4.37025e-05
4.37548e-05
4.37442e-05
4.36655e-05
4.35126e-05
4.32775e-05
4.29494e-05
4.25141e-05
4.19933e-05
4.13713e-05
4.06114e-05
3.96656e-05
3.84733e-05
3.69641e-05
3.50715e-05
3.27604e-05
3.00763e-05
2.72041e-05
2.4511e-05
2.25527e-05
2.21281e-05
2.48023e-05
3.63037e-05
0.00070884
0.000755297
0.000808208
0.000861019
0.000914006
0.000966624
0.0010188
0.00107057
0.00112207
0.00117347
0.00122479
0.00127576
0.00132576
0.00137388
0.00141916
0.00146098
0.00149931
0.00153478
0.00156851
0.00160177
0.00163562
0.00167078
0.00170759
0.00174605
0.00178599
0.00182712
0.00186916
0.00191181
0.00195483
0.00199802
0.00204119
0.00208424
0.00212706
0.00216959
0.00221179
0.00225367
0.00229524
0.00233656
0.00237768
0.0024187
0.00245973
0.00250087
0.00254226
0.00258401
0.00262623
0.00266905
0.00271255
0.00275681
0.0028019
0.00284785
0.00289468
0.00294239
0.00299096
0.00304033
0.00309044
0.00314123
0.0031926
0.00324445
0.00329668
0.00334919
0.00340188
0.00345467
0.0035075
0.00356032
0.00361315
0.00366602
0.00371936
0.00377299
0.00382689
0.00388107
0.00393552
0.00399019
0.00404504
0.00409996
0.00415483
0.00420944
0.00426354
0.0043168
0.00436882
0.00441907
0.00446697
0.00451179
0.00455268
0.00458867
0.00461867
0.00464141
0.00465551
0.00465944
0.00465152
0.00462997
0.0045929
0.00453831
0.00446416
0.00436839
0.00424894
0.00410377
0.00393096
0.00372869
0.00349531
0.00322936
0.00292005
0.0025524
0.002126
0.00164386
0.0011098
0.000540784
0.000157816
4.11483e-05
2.89602e-05
2.79405e-05
3.07212e-05
3.6246e-05
4.36585e-05
5.16618e-05
5.86206e-05
6.30887e-05
6.46953e-05
6.42061e-05
6.31713e-05
6.23914e-05
6.16728e-05
6.1004e-05
6.03414e-05
5.96418e-05
5.88943e-05
5.81263e-05
5.73899e-05
5.67349e-05
5.61972e-05
5.5748e-05
5.539e-05
5.51183e-05
5.49212e-05
5.47849e-05
5.46965e-05
5.46449e-05
5.46218e-05
5.46207e-05
5.4637e-05
5.46672e-05
5.47093e-05
5.47618e-05
5.48241e-05
5.48956e-05
5.49765e-05
5.50668e-05
5.5167e-05
5.52774e-05
5.53981e-05
5.55288e-05
5.56688e-05
5.5817e-05
5.59714e-05
5.6129e-05
5.6286e-05
5.64375e-05
5.65779e-05
5.67004e-05
5.6797e-05
5.6859e-05
5.68772e-05
5.68416e-05
5.67424e-05
5.65693e-05
5.63124e-05
5.59618e-05
5.55086e-05
5.49442e-05
5.42611e-05
5.34531e-05
5.25151e-05
5.14653e-05
5.03391e-05
4.91368e-05
4.7868e-05
4.65565e-05
4.5248e-05
4.40208e-05
4.29997e-05
4.23713e-05
4.24004e-05
4.34518e-05
4.6046e-05
5.10417e-05
6.02109e-05
7.81212e-05
0.000121797
0.00135413
0.00143598
0.00152887
0.0016221
0.00171613
0.00181012
0.00190394
0.00199751
0.00209081
0.0021837
0.00227567
0.00236569
0.00245215
0.00253313
0.00260688
0.00267251
0.00273038
0.00278218
0.00283034
0.00287745
0.00292559
0.00297612
0.00302959
0.00308599
0.00314496
0.00320597
0.00326849
0.00333201
0.00339611
0.00346046
0.00352478
0.00358889
0.00365267
0.00371606
0.00377904
0.00384166
0.003904
0.00396619
0.00402839
0.00409079
0.0041536
0.00421702
0.00428128
0.00434658
0.00441311
0.00448101
0.00455041
0.0046214
0.004694
0.0047682
0.00484397
0.0049212
0.00499978
0.00507954
0.0051603
0.00524186
0.00532401
0.00540654
0.00548924
0.00557192
0.00565442
0.00573657
0.00581829
0.00589948
0.0059801
0.00606011
0.00613938
0.00621765
0.00629478
0.00637062
0.00644504
0.00651786
0.00658886
0.0066578
0.00672435
0.00678815
0.00684874
0.00690558
0.00695802
0.00700531
0.00704656
0.00708078
0.00710681
0.00712334
0.00712892
0.00712193
0.00710061
0.00706305
0.00700721
0.00693093
0.00683197
0.00670803
0.00655677
0.00637585
0.00616296
0.00591582
0.00563218
0.00530984
0.0049467
0.00454064
0.00407486
0.00352821
0.00290402
0.00220948
0.00146024
0.00071328
0.000205561
5.1133e-05
3.77079e-05
4.77756e-05
6.76444e-05
9.30967e-05
0.0001183
0.000137665
0.000148376
0.00015065
0.000146598
0.000138896
0.000129962
0.000122743
0.000116728
0.000111551
0.000107213
0.000103575
0.000100438
9.76428e-05
9.51133e-05
9.28381e-05
9.08531e-05
8.90239e-05
8.73892e-05
8.59676e-05
8.47494e-05
8.37089e-05
8.28126e-05
8.20274e-05
8.13244e-05
8.06802e-05
8.00768e-05
7.95011e-05
7.89435e-05
7.83978e-05
7.78599e-05
7.73275e-05
7.68001e-05
7.62783e-05
7.57638e-05
7.52588e-05
7.4766e-05
7.4288e-05
7.38274e-05
7.33866e-05
7.29672e-05
7.257e-05
7.21949e-05
7.18408e-05
7.15056e-05
7.11866e-05
7.08799e-05
7.05813e-05
7.02865e-05
6.99917e-05
6.96937e-05
6.93911e-05
6.90842e-05
6.87762e-05
6.84737e-05
6.81875e-05
6.7933e-05
6.77311e-05
6.76087e-05
6.76662e-05
6.79635e-05
6.85646e-05
6.95547e-05
7.10445e-05
7.31751e-05
7.6124e-05
8.01097e-05
8.53996e-05
9.23263e-05
0.000101342
0.000113167
0.00012918
0.000152363
0.000189885
0.000263034
0.00213556
0.00225444
0.00238948
0.00252594
0.00266426
0.00280329
0.00294263
0.00308178
0.0032202
0.00335703
0.00349087
0.00361967
0.00374078
0.00385144
0.00394947
0.00403415
0.0041067
0.00417012
0.00422838
0.00428537
0.00434418
0.0044067
0.00447365
0.00454495
0.00462003
0.00469811
0.0047784
0.0048602
0.00494293
0.00502612
0.00510943
0.00519263
0.00527559
0.00535823
0.00544058
0.00552272
0.00560479
0.00568698
0.00576953
0.00585269
0.00593674
0.00602197
0.00610864
0.006197
0.00628727
0.00637961
0.00647413
0.00657087
0.00666984
0.00677095
0.00687406
0.006979
0.00708551
0.00719332
0.00730212
0.00741159
0.00752137
0.00763111
0.00774048
0.00784914
0.00795676
0.00806303
0.00816765
0.00827034
0.00837078
0.00846868
0.00856334
0.00865458
0.00874212
0.00882568
0.00890495
0.00897959
0.00904925
0.00911352
0.00917195
0.00922403
0.00926917
0.00930672
0.00933592
0.00935588
0.00936561
0.00936399
0.00934975
0.00932146
0.00927757
0.00921634
0.00913595
0.00903443
0.00890971
0.00875969
0.00858222
0.00837516
0.00813642
0.00786396
0.00755583
0.00721013
0.00682496
0.00639841
0.00592853
0.00541318
0.0048316
0.00415991
0.00340636
0.00258638
0.00173058
0.000908864
0.00029262
7.48791e-05
6.01713e-05
8.74608e-05
0.000131706
0.000182284
0.00022836
0.000263635
0.000286426
0.000297326
0.000297812
0.000289823
0.000275646
0.000257734
0.000240485
0.000225611
0.000212342
0.000201055
0.000191792
0.00018433
0.000178293
0.000173276
0.000168971
0.000164898
0.000161091
0.000157621
0.000154527
0.00015181
0.00014943
0.000147323
0.000145422
0.000143662
0.000141991
0.000140369
0.000138768
0.000137168
0.000135556
0.000133927
0.000132282
0.000130624
0.000128961
0.000127305
0.000125667
0.00012406
0.000122501
0.000121002
0.000119579
0.000118245
0.000117013
0.000115895
0.000114901
0.000114041
0.000113326
0.000112763
0.000112364
0.000112138
0.000112096
0.000112252
0.00011262
0.000113216
0.000114062
0.000115177
0.00011659
0.000118328
0.000120425
0.000123078
0.000126352
0.000130302
0.00013501
0.000140571
0.000147097
0.000154724
0.000163622
0.000174024
0.000186274
0.000200921
0.0002189
0.000241841
0.00027264
0.000316373
0.000381118
0.00300111
0.00315822
0.0033367
0.0035182
0.00370284
0.00388891
0.00407539
0.00426097
0.00444413
0.00462294
0.00479498
0.00495732
0.00510675
0.00524032
0.00535612
0.00545416
0.00553677
0.00560826
0.00567386
0.00573855
0.00580612
0.00587883
0.0059575
0.00604195
0.00613141
0.00622489
0.0063214
0.00642006
0.00652014
0.00662109
0.00672248
0.00682403
0.00692556
0.00702699
0.00712833
0.00722964
0.00733108
0.00743282
0.00753511
0.0076382
0.00774237
0.0078479
0.00795505
0.00806405
0.00817509
0.00828831
0.00840377
0.00852149
0.00864139
0.00876332
0.00888708
0.00901238
0.00913889
0.00926621
0.00939391
0.00952153
0.00964859
0.00977456
0.00989895
0.0100212
0.0101408
0.0102572
0.0103699
0.0104783
0.0105819
0.0106798
0.0107714
0.0108566
0.010935
0.0110062
0.0110699
0.0111256
0.0111728
0.0112112
0.0112401
0.011259
0.0112672
0.0112642
0.0112491
0.0112209
0.0111787
0.0111214
0.0110477
0.0109561
0.0108452
0.0107132
0.0105586
0.0103794
0.0101739
0.00994025
0.00967684
0.0093821
0.0090547
0.0086935
0.0082976
0.00786626
0.00739889
0.00689486
0.0063535
0.00577384
0.00513487
0.00441464
0.00362821
0.00279961
0.00196631
0.0011846
0.000541117
0.000195224
0.000128391
0.000161647
0.000220598
0.000282991
0.000337421
0.000380566
0.000412876
0.000435278
0.000448312
0.00045233
0.000447855
0.000435857
0.000417866
0.000396628
0.000375591
0.000356059
0.000338303
0.000322805
0.000309782
0.00029928
0.000290918
0.000283761
0.000277575
0.000272205
0.000267554
0.000263551
0.000260111
0.000257128
0.000254479
0.000252043
0.000249714
0.000247406
0.000245058
0.000242627
0.000240092
0.000237444
0.000234688
0.000231838
0.000228917
0.000225952
0.000222978
0.000220029
0.000217143
0.000214356
0.000211703
0.000209217
0.000206929
0.000204866
0.000203052
0.000201511
0.00020026
0.000199317
0.000198697
0.000198415
0.000198485
0.00019892
0.000199732
0.000200935
0.000202544
0.000204573
0.000207041
0.000209968
0.000213381
0.000217312
0.000222013
0.000227427
0.000233595
0.000240574
0.000248447
0.000257328
0.000267377
0.000278821
0.000291985
0.000307326
0.000325488
0.000347316
0.00037377
0.000405361
0.000440262
0.00390213
0.00409853
0.0043213
0.00454904
0.00478109
0.00501494
0.00524852
0.00547924
0.00570421
0.00592023
0.00612392
0.00631195
0.00648127
0.00662963
0.00675619
0.00686214
0.00695099
0.00702807
0.0070995
0.00717086
0.00724636
0.00732841
0.00741788
0.00751447
0.00761728
0.00772516
0.00783697
0.00795169
0.00806847
0.00818665
0.00830573
0.00842532
0.00854518
0.00866513
0.00878509
0.00890505
0.00902505
0.00914518
0.00926557
0.00938638
0.00950779
0.00962997
0.00975309
0.0098773
0.0100027
0.0101294
0.0102573
0.0103865
0.0105167
0.0106479
0.0107796
0.0109117
0.0110437
0.0111752
0.0113055
0.0114343
0.0115609
0.0116847
0.0118051
0.0119213
0.0120328
0.0121389
0.012239
0.0123323
0.0124183
0.0124956
0.0125647
0.0126253
0.012677
0.0127194
0.0127522
0.0127748
0.0127869
0.0127879
0.0127772
0.0127543
0.0127184
0.0126689
0.0126049
0.0125254
0.0124293
0.0123156
0.0121829
0.0120299
0.011855
0.0116568
0.0114337
0.0111842
0.010907
0.0106009
0.010265
0.0098986
0.00950163
0.00907435
0.00861744
0.00813198
0.00761925
0.00708055
0.00651698
0.00592903
0.00529764
0.00460316
0.00386272
0.00310192
0.00235602
0.00166633
0.00107255
0.000613362
0.000380233
0.000339255
0.000373555
0.000418654
0.000457196
0.000487049
0.000510332
0.000529246
0.00054477
0.000556842
0.000564851
0.000567994
0.000565519
0.000556985
0.000542504
0.000523266
0.000502089
0.000480585
0.000459545
0.000439574
0.00042138
0.000404902
0.00039094
0.000379889
0.000371763
0.000366113
0.000362288
0.000359668
0.00035776
0.000356204
0.000354739
0.000353188
0.000351433
0.000349406
0.000347072
0.000344428
0.000341488
0.000338287
0.000334871
0.000331295
0.000327621
0.000323911
0.000320231
0.000316641
0.000313199
0.000309958
0.000306962
0.000304251
0.000301856
0.000299804
0.000298114
0.000296802
0.000295877
0.00029535
0.000295224
0.000295505
0.000296195
0.000297298
0.000298818
0.000300759
0.000303128
0.000305935
0.000309192
0.000312917
0.000317153
0.00032204
0.000327542
0.000333694
0.00034055
0.000348182
0.000356682
0.000366161
0.000376749
0.000388576
0.000401736
0.000416198
0.000431635
0.000447095
0.000460657
0.00479131
0.00502757
0.00529468
0.0055689
0.00584827
0.00612924
0.00640831
0.00668123
0.00694342
0.00719026
0.00741761
0.00762222
0.00780205
0.00795647
0.00808647
0.00819486
0.00828627
0.00836675
0.00844273
0.00851994
0.00860262
0.0086932
0.00879247
0.00890008
0.00901502
0.00913607
0.00926198
0.00939163
0.00952407
0.00965853
0.00979437
0.00993111
0.0100683
0.0102057
0.010343
0.01048
0.0106165
0.0107524
0.0108877
0.0110223
0.011156
0.011289
0.0114211
0.0115524
0.0116827
0.0118122
0.0119406
0.0120679
0.0121939
0.0123184
0.0124413
0.0125621
0.0126807
0.0127967
0.0129096
0.0130191
0.0131247
0.0132259
0.0133222
0.0134132
0.0134984
0.0135774
0.0136496
0.0137148
0.0137724
0.0138223
0.0138649
0.0138999
0.0139269
0.0139455
0.0139552
0.0139555
0.0139455
0.0139247
0.0138923
0.0138473
0.0137889
0.013716
0.0136275
0.0135223
0.013399
0.0132563
0.0130929
0.0129073
0.0126982
0.012464
0.0122036
0.0119159
0.0115999
0.0112552
0.0108816
0.0104796
0.0100501
0.00959438
0.00911445
0.00861242
0.0080905
0.00755053
0.0069937
0.00642012
0.00581055
0.00514295
0.00443084
0.00369694
0.00297461
0.00230371
0.00172074
0.00124825
0.00089411
0.000685824
0.00061358
0.000609413
0.000625707
0.000636879
0.000638165
0.000635418
0.000633468
0.000634347
0.000637849
0.000642528
0.000646548
0.000648183
0.000646021
0.000639084
0.000626944
0.000609909
0.000589256
0.000567096
0.000545053
0.000522867
0.000500175
0.000476822
0.00045564
0.000439859
0.000430192
0.000425331
0.000423482
0.00042319
0.000423487
0.000423787
0.000423759
0.000423228
0.000422123
0.000420433
0.00041819
0.000415455
0.000412306
0.000408834
0.000405136
0.000401309
0.000397447
0.000393639
0.000389964
0.000386491
0.000383278
0.000380371
0.000377805
0.000375606
0.000373787
0.000372357
0.000371318
0.000370666
0.000370394
0.000370494
0.000370957
0.000371773
0.000372935
0.000374434
0.000376266
0.000378428
0.000380919
0.000383743
0.000386905
0.000390436
0.00039439
0.000398748
0.000403517
0.000408708
0.000414328
0.000420376
0.000426832
0.000433639
0.000440688
0.000447783
0.000454619
0.00046078
0.000465842
0.00562127
0.0058967
0.00620669
0.00652586
0.00685056
0.00717609
0.00749719
0.0078077
0.00810111
0.00837127
0.00861337
0.00882468
0.00900487
0.00915581
0.00928111
0.00938566
0.00947527
0.00955627
0.00963489
0.00971647
0.00980492
0.00990243
0.0100097
0.0101263
0.0102512
0.0103832
0.0105209
0.0106632
0.0108091
0.0109576
0.0111081
0.0112598
0.0114122
0.0115646
0.0117167
0.0118679
0.0120178
0.012166
0.0123119
0.0124553
0.0125958
0.0127331
0.0128667
0.0129965
0.0131222
0.0132436
0.0133605
0.0134727
0.0135803
0.0136831
0.0137812
0.0138745
0.0139631
0.0140473
0.014127
0.0142025
0.0142739
0.0143415
0.0144053
0.0144656
0.0145224
0.0145758
0.0146257
0.014672
0.0147145
0.0147536
0.0147895
0.0148217
0.0148493
0.0148715
0.0148873
0.0148955
0.014895
0.0148847
0.0148632
0.0148293
0.0147816
0.0147187
0.0146392
0.0145416
0.0144244
0.0142864
0.0141259
0.0139418
0.0137327
0.0134975
0.0132353
0.0129454
0.0126274
0.0122813
0.0119076
0.0115071
0.0110812
0.0106315
0.01016
0.00966851
0.00915872
0.00863163
0.00808731
0.00752482
0.00692341
0.00625638
0.00553116
0.00476397
0.00398172
0.00322027
0.00251863
0.00191119
0.0014211
0.00105796
0.000821866
0.000716425
0.000722723
0.000769622
0.000784776
0.000785033
0.000774547
0.000759374
0.000746889
0.000740328
0.00073863
0.000739167
0.000739329
0.00073717
0.000731513
0.000721784
0.000707802
0.000689541
0.000666691
0.000639187
0.000609788
0.000580157
0.000550361
0.000521037
0.000495877
0.000478428
0.000468795
0.000464726
0.000463771
0.00046417
0.000464859
0.000465255
0.000465073
0.000464203
0.000462637
0.00046043
0.000457671
0.000454472
0.000450951
0.000447231
0.000443427
0.000439646
0.000435982
0.000432514
0.000429308
0.000426412
0.00042386
0.000421674
0.000419863
0.000418426
0.000417355
0.000416635
0.000416247
0.000416172
0.000416386
0.00041687
0.000417605
0.000418572
0.000419757
0.000421147
0.000422733
0.000424507
0.000426464
0.000428599
0.00043092
0.000433437
0.000436132
0.00043899
0.000441994
0.000445122
0.000448341
0.000451609
0.000454871
0.000458068
0.00046114
0.000464056
0.000466849
0.00634286
0.00665474
0.00700367
0.00736354
0.00772881
0.00809359
0.0084508
0.00879229
0.00910945
0.00939453
0.00964203
0.00984992
0.01002
0.0101575
0.0102692
0.0103626
0.0104449
0.0105225
0.0106008
0.0106842
0.0107759
0.0108777
0.01099
0.0111124
0.0112439
0.0113832
0.0115292
0.0116806
0.0118363
0.0119954
0.012157
0.0123204
0.0124846
0.0126489
0.0128126
0.0129749
0.013135
0.0132921
0.0134454
0.0135942
0.0137377
0.0138752
0.014006
0.0141297
0.0142457
0.0143537
0.0144535
0.014545
0.0146282
0.0147036
0.0147715
0.0148325
0.0148875
0.0149373
0.0149831
0.0150259
0.0150668
0.0151068
0.0151469
0.0151879
0.0152303
0.0152743
0.0153201
0.0153675
0.0154158
0.0154643
0.0155131
0.0155616
0.0156086
0.0156526
0.0156922
0.0157259
0.015752
0.0157692
0.0157759
0.0157705
0.0157514
0.0157171
0.0156661
0.015597
0.0155083
0.0153986
0.0152668
0.0151117
0.0149323
0.0147279
0.0144979
0.0142419
0.0139601
0.0136526
0.0133199
0.0129631
0.0125831
0.0121811
0.0117582
0.0113153
0.010853
0.0103708
0.00986805
0.00934287
0.00877395
0.0081314
0.00741601
0.00663525
0.00580507
0.00494953
0.00409825
0.00328285
0.0025336
0.00187724
0.00133495
0.000919823
0.000634848
0.000474546
0.000433758
0.000514966
0.000686881
0.000807364
0.000836956
0.000838298
0.000832848
0.000829009
0.000827247
0.000826408
0.000825259
0.000822534
0.000816641
0.000805389
0.000786222
0.000757482
0.000721955
0.000683526
0.00064482
0.000606684
0.000570565
0.000540122
0.000518354
0.000505092
0.000498003
0.000494533
0.000492798
0.000491639
0.000490418
0.000488819
0.000486719
0.000484106
0.000481032
0.000477582
0.000473863
0.000469986
0.000466062
0.000462193
0.000458468
0.000454963
0.000451739
0.000448837
0.000446287
0.000444102
0.000442284
0.000440823
0.000439703
0.0004389
0.000438388
0.000438137
0.000438118
0.000438303
0.000438667
0.000439187
0.000439844
0.000440622
0.000441508
0.000442493
0.00044357
0.000444733
0.000445979
0.000447306
0.000448717
0.000450204
0.000451762
0.000453385
0.000455072
0.00045682
0.000458633
0.000460523
0.000462515
0.000464652
0.000467001
0.00690549
0.00724858
0.00762946
0.00802247
0.00842018
0.00881571
0.00920033
0.00956399
0.00989615
0.0101874
0.0104315
0.0106271
0.010778
0.0108929
0.0109825
0.0110573
0.0111262
0.0111954
0.0112695
0.0113514
0.0114431
0.0115457
0.0116594
0.0117837
0.0119176
0.01206
0.0122097
0.0123656
0.0125268
0.0126922
0.012861
0.0130321
0.0132046
0.0133777
0.0135503
0.0137213
0.0138898
0.0140547
0.0142149
0.0143692
0.0145167
0.0146563
0.0147872
0.0149086
0.0150199
0.0151206
0.0152105
0.0152898
0.0153587
0.0154178
0.015468
0.0155103
0.0155461
0.0155767
0.0156037
0.0156285
0.0156528
0.0156778
0.0157047
0.0157345
0.0157679
0.0158053
0.0158469
0.0158927
0.015942
0.0159943
0.0160485
0.0161039
0.01616
0.0162157
0.0162697
0.0163207
0.0163672
0.0164078
0.016441
0.0164653
0.0164793
0.0164815
0.0164704
0.0164447
0.0164031
0.0163444
0.0162675
0.0161716
0.0160558
0.0159197
0.0157629
0.015585
0.0153862
0.0151666
0.0149264
0.0146659
0.0143855
0.0140854
0.0137655
0.0134253
0.0130641
0.0126805
0.0122725
0.011838
0.0113568
0.0107993
0.0101603
0.00943943
0.00864254
0.00778213
0.00687647
0.00594772
0.00501981
0.00411688
0.00326271
0.00248115
0.00179627
0.00123053
0.000800078
0.000508903
0.000348479
0.000313144
0.000436037
0.000716293
0.000860438
0.000928707
0.000956747
0.000963888
0.00096055
0.000950598
0.000934772
0.000912408
0.000882079
0.000842542
0.000796843
0.000748835
0.000701393
0.000656036
0.000614698
0.000580504
0.000555517
0.000539047
0.00052866
0.000521883
0.000516957
0.000512833
0.000508954
0.00050505
0.000501009
0.000496809
0.000492471
0.000488047
0.000483601
0.000479202
0.000474921
0.000470821
0.000466961
0.000463388
0.000460139
0.000457238
0.0004547
0.000452527
0.000450714
0.000449244
0.000448096
0.000447242
0.000446652
0.000446294
0.000446135
0.000446146
0.0004463
0.000446572
0.000446944
0.000447399
0.000447927
0.00044852
0.000449172
0.000449882
0.000450649
0.000451475
0.000452362
0.000453317
0.000454346
0.000455454
0.000456654
0.00045796
0.00045939
0.000460972
0.000462739
0.000464736
0.000467019
0.00726182
0.00762847
0.00803156
0.00844719
0.00886632
0.00928141
0.00968242
0.0100579
0.0103956
0.0106849
0.0109186
0.0110956
0.0112215
0.0113079
0.0113692
0.0114194
0.0114691
0.0115251
0.011591
0.0116682
0.0117568
0.0118569
0.0119685
0.0120908
0.012223
0.0123641
0.0125132
0.0126694
0.0128317
0.0129992
0.0131711
0.0133465
0.0135245
0.0137039
0.0138838
0.014063
0.0142403
0.0144146
0.0145847
0.0147493
0.0149073
0.0150575
0.015199
0.0153309
0.0154525
0.0155633
0.0156631
0.0157519
0.0158299
0.0158975
0.0159553
0.0160042
0.016045
0.0160788
0.0161065
0.0161293
0.016148
0.0161637
0.0161773
0.0161899
0.0162023
0.0162154
0.0162301
0.0162471
0.0162672
0.0162908
0.0163182
0.0163496
0.0163848
0.0164233
0.0164647
0.0165082
0.0165533
0.016599
0.0166444
0.0166884
0.0167299
0.0167675
0.0168001
0.0168265
0.0168456
0.0168563
0.0168575
0.0168486
0.0168286
0.016797
0.0167531
0.0166965
0.0166268
0.0165433
0.0164456
0.016333
0.0162045
0.0160591
0.0158953
0.0157113
0.0155048
0.0152735
0.0150143
0.0147242
0.0143869
0.013976
0.0134813
0.0128957
0.0122168
0.011448
0.0105982
0.00968232
0.00871968
0.00773202
0.00674078
0.00576462
0.00481823
0.00391373
0.00306404
0.00228693
0.00160687
0.00105158
0.000642056
0.000380526
0.000247959
0.000221112
0.000291041
0.000438366
0.000598132
0.000713847
0.000770227
0.000780596
0.000764824
0.00073632
0.000701965
0.000665556
0.000631291
0.000602692
0.000581305
0.000566382
0.000556019
0.000548348
0.000542036
0.000536297
0.000530736
0.000525185
0.000519595
0.000513975
0.000508357
0.000502784
0.000497302
0.000491959
0.000486803
0.000481879
0.000477228
0.000472886
0.000468884
0.000465243
0.00046198
0.000459101
0.000456605
0.000454486
0.000452725
0.000451303
0.000450193
0.000449364
0.000448783
0.000448418
0.000448235
0.000448206
0.000448302
0.000448502
0.000448786
0.00044914
0.000449554
0.000450023
0.000450543
0.000451114
0.000451737
0.000452418
0.000453161
0.000453975
0.000454868
0.000455852
0.000456942
0.000458154
0.00045951
0.000461037
0.000462768
0.000464745
0.00046702
0.00737548
0.0077564
0.00817035
0.00859651
0.00902465
0.00944693
0.00985248
0.010229
0.0105632
0.0108435
0.0110621
0.0112176
0.0113167
0.0113731
0.0114041
0.0114268
0.011454
0.0114933
0.0115482
0.0116184
0.0117019
0.0117975
0.0119045
0.012022
0.0121494
0.0122859
0.0124308
0.0125834
0.0127432
0.0129093
0.0130812
0.0132581
0.0134391
0.0136233
0.0138098
0.0139976
0.0141855
0.0143725
0.0145574
0.014739
0.0149163
0.0150881
0.0152535
0.0154115
0.0155613
0.0157023
0.0158338
0.0159553
0.0160666
0.0161672
0.0162571
0.0163361
0.0164041
0.0164611
0.0165071
0.0165421
0.0165664
0.0165801
0.0165839
0.0165782
0.0165641
0.0165426
0.0165152
0.0164836
0.0164496
0.0164153
0.0163827
0.0163538
0.0163306
0.0163145
0.0163067
0.0163078
0.0163174
0.0163352
0.016361
0.016395
0.0164369
0.0164862
0.0165423
0.0166045
0.0166721
0.0167443
0.0168202
0.016899
0.0169801
0.0170625
0.0171454
0.0172278
0.0173084
0.0173859
0.0174586
0.0175247
0.0175816
0.0176268
0.0176572
0.0176692
0.0176592
0.0176231
0.0175567
0.0174557
0.0173096
0.0170979
0.0168058
0.0164202
0.0159307
0.0153315
0.0146217
0.0138073
0.0129017
0.0119256
0.0109055
0.00986929
0.00884075
0.00783515
0.00685755
0.00590509
0.00497209
0.00405618
0.00316423
0.00231725
0.00155298
0.000922128
0.000470729
0.000207254
8.68758e-05
4.65653e-05
5.00138e-05
0.000106387
0.000242919
0.000413818
0.000508048
0.000535325
0.000538988
0.000537176
0.000534544
0.000531855
0.000529053
0.000526017
0.000522689
0.000519074
0.000515205
0.000511126
0.000506885
0.000502525
0.00049809
0.000493626
0.000489175
0.000484784
0.000480499
0.000476365
0.000472425
0.00046872
0.000465283
0.000462143
0.00045932
0.000456829
0.000454673
0.00045285
0.000451349
0.000450152
0.000449238
0.000448577
0.000448142
0.000447901
0.000447824
0.000447882
0.000448052
0.000448311
0.000448643
0.000449035
0.000449478
0.000449969
0.000450506
0.000451089
0.000451721
0.000452407
0.000453155
0.000453971
0.000454866
0.000455852
0.000456942
0.000458154
0.00045951
0.000461037
0.000462768
0.000464745
0.00046702
0.00722781
0.0076128
0.00802583
0.00845041
0.0088755
0.00929326
0.0096924
0.0100602
0.0103832
0.0106491
0.0108498
0.0109836
0.0110575
0.0110861
0.011089
0.0110853
0.0110901
0.011112
0.0111554
0.0112184
0.0112968
0.0113874
0.0114888
0.0116001
0.0117208
0.0118505
0.0119886
0.0121349
0.0122892
0.012451
0.01262
0.0127958
0.0129777
0.0131651
0.0133574
0.0135536
0.0137531
0.0139548
0.0141578
0.0143611
0.0145637
0.0147647
0.0149629
0.0151573
0.0153469
0.0155305
0.0157071
0.0158755
0.0160346
0.0161831
0.01632
0.016444
0.0165541
0.0166492
0.0167285
0.016791
0.0168364
0.0168641
0.0168741
0.0168666
0.0168421
0.0168016
0.0167461
0.0166775
0.0165976
0.0165087
0.0164134
0.0163146
0.0162154
0.016119
0.0160287
0.0159477
0.0158793
0.0158255
0.015787
0.0157634
0.0157556
0.0157644
0.0157906
0.0158349
0.0158976
0.0159788
0.0160788
0.0161972
0.016334
0.0164885
0.0166604
0.0168485
0.0170518
0.0172684
0.0174962
0.0177323
0.0179732
0.0182149
0.0184525
0.0186807
0.0188936
0.019085
0.0192485
0.0193776
0.0194693
0.0195115
0.0194846
0.0193687
0.0191448
0.0187965
0.0183108
0.0176805
0.0169059
0.0159975
0.0149771
0.0138772
0.0127358
0.0115886
0.0104613
0.00936585
0.0083024
0.00726426
0.00624368
0.00523633
0.00424425
0.00327832
0.00236133
0.00153231
0.000849336
0.000377021
0.000134002
4.90106e-05
3.42532e-05
7.2825e-05
0.00022762
0.000403498
0.000468879
0.000484595
0.000488013
0.000488632
0.000488465
0.000487907
0.000487029
0.000485849
0.000484377
0.000482628
0.000480623
0.000478389
0.00047596
0.000473375
0.000470677
0.000467915
0.000465138
0.000462395
0.000459734
0.000457201
0.000454834
0.000452668
0.00045073
0.000449038
0.000447605
0.000446434
0.00044552
0.000444853
0.000444415
0.000444186
0.000444141
0.000444253
0.000444497
0.000444848
0.000445286
0.000445793
0.000446355
0.000446962
0.000447609
0.000448293
0.000449014
0.000449775
0.000450579
0.000451432
0.000452338
0.000453304
0.000454339
0.000455451
0.000456653
0.000457959
0.00045939
0.000460973
0.00046274
0.000464736
0.000467019
0.00682095
0.007199
0.00759937
0.00801079
0.00842179