/*--------------------------------*- C++ -*----------------------------------*\
| =========                 |                                                 |
| \\      /  F ield         | OpenFOAM: The Open Source CFD Toolbox           |
|  \\    /   O peration     | Version:  2406                                  |
|   \\  /    A nd           | Website:  www.openfoam.com                      |
|    \\/     M anipulation  |                                                 |
\*---------------------------------------------------------------------------*/
FoamFile
{
    version     2.0;
    format      ascii;
    arch        "LSB;label=32;scalar=64";
    class       volScalarField;
    location    "400";
    object      p_rgh;
}
// * * * * * * * * * * * * * * * * * * * * * * * * * * * * * * * * * * * * * //

dimensions      [0 2 -2 0 0 0 0];

internalField   nonuniform List<scalar> 
5619
(
-0.0226702
-0.00736206
-0.0165985
-0.0252899
-0.0410532
-0.0623171
-0.0902326
-0.124491
-0.164296
-0.207707
-0.251843
-0.293302
-0.32891
-0.356662
-0.376237
-0.388944
-0.397151
-0.403358
-0.409707
-0.417623
-0.427795
-0.440357
-0.455124
-0.471787
-0.490013
-0.509544
-0.530204
-0.551925
-0.574721
-0.598686
-0.623975
-0.650791
-0.679377
-0.710001
-0.742942
-0.778483
-0.816897
-0.858436
-0.903312
-0.951682
-1.00362
-1.05911
-1.11801
-1.18006
-1.24486
-1.31184
-1.38026
-1.44923
-1.51768
-1.5844
-1.64808
-1.70728
-1.76048
-1.80615
-1.84275
-1.86879
-1.88285
-1.88362
-1.86992
-1.84075
-1.79526
-1.73281
-1.65288
-1.55513
-1.4393
-1.30499
-1.15193
-0.980277
-0.79043
-0.582952
-0.358561
-0.118099
0.137474
0.407076
0.689476
0.983267
1.28687
1.5985
1.91618
2.23763
2.56028
2.88124
3.19731
3.50487
3.79996
4.07821
4.33492
4.56512
4.76357
4.92496
5.04407
5.11599
5.13643
5.102
5.01078
4.86283
4.66083
4.41047
4.12084
3.80841
3.47107
3.12149
2.77598
2.44968
2.21192
2.14155
2.25163
2.39042
2.41091
2.34352
2.31893
2.29117
2.2688
2.25803
2.25676
2.26462
2.28041
2.30246
2.3294
2.36009
2.39315
2.42702
2.46023
2.49159
2.52024
2.5456
2.56745
2.58719
2.60639
2.62565
2.64506
2.6646
2.68427
2.70405
2.72393
2.74388
2.76387
2.78389
2.80389
2.82386
2.84375
2.86353
2.88316
2.90262
2.92185
2.9408
2.95945
2.97773
2.99559
3.01299
3.02985
3.04614
3.0618
3.07677
3.09101
3.10447
3.11712
3.12893
3.13988
3.14995
3.15914
3.16745
3.1749
3.18151
3.18733
3.19239
3.19675
3.20048
3.20364
3.2063
3.20854
3.21042
3.21202
3.2134
3.21462
3.21575
3.21682
3.21788
3.21897
3.22011
3.22135
3.2227
3.22424
3.22601
3.22797
3.23007
3.24074
-0.022519
-0.00711458
-0.016285
-0.0248789
-0.0405327
-0.0616711
-0.0894537
-0.123582
-0.163275
-0.206611
-0.250725
-0.292223
-0.327933
-0.355836
-0.375584
-0.388454
-0.396786
-0.40306
-0.409414
-0.41728
-0.42736
-0.439803
-0.454439
-0.470963
-0.489048
-0.508434
-0.528944
-0.550506
-0.57313
-0.596908
-0.621989
-0.648576
-0.676906
-0.707245
-0.739871
-0.775064
-0.813096
-0.854217
-0.898641
-0.946524
-0.997943
-1.05288
-1.11121
-1.17267
-1.23687
-1.30326
-1.37111
-1.43954
-1.5075
-1.57381
-1.63717
-1.69616
-1.74931
-1.79509
-1.83199
-1.85855
-1.87337
-1.87517
-1.86281
-1.83528
-1.7918
-1.73174
-1.65462
-1.56017
-1.4483
-1.31854
-1.17053
-1.00458
-0.82117
-0.620952
-0.404733
-0.173439
0.0718805
0.330043
0.599702
0.879347
1.16731
1.46173
1.76054
2.06143
2.36181
2.65885
2.94945
3.23017
3.4973
3.74687
3.97471
4.17646
4.34771
4.48406
4.58141
4.63604
4.64493
4.60604
4.51867
4.38381
4.20464
3.98661
3.73624
3.46918
3.18983
2.89304
2.59524
2.32557
2.14049
2.10666
2.21547
2.35923
2.39203
2.34429
2.31801
2.28956
2.26722
2.25644
2.25524
2.26309
2.27867
2.30026
2.32661
2.35672
2.38921
2.4226
2.45553
2.48681
2.51562
2.54134
2.56371
2.58408
2.60387
2.62361
2.64343
2.66331
2.68326
2.70327
2.72333
2.74342
2.76354
2.78365
2.80372
2.82374
2.84366
2.86347
2.88313
2.9026
2.92183
2.94079
2.95944
2.97772
2.99558
3.01297
3.02984
3.04613
3.06178
3.07676
3.09099
3.10446
3.11711
3.12892
3.13987
3.14994
3.15913
3.16744
3.17489
3.18151
3.18733
3.19239
3.19676
3.20048
3.20364
3.20631
3.20855
3.21043
3.21203
3.21341
3.21463
3.21576
3.21683
3.21789
3.21898
3.22013
3.22136
3.22271
3.22421
3.22589
3.2276
3.2287
3.23322
-0.0221514
-0.00653575
-0.0155559
-0.0239352
-0.0393474
-0.0602088
-0.0876958
-0.121532
-0.16097
-0.204126
-0.248172
-0.289741
-0.32566
-0.353883
-0.374004
-0.387229
-0.395834
-0.402256
-0.408624
-0.416385
-0.426271
-0.438468
-0.452829
-0.469069
-0.486867
-0.505965
-0.52618
-0.547436
-0.569735
-0.593162
-0.617861
-0.644027
-0.671894
-0.701725
-0.733792
-0.768372
-0.805737
-0.846135
-0.889779
-0.936828
-0.987362
-1.04137
-1.09873
-1.15921
-1.22242
-1.28782
-1.35473
-1.42226
-1.48942
-1.55506
-1.6179
-1.67657
-1.72962
-1.77557
-1.81295
-1.84033
-1.85636
-1.85976
-1.84944
-1.82444
-1.78398
-1.72748
-1.6545
-1.56484
-1.45854
-1.33516
-1.19429
-1.03633
-0.861872
-0.671669
-0.466618
-0.247741
-0.016191
0.226732
0.479576
0.740748
1.00851
1.28094
1.55594
1.83121
2.10426
2.37239
2.6327
2.88207
3.11722
3.33472
3.53106
3.70265
3.846
3.95778
4.03496
4.07499
4.076
4.03703
3.95819
3.84091
3.68826
3.50473
3.29402
3.07137
2.84688
2.61992
2.40016
2.20498
2.07336
2.05684
2.14404
2.2635
2.31397
2.30543
2.29186
2.27163
2.25485
2.24739
2.24836
2.25743
2.27354
2.29521
2.32102
2.35019
2.38184
2.41457
2.44715
2.47851
2.50781
2.53439
2.55794
2.57957
2.60045
2.62109
2.64165
2.66214
2.68258
2.70299
2.72335
2.74369
2.76398
2.78421
2.80438
2.82445
2.84441
2.86423
2.88388
2.90333
2.92254
2.94147
2.96008
2.97832
2.99615
3.0135
3.03032
3.04657
3.06219
3.07712
3.09133
3.10476
3.11738
3.12916
3.14008
3.15013
3.15929
3.16758
3.17501
3.18161
3.18741
3.19246
3.19681
3.20053
3.20368
3.20634
3.20858
3.21045
3.21205
3.21343
3.21465
3.21578
3.21685
3.21792
3.21901
3.22015
3.22139
3.22276
3.22431
3.22613
3.22818
3.23024
3.23529
-0.021567
-0.00574412
-0.0145456
-0.0226418
-0.0377263
-0.0582125
-0.0852953
-0.118728
-0.157809
-0.200709
-0.244657
-0.286321
-0.322535
-0.351212
-0.371867
-0.385607
-0.394614
-0.40127
-0.407689
-0.415343
-0.425006
-0.436911
-0.450948
-0.466858
-0.484328
-0.503102
-0.522993
-0.543915
-0.565863
-0.588912
-0.6132
-0.638914
-0.666284
-0.695566
-0.727028
-0.760946
-0.797588
-0.837201
-0.88
-0.926147
-0.975727
-1.02874
-1.08508
-1.14452
-1.20671
-1.27113
-1.33712
-1.40384
-1.47034
-1.53551
-1.59812
-1.65684
-1.71027
-1.75699
-1.79557
-1.82463
-1.84285
-1.84901
-1.84204
-1.82103
-1.78524
-1.73414
-1.66736
-1.58476
-1.48655
-1.37218
-1.24117
-1.09408
-0.931651
-0.754715
-0.564258
-0.361393
-0.147363
0.0764563
0.308565
0.547348
0.791061
1.03782
1.28562
1.5323
1.77562
2.01318
2.24246
2.46083
2.6656
2.85402
3.02333
3.17082
3.29387
3.39006
3.45727
3.49377
3.49838
3.47054
3.41051
3.31946
3.19976
3.05455
2.88584
2.70824
2.53435
2.36314
2.19905
2.05599
1.96
1.94541
2.01503
2.12834
2.2098
2.24164
2.24926
2.24392
2.23717
2.2356
2.23995
2.25044
2.26661
2.28762
2.31233
2.33948
2.36891
2.40015
2.43177
2.46283
2.4926
2.52046
2.54598
2.56984
2.59279
2.61525
2.6374
2.65921
2.68075
2.70204
2.72311
2.744
2.76472
2.78527
2.80567
2.8259
2.84597
2.86585
2.88552
2.90496
2.92414
2.94302
2.96158
2.97975
2.9975
3.01477
3.03151
3.04768
3.06321
3.07806
3.09218
3.10553
3.11807
3.12978
3.14063
3.15061
3.15971
3.16794
3.17532
3.18187
3.18763
3.19264
3.19696
3.20064
3.20377
3.20641
3.20862
3.21049
3.21207
3.21344
3.21466
3.21578
3.21685
3.21791
3.219
3.22014
3.22137
3.22272
3.22422
3.22591
3.22776
3.22965
3.23471
-0.0207215
-0.00482731
-0.0133486
-0.0211394
-0.0358548
-0.0559258
-0.0825635
-0.115558
-0.154259
-0.196902
-0.240774
-0.282585
-0.319166
-0.348377
-0.369638
-0.383942
-0.393377
-0.400269
-0.406727
-0.414254
-0.423676
-0.435276
-0.448984
-0.464563
-0.48171
-0.500168
-0.519743
-0.540341
-0.561946
-0.584626
-0.608508
-0.633775
-0.660648
-0.689377
-0.72023
-0.753475
-0.789379
-0.828191
-0.870129
-0.915358
-0.963975
-1.016
-1.07133
-1.12979
-1.19103
-1.2546
-1.31985
-1.38603
-1.4522
-1.51733
-1.58024
-1.63966
-1.69425
-1.74264
-1.78344
-1.81532
-1.837
-1.84729
-1.84516
-1.82972
-1.80027
-1.75631
-1.69751
-1.62384
-1.53565
-1.4322
-1.31294
-1.17868
-1.03024
-0.868511
-0.694553
-0.509537
-0.314751
-0.111592
0.0984461
0.31377
0.532693
0.753441
0.974168
1.19296
1.40784
1.61676
1.81762
2.00828
2.18661
2.35047
2.49774
2.62635
2.73437
2.82004
2.88184
2.91855
2.92933
2.91385
2.87242
2.80606
2.71671
2.60687
2.4782
2.34448
2.21788
2.09782
1.98707
1.89478
1.83632
1.83182
1.8971
2.00111
2.09601
2.15524
2.18666
2.20156
2.21003
2.21851
2.22917
2.24299
2.26028
2.2809
2.30456
2.33045
2.35704
2.38473
2.41442
2.44481
2.47486
2.504
2.53186
2.55858
2.58428
2.60921
2.63353
2.6572
2.68027
2.70279
2.72484
2.74647
2.76774
2.78868
2.80933
2.82971
2.84984
2.86971
2.88932
2.90866
2.92771
2.94644
2.96482
2.98281
3.00037
3.01744
3.03399
3.04996
3.0653
3.07997
3.0939
3.10708
3.11945
3.131
3.1417
3.15154
3.16051
3.16862
3.17589
3.18234
3.18801
3.19295
3.1972
3.20083
3.20392
3.20651
3.2087
3.21054
3.21211
3.21347
3.21468
3.2158
3.21687
3.21793
3.21902
3.22017
3.22141
3.22278
3.22431
3.22606
3.22795
3.22988
3.23445
-0.0195248
-0.00384203
-0.0120065
-0.019497
-0.0338219
-0.0534708
-0.0796667
-0.112246
-0.150617
-0.193079
-0.236977
-0.279042
-0.316084
-0.345886
-0.367759
-0.382587
-0.392375
-0.399417
-0.405837
-0.413186
-0.422342
-0.433637
-0.447033
-0.462309
-0.479165
-0.497339
-0.516629
-0.536928
-0.558214
-0.580541
-0.60403
-0.628856
-0.655233
-0.683406
-0.713637
-0.746193
-0.781339
-0.819327
-0.86038
-0.904675
-0.952326
-1.00337
-1.05776
-1.11533
-1.1758
-1.23875
-1.30362
-1.36971
-1.43618
-1.50203
-1.56619
-1.62745
-1.68453
-1.73613
-1.78092
-1.81759
-1.84491
-1.86172
-1.86699
-1.85987
-1.83967
-1.8059
-1.75826
-1.6968
-1.6219
-1.53252
-1.42819
-1.31013
-1.17907
-1.03595
-0.881838
-0.717919
-0.545465
-0.365836
-0.180466
0.0091441
0.201444
0.394853
0.587773
0.77859
0.965671
1.14737
1.32206
1.48811
1.64393
1.78795
1.91862
2.03446
2.13406
2.21616
2.27962
2.32356
2.34735
2.35077
2.33405
2.29803
2.24431
2.175
2.09181
2.0066
1.9281
1.85573
1.79302
1.74705
1.72833
1.74868
1.81569
1.91094
2.00644
2.07915
2.12832
2.16105
2.18458
2.20429
2.22274
2.24124
2.26047
2.28076
2.30234
2.32549
2.35036
2.37611
2.40157
2.42762
2.45553
2.48489
2.51494
2.54508
2.57433
2.60244
2.6296
2.65573
2.68088
2.70513
2.72857
2.75129
2.77338
2.79492
2.81597
2.83659
2.85681
2.87667
2.89617
2.91533
2.93414
2.95259
2.97066
2.98831
3.00552
3.02225
3.03844
3.05405
3.06904
3.08336
3.09697
3.10982
3.12189
3.13315
3.14358
3.15316
3.1619
3.1698
3.17687
3.18315
3.18867
3.19348
3.19762
3.20116
3.20416
3.2067
3.20883
3.21064
3.21218
3.21351
3.21471
3.21582
3.21688
3.21793
3.21902
3.22016
3.2214
3.22275
3.22427
3.22601
3.22789
3.22992
3.23412
-0.0178438
-0.00282703
-0.0105363
-0.017759
-0.0316904
-0.0509434
-0.0767466
-0.108999
-0.147167
-0.189614
-0.233718
-0.276207
-0.313824
-0.344247
-0.366667
-0.381875
-0.391834
-0.39885
-0.405091
-0.412177
-0.421038
-0.432043
-0.44517
-0.460198
-0.476822
-0.494767
-0.513819
-0.533861
-0.554858
-0.576856
-0.599968
-0.624359
-0.650239
-0.677847
-0.70744
-0.739282
-0.773643
-0.810777
-0.85092
-0.894268
-0.940962
-0.991078
-1.04461
-1.10146
-1.16141
-1.22413
-1.28913
-1.35581
-1.42343
-1.4911
-1.55782
-1.62247
-1.68387
-1.74076
-1.79187
-1.83592
-1.87169
-1.89803
-1.9139
-1.9184
-1.91081
-1.89061
-1.8575
-1.81144
-1.75222
-1.67921
-1.59261
-1.49328
-1.38188
-1.25935
-1.12669
-0.985045
-0.835614
-0.679688
-0.518604
-0.353736
-0.186469
-0.0181843
0.149751
0.315989
0.479209
0.638126
0.791497
0.938123
1.07685
1.20655
1.32616
1.43467
1.53114
1.6147
1.68464
1.74037
1.78155
1.80813
1.82039
1.81913
1.80572
1.78187
1.74922
1.71695
1.68908
1.66417
1.64644
1.64146
1.65623
1.69724
1.7643
1.84976
1.94257
2.02542
2.08764
2.13551
2.17241
2.20297
2.22973
2.25411
2.277
2.29889
2.3201
2.34095
2.36192
2.38365
2.40693
2.43194
2.45812
2.48546
2.51482
2.54627
2.57779
2.60812
2.63736
2.66531
2.69198
2.71747
2.74188
2.76531
2.78788
2.80967
2.83078
2.85129
2.87125
2.89071
2.90972
2.92831
2.94648
2.96425
2.9816
2.99852
3.015
3.03098
3.04645
3.06136
3.07567
3.08934
3.10232
3.11459
3.1261
3.13684
3.14678
3.15592
3.16425
3.17178
3.17853
3.18451
3.18978
3.19436
3.19832
3.2017
3.20457
3.207
3.20905
3.21079
3.21228
3.21359
3.21476
3.21585
3.2169
3.21795
3.21904
3.22018
3.22142
3.22278
3.22431
3.22604
3.22791
3.23001
3.23377
-0.0155276
-0.00180866
-0.00894109
-0.0159553
-0.029506
-0.0484204
-0.0739234
-0.105995
-0.144159
-0.186829
-0.231391
-0.274513
-0.312825
-0.343859
-0.366688
-0.382041
-0.391905
-0.398649
-0.40453
-0.411255
-0.4198
-0.430549
-0.443472
-0.458331
-0.474801
-0.492588
-0.511464
-0.531296
-0.552039
-0.573732
-0.596479
-0.620439
-0.645814
-0.67284
-0.701767
-0.732864
-0.766399
-0.802641
-0.841841
-0.884223
-0.929969
-0.979206
-1.032
-1.08832
-1.14805
-1.21095
-1.27667
-1.34473
-1.41449
-1.48521
-1.55598
-1.62581
-1.6936
-1.75815
-1.81824
-1.8726
-1.91998
-1.9592
-1.98914
-2.00878
-2.01727
-2.01391
-1.99818
-1.96976
-1.92844
-1.87421
-1.80733
-1.72827
-1.63768
-1.53634
-1.4252
-1.30528
-1.1777
-1.04366
-0.904402
-0.761176
-0.61523
-0.467787
-0.320034
-0.173108
-0.0280853
0.114029
0.252303
0.385878
0.513963
0.635828
0.750805
0.858292
0.957757
1.04875
1.1309
1.20397
1.26787
1.32268
1.36874
1.40668
1.43745
1.46212
1.48194
1.50308
1.52493
1.54473
1.56643
1.59377
1.63088
1.68146
1.74692
1.823
1.89944
1.97684
2.05781
2.12493
2.17573
2.21749
2.2536
2.28545
2.31423
2.34049
2.36462
2.38704
2.40823
2.42871
2.44915
2.47036
2.49333
2.51903
2.54868
2.58172
2.6145
2.64512
2.674
2.70119
2.72691
2.75133
2.77454
2.79672
2.81804
2.83859
2.85846
2.87772
2.89643
2.91464
2.93239
2.94971
2.96663
2.98314
2.99926
3.01496
3.03023
3.04504
3.05936
3.07314
3.08637
3.09899
3.11097
3.12228
3.13289
3.14278
3.15194
3.16035
3.16802
3.17496
3.18117
3.18669
3.19154
3.19577
3.19942
3.20255
3.20522
3.20748
3.2094
3.21104
3.21245
3.2137
3.21483
3.2159
3.21693
3.21797
3.21905
3.22019
3.22143
3.22279
3.22432
3.22604
3.22792
3.23008
3.23342
-0.0124568
-0.000801755
-0.00721926
-0.0141063
-0.0273023
-0.0459595
-0.0712864
-0.103362
-0.141765
-0.184941
-0.230237
-0.274209
-0.313313
-0.344905
-0.367942
-0.383149
-0.392606
-0.398814
-0.404156
-0.410438
-0.41867
-0.429219
-0.442021
-0.456802
-0.473204
-0.490908
-0.509665
-0.529332
-0.549853
-0.571259
-0.593646
-0.61717
-0.642025
-0.66844
-0.696665
-0.726966
-0.759621
-0.794909
-0.833106
-0.874469
-0.919229
-0.967579
-1.01966
-1.07554
-1.13522
-1.19859
-1.26543
-1.33541
-1.40803
-1.48271
-1.55868
-1.63505
-1.71083
-1.78488
-1.856
-1.92292
-1.98433
-2.03895
-2.08551
-2.12283
-2.14982
-2.16553
-2.16919
-2.16009
-2.13806
-2.10404
-2.0582
-2.00026
-1.93077
-1.85035
-1.75976
-1.65993
-1.55186
-1.43666
-1.31547
-1.18946
-1.05981
-0.927629
-0.794016
-0.659978
-0.526443
-0.394237
-0.264091
-0.136632
-0.0123905
0.108197
0.224781
0.337097
0.444952
0.548223
0.64685
0.740842
0.83029
0.915378
0.99639
1.07372
1.14781
1.21905
1.28818
1.35878
1.42634
1.48653
1.54286
1.59779
1.65355
1.71228
1.77562
1.84415
1.91664
1.98709
2.05096
2.11653
2.18615
2.25157
2.30509
2.34696
2.38229
2.41321
2.44117
2.4669
2.49102
2.51412
2.53681
2.55963
2.58307
2.60769
2.63448
2.66352
2.69233
2.7194
2.74508
2.76938
2.79233
2.81389
2.83416
2.85332
2.87161
2.88921
2.90624
2.92277
2.93886
2.95455
2.96986
2.98482
2.99943
3.0137
3.02762
3.04118
3.05437
3.06716
3.07953
3.09144
3.10287
3.11378
3.12414
3.13394
3.14314
3.15172
3.15967
3.16698
3.17365
3.17968
3.18509
3.1899
3.19414
3.19785
3.20105
3.20381
3.20617
3.20819
3.20991
3.2114
3.21271
3.21387
3.21495
3.21597
3.21698
3.218
3.21907
3.22021
3.22145
3.22281
3.22434
3.22605
3.22792
3.23014
3.23308
-0.00861544
0.000184489
-0.00537951
-0.012232
-0.0251075
-0.0435999
-0.0688844
-0.101156
-0.140039
-0.183988
-0.230266
-0.275262
-0.315209
-0.347262
-0.370284
-0.385053
-0.393818
-0.399263
-0.403928
-0.409729
-0.41768
-0.428103
-0.440874
-0.455663
-0.472073
-0.489753
-0.508438
-0.527969
-0.548285
-0.569408
-0.59143
-0.614498
-0.638802
-0.664563
-0.692028
-0.721462
-0.753146
-0.787374
-0.824442
-0.864643
-0.908259
-0.955548
-1.00673
-1.06199
-1.12142
-1.18507
-1.25286
-1.32462
-1.40003
-1.47866
-1.5599
-1.64303
-1.72716
-1.81127
-1.89423
-1.97479
-2.05166
-2.12349
-2.18894
-2.24673
-2.29561
-2.33447
-2.36233
-2.37835
-2.38174
-2.37305
-2.3531
-2.32106
-2.27681
-2.22109
-2.15425
-2.07688
-1.98975
-1.89378
-1.79002
-1.67956
-1.56353
-1.44306
-1.31922
-1.19302
-1.06537
-0.937068
-0.808787
-0.681062
-0.554302
-0.428788
-0.304682
-0.182045
-0.0608494
0.0589986
0.177642
0.295259
0.412046
0.528203
0.643916
0.759341
0.874535
0.98936
1.10422
1.22077
1.332
1.43261
1.52583
1.61331
1.69607
1.77496
1.85065
1.92357
1.99399
2.06227
2.12873
2.19178
2.24945
2.30326
2.35809
2.41519
2.47008
2.51999
2.56244
2.59874
2.63171
2.66201
2.6903
2.71689
2.74194
2.76554
2.788
2.80951
2.82959
2.84803
2.86509
2.88095
2.89579
2.90977
2.92309
2.93596
2.94851
2.96084
2.973
2.98503
2.99692
3.00869
3.02032
3.03181
3.04313
3.05428
3.06523
3.07595
3.08641
3.09658
3.10644
3.11594
3.12505
3.13375
3.14201
3.14981
3.15712
3.16394
3.17026
3.17607
3.18137
3.18617
3.19049
3.19433
3.19772
3.2007
3.20329
3.20554
3.20748
3.20916
3.21062
3.2119
3.21305
3.21411
3.2151
3.21607
3.21704
3.21804
3.2191
3.22023
3.22146
3.22283
3.22435
3.22606
3.22793
3.23018
3.23278
-0.00415106
0.00114029
-0.00345234
-0.0103569
-0.0229463
-0.0413571
-0.0667123
-0.0993328
-0.138877
-0.183785
-0.231206
-0.277319
-0.318106
-0.350512
-0.373329
-0.387434
-0.395305
-0.399847
-0.403772
-0.409104
-0.416835
-0.42721
-0.440024
-0.454885
-0.471349
-0.489038
-0.507668
-0.527072
-0.547178
-0.568007
-0.589642
-0.612223
-0.635933
-0.660982
-0.68761
-0.716077
-0.746664
-0.779669
-0.815403
-0.854185
-0.896336
-0.942167
-0.991974
-1.04602
-1.10453
-1.16766
-1.23549
-1.30801
-1.38511
-1.46654
-1.55194
-1.64079
-1.73246
-1.82615
-1.92097
-2.01587
-2.10974
-2.20135
-2.28944
-2.37272
-2.44988
-2.51966
-2.58086
-2.63242
-2.67339
-2.70301
-2.721
-2.72801
-2.72336
-2.70501
-2.67306
-2.62837
-2.57123
-2.50215
-2.42191
-2.33147
-2.23191
-2.12441
-2.01013
-1.89022
-1.76576
-1.63771
-1.5069
-1.374
-1.23954
-1.10384
-0.967121
-0.829424
-0.690693
-0.550781
-0.40948
-0.26656
-0.121795
0.0249962
0.173911
0.324932
0.477859
0.632243
0.788206
0.946308
1.09986
1.24404
1.38135
1.5126
1.63786
1.75703
1.87005
1.9769
2.07753
2.17183
2.25986
2.34217
2.41972
2.49353
2.56421
2.63043
2.69059
2.74439
2.79444
2.84005
2.87834
2.91162
2.94188
2.96846
2.99038
3.00673
3.01677
3.02141
3.02361
3.02505
3.026
3.0271
3.02895
3.0318
3.03566
3.04047
3.04607
3.05228
3.05894
3.06589
3.07304
3.08029
3.08759
3.09487
3.10209
3.10921
3.11621
3.12306
3.12974
3.13623
3.14251
3.14857
3.1544
3.15999
3.16532
3.17037
3.17514
3.17962
3.18379
3.18764
3.19118
3.1944
3.19731
3.19992
3.20224
3.2043
3.20612
3.20772
3.20913
3.21038
3.21151
3.21253
3.21349
3.2144
3.2153
3.21619
3.21712
3.21809
3.21913
3.22025
3.22148
3.22284
3.22437
3.22607
3.22794
3.2302
3.23257
0.000622998
0.00205503
-0.00148939
-0.00850652
-0.0208345
-0.0392162
-0.0647037
-0.0977466
-0.138025
-0.183955
-0.232554
-0.279783
-0.321367
-0.354044
-0.37655
-0.389886
-0.39679
-0.400398
-0.403595
-0.408515
-0.416099
-0.426488
-0.439389
-0.454349
-0.470879
-0.488577
-0.507144
-0.526405
-0.546284
-0.566795
-0.588016
-0.610078
-0.633152
-0.657436
-0.683156
-0.710559
-0.739919
-0.771529
-0.805702
-0.842769
-0.883073
-0.926966
-0.974797
-1.02691
-1.08362
-1.14523
-1.21196
-1.28402
-1.36151
-1.44447
-1.53284
-1.62647
-1.72508
-1.82828
-1.93558
-2.04632
-2.15974
-2.27491
-2.39079
-2.50619
-2.61982
-2.73026
-2.83607
-2.93573
-3.02779
-3.11089
-3.18375
-3.24511
-3.29501
-3.33547
-3.36391
-3.37437
-3.36621
-3.34081
-3.29862
-3.2403
-3.16674
-3.07909
-2.97862
-2.86669
-2.74468
-2.61392
-2.47567
-2.33108
-2.18112
-2.02661
-1.86817
-1.70627
-1.54121
-1.37316
-1.20218
-1.02828
-0.851463
-0.67174
-0.489222
-0.304137
-0.116902
0.071814
0.261683
0.452803
0.643343
0.832088
1.01955
1.20483
1.38642
1.56274
1.73253
1.89502
2.05003
2.19782
2.33881
2.47319
2.60075
2.72101
2.8336
2.93846
3.03585
3.12566
3.2056
3.27089
3.31775
3.34593
3.35886
3.36113
3.35525
3.34205
3.32189
3.29706
3.27256
3.25129
3.23327
3.21813
3.20541
3.19495
3.18653
3.17987
3.17469
3.1708
3.16802
3.16622
3.16527
3.16504
3.16543
3.16636
3.16772
3.16944
3.17145
3.17368
3.17606
3.17854
3.18107
3.18361
3.18611
3.18854
3.19089
3.19313
3.19525
3.19724
3.19909
3.20081
3.20239
3.20384
3.20516
3.20636
3.20746
3.20846
3.20938
3.21023
3.21103
3.21179
3.21253
3.21326
3.21399
3.21474
3.21552
3.21633
3.21721
3.21815
3.21916
3.22027
3.22149
3.22285
3.22437
3.22607
3.22794
3.23021
3.23245
0.00530557
0.00292566
0.000451202
-0.00669729
-0.0187715
-0.0371318
-0.0627467
-0.0961884
-0.137153
-0.184033
-0.233724
-0.281989
-0.324313
-0.35724
-0.379446
-0.392055
-0.398076
-0.400821
-0.403307
-0.40786
-0.415392
-0.425851
-0.438851
-0.453902
-0.470479
-0.488162
-0.506641
-0.525737
-0.545369
-0.565546
-0.586339
-0.607869
-0.630292
-0.653791
-0.678574
-0.704872
-0.732941
-0.76306
-0.795538
-0.830705
-0.868919
-0.910557
-0.95602
-1.00572
-1.06009
-1.11954
-1.18451
-1.25541
-1.33262
-1.4165
-1.50738
-1.6055
-1.71106
-1.82414
-1.94472
-2.07263
-2.20754
-2.3489
-2.49598
-2.64777
-2.80303
-2.96027
-3.11775
-3.27356
-3.42564
-3.57181
-3.70992
-3.83787
-3.9536
-4.05465
-4.14284
-4.22487
-4.294
-4.33751
-4.35459
-4.34696
-4.31547
-4.26112
-4.18522
-4.08928
-3.97498
-3.84409
-3.69843
-3.53982
-3.37001
-3.19063
-3.00317
-2.80897
-2.60917
-2.40474
-2.1965
-1.98512
-1.77119
-1.55525
-1.33783
-1.11953
-0.901034
-0.683237
-0.467078
-0.252618
-0.0334526
0.1953
0.431101
0.67039
0.909193
1.1436
1.37016
1.58632
1.79065
1.98296
2.16415
2.33567
2.49875
2.65339
2.79759
2.92737
3.03784
3.12516
3.18885
3.23326
3.26681
3.29734
3.32687
3.35082
3.36461
3.36899
3.36803
3.36457
3.35916
3.35108
3.34067
3.32965
3.31907
3.30922
3.3001
3.29168
3.28393
3.2768
3.27024
3.26421
3.25868
3.25362
3.24898
3.24476
3.24092
3.23744
3.2343
3.23147
3.22894
3.22668
3.22467
3.22289
3.22132
3.21995
3.21874
3.21769
3.21677
3.21597
3.21528
3.21468
3.21417
3.21374
3.21339
3.21312
3.21293
3.21282
3.2128
3.21287
3.21303
3.21327
3.2136
3.21402
3.21451
3.21509
3.21575
3.21648
3.2173
3.2182
3.21919
3.22029
3.2215
3.22285
3.22438
3.22608
3.22794
3.23021
3.23245
0.0095306
0.00376653
0.00232409
-0.00492848
-0.0167382
-0.0350413
-0.0607179
-0.0944528
-0.135957
-0.183615
-0.234227
-0.283399
-0.326413
-0.359632
-0.381653
-0.393694
-0.398947
-0.400957
-0.403002
-0.407274
-0.414668
-0.425221
-0.438315
-0.453424
-0.470014
-0.487651
-0.506019
-0.524934
-0.544313
-0.56416
-0.584537
-0.605555
-0.627354
-0.650101
-0.673984
-0.699213
-0.726026
-0.754685
-0.785485
-0.818755
-0.854859
-0.894201
-0.937225
-0.984416
-1.0363
-1.09344
-1.15644
-1.22592
-1.30255
-1.38699
-1.4799
-1.58192
-1.69365
-1.81559
-1.94814
-2.09156
-2.24592
-2.41105
-2.58651
-2.77155
-2.96506
-3.16557
-3.37118
-3.57965
-3.78838
-3.99444
-4.19472
-4.38593
-4.56482
-4.72822
-4.87292
-4.99461
-5.10003
-5.2038
-5.29114
-5.34439
-5.36603
-5.35723
-5.3187
-5.25155
-5.15729
-5.0377
-4.89483
-4.73087
-4.54814
-4.34901
-4.13582
-3.91082
-3.67614
-3.43377
-3.1855
-2.93295
-2.67756
-2.42063
-2.16335
-1.90686
-1.65226
-1.40077
-1.15387
-0.912172
-0.662311
-0.393833
-0.111899
0.1774
0.467591
0.752233
1.02556
1.28312
1.52224
1.74233
1.94472
2.13228
2.30865
2.47712
2.63923
2.7937
2.93622
3.06041
3.15992
3.23073
3.27298
3.29156
3.29574
3.29745
3.30601
3.32094
3.3339
3.33981
3.34068
3.33943
3.33696
3.33336
3.32918
3.32489
3.32058
3.31627
3.31197
3.30769
3.30345
3.29924
3.29508
3.29097
3.2869
3.28287
3.27888
3.27494
3.27104
3.26719
3.26338
3.25962
3.25593
3.2523
3.24875
3.2453
3.24196
3.23874
3.23566
3.23274
3.23
3.22746
3.22513
3.22302
3.22114
3.21951
3.21811
3.21697
3.21606
3.21538
3.21493
3.21468
3.21463
3.21474
3.21501
3.21542
3.21596
3.21662
3.21738
3.21825
3.21922
3.2203
3.22151
3.22285
3.22437
3.22607
3.22794
3.2302
3.23257
0.013067
0.00460905
0.0041076
-0.00318322
-0.0147041
-0.0328819
-0.058516
-0.0923893
-0.134235
-0.182445
-0.23377
-0.283707
-0.327379
-0.36098
-0.383009
-0.394728
-0.399363
-0.400825
-0.402629
-0.406802
-0.414084
-0.424587
-0.437751
-0.452881
-0.469444
-0.487008
-0.50525
-0.523984
-0.543123
-0.562664
-0.582664
-0.603219
-0.624455
-0.646523
-0.669591
-0.693849
-0.719514
-0.746831
-0.776083
-0.80759
-0.841722
-0.878903
-0.919612
-0.964397
-1.01387
-1.06871
-1.12966
-1.19753
-1.27317
-1.35748
-1.45136
-1.55567
-1.67124
-1.79881
-1.93894
-2.09207
-2.2584
-2.43792
-2.6303
-2.8349
-3.05071
-3.27635
-3.50999
-3.74939
-3.99201
-4.23488
-4.47468
-4.70778
-4.9303
-5.1382
-5.32738
-5.49378
-5.63304
-5.7387
-5.82632
-5.90659
-5.96151
-5.98385
-5.97533
-5.93632
-5.86743
-5.76968
-5.6445
-5.49358
-5.31894
-5.12279
-4.90747
-4.67536
-4.42891
-4.17048
-3.90235
-3.62666
-3.34542
-3.06046
-2.77348
-2.48608
-2.19977
-1.91612
-1.63685
-1.36347
-1.0813
-0.778731
-0.461547
-0.13709
0.186263
0.499789
0.79549
1.06723
1.31168
1.52884
1.72185
1.89634
2.05938
2.21814
2.37842
2.54296
2.7102
2.87413
3.02579
3.15589
3.25754
3.32811
3.36966
3.38806
3.39124
3.38794
3.38725
3.39499
3.40497
3.40925
3.40835
3.4054
3.40128
3.39652
3.39147
3.38614
3.38052
3.37466
3.36856
3.36227
3.3558
3.34917
3.34242
3.33557
3.32866
3.32171
3.31476
3.30785
3.301
3.29426
3.28765
3.28121
3.27497
3.26894
3.26316
3.25764
3.2524
3.24746
3.24284
3.23855
3.23461
3.23104
3.22784
3.22503
3.2226
3.22055
3.21888
3.21756
3.21658
3.2159
3.21551
3.21537
3.21544
3.21571
3.21615
3.21673
3.21745
3.21828
3.21924
3.2203
3.2215
3.22285
3.22436
3.22607
3.22793
3.23018
3.23278
0.0158489
0.00548735
0.00579987
-0.00144028
-0.0126403
-0.0306082
-0.0560795
-0.0899205
-0.131894
-0.180426
-0.232253
-0.282818
-0.32713
-0.361233
-0.383501
-0.395153
-0.399485
-0.400649
-0.402296
-0.40639
-0.413648
-0.424083
-0.437195
-0.452305
-0.468803
-0.486274
-0.504385
-0.52295
-0.541875
-0.561151
-0.580823
-0.600978
-0.621728
-0.643205
-0.665558
-0.688959
-0.713605
-0.739721
-0.767575
-0.797479
-0.829801
-0.864974
-0.903504
-0.945981
-0.993078
-1.04556
-1.10427
-1.17015
-1.24418
-1.3274
-1.42084
-1.5255
-1.64229
-1.77198
-1.91514
-2.0721
-2.24301
-2.42771
-2.62574
-2.83627
-3.05817
-3.28998
-3.52974
-3.77507
-4.02346
-4.27209
-4.5178
-4.75733
-4.98727
-5.20416
-5.40448
-5.58471
-5.74137
-5.87047
-5.9674
-6.03616
-6.08656
-6.11404
-6.11189
-6.08107
-6.02197
-5.93524
-5.82188
-5.68302
-5.51985
-5.33568
-5.13217
-4.91117
-4.67461
-4.42436
-4.16223
-3.88988
-3.60866
-3.31985
-3.0248
-2.7249
-2.42166
-2.11677
-1.81191
-1.50907
-1.19775
-0.870431
-0.531829
-0.189662
0.145841
0.463391
0.752409
1.0049
1.21704
1.39016
1.53059
1.64869
1.75718
1.86921
1.99643
2.14693
2.32321
2.5207
2.7281
2.92973
3.10948
3.25479
3.35942
3.4242
3.456
3.46489
3.46088
3.45539
3.45384
3.45558
3.45593
3.45217
3.44604
3.4389
3.43167
3.42447
3.41712
3.40961
3.40197
3.39423
3.3864
3.3785
3.37055
3.36258
3.3546
3.34662
3.33868
3.33077
3.32293
3.31516
3.30749
3.29993
3.29252
3.28527
3.27822
3.2714
3.26484
3.25859
3.25268
3.24714
3.24202
3.23734
3.23312
3.22939
3.22615
3.22339
3.22111
3.21928
3.21788
3.21687
3.21621
3.21586
3.21578
3.21594
3.2163
3.21682
3.2175
3.21831
3.21925
3.22031
3.2215
3.22284
3.22435
3.22606
3.22793
3.23014
3.23308
0.0179401
0.00641904
0.00740449
0.000308387
-0.010538
-0.0282099
-0.0534004
-0.0870454
-0.128948
-0.177585
-0.22972
-0.280786
-0.325725
-0.360455
-0.383209
-0.395102
-0.399463
-0.400582
-0.40217
-0.406198
-0.413405
-0.423756
-0.436754
-0.451766
-0.468159
-0.485514
-0.503494
-0.521907
-0.54065
-0.559705
-0.579105
-0.598926
-0.619262
-0.64023
-0.661962
-0.684607
-0.708343
-0.733375
-0.759952
-0.788371
-0.818989
-0.852242
-0.888643
-0.928803
-0.973432
-1.02335
-1.07946
-1.14278
-1.21438
-1.29539
-1.38693
-1.49006
-1.6057
-1.73462
-1.87728
-2.03381
-2.20422
-2.38826
-2.58545
-2.79475
-3.01484
-3.24434
-3.48031
-3.71959
-3.96052
-4.20086
-4.4371
-4.66597
-4.88426
-5.08884
-5.27676
-5.44526
-5.59185
-5.71424
-5.81019
-5.8769
-5.91793
-5.93684
-5.93088
-5.89871
-5.8404
-5.75622
-5.64679
-5.5129
-5.36013
-5.1905
-5.00249
-4.79845
-4.58034
-4.34897
-4.10436
-3.85003
-3.58572
-3.31118
-3.02613
-2.73008
-2.42362
-2.10855
-1.78739
-1.4632
-1.13037
-0.787355
-0.43821
-0.0917435
0.238941
0.539264
0.796053
1.00003
1.1478
1.24283
1.29527
1.32098
1.3393
1.37078
1.43466
1.54641
1.71487
1.93955
2.20915
2.50286
2.79442
3.05784
3.27278
3.42811
3.52295
3.56551
3.56997
3.55798
3.54428
3.53227
3.52234
3.51292
3.50317
3.49209
3.48067
3.46982
3.4592
3.44867
3.43826
3.42796
3.41779
3.40774
3.39782
3.38804
3.3784
3.36888
3.3595
3.35025
3.34112
3.33213
3.32328
3.31458
3.30604
3.29769
3.28955
3.28166
3.27406
3.26679
3.25991
3.25344
3.24744
3.24195
3.23699
3.23259
3.22875
3.22547
3.22275
3.22055
3.21884
3.21757
3.21672
3.21622
3.21603
3.2161
3.2164
3.21689
3.21754
3.21833
3.21925
3.2203
3.22149
3.22282
3.22433
3.22605
3.22792
3.23008
3.23342
0.0194709
0.00739332
0.00891611
0.00204395
-0.00842342
-0.0257262
-0.0505366
-0.0838469
-0.125509
-0.174064
-0.226335
-0.277785
-0.323329
-0.358789
-0.382258
-0.394706
-0.399421
-0.400736
-0.402383
-0.406367
-0.413468
-0.423676
-0.436496
-0.451335
-0.467576
-0.48479
-0.502635
-0.520911
-0.539501
-0.558378
-0.577559
-0.597104
-0.617093
-0.637625
-0.658811
-0.680782
-0.703691
-0.727722
-0.7531
-0.780102
-0.809067
-0.840414
-0.874654
-0.912397
-0.954367
-1.0014
-1.05445
-1.11458
-1.18291
-1.26064
-1.34894
-1.44895
-1.56162
-1.68773
-1.82755
-1.98096
-2.148
-2.3286
-2.52148
-2.72458
-2.93765
-3.16012
-3.3889
-3.62119
-3.85417
-4.08478
-4.3098
-4.52608
-4.73059
-4.92045
-5.09305
-5.24609
-5.37757
-5.48589
-5.56977
-5.62818
-5.6598
-5.66823
-5.65607
-5.62153
-5.56459
-5.48556
-5.38491
-5.26333
-5.12205
-4.96084
-4.78159
-4.58663
-4.37818
-4.15768
-3.93605
-3.71294
-3.47632
-3.22199
-2.95323
-2.66567
-2.35666
-2.02619
-1.68031
-1.32872
-0.973746
-0.617282
-0.263706
0.0761183
0.384918
0.645112
0.843022
0.970967
1.02899
1.02467
0.972035
0.891299
0.806422
0.743779
0.729248
0.785615
0.929207
1.16574
1.48726
1.87157
2.2853
2.6899
3.04897
3.3349
3.53285
3.64178
3.67181
3.64967
3.60912
3.57691
3.55566
3.54093
3.52804
3.51427
3.49988
3.4865
3.47392
3.4618
3.45014
3.43891
3.42807
3.41757
3.40739
3.39746
3.38776
3.37824
3.36886
3.35959
3.3504
3.34127
3.3322
3.3232
3.31429
3.30548
3.29682
3.28837
3.28017
3.27228
3.26478
3.2577
3.25112
3.24508
3.23962