/*--------------------------------*- C++ -*----------------------------------*\
| =========                 |                                                 |
| \\      /  F ield         | OpenFOAM: The Open Source CFD Toolbox           |
|  \\    /   O peration     | Version:  2406                                  |
|   \\  /    A nd           | Website:  www.openfoam.com                      |
|    \\/     M anipulation  |                                                 |
\*---------------------------------------------------------------------------*/
FoamFile
{
    version     2.0;
    format      ascii;
    arch        "LSB;label=32;scalar=64";
    class       surfaceScalarField;
    location    "400";
    object      phi;
}
// * * * * * * * * * * * * * * * * * * * * * * * * * * * * * * * * * * * * * //

dimensions      [0 3 -1 0 0 0 0];

oriented        oriented;

internalField   nonuniform List<scalar> 
10988
(
-7.82747e-05
1.28714e-06
-8.04257e-05
2.15099e-06
-8.28116e-05
2.3859e-06
-8.54856e-05
2.67394e-06
-8.84333e-05
2.94779e-06
-9.16445e-05
3.21117e-06
-9.50774e-05
3.4329e-06
-9.86583e-05
3.58084e-06
-0.00010228
3.62179e-06
-0.000105811
3.5309e-06
-0.00010911
3.29898e-06
-0.000112049
2.93904e-06
-0.000114537
2.48766e-06
-0.000116538
2.0006e-06
-0.000118079
1.54131e-06
-0.000119244
1.16514e-06
-0.00012015
9.06041e-07
-0.00012092
7.70067e-07
-0.00012166
7.40253e-07
-0.000122447
7.86223e-07
-0.000123321
8.74516e-07
-0.000124299
9.77562e-07
-0.000125376
1.07741e-06
-0.000126541
1.16538e-06
-0.000127781
1.23931e-06
-0.000129082
1.30078e-06
-0.000130435
1.35292e-06
-0.000131834
1.39905e-06
-0.000133276
1.44207e-06
-0.00013476
1.48413e-06
-0.000136287
1.52677e-06
-0.000137857
1.57095e-06
-0.000139475
1.6172e-06
-0.00014114
1.66569e-06
-0.000142857
1.7163e-06
-0.000144625
1.76872e-06
-0.000146448
1.82256e-06
-0.000148325
1.87726e-06
-0.000150257
1.93207e-06
-0.000152243
1.98606e-06
-0.000154281
2.03809e-06
-0.000156368
2.0869e-06
-0.0001585
2.13117e-06
-0.000160669
2.16945e-06
-0.000162869
2.20021e-06
-0.000165091
2.22179e-06
-0.000167324
2.23258e-06
-0.000169555
2.23113e-06
-0.000171771
2.21616e-06
-0.000173958
2.1866e-06
-0.000176099
2.14154e-06
-0.000178179
2.08029e-06
-0.000180182
2.00253e-06
-0.00018209
1.90829e-06
-0.000183888
1.79794e-06
-0.00018556
1.67208e-06
-0.000187092
1.53148e-06
-0.000188469
1.37709e-06
-0.000189679
1.21009e-06
-0.000190711
1.03177e-06
-0.000191554
8.43429e-07
-0.0001922
6.46208e-07
-0.000192641
4.41073e-07
-0.00019287
2.28843e-07
-0.00019288
9.84638e-09
-0.00019266
-2.19693e-07
-0.000192199
-4.61534e-07
-0.000191486
-7.12672e-07
-0.000190515
-9.7157e-07
-0.000189277
-1.2379e-06
-0.000187765
-1.51174e-06
-0.000185971
-1.79345e-06
-0.000183888
-2.08349e-06
-0.000181506
-2.38229e-06
-0.000178816
-2.69021e-06
-0.000175808
-3.00763e-06
-0.000172473
-3.33496e-06
-0.0001688
-3.67245e-06
-0.00016478
-4.02006e-06
-0.000160403
-4.37755e-06
-0.000155658
-4.74444e-06
-0.000150538
-5.11996e-06
-0.000145036
-5.50289e-06
-0.000139144
-5.89141e-06
-0.000132861
-6.28321e-06
-0.000126186
-6.67535e-06
-0.000119121
-7.06417e-06
-0.000111676
-7.445e-06
-0.000103864
-7.81223e-06
-9.57048e-05
-8.15916e-06
-8.72271e-05
-8.47777e-06
-7.84686e-05
-8.75848e-06
-6.94783e-05
-8.99006e-06
-6.03187e-05
-9.15939e-06
-5.10679e-05
-9.251e-06
-4.18215e-05
-9.24667e-06
-3.26964e-05
-9.12532e-06
-2.38333e-05
-8.86303e-06
-1.54003e-05
-8.43297e-06
-7.55877e-06
-7.84151e-06
2.75341e-07
-7.83416e-06
7.69567e-06
-7.42051e-06
1.39874e-05
-6.29164e-06
1.81532e-05
-4.16558e-06
1.85526e-05
-3.99554e-07
1.31983e-05
5.35401e-06
1.85235e-07
1.30135e-05
-1.77423e-05
1.79276e-05
-3.29755e-05
1.52332e-05
-4.26855e-05
9.71002e-06
-4.94108e-05
6.72515e-06
-5.43709e-05
4.96027e-06
-5.80091e-05
3.63798e-06
-6.05625e-05
2.55363e-06
-6.2186e-05
1.62346e-06
-6.30177e-05
8.31537e-07
-6.31926e-05
1.75095e-07
-6.28374e-05
-3.55006e-07
-6.20564e-05
-7.81039e-07
-6.09323e-05
-1.12416e-06
-5.9546e-05
-1.38608e-06
-5.79846e-05
-1.56132e-06
-5.63394e-05
-1.64531e-06
-5.46995e-05
-1.63999e-06
-5.31425e-05
-1.55692e-06
-5.17258e-05
-1.41658e-06
-5.04827e-05
-1.24324e-06
-4.94232e-05
-1.05954e-06
-4.84423e-05
-9.80927e-07
-4.75375e-05
-9.04727e-07
-4.67011e-05
-8.36396e-07
-4.59234e-05
-7.77872e-07
-4.5194e-05
-7.29397e-07
-4.45037e-05
-6.90197e-07
-4.38445e-05
-6.5913e-07
-4.32096e-05
-6.34952e-07
-4.25933e-05
-6.16448e-07
-4.19908e-05
-6.02574e-07
-4.13982e-05
-5.92574e-07
-4.08122e-05
-5.85928e-07
-4.023e-05
-5.82186e-07
-3.96493e-05
-5.80842e-07
-3.9068e-05
-5.81383e-07
-3.84845e-05
-5.83402e-07
-3.78979e-05
-5.86576e-07
-3.73076e-05
-5.90495e-07
-3.67132e-05
-5.9457e-07
-3.61152e-05
-5.98164e-07
-3.55144e-05
-6.00762e-07
-3.49125e-05
-6.01953e-07
-3.43114e-05
-6.01242e-07
-3.37135e-05
-5.97999e-07
-3.31218e-05
-5.91644e-07
-3.25399e-05
-5.81853e-07
-3.19713e-05
-5.68499e-07
-3.142e-05
-5.5143e-07
-3.08899e-05
-5.30388e-07
-3.03848e-05
-5.05222e-07
-2.99085e-05
-4.76124e-07
-2.94647e-05
-4.43592e-07
-2.90564e-05
-4.08152e-07
-2.86863e-05
-3.70196e-07
-2.83562e-05
-3.30102e-07
-2.80677e-05
-2.88462e-07
-2.78214e-05
-2.461e-07
-2.76175e-05
-2.03846e-07
-2.74553e-05
-1.62297e-07
-2.73336e-05
-1.21825e-07
-2.7251e-05
-8.27212e-08
-2.72056e-05
-4.52997e-08
-2.71961e-05
-9.50924e-09
-2.72191e-05
2.29774e-08
-2.72706e-05
5.14943e-08
-2.73492e-05
7.85194e-08
-2.74549e-05
1.05752e-07
-2.75898e-05
1.34919e-07
-2.77586e-05
1.68769e-07
-2.79704e-05
2.11732e-07
-2.8241e-05
2.70589e-07
-2.85964e-05
3.55423e-07
-2.90763e-05
4.79932e-07
-2.97373e-05
6.60999e-07
-3.06538e-05
9.1644e-07
-3.19162e-05
1.26236e-06
-3.36136e-05
1.6974e-06
-3.58577e-05
2.2441e-06
4.14237e-06
-0.000112505
2.79199e-06
-0.000115179
4.8248e-06
-0.000118146
5.35276e-06
-0.000121548
6.07686e-06
-0.000125356
6.75562e-06
-0.000129568
7.42291e-06
-0.000134133
7.99774e-06
-0.000138956
8.40405e-06
-0.000143892
8.55716e-06
-0.000148751
8.39073e-06
-0.000153328
7.87509e-06
-0.000157423
7.03482e-06
-0.00016089
5.95463e-06
-0.000163659
4.76904e-06
-0.000165752
3.63462e-06
-0.000167278
2.6912e-06
-0.000168399
2.02746e-06
-0.000169294
1.66433e-06
-0.000170118
1.56465e-06
-0.000170988
1.65656e-06
-0.000171972
1.85854e-06
-0.000173097
2.10177e-06
-0.00017436
2.34059e-06
-0.000175747
2.55205e-06
-0.000177237
2.72977e-06
-0.000178813
2.87689e-06
-0.000180461
3.00076e-06
-0.000182171
3.10939e-06
-0.000183939
3.20988e-06
-0.000185763
3.30764e-06
-0.000187642
3.4065e-06
-0.00018958
3.50882e-06
-0.000191579
3.61589e-06
-0.000193641
3.72812e-06
-0.00019577
3.84533e-06
-0.000197969
3.96688e-06
-0.000200238
4.09177e-06
-0.000202579
4.21865e-06
-0.000204993
4.34579e-06
-0.000207478
4.47105e-06
-0.000210032
4.59195e-06
-0.000212651
4.70571e-06
-0.000215329
4.80926e-06
-0.000218059
4.89926e-06
-0.000220831
4.97216e-06
-0.000223633
5.02433e-06
-0.000226453
5.05218e-06
-0.000229274
5.05241e-06
-0.00023208
5.02206e-06
-0.000234852
4.95852e-06
-0.00023757
4.85969e-06
-0.000240214
4.72409e-06
-0.000242762
4.55096e-06
-0.000245194
4.34032e-06
-0.000247489
4.09282e-06
-0.000249627
3.8097e-06
-0.000251588
3.49269e-06
-0.000253355
3.14404e-06
-0.000254911
2.76633e-06
-0.000256242
2.36238e-06
-0.000257333
1.93496e-06
-0.000258174
1.4866e-06
-0.000258752
1.01946e-06
-0.000259058
5.35093e-07
-0.000259082
3.38605e-08
-0.000258815
-4.87082e-07
-0.000258248
-1.02869e-06
-0.000257373
-1.58776e-06
-0.000256182
-2.16216e-06
-0.000254669
-2.75145e-06
-0.000252824
-3.35591e-06
-0.000250642
-3.97617e-06
-0.000248112
-4.61303e-06
-0.000245227
-5.26737e-06
-0.000241977
-5.9401e-06
-0.000238353
-6.63213e-06
-0.000234343
-7.34421e-06
-0.000229939
-8.07676e-06
-0.000225129
-8.8298e-06
-0.000219904
-9.60292e-06
-0.000214253
-1.03951e-05
-0.000208169
-1.12046e-05
-0.000201643
-1.20287e-05
-0.00019467
-1.28637e-05
-0.000187249
-1.37047e-05
-0.000179379
-1.45453e-05
-0.000171065
-1.53777e-05
-0.000162318
-1.61922e-05
-0.000153153
-1.69769e-05
-0.000143595
-1.77178e-05
-0.000133674
-1.83983e-05
-0.000123434
-1.89991e-05
-0.000112926
-1.94975e-05
-0.000102218
-1.98679e-05
-9.13877e-05
-2.00811e-05
-8.05296e-05
-2.01045e-05
-6.97515e-05
-1.99032e-05
-5.91736e-05
-1.94411e-05
-4.89188e-05
-1.86878e-05
-3.91258e-05
-1.76344e-05
-2.90109e-05
-1.79492e-05
-1.90284e-05
-1.74029e-05
-9.82812e-06
-1.54923e-05
-2.42729e-06
-1.15664e-05
1.37582e-06
-4.20262e-06
-1.58179e-06
8.31134e-06
-1.15435e-05
2.29744e-05
-2.53044e-05
3.16886e-05
-3.95984e-05
2.95269e-05
-5.20363e-05
2.21477e-05
-6.18055e-05
1.64946e-05
-6.93418e-05
1.24964e-05
-7.50413e-05
9.33743e-06
-7.92027e-05
6.7152e-06
-8.20406e-05
4.46168e-06
-8.37381e-05
2.52899e-06
-8.44694e-05
9.06338e-07
-8.44123e-05
-4.12054e-07
-8.37576e-05
-1.43572e-06
-8.26653e-05
-2.21646e-06
-8.12452e-05
-2.80632e-06
-7.95938e-05
-3.21291e-06
-7.78092e-05
-3.42994e-06
-7.59893e-05
-3.45963e-06
-7.42243e-05
-3.32185e-06
-7.25867e-05
-3.05443e-06
-7.1125e-05
-2.70507e-06
-6.98635e-05
-2.32097e-06
-6.86848e-05
-2.15954e-06
-6.75923e-05
-1.99727e-06
-6.65823e-05
-1.84657e-06
-6.56463e-05
-1.71381e-06
-6.47741e-05
-1.60151e-06
-6.39548e-05
-1.5095e-06
-6.3178e-05
-1.43606e-06
-6.24342e-05
-1.37886e-06
-6.17151e-05
-1.33547e-06
-6.10136e-05
-1.30378e-06
-6.03239e-05
-1.28206e-06
-5.96411e-05
-1.26884e-06
-5.89607e-05
-1.26276e-06
-5.8279e-05
-1.26259e-06
-5.75931e-05
-1.26721e-06
-5.69009e-05
-1.27562e-06
-5.62009e-05
-1.28679e-06
-5.54921e-05
-1.29954e-06
-5.47742e-05
-1.31257e-06
-5.40477e-05
-1.32456e-06
-5.33141e-05
-1.33432e-06
-5.25756e-05
-1.34062e-06
-5.18347e-05
-1.34216e-06
-5.10949e-05
-1.33765e-06
-5.03604e-05
-1.32601e-06
-4.96357e-05
-1.30643e-06
-4.89261e-05
-1.27828e-06
-4.82367e-05
-1.24099e-06
-4.7573e-05
-1.19416e-06
-4.69402e-05
-1.13776e-06
-4.63438e-05
-1.07226e-06
-4.57888e-05
-9.98468e-07
-4.52797e-05
-9.17298e-07
-4.48202e-05
-8.29678e-07
-4.44134e-05
-7.36729e-07
-4.40617e-05
-6.39923e-07
-4.37668e-05
-5.40971e-07
-4.35293e-05
-4.4149e-07
-4.3349e-05
-3.42765e-07
-4.32252e-05
-2.45768e-07
-4.31566e-05
-1.51275e-07
-4.3142e-05
-5.99091e-08
-4.31785e-05
2.69985e-08
-4.32627e-05
1.07106e-07
-4.33933e-05
1.82077e-07
-4.35712e-05
2.56419e-07
-4.37986e-05
3.33098e-07
-4.40796e-05
4.15873e-07
-4.44207e-05
5.09832e-07
-4.48309e-05
6.2183e-07
-4.53209e-05
7.60717e-07
-4.59029e-05
9.37403e-07
-4.65872e-05
1.16424e-06
-4.73798e-05
1.45352e-06
-4.82785e-05
1.81512e-06
-4.927e-05
2.25375e-06
-5.03162e-05
2.74365e-06
-5.13566e-05
3.28467e-06
5.21929e-06
-0.000150636
4.5984e-06
-0.000153908
8.09712e-06
-0.000157553
8.99767e-06
-0.000161779
1.0303e-05
-0.000166544
1.15199e-05
-0.000171852
1.27309e-05
-0.000177644
1.37896e-05
-0.000183804
1.45639e-05
-0.000190146
1.48996e-05
-0.000196427
1.46717e-05
-0.00020237
1.38176e-05
-0.000207706
1.23713e-05
-0.000212229
1.04771e-05
-0.000215832
8.37227e-06
-0.000218535
6.33838e-06
-0.000220475
4.6306e-06
-0.000221862
3.41415e-06
-0.00022293
2.73309e-06
-0.000223891
2.52579e-06
-0.000224901
2.66645e-06
-0.000226053
3.01001e-06
-0.000227383
3.43239e-06
-0.000228893
3.85018e-06
-0.000230562
4.22076e-06
-0.000232364
4.53155e-06
-0.000234274
4.78742e-06
-0.000236274
5.00116e-06
-0.000238352
5.18703e-06
-0.0002405
5.35773e-06
-0.000242715
5.52304e-06
-0.000244999
5.68987e-06
-0.000247352
5.86252e-06
-0.00024978
6.04332e-06
-0.000252285
6.23308e-06
-0.000254871
6.43156e-06
-0.000257542
6.63769e-06
-0.0002603
6.84979e-06
-0.000263147
7.06554e-06
-0.000266083
7.28202e-06
-0.000269108
7.49565e-06
-0.000272218
7.70234e-06
-0.00027541
7.89739e-06
-0.000278676
8.07565e-06
-0.000282008
8.23147e-06
-0.000285395
8.35887e-06
-0.000288823
8.45176e-06
-0.000292275
8.50415e-06
-0.000295733
8.5104e-06
-0.000299176
8.46538e-06
-0.000302582
8.36459e-06
-0.000305927
8.2044e-06
-0.000309185
7.98223e-06
-0.00031233
7.69669e-06
-0.000315338
7.3476e-06
-0.000318181
6.93587e-06
-0.000320835
6.46343e-06
-0.000323275
5.93314e-06
-0.00032548
5.3487e-06
-0.000327428
4.71443e-06
-0.0003291
4.03499e-06
-0.00033048
3.31503e-06
-0.000331553
2.55896e-06
-0.000332304
1.77062e-06
-0.000332722
9.53026e-07
-0.000332796
1.07639e-07
-0.000332516
-7.66929e-07
-0.000331874
-1.67022e-06
-0.000330863
-2.59863e-06
-0.000329476
-3.55001e-06
-0.000327703
-4.52388e-06
-0.000325538
-5.5206e-06
-0.000322974
-6.54107e-06
-0.00032
-7.58646e-06
-0.000316609
-8.65815e-06
-0.000312792
-9.75759e-06
-0.000308538
-1.08861e-05
-0.000303837
-1.20449e-05
-0.000298679
-1.32345e-05
-0.000293054
-1.44551e-05
-0.000286951
-1.57059e-05
-0.000280361
-1.69855e-05
-0.000273274
-1.8291e-05
-0.000265685
-1.96182e-05
-0.000257587
-2.09612e-05
-0.00024898
-2.23124e-05
-0.000239863
-2.36617e-05
-0.000230244
-2.49969e-05
-0.000220133
-2.63028e-05
-0.000209549
-2.75612e-05
-0.000198516
-2.87504e-05
-0.000187069
-2.9845e-05
-0.000175253
-3.08158e-05
-0.000163121
-3.16291e-05
-0.000150742
-3.22472e-05
-0.000138195
-3.26283e-05
-0.000125572
-3.27268e-05
-0.000112981
-3.24944e-05
-0.000100541
-3.18815e-05
-8.83884e-05
-3.08403e-05
-7.66955e-05
-2.93272e-05
-6.45676e-05
-3.00771e-05
-5.2496e-05
-2.94746e-05
-4.11141e-05
-2.68741e-05
-3.13899e-05
-2.12907e-05
-2.46485e-05
-1.09437e-05
-2.29485e-05
6.61146e-06
-2.74634e-05
2.74893e-05
-3.67417e-05
4.0967e-05
-4.90161e-05
4.18014e-05
-6.1838e-05
3.49692e-05
-7.3002e-05
2.76588e-05
-8.21162e-05
2.16105e-05
-8.93793e-05
1.66001e-05
-9.50516e-05
1.23875e-05
-9.9346e-05
8.75621e-06
-0.000102422
5.60533e-06
-0.00010441
2.89365e-06
-0.00010543
6.0797e-07
-0.000105625
-1.24041e-06
-0.000105184
-2.65725e-06
-0.000104278
-3.71288e-06
-0.000103023
-4.46733e-06
-0.000101524
-4.92896e-06
-9.98822e-05
-5.10165e-06
-9.81967e-05
-5.00754e-06
-9.65566e-05
-4.69461e-06
-9.5033e-05
-4.22862e-06
-9.36737e-05
-3.6802e-06
-9.23709e-05
-3.46236e-06
-9.11407e-05
-3.22763e-06
-8.99891e-05
-2.99832e-06
-8.89143e-05
-2.78852e-06
-8.79097e-05
-2.60605e-06
-8.69655e-05
-2.45368e-06
-8.60708e-05
-2.33082e-06
-8.52146e-05
-2.235e-06
-8.4387e-05
-2.16307e-06
-8.35789e-05
-2.11184e-06
-8.27827e-05
-2.07835e-06
-8.19918e-05
-2.05995e-06
-8.12004e-05
-2.05424e-06
-8.04039e-05
-2.05903e-06
-7.95988e-05
-2.07228e-06
-7.87825e-05
-2.09204e-06
-7.79533e-05
-2.11625e-06
-7.71103e-05
-2.14276e-06
-7.62536e-05
-2.16935e-06
-7.53843e-05
-2.19382e-06
-7.45046e-05
-2.21403e-06
-7.36176e-05
-2.22778e-06
-7.27269e-05
-2.2329e-06
-7.18371e-05
-2.22735e-06
-7.09537e-05
-2.20936e-06
-7.00827e-05
-2.1775e-06
-6.92305e-05
-2.13062e-06
-6.84038e-05
-2.06781e-06
-6.76093e-05
-1.98858e-06
-6.68539e-05
-1.89301e-06
-6.61442e-05
-1.78182e-06
-6.54865e-05
-1.65617e-06
-6.48864e-05
-1.51746e-06
-6.43487e-05
-1.36733e-06
-6.38774e-05
-1.20784e-06
-6.34756e-05
-1.0415e-06
-6.31455e-05
-8.71083e-07
-6.28879e-05
-6.99217e-07
-6.27027e-05
-5.28131e-07
-6.25889e-05
-3.59703e-07
-6.25446e-05
-1.95538e-07
-6.25675e-05
-3.70146e-08
-6.26523e-05
1.11774e-07
-6.27947e-05
2.49483e-07
-6.29931e-05
3.80461e-07
-6.32448e-05
5.08044e-07
-6.3547e-05
6.35283e-07
-6.38968e-05
7.65638e-07
-6.42904e-05
9.03332e-07
-6.47222e-05
1.05355e-06
-6.5184e-05
1.22261e-06
-6.56647e-05
1.41818e-06
-6.615e-05
1.64954e-06
-6.66237e-05
1.92708e-06
-6.70694e-05
2.26074e-06
-6.7472e-05
2.65639e-06
-6.78124e-05
3.08405e-06
-6.80684e-05
3.54074e-06
5.38105e-06
-0.000196581
6.7879e-06
-0.000200567
1.2083e-05
-0.000205022
1.34526e-05
-0.000210211
1.54922e-05
-0.00021608
1.73884e-05
-0.000222637
1.92881e-05
-0.000229811
2.09637e-05
-0.00023746
2.22129e-05
-0.000245353
2.2793e-05
-0.000253184
2.25023e-05
-0.000260599
2.12328e-05
-0.000267255
1.90275e-05
-0.000272883
1.61048e-05
-0.000277345
1.2834e-05
-0.000280664
9.65748e-06
-0.000283012
6.97915e-06
-0.00028466
5.06219e-06
-0.000285906
3.97915e-06
-0.000287017
3.63599e-06
-0.000288188
3.83735e-06
-0.000289535
4.35726e-06
-0.000291104
5.00172e-06
-0.000292894
5.64e-06
-0.000294878
6.20499e-06
-0.000297023
6.6766e-06
-0.000299298
7.06217e-06
-0.000301678
7.3815e-06
-0.000304148
7.6568e-06
-0.000306698
7.90795e-06
-0.000309326
8.15031e-06
-0.00031203
8.39471e-06
-0.000314816
8.64794e-06
-0.000317686
8.91371e-06
-0.000320646
9.19338e-06
-0.000323702
9.48667e-06
-0.000326856
9.79208e-06
-0.000330113
1.01071e-05
-0.000333476
1.04283e-05
-0.000336946
1.07514e-05
-0.000340521
1.10712e-05
-0.0003442
1.13814e-05
-0.000347978
1.16753e-05
-0.000351848
1.19451e-05
-0.000355799
1.21824e-05
-0.000359818
1.23782e-05
-0.00036389
1.25236e-05
-0.000367995
1.26095e-05
-0.000372112
1.26273e-05
-0.000376216
1.25693e-05
-0.00038028
1.24285e-05
-0.000384275
1.21994e-05
-0.000388171
1.18779e-05
-0.000391936
1.14617e-05
-0.000395538
1.09503e-05
-0.000398947
1.03448e-05
-0.000402132
9.64773e-06
-0.000405062
8.86336e-06
-0.00040771
7.99706e-06
-0.000410051
7.05519e-06
-0.000412061
6.04465e-06
-0.000413718
4.97248e-06
-0.000415005
3.84555e-06
-0.000415904
2.67007e-06
-0.000416402
1.45124e-06
-0.000416487
1.92483e-07
-0.000416148
-1.10551e-06
-0.000415379
-2.43963e-06
-0.000414172
-3.80527e-06
-0.000412522
-5.20074e-06
-0.00041042
-6.62557e-06
-0.00040786
-8.08024e-06
-0.000404836
-9.56579e-06
-0.000401338
-1.10837e-05
-0.000397361
-1.26357e-05
-0.000392895
-1.42237e-05
-0.000387932
-1.58492e-05
-0.000382463
-1.75138e-05
-0.000376479
-1.92183e-05
-0.000369971
-2.09627e-05
-0.000362931
-2.27463e-05
-0.00035535
-2.45668e-05
-0.00034722
-2.64203e-05
-0.000338537
-2.83013e-05
-0.000329296
-3.02018e-05
-0.000319497
-3.21114e-05
-0.000309143
-3.40165e-05
-0.000298239
-3.59005e-05
-0.000286799
-3.77426e-05
-0.000274842
-3.95183e-05
-0.000262394
-4.11982e-05
-0.000249491
-4.2748e-05
-0.000236179
-4.41281e-05
-0.000222515
-4.52935e-05
-0.000208568
-4.61939e-05
-0.000194423
-4.67733e-05
-0.000180179
-4.69711e-05
-0.000165951
-4.67223e-05
-0.000151875
-4.59578e-05
-0.00013811
-4.46047e-05
-0.000124856
-4.25811e-05
-0.000111085
-4.38483e-05
-9.73291e-05
-4.32306e-05
-8.42554e-05
-3.99478e-05
-7.26745e-05
-3.28718e-05
-6.34165e-05
-2.02017e-05
-5.70354e-05
2.30191e-07
-5.49144e-05
2.53682e-05
-5.76921e-05
4.37444e-05
-6.49977e-05
4.91075e-05
-7.50051e-05
4.49761e-05
-8.51747e-05
3.78283e-05
-9.43332e-05
3.07696e-05
-0.00010224
2.45063e-05
-0.000108947
1.90952e-05
-0.000114579
1.43874e-05
-0.000119228
1.02553e-05
-0.000122947
6.61199e-06
-0.000125748
3.40935e-06
-0.000127632
6.43171e-07
-0.000128644
-1.6452e-06
-0.000128943
-3.41385e-06
-0.000128711
-4.6986e-06
-0.000128073
-5.56766e-06
-0.000127129
-6.04488e-06
-0.000125978
-6.15921e-06
-0.000124711
-5.96145e-06
-0.000123417
-5.52162e-06
-0.000122175
-4.92266e-06
-0.000120913
-4.72487e-06
-0.000119666
-4.47409e-06
-0.00011846
-4.20448e-06
-0.000117307
-3.9415e-06
-0.00011621
-3.70255e-06
-0.000115167
-3.49735e-06
-0.000114168
-3.32957e-06
-0.000113204
-3.19879e-06
-0.000112265
-3.10223e-06
-0.000111341
-3.03612e-06
-0.000110423
-2.99644e-06
-0.000109503
-2.97926e-06
-0.000108577
-2.9809e-06
-0.000107638
-2.99792e-06
-0.000106683
-3.02704e-06
-0.00010571
-3.065e-06
-0.000104718
-3.10853e-06
-0.000103706
-3.1543e-06
-0.000102677
-3.19897e-06
-0.000101631
-3.23923e-06
-0.000100574
-3.27181e-06
-9.9508e-05
-3.29348e-06
-9.84398e-05
-3.30117e-06
-9.73751e-05
-3.29207e-06
-9.63207e-05
-3.26374e-06
-9.5284e-05
-3.21423e-06
-9.42728e-05
-3.14197e-06
-9.32948e-05
-3.04592e-06
-9.23577e-05
-2.92565e-06
-9.14691e-05
-2.78152e-06
-9.06362e-05
-2.61469e-06
-8.98656e-05
-2.42689e-06
-8.91627e-05
-2.22035e-06
-8.85322e-05
-1.99778e-06
-8.79773e-05
-1.76252e-06
-8.75002e-05
-1.51849e-06
-8.71014e-05
-1.26987e-06
-8.67801e-05
-1.02069e-06
-8.65338e-05
-7.74605e-07
-8.63587e-05
-5.34913e-07
-8.62496e-05
-3.04578e-07
-8.62004e-05
-8.61761e-08
-8.62058e-05
1.17119e-07
-8.62602e-05
3.03816e-07
-8.63561e-05
4.76374e-07
-8.64861e-05
6.38035e-07
-8.66427e-05
7.91833e-07
-8.68185e-05
9.41345e-07
-8.70062e-05
1.091e-06
-8.71989e-05
1.24623e-06
-8.73898e-05
1.41359e-06
-8.75726e-05
1.60097e-06
-8.77409e-05
1.81789e-06
-8.78888e-05
2.07486e-06
-8.80101e-05
2.38194e-06
-8.80988e-05
2.74504e-06
-8.81457e-05
3.13102e-06
-8.81361e-05
3.53124e-06
5.18925e-06
-0.000251678
9.4167e-06
-0.00025645
1.68543e-05
-0.000261799
1.88016e-05
-0.000268038
2.17313e-05
-0.000275098
2.44489e-05
-0.000282989
2.71792e-05
-0.000291622
2.95966e-05
-0.000300823
3.14136e-05
-0.000310309
3.22789e-05
-0.000319703
3.1896e-05
-0.000328571
3.0101e-05
-0.000336493
2.69494e-05
-0.000343142
2.27538e-05
-0.000348358
1.80501e-05
-0.000352182
1.34816e-05
-0.000354838
9.63466e-06
-0.000356664
6.88793e-06
-0.000358026
5.34165e-06
-0.000359245
4.85541e-06
-0.000360553
5.14482e-06
-0.00036208
5.88419e-06
-0.000363874
6.79579e-06
-0.000365928
7.69375e-06
-0.000368206
8.48353e-06
-0.000370667
9.13764e-06
-0.000373273
9.66744e-06
-0.000375993
1.01018e-05
-0.000378809
1.04728e-05
-0.00038171
1.08091e-05
-0.000384693
1.1133e-05
-0.000387758
1.14599e-05
-0.00039091
1.17998e-05
-0.000394154
1.21581e-05
-0.000397497
1.25368e-05
-0.000400946
1.29357e-05
-0.000404507
1.33529e-05
-0.000408185
1.37849e-05
-0.000411984
1.42271e-05
-0.000415906
1.46736e-05
-0.000419952
1.5117e-05
-0.00042412
1.55491e-05
-0.000428405
1.59603e-05
-0.000432799
1.63396e-05
-0.000437292
1.66755e-05
-0.00044187
1.69554e-05
-0.000446513
1.71667e-05
-0.0004512
1.72965e-05
-0.000455905
1.73329e-05
-0.000460601
1.72647e-05
-0.000465254
1.70819e-05
-0.000469831
1.67765e-05
-0.000474296
1.63427e-05
-0.000478611
1.57768e-05
-0.000482739
1.50778e-05
-0.00048664
1.42467e-05
-0.00049028
1.32871e-05
-0.000493621
1.22046e-05
-0.000496631
1.10066e-05
-0.000499277
9.70177e-06
-0.000501532
8.29976e-06
-0.00050337
6.81063e-06
-0.000504769
5.24434e-06
-0.00050571
3.61034e-06
-0.000506175
1.91697e-06
-0.000506153
1.70691e-07
-0.000505635
-1.62373e-06
-0.000504615
-3.45954e-06
-0.000503089
-5.33141e-06
-0.000501052
-7.23795e-06
-0.000498499
-9.17869e-06
-0.000495425
-1.1154e-05
-0.000491826
-1.31648e-05
-0.000487697
-1.52126e-05
-0.000483034
-1.72991e-05
-0.000477831
-1.94264e-05
-0.000472084
-2.15964e-05
-0.000465787
-2.38105e-05
-0.000458936
-2.60698e-05
-0.000451524
-2.83744e-05
-0.000443547
-3.07233e-05
-0.000435
-3.31139e-05
-0.000425879
-3.55415e-05
-0.000416181
-3.79992e-05
-0.000405905
-4.04774e-05
-0.000395054
-4.29632e-05
-0.000383631
-4.54396e-05
-0.000371645
-4.78857e-05
-0.000359112
-5.02756e-05
-0.000346053
-5.25779e-05
-0.000332496
-5.47553e-05
-0.00031848
-5.67639e-05
-0.000304055
-5.85529e-05
-0.000289284
-6.00645e-05
-0.000274244
-6.12335e-05
-0.00025903
-6.19875e-05
-0.000243753
-6.22476e-05
-0.000228547
-6.19285e-05
-0.000213566
-6.09386e-05
-0.000198992
-5.91795e-05
-0.000185033
-5.65396e-05
-0.000170588
-5.82931e-05
-0.000156155
-5.7664e-05
-0.000142276
-5.38269e-05
-0.000129409
-4.57384e-05
-0.000117625
-3.19858e-05
-0.000106285
-1.11097e-05
-9.6301e-05
1.53843e-05
-9.05114e-05
3.79545e-05
-9.01509e-05
4.87476e-05
-9.42881e-05
4.91129e-05
-0.000100708
4.42483e-05
-0.000107754
3.78162e-05
-0.000114641
3.1393e-05
-0.000121063
2.55168e-05
-0.000126954
2.02779e-05
-0.000132336
1.56376e-05
-0.000137246
1.15225e-05
-0.000141693
7.85555e-06
-0.000145628
4.57917e-06
-0.000148945
1.6714e-06
-0.000151518
-8.40507e-07
-0.000153339
-2.87824e-06
-0.000154495
-4.41134e-06
-0.000155088
-5.45225e-06
-0.000155208
-6.03931e-06
-0.000154948
-6.22094e-06
-0.000154411
-6.05857e-06
-0.000153702
-5.63213e-06
-0.000152831
-5.59628e-06
-0.000151855
-5.44992e-06
-0.000150823
-5.23607e-06
-0.000149772
-4.99299e-06
-0.000148723
-4.75135e-06
-0.000147687
-4.5327e-06
-0.000146667
-4.34971e-06
-0.000145658
-4.2078e-06
-0.000144653
-4.10722e-06
-0.000143644
-4.04517e-06
-0.000142624
-4.01731e-06
-0.000141584
-4.01873e-06
-0.00014052
-4.04443e-06
-0.000139429
-4.08951e-06
-0.000138307
-4.14918e-06
-0.000137153
-4.21871e-06
-0.000135969
-4.29338e-06
-0.000134754
-4.36854e-06
-0.000133514
-4.43957e-06
-0.000132251
-4.50195e-06
-0.000130971
-4.55127e-06
-0.000129682
-4.5833e-06
-0.000128389
-4.59411e-06
-0.000127101
-4.58017e-06
-0.000125826
-4.53851e-06
-0.000124573
-4.46679e-06
-0.000123352
-4.36329e-06
-0.000122171
-4.22706e-06
-0.000121038
-4.05802e-06
-0.000119963
-3.85708e-06
-0.000118952
-3.62605e-06
-0.000118011
-3.36758e-06
-0.000117146
-3.08503e-06
-0.000116362
-2.78252e-06
-0.000115659
-2.4649e-06
-0.00011504
-2.13767e-06
-0.000114503
-1.80653e-06
-0.000114047
-1.47704e-06
-0.000113668
-1.15433e-06
-0.000113359
-8.43109e-07
-0.000113116
-5.47583e-07
-0.000112931
-2.71211e-07
-0.000112798
-1.62216e-08
-0.00011271
2.15691e-07
-0.000112659
4.25234e-07
-0.000112636
6.15852e-07
-0.000112636
7.91007e-07
-0.000112649
9.54896e-07
-0.000112671
1.11267e-06
-0.000112695
1.27045e-06
-0.000112717
1.4353e-06
-0.000112731
1.61537e-06
-0.000112733
1.82009e-06
-0.000112718
2.05951e-06
-0.00011268
2.34313e-06
-0.000112611
2.67683e-06
-0.000112506
3.02571e-06
-0.000112351
3.37626e-06
4.812e-06
-0.000315749
1.24909e-05
-0.000321282
2.23878e-05
-0.000327502
2.50214e-05
-0.000334753
2.89824e-05
-0.000342951
3.26468e-05
-0.000352099
3.63275e-05
-0.000362087
3.95845e-05
-0.000372703
4.20298e-05
-0.00038361
4.3185e-05
-0.000394357
4.26433e-05
-0.000404434
4.01781e-05
-0.00041335
3.58656e-05
-0.000420736
3.01391e-05
-0.000426425
2.37398e-05
-0.000430497
1.75529e-05
-0.000433238
1.23764e-05
-0.000435065
8.71408e-06
-0.000436407
6.68391e-06
-0.00043763
6.07819e-06
-0.000438986
6.50105e-06
-0.00044061
7.50889e-06
-0.000442544
8.72931e-06
-0.000444767
9.91709e-06
-0.000447234
1.09503e-05
-0.000449893
1.17962e-05
-0.000452698
1.24727e-05
-0.000455616
1.30202e-05
-0.000458627
1.3483e-05
-0.000461718
1.39e-05
-0.000464886
1.43014e-05
-0.000468134
1.47082e-05
-0.000471468
1.51339e-05
-0.000474896
1.55861e-05
-0.000478427
1.60676e-05
-0.00048207
1.65784e-05
-0.000485833
1.7116e-05
-0.000489724
1.76762e-05
-0.00049375
1.82529e-05
-0.000497915
1.88382e-05
-0.00050222
1.94227e-05
-0.000506667
1.99953e-05
-0.00051125
2.05432e-05
-0.000515962
2.10519e-05
-0.000520792
2.15057e-05
-0.000525725
2.18879e-05
-0.000530739
2.21814e-05
-0.000535812
2.23688e-05
-0.000540913
2.24339e-05
-0.000546009
2.23613e-05
-0.000551065
2.21374e-05
-0.000556039
2.17512e-05
-0.000560891
2.11943e-05
-0.000565576
2.04616e-05
-0.000570049
1.9551e-05
-0.000574266
1.84637e-05
-0.000578183
1.72041e-05
-0.000581758
1.57792e-05
-0.00058495
1.41989e-05
-0.000587723
1.24746e-05
-0.000590043
1.06194e-05
-0.000591879
8.64709e-06
-0.000593207
6.5719e-06
-0.000594004
4.40776e-06
-0.000594255
2.16774e-06
-0.000593947
-1.37291e-07
-0.000593076
-2.49459e-06
-0.000591641
-4.89418e-06
-0.00058964
-7.33217e-06
-0.000587072
-9.80634e-06
-0.000583935
-1.23154e-05
-0.00058023
-1.48589e-05
-0.000575958
-1.74371e-05
-0.00057112
-2.00508e-05
-0.000565718
-2.27012e-05
-0.000559754
-2.53902e-05
-0.000553231
-2.81195e-05
-0.000546151
-3.08907e-05
-0.000538515
-3.37049e-05
-0.000530328
-3.65623e-05
-0.000521589
-3.94621e-05
-0.000512301
-4.24014e-05
-0.000502467
-4.53754e-05
-0.00049209
-4.83764e-05
-0.000481174
-5.13935e-05
-0.000469725
-5.44118e-05
-0.000457753
-5.74118e-05
-0.00044527
-6.03687e-05
-0.000432295
-6.32513e-05
-0.00041885
-6.60221e-05
-0.00040497
-6.86354e-05
-0.000390697
-7.10377e-05
-0.000376083
-7.31665e-05
-0.000361197
-7.49502e-05
-0.000346123
-7.63082e-05
-0.000330959
-7.71511e-05
-0.000315825
-7.73818e-05
-0.000300857
-7.68961e-05
-0.000286212
-7.55841e-05
-0.000272061
-7.33308e-05
-0.000258587
-7.00135e-05
-0.000244677
-7.22025e-05
-0.000230691
-7.16505e-05
-0.000216899
-6.76187e-05
-0.000203286
-5.93519e-05
-0.000189202
-4.6069e-05
-0.000173156
-2.71561e-05
-0.000154545
-3.22669e-06
-0.000137582
2.09914e-05
-0.000126637
3.78032e-05
-0.000122016
4.44907e-05
-0.00012196
4.41926e-05
-0.000124515
4.03719e-05
-0.000128369
3.52469e-05
-0.000132755
2.99026e-05
-0.0001373
2.48226e-05
-0.000141874
2.02115e-05
-0.00014648
1.61282e-05
-0.000151173
1.25486e-05
-0.000155995
9.4014e-06
-0.00016092
6.59675e-06
-0.00016582
4.05876e-06
-0.000170451
1.75298e-06
-0.000174575
-2.87745e-07
-0.000178033
-1.99373e-06
-0.000180755
-3.31778e-06
-0.000182734
-4.2419e-06
-0.000184026
-4.7664e-06
-0.000184741
-4.91739e-06
-0.000185042
-5.2955e-06
-0.000185002
-5.48935e-06
-0.000184701
-5.5369e-06
-0.000184208
-5.48644e-06
-0.000183576
-5.38313e-06
-0.000182845
-5.26383e-06
-0.000182039
-5.15507e-06
-0.000181174
-5.07328e-06
-0.000180255
-5.02658e-06
-0.000179283
-5.01699e-06
-0.000178257
-5.04259e-06
-0.000177177
-5.09928e-06
-0.000176039
-5.18185e-06
-0.000174844
-5.28456e-06
-0.000173592
-5.40148e-06
-0.000172284
-5.52656e-06
-0.000170924
-5.65374e-06
-0.000169515
-5.77696e-06
-0.000168065
-5.89029e-06
-0.000166579
-5.98793e-06
-0.000165066
-6.06435e-06
-0.000163535
-6.11433e-06
-0.000161996
-6.13316e-06
-0.000160459
-6.11673e-06
-0.000158936
-6.06168e-06
-0.000157437
-5.96545e-06
-0.000155974
-5.82642e-06
-0.000154558
-5.64396e-06
-0.000153197
-5.41858e-06
-0.000151902
-5.15193e-06
-0.000150682
-4.84684e-06
-0.000149542
-4.50715e-06
-0.00014849
-4.13768e-06
-0.000147528
-3.74418e-06
-0.000146659
-3.33326e-06
-0.000145885
-2.91213e-06
-0.000145203
-2.4882e-06
-0.000144612
-2.06869e-06
-0.000144106
-1.66042e-06
-0.000143679
-1.26962e-06
-0.000143325
-9.01743e-07
-0.000143035
-5.61133e-07
-0.000142801
-2.50528e-07
-0.000142614
2.90065e-08
-0.000142467
2.77938e-07
-0.00014235
4.98922e-07
-0.000142255
6.96191e-07
-0.000142175
8.74683e-07
-0.000142103
1.04039e-06
-0.000142032
1.20018e-06
-0.000141959
1.3617e-06
-0.000141877
1.53332e-06
-0.000141781
1.72438e-06
-0.000141666
1.94442e-06
-0.000141525
2.2024e-06
-0.000141353
2.50409e-06
-0.00014114
2.81268e-06
-0.000140878
3.11509e-06
4.29834e-06
-0.000386736
1.59287e-05
-0.000392846
2.84978e-05
-0.000399729
3.19044e-05
-0.000407741
3.69939e-05
-0.00041678
4.16862e-05
-0.00042684
4.63876e-05
-0.000437786
5.05304e-05
-0.000449371
5.36142e-05
-0.000461205
5.50191e-05
-0.000472779
5.42175e-05
-0.00048352
5.09193e-05
-0.000492889
4.52342e-05
-0.000500494
3.77445e-05
-0.000506189
2.94345e-05
-0.000510103
2.14665e-05
-0.000512596
1.48698e-05
-0.000514154
1.02717e-05
-0.000515258
7.78842e-06
-0.000516299
7.11924e-06
-0.000517533
7.7345e-06
-0.000519082
9.05811e-06
-0.00052097
1.06173e-05
-0.000523161
1.21081e-05
-0.000525596
1.33849e-05
-0.000528213
1.44136e-05
-0.000530963
1.52225e-05
-0.000533809
1.58663e-05
-0.000536729
1.64033e-05
-0.000539714
1.68843e-05
-0.00054276
1.73482e-05
-0.000545875
1.78226e-05
-0.000549066
1.83248e-05