/*--------------------------------*- C++ -*----------------------------------*\
| =========                 |                                                 |
| \\      /  F ield         | OpenFOAM: The Open Source CFD Toolbox           |
|  \\    /   O peration     | Version:  2406                                  |
|   \\  /    A nd           | Website:  www.openfoam.com                      |
|    \\/     M anipulation  |                                                 |
\*---------------------------------------------------------------------------*/
FoamFile
{
    version     2.0;
    format      ascii;
    arch        "LSB;label=32;scalar=64";
    class       volScalarField;
    location    "400";
    object      T;
}
// * * * * * * * * * * * * * * * * * * * * * * * * * * * * * * * * * * * * * //

dimensions      [0 0 0 1 0 0 0];

internalField   nonuniform List<scalar> 
5619
(
300
300
300
300
300
300
300
300
300
300
300
300
300
300
300
299.999
299.999
299.997
299.996
299.993
299.989
299.984
299.976
299.964
299.946
299.924
299.898
299.865
299.824
299.777
299.725
299.667
299.603
299.533
299.458
299.38
299.299
299.214
299.127
299.039
298.951
298.862
298.775
298.688
298.602
298.517
298.433
298.351
298.27
298.192
298.117
298.044
297.975
297.909
297.847
297.787
297.73
297.676
297.624
297.575
297.528
297.484
297.442
297.402
297.365
297.331
297.298
297.268
297.24
297.215
297.192
297.17
297.151
297.135
297.12
297.107
297.096
297.088
297.081
297.077
297.074
297.074
297.077
297.082
297.089
297.098
297.109
297.122
297.137
297.153
297.171
297.19
297.21
297.229
297.249
297.267
297.284
297.297
297.302
297.302
297.303
297.292
297.299
297.299
297.314
297.336
297.309
295.365
293.34
293.222
293.21
293.171
293.157
293.156
293.151
293.15
293.15
293.15
293.15
293.15
293.15
293.15
293.15
293.15
293.15
293.15
293.15
293.15
293.15
293.15
293.15
293.15
293.15
293.15
293.15
293.15
293.15
293.15
293.15
293.15
293.15
293.15
293.15
293.15
293.15
293.15
293.15
293.15
293.15
293.15
293.15
293.15
293.15
293.15
293.15
293.15
293.15
293.15
293.15
293.15
293.15
293.15
293.15
293.15
293.15
293.15
293.15
293.15
293.15
293.15
293.15
293.15
293.15
293.15
293.15
293.15
293.15
293.15
293.15
293.15
293.15
293.15
293.15
293.15
293.15
293.15
293.15
300
300
300
300
300
300
300
300
300
300
300
300
300
300
300
299.999
299.999
299.998
299.996
299.993
299.99
299.985
299.978
299.968
299.953
299.933
299.908
299.879
299.842
299.799
299.75
299.696
299.636
299.571
299.5
299.426
299.348
299.268
299.185
299.101
299.017
298.932
298.848
298.764
298.682
298.6
298.52
298.442
298.364
298.289
298.217
298.147
298.08
298.016
297.954
297.896
297.84
297.786
297.734
297.684
297.636
297.59
297.546
297.504
297.464
297.426
297.389
297.354
297.322
297.29
297.261
297.234
297.208
297.185
297.163
297.143
297.125
297.109
297.096
297.084
297.075
297.069
297.064
297.062
297.062
297.066
297.072
297.08
297.091
297.104
297.12
297.138
297.158
297.178
297.2
297.221
297.242
297.26
297.274
297.279
297.274
297.259
297.249
297.242
297.244
297.269
297.24
295.635
293.582
293.304
293.22
293.179
293.165
293.166
293.157
293.153
293.153
293.151
293.151
293.15
293.15
293.15
293.15
293.15
293.15
293.15
293.15
293.15
293.15
293.15
293.15
293.15
293.15
293.15
293.15
293.15
293.15
293.15
293.15
293.15
293.15
293.15
293.15
293.15
293.15
293.15
293.15
293.15
293.15
293.15
293.15
293.15
293.15
293.15
293.15
293.15
293.15
293.15
293.15
293.15
293.15
293.15
293.15
293.15
293.15
293.15
293.15
293.15
293.15
293.15
293.15
293.15
293.15
293.15
293.15
293.15
293.15
293.15
293.15
293.15
293.15
293.15
293.15
293.15
293.15
293.15
293.15
300
300
300
300
300
300
300
300
300
300
300
300
300
300
300
299.999
299.999
299.998
299.996
299.994
299.99
299.985
299.978
299.968
299.954
299.935
299.912
299.884
299.85
299.808
299.761
299.709
299.652
299.589
299.522
299.45
299.376
299.299
299.22
299.139
299.058
298.977
298.897
298.817
298.738
298.66
298.584
298.509
298.436
298.364
298.295
298.228
298.164
298.103
298.044
297.987
297.932
297.88
297.829
297.779
297.732
297.685
297.641
297.597
297.555
297.515
297.476
297.438
297.402
297.367
297.334
297.302
297.271
297.242
297.215
297.189
297.165
297.143
297.122
297.104
297.087
297.073
297.062
297.053
297.047
297.043
297.042
297.043
297.049
297.057
297.068
297.083
297.101
297.121
297.143
297.166
297.187
297.206
297.219
297.22
297.202
297.18
297.152
297.133
297.131
297.165
297.184
295.866
293.628
293.317
293.294
293.278
293.226
293.179
293.17
293.171
293.165
293.158
293.155
293.152
293.151
293.15
293.15
293.15
293.15
293.15
293.15
293.15
293.15
293.15
293.15
293.15
293.15
293.15
293.15
293.15
293.15
293.15
293.15
293.15
293.15
293.15
293.15
293.15
293.15
293.15
293.15
293.15
293.15
293.15
293.15
293.15
293.15
293.15
293.15
293.15
293.15
293.15
293.15
293.15
293.15
293.15
293.15
293.15
293.15
293.15
293.15
293.15
293.15
293.15
293.15
293.15
293.15
293.15
293.15
293.15
293.15
293.15
293.15
293.15
293.15
293.15
293.15
293.15
293.15
293.15
293.15
300
300
300
300
300
300
300
300
300
300
300
300
300
300
300
299.999
299.999
299.998
299.996
299.993
299.989
299.984
299.977
299.967
299.953
299.934
299.911
299.883
299.85
299.81
299.764
299.713
299.658
299.597
299.532
299.463
299.391
299.318
299.242
299.165
299.088
299.011
298.934
298.859
298.784
298.711
298.639
298.568
298.5
298.433
298.368
298.306
298.246
298.188
298.133
298.079
298.027
297.977
297.928
297.881
297.834
297.789
297.745
297.702
297.66
297.619
297.579
297.539
297.501
297.464
297.427
297.391
297.357
297.323
297.291
297.259
297.229
297.2
297.172
297.145
297.12
297.097
297.075
297.056
297.04
297.027
297.015
297.007
297.004
297.003
297.006
297.014
297.026
297.042
297.061
297.081
297.1
297.116
297.12
297.104
297.071
297.02
296.959
296.902
296.876
296.942
296.989
295.701
293.834
293.432
293.289
293.336
293.286
293.267
293.206
293.201
293.201
293.19
293.176
293.167
293.159
293.151
293.15
293.15
293.15
293.15
293.15
293.15
293.15
293.15
293.15
293.15
293.15
293.15
293.15
293.15
293.15
293.15
293.15
293.15
293.15
293.15
293.15
293.15
293.15
293.15
293.15
293.15
293.15
293.15
293.15
293.15
293.15
293.15
293.15
293.15
293.15
293.15
293.15
293.15
293.15
293.15
293.15
293.15
293.15
293.15
293.15
293.15
293.15
293.15
293.15
293.15
293.15
293.15
293.15
293.15
293.15
293.15
293.15
293.15
293.15
293.15
293.15
293.15
293.15
293.15
293.15
300
300
300
300
300
300
300
300
300
300
300
300
300
300
300
299.999
299.998
299.997
299.995
299.992
299.988
299.982
299.974
299.964
299.949
299.93
299.907
299.879
299.845
299.806
299.761
299.711
299.657
299.598
299.535
299.468
299.4
299.33
299.258
299.186
299.113
299.041
298.969
298.899
298.829
298.762
298.695
298.631
298.568
298.507
298.448
298.392
298.337
298.285
298.234
298.186
298.138
298.092
298.047
298.003
297.96
297.918
297.876
297.835
297.795
297.755
297.715
297.676
297.638
297.6
297.562
297.523
297.485
297.447
297.409
297.371
297.333
297.295
297.258
297.22
297.184
297.148
297.114
297.081
297.05
297.022
296.998
296.975
296.956
296.942
296.932
296.928
296.927
296.932
296.942
296.954
296.966
296.971
296.962
296.922
296.861
296.768
296.644
296.504
296.4
296.396
296.466
295.314
293.827
293.564
293.48
293.452
293.468
293.402
293.277
293.254
293.246
293.227
293.201
293.194
293.17
293.154
293.152
293.151
293.15
293.15
293.15
293.15
293.15
293.15
293.15
293.15
293.15
293.15
293.15
293.15
293.15
293.15
293.15
293.15
293.15
293.15
293.15
293.15
293.15
293.15
293.15
293.15
293.15
293.15
293.15
293.15
293.15
293.15
293.15
293.15
293.15
293.15
293.15
293.15
293.15
293.15
293.15
293.15
293.15
293.15
293.15
293.15
293.15
293.15
293.15
293.15
293.15
293.15
293.15
293.15
293.15
293.15
293.15
293.15
293.15
293.15
293.15
293.15
293.15
293.15
293.15
300
300
300
300
300
300
300
300
300
300
300
300
300
300
300
299.999
299.998
299.997
299.994
299.991
299.986
299.979
299.971
299.959
299.944
299.924
299.9
299.871
299.837
299.798
299.753
299.704
299.652
299.595
299.535
299.472
299.407
299.341
299.275
299.207
299.141
299.074
299.009
298.945
298.883
298.822
298.763
298.705
298.65
298.597
298.546
298.496
298.449
298.404
298.36
298.318
298.278
298.238
298.199
298.16
298.123
298.086
298.05
298.014
297.977
297.941
297.904
297.867
297.829
297.79
297.75
297.709
297.668
297.625
297.581
297.536
297.489
297.442
297.394
297.345
297.295
297.245
297.194
297.144
297.095
297.047
297.001
296.96
296.921
296.884
296.851
296.824
296.804
296.791
296.784
296.78
296.774
296.759
296.73
296.679
296.589
296.452
296.263
296.03
295.766
295.52
295.338
294.666
293.923
293.711
293.715
293.667
293.586
293.53
293.44
293.348
293.335
293.274
293.225
293.206
293.176
293.162
293.154
293.152
293.151
293.15
293.15
293.15
293.15
293.15
293.15
293.15
293.15
293.15
293.15
293.15
293.15
293.15
293.15
293.15
293.15
293.15
293.15
293.15
293.15
293.15
293.15
293.15
293.15
293.15
293.15
293.15
293.15
293.15
293.15
293.15
293.15
293.15
293.15
293.15
293.15
293.15
293.15
293.15
293.15
293.15
293.15
293.15
293.15
293.15
293.15
293.15
293.15
293.15
293.15
293.15
293.15
293.15
293.15
293.15
293.15
293.15
293.15
293.15
293.15
293.15
293.15
300
300
300
300
300
300
300
300
300
300
300
300
300
300
299.999
299.999
299.998
299.996
299.993
299.989
299.984
299.976
299.966
299.954
299.937
299.916
299.891
299.862
299.828
299.789
299.745
299.698
299.648
299.594
299.537
299.478
299.419
299.359
299.298
299.237
299.178
299.119
299.061
299.005
298.951
298.899
298.849
298.8
298.754
298.71
298.668
298.628
298.59
298.554
298.519
298.486
298.454
298.424
298.394
298.364
298.334
298.304
298.274
298.243
298.212
298.179
298.145
298.109
298.073
298.034
297.993
297.951
297.906
297.86
297.811
297.76
297.706
297.651
297.593
297.532
297.469
297.404
297.337
297.269
297.199
297.129
297.058
296.989
296.922
296.859
296.8
296.744
296.69
296.641
296.6
296.567
296.541
296.514
296.481
296.432
296.355
296.238
296.071
295.855
295.562
295.215
294.806
294.374
294.048
293.894
293.856
293.804
293.721
293.677
293.581
293.554
293.469
293.426
293.301
293.274
293.209
293.175
293.164
293.154
293.152
293.151
293.15
293.15
293.15
293.15
293.15
293.15
293.15
293.15
293.15
293.15
293.15
293.15
293.15
293.15
293.15
293.15
293.15
293.15
293.15
293.15
293.15
293.15
293.15
293.15
293.15
293.15
293.15
293.15
293.15
293.15
293.15
293.15
293.15
293.15
293.15
293.15
293.15
293.15
293.15
293.15
293.15
293.15
293.15
293.15
293.15
293.15
293.15
293.15
293.15
293.15
293.15
293.15
293.15
293.15
293.15
293.15
293.15
293.15
293.15
293.15
293.15
300
300
300
300
300
300
300
300
300
300
300
300
300
300
299.999
299.998
299.997
299.995
299.992
299.987
299.981
299.972
299.962
299.948
299.93
299.908
299.883
299.853
299.82
299.782
299.741
299.696
299.649
299.599
299.547
299.494
299.441
299.388
299.334
299.282
299.231
299.181
299.133
299.086
299.042
299
298.96
298.922
298.886
298.852
298.821
298.793
298.766
298.74
298.716
298.693
298.67
298.648
298.626
298.604
298.581
298.558
298.534
298.509
298.482
298.453
298.423
298.39
298.356
298.319
298.279
298.237
298.191
298.143
298.091
298.036
297.978
297.916
297.851
297.782
297.71
297.634
297.554
297.471
297.385
297.296
297.204
297.11
297.015
296.919
296.824
296.732
296.646
296.566
296.491
296.418
296.35
296.29
296.24
296.197
296.155
296.1
296.037
295.945
295.843
295.731
295.547
295.314
294.905
294.615
294.409
294.27
294.124
294.201
294.01
293.953
293.822
293.774
293.581
293.521
293.319
293.23
293.2
293.17
293.159
293.153
293.151
293.15
293.15
293.15
293.15
293.15
293.15
293.15
293.15
293.15
293.15
293.15
293.15
293.15
293.15
293.15
293.15
293.15
293.15
293.15
293.15
293.15
293.15
293.15
293.15
293.15
293.15
293.15
293.15
293.15
293.15
293.15
293.15
293.15
293.15
293.15
293.15
293.15
293.15
293.15
293.15
293.15
293.15
293.15
293.15
293.15
293.15
293.15
293.15
293.15
293.15
293.15
293.15
293.15
293.15
293.15
293.15
293.15
293.15
293.15
293.15
300
300
300
300
300
300
300
300
300
300
300
300
300
300
299.999
299.998
299.996
299.994
299.99
299.985
299.978
299.969
299.957
299.943
299.925
299.903
299.878
299.849
299.817
299.781
299.743
299.702
299.659
299.615
299.569
299.524
299.478
299.433
299.388
299.345
299.304
299.264
299.226
299.19
299.156
299.125
299.096
299.07
299.045
299.023
299.002
298.983
298.966
298.949
298.933
298.918
298.902
298.887
298.872
298.856
298.839
298.822
298.803
298.782
298.76
298.735
298.708
298.679
298.647
298.613
298.575
298.535
298.491
298.443
298.392
298.337
298.279
298.216
298.149
298.078
298.003
297.923
297.839
297.75
297.657
297.559
297.457
297.35
297.239
297.124
297.005
296.882
296.756
296.63
296.505
296.388
296.28
296.18
296.085
295.993
295.895
295.796
295.71
295.656
295.628
295.65
295.678
295.706
295.711
295.705
295.695
295.31
295.025
294.9
294.848
294.422
294.33
293.851
293.692
293.459
293.345
293.234
293.198
293.17
293.159
293.153
293.151
293.15
293.15
293.15
293.15
293.15
293.15
293.15
293.15
293.15
293.15
293.15
293.15
293.15
293.15
293.15
293.15
293.15
293.15
293.15
293.15
293.15
293.15
293.15
293.15
293.15
293.15
293.15
293.15
293.15
293.15
293.15
293.15
293.15
293.15
293.15
293.15
293.15
293.15
293.15
293.15
293.15
293.15
293.15
293.15
293.15
293.15
293.15
293.15
293.15
293.15
293.15
293.15
293.15
293.15
293.15
293.15
293.15
293.15
293.15
293.15
300
300
300
300
300
300
300
300
300
300
300
300
300
300
299.999
299.998
299.996
299.993
299.989
299.984
299.977
299.967
299.955
299.94
299.922
299.901
299.877
299.85
299.821
299.788
299.754
299.718
299.681
299.644
299.606
299.568
299.531
299.495
299.46
299.427
299.396
299.366
299.339
299.314
299.291
299.27
299.251
299.234
299.218
299.204
299.191
299.179
299.168
299.157
299.146
299.136
299.126
299.115
299.104
299.093
299.08
299.066
299.051
299.034
299.015
298.994
298.971
298.945
298.917
298.886
298.852
298.815
298.776
298.733
298.686
298.637
298.583
298.526
298.465
298.4
298.33
298.256
298.178
298.095
298.007
297.914
297.815
297.711
297.601
297.486
297.364
297.237
297.103
296.963
296.817
296.664
296.506
296.344
296.182
296.02
295.855
295.686
295.52
295.364
295.219
295.093
294.991
294.925
294.901
294.91
294.914
294.962
294.908
294.853
295.055
294.542
294.136
293.865
293.548
293.429
293.312
293.233
293.195
293.169
293.158
293.153
293.151
293.15
293.15
293.15
293.15
293.15
293.15
293.15
293.15
293.15
293.15
293.15
293.15
293.15
293.15
293.15
293.15
293.15
293.15
293.15
293.15
293.15
293.15
293.15
293.15
293.15
293.15
293.15
293.15
293.15
293.15
293.15
293.15
293.15
293.15
293.15
293.15
293.15
293.15
293.15
293.15
293.15
293.15
293.15
293.15
293.15
293.15
293.15
293.15
293.15
293.15
293.15
293.15
293.15
293.15
293.15
293.15
293.15
293.15
293.15
293.15
300
300
300
300
300
300
300
300
300
300
300
300
300
300
299.999
299.998
299.996
299.993
299.989
299.983
299.976
299.967
299.955
299.941
299.924
299.905
299.883
299.859
299.832
299.805
299.776
299.746
299.715
299.685
299.655
299.626
299.598
299.571
299.546
299.523
299.501
299.482
299.463
299.447
299.431
299.418
299.405
299.394
299.384
299.375
299.367
299.359
299.351
299.344
299.337
299.33
299.322
299.315
299.306
299.297
299.287
299.276
299.264
299.251
299.235
299.219
299.2
299.18
299.158
299.133
299.107
299.078
299.046
299.012
298.976
298.936
298.894
298.848
298.799
298.747
298.691
298.631
298.566
298.498
298.424
298.346
298.263
298.174
298.08
297.98
297.875
297.763
297.645
297.521
297.391
297.254
297.111
296.962
296.807
296.645
296.468
296.267
296.041
295.79
295.521
295.242
294.967
294.712
294.477
294.279
294.137
294.022
293.919
293.834
293.763
293.68
293.541
293.477
293.352
293.325
293.214
293.192
293.167
293.157
293.153
293.151
293.15
293.15
293.15
293.15
293.15
293.15
293.15
293.15
293.15
293.15
293.15
293.15
293.15
293.15
293.15
293.15
293.15
293.15
293.15
293.15
293.15
293.15
293.15
293.15
293.15
293.15
293.15
293.15
293.15
293.15
293.15
293.15
293.15
293.15
293.15
293.15
293.15
293.15
293.15
293.15
293.15
293.15
293.15
293.15
293.15
293.15
293.15
293.15
293.15
293.15
293.15
293.15
293.15
293.15
293.15
293.15
293.15
293.15
293.15
293.15
293.15
300
300
300
300
300
300
300
300
300
300
300
300
300
300
299.999
299.998
299.996
299.993
299.989
299.984
299.977
299.969
299.958
299.945
299.93
299.912
299.894
299.873
299.851
299.828
299.804
299.781
299.757
299.734
299.712
299.691
299.672
299.654
299.637
299.621
299.607
299.594
299.582
299.571
299.561
299.552
299.544
299.537
299.53
299.524
299.518
299.513
299.508
299.502
299.497
299.492
299.487
299.481
299.475
299.469
299.462
299.454
299.446
299.437
299.428
299.417
299.406
299.394
299.38
299.366
299.35
299.332
299.313
299.291
299.268
299.243
299.215
299.185
299.151
299.115
299.076
299.033
298.987
298.937
298.883
298.825
298.763
298.697
298.626
298.55
298.47
298.386
298.297
298.205
298.108
298.007
297.903
297.795
297.685
297.572
297.451
297.314
297.159
296.984
296.786
296.562
296.309
296.025
295.709
295.36
294.983
294.599
294.233
293.9
293.623
293.409
293.271
293.205
293.176
293.162
293.155
293.152
293.151
293.15
293.15
293.15
293.15
293.15
293.15
293.15
293.15
293.15
293.15
293.15
293.15
293.15
293.15
293.15
293.15
293.15
293.15
293.15
293.15
293.15
293.15
293.15
293.15
293.15
293.15
293.15
293.15
293.15
293.15
293.15
293.15
293.15
293.15
293.15
293.15
293.15
293.15
293.15
293.15
293.15
293.15
293.15
293.15
293.15
293.15
293.15
293.15
293.15
293.15
293.15
293.15
293.15
293.15
293.15
293.15
293.15
293.15
293.15
293.15
293.15
293.15
293.15
293.15
300
300
300
300
300
300
300
300
300
300
300
300
300
300
299.999
299.998
299.997
299.994
299.991
299.986
299.98
299.972
299.963
299.951
299.938
299.924
299.908
299.891
299.873
299.855
299.837
299.819
299.802
299.786
299.771
299.756
299.743
299.731
299.72
299.71
299.701
299.692
299.685
299.677
299.671
299.665
299.66
299.655
299.65
299.646
299.642
299.638
299.634
299.631
299.627
299.624
299.62
299.617
299.614
299.61
299.607
299.603
299.6
299.597
299.593
299.59
299.586
299.583
299.579
299.575
299.57
299.565
299.558
299.551
299.542
299.531
299.519
299.505
299.489
299.47
299.449
299.425
299.399
299.369
299.336
299.3
299.261
299.219
299.173
299.124
299.073
299.018
298.961
298.902
298.841
298.779
298.717
298.654
298.593
298.532
298.471
298.403
298.326
298.239
298.137
298.019
297.879
297.715
297.523
297.298
297.039
296.741
296.405
296.031
295.623
295.184
294.724
294.26
293.835
293.498
293.298
293.192
293.166
293.152
293.15
293.15
293.15
293.15
293.15
293.15
293.15
293.15
293.15
293.15
293.15
293.15
293.15
293.15
293.15
293.15
293.15
293.15
293.15
293.15
293.15
293.15
293.15
293.15
293.15
293.15
293.15
293.15
293.15
293.15
293.15
293.15
293.15
293.15
293.15
293.15
293.15
293.15
293.15
293.15
293.15
293.15
293.15
293.15
293.15
293.15
293.15
293.15
293.15
293.15
293.15
293.15
293.15
293.15
293.15
293.15
293.15
293.15
293.15
293.15
293.15
293.15
293.15
300
300
300
300
300
300
300
300
300
300
300
300
300
300
299.999
299.998
299.997
299.995
299.992
299.988
299.983
299.977
299.969
299.959
299.949
299.937
299.924
299.911
299.897
299.883
299.87
299.857
299.845
299.833
299.823
299.814
299.805
299.797
299.79
299.783
299.777
299.772
299.767
299.763
299.758
299.755
299.751
299.748
299.745
299.742
299.739
299.736
299.734
299.731
299.729
299.727
299.726
299.724
299.723
299.722
299.722
299.722
299.722
299.723
299.723
299.724
299.726
299.729
299.732
299.735
299.738
299.741
299.745
299.747
299.749
299.751
299.751
299.751
299.749
299.746
299.741
299.735
299.727
299.717
299.705
299.69
299.673
299.653
299.63
299.604
299.575
299.544
299.512
299.478
299.444
299.41
299.378
299.348
299.321
299.298
299.279
299.259
299.238
299.213
299.181
299.142
299.093
299.033
298.962
298.875
298.767
298.63
298.452
298.223
297.934
297.579
297.157
296.669
296.12
295.521
294.899
294.293
293.767
293.393
293.223
293.166
293.152
293.15
293.15
293.15
293.15
293.15
293.15
293.15
293.15
293.15
293.15
293.15
293.15
293.15
293.15
293.15
293.15
293.15
293.15
293.15
293.15
293.15
293.15
293.15
293.15
293.15
293.15
293.15
293.15
293.15
293.15
293.15
293.15
293.15
293.15
293.15
293.15
293.15
293.15
293.15
293.15
293.15
293.15
293.15
293.15
293.15
293.15
293.15
293.15
293.15
293.15
293.15
293.15
293.15
293.15
293.15
293.15
293.15
293.15
293.15
293.15
300
300
300
300
300
300
300
300
300
300
300
300
300
300
299.999
299.999
299.998
299.996
299.994
299.991
299.987
299.981
299.975
299.967
299.959
299.95
299.94
299.929
299.919
299.908
299.898
299.889
299.881
299.873
299.866
299.86
299.854
299.849
299.844
299.84
299.836
299.833
299.83
299.827
299.824
299.822
299.819
299.817
299.815
299.813
299.811
299.81
299.808
299.807
299.806
299.805
299.805
299.805
299.804
299.805
299.806
299.807
299.809
299.812
299.815
299.818
299.823
299.827
299.832
299.838
299.844
299.85
299.856
299.862
299.869
299.876
299.884
299.892
299.9
299.909
299.919
299.93
299.941
299.954
299.966
299.979
299.991
300.002
300.013
300.023
300.031
300.037
300.039
300.037
300.031
300.023
300.015
300.007
300.001
299.998
300
300.002
299.999
299.988
299.969
299.946
299.92
299.895
299.874
299.861
299.858
299.864
299.865
299.834
299.763
299.633
299.424
299.116
298.695
298.16
297.517
296.78
295.98
295.178
294.425
293.8
293.384
293.208
293.159
293.151
293.15
293.15
293.15
293.15
293.15
293.15
293.15
293.15
293.15
293.15
293.15
293.15
293.15
293.15
293.15
293.15
293.15
293.15
293.15
293.15
293.15
293.15
293.15
293.15
293.15
293.15
293.15
293.15
293.15
293.15
293.15
293.15
293.15
293.15
293.15
293.15
293.15
293.15
293.15
293.15
293.15
293.15
293.15
293.15
293.15
293.15
293.15
293.15
293.15
293.15
293.15
293.15
293.15
293.15
293.15
293.15
293.15
300
300
300
300
300
300
300
300
300
300
300
300
300
300
300
299.999
299.998
299.997
299.995
299.993
299.99
299.986
299.981
299.975
299.968
299.961
299.953
299.945
299.937
299.93
299.922
299.916
299.91
299.904
299.9
299.895
299.891
299.888
299.885
299.882
299.88
299.877
299.875
299.873
299.872
299.87
299.869
299.867
299.866
299.865
299.864
299.863
299.862
299.862
299.862
299.862
299.862
299.862
299.863
299.864
299.866
299.868
299.87
299.873
299.877
299.88
299.884
299.889
299.894
299.899
299.904
299.909
299.915
299.921
299.927
299.935
299.943
299.952
299.963
299.976
299.992
300.012
300.037
300.067
300.105
300.151
300.205
300.265
300.331
300.4
300.47
300.54
300.609
300.671
300.724
300.766
300.798
300.822
300.839
300.852
300.864
300.869
300.858
300.826
300.775
300.709
300.635
300.563
300.502
300.469
300.469
300.506
300.572
300.661
300.765
300.865
300.93
300.949
300.847
300.587
300.166
299.569
298.805
297.894
296.89
295.884
294.951
294.159
293.545
293.243
293.159
293.15
293.15
293.15
293.15
293.15
293.15
293.15
293.15
293.15
293.15
293.15
293.15
293.15
293.15
293.15
293.15
293.15
293.15
293.15
293.15
293.15
293.15
293.15
293.15
293.15
293.15
293.15
293.15
293.15
293.15
293.15
293.15
293.15
293.15
293.15
293.15
293.15
293.15
293.15
293.15
293.15
293.15
293.15
293.15
293.15
293.15
293.15
293.15
293.15
293.15
293.15
293.15
293.15
293.15
293.15
293.15
300
300
300
300
300
300
300
300
300
300
300
300
300
300
300
299.999
299.999
299.998
299.997
299.995
299.992
299.989
299.985
299.981
299.976
299.97
299.964
299.958
299.952
299.946
299.941
299.936
299.931
299.928
299.924
299.921
299.918
299.916
299.914
299.912
299.91
299.909
299.907
299.906
299.905
299.904
299.903
299.902
299.902
299.901
299.901
299.9
299.9
299.9
299.9
299.9
299.901
299.902
299.903
299.904
299.906
299.908
299.91
299.913
299.916
299.919
299.922
299.926
299.93
299.934
299.938
299.942
299.946
299.951
299.955
299.961
299.967
299.974
299.983
299.994
300.008
300.028
300.054
300.088
300.134
300.195
300.272
300.369
300.489
300.633
300.8
300.981
301.166
301.349
301.525
301.68
301.805
301.899
301.963
302.002
302.021
302.011
301.958
301.862
301.729
301.567
301.391
301.217
301.061
300.94
300.873
300.863
300.919
301.031
301.196
301.404
301.638
301.874
302.074
302.18
302.192
301.978
301.508
300.775
299.786
298.592
297.32
296.102
294.973
293.976
293.374
293.176
293.151
293.15
293.15
293.15
293.15
293.15
293.15
293.15
293.15
293.15
293.15
293.15
293.15
293.15
293.15
293.15
293.15
293.15
293.15
293.15
293.15
293.15
293.15
293.15
293.15
293.15
293.15
293.15
293.15
293.15
293.15
293.15
293.15
293.15
293.15
293.15
293.15
293.15
293.15
293.15
293.15
293.15
293.15
293.15
293.15
293.15
293.15
293.15
293.15
293.15
293.15
293.15
293.15
293.15
293.15
300
300
300
300
300
300
300
300
300
300
300
300
300
300
300
300
299.999
299.999
299.998
299.996
299.994
299.992
299.989
299.985
299.981
299.977
299.972
299.968
299.963
299.959
299.955
299.951
299.947
299.944
299.942
299.94
299.938
299.936
299.934
299.933
299.932
299.931
299.93
299.929
299.928
299.927
299.927
299.926
299.926
299.926
299.926
299.926
299.926
299.926
299.926
299.926
299.927
299.928
299.929
299.93
299.932
299.934
299.936
299.938
299.94
299.943
299.945
299.948
299.951
299.954
299.957
299.96
299.963
299.966
299.969
299.973
299.977
299.982
299.988
299.996
300.006
300.02
300.04
300.068
300.108
300.164
300.242
300.349
300.492
300.678
300.912
301.198
301.536
301.913
302.297
302.659
302.981
303.229
303.392
303.477
303.501
303.448
303.309
303.096
302.824
302.514
302.189
301.873
301.589
301.355
301.186
301.1
301.095
301.178
301.338
301.573
301.873
302.223
302.598
302.967
303.287
303.484
303.527
303.256
302.572
301.47
299.994
298.357
296.699
295.09
293.846
293.283
293.158
293.15
293.15
293.15
293.15
293.15
293.15
293.15
293.15
293.15
293.15
293.15
293.15
293.15
293.15
293.15
293.15
293.15
293.15
293.15
293.15
293.15
293.15
293.15
293.15
293.15
293.15
293.15
293.15
293.15
293.15
293.15
293.15
293.15
293.15
293.15
293.15
293.15
293.15
293.15
293.15
293.15
293.15
293.15
293.15
293.15
293.15
293.15
293.15
293.15
293.15
293.15
293.15
293.15
293.15
300
300
300
300
300
300
300
300
300
300
300
300
300
300
300
300
299.999
299.999
299.998
299.997
299.996
299.994
299.991
299.989
299.986
299.982
299.978
299.975
299.971
299.968
299.965
299.962
299.959
299.957
299.955
299.953
299.951
299.95
299.949
299.947
299.946
299.946
299.945
299.944
299.944
299.943
299.943
299.942
299.942
299.942
299.942
299.942
299.942
299.942
299.943
299.943
299.944
299.945
299.946
299.947
299.948
299.95
299.951
299.953
299.955
299.957
299.959
299.961
299.963
299.965
299.968
299.97
299.972
299.974
299.977
299.979
299.982
299.985
299.989
299.994
300
300.009
300.022
300.041
300.068
300.108
300.166
300.253
300.378
300.558
300.812
301.157
301.601
302.146
302.784
303.487
304.156
304.707
305.074
305.239
305.253
305.101
304.808
304.411
303.947
303.451
302.953
302.481
302.059
301.707
301.44
301.27
301.202
301.235
301.368
301.596
301.913
302.308
302.768
303.273
303.791
304.284
304.695
304.909
304.83
304.145
302.745
300.704
298.376
296.021
294.176
293.348
293.163
293.15
293.15
293.15
293.15
293.15
293.15
293.15
293.15
293.15
293.15
293.15
293.15
293.15
293.15
293.15
293.15
293.15
293.15
293.15
293.15
293.15
293.15
293.15
293.15
293.15
293.15
293.15
293.15
293.15
293.15
293.15
293.15
293.15
293.15
293.15
293.15
293.15
293.15
293.15
293.15
293.15
293.15
293.15
293.15
293.15
293.15
293.15
293.15
293.15
293.15
293.15
293.15
293.15
293.15
300
300
300
300
300
300
300
300
300
300
300
300
300
300
300
300
300
299.999
299.999
299.998
299.997
299.995
299.993
299.991
299.988
299.986
299.983
299.98
299.977
299.974
299.972
299.969
299.967
299.965
299.963
299.962
299.961
299.959
299.959
299.957
299.957
299.956
299.955
299.955
299.954
299.954
299.953
299.953
299.953
299.953
299.953
299.953
299.953
299.953
299.954
299.954
299.955
299.955
299.956
299.957
299.958
299.959
299.961
299.962
299.964
299.965
299.967
299.969
299.97
299.972
299.974
299.976
299.977
299.979
299.981
299.983
299.985
299.987
299.989
299.992
299.996
300.001
300.009
300.02
300.036
300.061
300.099
300.156
300.245
300.38
300.585
300.892
301.341
301.977
302.818
303.842
304.988
306.119
306.903
307.21
307.164
306.813
306.281
305.649
304.969
304.28
303.613
302.994
302.447
301.99
301.636
301.395
301.269
301.258
301.362
301.573
301.889
302.305
302.807
303.381
304.009
304.666
305.318
305.906
306.283
306.305
305.416
303.09
299.768
296.364
294.115
293.284
293.155
293.15
293.15
293.15
293.15
293.15
293.15
293.15
293.15
293.15
293.15
293.15
293.15
293.15
293.15
293.15
293.15
293.15
293.15
293.15
293.15
293.15
293.15
293.15
293.15
293.15
293.15
293.15
293.15
293.15
293.15
293.15
293.15
293.15
293.15
293.15
293.15
293.15
293.15
293.15
293.15
293.15
293.15
293.15
293.15
293.15
293.15
293.15
293.15
293.15
293.15
293.15
293.15
293.15
293.15
300
300
300
300
300
300
300
300
300
300
300
300
300
300
300
300
300
299.999
299.999
299.998
299.997
299.996
299.995
299.993
299.99
299.988
299.986
299.983
299.981
299.978
299.976
299.974
299.973
299.971
299.969
299.969
299.967
299.966
299.966
299.964
299.963
299.963
299.962
299.961
299.961
299.961
299.96
299.96
299.96
299.96
299.96
299.96
299.96
299.96
299.96
299.961
299.961
299.962
299.963
299.964
299.964
299.965
299.967
299.968
299.969
299.97
299.972
299.973
299.974
299.976
299.977
299.979
299.98
299.982
299.983
299.984
299.986
299.987
299.989
299.991
299.993
299.996
300.001
300.007
300.016
300.03
300.052
300.086
300.141
300.228
300.366
300.586
300.933
301.474
302.3
303.514
305.139
306.978
308.687
309.326
309.078
308.404
307.583
306.711
305.83
304.968
304.153
303.408
302.756
302.214
301.791
301.494
301.324
301.279
301.357
301.554
301.868
302.293
302.825
303.446
304.143
304.899
305.695
306.502
307.266
307.793
307.732
305.617
300.348
295.784
293.688
293.19
293.151
293.15
293.15
293.15
293.15
293.15
293.15
293.15
293.15
293.15
293.15
293.15
293.15
293.15
293.15
293.15
293.15
293.15
293.15
293.15
293.15
293.15
293.15
293.15
293.15
293.15
293.15
293.15
293.15
293.15
293.15
293.15
293.15
293.15
293.15
293.15
293.15
293.15
293.15
293.15
293.15
293.15
293.15
293.15
293.15
293.15
293.15
293.15
293.15
293.15
293.15
293.15
293.15
293.15
293.15
300
300
300
300
300
300
300
300
300
300
300
300
300
300
300
300
300
300
299.999
299.999
299.998
299.997
299.995
299.994
299.992
299.99
299.988
299.985
299.983
299.981
299.979
299.978
299.976
299.975
299.973
299.973
299.971
299.97
299.97
299.969
299.968
299.968
299.967
299.966
299.966
299.965
299.965
299.965
299.965
299.964
299.964
299.964
299.964
299.964
299.965
299.965
299.965
299.966
299.967
299.967
299.968
299.969
299.97
299.971
299.972
299.973
299.974
299.976
299.977
299.978