/*--------------------------------*- C++ -*----------------------------------*\
| =========                 |                                                 |
| \\      /  F ield         | OpenFOAM: The Open Source CFD Toolbox           |
|  \\    /   O peration     | Version:  2406                                  |
|   \\  /    A nd           | Website:  www.openfoam.com                      |
|    \\/     M anipulation  |                                                 |
\*---------------------------------------------------------------------------*/
FoamFile
{
    version     2.0;
    format      ascii;
    arch        "LSB;label=32;scalar=64";
    class       volVectorField;
    location    "400";
    object      U;
}
// * * * * * * * * * * * * * * * * * * * * * * * * * * * * * * * * * * * * * //

dimensions      [0 1 -1 0 0 0 0];

internalField   nonuniform List<vector> 
5619
(
(1.92659 -0.00048495 0)
(1.98325 -0.000798927 0)
(2.03756 -0.000935882 0)
(2.10136 -0.00109619 0)
(2.17138 -0.00126412 0)
(2.24851 -0.00143671 0)
(2.33184 -0.00159921 0)
(2.42006 -0.00173319 0)
(2.51085 -0.00181826 0)
(2.60118 -0.00183628 0)
(2.6875 -0.00177578 0)
(2.76629 -0.00163658 0)
(2.83466 -0.00143249 0)
(2.89091 -0.00119118 0)
(2.93493 -0.000949539 0)
(2.9682 -0.000744746 0)
(2.99337 -0.000604896 0)
(3.01362 -0.000542083 0)
(3.03194 -0.000552687 0)
(3.05065 -0.000621628 0)
(3.07122 -0.000728546 0)
(3.09432 -0.00085464 0)
(3.12004 -0.000986333 0)
(3.14814 -0.00111619 0)
(3.17826 -0.00124165 0)
(3.21007 -0.00136343 0)
(3.24327 -0.00148394 0)
(3.27768 -0.00160618 0)
(3.3132 -0.00173312 0)
(3.34976 -0.00186734 0)
(3.38738 -0.00201102 0)
(3.42607 -0.00216597 0)
(3.4659 -0.00233361 0)
(3.50691 -0.00251497 0)
(3.54916 -0.00271072 0)
(3.59269 -0.00292126 0)
(3.63756 -0.00314678 0)
(3.6838 -0.00338712 0)
(3.7314 -0.00364169 0)
(3.78037 -0.00390922 0)
(3.83068 -0.00418766 0)
(3.88225 -0.00447434 0)
(3.935 -0.00476596 0)
(3.9888 -0.00505845 0)
(4.04347 -0.00534684 0)
(4.0988 -0.00562503 0)
(4.15455 -0.00588614 0)
(4.21043 -0.00612283 0)
(4.26612 -0.00632749 0)
(4.32126 -0.00649215 0)
(4.37548 -0.0066084 0)
(4.42837 -0.00666759 0)
(4.47953 -0.0066614 0)
(4.52855 -0.0065822 0)
(4.575 -0.00642305 0)
(4.61851 -0.00617743 0)
(4.65868 -0.00583908 0)
(4.69516 -0.00540225 0)
(4.72762 -0.00486217 0)
(4.75576 -0.0042149 0)
(4.7793 -0.00345668 0)
(4.79802 -0.00258328 0)
(4.81171 -0.00158968 0)
(4.82018 -0.000469952 0)
(4.82327 0.000787009 0)
(4.82078 0.00221578 0)
(4.81239 0.00384348 0)
(4.79782 0.00566649 0)
(4.77687 0.00768681 0)
(4.74936 0.00991545 0)
(4.7151 0.0123665 0)
(4.67389 0.0150569 0)
(4.62554 0.0180053 0)
(4.56983 0.0212302 0)
(4.50654 0.0247502 0)
(4.43543 0.028584 0)
(4.35626 0.0327513 0)
(4.26878 0.03727 0)
(4.17274 0.0421549 0)
(4.06787 0.0474173 0)
(3.95395 0.0530647 0)
(3.83073 0.0590997 0)
(3.69801 0.0655166 0)
(3.55563 0.0722993 0)
(3.40348 0.0794206 0)
(3.24149 0.0868414 0)
(3.06972 0.0945065 0)
(2.88827 0.102341 0)
(2.69743 0.110249 0)
(2.49761 0.118113 0)
(2.28941 0.125787 0)
(2.07364 0.133096 0)
(1.85139 0.139829 0)
(1.62404 0.145741 0)
(1.39335 0.150536 0)
(1.16149 0.153869 0)
(0.931089 0.155335 0)
(0.705412 0.154473 0)
(0.488799 0.150849 0)
(0.283982 0.145119 0)
(0.0908531 0.139507 0)
(-0.111871 0.123064 0)
(-0.281891 0.0924185 0)
(-0.416836 0.0562066 0)
(-0.490047 0.0140997 0)
(-0.446675 -0.0328129 0)
(-0.255977 -0.0923315 0)
(0.226927 -0.149783 0)
(0.711995 -0.120464 0)
(0.963738 -0.0651575 0)
(1.1659 -0.03919 0)
(1.30761 -0.0269469 0)
(1.41175 -0.0189918 0)
(1.48817 -0.0130019 0)
(1.5394 -0.00809393 0)
(1.56924 -0.0039623 0)
(1.58111 -0.000434614 0)
(1.57828 0.00267595 0)
(1.56369 0.00558061 0)
(1.53956 0.00833729 0)
(1.50785 0.0108539 0)
(1.47061 0.0129962 0)
(1.43008 0.0146359 0)
(1.38857 0.0156686 0)
(1.34818 0.0160581 0)
(1.31071 0.0158617 0)
(1.27741 0.0152064 0)
(1.24834 0.0142481 0)
(1.22286 0.0131407 0)
(1.19928 0.0120356 0)
(1.17756 0.0110173 0)
(1.15742 0.0101117 0)
(1.13863 0.00932001 0)
(1.12093 0.00863033 0)
(1.10409 0.00802738 0)
(1.08794 0.00749566 0)
(1.07233 0.00702041 0)
(1.05711 0.00658983 0)
(1.04218 0.00619662 0)
(1.02746 0.00583676 0)
(1.01286 0.00550658 0)
(0.998331 0.00520117 0)
(0.983807 0.00491568 0)
(0.969246 0.00464719 0)
(0.954617 0.00439413 0)
(0.939899 0.00415415 0)
(0.925082 0.00392339 0)
(0.910165 0.00369827 0)
(0.895165 0.00347716 0)
(0.880115 0.00325967 0)
(0.865059 0.0030449 0)
(0.850053 0.00283121 0)
(0.835163 0.00261775 0)
(0.820471 0.00240548 0)
(0.80607 0.00219623 0)
(0.792054 0.00199106 0)
(0.77852 0.00179003 0)
(0.765564 0.00159362 0)
(0.753284 0.00140367 0)
(0.741775 0.00122272 0)
(0.731122 0.00105259 0)
(0.721394 0.000893907 0)
(0.712648 0.00074685 0)
(0.704927 0.000612067 0)
(0.698257 0.0004906 0)
(0.69265 0.00038309 0)
(0.688097 0.000289272 0)
(0.684575 0.000208265 0)
(0.682048 0.000139123 0)
(0.680474 8.09195e-05 0)
(0.67981 3.23327e-05 0)
(0.680025 -4.75351e-06 0)
(0.680984 -3.02376e-05 0)
(0.682624 -4.81351e-05 0)
(0.684933 -6.02923e-05 0)
(0.687933 -6.74575e-05 0)
(0.691703 -7.01811e-05 0)
(0.696405 -6.83523e-05 0)
(0.702336 -5.94972e-05 0)
(0.709998 -3.41436e-05 0)
(0.720196 3.6658e-05 0)
(0.734129 0.000233096 0)
(0.753443 0.000768909 0)
(0.780209 0.00221554 0)
(0.816924 0.0061818 0)
(0.866431 0.0176118 0)
(0.926668 0.0544988 0)
(2.11799 -0.00129104 0)
(2.17075 -0.00230081 0)
(2.22183 -0.0026656 0)
(2.28316 -0.00314631 0)
(2.35161 -0.00364217 0)
(2.42818 -0.00416626 0)
(2.51212 -0.00467378 0)
(2.60217 -0.00511368 0)
(2.69602 -0.00542242 0)
(2.79043 -0.00553903 0)
(2.88148 -0.00541915 0)
(2.96514 -0.00505133 0)
(3.03793 -0.00446864 0)
(3.09765 -0.00375007 0)
(3.14381 -0.00300739 0)
(3.17776 -0.00235822 0)
(3.20223 -0.00189539 0)
(3.22068 -0.0016644 0)
(3.23642 -0.00166121 0)
(3.25213 -0.00184412 0)
(3.26958 -0.00215217 0)
(3.28961 -0.00252622 0)
(3.3124 -0.00292205 0)
(3.33774 -0.00331405 0)
(3.36525 -0.00369236 0)
(3.39455 -0.00405765 0)
(3.42533 -0.00441656 0)
(3.45737 -0.00477794 0)
(3.49054 -0.00515092 0)
(3.52478 -0.00554371 0)
(3.56007 -0.00596333 0)
(3.59645 -0.00641552 0)
(3.63397 -0.00690488 0)
(3.67266 -0.00743499 0)
(3.71261 -0.00800845 0)
(3.75385 -0.00862709 0)
(3.79643 -0.00929201 0)
(3.84037 -0.0100033 0)
(3.8857 -0.0107598 0)
(3.93241 -0.0115585 0)
(3.98046 -0.0123948 0)
(4.0298 -0.0132619 0)
(4.08034 -0.0141512 0)
(4.13194 -0.0150513 0)
(4.18445 -0.0159482 0)
(4.23766 -0.0168252 0)
(4.29134 -0.017663 0)
(4.34521 -0.0184407 0)
(4.39896 -0.0191357 0)
(4.45225 -0.0197238 0)
(4.50471 -0.0201799 0)
(4.55596 -0.020478 0)
(4.6056 -0.020593 0)
(4.65322 -0.0205014 0)
(4.69842 -0.0201805 0)
(4.74082 -0.0196096 0)
(4.78003 -0.018769 0)
(4.8157 -0.0176413 0)
(4.84751 -0.0162115 0)
(4.87515 -0.0144669 0)
(4.89835 -0.012395 0)
(4.91688 -0.00998339 0)
(4.93051 -0.00721743 0)
(4.93904 -0.00407951 0)
(4.9423 -0.000540672 0)
(4.94006 0.00347248 0)
(4.9322 0.00801228 0)
(4.91854 0.0130766 0)
(4.89893 0.0186763 0)
(4.87324 0.0248392 0)
(4.84131 0.0316004 0)
(4.803 0.0390001 0)
(4.75816 0.0470805 0)
(4.70662 0.0558843 0)
(4.64822 0.0654542 0)
(4.58276 0.0758327 0)
(4.51006 0.0870595 0)
(4.42993 0.0991684 0)
(4.34216 0.112184 0)
(4.24655 0.126118 0)
(4.14292 0.140971 0)
(4.03108 0.156722 0)
(3.91089 0.173326 0)
(3.78221 0.19071 0)
(3.64497 0.208765 0)
(3.49915 0.227345 0)
(3.34479 0.246257 0)
(3.18203 0.265256 0)
(3.01111 0.28404 0)
(2.83241 0.302244 0)
(2.64645 0.319437 0)
(2.45393 0.335112 0)
(2.25575 0.34869 0)
(2.05304 0.359511 0)
(1.84717 0.366842 0)
(1.63982 0.369878 0)
(1.43288 0.36777 0)
(1.22853 0.359679 0)
(1.02952 0.344984 0)
(0.83735 0.323862 0)
(0.645974 0.296809 0)
(0.452067 0.258622 0)
(0.266751 0.203352 0)
(0.104887 0.128418 0)
(-0.0107359 0.0201938 0)
(-0.0466416 -0.128816 0)
(0.0764899 -0.275949 0)
(0.348656 -0.337776 0)
(0.644719 -0.284191 0)
(0.885326 -0.18941 0)
(1.09913 -0.131084 0)
(1.26132 -0.0955919 0)
(1.38449 -0.0694256 0)
(1.47739 -0.0486804 0)
(1.54309 -0.031312 0)
(1.58548 -0.0165606 0)
(1.60793 -0.00406531 0)
(1.61367 0.00647338 0)
(1.60608 0.0154332 0)
(1.58899 0.0233835 0)
(1.56474 0.030555 0)
(1.53514 0.0367867 0)
(1.50203 0.041763 0)
(1.46729 0.0451824 0)
(1.43273 0.046866 0)
(1.4 0.0468539 0)
(1.37036 0.0453957 0)
(1.34406 0.042869 0)
(1.32081 0.039736 0)
(1.29911 0.0364762 0)
(1.27907 0.0333557 0)
(1.26054 0.030507 0)
(1.24334 0.0279811 0)
(1.22725 0.0257742 0)
(1.21207 0.0238553 0)
(1.1976 0.0221823 0)
(1.18368 0.0207126 0)
(1.17015 0.0194099 0)
(1.1569 0.0182461 0)
(1.14383 0.0171993 0)
(1.13084 0.0162501 0)
(1.11786 0.0153803 0)
(1.10482 0.0145742 0)
(1.09168 0.0138197 0)
(1.0784 0.013107 0)
(1.06496 0.0124257 0)
(1.05134 0.0117653 0)
(1.03755 0.0111169 0)
(1.02362 0.010475 0)
(1.00956 0.00983635 0)
(0.995434 0.00919814 0)
(0.981294 0.00855787 0)
(0.967212 0.00791524 0)
(0.953275 0.00727294 0)
(0.939576 0.00663513 0)
(0.926215 0.0060055 0)
(0.913293 0.00538713 0)
(0.900912 0.00478404 0)
(0.889177 0.00420206 0)
(0.878188 0.00364757 0)
(0.868035 0.0031255 0)
(0.858798 0.00263874 0)
(0.850542 0.00218919 0)
(0.843318 0.00177898 0)
(0.837166 0.00141022 0)
(0.832106 0.00108377 0)
(0.828143 0.000798563 0)
(0.825267 0.000551989 0)
(0.823457 0.000340833 0)
(0.822687 0.000161604 0)
(0.822932 1.17048e-05 0)
(0.824112 -0.000107289 0)
(0.826173 -0.000200944 0)
(0.829124 -0.000281274 0)
(0.83299 -0.000355512 0)
(0.83783 -0.000430744 0)
(0.843745 -0.000515618 0)
(0.850884 -0.000621522 0)
(0.859439 -0.000764436 0)
(0.869637 -0.00096901 0)
(0.881704 -0.00127787 0)
(0.895813 -0.0017746 0)
(0.912011 -0.00263969 0)
(0.930145 -0.00428661 0)
(0.949847 -0.00766952 0)
(0.970489 -0.0149681 0)
(0.988465 -0.0293062 0)
(2.18204 -0.00224399 0)
(2.23136 -0.00409819 0)
(2.27931 -0.00475888 0)
(2.33758 -0.00567839 0)
(2.40313 -0.00662409 0)
(2.47702 -0.00763756 0)
(2.55857 -0.00863265 0)
(2.64665 -0.0095147 0)
(2.73904 -0.0101594 0)
(2.83255 -0.0104432 0)
(2.92323 -0.0102704 0)
(3.0069 -0.00960715 0)
(3.07988 -0.00850703 0)
(3.13974 -0.00711653 0)
(3.1858 -0.00565099 0)
(3.21927 -0.0043428 0)
(3.24286 -0.00337999 0)
(3.26006 -0.00286048 0)
(3.27427 -0.00278475 0)
(3.28825 -0.00307747 0)
(3.30384 -0.0036225 0)
(3.32195 -0.00430376 0)
(3.34278 -0.0050325 0)
(3.36614 -0.00575588 0)
(3.39165 -0.00645228 0)
(3.41892 -0.00712134 0)
(3.44762 -0.00777496 0)
(3.47753 -0.00842992 0)
(3.5085 -0.00910388 0)
(3.54046 -0.00981282 0)
(3.57341 -0.0105705 0)
(3.60737 -0.011388 0)
(3.64238 -0.0122742 0)
(3.6785 -0.013236 0)
(3.71578 -0.0142786 0)
(3.75428 -0.0154056 0)
(3.79404 -0.0166193 0)
(3.8351 -0.0179198 0)
(3.87747 -0.019305 0)
(3.92114 -0.0207701 0)
(3.9661 -0.0223069 0)
(4.01229 -0.0239034 0)
(4.05964 -0.025544 0)
(4.10802 -0.0272079 0)
(4.1573 -0.0288696 0)
(4.20728 -0.0304985 0)
(4.25776 -0.0320598 0)
(4.30847 -0.0335148 0)
(4.35913 -0.0348211 0)
(4.40941 -0.0359335 0)
(4.45899 -0.0368048 0)
(4.50748 -0.0373868 0)
(4.55453 -0.0376323 0)
(4.59974 -0.037496 0)
(4.64273 -0.0369343 0)
(4.68313 -0.0359066 0)
(4.72058 -0.0343752 0)
(4.75474 -0.0323065 0)
(4.78528 -0.0296709 0)
(4.81192 -0.0264417 0)
(4.8344 -0.0225935 0)
(4.85247 -0.0181005 0)
(4.86592 -0.0129344 0)
(4.87458 -0.00706156 0)
(4.87829 -0.000436628 0)
(4.87685 0.00701573 0)
(4.87017 0.0153606 0)
(4.85814 0.0246247 0)
(4.84064 0.0348414 0)
(4.81756 0.0460618 0)
(4.78879 0.0583468 0)
(4.75421 0.0717638 0)
(4.7137 0.0863834 0)
(4.66715 0.102279 0)
(4.6144 0.119523 0)
(4.55534 0.138189 0)
(4.4898 0.158341 0)
(4.41763 0.180036 0)
(4.33869 0.203312 0)
(4.25282 0.22819 0)
(4.15986 0.254665 0)
(4.0597 0.282695 0)
(3.95219 0.312196 0)
(3.83727 0.343036 0)
(3.71487 0.37502 0)
(3.58497 0.407885 0)
(3.44765 0.441289 0)
(3.303 0.474802 0)
(3.15125 0.507896 0)
(2.9927 0.539938 0)
(2.82779 0.570187 0)
(2.65709 0.597787 0)
(2.48131 0.621773 0)
(2.30137 0.641075 0)
(2.11832 0.654534 0)
(1.93344 0.660932 0)
(1.74817 0.659035 0)
(1.56415 0.647663 0)
(1.38358 0.625832 0)
(1.20792 0.592951 0)
(1.03165 0.547484 0)
(0.852593 0.484852 0)
(0.678692 0.400052 0)
(0.521124 0.284492 0)
(0.396688 0.119667 0)
(0.321075 -0.118347 0)
(0.337722 -0.364796 0)
(0.458495 -0.495032 0)
(0.631552 -0.464094 0)
(0.817656 -0.354511 0)
(0.997796 -0.262858 0)
(1.14514 -0.196915 0)
(1.26292 -0.146423 0)
(1.35671 -0.106087 0)
(1.42892 -0.0722885 0)
(1.48237 -0.0433077 0)
(1.51909 -0.0183218 0)
(1.54079 0.00308933 0)
(1.54927 0.0210649 0)
(1.54679 0.0362006 0)
(1.53659 0.0495112 0)
(1.52052 0.061226 0)
(1.50009 0.0708826 0)
(1.47679 0.0779287 0)
(1.45211 0.0820009 0)
(1.42748 0.0830534 0)
(1.40417 0.0813811 0)
(1.38269 0.0775469 0)
(1.36317 0.0723488 0)
(1.34452 0.0666647 0)
(1.32704 0.0610135 0)
(1.31073 0.0557156 0)
(1.29551 0.05094 0)
(1.28125 0.0467381 0)
(1.26781 0.0430879 0)
(1.25501 0.0399295 0)
(1.2427 0.037192 0)
(1.23073 0.0348076 0)
(1.21899 0.032716 0)
(1.20738 0.0308649 0)
(1.19579 0.0292085 0)
(1.18416 0.0277076 0)
(1.17243 0.0263294 0)
(1.16054 0.0250461 0)
(1.14848 0.0238327 0)
(1.13622 0.0226665 0)
(1.12375 0.0215277 0)
(1.11109 0.0204013 0)
(1.09825 0.0192766 0)
(1.08529 0.0181456 0)
(1.07224 0.0170033 0)
(1.05917 0.0158475 0)
(1.04616 0.0146798 0)
(1.03328 0.0135054 0)
(1.02063 0.0123309 0)
(1.0083 0.0111637 0)
(0.996407 0.0100123 0)
(0.985033 0.00888665 0)
(0.974283 0.00779792 0)
(0.964252 0.00675687 0)
(0.95503 0.00577224 0)
(0.946692 0.00485059 0)
(0.939302 0.00399732 0)
(0.932912 0.00321725 0)
(0.927562 0.00251397 0)
(0.923272 0.00188859 0)
(0.920048 0.00133939 0)
(0.91788 0.000862566 0)
(0.916747 0.000453323 0)
(0.916616 0.000106858 0)
(0.917449 -0.000177083 0)
(0.91913 -0.000403229 0)
(0.921653 -0.000586674 0)
(0.924974 -0.000739892 0)
(0.929054 -0.000870917 0)
(0.933856 -0.000986481 0)
(0.939331 -0.00109215 0)
(0.945413 -0.00119186 0)
(0.952004 -0.00128646 0)
(0.958964 -0.00137057 0)
(0.966102 -0.001426 0)
(0.973188 -0.00140842 0)
(0.979976 -0.00122377 0)
(0.986222 -0.000695723 0)
(0.991737 0.000445655 0)
(0.996402 0.00209052 0)
(0.998422 0.000152384 0)
(2.21105 -0.00343208 0)
(2.25757 -0.00636011 0)
(2.3029 -0.00739773 0)
(2.35831 -0.00888788 0)
(2.42085 -0.0104161 0)
(2.49156 -0.012065 0)
(2.56982 -0.0136954 0)
(2.65457 -0.0151574 0)
(2.74368 -0.0162481 0)
(2.83406 -0.0167613 0)
(2.92183 -0.016532 0)
(3.00284 -0.0154943 0)
(3.07342 -0.0137261 0)
(3.1311 -0.0114613 0)
(3.17518 -0.00905116 0)
(3.20685 -0.00687958 0)
(3.22881 -0.00526025 0)
(3.24448 -0.00436002 0)
(3.25722 -0.00418501 0)
(3.26974 -0.00461552 0)
(3.28382 -0.00546303 0)
(3.30033 -0.006537 0)
(3.31945 -0.00769044 0)
(3.34098 -0.00883491 0)
(3.36453 -0.00993332 0)
(3.38972 -0.0109839 0)
(3.41623 -0.0120052 0)
(3.44383 -0.0130242 0)
(3.47237 -0.0140697 0)
(3.5018 -0.0151677 0)
(3.5321 -0.0163404 0)
(3.5633 -0.0176061 0)
(3.59543 -0.0189789 0)
(3.62855 -0.0204701 0)
(3.66273 -0.022088 0)
(3.69801 -0.0238387 0)
(3.73444 -0.0257258 0)
(3.77206 -0.0277498 0)
(3.81089 -0.0299077 0)
(3.85093 -0.0321923 0)
(3.89218 -0.0345914 0)
(3.93458 -0.0370871 0)
(3.97807 -0.0396551 0)
(4.02256 -0.0422637 0)
(4.06791 -0.0448736 0)
(4.11396 -0.0474379 0)
(4.1605 -0.0499028 0)
(4.20732 -0.0522082 0)
(4.25413 -0.0542881 0)
(4.30066 -0.0560719 0)
(4.34657 -0.0574855 0)
(4.39153 -0.0584539 0)
(4.4352 -0.0589029 0)
(4.4772 -0.0587602 0)
(4.51717 -0.0579566 0)
(4.55477 -0.0564272 0)
(4.58965 -0.0541122 0)
(4.62148 -0.0509583 0)
(4.64995 -0.0469179 0)
(4.67479 -0.0419484 0)
(4.69573 -0.03601 0)
(4.71256 -0.0290639 0)
(4.72508 -0.0210693 0)
(4.73311 -0.0119788 0)
(4.73652 -0.00173021 0)
(4.73513 0.00976798 0)
(4.7289 0.0225868 0)
(4.71773 0.0367688 0)
(4.70155 0.0523762 0)
(4.68028 0.0694865 0)
(4.65384 0.0881884 0)
(4.62216 0.108578 0)
(4.58515 0.130757 0)
(4.54271 0.15483 0)
(4.49477 0.180903 0)
(4.44123 0.209075 0)
(4.38198 0.23944 0)
(4.31693 0.272075 0)
(4.24597 0.307036 0)
(4.169 0.344351 0)
(4.08592 0.384005 0)
(3.99664 0.425938 0)
(3.90109 0.470027 0)
(3.7992 0.516075 0)
(3.69096 0.563799 0)
(3.57637 0.612817 0)
(3.45548 0.662634 0)
(3.32839 0.712627 0)
(3.19529 0.762038 0)
(3.05642 0.80996 0)
(2.91214 0.855338 0)
(2.76291 0.89696 0)
(2.60931 0.933468 0)
(2.45206 0.963371 0)
(2.29202 0.985069 0)
(2.13024 0.996889 0)
(1.96793 0.997129 0)
(1.80648 0.984108 0)
(1.64786 0.956224 0)
(1.49345 0.911899 0)
(1.33833 0.84773 0)
(1.1804 0.757256 0)
(1.02629 0.634973 0)
(0.88444 0.470983 0)
(0.76478 0.246031 0)
(0.67362 -0.0617907 0)
(0.615348 -0.386137 0)
(0.624311 -0.578288 0)
(0.690611 -0.588933 0)
(0.795134 -0.495517 0)
(0.914781 -0.390514 0)
(1.02521 -0.303182 0)
(1.12126 -0.233158 0)
(1.20377 -0.176575 0)
(1.27341 -0.129262 0)
(1.33154 -0.0884579 0)
(1.37902 -0.0524285 0)
(1.41609 -0.0201823 0)
(1.44285 0.00851255 0)
(1.45922 0.0332878 0)
(1.46606 0.0543304 0)
(1.4662 0.0726018 0)
(1.46107 0.0882963 0)
(1.4519 0.100809 0)
(1.43979 0.109426 0)
(1.42585 0.113821 0)
(1.41116 0.114123 0)
(1.39638 0.110887 0)
(1.38211 0.105095 0)
(1.36772 0.0979941 0)
(1.35371 0.090424 0)
(1.34026 0.0829875 0)
(1.32746 0.076071 0)
(1.3153 0.0698672 0)
(1.3037 0.0644269 0)
(1.29256 0.0597132 0)
(1.28176 0.0556459 0)
(1.27119 0.0521311 0)
(1.26073 0.0490759 0)
(1.25029 0.0463951 0)
(1.2398 0.0440136 0)
(1.2292 0.0418662 0)
(1.21843 0.0398971 0)
(1.20746 0.0380582 0)
(1.19628 0.0363078 0)
(1.18488 0.0346099 0)
(1.17326 0.0329356 0)
(1.16145 0.0312629 0)
(1.14947 0.029576 0)
(1.13738 0.0278647 0)
(1.12523 0.0261236 0)
(1.11308 0.0243526 0)
(1.10102 0.0225567 0)
(1.08911 0.0207449 0)
(1.07744 0.0189289 0)
(1.06612 0.0171218 0)
(1.05521 0.0153384 0)
(1.04482 0.0135952 0)
(1.03503 0.0119093 0)
(1.0259 0.0102968 0)
(1.01752 0.00877106 0)
(1.00995 0.00734322 0)
(1.00321 0.00602273 0)
(0.997358 0.0048175 0)
(0.992394 0.00373292 0)
(0.988321 0.00277068 0)
(0.985118 0.00192862 0)
(0.982748 0.00120189 0)
(0.981161 0.000583956 0)
(0.980291 6.75505e-05 0)
(0.980062 -0.000350733 0)
(0.980433 -0.00068205 0)
(0.981316 -0.000945969 0)
(0.982628 -0.00115751 0)
(0.984283 -0.00132908 0)
(0.986196 -0.00147173 0)
(0.988285 -0.00159604 0)
(0.990468 -0.00171279 0)
(0.992667 -0.00183384 0)
(0.994807 -0.00197366 0)
(0.996817 -0.00215162 0)
(0.998628 -0.002394 0)
(1.00017 -0.00273308 0)
(1.00136 -0.00319105 0)
(1.00217 -0.00368585 0)
(1.00262 -0.00388188 0)
(1.00123 -0.00420176 0)
(2.22483 -0.00487704 0)
(2.26859 -0.00911277 0)
(2.31126 -0.0106216 0)
(2.36357 -0.0128213 0)
(2.42264 -0.015073 0)
(2.48947 -0.0175114 0)
(2.56344 -0.0199313 0)
(2.64354 -0.0221145 0)
(2.7277 -0.0237587 0)
(2.81295 -0.0245532 0)
(2.89555 -0.0242442 0)
(2.9715 -0.0227244 0)
(3.03726 -0.0201038 0)
(3.09052 -0.0167291 0)
(3.13071 -0.0131263 0)
(3.15908 -0.00987174 0)
(3.17834 -0.00743581 0)
(3.19183 -0.00606767 0)
(3.20274 -0.00577535 0)
(3.21362 -0.0063794 0)
(3.22607 -0.00759872 0)
(3.24084 -0.00914957 0)
(3.25806 -0.0108134 0)
(3.27747 -0.0124588 0)
(3.29871 -0.0140305 0)
(3.3214 -0.0155259 0)
(3.34522 -0.0169722 0)
(3.36997 -0.0184094 0)
(3.3955 -0.0198799 0)
(3.42177 -0.0214222 0)
(3.44876 -0.0230693 0)
(3.4765 -0.0248478 0)
(3.50504 -0.0267789 0)
(3.53443 -0.028879 0)
(3.56473 -0.0311607 0)
(3.59601 -0.0336329 0)
(3.62831 -0.0363013 0)
(3.66168 -0.0391672 0)
(3.69614 -0.0422268 0)
(3.73171 -0.0454704 0)
(3.76839 -0.0488814 0)
(3.80613 -0.0524348 0)
(3.8449 -0.0560966 0)
(3.88461 -0.0598219 0)
(3.92514 -0.0635551 0)
(3.96635 -0.0672301 0)
(4.00807 -0.07077 0)
(4.05007 -0.0740889 0)
(4.09212 -0.0770919 0)
(4.13394 -0.0796772 0)
(4.17525 -0.0817387 0)
(4.21572 -0.0831679 0)
(4.25502 -0.083857 0)
(4.29283 -0.0837006 0)
(4.32879 -0.0825973 0)
(4.36257 -0.0804522 0)
(4.39385 -0.0771779 0)
(4.42231 -0.0726959 0)
(4.44767 -0.0669362 0)
(4.46965 -0.0598359 0)
(4.48802 -0.0513379 0)
(4.50256 -0.0413881 0)
(4.51308 -0.0299324 0)
(4.51944 -0.0169117 0)
(4.52151 -0.00225303 0)
(4.51913 0.0141384 0)
(4.51232 0.0323282 0)
(4.501 0.0523744 0)
(4.48514 0.0743726 0)
(4.4647 0.0984287 0)
(4.43962 0.124659 0)
(4.40988 0.153187 0)
(4.37542 0.184143 0)
(4.33621 0.217657 0)
(4.2922 0.253863 0)
(4.24335 0.292883 0)
(4.18961 0.334833 0)
(4.13094 0.379805 0)
(4.06729 0.427866 0)
(3.99861 0.479041 0)
(3.92486 0.533306 0)
(3.84599 0.590571 0)
(3.76198 0.650665 0)
(3.6728 0.713324 0)
(3.57845 0.778167 0)
(3.47897 0.844685 0)
(3.37442 0.912219 0)
(3.26488 0.979945 0)
(3.15053 1.04686 0)
(3.03158 1.11176 0)
(2.90833 1.17326 0)
(2.78117 1.22976 0)
(2.6506 1.27946 0)
(2.51724 1.32041 0)
(2.38186 1.35048 0)
(2.24538 1.36746 0)
(2.10887 1.36906 0)
(1.97362 1.35297 0)
(1.84134 1.31688 0)
(1.71326 1.25836 0)
(1.58533 1.17257 0)
(1.45539 1.05202 0)
(1.32811 0.892091 0)
(1.20831 0.68482 0)
(1.09928 0.415919 0)
(0.998556 0.0714552 0)
(0.89292 -0.305652 0)
(0.818824 -0.561054 0)
(0.795679 -0.63423 0)
(0.817818 -0.583708 0)
(0.86955 -0.491382 0)
(0.931629 -0.399633 0)
(0.994189 -0.320176 0)
(1.05366 -0.253779 0)
(1.10845 -0.197761 0)
(1.15855 -0.149313 0)
(1.20437 -0.106089 0)
(1.24614 -0.0662882 0)
(1.28368 -0.0288384 0)
(1.31641 0.00635197 0)
(1.34323 0.0382338 0)
(1.36253 0.0655938 0)
(1.3757 0.0887771 0)
(1.38346 0.107955 0)
(1.38653 0.122882 0)
(1.3858 0.133089 0)
(1.38211 0.138248 0)
(1.3762 0.138498 0)
(1.36914 0.134637 0)
(1.36073 0.128093 0)
(1.35166 0.120013 0)
(1.34228 0.111362 0)
(1.33285 0.102864 0)
(1.32352 0.0949807 0)
(1.31433 0.0879406 0)
(1.30528 0.081798 0)
(1.29629 0.0765012 0)
(1.28731 0.0719453 0)
(1.27825 0.068008 0)
(1.26905 0.0645688 0)
(1.25966 0.061518 0)
(1.25003 0.0587594 0)
(1.24014 0.0562103 0)
(1.22997 0.0538004 0)
(1.21952 0.0514712 0)
(1.20879 0.0491752 0)
(1.19781 0.0468759 0)
(1.18661 0.044547 0)
(1.17524 0.0421711 0)
(1.16375 0.0397391 0)
(1.15219 0.0372492 0)
(1.14065 0.0347068 0)
(1.12918 0.0321237 0)
(1.11788 0.0295164 0)
(1.10682 0.0269046 0)
(1.09607 0.02431 0)
(1.08573 0.0217562 0)
(1.07586 0.0192678 0)
(1.06654 0.016869 0)
(1.05782 0.0145817 0)
(1.04976 0.012425 0)
(1.0424 0.0104147 0)
(1.03577 0.0085641 0)
(1.02988 0.00688337 0)
(1.02473 0.0053787 0)
(1.02032 0.00405125 0)
(1.01661 0.00289749 0)
(1.01356 0.00191032 0)
(1.01112 0.00108002 0)
(1.00924 0.000394559 0)
(1.00783 -0.000158887 0)
(1.00687 -0.000593776 0)
(1.00627 -0.000929701 0)
(1.00597 -0.00118707 0)
(1.00588 -0.00138233 0)
(1.00595 -0.00152995 0)
(1.00613 -0.00164275 0)
(1.00634 -0.00173182 0)
(1.00656 -0.00180623 0)
(1.00673 -0.00187284 0)
(1.00681 -0.00193621 0)
(1.00676 -0.00199861 0)
(1.00653 -0.00206263 0)
(1.00605 -0.00213995 0)
(1.0053 -0.00224553 0)
(1.00433 -0.00245321 0)
(1.0019 -0.00352987 0)
(2.22827 -0.00659634 0)
(2.26885 -0.0123661 0)
(2.30837 -0.0144422 0)
(2.3569 -0.0174828 0)
(2.41165 -0.0205895 0)
(2.47352 -0.0239573 0)
(2.54187 -0.0273021 0)
(2.61571 -0.030323 0)
(2.69307 -0.0325984 0)
(2.7711 -0.0336916 0)
(2.84627 -0.0332429 0)
(2.91484 -0.0310992 0)
(2.97353 -0.0274155 0)
(3.02032 -0.0226833 0)
(3.05486 -0.0176462 0)
(3.07856 -0.0131133 0)
(3.09411 -0.00973686 0)
(3.1047 -0.00785255 0)
(3.11328 -0.00745765 0)
(3.12212 -0.00829173 0)
(3.13258 -0.00995891 0)
(3.14523 -0.0120652 0)
(3.16008 -0.0143104 0)
(3.17686 -0.0165162 0)
(3.1952 -0.0186093 0)
(3.21472 -0.0205879 0)
(3.23515 -0.022491 0)
(3.25628 -0.0243745 0)
(3.27802 -0.0262972 0)
(3.30031 -0.0283125 0)
(3.32315 -0.030466 0)
(3.34658 -0.0327944 0)
(3.37065 -0.035327 0)
(3.39541 -0.0380869 0)
(3.42094 -0.0410918 0)
(3.4473 -0.0443546 0)
(3.47454 -0.0478837 0)
(3.50272 -0.0516817 0)
(3.53188 -0.0557446 0)
(3.56204 -0.0600603 0)
(3.59321 -0.0646073 0)
(3.62537 -0.0693527 0)
(3.65849 -0.0742512 0)
(3.6925 -0.079243 0)
(3.7273 -0.0842536 0)
(3.76277 -0.0891937 0)
(3.79875 -0.0939598 0)
(3.83504 -0.098435 0)
(3.87143 -0.10249 0)
(3.90767 -0.105987 0)
(3.94348 -0.108781 0)
(3.97857 -0.110723 0)
(4.01264 -0.111666 0)
(4.04535 -0.111464 0)
(4.07641 -0.109978 0)
(4.10549 -0.107077 0)
(4.13227 -0.10264 0)
(4.15647 -0.0965582 0)
(4.17782 -0.0887356 0)
(4.19605 -0.0790861 0)
(4.21094 -0.0675335 0)
(4.22228 -0.054009 0)
(4.22992 -0.0384479 0)
(4.23372 -0.0207837 0)
(4.2336 -0.000938772 0)
(4.2294 0.0211551 0)
(4.22124 0.0455513 0)
(4.20905 0.0723371 0)
(4.19281 0.101633 0)
(4.17253 0.133567 0)
(4.14819 0.168276 0)
(4.1198 0.205902 0)
(4.08738 0.246592 0)
(4.05093 0.290494 0)
(4.01047 0.337754 0)
(3.96601 0.38851 0)
(3.91757 0.442886 0)
(3.86518 0.500982 0)
(3.80883 0.562865 0)
(3.74855 0.628555 0)
(3.68435 0.698008 0)
(3.61624 0.771105 0)
(3.54425 0.847627 0)
(3.46839 0.92724 0)
(3.38871 1.00947 0)
(3.30526 1.09368 0)
(3.21811 1.17906 0)
(3.12738 1.26456 0)
(3.0332 1.34894 0)
(2.93577 1.4307 0)
(2.83537 1.50808 0)
(2.73233 1.57905 0)
(2.62708 1.64136 0)
(2.52015 1.69252 0)
(2.41219 1.72982 0)
(2.30399 1.75043 0)
(2.19645 1.75145 0)
(2.0906 1.72993 0)
(1.98781 1.68296 0)
(1.88889 1.60757 0)
(1.7907 1.49819 0)
(1.69085 1.34742 0)
(1.59177 1.15339 0)
(1.49479 0.913393 0)
(1.39816 0.622774 0)
(1.29398 0.278606 0)
(1.16699 -0.0989483 0)
(1.02786 -0.415577 0)
(0.92814 -0.570203 0)
(0.87626 -0.586538 0)
(0.863779 -0.533031 0)
(0.875428 -0.45787 0)
(0.89966 -0.383217 0)
(0.929735 -0.316502 0)
(0.961796 -0.258791 0)
(0.994237 -0.209106 0)
(1.02677 -0.165848 0)
(1.05971 -0.127198 0)
(1.0935 -0.091296 0)
(1.12826 -0.0564183 0)
(1.16345 -0.0213879 0)
(1.19801 0.0136505 0)
(1.2297 0.046969 0)
(1.25683 0.0766006 0)
(1.27893 0.101583 0)
(1.29582 0.121443 0)
(1.30742 0.135691 0)
(1.31428 0.144055 0)
(1.31799 0.146829 0)
(1.31874 0.145141 0)
(1.31739 0.140199 0)
(1.31444 0.133258 0)
(1.31034 0.125424 0)
(1.30541 0.117538 0)
(1.29989 0.110142 0)
(1.29391 0.103511 0)
(1.28753 0.0977172 0)
(1.28078 0.0927087 0)
(1.27366 0.0883703 0)
(1.26615 0.0845653 0)
(1.25824 0.0811595 0)
(1.24992 0.0780316 0)
(1.24118 0.0750775 0)
(1.23205 0.0722107 0)
(1.22253 0.0693617 0)
(1.21264 0.0664776 0)
(1.20244 0.0635204 0)
(1.19195 0.0604659 0)
(1.18125 0.0573021 0)
(1.17038 0.0540277 0)
(1.15943 0.0506506 0)
(1.14845 0.0471874 0)
(1.13753 0.0436611 0)
(1.12675 0.0401 0)
(1.11618 0.0365354 0)
(1.10591 0.0330007 0)
(1.09601 0.0295302 0)
(1.08654 0.026158 0)
(1.07757 0.0229164 0)
(1.06916 0.0198346 0)
(1.06136 0.0169377 0)
(1.05419 0.0142467 0)
(1.04767 0.0117779 0)
(1.04183 0.00954337 0)
(1.03666 0.00754903 0)
(1.03215 0.00579476 0)
(1.02826 0.00427483 0)
(1.02496 0.00297905 0)
(1.0222 0.00189376 0)
(1.01992 0.00100208 0)
(1.01808 0.000283782 0)
(1.0166 -0.000282058 0)
(1.01543 -0.000717695 0)
(1.0145 -0.00104835 0)
(1.01377 -0.00129629 0)
(1.01316 -0.00148128 0)
(1.01263 -0.00162115 0)
(1.01213 -0.00173186 0)
(1.01162 -0.00182749 0)
(1.01108 -0.00192027 0)
(1.01045 -0.0020206 0)
(1.00971 -0.00213551 0)
(1.00881 -0.00226606 0)
(1.00769 -0.00240265 0)
(1.00634 -0.00249562 0)
(1.00478 -0.00253688 0)
(1.00202 -0.00326468 0)
(2.22198 -0.00856901 0)
(2.25861 -0.0160565 0)
(2.29412 -0.0187868 0)
(2.3378 -0.0227767 0)
(2.38696 -0.0268442 0)
(2.4424 -0.0312486 0)
(2.50345 -0.035615 0)
(2.56916 -0.039546 0)
(2.63767 -0.0424825 0)
(2.70633 -0.0438434 0)
(2.7719 -0.0431514 0)
(2.83097 -0.040209 0)
(2.88068 -0.0352364 0)
(2.91935 -0.0289066 0)
(2.94692 -0.0222242 0)
(2.96491 -0.0162659 0)
(2.97597 -0.0118805 0)
(2.98306 -0.00948193 0)
(2.98881 -0.00903416 0)
(2.99512 -0.0101699 0)
(3.00308 -0.0123565 0)
(3.01304 -0.0150764 0)
(3.02492 -0.0179429 0)
(3.0384 -0.0207314 0)
(3.05311 -0.0233533 0)
(3.06871 -0.0258115 0)
(3.08496 -0.0281605 0)
(3.10169 -0.0304752 0)
(3.1188 -0.0328336 0)
(3.13627 -0.035306 0)
(3.15411 -0.0379525 0)
(3.17236 -0.0408217 0)
(3.19108 -0.0439526 0)
(3.21034 -0.0473761 0)
(3.23023 -0.0511163 0)
(3.2508 -0.0551915 0)
(3.27214 -0.0596138 0)
(3.2943 -0.0643882 0)
(3.31733 -0.0695108 0)
(3.34128 -0.0749677 0)
(3.36617 -0.0807323 0)
(3.39201 -0.0867632 0)
(3.41877 -0.0930024 0)
(3.4464 -0.099373 0)
(3.47484 -0.105779 0)
(3.50398 -0.112104 0)
(3.53369 -0.118215 0)
(3.5638 -0.123957 0)
(3.59411 -0.129161 0)
(3.6244 -0.133648 0)
(3.65443 -0.137225 0)
(3.68392 -0.139699 0)
(3.71259 -0.140872 0)
(3.74013 -0.140552 0)
(3.76626 -0.138555 0)
(3.79068 -0.134705 0)
(3.81308 -0.128844 0)
(3.83319 -0.120827 0)
(3.85075 -0.110526 0)
(3.86551 -0.0978302 0)
(3.87728 -0.0826453 0)
(3.88585 -0.0648914 0)
(3.89109 -0.0445021 0)
(3.89289 -0.021421 0)
(3.89117 0.00439871 0)
(3.88593 0.0329746 0)
(3.87721 0.0643725 0)
(3.86496 0.0987156 0)
(3.84923 0.136131 0)
(3.83002 0.176751 0)
(3.80736 0.220713 0)
(3.78131 0.268155 0)
(3.75192 0.319221 0)
(3.71925 0.374051 0)
(3.68337 0.432786 0)
(3.64436 0.495555 0)
(3.60231 0.562473 0)
(3.55728 0.633628 0)
(3.50936 0.709071 0)
(3.45862 0.788803 0)
(3.40515 0.872753 0)
(3.34901 0.960764 0)
(3.29029 1.05257 0)
(3.22905 1.14776 0)
(3.16538 1.24578 0)
(3.09937 1.34586 0)
(3.03112 1.44703 0)
(2.96075 1.54807 0)
(2.88841 1.64749 0)
(2.81428 1.74348 0)
(2.73858 1.83394 0)
(2.66159 1.91645 0)
(2.58364 1.98831 0)
(2.50513 2.04651 0)
(2.42653 2.08786 0)
(2.34836 2.109 0)
(2.27122 2.10654 0)
(2.19575 2.07718 0)
(2.12272 2.01781 0)
(2.05236 1.92557 0)
(1.98218 1.7952 0)
(1.9093 1.62097 0)
(1.83401 1.40519 0)
(1.75517 1.15154 0)
(1.66919 0.86457 0)
(1.56863 0.550308 0)
(1.44313 0.219944 0)
(1.28691 -0.100842 0)
(1.12781 -0.346618 0)
(1.00786 -0.461989 0)
(0.930542 -0.481442 0)
(0.888437 -0.45094 0)
(0.869318 -0.40127 0)
(0.864928 -0.347394 0)
(0.869504 -0.296089 0)
(0.879667 -0.250226 0)
(0.893768 -0.210588 0)
(0.911156 -0.176849 0)
(0.931813 -0.147985 0)
(0.955994 -0.122475 0)
(0.983904 -0.0984705 0)
(1.0154 -0.0739733 0)
(1.04965 -0.0473099 0)
(1.0853 -0.0178018 0)
(1.12021 0.0135768 0)
(1.15248 0.0447936 0)
(1.18057 0.0734571 0)
(1.20348 0.0971722 0)
(1.22253 0.114849 0)
(1.23745 0.126116 0)
(1.24867 0.131613 0)
(1.25649 0.132702 0)
(1.26142 0.13082 0)
(1.264 0.127225 0)
(1.26465 0.12287 0)
(1.26376 0.118396 0)
(1.26158 0.114156 0)
(1.25833 0.110294 0)
(1.25413 0.106814 0)
(1.24911 0.103646 0)
(1.24332 0.100688 0)
(1.23684 0.0978339 0)
(1.22971 0.0949866 0)
(1.22199 0.0920636 0)
(1.21373 0.089 0)
(1.20499 0.0857492 0)
(1.19583 0.0822824 0)
(1.18631 0.078587 0)
(1.1765 0.074665 0)
(1.16647 0.0705314 0)
(1.15631 0.0662119 0)
(1.14609 0.0617413 0)
(1.13589 0.0571615 0)
(1.1258 0.0525187 0)
(1.11588 0.047862 0)
(1.10623 0.0432415 0)
(1.09691 0.0387067 0)
(1.08798 0.0343048 0)
(1.07951 0.0300797 0)
(1.07155 0.0260702 0)
(1.06415 0.0223094 0)
(1.05733 0.0188241 0)
(1.05111 0.0156349 0)
(1.04551 0.0127552 0)
(1.04053 0.0101909 0)
(1.03614 0.00794037 0)
(1.03233 0.00599516 0)
(1.02905 0.00434129 0)
(1.02627 0.00296013 0)
(1.02393 0.00182896 0)
(1.02198 0.000921316 0)