/*--------------------------------*- C++ -*----------------------------------*\
| =========                 |                                                 |
| \\      /  F ield         | OpenFOAM: The Open Source CFD Toolbox           |
|  \\    /   O peration     | Version:  2406                                  |
|   \\  /    A nd           | Website:  www.openfoam.com                      |
|    \\/     M anipulation  |                                                 |
\*---------------------------------------------------------------------------*/
FoamFile
{
    version     2.0;
    format      ascii;
    arch        "LSB;label=32;scalar=64";
    class       surfaceScalarField;
    location    "0.1";
    object      phi;
}
// * * * * * * * * * * * * * * * * * * * * * * * * * * * * * * * * * * * * * //

dimensions      [0 3 -1 0 0 0 0];

oriented        oriented;

internalField   nonuniform List<scalar> 
1890
(
2.56137e-06
-1.87668e-08
2.57603e-06
-1.46639e-08
2.5883e-06
-1.22639e-08
2.59874e-06
-1.04504e-08
2.60723e-06
-8.48436e-09
2.61364e-06
-6.41262e-09
2.61809e-06
-4.45264e-09
2.62089e-06
-2.79527e-09
2.62243e-06
-1.54496e-09
2.62313e-06
-7.0222e-10
2.62334e-06
-2.02788e-10
2.62328e-06
5.2901e-11
2.62313e-06
1.47989e-10
2.62298e-06
1.58195e-10
2.62285e-06
1.27355e-10
2.62277e-06
8.01666e-11
2.62274e-06
2.95656e-11
2.62276e-06
-1.81769e-11
2.62282e-06
-6.00058e-11
2.62291e-06
-9.40321e-11
2.62303e-06
-1.18027e-10
2.62316e-06
-1.30436e-10
2.62329e-06
-1.32023e-10
2.62342e-06
-1.2562e-10
2.62353e-06
-1.13861e-10
2.62363e-06
-9.70521e-11
2.6237e-06
-7.27762e-11
2.62374e-06
-3.73546e-11
2.62373e-06
1.19688e-11
2.62365e-06
7.37212e-11
2.62351e-06
1.42183e-10
2.62331e-06
2.06703e-10
2.62305e-06
2.54618e-10
2.62278e-06
2.74744e-10
2.62252e-06
2.60954e-10
2.6223e-06
2.14302e-10
2.62216e-06
1.428e-10
2.6221e-06
5.89723e-11
2.62212e-06
-2.38249e-11
2.62222e-06
-9.47651e-11
2.62237e-06
-1.47589e-10
2.62255e-06
-1.80615e-10
2.62274e-06
-1.95279e-10
2.62293e-06
-1.9405e-10
2.62311e-06
-1.78834e-10
2.62326e-06
-1.50578e-10
2.62337e-06
-1.10082e-10
2.62343e-06
-5.94199e-11
2.62343e-06
-3.01122e-12
2.62338e-06
5.23956e-11
2.62328e-06
9.90741e-11
2.62315e-06
1.30485e-10
2.62301e-06
1.4339e-10
2.62287e-06
1.38893e-10
2.62275e-06
1.2187e-10
2.62265e-06
9.88833e-11
2.62258e-06
7.5408e-11
2.62252e-06
5.35441e-11
2.62249e-06
3.13039e-11
2.62249e-06
3.98873e-12
2.62252e-06
-3.31429e-11
2.6226e-06
-8.10266e-11
2.62274e-06
-1.35273e-10
2.62292e-06
-1.85844e-10
2.62314e-06
-2.19901e-10
2.62337e-06
-2.26072e-10
2.62357e-06
-1.98722e-10
2.62371e-06
-1.40455e-10
2.62377e-06
-6.18071e-11
2.62375e-06
2.18231e-11
2.62365e-06
9.46968e-11
2.62351e-06
1.45225e-10
2.62334e-06
1.68552e-10
2.62317e-06
1.66806e-10
2.62302e-06
1.47112e-10
2.6229e-06
1.18355e-10
2.62282e-06
8.7941e-11
2.62276e-06
5.97544e-11
2.62272e-06
3.41594e-11
2.62271e-06
9.96231e-12
2.62273e-06
-1.29116e-11
2.62276e-06
-3.19168e-11
2.6228e-06
-4.25656e-11
2.62284e-06
-4.02963e-11
2.62286e-06
-2.24707e-11
2.62285e-06
1.01853e-11
2.6228e-06
5.0946e-11
2.62272e-06
8.21458e-11
2.62265e-06
6.76918e-11
2.62271e-06
-6.44197e-11
2.6231e-06
-3.86135e-10
2.62411e-06
-1.00735e-09
2.62612e-06
-2.01228e-09
2.62956e-06
-3.43978e-09
2.6348e-06
-5.24195e-09
2.64208e-06
-7.27362e-09
2.6514e-06
-9.32661e-09
2.66268e-06
-1.12771e-08
2.67636e-06
-1.3681e-08
-1.76381e-08
6.34946e-06
-3.84813e-08
6.36947e-06
-3.46797e-08
6.38942e-06
-3.22106e-08
6.40763e-06
-2.86653e-08
6.42297e-06
-2.38198e-08
6.43495e-06
-1.8395e-08
6.44362e-06
-1.31219e-08
6.44939e-06
-8.56142e-09
6.45287e-06
-5.02943e-09
6.45474e-06
-2.56795e-09
6.45557e-06
-1.03003e-09
6.4558e-06
-1.84069e-10
6.45575e-06
2.02853e-10
6.45559e-06
3.16239e-10
6.45544e-06
2.83409e-10
6.45533e-06
1.81489e-10
6.45531e-06
5.26526e-11
6.45538e-06
-8.11187e-11
6.45552e-06
-2.05888e-10
6.45574e-06
-3.09915e-10
6.456e-06
-3.84081e-10
6.4563e-06
-4.24139e-10
6.4566e-06
-4.31776e-10
6.45688e-06
-4.12882e-10
6.45714e-06
-3.7315e-10
6.45736e-06
-3.13319e-10
6.45752e-06
-2.2741e-10
6.45758e-06
-1.05853e-10
6.45754e-06
5.75138e-11
6.45735e-06
2.57799e-10
6.45702e-06
4.75238e-10
6.45655e-06
6.76833e-10
6.45598e-06
8.24026e-10
6.45537e-06
8.83553e-10
6.4548e-06
8.37679e-10
6.45432e-06
6.90037e-10
6.454e-06
4.64876e-10
6.45386e-06
2.00058e-10
6.4539e-06
-6.34936e-11
6.4541e-06
-2.91904e-10
6.45441e-06
-4.6455e-10
6.4548e-06
-5.74715e-10
6.45523e-06
-6.25578e-10
6.45566e-06
-6.24223e-10
6.45606e-06
-5.76849e-10
6.4564e-06
-4.87308e-10
6.45664e-06
-3.59153e-10
6.45678e-06
-1.99465e-10
6.4568e-06
-2.18738e-11
6.4567e-06
1.53461e-10
6.45649e-06
3.03484e-10
6.45622e-06
4.08382e-10
6.4559e-06
4.5756e-10
6.45559e-06
4.52749e-10
6.45531e-06
4.0659e-10
6.45507e-06
3.36968e-10
6.45489e-06
2.59348e-10
6.45476e-06
1.80426e-10
6.4547e-06
9.61191e-11
6.45471e-06
-4.92792e-12
6.45481e-06
-1.32962e-10
6.45502e-06
-2.88787e-10
6.45534e-06
-4.57337e-10
6.45576e-06
-6.08709e-10
6.45625e-06
-7.05776e-10
6.45674e-06
-7.16371e-10
6.45716e-06
-6.25302e-10
6.45747e-06
-4.41329e-10
6.4576e-06
-1.96151e-10
6.45756e-06
6.43699e-11
6.45736e-06
2.93459e-10
6.45705e-06
4.56254e-10
6.45667e-06
5.37672e-10
6.4563e-06
5.4306e-10
6.45595e-06
4.92223e-10
6.45566e-06
4.09956e-10
6.45543e-06
3.17182e-10
6.45526e-06
2.25992e-10
6.45516e-06
1.39867e-10
6.45511e-06
5.8064e-11
6.45512e-06
-1.86616e-11
6.45517e-06
-8.42691e-11
6.45525e-06
-1.27812e-10
6.45535e-06
-1.37567e-10
6.45543e-06
-1.07227e-10
6.45549e-06
-4.34497e-11
6.45552e-06
2.63165e-11
6.45556e-06
4.03705e-11
6.45574e-06
-1.12188e-10
6.45628e-06
-6.02286e-10
6.45755e-06
-1.65695e-09
6.46007e-06
-3.52542e-09
6.46446e-06
-6.41002e-09
6.4714e-06
-1.03706e-08
6.48138e-06
-1.5228e-08
6.49464e-06
-2.05314e-08
6.51091e-06
-2.5598e-08
6.52924e-06
-2.96015e-08
6.54796e-06
-3.24016e-08
-3.60556e-08
9.04984e-06
-4.39303e-08
9.05727e-06
-4.21051e-08
9.06596e-06
-4.08993e-08
9.07449e-06
-3.72033e-08
9.08198e-06
-3.13036e-08
9.08801e-06
-2.44293e-08
9.09251e-06
-1.76286e-08
9.09563e-06
-1.16805e-08
9.09763e-06
-7.02023e-09
9.09878e-06
-3.72607e-09
9.09938e-06
-1.62475e-09
9.09962e-06
-4.30303e-10
9.09968e-06
1.47575e-10
9.09965e-06
3.45654e-10
9.0996e-06
3.28984e-10
9.09959e-06
1.99677e-10
9.09962e-06
1.58924e-11
9.09973e-06
-1.8783e-10
9.09991e-06
-3.8619e-10
9.10016e-06
-5.57009e-10
9.10046e-06
-6.8257e-10
9.10079e-06
-7.53371e-10
9.10112e-06
-7.69923e-10
9.10145e-06
-7.39919e-10
9.10175e-06
-6.71024e-10
9.102e-06
-5.63205e-10
9.10218e-06
-4.0608e-10
9.10226e-06
-1.84287e-10
9.1022e-06
1.10903e-10
9.10199e-06
4.69325e-10
9.10161e-06
8.55392e-10
9.10108e-06
1.21134e-09
9.10043e-06
1.47022e-09
9.09974e-06
1.57441e-09
9.09909e-06
1.49324e-09
9.09854e-06
1.23304e-09
9.09817e-06
8.36003e-10
9.098e-06
3.68256e-10
9.09804e-06
-9.82519e-11
9.09825e-06
-5.0343e-10
9.09859e-06
-8.10139e-10
9.09902e-06
-1.00583e-09
9.09949e-06
-1.09597e-09
9.09996e-06
-1.09373e-09
9.1004e-06
-1.01135e-09
9.10077e-06
-8.56927e-10
9.10104e-06
-6.37249e-10
9.10121e-06
-3.63964e-10
9.10124e-06
-5.88812e-11
9.10115e-06
2.45381e-10
9.10094e-06
5.10731e-10
9.10065e-06
7.03243e-10
9.1003e-06
8.03014e-10
9.09995e-06
8.09738e-10
9.09962e-06
7.41136e-10
9.09933e-06
6.24454e-10
9.09911e-06
4.84477e-10
9.09895e-06
3.33327e-10
9.09888e-06
1.66952e-10
9.09891e-06
-2.95395e-11
9.09904e-06
-2.69253e-10
9.0993e-06
-5.49762e-10
9.09969e-06
-8.43757e-10
9.10018e-06
-1.10058e-09
9.10074e-06
-1.25881e-09
9.10129e-06
-1.2661e-09
9.10176e-06
-1.0987e-09
9.10209e-06
-7.72754e-10
9.10224e-06
-3.42496e-10
9.10219e-06
1.14322e-10
9.10196e-06
5.18397e-10
9.10161e-06
8.10197e-10
9.10118e-06
9.63235e-10
9.10074e-06
9.85357e-10
9.10032e-06
9.08932e-10
9.09995e-06
7.75002e-10
9.09965e-06
6.18403e-10
9.09942e-06
4.59635e-10
9.09926e-06
3.0545e-10
9.09916e-06
1.55824e-10
9.09913e-06
1.24805e-11
9.09916e-06
-1.15779e-10
9.09924e-06
-2.13247e-10
9.09937e-06
-2.62752e-10
9.09951e-06
-2.54443e-10
9.09967e-06
-1.97229e-10
9.09982e-06
-1.32522e-10
9.10002e-06
-1.49707e-10
9.1003e-06
-4.01548e-10
9.10082e-06
-1.11494e-09
9.10174e-06
-2.58146e-09
9.10333e-06
-5.11061e-09
9.10586e-06
-8.93978e-09
9.1096e-06
-1.4109e-08
9.11471e-06
-2.03405e-08
9.12117e-06
-2.69936e-08
9.12867e-06
-3.30923e-08
9.13641e-06
-3.7348e-08
9.14307e-06
-3.90548e-08
-4.07247e-08
1.08092e-05
-3.00878e-08
1.07966e-05
-2.94675e-08
1.07847e-05
-2.9049e-08
1.07741e-05
-2.65722e-08
1.07652e-05
-2.23756e-08
1.07582e-05
-1.7444e-08
1.07531e-05
-1.25658e-08
1.07498e-05
-8.31305e-09
1.07477e-05
-4.98991e-09
1.07467e-05
-2.64167e-09
1.07462e-05
-1.13944e-09
1.0746e-05
-2.80765e-10
1.0746e-05
1.36586e-10
1.07461e-05
2.74668e-10
1.07462e-05
2.43421e-10
1.07463e-05
1.102e-10
1.07464e-05
-8.38229e-11
1.07465e-05
-3.09157e-10
1.07466e-05
-5.38592e-10
1.07468e-05
-7.44248e-10
1.07471e-05
-9.01194e-10
1.07473e-05
-9.93949e-10
1.07475e-05
-1.02e-09
1.07478e-05
-9.86427e-10
1.0748e-05
-9.00624e-10
1.07482e-05
-7.60582e-10
1.07484e-05
-5.51833e-10
1.07484e-05
-2.54478e-10
1.07484e-05
1.41984e-10
1.07483e-05
6.23019e-10
1.0748e-05
1.14071e-09
1.07476e-05
1.61798e-09
1.07471e-05
1.96562e-09
1.07465e-05
2.10676e-09
1.0746e-05
2.00029e-09
1.07456e-05
1.65444e-09
1.07453e-05
1.12551e-09
1.07452e-05
5.02133e-10
1.07452e-05
-1.18953e-10
1.07454e-05
-6.56763e-10
1.07456e-05
-1.06134e-09
1.07459e-05
-1.31642e-09
1.07462e-05
-1.43088e-09
1.07466e-05
-1.42469e-09
1.07469e-05
-1.31668e-09
1.07471e-05
-1.1192e-09
1.07473e-05
-8.40933e-10
1.07475e-05
-4.94764e-10
1.07475e-05
-1.05374e-10
1.07475e-05
2.88632e-10
1.07474e-05
6.40199e-10
1.07472e-05
9.05229e-10
1.07469e-05
1.05509e-09
1.07466e-05
1.08448e-09
1.07464e-05
1.01082e-09
1.07461e-05
8.64861e-10
1.07459e-05
6.76594e-10
1.07458e-05
4.62661e-10
1.07457e-05
2.21527e-10
1.07458e-05
-6.06782e-11
1.07459e-05
-3.95555e-10
1.07461e-05
-7.75651e-10
1.07464e-05
-1.16367e-09
1.07468e-05
-1.49436e-09
1.07473e-05
-1.69023e-09
1.07477e-05
-1.68632e-09
1.0748e-05
-1.45441e-09
1.07483e-05
-1.01707e-09
1.07484e-05
-4.45108e-10
1.07483e-05
1.60927e-10
1.07482e-05
6.98701e-10
1.07479e-05
1.09119e-09
1.07475e-05
1.30365e-09
1.07472e-05
1.34537e-09
1.07468e-05
1.25742e-09
1.07465e-05
1.09231e-09
1.07462e-05
8.9467e-10
1.0746e-05
6.90405e-10
1.07458e-05
4.8737e-10
1.07457e-05
2.84579e-10
1.07456e-05
8.32712e-11
1.07456e-05
-1.06549e-10
1.07457e-05
-2.66492e-10
1.07458e-05
-3.75973e-10
1.0746e-05
-4.20941e-10
1.07462e-05
-4.04156e-10
1.07464e-05
-3.5719e-10
1.07466e-05
-3.52461e-10
1.07467e-05
-5.11959e-10
1.07466e-05
-1.00957e-09
1.07461e-05
-2.05943e-09
1.07448e-05
-3.87905e-09
1.07425e-05
-6.62163e-09
1.07387e-05
-1.0288e-08
1.0733e-05
-1.46473e-08
1.07252e-05
-1.92121e-08
1.07154e-05
-2.32591e-08
1.07039e-05
-2.58306e-08
1.06912e-05
-2.63678e-08
-2.67207e-08
1.16844e-05
-2.42336e-09
1.16571e-05
-2.13274e-09
1.16297e-05
-1.66926e-09
1.16042e-05
-1.10001e-09
1.15824e-05
-5.41175e-10
1.1565e-05
-9.39087e-11
1.15523e-05
2.01895e-10
1.15436e-05
3.51237e-10
1.15382e-05
3.90195e-10
1.15352e-05
3.64112e-10
1.15338e-05
3.13853e-10
1.15332e-05
2.62383e-10
1.15331e-05
2.13326e-10
1.15333e-05
1.56786e-10
1.15334e-05
7.65581e-11
1.15336e-05
-4.12218e-11
1.15337e-05
-2.01413e-10
1.15338e-05
-3.96577e-10
1.15338e-05
-6.07275e-10
1.15339e-05
-8.05885e-10
1.1534e-05
-9.6435e-10
1.1534e-05
-1.0632e-09
1.15341e-05
-1.09645e-09
1.15342e-05
-1.06853e-09
1.15343e-05
-9.84601e-10
1.15344e-05
-8.4034e-10
1.15344e-05
-6.1869e-10
1.15345e-05
-2.97343e-10
1.15345e-05
1.35313e-10
1.15344e-05
6.63239e-10
1.15343e-05
1.23356e-09
1.15342e-05
1.76112e-09
1.1534e-05
2.1471e-09
1.15338e-05
2.30613e-09
1.15336e-05
2.19228e-09
1.15335e-05
1.81442e-09
1.15334e-05
1.235e-09
1.15333e-05
5.52685e-10
1.15333e-05
-1.24771e-10
1.15334e-05
-7.07376e-10
1.15334e-05
-1.14036e-09
1.15335e-05
-1.4075e-09
1.15336e-05
-1.52157e-09
1.15337e-05
-1.50829e-09
1.15338e-05
-1.39159e-09
1.15339e-05
-1.18652e-09
1.15339e-05
-9.01412e-10
1.1534e-05
-5.46467e-10
1.1534e-05
-1.42973e-10
1.1534e-05
2.72694e-10
1.1534e-05
6.53176e-10
1.1534e-05
9.5121e-10
1.15339e-05
1.13285e-09
1.15338e-05
1.18684e-09
1.15337e-05
1.12556e-09
1.15336e-05
9.76922e-10
1.15335e-05
7.7069e-10
1.15334e-05
5.25618e-10
1.15334e-05
2.43847e-10
1.15334e-05
-8.40678e-11
1.15335e-05
-4.6513e-10
1.15336e-05
-8.87267e-10
1.15337e-05
-1.30865e-09
1.15339e-05
-1.65974e-09
1.15341e-05
-1.85962e-09
1.15342e-05
-1.84152e-09
1.15343e-05
-1.57788e-09
1.15344e-05
-1.09472e-09
1.15344e-05
-4.68735e-10
1.15344e-05
1.9236e-10
1.15343e-05
7.79374e-10
1.15342e-05
1.21029e-09
1.15341e-05
1.44817e-09
1.15339e-05
1.50298e-09
1.15337e-05
1.41846e-09
1.15336e-05
1.25061e-09
1.15334e-05
1.04677e-09
1.15333e-05
8.3363e-10
1.15332e-05
6.17657e-10
1.1533e-05
3.95178e-10
1.1533e-05
1.64919e-10
1.15329e-05
-6.43538e-11
1.15329e-05
-2.74024e-10
1.1533e-05
-4.41645e-10
1.15331e-05
-5.48156e-10
1.15333e-05
-5.83414e-10
1.15335e-05
-5.50242e-10
1.15336e-05
-4.66515e-10
1.15335e-05
-3.62233e-10
1.15327e-05
-2.71609e-10
1.15309e-05
-2.23285e-10
1.15272e-05
-2.29645e-10
1.15209e-05
-2.77712e-10
1.15109e-05
-3.30411e-10
1.14966e-05
-3.36876e-10
1.14777e-05
-2.55806e-10
1.14545e-05
-7.42456e-11
1.14285e-05
1.72973e-10
1.14017e-05
4.14773e-10
5.70643e-10
1.16852e-05
2.55537e-08
1.16576e-05
2.54981e-08
1.16299e-05
2.59618e-08
1.16043e-05
2.45521e-08
1.15824e-05
2.13903e-08
1.1565e-05
1.72832e-08
1.15522e-05
1.29489e-08
1.15436e-05
8.96735e-09
1.15383e-05
5.70979e-09
1.15354e-05
3.31005e-09
1.1534e-05
1.71453e-09
1.15335e-05
7.61436e-10
1.15334e-05
2.5468e-10
1.15336e-05
1.43263e-11
1.15337e-05
-9.9314e-11
1.15339e-05
-1.79464e-10
1.15339e-05
-2.77211e-10
1.1534e-05
-4.08651e-10
1.15339e-05
-5.64951e-10
1.15338e-05
-7.22871e-10
1.15337e-05
-8.55798e-10
1.15336e-05
-9.43742e-10
1.15335e-05
-9.78611e-10
1.15334e-05
-9.6191e-10
1.15333e-05
-8.9614e-10
1.15332e-05
-7.75509e-10
1.15332e-05
-5.82814e-10
1.15332e-05
-2.96195e-10
1.15332e-05
9.61323e-11
1.15333e-05
5.80021e-10
1.15334e-05
1.10665e-09
1.15336e-05
1.5966e-09
1.15338e-05
1.95729e-09
1.1534e-05
2.1084e-09
1.15342e-05
2.0065e-09
1.15343e-05
1.65974e-09
1.15344e-05
1.12677e-09
1.15345e-05
5.00441e-10
1.15345e-05
-1.17979e-10
1.15344e-05
-6.44445e-10
1.15343e-05
-1.02895e-09
1.15342e-05
-1.25883e-09
1.1534e-05
-1.34958e-09
1.15338e-05
-1.32905e-09
1.15336e-05
-1.22257e-09
1.15335e-05
-1.04516e-09
1.15334e-05
-8.0288e-10
1.15334e-05
-5.00918e-10
1.15334e-05
-1.53141e-10
1.15334e-05
2.12561e-10
1.15335e-05
5.56389e-10
1.15336e-05
8.35661e-10
1.15338e-05
1.01677e-09
1.15339e-05
1.08458e-09
1.15339e-05
1.04484e-09
1.1534e-05
9.18462e-10
1.1534e-05
7.30378e-10
1.15341e-05
4.9828e-10
1.15341e-05
2.27109e-10
1.15341e-05
-8.74665e-11
1.15341e-05
-4.47627e-10
1.1534e-05
-8.39405e-10
1.15339e-05
-1.22359e-09
1.15338e-05
-1.53763e-09
1.15337e-05
-1.70991e-09
1.15335e-05
-1.68224e-09
1.15334e-05
-1.43186e-09
1.15332e-05
-9.83908e-10
1.15332e-05
-4.0867e-10
1.15332e-05
1.96226e-10
1.15332e-05
7.32336e-10
1.15333e-05
1.12617e-09
1.15334e-05
1.34519e-09
1.15335e-05
1.39933e-09
1.15336e-05
1.32878e-09
1.15337e-05
1.1843e-09
1.15337e-05
1.00821e-09
1.15337e-05
8.23291e-10
1.15337e-05
6.33132e-10
1.15337e-05
4.31397e-10
1.15336e-05
2.13708e-10
1.15336e-05
-1.459e-11
1.15335e-05
-2.3775e-10
1.15335e-05
-4.3439e-10
1.15336e-05
-5.82743e-10
1.15336e-05
-6.61616e-10
1.15337e-05
-6.4556e-10
1.15338e-05
-4.95288e-10
1.15336e-05
-1.43201e-10
1.15328e-05
5.21354e-10
1.15309e-05
1.65946e-09
1.15272e-05
3.46536e-09
1.15208e-05
6.11636e-09
1.15108e-05
9.68389e-09
1.14964e-05
1.40305e-08
1.14774e-05
1.87435e-08
1.14542e-05
2.31261e-08
1.14282e-05
2.61579e-08
1.14015e-05
2.71456e-08
2.77944e-08
1.08114e-05
4.0261e-08
1.0798e-05
3.896e-08
1.07854e-05
3.85118e-08
1.07743e-05
3.56785e-08
1.07651e-05
3.05861e-08
1.07581e-05
2.43425e-08
1.07531e-05
1.79459e-08
1.07498e-05
1.21935e-08
1.0748e-05
7.57379e-09
1.0747e-05
4.23275e-09
1.07467e-05
2.05573e-09
1.07467e-05
7.892e-10
1.07468e-05
1.46913e-10
1.07469e-05
-1.24469e-10
1.0747e-05
-2.11516e-10
1.07471e-05
-2.37317e-10
1.07471e-05
-2.68774e-10
1.0747e-05
-3.31194e-10
1.07468e-05
-4.22251e-10
1.07466e-05
-5.24494e-10
1.07464e-05
-6.16331e-10
1.07461e-05
-6.80843e-10
1.07459e-05
-7.10318e-10
1.07456e-05
-7.04658e-10
1.07454e-05
-6.64721e-10
1.07452e-05
-5.85004e-10
1.07451e-05
-4.51065e-10
1.0745e-05
-2.44676e-10
1.07451e-05
4.4693e-11
1.07452e-05
4.07325e-10
1.07455e-05
8.06312e-10
1.0746e-05
1.1805e-09
1.07465e-05
1.45806e-09
1.0747e-05
1.57638e-09
1.07475e-05
1.50147e-09
1.07479e-05
1.23952e-09
1.07482e-05
8.36183e-10
1.07483e-05
3.63736e-10
1.07483e-05
-9.92358e-11
1.07482e-05
-4.88153e-10
1.07479e-05
-7.6577e-10
1.07476e-05
-9.24758e-10
1.07472e-05
-9.80238e-10
1.07468e-05
-9.56824e-10
1.07465e-05
-8.76241e-10
1.07462e-05
-7.5053e-10
1.0746e-05
-5.82703e-10
1.07458e-05
-3.73238e-10
1.07458e-05
-1.2825e-10
1.07459e-05
1.35197e-10
1.07461e-05
3.89542e-10
1.07463e-05
6.02902e-10
1.07466e-05
7.48141e-10
1.07468e-05
8.10637e-10
1.07471e-05
7.91192e-10
1.07473e-05
7.02801e-10
1.07475e-05
5.62959e-10
1.07476e-05
3.85375e-10
1.07476e-05
1.75456e-10
1.07476e-05
-6.77822e-11
1.07475e-05
-3.43865e-10
1.07473e-05
-6.40887e-10
1.0747e-05
-9.28901e-10
1.07466e-05
-1.16127e-09
1.07462e-05
-1.28519e-09
1.07458e-05
-1.25817e-09
1.07454e-05
-1.06436e-09
1.07452e-05
-7.23595e-10
1.07451e-05
-2.89244e-10
1.07451e-05
1.65245e-10
1.07452e-05
5.66246e-10
1.07455e-05
8.59302e-10
1.07458e-05
1.02112e-09
1.07462e-05
1.0605e-09
1.07465e-05
1.00881e-09
1.07468e-05
9.04642e-10
1.0747e-05
7.79249e-10
1.07472e-05
6.48319e-10
1.07473e-05
5.12441e-10
1.07474e-05
3.64372e-10
1.07474e-05
1.98244e-10
1.07473e-05
1.58175e-11
1.07473e-05
-1.72459e-10
1.07472e-05
-3.50602e-10
1.07471e-05
-5.0032e-10
1.07471e-05
-5.99385e-10
1.0747e-05
-6.12173e-10
1.0747e-05
-4.74244e-10
1.07469e-05
-7.25898e-11
1.07467e-05
7.68691e-10
1.0746e-05
2.30051e-09
1.07447e-05
4.81576e-09
1.07422e-05
8.57133e-09
1.07383e-05
1.36595e-08
1.07324e-05
1.98736e-08
1.07245e-05
2.66377e-08
1.07147e-05
3.29959e-08
1.07032e-05
3.76139e-08
1.06907e-05
3.96851e-08
4.16085e-08
9.05279e-06
3.60648e-08
9.05904e-06
3.2707e-08
9.06676e-06
3.07912e-08
9.07463e-06
2.7801e-08
9.08178e-06
2.34413e-08
9.08774e-06
1.83845e-08
9.09235e-06
1.33357e-08
9.09566e-06
8.87651e-09
9.09788e-06
5.35654e-09
9.09925e-06
2.8604e-09
9.10003e-06
1.27472e-09
9.10044e-06
3.86868e-10
9.10062e-06
-3.48161e-11
9.10068e-06
-1.85436e-10
9.10067e-06
-2.06923e-10
9.10062e-06
-1.88851e-10
9.10053e-06
-1.7823e-10
9.1004e-06
-1.9255e-10
9.1002e-06
-2.30541e-10
9.09996e-06
-2.80901e-10
9.09967e-06
-3.29597e-10
9.09936e-06
-3.65628e-10
9.09903e-06
-3.83974e-10
9.09871e-06
-3.84561e-10
9.09842e-06
-3.67958e-10
9.09816e-06
-3.30659e-10
9.09798e-06
-2.6337e-10
9.09789e-06
-1.54131e-10
9.09793e-06
4.67778e-12
9.09813e-06
2.08443e-10
9.0985e-06
4.36262e-10
9.09902e-06
6.52323e-10
9.09967e-06
8.1414e-10
9.10036e-06
8.84478e-10
9.10102e-06
8.4301e-10
9.10156e-06
6.93314e-10
9.10194e-06
4.62468e-10
9.10211e-06
1.93299e-10
9.10208e-06
-6.78696e-11
9.10187e-06
-2.83489e-10
9.10154e-06
-4.32803e-10
9.10113e-06
-5.13283e-10
9.10068e-06
-5.359e-10
9.10024e-06
-5.16992e-10
9.09984e-06
-4.70457e-10
9.09949e-06
-4.03377e-10
9.09922e-06
-3.16326e-10
9.09906e-06
-2.07429e-10
9.09901e-06
-7.77008e-11
9.09908e-06
6.5209e-11
9.09926e-06
2.06709e-10
9.09953e-06
3.28626e-10
9.09987e-06
4.1452e-10
9.10022e-06
4.54596e-10
9.10056e-06
4.47895e-10
9.10087e-06
4.00875e-10
9.10111e-06
3.23202e-10
9.10127e-06
2.22931e-10
9.10134e-06
1.03661e-10
9.10131e-06
-3.46799e-11
9.10116e-06
-1.91522e-10
9.10088e-06
-3.60027e-10
9.10047e-06
-5.23184e-10
9.09997e-06
-6.54476e-10
9.0994e-06
-7.23807e-10
9.09885e-06
-7.07003e-10
9.09838e-06
-5.95187e-10
9.09806e-06
-4.00068e-10
9.09792e-06
-1.52592e-10
9.09798e-06
1.04915e-10
9.09822e-06
3.3033e-10
9.09859e-06
4.92934e-10
9.09903e-06
5.8028e-10
9.09949e-06
5.98593e-10
9.09993e-06
5.67005e-10
9.10032e-06
5.08323e-10
9.10066e-06
4.40328e-10
9.10094e-06
3.71031e-10
9.10115e-06
2.99206e-10
9.1013e-06
2.19e-10
9.10137e-06
1.25661e-10
9.10136e-06
1.91526e-11
9.10129e-06
-9.57235e-11
9.10115e-06
-2.1127e-10
9.10097e-06
-3.1808e-10
9.10077e-06
-4.02606e-10
9.1006e-06
-4.39781e-10
9.10051e-06
-3.81384e-10
9.10058e-06
-1.40172e-10
9.10092e-06
4.26115e-10
9.1017e-06
1.51717e-09
9.10315e-06
3.37402e-09
9.10551e-06
6.21047e-09
9.10905e-06
1.01179e-08
9.11396e-06
1.49583e-08
9.12028e-06
2.03249e-08
9.12773e-06
2.55439e-08
9.13557e-06
2.97722e-08
9.14244e-06
3.28134e-08
3.66503e-08
6.35216e-06
1.77288e-08
6.37095e-06
1.39156e-08
6.38996e-06
1.17838e-08
6.40758e-06
1.01846e-08
6.42263e-06
8.38692e-09
6.43458e-06
6.43319e-09
6.44338e-06
4.54024e-09
6.44935e-06
2.90834e-09
6.45305e-06
1.65444e-09
6.45511e-06
7.9609e-10
6.45611e-06
2.78031e-10
6.45648e-06
1.33064e-11
6.45655e-06
-9.60159e-11
6.45647e-06
-1.14164e-10
6.45637e-06
-9.74029e-11
6.45625e-06
-7.44427e-11
6.45613e-06
-5.94754e-11
6.456e-06
-5.69158e-11
6.45583e-06
-6.52542e-11
6.45563e-06
-7.97322e-11
6.45539e-06
-9.47611e-11
6.45514e-06
-1.06142e-10
6.45486e-06
-1.12258e-10
6.4546e-06
-1.13582e-10
6.45434e-06
-1.10803e-10
6.45411e-06
-1.0284e-10
6.45393e-06
-8.61358e-11
6.45383e-06
-5.58707e-11
6.45385e-06
-8.69046e-12
6.454e-06
5.46944e-11
6.45431e-06
1.27432e-10
6.45477e-06
1.9768e-10
6.45533e-06
2.51042e-10
6.45594e-06
2.7484e-10
6.45652e-06
2.62124e-10
6.457e-06
2.14075e-10
6.45732e-06
1.39861e-10
6.45746e-06
5.39357e-11
6.45742e-06
-2.82127e-11
6.45723e-06
-9.42942e-11
6.45693e-06
-1.37956e-10
6.45658e-06
-1.59172e-10
6.45621e-06
-1.62485e-10
6.45584e-06
-1.54052e-10
6.45551e-06
-1.38842e-10
6.45523e-06
-1.19084e-10
6.45501e-06
-9.44086e-11
6.45487e-06
-6.33584e-11
6.45481e-06
-2.53897e-11
6.45486e-06
1.76879e-11
6.455e-06
6.14311e-11
6.45523e-06
9.9929e-11
6.45552e-06
1.27596e-10
6.45583e-06
1.40966e-10
6.45614e-06
1.39543e-10
6.45641e-06
1.254e-10
6.45664e-06
1.01762e-10
6.45679e-06
7.1325e-11
6.45686e-06
3.52047e-11
6.45683e-06
-6.91627e-12
6.45669e-06
-5.51865e-11
6.45644e-06
-1.0788e-10
6.45608e-06
-1.59736e-10
6.45563e-06
-2.02166e-10
6.45513e-06
-2.25164e-10
6.45464e-06
-2.20529e-10
6.45423e-06
-1.85141e-10
6.45396e-06
-1.22838e-10
6.45385e-06
-4.39496e-11
6.45392e-06
3.75005e-11
6.45414e-06
1.07723e-10
6.45447e-06
1.57e-10
6.45487e-06
1.81745e-10
6.45528e-06
1.84528e-10
6.45568e-06
1.7212e-10
6.45603e-06
1.52417e-10
6.45634e-06
1.31409e-10
6.4566e-06
1.11391e-10
6.45681e-06
9.11658e-11
6.45696e-06
6.80165e-11
6.45704e-06
4.00749e-11
6.45706e-06
7.22233e-12
6.45699e-06
-2.98374e-11
6.45685e-06
-6.9937e-11
6.45664e-06
-1.11082e-10
6.45639e-06
-1.49577e-10
6.45613e-06
-1.78718e-10
6.45593e-06
-1.8424e-10
6.45593e-06
-1.38547e-10
6.45634e-06
2.15739e-11
6.4575e-06
3.54043e-10
6.45991e-06
9.70276e-10
6.46416e-06
1.95581e-09
6.47092e-06
3.36116e-09
6.48073e-06
5.15292e-09
6.49385e-06
7.20216e-09
6.51009e-06
9.30714e-09
6.52852e-06
1.13398e-08
6.54749e-06
1.38423e-08
1.78971e-08
2.56267e-06
2.57659e-06
2.58837e-06
2.59856e-06
2.60694e-06
2.61337e-06
2.61791e-06
2.62082e-06
2.62248e-06
2.62327e-06
2.62355e-06
2.62356e-06
2.62347e-06
2.62335e-06
2.62326e-06
2.62318e-06
2.62312e-06
2.62306e-06
2.623e-06
2.62292e-06
2.62283e-06
2.62272e-06
2.62261e-06
2.6225e-06
2.62238e-06
2.62228e-06
2.62219e-06
2.62214e-06
2.62213e-06
2.62218e-06
2.62231e-06
2.62251e-06
2.62276e-06
2.62304e-06
2.6233e-06
2.62351e-06
2.62365e-06
2.62371e-06
2.62368e-06
2.62358e-06
2.62344e-06
2.62329e-06
2.62312e-06
2.62297e-06
2.62283e-06
2.62271e-06
2.62262e-06
2.62255e-06
2.62253e-06
2.62255e-06
2.62261e-06
2.62271e-06
2.62283e-06
2.62297e-06
2.62311e-06
2.62324e-06
2.62334e-06
2.62341e-06
2.62345e-06
2.62344e-06
2.62339e-06
2.62328e-06
2.62312e-06
2.62292e-06
2.62269e-06
2.62247e-06
2.62229e-06
2.62217e-06
2.62212e-06
2.62216e-06
2.62226e-06
2.62242e-06
2.6226e-06
2.62279e-06
2.62296e-06
2.62311e-06
2.62324e-06
2.62335e-06
2.62344e-06
2.62351e-06
2.62355e-06
2.62356e-06
2.62353e-06
2.62346e-06
2.62335e-06
2.6232e-06
2.62302e-06
2.62284e-06
2.6227e-06
2.62272e-06
2.62308e-06
2.62404e-06
2.626e-06
2.62936e-06
2.63451e-06
2.64172e-06
2.65102e-06
2.66236e-06
2.67621e-06
)
;

boundaryField
{
    inlet
    {
        type            calculated;
        value           nonuniform List<scalar> 10(-2.5426e-06 -6.32974e-06 -9.04439e-06 -1.08231e-05 -1.17121e-05 -1.17132e-05 -1.08262e-05 -9.04859e-06 -6.33383e-06 -2.54494e-06);
    }
    outlet
    {
        type            calculated;
        value           nonuniform List<scalar> 10(2.694e-06 6.56638e-06 9.14774e-06 1.06772e-05 1.13744e-05 1.13743e-05 1.06768e-05 9.1474e-06 6.56624e-06 2.6941e-06);
    }
    walls
    {
        type            calculated;
        value           uniform 0;
    }
    frontAndBack
    {
        type            empty;
    }
}


// ************************************************************************* //
