/*--------------------------------*- C++ -*----------------------------------*\
| =========                 |                                                 |
| \\      /  F ield         | OpenFOAM: The Open Source CFD Toolbox           |
|  \\    /   O peration     | Version:  2406                                  |
|   \\  /    A nd           | Website:  www.openfoam.com                      |
|    \\/     M anipulation  |                                                 |
\*---------------------------------------------------------------------------*/
FoamFile
{
    version     2.0;
    format      ascii;
    arch        "LSB;label=32;scalar=64";
    class       volVectorField;
    location    "0.1";
    object      U;
}
// * * * * * * * * * * * * * * * * * * * * * * * * * * * * * * * * * * * * * //

dimensions      [0 1 -1 0 0 0 0];

internalField   nonuniform List<vector> 
1000
(
(0.0255043 -9.30946e-05 0)
(0.0256756 -6.78307e-05 0)
(0.0258255 -5.26946e-05 0)
(0.0259403 -4.26725e-05 0)
(0.0260342 -3.34806e-05 0)
(0.0261086 -2.4543e-05 0)
(0.0261626 -1.63746e-05 0)
(0.0261981 -9.66309e-06 0)
(0.0262189 -4.7728e-06 0)
(0.0262294 -1.62913e-06 0)
(0.0262332 1.00884e-07 0)
(0.0262336 8.2942e-07 0)
(0.0262323 9.85393e-07 0)
(0.0262306 8.65188e-07 0)
(0.0262291 6.41695e-07 0)
(0.026228 3.98746e-07 0)
(0.0262274 1.69408e-07 0)
(0.0262274 -3.27855e-08 0)
(0.0262278 -2.00205e-07 0)
(0.0262286 -3.28151e-07 0)
(0.0262297 -4.13106e-07 0)
(0.0262309 -4.53299e-07 0)
(0.0262323 -4.54068e-07 0)
(0.0262336 -4.28583e-07 0)
(0.0262348 -3.89615e-07 0)
(0.0262359 -3.39557e-07 0)
(0.0262367 -2.67324e-07 0)
(0.0262373 -1.54642e-07 0)
(0.0262375 1.21532e-08 0)
(0.0262371 2.32374e-07 0)
(0.026236 4.82635e-07 0)
(0.0262342 7.22099e-07 0)
(0.0262319 9.01941e-07 0)
(0.0262291 9.79235e-07 0)
(0.0262264 9.30516e-07 0)
(0.0262239 7.59798e-07 0)
(0.0262221 4.97684e-07 0)
(0.0262211 1.91823e-07 0)
(0.0262209 -1.07367e-07 0)
(0.0262216 -3.60065e-07 0)
(0.0262228 -5.44378e-07 0)
(0.0262245 -6.56213e-07 0)
(0.0262264 -7.02873e-07 0)
(0.0262284 -6.94487e-07 0)
(0.0262303 -6.37719e-07 0)
(0.026232 -5.34598e-07 0)
(0.0262333 -3.86425e-07 0)
(0.0262341 -1.99965e-07 0)
(0.0262344 8.02303e-09 0)
(0.0262342 2.11074e-07 0)
(0.0262334 3.78744e-07 0)
(0.0262322 4.85872e-07 0)
(0.0262308 5.21215e-07 0)
(0.0262294 4.915e-07 0)
(0.026228 4.18615e-07 0)
(0.0262269 3.30583e-07 0)
(0.0262261 2.49811e-07 0)
(0.0262254 1.8357e-07 0)
(0.026225 1.21194e-07 0)
(0.0262248 4.00074e-08 0)
(0.0262249 -8.17574e-08 0)
(0.0262255 -2.52521e-07 0)
(0.0262266 -4.55995e-07 0)
(0.0262282 -6.5259e-07 0)
(0.0262303 -7.90494e-07 0)
(0.0262326 -8.23287e-07 0)
(0.0262348 -7.27471e-07 0)
(0.0262365 -5.12682e-07 0)
(0.0262376 -2.20274e-07 0)
(0.0262378 8.92273e-08 0)
(0.0262371 3.54873e-07 0)
(0.0262359 5.32529e-07 0)
(0.0262343 6.052e-07 0)
(0.0262325 5.83237e-07 0)
(0.0262309 4.9604e-07 0)
(0.0262296 3.79248e-07 0)
(0.0262285 2.62189e-07 0)
(0.0262278 1.59892e-07 0)
(0.0262273 7.27296e-08 0)
(0.0262271 -6.08362e-09 0)
(0.0262272 -7.94392e-08 0)
(0.0262274 -1.38873e-07 0)
(0.0262278 -1.64794e-07 0)
(0.0262282 -1.33878e-07 0)
(0.0262286 -2.77139e-08 0)
(0.0262287 1.59789e-07 0)
(0.0262283 4.13133e-07 0)
(0.0262276 6.72098e-07 0)
(0.0262266 7.99786e-07 0)
(0.0262262 5.49924e-07 0)
(0.0262279 -4.90713e-07 0)
(0.0262342 -2.74318e-06 0)
(0.0262484 -6.62597e-06 0)
(0.0262748 -1.23808e-05 0)
(0.0263177 -1.98925e-05 0)
(0.0263801 -2.86829e-05 0)
(0.0264622 -3.81931e-05 0)
(0.0265663 -4.86395e-05 0)
(0.0267052 -6.35107e-05 0)
(0.026867 -8.76593e-05 0)
(0.0633693 -0.000305136 0)
(0.0635759 -0.000258553 0)
(0.0637979 -0.00022863 0)
(0.0639926 -0.000198676 0)
(0.0641604 -0.000162868 0)
(0.0642974 -0.000124286 0)
(0.0644002 -8.74352e-05 0)
(0.0644711 -5.59627e-05 0)
(0.0645158 -3.19148e-05 0)
(0.0645411 -1.54367e-05 0)
(0.0645534 -5.39962e-06 0)
(0.0645578 -1.10105e-07 0)
(0.0645582 2.12186e-06 0)
(0.0645568 2.60372e-06 0)
(0.0645551 2.19811e-06 0)
(0.0645537 1.41228e-06 0)
(0.064553 5.12769e-07 0)
(0.0645532 -3.71803e-07 0)
(0.0645543 -1.1679e-06 0)
(0.0645562 -1.81597e-06 0)
(0.0645586 -2.26807e-06 0)
(0.0645615 -2.50295e-06 0)
(0.0645645 -2.53753e-06 0)
(0.0645675 -2.41715e-06 0)
(0.0645702 -2.18408e-06 0)
(0.0645726 -1.84473e-06 0)
(0.0645746 -1.359e-06 0)
(0.0645757 -6.6211e-07 0)
(0.0645759 2.89917e-07 0)
(0.0645748 1.47395e-06 0)
(0.0645722 2.77185e-06 0)
(0.0645682 3.98356e-06 0)
(0.0645628 4.87343e-06 0)
(0.0645568 5.23702e-06 0)
(0.0645507 4.96476e-06 0)
(0.0645453 4.07844e-06 0)
(0.0645412 2.72655e-06 0)
(0.0645389 1.14029e-06 0)
(0.0645384 -4.32062e-07 0)
(0.0645396 -1.78756e-06 0)
(0.0645423 -2.80547e-06 0)
(0.0645459 -3.44977e-06 0)
(0.0645501 -3.74285e-06 0)
(0.0645545 -3.72789e-06 0)
(0.0645587 -3.43984e-06 0)
(0.0645625 -2.89801e-06 0)
(0.0645654 -2.12068e-06 0)
(0.0645674 -1.15037e-06 0)
(0.0645682 -7.26709e-08 0)
(0.0645678 9.84855e-07 0)
(0.0645662 1.87747e-06 0)
(0.0645637 2.48326e-06 0)
(0.0645606 2.74135e-06 0)
(0.0645574 2.6708e-06 0)
(0.0645544 2.35975e-06 0)
(0.0645518 1.92743e-06 0)
(0.0645497 1.47364e-06 0)
(0.0645481 1.03765e-06 0)
(0.0645471 5.85701e-07 0)
(0.0645468 3.5381e-08 0)
(0.0645473 -6.91387e-07 0)
(0.0645488 -1.60922e-06 0)
(0.0645515 -2.63023e-06 0)
(0.0645553 -3.56822e-06 0)
(0.06456 -4.18789e-06 0)
(0.064565 -4.28303e-06 0)
(0.0645698 -3.75368e-06 0)
(0.0645735 -2.6511e-06 0)
(0.0645757 -1.17143e-06 0)
(0.0645762 4.0009e-07 0)
(0.0645749 1.77319e-06 0)
(0.0645722 2.73304e-06 0)
(0.0645687 3.18935e-06 0)
(0.0645648 3.17981e-06 0)
(0.0645611 2.83225e-06 0)
(0.0645579 2.30514e-06 0)
(0.0645553 1.73108e-06 0)
(0.0645533 1.18424e-06 0)
(0.064552 6.81363e-07 0)
(0.0645512 2.11618e-07 0)
(0.064551 -2.23444e-07 0)
(0.0645513 -5.83862e-07 0)
(0.0645521 -7.94399e-07 0)
(0.064553 -7.73561e-07 0)
(0.064554 -4.73732e-07 0)
(0.0645547 7.50324e-08 0)
(0.0645551 7.08869e-07 0)
(0.0645552 1.04292e-06 0)
(0.0645559 3.47456e-07 0)
(0.0645588 -2.55699e-06 0)
(0.0645668 -9.312e-06 0)
(0.0645844 -2.1695e-05 0)
(0.0646174 -4.12354e-05 0)
(0.0646727 -6.85223e-05 0)
(0.0647565 -0.000102504 0)
(0.0648727 -0.000140295 0)
(0.0650203 -0.000177658 0)
(0.0651964 -0.000210448 0)
(0.0654019 -0.000241774 0)
(0.0655985 -0.000286668 0)
(0.0904625 -0.000463104 0)
(0.0905271 -0.000431817 0)
(0.090615 -0.000410828 0)
(0.0907043 -0.000370475 0)
(0.0907853 -0.000310445 0)
(0.0908533 -0.000241501 0)
(0.0909058 -0.000173717 0)
(0.0909435 -0.000114639 0)
(0.0909684 -6.85022e-05 0)
(0.0909835 -3.60118e-05 0)
(0.0909917 -1.5405e-05 0)
(0.0909956 -3.79682e-06 0)
(0.0909968 1.73052e-06 0)
(0.0909967 3.56539e-06 0)
(0.0909962 3.37051e-06 0)
(0.0909958 2.16508e-06 0)
(0.0909959 5.18757e-07 0)
(0.0909966 -1.25019e-06 0)
(0.090998 -2.92831e-06 0)
(0.0910002 -4.343e-06 0)
(0.091003 -5.36322e-06 0)
(0.0910062 -5.92464e-06 0)
(0.0910095 -6.04268e-06 0)
(0.0910129 -5.78983e-06 0)
(0.0910161 -5.23686e-06 0)
(0.0910189 -4.38952e-06 0)
(0.0910211 -3.16613e-06 0)
(0.0910225 -1.4411e-06 0)
(0.0910227 8.60485e-07 0)
(0.0910214 3.663e-06 0)
(0.0910184 6.68842e-06 0)
(0.0910138 9.48159e-06 0)
(0.0910078 1.15138e-05 0)
(0.0910009 1.233e-05 0)
(0.090994 1.1688e-05 0)
(0.0909878 9.63809e-06 0)
(0.0909831 6.51329e-06 0)
(0.0909804 2.83457e-06 0)
(0.0909797 -8.33003e-07 0)
(0.0909811 -4.01912e-06 0)
(0.0909839 -6.4343e-06 0)
(0.0909879 -7.98073e-06 0)
(0.0909925 -8.6988e-06 0)
(0.0909973 -8.68591e-06 0)
(0.0910019 -8.03042e-06 0)
(0.091006 -6.79007e-06 0)
(0.0910093 -5.0178e-06 0)
(0.0910115 -2.81241e-06 0)
(0.0910126 -3.5936e-07 0)
(0.0910123 2.0682e-06 0)
(0.0910107 4.1574e-06 0)
(0.0910081 5.63687e-06 0)
(0.0910048 6.35717e-06 0)
(0.0910013 6.33352e-06 0)
(0.0909977 5.72829e-06 0)
(0.0909946 4.77677e-06 0)
(0.090992 3.68565e-06 0)
(0.0909901 2.54855e-06 0)
(0.090989 1.31867e-06 0)
(0.0909887 -1.44095e-07 0)
(0.0909894 -1.96793e-06 0)
(0.0909914 -4.14865e-06 0)
(0.0909947 -6.47553e-06 0)
(0.0909992 -8.54096e-06 0)
(0.0910045 -9.84394e-06 0)
(0.0910102 -9.95337e-06 0)
(0.0910155 -8.66881e-06 0)
(0.0910197 -6.11372e-06 0)
(0.0910221 -2.72142e-06 0)
(0.0910226 8.83235e-07 0)
(0.0910211 4.06248e-06 0)
(0.0910181 6.33885e-06 0)
(0.091014 7.50241e-06 0)
(0.0910096 7.62058e-06 0)
(0.0910052 6.95826e-06 0)
(0.0910012 5.84978e-06 0)
(0.0909979 4.57885e-06 0)
(0.0909952 3.31218e-06 0)
(0.0909932 2.10318e-06 0)
(0.0909919 9.49116e-07 0)
(0.0909913 -1.36501e-07 0)
(0.0909913 -1.07698e-06 0)
(0.0909919 -1.73528e-06 0)
(0.090993 -1.96409e-06 0)
(0.0909944 -1.68673e-06 0)
(0.0909959 -9.98443e-07 0)
(0.0909974 -2.90571e-07 0)
(0.0909991 -4.02304e-07 0)
(0.0910013 -2.80091e-06 0)
(0.0910049 -9.71385e-06 0)
(0.0910116 -2.40211e-05 0)
(0.0910236 -4.8848e-05 0)
(0.0910436 -8.66653e-05 0)
(0.0910744 -0.00013805 0)
(0.0911185 -0.000200465 0)
(0.0911767 -0.000267786 0)
(0.0912473 -0.000330597 0)
(0.0913263 -0.000377076 0)
(0.0914047 -0.000403035 0)
(0.0914622 -0.000433075 0)
(0.108186 -0.000426037 0)
(0.10804 -0.000412912 0)
(0.107902 -0.000404846 0)
(0.107789 -0.000370874 0)
(0.107692 -0.000313541 0)
(0.107612 -0.00024559 0)
(0.107552 -0.00017792 0)
(0.10751 -0.000118534 0)
(0.107484 -7.1831e-05 0)
(0.10747 -3.86356e-05 0)
(0.107463 -1.7284e-05 0)
(0.10746 -4.99948e-06 0)
(0.10746 1.06069e-06 0)
(0.107461 3.22806e-06 0)
(0.107461 3.13018e-06 0)
(0.107462 1.77968e-06 0)
(0.107463 -2.23246e-07 0)
(0.107464 -2.50132e-06 0)
(0.107466 -4.76396e-06 0)
(0.107467 -6.74744e-06 0)
(0.107469 -8.23092e-06 0)
(0.107472 -9.08639e-06 0)
(0.107474 -9.30567e-06 0)
(0.107477 -8.96772e-06 0)
(0.107479 -8.15263e-06 0)
(0.107481 -6.85222e-06 0)
(0.107483 -4.94085e-06 0)
(0.107484 -2.2394e-06 0)
(0.107484 1.34891e-06 0)
(0.107484 5.69503e-06 0)
(0.107481 1.03677e-05 0)
(0.107478 1.46717e-05 0)
(0.107473 1.78016e-05 0)
(0.107468 1.90642e-05 0)
(0.107463 1.80893e-05 0)
(0.107458 1.49522e-05 0)
(0.107454 1.01606e-05 0)
(0.107452 4.51264e-06 0)
(0.107452 -1.12198e-06 0)
(0.107452 -6.01504e-06 0)
(0.107455 -9.71537e-06 0)
(0.107457 -1.20707e-05 0)
(0.107461 -1.31497e-05 0)
(0.107464 -1.31178e-05 0)
(0.107467 -1.2131e-05 0)
(0.10747 -1.02934e-05 0)
(0.107473 -7.6873e-06 0)
(0.107474 -4.44593e-06 0)
(0.107475 -8.18179e-07 0)
(0.107475 2.81925e-06 0)
(0.107474 6.02033e-06 0)
(0.107473 8.3802e-06 0)
(0.10747 9.65119e-06 0)
(0.107468 9.81129e-06 0)
(0.107465 9.05049e-06 0)
(0.107462 7.67592e-06 0)
(0.10746 5.97464e-06 0)
(0.107458 4.09507e-06 0)
(0.107457 2.00423e-06 0)
(0.107457 -4.52691e-07 0)
(0.107458 -3.41033e-06 0)
(0.10746 -6.82134e-06 0)
(0.107463 -1.03532e-05 0)
(0.107466 -1.34046e-05 0)
(0.107471 -1.52533e-05 0)
(0.107475 -1.52876e-05 0)
(0.107479 -1.32347e-05 0)
(0.107482 -9.29247e-06 0)
(0.107484 -4.10786e-06 0)
(0.107484 1.39473e-06 0)
(0.107483 6.27233e-06 0)
(0.10748 9.81519e-06 0)
(0.107477 1.1704e-05 0)
(0.107474 1.20268e-05 0)
(0.10747 1.11638e-05 0)
(0.107467 9.60107e-06 0)
(0.107464 7.7523e-06 0)
(0.107461 5.86043e-06 0)
(0.107459 4.00368e-06 0)
(0.107458 2.17947e-06 0)
(0.107457 4.06008e-07 0)
(0.107456 -1.2156e-06 0)
(0.107456 -2.50647e-06 0)
(0.107457 -3.27251e-06 0)
(0.107459 -3.40117e-06 0)
(0.107461 -2.98045e-06 0)
(0.107463 -2.44103e-06 0)
(0.107465 -2.7141e-06 0)
(0.107467 -5.37694e-06 0)
(0.107467 -1.27289e-05 0)
(0.107465 -2.76704e-05 0)
(0.107457 -5.32293e-05 0)
(0.10744 -9.16493e-05 0)
(0.107411 -0.000143159 0)
(0.107364 -0.000204803 0)
(0.107297 -0.000269962 0)
(0.107209 -0.000328529 0)
(0.107103 -0.000367361 0)
(0.106967 -0.000379804 0)
(0.106815 -0.000390994 0)
(0.11703 -0.000186663 0)
(0.116734 -0.000181973 0)
(0.116427 -0.000177903 0)
(0.116159 -0.000161512 0)
(0.115922 -0.000134792 0)
(0.115725 -0.000103946 0)
(0.115575 -7.39362e-05 0)
(0.115469 -4.81751e-05 0)
(0.115402 -2.83154e-05 0)
(0.115362 -1.44639e-05 0)
(0.115342 -5.70559e-06 0)
(0.115333 -7.5675e-07 0)
(0.115331 1.57961e-06 0)
(0.115332 2.20723e-06 0)
(0.115333 1.70301e-06 0)
(0.115335 4.06174e-07 0)
(0.115336 -1.45631e-06 0)
(0.115337 -3.67164e-06 0)
(0.115338 -5.98789e-06 0)
(0.115339 -8.11301e-06 0)
(0.115339 -9.7701e-06 0)
(0.11534 -1.07763e-05 0)
(0.115341 -1.10863e-05 0)
(0.115342 -1.07593e-05 0)
(0.115342 -9.86103e-06 0)
(0.115343 -8.36055e-06 0)
(0.115344 -6.09679e-06 0)
(0.115345 -2.85327e-06 0)
(0.115345 1.48265e-06 0)
(0.115345 6.75045e-06 0)
(0.115344 1.24252e-05 0)
(0.115343 1.76626e-05 0)
(0.115341 2.14846e-05 0)
(0.115339 2.30471e-05 0)
(0.115337 2.18973e-05 0)
(0.115335 1.81238e-05 0)
(0.115334 1.23443e-05 0)
(0.115333 5.53259e-06 0)
(0.115333 -1.24712e-06 0)
(0.115333 -7.10414e-06 0)
(0.115334 -1.14911e-05 0)
(0.115335 -1.42354e-05 0)
(0.115336 -1.54453e-05 0)
(0.115337 -1.53551e-05 0)
(0.115337 -1.4185e-05 0)
(0.115338 -1.20776e-05 0)
(0.115339 -9.12369e-06 0)
(0.115339 -5.44757e-06 0)
(0.11534 -1.29342e-06 0)
(0.11534 2.94399e-06 0)
(0.11534 6.77017e-06 0)
(0.11534 9.70845e-06 0)
(0.115339 1.14338e-05 0)
(0.115338 1.18622e-05 0)
(0.115337 1.11512e-05 0)
(0.115336 9.60855e-06 0)
(0.115335 7.54656e-06 0)
(0.115334 5.14994e-06 0)
(0.115334 2.42148e-06 0)
(0.115334 -7.60939e-07 0)
(0.115334 -4.49488e-06 0)
(0.115335 -8.67908e-06 0)
(0.115336 -1.29015e-05 0)
(0.115338 -1.64596e-05 0)
(0.11534 -1.85276e-05 0)
(0.115341 -1.84178e-05 0)
(0.115343 -1.58385e-05 0)
(0.115344 -1.10415e-05 0)
(0.115344 -4.79463e-06 0)
(0.115344 1.81668e-06 0)
(0.115344 7.68909e-06 0)
(0.115343 1.19921e-05 0)
(0.115341 1.43501e-05 0)
(0.11534 1.48616e-05 0)
(0.115338 1.39671e-05 0)
(0.115337 1.2231e-05 0)
(0.115335 1.01328e-05 0)
(0.115334 7.9478e-06 0)
(0.115332 5.75265e-06 0)
(0.115331 3.52606e-06 0)
(0.11533 1.27105e-06 0)
(0.115329 -9.1148e-07 0)
(0.115329 -2.82749e-06 0)
(0.115329 -4.25412e-06 0)
(0.11533 -5.0247e-06 0)
(0.115332 -5.11375e-06 0)
(0.115334 -4.72503e-06 0)
(0.115336 -4.3716e-06 0)
(0.115336 -4.9124e-06 0)
(0.115333 -7.52659e-06 0)
(0.115322 -1.3597e-05 0)
(0.115296 -2.44444e-05 0)
(0.115249 -4.08855e-05 0)
(0.11517 -6.27284e-05 0)
(0.11505 -8.83607e-05 0)
(0.114883 -0.000114675 0)
(0.114672 -0.000137259 0)
(0.114425 -0.000150631 0)
(0.11413 -0.000152236 0)
(0.113829 -0.000153365 0)
(0.117041 0.000138131 0)
(0.11674 0.00013928 0)
(0.11643 0.000144501 0)
(0.116161 0.000139495 0)
(0.115922 0.000123939 0)
(0.115724 0.000102049 0)
(0.115574 7.79757e-05 0)
(0.115469 5.52078e-05 0)
(0.115402 3.61199e-05 0)
(0.115363 2.17408e-05 0)
(0.115343 1.1973e-05 0)
(0.115335 5.99137e-06 0)
(0.115334 2.67204e-06 0)
(0.115335 9.14241e-07 0)
(0.115336 -1.79609e-07 0)
(0.115338 -1.2307e-06 0)
(0.115339 -2.56593e-06 0)
(0.11534 -4.25072e-06 0)
(0.115339 -6.14806e-06 0)
(0.115339 -7.99701e-06 0)
(0.115338 -9.51277e-06 0)
(0.115337 -1.04874e-05 0)
(0.115335 -1.08445e-05 0)
(0.115334 -1.06122e-05 0)
(0.115333 -9.82912e-06 0)
(0.115332 -8.44239e-06 0)
(0.115332 -6.27416e-06 0)
(0.115332 -3.09532e-06 0)
(0.115332 1.21515e-06 0)
(0.115333 6.49913e-06 0)
(0.115334 1.2226e-05 0)
(0.115335 1.75377e-05 0)
(0.115337 2.14359e-05 0)
(0.115339 2.30568e-05 0)
(0.115341 2.19341e-05 0)
(0.115343 1.81563e-05 0)
(0.115344 1.23545e-05 0)
(0.115345 5.52688e-06 0)
(0.115345 -1.23635e-06 0)
(0.115345 -7.02678e-06 0)
(0.115344 -1.12968e-05 0)
(0.115342 -1.38946e-05 0)
(0.115341 -1.49671e-05 0)
(0.115339 -1.47941e-05 0)
(0.115337 -1.36336e-05 0)
(0.115336 -1.16438e-05 0)
(0.115334 -8.90015e-06 0)
(0.115334 -5.48224e-06 0)
(0.115333 -1.57124e-06 0)
(0.115334 2.50048e-06 0)
(0.115335 6.2808e-06 0)
(0.115336 9.30139e-06 0)
(0.115337 1.12085e-05 0)
(0.115338 1.18606e-05 0)
(0.115339 1.13474e-05 0)
(0.11534 9.91937e-06 0)
(0.11534 7.85909e-06 0)
(0.115341 5.35717e-06 0)
(0.115341 2.45391e-06 0)
(0.115341 -9.17414e-07 0)
(0.115341 -4.79947e-06 0)
(0.115341 -9.05292e-06 0)
(0.11534 -1.32543e-05 0)
(0.115339 -1.67164e-05 0)
(0.115337 -1.86473e-05 0)
(0.115336 -1.83986e-05 0)
(0.115334 -1.57105e-05 0)
(0.115333 -1.08501e-05 0)
(0.115332 -4.58254e-06 0)
(0.115332 2.02354e-06 0)
(0.115332 7.88758e-06 0)
(0.115333 1.22e-05 0)
(0.115334 1.45984e-05 0)
(0.115335 1.51847e-05 0)
(0.115336 1.43939e-05 0)
(0.115337 1.27795e-05 0)
(0.115337 1.08063e-05 0)
(0.115337 8.73129e-06 0)
(0.115337 6.6072e-06 0)
(0.115337 4.38327e-06 0)
(0.115336 2.03162e-06 0)
(0.115336 -3.73246e-07 0)
(0.115336 -2.65254e-06 0)
(0.115335 -4.57805e-06 0)
(0.115335 -5.93337e-06 0)
(0.115336 -6.54279e-06 0)
(0.115337 -6.26356e-06 0)
(0.115338 -4.94297e-06 0)
(0.115338 -2.32047e-06 0)
(0.115334 2.1003e-06 0)
(0.115322 9.12944e-06 0)
(0.115296 1.98419e-05 0)
(0.115248 3.53169e-05 0)
(0.115168 5.61112e-05 0)
(0.115048 8.16256e-05 0)
(0.114881 0.000109567 0)
(0.11467 0.000135776 0)
(0.114422 0.000154095 0)
(0.114128 0.000160532 0)
(0.113827 0.000164778 0)
(0.108214 0.000383677 0)
(0.108059 0.000376156 0)
(0.107911 0.000376507 0)
(0.107793 0.000352486 0)
(0.107692 0.000304681 0)
(0.10761 0.000244262 0)
(0.10755 0.00018151 0)
(0.10751 0.000124552 0)
(0.107486 7.84072e-05 0)
(0.107473 4.47109e-05 0)
(0.107467 2.24934e-05 0)
(0.107466 9.35231e-06 0)
(0.107467 2.49122e-06 0)
(0.107468 -5.84329e-07 0)
(0.10747 -1.77664e-06 0)
(0.107471 -2.3405e-06 0)
(0.107471 -2.96672e-06 0)
(0.10747 -3.9143e-06 0)
(0.107469 -5.14671e-06 0)
(0.107468 -6.46035e-06 0)
(0.107465 -7.60543e-06 0)
(0.107463 -8.38799e-06 0)
(0.10746 -8.72305e-06 0)
(0.107457 -8.6151e-06 0)
(0.107455 -8.07887e-06 0)
(0.107453 -7.05332e-06 0)
(0.107451 -5.37222e-06 0)
(0.10745 -2.82616e-06 0)
(0.10745 7.01514e-07 0)
(0.107451 5.08739e-06 0)
(0.107454 9.88659e-06 0)
(0.107457 1.43697e-05 0)
(0.107462 1.76832e-05 0)
(0.107467 1.90852e-05 0)
(0.107473 1.81738e-05 0)
(0.107477 1.50231e-05 0)
(0.107481 1.01745e-05 0)
(0.107483 4.48504e-06 0)
(0.107484 -1.1116e-06 0)
(0.107483 -5.84407e-06 0)
(0.107481 -9.26044e-06 0)
(0.107478 -1.12591e-05 0)
(0.107474 -1.20026e-05 0)
(0.10747 -1.17673e-05 0)
(0.107466 -1.08014e-05 0)
(0.107463 -9.24707e-06 0)
(0.107461 -7.1497e-06 0)
(0.107459 -4.53357e-06 0)
(0.107458 -1.4946e-06 0)
(0.107458 1.74227e-06 0)
(0.10746 4.83382e-06 0)
(0.107462 7.39537e-06 0)
(0.107464 9.10896e-06 0)
(0.107467 9.81313e-06 0)
(0.10747 9.53283e-06 0)
(0.107472 8.4359e-06 0)
(0.107474 6.73777e-06 0)
(0.107475 4.60166e-06 0)
(0.107476 2.08617e-06 0)
(0.107476 -8.28629e-07 0)
(0.107476 -4.14392e-06 0)
(0.107474 -7.72043e-06 0)
(0.107472 -1.11985e-05 0)
(0.107469 -1.40148e-05 0)
(0.107464 -1.55299e-05 0)
(0.10746 -1.52279e-05 0)
(0.107456 -1.29131e-05 0)
(0.107453 -8.82062e-06 0)
(0.107451 -3.59012e-06 0)
(0.10745 1.89527e-06 0)
(0.107451 6.74827e-06 0)
(0.107454 1.03096e-05 0)
(0.107457 1.22919e-05 0)
(0.10746 1.27916e-05 0)
(0.107463 1.2177e-05 0)
(0.107466 1.09079e-05 0)
(0.107469 9.36196e-06 0)
(0.107471 7.73641e-06 0)
(0.107473 6.05101e-06 0)
(0.107473 4.23381e-06 0)
(0.107474 2.23017e-06 0)
(0.107474 7.50577e-08 0)
(0.107473 -2.09835e-06 0)
(0.107472 -4.09676e-06 0)
(0.107472 -5.70428e-06 0)
(0.107471 -6.66842e-06 0)
(0.10747 -6.6174e-06 0)
(0.10747 -4.91985e-06 0)
(0.10747 -4.92346e-07 0)
(0.107469 8.39257e-06 0)
(0.107465 2.41339e-05 0)
(0.107456 4.95524e-05 0)
(0.107438 8.71187e-05 0)
(0.107407 0.000137704 0)
(0.107359 0.0001992 0)
(0.10729 0.000265698 0)
(0.107202 0.000327352 0)
(0.107096 0.000370431 0)
(0.106961 0.000387066 0)
(0.106811 0.000401111 0)
(0.0905002 0.000432167 0)
(0.0905514 0.000405818 0)
(0.090627 0.000391551 0)
(0.0907081 0.000358437 0)
(0.0907843 0.000304965 0)
(0.0908503 0.000241058 0)
(0.0909033 0.000176428 0)
(0.0909426 0.000118832 0)
(0.0909698 7.29451e-05 0)
(0.0909872 4.00371e-05 0)
(0.0909975 1.88102e-05 0)
(0.091003 6.63648e-06 0)
(0.0910056 6.08639e-07 0)
(0.0910067 -1.77506e-06 0)
(0.0910069 -2.36961e-06 0)
(0.0910066 -2.35967e-06 0)
(0.0910059 -2.38622e-06 0)
(0.0910048 -2.69858e-06 0)
(0.0910031 -3.29129e-06 0)
(0.0910009 -4.02099e-06 0)
(0.0909983 -4.70581e-06 0)
(0.0909952 -5.20274e-06 0)
(0.090992 -5.44606e-06 0)
(0.0909887 -5.43321e-06 0)
(0.0909856 -5.16878e-06 0)
(0.0909828 -4.60386e-06 0)
(0.0909805 -3.61499e-06 0)
(0.090979 -2.04664e-06 0)
(0.0909787 1.94885e-07 0)
(0.0909798 3.03948e-06 0)
(0.0909827 6.19471e-06 0)
(0.0909872 9.17082e-06 0)
(0.0909932 1.13895e-05 0)
(0.0910001 1.23454e-05 0)
(0.0910071 1.17635e-05 0)
(0.0910133 9.69314e-06 0)
(0.091018 6.50269e-06 0)
(0.0910207 2.77493e-06 0)
(0.0910214 -8.58086e-07 0)
(0.0910201 -3.88065e-06 0)
(0.0910173 -6.00204e-06 0)
(0.0910134 -7.17696e-06 0)
(0.0910091 -7.54332e-06 0)
(0.0910046 -7.31429e-06 0)
(0.0910003 -6.67447e-06 0)
(0.0909964 -5.72174e-06 0)
(0.0909933 -4.47125e-06 0)
(0.0909911 -2.90904e-06 0)
(0.09099 -1.06189e-06 0)
(0.0909901 9.54459e-07 0)
(0.0909914 2.93367e-06 0)
(0.0909938 4.62498e-06 0)
(0.0909969 5.80571e-06 0)
(0.0910004 6.34623e-06 0)
(0.091004 6.2379e-06 0)
(0.0910073 5.57216e-06 0)
(0.09101 4.48234e-06 0)
(0.0910121 3.07849e-06 0)
(0.0910133 1.40957e-06 0)
(0.0910135 -5.24384e-07 0)
(0.0910126 -2.71292e-06 0)
(0.0910105 -5.05817e-06 0)
(0.091007 -7.32279e-06 0)
(0.0910024 -9.14007e-06 0)
(0.0909969 -1.00961e-05 0)
(0.0909912 -9.8596e-06 0)
(0.0909859 -8.30984e-06 0)
(0.0909818 -5.60798e-06 0)
(0.0909794 -2.17848e-06 0)
(0.0909791 1.39782e-06 0)
(0.0909806 4.54143e-06 0)
(0.0909838 6.82678e-06 0)
(0.0909879 8.07632e-06 0)
(0.0909926 8.36688e-06 0)
(0.0909972 7.95306e-06 0)
(0.0910014 7.14373e-06 0)
(0.0910051 6.18452e-06 0)
(0.0910081 5.19227e-06 0)
(0.0910106 4.16011e-06 0)
(0.0910124 3.01775e-06 0)
(0.0910135 1.70705e-06 0)
(0.0910139 2.31706e-07 0)
(0.0910134 -1.33603e-06 0)
(0.0910123 -2.87745e-06 0)
(0.0910107 -4.24611e-06 0)
(0.0910087 -5.24272e-06 0)
(0.0910068 -5.5211e-06 0)
(0.0910053 -4.43199e-06 0)
(0.0910049 -8.29241e-07 0)
(0.0910067 7.11801e-06 0)
(0.0910119 2.19408e-05 0)
(0.0910225 4.66385e-05 0)
(0.0910409 8.38362e-05 0)
(0.0910699 0.000134532 0)
(0.091112 0.000196762 0)
(0.0911683 0.000264956 0)
(0.0912378 0.000329853 0)
(0.0913169 0.000379316 0)
(0.0913974 0.000408361 0)
(0.0914578 0.000440612 0)
(0.0634052 0.000288208 0)
(0.0635975 0.000245475 0)
(0.0638071 0.000219756 0)
(0.0639941 0.000193562 0)
(0.0641578 0.000160833 0)
(0.0642934 0.000124501 0)
(0.0643969 8.89477e-05 0)
(0.0644696 5.80078e-05 0)
(0.0645165 3.39556e-05 0)
(0.0645439 1.722e-05 0)
(0.064558 6.8626e-06 0)
(0.064564 1.29839e-06 0)
(0.0645656 -1.11932e-06 0)
(0.0645653 -1.79078e-06 0)
(0.0645642 -1.6789e-06 0)
(0.0645631 -1.36741e-06 0)
(0.0645619 -1.15397e-06 0)
(0.0645607 -1.14156e-06 0)
(0.0645592 -1.31225e-06 0)
(0.0645574 -1.58501e-06 0)
(0.0645552 -1.86401e-06 0)
(0.0645527 -2.07681e-06 0)
(0.06455 -2.19276e-06 0)
(0.0645473 -2.21439e-06 0)
(0.0645446 -2.14736e-06 0)
(0.0645421 -1.9687e-06 0)
(0.0645401 -1.61565e-06 0)
(0.0645386 -1.00636e-06 0)
(0.0645381 -8.59089e-08 0)
(0.0645389 1.12398e-06 0)
(0.0645412 2.49708e-06 0)
(0.0645451 3.81241e-06 0)
(0.0645503 4.80533e-06 0)
(0.0645563 5.24297e-06 0)
(0.0645624 4.99782e-06 0)
(0.0645679 4.09199e-06 0)
(0.064572 2.69466e-06 0)
(0.0645743 1.073e-06 0)
(0.0645748 -4.85536e-07 0)
(0.0645736 -1.75102e-06 0)
(0.064571 -2.60138e-06 0)
(0.0645677 -3.03068e-06 0)
(0.0645639 -3.11776e-06 0)
(0.0645602 -2.97303e-06 0)
(0.0645567 -2.68754e-06 0)
(0.0645536 -2.30436e-06 0)
(0.064551 -1.82052e-06 0)
(0.0645492 -1.21385e-06 0)
(0.0645482 -4.78756e-07 0)
(0.0645481 3.4769e-07 0)
(0.0645491 1.18191e-06 0)
(0.064551 1.91344e-06 0)
(0.0645537 2.4388e-06 0)
(0.0645567 2.69343e-06 0)
(0.0645599 2.66715e-06 0)
(0.0645629 2.39691e-06 0)
(0.0645654 1.94125e-06 0)
(0.0645673 1.35001e-06 0)
(0.0645684 6.45637e-07 0)
(0.0645687 -1.73023e-07 0)
(0.0645679 -1.10492e-06 0)
(0.0645659 -2.11098e-06 0)
(0.0645628 -3.08982e-06 0)
(0.0645587 -3.88068e-06 0)
(0.0645538 -4.29966e-06 0)
(0.0645488 -4.19837e-06 0)
(0.0645441 -3.52241e-06 0)
(0.0645406 -2.34419e-06 0)
(0.0645386 -8.54224e-07 0)
(0.0645384 6.88094e-07 0)
(0.0645399 2.02676e-06 0)
(0.0645428 2.97758e-06 0)
(0.0645466 3.46977e-06 0)
(0.0645508 3.5476e-06 0)
(0.0645549 3.33418e-06 0)
(0.0645586 2.97362e-06 0)
(0.064562 2.57568e-06 0)
(0.0645648 2.18519e-06 0)
(0.0645672 1.78591e-06 0)
(0.064569 1.33218e-06 0)
(0.0645702 7.87506e-07 0)
(0.0645707 1.46148e-07 0)
(0.0645704 -5.69721e-07 0)
(0.0645694 -1.323e-06 0)
(0.0645676 -2.06503e-06 0)
(0.0645652 -2.72028e-06 0)
(0.0645625 -3.13759e-06 0)
(0.06456 -3.00652e-06 0)
(0.0645586 -1.74759e-06 0)
(0.06456 1.62227e-06 0)
(0.0645669 8.60436e-06 0)
(0.0645834 2.09025e-05 0)
(0.0646152 4.0112e-05 0)
(0.0646689 6.70236e-05 0)
(0.0647508 0.000100849 0)
(0.0648653 0.000139011 0)
(0.0650119 0.000177314 0)
(0.0651883 0.000211579 0)
(0.065396 0.00024458 0)
(0.0655959 0.000290893 0)
(0.0255233 8.82761e-05 0)
(0.0256853 6.4599e-05 0)
(0.0258281 5.08085e-05 0)
(0.0259393 4.17552e-05 0)
(0.0260315 3.32574e-05 0)
(0.0261057 2.47436e-05 0)
(0.0261603 1.68007e-05 0)
(0.0261969 1.01501e-05 0)
(0.0262189 5.21065e-06 0)
(0.0262303 1.98537e-06 0)
(0.0262351 1.78752e-07 0)
(0.0262361 -6.22266e-07 0)
(0.0262354 -8.02532e-07 0)
(0.0262342 -7.02728e-07 0)
(0.026233 -5.13937e-07 0)
(0.0262322 -3.40933e-07 0)
(0.0262315 -2.30323e-07 0)
(0.0262309 -1.90459e-07 0)
(0.0262304 -2.06805e-07 0)
(0.0262296 -2.53819e-07 0)
(0.0262288 -3.06001e-07 0)
(0.0262277 -3.46625e-07 0)
(0.0262267 -3.70992e-07 0)
(0.0262255 -3.82658e-07 0)
(0.0262244 -3.84901e-07 0)
(0.0262233 -3.72673e-07 0)
(0.0262223 -3.30222e-07 0)
(0.0262216 -2.36367e-07 0)
(0.0262212 -7.54101e-08 0)
(0.0262214 1.511e-07 0)
(0.0262223 4.19273e-07 0)
(0.026224 6.83299e-07 0)
(0.0262263 8.8705e-07 0)
(0.026229 9.80518e-07 0)
(0.0262317 9.35896e-07 0)
(0.0262342 7.57413e-07 0)
(0.026236 4.80929e-07 0)
(0.026237 1.63185e-07 0)
(0.0262371 -1.35371e-07 0)
(0.0262364 -3.67763e-07 0)
(0.0262352 -5.11415e-07 0)
(0.0262337 -5.69536e-07 0)
(0.026232 -5.63523e-07 0)
(0.0262304 -5.20477e-07 0)
(0.026229 -4.6138e-07 0)
(0.0262277 -3.94558e-07 0)
(0.0262266 -3.16341e-07 0)
(0.0262258 -2.1761e-07 0)
(0.0262253 -9.25269e-08 0)
(0.0262253 5.4878e-08 0)
(0.0262257 2.09372e-07 0)
(0.0262265 3.48489e-07 0)
(0.0262277 4.50285e-07 0)
(0.026229 5.00722e-07 0)
(0.0262305 4.97485e-07 0)
(0.0262318 4.4859e-07 0)
(0.026233 3.66692e-07 0)
(0.0262339 2.6213e-07 0)
(0.0262344 1.38465e-07 0)
(0.0262346 -6.8664e-09 0)
(0.0262343 -1.76992e-07 0)
(0.0262334 -3.66779e-07 0)
(0.0262321 -5.57349e-07 0)
(0.0262303 -7.16097e-07 0)
(0.0262281 -8.04303e-07 0)
(0.0262258 -7.89979e-07 0)
(0.0262237 -6.60783e-07 0)
(0.0262221 -4.31262e-07 0)
(0.0262213 -1.40877e-07 0)
(0.0262212 1.56774e-07 0)
(0.026222 4.09527e-07 0)
(0.0262233 5.80627e-07 0)
(0.0262251 6.57416e-07 0)
(0.0262269 6.51814e-07 0)
(0.0262288 5.92909e-07 0)
(0.0262304 5.14059e-07 0)
(0.0262318 4.39466e-07 0)
(0.026233 3.76348e-07 0)
(0.026234 3.166e-07 0)
(0.0262348 2.46155e-07 0)
(0.0262354 1.54597e-07 0)
(0.0262357 3.78571e-08 0)
(0.0262355 -1.04364e-07 0)
(0.026235 -2.6958e-07 0)
(0.0262341 -4.51838e-07 0)
(0.0262328 -6.46545e-07 0)
(0.0262311 -8.43967e-07 0)
(0.0262292 -9.99757e-07 0)
(0.0262274 -1.00646e-06 0)
(0.0262265 -6.6464e-07 0)
(0.0262278 4.21066e-07 0)
(0.0262337 2.6471e-06 0)
(0.0262475 6.44655e-06 0)
(0.0262733 1.21033e-05 0)
(0.0263153 1.95542e-05 0)
(0.0263767 2.83915e-05 0)
(0.0264584 3.81151e-05 0)
(0.0265626 4.8905e-05 0)
(0.0267029 6.42307e-05 0)
(0.0268669 8.88861e-05 0)
)
;

boundaryField
{
    inlet
    {
        type            zeroGradient;
    }
    outlet
    {
        type            zeroGradient;
    }
    walls
    {
        type            noSlip;
    }
    frontAndBack
    {
        type            empty;
    }
}


// ************************************************************************* //
