/*--------------------------------*- C++ -*----------------------------------*\
| =========                 |                                                 |
| \\      /  F ield         | OpenFOAM: The Open Source CFD Toolbox           |
|  \\    /   O peration     | Version:  2406                                  |
|   \\  /    A nd           | Website:  www.openfoam.com                      |
|    \\/     M anipulation  |                                                 |
\*---------------------------------------------------------------------------*/
FoamFile
{
    version     2.0;
    format      ascii;
    arch        "LSB;label=32;scalar=64";
    class       volScalarField;
    location    "0.25";
    object      p;
}
// * * * * * * * * * * * * * * * * * * * * * * * * * * * * * * * * * * * * * //

dimensions      [1 -1 -2 0 0 0 0];

internalField   nonuniform List<scalar> 
6250
(
-79.7274
-3224.33
-963.086
598.087
525.858
52.6245
-101.523
-20.8887
54.4941
59.222
38.5697
29.0869
31.3667
34.8574
35.3498
34.347
33.6649
33.5528
33.5692
33.4708
33.2943
33.125
32.9842
32.8545
32.7226
32.5883
32.4551
32.3244
32.1952
32.0669
31.9392
31.812
31.6855
31.5595
31.4339
31.3086
31.1836
31.0588
30.9341
30.8096
30.6851
30.5607
30.4363
30.3119
30.1875
30.0631
29.9385
29.8139
29.6892
29.5644
29.4395
29.3144
29.1892
29.0638
28.9383
28.8127
28.6869
28.5609
28.4348
28.3085
28.1821
28.0554
27.9286
27.8017
27.6745
27.5472
27.4197
27.292
27.1641
27.0361
26.9078
26.7794
26.6508
26.522
26.3931
26.2639
26.1346
26.0051
25.8754
25.7456
25.6156
25.4854
25.355
25.2244
25.0937
24.9629
24.8318
24.7006
24.5692
24.4376
24.3059
24.174
24.0419
23.9097
23.7772
23.6447
23.5119
23.3789
23.2458
23.1125
22.9791
22.8454
22.7116
22.5776
22.4434
22.309
22.1745
22.0398
21.905
21.77
21.6348
21.4994
21.3638
21.2281
21.0922
20.9561
20.8199
20.6835
20.5469
20.4101
20.2731
20.1359
19.9986
19.8611
19.7234
19.5856
19.4475
19.3093
19.1709
19.0323
18.8935
18.7546
18.6155
18.4762
18.3367
18.197
18.0572
17.9172
17.7771
17.6367
17.4962
17.3555
17.2147
17.0737
16.9325
16.7912
16.6497
16.508
16.3662
16.2242
16.0821
15.9398
15.7974
15.6548
15.512
15.3691
15.2261
15.0829
14.9395
14.796
14.6523
14.5085
14.3645
14.2204
14.0762
13.9317
13.7872
13.6424
13.4975
13.3525
13.2073
13.062
12.9165
12.7709
12.6252
12.4792
12.3332
12.187
12.0406
11.8942
11.7475
11.6007
11.4538
11.3068
11.1596
11.0122
10.8648
10.7171
10.5694
10.4215
10.2734
10.1253
9.97695
9.82849
9.67989
9.53116
9.38228
9.23327
9.08413
8.93485
8.78544
8.63589
8.48621
8.3364
8.18645
8.03638
7.88618
7.73586
7.58541
7.43484
7.28415
7.13334
6.9824
6.83135
6.68019
6.52891
6.37752
6.22601
6.0744
5.92269
5.77087
5.61896
5.46695
5.31485
5.16267
5.01042
4.85809
4.70571
4.55328
4.40081
4.24834
4.09587
3.94344
3.79109
3.63885
3.48677
3.33492
3.1834
3.0323
2.88177
2.73201
2.58326
2.43592
2.29026
2.1477
2.0065
1.87698
1.72555
1.6569
1.17911
-83.2432
-3230.96
-967.063
597.353
525.633
51.5872
-102.899
-21.9686
53.7676
58.6296
37.9941
28.5437
30.8904
34.4476
34.988
34.0202
33.3691
33.2863
33.329
33.2533
33.0964
32.9444
32.8191
32.7032
32.5836
32.4603
32.3371
32.2152
32.0942
31.9732
31.8521
31.731
31.61
31.489
31.3679
31.2469
31.1257
31.0044
30.8831
30.7616
30.64
30.5182
30.3963
30.2742
30.1518
30.0294
29.9067
29.7838
29.6606
29.5373
29.4138
29.2901
29.1661
29.042
28.9176
28.7931
28.6683
28.5433
28.4181
28.2926
28.167
28.0411
27.9151
27.7888
27.6623
27.5356
27.4087
27.2816
27.1543
27.0268
26.8991
26.7712
26.6431
26.5147
26.3862
26.2575
26.1286
25.9995
25.8702
25.7408
25.6111
25.4812
25.3512
25.2209
25.0905
24.9599
24.8291
24.6981
24.5669
24.4356
24.304
24.1724
24.0405
23.9084
23.7762
23.6438
23.5112
23.3785
23.2455
23.1124
22.9791
22.8457
22.712
22.5782
22.4442
22.31
22.1756
22.0411
21.9064
21.7715
21.6364
21.5012
21.3658
21.2301
21.0943
20.9584
20.8222
20.6858
20.5493
20.4126
20.2757
20.1386
20.0013
19.8639
19.7262
19.5884
19.4505
19.3123
19.174
19.0355
18.8968
18.7579
18.6189
18.4796
18.3402
18.2007
18.0609
17.921
17.7809
17.6406
17.5002
17.3596
17.2188
17.0778
16.9367
16.7954
16.654
16.5124
16.3706
16.2286
16.0865
15.9443
15.8019
15.6593
15.5166
15.3737
15.2307
15.0875
14.9441
14.8007
14.657
14.5132
14.3693
14.2252
14.081
13.9366
13.7921
13.6474
13.5026
13.3576
13.2124
13.0672
12.9217
12.7762
12.6304
12.4846
12.3385
12.1924
12.046
11.8996
11.753
11.6062
11.4593
11.3123
11.1651
11.0177
10.8703
10.7226
10.5749
10.427
10.2789
10.1308
9.98245
9.83401
9.68542
9.53671
9.38785
9.23887
9.08975
8.94049
8.79111
8.64159
8.49194
8.34216
8.19225
8.04221
7.89203
7.74173
7.5913
7.44074
7.29005
7.13923
6.98829
6.83723
6.68605
6.53474
6.38332
6.23178
6.08012
5.92835
5.77647
5.62448
5.47239
5.3202
5.16792
5.01554
4.86308
4.71053
4.55791
4.40522
4.25246
4.09965
3.94678
3.79387
3.64091
3.48792
3.3349
3.18183
3.02869
2.87544
2.722
2.56821
2.41381
2.25838
2.101
1.94088
1.77378
1.60511
1.40427
1.31309
-83.0748
-3230.23
-966.311
597.8
525.998
51.9895
-102.444
-21.4855
54.2476
59.086
38.4217
28.9478
31.2755
34.8131
35.332
34.3428
33.6717
33.5706
33.5962
33.5042
33.3321
33.1659
33.0275
32.8994
32.7684
32.6345
32.5014
32.3704
32.2407
32.1117
31.9831
31.8551
31.7276
31.6005
31.4738
31.3473
31.2211
31.0952
30.9693
30.8437
30.7181
30.5926
30.4672
30.3418
30.2163
30.0909
29.9654
29.8398
29.7142
29.5885
29.4627
29.3368
29.2107
29.0846
28.9584
28.832
28.7055
28.5789
28.4521
28.3252
28.1981
28.0709
27.9435
27.816
27.6883
27.5605
27.4325
27.3043
27.176
27.0475
26.9188
26.7899
26.6609
26.5318
26.4024
26.2729
26.1433
26.0134
25.8834
25.7533
25.623
25.4925
25.3618
25.231
25.1
24.9689
24.8375
24.7061
24.5744
24.4426
24.3106
24.1785
24.0462
23.9138
23.7812
23.6484
23.5154
23.3823
23.249
23.1155
22.9818
22.848
22.714
22.5799
22.4456
22.3111
22.1764
22.0416
21.9066
21.7715
21.6362
21.5007
21.365
21.2292
21.0932
20.957
20.8206
20.6841
20.5473
20.4104
20.2734
20.1361
19.9987
19.861
19.7232
19.5853
19.4471
19.3088
19.1703
19.0316
18.8928
18.7538
18.6146
18.4752
18.3356
18.1959
18.056
17.9159
17.7757
17.6353
17.4947
17.354
17.2131
17.072
16.9308
16.7894
16.6478
16.5061
16.3642
16.2222
16.08
15.9377
15.7952
15.6525
15.5097
15.3667
15.2236
15.0803
14.9369
14.7934
14.6496
14.5058
14.3617
14.2176
14.0733
13.9288
13.7842
13.6394
13.4945
13.3494
13.2042
13.0588
12.9133
12.7677
12.6219
12.4759
12.3298
12.1836
12.0372
11.8907
11.744
11.5972
11.4502
11.3031
11.1559
11.0085
10.861
10.7134
10.5656
10.4176
10.2695
10.1213
9.97293
9.82443
9.67579
9.52701
9.3781
9.22906
9.07988
8.93056
8.78111
8.63153
8.48182
8.33198
8.18201
8.03191
7.88168
7.73133
7.58085
7.43024
7.27951
7.12865
6.97766
6.82656
6.67533
6.52398
6.37251
6.22093
6.06923
5.91741
5.76548
5.61344
5.46128
5.30902
5.15665
5.00418
4.8516
4.69892
4.54615
4.39329
4.24033
4.08728
3.93414
3.78091
3.62757
3.47413
3.32056
3.16684
3.01293
2.85877
2.70426
2.54928
2.39362
2.23709
2.07919
1.91998
1.75739
1.59698
1.42037
1.30851
-83.5781
-3231.45
-967.574
596.778
525.195
51.2813
-103.146
-22.189
53.5758
58.4639
37.8437
28.4032
30.7599
34.3266
34.8743
33.9119
33.2653
33.1868
33.2336
33.1615
33.0077
32.8587
32.7362
32.6229
32.5058
32.3848
32.2637
32.1439
32.0247
31.9055
31.7861
31.6667
31.5472
31.4277
31.308
31.1883
31.0684
30.9484
30.8282
30.7078
30.5872
30.4664
30.3454
30.2242
30.1028
29.9812
29.8593
29.7372
29.6148
29.4922
29.3694
29.2464
29.1231
28.9995
28.8757
28.7517
28.6275
28.503
28.3783
28.2534
28.1283
28.0029
27.8773
27.7514
27.6254
27.4991
27.3726
27.2459
27.119
26.9918
26.8645
26.7369
26.6091
26.4811
26.3529
26.2245
26.0959
25.967
25.838
25.7088
25.5794
25.4498
25.32
25.19
25.0598
24.9295
24.7989
24.6681
24.5372
24.4061
24.2748
24.1433
24.0117
23.8798
23.7478
23.6156
23.4832
23.3507
23.2179
23.085
22.9518
22.8185
22.685
22.5514
22.4175
22.2835
22.1493
22.0149
21.8803
21.7456
21.6106
21.4755
21.3402
21.2048
21.0691
20.9333
20.7972
20.661
20.5246
20.388
20.2513
20.1143
19.9772
19.8399
19.7024
19.5647
19.4268
19.2888
19.1506
19.0122
18.8736
18.7348
18.5959
18.4568
18.3175
18.178
18.0383
17.8985
17.7585
17.6183
17.478
17.3375
17.1968
17.0559
16.9149
16.7737
16.6323
16.4908
16.3491
16.2073
16.0653
15.9231
15.7808
15.6383
15.4957
15.3529
15.2099
15.0668
14.9236
14.7802
14.6367
14.493
14.3491
14.2051
14.061
13.9167
13.7722
13.6276
13.4828
13.3379
13.1929
13.0477
12.9023
12.7568
12.6111
12.4653
12.3194
12.1733
12.027
11.8806
11.7341
11.5874
11.4406
11.2936
11.1465
10.9992
10.8519
10.7043
10.5566
10.4088
10.2608
10.1127
9.96451
9.81613
9.66762
9.51897
9.37018
9.22125
9.0722
8.923
8.77367
8.62421
8.47461
8.32488
8.17502
8.02502
7.87489
7.72463
7.57425
7.42373
7.27309
7.12232
6.97142
6.82039
6.66924
6.51797
6.36657
6.21505
6.06341
5.91165
5.75976
5.60776
5.45565
5.30341
5.15106
4.9986
4.84602
4.69332
4.54051
4.38758
4.23452
4.08135
3.92804
3.77458
3.62098
3.4672
3.31322
3.15901
3.00452
2.84969
2.69445
2.5387
2.3823
2.22516
2.06705
1.9081
1.74741
1.5882
1.42213
1.28881
-83.841
-3231.91
-967.851
596.692
525.207
51.3229
-103.09
-22.1034
53.7009
58.6236
38.026
28.5994
30.9664
34.5419
35.0962
34.1377
33.4926
33.414
33.4595
33.3852
33.2284
33.0756
32.9488
32.831
32.709
32.583
32.4568
32.3318
32.2075
32.0831
31.9586
31.8341
31.7097
31.5854
31.4611
31.3367
31.2124
31.088
30.9636
30.8391
30.7146
30.5901
30.4654
30.3407
30.2158
30.0909
29.9658
29.8406
29.7153
29.5898
29.4642
29.3385
29.2126
29.0865
28.9604
28.8341
28.7076
28.581
28.4542
28.3273
28.2002
28.0729
27.9455
27.818
27.6902
27.5623
27.4343
27.306
27.1776
27.0491
26.9203
26.7914
26.6623
26.5331
26.4036
26.2741
26.1443
26.0144
25.8844
25.7542
25.6238
25.4932
25.3625
25.2316
25.1005
24.9693
24.8379
24.7063
24.5746
24.4428
24.3107
24.1785
24.0462
23.9137
23.781
23.6481
23.5151
23.3819
23.2486
23.1151
22.9814
22.8475
22.7135
22.5793
22.4449
22.3104
22.1757
22.0408
21.9058
21.7706
21.6353
21.4997
21.364
21.2282
21.0921
20.9559
20.8195
20.6829
20.5461
20.4092
20.272
20.1347
19.9973
19.8596
19.7218
19.5838
19.4456
19.3072
19.1687
19.03
18.8911
18.7521
18.6129
18.4735
18.3339
18.1941
18.0542
17.9141
17.7738
17.6334
17.4928
17.3521
17.2111
17.07
16.9288
16.7873
16.6458
16.504
16.3621
16.2201
16.0779
15.9355
15.793
15.6503
15.5074
15.3644
15.2213
15.078
14.9346
14.791
14.6472
14.5034
14.3593
14.2151
14.0708
13.9263
13.7817
13.6369
13.492
13.3469
13.2017
13.0563
12.9108
12.7651
12.6193
12.4733
12.3272
12.1809
12.0345
11.888
11.7413
11.5945
11.4475
11.3004
11.1532
11.0058
10.8582
10.7105
10.5627
10.4148
10.2667
10.1184
9.97004
9.82152
9.67287
9.52408
9.37515
9.22609
9.07689
8.92756
8.7781
8.62851
8.47878
8.32892
8.17894
8.02882
7.87857
7.72819
7.57768
7.42704
7.27627
7.12537
6.97435
6.8232
6.67192
6.52052
6.36899
6.21734
6.06556
5.91366
5.76163
5.60948
5.4572
5.3048
5.15227
4.99962
4.84684
4.69394
4.5409
4.38773
4.23442
4.08097
3.92735
3.77358
3.61962
3.46546
3.31108
3.15645
3.00154
2.84629
2.69067
2.53461
2.37804
2.22093
2.06314
1.90487
1.74529
1.58733
1.42254
1.28879
-84.0668
-3232.37
-968.266
596.358
524.89
50.9876
-103.435
-22.4443
53.3702
58.301
37.7088
28.2873
30.6606
34.2431
34.8046
33.853
33.2148
33.1432
33.1956
33.1281
32.9782
32.8321
32.7118
32.6004
32.4847
32.3648
32.2445
32.1252
32.0065
31.8875
31.7683
31.6489
31.5294
31.4098
31.29
31.1701
31.0501
30.9298
30.8094
30.6888
30.568
30.4471
30.3259
30.2045
30.0829
29.961
29.839
29.7167
29.5942
29.4714
29.3484
29.2252
29.1018
28.9782
28.8543
28.7302
28.6059
28.4813
28.3566
28.2316
28.1064
27.9809
27.8553
27.7294
27.6033
27.477
27.3505
27.2238
27.0969
26.9697
26.8423
26.7148
26.587
26.459
26.3308
26.2024
26.0738
25.945
25.816
25.6869
25.5575
25.4279
25.2982
25.1682
25.0381
24.9077
24.7772
24.6465
24.5157
24.3846
24.2533
24.1219
23.9903
23.8585
23.7266
23.5944
23.4621
23.3296
23.1969
23.064
22.9309
22.7977
22.6642
22.5306
22.3969
22.2629
22.1287
21.9944
21.8599
21.7252
21.5904
21.4554
21.3201
21.1847
21.0491
20.9134
20.7774
20.6413
20.5049
20.3684
20.2317
20.0948
19.9578
19.8205
19.6831
19.5455
19.4077
19.2697
19.1316
18.9932
18.8547
18.716
18.5771
18.4381
18.2988
18.1594
18.0198
17.8801
17.7401
17.6
17.4597
17.3193
17.1786
17.0379
16.8969
16.7558
16.6145
16.473
16.3314
16.1896
16.0477
15.9056
15.7633
15.6209
15.4783
15.3356
15.1928
15.0497
14.9065
14.7632
14.6197
14.4761
14.3323
14.1884
14.0443
13.9
13.7556
13.6111
13.4664
13.3215
13.1765
13.0314
12.8861
12.7406
12.595
12.4493
12.3034
12.1574
12.0112
11.8648
11.7184
11.5717
11.425
11.2781
11.131
10.9838
10.8365
10.689
10.5414
10.3936
10.2457
10.0976
9.94945
9.80112
9.65266
9.50406
9.35532
9.20644
9.05743
8.90828
8.75899
8.60957
8.46002
8.31033
8.1605
8.01055
7.86046
7.71024
7.55989
7.4094
7.25879
7.10804
6.95716
6.80616
6.65502
6.50375
6.35235
6.20083
6.04917
5.89739
5.74547
5.59343
5.44125
5.28894
5.1365
4.98393
4.83121
4.67836
4.52536
4.37221
4.21891
4.06545
3.91182
3.75801
3.604
3.44979
3.29535
3.14065
2.98568
2.83041
2.6748
2.51883
2.36246
2.20569
2.04845
1.891
1.73265
1.57648
1.41476
1.28507
-84.244
-3232.72
-968.552
596.164
524.741
50.8546
-103.552
-22.5364
53.306
58.2625
37.6924
28.2907
30.6821
34.2813
34.8577
33.9192
33.2925
33.2307
33.2917
33.2316
33.0877
32.9468
32.8308
32.7228
32.6098
32.4919
32.3731
32.2548
32.1366
32.0179
31.8984
31.7786
31.6584
31.5379
31.4171
31.296
31.1746
31.0529
30.931
30.8088
30.6863
30.5637
30.4408
30.3176
30.1942
30.0706
29.9468
29.8228
29.6985
29.574
29.4494
29.3245
29.1994
29.0741
28.9486
28.8229
28.697
28.571
28.4447
28.3183
28.1916
28.0648
27.9378
27.8106
27.6832
27.5557
27.4279
27.3
27.1718
27.0435
26.915
26.7863
26.6575
26.5284
26.3992
26.2698
26.1403
26.0105
25.8806
25.7505
25.6203
25.4898
25.3592
25.2285
25.0975
24.9664
24.8351
24.7036
24.572
24.4402
24.3083
24.1762
24.0439
23.9114
23.7788
23.646
23.5131
23.38
23.2466
23.1132
22.9795
22.8457
22.7117
22.5776
22.4432
22.3088
22.1741
22.0393
21.9043
21.7691
21.6338
21.4983
21.3626
21.2267
21.0907
20.9545
20.8181
20.6815
20.5447
20.4078
20.2707
20.1334
19.9959
19.8583
19.7205
19.5825
19.4443
19.3059
19.1674
19.0287
18.8898
18.7508
18.6116
18.4721
18.3326
18.1928
18.0529
17.9128
17.7725
17.6321
17.4915
17.3507
17.2098
17.0687
16.9274
16.786
16.6444
16.5026
16.3607
16.2187
16.0764
15.9341
15.7915
15.6488
15.506
15.363
15.2199
15.0766
14.9331
14.7895
14.6458
14.5019
14.3578
14.2136
14.0693
13.9248
13.7802
13.6354
13.4904
13.3453
13.2001
13.0547
12.9092
12.7635
12.6177
12.4717
12.3256
12.1793
12.0329
11.8864
11.7397
11.5928
11.4458
11.2987
11.1514
11.004
10.8565
10.7088
10.561
10.413
10.2649
10.1166
9.96822
9.8197
9.67103
9.52223
9.37329
9.22422
9.07501
8.92567
8.77619
8.62658
8.47684
8.32696
8.17695
8.0268
7.87653
7.72612
7.57558
7.42491
7.27411
7.12318
6.97211
6.82092
6.66959
6.51813
6.36654
6.21482
6.06297
5.91098
5.75886
5.60661
5.45422
5.3017
5.14904
4.99624
4.84329
4.6902
4.53696
4.38357
4.23001
4.07629
3.92239
3.76831
3.61403
3.45955
3.30485
3.14992
2.99474
2.83928
2.68355
2.52752
2.37116
2.2145
2.05744
1.90021
1.74195
1.58546
1.42204
1.28915
-84.3825
-3232.99
-968.784
595.994
524.591
50.6973
-103.716
-22.6976
53.1514
58.1128
37.5453
28.1451
30.5381
34.139
34.7169
33.7796
33.1537
33.0928
33.1546
33.0952
32.952
32.8117
32.6964
32.5891
32.4769
32.3598
32.2418
32.1244
32.0071
31.8893
31.7709
31.6521
31.533
31.4136
31.2939
31.1739
31.0537
30.9332
30.8125
30.6915
30.5703
30.4489
30.3272
30.2053
30.0832
29.9608
29.8383
29.7154
29.5924
29.4691
29.3456
29.2219
29.098
28.9739
28.8495
28.725
28.6002
28.4752
28.35
28.2246
28.099
27.9732
27.8472
27.721
27.5946
27.468
27.3412
27.2142
27.087
26.9595
26.8319
26.7041
26.5761
26.4479
26.3195
26.1909
26.0621
25.9331
25.804
25.6747
25.5451
25.4154
25.2855
25.1554
25.0252
24.8947
24.7641
24.6333
24.5023
24.3712
24.2399
24.1084
23.9767
23.8448
23.7128
23.5806
23.4482
23.3157
23.1829
23.05
22.9169
22.7836
22.6501
22.5165
22.3827
22.2487
22.1146
21.9802
21.8457
21.711
21.5762
21.4411
21.3059
21.1705
21.0349
20.8991
20.7632
20.6271
20.4907
20.3542
20.2175
20.0807
19.9436
19.8064
19.669
19.5314
19.3936
19.2557
19.1175
18.9792
18.8407
18.7021
18.5632
18.4242
18.285
18.1456
18.006
17.8663
17.7264
17.5863
17.4461
17.3056
17.165
17.0243
16.8834
16.7423
16.601
16.4596
16.318
16.1763
16.0344
15.8923
15.7501
15.6077
15.4652
15.3225
15.1797
15.0367
14.8936
14.7503
14.6068
14.4632
14.3195
14.1756
14.0315
13.8873
13.743
13.5984
13.4538
13.309
13.164
13.0189
12.8737
12.7282
12.5827
12.437
12.2911
12.1451
11.999
11.8527
11.7063
11.5597
11.413
11.2661
11.1191
10.9719
10.8246
10.6772
10.5296
10.3819
10.234
10.086
9.93783
9.78954
9.64111
9.49255
9.34384
9.195
9.04602
8.8969
8.74765
8.59826
8.44874
8.29908
8.14928
7.99935
7.84929
7.69909
7.54876
7.39829
7.24769
7.09696
6.94609
6.79509
6.64395
6.49268
6.34128
6.18974
6.03806
5.88625
5.73429
5.5822
5.42997
5.2776
5.12508
4.97242
4.81961
4.66665
4.51353
4.36025
4.20681
4.0532
3.89941
3.74544
3.59127
3.43691
3.28233
3.12754
2.97253
2.81728
2.66178
2.50605
2.35006
2.19386
2.03739
1.88097
1.72396
1.56945
1.41007
1.28288
-84.4897
-3233.2
-968.964
595.863
524.478
50.5839
-103.828
-22.8002
53.0621
58.0363
37.4798
28.0901
30.4938
34.1054
34.6935
33.7658
33.149
33.0966
33.1664
33.1144
32.9781
32.8442
32.7346
32.6326
32.5252
32.4124
32.2984
32.1846
32.0705
31.9555
31.8396
31.723
31.6059
31.4882
31.3701
31.2514
31.1323
31.0128
30.8928
30.7725
30.6519
30.5309
30.4095
30.2878
30.1659
30.0436
29.921
29.7981
29.675
29.5515
29.4278
29.3039
29.1797
29.0553
28.9306
28.8057
28.6805
28.5552
28.4296
28.3038
28.1777
28.0515
27.925
27.7984
27.6715
27.5444
27.4171
27.2896
27.1619
27.034
26.9059
26.7776
26.6491
26.5204
26.3915
26.2624
26.1331
26.0037
25.874
25.7442
25.6142
25.484
25.3536
25.2231
25.0923
24.9614
24.8303
24.699
24.5676
24.436
24.3042
24.1722
24.0401
23.9078
23.7753
23.6426
23.5098
23.3768
23.2436
23.1102
22.9767
22.843
22.7091
22.575
22.4408
22.3064
22.1718
22.0371
21.9021
21.767
21.6318
21.4963
21.3607
21.2249
21.0889
20.9527
20.8164
20.6798
20.5431
20.4062
20.2692
20.1319
19.9945
19.8569
19.7191
19.5811
19.443
19.3046
19.1661
19.0275
18.8886
18.7496
18.6104
18.471
18.3314
18.1917
18.0518
17.9117
17.7714
17.631
17.4904
17.3497
17.2087
17.0676
16.9264
16.785
16.6434
16.5016
16.3597
16.2177
16.0754
15.9331
15.7905
15.6479
15.505
15.362
15.2189
15.0756
14.9321
14.7885
14.6448
14.5009
14.3569
14.2127
14.0683
13.9238
13.7792
13.6344
13.4894
13.3443
13.1991
13.0537
12.9082
12.7625
12.6167
12.4707
12.3246
12.1783
12.0319
11.8853
11.7386
11.5918
11.4448
11.2977
11.1504
11.003
10.8554
10.7077
10.5599
10.4119
10.2638
10.1155
9.96712
9.81859
9.66991
9.5211
9.37216
9.22308
9.07386
8.9245
8.77501
8.62539
8.47563
8.32573
8.17571
8.02555
7.87525
7.72482
7.57426
7.42356
7.27273
7.12177
6.97067
6.81944
6.66807
6.51657
6.36493
6.21315
6.06124
5.90919
5.75701
5.60468
5.45221
5.2996
5.14684
4.99393
4.84088
4.68767
4.5343
4.38077
4.22708
4.07322
3.91919
3.76498
3.61059
3.456
3.30123
3.14625
2.99107
2.83568
2.68009
2.52428
2.36826
2.21204
2.05554
1.89897
1.74143
1.58564
1.42264
1.28967
-84.5693
-3233.36
-969.099
595.764
524.393
50.4962
-103.918
-22.8868
52.9816
57.9608
37.4077
28.0205
30.4266
34.0405
34.6306
33.7043
33.0886
33.0369
33.1071
33.0553
32.9189
32.7847
32.6748
32.5723
32.4642
32.3507
32.2359
32.1213
32.0063
31.8905
31.7737
31.6563
31.5383
31.4198
31.3009
31.1814
31.0616
30.9414
30.8208
30.6998
30.5786
30.457
30.3351
30.213
30.0906
29.9679
29.8449
29.7217
29.5982
29.4745
29.3506
29.2265
29.1021
28.9775
28.8527
28.7277
28.6025
28.4771
28.3515
28.2257
28.0996
27.9734
27.847
27.7205
27.5937
27.4667
27.3395
27.2122
27.0846
26.9569
26.8289
26.7008
26.5725
26.444
26.3154
26.1865
26.0575
25.9283
25.7989
25.6694
25.5396
25.4097
25.2796
25.1494
25.0189
24.8883
24.7575
24.6266
24.4955
24.3642
24.2327
24.1011
23.9693
23.8374
23.7052
23.5729
23.4404
23.3078
23.1749
23.0419
22.9087
22.7754
22.6419
22.5082
22.3743
22.2403
22.1061
21.9717
21.8371
21.7024
21.5675
21.4324
21.2971
21.1617
21.0261
20.8903
20.7543
20.6182
20.4818
20.3453
20.2086
20.0717
19.9347
19.7974
19.66
19.5224
19.3846
19.2467
19.1085
18.9702
18.8317
18.6931
18.5542
18.4152
18.276
18.1366
17.9971
17.8573
17.7174
17.5774
17.4371
17.2967
17.1561
17.0154
16.8745
16.7334
16.5921
16.4507
16.3092
16.1675
16.0256
15.8835
15.7413
15.599
15.4565
15.3138
15.171
15.028
14.8849
14.7416
14.5982
14.4546
14.3109
14.167
14.023
13.8788
13.7345
13.59
13.4454
13.3006
13.1557
13.0106
12.8653
12.7199
12.5744
12.4287
12.2829
12.1369
11.9908
11.8445
11.6981
11.5516
11.4049
11.258
11.111
10.9639
10.8166
10.6692
10.5216
10.3739
10.2261
10.0781
9.92999
9.78172
9.63331
9.48477
9.33608
9.18726
9.0383
8.88921
8.73998
8.59061
8.4411
8.29146
8.14168
7.99177
7.84172
7.69153
7.54121
7.39075
7.24016
7.08943
6.93856
6.78756
6.63642
6.48514
6.33373
6.18217
6.03048
5.87864
5.72666
5.57454
5.42227
5.26986
5.11729
4.96458
4.81171
4.65869
4.50551
4.35216
4.19866
4.04498
3.89113
3.73711
3.58291
3.42853
3.27396
3.11921
2.96427
2.80915
2.65384
2.49835
2.34269
2.18689
2.03094
1.87512
1.71887
1.56529
1.40724
1.28152
-84.6243
-3233.47
-969.194
595.695
524.334
50.4353
-103.981
-22.947
52.9269
57.9114
37.3624
27.9791
30.3894
34.0079
34.6024
33.6806
33.0691
33.0216
33.096
33.0482
32.9157
32.7853
32.679
32.5799
32.4752
32.3649
32.2532
32.1415
32.0294
31.9162
31.802
31.687
31.5714
31.4552
31.3383
31.2209
31.103
30.9846
30.8657
30.7464
30.6267
30.5067
30.3862
30.2654
30.1443
30.0228
29.901
29.7788
29.6564
29.5336
29.4106
29.2873
29.1637
29.0399
28.9158
28.7914
28.6668
28.5419
28.4168
28.2915
28.1659
28.0401
27.9141
27.7879
27.6614
27.5347
27.4078
27.2806
27.1532
27.0257
26.8979
26.7699
26.6416
26.5132
26.3846
26.2558
26.1268
25.9976
25.8682
25.7386
25.6088
25.4788
25.3486
25.2182
25.0877
24.9569
24.826
24.6949
24.5636
24.4321
24.3005
24.1687
24.0367
23.9045
23.7721
23.6396
23.5069
23.3739
23.2409
23.1076
22.9741
22.8405
22.7067
22.5727
22.4386
22.3042
22.1697
22.0351
21.9002
21.7652
21.6299
21.4946
21.359
21.2232
21.0873
20.9512
20.8149
20.6784
20.5417
20.4049
20.2678
20.1306
19.9932
19.8556
19.7179
19.58
19.4418
19.3035
19.1651
19.0264
18.8876
18.7486
18.6094
18.47
18.3305
18.1908
18.0509
17.9108
17.7706
17.6302
17.4896
17.3488
17.2079
17.0669
16.9256
16.7842
16.6426
16.5009
16.359
16.2169
16.0747
15.9324
15.7898
15.6472
15.5043
15.3613
15.2182
15.0749
14.9315
14.7879
14.6441
14.5003
14.3562
14.212
14.0677
13.9232
13.7785
13.6338
13.4888
13.3437
13.1985
13.0531
12.9076
12.7619
12.616
12.4701
12.3239
12.1777
12.0313
11.8847
11.738
11.5912
11.4442
11.297
11.1498
11.0023
10.8548
10.7071
10.5592
10.4113
10.2631
10.1149
9.96648
9.81794
9.66926
9.52045
9.3715
9.22241
9.07318
8.92382
8.77432
8.62469
8.47493
8.32502
8.17499
8.02481
7.87451
7.72407
7.57349
7.42278
7.27193
7.12095
6.96983
6.81857
6.66718
6.51565
6.36398
6.21217
6.06023
5.90814
5.75591
5.60354
5.45102
5.29836
5.14554
4.99258
4.83946
4.68619
4.53276
4.37918
4.22542
4.07151
3.91742
3.76317
3.60875
3.45415
3.29937
3.14443
2.9893
2.83401
2.67855
2.52292
2.36712
2.21118
2.05499
1.89877
1.74158
1.58607
1.42318
1.29004
-84.6563
-3233.54
-969.25
595.654
524.299
50.3998
-104.018
-22.9833
52.8936
57.881
37.3338
27.9518
30.3636
33.9835
34.5794
33.6585
33.0478
33.0009
33.0755
33.0279
32.8954
32.7647
32.658
32.5584
32.453
32.3419
32.2292
32.1165
32.0032
31.8888
31.7733
31.657
31.5399
31.4223
31.304
31.1851
31.0657
30.9458
30.8255
30.7048
30.5836
30.4621
30.3403
30.2181
30.0956
29.9728
29.8497
29.7264
29.6028
29.4789
29.3547
29.2304
29.1058
28.981
28.8559
28.7307
28.6052
28.4796
28.3537
28.2277
28.1014
27.975
27.8484
27.7216
27.5946
27.4674
27.34
27.2124
27.0847
26.9567
26.8286
26.7003
26.5718
26.4432
26.3144
26.1854
26.0562
25.9269
25.7973
25.6676
25.5378
25.4077
25.2775
25.1472
25.0166
24.8859
24.755
24.624
24.4928
24.3614
24.2298
24.0981
23.9663
23.8342
23.702
23.5696
23.4371
23.3044
23.1715
23.0384
22.9052
22.7718
22.6382
22.5045
22.3706
22.2365
22.1022
21.9678
21.8332
21.6985
21.5635
21.4284
21.2931
21.1577
21.022
20.8862
20.7502
20.614
20.4777
20.3411
20.2044
20.0675
19.9305
19.7932
19.6558
19.5182
19.3804
19.2424
19.1043
18.966
18.8275
18.6888
18.5499
18.4109
18.2717
18.1323
17.9928
17.853
17.7131
17.5731
17.4328
17.2924
17.1518
17.0111
16.8702
16.7291
16.5879
16.4465
16.3049
16.1632
16.0213
15.8793
15.7371
15.5947
15.4522
15.3096
15.1668
15.0238
14.8807
14.7374
14.594
14.4505
14.3067
14.1629
14.0188
13.8747
13.7303
13.5859
13.4412
13.2965
13.1515
13.0065
12.8612
12.7159
12.5704
12.4247
12.2789
12.1329
11.9868
11.8405
11.6941
11.5476
11.4009
11.2541
11.1071
10.96
10.8127
10.6653
10.5177
10.37
10.2222
10.0742
9.92611
9.77785
9.62946
9.48092
9.33225
9.18344
9.03449
8.8854
8.73618
8.58682
8.43732
8.28768
8.13791
7.988
7.83795
7.68777
7.53745
7.387
7.23641
7.08568
6.93481
6.78381
6.63266
6.48138
6.32996
6.17839
6.02669
5.87484
5.72285
5.57071
5.41842
5.26599
5.1134
4.96066
4.80777
4.65472
4.50152
4.34815
4.19462
4.04092
3.88706
3.73303
3.57883
3.42446
3.26992
3.11521
2.96033
2.80529
2.65009
2.49474
2.33926
2.18368
2.02798
1.87247
1.71661
1.56349
1.40608
1.28099
-84.6667
-3233.56
-969.269
595.64
524.288
50.3883
-104.031
-22.9955
52.8825
57.8709
37.3245
27.9431
30.3557
33.9764
34.5733
33.6534
33.0437
32.9978
33.0736
33.0272
32.896
32.7667
32.6614
32.5633
32.4594
32.3499
32.2388
32.1278
32.0162
31.9036
31.7899
31.6754
31.5602
31.4444
31.3279
31.2108
31.0933
30.9752
30.8567
30.7377
30.6183
30.4985
30.3783
30.2578
30.1369
30.0156
29.8941
29.7722
29.6499
29.5274
29.4046
29.2815
29.1581
29.0345
28.9105
28.7864
28.6619
28.5373
28.4123
28.2872
28.1617
28.0361
27.9102
27.7841
27.6577
27.5312
27.4044
27.2773
27.1501
27.0226
26.8949
26.767
26.6389
26.5106
26.3821
26.2533
26.1244
25.9953
25.8659
25.7364
25.6067
25.4768
25.3467
25.2164
25.0859
24.9552
24.8243
24.6933
24.562
24.4306
24.299
24.1672
24.0353
23.9032
23.7708
23.6383
23.5056
23.3728
23.2397
23.1065
22.9731
22.8395
22.7057
22.5718
22.4376
22.3033
22.1688
22.0342
21.8993
21.7643
21.6291
21.4938
21.3582
21.2225
21.0866
20.9505
20.8142
20.6777
20.541
20.4042
20.2672
20.13
19.9926
19.8551
19.7173
19.5794
19.4413
19.303
19.1645
19.0259
18.8871
18.7481
18.6089
18.4695
18.33
18.1903
18.0504
17.9104
17.7701
17.6297
17.4892
17.3484
17.2075
17.0664
16.9252
16.7838
16.6422
16.5005
16.3586
16.2166
16.0744
15.932
15.7895
15.6468
15.504
15.361
15.2179
15.0746
14.9311
14.7876
14.6438
14.4999
14.3559
14.2117
14.0674
13.9229
13.7782
13.6334
13.4885
13.3434
13.1982
13.0528
12.9073
12.7616
12.6157
12.4698
12.3236
12.1774
12.031
11.8844
11.7377
11.5909
11.4439
11.2967
11.1495
11.0021
10.8545
10.7068
10.559
10.411
10.2628
10.1146
9.96619
9.81765
9.66897
9.52016
9.37121
9.22212
9.07289
8.92353
8.77403
8.6244
8.47463
8.32473
8.17469
8.02451
7.8742
7.72376
7.57318
7.42246
7.2716
7.12061
6.96949
6.81823
6.66683
6.51529
6.36361
6.21179
6.05984
5.90774
5.75549
5.60311
5.45057
5.29789
5.14506
4.99208
4.83895
4.68566
4.53221
4.37861
4.22484
4.07091
3.91681
3.76255
3.60812
3.45353
3.29876
3.14383
2.98874
2.83348
2.67806
2.52249
2.36676
2.21089
2.05478
1.89862
1.74147
1.58599
1.42312
1.29001
-84.6563
-3233.54
-969.25
595.654
524.299
50.3998
-104.018
-22.9833
52.8936
57.8809
37.3338
27.9518
30.3636
33.9835
34.5794
33.6585
33.0478
33.0009
33.0756
33.0279
32.8954
32.7648
32.6581
32.5584
32.453
32.3419
32.2292
32.1165
32.0032
31.8888
31.7733
31.657
31.54
31.4223
31.304
31.1851
31.0657
30.9458
30.8255
30.7048
30.5836
30.4621
30.3403
30.2181
30.0956
29.9728
29.8497
29.7264
29.6028
29.4789
29.3547
29.2304
29.1058
28.981
28.8559
28.7307
28.6052
28.4796
28.3537
28.2277
28.1014
27.975
27.8484
27.7216
27.5945
27.4674
27.34
27.2124
27.0847
26.9567
26.8286
26.7003
26.5719
26.4432
26.3144
26.1854
26.0562
25.9269
25.7973
25.6676
25.5378
25.4077
25.2775
25.1472
25.0166
24.8859
24.755
24.624
24.4928
24.3614
24.2299
24.0982
23.9663
23.8342
23.702
23.5697
23.4371
23.3044
23.1715
23.0384
22.9052
22.7718
22.6382
22.5045
22.3706
22.2365
22.1022
21.9678
21.8332
21.6985
21.5635
21.4284
21.2931
21.1577
21.022
20.8862
20.7502
20.614
20.4777
20.3411
20.2044
20.0675
19.9305
19.7932
19.6558
19.5182
19.3804
19.2424
19.1043
18.9659
18.8274
18.6888
18.5499
18.4109
18.2717
18.1323
17.9927
17.853
17.7131
17.573
17.4328
17.2924
17.1518
17.0111
16.8702
16.7291
16.5879
16.4465
16.3049
16.1632
16.0213
15.8793
15.7371
15.5947
15.4522
15.3096
15.1668
15.0238
14.8807
14.7374
14.594
14.4505
14.3067
14.1629
14.0188
13.8747
13.7303
13.5859
13.4412
13.2965
13.1515
13.0065
12.8612
12.7159
12.5704
12.4247
12.2789
12.1329
11.9868
11.8405
11.6941
11.5476
11.4009
11.2541
11.1071
10.96
10.8127
10.6653
10.5177
10.37
10.2222
10.0742
9.92612
9.77786
9.62947
9.48093
9.33226
9.18344
9.0345
8.88541
8.73618
8.58682
8.43732
8.28769
8.13791
7.98801
7.83796
7.68778
7.53746
7.38701
7.23642
7.08569
6.93482
6.78382
6.63267
6.48139
6.32997
6.1784
6.0267
5.87485
5.72285
5.57072
5.41843
5.26599
5.11341
4.96067
4.80778
4.65473
4.50152
4.34816
4.19463
4.04093
3.88707
3.73304
3.57883
3.42446
3.26992
3.11521
2.96033
2.80529
2.65009
2.49475
2.33926
2.18368
2.02798
1.87248
1.71661
1.5635
1.40608
1.28099
-84.6243
-3233.47
-969.194
595.695
524.334
50.4353
-103.981
-22.947
52.9269
57.9114
37.3624
27.9791
30.3894
34.0079
34.6024
33.6806
33.0691
33.0216
33.0959
33.0481
32.9157
32.7852
32.6789
32.5799
32.4751
32.3649
32.2532
32.1415
32.0293
31.9162
31.802
31.6871
31.5714
31.4552
31.3383
31.2209
31.103
30.9846
30.8657
30.7464
30.6267
30.5067
30.3862
30.2654
30.1442
30.0227
29.9009
29.7788
29.6564
29.5336
29.4106
29.2873
29.1637
29.0399
28.9158
28.7914
28.6668
28.5419
28.4168
28.2915
28.1659
28.0401
27.9141
27.7879
27.6614
27.5347
27.4077
27.2806
27.1532
27.0257
26.8979
26.7699
26.6417
26.5132
26.3846
26.2558
26.1268
25.9976
25.8682
25.7386
25.6088
25.4788
25.3486
25.2182
25.0877
24.9569
24.826
24.6949
24.5636
24.4322
24.3005
24.1687
24.0367
23.9045
23.7721
23.6396
23.5069
23.374
23.2409
23.1076
22.9742
22.8405
22.7067
22.5728
22.4386
22.3043
22.1698
22.0351
21.9002
21.7652
21.63
21.4946
21.359
21.2232
21.0873
20.9512
20.8149
20.6784
20.5417
20.4048
20.2678
20.1306
19.9932
19.8556
19.7179
19.5799
19.4418
19.3035
19.1651
19.0264
18.8876
18.7486
18.6094
18.47
18.3305
18.1908
18.0509
17.9108
17.7706
17.6302
17.4896
17.3488
17.2079
17.0668
16.9256
16.7842
16.6426
16.5009
16.359
16.2169
16.0747
15.9324
15.7898
15.6472
15.5043
15.3614
15.2182
15.0749
14.9315
14.7879
14.6442
14.5003
14.3562
14.212
14.0677
13.9232
13.7786
13.6338
13.4888
13.3437
13.1985
13.0531
12.9076
12.7619
12.6161
12.4701