/*--------------------------------*- C++ -*----------------------------------*\
| =========                 |                                                 |
| \\      /  F ield         | OpenFOAM: The Open Source CFD Toolbox           |
|  \\    /   O peration     | Version:  2406                                  |
|   \\  /    A nd           | Website:  www.openfoam.com                      |
|    \\/     M anipulation  |                                                 |
\*---------------------------------------------------------------------------*/
FoamFile
{
    version     2.0;
    format      ascii;
    arch        "LSB;label=32;scalar=64";
    class       volScalarField;
    location    "0.25";
    object      p_rgh;
}
// * * * * * * * * * * * * * * * * * * * * * * * * * * * * * * * * * * * * * //

dimensions      [1 -1 -2 0 0 0 0];

internalField   nonuniform List<scalar> 
6250
(
-79.7298
-3224.34
-963.098
598.07
525.836
52.598
-101.554
-20.9247
54.4532
59.1763
38.5192
29.0316
31.3067
34.7925
35.2801
34.2725
33.5856
33.4687
33.4803
33.3771
33.1958
33.0216
32.876
32.7415
32.6048
32.4657
32.3278
32.1922
32.0582
31.9251
31.7925
31.6606
31.5293
31.3985
31.2681
31.138
31.0081
30.8785
30.749
30.6197
30.4904
30.3612
30.232
30.1028
29.9736
29.8443
29.715
29.5856
29.4561
29.3265
29.1967
29.0668
28.9368
28.8067
28.6764
28.5459
28.4153
28.2845
28.1536
28.0225
27.8912
27.7598
27.6282
27.4964
27.3645
27.2323
27.1
26.9675
26.8348
26.702
26.5689
26.4357
26.3023
26.1687
26.0349
25.901
25.7669
25.6326
25.4981
25.3634
25.2286
25.0936
24.9584
24.8231
24.6876
24.5519
24.416
24.28
24.1438
24.0074
23.8709
23.7342
23.5973
23.4602
23.323
23.1856
23.048
22.9103
22.7723
22.6342
22.496
22.3575
22.2189
22.0801
21.9411
21.8019
21.6626
21.5231
21.3834
21.2436
21.1036
20.9634
20.8231
20.6825
20.5418
20.4009
20.2599
20.1186
19.9772
19.8356
19.6939
19.5519
19.4098
19.2675
19.125
18.9823
18.8394
18.6964
18.5532
18.4098
18.2662
18.1225
17.9785
17.8344
17.6902
17.5457
17.4011
17.2563
17.1113
16.9662
16.8208
16.6754
16.5297
16.3839
16.2379
16.0918
15.9455
15.799
15.6524
15.5056
15.3587
15.2116
15.0643
14.9169
14.7694
14.6216
14.4738
14.3258
14.1776
14.0293
13.8808
13.7322
13.5834
13.4345
13.2854
13.1362
12.9868
12.8373
12.6876
12.5377
12.3878
12.2376
12.0873
11.9369
11.7863
11.6356
11.4848
11.3338
11.1826
11.0313
10.8799
10.7283
10.5766
10.4247
10.2727
10.1206
9.96827
9.81584
9.66328
9.51058
9.35773
9.20474
9.05162
8.89835
8.74495
8.59141
8.43773
8.28391
8.12996
7.97587
7.82165
7.6673
7.51281
7.35819
7.20344
7.04856
6.89356
6.73843
6.58317
6.42779
6.2723
6.11668
5.96094
5.80508
5.64911
5.49302
5.33682
5.18051
5.0241
4.86757
4.71095
4.55423
4.39742
4.24051
4.08353
3.92646
3.76933
3.61214
3.4549
3.29763
3.14035
2.98308
2.82584
2.66868
2.51163
2.35474
2.19809
2.04176
1.88585
1.73052
1.57595
1.42239
1.27024
1.11978
0.972418
0.826401
0.692081
0.535843
0.462389
-0.0202099
-83.2456
-3230.97
-967.075
597.336
525.611
51.5607
-102.93
-22.0047
53.7267
58.584
37.9436
28.4885
30.8304
34.3827
34.9183
33.9457
33.2898
33.2022
33.2401
33.1596
32.9979
32.8411
32.7109
32.5902
32.4659
32.3377
32.2097
32.0831
31.9572
31.8314
31.7055
31.5796
31.4537
31.3279
31.2021
31.0762
30.9502
30.8242
30.698
30.5717
30.4453
30.3187
30.192
30.0651
29.9379
29.8106
29.6831
29.5554
29.4275
29.2994
29.1711
29.0425
28.9138
28.7848
28.6557
28.5263
28.3967
28.2669
28.1369
28.0066
27.8762
27.7455
27.6146
27.4835
27.3523
27.2208
27.0891
26.9572
26.8251
26.6927
26.5602
26.4275
26.2946
26.1614
26.0281
25.8946
25.7609
25.627
25.4929
25.3586
25.2241
25.0895
24.9546
24.8195
24.6843
24.5489
24.4133
24.2775
24.1415
24.0053
23.869
23.7325
23.5959
23.459
23.322
23.1848
23.0474
22.9098
22.7721
22.6341
22.496
22.3578
22.2193
22.0807
21.9419
21.8029
21.6637
21.5244
21.3849
21.2452
21.1053
20.9652
20.825
20.6846
20.5439
20.4032
20.2622
20.121
19.9797
19.8381
19.6964
19.5545
19.4125
19.2702
19.1278
18.9852
18.8424
18.6994
18.5563
18.413
18.2695
18.1258
17.9819
17.8379
17.6937
17.5493
17.4048
17.26
17.1151
16.97
16.8248
16.6794
16.5338
16.388
16.2421
16.096
15.9498
15.8033
15.6568
15.51
15.3631
15.216
15.0688
14.9214
14.7739
14.6262
14.4784
14.3304
14.1822
14.034
13.8855
13.7369
13.5882
13.4393
13.2902
13.1411
12.9917
12.8422
12.6926
12.5428
12.3929
12.2428
12.0925
11.9422
11.7916
11.6409
11.4901
11.3391
11.188
11.0367
10.8853
10.7338
10.5821
10.4302
10.2782
10.1261
9.97377
9.82134
9.66878
9.51607
9.36322
9.21024
9.05713
8.90387
8.75048
8.59696
8.4433
8.2895
8.13558
7.98152
7.82732
7.673
7.51854
7.36396
7.20924
7.05439
6.89941
6.7443
6.58906
6.43369
6.27819
6.12257
5.96683
5.81096
5.65497
5.49886
5.34263
5.18628
5.02981
4.87324
4.71655
4.55975
4.40286
4.24586
4.08877
3.93158
3.77431
3.61696
3.45953
3.30204
3.14447
2.98685
2.82918
2.67146
2.5137
2.3559
2.19807
2.04019
1.88224
1.72419
1.56594
1.40734
1.24814
1.0879
0.925714
0.760789
0.588884
0.415397
0.209753
0.113765
-83.0772
-3230.23
-966.323
597.783
525.977
51.963
-102.475
-21.5216
54.2067
59.0403
38.3712
28.8926
31.2154
34.7482
35.2623
34.2683
33.5924
33.4865
33.5072
33.4105
33.2336
33.0626
32.9193
32.7864
32.6507
32.5119
32.374
32.2382
32.1037
31.9699
31.8365
31.7037
31.5713
31.4395
31.3079
31.1767
31.0457
30.9149
30.7843
30.6538
30.5234
30.3931
30.2629
30.1327
30.0024
29.8722
29.7419
29.6115
29.4811
29.3506
29.2199
29.0892
28.9584
28.8274
28.6964
28.5652
28.4339
28.3025
28.1709
28.0392
27.9073
27.7753
27.6431
27.5107
27.3783
27.2456
27.1128
26.9798
26.8467
26.7134
26.5799
26.4463
26.3124
26.1785
26.0443
25.91
25.7755
25.6409
25.5061
25.3711
25.236
25.1007
24.9653
24.8296
24.6938
24.5579
24.4218
24.2855
24.149
24.0124
23.8756
23.7387
23.6016
23.4643
23.3269
23.1893
23.0515
22.9136
22.7755
22.6372
22.4987
22.3601
22.2213
22.0824
21.9432
21.804
21.6645
21.5249
21.3851
21.2451
21.105
20.9647
20.8242
20.6836
20.5428
20.4018
20.2606
20.1193
19.9777
19.836
19.6941
19.5521
19.4098
19.2674
19.1248
18.982
18.8391
18.6959
18.5526
18.4091
18.2655
18.1216
17.9776
17.8335
17.6891
17.5446
17.3999
17.255
17.11
16.9647
16.8194
16.6738
16.5281
16.3822
16.2362
16.09
15.9436
15.7971
15.6504
15.5036
15.3566
15.2094
15.0621
14.9146
14.767
14.6193
14.4713
14.3233
14.175
14.0267
13.8781
13.7294
13.5806
13.4316
13.2825
13.1332
12.9838
12.8342
12.6845
12.5346
12.3846
12.2344
12.0841
11.9337
11.7831
11.6323
11.4814
11.3304
11.1792
11.0278
10.8764
10.7247
10.573
10.4211
10.269
10.1169
9.96453
9.81206
9.65945
9.5067
9.35381
9.20077
9.0476
8.89429
8.74085
8.58727
8.43355
8.27969
8.12571
7.97158
7.81733
7.66294
7.50842
7.35378
7.199
7.04409
6.88906
6.7339
6.57861
6.42319
6.26765
6.11199
5.9562
5.80028
5.64425
5.48809
5.33182
5.17543
5.01892
4.8623
4.70556
4.54871
4.39175
4.23468
4.0775
3.92022
3.76284
3.60535
3.44778
3.2901
3.13234
2.97448
2.81654
2.6585
2.50036
2.34211
2.18373
2.02521
1.86649
1.70752
1.5482
1.38841
1.22795
1.06661
0.903903
0.73989
0.572493
0.407269
0.225851
0.109188
-83.5805
-3231.46
-967.586
596.761
525.173
51.2548
-103.177
-22.225
53.535
58.4183
37.7932
28.3479
30.6998
34.2617
34.8046
33.8374
33.1859
33.1027
33.1447
33.0677
32.9092
32.7554
32.628
32.51
32.388
32.2622
32.1363
32.0117
31.8877
31.7637
31.6395
31.5152
31.391
31.2666
31.1422
31.0176
30.8929
30.7681
30.6431
30.5179
30.3925
30.2669
30.1411
30.0151
29.8889
29.7625
29.6358
29.5089
29.3817
29.2543
29.1267
28.9988
28.8707
28.7423
28.6138
28.485
28.3559
28.2266
28.0971
27.9674
27.8374
27.7072
27.5768
27.4462
27.3153
27.1843
27.053
26.9214
26.7897
26.6577
26.5256
26.3932
26.2606
26.1278
25.9948
25.8615
25.7281
25.5945
25.4607
25.3267
25.1925
25.0581
24.9234
24.7886
24.6536
24.5185
24.3831
24.2475
24.1118
23.9759
23.8398
23.7035
23.567
23.4304
23.2936
23.1566
23.0194
22.882
22.7444
22.6067
22.4687
22.3306
22.1923
22.0538
21.9152
21.7763
21.6373
21.4981
21.3588
21.2192
21.0795
20.9396
20.7995
20.6592
20.5187
20.3781
20.2372
20.0962
19.955
19.8136
19.672
19.5303
19.3883
19.2462
19.1039
18.9614
18.8188
18.6759
18.5329
18.3897
18.2463
18.1027
17.959
17.815
17.6709
17.5267
17.3822
17.2376
17.0927
16.9478
16.8026
16.6573
16.5118
16.3661
16.2203
16.0743
15.9281
15.7818
15.6353
15.4886
15.3418
15.1949
15.0477
14.9004
14.753
14.6054
14.4577
14.3098
14.1617
14.0135
13.8652
13.7166
13.568
13.4192
13.2702
13.1211
12.9719
12.8224
12.6729
12.5232
12.3733
12.2233
12.0731
11.9228
11.7723
11.6217
11.471
11.3201
11.169
11.0178
10.8665
10.715
10.5633
10.4116
10.2596
10.1076
9.95536
9.80302
9.65053
9.4979
9.34514
9.19223
9.03918
8.886
8.73268
8.57922
8.42562
8.27189
8.11803
7.96402
7.80989
7.65562
7.50121
7.34668
7.192
7.0372
6.88227
6.7272
6.57201
6.41669
6.26124
6.10566
5.94995
5.79412
5.63816
5.48208
5.32588
5.16955
5.0131
4.85653
4.69984
4.54304
4.38611
4.22907
4.07192
3.91464
3.75726
3.59975
3.44213
3.28439
3.12653
2.96855
2.81043
2.65217
2.49376
2.33517
2.17639
2.01737
1.85807
1.69844
1.53839
1.37783
1.21663
1.05468
0.89176
0.728002
0.562512
0.398489
0.227618
0.0894868
-83.8434
-3231.91
-967.863
596.675
525.186
51.2965
-103.121
-22.1394
53.66
58.5779
37.9755
28.5441
30.9063
34.477
35.0265
34.0632
33.4133
33.3299
33.3706
33.2914
33.1298
32.9723
32.8407
32.718
32.5913
32.4604
32.3294
32.1996
32.0705
31.9413
31.812
31.6827
31.5535
31.4244
31.2952
31.1661
31.0369
30.9077
30.7785
30.6493
30.52
30.3906
30.2611
30.1316
30.0019
29.8722
29.7423
29.6123
29.4821
29.3519
29.2214
29.0909
28.9602
28.8294
28.6984
28.5673
28.436
28.3046
28.173
28.0413
27.9094
27.7773
27.6451
27.5127
27.3802
27.2475
27.1146
26.9816
26.8484
26.715
26.5814
26.4477
26.3138
26.1798
26.0455
25.9112
25.7766
25.6419
25.507
25.372
25.2368
25.1014
24.9659
24.8302
24.6943
24.5583
24.4221
24.2857
24.1492
24.0125
23.8757
23.7387
23.6015
23.4642
23.3267
23.1891
23.0513
22.9133
22.7751
22.6368
22.4983
22.3596
22.2208
22.0818
21.9426
21.8033
21.6638
21.5241
21.3843
21.2443
21.1041
20.9638
20.8233
20.6826
20.5417
20.4007
20.2595
20.1181
19.9765
19.8347
19.6928
19.5507
19.4084
19.266
19.1233
18.9805
18.8375
18.6944
18.551
18.4075
18.2638
18.12
17.9759
17.8317
17.6873
17.5428
17.3981
17.2532
17.1081
16.9629
16.8174
16.6719
16.5261
16.3802
16.2342
16.0879
15.9416
15.795
15.6483
15.5014
15.3544
15.2072
15.0599
14.9124
14.7648
14.617
14.469
14.3209
14.1727
14.0243
13.8757
13.727
13.5782
13.4292
13.2801
13.1308
12.9813
12.8317
12.682
12.5321
12.3821
12.2319
12.0816
11.9311
11.7805
11.6297
11.4788
11.3277
11.1765
11.0252
10.8737
10.722
10.5703
10.4183
10.2663
10.1141
9.96173
9.80925
9.65662
9.50385
9.35094
9.19789
9.04471
8.89138
8.73792
8.58433
8.43059
8.27673
8.12272
7.96859
7.81432
7.65992
7.50538
7.35072
7.19593
7.041
6.88594
6.73075
6.57544
6.41999
6.26442
6.10871
5.95288
5.79693
5.64084
5.48463
5.3283
5.17184
5.01525
4.85854
4.70171
4.54475
4.38766
4.23046
4.07312
3.91567
3.75808
3.60037
3.44253
3.28455
3.12643
2.96817
2.80975
2.65117
2.4924
2.33344
2.17425
2.01482
1.85509
1.69504
1.53461
1.37374
1.21237
1.05045
0.887851
0.724776
0.560387
0.397622
0.228028
0.0894696
-84.0692
-3232.38
-968.278
596.341
524.868
50.9611
-103.467
-22.4803
53.3294
58.2553
37.6583
28.2321
30.6005
34.1782
34.7349
33.7785
33.1355
33.0591
33.1067
33.0344
32.8796
32.7287
32.6037
32.4874
32.3669
32.2422
32.1171
31.9931
31.8695
31.7457
31.6217
31.4975
31.3732
31.2488
31.1242
30.9995
30.8746
30.7496
30.6243
30.4989
30.3734
30.2476
30.1216
29.9954
29.869
29.7423
29.6154
29.4884
29.361
29.2335
29.1057
28.9777
28.8494
28.721
28.5923
28.4634
28.3343
28.2049
28.0753
27.9456
27.8155
27.6853
27.5548
27.4242
27.2933
27.1622
27.0309
26.8993
26.7676
26.6356
26.5034
26.3711
26.2385
26.1057
25.9727
25.8395
25.7061
25.5725
25.4387
25.3047
25.1705
25.0362
24.9016
24.7668
24.6319
24.4968
24.3614
24.2259
24.0902
23.9544
23.8183
23.6821
23.5457
23.4091
23.2723
23.1354
22.9982
22.8609
22.7234
22.5857
22.4478
22.3098
22.1715
22.0331
21.8945
21.7558
21.6168
21.4777
21.3384
21.1989
21.0592
20.9194
20.7794
20.6391
20.4987
20.3582
20.2174
20.0764
19.9353
19.794
19.6525
19.5108
19.3689
19.2269
19.0846
18.9422
18.7996
18.6568
18.5139
18.3707
18.2274
18.0839
17.9402
17.7964
17.6523
17.5081
17.3637
17.2191
17.0744
16.9295
16.7844
16.6391
16.4937
16.3481
16.2023
16.0564
15.9103
15.764
15.6176
15.471
15.3242
15.1773
15.0303
14.8831
14.7357
14.5882
14.4405
14.2926
14.1446
13.9965
13.8482
13.6998
13.5512
13.4024
13.2535
13.1045
12.9553
12.8059
12.6564
12.5068
12.357
12.207
12.0569
11.9066
11.7562
11.6057
11.455
11.3041
11.1531
11.002
10.8507
10.6993
10.5477
10.396
10.2441
10.0921
9.93997
9.78768
9.63525
9.48268
9.32997
9.17711
9.02412
8.87099
8.71772
8.56431
8.41076
8.25708
8.10326
7.9493
7.79521
7.64098
7.48662
7.33212
7.17749
7.02273
6.86783
6.71281
6.55765
6.40236
6.24693
6.09138
5.9357
5.77988
5.62394
5.46786
5.31166
5.15533
4.99887
4.84227
4.68555
4.5287
4.37172
4.2146
4.05735
3.89997
3.74245
3.58479
3.42698
3.26903
3.11092
2.95265
2.79422
2.6356
2.47679
2.31776
2.15851
1.99901
1.83923
1.67915
1.51874
1.35796
1.19678
1.03521
0.873161
0.710903
0.547752
0.38677
0.22025
0.0857515
-84.2464
-3232.72
-968.564
596.147
524.719
50.8281
-103.584
-22.5725
53.2652
58.2168
37.6419
28.2354
30.6221
34.2164
34.788
33.8447
33.2131
33.1466
33.2028
33.1378
32.9892
32.8434
32.7226
32.6098
32.492
32.3693
32.2457
32.1226
31.9996
31.8761
31.7518
31.6272
31.5022
31.3769
31.2513
31.1254
30.9991
30.8726
30.7459
30.6189
30.4917
30.3642
30.2365
30.1085
29.9803
29.8519
29.7233
29.5944
29.4654
29.3361
29.2066
29.0769
28.947
28.8169
28.6866
28.5561
28.4254
28.2946
28.1635
28.0323
27.9008
27.7692
27.6374
27.5054
27.3732
27.2408
27.1082
26.9755
26.8426
26.7094
26.5761
26.4426
26.309
26.1751
26.0411
25.9069
25.7725
25.638
25.5033
25.3684
25.2333
25.0981
24.9627
24.8271
24.6913
24.5554
24.4193
24.283
24.1466
24.01
23.8733
23.7363
23.5993
23.462
23.3246
23.187
23.0492
22.9113
22.7732
22.6349
22.4964
22.3578
22.219
22.0801
21.9409
21.8016
21.6622
21.5225
21.3827
21.2428
21.1026
20.9623
20.8218
20.6811
20.5403
20.3993
20.258
20.1167
19.9751
19.8334
19.6914
19.5493
19.4071
19.2646
19.122
18.9792
18.8362
18.6931
18.5497
18.4062
18.2625
18.1187
17.9746
17.8304
17.686
17.5415
17.3968
17.2519
17.1068
16.9615
16.8161
16.6705
16.5248
16.3789
16.2328
16.0866
15.9402
15.7936
15.6469
15.5
15.353
15.2058
15.0585
14.911
14.7633
14.6155
14.4676
14.3195
14.1712
14.0228
13.8743
13.7256
13.5767
13.4277
13.2786
13.1293
12.9798
12.8302
12.6805
12.5306
12.3805
12.2303
12.08
11.9295
11.7789
11.6281
11.4772
11.3261
11.1749
11.0235
10.872
10.7204
10.5686
10.4166
10.2646
10.1123
9.95999
9.80749
9.65485
9.50207
9.34915
9.19609
9.0429
8.88956
8.73609
8.58248
8.42873
8.27485
8.12084
7.96669
7.81241
7.65799
7.50344
7.34875
7.19394
7.03899
6.8839
6.72869
6.57334
6.41787
6.26226
6.10652
5.95064
5.79464
5.63851
5.48224
5.32585
5.16932
5.01266
4.85587
4.69894
4.54188
4.38469
4.22736
4.06989
3.91228
3.75453
3.59663
3.43859
3.28038
3.12202
2.96349
2.80479
2.6459
2.48682
2.32753
2.16802
2.00828
1.84829
1.68803
1.52749
1.36665
1.20549
1.04402
0.882153
0.720112
0.557045
0.395756
0.227526
0.0898268
-84.3849
-3233
-968.796
595.977
524.569
50.6709
-103.747
-22.7337
53.1105
58.0671
37.4948
28.0898
30.4781
34.0741
34.6472
33.7051
33.0744
33.0087
33.0657
33.0014
32.8535
32.7084
32.5883
32.4762
32.3591
32.2372
32.1144
31.9922
31.8701
31.7475
31.6243
31.5006
31.3767
31.2525
31.1281
31.0033
30.8783
30.753
30.6274
30.5017
30.3757
30.2494
30.1229
29.9962
29.8693
29.7421
29.6147
29.4871
29.3593
29.2312
29.1029
28.9744
28.8456
28.7167
28.5875
28.4582
28.3286
28.1988
28.0688
27.9386
27.8082
27.6776
27.5468
27.4158
27.2846
27.1532
27.0215
26.8897
26.7577
26.6255
26.493
26.3604
26.2276
26.0946
25.9613
25.828
25.6944
25.5606
25.4266
25.2925
25.1582
25.0237
24.889
24.7541
24.619
24.4837
24.3483
24.2127
24.0769
23.941
23.8048
23.6685
23.5321
23.3954
23.2586
23.1216
22.9844
22.847
22.7094
22.5717
22.4338
22.2957
22.1574
22.019
21.8804
21.7416
21.6026
21.4635
21.3242
21.1847
21.045
20.9052
20.7651
20.6249
20.4845
20.3439
20.2032
20.0622
19.9211
19.7798
19.6383
19.4966
19.3548
19.2127
19.0705
18.9281
18.7856
18.6428
18.4999
18.3567
18.2134
18.07
17.9263
17.7825
17.6385
17.4943
17.3499
17.2054
17.0606
16.9158
16.7707
16.6255
16.4801
16.3345
16.1888
16.0429
15.8968
15.7506
15.6042
15.4576
15.3109
15.1641
15.017
14.8699
14.7225
14.575
14.4274
14.2796
14.1317
13.9836
13.8353
13.6869
13.5383
13.3896
13.2408
13.0918
12.9426
12.7933
12.6438
12.4942
12.3444
12.1945
12.0445
11.8943
11.7439
11.5934
11.4427
11.2919
11.141
10.9899
10.8386
10.6872
10.5357
10.384
10.2322
10.0802
9.92813
9.77588
9.62348
9.47095
9.31827
9.16546
9.0125
8.85941
8.70617
8.5528
8.39929
8.24564
8.09185
7.93793
7.78387
7.62967
7.47534
7.32087
7.16627
7.01154
6.85667
6.70166
6.54652
6.39125
6.23584
6.0803
5.92463
5.76882
5.61287
5.4568
5.30058
5.14424
4.98775
4.83113
4.67437
4.51748
4.36044
4.20326
4.04594
3.88847
3.73085
3.57308
3.41515
3.25707
3.09882
2.9404
2.7818
2.62302
2.46405
2.30488
2.1455
1.98591
1.82608
1.66602
1.50572
1.34518
1.18439
1.02338
0.862107
0.700873
0.539055
0.379739
0.215557
0.083556
-84.4921
-3233.21
-968.976
595.846
524.457
50.5575
-103.859
-22.8363
53.0212
57.9906
37.4293
28.0348
30.4337
34.0405
34.6238
33.6913
33.0697
33.0125
33.0775
33.0207
32.8796
32.7408
32.6265
32.5197
32.4074
32.2899
32.171
32.0524
31.9335
31.8137
31.693
31.5716
31.4497
31.3272
31.2042
31.0808
30.9568
30.8325
30.7078
30.5827
30.4572
30.3314
30.2052
30.0787
29.952
29.8249
29.6975
29.5698
29.4418
29.3136
29.1851
29.0563
28.9273
28.7981
28.6686
28.5389
28.4089
28.2788
28.1484
28.0178
27.8869
27.7559
27.6246
27.4931
27.3614
27.2296
27.0975
26.9651
26.8326
26.6999
26.567
26.4339
26.3006
26.1671
26.0334
25.8995
25.7654
25.6311
25.4967
25.3621
25.2272
25.0922
24.9571
24.8217
24.6861
24.5504
24.4145
24.2784
24.1422
24.0058
23.8692
23.7324
23.5955
23.4583
23.3211
23.1836
23.0459
22.9081
22.7701
22.632
22.4936
22.3551
22.2164
22.0775
21.9385
21.7993
21.6599
21.5203
21.3806
21.2407
21.1006
20.9603
20.8199
20.6793
20.5385
20.3975
20.2564
20.115
19.9735
19.8318
19.6899
19.5479
19.4056
19.2632
19.1206
18.9778
18.8349
18.6918
18.5485
18.405
18.2613
18.1175
17.9735
17.8293
17.6849
17.5404
17.3956
17.2507
17.1057
16.9605
16.8151
16.6695
16.5238
16.3779
16.2318
16.0856
15.9392
15.7926
15.6459
15.499
15.352
15.2048
15.0575
14.91
14.7623
14.6146
14.4666
14.3185
14.1702
14.0218
13.8733
13.7246
13.5757
13.4267
13.2776
13.1283
12.9788
12.8292
12.6795
12.5296
12.3795
12.2293
12.079
11.9285
11.7779
11.6271
11.4761
11.3251
11.1739
11.0225
10.871
10.7193
10.5675
10.4156
10.2635
10.1113
9.95893
9.80642
9.65378
9.50099
9.34806
9.195
9.04179
8.88845
8.73497
8.58136
8.4276
8.27371
8.11969
7.96553
7.81123
7.6568
7.50223
7.34753
7.1927
7.03773
6.88263
6.72739
6.57202
6.41652
6.26088
6.10511
5.9492
5.79316
5.63699
5.48068
5.32423
5.16765
5.01094
4.85408
4.69709
4.53995
4.38268
4.22526
4.06769
3.90998
3.75211
3.5941
3.43592
3.27759
3.11909
2.96043
2.80159
2.64257
2.48337
2.32398
2.1644
2.00461
1.84463
1.68443
1.52403
1.36342
1.20259
1.04156
0.880253
0.718875
0.55653
0.395928
0.228129
0.09035
-84.5717
-3233.37
-969.111
595.748
524.371
50.4698
-103.949
-22.9229
52.9407
57.9152
37.3572
27.9652
30.3665
33.9756
34.5609
33.6298
33.0092
32.9528
33.0182
32.9615
32.8204
32.6814
32.5667
32.4593
32.3464
32.2282
32.1085
31.9891
31.8693
31.7487
31.6271
31.5049
31.3821
31.2588
31.135
31.0108
30.8861
30.7611
30.6357
30.51
30.3839
30.2575
30.1309
30.0039
29.8767
29.7491
29.6214
29.4934
29.3651
29.2366
29.1079
28.9789
28.8497
28.7203
28.5907
28.4609
28.3309
28.2007
28.0703
27.9396
27.8088
27.6778
27.5466
27.4152
27.2836
27.1518
27.0199
26.8877
26.7553
26.6228
26.49
26.3571
26.224
26.0907
25.9572
25.8236
25.6898
25.5558
25.4216
25.2872
25.1527
25.018
24.8831
24.748
24.6127
24.4773
24.3417
24.206
24.0701
23.934
23.7977
23.6613
23.5247
23.3879
23.251
23.1139
22.9766
22.8391
22.7015
22.5636
22.4257
22.2875
22.1492
22.0107
21.872
21.7331
21.5941
21.4549
21.3156
21.176
21.0363
20.8964
20.7564
20.6161
20.4757
20.3351
20.1943
20.0534
19.9122
19.7709
19.6294
19.4877
19.3458
19.2038
19.0615
18.9191
18.7766
18.6338
18.4909
18.3477
18.2044
18.061
17.9173
17.7735
17.6295
17.4853
17.3409
17.1964
17.0517
16.9068
16.7617
16.6165
16.4711
16.3256
16.1799
16.034
15.8879
15.7417
15.5954
15.4488
15.3021
15.1553
15.0083
14.8611
14.7138
14.5663
14.4187
14.2709
14.123
13.9749
13.8267
13.6783
13.5298
13.3811
13.2323
13.0833
12.9341
12.7848
12.6354
12.4858
12.3361
12.1862
12.0361
11.886
11.7356
11.5851
11.4345
11.2837
11.1328
10.9817
10.8305
10.6791
10.5276
10.376
10.2242
10.0722
9.92014
9.76792
9.61555
9.46304
9.31038
9.15759
9.00466
8.85158
8.69837
8.54502
8.39153
8.2379
8.08413
7.93023
7.77619
7.62202
7.4677
7.31325
7.15867
7.00395
6.84909
6.6941
6.53897
6.3837
6.2283
6.07277
5.9171
5.76129
5.60534
5.44926
5.29303
5.13667
4.98017
4.82353
4.66674
4.50981
4.35274
4.19551
4.03814
3.88062
3.72295
3.56512
3.40713
3.24898
3.09067
2.93218
2.77353
2.6147
2.45569
2.2965
2.13713
1.97757
1.81783
1.65789
1.49778
1.33748
1.17702
1.01641
0.855649
0.695028
0.533969
0.375579
0.212727
0.0821966
-84.6267
-3233.48
-969.206
595.679
524.312
50.4088
-104.012
-22.983
52.886
57.8657
37.3119
27.9238
30.3294
33.943
34.5327
33.6061
32.9898
32.9375
33.007
32.9544
32.8172
32.6819
32.5708
32.4669
32.3574
32.2424
32.1258
32.0093
31.8924
31.7744
31.6554
31.5356
31.4152
31.2941
31.1725
31.0503
30.9275
30.8043
30.6806
30.5566
30.4321
30.3072
30.1819
30.0563
29.9304
29.8041
29.6774
29.5505
29.4232
29.2957
29.1679
29.0397
28.9113
28.7827
28.6538
28.5246
28.3952
28.2655
28.1356
28.0055
27.8751
27.7445
27.6137
27.4826
27.3513
27.2198
27.0881
26.9561
26.824
26.6916
26.559
26.4262
26.2931
26.1599
26.0265
25.8929
25.7591
25.625
25.4908
25.3564
25.2218
25.087
24.952
24.8168
24.6815
24.5459
24.4102
24.2743
24.1382
24.0019
23.8655
23.7288
23.592
23.455
23.3179
23.1805
23.043
22.9053
22.7674
22.6293
22.491
22.3526
22.214
22.0752
21.9363
21.7971
21.6578
21.5183
21.3786
21.2388
21.0988
20.9586
20.8182
20.6776
20.5369
20.396
20.2549
20.1136
19.9721
19.8304
19.6886
19.5466
19.4044
19.262
19.1194
18.9767
18.8338
18.6907
18.5474
18.4039
18.2603
18.1165
17.9725
17.8283
17.684
17.5394
17.3947
17.2499
17.1048
16.9596
16.8142
16.6687
16.523
16.3771
16.231
16.0848
15.9384
15.7919
15.6452
15.4983
15.3513
15.2041
15.0568
14.9093
14.7617
14.6139
14.4659
14.3178
14.1696
14.0212
13.8726
13.7239
13.5751
13.4261
13.2769
13.1276
12.9782
12.8286
12.6788
12.5289
12.3789
12.2287
12.0784
11.9279
11.7772
11.6265
11.4755
11.3244
11.1732
11.0219
10.8704
10.7187
10.5669
10.415
10.2629
10.1107
9.9583
9.80579
9.65314
9.50035
9.34742
9.19436
9.04115
8.8878
8.73432
8.5807
8.42694
8.27304
8.11901
7.96484
7.81054
7.6561
7.50153
7.34682
7.19198
7.037
6.88188
6.72663
6.57125
6.41573
6.26008
6.10429
5.94836
5.7923
5.6361
5.47976
5.32328
5.16667
5.00992
4.85302
4.69599
4.53881
4.38148
4.22401
4.06639
3.90862
3.7507
3.59262
3.43439
3.27599
3.11743
2.95871
2.79982
2.64076
2.48153
2.32212
2.16254
2.00279
1.84286
1.68276
1.52249
1.36205
1.20145
1.0407
0.879707
0.718675
0.556675
0.396362
0.228669
0.0907212
-84.6587
-3233.54
-969.262
595.637
524.278
50.3734
-104.049
-23.0194
52.8528
57.8353
37.2833
27.8966
30.3035
33.9186
34.5097
33.584
32.9684
32.9167
32.9866
32.9342
32.7969
32.6614
32.5499
32.4455
32.3352
32.2193
32.1018
31.9843
31.8662
31.747
31.6267
31.5056
31.3837
31.2612
31.1381
31.0145
30.8903
30.7656
30.6405
30.5149
30.389
30.2627
30.136
30.009
29.8817
29.7541
29.6262
29.4981
29.3696
29.2409
29.112
28.9828
28.8534
28.7238
28.594
28.4639
28.3336
28.2032
28.0725
27.9417
27.8106
27.6794
27.5479
27.4163
27.2845
27.1525
27.0203
26.888
26.7554
26.6227
26.4897
26.3566
26.2233
26.0899
25.9563
25.8225
25.6885
25.5543
25.42
25.2855
25.1508
25.016
24.881
24.7458
24.6104
24.4749
24.3392
24.2034
24.0673
23.9312
23.7948
23.6583
23.5216
23.3848
23.2478
23.1106
22.9732
22.8357
22.698
22.5601
22.4221
22.2839
22.1455
22.007
21.8682
21.7294
21.5903
21.4511
21.3117
21.1721
21.0324
20.8925
20.7524
20.6121
20.4716
20.331
20.1902
20.0492
19.9081
19.7667
19.6252
19.4835
19.3416
19.1996
19.0573
18.9149
18.7723
18.6295
18.4866
18.3435
18.2002
18.0567
17.913
17.7692
17.6252
17.481
17.3366
17.1921
17.0474
16.9025
16.7574
16.6122
16.4668
16.3213
16.1756
16.0297
15.8837
15.7374
15.5911
15.4446
15.2979
15.151
15.004
14.8569
14.7096
14.5621
14.4145
14.2667
14.1188
13.9707
13.8225
13.6741
13.5256
13.3769
13.2281
13.0791
12.93
12.7807
12.6313
12.4817
12.332
12.1821
12.0321
11.8819
11.7315
11.5811
11.4305
11.2797
11.1288
10.9777
10.8265
10.6751
10.5236
10.372
10.2202
10.0683
9.91621
9.76399
9.61163
9.45913
9.30649
9.15371
9.00078
8.84772
8.69452
8.54118
8.38769
8.23408
8.08032
7.92643
7.77239
7.61823
7.46392
7.30948
7.1549
7.00018
6.84533
6.69034
6.53522
6.37995
6.22456
6.06902
5.91335
5.75754
5.60158
5.44549
5.28926
5.13289
4.97638
4.81972
4.66292
4.50598
4.34889
4.19164
4.03425
3.87671
3.71901
3.56115
3.40314
3.24496
3.08663
2.92812
2.76945
2.61062
2.45161
2.29243
2.13309
1.97357
1.81388
1.65404
1.49403
1.33388
1.17358
1.0132
0.852689
0.69238
0.531708
0.373787
0.211567
0.0816658
-84.6691
-3233.56
-969.281
595.623
524.266
50.3618
-104.062
-23.0316
52.8416
57.8252
37.274
27.8878
30.2956
33.9116
34.5036
33.5789
32.9643
32.9137
32.9847
32.9335
32.7975
32.6633
32.5533
32.4503
32.3416
32.2273
32.1114
31.9956
31.8792
31.7618
31.6433
31.524
31.404
31.2833
31.1621
31.0402
30.9178
30.7949
30.6716
30.5478
30.4236
30.299
30.174
30.0487
29.923
29.7969
29.6705
29.5438
29.4168
29.2895
29.1619
29.0339
28.9058
28.7773
28.6486
28.5196
28.3903
28.2609
28.1311
28.0011
27.8709
27.7405
27.6098
27.4788
27.3477
27.2163
27.0847
26.9529
26.8208
26.6885
26.556
26.4233
26.2904
26.1573
26.024
25.8904
25.7567
25.6227
25.4886
25.3543
25.2197
25.085
24.9501
24.815
24.6797
24.5442
24.4085
24.2727
24.1366
24.0004
23.864
23.7274
23.5907
23.4537
23.3166
23.1793
23.0418
22.9041
22.7662
22.6282
22.49
22.3516
22.213
22.0742
21.9353
21.7962
21.6569
21.5174
21.3778
21.238
21.098
20.9578
20.8174
20.6769
20.5362
20.3953
20.2542
20.1129
19.9714
19.8298
19.688
19.546
19.4038
19.2614
19.1189
18.9761
18.8332
18.6901
18.5469
18.4034
18.2598
18.116
17.972
17.8278
17.6835
17.539
17.3943
17.2494
17.1044
16.9592
16.8138
16.6682
16.5225
16.3767
16.2306
16.0844
15.938
15.7915
15.6448
15.4979
15.3509
15.2038
15.0564
14.9089
14.7613
14.6135
14.4656
14.3175
14.1693
14.0209
13.8723
13.7236
13.5748
13.4258
13.2766
13.1273
12.9779
12.8283
12.6785
12.5286
12.3786
12.2284
12.0781
11.9276
11.7769
11.6262
11.4752
11.3242
11.1729
11.0216
10.8701
10.7184
10.5666
10.4147
10.2626
10.1104
9.95801
9.8055
9.65285
9.50006
9.34713
9.19407
9.04086
8.88751
8.73403
8.58041
8.42665
8.27275
8.11872
7.96455
7.81025
7.65581
7.50123
7.34652
7.19168
7.0367
6.88158
6.72633
6.57094
6.41541
6.25975
6.10396
5.94802
5.79195
5.63575
5.4794
5.32292
5.16629
5.00953
4.85262
4.69557
4.53838
4.38104
4.22355
4.06592
3.90813
3.75019
3.59209
3.43384
3.27542
3.11685
2.95811
2.79921
2.64014
2.4809
2.3215
2.16193
2.00219
1.84229
1.68223
1.522
1.36163
1.20109
1.04041
0.87949
0.718522
0.556568
0.396281
0.228604
0.0906894
-84.6587
-3233.54
-969.262
595.637
524.278
50.3734
-104.049
-23.0194
52.8527
57.8353
37.2833
27.8965
30.3035
33.9186
34.5097
33.584
32.9685
32.9168
32.9866
32.9342
32.7969
32.6614
32.5499
32.4455
32.3352
32.2193
32.1018
31.9843
31.8662
31.747
31.6267
31.5056
31.3837
31.2613
31.1382
31.0145
30.8903
30.7656
30.6404
30.5149
30.3889
30.2626
30.136
30.009
29.8817
29.7541
29.6262
29.4981
29.3696
29.2409
29.112
28.9828
28.8534
28.7238
28.594
28.4639
28.3336
28.2032
28.0725
27.9417
27.8106
27.6794
27.5479
27.4163
27.2845
27.1525
27.0203
26.8879
26.7554
26.6227
26.4897
26.3566
26.2234
26.0899
25.9563
25.8225
25.6885
25.5543
25.42
25.2855
25.1508
25.016
24.881
24.7458
24.6104
24.4749
24.3392
24.2034
24.0674
23.9312
23.7948
23.6583
23.5216
23.3848
23.2478
23.1106
22.9732
22.8357
22.698
22.5602
22.4221
22.2839
22.1455
22.007
21.8683
21.7294
21.5903
21.4511
21.3117
21.1721
21.0324
20.8925
20.7524
20.6121
20.4716
20.331
20.1902
20.0492
19.9081
19.7667
19.6252
19.4835
19.3416
19.1995
19.0573
18.9149
18.7723
18.6295
18.4866
18.3434
18.2001
18.0567
17.913
17.7692
17.6251
17.481
17.3366
17.1921
17.0474
16.9025
16.7574
16.6122
16.4668
16.3213
16.1756
16.0297
15.8836
15.7374
15.5911
15.4446
15.2979
15.151
15.004
14.8569
14.7096
14.5621
14.4145
14.2667
14.1188
13.9707
13.8225
13.6741
13.5256
13.3769
13.2281
13.0791
12.93
12.7807
12.6313
12.4817
12.332
12.1821
12.0321
11.8819
11.7315
11.5811
11.4305
11.2797
11.1288
10.9777
10.8265
10.6751
10.5236
10.372
10.2202
10.0683
9.91621
9.764
9.61164
9.45914
9.3065
9.15371
9.00079
8.84773
8.69452
8.54118
8.3877
8.23408
8.08033
7.92643
7.7724
7.61823
7.46392
7.30948
7.1549
7.00019
6.84534
6.69035
6.53522
6.37996
6.22456
6.06903
5.91336
5.75754
5.60159
5.4455
5.28927
5.1329
4.97639
4.81973
4.66293
4.50599
4.34889
4.19165
4.03426
3.87672
3.71902
3.56116
3.40315
3.24497
3.08663
2.92813
2.76946
2.61062
2.45162
2.29244
2.13309
1.97357
1.81389
1.65404
1.49403
1.33388
1.17359
1.0132
0.852692
0.692383
0.53171
0.373789
0.211568
0.0816664
-84.6267
-3233.48
-969.206
595.679
524.312
50.4088
-104.012
-22.983
52.886
57.8657
37.312
27.9238
30.3294
33.943
34.5327
33.6061
32.9898
32.9375
33.007
32.9544
32.8171
32.6819
32.5708
32.4669
32.3574
32.2423
32.1258
32.0093
31.8924
31.7744
31.6554
31.5356
31.4152
31.2941
31.1725
31.0503
30.9275
30.8043
30.6806
30.5566
30.4321
30.3072
30.1819
30.0563
29.9303
29.804
29.6774
29.5505
29.4232
29.2957
29.1678
29.0397
28.9113
28.7827
28.6538
28.5246
28.3952
28.2655
28.1356
28.0055
27.8751
27.7445
27.6137
27.4826
27.3513
27.2198
27.0881
26.9561
26.824
26.6916
26.559
26.4262
26.2932
26.1599
26.0265
25.8929
25.7591
25.625
25.4908
25.3564
25.2218
25.087
24.952
24.8169
24.6815
24.546
24.4102
24.2743
24.1382
24.0019
23.8655
23.7289
23.5921
23.4551
23.3179
23.1805
23.043
22.9053
22.7674
22.6293
22.4911
22.3526
22.214
22.0752
21.9363
21.7971
21.6578
21.5183
21.3787
21.2388
21.0988
20.9586
20.8182
20.6776
20.5369
20.396
20.2549
20.1136
19.9721
19.8304
19.6886
19.5466
19.4044
19.262
19.1194
18.9767
18.8338
18.6907
18.5474
18.4039
18.2603
18.1165
17.9725
17.8283
17.6839
17.5394
17.3947
17.2499
17.1048
16.9596
16.8142
16.6687
16.5229
16.377
16.231
16.0848
15.9384
15.7919
15.6452
15.4983
15.3513
15.2041
15.0568
14.9093
14.7617
14.6139
14.4659
14.3178
14.1696
14.0212
13.8727
13.724
13.5751
13.4261
13.277