/*--------------------------------*- C++ -*----------------------------------*\
| =========                 |                                                 |
| \\      /  F ield         | OpenFOAM: The Open Source CFD Toolbox           |
|  \\    /   O peration     | Version:  2406                                  |
|   \\  /    A nd           | Website:  www.openfoam.com                      |
|    \\/     M anipulation  |                                                 |
\*---------------------------------------------------------------------------*/
FoamFile
{
    version     2.0;
    format      ascii;
    arch        "LSB;label=32;scalar=64";
    class       surfaceScalarField;
    location    "0.25";
    object      phi;
}
// * * * * * * * * * * * * * * * * * * * * * * * * * * * * * * * * * * * * * //

dimensions      [0 3 -1 0 0 0 0];

oriented        oriented;

internalField   nonuniform List<scalar> 
12225
(
5.08713e-05
5.09407e-09
5.08544e-05
1.69716e-08
5.08337e-05
2.06669e-08
5.08148e-05
1.88762e-08
5.07963e-05
1.85317e-08
5.07759e-05
2.04304e-08
5.07536e-05
2.22721e-08
5.07304e-05
2.31708e-08
5.07069e-05
2.35348e-08
5.0683e-05
2.39004e-08
5.06586e-05
2.43508e-08
5.06339e-05
2.47583e-08
5.06088e-05
2.50619e-08
5.05835e-05
2.529e-08
5.0558e-05
2.54825e-08
5.05324e-05
2.56528e-08
5.05066e-05
2.5799e-08
5.04807e-05
2.59209e-08
5.04546e-05
2.60225e-08
5.04285e-05
2.61085e-08
5.04024e-05
2.61819e-08
5.03761e-05
2.62444e-08
5.03498e-05
2.62974e-08
5.03235e-05
2.63424e-08
5.02971e-05
2.63805e-08
5.02707e-05
2.64127e-08
5.02442e-05
2.644e-08
5.02178e-05
2.64629e-08
5.01913e-05
2.6482e-08
5.01648e-05
2.64979e-08
5.01383e-05
2.6511e-08
5.01118e-05
2.65217e-08
5.00852e-05
2.65303e-08
5.00587e-05
2.6537e-08
5.00322e-05
2.65421e-08
5.00056e-05
2.65459e-08
4.99791e-05
2.65483e-08
4.99525e-05
2.65497e-08
4.9926e-05
2.65502e-08
4.98994e-05
2.65498e-08
4.98729e-05
2.65486e-08
4.98463e-05
2.65468e-08
4.98198e-05
2.65445e-08
4.97932e-05
2.65416e-08
4.97667e-05
2.65384e-08
4.97402e-05
2.65347e-08
4.97136e-05
2.65307e-08
4.96871e-05
2.65264e-08
4.96606e-05
2.65218e-08
4.96341e-05
2.6517e-08
4.96075e-05
2.65119e-08
4.9581e-05
2.65066e-08
4.95545e-05
2.65012e-08
4.9528e-05
2.64955e-08
4.95016e-05
2.64898e-08
4.94751e-05
2.64839e-08
4.94486e-05
2.64779e-08
4.94221e-05
2.64718e-08
4.93957e-05
2.64656e-08
4.93692e-05
2.64594e-08
4.93427e-05
2.64531e-08
4.93163e-05
2.64468e-08
4.92899e-05
2.64404e-08
4.92634e-05
2.6434e-08
4.9237e-05
2.64275e-08
4.92106e-05
2.6421e-08
4.91842e-05
2.64144e-08
4.91577e-05
2.64079e-08
4.91313e-05
2.64012e-08
4.9105e-05
2.63945e-08
4.90786e-05
2.63878e-08
4.90522e-05
2.63811e-08
4.90258e-05
2.63743e-08
4.89994e-05
2.63676e-08
4.89731e-05
2.63608e-08
4.89467e-05
2.6354e-08
4.89204e-05
2.63472e-08
4.8894e-05
2.63403e-08
4.88677e-05
2.63335e-08
4.88414e-05
2.63267e-08
4.88151e-05
2.63198e-08
4.87887e-05
2.6313e-08
4.87624e-05
2.63061e-08
4.87361e-05
2.62993e-08
4.87098e-05
2.62924e-08
4.86836e-05
2.62856e-08
4.86573e-05
2.62787e-08
4.8631e-05
2.62718e-08
4.86047e-05
2.6265e-08
4.85785e-05
2.62581e-08
4.85522e-05
2.62512e-08
4.8526e-05
2.62443e-08
4.84998e-05
2.62374e-08
4.84735e-05
2.62305e-08
4.84473e-05
2.62236e-08
4.84211e-05
2.62167e-08
4.83949e-05
2.62098e-08
4.83687e-05
2.62028e-08
4.83425e-05
2.61959e-08
4.83163e-05
2.61889e-08
4.82901e-05
2.61819e-08
4.82639e-05
2.61749e-08
4.82378e-05
2.61679e-08
4.82116e-05
2.61608e-08
4.81854e-05
2.61538e-08
4.81593e-05
2.61468e-08
4.81332e-05
2.61397e-08
4.8107e-05
2.61327e-08
4.80809e-05
2.61257e-08
4.80548e-05
2.61187e-08
4.80287e-05
2.61117e-08
4.80026e-05
2.61047e-08
4.79765e-05
2.60977e-08
4.79504e-05
2.60907e-08
4.79243e-05
2.60837e-08
4.78982e-05
2.60767e-08
4.78721e-05
2.60697e-08
4.78461e-05
2.60627e-08
4.782e-05
2.60557e-08
4.7794e-05
2.60487e-08
4.77679e-05
2.60417e-08
4.77419e-05
2.60347e-08
4.77159e-05
2.60276e-08
4.76899e-05
2.60205e-08
4.76638e-05
2.60135e-08
4.76378e-05
2.60064e-08
4.76118e-05
2.59993e-08
4.75858e-05
2.59922e-08
4.75599e-05
2.59851e-08
4.75339e-05
2.59779e-08
4.75079e-05
2.59708e-08
4.74819e-05
2.59637e-08
4.7456e-05
2.59565e-08
4.743e-05
2.59494e-08
4.74041e-05
2.59422e-08
4.73782e-05
2.59351e-08
4.73522e-05
2.59279e-08
4.73263e-05
2.59207e-08
4.73004e-05
2.59135e-08
4.72745e-05
2.59063e-08
4.72486e-05
2.58992e-08
4.72227e-05
2.5892e-08
4.71968e-05
2.58848e-08
4.71709e-05
2.58776e-08
4.71451e-05
2.58704e-08
4.71192e-05
2.58632e-08
4.70934e-05
2.58561e-08
4.70675e-05
2.58489e-08
4.70417e-05
2.58417e-08
4.70158e-05
2.58345e-08
4.699e-05
2.58274e-08
4.69642e-05
2.58202e-08
4.69384e-05
2.5813e-08
4.69126e-05
2.58058e-08
4.68868e-05
2.57986e-08
4.6861e-05
2.57914e-08
4.68352e-05
2.57841e-08
4.68094e-05
2.57769e-08
4.67836e-05
2.57697e-08
4.67579e-05
2.57624e-08
4.67321e-05
2.57551e-08
4.67064e-05
2.57478e-08
4.66806e-05
2.57405e-08
4.66549e-05
2.57332e-08
4.66292e-05
2.57259e-08
4.66035e-05
2.57185e-08
4.65777e-05
2.57111e-08
4.6552e-05
2.57038e-08
4.65263e-05
2.56964e-08
4.65007e-05
2.5689e-08
4.6475e-05
2.56816e-08
4.64493e-05
2.56742e-08
4.64236e-05
2.56668e-08
4.6398e-05
2.56593e-08
4.63723e-05
2.56519e-08
4.63467e-05
2.56445e-08
4.6321e-05
2.5637e-08
4.62954e-05
2.56296e-08
4.62698e-05
2.56221e-08
4.62442e-05
2.56147e-08
4.62186e-05
2.56072e-08
4.6193e-05
2.55997e-08
4.61674e-05
2.55923e-08
4.61418e-05
2.55848e-08
4.61162e-05
2.55773e-08
4.60906e-05
2.55699e-08
4.60651e-05
2.55624e-08
4.60395e-05
2.55549e-08
4.6014e-05
2.55474e-08
4.59884e-05
2.55399e-08
4.59629e-05
2.55324e-08
4.59374e-05
2.55248e-08
4.59119e-05
2.55173e-08
4.58864e-05
2.55097e-08
4.58609e-05
2.55021e-08
4.58354e-05
2.54945e-08
4.58099e-05
2.54869e-08
4.57844e-05
2.54793e-08
4.57589e-05
2.54716e-08
4.57335e-05
2.5464e-08
4.5708e-05
2.54563e-08
4.56825e-05
2.54487e-08
4.56571e-05
2.5441e-08
4.56317e-05
2.54334e-08
4.56062e-05
2.54257e-08
4.55808e-05
2.5418e-08
4.55554e-05
2.54104e-08
4.553e-05
2.54027e-08
4.55046e-05
2.53951e-08
4.54792e-05
2.53874e-08
4.54539e-05
2.53798e-08
4.54285e-05
2.53722e-08
4.54031e-05
2.53646e-08
4.53778e-05
2.5357e-08
4.53524e-05
2.53495e-08
4.53271e-05
2.5342e-08
4.53017e-05
2.53345e-08
4.52764e-05
2.53271e-08
4.52511e-05
2.53197e-08
4.52258e-05
2.53125e-08
4.52005e-05
2.53053e-08
4.51752e-05
2.52982e-08
4.51499e-05
2.52912e-08
4.51246e-05
2.52843e-08
4.50993e-05
2.52776e-08
4.5074e-05
2.52711e-08
4.50488e-05
2.52648e-08
4.50235e-05
2.52587e-08
4.49983e-05
2.5253e-08
4.4973e-05
2.52476e-08
4.49478e-05
2.52428e-08
4.49225e-05
2.52385e-08
4.48973e-05
2.52351e-08
4.48721e-05
2.52326e-08
4.48468e-05
2.52313e-08
4.48216e-05
2.52316e-08
4.47964e-05
2.52339e-08
4.47711e-05
2.52388e-08
4.47459e-05
2.52471e-08
4.47206e-05
2.52599e-08
4.46954e-05
2.52788e-08
4.467e-05
2.53058e-08
4.46447e-05
2.53445e-08
4.46193e-05
2.53981e-08
4.45938e-05
2.54782e-08
4.45682e-05
2.55791e-08
4.45425e-05
2.57672e-08
4.45166e-05
2.58949e-08
4.44901e-05
2.64601e-08
2.58166e-08
5.09062e-05
-4.21703e-10
5.09213e-05
1.83536e-09
5.0937e-05
5.04235e-09
5.09482e-05
7.59619e-09
5.09584e-05
8.38603e-09
5.09703e-05
8.51222e-09
5.09836e-05
9.02333e-09
5.0997e-05
9.73832e-09
5.10102e-05
1.0303e-08
5.10235e-05
1.06597e-08
5.10369e-05
1.09287e-08
5.10505e-05
1.11835e-08
5.10641e-05
1.14204e-08
5.10778e-05
1.16223e-08
5.10915e-05
1.17906e-08
5.11052e-05
1.19359e-08
5.11189e-05
1.20654e-08
5.11326e-05
1.21815e-08
5.11464e-05
1.22852e-08
5.11601e-05
1.23782e-08
5.11738e-05
1.24623e-08
5.11875e-05
1.25391e-08
5.12012e-05
1.26096e-08
5.12149e-05
1.26747e-08
5.12285e-05
1.27351e-08
5.12422e-05
1.27916e-08
5.12558e-05
1.28446e-08
5.12693e-05
1.28946e-08
5.12829e-05
1.2942e-08
5.12964e-05
1.29872e-08
5.13099e-05
1.30304e-08
5.13233e-05
1.30718e-08
5.13367e-05
1.31118e-08
5.13501e-05
1.31504e-08
5.13635e-05
1.31878e-08
5.13768e-05
1.32242e-08
5.13901e-05
1.32597e-08
5.14033e-05
1.32944e-08
5.14166e-05
1.33284e-08
5.14297e-05
1.33617e-08
5.14429e-05
1.33945e-08
5.1456e-05
1.34268e-08
5.14691e-05
1.34586e-08
5.14822e-05
1.349e-08
5.14952e-05
1.3521e-08
5.15082e-05
1.35517e-08
5.15211e-05
1.35822e-08
5.1534e-05
1.36124e-08
5.15469e-05
1.36423e-08
5.15597e-05
1.3672e-08
5.15726e-05
1.37016e-08
5.15853e-05
1.3731e-08
5.15981e-05
1.37602e-08
5.16108e-05
1.37892e-08
5.16234e-05
1.38182e-08
5.16361e-05
1.3847e-08
5.16487e-05
1.38756e-08
5.16613e-05
1.39042e-08
5.16738e-05
1.39327e-08
5.16863e-05
1.3961e-08
5.16987e-05
1.39893e-08
5.17112e-05
1.40174e-08
5.17236e-05
1.40455e-08
5.17359e-05
1.40735e-08
5.17483e-05
1.41014e-08
5.17606e-05
1.41293e-08
5.17728e-05
1.41571e-08
5.1785e-05
1.41848e-08
5.17972e-05
1.42125e-08
5.18094e-05
1.42401e-08
5.18215e-05
1.42676e-08
5.18336e-05
1.42951e-08
5.18456e-05
1.43226e-08
5.18577e-05
1.43499e-08
5.18696e-05
1.43772e-08
5.18816e-05
1.44045e-08
5.18935e-05
1.44317e-08
5.19054e-05
1.44588e-08
5.19172e-05
1.44859e-08
5.1929e-05
1.45129e-08
5.19408e-05
1.45399e-08
5.19526e-05
1.45668e-08
5.19643e-05
1.45936e-08
5.1976e-05
1.46204e-08
5.19876e-05
1.46471e-08
5.19992e-05
1.46738e-08
5.20108e-05
1.47005e-08
5.20223e-05
1.47271e-08
5.20339e-05
1.47536e-08
5.20453e-05
1.47801e-08
5.20568e-05
1.48065e-08
5.20682e-05
1.48329e-08
5.20796e-05
1.48592e-08
5.20909e-05
1.48855e-08
5.21022e-05
1.49117e-08
5.21135e-05
1.49379e-08
5.21247e-05
1.4964e-08
5.2136e-05
1.499e-08
5.21471e-05
1.50161e-08
5.21583e-05
1.50421e-08
5.21694e-05
1.5068e-08
5.21805e-05
1.50939e-08
5.21915e-05
1.51198e-08
5.22025e-05
1.51456e-08
5.22135e-05
1.51713e-08
5.22245e-05
1.5197e-08
5.22354e-05
1.52227e-08
5.22463e-05
1.52483e-08
5.22571e-05
1.52738e-08
5.22679e-05
1.52993e-08
5.22787e-05
1.53248e-08
5.22895e-05
1.53501e-08
5.23002e-05
1.53755e-08
5.23109e-05
1.54007e-08
5.23216e-05
1.5426e-08
5.23322e-05
1.54511e-08
5.23428e-05
1.54763e-08
5.23533e-05
1.55013e-08
5.23639e-05
1.55263e-08
5.23744e-05
1.55513e-08
5.23848e-05
1.55762e-08
5.23953e-05
1.56011e-08
5.24057e-05
1.5626e-08
5.2416e-05
1.56507e-08
5.24264e-05
1.56755e-08
5.24367e-05
1.57002e-08
5.2447e-05
1.57248e-08
5.24572e-05
1.57494e-08
5.24674e-05
1.5774e-08
5.24776e-05
1.57985e-08
5.24877e-05
1.58229e-08
5.24979e-05
1.58473e-08
5.25079e-05
1.58717e-08
5.2518e-05
1.5896e-08
5.2528e-05
1.59202e-08
5.2538e-05
1.59444e-08
5.2548e-05
1.59686e-08
5.25579e-05
1.59927e-08
5.25678e-05
1.60167e-08
5.25777e-05
1.60408e-08
5.25875e-05
1.60647e-08
5.25973e-05
1.60887e-08
5.26071e-05
1.61125e-08
5.26168e-05
1.61364e-08
5.26265e-05
1.61602e-08
5.26362e-05
1.61839e-08
5.26458e-05
1.62076e-08
5.26555e-05
1.62312e-08
5.2665e-05
1.62548e-08
5.26746e-05
1.62783e-08
5.26841e-05
1.63018e-08
5.26936e-05
1.63252e-08
5.27031e-05
1.63486e-08
5.27125e-05
1.63719e-08
5.27219e-05
1.63952e-08
5.27313e-05
1.64184e-08
5.27406e-05
1.64416e-08
5.275e-05
1.64648e-08
5.27592e-05
1.64879e-08
5.27685e-05
1.65109e-08
5.27777e-05
1.65339e-08
5.27869e-05
1.65569e-08
5.27961e-05
1.65798e-08
5.28052e-05
1.66026e-08
5.28143e-05
1.66255e-08
5.28234e-05
1.66482e-08
5.28324e-05
1.6671e-08
5.28414e-05
1.66937e-08
5.28504e-05
1.67163e-08
5.28593e-05
1.67389e-08
5.28683e-05
1.67614e-08
5.28772e-05
1.67839e-08
5.2886e-05
1.68064e-08
5.28948e-05
1.68287e-08
5.29036e-05
1.68511e-08
5.29124e-05
1.68734e-08
5.29212e-05
1.68956e-08
5.29299e-05
1.69178e-08
5.29386e-05
1.694e-08
5.29472e-05
1.69621e-08
5.29558e-05
1.69841e-08
5.29644e-05
1.70061e-08
5.2973e-05
1.70281e-08
5.29815e-05
1.705e-08
5.299e-05
1.70718e-08
5.29985e-05
1.70937e-08
5.30069e-05
1.71154e-08
5.30154e-05
1.71372e-08
5.30238e-05
1.71588e-08
5.30321e-05
1.71805e-08
5.30404e-05
1.72021e-08
5.30487e-05
1.72236e-08
5.3057e-05
1.72452e-08
5.30653e-05
1.72666e-08
5.30735e-05
1.72881e-08
5.30817e-05
1.73094e-08
5.30898e-05
1.73308e-08
5.30979e-05
1.73521e-08
5.3106e-05
1.73733e-08
5.31141e-05
1.73945e-08
5.31222e-05
1.74157e-08
5.31302e-05
1.74368e-08
5.31381e-05
1.74578e-08
5.31461e-05
1.74789e-08
5.3154e-05
1.74998e-08
5.31619e-05
1.75208e-08
5.31698e-05
1.75417e-08
5.31776e-05
1.75626e-08
5.31854e-05
1.75834e-08
5.31932e-05
1.76042e-08
5.3201e-05
1.7625e-08
5.32087e-05
1.76457e-08
5.32164e-05
1.76665e-08
5.32241e-05
1.76872e-08
5.32317e-05
1.77079e-08
5.32393e-05
1.77286e-08
5.32469e-05
1.77494e-08
5.32545e-05
1.77701e-08
5.3262e-05
1.77909e-08
5.32695e-05
1.78116e-08
5.3277e-05
1.78325e-08
5.32844e-05
1.78534e-08
5.32918e-05
1.78743e-08
5.32992e-05
1.78954e-08
5.33066e-05
1.79165e-08
5.33139e-05
1.79378e-08
5.33212e-05
1.79593e-08
5.33285e-05
1.7981e-08
5.33358e-05
1.80029e-08
5.3343e-05
1.80252e-08
5.33502e-05
1.80478e-08
5.33573e-05
1.8071e-08
5.33645e-05
1.80947e-08
5.33716e-05
1.81192e-08
5.33787e-05
1.81445e-08
5.33857e-05
1.8171e-08
5.33928e-05
1.81989e-08
5.33998e-05
1.82285e-08
5.34068e-05
1.82601e-08
5.34137e-05
1.82944e-08
5.34207e-05
1.83319e-08
5.34276e-05
1.83732e-08
5.34345e-05
1.84191e-08
5.34415e-05
1.847e-08
5.34484e-05
1.85271e-08
5.34554e-05
1.85874e-08
5.34625e-05
1.86549e-08
5.34697e-05
1.87133e-08
5.34774e-05
1.87747e-08
1.90018e-08
5.09003e-05
6.36302e-10
5.08995e-05
2.65831e-09
5.09003e-05
4.21146e-09
5.09027e-05
5.20789e-09
5.09051e-05
5.95371e-09
5.0907e-05
6.60912e-09
5.09088e-05
7.25605e-09
5.09107e-05
7.85906e-09
5.09126e-05
8.35962e-09
5.09145e-05
8.75624e-09
5.09164e-05
9.08812e-09
5.09182e-05
9.38496e-09
5.09199e-05
9.65132e-09
5.09217e-05
9.88381e-09
5.09234e-05
1.00846e-08
5.09251e-05
1.02602e-08
5.09267e-05
1.04159e-08
5.09283e-05
1.05547e-08
5.09299e-05
1.06784e-08
5.09315e-05
1.07887e-08
5.09331e-05
1.08876e-08
5.09347e-05
1.09768e-08
5.09362e-05
1.10574e-08
5.09378e-05
1.11307e-08
5.09393e-05
1.11974e-08
5.09408e-05
1.12585e-08
5.09424e-05
1.13147e-08
5.09439e-05
1.13665e-08
5.09454e-05
1.14145e-08
5.09469e-05
1.14592e-08
5.09485e-05
1.1501e-08
5.095e-05
1.15402e-08
5.09515e-05
1.15771e-08
5.09531e-05
1.1612e-08
5.09546e-05
1.16451e-08
5.09562e-05
1.16766e-08
5.09577e-05
1.17067e-08
5.09593e-05
1.17356e-08
5.09608e-05
1.17634e-08
5.09624e-05
1.17902e-08
5.0964e-05
1.18161e-08
5.09656e-05
1.18413e-08
5.09672e-05
1.18658e-08
5.09688e-05
1.18896e-08
5.09704e-05
1.1913e-08
5.0972e-05
1.19358e-08
5.09736e-05
1.19582e-08
5.09752e-05
1.19801e-08
5.09769e-05
1.20017e-08
5.09785e-05
1.2023e-08
5.09802e-05
1.2044e-08
5.09819e-05
1.20647e-08
5.09835e-05
1.20851e-08
5.09852e-05
1.21053e-08
5.09869e-05
1.21254e-08
5.09886e-05
1.21452e-08
5.09903e-05
1.21649e-08
5.0992e-05
1.21844e-08
5.09938e-05
1.22038e-08
5.09955e-05
1.22231e-08
5.09973e-05
1.22422e-08
5.0999e-05
1.22612e-08
5.10008e-05
1.22801e-08
5.10026e-05
1.2299e-08
5.10043e-05
1.23177e-08
5.10061e-05
1.23363e-08
5.10079e-05
1.23548e-08
5.10097e-05
1.23733e-08
5.10116e-05
1.23916e-08
5.10134e-05
1.24099e-08
5.10152e-05
1.24282e-08
5.10171e-05
1.24463e-08
5.10189e-05
1.24644e-08
5.10208e-05
1.24824e-08
5.10227e-05
1.25004e-08
5.10246e-05
1.25183e-08
5.10265e-05
1.25362e-08
5.10284e-05
1.2554e-08
5.10303e-05
1.25717e-08
5.10322e-05
1.25894e-08
5.10341e-05
1.2607e-08
5.10361e-05
1.26246e-08
5.1038e-05
1.26422e-08
5.104e-05
1.26597e-08
5.1042e-05
1.26771e-08
5.10439e-05
1.26945e-08
5.10459e-05
1.27118e-08
5.10479e-05
1.27291e-08
5.10499e-05
1.27464e-08
5.1052e-05
1.27636e-08
5.1054e-05
1.27807e-08
5.1056e-05
1.27979e-08
5.10581e-05
1.28149e-08
5.10601e-05
1.2832e-08
5.10622e-05
1.28489e-08
5.10643e-05
1.28659e-08
5.10663e-05
1.28828e-08
5.10684e-05
1.28996e-08
5.10705e-05
1.29164e-08
5.10726e-05
1.29331e-08
5.10747e-05
1.29498e-08
5.10769e-05
1.29665e-08
5.1079e-05
1.29831e-08
5.10812e-05
1.29997e-08
5.10833e-05
1.30162e-08
5.10855e-05
1.30327e-08
5.10877e-05
1.30492e-08
5.10898e-05
1.30656e-08
5.1092e-05
1.3082e-08
5.10942e-05
1.30984e-08
5.10964e-05
1.31147e-08
5.10987e-05
1.3131e-08
5.11009e-05
1.31473e-08
5.11031e-05
1.31635e-08
5.11054e-05
1.31796e-08
5.11076e-05
1.31958e-08
5.11099e-05
1.32119e-08
5.11122e-05
1.32279e-08
5.11144e-05
1.32439e-08
5.11167e-05
1.32599e-08
5.1119e-05
1.32758e-08
5.11213e-05
1.32917e-08
5.11237e-05
1.33076e-08
5.1126e-05
1.33234e-08
5.11283e-05
1.33392e-08
5.11307e-05
1.33549e-08
5.1133e-05
1.33706e-08
5.11354e-05
1.33863e-08
5.11378e-05
1.34019e-08
5.11401e-05
1.34175e-08
5.11425e-05
1.34331e-08
5.11449e-05
1.34486e-08
5.11473e-05
1.34641e-08
5.11498e-05
1.34796e-08
5.11522e-05
1.3495e-08
5.11546e-05
1.35104e-08
5.11571e-05
1.35257e-08
5.11595e-05
1.35411e-08
5.1162e-05
1.35563e-08
5.11644e-05
1.35716e-08
5.11669e-05
1.35868e-08
5.11694e-05
1.3602e-08
5.11719e-05
1.36171e-08
5.11744e-05
1.36322e-08
5.11769e-05
1.36473e-08
5.11794e-05
1.36623e-08
5.1182e-05
1.36773e-08
5.11845e-05
1.36923e-08
5.11871e-05
1.37073e-08
5.11896e-05
1.37222e-08
5.11922e-05
1.37371e-08
5.11947e-05
1.3752e-08
5.11973e-05
1.37668e-08
5.11999e-05
1.37816e-08
5.12025e-05
1.37963e-08
5.12051e-05
1.38111e-08
5.12077e-05
1.38257e-08
5.12104e-05
1.38404e-08
5.1213e-05
1.3855e-08
5.12156e-05
1.38696e-08
5.12183e-05
1.38841e-08
5.1221e-05
1.38986e-08
5.12236e-05
1.39131e-08
5.12263e-05
1.39276e-08
5.1229e-05
1.3942e-08
5.12317e-05
1.39563e-08
5.12344e-05
1.39707e-08
5.12371e-05
1.3985e-08
5.12398e-05
1.39993e-08
5.12425e-05
1.40135e-08
5.12453e-05
1.40277e-08
5.1248e-05
1.40419e-08
5.12507e-05
1.40561e-08
5.12535e-05
1.40702e-08
5.12563e-05
1.40843e-08
5.1259e-05
1.40984e-08
5.12618e-05
1.41124e-08
5.12646e-05
1.41264e-08
5.12674e-05
1.41404e-08
5.12702e-05
1.41544e-08
5.1273e-05
1.41683e-08
5.12759e-05
1.41822e-08
5.12787e-05
1.4196e-08
5.12815e-05
1.42099e-08
5.12844e-05
1.42237e-08
5.12872e-05
1.42375e-08
5.12901e-05
1.42512e-08
5.1293e-05
1.42649e-08
5.12959e-05
1.42786e-08
5.12987e-05
1.42922e-08
5.13016e-05
1.43059e-08
5.13045e-05
1.43195e-08
5.13075e-05
1.4333e-08
5.13104e-05
1.43466e-08
5.13133e-05
1.43601e-08
5.13162e-05
1.43736e-08
5.13192e-05
1.4387e-08
5.13221e-05
1.44005e-08
5.13251e-05
1.44139e-08
5.13281e-05
1.44273e-08
5.1331e-05
1.44407e-08
5.1334e-05
1.4454e-08
5.1337e-05
1.44674e-08
5.134e-05
1.44807e-08
5.1343e-05
1.4494e-08
5.1346e-05
1.45073e-08
5.13491e-05
1.45205e-08
5.13521e-05
1.45338e-08
5.13551e-05
1.4547e-08
5.13582e-05
1.45603e-08
5.13612e-05
1.45735e-08
5.13643e-05
1.45867e-08
5.13673e-05
1.46e-08
5.13704e-05
1.46132e-08
5.13735e-05
1.46265e-08
5.13766e-05
1.46397e-08
5.13797e-05
1.4653e-08
5.13828e-05
1.46664e-08
5.13859e-05
1.46797e-08
5.1389e-05
1.46932e-08
5.13921e-05
1.47067e-08
5.13953e-05
1.47203e-08
5.13984e-05
1.47339e-08
5.14016e-05
1.47477e-08
5.14047e-05
1.47617e-08
5.14079e-05
1.47758e-08
5.1411e-05
1.47901e-08
5.14142e-05
1.48046e-08
5.14174e-05
1.48194e-08
5.14206e-05
1.48346e-08
5.14238e-05
1.48501e-08
5.1427e-05
1.48661e-08
5.14302e-05
1.48826e-08
5.14334e-05
1.48998e-08
5.14367e-05
1.49177e-08
5.14399e-05
1.49366e-08
5.14431e-05
1.49564e-08
5.14464e-05
1.49776e-08
5.14496e-05
1.50001e-08
5.14529e-05
1.50243e-08
5.14562e-05
1.50503e-08
5.14595e-05
1.50782e-08
5.14628e-05
1.5108e-08
5.14661e-05
1.51396e-08
5.14695e-05
1.5172e-08
5.14729e-05
1.52054e-08
5.14763e-05
1.52331e-08
5.14797e-05
1.52653e-08
5.14833e-05
1.52547e-08
1.53027e-08
5.0905e-05
2.07627e-10
5.09063e-05
1.35222e-09
5.09078e-05
2.65303e-09
5.09093e-05
3.7449e-09
5.09107e-05
4.57071e-09
5.0912e-05
5.23723e-09
5.09135e-05
5.83235e-09
5.09149e-05
6.38297e-09
5.09164e-05
6.87736e-09
5.09179e-05
7.30518e-09
5.09193e-05
7.67355e-09
5.09207e-05
7.99628e-09
5.09221e-05
8.28218e-09
5.09234e-05
8.53468e-09
5.09247e-05
8.75653e-09
5.0926e-05
8.95168e-09
5.09273e-05
9.12423e-09
5.09286e-05
9.2774e-09
5.09299e-05
9.41361e-09
5.09311e-05
9.53494e-09
5.09324e-05
9.64331e-09
5.09336e-05
9.74046e-09
5.09348e-05
9.82783e-09
5.09361e-05
9.90667e-09
5.09373e-05
9.97805e-09
5.09385e-05
1.00429e-08
5.09397e-05
1.0102e-08
5.09409e-05
1.01562e-08
5.09421e-05
1.02059e-08
5.09433e-05
1.02518e-08
5.09445e-05
1.02943e-08
5.09457e-05
1.03338e-08
5.0947e-05
1.03708e-08
5.09482e-05
1.04054e-08
5.09494e-05
1.0438e-08
5.09506e-05
1.04688e-08
5.09518e-05
1.0498e-08
5.0953e-05
1.05258e-08
5.09542e-05
1.05524e-08
5.09554e-05
1.05779e-08
5.09566e-05
1.06024e-08
5.09578e-05
1.06261e-08
5.09591e-05
1.0649e-08
5.09603e-05
1.06712e-08
5.09615e-05
1.06929e-08
5.09627e-05
1.0714e-08
5.09639e-05
1.07346e-08
5.09652e-05
1.07548e-08
5.09664e-05
1.07747e-08
5.09676e-05
1.07942e-08
5.09689e-05
1.08134e-08
5.09701e-05
1.08323e-08
5.09713e-05
1.0851e-08
5.09726e-05
1.08694e-08
5.09738e-05
1.08877e-08
5.0975e-05
1.09057e-08
5.09763e-05
1.09236e-08
5.09775e-05
1.09413e-08
5.09788e-05
1.09589e-08
5.098e-05
1.09764e-08
5.09813e-05
1.09937e-08
5.09825e-05
1.1011e-08
5.09838e-05
1.10281e-08
5.0985e-05
1.10452e-08
5.09863e-05
1.10621e-08
5.09875e-05
1.1079e-08
5.09888e-05
1.10958e-08
5.09901e-05
1.11126e-08
5.09913e-05
1.11292e-08
5.09926e-05
1.11458e-08
5.09938e-05
1.11624e-08
5.09951e-05
1.11789e-08
5.09964e-05
1.11953e-08
5.09977e-05
1.12117e-08
5.09989e-05
1.1228e-08
5.10002e-05
1.12442e-08
5.10015e-05
1.12604e-08
5.10028e-05
1.12766e-08
5.1004e-05
1.12927e-08
5.10053e-05
1.13087e-08
5.10066e-05
1.13247e-08
5.10079e-05
1.13407e-08
5.10092e-05
1.13566e-08
5.10104e-05
1.13725e-08
5.10117e-05
1.13883e-08
5.1013e-05
1.14041e-08
5.10143e-05
1.14198e-08
5.10156e-05
1.14355e-08
5.10169e-05
1.14512e-08
5.10182e-05
1.14668e-08
5.10195e-05
1.14824e-08
5.10208e-05
1.14979e-08
5.10221e-05
1.15134e-08
5.10234e-05
1.15289e-08
5.10247e-05
1.15443e-08
5.1026e-05
1.15597e-08
5.10273e-05
1.1575e-08
5.10286e-05
1.15903e-08
5.10299e-05
1.16056e-08
5.10313e-05
1.16208e-08
5.10326e-05
1.1636e-08
5.10339e-05
1.16512e-08
5.10352e-05
1.16663e-08
5.10365e-05
1.16813e-08
5.10378e-05
1.16963e-08
5.10392e-05
1.17113e-08
5.10405e-05
1.17263e-08
5.10418e-05
1.17412e-08
5.10431e-05
1.1756e-08
5.10445e-05
1.17709e-08
5.10458e-05
1.17857e-08
5.10471e-05
1.18004e-08
5.10485e-05
1.18151e-08
5.10498e-05
1.18298e-08
5.10511e-05
1.18444e-08
5.10525e-05
1.1859e-08
5.10538e-05
1.18736e-08
5.10551e-05
1.18881e-08
5.10565e-05
1.19026e-08
5.10578e-05
1.19171e-08
5.10592e-05
1.19315e-08
5.10605e-05
1.19459e-08
5.10619e-05
1.19602e-08
5.10632e-05
1.19745e-08
5.10646e-05
1.19888e-08
5.10659e-05
1.2003e-08
5.10673e-05
1.20172e-08
5.10686e-05
1.20314e-08
5.107e-05
1.20455e-08
5.10713e-05
1.20596e-08
5.10727e-05
1.20737e-08
5.10741e-05
1.20877e-08
5.10754e-05
1.21016e-08
5.10768e-05
1.21156e-08
5.10781e-05
1.21295e-08
5.10795e-05
1.21434e-08
5.10809e-05
1.21572e-08
5.10823e-05
1.2171e-08
5.10836e-05
1.21848e-08
5.1085e-05
1.21985e-08
5.10864e-05
1.22122e-08
5.10877e-05
1.22259e-08
5.10891e-05
1.22395e-08
5.10905e-05
1.22531e-08
5.10919e-05
1.22666e-08
5.10933e-05
1.22802e-08
5.10947e-05
1.22936e-08
5.1096e-05
1.23071e-08
5.10974e-05
1.23205e-08
5.10988e-05
1.23339e-08
5.11002e-05
1.23472e-08
5.11016e-05
1.23605e-08
5.1103e-05
1.23738e-08
5.11044e-05
1.23871e-08
5.11058e-05
1.24003e-08
5.11072e-05
1.24135e-08
5.11086e-05
1.24266e-08
5.111e-05
1.24397e-08
5.11114e-05
1.24528e-08
5.11128e-05
1.24659e-08
5.11142e-05
1.24789e-08
5.11156e-05
1.24919e-08
5.1117e-05
1.25048e-08
5.11184e-05
1.25177e-08
5.11198e-05
1.25306e-08
5.11212e-05
1.25434e-08
5.11227e-05
1.25563e-08
5.11241e-05
1.2569e-08
5.11255e-05
1.25818e-08
5.11269e-05
1.25945e-08
5.11283e-05
1.26071e-08
5.11297e-05
1.26198e-08
5.11312e-05
1.26324e-08
5.11326e-05
1.2645e-08
5.1134e-05
1.26575e-08
5.11355e-05
1.267e-08
5.11369e-05
1.26825e-08
5.11383e-05
1.2695e-08
5.11397e-05
1.27074e-08
5.11412e-05
1.27198e-08
5.11426e-05
1.27321e-08
5.11441e-05
1.27444e-08
5.11455e-05
1.27567e-08
5.11469e-05
1.2769e-08
5.11484e-05
1.27812e-08
5.11498e-05
1.27934e-08
5.11513e-05
1.28056e-08
5.11527e-05
1.28177e-08
5.11542e-05
1.28298e-08
5.11556e-05
1.28419e-08
5.11571e-05
1.28539e-08
5.11585e-05
1.2866e-08
5.116e-05
1.2878e-08
5.11614e-05
1.28899e-08
5.11629e-05
1.29019e-08
5.11643e-05
1.29138e-08
5.11658e-05
1.29257e-08
5.11673e-05
1.29375e-08
5.11687e-05
1.29494e-08
5.11702e-05
1.29612e-08
5.11717e-05
1.2973e-08
5.11731e-05
1.29847e-08
5.11746e-05
1.29965e-08
5.11761e-05
1.30082e-08
5.11776e-05
1.30199e-08
5.1179e-05
1.30316e-08
5.11805e-05
1.30433e-08
5.1182e-05
1.30549e-08
5.11835e-05
1.30666e-08
5.1185e-05
1.30782e-08
5.11864e-05
1.30899e-08
5.11879e-05
1.31015e-08
5.11894e-05
1.31132e-08
5.11909e-05
1.31248e-08
5.11924e-05
1.31365e-08
5.11939e-05
1.31482e-08
5.11954e-05
1.31599e-08
5.11969e-05
1.31717e-08
5.11984e-05
1.31835e-08
5.11999e-05
1.31954e-08
5.12014e-05
1.32074e-08
5.12029e-05
1.32194e-08
5.12044e-05
1.32316e-08
5.12059e-05
1.32438e-08
5.12074e-05
1.32563e-08
5.12089e-05
1.32688e-08
5.12104e-05
1.32816e-08
5.12119e-05
1.32946e-08
5.12134e-05
1.33079e-08
5.12149e-05
1.33214e-08
5.12164e-05
1.33354e-08
5.1218e-05
1.33497e-08
5.12195e-05
1.33645e-08
5.1221e-05
1.33798e-08
5.12225e-05
1.33957e-08
5.1224e-05
1.34123e-08
5.12256e-05
1.34297e-08
5.12271e-05
1.34479e-08
5.12286e-05
1.34669e-08
5.12302e-05
1.34869e-08
5.12317e-05
1.35078e-08
5.12333e-05
1.35295e-08
5.12348e-05
1.35518e-08
5.12364e-05
1.35744e-08
5.1238e-05
1.35967e-08
5.12395e-05
1.36182e-08
5.12411e-05
1.3637e-08
5.12427e-05
1.3655e-08
5.12443e-05
1.36646e-08
1.3675e-08
5.09064e-05
2.2566e-10
5.09065e-05
1.26956e-09
5.09068e-05
2.31627e-09
5.09075e-05
3.09912e-09
5.09084e-05
3.71083e-09
5.09093e-05
4.26091e-09
5.09104e-05
4.78514e-09
5.09115e-05
5.27445e-09
5.09126e-05
5.71394e-09
5.09139e-05
6.10011e-09
5.09151e-05
6.43978e-09
5.09163e-05
6.74193e-09
5.09176e-05
7.01232e-09
5.09189e-05
7.25376e-09
5.09202e-05
7.46851e-09
5.09215e-05
7.65948e-09
5.09228e-05
7.82976e-09
5.09241e-05
7.982e-09
5.09254e-05
8.11831e-09
5.09267e-05
8.2405e-09
5.09279e-05
8.35021e-09
5.09292e-05
8.44896e-09
5.09305e-05
8.53805e-09
5.09318e-05
8.61864e-09
5.09331e-05
8.69173e-09
5.09344e-05
8.75819e-09
5.09357e-05
8.81882e-09
5.0937e-05
8.87428e-09
5.09382e-05
8.92519e-09
5.09395e-05
8.97208e-09
5.09408e-05
9.0154e-09
5.09421e-05
9.05557e-09
5.09433e-05
9.09295e-09
5.09446e-05
9.12786e-09
5.09459e-05
9.16058e-09
5.09472e-05
9.19137e-09
5.09485e-05
9.22044e-09
5.09497e-05
9.24799e-09
5.0951e-05
9.27419e-09
5.09523e-05
9.29918e-09
5.09536e-05
9.32311e-09
5.09548e-05
9.34609e-09
5.09561e-05
9.36823e-09
5.09574e-05
9.38961e-09
5.09587e-05
9.41031e-09
5.096e-05
9.43042e-09
5.09613e-05
9.44998e-09
5.09625e-05
9.46907e-09
5.09638e-05
9.48772e-09
5.09651e-05
9.50597e-09
5.09664e-05
9.52388e-09
5.09677e-05
9.54148e-09
5.0969e-05
9.55879e-09
5.09703e-05
9.57585e-09
5.09716e-05
9.59267e-09
5.09729e-05
9.60929e-09
5.09742e-05
9.62572e-09
5.09755e-05
9.64198e-09
5.09768e-05
9.65808e-09
5.09781e-05
9.67403e-09
5.09794e-05
9.68985e-09
5.09807e-05
9.70554e-09
5.0982e-05
9.72113e-09
5.09833e-05
9.7366e-09
5.09846e-05
9.75198e-09
5.09859e-05
9.76726e-09
5.09872e-05
9.78246e-09
5.09886e-05
9.79758e-09
5.09899e-05
9.81262e-09
5.09912e-05
9.82759e-09
5.09925e-05
9.84249e-09
5.09938e-05
9.85733e-09
5.09952e-05
9.8721e-09
5.09965e-05
9.88682e-09
5.09978e-05
9.90147e-09
5.09991e-05
9.91608e-09
5.10005e-05
9.93062e-09
5.10018e-05
9.94512e-09
5.10031e-05
9.95956e-09
5.10045e-05
9.97395e-09
5.10058e-05
9.9883e-09
5.10071e-05
1.00026e-08
5.10085e-05
1.00168e-08
5.10098e-05
1.0031e-08
5.10112e-05
1.00452e-08
5.10125e-05
1.00593e-08
5.10139e-05
1.00734e-08
5.10152e-05
1.00874e-08
5.10166e-05
1.01014e-08
5.10179e-05
1.01154e-08
5.10193e-05
1.01293e-08
5.10206e-05
1.01431e-08
5.1022e-05
1.0157e-08
5.10233e-05
1.01708e-08
5.10247e-05
1.01845e-08
5.1026e-05
1.01982e-08
5.10274e-05
1.02119e-08
5.10288e-05
1.02255e-08
5.10301e-05
1.02391e-08
5.10315e-05
1.02527e-08
5.10329e-05
1.02662e-08
5.10342e-05
1.02797e-08
5.10356e-05
1.02931e-08
5.1037e-05
1.03066e-08
5.10384e-05
1.03199e-08
5.10398e-05
1.03333e-08
5.10411e-05
1.03466e-08
5.10425e-05
1.03599e-08
5.10439e-05
1.03731e-08
5.10453e-05
1.03864e-08
5.10467e-05
1.03995e-08
5.10481e-05
1.04127e-08
5.10494e-05
1.04258e-08
5.10508e-05
1.04389e-08
5.10522e-05
1.04519e-08
5.10536e-05
1.04649e-08
5.1055e-05
1.04778e-08
5.10564e-05
1.04908e-08
5.10578e-05
1.05037e-08
5.10592e-05
1.05165e-08
5.10606e-05
1.05293e-08
5.1062e-05
1.05421e-08
5.10634e-05
1.05549e-08
5.10648e-05
1.05676e-08
5.10662e-05
1.05803e-08
5.10677e-05
1.0593e-08
5.10691e-05
1.06056e-08
5.10705e-05
1.06182e-08
5.10719e-05
1.06308e-08
5.10733e-05
1.06433e-08
5.10747e-05
1.06558e-08
5.10761e-05
1.06683e-08
5.10776e-05
1.06807e-08
5.1079e-05
1.06931e-08
5.10804e-05
1.07055e-08
5.10818e-05
1.07178e-08
5.10833e-05
1.07302e-08
5.10847e-05
1.07424e-08
5.10861e-05
1.07547e-08
5.10876e-05
1.07669e-08
5.1089e-05
1.07791e-08
5.10904e-05
1.07912e-08
5.10919e-05
1.08034e-08
5.10933e-05
1.08155e-08
5.10947e-05
1.08275e-08
5.10962e-05
1.08396e-08
5.10976e-05
1.08516e-08
5.10991e-05
1.08636e-08
5.11005e-05
1.08755e-08
5.1102e-05
1.08874e-08
5.11034e-05
1.08993e-08
5.11048e-05
1.09112e-08
5.11063e-05
1.0923e-08
5.11078e-05
1.09348e-08
5.11092e-05
1.09466e-08
5.11107e-05
1.09583e-08
5.11121e-05
1.097e-08
5.11136e-05
1.09817e-08
5.1115e-05
1.09933e-08
5.11165e-05
1.10049e-08
5.1118e-05
1.10165e-08
5.11194e-05
1.1028e-08
5.11209e-05
1.10396e-08
5.11224e-05
1.10511e-08
5.11238e-05
1.10625e-08
5.11253e-05
1.1074e-08
5.11268e-05
1.10854e-08
5.11282e-05
1.10967e-08
5.11297e-05
1.11081e-08
5.11312e-05
1.11194e-08
5.11327e-05
1.11307e-08
5.11341e-05
1.1142e-08
5.11356e-05
1.11532e-08
5.11371e-05
1.11644e-08
5.11386e-05
1.11756e-08
5.11401e-05
1.11867e-08
5.11415e-05
1.11978e-08
5.1143e-05
1.12089e-08
5.11445e-05
1.122e-08
5.1146e-05
1.1231e-08
5.11475e-05
1.12421e-08
5.1149e-05
1.1253e-08
5.11505e-05
1.1264e-08
5.1152e-05
1.12749e-08
5.11535e-05
1.12858e-08
5.1155e-05
1.12967e-08
5.11565e-05
1.13076e-08
5.1158e-05
1.13184e-08
5.11595e-05
1.13292e-08
5.1161e-05
1.134e-08
5.11625e-05
1.13507e-08
5.1164e-05
1.13614e-08
5.11655e-05
1.13721e-08
5.1167e-05
1.13828e-08
5.11685e-05
1.13935e-08
5.117e-05
1.14041e-08
5.11715e-05
1.14147e-08
5.1173e-05
1.14253e-08
5.11745e-05
1.14359e-08
5.11761e-05
1.14464e-08
5.11776e-05
1.14569e-08
5.11791e-05
1.14675e-08
5.11806e-05
1.1478e-08
5.11821e-05
1.14884e-08
5.11837e-05
1.14989e-08
5.11852e-05
1.15094e-08
5.11867e-05
1.15198e-08
5.11882e-05
1.15303e-08
5.11897e-05
1.15407e-08
5.11913e-05
1.15511e-08
5.11928e-05
1.15616e-08
5.11943e-05
1.1572e-08
5.11959e-05
1.15825e-08
5.11974e-05
1.1593e-08
5.11989e-05
1.16035e-08
5.12005e-05
1.1614e-08
5.1202e-05
1.16246e-08
5.12035e-05
1.16352e-08
5.12051e-05
1.16458e-08
5.12066e-05
1.16566e-08
5.12082e-05
1.16674e-08
5.12097e-05
1.16783e-08
5.12112e-05
1.16893e-08
5.12128e-05
1.17004e-08
5.12143e-05
1.17116e-08
5.12159e-05