/*--------------------------------*- C++ -*----------------------------------*\
| =========                 |                                                 |
| \\      /  F ield         | OpenFOAM: The Open Source CFD Toolbox           |
|  \\    /   O peration     | Version:  2406                                  |
|   \\  /    A nd           | Website:  www.openfoam.com                      |
|    \\/     M anipulation  |                                                 |
\*---------------------------------------------------------------------------*/
FoamFile
{
    version     2.0;
    format      ascii;
    arch        "LSB;label=32;scalar=64";
    class       volVectorField;
    location    "0.25";
    object      U;
}
// * * * * * * * * * * * * * * * * * * * * * * * * * * * * * * * * * * * * * //

dimensions      [0 1 -1 0 0 0 0];

internalField   nonuniform List<vector> 
6250
(
(51.1715 0.00678344 0)
(85.5517 0.0309574 0)
(72.7266 0.0451634 0)
(60.0742 0.0488406 0)
(59.5164 0.0500741 0)
(63.0177 0.0532988 0)
(64.4604 0.057701 0)
(63.9457 0.0614212 0)
(63.2991 0.0640312 0)
(63.1778 0.0660767 0)
(63.295 0.0679799 0)
(63.3477 0.0697707 0)
(63.3049 0.0713564 0)
(63.2443 0.0727201 0)
(63.2049 0.0739101 0)
(63.1785 0.0749719 0)
(63.1508 0.0759254 0)
(63.1185 0.0767787 0)
(63.0847 0.0775412 0)
(63.0516 0.0782247 0)
(63.0191 0.0788399 0)
(62.9866 0.0793951 0)
(62.9538 0.0798969 0)
(62.9208 0.0803509 0)
(62.8878 0.0807625 0)
(62.8549 0.081136 0)
(62.8218 0.0814755 0)
(62.7888 0.0817844 0)
(62.7557 0.0820656 0)
(62.7226 0.0823218 0)
(62.6894 0.0825554 0)
(62.6563 0.0827684 0)
(62.6231 0.0829626 0)
(62.59 0.0831397 0)
(62.5568 0.0833012 0)
(62.5236 0.0834483 0)
(62.4904 0.0835822 0)
(62.4572 0.0837039 0)
(62.424 0.0838145 0)
(62.3909 0.0839147 0)
(62.3577 0.0840053 0)
(62.3245 0.0840871 0)
(62.2913 0.0841606 0)
(62.2581 0.0842264 0)
(62.2249 0.0842851 0)
(62.1918 0.084337 0)
(62.1586 0.0843827 0)
(62.1254 0.0844225 0)
(62.0923 0.0844567 0)
(62.0591 0.0844857 0)
(62.026 0.0845098 0)
(61.9929 0.0845294 0)
(61.9597 0.0845446 0)
(61.9266 0.0845557 0)
(61.8935 0.084563 0)
(61.8604 0.0845666 0)
(61.8273 0.0845668 0)
(61.7942 0.0845637 0)
(61.7611 0.0845576 0)
(61.728 0.0845486 0)
(61.695 0.0845368 0)
(61.6619 0.0845224 0)
(61.6288 0.0845056 0)
(61.5958 0.0844863 0)
(61.5628 0.0844648 0)
(61.5297 0.084441 0)
(61.4967 0.0844152 0)
(61.4637 0.0843873 0)
(61.4307 0.0843575 0)
(61.3977 0.0843259 0)
(61.3647 0.0842925 0)
(61.3317 0.0842574 0)
(61.2987 0.0842207 0)
(61.2658 0.0841825 0)
(61.2328 0.0841428 0)
(61.1999 0.0841018 0)
(61.1669 0.0840593 0)
(61.134 0.0840156 0)
(61.1011 0.0839706 0)
(61.0682 0.0839244 0)
(61.0353 0.083877 0)
(61.0024 0.0838286 0)
(60.9695 0.083779 0)
(60.9366 0.0837285 0)
(60.9037 0.083677 0)
(60.8709 0.0836246 0)
(60.838 0.0835713 0)
(60.8052 0.0835171 0)
(60.7723 0.0834622 0)
(60.7395 0.0834064 0)
(60.7067 0.0833498 0)
(60.6739 0.0832925 0)
(60.6411 0.0832344 0)
(60.6083 0.0831756 0)
(60.5755 0.0831161 0)
(60.5427 0.0830559 0)
(60.51 0.0829951 0)
(60.4772 0.0829336 0)
(60.4445 0.0828714 0)
(60.4117 0.0828086 0)
(60.379 0.0827453 0)
(60.3463 0.0826814 0)
(60.3136 0.082617 0)
(60.2808 0.082552 0)
(60.2482 0.0824866 0)
(60.2155 0.0824207 0)
(60.1828 0.0823544 0)
(60.1501 0.0822876 0)
(60.1175 0.0822205 0)
(60.0848 0.082153 0)
(60.0522 0.0820851 0)
(60.0195 0.0820169 0)
(59.9869 0.0819483 0)
(59.9543 0.0818793 0)
(59.9217 0.08181 0)
(59.8891 0.0817404 0)
(59.8565 0.0816704 0)
(59.8239 0.0816001 0)
(59.7913 0.0815295 0)
(59.7588 0.0814586 0)
(59.7262 0.0813873 0)
(59.6936 0.0813158 0)
(59.6611 0.0812439 0)
(59.6286 0.0811718 0)
(59.5961 0.0810994 0)
(59.5635 0.0810267 0)
(59.531 0.0809538 0)
(59.4985 0.0808806 0)
(59.4661 0.0808073 0)
(59.4336 0.0807337 0)
(59.4011 0.0806598 0)
(59.3687 0.0805858 0)
(59.3362 0.0805115 0)
(59.3038 0.0804371 0)
(59.2713 0.0803624 0)
(59.2389 0.0802875 0)
(59.2065 0.0802125 0)
(59.1741 0.0801372 0)
(59.1417 0.0800617 0)
(59.1093 0.0799861 0)
(59.0769 0.0799103 0)
(59.0446 0.0798344 0)
(59.0122 0.0797583 0)
(58.9798 0.079682 0)
(58.9475 0.0796057 0)
(58.9152 0.0795292 0)
(58.8828 0.0794526 0)
(58.8505 0.0793759 0)
(58.8182 0.0792991 0)
(58.7859 0.0792222 0)
(58.7536 0.0791451 0)
(58.7214 0.0790679 0)
(58.6891 0.0789906 0)
(58.6568 0.0789132 0)
(58.6246 0.0788356 0)
(58.5923 0.0787579 0)
(58.5601 0.0786801 0)
(58.5279 0.0786022 0)
(58.4957 0.0785242 0)
(58.4634 0.078446 0)
(58.4312 0.0783677 0)
(58.3991 0.0782893 0)
(58.3669 0.0782108 0)
(58.3347 0.0781322 0)
(58.3025 0.0780535 0)
(58.2704 0.0779747 0)
(58.2382 0.0778957 0)
(58.2061 0.0778167 0)
(58.174 0.0777376 0)
(58.1419 0.0776583 0)
(58.1098 0.077579 0)
(58.0777 0.0774996 0)
(58.0456 0.07742 0)
(58.0135 0.0773404 0)
(57.9814 0.0772608 0)
(57.9494 0.077181 0)
(57.9173 0.0771012 0)
(57.8853 0.0770213 0)
(57.8532 0.0769413 0)
(57.8212 0.0768613 0)
(57.7892 0.0767812 0)
(57.7572 0.0767011 0)
(57.7252 0.0766209 0)
(57.6932 0.0765407 0)
(57.6612 0.0764604 0)
(57.6293 0.07638 0)
(57.5973 0.0762996 0)
(57.5654 0.0762191 0)
(57.5334 0.0761386 0)
(57.5015 0.076058 0)
(57.4696 0.0759773 0)
(57.4377 0.0758965 0)
(57.4058 0.0758157 0)
(57.3739 0.0757349 0)
(57.342 0.075654 0)
(57.3101 0.075573 0)
(57.2783 0.075492 0)
(57.2464 0.075411 0)
(57.2146 0.0753299 0)
(57.1827 0.0752488 0)
(57.1509 0.0751677 0)
(57.1191 0.0750866 0)
(57.0873 0.0750054 0)
(57.0555 0.0749243 0)
(57.0237 0.0748431 0)
(56.9919 0.0747619 0)
(56.9602 0.0746807 0)
(56.9284 0.0745995 0)
(56.8966 0.0745182 0)
(56.8649 0.074437 0)
(56.8332 0.0743557 0)
(56.8015 0.0742744 0)
(56.7697 0.0741931 0)
(56.738 0.0741118 0)
(56.7064 0.0740305 0)
(56.6747 0.0739493 0)
(56.643 0.0738681 0)
(56.6113 0.0737871 0)
(56.5797 0.0737061 0)
(56.548 0.0736253 0)
(56.5164 0.0735446 0)
(56.4848 0.0734642 0)
(56.4532 0.0733839 0)
(56.4215 0.0733039 0)
(56.3899 0.0732242 0)
(56.3584 0.0731449 0)
(56.3268 0.073066 0)
(56.2952 0.0729876 0)
(56.2636 0.0729099 0)
(56.2321 0.072833 0)
(56.2005 0.072757 0)
(56.169 0.0726821 0)
(56.1374 0.0726088 0)
(56.1059 0.0725373 0)
(56.0743 0.0724682 0)
(56.0428 0.0724021 0)
(56.0112 0.0723398 0)
(55.9797 0.0722825 0)
(55.9481 0.0722317 0)
(55.9166 0.0721896 0)
(55.885 0.0721592 0)
(55.8534 0.0721444 0)
(55.8217 0.0721522 0)
(55.79 0.0721884 0)
(55.7583 0.072276 0)
(55.7262 0.072403 0)
(55.6946 0.0727007 0)
(55.6608 0.0729032 0)
(55.6343 0.0739147 0)
(55.5842 0.0735163 0)
(51.1887 0.00422754 0)
(85.6137 0.0218252 0)
(72.8389 0.0354981 0)
(60.2277 0.0397748 0)
(59.7025 0.0400472 0)
(63.2385 0.0414772 0)
(64.7232 0.0442223 0)
(64.2552 0.0465304 0)
(63.6556 0.0477583 0)
(63.5806 0.0483901 0)
(63.7442 0.0489188 0)
(63.8441 0.0494244 0)
(63.8496 0.0498105 0)
(63.8377 0.0500448 0)
(63.8471 0.0501722 0)
(63.8699 0.0502404 0)
(63.8914 0.0502687 0)
(63.9086 0.0502607 0)
(63.9245 0.0502211 0)
(63.9412 0.0501578 0)
(63.9585 0.0500782 0)
(63.9759 0.0499872 0)
(63.9931 0.049888 0)
(64.0101 0.0497831 0)
(64.0271 0.0496747 0)
(64.0442 0.0495646 0)
(64.0612 0.0494543 0)
(64.0782 0.0493448 0)
(64.0951 0.049237 0)
(64.112 0.0491314 0)
(64.1289 0.0490286 0)
(64.1457 0.048929 0)
(64.1625 0.0488328 0)
(64.1793 0.0487403 0)
(64.196 0.0486515 0)
(64.2127 0.0485666 0)
(64.2293 0.0484855 0)
(64.2459 0.0484083 0)
(64.2624 0.048335 0)
(64.2789 0.0482654 0)
(64.2954 0.0481996 0)
(64.3118 0.0481374 0)
(64.3282 0.0480789 0)
(64.3445 0.0480238 0)
(64.3608 0.0479722 0)
(64.3771 0.047924 0)
(64.3933 0.0478789 0)
(64.4095 0.0478371 0)
(64.4256 0.0477982 0)
(64.4417 0.0477622 0)
(64.4577 0.0477291 0)
(64.4737 0.0476987 0)
(64.4896 0.0476709 0)
(64.5055 0.0476456 0)
(64.5214 0.0476228 0)
(64.5372 0.0476023 0)
(64.553 0.0475842 0)
(64.5687 0.0475682 0)
(64.5844 0.0475543 0)
(64.6001 0.0475425 0)
(64.6157 0.0475327 0)
(64.6312 0.0475247 0)
(64.6467 0.0475186 0)
(64.6622 0.0475143 0)
(64.6776 0.0475116 0)
(64.693 0.0475106 0)
(64.7084 0.0475111 0)
(64.7237 0.0475132 0)
(64.7389 0.0475167 0)
(64.7541 0.0475216 0)
(64.7693 0.0475278 0)
(64.7844 0.0475353 0)
(64.7995 0.0475441 0)
(64.8146 0.0475542 0)
(64.8296 0.0475654 0)
(64.8445 0.0475777 0)
(64.8594 0.0475911 0)
(64.8743 0.0476056 0)
(64.8891 0.047621 0)
(64.9039 0.0476375 0)
(64.9187 0.0476549 0)
(64.9334 0.0476732 0)
(64.948 0.0476923 0)
(64.9627 0.0477123 0)
(64.9772 0.0477332 0)
(64.9918 0.0477548 0)
(65.0063 0.0477771 0)
(65.0207 0.0478002 0)
(65.0351 0.047824 0)
(65.0495 0.0478485 0)
(65.0638 0.0478736 0)
(65.0781 0.0478994 0)
(65.0924 0.0479257 0)
(65.1066 0.0479527 0)
(65.1207 0.0479802 0)
(65.1348 0.0480083 0)
(65.1489 0.0480369 0)
(65.163 0.048066 0)
(65.1769 0.0480956 0)
(65.1909 0.0481257 0)
(65.2048 0.0481563 0)
(65.2187 0.0481873 0)
(65.2325 0.0482187 0)
(65.2463 0.0482506 0)
(65.2601 0.0482829 0)
(65.2738 0.0483155 0)
(65.2874 0.0483486 0)
(65.3011 0.048382 0)
(65.3146 0.0484158 0)
(65.3282 0.0484499 0)
(65.3417 0.0484844 0)
(65.3552 0.0485192 0)
(65.3686 0.0485543 0)
(65.382 0.0485897 0)
(65.3953 0.0486254 0)
(65.4086 0.0486614 0)
(65.4219 0.0486977 0)
(65.4351 0.0487342 0)
(65.4483 0.048771 0)
(65.4614 0.048808 0)
(65.4745 0.0488452 0)
(65.4876 0.0488827 0)
(65.5006 0.0489204 0)
(65.5136 0.0489582 0)
(65.5265 0.0489963 0)
(65.5394 0.0490346 0)
(65.5523 0.0490731 0)
(65.5651 0.0491117 0)
(65.5779 0.0491505 0)
(65.5906 0.0491895 0)
(65.6033 0.0492286 0)
(65.616 0.0492679 0)
(65.6286 0.0493074 0)
(65.6412 0.049347 0)
(65.6538 0.0493868 0)
(65.6663 0.0494267 0)
(65.6787 0.0494668 0)
(65.6912 0.049507 0)
(65.7036 0.0495474 0)
(65.7159 0.0495879 0)
(65.7282 0.0496285 0)
(65.7405 0.0496693 0)
(65.7527 0.0497102 0)
(65.7649 0.0497513 0)
(65.7771 0.0497924 0)
(65.7892 0.0498337 0)
(65.8013 0.0498751 0)
(65.8133 0.0499165 0)
(65.8253 0.0499581 0)
(65.8373 0.0499998 0)
(65.8492 0.0500415 0)
(65.8611 0.0500833 0)
(65.873 0.0501251 0)
(65.8848 0.0501671 0)
(65.8965 0.0502091 0)
(65.9083 0.0502511 0)
(65.92 0.0502933 0)
(65.9316 0.0503355 0)
(65.9433 0.0503777 0)
(65.9548 0.05042 0)
(65.9664 0.0504624 0)
(65.9779 0.0505048 0)
(65.9894 0.0505473 0)
(66.0008 0.0505898 0)
(66.0122 0.0506324 0)
(66.0235 0.0506751 0)
(66.0349 0.0507177 0)
(66.0461 0.0507604 0)
(66.0574 0.0508032 0)
(66.0686 0.050846 0)
(66.0798 0.0508888 0)
(66.0909 0.0509317 0)
(66.102 0.0509745 0)
(66.113 0.0510174 0)
(66.1241 0.0510604 0)
(66.135 0.0511034 0)
(66.146 0.0511464 0)
(66.1569 0.0511894 0)
(66.1678 0.0512324 0)
(66.1786 0.0512755 0)
(66.1894 0.0513187 0)
(66.2002 0.0513618 0)
(66.2109 0.051405 0)
(66.2216 0.0514482 0)
(66.2322 0.0514914 0)
(66.2428 0.0515347 0)
(66.2534 0.051578 0)
(66.264 0.0516213 0)
(66.2745 0.0516646 0)
(66.2849 0.0517079 0)
(66.2954 0.0517512 0)
(66.3058 0.0517945 0)
(66.3161 0.0518378 0)
(66.3264 0.0518811 0)
(66.3367 0.0519243 0)
(66.347 0.0519676 0)
(66.3572 0.0520108 0)
(66.3674 0.052054 0)
(66.3775 0.0520972 0)
(66.3876 0.0521404 0)
(66.3977 0.0521835 0)
(66.4077 0.0522267 0)
(66.4177 0.0522698 0)
(66.4277 0.052313 0)
(66.4376 0.0523561 0)
(66.4475 0.0523993 0)
(66.4573 0.0524425 0)
(66.4672 0.0524857 0)
(66.4769 0.0525289 0)
(66.4867 0.0525721 0)
(66.4964 0.0526155 0)
(66.5061 0.0526588 0)
(66.5157 0.0527023 0)
(66.5253 0.0527458 0)
(66.5349 0.0527894 0)
(66.5444 0.0528332 0)
(66.5539 0.052877 0)
(66.5634 0.052921 0)
(66.5728 0.0529652 0)
(66.5822 0.0530095 0)
(66.5916 0.0530541 0)
(66.6009 0.0530989 0)
(66.6102 0.0531439 0)
(66.6194 0.0531893 0)
(66.6286 0.053235 0)
(66.6378 0.0532812 0)
(66.647 0.053328 0)
(66.6561 0.0533754 0)
(66.6652 0.0534237 0)
(66.6742 0.0534729 0)
(66.6832 0.0535234 0)
(66.6922 0.0535754 0)
(66.7011 0.0536293 0)
(66.7101 0.0536856 0)
(66.7189 0.0537447 0)
(66.7278 0.0538076 0)
(66.7366 0.0538752 0)
(66.7454 0.0539487 0)
(66.7541 0.0540297 0)
(66.7628 0.0541206 0)
(66.7715 0.0542242 0)
(66.7802 0.0543444 0)
(66.7889 0.0544872 0)
(66.7975 0.0546574 0)
(66.8062 0.054873 0)
(66.8149 0.0551223 0)
(66.8236 0.0555021 0)
(66.8329 0.0557978 0)
(66.8405 0.0566709 0)
(66.8545 0.0564698 0)
(51.1871 0.000477228 0)
(85.6015 0.00191359 0)
(72.8036 0.00345904 0)
(60.1731 0.00530244 0)
(59.6379 0.00688815 0)
(63.1658 0.00805122 0)
(64.6385 0.00895219 0)
(64.1553 0.00972759 0)
(63.5405 0.0104035 0)
(63.4511 0.0109869 0)
(63.6007 0.0115079 0)
(63.6863 0.0119902 0)
(63.6769 0.0124391 0)
(63.65 0.0128558 0)
(63.6445 0.0132459 0)
(63.6523 0.0136162 0)
(63.6588 0.0139705 0)
(63.6608 0.0143102 0)
(63.6616 0.0146362 0)
(63.663 0.01495 0)
(63.6652 0.0152527 0)
(63.6674 0.0155455 0)
(63.6694 0.0158288 0)
(63.6712 0.0161034 0)
(63.6731 0.0163697 0)
(63.6751 0.0166282 0)
(63.677 0.0168795 0)
(63.6789 0.0171239 0)
(63.6808 0.0173618 0)
(63.6827 0.0175936 0)
(63.6846 0.0178196 0)
(63.6865 0.01804 0)
(63.6885 0.0182551 0)
(63.6904 0.0184653 0)
(63.6923 0.0186707 0)
(63.6942 0.0188716 0)
(63.6962 0.0190681 0)
(63.6981 0.0192606 0)
(63.7001 0.0194491 0)
(63.702 0.0196339 0)
(63.704 0.0198151 0)
(63.706 0.0199929 0)
(63.708 0.0201674 0)
(63.71 0.0203387 0)
(63.712 0.0205071 0)
(63.714 0.0206726 0)
(63.716 0.0208354 0)
(63.718 0.0209955 0)
(63.7201 0.0211531 0)
(63.7221 0.0213083 0)
(63.7242 0.0214612 0)
(63.7263 0.0216118 0)
(63.7284 0.0217602 0)
(63.7305 0.0219065 0)
(63.7326 0.0220508 0)
(63.7347 0.0221932 0)
(63.7368 0.0223337 0)
(63.739 0.0224723 0)
(63.7411 0.0226092 0)
(63.7433 0.0227444 0)
(63.7455 0.022878 0)
(63.7477 0.0230099 0)
(63.7499 0.0231404 0)
(63.7521 0.0232693 0)
(63.7543 0.0233968 0)
(63.7565 0.0235229 0)
(63.7588 0.0236477 0)
(63.761 0.0237711 0)
(63.7633 0.0238933 0)
(63.7656 0.0240143 0)
(63.7679 0.024134 0)
(63.7702 0.0242526 0)
(63.7725 0.0243701 0)
(63.7748 0.0244864 0)
(63.7772 0.0246016 0)
(63.7795 0.0247158 0)
(63.7819 0.024829 0)
(63.7843 0.0249411 0)
(63.7867 0.0250523 0)
(63.7891 0.0251626 0)
(63.7915 0.0252719 0)
(63.7939 0.0253804 0)
(63.7963 0.025488 0)
(63.7988 0.0255947 0)
(63.8012 0.0257007 0)
(63.8037 0.0258058 0)
(63.8062 0.0259101 0)
(63.8087 0.0260136 0)
(63.8112 0.0261163 0)
(63.8137 0.0262183 0)
(63.8162 0.0263196 0)
(63.8187 0.0264201 0)
(63.8213 0.0265199 0)
(63.8239 0.0266191 0)
(63.8264 0.0267176 0)
(63.829 0.0268155 0)
(63.8316 0.0269127 0)
(63.8342 0.0270093 0)
(63.8368 0.0271053 0)
(63.8395 0.0272007 0)
(63.8421 0.0272956 0)
(63.8448 0.0273898 0)
(63.8474 0.0274836 0)
(63.8501 0.0275767 0)
(63.8528 0.0276693 0)
(63.8555 0.0277614 0)
(63.8582 0.0278529 0)
(63.8609 0.027944 0)
(63.8637 0.0280345 0)
(63.8664 0.0281245 0)
(63.8692 0.028214 0)
(63.8719 0.028303 0)
(63.8747 0.0283915 0)
(63.8775 0.0284796 0)
(63.8803 0.0285672 0)
(63.8831 0.0286543 0)
(63.8859 0.0287409 0)
(63.8888 0.0288272 0)
(63.8916 0.0289129 0)
(63.8945 0.0289983 0)
(63.8974 0.0290832 0)
(63.9002 0.0291678 0)
(63.9031 0.0292519 0)
(63.906 0.0293356 0)
(63.9089 0.029419 0)
(63.9119 0.0295019 0)
(63.9148 0.0295845 0)
(63.9178 0.0296667 0)
(63.9207 0.0297485 0)
(63.9237 0.0298299 0)
(63.9267 0.029911 0)
(63.9297 0.0299917 0)
(63.9327 0.030072 0)
(63.9357 0.030152 0)
(63.9387 0.0302316 0)
(63.9417 0.0303108 0)
(63.9448 0.0303897 0)
(63.9479 0.0304682 0)
(63.9509 0.0305464 0)
(63.954 0.0306243 0)
(63.9571 0.0307018 0)
(63.9602 0.0307789 0)
(63.9633 0.0308558 0)
(63.9664 0.0309323 0)
(63.9696 0.0310086 0)
(63.9727 0.0310845 0)
(63.9759 0.03116 0)
(63.979 0.0312353 0)
(63.9822 0.0313103 0)
(63.9854 0.031385 0)
(63.9886 0.0314594 0)
(63.9918 0.0315334 0)
(63.995 0.0316072 0)
(63.9983 0.0316807 0)
(64.0015 0.0317539 0)
(64.0048 0.0318268 0)
(64.008 0.0318994 0)
(64.0113 0.0319717 0)
(64.0146 0.0320438 0)
(64.0179 0.0321155 0)
(64.0212 0.032187 0)
(64.0245 0.0322581 0)
(64.0279 0.032329 0)
(64.0312 0.0323997 0)
(64.0345 0.03247 0)
(64.0379 0.0325401 0)
(64.0413 0.0326099 0)
(64.0446 0.0326795 0)
(64.048 0.0327488 0)
(64.0514 0.0328179 0)
(64.0549 0.0328866 0)
(64.0583 0.0329552 0)
(64.0617 0.0330235 0)
(64.0652 0.0330915 0)
(64.0686 0.0331593 0)
(64.0721 0.0332268 0)
(64.0755 0.0332941 0)
(64.079 0.0333611 0)
(64.0825 0.0334279 0)
(64.086 0.0334944 0)
(64.0895 0.0335607 0)
(64.0931 0.0336267 0)
(64.0966 0.0336925 0)
(64.1001 0.033758 0)
(64.1037 0.0338233 0)
(64.1073 0.0338883 0)
(64.1108 0.0339532 0)
(64.1144 0.0340178 0)
(64.118 0.0340821 0)
(64.1216 0.0341463 0)
(64.1252 0.0342102 0)
(64.1289 0.034274 0)
(64.1325 0.0343375 0)
(64.1361 0.0344008 0)
(64.1398 0.034464 0)
(64.1435 0.0345269 0)
(64.1471 0.0345896 0)
(64.1508 0.0346521 0)
(64.1545 0.0347143 0)
(64.1582 0.0347764 0)
(64.1619 0.0348383 0)
(64.1657 0.0348999 0)
(64.1694 0.0349614 0)
(64.1731 0.0350226 0)
(64.1769 0.0350837 0)
(64.1807 0.0351445 0)
(64.1844 0.0352052 0)
(64.1882 0.0352657 0)
(64.192 0.035326 0)
(64.1958 0.0353862 0)
(64.1996 0.0354462 0)
(64.2034 0.035506 0)
(64.2073 0.0355657 0)
(64.2111 0.0356253 0)
(64.2149 0.0356848 0)
(64.2188 0.0357441 0)
(64.2227 0.0358035 0)
(64.2265 0.0358627 0)
(64.2304 0.0359219 0)
(64.2343 0.0359812 0)
(64.2382 0.0360404 0)
(64.2421 0.0360997 0)
(64.246 0.0361591 0)
(64.25 0.0362187 0)
(64.2539 0.0362784 0)
(64.2579 0.0363384 0)
(64.2618 0.0363987 0)
(64.2658 0.0364595 0)
(64.2698 0.0365208 0)
(64.2737 0.0365828 0)
(64.2777 0.0366455 0)
(64.2817 0.0367093 0)
(64.2857 0.0367743 0)
(64.2898 0.0368409 0)
(64.2938 0.0369093 0)
(64.2978 0.03698 0)
(64.3019 0.0370534 0)
(64.3059 0.0371301 0)
(64.31 0.0372108 0)
(64.3141 0.0372961 0)
(64.3182 0.0373869 0)
(64.3223 0.0374837 0)
(64.3264 0.0375868 0)
(64.3306 0.0376961 0)
(64.3347 0.0378089 0)
(64.339 0.0379239 0)
(64.3432 0.0380188 0)
(64.3477 0.0381153 0)
(64.3511 0.0380661 0)
(64.358 0.0381619 0)
(51.1896 0.000879544 0)
(85.6084 0.00543804 0)
(72.8138 0.0104948 0)
(60.183 0.0145663 0)
(59.6457 0.0175308 0)
(63.1721 0.0198692 0)
(64.6443 0.0220077 0)
(64.1609 0.0240524 0)
(63.5456 0.0259094 0)
(63.4556 0.0275074 0)
(63.6046 0.02887 0)
(63.6897 0.0300567 0)
(63.6798 0.0311045 0)
(63.6524 0.0320255 0)
(63.6464 0.0328275 0)
(63.6537 0.0335237 0)
(63.6598 0.0341294 0)
(63.6614 0.0346572 0)
(63.6617 0.0351165 0)
(63.6628 0.0355155 0)
(63.6645 0.0358617 0)
(63.6663 0.0361618 0)
(63.6678 0.0364215 0)
(63.6693 0.036646 0)
(63.6708 0.0368396 0)
(63.6723 0.0370061 0)
(63.6739 0.037149 0)
(63.6754 0.0372711 0)
(63.6769 0.0373751 0)
(63.6784 0.0374632 0)
(63.6799 0.0375374 0)
(63.6814 0.0375994 0)
(63.6829 0.0376507 0)
(63.6844 0.0376926 0)
(63.686 0.0377265 0)
(63.6875 0.0377531 0)
(63.689 0.0377736 0)
(63.6905 0.0377886 0)
(63.692 0.0377989 0)
(63.6935 0.0378051 0)
(63.695 0.0378078 0)
(63.6965 0.0378074 0)
(63.6981 0.0378044 0)
(63.6996 0.0377992 0)
(63.7011 0.037792 0)
(63.7026 0.0377831 0)
(63.7042 0.0377728 0)
(63.7057 0.0377614 0)
(63.7072 0.0377489 0)
(63.7088 0.0377355 0)
(63.7103 0.0377215 0)
(63.7118 0.037707 0)
(63.7134 0.037692 0)
(63.7149 0.0376767 0)
(63.7165 0.0376612 0)
(63.718 0.0376456 0)
(63.7196 0.0376298 0)
(63.7211 0.0376141 0)
(63.7227 0.0375984 0)
(63.7242 0.0375828 0)
(63.7258 0.0375673 0)
(63.7274 0.0375519 0)
(63.7289 0.0375367 0)
(63.7305 0.0375218 0)
(63.7321 0.037507 0)
(63.7336 0.0374925 0)
(63.7352 0.0374782 0)
(63.7368 0.0374642 0)
(63.7384 0.0374505 0)
(63.7399 0.037437 0)
(63.7415 0.0374238 0)
(63.7431 0.037411 0)
(63.7447 0.0373984 0)
(63.7463 0.0373861 0)
(63.7479 0.0373741 0)
(63.7494 0.0373625 0)
(63.751 0.0373511 0)
(63.7526 0.03734 0)
(63.7542 0.0373293 0)
(63.7558 0.0373188 0)
(63.7574 0.0373085 0)
(63.759 0.0372986 0)
(63.7606 0.0372889 0)
(63.7623 0.0372796 0)
(63.7639 0.0372705 0)
(63.7655 0.0372617 0)
(63.7671 0.0372532 0)
(63.7687 0.037245 0)
(63.7703 0.037237 0)
(63.7719 0.0372293 0)
(63.7736 0.0372219 0)
(63.7752 0.0372147 0)
(63.7768 0.0372078 0)
(63.7784 0.0372011 0)
(63.7801 0.0371946 0)
(63.7817 0.0371883 0)
(63.7833 0.0371823 0)
(63.785 0.0371765 0)
(63.7866 0.0371709 0)
(63.7883 0.0371655 0)
(63.7899 0.0371603 0)
(63.7915 0.0371553 0)
(63.7932 0.0371505 0)
(63.7948 0.0371459 0)
(63.7965 0.0371415 0)
(63.7981 0.0371374 0)
(63.7998 0.0371334 0)
(63.8014 0.0371296 0)
(63.8031 0.037126 0)
(63.8048 0.0371226 0)
(63.8064 0.0371194 0)
(63.8081 0.0371164 0)
(63.8097 0.0371136 0)
(63.8114 0.0371109 0)
(63.8131 0.0371084 0)
(63.8147 0.0371061 0)
(63.8164 0.037104 0)
(63.8181 0.037102 0)
(63.8198 0.0371002 0)
(63.8214 0.0370985 0)
(63.8231 0.037097 0)
(63.8248 0.0370956 0)
(63.8265 0.0370944 0)
(63.8282 0.0370933 0)
(63.8299 0.0370923 0)
(63.8315 0.0370915 0)
(63.8332 0.0370908 0)
(63.8349 0.0370903 0)
(63.8366 0.0370899 0)
(63.8383 0.0370896 0)
(63.84 0.0370895 0)
(63.8417 0.0370895 0)
(63.8434 0.0370897 0)
(63.8451 0.0370899 0)
(63.8468 0.0370904 0)
(63.8485 0.0370909 0)
(63.8502 0.0370916 0)
(63.852 0.0370924 0)
(63.8537 0.0370933 0)
(63.8554 0.0370943 0)
(63.8571 0.0370955 0)
(63.8588 0.0370967 0)
(63.8605 0.0370981 0)
(63.8623 0.0370996 0)
(63.864 0.0371012 0)
(63.8657 0.0371029 0)
(63.8675 0.0371047 0)
(63.8692 0.0371066 0)
(63.8709 0.0371086 0)
(63.8726 0.0371108 0)
(63.8744 0.037113 0)
(63.8761 0.0371154 0)
(63.8779 0.0371178 0)
(63.8796 0.0371204 0)
(63.8814 0.0371231 0)
(63.8831 0.0371258 0)
(63.8848 0.0371287 0)
(63.8866 0.0371317 0)
(63.8883 0.0371347 0)
(63.8901 0.0371379 0)
(63.8919 0.0371411 0)
(63.8936 0.0371444 0)
(63.8954 0.0371479 0)
(63.8971 0.0371514 0)
(63.8989 0.0371549 0)
(63.9007 0.0371586 0)
(63.9024 0.0371623 0)
(63.9042 0.0371661 0)
(63.906 0.03717 0)
(63.9077 0.037174 0)
(63.9095 0.0371781 0)
(63.9113 0.0371822 0)
(63.9131 0.0371864 0)
(63.9149 0.0371907 0)
(63.9166 0.0371951 0)
(63.9184 0.0371996 0)
(63.9202 0.0372041 0)
(63.922 0.0372088 0)
(63.9238 0.0372135 0)
(63.9256 0.0372183 0)
(63.9274 0.0372231 0)
(63.9292 0.0372281 0)
(63.931 0.0372331 0)
(63.9328 0.0372382 0)
(63.9346 0.0372434 0)
(63.9364 0.0372486 0)
(63.9382 0.0372539 0)
(63.94 0.0372593 0)
(63.9418 0.0372647 0)
(63.9436 0.0372702 0)
(63.9454 0.0372757 0)
(63.9472 0.0372814 0)
(63.9491 0.0372871 0)
(63.9509 0.0372928 0)
(63.9527 0.0372987 0)
(63.9545 0.0373046 0)
(63.9563 0.0373106 0)
(63.9582 0.0373166 0)
(63.96 0.0373228 0)
(63.9618 0.037329 0)
(63.9637 0.0373354 0)
(63.9655 0.0373418 0)
(63.9673 0.0373483 0)
(63.9692 0.0373549 0)
(63.971 0.0373615 0)
(63.9729 0.0373683 0)
(63.9747 0.0373752 0)
(63.9766 0.0373822 0)
(63.9784 0.0373893 0)
(63.9803 0.0373964 0)
(63.9821 0.0374038 0)
(63.984 0.0374112 0)
(63.9858 0.0374187 0)
(63.9877 0.0374264 0)
(63.9896 0.0374343 0)
(63.9914 0.0374423 0)
(63.9933 0.0374505 0)
(63.9951 0.037459 0)
(63.997 0.0374676 0)
(63.9989 0.0374766 0)
(64.0008 0.0374858 0)
(64.0026 0.0374954 0)
(64.0045 0.0375054 0)
(64.0064 0.0375158 0)
(64.0083 0.0375267 0)
(64.0102 0.0375381 0)
(64.012 0.0375502 0)
(64.0139 0.037563 0)
(64.0158 0.0375767 0)
(64.0177 0.0375913 0)
(64.0196 0.0376069 0)
(64.0215 0.0376238 0)
(64.0234 0.0376421 0)
(64.0253 0.0376621 0)
(64.0272 0.0376839 0)
(64.0291 0.0377079 0)
(64.031 0.0377343 0)
(64.0329 0.0377635 0)
(64.0348 0.0377957 0)
(64.0367 0.0378312 0)
(64.0387 0.0378703 0)
(64.0406 0.0379129 0)
(64.0425 0.0379586 0)
(64.0445 0.038007 0)
(64.0464 0.0380556 0)
(64.0484 0.0381041 0)
(64.0504 0.0381418 0)
(64.0525 0.038184 0)
(64.0541 0.0381665 0)
(64.0572 0.0382412 0)
(51.1905 0.000606826 0)
(85.6103 0.00323846 0)
(72.8141 0.00569672 0)
(60.1811 0.00737256 0)
(59.6426 0.00852387 0)
(63.1687 0.00951644 0)
(64.6407 0.010476 0)
(64.1569 0.0113545 0)
(63.5411 0.0120902 0)
(63.4507 0.0126808 0)
(63.5994 0.0131641 0)
(63.6843 0.0135743 0)
(63.6743 0.0139268 0)
(63.6468 0.0142263 0)
(63.6408 0.0144783 0)
(63.648 0.0146916 0)
(63.6541 0.0148745 0)
(63.6557 0.0150333 0)
(63.656 0.0151722 0)
(63.6571 0.0152947 0)
(63.6589 0.015404 0)
(63.6608 0.0155028 0)
(63.6624 0.0155933 0)
(63.664 0.0156773 0)
(63.6656 0.0157563 0)
(63.6672 0.0158313 0)
(63.6688 0.0159033 0)
(63.6704 0.0159731 0)
(63.672 0.0160415 0)
(63.6736 0.0161087 0)
(63.6752 0.0161754 0)
(63.6768 0.0162418 0)
(63.6784 0.0163081 0)
(63.68 0.0163746 0)
(63.6816 0.0164414 0)
(63.6832 0.0165087 0)
(63.6848 0.0165765 0)
(63.6864 0.0166448 0)
(63.688 0.0167138 0)
(63.6896 0.0167834 0)
(63.6912 0.0168537 0)
(63.6928 0.0169246 0)
(63.6944 0.0169962 0)
(63.696 0.0170685 0)
(63.6976 0.0171413 0)
(63.6992 0.0172148 0)
(63.7008 0.0172889 0)
(63.7024 0.0173634 0)
(63.704 0.0174385 0)
(63.7056 0.0175141 0)
(63.7072 0.0175901 0)
(63.7088 0.0176665 0)
(63.7104 0.0177432 0)
(63.7121 0.0178203 0)
(63.7137 0.0178977 0)
(63.7153 0.0179754 0)
(63.7169 0.0180533 0)
(63.7185 0.0181315 0)
(63.7202 0.0182098 0)
(63.7218 0.0182883 0)
(63.7234 0.0183669 0)
(63.725 0.0184457 0)
(63.7267 0.0185245 0)
(63.7283 0.0186035 0)
(63.73 0.0186825 0)
(63.7316 0.0187615 0)
(63.7332 0.0188406 0)
(63.7349 0.0189197 0)
(63.7365 0.0189989 0)
(63.7382 0.0190779 0)
(63.7398 0.019157 0)
(63.7415 0.0192359 0)
(63.7431 0.0193148 0)
(63.7448 0.0193937 0)
(63.7464 0.0194724 0)
(63.7481 0.019551 0)
(63.7497 0.0196295 0)
(63.7514 0.0197079 0)
(63.7531 0.0197861 0)
(63.7547 0.0198643 0)
(63.7564 0.0199422 0)
(63.7581 0.0200201 0)
(63.7598 0.0200977 0)
(63.7614 0.0201752 0)
(63.7631 0.0202525 0)
(63.7648 0.0203296 0)
(63.7665 0.0204066 0)
(63.7682 0.0204833 0)
(63.7698 0.0205598 0)
(63.7715 0.0206361 0)
(63.7732 0.0207122 0)
(63.7749 0.0207882 0)
(63.7766 0.0208639 0)
(63.7783 0.0209394 0)
(63.78 0.0210147 0)
(63.7817 0.0210898 0)
(63.7834 0.0211647 0)
(63.7851 0.0212393 0)
(63.7868 0.0213138 0)
(63.7885 0.021388 0)
(63.7902 0.0214619 0)
(63.792 0.0215357 0)
(63.7937 0.0216092 0)
(63.7954 0.0216825 0)
(63.7971 0.0217555 0)
(63.7988 0.0218283 0)
(63.8006 0.0219009 0)
(63.8023 0.0219732 0)
(63.804 0.0220453 0)
(63.8057 0.0221171 0)
(63.8075 0.0221886 0)
(63.8092 0.0222599 0)
(63.8109 0.0223309 0)
(63.8127 0.0224017 0)
(63.8144 0.0224722 0)
(63.8162 0.0225425 0)
(63.8179 0.0226125 0)
(63.8196 0.0226823 0)
(63.8214 0.0227518 0)
(63.8231 0.022821 0)
(63.8249 0.0228901 0)
(63.8266 0.0229589 0)
(63.8284 0.0230274 0)
(63.8302 0.0230957 0)
(63.8319 0.0231638 0)
(63.8337 0.0232316 0)
(63.8354 0.0232992 0)
(63.8372 0.0233665 0)
(63.839 0.0234335 0)
(63.8407 0.0235003 0)
(63.8425 0.0235668 0)
(63.8443 0.0236331 0)
(63.8461 0.0236991 0)
(63.8478 0.0237649 0)
(63.8496 0.0238304 0)
(63.8514 0.0238956 0)
(63.8532 0.0239607 0)
(63.855 0.0240254 0)
(63.8568 0.02409 0)
(63.8585 0.0241543 0)
(63.8603 0.0242183 0)
(63.8621 0.0242821 0)
(63.8639 0.0243457 0)
(63.8657 0.0244091 0)
(63.8675 0.0244722 0)
(63.8693 0.024535 0)
(63.8711 0.0245976 0)
(63.8729 0.02466 0)
(63.8747 0.0247222 0)
(63.8765 0.0247841 0)
(63.8783 0.0248457 0)
(63.8802 0.0249072 0)
(63.882 0.0249683 0)
(63.8838 0.0250293 0)
(63.8856 0.02509 0)
(63.8874 0.0251504 0)
(63.8892 0.0252107 0)
(63.8911 0.0252706 0)
(63.8929 0.0253304 0)
(63.8947 0.0253899 0)
(63.8965 0.0254492 0)
(63.8984 0.0255083 0)
(63.9002 0.0255671 0)
(63.902 0.0256257 0)
(63.9039 0.0256841 0)
(63.9057 0.0257422 0)
(63.9075 0.0258001 0)
(63.9094 0.0258578 0)
(63.9112 0.0259153 0)
(63.9131 0.0259726 0)
(63.9149 0.0260296 0)
(63.9167 0.0260864 0)
(63.9186 0.026143 0)
(63.9204 0.0261993 0)
(63.9223 0.0262555 0)
(63.9242 0.0263114 0)
(63.926 0.0263671 0)
(63.9279 0.0264226 0)
(63.9297 0.0264779 0)
(63.9316 0.0265329 0)
(63.9334 0.0265878 0)
(63.9353 0.0266424 0)
(63.9372 0.0266968 0)
(63.939 0.0267511 0)
(63.9409 0.0268051 0)
(63.9428 0.0268589 0)
(63.9446 0.0269125 0)
(63.9465 0.0269659 0)
(63.9484 0.0270191 0)
(63.9503 0.0270721 0)
(63.9522 0.0271249 0)
(63.954 0.0271776 0)
(63.9559 0.02723 0)
(63.9578 0.0272822 0)
(63.9597 0.0273342 0)
(63.9616 0.027386 0)
(63.9635 0.0274377 0)
(63.9653 0.0274891 0)
(63.9672 0.0275404 0)
(63.9691 0.0275914 0)
(63.971 0.0276423 0)
(63.9729 0.027693 0)
(63.9748 0.0277435 0)
(63.9767 0.0277938 0)
(63.9786 0.027844 0)
(63.9805 0.027894 0)
(63.9824 0.0279438 0)
(63.9843 0.0279936 0)
(63.9862 0.0280431 0)
(63.9881 0.0280926 0)
(63.99 0.0281419 0)
(63.992 0.0281911 0)
(63.9939 0.0282403 0)
(63.9958 0.0282893 0)
(63.9977 0.0283383 0)
(63.9996 0.0283873 0)
(64.0015 0.0284363 0)
(64.0035 0.0284852 0)
(64.0054 0.0285342 0)
(64.0073 0.0285832 0)
(64.0092 0.0286323 0)
(64.0112 0.0286814 0)
(64.0131 0.0287308 0)
(64.015 0.0287803 0)
(64.0169 0.02883 0)
(64.0189 0.02888 0)
(64.0208 0.0289304 0)
(64.0227 0.0289812 0)
(64.0247 0.0290325 0)
(64.0266 0.0290844 0)
(64.0285 0.029137 0)
(64.0305 0.0291904 0)
(64.0324 0.0292447 0)
(64.0344 0.0293001 0)
(64.0363 0.0293567 0)
(64.0383 0.0294146 0)
(64.0402 0.029474 0)
(64.0422 0.0295348 0)
(64.0441 0.0295972 0)
(64.0461 0.0296611 0)
(64.0481 0.0297262 0)
(64.05 0.0297923 0)
(64.052 0.0298587 0)
(64.054 0.0299244 0)
(64.056 0.0299882 0)
(64.058 0.0300482 0)
(64.06 0.0301017 0)
(64.0621 0.0301478 0)
(64.0637 0.0301783 0)
(64.0669 0.0302082 0)
(51.1915 0.00048585 0)
(85.6127 0.00274326 0)
(72.8169 0.00508572 0)
(60.1839 0.00696905 0)
(59.6452 0.0085548 0)
(63.1713 0.0100765 0)
(64.6433 0.0115813 0)
(64.1594 0.0130147 0)
(63.5436 0.0143356 0)
(63.4531 0.0155439 0)
(63.6017 0.0166564 0)
(63.6865 0.017685 0)
(63.6764 0.0186334 0)
(63.6489 0.0195038 0)
(63.6427 0.0203007 0)
(63.6499 0.0210299 0)
(63.6558 0.0216975 0)
(63.6574 0.0223084 0)
(63.6576 0.0228673 0)
(63.6586 0.0233782 0)
(63.6603 0.0238454 0)
(63.6621 0.0242728 0)
(63.6636 0.0246637 0)
(63.6651 0.0250215 0)
(63.6666 0.0253491 0)
(63.6681 0.0256491 0)
(63.6697 0.0259241 0)
(63.6712 0.0261764 0)
(63.6727 0.0264079 0)
(63.6743 0.0266205 0)
(63.6758 0.0268159 0)
(63.6773 0.0269956 0)
(63.6788 0.0271611 0)
(63.6804 0.0273135 0)
(63.6819 0.027454 0)
(63.6835 0.0275837 0)
(63.685 0.0277035 0)
(63.6865 0.0278143 0)
(63.6881 0.0279168 0)
(63.6896 0.0280117 0)
(63.6912 0.0280997 0)
(63.6927 0.0281813 0)
(63.6943 0.0282571 0)
(63.6958 0.0283275 0)
(63.6974 0.028393 0)
(63.699 0.0284539 0)
(63.7005 0.0285107 0)
(63.7021 0.0285635 0)
(63.7037 0.0286128 0)
(63.7052 0.0286588 0)
(63.7068 0.0287017 0)
(63.7084 0.0287418 0)
(63.71 0.0287793 0)
(63.7116 0.0288144 0)
(63.7132 0.0288472 0)
(63.7147 0.0288779 0)
(63.7163 0.0289066 0)
(63.7179 0.0289336 0)
(63.7195 0.0289588 0)
(63.7211 0.0289825 0)
(63.7227 0.0290047 0)
(63.7244 0.0290255 0)
(63.726 0.029045 0)
(63.7276 0.0290633 0)
(63.7292 0.0290804 0)
(63.7308 0.0290965 0)
(63.7324 0.0291115 0)
(63.7341 0.0291257 0)
(63.7357 0.0291389 0)
(63.7373 0.0291514 0)
(63.7389 0.029163 0)
(63.7406 0.0291739 0)
(63.7422 0.0291842 0)
(63.7439 0.0291937 0)
(63.7455 0.0292027 0)
(63.7471 0.029211 0)
(63.7488 0.0292188 0)
(63.7504 0.0292261 0)
(63.7521 0.0292329 0)
(63.7538 0.0292393 0)
(63.7554 0.0292452 0)
(63.7571 0.0292507 0)
(63.7587 0.0292559 0)
(63.7604 0.0292607 0)