/*--------------------------------*- C++ -*----------------------------------*\
| =========                 |                                                 |
| \\      /  F ield         | OpenFOAM: The Open Source CFD Toolbox           |
|  \\    /   O peration     | Version:  2406                                  |
|   \\  /    A nd           | Website:  www.openfoam.com                      |
|    \\/     M anipulation  |                                                 |
\*---------------------------------------------------------------------------*/
FoamFile
{
    version     2.0;
    format      ascii;
    arch        "LSB;label=32;scalar=64";
    class       surfaceScalarField;
    location    "1.05";
    object      alphaPhi0.air;
}
// * * * * * * * * * * * * * * * * * * * * * * * * * * * * * * * * * * * * * //

dimensions      [0 3 -1 0 0 0 0];

oriented        oriented;

internalField   nonuniform List<scalar> 
12225
(
0.508302
1.59499e-06
0.508297
4.8387e-06
0.508291
6.55775e-06
0.508285
5.72597e-06
0.50828
4.887e-06
0.508275
4.96569e-06
0.50827
5.03044e-06
0.508264
5.56473e-06
0.508259
5.59549e-06
0.508253
6.10493e-06
0.508246
6.69365e-06
0.50824
6.46216e-06
0.508234
6.02613e-06
0.508228
5.23607e-06
0.508224
4.48648e-06
0.508219
4.48399e-06
0.508214
5.15613e-06
0.508209
5.55236e-06
0.508203
5.41521e-06
0.508198
5.38476e-06
0.508193
5.22486e-06
0.508187
5.13522e-06
0.508182
5.55584e-06
0.508176
5.66464e-06
0.508171
5.26519e-06
0.508166
4.90318e-06
0.508161
4.66581e-06
0.508157
4.86397e-06
0.508151
5.34874e-06
0.508146
5.46797e-06
0.50814
5.39763e-06
0.508135
5.44054e-06
0.508129
5.6008e-06
0.508123
5.8289e-06
0.508118
5.90524e-06
0.508112
5.80369e-06
0.508106
5.64909e-06
0.508101
5.35452e-06
0.508096
5.06255e-06
0.508091
4.96371e-06
0.508086
4.85977e-06
0.508081
4.80295e-06
0.508076
5.1427e-06
0.50807
5.78939e-06
0.508064
6.41898e-06
0.508057
6.6514e-06
0.508051
6.22482e-06
0.508045
5.53953e-06
0.50804
5.10705e-06
0.508035
5.02252e-06
0.50803
5.23685e-06
0.508024
5.53178e-06
0.508019
5.54904e-06
0.508014
5.2649e-06
0.508009
4.96972e-06
0.508004
4.88401e-06
0.507999
5.01686e-06
0.507994
5.17795e-06
0.507988
5.19551e-06
0.507983
5.0915e-06
0.507978
4.877e-06
0.507974
4.68783e-06
0.507969
4.78676e-06
0.507964
5.03551e-06
0.507959
5.16676e-06
0.507953
5.36942e-06
0.507948
5.74245e-06
0.507942
5.96735e-06
0.507936
5.82635e-06
0.50793
5.41921e-06
0.507925
5.01513e-06
0.50792
4.96024e-06
0.507915
5.26227e-06
0.507909
5.70546e-06
0.507903
6.09219e-06
0.507897
6.05352e-06
0.507892
5.56611e-06
0.507887
5.12137e-06
0.507882
4.98818e-06
0.507876
5.1511e-06
0.507871
5.48145e-06
0.507865
5.72005e-06
0.507859
5.84709e-06
0.507853
6.04105e-06
0.507847
6.17066e-06
0.507841
5.9824e-06
0.507836
5.6862e-06
0.50783
5.59766e-06
0.507824
5.55957e-06
0.507819
5.42501e-06
0.507814
5.36812e-06
0.507808
5.44758e-06
0.507802
5.60473e-06
0.507797
5.74293e-06
0.507791
5.80902e-06
0.507785
5.89776e-06
0.507779
5.87768e-06
0.507774
5.53308e-06
0.507768
5.1866e-06
0.507763
5.27839e-06
0.507757
5.70134e-06
0.507751
6.08104e-06
0.507745
6.20498e-06
0.507739
5.98428e-06
0.507734
5.55491e-06
0.507728
5.33288e-06
0.507723
5.39153e-06
0.507718
5.3263e-06
0.507712
5.09559e-06
0.507707
5.11008e-06
0.507702
5.49283e-06
0.507696
5.91826e-06
0.50769
6.0064e-06
0.507684
5.77467e-06
0.507679
5.51446e-06
0.507673
5.32361e-06
0.507668
5.21087e-06
0.507663
5.22691e-06
0.507658
5.25673e-06
0.507653
5.11931e-06
0.507648
4.89197e-06
0.507643
4.79342e-06
0.507638
4.86071e-06
0.507633
5.04232e-06
0.507628
5.37157e-06
0.507622
5.73982e-06
0.507616
5.90702e-06
0.50761
5.80355e-06
0.507605
5.48298e-06
0.5076
5.04933e-06
0.507595
4.76896e-06
0.50759
4.84232e-06
0.507585
5.06951e-06
0.50758
5.07965e-06
0.507575
4.87167e-06
0.50757
4.79812e-06
0.507565
5.02614e-06
0.50756
5.35624e-06
0.507554
5.50145e-06
0.507549
5.35411e-06
0.507544
5.03839e-06
0.507539
4.78249e-06
0.507534
4.73326e-06
0.50753
4.87107e-06
0.507524
5.06511e-06
0.507519
5.23092e-06
0.507514
5.34745e-06
0.507508
5.41155e-06
0.507503
5.46177e-06
0.507497
5.52368e-06
0.507492
5.54782e-06
0.507486
5.44753e-06
0.507481
5.21333e-06
0.507476
4.96661e-06
0.507471
4.87731e-06
0.507466
5.00344e-06
0.507461
5.27021e-06
0.507456
5.52909e-06
0.50745
5.60016e-06
0.507445
5.47715e-06
0.507439
5.33737e-06
0.507434
5.27513e-06
0.507429
5.2342e-06
0.507424
5.13711e-06
0.507419
4.99931e-06
0.507414
5.02117e-06
0.507408
5.38991e-06
0.507402
5.96614e-06
0.507396
6.40013e-06
0.507389
6.4969e-06
0.507383
6.28937e-06
0.507377
5.93893e-06
0.507371
5.67846e-06
0.507366
5.63986e-06
0.50736
5.77425e-06
0.507354
5.9917e-06
0.507348
6.21416e-06
0.507341
6.33836e-06
0.507335
6.32795e-06
0.507329
6.26189e-06
0.507323
6.24742e-06
0.507316
6.27168e-06
0.50731
6.16146e-06
0.507304
5.86122e-06
0.507299
5.55483e-06
0.507293
5.40663e-06
0.507288
5.44047e-06
0.507282
5.56603e-06
0.507277
5.5952e-06
0.507271
5.45501e-06
0.507266
5.36922e-06
0.50726
5.54101e-06
0.507255
5.79092e-06
0.507249
5.79442e-06
0.507243
5.51005e-06
0.507238
5.16092e-06
0.507233
4.97149e-06
0.507228
5.00692e-06
0.507223
5.18339e-06
0.507218
5.36528e-06
0.507212
5.43703e-06
0.507207
5.40796e-06
0.507201
5.35135e-06
0.507196
5.23066e-06
0.507191
5.01397e-06
0.507186
4.83608e-06
0.507182
4.78212e-06
0.507177
4.74315e-06
0.507172
4.64876e-06
0.507168
4.60081e-06
0.507163
4.68757e-06
0.507158
4.83187e-06
0.507153
4.90063e-06
0.507148
4.82929e-06
0.507144
4.62747e-06
0.507139
4.40077e-06
0.507135
4.325e-06
0.50713
4.4778e-06
0.507126
4.67592e-06
0.507121
4.66394e-06
0.507117
4.47173e-06
0.507112
4.33273e-06
0.507108
4.34591e-06
0.507103
4.45483e-06
0.507099
4.58758e-06
0.507094
4.68668e-06
0.50709
4.71398e-06
0.507085
4.6965e-06
0.50708
4.70362e-06
0.507075
4.73155e-06
0.507071
4.70409e-06
0.507066
4.60846e-06
0.507062
4.52531e-06
0.507057
4.50107e-06
0.507053
4.52794e-06
0.507048
4.63004e-06
0.507043
4.81673e-06
0.507038
4.99801e-06
0.507033
5.10026e-06
0.507028
5.14449e-06
0.507023
5.12805e-06
0.507018
5.01303e-06
0.507013
4.85368e-06
0.507008
4.75558e-06
0.507003
4.73204e-06
0.506999
4.7373e-06
0.506994
4.87005e-06
0.506989
5.10061e-06
0.506983
5.69558e-06
5.2215e-06
0.508309
-9.3028e-08
0.508314
2.77691e-07
0.508319
1.01019e-06
0.508323
1.95279e-06
0.508326
2.09548e-06
0.508329
1.9308e-06
0.508332
2.04159e-06
0.508335
2.47355e-06
0.508338
2.66877e-06
0.508342
1.69648e-06
0.508347
1.68134e-06
0.508351
2.29846e-06
0.508355
2.2947e-06
0.508358
2.47104e-06
0.50836
2.89476e-06
0.508361
2.72847e-06
0.508364
2.51932e-06
0.508366
3.05003e-06
0.508368
3.3608e-06
0.508371
3.23112e-06
0.508373
3.24247e-06
0.508375
2.6357e-06
0.508379
1.8885e-06
0.508382
2.1505e-06
0.508385
2.48057e-06
0.508388
2.40037e-06
0.50839
1.98079e-06
0.508394
1.54969e-06
0.508397
1.84869e-06
0.5084
2.59325e-06
0.508402
2.96342e-06
0.508405
2.97125e-06
0.508408
2.89303e-06
0.508411
2.8467e-06
0.508414
2.69724e-06
0.508417
2.28184e-06
0.508421
1.92062e-06
0.508424
1.97373e-06
0.508427
2.38271e-06
0.508429
2.90775e-06
0.508431
3.09413e-06
0.508433
2.72863e-06
0.508436
2.39839e-06
0.508439
2.41348e-06
0.508443
2.52486e-06
0.508447
2.66638e-06
0.50845
2.76962e-06
0.508453
2.79034e-06
0.508455
2.91713e-06
0.508457
2.96953e-06
0.50846
2.65029e-06
0.508463
2.15188e-06
0.508467
1.80766e-06
0.508471
1.6833e-06
0.508474
1.75299e-06
0.508477
2.03022e-06
0.508479
2.46732e-06
0.508482
2.88132e-06
0.508484
3.05827e-06
0.508486
3.1347e-06
0.508487
3.23728e-06
0.508489
3.05615e-06
0.508491
2.5442e-06
0.508494
2.09077e-06
0.508498
1.74493e-06
0.508501
1.50242e-06
0.508506
1.66957e-06
0.508509
2.25782e-06
0.508512
2.85017e-06
0.508514
3.14519e-06
0.508516
3.02678e-06
0.508519
2.6736e-06
0.508522
2.35288e-06
0.508525
2.10281e-06
0.508529
2.06576e-06
0.508533
2.24583e-06
0.508536
2.26972e-06
0.508539
2.0959e-06
0.508542
2.02442e-06
0.508545
2.16416e-06
0.508548
2.50033e-06
0.508551
2.81402e-06
0.508554
2.84006e-06
0.508558
2.74383e-06
0.508561
2.74897e-06
0.508564
2.64128e-06
0.508568
2.32115e-06
0.508571
2.17763e-06
0.508574
2.37506e-06
0.508577
2.57032e-06
0.50858
2.56695e-06
0.508583
2.45852e-06
0.508586
2.36551e-06
0.50859
2.36535e-06
0.508593
2.39631e-06
0.508596
2.51635e-06
0.508599
2.85474e-06
0.508602
3.07875e-06
0.508604
2.81192e-06
0.508607
2.31784e-06
0.508611
2.06048e-06
0.508615
2.1368e-06
0.508619
2.42367e-06
0.508622
2.68526e-06
0.508625
2.64088e-06
0.508628
2.4319e-06
0.508631
2.52133e-06
0.508633
2.84557e-06
0.508635
2.89808e-06
0.508638
2.59026e-06
0.508641
2.32233e-06
0.508644
2.39551e-06
0.508648
2.6613e-06
0.508651
2.78122e-06
0.508654
2.71447e-06
0.508656
2.57099e-06
0.508659
2.3452e-06
0.508662
2.15334e-06
0.508665
2.18985e-06
0.508668
2.37393e-06
0.50867
2.5023e-06
0.508673
2.58213e-06
0.508675
2.66121e-06
0.508677
2.65676e-06
0.50868
2.60157e-06
0.508683
2.63922e-06
0.508686
2.76022e-06
0.508689
2.88925e-06
0.508692
2.97753e-06
0.508694
2.8794e-06
0.508696
2.53168e-06
0.508699
2.21445e-06
0.508702
2.2394e-06
0.508704
2.4694e-06
0.508706
2.51709e-06
0.508709
2.30841e-06
0.508712
2.11254e-06
0.508715
2.14573e-06
0.508718
2.38815e-06
0.508721
2.67254e-06
0.508723
2.81578e-06
0.508725
2.76613e-06
0.508727
2.61256e-06
0.50873
2.45668e-06
0.508732
2.33156e-06
0.508735
2.25273e-06
0.508739
2.23555e-06
0.508742
2.26258e-06
0.508745
2.34907e-06
0.508748
2.54521e-06
0.50875
2.82333e-06
0.508753
3.05748e-06
0.508755
3.10574e-06
0.508757
2.90623e-06
0.508759
2.54921e-06
0.508762
2.20538e-06
0.508765
2.02148e-06
0.508769
2.07263e-06
0.508772
2.27247e-06
0.508775
2.44424e-06
0.508778
2.56475e-06
0.508781
2.72136e-06
0.508783
2.94031e-06
0.508785
3.14117e-06
0.508787
3.13225e-06
0.508789
2.79809e-06
0.508792
2.35855e-06
0.508796
2.15264e-06
0.5088
2.23019e-06
0.508804
2.42056e-06
0.508808
2.6022e-06
0.508811
2.70272e-06
0.508814
2.70377e-06
0.508817
2.67846e-06
0.50882
2.66518e-06
0.508823
2.65052e-06
0.508827
2.6284e-06
0.508831
2.5541e-06
0.508835
2.36145e-06
0.508839
2.09788e-06
0.508843
1.92755e-06
0.508847
2.0112e-06
0.508851
2.30257e-06
0.508855
2.51875e-06
0.508858
2.51327e-06
0.508861
2.38995e-06
0.508864
2.31192e-06
0.508867
2.39561e-06
0.50887
2.58176e-06
0.508873
2.61205e-06
0.508876
2.38286e-06
0.508879
2.1699e-06
0.508883
2.25579e-06
0.508886
2.5645e-06
0.508889
2.8202e-06
0.508891
2.83978e-06
0.508893
2.64167e-06
0.508896
2.40071e-06
0.508899
2.27734e-06
0.508902
2.28824e-06
0.508905
2.31052e-06
0.508908
2.24863e-06
0.508911
2.19767e-06
0.508914
2.25375e-06
0.508917
2.33158e-06
0.508919
2.38516e-06
0.508922
2.50198e-06
0.508924
2.64922e-06
0.508926
2.6489e-06
0.508928
2.45154e-06
0.50893
2.2088e-06
0.508933
2.09402e-06
0.508936
2.16281e-06
0.508938
2.35997e-06
0.50894
2.53994e-06
0.508942
2.55465e-06
0.508944
2.39954e-06
0.508946
2.26533e-06
0.508949
2.33426e-06
0.508951
2.53975e-06
0.508953
2.69507e-06
0.508954
2.74899e-06
0.508956
2.73397e-06
0.508958
2.66484e-06
0.50896
2.58364e-06
0.508962
2.52757e-06
0.508964
2.44872e-06
0.508966
2.30393e-06
0.508969
2.20732e-06
0.508971
2.32078e-06
0.508973
2.60627e-06
0.508975
2.85399e-06
0.508977
2.94606e-06
0.508978
2.93274e-06
0.50898
2.8597e-06
0.508982
2.73352e-06
0.508984
2.60905e-06
0.508987
2.51651e-06
0.508989
2.4328e-06
0.508992
2.40472e-06
0.508995
2.48196e-06
0.508997
2.57195e-06
0.508999
2.58143e-06
0.509002
2.57955e-06
0.509004
2.65054e-06
0.509006
2.68983e-06
0.509008
2.59259e-06
0.509011
2.46533e-06
0.509014
2.43767e-06
2.68194e-06
0.508309
-7.07418e-07
0.508308
4.79508e-07
0.508307
2.14975e-06
0.508307
2.61385e-06
0.508306
3.08422e-06
0.508304
3.14388e-06
0.508304
2.16002e-06
0.508306
1.32939e-06
0.508307
1.52948e-06
0.508307
1.50612e-06
0.508308
9.72365e-07
0.508309
1.30516e-06
0.508309
2.01491e-06
0.508309
1.92741e-06
0.50831
1.88865e-06
0.508311
2.20886e-06
0.508312
1.80568e-06
0.508313
1.42154e-06
0.508315
1.96236e-06
0.508316
2.12362e-06
0.508317
1.8246e-06
0.508318
2.02167e-06
0.508318
2.0502e-06
0.508318
1.85821e-06
0.508318
2.13957e-06
0.508318
2.97343e-06
0.508316
3.64873e-06
0.508314
3.45546e-06
0.508313
2.6349e-06
0.508314
2.25576e-06
0.508314
2.42308e-06
0.508315
2.43427e-06
0.508315
2.22762e-06
0.508316
1.94995e-06
0.508317
1.84707e-06
0.508317
2.08239e-06
0.508317
2.44785e-06
0.508316
2.57942e-06
0.508316
2.14849e-06
0.508318
1.51533e-06
0.50832
1.42155e-06
0.50832
1.89786e-06
0.50832
2.55863e-06
0.50832
2.9536e-06
0.508319
2.6841e-06
0.50832
2.05421e-06
0.508321
1.62035e-06
0.508322
1.54683e-06
0.508324
1.89133e-06
0.508324
2.49289e-06
0.508324
2.85313e-06
0.508323
2.72471e-06
0.508323
2.35857e-06
0.508322
2.0346e-06
0.508322
1.82249e-06
0.508323
1.69842e-06
0.508323
1.71733e-06
0.508324
1.97187e-06
0.508325
2.25201e-06
0.508326
2.38781e-06
0.508327
2.52648e-06
0.508327
2.57744e-06
0.508327
2.40901e-06
0.508327
2.38197e-06
0.508326
2.63687e-06
0.508325
2.77856e-06
0.508324
2.66432e-06
0.508323
2.4646e-06
0.508324
2.27706e-06
0.508325
2.20916e-06
0.508326
2.24922e-06
0.508326
2.35841e-06
0.508326
2.55768e-06
0.508325
2.65029e-06
0.508325
2.60473e-06
0.508324
2.6832e-06
0.508324
2.77536e-06
0.508323
2.63658e-06
0.508323
2.33755e-06
0.508323
2.00831e-06
0.508324
1.85893e-06
0.508325
2.00827e-06
0.508325
2.16012e-06
0.508326
2.15172e-06
0.508326
2.23923e-06
0.508327
2.43518e-06
0.508326
2.38734e-06
0.508327
2.15194e-06
0.508327
2.11152e-06
0.508327
2.25839e-06
0.508327
2.38324e-06
0.508327
2.40411e-06
0.508327
2.32885e-06
0.508327
2.27283e-06
0.508328
2.19172e-06
0.508328
2.0027e-06
0.508329
1.98643e-06
0.50833
2.26813e-06
0.50833
2.46347e-06
0.50833
2.34774e-06
0.50833
2.11814e-06
0.50833
1.96339e-06
0.508331
1.9853e-06
0.508331
2.23606e-06
0.508331
2.43588e-06
0.508332
2.29006e-06
0.508332
2.10888e-06
0.508332
2.30095e-06
0.508333
2.6557e-06
0.508333
2.71082e-06
0.508333
2.37788e-06
0.508333
1.99635e-06
0.508334
1.87401e-06
0.508335
1.95461e-06
0.508335
2.11868e-06
0.508335
2.34967e-06
0.508335
2.48329e-06
0.508335
2.37487e-06
0.508335
2.20114e-06
0.508335
2.159e-06
0.508336
2.20511e-06
0.508336
2.30605e-06
0.508336
2.51979e-06
0.508336
2.73663e-06
0.508336
2.80258e-06
0.508336
2.75362e-06
0.508336
2.63832e-06
0.508336
2.46456e-06
0.508337
2.35004e-06
0.508337
2.3368e-06
0.508338
2.23216e-06
0.508338
1.9671e-06
0.508338
1.82941e-06
0.508339
2.04667e-06
0.508339
2.4106e-06
0.508338
2.57297e-06
0.508338
2.45333e-06
0.508338
2.21082e-06
0.508338
2.02699e-06
0.508339
1.98822e-06
0.50834
2.04626e-06
0.508341
2.09735e-06
0.508341
2.11224e-06
0.508341
2.14025e-06
0.508342
2.19412e-06
0.508342
2.24185e-06
0.508341
2.2656e-06
0.508342
2.22741e-06
0.508342
2.08988e-06
0.508342
1.91496e-06
0.508343
1.82188e-06
0.508345
1.88103e-06
0.508346
2.06188e-06
0.508346
2.24184e-06
0.508347
2.3186e-06
0.508346
2.27627e-06
0.508346
2.14382e-06
0.508346
2.02427e-06
0.508347
2.00756e-06
0.508347
2.01569e-06
0.508348
1.95838e-06
0.508349
1.87852e-06
0.50835
1.88079e-06
0.508351
2.07351e-06
0.508351
2.42567e-06
0.508352
2.65651e-06
0.508351
2.55589e-06
0.508351
2.2601e-06
0.508351
1.99899e-06
0.508352
1.85482e-06
0.508353
1.84051e-06
0.508354
1.91991e-06
0.508354
2.0104e-06
0.508355
2.10193e-06
0.508355
2.22416e-06
0.508356
2.36456e-06
0.508356
2.52317e-06
0.508356
2.6803e-06
0.508355
2.74093e-06
0.508355
2.6024e-06
0.508354
2.25104e-06
0.508354
1.88226e-06
0.508355
1.76119e-06
0.508356
1.88345e-06
0.508356
2.0534e-06
0.508356
2.14516e-06
0.508356
2.14299e-06
0.508357
2.16853e-06
0.508357
2.39596e-06
0.508357
2.74048e-06
0.508356
2.86335e-06
0.508356
2.6313e-06
0.508356
2.27843e-06
0.508356
2.06495e-06
0.508357
2.04641e-06
0.508358
2.1174e-06
0.508358
2.13284e-06
0.508359
2.04675e-06
0.508359
1.95099e-06
0.508359
1.98689e-06
0.508359
2.17309e-06
0.508359
2.34986e-06
0.508359
2.4216e-06
0.508359
2.46719e-06
0.508359
2.49985e-06
0.508359
2.45314e-06
0.508359
2.41064e-06
0.508359
2.51531e-06
0.508359
2.71968e-06
0.508358
2.84801e-06
0.508358
2.81348e-06
0.508357
2.65858e-06
0.508357
2.48464e-06
0.508357
2.40749e-06
0.508357
2.47953e-06
0.508357
2.61158e-06
0.508357
2.62108e-06
0.508356
2.44705e-06
0.508357
2.24719e-06
0.508357
2.15443e-06
0.508358
2.11909e-06
0.508358
2.08091e-06
0.508359
2.04946e-06
0.50836
2.01329e-06
0.50836
1.97085e-06
0.508361
1.9804e-06
0.508361
2.04746e-06
0.508361
2.04332e-06
0.508362
1.87464e-06
0.508362
1.65821e-06
0.508363
1.58654e-06
0.508365
1.68334e-06
0.508366
1.83365e-06
0.508367
1.97549e-06
0.508367
2.09959e-06
0.508368
2.17749e-06
0.508368
2.22439e-06
0.508369
2.27328e-06
0.508369
2.27446e-06
0.508369
2.2043e-06
0.508369
2.15765e-06
0.50837
2.17617e-06
0.50837
2.16703e-06
0.508371
2.10014e-06
0.508371
2.10211e-06
0.508372
2.22116e-06
0.508372
2.30993e-06
0.508372
2.29184e-06
0.508372
2.26738e-06
2.31621e-06
0.508307
2.24623e-07
0.508308
8.96193e-08
0.508309
6.64408e-07
0.508311
1.17536e-06
0.508313
1.06096e-06
0.508315
1.12704e-06
0.508315
1.87598e-06
0.508314
2.17015e-06
0.508314
1.95219e-06
0.508313
2.52044e-06
0.508311
2.69479e-06
0.50831
2.16796e-06
0.50831
2.15999e-06
0.508309
2.53053e-06
0.508309
2.1056e-06
0.508309
1.88663e-06
0.508309
2.2086e-06
0.508309
1.79231e-06
0.50831
1.04294e-06
0.50831
1.82791e-06
0.508309
2.48753e-06
0.508309
2.45091e-06
0.508309
2.30173e-06
0.508308
1.99258e-06
0.508309
1.6319e-06
0.50831
1.5658e-06
0.508313
1.39179e-06
0.508315
1.01833e-06
0.508317
8.53194e-07
0.508318
1.02277e-06
0.508319
1.55581e-06
0.50832
1.81104e-06
0.50832
1.78477e-06
0.50832
1.72972e-06
0.50832
1.98047e-06
0.50832
2.5671e-06
0.508319
3.02954e-06
0.508319
3.04944e-06
0.508318
2.65359e-06
0.508317
2.16377e-06
0.508317
1.98008e-06
0.508317
1.9707e-06
0.508317
1.94316e-06
0.508318
1.98262e-06
0.508319
1.96339e-06
0.508319
1.86229e-06
0.508319
1.85478e-06
0.508319
1.88924e-06
0.508319
1.90741e-06
0.508319
2.07208e-06
0.50832
2.35053e-06
0.50832
2.54411e-06
0.508319
2.62065e-06
0.508319
2.63676e-06
0.508318
2.58582e-06
0.508317
2.43227e-06
0.508317
2.23044e-06
0.508317
2.20635e-06
0.508317
2.32035e-06
0.508317
2.21135e-06
0.508317
1.89915e-06
0.508318
1.56232e-06
0.50832
1.1546e-06
0.508321
9.52918e-07
0.508322
1.35205e-06
0.508323
2.02161e-06
0.508323
2.41701e-06
0.508323
2.38228e-06
0.508324
2.02489e-06
0.508324
1.64434e-06
0.508325
1.45247e-06
0.508326
1.46001e-06
0.508327
1.72492e-06
0.508327
2.05373e-06
0.508328
2.14369e-06
0.508328
2.17873e-06
0.508329
2.34471e-06
0.508329
2.51341e-06
0.508329
2.60087e-06
0.508328
2.48811e-06
0.508328
2.19032e-06
0.508328
2.01929e-06
0.508328
2.00853e-06
0.508328
1.89297e-06
0.508329
1.77793e-06
0.508329
1.93473e-06
0.508329
2.1395e-06
0.50833
2.08421e-06
0.50833
1.91329e-06
0.50833
1.79884e-06
0.508331
1.75313e-06
0.508331
1.7848e-06
0.508332
1.84529e-06
0.508332
1.98845e-06
0.508332
2.18088e-06
0.508332
2.10744e-06
0.508332
1.78152e-06
0.508333
1.60167e-06
0.508334
1.64814e-06
0.508334
1.72889e-06
0.508335
1.80507e-06
0.508335
1.86229e-06
0.508335
1.86512e-06
0.508335
2.00907e-06
0.508335
2.36701e-06
0.508335
2.54778e-06
0.508335
2.36295e-06
0.508335
2.17602e-06
0.508335
2.27169e-06
0.508335
2.48576e-06
0.508335
2.48337e-06
0.508335
2.19682e-06
0.508335
1.86521e-06
0.508335
1.61622e-06
0.508336
1.43977e-06
0.508337
1.44809e-06
0.508338
1.65374e-06
0.508338
1.8123e-06
0.508339
1.80836e-06
0.508339
1.7675e-06
0.50834
1.72616e-06
0.50834
1.66791e-06
0.508341
1.73286e-06
0.508342
1.96959e-06
0.508343
2.20621e-06
0.508343
2.34525e-06
0.508343
2.37397e-06
0.508343
2.23233e-06
0.508344
2.00382e-06
0.508344
1.92281e-06
0.508344
1.99845e-06
0.508344
1.98632e-06
0.508344
1.84251e-06
0.508345
1.82585e-06
0.508345
2.07098e-06
0.508345
2.40552e-06
0.508345
2.60671e-06
0.508345
2.59322e-06
0.508344
2.41475e-06
0.508344
2.20038e-06
0.508344
2.06278e-06
0.508344
2.00396e-06
0.508344
1.97333e-06
0.508344
1.97491e-06
0.508345
2.02524e-06
0.508345
2.102e-06
0.508345
2.20562e-06
0.508345
2.3358e-06
0.508344
2.41681e-06
0.508344
2.37248e-06
0.508343
2.2076e-06
0.508343
2.00983e-06
0.508343
1.90573e-06
0.508344
1.94699e-06
0.508344
2.08423e-06
0.508344
2.23558e-06
0.508344
2.29416e-06
0.508344
2.24394e-06
0.508343
2.23073e-06
0.508343
2.32483e-06
0.508343
2.43696e-06
0.508342
2.46983e-06
0.508342
2.35812e-06
0.508341
2.16947e-06
0.508342
2.12236e-06
0.508342
2.26181e-06
0.508342
2.38059e-06
0.508342
2.35377e-06
0.508342
2.23067e-06
0.508342
2.07104e-06
0.508342
1.94288e-06
0.508342
1.91217e-06
0.508342
1.9444e-06
0.508342
1.97783e-06
0.508342
1.98882e-06
0.508343
1.94125e-06
0.508343
1.84808e-06
0.508344
1.79122e-06
0.508345
1.83512e-06
0.508346
1.95345e-06
0.508346
1.97067e-06
0.508346
1.75998e-06
0.508346
1.47041e-06
0.508347
1.31642e-06
0.508348
1.35729e-06
0.508348
1.53898e-06
0.508349
1.70837e-06
0.508349
1.73478e-06
0.50835
1.74021e-06
0.508351
1.94511e-06
0.508351
2.28524e-06
0.508351
2.48562e-06
0.508351
2.42682e-06
0.508351
2.20095e-06
0.508351
1.96254e-06
0.508351
1.82682e-06
0.508352
1.80268e-06
0.508352
1.81054e-06
0.508352
1.77174e-06
0.508352
1.71087e-06
0.508353
1.73424e-06
0.508353
1.83232e-06
0.508354
1.89969e-06
0.508354
1.95545e-06
0.508355
2.03863e-06
0.508355
2.03212e-06
0.508356
1.85914e-06
0.508357
1.65233e-06
0.508358
1.57039e-06
0.508359
1.62511e-06
0.50836
1.74043e-06
0.508361
1.83139e-06
0.508362
1.8281e-06
0.508362
1.7347e-06
0.508363
1.66394e-06
0.508364
1.74236e-06
0.508365
1.93324e-06
0.508365
2.06238e-06
0.508365
2.07761e-06
0.508365
2.07632e-06
0.508365
2.08696e-06
0.508365
2.07124e-06
0.508365
2.04442e-06
0.508365
2.02006e-06
0.508365
1.97156e-06
0.508365
1.92903e-06
0.508365
1.99172e-06
0.508365
2.17006e-06
0.508365
2.32046e-06
0.508364
2.32636e-06
0.508364
2.23991e-06
0.508363
2.16353e-06
0.508363
2.11899e-06
0.508363
2.11301e-06
0.508363
2.16865e-06
0.508363
2.24144e-06
0.508362
2.28536e-06
0.508362
2.34376e-06
0.508362
2.41254e-06
0.508362
2.40261e-06
0.508362
2.33465e-06
0.508362
2.31679e-06
0.508362
2.33275e-06
0.508361
2.2725e-06
0.508361
2.15646e-06
0.508361
2.12699e-06
0.508362
2.17997e-06
0.508362
2.18238e-06
0.508362
2.13608e-06
2.10941e-06
0.508307
-3.22173e-07
0.508308
-1.68393e-07
0.508308
7.59165e-08
0.508309
6.08489e-07
0.508308
1.46751e-06
0.508308
1.32133e-06
0.508309
1.20791e-06
0.50831
1.41765e-06
0.50831
1.3666e-06
0.508311
1.29327e-06
0.508313
1.36651e-06
0.508313
1.50236e-06
0.508314
1.1398e-06
0.508315
1.58899e-06
0.508315
2.29172e-06
0.508315
2.25568e-06
0.508315
2.14271e-06
0.508314
2.45674e-06
0.508313
2.32901e-06
0.508313
1.87658e-06
0.508314
1.53248e-06
0.508315
1.38129e-06
0.508316
1.49078e-06
0.508316
1.81295e-06
0.508316
1.8707e-06
0.508316
1.61081e-06
0.508315
1.53159e-06
0.508315
1.85294e-06
0.508313
2.37607e-06
0.508312
2.50451e-06
0.508311
2.13529e-06
0.508311
1.52808e-06
0.508312
1.14163e-06
0.508312
1.25392e-06
0.508313
1.75993e-06
0.508313
2.07649e-06
0.508314
1.89904e-06
0.508316
1.64825e-06
0.508317
1.71036e-06
0.508317
2.01246e-06
0.508316
2.37389e-06
0.508316
2.37991e-06
0.508316
1.89181e-06
0.508317
1.36385e-06
0.508318
1.07305e-06
0.508318
1.03821e-06
0.508319
1.30816e-06
0.508319
1.71026e-06
0.508319
1.89406e-06
0.508319
1.83252e-06
0.50832
1.72035e-06
0.508321
1.62075e-06
0.508322
1.52621e-06
0.508323
1.46491e-06
0.508324
1.54079e-06
0.508325
1.79603e-06
0.508325
2.09231e-06
0.508325
2.35459e-06
0.508325
2.53601e-06
0.508325
2.35239e-06
0.508325
1.87344e-06
0.508325
1.58041e-06
0.508324
1.50325e-06
0.508324
1.44759e-06
0.508323
1.54433e-06
0.508324
1.79861e-06
0.508324
1.9773e-06
0.508325
1.97102e-06
0.508325
1.78048e-06
0.508325
1.56758e-06
0.508325
1.50187e-06
0.508325
1.51675e-06
0.508325
1.66627e-06
0.508325
1.95905e-06
0.508325
2.04875e-06
0.508325
1.85839e-06
0.508326
1.61632e-06
0.508327
1.42001e-06
0.508328
1.38329e-06
0.508329
1.47458e-06
0.50833
1.47095e-06
0.508331
1.45664e-06
0.508331
1.60997e-06
0.508331
1.69326e-06
0.508332
1.52892e-06
0.508332
1.44699e-06
0.508333
1.61833e-06
0.508333
1.78849e-06
0.508333
1.87261e-06
0.508333
1.92872e-06
0.508333
1.94775e-06
0.508332
1.9704e-06
0.508332
1.95816e-06
0.508332
1.95362e-06
0.508332
2.12651e-06
0.508332
2.28033e-06
0.508332
2.11229e-06
0.508332
1.8017e-06
0.508332
1.65045e-06
0.508332
1.6603e-06
0.508332
1.77827e-06
0.508332
1.94535e-06
0.508332
1.93689e-06
0.508332
1.7757e-06
0.508332
1.83035e-06
0.508333
2.09854e-06
0.508333
2.198e-06
0.508333
2.03108e-06
0.508334
1.8254e-06
0.508334
1.76757e-06
0.508335
1.78756e-06
0.508335
1.72146e-06
0.508336
1.63268e-06
0.508336
1.62178e-06
0.508336
1.59496e-06
0.508335
1.54743e-06
0.508335
1.6174e-06
0.508335
1.76046e-06
0.508335
1.83931e-06
0.508335
1.92071e-06
0.508335
2.07492e-06
0.508334
2.18136e-06
0.508334
2.22234e-06
0.508334
2.31372e-06
0.508333
2.41949e-06
0.508333
2.45996e-06
0.508333
2.4418e-06
0.508333
2.28196e-06
0.508333
1.90326e-06
0.508334
1.51217e-06
0.508334
1.39094e-06
0.508335
1.47934e-06
0.508335
1.50575e-06
0.508336
1.41546e-06
0.508336
1.35937e-06
0.508337
1.40843e-06
0.508338
1.51099e-06
0.508339
1.59239e-06
0.50834
1.60206e-06
0.508341
1.55192e-06
0.508341
1.51563e-06
0.508342
1.52922e-06
0.508342
1.5535e-06
0.508343
1.56978e-06
0.508343
1.60255e-06
0.508344
1.64091e-06
0.508344
1.67386e-06
0.508345
1.73655e-06
0.508345
1.836e-06
0.508346
1.93248e-06
0.508346
1.97276e-06
0.508346
1.91154e-06
0.508346
1.76562e-06
0.508347
1.59831e-06
0.508347
1.46964e-06
0.508348
1.44611e-06
0.508349
1.50155e-06
0.508349
1.51714e-06
0.50835
1.49982e-06
0.508351
1.54468e-06
0.508352
1.67701e-06
0.508352
1.88042e-06
0.508353
2.04726e-06
0.508353
2.02622e-06
0.508353
1.87608e-06
0.508353
1.78221e-06
0.508354
1.7612e-06
0.508355
1.73246e-06
0.508355
1.69602e-06
0.508356
1.66286e-06
0.508356
1.633e-06
0.508356
1.65186e-06
0.508356
1.72669e-06
0.508357
1.8248e-06
0.508357
1.94062e-06
0.508357
2.02754e-06
0.508356
2.01045e-06
0.508356
1.86707e-06
0.508356
1.66307e-06
0.508357
1.5554e-06
0.508357
1.60006e-06
0.508357
1.65518e-06
0.508357
1.6277e-06
0.508357
1.568e-06
0.508357
1.55571e-06
0.508357
1.68466e-06
0.508356
1.95837e-06
0.508356
2.17763e-06
0.508355
2.18818e-06
0.508355
2.12538e-06
0.508355
2.17512e-06
0.508356
2.30294e-06
0.508356
2.37555e-06
0.508356
2.32359e-06
0.508355
2.16048e-06
0.508355
1.97444e-06
0.508355
1.86168e-06
0.508355
1.84848e-06
0.508355
1.86568e-06
0.508355
1.83869e-06
0.508355
1.82202e-06
0.508355
1.87437e-06
0.508355
1.90793e-06
0.508355
1.8835e-06
0.508355
1.9082e-06
0.508355
1.99748e-06
0.508355
2.02166e-06
0.508355
1.92479e-06
0.508354
1.78035e-06
0.508354
1.66324e-06
0.508354
1.61304e-06
0.508355
1.64966e-06
0.508355
1.73498e-06
0.508355
1.7714e-06
0.508355
1.70262e-06
0.508355
1.61677e-06
0.508355
1.63929e-06
0.508355
1.72975e-06
0.508356
1.77355e-06
0.508356
1.77816e-06
0.508356
1.78692e-06
0.508357
1.77882e-06
0.508357
1.75461e-06
0.508357
1.74378e-06
0.508357
1.71231e-06
0.508358
1.60038e-06
0.508358
1.45618e-06
0.508359
1.40664e-06
0.50836
1.47319e-06
0.508361
1.55184e-06
0.508361
1.58688e-06
0.508362
1.61751e-06
0.508362
1.65149e-06
0.508363
1.66264e-06
0.508363
1.67851e-06
0.508364
1.70353e-06
0.508364
1.68704e-06
0.508365
1.66413e-06
0.508366
1.70485e-06
0.508366
1.74717e-06
0.508367
1.71001e-06
0.508368
1.66353e-06
0.508368
1.70281e-06
0.508369
1.75491e-06
0.508369
1.71503e-06
0.50837
1.66297e-06
0.50837
1.70946e-06
0.508371
1.7956e-06
0.508371
1.84126e-06
1.84097e-06
0.50831
2.58227e-07
0.508309
6.77885e-07
0.508308
1.03015e-06
0.508307
1.21821e-06
0.508307
1.24128e-06
0.508308
1.2452e-06
0.508308
8.92429e-07
0.508308
9.16752e-07
0.508308
1.27816e-06
0.508308
1.3088e-06
0.508309
6.44468e-07
0.50831
9.29423e-07
0.508309
1.80954e-06
0.508309
1.67005e-06
0.50831
8.5745e-07
0.508312
1.11365e-06
0.508312
1.60872e-06
0.508313
1.91212e-06
0.508313
1.49527e-06
0.508315
7.7753e-07
0.508315
6.16131e-07
0.508316
1.06208e-06
0.508315
1.89601e-06
0.508315
2.1255e-06
0.508315
1.72712e-06
0.508315
1.41409e-06
0.508315
1.62745e-06
0.508315
2.06407e-06
0.508315
2.3548e-06
0.508315
2.17064e-06
0.508316
1.49992e-06
0.508317
1.10521e-06
0.508316
1.37897e-06
0.508316
1.77065e-06
0.508316
1.84401e-06
0.508316
1.57492e-06
0.508317
1.05615e-06
0.508318
8.35035e-07
0.508318
1.19903e-06
0.508319
1.70819e-06
0.508319
2.10743e-06
0.508319
2.2167e-06
0.508319
1.88838e-06
0.508319
1.50829e-06
0.508319
1.36497e-06
0.508318
1.30562e-06
0.508318
1.24065e-06
0.508319
1.31377e-06
0.508319
1.37087e-06
0.50832
1.3377e-06
0.50832
1.34379e-06
0.508321
1.37091e-06
0.508321
1.28826e-06
0.508321
1.12225e-06
0.508322
1.07034e-06
0.508322
1.3246e-06
0.508322
1.73405e-06
0.508323
2.00993e-06
0.508323
2.13507e-06
0.508323
1.99977e-06
0.508324
1.55053e-06
0.508324
1.2479e-06
0.508324
1.35388e-06
0.508324
1.55836e-06
0.508324
1.67619e-06
0.508324
1.71302e-06
0.508324
1.62784e-06
0.508325
1.46396e-06
0.508326
1.25279e-06
0.508326
1.09052e-06
0.508326
1.17139e-06
0.508326
1.38644e-06
0.508326
1.62248e-06
0.508326
1.99699e-06
0.508326
2.32189e-06
0.508326
2.37215e-06
0.508325
2.2426e-06
0.508324
1.99562e-06
0.508324
1.78225e-06
0.508324
1.77701e-06
0.508323
1.76691e-06
0.508323
1.6017e-06
0.508323
1.55025e-06
0.508323
1.6687e-06
0.508323
1.64211e-06
0.508323
1.49117e-06
0.508323
1.47473e-06
0.508324
1.51961e-06
0.508324
1.52232e-06
0.508324
1.54323e-06
0.508325
1.60221e-06
0.508325
1.73254e-06
0.508325
1.8134e-06
0.508325
1.6753e-06
0.508326
1.52068e-06
0.508327
1.51288e-06
0.508327
1.43351e-06
0.508328
1.20502e-06
0.508329
1.03549e-06
0.508329
1.00405e-06
0.50833
1.09665e-06
0.508331
1.36426e-06
0.508331
1.60981e-06
0.508331
1.55006e-06
0.508332
1.39202e-06
0.508332
1.47617e-06
0.508333
1.70054e-06
0.508333
1.78893e-06
0.508333
1.66507e-06
0.508333
1.48101e-06
0.508334
1.37668e-06
0.508334
1.28352e-06
0.508335
1.18283e-06
0.508335
1.19105e-06
0.508335
1.25115e-06
0.508336
1.23811e-06
0.508336
1.23723e-06
0.508337
1.32254e-06
0.508337
1.37033e-06
0.508338
1.36377e-06
0.508338
1.46216e-06
0.508339
1.65311e-06
0.508339
1.81294e-06
0.50834
1.94488e-06
0.50834
2.01959e-06
0.50834
1.96907e-06
0.508341
1.89228e-06
0.508341
1.87404e-06
0.508342
1.77873e-06
0.508341
1.53124e-06
0.508342
1.34844e-06
0.508342
1.43037e-06
0.508341
1.66539e-06
0.508341
1.84243e-06
0.50834
1.90894e-06
0.50834
1.90758e-06
0.50834
1.87224e-06
0.508339
1.82225e-06
0.508339
1.74713e-06
0.508339
1.62568e-06
0.508339
1.49735e-06
0.508339
1.43738e-06
0.508339
1.45163e-06
0.508339
1.49958e-06
0.508339
1.56945e-06
0.508339
1.62933e-06
0.50834
1.62566e-06
0.50834