/*--------------------------------*- C++ -*----------------------------------*\
| =========                 |                                                 |
| \\      /  F ield         | OpenFOAM: The Open Source CFD Toolbox           |
|  \\    /   O peration     | Version:  2406                                  |
|   \\  /    A nd           | Website:  www.openfoam.com                      |
|    \\/     M anipulation  |                                                 |
\*---------------------------------------------------------------------------*/
FoamFile
{
    version     2.0;
    format      ascii;
    arch        "LSB;label=32;scalar=64";
    class       volScalarField;
    location    "1.05";
    object      p;
}
// * * * * * * * * * * * * * * * * * * * * * * * * * * * * * * * * * * * * * //

dimensions      [1 -1 -2 0 0 0 0];

internalField   nonuniform List<scalar> 
6250
(
37.8988
-3144.41
-968.689
590.875
543.328
78.0979
-80.4942
-3.73865
71.7003
77.642
57.426
47.7359
49.7948
53.2419
53.743
52.7147
51.9716
51.7897
51.7277
51.5545
51.3037
51.0446
50.8109
50.6016
50.3881
50.152
49.9249
49.7037
49.4767
49.2528
49.0321
48.8072
48.5774
48.3513
48.1272
47.8997
47.6732
47.451
47.2278
47.0006
46.7764
46.5545
46.329
46.1063
45.8858
45.6589
45.4329
45.213
44.9932
44.7707
44.5457
44.3221
44.1019
43.8774
43.6491
43.4276
43.2098
42.9887
42.7669
42.542
42.3136
42.0898
41.8704
41.6504
41.43
41.2063
40.9786
40.7542
40.535
40.3175
40.1004
39.88
39.6538
39.4229
39.1914
38.9691
38.757
38.5441
38.3267
38.1036
37.8714
37.6375
37.4111
37.1919
36.9757
36.7585
36.5393
36.3165
36.0864
35.8526
35.6218
35.3963
35.1771
34.9629
34.7479
34.5263
34.2991
34.0698
33.8385
33.6086
33.3827
33.158
32.9364
32.7187
32.4993
32.2768
32.0515
31.8233
31.593
31.3605
31.1283
30.8993
30.6756
30.4575
30.2423
30.0278
29.8117
29.5915
29.37
29.1466
28.9166
28.6826
28.4494
28.218
27.9897
27.7641
27.5402
27.3185
27.0998
26.8848
26.6714
26.4561
26.2377
26.0177
25.7962
25.5716
25.3463
25.1223
24.8958
24.6656
24.4361
24.2072
23.9772
23.7481
23.5208
23.2929
23.0644
22.8374
22.613
22.3908
22.1698
21.9496
21.7282
21.5054
21.2848
21.0683
20.8528
20.6348
20.4155
20.1966
19.9771
19.7573
19.5378
19.317
19.0954
18.8736
18.6508
18.428
18.2059
17.983
17.7582
17.5317
17.3052
17.0804
16.8568
16.6328
16.4072
16.1804
15.9547
15.7313
15.5087
15.2845
15.0594
14.8342
14.6081
14.3833
14.1614
13.9391
13.715
13.491
13.2681
13.0454
12.8224
12.6002
12.3786
12.156
11.9328
11.7104
11.4891
11.2682
11.0484
10.829
10.6075
10.3845
10.1628
9.94209
9.72116
9.49976
9.27775
9.05604
8.83576
8.61625
8.39588
8.17341
7.94937
7.72561
7.50335
7.28239
7.06107
6.83778
6.61335
6.39007
6.16815
5.94536
5.72132
5.49759
5.27385
5.0494
4.82489
4.60035
4.37559
4.15129
3.92766
3.70346
3.47766
3.25166
3.02752
2.80435
2.57956
2.35302
2.12736
1.90361
1.67982
1.45523
1.23106
1.00745
0.783708
0.559662
0.338393
0.109484
37.8684
-3144.46
-968.718
590.869
543.325
78.095
-80.488
-3.74087
71.6883
77.6367
57.4273
47.7404
49.7973
53.2482
53.7526
52.7177
51.9623
51.7792
51.7259
51.5514
51.2987
51.0504
50.8223
50.5984
50.3795
50.154
49.9293
49.7045
49.4743
49.2471
49.0243
48.8021
48.5779
48.3531
48.1286
47.9017
47.674
47.4508
47.2287
46.9999
46.7737
46.5575
46.3358
46.1057
45.8788
45.6537
45.4312
45.2133
44.9932
44.7698
44.5448
44.3206
44.1033
43.8859
43.6574
43.4291
43.2089
42.9874
42.7637
42.5389
42.3111
42.0885
41.8724
41.6534
41.4299
41.2031
40.9729
40.7487
40.5353
40.3244
40.1079
39.8818
39.6493
39.4183
39.1898
38.9684
38.7585
38.5472
38.3264
38.1007
37.8691
37.6348
37.4076
37.1906
36.9797
36.7652
36.5422
36.3142
36.0826
35.8496
35.6206
35.3971
35.1778
34.9627
34.7497
34.5306
34.3023
34.0704
33.8361
33.6021
33.3757
33.1544
32.936
32.7221
32.5069
32.2852
32.0566
31.8232
31.5891
31.3554
31.1235
30.8954
30.6726
30.4563
30.2433
30.031
29.8179
29.5976
29.3713
29.1454
28.917
28.6841
28.4501
28.2166
27.9857
27.7596
27.538
27.3191
27.1014
26.885
26.6705
26.4558
26.2384
26.0194
25.8002
25.577
25.3483
25.1203
24.8937
24.6644
24.4349
24.2072
23.9779
23.7475
23.519
23.2923
23.0656
22.8387
22.6127
22.388
22.1652
21.9459
21.7293
21.5109
21.2894
21.0683
20.85
20.632
20.4133
20.1955
19.9771
19.7574
19.5381
19.3183
19.0974
18.8762
18.6523
18.4259
18.2003
17.9766
17.7544
17.5318
17.3072
17.0816
16.8564
16.6324
16.4087
16.1832
15.9556
15.7284
15.5039
15.2805
15.0579
14.8368
14.6136
14.3873
14.1623
13.9393
13.716
13.4921
13.2685
13.0451
12.8211
12.5977
12.3769
12.1571
11.9361
11.714
11.4917
11.2687
11.046
10.8257
10.6064
10.3853
10.164
9.94336
9.72288
9.50272
9.28178
9.05888
8.83511
8.61235
8.39171
8.17234
7.95221
7.73014
7.50626
7.28231
7.05995
6.83828
6.61516
6.39085
6.16749
5.94451
5.72028
5.49615
5.2729
5.0492
4.82503
4.60094
4.37642
4.1513
3.92659
3.703
3.47889
3.25265
3.02596
2.80143
2.57826
2.35365
2.12773
1.9031
1.67954
1.45522
1.23082
1.00754
0.784025
0.558767
0.332841
0.111669
37.8638
-3144.45
-968.694
590.894
543.332
78.0878
-80.4872
-3.73386
71.688
77.6329
57.4235
47.7389
49.7994
53.2459
53.7473
52.7175
51.9692
51.7823
51.7251
51.557
51.307
51.0459
50.8157
50.6023
50.3812
50.1542
49.9305
49.7072
49.478
49.2496
49.0264
48.8039
48.5784
48.3498
48.1232
47.9017
47.6785
47.4532
47.2295
47.0005
46.7695
46.5497
46.3328
46.1079
45.8838
45.6623
45.4391
45.2159
44.9913
44.7672
44.5455
44.3209
44.0974
43.8795
43.657
43.4311
43.2107
42.9886
42.7625
42.5382
42.3134
42.0903
41.8727
41.6526
41.427
41.2014
40.9757
40.7531
40.5386
40.3258
40.1063
39.8771
39.6423
39.4145
39.195
38.9782
38.7665
38.5519
38.3249
38.0927
37.8616
37.6326
37.4096
37.1938
36.9831
36.7695
36.5455
36.314
36.0798
35.8457
35.6176
35.3976
35.1816
34.9654
34.7492
34.5296
34.3014
34.0695
33.8367
33.6032
33.3764
33.1568
32.9381
32.7214
32.5047
32.2836
32.0565
31.8231
31.5876
31.3536
31.1232
30.8976
30.6758
30.4587
30.2444
30.0301
29.817
29.5996
29.373
29.1433
28.913
28.6801
28.4474
28.2159
27.9863
27.7604
27.539
27.3214
27.105
26.8878
26.6711
26.455
26.237
26.0161
25.7958
25.5755
25.3504
25.1225
24.8959
24.6671
24.4356
24.2059
23.9768
23.7463
23.5166
23.2895
23.0644
22.8399
22.616
22.3924
22.168
21.9445
21.7249
21.5079
21.2893
21.0692
20.8507
20.6336
20.4154
20.1973
19.979
19.7585
19.5373
19.3158
19.0935
18.8725
18.6525
18.4306
18.2065
17.9812
17.7563
17.532
17.3072
17.0812
16.8548
16.6291
16.4057
16.1834
15.9596
15.7336
15.508
15.2824
15.0563
14.8329
14.6112
14.3871
14.1618
13.9377
13.7143
13.4909
13.2681
13.0465
12.8243
12.6003
12.3763
12.1541
11.9325
11.7113
11.4911
11.2705
11.0481
10.8264
10.6067
10.3862
10.1643
9.94218
9.71997
9.49883
9.27917
9.05935
8.83815
8.6155
8.39251
8.17036
7.94907
7.72802
7.50603
7.28267
7.05947
6.83753
6.61532
6.39127
6.16714
5.94425
5.72082
5.49663
5.27299
5.04943
4.82549
4.60161
4.37733
4.15183
3.92561
3.70075
3.47757
3.25354
3.02743
2.80153
2.5779
2.35471
2.1296
1.90404
1.67967
1.45516
1.22984
1.00535
0.782492
0.559476
0.335433
0.112325
37.8668
-3144.47
-968.723
590.874
543.331
78.0844
-80.4952
-3.73267
71.6901
77.6321
57.422
47.7404
49.803
53.246
53.7494
52.7191
51.9657
51.7772
51.7222
51.5491
51.3004
51.05
50.8193
50.6027
50.3783
50.1526
49.9299
49.7025
49.4749
49.2524
49.03
48.803
48.5772
48.3531
48.1276
47.903
47.6742
47.4433
47.2232
47.0062
46.7791
46.5518
46.3301
46.1054
45.8802
45.6579
45.435
45.2133
44.9921
44.7694
44.5482
44.3235
44.0955
43.8755
43.6583
43.4348
43.2111
42.986
42.7579
42.5352
42.3166
42.0964
41.8764
41.6525
41.4224
41.1952
40.9742
40.7564
40.5416
40.3259
40.1042
39.8753
39.6403
39.4114
39.1945
38.9801
38.7664
38.5514
38.3252
38.0914
37.8598
37.6333
37.4128
37.1961
36.9819
36.7665
36.5428
36.3113
36.0779
35.8455
35.6181
35.399
35.1853
34.9695
34.7499
34.5276
34.2982
34.0652
33.8341
33.6031
33.3765
33.158
32.9411
32.7234
32.5045
32.2821
32.0553
31.8229
31.5871
31.3522
31.1213
30.8968
30.6768
30.4608
30.2469
30.0305
29.8142
29.5978
29.3742
29.1449
28.9136
28.6801
28.4468
28.2156
27.9864
27.76
27.5372
27.3186
27.1033
26.8883
26.6723
26.4568
26.2405
26.0195
25.796
25.5738
25.3495
25.1213
24.8939
24.6664
24.4358
24.2055
23.9772
23.7485
23.519
23.2902
23.0629
22.8369
22.6128
22.3912
22.1701
21.9473
21.7252
21.5063
21.2887
21.0697
20.8509
20.6333
20.4147
20.1958
19.9778
19.7587
19.5389
19.3186
19.0958
18.8721
18.6497
18.4276
18.2049
17.9805
17.7552
17.5304
17.3062
17.0823
16.8575
16.6313
16.4048
16.1799
15.9559
15.7311
15.507
15.2837
15.0584
14.8329
14.6101
14.3872
14.1629
13.9387
13.7152
13.4912
13.2669
13.0441
12.823
12.6013
12.3784
12.1558
11.9333
11.7108
11.4896
11.27
11.0491
10.8268
10.6056
10.3852
10.1645
9.94375
9.72225
9.50003
9.27842
9.05767
8.83729
8.61637
8.39446
8.17196
7.9494
7.72752
7.50612
7.28376
7.0602
6.8371
6.61496
6.39182
6.16757
5.94422
5.72117
5.49717
5.27305
5.04893
4.82437
4.6001
4.37669
4.15313
3.92779
3.70145
3.47658
3.25307
3.02846
2.80217
2.5766
2.35283
2.12867
1.90352
1.67923
1.45579
1.23141
1.00612
0.781841
0.558734
0.335171
0.111748
37.8559
-3144.46
-968.712
590.875
543.339
78.0861
-80.5017
-3.7291
71.6986
77.6365
57.4184
47.7319
49.8011
53.2457
53.7431
52.718
51.9761
51.7801
51.721
51.5542
51.3048
51.0527
50.8177
50.6001
50.3797
50.154
49.928
49.7023
49.48
49.2565
49.0287
48.7991
48.5751
48.3545
48.1278
47.9016
47.6778
47.4491
47.2232
47.0031
46.7772
46.5502
46.3311
46.1105
45.8838
45.6579
45.4345
45.2146
44.9951
44.7702
44.5462
44.3243
44.0984
43.8764
43.659
43.4351
43.2083
42.9831
42.7569
42.5351
42.3187
42.0993
41.8765
41.6513
41.4213
41.1939
40.9754
40.7606
40.5448
40.3245
40.0989
39.8717
39.6421
39.4154
39.1998
38.9864
38.7685
38.5486
38.3217
38.088
37.8566
37.6325
37.4159
37.2018
36.9855
36.7666
36.5413
36.3091
36.0761
35.846
35.6201
35.4004
35.1868
34.9721
34.751
34.5266
34.2968
34.0625
33.8319
33.6036
33.3775
33.1587
32.9435
32.7268
32.5068
32.282
32.0533
31.821
31.5864
31.3523
31.1211
30.8961
30.6765
30.4612
30.2497
30.035
29.816
29.5969
29.3734
29.1438
28.9121
28.6786
28.4452
28.2144
27.9864
27.7615
27.539
27.3194
27.1033
26.8886
26.6726
26.4556
26.2395
26.0208
25.7973
25.5737
25.35
25.1221
24.8931
24.6656
24.4362
24.2053
23.9759
23.7476
23.5193
23.2912
23.0642
22.838
22.6123
22.389
22.1686
21.9483
21.7267
21.5065
21.2886
21.0704
20.8513
20.6335
20.4154
20.1961
19.9773
19.7579
19.5376
19.318
19.0973
18.8744
18.6509
18.4275
18.2045
17.9809
17.7562
17.5309
17.3058
17.0814
16.8575
16.6329
16.4069
16.1812
15.9566
15.7315
15.5063
15.2832
15.0596
14.8342
14.61
14.3869
14.1629
13.9386
13.7152
13.4922
13.2684
13.0443
12.8217
12.6
12.3778
12.1558
11.9343
11.7121
11.4896
11.2689
11.0489
10.8274
10.6058
10.3849
10.1638
9.9431
9.7225
9.50104
9.27916
9.05739
8.8361
8.61513
8.3939
8.17221
7.94984
7.72731
7.50552
7.28385
7.06084
6.83692
6.61401
6.39146
6.16763
5.94382
5.72071
5.49713
5.27335
5.04974
4.82543
4.60024
4.37533
4.15162
3.92777
3.70223
3.47626
3.25182
3.02825
2.80335
2.57741
2.35273
2.12887
1.90397
1.67883
1.45489
1.23142
1.00699
0.782143
0.558365
0.335051
0.111974
37.859
-3144.47
-968.721
590.868
543.334
78.0913
-80.5018
-3.73534
71.6905
77.6321
57.4265
47.7368
49.7955
53.244
53.7509
52.7198
51.9729
51.7808
51.7221
51.5507
51.2898
51.0415
50.8222
50.6084
50.3808
50.1498
49.9257
49.7014
49.4769
49.2514
49.0256
48.8017
48.5795
48.3563
48.1257
47.8963
47.6769
47.4534
47.2222
46.9974
46.7775
46.5552
46.3336
46.1088
45.8792
45.6537
45.4346
45.2176
44.9973
44.7674
44.5379
44.3195
44.1022
43.8817
43.6612
43.4342
43.2037
42.9793
42.7583
42.5392
42.3223
42.1007
41.873
41.6457
41.4192
41.1949
40.9777
40.7636
40.5462
40.3222
40.0925
39.8653
39.6416
39.4188
39.2032
38.9899
38.7693
38.5445
38.3169
38.0858
37.8562
37.6327
37.4171
37.2045
36.9877
36.7659
36.5388
36.3062
36.0733
35.8452
35.6221
35.4025
35.1872
34.9727
34.7513
34.5251
34.2954
34.0609
33.8295
33.6034
33.3789
33.1591
32.9434
32.7272
32.5076
32.282
32.0515
31.8181
31.5838
31.3515
31.1221
30.898
30.6785
30.4614
30.2489
30.0359
29.8171
29.5961
29.3722
29.1428
28.9108
28.6775
28.444
28.2126
27.9849
27.7613
27.5404
27.3209
27.1038
26.889
26.6736
26.4557
26.2382
26.0205
25.7982
25.5733
25.3494
25.1229
24.8934
24.6651
24.4365
24.2058
23.9753
23.7461
23.5179
23.2904
23.064
22.8391
22.614
22.3892
22.1674
21.9476
21.7272
21.5064
21.2876
21.07
20.8514
20.6334
20.4159
20.1969
19.9778
19.7583
19.5372
19.3165
19.0962
18.8744
18.6514
18.4276
18.2039
17.9804
17.7562
17.5313
17.3058
17.0803
16.8557
16.6318
16.4068
16.1809
15.9561
15.7316
15.506
15.282
15.0592
14.8346
14.6095
14.3859
14.1623
13.9382
13.7144
13.4916
13.2689
13.0452
12.8218
12.5995
12.3773
12.155
11.9337
11.7125
11.4902
11.2685
11.0484
10.8276
10.6061
10.385
10.1635
9.94231
9.72185
9.50116
9.2799
9.05814
8.83634
8.61487
8.39359
8.17235
7.95053
7.72774
7.50501
7.28322
7.06128
6.83787
6.61429
6.39155
6.16805
5.94397
5.72052
5.49692
5.27287
5.04921
4.82573
4.60136
4.37593
4.15101
3.92723
3.70287
3.47703
3.25133
3.02726
2.80343
2.57809
2.35265
2.12849
1.90422
1.67902
1.45414
1.23049
1.00705
0.782685
0.5584
0.334766
0.111775
37.8645
-3144.47
-968.722
590.869
543.327
78.0906
-80.5033
-3.73758
71.6965
77.6381
57.4221
47.7333
49.8017
53.2445
53.7405
52.7115
51.9729
51.7853
51.7242
51.5573
51.3008
51.0481
50.8216
50.5996
50.3771
50.1559
49.9319
49.7024
49.4754
49.2523
49.029
48.8027
48.5738
48.3492
48.1273
47.9028
47.6804
47.4546
47.2207
46.9942
46.7786
46.5594
46.3335
46.1051
45.8776
45.6572
45.4401
45.2196
44.9959
44.7666
44.5377
44.3211
44.1076
43.8851
43.6583
43.4293
43.2003
42.979
42.7628
42.5443
42.3236
42.0986
41.8687
41.6416
41.4201
41.2001
40.9821
40.7647
40.5446
40.3201
40.0904
39.8631
39.643
39.4241
39.2073
38.9925
38.7704
38.5416
38.3121
38.0836
37.858
37.6364
37.4199
37.2062
36.9883
36.7645
36.5363
36.3045
36.0727
35.8458
35.6255
35.4072
35.1895
34.9728
34.7504
34.5225
34.2933
34.0602
33.8283
33.6034
33.3816
33.1624
32.9456
32.7282
32.5079
32.2821
32.0509
31.8168
31.5823
31.3505
31.1222
30.8993
30.6814
30.4641
30.2495
30.0368
29.8188
29.5963
29.3712
29.1416
28.9095
28.6769
28.4442
28.2131
27.9846
27.7604
27.5402
27.3219
27.1047
26.8894
26.675
26.4576
26.2382
26.0199
25.799
25.5737
25.3485
25.1227
24.8936
24.6642
24.4359
24.2067
23.9765
23.7468
23.5181
23.2901
23.063
22.8383
22.6146
22.3903
22.167
21.9468
21.7277
21.5076
21.2881
21.0702
20.8517
20.633
20.4154
20.1969
19.9779
19.7591
19.5383
19.3166
19.0955
18.8741
18.6519
18.4284
18.204
17.9798
17.7557
17.5317
17.3071
17.0815
16.8558
16.6313
16.407
16.1815
15.9565
15.7326
15.5071
15.2818
15.0588
14.8355
14.6108
14.3866
14.163
13.939
13.7146
13.4911
13.2688
13.046
12.8226
12.5999
12.3776
12.1551
11.9332
11.7127
11.4913
11.2689
11.0479
10.8273
10.6064
10.3856
10.1644
9.94268
9.72142
9.50054
9.27976
9.05863
8.83698
8.6151
8.39317
8.17168
7.95054
7.72864
7.50566
7.28282
7.06069
6.83782
6.61409
6.3911
6.1681
5.94425
5.72066
5.4972
5.27305
5.04873
4.82495
4.60126
4.37644
4.15086
3.92627
3.70255
3.47789
3.25196
3.02661
2.8026
2.57816
2.35278
2.12808
1.90422
1.67985
1.4547
1.23004
1.00647
0.782816
0.558764
0.335001
0.111792
37.8595
-3144.47
-968.718
590.872
543.327
78.0891
-80.4977
-3.74009
71.6824
77.6317
57.4316
47.7353
49.7905
53.2434
53.7499
52.7178
51.9672
51.7756
51.7191
51.559
51.3026
51.0375
50.814
50.6046
50.3848
50.1546
49.9218
49.695
49.4775
49.2589
49.0314
48.7992
48.5702
48.3498
48.1325
47.906
47.6749
47.4487
47.2231
47.0002
46.7826
46.5583
46.327
46.0984
45.8767
45.6618
45.4442
45.2165
44.9878
44.7627
44.5398
44.3243
44.1106
43.8858
43.6543
43.4248
43.1992
42.9809
42.7666
42.5473
42.3221
42.0944
41.8652
41.6394
41.4213
41.205
40.9858
40.7636
40.5393
40.315
40.0887
39.863
39.6446
39.4279
39.209
38.9908
38.7681
38.5388
38.3084
38.0812
37.8589
37.6398
37.4227
37.2068
36.9874
36.7622
36.5334
36.303
36.0729
35.8461
35.6262
35.4095
35.191
34.9722
34.7493
34.5199
34.2903
34.0594
33.8279
33.6025
33.3823
33.1643
32.9472
32.7283
32.5066
32.2803
32.0491
31.8153
31.581
31.3498
31.1222
30.8995
30.6829
30.4668
30.2504
30.0361
29.8186
29.5958
29.3699
29.1401
28.9075
28.6745
28.4425
28.2126
27.985
27.7605
27.5402
27.3226
27.1055
26.889
26.6745
26.4586
26.2388
26.0189
25.7986
25.5741
25.3479
25.1224
24.8942
24.6641
24.4346
24.2056
23.9761
23.7467
23.5183
23.2906
23.0629
22.8371
22.614
22.3912
22.1679
21.9462
21.727
21.5077
21.288
21.07
20.8521
20.6333
20.4152
20.1967
19.9772
19.7586
19.5389
19.3174
19.0953
18.8731
18.6509
18.4282
18.2045
17.9801
17.7552
17.5306
17.3064
17.0818
16.8562
16.6307
16.4062
16.1809
15.9553
15.7318
15.5078
15.2823
15.0579
14.8344
14.6102
14.3858
14.1622
13.9389
13.715
13.4907
13.2677
13.0452
12.8222
12.5996
12.3776
12.1552
11.9325
11.7115
11.4911
11.2694
11.0478
10.8269
10.6056
10.3847
10.1642
9.94316
9.72182
9.5004
9.27912
9.05796
8.83671
8.61537
8.39358
8.17151
7.94991
7.72851
7.50618
7.28304
7.06049
6.83801
6.61437
6.39085
6.16787
5.94424
5.72048
5.49715
5.27345
5.04901
4.82452
4.60079
4.37693
4.15172
3.92606
3.70145
3.47749
3.2526
3.02697
2.80227
2.57821
2.3533
2.12796
1.90345
1.67963
1.45529
1.23039
1.00608
0.78235
0.558605
0.334812
0.111791
37.8779
-3144.47
-968.735
590.867
543.339
78.0907
-80.5102
-3.74095
71.6966
77.6324
57.4196
47.7321
49.795
53.2495
53.75
52.7103
51.9621
51.7862
51.7325
51.5539
51.2958
51.0412
50.8198
50.6095
50.3832
50.1503
49.9226
49.7023
49.482
49.2553
49.0249
48.7972
48.575
48.3548
48.1319
47.9016
47.6688
47.4472
47.2303
47.0071
46.7814
46.5529
46.3241
46.1021
45.8844
45.6669
45.4439
45.2113
44.9812
44.763
44.5479
44.3313
44.1115
43.8822
43.6489
43.4225
43.2031
42.9868
42.7703
42.547
42.317
42.0885
41.8639
41.6421
41.4249
41.2089
40.9884
40.7632
40.5356
40.3109
40.0887
39.8658
39.6476
39.432
39.2118
38.9894
38.7651
38.5367
38.3074
38.0812
37.8608
37.6438
37.4265
37.2082
36.9866
36.7599
36.5303
36.3012
36.0741
35.8487
35.6282
35.412
35.193
34.9719
34.7484
34.5184
34.2877
34.0588
33.8292
33.6037
33.3838
33.1666
32.9496
32.7297
32.5061
32.2785
32.0473
31.8143
31.581
31.3508
31.124
30.9006
30.6838
30.4695
30.2531
30.037
29.8188
29.5955
29.3688
29.139
28.9066
28.6736
28.4417
28.2124
27.9858
27.7614
27.5405
27.3232
27.1072
26.8902
26.6743
26.4591
26.2401
26.0189
25.7983
25.5748
25.3479
25.1216
24.8945
24.6649
24.4349
24.2053
23.9757
23.7464
23.5181
23.2912
23.0643
22.8375
22.6131
22.3909
22.1686
21.9466
21.7269
21.5082
21.2886
21.07
20.8522
20.6337
20.4156
20.1974
19.9775
19.7579
19.5385
19.3179
19.0962
18.8736
18.6506
18.4277
18.2043
17.9806
17.7561
17.531
17.3062
17.0816
16.8565
16.6309
16.4066
16.1821
15.9562
15.7313
15.5079
15.2832
15.0584
14.8349
14.6111
14.3866
14.1623
13.9389
13.7157
13.4918
13.2682
13.0454
12.8225
12.5996
12.3777
12.1563
11.9337
11.7115
11.4908
11.2696
11.0482
10.8274
10.6062
10.3849
10.1641
9.94319
9.72214
9.50094
9.27963
9.05824
8.83671
8.61535
8.39391
8.17194
7.94989
7.72833
7.50653
7.28354
7.06041
6.8379
6.61462
6.39088
6.16777
5.94436
5.72042
5.49686
5.27353
5.04957
4.82468
4.60001
4.37619
4.15202
3.92676
3.70141
3.47701
3.25269
3.02729
2.80187
2.57754
2.35344
2.12857
1.90336
1.67898
1.45515
1.23087
1.00643
0.782417
0.558644
0.334823
0.111719
37.8551
-3144.47
-968.721
590.87
543.323
78.0848
-80.4952
-3.73255
71.6923
77.6259
57.4182
47.7451
49.8058
53.2407
53.7369
52.7156
51.9762
51.784
51.7186
51.5434
51.2996
51.0551
50.8236
50.5962
50.3699
50.1502
49.9327
49.7098
49.4775
49.2433
49.0197
48.8045
48.587
48.3586
48.1253
47.8959
47.6701
47.4513
47.2339
47.0058
46.7739
46.5463
46.3239
46.1072
45.8889
45.6656
45.4391
45.2079
44.9797
44.7641
44.552
44.3326
44.1073
43.8768
43.6458
43.4234
43.2083
42.9922
42.7709
42.5435
42.3115
42.0835
41.864
41.6471
41.4294
41.21
40.9868
40.7602
40.532
40.3074
40.0886
39.8693
39.6502
39.4328
39.2112
38.9857
38.7601
38.5338
38.3076
38.0831
37.8626
37.6454
37.4274
37.2073
36.9845
36.7579
36.5286
36.2997
36.0746
35.8512
35.6297
35.4126
35.1936
34.9705
34.7463
34.5166
34.2847
34.0567
33.8301
33.6056
33.3853
33.1673
32.9499
32.7297
32.5051
32.2764
32.0446
31.8119
31.5796
31.3505
31.1258
30.9028
30.6845
30.4704
30.2543
30.0369
29.8179
29.5943
29.367
29.1371
28.9049
28.6722
28.4403
28.2111
27.9855
27.7622
27.5409
27.3229
27.1076
26.8914
26.6742
26.4585
26.2406
26.0188
25.7971
25.5745
25.3481
25.1207
24.8935
24.6648
24.4349
24.2051
23.9757
23.7462
23.5171
23.2901
23.0643
22.8382
22.613
22.3904
22.1689
21.9469
21.7264
21.5078
21.2889
21.07
20.8521
20.6335
20.415
20.1972
19.9781
19.7579
19.5378
19.3172
19.096
18.8738
18.6506
18.4272
18.2036
17.9799
17.7558
17.531
17.3059
17.0813
16.8565
16.6306
16.4054
16.1815
15.9563
15.731
15.5073
15.2832
15.0582
14.834
14.6104
14.3866
14.1621
13.9382
13.715
13.4915
13.2678
13.045
12.8224
12.5992
12.3767
12.1556
11.9338
11.7114
11.4902
11.2692
11.0478
10.8269
10.6059
10.3847
10.1638
9.94294
9.72185
9.50055
9.27918
9.05791
8.83643
8.615
8.39382
8.17229
7.95006
7.72782
7.50605
7.2836
7.06033
6.83756
6.61457
6.39085
6.16759
5.94447
5.72062
5.49652
5.27288
5.04947
4.82525
4.60023
4.37564
4.15156
3.92695
3.70152
3.47644
3.25228
3.02779
2.80239
2.57716
2.35285
2.12874
1.90389
1.67891
1.45463
1.23063
1.00645
0.782431
0.558697
0.33491
0.111663
37.8718
-3144.47
-968.735
590.86
543.329
78.0924
-80.4961
-3.74369
71.6837
77.6334
57.4263
47.7367
49.791
53.2424
53.7549
52.7231
51.9674
51.7738
51.7188
51.5528
51.3051
51.0521
50.8172
50.5944
50.3758
50.1586
49.9361
49.7052
49.4726
49.2448
49.0253
48.8086
48.5841
48.3495
48.1172
47.8976
47.6807
47.4585
47.2316
46.9991
46.7691
46.5481
46.3311
46.1137
45.8901
45.6599
45.4323
45.2082
44.9861
44.7704
44.5554
44.3313
44.1014
43.8722
43.647
43.4285
43.2139
42.9949
42.7682
42.5382
42.3079
42.0823
41.8658
41.6522
41.4336
41.2102
40.9839
40.7575
40.5314
40.3076
40.0898
39.8728
39.6531
39.4334
39.2109
38.984
38.7567
38.5314
38.3084
38.0867
37.8666
37.6482
37.4286
37.2064
36.9822
36.7561
36.5282
36.2997
36.0751
35.8538
35.6323
35.4135
35.1942
34.9698
34.7446
34.5163
34.2843
34.0556
33.8307
33.6081
33.3882
33.1694
32.9505
32.7294
32.5043
32.2755
32.0437
31.8114
31.5795
31.3506
31.1273
30.9059
30.6868
30.472
30.2563
30.038
29.818
29.5938
29.3658
29.1354
28.9035
28.6717
28.4405
28.2112
27.9856
27.7633
27.5427
27.3238
27.108
26.8926
26.6751
26.4582
26.2411
26.0199
25.7969
25.5743
25.3489
25.1211
24.8931
24.6645
24.4348
24.2049
23.9757
23.7469
23.5179
23.2899
23.0642
22.839
22.6137
22.3901
22.1688
21.9476
21.7267
21.5078
21.2893
21.0704
20.8525
20.6342
20.4152
20.197
19.9784
19.7585
19.538
19.3169
19.0956
18.8737
18.651
18.4277
18.2039
17.9799
17.756
17.5315
17.3062
17.081
16.8566
16.6313
16.4056
16.1816
15.9573
15.7318
15.5073
15.2835
15.0589
14.8344
14.6105
14.387
14.163
13.9388
13.7154
13.4921
13.2684
13.0451
12.8228
12.6001
12.3771
12.1555
11.9344
11.7122
11.4905
11.2694
11.048
10.827
10.6063
10.3853
10.1643
9.94322
9.72217
9.50097
9.27958
9.05827
8.83676
8.61504
8.39364
8.17246
7.95072
7.72829
7.50613
7.2839
7.06071
6.83761
6.61472
6.391
6.16733
5.94432
5.72106
5.49704
5.27279
5.04906
4.82535
4.60068
4.37558
4.15107
3.92694
3.7021
3.47661
3.25174
3.02754
2.80287
2.57753
2.3525
2.12832
1.90411
1.67935
1.45471
1.23045
1.00633
0.782377
0.558791
0.33504
0.11196
37.8689
-3144.46
-968.731
590.863
543.333
78.0828
-80.5098
-3.73907
71.6977
77.6388
57.4191
47.7318
49.7953
53.2423
53.7493
52.7168
51.9651
51.7798
51.7278
51.5575
51.299
51.0411
50.8149
50.6028
50.3839
50.1567
49.9262
49.6969
49.4741
49.2556
49.0338
48.8064
48.5762
48.3449
48.1187
47.9027
47.6852
47.4564
47.224
46.9943
46.771
46.5538
46.3356
46.1132
45.8858
45.6544
45.4282
45.21
44.9922
44.7735
44.5526
44.3252
44.0952
43.87
43.651
43.4349
43.2173
42.9937
42.7631
42.5324
42.3067
42.085
41.8688
41.655
41.4354
41.209
40.9799
40.7535
40.5306
40.3094
40.0917
39.875
39.6539
39.4309
39.2071
38.9811
38.7548
38.5304
38.3092
38.0891
37.869
37.6491
37.4279
37.2046
36.9794
36.7535
36.5277
36.3006
36.0756
35.8552
35.6342
35.4135
35.1934
34.9682
34.7411
34.5142
34.2842
34.0556
33.8312
33.6094
33.3899
33.1705
32.9503
32.7279
32.502
32.2729
32.0414
31.8099
31.5794
31.3507
31.1277
30.908
30.6889
30.4728
30.2567
30.0377
29.8167
29.5923
29.3641
29.1334
28.9013
28.6699
28.4396
28.2108
27.985
27.763
27.5435
27.3247
27.1079
26.893
26.6759
26.4576
26.2402
26.0201
25.7966
25.573
25.3482
25.1209
24.8926
24.664
24.4345
24.2046
23.9751
23.7467
23.5182
23.2896
23.0631
22.8385
22.6141
22.3901
22.1685
21.9481
21.7272
21.5075
21.289
21.0701
20.852
20.6343
20.4153
20.1965
19.978
19.7585
19.5381
19.3169
19.0951
18.8731
18.6505
18.4275
18.2038
17.9795
17.7552
17.531
17.3062
17.0807
16.8561
16.6314
16.4055
16.1806
15.9567
15.7318
15.5069
15.283
15.0589
14.8343
14.61
14.3864
14.1628
13.9386
13.7148
13.4916
13.2681
13.0445
12.822
12.6
12.3771
12.1547
11.9336
11.712
11.4903
11.2691
11.0477
10.8265
10.6057
10.3849
10.164
9.94298
9.72187
9.50062
9.27912
9.05782
8.8366
8.61503
8.39338
8.17207
7.9507
7.7284
7.50579
7.28347
7.06046
6.83715
6.61441
6.39119
6.16734
5.94386
5.72073
5.49719
5.27286
5.04853
4.82478
4.60077
4.37591
4.15083
3.92637
3.70206
3.47691
3.2515
3.02683
2.80265
2.57795
2.35258
2.12772
1.90365
1.67944
1.45502
1.2307
1.00635
0.782107
0.558352
0.334943
0.111731
37.8594
-3144.47
-968.719
590.869
543.327
78.0859
-80.5017
-3.73805
71.6932
77.6347
57.4157
47.7318
49.8016
53.2464
53.7498
52.716
51.9636
51.7817
51.7287
51.554
51.2943
51.0413
50.8211
50.6082
50.3824
50.1487
49.9208
49.6998
49.481
49.2601
49.0323
48.7987
48.5702
48.3482
48.1272
47.9067
47.6822
47.4502
47.2189
46.9947
46.7764
46.5593
46.3369
46.1096
45.882
45.6546
45.4311
45.2149
44.9977
44.7745
44.5482
44.3201
44.0933
43.8723
43.6566
43.4403
43.2183
42.9905
42.7584
42.5286
42.3074
42.0903
41.8733
41.6559
41.4341
41.2069
40.9778
40.7521
40.5318
40.3129
40.0943
39.8764
39.6546
39.4292
39.2039
38.9791
38.7548
38.532
38.3117
38.0923
37.8715
37.65
37.4275
37.2036
36.9781
36.7518
36.5273
36.3025
36.0774
35.8564
35.636
35.414
35.193
34.968
34.7394
34.5124
34.2846
34.0571
33.833
33.6115
33.3919
33.172
32.9506
32.7272
32.5008
32.2718
32.0403
31.8094
31.5804
31.3525
31.1291
30.9103
30.6917
30.4745
30.258
30.0385
29.8164
29.5914
29.363
29.1324
28.9004
28.6688
28.4393
28.2116
27.986
27.7637
27.5446
27.3263
27.1087
26.8935
26.6773
26.4583
26.2397
26.0203
25.7974
25.5731
25.3482
25.1212
24.8927
24.6638
24.4347
24.2049
23.9749
23.7463
23.5188
23.2908
23.0636
22.8386
22.6146
22.3907
22.1683
21.948
21.7277
21.5079
21.2895
21.0707
20.8521
20.6345
20.416
20.1969
19.9779
19.7584
19.5382
19.3171
19.0953
18.873
18.6504
18.4275
18.2042
17.98
17.7555
17.5311
17.3065
17.0809
16.8557
16.6316
16.4064
16.1809
15.957
15.7326
15.5076
15.2831
15.0591
14.8349
14.6105
14.3866
14.1632
13.9393
13.7152
13.4919
13.2689
13.0452
12.8221
12.6001
12.3779
12.1552
11.9337
11.7123
11.4905
11.2694
11.0483
10.8271
10.6062
10.3853
10.1644
9.94325
9.72207
9.50092
9.27951
9.05803
8.83687
8.61557
8.39384
8.17205
7.95064
7.7288
7.5063
7.28392
7.06096
6.83729
6.61419
6.39134
6.16776
5.94388
5.7204
5.49721
5.27341
5.0489
4.8246
4.6006
4.37618
4.15109
3.9261
3.70172
3.47726
3.25207
3.02673
2.80212
2.57805
2.35343
2.12823
1.9034
1.67893
1.45466
1.23074
1.00677
0.782551
0.558509
0.334783
0.11182
37.8632
-3144.47
-968.727
590.863
543.327
78.0913
-80.4961
-3.74127
71.6834
77.6346
57.427
47.7385
49.8019
53.2408
53.7407
52.7161
51.9704
51.7827
51.7246
51.5512
51.2945
51.0442
50.8234
50.6062
50.3791
50.1485
49.9242
49.7042
49.4806
49.2543
49.0266
48.7971
48.5728
48.3543
48.1321
47.9049
47.6758
47.4465
47.2209
47.0005
46.7811
46.5592
46.3323
46.1028
45.878
45.6568
45.4367
45.2183
44.9972
44.7702
44.5419
44.3163
44.0948
43.8766
43.6596
43.4402
43.2148
42.9859
42.7562
42.5285
42.3091
42.0947
41.8769
41.6554
41.4306
41.2032
40.9759
40.7518
40.5334
40.3162
40.0965
39.8757
39.6525
39.4261
39.2001
38.9765
38.7547
38.5337
38.3138
38.094
37.8721
37.6491
37.4253
37.2012
36.9768
36.7507
36.5263
36.3037
36.0792
35.857
35.6365
35.4134
35.1908
34.9665
34.7379
34.5102
34.284
34.0581
33.8343
33.6126
33.3926
33.1724
32.95
32.7253
32.4983
32.2694
32.0385
31.8077
31.5801
31.3537
31.1303
30.9117
30.6938
30.4757
30.258
30.0379
29.8149
29.5893
29.3608
29.1306
28.8991
28.6676
28.4382
28.2112
27.9862
27.7636
27.5446
27.3272
27.1091
26.8926
26.6772
26.459
26.2392
26.0195
25.7971
25.5725
25.3472
25.1206
24.8922
24.6631
24.434
24.2049
23.975
23.7457
23.5181
23.291
23.0637
22.838
22.6143
22.3911
22.1684
21.9478
21.7279
21.5079
21.2893
21.0708
20.852
20.634
20.4159
20.1968
19.9776
19.758
19.5379
19.3169
19.095
18.8727
18.6499
18.4269
18.2037
17.9798
17.7552
17.5305
17.3062
17.0809
16.8552
16.6309
16.4065
16.1809
15.9561
15.7321
15.5075
15.2829
15.0587
14.8346
14.6104
14.3861
14.1627
13.9392
13.715
13.4911
13.2682
13.0451
12.8217
12.5995
12.3777
12.1551
11.9332
11.7118
11.4902
11.2689
11.0479
10.8267
10.6058
10.385
10.1641
9.94312
9.72187
9.50064
9.27917
9.05749
8.83618
8.61524
8.39401
8.17217
7.95037
7.72846
7.50585
7.28336
7.06086
6.83735
6.61376
6.39079
6.16772
5.94408
5.72023
5.49671
5.27314
5.04888
4.82434
4.60014
4.37602
4.15134
3.92608
3.70114
3.47679
3.25227
3.02705
2.80169
2.57702
2.35288
2.12845
1.90389
1.67926
1.45451
1.23021
1.00641
0.782619
0.558643
0.33465
0.11173
37.8654
-3144.48
-968.731
590.865
543.328
78.0903
-80.4965
-3.73825
71.6835
77.6309
57.4286
47.7403
49.7968
53.238
53.7427
52.72
51.975
51.7836
51.7216
51.552
51.3008
51.0485
50.8217
50.6012
50.3761
50.1517
49.93
49.7075
49.4796
49.25
49.025
48.8001
48.5755
48.3544
48.1308
47.902
47.6729
47.4464
47.2242
47.005
46.7832
46.5573
46.3288
46.1003
45.8782
45.6614
45.4424
45.2205
44.9956
44.7671
44.5393
44.3161
44.098
43.8813
43.662
43.4394
43.2118
42.9825
42.7562
42.5316
42.3119
42.0973
41.8788
41.6543
41.4273
41.2003
40.9756
40.7538
40.5358
40.319
40.0986
39.8753
39.6505
39.4243
39.1987
38.9762
38.7563
38.5364
38.3161
38.0955
37.8729
37.6488
37.4241
37.1997
36.9765
36.7517
36.5266
36.3044
36.0812
35.8582
35.6371
35.4134
35.1891
34.9652
34.7377
34.5098
34.2843
34.0601
33.8372
33.6152
33.3939
33.1727
32.9498
32.7244
32.4966
32.2677
32.0379
31.8079
31.581
31.3561
31.1326
30.9134
30.6958
30.4775
30.259
30.0384
29.8147
29.5883
29.3593
29.1291
28.8983
28.6675
28.4383
28.2118
27.9876
27.7648
27.545
27.3283
27.111
26.8935
26.6774
26.4597
26.2396
26.0193
25.7974
25.5727
25.3469
25.1203
24.8925
24.6635
24.4341
24.2051
23.9756
23.7458
23.5177
23.2911
23.0646
22.8387
22.6147
22.3917
22.169
21.9479
21.7283
21.5085
21.2897
21.0714
20.8524
20.6339
20.416
20.1972
19.9779
19.758
19.5378
19.317
19.0954
18.8731
18.65
18.4267
18.2035
17.98