/*--------------------------------*- C++ -*----------------------------------*\
| =========                 |                                                 |
| \\      /  F ield         | OpenFOAM: The Open Source CFD Toolbox           |
|  \\    /   O peration     | Version:  2406                                  |
|   \\  /    A nd           | Website:  www.openfoam.com                      |
|    \\/     M anipulation  |                                                 |
\*---------------------------------------------------------------------------*/
FoamFile
{
    version     2.0;
    format      ascii;
    arch        "LSB;label=32;scalar=64";
    class       surfaceScalarField;
    location    "1.05";
    object      phi;
}
// * * * * * * * * * * * * * * * * * * * * * * * * * * * * * * * * * * * * * //

dimensions      [0 3 -1 0 0 0 0];

oriented        oriented;

internalField   nonuniform List<scalar> 
12225
(
0.508322
1.73669e-06
0.508317
5.13027e-06
0.508311
6.29582e-06
0.508305
5.69399e-06
0.5083
5.17904e-06
0.508295
5.15247e-06
0.50829
4.63918e-06
0.508285
5.20063e-06
0.508279
6.01252e-06
0.508273
6.29679e-06
0.508266
6.38781e-06
0.50826
6.1866e-06
0.508254
6.15399e-06
0.508249
5.46349e-06
0.508244
4.56089e-06
0.50824
4.47012e-06
0.508234
5.27087e-06
0.508228
5.7708e-06
0.508223
5.51914e-06
0.508217
5.53438e-06
0.508212
5.49811e-06
0.508207
4.87437e-06
0.508202
4.67076e-06
0.508197
5.46909e-06
0.508191
5.81313e-06
0.508186
5.31838e-06
0.508181
4.79952e-06
0.508176
4.61024e-06
0.508171
4.92266e-06
0.508166
5.41518e-06
0.50816
5.82278e-06
0.508154
5.85543e-06
0.508149
5.56113e-06
0.508143
5.51534e-06
0.508138
5.70344e-06
0.508132
5.79356e-06
0.508126
5.75388e-06
0.50812
5.52855e-06
0.508115
5.23067e-06
0.50811
5.19511e-06
0.508105
5.19545e-06
0.5081
4.80003e-06
0.508095
4.57637e-06
0.50809
5.14192e-06
0.508084
6.00882e-06
0.508078
6.49861e-06
0.508071
6.40176e-06
0.508065
5.97696e-06
0.50806
5.63212e-06
0.508054
5.43974e-06
0.508049
5.38483e-06
0.508044
5.48296e-06
0.508038
5.38334e-06
0.508033
4.95448e-06
0.508028
4.6967e-06
0.508024
4.79798e-06
0.508019
4.96497e-06
0.508014
5.13256e-06
0.508008
5.27138e-06
0.508003
5.26751e-06
0.507998
5.18949e-06
0.507993
5.05501e-06
0.507988
4.87131e-06
0.507983
4.84085e-06
0.507978
4.98125e-06
0.507973
5.24128e-06
0.507967
5.63159e-06
0.507961
5.92463e-06
0.507956
5.80483e-06
0.50795
5.36401e-06
0.507945
4.95703e-06
0.50794
4.95578e-06
0.507935
5.32134e-06
0.507929
5.64498e-06
0.507923
5.84935e-06
0.507917
5.93131e-06
0.507912
5.68049e-06
0.507906
5.32272e-06
0.507901
5.23036e-06
0.507896
5.33521e-06
0.50789
5.49674e-06
0.507885
5.67496e-06
0.507879
5.8114e-06
0.507873
5.86631e-06
0.507867
5.76568e-06
0.507862
5.58824e-06
0.507856
5.59871e-06
0.50785
5.79625e-06
0.507844
5.91991e-06
0.507839
5.84267e-06
0.507833
5.63894e-06
0.507827
5.4381e-06
0.507822
5.40295e-06
0.507817
5.52234e-06
0.507811
5.57194e-06
0.507805
5.56692e-06
0.5078
5.64415e-06
0.507794
5.65205e-06
0.507789
5.60676e-06
0.507783
5.72393e-06
0.507777
5.89883e-06
0.507771
6.00211e-06
0.507765
6.0417e-06
0.507759
5.85655e-06
0.507754
5.43484e-06
0.507748
5.10329e-06
0.507743
5.10775e-06
0.507738
5.29881e-06
0.507733
5.42111e-06
0.507727
5.48534e-06
0.507722
5.61329e-06
0.507716
5.81406e-06
0.50771
5.96098e-06
0.507704
5.88573e-06
0.507698
5.63694e-06
0.507693
5.3376e-06
0.507688
5.04117e-06
0.507683
4.96225e-06
0.507678
5.16162e-06
0.507672
5.26921e-06
0.507667
5.10793e-06
0.507662
4.89713e-06
0.507658
4.82719e-06
0.507653
4.96115e-06
0.507647
5.28348e-06
0.507642
5.63435e-06
0.507636
5.80936e-06
0.50763
5.76192e-06
0.507625
5.5947e-06
0.507619
5.3824e-06
0.507614
5.15643e-06
0.507609
4.99828e-06
0.507604
4.96335e-06
0.507599
4.9306e-06
0.507594
4.74582e-06
0.50759
4.57837e-06
0.507585
4.73581e-06
0.50758
5.10991e-06
0.507575
5.35874e-06
0.507569
5.40237e-06
0.507564
5.31229e-06
0.507559
5.11884e-06
0.507554
4.95677e-06
0.507549
4.96464e-06
0.507544
5.05341e-06
0.507539
5.09275e-06
0.507534
5.09993e-06
0.507528
5.16835e-06
0.507523
5.34115e-06
0.507518
5.5777e-06
0.507512
5.77433e-06
0.507506
5.74877e-06
0.507501
5.40461e-06
0.507496
4.96108e-06
0.507491
4.78097e-06
0.507486
4.94407e-06
0.507481
5.21456e-06
0.507475
5.41766e-06
0.50747
5.51794e-06
0.507464
5.48615e-06
0.507459
5.39287e-06
0.507454
5.3448e-06
0.507448
5.30237e-06
0.507443
5.20642e-06
0.507438
5.06133e-06
0.507433
4.94744e-06
0.507428
5.06956e-06
0.507422
5.52328e-06
0.507416
6.10508e-06
0.50741
6.49032e-06
0.507403
6.48874e-06
0.507397
6.19008e-06
0.507391
5.8826e-06
0.507386
5.7627e-06
0.50738
5.81526e-06
0.507374
5.90908e-06
0.507368
5.95496e-06
0.507362
5.9824e-06
0.507356
6.09413e-06
0.507349
6.2985e-06
0.507343
6.47243e-06
0.507336
6.53115e-06
0.50733
6.40104e-06
0.507324
6.01648e-06
0.507318
5.56685e-06
0.507313
5.35563e-06
0.507308
5.40584e-06
0.507302
5.52248e-06
0.507297
5.55507e-06
0.507291
5.48444e-06
0.507286
5.41421e-06
0.50728
5.46527e-06
0.507275
5.64503e-06
0.507269
5.80367e-06
0.507263
5.73773e-06
0.507258
5.42956e-06
0.507253
5.08576e-06
0.507248
4.91882e-06
0.507243
4.97517e-06
0.507237
5.19218e-06
0.507232
5.43447e-06
0.507227
5.5259e-06
0.507221
5.42967e-06
0.507216
5.26821e-06
0.507211
5.11621e-06
0.507206
4.98216e-06
0.507201
4.86291e-06
0.507196
4.70827e-06
0.507192
4.53235e-06
0.507187
4.47586e-06
0.507183
4.63078e-06
0.507178
4.89845e-06
0.507173
5.06289e-06
0.507168
4.9822e-06
0.507163
4.69674e-06
0.507158
4.39189e-06
0.507154
4.27227e-06
0.50715
4.38894e-06
0.507145
4.55712e-06
0.507141
4.57238e-06
0.507136
4.47365e-06
0.507132
4.43029e-06
0.507127
4.45246e-06
0.507123
4.48107e-06
0.507118
4.54616e-06
0.507114
4.64227e-06
0.507109
4.68515e-06
0.507104
4.66651e-06
0.5071
4.65273e-06
0.507095
4.67125e-06
0.50709
4.69587e-06
0.507086
4.70222e-06
0.507081
4.67276e-06
0.507076
4.57757e-06
0.507072
4.46904e-06
0.507067
4.50358e-06
0.507063
4.72937e-06
0.507058
4.96522e-06
0.507053
5.04187e-06
0.507048
5.03273e-06
0.507043
5.06463e-06
0.507037
5.07504e-06
0.507032
4.98085e-06
0.507028
4.86444e-06
0.507023
4.8152e-06
0.507018
4.79017e-06
0.507013
4.83048e-06
0.507008
4.9575e-06
0.507003
5.55138e-06
5.15949e-06
0.508327
1.52041e-07
0.508332
1.7904e-07
0.508338
5.04896e-07
0.508343
8.49504e-07
0.508346
1.84082e-06
0.508349
2.6394e-06
0.508351
2.4006e-06
0.508354
2.04236e-06
0.508358
2.37553e-06
0.508362
2.25644e-06
0.508366
2.16994e-06
0.50837
2.22646e-06
0.508374
2.05406e-06
0.508377
2.38524e-06
0.508379
2.8011e-06
0.508381
2.56688e-06
0.508384
2.11441e-06
0.508387
2.66004e-06
0.508389
3.34634e-06
0.508391
3.20142e-06
0.508394
3.0706e-06
0.508395
3.27964e-06
0.508397
2.74274e-06
0.508401
2.05189e-06
0.508404
2.17131e-06
0.508407
2.31823e-06
0.50841
2.17394e-06
0.508413
1.78933e-06
0.508416
1.72064e-06
0.508419
2.14776e-06
0.508423
2.53284e-06
0.508426
2.80897e-06
0.508428
2.98723e-06
0.508431
3.14447e-06
0.508433
3.09208e-06
0.508436
2.52212e-06
0.50844
1.91696e-06
0.508444
1.88074e-06
0.508447
2.18251e-06
0.50845
2.51407e-06
0.508452
2.92967e-06
0.508454
3.08575e-06
0.508455
2.83228e-06
0.508458
2.58594e-06
0.508462
2.47464e-06
0.508466
2.38664e-06
0.50847
2.41078e-06
0.508473
2.54887e-06
0.508476
2.78915e-06
0.508478
2.92713e-06
0.508481
2.70074e-06
0.508484
2.44866e-06
0.508487
2.46379e-06
0.50849
2.32378e-06
0.508492
1.88746e-06
0.508496
1.64936e-06
0.508499
1.8596e-06
0.508501
2.38264e-06
0.508504
2.93923e-06
0.508506
3.19788e-06
0.508508
3.16674e-06
0.50851
3.00036e-06
0.508512
2.67774e-06
0.508515
2.35399e-06
0.508517
2.166e-06
0.508521
1.95054e-06
0.508525
1.74598e-06
0.508529
1.86983e-06
0.508532
2.29445e-06
0.508535
2.73881e-06
0.508537
2.97777e-06
0.508539
3.01065e-06
0.508541
2.98287e-06
0.508544
2.7109e-06
0.508548
2.1488e-06
0.508552
1.79527e-06
0.508556
1.74145e-06
0.508559
1.74297e-06
0.508563
1.94594e-06
0.508566
2.35685e-06
0.508568
2.70692e-06
0.508571
2.85325e-06
0.508574
2.80431e-06
0.508577
2.72849e-06
0.50858
2.69983e-06
0.508583
2.56107e-06
0.508587
2.32738e-06
0.50859
2.25178e-06
0.508594
2.41397e-06
0.508597
2.62418e-06
0.5086
2.68227e-06
0.508603
2.50642e-06
0.508606
2.23459e-06
0.508609
2.18777e-06
0.508613
2.35199e-06
0.508616
2.49145e-06
0.508619
2.71269e-06
0.508621
2.96431e-06
0.508624
2.90714e-06
0.508627
2.60995e-06
0.508631
2.33136e-06
0.508635
2.14697e-06
0.508638
2.21254e-06
0.508642
2.51078e-06
0.508645
2.67985e-06
0.508647
2.54541e-06
0.50865
2.41378e-06
0.508652
2.56782e-06
0.508655
2.81935e-06
0.508658
2.85403e-06
0.508661
2.66387e-06
0.508664
2.46768e-06
0.508668
2.47381e-06
0.508671
2.58556e-06
0.508674
2.64609e-06
0.508676
2.66032e-06
0.508679
2.49543e-06
0.508682
2.14703e-06
0.508685
2.01583e-06
0.508688
2.24706e-06
0.508691
2.53262e-06
0.508693
2.68674e-06
0.508695
2.73972e-06
0.508697
2.71052e-06
0.5087
2.66111e-06
0.508703
2.69418e-06
0.508706
2.77672e-06
0.508709
2.79588e-06
0.508712
2.75364e-06
0.508714
2.6999e-06
0.508717
2.58698e-06
0.508719
2.39537e-06
0.508722
2.30885e-06
0.508724
2.47633e-06
0.508727
2.65277e-06
0.508729
2.50249e-06
0.508731
2.19369e-06
0.508734
2.08904e-06
0.508737
2.19975e-06
0.50874
2.38861e-06
0.508743
2.60302e-06
0.508745
2.73244e-06
0.508748
2.68037e-06
0.50875
2.56995e-06
0.508753
2.53348e-06
0.508755
2.52076e-06
0.508758
2.43785e-06
0.508761
2.2931e-06
0.508764
2.17476e-06
0.508767
2.19531e-06
0.508771
2.4581e-06
0.508773
2.91564e-06
0.508776
3.25937e-06
0.508777
3.18282e-06
0.508779
2.76613e-06
0.508782
2.35607e-06
0.508785
2.13312e-06
0.508788
2.06952e-06
0.508792
2.14951e-06
0.508795
2.29141e-06
0.508798
2.39873e-06
0.508801
2.52952e-06
0.508803
2.7484e-06
0.508806
3.01809e-06
0.508807
3.22304e-06
0.508809
3.14242e-06
0.508812
2.73538e-06
0.508815
2.28305e-06
0.508819
2.0872e-06
0.508823
2.20545e-06
0.508827
2.46507e-06
0.508831
2.63414e-06
0.508834
2.64523e-06
0.508837
2.61749e-06
0.50884
2.67323e-06
0.508843
2.80462e-06
0.508846
2.8811e-06
0.50885
2.7511e-06
0.508853
2.42086e-06
0.508857
2.07993e-06
0.508862
1.8733e-06
0.508867
1.88932e-06
0.508871
2.18111e-06
0.508874
2.51339e-06
0.508877
2.57278e-06
0.50888
2.4166e-06
0.508883
2.31086e-06
0.508887
2.3695e-06
0.50889
2.52434e-06
0.508893
2.6195e-06
0.508895
2.52971e-06
0.508899
2.30028e-06
0.508902
2.14515e-06
0.508906
2.26782e-06
0.508909
2.60445e-06
0.508911
2.8767e-06
0.508914
2.88169e-06
0.508916
2.66877e-06
0.508918
2.39857e-06
0.508921
2.21092e-06
0.508925
2.19088e-06
0.508928
2.26232e-06
0.508931
2.27519e-06
0.508934
2.23834e-06
0.508937
2.23636e-06
0.50894
2.30606e-06
0.508942
2.47451e-06
0.508944
2.6787e-06
0.508946
2.72846e-06
0.508948
2.52666e-06
0.50895
2.21032e-06
0.508953
2.02111e-06
0.508956
2.0827e-06
0.508959
2.32195e-06
0.508961
2.54676e-06
0.508963
2.58986e-06
0.508964
2.44763e-06
0.508967
2.3084e-06
0.508969
2.33769e-06
0.508971
2.46867e-06
0.508973
2.54968e-06
0.508975
2.60423e-06
0.508976
2.68203e-06
0.508978
2.69945e-06
0.50898
2.63754e-06
0.508982
2.59071e-06
0.508984
2.55649e-06
0.508986
2.45093e-06
0.508989
2.30142e-06
0.508991
2.24271e-06
0.508994
2.34756e-06
0.508996
2.57098e-06
0.508998
2.82533e-06
0.508999
3.00475e-06
0.509001
2.99216e-06
0.509002
2.80593e-06
0.509004
2.64566e-06
0.509007
2.62167e-06
0.509009
2.59726e-06
0.509012
2.47831e-06
0.509014
2.40647e-06
0.509017
2.4676e-06
0.509019
2.5345e-06
0.509022
2.54301e-06
0.509024
2.60274e-06
0.509026
2.71609e-06
0.509028
2.70906e-06
0.509031
2.55028e-06
0.509034
2.42189e-06
2.63883e-06
0.508329
-3.73918e-07
0.508329
5.8942e-07
0.508327
2.22043e-06
0.508325
2.62994e-06
0.508325
2.32751e-06
0.508325
2.65683e-06
0.508325
2.72601e-06
0.508325
1.97079e-06
0.508325
1.59052e-06
0.508326
1.49112e-06
0.508327
1.26115e-06
0.508328
1.1931e-06
0.508329
1.48254e-06
0.508329
1.76121e-06
0.50833
1.84702e-06
0.508331
2.17463e-06
0.508331
2.14206e-06
0.508332
1.74616e-06
0.508333
1.74221e-06
0.508334
2.20552e-06
0.508335
2.10508e-06
0.508337
1.76817e-06
0.508337
1.82479e-06
0.508338
1.85609e-06
0.508338
2.08358e-06
0.508338
2.47716e-06
0.508337
3.1366e-06
0.508335
3.62213e-06
0.508333
3.19023e-06
0.508333
2.31062e-06
0.508334
1.9914e-06
0.508334
2.26139e-06
0.508335
2.39638e-06
0.508336
2.06636e-06
0.508337
1.74086e-06
0.508338
1.87382e-06
0.508337
2.39872e-06
0.508336
2.90649e-06
0.508336
2.6943e-06
0.508337
1.7518e-06
0.508338
1.20566e-06
0.50834
1.58849e-06
0.50834
2.28093e-06
0.50834
2.70368e-06
0.50834
2.76355e-06
0.50834
2.49903e-06
0.50834
2.12279e-06
0.508341
1.76987e-06
0.508342
1.63654e-06
0.508343
1.93363e-06
0.508344
2.34391e-06
0.508343
2.52811e-06
0.508343
2.61221e-06
0.508343
2.52069e-06
0.508343
2.09131e-06
0.508343
1.67389e-06
0.508343
1.62053e-06
0.508344
1.91767e-06
0.508344
2.34813e-06
0.508345
2.53423e-06
0.508346
2.38608e-06
0.508346
2.21464e-06
0.508347
2.16673e-06
0.508347
2.29691e-06
0.508346
2.67114e-06
0.508345
2.97101e-06
0.508344
2.83028e-06
0.508344
2.43133e-06
0.508344
2.14649e-06
0.508345
2.15033e-06
0.508345
2.31443e-06
0.508346
2.43011e-06
0.508346
2.60101e-06
0.508346
2.76879e-06
0.508346
2.63394e-06
0.508345
2.454e-06
0.508344
2.51838e-06
0.508343
2.56445e-06
0.508343
2.47978e-06
0.508343
2.37893e-06
0.508343
2.26739e-06
0.508344
2.13964e-06
0.508345
1.97204e-06
0.508346
1.86924e-06
0.508346
2.01735e-06
0.508347
2.30155e-06
0.508346
2.43163e-06
0.508346
2.37454e-06
0.508346
2.30835e-06
0.508347
2.30375e-06
0.508347
2.35034e-06
0.508347
2.35427e-06
0.508347
2.17429e-06
0.508348
2.00464e-06
0.508348
2.06254e-06
0.508348
2.14233e-06
0.508349
2.21882e-06
0.508349
2.43735e-06
0.50835
2.55936e-06
0.50835
2.43567e-06
0.50835
2.21825e-06
0.50835
1.95192e-06
0.50835
1.75347e-06
0.508351
1.86565e-06
0.508352
2.2039e-06
0.508352
2.38795e-06
0.508352
2.32723e-06
0.508352
2.3209e-06
0.508352
2.52191e-06
0.508352
2.727e-06
0.508352
2.6779e-06
0.508353
2.33399e-06
0.508353
1.97276e-06
0.508354
1.80223e-06
0.508355
1.81378e-06
0.508355
2.06216e-06
0.508355
2.40682e-06
0.508355
2.45901e-06
0.508355
2.24896e-06
0.508355
2.1351e-06
0.508355
2.19322e-06
0.508356
2.32108e-06
0.508356
2.49767e-06
0.508356
2.66751e-06
0.508356
2.74104e-06
0.508356
2.75441e-06
0.508356
2.76399e-06
0.508356
2.70269e-06
0.508356
2.53765e-06
0.508356
2.3644e-06
0.508357
2.22298e-06
0.508357
2.0207e-06
0.508358
1.77652e-06
0.508358
1.77323e-06
0.508359
2.13625e-06
0.508359
2.49885e-06
0.508359
2.54811e-06
0.508358
2.41375e-06
0.508358
2.26254e-06
0.508359
2.10881e-06
0.508359
2.03269e-06
0.50836
2.0685e-06
0.50836
2.08138e-06
0.508361
2.03094e-06
0.508361
2.04097e-06
0.508362
2.16726e-06
0.508362
2.32556e-06
0.508362
2.40608e-06
0.508362
2.33267e-06
0.508362
2.08203e-06
0.508362
1.77864e-06
0.508364
1.68652e-06
0.508365
1.9123e-06
0.508366
2.22019e-06
0.508366
2.33351e-06
0.508366
2.2778e-06
0.508366
2.18763e-06
0.508366
2.08995e-06
0.508366
2.03799e-06
0.508367
2.04994e-06
0.508367
2.01693e-06
0.508368
1.91312e-06
0.508369
1.82416e-06
0.50837
1.84686e-06
0.508371
2.09406e-06
0.508372
2.47162e-06
0.508372
2.67851e-06
0.508371
2.5563e-06
0.508371
2.23591e-06
0.508371
1.95901e-06
0.508372
1.87043e-06
0.508373
1.92284e-06
0.508373
1.97328e-06
0.508374
1.96403e-06
0.508375
1.9691e-06
0.508376
2.0994e-06
0.508376
2.39635e-06
0.508376
2.7293e-06
0.508376
2.88311e-06
0.508375
2.79102e-06
0.508374
2.47862e-06
0.508374
2.03363e-06
0.508375
1.7528e-06
0.508375
1.8211e-06
0.508376
2.02588e-06
0.508376
2.11048e-06
0.508376
2.07851e-06
0.508377
2.0717e-06
0.508377
2.21013e-06
0.508377
2.49965e-06
0.508377
2.78299e-06
0.508376
2.8401e-06
0.508376
2.59702e-06
0.508376
2.23734e-06
0.508376
2.01974e-06
0.508377
2.01916e-06
0.508378
2.10015e-06
0.508379
2.13608e-06
0.508379
2.09635e-06
0.508379
2.01143e-06
0.508379
2.00678e-06
0.508379
2.1629e-06
0.508379
2.36105e-06
0.508379
2.47145e-06
0.508379
2.47758e-06
0.508379
2.398e-06
0.508379
2.33201e-06
0.508379
2.42664e-06
0.508379
2.67337e-06
0.508379
2.88575e-06
0.508378
2.89805e-06
0.508377
2.71753e-06
0.508377
2.49123e-06
0.508377
2.38013e-06
0.508377
2.44577e-06
0.508377
2.5927e-06
0.508377
2.63587e-06
0.508377
2.51212e-06
0.508377
2.36138e-06
0.508377
2.29008e-06
0.508377
2.22002e-06
0.508378
2.11419e-06
0.508378
2.0618e-06
0.508379
2.04969e-06
0.50838
1.99514e-06
0.50838
1.94696e-06
0.508381
1.98509e-06
0.508381
2.04723e-06
0.508381
2.01244e-06
0.508382
1.86624e-06
0.508382
1.70122e-06
0.508383
1.60725e-06
0.508385
1.64547e-06
0.508386
1.83322e-06
0.508387
2.05775e-06
0.508387
2.14906e-06
0.508388
2.12244e-06
0.508388
2.15852e-06
0.508389
2.27827e-06
0.508389
2.30982e-06
0.508389
2.22999e-06
0.508389
2.18949e-06
0.50839
2.19785e-06
0.50839
2.13539e-06
0.508391
2.05172e-06
0.508391
2.11215e-06
0.508392
2.26922e-06
0.508392
2.33247e-06
0.508392
2.28642e-06
2.29207e-06
0.508327
4.77293e-07
0.508328
-3.27357e-07
0.50833
1.83683e-08
0.508332
1.00115e-06
0.508333
1.12e-06
0.508334
1.38748e-06
0.508335
1.95261e-06
0.508335
1.92365e-06
0.508335
1.57372e-06
0.508334
1.99381e-06
0.508333
2.73559e-06
0.508331
2.78221e-06
0.50833
2.39295e-06
0.50833
2.42182e-06
0.508329
2.5022e-06
0.508329
2.17627e-06
0.508329
1.75037e-06
0.508329
1.77419e-06
0.50833
1.5484e-06
0.50833
1.47109e-06
0.508331
1.93701e-06
0.50833
2.29628e-06
0.508329
2.55037e-06
0.508329
2.28529e-06
0.508329
1.76902e-06
0.50833
1.648e-06
0.508331
1.68455e-06
0.508334
1.36784e-06
0.508336
9.19007e-07
0.508337
8.84426e-07
0.508338
1.39585e-06
0.508338
1.84647e-06
0.508339
1.85214e-06
0.508339
1.6012e-06
0.508339
1.70743e-06
0.508339
2.23789e-06
0.508339
2.59191e-06
0.508339
2.73524e-06
0.508339
2.87115e-06
0.508338
2.70877e-06
0.508337
2.32078e-06
0.508336
2.03028e-06
0.508337
1.80689e-06
0.508338
1.70758e-06
0.508339
1.84452e-06
0.508339
2.02704e-06
0.508339
2.06682e-06
0.508339
1.92553e-06
0.508339
1.75464e-06
0.508339
1.91217e-06
0.508339
2.31241e-06
0.508339
2.48829e-06
0.508339
2.47515e-06
0.508339
2.51442e-06
0.508339
2.50404e-06
0.508338
2.44724e-06
0.508337
2.43877e-06
0.508337
2.42579e-06
0.508337
2.42672e-06
0.508337
2.33685e-06
0.508337
2.00664e-06
0.508338
1.62121e-06
0.508339
1.34244e-06
0.50834
1.1739e-06
0.508341
1.30517e-06
0.508342
1.75551e-06
0.508343
2.11265e-06
0.508343
2.14866e-06
0.508344
1.99399e-06
0.508344
1.90072e-06
0.508344
1.92981e-06
0.508345
1.82859e-06
0.508346
1.65751e-06
0.508347
1.68888e-06
0.508348
1.72148e-06
0.508348
1.72651e-06
0.508349
2.02884e-06
0.508349
2.49911e-06
0.508349
2.80265e-06
0.508348
2.83293e-06
0.508348
2.60801e-06
0.508348
2.2712e-06
0.508348
1.92765e-06
0.508348
1.62705e-06
0.508348
1.56194e-06
0.508349
1.81686e-06
0.508349
2.14947e-06
0.508349
2.29225e-06
0.508349
2.21763e-06
0.50835
1.98597e-06
0.50835
1.74521e-06
0.508351
1.67854e-06
0.508352
1.67803e-06
0.508352
1.68989e-06
0.508352
1.89542e-06
0.508352
2.1024e-06
0.508352
2.06204e-06
0.508353
1.97393e-06
0.508353
1.90471e-06
0.508354
1.78197e-06
0.508354
1.74214e-06
0.508355
1.77073e-06
0.508355
1.71153e-06
0.508355
1.6955e-06
0.508355
1.9527e-06
0.508355
2.33702e-06
0.508355
2.51172e-06
0.508355
2.4555e-06
0.508355
2.38766e-06
0.508355
2.43558e-06
0.508355
2.5123e-06
0.508355
2.40649e-06
0.508355
2.11281e-06
0.508355
1.775e-06
0.508356
1.41798e-06
0.508356
1.2214e-06
0.508357
1.41439e-06
0.508358
1.75142e-06
0.508359
1.88813e-06
0.508359
1.87274e-06
0.508359
1.82948e-06
0.50836
1.77261e-06
0.50836
1.77807e-06
0.508361
1.90479e-06
0.508362
2.05747e-06
0.508362
2.15802e-06
0.508363
2.23784e-06
0.508363
2.27234e-06
0.508364
2.18547e-06
0.508364
2.03411e-06
0.508364
1.9754e-06
0.508364
2.00391e-06
0.508364
1.92539e-06
0.508364
1.7639e-06
0.508365
1.826e-06
0.508365
2.14358e-06
0.508365
2.41225e-06
0.508365
2.52111e-06
0.508365
2.5328e-06
0.508364
2.41443e-06
0.508364
2.21832e-06
0.508364
2.11155e-06
0.508364
2.09563e-06
0.508364
2.053e-06
0.508364
1.98082e-06
0.508364
1.95877e-06
0.508365
2.0248e-06
0.508365
2.17982e-06
0.508365
2.39373e-06
0.508364
2.53442e-06
0.508364
2.42855e-06
0.508363
2.11898e-06
0.508363
1.89183e-06
0.508364
1.90524e-06
0.508364
2.02482e-06
0.508364
2.12884e-06
0.508364
2.21286e-06
0.508364
2.22883e-06
0.508364
2.20194e-06
0.508364
2.25588e-06
0.508363
2.37913e-06
0.508363
2.47865e-06
0.508362
2.48025e-06
0.508361
2.32441e-06
0.508361
2.12825e-06
0.508362
2.09976e-06
0.508362
2.24155e-06
0.508362
2.37361e-06
0.508362
2.35617e-06
0.508362
2.19443e-06
0.508362
2.02042e-06
0.508362
1.95841e-06
0.508362
2.00339e-06
0.508362
2.05649e-06
0.508362
2.02818e-06
0.508362
1.89979e-06
0.508363
1.77242e-06
0.508364
1.75591e-06
0.508365
1.82574e-06
0.508365
1.94937e-06
0.508366
2.06386e-06
0.508366
1.96343e-06
0.508366
1.63538e-06
0.508366
1.37102e-06
0.508367
1.33939e-06
0.508368
1.45663e-06
0.508368
1.5967e-06
0.508369
1.68e-06
0.508369
1.70764e-06
0.50837
1.77725e-06
0.508371
1.98763e-06
0.508371
2.28754e-06
0.508371
2.48195e-06
0.508371
2.42756e-06
0.508371
2.1915e-06
0.508371
1.95243e-06
0.508371
1.80236e-06
0.508372
1.75615e-06
0.508372
1.79095e-06
0.508372
1.8003e-06
0.508373
1.74264e-06
0.508373
1.72692e-06
0.508374
1.80358e-06
0.508374
1.92664e-06
0.508374
2.05471e-06
0.508375
2.09113e-06
0.508375
1.9495e-06
0.508376
1.71655e-06
0.508377
1.57161e-06
0.508378
1.59518e-06
0.508379
1.7234e-06
0.50838
1.83572e-06
0.508381
1.84654e-06
0.508382
1.75581e-06
0.508382
1.66542e-06
0.508383
1.69634e-06
0.508384
1.83223e-06
0.508385
1.93642e-06
0.508385
1.97582e-06
0.508385
2.04465e-06
0.508385
2.12221e-06
0.508385
2.10851e-06
0.508385
2.0551e-06
0.508385
2.04315e-06
0.508385
2.0221e-06
0.508385
1.95986e-06
0.508385
1.93681e-06
0.508385
2.0183e-06
0.508385
2.16428e-06
0.508385
2.29206e-06
0.508384
2.34774e-06
0.508384
2.29501e-06
0.508383
2.15286e-06
0.508383
2.05743e-06
0.508383
2.12468e-06
0.508383
2.25686e-06
0.508382
2.28308e-06
0.508382
2.2512e-06
0.508382
2.31071e-06
0.508382
2.40084e-06
0.508382
2.38731e-06
0.508382
2.33643e-06
0.508382
2.35766e-06
0.508382
2.36897e-06
0.508381
2.25609e-06
0.508381
2.1236e-06
0.508381
2.12244e-06
0.508382
2.1763e-06
0.508382
2.17728e-06
2.14159e-06
0.508329
-1.60795e-07
0.508328
5.81549e-07
0.508327
5.55782e-07
0.508327
7.41569e-07
0.508327
1.2604e-06
0.508328
9.60068e-07
0.508329
1.05353e-06
0.508329
1.50878e-06
0.508329
1.72093e-06
0.508329
1.47264e-06
0.508331
9.17166e-07
0.508333
1.05713e-06
0.508334
1.45637e-06
0.508335
1.57843e-06
0.508336
1.57274e-06
0.508336
1.9838e-06
0.508335
2.28811e-06
0.508335
2.25417e-06
0.508334
2.1036e-06
0.508334
2.07881e-06
0.508333
2.36489e-06
0.508333
2.02218e-06
0.508335
1.29099e-06
0.508336
1.25362e-06
0.508336
1.77372e-06
0.508335
1.95498e-06
0.508335
1.62844e-06
0.508335
1.57716e-06
0.508334
2.08319e-06
0.508332
2.5743e-06
0.508331
2.49025e-06
0.508331
1.81026e-06
0.508332
1.20279e-06
0.508332
1.14357e-06
0.508333
1.59186e-06
0.508333
2.06454e-06
0.508333
1.92168e-06
0.508335
1.48049e-06
0.508336
1.62516e-06
0.508337
2.10579e-06
0.508337
2.27262e-06
0.508336
2.16484e-06
0.508336
1.98162e-06
0.508336
1.76687e-06
0.508336
1.54873e-06
0.508337
1.29672e-06
0.508338
1.09602e-06
0.508339
1.13543e-06
0.508339
1.3906e-06
0.508339
1.78912e-06
0.50834
2.16096e-06
0.50834
2.06424e-06
0.508341
1.53004e-06
0.508342
1.16498e-06
0.508344
1.23329e-06
0.508344
1.62726e-06
0.508345
2.15312e-06
0.508345
2.46284e-06
0.508345
2.44931e-06
0.508345
2.24205e-06
0.508345
1.91708e-06
0.508345
1.69734e-06
0.508344
1.73226e-06
0.508344
1.76638e-06
0.508343
1.65463e-06
0.508344
1.59852e-06
0.508344
1.65438e-06
0.508344
1.72334e-06
0.508345
1.7435e-06
0.508345
1.77042e-06
0.508345
1.91522e-06
0.508345
1.94871e-06
0.508345
1.72016e-06
0.508345
1.59371e-06
0.508345
1.62255e-06
0.508345
1.56743e-06
0.508346
1.56239e-06
0.508346
1.67883e-06
0.508347
1.75346e-06
0.508348
1.7188e-06
0.50835
1.58562e-06
0.50835
1.46738e-06
0.508351
1.44975e-06
0.508351
1.42189e-06
0.508351
1.35396e-06
0.508352
1.41479e-06
0.508352
1.64271e-06
0.508353
1.86477e-06
0.508353
1.98803e-06
0.508353
1.96608e-06
0.508353
1.7988e-06
0.508353
1.72818e-06
0.508353
1.80669e-06
0.508352
1.85229e-06
0.508352
1.99935e-06
0.508352
2.2628e-06
0.508352
2.30942e-06
0.508352
2.15378e-06
0.508352
1.97014e-06
0.508352
1.74489e-06
0.508352
1.61765e-06
0.508352
1.71581e-06
0.508352
1.82482e-06
0.508352
1.75899e-06
0.508352
1.71491e-06
0.508352
1.89749e-06
0.508353
2.15636e-06
0.508353
2.26099e-06
0.508353
2.15956e-06
0.508354
1.95649e-06
0.508354
1.80072e-06
0.508355
1.68079e-06
0.508356
1.57615e-06
0.508356
1.58532e-06
0.508356
1.58596e-06
0.508355
1.45171e-06
0.508355
1.42136e-06
0.508356
1.60592e-06
0.508356
1.79537e-06
0.508356
1.9221e-06
0.508355
2.0632e-06
0.508355
2.18587e-06
0.508354
2.26408e-06
0.508354
2.36607e-06
0.508354
2.46943e-06
0.508353
2.47443e-06
0.508353
2.39423e-06
0.508353
2.27995e-06
0.508353
2.08094e-06
0.508353
1.76666e-06
0.508354
1.48876e-06
0.508355
1.43819e-06
0.508355
1.51134e-06
0.508355
1.45676e-06
0.508356
1.34655e-06
0.508356
1.38853e-06
0.508357
1.49246e-06
0.508358
1.53313e-06
0.508359
1.5702e-06
0.50836
1.59114e-06
0.508361
1.53207e-06
0.508361
1.4817e-06
0.508362
1.52774e-06
0.508362
1.61e-06
0.508363
1.65597e-06
0.508363
1.6676e-06
0.508363
1.65676e-06
0.508364
1.63402e-06
0.508365
1.67223e-06
0.508365
1.8357e-06
0.508366
2.01259e-06
0.508366
2.0103e-06
0.508366
1.84383e-06
0.508366
1.69069e-06
0.508367
1.59108e-06
0.508367
1.50288e-06
0.508368
1.47439e-06
0.508369
1.4856e-06
0.508369
1.46376e-06
0.50837
1.46583e-06
0.508371
1.54777e-06
0.508372
1.70761e-06
0.508372
1.92726e-06
0.508373
2.07012e-06
0.508373
2.01629e-06
0.508373
1.8612e-06
0.508374
1.75778e-06
0.508374
1.74108e-06
0.508375
1.754e-06
0.508375
1.72222e-06
0.508376
1.63863e-06
0.508376
1.58178e-06
0.508376
1.62296e-06
0.508377
1.75956e-06
0.508377
1.93175e-06
0.508377
2.03532e-06
0.508376
2.02031e-06
0.508376
1.93465e-06
0.508376
1.78426e-06
0.508377
1.61597e-06
0.508377
1.58799e-06
0.508377
1.66423e-06
0.508377
1.65016e-06
0.508377
1.55753e-06
0.508377
1.52839e-06
0.508377
1.61211e-06
0.508377
1.78964e-06
0.508376
2e-06
0.508376
2.14129e-06
0.508375
2.16145e-06
0.508375
2.13482e-06
0.508375
2.17731e-06
0.508376
2.29665e-06
0.508376
2.37187e-06
0.508376
2.31269e-06
0.508375
2.16207e-06
0.508375
1.99089e-06
0.508375
1.84907e-06
0.508375
1.80901e-06
0.508375
1.85097e-06
0.508375
1.86819e-06
0.508375
1.85608e-06
0.508375
1.85372e-06
0.508375
1.8529e-06
0.508375
1.89243e-06
0.508375
1.99149e-06
0.508375
2.05278e-06
0.508375
1.99291e-06
0.508374
1.84784e-06
0.508374
1.70968e-06
0.508374
1.64107e-06
0.508375
1.65434e-06
0.508375
1.7141e-06
0.508375
1.74412e-06
0.508375
1.69918e-06
0.508375
1.64373e-06
0.508375
1.66773e-06
0.508375
1.72628e-06
0.508375
1.72196e-06
0.508376
1.70884e-06
0.508376
1.75959e-06
0.508376
1.79571e-06
0.508377
1.7728e-06
0.508377
1.75889e-06
0.508377
1.75651e-06
0.508377
1.69682e-06
0.508378
1.57876e-06
0.508378
1.47383e-06
0.508379
1.42798e-06
0.50838
1.44174e-06
0.508381
1.51949e-06
0.508381
1.6319e-06
0.508382
1.68065e-06
0.508382
1.6341e-06
0.508383
1.6133e-06
0.508383
1.69314e-06
0.508384
1.75074e-06
0.508384
1.69856e-06
0.508385
1.65941e-06
0.508386
1.71263e-06
0.508386
1.74045e-06
0.508387
1.68096e-06
0.508388
1.65854e-06
0.508388
1.7336e-06
0.508389
1.77443e-06
0.508389
1.71222e-06
0.50839
1.67348e-06
0.50839
1.72805e-06
0.508391
1.80187e-06
1.83456e-06
0.508328
-2.72827e-07
0.508328
-1.9303e-09
0.508328
5.21957e-07
0.508328
8.24528e-07
0.508328
1.40785e-06
0.508328
1.36346e-06
0.508327
1.24479e-06
0.508328
1.22264e-06
0.508328
1.07215e-06
0.508329
1.03434e-06
0.508328
1.11421e-06
0.508329
9.91936e-07
0.508329
9.57391e-07
0.508329
1.41795e-06
0.508329
1.63126e-06
0.50833
1.5282e-06
0.50833
1.40736e-06
0.508331
1.61029e-06
0.508331
1.74947e-06
0.508333
1.02714e-06
0.508335
3.07453e-07
0.508336
4.48416e-07
0.508336
1.38737e-06
0.508335
2.29493e-06
0.508335
2.0496e-06
0.508335
1.32938e-06
0.508336
1.22334e-06
0.508336
1.7737e-06
0.508335
2.3463e-06
0.508336
2.29732e-06
0.508336
1.69195e-06
0.508337
1.31375e-06
0.508336
1.61389e-06
0.508336
1.98252e-06
0.508335
1.77493e-06
0.508336
1.39614e-06
0.508337
1.17691e-06
0.508337
1.03213e-06
0.508338
1.17468e-06
0.508338
1.50476e-06
0.508339
1.68383e-06
0.508339
1.8002e-06
0.508339
1.98507e-06
0.508339
2.07433e-06
0.508339
1.85476e-06
0.508339
1.37616e-06
0.508339
1.00853e-06
0.508339
1.09921e-06
0.508339
1.39403e-06
0.508339
1.52474e-06
0.50834
1.53679e-06
0.50834
1.4203e-06
0.508341
1.09708e-06
0.508341
9.00115e-07
0.508341
1.03802e-06
0.508341
1.36223e-06
0.508342
1.73746e-06
0.508342
1.94942e-06
0.508343
1.90306e-06
0.508343
1.76416e-06
0.508344
1.60938e-06
0.508344
1.49897e-06
0.508344
1.59626e-06
0.508344
1.76189e-06
0.508344
1.70654e-06
0.508344
1.50734e-06
0.508344
1.38956e-06
0.508345
1.40706e-06
0.508345
1.43356e-06
0.508345
1.3551e-06
0.508346
1.3603e-06
0.508346
1.48821e-06
0.508347
1.47562e-06
0.508347
1.49359e-06
0.508347
1.76916e-06
0.508346
2.05187e-06
0.508345
2.22219e-06
0.508345
2.32736e-06
0.508344
2.30091e-06
0.508344
2.12818e-06
0.508344
1.82492e-06
0.508344
1.50228e-06
0.508344
1.38416e-06
0.508344
1.47286e-06
0.508343
1.56563e-06
0.508343
1.60818e-06
0.508343
1.66361e-06
0.508343
1.67615e-06
0.508344
1.63359e-06
0.508344
1.57837e-06
0.508344
1.44368e-06
0.508345
1.37656e-06
0.508345
1.53769e-06
0.508345
1.6627e-06
0.508346
1.66942e-06
0.508346
1.73048e-06
0.508347
1.68972e-06
0.508347
1.47789e-06
0.508348
1.29079e-06
0.508349
1.11671e-06
0.508349
9.51615e-07
0.50835
9.97732e-07
0.508351
1.25373e-06
0.508351
1.43463e-06
0.508351
1.44309e-06
0.508352
1.47757e-06
0.508352
1.64183e-06
0.508353
1.82521e-06
0.508353
1.87878e-06
0.508353
1.74152e-06
0.508353
1.52879e-06
0.508354
1.31195e-06
0.508354
1.07935e-06
0.508355
1.00628e-06
0.508355
1.1275e-06
0.508356
1.18135e-06
0.508356
1.16057e-06
0.508356
1.251e-06
0.508357
1.38663e-06
0.508357
1.45461e-06
0.508358
1.52094e-06
0.508358
1.6237e-06
0.508359
1.71871e-06
0.508359
1.8354e-06
0.50836
1.98706e-06
0.50836
2.05929e-06
0.508361
1.99543e-06
0.508361
1.88495e-06
0.508361
1.78393e-06
0.508361
1.62712e-06
0.508361
1.40249e-06
0.508362
1.31354e-06
0.508362
1.49817e-06
0.508361
1.73129e-06
0.508361
1.81359e-06
0.50836
1.86073e-06
0.50836
1.92199e-06
0.50836
1.89585e-06
0.508359
1.82022e-06
0.508359
1.75808e-06
0.508359
1.64468e-06
0.508359
1.48938e-06
0.508359
1.40925e-06
0.508359
1.44069e-06
0.50836
1.52615e-06
0.50836
1.61638e-06
0.50836
1.6763e-06
0.50836
1.64545e-06
0.50836
1.5188e-06
0.50836