/*--------------------------------*- C++ -*----------------------------------*\
| =========                 |                                                 |
| \\      /  F ield         | OpenFOAM: The Open Source CFD Toolbox           |
|  \\    /   O peration     | Version:  2406                                  |
|   \\  /    A nd           | Website:  www.openfoam.com                      |
|    \\/     M anipulation  |                                                 |
\*---------------------------------------------------------------------------*/
FoamFile
{
    version     2.0;
    format      ascii;
    arch        "LSB;label=32;scalar=64";
    class       volVectorField;
    location    "1.05";
    object      U;
}
// * * * * * * * * * * * * * * * * * * * * * * * * * * * * * * * * * * * * * //

dimensions      [0 1 -1 0 0 0 0];

internalField   nonuniform List<vector> 
6250
(
(50.369 0.000102098 0)
(85.0506 0.000439885 0)
(72.8673 0.000696281 0)
(60.2835 0.000785819 0)
(59.566 0.000789562 0)
(63.0161 0.000792479 0)
(64.514 0.000768042 0)
(64.061 0.000826486 0)
(63.4466 0.000893284 0)
(63.3453 0.000923478 0)
(63.4877 0.000966387 0)
(63.5711 0.00098605 0)
(63.5605 0.000987134 0)
(63.5309 0.000918527 0)
(63.5222 0.000804717 0)
(63.5271 0.000729753 0)
(63.531 0.000740646 0)
(63.5304 0.000758673 0)
(63.5283 0.000718117 0)
(63.5273 0.00069545 0)
(63.5266 0.000704371 0)
(63.5262 0.000700604 0)
(63.5257 0.000736173 0)
(63.5251 0.000857807 0)
(63.5242 0.00096002 0)
(63.5235 0.000966369 0)
(63.523 0.000928157 0)
(63.5223 0.000926911 0)
(63.5218 0.000975984 0)
(63.5211 0.00101068 0)
(63.5204 0.000992408 0)
(63.5196 0.000929693 0)
(63.5189 0.000867216 0)
(63.5183 0.000860479 0)
(63.5176 0.000899441 0)
(63.5168 0.000937571 0)
(63.5161 0.00095828 0)
(63.5154 0.000955333 0)
(63.5147 0.000923826 0)
(63.5141 0.000877123 0)
(63.5134 0.000814398 0)
(63.5128 0.000734636 0)
(63.5122 0.000698751 0)
(63.5117 0.000761279 0)
(63.5109 0.000885426 0)
(63.5101 0.000992714 0)
(63.5093 0.00103085 0)
(63.5085 0.00100017 0)
(63.5078 0.000942079 0)
(63.5071 0.000892448 0)
(63.5064 0.000876062 0)
(63.5058 0.0009033 0)
(63.5051 0.000935872 0)
(63.5044 0.000926576 0)
(63.5038 0.000888188 0)
(63.5033 0.000850649 0)
(63.5026 0.000810838 0)
(63.502 0.000769132 0)
(63.5014 0.000743352 0)
(63.5007 0.000749336 0)
(63.5 0.000785591 0)
(63.4994 0.000825718 0)
(63.4988 0.000856836 0)
(63.4982 0.000895228 0)
(63.4976 0.000946461 0)
(63.4969 0.00100343 0)
(63.4963 0.00106484 0)
(63.4955 0.00110861 0)
(63.4948 0.00109736 0)
(63.4941 0.00102754 0)
(63.4935 0.000943232 0)
(63.4928 0.000903726 0)
(63.4922 0.00092803 0)
(63.4915 0.000984924 0)
(63.4908 0.00104935 0)
(63.4901 0.00110032 0)
(63.4893 0.0011013 0)
(63.4886 0.00105422 0)
(63.488 0.000993461 0)
(63.4873 0.000929791 0)
(63.4866 0.000866956 0)
(63.4859 0.000822093 0)
(63.4852 0.000811772 0)
(63.4845 0.000836823 0)
(63.4838 0.000877591 0)
(63.4831 0.000919927 0)
(63.4824 0.000969528 0)
(63.4817 0.00102237 0)
(63.4809 0.00105065 0)
(63.4802 0.00103705 0)
(63.4795 0.000998876 0)
(63.4788 0.000968836 0)
(63.4781 0.000970711 0)
(63.4774 0.000999245 0)
(63.4767 0.00102066 0)
(63.476 0.0010227 0)
(63.4753 0.00102037 0)
(63.4746 0.00100985 0)
(63.4739 0.000992927 0)
(63.4732 0.000997813 0)
(63.4725 0.00103073 0)
(63.4717 0.00107015 0)
(63.471 0.00109477 0)
(63.4702 0.00108524 0)
(63.4695 0.00103728 0)
(63.4689 0.000978538 0)
(63.4683 0.000941252 0)
(63.4676 0.00092293 0)
(63.4669 0.000903982 0)
(63.4662 0.000890058 0)
(63.4655 0.000901583 0)
(63.4648 0.000939087 0)
(63.4641 0.000976969 0)
(63.4633 0.000991084 0)
(63.4626 0.00099029 0)
(63.4619 0.000994788 0)
(63.4613 0.00100634 0)
(63.4607 0.0010273 0)
(63.4601 0.00105365 0)
(63.4594 0.00105467 0)
(63.4587 0.0010136 0)
(63.4581 0.000956079 0)
(63.4575 0.000915845 0)
(63.4569 0.000908338 0)
(63.4563 0.000933894 0)
(63.4556 0.000977187 0)
(63.4549 0.00101102 0)
(63.4541 0.00101818 0)
(63.4534 0.0010001 0)
(63.4527 0.000964118 0)
(63.4521 0.000920194 0)
(63.4514 0.000884209 0)
(63.4508 0.000865483 0)
(63.4502 0.000850656 0)
(63.4496 0.000819823 0)
(63.449 0.000784749 0)
(63.4484 0.000779537 0)
(63.4478 0.000806863 0)
(63.4472 0.000836023 0)
(63.4465 0.000848469 0)
(63.4458 0.00084429 0)
(63.4452 0.000827118 0)
(63.4445 0.000808812 0)
(63.4439 0.000804081 0)
(63.4433 0.000814189 0)
(63.4427 0.000830819 0)
(63.442 0.000849504 0)
(63.4414 0.000870303 0)
(63.4407 0.000889759 0)
(63.44 0.000900017 0)
(63.4393 0.000894892 0)
(63.4386 0.000871627 0)
(63.4379 0.000833453 0)
(63.4372 0.000797375 0)
(63.4367 0.000786315 0)
(63.4361 0.000802883 0)
(63.4354 0.000827062 0)
(63.4348 0.000843698 0)
(63.4341 0.000850717 0)
(63.4334 0.000847349 0)
(63.4327 0.000836913 0)
(63.432 0.000825006 0)
(63.4314 0.000809806 0)
(63.4307 0.00078805 0)
(63.4301 0.000762163 0)
(63.4294 0.000746175 0)
(63.4288 0.000767478 0)
(63.4282 0.000838723 0)
(63.4274 0.000935269 0)
(63.4266 0.00101639 0)
(63.4258 0.00105692 0)
(63.425 0.00105779 0)
(63.4243 0.0010392 0)
(63.4236 0.00102436 0)
(63.4228 0.00102401 0)
(63.4221 0.00103674 0)
(63.4214 0.00105985 0)
(63.4206 0.0010969 0)
(63.4199 0.00115418 0)
(63.4191 0.00122361 0)
(63.4183 0.00127964 0)
(63.4175 0.0013013 0)
(63.4167 0.00128068 0)
(63.4159 0.00122292 0)
(63.4151 0.00115843 0)
(63.4145 0.0011248 0)
(63.4138 0.00112644 0)
(63.4131 0.00113709 0)
(63.4124 0.00113448 0)
(63.4117 0.0011181 0)
(63.4111 0.00110276 0)
(63.4104 0.00110263 0)
(63.4097 0.00111613 0)
(63.409 0.00112216 0)
(63.4082 0.0010971 0)
(63.4075 0.00104193 0)
(63.4069 0.000986834 0)
(63.4063 0.000961632 0)
(63.4057 0.000969291 0)
(63.405 0.000995135 0)
(63.4044 0.00102554 0)
(63.4037 0.00105122 0)
(63.403 0.00106972 0)
(63.4023 0.00108172 0)
(63.4017 0.0010807 0)
(63.401 0.00106101 0)
(63.4004 0.00102743 0)
(63.3998 0.000988951 0)
(63.3992 0.000957711 0)
(63.3987 0.000950321 0)
(63.3981 0.000974739 0)
(63.3975 0.00101614 0)
(63.3969 0.00104269 0)
(63.3962 0.00102919 0)
(63.3956 0.000976263 0)
(63.3951 0.000908302 0)
(63.3945 0.000855477 0)
(63.394 0.000832595 0)
(63.3935 0.000827787 0)
(63.3929 0.000814727 0)
(63.3923 0.000781331 0)
(63.3918 0.000738021 0)
(63.3912 0.000699242 0)
(63.3906 0.000674562 0)
(63.3901 0.000670205 0)
(63.3895 0.000681103 0)
(63.3889 0.000693969 0)
(63.3883 0.000703832 0)
(63.3877 0.000713137 0)
(63.3872 0.000715987 0)
(63.3866 0.000699231 0)
(63.386 0.000662445 0)
(63.3854 0.000623139 0)
(63.3848 0.000598484 0)
(63.3843 0.00059431 0)
(63.3837 0.000612294 0)
(63.3831 0.000651081 0)
(63.3825 0.000697951 0)
(63.3819 0.000736881 0)
(63.3813 0.000765489 0)
(63.3806 0.000787269 0)
(63.38 0.000796665 0)
(63.3794 0.000790765 0)
(63.3788 0.000780688 0)
(63.3782 0.000775338 0)
(63.3775 0.000769845 0)
(63.377 0.000770603 0)
(63.3763 0.000788202 0)
(63.3758 0.000859441 0)
(63.3748 0.000898157 0)
(50.369 0.000102954 0)
(85.0519 0.00033889 0)
(72.8694 0.000458531 0)
(60.2878 0.000472108 0)
(59.5714 0.000465554 0)
(63.0225 0.000474853 0)
(64.5211 0.000418163 0)
(64.0688 0.00044685 0)
(63.4559 0.000569672 0)
(63.3557 0.000612862 0)
(63.4995 0.00061098 0)
(63.5841 0.000597964 0)
(63.5748 0.000568498 0)
(63.5465 0.00051145 0)
(63.5387 0.000454625 0)
(63.5443 0.00042713 0)
(63.549 0.000469066 0)
(63.5498 0.000574888 0)
(63.5486 0.000630532 0)
(63.5485 0.000626153 0)
(63.5489 0.000608948 0)
(63.5494 0.000565853 0)
(63.5495 0.00049031 0)
(63.5499 0.000461989 0)
(63.5503 0.000461222 0)
(63.5507 0.000401137 0)
(63.5511 0.000287241 0)
(63.5514 0.000179432 0)
(63.5518 0.000189061 0)
(63.5522 0.000303198 0)
(63.5526 0.00042463 0)
(63.553 0.000493327 0)
(63.5534 0.000510717 0)
(63.5537 0.000533904 0)
(63.554 0.00055845 0)
(63.5543 0.000529391 0)
(63.5548 0.000467612 0)
(63.5553 0.000424675 0)
(63.5557 0.000410681 0)
(63.556 0.000437546 0)
(63.5564 0.000488353 0)
(63.5566 0.000494676 0)
(63.5568 0.000461792 0)
(63.5571 0.000461994 0)
(63.5574 0.000501022 0)
(63.5579 0.000537211 0)
(63.5585 0.000547006 0)
(63.5589 0.000534287 0)
(63.5593 0.000522225 0)
(63.5596 0.000504517 0)
(63.5599 0.000466037 0)
(63.5603 0.000436028 0)
(63.5608 0.000422904 0)
(63.5611 0.000389031 0)
(63.5613 0.000349032 0)
(63.5618 0.000357174 0)
(63.5622 0.000414205 0)
(63.5625 0.000487193 0)
(63.5629 0.000540333 0)
(63.5631 0.000548366 0)
(63.5634 0.000522048 0)
(63.5636 0.00046983 0)
(63.5639 0.000393276 0)
(63.5642 0.000323061 0)
(63.5645 0.000277145 0)
(63.5649 0.000247765 0)
(63.5653 0.000252797 0)
(63.5659 0.000302565 0)
(63.5664 0.000359588 0)
(63.5667 0.000385038 0)
(63.567 0.000375163 0)
(63.5672 0.000363294 0)
(63.5675 0.000372987 0)
(63.5678 0.000372698 0)
(63.5682 0.000353123 0)
(63.5688 0.000344823 0)
(63.5693 0.000335107 0)
(63.5697 0.000320309 0)
(63.5701 0.000342852 0)
(63.5705 0.000408829 0)
(63.5709 0.000487125 0)
(63.5712 0.000550208 0)
(63.5716 0.000582678 0)
(63.572 0.000588141 0)
(63.5724 0.000566855 0)
(63.5728 0.000515964 0)
(63.5731 0.000460547 0)
(63.5736 0.000433587 0)
(63.574 0.00043269 0)
(63.5744 0.000429824 0)
(63.5748 0.000410534 0)
(63.5752 0.000378901 0)
(63.5756 0.000355851 0)
(63.576 0.000363769 0)
(63.5764 0.000382835 0)
(63.5768 0.000391931 0)
(63.5772 0.000410437 0)
(63.5775 0.000427587 0)
(63.5778 0.000413189 0)
(63.5782 0.000387326 0)
(63.5786 0.000374503 0)
(63.5791 0.000375404 0)
(63.5796 0.000392914 0)
(63.5801 0.000412228 0)
(63.5804 0.000403296 0)
(63.5807 0.000373241 0)
(63.581 0.000368304 0)
(63.5814 0.000404012 0)
(63.5817 0.000441863 0)
(63.582 0.000452407 0)
(63.5824 0.000446805 0)
(63.5828 0.000450047 0)
(63.5832 0.000464879 0)
(63.5837 0.000463402 0)
(63.584 0.000433618 0)
(63.5844 0.00038779 0)
(63.5847 0.000325741 0)
(63.585 0.000266612 0)
(63.5854 0.000251646 0)
(63.5858 0.000273123 0)
(63.5862 0.00028937 0)
(63.5865 0.000291579 0)
(63.5867 0.000294906 0)
(63.587 0.000307447 0)
(63.5873 0.000333748 0)
(63.5877 0.00037288 0)
(63.588 0.00040708 0)
(63.5884 0.000420131 0)
(63.5888 0.000417298 0)
(63.5891 0.000407478 0)
(63.5894 0.000389703 0)
(63.5898 0.000370661 0)
(63.5901 0.000371292 0)
(63.5904 0.000395397 0)
(63.5907 0.000410744 0)
(63.5909 0.000399267 0)
(63.5912 0.000394511 0)
(63.5916 0.000423498 0)
(63.592 0.000464748 0)
(63.5924 0.00049381 0)
(63.5927 0.000505708 0)
(63.593 0.000494025 0)
(63.5933 0.000462856 0)
(63.5936 0.000435147 0)
(63.5939 0.000423275 0)
(63.5942 0.000419041 0)
(63.5946 0.000415248 0)
(63.5949 0.000416704 0)
(63.5953 0.000431726 0)
(63.5957 0.000463998 0)
(63.5961 0.000509839 0)
(63.5965 0.000550283 0)
(63.5969 0.000553946 0)
(63.5971 0.000510879 0)
(63.5973 0.000454952 0)
(63.5976 0.00042688 0)
(63.5979 0.000430978 0)
(63.5983 0.000452778 0)
(63.5988 0.000482348 0)
(63.5992 0.000505417 0)
(63.5996 0.000515619 0)
(63.5999 0.000523985 0)
(63.6003 0.000535749 0)
(63.6006 0.000545756 0)
(63.6008 0.000543236 0)
(63.601 0.000516468 0)
(63.6013 0.000479066 0)
(63.6016 0.000464986 0)
(63.6021 0.000485491 0)
(63.6026 0.000518317 0)
(63.6032 0.000533024 0)
(63.6036 0.000515982 0)
(63.604 0.000479443 0)
(63.6044 0.000448424 0)
(63.6048 0.000435465 0)
(63.6052 0.000431792 0)
(63.6056 0.000419063 0)
(63.606 0.000386307 0)
(63.6064 0.000344366 0)
(63.6069 0.000313845 0)
(63.6075 0.000300934 0)
(63.6081 0.000306162 0)
(63.6086 0.000323689 0)
(63.6091 0.000325081 0)
(63.6095 0.000295033 0)
(63.6099 0.00025971 0)
(63.6102 0.000246761 0)
(63.6106 0.000254745 0)
(63.611 0.000266848 0)
(63.6114 0.000268291 0)
(63.6117 0.000256398 0)
(63.6121 0.000245631 0)
(63.6125 0.000257831 0)
(63.613 0.000297724 0)
(63.6134 0.000341028 0)
(63.6138 0.000356735 0)
(63.6141 0.00034052 0)
(63.6143 0.000313971 0)
(63.6146 0.000295599 0)
(63.615 0.000290451 0)
(63.6154 0.000294606 0)
(63.6158 0.000292423 0)
(63.6162 0.000273218 0)
(63.6166 0.000247951 0)
(63.6169 0.000229564 0)
(63.6173 0.000221207 0)
(63.6176 0.000223251 0)
(63.6179 0.000226186 0)
(63.6181 0.000214205 0)
(63.6183 0.000187729 0)
(63.6186 0.000166839 0)
(63.6189 0.000169836 0)
(63.6193 0.000194889 0)
(63.6197 0.000224088 0)
(63.62 0.00024063 0)
(63.6202 0.00024112 0)
(63.6204 0.000238676 0)
(63.6207 0.000253383 0)
(63.621 0.000290646 0)
(63.6212 0.000332609 0)
(63.6215 0.000364009 0)
(63.6217 0.000390712 0)
(63.6219 0.00041693 0)
(63.6222 0.000434631 0)
(63.6224 0.000444747 0)
(63.6226 0.000454151 0)
(63.6229 0.000458608 0)
(63.6232 0.000453811 0)
(63.6234 0.000450102 0)
(63.6238 0.000461631 0)
(63.6241 0.000488322 0)
(63.6243 0.000518156 0)
(63.6246 0.000540612 0)
(63.6248 0.000547829 0)
(63.625 0.000535501 0)
(63.6252 0.000514307 0)
(63.6254 0.000504421 0)
(63.6257 0.000506932 0)
(63.626 0.000501829 0)
(63.6263 0.000484613 0)
(63.6266 0.000472425 0)
(63.627 0.000468121 0)
(63.6273 0.000458316 0)
(63.6276 0.000445123 0)
(63.6279 0.000442593 0)
(63.6281 0.000444815 0)
(63.6284 0.00043834 0)
(63.6287 0.000421983 0)
(63.629 0.000443108 0)
(63.6295 0.000417799 0)
(50.3692 -6.27394e-06 0)
(85.0522 -2.54614e-05 0)
(72.8688 1.61709e-06 0)
(60.2859 4.22019e-05 0)
(59.5687 0.000102896 0)
(63.0196 0.000208801 0)
(64.5182 0.000207939 0)
(64.0653 8.03993e-05 0)
(63.4521 1.74938e-05 0)
(63.3516 -2.71243e-05 0)
(63.4947 -7.53753e-05 0)
(63.5792 -8.34314e-05 0)
(63.5694 -4.97777e-05 0)
(63.5406 3.54263e-05 0)
(63.5326 0.000131267 0)
(63.5383 0.000191632 0)
(63.5426 0.00017582 0)
(63.5428 0.000185929 0)
(63.5416 0.000248127 0)
(63.5414 0.000279621 0)
(63.5416 0.000243995 0)
(63.542 0.0001953 0)
(63.5423 0.000138621 0)
(63.5422 8.50539e-05 0)
(63.5422 0.000101999 0)
(63.5422 0.00017231 0)
(63.5422 0.00027966 0)
(63.542 0.000338073 0)
(63.5417 0.000315077 0)
(63.5416 0.000261673 0)
(63.5417 0.00023685 0)
(63.5418 0.000250331 0)
(63.5418 0.000248876 0)
(63.5419 0.000203894 0)
(63.5421 0.000141231 0)
(63.5423 8.68971e-05 0)
(63.5422 7.18917e-05 0)
(63.5421 0.000111143 0)
(63.542 0.000145173 0)
(63.542 0.00014031 0)
(63.5422 0.000159277 0)
(63.5425 0.000216422 0)
(63.5425 0.000255725 0)
(63.5425 0.000260055 0)
(63.5425 0.000228664 0)
(63.5425 0.000169373 0)
(63.5425 0.000117975 0)
(63.5426 9.86609e-05 0)
(63.5427 0.000123322 0)
(63.5429 0.000177956 0)
(63.5429 0.000206686 0)
(63.5429 0.000194485 0)
(63.5429 0.000176755 0)
(63.5429 0.000145132 0)
(63.5428 8.25659e-05 0)
(63.5428 3.6753e-05 0)
(63.5429 5.45236e-05 0)
(63.5429 0.000131451 0)
(63.543 0.000220935 0)
(63.5431 0.000262539 0)
(63.5431 0.000257092 0)
(63.5433 0.000248255 0)
(63.5433 0.00024647 0)
(63.5434 0.00025763 0)
(63.5434 0.000286638 0)
(63.5433 0.000294752 0)
(63.5431 0.000258787 0)
(63.543 0.000218821 0)
(63.543 0.000218998 0)
(63.543 0.00026522 0)
(63.5431 0.000321909 0)
(63.5432 0.000353623 0)
(63.5432 0.000363727 0)
(63.5433 0.000335455 0)
(63.5432 0.000251645 0)
(63.5432 0.000171 0)
(63.5431 0.000134164 0)
(63.543 0.000116783 0)
(63.5428 0.000114395 0)
(63.5428 0.000133052 0)
(63.5428 0.000157752 0)
(63.5429 0.000169851 0)
(63.5431 0.000158368 0)
(63.5432 0.000141128 0)
(63.5433 0.000142978 0)
(63.5433 0.000151035 0)
(63.5433 0.000142788 0)
(63.5433 0.000132393 0)
(63.5433 0.000148736 0)
(63.5433 0.000190561 0)
(63.5434 0.000233688 0)
(63.5434 0.00024866 0)
(63.5434 0.000224085 0)
(63.5434 0.000199961 0)
(63.5435 0.000207093 0)
(63.5435 0.000224826 0)
(63.5435 0.000254967 0)
(63.5436 0.000303964 0)
(63.5437 0.000328649 0)
(63.5437 0.000306132 0)
(63.5437 0.000256418 0)
(63.5437 0.000200873 0)
(63.5438 0.000169192 0)
(63.5439 0.000183084 0)
(63.5439 0.00021622 0)
(63.544 0.000223378 0)
(63.544 0.000210193 0)
(63.544 0.000221036 0)
(63.544 0.000259823 0)
(63.5441 0.000285091 0)
(63.5441 0.000266076 0)
(63.5441 0.000218352 0)
(63.5441 0.000188836 0)
(63.5442 0.000193564 0)
(63.5443 0.000215565 0)
(63.5444 0.00024901 0)
(63.5445 0.000273417 0)
(63.5444 0.000262057 0)
(63.5443 0.000242847 0)
(63.5444 0.000257734 0)
(63.5444 0.000299356 0)
(63.5444 0.000341576 0)
(63.5445 0.000372802 0)
(63.5445 0.000383594 0)
(63.5445 0.000369381 0)
(63.5445 0.000344359 0)
(63.5445 0.00032204 0)
(63.5445 0.000299317 0)
(63.5445 0.000276457 0)
(63.5445 0.000260858 0)
(63.5446 0.000245528 0)
(63.5446 0.000215078 0)
(63.5447 0.00018061 0)
(63.5448 0.000178058 0)
(63.5449 0.000206952 0)
(63.5449 0.000217182 0)
(63.5448 0.000186361 0)
(63.5448 0.000146113 0)
(63.5448 0.00012113 0)
(63.5448 0.000113499 0)
(63.5448 0.000127912 0)
(63.5449 0.000157308 0)
(63.545 0.000180622 0)
(63.5451 0.000193092 0)
(63.5451 0.000203416 0)
(63.5452 0.000210256 0)
(63.5452 0.000204582 0)
(63.5452 0.000183774 0)
(63.5452 0.000154788 0)
(63.5452 0.000130472 0)
(63.5452 0.000128319 0)
(63.5454 0.000160059 0)
(63.5455 0.000209003 0)
(63.5457 0.000234058 0)
(63.5458 0.000215421 0)
(63.5458 0.000175113 0)
(63.5458 0.000137482 0)
(63.5458 0.00010896 0)
(63.5458 9.57766e-05 0)
(63.5458 9.58162e-05 0)
(63.5459 9.71073e-05 0)
(63.5459 0.00010192 0)
(63.546 0.000119812 0)
(63.5461 0.000156488 0)
(63.5463 0.0002101 0)
(63.5464 0.000251716 0)
(63.5465 0.000244661 0)
(63.5464 0.000192812 0)
(63.5464 0.000135182 0)
(63.5464 0.000104808 0)
(63.5465 0.00010835 0)
(63.5466 0.000131815 0)
(63.5466 0.000158486 0)
(63.5467 0.000184158 0)
(63.5468 0.000215492 0)
(63.5469 0.000257028 0)
(63.547 0.000301281 0)
(63.547 0.00032519 0)
(63.547 0.000310701 0)
(63.5469 0.000267619 0)
(63.5468 0.000216955 0)
(63.5467 0.000183188 0)
(63.5468 0.000196656 0)
(63.5469 0.000252451 0)
(63.5469 0.000302598 0)
(63.547 0.000318004 0)
(63.547 0.000313756 0)
(63.5471 0.000317195 0)
(63.5471 0.000340561 0)
(63.5471 0.000372691 0)
(63.5471 0.000386869 0)
(63.5471 0.000364319 0)
(63.547 0.000317131 0)
(63.547 0.00028223 0)
(63.547 0.00028498 0)
(63.5471 0.000311635 0)
(63.5472 0.000328177 0)
(63.5473 0.000320269 0)
(63.5474 0.00029871 0)
(63.5474 0.000281068 0)
(63.5474 0.000281855 0)
(63.5474 0.000297688 0)
(63.5474 0.000308692 0)
(63.5474 0.000309361 0)
(63.5474 0.000310947 0)
(63.5473 0.000321444 0)
(63.5473 0.000347672 0)
(63.5474 0.000390694 0)
(63.5474 0.000431376 0)
(63.5474 0.000442433 0)
(63.5473 0.000415494 0)
(63.5472 0.00036975 0)
(63.5471 0.000335309 0)
(63.5471 0.000330239 0)
(63.5471 0.000349287 0)
(63.5471 0.000368059 0)
(63.5471 0.000362276 0)
(63.5471 0.000330768 0)
(63.5471 0.000295458 0)
(63.5471 0.000271952 0)
(63.5471 0.000256599 0)
(63.5472 0.000248255 0)
(63.5472 0.000248894 0)
(63.5473 0.000245804 0)
(63.5474 0.000229225 0)
(63.5475 0.000209438 0)
(63.5476 0.000193648 0)
(63.5476 0.000171276 0)
(63.5477 0.000135455 0)
(63.5477 0.000101979 0)
(63.5478 9.33458e-05 0)
(63.5479 0.000113352 0)
(63.548 0.000149211 0)
(63.5482 0.000184912 0)
(63.5483 0.000204147 0)
(63.5484 0.000198543 0)
(63.5484 0.000181277 0)
(63.5485 0.000172529 0)
(63.5486 0.000168993 0)
(63.5486 0.000156934 0)
(63.5486 0.000146364 0)
(63.5486 0.000153785 0)
(63.5487 0.000169099 0)
(63.5487 0.000176047 0)
(63.5488 0.000185191 0)
(63.5489 0.000211717 0)
(63.5489 0.000237918 0)
(63.549 0.0002423 0)
(63.549 0.000225322 0)
(63.549 0.000236542 0)
(50.3693 4.05945e-06 0)
(85.0515 2.2126e-05 0)
(72.869 0.000194422 0)
(60.2866 0.000336075 0)
(59.5697 0.000345197 0)
(63.0206 0.000375103 0)
(64.5195 0.000430556 0)
(64.0667 0.000417373 0)
(63.4532 0.000369136 0)
(63.3528 0.000378928 0)
(63.4956 0.000421812 0)
(63.5797 0.000426805 0)
(63.5696 0.000427361 0)
(63.5408 0.000435708 0)
(63.5326 0.000399553 0)
(63.538 0.000338907 0)
(63.5425 0.000260256 0)
(63.5427 0.000184044 0)
(63.5413 0.000130494 0)
(63.5409 0.000151553 0)
(63.5412 0.000214881 0)
(63.5413 0.000280844 0)
(63.5413 0.000355155 0)
(63.5411 0.000381286 0)
(63.5411 0.000386712 0)
(63.5412 0.000410563 0)
(63.5413 0.000467847 0)
(63.5415 0.000491106 0)
(63.5419 0.000405632 0)
(63.5421 0.000287638 0)
(63.5422 0.000260439 0)
(63.5423 0.000314986 0)
(63.5423 0.000359238 0)
(63.5424 0.00035131 0)
(63.5425 0.000345608 0)
(63.5424 0.000389777 0)
(63.5423 0.000453894 0)
(63.5424 0.000501373 0)
(63.5425 0.000484874 0)
(63.5423 0.000373312 0)
(63.5421 0.000257241 0)
(63.5421 0.000228983 0)
(63.5421 0.00026753 0)
(63.5422 0.000328328 0)
(63.5423 0.000378413 0)
(63.5424 0.00038984 0)
(63.5424 0.000365115 0)
(63.5424 0.0003192 0)
(63.5424 0.000285827 0)
(63.5424 0.000313381 0)
(63.5424 0.000384758 0)
(63.5424 0.000439805 0)
(63.5424 0.000471285 0)
(63.5425 0.000484046 0)
(63.5424 0.000457021 0)
(63.5423 0.000404384 0)
(63.5422 0.000360566 0)
(63.5421 0.000342922 0)
(63.5421 0.000355236 0)
(63.5421 0.000366146 0)
(63.5421 0.000350163 0)
(63.5422 0.000328116 0)
(63.5423 0.000311965 0)
(63.5424 0.000306868 0)
(63.5425 0.000340185 0)
(63.5427 0.000397456 0)
(63.5429 0.000418036 0)
(63.5429 0.000380996 0)
(63.5429 0.000318156 0)
(63.543 0.000274162 0)
(63.543 0.000262347 0)
(63.543 0.000259911 0)
(63.5431 0.000276493 0)
(63.5433 0.000323096 0)
(63.5434 0.00036055 0)
(63.5435 0.000392098 0)
(63.5436 0.000451756 0)
(63.5436 0.000511318 0)
(63.5436 0.000531726 0)
(63.5435 0.000506813 0)
(63.5435 0.000447277 0)
(63.5435 0.000379458 0)
(63.5435 0.000323059 0)
(63.5435 0.00029239 0)
(63.5435 0.000309799 0)
(63.5436 0.000370993 0)
(63.5436 0.000431238 0)
(63.5436 0.000453926 0)
(63.5437 0.000439877 0)
(63.5437 0.000403813 0)
(63.5437 0.000366887 0)
(63.5439 0.000344693 0)
(63.5439 0.000321986 0)
(63.544 0.000301339 0)
(63.544 0.000306207 0)
(63.544 0.000310865 0)
(63.544 0.00029478 0)
(63.5441 0.000286387 0)
(63.5441 0.000287614 0)
(63.5442 0.000282933 0)
(63.5443 0.000280855 0)
(63.5443 0.000279006 0)
(63.5443 0.000272058 0)
(63.5443 0.000284025 0)
(63.5444 0.000330615 0)
(63.5444 0.000377486 0)
(63.5444 0.000385715 0)
(63.5443 0.000369953 0)
(63.5444 0.000365873 0)
(63.5444 0.000380062 0)
(63.5444 0.000386684 0)
(63.5444 0.000358001 0)
(63.5444 0.00030729 0)
(63.5444 0.000263664 0)
(63.5444 0.000235473 0)
(63.5445 0.000242289 0)
(63.5446 0.000291132 0)
(63.5447 0.000333648 0)
(63.5448 0.00033383 0)
(63.5448 0.000310634 0)
(63.5449 0.000286094 0)
(63.5449 0.000266677 0)
(63.545 0.000263732 0)
(63.5451 0.000281422 0)
(63.5452 0.000305145 0)
(63.5453 0.000324961 0)
(63.5453 0.00034202 0)
(63.5454 0.000348989 0)
(63.5455 0.000338497 0)
(63.5455 0.00032271 0)
(63.5455 0.000318145 0)
(63.5456 0.000317902 0)
(63.5455 0.000305394 0)
(63.5455 0.000298272 0)
(63.5455 0.000330723 0)
(63.5456 0.000388664 0)
(63.5456 0.000428103 0)
(63.5456 0.000439096 0)
(63.5456 0.000432088 0)
(63.5456 0.000408377 0)
(63.5455 0.000379351 0)
(63.5455 0.000361958 0)
(63.5455 0.000352047 0)
(63.5455 0.000340045 0)
(63.5455 0.000332532 0)
(63.5455 0.000339337 0)
(63.5456 0.000358453 0)
(63.5456 0.000379237 0)
(63.5456 0.000388752 0)
(63.5456 0.000373887 0)
(63.5455 0.000333021 0)
(63.5454 0.000291903 0)
(63.5454 0.000286319 0)
(63.5454 0.0003187 0)
(63.5455 0.000358105 0)
(63.5455 0.000385229 0)
(63.5455 0.000399622 0)
(63.5455 0.000399424 0)
(63.5455 0.000392918 0)
(63.5455 0.000393184 0)
(63.5454 0.000394619 0)
(63.5454 0.000387373 0)
(63.5453 0.00036846 0)
(63.5452 0.000341866 0)
(63.5452 0.000329625 0)
(63.5452 0.000348198 0)
(63.5453 0.000379694 0)
(63.5453 0.000395265 0)
(63.5453 0.000385653 0)
(63.5453 0.000361568 0)
(63.5452 0.000340299 0)
(63.5452 0.000330547 0)
(63.5452 0.000325696 0)
(63.5452 0.000314948 0)
(63.5452 0.000296998 0)
(63.5452 0.000282308 0)
(63.5453 0.000287981 0)
(63.5454 0.000318096 0)
(63.5455 0.000354758 0)
(63.5456 0.000380274 0)
(63.5457 0.000378485 0)
(63.5457 0.000333352 0)
(63.5457 0.00026495 0)
(63.5458 0.00021853 0)
(63.5459 0.000207134 0)
(63.5459 0.000211976 0)
(63.546 0.000217069 0)
(63.5461 0.000218537 0)
(63.5461 0.000223647 0)
(63.5462 0.000245366 0)
(63.5463 0.000285053 0)
(63.5464 0.000321428 0)
(63.5464 0.000326071 0)
(63.5464 0.000293394 0)
(63.5464 0.00024824 0)
(63.5464 0.00021838 0)
(63.5464 0.00020875 0)
(63.5464 0.000210732 0)
(63.5465 0.000215799 0)
(63.5465 0.000216749 0)
(63.5465 0.00021997 0)
(63.5466 0.000240042 0)
(63.5467 0.000272414 0)
(63.5467 0.000300301 0)
(63.5468 0.000313069 0)
(63.5468 0.000302708 0)
(63.5469 0.000272298 0)
(63.5469 0.000244993 0)
(63.547 0.000243089 0)
(63.5472 0.000266228 0)
(63.5474 0.000295211 0)
(63.5475 0.000310608 0)
(63.5476 0.000306019 0)
(63.5477 0.000289739 0)
(63.5477 0.000278542 0)
(63.5479 0.00028382 0)
(63.548 0.000298975 0)
(63.5481 0.000307807 0)
(63.5481 0.000307798 0)
(63.5482 0.000307114 0)
(63.5482 0.000301459 0)
(63.5482 0.000285662 0)
(63.5482 0.000272097 0)
(63.5482 0.000269134 0)
(63.5482 0.000270276 0)
(63.5482 0.000275878 0)
(63.5482 0.00029542 0)
(63.5482 0.000326574 0)
(63.5482 0.000351118 0)
(63.5481 0.000354313 0)
(63.5481 0.000337408 0)
(63.548 0.00031063 0)
(63.5479 0.000287751 0)
(63.5479 0.000284707 0)
(63.5479 0.000305 0)
(63.5478 0.000330338 0)
(63.5478 0.000344936 0)
(63.5478 0.000358713 0)
(63.5478 0.000381798 0)
(63.5478 0.000398573 0)
(63.5478 0.000396483 0)
(63.5477 0.000388884 0)
(63.5477 0.000384895 0)
(63.5477 0.000371355 0)
(63.5477 0.000343636 0)
(63.5477 0.000323678 0)
(63.5477 0.000325028 0)
(63.5477 0.000330251 0)
(63.5477 0.000328225 0)
(63.5477 0.000324505 0)
(50.3692 2.52864e-05 0)
(85.052 3.28109e-05 0)
(72.8685 1.95236e-05 0)
(60.2862 3.55004e-05 0)
(59.5691 3.7419e-05 0)
(63.0197 1.14609e-05 0)
(64.5187 4.20304e-05 0)
(64.066 9.78421e-05 0)
(63.4524 0.00012384 0)
(63.352 0.000162139 0)
(63.4951 0.000198161 0)
(63.5798 0.000197422 0)
(63.57 0.000157764 0)
(63.5412 0.000142768 0)
(63.5333 0.000169912 0)
(63.5389 0.000222018 0)
(63.5433 0.000258158 0)
(63.5433 0.00028406 0)
(63.542 0.000287126 0)
(63.5413 0.000303866 0)
(63.5415 0.000356246 0)
(63.5416 0.000331153 0)
(63.5418 0.000234473 0)
(63.542 0.000139398 0)
(63.542 8.40676e-05 0)
(63.5419 3.6662e-05 0)
(63.5419 -4.29592e-05 0)
(63.5419 -0.000111621 0)
(63.5419 -9.90179e-05 0)
(63.5416 -6.07013e-06 0)
(63.5414 8.50189e-05 0)
(63.5414 0.000102686 0)
(63.5415 6.50001e-05 0)
(63.5415 4.31586e-05 0)
(63.5415 9.31074e-05 0)
(63.5416 0.000189385 0)
(63.5416 0.000237219 0)
(63.5417 0.000234726 0)
(63.542 0.000252285 0)
(63.5421 0.000275726 0)
(63.542 0.000269577 0)
(63.5421 0.000242485 0)
(63.5421 0.000201783 0)
(63.542 0.000165948 0)
(63.542 0.000156415 0)
(63.5421 0.000163667 0)
(63.5422 0.000174494 0)
(63.5424 0.000181722 0)
(63.5424 0.000181106 0)
(63.5424 0.000192025 0)
(63.5425 0.00021379 0)
(63.5425 0.000200288 0)
(63.5425 0.000154125 0)
(63.5427 0.000131854 0)
(63.5429 0.000149514 0)
(63.543 0.000192877 0)
(63.5431 0.000239786 0)
(63.5431 0.000259592 0)
(63.5431 0.000249603 0)
(63.5431 0.000212051 0)
(63.5431 0.000142951 0)
(63.5431 7.52634e-05 0)
(63.5431 3.70021e-05 0)
(63.543 1.45337e-05 0)
(63.5429 1.29712e-05 0)
(63.5429 5.22477e-05 0)
(63.543 0.00011294 0)
(63.543 0.000162098 0)
(63.5431 0.000187749 0)
(63.5431 0.000203691 0)
(63.5431 0.000222489 0)
(63.5431 0.000212856 0)
(63.5431 0.000167192 0)
(63.5431 0.000131169 0)
(63.5431 0.0001054 0)
(63.5431 7.71174e-05 0)
(63.5432 7.8507e-05 0)
(63.5432 0.000113536 0)
(63.5433 0.000153234 0)
(63.5435 0.000179563 0)
(63.5436 0.000185382 0)
(63.5437 0.000180687 0)
(63.5439 0.000171516 0)
(63.5439 0.000147348 0)
(63.5439 0.000116469 0)
(63.5439 0.000105688 0)
(63.544 0.000116971 0)
(63.544 0.000126962 0)
(63.5441 0.000124044 0)
(63.5441 0.000105587 0)
(63.5441 7.98073e-05 0)
(63.5441 7.64221e-05 0)
(63.5441 9.51901e-05 0)
(63.544 0.000117885 0)
(63.544 0.000161822 0)
(63.5441 0.00021506 0)
(63.544 0.000232396 0)
(63.544 0.000219558 0)
(63.544 0.000199145 0)
(63.5439 0.000174317 0)
(63.544 0.000162386 0)
(63.544 0.000169893 0)
(63.544 0.000171574 0)
(63.544 0.000160101 0)
(63.544 0.000166757 0)
(63.544 0.000205264 0)
(63.5441 0.000243328 0)
(63.5441 0.000253639 0)
(63.5441 0.000242896 0)
(63.5442 0.000232872 0)
(63.5442 0.000233946 0)
(63.5443 0.000228139 0)
(63.5444 0.000206305 0)
(63.5445 0.00018118 0)
(63.5445 0.000145983 0)
(63.5444 0.000104113 0)
(63.5444 9.14344e-05 0)
(63.5444 0.000110244 0)
(63.5444 0.000128947 0)
(63.5444 0.000141266 0)
(63.5444 0.000155868 0)
(63.5444 0.000168046 0)
(63.5443 0.000177314 0)
(63.5443 0.000193409 0)
(63.5442 0.000213193 0)
(63.5442 0.000225944 0)
(63.5441 0.000232956 0)
(63.5441 0.000234084 0)
(63.5441 0.000218478 0)
(63.5442 0.000186817 0)
(63.5442 0.000162666 0)
(63.5443 0.000162493 0)
(63.5444 0.00016527 0)
(63.5444 0.000149042 0)
(63.5444 0.000136412 0)
(63.5445 0.000150859 0)
(63.5446 0.000174892 0)
(63.5447 0.000190994 0)
(63.5449 0.000201517 0)
(63.545 0.00020086 0)
(63.5451 0.000185503 0)
(63.5451 0.00017067 0)
(63.5452 0.000165325 0)
(63.5453 0.000162103 0)
(63.5453 0.000157296 0)
(63.5454 0.000156447 0)
(63.5454 0.000164263 0)
(63.5455 0.000182069 0)
(63.5455 0.000210875 0)
(63.5456 0.000243609 0)
(63.5457 0.000258185 0)
(63.5457 0.000238933 0)
(63.5457 0.000201679 0)
(63.5458 0.000173367 0)
(63.5458 0.000157788 0)
(63.5459 0.000150065 0)
(63.546 0.000153538 0)
(63.5461 0.000161343 0)
(63.5461 0.000165937 0)
(63.5462 0.000175819 0)
(63.5463 0.000194814 0)
(63.5464 0.000218539 0)
(63.5465 0.00023963 0)
(63.5466 0.000241326 0)
(63.5466 0.000221051 0)
(63.5466 0.000201485 0)
(63.5467 0.000198208 0)
(63.5467 0.000204581 0)
(63.5468 0.000207102 0)
(63.5469 0.000199125 0)
(63.5469 0.00018561 0)
(63.547 0.000178663 0)
(63.547 0.000184614 0)
(63.5471 0.000198258 0)
(63.5471 0.000207667 0)
(63.5471 0.000200602 0)
(63.5471 0.000178143 0)
(63.547 0.000153588 0)
(63.547 0.0001332 0)
(63.547 0.000124827 0)
(63.5471 0.000137823 0)
(63.5472 0.000153717 0)
(63.5472 0.000149417 0)
(63.5472 0.000136607 0)
(63.5471 0.00013699 0)
(63.5471 0.000153876 0)
(63.5471 0.000179531 0)
(63.5471 0.000202355 0)
(63.547 0.0002125 0)
(63.547 0.000213428 0)
(63.5469 0.000221828 0)
(63.5469 0.000248763 0)
(63.5469 0.000283021 0)
(63.547 0.000300971 0)
(63.547 0.000293395 0)
(63.5469 0.000272901 0)
(63.5469 0.000253096 0)
(63.5469 0.000239358 0)
(63.5469 0.000233396 0)
(63.5469 0.000226588 0)
(63.5469 0.000210362 0)
(63.5468 0.000193621 0)
(63.5468 0.000185637 0)
(63.5468 0.000185796 0)
(63.5469 0.000194881 0)
(63.5469 0.000206939 0)
(63.5469 0.000205534 0)
(63.5468 0.000184204 0)
(63.5468 0.000154625 0)
(63.5468 0.000132933 0)
(63.5468 0.00012657 0)
(63.5468 0.000132625 0)
(63.5468 0.000141959 0)
(63.5468 0.000144849 0)
(63.5468 0.000139997 0)
(63.5468 0.000138385 0)
(63.5468 0.00014983 0)
(63.5469 0.000167881 0)
(63.5469 0.000183191 0)
(63.5469 0.000200769 0)
(63.547 0.000221714 0)
(63.547 0.000234014 0)
(63.5471 0.000236422 0)
(63.5471 0.00023705 0)
(63.5471 0.000232264 0)
(63.5472 0.000215747 0)