/*--------------------------------*- C++ -*----------------------------------*\
| =========                 |                                                 |
| \\      /  F ield         | OpenFOAM: The Open Source CFD Toolbox           |
|  \\    /   O peration     | Version:  2406                                  |
|   \\  /    A nd           | Website:  www.openfoam.com                      |
|    \\/     M anipulation  |                                                 |
\*---------------------------------------------------------------------------*/
FoamFile
{
    version     2.0;
    format      ascii;
    arch        "LSB;label=32;scalar=64";
    class       surfaceScalarField;
    location    "1.9";
    object      alphaPhi0.air;
}
// * * * * * * * * * * * * * * * * * * * * * * * * * * * * * * * * * * * * * //

dimensions      [0 3 -1 0 0 0 0];

oriented        oriented;

internalField   nonuniform List<scalar> 
12225
(
0.511121
1.69625e-06
0.511115
6.2409e-06
0.511108
7.36516e-06
0.511102
5.17659e-06
0.511098
4.06817e-06
0.511094
4.73299e-06
0.511088
5.78249e-06
0.511082
5.83726e-06
0.511077
5.22044e-06
0.511072
5.02566e-06
0.511066
5.51282e-06
0.51106
6.02415e-06
0.511054
5.88056e-06
0.511049
5.184e-06
0.511044
4.88053e-06
0.511039
5.1391e-06
0.511034
5.44539e-06
0.511028
5.42278e-06
0.511023
5.04243e-06
0.511018
5.05539e-06
0.511013
5.37842e-06
0.511007
5.30979e-06
0.511002
5.11128e-06
0.510997
5.14134e-06
0.510992
5.23783e-06
0.510987
5.31368e-06
0.510981
5.45599e-06
0.510976
5.49691e-06
0.51097
5.42229e-06
0.510965
5.53675e-06
0.510959
5.77754e-06
0.510953
5.92033e-06
0.510947
5.85767e-06
0.510941
5.81934e-06
0.510935
5.942e-06
0.51093
5.69521e-06
0.510924
5.32621e-06
0.510919
5.4186e-06
0.510913
5.43417e-06
0.510908
5.22713e-06
0.510903
5.26907e-06
0.510898
5.30403e-06
0.510893
5.11593e-06
0.510887
5.11638e-06
0.510882
5.35897e-06
0.510877
5.54955e-06
0.510871
5.83275e-06
0.510865
6.14189e-06
0.510859
5.87634e-06
0.510853
5.22441e-06
0.510849
4.86511e-06
0.510844
4.99197e-06
0.510838
5.39627e-06
0.510833
5.58104e-06
0.510827
5.69128e-06
0.510821
5.9849e-06
0.510815
5.87296e-06
0.51081
5.54969e-06
0.510804
5.45747e-06
0.510799
5.5089e-06
0.510793
5.88248e-06
0.510787
6.05451e-06
0.510781
5.60198e-06
0.510776
5.04736e-06
0.510771
4.60139e-06
0.510767
4.43427e-06
0.510762
4.79174e-06
0.510757
5.35822e-06
0.510751
5.74875e-06
0.510745
6.04162e-06
0.510739
6.36321e-06
0.510732
6.26086e-06
0.510727
5.58526e-06
0.510722
4.98203e-06
0.510717
4.75904e-06
0.510712
4.7761e-06
0.510707
4.879e-06
0.510702
5.00932e-06
0.510697
5.2762e-06
0.510692
5.57084e-06
0.510686
5.8757e-06
0.510679
6.22128e-06
0.510673
6.0758e-06
0.510668
5.46421e-06
0.510663
5.20225e-06
0.510657
5.26126e-06
0.510652
5.29965e-06
0.510647
5.38762e-06
0.510641
5.28156e-06
0.510636
5.18316e-06
0.510631
5.50775e-06
0.510625
5.76423e-06
0.510619
5.64185e-06
0.510614
5.34539e-06
0.510609
5.08403e-06
0.510604
5.11759e-06
0.510599
5.2805e-06
0.510593
5.23873e-06
0.510588
5.17594e-06
0.510583
5.33966e-06
0.510577
5.4964e-06
0.510572
5.47639e-06
0.510566
5.5888e-06
0.51056
5.84026e-06
0.510554
5.9167e-06
0.510549
5.83059e-06
0.510543
5.65425e-06
0.510538
5.26631e-06
0.510533
4.65861e-06
0.510529
4.27783e-06
0.510524
4.68624e-06
0.510519
5.47486e-06
0.510513
5.73815e-06
0.510507
5.59088e-06
0.510502
5.60926e-06
0.510496
5.70306e-06
0.51049
5.72609e-06
0.510485
5.63803e-06
0.510479
5.32753e-06
0.510474
5.07511e-06
0.510469
5.01966e-06
0.510464
4.9775e-06
0.510459
5.02396e-06
0.510454
5.19813e-06
0.510448
5.51496e-06
0.510443
5.94058e-06
0.510436
6.11982e-06
0.51043
6.04169e-06
0.510424
5.95137e-06
0.510419
5.83041e-06
0.510413
5.70954e-06
0.510407
5.59499e-06
0.510402
5.31866e-06
0.510397
4.98199e-06
0.510392
4.89087e-06
0.510387
5.07845e-06
0.510382
5.40316e-06
0.510376
5.63031e-06
0.51037
5.64683e-06
0.510365
5.78799e-06
0.510358
6.07082e-06
0.510352
6.07843e-06
0.510347
5.80354e-06
0.510341
5.47475e-06
0.510336
5.19094e-06
0.510331
5.02632e-06
0.510326
5.08939e-06
0.51032
5.36521e-06
0.510315
5.54919e-06
0.510309
5.48867e-06
0.510304
5.51346e-06
0.510298
5.74261e-06
0.510292
5.81153e-06
0.510287
5.64372e-06
0.510281
5.48843e-06
0.510276
5.41923e-06
0.51027
5.33506e-06
0.510265
5.2245e-06
0.51026
5.27841e-06
0.510255
5.39957e-06
0.510249
5.33572e-06
0.510244
5.33457e-06
0.510238
5.46121e-06
0.510233
5.47802e-06
0.510227
5.52025e-06
0.510222
5.70006e-06
0.510216
5.76949e-06
0.51021
5.5705e-06
0.510205
5.23877e-06
0.5102
5.01881e-06
0.510195
5.07365e-06
0.51019
5.27355e-06
0.510184
5.45029e-06
0.510179
5.65061e-06
0.510173
5.86426e-06
0.510167
5.89972e-06
0.510161
5.67033e-06
0.510156
5.39095e-06
0.510151
5.23146e-06
0.510145
5.17743e-06
0.51014
5.25947e-06
0.510135
5.22699e-06
0.51013
5.01231e-06
0.510125
5.1105e-06
0.510119
5.49469e-06
0.510114
5.81184e-06
0.510108
5.99809e-06
0.510102
5.88945e-06
0.510096
5.57689e-06
0.510091
5.35077e-06
0.510085
5.2773e-06
0.51008
5.38121e-06
0.510075
5.47028e-06
0.510069
5.31134e-06
0.510064
5.12317e-06
0.510059
5.18328e-06
0.510054
5.45871e-06
0.510048
5.76964e-06
0.510042
5.91285e-06
0.510036
5.94781e-06
0.51003
5.96397e-06
0.510024
5.73285e-06
0.510019
5.24823e-06
0.510014
4.81318e-06
0.510009
4.66559e-06
0.510005
4.85976e-06
0.509999
5.10919e-06
0.509994
5.24731e-06
0.509989
5.55246e-06
0.509983
5.98573e-06
0.509977
6.05192e-06
0.509971
5.75844e-06
0.509965
5.6432e-06
0.50996
5.70123e-06
0.509954
5.56183e-06
0.509949
5.39066e-06
0.509943
5.36699e-06
0.509938
5.44925e-06
0.509932
5.59211e-06
0.509927
5.55556e-06
0.509921
5.48891e-06
0.509915
5.68225e-06
0.50991
5.90226e-06
0.509904
6.05851e-06
0.509897
6.14551e-06
0.509891
5.97934e-06
0.509886
5.64556e-06
0.50988
5.25936e-06
0.509876
4.94132e-06
0.509871
4.95363e-06
0.509865
5.20731e-06
0.50986
5.43586e-06
0.509854
5.65734e-06
0.509848
5.78841e-06
0.509843
5.7898e-06
0.509837
5.67798e-06
0.509832
5.35482e-06
0.509827
5.0881e-06
0.509822
5.08087e-06
0.509816
5.13344e-06
0.509811
5.25928e-06
0.509806
5.42941e-06
0.5098
5.40399e-06
0.509795
5.23895e-06
0.50979
5.12663e-06
0.509785
5.08043e-06
0.50978
5.11968e-06
0.509775
5.18653e-06
0.509769
5.61227e-06
5.1634e-06
0.511127
-1.48335e-07
0.511133
4.58326e-07
0.511138
1.75581e-06
0.511141
2.87706e-06
0.511142
2.88134e-06
0.511144
2.5153e-06
0.511147
2.37865e-06
0.511151
2.37121e-06
0.511154
2.24527e-06
0.511157
2.15436e-06
0.51116
2.36057e-06
0.511164
2.36894e-06
0.511167
2.08297e-06
0.51117
2.12132e-06
0.511173
2.2621e-06
0.511176
2.46487e-06
0.511179
2.5053e-06
0.511182
2.09307e-06
0.511185
2.05274e-06
0.511187
2.57326e-06
0.51119
2.76645e-06
0.511193
2.60527e-06
0.511195
2.52361e-06
0.511198
2.53792e-06
0.5112
2.70876e-06
0.511203
2.90256e-06
0.511206
2.83996e-06
0.511208
2.83903e-06
0.511211
2.77851e-06
0.511214
2.26827e-06
0.511218
2.03784e-06
0.511221
2.36368e-06
0.511225
2.4357e-06
0.511228
2.20818e-06
0.511232
2.34348e-06
0.511235
2.87372e-06
0.511237
2.90578e-06
0.51124
2.34037e-06
0.511244
2.23156e-06
0.511246
2.50485e-06
0.511249
2.4178e-06
0.511252
2.3214e-06
0.511255
2.32871e-06
0.511258
2.21965e-06
0.511261
2.2731e-06
0.511264
2.50143e-06
0.511267
2.673e-06
0.51127
2.73181e-06
0.511274
2.76009e-06
0.511276
2.85591e-06
0.511278
2.934e-06
0.51128
2.80041e-06
0.511283
2.62668e-06
0.511286
2.76392e-06
0.511289
2.7779e-06
0.511292
2.33156e-06
0.511296
1.95655e-06
0.5113
1.89427e-06
0.511303
2.18044e-06
0.511306
2.69187e-06
0.511309
2.84598e-06
0.511312
2.7192e-06
0.511315
2.8091e-06
0.511317
2.77052e-06
0.511319
2.51612e-06
0.511321
2.50899e-06
0.511324
2.38811e-06
0.511327
2.10503e-06
0.511331
2.19606e-06
0.511334
2.42466e-06
0.511338
2.53589e-06
0.511341
2.90674e-06
0.511344
3.14833e-06
0.511346
2.68525e-06
0.511349
2.13337e-06
0.511351
2.03203e-06
0.511354
2.03467e-06
0.511357
2.0768e-06
0.51136
2.24668e-06
0.511363
2.43119e-06
0.511367
2.63542e-06
0.51137
2.61856e-06
0.511374
2.35444e-06
0.511377
2.2521e-06
0.51138
2.36354e-06
0.511383
2.56898e-06
0.511385
2.69763e-06
0.511388
2.66255e-06
0.511391
2.68433e-06
0.511393
2.67277e-06
0.511396
2.49618e-06
0.511399
2.50885e-06
0.511402
2.65493e-06
0.511405
2.49302e-06
0.511408
2.3746e-06
0.51141
2.66314e-06
0.511413
2.89209e-06
0.511415
2.95035e-06
0.511417
2.99495e-06
0.51142
2.85963e-06
0.511422
2.76636e-06
0.511425
2.70668e-06
0.511428
2.36275e-06
0.511432
2.21779e-06
0.511436
2.47965e-06
0.511439
2.48822e-06
0.511442
2.20009e-06
0.511446
2.00682e-06
0.511448
2.03237e-06
0.51145
2.2594e-06
0.511453
2.29776e-06
0.511456
2.13583e-06
0.511459
2.29228e-06
0.511462
2.54906e-06
0.511466
2.4557e-06
0.511469
2.39935e-06
0.511472
2.3434e-06
0.511476
2.08733e-06
0.511479
2.01445e-06
0.511482
2.28985e-06
0.511484
2.663e-06
0.511486
2.88621e-06
0.511489
2.81927e-06
0.511491
2.59081e-06
0.511494
2.41752e-06
0.511498
2.39272e-06
0.511502
2.45281e-06
0.511505
2.45004e-06
0.511509
2.40574e-06
0.511512
2.5025e-06
0.511515
2.69002e-06
0.511518
2.74528e-06
0.51152
2.79371e-06
0.511522
2.9278e-06
0.511524
2.91253e-06
0.511527
2.76853e-06
0.511529
2.62878e-06
0.511533
2.38173e-06
0.511536
2.01365e-06
0.51154
1.85153e-06
0.511544
2.16572e-06
0.511548
2.72687e-06
0.51155
2.99967e-06
0.511553
3.00668e-06
0.511555
3.15209e-06
0.511557
3.1877e-06
0.511559
2.79907e-06
0.511562
2.31446e-06
0.511566
1.99641e-06
0.511569
1.90787e-06
0.511573
2.16873e-06
0.511576
2.64057e-06
0.511579
2.93419e-06
0.511581
2.84483e-06
0.511584
2.54416e-06
0.511587
2.33294e-06
0.51159
2.37411e-06
0.511593
2.5395e-06
0.511596
2.70075e-06
0.511598
2.86855e-06
0.511601
2.82942e-06
0.511603
2.53448e-06
0.511607
2.27311e-06
0.51161
2.19797e-06
0.511613
2.23126e-06
0.511617
2.28715e-06
0.51162
2.42841e-06
0.511623
2.69738e-06
0.511625
2.92231e-06
0.511627
2.81909e-06
0.51163
2.49729e-06
0.511633
2.33418e-06
0.511636
2.31125e-06
0.511639
2.16125e-06
0.511643
1.93603e-06
0.511647
1.9675e-06
0.511651
2.27933e-06
0.511654
2.47297e-06
0.511656
2.51258e-06
0.511659
2.59907e-06
0.511662
2.63438e-06
0.511664
2.47402e-06
0.511667
2.07311e-06
0.511671
1.75622e-06
0.511674
1.89551e-06
0.511678
2.21642e-06
0.511681
2.37503e-06
0.511685
2.50558e-06
0.511688
2.63254e-06
0.51169
2.61788e-06
0.511693
2.54885e-06
0.511696
2.47506e-06
0.511699
2.38105e-06
0.511702
2.44349e-06
0.511705
2.59113e-06
0.511707
2.62265e-06
0.51171
2.66509e-06
0.511713
2.68649e-06
0.511716
2.44984e-06
0.51172
2.13376e-06
0.511724
2.14253e-06
0.511727
2.49935e-06
0.51173
2.91821e-06
0.511731
3.14462e-06
0.511733
3.05033e-06
0.511735
2.74538e-06
0.511738
2.35624e-06
0.511741
1.98668e-06
0.511745
1.84428e-06
0.511749
1.9794e-06
0.511753
2.24133e-06
0.511756
2.46677e-06
0.511759
2.57435e-06
0.511762
2.59812e-06
0.511765
2.55151e-06
0.511768
2.479e-06
0.511771
2.43632e-06
0.511774
2.40408e-06
0.511777
2.53013e-06
0.51178
2.81183e-06
0.511782
2.89269e-06
0.511785
2.71897e-06
0.511789
2.61091e-06
0.511792
2.65459e-06
0.511796
2.69531e-06
0.511799
2.67735e-06
0.511802
2.62802e-06
0.511804
2.61394e-06
0.511807
2.68223e-06
0.511809
2.70509e-06
0.511812
2.55862e-06
0.511815
2.38055e-06
0.511818
2.24539e-06
0.511822
2.184e-06
0.511825
2.31304e-06
0.511828
2.5121e-06
0.511831
2.5487e-06
0.511834
2.63618e-06
0.511836
2.84462e-06
0.511838
2.87729e-06
0.511841
2.67287e-06
0.511844
2.27239e-06
0.511847
1.96568e-06
0.51185
2.06289e-06
0.511853
2.32343e-06
0.511856
2.47983e-06
0.511858
2.68343e-06
0.511861
2.81121e-06
0.511864
2.7056e-06
2.80634e-06
0.511125
7.03872e-08
0.511125
4.54059e-07
0.511126
1.08823e-06
0.511127
1.96537e-06
0.511127
2.32399e-06
0.511128
1.98785e-06
0.511128
2.00547e-06
0.511128
2.3536e-06
0.511128
2.60953e-06
0.511127
2.62314e-06
0.511128
2.05296e-06
0.511129
1.45284e-06
0.511129
1.45391e-06
0.51113
1.65274e-06
0.51113
1.91645e-06
0.51113
2.27325e-06
0.511131
2.2598e-06
0.51113
2.193e-06
0.51113
2.31466e-06
0.511131
2.19697e-06
0.511131
2.23481e-06
0.511131
2.59172e-06
0.511131
2.57913e-06
0.511131
2.5202e-06
0.511131
2.51073e-06
0.511132
2.14516e-06
0.511133
2.06975e-06
0.511133
2.51261e-06
0.511133
2.73013e-06
0.511133
2.57985e-06
0.511133
2.25412e-06
0.511133
1.80529e-06
0.511134
1.56516e-06
0.511134
1.74463e-06
0.511135
1.89659e-06
0.511136
2.09402e-06
0.511136
2.56322e-06
0.511136
2.69087e-06
0.511136
2.42107e-06
0.511136
2.14657e-06
0.511136
1.91917e-06
0.511137
2.02774e-06
0.511137
2.32963e-06
0.511136
2.45854e-06
0.511136
2.7327e-06
0.511136
2.82859e-06
0.511136
2.42098e-06
0.511136
2.20753e-06
0.511137
2.24763e-06
0.511137
2.39306e-06
0.511138
2.77888e-06
0.511137
2.93714e-06
0.511137
2.71932e-06
0.511138
2.40507e-06
0.511138
1.98026e-06
0.511139
1.7255e-06
0.511139
1.84315e-06
0.511139
2.096e-06
0.511139
2.25738e-06
0.511139
2.40429e-06
0.511139
2.74023e-06
0.511139
2.77771e-06
0.51114
2.38333e-06
0.51114
2.32519e-06
0.51114
2.42825e-06
0.51114
2.26501e-06
0.511141
2.14711e-06
0.511141
2.12596e-06
0.511141
2.15129e-06
0.511141
2.23662e-06
0.511141
2.27912e-06
0.511142
2.31985e-06
0.511143
2.28055e-06
0.511143
2.01369e-06
0.511144
1.73916e-06
0.511144
1.63628e-06
0.511145
1.60643e-06
0.511145
1.73591e-06
0.511145
2.09599e-06
0.511145
2.56466e-06
0.511145
2.8732e-06
0.511145
2.70032e-06
0.511145
2.32777e-06
0.511145
2.16085e-06
0.511145
2.10055e-06
0.511145
2.16402e-06
0.511146
2.23364e-06
0.511146
2.15722e-06
0.511147
2.2981e-06
0.511147
2.60206e-06
0.511147
2.62229e-06
0.511147
2.35601e-06
0.511147
2.14508e-06
0.511147
2.37912e-06
0.511147
2.85586e-06
0.511147
2.98568e-06
0.511147
2.82757e-06
0.511147
2.65878e-06
0.511147
2.48716e-06
0.511148
2.47555e-06
0.511148
2.59448e-06
0.511148
2.60985e-06
0.511148
2.5833e-06
0.511148
2.43032e-06
0.511148
2.13348e-06
0.511149
2.02267e-06
0.511149
1.8293e-06
0.51115
1.36125e-06
0.51115
1.23257e-06
0.511151
1.55864e-06
0.511151
1.93021e-06
0.511151
2.07452e-06
0.511152
1.93451e-06
0.511152
1.92496e-06
0.511153
2.2368e-06
0.511153
2.46032e-06
0.511153
2.39404e-06
0.511153
1.98367e-06
0.511153
1.49867e-06
0.511154
1.53913e-06
0.511155
1.92998e-06
0.511155
2.20245e-06
0.511156
2.3842e-06
0.511156
2.4199e-06
0.511156
2.38088e-06
0.511156
2.4682e-06
0.511156
2.48958e-06
0.511156
2.43448e-06
0.511156
2.4436e-06
0.511156
2.34275e-06
0.511156
2.21873e-06
0.511157
2.22668e-06
0.511158
2.23491e-06
0.511158
2.30561e-06
0.511159
2.42121e-06
0.511159
2.34532e-06
0.51116
2.17756e-06
0.51116
2.14962e-06
0.51116
2.23278e-06
0.511159
2.31239e-06
0.511159
2.32877e-06
0.511159
2.2831e-06
0.51116
2.34172e-06
0.51116
2.58497e-06
0.511161
2.73414e-06
0.511161
2.64586e-06
0.511162
2.495e-06
0.511162
2.30005e-06
0.511162
2.1548e-06
0.511161
2.32465e-06
0.511161
2.5511e-06
0.511161
2.57409e-06
0.511161
2.56993e-06
0.511162
2.43041e-06
0.511162
2.16136e-06
0.511162
2.1385e-06
0.511162
2.28903e-06
0.511163
2.30379e-06
0.511163
2.27558e-06
0.511163
2.39761e-06
0.511164
2.47341e-06
0.511164
2.36234e-06
0.511164
2.2415e-06
0.511164
2.2137e-06
0.511164
2.26931e-06
0.511164
2.33302e-06
0.511164
2.16392e-06
0.511165
1.78956e-06
0.511166
1.70175e-06
0.511167
2.11935e-06
0.511167
2.49916e-06
0.511167
2.52768e-06
0.511167
2.49319e-06
0.511166
2.55473e-06
0.511166
2.46222e-06
0.511166
2.05069e-06
0.511166
1.62316e-06
0.511167
1.45763e-06
0.511168
1.47076e-06
0.511169
1.48879e-06
0.51117
1.63048e-06
0.511171
2.01497e-06
0.511171
2.24144e-06
0.51117
2.16202e-06
0.51117
2.16682e-06
0.51117
2.13758e-06
0.511171
1.87609e-06
0.511171
1.67514e-06
0.511172
1.74059e-06
0.511173
2.07425e-06
0.511173
2.42847e-06
0.511173
2.44462e-06
0.511173
2.1568e-06
0.511174
1.94071e-06
0.511174
2.0595e-06
0.511175
2.36187e-06
0.511175
2.51232e-06
0.511175
2.48854e-06
0.511175
2.44902e-06
0.511175
2.37094e-06
0.511175
2.24373e-06
0.511175
2.17458e-06
0.511176
2.21447e-06
0.511176
2.3112e-06
0.511177
2.27197e-06
0.511178
2.05613e-06
0.511178
1.94502e-06
0.511178
2.09545e-06
0.511178
2.29297e-06
0.511177
2.31641e-06
0.511177
2.26323e-06
0.511178
2.24389e-06
0.511178
2.16239e-06
0.511179
2.08097e-06
0.511179
2.06914e-06
0.511179
2.08811e-06
0.51118
2.2325e-06
0.51118
2.462e-06
0.511179
2.66426e-06
0.511179
2.83572e-06
0.511179
2.89856e-06
0.511179
2.82451e-06
0.511179
2.6785e-06
0.511179
2.53582e-06
0.51118
2.47698e-06
0.51118
2.43822e-06
0.51118
2.40576e-06
0.51118
2.48946e-06
0.51118
2.53284e-06
0.511181
2.40378e-06
0.511181
2.2531e-06
0.511181
2.07076e-06
0.511182
1.86794e-06
0.511182
1.83196e-06
0.511182
1.97125e-06
0.511183
2.21106e-06
0.511183
2.3364e-06
0.511183
2.28602e-06
0.511184
2.40879e-06
0.511184
2.63122e-06
0.511184
2.4562e-06
0.511184
1.94343e-06
0.511185
1.56942e-06
0.511185
1.61995e-06
0.511186
1.85282e-06
0.511186
1.98928e-06
0.511187
2.08046e-06
0.511187
2.22095e-06
0.511188
2.37367e-06
2.4094e-06
0.511125
7.66937e-08
0.511125
6.44106e-07
0.511125
1.03249e-06
0.511126
1.11059e-06
0.511127
1.12168e-06
0.511128
1.54939e-06
0.511128
1.93698e-06
0.511128
1.80621e-06
0.511129
1.74466e-06
0.51113
1.97563e-06
0.51113
2.16166e-06
0.511129
2.09505e-06
0.511129
1.917e-06
0.511129
1.82885e-06
0.511129
1.84911e-06
0.511129
1.78014e-06
0.511129
1.87111e-06
0.51113
2.04673e-06
0.51113
2.01092e-06
0.51113
1.96582e-06
0.51113
2.10466e-06
0.511131
2.05772e-06
0.511132
1.88226e-06
0.511132
1.84854e-06
0.511133
1.9294e-06
0.511133
2.09317e-06
0.511133
1.99933e-06
0.511133
1.89684e-06
0.511134
2.12785e-06
0.511135
2.15617e-06
0.511135
2.00594e-06
0.511135
2.02239e-06
0.511134
2.00853e-06
0.511134
2.09129e-06
0.511133
2.29654e-06
0.511133
2.34293e-06
0.511134
2.12681e-06
0.511134
1.86804e-06
0.511135
1.83918e-06
0.511135
1.87248e-06
0.511135
1.76768e-06
0.511136
1.53498e-06
0.511137
1.52555e-06
0.511137
1.92237e-06
0.511138
2.29506e-06
0.511138
2.57499e-06
0.511138
2.68625e-06
0.511138
2.30965e-06
0.511138
2.07772e-06
0.511138
2.2656e-06
0.511138
2.38058e-06
0.511139
2.52897e-06
0.511139
2.68421e-06
0.511139
2.52732e-06
0.511138
2.1227e-06
0.511138
1.79473e-06
0.511138
1.86264e-06
0.511138
2.00979e-06
0.511139
2.10131e-06
0.511139
2.31077e-06
0.511139
2.41267e-06
0.511139
2.46428e-06
0.511139
2.41607e-06
0.511139
2.10444e-06
0.51114
1.9024e-06
0.51114
1.82591e-06
0.511141
1.74726e-06
0.511141
1.85233e-06
0.511141
1.93133e-06
0.511142
1.91949e-06
0.511142
2.01291e-06
0.511142
2.10991e-06
0.511142
2.14659e-06
0.511142
1.93399e-06
0.511143
1.40419e-06
0.511143
1.19984e-06
0.511143
1.51442e-06
0.511143
1.80717e-06
0.511143
2.03343e-06
0.511144
2.21009e-06
0.511144
1.98908e-06
0.511145
1.68949e-06
0.511146
1.79855e-06
0.511146
2.00716e-06
0.511146
2.03497e-06
0.511146
1.95448e-06
0.511147
1.74479e-06
0.511147
1.58794e-06
0.511148
1.79036e-06
0.511148
2.21851e-06
0.511148
2.49651e-06
0.511149
2.34911e-06
0.511149
2.10815e-06
0.511149
2.24507e-06
0.511149
2.45782e-06
0.511149
2.56598e-06
0.51115
2.76394e-06
0.511149
2.79249e-06
0.511149
2.6077e-06
0.511149
2.44371e-06
0.51115
2.27888e-06
0.51115
2.24704e-06
0.51115
2.30458e-06
0.511151
2.12897e-06
0.511151
1.88555e-06
0.511151
1.70376e-06
0.511152
1.47276e-06
0.511152
1.35308e-06
0.511151
1.32479e-06
0.511152
1.29392e-06
0.511152
1.31223e-06
0.511153
1.32848e-06
0.511153
1.49634e-06
0.511154
1.77308e-06
0.511154
1.80662e-06
0.511155
1.73397e-06
0.511155
1.80688e-06
0.511155
1.94244e-06
0.511155
2.00773e-06
0.511155
1.92618e-06
0.511155
1.91401e-06
0.511155
2.09656e-06
0.511155
2.19905e-06
0.511155
2.18258e-06
0.511155
2.12093e-06
0.511156
2.00336e-06
0.511156
2.00611e-06
0.511157
2.17297e-06
0.511157
2.33707e-06
0.511157
2.4174e-06
0.511156
2.40767e-06
0.511156
2.36034e-06
0.511156
2.28414e-06
0.511156
2.18786e-06
0.511157
2.10011e-06
0.511157
1.97035e-06
0.511157
1.75199e-06
0.511158
1.65203e-06
0.511158
1.86976e-06
0.511158
2.23484e-06
0.511158
2.44699e-06
0.511158
2.38712e-06
0.511158
2.16062e-06
0.511159
1.96961e-06
0.51116
2.04682e-06
0.51116
2.2807e-06
0.51116
2.16687e-06
0.511161
1.8775e-06
0.511161
2.0152e-06
0.511161
2.35508e-06
0.511161
2.43801e-06
0.511161
2.31356e-06
0.511162
2.16997e-06
0.511162
2.16727e-06
0.511162
2.28023e-06
0.511162
2.27705e-06
0.511162
2.26407e-06
0.511162
2.30391e-06
0.511162
2.05261e-06
0.511162
1.80526e-06
0.511163
1.96174e-06
0.511163
2.1089e-06
0.511163
2.05204e-06
0.511164
2.03182e-06
0.511164
2.07303e-06
0.511164
2.12429e-06
0.511164
2.12371e-06
0.511164
1.96988e-06
0.511164
1.64595e-06
0.511165
1.49677e-06
0.511165
1.75994e-06
0.511166
2.04688e-06
0.511166
2.00025e-06
0.511167
1.80929e-06
0.511168
1.72173e-06
0.511168
1.71252e-06
0.511168
1.70764e-06
0.511168
1.61363e-06
0.511168
1.44397e-06
0.511168
1.30037e-06
0.511169
1.09992e-06
0.51117
1.02344e-06
0.511171
1.30966e-06
0.511171
1.62892e-06
0.511171
1.80251e-06
0.511172
1.96338e-06
0.511172
1.96914e-06
0.511171
1.7829e-06
0.511171
1.69099e-06
0.511172
1.77692e-06
0.511172
1.86921e-06
0.511173
1.92922e-06
0.511173
1.92097e-06
0.511173
1.78225e-06
0.511173
1.79556e-06
0.511174
2.04919e-06
0.511174
2.17446e-06
0.511174
2.12756e-06
0.511175
2.16371e-06
0.511175
2.24574e-06
0.511175
2.24008e-06
0.511175
2.15246e-06
0.511175
2.03027e-06
0.511175
1.93345e-06
0.511176
1.8047e-06
0.511176
1.6248e-06
0.511177
1.59549e-06
0.511177
1.74492e-06
0.511177
1.90244e-06
0.511178
1.98834e-06
0.511178
2.05007e-06
0.511178
2.06334e-06
0.511178
1.94243e-06
0.511179
1.80887e-06
0.511179
1.82102e-06
0.511179
1.97534e-06
0.511179
2.23222e-06
0.511179
2.39373e-06
0.511179
2.38326e-06
0.51118
2.46572e-06
0.51118
2.64298e-06
0.51118
2.70706e-06
0.51118
2.7039e-06
0.51118
2.67139e-06
0.51118
2.50428e-06
0.51118
2.28475e-06
0.51118
2.22769e-06
0.51118
2.30994e-06
0.511181
2.28466e-06
0.511181
2.09188e-06
0.511181
1.93771e-06
0.511181
1.93842e-06
0.511181
1.99545e-06
0.511181
1.96741e-06
0.511181
1.87344e-06
0.511182
1.91785e-06
0.511182
2.09575e-06
0.511182
2.20745e-06
0.511182
2.18005e-06
0.511183
1.92676e-06
0.511184
1.67364e-06
0.511184
1.74471e-06
0.511184
1.8534e-06
0.511183
1.70693e-06
0.511184
1.63296e-06
0.511184
1.93243e-06
0.511184
2.27212e-06
0.511183
2.36649e-06
0.511184
2.25649e-06
2.06866e-06
0.511126
2.78556e-08
0.511126
3.95846e-07
0.511126
7.07864e-07
0.511127
8.31814e-07
0.511126
1.44041e-06
0.511126
1.94644e-06
0.511126
1.70332e-06
0.511126
1.49914e-06
0.511127
1.65952e-06
0.511127
1.79775e-06
0.511127
1.68467e-06
0.511128
1.47839e-06
0.511128
1.50826e-06
0.511128
1.72141e-06
0.511128
1.71959e-06
0.511129
1.38433e-06
0.511129
1.23263e-06
0.51113
1.63221e-06
0.51113
2.03584e-06
0.51113
1.97881e-06
0.51113
1.65692e-06
0.511131
1.48596e-06
0.511131
1.71501e-06
0.511131
1.99713e-06
0.511131
1.86981e-06
0.511131
1.86069e-06
0.511131
2.07325e-06
0.511131
1.79397e-06
0.511132
1.46989e-06
0.511132
1.76697e-06
0.511132
1.98109e-06
0.511133
1.58537e-06
0.511133
1.45609e-06
0.511133
1.96414e-06
0.511133
2.25716e-06
0.511134
2.01262e-06
0.511134
1.81046e-06
0.511134
1.82757e-06
0.511134
1.59453e-06
0.511135
1.25485e-06
0.511136
1.15686e-06
0.511136
1.29586e-06
0.511136
1.68878e-06
0.511136
1.99893e-06
0.511136
2.03759e-06
0.511136
2.00988e-06
0.511137
1.79565e-06
0.511138
1.68022e-06
0.511138
1.87124e-06
0.511138
2.13063e-06
0.511138
2.51337e-06
0.511138
2.74255e-06
0.511138
2.57146e-06
0.511138
2.22563e-06
0.511139
1.8515e-06
0.511139
1.71631e-06
0.511139
1.71168e-06
0.511139
1.75749e-06
0.511139
2.11481e-06
0.511139
2.36152e-06
0.511139
2.18423e-06
0.51114
1.81237e-06
0.511141
1.61156e-06
0.511141
1.96336e-06
0.511141
2.24613e-06
0.51114
1.98702e-06
0.51114
1.64767e-06
0.511141
1.28417e-06
0.511142
1.2414e-06
0.511142
1.72624e-06
0.511142
2.05109e-06
0.511142
1.97852e-06
0.511142
1.71993e-06
0.511143
1.6005e-06
0.511143
1.65653e-06
0.511142
1.50667e-06
0.511142
1.40151e-06
0.511142
1.63268e-06
0.511143
1.79145e-06
0.511143
1.71858e-06
0.511144
1.55881e-06
0.511144
1.32218e-06
0.511145
1.25891e-06
0.511145
1.50329e-06
0.511145
1.60009e-06
0.511146
1.52463e-06
0.511146
1.70701e-06
0.511146
1.92469e-06
0.511145
1.95111e-06
0.511146
2.07484e-06
0.511146
2.19168e-06
0.511146
2.06032e-06
0.511146
2.0841e-06
0.511146
2.48562e-06
0.511146
2.65944e-06
0.511146
2.44806e-06
0.511146
2.31846e-06
0.511147
2.30722e-06
0.511147
2.31133e-06
0.511147
2.34533e-06
0.511147
2.32246e-06
0.511147
2.13829e-06
0.511148
1.93236e-06
0.511148
1.88418e-06
0.511148
1.6212e-06
0.511149
1.08933e-06
0.511149
9.12623e-07
0.51115
1.03055e-06
0.51115
9.98343e-07
0.51115
9.73798e-07
0.511151
1.05575e-06
0.511151
1.08067e-06
0.511151
1.14736e-06
0.511152
1.33389e-06
0.511152
1.42283e-06
0.511152
1.32533e-06
0.511153
1.21047e-06
0.511154
1.20873e-06
0.511154
1.50406e-06
0.511154
1.96017e-06
0.511154
2.04715e-06
0.511154
1.80527e-06
0.511155
1.80657e-06
0.511155
2.00181e-06
0.511155
1.96674e-06
0.511155
1.81828e-06
0.511155
1.84257e-06
0.511156
1.93785e-06
0.511156
1.99627e-06
0.511156
2.04431e-06
0.511157
2.03787e-06
0.511157
1.95795e-06
0.511158
1.93784e-06
0.511158
2.02614e-06
0.511158
2.11628e-06
0.511158
2.06936e-06
0.511158
1.76715e-06
0.511158
1.55865e-06
0.511158
1.79712e-06
0.511158
2.02513e-06
0.511158
1.9407e-06
0.511159
1.8579e-06
0.511159
1.92576e-06
0.511159
2.00254e-06
0.511159
1.92536e-06
0.51116
1.73381e-06
0.51116
1.59693e-06
0.511161
1.62399e-06
0.511161
1.89892e-06
0.511161
2.27707e-06
0.511161
2.48158e-06
0.511161
2.35251e-06
0.511161
2.03904e-06
0.511161
1.81654e-06
0.511162
1.77678e-06
0.511162
1.78823e-06
0.511163
1.75158e-06
0.511163
1.80705e-06
0.511163
1.92209e-06
0.511163
1.87815e-06
0.511163
1.75809e-06
0.511164
1.71652e-06
0.511164
1.75552e-06
0.511164
1.75998e-06
0.511165
1.68025e-06
0.511165
1.63484e-06
0.511166
1.68117e-06
0.511166
1.765e-06
0.511166
1.76298e-06
0.511166
1.67539e-06
0.511166
1.65426e-06
0.511166
1.62774e-06
0.511167
1.52745e-06
0.511167
1.46947e-06
0.511167
1.42963e-06
0.511168
1.28556e-06
0.511168
1.10913e-06
0.511169
1.11202e-06
0.511169
1.31168e-06
0.511169
1.37569e-06
0.511169
1.07859e-06
0.511169
8.21694e-07
0.511169
9.8973e-07
0.51117
1.2836e-06
0.51117
1.42046e-06
0.511171
1.50951e-06
0.511171
1.64088e-06
0.511171
1.73801e-06
0.511171
1.67775e-06
0.511171
1.53493e-06
0.511172
1.41536e-06
0.511172
1.37454e-06
0.511173
1.54428e-06
0.511173
1.86992e-06
0.511172
2.159e-06
0.511172
2.28417e-06
0.511172
2.09122e-06
0.511172
1.67713e-06
0.511173
1.40908e-06
0.511174
1.41656e-06
0.511175
1.59507e-06
0.511175
1.78773e-06
0.511175
1.86399e-06
0.511175
1.87145e-06
0.511175
1.79158e-06
0.511175
1.57531e-06
0.511176
1.45105e-06
0.511176
1.55418e-06
0.511176
1.72609e-06
0.511176
1.76989e-06
0.511176
1.73014e-06
0.511177
1.78106e-06
0.511177
1.79721e-06
0.511177
1.66385e-06
0.511177
1.54983e-06
0.511178
1.61237e-06
0.511178
1.95805e-06
0.511178
2.39106e-06
0.511178
2.5665e-06
0.511178
2.54872e-06
0.511178
2.52954e-06
0.511178
2.49677e-06
0.511178
2.37934e-06
0.511179
2.17803e-06
0.511179
2.06708e-06
0.511179
2.18079e-06
0.511179
2.3158e-06
0.511179
2.23529e-06
0.51118
2.06041e-06
0.51118
1.90563e-06
0.51118
1.77897e-06
0.51118
1.76127e-06
0.51118
1.81799e-06
0.51118
1.80488e-06
0.511181
1.63379e-06
0.511181
1.50042e-06
0.511181
1.72657e-06
0.511182
2.05348e-06
0.511182
1.97417e-06
0.511182
1.6261e-06
0.511182
1.40175e-06
0.511183
1.27481e-06
0.511184
1.16342e-06
0.511184
1.19694e-06
0.511184
1.39304e-06
0.511185
1.69788e-06
0.511185
2.01253e-06
0.511185
2.10692e-06
0.511185
2.01869e-06
1.79002e-06
0.511125
4.64515e-08
0.511125
3.08669e-07
0.511125
5.65481e-07
0.511125
9.23417e-07
0.511126
1.23242e-06
0.511126
1.13944e-06
0.511127
9.07586e-07
0.511128
1.04274e-06
0.511128
1.29576e-06
0.511129
1.1151e-06
0.511129
1.32582e-06
0.511128
2.03775e-06
0.511128
2.10143e-06
0.511128
1.57395e-06
0.511128
1.25066e-06
0.511129
1.04474e-06
0.511129
1.10553e-06
0.511129
1.19654e-06
0.51113
1.26935e-06
0.511131
1.3114e-06
0.511131
1.42392e-06
0.511131
1.72796e-06
0.511131
1.66501e-06
0.511131
1.61029e-06
0.511131
1.71517e-06
0.511132
1.59162e-06
0.511132
1.40284e-06
0.511133
1.23634e-06
0.511133
1.18359e-06
0.511134
1.21732e-06
0.511135
1.20495e-06
0.511135
1.33474e-06
0.511135
1.63095e-06
0.511135
1.98244e-06
0.511135
2.04198e-06
0.511135
1.72911e-06
0.511135
1.5713e-06
0.511136
1.56617e-06
0.511136
1.44214e-06
0.511136
1.27709e-06
0.511136
1.2079e-06
0.511136
1.34356e-06
0.511136
1.46459e-06
0.511136
1.61518e-06
0.511136
1.78796e-06
0.511137
1.65443e-06
0.511137
1.63794e-06
0.511137
1.91378e-06
0.511137
1.99531e-06
0.511137
2.00786e-06
0.511137
2.15481e-06
0.511138
2.34043e-06
0.511138
2.29989e-06
0.511138
2.05142e-06
0.511138
1.76535e-06
0.511138
1.40937e-06
0.511139
1.28475e-06
0.511139
1.4941e-06
0.511139
1.76118e-06
0.51114
1.84366e-06
0.51114
1.58862e-06
0.511141
1.48325e-06
0.511141
1.60609e-06
0.511141
1.53764e-06
0.511142
1.58579e-06
0.511142
1.67007e-06
0.511142
1.5567e-06
0.511142
1.62244e-06
0.511142
1.71911e-06
0.511141
1.86034e-06
0.511141
2.10265e-06
0.511141
1.81978e-06
0.511142
1.33863e-06
0.511142
1.3178e-06
0.511143
1.27145e-06
0.511143
1.1876e-06
0.511143
1.42672e-06
0.511143
1.50762e-06
0.511143
1.35158e-06
0.511144
1.19181e-06
0.511145
9.28692e-07
0.511145
8.51115e-07
0.511145
9.93666e-07
0.511146
9.91636e-07
0.511146
1.01071e-06
0.511147
1.1366e-06
0.511147
1.22176e-06
0.511148
1.48486e-06
0.511148
1.81702e-06
0.511148
1.82656e-06
0.511148
1.86911e-06
0.511148
2.19658e-06
0.511148
2.26506e-06
0.511148
2.17406e-06
0.511149
2.42496e-06
0.511148
2.68932e-06
0.511148
2.51412e-06
0.511148
2.17763e-06
0.511149
2.05782e-06
0.511149
2.09725e-06
0.511149
2.05128e-06
0.511149
1.92237e-06
0.511149
1.85048e-06
0.51115
1.72968e-06
0.51115
1.37727e-06
0.51115
9.46204e-07
0.51115
6.66531e-07
0.511151
6.00258e-07
0.511151
6.10948e-07
0.511151
5.28274e-07
0.511152
5.73644e-07
0.511152
9.08363e-07
0.511152
1.20082e-06
0.511152
1.31392e-06
0.511152
1.27758e-06
0.511153
9.95961e-07
0.511153
7.46692e-07
0.511153
9.95446e-07
0.511153
1.41843e-06
0.511154
1.63513e-06
0.511154
1.79578e-06
0.511154
1.80281e-06
0.511154
1.60431e-06
0.511155
1.57179e-06
0.511155
1.65519e-06
0.511155
1.62818e-06
0.511155
1.58628e-06
0.511156
1.6207e-06
0.511156
1.85917e-06
0.511156
2.08247e-06
0.511156
1.9651e-06
0.511156
1.76207e-06
0.511156
1.67915e-06
0.511157
1.60551e-06
0.511157
1.57114e-06
0.511158
1.67701e-06
0.511157
1.85337e-06
0.511157
1.90402e-06
0.511157
1.86989e-06
0.511157
1.88508e-06
0.511157
1.73609e-06
0.511158
1.33127e-06
0.511159
1.077e-06
0.51116
1.126e-06
0.51116
1.2131e-06
0.511161
1.36213e-06
0.511161
1.6357e-06
0.51116
1.92787e-06
0.51116
2.17101e-06
0.51116