/*--------------------------------*- C++ -*----------------------------------*\
| =========                 |                                                 |
| \\      /  F ield         | OpenFOAM: The Open Source CFD Toolbox           |
|  \\    /   O peration     | Version:  2406                                  |
|   \\  /    A nd           | Website:  www.openfoam.com                      |
|    \\/     M anipulation  |                                                 |
\*---------------------------------------------------------------------------*/
FoamFile
{
    version     2.0;
    format      ascii;
    arch        "LSB;label=32;scalar=64";
    class       volScalarField;
    location    "1.9";
    object      p;
}
// * * * * * * * * * * * * * * * * * * * * * * * * * * * * * * * * * * * * * //

dimensions      [1 -1 -2 0 0 0 0];

internalField   nonuniform List<scalar> 
6250
(
-3.19015
-3226.58
-1037.54
539.446
494.806
25.6974
-134.987
-57.679
18.7828
25.1591
5.01082
-4.577
-2.29992
1.39894
2.14017
1.32933
0.797065
0.83187
1.00171
1.05444
1.02266
0.992926
0.986498
0.991276
0.991968
0.982041
0.981996
0.989775
0.98932
0.984967
0.977186
0.966742
0.962553
0.961071
0.955215
0.950666
0.950664
0.945202
0.933458
0.926095
0.921197
0.917646
0.918862
0.917969
0.91193
0.903335
0.892291
0.881379
0.875056
0.872474
0.870423
0.868242
0.863213
0.860314
0.862873
0.860274
0.855949
0.855264
0.851786
0.846673
0.840768
0.834381
0.829068
0.825719
0.824403
0.819992
0.813614
0.808019
0.801689
0.795584
0.791218
0.78755
0.783219
0.781108
0.778139
0.772471
0.767752
0.758505
0.746268
0.738177
0.732923
0.727995
0.723393
0.719988
0.712864
0.703576
0.699625
0.697401
0.694369
0.691125
0.687807
0.685619
0.680448
0.672252
0.665109
0.659129
0.653557
0.646549
0.63902
0.634075
0.631531
0.630947
0.631742
0.630724
0.628944
0.628715
0.622668
0.613492
0.612402
0.61071
0.60282
0.597115
0.591981
0.584701
0.579857
0.577904
0.575944
0.574914
0.575825
0.576291
0.574565
0.570954
0.566919
0.563088
0.560622
0.558854
0.554066
0.549063
0.546795
0.544357
0.543816
0.546934
0.550318
0.55352
0.554851
0.55026
0.542136
0.535133
0.528601
0.522584
0.521068
0.522071
0.518801
0.510326
0.500246
0.492106
0.485667
0.478006
0.470347
0.46504
0.45903
0.448973
0.439711
0.433731
0.429209
0.429115
0.429005
0.425527
0.42278
0.417717
0.409978
0.399889
0.388747
0.382327
0.376387
0.36969
0.365451
0.361207
0.357533
0.352785
0.344883
0.338517
0.335242
0.330763
0.325759
0.324346
0.322935
0.318187
0.314368
0.315872
0.320191
0.322448
0.323343
0.320746
0.313129
0.304159
0.293371
0.284296
0.281164
0.280458
0.279345
0.2767
0.274518
0.273298
0.271092
0.271708
0.274103
0.273128
0.269261
0.260877
0.25197
0.25004
0.248123
0.244
0.243703
0.241705
0.236103
0.2298
0.22112
0.211976
0.204187
0.199825
0.196891
0.190011
0.18426
0.180552
0.174368
0.168996
0.164429
0.161159
0.161989
0.161321
0.157277
0.15354
0.146443
0.134602
0.123168
0.113232
0.106319
0.102762
0.0982717
0.0921095
0.0829688
0.0725528
0.0657948
0.0615774
0.0585697
0.0522333
0.0434313
0.0413853
0.0413892
0.0371267
0.0321199
0.027452
0.0214535
0.0122734
0.0029383
-9.48815e-05
0.00393995
-0.00149067
-3.22239
-3226.65
-1037.57
539.462
494.83
25.7023
-134.996
-57.6883
18.7773
25.1566
5.00928
-4.58032
-2.30523
1.39478
2.14052
1.33384
0.805082
0.834759
0.9948
1.04923
1.02307
0.992976
0.984756
0.98682
0.990782
0.987224
0.98154
0.984282
0.988796
0.987148
0.978011
0.9679
0.964749
0.962087
0.954194
0.94652
0.943594
0.942
0.936299
0.927945
0.919451
0.918072
0.924406
0.922167
0.91123
0.902159
0.891194
0.879081
0.874601
0.873591
0.869244
0.866927
0.863143
0.857768
0.861348
0.86257
0.856827
0.855411
0.851737
0.844521
0.840671
0.835903
0.829319
0.827151
0.827073
0.822715
0.815456
0.805508
0.794694
0.787156
0.785758
0.789754
0.788962
0.785794
0.784922
0.779209
0.769009
0.755049
0.742642
0.73548
0.728701
0.723544
0.720394
0.720173
0.716542
0.705057
0.699925
0.700028
0.69567
0.691699
0.688603
0.683338
0.677972
0.67398
0.667428
0.657654
0.649722
0.643492
0.639468
0.637585
0.634289
0.631694
0.630817
0.628029
0.624354
0.624678
0.624667
0.619901
0.617518
0.614609
0.604596
0.593369
0.584361
0.57848
0.5766
0.576815
0.579011
0.580762
0.578564
0.576201
0.576217
0.573695
0.567781
0.561538
0.556471
0.553559
0.550234
0.547174
0.547271
0.546899
0.54563
0.546797
0.550674
0.556874
0.56001
0.553476
0.540827
0.530363
0.524661
0.521006
0.51905
0.520018
0.519798
0.514043
0.504895
0.496059
0.486902
0.477526
0.470294
0.463433
0.454918
0.445124
0.437804
0.434913
0.431612
0.430306
0.430832
0.427164
0.422305
0.416062
0.409053
0.40148
0.38941
0.379271
0.372712
0.367806
0.365908
0.362517
0.358958
0.356048
0.34829
0.33799
0.332041
0.329249
0.324383
0.320745
0.321974
0.32245
0.318002
0.315117
0.318346
0.32205
0.324477
0.323011
0.313953
0.303725
0.29288
0.281497
0.277133
0.278494
0.28029
0.279269
0.276156
0.274778
0.273541
0.272971
0.272505
0.267427
0.262614
0.259817
0.254784
0.252876
0.253224
0.250542
0.24751
0.241004
0.23123
0.223645
0.217231
0.211558
0.204756
0.199271
0.197176
0.190607
0.184163
0.181872
0.174974
0.16819
0.166381
0.163489
0.160054
0.157104
0.153853
0.15203
0.145976
0.134262
0.127141
0.123363
0.116056
0.10561
0.0933513
0.0852017
0.0784922
0.0677669
0.0617192
0.060251
0.0586218
0.0555736
0.0476662
0.0416674
0.04075
0.0382172
0.0322972
0.0257063
0.0206106
0.0141569
0.00545853
0.00172845
0.000938542
0.00125585
-3.22365
-3226.63
-1037.56
539.466
494.829
25.7017
-134.992
-57.6829
18.7813
25.1626
5.01633
-4.57672
-2.30118
1.39508
2.13464
1.32947
0.802844
0.836029
1.00331
1.05762
1.02094
0.983941
0.98184
0.992426
0.995049
0.988514
0.985028
0.986953
0.984705
0.98279
0.979536
0.970552
0.965507
0.963225
0.958474
0.952096
0.944675
0.93834
0.932777
0.927585
0.921572
0.918772
0.92136
0.918358
0.91121
0.905506
0.894301
0.88052
0.874004
0.872846
0.869275
0.865697
0.864205
0.861422
0.861224
0.859728
0.856332
0.858088
0.855454
0.846661
0.840239
0.834453
0.829855
0.828518
0.825709
0.819356
0.813721
0.805969
0.796277
0.791671
0.789255
0.789006
0.789157
0.785192
0.78113
0.775606
0.765058
0.751662
0.742897
0.739636
0.733947
0.727605
0.722907
0.718753
0.713566
0.705196
0.700013
0.698673
0.696641
0.693532
0.688383
0.684184
0.679833
0.673524
0.668209
0.659876
0.648822
0.641475
0.637425
0.634696
0.633634
0.633155
0.632529
0.631868
0.628237
0.624569
0.623893
0.619481
0.614056
0.61166
0.605136
0.594293
0.584292
0.579688
0.58013
0.579274
0.578931
0.580901
0.578756
0.574876
0.573243
0.569605
0.566025
0.564274
0.559871
0.55535
0.552803
0.549506
0.546258
0.544745
0.546784
0.551061
0.552643
0.552892
0.553796
0.55105
0.542186
0.53132
0.525915
0.525449
0.523514
0.520857
0.517818
0.511055
0.501772
0.492897
0.484587
0.476977
0.470983
0.464861
0.456954
0.447649
0.440409
0.436704
0.431501
0.428405
0.429567
0.427167
0.422485
0.415457
0.406355
0.399466
0.390666
0.382088
0.375655
0.369298
0.366862
0.363759
0.356774
0.350509
0.343708
0.3365
0.332882
0.331393
0.328101
0.324109
0.321737
0.320213
0.317685
0.315643
0.318046
0.32119
0.321815
0.319966
0.313125
0.304441
0.294969
0.284898
0.280073
0.279003
0.278958
0.278391
0.275358
0.274969
0.27636
0.275031
0.272126
0.265975
0.260852
0.260375
0.257233
0.253954
0.253284
0.24926
0.244706
0.239475
0.230875
0.22286
0.216192
0.213125
0.210714
0.203739
0.197768
0.191511
0.183146
0.17768
0.171564
0.166042
0.166729
0.167997
0.165338
0.160543
0.15502
0.150116
0.142787
0.131529
0.124351
0.121974
0.117018
0.107292
0.0934387
0.0831986
0.0786756
0.0727346
0.0675148
0.0613389
0.0544248
0.0526424
0.0481499
0.0408815
0.0389944
0.0385034
0.0343455
0.0268852
0.0181862
0.0104963
0.00532562
0.00247604
0.000736135
0.000795036
-3.22488
-3226.64
-1037.56
539.458
494.818
25.6947
-134.995
-57.6839
18.7803
25.1579
5.00869
-4.58243
-2.30058
1.40222
2.1404
1.32746
0.795575
0.830603
0.999169
1.05135
1.0197
0.99059
0.985566
0.986005
0.986596
0.987894
0.986176
0.986841
0.985954
0.979735
0.974241
0.969761
0.966563
0.962555
0.957122
0.951486
0.942546
0.935934
0.932853
0.928394
0.925073
0.922334
0.918737
0.914685
0.909115
0.901552
0.89286
0.884322
0.877235
0.87282
0.866577
0.861087
0.862963
0.863945
0.863232
0.863421
0.858883
0.854648
0.850943
0.844156
0.838753
0.833751
0.829764
0.829865
0.829224
0.821779
0.810366
0.801491
0.795932
0.791738
0.788081
0.787346
0.788634
0.787958
0.783655
0.774205
0.763049
0.752291
0.743195
0.737596
0.730853
0.72599
0.723958
0.718556
0.713426
0.708389
0.701135
0.696429
0.695038
0.693295
0.68948
0.68558
0.680568
0.673111
0.665618
0.656985
0.648884
0.644358
0.64089
0.637233
0.633524
0.630165
0.628632
0.628882
0.627533
0.624677
0.624181
0.622172
0.615657
0.609274
0.603986
0.596314
0.585595
0.578794
0.57945
0.579571
0.577714
0.578633
0.57963
0.577892
0.574213
0.568433
0.564127
0.564459
0.562701
0.555391
0.550383
0.549304
0.546785
0.543803
0.544511
0.549011
0.553386
0.555496
0.555164
0.550125
0.541177
0.53243
0.526498
0.524778
0.524025
0.51893
0.512681
0.509222
0.503032
0.493831
0.487202
0.480443
0.471321
0.461998
0.453142
0.444705
0.438385
0.436578
0.435427
0.433539
0.432093
0.426423
0.419355
0.413219
0.404912
0.397157
0.389556
0.382036
0.376173
0.370587
0.367425
0.363965
0.356535
0.34985
0.344809
0.338256
0.331744
0.327906
0.325944
0.323847
0.321158
0.320559
0.321035
0.318617
0.317951
0.320447
0.31987
0.315903
0.308925
0.301352
0.296027
0.289856
0.284041
0.280562
0.278682
0.277631
0.274551
0.272879
0.274471
0.274099
0.272596
0.269631
0.264495
0.260689
0.255091
0.249918
0.249977
0.248634
0.244944
0.240683
0.233389
0.225935
0.218539
0.211765
0.206979
0.200776
0.196441
0.193334
0.185216
0.176974
0.171522
0.166883
0.165557
0.166283
0.16596
0.163531
0.15644
0.147743
0.14185
0.134979
0.126825
0.119465
0.111861
0.105862
0.0972679
0.0848744
0.0765837
0.0717028
0.0674114
0.0603096
0.0510969
0.0488994
0.0487002
0.0445584
0.0415658
0.0395879
0.0358637
0.028248
0.0169182
0.00770053
0.00373014
0.00260915
0.00334224
0.00250507
-3.22462
-3226.64
-1037.57
539.457
494.823
25.7026
-134.991
-57.6854
18.7817
25.1625
5.00964
-4.58016
-2.29555
1.4026
2.13842
1.32832
0.797578
0.830148
0.998659
1.05347
1.01976
0.988433
0.988004
0.991068
0.987084
0.987576
0.989283
0.98877
0.98547
0.978921
0.975562
0.972623
0.96824
0.962578
0.954053
0.949312
0.94435
0.936508
0.933002
0.930899
0.926009
0.920574
0.918648
0.919275
0.913818
0.900238
0.888543
0.882959
0.87891
0.874219
0.867433
0.863039
0.86555
0.866478
0.863683
0.862205
0.859225
0.855402
0.852581
0.845399
0.835912
0.833006
0.833598
0.831801
0.830121
0.82377
0.810174
0.797862
0.790301
0.788916
0.791619
0.791922
0.790574
0.788132
0.781703
0.771237
0.761302
0.754192
0.745933
0.736515
0.730218
0.728004
0.724394
0.718077
0.71398
0.708679
0.702822
0.700203
0.696076
0.692365
0.689896
0.686064
0.682847
0.675828
0.663358
0.653067
0.647983
0.645326
0.643645
0.640916
0.634116
0.627506
0.626393
0.628442
0.629116
0.626004
0.623099
0.622925
0.620365
0.612445
0.600563
0.590603
0.585145
0.581017
0.581274
0.583513
0.580106
0.577179
0.578236
0.57651
0.573088
0.57013
0.565476
0.562836
0.56242
0.557916
0.552044
0.549519
0.547244
0.54455
0.545881
0.550588
0.552998
0.554149
0.554852
0.549806
0.541374
0.533672
0.52617
0.522408
0.522434
0.519334
0.513402
0.50994
0.504664
0.494211
0.485383
0.478904
0.469817
0.460521
0.45404
0.447283
0.441295
0.44017
0.437515
0.431921
0.429576
0.425286
0.418423
0.412786
0.404636
0.396965
0.391132
0.383794
0.376475
0.369355
0.364667
0.362635
0.357224
0.349821
0.344752
0.339406
0.332337
0.327483
0.326756
0.326293
0.322438
0.318616
0.318225
0.317894
0.317704
0.31884
0.318099
0.316118
0.311079
0.301938
0.294719
0.289751
0.285843
0.28278
0.279426
0.278478
0.277556
0.275269
0.274154
0.271794
0.270328
0.269217
0.264101
0.259887
0.256607
0.252821
0.251989
0.248766
0.242496
0.238324
0.23264
0.225556
0.21935
0.212776
0.207784
0.202997
0.197116
0.192133
0.185269
0.17685
0.171572
0.170039
0.170286
0.168881
0.165152
0.161006
0.154313
0.146205
0.141118
0.136053
0.129154
0.121564
0.112298
0.104967
0.0973123
0.0848481
0.0756151
0.0708446
0.0655617
0.0599383
0.0542928
0.0519427
0.049816
0.0443454
0.0405507
0.0377279
0.0320336
0.0238799
0.0157136
0.00904014
0.00531538
0.00396427
0.00325866
0.0019689
-3.22598
-3226.64
-1037.57
539.455
494.825
25.704
-134.994
-57.6906
18.7768
25.1612
5.01341
-4.57822
-2.29898
1.39842
2.13695
1.32974
0.798688
0.829
0.99304
1.04654
1.01998
0.988293
0.982125
0.98866
0.989424
0.986592
0.986053
0.989041
0.986879
0.976369
0.970882
0.970304
0.968451
0.963846
0.953966
0.94775
0.944654
0.937611
0.932508
0.930188
0.925828
0.920866
0.91724
0.913061
0.908587
0.901715
0.891122
0.88428
0.880364
0.873883
0.868131
0.864042
0.862633
0.864196
0.864048
0.86346
0.862096
0.856249
0.848791
0.841044
0.835171
0.834697
0.834981
0.832247
0.827718
0.81951
0.806782
0.796803
0.792649
0.79039
0.791391
0.793477
0.790276
0.784614
0.777767
0.76742
0.760191
0.756163
0.746577
0.737326
0.732419
0.726114
0.721793
0.719261
0.714106
0.708013
0.702815
0.698769
0.694633
0.692621
0.692409
0.689235
0.683914
0.674417
0.660572
0.650985
0.648641
0.647917
0.643792
0.637681
0.632974
0.629107
0.627118
0.628377
0.628462
0.625031
0.623174
0.62268
0.617903
0.609393
0.598925
0.591683
0.589859
0.584738
0.580592
0.582505
0.580366
0.576323
0.576443
0.574781
0.570344
0.569178
0.569559
0.566702
0.562104
0.556436
0.551294
0.549916
0.548847
0.54619
0.545312
0.547931
0.552305
0.554637
0.552709
0.546803
0.539992
0.534946
0.529634
0.523601
0.520598
0.518009
0.511036
0.505719
0.502905
0.494474
0.48442
0.478923
0.472878
0.4625
0.45197
0.444376
0.439445
0.43911
0.439971
0.436267
0.431183
0.425047
0.416354
0.410024
0.40458
0.396157
0.388217
0.382712
0.377763
0.371287
0.364558
0.360047
0.355314
0.349452
0.345058
0.340968
0.334943
0.328051
0.323435
0.322816
0.322664
0.319834
0.317743
0.317658
0.317581
0.317904
0.316039
0.31221
0.308681
0.302746
0.296403
0.29138
0.286686
0.284324
0.281918
0.279083
0.277583
0.27489
0.271796
0.269533
0.269147
0.270182
0.267016
0.260723
0.255723
0.251593
0.249308
0.247125
0.242335
0.237841
0.233599
0.227638
0.220361
0.212199
0.206383
0.202596
0.196412
0.190088
0.185235
0.179579
0.174497
0.17211
0.171853
0.169771
0.164152
0.159054
0.154275
0.147321
0.140857
0.134715
0.127184
0.11999
0.111771
0.10294
0.0952367
0.0861691
0.0780373
0.0714561
0.064997
0.061545
0.0569974
0.0503704
0.0458327
0.0430265
0.0417238
0.0383489
0.0311161
0.0215488
0.0133432
0.00763162
0.00709341
0.00973162
0.00660979
0.00221078
-3.22704
-3226.65
-1037.57
539.455
494.824
25.702
-134.994
-57.6887
18.777
25.1629
5.01776
-4.57506
-2.29915
1.3964
2.13471
1.32658
0.796542
0.828503
0.993774
1.04963
1.02485
0.991367
0.98079
0.986323
0.989495
0.98908
0.989633
0.987323
0.982864
0.977276
0.973344
0.972092
0.968518
0.963463
0.955587
0.948027
0.94495
0.940046
0.933409
0.929602
0.926045
0.92116
0.916904
0.914005
0.910568
0.901502
0.890721
0.886617
0.881874
0.873815
0.869798
0.867689
0.866151
0.866315
0.864562
0.862669
0.860841
0.853365
0.84543
0.842563
0.840097
0.837527
0.836619
0.833493
0.82613
0.817443
0.805631
0.793469
0.790451
0.791769
0.792867
0.79475
0.791842
0.784834
0.776876
0.767542
0.759551
0.753729
0.747685
0.741104
0.733378
0.72552
0.721859
0.719115
0.713451
0.708232
0.704657
0.70195
0.697074
0.692835
0.693179
0.690487
0.683593
0.674722
0.661731
0.651526
0.648874
0.649812
0.64656
0.63625
0.62891
0.628494
0.628889
0.628897
0.628669
0.626496
0.624415
0.623739
0.619315
0.609825
0.598211
0.588792
0.58787
0.588347
0.584554
0.583247
0.581952
0.578025
0.575269
0.572762
0.570278
0.570123
0.570542
0.567089
0.56298
0.559846
0.553095
0.547289
0.547125
0.548681
0.549454
0.549791
0.550583
0.552333
0.552594
0.547507
0.538912
0.532623
0.528671
0.523471
0.518974
0.518196
0.515656
0.507958
0.500437
0.493024
0.483598
0.476873
0.471387
0.461143
0.451406
0.447519
0.445444
0.443447
0.440581
0.43503
0.430171
0.425348
0.416415
0.40747
0.402051
0.397076
0.390322
0.38176
0.375165
0.371543
0.365666
0.359785
0.356594
0.350832
0.342953
0.338217
0.336043
0.331988
0.325841
0.321786
0.320724
0.319287
0.317004
0.316229
0.315999
0.316114
0.315701
0.313274
0.309763
0.303673
0.296562
0.291682
0.287943
0.285618
0.283027
0.279869
0.27813
0.275469
0.272366
0.270462
0.269569
0.269275
0.265696
0.259883
0.256566
0.253164
0.248437
0.246056
0.244298
0.240084
0.233744
0.225616
0.218183
0.212128
0.206584
0.202398
0.197635
0.191822
0.186573
0.181752
0.177959
0.175736
0.174184
0.16958
0.161951
0.157601
0.155151
0.148645
0.139355
0.131228
0.126841
0.124057
0.114811
0.100044
0.0904822
0.0858793
0.0807217
0.0741451
0.0661578
0.0614348
0.05796
0.0514759
0.046732
0.0437428
0.0392256
0.0324965
0.0263882
0.0202461
0.0146394
0.0111843
0.0107306
0.011135
0.00643819
0.00190858
-3.22702
-3226.65
-1037.57
539.456
494.824
25.7002
-134.992
-57.6844
18.7763
25.1546
5.01149
-4.57393
-2.29805
1.39526
2.13472
1.32672
0.798826
0.833385
0.995246
1.04234
1.01386
0.987441
0.983077
0.988321
0.990676
0.988908
0.9865
0.983364
0.978876
0.975029
0.976037
0.974416
0.964872
0.960964
0.958348
0.948825
0.943924
0.9416
0.934618
0.928051
0.922808
0.916909
0.91419
0.913196
0.910021
0.903569
0.893943
0.886485
0.880908
0.874032
0.870831
0.869826
0.866008
0.864402
0.865628
0.862686
0.857727
0.852291
0.845149
0.84207
0.84175
0.838166
0.834946
0.832339
0.822692
0.810956
0.802683
0.795047
0.792098
0.79218
0.792879
0.794732
0.789817
0.780604
0.774435
0.768242
0.760271
0.753217
0.746701
0.740329
0.734611
0.725905
0.719067
0.719131
0.714733
0.706627
0.702673
0.699813
0.697822
0.69857
0.697578
0.68925
0.678707
0.670813
0.662756
0.656561
0.651955
0.64699
0.641709
0.634629
0.63081
0.63029
0.628401
0.627394
0.627489
0.628341
0.627996
0.621597
0.612248
0.605839
0.599992
0.591981
0.589667
0.589964
0.584828
0.581595
0.581232
0.578058
0.57354
0.570818
0.571224
0.572659
0.572076
0.567272
0.561506
0.558381
0.554398
0.550568
0.54899
0.548207
0.54898
0.549604
0.54917
0.549923
0.54968
0.545405
0.538441
0.531956
0.528004
0.524388
0.519438
0.516086
0.513283
0.507366
0.49946
0.490952
0.482362
0.475955
0.470254
0.460884
0.451073
0.446516
0.44618
0.446143
0.443541
0.437713
0.429901
0.422595
0.415794
0.408181
0.400949
0.393472
0.386422
0.380818
0.375813
0.3725
0.367078
0.359086
0.355006
0.351737
0.344411
0.337088
0.333118
0.330211
0.32603
0.322284
0.320452
0.318435
0.315973
0.315718
0.315798
0.314961
0.314665
0.3115
0.307033
0.303284
0.297527
0.292322
0.289221
0.287093
0.284978
0.281686
0.278242
0.274483
0.27094
0.269569
0.26923
0.268377
0.265783
0.260486
0.255353
0.25189
0.247814
0.24549
0.245489
0.241029
0.232023
0.223388
0.21709
0.211841
0.206057
0.201931
0.198689
0.194283
0.190049
0.185141
0.179416
0.174872
0.17233
0.169502
0.164041
0.158276
0.153563
0.148085
0.140064
0.130877
0.124663
0.119997
0.111371
0.0991489
0.0907952
0.0873327
0.0829354
0.0771542
0.0692722
0.0607609
0.0544491
0.0496075
0.0462103
0.040838
0.0340056
0.0292729
0.0268604
0.0227213
0.0184075
0.0154202
0.0106242
0.00759591
0.00593989
0.00278885
-3.22867
-3226.65
-1037.58
539.455
494.823
25.7009
-134.992
-57.6882
18.7745
25.1581
5.01374
-4.57604
-2.30206
1.39626
2.13973
1.32787
0.796938
0.831655
0.995339
1.04278
1.01254
0.988835
0.986005
0.989782
0.989783
0.986787
0.984055
0.977424
0.975719
0.981291
0.979389
0.971085
0.966951
0.964201
0.957336
0.951688
0.948905
0.942198
0.933943
0.927273
0.919414
0.914433
0.914832
0.913254
0.909024
0.90523
0.89887
0.890547
0.881569
0.873145
0.87044
0.871581
0.869417
0.867504
0.867514
0.861003
0.854088
0.852863
0.848457
0.842849
0.84127
0.83958
0.836266
0.831217
0.819792
0.806716
0.800715
0.796678
0.794018
0.793917
0.792996
0.793029
0.789358
0.780757
0.773276
0.766893
0.762181
0.756914
0.746514
0.737737
0.73561
0.729557
0.722258
0.71903
0.71135
0.704798
0.70439
0.702369
0.701461
0.701617
0.697394
0.689604
0.681027
0.671913
0.661542
0.656341
0.654211
0.647216
0.641307
0.636861
0.630564
0.628551
0.630285
0.628829
0.626425
0.628614
0.628524
0.622058
0.613851
0.60559
0.597953
0.592334
0.59126
0.59119
0.586374
0.583792
0.582767
0.576975
0.571993
0.571502
0.572802
0.573601
0.573248
0.569516
0.563456
0.559668
0.555364
0.550897
0.549707
0.548186
0.547811
0.55069
0.551556
0.549544
0.547347
0.54348
0.537202
0.531525
0.527498
0.523634
0.519791
0.516533
0.512963
0.506323
0.497545
0.491065
0.484813
0.475527
0.4665
0.459279
0.453414
0.450527
0.449879
0.448094
0.443905
0.437964
0.430293
0.423189
0.416262
0.407026
0.399161
0.392355
0.38518
0.380307
0.375866
0.372371
0.369085
0.361864
0.35503
0.350979
0.344613
0.336383
0.330501
0.326996
0.325241
0.325164
0.324429
0.321551
0.315698
0.311474
0.311555
0.313491
0.315278
0.312743
0.306779
0.302714
0.299181
0.294002
0.288749
0.286452
0.285837
0.283551
0.280515
0.276589
0.272006
0.270538
0.269597
0.265668
0.26293
0.260665
0.255284
0.251995
0.249883
0.246691
0.245183
0.240288
0.230407
0.222535
0.217783
0.212735
0.207045
0.203347
0.200311
0.195453
0.190719
0.186992
0.183208
0.177444
0.171519
0.168653
0.166222
0.161722
0.153419
0.143658
0.137486
0.132593
0.126049
0.11773
0.108186
0.0997988
0.0948621
0.0909387
0.0837167
0.0758929
0.0678035
0.0598929
0.0565486
0.052376
0.0439743
0.0360617
0.0338486
0.0324107
0.0267361
0.0211402
0.0185439
0.0164007
0.010604
0.00706869
0.00603367
0.00252677
-3.23091
-3226.66
-1037.58
539.455
494.823
25.7
-134.995
-57.6888
18.777
25.1567
5.00739
-4.57715
-2.2945
1.39892
2.13587
1.32774
0.797325
0.831473
0.995022
1.03851
1.0088
0.989506
0.986042
0.987264
0.987801
0.985391
0.984394
0.982949
0.978813
0.976516
0.975862
0.972745
0.967043
0.961681
0.958042
0.954042
0.946881
0.937964
0.931476
0.927416
0.922332
0.915216
0.911075
0.91088
0.91056
0.908544
0.900109
0.88722
0.878659
0.876212
0.875791
0.873016
0.869975
0.868861
0.863975
0.856379
0.854521
0.8545
0.850034
0.844445
0.840424
0.838175
0.833043
0.824482
0.816446
0.806871
0.798941
0.794495
0.794107
0.795883
0.793318
0.790317
0.787108
0.779362
0.772166
0.767238
0.762006
0.755421
0.746876
0.737772
0.732493
0.728734
0.722611
0.718093
0.712445
0.704364
0.701677
0.703863
0.704353
0.70098
0.697363
0.690789
0.680085
0.672194
0.663524
0.655567
0.652144
0.644894
0.639444
0.638968
0.633232
0.627261
0.628469
0.630511
0.629021
0.62783
0.625205
0.618972
0.611286
0.604022
0.59859
0.594023
0.591835
0.591188
0.586328
0.582931
0.581804
0.576473
0.572905
0.574658
0.576037
0.574102
0.571862
0.56868
0.562811
0.559194
0.556523
0.553145
0.552453
0.549598
0.545837
0.548094
0.550251
0.547245
0.544168
0.541736
0.536415
0.530256
0.526603
0.524019
0.519639
0.514088
0.51004
0.50522
0.49664
0.489817
0.483577
0.473939
0.465425
0.459089
0.45411
0.451778
0.451115
0.45054
0.447171
0.439036
0.428546
0.420577
0.414375
0.40577
0.397521
0.390794
0.385409
0.382335
0.377199
0.370548
0.366083
0.360924
0.354514
0.349965
0.345113
0.336922
0.328832
0.325227
0.325137
0.324072
0.32193
0.320167
0.316782
0.313429
0.313074
0.312043
0.310964
0.309335
0.305193
0.301875
0.299963
0.296589
0.291213
0.286872
0.285414
0.283562
0.281144
0.27764
0.272278
0.269444
0.268985
0.265837
0.262308
0.259667
0.254001
0.25021
0.25115
0.248967
0.243917
0.237626
0.228882
0.221263
0.21649
0.212941
0.20863
0.205162
0.202915
0.198448
0.192457
0.186453
0.181154
0.176885
0.173021
0.169507
0.165852
0.1621
0.154491
0.143823
0.137831
0.132053
0.121689
0.112086
0.106271
0.102615
0.0984574
0.0929973
0.0838657
0.0730885
0.0652799
0.0604973
0.0574718
0.05114
0.0408177
0.0333513
0.0344213
0.0340079
0.0253179
0.0221272
0.0222835
0.0161103
0.00777391
0.00364698
0.00495225
0.00342507
-3.2314
-3226.65
-1037.58
539.455
494.825
25.7009
-134.995
-57.6914
18.7724
25.1551
5.01336
-4.5747
-2.30014
1.39798
2.13665
1.3266
0.798562
0.831096
0.993416
1.04049
1.01132
0.987904
0.984923
0.989116
0.987407
0.981938
0.981029
0.98035
0.978679
0.978186
0.974879
0.971638
0.970404
0.966668
0.959299
0.954185
0.949636
0.938384
0.927105
0.92529
0.922341
0.91337
0.910956
0.911517
0.910299
0.910228
0.901146
0.886665
0.881008
0.880711
0.878251
0.874417
0.872089
0.868075
0.862002
0.859947
0.860042
0.854751
0.847116
0.842871
0.840274
0.839287
0.834715
0.822564
0.811497
0.804437
0.798369
0.7955
0.797092
0.796266
0.791404
0.790223
0.786823
0.777991
0.772892
0.769244
0.761351
0.753242
0.746813
0.740956
0.737176
0.732751
0.722556
0.713723
0.709474
0.706262
0.705693
0.705442
0.703916
0.701982
0.698623
0.693063
0.683013
0.671831
0.662785
0.656899
0.653661
0.646366
0.638697
0.637156
0.635032
0.629665
0.627886
0.631179
0.631987
0.628891
0.625386
0.618461
0.608973
0.601393
0.598771
0.597819
0.594582
0.590679
0.587477
0.58515
0.581536
0.576638
0.57525
0.576391
0.576442
0.574961
0.573618
0.571254
0.564952
0.559997
0.556964
0.55309
0.552628
0.551164
0.546758
0.547698
0.550149
0.546674
0.541848
0.539319
0.535691
0.530102
0.524774
0.521562
0.520117
0.516375
0.510708
0.503988
0.496064
0.489345
0.48145
0.47193
0.466019
0.461823
0.457641
0.454481
0.451869
0.450203
0.447564
0.44164
0.430986
0.419547
0.411707
0.404435
0.39765
0.391702
0.384748
0.381556
0.379823
0.372724
0.365909
0.361599
0.353528
0.346327
0.342608
0.335552
0.328491
0.326523
0.327672
0.327799
0.323302
0.317706
0.313605
0.312357
0.314225
0.312726
0.308406
0.306729
0.306352
0.304832
0.300973
0.29571
0.290852
0.288377
0.288026
0.28562
0.28197
0.27894
0.273873
0.26901
0.26786
0.265182
0.261014
0.260089
0.25583
0.250616
0.251488
0.249063
0.241514
0.235402
0.229722
0.223775
0.218796
0.214512
0.210249
0.20625
0.202763
0.198943
0.19411
0.187566
0.182013
0.178294
0.174289
0.171652
0.168204
0.161579
0.153174
0.144123
0.137844
0.131146
0.12079
0.112661
0.108309
0.104022
0.0987719
0.0931452
0.0824318
0.069837
0.065622
0.064235
0.0571884
0.0479601
0.04251
0.0370792
0.0331306
0.0315553
0.0256804
0.0225622
0.0206724
0.0145624
0.00935209
0.00773015
0.00578074
0.00195252
-3.23117
-3226.66
-1037.58
539.452
494.823
25.7014
-134.999
-57.6924
18.7758
25.1557
5.00811
-4.57784
-2.29532
1.40421
2.14137
1.32894
0.79296
0.82297
0.990789
1.04356
1.0144
0.986571
0.981766
0.986472
0.986423
0.983476
0.981718
0.979438
0.979535
0.978824
0.974383
0.969706
0.968242
0.966126
0.959559
0.952771
0.945222
0.936081
0.930867
0.926827
0.920031
0.912114
0.91031
0.913503
0.912748
0.906704
0.894826
0.886404
0.887183
0.885136
0.878853
0.875579
0.872702
0.86714
0.862647
0.861752
0.858665
0.851825
0.847286
0.845019
0.841138
0.835834
0.828602
0.819097
0.809864
0.80125
0.797525
0.798051
0.796598
0.79405
0.79173
0.788298
0.783664
0.777365
0.77244
0.767563
0.759228
0.751758
0.748305
0.743785
0.736703
0.730194
0.722795
0.714396
0.708332
0.706134
0.705993
0.704079
0.70301
0.702455
0.699045
0.694356
0.684766
0.671571
0.66227
0.655985
0.651642
0.647113
0.640218
0.635477
0.632825
0.630371
0.631357
0.633169
0.631694
0.627502
0.621112
0.614368
0.608983
0.601725
0.596525
0.596876
0.595423
0.591255
0.587788
0.584277
0.581467
0.579994
0.578525
0.576845
0.576915
0.576238
0.573047
0.570507
0.566101
0.560111
0.556752
0.554192
0.552128
0.551163
0.548958
0.547068
0.546426
0.544137
0.539446
0.535894
0.532762
0.528571
0.525296
0.522516
0.519648
0.514739
0.507937
0.501902
0.494618
0.486941
0.479744
0.472091
0.466454
0.461914
0.458322
0.455943
0.454459
0.45294
0.447731
0.439459
0.429407
0.41868
0.41046
0.402817
0.396709
0.392661
0.38738
0.382526
0.378378
0.370935
0.363301
0.359616
0.353323
0.344186
0.338888
0.335071
0.331488
0.32868
0.326558
0.32545
0.321243
0.316032
0.313153
0.312207
0.313066
0.310467
0.306384
0.306594
0.307438
0.305035
0.30012
0.296086
0.292704
0.289695
0.288129
0.285586
0.281354
0.277352
0.272936
0.268881
0.267686
0.266432
0.261573
0.258398
0.255472
0.250027
0.248967
0.247045
0.239566
0.234144
0.230592
0.225582
0.220262
0.215301
0.210675
0.205953
0.202335
0.199664
0.195494
0.188659
0.182757
0.179748
0.175812
0.171634
0.165712
0.157859
0.153638
0.147651
0.137847
0.128584
0.119903
0.113424
0.108684
0.103959
0.0977544
0.0897823
0.079994
0.0706955
0.0667084
0.0647224
0.0574665
0.0463325
0.040717
0.0371103
0.0315728
0.0302499
0.0274887
0.0224456
0.0182109
0.0133317
0.00885453
0.00865136
0.00736422
0.00256334
-3.23258
-3226.66
-1037.58
539.455
494.823
25.6961
-134.999
-57.6903
18.7731
25.1526
5.01052
-4.5731
-2.29306
1.40297
2.13793
1.324
0.791719
0.82599
0.993649
1.04438
1.01273
0.986464
0.985483
0.987819
0.984404
0.983274
0.981141
0.977543
0.979813
0.97699
0.970303
0.972161
0.971967
0.965248
0.958311
0.952537
0.946006
0.940512
0.932201
0.919869
0.914856
0.91461
0.91396
0.915139
0.910624
0.902717
0.897461
0.891354
0.887776
0.886966
0.883326
0.877632
0.873036
0.868659
0.865711
0.863998
0.857052
0.849347
0.847969
0.847278
0.841334
0.833879
0.826727
0.816327
0.80702
0.803994
0.801787
0.798468
0.795154
0.792365
0.789845
0.787291
0.784514
0.778738
0.77133
0.764784
0.757072
0.751935
0.752252
0.749045
0.73964
0.730422
0.720947
0.712836
0.710564
0.708743
0.704796
0.703288
0.704433
0.70484
0.700855
0.694108
0.683898
0.672135
0.665297
0.659632
0.651725
0.646156
0.641843
0.636785
0.634636
0.633931
0.631973
0.630957
0.630674
0.627892
0.620256
0.611374
0.606999
0.604174
0.600252
0.598656
0.596379
0.591984
0.587824
0.584531
0.581723
0.581797
0.582828
0.578897
0.576311
0.577751
0.575126
0.570549
0.567427
0.563143
0.559015
0.555811
0.553529
0.550885
0.547516
0.545386
0.544743
0.543275
0.539171
0.534744
0.530998
0.527295
0.524252
0.52043
0.518836
0.516825
0.509555
0.501677
0.494478
0.486548
0.478197
0.471717
0.467342
0.462349
0.460496
0.459312
0.455178
0.453149
0.449126
0.440147
0.429018
0.417464
0.409689
0.404136
0.398177
0.391989
0.386393
0.382713
0.379372
0.372573
0.362767
0.357393
0.35312
0.343941
0.337734
0.334444
0.331241
0.329437
0.32809
0.326175
0.320871
0.315757
0.313381
0.310836
0.310037
0.308518
0.306758
0.308535
0.309278
0.306432
0.301223
0.295799
0.292769
0.290235
0.287531
0.285067
0.28236
0.279789
0.276802
0.271531
0.266829
0.264717
0.260516
0.256074
0.254124
0.251263
0.249547
0.247527
0.240345
0.234356
0.230894
0.226407
0.221209
0.215835
0.210701
0.207398
0.20575
0.201829
0.19504
0.188892
0.184489
0.181793
0.178425
0.173187
0.165993
0.158205
0.153532
0.147128
0.136582
0.128111
0.121098
0.115205
0.111537
0.106061
0.0960934
0.0853149
0.0798503
0.076337
0.0692039
0.0604816
0.0542535
0.0486568
0.042503
0.0363339
0.0312674
0.0309861
0.0284919
0.021279
0.016413
0.0142306
0.0110037
0.00922215
0.00841133
0.00371013
-3.23386
-3226.66