/*--------------------------------*- C++ -*----------------------------------*\
| =========                 |                                                 |
| \\      /  F ield         | OpenFOAM: The Open Source CFD Toolbox           |
|  \\    /   O peration     | Version:  2406                                  |
|   \\  /    A nd           | Website:  www.openfoam.com                      |
|    \\/     M anipulation  |                                                 |
\*---------------------------------------------------------------------------*/
FoamFile
{
    version     2.0;
    format      ascii;
    arch        "LSB;label=32;scalar=64";
    class       surfaceScalarField;
    location    "1.9";
    object      phi;
}
// * * * * * * * * * * * * * * * * * * * * * * * * * * * * * * * * * * * * * //

dimensions      [0 3 -1 0 0 0 0];

oriented        oriented;

internalField   nonuniform List<scalar> 
12225
(
0.511121
1.74229e-06
0.511115
6.44803e-06
0.511107
7.53115e-06
0.511102
5.07863e-06
0.511098
3.75285e-06
0.511094
4.27477e-06
0.511089
5.44324e-06
0.511083
5.97562e-06
0.511077
5.77686e-06
0.511072
5.37971e-06
0.511066
5.27117e-06
0.511061
5.63232e-06
0.511055
5.9887e-06
0.511049
5.77528e-06
0.511044
5.25077e-06
0.511039
4.94942e-06
0.511034
4.84315e-06
0.511029
5.11696e-06
0.511023
5.45107e-06
0.511018
5.36442e-06
0.511013
5.23202e-06
0.511008
5.26026e-06
0.511002
5.32559e-06
0.510997
5.43572e-06
0.510992
5.22638e-06
0.510987
4.91455e-06
0.510981
5.26116e-06
0.510976
5.66056e-06
0.51097
5.54945e-06
0.510965
5.43654e-06
0.510959
5.50884e-06
0.510954
5.58879e-06
0.510948
5.61748e-06
0.510942
5.70983e-06
0.510936
5.89142e-06
0.51093
5.99393e-06
0.510924
6.00468e-06
0.510919
5.82298e-06
0.510913
5.40521e-06
0.510908
5.20397e-06
0.510903
5.3744e-06
0.510897
5.33332e-06
0.510892
4.94044e-06
0.510887
4.85386e-06
0.510882
5.15084e-06
0.510877
5.33252e-06
0.510871
5.54026e-06
0.510865
5.93299e-06
0.51086
5.98432e-06
0.510854
5.67094e-06
0.510848
5.41429e-06
0.510843
5.21681e-06
0.510838
5.20737e-06
0.510833
5.4435e-06
0.510827
5.58974e-06
0.510821
5.71908e-06
0.510815
5.78743e-06
0.51081
5.59641e-06
0.510804
5.46404e-06
0.510799
5.52734e-06
0.510793
5.69349e-06
0.510787
5.87624e-06
0.510781
5.81473e-06
0.510776
5.45041e-06
0.510771
4.92964e-06
0.510767
4.5154e-06
0.510762
4.5435e-06
0.510757
5.02158e-06
0.510751
5.63544e-06
0.510745
6.16416e-06
0.510739
6.4159e-06
0.510733
6.16106e-06
0.510727
5.69532e-06
0.510722
5.25341e-06
0.510717
4.73326e-06
0.510712
4.48727e-06
0.510708
4.70179e-06
0.510703
5.0836e-06
0.510697
5.36493e-06
0.510692
5.52001e-06
0.510686
5.78332e-06
0.51068
6.13464e-06
0.510674
6.19912e-06
0.510668
5.75312e-06
0.510663
5.28664e-06
0.510657
5.25005e-06
0.510652
5.2734e-06
0.510647
5.24442e-06
0.510642
5.26268e-06
0.510636
5.18988e-06
0.510631
5.292e-06
0.510626
5.63047e-06
0.51062
5.7532e-06
0.510614
5.48175e-06
0.510609
5.17215e-06
0.510604
5.19439e-06
0.510599
5.39322e-06
0.510593
5.4362e-06
0.510588
5.27269e-06
0.510583
5.15341e-06
0.510577
5.2249e-06
0.510572
5.31901e-06
0.510567
5.46126e-06
0.510561
5.7187e-06
0.510555
5.98485e-06
0.510549
6.09136e-06
0.510543
5.80643e-06
0.510538
5.27304e-06
0.510533
4.76823e-06
0.510529
4.4044e-06
0.510524
4.51001e-06
0.510519
5.14314e-06
0.510513
5.74507e-06
0.510507
5.93753e-06
0.510501
5.88483e-06
0.510496
5.72487e-06
0.51049
5.46893e-06
0.510485
5.26852e-06
0.51048
5.22998e-06
0.510474
5.25181e-06
0.510469
5.15778e-06
0.510464
5.01273e-06
0.510459
5.03009e-06
0.510454
5.18718e-06
0.510449
5.45265e-06
0.510443
5.82548e-06
0.510437
6.07155e-06
0.510431
6.08581e-06
0.510425
5.94851e-06
0.510419
5.75891e-06
0.510413
5.69645e-06
0.510408
5.71373e-06
0.510402
5.5129e-06
0.510397
5.09611e-06
0.510392
4.80361e-06
0.510387
4.85281e-06
0.510382
5.22262e-06
0.510376
5.6513e-06
0.510371
5.78504e-06
0.510365
5.76869e-06
0.510359
5.91485e-06
0.510353
6.02962e-06
0.510347
5.88336e-06
0.510341
5.56741e-06
0.510336
5.23132e-06
0.510331
5.03097e-06
0.510326
5.08181e-06
0.510321
5.28013e-06
0.510315
5.40172e-06
0.51031
5.47605e-06
0.510304
5.62467e-06
0.510298
5.8012e-06
0.510293
5.84953e-06
0.510287
5.67755e-06
0.510281
5.50565e-06
0.510276
5.44407e-06
0.510271
5.31583e-06
0.510265
5.20213e-06
0.51026
5.26272e-06
0.510255
5.41929e-06
0.510249
5.43071e-06
0.510244
5.31603e-06
0.510239
5.37691e-06
0.510233
5.53763e-06
0.510228
5.61906e-06
0.510222
5.65556e-06
0.510216
5.61794e-06
0.510211
5.55696e-06
0.510205
5.44665e-06
0.5102
5.20059e-06
0.510195
5.05216e-06
0.51019
5.18852e-06
0.510184
5.42756e-06
0.510179
5.55834e-06
0.510173
5.72178e-06
0.510167
5.91007e-06
0.510161
5.76851e-06
0.510156
5.3919e-06
0.510151
5.2239e-06
0.510146
5.29913e-06
0.51014
5.38963e-06
0.510135
5.33896e-06
0.51013
5.09913e-06
0.510125
4.96509e-06
0.51012
5.17828e-06
0.510114
5.4972e-06
0.510108
5.77806e-06
0.510102
5.9836e-06
0.510096
5.94087e-06
0.510091
5.68691e-06
0.510085
5.38444e-06
0.51008
5.25553e-06
0.510075
5.34738e-06
0.510069
5.33581e-06
0.510064
5.17332e-06
0.510059
5.10794e-06
0.510054
5.29259e-06
0.510048
5.77382e-06
0.510042
6.12597e-06
0.510036
6.00196e-06
0.51003
5.77656e-06
0.510024
5.60121e-06
0.510019
5.25528e-06
0.510014
4.86979e-06
0.51001
4.70973e-06
0.510005
4.89422e-06
0.51
5.24212e-06
0.509994
5.45287e-06
0.509988
5.56219e-06
0.509983
5.68481e-06
0.509977
5.7846e-06
0.509971
5.77259e-06
0.509966
5.69109e-06
0.50996
5.69658e-06
0.509954
5.64334e-06
0.509949
5.47791e-06
0.509943
5.45786e-06
0.509938
5.48788e-06
0.509932
5.41302e-06
0.509927
5.40242e-06
0.509921
5.56494e-06
0.509916
5.79584e-06
0.50991
5.9178e-06
0.509904
5.95702e-06
0.509898
6.05981e-06
0.509892
6.07583e-06
0.509886
5.70598e-06
0.509881
5.0768e-06
0.509876
4.67116e-06
0.509871
4.7997e-06
0.509866
5.29544e-06
0.50986
5.62449e-06
0.509855
5.74388e-06
0.509849
5.90296e-06
0.509843
5.94822e-06
0.509837
5.85783e-06
0.509831
5.63264e-06
0.509826
5.21374e-06
0.509821
4.98903e-06
0.509816
5.09102e-06
0.509811
5.22792e-06
0.509806
5.27959e-06
0.5098
5.29958e-06
0.509795
5.34544e-06
0.50979
5.31506e-06
0.509784
5.13238e-06
0.509779
5.0207e-06
0.509774
5.00531e-06
0.509769
5.48816e-06
5.12728e-06
0.511126
-2.03138e-08
0.511132
2.5695e-07
0.511139
1.29839e-06
0.511141
2.54386e-06
0.511142
2.86033e-06
0.511144
2.59873e-06
0.511147
2.37452e-06
0.51115
2.35755e-06
0.511154
2.36504e-06
0.511157
2.11341e-06
0.51116
2.05538e-06
0.511164
2.2472e-06
0.511168
2.14832e-06
0.511171
2.24651e-06
0.511174
2.45155e-06
0.511176
2.5217e-06
0.511179
2.63611e-06
0.511181
2.33607e-06
0.511185
1.80472e-06
0.511188
1.91176e-06
0.511191
2.61385e-06
0.511193
3.14803e-06
0.511196
2.92526e-06
0.511199
2.38665e-06
0.511201
2.4529e-06
0.511204
2.76283e-06
0.511206
2.6126e-06
0.511209
2.64679e-06
0.511212
3.09003e-06
0.511214
2.90595e-06
0.511217
2.35592e-06
0.511221
2.2687e-06
0.511224
2.3361e-06
0.511227
2.23713e-06
0.511231
2.12714e-06
0.511235
2.29441e-06
0.511238
2.62709e-06
0.511241
2.74176e-06
0.511244
2.68531e-06
0.511247
2.53502e-06
0.51125
2.27596e-06
0.511253
2.25925e-06
0.511255
2.45706e-06
0.511258
2.47728e-06
0.511261
2.36227e-06
0.511264
2.3493e-06
0.511267
2.47754e-06
0.51127
2.64451e-06
0.511273
2.7829e-06
0.511276
2.76636e-06
0.511279
2.73153e-06
0.511281
2.79394e-06
0.511284
2.69636e-06
0.511286
2.64761e-06
0.511289
2.80508e-06
0.511292
2.73233e-06
0.511296
2.35598e-06
0.511299
1.94651e-06
0.511303
1.88745e-06
0.511306
2.24485e-06
0.511309
2.65267e-06
0.511312
2.85726e-06
0.511315
2.82669e-06
0.511318
2.66717e-06
0.51132
2.56651e-06
0.511322
2.5996e-06
0.511324
2.50535e-06
0.511327
2.30952e-06
0.51133
2.2798e-06
0.511334
2.24058e-06
0.511338
2.35502e-06
0.511342
2.82409e-06
0.511344
3.02348e-06
0.511347
2.8207e-06
0.511349
2.51667e-06
0.511351
2.27578e-06
0.511354
2.21526e-06
0.511357
2.22413e-06
0.51136
2.17897e-06
0.511363
2.10456e-06
0.511367
2.23833e-06
0.51137
2.48259e-06
0.511374
2.52218e-06
0.511377
2.5421e-06
0.51138
2.5193e-06
0.511383
2.3924e-06
0.511386
2.46233e-06
0.511388
2.61566e-06
0.511391
2.62058e-06
0.511394
2.59337e-06
0.511396
2.59386e-06
0.511399
2.54428e-06
0.511402
2.5509e-06
0.511405
2.53029e-06
0.511408
2.33917e-06
0.511411
2.39959e-06
0.511414
2.7723e-06
0.511416
3.00926e-06
0.511418
3.0964e-06
0.51142
3.02883e-06
0.511423
2.83303e-06
0.511425
2.71551e-06
0.511428
2.5381e-06
0.511432
2.29262e-06
0.511435
2.31437e-06
0.511439
2.48904e-06
0.511442
2.42439e-06
0.511445
2.20976e-06
0.511448
2.10706e-06
0.51145
2.09794e-06
0.511453
2.06267e-06
0.511456
2.07543e-06
0.511459
2.30002e-06
0.511463
2.49068e-06
0.511466
2.38643e-06
0.51147
2.39336e-06
0.511473
2.49407e-06
0.511476
2.31666e-06
0.511479
2.07441e-06
0.511482
2.08332e-06
0.511485
2.39253e-06
0.511487
2.78562e-06
0.511489
2.86516e-06
0.511492
2.607e-06
0.511495
2.39176e-06
0.511498
2.39509e-06
0.511502
2.45295e-06
0.511505
2.48314e-06
0.511509
2.55444e-06
0.511512
2.61599e-06
0.511515
2.53924e-06
0.511518
2.40771e-06
0.511521
2.53842e-06
0.511524
2.93114e-06
0.511525
3.13233e-06
0.511527
2.94546e-06
0.51153
2.67641e-06
0.511533
2.53286e-06
0.511536
2.27652e-06
0.51154
1.89274e-06
0.511544
1.86581e-06
0.511548
2.33395e-06
0.511551
2.83229e-06
0.511553
3.09336e-06
0.511555
3.23402e-06
0.511557
3.27548e-06
0.511559
3.05636e-06
0.511562
2.64386e-06
0.511565
2.24652e-06
0.511568
1.98011e-06
0.511572
1.99969e-06
0.511576
2.29467e-06
0.511579
2.62712e-06
0.511582
2.77067e-06
0.511585
2.68498e-06
0.511588
2.50522e-06
0.51159
2.38559e-06
0.511593
2.39364e-06
0.511596
2.5041e-06
0.511599
2.75939e-06
0.511601
3.00917e-06
0.511604
2.89354e-06
0.511606
2.51976e-06
0.51161
2.22596e-06
0.511613
2.1169e-06
0.511617
2.1982e-06
0.51162
2.30588e-06
0.511623
2.42708e-06
0.511626
2.72671e-06
0.511628
2.97604e-06
0.51163
2.89631e-06
0.511633
2.6283e-06
0.511636
2.39815e-06
0.511639
2.21347e-06
0.511643
1.98675e-06
0.511647
1.91182e-06
0.51165
2.18791e-06
0.511653
2.42829e-06
0.511656
2.38976e-06
0.511659
2.37735e-06
0.511662
2.49054e-06
0.511665
2.56657e-06
0.511667
2.48531e-06
0.51167
2.22337e-06
0.511673
2.04559e-06
0.511677
2.10539e-06
0.51168
2.19671e-06
0.511684
2.25793e-06
0.511688
2.35155e-06
0.511691
2.49883e-06
0.511694
2.61498e-06
0.511696
2.57509e-06
0.511699
2.46224e-06
0.511702
2.35679e-06
0.511705
2.27875e-06
0.511708
2.35948e-06
0.51171
2.60554e-06
0.511713
2.83272e-06
0.511717
2.81182e-06
0.51172
2.46643e-06
0.511724
2.17634e-06
0.511727
2.26792e-06
0.51173
2.56615e-06
0.511732
2.88371e-06
0.511734
3.02929e-06
0.511736
2.89801e-06
0.511738
2.62805e-06
0.511741
2.34447e-06
0.511745
2.15781e-06
0.511748
2.01479e-06
0.511752
1.89993e-06
0.511756
2.09529e-06
0.511759
2.40324e-06
0.511762
2.49759e-06
0.511765
2.59161e-06
0.511768
2.70145e-06
0.511771
2.65624e-06
0.511774
2.53093e-06
0.511777
2.42935e-06
0.51178
2.41662e-06
0.511783
2.48961e-06
0.511786
2.56415e-06
0.511789
2.65143e-06
0.511793
2.8056e-06
0.511796
2.92151e-06
0.511799
2.91925e-06
0.511802
2.83573e-06
0.511804
2.66516e-06
0.511806
2.49468e-06
0.511809
2.44433e-06
0.511812
2.51481e-06
0.511815
2.6139e-06
0.511818
2.47399e-06
0.511822
2.12481e-06
0.511826
1.99069e-06
0.511829
2.29422e-06
0.511832
2.68155e-06
0.511835
2.74812e-06
0.511837
2.68804e-06
0.511839
2.77154e-06
0.511842
2.83055e-06
0.511844
2.58679e-06
0.511847
2.138e-06
0.511851
1.96263e-06
0.511854
2.21948e-06
0.511857
2.49357e-06
0.511859
2.55125e-06
0.511861
2.61188e-06
0.511864
2.65885e-06
2.8147e-06
0.511126
5.06252e-08
0.511126
3.1803e-07
0.511126
6.99454e-07
0.511127
1.47958e-06
0.511128
2.27443e-06
0.511128
2.31528e-06
0.511128
2.1231e-06
0.511129
2.07951e-06
0.511129
2.18788e-06
0.511128
2.52708e-06
0.511128
2.56938e-06
0.511128
2.17378e-06
0.511129
1.61857e-06
0.51113
1.08281e-06
0.511131
1.20447e-06
0.511131
2.00672e-06
0.511132
2.55904e-06
0.511131
2.54394e-06
0.511131
2.48689e-06
0.51113
2.45891e-06
0.51113
2.23613e-06
0.511131
2.10456e-06
0.511132
2.24463e-06
0.511132
2.66825e-06
0.511131
2.85434e-06
0.511132
2.41593e-06
0.511132
2.17248e-06
0.511133
2.26413e-06
0.511133
2.37317e-06
0.511134
2.68425e-06
0.511133
2.70866e-06
0.511133
2.16687e-06
0.511134
1.68841e-06
0.511135
1.67009e-06
0.511135
1.75916e-06
0.511135
1.8918e-06
0.511136
2.38307e-06
0.511136
2.67216e-06
0.511136
2.52988e-06
0.511136
2.32557e-06
0.511136
1.91649e-06
0.511137
1.76572e-06
0.511137
2.18505e-06
0.511137
2.45318e-06
0.511137
2.64032e-06
0.511136
2.88593e-06
0.511136
2.68998e-06
0.511136
2.29114e-06
0.511137
2.10604e-06
0.511138
2.20156e-06
0.511138
2.64232e-06
0.511138
3.03764e-06
0.511137
2.90642e-06
0.511138
2.51161e-06
0.511138
2.12012e-06
0.511139
1.705e-06
0.51114
1.64668e-06
0.51114
1.98135e-06
0.51114
2.22289e-06
0.511139
2.36233e-06
0.511139
2.61209e-06
0.51114
2.76056e-06
0.51114
2.59934e-06
0.51114
2.3959e-06
0.51114
2.25475e-06
0.511141
2.18115e-06
0.511141
2.37579e-06
0.511141
2.42792e-06
0.511141
2.20969e-06
0.511141
2.16119e-06
0.511141
2.19803e-06
0.511142
2.25982e-06
0.511142
2.32477e-06
0.511143
2.1295e-06
0.511144
1.87082e-06
0.511144
1.82718e-06
0.511145
1.76959e-06
0.511145
1.67817e-06
0.511145
1.85761e-06
0.511145
2.30039e-06
0.511145
2.75371e-06
0.511144
2.77165e-06
0.511145
2.39002e-06
0.511145
2.2304e-06
0.511145
2.16752e-06
0.511146
2.04249e-06
0.511146
2.14514e-06
0.511146
2.23692e-06
0.511147
2.26685e-06
0.511147
2.39482e-06
0.511147
2.45281e-06
0.511147
2.3806e-06
0.511147
2.24541e-06
0.511148
2.30198e-06
0.511147
2.67365e-06
0.511147
2.93613e-06
0.511147
2.87068e-06
0.511147
2.67614e-06
0.511148
2.47502e-06
0.511148
2.39228e-06
0.511149
2.52227e-06
0.511149
2.70628e-06
0.511148
2.80499e-06
0.511148
2.6858e-06
0.511148
2.32288e-06
0.511148
2.09903e-06
0.511149
1.9444e-06
0.51115
1.52738e-06
0.51115
1.31562e-06
0.511151
1.54914e-06
0.511151
1.8069e-06
0.511151
1.87041e-06
0.511152
1.84582e-06
0.511152
1.90577e-06
0.511153
2.06868e-06
0.511153
2.20302e-06
0.511153
2.34984e-06
0.511153
2.2967e-06
0.511153
1.84625e-06
0.511154
1.50412e-06
0.511155
1.65338e-06
0.511155
2.03023e-06
0.511156
2.39164e-06
0.511156
2.44257e-06
0.511156
2.26257e-06
0.511156
2.32764e-06
0.511156
2.44067e-06
0.511156
2.35653e-06
0.511157
2.34156e-06
0.511157
2.38646e-06
0.511157
2.41899e-06
0.511157
2.39509e-06
0.511157
2.20689e-06
0.511158
2.13006e-06
0.511159
2.32401e-06
0.511159
2.49318e-06
0.51116
2.40417e-06
0.51116
2.16186e-06
0.51116
2.0913e-06
0.51116
2.16174e-06
0.51116
2.16446e-06
0.51116
2.32048e-06
0.51116
2.60235e-06
0.51116
2.66286e-06
0.511161
2.61076e-06
0.511162
2.61137e-06
0.511162
2.51806e-06
0.511162
2.31829e-06
0.511162
2.21358e-06
0.511162
2.36224e-06
0.511161
2.5742e-06
0.511161
2.62138e-06
0.511161
2.63249e-06
0.511161
2.50407e-06
0.511162
2.1099e-06
0.511163
1.9026e-06
0.511163
2.0602e-06
0.511163
2.30973e-06
0.511163
2.48328e-06
0.511163
2.51903e-06
0.511164
2.53393e-06
0.511164
2.54252e-06
0.511164
2.40759e-06
0.511164
2.23411e-06
0.511164
2.1393e-06
0.511164
2.16678e-06
0.511164
2.19787e-06
0.511165
2.03977e-06
0.511166
1.88688e-06
0.511166
2.00632e-06
0.511167
2.19706e-06
0.511167
2.32575e-06
0.511167
2.5262e-06
0.511167
2.73371e-06
0.511166
2.64723e-06
0.511166
2.24935e-06
0.511166
1.86694e-06
0.511167
1.62649e-06
0.511168
1.41407e-06
0.511169
1.35281e-06
0.51117
1.53188e-06
0.511171
1.84172e-06
0.511171
2.17262e-06
0.511171
2.35775e-06
0.51117
2.41331e-06
0.51117
2.34907e-06
0.51117
1.98054e-06
0.511171
1.55959e-06
0.511172
1.44114e-06
0.511173
1.67316e-06
0.511173
2.12424e-06
0.511174
2.41069e-06
0.511174
2.37636e-06
0.511174
2.22537e-06
0.511174
2.13005e-06
0.511174
2.21016e-06
0.511174
2.31573e-06
0.511175
2.25604e-06
0.511175
2.24225e-06
0.511176
2.3445e-06
0.511175
2.40833e-06
0.511175
2.44031e-06
0.511175
2.40914e-06
0.511176
2.35587e-06
0.511177
2.3323e-06
0.511177
2.19451e-06
0.511178
1.98892e-06
0.511178
1.8947e-06
0.511179
1.98838e-06
0.511178
2.23678e-06
0.511178
2.38863e-06
0.511178
2.36711e-06
0.511178
2.23093e-06
0.511178
2.01927e-06
0.511179
1.95531e-06
0.511179
2.06365e-06
0.51118
2.19347e-06
0.51118
2.36545e-06
0.51118
2.57721e-06
0.51118
2.72589e-06
0.511179
2.71668e-06
0.511179
2.59624e-06
0.511179
2.59447e-06
0.51118
2.71315e-06
0.51118
2.66248e-06
0.51118
2.4097e-06
0.511181
2.30045e-06
0.511181
2.52183e-06
0.511181
2.76643e-06
0.511181
2.60423e-06
0.511181
2.22476e-06
0.511181
2.10292e-06
0.511182
2.1137e-06
0.511182
2.00496e-06
0.511182
1.89496e-06
0.511182
2.00759e-06
0.511183
2.33124e-06
0.511183
2.49162e-06
0.511183
2.41031e-06
0.511184
2.37042e-06
0.511184
2.35429e-06
0.511184
2.17199e-06
0.511185
1.80776e-06
0.511185
1.61123e-06
0.511186
1.7894e-06
0.511186
2.04896e-06
0.511186
2.18284e-06
0.511187
2.22762e-06
0.511187
2.19223e-06
2.25995e-06
0.511126
-6.12484e-08
0.511126
4.10916e-07
0.511125
9.35752e-07
0.511126
1.16452e-06
0.511127
1.12078e-06
0.511128
1.15709e-06
0.511129
1.56605e-06
0.511129
1.91854e-06
0.511129
1.90244e-06
0.51113
1.89198e-06
0.51113
2.16238e-06
0.51113
2.05762e-06
0.51113
1.73034e-06
0.511129
1.79981e-06
0.511129
1.96076e-06
0.511129
1.85697e-06
0.511129
1.78929e-06
0.51113
2.011e-06
0.51113
2.16186e-06
0.511131
2.10389e-06
0.511131
2.24009e-06
0.511131
2.22769e-06
0.511131
1.86128e-06
0.511132
1.73378e-06
0.511133
2.01215e-06
0.511133
2.14281e-06
0.511133
1.90298e-06
0.511134
1.82684e-06
0.511134
2.03826e-06
0.511135
2.17875e-06
0.511135
2.17035e-06
0.511135
2.13092e-06
0.511135
1.98067e-06
0.511135
1.94609e-06
0.511134
2.29154e-06
0.511133
2.45359e-06
0.511134
2.24592e-06
0.511134
2.12683e-06
0.511135
2.03013e-06
0.511135
1.84671e-06
0.511135
1.73522e-06
0.511135
1.63853e-06
0.511136
1.54263e-06
0.511137
1.56146e-06
0.511138
1.84502e-06
0.511138
2.44855e-06
0.511138
2.86343e-06
0.511138
2.57533e-06
0.511138
2.10499e-06
0.511138
2.04798e-06
0.511138
2.22176e-06
0.511139
2.42471e-06
0.511139
2.57661e-06
0.511139
2.51999e-06
0.511139
2.31718e-06
0.511139
2.04117e-06
0.511139
1.84923e-06
0.511139
1.84093e-06
0.511139
1.91666e-06
0.511139
2.19317e-06
0.511139
2.55779e-06
0.511139
2.58243e-06
0.51114
2.31967e-06
0.51114
2.10791e-06
0.51114
2.00393e-06
0.511141
1.87384e-06
0.511141
1.84054e-06
0.511141
2.03672e-06
0.511141
2.21431e-06
0.511141
2.08619e-06
0.511142
1.84551e-06
0.511142
1.84798e-06
0.511143
2.00093e-06
0.511143
2.02396e-06
0.511143
1.82593e-06
0.511143
1.62532e-06
0.511143
1.61015e-06
0.511143
1.53967e-06
0.511143
1.6099e-06
0.511144
2.03651e-06
0.511144
2.15827e-06
0.511145
1.90137e-06
0.511146
1.85693e-06
0.511146
1.93542e-06
0.511146
1.93255e-06
0.511146
1.95071e-06
0.511147
1.78371e-06
0.511147
1.51902e-06
0.511148
1.65331e-06
0.511148
2.01939e-06
0.511149
2.28084e-06
0.511149
2.30696e-06
0.511149
2.01767e-06
0.511149
1.97411e-06
0.511149
2.42661e-06
0.51115
2.79299e-06
0.51115
2.8801e-06
0.51115
2.74193e-06
0.51115
2.43892e-06
0.51115
2.24949e-06
0.51115
2.31979e-06
0.51115
2.47848e-06
0.51115
2.51661e-06
0.511151
2.35005e-06
0.511151
2.06364e-06
0.511151
1.84441e-06
0.511152
1.71005e-06
0.511152
1.45982e-06
0.511152
1.10712e-06
0.511152
1.04313e-06
0.511153
1.43924e-06
0.511153
1.70947e-06
0.511153
1.55031e-06
0.511154
1.4723e-06
0.511154
1.52511e-06
0.511155
1.49039e-06
0.511156
1.64135e-06
0.511156
1.93727e-06
0.511156
2.06504e-06
0.511155
2.04331e-06
0.511155
1.98819e-06
0.511155
1.95165e-06
0.511155
2.02302e-06
0.511156
2.18037e-06
0.511156
2.16289e-06
0.511156
1.96453e-06
0.511156
1.93579e-06
0.511157
2.10117e-06
0.511157
2.24177e-06
0.511157
2.31919e-06
0.511157
2.3113e-06
0.511157
2.29441e-06
0.511157
2.35687e-06
0.511157
2.32975e-06
0.511157
2.2064e-06
0.511157
2.14007e-06
0.511158
1.96083e-06
0.511158
1.69917e-06
0.511159
1.73171e-06
0.511159
2.07194e-06
0.511158
2.37339e-06
0.511158
2.40387e-06
0.511159
2.26723e-06
0.511159
2.1319e-06
0.51116
2.07526e-06
0.51116
2.20852e-06
0.51116
2.27467e-06
0.511161
2.08052e-06
0.511161
2.0248e-06
0.511161
2.19944e-06
0.511161
2.31578e-06
0.511161
2.32267e-06
0.511162
2.20824e-06
0.511162
2.0586e-06
0.511162
2.09538e-06
0.511162
2.22703e-06
0.511162
2.27946e-06
0.511162
2.3108e-06
0.511162
2.22393e-06
0.511163
2.05225e-06
0.511163
2.06859e-06
0.511163
2.11091e-06
0.511164
2.0096e-06
0.511164
1.98211e-06
0.511164
2.02075e-06
0.511164
2.12932e-06
0.511164
2.27538e-06
0.511164
2.18256e-06
0.511164
1.85052e-06
0.511164
1.61925e-06
0.511165
1.66241e-06
0.511166
1.81716e-06
0.511166
1.90192e-06
0.511167
1.91472e-06
0.511168
1.84734e-06
0.511168
1.73091e-06
0.511168
1.68997e-06
0.511168
1.7221e-06
0.511168
1.66236e-06
0.511168
1.4669e-06
0.511168
1.24405e-06
0.511169
1.15134e-06
0.51117
1.29242e-06
0.511171
1.472e-06
0.511172
1.62119e-06
0.511172
1.89795e-06
0.511172
2.05853e-06
0.511172
1.88724e-06
0.511171
1.61009e-06
0.511172
1.5124e-06
0.511172
1.64748e-06
0.511173
1.77488e-06
0.511173
1.76146e-06
0.511174
1.71384e-06
0.511174
1.81235e-06
0.511174
2.11725e-06
0.511174
2.31336e-06
0.511174
2.22589e-06
0.511174
2.14071e-06
0.511175
2.13091e-06
0.511175
2.07578e-06
0.511175
2.03317e-06
0.511176
2.0345e-06
0.511176
2.09594e-06
0.511176
2.14182e-06
0.511176
1.95673e-06
0.511177
1.69564e-06
0.511177
1.60645e-06
0.511177
1.64364e-06
0.511178
1.81224e-06
0.511178
1.97695e-06
0.511179
1.99753e-06
0.511179
2.01825e-06
0.511179
2.00239e-06
0.511179
1.88582e-06
0.511179
1.86061e-06
0.511179
1.97255e-06
0.51118
2.04058e-06
0.51118
2.05491e-06
0.511181
2.23949e-06
0.511181
2.57765e-06
0.511181
2.79173e-06
0.51118
2.83452e-06
0.51118
2.79912e-06
0.51118
2.6511e-06
0.51118
2.38652e-06
0.51118
2.1809e-06
0.511181
2.18618e-06
0.511181
2.32446e-06
0.511181
2.33046e-06
0.511181
2.11923e-06
0.511182
1.95887e-06
0.511182
1.94948e-06
0.511182
1.98316e-06
0.511182
2.02348e-06
0.511182
1.95809e-06
0.511182
1.86739e-06
0.511183
1.95863e-06
0.511183
2.14245e-06
0.511183
2.13589e-06
0.511184
1.93133e-06
0.511184
1.86518e-06
0.511184
1.96706e-06
0.511183
1.94137e-06
0.511184
1.74713e-06
0.511184
1.74548e-06
0.511184
1.94478e-06
0.511184
2.11358e-06
0.511184
2.20013e-06
2.11214e-06
0.511126
2.42708e-08
0.511126
2.6885e-07
0.511126
7.02093e-07
0.511127
8.74569e-07
0.511127
9.87246e-07
0.511127
1.31648e-06
0.511126
1.64616e-06
0.511127
1.78278e-06
0.511127
1.88461e-06
0.511127
1.74096e-06
0.511128
1.37217e-06
0.511128
1.31819e-06
0.511128
1.6486e-06
0.511128
1.89679e-06
0.511128
1.84917e-06
0.511129
1.48211e-06
0.511129
1.20943e-06
0.51113
1.4289e-06
0.51113
1.98537e-06
0.51113
2.23582e-06
0.51113
1.77959e-06
0.511131
1.55784e-06
0.511131
1.87199e-06
0.511131
1.9466e-06
0.511131
1.70534e-06
0.511131
1.82729e-06
0.511131
2.13146e-06
0.511131
1.85833e-06
0.511132
1.52527e-06
0.511132
1.81734e-06
0.511132
2.07524e-06
0.511132
1.801e-06
0.511133
1.47989e-06
0.511133
1.60975e-06
0.511134
2.00121e-06
0.511134
2.14959e-06
0.511134
1.9575e-06
0.511135
1.77213e-06
0.511135
1.63242e-06
0.511135
1.45114e-06
0.511136
1.29465e-06
0.511136
1.22139e-06
0.511136
1.47541e-06
0.511136
2.00048e-06
0.511136
2.18057e-06
0.511136
1.96565e-06
0.511137
1.80458e-06
0.511138
1.73157e-06
0.511138
1.69536e-06
0.511139
1.83475e-06
0.511139
2.07664e-06
0.511139
2.38113e-06
0.511139
2.66133e-06
0.511139
2.571e-06
0.511139
2.16866e-06
0.511139
1.79902e-06
0.511139
1.5448e-06
0.51114
1.59685e-06
0.511139
2.06185e-06
0.511139
2.4345e-06
0.511139
2.29006e-06
0.51114
1.9132e-06
0.511141
1.67e-06
0.511141
1.73076e-06
0.511141
2.05728e-06
0.511141
2.22739e-06
0.51114
2.08221e-06
0.511141
1.69052e-06
0.511142
1.33534e-06
0.511142
1.50016e-06
0.511142
1.80206e-06
0.511142
1.80882e-06
0.511143
1.76876e-06
0.511143
1.81637e-06
0.511143
1.88293e-06
0.511143
1.79349e-06
0.511143
1.54801e-06
0.511143
1.47878e-06
0.511143
1.64255e-06
0.511143
1.66446e-06
0.511144
1.52851e-06
0.511144
1.4959e-06
0.511145
1.40535e-06
0.511145
1.35071e-06
0.511146
1.48177e-06
0.511146
1.52684e-06
0.511146
1.60467e-06
0.511146
1.76482e-06
0.511146
1.82449e-06
0.511146
1.91897e-06
0.511146
1.99071e-06
0.511146
1.93255e-06
0.511147
1.98082e-06
0.511146
2.26634e-06
0.511146
2.53568e-06
0.511146
2.57082e-06
0.511147
2.4601e-06
0.511147
2.28785e-06
0.511147
2.28118e-06
0.511147
2.43491e-06
0.511147
2.39127e-06
0.511147
2.18628e-06
0.511148
2.04933e-06
0.511148
2.00459e-06
0.511148
1.86716e-06
0.511149
1.47334e-06
0.511149
1.09347e-06
0.51115
1.00215e-06
0.51115
1.06095e-06
0.51115
1.07987e-06
0.51115
1.07501e-06
0.511151
1.00541e-06
0.511152
8.98374e-07
0.511152
1.03974e-06
0.511152
1.33621e-06
0.511152
1.37809e-06
0.511153
1.20339e-06
0.511154
1.11994e-06
0.511154
1.33073e-06
0.511155
1.76786e-06
0.511154
2.10808e-06
0.511154
2.03332e-06
0.511155
1.70395e-06
0.511155
1.66742e-06
0.511156
1.87776e-06
0.511156
1.93689e-06
0.511156
1.85719e-06
0.511156
1.78012e-06
0.511156
1.78862e-06
0.511157
1.88889e-06
0.511157
2.04629e-06
0.511157
2.12537e-06
0.511158
2.00887e-06
0.511158
1.96442e-06
0.511158
2.13337e-06
0.511158
2.22134e-06
0.511158
2.03497e-06
0.511158
1.70088e-06
0.511158
1.55974e-06
0.511158
1.7688e-06
0.511159
2.01564e-06
0.511159
2.06409e-06
0.511159
2.07841e-06
0.511159
2.10474e-06
0.511159
1.97228e-06
0.51116
1.80724e-06
0.51116
1.77596e-06
0.511161
1.69711e-06
0.511161
1.63614e-06
0.511161
1.89656e-06
0.511161
2.37526e-06
0.511161
2.55077e-06
0.511161
2.31761e-06
0.511161
1.9704e-06
0.511162
1.63319e-06
0.511162
1.5003e-06
0.511163
1.62819e-06
0.511163
1.81793e-06
0.511164
2.03583e-06
0.511164
2.05814e-06
0.511164
1.84708e-06
0.511164
1.80874e-06
0.511164
1.89789e-06
0.511164
1.8304e-06
0.511165
1.66188e-06
0.511165
1.55432e-06
0.511166
1.64339e-06
0.511166
1.85657e-06
0.511166
1.90997e-06
0.511166
1.75695e-06
0.511166
1.6443e-06
0.511166
1.58662e-06
0.511167
1.46268e-06
0.511167
1.43143e-06
0.511168
1.55419e-06
0.511168
1.52702e-06
0.511168
1.25292e-06
0.511169
1.10916e-06
0.511169
1.26207e-06
0.511169
1.38785e-06
0.511169
1.28091e-06
0.511169
1.06779e-06
0.51117
1.066e-06
0.51117
1.29444e-06
0.51117
1.38141e-06
0.51117
1.34908e-06
0.511171
1.42115e-06
0.511171
1.56321e-06
0.511171
1.66028e-06
0.511171
1.56162e-06
0.511172
1.37404e-06
0.511172
1.3096e-06
0.511172
1.355e-06
0.511173
1.56915e-06
0.511173
1.92736e-06
0.511172
2.21565e-06
0.511172
2.25884e-06
0.511173
1.951e-06
0.511173
1.57092e-06
0.511174
1.4925e-06
0.511174
1.59315e-06
0.511175
1.70343e-06
0.511175
1.82374e-06
0.511175
1.85508e-06
0.511176
1.8321e-06
0.511176
1.75126e-06
0.511176
1.56347e-06
0.511176
1.46883e-06
0.511176
1.56591e-06
0.511176
1.70887e-06
0.511176
1.77263e-06
0.511177
1.77782e-06
0.511177
1.81261e-06
0.511177
1.80138e-06
0.511177
1.63203e-06
0.511178
1.4446e-06
0.511178
1.53042e-06
0.511178
1.88318e-06
0.511178
2.16983e-06
0.511178
2.32276e-06
0.511178
2.51037e-06
0.511178
2.63507e-06
0.511179
2.53736e-06
0.511179
2.33338e-06
0.51118
2.21168e-06
0.51118
2.23304e-06
0.51118
2.32951e-06
0.511179
2.29052e-06
0.51118
2.13908e-06
0.51118
2.10485e-06
0.51118
2.04422e-06
0.51118
1.83682e-06
0.51118
1.70239e-06
0.511181
1.73785e-06
0.511181
1.73765e-06
0.511181
1.5215e-06
0.511182
1.47099e-06
0.511182
1.82452e-06
0.511182
2.0698e-06
0.511182
1.88616e-06
0.511182
1.53786e-06
0.511183
1.36918e-06
0.511184
1.39814e-06
0.511184
1.47832e-06
0.511184
1.52416e-06
0.511184
1.59777e-06
0.511185
1.66487e-06
0.511185
1.63277e-06
0.511186
1.77981e-06
1.81223e-06
0.511126
3.46567e-08
0.511126
2.52066e-07
0.511126
4.558e-07
0.511126
7.03369e-07
0.511126
1.04751e-06
0.511126
1.25394e-06
0.511127
1.14692e-06
0.511128
1.00864e-06
0.511128
1.15751e-06
0.511129
1.14268e-06
0.511129
1.19645e-06
0.511129
1.60847e-06
0.511129
1.86555e-06
0.511129
1.81669e-06
0.511129
1.68399e-06
0.511129
1.49674e-06
0.511129
1.31579e-06
0.511129
1.2131e-06
0.51113
1.18899e-06
0.511131
1.19507e-06
0.511131
1.28623e-06
0.511131
1.54671e-06
0.511131
1.74357e-06
0.511132
1.86167e-06
0.511131
1.81252e-06
0.511132
1.48286e-06
0.511133
1.2694e-06
0.511133
1.48714e-06
0.511133
1.55035e-06
0.511134
1.28779e-06
0.511134
1.17896e-06
0.511135
1.22839e-06
0.511135
1.46385e-06
0.511135
1.77898e-06
0.511135
1.90457e-06
0.511135
1.89502e-06
0.511135
1.7725e-06
0.511136
1.58824e-06
0.511136
1.47735e-06
0.511136
1.38555e-06
0.511136
1.26024e-06
0.511136
1.26354e-06
0.511136
1.38336e-06
0.511136
1.53574e-06
0.511137
1.71376e-06
0.511137
1.79162e-06
0.511137
1.67995e-06
0.511137
1.58428e-06
0.511137
1.70887e-06
0.511137
1.92814e-06
0.511137
2.04469e-06
0.511137
2.08767e-06
0.511138
2.07989e-06
0.511139
2.08412e-06
0.511139
2.00331e-06
0.511139
1.69101e-06
0.511139
1.43975e-06
0.511139
1.54078e-06
0.511139
1.80436e-06
0.51114
1.83291e-06
0.511141
1.56647e-06
0.511141
1.41647e-06
0.511141
1.42906e-06
0.511142
1.44069e-06
0.511142
1.6917e-06
0.511142
1.88789e-06
0.511143
1.8249e-06
0.511142
1.85854e-06
0.511142
1.75868e-06
0.511142
1.64361e-06
0.511142
1.87339e-06
0.511142
1.90333e-06
0.511142
1.60265e-06
0.511142
1.47215e-06
0.511143
1.43404e-06
0.511143
1.31052e-06
0.511143
1.41954e-06
0.511143
1.57744e-06
0.511143
1.38559e-06
0.511144
1.15395e-06
0.511144
1.03895e-06
0.511145
9.48384e-07
0.511145
9.65293e-07
0.511146
1.01893e-06
0.511146
1.05945e-06
0.511147
1.06523e-06
0.511147
1.02792e-06
0.511148
1.13596e-06
0.511148
1.47752e-06
0.511148
1.73025e-06
0.511149
1.74218e-06
0.511149
1.88613e-06
0.511148
2.0976e-06
0.511149
2.18371e-06
0.511149
2.36909e-06
0.511149
2.5736e-06
0.511149
2.5169e-06
0.511149
2.23167e-06
0.511149
2.03357e-06
0.511149
2.2055e-06
0.511149
2.3547e-06
0.511149
2.1194e-06
0.51115
1.84609e-06
0.51115
1.77893e-06
0.51115
1.64721e-06
0.51115
1.27636e-06
0.51115
8.69041e-07
0.511151
6.04543e-07
0.511151
5.76116e-07
0.511152
6.47384e-07
0.511152
6.8006e-07
0.511152
8.85993e-07
0.511152
1.04519e-06
0.511152
9.39355e-07
0.511153
9.71043e-07
0.511153
1.06667e-06
0.511153
9.15771e-07
0.511153
8.75948e-07
0.511154
1.1918e-06
0.511154
1.53504e-06
0.511154
1.73573e-06
0.511154
1.75465e-06
0.511155
1.59871e-06
0.511155
1.53876e-06
0.511155
1.5511e-06
0.511155
1.45514e-06
0.511156
1.51777e-06
0.511156
1.73677e-06
0.511156
1.83993e-06
0.511156
1.79897e-06
0.511156
1.69904e-06
0.511157
1.725e-06
0.511157
1.87137e-06
0.511157
1.87084e-06
0.511157
1.71555e-06
0.511158
1.68157e-06
0.511158
1.84735e-06
0.511158
1.96727e-06
0.511157
1.93611e-06
0.511157
1.93084e-06
0.511157
1.92054e-06
0.511158
1.58559e-06
0.511159
1.10478e-06
0.51116
1.08405e-06
0.51116
1.35369e-06
0.511161
1.43904e-06
0.511161
1.53553e-06
0.511161
1.77953e-06
0.511161
2.0275e-06
0.51116
2.20918e-06
0.51116