/*--------------------------------*- C++ -*----------------------------------*\
| =========                 |                                                 |
| \\      /  F ield         | OpenFOAM: The Open Source CFD Toolbox           |
|  \\    /   O peration     | Version:  2406                                  |
|   \\  /    A nd           | Website:  www.openfoam.com                      |
|    \\/     M anipulation  |                                                 |
\*---------------------------------------------------------------------------*/
FoamFile
{
    version     2.0;
    format      ascii;
    arch        "LSB;label=32;scalar=64";
    class       volVectorField;
    location    "1.9";
    object      U;
}
// * * * * * * * * * * * * * * * * * * * * * * * * * * * * * * * * * * * * * //

dimensions      [0 1 -1 0 0 0 0];

internalField   nonuniform List<vector> 
6250
(
(50.5464 9.94889e-05 0)
(85.4591 0.000535247 0)
(73.2883 0.000817038 0)
(60.6415 0.000789659 0)
(59.8966 0.00065676 0)
(63.3561 0.000622146 0)
(64.8658 0.000709398 0)
(64.4144 0.000808874 0)
(63.7972 0.000837665 0)
(63.6944 0.000806264 0)
(63.837 0.000787866 0)
(63.9212 0.000822012 0)
(63.9106 0.000874155 0)
(63.881 0.00088132 0)
(63.8722 0.000839933 0)
(63.877 0.000802604 0)
(63.8808 0.000790134 0)
(63.8804 0.000816449 0)
(63.8784 0.000850355 0)
(63.8772 0.000850563 0)
(63.8767 0.000832823 0)
(63.8763 0.000814326 0)
(63.8757 0.000808021 0)
(63.875 0.000822309 0)
(63.8742 0.000824779 0)
(63.8736 0.000809875 0)
(63.8731 0.00082564 0)
(63.8723 0.000861048 0)
(63.8716 0.000868375 0)
(63.8709 0.000863302 0)
(63.8702 0.000883141 0)
(63.8695 0.000911154 0)
(63.8689 0.000911959 0)
(63.8682 0.000902561 0)
(63.8674 0.00092087 0)
(63.8667 0.000954369 0)
(63.866 0.000970807 0)
(63.8651 0.000966294 0)
(63.8645 0.000950309 0)
(63.8638 0.000933383 0)
(63.8631 0.000920561 0)
(63.8625 0.000896731 0)
(63.8618 0.00085787 0)
(63.8612 0.000843647 0)
(63.8606 0.000869967 0)
(63.8599 0.000898747 0)
(63.8593 0.000924087 0)
(63.8586 0.000966645 0)
(63.8578 0.000995916 0)
(63.8571 0.000977714 0)
(63.8564 0.000927656 0)
(63.8557 0.000875094 0)
(63.8551 0.0008557 0)
(63.8544 0.000873257 0)
(63.8537 0.000890974 0)
(63.853 0.000906303 0)
(63.8523 0.000928209 0)
(63.8516 0.000948691 0)
(63.8509 0.000968118 0)
(63.8502 0.000976638 0)
(63.8495 0.000983323 0)
(63.8488 0.0010031 0)
(63.848 0.00100573 0)
(63.8473 0.00096592 0)
(63.8467 0.000891918 0)
(63.8461 0.000814117 0)
(63.8456 0.000776352 0)
(63.845 0.000803984 0)
(63.8443 0.000877932 0)
(63.8435 0.000957643 0)
(63.8428 0.00101826 0)
(63.842 0.00104069 0)
(63.8412 0.00101602 0)
(63.8405 0.000959431 0)
(63.8399 0.000896119 0)
(63.8393 0.000858458 0)
(63.8388 0.000863378 0)
(63.8381 0.000894524 0)
(63.8375 0.000923659 0)
(63.8368 0.000946008 0)
(63.8361 0.000979219 0)
(63.8354 0.0010259 0)
(63.8346 0.00105967 0)
(63.8338 0.00104568 0)
(63.8331 0.00100012 0)
(63.8325 0.000968755 0)
(63.8319 0.000949539 0)
(63.8312 0.00093547 0)
(63.8305 0.000928397 0)
(63.8299 0.00092011 0)
(63.8292 0.000931732 0)
(63.8286 0.000972648 0)
(63.8278 0.00100163 0)
(63.8271 0.000983162 0)
(63.8265 0.000938712 0)
(63.8258 0.00091538 0)
(63.8252 0.000915421 0)
(63.8245 0.000907164 0)
(63.8238 0.000879616 0)
(63.8232 0.000855109 0)
(63.8225 0.000851491 0)
(63.8218 0.000862231 0)
(63.8212 0.000893942 0)
(63.8205 0.00095326 0)
(63.8197 0.00101892 0)
(63.819 0.00105731 0)
(63.8182 0.00104429 0)
(63.8175 0.000996523 0)
(63.8169 0.000937064 0)
(63.8163 0.000869479 0)
(63.8158 0.000832953 0)
(63.8152 0.000870602 0)
(63.8145 0.000945439 0)
(63.8138 0.000985316 0)
(63.813 0.000979915 0)
(63.8123 0.000966 0)
(63.8116 0.000962203 0)
(63.8109 0.000969739 0)
(63.8103 0.000980412 0)
(63.8096 0.000972207 0)
(63.809 0.000931342 0)
(63.8083 0.00087685 0)
(63.8077 0.00084531 0)
(63.8071 0.000848564 0)
(63.8064 0.000883044 0)
(63.8057 0.000941503 0)
(63.805 0.000996928 0)
(63.8042 0.00102892 0)
(63.8035 0.00103712 0)
(63.8027 0.00102791 0)
(63.802 0.0010137 0)
(63.8013 0.000996328 0)
(63.8006 0.000961444 0)
(63.7999 0.000905076 0)
(63.7993 0.000852871 0)
(63.7987 0.000840446 0)
(63.7981 0.00088051 0)
(63.7974 0.000948216 0)
(63.7967 0.00100075 0)
(63.796 0.00103426 0)
(63.7953 0.00106918 0)
(63.7945 0.00108599 0)
(63.7937 0.00106047 0)
(63.793 0.00100728 0)
(63.7923 0.000950299 0)
(63.7917 0.000906609 0)
(63.7911 0.000893949 0)
(63.7904 0.000916737 0)
(63.7898 0.000953803 0)
(63.7891 0.000983419 0)
(63.7884 0.00100167 0)
(63.7877 0.00101161 0)
(63.7869 0.00101097 0)
(63.7862 0.000995769 0)
(63.7855 0.000978651 0)
(63.7849 0.000968056 0)
(63.7842 0.000953919 0)
(63.7835 0.000935553 0)
(63.7829 0.0009243 0)
(63.7822 0.000924989 0)
(63.7815 0.000924087 0)
(63.7808 0.000920095 0)
(63.7802 0.000935265 0)
(63.7795 0.000964855 0)
(63.7788 0.000990467 0)
(63.7781 0.00101238 0)
(63.7774 0.00103145 0)
(63.7767 0.0010392 0)
(63.776 0.00101422 0)
(63.7753 0.000954705 0)
(63.7747 0.000908714 0)
(63.7741 0.000921592 0)
(63.7734 0.000974728 0)
(63.7727 0.00102362 0)
(63.772 0.00106282 0)
(63.7713 0.00109241 0)
(63.7705 0.00107953 0)
(63.7698 0.00101852 0)
(63.7692 0.000958103 0)
(63.7685 0.000932801 0)
(63.7679 0.000936208 0)
(63.7672 0.000949066 0)
(63.7665 0.000956471 0)
(63.7659 0.000968789 0)
(63.7653 0.000997489 0)
(63.7646 0.00102311 0)
(63.7639 0.00103473 0)
(63.7632 0.00103516 0)
(63.7624 0.00102006 0)
(63.7617 0.000996255 0)
(63.761 0.000980676 0)
(63.7603 0.000990585 0)
(63.7597 0.00101858 0)
(63.759 0.00101886 0)
(63.7583 0.000972913 0)
(63.7577 0.000920188 0)
(63.7571 0.000909847 0)
(63.7564 0.000956085 0)
(63.7556 0.00101794 0)
(63.7548 0.00105148 0)
(63.7541 0.00106429 0)
(63.7534 0.00105921 0)
(63.7527 0.00101296 0)
(63.7521 0.000935257 0)
(63.7515 0.00087032 0)
(63.7509 0.000857348 0)
(63.7503 0.000894125 0)
(63.7496 0.000945317 0)
(63.7489 0.000992515 0)
(63.7482 0.00103592 0)
(63.7475 0.00106915 0)
(63.7468 0.00107593 0)
(63.7461 0.00105688 0)
(63.7453 0.00103892 0)
(63.7446 0.0010288 0)
(63.7439 0.00101742 0)
(63.7433 0.00101122 0)
(63.7426 0.00101252 0)
(63.7419 0.00101447 0)
(63.7412 0.00101021 0)
(63.7405 0.00100217 0)
(63.7398 0.00100431 0)
(63.7391 0.00102085 0)
(63.7384 0.00104769 0)
(63.7376 0.00107929 0)
(63.7368 0.00109607 0)
(63.7361 0.00107585 0)
(63.7354 0.00102161 0)
(63.7348 0.000960824 0)
(63.7342 0.00092708 0)
(63.7336 0.000930924 0)
(63.7329 0.000949511 0)
(63.7322 0.000974159 0)
(63.7315 0.00101286 0)
(63.7307 0.00104876 0)
(63.73 0.00106273 0)
(63.7293 0.0010418 0)
(63.7286 0.000990455 0)
(63.728 0.000946739 0)
(63.7273 0.00092871 0)
(63.7267 0.00092654 0)
(63.726 0.000939121 0)
(63.7254 0.00096824 0)
(63.7247 0.00099751 0)
(63.724 0.000996541 0)
(63.7234 0.00096024 0)
(63.7227 0.000924219 0)
(63.7221 0.000902879 0)
(63.7216 0.000926781 0)
(63.7205 0.000922997 0)
(50.5465 8.33961e-05 0)
(85.4602 0.00040956 0)
(73.2914 0.000647796 0)
(60.6461 0.000630506 0)
(59.902 0.000509613 0)
(63.3618 0.00046675 0)
(64.8724 0.000520801 0)
(64.4222 0.000575013 0)
(63.8062 0.000559357 0)
(63.7046 0.000484979 0)
(63.8482 0.000456795 0)
(63.9335 0.000511794 0)
(63.9241 0.000559148 0)
(63.8958 0.000554177 0)
(63.888 0.000512369 0)
(63.8938 0.000478444 0)
(63.8985 0.000467562 0)
(63.8989 0.00046032 0)
(63.898 0.000440231 0)
(63.898 0.000431012 0)
(63.8985 0.000470113 0)
(63.8991 0.000518764 0)
(63.8993 0.000516807 0)
(63.8996 0.000479394 0)
(63.9 0.000448671 0)
(63.9003 0.000443229 0)
(63.9006 0.000471336 0)
(63.901 0.000512579 0)
(63.9013 0.000532887 0)
(63.9016 0.000503176 0)
(63.9019 0.00046176 0)
(63.9024 0.000467002 0)
(63.9028 0.000501917 0)
(63.9032 0.000521926 0)
(63.9036 0.000521558 0)
(63.9041 0.000520011 0)
(63.9046 0.000512847 0)
(63.905 0.000474001 0)
(63.9054 0.000419768 0)
(63.9057 0.000397124 0)
(63.906 0.000413201 0)
(63.9065 0.00043319 0)
(63.9068 0.000422168 0)
(63.907 0.000395407 0)
(63.9074 0.000386135 0)
(63.9078 0.000392154 0)
(63.9081 0.00042309 0)
(63.9085 0.00048363 0)
(63.909 0.000517423 0)
(63.9093 0.000492187 0)
(63.9097 0.00045166 0)
(63.91 0.000425268 0)
(63.9102 0.000418673 0)
(63.9106 0.000449119 0)
(63.911 0.000497121 0)
(63.9113 0.000521746 0)
(63.9117 0.000497178 0)
(63.9122 0.000431141 0)
(63.9126 0.000385386 0)
(63.9131 0.000397279 0)
(63.9134 0.000440875 0)
(63.9138 0.00047223 0)
(63.9142 0.000465586 0)
(63.9146 0.000428597 0)
(63.9149 0.000381915 0)
(63.9152 0.000356622 0)
(63.9154 0.000364947 0)
(63.9157 0.000399238 0)
(63.9161 0.000453292 0)
(63.9165 0.00049512 0)
(63.917 0.000513902 0)
(63.9176 0.000512705 0)
(63.9179 0.000478657 0)
(63.9182 0.000420551 0)
(63.9185 0.000359732 0)
(63.9187 0.000328783 0)
(63.919 0.000339922 0)
(63.9193 0.0003678 0)
(63.9198 0.000384485 0)
(63.9202 0.000383443 0)
(63.9206 0.000398836 0)
(63.9211 0.000433786 0)
(63.9215 0.000441477 0)
(63.922 0.000409536 0)
(63.9223 0.000371966 0)
(63.9226 0.000365231 0)
(63.9231 0.000382507 0)
(63.9234 0.000398166 0)
(63.9237 0.000398544 0)
(63.924 0.000383759 0)
(63.9243 0.000380911 0)
(63.9247 0.000399139 0)
(63.9251 0.000416612 0)
(63.9255 0.000406291 0)
(63.9258 0.000372145 0)
(63.9262 0.000370019 0)
(63.9266 0.000409543 0)
(63.9269 0.000445051 0)
(63.9272 0.000460574 0)
(63.9274 0.000461307 0)
(63.9277 0.000458257 0)
(63.928 0.000454813 0)
(63.9283 0.000441303 0)
(63.9287 0.000426629 0)
(63.9292 0.000435049 0)
(63.9297 0.000451397 0)
(63.9301 0.000426714 0)
(63.9305 0.000370533 0)
(63.9309 0.000326792 0)
(63.9312 0.00030286 0)
(63.9314 0.00030682 0)
(63.9318 0.000351831 0)
(63.9322 0.000419743 0)
(63.9327 0.000458449 0)
(63.9331 0.000448552 0)
(63.9335 0.000428138 0)
(63.9339 0.000406498 0)
(63.9343 0.000374305 0)
(63.9346 0.000360007 0)
(63.9351 0.000377693 0)
(63.9354 0.000405598 0)
(63.9357 0.000424094 0)
(63.936 0.000426934 0)
(63.9363 0.000416654 0)
(63.9366 0.000416704 0)
(63.9371 0.000442613 0)
(63.9375 0.000464497 0)
(63.938 0.000461908 0)
(63.9384 0.000449172 0)
(63.9388 0.000436852 0)
(63.9392 0.000429951 0)
(63.9396 0.000428097 0)
(63.94 0.000428066 0)
(63.9404 0.000427427 0)
(63.9405 0.000417315 0)
(63.9407 0.000400759 0)
(63.941 0.000400711 0)
(63.9414 0.000415827 0)
(63.9418 0.000403488 0)
(63.9423 0.000364463 0)
(63.9428 0.000358824 0)
(63.9433 0.000397369 0)
(63.9437 0.00043239 0)
(63.944 0.000435687 0)
(63.9443 0.000422797 0)
(63.9445 0.000413161 0)
(63.9447 0.000403703 0)
(63.945 0.000390873 0)
(63.9454 0.000372736 0)
(63.9458 0.00035632 0)
(63.9463 0.000363341 0)
(63.9467 0.000397014 0)
(63.9472 0.000430982 0)
(63.9476 0.00043722 0)
(63.9479 0.000423149 0)
(63.9483 0.000407936 0)
(63.9486 0.000391273 0)
(63.949 0.000380105 0)
(63.9493 0.000389272 0)
(63.9497 0.000420903 0)
(63.95 0.000442229 0)
(63.9503 0.000424062 0)
(63.9506 0.000395232 0)
(63.951 0.000377733 0)
(63.9514 0.000367497 0)
(63.9519 0.000366199 0)
(63.9523 0.000366496 0)
(63.9527 0.000377384 0)
(63.9531 0.000404066 0)
(63.9534 0.000413634 0)
(63.9536 0.000390166 0)
(63.9539 0.00036153 0)
(63.9543 0.000346387 0)
(63.9547 0.000331431 0)
(63.9551 0.000318078 0)
(63.9556 0.000329664 0)
(63.9561 0.000361655 0)
(63.9565 0.000384202 0)
(63.9568 0.000391958 0)
(63.9572 0.000400328 0)
(63.9576 0.000404426 0)
(63.9579 0.000386517 0)
(63.9583 0.000338859 0)
(63.9586 0.000289967 0)
(63.959 0.000287249 0)
(63.9594 0.000327165 0)
(63.9598 0.000377865 0)
(63.9603 0.000420629 0)
(63.9608 0.000437341 0)
(63.9612 0.000424189 0)
(63.9615 0.000389587 0)
(63.9618 0.000353545 0)
(63.9622 0.000340063 0)
(63.9626 0.000339814 0)
(63.9629 0.000339927 0)
(63.9633 0.000351645 0)
(63.9636 0.000385788 0)
(63.964 0.000436807 0)
(63.9644 0.000458584 0)
(63.9648 0.000418854 0)
(63.9652 0.000371395 0)
(63.9657 0.000360932 0)
(63.9661 0.000365697 0)
(63.9664 0.000368963 0)
(63.9666 0.0003688 0)
(63.9668 0.000370063 0)
(63.9671 0.000373971 0)
(63.9675 0.000365107 0)
(63.9679 0.000350343 0)
(63.9683 0.000342236 0)
(63.9688 0.000341775 0)
(63.9693 0.000355304 0)
(63.9697 0.000373449 0)
(63.9701 0.000387292 0)
(63.9705 0.000395043 0)
(63.9709 0.000388578 0)
(63.9712 0.000372588 0)
(63.9716 0.000355836 0)
(63.9719 0.000345357 0)
(63.9723 0.000349783 0)
(63.9727 0.000369532 0)
(63.9731 0.000394673 0)
(63.9735 0.000411482 0)
(63.9739 0.000421104 0)
(63.9743 0.000430637 0)
(63.9747 0.000429867 0)
(63.9751 0.000400166 0)
(63.9754 0.000343359 0)
(63.9757 0.000296438 0)
(63.9759 0.000299113 0)
(63.9762 0.000348623 0)
(63.9767 0.000396549 0)
(63.977 0.000410224 0)
(63.9774 0.000403511 0)
(63.978 0.000397202 0)
(63.9784 0.000402376 0)
(63.9788 0.00039647 0)
(63.9792 0.000361161 0)
(63.9794 0.000340968 0)
(63.9798 0.000357649 0)
(63.98 0.000375899 0)
(63.9803 0.000367406 0)
(63.9807 0.00034287 0)
(63.9811 0.000337521 0)
(63.9816 0.000351005 0)
(63.9819 0.000352432 0)
(63.9822 0.00034838 0)
(63.9826 0.000356292 0)
(63.9828 0.000398728 0)
(63.9833 0.000394056 0)
(50.5466 1.03243e-05 0)
(85.46 -3.35161e-05 0)
(73.2902 -5.25777e-05 0)
(60.6444 2.45657e-05 0)
(59.9001 0.000144155 0)
(63.36 0.000197119 0)
(64.8704 0.000168854 0)
(64.4197 0.000125964 0)
(63.8033 0.000115656 0)
(63.7013 0.000137349 0)
(63.8443 0.000153273 0)
(63.9293 0.000121711 0)
(63.9195 4.47822e-05 0)
(63.8906 -1.73397e-07 0)
(63.8828 3.13582e-05 0)
(63.8883 0.000118025 0)
(63.8927 0.000188378 0)
(63.8929 0.000168463 0)
(63.8915 0.000119373 0)
(63.8909 0.000127134 0)
(63.891 0.000176977 0)
(63.8914 0.000213381 0)
(63.8916 0.000205168 0)
(63.8916 0.000200873 0)
(63.8914 0.000233469 0)
(63.8914 0.000236558 0)
(63.8915 0.000203439 0)
(63.8916 0.000195476 0)
(63.8916 0.000222334 0)
(63.8918 0.000224225 0)
(63.8916 0.000179186 0)
(63.8916 0.000123625 0)
(63.8917 8.48673e-05 0)
(63.8918 6.72828e-05 0)
(63.8918 5.67811e-05 0)
(63.8919 7.63498e-05 0)
(63.892 0.00015365 0)
(63.8919 0.000219384 0)
(63.8919 0.000230851 0)
(63.892 0.00021097 0)
(63.892 0.000157595 0)
(63.8921 0.000128989 0)
(63.8922 0.00016972 0)
(63.8921 0.000215352 0)
(63.8922 0.000241669 0)
(63.8921 0.000257169 0)
(63.892 0.000235226 0)
(63.892 0.000187633 0)
(63.8921 0.000154539 0)
(63.8922 0.000157525 0)
(63.8922 0.000213346 0)
(63.8922 0.000283594 0)
(63.8922 0.0002901 0)
(63.8922 0.000247182 0)
(63.8922 0.00019919 0)
(63.8923 0.000143763 0)
(63.8925 0.000105347 0)
(63.8925 0.000103961 0)
(63.8924 0.000131269 0)
(63.8924 0.000180042 0)
(63.8924 0.000227131 0)
(63.8924 0.000240835 0)
(63.8924 0.000220416 0)
(63.8925 0.000207551 0)
(63.8925 0.000219116 0)
(63.8925 0.000245382 0)
(63.8927 0.000265319 0)
(63.8926 0.000236753 0)
(63.8926 0.000179914 0)
(63.8926 0.000142193 0)
(63.8926 0.000140588 0)
(63.8927 0.000182076 0)
(63.8928 0.000226852 0)
(63.8928 0.000228611 0)
(63.8929 0.000203571 0)
(63.893 0.000192056 0)
(63.893 0.000187547 0)
(63.8931 0.000175563 0)
(63.8932 0.000177521 0)
(63.8932 0.000199905 0)
(63.8931 0.000239986 0)
(63.8931 0.000261134 0)
(63.8931 0.000236627 0)
(63.8931 0.000218416 0)
(63.8931 0.00021132 0)
(63.8932 0.000200383 0)
(63.8932 0.000216244 0)
(63.8933 0.000244989 0)
(63.8933 0.000265701 0)
(63.8933 0.000280666 0)
(63.8934 0.000279207 0)
(63.8934 0.000255106 0)
(63.8934 0.000223436 0)
(63.8935 0.000211516 0)
(63.8935 0.00022722 0)
(63.8933 0.000260439 0)
(63.8933 0.000287712 0)
(63.8934 0.000288101 0)
(63.8934 0.00027189 0)
(63.8935 0.000253231 0)
(63.8936 0.00024615 0)
(63.8936 0.000253915 0)
(63.8936 0.000249202 0)
(63.8935 0.000217667 0)
(63.8935 0.000183832 0)
(63.8935 0.000174522 0)
(63.8936 0.000166371 0)
(63.8936 0.000136288 0)
(63.8938 0.000127556 0)
(63.8938 0.000164891 0)
(63.8939 0.000203627 0)
(63.8939 0.00020803 0)
(63.8939 0.000198788 0)
(63.894 0.000199448 0)
(63.8941 0.000201809 0)
(63.8941 0.000210939 0)
(63.8941 0.000224011 0)
(63.8941 0.000197554 0)
(63.8941 0.000130526 0)
(63.8942 9.68267e-05 0)
(63.8943 0.000140754 0)
(63.8944 0.000223042 0)
(63.8945 0.000277589 0)
(63.8945 0.00026902 0)
(63.8945 0.000230129 0)
(63.8945 0.000216254 0)
(63.8945 0.000212449 0)
(63.8945 0.000196076 0)
(63.8946 0.000190547 0)
(63.8946 0.000196723 0)
(63.8946 0.000198916 0)
(63.8946 0.000195452 0)
(63.8946 0.000200846 0)
(63.8947 0.000238251 0)
(63.8948 0.000289229 0)
(63.8949 0.000309111 0)
(63.8949 0.000288443 0)
(63.895 0.000249605 0)
(63.895 0.000210923 0)
(63.895 0.000174471 0)
(63.8949 0.000159719 0)
(63.8949 0.000196131 0)
(63.895 0.000259122 0)
(63.895 0.000301914 0)
(63.8951 0.000327559 0)
(63.8952 0.000342521 0)
(63.8952 0.000322432 0)
(63.8953 0.000268366 0)
(63.8953 0.000212285 0)
(63.8953 0.000184409 0)
(63.8952 0.000192069 0)
(63.8951 0.000219341 0)
(63.8951 0.000249946 0)
(63.8952 0.000253532 0)
(63.8952 0.000216415 0)
(63.8953 0.000181365 0)
(63.8954 0.000181518 0)
(63.8954 0.000208393 0)
(63.8954 0.000241799 0)
(63.8954 0.000274814 0)
(63.8954 0.000303672 0)
(63.8955 0.000300416 0)
(63.8955 0.000262169 0)
(63.8955 0.000222233 0)
(63.8955 0.000201319 0)
(63.8955 0.000204668 0)
(63.8955 0.000210643 0)
(63.8955 0.000205884 0)
(63.8956 0.000222983 0)
(63.8958 0.000269556 0)
(63.8959 0.000301214 0)
(63.8959 0.0002951 0)
(63.896 0.000278976 0)
(63.8959 0.000268676 0)
(63.8958 0.000242564 0)
(63.8957 0.000201649 0)
(63.8957 0.000179489 0)
(63.8958 0.000173586 0)
(63.8959 0.000163581 0)
(63.896 0.00017064 0)
(63.8962 0.000206154 0)
(63.8963 0.000250782 0)
(63.8964 0.000279964 0)
(63.8964 0.000271476 0)
(63.8963 0.000248246 0)
(63.8963 0.000230033 0)
(63.8963 0.000196448 0)
(63.8963 0.00016244 0)
(63.8965 0.000160978 0)
(63.8966 0.000197116 0)
(63.8967 0.000248161 0)
(63.8967 0.000271137 0)
(63.8967 0.00025764 0)
(63.8967 0.000237209 0)
(63.8967 0.000235251 0)
(63.8967 0.000259346 0)
(63.8968 0.000284014 0)
(63.8968 0.00028358 0)
(63.8969 0.000261589 0)
(63.897 0.000226471 0)
(63.8969 0.000200807 0)
(63.8969 0.000207853 0)
(63.8969 0.000240713 0)
(63.8969 0.000289202 0)
(63.897 0.000330573 0)
(63.8971 0.000331307 0)
(63.8972 0.000294883 0)
(63.8973 0.000247201 0)
(63.8973 0.000216447 0)
(63.8973 0.000206377 0)
(63.8973 0.000199754 0)
(63.8972 0.000208729 0)
(63.8972 0.000227237 0)
(63.8972 0.000229675 0)
(63.8973 0.000232804 0)
(63.8974 0.000246325 0)
(63.8975 0.000256113 0)
(63.8975 0.000261277 0)
(63.8975 0.000269784 0)
(63.8975 0.000286284 0)
(63.8974 0.000297022 0)
(63.8974 0.000289143 0)
(63.8974 0.000280293 0)
(63.8974 0.00028498 0)
(63.8974 0.000284511 0)
(63.8975 0.000269184 0)
(63.8976 0.00026053 0)
(63.8976 0.000274089 0)
(63.8976 0.000298366 0)
(63.8976 0.000304377 0)
(63.8976 0.000290742 0)
(63.8977 0.000276403 0)
(63.8977 0.000245029 0)
(63.8977 0.000189977 0)
(63.8977 0.000154655 0)
(63.8977 0.000181035 0)
(63.8978 0.00024802 0)
(63.8979 0.00029049 0)
(63.8979 0.000301429 0)
(63.8979 0.000314728 0)
(63.898 0.000321846 0)
(63.898 0.000284285 0)
(63.8981 0.000202749 0)
(63.8981 0.000152235 0)
(63.8982 0.000181835 0)
(63.8982 0.000240261 0)
(63.8983 0.000271348 0)
(63.8983 0.000282353 0)
(63.8984 0.000280615 0)
(63.8985 0.000288091 0)
(50.5466 -4.39696e-06 0)
(85.46 4.59001e-05 0)
(73.2901 0.000132321 0)
(60.6441 0.000226093 0)
(59.8999 0.000289495 0)
(63.36 0.000298452 0)
(64.8704 0.00030397 0)
(64.4197 0.000329716 0)
(63.8033 0.000355013 0)
(63.7013 0.00039075 0)
(63.8446 0.000412515 0)
(63.9295 0.000378582 0)
(63.9197 0.000323299 0)
(63.8908 0.000300311 0)
(63.8825 0.000322 0)
(63.8879 0.000362688 0)
(63.8925 0.000391583 0)
(63.8927 0.000410705 0)
(63.8914 0.00042285 0)
(63.891 0.000411789 0)
(63.8912 0.000385074 0)
(63.8913 0.000363463 0)
(63.8914 0.000349818 0)
(63.8914 0.000366531 0)
(63.8916 0.000397896 0)
(63.8916 0.000378942 0)
(63.8916 0.000336485 0)
(63.8917 0.000330291 0)
(63.8917 0.000366652 0)
(63.8918 0.000416911 0)
(63.8919 0.00043179 0)
(63.8919 0.000395912 0)
(63.8919 0.00034155 0)
(63.8918 0.000327405 0)
(63.8918 0.00036101 0)
(63.8917 0.000392254 0)
(63.8917 0.000413672 0)
(63.8918 0.000419988 0)
(63.8918 0.000402144 0)
(63.8919 0.000376624 0)
(63.8919 0.000343451 0)
(63.8919 0.000330244 0)
(63.892 0.000349765 0)
(63.8921 0.000358639 0)
(63.8922 0.000372404 0)
(63.8923 0.000420394 0)
(63.8923 0.000448085 0)
(63.8922 0.000420602 0)
(63.8922 0.000387783 0)
(63.8922 0.0003924 0)
(63.8922 0.000417443 0)
(63.8923 0.000428297 0)
(63.8924 0.000407926 0)
(63.8924 0.000375712 0)
(63.8924 0.000347806 0)
(63.8924 0.000314854 0)
(63.8923 0.000306786 0)
(63.8923 0.000338619 0)
(63.8924 0.000368277 0)
(63.8924 0.000387571 0)
(63.8924 0.000415653 0)
(63.8924 0.000439858 0)
(63.8924 0.000434418 0)
(63.8925 0.000405263 0)
(63.8925 0.00036372 0)
(63.8925 0.000319359 0)
(63.8926 0.000309365 0)
(63.8927 0.000336401 0)
(63.8927 0.000365872 0)
(63.8927 0.000376203 0)
(63.8927 0.000365927 0)
(63.8928 0.000361854 0)
(63.8928 0.00036336 0)
(63.8929 0.000340621 0)
(63.8928 0.000296814 0)
(63.8928 0.000267667 0)
(63.8929 0.00026286 0)
(63.8929 0.000259342 0)
(63.8929 0.00027885 0)
(63.893 0.00034138 0)
(63.893 0.000389767 0)
(63.8931 0.000378253 0)
(63.8932 0.000348684 0)
(63.8932 0.000347407 0)
(63.8933 0.000348719 0)
(63.8933 0.000337135 0)
(63.8933 0.000318241 0)
(63.8934 0.000285248 0)
(63.8935 0.000273666 0)
(63.8935 0.000300488 0)
(63.8936 0.000334942 0)
(63.8936 0.000352993 0)
(63.8936 0.000346693 0)
(63.8936 0.00035763 0)
(63.8937 0.000406843 0)
(63.8937 0.000443051 0)
(63.8937 0.000442301 0)
(63.8937 0.000416991 0)
(63.8937 0.000381299 0)
(63.8937 0.000362703 0)
(63.8937 0.00037296 0)
(63.8938 0.0003937 0)
(63.8938 0.000409093 0)
(63.8938 0.000404297 0)
(63.8939 0.000371667 0)
(63.8939 0.00034393 0)
(63.894 0.00032533 0)
(63.8939 0.000279409 0)
(63.8939 0.00022772 0)
(63.894 0.000216804 0)
(63.8941 0.000244379 0)
(63.8941 0.000267114 0)
(63.8941 0.000261783 0)
(63.8942 0.000263734 0)
(63.8942 0.000282458 0)
(63.8943 0.000301425 0)
(63.8944 0.000337944 0)
(63.8945 0.000372429 0)
(63.8945 0.000358882 0)
(63.8944 0.000317738 0)
(63.8944 0.000291836 0)
(63.8943 0.000292436 0)
(63.8944 0.000316081 0)
(63.8945 0.000336582 0)
(63.8944 0.000332235 0)
(63.8944 0.000329017 0)
(63.8946 0.0003466 0)
(63.8946 0.000370532 0)
(63.8946 0.000389809 0)
(63.8946 0.000397321 0)
(63.8946 0.000391895 0)
(63.8946 0.000379232 0)
(63.8946 0.000359571 0)
(63.8946 0.000338765 0)
(63.8946 0.000326783 0)
(63.8946 0.000319222 0)
(63.8947 0.000300052 0)
(63.8947 0.00027916 0)
(63.8948 0.00029245 0)
(63.8948 0.000335671 0)
(63.8948 0.000369744 0)
(63.8948 0.000381715 0)
(63.8948 0.000375388 0)
(63.8949 0.00035223 0)
(63.8949 0.0003322 0)
(63.895 0.000336506 0)
(63.895 0.00034408 0)
(63.8951 0.000335926 0)
(63.8951 0.000342344 0)
(63.8951 0.000375218 0)
(63.8951 0.000397748 0)
(63.8952 0.00039075 0)
(63.8952 0.000374248 0)
(63.8953 0.00035835 0)
(63.8953 0.000345195 0)
(63.8953 0.000348659 0)
(63.8952 0.0003643 0)
(63.8952 0.000375801 0)
(63.8952 0.000365179 0)
(63.8953 0.000333523 0)
(63.8954 0.000318471 0)
(63.8954 0.000320021 0)
(63.8954 0.000315185 0)
(63.8955 0.000313636 0)
(63.8955 0.000321873 0)
(63.8955 0.000341366 0)
(63.8956 0.000354833 0)
(63.8955 0.000326106 0)
(63.8955 0.000269167 0)
(63.8955 0.000237564 0)
(63.8956 0.00025413 0)
(63.8957 0.000297469 0)
(63.8957 0.000342225 0)
(63.8958 0.000371525 0)
(63.8959 0.000366195 0)
(63.896 0.000329349 0)
(63.8961 0.000291952 0)
(63.8961 0.000264442 0)
(63.896 0.000231991 0)
(63.896 0.000201239 0)
(63.896 0.000188552 0)
(63.8961 0.000203237 0)
(63.8962 0.000246672 0)
(63.8963 0.000286128 0)
(63.8964 0.000308692 0)
(63.8965 0.000324159 0)
(63.8965 0.000307239 0)
(63.8965 0.000257541 0)
(63.8964 0.000217828 0)
(63.8964 0.000224817 0)
(63.8965 0.000277644 0)
(63.8966 0.000324794 0)
(63.8966 0.000329196 0)
(63.8967 0.000300296 0)
(63.8968 0.000271621 0)
(63.8968 0.000276586 0)
(63.8968 0.000296714 0)
(63.8968 0.000304819 0)
(63.8968 0.000323889 0)
(63.8968 0.000357306 0)
(63.8968 0.000375968 0)
(63.8969 0.000370188 0)
(63.8969 0.000340736 0)
(63.897 0.000304602 0)
(63.897 0.000277544 0)
(63.897 0.000248806 0)
(63.8971 0.000230485 0)
(63.8971 0.000243619 0)
(63.8971 0.000279451 0)
(63.8972 0.000319653 0)
(63.8972 0.000339437 0)
(63.8973 0.000332847 0)
(63.8974 0.000313483 0)
(63.8973 0.000287605 0)
(63.8973 0.000274483 0)
(63.8974 0.000288784 0)
(63.8974 0.000317342 0)
(63.8974 0.000336802 0)
(63.8975 0.000339325 0)
(63.8976 0.000345301 0)
(63.8976 0.000359017 0)
(63.8976 0.000365875 0)
(63.8975 0.000376693 0)
(63.8975 0.0003968 0)
(63.8975 0.000397089 0)
(63.8975 0.00036365 0)
(63.8975 0.000330028 0)
(63.8975 0.000331848 0)
(63.8976 0.000351865 0)
(63.8977 0.000338273 0)
(63.8977 0.000292027 0)
(63.8977 0.000269967 0)
(63.8977 0.000279949 0)
(63.8977 0.000290436 0)
(63.8977 0.000294134 0)
(63.8977 0.000299938 0)
(63.8977 0.000314332 0)
(63.8978 0.000319382 0)
(63.8979 0.000308102 0)
(63.8979 0.000295516 0)
(63.8979 0.000284265 0)
(63.898 0.000278633 0)
(63.898 0.000277192 0)
(63.8979 0.000274827 0)
(63.8979 0.000272498 0)
(63.898 0.000274111 0)
(63.898 0.000278975 0)
(63.898 0.000284255 0)
(63.898 0.000285607 0)
(63.898 0.000287122 0)
(50.5466 -3.36334e-06 0)
(85.46 4.59795e-05 0)
(73.2903 0.000112307 0)
(60.6443 0.000122289 0)
(59.9 8.85003e-05 0)
(63.3598 8.9475e-05 0)
(64.8701 0.00014236 0)
(64.4195 0.00018613 0)
(63.803 0.00018595 0)
(63.701 0.00016281 0)
(63.8442 0.000150719 0)
(63.9293 0.000146387 0)
(63.9195 0.000145985 0)
(63.8906 0.000158289 0)
(63.8825 0.000163354 0)
(63.8879 0.000129222 0)
(63.8925 9.70681e-05 0)
(63.8926 0.000123002 0)
(63.8915 0.000174333 0)
(63.8909 0.000191192 0)
(63.891 0.000174935 0)
(63.8914 0.000165908 0)
(63.8915 0.000164418 0)
(63.8913 0.000157612 0)
(63.8913 0.000144614 0)
(63.8915 0.000151611 0)
(63.8914 0.000169613 0)
(63.8914 0.000154994 0)
(63.8914 0.000139432 0)
(63.8915 0.000161932 0)
(63.8915 0.0001824 0)
(63.8915 0.000169404 0)
(63.8916 0.000146725 0)
(63.8916 0.000158202 0)
(63.8917 0.000202648 0)
(63.8917 0.000217384 0)
(63.8918 0.000184327 0)
(63.8918 0.000148171 0)
(63.8918 0.000119558 0)
(63.8919 9.0221e-05 0)
(63.8919 7.23708e-05 0)
(63.892 6.52539e-05 0)
(63.8921 7.3448e-05 0)
(63.892 0.000106995 0)
(63.8919 0.000148467 0)
(63.8919 0.000189508 0)
(63.8921 0.000214557 0)
(63.8922 0.000188213 0)
(63.8923 0.000142709 0)
(63.8923 0.000140302 0)
(63.8923 0.000176095 0)
(63.8923 0.00022522 0)
(63.8923 0.000262927 0)
(63.8923 0.000260106 0)
(63.8923 0.00022382 0)
(63.8924 0.000178686 0)
(63.8924 0.000147362 0)
(63.8924 0.000141555 0)
(63.8925 0.000161375 0)
(63.8924 0.000201285 0)
(63.8924 0.000223743 0)
(63.8925 0.000200717 0)
(63.8926 0.000155746 0)
(63.8926 0.000138287 0)
(63.8927 0.000160026 0)
(63.8926 0.000174969 0)
(63.8926 0.0001698 0)
(63.8925 0.000155559 0)
(63.8926 0.000136285 0)
(63.8928 0.000132831 0)
(63.8928 0.000137298 0)
(63.8928 0.00013733 0)
(63.8928 0.000145587 0)
(63.8929 0.000161806 0)
(63.8929 0.00016737 0)
(63.8928 0.000152223 0)
(63.8928 0.000131592 0)
(63.8928 0.000119541 0)
(63.8928 0.000134747 0)
(63.8928 0.000168148 0)
(63.8929 0.000169674 0)
(63.893 0.000142107 0)
(63.893 0.000122824 0)
(63.8931 0.000122336 0)
(63.8932 0.000134157 0)
(63.8932 0.000145554 0)
(63.8933 0.000149221 0)
(63.8933 0.000148766 0)
(63.8932 0.000163632 0)
(63.8932 0.000195428 0)
(63.8932 0.000215849 0)
(63.8933 0.000201439 0)
(63.8933 0.000165972 0)
(63.8933 0.000172076 0)
(63.8933 0.000225582 0)
(63.8933 0.000260056 0)
(63.8933 0.000257328 0)
(63.8934 0.000238077 0)
(63.8934 0.000225397 0)
(63.8934 0.000230575 0)
(63.8934 0.000232514 0)
(63.8934 0.000224147 0)
(63.8935 0.00021407 0)
(63.8935 0.000197632 0)
(63.8935 0.000167064 0)
(63.8935 0.000128511 0)
(63.8937 9.89562e-05 0)
(63.8937 8.20153e-05 0)
(63.8937 7.33383e-05 0)
(63.8937 8.29039e-05 0)
(63.8937 0.000114857 0)
(63.8938 0.00012778 0)
(63.8939 0.000103097 0)
(63.894 9.60737e-05 0)
(63.894 0.00011332 0)
(63.894 0.000111267 0)
(63.894 0.000102101 0)
(63.8942 0.000111881 0)
(63.8943 0.000141427 0)
(63.8943 0.000181756 0)
(63.8943 0.000210541 0)
(63.8943 0.000204177 0)
(63.8943 0.00018293 0)
(63.8944 0.000190007 0)
(63.8944 0.000206268 0)
(63.8944 0.000193536 0)
(63.8945 0.000172394 0)
(63.8945 0.000166946 0)
(63.8945 0.000172551 0)
(63.8946 0.000183031 0)
(63.8946 0.000198278 0)
(63.8947 0.000216031 0)
(63.8947 0.000226498 0)
(63.8947 0.000228835 0)
(63.8948 0.000232614 0)
(63.8947 0.000231764 0)
(63.8947 0.000201393 0)
(63.8947 0.000148688 0)
(63.8947 0.00012998 0)
(63.8948 0.000167041 0)
(63.8948 0.000211696 0)
(63.8949 0.000225456 0)
(63.8949 0.000225132 0)
(63.8949 0.000224314 0)
(63.8949 0.000213427 0)
(63.8949 0.000205188 0)
(63.895 0.000196566 0)
(63.8951 0.000165532 0)
(63.8951 0.000144058 0)
(63.8952 0.000170122 0)
(63.8952 0.00021812 0)
(63.8951 0.000238544 0)
(63.8951 0.000218557 0)
(63.8951 0.000184501 0)
(63.8951 0.000161465 0)
(63.8952 0.000157887 0)
(63.8953 0.000167795 0)
(63.8954 0.000186641 0)
(63.8955 0.000207602 0)
(63.8954 0.000212799 0)
(63.8954 0.000211692 0)
(63.8955 0.000215764 0)
(63.8955 0.000211544 0)
(63.8955 0.000196944 0)
(63.8956 0.00017883 0)
(63.8956 0.000174081 0)
(63.8957 0.000193037 0)
(63.8958 0.000211465 0)
(63.8958 0.000204742 0)
(63.8958 0.000180884 0)
(63.8958 0.00016285 0)
(63.8958 0.000149867 0)
(63.8958 0.000133505 0)
(63.8959 0.000127032 0)
(63.8959 0.000132872 0)
(63.8959 0.00013276 0)
(63.896 0.000126414 0)
(63.8961 0.000134934 0)
(63.8961 0.000152986 0)
(63.8962 0.000152177 0)
(63.8962 0.000123952 0)
(63.8962 8.96296e-05 0)
(63.8962 8.84764e-05 0)
(63.8962 0.000117009 0)
(63.8962 0.000140965 0)
(63.8963 0.000163173 0)
(63.8964 0.000183568 0)
(63.8964 0.000187678 0)
(63.8964 0.000175029 0)
(63.8964 0.000151111 0)
(63.8964 0.000133287 0)
(63.8965 0.00013005 0)
(63.8965 0.000137757 0)
(63.8966 0.000163245 0)
(63.8966 0.000209093 0)
(63.8965 0.000259012 0)
(63.8966 0.000271945 0)
(63.8966 0.000227971 0)
(63.8966 0.000174238 0)
(63.8967 0.000153592 0)
(63.8968 0.000158596 0)
(63.8968 0.000180984 0)
(63.8969 0.000213482 0)
(63.8969 0.000240321 0)
(63.8969 0.000247521 0)
(63.897 0.000217063 0)
(63.897 0.0001641 0)
(63.897 0.00013175 0)
(63.897 0.000132943 0)
(63.897 0.000156169 0)
(63.897 0.000180647 0)
(63.8971 0.000196142 0)
(63.8971 0.000210786 0)
(63.8971 0.000212521 0)
(63.8971 0.000188031 0)
(63.8972 0.000160224 0)
(63.8973 0.00016288 0)
(63.8973 0.000192636 0)
(63.8973 0.000219119 0)
(63.8973 0.000244899 0)
(63.8973 0.000282143 0)
(63.8973 0.000309624 0)
(63.8973 0.000309136 0)
(63.8973 0.000287461 0)
(63.8974 0.000260609 0)
(63.8975 0.000243395 0)
(63.8975 0.000242923 0)