/*--------------------------------*- C++ -*----------------------------------*\
| =========                 |                                                 |
| \\      /  F ield         | OpenFOAM: The Open Source CFD Toolbox           |
|  \\    /   O peration     | Version:  2406                                  |
|   \\  /    A nd           | Website:  www.openfoam.com                      |
|    \\/     M anipulation  |                                                 |
\*---------------------------------------------------------------------------*/
FoamFile
{
    version     2.0;
    format      ascii;
    arch        "LSB;label=32;scalar=64";
    class       surfaceScalarField;
    location    "2";
    object      alphaPhi0.air;
}
// * * * * * * * * * * * * * * * * * * * * * * * * * * * * * * * * * * * * * //

dimensions      [0 3 -1 0 0 0 0];

oriented        oriented;

internalField   nonuniform List<scalar> 
12225
(
0.511131
1.74987e-06
0.511125
6.26806e-06
0.511118
7.41379e-06
0.511112
5.42403e-06
0.511108
4.48773e-06
0.511103
4.7621e-06
0.511098
5.28531e-06
0.511092
5.48296e-06
0.511087
5.46505e-06
0.511082
5.33047e-06
0.511076
5.11508e-06
0.511071
5.23254e-06
0.511066
5.60198e-06
0.51106
5.70463e-06
0.511055
5.36801e-06
0.511049
5.14433e-06
0.511044
5.34241e-06
0.511039
5.5097e-06
0.511033
5.65644e-06
0.511027
5.80527e-06
0.511021
5.60572e-06
0.511016
5.27425e-06
0.511011
5.18215e-06
0.511006
5.37357e-06
0.511
5.58571e-06
0.510995
5.52623e-06
0.510989
5.40252e-06
0.510984
5.43657e-06
0.510978
5.25671e-06
0.510974
4.7263e-06
0.510969
4.5589e-06
0.510964
5.06255e-06
0.510958
5.67144e-06
0.510953
5.936e-06
0.510947
5.85584e-06
0.510941
5.83586e-06
0.510935
5.89921e-06
0.510929
5.47711e-06
0.510925
4.85256e-06
0.51092
4.81172e-06
0.510915
5.18506e-06
0.510909
5.53448e-06
0.510903
5.8276e-06
0.510897
5.9216e-06
0.510892
5.63695e-06
0.510886
5.2278e-06
0.510881
5.06232e-06
0.510876
5.21197e-06
0.510871
5.49185e-06
0.510865
5.74022e-06
0.510859
5.93992e-06
0.510853
5.88778e-06
0.510848
5.52047e-06
0.510842
5.15551e-06
0.510838
4.91393e-06
0.510833
4.8376e-06
0.510828
4.94838e-06
0.510823
5.02412e-06
0.510818
5.0546e-06
0.510812
5.26454e-06
0.510807
5.6872e-06
0.510801
6.14718e-06
0.510794
6.27548e-06
0.510788
5.92451e-06
0.510783
5.58887e-06
0.510777
5.45454e-06
0.510772
5.29376e-06
0.510767
5.38141e-06
0.510761
5.58421e-06
0.510756
5.49272e-06
0.51075
5.52435e-06
0.510744
5.61748e-06
0.510739
5.44027e-06
0.510733
5.5517e-06
0.510728
5.79326e-06
0.510722
5.51987e-06
0.510717
5.21918e-06
0.510712
5.24746e-06
0.510706
5.34851e-06
0.510701
5.51999e-06
0.510695
5.607e-06
0.51069
5.50037e-06
0.510684
5.19395e-06
0.51068
4.75444e-06
0.510675
4.86256e-06
0.510669
5.51622e-06
0.510664
5.84046e-06
0.510658
5.71287e-06
0.510652
5.38562e-06
0.510647
5.22183e-06
0.510642
5.62852e-06
0.510636
6.02653e-06
0.51063
5.89761e-06
0.510624
5.69443e-06
0.510618
5.51321e-06
0.510613
5.34516e-06
0.510608
5.53496e-06
0.510602
5.73131e-06
0.510596
5.55374e-06
0.510591
5.27599e-06
0.510586
5.06674e-06
0.510581
5.14047e-06
0.510575
5.56744e-06
0.510569
5.79908e-06
0.510564
5.69507e-06
0.510558
5.5825e-06
0.510553
5.33701e-06
0.510548
5.05074e-06
0.510543
5.12761e-06
0.510537
5.3801e-06
0.510532
5.59736e-06
0.510526
5.71305e-06
0.51052
5.47507e-06
0.510515
5.09166e-06
0.51051
4.94263e-06
0.510505
5.02841e-06
0.5105
5.34154e-06
0.510494
5.75905e-06
0.510488
5.96081e-06
0.510483
5.78727e-06
0.510477
5.35027e-06
0.510472
5.09638e-06
0.510467
5.26997e-06
0.510461
5.41917e-06
0.510456
5.32338e-06
0.510451
5.32643e-06
0.510445
5.40794e-06
0.51044
5.39295e-06
0.510435
5.37994e-06
0.510429
5.33272e-06
0.510424
5.34804e-06
0.510418
5.525e-06
0.510413
5.54025e-06
0.510407
5.52266e-06
0.510402
5.79736e-06
0.510396
5.91291e-06
0.51039
5.54636e-06
0.510385
5.07949e-06
0.51038
4.91547e-06
0.510375
5.12571e-06
0.51037
5.41809e-06
0.510364
5.49478e-06
0.510359
5.46463e-06
0.510353
5.49693e-06
0.510348
5.44187e-06
0.510342
5.29869e-06
0.510337
5.2643e-06
0.510332
5.23737e-06
0.510327
5.16558e-06
0.510322
5.1164e-06
0.510316
5.06859e-06
0.510311
5.27273e-06
0.510305
5.74462e-06
0.5103
5.87583e-06
0.510294
5.52142e-06
0.510289
5.20994e-06
0.510284
5.18083e-06
0.510278
5.2864e-06
0.510273
5.34503e-06
0.510268
5.33722e-06
0.510262
5.46898e-06
0.510257
5.67553e-06
0.510251
5.69355e-06
0.510245
5.66402e-06
0.510239
5.69887e-06
0.510234
5.72392e-06
0.510228
5.70241e-06
0.510223
5.45896e-06
0.510217
5.22823e-06
0.510212
5.41955e-06
0.510206
5.61482e-06
0.510201
5.49426e-06
0.510195
5.48863e-06
0.51019
5.51833e-06
0.510185
5.26286e-06
0.510179
5.17596e-06
0.510174
5.44834e-06
0.510168
5.67527e-06
0.510163
5.75271e-06
0.510157
5.6288e-06
0.510152
5.28153e-06
0.510147
5.09945e-06
0.510141
5.24413e-06
0.510136
5.62837e-06
0.51013
6.10016e-06
0.510123
6.18699e-06
0.510118
5.73915e-06
0.510112
5.27134e-06
0.510107
5.19642e-06
0.510102
5.38405e-06
0.510096
5.52347e-06
0.510091
5.5816e-06
0.510085
5.6327e-06
0.510079
5.52014e-06
0.510074
5.18087e-06
0.510069
5.03134e-06
0.510064
5.36326e-06
0.510058
5.63463e-06
0.510053
5.41196e-06
0.510048
5.14334e-06
0.510043
5.18409e-06
0.510037
5.47034e-06
0.510031
5.84865e-06
0.510025
5.93324e-06
0.51002
5.6445e-06
0.510014
5.43138e-06
0.510009
5.41102e-06
0.510003
5.3225e-06
0.509998
5.27362e-06
0.509993
5.47072e-06
0.509987
5.62243e-06
0.509982
5.41909e-06
0.509977
5.14712e-06
0.509971
5.20946e-06
0.509966
5.3888e-06
0.509961
5.38471e-06
0.509955
5.31159e-06
0.50995
5.17392e-06
0.509945
5.07974e-06
0.50994
5.24454e-06
0.509934
5.48866e-06
0.509929
5.69787e-06
0.509923
5.81042e-06
0.509917
5.65987e-06
0.509912
5.41167e-06
0.509906
5.25482e-06
0.509901
5.29799e-06
0.509896
5.58055e-06
0.50989
5.74173e-06
0.509884
5.71194e-06
0.509878
5.89215e-06
0.509872
5.99706e-06
0.509867
5.69866e-06
0.509861
5.48201e-06
0.509856
5.41525e-06
0.50985
5.24364e-06
0.509845
5.15924e-06
0.50984
5.12257e-06
0.509835
5.08473e-06
0.50983
5.28566e-06
0.509824
5.63088e-06
0.509818
5.81954e-06
0.509812
5.76705e-06
0.509807
5.60235e-06
0.509801
5.43538e-06
0.509796
5.28386e-06
0.509791
5.27165e-06
0.509786
5.34315e-06
0.50978
5.95571e-06
5.59891e-06
0.511137
-2.02793e-07
0.511143
3.12058e-07
0.511149
1.65563e-06
0.511152
2.78298e-06
0.511153
2.76989e-06
0.511156
2.46426e-06
0.511159
2.03085e-06
0.511163
1.68841e-06
0.511166
1.75109e-06
0.51117
2.02952e-06
0.511172
2.44704e-06
0.511175
2.98926e-06
0.511177
3.30327e-06
0.51118
2.99784e-06
0.511183
2.39999e-06
0.511186
2.12394e-06
0.511189
2.33846e-06
0.511192
2.364e-06
0.511195
1.93777e-06
0.511199
1.79407e-06
0.511203
2.25949e-06
0.511205
2.59847e-06
0.511208
2.36864e-06
0.511212
1.98366e-06
0.511215
1.83749e-06
0.511219
2.07598e-06
0.511222
2.57682e-06
0.511224
2.99265e-06
0.511226
3.15807e-06
0.511228
3.27691e-06
0.511229
3.41268e-06
0.511231
3.30153e-06
0.511233
2.7794e-06
0.511237
2.16194e-06
0.511241
1.87552e-06
0.511245
2.06325e-06
0.511249
2.40229e-06
0.511251
2.50693e-06
0.511254
2.3218e-06
0.511257
2.22125e-06
0.51126
2.2595e-06
0.511263
2.3757e-06
0.511266
2.59139e-06
0.511269
2.68457e-06
0.511272
2.6348e-06
0.511275
2.64556e-06
0.511277
2.76018e-06
0.51128
2.73757e-06
0.511282
2.65577e-06
0.511285
2.98513e-06
0.511288
3.42381e-06
0.51129
3.29282e-06
0.511293
2.74727e-06
0.511296
2.20285e-06
0.511299
1.73896e-06
0.511302
1.60374e-06
0.511305
1.82905e-06
0.511309
1.90758e-06
0.511312
1.85635e-06
0.511315
2.11655e-06
0.511318
2.56449e-06
0.511321
2.82577e-06
0.511325
3.0569e-06
0.511327
3.1958e-06
0.51133
2.80121e-06
0.511333
2.41654e-06
0.511336
2.54418e-06
0.511339
2.53543e-06
0.511342
2.45784e-06
0.511345
2.75767e-06
0.511347
2.78727e-06
0.51135
2.48781e-06
0.511353
2.5067e-06
0.511356
2.51605e-06
0.51136
2.28412e-06
0.511363
2.30932e-06
0.511366
2.43816e-06
0.511369
2.48134e-06
0.511371
2.63332e-06
0.511374
2.80378e-06
0.511377
2.82099e-06
0.51138
2.57237e-06
0.511383
2.21805e-06
0.511386
2.05004e-06
0.511388
2.03264e-06
0.511392
2.15597e-06
0.511395
2.38053e-06
0.511398
2.43173e-06
0.511401
2.453e-06
0.511404
2.59733e-06
0.511407
2.5888e-06
0.511411
2.529e-06
0.511414
2.80992e-06
0.511416
3.20977e-06
0.511418
3.25281e-06
0.511421
2.95862e-06
0.511424
2.74492e-06
0.511427
2.76723e-06
0.511429
2.64217e-06
0.511432
2.35223e-06
0.511435
2.2885e-06
0.511438
2.24802e-06
0.511442
2.07938e-06
0.511445
2.13745e-06
0.511449
2.2259e-06
0.511452
2.16938e-06
0.511455
2.37479e-06
0.511457
2.63835e-06
0.51146
2.58869e-06
0.511463
2.51505e-06
0.511466
2.46472e-06
0.511469
2.45398e-06
0.511472
2.77713e-06
0.511474
3.0357e-06
0.511476
2.76867e-06
0.511479
2.44354e-06
0.511482
2.43627e-06
0.511485
2.55787e-06
0.511488
2.67032e-06
0.511491
2.68433e-06
0.511494
2.55841e-06
0.511497
2.35695e-06
0.5115
2.18225e-06
0.511503
2.09819e-06
0.511506
2.07444e-06
0.51151
2.20153e-06
0.511513
2.45459e-06
0.511515
2.55651e-06
0.511518
2.57662e-06
0.511521
2.63465e-06
0.511524
2.53559e-06
0.511527
2.34304e-06
0.51153
2.15928e-06
0.511534
1.96617e-06
0.511538
2.0219e-06
0.511541
2.44177e-06
0.511544
2.93044e-06
0.511546
3.21655e-06
0.511547
3.16835e-06
0.51155
2.87236e-06
0.511552
2.58756e-06
0.511555
2.48379e-06
0.511558
2.45957e-06
0.511562
2.25887e-06
0.511565
2.02114e-06
0.511568
2.07953e-06
0.511571
2.27602e-06
0.511574
2.42319e-06
0.511577
2.61925e-06
0.511579
2.67065e-06
0.511582
2.47534e-06
0.511585
2.30216e-06
0.511588
2.21498e-06
0.511592
2.25543e-06
0.511595
2.48811e-06
0.511597
2.6409e-06
0.5116
2.54884e-06
0.511603
2.31038e-06
0.511606
2.2322e-06
0.511609
2.48887e-06
0.511612
2.79356e-06
0.511614
3.05063e-06
0.511617
3.29434e-06
0.511619
3.19058e-06
0.511622
2.81975e-06
0.511625
2.61961e-06
0.511628
2.59606e-06
0.511631
2.74293e-06
0.511633
3.01154e-06
0.511636
2.96745e-06
0.511638
2.74024e-06
0.511641
2.63797e-06
0.511644
2.35968e-06
0.511648
2.04609e-06
0.511651
1.98303e-06
0.511654
1.87338e-06
0.511658
1.8504e-06
0.511662
2.25132e-06
0.511665
2.71992e-06
0.511667
2.83015e-06
0.51167
2.56535e-06
0.511673
2.16557e-06
0.511676
1.80435e-06
0.511681
1.56184e-06
0.511685
1.73287e-06
0.511689
2.31863e-06
0.511692
2.72666e-06
0.511694
2.64193e-06
0.511697
2.40856e-06
0.5117
2.28057e-06
0.511703
2.33892e-06
0.511707
2.51212e-06
0.51171
2.53019e-06
0.511713
2.39433e-06
0.511716
2.36513e-06
0.511718
2.54233e-06
0.511721
2.84019e-06
0.511723
3.13023e-06
0.511725
3.12465e-06
0.511728
2.67452e-06
0.511731
2.15295e-06
0.511734
1.983e-06
0.511738
2.11514e-06
0.511742
2.26135e-06
0.511745
2.43917e-06
0.511748
2.79468e-06
0.51175
3.11891e-06
0.511752
3.25379e-06
0.511754
3.3672e-06
0.511756
3.40509e-06
0.511758
3.24306e-06
0.511761
3.0829e-06
0.511763
2.87071e-06
0.511766
2.39163e-06
0.511769
2.0062e-06
0.511773
1.9636e-06
0.511776
2.18848e-06
0.511778
2.71969e-06
0.51178
3.0677e-06
0.511783
2.87693e-06
0.511785
2.66662e-06
0.511788
2.70969e-06
0.511791
2.65014e-06
0.511795
2.43896e-06
0.511798
2.25423e-06
0.511801
2.14499e-06
0.511804
2.18905e-06
0.511807
2.35447e-06
0.51181
2.55807e-06
0.511813
2.82234e-06
0.511816
2.98371e-06
0.511819
2.849e-06
0.511823
2.53821e-06
0.511826
2.32881e-06
0.511829
2.30737e-06
0.511832
2.26115e-06
0.511835
2.0037e-06
0.511839
1.60059e-06
0.511842
1.39022e-06
0.511846
1.57817e-06
0.51185
1.87243e-06
0.511853
2.1112e-06
0.511857
2.36956e-06
0.51186
2.45696e-06
0.511863
2.41835e-06
0.511866
2.48316e-06
0.511868
2.59464e-06
0.511871
2.68718e-06
0.511874
2.75907e-06
2.98586e-06
0.511136
9.3283e-08
0.511135
6.29845e-07
0.511136
1.26527e-06
0.511137
1.84802e-06
0.511137
2.07674e-06
0.511138
2.07936e-06
0.511138
1.95454e-06
0.511138
1.76801e-06
0.511138
1.76468e-06
0.511138
1.83707e-06
0.511138
2.17572e-06
0.511139
2.67753e-06
0.511139
2.59163e-06
0.51114
2.08077e-06
0.511141
2.04093e-06
0.51114
2.25547e-06
0.511141
2.14208e-06
0.511141
2.0037e-06
0.511141
1.95519e-06
0.511141
1.90128e-06
0.511141
1.96146e-06
0.511141
2.25828e-06
0.511141
2.6219e-06
0.511141
2.5477e-06
0.51114
2.25577e-06
0.51114
2.13596e-06
0.511141
2.16014e-06
0.511141
2.61704e-06
0.511141
3.09692e-06
0.511141
2.97576e-06
0.511142
2.52496e-06
0.511143
2.19819e-06
0.511144
2.30397e-06
0.511143
2.47501e-06
0.511143
2.40399e-06
0.511143
2.18452e-06
0.511143
1.7309e-06
0.511145
1.33488e-06
0.511146
1.3246e-06
0.511146
1.68008e-06
0.511146
2.33149e-06
0.511146
2.78211e-06
0.511146
2.64385e-06
0.511146
2.32713e-06
0.511146
2.28095e-06
0.511147
2.28416e-06
0.511147
2.24073e-06
0.511148
2.43458e-06
0.511148
2.71903e-06
0.511148
2.74237e-06
0.511148
2.67385e-06
0.511149
2.68682e-06
0.511149
2.58236e-06
0.511149
2.49409e-06
0.511148
2.52525e-06
0.511148
2.21617e-06
0.511148
1.53603e-06
0.511149
1.16528e-06
0.511149
1.48863e-06
0.511149
1.92499e-06
0.51115
2.15166e-06
0.51115
2.37151e-06
0.511151
2.47088e-06
0.511151
2.43294e-06
0.511152
2.49626e-06
0.511152
2.4224e-06
0.511152
2.03979e-06
0.511153
1.9184e-06
0.511153
2.23699e-06
0.511153
2.5015e-06
0.511153
2.73223e-06
0.511153
2.89347e-06
0.511153
2.43268e-06
0.511154
1.73832e-06
0.511155
1.56223e-06
0.511155
1.89579e-06
0.511155
2.38289e-06
0.511155
2.65002e-06
0.511155
2.50866e-06
0.511155
2.2713e-06
0.511156
2.25535e-06
0.511156
2.24976e-06
0.511157
2.00134e-06
0.511157
1.84e-06
0.511157
2.02255e-06
0.511157
2.10832e-06
0.511157
1.9645e-06
0.511158
2.12983e-06
0.511157
2.61606e-06
0.511157
2.9035e-06
0.511157
2.81457e-06
0.511157
2.42979e-06
0.511158
2.09868e-06
0.511159
2.14233e-06
0.51116
2.40346e-06
0.51116
2.80792e-06
0.511159
3.12934e-06
0.511159
2.87173e-06
0.51116
2.29635e-06
0.51116
1.9059e-06
0.511161
1.66563e-06
0.511161
1.7162e-06
0.511161
2.07391e-06
0.511161
2.37787e-06
0.511161
2.56402e-06
0.51116
2.59722e-06
0.51116
2.29447e-06
0.511161
1.97091e-06
0.511162
1.99467e-06
0.511162
2.04942e-06
0.511163
1.95227e-06
0.511163
2.1439e-06
0.511163
2.68304e-06
0.511163
3.06136e-06
0.511163
3.02266e-06
0.511162
2.6843e-06
0.511163
2.22985e-06
0.511163
1.92039e-06
0.511164
1.8451e-06
0.511165
1.87072e-06
0.511165
2.14299e-06
0.511165
2.50468e-06
0.511165
2.33083e-06
0.511165
1.93611e-06
0.511165
1.95517e-06
0.511165
2.16059e-06
0.511166
2.22455e-06
0.511166
2.04945e-06
0.511167
1.7621e-06
0.511168
1.83261e-06
0.511168
2.25527e-06
0.511168
2.5336e-06
0.511167
2.50741e-06
0.511167
2.33116e-06
0.511167
2.16358e-06
0.511167
2.09891e-06
0.511168
2.18068e-06
0.511169
2.43798e-06
0.511169
2.67504e-06
0.511169
2.68031e-06
0.51117
2.52232e-06
0.51117
2.16512e-06
0.511171
1.71216e-06
0.511171
1.66434e-06
0.511171
1.99525e-06
0.511171
2.23187e-06
0.511171
2.32709e-06
0.511171
2.27936e-06
0.511172
2.11104e-06
0.511172
2.11782e-06
0.511172
2.23031e-06
0.511172
2.28426e-06
0.511172
2.32634e-06
0.511172
2.29517e-06
0.511173
2.21179e-06
0.511173
2.09208e-06
0.511174
2.01026e-06
0.511174
2.18147e-06
0.511174
2.36692e-06
0.511174
2.35737e-06
0.511174
2.49434e-06
0.511174
2.79774e-06
0.511175
3.04893e-06
0.511174
3.41977e-06
0.511174
3.62709e-06
0.511173
3.19044e-06
0.511173
2.61741e-06
0.511173
2.28587e-06
0.511174
1.96857e-06
0.511176
1.87094e-06
0.511176
2.20223e-06
0.511176
2.59965e-06
0.511176
2.64294e-06
0.511176
2.41548e-06
0.511175
2.23855e-06
0.511175
2.00961e-06
0.511175
1.52469e-06
0.511177
1.05617e-06
0.511178
9.98553e-07
0.51118
1.41284e-06
0.51118
1.97054e-06
0.51118
2.37382e-06
0.51118
2.44741e-06
0.511179
2.2655e-06
0.511179
1.84582e-06
0.51118
1.43705e-06
0.511181
1.53885e-06
0.511182
1.80945e-06
0.511182
1.75414e-06
0.511183
1.74909e-06
0.511183
1.99537e-06
0.511183
2.19911e-06
0.511184
2.25542e-06
0.511184
2.26627e-06
0.511184
2.31843e-06
0.511184
2.4428e-06
0.511184
2.5174e-06
0.511185
2.54029e-06
0.511185
2.58192e-06
0.511186
2.49347e-06
0.511185
2.31211e-06
0.511185
2.19791e-06
0.511185
2.07198e-06
0.511185
2.07236e-06
0.511185
2.44631e-06
0.511185
2.94637e-06
0.511185
3.18359e-06
0.511185
3.11842e-06
0.511186
2.8154e-06
0.511187
2.39716e-06
0.511188
2.17978e-06
0.511189
2.31112e-06
0.511189
2.63568e-06
0.511189
2.83057e-06
0.511188
2.74137e-06
0.511187
2.58833e-06
0.511187
2.51084e-06
0.511187
2.47831e-06
0.511188
2.54111e-06
0.511188
2.65926e-06
0.511188
2.64103e-06
0.511188
2.4738e-06
0.511189
2.24556e-06
0.511189
2.07857e-06
0.511189
2.20698e-06
0.511189
2.34999e-06
0.511189
2.10332e-06
0.511189
1.93252e-06
0.51119
2.22581e-06
0.51119
2.61347e-06
0.51119
2.72595e-06
0.51119
2.48672e-06
0.511191
2.02114e-06
0.511192
1.5951e-06
0.511193
1.32247e-06
0.511194
1.10949e-06
0.511195
1.01796e-06
0.511195
1.10105e-06
0.511195
1.38137e-06
0.511195
1.88219e-06
0.511195
2.29018e-06
0.511194
2.41252e-06
0.511194
2.36255e-06
0.511194
2.25447e-06
0.511195
2.24863e-06
0.511195
2.3075e-06
0.511195
2.25625e-06
0.511196
2.2001e-06
0.511196
2.05768e-06
2.08406e-06
0.511136
1.17747e-07
0.511136
6.78838e-07
0.511136
1.17846e-06
0.511137
1.46796e-06
0.511137
1.27104e-06
0.511138
1.00442e-06
0.511139
1.4527e-06
0.511138
2.2046e-06
0.511138
2.4016e-06
0.511137
2.26978e-06
0.511137
2.18164e-06
0.511138
2.02237e-06
0.511139
1.76328e-06
0.511139
1.72898e-06
0.511139
1.92293e-06
0.51114
1.99688e-06
0.51114
1.76459e-06
0.51114
1.51686e-06
0.511141
1.46171e-06
0.511141
1.6267e-06
0.511141
1.90485e-06
0.511141
2.13536e-06
0.511142
2.30236e-06
0.511142
2.11921e-06
0.511143
1.88695e-06
0.511143
2.16071e-06
0.511142
2.67468e-06
0.511142
2.89575e-06
0.511142
2.78377e-06
0.511143
2.48264e-06
0.511143
2.28354e-06
0.511143
2.2385e-06
0.511143
2.05605e-06
0.511144
1.85864e-06
0.511144
1.88379e-06
0.511144
1.93583e-06
0.511144
1.66945e-06
0.511144
1.28621e-06
0.511144
1.34958e-06
0.511144
1.68493e-06
0.511145
1.96668e-06
0.511146
2.03467e-06
0.511146
1.80996e-06
0.511147
1.80859e-06
0.511147
2.10792e-06
0.511147
2.16418e-06
0.511147
2.29029e-06
0.511147
2.6948e-06
0.511147
2.76967e-06
0.511147
2.5856e-06
0.511147
2.42069e-06
0.511148
2.09719e-06
0.511149
1.76387e-06
0.511149
1.6893e-06
0.51115
1.74211e-06
0.511151
1.74951e-06
0.511151
1.64485e-06
0.51115
1.43698e-06
0.51115
1.42017e-06
0.511151
1.78134e-06
0.511151
2.12124e-06
0.511151
2.10999e-06
0.511151
2.06605e-06
0.511151
2.25827e-06
0.511152
2.1819e-06
0.511152
1.74216e-06
0.511153
1.7045e-06
0.511153
2.04583e-06
0.511153
2.2817e-06
0.511153
2.36752e-06
0.511153
2.18229e-06
0.511154
1.96474e-06
0.511155
2.09129e-06
0.511154
2.10997e-06
0.511154
1.95604e-06
0.511154
1.96393e-06
0.511154
1.89323e-06
0.511155
1.91274e-06
0.511155
2.24026e-06
0.511155
2.25858e-06
0.511156
1.89321e-06
0.511156
1.57282e-06
0.511157
1.48475e-06
0.511157
1.7584e-06
0.511157
1.94707e-06
0.511157
1.81846e-06
0.511157
1.89833e-06
0.511157
2.18868e-06
0.511157
2.40061e-06
0.511158
2.52569e-06
0.511158
2.50445e-06
0.511158
2.49307e-06
0.511158
2.55033e-06
0.511157
2.39316e-06
0.511158
2.20068e-06
0.511158
2.29785e-06
0.511159
2.40546e-06
0.511159
2.28403e-06
0.51116
2.03604e-06
0.51116
1.76837e-06
0.51116
1.74959e-06
0.511159
1.95655e-06
0.51116
1.93459e-06
0.51116
1.8942e-06
0.511161
2.096e-06
0.511161
2.13766e-06
0.511161
2.0379e-06
0.511161
1.98667e-06
0.511161
1.81976e-06
0.511162
1.751e-06
0.511162
1.90279e-06
0.511162
1.97762e-06
0.511163
2.07871e-06
0.511163
2.34173e-06
0.511164
2.47408e-06
0.511164
2.45114e-06
0.511164
2.37382e-06
0.511164
2.10405e-06
0.511164
1.79695e-06
0.511164
1.63535e-06
0.511165
1.5943e-06
0.511165
1.7717e-06
0.511166
2.05476e-06
0.511165
2.16175e-06
0.511165
2.09186e-06
0.511165
2.01201e-06
0.511166
1.96855e-06
0.511166
1.83713e-06
0.511166
1.68983e-06
0.511166
1.66761e-06
0.511167
1.64355e-06
0.511168
1.68763e-06
0.511168
2.06389e-06
0.511168
2.45612e-06
0.511168
2.42305e-06
0.511167
2.22576e-06
0.511167
2.21189e-06
0.511168
2.2675e-06
0.511168
2.25769e-06
0.511168
2.18589e-06
0.511169
2.02006e-06
0.511169
1.77943e-06
0.51117
1.55018e-06
0.51117
1.38989e-06
0.51117
1.49027e-06
0.511171
1.86891e-06
0.511171
2.08926e-06
0.511171
2.03842e-06
0.511171
2.00092e-06
0.511171
1.96696e-06
0.511172
1.85723e-06
0.511172
1.74781e-06
0.511173
1.67599e-06
0.511174
1.74767e-06
0.511174
1.91661e-06
0.511174
1.87777e-06
0.511174
1.67557e-06
0.511175
1.62945e-06
0.511175
1.91183e-06
0.511175
2.47262e-06
0.511175
2.82461e-06
0.511175
2.76873e-06
0.511175
2.73292e-06
0.511176
2.8024e-06
0.511177
2.85341e-06
0.511177
2.9587e-06
0.511177
2.97778e-06
0.511176
2.77804e-06
0.511176
2.43406e-06
0.511175
2.00139e-06
0.511176
1.76958e-06
0.511177
1.95818e-06
0.511177
2.05024e-06
0.511178
1.74103e-06
0.511179
1.50592e-06
0.511179
1.53414e-06
0.511179
1.5889e-06
0.511178
1.5668e-06
0.511178
1.3974e-06
0.511178
1.11682e-06
0.511179
8.47658e-07
0.511181
8.88374e-07
0.511182
1.44918e-06
0.511182
2.01408e-06
0.511182
2.10911e-06
0.511182
1.83304e-06
0.511181
1.57629e-06
0.511182
1.49249e-06
0.511182
1.52979e-06
0.511182
1.61927e-06
0.511182
1.71577e-06
0.511183
1.85014e-06
0.511183
1.97453e-06
0.511183
2.06328e-06
0.511183
2.31582e-06
0.511183
2.73582e-06
0.511183
2.81317e-06
0.511183
2.36338e-06
0.511184
1.90094e-06
0.511184
1.74453e-06
0.511185
1.89577e-06
0.511185
2.12732e-06
0.511185
2.19969e-06
0.511184
2.33769e-06
0.511184
2.56811e-06
0.511185
2.64129e-06
0.511185
2.76778e-06
0.511185
2.99062e-06
0.511185
2.99978e-06
0.511185
2.78044e-06
0.511184
2.45528e-06
0.511184
2.14675e-06
0.511185
2.01854e-06
0.511186
1.97815e-06
0.511187
2.01938e-06
0.511187
2.31979e-06
0.511187
2.57972e-06
0.511187
2.5345e-06
0.511187
2.4356e-06
0.511187
2.47185e-06
0.511187
2.5257e-06
0.511187
2.33971e-06
0.511188
1.94897e-06
0.511188
1.65805e-06
0.511189
1.63879e-06
0.511189
1.84264e-06
0.511189
2.05421e-06
0.511189
2.23212e-06
0.511189
2.46524e-06
0.511189
2.47394e-06
0.511189
2.10927e-06
0.51119
1.78938e-06
0.51119
1.64152e-06
0.511191
1.28825e-06
0.511191
8.82239e-07
0.511192
7.01589e-07
0.511192
6.69762e-07
0.511192
7.941e-07
0.511193
1.01219e-06
0.511193
1.27923e-06
0.511194
1.66323e-06
0.511194
1.94947e-06
0.511195
1.97247e-06
0.511195
1.94205e-06
0.511195
2.025e-06
0.511195
2.17162e-06
0.511196
2.1071e-06
0.511196
1.9515e-06
0.511196
1.84613e-06
1.85211e-06
0.511136
1.13079e-07
0.511136
6.11018e-07
0.511136
9.8935e-07
0.511137
1.13782e-06
0.511137
9.49155e-07
0.511137
9.80038e-07
0.511137
1.42345e-06
0.511138
1.56749e-06
0.511139
1.5178e-06
0.511139
1.80042e-06
0.511139
1.83869e-06
0.51114
1.53969e-06
0.51114
1.60297e-06
0.51114
1.80474e-06
0.51114
1.7839e-06
0.51114
1.7149e-06
0.51114
1.66118e-06
0.51114
1.58478e-06
0.51114
1.44969e-06
0.511141
1.46233e-06
0.511141
1.67007e-06
0.511141
1.88943e-06
0.511141
1.91907e-06
0.511142
1.81995e-06
0.511142
1.89683e-06
0.511142
2.19656e-06
0.511142
2.6345e-06
0.511142
2.57688e-06
0.511143
2.12745e-06
0.511143
2.0316e-06
0.511144
1.96732e-06
0.511144
1.78444e-06
0.511144
1.6304e-06
0.511145
1.56561e-06
0.511145
1.73883e-06
0.511145
1.74713e-06
0.511145
1.42894e-06
0.511145
1.3637e-06
0.511145
1.37356e-06
0.511146
1.22839e-06
0.511146
1.34961e-06
0.511147
1.61173e-06
0.511147
1.85237e-06
0.511147
1.90434e-06
0.511147
1.67691e-06
0.511147
1.72548e-06
0.511148
2.04799e-06
0.511148
2.29929e-06
0.511148
2.60028e-06
0.511148
2.68882e-06
0.511148
2.27659e-06
0.511148
1.97645e-06
0.511148
1.9993e-06
0.511148
1.81861e-06
0.511148
1.59355e-06
0.511148
1.41219e-06
0.511149
1.00967e-06
0.51115
9.46887e-07
0.51115
1.43576e-06
0.51115
1.68798e-06
0.51115
1.63238e-06
0.511151
1.75759e-06
0.511151
1.9202e-06
0.511151
1.98751e-06
0.511151
2.07702e-06
0.511151
1.89066e-06
0.511151
1.3872e-06
0.511152
1.33956e-06
0.511152
1.89341e-06
0.511152
2.2471e-06
0.511152
2.26781e-06
0.511152
2.10542e-06
0.511153
1.68011e-06
0.511153
1.62075e-06
0.511153
1.98719e-06
0.511153
1.97296e-06
0.511153
1.81555e-06
0.511153
1.82233e-06
0.511154
1.71263e-06
0.511154
1.62964e-06
0.511155
1.51779e-06
0.511155
1.29306e-06
0.511155
1.33143e-06
0.511155
1.52492e-06
0.511156
1.60933e-06
0.511156
1.74071e-06
0.511156
1.87794e-06
0.511156
1.97955e-06
0.511156
2.06354e-06
0.511157
1.95503e-06
0.511157
1.98747e-06
0.511158
2.36859e-06
0.511158
2.47123e-06
0.511158
2.24212e-06
0.511158
2.19894e-06
0.511158
2.28654e-06
0.511158
2.30982e-06
0.511158
2.20637e-06
0.511158
2.01427e-06
0.511158
1.85992e-06
0.511158
1.64539e-06
0.511159
1.45461e-06
0.511159
1.53769e-06
0.511159
1.64316e-06
0.51116
1.68735e-06
0.51116
1.86878e-06
0.51116
1.77788e-06
0.511161
1.38542e-06
0.511161
1.26445e-06
0.511162
1.34405e-06
0.511162
1.59223e-06
0.511162
2.13137e-06
0.511162
2.33134e-06
0.511162
2.07679e-06
0.511162
1.90997e-06
0.511163
1.66464e-06
0.511164
1.36247e-06
0.511165
1.47674e-06
0.511165
1.77835e-06
0.511165
1.76948e-06
0.511165
1.60819e-06
0.511165
1.68975e-06
0.511165
1.84558e-06
0.511165
1.89674e-06
0.511165
1.94409e-06
0.511166
1.78074e-06
0.511166
1.46484e-06
0.511167
1.42774e-06
0.511167
1.51388e-06
0.511167
1.50681e-06
0.511167
1.62467e-06
0.511167
1.75155e-06
0.511167
1.79125e-06
0.511168
2.00118e-06
0.511168
2.20201e-06
0.511168
2.18798e-06
0.511168
2.09785e-06
0.511168
1.97843e-06
0.511169
1.96359e-06
0.511169
1.97836e-06
0.511169
1.73701e-06
0.511169
1.40766e-06
0.51117
1.29856e-06
0.51117
1.47853e-06
0.511169
1.73579e-06
0.511169
1.73746e-06
0.51117
1.61909e-06
0.51117
1.66938e-06
0.511171
1.67886e-06
0.511171
1.58472e-06
0.511171
1.63018e-06
0.511171
1.72361e-06
0.511171
1.70791e-06
0.511171
1.57567e-06
0.511172
1.41809e-06
0.511172
1.3886e-06
0.511173
1.42917e-06
0.511173
1.55005e-06
0.511173
1.85757e-06
0.511173
2.20097e-06
0.511173
2.56816e-06
0.511173
2.94647e-06
0.511173
3.00782e-06
0.511173
2.80337e-06
0.511173
2.67591e-06
0.511173
2.60251e-06
0.511174
2.56112e-06
0.511174
2.53608e-06
0.511174
2.33376e-06
0.511174
2.06722e-06
0.511174
1.85748e-06
0.511174
1.65017e-06
0.511175
1.60724e-06
0.511175
1.61056e-06
0.511175
1.33652e-06
0.511176
9.31233e-07
0.511177
6.91654e-07
0.511177
6.38702e-07
0.511178
7.68629e-07
0.511178
9.90335e-07
0.511178
1.13692e-06
0.511178
1.131e-06
0.511178
1.05503e-06
0.511179
1.13285e-06
0.51118
1.31278e-06
0.51118
1.27961e-06
0.511181
1.20386e-06
0.511181
1.24089e-06
0.511181
1.20945e-06
0.511182
1.24074e-06
0.511182
1.44929e-06
0.511182
1.67442e-06
0.511182
1.87578e-06
0.511182
1.99297e-06
0.511183
1.98287e-06
0.511183
2.09097e-06
0.511184
2.29538e-06
0.511184
2.16332e-06
0.511184
1.88238e-06
0.511184
1.87163e-06
0.511184
1.87699e-06
0.511184
1.79945e-06
0.511184
1.98381e-06
0.511184
2.32664e-06
0.511184
2.51601e-06
0.511184
2.63213e-06
0.511185
2.62844e-06
0.511185
2.45528e-06
0.511186
2.42143e-06
0.511186
2.4866e-06
0.511186
2.48838e-06
0.511186
2.42251e-06
0.511186
2.13702e-06
0.511186
1.83218e-06
0.511186
1.83988e-06
0.511186
2.05753e-06
0.511186
2.2777e-06
0.511187
2.34826e-06
0.511187
2.29958e-06
0.511187
2.28791e-06
0.511187
2.09761e-06
0.511188
1.67035e-06
0.511188
1.59089e-06
0.511188
1.82279e-06
0.511188
1.81737e-06
0.511188
1.72837e-06
0.511189
1.72431e-06
0.511189
1.7217e-06
0.51119
1.75787e-06
0.511191
1.6629e-06
0.511191
1.49696e-06
0.511192
1.45117e-06
0.511192
1.28888e-06
0.511192
8.96344e-07
0.511193
4.84808e-07
0.511193
2.46649e-07
0.511193
3.70281e-07
0.511193
7.66104e-07
0.511193
1.04562e-06
0.511194
1.18879e-06
0.511194
1.30816e-06
0.511194
1.38767e-06
0.511195
1.62758e-06
0.511195
1.93303e-06
0.511195
1.92196e-06
0.511195
1.56148e-06
0.511196
1.32652e-06
0.511197
1.30823e-06
0.511197
1.40384e-06
1.64817e-06
0.511136
1.16534e-07
0.511136
5.10601e-07
0.511136
6.9753e-07
0.511137
6.49426e-07
0.511137
8.26731e-07
0.511137
1.0239e-06
0.511137
8.33986e-07
0.511138
6.50961e-07
0.511139
8.77679e-07
0.51114
1.30506e-06
0.51114
1.65571e-06
0.511139
1.83357e-06
0.511139
1.891e-06
0.511139
1.83848e-06
0.511139
1.70533e-06
0.511139
1.6146e-06
0.51114
1.2807e-06
0.51114
8.98872e-07
0.511141
1.23373e-06
0.51114
1.663e-06
0.51114
1.56307e-06
0.511141
1.61046e-06
0.511141
1.94494e-06
0.511141
1.95083e-06
0.511141
1.89121e-06
0.511141
1.94687e-06
0.511142
1.56299e-06
0.511143
1.2044e-06
0.511144
1.41422e-06
0.511144
1.81029e-06
0.511144
2.00506e-06
0.511144
1.91928e-06
0.511144
1.81653e-06
0.511144
1.89429e-06
0.511144
1.64442e-06
0.511144
1.03064e-06
0.511145
7.90082e-07
0.511145
1.0842e-06
0.511145
1.48867e-06
0.511145
1.57844e-06
0.511145
1.29757e-06
0.511145
1.04043e-06
0.511146
1.16897e-06
0.511146
1.5388e-06
0.511146
1.94516e-06
0.511146
2.28196e-06
0.511145
2.25303e-06
0.511146
2.05418e-06
0.511146
2.03622e-06
0.511147
2.02e-06
0.511147
1.99237e-06
0.511147
1.89631e-06
0.511148
1.6571e-06
0.511148
1.56176e-06
0.511148
1.33364e-06
0.511149
8.53834e-07
0.511149
8.31163e-07
0.511149
1.15358e-06
0.511149
1.23261e-06
0.511149
1.28506e-06
0.511149
1.48355e-06
0.511149
1.68165e-06
0.51115
1.82136e-06
0.51115
1.69251e-06
0.511151
1.38988e-06
0.511151
1.32092e-06
0.511151
1.44133e-06
0.511151
1.51289e-06
0.511151
1.58076e-06
0.511152
1.76239e-06
0.511152
1.9081e-06
0.511152
1.83036e-06
0.511152
1.7331e-06
0.511152
1.69301e-06
0.511153
1.47802e-06
0.511153
1.26758e-06
0.511154
1.31276e-06
0.511154
1.45231e-06
0.511154
1.56316e-06
0.511155
1.4391e-06
0.511155
1.10574e-06
0.511155
1.032e-06
0.511155
1.14135e-06
0.511156
1.0914e-06
0.511156
1.20009e-06
0.511156
1.61615e-06
0.511156
1.9844e-06
0.511156
2.03225e-06
0.511157
1.76911e-06
0.511157
1.48529e-06
0.511157
1.59341e-06
0.511158
1.9906e-06
0.511158
2.13301e-06
0.511158
2.08612e-06
0.511158
2.23154e-06
0.511158
2.2774e-06
0.511159
1.96241e-06
0.511159
1.61994e-06
0.51116
1.49297e-06
0.51116
1.54411e-06
0.51116
1.67716e-06
0.51116
1.70262e-06
0.51116
1.54342e-06
0.51116
1.42411e-06
0.51116
1.33308e-06
0.511161
1.20129e-06
0.511162
1.25981e-06
0.511162
1.3388e-06
0.511162
1.19052e-06
0.511162
1.23047e-06
0.511162
1.57483e-06
0.511162
1.83987e-06
0.511162
1.94282e-06
0.511163
1.91444e-06
0.511163
1.64874e-06
0.511163
1.32201e-06
0.511163
1.22786e-06
0.511164
1.24219e-06
0.511164
1.2509e-06
0.511165
1.40757e-06
0.511164
1.62705e-06
0.511164
1.74473e-06
0.511165
1.76409e-06
0.511165
1.70209e-06
0.511165
1.48783e-06
0.511166
1.15691e-06
0.511166
9.75354e-07
0.511167
9.82616e-07
0.511167
1.05972e-06
0.511167
1.27578e-06
0.511167
1.58327e-06
0.511167
1.81172e-06
0.511167
1.82937e-06
0.511168
1.67388e-06
0.511168
1.63503e-06
0.511169
1.88181e-06
0.511169
2.12847e-06
0.511168
2.07001e-06
0.511169
1.85284e-06
0.511169
1.60941e-06
0.511169
1.32513e-06
0.51117
1.15929e-06
0.51117
1.23872e-06
0.51117
1.46861e-06
0.51117
1.53045e-06
0.51117
1.34139e-06
0.511171
1.21641e-06
0.511171
1.27844e-06
0.511171
1.43331e-06
0.511171
1.51955e-06
0.511172