/*--------------------------------*- C++ -*----------------------------------*\
| =========                 |                                                 |
| \\      /  F ield         | OpenFOAM: The Open Source CFD Toolbox           |
|  \\    /   O peration     | Version:  2406                                  |
|   \\  /    A nd           | Website:  www.openfoam.com                      |
|    \\/     M anipulation  |                                                 |
\*---------------------------------------------------------------------------*/
FoamFile
{
    version     2.0;
    format      ascii;
    arch        "LSB;label=32;scalar=64";
    class       volScalarField;
    location    "2";
    object      p;
}
// * * * * * * * * * * * * * * * * * * * * * * * * * * * * * * * * * * * * * //

dimensions      [1 -1 -2 0 0 0 0];

internalField   nonuniform List<scalar> 
6250
(
-3.34389
-3226.88
-1037.8
539.246
494.608
25.4801
-135.215
-57.9136
18.5449
24.9287
4.78481
-4.80749
-2.5326
1.15999
1.89391
1.07959
0.546436
0.578669
0.741878
0.790431
0.759632
0.730096
0.724316
0.729281
0.730553
0.726441
0.720807
0.719449
0.719477
0.715363
0.711625
0.70843
0.700203
0.691174
0.690246
0.695888
0.696438
0.68717
0.678326
0.677938
0.679852
0.674607
0.665141
0.657544
0.650584
0.64714
0.64867
0.648058
0.643933
0.640976
0.63886
0.635684
0.631096
0.626586
0.624762
0.623467
0.617204
0.608644
0.608735
0.614114
0.612802
0.609206
0.607885
0.604501
0.599682
0.594225
0.589618
0.590947
0.59511
0.593641
0.587527
0.582302
0.578892
0.577848
0.575318
0.56532
0.553564
0.547687
0.54497
0.543122
0.542284
0.539727
0.538924
0.541405
0.540306
0.538768
0.538753
0.533285
0.526762
0.526009
0.525731
0.521125
0.517667
0.518967
0.519233
0.515951
0.512421
0.508562
0.500948
0.493279
0.492434
0.494838
0.496264
0.496982
0.495893
0.494203
0.491242
0.48823
0.490536
0.491234
0.483628
0.475961
0.472105
0.46854
0.464791
0.462768
0.463445
0.46267
0.456802
0.448069
0.441017
0.437871
0.436605
0.435382
0.43204
0.425601
0.419274
0.414906
0.412582
0.408943
0.401709
0.396271
0.39325
0.387629
0.382029
0.381499
0.383295
0.383009
0.380677
0.377077
0.37288
0.368449
0.364842
0.363739
0.36159
0.354985
0.348713
0.344886
0.341308
0.342052
0.3449
0.342369
0.338292
0.333694
0.32744
0.324388
0.321502
0.31594
0.310681
0.303565
0.294189
0.287868
0.28481
0.280324
0.276403
0.274904
0.272056
0.26697
0.259101
0.253024
0.252166
0.249773
0.246123
0.242875
0.238608
0.235688
0.231631
0.22757
0.225879
0.221456
0.214482
0.208713
0.204166
0.198722
0.194232
0.19156
0.185162
0.1789
0.177801
0.175831
0.171848
0.169147
0.166183
0.159936
0.152392
0.1478
0.146359
0.145076
0.139349
0.130779
0.123528
0.116102
0.111134
0.10974
0.107231
0.104942
0.103175
0.0989554
0.096096
0.0961195
0.0950545
0.0950595
0.0962382
0.0934457
0.0883358
0.0833741
0.0795037
0.0778188
0.0763183
0.0760798
0.0769812
0.0779199
0.081514
0.0855648
0.0871219
0.0856232
0.081747
0.0818822
0.0859035
0.0838687
0.075127
0.0698735
0.0698137
0.0681048
0.0659525
0.0668034
0.0678264
0.0655526
0.0594566
0.0539487
0.0498323
0.0435107
0.0373087
0.0319838
0.0256435
0.0214073
0.0195268
0.0153628
0.0123109
0.000616939
-3.37576
-3226.95
-1037.83
539.256
494.625
25.4807
-135.224
-57.9183
18.5452
24.9281
4.78423
-4.80852
-2.53475
1.15925
1.89438
1.08115
0.544893
0.572539
0.736422
0.787532
0.759616
0.73313
0.72969
0.734111
0.727748
0.720506
0.72299
0.723537
0.718869
0.714266
0.710384
0.705867
0.699086
0.693516
0.692034
0.691903
0.68949
0.685559
0.685079
0.684275
0.677871
0.670016
0.663671
0.655108
0.647732
0.648485
0.650636
0.649014
0.646575
0.640569
0.63303
0.629909
0.629134
0.632447
0.634723
0.625754
0.614194
0.608599
0.608642
0.610466
0.607026
0.604369
0.607085
0.607524
0.603066
0.594541
0.589078
0.591893
0.593035
0.590646
0.590464
0.586643
0.579798
0.575853
0.571166
0.566187
0.559715
0.548272
0.540982
0.540158
0.540497
0.541719
0.541946
0.542435
0.542201
0.537873
0.533667
0.530638
0.527568
0.527412
0.526788
0.520953
0.516133
0.515472
0.51648
0.519766
0.517624
0.507662
0.500506
0.495214
0.490542
0.492212
0.495452
0.496172
0.497263
0.497039
0.493445
0.490623
0.490006
0.48608
0.478943
0.475167
0.47512
0.474287
0.468995
0.462554
0.459994
0.456858
0.452359
0.449585
0.446438
0.442541
0.436724
0.431152
0.429287
0.426504
0.420862
0.41495
0.411369
0.40927
0.403307
0.395788
0.3919
0.388127
0.381958
0.378359
0.38027
0.384102
0.383954
0.3787
0.373949
0.370633
0.365369
0.361125
0.358921
0.354458
0.348417
0.344711
0.343475
0.344889
0.346405
0.341824
0.333822
0.328775
0.328185
0.329517
0.326434
0.31859
0.30769
0.295695
0.288833
0.28725
0.287451
0.28662
0.282495
0.275336
0.266027
0.260616
0.258974
0.254551
0.251306
0.251263
0.249309
0.24379
0.23976
0.237777
0.229821
0.222535
0.222702
0.221712
0.218179
0.212262
0.204469
0.197875
0.190487
0.185946
0.185119
0.182795
0.178968
0.174209
0.171626
0.170936
0.165259
0.157304
0.155509
0.154369
0.14652
0.140645
0.138557
0.131267
0.121893
0.115377
0.110875
0.108701
0.106745
0.104172
0.103113
0.101219
0.0970608
0.0951333
0.0962349
0.0988174
0.100233
0.0938808
0.0842345
0.0803002
0.0789765
0.0775428
0.077012
0.0762753
0.0757806
0.0773605
0.081023
0.0854451
0.0888587
0.0867322
0.0800382
0.0789804
0.0841307
0.0844909
0.0760046
0.0688033
0.0703891
0.070708
0.0666347
0.0674046
0.0692441
0.0661982
0.0610956
0.0552407
0.0478898
0.0394037
0.0330646
0.0304108
0.0285254
0.0265817
0.0232597
0.0157199
0.00600882
0.00243158
-3.37393
-3226.94
-1037.82
539.261
494.63
25.4803
-135.228
-57.9155
18.5548
24.9334
4.78326
-4.81012
-2.5367
1.16014
1.898
1.08167
0.545435
0.577386
0.742029
0.788926
0.759198
0.73552
0.728323
0.729905
0.731903
0.726593
0.724156
0.72294
0.716984
0.713277
0.710312
0.702866
0.695749
0.696934
0.69834
0.693109
0.689809
0.68975
0.687197
0.680658
0.674956
0.671916
0.665924
0.656159
0.648643
0.648225
0.64841
0.645937
0.646871
0.643561
0.634658
0.632789
0.632091
0.6289
0.62951
0.624657
0.613658
0.610253
0.61384
0.612912
0.607801
0.607628
0.607538
0.602811
0.600473
0.597513
0.592469
0.593162
0.593803
0.588998
0.587133
0.587993
0.58366
0.576087
0.569255
0.563959
0.557807
0.548643
0.542962
0.542274
0.541143
0.539855
0.539603
0.541019
0.541914
0.539165
0.535369
0.531071
0.526511
0.525163
0.525575
0.524298
0.522247
0.518649
0.514796
0.517109
0.517036
0.506322
0.498802
0.49649
0.491558
0.491592
0.49643
0.497148
0.496249
0.496948
0.49564
0.492332
0.490034
0.485094
0.478309
0.476123
0.473861
0.469876
0.469556
0.468081
0.462269
0.456016
0.451552
0.448289
0.444683
0.442155
0.439319
0.433771
0.427694
0.423565
0.421997
0.418815
0.412118
0.40644
0.401718
0.395415
0.390537
0.389123
0.386347
0.382222
0.382111
0.382884
0.379457
0.37485
0.374237
0.374111
0.367232
0.359027
0.357586
0.355743
0.34833
0.344277
0.345263
0.345254
0.343928
0.339268
0.334042
0.333441
0.331595
0.326842
0.323107
0.318145
0.309228
0.299171
0.292298
0.287218
0.284332
0.284257
0.282541
0.277608
0.269103
0.261096
0.257618
0.25453
0.252013
0.251264
0.248426
0.242267
0.237327
0.236901
0.23369
0.227125
0.223583
0.21925
0.213726
0.209066
0.204782
0.202162
0.196096
0.187346
0.182842
0.180077
0.176205
0.174034
0.174349
0.172111
0.163808
0.155681
0.154785
0.155104
0.148317
0.141339
0.137664
0.129634
0.120975
0.116549
0.112023
0.108807
0.106863
0.10285
0.102006
0.103751
0.100263
0.0961587
0.0969274
0.0984913
0.097922
0.0928946
0.0849424
0.0797294
0.0774341
0.076258
0.0757117
0.0758099
0.0780025
0.0819194
0.0852793
0.0853732
0.0830604
0.0823833
0.0826011
0.082038
0.0831501
0.083972
0.0788992
0.0717738
0.0708355
0.0710243
0.0666915
0.0639306
0.0637994
0.062454
0.0595738
0.0553362
0.0500788
0.043437
0.0369266
0.0326092
0.0294355
0.0256752
0.0206223
0.0130779
0.00456007
0.00161824
-3.37602
-3226.95
-1037.83
539.249
494.622
25.4768
-135.233
-57.9208
18.5514
24.9312
4.78225
-4.81146
-2.53931
1.15886
1.89643
1.07746
0.542828
0.578753
0.743716
0.790552
0.758894
0.730019
0.723523
0.727413
0.729408
0.726914
0.725919
0.724736
0.719544
0.713325
0.707514
0.702706
0.69899
0.698358
0.696047
0.688667
0.687444
0.69045
0.687335
0.680335
0.672424
0.665155
0.661262
0.657932
0.652468
0.649208
0.646512
0.643253
0.644388
0.641802
0.634579
0.634902
0.635646
0.630245
0.62602
0.621241
0.615801
0.614669
0.61342
0.609929
0.608641
0.608217
0.604354
0.600249
0.599528
0.597566
0.593542
0.592101
0.592805
0.592386
0.589197
0.583807
0.579706
0.576729
0.571288
0.564405
0.556227
0.546452
0.541998
0.542553
0.542482
0.542584
0.540646
0.537598
0.537798
0.538135
0.536025
0.532159
0.528297
0.524438
0.520721
0.521471
0.523733
0.521524
0.519622
0.519873
0.513178
0.500944
0.496254
0.49664
0.49425
0.494835
0.497678
0.496906
0.4951
0.49428
0.493846
0.49242
0.489389
0.485583
0.481765
0.478783
0.473064
0.46742
0.468621
0.468254
0.461404
0.456286
0.453551
0.448914
0.443623
0.439829
0.436696
0.433394
0.428795
0.424324
0.423304
0.420231
0.412305
0.406061
0.40206
0.395466
0.387423
0.384606
0.385848
0.385224
0.384864
0.384372
0.379955
0.374368
0.371633
0.370741
0.368012
0.362803
0.357574
0.352482
0.346319
0.344236
0.347494
0.347259
0.343244
0.338563
0.333834
0.33326
0.332433
0.327411
0.321696
0.314254
0.306023
0.300595
0.296518
0.291461
0.287672
0.284723
0.27857
0.27253
0.267732
0.261742
0.257956
0.256485
0.254447
0.25109
0.247294
0.24276
0.236482
0.233238
0.232648
0.229129
0.224604
0.22055
0.215161
0.208323
0.202556
0.198842
0.194001
0.18868
0.184477
0.179427
0.175549
0.174418
0.172612
0.168399
0.163584
0.159003
0.155089
0.153507
0.150771
0.143797
0.136596
0.129145
0.120455
0.114615
0.110788
0.108178
0.107693
0.104593
0.101199
0.102302
0.102722
0.101938
0.101951
0.0989141
0.0940596
0.0897021
0.0841704
0.0791041
0.0762675
0.0752172
0.0759073
0.0774603
0.0798964
0.0833432
0.0858034
0.0845001
0.0791232
0.0777112
0.0842179
0.087211
0.0832326
0.081238
0.0790629
0.0722266
0.0681065
0.0693308
0.0693539
0.0668857
0.0637361
0.0604977
0.0569899
0.0516787
0.0465307
0.0427804
0.0396457
0.0371502
0.0325442
0.0258499
0.0191468
0.0135414
0.00753487
0.00225043
-3.37864
-3226.95
-1037.84
539.246
494.619
25.4803
-135.225
-57.9178
18.5501
24.9319
4.78473
-4.80892
-2.53787
1.15968
1.89718
1.07951
0.54656
0.579841
0.743718
0.794219
0.763923
0.732777
0.722493
0.72691
0.734814
0.732402
0.725198
0.721279
0.716644
0.714215
0.711388
0.70274
0.696915
0.697441
0.69694
0.692873
0.691456
0.692311
0.688372
0.681229
0.672986
0.663182
0.658607
0.658516
0.653492
0.648179
0.647599
0.644944
0.642339
0.64106
0.636889
0.635063
0.635331
0.631719
0.628084
0.624947
0.618599
0.614245
0.612985
0.609646
0.607446
0.607303
0.604679
0.60186
0.600697
0.598797
0.595662
0.592334
0.592041
0.593688
0.591195
0.585196
0.579411
0.575429
0.570719
0.56213
0.55464
0.549087
0.542999
0.541275
0.542722
0.542792
0.541698
0.538739
0.536476
0.537493
0.536411
0.530491
0.526728
0.526782
0.524508
0.522044
0.522011
0.521197
0.520715
0.51971
0.513873
0.504696
0.496926
0.493483
0.494585
0.496754
0.496844
0.496894
0.496441
0.494758
0.495968
0.494164
0.487067
0.483868
0.482039
0.47906
0.476032
0.470731
0.468135
0.466077
0.459902
0.456148
0.454222
0.449589
0.444747
0.439909
0.434784
0.432246
0.430092
0.427366
0.425891
0.420579
0.411562
0.404175
0.399336
0.397002
0.392174
0.3852
0.383493
0.385386
0.38583
0.383522
0.380902
0.37825
0.372442
0.367845
0.366453
0.362571
0.356722
0.351955
0.34761
0.346768
0.348736
0.345605
0.341093
0.339056
0.335269
0.334227
0.333553
0.327199
0.320824
0.3139
0.306312
0.301876
0.296815
0.292509
0.291362
0.28593
0.276422
0.271927
0.26935
0.262542
0.257614
0.257156
0.255038
0.24919
0.244761
0.243583
0.239729
0.234824
0.23321
0.228938
0.221746
0.218034
0.216166
0.211551
0.204785
0.197985
0.192844
0.189332
0.183828
0.177781
0.176278
0.175285
0.169933
0.16561
0.164745
0.161899
0.156773
0.152767
0.14861
0.142566
0.136794
0.131565
0.12366
0.11457
0.108182
0.105199
0.106097
0.107924
0.107251
0.1058
0.104285
0.10245
0.101291
0.0987381
0.0920719
0.0853953
0.0827153
0.0802256
0.0770075
0.0763551
0.0776403
0.0796736
0.0820815
0.0825373
0.0815926
0.0818301
0.0802938
0.0801032
0.087258
0.0898257
0.0820712
0.0778141
0.0784517
0.074961
0.0687624
0.0656254
0.0660854
0.0668034
0.0651669
0.0621445
0.0576005
0.0503406
0.0455214
0.0431431
0.0393298
0.0372192
0.0341173
0.0265603
0.0182759
0.0112461
0.00540965
0.00162693
-3.38001
-3226.96
-1037.84
539.245
494.616
25.4789
-135.227
-57.9225
18.5477
24.9324
4.78223
-4.81293
-2.53908
1.15835
1.89754
1.08337
0.546699
0.573801
0.738932
0.794002
0.761972
0.729121
0.724024
0.729032
0.735093
0.734141
0.723174
0.717558
0.717297
0.712192
0.707234
0.704913
0.701662
0.699529
0.697611
0.69219
0.688833
0.688751
0.6847
0.677831
0.671375
0.664397
0.658152
0.654741
0.651248
0.646683
0.645063
0.64408
0.643016
0.642137
0.638736
0.637254
0.635525
0.629888
0.625911
0.622573
0.619136
0.617258
0.612751
0.607229
0.605513
0.605811
0.6061
0.603676
0.598693
0.597121
0.596591
0.592687
0.592188
0.59434
0.589445
0.582378
0.57992
0.57549
0.56737
0.561111
0.555589
0.548429
0.54438
0.543299
0.540038
0.539133
0.540425
0.537171
0.536239
0.539198
0.535859
0.528734
0.526179
0.525816
0.523787
0.52325
0.523621
0.522298
0.521873
0.51783
0.509149
0.504097
0.499421
0.493055
0.493951
0.498807
0.497019
0.494295
0.496214
0.49529
0.493798
0.493883
0.489349
0.48513
0.482283
0.477657
0.475662
0.47291
0.466986
0.463053
0.460481
0.45706
0.453646
0.449877
0.445408
0.439406
0.432581
0.431137
0.432762
0.429243
0.424066
0.418933
0.411654
0.404128
0.397354
0.394601
0.392974
0.387849
0.385359
0.386269
0.385152
0.382295
0.379946
0.376689
0.370947
0.367616
0.367518
0.363357
0.355065
0.350277
0.349527
0.347917
0.346428
0.344701
0.341809
0.339662
0.335506
0.333046
0.333339
0.326823
0.317797
0.312877
0.308379
0.303712
0.298643
0.294294
0.291423
0.285601
0.277331
0.270781
0.26632
0.262541
0.258704
0.256264
0.254979
0.25059
0.244685
0.242503
0.240088
0.234288
0.23104
0.228879
0.222403
0.217295
0.215702
0.211136
0.204444
0.198407
0.192924
0.188644
0.182803
0.176118
0.174205
0.174259
0.170141
0.164968
0.163067
0.1617
0.157896
0.152739
0.148614
0.143934
0.136558
0.129199
0.12175
0.11484
0.110973
0.107219
0.106068
0.109009
0.108899
0.106555
0.105398
0.10361
0.101822
0.0985252
0.0905442
0.08318
0.0813137
0.0800258
0.0770378
0.0759933
0.0780036
0.0811028
0.083098
0.0832853
0.0815196
0.0809513
0.0821526
0.0814221
0.0836131
0.0871628
0.0830309
0.0779826
0.0766873
0.0727751
0.0679845
0.0671677
0.0682801
0.0671096
0.0629566
0.0592427
0.0559629
0.0503081
0.0452461
0.0427044
0.0403298
0.0376983
0.0325896
0.0239676
0.0184807
0.0136382
0.00790054
0.00337129
-3.38253
-3226.96
-1037.84
539.244
494.615
25.4762
-135.227
-57.9203
18.5499
24.9324
4.78192
-4.81309
-2.5387
1.16049
1.89949
1.08455
0.548458
0.580048
0.744972
0.794629
0.761101
0.728774
0.727023
0.736214
0.737319
0.730048
0.721076
0.718076
0.717972
0.714584
0.708232
0.705503
0.704825
0.700358
0.696627
0.695241
0.692781
0.688965
0.683029
0.67574
0.6693
0.664324
0.658684
0.653753
0.651717
0.64752
0.644769
0.645766
0.644631
0.643729
0.642242
0.637304
0.632649
0.63014
0.627617
0.624396
0.622515
0.618666
0.610875
0.606998
0.60759
0.606822
0.605062
0.602633
0.599392
0.59757
0.597237
0.596425
0.595043
0.594198
0.591354
0.585146
0.577484
0.569239
0.563822
0.561801
0.557864
0.551573
0.546445
0.542859
0.539164
0.537335
0.53853
0.539886
0.541117
0.538918
0.532129
0.527793
0.525723
0.525239
0.52706
0.525681
0.523019
0.523998
0.523466
0.516051
0.507188
0.503118
0.499659
0.496371
0.498206
0.500187
0.496543
0.493917
0.496524
0.495943
0.492804
0.49307
0.491034
0.487066
0.483316
0.477746
0.475352
0.473535
0.467124
0.463279
0.46208
0.457542
0.45324
0.450051
0.444877
0.439184
0.433235
0.430888
0.433039
0.43121
0.425728
0.419716
0.412497
0.405418
0.397159
0.391874
0.391131
0.3883
0.38655
0.388307
0.38812
0.384827
0.380203
0.375324
0.370223
0.366677
0.365539
0.362118
0.355607
0.352485
0.352296
0.348547
0.34522
0.344764
0.34197
0.340239
0.338434
0.333524
0.330141
0.323928
0.316618
0.314783
0.311608
0.30681
0.302912
0.29586
0.288384
0.283098
0.277336
0.270723
0.266605
0.265694
0.262481
0.257034
0.253362
0.249124
0.24371
0.241012
0.240558
0.237587
0.232734
0.229634
0.224888
0.218356
0.213459
0.207718
0.203066
0.199646
0.193595
0.188226
0.184206
0.17845
0.173995
0.172476
0.168618
0.162294
0.159944
0.160648
0.15857
0.153497
0.149346
0.146259
0.139657
0.130451
0.121955
0.11452
0.109949
0.107422
0.107058
0.11034
0.112247
0.110216
0.107443
0.105066
0.101337
0.0948341
0.0872436
0.0821557
0.0803459
0.0793983
0.0789076
0.0799691
0.081575
0.0822327
0.0824092
0.0827708
0.0804662
0.0790832
0.0842181
0.0859739
0.0825369
0.0838916
0.0837921
0.0780937
0.0733588
0.0699136
0.0686919
0.0694194
0.0686619
0.0666812
0.063309
0.058803
0.0551783
0.050725
0.0453554
0.0422537
0.0401741
0.0369702
0.0324695
0.0260189
0.0205027
0.0145164
0.00609129
0.001221
-3.38553
-3226.97
-1037.85
539.245
494.618
25.475
-135.229
-57.9215
18.5491
24.9332
4.78214
-4.81541
-2.53908
1.16116
1.89752
1.08439
0.550394
0.578803
0.743609
0.79379
0.759618
0.730535
0.729766
0.737604
0.738061
0.728983
0.720057
0.717839
0.71469
0.711379
0.71062
0.706992
0.703823
0.702127
0.698191
0.69531
0.691669
0.684682
0.679186
0.673888
0.667504
0.662257
0.654705
0.651232
0.654249
0.64849
0.642408
0.645864
0.644198
0.64134
0.643591
0.640474
0.63312
0.629355
0.62768
0.624323
0.620361
0.61432
0.607245
0.607323
0.611124
0.607945
0.603128
0.603106
0.600626
0.595455
0.595853
0.597876
0.595898
0.59406
0.591141
0.584043
0.575876
0.566296
0.56013
0.561462
0.558674
0.550647
0.547158
0.544302
0.538154
0.535724
0.537549
0.538433
0.538439
0.536453
0.53256
0.531241
0.527923
0.52234
0.522594
0.525205
0.525298
0.524301
0.521776
0.515337
0.507592
0.504655
0.501398
0.494632
0.494564
0.499335
0.497462
0.494506
0.496976
0.495465
0.491356
0.493342
0.491411
0.485697
0.483926
0.479561
0.474084
0.472831
0.468483
0.462603
0.461074
0.457978
0.453419
0.449279
0.442489
0.438226
0.436829
0.434261
0.432609
0.429233
0.423129
0.416752
0.410386
0.405415
0.399259
0.393118
0.391044
0.389177
0.386776
0.386245
0.387321
0.386679
0.379724
0.372844
0.371596
0.368501
0.362138
0.3582
0.356007
0.354392
0.353314
0.348723
0.344177
0.344044
0.341405
0.339088
0.339513
0.334541
0.328326
0.322622
0.316227
0.314336
0.311909
0.307744
0.303886
0.296071
0.289044
0.284434
0.277873
0.270421
0.265064
0.263806
0.262032
0.256781
0.253126
0.250895
0.246379
0.241253
0.239034
0.236348
0.229919
0.226507
0.225088
0.220137
0.214108
0.208932
0.204083
0.198556
0.19171
0.186227
0.182564
0.177876
0.172806
0.169756
0.1675
0.16409
0.161071
0.158599
0.155237
0.151774
0.149713
0.147244
0.140306
0.131189
0.123326
0.115338
0.110082
0.108975
0.109232
0.112045
0.114412
0.111189
0.106921
0.104041
0.0978678
0.0911532
0.0880707
0.0847507
0.0809045
0.0798967
0.0804778
0.0800779
0.079059
0.0791028
0.0814887
0.085451
0.0854425
0.0812981
0.0825444
0.0851456
0.0812812
0.0801355
0.0817792
0.0782194
0.0721006
0.0684666
0.0695939
0.0704026
0.0663384
0.0642987
0.0657808
0.0621143
0.0534702
0.0460861
0.0431449
0.0433218
0.0419963
0.0368887
0.0307106
0.0249297
0.020047
0.0145931
0.00614587
0.00112643
-3.38571
-3226.97
-1037.85
539.241
494.616
25.4751
-135.23
-57.922
18.549
24.933
4.78113
-4.81646
-2.53773
1.16617
1.90361
1.08351
0.547341
0.582342
0.746671
0.795749
0.763433
0.731335
0.729917
0.738627
0.736341
0.728469
0.722877
0.717125
0.713625
0.714601
0.712976
0.709132
0.705284
0.699356
0.696309
0.697497
0.693276
0.684886
0.678697
0.672684
0.667003
0.662647
0.656804
0.650832
0.649528
0.648802
0.647769
0.648305
0.645607
0.643877
0.643666
0.638911
0.633412
0.629693
0.627617
0.626733
0.621188
0.612394
0.608667
0.609781
0.609712
0.60768
0.606166
0.604114
0.598775
0.594003
0.597096
0.602991
0.60311
0.596103
0.585328
0.577527
0.573305
0.568805
0.566265
0.56201
0.553533
0.550536
0.548507
0.541368
0.538418
0.537846
0.538578
0.54316
0.540983
0.5319
0.528783
0.531329
0.529837
0.525052
0.524012
0.525217
0.525614
0.524928
0.520839
0.513699
0.507583
0.504596
0.502483
0.499914
0.497872
0.4968
0.497652
0.498501
0.496013
0.492822
0.493445
0.494449
0.492256
0.488455
0.484257
0.478314
0.474118
0.472941
0.468845
0.463634
0.462675
0.460494
0.455018
0.449115
0.441568
0.43805
0.438089
0.434442
0.431262
0.429637
0.425417
0.418092
0.409607
0.404885
0.400859
0.393523
0.389183
0.389246
0.389715
0.388937
0.38768
0.385594
0.379138
0.372988
0.371624
0.368309
0.362351
0.35889
0.357115
0.354391
0.352018
0.350178
0.346854
0.344666
0.342657
0.340142
0.338754
0.332726
0.325552
0.321251
0.317086
0.316342
0.315352
0.310781
0.305478
0.296621
0.287468
0.281324
0.276622
0.272703
0.267783
0.265353
0.263942
0.258508
0.253599
0.250464
0.245888
0.240501
0.237803
0.237249
0.234453
0.230574
0.226788
0.218749
0.210392
0.206294
0.204298
0.200402
0.193641
0.18615
0.180719
0.17784
0.174134
0.168621
0.164846
0.163196
0.160469
0.155589
0.153213
0.153265
0.15117
0.147922
0.142272
0.132762
0.124565
0.118215
0.112659
0.110984
0.111451
0.112027
0.113316
0.112652
0.110076
0.104861
0.0950759
0.0889556
0.0883074
0.0846348
0.0808457
0.080666
0.0810106
0.0818567
0.0817332
0.0804971
0.0807549
0.0833223
0.0861756
0.0841426
0.0812914
0.0834042
0.0838799
0.082708
0.0818401
0.0759221
0.0680136
0.066181
0.0694636
0.0713743
0.0686116
0.0662204
0.0646037
0.0591314
0.0527434
0.0482535
0.0442736
0.0422775
0.0412792
0.0366434
0.0310636
0.0265184
0.0188242
0.010731
0.00523564
0.00197078
-3.38756
-3226.97
-1037.85
539.241
494.617
25.4763
-135.229
-57.921
18.5502
24.9319
4.77997
-4.81524
-2.53811
1.16361
1.90198
1.08708
0.553655
0.586105
0.747101
0.791586
0.76127
0.735191
0.733022
0.737804
0.733373
0.725756
0.72405
0.720749
0.713518
0.713625
0.713692
0.707939
0.704018
0.700333
0.69659
0.695962
0.690289
0.682412
0.67771
0.670757
0.664457
0.661045
0.656237
0.651619
0.650369
0.648537
0.646333
0.646573
0.645863
0.644401
0.642455
0.638343
0.634683
0.632501
0.630133
0.623158
0.613546
0.610236
0.611578
0.610043
0.608225
0.608024
0.605788
0.602195
0.599902
0.599331
0.599094
0.599992
0.600601
0.595892
0.58628
0.576085
0.568687
0.566407
0.565408
0.561384
0.555728
0.551361
0.546093
0.540015
0.537715
0.537195
0.537613
0.541256
0.540599
0.534293
0.53056
0.528415
0.525667
0.525546
0.525163
0.523927
0.525967
0.524221
0.516875
0.513162
0.51018
0.504852
0.502433
0.500392
0.497368
0.497828
0.498592
0.4954
0.49288
0.493409
0.494895
0.495009
0.491393
0.485682
0.482281
0.480665
0.477437
0.473604
0.469273
0.463619
0.460618
0.457526
0.452483
0.449675
0.444205
0.438765
0.438678
0.436549
0.431721
0.427282
0.422369
0.416177
0.408129
0.403375
0.400923
0.394599
0.39024
0.390659
0.390788
0.389489
0.385908
0.382176
0.379494
0.374814
0.369667
0.365515
0.361556
0.359571
0.358975
0.355376
0.351402
0.349803
0.345973
0.34301
0.343015
0.340414
0.337159
0.331549
0.32432
0.322166
0.320241
0.317495
0.313898
0.307143
0.302199
0.297159
0.290125
0.28332
0.277153
0.272979
0.268042
0.263948
0.262724
0.259332
0.253645
0.248776
0.246402
0.244166
0.239189
0.2351
0.23189
0.227742
0.223473
0.219484
0.21444
0.207961
0.202148
0.197784
0.192446
0.185729
0.179754
0.175946
0.172691
0.167114
0.161999
0.161582
0.160316
0.155801
0.153992
0.15357
0.150317
0.14689
0.141087
0.132692
0.126237
0.119412
0.113718
0.114666
0.116891
0.115154
0.113496
0.111738
0.106583
0.0994434
0.0929331
0.0901393
0.0889765
0.0857985
0.0836996
0.0817785
0.0791426
0.0803552
0.0825281
0.0813854
0.0791318
0.0800089
0.0854281
0.0868942
0.0825776
0.0837463
0.0870369
0.0831187
0.0756433
0.0700515
0.0688018
0.0692915
0.0692409
0.0693316
0.0674131
0.0648052
0.0627293
0.0574614
0.0516326
0.0492799
0.0481243
0.0442254
0.0384174
0.0336636
0.0287681
0.0243796
0.0187796
0.0122482
0.00639583
0.00203707
-3.38673
-3226.97
-1037.85
539.241
494.615
25.4746
-135.226
-57.9167
18.5493
24.9273
4.77943
-4.80964
-2.53368
1.16576
1.90518
1.08647
0.549737
0.583876
0.745989
0.794825
0.767701
0.736831
0.730353
0.735937
0.733608
0.729937
0.726994
0.718805
0.713744
0.713516
0.712762
0.710439
0.703318
0.696928
0.698559
0.697402
0.689638
0.682251
0.675529
0.670756
0.667934
0.661744
0.654355
0.648907
0.648545
0.652687
0.65166
0.647895
0.647276
0.645697
0.641179
0.637611
0.636433
0.633576
0.627518
0.620962
0.61518
0.612644
0.612016
0.609035
0.608108
0.612465
0.609405
0.59887
0.596457
0.600371
0.603473
0.606153
0.603988
0.592748
0.579741
0.573445
0.572593
0.570457
0.564742
0.557257
0.552339
0.552059
0.548821
0.540158
0.538115
0.540955
0.540728
0.54067
0.537624
0.531417
0.530413
0.530861
0.528682
0.527522
0.525314
0.522467
0.52346
0.522927
0.517744
0.514213
0.511947
0.506684
0.501764
0.500565
0.499545
0.498593
0.499548
0.498416
0.494592
0.492981
0.493968
0.493517
0.490943
0.48817
0.484199
0.481566
0.478676
0.472201
0.468494
0.467467
0.463266
0.457717
0.453421
0.450002
0.444843
0.4397
0.43806
0.436371
0.432569
0.427741
0.422683
0.417138
0.409336
0.403283
0.399897
0.394846
0.391495
0.391302
0.391335
0.390757
0.386529
0.381578
0.380017
0.375965
0.369053
0.364874
0.362208
0.359157
0.358111
0.357847
0.355096
0.352351
0.34785
0.342946
0.341644
0.339283
0.335446
0.330851
0.324643
0.32278
0.322155
0.319857
0.316557
0.308945
0.299692
0.292609
0.288445
0.285097
0.280311
0.276846
0.271573
0.264125
0.261187
0.260008
0.255602
0.249809
0.245438
0.241366
0.237492
0.237433
0.238306
0.234395
0.224873
0.215137
0.209714
0.205857
0.202489
0.19929
0.193133
0.185567
0.178759
0.174637
0.173162
0.169022
0.161657
0.157251
0.156013
0.153301
0.153032
0.155838
0.15523
0.150298
0.141442
0.131779
0.126365
0.122586
0.118523
0.117022
0.116548
0.114971
0.115922
0.1154
0.106554
0.0971834
0.0925733
0.0897997
0.0883841
0.0860897
0.0832773
0.0819442
0.0811092
0.0813335
0.0814684
0.0800302
0.0792076
0.081782
0.087439
0.088547
0.0829954
0.0833168
0.0886428
0.0844714
0.0739951
0.0685499
0.0683907
0.0682203
0.0683975
0.0718421
0.0720091
0.0643103
0.0562287
0.0535148
0.0534223
0.0513356
0.0467388
0.0406804
0.0367093
0.0354668
0.0299759
0.0245228
0.0201737
0.0129785
0.00545869
0.000983219
-3.38726
-3226.97
-1037.85
539.243
494.617
25.4769
-135.224
-57.9191
18.5459
24.928
4.78162
-4.80884
-2.53583
1.16205
1.90475
1.09128
0.556328
0.586687
0.746119
0.796048
0.770443
0.738001
0.729208
0.735198
0.732716
0.729047
0.728297
0.720731
0.713524
0.712937
0.712265
0.709476
0.704165
0.697212
0.69372
0.693356
0.691176
0.68447
0.676918
0.67137
0.663693
0.65681
0.655077
0.651926
0.649679
0.650626
0.647471
0.646433
0.650662
0.648185
0.640602
0.638374
0.637205
0.6318
0.624187
0.616851
0.613355
0.613092
0.613215
0.61263
0.60908
0.605106
0.602608
0.601791
0.60448
0.605798
0.602957
0.601401
0.59849
0.590998
0.583318
0.575152
0.569163
0.568473
0.563906
0.556461
0.552747
0.54766
0.543367
0.542774
0.541913
0.541613
0.54063
0.53787
0.535828
0.533325
0.531003
0.529386
0.526593
0.525883
0.525323
0.521989
0.52231
0.522645
0.51672
0.51274
0.511549
0.505658
0.501717
0.504193
0.502303
0.497599
0.497242
0.495425
0.494175
0.495557
0.493801
0.491034
0.489908
0.488366
0.485786
0.482638
0.478115
0.472184
0.469306
0.466484
0.46109
0.457057
0.454034
0.450287
0.445617
0.440736
0.437458
0.435156
0.433025
0.427689
0.419738
0.414987
0.41079
0.40404
0.398349
0.394695
0.392672
0.391116
0.389886
0.389869
0.387189
0.382382
0.379413
0.373917
0.366561
0.364271
0.363996
0.361655
0.358645
0.355678
0.35344
0.35188
0.34862
0.344394
0.341636
0.337567
0.332468
0.328124
0.325972
0.327196
0.324603
0.317202
0.311715
0.305909
0.299171
0.294468
0.290465
0.28522
0.279042
0.275435
0.272794
0.267527
0.263024
0.259391
0.25316
0.247369
0.245736
0.244166
0.240303
0.23697
0.234661
0.231677
0.225421
0.216882
0.21098
0.20574
0.200129
0.195988
0.190473
0.183966
0.179036
0.175022
0.171525
0.167449
0.160324
0.155028
0.154931
0.153539
0.152767
0.154919
0.153106
0.148079
0.142166
0.134182
0.127781
0.12473
0.122528
0.120075
0.118106
0.116232
0.115208
0.113005
0.105101
0.0970956
0.0927366
0.0888982
0.0877453
0.0869419
0.0830193
0.0808562
0.0819172
0.0812598
0.0782959
0.0777547
0.0804319
0.0835442
0.0864582
0.0886288
0.088662
0.0871824
0.0851665
0.0796491
0.0717787
0.0681266
0.070188
0.0713806
0.0697239
0.068341
0.0657721
0.0600886
0.0556599
0.0540853
0.052292
0.0498348
0.0478305
0.0440231
0.0376124
0.0332847
0.0284391
0.0241393
0.0192097
0.0115054
0.00563408
0.00167793
-3.38857
-3226.97
-1037.85
539.245
494.62
25.479
-135.226
-57.9189
18.5486
24.9297
4.78111
-4.81137
-2.53482
1.1679
1.90943
1.09076
0.549315
0.58203
0.753137
0.804031
0.768927
0.733766
0.727933
0.735907
0.735659
0.731647
0.727007
0.719354
0.715903
0.713848
0.71068
0.706933
0.702285
0.700596
0.697809
0.692211
0.688986
0.682756
0.674598
0.672389
0.667669
0.657355
0.653223
0.652411
0.649917
0.650102
0.651296
0.651309
0.650535
0.645759
0.641405
0.640314
0.637177
0.628831
0.620568
0.617876
0.616688
0.613547
0.61316
0.612897
0.609441
0.608047
0.605563
0.602457
0.603316
0.603221
0.605166
0.608072
0.598222
0.58616
0.581181
0.576539
0.572328
0.568075
0.561695
0.557412
0.552681
0.544879
0.541711
0.544527
0.546203
0.545392
0.542027
0.536605
0.532774
0.531891
0.532661
0.531477
0.527047
0.526326
0.526976
0.522069
0.519131
0.520215
0.518933
0.51578
0.511999
0.506763
0.50273
0.502348
0.50176
0.499842
0.499018
0.497491
0.496492
0.494747
0.490673
0.490192
0.491877
0.491758
0.488201
0.482486
0.478438
0.47387
0.468581
0.465082
0.462251
0.4597
0.45534
0.450223
0.447302
0.443644
0.437888
0.433298
0.431549
0.428625
0.421463
0.414296
0.409339
0.404289
0.399413
0.396568
0.394487
0.391974
0.390208
0.389048
0.386485
0.382971
0.379693
0.375126
0.368087
0.363004
0.362847
0.362589
0.36002
0.357671
0.355395
0.352771
0.3492
0.343987
0.34061
0.338691
0.333651
0.328247
0.32638
0.325999
0.32448
0.319259
0.311291
0.305137
0.300475
0.294008
0.289328
0.286823
0.28177
0.277042
0.273799
0.268266
0.262861
0.259787
0.256186
0.250791
0.245222
0.241032
0.239712
0.239954
0.238095
0.233971
0.226788
0.216828
0.208721
0.203664
0.200157
0.19582
0.188535
0.182136
0.179132
0.17593
0.170347
0.165974
0.161532
0.154987
0.152579
0.152897
0.153407
0.155768
0.152782
0.146299
0.14275
0.137564
0.131723
0.128957
0.124156
0.118988
0.119704
0.120004
0.116568
0.112516
0.104461
0.0969309
0.0937862
0.0896438
0.0866029
0.0846726
0.0818952
0.0820082
0.0825756
0.0801119
0.0768549
0.077609
0.0839722
0.0884721
0.087673
0.0887713
0.0907849
0.0869288