/*--------------------------------*- C++ -*----------------------------------*\
| =========                 |                                                 |
| \\      /  F ield         | OpenFOAM: The Open Source CFD Toolbox           |
|  \\    /   O peration     | Version:  2406                                  |
|   \\  /    A nd           | Website:  www.openfoam.com                      |
|    \\/     M anipulation  |                                                 |
\*---------------------------------------------------------------------------*/
FoamFile
{
    version     2.0;
    format      ascii;
    arch        "LSB;label=32;scalar=64";
    class       surfaceScalarField;
    location    "2";
    object      phi;
}
// * * * * * * * * * * * * * * * * * * * * * * * * * * * * * * * * * * * * * //

dimensions      [0 3 -1 0 0 0 0];

oriented        oriented;

internalField   nonuniform List<scalar> 
12225
(
0.511132
1.73812e-06
0.511125
6.33054e-06
0.511118
7.55457e-06
0.511112
5.44908e-06
0.511108
4.36209e-06
0.511103
4.73848e-06
0.511098
5.42648e-06
0.511092
5.52723e-06
0.511087
5.32301e-06
0.511082
5.23886e-06
0.511077
5.13924e-06
0.511071
5.23021e-06
0.511066
5.5261e-06
0.51106
5.67717e-06
0.511055
5.51277e-06
0.511049
5.17975e-06
0.511044
5.29023e-06
0.511039
5.64325e-06
0.511033
5.77505e-06
0.511027
5.77776e-06
0.511021
5.60255e-06
0.511016
5.32349e-06
0.511011
5.0525e-06
0.511006
5.01988e-06
0.511
5.47856e-06
0.510995
5.70821e-06
0.510989
5.34074e-06
0.510984
5.25053e-06
0.510979
5.37745e-06
0.510974
5.13436e-06
0.510969
4.89975e-06
0.510964
5.08142e-06
0.510958
5.42886e-06
0.510953
5.53957e-06
0.510947
5.50742e-06
0.510941
5.74652e-06
0.510935
6.12797e-06
0.510929
5.88928e-06
0.510924
5.04175e-06
0.51092
4.66728e-06
0.510915
5.08631e-06
0.510909
5.47671e-06
0.510904
5.62271e-06
0.510898
5.87004e-06
0.510892
5.9141e-06
0.510886
5.51942e-06
0.510881
5.19638e-06
0.510876
5.12508e-06
0.510871
5.11466e-06
0.510865
5.38373e-06
0.51086
5.91956e-06
0.510853
6.22932e-06
0.510847
6.01419e-06
0.510842
5.31632e-06
0.510837
4.7161e-06
0.510832
4.75117e-06
0.510828
4.97823e-06
0.510823
4.9634e-06
0.510818
4.95102e-06
0.510812
5.15828e-06
0.510807
5.5925e-06
0.510801
6.03051e-06
0.510795
6.13825e-06
0.510789
5.91378e-06
0.510783
5.70171e-06
0.510777
5.63331e-06
0.510772
5.45469e-06
0.510767
5.348e-06
0.510761
5.58043e-06
0.510755
5.627e-06
0.51075
5.39629e-06
0.510745
5.327e-06
0.510739
5.32283e-06
0.510734
5.54582e-06
0.510728
5.9383e-06
0.510722
5.6928e-06
0.510717
5.17977e-06
0.510712
5.21236e-06
0.510706
5.39379e-06
0.510701
5.54448e-06
0.510695
5.69776e-06
0.51069
5.57326e-06
0.510684
5.32399e-06
0.510679
4.97165e-06
0.510675
4.72803e-06
0.510669
5.11721e-06
0.510664
5.70086e-06
0.510658
5.83956e-06
0.510652
5.5995e-06
0.510647
5.31758e-06
0.510642
5.39177e-06
0.510636
5.68136e-06
0.51063
5.79955e-06
0.510624
5.91098e-06
0.510618
5.88751e-06
0.510613
5.43726e-06
0.510608
5.26231e-06
0.510602
5.59046e-06
0.510596
5.63627e-06
0.510591
5.42464e-06
0.510586
5.32246e-06
0.51058
5.24739e-06
0.510575
5.34917e-06
0.51057
5.54308e-06
0.510564
5.54708e-06
0.510558
5.5223e-06
0.510553
5.40324e-06
0.510548
5.15042e-06
0.510543
5.19994e-06
0.510537
5.5107e-06
0.510531
5.69491e-06
0.510526
5.68422e-06
0.51052
5.41576e-06
0.510515
5.03491e-06
0.51051
4.89106e-06
0.510505
4.96334e-06
0.5105
5.21656e-06
0.510495
5.71589e-06
0.510489
6.03723e-06
0.510483
5.83621e-06
0.510477
5.37146e-06
0.510472
5.06749e-06
0.510467
5.21178e-06
0.510462
5.51392e-06
0.510456
5.50071e-06
0.510451
5.35465e-06
0.510445
5.30411e-06
0.51044
5.31028e-06
0.510435
5.36373e-06
0.510429
5.33619e-06
0.510424
5.32119e-06
0.510419
5.49933e-06
0.510413
5.57138e-06
0.510407
5.46581e-06
0.510402
5.57815e-06
0.510396
5.85897e-06
0.51039
5.84973e-06
0.510385
5.45109e-06
0.51038
5.05713e-06
0.510375
5.03082e-06
0.510369
5.17187e-06
0.510364
5.2226e-06
0.510359
5.34476e-06
0.510353
5.58996e-06
0.510348
5.63163e-06
0.510342
5.40762e-06
0.510337
5.27963e-06
0.510332
5.26715e-06
0.510327
5.18063e-06
0.510321
5.11641e-06
0.510316
5.08055e-06
0.510311
5.1843e-06
0.510306
5.60444e-06
0.5103
5.86388e-06
0.510294
5.56512e-06
0.510289
5.17369e-06
0.510284
5.06034e-06
0.510279
5.13433e-06
0.510273
5.37497e-06
0.510268
5.64436e-06
0.510262
5.6981e-06
0.510256
5.64927e-06
0.510251
5.55554e-06
0.510245
5.40186e-06
0.51024
5.3669e-06
0.510235
5.55619e-06
0.510229
5.8935e-06
0.510223
5.90133e-06
0.510217
5.47899e-06
0.510212
5.34826e-06
0.510206
5.50117e-06
0.510201
5.42174e-06
0.510196
5.38441e-06
0.51019
5.4985e-06
0.510185
5.36345e-06
0.51018
5.18304e-06
0.510174
5.34739e-06
0.510169
5.61043e-06
0.510163
5.74805e-06
0.510157
5.73283e-06
0.510152
5.4267e-06
0.510147
5.16999e-06
0.510141
5.19266e-06
0.510136
5.35554e-06
0.51013
5.8232e-06
0.510124
6.24935e-06
0.510118
6.04233e-06
0.510112
5.53794e-06
0.510107
5.28968e-06
0.510102
5.32196e-06
0.510096
5.34963e-06
0.510091
5.37878e-06
0.510085
5.66415e-06
0.510079
5.82699e-06
0.510074
5.36141e-06
0.510069
4.85738e-06
0.510064
5.10693e-06
0.510059
5.57746e-06
0.510053
5.53363e-06
0.510048
5.34703e-06
0.510042
5.31497e-06
0.510037
5.32114e-06
0.510032
5.53565e-06
0.510026
5.80366e-06
0.51002
5.79302e-06
0.510014
5.69495e-06
0.510009
5.58942e-06
0.510003
5.35076e-06
0.509998
5.22934e-06
0.509993
5.35159e-06
0.509987
5.42252e-06
0.509982
5.26959e-06
0.509977
5.07906e-06
0.509972
5.20637e-06
0.509966
5.51334e-06
0.509961
5.54668e-06
0.509955
5.44569e-06
0.50995
5.34294e-06
0.509945
5.1651e-06
0.50994
5.13385e-06
0.509934
5.24964e-06
0.509929
5.41485e-06
0.509923
5.66933e-06
0.509918
5.75806e-06
0.509912
5.60057e-06
0.509906
5.45984e-06
0.509901
5.43987e-06
0.509895
5.52517e-06
0.50989
5.59623e-06
0.509884
5.55982e-06
0.509879
5.69839e-06
0.509873
5.93782e-06
0.509867
5.79336e-06
0.509861
5.53929e-06
0.509856
5.48388e-06
0.509851
5.35411e-06
0.509845
5.26943e-06
0.50984
5.24954e-06
0.509835
5.06953e-06
0.50983
5.05676e-06
0.509824
5.37964e-06
0.509819
5.7399e-06
0.509813
5.92629e-06
0.509807
5.83802e-06
0.509801
5.52312e-06
0.509796
5.19646e-06
0.509791
5.10346e-06
0.509786
5.1966e-06
0.50978
5.87199e-06
5.56003e-06
0.511137
-1.76184e-07
0.511143
3.5213e-07
0.511149
1.63364e-06
0.511152
2.67489e-06
0.511154
2.62988e-06
0.511156
2.58257e-06
0.511159
2.60425e-06
0.511162
2.14653e-06
0.511166
1.61102e-06
0.511169
1.66397e-06
0.511172
2.16123e-06
0.511175
2.70093e-06
0.511177
3.19994e-06
0.51118
3.17216e-06
0.511182
2.69217e-06
0.511185
2.40468e-06
0.511188
2.34721e-06
0.511192
2.181e-06
0.511196
1.91873e-06
0.511199
1.94009e-06
0.511203
2.18801e-06
0.511206
2.28023e-06
0.511208
2.45297e-06
0.511211
2.47026e-06
0.511215
1.93273e-06
0.511218
1.78923e-06
0.511222
2.20927e-06
0.511224
2.60743e-06
0.511227
2.96406e-06
0.511229
3.15854e-06
0.51123
3.24414e-06
0.511232
3.39393e-06
0.511234
3.25957e-06
0.511237
2.61366e-06
0.511241
2.02145e-06
0.511244
2.07753e-06
0.511248
2.35393e-06
0.511252
2.33427e-06
0.511254
2.1917e-06
0.511257
2.23654e-06
0.51126
2.26868e-06
0.511263
2.29227e-06
0.511266
2.53414e-06
0.511269
2.69824e-06
0.511272
2.65338e-06
0.511275
2.64003e-06
0.511278
2.73772e-06
0.51128
2.83098e-06
0.511282
2.741e-06
0.511285
2.77919e-06
0.511288
3.13534e-06
0.511291
3.18453e-06
0.511294
2.90373e-06
0.511296
2.71793e-06
0.511299
2.3351e-06
0.511302
1.86472e-06
0.511305
1.81697e-06
0.511308
1.72451e-06
0.511312
1.48105e-06
0.511315
1.76051e-06
0.511318
2.28247e-06
0.511322
2.54327e-06
0.511325
2.94625e-06
0.511327
3.43003e-06
0.51133
3.20881e-06
0.511333
2.58673e-06
0.511336
2.38881e-06
0.511339
2.3589e-06
0.511342
2.33445e-06
0.511345
2.68311e-06
0.511348
2.91073e-06
0.51135
2.62963e-06
0.511353
2.46866e-06
0.511356
2.5323e-06
0.51136
2.44306e-06
0.511363
2.44967e-06
0.511366
2.49458e-06
0.511369
2.42462e-06
0.511371
2.4753e-06
0.511374
2.57951e-06
0.511377
2.67678e-06
0.51138
2.73146e-06
0.511383
2.57767e-06
0.511386
2.33008e-06
0.511388
2.1439e-06
0.511391
2.0693e-06
0.511395
2.1774e-06
0.511398
2.34186e-06
0.511401
2.47658e-06
0.511404
2.63318e-06
0.511407
2.67779e-06
0.51141
2.51531e-06
0.511413
2.44105e-06
0.511417
2.70922e-06
0.511419
3.0973e-06
0.511422
3.13432e-06
0.511424
2.8987e-06
0.511427
2.92336e-06
0.511429
2.93282e-06
0.511432
2.56851e-06
0.511435
2.32367e-06
0.511438
2.24981e-06
0.511442
2.08102e-06
0.511445
2.1157e-06
0.511448
2.2945e-06
0.511451
2.24938e-06
0.511455
2.20083e-06
0.511458
2.30792e-06
0.51146
2.38971e-06
0.511463
2.51107e-06
0.511466
2.57752e-06
0.51147
2.47142e-06
0.511472
2.69552e-06
0.511474
3.09837e-06
0.511476
2.87316e-06
0.511479
2.38464e-06
0.511482
2.32963e-06
0.511485
2.50816e-06
0.511488
2.67812e-06
0.511491
2.79024e-06
0.511494
2.74578e-06
0.511497
2.52138e-06
0.5115
2.19766e-06
0.511503
2.04124e-06
0.511506
2.14882e-06
0.511509
2.28205e-06
0.511512
2.29764e-06
0.511516
2.27674e-06
0.511518
2.43342e-06
0.511521
2.67128e-06
0.511524
2.62919e-06
0.511527
2.49021e-06
0.51153
2.4557e-06
0.511533
2.20765e-06
0.511537
1.90456e-06
0.511541
1.9932e-06
0.511544
2.39808e-06
0.511547
2.90935e-06
0.511549
3.26255e-06
0.51155
3.20466e-06
0.511553
2.85574e-06
0.511555
2.51655e-06
0.511558
2.42234e-06
0.511561
2.4322e-06
0.511565
2.27617e-06
0.511568
2.14591e-06
0.511571
2.25045e-06
0.511574
2.31897e-06
0.511577
2.31184e-06
0.51158
2.42126e-06
0.511582
2.53808e-06
0.511585
2.56637e-06
0.511588
2.43542e-06
0.511592
2.20341e-06
0.511595
2.29899e-06
0.511597
2.60055e-06
0.5116
2.61745e-06
0.511603
2.40313e-06
0.511606
2.26208e-06
0.511609
2.28022e-06
0.511612
2.4431e-06
0.511615
2.77949e-06
0.511618
3.17902e-06
0.51162
3.25762e-06
0.511622
3.02611e-06
0.511625
2.76116e-06
0.511628
2.59905e-06
0.511631
2.71111e-06
0.511634
2.93699e-06
0.511636
2.90072e-06
0.511639
2.75028e-06
0.511642
2.73727e-06
0.511645
2.61731e-06
0.511648
2.36264e-06
0.511651
2.24141e-06
0.511654
2.05015e-06
0.511658
1.7481e-06
0.511661
1.82167e-06
0.511665
2.25847e-06
0.511668
2.69114e-06
0.51167
2.85282e-06
0.511673
2.63482e-06
0.511676
2.19926e-06
0.51168
1.68736e-06
0.511684
1.45956e-06
0.511688
1.87685e-06
0.511692
2.44267e-06
0.511695
2.67171e-06
0.511697
2.669e-06
0.5117
2.4804e-06
0.511703
2.28822e-06
0.511706
2.37442e-06
0.511709
2.53647e-06
0.511713
2.52662e-06
0.511716
2.42323e-06
0.511718
2.35212e-06
0.511721
2.44311e-06
0.511724
2.79452e-06
0.511726
3.13069e-06
0.511728
3.07397e-06
0.511731
2.6423e-06
0.511734
2.20501e-06
0.511738
2.09244e-06
0.511741
2.16545e-06
0.511745
2.27027e-06
0.511748
2.56361e-06
0.511751
2.8822e-06
0.511753
2.99424e-06
0.511755
3.09886e-06
0.511757
3.23054e-06
0.511759
3.20036e-06
0.511762
3.15216e-06
0.511764
3.10835e-06
0.511766
2.7736e-06
0.511769
2.35417e-06
0.511772
2.17112e-06
0.511776
2.17639e-06
0.511779
2.43988e-06
0.511781
2.8217e-06
0.511783
2.91867e-06
0.511786
2.76263e-06
0.511789
2.59737e-06
0.511792
2.46462e-06
0.511795
2.46966e-06
0.511798
2.62594e-06
0.511801
2.53536e-06
0.511804
2.18125e-06
0.511808
2.08931e-06
0.511811
2.36332e-06
0.511814
2.66431e-06
0.511817
2.7752e-06
0.51182
2.78481e-06
0.511823
2.74078e-06
0.511826
2.53093e-06
0.511829
2.35906e-06
0.511832
2.40368e-06
0.511835
2.38221e-06
0.511838
2.0761e-06
0.511841
1.70328e-06
0.511845
1.57248e-06
0.511849
1.65531e-06
0.511852
1.815e-06
0.511856
2.04248e-06
0.51186
2.17743e-06
0.511863
2.19808e-06
0.511866
2.32896e-06
0.511869
2.55691e-06
0.511871
2.72596e-06
0.511874
2.82701e-06
3.01609e-06
0.511135
9.28975e-08
0.511135
5.85826e-07
0.511136
1.18077e-06
0.511137
1.83306e-06
0.511137
2.15296e-06
0.511138
2.11055e-06
0.511138
2.09576e-06
0.511138
2.03309e-06
0.511138
1.9017e-06
0.511138
1.77598e-06
0.511138
1.84363e-06
0.511138
2.29909e-06
0.511139
2.62827e-06
0.51114
2.42925e-06
0.51114
2.24905e-06
0.51114
2.30507e-06
0.51114
2.21836e-06
0.511141
1.98453e-06
0.511141
1.80655e-06
0.511141
1.62638e-06
0.511142
1.70692e-06
0.511142
2.21066e-06
0.511141
2.61964e-06
0.511141
2.69603e-06
0.511141
2.5112e-06
0.51114
2.0816e-06
0.511141
1.84424e-06
0.511141
2.15983e-06
0.511141
2.66168e-06
0.511142
2.98148e-06
0.511142
2.98898e-06
0.511143
2.59369e-06
0.511144
2.28494e-06
0.511144
2.27448e-06
0.511144
2.31816e-06
0.511143
2.3394e-06
0.511144
2.05711e-06
0.511144
1.57455e-06
0.511145
1.33448e-06
0.511146
1.42388e-06
0.511146
2.03096e-06
0.511146
2.80138e-06
0.511146
2.91102e-06
0.511146
2.43521e-06
0.511146
2.09371e-06
0.511147
2.11162e-06
0.511147
2.28494e-06
0.511148
2.5274e-06
0.511148
2.7563e-06
0.511148
2.80446e-06
0.511148
2.71153e-06
0.511149
2.59424e-06
0.511149
2.41324e-06
0.511149
2.3774e-06
0.511149
2.63374e-06
0.511148
2.591e-06
0.511148
1.91254e-06
0.511149
1.29153e-06
0.511149
1.37265e-06
0.511149
1.67892e-06
0.511149
1.80658e-06
0.51115
2.10788e-06
0.51115
2.45366e-06
0.511151
2.55834e-06
0.511152
2.62562e-06
0.511152
2.47517e-06
0.511152
2.06758e-06
0.511153
1.95802e-06
0.511153
2.12793e-06
0.511153
2.18536e-06
0.511154
2.46077e-06
0.511153
2.93562e-06
0.511153
2.8114e-06
0.511154
2.15104e-06
0.511154
1.71442e-06
0.511155
1.75238e-06
0.511155
2.13796e-06
0.511155
2.51379e-06
0.511155
2.55712e-06
0.511155
2.43467e-06
0.511156
2.32541e-06
0.511156
2.16215e-06
0.511157
2.01462e-06
0.511157
2.06373e-06
0.511157
2.21304e-06
0.511157
2.17125e-06
0.511157
1.96573e-06
0.511157
1.93883e-06
0.511158
2.19089e-06
0.511158
2.64245e-06
0.511157
3.02427e-06
0.511157
2.82583e-06
0.511157
2.294e-06
0.511158
2.00967e-06
0.511159
1.94965e-06
0.51116
2.31031e-06
0.51116
3.00798e-06
0.511159
3.22475e-06
0.51116
2.83376e-06
0.51116
2.29252e-06
0.51116
1.76817e-06
0.511161
1.56212e-06
0.511161
1.80044e-06
0.511161
2.12201e-06
0.511161
2.39037e-06
0.511161
2.61254e-06
0.511161
2.49749e-06
0.511161
2.18455e-06
0.511161
2.10875e-06
0.511161
2.06689e-06
0.511162
1.85044e-06
0.511163
1.85241e-06
0.511163
2.27863e-06
0.511164
2.79717e-06
0.511163
3.01479e-06
0.511163
2.8988e-06
0.511163
2.60017e-06
0.511163
2.21874e-06
0.511164
1.92873e-06
0.511165
1.84619e-06
0.511165
2.00028e-06
0.511166
2.34572e-06
0.511165
2.45533e-06
0.511165
2.18173e-06
0.511165
1.97667e-06
0.511166
1.98641e-06
0.511166
2.04361e-06
0.511166
2.02959e-06
0.511167
1.90833e-06
0.511167
1.89195e-06
0.511168
2.07921e-06
0.511168
2.2938e-06
0.511168
2.51737e-06
0.511168
2.59816e-06
0.511167
2.35113e-06
0.511167
2.01586e-06
0.511168
1.90431e-06
0.511169
2.11683e-06
0.511169
2.49121e-06
0.51117
2.72881e-06
0.51117
2.78783e-06
0.51117
2.58604e-06
0.51117
2.00488e-06
0.511171
1.57812e-06
0.511172
1.77138e-06
0.511172
2.15147e-06
0.511171
2.34651e-06
0.511171
2.34155e-06
0.511172
2.11586e-06
0.511172
2.02822e-06
0.511172
2.19624e-06
0.511173
2.29192e-06
0.511173
2.3021e-06
0.511173
2.2354e-06
0.511173
2.11309e-06
0.511173
2.07933e-06
0.511174
2.17093e-06
0.511174
2.39665e-06
0.511174
2.45901e-06
0.511174
2.22467e-06
0.511174
2.12984e-06
0.511175
2.30397e-06
0.511175
2.58116e-06
0.511175
3.04995e-06
0.511175
3.59217e-06
0.511174
3.64673e-06
0.511173
3.13583e-06
0.511173
2.60224e-06
0.511174
2.2406e-06
0.511175
1.9734e-06
0.511176
1.94931e-06
0.511176
2.25258e-06
0.511176
2.54833e-06
0.511176
2.50303e-06
0.511176
2.39718e-06
0.511176
2.33296e-06
0.511176
1.91041e-06
0.511176
1.35717e-06
0.511177
1.13143e-06
0.511179
1.22851e-06
0.51118
1.56882e-06
0.511181
1.98557e-06
0.511181
2.28283e-06
0.51118
2.4121e-06
0.511179
2.18912e-06
0.511179
1.68879e-06
0.51118
1.5192e-06
0.511181
1.75301e-06
0.511182
1.82307e-06
0.511183
1.76452e-06
0.511183
1.92822e-06
0.511183
2.18829e-06
0.511184
2.19755e-06
0.511184
2.05714e-06
0.511184
2.16564e-06
0.511184
2.39753e-06
0.511184
2.40495e-06
0.511185
2.4521e-06
0.511185
2.63202e-06
0.511186
2.57746e-06
0.511186
2.41854e-06
0.511186
2.34022e-06
0.511186
2.21782e-06
0.511186
2.13786e-06
0.511186
2.22045e-06
0.511186
2.48933e-06
0.511186
2.88628e-06
0.511186
3.08954e-06
0.511186
2.86019e-06
0.511187
2.39814e-06
0.511188
2.10805e-06
0.511189
2.22844e-06
0.511189
2.61842e-06
0.511189
2.87094e-06
0.511189
2.82557e-06
0.511188
2.68951e-06
0.511188
2.6121e-06
0.511188
2.58733e-06
0.511188
2.58316e-06
0.511188
2.58517e-06
0.511188
2.54219e-06
0.511189
2.43419e-06
0.511189
2.30551e-06
0.511189
2.20424e-06
0.511189
2.34434e-06
0.511189
2.51651e-06
0.511189
2.16208e-06
0.51119
1.76108e-06
0.51119
2.0138e-06
0.51119
2.52614e-06
0.51119
2.68516e-06
0.51119
2.56164e-06
0.511191
2.37411e-06
0.511191
2.01362e-06
0.511192
1.512e-06
0.511193
1.17416e-06
0.511195
1.12704e-06
0.511195
1.2168e-06
0.511196
1.35976e-06
0.511196
1.70801e-06
0.511195
2.11797e-06
0.511195
2.26937e-06
0.511195
2.19296e-06
0.511195
2.05505e-06
0.511195
2.06116e-06
0.511195
2.21894e-06
0.511195
2.35101e-06
0.511196
2.30024e-06
0.511196
2.0642e-06
2.06139e-06
0.511136
8.98396e-08
0.511136
4.58921e-07
0.511136
9.67638e-07
0.511136
1.54347e-06
0.511137
1.75349e-06
0.511138
1.34203e-06
0.511139
1.09049e-06
0.511139
1.66024e-06
0.511139
2.26217e-06
0.511138
2.34042e-06
0.511138
2.22997e-06
0.511138
2.12029e-06
0.511138
2.00729e-06
0.511139
1.86932e-06
0.511139
1.8518e-06
0.51114
1.86675e-06
0.51114
1.73724e-06
0.511141
1.70009e-06
0.511141
1.64708e-06
0.511141
1.46418e-06
0.511141
1.46523e-06
0.511142
1.76838e-06
0.511142
2.29742e-06
0.511142
2.34224e-06
0.511143
1.8281e-06
0.511143
1.76057e-06
0.511143
2.29289e-06
0.511142
2.82418e-06
0.511142
3.06823e-06
0.511142
2.77194e-06
0.511143
2.36981e-06
0.511143
2.32485e-06
0.511143
2.17312e-06
0.511143
1.93892e-06
0.511144
1.89837e-06
0.511144
1.85682e-06
0.511145
1.73505e-06
0.511145
1.48936e-06
0.511145
1.3705e-06
0.511145
1.45216e-06
0.511145
1.67031e-06
0.511146
2.03695e-06
0.511146
2.16844e-06
0.511147
2.03484e-06
0.511147
2.06834e-06
0.511147
2.14116e-06
0.511147
2.12824e-06
0.511147
2.36678e-06
0.511147
2.7005e-06
0.511147
2.70605e-06
0.511148
2.52016e-06
0.511148
2.31665e-06
0.511148
2.01889e-06
0.511149
1.7697e-06
0.51115
1.69891e-06
0.511151
1.6686e-06
0.511151
1.63098e-06
0.511151
1.47125e-06
0.511151
1.31347e-06
0.511151
1.57757e-06
0.511151
2.00431e-06
0.511151
2.12633e-06
0.511151
2.09368e-06
0.511151
2.14613e-06
0.511152
2.18373e-06
0.511152
2.01031e-06
0.511153
1.79543e-06
0.511153
1.83299e-06
0.511153
2.02497e-06
0.511153
2.18084e-06
0.511153
2.15151e-06
0.511154
2.08269e-06
0.511155
2.23852e-06
0.511155
2.23018e-06
0.511154
2.02008e-06
0.511154
2.08304e-06
0.511154
2.02847e-06
0.511155
1.83062e-06
0.511155
2.08347e-06
0.511155
2.27372e-06
0.511156
2.06728e-06
0.511156
1.84482e-06
0.511156
1.58079e-06
0.511157
1.56735e-06
0.511157
1.85081e-06
0.511157
1.91106e-06
0.511158
1.89908e-06
0.511157
2.11453e-06
0.511157
2.32134e-06
0.511158
2.32615e-06
0.511158
2.29633e-06
0.511159
2.4744e-06
0.511158
2.65082e-06
0.511158
2.47907e-06
0.511158
2.19822e-06
0.511158
2.21256e-06
0.511158
2.3289e-06
0.511159
2.30577e-06
0.51116
2.29334e-06
0.51116
2.16901e-06
0.51116
1.84142e-06
0.51116
1.69669e-06
0.51116
1.75756e-06
0.51116
1.81555e-06
0.51116
1.98955e-06
0.511161
2.1488e-06
0.511161
2.08508e-06
0.511161
2.0294e-06
0.511162
1.99615e-06
0.511162
1.85267e-06
0.511162
1.79745e-06
0.511162
1.80898e-06
0.511162
1.82908e-06
0.511163
2.06327e-06
0.511164
2.39705e-06
0.511164
2.57709e-06
0.511164
2.55087e-06
0.511164
2.26336e-06
0.511164
1.94022e-06
0.511164
1.74095e-06
0.511165
1.58282e-06
0.511165
1.68915e-06
0.511166
2.04146e-06
0.511166
2.21587e-06
0.511165
2.10567e-06
0.511166
1.9086e-06
0.511166
1.83506e-06
0.511166
1.85371e-06
0.511166
1.78864e-06
0.511166
1.76823e-06
0.511166
1.8037e-06
0.511167
1.66217e-06
0.511168
1.67339e-06
0.511168
2.1243e-06
0.511168
2.45389e-06
0.511168
2.35478e-06
0.511168
2.22789e-06
0.511167
2.26471e-06
0.511168
2.19234e-06
0.511168
2.03549e-06
0.511169
2.09528e-06
0.51117
2.16168e-06
0.51117
1.905e-06
0.51117
1.52201e-06
0.51117
1.4207e-06
0.511171
1.6779e-06
0.511171
1.89645e-06
0.511171
1.90134e-06
0.511172
1.95185e-06
0.511172
2.06973e-06
0.511172
2.02503e-06
0.511172
1.81942e-06
0.511173
1.68559e-06
0.511173
1.69675e-06
0.511174
1.80748e-06
0.511174
1.89186e-06
0.511174
1.80589e-06
0.511175
1.71797e-06
0.511176
1.78556e-06
0.511176
2.03865e-06
0.511176
2.40423e-06
0.511175
2.53661e-06
0.511175
2.50843e-06
0.511176
2.67854e-06
0.511176
2.93805e-06
0.511177
3.04693e-06
0.511177
2.99771e-06
0.511177
2.89067e-06
0.511176
2.67059e-06
0.511176
2.235e-06
0.511176
1.8919e-06
0.511176
1.96645e-06
0.511177
2.14097e-06
0.511177
1.96324e-06
0.511178
1.64318e-06
0.511179
1.55547e-06
0.511179
1.55991e-06
0.511179
1.54699e-06
0.511179
1.52949e-06
0.511179
1.35998e-06
0.511179
1.04188e-06
0.51118
8.17846e-07
0.511182
1.05595e-06
0.511182
1.67301e-06
0.511182
2.05315e-06
0.511182
1.97827e-06
0.511182
1.79535e-06
0.511182
1.67055e-06
0.511182
1.51436e-06
0.511182
1.48062e-06
0.511183
1.70489e-06
0.511183
1.93513e-06
0.511183
1.97177e-06
0.511183
1.93922e-06
0.511183
2.03939e-06
0.511183
2.42046e-06
0.511183
2.76819e-06
0.511183
2.63495e-06
0.511183
2.22468e-06
0.511184
1.8398e-06
0.511185
1.71365e-06
0.511185
1.94814e-06
0.511185
2.19345e-06
0.511185
2.36101e-06
0.511185
2.51586e-06
0.511185
2.44165e-06
0.511185
2.38747e-06
0.511186
2.6324e-06
0.511186
2.82274e-06
0.511185
2.78425e-06
0.511185
2.57777e-06
0.511185
2.28492e-06
0.511185
2.23917e-06
0.511186
2.33198e-06
0.511186
2.22039e-06
0.511187
2.20808e-06
0.511187
2.40106e-06
0.511187
2.46515e-06
0.511187
2.3904e-06
0.511188
2.30015e-06
0.511188
2.29407e-06
0.511188
2.38383e-06
0.511188
2.3805e-06
0.511188
2.12887e-06
0.511188
1.7993e-06
0.511189
1.70631e-06
0.51119
1.76501e-06
0.511189
1.88615e-06
0.511189
2.23146e-06
0.511189
2.5503e-06
0.51119
2.41092e-06
0.51119
2.01123e-06
0.511191
1.85745e-06
0.511191
1.79298e-06
0.511191
1.43537e-06
0.511191
9.28991e-07
0.511192
5.89898e-07
0.511192
5.73939e-07
0.511193
8.08246e-07
0.511193
1.15734e-06
0.511194
1.50907e-06
0.511195
1.76909e-06
0.511195
1.92089e-06
0.511195
1.9344e-06
0.511195
1.90887e-06
0.511195
2.03689e-06
0.511195
2.13243e-06
0.511196
2.14023e-06
0.511196
2.01615e-06
1.87311e-06
0.511136
3.50219e-08
0.511136
5.24147e-07
0.511136
9.56133e-07
0.511137
1.19724e-06
0.511137
1.21495e-06
0.511137
1.07337e-06
0.511137
1.208e-06
0.511137
1.50203e-06
0.511138
1.52376e-06
0.511139
1.62868e-06
0.511139
1.87232e-06
0.511139
1.84897e-06
0.51114
1.68226e-06
0.51114
1.6965e-06
0.51114
1.63197e-06
0.511141
1.50344e-06
0.511141
1.62313e-06
0.511141
1.77675e-06
0.511141
1.62305e-06
0.511141
1.37997e-06
0.511141
1.55309e-06
0.511141
1.82818e-06
0.511141
1.76013e-06
0.511142
1.72499e-06
0.511142
1.74378e-06
0.511142
1.7863e-06
0.511142
2.32382e-06
0.511142
2.65148e-06
0.511143
2.31728e-06
0.511143
2.22613e-06
0.511143
2.17982e-06
0.511144
1.79843e-06
0.511145
1.55068e-06
0.511145
1.51071e-06
0.511145
1.62901e-06
0.511145
1.71257e-06
0.511146
1.54853e-06
0.511146
1.44219e-06
0.511146
1.49393e-06
0.511145
1.5128e-06
0.511146
1.52266e-06
0.511146
1.48227e-06
0.511147
1.60603e-06
0.511147
1.87093e-06
0.511147
1.81171e-06
0.511147
1.80484e-06
0.511148
2.0335e-06
0.511148
2.17796e-06
0.511148
2.35521e-06
0.511148
2.52281e-06
0.511148
2.3523e-06
0.511149
2.05706e-06
0.511149
2.02805e-06
0.511148
1.98409e-06
0.511148
1.81068e-06
0.511148
1.6281e-06
0.511149
1.14765e-06
0.51115
8.00728e-07
0.51115
1.14187e-06
0.51115
1.556e-06
0.51115
1.69737e-06
0.51115
1.8086e-06
0.511151
1.78033e-06
0.511151
1.81073e-06
0.511151
2.06999e-06
0.511151
2.01556e-06
0.511151
1.56207e-06
0.511152
1.3611e-06
0.511152
1.5758e-06
0.511153
1.87165e-06
0.511153
2.18591e-06
0.511152
2.27109e-06
0.511153
1.88236e-06
0.511153
1.77363e-06
0.511153
2.12405e-06
0.511153
2.0719e-06
0.511153
1.84307e-06
0.511153
1.82178e-06
0.511154
1.62976e-06
0.511154
1.568e-06
0.511155
1.7572e-06
0.511155
1.64588e-06
0.511155
1.44713e-06
0.511155
1.48452e-06
0.511156
1.46542e-06
0.511156
1.48256e-06
0.511156
1.73868e-06
0.511156
1.98957e-06
0.511156
2.10713e-06
0.511157
2.08584e-06
0.511157
1.9849e-06
0.511158
2.02017e-06
0.511158
2.17762e-06
0.511158
2.23963e-06
0.511158
2.1999e-06
0.511158
2.3332e-06
0.511158
2.54832e-06
0.511158
2.34846e-06
0.511158
1.96945e-06
0.511158
1.8925e-06
0.511158
1.78473e-06
0.511159
1.509e-06
0.511159
1.53278e-06
0.511159
1.71833e-06
0.511159
1.65106e-06
0.51116
1.68747e-06
0.51116
1.81664e-06
0.511161
1.58416e-06
0.511161
1.31509e-06
0.511162
1.25539e-06
0.511162
1.37742e-06
0.511162
1.82754e-06
0.511162
2.10241e-06
0.511162
1.98758e-06
0.511162
2.04195e-06
0.511163
2.01071e-06
0.511164
1.64498e-06
0.511165
1.50138e-06
0.511165
1.63942e-06
0.511165
1.66016e-06
0.511165
1.57836e-06
0.511165
1.64067e-06
0.511165
1.83724e-06
0.511166
1.90404e-06
0.511166
1.81999e-06
0.511166
1.74964e-06
0.511166
1.66033e-06
0.511166
1.55982e-06
0.511167
1.48076e-06
0.511167
1.45222e-06
0.511167
1.63757e-06
0.511167
1.81961e-06
0.511167
1.73528e-06
0.511167
1.72887e-06
0.511168
1.894e-06
0.511168
2.02422e-06
0.511168
2.10856e-06
0.511169
2.0855e-06
0.511169
2.05405e-06
0.511169
2.07846e-06
0.511169
1.93779e-06
0.511169
1.65298e-06
0.51117
1.42602e-06
0.51117
1.41547e-06
0.51117
1.65437e-06
0.51117
1.75294e-06
0.51117
1.53911e-06
0.51117
1.51624e-06
0.511171
1.69346e-06
0.511171
1.68431e-06
0.511171
1.65591e-06
0.511172
1.67433e-06
0.511172
1.65961e-06
0.511172
1.63055e-06
0.511172
1.4962e-06
0.511172
1.48291e-06
0.511173
1.60048e-06
0.511173
1.54474e-06
0.511173
1.5261e-06
0.511173
1.74354e-06
0.511174
2.08429e-06
0.511174
2.49293e-06
0.511173
2.83772e-06
0.511173
2.9099e-06
0.511173
2.76837e-06
0.511174
2.71591e-06
0.511174
2.73662e-06
0.511174
2.58798e-06
0.511174
2.3735e-06
0.511174
2.25662e-06
0.511174
2.07724e-06
0.511174
1.79977e-06
0.511175
1.72005e-06
0.511175
1.72663e-06
0.511175
1.46263e-06
0.511176
1.13282e-06
0.511176
9.19604e-07
0.511177
7.24225e-07
0.511178
7.0712e-07
0.511178
9.03964e-07
0.511178
1.06643e-06
0.511178
1.11371e-06
0.511178
1.05374e-06
0.511179
1.03484e-06
0.51118
1.18223e-06
0.51118
1.28453e-06
0.511181
1.28575e-06
0.511181
1.31966e-06
0.511181
1.33267e-06
0.511182
1.31132e-06
0.511182
1.3676e-06
0.511182
1.56864e-06
0.511182
1.81682e-06
0.511182
1.89038e-06
0.511183
1.83574e-06
0.511183
1.96751e-06
0.511184
2.20407e-06
0.511184
2.18831e-06
0.511184
2.0393e-06
0.511184
2.00106e-06
0.511184
1.95178e-06
0.511184
1.79985e-06
0.511184
1.75213e-06
0.511185
1.99085e-06
0.511185
2.29795e-06
0.511185
2.44631e-06
0.511185
2.45146e-06
0.511185
2.34584e-06
0.511186
2.30028e-06
0.511186
2.37546e-06
0.511186
2.45717e-06
0.511186
2.53034e-06
0.511186
2.46922e-06
0.511186
2.24126e-06
0.511186
2.03108e-06
0.511186
1.95054e-06
0.511187
2.0535e-06
0.511187
2.2041e-06
0.511187
2.21247e-06
0.511187
2.20371e-06
0.511187
2.18454e-06
0.511188
1.93849e-06
0.511188
1.75876e-06
0.511189
1.80008e-06
0.511189
1.67106e-06
0.511189
1.59534e-06
0.511189
1.80188e-06
0.511189
1.85768e-06
0.511189
1.76864e-06
0.51119
1.74395e-06
0.511191
1.75693e-06
0.511191
1.73273e-06
0.511192
1.49358e-06
0.511192
1.05941e-06
0.511193
6.52935e-07
0.511194
4.31901e-07
0.511194
4.47957e-07
0.511194
6.6575e-07
0.511194
8.83947e-07
0.511194
1.02871e-06
0.511194
1.20344e-06
0.511194
1.33142e-06
0.511195
1.43941e-06
0.511195
1.68477e-06
0.511195
1.89986e-06
0.511195
1.85053e-06
0.511196
1.53518e-06
0.511197
1.27702e-06
0.511198
1.23097e-06
1.46549e-06
0.511136
1.18168e-07
0.511136
5.66691e-07
0.511136
8.86327e-07
0.511136
8.30961e-07
0.511137
8.79636e-07
0.511137
1.05206e-06
0.511137
9.46331e-07
0.511138
7.44297e-07
0.511138
7.37394e-07
0.511139
1.05686e-06
0.511139
1.40044e-06
0.51114
1.71801e-06
0.511139
1.89064e-06
0.511139
1.82574e-06
0.511139
1.74038e-06
0.511139
1.66799e-06
0.511139
1.33601e-06
0.51114
8.70115e-07
0.511141
9.22586e-07
0.511141
1.43737e-06
0.511141
1.56087e-06
0.511141
1.64646e-06
0.511141
1.68642e-06
0.511141
1.44607e-06
0.511142
1.60979e-06
0.511141
2.07182e-06
0.511142
1.98054e-06
0.511143
1.66518e-06
0.511143
1.53758e-06
0.511144
1.55327e-06
0.511144
1.7639e-06
0.511144
1.84172e-06
0.511144
1.66806e-06
0.511144
1.76255e-06
0.511144
1.76623e-06
0.511144
1.29021e-06
0.511145
9.14085e-07
0.511145
1.03764e-06
0.511145
1.42294e-06
0.511145
1.66627e-06
0.511145
1.60631e-06
0.511145
1.313e-06
0.511146
1.19086e-06
0.511146
1.45032e-06
0.511146
1.73028e-06
0.511146
2.0046e-06
0.511146
2.19904e-06
0.511146
2.11429e-06
0.511146
2.05008e-06
0.511147
1.98822e-06
0.511147
1.85604e-06
0.511147
1.86229e-06
0.511148
1.85053e-06
0.511148
1.74267e-06
0.511148
1.54325e-06
0.511149
1.14254e-06
0.511149
8.21573e-07
0.511149
9.19697e-07
0.511149
1.16532e-06
0.511149
1.28838e-06
0.511149
1.31674e-06
0.51115
1.44289e-06
0.51115
1.74661e-06
0.51115
1.8232e-06
0.51115
1.55124e-06
0.511151
1.43904e-06
0.511151
1.44381e-06
0.511151
1.27982e-06
0.511151
1.31339e-06
0.511152
1.61831e-06
0.511152
1.74047e-06
0.511153
1.73424e-06
0.511153
1.92174e-06
0.511152
2.08316e-06
0.511153
1.88982e-06
0.511153
1.5473e-06
0.511154
1.31226e-06
0.511154
1.22945e-06
0.511154
1.36954e-06
0.511155
1.46267e-06
0.511155
1.30087e-06
0.511155
1.26664e-06
0.511156
1.31133e-06
0.511156
1.06894e-06
0.511156
9.32244e-07
0.511157
1.34685e-06
0.511156
1.86981e-06
0.511156
2.01324e-06
0.511157
1.93722e-06
0.511157
1.72509e-06
0.511157
1.48133e-06
0.511158
1.67471e-06
0.511158
1.9807e-06
0.511158
1.95108e-06
0.511158
2.04513e-06
0.511159
2.29355e-06
0.511159
2.25723e-06
0.511159
2.02629e-06
0.511159
1.72547e-06
0.51116
1.42126e-06
0.51116
1.40041e-06
0.51116
1.57866e-06
0.51116
1.59458e-06
0.51116
1.53049e-06
0.511161
1.42551e-06
0.511161
1.26511e-06
0.511161
1.3366e-06
0.511162
1.4251e-06
0.511162
1.20187e-06
0.511162
1.07203e-06
0.511162
1.25016e-06
0.511162
1.54562e-06
0.511163
1.83455e-06
0.511163
1.95608e-06
0.511163
1.83958e-06
0.511163
1.56379e-06
0.511164
1.32234e-06
0.511164
1.22983e-06
0.511164
1.20577e-06
0.511165
1.30133e-06
0.511165
1.52063e-06
0.511165
1.66866e-06
0.511165
1.72721e-06
0.511165
1.75439e-06
0.511165
1.62166e-06
0.511166
1.32041e-06
0.511166
1.07972e-06
0.511167
1.00963e-06
0.511167
1.0128e-06
0.511168
1.08109e-06
0.511168
1.33795e-06
0.511168
1.71955e-06
0.511168
1.88587e-06
0.511168
1.76066e-06
0.511168
1.61873e-06
0.511168
1.6584e-06
0.511169
1.82118e-06
0.511169
1.91166e-06
0.511169
1.95043e-06
0.511169
1.91008e-06
0.511169
1.64954e-06
0.51117
1.35284e-06
0.51117
1.28385e-06
0.51117
1.42012e-06
0.51117
1.51025e-06
0.51117
1.38393e-06
0.511171
1.19378e-06
0.511171
1.20237e-06
0.511171
1.37903e-06
0.511172
1.47563e-06
0.511172