/*--------------------------------*- C++ -*----------------------------------*\
| =========                 |                                                 |
| \\      /  F ield         | OpenFOAM: The Open Source CFD Toolbox           |
|  \\    /   O peration     | Version:  2406                                  |
|   \\  /    A nd           | Website:  www.openfoam.com                      |
|    \\/     M anipulation  |                                                 |
\*---------------------------------------------------------------------------*/
FoamFile
{
    version     2.0;
    format      ascii;
    arch        "LSB;label=32;scalar=64";
    class       volVectorField;
    location    "2";
    object      U;
}
// * * * * * * * * * * * * * * * * * * * * * * * * * * * * * * * * * * * * * //

dimensions      [0 1 -1 0 0 0 0];

internalField   nonuniform List<vector> 
6250
(
(50.5471 9.92651e-05 0)
(85.4606 0.000534946 0)
(73.2899 0.000818007 0)
(60.6428 0.000802936 0)
(59.8978 0.000699889 0)
(63.3572 0.000678535 0)
(64.867 0.000731682 0)
(64.4155 0.000778636 0)
(63.7984 0.000796947 0)
(63.6957 0.000804266 0)
(63.8382 0.000791111 0)
(63.9225 0.000778352 0)
(63.912 0.000789471 0)
(63.8824 0.000810414 0)
(63.8736 0.000817951 0)
(63.8783 0.000809502 0)
(63.8822 0.000824114 0)
(63.8816 0.000859416 0)
(63.8796 0.000892828 0)
(63.8784 0.000923315 0)
(63.8778 0.000932002 0)
(63.8774 0.000911414 0)
(63.8768 0.000877031 0)
(63.8761 0.000862933 0)
(63.8754 0.000898875 0)
(63.8747 0.000934779 0)
(63.874 0.000915745 0)
(63.8734 0.000882836 0)
(63.8727 0.000863217 0)
(63.872 0.000826271 0)
(63.8714 0.000776819 0)
(63.8708 0.00075526 0)
(63.8701 0.000771832 0)
(63.8694 0.000808119 0)
(63.8688 0.000854579 0)
(63.8681 0.000914919 0)
(63.8673 0.000971999 0)
(63.8665 0.000972557 0)
(63.8658 0.000904316 0)
(63.8653 0.000845085 0)
(63.8647 0.000848328 0)
(63.864 0.000882838 0)
(63.8633 0.000919199 0)
(63.8626 0.000957441 0)
(63.8618 0.000970858 0)
(63.8611 0.000931233 0)
(63.8605 0.000865935 0)
(63.8598 0.000815868 0)
(63.8592 0.000799248 0)
(63.8585 0.000832668 0)
(63.8578 0.000910337 0)
(63.857 0.000984228 0)
(63.8563 0.00101383 0)
(63.8556 0.000993809 0)
(63.8549 0.000952573 0)
(63.8544 0.000933318 0)
(63.8537 0.000928332 0)
(63.8531 0.000898547 0)
(63.8525 0.000857736 0)
(63.8519 0.000848736 0)
(63.8512 0.000880555 0)
(63.8505 0.000931443 0)
(63.8497 0.000970968 0)
(63.8489 0.000973947 0)
(63.8482 0.000956068 0)
(63.8475 0.000951223 0)
(63.8468 0.000944436 0)
(63.8462 0.000928926 0)
(63.8455 0.00093004 0)
(63.8448 0.000928423 0)
(63.8441 0.000912412 0)
(63.8434 0.000911945 0)
(63.8427 0.000927891 0)
(63.8421 0.000957927 0)
(63.8414 0.000991769 0)
(63.8406 0.000978962 0)
(63.8399 0.0009288 0)
(63.8393 0.000906188 0)
(63.8386 0.000923381 0)
(63.838 0.0009606 0)
(63.8373 0.000986151 0)
(63.8365 0.000973682 0)
(63.8359 0.000937756 0)
(63.8352 0.000890227 0)
(63.8346 0.00086281 0)
(63.834 0.000902166 0)
(63.8333 0.000974469 0)
(63.8326 0.00101206 0)
(63.8319 0.000992821 0)
(63.8312 0.00094528 0)
(63.8306 0.000927623 0)
(63.8298 0.00094921 0)
(63.8291 0.000970582 0)
(63.8284 0.00097888 0)
(63.8276 0.000963258 0)
(63.8269 0.000920898 0)
(63.8263 0.00091175 0)
(63.8256 0.000956052 0)
(63.8249 0.000982968 0)
(63.8242 0.00096656 0)
(63.8236 0.000937572 0)
(63.8229 0.000916929 0)
(63.8222 0.00093056 0)
(63.8215 0.000976018 0)
(63.8208 0.00101583 0)
(63.8202 0.00103317 0)
(63.8194 0.00101822 0)
(63.8188 0.000969604 0)
(63.8182 0.000924459 0)
(63.8175 0.000911508 0)
(63.8168 0.000924161 0)
(63.8161 0.000942614 0)
(63.8154 0.000939558 0)
(63.8147 0.000907279 0)
(63.8141 0.000875729 0)
(63.8135 0.000874079 0)
(63.8129 0.000906663 0)
(63.8122 0.000956012 0)
(63.8114 0.000987363 0)
(63.8107 0.000980786 0)
(63.81 0.000948473 0)
(63.8094 0.00092271 0)
(63.8087 0.000938143 0)
(63.808 0.000979084 0)
(63.8073 0.000993152 0)
(63.8067 0.000974226 0)
(63.806 0.000950782 0)
(63.8053 0.00094144 0)
(63.8047 0.00094838 0)
(63.804 0.000952019 0)
(63.8033 0.000949255 0)
(63.8027 0.000962441 0)
(63.802 0.000982163 0)
(63.8013 0.000990804 0)
(63.8006 0.0010085 0)
(63.7999 0.00103273 0)
(63.7991 0.00101694 0)
(63.7984 0.000945183 0)
(63.7978 0.000866261 0)
(63.7972 0.000840416 0)
(63.7965 0.000870892 0)
(63.7958 0.000916373 0)
(63.7952 0.000952532 0)
(63.7945 0.000978519 0)
(63.7938 0.000990518 0)
(63.7931 0.000992171 0)
(63.7925 0.00100285 0)
(63.7918 0.00101464 0)
(63.7911 0.00100285 0)
(63.7905 0.000968582 0)
(63.7899 0.000924875 0)
(63.7892 0.000906422 0)
(63.7886 0.000947185 0)
(63.7878 0.0010112 0)
(63.7871 0.00103657 0)
(63.7865 0.00101592 0)
(63.7858 0.000980473 0)
(63.7852 0.000956945 0)
(63.7845 0.000961813 0)
(63.7838 0.000983877 0)
(63.7831 0.000997231 0)
(63.7824 0.000998253 0)
(63.7817 0.000988732 0)
(63.781 0.000971431 0)
(63.7804 0.000961632 0)
(63.7797 0.000972132 0)
(63.779 0.000997835 0)
(63.7782 0.000992204 0)
(63.7775 0.00093186 0)
(63.7768 0.000886377 0)
(63.7762 0.000902772 0)
(63.7754 0.000944665 0)
(63.7748 0.000990965 0)
(63.7741 0.00103593 0)
(63.7734 0.00104228 0)
(63.7728 0.00100706 0)
(63.7721 0.000980323 0)
(63.7714 0.000980964 0)
(63.7707 0.000989396 0)
(63.77 0.000984927 0)
(63.7693 0.000960393 0)
(63.7686 0.000946159 0)
(63.768 0.000969089 0)
(63.7673 0.00102234 0)
(63.7667 0.00109642 0)
(63.7659 0.00114294 0)
(63.7651 0.00109727 0)
(63.7644 0.000985623 0)
(63.7637 0.0008984 0)
(63.763 0.000883894 0)
(63.7624 0.000918356 0)
(63.7617 0.000965887 0)
(63.761 0.00101559 0)
(63.7603 0.00103894 0)
(63.7596 0.000999339 0)
(63.759 0.000928373 0)
(63.7584 0.000900988 0)
(63.7577 0.00091878 0)
(63.7569 0.000925289 0)
(63.7563 0.000922073 0)
(63.7556 0.000940281 0)
(63.755 0.00097912 0)
(63.7543 0.00103138 0)
(63.7536 0.00107283 0)
(63.7528 0.00107422 0)
(63.7522 0.0010433 0)
(63.7514 0.000993498 0)
(63.7507 0.000929927 0)
(63.7501 0.000877715 0)
(63.7494 0.000859616 0)
(63.7487 0.000867426 0)
(63.7481 0.000880274 0)
(63.7474 0.000897082 0)
(63.7468 0.000944807 0)
(63.7461 0.0010218 0)
(63.7454 0.00107617 0)
(63.7447 0.00107573 0)
(63.7441 0.00101864 0)
(63.7434 0.000926117 0)
(63.7428 0.000858475 0)
(63.7421 0.000856233 0)
(63.7415 0.000911951 0)
(63.7408 0.000990414 0)
(63.74 0.00104224 0)
(63.7393 0.00104859 0)
(63.7386 0.00102677 0)
(63.738 0.00100175 0)
(63.7373 0.000991181 0)
(63.7366 0.000983831 0)
(63.7359 0.000968186 0)
(63.7352 0.000972638 0)
(63.7345 0.00100363 0)
(63.7337 0.00101867 0)
(63.733 0.0010129 0)
(63.7323 0.00100704 0)
(63.7316 0.00099647 0)
(63.731 0.000990972 0)
(63.7303 0.000995719 0)
(63.7297 0.000997372 0)
(63.7291 0.00100819 0)
(63.7284 0.0010445 0)
(63.7277 0.00109879 0)
(63.727 0.00114415 0)
(63.7262 0.00114959 0)
(63.7255 0.00110708 0)
(63.7249 0.00103347 0)
(63.7242 0.00096473 0)
(63.7236 0.000920553 0)
(63.723 0.000945805 0)
(63.7219 0.000957789 0)
(50.5472 7.35173e-05 0)
(85.4619 0.000403027 0)
(73.293 0.000659045 0)
(60.6475 0.000659351 0)
(59.9033 0.000547867 0)
(63.3633 0.000515532 0)
(64.8739 0.000539683 0)
(64.4236 0.000519795 0)
(63.8077 0.000476015 0)
(63.7062 0.000474065 0)
(63.8497 0.000497638 0)
(63.935 0.000530147 0)
(63.9254 0.000575614 0)
(63.8968 0.00059016 0)
(63.8891 0.000548258 0)
(63.8948 0.000487688 0)
(63.8996 0.000469729 0)
(63.9002 0.000477314 0)
(63.8993 0.000468585 0)
(63.8993 0.000466434 0)
(63.9 0.000471639 0)
(63.9006 0.000458157 0)
(63.901 0.000436574 0)
(63.9012 0.00041813 0)
(63.9015 0.000412546 0)
(63.9021 0.000426012 0)
(63.9025 0.000438995 0)
(63.9029 0.000463625 0)
(63.9032 0.000488402 0)
(63.9035 0.000479207 0)
(63.9037 0.000474277 0)
(63.9039 0.000516988 0)
(63.9041 0.000560252 0)
(63.9044 0.000531766 0)
(63.9049 0.000470904 0)
(63.9053 0.000466937 0)
(63.9057 0.000506632 0)
(63.9062 0.000500575 0)
(63.9067 0.000433599 0)
(63.9069 0.000392503 0)
(63.9072 0.000405489 0)
(63.9077 0.00042487 0)
(63.9081 0.000447101 0)
(63.9084 0.000480743 0)
(63.9088 0.000495204 0)
(63.9093 0.00047451 0)
(63.9096 0.000459706 0)
(63.9098 0.000467116 0)
(63.9101 0.000465206 0)
(63.9104 0.000478601 0)
(63.9108 0.000527372 0)
(63.9111 0.000545848 0)
(63.9115 0.000497739 0)
(63.912 0.000411878 0)
(63.9122 0.000316775 0)
(63.9125 0.000264441 0)
(63.9129 0.000284866 0)
(63.9133 0.000322157 0)
(63.9137 0.000344434 0)
(63.9142 0.000388488 0)
(63.9145 0.000456951 0)
(63.915 0.000510976 0)
(63.9155 0.000543723 0)
(63.9158 0.000552854 0)
(63.9161 0.000515888 0)
(63.9164 0.000457496 0)
(63.9169 0.000422813 0)
(63.9172 0.000416624 0)
(63.9176 0.000434268 0)
(63.918 0.000459655 0)
(63.9183 0.000459643 0)
(63.9186 0.000428371 0)
(63.919 0.000404688 0)
(63.9193 0.000426545 0)
(63.9197 0.000467896 0)
(63.9202 0.000464668 0)
(63.9205 0.000419023 0)
(63.9209 0.000387639 0)
(63.9213 0.000386936 0)
(63.9216 0.000409967 0)
(63.922 0.000442169 0)
(63.9224 0.000447201 0)
(63.9227 0.0004176 0)
(63.9231 0.000367616 0)
(63.9234 0.000326822 0)
(63.9237 0.000341542 0)
(63.9241 0.000395019 0)
(63.9246 0.000429126 0)
(63.925 0.000425389 0)
(63.9254 0.000408873 0)
(63.9257 0.000410374 0)
(63.926 0.00042398 0)
(63.9265 0.000443226 0)
(63.9269 0.000486972 0)
(63.9273 0.000522261 0)
(63.9276 0.0004906 0)
(63.9278 0.000437638 0)
(63.9282 0.0004332 0)
(63.9285 0.000432565 0)
(63.9288 0.000400476 0)
(63.9292 0.000376847 0)
(63.9296 0.000369379 0)
(63.93 0.000370357 0)
(63.9304 0.000383947 0)
(63.9308 0.000389827 0)
(63.9312 0.000375709 0)
(63.9316 0.000357619 0)
(63.932 0.000353675 0)
(63.9324 0.0003764 0)
(63.9327 0.000420653 0)
(63.9331 0.000453764 0)
(63.9335 0.000455141 0)
(63.9339 0.000442289 0)
(63.9342 0.000421386 0)
(63.9344 0.000377648 0)
(63.9347 0.000339769 0)
(63.9351 0.000357455 0)
(63.9354 0.000423915 0)
(63.9358 0.000483414 0)
(63.9363 0.000493104 0)
(63.9366 0.000453301 0)
(63.9369 0.00039338 0)
(63.9372 0.000356082 0)
(63.9377 0.000358686 0)
(63.9381 0.000372271 0)
(63.9385 0.000375397 0)
(63.9389 0.000369916 0)
(63.9392 0.000366262 0)
(63.9396 0.000383465 0)
(63.94 0.000406443 0)
(63.9403 0.000407069 0)
(63.9406 0.000402354 0)
(63.9411 0.000394359 0)
(63.9414 0.000362911 0)
(63.9419 0.000349102 0)
(63.9424 0.000388541 0)
(63.9428 0.00043953 0)
(63.9432 0.000460651 0)
(63.9435 0.000454128 0)
(63.9437 0.00043739 0)
(63.9439 0.000413894 0)
(63.9442 0.00038668 0)
(63.9446 0.000382527 0)
(63.945 0.000398581 0)
(63.9454 0.000386417 0)
(63.9458 0.000344426 0)
(63.9462 0.00032146 0)
(63.9466 0.00032229 0)
(63.9469 0.000330328 0)
(63.9473 0.00035034 0)
(63.9476 0.000364618 0)
(63.9479 0.000369281 0)
(63.9483 0.000380402 0)
(63.9487 0.000379212 0)
(63.9492 0.000361427 0)
(63.9495 0.000348643 0)
(63.9498 0.000341201 0)
(63.9502 0.00033308 0)
(63.9505 0.000337304 0)
(63.9509 0.000361148 0)
(63.9514 0.000388354 0)
(63.9517 0.00041656 0)
(63.9521 0.000441418 0)
(63.9523 0.000436814 0)
(63.9526 0.000406614 0)
(63.9529 0.000388591 0)
(63.9533 0.000408313 0)
(63.9538 0.00044271 0)
(63.9541 0.000454998 0)
(63.9544 0.000457204 0)
(63.9547 0.000459513 0)
(63.9551 0.000437174 0)
(63.9554 0.000390953 0)
(63.9557 0.000349641 0)
(63.9562 0.00032104 0)
(63.9565 0.000297727 0)
(63.9569 0.000300991 0)
(63.9575 0.000353101 0)
(63.9579 0.00042952 0)
(63.9583 0.000477173 0)
(63.9587 0.000457091 0)
(63.9589 0.000389221 0)
(63.9593 0.000320168 0)
(63.9597 0.000273679 0)
(63.9602 0.000290787 0)
(63.9608 0.000374628 0)
(63.9613 0.000439328 0)
(63.9617 0.000442749 0)
(63.962 0.000426773 0)
(63.9623 0.000417658 0)
(63.9627 0.000408431 0)
(63.9631 0.000404508 0)
(63.9635 0.000416152 0)
(63.9639 0.000416269 0)
(63.9643 0.000375732 0)
(63.9646 0.000333501 0)
(63.9649 0.000357104 0)
(63.9653 0.000429166 0)
(63.9656 0.000462351 0)
(63.9659 0.0004309 0)
(63.9662 0.000371993 0)
(63.9666 0.000326498 0)
(63.967 0.000331676 0)
(63.9674 0.000365938 0)
(63.9679 0.000384016 0)
(63.9683 0.000399995 0)
(63.9687 0.000418133 0)
(63.969 0.000417503 0)
(63.9692 0.000424787 0)
(63.9695 0.000459841 0)
(63.9698 0.000484018 0)
(63.9701 0.000469427 0)
(63.9703 0.000423696 0)
(63.9705 0.000365862 0)
(63.9709 0.000319912 0)
(63.9714 0.000293252 0)
(63.9718 0.000291967 0)
(63.9722 0.00032408 0)
(63.9725 0.000368185 0)
(63.9727 0.000399993 0)
(63.9731 0.000414567 0)
(63.9734 0.00042135 0)
(63.9738 0.000425907 0)
(63.9742 0.000420019 0)
(63.9746 0.000401039 0)
(63.9749 0.000363207 0)
(63.9753 0.000324394 0)
(63.9758 0.000334142 0)
(63.9762 0.000383491 0)
(63.9765 0.000421262 0)
(63.9769 0.000444658 0)
(63.9773 0.000460614 0)
(63.9777 0.000441496 0)
(63.978 0.000399713 0)
(63.9784 0.00037969 0)
(63.9788 0.000377309 0)
(63.9792 0.000369282 0)
(63.9795 0.000334333 0)
(63.98 0.000275542 0)
(63.9804 0.000243941 0)
(63.9808 0.000255144 0)
(63.9813 0.000281316 0)
(63.9818 0.000305486 0)
(63.9823 0.000313998 0)
(63.9827 0.000309289 0)
(63.9831 0.00031392 0)
(63.9834 0.000340308 0)
(63.9838 0.000374375 0)
(63.984 0.000447048 0)
(63.9846 0.000460895 0)
(50.5472 2.5545e-06 0)
(85.4614 -1.73563e-05 0)
(73.2916 -7.05266e-07 0)
(60.6456 6.67041e-05 0)
(59.9012 0.000114259 0)
(63.3611 0.000149869 0)
(64.8716 0.000160106 0)
(64.4209 0.000106391 0)
(63.8044 3.22353e-05 0)
(63.7024 4.12131e-06 0)
(63.8456 4.50023e-05 0)
(63.9305 0.00014049 0)
(63.9207 0.000226699 0)
(63.892 0.000225192 0)
(63.884 0.000173928 0)
(63.8894 0.000148846 0)
(63.8938 0.000142479 0)
(63.894 0.000125517 0)
(63.8927 9.19109e-05 0)
(63.8922 6.50901e-05 0)
(63.8925 7.53697e-05 0)
(63.8928 0.000119096 0)
(63.8927 0.000174673 0)
(63.8927 0.000193089 0)
(63.8926 0.000145312 0)
(63.8925 9.68553e-05 0)
(63.8926 9.69958e-05 0)
(63.8926 0.000147919 0)
(63.8927 0.000223635 0)
(63.8927 0.000282199 0)
(63.8927 0.000312099 0)
(63.8927 0.000303523 0)
(63.8929 0.000254375 0)
(63.893 0.000177783 0)
(63.893 0.000118259 0)
(63.8929 0.00011385 0)
(63.8929 0.00011597 0)
(63.893 9.05404e-05 0)
(63.8931 7.79572e-05 0)
(63.8932 0.000110223 0)
(63.8933 0.000173652 0)
(63.8933 0.000227994 0)
(63.8932 0.00024181 0)
(63.8932 0.000208143 0)
(63.8933 0.000168598 0)
(63.8933 0.000165209 0)
(63.8934 0.000196276 0)
(63.8934 0.000237149 0)
(63.8935 0.000254918 0)
(63.8934 0.000259418 0)
(63.8934 0.000270732 0)
(63.8936 0.000262398 0)
(63.8936 0.000229423 0)
(63.8937 0.000215587 0)
(63.8937 0.000222261 0)
(63.8936 0.000207558 0)
(63.8935 0.000160196 0)
(63.8936 0.000100649 0)
(63.8936 7.83775e-05 0)
(63.8936 0.00011269 0)
(63.8936 0.00015393 0)
(63.8937 0.000180975 0)
(63.8937 0.000218331 0)
(63.8938 0.000259585 0)
(63.894 0.000262178 0)
(63.894 0.000220105 0)
(63.894 0.000181379 0)
(63.8941 0.000168385 0)
(63.8941 0.000170474 0)
(63.8941 0.000193781 0)
(63.8942 0.000237141 0)
(63.8942 0.000266618 0)
(63.8941 0.000251146 0)
(63.8941 0.00019375 0)
(63.8942 0.000136341 0)
(63.8943 0.000132257 0)
(63.8944 0.000182268 0)
(63.8944 0.000236597 0)
(63.8944 0.000254304 0)
(63.8944 0.000234262 0)
(63.8944 0.000213797 0)
(63.8945 0.000210916 0)
(63.8946 0.000212877 0)
(63.8946 0.000219256 0)
(63.8946 0.000220824 0)
(63.8946 0.000201706 0)
(63.8946 0.000173762 0)
(63.8947 0.000163244 0)
(63.8947 0.00018555 0)
(63.8947 0.000239949 0)
(63.8947 0.000285082 0)
(63.8946 0.000262523 0)
(63.8946 0.000203522 0)
(63.8947 0.000185665 0)
(63.8948 0.000211006 0)
(63.895 0.000250553 0)
(63.895 0.00029332 0)
(63.8949 0.000317804 0)
(63.895 0.000298216 0)
(63.895 0.000243849 0)
(63.895 0.00019847 0)
(63.8951 0.000179645 0)
(63.8952 0.000172471 0)
(63.8952 0.000174101 0)
(63.8952 0.000186375 0)
(63.8952 0.000195659 0)
(63.8951 0.000194466 0)
(63.8951 0.000197061 0)
(63.8951 0.000211802 0)
(63.8951 0.000220777 0)
(63.8952 0.000201583 0)
(63.8953 0.000178904 0)
(63.8954 0.000218255 0)
(63.8954 0.000304495 0)
(63.8955 0.000338691 0)
(63.8954 0.000303083 0)
(63.8953 0.000254301 0)
(63.8953 0.000214338 0)
(63.8954 0.000190906 0)
(63.8955 0.000188429 0)
(63.8956 0.000205294 0)
(63.8957 0.000230483 0)
(63.8957 0.000222412 0)
(63.8956 0.000180529 0)
(63.8956 0.00015996 0)
(63.8957 0.000179711 0)
(63.8957 0.000210615 0)
(63.8957 0.000222695 0)
(63.8958 0.000219736 0)
(63.8959 0.000224303 0)
(63.896 0.000231796 0)
(63.896 0.000238105 0)
(63.896 0.000247372 0)
(63.896 0.000227678 0)
(63.8959 0.000171441 0)
(63.8959 0.000133049 0)
(63.8959 0.000151381 0)
(63.896 0.000223476 0)
(63.8961 0.000305141 0)
(63.8962 0.000340509 0)
(63.8963 0.000323029 0)
(63.8962 0.000275935 0)
(63.8962 0.000224116 0)
(63.8963 0.000197662 0)
(63.8965 0.000204208 0)
(63.8964 0.000223788 0)
(63.8964 0.000239227 0)
(63.8964 0.000235535 0)
(63.8964 0.00021745 0)
(63.8965 0.00022466 0)
(63.8965 0.000258448 0)
(63.8965 0.000282319 0)
(63.8966 0.000276791 0)
(63.8966 0.000242491 0)
(63.8966 0.000221984 0)
(63.8966 0.000239159 0)
(63.8967 0.000263601 0)
(63.8968 0.000281569 0)
(63.8967 0.000282063 0)
(63.8967 0.000258698 0)
(63.8967 0.000240341 0)
(63.8968 0.000254549 0)
(63.8969 0.000295903 0)
(63.8969 0.000341119 0)
(63.8969 0.000370351 0)
(63.8968 0.0003545 0)
(63.8967 0.000295003 0)
(63.8967 0.000251185 0)
(63.8967 0.000245522 0)
(63.8968 0.000241871 0)
(63.897 0.000234391 0)
(63.897 0.000245686 0)
(63.8971 0.000252808 0)
(63.897 0.000233619 0)
(63.897 0.000227251 0)
(63.897 0.000229088 0)
(63.8969 0.00018748 0)
(63.897 0.00013105 0)
(63.8971 0.000118438 0)
(63.8972 0.00015258 0)
(63.8974 0.000211144 0)
(63.8976 0.000259683 0)
(63.8976 0.000263534 0)
(63.8976 0.000214172 0)
(63.8974 0.0001389 0)
(63.8974 9.72639e-05 0)
(63.8975 0.000126228 0)
(63.8976 0.000193926 0)
(63.8977 0.000234601 0)
(63.8978 0.000221573 0)
(63.8979 0.000194854 0)
(63.8979 0.000192584 0)
(63.8979 0.000199084 0)
(63.898 0.000198364 0)
(63.8981 0.000210899 0)
(63.8981 0.000237259 0)
(63.898 0.000253838 0)
(63.8981 0.000277106 0)
(63.8981 0.000317708 0)
(63.8982 0.000333362 0)
(63.8982 0.000304405 0)
(63.8982 0.000255033 0)
(63.8982 0.000210106 0)
(63.8982 0.000179484 0)
(63.8982 0.000175538 0)
(63.8982 0.000221756 0)
(63.8982 0.000298446 0)
(63.8982 0.000348751 0)
(63.8982 0.000353402 0)
(63.8983 0.000327832 0)
(63.8984 0.000296177 0)
(63.8985 0.000295989 0)
(63.8987 0.000329989 0)
(63.8987 0.000340263 0)
(63.8986 0.000304065 0)
(63.8986 0.000260846 0)
(63.8985 0.000242883 0)
(63.8984 0.00026712 0)
(63.8985 0.000317447 0)
(63.8985 0.000341214 0)
(63.8985 0.00031377 0)
(63.8986 0.000257769 0)
(63.8986 0.000205982 0)
(63.8986 0.0001872 0)
(63.8986 0.000222143 0)
(63.8987 0.000263012 0)
(63.8986 0.000241669 0)
(63.8987 0.000202224 0)
(63.8988 0.000214834 0)
(63.8988 0.000255075 0)
(63.8987 0.000273488 0)
(63.8988 0.000269926 0)
(63.8988 0.000256526 0)
(63.8989 0.000223327 0)
(63.8989 0.000184167 0)
(63.8991 0.000168856 0)
(63.8993 0.00017272 0)
(63.8994 0.000168361 0)
(63.8995 0.000157953 0)
(63.8995 0.000176807 0)
(63.8994 0.000212348 0)
(63.8994 0.000226111 0)
(63.8993 0.000221667 0)
(63.8993 0.00021076 0)
(63.8994 0.000211743 0)
(63.8994 0.000240763 0)
(63.8994 0.000276573 0)
(63.8994 0.000294033 0)
(63.8995 0.00028238 0)
(63.8997 0.000274198 0)
(50.5472 7.27708e-06 0)
(85.4615 7.24949e-05 0)
(73.2917 0.000167323 0)
(60.6456 0.000268287 0)
(59.9012 0.000322266 0)
(63.3611 0.000304756 0)
(64.8716 0.000292833 0)
(64.4211 0.000329556 0)
(63.8045 0.000375277 0)
(63.7025 0.00038677 0)
(63.8456 0.000382766 0)
(63.9304 0.000398427 0)
(63.9207 0.000406211 0)
(63.8919 0.000369995 0)
(63.8838 0.00034601 0)
(63.8893 0.000363359 0)
(63.8938 0.000367634 0)
(63.894 0.000348031 0)
(63.8927 0.000325035 0)
(63.8922 0.000308974 0)
(63.8925 0.000324652 0)
(63.8927 0.000376487 0)
(63.8928 0.000435299 0)
(63.8928 0.000449795 0)
(63.8928 0.000408624 0)
(63.8929 0.000375224 0)
(63.8929 0.000385867 0)
(63.8928 0.000426804 0)
(63.8927 0.000470748 0)
(63.8927 0.000471833 0)
(63.8928 0.000426914 0)
(63.8929 0.000372548 0)
(63.8928 0.000338976 0)
(63.8929 0.000350156 0)
(63.8929 0.000384451 0)
(63.893 0.000402508 0)
(63.8931 0.000368923 0)
(63.8931 0.000297033 0)
(63.8931 0.000252789 0)
(63.8931 0.000257001 0)
(63.8931 0.000315647 0)
(63.8932 0.000405065 0)
(63.8933 0.000435498 0)
(63.8933 0.000394283 0)
(63.8934 0.000365254 0)
(63.8934 0.000371893 0)
(63.8933 0.000378306 0)
(63.8934 0.000391878 0)
(63.8934 0.000414989 0)
(63.8934 0.000417096 0)
(63.8934 0.000400642 0)
(63.8935 0.000387314 0)
(63.8935 0.000375955 0)
(63.8935 0.000377731 0)
(63.8937 0.000402156 0)
(63.8938 0.000403445 0)
(63.8939 0.000344805 0)
(63.8939 0.000264825 0)
(63.8938 0.000234813 0)
(63.8939 0.000261774 0)
(63.8939 0.000297176 0)
(63.8938 0.000331622 0)
(63.8938 0.000362563 0)
(63.8939 0.000377732 0)
(63.894 0.00038043 0)
(63.894 0.000355824 0)
(63.8941 0.000320116 0)
(63.8941 0.000326401 0)
(63.8941 0.000364197 0)
(63.8941 0.000383714 0)
(63.8941 0.000384736 0)
(63.8942 0.000394944 0)
(63.8943 0.000401671 0)
(63.8943 0.000371568 0)
(63.8943 0.000326924 0)
(63.8943 0.000320141 0)
(63.8942 0.000337962 0)
(63.8943 0.000353504 0)
(63.8944 0.000379004 0)
(63.8944 0.000393188 0)
(63.8944 0.000375379 0)
(63.8945 0.000337223 0)
(63.8945 0.000291919 0)
(63.8946 0.000280848 0)
(63.8946 0.000309082 0)
(63.8947 0.000322539 0)
(63.8947 0.000318827 0)
(63.8947 0.000333658 0)
(63.8947 0.000366335 0)
(63.8946 0.000400303 0)
(63.8947 0.000422323 0)
(63.8949 0.000413148 0)
(63.8948 0.000378875 0)
(63.8947 0.000339424 0)
(63.8947 0.000311364 0)
(63.8947 0.000338605 0)
(63.8947 0.000407372 0)
(63.8948 0.000432837 0)
(63.895 0.000400036 0)
(63.895 0.000338945 0)
(63.895 0.000271394 0)
(63.895 0.000248114 0)
(63.895 0.00028318 0)
(63.895 0.000333394 0)
(63.895 0.000382579 0)
(63.8951 0.000418075 0)
(63.8952 0.000403515 0)
(63.8952 0.000358003 0)
(63.8952 0.000328423 0)
(63.8952 0.00030909 0)
(63.8953 0.000291879 0)
(63.8952 0.000293257 0)
(63.8952 0.000322207 0)
(63.8954 0.000368934 0)
(63.8955 0.000403252 0)
(63.8955 0.000412328 0)
(63.8955 0.000400078 0)
(63.8955 0.000360515 0)
(63.8955 0.000311711 0)
(63.8955 0.000277929 0)
(63.8955 0.000274258 0)
(63.8956 0.00031653 0)
(63.8957 0.000364438 0)
(63.8957 0.000366813 0)
(63.8957 0.000339179 0)
(63.8957 0.000311883 0)
(63.8957 0.000298498 0)
(63.8957 0.000292033 0)
(63.8957 0.000276256 0)
(63.8958 0.000271696 0)
(63.8958 0.000288821 0)
(63.8958 0.000304168 0)
(63.8959 0.000333592 0)
(63.8961 0.000385968 0)
(63.8961 0.000408365 0)
(63.896 0.000379002 0)
(63.896 0.000341287 0)
(63.8959 0.000332096 0)
(63.8959 0.000336278 0)
(63.896 0.000333621 0)
(63.8961 0.000339754 0)
(63.8962 0.000337783 0)
(63.8962 0.000289651 0)
(63.8962 0.000232196 0)
(63.8962 0.000233155 0)
(63.8963 0.000286765 0)
(63.8963 0.000336914 0)
(63.8964 0.000348713 0)
(63.8965 0.000326546 0)
(63.8964 0.000304448 0)
(63.8965 0.000293473 0)
(63.8965 0.000280095 0)
(63.8966 0.000274933 0)
(63.8967 0.000283024 0)
(63.8967 0.000297941 0)
(63.8967 0.00030583 0)
(63.8968 0.000294254 0)
(63.8968 0.000288298 0)
(63.8969 0.000292461 0)
(63.897 0.000297388 0)
(63.897 0.000320437 0)
(63.8969 0.000346191 0)
(63.8969 0.000363966 0)
(63.8969 0.000408707 0)
(63.897 0.000479022 0)
(63.8971 0.000511498 0)
(63.8971 0.000475651 0)
(63.8971 0.000411804 0)
(63.8971 0.00034596 0)
(63.897 0.000279446 0)
(63.897 0.000252432 0)
(63.897 0.000302903 0)
(63.8971 0.000374821 0)
(63.8971 0.000382335 0)
(63.8972 0.000346428 0)
(63.8973 0.0003182 0)
(63.8974 0.000280189 0)
(63.8974 0.000232808 0)
(63.8974 0.000203501 0)
(63.8973 0.000185731 0)
(63.8973 0.000175944 0)
(63.8974 0.000194017 0)
(63.8976 0.000255588 0)
(63.8978 0.000344278 0)
(63.8978 0.000388379 0)
(63.8978 0.000349154 0)
(63.8977 0.00028881 0)
(63.8977 0.00025327 0)
(63.8978 0.000225398 0)
(63.8978 0.000218438 0)
(63.8978 0.000262045 0)
(63.8978 0.000322304 0)
(63.8979 0.000343092 0)
(63.8979 0.000329192 0)
(63.8979 0.000332047 0)
(63.898 0.000366465 0)
(63.8979 0.000383547 0)
(63.8978 0.000360907 0)
(63.8979 0.000326141 0)
(63.8979 0.000290883 0)
(63.898 0.000279558 0)
(63.8981 0.000311338 0)
(63.8981 0.000347052 0)
(63.8981 0.000368015 0)
(63.8981 0.000383971 0)
(63.898 0.000387112 0)
(63.8981 0.000388088 0)
(63.8982 0.000394408 0)
(63.8982 0.000376968 0)
(63.8982 0.000327991 0)
(63.8981 0.000279926 0)
(63.8981 0.000265751 0)
(63.8981 0.000300846 0)
(63.8982 0.000354023 0)
(63.8982 0.000384136 0)
(63.8983 0.000401983 0)
(63.8984 0.000410849 0)
(63.8984 0.00038898 0)
(63.8984 0.000344815 0)
(63.8984 0.000310789 0)
(63.8985 0.000311403 0)
(63.8985 0.00034173 0)
(63.8985 0.000367535 0)
(63.8985 0.000357347 0)
(63.8985 0.000334342 0)
(63.8986 0.000326128 0)
(63.8987 0.000301617 0)
(63.8987 0.000275404 0)
(63.8987 0.000307215 0)
(63.8987 0.000365607 0)
(63.8986 0.000373984 0)
(63.8987 0.000338654 0)
(63.8988 0.000312031 0)
(63.8988 0.000284072 0)
(63.8989 0.000227719 0)
(63.8989 0.000165798 0)
(63.8989 0.000129988 0)
(63.899 0.000129678 0)
(63.8991 0.000158029 0)
(63.8991 0.000211969 0)
(63.8992 0.000274818 0)
(63.8993 0.000320659 0)
(63.8993 0.000342554 0)
(63.8994 0.000337293 0)
(63.8994 0.000321172 0)
(63.8994 0.000319314 0)
(63.8994 0.000319305 0)
(63.8995 0.000303484 0)
(63.8994 0.00026495 0)
(63.8995 0.00024788 0)
(50.5473 7.10194e-06 0)
(85.4615 6.58851e-05 0)
(73.2918 0.000122419 0)
(60.6456 0.000161654 0)
(59.9012 0.000160053 0)
(63.3611 9.99124e-05 0)
(64.8715 7.75018e-05 0)
(64.4208 0.000137564 0)
(63.8044 0.00019934 0)
(63.7025 0.00022487 0)
(63.8457 0.000224538 0)
(63.9307 0.000189786 0)
(63.9209 0.00014233 0)
(63.8921 0.000122811 0)
(63.8839 0.000130105 0)
(63.8894 0.000132166 0)
(63.8939 0.000120723 0)
(63.894 0.000121364 0)
(63.8927 0.000116382 0)
(63.8922 9.27827e-05 0)
(63.8924 9.40678e-05 0)
(63.8926 0.000126577 0)
(63.8926 0.000154697 0)
(63.8927 0.000148115 0)
(63.8927 0.000109551 0)
(63.8927 0.000103383 0)
(63.8927 0.000182186 0)
(63.8927 0.00027085 0)
(63.8928 0.000285012 0)
(63.8929 0.000251178 0)
(63.8929 0.000209442 0)
(63.8929 0.000179178 0)
(63.8931 0.000156905 0)
(63.8931 0.000137757 0)
(63.8931 0.000129323 0)
(63.8931 0.000126264 0)
(63.8932 0.000118028 0)
(63.8932 0.000109933 0)
(63.8932 0.000112318 0)
(63.8932 0.000112148 0)
(63.8932 0.000113306 0)
(63.8932 0.000123254 0)
(63.8934 0.000135791 0)
(63.8934 0.000149764 0)
(63.8933 0.00015632 0)
(63.8935 0.000160085 0)
(63.8934 0.000172179 0)
(63.8934 0.00020205 0)
(63.8935 0.000245066 0)
(63.8935 0.000266514 0)
(63.8935 0.000242025 0)
(63.8936 0.000188042 0)
(63.8936 0.000136169 0)
(63.8936 9.51756e-05 0)
(63.8936 7.07965e-05 0)
(63.8935 6.39086e-05 0)
(63.8935 5.6596e-05 0)
(63.8937 6.18312e-05 0)
(63.8937 0.000103596 0)
(63.8937 0.000158756 0)
(63.8937 0.000194628 0)
(63.8938 0.000201779 0)
(63.8938 0.000182749 0)
(63.8939 0.000174985 0)
(63.8939 0.000195335 0)
(63.8939 0.000187183 0)
(63.8939 0.000139128 0)
(63.8939 0.000114467 0)
(63.894 0.000134327 0)
(63.8941 0.000164945 0)
(63.8941 0.000183189 0)
(63.894 0.000183041 0)
(63.894 0.000165253 0)
(63.8942 0.000155953 0)
(63.8942 0.000173379 0)
(63.8941 0.000187103 0)
(63.8942 0.000170819 0)
(63.8942 0.000147197 0)
(63.8941 0.00014256 0)
(63.8943 0.000150544 0)
(63.8943 0.000156094 0)
(63.8944 0.000141683 0)
(63.8944 0.000116515 0)
(63.8944 0.000125618 0)
(63.8944 0.000156193 0)
(63.8945 0.000165097 0)
(63.8945 0.000167005 0)
(63.8945 0.000183546 0)
(63.8946 0.000204495 0)
(63.8946 0.000206432 0)
(63.8946 0.000197776 0)
(63.8947 0.000217716 0)
(63.8947 0.000253706 0)
(63.8948 0.00025739 0)
(63.8948 0.00023294 0)
(63.8948 0.000224655 0)
(63.8947 0.000226504 0)
(63.8947 0.000203851 0)
(63.8947 0.000182687 0)
(63.8948 0.000183487 0)
(63.8948 0.000171579 0)
(63.8948 0.000147697 0)
(63.8949 0.000143585 0)
(63.8949 0.000147998 0)
(63.8949 0.00014404 0)
(63.895 0.000148176 0)
(63.895 0.00015434 0)
(63.895 0.000146765 0)
(63.8951 0.00014033 0)
(63.8952 0.00013623 0)
(63.8953 0.000140607 0)
(63.8953 0.000167247 0)
(63.8952 0.000182094 0)
(63.8952 0.000178835 0)
(63.8953 0.000195501 0)
(63.8953 0.000216308 0)
(63.8954 0.000209126 0)
(63.8956 0.000190468 0)
(63.8956 0.000181393 0)
(63.8956 0.000168791 0)
(63.8956 0.000141733 0)
(63.8956 0.000132014 0)
(63.8956 0.000156343 0)
(63.8957 0.00018161 0)
(63.8957 0.00018774 0)
(63.8957 0.000181257 0)
(63.8958 0.000171834 0)
(63.8958 0.000166128 0)
(63.8958 0.000159918 0)
(63.8959 0.000158158 0)
(63.8959 0.000164513 0)
(63.8959 0.000149828 0)
(63.8958 0.000124974 0)
(63.8959 0.000143937 0)
(63.896 0.000187371 0)
(63.896 0.000208815 0)
(63.896 0.000217664 0)
(63.896 0.000223219 0)
(63.8961 0.000219968 0)
(63.8961 0.000214163 0)
(63.8961 0.000210112 0)
(63.8961 0.000195215 0)
(63.8962 0.00016103 0)
(63.8962 0.000130494 0)
(63.8962 0.00013183 0)
(63.8962 0.00014756 0)
(63.8962 0.000145735 0)
(63.8963 0.000147417 0)
(63.8963 0.000170337 0)
(63.8963 0.000190839 0)
(63.8964 0.000196963 0)
(63.8964 0.000186242 0)
(63.8964 0.000170466 0)
(63.8965 0.000162408 0)
(63.8965 0.000156747 0)
(63.8965 0.000160405 0)
(63.8966 0.000166323 0)
(63.8966 0.000161 0)
(63.8966 0.000162392 0)
(63.8966 0.000193781 0)
(63.8967 0.000248917 0)
(63.8967 0.00028836 0)
(63.8967 0.000293995 0)
(63.8966 0.000281896 0)
(63.8966 0.000268142 0)
(63.8967 0.000269511 0)
(63.8967 0.000286551 0)
(63.8967 0.000303347 0)
(63.8968 0.00030469 0)
(63.8968 0.000276572 0)
(63.8968 0.00022388 0)
(63.8968 0.000177735 0)
(63.8968 0.000157407 0)
(63.8969 0.000137599 0)
(63.8969 0.000105329 0)
(63.8969 9.31254e-05 0)
(63.897 0.000105525 0)
(63.8971 0.000120874 0)
(63.8972 0.000137901 0)
(63.8973 0.000142113 0)
(63.8973 0.000109001 0)
(63.8973 5.83102e-05 0)
(63.8972 3.84422e-05 0)
(63.8973 7.01607e-05 0)
(63.8974 0.0001193 0)
(63.8975 0.000143374 0)
(63.8976 0.000151976 0)
(63.8976 0.000160748 0)
(63.8977 0.000157068 0)
(63.8977 0.000150288 0)
(63.8977 0.000160376 0)
(63.8978 0.000176339 0)
(63.8978 0.000181647 0)
(63.8978 0.000175972 0)
(63.8978 0.000177281 0)
(63.8979 0.000215802 0)
(63.8979 0.00027044 0)
(63.898 0.000281236 0)
(63.898 0.000247501 0)
(63.898 0.000206024 0)
(63.898 0.000178762 0)
(63.898 0.000170553 0)
(63.898 0.000174422 0)
(63.8981 0.000202215 0)
(63.8981 0.000242641 0)
(63.8981 0.000256474 0)
(63.8981 0.000258321 0)
(63.8981 0.000278471 0)
(63.8982 0.000308923 0)
(63.8983 0.000330888 0)
(63.8983 0.000330836 0)
(63.8983 0.000308317 0)
(63.8982 0.000274332 0)
(63.8982 0.000231061 0)
(63.8983 0.000184441 0)
(63.8983 0.000168073 0)
(63.8983 0.000196291 0)
(63.8984 0.00023496 0)
(63.8984 0.000253361 0)
(63.8984 0.000257159 0)
(63.8984 0.000256081 0)
(63.8984 0.000237959 0)
(63.8985 0.000211503 0)
(63.8986 0.000185329 0)
(63.8986 0.000147328 0)