/*--------------------------------*- C++ -*----------------------------------*\
| =========                 |                                                 |
| \\      /  F ield         | OpenFOAM: The Open Source CFD Toolbox           |
|  \\    /   O peration     | Version:  2406                                  |
|   \\  /    A nd           | Website:  www.openfoam.com                      |
|    \\/     M anipulation  |                                                 |
\*---------------------------------------------------------------------------*/
FoamFile
{
    version     2.0;
    format      ascii;
    arch        "LSB;label=32;scalar=64";
    class       surfaceScalarField;
    location    "0.1";
    object      phi;
}
// * * * * * * * * * * * * * * * * * * * * * * * * * * * * * * * * * * * * * //

dimensions      [0 3 -1 0 0 0 0];

oriented        oriented;

internalField   nonuniform List<scalar> 
1192
(
4.00117e-06
-2.83647e-08
4.02333e-06
-2.21649e-08
4.042e-06
-1.86614e-08
4.05723e-06
-1.52339e-08
4.06841e-06
-1.11789e-08
4.07565e-06
-7.23595e-09
4.07969e-06
-4.04415e-09
4.08155e-06
-1.85842e-09
4.08215e-06
-6.02872e-10
4.08217e-06
-1.69227e-11
4.08196e-06
2.05492e-10
4.08174e-06
2.23913e-10
4.08157e-06
1.7687e-10
4.08146e-06
1.0447e-10
4.08144e-06
1.986e-11
4.0815e-06
-6.37377e-11
4.08162e-06
-1.19888e-10
4.08174e-06
-1.18836e-10
4.08179e-06
-5.6594e-11
4.08176e-06
3.11151e-11
4.08168e-06
8.88334e-11
4.08159e-06
8.16014e-11
4.08157e-06
2.15034e-11
4.08161e-06
-4.15547e-11
4.08167e-06
-5.63072e-11
4.08168e-06
-6.39938e-12
4.0816e-06
8.00204e-11
4.08145e-06
1.49414e-10
4.08129e-06
1.58151e-10
4.08119e-06
9.72851e-11
4.08119e-06
-4.38766e-12
4.08129e-06
-9.80682e-11
4.08143e-06
-1.41931e-10
4.08155e-06
-1.20529e-10
4.0816e-06
-4.94235e-11
4.08157e-06
3.5417e-11
4.08147e-06
9.55314e-11
4.08136e-06
1.06762e-10
4.0813e-06
6.73905e-11
4.0813e-06
-3.4955e-12
4.08138e-06
-7.46916e-11
4.08149e-06
-1.15779e-10
4.0816e-06
-1.07866e-10
4.08165e-06
-5.10509e-11
4.08162e-06
3.46523e-11
4.0815e-06
1.15062e-10
4.08135e-06
1.5441e-10
4.08122e-06
1.30077e-10
4.08117e-06
4.43412e-11
4.08125e-06
-7.30662e-11
4.08142e-06
-1.7408e-10
4.08164e-06
-2.12606e-10
4.0818e-06
-1.67433e-10
4.08186e-06
-5.64344e-11
4.08179e-06
6.85694e-11
4.08164e-06
1.47022e-10
4.0815e-06
1.43163e-10
4.08143e-06
6.76566e-11
4.08146e-06
-2.8169e-11
4.08154e-06
-8.41776e-11
4.08161e-06
-6.94381e-11
4.08161e-06
-9.30267e-14
4.08154e-06
7.67635e-11
4.08142e-06
1.17618e-10
4.08131e-06
1.12074e-10
4.08123e-06
8.35679e-11
4.08116e-06
6.88223e-11
4.08106e-06
9.34229e-11
4.0809e-06
1.55622e-10
4.08069e-06
2.1645e-10
4.0805e-06
1.87201e-10
4.08064e-06
-1.36871e-10
4.08159e-06
-9.49062e-10
4.08419e-06
-2.60658e-09
4.08953e-06
-5.33566e-09
4.09864e-06
-9.10933e-09
4.11211e-06
-1.34663e-08
4.12974e-06
-1.76322e-08
4.1516e-06
-2.18608e-08
-2.84849e-08
9.44091e-06
-4.98215e-08
9.46318e-06
-4.44404e-08
9.48552e-06
-4.10084e-08
9.50516e-06
-3.48652e-08
9.52041e-06
-2.64318e-08
9.53101e-06
-1.78381e-08
9.5376e-06
-1.0633e-08
9.54123e-06
-5.48518e-09
9.54295e-06
-2.32618e-09
9.5436e-06
-6.63448e-10
9.54373e-06
6.99745e-11
9.54365e-06
3.06006e-10
9.54353e-06
3.02332e-10
9.54346e-06
1.79679e-10
9.54349e-06
-1.09595e-11
9.54363e-06
-2.10038e-10
9.54385e-06
-3.38727e-10
9.54405e-06
-3.20939e-10
9.54415e-06
-1.53111e-10
9.54411e-06
7.34502e-11
9.54397e-06
2.22929e-10
9.54384e-06
2.09974e-10
9.5438e-06
6.37286e-11
9.54385e-06
-9.18894e-11
9.54392e-06
-1.26993e-10
9.54391e-06
3.34249e-12
9.54376e-06
2.29692e-10
9.54349e-06
4.16216e-10
9.5432e-06
4.4656e-10
9.54301e-06
2.91636e-10
9.54298e-06
2.12847e-11
9.54312e-06
-2.39423e-10
9.54336e-06
-3.76618e-10
9.54358e-06
-3.42153e-10
9.5437e-06
-1.68505e-10
9.54368e-06
5.46806e-11
9.54355e-06
2.25924e-10
9.54338e-06
2.75855e-10
9.54325e-06
1.9187e-10
9.54323e-06
1.74686e-11
9.54333e-06
-1.69191e-10
9.5435e-06
-2.86394e-10
9.54367e-06
-2.80031e-10
9.54377e-06
-1.44516e-10
9.54373e-06
7.20616e-11
9.54356e-06
2.82209e-10
9.54332e-06
3.90869e-10
9.54312e-06
3.35342e-10
9.54305e-06
1.17374e-10
9.54317e-06
-1.88112e-10
9.54345e-06
-4.56471e-10
9.5438e-06
-5.65613e-10
9.54409e-06
-4.56976e-10
9.54421e-06
-1.73403e-10
9.54412e-06
1.5294e-10
9.5439e-06
3.65399e-10
9.54368e-06
3.6935e-10
9.54356e-06
1.88661e-10
9.54358e-06
-4.80973e-11
9.54368e-06
-1.88145e-10
9.54376e-06
-1.51025e-10
9.54374e-06
2.52289e-11
9.54359e-06
2.20933e-10
9.54339e-06
3.2419e-10
9.5432e-06
3.04478e-10
9.54307e-06
2.17822e-10
9.54298e-06
1.51665e-10
9.54291e-06
1.59135e-10
9.54284e-06
2.19691e-10
9.54283e-06
2.20827e-10
9.54308e-06
-7.01705e-11
9.54397e-06
-1.02848e-09
9.54623e-06
-3.20448e-09
9.55084e-06
-7.22017e-09
9.559e-06
-1.34925e-08
9.57171e-06
-2.18295e-08
9.5893e-06
-3.1054e-08
9.61064e-06
-3.8966e-08
9.633e-06
-4.42198e-08
-5.02556e-08
1.28624e-05
-3.88081e-08
1.28545e-05
-3.65764e-08
1.28485e-05
-3.49939e-08
1.2844e-05
-3.03154e-08
1.28409e-05
-2.33541e-08
1.28392e-05
-1.60955e-08
1.28384e-05
-9.91401e-09
1.28384e-05
-5.40826e-09
1.28386e-05
-2.54665e-09
1.28389e-05
-9.49703e-10
1.28391e-05
-1.68619e-10
1.28393e-05
1.48551e-10
1.28394e-05
2.01697e-10
1.28395e-05
8.55084e-11
1.28396e-05
-1.41986e-10
1.28398e-05
-3.93925e-10
1.284e-05
-5.45557e-10
1.28402e-05
-4.90573e-10
1.28403e-05
-2.277e-10
1.28402e-05
1.10303e-10
1.28401e-05
3.29937e-10
1.284e-05
3.10612e-10
1.284e-05
9.56704e-11
1.284e-05
-1.34017e-10
1.28401e-05
-1.86413e-10
1.28401e-05
8.98246e-12
1.28399e-05
3.54531e-10
1.28397e-05
6.49662e-10
1.28394e-05
7.15736e-10
1.28392e-05
4.98465e-10
1.28392e-05
9.13304e-11
1.28392e-05
-3.22538e-10
1.28394e-05
-5.67212e-10
1.28397e-05
-5.56617e-10
1.28398e-05
-3.23532e-10
1.28399e-05
8.44794e-12
1.28398e-05
2.88421e-10
1.28397e-05
4.03371e-10
1.28395e-05
3.19267e-10
1.28395e-05
8.60007e-11
1.28395e-05
-1.88815e-10
1.28396e-05
-3.83351e-10
1.28397e-05
-4.08368e-10
1.28398e-05
-2.42203e-10
1.28398e-05
5.64871e-11
1.28397e-05
3.65317e-10
1.28396e-05
5.42676e-10
1.28394e-05
4.87447e-10
1.28394e-05
1.90123e-10
1.28394e-05
-2.49002e-10
1.28396e-05
-6.50169e-10
1.28399e-05
-8.29698e-10
1.28401e-05
-6.92041e-10
1.28402e-05
-2.90332e-10
1.28402e-05
1.86751e-10
1.28401e-05
5.0847e-10
1.28399e-05
5.30949e-10
1.28398e-05
2.83648e-10
1.28398e-05
-4.84729e-11
1.28399e-05
-2.43225e-10
1.28399e-05
-1.83981e-10
1.28398e-05
7.2316e-11
1.28397e-05
3.49536e-10
1.28396e-05
4.84082e-10
1.28394e-05
4.31698e-10
1.28394e-05
2.73441e-10
1.28394e-05
1.32765e-10
1.28395e-05
8.07155e-11
1.28396e-05
9.15467e-11
1.28398e-05
4.42491e-11
1.284e-05
-2.69922e-10
1.28401e-05
-1.17469e-09
1.28401e-05
-3.13042e-09
1.28395e-05
-6.66128e-09
1.28381e-05
-1.21224e-08
1.28356e-05
-1.93314e-08
1.28318e-05
-2.72158e-08
1.28265e-05
-3.36919e-08
1.28194e-05
-3.70747e-08
-3.98753e-08
1.45352e-05
-3.00538e-10
1.44989e-05
-1.99916e-10
1.44639e-05
-6.84094e-11
1.44336e-05
1.25288e-11
1.44103e-05
-8.93954e-12
1.43943e-05
-1.2162e-10
1.43847e-05
-2.68561e-10
1.43796e-05
-3.81267e-10
1.43775e-05
-4.04294e-10
1.43769e-05
-3.30644e-10
1.43769e-05
-2.00575e-10
1.43771e-05
-8.00962e-11
1.43774e-05
-3.75183e-11
1.43776e-05
-1.16615e-10
1.43777e-05
-3.08774e-10
1.43779e-05
-5.31351e-10
1.4378e-05
-6.49323e-10
1.4378e-05
-5.51085e-10
1.43781e-05
-2.40093e-10
1.4378e-05
1.37716e-10
1.4378e-05
3.74719e-10
1.43779e-05
3.44287e-10
1.43779e-05
9.76064e-11
1.4378e-05
-1.64567e-10
1.4378e-05
-2.27838e-10
1.4378e-05
-9.37386e-12
1.4378e-05
3.87755e-10
1.43779e-05
7.41328e-10
1.43778e-05
8.45336e-10
1.43777e-05
6.25642e-10
1.43776e-05
1.72841e-10
1.43776e-05
-3.1435e-10
1.43776e-05
-6.33456e-10
1.43778e-05
-6.71811e-10
1.43779e-05
-4.46277e-10
1.4378e-05
-8.04914e-11
1.4378e-05
2.59769e-10
1.4378e-05
4.38387e-10
1.43779e-05
3.98615e-10
1.43778e-05
1.75995e-10
1.43777e-05
-1.23023e-10
1.43777e-05
-3.64827e-10
1.43777e-05
-4.40016e-10
1.43778e-05
-3.0649e-10
1.43779e-05
-1.04422e-11
1.43779e-05
3.24907e-10
1.43779e-05
5.4393e-10
1.43779e-05
5.24317e-10
1.43778e-05
2.38077e-10
1.43778e-05
-2.20865e-10
1.43778e-05
-6.62943e-10
1.43779e-05
-8.82876e-10
1.43779e-05
-7.63305e-10
1.4378e-05
-3.48203e-10
1.4378e-05
1.64297e-10
1.4378e-05
5.2132e-10
1.4378e-05
5.59328e-10
1.43779e-05
3.04424e-10
1.43779e-05
-4.36438e-11
1.43779e-05
-2.42389e-10
1.43779e-05
-1.66786e-10
1.43779e-05
1.15291e-10
1.43778e-05
4.0592e-10
1.43778e-05
5.25495e-10
1.43778e-05
4.29402e-10
1.43778e-05
2.10292e-10
1.4378e-05
3.61679e-12
1.43782e-05
-1.10766e-10
1.43784e-05
-1.3624e-10
1.43786e-05
-1.15e-10
1.43784e-05
-6.80593e-11
1.43772e-05
1.96474e-11
1.43739e-05
1.5948e-10
1.43669e-05
2.99455e-10
1.43545e-05
3.17887e-10
1.4335e-05
8.78394e-11
1.43082e-05
-4.13934e-10
1.42756e-05
-1.05884e-09
1.42402e-05
-1.6392e-09
-2.02511e-09
1.4536e-05
3.82645e-08
1.44996e-05
3.62305e-08
1.44647e-05
3.4883e-08
1.44343e-05
3.03506e-08
1.4411e-05
2.33501e-08
1.4395e-05
1.58915e-08
1.43852e-05
9.44625e-09
1.43801e-05
4.74128e-09
1.43779e-05
1.84068e-09
1.43772e-05
3.76062e-10
1.43771e-05
-1.74221e-10
1.43773e-05
-2.75209e-10
1.43775e-05
-2.50423e-10
1.43777e-05
-2.73794e-10
1.43778e-05
-3.88027e-10
1.43778e-05
-5.33025e-10
1.43777e-05
-5.93462e-10
1.43776e-05
-4.75939e-10
1.43776e-05
-1.87547e-10
1.43776e-05
1.44151e-10
1.43776e-05
3.4223e-10
1.43777e-05
3.01848e-10
1.43777e-05
7.18717e-11
1.43777e-05
-1.69931e-10
1.43777e-05
-2.33554e-10
1.43777e-05
-4.24989e-11
1.43778e-05
3.16843e-10
1.43779e-05
6.49867e-10
1.4378e-05
7.69632e-10
1.4378e-05
5.99562e-10
1.4378e-05
2.07524e-10
1.43779e-05
-2.37432e-10
1.43778e-05
-5.53129e-10
1.43778e-05
-6.27475e-10
1.43778e-05
-4.58846e-10
1.43778e-05
-1.4316e-10
1.43779e-05
1.77362e-10
1.4378e-05
3.75818e-10
1.4378e-05
3.8697e-10
1.43779e-05
2.24598e-10
1.43778e-05
-3.05399e-11
1.43777e-05
-2.64085e-10
1.43777e-05
-3.72182e-10
1.43777e-05
-3.0209e-10
1.43777e-05
-7.66743e-11
1.43779e-05
2.08737e-10
1.4378e-05
4.20563e-10
1.43781e-05
4.43304e-10
1.43781e-05
2.36428e-10
1.4378e-05
-1.34703e-10
1.43778e-05
-5.14621e-10
1.43777e-05
-7.23529e-10
1.43776e-05
-6.48911e-10
1.43775e-05
-3.15543e-10
1.43776e-05
1.13741e-10
1.43777e-05
4.20916e-10
1.43778e-05
4.59808e-10
1.43778e-05
2.48176e-10
1.43778e-05
-4.261e-11
1.43778e-05
-2.02489e-10
1.43777e-05
-1.25683e-10
1.43777e-05
1.22389e-10
1.43778e-05
3.63584e-10
1.43779e-05
4.41198e-10
1.4378e-05
3.21514e-10
1.43781e-05
9.03868e-11
1.43782e-05
-1.3485e-10
1.43784e-05
-2.83262e-10
1.43786e-05
-3.35526e-10
1.43787e-05
-2.46845e-10
1.43785e-05
1.54223e-10
1.43773e-05
1.21274e-09
1.43741e-05
3.41502e-09
1.43672e-05
7.19634e-09
1.43548e-05
1.26962e-08
1.43354e-05
1.95049e-08
1.43085e-05
2.65023e-08
1.42756e-05
3.18299e-08
1.42398e-05
3.41519e-08
3.62379e-08
1.28643e-05
4.94535e-08
1.28563e-05
4.42102e-08
1.28503e-05
4.09499e-08
1.28457e-05
3.49101e-08
1.28426e-05
2.64486e-08
1.28408e-05
1.77201e-08
1.28399e-05
1.03435e-08
1.28395e-05
5.06883e-09
1.28395e-05
1.8834e-09
1.28396e-05
3.08137e-10
1.28397e-05
-2.66792e-10
1.28398e-05
-3.54222e-10
1.28398e-05
-2.96101e-10
1.28398e-05
-2.64421e-10
1.28397e-05
-3.02697e-10
1.28395e-05
-3.70352e-10
1.28393e-05
-3.88981e-10
1.28392e-05
-2.9739e-10
1.28391e-05
-1.01543e-10
1.28391e-05
1.14785e-10
1.28392e-05
2.37185e-10
1.28393e-05
1.9946e-10
1.28393e-05
3.62171e-11
1.28393e-05
-1.33665e-10
1.28393e-05
-1.83142e-10
1.28393e-05
-5.94656e-11
1.28394e-05
1.82496e-10
1.28397e-05
4.14565e-10
1.28399e-05
5.10393e-10
1.28401e-05
4.13495e-10
1.28401e-05
1.62161e-10
1.284e-05
-1.35818e-10
1.28398e-05
-3.59069e-10
1.28396e-05
-4.27664e-10
1.28395e-05
-3.3217e-10
1.28395e-05
-1.28676e-10
1.28396e-05
9.18949e-11
1.28397e-05
2.43081e-10
1.28398e-05
2.74397e-10
1.28399e-05
1.85581e-10
1.28398e-05
2.23627e-11
1.28397e-05
-1.42465e-10
1.28396e-05
-2.3684e-10
1.28395e-05
-2.17512e-10
1.28395e-05
-8.93014e-11
1.28396e-05
9.29807e-11
1.28398e-05
2.43855e-10
1.28399e-05
2.83005e-10
1.284e-05
1.74454e-10
1.28399e-05
-4.92706e-11
1.28397e-05
-2.92756e-10
1.28394e-05
-4.38446e-10
1.28392e-05
-4.06776e-10
1.28391e-05
-2.05927e-10
1.28391e-05
6.3315e-11
1.28393e-05
2.5948e-10
1.28394e-05
2.84674e-10
1.28395e-05
1.48041e-10
1.28395e-05
-3.86839e-11
1.28395e-05
-1.3728e-10
1.28394e-05
-7.97332e-11
1.28395e-05
8.64512e-11
1.28396e-05
2.3926e-10
1.28398e-05
2.75172e-10
1.28399e-05
1.76228e-10
1.284e-05
2.58625e-12
1.284e-05
-1.71766e-10
1.28401e-05
-3.06482e-10
1.28401e-05
-3.87084e-10
1.28402e-05
-3.54841e-10
1.28404e-05
-1.76423e-13
1.28405e-05
1.05095e-09
1.28406e-05
3.38779e-09
1.28402e-05
7.5818e-09
1.2839e-05
1.39019e-08
1.28365e-05
2.1989e-08
1.28324e-05
3.0631e-08
1.28264e-05
3.77719e-08
1.28183e-05
4.2259e-08
4.76926e-08
9.44283e-06
2.8206e-08
9.46497e-06
2.2075e-08
9.48727e-06
1.86531e-08
9.50691e-06
1.52633e-08
9.52216e-06
1.12036e-08
9.53267e-06
7.20731e-09
9.53907e-06
3.94959e-09
9.54242e-06
1.71831e-09
9.54385e-06
4.58277e-10
9.54426e-06
-1.11524e-10
9.54425e-06
-2.55795e-10
9.54411e-06
-2.20236e-10
9.54397e-06
-1.51822e-10
9.54381e-06
-1.13049e-10
9.54362e-06
-1.13982e-10
9.54338e-06
-1.33078e-10
9.54312e-06
-1.37132e-10
9.54293e-06
-1.01542e-10
9.54285e-06
-2.8005e-11
9.54291e-06
5.2014e-11
9.54306e-06
9.52054e-11
9.54318e-06
7.65222e-11
9.54321e-06
9.43246e-12
9.54314e-06
-6.01568e-11
9.54304e-06
-8.29373e-11
9.54302e-06
-3.79932e-11
9.54315e-06
5.46401e-11
9.54342e-06
1.45975e-10
9.54375e-06
1.87502e-10
9.544e-06
1.56294e-10
9.5441e-06
6.51836e-11
9.54401e-06
-4.62356e-11
9.54379e-06
-1.32228e-10
9.54352e-06
-1.61637e-10
9.54331e-06
-1.29174e-10
9.54324e-06
-5.42206e-11
9.5433e-06
3.0081e-11
9.54345e-06
9.0934e-11
9.54361e-06
1.07982e-10
9.54372e-06
7.8912e-11
9.54372e-06
1.88634e-11
9.54363e-06
-4.58342e-11
9.54348e-06
-8.734e-11
9.54335e-06
-8.72548e-11
9.54331e-06
-4.44728e-11
9.54338e-06
2.2763e-11
9.54354e-06
8.33432e-11
9.54372e-06
1.05687e-10
9.54382e-06
7.35101e-11
9.54378e-06
-4.43252e-12
9.54358e-06
-9.40874e-11
9.54329e-06
-1.51562e-10
9.54302e-06
-1.44789e-10
9.54289e-06
-7.42549e-11
9.54292e-06
2.37228e-11
9.54309e-06
9.5635e-11
9.54327e-06
1.03457e-10
9.54337e-06
4.99272e-11
9.54335e-06
-2.21227e-11
9.54327e-06
-5.89475e-11
9.54323e-06
-3.47422e-11
9.54329e-06
3.09028e-11
9.54344e-06
8.83534e-11
9.54362e-06
9.80846e-11
9.54374e-06
5.55093e-11
9.54375e-06
-1.47825e-11
9.54367e-06
-8.7143e-11
9.54352e-06
-1.53654e-10
9.54335e-06
-2.17065e-10
9.54325e-06
-2.61588e-10
9.54347e-06
-2.13658e-10
9.54437e-06
1.42316e-10
9.54674e-06
1.01356e-09
9.55158e-06
2.74858e-09
9.55997e-06
5.51087e-09
9.57275e-06
9.20174e-09
9.59004e-06
1.33483e-08
9.6106e-06
1.72064e-08
9.63178e-06
2.10811e-08
2.7336e-08
4.00198e-06
4.02406e-06
4.04271e-06
4.05798e-06
4.06917e-06
4.07638e-06
4.08034e-06
4.08206e-06
4.08251e-06
4.0824e-06
4.08215e-06
4.08192e-06
4.08177e-06
4.08166e-06
4.08154e-06
4.08141e-06
4.08127e-06
4.08117e-06
4.08114e-06
4.08119e-06
4.08129e-06
4.08136e-06
4.08138e-06
4.08132e-06
4.08124e-06
4.0812e-06
4.08125e-06
4.0814e-06
4.08159e-06
4.08175e-06
4.08181e-06
4.08176e-06
4.08163e-06
4.08147e-06
4.08134e-06
4.08128e-06
4.08131e-06
4.0814e-06
4.08151e-06
4.08159e-06
4.08161e-06
4.08156e-06
4.08148e-06
4.08139e-06
4.08135e-06
4.08137e-06
4.08145e-06
4.08156e-06
4.08163e-06
4.08163e-06
4.08153e-06
4.08138e-06
4.08123e-06
4.08116e-06
4.08118e-06
4.08128e-06
4.08138e-06
4.08143e-06
4.08141e-06
4.08135e-06
4.08132e-06
4.08135e-06
4.08144e-06
4.08154e-06
4.08159e-06
4.08158e-06
4.08149e-06
4.08133e-06
4.08112e-06
4.08085e-06
4.08064e-06
4.08078e-06
4.0818e-06
4.08454e-06
4.09005e-06
4.09926e-06
4.1126e-06
4.12981e-06
4.15089e-06
)
;

boundaryField
{
    inlet
    {
        type            calculated;
        value           nonuniform List<scalar> 8(-3.97281e-06 -9.41945e-06 -1.28734e-05 -1.45737e-05 -1.45746e-05 -1.28755e-05 -9.42158e-06 -3.97378e-06);
    }
    outlet
    {
        type            calculated;
        value           nonuniform List<scalar> 8(4.18008e-06 9.65477e-06 1.2809e-05 1.42023e-05 1.42015e-05 1.28069e-05 9.65213e-06 4.17823e-06);
    }
    walls
    {
        type            calculated;
        value           uniform 0;
    }
    frontAndBack
    {
        type            empty;
    }
}


// ************************************************************************* //
