/*--------------------------------*- C++ -*----------------------------------*\
| =========                 |                                                 |
| \\      /  F ield         | OpenFOAM: The Open Source CFD Toolbox           |
|  \\    /   O peration     | Version:  2406                                  |
|   \\  /    A nd           | Website:  www.openfoam.com                      |
|    \\/     M anipulation  |                                                 |
\*---------------------------------------------------------------------------*/
FoamFile
{
    version     2.0;
    format      ascii;
    arch        "LSB;label=32;scalar=64";
    class       volVectorField;
    location    "0.1";
    object      U;
}
// * * * * * * * * * * * * * * * * * * * * * * * * * * * * * * * * * * * * * //

dimensions      [0 1 -1 0 0 0 0];

internalField   nonuniform List<vector> 
640
(
(0.0318811 -0.000124875 0)
(0.032083 -9.24207e-05 0)
(0.0322662 -7.37501e-05 0)
(0.0324045 -5.778e-05 0)
(0.0325092 -4.07468e-05 0)
(0.0325821 -2.50298e-05 0)
(0.0326259 -1.27943e-05 0)
(0.032648 -4.80844e-06 0)
(0.0326565 -5.53913e-07 0)
(0.0326581 1.15899e-06 0)
(0.0326568 1.44217e-06 0)
(0.0326549 1.21236e-06 0)
(0.0326532 8.54757e-07 0)
(0.032652 4.97699e-07 0)
(0.0326515 1.50363e-07 0)
(0.0326516 -1.73603e-07 0)
(0.0326524 -3.94323e-07 0)
(0.0326535 -4.04971e-07 0)
(0.0326543 -1.88445e-07 0)
(0.0326544 1.24072e-07 0)
(0.0326538 3.26867e-07 0)
(0.032653 2.90931e-07 0)
(0.0326526 6.24608e-08 0)
(0.0326527 -1.73191e-07 0)
(0.0326532 -2.29632e-07 0)
(0.0326535 -5.07532e-08 0)
(0.0326532 2.55343e-07 0)
(0.0326522 4.95941e-07 0)
(0.0326509 5.1737e-07 0)
(0.0326498 2.95657e-07 0)
(0.0326494 -5.85333e-08 0)
(0.0326498 -3.70633e-07 0)
(0.0326509 -4.96546e-07 0)
(0.032652 -3.92365e-07 0)
(0.0326528 -1.2415e-07 0)
(0.0326528 1.74591e-07 0)
(0.0326522 3.69782e-07 0)
(0.0326513 3.83283e-07 0)
(0.0326505 2.19475e-07 0)
(0.0326503 -4.4954e-08 0)
(0.0326506 -2.97097e-07 0)
(0.0326514 -4.30423e-07 0)
(0.0326524 -3.84299e-07 0)
(0.0326531 -1.66376e-07 0)
(0.0326532 1.46378e-07 0)
(0.0326526 4.30999e-07 0)
(0.0326514 5.62139e-07 0)
(0.0326502 4.64467e-07 0)
(0.0326494 1.51889e-07 0)
(0.0326495 -2.65307e-07 0)
(0.0326506 -6.15793e-07 0)
(0.0326522 -7.3817e-07 0)
(0.0326539 -5.62498e-07 0)
(0.0326548 -1.58709e-07 0)
(0.0326548 2.84058e-07 0)
(0.0326538 5.49457e-07 0)
(0.0326525 5.13713e-07 0)
(0.0326516 2.21591e-07 0)
(0.0326514 -1.36915e-07 0)
(0.032652 -3.43321e-07 0)
(0.0326527 -2.87933e-07 0)
(0.032653 -3.2664e-08 0)
(0.0326527 2.46754e-07 0)
(0.0326519 3.95197e-07 0)
(0.0326509 3.78898e-07 0)
(0.0326501 2.90683e-07 0)
(0.0326495 2.75478e-07 0)
(0.0326489 4.44134e-07 0)
(0.0326479 8.14699e-07 0)
(0.0326463 1.27027e-06 0)
(0.0326444 1.50173e-06 0)
(0.0326435 8.78675e-07 0)
(0.0326466 -1.81885e-06 0)
(0.0326593 -7.83843e-06 0)
(0.0326895 -1.82576e-05 0)
(0.032746 -3.32211e-05 0)
(0.0328348 -5.12524e-05 0)
(0.0329612 -6.99316e-05 0)
(0.0331388 -9.14063e-05 0)
(0.0333423 -0.000125261 0)
(0.0754242 -0.000367982 0)
(0.075599 -0.000309424 0)
(0.0757973 -0.000272732 0)
(0.0759706 -0.000226934 0)
(0.0761105 -0.000169285 0)
(0.0762132 -0.00011199 0)
(0.0762805 -6.47971e-05 0)
(0.0763195 -3.17418e-05 0)
(0.0763393 -1.20471e-05 0)
(0.0763475 -2.17999e-06 0)
(0.07635 1.71187e-06 0)
(0.0763498 2.64337e-06 0)
(0.0763487 2.29605e-06 0)
(0.0763478 1.40314e-06 0)
(0.0763476 2.37539e-07 0)
(0.0763483 -9.51854e-07 0)
(0.0763499 -1.73689e-06 0)
(0.0763517 -1.70358e-06 0)
(0.0763531 -8.16487e-07 0)
(0.0763533 4.18712e-07 0)
(0.0763524 1.23532e-06 0)
(0.0763511 1.15001e-06 0)
(0.0763504 3.26721e-07 0)
(0.0763505 -5.41633e-07 0)
(0.0763512 -7.38467e-07 0)
(0.0763516 -2.83354e-08 0)
(0.076351 1.19289e-06 0)
(0.0763491 2.1757e-06 0)
(0.0763467 2.29739e-06 0)
(0.0763446 1.42635e-06 0)
(0.0763436 -3.12714e-08 0)
(0.0763442 -1.38445e-06 0)
(0.0763459 -2.03166e-06 0)
(0.0763479 -1.74575e-06 0)
(0.0763494 -7.41277e-07 0)
(0.0763497 4.71247e-07 0)
(0.076349 1.34193e-06 0)
(0.0763477 1.51819e-06 0)
(0.0763464 9.68282e-07 0)
(0.0763457 -3.77752e-08 0)
(0.0763461 -1.05692e-06 0)
(0.0763472 -1.64847e-06 0)
(0.0763488 -1.53887e-06 0)
(0.07635 -7.27281e-07 0)
(0.0763502 4.9807e-07 0)
(0.0763493 1.64707e-06 0)
(0.0763476 2.20506e-06 0)
(0.0763456 1.84856e-06 0)
(0.0763444 6.12158e-07 0)
(0.0763445 -1.07432e-06 0)
(0.0763462 -2.52281e-06 0)
(0.076349 -3.07436e-06 0)
(0.0763518 -2.42864e-06 0)
(0.0763536 -8.42533e-07 0)
(0.0763536 9.45784e-07 0)
(0.0763522 2.07708e-06 0)
(0.0763502 2.0443e-06 0)
(0.0763487 9.95829e-07 0)
(0.0763483 -3.47418e-07 0)
(0.076349 -1.13886e-06 0)
(0.0763499 -9.3725e-07 0)
(0.0763502 4.24103e-08 0)
(0.0763495 1.1358e-06 0)
(0.076348 1.72931e-06 0)
(0.0763463 1.66095e-06 0)
(0.076345 1.25017e-06 0)
(0.0763441 9.99892e-07 0)
(0.0763436 1.2353e-06 0)
(0.076343 1.86582e-06 0)
(0.0763424 2.24004e-06 0)
(0.0763429 9.5202e-07 0)
(0.0763465 -4.49115e-06 0)
(0.0763575 -1.79102e-05 0)
(0.0763831 -4.35117e-05 0)
(0.0764322 -8.43035e-05 0)
(0.0765143 -0.000139382 0)
(0.076635 -0.000201501 0)
(0.076795 -0.000257988 0)
(0.0769897 -0.000305536 0)
(0.077171 -0.000368712 0)
(0.102959 -0.000440618 0)
(0.102874 -0.000403292 0)
(0.102806 -0.000377486 0)
(0.102765 -0.000324866 0)
(0.102736 -0.000249521 0)
(0.102717 -0.000171054 0)
(0.102708 -0.000104285 0)
(0.102706 -5.58132e-05 0)
(0.102707 -2.53343e-05 0)
(0.10271 -8.68375e-06 0)
(0.102712 -8.75613e-07 0)
(0.102714 2.003e-06 0)
(0.102715 2.36696e-06 0)
(0.102715 1.36444e-06 0)
(0.102716 -4.3159e-07 0)
(0.102718 -2.3921e-06 0)
(0.102719 -3.62766e-06 0)
(0.102721 -3.37604e-06 0)
(0.102722 -1.60902e-06 0)
(0.102722 7.39486e-07 0)
(0.102721 2.28908e-06 0)
(0.10272 2.17143e-06 0)
(0.10272 6.82441e-07 0)
(0.10272 -9.09801e-07 0)
(0.10272 -1.26574e-06 0)
(0.102721 9.00134e-08 0)
(0.10272 2.45607e-06 0)
(0.102719 4.42853e-06 0)
(0.102717 4.78779e-06 0)
(0.102714 3.20414e-06 0)
(0.102713 3.75384e-07 0)
(0.102713 -2.40335e-06 0)
(0.102715 -3.93448e-06 0)
(0.102716 -3.67939e-06 0)
(0.102718 -1.93642e-06 0)
(0.102719 3.85991e-07 0)
(0.102719 2.23044e-06 0)
(0.102718 2.84968e-06 0)
(0.102717 2.07418e-06 0)
(0.102716 3.20579e-07 0)
(0.102716 -1.61565e-06 0)
(0.102716 -2.88262e-06 0)
(0.102717 -2.89502e-06 0)
(0.102718 -1.56404e-06 0)
(0.102719 6.37945e-07 0)
(0.102718 2.81603e-06 0)
(0.102717 3.97944e-06 0)
(0.102716 3.45793e-06 0)
(0.102715 1.24362e-06 0)
(0.102715 -1.90709e-06 0)
(0.102716 -4.70889e-06 0)
(0.102718 -5.88692e-06 0)
(0.10272 -4.81333e-06 0)
(0.102722 -1.90947e-06 0)
(0.102722 1.47016e-06 0)
(0.102721 3.70388e-06 0)
(0.10272 3.80118e-06 0)
(0.102719 1.99264e-06 0)
(0.102718 -4.06781e-07 0)
(0.102719 -1.82729e-06 0)
(0.102719 -1.44019e-06 0)
(0.102719 3.663e-07 0)
(0.102718 2.36295e-06 0)
(0.102717 3.39886e-06 0)
(0.102716 3.15337e-06 0)
(0.102715 2.18946e-06 0)
(0.102715 1.38103e-06 0)
(0.102715 1.23083e-06 0)
(0.102716 1.48621e-06 0)
(0.102718 1.01705e-06 0)
(0.102719 -2.34933e-06 0)
(0.102721 -1.21441e-05 0)
(0.102722 -3.32686e-05 0)
(0.10272 -7.12475e-05 0)
(0.102713 -0.000129633 0)
(0.102698 -0.000206238 0)
(0.102674 -0.000289628 0)
(0.10264 -0.00035915 0)
(0.10258 -0.000401838 0)
(0.102497 -0.00044496 0)
(0.116486 -0.000199591 0)
(0.116166 -0.000188098 0)
(0.115839 -0.000179536 0)
(0.115573 -0.00015629 0)
(0.11536 -0.000121485 0)
(0.115203 -8.49347e-05 0)
(0.115104 -5.3647e-05 0)
(0.115049 -3.06224e-05 0)
(0.115024 -1.56356e-05 0)
(0.115015 -6.81451e-06 0)
(0.115014 -2.0476e-06 0)
(0.115016 1.96743e-07 0)
(0.115018 7.40553e-07 0)
(0.11502 -6.13377e-08 0)
(0.115021 -1.85561e-06 0)
(0.115023 -3.89537e-06 0)
(0.115024 -5.06682e-06 0)
(0.115024 -4.44137e-06 0)
(0.115025 -2.02262e-06 0)
(0.115024 1.01198e-06 0)
(0.115024 2.96191e-06 0)
(0.115024 2.77459e-06 0)
(0.115023 8.43491e-07 0)
(0.115024 -1.22086e-06 0)
(0.115024 -1.70022e-06 0)
(0.115024 5.34971e-08 0)
(0.115024 3.19063e-06 0)
(0.115024 5.92173e-06 0)
(0.115023 6.62127e-06 0)
(0.115022 4.75095e-06 0)
(0.115021 1.09663e-06 0)
(0.11502 -2.71876e-06 0)
(0.115021 -5.09333e-06 0)
(0.115021 -5.19046e-06 0)
(0.115023 -3.22946e-06 0)
(0.115023 -2.66217e-07 0)
(0.115024 2.35207e-06 0)
(0.115024 3.57243e-06 0)
(0.115023 3.01821e-06 0)
(0.115023 1.06266e-06 0)
(0.115022 -1.37649e-06 0)
(0.115022 -3.21296e-06 0)
(0.115022 -3.6085e-06 0)
(0.115022 -2.3035e-06 0)
(0.115023 2.44502e-07 0)
(0.115023 2.98338e-06 0)
(0.115023 4.64968e-06 0)
(0.115023 4.30108e-06 0)
(0.115023 1.79014e-06 0)
(0.115022 -2.04657e-06 0)
(0.115022 -5.6341e-06 0)
(0.115023 -7.32197e-06 0)
(0.115023 -6.21314e-06 0)
(0.115024 -2.7277e-06 0)
(0.115024 1.48827e-06 0)
(0.115024 4.38184e-06 0)
(0.115024 4.64961e-06 0)
(0.115024 2.52619e-06 0)
(0.115023 -3.59519e-07 0)
(0.115024 -2.03774e-06 0)
(0.115023 -1.47894e-06 0)
(0.115023 7.97209e-07 0)
(0.115023 3.2129e-06 0)
(0.115022 4.31342e-06 0)
(0.115022 3.71423e-06 0)
(0.115022 2.1423e-06 0)
(0.115023 6.88956e-07 0)
(0.115024 -1.69995e-08 0)
(0.115026 -1.36704e-07 0)
(0.115028 -4.50323e-07 0)
(0.115029 -2.12302e-06 0)
(0.115025 -6.74931e-06 0)
(0.11501 -1.65897e-05 0)
(0.114973 -3.44547e-05 0)
(0.114899 -6.24883e-05 0)
(0.114774 -0.000100052 0)
(0.114591 -0.000141557 0)
(0.114351 -0.00017604 0)
(0.114042 -0.000195128 0)
(0.113714 -0.00021056 0)
(0.116492 0.000194706 0)
(0.116172 0.000184887 0)
(0.115845 0.000178438 0)
(0.115579 0.000156486 0)
(0.115365 0.000121349 0)
(0.115209 8.29977e-05 0)
(0.115109 4.9337e-05 0)
(0.115053 2.45034e-05 0)
(0.115027 9.14393e-06 0)
(0.115018 1.48697e-06 0)
(0.115016 -1.19871e-06 0)
(0.115018 -1.50662e-06 0)
(0.11502 -1.35278e-06 0)
(0.115021 -1.80754e-06 0)
(0.115022 -3.08315e-06 0)
(0.115022 -4.60387e-06 0)
(0.115022 -5.32289e-06 0)
(0.115021 -4.38141e-06 0)
(0.115021 -1.82895e-06 0)
(0.115021 1.17973e-06 0)
(0.115021 3.02449e-06 0)
(0.115021 2.73145e-06 0)
(0.115021 7.2334e-07 0)
(0.115021 -1.40267e-06 0)
(0.115021 -1.93763e-06 0)
(0.115022 -2.03901e-07 0)
(0.115022 3.00371e-06 0)
(0.115023 5.92477e-06 0)
(0.115024 6.89224e-06 0)
(0.115024 5.25719e-06 0)
(0.115024 1.67854e-06 0)
(0.115023 -2.2921e-06 0)
(0.115023 -5.02117e-06 0)
(0.115022 -5.543e-06 0)
(0.115022 -3.90531e-06 0)
(0.115022 -1.02564e-06 0)
(0.115023 1.79367e-06 0)
(0.115024 3.43049e-06 0)
(0.115024 3.35282e-06 0)
(0.115024 1.75358e-06 0)
(0.115023 -5.84812e-07 0)
(0.115022 -2.61433e-06 0)
(0.115022 -3.42412e-06 0)
(0.115021 -2.59976e-06 0)
(0.115022 -4.19826e-07 0)
(0.115022 2.19972e-06 0)
(0.115023 4.0362e-06 0)
(0.115024 4.07627e-06 0)
(0.115025 2.01799e-06 0)
(0.115024 -1.47669e-06 0)
(0.115023 -4.95487e-06 0)
(0.115022 -6.78663e-06 0)
(0.115021 -5.99141e-06 0)
(0.11502 -2.84834e-06 0)
(0.11502 1.12585e-06 0)
(0.115021 3.9433e-06 0)
(0.115022 4.29073e-06 0)
(0.115022 2.34528e-06 0)
(0.115023 -3.32803e-07 0)
(0.115022 -1.83596e-06 0)
(0.115022 -1.18989e-06 0)
(0.115022 1.04363e-06 0)
(0.115022 3.27765e-06 0)
(0.115022 4.09246e-06 0)
(0.115023 3.15739e-06 0)
(0.115024 1.22551e-06 0)
(0.115025 -6.26062e-07 0)
(0.115027 -1.74573e-06 0)
(0.115028 -2.02353e-06 0)
(0.11503 -1.3571e-06 0)
(0.11503 1.06935e-06 0)
(0.115026 7.08802e-06 0)
(0.115012 1.91521e-05 0)
(0.114975 3.92424e-05 0)
(0.114901 6.75547e-05 0)
(0.114777 0.00010144 0)
(0.114593 0.000134936 0)
(0.114352 0.000159108 0)
(0.11404 0.000168854 0)
(0.113709 0.000178044 0)
(0.102975 0.000436811 0)
(0.102889 0.000400907 0)
(0.10282 0.000376762 0)
(0.102779 0.000325204 0)
(0.10275 0.000249561 0)
(0.10273 0.000169707 0)
(0.10272 0.000101139 0)
(0.102716 5.13072e-05 0)
(0.102716 2.05568e-05 0)
(0.102716 4.8146e-06 0)
(0.102717 -1.35502e-06 0)
(0.102718 -2.72422e-06 0)
(0.102718 -2.53966e-06 0)
(0.102719 -2.49726e-06 0)
(0.102718 -3.0691e-06 0)
(0.102717 -3.87725e-06 0)
(0.102716 -4.13397e-06 0)
(0.102714 -3.21137e-06 0)
(0.102713 -1.17325e-06 0)
(0.102712 1.10401e-06 0)
(0.102713 2.42092e-06 0)
(0.102714 2.07907e-06 0)
(0.102715 4.30856e-07 0)
(0.102715 -1.29162e-06 0)
(0.102714 -1.77102e-06 0)
(0.102714 -4.65439e-07 0)
(0.102715 2.04635e-06 0)
(0.102716 4.42632e-06 0)
(0.102718 5.36541e-06 0)
(0.10272 4.29299e-06 0)
(0.102721 1.63041e-06 0)
(0.102721 -1.48274e-06 0)
(0.10272 -3.77954e-06 0)
(0.102718 -4.44131e-06 0)
(0.102716 -3.39494e-06 0)
(0.102716 -1.25036e-06 0)
(0.102716 1.03046e-06 0)
(0.102717 2.54968e-06 0)
(0.102718 2.80167e-06 0)
(0.102719 1.81407e-06 0)
(0.102719 9.13345e-08 0)
(0.102718 -1.59529e-06 0)
(0.102717 -2.50258e-06 0)
(0.102716 -2.20725e-06 0)
(0.102716 -7.95969e-07 0)
(0.102716 1.12893e-06 0)
(0.102718 2.66315e-06 0)
(0.102719 2.98183e-06 0)
(0.10272 1.74265e-06 0)
(0.10272 -6.74939e-07 0)
(0.102719 -3.24796e-06 0)
(0.102716 -4.74343e-06 0)
(0.102714 -4.3505e-06 0)
(0.102713 -2.1843e-06 0)
(0.102712 6.79839e-07 0)
(0.102713 2.75836e-06 0)
(0.102715 3.03601e-06 0)
(0.102716 1.61619e-06 0)
(0.102717 -3.35564e-07 0)
(0.102716 -1.3821e-06 0)
(0.102715 -8.10331e-07 0)
(0.102715 9.04121e-07 0)
(0.102716 2.51327e-06 0)
(0.102717 2.94113e-06 0)
(0.102719 1.98124e-06 0)
(0.10272 2.41921e-07 0)
(0.10272 -1.47103e-06 0)
(0.10272 -2.6874e-06 0)
(0.102721 -3.20405e-06 0)
(0.102721 -2.42448e-06 0)
(0.102722 1.52951e-06 0)
(0.102724 1.23892e-05 0)
(0.102725 3.52112e-05 0)
(0.102725 7.497e-05 0)
(0.10272 0.000133718 0)
(0.102706 0.000207619 0)
(0.102681 0.000284885 0)
(0.102642 0.000346443 0)
(0.102576 0.000381511 0)
(0.102483 0.000419168 0)
(0.0754406 0.000365933 0)
(0.0756138 0.000308197 0)
(0.0758113 0.000272543 0)
(0.0759846 0.000227288 0)
(0.0761246 0.000169508 0)
(0.0762271 0.000111476 0)
(0.0762932 6.33523e-05 0)
(0.0763303 2.9634e-05 0)
(0.0763476 9.81615e-06 0)
(0.0763536 4.83938e-07 0)
(0.0763545 -2.56226e-06 0)
(0.0763535 -2.70511e-06 0)
(0.0763523 -2.06401e-06 0)
(0.0763512 -1.65946e-06 0)
(0.0763498 -1.72127e-06 0)
(0.0763481 -1.99618e-06 0)
(0.076346 -2.03752e-06 0)
(0.076344 -1.50898e-06 0)
(0.0763429 -4.43581e-07 0)
(0.0763428 7.07696e-07 0)
(0.0763438 1.33246e-06 0)
(0.0763451 1.08112e-06 0)
(0.0763458 1.48711e-07 0)
(0.0763455 -8.14791e-07 0)
(0.0763447 -1.11534e-06 0)
(0.076344 -4.60418e-07 0)
(0.0763444 8.58913e-07 0)
(0.0763461 2.15097e-06 0)
(0.0763487 2.72434e-06 0)
(0.0763512 2.25673e-06 0)
(0.0763528 9.35122e-07 0)
(0.0763528 -6.71958e-07 0)
(0.0763514 -1.90927e-06 0)
(0.0763492 -2.3308e-06 0)
(0.0763471 -1.86218e-06 0)
(0.0763459 -7.83503e-07 0)
(0.0763459 4.26647e-07 0)
(0.0763469 1.29762e-06 0)
(0.0763483 1.53696e-06 0)
(0.0763495 1.11498e-06 0)
(0.07635 2.53147e-07 0)
(0.0763496 -6.67147e-07 0)
(0.0763485 -1.24847e-06 0)
(0.0763472 -1.23138e-06 0)
(0.0763464 -6.07813e-07 0)
(0.0763465 3.54956e-07 0)
(0.0763476 1.20597e-06 0)
(0.0763491 1.50034e-06 0)
(0.0763504 1.01298e-06 0)
(0.0763507 -1.17243e-07 0)
(0.0763497 -1.40319e-06 0)
(0.0763475 -2.21297e-06 0)
(0.0763451 -2.09959e-06 0)
(0.0763433 -1.07972e-06 0)
(0.0763429 3.23608e-07 0)
(0.0763439 1.3527e-06 0)
(0.0763455 1.47344e-06 0)
(0.0763467 7.29724e-07 0)
(0.076347 -2.734e-07 0)
(0.0763465 -7.85726e-07 0)
(0.0763459 -4.4637e-07 0)
(0.0763459 4.66703e-07 0)
(0.0763468 1.27504e-06 0)
(0.0763483 1.41775e-06 0)
(0.0763496 8.18915e-07 0)
(0.0763502 -1.83207e-07 0)
(0.0763498 -1.20374e-06 0)
(0.0763488 -2.08128e-06 0)
(0.0763474 -2.77757e-06 0)
(0.0763461 -2.94705e-06 0)
(0.076346 -1.36166e-06 0)
(0.0763494 4.58888e-06 0)
(0.076361 1.88751e-05 0)
(0.0763879 4.55126e-05 0)
(0.0764392 8.667e-05 0)
(0.0765228 0.000140493 0)
(0.076643 0.000199524 0)
(0.0767988 0.000251725 0)
(0.0769843 0.000294722 0)
(0.0771539 0.000353834 0)
(0.0318883 0.000124303 0)
(0.0320891 9.21349e-05 0)
(0.0322718 7.37918e-05 0)
(0.0324103 5.79527e-05 0)
(0.0325153 4.08982e-05 0)
(0.0325882 2.49741e-05 0)
(0.0326315 1.25118e-05 0)
(0.0326526 4.36784e-06 0)
(0.0326599 9.78665e-08 0)
(0.0326604 -1.42755e-06 0)
(0.0326584 -1.52296e-06 0)
(0.0326563 -1.11154e-06 0)
(0.0326547 -6.86832e-07 0)
(0.0326537 -4.47959e-07 0)
(0.0326528 -4.00289e-07 0)
(0.0326518 -4.43873e-07 0)
(0.0326507 -4.47389e-07 0)
(0.0326497 -3.18114e-07 0)
(0.0326491 -6.03859e-08 0)
(0.0326492 2.14702e-07 0)
(0.0326499 3.54266e-07 0)
(0.0326507 2.71154e-07 0)
(0.0326511 1.59301e-08 0)
(0.0326508 -2.455e-07 0)
(0.0326502 -3.36276e-07 0)
(0.0326496 -1.8091e-07 0)
(0.0326497 1.48635e-07 0)
(0.0326505 4.80206e-07 0)
(0.032652 6.39673e-07 0)
(0.0326534 5.43428e-07 0)
(0.0326544 2.3334e-07 0)
(0.0326545 -1.53818e-07 0)
(0.0326537 -4.57944e-07 0)
(0.0326524 -5.67773e-07 0)
(0.0326511 -4.61101e-07 0)
(0.0326503 -2.018e-07 0)
(0.0326503 9.65208e-08 0)
(0.0326508 3.19437e-07 0)
(0.0326517 3.92103e-07 0)
(0.0326525 3.01026e-07 0)
(0.0326529 9.37495e-08 0)
(0.0326528 -1.40035e-07 0)
(0.0326522 -3.01615e-07 0)
(0.0326514 -3.20528e-07 0)
(0.0326509 -1.85049e-07 0)
(0.0326508 4.77337e-08 0)
(0.0326512 2.70333e-07 0)
(0.0326521 3.69919e-07 0)
(0.0326529 2.8132e-07 0)
(0.0326532 2.69487e-08 0)
(0.0326528 -2.81911e-07 0)
(0.0326517 -4.89234e-07 0)
(0.0326504 -4.7812e-07 0)
(0.0326494 -2.44124e-07 0)
(0.0326492 8.82782e-08 0)
(0.0326498 3.30891e-07 0)
(0.0326507 3.48106e-07 0)
(0.0326514 1.50592e-07 0)
(0.0326515 -1.06475e-07 0)
(0.0326511 -2.30986e-07 0)
(0.0326506 -1.33924e-07 0)
(0.0326506 1.05125e-07 0)
(0.0326511 3.0639e-07 0)
(0.0326519 3.27863e-07 0)
(0.0326526 1.61129e-07 0)
(0.0326528 -1.01389e-07 0)
(0.0326524 -3.79177e-07 0)
(0.0326514 -6.73781e-07 0)
(0.0326498 -1.03078e-06 0)
(0.0326478 -1.41772e-06 0)
(0.0326455 -1.57434e-06 0)
(0.0326445 -8.52218e-07 0)
(0.0326479 2.04475e-06 0)
(0.0326615 8.35485e-06 0)
(0.032693 1.89474e-05 0)
(0.0327507 3.36586e-05 0)
(0.0328397 5.09539e-05 0)
(0.032964 6.84923e-05 0)
(0.033136 8.85753e-05 0)
(0.0333314 0.000120869 0)
)
;

boundaryField
{
    inlet
    {
        type            zeroGradient;
    }
    outlet
    {
        type            zeroGradient;
    }
    walls
    {
        type            noSlip;
    }
    frontAndBack
    {
        type            empty;
    }
}


// ************************************************************************* //
