/*--------------------------------*- C++ -*----------------------------------*\
| =========                 |                                                 |
| \\      /  F ield         | OpenFOAM: The Open Source CFD Toolbox           |
|  \\    /   O peration     | Version:  2406                                  |
|   \\  /    A nd           | Website:  www.openfoam.com                      |
|    \\/     M anipulation  |                                                 |
\*---------------------------------------------------------------------------*/
FoamFile
{
    version     2.0;
    format      ascii;
    arch        "LSB;label=32;scalar=64";
    class       surfaceScalarField;
    location    "0.9";
    object      alphaPhi0.air;
}
// * * * * * * * * * * * * * * * * * * * * * * * * * * * * * * * * * * * * * //

dimensions      [0 3 -1 0 0 0 0];

oriented        oriented;

internalField   nonuniform List<scalar> 
12225
(
0.504602
2.97261e-06
0.504595
7.35719e-06
0.504587
7.68486e-06
0.504583
4.76492e-06
0.504579
3.39767e-06
0.504576
3.63058e-06
0.504571
4.14008e-06
0.504567
4.84595e-06
0.504561
5.40946e-06
0.504555
5.86964e-06
0.50455
5.72622e-06
0.504544
5.5074e-06
0.504539
5.26595e-06
0.504534
4.81644e-06
0.504529
4.89938e-06
0.504524
5.31877e-06
0.504518
5.36391e-06
0.504513
5.18148e-06
0.504508
4.96593e-06
0.504503
4.8426e-06
0.504499
4.75915e-06
0.504494
4.84101e-06
0.504489
5.19786e-06
0.504483
5.49074e-06
0.504478
5.60399e-06
0.504472
5.9169e-06
0.504465
6.2332e-06
0.504459
6.40187e-06
0.504452
6.48514e-06
0.504446
6.42989e-06
0.50444
6.24449e-06
0.504434
5.79223e-06
0.504429
5.39072e-06
0.504423
5.41048e-06
0.504418
5.35019e-06
0.504413
5.09204e-06
0.504408
5.01771e-06
0.504403
5.18273e-06
0.504397
5.47243e-06
0.504391
5.79103e-06
0.504385
5.97336e-06
0.504379
5.88298e-06
0.504374
5.70122e-06
0.504368
5.68869e-06
0.504362
5.8244e-06
0.504356
5.91036e-06
0.504351
5.76886e-06
0.504345
5.53849e-06
0.50434
5.48664e-06
0.504334
5.4555e-06
0.504329
5.25275e-06
0.504324
5.13545e-06
0.504318
5.27135e-06
0.504313
5.47752e-06
0.504307
5.58579e-06
0.504302
5.67101e-06
0.504296
5.92883e-06
0.504289
6.2748e-06
0.504283
6.28183e-06
0.504277
5.80973e-06
0.504272
5.2377e-06
0.504267
4.94167e-06
0.504262
4.96617e-06
0.504257
5.14545e-06
0.504252
5.25252e-06
0.504247
5.24067e-06
0.504241
5.26845e-06
0.504236
5.37265e-06
0.504231
5.36839e-06
0.504225
5.22144e-06
0.50422
5.08092e-06
0.504215
5.01087e-06
0.50421
5.04524e-06
0.504205
5.2417e-06
0.5042
5.46397e-06
0.504194
5.46933e-06
0.504189
5.30913e-06
0.504184
5.24407e-06
0.504178
5.3063e-06
0.504173
5.31774e-06
0.504168
5.25054e-06
0.504162
5.2407e-06
0.504157
5.36222e-06
0.504151
5.56342e-06
0.504146
5.69792e-06
0.50414
5.57462e-06
0.504135
5.18143e-06
0.50413
4.80852e-06
0.504125
4.7625e-06
0.50412
4.99191e-06
0.504115
5.18349e-06
0.50411
5.15803e-06
0.504105
4.9907e-06
0.5041
4.84053e-06
0.504096
4.77709e-06
0.504091
4.74187e-06
0.504086
4.65937e-06
0.504082
4.59017e-06
0.504077
4.67245e-06
0.504072
4.88237e-06
0.504067
5.041e-06
0.504062
5.08487e-06
0.504057
5.12747e-06
0.504051
5.21943e-06
0.504046
5.26733e-06
0.504041
5.25822e-06
0.504036
5.34254e-06
0.50403
5.56463e-06
0.504024
5.70601e-06
0.504019
5.58547e-06
0.504013
5.38307e-06
0.504008
5.45481e-06
0.504002
5.86465e-06
0.503996
6.25962e-06
0.50399
6.26573e-06
0.503984
5.9071e-06
0.503978
5.57604e-06
0.503972
5.61718e-06
0.503966
5.99929e-06
0.50396
6.43383e-06
0.503953
6.69999e-06
0.503947
6.73441e-06
0.50394
6.52586e-06
0.503934
6.16947e-06
0.503928
5.90966e-06
0.503922
5.92221e-06
0.503916
6.0817e-06
0.50391
6.17837e-06
0.503904
6.21007e-06
0.503897
6.23774e-06
0.503891
6.14527e-06
0.503885
5.82126e-06
0.50388
5.43827e-06
0.503875
5.30444e-06
0.503869
5.483e-06
0.503863
5.76069e-06
0.503857
5.93168e-06
0.503851
5.95954e-06
0.503846
5.88251e-06
0.50384
5.68515e-06
0.503835
5.33677e-06
0.50383
4.94844e-06
0.503825
4.7648e-06
0.50382
4.90169e-06
0.503815
5.19923e-06
0.503809
5.43051e-06
0.503804
5.52748e-06
0.503798
5.49352e-06
0.503793
5.28799e-06
0.503788
4.95709e-06
0.503783
4.69717e-06
0.503779
4.62841e-06
0.503774
4.66971e-06
0.503769
4.73726e-06
0.503764
4.86214e-06
0.503759
5.05218e-06
0.503754
5.2142e-06
0.503749
5.25933e-06
0.503744
5.14385e-06
0.503739
4.83904e-06
0.503735
4.42354e-06
0.50373
4.14356e-06
0.503726
4.21024e-06
0.503722
4.54533e-06
0.503717
4.85373e-06
0.503712
4.9036e-06
0.503707
4.73784e-06
0.503703
4.61879e-06
0.503698
4.73406e-06
0.503693
4.90778e-06
0.503688
4.77606e-06
0.503684
4.31225e-06
0.50368
3.93161e-06
0.503676
3.96265e-06
0.503672
4.27675e-06
0.503667
4.55948e-06
0.503662
4.67202e-06
0.503658
4.64017e-06
0.503653
4.556e-06
0.503649
4.5603e-06
0.503644
4.69714e-06
0.503639
4.79508e-06
0.503634
4.70698e-06
0.50363
4.56891e-06
0.503625
4.60064e-06
0.503621
4.76888e-06
0.503616
4.85501e-06
0.503611
4.76928e-06
0.503606
4.63718e-06
0.503602
4.6502e-06
0.503597
4.86676e-06
0.503592
5.14629e-06
0.503586
5.29389e-06
0.503581
5.31432e-06
0.503576
5.34521e-06
0.50357
5.37964e-06
0.503565
5.29222e-06
0.50356
5.10937e-06
0.503555
4.99503e-06
0.50355
4.98125e-06
0.503545
4.98758e-06
0.50354
5.02453e-06
0.503535
5.12454e-06
0.50353
5.18402e-06
0.503524
5.12548e-06
0.503519
5.08343e-06
0.503514
5.21312e-06
0.503509
5.41485e-06
0.503503
5.46979e-06
0.503498
5.33526e-06
0.503493
5.17679e-06
0.503488
5.1472e-06
0.503482
5.23036e-06
0.503477
5.25241e-06
0.503472
5.04963e-06
0.503467
4.6581e-06
0.503463
4.3072e-06
0.503459
4.17384e-06
0.503455
4.22607e-06
0.50345
4.31704e-06
0.503446
4.32808e-06
0.503442
4.21173e-06
0.503438
4.015e-06
0.503434
3.86668e-06
0.50343
3.83904e-06
0.503426
3.83358e-06
0.503423
3.70715e-06
0.503419
3.47821e-06
0.503416
3.2937e-06
0.503413
3.21899e-06
0.503409
3.17021e-06
0.503406
3.06049e-06
0.503403
2.92677e-06
0.503401
2.85965e-06
0.503398
2.85563e-06
0.503395
2.80868e-06
0.503392
2.62143e-06
0.50339
2.2993e-06
0.503388
1.94956e-06
0.503386
1.70004e-06
0.503385
1.63303e-06
0.503383
1.69753e-06
0.503381
1.69903e-06
0.50338
1.48641e-06
0.503379
1.10906e-06
0.503378
7.96501e-07
0.503377
6.84788e-07
0.503377
6.73222e-07
0.503376
6.02643e-07
6.35005e-07
0.504609
-4.40815e-07
0.504616
5.32894e-07
0.504622
1.7292e-06
0.504624
2.75626e-06
0.504626
2.03338e-06
0.504627
1.94588e-06
0.504629
2.57122e-06
0.504631
2.52293e-06
0.504634
2.69464e-06
0.504638
2.26017e-06
0.504641
1.81499e-06
0.504645
1.83036e-06
0.504648
2.08224e-06
0.504651
2.22427e-06
0.504654
2.0772e-06
0.504657
1.92252e-06
0.504661
1.88023e-06
0.504663
2.33496e-06
0.504666
2.88001e-06
0.504667
3.12795e-06
0.504669
3.33705e-06
0.50467
3.51316e-06
0.504672
3.4139e-06
0.504674
3.29121e-06
0.504677
2.96246e-06
0.50468
2.60337e-06
0.504684
2.24445e-06
0.504689
1.58817e-06
0.504694
1.24652e-06
0.504699
1.86484e-06
0.504702
2.71331e-06
0.504705
3.10479e-06
0.504707
2.75021e-06
0.50471
2.40651e-06
0.504713
2.47507e-06
0.504716
2.47776e-06
0.504719
2.15458e-06
0.504722
1.83121e-06
0.504726
1.94327e-06
0.504729
2.44329e-06
0.504732
2.87154e-06
0.504735
2.98048e-06
0.504738
2.93612e-06
0.504741
2.89045e-06
0.504744
2.72884e-06
0.504747
2.53979e-06
0.50475
2.45736e-06
0.504754
2.35541e-06
0.504757
2.31551e-06
0.50476
2.50163e-06
0.504762
2.66573e-06
0.504765
2.63303e-06
0.504767
2.58296e-06
0.50477
2.61393e-06
0.504773
2.56012e-06
0.504777
2.22644e-06
0.504781
1.78792e-06
0.504785
1.7792e-06
0.504789
2.30192e-06
0.504792
2.85979e-06
0.504794
3.07275e-06
0.504796
3.00893e-06
0.504799
2.8541e-06
0.504801
2.73346e-06
0.504804
2.67937e-06
0.504806
2.60525e-06
0.504809
2.56017e-06
0.504812
2.71184e-06
0.504814
2.97894e-06
0.504816
3.06977e-06
0.504818
2.90387e-06
0.504821
2.57098e-06
0.504824
2.12465e-06
0.504827
1.74857e-06
0.504831
1.71616e-06
0.504834
1.99352e-06
0.504837
2.26312e-06
0.50484
2.40523e-06
0.504843
2.52344e-06
0.504846
2.61762e-06
0.504848
2.57337e-06
0.504851
2.3867e-06
0.504854
2.17695e-06
0.504858
2.10358e-06
0.504861
2.30324e-06
0.504864
2.68448e-06
0.504866
2.9163e-06
0.504868
2.77353e-06
0.504871
2.43506e-06
0.504874
2.24121e-06
0.504876
2.28571e-06
0.504879
2.41359e-06
0.504882
2.47084e-06
0.504884
2.44903e-06
0.504886
2.45872e-06
0.504889
2.57212e-06
0.504891
2.68315e-06
0.504893
2.61961e-06
0.504895
2.42243e-06
0.504897
2.29925e-06
0.5049
2.30928e-06
0.504903
2.34054e-06
0.504906
2.36218e-06
0.504908
2.44263e-06
0.504911
2.51107e-06
0.504914
2.37231e-06
0.504917
2.04082e-06
0.504921
1.83176e-06
0.504925
1.96635e-06
0.504928
2.24503e-06
0.504931
2.30022e-06
0.504935
2.0973e-06
0.504938
1.99254e-06
0.504942
2.27231e-06
0.504946
2.77886e-06
0.504949
3.07299e-06
0.504951
2.93923e-06
0.504954
2.61578e-06
0.504958
2.46547e-06
0.504962
2.55018e-06
0.504966
2.6851e-06
0.50497
2.77883e-06
0.504973
2.84932e-06
0.504977
2.82324e-06
0.50498
2.65855e-06
0.504983
2.52812e-06
0.504987
2.59985e-06
0.50499
2.74725e-06
0.504994
2.76804e-06
0.504997
2.72134e-06
0.505001
2.75856e-06
0.505004
2.80375e-06
0.505006
2.68984e-06
0.505009
2.48195e-06
0.505012
2.40423e-06
0.505016
2.51419e-06
0.505019
2.63814e-06
0.505022
2.60974e-06
0.505026
2.45269e-06
0.505029
2.31946e-06
0.505032
2.27822e-06
0.505035
2.25126e-06
0.505037
2.20802e-06
0.50504
2.26658e-06
0.505043
2.49186e-06
0.505045
2.73576e-06
0.505048
2.82995e-06
0.505051
2.78516e-06
0.505053
2.65396e-06
0.505056
2.41379e-06
0.505059
2.12968e-06
0.505061
2.01341e-06
0.505064
2.1632e-06
0.505066
2.42076e-06
0.505068
2.57887e-06
0.505071
2.56962e-06
0.505074
2.44002e-06
0.505076
2.31147e-06
0.505079
2.32767e-06
0.505082
2.47953e-06
0.505084
2.55473e-06
0.505085
2.40027e-06
0.505087
2.17151e-06
0.50509
2.15575e-06
0.505092
2.43316e-06
0.505094
2.77725e-06
0.505096
2.85243e-06
0.505098
2.55556e-06
0.505101
2.20239e-06
0.505103
2.22118e-06
0.505106
2.59517e-06
0.505107
2.86226e-06
0.505108
2.74377e-06
0.50511
2.4666e-06
0.505112
2.35344e-06
0.505114
2.42339e-06
0.505116
2.53281e-06
0.505118
2.58431e-06
0.50512
2.52332e-06
0.505122
2.39048e-06
0.505125
2.36525e-06
0.505127
2.51888e-06
0.505129
2.63577e-06
0.505131
2.51445e-06
0.505133
2.2879e-06
0.505136
2.23236e-06
0.505138
2.39712e-06
0.50514
2.60372e-06
0.505142
2.67131e-06
0.505144
2.58552e-06
0.505147
2.48434e-06
0.505149
2.48908e-06
0.505152
2.53201e-06
0.505155
2.47521e-06
0.505158
2.37213e-06
0.505161
2.37639e-06
0.505164
2.45348e-06
0.505167
2.45928e-06
0.505169
2.42435e-06
0.505172
2.46077e-06
0.505174
2.51302e-06
0.505177
2.50391e-06
0.505179
2.54384e-06
0.505182
2.71111e-06
0.505184
2.82556e-06
0.505186
2.71053e-06
0.505189
2.51351e-06
0.505192
2.50436e-06
0.505195
2.70412e-06
0.505197
2.86671e-06
0.5052
2.77906e-06
0.505202
2.47975e-06
0.505205
2.23143e-06
0.505208
2.26729e-06
0.505211
2.52815e-06
0.505213
2.73564e-06
0.505214
2.71563e-06
0.505216
2.55464e-06
0.505218
2.42661e-06
0.50522
2.41173e-06
0.505221
2.48767e-06
0.505223
2.55968e-06
0.505225
2.50659e-06
0.505226
2.32148e-06
0.505228
2.16728e-06
0.505229
2.18343e-06
0.505231
2.29896e-06
0.505232
2.34217e-06
0.505233
2.27965e-06
0.505234
2.23568e-06
0.505235
2.28752e-06
0.505236
2.34492e-06
0.505236
2.28232e-06
0.505237
2.13342e-06
0.505238
2.06705e-06
0.505238
2.19095e-06
0.505239
2.44049e-06
0.505238
2.65074e-06
0.505237
2.68753e-06
0.505237
2.51108e-06
0.505236
2.22859e-06
0.505236
2.07091e-06
0.505235
2.17498e-06
0.505234
2.40491e-06
0.505233
2.50586e-06
0.505231
2.43139e-06
0.50523
2.38123e-06
0.505228
2.43382e-06
0.505226
2.63829e-06
2.53193e-06
0.504609
-5.26823e-07
0.504609
2.65748e-07
0.504609
1.43355e-06
0.50461
2.02364e-06
0.504609
2.6465e-06
0.504609
2.23151e-06
0.50461
1.49638e-06
0.504611
1.75655e-06
0.504611
2.47137e-06
0.50461
3.10101e-06
0.504609
3.28227e-06
0.504608
3.02703e-06
0.504607
2.70618e-06
0.504607
2.54083e-06
0.504606
2.50707e-06
0.504606
2.62449e-06
0.504605
2.49914e-06
0.504605
2.14769e-06
0.504606
2.05155e-06
0.504607
1.90161e-06
0.504609
1.47668e-06
0.504611
1.44367e-06
0.504613
1.53078e-06
0.504615
1.58864e-06
0.504616
1.9994e-06
0.504616
2.41767e-06
0.504615
3.04903e-06
0.504613
3.4834e-06
0.504611
2.9001e-06
0.504611
2.04681e-06
0.504612
1.86082e-06
0.504613
2.05242e-06
0.504614
2.06854e-06
0.504614
2.06544e-06
0.504614
2.23989e-06
0.504614
2.44535e-06
0.504614
2.6149e-06
0.504613
2.58268e-06
0.504613
2.2487e-06
0.504614
1.87988e-06
0.504615
1.83113e-06
0.504616
2.0044e-06
0.504616
2.07857e-06
0.504617
2.07001e-06
0.504618
2.05707e-06
0.504618
2.09922e-06
0.504619
2.23176e-06
0.504619
2.17823e-06
0.504619
1.87903e-06
0.50462
1.75123e-06
0.504621
1.88787e-06
0.504621
1.96032e-06
0.504622
1.90425e-06
0.504623
2.00652e-06
0.504623
2.39704e-06
0.504622
2.71365e-06
0.504622
2.49273e-06
0.504622
1.91615e-06
0.504622
1.59192e-06
0.504623
1.70411e-06
0.504624
1.95108e-06
0.504625
2.0576e-06
0.504626
1.97286e-06
0.504627
1.84166e-06
0.504628
1.85854e-06
0.504629
1.98379e-06
0.504629
2.04152e-06
0.50463
2.07665e-06
0.504631
2.22511e-06
0.504631
2.41089e-06
0.504632
2.53642e-06
0.504632
2.63059e-06
0.504631
2.63536e-06
0.50463
2.48227e-06
0.50463
2.36487e-06
0.504629
2.47676e-06
0.504629
2.64059e-06
0.504629
2.58772e-06
0.504629
2.35818e-06
0.504629
2.18111e-06
0.50463
2.18141e-06
0.50463
2.33958e-06
0.504629
2.50179e-06
0.504629
2.46584e-06
0.504629
2.25204e-06
0.50463
2.1158e-06
0.50463
2.19538e-06
0.504631
2.31804e-06
0.504631
2.29215e-06
0.504631
2.1589e-06
0.504631
2.06461e-06
0.504632
2.06568e-06
0.504632
2.10712e-06
0.504632
2.09147e-06
0.504633
1.98463e-06
0.504633
1.88061e-06
0.504634
1.88105e-06
0.504635
1.93552e-06
0.504635
1.96982e-06
0.504636
2.0694e-06
0.504636
2.32532e-06
0.504635
2.61803e-06
0.504635
2.77355e-06
0.504635
2.83093e-06
0.504634
2.9365e-06
0.504633
3.04087e-06
0.504633
2.94176e-06
0.504632
2.64454e-06
0.504631
2.45001e-06
0.504631
2.58504e-06
0.50463
2.89157e-06
0.504629
3.01087e-06
0.504629
2.80712e-06
0.504628
2.49614e-06
0.504629
2.35234e-06
0.504629
2.37178e-06
0.50463
2.31283e-06
0.504631
2.06224e-06
0.504631
1.8044e-06
0.504632
1.73357e-06
0.504633
1.78081e-06
0.504634
1.79499e-06
0.504635
1.78288e-06
0.504636
1.78085e-06
0.504637
1.72108e-06
0.504638
1.62237e-06
0.504639
1.67327e-06
0.50464
1.92262e-06
0.50464
2.13584e-06
0.504641
2.13199e-06
0.504642
2.02071e-06
0.504643
1.96276e-06
0.504643
1.93525e-06
0.504644
1.88041e-06
0.504644
1.88307e-06
0.504645
2.05217e-06
0.504645
2.32288e-06
0.504645
2.48276e-06
0.504645
2.3836e-06
0.504646
2.11114e-06
0.504646
1.90303e-06
0.504646
1.87637e-06
0.504647
1.96462e-06
0.504647
2.10828e-06
0.504647
2.33329e-06
0.504647
2.57486e-06
0.504647
2.65448e-06
0.504647
2.52288e-06
0.504648
2.31292e-06
0.504648
2.1153e-06
0.504648
1.92721e-06
0.504649
1.82315e-06
0.504649
1.94054e-06
0.504649
2.27694e-06
0.504649
2.67145e-06
0.504648
2.9518e-06
0.504648
2.98758e-06
0.504647
2.74013e-06
0.504647
2.38158e-06
0.504648
2.20581e-06
0.504648
2.31517e-06
0.504648
2.50696e-06
0.504647
2.55462e-06
0.504647
2.46374e-06
0.504647
2.41995e-06
0.504647
2.57355e-06
0.504647
2.84398e-06
0.504647
2.93178e-06
0.504646
2.65761e-06
0.504646
2.27447e-06
0.504647
2.19367e-06
0.504647
2.44363e-06
0.504647
2.68534e-06
0.504647
2.7184e-06
0.504647
2.64682e-06
0.504647
2.5931e-06
0.504647
2.57307e-06
0.504647
2.58767e-06
0.504646
2.58679e-06
0.504646
2.46484e-06
0.504647
2.269e-06
0.504647
2.21614e-06
0.504647
2.35841e-06
0.504647
2.47021e-06
0.504647
2.37834e-06
0.504647
2.1826e-06
0.504647
2.0706e-06
0.504648
2.10552e-06
0.504648
2.20692e-06
0.504649
2.24932e-06
0.504649
2.19629e-06
0.504649
2.15302e-06
0.50465
2.19094e-06
0.50465
2.20325e-06
0.50465
2.09764e-06
0.504651
1.98776e-06
0.504651
1.98314e-06
0.504652
1.98792e-06
0.504652
1.9217e-06
0.504653
1.89317e-06
0.504653
1.95993e-06
0.504654
1.997e-06
0.504654
1.9688e-06
0.504655
2.03748e-06
0.504656
2.25133e-06
0.504656
2.40175e-06
0.504656
2.3215e-06
0.504656
2.11794e-06
0.504657
2.00996e-06
0.504658
2.07554e-06
0.504658
2.19897e-06
0.504659
2.18478e-06
0.504659
1.96305e-06
0.50466
1.69753e-06
0.50466
1.61528e-06
0.504661
1.7498e-06
0.504662
1.94283e-06
0.504663
2.05803e-06
0.504663
2.07543e-06
0.504663
2.03677e-06
0.504664
2.01529e-06
0.504664
2.07877e-06
0.504665
2.18615e-06
0.504665
2.20548e-06
0.504665
2.10369e-06
0.504665
2.01124e-06
0.504665
2.04161e-06
0.504666
2.1434e-06
0.504666
2.19696e-06
0.504666
2.19574e-06
0.504666
2.24907e-06
0.504666
2.41432e-06
0.504665
2.59833e-06
0.504665
2.6596e-06
0.504664
2.56653e-06
0.504664
2.42091e-06
0.504664
2.34432e-06
0.504664
2.38692e-06
0.504665
2.51776e-06
0.504665
2.6174e-06
0.504664
2.5415e-06
0.504664
2.29464e-06
0.504664
2.07624e-06
0.504664
2.05402e-06
0.504665
2.14977e-06
0.504665
2.18361e-06
0.504665
2.13683e-06
0.504666
2.10758e-06
0.504666
2.14874e-06
2.22393e-06
0.504607
8.93035e-08
0.504607
4.84149e-07
0.504607
1.40003e-06
0.504607
1.79493e-06
0.504608
1.86676e-06
0.504608
1.9117e-06
0.504608
1.78158e-06
0.504608
1.14278e-06
0.50461
6.85437e-07
0.504612
1.38425e-06
0.504613
1.83537e-06
0.504615
1.79496e-06
0.504616
1.83896e-06
0.504616
1.94104e-06
0.504617
1.63629e-06
0.504618
1.39143e-06
0.504619
1.52423e-06
0.50462
1.7805e-06
0.50462
1.82831e-06
0.504619
2.24061e-06
0.504619
2.46128e-06
0.504618
2.2461e-06
0.504617
2.17483e-06
0.504617
1.99316e-06
0.504617
1.75741e-06
0.504618
1.60486e-06
0.504619
1.5149e-06
0.504621
1.73538e-06
0.504622
2.15622e-06
0.504622
2.26438e-06
0.504621
2.09726e-06
0.504621
2.25043e-06
0.504621
2.58782e-06
0.50462
2.53077e-06
0.50462
2.28547e-06
0.50462
2.36303e-06
0.50462
2.68465e-06
0.50462
2.76116e-06
0.50462
2.48139e-06
0.504619
2.1762e-06
0.504619
2.04855e-06
0.504619
1.95737e-06
0.504619
1.77745e-06
0.50462
1.72636e-06
0.50462
1.84788e-06
0.50462
1.89872e-06
0.504621
1.9705e-06
0.504621
2.16675e-06
0.50462
2.30393e-06
0.504619
2.3934e-06
0.504619
2.53836e-06
0.504618
2.59285e-06
0.504618
2.39891e-06
0.504618
2.07239e-06
0.504618
1.94725e-06
0.504619
2.18061e-06
0.504619
2.45122e-06
0.504618
2.44225e-06
0.504617
2.29776e-06
0.504617
2.25408e-06
0.504617
2.28932e-06
0.504616
2.2989e-06
0.504616
2.21975e-06
0.504616
2.06867e-06
0.504616
2.00851e-06
0.504615
2.13236e-06
0.504615
2.25161e-06
0.504615
2.20574e-06
0.504615
2.07587e-06
0.504616
1.92136e-06
0.504617
1.74004e-06
0.504618
1.66827e-06
0.504618
1.78725e-06
0.504619
1.9169e-06
0.504619
1.93105e-06
0.50462
1.95406e-06
0.504621
2.03079e-06
0.504621
1.98917e-06
0.504622
1.75891e-06
0.504622
1.50382e-06
0.504623
1.40406e-06
0.504624
1.54746e-06
0.504625
1.87883e-06
0.504625
2.15059e-06
0.504625
2.11898e-06
0.504625
1.85182e-06
0.504626
1.654e-06
0.504626
1.67205e-06
0.504627
1.7878e-06
0.504627
1.86622e-06
0.504627
1.90506e-06
0.504628
1.96701e-06
0.504628
2.0926e-06
0.504627
2.23366e-06
0.504627
2.26161e-06
0.504627
2.12885e-06
0.504627
1.95363e-06
0.504627
1.83897e-06
0.504627
1.75402e-06
0.504628
1.69179e-06
0.504628
1.74728e-06
0.504629
1.91112e-06
0.50463
1.98164e-06
0.504631
1.83064e-06
0.504632
1.60777e-06
0.504633
1.522e-06
0.504635
1.5308e-06
0.504636
1.43272e-06
0.504637
1.21854e-06
0.504639
1.14948e-06
0.50464
1.43727e-06
0.504641
1.95889e-06
0.504642
2.36037e-06
0.504642
2.41755e-06
0.504642
2.23887e-06
0.504642
2.09016e-06
0.504642
2.07736e-06
0.504642
2.10442e-06
0.504642
2.12111e-06
0.504642
2.20275e-06
0.504641
2.33511e-06
0.50464
2.37202e-06
0.50464
2.28099e-06
0.50464
2.18872e-06
0.504639
2.13447e-06
0.504639
2.0523e-06
0.504638
2.01269e-06
0.504638
2.16722e-06
0.504638
2.43429e-06
0.504637
2.54035e-06
0.504637
2.39684e-06
0.504637
2.18506e-06
0.504637
2.0658e-06
0.504637
2.02636e-06
0.504636
2.01807e-06
0.504636
2.06647e-06
0.504636
2.20088e-06
0.504637
2.35515e-06
0.504637
2.38171e-06
0.504637
2.20948e-06
0.504636
1.97838e-06
0.504636
1.90017e-06
0.504636
2.00648e-06
0.504636
2.1667e-06
0.504636
2.30939e-06
0.504636
2.42488e-06
0.504637
2.42014e-06
0.504637
2.21254e-06
0.504637
1.91021e-06
0.504638
1.69275e-06
0.504638
1.59151e-06
0.504638
1.54856e-06
0.504639
1.572e-06
0.504639
1.68503e-06
0.50464
1.84462e-06
0.504641
2.01095e-06
0.504642
2.15157e-06
0.504643
2.15541e-06
0.504643
1.93111e-06
0.504644
1.6065e-06
0.504645
1.44932e-06
0.504645
1.56338e-06
0.504646
1.79636e-06
0.504647
1.92432e-06
0.504647
1.85633e-06
0.504648
1.72203e-06
0.504649
1.7562e-06
0.50465
1.99466e-06
0.504651
2.16238e-06
0.504651
2.04468e-06
0.504651
1.81245e-06
0.504652
1.75829e-06
0.504653
1.88435e-06
0.504654
1.99925e-06
0.504654
2.03154e-06
0.504655
2.01551e-06
0.504655
1.96629e-06
0.504656
1.93847e-06
0.504657
1.99811e-06
0.504657
2.05056e-06
0.504657
1.93944e-06
0.504658
1.73978e-06
0.504658
1.68671e-06
0.504659
1.82697e-06
0.50466
1.98169e-06
0.50466
2.01863e-06
0.50466
1.96953e-06
0.50466
1.93543e-06
0.50466
1.97967e-06
0.50466
2.06034e-06
0.50466
2.07138e-06
0.504661
2.01727e-06
0.504661
2.02959e-06
0.504661
2.13056e-06
0.504661
2.17114e-06
0.504661
2.1057e-06
0.504661
2.06855e-06
0.50466
2.0982e-06
0.50466
2.08395e-06
0.50466
2.03243e-06
0.50466
2.06998e-06
0.50466
2.16808e-06
0.50466
2.18041e-06
0.50466
2.13862e-06
0.50466
2.21732e-06
0.50466
2.42686e-06
0.504659
2.57232e-06
0.504659
2.51549e-06
0.504659
2.31007e-06
0.504659
2.11737e-06
0.504659
2.07145e-06
0.504659
2.16207e-06
0.504658
2.23968e-06
0.504658
2.19162e-06
0.504658
2.07637e-06
0.504657
2.01853e-06
0.504657
2.04982e-06
0.504657
2.12728e-06
0.504657
2.20566e-06
0.504657
2.23036e-06
0.504657
2.16854e-06
0.504657
2.08742e-06
0.504657
2.08603e-06
0.504657
2.13737e-06
0.504657
2.11938e-06
0.504657
2.00037e-06
0.504657
1.88159e-06
0.504657
1.84514e-06
0.504658
1.84856e-06
0.504658
1.80741e-06
0.504658
1.72944e-06
0.504659
1.71059e-06
0.50466
1.81124e-06
0.504661
1.97849e-06
0.504661
2.10168e-06
0.504661
2.11332e-06
0.504662
2.01498e-06
0.504662
1.86255e-06
0.504663
1.76635e-06
0.504664
1.81518e-06
0.504664
1.94324e-06
0.504665
1.97215e-06
0.504665
1.85346e-06
0.504665
1.74259e-06
0.504666
1.76435e-06
0.504666
1.85653e-06
0.504666
1.91037e-06
0.504666
1.92662e-06
0.504667
1.96038e-06
2.00519e-06
0.504608
1.49324e-07
0.504607
5.96811e-07
0.504608
6.43123e-07
0.504609
8.4043e-07
0.50461
8.37266e-07
0.504611
1.52365e-06
0.50461
2.36417e-06
0.504609
2.11581e-06
0.504609
1.17149e-06
0.504609
6.95834e-07
0.50461
8.77673e-07
0.504611
1.21415e-06
0.504611
1.35746e-06
0.504612
1.69538e-06
0.504611
2.30203e-06
0.50461
2.62917e-06
0.504609
2.47633e-06
0.504608
2.115e-06
0.504608
1.9295e-06
0.504609
1.91395e-06
0.504609
2.14469e-06
0.504609
2.38171e-06
0.504608
2.47646e-06
0.504608
2.68384e-06
0.504607
2.60473e-06
0.504607
2.00935e-06
0.504606
1.57902e-06
0.504607
1.5866e-06
0.504607
1.65762e-06
0.504608
1.41796e-06
0.504609
1.04409e-06
0.50461
8.98666e-07
0.504612
9.93816e-07
0.504613
1.11551e-06
0.504614
1.17044e-06
0.504616
1.13761e-06
0.504617
1.09534e-06
0.504619
1.22305e-06
0.50462
1.56413e-06
0.50462
1.84739e-06
0.50462
1.89044e-06
0.50462
1.90966e-06
0.50462
2.06736e-06
0.504619
2.31343e-06
0.504619
2.44321e-06
0.504619
2.19867e-06
0.504619
1.83231e-06
0.504619
1.74108e-06
0.50462
1.71805e-06
0.504621
1.49279e-06
0.504622
1.29023e-06
0.504623
1.38259e-06
0.504624
1.63819e-06
0.504624
1.67385e-06
0.504625
1.40265e-06
0.504626
1.19662e-06
0.504627
1.28169e-06
0.504628
1.46142e-06
0.504629
1.56921e-06
0.504629
1.65305e-06
0.50463
1.75483e-06
0.50463
1.87738e-06
0.50463
1.98955e-06
0.50463
1.97431e-06
0.504631
1.84096e-06
0.504631
1.78835e-06
0.504631
1.86059e-06
0.504632
1.91476e-06
0.504632
1.92135e-06
0.504632
1.89869e-06
0.504632
1.76788e-06
0.504632
1.59125e-06
0.504632
1.59785e-06
0.504632
1.78108e-06
0.504632
1.8857e-06
0.504632
1.83404e-06
0.504633
1.78112e-06
0.504633
1.80532e-06
0.504633
1.86858e-06
0.504632
1.9508e-06
0.504632
2.021e-06
0.504631
2.05293e-06
0.504631
2.10869e-06
0.504631
2.23192e-06
0.504631
2.30068e-06
0.50463
2.18827e-06
0.50463
1.99072e-06
0.50463
1.89913e-06
0.50463
1.9431e-06
0.504629
2.01235e-06
0.504629
2.02102e-06
0.504629
1.96508e-06
0.50463
1.91381e-06
0.50463
1.93873e-06
0.50463
1.99541e-06
0.50463
1.96695e-06
0.50463
1.86562e-06
0.50463
1.82324e-06
0.50463
1.86431e-06
0.50463
1.8893e-06
0.50463
1.88382e-06
0.50463
1.93687e-06
0.50463
2.02651e-06
0.50463
1.98915e-06
0.504629
1.77289e-06
0.504629
1.55583e-06
0.504629
1.51521e-06
0.504629
1.59279e-06
0.504629
1.60343e-06
0.504629
1.51296e-06
0.504629
1.49147e-06
0.504629
1.68656e-06
0.504629
2.00685e-06
0.504629
2.18613e-06
0.50463
2.07125e-06
0.50463
1.80029e-06
0.50463
1.63114e-06
0.504631
1.63959e-06
0.504631
1.72149e-06
0.504632
1.81548e-06
0.504632
1.90916e-06
0.504632
1.89889e-06
0.504633
1.70703e-06
0.504634
1.48048e-06
0.504634
1.41708e-06
0.504635
1.48567e-06
0.504635
1.54818e-06
0.504636
1.61581e-06
0.504637
1.74245e-06
0.504637
1.81432e-06
0.504638
1.68902e-06
0.504639
1.44499e-06
0.50464
1.29738e-06
0.50464
1.3366e-06
0.504641
1.47208e-06
0.504641
1.57204e-06
0.504642
1.58735e-06
0.504643
1.56071e-06
0.504644
1.52355e-06
0.504644
1.4385e-06
0.504645
1.31706e-06
0.504646
1.30327e-06
0.504646
1.50189e-06
0.504647
1.80789e-06
0.504647
2.04776e-06
0.504647
2.16735e-06
0.504647
2.15615e-06
0.504648
1.96521e-06
0.504648
1.64943e-06
0.504648
1.41682e-06
0.504648
1.41047e-06
0.504648
1.581e-06
0.504648
1.8169e-06
0.504648
2.03375e-06
0.504647
2.13864e-06
0.504647
2.0967e-06
0.504647
2.01066e-06
0.504648
1.97804e-06
0.504648
1.93616e-06
0.504647
1.7926e-06
0.504647
1.61874e-06
0.504647
1.57947e-06
0.504647
1.74103e-06
0.504647
2.00468e-06
0.504647
2.1657e-06
0.504647
2.0758e-06
0.504646
1.83993e-06
0.504647
1.73695e-06
0.504647
1.84619e-06
0.504647
1.94459e-06
0.504647
1.87498e-06
0.504647
1.76401e-06
0.504647
1.75844e-06
0.504647
1.81622e-06
0.504648
1.85956e-06
0.504648
1.87507e-06
0.504648
1.82302e-06
0.504648
1.69255e-06
0.504648
1.61687e-06
0.504649
1.69325e-06
0.504649
1.78449e-06
0.504649
1.72177e-06
0.504649
1.57134e-06
0.504649
1.5062e-06
0.50465
1.55712e-06
0.50465
1.63334e-06
0.504651
1.66185e-06
0.504651
1.64016e-06
0.504651
1.63433e-06
0.504652
1.70397e-06
0.504652
1.78542e-06
0.504652
1.76768e-06
0.504652
1.6953e-06
0.504653
1.69894e-06
0.504653
1.74331e-06
0.504654
1.69917e-06
0.504654
1.6047e-06
0.504655
1.58241e-06
0.504655
1.59634e-06
0.504656
1.5632e-06
0.504656
1.56514e-06
0.504657
1.69178e-06
0.504657
1.82712e-06
0.504657
1.8221e-06
0.504658
1.74008e-06
0.504658
1.74093e-06
0.504659
1.8429e-06
0.50466
1.93032e-06
0.50466
1.89494e-06
0.504661
1.72183e-06
0.504661
1.50994e-06
0.504662
1.39965e-06
0.504663
1.42532e-06
0.504663
1.48748e-06
0.504664
1.50668e-06
0.504664
1.50804e-06
0.504665
1.53643e-06
0.504665
1.60205e-06
0.504666
1.71221e-06
0.504666
1.84501e-06
0.504667
1.91657e-06
0.504667
1.88256e-06
0.504667
1.82697e-06
0.504667
1.84941e-06
0.504668
1.92211e-06
0.504668
1.94934e-06
0.504668
1.91978e-06
0.504668
1.91539e-06
0.504667
1.98571e-06
0.504667
2.07984e-06
0.504667
2.1187e-06
0.504666
2.09449e-06
0.504666
2.07299e-06
0.504666
2.10986e-06
0.504666
2.20015e-06
0.504666
2.30471e-06
0.504665
2.37016e-06
0.504665
2.32954e-06
0.504664
2.17176e-06
0.504664
2.01183e-06
0.504664
1.97995e-06
0.504664
2.03465e-06
0.504664
2.02659e-06
0.504664
1.92709e-06
0.504664
1.85214e-06
0.504664
1.87029e-06
0.504664
1.92517e-06
0.504664
1.95118e-06
0.504664
1.9901e-06
2.01088e-06
0.504608
-9.96059e-08
0.504609
-4.23479e-08
0.504608
9.9057e-07
0.504607
1.85954e-06
0.504607
1.41384e-06
0.504607
9.93003e-07
0.504609
9.79578e-07
0.50461
1.24437e-06
0.504609
1.57905e-06
0.504608
1.59805e-06
0.504608
1.52269e-06
0.504607
1.62566e-06
0.504607
1.64166e-06
0.504607
1.4029e-06
0.504608
1.13075e-06
0.50461
1.06905e-06
0.504611
1.39782e-06
0.504612
1.45552e-06
0.504612
1.36707e-06
0.504613
1.32476e-06
0.504614
1.02674e-06
0.504616
7.66237e-07
0.504617
6.50387e-07
0.504619
7.44846e-07
0.504621
1.19656e-06
0.504621
1.73578e-06
0.504621
1.78437e-06
0.504621
1.55618e-06
0.504621
1.77631e-06
0.50462
2.26995e-06
0.504619
2.31643e-06
0.504617
2.11189e-06
0.504616
2.12973e-06
0.504615
2.26401e-06
0.504614
2.22612e-06
0.504613
2.01518e-06
0.504612
1.8454e-06
0.504612
1.83546e-06
0.504612
1.83788e-06
0.504612
1.62521e-06
0.504612
1.28336e-06
0.504613
1.10882e-06
0.504614
1.08323e-06
0.504615
1.02172e-06
0.504617
1.05954e-06
0.504618
1.26571e-06
0.504618
1.53683e-06
0.504618
1.84545e-06
0.504618
2.01332e-06
0.504617
1.85259e-06
0.504617
1.54105e-06
0.504617
1.40881e-06
0.504617
1.58583e-06
0.504617
1.84311e-06
0.504616
1.88262e-06
0.504616
1.77692e-06
0.504615
1.77551e-06
0.504615
1.83538e-06
0.504615
1.79812e-06
0.504615
1.69561e-06
0.504615
1.60749e-06
0.504615
1.57021e-06
0.504615
1.61991e-06
0.504616
1.67187e-06
0.504616
1.59495e-06
0.504616
1.46946e-06
0.504617
1.42554e-06
0.504617
1.40457e-06
0.504618
1.37422e-06
0.504618
1.42622e-06
0.504619
1.51733e-06
0.504619
1.5213e-06
0.504619
1.50906e-06
0.504619
1.59442e-06
0.504619
1.65031e-06
0.504619
1.51268e-06
0.50462
1.27485e-06
0.504621
1.12849e-06
0.504621
1.15115e-06
0.504622
1.31493e-06
0.504623
1.49295e-06
0.504623
1.50813e-06
0.504624
1.33385e-06
0.504625
1.16437e-06
0.504626
1.15258e-06
0.504627
1.21952e-06
0.504628
1.22934e-06
0.504629
1.18275e-06
0.504629
1.14786e-06
0.50463
1.1607e-06
0.504631
1.21879e-06
0.504632
1.26976e-06
0.504632
1.2581e-06
0.504633
1.21427e-06
0.504634
1.20473e-06
0.504635
1.21011e-06
0.504635
1.19965e-06
0.504636
1.2526e-06
0.504636
1.43267e-06
0.504637
1.63518e-06
0.504637
1.72084e-06
0.504637
1.72841e-06
0.504637
1.79017e-06
0.504637
1.88408e-06
0.504637
1.84938e-06
0.504637
1.64575e-06
0.504637
1.44574e-06
0.504637
1.42497e-06
0.504637
1.56131e-06
0.504637
1.69328e-06
0.504637
1.72346e-06
0.504637
1.7064e-06
0.504637
1.73199e-06
0.504638
1.76945e-06
0.504638
1.68641e-06
0.504638
1.45613e-06
0.504639
1.25425e-06
0.504639
1.24324e-06
0.504639
1.36876e-06
0.50464
1.49445e-06
0.50464
1.59194e-06
0.50464
1.64321e-06
0.504641
1.55795e-06
0.504641
1.37205e-06
0.504641
1.31433e-06
0.504641
1.49927e-06
0.50464
1.75809e-06
0.50464
1.90305e-06
0.50464
1.94251e-06
0.50464
1.93143e-06
0.50464
1.82919e-06
0.50464
1.63104e-06
0.504639
1.47234e-06
0.504639
1.49423e-06
0.504639
1.68473e-06
0.504639
1.8823e-06
0.504638
1.91255e-06
0.504638
1.74683e-06
0.504638
1.51367e-06
0.504638
1.33206e-06
0.504638
1.22328e-06
0.504638
1.21523e-06
0.504639
1.36991e-06
0.504639
1.62785e-06
0.504639
1.80118e-06
0.504639
1.79551e-06
0.50464
1.67085e-06
0.50464
1.46968e-06
0.504641
1.19529e-06
0.504641
9.53025e-07