/*--------------------------------*- C++ -*----------------------------------*\
| =========                 |                                                 |
| \\      /  F ield         | OpenFOAM: The Open Source CFD Toolbox           |
|  \\    /   O peration     | Version:  2406                                  |
|   \\  /    A nd           | Website:  www.openfoam.com                      |
|    \\/     M anipulation  |                                                 |
\*---------------------------------------------------------------------------*/
FoamFile
{
    version     2.0;
    format      ascii;
    arch        "LSB;label=32;scalar=64";
    class       volScalarField;
    location    "0.9";
    object      p_rgh;
}
// * * * * * * * * * * * * * * * * * * * * * * * * * * * * * * * * * * * * * //

dimensions      [1 -1 -2 0 0 0 0];

internalField   nonuniform List<scalar> 
6250
(
153.446
-3001.82
-892.802
643.272
606.052
150.655
-7.59365
66.1226
140.046
146.046
126.049
116.166
117.825
120.912
121.134
119.844
118.819
118.337
117.993
117.54
116.998
116.459
115.948
115.443
114.933
114.42
113.91
113.406
112.898
112.386
111.87
111.356
110.847
110.339
109.827
109.314
108.806
108.301
107.792
107.277
106.762
106.253
105.746
105.238
104.726
104.214
103.7
103.187
102.677
102.168
101.658
101.148
100.638
100.129
99.6183
99.1081
98.5998
98.091
97.5786
97.0654
96.556
96.0495
95.5427
95.0346
94.5252
94.0143
93.5038
92.995
92.4863
91.9763
91.4665
90.9587
90.4513
89.9421
89.4317
88.9215
88.4112
87.9021
87.3954
86.8883
86.3783
85.8678
85.3595
84.8521
84.3434
83.8331
83.323
82.8145
82.3072
81.7998
81.2909
80.7802
80.2705
79.7629
79.255
78.7452
78.2352
77.7262
77.2173
76.7093
76.2028
75.6955
75.185
74.673
74.1623
73.653
73.144
72.6359
72.1285
71.6194
71.1082
70.5973
70.0875
69.5772
69.0662
68.5562
68.0475
67.5386
67.0285
66.5166
66.0038
65.4926
64.9842
64.476
63.9654
63.453
62.9408
62.4285
61.917
61.4086
60.9024
60.3934
59.8792
59.3636
58.85
58.3374
57.8253
57.3161
56.8105
56.3046
55.7942
55.2797
54.7642
54.2497
53.7359
53.2221
52.7102
52.2025
51.6984
51.1929
50.682
50.167
49.6506
49.134
48.6183
48.1066
47.5992
47.0924
46.5838
46.0755
45.5689
45.0607
44.5475
44.0304
43.5131
42.9989
42.4885
41.9808
41.4745
40.9683
40.4612
39.9517
39.4408
38.9309
38.4215
37.9089
37.3932
36.8798
36.372
35.8668
35.3604
34.8532
34.346
33.838
33.3287
32.8191
32.3088
31.7966
31.2839
30.773
30.2649
29.759
29.2541
28.7488
28.2428
27.7379
27.2339
26.7277
26.2183
25.708
25.1975
24.6838
24.1671
23.652
23.1403
22.6299
22.1192
21.6095
21.1018
20.5962
20.0932
19.5923
19.0906
18.5865
18.0805
17.574
17.068
16.5624
16.0552
15.5434
15.0283
14.5143
14.0023
13.4885
12.9716
12.4554
11.9415
11.428
10.9136
10.4
9.88774
9.37573
8.86419
8.35443
7.84658
7.33943
6.83197
6.32438
5.81808
5.31387
4.81024
4.30502
3.79871
3.29319
2.78824
2.28237
1.7758
1.26943
0.763104
0.253984
153.421
-3001.9
-892.849
643.278
606.069
150.654
-7.60625
66.1211
140.05
146.05
126.042
116.155
117.82
120.918
121.14
119.843
118.817
118.335
117.988
117.538
116.998
116.458
115.949
115.448
114.94
114.425
113.908
113.395
112.884
112.377
111.873
111.363
110.849
110.339
109.833
109.322
108.806
108.294
107.788
107.28
106.767
106.253
105.74
105.23
104.721
104.213
103.704
103.192
102.681
102.172
101.66
101.146
100.634
100.126
99.6184
99.1081
98.5972
98.0887
97.5797
97.0681
96.5578
96.0512
95.5446
95.0353
94.5245
94.0138
93.5039
92.9951
92.4863
91.9765
91.4665
90.959
90.4524
89.9418
89.4281
88.9179
88.4117
87.9053
87.3974
86.8883
86.3772
85.8656
85.3567
84.8506
84.3442
83.8358
83.3261
82.8166
82.3074
81.7986
81.29
80.7801
80.2699
79.7624
79.2568
78.7487
78.2378
77.7265
77.2158
76.7062
76.1996
75.6949
75.187
74.6738
74.1601
73.6499
73.1423
72.6354
72.1289
71.6207
71.1084
70.5941
70.0822
69.5743
69.0678
68.56
68.0494
67.5361
67.0229
66.5123
66.0032
65.494
64.9855
64.4776
63.9668
63.4525
62.9389
62.4283
61.9185
61.4089
60.9017
60.3952
59.8835
59.3657
58.848
58.3347
57.8249
57.3171
56.8116
56.307
55.7988
55.284
54.7642
54.2449
53.7307
53.2215
52.7139
52.2063
51.7002
51.1946
50.6847
50.1686
49.6499
49.1322
48.6159
48.1027
47.5959
47.094
46.5903
46.0818
45.5706
45.0592
44.5461
44.0301
43.513
42.998
42.487
41.9795
41.4734
40.968
40.4635
39.9575
39.446
38.9304
38.4167
37.9063
37.3946
36.881
36.3701
35.8638
35.3588
34.8532
34.3476
33.8407
33.3303
32.818
32.3065
31.7958
31.2846
30.7732
30.2625
29.7542
29.2499
28.7481
28.2447
27.7394
27.2345
26.7293
26.2201
25.7076
25.1958
24.6842
24.1692
23.652
23.1378
22.6273
22.118
21.6096
21.1029
20.5974
20.0927
19.5897
19.0883
18.5871
18.0847
17.58
17.0719
16.5625
16.0544
15.5458
15.0326
14.5164
14.0022
13.4896
12.9746
12.4572
11.9414
11.4279
10.9144
10.4009
9.88899
9.37843
8.86762
8.35661
7.84683
7.33933
6.83366
6.32803
5.82147
5.31538
4.81095
4.3067
3.80121
3.29594
2.79198
2.28724
1.78
1.27153
0.764397
0.254032
153.416
-3001.88
-892.83
643.286
606.071
150.657
-7.60273
66.1145
140.044
146.048
126.048
116.166
117.824
120.913
121.138
119.847
118.826
118.344
117.992
117.539
117
116.456
115.942
115.441
114.934
114.424
113.914
113.407
112.895
112.38
111.871
111.364
110.85
110.335
109.827
109.321
108.809
108.293
107.783
107.278
106.77
106.258
105.745
105.233
104.722
104.211
103.701
103.19
102.679
102.17
101.66
101.148
100.636
100.125
99.6178
99.1093
98.5983
98.0884
97.5802
97.0704
96.5597
96.0507
95.542
95.0317
94.5218
94.0138
93.5061
92.9968
92.4865
91.9765
91.467
90.9587
90.4516
89.9424
89.4297
88.9187
88.4121
87.9058
87.3969
86.8871
86.3774
85.8676
85.3585
84.8509
84.3436
83.8351
83.3258
82.8168
82.3076
81.7981
81.2894
80.781
80.2714
79.7623
79.2551
78.747
78.2362
77.7255
77.2169
76.7089
76.2009
75.6938
75.1859
74.6745
74.1614
73.651
73.1439
72.6372
72.1293
71.6202
71.1086
70.595
70.0832
69.5752
69.0689
68.561
68.0502
67.5366
67.0226
66.5117
66.0046
65.4977
64.9888
64.4783
63.9659
63.4508
62.9364
62.4269
61.9205
61.4127
60.9029
60.393
59.8808
59.3641
58.8464
58.3335
57.8259
57.3199
56.8134
56.306
55.7965
55.2827
54.7643
54.2442
53.7278
53.2186
52.7142
52.2096
51.7025
51.1939
50.6824
50.1663
49.6479
49.1312
48.6173
48.1049
47.596
47.0924
46.5905
46.0841
45.5718
45.0568
44.5417
44.0269
43.5126
42.9994
42.4887
41.9811
41.4752
40.9688
40.4619
39.9551
39.4457
38.931
38.415
37.9027
37.3934
36.8831
36.3727
35.8651
35.3596
34.8535
34.347
33.8403
33.3314
32.8193
32.3062
31.794
31.2827
30.7728
30.2643
29.7565
29.2507
28.7479
28.2458
27.7413
27.2354
26.7298
26.2218
25.7087
25.1939
24.6813
24.1689
23.6539
23.1385
22.6259
22.1159
21.6082
21.103
20.5993
20.0953
19.5916
19.0888
18.5864
18.0834
17.5793
17.0725
16.5622
16.0516
15.5428
15.0325
14.5174
14.0008
13.4866
12.9731
12.4575
11.9413
11.4268
10.9132
10.3992
9.88615
9.37512
8.86541
8.35604
7.84693
7.3387
6.83204
6.32649
5.82044
5.3138
4.8085
4.30478
3.80029
3.29422
2.78845
2.28357
1.77774
1.27018
0.761919
0.253866
153.414
-3001.89
-892.846
643.274
606.067
150.648
-7.60488
66.1198
140.05
146.047
126.041
116.16
117.822
120.911
121.138
119.839
118.813
118.338
117.99
117.535
116.998
116.462
115.949
115.444
114.934
114.422
113.91
113.402
112.891
112.374
111.865
111.363
110.853
110.338
109.828
109.32
108.812
108.299
107.784
107.274
106.766
106.256
105.744
105.234
104.723
104.211
103.7
103.189
102.678
102.169
101.661
101.151
100.639
100.126
99.6169
99.1086
98.5976
98.086
97.5779
97.0712
96.5619
96.0511
95.5407
95.0308
94.5219
94.0145
93.5066
92.9965
92.4857
91.9765
91.4681
90.9584
90.4489
89.9405
89.4307
88.9203
88.4123
87.9051
87.3954
86.8848
86.3759
85.868
85.3597
84.8509
84.3422
83.8337
83.3252
82.8171
82.3083
81.798
81.2879
80.7803
80.2731
79.7643
79.2553
78.7461
78.2351
77.7244
77.2169
76.7109
76.2028
75.6928
75.1829
74.6728
74.1619
73.6525
73.1455
72.6379
72.1276
71.6162
71.1052
70.5944
70.0844
69.5762
69.0686
68.5594
68.0484
67.536
67.023
66.5116
66.004
65.4978
64.9891
64.4775
63.9646
63.4503
62.9356
62.4248
61.9193
61.4145
60.9054
60.393
59.8794
59.364
58.8472
58.3335
57.8256
57.3211
56.8153
56.3062
55.794
55.2798
54.7638
54.2466
53.7304
53.219
52.7137
52.2105
51.7043
51.1944
50.6817
50.1656
49.6467
49.1296
48.6173
48.1079
47.5992
47.0924
46.5884
46.0834
45.5734
45.0585
44.5416
44.0253
43.5108
42.9985
42.4886
41.9815
41.4768
40.9712
40.4629
39.9537
39.4448
38.933
38.4171
37.9017
37.3906
36.8818
36.3732
35.866
35.3608
34.855
34.3473
33.8393
33.3305
32.8195
32.3066
31.7935
31.2814
30.7712
30.2638
29.7574
29.2512
28.7468
28.2446
27.7413
27.235
26.7282
26.2213
25.7106
25.1954
24.68
24.1667
23.6535
23.1395
22.6269
22.1164
21.6077
21.1013
20.5977
20.0952
19.5925
19.0897
18.5865
18.0823
17.5782
17.0736
16.5654
16.0535
15.5417
15.0315
14.5188
14.0025
13.4863
12.9722
12.458
11.9424
11.4277
10.9143
10.4012
9.88794
9.37588
8.86555
8.35651
7.84805
7.33979
6.83236
6.32669
5.82185
5.3161
4.81008
4.3056
3.80189
3.29673
2.79037
2.28458
1.77905
1.27215
0.763756
0.254973
153.416
-3001.89
-892.848
643.271
606.067
150.651
-7.60864
66.121
140.056
146.053
126.04
116.16
117.822
120.909
121.139
119.847
118.82
118.343
117.992
117.536
116.998
116.46
115.945
115.443
114.938
114.423
113.908
113.401
112.898
112.385
111.869
111.359
110.85
110.34
109.827
109.315
108.808
108.301
107.788
107.275
106.765
106.255
105.744
105.235
104.725
104.212
103.699
103.189
102.68
102.171
101.66
101.149
100.638
100.127
99.6161
99.1075
98.5988
98.0885
97.5796
97.0717
96.5616
96.0496
95.5392
95.0311
94.5236
94.0156
93.5068
92.9966
92.4857
91.9764
91.4689
90.9598
90.4491
89.9399
89.4318
88.9222
88.4128
87.9048
87.3956
86.8852
86.3759
85.8683
85.3606
84.8521
84.3433
83.8347
83.3259
82.817
82.3083
81.7985
81.2881
80.7801
80.2738
79.7659
79.2557
78.7453
78.2347
77.7242
77.2163
76.7109
76.2042
75.6937
75.182
74.6719
74.1627
73.6541
73.1467
72.6389
72.1279
71.615
71.1034
70.5943
70.0863
69.5787
69.0703
68.5594
68.0467
67.5345
67.0234
66.5136
66.006
65.4998
64.991
64.4778
63.9632
63.4496
62.9367
62.4255
61.9188
61.4146
60.907
60.3938
59.8781
59.3627
58.8476
58.3343
57.8257
57.3212
56.8167
56.3081
55.7941
55.277
54.76
54.245
53.7318
53.2211
52.7144
52.2106
51.7049
51.1944
50.6804
50.1644
49.6462
49.1284
48.6156
48.1084
47.6026
47.0958
46.5887
46.0814
45.5714
45.0575
44.5409
44.0243
43.5099
42.9985
42.4895
41.9823
41.4773
40.9727
40.4649
39.9534
39.4419
38.9309
38.4176
37.9024
37.3897
36.8808
36.3733
35.8664
35.3613
34.8564
34.3491
33.8399
33.3299
32.8188
32.3064
31.7936
31.2813
30.7702
30.2621
29.7569
29.2523
28.7478
28.245
27.7428
27.2372
26.7285
26.2199
25.7106
25.1973
24.681
24.1656
23.652
23.1389
22.6269
22.1171
21.6088
21.1018
20.5973
20.0947
19.5928
19.0907
18.588
18.0834
17.5773
17.0718
16.5655
16.0551
15.5418
15.0296
14.518
14.0036
13.4869
12.9713
12.4569
11.9418
11.4266
10.9128
10.4002
9.88783
9.3758
8.86486
8.3554
7.84732
7.33972
6.832
6.32526
5.82028
5.31557
4.80976
4.30421
3.80014
3.29604
2.79024
2.28362
1.77728
1.27055
0.762622
0.254164
153.42
-3001.9
-892.854
643.271
606.069
150.654
-7.61166
66.1056
140.044
146.052
126.042
116.162
117.826
120.911
121.139
119.844
118.813
118.338
117.992
117.534
116.994
116.46
115.947
115.441
114.938
114.427
113.911
113.398
112.892
112.382
111.867
111.356
110.848
110.341
109.83
109.317
108.807
108.299
107.788
107.275
106.764
106.254
105.744
105.235
104.725
104.212
103.698
103.187
102.68
102.171
101.659
101.147
100.639
100.129
99.6166
99.1056
98.5979
98.0902
97.5808
97.0704
96.5593
96.0481
95.539
95.032
94.5247
94.0156
93.5058
92.9959
92.4853
91.975
91.4671
90.9596
90.4499
89.9398
89.4311
88.9215
88.4113
87.9027
87.3951
86.8861
86.3765
85.8675
85.3593
84.851
84.3425
83.8344
83.3256
82.8159
82.3069
81.7984
81.2892
80.7804
80.2731
79.7649
79.2544
78.744
78.235
77.7262
77.2173
76.7099
76.2026
75.6928
75.1814
74.6718
74.164
73.6557
73.1466
72.6371
72.1262
71.6136
71.1021
70.5936
70.0867
69.5795
69.0707
68.5589
68.0449
67.5321
67.0227
66.5152
66.008
65.5008
64.9912
64.477
63.9605
63.4466
62.9361
62.4271
61.9196
61.414
60.9068
60.394
59.8772
59.3609
58.8473
58.3359
57.8271
57.321
56.8155
56.3074
55.7942
55.2766
54.7582
54.2431
53.7322
53.2236
52.7165
52.211
51.7046
51.1938
50.6788
50.1626
49.6462
49.1297
48.6159
48.1077
47.6035
47.0984
46.5906
46.0809
45.5693
45.0553
44.5395
44.0236
43.5095
42.9988
42.4908
41.9837
41.4775
40.9725
40.4661
39.9551
39.4411
38.9282
38.4161
37.9028
37.3901
36.8807
36.3739
35.8673
35.3616
34.8567
34.3502
33.8408
33.3297
32.8177
32.3051
31.7927
31.2812
30.7703
30.2613
29.7558
29.2524
28.7484
28.2445
27.7421
27.2382
26.7299
26.2192
25.7088
25.197
24.682
24.1659
23.6513
23.1379
22.6259
22.1162
21.6089
21.1026
20.5977
20.0946
19.5922
19.09
18.5881
18.0847
17.5783
17.0708
16.5641
16.0558
15.5433
15.0292
14.5164
14.0032
13.4877
12.9716
12.4567
11.9423
11.4273
10.9129
10.3999
9.88786
9.37642
8.86556
8.35559
7.84718
7.34019
6.83329
6.32618
5.82034
5.31598
4.8112
4.30541
3.80025
3.29612
2.79125
2.28491
1.7781
1.2712
0.763263
0.255005
153.413
-3001.9
-892.848
643.266
606.058
150.649
-7.60869
66.1149
140.053
146.055
126.037
116.158
117.826
120.906
121.133
119.848
118.822
118.341
117.993
117.537
116.996
116.459
115.945
115.442
114.937
114.424
113.911
113.399
112.891
112.386
111.874
111.359
110.847
110.339
109.831
109.318
108.806
108.298
107.789
107.276
106.763
106.253
105.744
105.235
104.725
104.213
103.701
103.19
102.679
102.169
101.658
101.148
100.639
100.13
99.6172
99.1048
98.597
98.0907
97.5812
97.0697
96.5591
96.0497
95.5411
95.033
94.5247
94.0154
93.5056
92.9961
92.4862
91.9756
91.4668
90.9604
90.4522
89.9414
89.4309
88.9211
88.4112
87.9027
87.3958
86.888
86.3783
85.8681
85.3592
84.8512
84.3433
83.8352
83.3264
82.8162
82.3064
81.7987
81.2914
80.7827
80.2736
79.7642
79.2535
78.7431
78.2353
77.7286
77.2201
76.7101
76.2007
75.6913
75.1813
74.6725
74.1657
73.6582
73.1477
72.6359
72.1241
71.6126
71.1026
70.5951
70.0885
69.5805
69.0705
68.5584
68.0445
67.5315
67.0225
66.5168
66.0106
65.5022
64.9915
64.4772
63.96
63.4449
62.9352
62.4288
61.9222
61.415
60.9065
60.394
59.8772
59.3601
58.8466
58.3371
57.8296
57.3227
56.8151
56.3055
55.7927
55.2765
54.7585
54.2426
53.7319
53.2251
52.7189
52.2122
51.7044
51.1931
50.6774
50.1603
49.645
49.1312
48.6185
48.1089
47.6035
47.0991
46.592
46.0814
45.5682
45.0533
44.5378
44.0227
43.5092
42.9989
42.492
41.9862
41.4794
40.9723
40.4655
39.956
39.4421
38.927
38.4138
37.9018
37.3901
36.8808
36.3746
35.869
35.3629
34.857
34.3505
33.8416
33.3303
32.8177
32.3042
31.7912
31.2801
30.7704
30.2615
29.7552
29.2522
28.7495
28.2453
27.7415
27.2382
26.7317
26.2207
25.7082
25.1958
24.682
24.1666
23.6517
23.1382
22.6259
22.1157
21.6084
21.103
20.5986
20.0954
19.5929
19.09
18.5874
18.0849
17.58
17.0717
16.5631
16.0549
15.5443
15.0302
14.5157
14.0022
13.4878
12.9719
12.4563
11.9419
11.4275
10.9131
10.3996
9.88731
9.3761
8.86576
8.35586
7.84675
7.33933
6.83306
6.32646
5.81994
5.31496
4.8109
4.30588
3.80013
3.29511
2.79047
2.28473
1.77783
1.27052
0.762618
0.254426
153.411
-3001.91
-892.853
643.27
606.067
150.657
-7.60886
66.1032
140.036
146.05
126.042
116.159
117.827
120.911
121.135
119.844
118.813
118.336
117.997
117.538
116.992
116.458
115.946
115.442
114.937
114.425
113.912
113.399
112.888
112.379
111.871
111.361
110.849
110.338
109.828
109.318
108.807
108.298
107.789
107.277
106.765
106.255
105.745
105.233
104.721
104.211
103.702
103.191
102.678
102.167
101.658
101.149
100.639
100.128
99.6173
99.1061
98.5972
98.0896
97.5799
97.0688
96.5594
96.0512
95.5425
95.0327
94.5232
94.0143
93.5049
92.9952
92.4854
91.9754
91.4663
90.9596
90.4521
89.9407
89.4287
88.9194
88.4114
87.9035
87.3957
86.8871
86.3773
85.8673
85.3587
84.8511
84.3429
83.8338
83.3249
82.8155
82.3062
81.7985
81.2915
80.7826
80.2721
79.7621
79.2527
78.7434
78.2357
77.7292
77.2208
76.7096
76.1984
75.6893
75.1812
74.6734
74.1663
73.6585
73.1475
72.6343
72.1217
71.6112
71.1027
70.5961
70.0898
69.5809
69.069
68.556
68.0432
67.5316
67.0232
66.518
66.012
65.5024
64.9898
64.4756
63.9597
63.4446
62.9344
62.4289
61.9235
61.4155
60.9052
60.3925
59.8768
59.36
58.8461
58.3368
57.8306
57.3243
56.8156
56.3037
55.7895
55.2742
54.7583
54.2435
53.7324
53.2257
52.7202
52.2128
51.7035
51.1918
50.6764
50.1587
49.6429
49.1307
48.6206
48.1116
47.6047
47.0991
46.5917
46.0807
45.5667
45.0511
44.5357
44.0218
43.5095
42.9993
42.4923
41.9875
41.4816
40.9732
40.4642
39.9545
39.4418
38.9266
38.4124
37.9007
37.39
36.8808
36.3746
35.8701
35.3646
34.858
34.3506
33.8414
33.3301
32.8174
32.3039
31.7902
31.2784
30.7693
30.2615
29.7549
29.2514
28.7499
28.2468
27.7418
27.237
26.7314
26.222
25.7089
25.1951
24.681
24.166
23.6512
23.138
22.6261
22.1157
21.608
21.1026
20.5984
20.0956
19.5935
19.0907
18.587
18.0837
17.58
17.0728
16.563
16.0534
15.5437
15.031
14.516
14.0014
13.4873
12.972
12.4563
11.9413
11.4271
10.9132
10.3998
9.88727
9.37584
8.86571
8.35635
7.84721
7.33908
6.83275
6.32703
5.82072
5.31487
4.81055
4.30645
3.80116
3.29544
2.79023
2.28482
1.77833
1.27103
0.762996
0.254703
153.4
-3001.91
-892.852
643.263
606.056
150.644
-7.6074
66.1188
140.046
146.05
126.038
116.154
117.827
120.917
121.133
119.842
118.818
118.336
117.994
117.54
116.996
116.459
115.946
115.441
114.934
114.424
113.915
113.404
112.891
112.379
111.87
111.364
110.852
110.336
109.826
109.319
108.809
108.297
107.786
107.276
106.765
106.255
105.745
105.234
104.723
104.212
103.702
103.191
102.678
102.167
101.659
101.15
100.638
100.126
99.6169
99.1077
98.5977
98.0882
97.579
97.0697
96.5609
96.0519
95.5423
95.0323
94.5234
94.0152
93.5056
92.9947
92.4851
91.9771
91.4689
90.9608
90.4519
89.94
89.4277
88.9193
88.4136
87.9066
87.3972
86.8868
86.3766
85.8676
85.3599
84.8526
84.3439
83.8336
83.3241
82.8163
82.3086
81.8006
81.2923
80.7823
80.2708
79.7607
79.2532
78.7462
78.2384
77.7303
77.2209
76.709
76.1971
75.6883
75.1822
74.6759
74.1681
73.6588
73.1471
72.6333
72.1207
71.6113
71.1042
70.598
70.0912
69.5816
69.0683
68.5542
68.0421
67.5324
67.0249
66.5196
66.0135
65.5031
64.9885
64.4734
63.9592
63.446
62.9358
62.4298
61.9249
61.4166
60.9045
60.3907
59.876
59.361
58.8477
58.3379
57.8311
57.3248
56.8161
56.3036
55.788
55.2722
54.7579
54.245
53.7345
53.2272
52.7214
52.2136
51.7027
51.1901
50.6756
50.1588
49.6426
49.1304
48.6219
48.1146
47.6072
47.0998
46.5913
46.08
45.5658
45.0499
44.5342
44.0209
43.5101
43.001
42.4935
41.9884
41.4834
40.9754
40.4645
39.9531
39.4408
38.9263
38.4117
37.8998
37.3903
36.8819
36.3754
35.8708
35.3661
34.8595
34.3514
33.8417
33.3298
32.8168
32.3035
31.79
31.2775
30.7682
30.2614
29.7554
29.251
28.7494
28.2479
27.7435
27.2371
26.7306
26.2221
25.7098
25.1955
24.6809
24.1659
23.6509
23.1376
22.6262
22.1163
21.6083
21.1028
20.5987
20.0956
19.5937
19.0918
18.588
18.0834
17.5793
17.0736
16.5642
16.0531
15.5425
15.0309
14.5167
14.0015
13.4869
12.9721
12.4566
11.9414
11.427
10.9132
10.4
9.88754
9.37583
8.86542
8.35646
7.84791
7.33944
6.83232
6.32684
5.82136
5.3153
4.81004
4.30593
3.80144
3.29587
2.79013
2.28446
1.77809
1.27084
0.762773
0.254589
153.399
-3001.92
-892.86
643.265
606.057
150.649
-7.61059
66.1123
140.04
146.049
126.043
116.153
117.816
120.914
121.14
119.845
118.816
118.335
117.994
117.538
116.995
116.459
115.947
115.443
114.935
114.425
113.914
113.401
112.889
112.378
111.868
111.361
110.85
110.336
109.826
109.319
108.81
108.299
107.788
107.278
106.766
106.252
105.741
105.233
104.725
104.213
103.701
103.189
102.678
102.167
101.658
101.149
100.638
100.126
99.6166
99.1076
98.5975
98.0879
97.5798
97.0715
96.5616
96.0508
95.5405
95.0316
94.5238
94.0155
93.5053
92.9934
92.4835
91.9771
91.47
90.9602
90.4493
89.9381
89.4275
88.9198
88.4143
87.9068
87.3961
86.8847
86.3753
85.8678
85.3605
84.8524
84.3427
83.8318
83.3223
82.8158
82.3098
81.8016
81.2913
80.78
80.2684
79.7588
79.253
78.7482
78.2407
77.7303
77.2187
76.7067
76.1953
75.6871
75.1823
74.6773
74.169
73.6578
73.145
72.6316
72.1197
71.6113
71.1053
70.5991
70.0912
69.5808
69.0672
68.5528
68.041
67.5328
67.0262
66.5201
66.0132
65.5028
64.9878
64.4716
63.9579
63.4468
62.9375
62.4305
61.9247
61.4166
60.9039
60.3887
59.8739
59.3607
58.8492
58.3397
57.8318
57.3239
56.8146
56.3022
55.7867
55.2705
54.7568
54.2457
53.7363
53.2284
52.7217
52.2135
51.7017
51.1876
50.6731
50.1582
49.6432
49.1307
48.6222
48.1159
47.6089
47.1005
46.5903
46.0779
45.5636
45.0482
44.5329
44.0197
43.5099
43.0022
42.4951
41.9888
41.4835
40.9762
40.465
39.9518
39.4387
38.9249
38.4107
37.8987
37.3899
36.8827
36.3764
35.8714
35.3667
34.8604
34.352
33.8418
33.3294
32.8157
32.3022
31.7892
31.2768
30.7669
30.2606
29.7559
29.2514
28.7486
28.2474
27.7445
27.2383
26.7303
26.2214
25.7098
25.1955
24.6805
24.1656
23.6507
23.1371
22.6258
22.1163
21.6086
21.103
20.599
20.0955
19.5931
19.0916
18.5889
18.0837
17.5782
17.0727
16.5648
16.0536
15.5416
15.0299
14.5166
14.0016
13.4864
12.9716
12.4565
11.9413
11.4267
10.9128
10.3998
9.8877
9.3761
8.86518
8.35586
7.84788
7.33997
6.83233
6.3263
5.8214
5.316
4.81026
4.30544
3.80117
3.29615
2.79036
2.28443
1.77811
1.27093
0.762943
0.254532
153.404
-3001.91
-892.855
643.268
606.06
150.646
-7.61902
66.1114
140.046
146.05
126.041
116.154
117.82
120.913
121.135
119.84
118.817
118.336
117.992
117.538
116.999
116.462
115.946
115.441
114.934
114.423
113.912
113.402
112.893
112.382
111.87
111.36
110.852
110.341
109.828
109.316
108.806
108.298
107.789
107.279
106.767
106.253
105.742
105.233
104.724
104.213
103.701
103.19
102.68
102.168
101.657
101.148
100.64
100.129
99.6165
99.1061
98.5968
98.0884
97.5805
97.0714
96.5605
96.0494
95.5402
95.0328
94.525
94.0156
93.505
92.9942
92.4849
91.9784
91.471
90.9595
90.4473
89.9379
89.4304
88.9233
88.4156
87.906
87.3944
86.8839
86.3764
85.8705
85.363
84.8528
84.3417
83.8314
83.3231
82.8174
82.3119
81.803
81.2908
80.7785
80.2678
79.7596
79.2545
78.7503
78.2429
77.731
77.2174
76.7054
76.1955
75.6882
75.1836
74.6787
74.1701
73.6575
73.1438
72.631
72.1204
71.613
71.1075
70.6008
70.0912
69.5795
69.0662
68.5527
68.0415
67.534
67.028
66.5208
66.0121
65.5013
64.9873
64.4715
63.9579
63.4481
62.9401
62.4322
61.9245
61.4156
60.9033
60.3882
59.8732
59.3606
58.8505
58.342
57.8337
57.3242
56.8131
56.3003
55.7857
55.2703
54.7569
54.2469
53.7386
53.2305
52.7224
52.2134
51.7014
51.1863
50.671
50.1571
49.6443
49.1328
48.624
48.1175
47.6106
47.1016
46.5902
46.0767
45.5619
45.047
44.5326
44.0198
43.5102
43.0037
42.4977
41.9909
41.484
40.9764
40.4657
39.9518
39.4375
38.9239
38.4105
37.8985
37.3898
36.8837
36.3782
35.8729
35.3679
34.8615
34.3528
33.8422
33.3296
32.8153
32.3012
31.7884
31.2766
30.7664
30.2596
29.756
29.2527
28.7492
28.2469
27.7446
27.2395
26.7311
26.2212
25.7097
25.1956
24.6804
24.1654
23.6509
23.1372
22.6257
22.1164
21.6089
21.1033
20.5997
20.0965
19.5933
19.0912
18.5892
18.0848
17.5783
17.0718
16.5645
16.0543
15.5419
15.0293
14.5163
14.0019
13.4866
12.9715
12.4565
11.9415
11.4269
10.913
10.3998
9.88777
9.37668
8.86585
8.35592
7.84774
7.34048
6.83307
6.32634
5.82118
5.31648
4.81105
4.3056
3.80089
3.29616
2.79062
2.28456
1.77815
1.27104
0.762847
0.254619
153.4
-3001.92
-892.862
643.262
606.056
150.645
-7.61697
66.113
140.044
146.046
126.045
116.16
117.817
120.909
121.139
119.847
118.818
118.335
117.991
117.534
116.995
116.46
115.948
115.443
114.935
114.423
113.911
113.4
112.89
112.38
111.869
111.359
110.851
110.341
109.829
109.317
108.806
108.297
107.786
107.275
106.766
106.256
105.744
105.232
104.722
104.212
103.702
103.19
102.679
102.168
101.657
101.148
100.64
100.129
99.6161
99.1061
98.5984
98.0904
97.5805
97.0693
96.5584
96.0492
95.5416
95.0341
94.5245
94.0133
93.5033
92.995
92.4868
91.9784
91.469
90.957
90.4454
89.938
89.433
88.9256
88.4148
87.9025
87.3913
86.8831
86.3775
85.8721
85.3634
84.8512
84.339
83.8299
83.3237
82.8185
82.3123
81.8021
81.2885
80.7757
80.2667
79.7607
79.2561
78.7508
78.2424
77.7294
77.2149
76.7033
76.1955
75.6897
75.1844
74.6783
74.1689
73.6556
73.1418
72.6301
72.121
71.6142
71.1085
70.6012
70.0905
69.5776
69.0646
68.5524
68.042
67.5347
67.0288
66.5211
66.0106
65.4987
64.9857
64.4717
63.9588
63.4493
62.9419
62.4337
61.924
61.4133
60.9011
60.3872
59.8732
59.3611
58.8513
58.343
57.8345
57.3241
56.8115
56.2977
55.7838
55.27
54.7573
54.2476
53.74
53.232
52.7224
52.212
51.6998
51.1849
50.669
50.1552
49.6439
49.1341
48.6256
48.1185
47.6111
47.1016
46.5894
46.075
45.5595
45.0448
44.5315
44.0198
43.5103
43.0039
42.499
41.9927
41.4845
40.9755
40.4647
39.9509
39.4359
38.9221
38.4097
37.8984
37.3896
36.8838
36.3791
35.8741
35.3687
34.862
34.3529
33.8418
33.3291
32.8148
32.3
31.7869
31.276
30.7662
30.2588
29.755
29.253
28.7502
28.2469
27.744
27.2395
26.7316
26.2212
25.7093
25.1954
24.68
24.1648
23.6506
23.1372
22.6257
22.1165
21.609
21.1032
20.5996
20.097
19.5939
19.0908
18.5885
18.0852
17.579
17.0712
16.5633
16.0541
15.5422
15.029
14.5156
14.0015
13.4864
12.9711
12.456
11.9412
11.4268
10.913
10.3997
9.88734
9.37644
8.86617
8.35612
7.84731
7.34018
6.8334
6.32654
5.82069
5.31609
4.81136
4.30597
3.80074
3.29586
2.79053
2.28449
1.77802
1.27102
0.762938
0.254649
153.407
-3001.92
-892.864
643.266
606.062
150.652
-7.61882
66.108
140.046
146.045
126.04
116.159
117.82
120.911
121.136
119.843
118.817
118.337
117.992
117.533
116.995
116.461
115.947
115.443
114.935
114.425
113.913
113.401
112.89
112.381
111.872
111.361
110.849
110.339
109.829
109.319
108.808
108.298
107.787
107.276
106.767
106.256
105.744
105.231
104.722
104.214
103.703
103.189
102.677
102.169
101.661
101.15
100.638
100.126
99.6157
99.1075
98.6
98.0904
97.5786
97.067
96.558
96.051
95.5435
95.0344
94.5235
94.0122
93.5034
92.997
92.489
91.9779
91.4667
90.9563
90.4474
89.941
89.4353
88.926
88.4129
87.9001
87.391
86.8855
86.381
85.8742
85.3636
84.8501
84.3378
83.8304
83.3261
82.8213
82.3133
81.8015
81.2873
80.7748
80.2673
79.7633
79.2589
78.7518
78.2416
77.7284
77.2143
76.7033
76.197
75.6924
75.1865
74.6783
74.1676
73.6546
73.1415
72.6311
72.1232
71.6164
71.1095
70.6012
70.0901
69.5769
69.0643
68.5534
68.0438
67.5357
67.0288
66.5208
66.0097
65.4969
64.9845
64.4724
63.9608
63.4511
62.9434
62.4349
61.924
61.4116
60.8989
60.3861
59.8739
59.3629
58.8532
58.3442
57.8349
57.324
56.8106
56.2961
55.7824
55.27
54.7588
54.2492
53.7417
53.2338
52.7235
52.2112
51.698
51.1837
50.6685
50.1548
49.6442
49.1358
48.6281
48.1205
47.612
47.1016
46.5889
46.0743
45.5586
45.0436
44.531
44.0207
43.5119
43.0051
42.5002
41.9946
41.4862
40.9757
40.464
39.9505
39.4353
38.9211
38.4092
37.899
37.3905
36.8846
36.3804
35.8758
35.3702
34.8632
34.3537
33.8419
33.3287
32.8145
32.2995
31.7858
31.2751
30.7665
30.2592
29.7545
29.2528
28.7512
28.248
27.7441
27.2394
26.732
26.2214
25.7091
25.1954
24.6802
24.1647
23.6504
23.1374
22.626
22.1169
21.6097
21.1037
20.5995
20.0972
19.5949
19.0914
18.588
18.0848
17.5796
17.0717
16.5628
16.0534
15.5422
15.0292
14.5155
14.0014
13.4865
12.9711
12.456
11.9412
11.4269
10.9134
10.4002
9.88761
9.37635
8.86646
8.35687
7.84774
7.3402
6.8339
6.32743
5.82104
5.31583
4.81136
4.30644
3.80114
3.296
2.79072
2.2847
1.77808
1.27103
0.763249
0.254584
153.392
-3001.92
-892.862
643.26
606.053
150.647
-7.61752
66.1067
140.046
146.044
126.04
116.16
117.82
120.909
121.135
119.845
118.82
118.341
117.995
117.533
116.993
116.458
115.945
115.442
114.936
114.425
113.913
113.4
112.89
112.38
111.87
111.359
110.848
110.339
109.829
109.316
108.804
108.296
107.789
107.28
106.766
106.252
105.741
105.232
104.724
104.214
103.701
103.187
102.677
102.17
101.662
101.15
100.636
100.125
99.6178
99.1101
98.6
98.088
97.5765
97.0675
96.5602
96.0526
95.5428
95.0316
94.5214
94.0127
93.5054
92.9983
92.4884
91.975
91.4629
90.9555
90.4504
89.9443
89.4356
88.9233
88.4091
87.8973
87.3908
86.8877
86.383
85.874
85.3613
84.8476
84.3366
83.8305
83.3273
82.822
82.3122
81.7992
81.2855
80.7741
80.2674
79.7643
79.2598
78.7509
78.2387
77.7255
77.2132
76.7037
76.1981
75.6937
75.1869
74.6766
74.1646
73.6523
73.1408
72.6317
72.1249
71.618
71.1095
70.5995
70.0881
69.5756
69.0638
68.554
68.0454
67.5367
67.028
66.5189
66.0079
65.4952
64.9833
64.473
63.9631
63.4533
62.944
62.4344
61.923
61.4098
60.8967
60.3848
59.8741
59.3644
58.8551
58.3452
57.8344
57.3225
56.8091
56.2945
55.7809
55.2696
54.7599
54.2508
53.7426
53.2343
52.7237
52.2101
51.6956
51.1814
50.6674
50.1545
49.6442
49.1364
48.6294
48.1217
47.6124
47.1009
46.5873
46.0724
45.557
45.0422
44.5298
44.0206
43.513
43.0061
42.5004
41.9949
41.4868
40.9755
40.4626
39.9489
39.4341
38.9198
38.408
37.8987
37.3911
36.8852
36.3809
35.8766
35.3709
34.8636
34.3539
33.8415
33.3276
32.8135
32.2989
31.7849
31.2737
30.7658
30.2595
29.7545
29.252
28.751
28.2486
27.7445
27.2391
26.7318
26.2213
25.7086
25.1948
24.6799
24.1645
23.6502
23.1373
22.626
22.1168
21.61
21.1044
20.5997
20.0968
19.595
19.0921
18.5879
18.0839
17.5792
17.072
16.5627
16.0527
15.5417
15.0289
14.5151
14.0009
13.4862
12.971
12.4558
11.9409
11.4265
10.9131
10.4005
9.88802
9.37626
8.86606
8.3569
7.84797
7.33994
6.83352
6.32773
5.82162
5.31581
4.81095
4.3063
3.80117
3.2959
2.79068
2.28484
1.77806
1.27081
0.762738
0.254756
153.399
-3001.92
-892.865
643.259
606.06
150.655
-7.61554
66.1053
140.048
146.048
126.037
116.153
117.819
120.915
121.137
119.84
118.812
118.339
118
117.536
116.993
116.459
115.948
115.444
114.933
114.421
113.913
113.404
112.892
112.378
111.866
111.359
110.853
110.343
109.83
109.316
108.805
108.298
107.791
107.279
106.765
106.252
105.743
105.236
104.724
104.211
103.699
103.19
102.681
102.171
101.66
101.147
100.635
100.128
99.6208
99.1105
98.5973
98.0849
97.5765
97.0708
96.5639
96.0534
95.5402
95.0281
94.5204
94.0154
93.5089
92.9993
92.4871
91.9734
91.4623
90.9569
90.4537
89.9469
89.4351
88.9206
88.4071
87.8979
87.3936
86.891
86.385
85.8735
85.3592
84.8466
84.3378
83.8329
83.3293
82.8228
82.3115
81.7979
81.2855
80.7761
80.2699
79.7655
79.2596
78.7496
78.2369
77.7247
77.2148
76.7068
76.2004
75.6946
75.1867
74.6755
74.1632
73.6519
73.1421
72.6339
72.127
71.6194
71.1097
70.5985
70.0869
69.5755
69.0647
68.5555
68.0473
67.5381
67.0276
66.517
66.0061
65.4945
64.9834
64.4741
63.9656
63.4559
62.945
62.4336
61.9214
61.4084
60.8958
60.3846
59.8749
59.366
58.8571
58.3467
57.8345
57.3212
56.8075
56.2935
55.7805
55.2699
54.7615
54.2534
53.7444
53.2348
52.7236
52.2097
51.6942
51.1796
50.6666
50.1552
49.6455
49.1379
48.631
48.1231
47.6132
47.101
46.5866
46.0713
45.5563
45.0421
44.5299
44.021
43.5146
43.0085
42.5021
41.9956
41.4874
40.9759
40.4621
39.9479
39.4336
38.9196
38.4077
37.8989
37.3922
36.8867
36.3824
35.878
35.3721
34.8643
34.3544
33.8418