/*--------------------------------*- C++ -*----------------------------------*\
| =========                 |                                                 |
| \\      /  F ield         | OpenFOAM: The Open Source CFD Toolbox           |
|  \\    /   O peration     | Version:  2406                                  |
|   \\  /    A nd           | Website:  www.openfoam.com                      |
|    \\/     M anipulation  |                                                 |
\*---------------------------------------------------------------------------*/
FoamFile
{
    version     2.0;
    format      ascii;
    arch        "LSB;label=32;scalar=64";
    class       surfaceScalarField;
    location    "0.9";
    object      phi;
}
// * * * * * * * * * * * * * * * * * * * * * * * * * * * * * * * * * * * * * //

dimensions      [0 3 -1 0 0 0 0];

oriented        oriented;

internalField   nonuniform List<scalar> 
12225
(
0.504651
1.67121e-06
0.504644
7.52673e-06
0.504635
8.91665e-06
0.504629
6.09726e-06
0.504625
3.97617e-06
0.504621
3.83506e-06
0.504616
4.4401e-06
0.504612
4.4765e-06
0.504607
4.67659e-06
0.504602
5.09369e-06
0.504596
5.75379e-06
0.50459
6.07201e-06
0.504585
5.71461e-06
0.50458
4.85448e-06
0.504575
4.5965e-06
0.50457
5.00283e-06
0.504565
5.16648e-06
0.50456
5.18912e-06
0.504554
5.25459e-06
0.504549
5.14094e-06
0.504544
4.97739e-06
0.504539
4.98149e-06
0.504534
5.06483e-06
0.504529
5.11241e-06
0.504524
5.0737e-06
0.504519
5.29736e-06
0.504513
5.92459e-06
0.504506
6.53617e-06
0.504499
6.90287e-06
0.504493
6.8051e-06
0.504486
6.28826e-06
0.504481
5.8003e-06
0.504475
5.63634e-06
0.504469
5.57109e-06
0.504464
5.21848e-06
0.504459
4.87719e-06
0.504454
5.03048e-06
0.504449
5.39819e-06
0.504443
5.51828e-06
0.504438
5.44175e-06
0.504432
5.48983e-06
0.504427
5.75209e-06
0.504421
6.03553e-06
0.504414
6.16211e-06
0.504408
6.10927e-06
0.504402
5.90977e-06
0.504397
5.61403e-06
0.504391
5.36875e-06
0.504386
5.29507e-06
0.504381
5.30842e-06
0.504376
5.30855e-06
0.50437
5.36045e-06
0.504365
5.4696e-06
0.504359
5.51042e-06
0.504354
5.48399e-06
0.504348
5.56284e-06
0.504342
5.8279e-06
0.504336
6.09801e-06
0.50433
6.13584e-06
0.504324
5.91562e-06
0.504319
5.55973e-06
0.504313
5.19767e-06
0.504308
5.00747e-06
0.504303
5.07421e-06
0.504298
5.21133e-06
0.504293
5.23414e-06
0.504288
5.21453e-06
0.504282
5.27422e-06
0.504277
5.33726e-06
0.504272
5.30503e-06
0.504267
5.20493e-06
0.504261
5.07759e-06
0.504256
4.99501e-06
0.504251
5.12055e-06
0.504246
5.42839e-06
0.50424
5.57845e-06
0.504235
5.39963e-06
0.50423
5.16602e-06
0.504225
5.13077e-06
0.504219
5.21989e-06
0.504214
5.30299e-06
0.504209
5.37795e-06
0.504203
5.45629e-06
0.504198
5.51644e-06
0.504192
5.53962e-06
0.504187
5.47702e-06
0.504181
5.28075e-06
0.504176
5.02366e-06
0.504172
4.89265e-06
0.504167
4.9549e-06
0.504162
5.07136e-06
0.504156
5.12873e-06
0.504151
5.11614e-06
0.504146
5.00091e-06
0.504141
4.78439e-06
0.504137
4.60596e-06
0.504132
4.57057e-06
0.504128
4.62665e-06
0.504123
4.73362e-06
0.504118
4.90382e-06
0.504113
5.04602e-06
0.504108
5.03865e-06
0.504103
4.98216e-06
0.504098
5.0821e-06
0.504093
5.29813e-06
0.504087
5.41082e-06
0.504082
5.39211e-06
0.504076
5.39363e-06
0.504071
5.44163e-06
0.504066
5.44756e-06
0.50406
5.46953e-06
0.504054
5.64522e-06
0.504048
5.93089e-06
0.504042
6.11211e-06
0.504036
6.06183e-06
0.50403
5.85056e-06
0.504025
5.69519e-06
0.504019
5.78164e-06
0.504013
6.06852e-06
0.504007
6.32753e-06
0.504
6.43693e-06
0.503994
6.46879e-06
0.503987
6.44957e-06
0.503981
6.31612e-06
0.503975
6.12914e-06
0.503969
6.06962e-06
0.503963
6.12064e-06
0.503956
6.12147e-06
0.50395
6.09699e-06
0.503944
6.16514e-06
0.503938
6.19264e-06
0.503932
5.95467e-06
0.503926
5.57156e-06
0.503921
5.40031e-06
0.503916
5.53195e-06
0.50391
5.72684e-06
0.503904
5.821e-06
0.503898
5.85629e-06
0.503892
5.84572e-06
0.503887
5.68329e-06
0.503881
5.34522e-06
0.503876
5.02505e-06
0.503871
4.96281e-06
0.503866
5.16694e-06
0.503861
5.3801e-06
0.503855
5.38592e-06
0.50385
5.27201e-06
0.503845
5.23272e-06
0.50384
5.22587e-06
0.503835
5.07261e-06
0.50383
4.81267e-06
0.503825
4.66884e-06
0.50382
4.7035e-06
0.503816
4.81157e-06
0.503811
4.96343e-06
0.503805
5.16743e-06
0.5038
5.27532e-06
0.503795
5.13166e-06
0.50379
4.84183e-06
0.503786
4.64157e-06
0.503781
4.57202e-06
0.503776
4.50336e-06
0.503772
4.4165e-06
0.503768
4.43017e-06
0.503763
4.5979e-06
0.503758
4.80341e-06
0.503753
4.88853e-06
0.503748
4.84006e-06
0.503744
4.79699e-06
0.503739
4.79778e-06
0.503734
4.66348e-06
0.50373
4.31083e-06
0.503726
4.01495e-06
0.503722
4.07841e-06
0.503717
4.36611e-06
0.503713
4.51338e-06
0.503708
4.48565e-06
0.503704
4.50828e-06
0.503699
4.6314e-06
0.503695
4.72439e-06
0.50369
4.74796e-06
0.503685
4.72765e-06
0.50368
4.62998e-06
0.503676
4.49647e-06
0.503671
4.49883e-06
0.503667
4.68432e-06
0.503662
4.8641e-06
0.503657
4.86807e-06
0.503652
4.74906e-06
0.503648
4.69552e-06
0.503643
4.83681e-06
0.503638
5.11723e-06
0.503632
5.31196e-06
0.503627
5.29554e-06
0.503622
5.21385e-06
0.503617
5.22315e-06
0.503611
5.22893e-06
0.503606
5.11383e-06
0.503601
5.01242e-06
0.503596
5.05704e-06
0.503591
5.10671e-06
0.503586
5.02308e-06
0.503581
4.95747e-06
0.503576
5.07438e-06
0.503571
5.25509e-06
0.503565
5.31744e-06
0.50356
5.29331e-06
0.503555
5.28348e-06
0.50355
5.28946e-06
0.503544
5.28575e-06
0.503539
5.30005e-06
0.503534
5.3257e-06
0.503528
5.30618e-06
0.503523
5.19221e-06
0.503518
4.95637e-06
0.503514
4.64632e-06
0.503509
4.41704e-06
0.503505
4.35683e-06
0.5035
4.33197e-06
0.503496
4.21137e-06
0.503492
4.10852e-06
0.503488
4.14438e-06
0.503484
4.17252e-06
0.50348
4.02782e-06
0.503476
3.83564e-06
0.503472
3.77861e-06
0.503468
3.77819e-06
0.503465
3.67124e-06
0.503461
3.48885e-06
0.503458
3.35e-06
0.503455
3.24042e-06
0.503452
3.08199e-06
0.503449
2.90862e-06
0.503446
2.82485e-06
0.503443
2.84199e-06
0.50344
2.84099e-06
0.503437
2.69406e-06
0.503435
2.41331e-06
0.503433
2.13835e-06
0.503431
1.9485e-06
0.503429
1.80785e-06
0.503427
1.6943e-06
0.503426
1.61646e-06
0.503424
1.5118e-06
0.503423
1.26346e-06
0.503422
9.17176e-07
0.503422
6.75588e-07
0.503421
6.25381e-07
0.50342
6.09589e-07
6.69619e-07
0.504653
1.59478e-07
0.50466
1.68624e-07
0.504668
1.12003e-06
0.504672
2.41714e-06
0.504674
2.3275e-06
0.504676
1.87052e-06
0.504678
2.09687e-06
0.50468
2.70939e-06
0.504681
3.00671e-06
0.504683
2.99179e-06
0.504687
2.36008e-06
0.504691
1.82617e-06
0.504695
2.00381e-06
0.504697
2.39804e-06
0.5047
2.25328e-06
0.504703
1.95649e-06
0.504706
1.72521e-06
0.504709
1.84674e-06
0.504712
2.27972e-06
0.504715
2.662e-06
0.504717
2.91362e-06
0.504719
3.29501e-06
0.50472
3.60796e-06
0.504721
3.6801e-06
0.504723
3.50317e-06
0.504725
3.00938e-06
0.504729
2.44015e-06
0.504734
1.77312e-06
0.504739
1.32906e-06
0.504744
1.6834e-06
0.504748
2.34849e-06
0.504751
2.66058e-06
0.504754
2.57419e-06
0.504757
2.58204e-06
0.50476
2.74001e-06
0.504762
2.52398e-06
0.504765
2.11324e-06
0.504768
2.04822e-06
0.504772
2.26519e-06
0.504775
2.44048e-06
0.504778
2.49012e-06
0.504781
2.54205e-06
0.504784
2.64487e-06
0.504788
2.75607e-06
0.504791
2.82697e-06
0.504794
2.85647e-06
0.504797
2.80915e-06
0.5048
2.63409e-06
0.504802
2.47147e-06
0.504805
2.46582e-06
0.504808
2.46533e-06
0.504811
2.37981e-06
0.504814
2.38685e-06
0.504817
2.54656e-06
0.50482
2.63604e-06
0.504823
2.46389e-06
0.504827
2.15905e-06
0.504831
2.01725e-06
0.504835
2.13545e-06
0.504838
2.36161e-06
0.504841
2.59811e-06
0.504844
2.81535e-06
0.504846
2.95506e-06
0.504848
3.00644e-06
0.50485
2.95895e-06
0.504853
2.75472e-06
0.504855
2.51417e-06
0.504858
2.5115e-06
0.504861
2.76474e-06
0.504863
2.96866e-06
0.504865
2.95884e-06
0.504868
2.80784e-06
0.50487
2.5099e-06
0.504873
2.08077e-06
0.504877
1.79022e-06
0.50488
1.83738e-06
0.504884
2.042e-06
0.504887
2.22829e-06
0.504889
2.4391e-06
0.504892
2.63168e-06
0.504895
2.6321e-06
0.504898
2.44115e-06
0.504901
2.24335e-06
0.504904
2.17508e-06
0.504907
2.27639e-06
0.50491
2.51092e-06
0.504913
2.72324e-06
0.504915
2.73269e-06
0.504918
2.55676e-06
0.50492
2.40262e-06
0.504923
2.35557e-06
0.504926
2.34118e-06
0.504928
2.34923e-06
0.504931
2.41949e-06
0.504933
2.50612e-06
0.504935
2.57653e-06
0.504937
2.65619e-06
0.504939
2.65911e-06
0.504941
2.48137e-06
0.504944
2.27239e-06
0.504947
2.26581e-06
0.504949
2.40639e-06
0.504952
2.46237e-06
0.504955
2.42319e-06
0.504957
2.42331e-06
0.504961
2.39756e-06
0.504964
2.20755e-06
0.504967
1.98147e-06
0.504971
1.97168e-06
0.504974
2.15156e-06
0.504977
2.24544e-06
0.504981
2.15735e-06
0.504984
2.06392e-06
0.504988
2.15382e-06
0.504992
2.45219e-06
0.504995
2.76493e-06
0.504998
2.86392e-06
0.505001
2.75576e-06
0.505004
2.66787e-06
0.505008
2.69094e-06
0.505012
2.68681e-06
0.505016
2.61539e-06
0.505019
2.6255e-06
0.505023
2.72141e-06
0.505026
2.74071e-06
0.50503
2.69109e-06
0.505033
2.72719e-06
0.505037
2.78307e-06
0.50504
2.68157e-06
0.505044
2.54515e-06
0.505047
2.63169e-06
0.50505
2.84377e-06
0.505053
2.86036e-06
0.505056
2.66198e-06
0.505059
2.51762e-06
0.505062
2.52758e-06
0.505065
2.5429e-06
0.505069
2.48383e-06
0.505072
2.43559e-06
0.505075
2.45034e-06
0.505078
2.43948e-06
0.505081
2.31268e-06
0.505084
2.15166e-06
0.505087
2.16981e-06
0.50509
2.4418e-06
0.505092
2.73397e-06
0.505095
2.78132e-06
0.505097
2.64971e-06
0.5051
2.57255e-06
0.505102
2.54448e-06
0.505105
2.40589e-06
0.505107
2.21607e-06
0.50511
2.17665e-06
0.505112
2.27949e-06
0.505115
2.36896e-06
0.505118
2.4347e-06
0.50512
2.52739e-06
0.505123
2.54177e-06
0.505125
2.39391e-06
0.505128
2.23995e-06
0.50513
2.27702e-06
0.505132
2.43094e-06
0.505134
2.48925e-06
0.505136
2.42695e-06
0.505138
2.40253e-06
0.505141
2.52277e-06
0.505143
2.66572e-06
0.505145
2.6077e-06
0.505148
2.35794e-06
0.50515
2.23736e-06
0.505152
2.44282e-06
0.505154
2.69708e-06
0.505155
2.66707e-06
0.505157
2.48618e-06
0.505159
2.49866e-06
0.505161
2.65262e-06
0.505162
2.66332e-06
0.505164
2.52171e-06
0.505167
2.41195e-06
0.505169
2.36686e-06
0.505171
2.35521e-06
0.505174
2.44221e-06
0.505176
2.58734e-06
0.505178
2.57884e-06
0.50518
2.37764e-06
0.505182
2.23169e-06
0.505185
2.32461e-06
0.505187
2.55237e-06
0.505189
2.69513e-06
0.505191
2.64584e-06
0.505194
2.49527e-06
0.505196
2.44438e-06
0.505199
2.54816e-06
0.505202
2.60299e-06
0.505204
2.4744e-06
0.505207
2.34195e-06
0.50521
2.36691e-06
0.505213
2.39854e-06
0.505216
2.32082e-06
0.505218
2.32372e-06
0.505221
2.51389e-06
0.505223
2.65493e-06
0.505226
2.59251e-06
0.505228
2.53527e-06
0.505231
2.65369e-06
0.505233
2.78724e-06
0.505236
2.76824e-06
0.505238
2.6805e-06
0.505241
2.65787e-06
0.505244
2.67843e-06
0.505246
2.65706e-06
0.505249
2.56143e-06
0.505252
2.43281e-06
0.505255
2.38307e-06
0.505257
2.45943e-06
0.505259
2.54256e-06
0.505261
2.52715e-06
0.505263
2.50657e-06
0.505265
2.57091e-06
0.505266
2.59374e-06
0.505268
2.48653e-06
0.50527
2.41773e-06
0.505271
2.4946e-06
0.505273
2.51987e-06
0.505274
2.3459e-06
0.505276
2.16114e-06
0.505278
2.16803e-06
0.505279
2.26955e-06
0.50528
2.29215e-06
0.505281
2.27479e-06
0.505282
2.33284e-06
0.505283
2.41713e-06
0.505283
2.385e-06
0.505284
2.22353e-06
0.505285
2.08792e-06
0.505286
2.12559e-06
0.505286
2.30768e-06
0.505286
2.47761e-06
0.505285
2.54534e-06
0.505285
2.52519e-06
0.505284
2.41996e-06
0.505284
2.24783e-06
0.505283
2.14745e-06
0.505282
2.24807e-06
0.505281
2.44033e-06
0.50528
2.4927e-06
0.505278
2.41242e-06
0.505276
2.36167e-06
0.505274
2.53431e-06
2.4736e-06
0.504655
-1.13594e-07
0.504655
9.02661e-08
0.504655
1.22109e-06
0.504655
1.73956e-06
0.504656
2.19249e-06
0.504655
2.64193e-06
0.504655
2.04505e-06
0.504656
1.57194e-06
0.504658
1.493e-06
0.504658
2.12463e-06
0.504658
2.96609e-06
0.504656
3.15641e-06
0.504656
2.8866e-06
0.504655
2.66229e-06
0.504655
2.50603e-06
0.504654
2.76251e-06
0.504653
2.91465e-06
0.504652
2.51548e-06
0.504652
2.2494e-06
0.504653
2.27118e-06
0.504654
1.99775e-06
0.504656
1.42475e-06
0.504658
1.2473e-06
0.50466
1.43536e-06
0.504662
1.8414e-06
0.504663
2.20008e-06
0.504662
2.69784e-06
0.504661
3.19974e-06
0.504659
3.01616e-06
0.504658
2.52018e-06
0.504659
2.25762e-06
0.504659
2.18707e-06
0.504659
2.09403e-06
0.50466
1.9863e-06
0.504661
2.1272e-06
0.504661
2.36974e-06
0.504661
2.40605e-06
0.50466
2.30377e-06
0.50466
2.26372e-06
0.50466
2.25668e-06
0.504661
2.19955e-06
0.504661
2.12821e-06
0.504662
2.03936e-06
0.504663
1.93823e-06
0.504664
1.88194e-06
0.504664
1.95856e-06
0.504665
2.16344e-06
0.504665
2.25532e-06
0.504666
2.10293e-06
0.504666
1.9435e-06
0.504667
1.91224e-06
0.504667
1.8829e-06
0.504668
1.82817e-06
0.504669
1.91005e-06
0.504669
2.19358e-06
0.504669
2.48159e-06
0.504669
2.52098e-06
0.504668
2.28134e-06
0.504669
1.94101e-06
0.504669
1.69809e-06
0.50467
1.70059e-06
0.504671
1.91763e-06
0.504672
2.08015e-06
0.504673
2.03147e-06
0.504674
1.91949e-06
0.504675
1.88994e-06
0.504675
1.90907e-06
0.504676
1.96925e-06
0.504677
2.11975e-06
0.504677
2.28242e-06
0.504678
2.38934e-06
0.504678
2.5424e-06
0.504678
2.71699e-06
0.504677
2.66697e-06
0.504677
2.4087e-06
0.504676
2.29266e-06
0.504676
2.42675e-06
0.504676
2.57241e-06
0.504675
2.58026e-06
0.504676
2.49008e-06
0.504676
2.34829e-06
0.504676
2.23351e-06
0.504676
2.24695e-06
0.504676
2.34019e-06
0.504676
2.36129e-06
0.504676
2.29229e-06
0.504676
2.25054e-06
0.504677
2.26355e-06
0.504677
2.25618e-06
0.504677
2.22866e-06
0.504678
2.20612e-06
0.504678
2.12796e-06
0.504678
1.99758e-06
0.504679
1.9434e-06
0.504679
1.98965e-06
0.50468
2.02412e-06
0.50468
2.02607e-06
0.504681
2.03026e-06
0.504681
1.975e-06
0.504682
1.8777e-06
0.504682
1.96297e-06
0.504682
2.33517e-06
0.504682
2.735e-06
0.504681
2.89099e-06
0.504681
2.87615e-06
0.504681
2.86796e-06
0.50468
2.83404e-06
0.504679
2.70917e-06
0.504679
2.63189e-06
0.504678
2.73697e-06
0.504677
2.90854e-06
0.504676
2.94868e-06
0.504676
2.80694e-06
0.504675
2.59022e-06
0.504675
2.45938e-06
0.504676
2.47028e-06
0.504676
2.4715e-06
0.504676
2.27681e-06
0.504677
1.96337e-06
0.504678
1.77488e-06
0.504679
1.746e-06
0.50468
1.72359e-06
0.504681
1.69303e-06
0.504682
1.73563e-06
0.504683
1.77387e-06
0.504684
1.71903e-06
0.504685
1.71952e-06
0.504686
1.89417e-06
0.504686
2.05036e-06
0.504687
2.00094e-06
0.504688
1.90369e-06
0.504688
1.95743e-06
0.504689
2.04646e-06
0.50469
1.99327e-06
0.504691
1.90068e-06
0.504691
1.96327e-06
0.504692
2.14275e-06
0.504692
2.25979e-06
0.504692
2.25386e-06
0.504692
2.20714e-06
0.504692
2.19071e-06
0.504693
2.16377e-06
0.504693
2.06054e-06
0.504693
1.95365e-06
0.504693
2.04032e-06
0.504694
2.34687e-06
0.504694
2.59685e-06
0.504694
2.56063e-06
0.504694
2.35778e-06
0.504694
2.2074e-06
0.504695
2.10962e-06
0.504695
2.00731e-06
0.504695
2.00787e-06
0.504695
2.18847e-06
0.504695
2.41257e-06
0.504695
2.55932e-06
0.504695
2.68075e-06
0.504695
2.77821e-06
0.504694
2.70974e-06
0.504694
2.4611e-06
0.504694
2.26682e-06
0.504694
2.31093e-06
0.504694
2.49872e-06
0.504694
2.62396e-06
0.504694
2.61698e-06
0.504694
2.59402e-06
0.504694
2.67607e-06
0.504694
2.77452e-06
0.504693
2.66255e-06
0.504693
2.36689e-06
0.504693
2.22983e-06
0.504694
2.40938e-06
0.504694
2.62177e-06
0.504694
2.61666e-06
0.504694
2.56315e-06
0.504694
2.65938e-06
0.504693
2.7728e-06
0.504693
2.73396e-06
0.504693
2.60584e-06
0.504693
2.4659e-06
0.504693
2.28921e-06
0.504693
2.16127e-06
0.504694
2.23056e-06
0.504694
2.40772e-06
0.504694
2.44535e-06
0.504694
2.29819e-06
0.504694
2.14816e-06
0.504694
2.13659e-06
0.504695
2.24364e-06
0.504695
2.3383e-06
0.504695
2.2927e-06
0.504696
2.15105e-06
0.504696
2.10208e-06
0.504696
2.17111e-06
0.504697
2.16284e-06
0.504697
2.03648e-06
0.504697
1.98876e-06
0.504698
2.03982e-06
0.504698
1.97684e-06
0.504699
1.80906e-06
0.504699
1.80528e-06
0.5047
1.99588e-06
0.5047
2.11299e-06
0.504701
2.07428e-06
0.504701
2.07821e-06
0.504702
2.20338e-06
0.504703
2.30209e-06
0.504703
2.28579e-06
0.504703
2.21741e-06
0.504704
2.16122e-06
0.504704
2.12789e-06
0.504705
2.08899e-06
0.504705
1.98482e-06
0.504706
1.82695e-06
0.504707
1.74274e-06
0.504707
1.78055e-06
0.504708
1.82395e-06
0.504709
1.83074e-06
0.504709
1.92e-06
0.50471
2.08287e-06
0.50471
2.127e-06
0.504711
2.04039e-06
0.504711
2.04546e-06
0.504711
2.18568e-06
0.504712
2.24267e-06
0.504712
2.13606e-06
0.504712
2.04698e-06
0.504712
2.08478e-06
0.504712
2.13886e-06
0.504712
2.12904e-06
0.504712
2.14971e-06
0.504712
2.29579e-06
0.504712
2.50486e-06
0.504712
2.62764e-06
0.504711
2.5964e-06
0.504711
2.49492e-06
0.504711
2.44418e-06
0.504711
2.455e-06
0.504711
2.47619e-06
0.504711
2.50814e-06
0.504711
2.53646e-06
0.504711
2.45845e-06
0.504711
2.24261e-06
0.504711
2.06123e-06
0.504711
2.07079e-06
0.504711
2.1742e-06
0.504712
2.19549e-06
0.504712
2.13453e-06
0.504712
2.12514e-06
2.19891e-06
0.504654
-1.62418e-07
0.504654
2.74043e-07
0.504654
9.85266e-07
0.504654
1.80301e-06
0.504655
1.86624e-06
0.504655
1.76411e-06
0.504655
2.14839e-06
0.504655
1.86515e-06
0.504655
1.22099e-06
0.504656
1.011e-06
0.504658
1.45038e-06
0.504659
1.72641e-06
0.50466
1.94629e-06
0.504661
2.16111e-06
0.504661
1.96574e-06
0.504663
1.47593e-06
0.504664
1.34922e-06
0.504665
1.58052e-06
0.504666
1.7372e-06
0.504666
1.97119e-06
0.504666
2.28947e-06
0.504665
2.35909e-06
0.504664
2.34377e-06
0.504663
2.0508e-06
0.504663
1.68273e-06
0.504664
1.62738e-06
0.504665
1.63118e-06
0.504666
1.8131e-06
0.504667
1.86058e-06
0.504668
1.79488e-06
0.504668
1.97846e-06
0.504668
2.36437e-06
0.504668
2.57079e-06
0.504667
2.43887e-06
0.504667
2.35537e-06
0.504667
2.58258e-06
0.504666
2.76313e-06
0.504666
2.60213e-06
0.504666
2.33258e-06
0.504666
2.23809e-06
0.504666
2.23886e-06
0.504666
2.15742e-06
0.504666
1.98049e-06
0.504666
1.83072e-06
0.504666
1.78756e-06
0.504666
1.82914e-06
0.504667
1.96151e-06
0.504667
2.10344e-06
0.504667
2.12101e-06
0.504667
2.15629e-06
0.504666
2.37268e-06
0.504665
2.57421e-06
0.504665
2.50335e-06
0.504664
2.24332e-06
0.504664
2.09541e-06
0.504665
2.17962e-06
0.504665
2.30805e-06
0.504665
2.31435e-06
0.504665
2.25893e-06
0.504664
2.24092e-06
0.504664
2.29588e-06
0.504663
2.403e-06
0.504663
2.41479e-06
0.504663
2.21836e-06
0.504662
1.98798e-06
0.504662
1.97657e-06
0.504662
2.1254e-06
0.504662
2.21154e-06
0.504662
2.18966e-06
0.504662
2.08908e-06
0.504663
1.88657e-06
0.504663
1.70671e-06
0.504664
1.74081e-06
0.504665
1.8765e-06
0.504666
1.88814e-06
0.504666
1.86422e-06
0.504667
1.96593e-06
0.504667
2.05246e-06
0.504668
1.93998e-06
0.504668
1.70551e-06
0.504669
1.5194e-06
0.50467
1.48567e-06
0.504671
1.64624e-06
0.504671
1.91825e-06
0.504671
2.07783e-06
0.504672
1.99258e-06
0.504672
1.8017e-06
0.504673
1.70941e-06
0.504673
1.72711e-06
0.504674
1.78233e-06
0.504674
1.86958e-06
0.504674
1.95544e-06
0.504674
1.99015e-06
0.504674
2.04335e-06
0.504674
2.16959e-06
0.504674
2.23772e-06
0.504674
2.14191e-06
0.504674
1.98315e-06
0.504674
1.85746e-06
0.504674
1.73052e-06
0.504674
1.64961e-06
0.504675
1.75647e-06
0.504676
1.97396e-06
0.504676
2.01112e-06
0.504677
1.79127e-06
0.504679
1.55386e-06
0.50468
1.45787e-06
0.504681
1.4042e-06
0.504683
1.32199e-06
0.504684
1.31243e-06
0.504686
1.45655e-06
0.504687
1.71479e-06
0.504688
1.97912e-06
0.504688
2.14625e-06
0.504688
2.18886e-06
0.504689
2.19933e-06
0.504689
2.2537e-06
0.504689
2.26483e-06
0.504689
2.15367e-06
0.504688
2.05226e-06
0.504688
2.09823e-06
0.504688
2.19934e-06
0.504687
2.23555e-06
0.504687
2.26327e-06
0.504686
2.2992e-06
0.504686
2.21362e-06
0.504685
2.04615e-06
0.504685
2.05603e-06
0.504685
2.28685e-06
0.504684
2.4497e-06
0.504684
2.38698e-06
0.504684
2.26914e-06
0.504683
2.22738e-06
0.504683
2.16517e-06
0.504683
2.03573e-06
0.504683
1.98077e-06
0.504683
2.08792e-06
0.504683
2.24224e-06
0.504683
2.28474e-06
0.504683
2.19854e-06
0.504683
2.10927e-06
0.504683
2.12568e-06
0.504683
2.19773e-06
0.504683
2.19347e-06
0.504683
2.13418e-06
0.504683
2.17826e-06
0.504683
2.31258e-06
0.504683
2.31315e-06
0.504684
2.10333e-06
0.504684
1.87106e-06
0.504684
1.74554e-06
0.504685
1.66134e-06
0.504685
1.60619e-06
0.504686
1.67609e-06
0.504686
1.82556e-06
0.504687
1.888e-06
0.504688
1.86467e-06
0.504689
1.89632e-06
0.504689
1.96525e-06
0.50469
1.91026e-06
0.50469
1.72841e-06
0.504691
1.61146e-06
0.504692
1.68269e-06
0.504693
1.85345e-06
0.504693
1.93265e-06
0.504694
1.84802e-06
0.504695
1.74891e-06
0.504696
1.8219e-06
0.504697
1.97408e-06
0.504697
1.95509e-06
0.504698
1.79306e-06
0.504698
1.77912e-06
0.504699
1.96019e-06
0.504699
2.06753e-06
0.5047
2.00591e-06
0.504701
1.96458e-06
0.504701
2.01634e-06
0.504702
2.03819e-06
0.504703
2.01129e-06
0.504703
2.00506e-06
0.504704
1.94778e-06
0.504704
1.7685e-06
0.504705
1.62637e-06
0.504705
1.69672e-06
0.504706
1.8939e-06
0.504706
2.01906e-06
0.504706
2.01791e-06
0.504706
1.96946e-06
0.504707
1.97472e-06
0.504707
2.07079e-06
0.504707
2.15617e-06
0.504707
2.10771e-06
0.504707
2.00782e-06
0.504707
2.03143e-06
0.504707
2.11599e-06
0.504707
2.0801e-06
0.504707
2.00032e-06
0.504707
2.06469e-06
0.504707
2.17094e-06
0.504707
2.10548e-06
0.504707
1.97227e-06
0.504707
2.01251e-06
0.504707
2.17516e-06
0.504706
2.25385e-06
0.504706
2.25727e-06
0.504706
2.32046e-06
0.504706
2.42462e-06
0.504706
2.46266e-06
0.504706
2.41084e-06
0.504705
2.30555e-06
0.504705
2.19711e-06
0.504705
2.14575e-06
0.504705
2.14421e-06
0.504705
2.115e-06
0.504705
2.067e-06
0.504704
2.08574e-06
0.504704
2.13042e-06
0.504704
2.09198e-06
0.504704
2.04756e-06
0.504704
2.14139e-06
0.504703
2.2671e-06
0.504703
2.22126e-06
0.504703
2.07852e-06
0.504703
2.05686e-06
0.504703
2.13137e-06
0.504703
2.1124e-06
0.504703
1.99145e-06
0.504704
1.91511e-06
0.504704
1.90841e-06
0.504704
1.86714e-06
0.504705
1.76387e-06
0.504705
1.69434e-06
0.504706
1.74442e-06
0.504707
1.88659e-06
0.504707
2.0101e-06
0.504708
2.04644e-06
0.504708
2.02608e-06
0.504709
1.98227e-06
0.504709
1.89904e-06
0.50471
1.8161e-06
0.504711
1.83688e-06
0.504711
1.93822e-06
0.504711
1.94932e-06
0.504712
1.82234e-06
0.504712
1.72353e-06
0.504712
1.76895e-06
0.504713
1.8709e-06
0.504713
1.91811e-06
0.504713
1.92674e-06
1.96318e-06
0.504654
-2.47443e-07
0.504654
3.39455e-07
0.504654
8.80886e-07
0.504655
9.62864e-07
0.504656
9.81061e-07
0.504656
1.18088e-06
0.504657
1.77543e-06
0.504656
2.57856e-06
0.504655
2.22429e-06
0.504655
1.21786e-06
0.504655
8.14134e-07
0.504656
8.96508e-07
0.504657
9.80298e-07
0.504658
1.2109e-06
0.504658
1.73086e-06
0.504658
2.25054e-06
0.504656
2.52512e-06
0.504656
2.31199e-06
0.504655
1.94821e-06
0.504655
1.94334e-06
0.504656
2.21513e-06
0.504656
2.27059e-06
0.504656
2.33061e-06
0.504655
2.65793e-06
0.504654
2.63637e-06
0.504654
2.14063e-06
0.504653
1.73583e-06
0.504654
1.73386e-06
0.504654
1.83594e-06
0.504654
1.60243e-06
0.504654
1.24927e-06
0.504656
1.0871e-06
0.504657
1.08028e-06
0.504659
1.0575e-06
0.50466
9.63818e-07
0.504662
9.58585e-07
0.504663
1.11571e-06
0.504665
1.28626e-06
0.504666
1.42792e-06
0.504666
1.62828e-06
0.504667
1.81708e-06
0.504667
1.92269e-06
0.504667
1.98029e-06
0.504667
2.07635e-06
0.504666
2.21532e-06
0.504666
2.22177e-06
0.504666
2.0761e-06
0.504666
1.95951e-06
0.504666
1.85013e-06
0.504667
1.66995e-06
0.504667
1.52611e-06
0.504668
1.49641e-06
0.504669
1.50953e-06
0.50467
1.48349e-06
0.504671
1.43234e-06
0.504672
1.40315e-06
0.504673
1.35802e-06
0.504674
1.2934e-06
0.504675
1.34462e-06
0.504675
1.55094e-06
0.504676
1.76135e-06
0.504676
1.88373e-06
0.504677
1.93809e-06
0.504677
1.90315e-06
0.504677
1.80079e-06
0.504677
1.77701e-06
0.504678
1.86696e-06
0.504678
1.92664e-06
0.504678
1.9264e-06
0.504678
1.95094e-06
0.504678
1.91139e-06
0.504678
1.70929e-06
0.504679
1.54738e-06
0.504679
1.61469e-06
0.504679
1.76622e-06
0.504679
1.83756e-06
0.504679
1.8814e-06
0.504679
1.91372e-06
0.504679
1.86904e-06
0.504679
1.81266e-06
0.504679
1.85643e-06
0.504678
1.97518e-06
0.504678
2.09073e-06
0.504678
2.19455e-06
0.504677
2.26565e-06
0.504677
2.22784e-06
0.504677
2.10115e-06
0.504677
2.02073e-06
0.504676
2.01016e-06
0.504676
1.9714e-06
0.504676
1.90977e-06
0.504676
1.90368e-06
0.504676
1.93623e-06
0.504676
1.97445e-06
0.504676
2.04047e-06
0.504677
2.06631e-06
0.504677
1.94108e-06
0.504677
1.76176e-06
0.504677
1.73916e-06
0.504677
1.86142e-06
0.504677
1.94679e-06
0.504676
1.96902e-06
0.504676
2.01495e-06
0.504676
2.01351e-06
0.504676
1.83976e-06
0.504676
1.60593e-06
0.504676
1.53307e-06
0.504676
1.61331e-06
0.504676
1.66757e-06
0.504675
1.628e-06
0.504675
1.57626e-06
0.504675
1.6072e-06
0.504676
1.75089e-06
0.504676
1.93899e-06
0.504676
2.02558e-06
0.504676
1.95985e-06
0.504677
1.8655e-06
0.504677
1.82461e-06
0.504677
1.76276e-06
0.504678
1.66777e-06
0.504678
1.66207e-06
0.504679
1.74059e-06
0.504679
1.73986e-06
0.50468
1.65268e-06
0.50468
1.62706e-06
0.504681
1.64246e-06
0.504681
1.56178e-06
0.504682
1.46789e-06
0.504683
1.55491e-06
0.504684
1.73724e-06
0.504684
1.75507e-06
0.504685
1.59525e-06
0.504686
1.46656e-06
0.504686
1.44161e-06
0.504687
1.4268e-06
0.504688
1.39947e-06
0.504688
1.43286e-06
0.504689
1.53454e-06
0.50469
1.60254e-06
0.50469
1.54284e-06
0.504691
1.39514e-06
0.504692
1.33354e-06
0.504692
1.48136e-06
0.504693
1.73057e-06
0.504693
1.88216e-06
0.504693
1.92826e-06
0.504694
1.98413e-06
0.504694
2.00764e-06
0.504694
1.8714e-06
0.504694
1.65291e-06
0.504695
1.5536e-06
0.504695
1.59629e-06
0.504695
1.67868e-06
0.504695
1.8074e-06
0.504694
2.00287e-06
0.504694
2.11866e-06
0.504694
2.02895e-06
0.504694
1.85941e-06
0.504694
1.80387e-06
0.504694
1.84763e-06
0.504694
1.85468e-06
0.504694
1.80359e-06
0.504694
1.79728e-06
0.504694
1.90909e-06
0.504694
2.06748e-06
0.504693
2.09205e-06
0.504693
1.91709e-06
0.504693
1.73984e-06
0.504693
1.75666e-06
0.504694
1.84891e-06
0.504694
1.80385e-06
0.504694
1.71136e-06
0.504694
1.78726e-06
0.504694
1.95446e-06
0.504694
1.98921e-06
0.504694
1.9053e-06
0.504694
1.84001e-06
0.504694
1.77103e-06
0.504695
1.65968e-06
0.504695
1.61831e-06
0.504695
1.68455e-06
0.504696
1.69746e-06
0.504696
1.58064e-06
0.504696
1.47932e-06
0.504696
1.51201e-06
0.504697
1.62316e-06
0.504697
1.70945e-06
0.504697
1.71924e-06
0.504697
1.67445e-06
0.504698
1.67686e-06
0.504698
1.77265e-06
0.504698
1.83208e-06
0.504699
1.75585e-06
0.504699
1.67982e-06
0.504699
1.71866e-06
0.5047
1.72582e-06
0.5047
1.59058e-06
0.504701
1.49476e-06
0.504701
1.5767e-06
0.504702
1.66193e-06
0.504702
1.6061e-06
0.504703
1.56206e-06
0.504703
1.66938e-06
0.504704
1.80578e-06
0.504704
1.83865e-06
0.504705
1.82606e-06
0.504705
1.84462e-06
0.504706
1.86829e-06
0.504706
1.85542e-06
0.504707
1.78793e-06
0.504707
1.65941e-06
0.504708
1.52575e-06
0.504709
1.4624e-06
0.504709
1.43831e-06
0.50471
1.39689e-06
0.504711
1.40924e-06
0.504711
1.53166e-06
0.504712
1.63634e-06
0.504712
1.63166e-06
0.504713
1.66e-06
0.504713
1.82471e-06
0.504713
1.96001e-06
0.504713
1.92e-06
0.504714
1.83447e-06
0.504714
1.86099e-06
0.504714
1.92958e-06
0.504714
1.92385e-06
0.504714
1.89658e-06
0.504714
1.94766e-06
0.504714
2.04942e-06
0.504714
2.10511e-06
0.504713
2.0867e-06
0.504713
2.05777e-06
0.504713
2.09031e-06
0.504713
2.17606e-06
0.504712
2.24748e-06
0.504712
2.28481e-06
0.504712
2.31288e-06
0.504711
2.29097e-06
0.504711
2.16048e-06
0.504711
2.00697e-06
0.504711
1.97565e-06
0.504711
2.03352e-06
0.504711
2.0195e-06
0.50471
1.91241e-06
0.50471
1.84655e-06
0.50471
1.87924e-06
0.50471
1.93178e-06
0.50471
1.98321e-06
2.00133e-06
0.504655
3.57068e-07
0.504655
9.73614e-08
0.504656
1.09656e-07
0.504655
1.14844e-06
0.504655
1.68317e-06
0.504654
1.50704e-06
0.504655
1.1174e-06
0.504657
8.8883e-07
0.504658
1.19307e-06
0.504657
1.5377e-06
0.504656
1.7516e-06
0.504656
1.71135e-06
0.504655
1.6126e-06
0.504655
1.75427e-06
0.504654
1.78861e-06
0.504655
1.28916e-06
0.504657
1.08013e-06
0.504658
1.41521e-06
0.504658
1.50263e-06
0.504659
1.24121e-06
0.50466
9.75737e-07
0.504661
1.02598e-06
0.504663
9.56614e-07
0.504665
7.21286e-07
0.504666
1.02692e-06
0.504667
1.57537e-06
0.504667
1.71279e-06
0.504667
1.64638e-06
0.504667
1.84103e-06
0.504667
2.04069e-06
0.504666
1.97167e-06
0.504665
1.98177e-06
0.504664
2.18829e-06
0.504663
2.31639e-06
0.504661
2.22576e-06
0.50466
2.0598e-06
0.504659
1.97839e-06
0.504659
1.9242e-06
0.504658
1.80404e-06
0.504658
1.65439e-06
0.504659
1.51727e-06
0.504659
1.37175e-06
0.50466
1.22443e-06
0.504661
1.12543e-06
0.504662
1.12271e-06
0.504663
1.14181e-06
0.504664
1.16017e-06
0.504665
1.37699e-06
0.504665
1.77345e-06
0.504664
1.9928e-06
0.504664
1.87052e-06
0.504664
1.6095e-06
0.504664
1.50971e-06
0.504664
1.61676e-06
0.504663
1.75961e-06
0.504663
1.83462e-06
0.504662
1.84823e-06
0.504662
1.81735e-06
0.504661
1.7994e-06
0.504661
1.80955e-06
0.504661
1.73983e-06
0.504662
1.57588e-06
0.504662
1.49467e-06
0.504662
1.56276e-06
0.504662
1.61811e-06
0.504663
1.57792e-06
0.504663
1.52526e-06
0.504663
1.47298e-06
0.504664
1.40031e-06
0.504665
1.40712e-06
0.504665
1.50148e-06
0.504665
1.5065e-06
0.504665
1.42376e-06
0.504665
1.46927e-06
0.504666
1.63083e-06
0.504666
1.66392e-06
0.504666
1.51341e-06
0.504667
1.31355e-06
0.504667
1.16153e-06
0.504668
1.12979e-06
0.504669
1.26101e-06
0.504669
1.44106e-06
0.50467
1.47678e-06
0.504671
1.3478e-06
0.504672
1.21613e-06
0.504673
1.17742e-06
0.504674
1.18501e-06
0.504675
1.2106e-06
0.504675
1.24051e-06
0.504676
1.20368e-06
0.504677
1.1122e-06
0.504678
1.10129e-06
0.504678
1.20139e-06
0.504679
1.29408e-06
0.50468
1.32595e-06
0.504681
1.31485e-06
0.504681
1.22548e-06
0.504682
1.09331e-06
0.504683
1.12062e-06
0.504683
1.40155e-06
0.504683
1.72135e-06
0.504683
1.85201e-06
0.504684
1.84475e-06
0.504684
1.82922e-06
0.504684
1.76533e-06
0.504684
1.6118e-06
0.504684
1.4989e-06
0.504684
1.53867e-06
0.504684
1.65713e-06
0.504684
1.72381e-06
0.504684
1.70648e-06
0.504684
1.65093e-06
0.504684
1.63127e-06
0.504684
1.69414e-06
0.504684
1.75334e-06
0.504685
1.66527e-06
0.504685
1.46824e-06
0.504685
1.34516e-06
0.504686
1.33587e-06
0.504686
1.33937e-06
0.504686
1.36525e-06
0.504687
1.47458e-06
0.504687
1.55617e-06
0.504687
1.49719e-06
0.504687
1.4351e-06
0.504687
1.53286e-06
0.504687
1.68232e-06
0.504687
1.72779e-06
0.504687
1.75119e-06
0.504687
1.85578e-06
0.504687
1.91481e-06
0.504686
1.79676e-06
0.504686
1.62058e-06
0.504686
1.5689e-06
0.504686
1.637e-06
0.504686
1.7067e-06
0.504685
1.7238e-06
0.504685
1.7102e-06
0.504685
1.68327e-06
0.504685
1.61418e-06
0.504685
1.46531e-06
0.504685
1.29828e-06
0.504685
1.28241e-06
0.504685
1.47432e-06
0.504686
1.68172e-06
0.504686
1.71079e-06
0.504686
1.61435e-06
0.504687
1.51678e-06
0.504687
1.38556e-06