/*--------------------------------*- C++ -*----------------------------------*\
| =========                 |                                                 |
| \\      /  F ield         | OpenFOAM: The Open Source CFD Toolbox           |
|  \\    /   O peration     | Version:  2406                                  |
|   \\  /    A nd           | Website:  www.openfoam.com                      |
|    \\/     M anipulation  |                                                 |
\*---------------------------------------------------------------------------*/
FoamFile
{
    version     2.0;
    format      ascii;
    arch        "LSB;label=32;scalar=64";
    class       volVectorField;
    location    "0.9";
    object      U;
}
// * * * * * * * * * * * * * * * * * * * * * * * * * * * * * * * * * * * * * //

dimensions      [0 1 -1 0 0 0 0];

internalField   nonuniform List<vector> 
6250
(
(49.6884 9.07073e-05 0)
(84.2435 0.000641432 0)
(72.4015 0.000979709 0)
(59.9304 0.000928306 0)
(59.1453 0.000682723 0)
(62.5392 0.000552182 0)
(64.0365 0.000570233 0)
(63.6 0.000601837 0)
(62.9923 0.000640555 0)
(62.8888 0.000719507 0)
(63.0284 0.000857553 0)
(63.1115 0.000963344 0)
(63.1015 0.00097168 0)
(63.0724 0.000868386 0)
(63.0638 0.000779261 0)
(63.0685 0.000795239 0)
(63.0722 0.000859236 0)
(63.0717 0.000903946 0)
(63.0698 0.000898651 0)
(63.0686 0.000846353 0)
(63.0681 0.00078461 0)
(63.0678 0.000739946 0)
(63.0672 0.000722523 0)
(63.0665 0.000741324 0)
(63.0658 0.000788758 0)
(63.0652 0.000865052 0)
(63.0645 0.000965239 0)
(63.0637 0.00107232 0)
(63.0629 0.00117006 0)
(63.062 0.00120337 0)
(63.0612 0.00113467 0)
(63.0604 0.0010047 0)
(63.0597 0.000899504 0)
(63.059 0.000851092 0)
(63.0583 0.000811677 0)
(63.0577 0.000765316 0)
(63.0571 0.000753646 0)
(63.0565 0.000786506 0)
(63.0558 0.000828349 0)
(63.0551 0.000852986 0)
(63.0544 0.000868733 0)
(63.0537 0.000891239 0)
(63.053 0.000920712 0)
(63.0522 0.000948281 0)
(63.0514 0.000967542 0)
(63.0507 0.000976561 0)
(63.0499 0.000971538 0)
(63.0493 0.000953947 0)
(63.0486 0.000932906 0)
(63.0479 0.000904365 0)
(63.0473 0.00085978 0)
(63.0466 0.000815723 0)
(63.0459 0.000796011 0)
(63.0452 0.000800295 0)
(63.0445 0.000817982 0)
(63.0439 0.00085373 0)
(63.0432 0.000915016 0)
(63.0424 0.000978207 0)
(63.0416 0.000994846 0)
(63.0409 0.000944265 0)
(63.0402 0.000856118 0)
(63.0395 0.000775747 0)
(63.0389 0.00073058 0)
(63.0382 0.000723918 0)
(63.0376 0.000740645 0)
(63.0369 0.000763787 0)
(63.0363 0.000790553 0)
(63.0356 0.000820292 0)
(63.035 0.000840248 0)
(63.0343 0.000845095 0)
(63.0336 0.000851511 0)
(63.033 0.00087414 0)
(63.0324 0.000912331 0)
(63.0317 0.000966898 0)
(63.0311 0.00103142 0)
(63.0304 0.00107116 0)
(63.0297 0.00105653 0)
(63.029 0.00100809 0)
(63.0284 0.000970401 0)
(63.0278 0.000960523 0)
(63.0271 0.000970497 0)
(63.0264 0.000994697 0)
(63.0258 0.00103088 0)
(63.0251 0.0010691 0)
(63.0244 0.00109166 0)
(63.0237 0.0010812 0)
(63.023 0.00103364 0)
(63.0224 0.000970741 0)
(63.0218 0.000928624 0)
(63.0211 0.000922731 0)
(63.0205 0.000933078 0)
(63.0199 0.000931583 0)
(63.0192 0.00090913 0)
(63.0186 0.000871143 0)
(63.018 0.000827676 0)
(63.0174 0.000791041 0)
(63.0168 0.000767858 0)
(63.0163 0.000758428 0)
(63.0157 0.00077029 0)
(63.0151 0.000813553 0)
(63.0145 0.000876725 0)
(63.0138 0.000932577 0)
(63.0132 0.000973199 0)
(63.0126 0.00101342 0)
(63.0119 0.0010568 0)
(63.0112 0.00108879 0)
(63.0106 0.0011079 0)
(63.0099 0.00113029 0)
(63.0092 0.001157 0)
(63.0085 0.00116806 0)
(63.0078 0.00115637 0)
(63.0072 0.00114207 0)
(63.0064 0.00114099 0)
(63.0057 0.00113784 0)
(63.0049 0.00110301 0)
(63.0042 0.00102946 0)
(63.0035 0.000947373 0)
(63.0027 0.000899073 0)
(63.002 0.000897557 0)
(63.0012 0.000919471 0)
(63.0004 0.000942182 0)
(62.9996 0.000965139 0)
(62.9988 0.000984713 0)
(62.998 0.00098039 0)
(62.9972 0.00094905 0)
(62.9965 0.00092001 0)
(62.9957 0.000914843 0)
(62.9949 0.000922416 0)
(62.9942 0.000929943 0)
(62.9934 0.000941988 0)
(62.9927 0.000952104 0)
(62.9919 0.000935489 0)
(62.9911 0.000890621 0)
(62.9905 0.000854003 0)
(62.9898 0.000855434 0)
(62.9891 0.000886336 0)
(62.9884 0.000922799 0)
(62.9876 0.000954231 0)
(62.9869 0.000977064 0)
(62.9862 0.000981248 0)
(62.9855 0.000959089 0)
(62.9848 0.000922015 0)
(62.9842 0.000897157 0)
(62.9836 0.000900675 0)
(62.9829 0.000919021 0)
(62.9822 0.000927972 0)
(62.9816 0.000926767 0)
(62.9809 0.000933992 0)
(62.9803 0.000950292 0)
(62.9796 0.000953823 0)
(62.979 0.000938398 0)
(62.9784 0.000925172 0)
(62.9778 0.000928876 0)
(62.9772 0.00094183 0)
(62.9766 0.000958561 0)
(62.976 0.000985951 0)
(62.9754 0.00102045 0)
(62.9747 0.00104202 0)
(62.9741 0.0010386 0)
(62.9735 0.00101591 0)
(62.9729 0.000982217 0)
(62.9723 0.000943287 0)
(62.9718 0.000911895 0)
(62.9712 0.000903759 0)
(62.9707 0.000919097 0)
(62.9701 0.00093916 0)
(62.9695 0.000944943 0)
(62.9689 0.000938008 0)
(62.9683 0.000937077 0)
(62.9677 0.000946682 0)
(62.9671 0.000938793 0)
(62.9665 0.000888445 0)
(62.966 0.000820735 0)
(62.9655 0.000787083 0)
(62.965 0.000798701 0)
(62.9644 0.000820998 0)
(62.9638 0.000830726 0)
(62.9633 0.000837547 0)
(62.9627 0.000849133 0)
(62.9621 0.000856383 0)
(62.9615 0.000854851 0)
(62.9609 0.000848615 0)
(62.9603 0.000836837 0)
(62.9598 0.000821838 0)
(62.9592 0.000819233 0)
(62.9587 0.00083656 0)
(62.958 0.000854072 0)
(62.9574 0.000845457 0)
(62.9568 0.000809431 0)
(62.9562 0.000771836 0)
(62.9557 0.000762426 0)
(62.955 0.000787955 0)
(62.9544 0.000825452 0)
(62.9537 0.000848402 0)
(62.9531 0.000856156 0)
(62.9524 0.000862764 0)
(62.9518 0.000866368 0)
(62.9511 0.000856142 0)
(62.9505 0.000838536 0)
(62.9499 0.000826154 0)
(62.9492 0.000813549 0)
(62.9486 0.000794546 0)
(62.9479 0.000785545 0)
(62.9473 0.000800188 0)
(62.9467 0.000820628 0)
(62.946 0.000823724 0)
(62.9454 0.000815529 0)
(62.9447 0.000813973 0)
(62.944 0.000816651 0)
(62.9434 0.000810286 0)
(62.9427 0.000797425 0)
(62.9421 0.000794897 0)
(62.9414 0.000810097 0)
(62.9407 0.000827259 0)
(62.9401 0.000818701 0)
(62.9395 0.00077498 0)
(62.9389 0.000721075 0)
(62.9384 0.000689529 0)
(62.9378 0.000683781 0)
(62.9373 0.000686222 0)
(62.9368 0.000691608 0)
(62.9363 0.000705113 0)
(62.9357 0.000718044 0)
(62.9352 0.000716936 0)
(62.9347 0.000708679 0)
(62.9343 0.000708629 0)
(62.9338 0.00071245 0)
(62.9333 0.00070505 0)
(62.9329 0.000688217 0)
(62.9324 0.000675372 0)
(62.932 0.000666786 0)
(62.9316 0.000651588 0)
(62.9313 0.000630091 0)
(62.9309 0.0006163 0)
(62.9306 0.000616441 0)
(62.9302 0.000615339 0)
(62.9298 0.000590898 0)
(62.9295 0.000539792 0)
(62.9292 0.000480949 0)
(62.929 0.000433936 0)
(62.9288 0.000403513 0)
(62.9285 0.000385181 0)
(62.9283 0.000370241 0)
(62.9281 0.00034147 0)
(62.928 0.000284367 0)
(62.9278 0.000209192 0)
(62.9277 0.000143253 0)
(62.9276 0.000101122 0)
(62.9276 7.14547e-05 0)
(62.9275 2.7937e-05 0)
(49.6883 8.64384e-05 0)
(84.244 0.000490443 0)
(72.4049 0.000738198 0)
(59.9355 0.000685025 0)
(59.1513 0.000486839 0)
(62.5455 0.000390692 0)
(64.0438 0.000434696 0)
(63.608 0.000493359 0)
(63.0012 0.000530103 0)
(62.8985 0.000524346 0)
(63.039 0.000473802 0)
(63.1234 0.000428265 0)
(63.1148 0.000412963 0)
(63.0867 0.000401491 0)
(63.0788 0.000394852 0)
(63.0845 0.000398071 0)
(63.0893 0.0003687 0)
(63.0898 0.000349743 0)
(63.0891 0.000386245 0)
(63.0889 0.000441155 0)
(63.0893 0.000490089 0)
(63.0898 0.000544552 0)
(63.09 0.000578208 0)
(63.0901 0.000569932 0)
(63.0903 0.000520904 0)
(63.0905 0.000463413 0)
(63.0909 0.000433225 0)
(63.0914 0.000394061 0)
(63.092 0.000379459 0)
(63.0928 0.000425212 0)
(63.0933 0.000490533 0)
(63.0937 0.000533991 0)
(63.0941 0.000552619 0)
(63.0945 0.00057198 0)
(63.0949 0.000572772 0)
(63.0951 0.000531756 0)
(63.0954 0.000495889 0)
(63.0959 0.000497748 0)
(63.0963 0.000515053 0)
(63.0967 0.000520731 0)
(63.097 0.00052035 0)
(63.0974 0.000526219 0)
(63.0978 0.00053129 0)
(63.0983 0.000526228 0)
(63.0987 0.000510115 0)
(63.0991 0.000488321 0)
(63.0994 0.000462874 0)
(63.0998 0.000439131 0)
(63.1001 0.000440196 0)
(63.1005 0.000470292 0)
(63.1008 0.000497937 0)
(63.1012 0.000510857 0)
(63.1016 0.000527337 0)
(63.102 0.000547949 0)
(63.1023 0.000549324 0)
(63.1027 0.000524084 0)
(63.1031 0.000500633 0)
(63.1036 0.000509011 0)
(63.1041 0.000539359 0)
(63.1046 0.000562096 0)
(63.105 0.000567344 0)
(63.1053 0.00056245 0)
(63.1056 0.000557 0)
(63.1058 0.000557467 0)
(63.1061 0.00055535 0)
(63.1064 0.000534618 0)
(63.1067 0.000504416 0)
(63.1071 0.000492247 0)
(63.1074 0.000496349 0)
(63.1077 0.000486819 0)
(63.108 0.000452672 0)
(63.1083 0.000403781 0)
(63.1086 0.000345721 0)
(63.1089 0.000294489 0)
(63.1093 0.000278384 0)
(63.1098 0.000292397 0)
(63.1103 0.000301584 0)
(63.1107 0.000301285 0)
(63.111 0.000315416 0)
(63.1113 0.00034078 0)
(63.1117 0.000348956 0)
(63.112 0.000331244 0)
(63.1124 0.000304891 0)
(63.1128 0.000289688 0)
(63.1132 0.000295428 0)
(63.1136 0.00031625 0)
(63.114 0.00032998 0)
(63.1143 0.000320245 0)
(63.1145 0.000301172 0)
(63.1148 0.00029996 0)
(63.1152 0.000320162 0)
(63.1155 0.000345492 0)
(63.1159 0.000366909 0)
(63.1162 0.000382168 0)
(63.1165 0.000389425 0)
(63.1168 0.000395848 0)
(63.117 0.000407495 0)
(63.1173 0.000411164 0)
(63.1175 0.000394071 0)
(63.1178 0.000368239 0)
(63.1182 0.000347335 0)
(63.1185 0.0003216 0)
(63.1188 0.000284228 0)
(63.1191 0.000254692 0)
(63.1195 0.000245297 0)
(63.1199 0.000234431 0)
(63.1203 0.000204968 0)
(63.1207 0.000179316 0)
(63.1211 0.000184245 0)
(63.1215 0.000209282 0)
(63.1219 0.000229685 0)
(63.1223 0.000246877 0)
(63.1228 0.000281506 0)
(63.1233 0.000341652 0)
(63.1238 0.000411966 0)
(63.1242 0.00046802 0)
(63.1246 0.000499675 0)
(63.1249 0.000523678 0)
(63.1253 0.000560969 0)
(63.1258 0.00060364 0)
(63.1262 0.000628009 0)
(63.1267 0.000633923 0)
(63.1272 0.000637205 0)
(63.1277 0.000634503 0)
(63.1281 0.000616521 0)
(63.1285 0.000599907 0)
(63.1289 0.000602629 0)
(63.1294 0.000608046 0)
(63.1298 0.000596283 0)
(63.1302 0.00058383 0)
(63.1307 0.000589069 0)
(63.1311 0.000590502 0)
(63.1314 0.000563289 0)
(63.1318 0.000526763 0)
(63.1321 0.000514262 0)
(63.1325 0.000522279 0)
(63.1329 0.000523513 0)
(63.1334 0.000508505 0)
(63.1338 0.000486631 0)
(63.1342 0.00046176 0)
(63.1346 0.000428767 0)
(63.1349 0.000389941 0)
(63.1353 0.000363754 0)
(63.1356 0.000369131 0)
(63.136 0.000398019 0)
(63.1364 0.000416716 0)
(63.1367 0.000406374 0)
(63.137 0.000384445 0)
(63.1373 0.000368466 0)
(63.1377 0.00034535 0)
(63.138 0.000303385 0)
(63.1382 0.000264732 0)
(63.1386 0.000253961 0)
(63.1389 0.000261275 0)
(63.1392 0.000265649 0)
(63.1395 0.00026584 0)
(63.1399 0.000263447 0)
(63.1402 0.000246815 0)
(63.1405 0.000215998 0)
(63.1408 0.000194272 0)
(63.1411 0.000194457 0)
(63.1414 0.000200539 0)
(63.1417 0.000197507 0)
(63.1419 0.000196406 0)
(63.1422 0.000215841 0)
(63.1424 0.000251673 0)
(63.1427 0.000275657 0)
(63.143 0.000266165 0)
(63.1433 0.000239193 0)
(63.1436 0.000233239 0)
(63.1439 0.000254085 0)
(63.1442 0.000264304 0)
(63.1443 0.000246107 0)
(63.1445 0.000233565 0)
(63.1447 0.000253784 0)
(63.145 0.000282245 0)
(63.1452 0.000289178 0)
(63.1454 0.000285612 0)
(63.1457 0.000291457 0)
(63.146 0.000302115 0)
(63.1463 0.000311447 0)
(63.1466 0.000325024 0)
(63.1469 0.000335622 0)
(63.1471 0.000327327 0)
(63.1473 0.000310597 0)
(63.1476 0.000314928 0)
(63.1479 0.000345844 0)
(63.1483 0.00037937 0)
(63.1485 0.00039535 0)
(63.1488 0.000396828 0)
(63.149 0.000402955 0)
(63.1494 0.000427768 0)
(63.1497 0.000458387 0)
(63.15 0.000466235 0)
(63.1504 0.000449521 0)
(63.1507 0.000437686 0)
(63.1511 0.000442103 0)
(63.1514 0.000442593 0)
(63.1518 0.000434726 0)
(63.1521 0.00044068 0)
(63.1525 0.000460831 0)
(63.1528 0.000468181 0)
(63.153 0.000460748 0)
(63.1533 0.000465956 0)
(63.1537 0.000487488 0)
(63.154 0.000499155 0)
(63.1543 0.000493516 0)
(63.1546 0.000491745 0)
(63.155 0.0005045 0)
(63.1553 0.000518366 0)
(63.1556 0.000518963 0)
(63.156 0.000505569 0)
(63.1563 0.000487738 0)
(63.1567 0.000476247 0)
(63.157 0.000470032 0)
(63.1573 0.000456227 0)
(63.1575 0.000433516 0)
(63.1578 0.000417593 0)
(63.158 0.000411205 0)
(63.1582 0.00039699 0)
(63.1584 0.000372734 0)
(63.1586 0.000357253 0)
(63.1588 0.000349681 0)
(63.159 0.000325143 0)
(63.1592 0.000281832 0)
(63.1594 0.000249458 0)
(63.1596 0.000240629 0)
(63.1598 0.000233706 0)
(63.16 0.000213019 0)
(63.1601 0.000190146 0)
(63.1602 0.00017607 0)
(63.1603 0.000161596 0)
(63.1604 0.000136196 0)
(63.1605 0.00010801 0)
(63.1606 9.50543e-05 0)
(63.1607 0.000102577 0)
(63.1607 0.000116053 0)
(63.1608 0.00011875 0)
(63.1607 0.000109393 0)
(63.1606 9.53095e-05 0)
(63.1606 7.8785e-05 0)
(63.1605 6.40698e-05 0)
(63.1604 6.40057e-05 0)
(63.1604 7.98637e-05 0)
(63.1603 9.07883e-05 0)
(63.1601 8.2748e-05 0)
(63.1599 7.27849e-05 0)
(63.1596 8.21081e-05 0)
(63.1595 0.000109768 0)
(63.1591 0.00014184 0)
(49.6884 8.97274e-06 0)
(84.2444 -8.02475e-05 0)
(72.4035 -7.20978e-05 0)
(59.9335 -1.29434e-05 0)
(59.1491 7.41983e-05 0)
(62.5432 0.00014276 0)
(64.041 0.000135816 0)
(63.6051 0.000144514 0)
(62.9982 0.000193321 0)
(62.8956 0.000261137 0)
(63.0357 0.000255392 0)
(63.1195 0.000190151 0)
(63.11 0.000144462 0)
(63.0816 0.00015401 0)
(63.0735 0.000162655 0)
(63.0788 0.000188036 0)
(63.083 0.000203435 0)
(63.0829 0.000195124 0)
(63.0817 0.000200211 0)
(63.0812 0.00021681 0)
(63.0814 0.000209902 0)
(63.0818 0.000208202 0)
(63.0822 0.000238764 0)
(63.0824 0.000276813 0)
(63.0827 0.000310615 0)
(63.0828 0.000307128 0)
(63.0829 0.000282558 0)
(63.0828 0.000222471 0)
(63.0825 0.000121413 0)
(63.0823 5.80627e-05 0)
(63.0823 5.59583e-05 0)
(63.0823 7.02068e-05 0)
(63.0824 4.97546e-05 0)
(63.0825 1.98431e-05 0)
(63.0826 3.0069e-05 0)
(63.0826 5.03235e-05 0)
(63.0826 4.77439e-05 0)
(63.0825 3.97151e-05 0)
(63.0825 5.28745e-05 0)
(63.0826 8.46707e-05 0)
(63.0826 0.000120863 0)
(63.0826 0.000158372 0)
(63.0827 0.000192779 0)
(63.0828 0.000218157 0)
(63.0829 0.000229661 0)
(63.083 0.000230089 0)
(63.0831 0.000222997 0)
(63.0832 0.000193628 0)
(63.0832 0.000143906 0)
(63.0833 0.00010685 0)
(63.0833 9.18123e-05 0)
(63.0834 8.06933e-05 0)
(63.0835 7.46499e-05 0)
(63.0835 8.9994e-05 0)
(63.0836 0.000119875 0)
(63.0836 0.000127577 0)
(63.0836 8.94987e-05 0)
(63.0836 3.19907e-05 0)
(63.0836 -7.98233e-07 0)
(63.0836 8.3019e-06 0)
(63.0837 5.21668e-05 0)
(63.0838 0.000110856 0)
(63.0839 0.000156953 0)
(63.084 0.000176267 0)
(63.0842 0.000174809 0)
(63.0843 0.000160283 0)
(63.0844 0.000143128 0)
(63.0845 0.000149965 0)
(63.0845 0.000194288 0)
(63.0846 0.000247956 0)
(63.0847 0.000281128 0)
(63.0848 0.000296418 0)
(63.0848 0.000292702 0)
(63.0847 0.000254055 0)
(63.0846 0.000200544 0)
(63.0846 0.000182314 0)
(63.0845 0.000211352 0)
(63.0845 0.000256586 0)
(63.0844 0.000294236 0)
(63.0844 0.000316704 0)
(63.0845 0.000318067 0)
(63.0845 0.00030267 0)
(63.0845 0.000285771 0)
(63.0845 0.000276237 0)
(63.0845 0.000276093 0)
(63.0845 0.000291351 0)
(63.0845 0.000321046 0)
(63.0846 0.000343044 0)
(63.0846 0.000336676 0)
(63.0847 0.00030918 0)
(63.0847 0.000278433 0)
(63.0847 0.000249496 0)
(63.0847 0.000225711 0)
(63.0848 0.000214705 0)
(63.0849 0.000213922 0)
(63.0849 0.000217417 0)
(63.085 0.000228985 0)
(63.0851 0.000244141 0)
(63.0852 0.000244393 0)
(63.0852 0.000232985 0)
(63.0853 0.000243074 0)
(63.0853 0.000287138 0)
(63.0853 0.000334669 0)
(63.0852 0.000360281 0)
(63.0851 0.000374315 0)
(63.0851 0.00038601 0)
(63.085 0.000379458 0)
(63.0849 0.000350414 0)
(63.0849 0.00032715 0)
(63.0848 0.000329827 0)
(63.0847 0.000339101 0)
(63.0846 0.000322365 0)
(63.0845 0.000274427 0)
(63.0844 0.000223338 0)
(63.0844 0.000202181 0)
(63.0844 0.000213225 0)
(63.0845 0.000220514 0)
(63.0845 0.000192506 0)
(63.0846 0.00014296 0)
(63.0847 0.000104079 0)
(63.0848 7.74427e-05 0)
(63.0849 4.92205e-05 0)
(63.085 3.06268e-05 0)
(63.0852 3.81895e-05 0)
(63.0853 5.64045e-05 0)
(63.0854 6.44292e-05 0)
(63.0855 7.12758e-05 0)
(63.0857 8.62903e-05 0)
(63.0858 9.06314e-05 0)
(63.0858 7.4934e-05 0)
(63.0859 6.67021e-05 0)
(63.086 8.58537e-05 0)
(63.0861 0.000110028 0)
(63.0862 0.000113813 0)
(63.0863 0.000107386 0)
(63.0864 0.000111221 0)
(63.0864 0.000122945 0)
(63.0865 0.000129018 0)
(63.0865 0.000128653 0)
(63.0865 0.000131915 0)
(63.0865 0.00014359 0)
(63.0866 0.000156113 0)
(63.0866 0.000161033 0)
(63.0866 0.000168366 0)
(63.0866 0.000199299 0)
(63.0867 0.000249846 0)
(63.0867 0.000284806 0)
(63.0867 0.000284705 0)
(63.0868 0.000271387 0)
(63.0868 0.000267969 0)
(63.0868 0.000267594 0)
(63.0869 0.000263683 0)
(63.0869 0.000273093 0)
(63.0869 0.000305485 0)
(63.0869 0.000343063 0)
(63.0869 0.000368392 0)
(63.0869 0.000381562 0)
(63.0869 0.000381231 0)
(63.0868 0.000362937 0)
(63.0868 0.000342688 0)
(63.0868 0.000347836 0)
(63.0868 0.000378736 0)
(63.0868 0.000405677 0)
(63.0868 0.000406752 0)
(63.0867 0.000392123 0)
(63.0867 0.000387893 0)
(63.0867 0.000401537 0)
(63.0867 0.000406311 0)
(63.0867 0.00037431 0)
(63.0866 0.000326416 0)
(63.0867 0.000316002 0)
(63.0867 0.000352712 0)
(63.0867 0.000387307 0)
(63.0867 0.000388451 0)
(63.0867 0.000379552 0)
(63.0867 0.00038205 0)
(63.0867 0.00037974 0)
(63.0867 0.000359193 0)
(63.0866 0.000333255 0)
(63.0866 0.000311052 0)
(63.0866 0.000290985 0)
(63.0866 0.000283734 0)
(63.0867 0.000298015 0)
(63.0867 0.000311502 0)
(63.0867 0.000295925 0)
(63.0867 0.000259816 0)
(63.0867 0.000236182 0)
(63.0868 0.00024118 0)
(63.0868 0.000262257 0)
(63.0869 0.000273432 0)
(63.0869 0.000258305 0)
(63.0869 0.000229111 0)
(63.087 0.000210941 0)
(63.087 0.000203277 0)
(63.0871 0.000185813 0)
(63.0871 0.000161915 0)
(63.0872 0.000153602 0)
(63.0872 0.000155917 0)
(63.0872 0.000147369 0)
(63.0873 0.000138771 0)
(63.0874 0.000155632 0)
(63.0875 0.000183283 0)
(63.0875 0.000187332 0)
(63.0876 0.000174288 0)
(63.0876 0.000176725 0)
(63.0877 0.000194108 0)
(63.0878 0.000197724 0)
(63.0878 0.000180676 0)
(63.0879 0.000164064 0)
(63.088 0.000162945 0)
(63.088 0.000169938 0)
(63.0881 0.00016575 0)
(63.0881 0.00014049 0)
(63.0882 0.000111045 0)
(63.0883 0.000107448 0)
(63.0884 0.000133669 0)
(63.0885 0.000164129 0)
(63.0885 0.000185027 0)
(63.0886 0.000205159 0)
(63.0887 0.000223179 0)
(63.0888 0.000226751 0)
(63.0888 0.000226053 0)
(63.0889 0.000243273 0)
(63.0889 0.000270181 0)
(63.0889 0.000279616 0)
(63.0889 0.000273913 0)
(63.0889 0.000280486 0)
(63.089 0.000305196 0)
(63.089 0.000328173 0)
(63.089 0.000342016 0)
(63.089 0.000361461 0)
(63.0891 0.000394092 0)
(63.0891 0.000424414 0)
(63.089 0.000432746 0)
(63.089 0.000420502 0)
(63.0889 0.000410343 0)
(63.0889 0.00042053 0)
(63.0889 0.000446368 0)
(63.0889 0.000472352 0)
(63.0889 0.000489111 0)
(63.0889 0.000489074 0)
(63.0889 0.00046615 0)
(63.0888 0.00043451 0)
(63.0888 0.000425143 0)
(63.0889 0.000446843 0)
(63.0889 0.000471842 0)
(63.0889 0.00047752 0)
(63.089 0.00046845 0)
(63.089 0.000474027 0)
(63.0891 0.000467856 0)
(49.6884 -1.83699e-05 0)
(84.2442 2.26039e-05 0)
(72.4034 0.000173051 0)
(59.9336 0.000306865 0)
(59.1486 0.000380296 0)
(62.5433 0.000423156 0)
(64.0411 0.000386532 0)
(63.6051 0.000270084 0)
(62.9979 0.000153721 0)
(62.8952 0.000187169 0)
(63.0355 0.000358846 0)
(63.1197 0.000485106 0)
(63.1105 0.000522237 0)
(63.0823 0.00050144 0)
(63.0742 0.000425296 0)
(63.0796 0.000359575 0)
(63.0843 0.000348317 0)
(63.0845 0.000349936 0)
(63.0834 0.000347951 0)
(63.0829 0.000345514 0)
(63.0831 0.000307744 0)
(63.0832 0.000224459 0)
(63.0831 0.000171676 0)
(63.0829 0.000146365 0)
(63.0829 0.000151446 0)
(63.0829 0.000205343 0)
(63.083 0.00030572 0)
(63.0832 0.000435294 0)
(63.0833 0.00050039 0)
(63.0834 0.000496858 0)
(63.0836 0.000490311 0)
(63.0836 0.000504372 0)
(63.0835 0.000518111 0)
(63.0834 0.000515952 0)
(63.0834 0.00052669 0)
(63.0834 0.000558149 0)
(63.0833 0.000574365 0)
(63.0833 0.000554521 0)
(63.0833 0.000510006 0)
(63.0833 0.00045546 0)
(63.0833 0.000395476 0)
(63.0832 0.00033635 0)
(63.0833 0.000283177 0)
(63.0833 0.000244491 0)
(63.0833 0.000230905 0)
(63.0833 0.000249718 0)
(63.0833 0.000302402 0)
(63.0833 0.000358374 0)
(63.0833 0.000381761 0)
(63.0833 0.000389079 0)
(63.0833 0.000409076 0)
(63.0832 0.000426128 0)
(63.0831 0.000416247 0)
(63.0831 0.000396062 0)
(63.0831 0.000406777 0)
(63.0831 0.000456716 0)
(63.0831 0.000503773 0)
(63.0831 0.000508633 0)
(63.0831 0.000473858 0)
(63.0831 0.000425672 0)
(63.083 0.000390669 0)
(63.0829 0.000377656 0)
(63.0829 0.000366464 0)
(63.0828 0.000337617 0)
(63.0828 0.000308404 0)
(63.0828 0.000305732 0)
(63.0828 0.000321609 0)
(63.0827 0.000332198 0)
(63.0827 0.000332964 0)
(63.0827 0.000326308 0)
(63.0828 0.000315213 0)
(63.0829 0.000321353 0)
(63.083 0.000357754 0)
(63.0831 0.000392527 0)
(63.0832 0.000394603 0)
(63.0832 0.000383787 0)
(63.0833 0.00038481 0)
(63.0833 0.000380238 0)
(63.0834 0.000347423 0)
(63.0835 0.000295988 0)
(63.0836 0.000251855 0)
(63.0837 0.000236425 0)
(63.0838 0.000256705 0)
(63.0839 0.000292226 0)
(63.0839 0.000304532 0)
(63.0839 0.000278432 0)
(63.084 0.000240439 0)
(63.0841 0.000222428 0)
(63.0841 0.000227382 0)
(63.0842 0.000243229 0)
(63.0842 0.000261178 0)
(63.0843 0.000272209 0)
(63.0843 0.000274741 0)
(63.0843 0.000281693 0)
(63.0843 0.000295737 0)
(63.0842 0.000298463 0)
(63.0842 0.000282032 0)
(63.0842 0.00026115 0)
(63.0842 0.000245281 0)
(63.0842 0.000234553 0)
(63.0842 0.000242928 0)
(63.0843 0.000283839 0)
(63.0844 0.000333587 0)
(63.0845 0.000351465 0)
(63.0846 0.000335702 0)
(63.0848 0.000320002 0)
(63.0849 0.000319255 0)
(63.0851 0.000319328 0)
(63.0853 0.000315896 0)
(63.0854 0.000325118 0)
(63.0856 0.000355168 0)
(63.0858 0.000393109 0)
(63.0859 0.00041879 0)
(63.086 0.00042011 0)
(63.086 0.000403151 0)
(63.0861 0.000387356 0)
(63.0861 0.00037964 0)
(63.0861 0.000364954 0)
(63.0861 0.000338745 0)
(63.0861 0.000324301 0)
(63.086 0.000336018 0)
(63.086 0.000355893 0)
(63.0859 0.000367751 0)
(63.0859 0.00037754 0)
(63.0858 0.000383845 0)
(63.0857 0.000373302 0)
(63.0856 0.000358185 0)
(63.0856 0.000369731 0)
(63.0856 0.000404419 0)
(63.0856 0.000425247 0)
(63.0855 0.000420166 0)
(63.0855 0.00041168 0)
(63.0854 0.000409245 0)
(63.0854 0.000399209 0)
(63.0854 0.000382284 0)
(63.0854 0.000379817 0)
(63.0854 0.00039998 0)
(63.0854 0.000425352 0)
(63.0854 0.00043512 0)
(63.0854 0.000424821 0)
(63.0854 0.000405325 0)
(63.0854 0.000387919 0)
(63.0854 0.000371084 0)
(63.0854 0.000349841 0)
(63.0853 0.000335388 0)
(63.0854 0.000342698 0)
(63.0854 0.000358459 0)
(63.0854 0.000352379 0)
(63.0854 0.000322197 0)
(63.0855 0.00029308 0)
(63.0855 0.000274106 0)
(63.0856 0.00025413 0)
(63.0856 0.00023673 0)
(63.0857 0.000238401 0)
(63.0858 0.000256543 0)
(63.0858 0.000274956 0)
(63.0859 0.000291676 0)
(63.086 0.000308747 0)
(63.0861 0.000309574 0)
(63.0862 0.000280067 0)
(63.0863 0.000239569 0)
(63.0863 0.000222033 0)
(63.0864 0.000235248 0)
(63.0866 0.000256036 0)
(63.0866 0.000259695 0)
(63.0867 0.000247823 0)
(63.0868 0.000246815 0)
(63.087 0.000271063 0)
(63.0871 0.000294941 0)
(63.0871 0.000286614 0)
(63.0872 0.000260683 0)
(63.0872 0.000256228 0)
(63.0873 0.000273465 0)
(63.0874 0.000281705 0)
(63.0875 0.00027845 0)
(63.0875 0.00028607 0)
(63.0876 0.000303297 0)
(63.0877 0.000310681 0)
(63.0878 0.000307744 0)
(63.0879 0.000302121 0)
(63.0879 0.000286336 0)
(63.088 0.000261343 0)
(63.088 0.00025295 0)
(63.0881 0.000274874 0)
(63.0882 0.00030474 0)
(63.0882 0.000316309 0)
(63.0883 0.000309201 0)
(63.0883 0.000298649 0)
(63.0883 0.000297013 0)
(63.0884 0.000304508 0)
(63.0884 0.000307916 0)
(63.0884 0.000300083 0)
(63.0884 0.000297808 0)
(63.0884 0.000315366 0)
(63.0884 0.000334276 0)
(63.0884 0.000333822 0)
(63.0884 0.000328605 0)
(63.0884 0.000336218 0)
(63.0884 0.000338962 0)
(63.0884 0.000320587 0)
(63.0883 0.000304817 0)
(63.0883 0.000315141 0)
(63.0883 0.000334219 0)
(63.0883 0.000340156 0)
(63.0883 0.000344782 0)
(63.0883 0.00036426 0)
(63.0883 0.000386292 0)
(63.0882 0.000390469 0)
(63.0882 0.000375682 0)
(63.0882 0.000355384 0)
(63.0882 0.000343873 0)
(63.0882 0.000346886 0)
(63.0882 0.000353598 0)
(63.0881 0.000348107 0)
(63.0881 0.000332624 0)
(63.0881 0.000320424 0)
(63.088 0.000310626 0)
(63.088 0.000297709 0)
(63.0879 0.000293305 0)
(63.0879 0.000304992 0)
(63.0879 0.000312436 0)
(63.0879 0.000299227 0)
(63.0879 0.000284173 0)
(63.0879 0.000287585 0)
(63.0879 0.000294043 0)
(63.0879 0.000280628 0)
(63.0879 0.000255636 0)
(63.0879 0.000240225 0)
(63.088 0.000233887 0)
(63.088 0.000223087 0)
(63.088 0.000208633 0)
(63.0881 0.000204991 0)
(63.0882 0.00021889 0)
(63.0883 0.000239206 0)
(63.0884 0.000248107 0)
(63.0884 0.000239182 0)
(63.0885 0.000220174 0)
(63.0885 0.000199003 0)
(63.0886 0.00017932 0)
(63.0887 0.00016942 0)
(63.0888 0.000174725 0)
(63.0889 0.000180146 0)
(63.0889 0.000164529 0)
(63.0889 0.000133702 0)
(63.089 0.000113735 0)
(63.089 0.000112245 0)
(63.0891 0.000112728 0)
(63.0891 0.000106209 0)
(63.0891 9.96063e-05 0)
(63.0892 0.000100414 0)
(49.6885 -2.49934e-05 0)
(84.244 5.7693e-05 0)
(72.4035 0.000142814 0)
(59.9334 0.000158389 0)
(59.149 0.00010664 0)
(62.5432 7.64654e-05 0)
(64.0413 0.000175613 0)
(63.6053 0.000271359 0)
(62.998 0.00022986 0)
(62.895 0.000107931 0)
(63.0353 2.14323e-05 0)
(63.1194 -1.51129e-05 0)
(63.1101 -4.34077e-06 0)
(63.0819 5.41892e-05 0)
(63.0739 0.000113237 0)
(63.0791 0.000131583 0)
(63.0834 0.000138663 0)
(63.0834 0.000127287 0)
(63.0821 0.00011683 0)
(63.0816 0.000159912 0)
(63.0818 0.000251518 0)
(63.082 0.000315704 0)
(63.082 0.000346965 0)
(63.082 0.000348607 0)
(63.0818 0.000295184 0)
(63.0817 0.000204637 0)
(63.0817 0.000117868 0)
(63.0817 8.76711e-05 0)
(63.0817 8.28512e-05 0)
(63.0817 6.0126e-05 0)
(63.0817 4.85464e-05 0)
(63.0819 7.02663e-05 0)
(63.0821 9.72398e-05 0)
(63.0823 9.03103e-05 0)
(63.0824 6.27608e-05 0)
(63.0826 5.57812e-05 0)
(63.0828 7.05699e-05 0)
(63.083 8.34871e-05 0)
(63.0831 9.64476e-05 0)
(63.0832 0.00012772 0)
(63.0833 0.000173306 0)
(63.0833 0.000211067 0)
(63.0834 0.000227583 0)
(63.0833 0.000232803 0)
(63.0833 0.000237182 0)
(63.0832 0.00022801 0)
(63.0832 0.000203448 0)
(63.0832 0.000179156 0)
(63.0832 0.000157378 0)
(63.0833 0.000144967 0)
(63.0834 0.000158074 0)
(63.0835 0.000185896 0)
(63.0836 0.000195435 0)
(63.0837 0.00017034 0)
(63.0838 0.000129646 0)
(63.0839 0.00010212 0)
(63.084 9.07689e-05 0)
(63.0841 8.78614e-05 0)
(63.0843 0.000102547 0)
(63.0844 0.000140852 0)
(63.0844 0.000187515 0)
(63.0845 0.000223562 0)
(63.0846 0.000236212 0)
(63.0846 0.000220933 0)
(63.0846 0.000196671 0)
(63.0847 0.0001946 0)
(63.0847 0.000214632 0)
(63.0847 0.000227534 0)
(63.0848 0.000222675 0)
(63.0848 0.000207596 0)
(63.0848 0.000175459 0)
(63.0848 0.000126161 0)
(63.0848 9.02801e-05 0)
(63.0848 8.57029e-05 0)
(63.0849 9.28853e-05 0)
(63.0849 9.99259e-05 0)
(63.0849 0.000116938 0)
(63.0849 0.000138783 0)
(63.0849 0.000147279 0)
(63.0849 0.000143299 0)
(63.0849 0.000141465 0)
(63.0848 0.00014982 0)
(63.0848 0.000171448 0)
(63.0847 0.000204682 0)
(63.0847 0.000233148 0)
(63.0847 0.000237108 0)
(63.0846 0.000221353 0)
(63.0846 0.000209674 0)
(63.0846 0.000210321 0)
(63.0845 0.000213711 0)
(63.0845 0.000216604 0)
(63.0845 0.000221016 0)
(63.0845 0.000225124 0)
(63.0845 0.000233537 0)
(63.0845 0.000251439 0)
(63.0846 0.000263916 0)
(63.0846 0.000252996 0)
(63.0846 0.000228955 0)
(63.0846 0.000212333 0)
(63.0846 0.000200425 0)
(63.0846 0.000183048 0)
(63.0846 0.000169783 0)
(63.0845 0.000167963 0)
(63.0846 0.000156724 0)
(63.0845 0.000117914 0)
(63.0845 7.135e-05 0)
(63.0845 4.72276e-05 0)
(63.0845 4.36961e-05 0)
(63.0845 3.89415e-05 0)
(63.0844 2.74565e-05 0)
(63.0844 2.34486e-05 0)
(63.0844 4.12657e-05 0)
(63.0844 8.21833e-05 0)
(63.0845 0.000129895 0)
(63.0845 0.000162471 0)
(63.0845 0.000177431 0)
(63.0845 0.000190667 0)
(63.0846 0.000204989 0)
(63.0846 0.000207113 0)
(63.0847 0.000200521 0)
(63.0848 0.000204318 0)
(63.0848 0.000215759 0)
(63.0849 0.000214725 0)
(63.0849 0.000203165 0)
(63.085 0.000197292 0)
(63.0851 0.000190891 0)
(63.0851 0.000171166 0)
(63.0852 0.00015517 0)
(63.0853 0.000164874 0)
(63.0854 0.000184034 0)
(63.0855 0.000181916 0)
(63.0856 0.000160921 0)
(63.0857 0.000144312 0)
(63.0857 0.000136761 0)
(63.0858 0.000128565 0)
(63.0859 0.000121244 0)
(63.086 0.000123751 0)
(63.0861 0.000134472 0)
(63.0862 0.000141818 0)
(63.0862 0.000137934 0)
(63.0863 0.000129038 0)
(63.0864 0.000132315 0)
(63.0865 0.000155325 0)
(63.0866 0.000182388 0)
(63.0866 0.000196566 0)
(63.0867 0.000204798 0)
(63.0867 0.000218028 0)
(63.0867 0.000222485 0)
(63.0868 0.000201828 0)
(63.0868 0.00017113 0)
(63.0868 0.000156404 0)
(63.0868 0.000158313 0)
(63.0868 0.000164709 0)
(63.0868 0.00017605 0)
(63.0868 0.00019147 0)
(63.0868 0.000195441 0)
(63.0867 0.000183067 0)
(63.0867 0.000173715 0)
(63.0868 0.000179944 0)
(63.0868 0.000187498 0)
(63.0868 0.000181861 0)
(63.0867 0.000172701 0)
(63.0867 0.000179349 0)
(63.0867 0.00020474 0)
(63.0867 0.000228717 0)
(63.0867 0.000226278 0)
(63.0866 0.000199182 0)
(63.0866 0.00017999 0)
(63.0867 0.00018806 0)
(63.0867 0.0002008 0)
(63.0867 0.000194991 0)
(63.0867 0.000187876 0)
(63.0867 0.000201766 0)
(63.0867 0.000220596 0)
(63.0867 0.000220738 0)
(63.0867 0.000210658 0)
(63.0868 0.000205704 0)
(63.0868 0.0002002 0)
(63.0868 0.000191404 0)
(63.0869 0.000191637 0)
(63.0869 0.000197881 0)
(63.0869 0.000189575 0)
(63.0869 0.000167219 0)
(63.087 0.000155771 0)
(63.087 0.000166426 0)
(63.087 0.000185585 0)
(63.0871 0.000197962 0)
(63.0871 0.00020004 0)
(63.0872 0.000199534 0)
(63.0872 0.000208852 0)
(63.0873 0.000226167 0)
(63.0873 0.000231188 0)
(63.0873 0.00021745 0)
(63.0874 0.000206156 0)
(63.0874 0.000207621 0)
(63.0875 0.000203678 0)
(63.0875 0.000189224 0)
(63.0876 0.000187156 0)
(63.0877 0.000201887 0)
(63.0877 0.000206945 0)
(63.0877 0.000195835 0)
(63.0878 0.000194782 0)
(63.0879 0.00021218 0)
(63.0879 0.000224213 0)
(63.088 0.000219463 0)
(63.088 0.000214913 0)
(63.0881 0.000223012 0)
(63.0882 0.000235421 0)
(63.0882 0.000239198 0)
(63.0883 0.000228674 0)
(63.0884 0.000208009 0)
(63.0885 0.00019117 0)
(63.0885 0.000187469 0)
(63.0886 0.000189138 0)
(63.0887 0.000188599 0)
(63.0888 0.000193961 0)
(63.0889 0.000208342 0)
(63.0889 0.000217398 0)
(63.089 0.000217733 0)
(63.089 0.000226864 0)
(63.0891 0.000246431 0)
(63.0892 0.000251996 0)
(63.0892 0.000235925 0)
(63.0892 0.000222371 0)