# Region type : patch inlet
# Faces       : 15
# Area        : 1.000000e-03
# Scale factor: 1.000000e+00
# Time        	areaIntegrate(U)
0.005         	(7.791213e-05 1.912971e-07 0.000000e+00)
0.01          	(3.972959e-05 1.582167e-07 0.000000e+00)
0.015         	(2.397298e-05 -1.711481e-07 0.000000e+00)
0.02          	(2.542735e-05 2.466018e-08 0.000000e+00)
0.025         	(2.914982e-05 5.881813e-08 0.000000e+00)
0.03          	(3.354193e-05 4.717464e-08 0.000000e+00)
0.035         	(3.792206e-05 4.222910e-08 0.000000e+00)
0.04          	(4.212729e-05 3.516560e-08 0.000000e+00)
0.045         	(4.619203e-05 2.806575e-08 0.000000e+00)
0.05          	(5.004064e-05 2.320051e-08 0.000000e+00)
0.055         	(5.372910e-05 1.928854e-08 0.000000e+00)
0.06          	(5.726923e-05 1.584654e-08 0.000000e+00)
0.065         	(6.062905e-05 1.288947e-08 0.000000e+00)
0.07          	(6.382453e-05 1.037050e-08 0.000000e+00)
0.075         	(6.686812e-05 8.361618e-09 0.000000e+00)
0.08          	(6.976841e-05 6.716041e-09 0.000000e+00)
0.085         	(7.253215e-05 5.412672e-09 0.000000e+00)
0.09          	(7.516604e-05 4.402351e-09 0.000000e+00)
0.095         	(7.767618e-05 3.588528e-09 0.000000e+00)
0.1           	(8.006856e-05 2.897729e-09 0.000000e+00)
0.105         	(8.234864e-05 2.350286e-09 0.000000e+00)
0.11          	(8.452137e-05 1.931555e-09 0.000000e+00)
0.115         	(8.659226e-05 1.585106e-09 0.000000e+00)
0.12          	(8.856602e-05 1.288792e-09 0.000000e+00)
0.125         	(9.044724e-05 1.065009e-09 0.000000e+00)
0.13          	(9.224030e-05 8.745304e-10 0.000000e+00)
0.135         	(9.394935e-05 7.145871e-10 0.000000e+00)
0.14          	(9.557839e-05 5.917010e-10 0.000000e+00)
0.145         	(9.713082e-05 4.903765e-10 0.000000e+00)
0.15          	(9.861078e-05 4.033421e-10 0.000000e+00)
0.155         	(1.000212e-04 3.322676e-10 0.000000e+00)
0.16          	(1.013658e-04 2.789983e-10 0.000000e+00)
0.165         	(1.026466e-04 2.358955e-10 0.000000e+00)
0.17          	(1.038677e-04 2.014047e-10 0.000000e+00)
0.175         	(1.050314e-04 1.728712e-10 0.000000e+00)
0.18          	(1.061408e-04 1.513046e-10 0.000000e+00)
0.185         	(1.071980e-04 1.282297e-10 0.000000e+00)
0.19          	(1.082060e-04 1.130099e-10 0.000000e+00)
0.195         	(1.091665e-04 9.966435e-11 0.000000e+00)
0.2           	(1.100821e-04 8.842424e-11 0.000000e+00)
0.205         	(1.109549e-04 7.786366e-11 0.000000e+00)
0.21          	(1.117869e-04 6.723157e-11 0.000000e+00)
0.215         	(1.125797e-04 6.288274e-11 0.000000e+00)
0.22          	(1.133356e-04 5.970505e-11 0.000000e+00)
0.225         	(1.140559e-04 5.578983e-11 0.000000e+00)
0.23          	(1.147420e-04 5.286400e-11 0.000000e+00)
0.235         	(1.153960e-04 4.990675e-11 0.000000e+00)
0.24          	(1.160195e-04 5.055999e-11 0.000000e+00)
0.245         	(1.166137e-04 4.771535e-11 0.000000e+00)
0.25          	(1.171801e-04 4.624552e-11 0.000000e+00)
0.255         	(1.177200e-04 4.524466e-11 0.000000e+00)
0.26          	(1.182347e-04 4.522474e-11 0.000000e+00)
0.265         	(1.187253e-04 4.374692e-11 0.000000e+00)
0.27          	(1.191929e-04 4.265488e-11 0.000000e+00)
0.275         	(1.196386e-04 3.970562e-11 0.000000e+00)
0.28          	(1.200636e-04 3.945025e-11 0.000000e+00)
0.285         	(1.204685e-04 3.720495e-11 0.000000e+00)
0.29          	(1.208545e-04 3.439354e-11 0.000000e+00)
0.295         	(1.212225e-04 3.426638e-11 0.000000e+00)
0.3           	(1.215733e-04 3.624012e-11 0.000000e+00)
0.305         	(1.219070e-04 3.409216e-11 0.000000e+00)
0.31          	(1.222253e-04 3.539641e-11 0.000000e+00)
0.315         	(1.225286e-04 3.846325e-11 0.000000e+00)
0.32          	(1.228177e-04 4.057239e-11 0.000000e+00)
0.325         	(1.230933e-04 3.825098e-11 0.000000e+00)
0.33          	(1.233562e-04 4.105023e-11 0.000000e+00)
0.335         	(1.236066e-04 4.405463e-11 0.000000e+00)
0.34          	(1.238455e-04 4.251648e-11 0.000000e+00)
0.345         	(1.240730e-04 3.975872e-11 0.000000e+00)
0.35          	(1.242901e-04 3.897699e-11 0.000000e+00)
0.355         	(1.244969e-04 4.035144e-11 0.000000e+00)
0.36          	(1.246941e-04 3.860509e-11 0.000000e+00)
0.365         	(1.248820e-04 3.521879e-11 0.000000e+00)
0.37          	(1.250613e-04 3.540576e-11 0.000000e+00)
0.375         	(1.252321e-04 3.327927e-11 0.000000e+00)
0.38          	(1.253944e-04 3.527956e-11 0.000000e+00)
0.385         	(1.255491e-04 3.698774e-11 0.000000e+00)
0.39          	(1.256966e-04 3.516831e-11 0.000000e+00)
0.395         	(1.258372e-04 3.424342e-11 0.000000e+00)
0.4           	(1.259714e-04 3.489761e-11 0.000000e+00)
0.405         	(1.260991e-04 3.509474e-11 0.000000e+00)
0.41          	(1.262211e-04 3.742256e-11 0.000000e+00)
0.415         	(1.263373e-04 3.745247e-11 0.000000e+00)
0.42          	(1.264481e-04 3.774793e-11 0.000000e+00)
0.425         	(1.265538e-04 3.847040e-11 0.000000e+00)
0.43          	(1.266545e-04 3.496999e-11 0.000000e+00)
0.435         	(1.267506e-04 3.447831e-11 0.000000e+00)
0.44          	(1.268422e-04 3.533945e-11 0.000000e+00)
0.445         	(1.269295e-04 3.199754e-11 0.000000e+00)
0.45          	(1.270127e-04 3.333931e-11 0.000000e+00)
0.455         	(1.270920e-04 3.443346e-11 0.000000e+00)
0.46          	(1.271672e-04 3.533761e-11 0.000000e+00)
0.465         	(1.272388e-04 3.615170e-11 0.000000e+00)
0.47          	(1.273072e-04 3.601727e-11 0.000000e+00)
0.475         	(1.273723e-04 3.424575e-11 0.000000e+00)
0.48          	(1.274344e-04 3.786212e-11 0.000000e+00)
0.485         	(1.274937e-04 3.989870e-11 0.000000e+00)
0.49          	(1.275503e-04 3.470907e-11 0.000000e+00)
0.495         	(1.276042e-04 3.322799e-11 0.000000e+00)
0.5           	(1.276557e-04 3.479998e-11 0.000000e+00)
