/*--------------------------------*- C++ -*----------------------------------*\
| =========                 |                                                 |
| \\      /  F ield         | OpenFOAM: The Open Source CFD Toolbox           |
|  \\    /   O peration     | Version:  2406                                  |
|   \\  /    A nd           | Website:  www.openfoam.com                      |
|    \\/     M anipulation  |                                                 |
\*---------------------------------------------------------------------------*/
FoamFile
{
    version     2.0;
    format      ascii;
    arch        "LSB;label=32;scalar=64";
    class       surfaceScalarField;
    location    "0.1";
    object      alphaPhi0.glycerin;
}
// * * * * * * * * * * * * * * * * * * * * * * * * * * * * * * * * * * * * * //

dimensions      [0 3 -1 0 0 0 0];

oriented        oriented;

internalField   nonuniform List<scalar> 
12225
(
5.06016e-91
1.69225e-93
4.45208e-90
6.2129e-92
6.51965e-88
1.00995e-89
4.04779e-86
5.70016e-88
1.93457e-84
2.78862e-86
7.89523e-83
1.29555e-84
2.96584e-81
5.37127e-83
1.04895e-79
1.9987e-81
3.47559e-78
6.85963e-80
1.06972e-76
2.20031e-78
3.04312e-75
6.55728e-77
7.97076e-74
1.7983e-75
1.9146e-72
4.51876e-74
4.19973e-71
1.03899e-72
8.37666e-70
2.18193e-71
1.50988e-68
4.16268e-70
2.49234e-67
7.32436e-69
3.65623e-66
1.15104e-67
5.28055e-65
1.82402e-66
4.93089e-64
1.80268e-65
4.59589e-58
3.50792e-59
2.12989e-56
1.81208e-57
2.1206e-56
3.74067e-58
7.74928e-37
4.27937e-38
4.01064e-33
2.58686e-34
6.98021e-27
1.07219e-27
2.03796e-25
3.81211e-26
-3.09965e-23
-7.28974e-24
-1.04297e-21
-3.30059e-22
-1.158e-20
-6.18876e-21
-7.52933e-21
-6.8081e-20
2.16372e-09
-1.08731e-17
8.20164e-09
-7.68324e-18
9.8892e-09
-7.90096e-18
1.08628e-08
-8.899e-18
1.04691e-08
3.41663e-10
9.61535e-09
7.95764e-10
8.797e-09
7.58832e-10
7.96564e-09
7.70459e-10
7.27712e-09
6.25998e-10
6.98976e-09
2.23761e-10
7.13848e-09
-1.26664e-10
7.51762e-09
-3.34615e-10
7.81316e-09
-2.74608e-10
7.93122e-09
-1.08662e-10
7.94673e-09
-1.12199e-11
7.94243e-09
6.32726e-12
7.96838e-09
-2.1153e-11
8.05686e-09
-8.06136e-11
8.21922e-09
-1.52693e-10
8.44692e-09
-2.19293e-10
8.71638e-09
-2.65111e-10
9.00543e-09
-2.90317e-10
9.29527e-09
-2.96657e-10
9.56695e-09
-2.81954e-10
9.83133e-09
-2.73434e-10
1.00452e-08
-2.22797e-10
1.02359e-08
-1.98324e-10
1.06378e-08
-4.06723e-10
1.13175e-08
-6.82296e-10
1.2087e-08
-7.71112e-10
1.27653e-08
-6.78875e-10
1.33294e-08
-5.63692e-10
1.38316e-08
-5.009e-10
1.43323e-08
-4.98292e-10
1.48938e-08
-5.58195e-10
1.55881e-08
-6.89975e-10
1.64599e-08
-8.66767e-10
1.74912e-08
-1.02575e-09
1.86192e-08
-1.12235e-09
1.97877e-08
-1.16288e-09
2.09793e-08
-1.18609e-09
2.22125e-08
-1.22801e-09
2.35207e-08
-1.30339e-09
2.49301e-08
-1.40498e-09
2.64484e-08
-1.51445e-09
2.80689e-08
-1.61743e-09
2.9782e-08
-1.71081e-09
3.15822e-08
-1.79845e-09
3.34661e-08
-1.88246e-09
3.54277e-08
-1.96025e-09
3.74573e-08
-2.02824e-09
3.95461e-08
-2.08764e-09
4.17006e-08
-2.15357e-09
4.39377e-08
-2.23626e-09
4.62401e-08
-2.30147e-09
4.85504e-08
-2.30965e-09
5.08217e-08
-2.27083e-09
5.30567e-08
-2.23308e-09
5.5298e-08
-2.23883e-09
5.75834e-08
-2.28339e-09
5.99084e-08
-2.32346e-09
6.22267e-08
-2.3172e-09
6.44823e-08
-2.25488e-09
6.6638e-08
-2.15523e-09
6.86804e-08
-2.0423e-09
7.06148e-08
-1.93418e-09
7.24655e-08
-1.85049e-09
7.42752e-08
-1.80958e-09
7.60898e-08
-1.81438e-09
7.79425e-08
-1.85253e-09
7.98439e-08
-1.90139e-09
8.17767e-08
-1.93281e-09
8.37031e-08
-1.92658e-09
8.55916e-08
-1.8887e-09
8.74353e-08
-1.84397e-09
8.92493e-08
-1.81422e-09
9.10574e-08
-1.80834e-09
9.28739e-08
-1.82119e-09
9.47105e-08
-1.83659e-09
9.65482e-08
-1.83748e-09
9.83652e-08
-1.81688e-09
1.00143e-07
-1.77724e-09
1.01871e-07
-1.72404e-09
1.03531e-07
-1.65969e-09
1.05116e-07
-1.58446e-09
1.06615e-07
-1.49959e-09
1.08023e-07
-1.40741e-09
1.09329e-07
-1.31012e-09
1.10539e-07
-1.21022e-09
1.11649e-07
-1.10997e-09
1.1266e-07
-1.01145e-09
1.1358e-07
-9.16307e-10
1.14406e-07
-8.25896e-10
1.15147e-07
-7.41294e-10
1.15806e-07
-6.62587e-10
1.16396e-07
-5.89899e-10
1.16919e-07
-5.23436e-10
1.17383e-07
-4.63178e-10
1.17791e-07
-4.08778e-10
1.18155e-07
-3.59978e-10
1.18472e-07
-3.1646e-10
1.18749e-07
-2.77762e-10
1.18993e-07
-2.43408e-10
1.19206e-07
-2.12984e-10
1.19392e-07
-1.86156e-10
1.19554e-07
-1.62541e-10
1.19696e-07
-1.41771e-10
1.1982e-07
-1.23718e-10
1.19923e-07
-1.07883e-10
1.20017e-07
-9.39939e-11
1.20098e-07
-8.16024e-11
1.20169e-07
-7.07906e-11
1.2023e-07
-6.13615e-11
1.20284e-07
-5.32847e-11
1.20332e-07
-4.57252e-11
1.20374e-07
-3.96995e-11
1.20408e-07
-3.44972e-11
1.20437e-07
-3.01309e-11
1.20463e-07
-2.62023e-11
1.20485e-07
-2.26454e-11
1.20505e-07
-1.95524e-11
1.20524e-07
-1.69144e-11
1.20538e-07
-1.45928e-11
1.20551e-07
-1.26574e-11
1.20563e-07
-1.10215e-11
1.20573e-07
-9.61925e-12
1.20581e-07
-8.31258e-12
1.20588e-07
-7.09177e-12
1.20594e-07
-6.0554e-12
1.20599e-07
-5.22874e-12
1.20604e-07
-4.54074e-12
1.20607e-07
-3.92425e-12
1.20611e-07
-3.37821e-12
1.20613e-07
-2.89047e-12
1.20615e-07
-2.47643e-12
1.20618e-07
-2.12783e-12
1.2062e-07
-1.80657e-12
1.20622e-07
-1.53227e-12
1.20623e-07
-1.28989e-12
1.20624e-07
-1.10184e-12
1.20626e-07
-1.01804e-12
1.20627e-07
-9.01823e-13
1.20628e-07
-6.58178e-13
1.20629e-07
-4.66097e-13
1.20629e-07
-4.32971e-13
1.2063e-07
-3.62814e-13
1.2063e-07
-4.34421e-13
1.20631e-07
-4.97624e-13
1.20631e-07
-5.36306e-13
1.20632e-07
-4.71417e-13
1.20632e-07
-2.97892e-13
1.20632e-07
-3.0315e-13
1.20631e-07
-2.92775e-13
1.20631e-07
-2.12784e-13
1.20631e-07
-2.81684e-13
1.20631e-07
-2.94758e-13
1.20631e-07
-3.10655e-13
1.20632e-07
-2.42345e-13
1.20634e-07
-1.90198e-13
1.20634e-07
-1.89157e-13
1.20634e-07
-2.14579e-13
1.20634e-07
-2.21107e-13
1.20635e-07
-2.06455e-13
1.20635e-07
-1.77958e-13
1.20635e-07
-1.43931e-13
1.20635e-07
-9.57265e-14
1.20635e-07
-5.64849e-14
1.20634e-07
-1.73934e-14
1.20633e-07
9.39077e-14
1.20633e-07
2.09197e-13
1.20633e-07
2.91855e-13
1.20633e-07
3.26222e-13
1.20632e-07
3.3571e-13
1.20633e-07
3.51346e-13
1.20633e-07
3.20052e-13
1.20633e-07
2.71803e-13
1.20633e-07
2.13246e-13
1.20633e-07
1.74891e-13
1.20633e-07
1.43015e-13
1.20633e-07
1.24615e-13
1.20632e-07
1.2649e-13
1.20632e-07
1.4781e-13
1.20632e-07
1.91816e-13
1.20632e-07
2.55119e-13
1.20632e-07
3.33278e-13
1.20631e-07
4.17751e-13
1.20631e-07
5.09827e-13
1.2063e-07
5.64099e-13
1.20627e-07
6.3659e-13
1.20626e-07
7.33335e-13
1.20626e-07
9.17549e-13
1.20624e-07
1.09126e-12
1.20623e-07
1.26714e-12
1.20622e-07
1.45517e-12
1.20621e-07
1.75472e-12
1.2062e-07
2.1026e-12
1.20617e-07
2.29707e-12
1.20615e-07
2.59541e-12
1.20612e-07
2.97186e-12
1.20609e-07
3.43483e-12
1.20605e-07
3.99847e-12
1.206e-07
4.67733e-12
1.20595e-07
5.48385e-12
1.20588e-07
6.44931e-12
1.20581e-07
7.62795e-12
1.20572e-07
9.0911e-12
1.20561e-07
1.09311e-11
1.20547e-07
1.32693e-11
1.20531e-07
1.627e-11
1.20511e-07
2.01452e-11
1.20485e-07
2.52193e-11
1.20453e-07
3.18382e-11
1.20413e-07
4.04943e-11
1.20361e-07
5.16532e-11
1.20293e-07
6.58627e-11
1.20209e-07
8.3766e-11
1.20105e-07
1.04842e-10
1.19979e-07
1.26688e-10
1.35533e-10
1.04305e-91
7.05138e-96
8.1289e-91
5.52863e-94
1.15137e-88
1.46643e-91
5.02711e-87
6.13587e-90
1.99465e-85
2.15558e-88
7.6728e-84
9.70728e-87
2.7279e-82
8.90652e-85
9.00834e-81
9.79687e-84
2.77094e-79
1.34528e-81
8.03184e-78
4.52279e-80
2.18836e-76
1.34448e-78
5.54197e-75
3.66731e-77
1.29674e-73
9.16294e-76
2.79525e-72
2.21476e-74
5.53396e-71
4.73488e-73
1.0011e-69
9.19308e-72
1.67745e-68
1.65536e-70
2.52492e-67
2.77332e-69
3.81394e-66
4.59181e-68
3.75243e-65
4.91359e-67
4.54539e-59
6.96639e-61
3.25921e-57
6.06247e-59
3.57714e-57
6.51173e-59
6.7271e-38
2.0344e-39
3.88832e-34
1.41919e-35
1.24747e-27
5.40841e-29
5.70874e-26
3.10862e-27
-8.66177e-24
-1.67114e-24
-3.67867e-22
-9.859e-23
-6.08213e-21
-2.61189e-21
6.89e-18
6.22853e-18
1.41357e-18
-3.08113e-19
4.15472e-19
-3.33013e-19
3.67393e-19
-1.49238e-19
6.64654e-19
-2.23827e-19
2.74549e-10
-1.04433e-17
7.74319e-10
4.63394e-12
1.17347e-09
-1.23618e-12
1.83583e-09
-1.02017e-12
3.02826e-09
-2.4478e-13
4.77089e-09
-7.92544e-13
6.42725e-09
-1.69502e-14
7.43265e-09
-5.92986e-15
7.75924e-09
-4.47893e-15
7.79505e-09
-3.26322e-15
7.75947e-09
-1.14311e-15
7.788e-09
-2.22443e-17
7.91886e-09
-3.3007e-16
8.27373e-09
-1.26836e-15
8.84125e-09
-2.34434e-15
9.59876e-09
-3.50667e-15
1.05413e-08
-4.60455e-15
1.16763e-08
-5.68081e-15
1.30319e-08
-3.01583e-15
1.45542e-08
-6.91971e-16
1.63451e-08
-3.08045e-14
1.81959e-08
-6.80735e-14
1.88617e-08
-2.29828e-10
1.96382e-08
-4.61485e-10
2.12514e-08
-1.06809e-09
2.31002e-08
-1.17554e-09
2.4614e-08
-9.54845e-10
2.59369e-08
-8.12116e-10
2.73149e-08
-7.86732e-10
2.88657e-08
-8.43875e-10
3.06151e-08
-9.72516e-10
3.26799e-08
-1.25816e-09
3.51688e-08
-1.69067e-09
3.80192e-08
-2.11972e-09
4.108e-08
-2.41346e-09
4.4273e-08
-2.59772e-09
4.76228e-08
-2.78233e-09
5.11999e-08
-3.05344e-09
5.50733e-08
-3.44832e-09
5.92717e-08
-3.94875e-09
6.37766e-08
-4.49895e-09
6.85459e-08
-5.05367e-09
7.35496e-08
-5.60677e-09
7.87755e-08
-6.17351e-09
8.42015e-08
-6.75133e-09
8.96738e-08
-7.3067e-09
9.54292e-08
-7.78292e-09
1.01348e-07
-8.00535e-09
1.07406e-07
-8.21066e-09
1.13658e-07
-8.48733e-09
1.20125e-07
-8.76772e-09
1.26696e-07
-8.88023e-09
1.33244e-07
-8.81832e-09
1.39751e-07
-8.7397e-09
1.46315e-07
-8.80283e-09
1.53033e-07
-9.00157e-09
1.59894e-07
-9.18409e-09
1.66781e-07
-9.20385e-09
1.73563e-07
-9.03721e-09
1.80162e-07
-8.75411e-09
1.8654e-07
-8.41983e-09
1.9267e-07
-8.0639e-09
1.98551e-07
-7.73231e-09
2.04238e-07
-7.49658e-09
2.09815e-07
-7.39162e-09
2.15348e-07
-7.38526e-09
2.20863e-07
-7.41586e-09
2.26319e-07
-7.39222e-09
2.31619e-07
-7.2292e-09
2.36684e-07
-6.95286e-09
2.41501e-07
-6.66065e-09
2.46119e-07
-6.43275e-09
2.50609e-07
-6.29812e-09
2.55029e-07
-6.24081e-09
2.59397e-07
-6.2046e-09
2.63683e-07
-6.12384e-09
2.6783e-07
-5.97362e-09
2.71822e-07
-5.77186e-09
2.75639e-07
-5.54077e-09
2.79264e-07
-5.28546e-09
2.82683e-07
-5.00389e-09
2.85894e-07
-4.69882e-09
2.88864e-07
-4.37712e-09
2.916e-07
-4.0466e-09
2.94105e-07
-3.71455e-09
2.96383e-07
-3.38759e-09
2.98443e-07
-3.07121e-09
3.00297e-07
-2.7697e-09
3.01958e-07
-2.48613e-09
3.0344e-07
-2.22232e-09
3.04757e-07
-1.97909e-09
3.05925e-07
-1.75655e-09
3.06957e-07
-1.55443e-09
3.07866e-07
-1.37203e-09
3.08667e-07
-1.20823e-09
3.09369e-07
-1.06175e-09
3.09985e-07
-9.3142e-10
3.10524e-07
-8.15909e-10
3.10994e-07
-7.13796e-10
3.11406e-07
-6.23732e-10
3.11764e-07
-5.44467e-10
3.12077e-07
-4.74843e-10
3.12349e-07
-4.13795e-10
3.12586e-07
-3.60365e-10
3.12792e-07
-3.13606e-10
3.1297e-07
-2.72713e-10
3.13126e-07
-2.37001e-10
3.13261e-07
-2.05762e-10
3.13378e-07
-1.78449e-10
3.13479e-07
-1.54281e-10
3.13567e-07
-1.33852e-10
3.13644e-07
-1.15777e-10
3.1371e-07
-1.00309e-10
3.13767e-07
-8.70568e-11
3.13816e-07
-7.55304e-11
3.1386e-07
-6.55874e-11
3.13897e-07
-5.68666e-11
3.1393e-07
-4.91158e-11
3.13958e-07
-4.25679e-11
3.13983e-07
-3.69169e-11
3.14004e-07
-3.20525e-11
3.14022e-07
-2.77819e-11
3.14038e-07
-2.40449e-11
3.14051e-07
-2.06295e-11
3.14062e-07
-1.77493e-11
3.14072e-07
-1.55512e-11
3.1408e-07
-1.36281e-11
3.14087e-07
-1.19342e-11
3.14092e-07
-1.03253e-11
3.14097e-07
-9.11343e-12
3.14101e-07
-7.90998e-12
3.14105e-07
-6.97859e-12
3.14108e-07
-6.03784e-12
3.1411e-07
-5.16647e-12
3.14112e-07
-4.39486e-12
3.14114e-07
-3.80467e-12
3.14115e-07
-3.37561e-12
3.14108e-07
-2.90764e-12
3.14109e-07
-2.45238e-12
3.1411e-07
-2.24792e-12
3.14111e-07
-1.89556e-12
3.14122e-07
-1.72201e-12
3.14123e-07
-1.71039e-12
3.14124e-07
-1.76871e-12
3.14118e-07
-1.74374e-12
3.14114e-07
-1.5306e-12
3.14115e-07
-1.24354e-12
3.14116e-07
-1.01452e-12
3.14116e-07
-7.50932e-13
3.14127e-07
-5.85456e-13
3.14128e-07
-5.94291e-13
3.14129e-07
-5.80149e-13
3.14129e-07
-4.88696e-13
3.14129e-07
-3.87838e-13
3.1413e-07
-3.1859e-13
3.1413e-07
-2.94553e-13
3.14131e-07
-2.45464e-13
3.14131e-07
-2.30335e-13
3.14131e-07
-2.20113e-13
3.14132e-07
-1.81235e-13
3.14132e-07
-1.68e-13
3.14132e-07
-1.66387e-13
3.14132e-07
-1.11838e-13
3.14132e-07
-1.04102e-14
3.14132e-07
1.31812e-13
3.14132e-07
2.97578e-13
3.14132e-07
4.35459e-13
3.14132e-07
5.37196e-13
3.14132e-07
6.08285e-13
3.14132e-07
6.57042e-13
3.14132e-07
6.74443e-13
3.14132e-07
6.54807e-13
3.14132e-07
6.43042e-13
3.14132e-07
6.22072e-13
3.14131e-07
5.93534e-13
3.14131e-07
5.91263e-13
3.14131e-07
6.28282e-13
3.1413e-07
7.09949e-13
3.1413e-07
8.3661e-13
3.14129e-07
9.954e-13
3.14129e-07
1.17965e-12
3.14128e-07
1.39297e-12
3.14127e-07
1.63043e-12
3.14126e-07
1.85541e-12
3.14124e-07
2.16791e-12
3.14122e-07
2.55516e-12
3.1412e-07
3.01843e-12
3.14118e-07
3.55472e-12
3.14115e-07
4.15863e-12
3.14112e-07
4.84649e-12
3.14108e-07
5.628e-12
3.14103e-07
6.46198e-12
3.14098e-07
7.46079e-12
3.14092e-07
8.54716e-12
3.14085e-07
9.82135e-12
3.14076e-07
1.13336e-11
3.14067e-07
1.31616e-11
3.14056e-07
1.53481e-11
3.14043e-07
1.7902e-11
3.14027e-07
2.09608e-11
3.1401e-07
2.46412e-11
3.13989e-07
2.91304e-11
3.13965e-07
3.45974e-11
3.13937e-07
4.13146e-11
3.13903e-07
4.96089e-11
3.13863e-07
5.98988e-11
3.13816e-07
7.26635e-11
3.1376e-07
8.85348e-11
3.13692e-07
1.0815e-10
3.13612e-07
1.32105e-10
3.13518e-07
1.60728e-10
3.13408e-07
1.93905e-10
3.13284e-07
2.29009e-10
3.13152e-07
2.59108e-10
2.694e-10
4.4467e-93
1.42054e-96
3.018e-92
1.95005e-95
5.7305e-90
1.24478e-92
1.97329e-88
5.80623e-91
5.94606e-87
2.1984e-89
3.65052e-85
1.46738e-87
4.76971e-83
2.70906e-85
1.61767e-82
1.00939e-84
2.21747e-81
2.11832e-83
6.21046e-80
6.62609e-82
1.70632e-78
1.99434e-80
4.42593e-77
5.62533e-79
1.09074e-75
1.46938e-77
2.31072e-74
3.47508e-76
4.89497e-73
7.79535e-75
9.61359e-72
1.62695e-73
1.73674e-70
3.13724e-72
2.7452e-69
5.15386e-71
4.80571e-68
1.02803e-69
5.20185e-67
1.2052e-68
6.78405e-61
1.82332e-62
5.97565e-59
1.65896e-60
1.08046e-58
2.53367e-60
2.04948e-39
5.86115e-41
1.33873e-35
4.93638e-37
5.18778e-29
2.20633e-30
3.00722e-27
1.52899e-28
-1.80573e-24
-2.66991e-25
-1.02195e-22
-1.76745e-23
-2.59204e-21
-5.17143e-22
9.13263e-18
5.70432e-19
1.1626e-17
2.00185e-18
1.81018e-17
6.23978e-18
3.78707e-17
1.4314e-17
1.98384e-17
1.15682e-17
1.80968e-18
1.02649e-18
3.13601e-12
1.49648e-12
1.42094e-12
4.39709e-13
8.44968e-13
-4.99533e-13
7.90439e-13
-2.06028e-13
1.11924e-14
-1.39815e-14
2.15981e-15
-8.43831e-15
2.01401e-15
-6.21938e-15
2.02166e-15
-4.91153e-15
2.08285e-15
-3.61924e-15
2.14008e-15
-1.36246e-15
2.18198e-15
-2.08894e-16
2.21554e-15
-5.05697e-16
2.25523e-15
-1.35324e-15
2.30663e-15
-2.36953e-15
2.37813e-15
-3.52168e-15
2.47387e-15
-4.52109e-15
2.6007e-15
-5.51272e-15
2.72465e-15
-2.82587e-15
2.86197e-15
-8.03292e-16
3.40357e-15
-3.11613e-14
5.94815e-15
-6.71563e-14
5.41006e-10
-1.72028e-12
2.34518e-09
-4.44776e-13
3.41633e-09
-4.10423e-14
3.32533e-09
-5.25012e-15
3.14488e-09
-3.7291e-14
3.01722e-09
-4.92298e-14
3.23547e-09
-5.01073e-14
3.64914e-09
-2.21856e-14
4.63415e-09
-4.24895e-14
6.27554e-09
-5.54691e-14
8.22633e-09
-5.91265e-14
1.00053e-08
-3.95264e-14
1.15543e-08
-7.90361e-14
1.3229e-08
-7.88716e-14
1.54243e-08
-8.39354e-14
1.84547e-08
-8.9094e-14
2.24609e-08
-1.01281e-13
2.73739e-08
-1.10532e-13
3.30743e-08
-1.15311e-13
3.96003e-08
-1.26159e-13
4.71534e-08
-8.26377e-14
5.59232e-08
-2.97991e-14
6.59226e-08
-4.82608e-14
7.69577e-08
-6.87151e-14
8.87261e-08
-7.05176e-14
1.00949e-07
-4.8114e-14
1.13166e-07
-4.73357e-15
1.24758e-07
-1.87028e-09
1.35881e-07
-4.74976e-09
1.48198e-07
-5.49568e-09
1.61715e-07
-6.09566e-09
1.75831e-07
-6.74625e-09
1.9034e-07
-7.79938e-09
2.05062e-07
-9.51348e-09
2.19664e-07
-1.16533e-08
2.33874e-07
-1.35622e-08
2.47633e-07
-1.50056e-08
2.60954e-07
-1.62615e-08
2.73612e-07
-1.74141e-08
2.84526e-07
-1.81936e-08
2.95331e-07
-1.84107e-08
3.05828e-07
-1.7997e-08
3.15939e-07
-1.75031e-08
3.25719e-07
-1.71653e-08
3.35351e-07
-1.70458e-08
3.44809e-07
-1.68489e-08
3.53824e-07
-1.62433e-08
3.62165e-07
-1.52949e-08
3.69837e-07
-1.43342e-08
3.76963e-07
-1.35586e-08
3.83694e-07
-1.30286e-08
3.90192e-07
-1.27381e-08
3.96535e-07
-1.25486e-08
4.02658e-07
-1.22459e-08
4.08455e-07
-1.17699e-08
4.13902e-07
-1.12178e-08
4.19028e-07
-1.06649e-08
4.23854e-07
-1.01079e-08
4.28368e-07
-9.51685e-09
4.32558e-07
-8.88684e-09
4.36413e-07
-8.23183e-09
4.39936e-07
-7.56833e-09
4.43132e-07
-6.90975e-09
4.46013e-07
-6.2683e-09
4.48596e-07
-5.65408e-09
4.50902e-07
-5.07458e-09
4.5295e-07
-4.53455e-09
4.54765e-07
-4.03647e-09
4.56367e-07
-3.58104e-09
4.57778e-07
-3.1676e-09
4.59018e-07
-2.79453e-09
4.60106e-07
-2.45966e-09
4.61058e-07
-2.16054e-09
4.6189e-07
-1.89443e-09
4.62617e-07
-1.65849e-09
4.63251e-07
-1.44995e-09
4.63802e-07
-1.26613e-09
4.64283e-07
-1.10446e-09
4.647e-07
-9.62577e-10
4.65063e-07
-8.38329e-10
4.65379e-07
-7.29653e-10
4.65652e-07
-6.34735e-10
4.6589e-07
-5.51862e-10
4.66095e-07
-4.7952e-10
4.66274e-07
-4.16406e-10
4.66425e-07
-3.61427e-10
4.66546e-07
-3.13486e-10
4.66663e-07
-2.7173e-10
4.66764e-07
-2.35435e-10
4.66852e-07
-2.04015e-10
4.66928e-07
-1.7682e-10
4.66994e-07
-1.53199e-10
4.67063e-07
-1.32658e-10
4.6712e-07
-1.1493e-10
4.67163e-07
-9.9637e-11
4.672e-07
-8.6373e-11
4.67232e-07
-7.4878e-11
4.6726e-07
-6.49397e-11
4.67285e-07
-5.63193e-11
4.67306e-07
-4.88665e-11
4.6731e-07
-4.24461e-11
4.67321e-07
-3.67338e-11
4.67334e-07
-3.17752e-11
4.67347e-07
-2.75211e-11
4.67357e-07
-2.39692e-11
4.67366e-07
-2.09413e-11
4.67374e-07
-1.83772e-11
4.67381e-07
-1.589e-11
4.67406e-07
-1.38287e-11
4.67411e-07
-1.2082e-11
4.67415e-07
-1.06128e-11
4.67415e-07
-9.31835e-12
4.67418e-07
-8.16458e-12
4.67421e-07
-7.10803e-12
4.67425e-07
-6.10458e-12
4.6743e-07
-5.21004e-12
4.67434e-07
-4.37861e-12
4.67436e-07
-3.9352e-12
4.67423e-07
-3.45933e-12
4.67424e-07
-3.27538e-12
4.67425e-07
-3.04793e-12
4.67426e-07
-2.76318e-12
4.67427e-07
-2.46759e-12
4.67427e-07
-2.11311e-12
4.67428e-07
-1.72848e-12
4.67428e-07
-1.42404e-12
4.67439e-07
-1.06712e-12
4.67447e-07
-8.13759e-13
4.67447e-07
-7.25346e-13
4.67447e-07
-6.33702e-13
4.67447e-07
-5.24055e-13
4.67447e-07
-4.16046e-13
4.67447e-07
-3.70741e-13
4.67444e-07
-3.47414e-13
4.67444e-07
-3.00081e-13
4.67444e-07
-2.51861e-13
4.67444e-07
-1.99713e-13
4.67445e-07
-1.21826e-13
4.67447e-07
-7.07917e-14
4.67447e-07
-5.73928e-14
4.67447e-07
4.91031e-15
4.67447e-07
1.22784e-13
4.67446e-07
3.11927e-13
4.67446e-07
5.32024e-13
4.67446e-07
6.75466e-13
4.67446e-07
8.07098e-13
4.67446e-07
8.97885e-13
4.67446e-07
9.42757e-13
4.67446e-07
9.80091e-13
4.67445e-07
1.04737e-12
4.67445e-07
1.11064e-12
4.67444e-07
1.15503e-12
4.67443e-07
1.16819e-12
4.67443e-07
1.22675e-12
4.67442e-07
1.34521e-12
4.67441e-07
1.51302e-12
4.6744e-07
1.74095e-12
4.67438e-07
2.02264e-12
4.67437e-07
2.35485e-12
4.67436e-07
2.7352e-12
4.67435e-07
3.16403e-12
4.67433e-07
3.65214e-12
4.67431e-07
4.22302e-12
4.67429e-07
4.91527e-12
4.67426e-07
5.72425e-12
4.67423e-07
6.66296e-12
4.67419e-07
7.73952e-12
4.67415e-07
8.96741e-12
4.6741e-07
1.03615e-11
4.67404e-07
1.19351e-11
4.67397e-07
1.37391e-11
4.6739e-07
1.58197e-11
4.67381e-07
1.82485e-11
4.67371e-07
2.10919e-11
4.6736e-07
2.44223e-11
4.67347e-07
2.83422e-11
4.67333e-07
3.29843e-11
4.67316e-07
3.8456e-11
4.67296e-07
4.49615e-11
4.67272e-07
5.26779e-11
4.67245e-07
6.1924e-11
4.67213e-07
7.30035e-11
4.67177e-07
8.63001e-11
4.67134e-07
1.0227e-10
4.67086e-07
1.21429e-10
4.6703e-07
1.44322e-10
4.66967e-07
1.71451e-10
4.66896e-07
2.03108e-10
4.66817e-07
2.39095e-10
4.66733e-07
2.78394e-10
4.66644e-07
3.17426e-10
4.66551e-07
3.48794e-10
3.58199e-10
2.3938e-96
9.15517e-100
9.22898e-95
1.60871e-97
1.46289e-92
5.13105e-95
6.26059e-91
2.98353e-93
2.28115e-89
1.30592e-91
1.54273e-87
1.02772e-89
2.78119e-85
1.81525e-87
1.27906e-84
8.78601e-87
2.084e-83
1.74742e-85
6.76451e-82
6.24267e-84
2.03609e-80
2.04206e-82
5.77195e-79
6.25852e-81
1.51488e-77
1.79099e-79
3.31212e-76
4.13428e-78
8.04816e-75
1.06271e-76
1.68433e-73
2.36991e-75
3.27307e-72
4.88969e-74
5.43919e-71
8.72979e-73
9.68221e-70
1.55818e-71
1.2909e-68
2.1309e-70
1.78055e-62
3.20956e-64
1.63775e-60
4.17873e-62
4.10483e-60
9.44862e-62
4.87498e-41
1.18076e-42
4.79984e-37
1.37099e-38
2.11447e-30
8.03948e-32
1.48621e-28
6.37901e-30
-2.88682e-25
-3.35162e-26
-1.85158e-23
-2.36164e-24
-5.26995e-22
-7.32186e-23
6.7082e-19
4.03626e-20
3.11483e-18
1.11174e-19
1.16995e-17
4.36331e-19
3.61499e-17
2.25659e-18
4.48717e-17
1.95993e-18
4.40231e-17
1.85383e-18
1.40462e-12
9.25161e-14
1.80115e-12
3.94953e-14
1.30926e-12
-4.14215e-14
1.2007e-12
2.01593e-15
1.18981e-12
2.53022e-14
1.15542e-12
3.70298e-14
1.12477e-12
3.21965e-14
1.0943e-12
2.73732e-14
1.07128e-12
2.35978e-14
3.30711e-13
1.01551e-14
3.29053e-13
1.30434e-15
9.84965e-13
8.31608e-15
1.0038e-12
1.62773e-14
9.94006e-13
2.3315e-14
9.67829e-13
2.99278e-14
9.27858e-13
3.79016e-14
8.79427e-13
4.87028e-14
4.05714e-13
2.32829e-14
4.61346e-13
9.25572e-15
1.99483e-12
3.53271e-13
1.92016e-12
7.58696e-13
2.19983e-13
-2.50478e-14
3.84452e-14
7.86128e-15
1.73651e-14
-1.83691e-14
1.38618e-14
-3.13803e-15
1.61483e-14
-4.053e-14
1.86947e-14
-5.23125e-14
2.06834e-14
-5.17292e-14
2.18255e-14
-2.28078e-14
2.34022e-14
-4.60638e-14
2.47243e-14
-5.97551e-14
2.56803e-14
-6.64395e-14
2.59458e-14
-5.1039e-14
2.70377e-14
-9.19973e-14
2.79063e-14
-9.30534e-14
2.8529e-14
-1.02782e-13
2.90245e-14
-1.13411e-13
2.93985e-14
-1.2254e-13
2.9183e-14
-1.30805e-13
2.79243e-14
-1.38885e-13
2.67281e-14
-1.40275e-13
2.37293e-14
-9.08468e-14
2.18538e-14
-4.6978e-14
2.2793e-14
-6.26145e-14
2.31272e-14
-7.13418e-14
2.16408e-14
-7.64779e-14
1.92439e-14
-6.26998e-14
1.78555e-14
-2.03279e-14
2.20076e-10
-1.29104e-13
3.38553e-09
-4.80917e-14
7.02359e-09
-5.13278e-15
1.08243e-08
-1.63316e-14
1.70738e-08
-3.70721e-14
2.85656e-08
-2.88272e-14
4.68838e-08
-1.12859e-14
6.92931e-08
-4.859e-15
9.2376e-08
-2.13411e-15
1.18136e-07
-9.13581e-16
1.50293e-07
-5.82445e-16
1.88473e-07
-6.76922e-16
2.28744e-07
-7.66674e-16
2.68492e-07
-9.18957e-16
3.06996e-07
-7.30921e-16
3.42262e-07
-4.84674e-09
3.72539e-07
-8.16532e-09
4.00083e-07
-1.15424e-08
4.24068e-07
-1.88884e-08
4.42579e-07
-2.42931e-08
4.56184e-07
-2.55946e-08
4.67708e-07
-2.52706e-08
4.78579e-07
-2.42711e-08
4.88446e-07
-2.2888e-08
4.97655e-07
-2.19601e-08
5.06418e-07
-2.13102e-08
5.14628e-07
-2.04429e-08
5.22036e-07
-1.91719e-08
5.28684e-07
-1.78649e-08
5.34786e-07
-1.67695e-08
5.40456e-07
-1.57805e-08
5.45695e-07
-1.47573e-08
5.50492e-07
-1.36836e-08
5.54857e-07
-1.25946e-08
5.588e-07
-1.15109e-08
5.62339e-07
-1.04476e-08
5.65493e-07
-9.42185e-09
5.68288e-07
-8.44914e-09
5.70754e-07
-7.54044e-09
5.72922e-07
-6.70203e-09
5.74821e-07
-5.93611e-09
5.76482e-07
-5.24205e-09
5.77932e-07
-4.61723e-09
5.79196e-07
-4.05787e-09
5.80295e-07
-3.55937e-09
5.81252e-07
-3.11683e-09
5.82082e-07
-2.72531e-09
5.82804e-07
-2.37992e-09
5.83428e-07
-2.07599e-09
5.8397e-07
-1.80914e-09
5.84441e-07
-1.57529e-09
5.84849e-07
-1.37067e-09
5.85202e-07
-1.19183e-09
5.8551e-07
-1.03583e-09
5.85776e-07
-8.99875e-10
5.86005e-07
-7.81469e-10
5.86205e-07
-6.78374e-10
5.86377e-07
-5.88668e-10
5.86527e-07
-5.10633e-10
5.86657e-07
-4.42778e-10
5.86769e-07
-3.83787e-10
5.86867e-07
-3.32565e-10
5.86951e-07
-2.88132e-10
5.87025e-07
-2.49606e-10
5.87088e-07
-2.16206e-10
5.87143e-07
-1.87258e-10
5.87191e-07
-1.62219e-10
5.87232e-07
-1.4057e-10
5.87268e-07
-1.21844e-10
5.87299e-07
-1.0565e-10
5.87326e-07
-9.16524e-11
5.8735e-07
-7.95568e-11
5.8737e-07
-6.91161e-11
5.87388e-07
-6.00516e-11
5.87404e-07
-5.21383e-11
5.87417e-07
-4.52395e-11
5.87429e-07
-3.92544e-11
5.87439e-07
-3.41202e-11
5.87448e-07
-2.97258e-11
5.87455e-07
-2.58646e-11
5.87462e-07
-2.24506e-11
5.87468e-07
-1.9521e-11
5.87473e-07
-1.70688e-11
5.87478e-07
-1.49952e-11
5.87482e-07
-1.31622e-11
5.87485e-07
-1.15689e-11
5.87489e-07
-1.0161e-11
5.87492e-07
-8.87681e-12
5.87494e-07
-7.6998e-12
5.87497e-07
-6.76794e-12
5.87499e-07
-5.91144e-12
5.87501e-07
-5.34726e-12
5.87502e-07
-4.73689e-12
5.87504e-07
-4.23005e-12
5.87505e-07
-3.73591e-12
5.87505e-07
-3.22954e-12
5.87506e-07
-2.70468e-12
5.87506e-07
-2.23698e-12
5.87506e-07
-1.83348e-12
5.87506e-07
-1.49618e-12
5.87506e-07
-1.20357e-12
5.87506e-07
-9.78401e-13
5.87505e-07
-8.17355e-13
5.87505e-07
-6.85026e-13
5.87504e-07
-5.79032e-13
5.87503e-07
-5.03125e-13
5.87502e-07
-4.29087e-13
5.87501e-07
-3.61666e-13
5.87499e-07
-2.92037e-13
5.87496e-07
-1.99377e-13
5.87496e-07
-9.97224e-14
5.87498e-07
-4.29406e-14
5.87499e-07
-1.45067e-14
5.87499e-07
6.3989e-14
5.87494e-07
2.13977e-13
5.87487e-07
3.98099e-13
5.87487e-07
6.47503e-13
5.87486e-07
8.48814e-13
5.87486e-07
9.86896e-13
5.87486e-07
1.09813e-12
5.87486e-07
1.17723e-12
5.87485e-07
1.2703e-12
5.87485e-07
1.39397e-12
5.87485e-07
1.55499e-12
5.87494e-07
1.68328e-12
5.87495e-07
1.77827e-12
5.87495e-07
1.9015e-12
5.87494e-07
2.11346e-12
5.87493e-07
2.35855e-12
5.87492e-07
2.68007e-12
5.87492e-07
3.08588e-12
5.87491e-07
3.56919e-12
5.8749e-07
4.13058e-12
5.87489e-07
4.7692e-12
5.87487e-07
5.48982e-12
5.87485e-07
6.31521e-12
5.87483e-07
7.28483e-12
5.87481e-07
8.4262e-12
5.87478e-07
9.75158e-12
5.87474e-07
1.12774e-11
5.87471e-07
1.30252e-11
5.87466e-07
1.50224e-11
5.87461e-07
1.73049e-11
5.87455e-07
1.99266e-11
5.87448e-07
2.29543e-11
5.8744e-07
2.64583e-11
5.87431e-07
3.05239e-11
5.8742e-07
3.52503e-11
5.87408e-07
4.07589e-11
5.87394e-07
4.72007e-11
5.87378e-07
5.4728e-11
5.8736e-07
6.35337e-11
5.87339e-07
7.38678e-11
5.87315e-07
8.60043e-11
5.87288e-07
1.00263e-10
5.87257e-07
1.17005e-10
5.87223e-07
1.36632e-10
5.87185e-07
1.59565e-10
5.87143e-07
1.86192e-10
5.87098e-07
2.16797e-10
5.87049e-07
2.51387e-10
5.86999e-07
2.89429e-10
5.86948e-07
3.29564e-10
5.86897e-07
3.68289e-10
5.86846e-07
3.98932e-10
4.09589e-10
8.94495e-100
3.45718e-103
1.58905e-97
3.01598e-100
5.13161e-95
1.86042e-97
2.85475e-93
1.34325e-95
1.30089e-91
7.28699e-94
1.01392e-89
6.68678e-92
1.79277e-87
1.35318e-89
1.04929e-86
1.00713e-88
1.74247e-85
2.20255e-87
6.21454e-84
8.764e-86
2.03559e-82
3.15652e-84
6.27203e-81
7.30751e-83
1.76028e-79
5.89165e-81
4.04016e-78
1.47329e-79
1.04539e-76
4.16376e-78
2.3357e-75
1.01922e-76
4.87714e-74
2.34929e-75
8.55716e-73
4.50777e-74
1.55281e-71
9.09106e-73
2.1477e-70
1.38445e-71
3.14319e-64
6.63729e-66
4.12027e-62
9.73032e-64
1.61085e-61
1.2769e-62
1.14838e-42
3.22036e-44
1.15263e-38
3.06991e-40
7.74866e-32
2.55402e-33
6.23028e-30
2.25836e-31
-3.69039e-26
-3.48667e-27
-2.52927e-24
-2.54798e-25
-7.6681e-23
-8.14854e-24
3.75822e-20
2.69813e-21
1.48487e-19
1.08828e-20
6.18731e-19
4.43093e-20
3.33828e-18
1.86695e-19
6.00613e-18
8.4715e-20
1.35316e-18
1.94061e-20
8.71131e-14
4.73693e-15
1.22271e-13
3.78216e-15
8.08859e-14
-3.43216e-16
8.63406e-14
-1.53829e-15
1.12054e-13
-1.20885e-15
1.49705e-13
-5.96766e-16
1.75797e-13
-4.66121e-16
1.98721e-13
-4.87416e-16
2.43422e-13
-5.24415e-16
2.64017e-13
-5.9156e-16
2.2793e-13
2.43866e-15
2.14786e-13
-6.36155e-16
2.20557e-13
-2.67471e-16
2.39414e-13
-1.04052e-16
3.03683e-13
3.30401e-16
4.42974e-13
1.2965e-15
3.40536e-13
7.50292e-16
1.28869e-13
5.1053e-16
1.89282e-13
1.83591e-15
9.11396e-13
7.40156e-15
1.76705e-12
2.27733e-14
7.70599e-13
5.72708e-14
1.20295e-12
1.92728e-14
2.62989e-12
9.30882e-14
2.70874e-12
8.33833e-14
2.72395e-12
3.84214e-14
2.72442e-12
2.92493e-15
2.76266e-12
-1.17403e-15
2.453e-12
-3.44075e-15
2.54757e-12
-1.33575e-14
2.77685e-12
-2.67288e-14
2.99088e-12
-1.9352e-14
4.0768e-12
-3.46426e-14
3.82225e-12
-4.29527e-14
3.38695e-12
-1.77234e-14
3.60635e-12
-3.74517e-14
3.57453e-12
-8.43926e-15
3.52637e-12
-5.07304e-15
3.46927e-12
-4.9009e-15
3.43562e-12
-3.59299e-14
2.59794e-12
-4.5989e-14
2.12055e-13
-2.79336e-14
3.14613e-13
-4.21848e-15
1.21092e-12
-1.88058e-16
1.16804e-12
1.61222e-14
1.11941e-12
3.81752e-14
2.97578e-13
3.44903e-14
1.88806e-13
1.53545e-14
5.61883e-14
-1.11375e-14
1.60524e-14
-1.49303e-14
7.66094e-15
-4.11464e-15
7.63507e-15
-2.52569e-14
8.33152e-15
-4.50955e-14
6.21461e-15
-3.05714e-14
3.90841e-15
-1.08821e-14
2.60222e-15
-4.55261e-15
2.01787e-15
-2.12942e-15
1.80299e-15
-1.14542e-15
1.79005e-15
-9.5636e-16
1.86939e-15
-1.17254e-15
1.97959e-15
-1.26019e-15
2.14199e-15
-1.33638e-15
2.31882e-15
-1.04809e-15
1.42422e-09
-2.33762e-15
1.84897e-08
-2.53276e-15
9.6263e-08
-2.92816e-15
2.23509e-07
-5.21938e-15
3.11319e-07
-3.13972e-14
3.66648e-07
-1.68187e-13
4.23449e-07
-8.59108e-13
4.77604e-07
-7.11325e-09
5.20802e-07
-7.87126e-09
5.58038e-07
-1.19158e-08
5.84267e-07
-2.53169e-08
5.99516e-07
-2.99922e-08
6.09826e-07
-2.81865e-08
6.18248e-07
-2.57511e-08
6.25933e-07
-2.38283e-08
6.32992e-07
-2.22439e-08
6.39113e-07
-2.05956e-08
6.44435e-07
-1.88747e-08
6.49128e-07
-1.72041e-08
6.53271e-07
-1.56062e-08
6.5691e-07
-1.40649e-08
6.60092e-07
-1.25941e-08
6.62863e-07
-1.12149e-08
6.65266e-07
-9.94116e-09
6.67343e-07
-8.77908e-09
6.69137e-07
-7.7293e-09
6.70683e-07
-6.78793e-09
6.72015e-07
-5.94873e-09
6.73162e-07
-5.20416e-09
6.74149e-07
-4.54601e-09
6.74999e-07
-3.96602e-09
6.75731e-07
-3.45626e-09
6.76361e-07
-3.00927e-09
6.76903e-07
-2.61801e-09
6.77371e-07
-2.27606e-09
6.77774e-07
-1.97765e-09
6.78121e-07
-1.7175e-09
6.78421e-07
-1.49094e-09
6.78679e-07
-1.29385e-09
6.78902e-07
-1.12248e-09
6.79094e-07
-9.736e-10
6.79261e-07
-8.44266e-10
6.79404e-07
-7.31971e-10
6.79528e-07
-6.34527e-10
6.79635e-07
-5.49941e-10
6.79727e-07
-4.76501e-10
6.79807e-07
-4.12773e-10
6.79876e-07
-3.57539e-10
6.79936e-07
-3.09691e-10
6.79988e-07
-2.68262e-10
6.80033e-07
-2.32404e-10
6.80071e-07
-2.01386e-10
6.80105e-07
-1.74534e-10
6.80133e-07
-1.51304e-10
6.80158e-07
-1.31205e-10
6.8018e-07
-1.13816e-10
6.80198e-07
-9.87693e-11
6.80215e-07
-8.57467e-11
6.80229e-07
-7.44646e-11
6.8024e-07
-6.46873e-11
6.80247e-07
-5.62098e-11
6.80256e-07
-4.88525e-11
6.80264e-07
-4.24782e-11
6.80272e-07
-3.69611e-11
6.80278e-07
-3.21685e-11
6.80283e-07
-2.79793e-11
6.80292e-07
-2.43487e-11
6.80297e-07
-2.12552e-11
6.80301e-07
-1.8604e-11
6.80304e-07
-1.63124e-11
6.80307e-07
-1.43152e-11
6.8031e-07
-1.25682e-11
6.80311e-07
-1.10431e-11
6.80309e-07
-9.70964e-12
6.80308e-07
-8.54853e-12
6.8031e-07
-7.51038e-12
6.80311e-07
-6.59773e-12
6.80312e-07
-5.78702e-12
6.80313e-07
-5.08799e-12
6.80314e-07
-4.45076e-12
6.80314e-07
-3.86029e-12
6.80315e-07
-3.30319e-12
6.80317e-07
-2.76518e-12
6.80323e-07
-2.28187e-12
6.80324e-07
-1.89375e-12
6.80324e-07
-1.60311e-12
6.80324e-07
-1.35721e-12
6.80325e-07
-1.15495e-12
6.80325e-07
-9.86298e-13
6.80326e-07