/*--------------------------------*- C++ -*----------------------------------*\
| =========                 |                                                 |
| \\      /  F ield         | OpenFOAM: The Open Source CFD Toolbox           |
|  \\    /   O peration     | Version:  2406                                  |
|   \\  /    A nd           | Website:  www.openfoam.com                      |
|    \\/     M anipulation  |                                                 |
\*---------------------------------------------------------------------------*/
FoamFile
{
    version     2.0;
    format      ascii;
    arch        "LSB;label=32;scalar=64";
    class       volScalarField;
    location    "0.1";
    object      alpha.glycerin;
}
// * * * * * * * * * * * * * * * * * * * * * * * * * * * * * * * * * * * * * //

dimensions      [0 0 0 0 0 0 0];

internalField   nonuniform List<scalar> 
6250
(
4.43712e-85
3.30093e-84
5.67264e-82
3.562e-80
1.73261e-78
7.22644e-77
2.78397e-75
1.01233e-73
3.45705e-72
1.09971e-70
3.2433e-69
8.83472e-68
2.21409e-66
5.08454e-65
1.06578e-63
2.02634e-62
3.546e-61
5.52511e-60
8.66319e-59
8.40353e-58
1.70881e-51
8.5929e-50
1.11534e-51
1.78351e-30
1.04643e-26
4.46441e-20
1.54718e-18
-2.90678e-16
-1.28759e-14
-2.19364e-13
-1.43234e-12
0.0386133
0.472935
0.763193
0.925566
0.985629
0.990128
0.990167
0.990203
0.990247
0.990276
0.990446
0.992543
0.993992
0.994794
0.995342
0.995799
0.996264
0.996799
0.99739
0.997961
0.998455
0.998829
0.999048
0.999155
0.999221
0.999261
0.999292
0.999347
0.999424
0.999493
0.99954
0.999577
0.999608
0.999637
0.999666
0.999699
0.999736
0.999774
0.99981
0.999843
0.999871
0.999895
0.999916
0.999934
0.999949
0.99996
0.999969
0.999975
0.999979
0.999982
0.999985
0.999988
0.999991
0.999993
0.999995
0.999998
1
1
1
1.00001
1.00001
1.00001
1.00001
1.00001
1.00001
1.00001
1.00001
1.00001
1.00001
1.00001
1.00001
1.00001
1.00001
1.00001
1
1
1
0.999971
0.999955
0.999955
0.999955
0.999955
0.999983
1
1
1
1
0.999977
0.999964
0.999964
0.999964
0.999971
0.999999
1
0.999974
0.999965
0.999965
0.999965
0.999965
0.999977
1
1
1
1
1
1
1
1
0.999977
0.999955
0.999955
0.999955
0.999955
0.999955
0.999958
0.999993
1
0.999987
0.999979
0.999979
0.999979
0.999993
1
1
1
1.00001
1.00001
1.00001
1.00001
1.00001
1.00001
1.00001
1
0.999998
0.999994
0.999994
0.999998
1
1
1
1
1.00001
1.00001
1.00001
1.00001
1.00001
1.00001
1.00001
1
1
1
1
0.999997
0.999984
0.999984
0.999984
0.999984
0.999984
0.99999
1
1
1
1
1
1
1
1
0.999998
0.999989
0.999989
0.999989
0.999989
0.999989
0.99999
0.999999
1
1
1
1
1
1
1
1
1
1
1
1
1
0.999989
0.999983
0.999983
0.999983
0.999983
0.999983
0.999983
0.999996
1
1
1
1
1
1
1
1.00001
1.00001
1
1
1
1
1
1
1
1
1
0.999989
0.99998
0.99998
0.999985
0.999985
8.94278e-86
5.31216e-85
9.02807e-83
3.84682e-81
1.51071e-79
5.75135e-78
2.02678e-76
6.63515e-75
2.04385e-73
5.9068e-72
1.60759e-70
4.07423e-69
9.56067e-68
2.07217e-66
4.13378e-65
7.55409e-64
1.28384e-62
1.9616e-61
3.0608e-60
2.98968e-59
3.97555e-53
5.62225e-51
3.66686e-53
5.875e-32
3.56253e-28
1.28318e-21
1.33582e-19
-2.2612e-17
-1.14139e-15
-2.48041e-14
4.48132e-11
1.68836e-11
2.1196e-11
2.5737e-11
2.98867e-11
0.0109513
0.042363
0.0766977
0.125872
0.200825
0.306536
0.413077
0.486522
0.519181
0.525526
0.522661
0.518299
0.518799
0.525938
0.541671
0.564579
0.59378
0.628876
0.669982
0.716677
0.767674
0.825592
0.860538
0.862857
0.864981
0.872972
0.883317
0.890811
0.896968
0.903722
0.911467
0.919604
0.928022
0.936433
0.944315
0.95157
0.958455
0.965191
0.97183
0.978187
0.983995
0.989003
0.993108
0.996307
0.998582
0.99979
0.999985
0.999987
0.999989
0.999992
0.999994
0.999996
0.999998
1
1
1
1
1
1
1
1
1
1
1
1
1
1
1
0.999996
0.999997
1
1
1
1
1
1
0.999994
0.999957
0.999956
0.999958
0.999958
0.999976
1
1
1
1
1
1.00001
1.00001
1.00001
1.00001
1.00002
1.00002
1.00002
1.00002
1.00003
1.00003
1.00003
1.00003
1.00003
1.00004
1.00004
1.00004
1.00004
1.00004
1.00004
1.00004
1.00004
1.00004
1.00004
1.00004
1.00004
1.00004
1.00004
1.00004
1.00004
1.00004
1.00004
1.00004
1.00005
1.00005
1.00005
1.00004
1.00004
1.00004
1.00004
1.00004
1.00003
1.00003
1.00003
1.00002
1.00002
1.00002
1.00001
1.00001
1.00001
1
0.999984
0.999968
0.999967
0.999968
0.999984
1
1
0.999997
0.999965
0.999961
0.999961
0.999961
0.999974
0.999998
1
1
1
1
1
1
1
1.00001
1.00001
1.00001
1.00001
1.00001
1.00001
1.00001
1.00001
1.00001
1.00001
1.00001
1.00001
1.00001
1.00001
1.00001
1.00001
1.00002
1.00002
1.00002
1.00002
1.00002
1.00002
1.00002
1.00002
1.00002
1.00002
1.00002
1.00002
1.00002
1.00002
1.00002
1.00002
1.00002
1.00002
1.00002
1.00002
1.00002
1.00002
1.00002
1.00001
1.00001
1.00001
1.00001
1.00001
1.00001
1
1
1
1
1
1.00001
1.00001
1.00001
1.00001
1.00001
1.00001
1.00001
3.81089e-87
2.05016e-86
4.8194e-84
1.66179e-82
5.07482e-81
3.08411e-79
5.42097e-77
1.2892e-76
7.91887e-76
1.64575e-74
3.56098e-73
7.45585e-72
1.28496e-70
2.69982e-70
-1.04411e-69
1.34168e-67
2.53791e-66
-2.49159e-64
7.46314e-64
-1.48979e-62
-4.29483e-60
3.92416e-55
-3.89406e-53
-6.84615e-35
-8.15954e-31
-2.71651e-29
-2.81983e-24
-2.89745e-18
-1.68928e-16
-4.37749e-15
1.16805e-11
1.59306e-11
4.18326e-11
1.18411e-10
9.88104e-11
8.85266e-12
-1.0358e-08
1.75179e-06
1.58221e-06
5.24583e-07
1.55071e-07
1.4811e-07
1.46074e-07
1.44485e-07
1.43448e-07
1.43192e-07
1.43192e-07
1.43173e-07
1.43239e-07
1.43603e-07
1.44418e-07
1.45688e-07
1.47417e-07
1.49588e-07
1.51031e-07
1.51345e-07
1.60505e-07
0.00865761
0.0486812
0.101956
0.113257
0.10865
0.0985194
0.0934948
0.0944038
0.102576
0.122042
0.149466
0.176067
0.195588
0.209752
0.223809
0.242142
0.267076
0.298259
0.333528
0.371143
0.411096
0.454436
0.501785
0.552463
0.604451
0.655141
0.70216
0.744081
0.77405
0.800044
0.828006
0.857515
0.887181
0.915365
0.939861
0.959365
0.974326
0.98574
0.994261
0.998967
0.999881
0.999997
0.999993
0.999993
0.999994
0.999996
0.999998
1
1
1
1
1
1
1
0.999998
1
1
1
1.00001
1.00001
1.00001
1.00001
1.00001
1.00001
1.00002
1.00002
1.00002
1.00002
1.00002
1.00002
1.00002
1.00002
1.00002
1.00002
1.00002
1.00001
1.00001
1.00001
1.00001
1.00001
1.00001
1.00001
1
1
1
1
0.999977
0.999959
0.999958
0.999958
0.999958
0.999958
0.999959
0.99999
1
1
0.999999
0.999999
1
1
0.999995
0.999964
0.999958
0.999957
0.999957
0.999957
0.999957
0.999957
0.999974
1
1
0.999994
0.999985
0.999985
0.999984
0.999985
0.999995
1
0.999991
0.999963
0.999962
0.999961
0.999961
0.999961
0.999961
0.999961
0.999963
0.99999
0.999999
0.999999
1
1
1
0.999997
0.999993
0.999992
0.999992
0.999992
0.999997
1
1
1
1
1
1
1
1
1
1
1
1
1
1
1
1
1
0.999999
0.999999
0.999999
0.999999
0.999999
0.999999
1
1
1
1
1
1
1
1
0.999999
0.999997
0.999996
0.999996
0.999996
0.999996
0.999996
0.999999
1
1
1
1
1
1
1
1
1
1
1
1
1
0.999992
0.999989
9.23004e-91
6.76863e-89
2.41296e-87
4.02663e-86
3.36544e-85
7.39893e-83
3.88277e-80
7.76989e-83
-1.55236e-78
-1.03418e-78
-6.68487e-77
5.4148e-76
6.606e-74
-3.52239e-71
3.58508e-71
5.8852e-71
2.52239e-68
7.44777e-67
-1.79167e-64
1.96638e-64
-4.21892e-58
1.00285e-56
1.18296e-55
-2.02226e-35
1.3827e-35
-7.36867e-26
-1.00552e-25
-3.91344e-19
-2.47863e-17
-6.93742e-16
4.63328e-13
1.84241e-12
8.80108e-12
4.40412e-11
3.92622e-11
-1.62081e-13
-1.13953e-08
1.06454e-07
6.10236e-07
1.59229e-06
2.12671e-06
2.23827e-06
2.24648e-06
2.24852e-06
2.24648e-06
1.40824e-06
1.43192e-07
8.82466e-07
2.30086e-06
2.35232e-06
2.36649e-06
2.36958e-06
2.36649e-06
9.0941e-07
8.47749e-08
8.34676e-06
1.08669e-05
6.63411e-07
3.42239e-07
5.90556e-07
5.91638e-07
5.81768e-07
5.62961e-07
5.47681e-07
5.38344e-07
5.25064e-07
5.05208e-07
4.87993e-07
4.73922e-07
4.51979e-07
4.2568e-07
3.98895e-07
3.70297e-07
3.35318e-07
2.98475e-07
2.5695e-07
2.1632e-07
1.97498e-07
1.90117e-07
1.73649e-07
1.48089e-07
1.23986e-07
1.16389e-07
1.16389e-07
8.80143e-08
0.00884966
0.0239083
0.0378756
0.0544207
0.0807287
0.123447
0.181211
0.241902
0.29981
0.363515
0.44119
0.529691
0.620032
0.70747
0.790653
0.857757
0.91275
0.956631
0.983526
0.995716
0.999139
0.999824
0.999977
0.999985
0.999968
0.999976
0.999991
0.999998
0.999998
0.999995
0.999992
0.999991
0.999993
0.999996
0.999997
0.999998
0.999998
0.999998
0.999998
0.999999
0.999999
1
1
1
1
1
1
1
0.999996
0.999995
0.999995
0.999995
0.999996
0.999999
1
1
1
1
1
1
1
1
1.00001
1.00001
1.00001
1.00001
1.00001
1.00001
1.00001
1.00001
1.00001
1.00001
1.00001
1.00001
1.00001
1.00001
1.00001
1.00001
1.00001
1.00001
1.00001
1.00001
1.00001
1.00001
1.00001
1.00001
1.00001
1.00002
1.00002
1.00002
1.00002
1.00002
1.00002
1.00002
1.00002
1.00002
1.00002
1.00002
1.00002
1.00001
1.00001
1.00001
1.00001
1.00001
1.00001
1.00001
1
1
0.999997
0.999993
0.999996
1
1
0.999999
0.999987
0.99998
0.99998
0.99998
0.99998
0.99998
0.99998
0.99998
0.99998
0.999984
0.999998
1
1
1
1
1
1
1
1
1
1
1
1
1.00001
1.00001
1.00001
1.00001
1.00001
1.00001
1.00001
1.00001
1.00001
1.00001
1.00001
1.00001
1.00001
1.00001
1.00001
1.00001
1.00001
1.00001
1.00001
1.00001
1.00001
1.00001
1.00001
1.00001
1.00001
1.00001
1.00001
1.00001
-1.82564e-95
-2.14915e-93
-6.24675e-92
-1.52388e-88
-2.44607e-87
-1.83719e-85
-2.58223e-83
-8.85952e-84
-9.2937e-81
-1.23913e-79
-4.17658e-78
-1.38152e-76
-4.89011e-75
-1.5618e-73
-2.20287e-72
-5.38715e-71
-1.703e-70
-4.11539e-68
-1.14937e-70
-6.90188e-69
1.97133e-64
2.85339e-58
1.62505e-55
-4.08134e-40
-4.97219e-33
-2.33582e-27
-3.03056e-27
-4.80707e-20
-3.2261e-18
-9.53629e-17
-1.6639e-19
2.40198e-14
1.99713e-13
1.70755e-12
7.55599e-13
-8.39357e-14
1.42025e-08
6.79636e-09
8.78073e-09
4.22265e-08
6.03212e-08
1.28065e-07
1.72197e-07
1.96896e-07
2.23584e-07
3.23365e-07
3.19818e-07
2.61696e-07
2.60723e-07
2.66974e-07
2.72857e-07
4.06414e-07
6.81527e-07
4.64176e-07
5.96325e-08
2.20686e-07
2.66323e-06
2.00595e-06
7.09655e-08
2.03945e-06
3.88881e-06
4.00767e-06
4.03884e-06
4.01046e-06
1.15122e-06
3.77573e-06
4.31437e-06
4.30522e-06
1.82834e-06
5.41099e-06
5.45157e-06
4.56499e-06
4.90477e-06
4.92865e-06
4.94003e-06
4.92864e-06
4.92865e-06
3.18971e-06
6.65027e-07
1.11931e-06
1.96333e-06
1.94946e-06
1.64935e-06
1.40686e-07
5.05627e-08
3.60971e-08
3.60971e-08
3.05988e-08
2.03122e-08
1.22691e-08
8.27213e-09
6.53049e-09
5.85489e-09
5.68644e-09
5.6758e-09
5.68644e-09
5.6758e-09
5.69621e-09
5.77369e-09
5.8041e-09
0.0132649
0.0642958
0.212489
0.406354
0.540105
0.642315
0.74757
0.837156
0.909596
0.965389
0.989677
0.995706
0.997163
0.997898
0.998714
0.999382
0.999677
0.999816
0.999907
0.999959
0.999981
0.999991
0.999997
0.999999
1
1
1
1
1
1
1
1.00001
1.00001
1.00001
1.00001
1.00001
1.00001
1.00001
1.00001
1.00001
1.00001
1.00001
1.00001
1.00001
1.00001
1.00001
1.00001
1.00001
1.00001
1.00001
1.00001
1.00001
1.00001
1
1
1
1
1
1
0.999998
0.999993
0.999992
0.999992
0.999992
0.999992
0.999993
0.999998
1
1
1
1
1
0.999998
0.999991
0.999988
0.999988
0.999988
0.999988
0.999988
0.999988
0.999988
0.999988
0.999993
0.999999
0.999999
0.999998
0.999998
0.999998
0.999999
1
1
1
1
1
1
1
0.999999
0.999988
0.999982
0.999982
0.999981
0.999987
0.999998
1
1
0.999997
0.999983
0.99998
0.99998
0.999981
0.999981
0.999985
0.999996
0.999999
0.999999
0.999999
1
1
1
1
1
1
1
1
1
1
1
1
1
1
1
1
1
1
1
1
1
1
1
1
1
1
1
1
1
1
1
1
1
1
-2.1528e-100
8.0508e-98
-3.82481e-92
-1.79307e-91
1.32956e-90
2.04969e-88
4.48323e-86
-3.57258e-83
-2.40558e-83
3.40862e-82
1.34856e-80
-1.30214e-84
-1.47657e-70
-6.839e-69
-1.54426e-67
-2.28347e-66
-2.49645e-65
-2.1563e-64
-1.53286e-63
-9.21535e-63
0
5.95399e-60
3.48457e-56
-8.16048e-42
-1.12905e-34
-6.40319e-29
-7.54847e-29
-5.02829e-21
-3.51723e-19
-1.07936e-17
-8.4063e-16
-3.6331e-16
9.93802e-16
4.90438e-15
1.11807e-14
-9.02176e-13
-3.36638e-10
-2.92029e-10
-9.38168e-11
-9.74333e-12
6.37313e-11
1.41187e-10
1.18704e-10
1.02264e-10
9.11242e-11
8.78408e-11
8.68929e-10
-8.80605e-11
7.54041e-11
5.91999e-11
2.64747e-11
-5.16334e-10
1.32008e-10
1.48684e-10
1.32756e-09
2.58982e-10
6.85841e-10
4.06379e-08
3.3629e-08
1.22693e-07
1.47964e-07
6.31026e-07
7.10808e-07
3.55137e-07
5.03695e-09
3.94136e-07
2.71413e-06
2.62927e-06
2.51281e-07
3.24158e-07
5.13387e-07
5.27737e-07
2.67525e-07
1.70793e-08
5.28407e-09
1.64834e-06
4.71816e-06
2.2948e-06
2.51018e-08
5.39003e-10
1.27122e-08
5.36696e-08
1.68811e-07
5.2173e-07
6.17157e-07
6.40408e-07
6.48411e-07
6.44478e-07
6.44485e-07
4.13441e-07
3.50433e-08
4.95547e-09
4.45941e-09
3.93389e-09
6.00337e-09
1.18225e-08
1.38833e-08
1.40122e-08
8.42556e-09
5.25904e-09
6.91716e-09
8.37789e-09
9.53457e-09
1.19463e-08
2.40829e-08
8.27966e-08
0.00193023
0.0187339
0.0716012
0.333793
0.720914
0.830704
0.881197
0.944856
0.982364
0.993035
0.995936
0.997886
0.999171
0.999639
0.999817
0.99991
0.999961
0.999984
0.999994
0.999998
1
1
1
0.999993
0.999989
0.999989
0.999989
0.999989
0.999989
0.999989
0.999989
0.999989
0.999992
0.999999
1
0.999999
0.999998
0.999998
0.999998
0.999998
0.999998
0.999999
1
1
1
1
1
1
1
1
1
1
1
1
1
1
1
1
1
1
1
1
1
1
1
1
1
1
1
1
1
1
1
1
1
1
1
1
1.00001
1.00001
1.00001
1.00001
1.00001
1.00001
1.00001
1.00001
1.00001
1.00001
1.00001
1.00001
1
1
1
1
1
1
1
1
1
0.999998
0.999998
0.999999
0.999999
0.999999
0.999996
0.999983
0.999977
0.999977
0.999976
0.999976
0.999976
0.999976
0.999982
0.999997
1
1
1
1
1
1
1
1
1
1
1
1
1
1
1
1
1
1
1
1.00001
1.00001
1.00001
1.00001
1.00001
1.00001
1.00001
1.00001
1.00001
1.00001
1.00001
-5.12706e-103
-2.52934e-99
-7.93921e-95
-2.86503e-94
-9.74301e-93
-1.16249e-90
-2.96243e-88
-1.70715e-85
-1.58674e-92
-1.52416e-90
-3.14378e-89
-2.61016e-87
-3.3089e-69
-1.41215e-67
-2.99422e-66
-4.2124e-65
-4.42794e-64
-3.78204e-63
-2.84185e-62
-2.00585e-61
-5.3712e-61
0
1.6958e-58
-1.35032e-43
-2.22516e-36
-1.47427e-30
-1.50408e-30
-4.38484e-22
-3.14963e-20
-9.88836e-19
-2.99653e-17
-1.2467e-17
3.25498e-17
1.54896e-16
-7.85001e-20
-9.75706e-14
-2.59745e-12
-5.39079e-12
-6.4897e-12
-5.16167e-12
5.64584e-13
-4.08112e-13
8.9255e-12
7.8234e-12
6.31837e-12
5.53887e-12
6.21765e-12
5.93805e-12
5.4231e-12
6.14172e-12
3.00158e-12
2.9526e-12
-1.07476e-11
8.06349e-12
6.67344e-12
-3.01686e-11
-1.25908e-10
-6.44367e-11
-1.65789e-10
3.8242e-11
4.61744e-11
5.04824e-11
4.54457e-11
1.23406e-09
4.18932e-09
6.84644e-09
4.1656e-09
4.52362e-09
3.58893e-09
3.63102e-11
4.01838e-11
5.84251e-11
6.80399e-11
7.41125e-11
7.67154e-11
7.54757e-11
7.32359e-11
7.13075e-11
7.66944e-11
9.84375e-11
8.58403e-11
3.93198e-10
4.14409e-09
1.91e-08
4.93305e-08
4.17323e-08
1.1482e-08
4.42574e-07
6.08664e-07
4.06172e-07
8.3767e-08
2.235e-10
4.94565e-10
7.87414e-10
9.48839e-10
1.9417e-09
4.77863e-09
5.61777e-09
5.13984e-09
4.73791e-09
6.17741e-09
1.08607e-08
2.36581e-08
8.01046e-08
6.79332e-07
3.83402e-06
6.85174e-06
1.18048e-05
1.28391e-05
1.89066e-05
0.00342734
0.0225716
0.0720502
0.310802
0.793807
0.931224
0.964248
0.986684
0.996187
0.998195
0.999161
0.999627
0.999832
0.999925
0.999971
0.999986
0.999985
0.999988
0.999996
0.999998
0.999998
0.999999
1
1
1
1
1
1
1
1
1
1.00001
1.00001
1.00001
1.00001
1.00001
1.00001
1.00001
1.00001
1.00001
1.00001
1.00001
1.00001
1.00001
1.00001
1.00001
1.00001
1
1
1
1
1
1
1
1
1
0.999999
0.999995
0.999994
0.999994
0.999994
0.999994
0.999994
0.999998
0.999999
0.999996
0.999996
0.999996
0.999996
0.999996
0.999996
0.999996
0.999996
0.999998
1
1
1
1
1
1
1
1
1
1
1
1
1
1
1
1
1
1
1
1
1
0.999998
0.999997
0.999997
0.999997
0.999998
1
0.999999
0.999997
0.99998
0.999977
0.999976
0.999976
0.999976
0.999976
0.999982
0.999996
0.999999
1
1
1
1
1
1
1
1
1
1
1
1
1
1
1
1
1
1
1
1
1
1
1
1
1
1
1
1
-3.16248e-90
-9.04701e-89
-1.26534e-87
-1.14984e-86
-7.53941e-86
-3.65233e-85
-1.30237e-84
-3.59931e-77
-1.34925e-75
-2.54702e-74
-3.22756e-73
-3.08801e-72
-4.57287e-68
-1.75152e-66
-3.37617e-65
-4.36352e-64
-4.25218e-63
-6.02717e-62
-1.20524e-60
-1.91775e-59
-2.22379e-58
-1.96788e-57
-3.99993e-57
-1.75119e-45
-3.69025e-38
-2.74917e-32
-2.28842e-32
-3.14784e-23
-2.29935e-21
-7.31846e-20
-7.4256e-19
-3.16486e-19
8.61862e-19
3.79408e-18
-1.1306e-21
-5.66221e-15
-1.94308e-21
1.44286e-13
2.19489e-13
2.60194e-13
1.97391e-12
4.28657e-12
5.35076e-12
6.20256e-12
6.45471e-12
6.43189e-12
6.03604e-12
5.96832e-12
6.07553e-12
6.43375e-12
6.54767e-12
6.63275e-12
5.60154e-12
4.50593e-12
2.4958e-12
9.83875e-13
9.42252e-13
8.87436e-13
-3.30377e-12
-3.32542e-12
7.08145e-13
6.98625e-13
7.68824e-13
8.29166e-12
2.19255e-11
6.54205e-12
1.29807e-11
2.6647e-11
2.6497e-11
3.39064e-11
4.62805e-11
6.14012e-11
7.23761e-11
7.71659e-11
7.75271e-11
7.68966e-11
7.46046e-11
7.22344e-11
7.05261e-11
6.73563e-11
5.63714e-11
6.12762e-12
-1.57968e-12
-3.71617e-11
-7.23796e-12
8.14623e-12
1.11473e-11
1.71079e-10
2.09072e-11
2.50012e-11
1.0873e-10
1.59931e-10
3.76123e-10
7.04369e-10
8.7624e-10
1.0241e-09
1.22922e-09
1.4603e-09
1.85416e-09
2.45145e-09
4.87716e-09
1.28836e-08
4.08444e-08
1.3253e-07
4.19112e-07
1.60079e-06
4.22349e-06
1.33735e-05
4.04368e-05
0.00014927
0.000878977
0.0030619
0.00819718
0.0202879
0.0425196
0.146614
0.539441
0.94252
0.98358
0.993047
0.997333
0.998612
0.999333
0.999704
0.999869
0.999872
0.999895
0.999975
0.999992
0.99999
0.99997
0.999965
0.999965
0.999965
0.999965
0.999969
0.99999
1
1
1
1
1
1
1
1
1
1
1
1
1
1
1
1
1
1
1
1
1
1
1
1
1
1
1
1
1
1
1
1
1
1
1
1
1
1
1
1
1
1
1
1
1
1
1
1
1
1
1
1
1
1
1
1
1
1
1
1
1
1
1
1
1
1
1
1
1
1
0.999999
0.999999
1
1
1
1
1
0.999998
0.999984
0.999976
0.999976
0.999976
0.999975
0.999975
0.999975
0.999986
0.999999
1
1
1
1
1
1
1
1
1
1
1
1
1
1
1
1
1
1
1
1
1
1
1
1
1
1
-9.3719e-92
-1.11744e-87
-1.35825e-84
-1.9957e-81
-7.84824e-80
-1.58983e-78
-2.19009e-77
-7.70149e-76
-2.21813e-74
-3.95238e-73
-4.90968e-72
-4.65388e-71
-2.94452e-67
-1.09797e-65
-2.06134e-64
-2.59533e-63
-2.46451e-62
-1.16016e-60
-3.65022e-59
-6.49376e-58
-7.8552e-57
-7.17324e-56
-5.24019e-55
-1.64374e-47
-5.00408e-40
-3.95213e-34
-2.45434e-34
-1.81248e-24
-1.33803e-22
-4.29339e-21
-1.41011e-20
2.50608e-21
-1.86494e-20
7.23676e-20
-6.00867e-22
-2.05872e-16
-3.26833e-17
2.50047e-15
4.2138e-15
1.30851e-14
4.85323e-14
1.34107e-13
2.18622e-13
2.97479e-13
3.66012e-13
4.11229e-13
4.45572e-13
4.84166e-13
5.34772e-13
5.99116e-13
6.73991e-13
7.36897e-13
7.96838e-13
8.61756e-13
8.85226e-13
8.92264e-13
8.49169e-13
5.55911e-13
1.48226e-13
3.17221e-14
3.07373e-14
5.1143e-14
1.68157e-13
5.08927e-13
7.83012e-13
8.09542e-13
8.00509e-13
7.99016e-13
9.62257e-13
1.15477e-12
1.5075e-12
1.85317e-12
2.1016e-12
2.2324e-12
2.27444e-12
2.28645e-12
2.32961e-12
2.43491e-12
2.7127e-12
3.00444e-12
3.17218e-12
3.5042e-12
3.57002e-12
2.7675e-12
2.68478e-12
4.55702e-12
7.04718e-12
1.23881e-11
2.08259e-11
2.61348e-11
3.56217e-11
4.91021e-11
7.12429e-11
1.06484e-10
1.59774e-10
2.39075e-10
3.60725e-10
5.3179e-10
7.33389e-10
1.04944e-09
2.09341e-09
5.11676e-09
1.36371e-08
4.09463e-08
1.33904e-07
4.02863e-07
1.32061e-06
4.04018e-06
1.29981e-05
4.00166e-05
0.000152757
0.000460447
0.00110232
0.00330353
0.0105412
0.0289241
0.0712504
0.255847
0.727408
0.975777
0.988758
0.993337
0.996884
0.998547
0.999311
0.999642
0.999807
0.999914
0.999968
0.999972
0.999964
0.999965
0.999974
0.999978
0.999965
0.999966
0.999968
0.999991
1
1
1
1
1
1
1
1
1
1
1
1
1
1
1
1
1
1
1
1
1
1
1
1
1
1
1
1
1
1
1
0.999999
0.999997
0.999985
0.999985
0.999986
0.999987
0.999986
0.999986
0.999986
0.999986
0.999986
0.99999
0.999998
1
1
1
1
1
1
1
1
1
1
1
1
1
1
1
1
1
1
1
1
1
1
1
1
1
1
1
1
1
1
1
1
1
0.999991
0.999977
0.999976
0.999976
0.999975
0.999975
0.999975
0.999984
0.999998
0.999999
1
1
1
1
1
1
1
1
1
1
1
1
1
1
1
1
1
1
1
1
1
1
1
1
1
-1.12154e-93
-1.18812e-83
-1.02079e-81
-3.38387e-80
-6.68526e-79
-9.31324e-78
-9.99965e-77
-2.07508e-75
-5.49986e-74
-1.02054e-72
-1.33957e-71
-1.33946e-70
-1.88086e-67
-7.31297e-66
-1.43498e-64
-1.88778e-63
-1.87211e-62
-3.58407e-60
-1.24107e-58
-2.21082e-57
-2.63874e-56
-2.36959e-55
-1.70797e-54
-9.56959e-50
-5.4471e-42
-4.03477e-36
-1.5665e-36
-8.00666e-26
-5.94898e-24
-1.9178e-22
-2.02336e-29
-2.07299e-21
1.78116e-22
-4.67475e-22
-3.6091e-25
-4.97516e-18
-2.68638e-22
2.92219e-17
5.55608e-17
7.31439e-17
3.01212e-16
7.22462e-16
1.25944e-15
1.70776e-15
2.17215e-15
2.78009e-15
3.43927e-15
3.92722e-15
4.14683e-15
4.28333e-15
4.50494e-15
5.15571e-15
6.55323e-15
9.11076e-15
1.63955e-14
2.86521e-14
3.23231e-14
3.07418e-14
2.92153e-14
2.91138e-14
2.69029e-14
2.51118e-14
2.38188e-14
2.36171e-14
2.47886e-14
2.47994e-14
2.40159e-14
2.11272e-14
1.96541e-14
2.02882e-14
2.26614e-14
2.6163e-14
3.25239e-14
4.12684e-14
5.21997e-14
6.69203e-14
8.85879e-14
1.22462e-13
1.77504e-13
2.68579e-13
4.21824e-13
6.86431e-13
1.10593e-12
1.78312e-12
2.85574e-12
4.52713e-12
7.10053e-12
1.09666e-11
1.66668e-11
2.49239e-11
3.6726e-11
5.33296e-11
7.63326e-11
1.07756e-10
1.50332e-10
2.0759e-10
2.85681e-10
3.94716e-10
5.20517e-10
6.67666e-10
1.03799e-09
2.08186e-09
5.11676e-09
1.22175e-08
3.92826e-08
1.09498e-07
3.82687e-07
1.05402e-06
3.66224e-06
1.04632e-05
3.54923e-05
9.80787e-05
0.000328844
0.000922177
0.00302628
0.00897749
0.0264776
0.0712392
0.240145
0.698917
0.958125
0.979636
0.989405
0.994913
0.997546
0.998807
0.999417
0.999717
0.999861
0.999924
0.99995
0.999972
0.999986
0.999993
0.999996
0.999998
0.999999
1
1
1
1
1
1
1
1
1
1
1.00001
1.00001
1.00001
1.00001
1.00001
1.00001
1.00001
1.00001
1.00001
1.00001
1.00001
1.00001
1.00001
1.00001
1.00001
1.00001
1.00001
1.00001
1.00001
1.00001
1.00001
1.00001
1.00001
1.00001
1.00001
1
1
1
1
1
1
1
1
1
1
1
1
1
1
1
1
1
1
1
1
1
1
1
1
1
1
1
1
1
1
1
1
1
1
1
1
1
1
1
1
1
1
1
0.999997
0.999982
0.999976
0.999976
0.999975
0.999975
0.999975
0.999975
0.999978
0.999994
0.999999
1
1
1
1
1
1
1
1
1
1
1
1
1
1
1
1
1
1
1
1
1
1
1
1
-1.87055e-86
-3.96304e-81
-1.64593e-79
-3.75259e-78
-6.27267e-77
-9.28636e-76
-1.29101e-74
-1.66324e-73
-1.94717e-72
-2.03339e-71
-1.88772e-70
-1.54741e-69
-5.34181e-68
-1.78854e-66
-3.55858e-65
-4.75769e-64
1.15809e-62
-1.19749e-60
-5.35367e-59
-1.04519e-57
-1.32214e-56
-1.2422e-55
-9.27573e-55
-3.39701e-52
-4.67738e-44
-2.46542e-38
-3.3519e-39
-2.5089e-27
-1.87105e-25
-6.04709e-24
-1.23021e-26
2.34812e-25
-1.21983e-22
5.59321e-24
-8.4329e-24
-7.76867e-20
-1.67662e-19
2.08616e-19
4.21663e-19
6.08872e-19
7.10858e-19
3.71832e-18
7.8728e-18
1.21533e-17
1.57036e-17
1.8389e-17
2.07382e-17
2.17242e-17
2.1592e-17
1.85462e-17
8.84794e-18
2.11703e-18
1.72896e-18
2.58635e-18
5.52077e-18
1.07436e-17
1.67415e-17
2.21298e-17
1.23332e-16
3.03088e-16
4.19754e-16
4.19388e-16
3.95165e-16
3.9296e-16
3.78829e-16
3.7364e-16
3.6578e-16
3.52176e-16
3.63245e-16
4.34428e-16
5.67515e-16
9.44353e-16
1.77084e-15
3.50052e-15
6.99778e-15
1.38946e-14
2.72e-14
5.23151e-14
9.86644e-14
1.8223e-13
3.29338e-13
5.82063e-13
1.00569e-12
1.69853e-12
2.8041e-12
4.52688e-12
7.15107e-12
1.10646e-11
1.67863e-11
2.49994e-11
3.65933e-11
5.27181e-11
7.48734e-11
1.05034e-10
1.45699e-10
2.00526e-10
2.74829e-10
3.74344e-10
4.98982e-10
6.44273e-10
8.33826e-10
1.37597e-09
2.76953e-09
6.92889e-09
1.5259e-08
5.41116e-08
1.35753e-07
5.09889e-07
1.35491e-06
4.92184e-06
1.37188e-05
4.43722e-05
0.000138133
0.000426381
0.00136189
0.00405356
0.0115811
0.0334101
0.0959057
0.369427
0.861896
0.951346
0.975411
0.987611
0.993779
0.996891
0.998478
0.999256
0.999634
0.999815
0.999895
0.999945
0.999972
0.999986
0.999993
0.999995
0.999983
0.99998
0.99998
0.99998
0.99998
0.99998
0.99998
0.99999
1
1
1
1
1
1
1
1
1
1
1
1
1
1
1
1
1
1
1
1
1
1
1
1
1
1
1
0.999996
0.99999
0.99999
0.99999
0.99999
0.99999
0.99999
0.99999
0.99999
0.999997
1
1
1
1
1
1
1
1
1
1
1
1
1
1
1
1
1
1
1
1
1
1
1
1
1
1
1
1
1
1
1
1
1
1
0.999995
0.999975
0.999976
0.999975
0.999975
0.999975
0.999975
0.999976
0.999993
0.999999
0.999999
1
1
1
1
1
1
1
1
1
1
1
1
1
1
1
1
1
1
1
1
1
1
1
1
-1.13595e-84
-1.78065e-81
-1.62944e-78
-7.32972e-77
-1.73405e-75
-3.09603e-74
-4.68062e-73
-6.00904e-72
-6.40546e-71
-1.14111e-69
-2.49907e-68
-3.86437e-67
-4.11173e-66
-3.22047e-65
-1.97046e-64
-9.80397e-64
-1.25212e-63
-1.20898e-61
-6.10106e-60
-1.27641e-58
-1.6948e-57
-1.65501e-56
-1.28254e-55
-7.22054e-59
-2.78443e-46
-5.02813e-41
0
-4.71493e-29
-3.52351e-27
-1.14035e-25
-1.6406e-26
-4.44875e-42
-3.02855e-26
-3.98084e-24
-6.10086e-28
-6.64945e-22
-5.39446e-22
-2.53028e-21
2.63743e-21
5.27444e-21
7.81654e-21
1.43754e-20
3.2111e-20
5.99436e-20
1.07145e-19
1.31317e-19
1.55002e-19
1.74784e-19
1.87786e-19
1.91393e-19
1.88482e-19
1.41768e-19
3.07094e-20
2.18276e-20
2.26571e-20
2.37884e-20
-1.23563e-20
2.75548e-20
3.20781e-20
4.24643e-20
9.98756e-20
3.43223e-19
9.33581e-19
1.90441e-18
3.71248e-18
7.45236e-18
1.57598e-17
3.43152e-17
7.55814e-17
1.66261e-16
3.62292e-16
7.78279e-16
1.6442e-15
3.41145e-15
6.9462e-15
1.38718e-14
2.71574e-14
5.20981e-14
9.78945e-14
1.80112e-13
3.24377e-13
5.71727e-13
9.86087e-13
1.66431e-12
2.74925e-12
4.4461e-12
7.04248e-12
1.09325e-11
1.66446e-11
2.48729e-11
3.65165e-11
5.27226e-11
7.49378e-11
1.04985e-10
1.45285e-10
1.98873e-10
2.7072e-10
3.68781e-10
4.96289e-10
6.38317e-10
8.07832e-10
1.21133e-09
2.35208e-09
5.08163e-09
1.32721e-08
3.32121e-08
1.04024e-07
3.09576e-07
9.74377e-07
2.84955e-06
9.85254e-06
2.63251e-05
9.42154e-05
0.000245371
0.000860594
0.0024309
0.00818576
0.0246246
0.0698207
0.233846
0.694149
0.933866
0.965357
0.981905
0.990572
0.9951
0.997459
0.998685
0.99932
0.999649
0.999819
0.999908
0.999952
0.999976
0.999988
0.999994
0.999997
0.999998
0.999999
1
1
1
1
1
1
1
1
1
1
1
1
1
1
1
1
1
1
1
1
1
1
1
1
1
1
1
1
1
1
1
1
1
1
1
1
1
1
1
1
1
1
1
1
1
1
1
1
1
1
1
1
1
1
1
1
1
1
1
1
1
1
1
1
1
1
1
1
1
1
1
1
1
1
1
1
0.999998
0.999975
0.999976
0.999975
0.999975
0.999975
0.999975
0.999975
0.999978
0.999994
0.999999
0.999999
1
1
1
1
1
1
1
1
1
1
1
1
1
1
1
1
1
1
1
1
1
1
1
-7.56556e-82
-4.23873e-80
-2.52906e-78
-7.45518e-77
-1.57107e-75
-5.00817e-74
-8.18499e-73
-7.85085e-72
-5.07126e-71
-2.4815e-70
-1.19078e-69
-7.17527e-69
-4.10251e-68
-1.63203e-67
-3.72871e-67
1.02067e-82
0
2.5826e-63
6.08017e-61
-2.47144e-60
0
0
0
0
-2.82181e-47
0
0
-2.94075e-31
-3.43475e-29
-1.2753e-27
-9.41293e-28
5.94844e-44
9.72668e-28
8.17459e-27
-5.78533e-26
-4.87492e-24
-8.34669e-25
2.13974e-22
1.19383e-21
3.34263e-21
5.85678e-21
7.95129e-21
9.80117e-21
1.14767e-20
1.29635e-20
1.42822e-20
1.54588e-20
1.65185e-20
1.74855e-20
1.83729e-20
1.91833e-20
1.99168e-20
2.05697e-20
2.11749e-20
2.18277e-20
2.26573e-20
2.37887e-20
2.53967e-20
3.02099e-20
4.17517e-20
7.52759e-20
1.72585e-19
4.17942e-19
1.02112e-18
2.47646e-18
5.92016e-18
1.39192e-17
3.21628e-17
7.30214e-17
1.62877e-16
3.56887e-16
7.68056e-16
1.6231e-15
3.3671e-15
6.8545e-15
1.36877e-14
2.68001e-14
5.14272e-14
9.66734e-14
1.77949e-13
3.20634e-13
5.65382e-13
9.75497e-13
1.64679e-12
2.72028e-12
4.39791e-12
6.96157e-12
1.07954e-11
1.64122e-11
2.44833e-11
3.58767e-11
5.17071e-11
7.33994e-11
1.02745e-10
1.42085e-10
1.94547e-10
2.64264e-10
3.57768e-10
4.83152e-10
6.29741e-10
7.88988e-10
1.11655e-09
2.06731e-09
4.19722e-09
1.11896e-08
2.46668e-08
9.48698e-08
2.33405e-07
9.0398e-07
2.30176e-06
8.42184e-06
2.36308e-05
7.67009e-05
0.000224974
0.000682215
0.00208069
0.00640296
0.020237
0.0644062
0.196004
0.613341
0.927806
0.962092
0.980148
0.989629
0.994595
0.997185
0.998538
0.999237
0.999593
0.999785
0.999889
0.999937
0.999958
0.999973
0.999988
0.999994
0.999995
0.999979
0.999976
0.999975
0.999975
0.999975
0.999976
0.999993
1
1
1
1
1
1
1
1
1
1
1
1
1
1
1
1
1
1
1
1
1
1
1
1
1
0.999999
0.999999
0.999999
1
1
1
1
1
1
1
1
1
1
1
1
1
1
1
1
1
1
1
1
1
1
1
1
1
1
1
1
1
1
1
1
1
1
1
1
1
1
1
1
1
1
0.999994
0.999971
0.999976
0.999975
0.999975
0.999975
0.999975
0.999975
0.999979
0.999995
0.999999
0.999999
1
1
1
1
1
1
1
1
1
1
1
1
1
1
1
1
1
1
1
1
1
1
1
-1.28871e-96
-8.14033e-92
-2.53116e-101
-3.97295e-95
0
-4.71806e-91
1.05618e-76
4.16004e-76
-6.82931e-82
-3.9062e-80
-9.75179e-79
1.90388e-69
1.18099e-67
2.88698e-66
3.63415e-65
5.02023e-64
7.30874e-62
9.80384e-60
2.64785e-58
-5.95265e-61
-5.1002e-57
9.37612e-56
2.35821e-53
1.30525e-50
-4.63499e-46
-3.06742e-41
3.40984e-39
0
-1.97778e-27
-8.95671e-26
-2.22282e-42
9.72668e-28
-9.34408e-26
3.05431e-26
-1.07575e-23
-1.46723e-21
-7.26231e-21
-1.1353e-20
-6.03527e-21
-2.83663e-22
3.99621e-21
6.88913e-21
9.26772e-21
1.12003e-20
1.27784e-20
1.42134e-20
1.55253e-20
1.66888e-20
1.76618e-20
1.83986e-20
1.89232e-20
1.96745e-20
2.04216e-20
2.10381e-20
2.10659e-20
2.02518e-20
1.98297e-20
2.75554e-20
3.2079e-20
4.2465e-20
7.13952e-20
1.49635e-19
3.76717e-19
8.69849e-19
1.98548e-18
5.0783e-18
1.24515e-17
2.93892e-17
6.75188e-17
1.51603e-16
3.33566e-16
7.19999e-16
1.52503e-15
3.1694e-15
6.46125e-15
1.29167e-14
2.53123e-14
4.86088e-14
9.14433e-14
1.68465e-13
3.03848e-13
5.36395e-13
9.26691e-13
1.56677e-12
2.59272e-12
4.20067e-12
6.6666e-12
1.03702e-11
1.58231e-11
2.37006e-11
3.48809e-11
5.04927e-11
7.19756e-11
1.01131e-10
1.40301e-10
1.92558e-10
2.61945e-10
3.55071e-10
4.79021e-10
6.2144e-10
7.78499e-10
1.11066e-09
2.07463e-09
4.25381e-09
1.1448e-08
2.55811e-08
9.8619e-08
2.40611e-07
9.42565e-07
2.38612e-06
9.04308e-06
2.4888e-05
8.36643e-05
0.000237934
0.000757046
0.00226058
0.00723842
0.02279
0.0679214
0.215107
0.656784
0.931199
0.963952
0.981165
0.990185
0.994898
0.997353
0.99863
0.999292
0.999634
0.999811
0.999904
0.99995
0.999974
0.999987
0.999993
0.999996
0.999998
0.999999
1
1
1
1
1
1
1
1
1
1
1
1
1
1
1
1
1
1
1
1
1
1
1
1
1
1
1
1
1
0.999999
0.999996
0.999995
0.999995
0.999995
0.999995
0.999995
0.999995
0.999999
1
1
1
1
1
1
1
1
1
1
1
1
1
1
1
1
1
1
1
1
1
1
1
1
1
1
1
1
1
1
1
1
1
1
1
1
1
1
0.999996
0.999977
0.999976
0.999975
0.999975
0.999975
0.999975
0.999975
0.999984
0.999998
0.999999
1
1
1
1
1
1
1
1
1
1
1
1
1
1
1
1
1
1
1
1
1
1
1
1
-2.80437e-95
2.99528e-89
2.33936e-85
3.01694e-83
3.80643e-80
3.25822e-74
1.26886e-71
5.19999e-71
2.82368e-71
2.10742e-72
8.57419e-71
4.25361e-67
2.19689e-65
4.60853e-64
4.16096e-63
4.81596e-62
2.00525e-60
4.90158e-60
1.7034e-58
-1.06884e-56
-1.57293e-54
5.3447e-53
1.11136e-50
2.50963e-48
-1.04322e-43
-1.07801e-38
4.3459e-37
0
-1.06306e-25
-4.78339e-24
-4.5472e-27
2.67055e-25
-9.30337e-24
-3.92382e-22
-4.15936e-27
-1.69168e-19
-1.22104e-18
-1.79486e-18
-1.10121e-18
-6.55575e-19
-4.66701e-19
-4.07915e-19
-3.53357e-19
-3.10785e-19
-2.95067e-19
-2.70262e-19
-2.21387e-19
-1.68524e-19
-1.42623e-19
-1.63709e-19
-2.36386e-19
-2.68661e-19
-2.06433e-19
-1.87102e-19
-3.3531e-19
-7.24081e-19
-2.24634e-18
-3.10286e-18
-3.61417e-18
-1.67651e-18
-1.14588e-18
3.35303e-18
2.28426e-18
2.20374e-18
2.13436e-18
4.49105e-18
1.40776e-17
3.19599e-17
6.90744e-17
1.45064e-16
3.0226e-16
6.36445e-16
1.33963e-15
2.79292e-15
5.73647e-15
1.15721e-14
2.28912e-14
4.43593e-14
8.41536e-14
1.56209e-13
2.83603e-13
5.03471e-13
8.73822e-13
1.48266e-12
2.45976e-12
3.99145e-12