/*--------------------------------*- C++ -*----------------------------------*\
| =========                 |                                                 |
| \\      /  F ield         | OpenFOAM: The Open Source CFD Toolbox           |
|  \\    /   O peration     | Version:  2406                                  |
|   \\  /    A nd           | Website:  www.openfoam.com                      |
|    \\/     M anipulation  |                                                 |
\*---------------------------------------------------------------------------*/
FoamFile
{
    version     2.0;
    format      ascii;
    arch        "LSB;label=32;scalar=64";
    class       volScalarField;
    location    "0.1";
    object      p;
}
// * * * * * * * * * * * * * * * * * * * * * * * * * * * * * * * * * * * * * //

dimensions      [1 -1 -2 0 0 0 0];

internalField   nonuniform List<scalar> 
6250
(
4998.87
4998.45
4998.95
4999.16
4999.08
4999
4998.98
4998.99
4998.98
4998.97
4998.96
4998.96
4998.95
4998.94
4998.94
4998.93
4998.93
4998.93
4998.92
4998.92
4998.92
4998.92
4998.92
4998.92
4998.93
4998.93
4998.93
4998.94
4998.94
4998.95
4998.93
4999.55
5017.82
5042.96
5056.98
5053.04
5043.88
5037.24
5031.62
5027.64
5026.03
5025.73
5025.22
5023.57
5021.32
5019.27
5017.62
5016.24
5015
5013.78
5012.44
5010.9
5009.17
5007.3
5005.41
5003.67
5002.13
5001.16
5001.22
5001.54
5001.03
4999.57
4997.71
4995.89
4994.29
4993.01
4992.08
4991.38
4990.63
4989.57
4988.18
4986.61
4985.03
4983.56
4982.24
4981
4979.8
4978.6
4977.41
4976.23
4975.01
4973.71
4972.31
4970.82
4969.31
4967.7
4965.82
4963.64
4961.3
4959
4956.8
4954.6
4952.19
4949.46
4946.39
4943.09
4939.63
4936.15
4932.75
4929.56
4926.59
4923.75
4920.87
4917.75
4914.18
4910.08
4905.46
4900.36
4894.79
4888.67
4881.88
4874.28
4865.73
4856.17
4845.53
4833.79
4820.91
4806.89
4791.73
4775.45
4758.09
4739.72
4720.38
4700.15
4679.1
4657.3
4634.82
4611.71
4588.04
4563.86
4539.24
4514.22
4488.85
4463.17
4437.2
4411
4384.58
4357.97
4331.2
4304.29
4277.26
4250.11
4222.87
4195.54
4168.14
4140.69
4113.18
4085.62
4058.02
4030.39
4002.73
3975.04
3947.32
3919.58
3891.83
3864.06
3836.28
3808.5
3780.7
3752.9
3725.09
3697.28
3669.46
3641.63
3613.8
3585.96
3558.11
3530.26
3502.42
3474.57
3446.73
3418.89
3391.05
3363.21
3335.36
3307.52
3279.67
3251.82
3223.98
3196.13
3168.29
3140.44
3112.59
3084.74
3056.89
3029.04
3001.2
2973.35
2945.5
2917.65
2889.79
2861.94
2834.08
2806.22
2778.36
2750.48
2722.61
2694.73
2666.85
2638.97
2611.1
2583.22
2555.36
2527.49
2499.63
2471.78
2443.94
2416.09
2388.26
2360.42
2332.58
2304.75
2276.91
2249.07
2221.22
2193.38
2165.53
2137.69
2109.84
2082
2054.16
2026.33
1998.49
1970.66
1942.83
1915
1887.18
1859.35
1831.52
1803.7
1775.87
1748.05
1720.22
1692.4
1664.57
1636.75
1608.93
1581.1
1553.29
1525.47
1497.66
1469.86
1442.06
1414.28
1386.52
1358.8
1331.1
1303.42
1275.86
1249.01
4998.82
4998.36
4998.91
4999.16
4999.08
4998.98
4998.96
4998.98
4998.98
4998.97
4998.96
4998.95
4998.95
4998.94
4998.93
4998.93
4998.93
4998.92
4998.92
4998.92
4998.92
4998.92
4998.92
4998.92
4998.92
4998.92
4998.93
4998.93
4998.94
4998.95
4998.96
4998.87
4998.12
4998.09
4998.4
4998.42
4998.12
4997.74
4997.17
4996.72
4997.43
4999.88
5001.81
5001.35
4999.71
4998.36
4997.51
4996.96
4996.63
4996.45
4996.33
4996.15
4995.93
4995.71
4995.49
4995.66
4995.55
4994.22
4995.11
4997.72
4997.65
4995.16
4992.66
4990.8
4989.39
4988.28
4987.79
4987.77
4987.48
4986.35
4984.51
4982.39
4980.34
4978.51
4976.8
4975.03
4973.09
4970.97
4968.77
4966.51
4964.17
4961.7
4959.08
4956.51
4954.31
4952.47
4950.42
4947.79
4944.93
4942.4
4940.46
4938.87
4937.19
4935.17
4932.85
4930.34
4927.67
4924.84
4921.96
4919.3
4916.94
4914.75
4912.52
4909.98
4906.85
4903.01
4898.56
4893.6
4888.2
4882.38
4875.99
4868.81
4860.68
4851.52
4841.3
4829.97
4817.49
4803.85
4789.05
4773.12
4756.08
4737.99
4718.9
4698.89
4678.02
4656.38
4634.02
4611.03
4587.45
4563.36
4538.81
4513.85
4488.54
4462.9
4436.98
4410.8
4384.4
4357.82
4331.07
4304.17
4277.16
4250.03
4222.8
4195.49
4168.1
4140.64
4113.14
4085.58
4057.99
4030.36
4002.7
3975.01
3947.3
3919.57
3891.82
3864.06
3836.28
3808.49
3780.69
3752.89
3725.08
3697.27
3669.45
3641.63
3613.79
3585.95
3558.11
3530.26
3502.42
3474.58
3446.73
3418.89
3391.05
3363.21
3335.37
3307.52
3279.67
3251.83
3223.98
3196.13
3168.29
3140.44
3112.6
3084.75
3056.9
3029.05
3001.2
2973.35
2945.5
2917.65
2889.79
2861.94
2834.08
2806.22
2778.35
2750.48
2722.61
2694.73
2666.85
2638.97
2611.09
2583.22
2555.35
2527.49
2499.63
2471.78
2443.94
2416.1
2388.26
2360.43
2332.59
2304.75
2276.91
2249.07
2221.23
2193.38
2165.53
2137.69
2109.84
2082
2054.16
2026.33
1998.5
1970.67
1942.84
1915.01
1887.19
1859.36
1831.54
1803.71
1775.89
1748.06
1720.24
1692.42
1664.6
1636.78
1608.96
1581.14
1553.33
1525.52
1497.72
1469.93
1442.14
1414.36
1386.6
1358.87
1331.13
1303.35
1275.65
1248.91
4998.81
4998.36
4998.91
4999.15
4999.08
4998.98
4998.96
4998.97
4998.97
4998.96
4998.95
4998.94
4998.94
4998.93
4998.92
4998.92
4998.91
4998.91
4998.9
4998.9
4998.89
4998.89
4998.89
4998.88
4998.88
4998.87
4998.87
4998.86
4998.84
4998.8
4998.73
4998.62
4998.56
4998.59
4998.64
4998.57
4998.06
4997.63
4997.69
4997.97
4998.14
4998.18
4998.17
4998.17
4998.17
4998.17
4998.16
4998.16
4998.15
4998.15
4998.14
4998.14
4998.13
4998.12
4998.1
4998.05
4998
4997.85
4997.42
4997.85
4997.87
4997.36
4997.02
4996.84
4996.64
4996.4
4996.18
4996.11
4996.05
4995.72
4995.11
4994.37
4993.63
4992.92
4992.21
4991.41
4990.43
4989.25
4987.94
4986.59
4985.23
4983.79
4982.15
4980.01
4976.94
4973.25
4969.57
4964.86
4958.93
4953.06
4948.28
4944.28
4939.82
4934.27
4928.06
4921.74
4915.26
4908.64
4902.67
4898.55
4896.66
4896.59
4897.6
4898.31
4897.57
4895.22
4891.8
4887.7
4883.17
4878.32
4872.95
4866.6
4859.02
4850.32
4840.59
4829.76
4817.73
4804.46
4789.96
4774.25
4757.38
4739.39
4720.36
4700.36
4679.47
4657.77
4635.34
4612.25
4588.57
4564.38
4539.73
4514.68
4489.27
4463.55
4437.55
4411.31
4384.85
4358.21
4331.41
4304.48
4277.42
4250.26
4223
4195.66
4168.25
4140.77
4113.24
4085.67
4058.06
4030.42
4002.75
3975.06
3947.35
3919.61
3891.86
3864.08
3836.3
3808.51
3780.71
3752.91
3725.1
3697.28
3669.46
3641.63
3613.79
3585.95
3558.11
3530.27
3502.42
3474.58
3446.74
3418.9
3391.05
3363.21
3335.36
3307.51
3279.67
3251.82
3223.97
3196.13
3168.28
3140.44
3112.59
3084.75
3056.9
3029.05
3001.19
2973.34
2945.49
2917.64
2889.79
2861.93
2834.08
2806.21
2778.35
2750.47
2722.6
2694.72
2666.84
2638.96
2611.08
2583.21
2555.34
2527.48
2499.63
2471.78
2443.94
2416.1
2388.26
2360.43
2332.59
2304.75
2276.91
2249.07
2221.22
2193.38
2165.53
2137.69
2109.84
2082
2054.17
2026.33
1998.5
1970.67
1942.84
1915.02
1887.19
1859.37
1831.54
1803.72
1775.9
1748.07
1720.25
1692.43
1664.61
1636.79
1608.98
1581.16
1553.35
1525.55
1497.74
1469.95
1442.16
1414.38
1386.6
1358.84
1331.06
1303.19
1275.37
1248.77
4998.8
4998.34
4998.89
4999.14
4999.06
4998.97
4998.95
4998.96
4998.96
4998.95
4998.94
4998.93
4998.93
4998.92
4998.91
4998.9
4998.9
4998.89
4998.88
4998.87
4998.87
4998.86
4998.85
4998.84
4998.83
4998.82
4998.8
4998.78
4998.75
4998.7
4998.65
4998.59
4998.51
4998.41
4998.32
4998.21
4998.09
4998.04
4998.06
4998.1
4998.13
4998.14
4998.14
4998.14
4998.15
4998.15
4998.16
4998.16
4998.16
4998.16
4998.17
4998.17
4998.18
4998.19
4998.2
4998.21
4998.22
4998.17
4997.8
4997.34
4997.37
4997.55
4997.67
4997.72
4997.72
4997.71
4997.7
4997.7
4997.7
4997.68
4997.67
4997.66
4997.65
4997.65
4997.64
4997.64
4997.63
4997.62
4997.61
4997.59
4997.58
4997.57
4997.54
4997.51
4997.44
4996.79
4995.79
4994.72
4993.54
4992.07
4990.31
4988.46
4986.33
4983.4
4979.79
4975.97
4971.97
4967.38
4961.79
4953.09
4937.22
4920.18
4909.58
4902.46
4894.38
4885.37
4878.15
4873.03
4869.84
4868.94
4868.59
4865.97
4860.3
4852.62
4843.77
4833.68
4822.15
4809.19
4794.87
4779.22
4762.3
4744.17
4724.94
4704.68
4683.51
4661.5
4638.75
4615.36
4591.38
4566.91
4541.99
4516.68
4491.05
4465.12
4438.93
4412.51
4385.91
4359.14
4332.22
4305.19
4278.04
4250.8
4223.46
4196.06
4168.58
4141.06
4113.49
4085.88
4058.24
4030.58
4002.89
3975.18
3947.45
3919.7
3891.94
3864.15
3836.36
3808.55
3780.74
3752.93
3725.11
3697.29
3669.47
3641.64
3613.81
3585.97
3558.13
3530.29
3502.45
3474.6
3446.76
3418.91
3391.06
3363.22
3335.36
3307.51
3279.66
3251.81
3223.97
3196.12
3168.28
3140.43
3112.59
3084.74
3056.89
3029.04
3001.18
2973.33
2945.48
2917.63
2889.77
2861.92
2834.06
2806.2
2778.33
2750.46
2722.58
2694.7
2666.82
2638.95
2611.08
2583.21
2555.34
2527.49
2499.63
2471.79
2443.95
2416.11
2388.27
2360.43
2332.6
2304.76
2276.91
2249.07
2221.22
2193.38
2165.53
2137.68
2109.84
2082
2054.17
2026.34
1998.5
1970.68
1942.85
1915.02
1887.2
1859.37
1831.55
1803.72
1775.9
1748.08
1720.25
1692.43
1664.61
1636.79
1608.97
1581.15
1553.33
1525.52
1497.71
1469.91
1442.11
1414.3
1386.51
1358.71
1330.89
1302.96
1275.07
1248.65
4998.79
4998.32
4998.88
4999.13
4999.06
4998.96
4998.94
4998.95
4998.96
4998.94
4998.93
4998.92
4998.92
4998.91
4998.9
4998.89
4998.88
4998.87
4998.86
4998.85
4998.84
4998.83
4998.82
4998.81
4998.79
4998.77
4998.75
4998.73
4998.7
4998.66
4998.62
4998.57
4998.5
4998.43
4998.37
4998.32
4998.26
4998.2
4998.15
4998.13
4998.14
4998.15
4998.16
4998.16
4998.16
4998.16
4998.16
4998.16
4998.15
4998.15
4998.14
4998.13
4998.12
4998.11
4998.08
4998.04
4997.96
4997.85
4997.74
4997.67
4997.67
4997.69
4997.71
4997.71
4997.7
4997.7
4997.7
4997.7
4997.69
4997.69
4997.68
4997.68
4997.68
4997.68
4997.68
4997.68
4997.69
4997.69
4997.7
4997.71
4997.72
4997.72
4997.73
4997.74
4997.74
4997.58
4997.13
4996.84
4996.87
4997.06
4997.23
4997.29
4997.26
4997.22
4997.19
4997.19
4997.19
4997.2
4997.17
4996.89
4994.83
4990.16
4983.65
4979.6
4973.5
4963.19
4949.86
4924.38
4892.87
4874.25
4869.46
4866.48
4859.64
4853.13
4847.53
4840.33
4830.21
4817.68
4803.48
4787.75
4770.57
4752.04
4732.32
4711.53
4689.8
4667.24
4643.95
4620.03
4595.57
4570.64
4545.3
4519.61
4493.62
4467.38
4440.91
4414.25
4387.42
4360.46
4333.37
4306.19
4278.91
4251.55
4224.11
4196.62
4169.07
4141.48
4113.85
4086.2
4058.52
4030.82
4003.1
3975.36
3947.6
3919.83
3892.05
3864.25
3836.44
3808.62
3780.8
3752.98
3725.15
3697.33
3669.5
3641.67
3613.84
3586
3558.16
3530.32
3502.47
3474.62
3446.77
3418.92
3391.07
3363.22
3335.36
3307.51
3279.66
3251.81
3223.96
3196.11
3168.27
3140.42
3112.57
3084.73
3056.87
3029.02
3001.17
2973.31
2945.46
2917.61
2889.75
2861.9
2834.04
2806.17
2778.31
2750.44
2722.56
2694.69
2666.81
2638.94
2611.07
2583.2
2555.34
2527.49
2499.64
2471.79
2443.95
2416.11
2388.28
2360.44
2332.6
2304.76
2276.91
2249.07
2221.22
2193.37
2165.53
2137.68
2109.84
2082.01
2054.17
2026.34
1998.51
1970.68
1942.85
1915.03
1887.2
1859.37
1831.55
1803.72
1775.89
1748.07
1720.24
1692.41
1664.58
1636.76
1608.93
1581.11
1553.29
1525.47
1497.65
1469.83
1442.01
1414.19
1386.37
1358.55
1330.69
1302.71
1274.78
1248.53
4998.79
4998.31
4998.87
4999.13
4999.05
4998.95
4998.93
4998.94
4998.95
4998.94
4998.92
4998.91
4998.91
4998.9
4998.89
4998.88
4998.87
4998.86
4998.85
4998.84
4998.82
4998.81
4998.8
4998.78
4998.76
4998.74
4998.72
4998.7
4998.67
4998.64
4998.6
4998.56
4998.52
4998.47
4998.43
4998.39
4998.34
4998.29
4998.26
4998.24
4998.23
4998.22
4998.21
4998.2
4998.19
4998.18
4998.17
4998.16
4998.15
4998.14
4998.12
4998.11
4998.09
4998.07
4998.04
4998
4997.96
4997.91
4997.86
4997.8
4997.74
4997.72
4997.71
4997.71
4997.71
4997.71
4997.71
4997.7
4997.69
4997.69
4997.68
4997.67
4997.66
4997.66
4997.65
4997.64
4997.63
4997.62
4997.61
4997.6
4997.58
4997.57
4997.54
4997.5
4997.44
4997.34
4997.26
4997.24
4997.27
4997.3
4997.33
4997.34
4997.35
4997.35
4997.36
4997.37
4997.37
4997.37
4997.37
4997.37
4997.23
4996.91
4996.82
4996.98
4997.03
4996.93
4996.24
4993.35
4987.55
4975.82
4970.19
4942.57
4897.68
4869.2
4857.63
4850.83
4841.35
4829.74
4816.15
4800.29
4782.47
4763.16
4742.58
4720.91
4698.3
4674.9
4650.81
4626.14
4600.97
4575.41
4549.49
4523.29
4496.85
4470.2
4443.37
4416.39
4389.29
4362.08
4334.78
4307.4
4279.95
4252.45
4224.9
4197.3
4169.66
4142
4114.3
4086.59
4058.85
4031.1
4003.34
3975.57
3947.78
3919.98
3892.18
3864.36
3836.54
3808.71
3780.88
3753.05
3725.22
3697.38
3669.55
3641.72
3613.88
3586.04
3558.19
3530.35
3502.5
3474.64
3446.79
3418.93
3391.08
3363.22
3335.36
3307.51
3279.65
3251.8
3223.95
3196.11
3168.26
3140.41
3112.56
3084.71
3056.86
3029
3001.15
2973.3
2945.44
2917.59
2889.73
2861.88
2834.02
2806.15
2778.28
2750.42
2722.54
2694.67
2666.8
2638.93
2611.07
2583.21
2555.35
2527.49
2499.64
2471.8
2443.96
2416.11
2388.27
2360.43
2332.59
2304.75
2276.91
2249.06
2221.22
2193.37
2165.53
2137.69
2109.85
2082.01
2054.17
2026.34
1998.51
1970.68
1942.85
1915.03
1887.2
1859.37
1831.54
1803.71
1775.88
1748.05
1720.21
1692.38
1664.55
1636.71
1608.88
1581.05
1553.22
1525.39
1497.56
1469.72
1441.89
1414.05
1386.21
1358.37
1330.49
1302.47
1274.52
1248.42
4998.78
4998.3
4998.86
4999.12
4999.04
4998.94
4998.92
4998.94
4998.94
4998.93
4998.92
4998.91
4998.9
4998.89
4998.88
4998.87
4998.86
4998.84
4998.83
4998.82
4998.81
4998.79
4998.78
4998.76
4998.74
4998.72
4998.7
4998.67
4998.65
4998.62
4998.59
4998.55
4998.52
4998.48
4998.44
4998.4
4998.37
4998.33
4998.31
4998.28
4998.26
4998.24
4998.23
4998.21
4998.2
4998.18
4998.17
4998.15
4998.14
4998.12
4998.11
4998.09
4998.07
4998.05
4998.02
4997.99
4997.96
4997.92
4997.88
4997.84
4997.81
4997.79
4997.78
4997.77
4997.75
4997.74
4997.73
4997.72
4997.71
4997.7
4997.69
4997.68
4997.67
4997.67
4997.66
4997.65
4997.64
4997.63
4997.62
4997.61
4997.59
4997.57
4997.54
4997.51
4997.47
4997.42
4997.36
4997.29
4997.27
4997.27
4997.27
4997.28
4997.27
4997.26
4997.25
4997.24
4997.23
4997.21
4997.19
4997.17
4997.16
4997.15
4997.15
4997.15
4997.16
4997.18
4997.15
4996.98
4996.65
4996.27
4994.49
4989.03
4980.12
4962.3
4938.69
4901.33
4868.64
4849.76
4835.24
4818.37
4799.17
4778.26
4756.12
4732.96
4708.99
4684.34
4659.13
4633.45
4607.39
4581.01
4554.38
4527.55
4500.55
4473.41
4446.16
4418.82
4391.39
4363.89
4336.34
4308.75
4281.12
4253.46
4225.77
4198.06
4170.32
4142.57
4114.8
4087.02
4059.22
4031.42
4003.61
3975.79
3947.97
3920.15
3892.32
3864.49
3836.65
3808.81
3780.97
3753.13
3725.29
3697.45
3669.61
3641.77
3613.92
3586.07
3558.22
3530.37
3502.52
3474.66
3446.8
3418.94
3391.08
3363.22
3335.36
3307.51
3279.65
3251.8
3223.94
3196.09
3168.24
3140.39
3112.54
3084.69
3056.84
3028.98
3001.13
2973.28
2945.42
2917.57
2889.71
2861.85
2833.99
2806.13
2778.26
2750.4
2722.53
2694.66
2666.79
2638.93
2611.07
2583.21
2555.35
2527.5
2499.65
2471.8
2443.96
2416.11
2388.27
2360.43
2332.59
2304.74
2276.9
2249.05
2221.21
2193.37
2165.52
2137.68
2109.85
2082.01
2054.18
2026.35
1998.52
1970.69
1942.86
1915.03
1887.2
1859.36
1831.53
1803.7
1775.86
1748.02
1720.18
1692.34
1664.5
1636.66
1608.82
1580.98
1553.14
1525.3
1497.46
1469.61
1441.76
1413.91
1386.05
1358.2
1330.3
1302.26
1274.28
1248.33
4998.77
4998.29
4998.85
4999.11
4999.04
4998.94
4998.92
4998.93
4998.93
4998.92
4998.91
4998.9
4998.89
4998.88
4998.87
4998.86
4998.84
4998.83
4998.82
4998.81
4998.79
4998.78
4998.76
4998.74
4998.72
4998.7
4998.68
4998.66
4998.63
4998.61
4998.58
4998.55
4998.52
4998.49
4998.45
4998.42
4998.39
4998.36
4998.33
4998.31
4998.28
4998.26
4998.24
4998.23
4998.21
4998.19
4998.17
4998.16
4998.14
4998.12
4998.1
4998.08
4998.06
4998.04
4998.01
4997.98
4997.96
4997.93
4997.9
4997.87
4997.84
4997.82
4997.8
4997.78
4997.77
4997.75
4997.74
4997.72
4997.71
4997.7
4997.69
4997.68
4997.67
4997.65
4997.64
4997.63
4997.61
4997.6
4997.58
4997.57
4997.55
4997.53
4997.51
4997.48
4997.46
4997.43
4997.4
4997.37
4997.35
4997.34
4997.34
4997.33
4997.32
4997.31
4997.3
4997.29
4997.27
4997.25
4997.23
4997.19
4997.15
4997.11
4997.09
4997.08
4997.07
4997.05
4997.05
4997.05
4997.05
4997.04
4996.98
4996.68
4995.86
4993.54
4986.33
4967.79
4932.88
4897.51
4865.24
4841.35
4819.99
4797.08
4772.64
4747.36
4721.53
4695.24
4668.59
4641.65
4614.5
4587.17
4559.71
4532.15
4504.52
4476.84
4449.12
4421.37
4393.59
4365.79
4337.98
4310.17
4282.34
4254.51
4226.68
4198.84
4170.99
4143.15
4115.3
4087.45
4059.59
4031.74
4003.88
3976.03
3948.18
3920.33
3892.48
3864.63
3836.78
3808.92
3781.07
3753.22
3725.38
3697.53
3669.67
3641.82
3613.96
3586.11
3558.25
3530.39
3502.53
3474.67
3446.81
3418.95
3391.09
3363.23
3335.37
3307.51
3279.64
3251.79
3223.93
3196.07
3168.22
3140.37
3112.52
3084.67
3056.82
3028.96
3001.11
2973.26
2945.4
2917.55
2889.69
2861.83
2833.97
2806.11
2778.25
2750.38
2722.52
2694.65
2666.79
2638.93
2611.07
2583.21
2555.35
2527.5
2499.65
2471.8
2443.96
2416.11
2388.27
2360.42
2332.58
2304.73
2276.89
2249.05
2221.2
2193.36
2165.52
2137.68
2109.85
2082.01
2054.18
2026.35
1998.52
1970.69
1942.86
1915.03
1887.19
1859.36
1831.52
1803.68
1775.84
1747.99
1720.15
1692.3
1664.46
1636.61
1608.76
1580.91
1553.06
1525.21
1497.36
1469.51
1441.65
1413.78
1385.91
1358.04
1330.13
1302.07
1274.09
1248.25
4998.77
4998.28
4998.85
4999.11
4999.03
4998.93
4998.91
4998.92
4998.93
4998.91
4998.9
4998.89
4998.88
4998.87
4998.86
4998.85
4998.84
4998.82
4998.81
4998.8
4998.78
4998.77
4998.75
4998.73
4998.71
4998.69
4998.67
4998.65
4998.63
4998.6
4998.57
4998.55
4998.52
4998.49
4998.46
4998.43
4998.4
4998.38
4998.35
4998.32
4998.3
4998.28
4998.26
4998.24
4998.22
4998.2
4998.18
4998.16
4998.14
4998.12
4998.1
4998.08
4998.06
4998.03
4998.01
4997.98
4997.96
4997.93
4997.91
4997.88
4997.86
4997.84
4997.82
4997.8
4997.78
4997.77
4997.75
4997.74
4997.72
4997.71
4997.7
4997.68
4997.67
4997.66
4997.64
4997.63
4997.61
4997.6
4997.58
4997.57
4997.55
4997.53
4997.51
4997.48
4997.46
4997.43
4997.4
4997.38
4997.36
4997.34
4997.32
4997.31
4997.29
4997.28
4997.26
4997.25
4997.23
4997.22
4997.2
4997.18
4997.16
4997.14
4997.13
4997.11
4997.09
4997.07
4997.05
4997.02
4997
4996.98
4996.96
4996.87
4996.64
4996.08
4994.78
4991.94
4984.24
4961.39
4917.04
4876.44
4845.9
4819.03
4791.61
4763.57
4735.32
4707.01
4678.64
4650.26
4621.86
4593.48
4565.11
4536.78
4508.49
4480.25
4452.04
4423.87
4395.74
4367.64
4339.57
4311.53
4283.52
4255.52
4227.54
4199.58
4171.63
4143.7
4115.78
4087.86
4059.95
4032.04
4004.15
3976.26
3948.38
3920.5
3892.63
3864.76
3836.9
3809.03
3781.17
3753.31
3725.45
3697.59
3669.73
3641.87
3614
3586.14
3558.27
3530.41
3502.55
3474.69
3446.82
3418.96
3391.1
3363.23
3335.37
3307.5
3279.64
3251.77
3223.91
3196.05
3168.2
3140.35
3112.5
3084.65
3056.8
3028.95
3001.09
2973.24
2945.39
2917.53
2889.67
2861.82
2833.96
2806.1
2778.24
2750.37
2722.51
2694.65
2666.79
2638.93
2611.07
2583.21
2555.35
2527.5
2499.65
2471.8
2443.95
2416.11
2388.26
2360.41
2332.57
2304.73
2276.88
2249.04
2221.2
2193.36
2165.52
2137.68
2109.85
2082.02
2054.18
2026.35
1998.52
1970.69
1942.86
1915.02
1887.19
1859.35
1831.51
1803.66
1775.82
1747.97
1720.12
1692.27
1664.42
1636.56
1608.71
1580.85
1552.99
1525.14
1497.27
1469.41
1441.54
1413.67
1385.79
1357.91
1329.99
1301.92
1273.92
1248.18
4998.77
4998.27
4998.84
4999.11
4999.03
4998.93
4998.91
4998.92
4998.92
4998.91
4998.9
4998.89
4998.88
4998.86
4998.85
4998.84
4998.83
4998.82
4998.8
4998.79
4998.77
4998.76
4998.74
4998.72
4998.7
4998.68
4998.66
4998.64
4998.62
4998.6
4998.57
4998.54
4998.52
4998.49
4998.47
4998.44
4998.41
4998.39
4998.36
4998.34
4998.31
4998.29
4998.27
4998.24
4998.22
4998.2
4998.18
4998.16
4998.14
4998.12
4998.1
4998.08
4998.05
4998.03
4998.01
4997.99
4997.96
4997.94
4997.91
4997.89
4997.87
4997.85
4997.83
4997.81
4997.79
4997.77
4997.76
4997.74
4997.73
4997.71
4997.7
4997.68
4997.67
4997.65
4997.64
4997.62
4997.6
4997.59
4997.57
4997.55
4997.54
4997.52
4997.5
4997.48
4997.45
4997.43
4997.41
4997.39
4997.37
4997.36
4997.34
4997.32
4997.31
4997.29
4997.28
4997.26
4997.24
4997.22
4997.2
4997.18
4997.16
4997.14
4997.12
4997.1
4997.08
4997.06
4997.04
4997.02
4997
4996.98
4996.95
4996.91
4996.84
4996.68
4996.29
4995.3
4992.75
4986.05
4966.39
4923.21
4878.12
4843.2
4811.58
4780.36
4749.32
4718.71
4688.48
4658.55
4628.88
4599.42
4570.16
4541.07
4512.14
4483.35
4454.69
4426.13
4397.67
4369.3
4341
4312.75
4284.56
4256.41
4228.31
4200.24
4172.2
4144.19
4116.19
4088.22
4060.26
4032.32
4004.39
3976.47
3948.56
3920.66
3892.77
3864.88
3837
3809.13
3781.26
3753.39
3725.52
3697.65
3669.78
3641.91
3614.04
3586.17
3558.3
3530.43
3502.57
3474.7
3446.84
3418.97
3391.11
3363.24
3335.37
3307.49
3279.62
3251.75
3223.89
3196.03
3168.17
3140.32
3112.47
3084.63
3056.78
3028.93
3001.08
2973.23
2945.37
2917.52
2889.66
2861.81
2833.95
2806.09
2778.23
2750.37
2722.51
2694.65
2666.79
2638.93
2611.07
2583.21
2555.35
2527.5
2499.65
2471.8
2443.95
2416.1
2388.25
2360.4
2332.56
2304.72
2276.87
2249.03
2221.19
2193.35
2165.51
2137.68
2109.85
2082.02
2054.19
2026.36
1998.53
1970.69
1942.86
1915.02
1887.18
1859.34
1831.5
1803.65
1775.8
1747.95
1720.09
1692.24
1664.38
1636.52
1608.66
1580.8
1552.94
1525.07
1497.2
1469.33
1441.46
1413.58
1385.69
1357.81
1329.88
1301.8
1273.8
1248.13
4998.76
4998.27
4998.84
4999.1
4999.03
4998.93
4998.9
4998.92
4998.92
4998.91
4998.89
4998.88
4998.87
4998.86
4998.85
4998.84
4998.82
4998.81
4998.8
4998.78
4998.77
4998.75
4998.73
4998.72
4998.7
4998.68
4998.66
4998.64
4998.61
4998.59
4998.57
4998.54
4998.52
4998.49
4998.47
4998.44
4998.42
4998.39
4998.37
4998.34
4998.32
4998.29
4998.27
4998.25
4998.23
4998.21
4998.18
4998.16
4998.14
4998.12
4998.1
4998.08
4998.05
4998.03
4998.01
4997.99
4997.96
4997.94
4997.92
4997.9
4997.88
4997.85
4997.83
4997.82
4997.8
4997.78
4997.76
4997.75
4997.73
4997.71
4997.7
4997.68
4997.67
4997.65
4997.64
4997.62
4997.6
4997.59
4997.57
4997.55
4997.53
4997.52
4997.5
4997.48
4997.46
4997.44
4997.41
4997.39
4997.37
4997.36
4997.34
4997.32
4997.3
4997.28
4997.27
4997.25
4997.23
4997.21
4997.19
4997.18
4997.16
4997.14
4997.12
4997.1
4997.08
4997.06
4997.03
4997.01
4996.99
4996.97
4996.94
4996.91
4996.87
4996.8
4996.62
4996.18
4995.08
4992.21
4983.59
4956.29
4909.02
4865.39
4828.95
4794.83
4761.45
4728.76
4696.85
4665.55
4634.75
4604.36
4574.33
4544.59
4515.12
4485.87
4456.83
4427.95
4399.23
4370.63
4342.13
4313.72
4285.39
4257.13
4228.92
4200.76
4172.65
4144.57
4116.53
4088.51
4060.51
4032.54
4004.58
3976.63
3948.7
3920.78
3892.87
3864.97
3837.08
3809.2
3781.32
3753.44
3725.57
3697.69
3669.82
3641.94
3614.07
3586.19
3558.32
3530.46
3502.59
3474.72
3446.85
3418.98
3391.11
3363.24
3335.36
3307.48
3279.61
3251.74
3223.87
3196.01
3168.16
3140.31
3112.46
3084.61
3056.76
3028.92
3001.07
2973.22
2945.36
2917.51
2889.66
2861.8
2833.94
2806.09
2778.23
2750.37
2722.51
2694.65
2666.79
2638.93
2611.07
2583.21
2555.35
2527.5
2499.64
2471.79
2443.94
2416.09
2388.24
2360.4
2332.55
2304.71
2276.86
2249.02
2221.18
2193.35
2165.51
2137.68
2109.85
2082.02
2054.19
2026.36
1998.53
1970.69
1942.86
1915.02
1887.18
1859.34
1831.49
1803.64
1775.79
1747.93
1720.08
1692.22
1664.36
1636.49
1608.63
1580.76
1552.9
1525.03
1497.15
1469.28
1441.4
1413.51
1385.62
1357.73
1329.8
1301.72
1273.71
1248.09
4998.76
4998.26
4998.84
4999.1
4999.03
4998.92
4998.9
4998.91
4998.92
4998.9
4998.89
4998.88
4998.87
4998.86
4998.85
4998.83
4998.82
4998.81
4998.79
4998.78
4998.76
4998.75
4998.73
4998.71
4998.69
4998.68
4998.66
4998.63
4998.61
4998.59
4998.57
4998.54
4998.52
4998.49
4998.47
4998.44
4998.42
4998.39
4998.37
4998.35
4998.32
4998.3
4998.28
4998.25
4998.23
4998.21
4998.19
4998.16
4998.14
4998.12
4998.1
4998.08
4998.05
4998.03
4998.01
4997.99
4997.97
4997.94
4997.92
4997.9
4997.88
4997.86
4997.84
4997.82
4997.8
4997.78
4997.76
4997.75
4997.73
4997.71
4997.7
4997.68
4997.67
4997.65
4997.63
4997.62
4997.6
4997.58
4997.57
4997.55
4997.53
4997.51
4997.49
4997.47
4997.45
4997.43
4997.41
4997.4
4997.38
4997.36
4997.34
4997.32
4997.31
4997.29
4997.27
4997.25
4997.23
4997.22
4997.2
4997.18
4997.16
4997.14
4997.12
4997.1
4997.07
4997.05
4997.03
4997.01
4996.99
4996.97
4996.94
4996.92
4996.88
4996.83
4996.73
4996.48
4995.8
4993.95
4988.5
4970.88
4928.88
4881.1
4840.85
4804.61
4769.68
4735.64
4702.56
4670.31
4638.73
4607.69
4577.12
4546.94
4517.1
4487.55
4458.25
4429.16
4400.26
4371.51
4342.88
4314.37
4285.94
4257.6
4229.32
4201.11
4172.95
4144.83
4116.75
4088.71
4060.68
4032.68
4004.7
3976.74
3948.79
3920.86
3892.94
3865.03
3837.13
3809.24
3781.36
3753.48
3725.6
3697.72
3669.84
3641.97
3614.09
3586.22
3558.35
3530.48
3502.61
3474.73
3446.86
3418.99
3391.11
3363.23
3335.35
3307.47
3279.59
3251.72
3223.86
3196
3168.15
3140.3
3112.45
3084.6
3056.75
3028.91
3001.06
2973.21
2945.36
2917.51
2889.65
2861.8
2833.94
2806.09
2778.23
2750.37
2722.51
2694.65
2666.79
2638.93
2611.07
2583.21
2555.35
2527.49
2499.64
2471.79
2443.93
2416.08
2388.24
2360.39
2332.54
2304.7
2276.86
2249.02
2221.18
2193.34
2165.51
2137.68
2109.85
2082.02
2054.19
2026.36
1998.53
1970.69
1942.86
1915.02
1887.18
1859.34
1831.49
1803.64
1775.78
1747.93
1720.07
1692.21
1664.34
1636.48
1608.61
1580.74
1552.87
1525
1497.12
1469.24
1441.36
1413.47
1385.58
1357.69
1329.76
1301.67
1273.66
1248.07
4998.76
4998.26
4998.83
4999.1
4999.03
4998.92
4998.9
4998.91
4998.92
4998.9
4998.89
4998.88
4998.87
4998.86
4998.85
4998.83
4998.82
4998.81
4998.79
4998.78
4998.76
4998.75
4998.73
4998.71
4998.69
4998.67
4998.65
4998.63
4998.61
4998.59
4998.57
4998.54
4998.52
4998.49
4998.47
4998.45
4998.42
4998.4
4998.37
4998.35
4998.32
4998.3
4998.28
4998.25
4998.23
4998.21
4998.19
4998.16
4998.14
4998.12
4998.1
4998.08
4998.05
4998.03
4998.01
4997.99
4997.97
4997.94
4997.92
4997.9
4997.88
4997.86
4997.84
4997.82
4997.8
4997.78
4997.77
4997.75
4997.73
4997.72
4997.7
4997.68
4997.67
4997.65
4997.63
4997.62
4997.6
4997.58
4997.57
4997.55
4997.53
4997.51
4997.49
4997.47
4997.46
4997.44
4997.42
4997.4
4997.38
4997.36
4997.34
4997.32
4997.3
4997.28
4997.27
4997.25
4997.23
4997.21
4997.19
4997.17
4997.15
4997.13
4997.11
4997.09
4997.07
4997.05
4997.03
4997.01
4996.99
4996.97
4996.94
4996.92
4996.89
4996.84
4996.75
4996.55
4996.03
4994.53
4990.03
4975.47
4936.25
4887.42
4845.54
4808.41
4772.88
4738.32
4704.79
4672.17
4640.27
4608.98
4578.2
4547.85
4517.87
4488.2
4458.8
4429.63
4400.66
4371.86
4343.18
4314.63
4286.17
4257.79
4229.49
4201.25
4173.07
4144.94
4116.85
4088.78
4060.75
4032.74
4004.76
3976.79
3948.84
3920.9
3892.97
3865.05
3837.15
3809.26
3781.37
3753.49
3725.61
3697.73
3669.86
3641.98
3614.11
3586.23
3558.36
3530.49
3502.61
3474.74
3446.86
3418.98
3391.1
3363.22
3335.34
3307.47
3279.59
3251.72
3223.86
3196
3168.15
3140.29
3112.44
3084.6
3056.75
3028.9
3001.05
2973.2
2945.36
2917.51
2889.65
2861.8
2833.95
2806.09
2778.23
2750.37
2722.51
2694.65
2666.79
2638.93
2611.07
2583.21
2555.35
2527.49
2499.63
2471.78
2443.93
2416.08
2388.23
2360.38
2332.54
2304.7
2276.85
2249.01
2221.18
2193.34
2165.51
2137.68
2109.85
2082.02
2054.19
2026.36
1998.53
1970.7
1942.86
1915.02
1887.18
1859.34
1831.49
1803.64
1775.78
1747.93
1720.07
1692.21
1664.34
1636.48
1608.61
1580.74
1552.87
1525
1497.12
1469.24
1441.35
1413.46
1385.57
1357.68
1329.74
1301.65
1273.64
1248.06
4998.76
4998.26
4998.84
4999.1
4999.03
4998.92
4998.9
4998.91
4998.92
4998.9
4998.89
4998.88
4998.87
4998.86
4998.85
4998.83
4998.82
4998.81
4998.79
4998.78
4998.76
4998.75
4998.73
4998.71
4998.69
4998.68
4998.66
4998.63
4998.61
4998.59
4998.57
4998.54
4998.52
4998.49
4998.47
4998.44
4998.42
4998.39
4998.37
4998.35
4998.32
4998.3
4998.28
4998.25
4998.23
4998.21
4998.19
4998.16
4998.14
4998.12
4998.1
4998.08
4998.05
4998.03
4998.01
4997.99
4997.97
4997.94
4997.92
4997.9
4997.88
4997.86
4997.84
4997.82
4997.8
4997.78
4997.76
4997.75
4997.73
4997.71
4997.7
4997.68
4997.67
4997.65
4997.63
4997.62
4997.6
4997.58
4997.57
4997.55
4997.53
4997.51
4997.49
4997.47
4997.45
4997.43
4997.41
4997.4
4997.38
4997.36
4997.34
4997.32
4997.31
4997.29
4997.27
4997.25
4997.23
4997.22
4997.2
4997.18
4997.16
4997.14
4997.11
4997.09
4997.07
4997.05
4997.03
4997.01
4996.99
4996.97
4996.94
4996.92
4996.89
4996.84
4996.74
4996.51
4995.89
4994.15
4989.01
4972.69
4931.71
4883.23
4842.28
4805.74
4770.62
4736.42
4703.21
4670.85
4639.17
4608.06
4577.43
4547.2
4517.33
4487.75
4458.43
4429.32
4400.4
4371.63
4342.99
4314.47
4286.03
4257.68
4229.4
4201.18
4173.01
4144.88
4116.8
4088.74
4060.72
4032.72
4004.74
3976.77
3948.82
3920.88
3892.96
3865.04
3837.14
3809.24
3781.36
3753.48
3725.6
3697.73
3669.85
3641.98
3614.11
3586.23
3558.36
3530.49
3502.61
3474.73
3446.86
3418.98
3391.1
3363.22
3335.34
3307.47
3279.6
3251.73
3223.87
3196.01
3168.15
3140.3
3112.45
3084.6
3056.75
3028.9
3001.05
2973.2
2945.35
2917.51
2889.66
2861.8
2833.95
2806.09
2778.24
2750.38
2722.51
2694.65
2666.79
2638.93
2611.06
2583.2
2555.34
2527.49
2499.63
2471.78
2443.93
2416.08
2388.23
2360.38
2332.54
2304.69
2276.85
2249.01
2221.18
2193.34
2165.51
2137.68
2109.85
2082.02
2054.19
2026.36
1998.53
1970.69
1942.86
1915.02
1887.18
1859.34
1831.49
1803.64
1775.79
1747.94
1720.08
1692.22
1664.36
1636.49
1608.63
1580.76
1552.89
1525.01
1497.13
1469.25
1441.37
1413.48
1385.59
1357.7
1329.76
1301.67
1273.66
1248.07
4998.76
4998.27
4998.84
4999.1
4999.03
4998.93
4998.9
4998.92
4998.92
4998.91
4998.89
4998.88
4998.87
4998.86
4998.85
4998.84
4998.82
4998.81
4998.8
4998.78
4998.77
4998.75
4998.73
4998.72
4998.7
4998.68
4998.66
4998.64
4998.61
4998.59
4998.57
4998.54
4998.52
4998.49
4998.47
4998.44
4998.42
4998.39
4998.37
4998.34
4998.32
4998.3
4998.27
4998.25
4998.23
4998.21
4998.18
4998.16
4998.14
4998.12
4998.1
4998.08
4998.05
4998.03
4998.01
4997.99
4997.96
4997.94
4997.92
4997.9
4997.88
4997.85
4997.83
4997.82
4997.8
4997.78
4997.76
4997.75
4997.73
4997.71
4997.7
4997.68
4997.67
4997.65
4997.64
4997.62
4997.6
4997.59
4997.57
4997.55
4997.54
4997.52
4997.5
4997.48
4997.46
4997.44
4997.42
4997.39
4997.37
4997.36
4997.34
4997.32
4997.3
4997.28
4997.26
4997.25
4997.23
4997.21
4997.19
4997.17
4997.15
4997.13
4997.12
4997.1
4997.08
4997.06
4997.03
4997.01
4996.99
4996.97
4996.94
4996.92
4996.88
4996.81
4996.65
4996.27
4995.29
4992.73
4985.21
4961.01
4914.47
4868.96
4831.44
4796.83
4763.13
4730.16
4698.02
4666.52
4635.56
4605.04
4574.9
4545.08
4515.55
4486.25
4457.17
4428.26
4399.49
4370.86
4342.34
4313.9
4285.55
4257.27
4229.05
4200.89
4172.76
4144.68
4116.62
4088.59
4060.59
4032.61
4004.64
3976.69
3948.75
3920.82
3892.91
3865
3837.1
3809.21
3781.33
3753.45
3725.58
3697.7
3669.83
3641.96
3614.09
3586.22
3558.34
3530.47
3502.6
3474.72
3446.84
3418.97
3391.09
3363.22
3335.35
3307.48
3279.62
3251.75
3223.89
3196.03
3168.17
3140.31
3112.46
3084.6
3056.75
3028.9
3001.05
2973.2
2945.36
2917.51