/*--------------------------------*- C++ -*----------------------------------*\
| =========                 |                                                 |
| \\      /  F ield         | OpenFOAM: The Open Source CFD Toolbox           |
|  \\    /   O peration     | Version:  2406                                  |
|   \\  /    A nd           | Website:  www.openfoam.com                      |
|    \\/     M anipulation  |                                                 |
\*---------------------------------------------------------------------------*/
FoamFile
{
    version     2.0;
    format      ascii;
    arch        "LSB;label=32;scalar=64";
    class       volScalarField;
    location    "0.1";
    object      p_rgh;
}
// * * * * * * * * * * * * * * * * * * * * * * * * * * * * * * * * * * * * * //

dimensions      [1 -1 -2 0 0 0 0];

internalField   nonuniform List<scalar> 
6250
(
4998.87
4998.44
4998.94
4999.14
4999.06
4998.97
4998.95
4998.95
4998.94
4998.93
4998.91
4998.9
4998.89
4998.88
4998.87
4998.86
4998.85
4998.84
4998.84
4998.83
4998.82
4998.82
4998.81
4998.81
4998.81
4998.81
4998.8
4998.8
4998.8
4998.8
4998.78
4993.39
4941.75
4916.53
4899.1
4880.05
4865.21
4853.67
4843.14
4834.26
4827.75
4822.51
4816.67
4809.8
4802.46
4795.37
4788.69
4782.28
4775.99
4769.7
4763.28
4756.69
4749.92
4743.06
4736.2
4729.5
4723.01
4717.09
4712.19
4707.55
4702.08
4695.66
4688.85
4682.08
4675.53
4669.29
4663.41
4657.76
4652.05
4646.04
4639.7
4633.17
4626.64
4620.22
4613.94
4607.76
4601.61
4595.46
4589.33
4583.2
4577.04
4570.8
4564.44
4558.01
4551.55
4545
4538.18
4531.05
4523.77
4516.52
4509.38
4502.23
4494.88
4487.2
4479.19
4470.94
4462.55
4454.12
4445.78
4437.65
4429.73
4421.94
4414.12
4406.06
4397.54
4388.5
4378.94
4368.9
4358.39
4347.34
4335.61
4323.06
4309.57
4295.05
4279.46
4262.78
4244.95
4225.98
4205.89
4184.68
4162.38
4139.06
4114.77
4089.58
4063.59
4036.87
4009.44
3981.39
3952.77
3923.66
3894.08
3864.11
3833.79
3803.16
3772.26
3741.11
3709.74
3678.19
3646.48
3614.64
3582.68
3550.59
3518.4
3486.13
3453.79
3421.39
3388.91
3356.4
3323.87
3291.3
3258.69
3226.06
3193.39
3160.7
3128
3095.29
3062.57
3029.83
2997.09
2964.35
2931.6
2898.84
2866.08
2833.31
2800.54
2767.75
2734.97
2702.17
2669.38
2636.59
2603.8
2571.02
2538.23
2505.44
2472.65
2439.86
2407.07
2374.29
2341.5
2308.71
2275.92
2243.13
2210.34
2177.55
2144.77
2111.98
2079.18
2046.39
2013.6
1980.8
1947.99
1915.19
1882.39
1849.59
1816.78
1783.96
1751.14
1718.32
1685.5
1652.69
1619.87
1587.05
1554.24
1521.43
1488.63
1455.82
1423.03
1390.25
1357.46
1324.68
1291.9
1259.12
1226.34
1193.55
1160.77
1127.98
1095.19
1062.4
1029.61
996.839
964.064
931.285
898.508
865.733
832.959
800.186
767.399
734.624
701.853
669.083
636.312
603.542
570.772
538.003
505.234
472.467
439.701
406.937
374.175
341.417
308.664
275.918
243.18
210.456
177.753
145.096
112.466
79.8388
47.3291
15.5346
4998.81
4998.36
4998.9
4999.14
4999.06
4998.96
4998.93
4998.94
4998.94
4998.92
4998.91
4998.9
4998.89
4998.87
4998.86
4998.85
4998.85
4998.84
4998.83
4998.82
4998.82
4998.81
4998.81
4998.8
4998.8
4998.8
4998.8
4998.8
4998.81
4998.81
4998.81
4998.72
4997.97
4997.93
4998.24
4996.33
4990.31
4983.35
4973.05
4957.35
4935.92
4915.01
4899.48
4889.59
4883.99
4880.68
4878.25
4875.02
4870.41
4863.79
4855.27
4844.87
4832.61
4818.41
4802.31
4784.96
4764.89
4749.55
4745.52
4743.24
4736.51
4726.56
4717.37
4709.18
4701.18
4693.1
4685.43
4678.06
4670.33
4661.87
4652.83
4643.57
4634.38
4625.36
4616.51
4607.74
4599.04
4590.46
4582.11
4574.03
4566.28
4558.78
4551.22
4543.7
4536.56
4529.77
4522.78
4515.21
4507.39
4499.93
4493.04
4486.51
4479.88
4472.92
4465.65
4458.2
4450.59
4442.81
4434.99
4427.38
4420.08
4412.94
4405.78
4398.3
4390.22
4381.43
4372.04
4362.13
4351.8
4341.03
4329.69
4317.58
4304.52
4290.42
4275.25
4258.98
4241.55
4222.95
4203.21
4182.33
4160.35
4137.31
4113.28
4088.32
4062.51
4035.92
4008.62
3980.67
3952.15
3923.11
3893.62
3863.72
3833.46
3802.88
3772.01
3740.88
3709.54
3678.01
3646.32
3614.48
3582.52
3550.45
3518.28
3486.02
3453.68
3421.29
3388.84
3356.34
3323.8
3291.22
3258.62
3225.99
3193.33
3160.66
3127.96
3095.25
3062.53
3029.8
2997.06
2964.31
2931.56
2898.81
2866.05
2833.28
2800.51
2767.73
2734.94
2702.16
2669.37
2636.59
2603.8
2571.02
2538.25
2505.48
2472.69
2439.9
2407.1
2374.29
2341.5
2308.71
2275.95
2243.17
2210.38
2177.59
2144.78
2111.97
2079.17
2046.38
2013.58
1980.79
1947.99
1915.19
1882.39
1849.58
1816.77
1783.95
1751.13
1718.31
1685.49
1652.66
1619.84
1587.02
1554.21
1521.4
1488.6
1455.81
1423.02
1390.24
1357.45
1324.67
1291.89
1259.11
1226.33
1193.54
1160.75
1127.96
1095.17
1062.38
1029.59
996.805
964.023
931.244
898.468
865.694
832.922
800.152
767.382
734.613
701.845
669.078
636.311
603.545
570.78
538.016
505.253
472.492
439.732
406.974
374.219
341.468
308.722
275.983
243.252
210.532
177.826
145.142
112.461
79.7342
47.0859
15.4019
4998.81
4998.35
4998.9
4999.14
4999.05
4998.95
4998.93
4998.93
4998.93
4998.92
4998.9
4998.89
4998.88
4998.86
4998.85
4998.84
4998.83
4998.82
4998.81
4998.8
4998.79
4998.79
4998.78
4998.77
4998.76
4998.75
4998.74
4998.73
4998.7
4998.66
4998.59
4998.47
4998.41
4998.43
4998.48
4998.4
4997.88
4997.45
4997.51
4997.78
4997.95
4997.98
4997.97
4997.96
4997.95
4997.95
4997.94
4997.93
4997.92
4997.91
4997.9
4997.89
4997.88
4997.86
4997.83
4997.79
4997.73
4995.12
4983.07
4967.61
4963.74
4964.06
4966.31
4967.21
4966.26
4962.9
4955.78
4945.96
4936.15
4928.24
4921.73
4914.99
4906.58
4895.61
4882.1
4866.68
4849.83
4831.52
4811.37
4789.18
4765.19
4740.09
4714.8
4690.03
4665.99
4645.97
4627.36
4606.6
4583.68
4560.46
4538.69
4519.1
4501.08
4483.88
4467.53
4452.31
4438.67
4426.67
4415.7
4406.65
4399.81
4394.8
4390.86
4386.62
4380.94
4373.65
4365.28
4356.24
4346.76
4336.97
4326.66
4315.36
4302.84
4289.2
4274.52
4258.74
4241.77
4223.56
4204.11
4183.45
4161.63
4138.71
4114.73
4089.79
4063.95
4037.3
4009.93
3981.89
3953.27
3924.14
3894.55
3864.55
3834.2
3803.54
3772.6
3741.41
3710.01
3678.43
3646.69
3614.81
3582.81
3550.71
3518.51
3486.24
3453.89
3421.47
3389
3356.48
3323.93
3291.35
3258.71
3226.07
3193.41
3160.73
3128.03
3095.32
3062.59
3029.86
2997.14
2964.4
2931.64
2898.88
2866.12
2833.34
2800.57
2767.77
2734.96
2702.17
2669.39
2636.61
2603.83
2571.04
2538.25
2505.45
2472.66
2439.88
2407.11
2374.32
2341.53
2308.74
2275.95
2243.16
2210.37
2177.58
2144.77
2111.96
2079.17
2046.37
2013.58
1980.78
1947.99
1915.19
1882.39
1849.59
1816.78
1783.95
1751.13
1718.31
1685.48
1652.66
1619.84
1587.02
1554.21
1521.41
1488.61
1455.82
1423.03
1390.25
1357.47
1324.69
1291.91
1259.13
1226.35
1193.56
1160.77
1127.98
1095.19
1062.4
1029.61
996.828
964.047
931.269
898.494
865.721
832.95
800.179
767.41
734.643
701.877
669.111
636.344
603.578
570.813
538.048
505.28
472.516
439.756
406.998
374.244
341.493
308.748
276.009
243.275
210.548
177.83
145.125
112.4
79.5867
46.8342
15.2894
4998.8
4998.33
4998.88
4999.12
4999.04
4998.94
4998.92
4998.92
4998.92
4998.91
4998.89
4998.88
4998.87
4998.85
4998.84
4998.83
4998.82
4998.8
4998.79
4998.78
4998.77
4998.75
4998.74
4998.73
4998.71
4998.69
4998.67
4998.64
4998.61
4998.56
4998.51
4998.43
4998.35
4998.25
4998.16
4998.04
4997.92
4997.86
4997.88
4997.91
4997.93
4997.94
4997.94
4997.94
4997.93
4997.93
4997.93
4997.93
4997.93
4997.92
4997.92
4997.92
4997.93
4997.93
4997.94
4997.94
4997.95
4997.89
4997.52
4997.05
4997.07
4997.26
4997.37
4997.41
4997.41
4997.39
4997.38
4997.38
4997.37
4997.35
4997.33
4997.32
4997.3
4997.29
4997.28
4997.27
4997.26
4997.25
4997.23
4997.21
4997.2
4997.17
4997.15
4997.11
4997.03
4992.64
4985.16
4977.94
4969.33
4955.95
4934.69
4906.13
4875.37
4844.5
4809.67
4767.41
4719.05
4668.33
4617.14
4564.06
4510.97
4462.12
4424.79
4399.19
4379.96
4364.24
4351.72
4341.58
4333.44
4327.61
4322.31
4314.74
4304.12
4291.5
4277.7
4262.67
4246.19
4228.29
4209.02
4188.44
4166.57
4143.5
4119.32
4094.12
4068
4041.05
4013.36
3985.02
3956.1
3926.68
3896.82
3866.57
3835.99
3805.11
3773.98
3742.63
3711.08
3679.36
3647.5
3615.52
3583.43
3551.24
3518.97
3486.61
3454.19
3421.72
3389.21
3356.66
3324.08
3291.47
3258.84
3226.19
3193.51
3160.82
3128.1
3095.38
3062.64
3029.89
2997.14
2964.38
2931.62
2898.85
2866.09
2833.31
2800.54
2767.76
2734.97
2702.19
2669.4
2636.61
2603.82
2571.03
2538.24
2505.44
2472.65
2439.85
2407.06
2374.27
2341.48
2308.69
2275.9
2243.11
2210.32
2177.53
2144.74
2111.94
2079.14
2046.35
2013.55
1980.76
1947.96
1915.17
1882.37
1849.57
1816.76
1783.94
1751.12
1718.29
1685.47
1652.66
1619.85
1587.04
1554.23
1521.43
1488.64
1455.85
1423.06
1390.28
1357.49
1324.7
1291.92
1259.13
1226.35
1193.56
1160.77
1127.97
1095.18
1062.4
1029.61
996.825
964.045
931.268
898.493
865.72
832.948
800.177
767.408
734.638
701.87
669.101
636.333
603.565
570.797
538.03
505.263
472.498
439.734
406.972
374.214
341.458
308.705
275.955
243.208
210.463
177.721
144.985
112.219
79.3398
46.5124
15.1486
4998.79
4998.31
4998.87
4999.12
4999.04
4998.93
4998.91
4998.92
4998.91
4998.9
4998.88
4998.87
4998.86
4998.84
4998.83
4998.82
4998.8
4998.79
4998.77
4998.76
4998.74
4998.73
4998.71
4998.69
4998.67
4998.65
4998.63
4998.6
4998.56
4998.52
4998.47
4998.42
4998.35
4998.27
4998.21
4998.15
4998.09
4998.02
4997.96
4997.94
4997.94
4997.95
4997.95
4997.95
4997.95
4997.94
4997.94
4997.93
4997.92
4997.91
4997.9
4997.89
4997.87
4997.85
4997.82
4997.77
4997.69
4997.57
4997.46
4997.38
4997.38
4997.4
4997.41
4997.4
4997.39
4997.38
4997.38
4997.37
4997.36
4997.35
4997.34
4997.34
4997.33
4997.33
4997.32
4997.32
4997.32
4997.32
4997.32
4997.32
4997.33
4997.33
4997.33
4997.34
4997.33
4997.17
4996.72
4996.42
4996.44
4996.63
4996.8
4996.85
4996.82
4996.77
4996.74
4996.73
4996.73
4996.73
4996.7
4996.41
4987.77
4957.44
4875.59
4771.38
4694.24
4628
4556.12
4479.38
4404.91
4351.61
4328.8
4317.6
4305.03
4293.18
4282.19
4269.67
4254.43
4236.89
4217.68
4196.99
4174.84
4151.37
4126.7
4100.97
4074.29
4046.79
4018.56
3989.69
3960.28
3930.41
3900.12
3869.49
3838.56
3807.37
3775.96
3744.35
3712.58
3680.67
3648.64
3616.51
3584.29
3551.99
3519.61
3487.17
3454.67
3422.14
3389.57
3356.98
3324.35
3291.71
3259.04
3226.36
3193.66
3160.95
3128.22
3095.48
3062.73
3029.97
2997.2
2964.44
2931.67
2898.9
2866.13
2833.36
2800.58
2767.8
2735.01
2702.22
2669.43
2636.64
2603.85
2571.05
2538.26
2505.47
2472.67
2439.87
2407.08
2374.28
2341.49
2308.7
2275.91
2243.12
2210.33
2177.53
2144.73
2111.94
2079.14
2046.34
2013.55
1980.75
1947.95
1915.15
1882.35
1849.54
1816.73
1783.91
1751.1
1718.29
1685.48
1652.66
1619.85
1587.03
1554.22
1521.42
1488.62
1455.84
1423.07
1390.29
1357.5
1324.72
1291.94
1259.15
1226.35
1193.56
1160.77
1127.98
1095.19
1062.4
1029.61
996.831
964.052
931.276
898.502
865.729
832.957
800.186
767.416
734.646
701.876
669.105
636.334
603.563
570.791
538.02
505.249
472.479
439.709
406.942
374.175
341.411
308.647
275.884
243.121
210.356
177.591
144.828
112.027
79.1001
46.2283
15.0336
4998.78
4998.3
4998.86
4999.11
4999.03
4998.93
4998.9
4998.91
4998.91
4998.89
4998.87
4998.86
4998.85
4998.83
4998.82
4998.8
4998.79
4998.77
4998.76
4998.74
4998.72
4998.71
4998.69
4998.67
4998.65
4998.62
4998.59
4998.56
4998.53
4998.49
4998.45
4998.41
4998.36
4998.31
4998.26
4998.22
4998.16
4998.11
4998.07
4998.05
4998.03
4998.02
4998.01
4997.99
4997.97
4997.96
4997.94
4997.93
4997.91
4997.9
4997.88
4997.86
4997.84
4997.81
4997.78
4997.74
4997.69
4997.63
4997.57
4997.51
4997.45
4997.42
4997.41
4997.41
4997.4
4997.4
4997.39
4997.38
4997.37
4997.35
4997.34
4997.33
4997.32
4997.3
4997.29
4997.28
4997.26
4997.24
4997.23
4997.21
4997.2
4997.17
4997.14
4997.1
4997.03
4996.93
4996.84
4996.82
4996.84
4996.87
4996.89
4996.9
4996.9
4996.9
4996.91
4996.91
4996.91
4996.9
4996.9
4996.89
4996.75
4996.43
4996.33
4996.48
4996.53
4996.42
4994.71
4982.88
4948.65
4794.77
4576.21
4484.57
4407.51
4338.98
4301.53
4283.79
4267.73
4250.06
4230.79
4209.71
4186.85
4162.54
4136.99
4110.35
4082.8
4054.44
4025.41
3995.79
3965.69
3935.18
3904.33
3873.18
3841.79
3810.2
3778.43
3746.51
3714.46
3682.31
3650.06
3617.73
3585.34
3552.9
3520.4
3487.86
3455.28
3422.67
3390.03
3357.37
3324.69
3292
3259.29
3226.57
3193.84
3161.1
3128.35
3095.59
3062.83
3030.05
2997.28
2964.5
2931.73
2898.95
2866.17
2833.4
2800.61
2767.83
2735.04
2702.25
2669.46
2636.66
2603.86
2571.06
2538.26
2505.46
2472.66
2439.86
2407.06
2374.27
2341.47
2308.68
2275.89
2243.1
2210.3
2177.51
2144.71
2111.91
2079.12
2046.32
2013.52
1980.72
1947.92
1915.12
1882.32
1849.51
1816.7
1783.89
1751.07
1718.26
1685.44
1652.63
1619.82
1587.02
1554.22
1521.42
1488.63
1455.84
1423.05
1390.27
1357.48
1324.7
1291.92
1259.14
1226.36
1193.58
1160.79
1128
1095.21
1062.42
1029.63
996.837
964.056
931.28
898.506
865.733
832.961
800.188
767.416
734.643
701.869
669.095
636.319
603.543
570.766
537.988
505.211
472.434
439.657
406.881
374.105
341.33
308.554
275.778
242.999
210.217
177.431
144.647
111.821
78.8609
45.9609
14.9243
4998.78
4998.29
4998.85
4999.1
4999.02
4998.92
4998.89
4998.9
4998.9
4998.88
4998.86
4998.85
4998.84
4998.82
4998.81
4998.79
4998.78
4998.76
4998.74
4998.73
4998.71
4998.69
4998.67
4998.65
4998.62
4998.6
4998.57
4998.54
4998.51
4998.48
4998.44
4998.4
4998.36
4998.32
4998.28
4998.23
4998.19
4998.15
4998.12
4998.09
4998.07
4998.04
4998.02
4998
4997.98
4997.96
4997.94
4997.92
4997.91
4997.89
4997.86
4997.84
4997.82
4997.79
4997.76
4997.72
4997.68
4997.64
4997.6
4997.55
4997.51
4997.49
4997.47
4997.46
4997.44
4997.43
4997.41
4997.4
4997.38
4997.37
4997.35
4997.34
4997.33
4997.31
4997.3
4997.29
4997.27
4997.26
4997.24
4997.22
4997.2
4997.18
4997.15
4997.11
4997.06
4997.01
4996.94
4996.87
4996.84
4996.83
4996.84
4996.84
4996.83
4996.81
4996.8
4996.78
4996.76
4996.74
4996.71
4996.69
4996.68
4996.66
4996.65
4996.66
4996.66
4996.67
4996.64
4996.45
4996.12
4995.74
4992.09
4976.06
4939.54
4787.52
4489.22
4369.55
4313.25
4276.59
4251.63
4228.65
4203.94
4177.81
4150.6
4122.44
4093.5
4063.9
4033.74
4003.12
3972.1
3940.78
3909.21
3877.43
3845.49
3813.41
3781.21
3748.92
3716.55
3684.11
3651.62
3619.08
3586.51
3553.9
3521.27
3488.61
3455.93
3423.23
3390.52
3357.79
3325.05
3292.31
3259.55
3226.79
3194.03
3161.26
3128.49
3095.72
3062.94
3030.15
2997.37
2964.58
2931.8
2899.02
2866.24
2833.45
2800.66
2767.87
2735.07
2702.28
2669.48
2636.68
2603.88
2571.08
2538.27
2505.47
2472.66
2439.86
2407.06
2374.27
2341.47
2308.68
2275.88
2243.09
2210.29
2177.5
2144.7
2111.9
2079.1
2046.3
2013.51
1980.71
1947.91
1915.1
1882.3
1849.49
1816.68
1783.87
1751.06
1718.25
1685.44
1652.63
1619.82
1587.02
1554.22
1521.42
1488.63
1455.84
1423.06
1390.27
1357.48
1324.7
1291.91
1259.12
1226.33
1193.56
1160.78
1127.99
1095.21
1062.42
1029.64
996.856
964.064
931.285
898.51
865.736
832.962
800.189
767.414
734.638
701.861
669.082
636.301
603.52
570.737
537.953
505.169
472.385
439.6
406.816
374.031
341.246
308.459
275.67
242.877
210.08
177.279
144.478
111.635
78.6506
45.731
14.8309
4998.77
4998.28
4998.84
4999.1
4999.02
4998.91
4998.89
4998.89
4998.89
4998.88
4998.86
4998.84
4998.83
4998.81
4998.8
4998.78
4998.77
4998.75
4998.73
4998.71
4998.69
4998.67
4998.65
4998.63
4998.61
4998.58
4998.56
4998.53
4998.5
4998.47
4998.43
4998.4
4998.36
4998.32
4998.29
4998.25
4998.22
4998.18
4998.15
4998.12
4998.09
4998.06
4998.04
4998.02
4997.99
4997.97
4997.95
4997.93
4997.91
4997.88
4997.86
4997.83
4997.81
4997.78
4997.75
4997.72
4997.68
4997.65
4997.61
4997.58
4997.55
4997.52
4997.5
4997.48
4997.46
4997.44
4997.42
4997.4
4997.38
4997.37
4997.35
4997.33
4997.32
4997.3
4997.28
4997.26
4997.25
4997.23
4997.21
4997.19
4997.16
4997.14
4997.11
4997.08
4997.05
4997.02
4996.98
4996.95
4996.93
4996.91
4996.9
4996.89
4996.87
4996.86
4996.84
4996.83
4996.81
4996.78
4996.76
4996.72
4996.67
4996.62
4996.6
4996.58
4996.57
4996.55
4996.53
4996.53
4996.51
4996.44
4995.97
4994.46
4990.77
4981.62
4961.74
4883.6
4621.93
4349.96
4289.01
4254.66
4225.85
4197.24
4167.42
4136.97
4106.1
4074.86
4043.26
4011.33
3979.22
3946.94
3914.55
3882.06
3849.49
3816.86
3784.2
3751.5
3718.76
3686.01
3653.26
3620.5
3587.73
3554.96
3522.18
3489.39
3456.61
3423.82
3391.03
3358.23
3325.43
3292.63
3259.83
3227.03
3194.24
3161.44
3128.65
3095.86
3063.06
3030.26
2997.47
2964.68
2931.88
2899.09
2866.3
2833.5
2800.7
2767.9
2735.1
2702.29
2669.49
2636.69
2603.88
2571.08
2538.27
2505.47
2472.66
2439.86
2407.05
2374.25
2341.45
2308.65
2275.85
2243.06
2210.26
2177.47
2144.67
2111.88
2079.08
2046.28
2013.48
1980.68
1947.88
1915.08
1882.28
1849.47
1816.66
1783.86
1751.05
1718.24
1685.43
1652.63
1619.82
1587.02
1554.22
1521.43
1488.63
1455.84
1423.05
1390.26
1357.48
1324.69
1291.9
1259.11
1226.32
1193.53
1160.75
1127.98
1095.2
1062.42
1029.64
996.866
964.09
931.315
898.528
865.739
832.964
800.188
767.41
734.631
701.85
669.066
636.28
603.493
570.704
537.914
505.123
472.332
439.54
406.747
373.954
341.159
308.362
275.562
242.758
209.949
177.136
144.323
111.468
78.466
45.5332
14.7495
4998.77
4998.27
4998.83
4999.09
4999.01
4998.91
4998.88
4998.89
4998.89
4998.87
4998.85
4998.84
4998.82
4998.81
4998.79
4998.77
4998.76
4998.74
4998.72
4998.7
4998.68
4998.66
4998.64
4998.62
4998.59
4998.57
4998.54
4998.52
4998.49
4998.46
4998.43
4998.4
4998.36
4998.33
4998.3
4998.26
4998.23
4998.2
4998.16
4998.13
4998.11
4998.08
4998.05
4998.03
4998
4997.98
4997.95
4997.93
4997.91
4997.88
4997.86
4997.83
4997.8
4997.78
4997.75
4997.72
4997.69
4997.66
4997.63
4997.6
4997.57
4997.54
4997.52
4997.49
4997.47
4997.45
4997.43
4997.41
4997.39
4997.38
4997.36
4997.34
4997.32
4997.3
4997.28
4997.27
4997.25
4997.23
4997.21
4997.18
4997.16
4997.14
4997.11
4997.08
4997.05
4997.02
4996.99
4996.96
4996.93
4996.91
4996.89
4996.87
4996.85
4996.83
4996.81
4996.79
4996.77
4996.75
4996.73
4996.7
4996.68
4996.66
4996.64
4996.62
4996.59
4996.57
4996.53
4996.5
4996.47
4996.43
4996.34
4996.08
4995.48
4993.69
4988.27
4974.88
4942.68
4812.34
4490.74
4299.95
4256.86
4222.35
4187.87
4153.89
4120.23
4086.78
4053.37
4019.97
3986.6
3953.26
3919.96
3886.69
3853.45
3820.26
3787.12
3754.01
3720.93
3687.87
3654.85
3621.87
3588.9
3555.96
3523.04
3490.14
3457.25
3424.37
3391.5
3358.64
3325.79
3292.94
3260.1
3227.26
3194.44
3161.62
3128.8
3095.99
3063.18
3030.38
2997.57
2964.77
2931.97
2899.16
2866.36
2833.55
2800.74
2767.93
2735.12
2702.32
2669.51
2636.7
2603.9
2571.11
2538.3
2505.49
2472.68
2439.87
2407.06
2374.25
2341.45
2308.64
2275.84
2243.04
2210.24
2177.45
2144.66
2111.86
2079.07
2046.27
2013.47
1980.67
1947.87
1915.07
1882.26
1849.46
1816.66
1783.85
1751.04
1718.24
1685.43
1652.63
1619.82
1587.02
1554.22
1521.43
1488.63
1455.84
1423.05
1390.26
1357.47
1324.68
1291.89
1259.1
1226.31
1193.53
1160.74
1127.97
1095.2
1062.42
1029.64
996.868
964.093
931.319
898.533
865.743
832.965
800.186
767.406
734.624
701.839
669.051
636.26
603.468
570.674
537.878
505.081
472.283
439.485
406.685
373.885
341.082
308.276
275.468
242.655
209.837
177.015
144.194
111.329
78.3154
45.3734
14.6835
4998.76
4998.26
4998.83
4999.09
4999.01
4998.9
4998.88
4998.88
4998.88
4998.86
4998.85
4998.83
4998.82
4998.8
4998.78
4998.77
4998.75
4998.73
4998.71
4998.69
4998.67
4998.65
4998.63
4998.61
4998.59
4998.56
4998.54
4998.51
4998.48
4998.45
4998.42
4998.39
4998.36
4998.33
4998.3
4998.27
4998.24
4998.21
4998.18
4998.15
4998.12
4998.09
4998.06
4998.04
4998.01
4997.98
4997.96
4997.93
4997.91
4997.88
4997.86
4997.83
4997.8
4997.77
4997.75
4997.72
4997.69
4997.66
4997.63
4997.6
4997.58
4997.55
4997.53
4997.5
4997.48
4997.46
4997.44
4997.42
4997.4
4997.38
4997.36
4997.34
4997.32
4997.3
4997.28
4997.26
4997.24
4997.22
4997.19
4997.17
4997.15
4997.12
4997.1
4997.07
4997.05
4997.02
4997
4996.97
4996.95
4996.93
4996.9
4996.88
4996.86
4996.84
4996.82
4996.8
4996.78
4996.76
4996.73
4996.7
4996.68
4996.65
4996.62
4996.6
4996.57
4996.55
4996.53
4996.5
4996.47
4996.44
4996.4
4996.32
4996.12
4995.62
4994.03
4989.62
4976.96
4944.14
4825.27
4510.12
4307.31
4254.74
4212.37
4172.9
4135.32
4099
4063.45
4028.39
3993.68
3959.24
3925.02
3890.98
3857.09
3823.35
3789.74
3756.24
3722.84
3689.52
3656.27
3623.08
3589.95
3556.86
3523.81
3490.79
3457.81
3424.85
3391.92
3359
3326.1
3293.21
3260.33
3227.47
3194.62
3161.77
3128.94
3096.11
3063.28
3030.47
2997.65
2964.84
2932.03
2899.21
2866.4
2833.58
2800.77
2767.96
2735.14
2702.33
2669.52
2636.72
2603.91
2571.1
2538.29
2505.48
2472.66
2439.84
2407.03
2374.22
2341.41
2308.6
2275.81
2243.01
2210.22
2177.43
2144.64
2111.84
2079.05
2046.25
2013.45
1980.66
1947.86
1915.06
1882.25
1849.45
1816.65
1783.84
1751.04
1718.23
1685.43
1652.62
1619.82
1587.02
1554.22
1521.42
1488.63
1455.83
1423.04
1390.25
1357.46
1324.67
1291.88
1259.09
1226.3
1193.52
1160.74
1127.95
1095.19
1062.42
1029.64
996.87
964.096
931.321
898.546
865.767
832.971
800.186
767.403
734.617
701.829
669.038
636.243
603.447
570.649
537.848
505.046
472.243
439.439
406.634
373.827
341.018
308.206
275.39
242.57
209.746
176.917
144.09
111.22
78.197
45.249
14.6315
4998.76
4998.26
4998.83
4999.09
4999.01
4998.9
4998.87
4998.88
4998.88
4998.86
4998.84
4998.83
4998.81
4998.8
4998.78
4998.76
4998.74
4998.73
4998.71
4998.69
4998.67
4998.65
4998.63
4998.6
4998.58
4998.56
4998.53
4998.5
4998.48
4998.45
4998.42
4998.39
4998.36
4998.33
4998.3
4998.27
4998.24
4998.21
4998.18
4998.15
4998.12
4998.1
4998.07
4998.04
4998.01
4997.99
4997.96
4997.93
4997.91
4997.88
4997.86
4997.83
4997.8
4997.77
4997.75
4997.72
4997.69
4997.66
4997.64
4997.61
4997.58
4997.56
4997.53
4997.51
4997.49
4997.46
4997.44
4997.42
4997.4
4997.38
4997.36
4997.34
4997.32
4997.3
4997.28
4997.26
4997.24
4997.22
4997.19
4997.17
4997.15
4997.12
4997.1
4997.07
4997.05
4997.02
4997
4996.97
4996.95
4996.92
4996.9
4996.88
4996.86
4996.83
4996.81
4996.79
4996.77
4996.74
4996.72
4996.7
4996.67
4996.65
4996.62
4996.6
4996.57
4996.55
4996.52
4996.5
4996.47
4996.44
4996.4
4996.35
4996.26
4996.01
4995.3
4993.31
4987.86
4972.26
4926.89
4737.68
4395.48
4293.91
4238.2
4191.83
4149.76
4110.23
4072.41
4035.68
3999.7
3964.25
3929.22
3894.51
3860.08
3825.88
3791.88
3758.07
3724.4
3690.86
3657.42
3624.07
3590.79
3557.58
3524.43
3491.33
3458.26
3425.24
3392.26
3359.29
3326.35
3293.43
3260.53
3227.64
3194.76
3161.9
3129.05
3096.2
3063.37
3030.54
2997.72
2964.9
2932.08
2899.26
2866.44
2833.62
2800.8
2767.99
2735.17
2702.36
2669.55
2636.74
2603.93
2571.12
2538.31
2505.49
2472.67
2439.85
2407.03
2374.21
2341.4
2308.6
2275.79
2243
2210.21
2177.42
2144.62
2111.83
2079.04
2046.24
2013.45
1980.65
1947.85
1915.05
1882.25
1849.45
1816.65
1783.84
1751.04
1718.23
1685.43
1652.63
1619.82
1587.02
1554.22
1521.42
1488.62
1455.83
1423.03
1390.24
1357.45
1324.66
1291.87
1259.08
1226.3
1193.51
1160.73
1127.95
1095.2
1062.42
1029.64
996.871
964.098
931.324
898.547
865.751
832.967
800.185
767.4
734.613
701.822
669.028
636.231
603.432
570.631
537.827
505.022
472.215
439.407
406.597
373.786
340.972
308.155
275.334
242.51
209.68
176.847
144.016
111.142
78.1137
45.1617
14.595
4998.76
4998.26
4998.82
4999.08
4999
4998.9
4998.87
4998.88
4998.88
4998.86
4998.84
4998.82
4998.81
4998.79
4998.78
4998.76
4998.74
4998.72
4998.7
4998.69
4998.66
4998.64
4998.62
4998.6
4998.58
4998.55
4998.53
4998.5
4998.48
4998.45
4998.42
4998.39
4998.36
4998.33
4998.3
4998.27
4998.24
4998.21
4998.19
4998.16
4998.13
4998.1
4998.07
4998.04
4998.02
4997.99
4997.96
4997.94
4997.91
4997.88
4997.86
4997.83
4997.8
4997.78
4997.75
4997.72
4997.69
4997.67
4997.64
4997.61
4997.59
4997.56
4997.54
4997.51
4997.49
4997.47
4997.45
4997.42
4997.4
4997.38
4997.36
4997.34
4997.32
4997.3
4997.28
4997.25
4997.23
4997.21
4997.19
4997.17
4997.14
4997.12
4997.1
4997.07
4997.05
4997.02
4997
4996.97
4996.95
4996.93
4996.91
4996.88
4996.86
4996.84
4996.82
4996.79
4996.77
4996.75
4996.72
4996.7
4996.67
4996.65
4996.62
4996.6
4996.57
4996.55
4996.52
4996.49
4996.47
4996.44
4996.41
4996.37
4996.29
4996.15
4995.69
4994.54
4990.53
4979.09
4947.06
4832.29
4515.18
4320.11
4256.19
4205.08
4159.97
4118.22
4078.75
4040.8
4003.87
3967.69
3932.07
3896.89
3862.07
3827.56
3793.31
3759.27
3725.42
3691.73
3658.16
3624.7
3591.33
3558.04
3524.82
3491.67
3458.56
3425.5
3392.48
3359.49
3326.52
3293.57
3260.65
3227.74
3194.85
3161.98
3129.11
3096.26
3063.42
3030.58
2997.75
2964.93
2932.11
2899.29
2866.47
2833.65
2800.83
2768.01
2735.19
2702.38
2669.57
2636.75
2603.93
2571.12
2538.3
2505.47
2472.65
2439.82
2407
2374.19
2341.38
2308.58
2275.78
2242.99
2210.19
2177.4
2144.61
2111.82
2079.03
2046.23
2013.44
1980.64
1947.85
1915.05
1882.25
1849.45
1816.65
1783.84
1751.04
1718.23
1685.43
1652.62
1619.82
1587.02
1554.22
1521.42
1488.62
1455.82
1423.03
1390.23
1357.44
1324.65
1291.86
1259.08
1226.29
1193.51
1160.72
1127.95
1095.19
1062.42
1029.65
996.872
964.099
931.325
898.549
865.769
832.972
800.185
767.399
734.611
701.818
669.023
636.226
603.425
570.622
537.817
505.009
472.2
439.389
406.577
373.762
340.945
308.125
275.301
242.473
209.641
176.805
143.972
111.095
78.0635
45.1092
14.5727
4998.76
4998.26
4998.82
4999.08
4999
4998.9
4998.87
4998.88
4998.87
4998.86
4998.84
4998.82
4998.81
4998.79
4998.78
4998.76
4998.74
4998.72
4998.7
4998.68
4998.66
4998.64
4998.62
4998.6
4998.58
4998.55
4998.53
4998.5
4998.47
4998.45
4998.42
4998.39
4998.36
4998.33
4998.3
4998.27
4998.25
4998.22
4998.19
4998.16
4998.13
4998.1
4998.07
4998.04
4998.02
4997.99
4997.96
4997.94
4997.91
4997.88
4997.86
4997.83
4997.8
4997.78
4997.75
4997.72
4997.69
4997.67
4997.64
4997.61
4997.59
4997.56
4997.54
4997.51
4997.49
4997.47
4997.45
4997.42
4997.4
4997.38
4997.36
4997.34
4997.32
4997.3
4997.28
4997.26
4997.23
4997.21
4997.19
4997.17
4997.14
4997.12
4997.1
4997.07
4997.05
4997.02
4997
4996.98
4996.95
4996.93
4996.9
4996.88
4996.86
4996.83
4996.81
4996.79
4996.76
4996.74
4996.72
4996.69
4996.67
4996.65
4996.62
4996.6
4996.57
4996.55
4996.52
4996.49
4996.47
4996.44
4996.41
4996.37
4996.3
4996.17
4995.82
4994.81
4991.78
4982.23
4951.76
4859.21
4570.64
4330.06
4262.85
4209.96
4163.75
4121.22
4081.15
4042.75
4005.47
3969.01
3933.17
3897.81
3862.85
3828.22
3793.87
3759.75
3725.83
3692.08
3658.48
3624.98
3591.57
3558.26
3525.01
3491.83
3458.69
3425.61
3392.57
3359.57
3326.59
3293.64
3260.71
3227.79
3194.9
3162.02
3129.14
3096.28
3063.44
3030.6
2997.77
2964.94
2932.12
2899.3
2866.48
2833.66
2800.84
2768.03
2735.21
2702.39
2669.58
2636.76
2603.94
2571.12
2538.29
2505.47
2472.64
2439.82
2407
2374.19
2341.38
2308.58
2275.78
2242.99
2210.19
2177.4
2144.61
2111.82
2079.02
2046.23
2013.44
1980.64
1947.85
1915.05
1882.25
1849.45
1816.65
1783.85
1751.04
1718.24
1685.43
1652.63
1619.82
1587.02
1554.22
1521.41
1488.62
1455.82
1423.02
1390.23
1357.44
1324.65
1291.86
1259.07
1226.29
1193.5
1160.72
1127.95
1095.2
1062.42
1029.64
996.872
964.099
931.325
898.55
865.769
832.971
800.186
767.4
734.611
701.819
669.025
636.227
603.427
570.624
537.818
505.01
472.2
439.388
406.575
373.759
340.94
308.118
275.293
242.464
209.63
176.793
143.959
111.081
78.0477
45.0922
14.5655
4998.76
4998.26
4998.82
4999.08
4999
4998.9
4998.87
4998.88
4998.88
4998.86
4998.84
4998.82
4998.81
4998.79
4998.78
4998.76
4998.74
4998.72
4998.7
4998.68
4998.66
4998.64
4998.62
4998.6
4998.58
4998.55
4998.53
4998.5
4998.48
4998.45
4998.42
4998.39
4998.36
4998.33
4998.3
4998.27
4998.24
4998.21
4998.19
4998.16
4998.13
4998.1
4998.07
4998.04
4998.02
4997.99
4997.96
4997.94
4997.91
4997.88
4997.86
4997.83
4997.8
4997.78
4997.75
4997.72
4997.69
4997.67
4997.64
4997.61
4997.59
4997.56
4997.54
4997.51
4997.49
4997.47
4997.45
4997.42
4997.4
4997.38
4997.36
4997.34
4997.32
4997.3
4997.28
4997.25
4997.23
4997.21
4997.19
4997.17
4997.14
4997.12
4997.1
4997.07
4997.05
4997.02
4997
4996.98
4996.95
4996.93
4996.91
4996.88
4996.86
4996.84
4996.82
4996.79
4996.77
4996.75
4996.72
4996.7
4996.67
4996.65
4996.62
4996.6
4996.57
4996.55
4996.52
4996.49
4996.47
4996.44
4996.41
4996.37
4996.3
4996.16
4995.76
4994.67
4991.17
4980.36
4948.69
4845.16
4540.25
4323.84
4258.47
4206.66
4161.14
4119.13
4079.47
4041.37
4004.33
3968.06
3932.38
3897.15
3862.3
3827.77
3793.49
3759.44
3725.57
3691.86
3658.27
3624.8
3591.42
3558.12
3524.9
3491.73
3458.62
3425.55
3392.52
3359.53
3326.56
3293.61
3260.69
3227.78
3194.88
3162
3129.13
3096.27
3063.42
3030.59
2997.76
2964.93
2932.11
2899.3
2866.48
2833.66
2800.84
2768.03
2735.21
2702.39
2669.57
2636.76
2603.93
2571.11
2538.29
2505.47
2472.65
2439.83
2407.01
2374.2
2341.39
2308.59
2275.79
2242.99
2210.2
2177.4
2144.61
2111.81
2079.02
2046.23
2013.44
1980.65
1947.85
1915.06
1882.26
1849.46
1816.65
1783.85
1751.04
1718.24
1685.43
1652.62
1619.82
1587.01
1554.21
1521.41
1488.61
1455.81
1423.02
1390.23
1357.43
1324.64
1291.86
1259.07
1226.28
1193.5
1160.72
1127.95
1095.19
1062.42
1029.64
996.871
964.098
931.324
898.549
865.763
832.969
800.187
767.402
734.615
701.825
669.032
636.236
603.437
570.636
537.831
505.024
472.215
439.404
406.591
373.776
340.957
308.136
275.311
242.482
209.648
176.811
143.977
111.099
78.0662
45.1107
14.5733
4998.76
4998.26
4998.83
4999.09
4999.01
4998.9
4998.87
4998.88
4998.88
4998.86
4998.84
4998.83
4998.81
4998.8
4998.78
4998.76
4998.74
4998.73
4998.71
4998.69
4998.67
4998.65
4998.63
4998.6
4998.58
4998.56
4998.53
4998.5
4998.48
4998.45
4998.42
4998.39
4998.36
4998.33
4998.3
4998.27
4998.24
4998.21
4998.18
4998.15
4998.12
4998.1
4998.07
4998.04
4998.01
4997.99
4997.96
4997.93
4997.91
4997.88
4997.86
4997.83
4997.8
4997.77
4997.75
4997.72
4997.69
4997.66
4997.64
4997.61
4997.58
4997.56
4997.53
4997.51
4997.49
4997.46
4997.44
4997.42
4997.4
4997.38
4997.36
4997.34
4997.32
4997.3
4997.28
4997.26
4997.24
4997.22
4997.19
4997.17
4997.15
4997.12
4997.1
4997.08
4997.05
4997.03
4997
4996.97
4996.95
4996.92
4996.9
4996.88
4996.86
4996.83
4996.81
4996.79
4996.77
4996.74
4996.72
4996.7
4996.67
4996.65
4996.62
4996.6
4996.57
4996.55
4996.52
4996.5
4996.47
4996.44
4996.41
4996.36
4996.27
4996.07
4995.47
4993.76
4988.71
4975.54
4936.62
4775.77
4431.23
4301.57
4242.83
4194.93
4152.02
4111.92
4073.74
4036.73
4000.54
3964.95
3929.8
3895.01
3860.51
3826.26
3792.23
3758.37
3724.67
3691.1
3657.63
3624.25
3590.96
3557.73
3524.56
3491.44
3458.38
3425.35
3392.35
3359.38
3326.43
3293.5
3260.59
3227.7
3194.82
3161.94
3129.08
3096.23
3063.38
3030.55
2997.72
2964.9
2932.09
2899.27
2866.45
2833.64
2800.82
2768.01
2735.19
2702.37
2669.55
2636.74
2603.92
2571.1
2538.28
2505.46
2472.65
2439.84
2407.03
2374.22
2341.41
2308.61
2275.81
2243
2210.2
2177.41
2144.61
2111.82
2079.02
2046.23
2013.44
1980.65
1947.86
1915.06