/*--------------------------------*- C++ -*----------------------------------*\
| =========                 |                                                 |
| \\      /  F ield         | OpenFOAM: The Open Source CFD Toolbox           |
|  \\    /   O peration     | Version:  2406                                  |
|   \\  /    A nd           | Website:  www.openfoam.com                      |
|    \\/     M anipulation  |                                                 |
\*---------------------------------------------------------------------------*/
FoamFile
{
    version     2.0;
    format      ascii;
    arch        "LSB;label=32;scalar=64";
    class       surfaceScalarField;
    location    "0.1";
    object      phi;
}
// * * * * * * * * * * * * * * * * * * * * * * * * * * * * * * * * * * * * * //

dimensions      [0 3 -1 0 0 0 0];

oriented        oriented;

internalField   nonuniform List<scalar> 
12225
(
6.52066e-07
5.58276e-09
6.35232e-07
1.68352e-08
6.16433e-07
1.87972e-08
5.99888e-07
1.65441e-08
5.83483e-07
1.64023e-08
5.65443e-07
1.80378e-08
5.46239e-07
1.92019e-08
5.26775e-07
1.94622e-08
5.07382e-07
1.93905e-08
4.87979e-07
1.94016e-08
4.68504e-07
1.9475e-08
4.49005e-07
1.94985e-08
4.29543e-07
1.94626e-08
4.10124e-07
1.94192e-08
3.90717e-07
1.94081e-08
3.71273e-07
1.94453e-08
3.51732e-07
1.95411e-08
3.32024e-07
1.9709e-08
3.12061e-07
1.99632e-08
2.91746e-07
2.03151e-08
2.70974e-07
2.07713e-08
2.4964e-07
2.13328e-08
2.27648e-07
2.1992e-08
2.04921e-07
2.27275e-08
1.81425e-07
2.34968e-08
1.57197e-07
2.42299e-08
1.32373e-07
2.48263e-08
1.07152e-07
2.52241e-08
8.14362e-08
2.57194e-08
5.32009e-08
2.82391e-08
5.33556e-09
4.78678e-08
8.23216e-09
-2.89645e-09
9.60411e-09
-1.37194e-09
1.04127e-08
-8.08604e-10
1.10767e-08
-6.63943e-10
1.06092e-08
4.67453e-10
9.71752e-09
8.91682e-10
8.89143e-09
8.26092e-10
8.05407e-09
8.3735e-10
7.3553e-09
6.98773e-10
7.05542e-09
2.99877e-10
7.19208e-09
-1.36657e-10
7.54673e-09
-3.54647e-10
7.83408e-09
-2.87353e-10
7.94816e-09
-1.14083e-10
7.95869e-09
-1.05206e-11
7.94777e-09
1.0922e-11
7.96541e-09
-1.76413e-11
8.04351e-09
-7.80983e-11
8.19384e-09
-1.50334e-10
8.40913e-09
-2.15285e-10
8.66636e-09
-2.57226e-10
8.94346e-09
-2.77105e-10
9.22195e-09
-2.78482e-10
9.4823e-09
-2.60351e-10
9.73542e-09
-2.53112e-10
9.94233e-09
-2.06907e-10
1.01219e-08
-1.79541e-10
1.04997e-08
-3.77805e-10
1.11508e-08
-6.51151e-10
1.18964e-08
-7.45535e-10
1.25546e-08
-6.58189e-10
1.30985e-08
-5.43898e-10
1.35785e-08
-4.80022e-10
1.40542e-08
-4.75664e-10
1.45862e-08
-5.32065e-10
1.52449e-08
-6.58621e-10
1.60762e-08
-8.31363e-10
1.70657e-08
-9.895e-10
1.8153e-08
-1.08731e-09
1.92814e-08
-1.12845e-09
2.04315e-08
-1.15007e-09
2.16197e-08
-1.18831e-09
2.28788e-08
-1.2592e-09
2.42357e-08
-1.35698e-09
2.56996e-08
-1.46407e-09
2.72654e-08
-1.56586e-09
2.89243e-08
-1.65896e-09
3.0672e-08
-1.74779e-09
3.25076e-08
-1.8356e-09
3.44275e-08
-1.91987e-09
3.64222e-08
-1.99465e-09
3.84795e-08
-2.05732e-09
4.05955e-08
-2.11605e-09
4.27829e-08
-2.1875e-09
4.50407e-08
-2.25782e-09
4.73263e-08
-2.28563e-09
4.95898e-08
-2.26354e-09
5.18191e-08
-2.22933e-09
5.40473e-08
-2.22818e-09
5.63172e-08
-2.26983e-09
5.86383e-08
-2.32107e-09
6.0975e-08
-2.33656e-09
6.32712e-08
-2.29611e-09
6.54831e-08
-2.21189e-09
6.75905e-08
-2.10752e-09
6.95902e-08
-1.99976e-09
7.14935e-08
-1.90331e-09
7.33315e-08
-1.83797e-09
7.5149e-08
-1.81744e-09
7.69865e-08
-1.83747e-09
7.88676e-08
-1.88108e-09
8.07913e-08
-1.92359e-09
8.27304e-08
-1.93906e-09
8.46476e-08
-1.91724e-09
8.65211e-08
-1.87346e-09
8.8354e-08
-1.83288e-09
9.01661e-08
-1.81212e-09
9.19808e-08
-1.81476e-09
9.38124e-08
-1.83181e-09
9.56583e-08
-1.84587e-09
9.75005e-08
-1.84228e-09
9.93175e-08
-1.81677e-09
1.01092e-07
-1.77416e-09
1.02811e-07
-1.71919e-09
1.04464e-07
-1.65307e-09
1.0604e-07
-1.5761e-09
1.0753e-07
-1.48993e-09
1.08926e-07
-1.39659e-09
1.10225e-07
-1.29857e-09
1.11423e-07
-1.19837e-09
1.12521e-07
-1.09822e-09
1.13521e-07
-9.99999e-10
1.14427e-07
-9.05511e-10
1.15243e-07
-8.16055e-10
1.15975e-07
-7.32168e-10
1.16629e-07
-6.54029e-10
1.17211e-07
-5.82059e-10
1.17728e-07
-5.16409e-10
1.18184e-07
-4.56823e-10
1.18587e-07
-4.03065e-10
1.18943e-07
-3.54976e-10
1.19255e-07
-3.12121e-10
1.19529e-07
-2.73948e-10
1.19769e-07
-2.40033e-10
1.19979e-07
-2.10065e-10
1.20163e-07
-1.83631e-10
1.20323e-07
-1.60317e-10
1.20463e-07
-1.39961e-10
1.20585e-07
-1.22136e-10
1.20691e-07
-1.06505e-10
1.20784e-07
-9.2577e-11
1.20864e-07
-8.03347e-11
1.20934e-07
-6.96713e-11
1.20994e-07
-6.0415e-11
1.21046e-07
-5.20397e-11
1.21091e-07
-4.50772e-11
1.21131e-07
-3.91438e-11
1.21165e-07
-3.41572e-11
1.21194e-07
-2.96983e-11
1.2122e-07
-2.56729e-11
1.21242e-07
-2.21926e-11
1.21261e-07
-1.91843e-11
1.21278e-07
-1.65684e-11
1.21292e-07
-1.43562e-11
1.21305e-07
-1.24852e-11
1.21316e-07
-1.08629e-11
1.21325e-07
-9.41307e-12
1.21333e-07
-8.04973e-12
1.2134e-07
-6.87179e-12
1.21346e-07
-5.94373e-12
1.21352e-07
-5.21091e-12
1.21356e-07
-4.57677e-12
1.2136e-07
-4.01954e-12
1.21364e-07
-3.51354e-12
1.21367e-07
-3.04864e-12
1.21369e-07
-2.65213e-12
1.21371e-07
-2.28028e-12
1.21373e-07
-1.94802e-12
1.21374e-07
-1.63499e-12
1.21376e-07
-1.37756e-12
1.21377e-07
-1.23509e-12
1.21378e-07
-1.12716e-12
1.21379e-07
-9.39492e-13
1.2138e-07
-6.83256e-13
1.2138e-07
-7.29341e-13
1.21381e-07
-6.79831e-13
1.21381e-07
-7.11616e-13
1.21382e-07
-7.81828e-13
1.21383e-07
-8.41479e-13
1.21383e-07
-7.99144e-13
1.21384e-07
-6.01954e-13
1.21384e-07
-5.55427e-13
1.21385e-07
-5.06525e-13
1.21385e-07
-3.83798e-13
1.21385e-07
-3.62968e-13
1.21385e-07
-3.55814e-13
1.21386e-07
-3.51136e-13
1.21386e-07
-2.73089e-13
1.21386e-07
-1.9575e-13
1.21386e-07
-1.81226e-13
1.21387e-07
-2.0355e-13
1.21387e-07
-2.06073e-13
1.21387e-07
-1.91283e-13
1.21387e-07
-1.67979e-13
1.21387e-07
-1.42445e-13
1.21388e-07
-1.11732e-13
1.21388e-07
-8.17814e-14
1.21388e-07
-6.40751e-14
1.21388e-07
2.87981e-14
1.21388e-07
1.59468e-13
1.21387e-07
2.66582e-13
1.21387e-07
3.29569e-13
1.21387e-07
3.60043e-13
1.21386e-07
3.93561e-13
1.21386e-07
3.65186e-13
1.21386e-07
3.07199e-13
1.21385e-07
2.27701e-13
1.21385e-07
1.64819e-13
1.21385e-07
1.12265e-13
1.21385e-07
7.6285e-14
1.21385e-07
6.62377e-14
1.21384e-07
8.54879e-14
1.21384e-07
1.29798e-13
1.21384e-07
1.9475e-13
1.21384e-07
2.75642e-13
1.21383e-07
3.63606e-13
1.21383e-07
4.60126e-13
1.21382e-07
5.20823e-13
1.21382e-07
5.96106e-13
1.21381e-07
6.95682e-13
1.2138e-07
8.86588e-13
1.21379e-07
1.07939e-12
1.21378e-07
1.27517e-12
1.21377e-07
1.47613e-12
1.21375e-07
1.77856e-12
1.21373e-07
2.15386e-12
1.2137e-07
2.35914e-12
1.21368e-07
2.64323e-12
1.21365e-07
3.01103e-12
1.21361e-07
3.46006e-12
1.21357e-07
4.00908e-12
1.21353e-07
4.67659e-12
1.21347e-07
5.48025e-12
1.21341e-07
6.44368e-12
1.21333e-07
7.62034e-12
1.21324e-07
9.08242e-12
1.21313e-07
1.09221e-11
1.213e-07
1.3258e-11
1.21284e-07
1.6254e-11
1.21264e-07
2.01177e-11
1.21239e-07
2.51784e-11
1.21207e-07
3.17796e-11
1.21166e-07
4.04168e-11
1.21115e-07
5.15629e-11
1.21049e-07
6.57513e-11
1.20965e-07
8.36458e-11
1.2086e-07
1.04723e-10
1.20734e-07
1.26592e-10
1.35388e-10
6.86594e-07
4.98108e-10
6.9883e-07
4.59751e-09
7.08435e-07
9.19019e-09
7.12767e-07
1.22079e-08
7.15609e-07
1.35564e-08
7.18783e-07
1.48605e-08
7.21367e-07
1.66137e-08
7.22483e-07
1.83432e-08
7.22057e-07
1.98143e-08
7.20318e-07
2.1139e-08
7.17349e-07
2.24437e-08
7.13098e-07
2.37494e-08
7.07515e-07
2.50475e-08
7.00578e-07
2.63575e-08
6.9227e-07
2.77172e-08
6.82553e-07
2.91628e-08
6.71367e-07
3.07273e-08
6.5863e-07
3.24462e-08
6.44232e-07
3.43607e-08
6.28029e-07
3.65171e-08
6.09832e-07
3.89676e-08
5.89391e-07
4.1773e-08
5.66374e-07
4.50103e-08
5.40318e-07
4.87844e-08
5.10567e-07
5.3251e-08
4.76138e-07
5.86629e-08
4.35522e-07
6.54478e-08
3.86351e-07
7.44009e-08
3.2518e-07
8.68964e-08
2.47587e-07
1.05838e-07
1.55737e-07
1.3972e-07
5.92257e-08
9.36159e-08
1.56336e-08
4.22203e-08
1.11885e-08
3.63653e-09
1.18952e-08
-1.37056e-09
1.24726e-08
-1.10058e-10
1.15663e-08
1.79798e-09
1.01757e-08
2.21664e-09
9.3796e-09
1.63339e-09
9.61096e-09
4.67395e-10
1.07019e-08
-7.91099e-10
1.21956e-08
-1.6303e-09
1.35813e-08
-1.74035e-09
1.44476e-08
-1.15371e-09
1.48097e-08
-4.76178e-10
1.49213e-08
-1.22168e-10
1.49387e-08
-6.42289e-12
1.49595e-08
-3.84255e-11
1.50634e-08
-1.82058e-10
1.53161e-08
-4.03073e-10
1.57252e-08
-6.24343e-10
1.62524e-08
-7.84505e-10
1.68816e-08
-9.06253e-10
1.76367e-08
-1.03361e-09
1.84363e-08
-1.05997e-09
1.94935e-08
-1.31032e-09
2.07544e-08
-1.46785e-09
2.14321e-08
-8.57307e-10
2.23172e-08
-1.26284e-09
2.39896e-08
-2.32362e-09
2.57177e-08
-2.4736e-09
2.70975e-08
-2.03804e-09
2.83399e-08
-1.7863e-09
2.96122e-08
-1.75239e-09
3.10063e-08
-1.86975e-09
3.25546e-08
-2.08037e-09
3.43965e-08
-2.50053e-09
3.66456e-08
-3.08053e-09
3.92487e-08
-3.59259e-09
4.20596e-08
-3.89813e-09
4.4986e-08
-4.05475e-09
4.80357e-08
-4.19958e-09
5.12715e-08
-4.42402e-09
5.47657e-08
-4.75317e-09
5.85627e-08
-5.15381e-09
6.2663e-08
-5.56424e-09
6.70413e-08
-5.94401e-09
7.16774e-08
-6.29495e-09
7.65694e-08
-6.6398e-09
8.17227e-08
-6.98882e-09
8.71292e-08
-7.32641e-09
9.27583e-08
-7.62373e-09
9.8565e-08
-7.86393e-09
1.04507e-07
-8.05785e-09
1.10615e-07
-8.2955e-09
1.16939e-07
-8.58201e-09
1.23411e-07
-8.75729e-09
1.29899e-07
-8.75147e-09
1.3635e-07
-8.6807e-09
1.42835e-07
-8.71346e-09
1.49463e-07
-8.89769e-09
1.5626e-07
-9.1178e-09
1.63136e-07
-9.21287e-09
1.6996e-07
-9.12e-09
1.7664e-07
-8.89207e-09
1.83135e-07
-8.60249e-09
1.89417e-07
-8.28129e-09
1.9546e-07
-7.9464e-09
2.01278e-07
-7.65612e-09
2.06941e-07
-7.48004e-09
2.12526e-07
-7.42288e-09
2.18083e-07
-7.43732e-09
2.2361e-07
-7.45133e-09
2.29043e-07
-7.37225e-09
2.34284e-07
-7.15755e-09
2.39276e-07
-6.86567e-09
2.44037e-07
-6.59433e-09
2.48627e-07
-6.40156e-09
2.53111e-07
-6.29907e-09
2.57538e-07
-6.25915e-09
2.61912e-07
-6.21949e-09
2.66192e-07
-6.12235e-09
2.70333e-07
-5.95757e-09
2.74308e-07
-5.74876e-09
2.78102e-07
-5.51395e-09
2.81704e-07
-5.25468e-09
2.85097e-07
-4.96909e-09
2.88268e-07
-4.66076e-09
2.91209e-07
-4.33715e-09
2.93916e-07
-4.00587e-09
2.96392e-07
-3.67417e-09
2.98642e-07
-3.34844e-09
3.00676e-07
-3.03396e-09
3.02506e-07
-2.73485e-09
3.04143e-07
-2.45393e-09
3.05604e-07
-2.19279e-09
3.06902e-07
-1.95217e-09
3.08052e-07
-1.73221e-09
3.09068e-07
-1.53259e-09
3.09964e-07
-1.35253e-09
3.10751e-07
-1.19086e-09
3.11443e-07
-1.0464e-09
3.12049e-07
-9.17929e-10
3.12579e-07
-8.04045e-10
3.13042e-07
-7.03361e-10
3.13446e-07
-6.14569e-10
3.13799e-07
-5.36448e-10
3.14107e-07
-4.67843e-10
3.14375e-07
-4.07692e-10
3.14607e-07
-3.54976e-10
3.1481e-07
-3.08823e-10
3.14986e-07
-2.68514e-10
3.15139e-07
-2.33291e-10
3.15272e-07
-2.02502e-10
3.15387e-07
-1.75427e-10
3.15487e-07
-1.51947e-10
3.15573e-07
-1.31587e-10
3.15648e-07
-1.14044e-10
3.15713e-07
-9.88987e-11
3.15769e-07
-8.58334e-11
3.15818e-07
-7.44842e-11
3.1586e-07
-6.46217e-11
3.15897e-07
-5.59067e-11
3.15928e-07
-4.84406e-11
3.15956e-07
-4.20352e-11
3.1598e-07
-3.64836e-11
3.16001e-07
-3.16912e-11
3.16019e-07
-2.74591e-11
3.16035e-07
-2.36284e-11
3.16048e-07
-2.0279e-11
3.16059e-07
-1.76129e-11
3.16069e-07
-1.53626e-11
3.16078e-07
-1.33936e-11
3.16086e-07
-1.15479e-11
3.16093e-07
-1.01188e-11
3.16099e-07
-8.80965e-12
3.16104e-07
-7.64776e-12
3.16109e-07
-6.74948e-12
3.16113e-07
-5.7796e-12
3.16116e-07
-4.95366e-12
3.16119e-07
-4.26783e-12
3.16122e-07
-3.77023e-12
3.16124e-07
-3.28274e-12
3.16126e-07
-2.7371e-12
3.16128e-07
-2.4411e-12
3.16129e-07
-2.06505e-12
3.1613e-07
-1.82949e-12
3.16131e-07
-1.658e-12
3.16132e-07
-1.71486e-12
3.16133e-07
-1.68336e-12
3.16134e-07
-1.52034e-12
3.16135e-07
-1.21872e-12
3.16136e-07
-9.94483e-13
3.16136e-07
-7.41666e-13
3.16137e-07
-5.18851e-13
3.16137e-07
-5.00939e-13
3.16138e-07
-5.46587e-13
3.16138e-07
-4.95054e-13
3.16138e-07
-4.20613e-13
3.16138e-07
-3.63569e-13
3.16138e-07
-3.48515e-13
3.16138e-07
-3.31122e-13
3.16139e-07
-2.92003e-13
3.16139e-07
-2.86647e-13
3.16139e-07
-2.5e-13
3.16139e-07
-2.19491e-13
3.16139e-07
-2.02671e-13
3.16139e-07
-1.71836e-13
3.16139e-07
-6.87884e-14
3.16139e-07
6.99879e-14
3.16139e-07
2.50619e-13
3.16139e-07
4.1574e-13
3.16138e-07
5.39081e-13
3.16138e-07
6.22899e-13
3.16138e-07
6.74267e-13
3.16137e-07
6.83938e-13
3.16137e-07
6.46457e-13
3.16136e-07
6.20398e-13
3.16136e-07
6.00504e-13
3.16135e-07
5.79133e-13
3.16135e-07
5.70389e-13
3.16134e-07
6.03663e-13
3.16134e-07
6.82721e-13
3.16133e-07
8.08988e-13
3.16132e-07
9.71408e-13
3.16132e-07
1.1584e-12
3.16131e-07
1.37397e-12
3.16129e-07
1.61605e-12
3.16128e-07
1.8568e-12
3.16126e-07
2.17129e-12
3.16125e-07
2.56502e-12
3.16123e-07
3.0374e-12
3.1612e-07
3.58457e-12
3.16117e-07
4.19858e-12
3.16114e-07
4.89255e-12
3.1611e-07
5.68102e-12
3.16106e-07
6.51713e-12
3.16101e-07
7.49782e-12
3.16095e-07
8.58354e-12
3.16088e-07
9.84522e-12
3.1608e-07
1.13398e-11
3.16071e-07
1.3139e-11
3.1606e-07
1.53267e-11
3.16048e-07
1.78813e-11
3.16034e-07
2.093e-11
3.16017e-07
2.45943e-11
3.15997e-07
2.90625e-11
3.15973e-07
3.45064e-11
3.15945e-07
4.11895e-11
3.15912e-07
4.9441e-11
3.15873e-07
5.9684e-11
3.15825e-07
7.2389e-11
3.15769e-07
8.81949e-11
3.15701e-07
1.07743e-10
3.15621e-07
1.31635e-10
3.15527e-07
1.60201e-10
3.15417e-07
1.93333e-10
3.15293e-07
2.28425e-10
3.15161e-07
2.58515e-10
2.68765e-10
6.83927e-07
9.80183e-10
6.84337e-07
4.18705e-09
6.86713e-07
6.81226e-09
6.90278e-07
8.64001e-09
6.93741e-07
1.00904e-08
6.97021e-07
1.1578e-08
7.00434e-07
1.31978e-08
7.03958e-07
1.48177e-08
7.07416e-07
1.63552e-08
7.10699e-07
1.78556e-08
7.1375e-07
1.93935e-08
7.16497e-07
2.10035e-08
7.1885e-07
2.26961e-08
7.20719e-07
2.44908e-08
7.22016e-07
2.64213e-08
7.22652e-07
2.85271e-08
7.2253e-07
3.08497e-08
7.2154e-07
3.34352e-08
7.19562e-07
3.63377e-08
7.16457e-07
3.96207e-08
7.12064e-07
4.33594e-08
7.06193e-07
4.76435e-08
6.98621e-07
5.25817e-08
6.891e-07
5.83064e-08
6.77373e-07
6.49799e-08
6.63239e-07
7.27984e-08
6.46698e-07
8.19913e-08
6.28339e-07
9.27629e-08
6.09942e-07
1.05297e-07
5.96935e-07
1.18848e-07
6.01843e-07
1.34814e-07
5.48735e-07
1.46724e-07
4.41073e-07
1.49883e-07
3.22557e-07
1.22152e-07
2.02799e-07
1.18386e-07
1.02845e-07
9.98429e-08
3.64892e-08
6.81522e-08
8.29735e-09
3.04077e-08
4.39462e-09
5.5354e-09
9.37509e-09
-4.51361e-09
1.25503e-08
-3.96663e-09
1.34014e-08
-2.48166e-09
1.34585e-08
-1.79747e-09
1.37197e-08
-1.415e-09
1.42789e-08
-1.03526e-09
1.48218e-08
-6.64987e-10
1.51749e-08
-3.59486e-10
1.53853e-08
-2.4875e-10
1.55789e-08
-3.75727e-10
1.58075e-08
-6.31921e-10
1.6113e-08
-9.30012e-10
1.65211e-08
-1.19274e-09
1.70703e-08
-1.45561e-09
1.78038e-08
-1.76715e-09
1.86745e-08
-1.93068e-09
1.97918e-08
-2.42766e-09
2.22518e-08
-3.92781e-09
2.5578e-08
-4.18359e-09
2.72569e-08
-2.94175e-09
2.81309e-08
-3.19761e-09
2.89759e-08
-3.31867e-09
2.99887e-08
-3.05084e-09
3.14941e-08
-3.2917e-09
3.34608e-08
-3.71903e-09
3.58255e-08
-4.2344e-09
3.84999e-08
-4.75469e-09
4.14953e-08
-5.49584e-09
4.4795e-08
-6.38022e-09
4.83184e-08
-7.1161e-09
5.20393e-08
-7.61909e-09
5.603e-08
-8.04558e-09
6.0401e-08
-8.57075e-09
6.52196e-08
-9.24274e-09
7.05029e-08
-1.00366e-08
7.62304e-08
-1.08814e-08
8.23552e-08
-1.1689e-08
8.88342e-08
-1.24231e-08
9.56513e-08
-1.31121e-08
1.02816e-07
-1.38042e-08
1.1035e-07
-1.45237e-08
1.1828e-07
-1.52565e-08
1.26632e-07
-1.59757e-08
1.35453e-07
-1.66845e-08
1.44748e-07
-1.73537e-08
1.54206e-07
-1.77526e-08
1.63626e-07
-1.80027e-08
1.73308e-07
-1.84392e-08
1.83249e-07
-1.8692e-08
1.93301e-07
-1.87335e-08
2.03463e-07
-1.88753e-08
2.13893e-07
-1.93274e-08
2.247e-07
-1.99242e-08
2.35773e-07
-2.02862e-08
2.46928e-07
-2.02748e-08
2.581e-07
-2.00646e-08
2.6929e-07
-1.97926e-08
2.804e-07
-1.93907e-08
2.9124e-07
-1.87871e-08
3.01673e-07
-1.80895e-08
3.11715e-07
-1.75212e-08
3.21416e-07
-1.71245e-08
3.30901e-07
-1.69225e-08
3.40304e-07
-1.68537e-08
3.49514e-07
-1.65822e-08
3.58256e-07
-1.58997e-08
3.66362e-07
-1.49721e-08
3.73866e-07
-1.40979e-08
3.80886e-07
-1.34214e-08
3.87568e-07
-1.29811e-08
3.94058e-07
-1.27492e-08
4.00391e-07
-1.25529e-08
4.06474e-07
-1.22057e-08
4.12218e-07
-1.17008e-08
4.17615e-07
-1.11459e-08
4.22701e-07
-1.05996e-08
4.27486e-07
-1.00403e-08
4.3196e-07
-9.44227e-09
4.36105e-07
-8.8065e-09
4.39917e-07
-8.14905e-09
4.43396e-07
-7.48543e-09
4.46551e-07
-6.82866e-09
4.49393e-07
-6.19062e-09
4.5194e-07
-5.58101e-09
4.54212e-07
-5.00683e-09
4.56231e-07
-4.47245e-09
4.58018e-07
-3.98004e-09
4.59596e-07
-3.53009e-09
4.60986e-07
-3.12186e-09
4.62207e-07
-2.75367e-09
4.63278e-07
-2.42333e-09
4.64216e-07
-2.12838e-09
4.65036e-07
-1.86604e-09
4.65751e-07
-1.63355e-09
4.66375e-07
-1.42808e-09
4.66919e-07
-1.24697e-09
4.67392e-07
-1.08771e-09
4.67804e-07
-9.47979e-10
4.68162e-07
-8.25597e-10
4.68473e-07
-7.18573e-10
4.68742e-07
-6.25047e-10
4.68977e-07
-5.43339e-10
4.6918e-07
-4.71987e-10
4.69357e-07
-4.09778e-10
4.6951e-07
-3.55585e-10
4.69643e-07
-3.08336e-10
4.69758e-07
-2.67243e-10
4.69858e-07
-2.31595e-10
4.69945e-07
-2.00722e-10
4.7002e-07
-1.74002e-10
4.70085e-07
-1.50675e-10
4.70141e-07
-1.30513e-10
4.70189e-07
-1.13134e-10
4.70232e-07
-9.80989e-11
4.70268e-07
-8.50521e-11
4.703e-07
-7.37531e-11
4.70327e-07
-6.39581e-11
4.70351e-07
-5.54692e-11
4.70372e-07
-4.81676e-11
4.7039e-07
-4.1803e-11
4.70406e-07
-3.62049e-11
4.7042e-07
-3.13683e-11
4.70432e-07
-2.72922e-11
4.70442e-07
-2.38236e-11
4.70452e-07
-2.09015e-11
4.70459e-07
-1.81524e-11
4.70466e-07
-1.573e-11
4.70472e-07
-1.37182e-11
4.70477e-07
-1.19808e-11
4.70482e-07
-1.05481e-11
4.70486e-07
-9.25655e-12
4.7049e-07
-8.11305e-12
4.70493e-07
-7.06028e-12
4.70496e-07
-6.0708e-12
4.70498e-07
-5.16328e-12
4.705e-07
-4.53011e-12
4.70502e-07
-4.08264e-12
4.70504e-07
-3.79101e-12
4.70505e-07
-3.49088e-12
4.70507e-07
-3.15951e-12
4.70507e-07
-2.82857e-12
4.70508e-07
-2.43952e-12
4.70509e-07
-1.98447e-12
4.70509e-07
-1.62016e-12
4.7051e-07
-1.23902e-12
4.7051e-07
-8.88251e-13
4.7051e-07
-7.52864e-13
4.7051e-07
-6.60804e-13
4.7051e-07
-5.6932e-13
4.7051e-07
-4.66488e-13
4.7051e-07
-4.07449e-13
4.70511e-07
-3.93202e-13
4.70511e-07
-3.5191e-13
4.70511e-07
-3.04834e-13
4.70511e-07
-2.42451e-13
4.70511e-07
-1.73542e-13
4.70511e-07
-8.89138e-14
4.70511e-07
-5.99452e-14
4.7051e-07
-1.56232e-14
4.7051e-07
8.52778e-14
4.7051e-07
2.50841e-13
4.7051e-07
4.76881e-13
4.7051e-07
6.53458e-13
4.7051e-07
7.77318e-13
4.70509e-07
8.7429e-13
4.70509e-07
9.15661e-13
4.70509e-07
9.21189e-13
4.70508e-07
9.46822e-13
4.70508e-07
9.9671e-13
4.70507e-07
1.06113e-12
4.70506e-07
1.10089e-12
4.70506e-07
1.14973e-12
4.70505e-07
1.2647e-12
4.70504e-07
1.43888e-12
4.70504e-07
1.66872e-12
4.70503e-07
1.95743e-12
4.70501e-07
2.29962e-12
4.705e-07
2.69558e-12
4.70498e-07
3.14567e-12
4.70497e-07
3.65922e-12
4.70495e-07
4.25347e-12
4.70492e-07
4.96192e-12
4.7049e-07
5.78528e-12
4.70487e-07
6.73489e-12
4.70483e-07
7.81799e-12
4.70479e-07
9.04705e-12
4.70474e-07
1.04379e-11
4.70469e-07
1.20024e-11
4.70463e-07
1.37943e-11
4.70455e-07
1.58557e-11
4.70447e-07
1.82608e-11
4.70437e-07
2.1085e-11
4.70426e-07
2.4402e-11
4.70413e-07
2.82974e-11
4.70398e-07
3.29159e-11
4.70381e-07
3.83649e-11
4.7036e-07
4.48365e-11
4.70337e-07
5.25118e-11
4.7031e-07
6.16937e-11
4.70278e-07
7.27029e-11
4.70242e-07
8.5918e-11
4.702e-07
1.01794e-10
4.70151e-07
1.2085e-10
4.70096e-07
1.43632e-10
4.70033e-07
1.70646e-10
4.69962e-07
2.02193e-10
4.69884e-07
2.38081e-10
4.698e-07
2.77319e-10
4.69712e-07
3.16325e-10
4.69623e-07
3.47703e-10
3.57146e-10
6.89215e-07
6.35576e-10
6.90177e-07
3.22352e-09
6.91366e-07
5.62153e-09
6.92569e-07
7.43459e-09
6.93702e-07
8.95575e-09
6.94832e-07
1.04461e-08
6.9607e-07
1.19579e-08
6.97433e-07
1.34536e-08
6.98871e-07
1.49172e-08
7.00353e-07
1.63749e-08
7.01882e-07
1.78659e-08
7.03467e-07
1.94198e-08
7.05106e-07
2.10587e-08
7.0679e-07
2.2808e-08
7.08512e-07
2.47007e-08
7.10264e-07
2.67747e-08
7.12043e-07
2.90705e-08
7.13844e-07
3.16329e-08
7.15668e-07
3.45125e-08
7.17519e-07
3.77675e-08
7.19413e-07
4.14639e-08
7.2138e-07
4.56755e-08
7.23478e-07
5.04836e-08
7.25811e-07
5.59743e-08
7.28558e-07
6.22336e-08
7.32022e-07
6.9335e-08
7.36687e-07
7.73276e-08
7.43258e-07
8.61943e-08
7.52669e-07
9.58873e-08
7.65311e-07
1.06208e-07
7.83555e-07
1.1657e-07
8.01289e-07
1.28991e-07
8.16788e-07
1.34383e-07
8.08985e-07
1.29954e-07
8.01985e-07
1.25384e-07
7.79314e-07
1.22512e-07
7.3184e-07
1.15624e-07
6.67841e-07
9.44045e-08
6.11684e-07
6.16905e-08
5.70942e-07
3.62264e-08
5.43347e-07
2.36261e-08
5.2287e-07
1.7994e-08
5.06237e-07
1.48361e-08
4.92372e-07
1.24504e-08
4.80614e-07
1.07235e-08
4.70302e-07
9.64908e-09
4.60656e-07
9.28739e-09
4.50969e-07
9.43803e-09
4.40585e-07
1.00069e-08
4.28803e-07
1.11492e-08
4.14746e-07
1.3125e-08
3.97367e-07
1.61863e-08
3.75224e-07
2.06867e-08
3.46056e-07
2.74016e-08
3.06446e-07
3.76817e-08
2.52623e-07
5.13965e-08
1.78716e-07
6.99805e-08
1.07087e-07
6.74456e-08
5.36776e-08
5.04666e-08
2.89624e-08
2.1517e-08
2.28489e-08
2.79418e-09
2.60597e-08
-6.26221e-09
3.08439e-08
-8.07621e-09
3.50323e-08
-7.90736e-09
3.85621e-08
-7.76393e-09
4.18651e-08
-8.05727e-09
4.51364e-08
-8.76695e-09
4.82207e-08
-9.46439e-09
5.11174e-08
-1.00128e-08
5.42564e-08
-1.0758e-08
5.8142e-08
-1.1931e-08
6.28291e-08
-1.32575e-08
6.81005e-08
-1.45137e-08
7.36981e-08
-1.56336e-08
7.95008e-08
-1.66837e-08
8.55198e-08
-1.7708e-08
9.18787e-08
-1.87822e-08
9.86392e-08
-1.98729e-08
1.05734e-07
-2.08999e-08
1.13131e-07
-2.19204e-08
1.20852e-07
-2.29775e-08
1.29074e-07
-2.41976e-08
1.38215e-07
-2.58249e-08
1.49527e-07
-2.86651e-08
1.644e-07
-3.26255e-08
1.77078e-07
-3.06807e-08
1.87667e-07
-2.90283e-08
1.99688e-07
-3.07131e-08
2.1408e-07
-3.3126e-08
2.29734e-07
-3.45295e-08
2.45296e-07
-3.48893e-08
2.60373e-07
-3.50012e-08
2.75256e-07
-3.51691e-08
2.90257e-07
-3.52758e-08
3.05563e-07
-3.53713e-08
3.2129e-07
-3.55194e-08
3.37457e-07
-3.55568e-08
3.54096e-07
-3.54261e-08
3.71305e-07
-3.52981e-08
3.88516e-07
-3.47324e-08
4.03626e-07
-3.22349e-08
4.16713e-07
-3.00091e-08
4.29476e-07
-2.96167e-08
4.42244e-07
-2.93503e-08
4.54472e-07
-2.81282e-08
4.65809e-07
-2.63091e-08
4.76336e-07
-2.46255e-08
4.85984e-07
-2.30686e-08
4.94871e-07
-2.18678e-08
5.03445e-07
-2.13231e-08
5.11861e-07
-2.09687e-08
5.19794e-07
-2.01388e-08
5.26968e-07
-1.88754e-08
5.33467e-07
-1.76451e-08
5.39485e-07
-1.66175e-08
5.45093e-07
-1.56481e-08
5.5027e-07
-1.4619e-08
5.55006e-07
-1.35428e-08
5.59313e-07
-1.24551e-08
5.63202e-07
-1.13749e-08
5.6669e-07
-1.03164e-08
5.69797e-07
-9.29769e-09
5.7255e-07
-8.33362e-09
5.74977e-07
-7.43447e-09
5.77111e-07
-6.60582e-09
5.7898e-07
-5.84946e-09
5.80614e-07
-5.16449e-09
5.82041e-07
-4.54816e-09
5.83284e-07
-3.99662e-09
5.84366e-07
-3.50525e-09
5.85306e-07
-3.06914e-09
5.86124e-07
-2.68338e-09
5.86833e-07
-2.34312e-09
5.87449e-07
-2.04376e-09
5.87983e-07
-1.78097e-09
5.88446e-07
-1.55069e-09
5.88847e-07
-1.34918e-09
5.89195e-07
-1.17312e-09
5.89496e-07
-1.01954e-09
5.89757e-07
-8.8571e-10
5.89982e-07
-7.69121e-10
5.90178e-07
-6.67603e-10
5.90348e-07
-5.79249e-10
5.90494e-07
-5.02398e-10
5.90621e-07
-4.35569e-10
5.90732e-07
-3.77505e-10
5.90827e-07
-3.27108e-10
5.9091e-07
-2.83407e-10
5.90981e-07
-2.45521e-10
5.91043e-07
-2.12677e-10
5.91097e-07
-1.84243e-10
5.91143e-07
-1.59664e-10
5.91184e-07
-1.38405e-10
5.91219e-07
-1.20012e-10
5.91249e-07
-1.04099e-10
5.91275e-07
-9.03304e-11
5.91298e-07
-7.84248e-11
5.91318e-07
-6.8113e-11
5.91336e-07
-5.91327e-11
5.91351e-07
-5.12955e-11
5.91364e-07
-4.44862e-11
5.91375e-07
-3.86069e-11
5.91385e-07
-3.36019e-11
5.91394e-07
-2.92773e-11
5.91401e-07
-2.54435e-11
5.91407e-07
-2.21132e-11
5.91413e-07
-1.9287e-11
5.91418e-07
-1.69262e-11
5.91422e-07
-1.4857e-11
5.91426e-07
-1.30406e-11
5.91429e-07
-1.1439e-11
5.91432e-07
-1.00025e-11
5.91435e-07
-8.67732e-12
5.91437e-07
-7.54884e-12
5.91439e-07
-6.58678e-12
5.91441e-07
-5.86441e-12
5.91443e-07
-5.22883e-12
5.91444e-07
-4.66486e-12
5.91445e-07
-4.13649e-12
5.91446e-07
-3.61148e-12
5.91447e-07
-3.06291e-12
5.91447e-07
-2.52319e-12
5.91448e-07
-2.0632e-12
5.91448e-07
-1.67871e-12
5.91449e-07
-1.37626e-12
5.91449e-07
-1.11935e-12
5.91449e-07
-9.4369e-13
5.9145e-07
-8.09036e-13
5.9145e-07
-6.981e-13
5.9145e-07
-6.06398e-13
5.9145e-07
-5.346e-13
5.9145e-07
-4.48226e-13
5.9145e-07
-3.67167e-13
5.9145e-07
-2.72689e-13
5.9145e-07
-1.64162e-13
5.9145e-07
-5.57144e-14
5.9145e-07
-1.37588e-14
5.9145e-07
3.41823e-14
5.9145e-07
1.73943e-13
5.9145e-07
3.36038e-13
5.9145e-07
5.77078e-13
5.9145e-07
8.05561e-13
5.9145e-07
9.664e-13
5.9145e-07
1.07163e-12
5.91449e-07
1.15096e-12
5.91449e-07
1.20986e-12
5.91448e-07
1.30132e-12
5.91448e-07
1.44484e-12
5.91447e-07
1.606e-12
5.91447e-07
1.7534e-12
5.91446e-07
1.8433e-12
5.91445e-07
2.05696e-12
5.91444e-07
2.31544e-12
5.91444e-07
2.62914e-12
5.91443e-07
3.0307e-12
5.91441e-07
3.51901e-12
5.9144e-07
4.09377e-12
5.91438e-07
4.75891e-12
5.91436e-07
5.51543e-12
5.91434e-07
6.37348e-12
5.91432e-07
7.35881e-12
5.91429e-07
8.50598e-12
5.91426e-07
9.83335e-12
5.91423e-07
1.1356e-11
5.91419e-07
1.30948e-11
5.91414e-07
1.50775e-11
5.91409e-07
1.73418e-11
5.91403e-07
1.994e-11
5.91396e-07
2.29434e-11
5.91387e-07
2.64255e-11
5.91378e-07
3.04703e-11
5.91367e-07
3.51765e-11
5.91355e-07
4.06577e-11
5.91341e-07
4.70659e-11
5.91325e-07
5.45567e-11
5.91306e-07
6.331e-11
5.91285e-07
7.35756e-11
5.91261e-07
8.56281e-11
5.91234e-07
9.9789e-11
5.91204e-07
1.16419e-10
5.91169e-07
1.35921e-10
5.91132e-07
1.58715e-10
5.9109e-07
1.85196e-10
5.91045e-07
2.15649e-10
5.90997e-07
2.50091e-10
5.90947e-07
2.88e-10
5.90896e-07
3.28029e-10
5.90846e-07
3.66695e-10
5.90796e-07
3.97335e-10
4.08007e-10
6.92479e-07
5.84053e-10
6.92811e-07
2.89058e-09
6.93449e-07
4.98319e-09
6.94344e-07
6.53714e-09
6.95415e-07
7.88412e-09
6.96592e-07
9.2679e-09
6.97843e-07
1.07069e-08
6.99146e-07
1.21506e-08
7.0048e-07
1.35839e-08
7.01828e-07
1.50284e-08
7.03183e-07
1.65125e-08
7.04548e-07
1.8057e-08
7.05929e-07
1.96797e-08
7.07337e-07
2.14008e-08
7.08793e-07
2.3245e-08
7.10328e-07
2.52397e-08
7.11983e-07
2.74142e-08
7.13814e-07
2.98003e-08
7.15893e-07
3.24323e-08
7.18311e-07
3.53475e-08
7.21188e-07
3.85849e-08
7.24678e-07
4.2185e-08
7.28973e-07
4.61874e-08
7.3432e-07
5.06278e-08
7.41019e-07
5.55337e-08
7.49439e-07
6.09155e-08
7.60011e-07
6.67566e-08
7.73212e-07
7.29942e-08
7.89615e-07
7.94849e-08
8.09825e-07
8.59984e-08
8.34542e-07
9.18523e-08
8.66862e-07
9.66705e-08
9.01206e-07
1.00038e-07
9.29535e-07
1.01624e-07
9.53427e-07
1.0149e-07
9.75241e-07
1.00695e-07
9.94503e-07
9.63585e-08
1.00377e-06
8.51305e-08
9.9574e-07
6.97208e-08
9.75824e-07
5.61404e-08
9.52963e-07
4.64857e-08
9.31318e-07
3.96384e-08
9.11911e-07
3.42441e-08
8.94558e-07
2.98043e-08
8.7894e-07
2.63425e-08
8.64703e-07
2.38858e-08
8.51613e-07
2.23761e-08
8.39345e-07
2.17031e-08
8.27545e-07
2.18028e-08
8.15968e-07
2.27217e-08
8.04538e-07
2.4552e-08
7.93336e-07
2.7386e-08
7.82726e-07
3.1295e-08
7.73776e-07
3.63501e-08
7.68897e-07
4.25594e-08
7.71291e-07
4.90015e-08
7.86782e-07
5.44877e-08
7.94919e-07
5.9306e-08
7.84277e-07
6.11078e-08
7.54518e-07
5.12732e-08
7.28084e-07
2.9227e-08
7.1023e-07
1.15911e-08
7.00748e-07
1.40665e-09
6.9601e-07
-3.16804e-09
6.94421e-07
-6.17489e-09
6.94599e-07
-8.23533e-09
6.9621e-07
-1.03807e-08
6.99121e-07
-1.23791e-08
7.0271e-07
-1.36048e-08
7.06435e-07
-1.44859e-08
7.10008e-07
-1.55053e-08
7.13076e-07
-1.63253e-08
7.15428e-07
-1.68637e-08
7.16774e-07
-1.69784e-08
7.1648e-07
-1.6389e-08
7.13968e-07
-1.51962e-08
7.08623e-07
-1.34398e-08
6.99649e-07
-1.09015e-08
6.86235e-07
-7.48704e-09
6.6652e-07
-2.20726e-09
6.38473e-07
5.06906e-09
5.98416e-07
1.58601e-08
5.45528e-07
2.70642e-08
4.75228e-07
4.16358e-08
3.81788e-07
6.08126e-08
2.88958e-07
6.21451e-08
2.28267e-07
3.16623e-08
2.07223e-07
-9.66915e-09
2.14471e-07
-4.0374e-08
2.33149e-07
-5.32062e-08
2.5142e-07
-5.31609e-08
2.65991e-07
-4.95724e-08
2.78832e-07
-4.80105e-08
2.92099e-07
-4.85434e-08
3.06197e-07
-4.947e-08
3.20842e-07
-5.01648e-08
3.36505e-07
-5.1221e-08
3.54422e-07
-5.33437e-08
3.7834e-07
-5.92177e-08
4.12735e-07
-6.91277e-08
4.45109e-07
-6.46093e-08
4.69261e-07
-5.41606e-08
4.87934e-07
-4.82903e-08
5.04718e-07
-4.61339e-08
5.21519e-07
-4.49296e-08
5.38693e-07
-4.34823e-08
5.56453e-07
-4.23857e-08
5.71427e-07
-3.80426e-08
5.82489e-07
-3.29296e-08
5.92414e-07
-3.12477e-08
6.02391e-07
-3.0946e-08
6.11568e-07
-2.93155e-08
6.19336e-07
-2.66437e-08
6.26282e-07
-2.45913e-08
6.32897e-07
-2.32329e-08
6.39147e-07
-2.18978e-08
6.44828e-07
-2.02996e-08
6.49902e-07
-1.86169e-08
6.54431e-07
-1.69843e-08
6.58461e-07
-1.54048e-08
6.6202e-07
-1.38755e-08
6.65141e-07
-1.24178e-08
6.6786e-07
-1.10533e-08
6.7022e-07
-9.79462e-09
6.72262e-07
-8.64755e-09
6.74025e-07
-7.61206e-09
6.75544e-07
-6.68399e-09
6.76853e-07
-5.85698e-09
6.7798e-07
-5.12342e-09
6.7895e-07
-4.47514e-09
6.79785e-07
-3.90395e-09
6.80504e-07
-3.40201e-09
6.81122e-07
-2.96192e-09
6.81655e-07
-2.57669e-09
6.82114e-07
-2.24005e-09
6.8251e-07
-1.94627e-09
6.82851e-07
-1.69018e-09
6.83145e-07
-1.46717e-09
6.83398e-07
-1.27316e-09
6.83617e-07
-1.10447e-09
6.83806e-07
-9.57927e-10
6.83969e-07
-8.30627e-10
6.8411e-07
-7.20124e-10
6.84232e-07
-6.24208e-10
6.84337e-07
-5.4093e-10
6.84428e-07
-4.68631e-10
6.84507e-07
-4.0594e-10
6.84575e-07
-3.51636e-10
6.84634e-07
-3.04616e-10
6.84685e-07
-2.63906e-10
6.8473e-07
-2.28667e-10
6.84768e-07
-1.98159e-10
6.84801e-07
-1.71758e-10
6.8483e-07
-1.48917e-10
6.84856e-07
-1.29161e-10
6.84877e-07
-1.12075e-10
6.84896e-07
-9.72949e-11
6.84913e-07
-8.44995e-11
6.84927e-07
-7.34064e-11
6.84939e-07
-6.37869e-11
6.8495e-07
-5.54365e-11
6.8496e-07
-4.81837e-11
6.84968e-07
-4.18965e-11
6.84975e-07
-3.64503e-11
6.84981e-07
-3.17113e-11
6.84987e-07
-2.75913e-11
6.84992e-07
-2.40585e-11
6.84996e-07
-2.1043e-11
6.84999e-07
-1.84455e-11
6.85002e-07
-1.61754e-11
6.85005e-07
-1.41888e-11
6.85007e-07
-1.244e-11
6.85009e-07
-1.09208e-11
6.85012e-07
-9.59353e-12
6.85013e-07
-8.44788e-12
6.85015e-07
-7.42244e-12
6.85016e-07
-6.51329e-12
6.85017e-07
-5.73033e-12
6.85018e-07
-5.02585e-12
6.85019e-07
-4.36704e-12
6.85019e-07
-3.75206e-12
6.8502e-07
-3.16546e-12
6.8502e-07
-2.62325e-12
6.85021e-07
-2.16442e-12
6.85021e-07
-1.82305e-12
6.85022e-07
-1.56328e-12
6.85022e-07
-1.34147e-12
6.85022e-07
-1.15549e-12
6.85023e-07
-9.87793e-13
6.85023e-07
-8.36913e-13
6.85023e-07
-6.92875e-13
6.85023e-07
-5.82684e-13
6.85024e-07
-4.64762e-13
6.85024e-07
-3.50489e-13
6.85024e-07