/*--------------------------------*- C++ -*----------------------------------*\
| =========                 |                                                 |
| \\      /  F ield         | OpenFOAM: The Open Source CFD Toolbox           |
|  \\    /   O peration     | Version:  2406                                  |
|   \\  /    A nd           | Website:  www.openfoam.com                      |
|    \\/     M anipulation  |                                                 |
\*---------------------------------------------------------------------------*/
FoamFile
{
    version     2.0;
    format      ascii;
    arch        "LSB;label=32;scalar=64";
    class       volVectorField;
    location    "0.1";
    object      U;
}
// * * * * * * * * * * * * * * * * * * * * * * * * * * * * * * * * * * * * * //

dimensions      [0 1 -1 0 0 0 0];

internalField   nonuniform List<vector> 
6250
(
(0.79965 0.00806115 0)
(1.13435 0.0308345 0)
(0.851607 0.0392716 0)
(0.686047 0.0381305 0)
(0.697537 0.0365819 0)
(0.725513 0.0374216 0)
(0.70917 0.0386213 0)
(0.673343 0.038523 0)
(0.643289 0.037349 0)
(0.620371 0.0358821 0)
(0.598081 0.0344356 0)
(0.573998 0.0329442 0)
(0.54918 0.0313584 0)
(0.524654 0.0297499 0)
(0.500451 0.0282176 0)
(0.476264 0.026823 0)
(0.45193 0.0255975 0)
(0.427407 0.024564 0)
(0.402635 0.0237411 0)
(0.377498 0.0231362 0)
(0.351859 0.0227396 0)
(0.32558 0.02252 0)
(0.298533 0.0224144 0)
(0.270608 0.022309 0)
(0.241727 0.0220029 0)
(0.211888 0.0211431 0)
(0.181138 0.0191193 0)
(0.14995 0.0149517 0)
(0.11624 0.00850686 0)
(0.110977 0.0020534 0)
(0.00609172 0.0371544 0)
(0.0108794 0.0133751 0)
(0.0114671 0.00503233 0)
(0.0123582 0.00221661 0)
(0.0133405 0.00122464 0)
(0.013596 0.000769338 0)
(0.0128319 0.000429188 0)
(0.0116501 0.000322983 0)
(0.0105173 0.000428027 0)
(0.00955116 0.000493393 0)
(0.00894006 0.000343954 0)
(0.00885559 6.12377e-05 0)
(0.00919197 -0.000135975 0)
(0.00962321 -0.00013372 0)
(0.00988999 -3.92649e-05 0)
(0.00996312 1.86342e-05 0)
(0.00994622 1.99329e-05 0)
(0.00993641 -1.21245e-05 0)
(0.00998912 -6.23628e-05 0)
(0.0101305 -0.000119777 0)
(0.0103613 -0.000172214 0)
(0.0106609 -0.000208896 0)
(0.0109994 -0.000229779 0)
(0.0113492 -0.000236118 0)
(0.0116895 -0.000227373 0)
(0.0120116 -0.000235499 0)
(0.012293 -0.000219438 0)
(0.0125222 -0.000175245 0)
(0.0128527 -0.000285249 0)
(0.0134958 -0.000482959 0)
(0.0143933 -0.000544487 0)
(0.0152953 -0.000458965 0)
(0.0160511 -0.000356535 0)
(0.0166791 -0.000296965 0)
(0.017259 -0.000285704 0)
(0.0178724 -0.000319704 0)
(0.018605 -0.000408924 0)
(0.0195336 -0.000533855 0)
(0.0206788 -0.000640278 0)
(0.0219882 -0.000687766 0)
(0.0233811 -0.00068145 0)
(0.0248058 -0.000654843 0)
(0.0262621 -0.000637941 0)
(0.0277853 -0.000642365 0)
(0.029416 -0.000661098 0)
(0.0311783 -0.000677559 0)
(0.0330732 -0.000679103 0)
(0.0350904 -0.000664168 0)
(0.037221 -0.000638574 0)
(0.0394621 -0.000607592 0)
(0.0418111 -0.000571535 0)
(0.0442593 -0.000529714 0)
(0.046793 -0.00048563 0)
(0.0494022 -0.000451116 0)
(0.0520945 -0.000438732 0)
(0.0548781 -0.000437797 0)
(0.0577257 -0.000415657 0)
(0.0605753 -0.000359903 0)
(0.063382 -0.000298866 0)
(0.0661611 -0.000272442 0)
(0.0689683 -0.000294603 0)
(0.0718419 -0.000341492 0)
(0.0747643 -0.000376113 0)
(0.0776721 -0.000380098 0)
(0.0804979 -0.000360463 0)
(0.0832006 -0.000331793 0)
(0.0857656 -0.000302873 0)
(0.0881985 -0.000280756 0)
(0.0905272 -0.000279406 0)
(0.0928019 -0.000311821 0)
(0.0950794 -0.000376936 0)
(0.0974026 -0.000461349 0)
(0.0997858 -0.000544505 0)
(0.102208 -0.000604155 0)
(0.104624 -0.000631918 0)
(0.106994 -0.000637773 0)
(0.109307 -0.000640486 0)
(0.111579 -0.000654673 0)
(0.113842 -0.000684826 0)
(0.116121 -0.000726668 0)
(0.118423 -0.000770051 0)
(0.120733 -0.00080422 0)
(0.123025 -0.000824234 0)
(0.125273 -0.000833124 0)
(0.12746 -0.000833665 0)
(0.12957 -0.000825414 0)
(0.13159 -0.000807651 0)
(0.133508 -0.000781326 0)
(0.135313 -0.000747078 0)
(0.136998 -0.000706254 0)
(0.138559 -0.000661176 0)
(0.139993 -0.000613527 0)
(0.141304 -0.000564657 0)
(0.142493 -0.000516934 0)
(0.143568 -0.000471482 0)
(0.144534 -0.000427148 0)
(0.145398 -0.000384022 0)
(0.146169 -0.000343635 0)
(0.146854 -0.000306455 0)
(0.14746 -0.000272077 0)
(0.147996 -0.000240538 0)
(0.148469 -0.000212567 0)
(0.148884 -0.000187751 0)
(0.149249 -0.000165374 0)
(0.14957 -0.000145487 0)
(0.14985 -0.000127946 0)
(0.150095 -0.0001124 0)
(0.150309 -9.86135e-05 0)
(0.150496 -8.68611e-05 0)
(0.150659 -7.64314e-05 0)
(0.150802 -6.64666e-05 0)
(0.150925 -5.72915e-05 0)
(0.151033 -4.94535e-05 0)
(0.151127 -4.27061e-05 0)
(0.151207 -3.6637e-05 0)
(0.151277 -3.06401e-05 0)
(0.151338 -2.62874e-05 0)
(0.15139 -2.36369e-05 0)
(0.151436 -2.11963e-05 0)
(0.151476 -1.83848e-05 0)
(0.15151 -1.56019e-05 0)
(0.15154 -1.30897e-05 0)
(0.151566 -1.10702e-05 0)
(0.151588 -9.67118e-06 0)
(0.151607 -8.4985e-06 0)
(0.151624 -7.46236e-06 0)
(0.151638 -6.55418e-06 0)
(0.151651 -5.71049e-06 0)
(0.151662 -4.85136e-06 0)
(0.151671 -4.10875e-06 0)
(0.151679 -3.58051e-06 0)
(0.151686 -3.19626e-06 0)
(0.151693 -2.87849e-06 0)
(0.151698 -2.58407e-06 0)
(0.151703 -2.29349e-06 0)
(0.151707 -1.87472e-06 0)
(0.15171 -1.4506e-06 0)
(0.151713 -1.12926e-06 0)
(0.151715 -9.14159e-07 0)
(0.151717 -6.84218e-07 0)
(0.151719 -4.55581e-07 0)
(0.151721 -3.18457e-07 0)
(0.151722 -2.64154e-07 0)
(0.151723 -2.57944e-07 0)
(0.151724 -2.59093e-07 0)
(0.151725 -5.64196e-07 0)
(0.151726 -7.07806e-07 0)
(0.151726 -6.97312e-07 0)
(0.151727 -6.25115e-07 0)
(0.151728 -5.20591e-07 0)
(0.151729 -4.67137e-07 0)
(0.151729 -4.50891e-07 0)
(0.15173 -6.86549e-07 0)
(0.15173 -1.03037e-06 0)
(0.151731 -9.81197e-07 0)
(0.151731 -6.54449e-07 0)
(0.151732 -4.14371e-07 0)
(0.151732 -2.63625e-07 0)
(0.151732 2.5131e-08 0)
(0.151733 2.96192e-07 0)
(0.151733 2.02499e-07 0)
(0.151733 -2.81639e-08 0)
(0.151733 -9.64194e-08 0)
(0.151734 -1.0764e-07 0)
(0.151734 -1.08559e-07 0)
(0.151734 -1.23793e-07 0)
(0.151734 -1.62573e-07 0)
(0.151734 -2.57302e-07 0)
(0.151735 -4.32304e-07 0)
(0.151735 -3.36586e-07 0)
(0.151735 -6.48326e-08 0)
(0.151734 1.03578e-07 0)
(0.151734 2.08275e-07 0)
(0.151734 3.23487e-07 0)
(0.151733 5.3353e-07 0)
(0.151733 5.2365e-07 0)
(0.151732 3.11595e-07 0)
(0.151732 1.59142e-07 0)
(0.151732 6.84046e-08 0)
(0.151731 1.55506e-09 0)
(0.151731 -4.64915e-08 0)
(0.151731 -7.18707e-08 0)
(0.151731 -7.44874e-08 0)
(0.15173 -6.24342e-08 0)
(0.15173 -4.13157e-08 0)
(0.15173 -1.72187e-08 0)
(0.151729 -6.30759e-09 0)
(0.151729 -4.38138e-08 0)
(0.151728 -2.79959e-07 0)
(0.151728 -3.82696e-07 0)
(0.151727 -1.47625e-07 0)
(0.151726 1.66594e-07 0)
(0.151725 3.60174e-07 0)
(0.151723 5.17466e-07 0)
(0.151722 7.17665e-07 0)
(0.15172 1.196e-06 0)
(0.151717 1.52888e-06 0)
(0.151715 1.34194e-06 0)
(0.151712 1.28202e-06 0)
(0.151708 1.38133e-06 0)
(0.151704 1.54355e-06 0)
(0.151699 1.75877e-06 0)
(0.151694 2.03173e-06 0)
(0.151688 2.3596e-06 0)
(0.15168 2.75977e-06 0)
(0.151672 3.26698e-06 0)
(0.151661 3.94247e-06 0)
(0.151649 4.8614e-06 0)
(0.151634 6.13112e-06 0)
(0.151616 7.89726e-06 0)
(0.151593 1.03586e-05 0)
(0.151566 1.38385e-05 0)
(0.15153 1.86996e-05 0)
(0.151486 2.54801e-05 0)
(0.151429 3.47214e-05 0)
(0.151358 4.73281e-05 0)
(0.151266 6.44925e-05 0)
(0.151137 8.6991e-05 0)
(0.150962 0.000118766 0)
(0.150846 0.000142312 0)
(0.819421 0.00622106 0)
(1.20002 0.0277204 0)
(0.958734 0.0413886 0)
(0.818492 0.0449114 0)
(0.849281 0.045996 0)
(0.901783 0.0491333 0)
(0.914017 0.0532526 0)
(0.905888 0.0565061 0)
(0.900569 0.0587303 0)
(0.900173 0.0605878 0)
(0.899102 0.0624338 0)
(0.894942 0.0642317 0)
(0.888411 0.0659118 0)
(0.880373 0.0675196 0)
(0.870888 0.069151 0)
(0.859708 0.0708849 0)
(0.846679 0.0727826 0)
(0.831742 0.0749075 0)
(0.814814 0.0773321 0)
(0.795742 0.0801346 0)
(0.774311 0.0833962 0)
(0.750248 0.0872037 0)
(0.7232 0.0916564 0)
(0.692685 0.0968787 0)
(0.658032 0.103045 0)
(0.618265 0.110446 0)
(0.571958 0.1196 0)
(0.516829 0.131689 0)
(0.450152 0.148944 0)
(0.36445 0.179571 0)
(0.313247 0.24374 0)
(0.0889037 2.89505e-05 0)
(0.0257761 -0.00389317 0)
(0.0154352 -0.00198746 0)
(0.01393 -0.000785386 0)
(0.0156746 0.00173121 0)
(0.0153073 0.00199718 0)
(0.0134095 0.00182292 0)
(0.0118221 0.00223595 0)
(0.0116419 0.00204756 0)
(0.0126746 0.000783534 0)
(0.0143537 -0.000637901 0)
(0.016139 -0.0013347 0)
(0.0175531 -0.00112304 0)
(0.0183556 -0.000541962 0)
(0.0186476 -0.000133143 0)
(0.0186885 -1.07384e-05 0)
(0.0186774 -8.97243e-05 0)
(0.0187371 -0.00029048 0)
(0.0189529 -0.000546379 0)
(0.0193639 -0.000783913 0)
(0.0199501 -0.00094683 0)
(0.0206775 -0.00103256 0)
(0.0215309 -0.00105555 0)
(0.0225204 -0.00101742 0)
(0.0237148 -0.00098431 0)
(0.0250692 -0.000852576 0)
(0.0263101 -0.000893486 0)
(0.0273874 -0.00174074 0)
(0.0289311 -0.00289909 0)
(0.0310094 -0.00330835 0)
(0.0329994 -0.00301158 0)
(0.0346659 -0.00262135 0)
(0.0362099 -0.00240413 0)
(0.0378351 -0.00242956 0)
(0.0396466 -0.00271452 0)
(0.0417589 -0.00331028 0)
(0.0443167 -0.00411919 0)
(0.047356 -0.00487847 0)
(0.0507522 -0.00538874 0)
(0.0543472 -0.00567245 0)
(0.0580797 -0.00589245 0)
(0.0619966 -0.00619928 0)
(0.0661912 -0.00666104 0)
(0.0707419 -0.00725426 0)
(0.0756771 -0.00790129 0)
(0.0809789 -0.0085368 0)
(0.0866158 -0.00914666 0)
(0.092573 -0.0097524 0)
(0.0988535 -0.010368 0)
(0.105457 -0.0109767 0)
(0.112362 -0.0115441 0)
(0.119514 -0.0120468 0)
(0.126867 -0.0124881 0)
(0.13441 -0.012872 0)
(0.142186 -0.013144 0)
(0.150189 -0.0132304 0)
(0.158301 -0.0131116 0)
(0.166392 -0.0129068 0)
(0.174465 -0.0127973 0)
(0.18265 -0.0128359 0)
(0.191049 -0.0128838 0)
(0.199622 -0.0127347 0)
(0.208214 -0.0123019 0)
(0.216675 -0.0116573 0)
(0.224923 -0.0109185 0)
(0.232915 -0.0101643 0)
(0.240613 -0.00947729 0)
(0.248015 -0.00897442 0)
(0.255176 -0.00873922 0)
(0.26219 -0.00875446 0)
(0.269147 -0.00893795 0)
(0.276086 -0.00915997 0)
(0.282963 -0.00926978 0)
(0.289652 -0.00919845 0)
(0.296049 -0.00901523 0)
(0.302131 -0.0088402 0)
(0.307956 -0.00874785 0)
(0.313612 -0.00875195 0)
(0.319179 -0.0088117 0)
(0.324687 -0.00884717 0)
(0.330107 -0.00879154 0)
(0.335379 -0.00863116 0)
(0.340456 -0.0083938 0)
(0.345316 -0.00810389 0)
(0.349943 -0.00776637 0)
(0.354318 -0.00738319 0)
(0.358424 -0.00696086 0)
(0.362245 -0.00650915 0)
(0.365774 -0.00603923 0)
(0.369012 -0.00556226 0)
(0.371963 -0.00508851 0)
(0.374637 -0.00462674 0)
(0.377047 -0.00418399 0)
(0.37921 -0.00376538 0)
(0.381142 -0.00337412 0)
(0.382861 -0.00301152 0)
(0.384387 -0.00267833 0)
(0.385737 -0.00237465 0)
(0.386928 -0.00209964 0)
(0.387977 -0.00185186 0)
(0.388898 -0.00162972 0)
(0.389706 -0.00143158 0)
(0.390413 -0.0012555 0)
(0.391031 -0.00109951 0)
(0.391571 -0.000961804 0)
(0.392042 -0.00084048 0)
(0.392454 -0.000733664 0)
(0.392812 -0.000639868 0)
(0.393123 -0.000557581 0)
(0.393394 -0.000485586 0)
(0.39363 -0.000422296 0)
(0.393834 -0.000366675 0)
(0.394012 -0.000318097 0)
(0.394166 -0.00027573 0)
(0.3943 -0.00023874 0)
(0.394416 -0.000206853 0)
(0.394516 -0.00017926 0)
(0.394603 -0.000155728 0)
(0.394678 -0.000135476 0)
(0.394744 -0.000117613 0)
(0.3948 -0.000101926 0)
(0.394849 -8.80934e-05 0)
(0.394892 -7.61431e-05 0)
(0.394929 -6.59772e-05 0)
(0.394961 -5.72583e-05 0)
(0.394989 -4.96727e-05 0)
(0.395013 -4.28444e-05 0)
(0.395034 -3.6665e-05 0)
(0.395052 -3.1423e-05 0)
(0.395068 -2.72947e-05 0)
(0.395081 -2.39105e-05 0)
(0.395093 -2.09422e-05 0)
(0.395103 -1.82387e-05 0)
(0.395112 -1.61289e-05 0)
(0.39512 -1.42523e-05 0)
(0.395127 -1.24059e-05 0)
(0.395133 -1.07423e-05 0)
(0.395138 -9.03928e-06 0)
(0.395143 -7.61615e-06 0)
(0.395147 -6.56447e-06 0)
(0.395151 -6.03672e-06 0)
(0.395154 -5.52241e-06 0)
(0.395156 -4.44285e-06 0)
(0.395158 -3.39316e-06 0)
(0.39516 -2.58999e-06 0)
(0.395162 -2.14415e-06 0)
(0.395163 -2.35701e-06 0)
(0.395165 -2.99232e-06 0)
(0.395166 -3.51432e-06 0)
(0.395168 -3.33533e-06 0)
(0.395169 -2.39166e-06 0)
(0.39517 -1.86295e-06 0)
(0.39517 -1.30512e-06 0)
(0.395171 -6.94005e-07 0)
(0.395171 -7.66811e-07 0)
(0.395172 -1.09934e-06 0)
(0.395172 -1.13749e-06 0)
(0.395172 -1.00264e-06 0)
(0.395173 -8.50122e-07 0)
(0.395173 -7.27531e-07 0)
(0.395173 -6.56512e-07 0)
(0.395173 -6.0729e-07 0)
(0.395173 -5.98542e-07 0)
(0.395173 -5.67218e-07 0)
(0.395173 -5.29272e-07 0)
(0.395173 -4.6722e-07 0)
(0.395173 -3.56155e-07 0)
(0.395173 -1.67093e-07 0)
(0.395173 1.23877e-07 0)
(0.395173 4.61168e-07 0)
(0.395173 7.93536e-07 0)
(0.395173 1.03331e-06 0)
(0.395173 1.17119e-06 0)
(0.395173 1.24463e-06 0)
(0.395172 1.23015e-06 0)
(0.395172 1.15795e-06 0)
(0.395171 1.03397e-06 0)
(0.39517 9.13565e-07 0)
(0.39517 7.98037e-07 0)
(0.395169 7.16822e-07 0)
(0.395168 7.18922e-07 0)
(0.395167 8.14996e-07 0)
(0.395167 9.97623e-07 0)
(0.395166 1.24724e-06 0)
(0.395165 1.54788e-06 0)
(0.395164 1.89827e-06 0)
(0.395162 2.30353e-06 0)
(0.395161 2.70267e-06 0)
(0.395159 3.16068e-06 0)
(0.395157 3.65981e-06 0)
(0.395155 4.36656e-06 0)
(0.395152 5.20787e-06 0)
(0.395149 6.12698e-06 0)
(0.395145 7.1252e-06 0)
(0.39514 8.31046e-06 0)
(0.395135 9.68856e-06 0)
(0.39513 1.10978e-05 0)
(0.395123 1.26547e-05 0)
(0.395115 1.44676e-05 0)
(0.395106 1.66463e-05 0)
(0.395095 1.93083e-05 0)
(0.395083 2.25712e-05 0)
(0.395068 2.64261e-05 0)
(0.395052 3.10651e-05 0)
(0.395032 3.67278e-05 0)
(0.395009 4.37284e-05 0)
(0.394982 5.24292e-05 0)
(0.394951 6.33432e-05 0)
(0.394913 7.71551e-05 0)
(0.394868 9.47579e-05 0)
(0.394814 0.00011731 0)
(0.394749 0.000146269 0)
(0.394672 0.000183373 0)
(0.394581 0.000230375 0)
(0.394474 0.000288772 0)
(0.394347 0.000359668 0)
(0.394185 0.000437921 0)
(0.393968 0.000507876 0)
(0.393911 0.000530619 0)
(0.820166 0.00150426 0)
(1.19281 0.00739062 0)
(0.935178 0.0131506 0)
(0.78787 0.01798 0)
(0.820037 0.0223845 0)
(0.874629 0.0269361 0)
(0.887631 0.031617 0)
(0.880953 0.0361659 0)
(0.879277 0.0405339 0)
(0.88455 0.0448611 0)
(0.89054 0.0492568 0)
(0.894568 0.0537415 0)
(0.89736 0.058326 0)
(0.899785 0.0630631 0)
(0.901826 0.0680348 0)
(0.903141 0.0733292 0)
(0.903511 0.0790376 0)
(0.902837 0.0852633 0)
(0.901015 0.0921278 0)
(0.89789 0.0997735 0)
(0.893268 0.108367 0)
(0.886929 0.118107 0)
(0.878621 0.129239 0)
(0.868059 0.142081 0)
(0.854939 0.157061 0)
(0.838963 0.174788 0)
(0.820114 0.196157 0)
(0.798358 0.222495 0)
(0.776674 0.25592 0)
(0.752352 0.298031 0)
(0.746931 0.361989 0)
(0.717365 0.401079 0)
(0.638605 0.266449 0)
(0.494272 0.0855661 0)
(0.401705 0.0530248 0)
(0.13846 0.0216232 0)
(0.058945 0.00357511 0)
(0.0229897 0.000163913 0)
(0.00653352 0.00109368 0)
(0.00895301 0.00112218 0)
(0.0142453 -0.000817155 0)
(0.0164824 -0.00250604 0)
(0.0167781 -0.00292695 0)
(0.0168634 -0.00191224 0)
(0.0174649 -0.000698927 0)
(0.018246 -0.00012301 0)
(0.0188016 2.97852e-05 0)
(0.0191186 -6.01739e-05 0)
(0.0193498 -0.000335853 0)
(0.0196005 -0.000745686 0)
(0.0199207 -0.00114879 0)
(0.0203579 -0.00142629 0)
(0.0209602 -0.00162705 0)
(0.0217477 -0.00184288 0)
(0.0227593 -0.00182067 0)
(0.0239054 -0.00230757 0)
(0.0255706 -0.00217874 0)
(0.0302268 -0.000886861 0)
(0.0336044 -0.00332713 0)
(0.0347691 -0.00666981 0)
(0.0354435 -0.00708002 0)
(0.0366435 -0.00566314 0)
(0.0383321 -0.00483044 0)
(0.0405078 -0.0047799 0)
(0.0431826 -0.00519402 0)
(0.0463399 -0.00591411 0)
(0.0499463 -0.00724609 0)
(0.0539078 -0.0090366 0)
(0.0581348 -0.0106447 0)
(0.0626121 -0.0116794 0)
(0.0674057 -0.0122891 0)
(0.0726253 -0.012862 0)
(0.0783747 -0.0136758 0)
(0.084703 -0.0148068 0)
(0.091595 -0.0161516 0)
(0.099002 -0.0175253 0)
(0.106875 -0.0188066 0)
(0.115186 -0.0199952 0)
(0.123927 -0.0211478 0)
(0.133114 -0.0222864 0)
(0.142776 -0.0233622 0)
(0.152945 -0.0242798 0)
(0.163673 -0.0249926 0)
(0.174992 -0.0255867 0)
(0.186794 -0.0266387 0)
(0.198662 -0.0281957 0)
(0.210533 -0.0293475 0)
(0.222733 -0.0298124 0)
(0.23524 -0.0301161 0)
(0.247913 -0.0308728 0)
(0.260795 -0.0322223 0)
(0.27406 -0.0337224 0)
(0.287735 -0.0347635 0)
(0.301646 -0.0351272 0)
(0.315625 -0.035065 0)
(0.329625 -0.0348495 0)
(0.343584 -0.0344953 0)
(0.357335 -0.033925 0)
(0.370667 -0.0332193 0)
(0.383498 -0.032425 0)
(0.395832 -0.0314193 0)
(0.407788 -0.0303938 0)
(0.419587 -0.0294831 0)
(0.43126 -0.0283773 0)
(0.442526 -0.0268674 0)
(0.453067 -0.0252018 0)
(0.462804 -0.0237945 0)
(0.471843 -0.022829 0)
(0.480366 -0.0223263 0)
(0.488576 -0.0221774 0)
(0.496605 -0.0220842 0)
(0.504387 -0.0217532 0)
(0.51179 -0.0211369 0)
(0.518749 -0.0203503 0)
(0.525295 -0.019478 0)
(0.531465 -0.018525 0)
(0.537254 -0.0174791 0)
(0.542643 -0.0163577 0)
(0.547617 -0.0151896 0)
(0.552172 -0.0140014 0)
(0.556314 -0.0128176 0)
(0.560057 -0.0116599 0)
(0.563419 -0.0105465 0)
(0.566425 -0.00949118 0)
(0.569099 -0.00850318 0)
(0.571471 -0.00758765 0)
(0.573568 -0.00674664 0)
(0.575417 -0.00597988 0)
(0.577043 -0.00528544 0)
(0.57847 -0.00466012 0)
(0.579721 -0.00409988 0)
(0.580815 -0.00360016 0)
(0.581771 -0.00315623 0)
(0.582605 -0.00276298 0)
(0.583331 -0.00241544 0)
(0.583964 -0.00210909 0)
(0.584514 -0.00183981 0)
(0.584993 -0.00160364 0)
(0.585409 -0.00139684 0)
(0.585771 -0.00121583 0)
(0.586084 -0.00105753 0)
(0.586356 -0.000919235 0)
(0.586593 -0.000798673 0)
(0.586798 -0.000693423 0)
(0.586976 -0.000601136 0)
(0.587131 -0.000520866 0)
(0.587265 -0.000451417 0)
(0.587381 -0.000391274 0)
(0.587481 -0.000339208 0)
(0.587568 -0.000293729 0)
(0.587643 -0.000254472 0)
(0.587709 -0.000220812 0)
(0.587765 -0.000191383 0)
(0.587814 -0.000165848 0)
(0.587856 -0.000143818 0)
(0.587893 -0.000124765 0)
(0.587925 -0.00010838 0)
(0.587953 -9.42884e-05 0)
(0.587977 -8.16265e-05 0)
(0.587998 -7.02762e-05 0)
(0.588017 -6.08678e-05 0)
(0.588033 -5.30213e-05 0)
(0.588047 -4.62861e-05 0)
(0.588059 -4.03143e-05 0)
(0.58807 -3.48891e-05 0)
(0.588079 -3.00235e-05 0)
(0.588086 -2.61888e-05 0)
(0.588093 -2.31545e-05 0)
(0.588099 -2.02566e-05 0)
(0.588105 -1.75631e-05 0)
(0.58811 -1.51498e-05 0)
(0.588114 -1.30764e-05 0)
(0.588118 -1.1102e-05 0)
(0.588121 -9.44903e-06 0)
(0.588124 -8.67138e-06 0)
(0.588126 -8.14739e-06 0)
(0.588128 -7.54022e-06 0)
(0.588131 -6.68449e-06 0)
(0.588132 -6.11024e-06 0)
(0.588134 -5.45966e-06 0)
(0.588135 -4.74673e-06 0)
(0.588136 -3.92891e-06 0)
(0.588136 -3.19885e-06 0)
(0.588137 -2.29659e-06 0)
(0.588137 -1.64734e-06 0)
(0.588138 -1.60358e-06 0)
(0.588138 -1.52719e-06 0)
(0.588138 -1.33737e-06 0)
(0.588138 -1.12283e-06 0)
(0.588138 -1.01806e-06 0)
(0.588138 -1.02338e-06 0)
(0.588138 -9.38397e-07 0)
(0.588138 -7.92845e-07 0)
(0.588139 -6.96892e-07 0)
(0.588139 -5.62408e-07 0)
(0.588138 -4.32897e-07 0)
(0.588138 -4.03219e-07 0)
(0.588138 -2.99525e-07 0)
(0.588138 6.57102e-09 0)
(0.588138 4.38641e-07 0)
(0.588137 9.36734e-07 0)
(0.588137 1.35814e-06 0)
(0.588137 1.67324e-06 0)
(0.588137 1.90434e-06 0)
(0.588137 2.01989e-06 0)
(0.588136 2.02874e-06 0)
(0.588136 1.99137e-06 0)
(0.588135 1.97036e-06 0)
(0.588134 1.96248e-06 0)
(0.588134 1.97838e-06 0)
(0.588133 2.0512e-06 0)
(0.588132 2.24059e-06 0)
(0.588131 2.54407e-06 0)
(0.58813 2.97795e-06 0)
(0.588129 3.53417e-06 0)
(0.588128 4.18332e-06 0)
(0.588126 4.93024e-06 0)
(0.588124 5.77966e-06 0)
(0.588122 6.71637e-06 0)
(0.58812 7.84699e-06 0)
(0.588117 9.21805e-06 0)
(0.588114 1.08476e-05 0)
(0.58811 1.27265e-05 0)
(0.588106 1.4856e-05 0)
(0.588101 1.72569e-05 0)
(0.588096 1.99569e-05 0)
(0.58809 2.29319e-05 0)
(0.588082 2.63421e-05 0)
(0.588074 3.02528e-05 0)
(0.588064 3.48169e-05 0)
(0.588053 4.01892e-05 0)
(0.58804 4.65656e-05 0)
(0.588025 5.41702e-05 0)
(0.588007 6.31769e-05 0)
(0.587987 7.38487e-05 0)
(0.587964 8.65911e-05 0)
(0.587937 0.000101933 0)
(0.587905 0.000120499 0)
(0.587869 0.000143057 0)
(0.587827 0.000170552 0)
(0.587778 0.000204149 0)
(0.587721 0.000245183 0)
(0.587656 0.000295228 0)
(0.587582 0.000355824 0)
(0.587499 0.00042816 0)
(0.587409 0.000512364 0)
(0.587307 0.000606813 0)
(0.58718 0.000703286 0)
(0.586999 0.000782843 0)
(0.587048 0.000808313 0)
(0.823596 0.00191924 0)
(1.20127 0.00957348 0)
(0.943709 0.0166456 0)
(0.792591 0.0218211 0)
(0.820964 0.0258247 0)
(0.872968 0.0295168 0)
(0.883611 0.0332045 0)
(0.874241 0.0368375 0)
(0.869814 0.0403598 0)
(0.872628 0.0438342 0)
(0.876543 0.0473779 0)
(0.878891 0.0510882 0)
(0.880484 0.0550399 0)
(0.882315 0.0593113 0)
(0.884481 0.0639947 0)
(0.886736 0.0691925 0)
(0.888965 0.0750157 0)
(0.891191 0.0815876 0)
(0.893452 0.0890496 0)
(0.895756 0.0975659 0)
(0.898107 0.107328 0)
(0.900527 0.118557 0)
(0.903072 0.131516 0)
(0.905842 0.146507 0)
(0.909009 0.163878 0)
(0.912851 0.184006 0)
(0.917868 0.207282 0)
(0.924638 0.233954 0)
(0.934432 0.264175 0)
(0.947741 0.29681 0)
(0.965997 0.329403 0)
(0.991921 0.369253 0)
(1.01427 0.382585 0)
(1.01887 0.372763 0)
(1.0135 0.373008 0)
(0.983945 0.38312 0)
(0.943023 0.328684 0)
(0.882255 0.1941 0)
(0.806776 0.0579359 0)
(0.738024 -0.0123449 0)
(0.690608 -0.0262433 0)
(0.662055 -0.0204577 0)
(0.641848 -0.0149425 0)
(0.623947 -0.0115649 0)
(0.607774 -0.00868363 0)
(0.593828 -0.00593101 0)
(0.581495 -0.00323467 0)
(0.569685 -0.0012759 0)
(0.557444 -0.00039099 0)
(0.543859 -7.36322e-05 0)
(0.527997 0.000402049 0)
(0.50868 0.0014151 0)
(0.484653 0.00329359 0)
(0.453688 0.00669754 0)
(0.412771 0.0140237 0)
(0.347473 0.0231581 0)
(0.340285 0.0333529 0)
(0.149574 0.0110974 0)
(0.0740454 -0.00507572 0)
(0.047463 -0.0107556 0)
(0.031382 -0.0104943 0)
(0.0298631 -0.00800742 0)
(0.0354172 -0.00734952 0)
(0.041157 -0.00762591 0)
(0.0458428 -0.00848412 0)
(0.0501476 -0.00946876 0)
(0.0544919 -0.0109824 0)
(0.0585361 -0.0128769 0)
(0.0620563 -0.0144618 0)
(0.0656299 -0.0154587 0)
(0.0699724 -0.0161763 0)
(0.0753904 -0.0170455 0)
(0.0817023 -0.0182108 0)
(0.0885611 -0.0196536 0)
(0.0956963 -0.0212464 0)
(0.103048 -0.0227841 0)
(0.110751 -0.0241689 0)
(0.118952 -0.025453 0)
(0.127632 -0.0267413 0)
(0.136708 -0.0280737 0)
(0.146134 -0.029408 0)
(0.155998 -0.0306793 0)
(0.166687 -0.0319016 0)
(0.178969 -0.0331648 0)
(0.196096 -0.0343137 0)
(0.214278 -0.0384188 0)
(0.227797 -0.0433918 0)
(0.241338 -0.0465539 0)
(0.257937 -0.0485194 0)
(0.277232 -0.0507866 0)
(0.297118 -0.0537932 0)
(0.316225 -0.056767 0)
(0.334711 -0.0586595 0)
(0.353274 -0.0592092 0)
(0.372267 -0.0589201 0)
(0.391701 -0.0581687 0)
(0.411596 -0.0567939 0)
(0.432101 -0.0546767 0)
(0.453395 -0.0523714 0)
(0.475068 -0.0513258 0)
(0.495442 -0.0521591 0)
(0.513062 -0.0542229 0)
(0.529073 -0.0564884 0)
(0.544957 -0.0574636 0)
(0.560593 -0.0562702 0)
(0.57538 -0.0536232 0)
(0.589126 -0.0505606 0)
(0.601726 -0.0472679 0)
(0.613239 -0.0442884 0)
(0.624105 -0.0423014 0)
(0.634713 -0.0408988 0)
(0.644975 -0.0392179 0)
(0.654424 -0.0371537 0)
(0.66294 -0.0351678 0)
(0.670736 -0.0333919 0)
(0.677992 -0.0316196 0)
(0.684737 -0.0297073 0)
(0.690933 -0.0276562 0)
(0.69658 -0.0255385 0)
(0.701697 -0.023409 0)
(0.706301 -0.0213092 0)
(0.710416 -0.0192767 0)
(0.714069 -0.0173419 0)
(0.717297 -0.0155261 0)
(0.720138 -0.0138423 0)
(0.722631 -0.0122959 0)
(0.724812 -0.0108875 0)
(0.726717 -0.00961336 0)
(0.728379 -0.00846752 0)
(0.729825 -0.00744221 0)
(0.731084 -0.00652877 0)
(0.732178 -0.00571796 0)
(0.733128 -0.00500065 0)
(0.733952 -0.00436788 0)
(0.734668 -0.00381108 0)
(0.735288 -0.00332212 0)
(0.735825 -0.00289342 0)
(0.736291 -0.00251816 0)
(0.736694 -0.00219028 0)
(0.737044 -0.00190413 0)
(0.737347 -0.00165451 0)
(0.737609 -0.00143688 0)
(0.737836 -0.00124725 0)
(0.738032 -0.00108218 0)
(0.738203 -0.000938506 0)
(0.73835 -0.000813574 0)
(0.738478 -0.00070499 0)
(0.738589 -0.000610855 0)
(0.738685 -0.000529297 0)
(0.738768 -0.000458479 0)
(0.73884 -0.000397155 0)
(0.738902 -0.000344099 0)
(0.738956 -0.000298262 0)
(0.739003 -0.000258625 0)
(0.739043 -0.000224319 0)
(0.739079 -0.000194603 0)
(0.739109 -0.000168858 0)
(0.739136 -0.000146586 0)
(0.739159 -0.000127295 0)
(0.739179 -0.000110505 0)
(0.739197 -9.58956e-05 0)
(0.739212 -8.33384e-05 0)
(0.739226 -7.26387e-05 0)
(0.739237 -6.34668e-05 0)
(0.739247 -5.52197e-05 0)
(0.739256 -4.79645e-05 0)
(0.739263 -4.17249e-05 0)
(0.73927 -3.63882e-05 0)
(0.739275 -3.19311e-05 0)
(0.73928 -2.80787e-05 0)
(0.739285 -2.47073e-05 0)
(0.739288 -2.15948e-05 0)
(0.739292 -1.86728e-05 0)
(0.739295 -1.60568e-05 0)
(0.739298 -1.39378e-05 0)
(0.7393 -1.23414e-05 0)
(0.739303 -1.1235e-05 0)
(0.739305 -1.02801e-05 0)
(0.739306 -9.24491e-06 0)
(0.739307 -8.14404e-06 0)
(0.739308 -6.94108e-06 0)
(0.739309 -5.69545e-06 0)
(0.73931 -4.68669e-06 0)
(0.73931 -3.79907e-06 0)
(0.739311 -2.9666e-06 0)
(0.739311 -2.3489e-06 0)
(0.739312 -1.95067e-06 0)
(0.739312 -1.66946e-06 0)
(0.739312 -1.42365e-06 0)
(0.739312 -1.2509e-06 0)
(0.739313 -1.15704e-06 0)
(0.739313 -1.03738e-06 0)
(0.739313 -9.23661e-07 0)
(0.739313 -7.38031e-07 0)
(0.739313 -4.64229e-07 0)
(0.739313 -1.5408e-07 0)
(0.739313 -1.86283e-08 0)
(0.739313 7.50546e-08 0)
(0.739313 2.55714e-07 0)
(0.739313 6.14736e-07 0)
(0.739313 1.24991e-06 0)
(0.739312 1.79674e-06 0)
(0.739312 2.18756e-06 0)
(0.739312 2.48654e-06 0)
(0.739312 2.67446e-06 0)
(0.739311 2.79331e-06 0)
(0.739311 2.95128e-06 0)
(0.73931 3.20435e-06 0)
(0.73931 3.53329e-06 0)
(0.739309 3.70652e-06 0)
(0.739308 3.75458e-06 0)
(0.739307 4.08369e-06 0)
(0.739306 4.62139e-06 0)
(0.739305 5.3406e-06 0)
(0.739304 6.24071e-06 0)
(0.739302 7.30638e-06 0)
(0.739301 8.54787e-06 0)
(0.739299 9.96816e-06 0)
(0.739297 1.15818e-05 0)
(0.739294 1.3432e-05 0)
(0.739291 1.55828e-05 0)
(0.739288 1.80774e-05 0)
(0.739285 2.09534e-05 0)
(0.739281 2.42453e-05 0)
(0.739276 2.79965e-05 0)
(0.739271 3.22638e-05 0)
(0.739265 3.71084e-05 0)
(0.739257 4.26774e-05 0)
(0.739249 4.90948e-05 0)
(0.73924 5.65576e-05 0)
(0.739229 6.52772e-05 0)
(0.739216 7.54725e-05 0)
(0.739202 8.74047e-05 0)
(0.739185 0.000101449 0)
(0.739167 0.00011798 0)
(0.739145 0.000137471 0)
(0.73912 0.000160471 0)
(0.739092 0.000187723 0)
(0.739061 0.000220075 0)
(0.739025 0.000258484 0)
(0.738984 0.000304062 0)
(0.738939 0.00035801 0)
(0.73889 0.000421529 0)
(0.738835 0.000495594 0)
(0.738777 0.000580532 0)
(0.738719 0.000675311 0)
(0.738656 0.000776728 0)
(0.738571 0.000875679 0)
(0.738424 0.000954322 0)
(0.738568 0.000980032 0)
(0.826023 0.00156929 0)
(1.20637 0.00762773 0)
(0.947672 0.0130061 0)
(0.794828 0.016918 0)
(0.82267 0.0202682 0)
(0.874962 0.0237564 0)
(0.885898 0.0274429 0)
(0.876527 0.031161 0)
(0.871926 0.0348438 0)
(0.874548 0.038546 0)
(0.878277 0.0423495 0)
(0.880396 0.0463124 0)
(0.881692 0.050479 0)
(0.883179 0.0549019 0)
(0.884995 0.0596494 0)
(0.886936 0.0648014 0)
(0.888936 0.0704468 0)
(0.891084 0.0766844 0)
(0.893499 0.0836252 0)
(0.896287 0.0913943 0)
(0.899569 0.10013 0)
(0.90351 0.109985 0)
(0.908323 0.121119 0)
(0.914283 0.133694 0)
(0.921729 0.147854 0)
(0.931076 0.163697 0)
(0.942818 0.181228 0)
(0.957543 0.200263 0)
(0.975838 0.220359 0)
(0.998722 0.240785 0)
(1.02627 0.259442 0)
(1.06116 0.276461 0)
(1.1034 0.293191 0)
(1.14554 0.303913 0)
(1.17883 0.306686 0)
(1.20752 0.302132 0)
(1.23197 0.282543 0)
(1.24971 0.244674 0)
(1.25309 0.201118 0)
(1.23746 0.164186 0)
(1.20861 0.135496 0)
(1.17754 0.112401 0)
(1.15059 0.0932654 0)
(1.12799 0.0778288 0)
(1.10795 0.0659787 0)
(1.08949 0.0573337 0)
(1.07244 0.0515351 0)
(1.05661 0.0482579 0)
(1.04167 0.0475219 0)
(1.02723 0.0495236 0)
(1.01296 0.0546279 0)
(0.998881 0.0632837 0)
(0.985334 0.0761343 0)
(0.97307 0.0942639 0)
(0.964912 0.119074 0)
(0.960441 0.150362 0)
(0.97121 0.188121 0)
(0.983174 0.230962 0)
(0.985806 0.228128 0)
(0.968754 0.14036 0)
(0.93387 0.0436037 0)
(0.898831 -0.0134928 0)
(0.877896 -0.0361878 0)
(0.870023 -0.0425448 0)
(0.868206 -0.0434322 0)
(0.867916 -0.0441548 0)
(0.868998 -0.0466657 0)
(0.871682 -0.0491797 0)
(0.875889 -0.0504655 0)
(0.880582 -0.052559 0)
(0.885324 -0.057174 0)
(0.889648 -0.062678 0)
(0.893102 -0.0679924 0)
(0.895473 -0.0725694 0)
(0.896256 -0.0760822 0)
(0.894757 -0.07877 0)
(0.89016 -0.0809149 0)
(0.881496 -0.0822021 0)
(0.867911 -0.0823929 0)
(0.848062 -0.0822723 0)
(0.819436 -0.0818364 0)
(0.778042 -0.0813287 0)
(0.725083 -0.0807925 0)
(0.670721 -0.0812087 0)
(0.561745 -0.0802537 0)
(0.370966 -0.0737189 0)
(0.300328 -0.0777736 0)
(0.266567 -0.0815957 0)
(0.261839 -0.081167 0)
(0.280148 -0.0781063 0)
(0.303925 -0.0753369 0)
(0.323841 -0.0742382 0)
(0.340304 -0.0739415 0)
(0.356509 -0.0734488 0)
(0.373793 -0.0728502 0)
(0.391771 -0.0723557 0)
(0.410339 -0.0715755 0)
(0.431034 -0.0703922 0)
(0.455676 -0.0697198 0)
(0.492856 -0.0721509 0)
(0.537157 -0.0762739 0)
(0.574041 -0.0789626 0)
(0.599637 -0.0807149 0)
(0.620394 -0.0802415 0)
(0.641055 -0.0766159 0)
(0.662703 -0.0715126 0)
(0.684755 -0.0677886 0)
(0.70534 -0.065958 0)
(0.721727 -0.0662532 0)
(0.734756 -0.067766 0)
(0.747237 -0.0679787 0)
(0.759032 -0.0644788 0)
(0.769592 -0.0587141 0)
(0.778749 -0.0536414 0)
(0.787146 -0.0498783 0)
(0.795178 -0.046653 0)
(0.802642 -0.043365 0)
(0.809377 -0.0400487 0)
(0.815367 -0.036749 0)
(0.820705 -0.03348 0)
(0.825438 -0.0302814 0)
(0.829601 -0.0272154 0)
(0.833239 -0.0243264 0)
(0.836401 -0.0216436 0)
(0.83914 -0.0191823 0)
(0.841507 -0.0169455 0)
(0.843548 -0.0149284 0)
(0.845306 -0.0131204 0)
(0.84682 -0.0115081 0)
(0.848124 -0.0100763 0)
(0.849246 -0.00880925 0)
(0.850212 -0.00769153 0)
(0.851044 -0.00670806 0)
(0.851759 -0.00584456 0)
(0.852376 -0.00508794 0)
(0.852907 -0.00442609 0)
(0.853365 -0.00384792 0)
(0.85376 -0.00334352 0)
(0.854101 -0.00290401 0)
(0.854394 -0.00252134 0)
(0.854648 -0.00218838 0)
(0.854867 -0.00189872 0)
(0.855055 -0.00164689 0)
(0.855219 -0.00142801 0)
(0.85536 -0.00123777 0)
(0.855482 -0.0010725 0)
(0.855588 -0.000929114 0)
(0.855679 -0.00080484 0)
(0.855759 -0.000697196 0)
(0.855827 -0.000603966 0)
(0.855886 -0.000523288 0)
(0.855938 -0.000453508 0)
(0.855982 -0.00039315 0)
(0.856021 -0.000340931 0)
(0.856055 -0.000295756 0)
(0.856084 -0.000256676 0)
(0.856109 -0.000222872 0)
(0.856131 -0.000193599 0)
(0.85615 -0.000168165 0)
(0.856167 -0.000146035 0)
(0.856182 -0.000126755 0)
(0.856194 -0.000110018 0)
(0.856205 -9.56135e-05 0)
(0.856215 -8.31604e-05 0)
(0.856223 -7.223e-05 0)
(0.85623 -6.2756e-05 0)
(0.856237 -5.47107e-05 0)
(0.856242 -4.79615e-05 0)
(0.856247 -4.21153e-05 0)
(0.856251 -3.69877e-05 0)
(0.856255 -3.24787e-05 0)
(0.856258 -2.84852e-05 0)
(0.856261 -2.49503e-05 0)
(0.856263 -2.18588e-05 0)
(0.856266 -1.91784e-05 0)
(0.856268 -1.69192e-05 0)
(0.856269 -1.49445e-05 0)
(0.856271 -1.31813e-05 0)