/*--------------------------------*- C++ -*----------------------------------*\
| =========                 |                                                 |
| \\      /  F ield         | OpenFOAM: The Open Source CFD Toolbox           |
|  \\    /   O peration     | Version:  2406                                  |
|   \\  /    A nd           | Website:  www.openfoam.com                      |
|    \\/     M anipulation  |                                                 |
\*---------------------------------------------------------------------------*/
FoamFile
{
    version     2.0;
    format      ascii;
    arch        "LSB;label=32;scalar=64";
    class       volScalarField;
    location    "0.1";
    object      alphas;
}
// * * * * * * * * * * * * * * * * * * * * * * * * * * * * * * * * * * * * * //

dimensions      [0 0 0 0 0 0 0];

internalField   nonuniform List<scalar> 
6250
(
1
1
1
1
1
1
1
1
1
1
1
1
1
1
1
1
1
1
1
1
1
1
1
1
1
1
1
1
1
1
1
1
1
1
1
1
1
1
1
1
1
1
1
1
1
1
1
1
1
1
1
1
1
1
1
1
1
1
1
1
1
1
0.875723
0.116399
3.88553e-13
1.28517e-13
1.21668e-13
6.96763e-11
7.34731e-10
1.1015e-09
8.96377e-10
1.41667e-10
4.28074e-14
4.84897e-05
8.16957e-05
8.16957e-05
8.16957e-05
5.72766e-05
1.52719e-06
6.12279e-08
8.22039e-14
1.17014e-05
3.96123e-05
3.55248e-05
8.3733e-06
2.36996e-08
4.68126e-13
7.45014e-13
7.58564e-13
4.9324e-13
4.41929e-13
9.62309e-07
1.46402e-06
8.38156e-07
2.3367e-09
5.02066e-13
4.59485e-13
0.000170086
0.000106216
5.73922e-13
5.33655e-13
5.38584e-13
5.38541e-13
5.38647e-13
5.38647e-13
5.38679e-13
5.38679e-13
5.38691e-13
5.38691e-13
5.38754e-13
5.38754e-13
5.38767e-13
5.38767e-13
5.38779e-13
5.38779e-13
5.38779e-13
5.38779e-13
1.0964e-10
3.60234e-11
1.53713e-11
1.48138e-06
1.48147e-06
1.48156e-06
1.48167e-06
3.28733e-06
4.99494e-06
4.58382e-06
2.12597e-06
1.31653e-10
4.04697e-05
5.89679e-05
5.73301e-05
3.47022e-05
8.42509e-06
2.35001e-10
2.34994e-10
2.34926e-10
3.1692e-13
1.88262e-06
1.12038e-05
5.11651e-05
8.86677e-05
9.80676e-05
0.000114705
2.41071e-06
1.25132e-10
1.24977e-10
8.19562e-06
0.00012999
0.000154353
1.07333e-05
1.88318e-13
1.88318e-13
1.88318e-13
1.88318e-13
1.88318e-13
1.88318e-13
4.84655e-06
0.000242111
0.000790702
0.00160803
0.00178534
3.22129e-05
2.43653e-10
2.43615e-10
2.5042e-05
0.000145187
0.000307793
0.000472544
0.000121232
2.30972e-10
2.30972e-10
2.30972e-10
2.30972e-10
2.30972e-10
3.20872e-08
5.66046e-09
5.66048e-09
5.6605e-09
5.66052e-09
5.66055e-09
5.66056e-09
5.24563e-10
3.22784e-10
3.22811e-10
7.41697e-08
1.43218e-07
6.52739e-08
2.20171e-08
1.09052e-05
2.12906e-05
2.12906e-05
1.85038e-05
1.36081e-06
1.5697e-09
1.56915e-09
1.04697e-09
1.26982e-09
1.01565e-08
6.62092e-10
6.54795e-10
2.37804e-07
6.29613e-07
3.29656e-07
3.40774e-08
1.20768e-08
9.25242e-05
0.000109831
0.000109831
8.70503e-05
4.00671e-06
8.08571e-13
8.08571e-13
8.08571e-13
8.08571e-13
8.08571e-13
2.38078e-08
9.80878e-09
1.12554e-12
1.08638e-12
1.08638e-12
1.08638e-12
8.75637e-11
3.48615e-09
6.65605e-09
6.65712e-09
5.86918e-09
1.83479e-09
3.18953e-08
1.91976e-07
2.16339e-07
4.97333e-08
4.97333e-08
4.88936e-08
1.54265e-12
6.92949e-07
1.28224e-06
1.12336e-06
9.08604e-08
1.07819e-06
3.06314e-07
1.49532e-09
2.55348e-08
3.6062e-10
3.60619e-10
3.60619e-10
3.60619e-10
2.40389e-10
1.63907e-11
1.40374e-11
1
1
1
1
1
1
1
1
1
1
1
1
1
1
1
1
1
1
1
1
1
1
1
1
1
1
1
1
1
1
1
1
1
1
1
1
1
1
1
1
1
1
1
1
1
1
1
1
1
1
1
1
1
1
1
1
1
1
1
1
1
1
0.994532
0.97381
0.468385
0.00191389
2.90525e-13
7.76214e-14
5.46922e-14
3.39191e-14
3.22366e-14
1.85297e-14
1.70344e-14
3.213e-14
5.78107e-14
6.48236e-14
8.66675e-14
8.57778e-14
1.24178e-13
9.28007e-14
7.59014e-14
5.32598e-14
0.00374129
0.0056218
0.00562113
0.00143172
4.57001e-13
4.40942e-13
4.4094e-13
4.40448e-13
4.40385e-13
4.99036e-13
5.08386e-08
4.92466e-08
1.27334e-08
5.18745e-13
0.0326156
0.0602206
0.0583841
0.0168802
4.93408e-13
4.93414e-13
4.92964e-13
0.0175839
0.0375465
0.049646
0.0545477
0.0460216
0.0293215
0.016716
0.017546
0.0235926
0.0319637
0.0297375
0.024601
0.0170418
0.00567322
1.54948e-11
1.54293e-11
1.54307e-11
1.54293e-11
0.00398625
0.00758636
0.00641372
0.00338409
0.000387706
1.31672e-10
1.3169e-10
1.31643e-10
1.31688e-10
1.31677e-10
0.000339798
0.00723532
0.00987341
0.00448316
0.000146375
2.69085e-13
2.48434e-13
1.8332e-13
1.83324e-13
1.8332e-13
2.52426e-13
2.52533e-13
0.0119155
0.0259709
0.0275094
0.0290727
0.0367285
0.040788
0.0219473
0.00304554
0.000253197
4.43003e-05
2.09103e-13
1.88318e-13
0.00469893
0.0333866
0.0427861
0.0319877
0.00537895
0.00929407
0.0988271
0.154745
0.109695
0.0428603
0.011192
0.00241784
0.00282979
0.0297621
0.0588198
0.0528071
0.0462619
0.0301543
0.0166531
0.00233334
3.20942e-08
1.28006e-05
0.00351044
0.0105717
0.00682935
0.000446587
3.22762e-10
3.22768e-10
3.22742e-10
3.22747e-10
3.22768e-10
1.76014e-05
2.52228e-05
1.0564e-06
2.12187e-08
2.1221e-08
2.12187e-08
1.09642e-07
2.00141e-07
1.62834e-07
3.03808e-08
1.44934e-08
7.47222e-11
9.68703e-06
0.000150172
0.000164055
0.000106381
2.37565e-05
2.28542e-07
1.37778e-08
1.37777e-08
8.91995e-13
8.91516e-13
8.91515e-13
4.04976e-07
8.08572e-13
8.08571e-13
1.10251e-06
0.000151344
0.000161951
0.000139069
7.89886e-06
1.0346e-11
5.02455e-05
0.000153855
0.00015385
4.65639e-05
7.99456e-12
7.99339e-12
7.99693e-12
7.99566e-12
8.06459e-12
8.03055e-12
0.000100886
0.00125346
0.00125615
0.00031769
2.24337e-12
2.06934e-12
1.48123e-12
5.76741e-09
4.57406e-08
1.09236e-07
7.73211e-08
2.99258e-08
2.29903e-11
0.00506089
0.0203864
0.0183985
0.0101897
0.000952735
2.20312e-11
2.20227e-11
1.03867e-08
3.88816e-08
1
1
1
1
1
1
1
1
1
1
1
1
1
1
1
1
1
1
1
1
1
1
1
1
1
1
1
1
1
1
1
1
1
1
1
1
1
1
1
1
1
1
1
1
1
1
1
1
1
1
1
1
1
1
1
1
1
1
1
1
1
1
1
1
0.965339
0.915768
0.839987
0.34316
0.0201709
0.142884
0.220032
0.0907996
0.00951146
0.0217584
0.0554548
0.0594176
0.0442132
0.0159994
0.00286794
0.00389607
0.00137819
1.24296e-13
1.15851e-13
7.26148e-14
0.000826613
0.00103345
0.000231773
7.02987e-13
0.037487
0.216299
0.107563
0.000240604
5.03898e-13
4.73952e-13
4.65813e-13
4.59661e-13
5.27281e-13
1.78244e-05
0.00126157
0.517634
0.894529
0.653944
0.19989
0.291451
0.703313
0.886451
0.898722
0.913497
0.905772
0.752644
0.546438
0.574029
0.719423
0.843239
0.858074
0.814395
0.597637
0.293037
0.227062
0.235898
0.284591
0.465015
0.668268
0.678375
0.605775
0.432694
0.234514
0.106207
0.0612714
0.0681778
0.131714
0.198496
0.187554
0.118935
0.0538623
0.026422
0.00992044
0.000388982
1.8332e-13
2.67627e-13
1.8332e-13
0.000749961
0.00999719
0.0100241
0.0504219
0.4303
0.483554
0.483566
0.257025
0.0120038
0.00981288
0.0508703
0.545557
0.677849
0.246242
0.00470705
0.0855982
0.277181
0.277182
0.218864
0.0136073
0.00535741
0.307942
0.904501
0.924076
0.924077
0.779815
0.202914
0.0504358
0.0625333
0.355435
0.861641
0.929799
0.774142
0.181714
0.0241231
0.0328189
0.163685
0.604399
0.550322
0.20206
0.0827785
0.108219
0.222892
0.240273
0.139567
0.0122281
2.50912e-05
0.00544602
0.0223888
0.0149979
0.00225464
6.82588e-05
3.43812e-05
5.13271e-05
2.27319e-05
7.47179e-11
7.48785e-11
7.47875e-11
0.000290174
0.00144486
0.00211632
0.00197716
0.00121649
0.000240613
5.01362e-09
3.42262e-08
1.48402e-08
8.91516e-13
0.00626924
0.0218076
0.00702192
1.13539e-06
1.13502e-06
2.49891e-06
6.70834e-07
1.0346e-11
1.03461e-11
1.0346e-11
2.98751e-06
3.36277e-06
7.99456e-12
7.99339e-12
0.119982
0.268891
0.250292
0.0637173
8.03164e-12
8.03055e-12
8.03164e-12
8.04211e-12
0.22281
0.659703
0.671948
0.19177
2.58259e-11
2.49387e-11
2.37586e-11
2.33748e-11
2.31914e-11
2.29902e-11
2.33237e-11
0.0396912
0.537866
0.579585
0.412764
0.0242841
2.22477e-11
2.22696e-11
3.39896e-08
1
1
1
1
1
1
1
1
1
1
1
1
1
1
1
1
1
1
1
1
1
1
1
1
1
1
1
1
1
1
1
1
1
1
1
1
1
1
1
1
1
1
1
1
1
1
1
1
1
1
1
1
1
1
1
1
1
1
1
1
1
1
1
1
1
1
1
0.9722
0.86138
0.757779
0.744422
0.691106
0.609556
0.668184
0.826405
0.921576
0.956556
0.979341
0.99628
0.998938
0.621436
0.0940821
0.0976345
0.223788
0.257348
0.183873
0.0628099
0.000877187
0.052502
0.223357
0.202564
0.0315564
5.0375e-13
0.275983
0.429003
0.42901
0.149341
0.000311053
0.000280014
0.275015
0.919371
0.992028
0.94653
0.945852
0.981506
1
1
1
1
1
0.999789
0.99994
1
1
1
1
1
1
1
1
1
1
1
1
1
1
1
0.999296
0.845047
0.768845
0.878368
0.980215
0.967623
0.82434
0.779054
0.820375
0.723241
0.328943
0.0471681
0.018286
0.0131306
0.060291
0.471015
0.862138
0.810536
0.449774
0.127626
0.116013
0.10555
0.0285421
0.376618
0.966139
1
1
0.734689
0.0876711
0.041753
0.0417958
0.0183391
0.00561701
0.00561535
0.00535402
0.144523
0.743007
0.895463
0.727906
0.800093
0.980565
1
1
1
1
0.982826
0.631475
0.379054
0.652961
0.985025
1
0.894087
0.574414
0.738111
0.943914
0.948828
0.948193
0.948178
0.902826
0.308156
2.50832e-05
0.0153439
0.537922
0.970061
0.651467
0.0437793
3.13655e-05
3.13654e-05
0.0579497
0.242083
0.237555
0.141728
0.0604096
0.0576489
0.0766931
0.0819941
0.0571613
0.00709356
6.37747e-11
6.37369e-11
6.37747e-11
0.012998
0.023535
0.0233725
0.0084281
0.000333457
8.96961e-11
9.02495e-11
8.96961e-11
0.0670271
0.084804
0.083735
0.00917711
1.84157e-07
0.0238251
0.291161
0.314788
0.290635
0.044581
8.1925e-12
8.03055e-12
0.289937
0.681171
0.681173
0.390323
0.389647
0.784899
0.948346
0.909609
0.893105
0.891819
0.699842
0.622386
0.735668
0.634093
0.162652
0.0889214
0.0888946
0.476902
0.896924
0.580378
0.0283968
3.401e-08
1
1
1
1
1
1
1
1
1
1
1
1
1
1
1
1
1
1
1
1
1
1
1
1
1
1
1
1
1
1
1
1
1
1
1
1
1
1
1
1
1
1
1
1
1
1
1
1
1
1
1
1
1
1
1
1
1
1
1
1
1
1
1
1
1
1
1
1
1
1
1
1
1
1
1
1
1
0.999999
0.999129
0.998938
0.999068
0.998346
0.998948
1
1
1
1
1
0.931033
0.291217
0.0128043
0.0127906
0.0127768
0.0185174
0.0186126
0.0186086
0.56251
0.751817
0.70464
0.371144
0.662499
0.994434
1
1
1
1
1
0.999442
0.999366
0.999366
0.999849
1
1
1
1
1
1
1
0.999997
0.999998
1
1
1
0.999994
0.999978
0.999978
0.999997
1
1
1
1
1
1
1
1
1
1
1
0.924738
0.679479
0.761278
0.970348
1
1
1
1
1
1
0.997999
0.565669
0.490331
0.891406
1
1
1
1
1
1
0.584995
0.070554
0.284412
0.901006
1
1
0.822472
0.376536
0.374387
0.440191
0.91345
1
0.99993
0.999955
1
1
1
1
1
1
1
1
1
1
1
0.711137
0.0884079
0.0526778
0.0526765
0.1949
0.855014
1
1
0.975871
0.385209
0.00397468
3.61184e-05
0.183807
0.87674
1
1
0.992037
0.981406
0.981169
0.981149
0.681658
0.042427
0.0123428
0.0457674
0.0383329
0.0100204
0.00710982
0.0286481
0.236153
0.227072
0.118455
0.0326234
0.0132559
0.0132655
0.0133203
0.0139888
0.00354657
1.84451e-07
1.84157e-07
0.239566
0.314786
0.284693
0.03718
8.31942e-12
0.000483819
0.00348335
0.00348383
0.104266
0.759596
0.958964
0.958965
0.958964
0.958965
0.854196
0.405246
0.346467
0.80818
0.928932
0.92902
0.62989
0.770177
0.955098
0.955135
0.95513
0.955135
0.764302
0.0695727
1
1
1
1
1
1
1
1
1
1
1
1
1
1
1
1
1
1
1
1
1
1
1
1
1
1
1
1
1
1
1
1
1
1
1
1
1
1
1
1
1
1
1
1
1
1
1
1
1
1
1
1
1
1
1
1
1
1
1
1
1
1
1
1
1
1
1
1
1
1
1
1
1
1
1
0.999999
0.999999
0.999999
1
1
1
1
1
1
1
1
1
1
1
0.971682
0.956345
0.920241
0.603936
0.585301
0.870619
0.922641
0.512738
0.172872
0.172916
0.172872
0.439153
0.968035
0.999136
0.99914
0.999931
1
0.999997
0.999995
0.999999
1
1
1
0.993395
0.981684
0.98168
0.991048
1
1
0.999996
0.999996
0.999998
1
1
1
1
1
0.999985
0.99998
0.999996
1
0.999979
0.999976
0.999981
1
0.999984
0.999983
0.999985
0.999996
1
1
1
1
0.999997
0.999996
0.999999
1
1
1
1
1
1
0.995453
1
0.999999
1
1
1
1
1
1
1
1
1
1
1
1
1
1
0.999822
0.999909
0.999901
0.999893
0.999927
0.999999
1
1
0.999997
0.999997
0.999998
1
0.999329
0.998469
0.99847
0.999812
1
1
0.948221
0.570079
0.671541
0.978118
1
1
1
1
1
1
1
1
1
1
1
0.533873
0.0271905
0.0178624
0.0100008
0.0158277
0.571055
0.997464
0.999999
0.632807
0.0472301
0.290267
0.906248
0.94847
0.943419
0.95199
0.99004
0.928166
0.329782
0.0035181
0.0108813
0.0488177
0.0927184
0.0919209
0.0636029
0.0189623
1.25101e-11
0.0240704
0.417208
0.505784
0.506228
0.216396
0.0707205
0.0706961
0.0706968
0.226912
0.914849
0.732748
0.104501
0.011112
0.0164461
0.535314
0.676365
0.662047
0.225436
0.0726709
0.0727164
0.4614
0.759857
0.611791
1
1
1
1
1
1
1
1
1
1
1
1
1
1
1
1
1
1
1
1
1
1
1
1
1
1
1
1
1
1
1
1
1
1
1
1
1
1
1
1
1
1
1
1
1
1
1
1
1
1
1
1
1
1
1
1
1
1
1
1
1
1
1
1
1
1
1
1
1
1
1
1
1
1
1
1
1
1
1
1
0.999997
0.999997
0.999998
1
1
1
1
1
1
1
1
1
0.99987
0.999746
1
1
0.976433
0.952994
0.954427
0.970672
0.986268
0.98269
0.983557
0.995321
1
1
1
1
0.999999
0.999998
0.999998
1
1
0.991541
0.981682
0.985558
0.999237
1
1
0.999999
0.999999
1
1
0.998908
0.997529
0.997529
0.998926
0.999998
0.999999
0.999999
0.999997
0.999996
0.999983
0.999991
0.999999
0.999999
0.999999
0.999999
0.999987
0.999949
0.999948
0.999979
0.999999
1
0.999999
0.999999
1
1
0.999997
0.999997
0.999998
1
0.999999
0.999998
0.999997
0.999997
0.999996
0.999994
0.999994
0.999994
0.999995
0.999997
0.999999
0.999999
0.999998
0.999999
0.999999
0.999997
0.999993
0.99999
0.999991
0.999994
0.999998
0.999999
0.999999
0.999999
0.999999
0.999999
0.999996
0.999996
1
1
1
1
1
1
1
1
1
1
0.999998
0.999998
0.999999
1
0.999996
0.999986
0.999986
0.999988
0.999998
1
1
1
1
1
1
1
0.999923
0.999977
0.999999
1
0.853991
0.401465
0.4142
0.824462
1
0.995029
0.993473
0.992952
0.982381
0.965079
0.965454
0.97802
0.987571
0.990903
0.995206
0.999957
0.845681
0.2602
0.212362
0.213414
0.757678
1
1
1
1
0.999854
0.999966
0.925936
0.226204
0.011112
0.011112
0.0157653
0.0782909
0.0401528
0.0246028
0.0246268
0.229702
0.369799
0.429259
0.611564
1
1
1
1
1
1
1
1
1
1
1
1
1
1
1
1
1
1
1
1
1
1
1
1
1
1
1
1
1
1
1
1
1
1
1
1
1
1
1
1
1
1
1
1
1
1
1
1
1
1
1
1
1
1
1
1
1
1
1
1
1
1
1
1
1
1
1
1
1
1
1
1
1
1
1
1
1
1
1
1
0.999999
0.999997
0.999997
0.999998
1
1
1
1
1
1
1
1
1
1
1
1
1
1
1
1
1
1
1
1
1
1
1
1
1
1
1
1
1
0.999958
0.999687
0.99956
0.999561
0.999561
0.999561
0.999561
0.999837
1
0.999992
0.999935
0.99996
0.999904
0.998831
0.998735
0.998734
0.999576
1
1
1
1
1
1
1
1
0.999418
0.999107
0.999107
0.999107
0.999742
1
1
0.999999
0.999999
0.999999
0.999999
1
1
1
0.999999
0.999994
0.999993
0.999993
0.999997
0.999997
0.999997
0.999988
0.999974
0.999974
0.999983
1
1
1
1
0.999981
0.99998
0.99998
0.999995
0.999999
0.999999
0.999994
0.999992
0.999993
0.999999
0.999999
0.999999
0.999998
0.999999
1
1
1
1
1
1
1
1
1
1
1
0.999998
0.999998
0.999998
1
1
1
1
1
1
1
1
0.999985
0.999984
0.999987
0.999999
1
1
1
0.999771
0.999019
0.999281
0.999605
1
0.996442
0.909632
0.903158
0.903132
0.969605
1
1
0.999745
0.99839
0.99884
0.999954
1
1
1
1
1
1
1
0.999958
0.999924
0.999924
0.999966
0.999966
0.983101
0.64355
0.526087
0.818373
0.994265
0.653448
0.05203
0.0246028
0.388407
0.872573
0.631751
0.497282
1
1
1
1
1
1
1
1
1
1
1
1
1
1
1
1
1
1
1
1
1
1
1
1
1
1
1
1
1
1
1
1
1
1
1
1
1
1
1
1
1
1
1
1
1
1
1
1
1
1
1
1
1
1
1
1
1
1
1
1
1
1
1
1
1
1
1
1
1
1
1
1
1
1
1
1
1
1
1
1
1
1
0.999998
0.999999
1
1
1
1
1
1
1
1
1
1
1
1
1
1
1
1
1
1
1
1
1
1
1
1
1
1
1
1
1
1
1
1
1
0.999998
0.999996
0.999995
0.999994
0.999993
0.999993
0.999997
0.999998
0.999997
0.999992
0.999985
0.999979
0.99998
0.999986
0.999982
0.999982
0.999982
0.999982
0.999982
0.999992
0.999995
0.999986
0.999978
0.999978
0.999978
0.999981
0.999998
0.999987
0.999973
0.999973
0.999974
0.999973
0.999973
0.999973
0.999973
0.999973
0.999988
1
1
1
0.999984
0.999974
0.999974
0.999974
0.999974
0.999991
1
1
1
1
1
0.999985
0.99998
0.99998
0.99998
0.999995
1
1
1
1
1
0.999985
0.999983
0.999983
0.999989
1
1
1
1
1
0.999998
0.999987
0.999987
0.999987
0.999993
1
1
1
1
1
0.999995
0.999993
0.999993
0.999993
0.999997
1
1
1
0.999999
0.999999
0.999999
0.999999
1
1
1
1
1
1
1
1
1
1
1
1
1
1
1
1
1
1
0.999999
0.999999
1
1
0.999982
0.999978
0.999984
0.999999
0.999965
0.999825
0.999826
0.999986
0.999306
0.99872
0.999805
0.999998
0.997768
0.96854
0.707683
0.575317
0.870991
0.998692
0.706831
1
1
1
1
1
1
1
1
1
1
1
1
1
1
1
1
1
1
1
1
1
1
1
1
1
1
1
1
1
1
1
1
1
1
1
1
1
1
1
1
1
1
1
1
1
1
1
1
1
1
1
1
1
1
1
1
1
1
1
1
1
1
1
1
1
1
1
1
1
1
1
1
1
1
1
1
1
1
1
1
1
1
1
1
1
1
1
1
1
1
1
1
1
1
1
1
1
1
1
1
1
1
1
1
1
1
1
1
1
1
1
1
1
1
1
1
1
1
1
1
1
1
1
1
1
1
1
1
1
1
1
1
1
1
1
0.999999
0.999999
1
1
1
1
1
1
1
1
1
1
1
0.999999
0.999999
0.999999
0.999999
0.999999
0.999998
0.999999
1
1
1
1
1
1
1
1
1
1
1
1
1
1
1
1
1
1
1
1
1
1
1
1
1
1
1
1
1
1
1
1
1
1
1
0.999998
0.999997
0.999999
1
1
1
1
1
1
1
0.999997
0.999998
1
1
1
1
1
1
1
1
1
1
1
1
1
1
1
1
1
1
1
1
1
1
1
1
1
1
0.999999
1
1
1
1
0.999999
0.999999
0.999999
0.999997
0.999993
0.999988
1
1
1
0.999998
1
1
1
0.997064
0.992843
0.998657
0.968279
1
1
1
1
1
1
1
1
1
1
1
1
1
1
1
1
1
1
1
1
1
1
1
1
1
1
1
1
1
1
1
1
1
1
1
1
1
1
1
1
1
1
1
1
1
1
1
1
1
1
1
1
1
1
1
1
1
1
1
1
1
1
1
1
1
1
1
1
1
1
1
1
1
1
1
1
1
1
1
1
1
1
1
1
1
1
1
1
1
1
1
1
1
1
1
1
1
1
1
1
1
1
1
1
1
1
1
1
1
1
1
1
1
1
1
1
1
1
1
1
1
1
1
1
1
1
1
1
1
1
1
1
1
1
1
1
1
1
1
1
1
1
1
1
1
1
1
1
1
1
1
1
1
1
1
1
1
1
1
1
1
1
1
1
1
1
1
1
1
1
1
1
1
1
1
1
1
1
1
1
1
1
1
1
1
1
1
1
1
1
1
1
1
1
1
1
1
1
1
1
1
1
1
1
1
1
1
1
1
1
1
1
1
1
1
1
1
1
1
1
1
1
1
1
1
1
1
1
1
1
1
1
1
1
1
1
1
1
1
1
1
1
0.999999
1
1
1
1
1
0.999942
1
1
1
1
1
1
1
1
1
1
1
1
1
1
1
1
1
1
1
1
1
1
1
1
1
1
1
1
1
1
1
1
1
1
1
1
1
1
1
1
1
1
1
1
1
1
1
1
1
1
1
1
1
1
1
1
1
1
1
1
1
1
1
1
1
1
1
1
1
1
1
1
1
1
1
1
1
1
1
1
1
1
1
1
1
1
1
1
1
1
1
1
1
1
1
1
1
1
1
1
1
1
1
1
1
1
1
1
1
1
1
1
1
1
1
1
1
1
1
1
1
1
1
1
1
1
1
1
1
1
1
1
1
1
1
1
1
1
1
1
1
1
1
1
1
1
1
1
1
1
1
1
1
1
1
1
1
1
1
1
1
1
1
1
1
1
1
1
1
1
1
1
1
1
1
1
1
1
1
1
1
1
1
1
1
1
1
1
1
1
1
1
1
1
1
1
1
1
1
1
1
1
1
1
1
1
1
1
1
1
1
1
1
1
1
1
1
1
1
1
1
1
1
1
1
1
1
1
1
1
1
1
1
1
1
1
1
1
1
1
1
1
1
1
1
1
1
1
1
1
1
1
1
1
1
1
1
1
1
1
1
1
1
1
1
1
1
1
1
1
1
1
1
1
1
1
1
1
1
1
1
1
1
1
1
1
1
1
1
1
1
1
1
1
1
1
1
1
1
1
1
1
1
1
1
1
1
1
1
1
1
1
1
1
1
1
1
1
1
1
1
1
1
1
1
1
1
1
1
1
1
1
1
1
1
1
1
1
1
1
1
1
1
1
1
1
1
1
1
1
1
1
1
1
1
1
1
1
1
1
1
1
1
1
1
1
1
1
1
1
1
1
1
1
1
1
1
1
1
1
1
1
1
1
1
1
1
1
1
1
1
1
1
1
1
1
1
1
1
1
1
1
1
1
1
1
1
1
1
1
1
1
1
1
1
1
1
1
1
1
1
1
1
1
1
1
1
1
1
1
1
1
1
1
1
1
1
1
1
1
1
1
1
1
1
1
1
1
1
1
1
1
1
1
1
1
1
1
1
1
1
1
1
1
1
1
1
1
1
1
1
1
1
1
1
1
1
1
1
1
1
1
1
1
1
1
1
1
1
1
1
1
1
1
1
1
1
1
1
1
1
1
1
1
1
1
1
1
1
1
1
1
1
1
1
1
1
1
1
1
1
1
1
1
1
1
1
1
1
1
1
1
1
1
1
1
1
1
1
1
1
1
1
1
1
1
1
1
1
1
1
1
1
1
1
1
1
1
1
1
1
1
1
1
1
1
1
1
1
1
1
1
1
1
1
1
1
1
1
1
1
1
1
1
1
1
1
1
1
1
1
1
1
1
1
1
1
1
1
1
1
1
1
1
1
1
1
1
1
1
1
1
1
1
1
1
1
1
1
1
1
1
1
1
1
1
1
1
1
1
1
1
1
1
1
1
1
1
1
1
1
1
1
1
1
1
1
1
1
1
1
1
1
1
1
1
1
1
1
1
1
1
1
1
1
1
1
1
1
1
1
1
1
1
1
1
1
1
1
1
1
1
1
1
1
1
1
1
1
1
1
1
1
1
1
1
1
1
1
1
1
1
1
1
1
1
1
1
1
1
1
1
1
1
1
1
1
1
1
1
1
1
1
1
1
1
1
1
1
1
1
1
1
1
1
1
1
1
1
1
1
1
1
1
1
1
1
1
1
1
1
1
1
1
1
1
1
1
1
1
1
1
1
1
1
1
1
1
1
1
1
1
1
1
1
1
1
1
1
1
1
1
1
1
1
1
1
1
1
1
1
1
1
1
1
1
1
1
1
1
1
1
1
1
1
1
1
1
1
1
1
1
1
1
1
1
1
1
1
1
1
1
1
1
1
1
1
1
1
1
1
1
1
1
1
1
1
1
1
1
1
1
1
1
1
1
1
1
1
1
1
1
1
1
1
1
1
1
1
1
1
1
1
1
1
1
1
1
1
1
1
1
1
1
1
1
1
1
1
1
1
1
1
1
1
1
1
1
1
1
1
1
1
1
1
1
1
1
1
1
1
1
1
1
1
1
1
1
1
1
1
1
1
1
1
1
1
1
1
1
1
1
1
1
1
1
1
1
1
1
1
1
1
1
1
1
1
1
1
1
1
1
1
1
1
1
1
1
1
1
1
1
1
1
1
1
1
1
1
1
1
1
1
1
1
1
1
1
1
1
1
1
1
1
1
1
1
1
0.999999
0.999999
0.999999
0.999999
0.999999
0.999998
0.999999
1
1
1
0.999999
0.999999
0.999999
1
0.999999
0.999999
0.999999
1
1
1
1
1
1
1
1
1
1
1
1
1
1
1
1
1
1
1
1
1
1
1
1
1
1
1
1
1
1
1
1
1
1
1
1
1
1
1
1
1
1
1
1
1
1
1
1
1
1
1
1
1
1
1
1
1
1
1
1
1
1
1
1
1
1
1
1
1
1
1
1
1
1
1
1
1
1
1
1
1
1
1
1
1
1
1
1
1
1
1
1
1
1
1
1
1
1
1
1
1
1
1
1
1
1
1
1
1
1
1
1
1
1
1
1
1
1
1
1
1
1
1
1
1
1
1
1
1
1
1
1
1
1
1
1
1
1
1
1
1
1
1
1
1
0.999999
0.999999
0.999999
0.999999
1
1
1
1
1
1
1
1
1
0.999999
0.999999
0.999999
1
1
1
1
1
1
1
1
1
1
1
1
1
1
1
1
1
1
1
1
1
1
1
1
1
1
1
1
1
1
1
1
1
1
1
0.999999
0.999991
0.999996
1
1
1
1
1
1
0.999999
0.999989
0.999993
1
1
1
1
1
1
1
1
1
0.999998
0.999996
0.999996
1
1
1
1
1
1
1
1
0.999992
0.999979
0.999971
0.999978
0.999971
0.999971
0.999971
0.999971
0.999971
0.999973
0.99999
0.999995
0.999993
0.999994
1
0.999962
0.999947
0.999974
1
1
1
1
1
1
1
1
1
1
1
1
1
1
1
1
1
1
1
1
1
1
1
1
1
1
1
1
1
1
1
1
1
1
1
1
1
1
1
1
1
1
1
1
1
1
1
1
1
1
1
1
1
1
1
1
1
1
1
1
1
1
1
1
1
1
1
1
1
1
1
1
1
1
1
1
1
1
1
1
1
1
1
1
1
1
1
1
1
1
0.999998
0.999999
1
1
1
1
1
1
1
1
1
1
1
1
1
1
1
1
1
1
1
1
1
1
1
1
1
1
1
1
1
1
1
1
1
1
1
0.999999
0.999998
0.999997
0.999995
0.999993
0.999993
0.999995
1
0.999994
0.99998
0.999987
0.999994
0.999992
0.999988
0.999983
0.999969
0.999973
1
0.999983
0.999974
0.999974
0.999974
0.999974
0.999974
0.999985
0.999996
0.999995
0.999989
0.99998
0.999967
0.999956
0.999956
0.999956
0.999979
1
1
1
1
0.999989
0.99998
0.99998
0.99998
0.999991
1
1
1
0.999999
0.999985
0.999985
0.999987
0.999999
1
1
1
0.99999
0.999972
0.999994
1
1
1
1
1
0.999993
0.99998
0.99998
0.999986
1
1
1
1
1
1
0.999976
0.999967
0.99998
0.999999
1
1
1
1
0.999997
0.999979
0.999979
0.999984
0.999999
1
1
1
1
1
1
1
0.999996
0.999994
0.999994
0.999996
1
1
1
1
1
1
0.999721
0.999411
0.999164
0.999166
0.999168
0.999394
0.999977
1
1
0.999999
1
1
1
0.999833
0.999712
0.999714
0.999908
0.999991
0.999941
0.999949
0.999994
0.994194
0.964917
0.909082
0.862814
0.904169
0.99529
0.999887
0.979745
0.965395
0.98182
1
1
1
1
1
1
1
1
1
1
1
1
1
1
1
1
1
1
1
1
1
1
1
1
1
1
1
1
1
1
1
1
1
1
1
1
1
1
1
1
1
1
1
1
1
1
1
1
1
1
1
1
1
1
1
1
1
1
1
1
1
1
1
1
1
1
1
1
1
1
1
1
1
1
1
1
1
1
1
0.999997
0.999996
0.999998
1
1
1
1
1
1
1
1
1
1
1
1
1
1
1
1
1
1
1
1
1
1
1
1
1
1
1
1
1
1
1
0.999992
0.999821
0.999501
0.999394
0.999394
0.999394
0.999405
0.999397
0.999397
0.999789
1
1
0.999942
0.999912
0.999985
0.999785
0.99878
0.998773
0.998773
0.99954
1
1
1
1
1
1
1
1
1
0.999556
0.998847
0.998847
0.998847
0.999374
1
1
1
0.999991
0.999986
0.999986
0.999995
0.999999
0.999998
0.999998
0.999998
0.999998
0.999989
0.999983
0.999983
0.999983
0.999983
0.999994
1
1
1
1
0.999992
0.999968
0.999968
0.999968
0.999992
1
1
0.999985
0.999984
0.999987
0.999998
0.999998
0.999998
0.999993
0.999998
1
1
0.999974
0.999973
0.999975
0.99997
0.999702
1
1
1
1
1
1
1
1
1
1
1
1
1
1
1
1
1
1
1
1
1
0.999698
0.996526
0.99605
0.99827
1
0.998424
0.892736
0.880501
0.880476
0.955036
1
1
1
0.999968
0.999993
1
1
1
1
1
0.999985
1
1
1
1
1
0.998373
0.999993
0.606089
0.289332
0.289268
0.410859
0.895039
0.995499
0.852072
0.281231
0.43423
0.944186
1
1
1
1
1
1
1
1
1
1
1
1
1
1
1
1
1
1
1
1
1
1
1
1
1
1
1
1
1
1
1
1
1
1
1
1
1
1
1
1
1
1
1
1
1
1
1
1
1
1
1
1
1
1
1
1
1
1
1
1
1
1
1
1
1
1
1
1
1
1
1
1
1
1
1
1
1
1
0.999997
0.999996
0.999997
1
1
1
1
1
1
1
1
1
1
1
0.99986
0.99972
1
1
0.976391
0.95278
0.954207
0.970469
0.986664
0.983068
0.983685
0.994852
1
1
1
1
0.999999
0.999998
0.999998
0.999999
1
0.99714
0.983611
0.983501
0.989051
0.999867
0.999991
0.999989
0.999981
0.999985
0.999994
1
1
0.999353
0.998022
0.998022
0.998975
0.999998
0.999997
0.999997
0.999994
0.999995
1
1
1
1
1
0.999975
0.999954
0.999961
0.999984
0.999981
0.999972
0.99998
0.999996
1
1
0.999998
0.999993
0.99999
0.99999
0.999993
0.999996
0.999999
0.999998
0.999997
0.999994
0.999991
0.999989
0.999992
0.999997
0.999999
1
1
0.999996
0.999994
0.999994
0.999996
0.999995
0.999992
0.99999
0.999995
1
1
1
1
0.999998
0.999995
0.999995
0.999998
0.999685
0.99969
1
1
0.995775
0.994745
0.996106
0.999984
0.997582
0.967563
0.971707
0.99033
0.999574
1
1
1
0.999998
0.999998
0.999998
1
1
1
0.998934
0.804377
0.670814
0.798927
0.979162
1
1
1
1
0.938369
0.643987
0.700418
0.887241
0.938959
0.939927
0.939896
0.93989
0.941188
0.942487
0.950441
0.968049
0.993211
0.999993
0.616331
0.0655952
0.0514294
0.0513863
0.567076
0.997208
0.972714
0.431837
0.043882
0.0442507
0.0448019
0.0447747
0.0582519
0.341663
0.375753
0.375577
0.166833
0.0133833
0.0132805
0.0132806
0.104134
0.766706
0.94527
1
1
1
1
1
1
1
1
1
1
1
1
1
1
1
1
1
1
1
1
1
1
1
1
1
1
1
1
1
1
1
1
1
1
1
1
1
1
1
1
1
1
1
1
1
1
1
1
1
1
1
1
1
1
1
1
1
1
1
1
1
1
1
1
1
1
1
1
1
1
1
1
1
1
0.999999
0.999999
0.999999
1
1
1
1
1
1
1
1
1
1
1
1
0.970382
0.956096
0.919248
0.599224
0.582995
0.872112
0.926632
0.518137
0.175805
0.175797
0.175805
0.440608
0.968082
0.999083
0.999013
0.999889
1
1
0.999999
1
1
1
1
0.997092
0.983565
0.983526
0.989719
0.999844
1
0.99998
0.999976
0.999983
1
1
0.999998
0.999999
1
1
1
1
0.999998
0.999983
0.999982
0.999995
1
1
1
1
1
1
1
1
1
1
0.999999
1
1
1
1
1
1
1
1
1
1
0.999999
1
1
1
1
1
1
1
1
0.999995
0.999994
0.999995
0.999999
0.999999
1
1
1
1
1
1
1
0.999945
0.999984
0.999996
0.999999
0.999999
0.999999
1
1
0.94735
0.940114
0.973384
0.999258
0.999461
0.999585
0.999984
1
0.777966
0.448366
0.695249
0.978578
1
1
0.999999
0.999998
0.999999
1
1
1
1
0.812245
0.0959261
0.000163491
0.000163491
0.27508
0.903868
0.951989
0.944864
0.972684
0.75989
0.127491
0.056777
0.0558498
0.374269
0.439351
0.174668
0.0135525
0.017207
0.0486609
0.0845864
0.080413
0.0601926
0.0486951
0.0793701
0.181938
0.211931
0.182254
0.110234
0.0424903
0.0258252
0.0253469
0.0253495
0.387257
0.947524
0.965227
0.965225
0.571419
0.0963218
0.0783676
0.07658
0.0555022
0.16413
0.612493
0.997975
0.998074
0.68675
1
1
1
1
1
1
1
1
1
1
1
1
1
1
1
1
1
1
1
1
1
1
1
1
1
1
1
1
1
1
1
1
1
1
1
1
1
1
1
1
1
1
1
1
1
1
1
1
1
1
1
1
1
1
1
1
1
1
1
1
1
1
1
1
1
1
1
1
1
1
1
1
1
1
1
1
1
0.99994
0.999104
0.998991
0.999178
0.998432
0.998999
1
1
1
1
1
0.922811
0.274759
0.0131241
0.0131106
0.013097
0.0191019
0.0191877
0.0191842
0.577951
0.759044
0.715295
0.364173
0.657315
0.994335
1
1
1
1
1
0.999735
0.999588
0.999588
0.999794
1
1
1
1
1
1
1
1
1
1
1
0.99999
0.999976
0.999976
0.999993
0.999999
1
1
1
1
1
1
1
1
1
1
1
0.903922
0.691727
0.793129
0.981921
1
1
1
1
1
1
1
0.785211
0.526985
0.526956
0.721154
0.995599
1
1
1
0.786635
0.128933
0.13102
0.711521
1
1
0.999998
0.999997
0.999999
1
1
1
0.983758
0.540417
0.251336
0.251178
0.25119
0.429869
0.947408
1
0.999653
1
1
1
1
1
0.828681
0.210592
0.148238
0.314515
0.90669
0.999998
0.999998
1
0.996598
0.412843
0.00126125
4.42809e-05
0.217812
0.90921
1
1
1
1
1
1
1
0.839069
0.121032
0.000163491
0.0373741
0.0644382
0.0441677
0.0125003
0.00864849
0.0076918
0.0449795
0.0874012
0.0874139
0.0401478
0.00100429
2.27026e-12
1.45168e-12
8.8644e-13
0.0392996
0.21785
0.219658
0.175119
0.0120628
0.00630204
0.00630968
0.00630204
0.157272
0.826433
0.977222
0.977224
0.840594
0.176826
0.175544
0.757651
0.965227
0.965225
0.965227
0.953424
0.957608
0.957775
0.957767
0.924739
0.614446
0.668721
0.905393
0.817123
0.181693
1
1
1
1
1
1
1
1
1
1
1
1
1
1
1
1
1
1
1
1
1
1
1
1
1
1
1
1
1
1
1
1
1
1
1
1
1
1
1
1
1
1
1
1
1
1
1
1
1
1
1
1
1
1
1
1
1
1
1
1
1
1
1
1
1
1
1
0.968908
0.855397
0.757215
0.743533
0.685041
0.611598
0.676504
0.834261
0.924118
0.957778
0.980307
0.996888
0.998991
0.588918
0.0874166
0.098943
0.229145
0.25761
0.181183
0.0599877
0.000507614
0.0605524
0.221276
0.199218
0.0287532
1.60306e-13
0.287019
0.428403
0.428399
0.139427
0.000152705
0.000148748
0.282085
0.923072
0.99222
0.94724
0.946541
0.981737
1
1
1
1
1
0.999803
0.999945
1
1
1
1
1
1
1
1
1
1
1
1
1
1
1
1
0.878546
0.770553
0.862816
0.973822
0.974265
0.893478
0.813421
0.809571
0.674839
0.287099
0.0446792
0.0169873
0.0178621
0.137348
0.557443
0.723759
0.596674
0.298129
0.142027
0.112313
0.0554043
0.0449949
0.503279
0.83021
0.830214
0.645779
0.113133
0.03758
0.0485784
0.0312412
0.00691394
0.00691126
0.0959744
0.774237
1
1
1
1
0.866157
0.698479
0.788873
0.621397
0.251464
0.251162
0.251162
0.595411
0.992207
1
1
1
0.980637
0.893957
0.872506
0.898158
0.928516
0.928516
0.868317
0.199478
0.00529506
0.385386
0.96985
1
1
0.62624
0.0248794
4.42809e-05
4.42814e-05
0.269293
0.606314
0.39094
0.114654
0.0962075
0.109902
0.115001
0.100404
0.055379
0.0158671
0.00107491
0.000163498
3.39506e-05
0.00109267
0.0295579
0.0321732
0.0321781
0.00504359
2.27524e-11
2.28397e-11
0.0152192
0.0703647
0.0705107
0.0426366
0.000258565
9.72728e-13
0.144131
0.217953
0.15127
0.00703856
0.0044727
0.150261
0.246762
0.244234
0.0239552
0.131076
0.776268
0.977222
0.977224
0.975435
0.916211
0.878054
0.854815
0.765491
0.681431
0.756188
0.734101
0.345383
0.301982
0.643176
0.740304
0.692796
0.279128
1.25813e-10
1.24899e-10
1
1
1
1
1
1
1
1
1
1
1
1
1
1
1
1
1
1
1
1
1
1
1
1
1
1
1
1
1
1
1
1
1
1
1
1
1
1
1
1
1
1
1
1
1
1
1
1
1
1
1
1
1
1
1
1
1
1
1
1
1
1
1
1
0.961051
0.915454
0.829809
0.314823
0.0211558
0.151934
0.215897
0.0840027
0.00981561
0.0234413
0.0564852
0.0592683
0.0432911
0.0151543
0.00291092
0.00392897
0.00128781
7.1827e-14
7.53799e-14
5.90741e-14
0.000470133
0.000763635
0.000164596
3.59106e-13
0.0471158
0.215145
0.100454
3.72373e-05
1.68738e-13
1.66258e-13
1.20317e-13
1.20318e-13
2.33034e-05
3.51802e-05
0.00256169
0.521337
0.894147
0.656067
0.202577
0.292062
0.702144
0.88647
0.899123
0.913855
0.907615
0.762382
0.553174
0.574962
0.713305
0.839694
0.859197
0.82477
0.632258
0.324169
0.228135
0.236054
0.275706
0.434443
0.650696
0.678413
0.621236
0.465105
0.262752
0.121986
0.0672699
0.0706923
0.128803
0.193303
0.184852
0.124878
0.0568946
0.0248428
0.00788467
9.33955e-05
7.00287e-14
7.57312e-14
7.00287e-14
0.000509961
0.00586346
0.00369672
0.0533021
0.338507
0.352028
0.328062
0.0470453
0.00343545
0.0471488
0.562285
0.83021
0.830214
0.446627
0.0221344
0.0491008
0.118149
0.118134
0.0407191
0.0406545
0.130982
0.697161
0.988244
1
0.937187
0.336245
0.00642315
0.00642208
0.188061
0.783986
0.836489
0.836488
0.634637
0.146614
0.0883649
0.224297
0.419878
0.344141
0.139293
0.037521
0.0193258
0.156377
0.438425
0.293671
0.0202246
0.00527117
0.0478971
0.0616523
0.0303641
0.00340387
0.000204648
3.81266e-05
0.00102385
0.011411
0.0155482
0.00791611
0.000585621
1.98739e-11
1.98687e-11
5.89616e-05
0.000199763
0.000174189
0.000105708
7.67604e-05
2.66679e-05
8.14026e-07
9.82887e-09
9.8289e-09
0.0215004
0.0201065
0.00197464
1.70679e-08
1.70666e-08
6.97281e-09
1.01762e-12
8.9536e-13
8.85779e-13
8.85873e-13
8.83027e-13
8.82406e-13
8.82412e-13
0.0424503
0.108904
0.0914944
0.0142164
1.83078e-12
1.83264e-12
9.53566e-13
9.53557e-13
0.0879807
0.537056
0.575793
0.380616
0.18717
0.102073
0.0261873
1.0383e-12
1.0383e-12
1.0383e-12
1.0383e-12
1.0383e-12
0.0545401
0.689004
0.774776
0.44408
0.00280695
3.31067e-11
5.1219e-10
5.37819e-09
1
1
1
1
1
1
1
1
1
1
1
1
1
1
1
1
1
1
1
1
1
1
1
1
1
1
1
1
1
1
1
1
1
1
1
1
1
1
1
1
1
1
1
1
1
1
1
1
1
1
1
1
1
1
1
1
1
1
1
1
1
1
0.995071
0.967054
0.432659
0.000393116
2.64414e-13
9.24858e-14
5.45417e-14
2.18762e-14
2.18748e-14
3.53878e-15
3.53878e-15
3.53878e-15
1.50727e-14
1.58239e-14
3.41713e-14
4.7013e-14
5.05113e-14
1.75082e-14
3.42857e-14
1.77057e-14
0.00372975
0.00539945
0.00540015
0.0013353
1.1826e-13
1.18336e-13
1.18183e-13
1.18189e-13
1.18097e-13
8.75545e-09
4.75869e-08
4.55822e-08
1.16612e-08
1.68438e-13
0.0323508
0.0600409
0.0584014
0.0168857
1.3344e-13
1.19294e-13
1.19014e-13
0.0174558
0.0377573
0.0502577
0.0556746
0.0473651
0.0304794
0.0175263
0.0179945
0.0237571
0.0325972
0.0308555
0.0260205
0.0184988
0.0070375
5.06416e-05
1.23373e-13
1.32422e-13