/*--------------------------------*- C++ -*----------------------------------*\
| =========                 |                                                 |
| \\      /  F ield         | OpenFOAM: The Open Source CFD Toolbox           |
|  \\    /   O peration     | Version:  2406                                  |
|   \\  /    A nd           | Website:  www.openfoam.com                      |
|    \\/     M anipulation  |                                                 |
\*---------------------------------------------------------------------------*/
FoamFile
{
    version     2.0;
    format      ascii;
    arch        "LSB;label=32;scalar=64";
    class       volScalarField;
    location    "0.1";
    object      alpha.glycerin_0;
}
// * * * * * * * * * * * * * * * * * * * * * * * * * * * * * * * * * * * * * //

dimensions      [0 0 0 0 0 0 0];

internalField   nonuniform List<scalar> 
6250
(
-1.17617e-319
-1.18166e-319
-1.16506e-319
-1.22548e-319
-1.18457e-319
-7.43223e-320
-1.20532e-319
-1.25661e-319
-1.25755e-319
-1.24608e-319
-1.22859e-319
-1.25112e-319
-1.29208e-319
-8.7331e-320
-1.24648e-319
-1.33516e-319
-1.33393e-319
-1.39702e-319
-1.39084e-319
-1.36876e-319
-1.34618e-319
-1.4031e-319
-1.38472e-319
-1.40107e-319
-1.36372e-319
-1.39534e-319
-1.37276e-319
-1.39233e-319
-1.42948e-319
-1.41481e-319
-1.36822e-319
-1.38309e-319
-1.42597e-319
-1.50705e-319
-1.56989e-319
-2.28366e-311
-3.36065e-296
-1.08941e-280
-1.04217e-269
-1.37847e-258
-3.70221e-247
-2.65802e-234
-1.0603e-218
-9.55185e-203
-9.8871e-192
-5.35752e-181
-2.08656e-170
-1.42366e-156
-3.81492e-146
-5.48111e-133
-4.19741e-122
-1.61141e-111
-2.48556e-101
-2.19058e-91
-2.10822e-81
-6.29465e-72
-2.88281e-63
-1.35563e-55
-3.35415e-46
-3.80263e-30
-1.57543e-24
-9.42874e-23
0.126081
0.885092
1
1
1
1
1
1
1
1
1
0.999951
0.999918
0.999918
0.999918
0.999943
0.999998
1
1
0.999988
0.99996
0.999965
0.999992
1
1
1
1
1
1
0.999999
0.999999
0.999999
1
1
1
0.99983
0.999895
1
1
1
1
1
1
1
1
1
1
1
1
1
1
1
1
1
1
1
1
1
0.999999
0.999999
0.999999
0.999999
0.999997
0.999995
0.999995
0.999998
1
0.99996
0.999941
0.999943
0.999965
0.999992
1
1
1
1
0.999998
0.999989
0.999949
0.999911
0.999902
0.999885
0.999998
1
1
0.999992
0.99987
0.999846
0.999989
1
1
1
1
1
1
0.999995
0.999758
0.999209
0.998392
0.998219
0.999969
1
1
0.999975
0.999855
0.999692
0.999528
0.99988
1
1
1
1
1
1
1
1
1
1
1
1
1
1
1
1
1
1
1
0.999989
0.999979
0.999979
0.999982
0.999999
1
1
1
1
1
1
1
1
0.999999
1
1
1
0.999907
0.99989
0.99989
0.999913
0.999996
1
1
1
1
1
1
1
1
1
1
1
1
1
1
1
1
1
1
1
1
1
1
1
1
0.999999
0.999999
0.999999
1
0.999999
1
1
1
1
1
1
1
1
1
1
-1.22449e-319
-1.12805e-319
-1.17044e-319
-1.20033e-319
-1.14727e-319
-7.82748e-320
-1.23339e-319
-1.21115e-319
-1.2742e-319
-1.21412e-319
-1.23788e-319
-1.27405e-319
-1.22884e-319
-7.68816e-320
-1.22548e-319
-1.28867e-319
-1.34737e-319
-1.32321e-319
-1.35246e-319
-1.35848e-319
-1.37311e-319
-1.357e-319
-1.32978e-319
-1.35305e-319
-1.32696e-319
-1.36575e-319
-1.34658e-319
-1.33452e-319
-1.38037e-319
-1.34855e-319
-1.3532e-319
-1.33852e-319
-1.35903e-319
-1.39257e-319
-1.49732e-319
-2.11378e-312
-3.98548e-297
-1.29392e-281
-1.32383e-270
-1.87541e-259
-5.40072e-248
-4.56139e-235
-1.74848e-219
-1.72516e-203
-1.91834e-192
-1.11646e-181
-4.66219e-171
-3.41664e-157
-9.81165e-147
-1.50893e-133
-1.23505e-122
-5.05899e-112
-8.30984e-102
-7.78168e-92
-7.93716e-82
-2.50415e-72
-1.20747e-63
-5.95125e-56
-1.74648e-46
-1.80144e-30
-9.22021e-25
-6.44982e-23
0.00542769
0.0266696
0.534436
0.998252
1
1
1
1
1
1
1
1
1
1
1
1
1
1
1
1
0.996247
0.994378
0.994379
0.998579
1
1
1
1
1
1
1
1
1
1
0.967328
0.939735
0.941641
0.983205
1
1
1
0.982364
0.962408
0.950298
0.945395
0.953938
0.970651
0.983267
0.982445
0.976399
0.96803
0.970257
0.975394
0.982958
0.994333
1
1
1
1
0.996013
0.992417
0.993591
0.996621
0.999615
1
1
1
1
1
0.999658
0.992756
0.990126
0.995523
0.999855
1
1
1
1
1
1
1
0.988046
0.974033
0.972497
0.970931
0.963274
0.959233
0.97809
0.996955
0.999745
0.999956
1
1
0.995269
0.966583
0.957231
0.968046
0.994646
0.990626
0.900939
0.845397
0.890494
0.957261
0.988854
0.997601
0.997151
0.97011
0.941207
0.947224
0.953804
0.969896
0.983399
0.997691
1
0.999985
0.996471
0.989439
0.993215
0.999564
1
1
1
1
1
0.999982
0.999975
0.999999
1
1
1
1
1
1
1
1
1
0.99999
0.999849
0.999836
0.999894
0.999976
1
1
1
1
1
1
1
1
1
0.999999
0.999848
0.999838
0.999861
0.999992
1
0.999949
0.999846
0.999846
0.999954
1
1
1
1
1
1
0.999897
0.998746
0.998744
0.999686
1
1
1
1
1
1
1
1
1
0.994909
0.979612
0.981624
0.98985
0.99906
1
1
1
1
-1.15404e-319
-1.23437e-319
-1.22696e-319
-1.22617e-319
-1.15858e-319
-8.00238e-320
-1.27123e-319
-1.26342e-319
-1.19653e-319
-1.22933e-319
-1.27859e-319
-1.26604e-319
-1.23749e-319
-8.45297e-320
-1.26659e-319
-1.28665e-319
-1.3198e-319
-1.35577e-319
-1.32044e-319
-1.36273e-319
-1.34257e-319
-1.31802e-319
-1.33482e-319
-1.31214e-319
-1.34435e-319
-1.38561e-319
-1.3325e-319
-1.31436e-319
-1.38343e-319
-1.36713e-319
-1.33264e-319
-1.38783e-319
-1.39791e-319
-1.41841e-319
-1.49307e-319
-3.81102e-313
-7.59939e-298
-2.38992e-282
-2.58631e-271
-3.87218e-260
-1.17694e-248
-1.16952e-235
-4.29364e-220
-4.38622e-204
-5.11697e-193
-3.11834e-182
-1.36131e-171
-1.03983e-157
-3.10738e-147
-4.95927e-134
-4.20301e-123
-1.77818e-112
-3.0088e-102
-2.89435e-92
-3.02354e-82
-9.73718e-73
-4.77419e-64
-2.38162e-56
-7.51878e-47
-7.24657e-31
-4.25669e-25
1.77083e-12
1.8104e-12
1.85086e-12
0.0349973
0.0842619
0.16087
0.659308
0.979672
0.855882
0.779972
0.909774
0.990489
0.978079
0.944365
0.940513
0.955813
0.984052
0.997127
0.996145
0.998651
1
1
1
0.999163
0.998964
0.99977
1
0.961867
0.783735
0.892863
0.999778
1
1
1
1
1
0.999983
0.998194
0.480284
0.105748
0.347088
0.800145
0.707659
0.295739
0.113421
0.101136
0.0863705
0.0941587
0.247458
0.453538
0.425866
0.280461
0.156727
0.14193
0.185687
0.402576
0.70711
0.772974
0.764128
0.71538
0.534864
0.331738
0.321727
0.394428
0.567571
0.765688
0.893889
0.938767
0.931826
0.868224
0.801531
0.812528
0.881194
0.946206
0.973614
0.99011
0.999617
1
1
1
0.999246
0.989994
0.989971
0.949237
0.569298
0.516446
0.516434
0.7437
0.988034
0.990159
0.948748
0.453474
0.322581
0.754727
0.99526
0.913846
0.722816
0.722816
0.781584
0.986524
0.994643
0.690255
0.0950609
0.0759241
0.0759225
0.221405
0.798402
0.949577
0.937262
0.643142
0.137744
0.0706029
0.227218
0.819744
0.975772
0.967115
0.835254
0.395026
0.450803
0.799109
0.917189
0.891524
0.776835
0.760067
0.861169
0.988032
0.999975
0.994505
0.977603
0.985144
0.997795
0.999933
0.999966
0.999948
0.999978
1
1
1
0.999705
0.998546
0.997882
0.998024
0.998789
0.999764
1
1
1
1
0.993611
0.978251
0.993039
0.999999
0.999999
0.999998
0.999999
1
1
1
0.999997
0.999997
1
1
0.878446
0.731606
0.750067
0.936731
1
1
1
1
0.774699
0.340054
0.328628
0.809799
1
1
1
1
1
1
1
0.959615
0.461527
0.420269
0.588235
0.976062
1
1
1
-1.1652e-319
-1.16417e-319
-1.17296e-319
-1.1992e-319
-1.20458e-319
-7.59725e-320
-1.20433e-319
-1.21456e-319
-1.27084e-319
-1.20552e-319
-1.24287e-319
-1.22652e-319
-1.25641e-319
-7.98262e-320
-1.23507e-319
-1.30122e-319
-1.33205e-319
-1.36822e-319
-1.34188e-319
-1.36026e-319
-1.3279e-319
-1.36915e-319
-1.31155e-319
-1.3699e-319
-1.35112e-319
-1.33892e-319
-1.31505e-319
-1.35087e-319
-1.34564e-319
-1.35325e-319
-1.34134e-319
-1.35967e-319
-1.38393e-319
-1.3865e-319
-1.47558e-319
-8.48509e-314
-1.63628e-298
-5.24494e-283
-5.94345e-272
-9.3004e-261
-2.94981e-249
-3.2994e-236
-1.30203e-220
-1.23128e-204
-1.48524e-193
-9.33736e-183
-4.19184e-172
-3.29024e-158
-1.00719e-147
-1.64228e-134
-1.41852e-123
-6.10029e-113
-1.04634e-102
-1.01734e-92
-1.07078e-82
-3.4624e-73
-1.69775e-64
-8.42983e-57
-2.18139e-47
-2.493e-31
-1.6378e-25
5.76292e-13
1.79562e-12
7.31079e-11
8.36429e-11
1.20615e-10
1.22883e-10
0.0280793
0.139243
0.242206
0.255249
0.3088
0.389792
0.330765
0.172753
0.078109
0.0432592
0.0205164
0.00364945
0.00106541
0.381875
0.906721
0.902275
0.775932
0.743206
0.816976
0.937873
0.999216
0.946541
0.777173
0.79729
0.968705
1
0.722218
0.570988
0.570981
0.852204
0.999718
0.999737
0.721436
0.0788996
0.00816631
0.0534928
0.0539986
0.0182993
9.63231e-12
1.53177e-11
1.53237e-11
1.84518e-11
3.61696e-11
0.000209597
5.89333e-05
4.95321e-12
6.98588e-12
8.24639e-12
1.02978e-11
3.58244e-12
1.1161e-12
7.0793e-12
1.56259e-11
8.2592e-12
1.1269e-12
1.09396e-12
1.04502e-11
1.91209e-11
1.91213e-11
3.10382e-11
0.000757826
0.155271
0.231182
0.121492
0.019766
0.0324685
0.175936
0.220986
0.179716
0.277266
0.671861
0.95302
0.981744
0.986889
0.939373
0.527943
0.137849
0.190019
0.551249
0.872608
0.884025
0.894549
0.971332
0.622001
0.0334279
3.01924e-09
3.0226e-09
0.267225
0.913133
0.95842
0.958377
0.981812
0.994376
0.994378
0.994646
0.854106
0.255385
0.105074
0.272239
0.199247
0.0191537
2.92108e-10
2.92111e-10
2.92108e-10
2.92111e-10
0.0179056
0.370652
0.620305
0.345681
0.014706
1.75965e-07
0.10773
0.425844
0.260706
0.0558992
0.0513044
0.0518684
0.0518841
0.0988673
0.695882
0.999975
0.983628
0.457333
0.030236
0.352839
0.957782
0.999969
0.999969
0.940787
0.757499
0.763023
0.859308
0.939874
0.942416
0.923233
0.918099
0.94321
0.993139
1
1
1
0.986901
0.976381
0.976668
0.991693
0.999683
1
1
1
0.932434
0.915029
0.916583
0.991073
1
0.974892
0.707818
0.685212
0.710636
0.956424
1
1
0.705249
0.318822
0.318821
0.611252
0.609972
0.211734
0.0518039
0.0905846
0.106711
0.10831
0.301137
0.37704
0.264205
0.367036
0.838417
0.911079
0.911105
0.520012
0.103312
0.421489
0.972114
1
-1.14895e-319
-1.19954e-319
-1.19075e-319
-1.17731e-319
-1.17069e-319
-7.64418e-320
-1.21515e-319
-1.27e-319
-1.21511e-319
-1.19465e-319
-1.20305e-319
-1.2735e-319
-1.2738e-319
-8.56315e-320
-1.25804e-319
-1.32731e-319
-1.38116e-319
-1.33146e-319
-1.30048e-319
-1.30157e-319
-1.32345e-319
-1.31871e-319
-1.36174e-319
-1.33245e-319
-1.35517e-319
-1.31866e-319
-1.36234e-319
-1.38259e-319
-1.33126e-319
-1.37316e-319
-1.31268e-319
-1.3945e-319
-1.31204e-319
-1.41698e-319
-1.49089e-319
-1.96864e-314
-3.73661e-299
-1.20639e-283
-1.41997e-272
-2.30267e-261
-7.55117e-250
-9.45196e-237
-3.59306e-221
-3.43366e-205
-4.24165e-194
-2.7245e-183
-1.24498e-172
-9.95246e-159
-3.09045e-148
-5.10201e-135
-4.44984e-124
-1.92736e-113
-3.32048e-103
-3.23325e-93
-3.39726e-83
-1.09273e-73
-5.30822e-65
-2.59861e-57
-5.45447e-48
-7.32974e-32
-5.33178e-26
1.24375e-13
5.43868e-13
4.7597e-11
8.14857e-11
3.31918e-10
1.20577e-09
2.0615e-10
1.9258e-10
1.97857e-10
2.04584e-10
2.18154e-10
2.15404e-10
2.28974e-10
2.39953e-10
2.4511e-10
2.4299e-10
3.1095e-06
0.000873089
0.00106468
0.000946985
0.00171153
0.00113672
2.109e-12
2.10883e-12
2.11062e-12
2.10943e-12
2.58965e-12
0.0715778
0.71401
0.987141
0.987155
0.987168
0.981482
0.981403
0.981407
0.433198
0.246502
0.297985
0.62711
0.334056
0.0051324
1.52675e-11
1.41653e-11
1.41818e-11
9.65067e-12
1.45911e-11
0.000568504
0.000634293
0.000634037
0.000141474
1.39778e-12
1.39797e-12
1.19295e-12
1.15018e-12
1.14268e-12
2.60309e-09
1.53967e-11
2.96787e-06
2.25298e-06
7.63947e-08
2.05549e-11
2.3575e-12
6.20495e-06
2.22487e-05
2.22467e-05
3.18686e-06
1.25467e-09
1.23021e-09
1.20915e-09
1.18336e-09
1.17337e-09
1.17619e-09
1.16647e-09
1.17619e-09
1.16647e-09
1.17645e-09
1.16647e-09
0.0756677
0.3208
0.238524
0.0294869
9.74145e-10
9.73441e-10
9.73702e-10
9.73441e-10
9.73702e-10
9.73441e-10
0.00226577
0.435246
0.50933
0.108062
3.02187e-09
1.52132e-07
1.01275e-09
1.00965e-09
1.01218e-09
1.02096e-09
0.417825
0.929874
0.714016
0.0978263
2.61477e-09
2.60469e-09
0.179926
0.623977
0.625897
0.558377
0.0852278
2.92108e-10
7.00084e-05
4.45774e-05
2.16376e-10
2.16358e-10
2.16376e-10
2.16358e-10
2.16376e-10
1.76881e-07
2.17965e-10
2.17964e-10
2.17965e-10
2.18473e-10
2.18531e-10
0.295458
0.913775
0.947328
0.947329
0.800986
0.140839
7.8163e-10
7.64665e-10
0.0261051
0.62052
0.996325
0.999964
0.812218
0.119852
7.14708e-10
7.10503e-10
0.00814103
0.018701
0.0189114
0.0189316
0.325313
0.960091
0.98738
0.953979
0.961963
0.990179
0.992921
0.969916
0.762892
0.77386
0.882714
0.967657
0.986706
0.986696
0.986621
0.986025
0.996567
1
1
0.757709
0.685214
0.716797
0.964024
1
0.999503
0.996515
0.996515
0.891328
0.234297
0.0410361
0.0410354
0.0410361
0.0410354
0.150976
0.597968
0.650887
0.187868
0.0710694
0.0709802
0.372379
0.227212
0.0448728
0.044865
0.0448695
0.044865
0.238528
0.932002
-1.14238e-319
-1.20705e-319
-1.20053e-319
-1.23917e-319
-1.16323e-319
-8.04981e-320
-1.21703e-319
-1.27019e-319
-1.19386e-319
-1.19747e-319
-1.26649e-319
-1.25028e-319
-1.24218e-319
-9.60217e-320
-1.22504e-319
-1.28042e-319
-1.29924e-319
-1.36105e-319
-1.36169e-319
-1.37429e-319
-1.34905e-319
-1.35779e-319
-1.32973e-319
-1.37909e-319
-1.33052e-319
-1.35908e-319
-1.30448e-319
-1.34168e-319
-1.31002e-319
-1.31649e-319
-1.38017e-319
-1.36224e-319
-1.37918e-319
-1.37123e-319
-1.48709e-319
-4.34481e-315
-8.51722e-300
-2.69637e-284
-3.27874e-273
-5.47919e-262
-1.84738e-250
-2.43692e-237
-9.54842e-222
-8.98536e-206
-1.12971e-194
-7.36806e-184
-3.39876e-173
-2.75603e-159
-8.63241e-149
-1.43355e-135
-1.25495e-124
-5.44184e-114
-9.36037e-104
-9.07269e-94
-9.45779e-84
-3.00691e-74
-1.43763e-65
-6.89189e-58
-1.49991e-48
-1.82732e-32
-1.46641e-26
1.88818e-14
1.52825e-13
1.11018e-11
3.93647e-11
8.30028e-11
9.60466e-10
1.32816e-09
1.30148e-09
1.84287e-10
7.07261e-09
2.68842e-08
2.68917e-08
3.31023e-09
2.6201e-10
9.33514e-07
1.12477e-06
8.17243e-07
3.37738e-11
1.13475e-11
1.14191e-11
3.29493e-12
3.36188e-12
3.35915e-12
2.5207e-12
2.64631e-12
2.90664e-12
2.73678e-12
2.72375e-12
0.0285663
0.0436171
0.0810506
0.398579
0.413159
0.126656
0.0788026
0.494208
0.827128
0.827084
0.827128
0.554378
0.0296538
0.000975672
0.000852738
5.81488e-05
9.63451e-12
3.04187e-06
5.10677e-06
1.40273e-06
7.31262e-12
6.54506e-12
2.16548e-12
0.00699746
0.0183165
0.0183199
0.00860827
2.62542e-09
1.97214e-07
4.06982e-06
4.20647e-06
2.13352e-06
8.47514e-11
5.31821e-12
3.23006e-11
3.23804e-11
5.57484e-11
1.57112e-05
1.96176e-05
3.6197e-06
1.2475e-09
2.1632e-05
2.40133e-05
1.88888e-05
4.05381e-07
1.6312e-05
1.69098e-05
1.51739e-05
3.56925e-06
2.74511e-09
2.76912e-09
2.7398e-09
2.76381e-09
2.90242e-06
3.57207e-06
1.09404e-06
8.11976e-09
2.06033e-07
1.90495e-07
7.32628e-09
7.32629e-09
7.32628e-09
0.00452592
3.01924e-09
1.29003e-06
2.34286e-07
2.47639e-08
3.15311e-07
4.75222e-07
2.36842e-09
2.35256e-09
2.36458e-09
2.36085e-09
4.01448e-07
1.17211e-07
1.21459e-09
1.21174e-09
1.31914e-08
1.23899e-08
0.000179293
9.07985e-05
9.91755e-05
0.000107072
7.27655e-05
1.33261e-06
2.16358e-10
9.73722e-08
2.62074e-06
2.77795e-06
1.5909e-06
2.17999e-10
0.000686796
0.00153753
0.00153603
0.000178569
9.1434e-10
9.15379e-10
0.0541823
0.432074
0.325815
0.0207043
7.64677e-10
7.64665e-10
7.68355e-10
7.64745e-10
7.76595e-10
7.76572e-10
8.05907e-10
3.7733e-07
2.9282e-08
7.1555e-10
6.4331e-10
0.47776
0.973962
0.981941
0.990165
0.981909
0.419815
0.00206483
5.8303e-07
0.377192
0.953565
0.702641
0.0911717
0.0508842
0.0565123
0.0476424
0.00964855
0.0748096
0.677352
0.996595
0.988845
0.950466
0.907105
0.908308
0.936939
0.981407
1
0.973364
0.578013
0.495991
0.495547
0.787639
0.929298
0.929322
0.929322
0.766128
0.0821716
0.274018
0.900871
0.988888
0.981501
0.459724
0.321442
0.341559
0.781124
0.927274
0.927221
0.530199
0.241746
0.388916
-1.17924e-319
-1.15997e-319
-1.19065e-319
-1.16081e-319
-1.1493e-319
-7.87195e-320
-1.19346e-319
-1.2528e-319
-1.23353e-319
-1.19045e-319
-1.21007e-319
-1.20261e-319
-1.19594e-319
-1.02785e-319
-1.27138e-319
-1.24702e-319
-1.37419e-319
-1.38309e-319
-1.35913e-319
-1.32395e-319
-1.37202e-319
-1.30621e-319
-1.34519e-319
-1.33437e-319
-1.34855e-319
-1.349e-319
-1.35942e-319
-1.37123e-319
-1.36081e-319
-1.32039e-319
-1.38091e-319
-1.36767e-319
-1.35616e-319
-1.38531e-319
-1.45819e-319
-8.99874e-316
-1.73896e-300
-5.59964e-285
-7.00542e-274
-1.20138e-262
-4.14598e-251
-5.82661e-238
-2.36629e-222
-2.12968e-206
-2.71325e-195
-1.78893e-184
-8.33228e-174
-6.7915e-160
-2.13559e-149
-3.55298e-136
-3.10822e-125
-1.34347e-114
-2.29697e-104
-2.20615e-94
-2.27098e-84
-7.10161e-75
-3.32446e-66
-1.55208e-58
-4.38108e-49
-3.82079e-33
-3.37924e-27
2.0652e-15
2.61094e-14
6.05218e-13
6.69919e-12
1.06393e-11
1.41326e-10
7.27278e-10
1.20113e-09
8.05062e-10
1.13361e-09
5.84306e-09
6.77204e-09
1.31963e-09
2.62479e-10
2.67323e-07
3.67304e-07
9.01477e-08
4.78122e-11
7.11917e-07
3.17505e-06
3.18137e-06
1.43426e-06
3.18369e-12
3.27327e-12
3.28156e-12
3.64067e-12
4.00978e-12
3.62973e-12
3.35849e-12
3.37585e-12
3.33925e-12
0.000134603
0.000250366
1.26787e-10
1.05402e-10
0.0238966
0.0470733
0.0455539
0.0290629
0.0138063
0.0172915
0.0164403
0.00458762
3.93218e-12
1.8611e-09
3.13942e-09
7.71158e-12
1.21049e-06
1.87485e-06
1.87538e-06
2.15621e-07
3.60778e-11
0.00879409
0.0183177
0.0141681
0.00066562
2.15237e-07
4.57478e-07
7.99867e-07
7.96682e-07
2.04685e-07
1.02424e-11
0.00115467
0.00247176
0.00247111
0.00102296
1.63928e-06
1.47767e-06
1.46726e-06
3.05861e-06
4.13373e-06
1.64905e-05
9.2438e-06
1.1692e-06
1.28903e-06
1.33278e-06
1.42113e-06
1.41346e-05
5.16969e-05
5.14278e-05
1.98233e-05
1.22041e-06
4.6484e-07
1.19377e-06
7.09417e-07
1.90722e-07
1.90609e-07
2.82555e-06
3.25996e-06
2.30133e-06
6.52971e-08
5.23223e-07
1.85623e-06
2.55338e-06
2.64831e-06
3.98485e-06
5.57279e-06
5.55988e-06
5.71975e-06
5.08628e-06
3.22974e-06
7.68936e-07
1.416e-06
1.60735e-06
1.527e-06
1.16864e-06
2.79441e-06
6.69103e-06
1.02633e-05
9.17629e-06
5.77884e-06
1.92482e-06
1.04028e-06
1.04343e-06
1.01713e-06
6.53439e-07
6.51784e-07
4.13972e-06
4.26404e-06
4.54279e-07
2.11204e-12
2.11207e-12
2.13817e-12
1.97406e-08
1.65929e-08
5.83901e-12
-1.52428e-30
4.57145e-15
5.19187e-18
1.60474e-06
2.25945e-06
6.46254e-07
7.78396e-10
4.21911e-06
1.39151e-05
1.3914e-05
1.19384e-05
1.57401e-06
4.65678e-07
6.80928e-10
6.43015e-10
6.66296e-10
7.02674e-10
7.01348e-08
6.11904e-08
7.58832e-05
2.15839e-05
6.03406e-07
1.27772e-09
0.155047
0.602007
0.579787
0.168043
4.03066e-12
0.00519651
0.00654731
0.00706035
0.0177199
0.0348708
0.0342798
0.0215131
0.0121851
0.00892688
0.00466185
3.3448e-05
0.160907
0.743723
0.788637
0.783484
0.234888
2.89379e-10
3.03166e-10
3.11694e-10
3.2364e-10
0.000148902
3.36922e-05
0.0810623
0.784526
0.988888
0.988888
0.983859
0.921323
0.960852
0.975397
0.975373
0.762191
0.627586
0.570989
0.389094
-1.14109e-319
-1.18156e-319
-1.19529e-319
-1.15789e-319
-1.15666e-319
-7.69211e-320
-1.26076e-319
-1.24208e-319
-1.23699e-319
-1.1907e-319
-1.24376e-319
-1.20093e-319
-1.20448e-319
-8.3838e-320
-1.21881e-319
-1.29455e-319
-1.38007e-319
-1.34346e-319
-1.38205e-319
-1.35665e-319
-1.38077e-319
-1.34386e-319
-1.35453e-319
-1.36071e-319
-1.36491e-319
-1.31145e-319
-1.37666e-319
-1.32049e-319
-1.36629e-319
-1.33185e-319
-1.33576e-319
-1.29529e-319
-1.32746e-319
-1.3449e-319
-1.45512e-319
-1.6875e-316
-3.1894e-301
-1.0362e-285
-1.3302e-274
-2.33479e-263
-8.22508e-252
-1.16807e-238
-4.43577e-223
-4.42477e-207
-5.69558e-196
-3.78483e-185
-1.77488e-174
-1.44923e-160
-4.56065e-150
-7.57578e-137
-6.6009e-126
-2.83425e-115
-4.79996e-105
-4.55186e-95
-4.60951e-85
-1.41211e-75
-6.44457e-67
-2.91638e-59
-1.22182e-49
-6.59338e-34
-6.42595e-28
1.76603e-16
5.89842e-15
6.26128e-14
1.46419e-12
3.09102e-12
1.44573e-11
7.67744e-11
2.44151e-10
2.64291e-10
1.88794e-10
5.90182e-11
4.00823e-11
4.03094e-11
4.25934e-08
5.85781e-08
2.60348e-08
8.9768e-10
3.98377e-11
2.59975e-11
1.17127e-06
3.17504e-06
3.18138e-06
1.37328e-06
1.00702e-11
6.5327e-12
5.59517e-12
5.00781e-12
5.12422e-12
4.85545e-12
4.69117e-12
4.65655e-12
4.73586e-11
6.59683e-11
1.24621e-10
9.50621e-11
3.11054e-12
2.60714e-12
2.65255e-12
2.77098e-12
3.09321e-12
3.04697e-12
3.0521e-12
3.04262e-12
3.91798e-12
4.66562e-12
4.7474e-12
5.02245e-12
6.33954e-09
3.27758e-08
6.65307e-08
4.33773e-08
3.55115e-11
4.52369e-05
0.000319675
0.000439813
0.000438305
0.000438104
0.000437903
0.000437702
0.000145561
2.0066e-07
8.71285e-06
6.60948e-05
3.62795e-05
0.000122445
0.0011955
0.00126497
0.00126552
0.000362016
1.60291e-07
1.60412e-07
2.55108e-07
4.83744e-07
3.11942e-07
1.26402e-07
1.15567e-07
1.15743e-07
0.000640315
0.000892831
0.000892831
0.000892831
0.000202225
4.02799e-07
4.01948e-07
7.42828e-07
1.42149e-06
1.32572e-06
1.05701e-06
3.88805e-07
1.49994e-07
6.56894e-08
1.33489e-06
6.40356e-06
6.52752e-06
6.5323e-06
3.12001e-06
2.95834e-06
2.95852e-06
1.39707e-05
2.56698e-05
2.56734e-05
1.50156e-05
4.60662e-08
9.79368e-09
9.63357e-09
1.61477e-06
1.9435e-05
1.9933e-05
1.99328e-05
3.2857e-06
6.36356e-07
6.29974e-07
7.1301e-06
7.65594e-06
6.78927e-06
8.31431e-07
6.53439e-07
1.28826e-06
1.90336e-06
1.32807e-06
2.25693e-07
2.11204e-12
2.11206e-12
8.13869e-10
8.90146e-10
2.32002e-10
-4.76848e-25
6.86371e-14
1.59394e-17
3.08298e-09
2.27841e-09
1.76321e-06
1.9608e-06
1.49746e-06
3.5298e-07
1.4259e-07
1.45797e-07
1.1383e-07
7.49657e-08
1.31967e-08
6.42891e-10
1.23355e-06
1.5619e-05
1.59572e-05
1.19223e-05
8.2032e-07
1.31258e-09
1.30303e-09
1.28345e-09
0.000257646
0.0010141
0.000734161
0.000396159
4.02786e-12
0.00608941
0.0923231
0.0968436
0.0968701
0.0260311
2.30336e-09
2.07017e-09
0.000294404
0.00163836
0.00111844
3.57589e-05
3.17755e-09
3.25698e-09
5.25133e-09
3.54042e-10
2.60431e-10
2.60458e-10
2.75601e-10
4.3745e-05
7.51093e-05
7.52513e-05
3.37163e-05
3.36922e-05
0.0191369
0.36366
0.469816
0.174655
0.00674264
0.358919
0.951348
0.975397
0.600899
0.121175
0.372196
0.505674
-1.1865e-319
-1.20898e-319
-1.20483e-319
-1.23783e-319
-1.1527e-319
-7.93371e-320
-1.26955e-319
-1.1864e-319
-1.21466e-319
-1.1866e-319
-1.24697e-319
-1.23566e-319
-1.24613e-319
-8.92332e-320
-1.23749e-319
-1.28689e-319
-1.32701e-319
-1.35661e-319
-1.37232e-319
-1.30547e-319
-1.33551e-319
-1.3195e-319
-1.36584e-319
-1.36248e-319
-1.33887e-319
-1.34579e-319
-1.34633e-319
-1.33121e-319
-1.29292e-319
-1.34376e-319
-1.33823e-319
-1.34608e-319
-1.33324e-319
-1.31748e-319
-1.4444e-319
-2.6549e-317
-5.09572e-302
-1.64118e-286
-2.15774e-275
-3.86893e-264
-1.38818e-252
-2.13061e-239
-8.35211e-224
-7.77714e-208
-1.00927e-196
-6.74456e-186
-3.17784e-175
-2.59227e-161
-8.14118e-151
-1.34698e-137
-1.16573e-126
-4.95825e-116
-8.29348e-106
-7.74198e-96
-7.68826e-86
-2.29954e-76
-1.01937e-67
-4.45336e-60
-2.46577e-50
-9.15937e-35
-9.83995e-29
1.4551e-17
2.3222e-15
7.21898e-15
3.24968e-13
7.04356e-13
3.8133e-12
5.82393e-12
1.57342e-11
2.06497e-11
2.06978e-11
9.00751e-12
2.19543e-11
1.53361e-09
5.07273e-09
2.76144e-09
4.52062e-10
1.15963e-10
5.72406e-11
2.57761e-11
2.86125e-11
6.03485e-07
2.36938e-06
7.40016e-07
1.46176e-11
6.03017e-12
6.02863e-12
6.04473e-12
8.2637e-12
1.13109e-11
2.00862e-11
3.62221e-11
5.35373e-11
5.5812e-11
6.13184e-11
6.09323e-11
4.76401e-11
3.25824e-11
2.52744e-11
1.98446e-11
1.60565e-11
1.37828e-11
1.21054e-11
1.09097e-11
9.6676e-12
8.30033e-12
7.52654e-12
7.02107e-12
1.75131e-11
2.49755e-11
1.13514e-11
1.6438e-11
3.46198e-11
3.7326e-12
5.33238e-12
1.63858e-11
3.84407e-07
1.77498e-06
3.68336e-06
4.8331e-06
6.11659e-06
6.56952e-06
6.40937e-06
2.80397e-06
1.96375e-06
2.91712e-06
8.23326e-06
1.52206e-05
2.05531e-05
1.90872e-05
1.43072e-05
1.81702e-05
1.81709e-05
1.81702e-05
1.81709e-05
1.81702e-05
4.47862e-06
6.41102e-06
1.63255e-05
2.21515e-05
2.19556e-05
2.14084e-05
1.80391e-05
1.11216e-06
1.66389e-05
2.70855e-05
2.7094e-05
2.60044e-05
2.70344e-05
2.70397e-05
2.70253e-05
2.70397e-05
2.70345e-05
7.2132e-06
1.21782e-09
1.7465e-11
1.79492e-11
2.1781e-05
2.56657e-05
2.56664e-05
2.56721e-05
2.56622e-05
4.81021e-06
3.00296e-11
1.03505e-08
1.17149e-08
1.17271e-08
6.20081e-07
1.83882e-05
1.99321e-05
1.99329e-05
1.90686e-05
1.97315e-06
6.03897e-12
6.4851e-11
4.03134e-11
4.3404e-11
1.16816e-06
1.68084e-05
1.72118e-05
1.72117e-05
8.45099e-06
6.62158e-12
2.11204e-12
8.07173e-12
2.94408e-12
4.18643e-12
4.2447e-06
1.30661e-05
1.30657e-05
1.30686e-05
4.62119e-06
1.79185e-08
1.77208e-08
1.0807e-08
6.15303e-09
6.49378e-09
5.97089e-06
7.1615e-06
7.16153e-06
7.1615e-06
1.37392e-06
1.05418e-09
1.33894e-07
3.35132e-07
1.05459e-06
1.32502e-06
1.31406e-06
3.50358e-07
8.48319e-09
4.08111e-10
3.24121e-10
9.43631e-11
3.96188e-12
4.02517e-12
3.96188e-12
3.96188e-12
4.70589e-10
8.67514e-10
4.45269e-10
1.4609e-08
1.5121e-08
1.69066e-09
1.78354e-09
1.70617e-09
2.38912e-07
4.27155e-07
7.11966e-07
5.58217e-07
1.29694e-08
2.60105e-10
1.92493e-05
2.26839e-05
1.50573e-05
6.75869e-07
4.11804e-05
0.000177496
0.000176799
1.3276e-05
0.000722762
0.0012357
0.000183808
1.92813e-06
0.00247332
0.0331659
0.299683
0.418579
0.122728
0.00116807
0.295691
-1.14356e-319
-1.13665e-319
-1.20636e-319
-1.1616e-319
-1.19648e-319
-8.0671e-320
-1.22933e-319
-1.18605e-319
-1.2198e-319
-1.24806e-319
-1.25759e-319
-1.21229e-319
-1.24223e-319
-8.61898e-320
-1.19954e-319
-1.25898e-319
-1.37696e-319
-1.34168e-319
-1.35833e-319
-1.36357e-319
-1.35097e-319
-1.37054e-319
-1.37014e-319
-1.35127e-319
-1.35087e-319
-1.31397e-319
-1.31481e-319
-1.36747e-319
-1.35997e-319
-1.35507e-319
-1.29475e-319
-1.27973e-319
-1.332e-319
-1.38309e-319
-1.42726e-319
-3.46909e-318
-6.63554e-303
-2.10453e-287
-2.83088e-276
-5.17994e-265
-1.89183e-253
-2.98614e-240
-1.05576e-224
-1.09947e-208
-1.43657e-197
-9.63942e-187
-4.54282e-176
-3.70588e-162
-1.15976e-151
-1.90615e-138
-1.63481e-127
-6.8714e-117
-1.13234e-106
-1.03784e-96
-1.00794e-86
-2.9349e-77
-1.25978e-68
-5.29503e-61
-2.97272e-51
-9.82851e-36
-1.16463e-29
7.90543e-19
6.91018e-16
1.58343e-15
5.21106e-14
1.03531e-13
5.42137e-13
6.24717e-13
1.76379e-12
1.85272e-12
3.12297e-12
3.26935e-12
1.68167e-11
5.2215e-11
2.85487e-11
1.40887e-11
2.54055e-11
3.45603e-11
3.50963e-11
2.79124e-11
1.8475e-11
2.64043e-09
2.15173e-08
3.00077e-08
2.95959e-08
2.01425e-08
3.19269e-09
6.05132e-12
2.98482e-11
7.89199e-11
1.41884e-10
1.78592e-10
1.82742e-10
1.82345e-10
1.76093e-10
1.49089e-10
1.06329e-10
6.41482e-11
3.72102e-11
2.46778e-11
2.11009e-11
1.68639e-11
1.45638e-11
1.14808e-11
9.93638e-12
7.88781e-12
6.72945e-12
5.6502e-12
4.87627e-12
4.33478e-12
3.81632e-12
3.59573e-12
3.73433e-12
3.73074e-12
3.72596e-12
3.89541e-12
6.55166e-12
1.74698e-11
9.17743e-12
2.03969e-11
4.3971e-12
2.63509e-08
2.55124e-08
1.20181e-08
2.68634e-09
1.80764e-11
7.09589e-12
3.15096e-11
9.87127e-12
2.30285e-11
2.13497e-08
8.97918e-08
1.86151e-07
2.89778e-07
4.81903e-07
5.74557e-07
5.32464e-07
4.4675e-07
3.30315e-07
2.49635e-07
2.4049e-07
2.43419e-07
2.49236e-07
2.44845e-07
2.73874e-07
3.38347e-07
4.48324e-07
4.91125e-07
5.79472e-07
6.52568e-07
6.18413e-07
5.96379e-07
9.04588e-07
1.77283e-06
1.05438e-06
9.97885e-09
1.21439e-11
2.17261e-12
1.60853e-12
1.48574e-12
1.47787e-12
1.07856e-11
1.87329e-11
2.49955e-11
2.50614e-07
3.50924e-07
3.37522e-07
6.6572e-08
9.89008e-12
7.7215e-12
7.62754e-12
6.13294e-12
6.03897e-12
6.13294e-12
5.42091e-09
1.0855e-08
1.08527e-08
4.08002e-09
4.50064e-11
3.80492e-10
2.19592e-08
2.24659e-08
9.14097e-09
1.97795e-10
1.13498e-11
2.93617e-12
8.16264e-09
1.09296e-07
2.04099e-07
4.84667e-07
2.34346e-06
2.25127e-06
2.16402e-07
3.09799e-10
3.12306e-10
2.74853e-09
3.44276e-08
3.67475e-08
2.99305e-10
3.22003e-07
3.31432e-06
1.56635e-06
1.02053e-09
1.01356e-09
1.01716e-09
1.0158e-09
1.71041e-08
4.80037e-08
5.4215e-08
4.77908e-08
2.08319e-08
2.26408e-09
3.96188e-12
3.96187e-12
3.96187e-12
3.96187e-12
1.00003e-07
1.84049e-07
1.8085e-07
5.65658e-08
3.62594e-10
2.76528e-09
8.54398e-09
8.7116e-09
4.21637e-09
7.96566e-10
7.53213e-10
4.89581e-07
6.54103e-07
2.91445e-07
7.45163e-09
1.26565e-07
5.04089e-07
6.26506e-07
6.69372e-07
9.61075e-07
2.90288e-06
7.56626e-06
1.26006e-05
2.32274e-07
2.20819e-07
2.39992e-07
1.84742e-06
5.85355e-09
5.93095e-09
5.85355e-09
0.00307696
0.00698152
0.00120247
0.0320441
-1.15157e-319
-1.20942e-319
-1.13961e-319
-1.22e-319
-1.13981e-319
-8.00139e-320
-1.23976e-319
-1.26688e-319
-1.21204e-319
-1.21856e-319
-1.21748e-319
-1.21762e-319
-1.22429e-319
-7.23065e-320
-1.1906e-319
-1.21871e-319
-1.36095e-319
-1.32163e-319
-1.29504e-319
-1.35833e-319
-1.30705e-319
-1.36525e-319
-1.33714e-319
-1.34262e-319
-1.29391e-319
-1.36392e-319
-1.33635e-319
-1.34929e-319
-1.29322e-319
-1.3446e-319
-1.30838e-319
-1.33857e-319
-1.33279e-319
-1.37839e-319
-1.35636e-319
-3.03312e-319
-6.29516e-304
-2.00434e-288
-2.75726e-277
-5.14661e-266
-1.91237e-254
-3.15935e-241
-1.28216e-225
-1.15093e-209
-1.51281e-198
-1.01826e-187
-4.80534e-177
-3.90583e-163
-1.21602e-152
-1.982e-139
-1.68123e-128
-6.96846e-118
-1.12883e-107
-1.01347e-97
-9.60302e-88
-2.71535e-78
-1.12561e-69
-4.53883e-62
-2.45206e-52
-7.55341e-37
-9.86717e-31
3.43491e-20
1.1296e-16
2.67055e-16
5.34589e-15
1.03404e-14
5.25521e-14
7.73015e-14
2.02612e-13
2.41396e-13
5.22094e-13
6.47711e-13
1.76494e-12
1.87223e-12
2.88602e-12
2.92659e-12
4.22495e-12
4.76764e-12
6.16424e-12
6.37632e-12
7.25401e-12
1.12876e-12
1.14152e-11
5.69344e-12
1.18149e-09
2.39867e-09
2.24569e-09
1.71163e-09
1.081e-09
6.09893e-10
3.51138e-10
2.32861e-10
1.81859e-10
1.54183e-10
1.2944e-10
1.00438e-10
6.63434e-11
3.78812e-11
2.27398e-11
1.68611e-11
1.45193e-11
1.12434e-11
9.54618e-12
7.29945e-12
6.03844e-12
4.721e-12
3.64283e-12
2.85564e-12
2.25455e-12
1.76404e-12
1.40958e-12
1.16023e-12
9.9773e-13
9.03274e-13
8.43066e-13
8.2444e-13
8.35203e-13
9.28566e-13
9.4612e-13
1.05967e-12
1.07271e-12
1.50674e-11
2.08112e-12
1.47054e-11
1.00386e-11
6.70456e-12
5.20494e-12
6.51724e-12
7.31702e-12
1.20273e-11
6.80178e-13
1.12756e-11
9.41098e-13
6.31146e-12
1.1038e-12
3.26961e-12
1.29772e-12
3.96818e-12
1.43698e-12
5.02964e-12
1.51223e-12
2.1724e-12
1.74991e-12
1.7599e-12
1.4034e-12
1.4037e-12
1.4034e-12
1.40355e-12
1.4034e-12
1.40355e-12
1.40386e-12
1.4077e-12
1.40838e-12
1.40726e-12
1.40865e-12
4.41159e-12
1.07619e-11
1.35527e-11
1.25864e-11
4.55948e-12
3.12726e-12
6.36948e-08
1.01134e-07
1.02623e-07
3.58089e-08
8.77983e-10
3.38128e-10
3.33307e-10
3.33686e-10
3.33233e-10
3.29604e-10
3.15754e-10
2.83913e-10
2.2898e-10
1.52619e-10
7.47337e-11
5.19978e-11
4.5011e-11
4.50308e-11
4.47123e-11
4.994e-11
4.95388e-11
5.08251e-11
4.3288e-11
4.20641e-11
5.67967e-11
1.58072e-10
8.7292e-11
9.10019e-11
6.89921e-11
9.18403e-11
3.14897e-09
3.88256e-09
3.69566e-09
2.57141e-09
1.17557e-09
3.67305e-10
4.72993e-11
3.15144e-11
9.92645e-12
1.54879e-09
7.34474e-09
6.27122e-09
3.70455e-09
2.97484e-09
3.1393e-09
3.16561e-09
2.77184e-09
2.82597e-09
3.04514e-09
2.38582e-09
1.23964e-09
5.89969e-10
2.36322e-10
8.8104e-11
2.81028e-11
2.82744e-11
5.0667e-08
1.15276e-07
3.36411e-08