/*--------------------------------*- C++ -*----------------------------------*\
| =========                 |                                                 |
| \\      /  F ield         | OpenFOAM: The Open Source CFD Toolbox           |
|  \\    /   O peration     | Version:  2406                                  |
|   \\  /    A nd           | Website:  www.openfoam.com                      |
|    \\/     M anipulation  |                                                 |
\*---------------------------------------------------------------------------*/
FoamFile
{
    version     2.0;
    format      ascii;
    arch        "LSB;label=32;scalar=64";
    class       volScalarField;
    location    "0.1";
    object      alpha.glycerin;
}
// * * * * * * * * * * * * * * * * * * * * * * * * * * * * * * * * * * * * * //

dimensions      [0 0 0 0 0 0 0];

internalField   nonuniform List<scalar> 
6250
(
-1.17617e-319
-1.18166e-319
-1.16506e-319
-1.22548e-319
-1.18457e-319
-7.43223e-320
-1.20532e-319
-1.25661e-319
-1.25755e-319
-1.24608e-319
-1.22859e-319
-1.25112e-319
-1.29208e-319
-8.7331e-320
-1.24648e-319
-1.33516e-319
-1.33393e-319
-1.39702e-319
-1.39084e-319
-1.36876e-319
-1.34618e-319
-1.4031e-319
-1.38472e-319
-1.40107e-319
-1.36372e-319
-1.39534e-319
-1.37276e-319
-1.39233e-319
-1.42948e-319
-1.41481e-319
-1.36822e-319
-1.38309e-319
-1.42597e-319
-1.50705e-319
-1.56989e-319
-2.07178e-311
-3.00439e-296
-9.87805e-281
-9.45418e-270
-1.25115e-258
-3.36211e-247
-2.42012e-234
-9.54086e-219
-8.69395e-203
-9.00749e-192
-4.88604e-181
-1.90513e-170
-1.3017e-156
-3.49344e-146
-5.02827e-133
-3.85848e-122
-1.48476e-111
-2.2964e-101
-2.03022e-91
-1.96101e-81
-5.88011e-72
-2.70649e-63
-1.28029e-55
-3.32557e-46
-3.64838e-30
-1.52786e-24
-9.32834e-23
0.124277
0.883601
1
1
1
1
1
1
1
1
1
0.999952
0.999918
0.999918
0.999918
0.999943
0.999998
1
1
0.999988
0.99996
0.999964
0.999992
1
1
1
1
1
1
0.999999
0.999999
0.999999
1
1
1
0.99983
0.999894
1
1
1
1
1
1
1
1
1
1
1
1
1
1
1
1
1
1
1
1
1
0.999999
0.999999
0.999999
0.999999
0.999997
0.999995
0.999995
0.999998
1
0.99996
0.999941
0.999943
0.999965
0.999992
1
1
1
1
0.999998
0.999989
0.999949
0.999911
0.999902
0.999885
0.999998
1
1
0.999992
0.99987
0.999846
0.999989
1
1
1
1
1
1
0.999995
0.999758
0.999209
0.998392
0.998215
0.999968
1
1
0.999975
0.999855
0.999692
0.999527
0.999879
1
1
1
1
1
1
1
1
1
1
1
1
1
1
1
1
1
1
1
0.999989
0.999979
0.999979
0.999981
0.999999
1
1
1
1
1
1
1
1
0.999999
1
1
1
0.999907
0.99989
0.99989
0.999913
0.999996
1
1
1
1
1
1
1
1
1
1
1
1
1
1
1
1
1
1
1
1
1
1
1
1
0.999999
0.999999
0.999999
1
0.999999
1
1
1
1
1
1
1
1
1
1
-1.22449e-319
-1.12805e-319
-1.17044e-319
-1.20033e-319
-1.14727e-319
-7.82748e-320
-1.23339e-319
-1.21115e-319
-1.2742e-319
-1.21412e-319
-1.23788e-319
-1.27405e-319
-1.22884e-319
-7.68816e-320
-1.22548e-319
-1.28867e-319
-1.34737e-319
-1.32321e-319
-1.35246e-319
-1.35848e-319
-1.37311e-319
-1.357e-319
-1.32978e-319
-1.35305e-319
-1.32696e-319
-1.36575e-319
-1.34658e-319
-1.33452e-319
-1.38037e-319
-1.34855e-319
-1.3532e-319
-1.33852e-319
-1.35903e-319
-1.39257e-319
-1.49732e-319
-1.91536e-312
-3.61191e-297
-1.17279e-281
-1.20046e-270
-1.70153e-259
-4.9029e-248
-4.26518e-235
-1.47801e-219
-1.56961e-203
-1.74701e-192
-1.01783e-181
-4.25649e-171
-3.12285e-157
-8.98181e-147
-1.38382e-133
-1.13497e-122
-4.66003e-112
-7.67537e-102
-7.2102e-92
-7.38125e-82
-2.33876e-72
-1.13341e-63
-5.61975e-56
-1.74801e-46
-1.72836e-30
-8.90302e-25
-6.39644e-23
0.00546838
0.02619
0.531615
0.998086
1
1
1
1
1
1
1
1
1
1
1
1
1
1
1
1
0.996259
0.994378
0.994379
0.998568
1
1
1
1
1
1
1
1
1
1
0.967384
0.939779
0.941616
0.98312
1
1
1
0.982416
0.962454
0.950354
0.945452
0.953978
0.970679
0.983284
0.982454
0.976407
0.968036
0.970263
0.975399
0.982958
0.994327
1
1
1
1
0.996014
0.992414
0.993586
0.996616
0.999612
1
1
1
1
1
0.99966
0.992765
0.990127
0.995517
0.999854
1
1
1
1
1
1
1
0.988085
0.974029
0.972491
0.970927
0.963271
0.959212
0.978053
0.996954
0.999747
0.999956
1
1
0.995301
0.966613
0.957214
0.968012
0.994621
0.990706
0.901173
0.845255
0.890305
0.95714
0.988808
0.997582
0.99717
0.970238
0.94118
0.947193
0.953738
0.969846
0.983347
0.997667
1
0.999987
0.99649
0.989428
0.993171
0.999553
1
1
1
1
1
0.999982
0.999975
0.999999
1
1
1
1
1
1
1
1
1
0.99999
0.99985
0.999836
0.999894
0.999976
1
1
1
1
1
1
1
1
1
0.999999
0.999849
0.999838
0.999861
0.999992
1
0.99995
0.999846
0.999846
0.999953
1
1
1
1
1
1
0.999899
0.998747
0.998744
0.999682
1
1
1
1
1
1
1
1
1
0.994939
0.979614
0.981602
0.98981
0.999047
1
1
1
1
-1.15404e-319
-1.23437e-319
-1.22696e-319
-1.22617e-319
-1.15858e-319
-8.00238e-320
-1.27123e-319
-1.26342e-319
-1.19653e-319
-1.22933e-319
-1.27859e-319
-1.26604e-319
-1.23749e-319
-8.45297e-320
-1.26659e-319
-1.28665e-319
-1.3198e-319
-1.35577e-319
-1.32044e-319
-1.36273e-319
-1.34257e-319
-1.31802e-319
-1.33482e-319
-1.31214e-319
-1.34435e-319
-1.38561e-319
-1.3325e-319
-1.31436e-319
-1.38343e-319
-1.36713e-319
-1.33264e-319
-1.38783e-319
-1.39791e-319
-1.41841e-319
-1.49307e-319
-3.47742e-313
-6.84815e-298
-2.16556e-282
-2.3446e-271
-3.51212e-260
-1.06813e-248
-1.09537e-235
-3.61165e-220
-3.98958e-204
-4.65865e-193
-2.84208e-182
-1.24238e-171
-9.50171e-158
-2.84398e-147
-4.54699e-134
-3.86156e-123
-1.6376e-112
-2.77851e-102
-2.68127e-92
-2.81125e-82
-9.09245e-73
-4.48062e-64
-2.24859e-56
-7.04213e-47
-6.95162e-31
-4.09637e-25
1.62303e-12
1.61771e-12
1.67412e-12
0.0346607
0.0842324
0.160013
0.65684
0.979829
0.857116
0.779968
0.9092
0.990489
0.978242
0.944545
0.940582
0.955787
0.984001
0.997132
0.996104
0.998622
1
1
1
0.999173
0.998967
0.999768
1
0.962513
0.783701
0.892437
0.999759
1
1
1
1
1
0.999982
0.998738
0.482366
0.105471
0.346056
0.80011
0.708549
0.296687
0.113549
0.101278
0.0865025
0.0942279
0.247356
0.453562
0.425971
0.280577
0.156761
0.141926
0.185605
0.402363
0.706963
0.772938
0.764102
0.715409
0.534985
0.331732
0.321625
0.394225
0.567306
0.765486
0.893793
0.938729
0.931822
0.868286
0.801504
0.812446
0.881065
0.946138
0.973578
0.99008
0.999611
1
1
1
0.99925
0.990003
0.989976
0.949578
0.5697
0.516446
0.516434
0.742975
0.987996
0.990187
0.94913
0.454443
0.322151
0.753758
0.995293
0.914402
0.722819
0.722818
0.781136
0.986393
0.994643
0.692058
0.0954991
0.0759241
0.0759225
0.220185
0.797086
0.949564
0.937467
0.644565
0.138359
0.070201
0.225858
0.818286
0.975877
0.967181
0.836315
0.395601
0.449678
0.79794
0.917221
0.891781
0.777108
0.759727
0.860433
0.987772
0.999975
0.994554
0.977611
0.985002
0.997745
0.999932
0.999966
0.999949
0.999977
1
1
1
0.99971
0.998555
0.997884
0.998023
0.998784
0.999759
1
1
1
1
0.993731
0.978192
0.992978
0.999999
0.999999
0.999998
0.999999
1
1
1
0.999997
0.999997
1
1
0.880018
0.731109
0.749708
0.936283
1
1
1
1
0.77719
0.340297
0.328052
0.80823
1
1
1
1
1
1
1
0.960309
0.462134
0.420415
0.587236
0.975716
1
1
1
-1.1652e-319
-1.16417e-319
-1.17296e-319
-1.1992e-319
-1.20458e-319
-7.59725e-320
-1.20433e-319
-1.21456e-319
-1.27084e-319
-1.20552e-319
-1.24287e-319
-1.22652e-319
-1.25641e-319
-7.98262e-320
-1.23507e-319
-1.30122e-319
-1.33205e-319
-1.36822e-319
-1.34188e-319
-1.36026e-319
-1.3279e-319
-1.36915e-319
-1.31155e-319
-1.3699e-319
-1.35112e-319
-1.33892e-319
-1.31505e-319
-1.35087e-319
-1.34564e-319
-1.35325e-319
-1.34134e-319
-1.35967e-319
-1.38393e-319
-1.3865e-319
-1.47558e-319
-7.64601e-314
-1.4477e-298
-4.75168e-283
-5.38698e-272
-8.43398e-261
-2.6765e-249
-2.91952e-236
-1.13067e-220
-1.11972e-204
-1.35195e-193
-8.50851e-183
-3.82426e-172
-3.006e-158
-9.21631e-148
-1.50549e-134
-1.30305e-123
-5.61706e-113
-9.6609e-103
-9.4229e-93
-9.95436e-83
-3.2326e-73
-1.59307e-64
-7.95741e-57
-2.18572e-47
-2.39096e-31
-1.57164e-25
5.33487e-13
1.56364e-12
6.46871e-11
8.70088e-11
1.07382e-10
1.13448e-10
0.0277995
0.13862
0.242221
0.255578
0.308894
0.390444
0.331816
0.173595
0.0784239
0.0434444
0.0206586
0.00371978
0.00106248
0.378564
0.905918
0.902366
0.776212
0.742652
0.816127
0.93719
0.999123
0.947498
0.776643
0.797436
0.968444
1
0.724017
0.570997
0.57099
0.850659
0.999689
0.99972
0.724985
0.0806292
0.00797241
0.0534703
0.0541479
0.0184936
2.98171e-11
1.82937e-11
4.89119e-11
5.74908e-11
7.7058e-11
0.000211198
5.96308e-05
1.15608e-11
1.54512e-11
8.18328e-12
9.92186e-12
3.14915e-12
1.11926e-12
3.89882e-12
1.0348e-11
7.23345e-12
1.13335e-12
1.0941e-12
1.20191e-11
2.76079e-11
3.32999e-11
5.3467e-11
0.000704208
0.154953
0.231155
0.121632
0.0197846
0.0323767
0.17566
0.220946
0.179625
0.276759
0.671057
0.952832
0.981714
0.986869
0.939709
0.528985
0.137862
0.189464
0.550226
0.872374
0.883987
0.89445
0.971458
0.623382
0.033861
3.04625e-09
3.04495e-09
0.265311
0.912329
0.958247
0.958204
0.981661
0.994383
0.994385
0.994646
0.855477
0.256993
0.104537
0.272094
0.199907
0.0194351
2.92108e-10
2.92111e-10
2.92108e-10
3.04292e-10
0.0171741
0.368525
0.620946
0.347039
0.0149748
1.7962e-07
0.105913
0.425586
0.261889
0.0560862
0.0511725
0.0518068
0.051822
0.0971742
0.691844
0.999975
0.984656
0.462078
0.0299388
0.348533
0.956221
0.999969
0.999969
0.94205
0.757917
0.762445
0.858272
0.93959
0.942351
0.923307
0.918006
0.942839
0.992906
1
1
1
0.987002
0.976465
0.976628
0.991572
0.999667
1
1
1
0.932973
0.915196
0.916265
0.990823
1
0.976175
0.708839
0.685212
0.709365
0.955419
1
1
0.710063
0.318829
0.318827
0.609677
0.610353
0.215101
0.0516542
0.0903914
0.106895
0.108181
0.300158
0.377614
0.264332
0.365907
0.837348
0.911079
0.911105
0.523098
0.103076
0.419622
0.971603
1
-1.14895e-319
-1.19954e-319
-1.19075e-319
-1.17731e-319
-1.17069e-319
-7.64418e-320
-1.21515e-319
-1.27e-319
-1.21511e-319
-1.19465e-319
-1.20305e-319
-1.2735e-319
-1.2738e-319
-8.56315e-320
-1.25804e-319
-1.32731e-319
-1.38116e-319
-1.33146e-319
-1.30048e-319
-1.30157e-319
-1.32345e-319
-1.31871e-319
-1.36174e-319
-1.33245e-319
-1.35517e-319
-1.31866e-319
-1.36234e-319
-1.38259e-319
-1.33126e-319
-1.37316e-319
-1.31268e-319
-1.3945e-319
-1.31204e-319
-1.41698e-319
-1.49089e-319
-1.77176e-314
-3.38459e-299
-1.09283e-283
-1.28688e-272
-2.08792e-261
-6.85111e-250
-8.50297e-237
-3.16671e-221
-3.12216e-205
-3.8605e-194
-2.48234e-183
-1.13577e-172
-9.09154e-159
-2.82753e-148
-4.67648e-135
-4.08713e-124
-1.77446e-113
-3.06542e-103
-2.99433e-93
-3.15776e-83
-1.02005e-73
-4.98006e-65
-2.45251e-57
-5.52179e-48
-7.02799e-32
-5.1043e-26
1.15852e-13
4.94508e-13
4.19738e-11
7.35755e-11
3.01179e-10
1.09745e-09
1.97857e-10
1.9258e-10
2.07742e-10
2.38972e-10
2.48456e-10
2.36291e-10
2.49689e-10
2.38904e-10
2.55132e-10
2.58986e-10
1.29648e-06
0.000871234
0.00106175
0.000931523
0.00165401
0.00105228
1.74747e-11
2.16132e-12
2.11093e-12
2.11045e-12
2.59498e-12
0.0689671
0.708783
0.987196
0.987209
0.987223
0.981483
0.981387
0.981391
0.43749
0.248183
0.29536
0.628856
0.337501
0.00556612
2.74237e-11
2.74427e-11
1.30738e-11
9.72342e-12
1.45227e-11
0.000558089
0.000634279
0.000634035
0.000151153
4.14443e-11
1.1965e-12
1.19759e-12
1.14271e-12
1.14271e-12
2.5375e-09
2.46039e-11
2.92522e-06
2.27801e-06
8.6013e-08
2.23907e-11
2.57289e-12
6.06851e-06
2.22405e-05
2.22383e-05
3.22425e-06
1.26274e-09
1.22489e-09
1.2094e-09
1.2286e-09
1.25027e-09
1.21953e-09
1.20533e-09
1.21092e-09
1.20119e-09
1.23149e-09
1.22177e-09
0.0752623
0.320521
0.238722
0.0296517
1.11113e-09
1.06027e-09
1.01216e-09
9.74473e-10
1.00096e-09
9.80524e-10
0.00200081
0.434331
0.509669
0.108594
3.03743e-09
1.51978e-07
1.02086e-09
1.0134e-09
1.03413e-09
1.03379e-09
0.415005
0.929446
0.715588
0.0989937
2.69652e-09
2.68644e-09
0.177528
0.623464
0.625613
0.559809
0.0865499
2.92108e-10
6.95933e-05
4.462e-05
2.2299e-10
2.16433e-10
2.16453e-10
2.16433e-10
2.29328e-10
1.8052e-07
2.56014e-10
2.18117e-10
2.32867e-10
2.52328e-10
2.52277e-10
0.288863
0.911592
0.947322
0.947324
0.8051
0.144986
7.64677e-10
7.64665e-10
0.0241291
0.614791
0.996025
0.999964
0.816193
0.12326
7.14708e-10
7.10503e-10
0.0079626
0.0185936
0.0188311
0.0188511
0.318342
0.957573
0.987657
0.954233
0.961667
0.98998
0.99289
0.971352
0.763847
0.772928
0.881545
0.967377
0.986744
0.986735
0.98668
0.986011
0.996453
1
1
0.760434
0.685214
0.715307
0.96282
1
0.999516
0.996517
0.996516
0.895734
0.240404
0.0410361
0.0410354
0.0410361
0.0410354
0.145804
0.594754
0.653533
0.19182
0.0710678
0.0709802
0.37011
0.229823
0.044902
0.044865
0.0448695
0.044865
0.235698
0.930427
-1.14238e-319
-1.20705e-319
-1.20053e-319
-1.23917e-319
-1.16323e-319
-8.04981e-320
-1.21703e-319
-1.27019e-319
-1.19386e-319
-1.19747e-319
-1.26649e-319
-1.25028e-319
-1.24218e-319
-9.60217e-320
-1.22504e-319
-1.28042e-319
-1.29924e-319
-1.36105e-319
-1.36169e-319
-1.37429e-319
-1.34905e-319
-1.35779e-319
-1.32973e-319
-1.37909e-319
-1.33052e-319
-1.35908e-319
-1.30448e-319
-1.34168e-319
-1.31002e-319
-1.31649e-319
-1.38017e-319
-1.36224e-319
-1.37918e-319
-1.37123e-319
-1.48709e-319
-3.95262e-315
-7.70864e-300
-2.4424e-284
-2.97125e-273
-4.96786e-262
-1.6759e-250
-2.20069e-237
-8.48074e-222
-8.16954e-206
-1.02811e-194
-6.71261e-184
-3.10032e-173
-2.51741e-159
-7.89707e-149
-1.31387e-135
-1.15255e-124
-5.00967e-114
-8.6405e-104
-8.40134e-94
-8.78995e-84
-2.80651e-74
-1.34854e-65
-6.50323e-58
-1.35802e-48
-1.75168e-32
-1.40112e-26
1.77498e-14
1.50501e-13
9.73126e-12
3.58757e-11
7.81798e-11
8.62604e-10
1.23274e-09
1.25056e-09
2.41389e-10
4.42313e-09
2.61666e-08
2.66766e-08
5.57744e-09
2.63711e-10
8.4584e-07
1.10356e-06
8.47947e-07
5.57892e-11
4.09474e-11
2.37631e-11
1.0068e-11
1.01624e-11
3.64262e-12
2.5681e-12
2.64121e-12
2.89581e-12
2.63287e-12
1.13282e-11
0.0283181
0.0436549
0.0797593
0.396064
0.414699
0.129381
0.0773585
0.487262
0.827128
0.827084
0.827128
0.560847
0.031965
0.000863577
0.000859908
6.87699e-05
3.78095e-11
2.89497e-06
5.25307e-06
1.487e-06
2.48446e-11
4.55301e-12
1.45911e-12
0.00660477
0.0183165
0.0183198
0.00895194
3.28249e-07
1.47182e-07
4.03473e-06
4.19809e-06
2.21103e-06
8.15791e-10
6.34385e-12
4.33657e-11
5.19506e-11
8.73522e-11
1.51055e-05
1.95183e-05
3.82618e-06
1.25758e-09
2.14421e-05
2.39899e-05
1.8999e-05
4.03144e-07
1.6282e-05
1.69062e-05
1.51906e-05
3.57031e-06
2.91123e-09
2.9383e-09
2.91429e-09
2.94805e-09
2.88756e-06
3.56846e-06
1.10837e-06
7.3969e-09
2.05235e-07
1.90057e-07
7.37398e-09
7.37019e-09
7.37018e-09
0.00454655
3.03479e-09
1.27219e-06
2.21686e-07
2.63765e-08
3.26146e-07
4.98083e-07
2.48405e-09
2.47312e-09
2.48298e-09
2.47097e-09
4.00721e-07
1.18211e-07
1.24507e-09
1.24221e-09
1.4503e-08
1.30874e-08
0.000178408
9.13141e-05
9.89984e-05
0.000106941
7.3041e-05
1.3894e-06
2.36165e-10
8.44305e-08
2.60738e-06
2.77091e-06
1.60214e-06
2.32506e-10
0.00067094
0.00153127
0.00152975
0.000187559
9.18425e-10
9.19443e-10
0.0517793
0.429921
0.328459
0.0218816
7.64677e-10
7.64665e-10
7.64677e-10
7.64665e-10
7.64677e-10
7.64665e-10
7.64769e-10
3.78305e-07
3.64136e-08
7.20584e-10
6.42892e-10
0.466127
0.972809
0.982138
0.989999
0.984172
0.428945
0.00253583
6.68023e-07
0.367193
0.95277
0.709733
0.0937524
0.0515298
0.0565808
0.04801
0.00996041
0.0718336
0.670218
0.996482
0.989119
0.951182
0.907282
0.908079
0.936397
0.981038
1
0.97593
0.582792
0.494216
0.493772
0.783604
0.929279
0.929304
0.929303
0.773088
0.0851507
0.267252
0.895499
0.988888
0.983554
0.464686
0.323635
0.337953
0.774564
0.927329
0.927284
0.5386
0.240143
0.388209
-1.17924e-319
-1.15997e-319
-1.19065e-319
-1.16081e-319
-1.1493e-319
-7.87195e-320
-1.19346e-319
-1.2528e-319
-1.23353e-319
-1.19045e-319
-1.21007e-319
-1.20261e-319
-1.19594e-319
-1.02785e-319
-1.27138e-319
-1.24702e-319
-1.37419e-319
-1.38309e-319
-1.35913e-319
-1.32395e-319
-1.37202e-319
-1.30621e-319
-1.34519e-319
-1.33437e-319
-1.34855e-319
-1.349e-319
-1.35942e-319
-1.37123e-319
-1.36081e-319
-1.32039e-319
-1.38091e-319
-1.36767e-319
-1.35616e-319
-1.38531e-319
-1.45819e-319
-8.09605e-316
-1.59328e-300
-5.07211e-285
-6.34826e-274
-1.08923e-262
-3.76112e-251
-5.23258e-238
-2.09779e-222
-1.93621e-206
-2.4691e-195
-1.6297e-184
-7.59947e-174
-6.20313e-160
-1.95369e-149
-3.25617e-136
-2.85445e-125
-1.2367e-114
-2.12017e-104
-2.04273e-94
-2.11042e-84
-6.62757e-75
-3.11804e-66
-1.46432e-58
-3.76876e-49
-3.66182e-33
-3.22374e-27
1.99163e-15
2.6542e-14
5.35858e-13
6.01718e-12
1.01097e-11
1.23748e-10
6.36105e-10
1.17526e-09
8.28145e-10
1.03439e-09
5.43634e-09
7.26228e-09
2.03188e-09
2.65528e-10
2.10833e-07
3.9539e-07
1.18926e-07
7.7076e-11
3.10609e-07
3.10824e-06
3.18138e-06
1.82891e-06
1.02957e-08
1.85145e-11
3.76919e-12
3.59565e-12
3.96207e-12
3.61913e-12
3.32473e-12
3.34211e-12
3.30544e-12
0.000130215
0.000254354
1.90675e-10
9.64877e-11
0.0235671
0.0470061
0.0455732
0.0293281
0.0137316
0.0173098
0.0164431
0.00467888
1.64531e-11
1.77946e-09
4.58041e-09
2.57991e-11
1.17626e-06
1.87485e-06
1.87538e-06
2.44883e-07
4.45006e-11
0.00845943
0.0183177
0.014442
0.000763335
1.63427e-07
4.30877e-07
7.89742e-07
7.97168e-07
2.2072e-07
2.32438e-11
0.00109202
0.00247105
0.00247052
0.00107408
1.59677e-06
1.43184e-06
1.4184e-06
2.95277e-06
3.97706e-06
1.66534e-05
9.41672e-06
1.17739e-06
1.28474e-06
1.31327e-06
1.41005e-06
1.34653e-05
5.11181e-05
5.18103e-05
2.12971e-05
1.44297e-06
4.62533e-07
1.17912e-06
7.19502e-07
1.90352e-07
1.90243e-07
2.7958e-06
3.25197e-06
2.3035e-06
6.70785e-08
5.07054e-07
1.83945e-06
2.55071e-06
2.64292e-06
3.98959e-06
5.51988e-06
5.50629e-06
5.70823e-06
5.16529e-06
3.34544e-06
8.3337e-07
1.39388e-06
1.59364e-06
1.48894e-06
1.17412e-06
2.73818e-06
6.55928e-06
1.03691e-05
9.32858e-06
5.96657e-06
2.02747e-06
1.05491e-06
1.05606e-06
1.03562e-06
6.46697e-07
6.21181e-07
4.01977e-06
4.24814e-06
4.86406e-07
2.11204e-12
2.11206e-12
2.13552e-12
1.89802e-08
1.66947e-08
-2.79869e-26
-6.80316e-29
4.48689e-15
5.19186e-18
1.58023e-06
2.24257e-06
6.65894e-07
7.78464e-10
4.05173e-06
1.39149e-05
1.39139e-05
1.20589e-05
1.62255e-06
4.57121e-07
6.42891e-10
6.42892e-10
6.42891e-10
6.42892e-10
7.36771e-08
7.18661e-08
7.71065e-05
2.26194e-05
6.90819e-07
8.77349e-10
0.146009
0.598535
0.5858
0.175538
8.0297e-11
0.00497145
0.00652669
0.00704844
0.0176185
0.0349206
0.034546
0.02198
0.0124288
0.00909749
0.00479446
4.32869e-05
0.154319
0.7398
0.787638
0.786586
0.242322
2.60462e-10
3.02701e-10
3.83629e-10
4.8117e-10
0.000146132
3.37811e-05
0.074064
0.773796
0.988888
0.988888
0.984235
0.921709
0.959847
0.975397
0.975373
0.770298
0.630201
0.570741
0.388436
-1.14109e-319
-1.18156e-319
-1.19529e-319
-1.15789e-319
-1.15666e-319
-7.69211e-320
-1.26076e-319
-1.24208e-319
-1.23699e-319
-1.1907e-319
-1.24376e-319
-1.20093e-319
-1.20448e-319
-8.3838e-320
-1.21881e-319
-1.29455e-319
-1.38007e-319
-1.34346e-319
-1.38205e-319
-1.35665e-319
-1.38077e-319
-1.34386e-319
-1.35453e-319
-1.36071e-319
-1.36491e-319
-1.31145e-319
-1.37666e-319
-1.32049e-319
-1.36629e-319
-1.33185e-319
-1.33576e-319
-1.29529e-319
-1.32746e-319
-1.3449e-319
-1.45512e-319
-1.52337e-316
-2.81905e-301
-9.38581e-286
-1.20541e-274
-2.1168e-263
-7.46183e-252
-1.07784e-238
-3.75731e-223
-4.02269e-207
-5.18288e-196
-3.44781e-185
-1.61894e-174
-1.32363e-160
-4.17191e-150
-6.94268e-137
-6.06175e-126
-2.60891e-115
-4.43032e-105
-4.21448e-95
-4.28334e-85
-1.31774e-75
-6.04378e-67
-2.75112e-59
-1.16509e-49
-6.31778e-34
-6.12296e-28
1.73174e-16
5.60459e-15
4.8955e-14
1.39211e-12
2.70974e-12
1.18772e-11
6.91779e-11
2.42261e-10
2.78505e-10
2.12899e-10
7.9197e-11
4.08797e-11
4.42904e-11
3.01703e-08
6.14965e-08
3.31517e-08
2.39007e-09
6.18734e-11
4.38636e-11
6.41694e-07
3.17785e-06
3.18138e-06
1.89239e-06
5.78632e-09
4.21361e-11
5.76833e-12
5.09401e-12
5.06866e-12
4.76911e-12
4.59702e-12
4.63694e-12
8.589e-11
1.92202e-10
1.3226e-10
9.67883e-11
3.16891e-12
2.59505e-12
2.64705e-12
2.75914e-12
3.11515e-12
3.02557e-12
3.03426e-12
3.04264e-12
3.84015e-12
4.64403e-12
4.64967e-12
5.03598e-12
6.05569e-09
3.17228e-08
6.62793e-08
4.41161e-08
3.28139e-11
4.18234e-05
0.000313498
0.000440417
0.000439111
0.00043891
0.000438708
0.000438506
0.000162567
2.1678e-07
7.52547e-06
6.53731e-05
4.04034e-05
9.57973e-05
0.00116854
0.00126497
0.00126551
0.000423747
1.60811e-07
1.60912e-07
2.61188e-07
4.93643e-07
3.27394e-07
1.3316e-07
1.1564e-07
1.15816e-07
0.000581914
0.000892831
0.000892831
0.000892831
0.00025832
4.02912e-07
4.02095e-07
7.01075e-07
1.39112e-06
1.31754e-06
1.08556e-06
4.3253e-07
1.43982e-07
6.751e-08
1.0195e-06
6.21743e-06
6.52716e-06
6.53164e-06
3.43939e-06
2.96182e-06
2.96088e-06
1.2329e-05
2.56734e-05
2.56734e-05
1.73782e-05
2.3711e-07
9.3208e-09
9.85338e-09
3.00509e-07
1.85498e-05
1.99329e-05
1.99328e-05
5.43824e-06
6.37757e-07
6.31803e-07
6.43138e-06
7.55241e-06
7.3615e-06
1.09302e-06
5.84835e-07
1.19338e-06
1.90705e-06
1.4293e-06
3.14315e-07
8.92573e-10
2.11206e-12
8.00289e-10
9.58678e-10
3.03755e-10
-6.98097e-25
6.08161e-14
1.59393e-17
6.02313e-09
5.33912e-09
1.57471e-06
1.92997e-06
1.61342e-06
4.4413e-07
1.44261e-07
1.46522e-07
1.16478e-07
8.00895e-08
1.7135e-08
6.42891e-10
2.78075e-07
1.50763e-05
1.59071e-05
1.28569e-05
1.23909e-06
1.31231e-09
1.29835e-09
4.70202e-10
0.000228734
0.000981359
0.000718843
0.000395123
4.01772e-12
0.00355797
0.0903682
0.0968423
0.0968678
0.0303945
2.45459e-09
2.2214e-09
0.000255216
0.00161036
0.00116012
4.59945e-05
3.3659e-09
3.44533e-09
5.82428e-09
3.21049e-10
2.61375e-10
2.60464e-10
4.08163e-10
4.21397e-05
7.56668e-05
7.58093e-05
3.38007e-05
3.37811e-05
0.0168991
0.35645
0.473913
0.181627
0.00573477
0.346552
0.94797
0.975397
0.611593
0.127427
0.368249
0.502718
-1.1865e-319
-1.20898e-319
-1.20483e-319
-1.23783e-319
-1.1527e-319
-7.93371e-320
-1.26955e-319
-1.1864e-319
-1.21466e-319
-1.1866e-319
-1.24697e-319
-1.23566e-319
-1.24613e-319
-8.92332e-320
-1.23749e-319
-1.28689e-319
-1.32701e-319
-1.35661e-319
-1.37232e-319
-1.30547e-319
-1.33551e-319
-1.3195e-319
-1.36584e-319
-1.36248e-319
-1.33887e-319
-1.34579e-319
-1.34633e-319
-1.33121e-319
-1.29292e-319
-1.34376e-319
-1.33823e-319
-1.34608e-319
-1.33324e-319
-1.31748e-319
-1.4444e-319
-2.42395e-317
-4.638e-302
-1.48657e-286
-1.95533e-275
-3.50772e-264
-1.25922e-252
-1.9469e-239
-7.51435e-224
-7.07032e-208
-9.18406e-197
-6.14388e-186
-2.89836e-175
-2.36756e-161
-7.4473e-151
-1.23439e-137
-1.07051e-126
-4.56398e-116
-7.65471e-106
-7.16801e-96
-7.14402e-86
-2.14577e-76
-9.55906e-68
-4.20057e-60
-2.32119e-50
-8.77491e-35
-9.36776e-29
1.5141e-17
2.07731e-15
6.73643e-15
3.01083e-13
6.11652e-13
3.57025e-12
5.4207e-12
1.45247e-11
2.17791e-11
2.11957e-11
1.08164e-11
2.02521e-11
1.00987e-09
5.02466e-09
3.2739e-09
6.47113e-10
1.29067e-10
5.84363e-11
3.14883e-11
3.34319e-11
2.83497e-07
2.47494e-06
1.01138e-06
1.83966e-11
7.96348e-12
6.15461e-12
6.03209e-12
7.82364e-12
1.06258e-11
1.69421e-11
3.33645e-11
4.81184e-11
5.68016e-11
6.08873e-11
6.15205e-11
4.92059e-11
3.54857e-11
2.68203e-11
2.14492e-11
1.6326e-11
1.44203e-11
1.22513e-11
1.12609e-11
9.81164e-12
8.67373e-12
7.59896e-12
7.12073e-12
1.63445e-11
3.76493e-11
6.73296e-12
2.51133e-11
3.24176e-11
3.72085e-12
3.7211e-12
3.86114e-11
2.99593e-07
1.69839e-06
3.62079e-06
4.85485e-06
6.05722e-06
6.55645e-06
6.56772e-06
3.47971e-06
1.92685e-06
2.57472e-06
7.65759e-06
1.49277e-05
2.09457e-05
1.98644e-05
1.41761e-05
1.81702e-05
1.81709e-05
1.81702e-05
1.81709e-05
1.81702e-05
7.69504e-06
5.19589e-06
1.438e-05
2.2201e-05
2.2377e-05
2.18863e-05
1.93003e-05
1.89914e-06
1.33174e-05
2.70855e-05
2.7094e-05
2.59342e-05
2.70344e-05
2.70397e-05
2.70077e-05
2.70397e-05
2.70345e-05
1.24034e-05
6.25933e-10
1.01707e-11
2.17183e-12
1.63497e-05
2.56648e-05
2.5671e-05
2.5672e-05
2.56733e-05
9.284e-06
1.74688e-12
8.12407e-09
1.25903e-08
1.18428e-08
1.17935e-08
1.51018e-05
1.99307e-05
1.99313e-05
1.99312e-05
4.74208e-06
6.02411e-12
6.64697e-11
5.56478e-11
5.9308e-11
4.44062e-11
1.48355e-05
1.72118e-05
1.72116e-05
1.1455e-05
1.16251e-07
2.11203e-12
6.56974e-12
2.98187e-12
2.98973e-12
1.75029e-06
1.29917e-05
1.30655e-05
1.30684e-05
7.11059e-06
1.71567e-08
1.69618e-08
1.24016e-08
5.37109e-09
5.5298e-09
4.5672e-06
7.16122e-06
7.16125e-06
7.1612e-06
2.74837e-06
1.44217e-08
1.15489e-07
3.10985e-07
9.80233e-07
1.3246e-06
1.31363e-06
5.56514e-07
7.95023e-10
5.65263e-10
7.82759e-10
5.01966e-10
3.96186e-12
4.01543e-12
3.96186e-12
3.96186e-12
7.73679e-10
1.56428e-09
7.29032e-10
1.32095e-08
1.48891e-08
1.96227e-09
2.05515e-09
2.18472e-09
3.51044e-07
4.2015e-07
6.80657e-07
6.04271e-07
3.03653e-08
3.93669e-10
1.75523e-05
2.23304e-05
1.59408e-05
6.49869e-07
3.52461e-05
0.000174716
0.000174029
1.40323e-05
0.00069388
0.00128028
0.000194968
1.63099e-06
0.00223249
0.0314601
0.292317
0.424683
0.129009
0.00130752
0.293169
-1.14356e-319
-1.13665e-319
-1.20636e-319
-1.1616e-319
-1.19648e-319
-8.0671e-320
-1.22933e-319
-1.18605e-319
-1.2198e-319
-1.24806e-319
-1.25759e-319
-1.21229e-319
-1.24223e-319
-8.61898e-320
-1.19954e-319
-1.25898e-319
-1.37696e-319
-1.34168e-319
-1.35833e-319
-1.36357e-319
-1.35097e-319
-1.37054e-319
-1.37014e-319
-1.35127e-319
-1.35087e-319
-1.31397e-319
-1.31481e-319
-1.36747e-319
-1.35997e-319
-1.35507e-319
-1.29475e-319
-1.27973e-319
-1.332e-319
-1.38309e-319
-1.42726e-319
-3.11869e-318
-6.06549e-303
-1.90633e-287
-2.56538e-276
-4.69642e-265
-1.71616e-253
-2.76152e-240
-1.0695e-224
-9.99546e-209
-1.30722e-197
-8.78086e-187
-4.14308e-176
-3.38461e-162
-1.06084e-151
-1.74683e-138
-1.50127e-127
-6.32508e-117
-1.04514e-106
-9.60906e-97
-9.36593e-87
-2.7386e-77
-1.1813e-68
-4.99412e-61
-2.83967e-51
-9.41443e-36
-1.10806e-29
7.4448e-19
6.18056e-16
1.41229e-15
4.85451e-14
9.6712e-14
5.25542e-13
6.08127e-13
1.76879e-12
1.84267e-12
3.13088e-12
3.22725e-12
1.46085e-11
5.72749e-11
3.03228e-11
1.09483e-11
2.14449e-11
3.34994e-11
3.52408e-11
2.92136e-11
2.03719e-11
1.27323e-09
2.17115e-08
3.16856e-08
3.12509e-08
2.29177e-08
4.56481e-09
2.95549e-11
2.63253e-11
6.25855e-11
1.25763e-10
1.72638e-10
1.7957e-10
1.80625e-10
1.76951e-10
1.56603e-10
1.17432e-10
7.34139e-11
3.99901e-11
2.8545e-11
2.14552e-11
1.82199e-11
1.48464e-11
1.24781e-11
1.01306e-11
8.56571e-12
6.88532e-12
6.02674e-12
4.98642e-12
4.58593e-12
3.89478e-12
3.68513e-12
3.76123e-12
3.735e-12
3.71971e-12
3.90016e-12
8.31198e-13
2.14482e-11
8.3607e-12
2.79791e-11
2.60737e-12
2.61716e-08
2.83178e-08
1.50863e-08
2.93413e-09
3.32988e-11
2.71932e-11
7.00447e-11
4.13627e-11
5.5451e-11
2.05068e-08
8.58926e-08
1.80487e-07
2.71699e-07
4.52983e-07
5.88298e-07
5.61264e-07
4.77834e-07
3.51663e-07
2.51506e-07
2.32102e-07
2.34533e-07
2.41944e-07
2.45422e-07
2.74936e-07
3.41604e-07
4.53524e-07
4.93761e-07
5.7516e-07
6.57794e-07
6.3112e-07
5.90883e-07
7.64882e-07
1.7191e-06
1.35152e-06
5.9322e-08
2.82313e-12
2.79035e-12
1.36628e-12
1.37371e-12
1.36628e-12
1.37371e-12
1.36628e-12
1.48023e-12
1.78265e-07
3.49336e-07
3.44341e-07
1.17104e-07
1.95635e-11
8.23064e-12
8.42678e-12
6.46378e-12
6.60371e-12
6.12104e-12
3.03688e-09
1.06401e-08
1.08105e-08
5.81631e-09
5.75574e-11
2.27513e-10
2.24531e-08
2.92845e-08
1.47014e-08
6.29027e-10
2.98187e-12
2.98973e-12
2.98119e-09
8.35837e-08
1.855e-07
3.37368e-07
2.02683e-06
2.54267e-06
5.21294e-07
3.14375e-10
3.1764e-10
3.15161e-10
2.76715e-08
3.90016e-08
4.49191e-09
5.08396e-09
3.05331e-06
2.13653e-06
3.29035e-08
1.08487e-09
1.15487e-09
1.0853e-09
1.57591e-08
4.82452e-08
5.92246e-08
5.54403e-08
2.47125e-08
2.56564e-09
3.96186e-12
3.96185e-12
3.96184e-12
3.96185e-12
5.02272e-08
1.83483e-07
1.83318e-07
9.68776e-08
5.25842e-10
1.31543e-09
7.73099e-09
8.56091e-09
5.67827e-09
8.43106e-10
7.95465e-10
3.78913e-07
6.04861e-07
4.45174e-07
1.32615e-08
1.11462e-07
4.61933e-07
6.04868e-07
6.43159e-07
8.83187e-07
2.77369e-06
7.1026e-06
1.20692e-05
1.37982e-07
1.57977e-07
1.8074e-07
1.56457e-06
5.85355e-09
5.93095e-09
5.85355e-09
0.00293609
0.00715725
0.00134303
0.0317212
-1.15157e-319
-1.20942e-319
-1.13961e-319
-1.22e-319
-1.13981e-319
-8.00139e-320
-1.23976e-319
-1.26688e-319
-1.21204e-319
-1.21856e-319
-1.21748e-319
-1.21762e-319
-1.22429e-319
-7.23065e-320
-1.1906e-319
-1.21871e-319
-1.36095e-319
-1.32163e-319
-1.29504e-319
-1.35833e-319
-1.30705e-319
-1.36525e-319
-1.33714e-319
-1.34262e-319
-1.29391e-319
-1.36392e-319
-1.33635e-319
-1.34929e-319
-1.29322e-319
-1.3446e-319
-1.30838e-319
-1.33857e-319
-1.33279e-319
-1.37839e-319
-1.35636e-319
-2.71454e-319
-5.5707e-304
-1.81562e-288
-2.49874e-277
-4.66631e-266
-1.73483e-254
-2.8722e-241
-1.1506e-225
-1.04635e-209
-1.37661e-198
-9.27576e-188
-4.38274e-177
-3.56725e-163
-1.11235e-152
-1.81637e-139
-1.54393e-128
-6.41463e-118
-1.04194e-107
-9.3839e-98
-8.92366e-88
-2.53382e-78
-1.0555e-69
-4.28078e-62
-2.34122e-52
-7.23421e-37
-9.38533e-31
3.56681e-20
1.02384e-16
2.51011e-16
5.03639e-15
9.77654e-15
5.12781e-14
7.09872e-14
1.99458e-13
2.48604e-13
4.98276e-13
6.45219e-13
1.6789e-12
2.1989e-12
2.8953e-12
2.97445e-12
4.10869e-12
4.81897e-12
6.06724e-12
6.44409e-12
7.1607e-12
1.3354e-11
1.27329e-11
2.13439e-11
9.98449e-10
2.40589e-09
2.34598e-09
1.84927e-09
1.19629e-09
6.82273e-10
3.87961e-10
2.4967e-10
1.89881e-10
1.60064e-10
1.36095e-10
1.08586e-10
7.54664e-11
4.43986e-11
2.44688e-11
1.89431e-11
1.48516e-11
1.23836e-11
9.80696e-12
8.09641e-12
6.23253e-12
5.21754e-12
3.81776e-12
3.15912e-12
2.34768e-12
1.95138e-12
1.46688e-12
1.25684e-12
1.02236e-12
9.42512e-13
8.56122e-13
8.34123e-13
8.3098e-13
9.27353e-13
9.33736e-13
1.05843e-12
1.07115e-12
2.88666e-11
1.08664e-11
2.74564e-11
1.09149e-11
7.88819e-12
5.39808e-12
6.26864e-12
6.89758e-12
1.09869e-11
2.12245e-12
4.92545e-11
9.21597e-13
4.91999e-11
1.09264e-12
5.5628e-11
1.27142e-12
5.35336e-11
1.43463e-12
5.19404e-11
1.50179e-12
5.90075e-11
1.71021e-12
5.83201e-11
2.03161e-12
5.00272e-11
2.40506e-12
3.89988e-11
2.86697e-12
2.00004e-11
1.40799e-12
1.40825e-12
1.40799e-12
1.41057e-12
1.40985e-12
3.64018e-12
8.96938e-12
1.27126e-11
1.27087e-11
6.60917e-12
1.37371e-12
3.63765e-08
1.01827e-07
1.02537e-07
5.7778e-08
3.34082e-09
3.81946e-10
3.34823e-10
3.35205e-10
3.34925e-10
3.32482e-10
3.22064e-10
2.95382e-10
2.46178e-10
1.73972e-10
8.6697e-11
5.79157e-11
4.52986e-11
4.51084e-11
4.48459e-11
4.75841e-11
4.81201e-11
5.44157e-11
4.62901e-11
4.20808e-11
5.05556e-11
1.43122e-10
6.4862e-11
6.53892e-11
6.4862e-11
6.53892e-11
2.15903e-09
3.99583e-09
3.88181e-09
2.96862e-09
1.47861e-09
5.19414e-10
6.79e-11
3.97194e-11
1.07274e-11
8.27379e-10
7.66307e-09
7.07202e-09
4.25985e-09
2.90183e-09
3.05189e-09
3.12647e-09
2.75906e-09
2.68354e-09
3.27521e-09
2.84873e-09
1.59768e-09
7.14924e-10
2.98319e-10
1.14847e-10
2.98083e-11
2.89483e-11
2.09523e-08
1.266e-07
5.66392e-08
4.87077e-10
3.89066e-10
4.81344e-10