/*--------------------------------*- C++ -*----------------------------------*\
| =========                 |                                                 |
| \\      /  F ield         | OpenFOAM: The Open Source CFD Toolbox           |
|  \\    /   O peration     | Version:  2406                                  |
|   \\  /    A nd           | Website:  www.openfoam.com                      |
|    \\/     M anipulation  |                                                 |
\*---------------------------------------------------------------------------*/
FoamFile
{
    version     2.0;
    format      ascii;
    arch        "LSB;label=32;scalar=64";
    class       volScalarField;
    location    "0.1";
    object      p;
}
// * * * * * * * * * * * * * * * * * * * * * * * * * * * * * * * * * * * * * //

dimensions      [1 -1 -2 0 0 0 0];

internalField   nonuniform List<scalar> 
6250
(
2399.84
4823.59
4672.65
4504.44
4486.26
4509.48
4521.76
4523.19
4522.59
4523.29
4524.91
4526.66
4528.28
4529.83
4531.38
4532.97
4534.57
4536.19
4537.82
4539.48
4541.15
4542.84
4544.57
4546.32
4548.1
4549.92
4551.78
4553.69
4555.66
4557.68
4559.77
4561.94
4564.2
4566.56
4569.03
4571.62
4574.37
4577.27
4580.37
4583.67
4587.21
4591.02
4595.14
4599.61
4604.47
4609.77
4615.58
4621.95
4628.96
4636.69
4645.22
4654.65
4665.06
4676.56
4689.23
4703.14
4718.3
4734.67
4752.05
4769.62
4792.51
4785.09
4665.24
4256.78
3997.97
4043.72
4077.66
4063.41
4064.15
4088.29
4111.85
4123.36
4119.57
4102.16
4073.29
4037.89
4000.67
3964.37
3931.57
3904.73
3882.57
3862.23
3840.4
3813.16
3778.55
3737.58
3694.72
3652.95
3614.53
3581.09
3555.36
3540.69
3535.52
3534.93
3536.01
3539.02
3545.56
3555.48
3567.11
3564.69
3536.11
3495.35
3466.02
3446.16
3424.03
3397.07
3367.67
3338.09
3310.87
3289.24
3272.78
3257.37
3241.65
3227.44
3216.53
3210.59
3209.99
3211.69
3212.17
3209.75
3204.27
3195.83
3186.4
3179.38
3176.28
3176.48
3178.5
3181.03
3183.31
3183.32
3179.63
3173.67
3168.61
3165.78
3164.67
3165.22
3168.49
3174.52
3181.82
3188.46
3193.17
3195.38
3194.91
3191.82
3186.12
3178.08
3170.07
3167.4
3167.32
3168.6
3167.91
3161.56
3149.61
3141.59
3150.26
3174.9
3205.56
3238.46
3275.35
3319.26
3366.6
3405.62
3426.37
3429.59
3425.94
3428.81
3442.14
3464.74
3486.91
3498.63
3495.02
3475.43
3451.89
3444.81
3453.89
3466.38
3471.47
3466.11
3451.89
3438.19
3432.9
3430.31
3424.27
3415.4
3407.75
3407.97
3421.87
3444.41
3462.88
3466.07
3450.95
3426.76
3404.93
3389.41
3376.77
3363.13
3346.23
3326.03
3304.96
3285.92
3270.07
3257.06
3246.71
3240
3237.03
3235.91
3233.5
3227.33
3216.78
3203.03
3186.87
3168.16
3146.08
3119.63
3088.68
3053.92
3016.33
2977.49
2939.57
2903.98
2870.75
2838.8
2806.47
2772.54
2738.03
2707.23
2685.22
2672.24
2660.56
2641.94
2614.74
2579.71
2528.1
2452.79
2365.33
2278.09
2192.61
2107.84
2029.43
1958.08
1889.22
1822.17
1760.02
1699.27
1630.86
1554.87
1464.89
1360.45
1254.57
1148.32
2394.47
4822.11
4674.43
4504.76
4485.9
4509.25
4521.67
4523.14
4522.53
4523.22
4524.85
4526.59
4528.21
4529.76
4531.31
4532.89
4534.49
4536.11
4537.73
4539.38
4541.04
4542.72
4544.43
4546.17
4547.93
4549.73
4551.57
4553.46
4555.39
4557.38
4559.43
4561.56
4563.77
4566.07
4568.47
4571
4573.65
4576.46
4579.44
4582.61
4586.01
4589.65
4593.57
4597.8
4602.4
4607.39
4612.84
4618.8
4625.32
4632.48
4640.35
4648.99
4658.47
4668.86
4680.2
4692.49
4705.67
4719.55
4733.7
4746.93
4759.95
4753.41
4708.33
4510.8
4192.57
4161.43
4169.81
4103.79
4104.78
4140.99
4151.25
4144.49
4139.89
4130.02
4106.95
4070.87
4027.39
3980.14
3934.25
3903.41
3886.87
3873.54
3857.2
3835.46
3807.03
3771.54
3726.64
3677.13
3629.65
3581.42
3543.87
3531.71
3536.46
3545.5
3553.69
3561.89
3573.95
3605.43
3648.49
3676.84
3583.2
3460.04
3465.69
3508.45
3507.03
3444.65
3377.84
3332.74
3301.79
3286.92
3276.52
3261.89
3242.29
3220.82
3203.1
3195.51
3197.96
3203.09
3205.31
3203.92
3199.5
3189.79
3175.19
3162.8
3157.16
3156.11
3158.22
3163.14
3170.33
3175.05
3172.49
3164.01
3157.25
3155.22
3154.81
3155.13
3158.62
3166.07
3175.01
3182.68
3188.22
3191.58
3192.75
3192.67
3194.41
3189.85
3177.68
3166.47
3163.29
3167.99
3176.54
3180.26
3157.27
3109.51
3116.64
3159.86
3206.08
3242.96
3271.67
3307.55
3357.67
3414.14
3464.34
3463.24
3415.58
3385.4
3379.11
3409.22
3457.56
3503.76
3522.2
3491.31
3410.06
3382.21
3403.1
3435.85
3457.03
3460.67
3436.49
3392.66
3374.29
3379.23
3385.8
3381
3367.29
3365.39
3390.77
3432.22
3465.61
3474.15
3455.49
3425.97
3404.42
3389.67
3378.42
3366.95
3351.36
3331.6
3311.05
3290.98
3269.89
3247.78
3228.07
3214.19
3211.46
3216.57
3222.08
3222.7
3217.03
3206.92
3193.98
3180.46
3165.23
3144.74
3117.77
3085.45
3048.74
3009.41
2971.15
2936.69
2906.92
2881.42
2856.86
2822.85
2767.23
2706.15
2674.87
2673.37
2682.89
2694.32
2706.86
2710.18
2640.86
2463.93
2340.84
2283.7
2226.25
2149.08
2070.38
1996.65
1923.19
1850.17
1785.67
1707.02
1600.6
1491.56
1408.44
1331.18
1230.42
1128.29
2395.51
4822.72
4674.16
4504.63
4485.85
4509.22
4521.66
4523.12
4522.5
4523.19
4524.81
4526.55
4528.16
4529.7
4531.25
4532.81
4534.4
4536
4537.61
4539.23
4540.87
4542.53
4544.21
4545.91
4547.64
4549.4
4551.19
4553.02
4554.89
4556.81
4558.79
4560.82
4562.92
4565.1
4567.37
4569.74
4572.21
4574.81
4577.55
4580.45
4583.52
4586.8
4590.29
4594.02
4598.03
4602.34
4606.99
4611.99
4617.38
4623.19
4629.44
4636.12
4643.22
4650.69
4658.41
4666.16
4673.56
4679.99
4684.39
4684.84
4679.37
4663.6
4652.85
4598.6
4411.2
4291
4210.63
3970.13
3999.49
4211.52
4339.82
4347.15
4302.59
4221.91
4121.23
4037.5
3992.92
3952.16
3911.79
3910.29
3875.13
3848.47
3836.07
3816.47
3778.63
3724.13
3670.17
3641.08
3620.09
3615.46
3557.34
3537.39
3561.38
3583.28
3560.31
3504.87
3484.19
3534.14
3640.67
3740.74
3743.87
3523.39
3419.18
3395.02
3350.62
3293.88
3249.88
3234.75
3226.19
3222.77
3235.1
3229.3
3213.12
3208.24
3204.87
3202.15
3200.23
3215.33
3220.69
3214.7
3210.54
3196.51
3188.61
3183.13
3182.62
3183.35
3182.11
3175.07
3184.86
3197.71
3185.4
3156.09
3146.11
3153.3
3153.91
3142.3
3140.34
3153.06
3169.3
3181.62
3189.7
3194.45
3191.86
3179.44
3170.97
3155.59
3165.24
3163.33
3167.37
3187.77
3177.57
3136.52
3095.88
3089.79
3044.16
3119.06
3151.07
3189.58
3240.69
3279.74
3369.26
3446.64
3496.89
3516.45
3492.12
3474.66
3463.98
3502.88
3554.01
3574.36
3534.67
3509.72
3493.41
3455.47
3481.04
3527.94
3517.01
3472.82
3448.87
3443.44
3468.8
3493.34
3441.51
3402.81
3349.12
3271.26
3290.46
3415.33
3546.39
3601.34
3506.3
3351.15
3324.5
3349.24
3367.71
3370.81
3347.6
3297.97
3247.19
3223.16
3220.64
3218.4
3214.72
3216.78
3230.95
3252.15
3266.23
3263.04
3240.97
3217.96
3214.26
3216.14
3213.06
3190.78
3157.93
3120.97
3074.07
3017.66
2968.46
2935.71
2916.59
2899.98
2860.58
2792.42
2748.14
2710.05
2689.28
2720.53
2755.32
2724.09
2611.23
2579.45
2680.27
2682.53
2560.81
2413.94
2265.18
2064.93
1964.91
1948.06
1879.08
1740.51
1697.3
1734.14
1802.48
1799.97
1705.7
1406.97
1219.88
1101.26
2394.1
4821.93
4673.98
4504.47
4485.65
4509.02
4521.47
4522.95
4522.34
4523.03
4524.65
4526.39
4528
4529.53
4531.07
4532.62
4534.2
4535.78
4537.37
4538.97
4540.58
4542.21
4543.85
4545.51
4547.19
4548.89
4550.62
4552.38
4554.17
4555.99
4557.86
4559.77
4561.74
4563.76
4565.84
4568
4570.23
4572.56
4574.99
4577.52
4580.17
4582.96
4585.89
4588.97
4592.22
4595.65
4599.25
4603.03
4606.98
4611.08
4615.29
4619.55
4623.74
4627.7
4631.18
4633.8
4635.01
4633.97
4629.53
4619.96
4603
4574.35
4535.51
4488.77
4455.24
4414.3
4280.08
4045.26
3943.76
4051.61
4051.66
4050.71
4041.63
4006.21
3976.75
3968.27
3971.47
3976.17
3991.67
4005.07
3981.49
4013.9
4026.58
3982.68
3949.55
3918.94
3862.68
3703.26
3281.29
3263.66
3357.07
3439.23
3476.34
3512.78
3577.97
3587.6
3561.19
3473.07
3451.58
3521.98
3550.99
3485.45
3328.28
3254.21
3232.18
3226.49
3220.69
3217.05
3215.96
3215.68
3215.13
3211.49
3205.44
3202.36
3202.13
3203.14
3204.42
3204.76
3204.3
3203.84
3203.22
3202.35
3201.57
3201.29
3201.48
3201.67
3200.94
3199.33
3199.17
3205.3
3194.76
3190.72
3186.67
3185.08
3182.26
3172.04
3164.93
3170.38
3195.64
3204.04
3200.9
3196.01
3182.57
3184.84
3176.23
3170.72
3198.49
3191.87
3210.8
3209.18
3145.46
3148.07
3148.8
3165.76
3152.34
3170.76
3168.93
3243.74
3278.57
3295.49
3315.06
3337.26
3357.6
3385.91
3441.18
3466.32
3537.33
3565.07
3554.25
3535.61
3519.37
3518.11
3517.45
3538.78
3620.73
3572.54
3562.24
3565.68
3543.71
3595.45
3576.25
3548.96
3408.73
3347.46
3367.84
3422.86
3500.74
3688.34
3744.68
3591.55
3481.57
3348.8
3315.71
3369.86
3413.72
3429.84
3413.8
3353.3
3340.75
3323.82
3273.14
3204.95
3114.6
3039.2
3080.86
3173.83
3231.13
3236.82
3211.25
3196.52
3199.72
3212.18
3211.24
3201.4
3182.6
3148.74
3092.35
3029.04
2974.92
2939.5
2915.92
2884.93
2843.2
2775.04
2703.41
2658.74
2649.64
2650.16
2680.09
2740
2776.49
2746.63
2706.73
2665.05
2578.55
2404.82
2192.44
2080.44
2016.19
1992.3
1922.48
1757.91
1629.42
1666.25
1645.41
1574.62
1592
1398.07
988.979
866.479
2394.19
4822.01
4673.9
4504.4
4485.6
4508.97
4521.42
4522.9
4522.28
4522.96
4524.57
4526.3
4527.9
4529.42
4530.94
4532.48
4534.03
4535.58
4537.14
4538.71
4540.29
4541.87
4543.47
4545.08
4546.69
4548.33
4549.98
4551.65
4553.33
4555.05
4556.78
4558.54
4560.34
4562.16
4564.03
4565.93
4567.88
4569.88
4571.93
4574.04
4576.2
4578.42
4580.7
4583.03
4585.42
4587.85
4590.3
4592.74
4595.14
4597.44
4599.55
4601.36
4602.7
4603.36
4603.02
4601.26
4597.5
4590.99
4580.67
4565.2
4542.84
4510.95
4467.69
4411.64
4344.26
4294.57
4284.84
4288.07
4207.13
4011.43
3863.13
3798.19
3792.3
3832.48
3880.24
3907
3922.85
3928.81
3936.58
3947.69
3969.1
4019.67
4041.04
4041.2
4037.13
4033.6
4029.47
4008.26
3828.44
3573.43
3501.27
3355.72
3427.5
3611.83
3657.22
3317.37
3150.77
3164.21
3163.28
3304.07
3330.62
3281.23
3260.39
3238.78
3221.98
3216.34
3215.74
3214.51
3213.37
3212.54
3211.48
3210.27
3210.04
3210.46
3210.97
3211.81
3212.44
3211.95
3211.53
3211.21
3210.86
3210.43
3209.95
3209.4
3208.71
3208
3207.49
3208.78
3206.71
3196.46
3193.17
3192.62
3192.66
3192.15
3190.98
3189.74
3188.69
3188.06
3187.66
3198.57
3194.16
3197.45
3200.8
3200.26
3198.44
3195.57
3191.22
3187.35
3187.32
3205.67
3221.24
3142.02
3151.46
3148.75
3145.38
3157.6
3180.38
3217.33
3225.76
3352.83
3365.03
3357.89
3368.16
3386.11
3386.5
3449.07
3541.05
3509.29
3510.17
3518.62
3520.84
3521.38
3522.22
3530.12
3550.57
3567.12
3571.05
3571.71
3574.96
3581.03
3581.7
3578.45
3583.01
3588.08
3584.45
3588.42
3503.16
3599.88
3579.34
3525.14
3492.56
3472.81
3467.13
3504.41
3526.22
3483.61
3447.12
3440.68
3439.39
3414.49
3296.82
3224.56
3226.16
3244.64
3350.59
3489.77
3588.23
3539.73
3153.29
2891.19
3103.2
3448.7
3608.16
3475.17
3304.28
3151.7
2997.99
2743.96
2735.61
2829.39
2899.63
2887.06
2808.48
2746.34
2680.81
2609.1
2527.05
2467.45
2423.37
2425.35
2424.55
2289.78
2245.12
2247.82
2329.53
2412.86
2411.12
2220.59
2020.77
2008.39
2125.85
2135.5
1970.15
1638.84
1604.91
1646.07
1829.22
1976.83
1815.85
1110.36
2393.49
4821.61
4673.84
4504.27
4485.41
4508.78
4521.24
4522.73
4522.11
4522.79
4524.39
4526.12
4527.7
4529.21
4530.71
4532.23
4533.76
4535.29
4536.83
4538.36
4539.9
4541.44
4542.98
4544.53
4546.09
4547.65
4549.21
4550.78
4552.36
4553.95
4555.54
4557.14
4558.75
4560.37
4562
4563.63
4565.28
4566.92
4568.58
4570.23
4571.88
4573.51
4575.12
4576.69
4578.21
4579.64
4580.95
4582.1
4583.02
4583.64
4583.85
4583.51
4582.44
4580.41
4577.12
4572.18
4565.11
4555.28
4541.94
4524.15
4500.81
4470.56
4432.1
4384.34
4327.23
4265.19
4191.09
4085.89
3976.6
3909.2
3882.51
3882.96
3897.23
3916.75
3936.16
3953.38
3969.54
3986.28
4001.67
4015.97
4030.34
4040.83
4048.01
4055.46
4064.48
4074.3
4083.36
4101.58
4071.46
3924.01
3651.13
3576.53
3565.77
3555.07
3462.49
3102.02
2854.72
3054.74
3377.13
3430.05
3281.96
3216.69
3225.4
3225.7
3223.67
3219.34
3217.33
3216
3215.12
3214.69
3214.85
3213.85
3209.11
3203.19
3203.91
3205.05
3205.04
3204.62
3204.03
3203.67
3203.29
3202.71
3201.7
3200.72
3200.7
3201.13
3201.05
3199.99
3197.99
3195.8
3193.69
3191.39
3188.76
3185.93
3183.11
3179.93
3177.25
3174.54
3171.86
3180.95
3185.36
3185.76
3187.13
3187.81
3186.14
3183.37
3179.53
3174.7
3168.56
3171.93
3172.06
3167.64
3168.28
3162.61
3155.94
3153.83
3157.36
3157.31
3185.6
3309.84
3364.95
3382.81
3389.84
3387.04
3397.06
3434.73
3473.12
3501.46
3511.62
3513.85
3516.39
3519.36
3525.49
3534.46
3543.15
3550.93
3558.64
3566.43
3574.59
3581.31
3587.35
3594.26
3607.44
3596.84
3550.47
3500.63
3469.93
3502.44
3473.74
3454.74
3457.34
3455.6
3450.93
3437.99
3436.24
3440.51
3443.18
3444.45
3445.56
3446.79
3450.29
3440.91
3499.15
3607.78
3589.91
3590.69
3573.41
3554.34
3493.67
3114.99
2623.06
3045.39
3477.2
3607.01
3499.32
3114.11
3028.88
2941.85
2865.55
2981.96
3063.46
2931.1
2755.37
2616.84
2520.03
2352.53
2303.61
2396.72
2417.51
2435.95
2419.43
2415.28
2453.96
2580.13
2481.66
2435.87
2353.05
1991.7
1756.48
1653.52
1741.28
1861.01
1809.64
1648.51
1510.34
1563.8
1686.56
1671.41
1500.74
865.799
2393.32
4821.54
4673.77
4504.19
4485.32
4508.69
4521.16
4522.64
4522.01
4522.69
4524.29
4526
4527.57
4529.06
4530.55
4532.05
4533.55
4535.06
4536.56
4538.05
4539.55
4541.04
4542.54
4544.02
4545.51
4546.99
4548.46
4549.93
4551.4
4552.85
4554.3
4555.73
4557.16
4558.56
4559.95
4561.31
4562.64
4563.94
4565.2
4566.41
4567.55
4568.61
4569.57
4570.42
4571.11
4571.62
4571.9
4571.89
4571.52
4570.7
4569.33
4567.25
4564.31
4560.3
4554.94
4547.94
4538.92
4527.42
4512.93
4494.86
4472.56
4445.32
4412.47
4373.45
4328.06
4277.45
4222.82
4165.94
4113.95
4069.83
4032.06
4001.65
3980.55
3968.7
3964.16
3964.06
3966.05
3969.26
3974.15
3981.91
3993.53
4008
4020.73
4029.34
4034.79
4039.34
4046.16
4062.51
4091.24
4071.72
4005.05
3913.63
3703.21
3358.2
3239.39
3202.09
3159.03
3158.56
3207.79
3184.77
3131.7
3133.61
3177.03
3203.08
3210.89
3214.31
3214.89
3214.72
3214.61
3214.67
3214.86
3215.55
3214.96
3212.41
3208.32
3206.23
3207.6
3209.16
3209.55
3209.85
3210.15
3209.91
3209.27
3209.32
3209.38
3204.32
3202.03
3202.09
3201.65
3199.85
3197.35
3195.07
3193.6
3192.32
3191.18
3190.35
3189.64
3188.23
3187.35
3187.95
3190.63
3195.19
3198.9
3199.66
3198.78
3196.55
3193.04
3188.57
3183.67
3178.36
3172.36
3163.67
3155.4
3148.93
3144.82
3148.7
3163.81
3194.63
3242.37
3286.7
3317.68
3342.79
3365.38
3387.61
3412.08
3436.82
3458.8
3477.04
3492
3503.56
3510.2
3516.34
3525.02
3536.08
3547.99
3558.44
3566.86
3574.69
3582.81
3590.8
3596.9
3600.75
3603.98
3607.96
3610.97
3617.35
3614.76
3543.06
3435.89
3414.08
3414.57
3417.61
3417.45
3417.65
3418
3418.15
3418.44
3422.84
3431.19
3444.13
3456.22
3458.29
3455.37
3447.74
3439.42
3423.79
3395.1
3388.98
3414.63
3400.53
3204.87
2993.62
3119.41
3189.53
3129.84
3067.4
3102.35
3255.3
3432.27
3516.02
3252.22
2794.46
2644.2
2585.94
2557.96
2551.94
2516.2
2560.07
2596.89
2565.73
2541.49
2535.86
2533.68
2538.16
2554.09
2553.48
2547.05
2503.54
2218.5
2068.84
2188.29
2305.69
2239.38
1765.05
1651.2
1628.83
1567.67
1320.14
791.271
462.182
2392.92
4821.31
4673.74
4504.09
4485.19
4508.56
4521.02
4522.5
4521.87
4522.54
4524.13
4525.83
4527.39
4528.87
4530.34
4531.82
4533.3
4534.78
4536.25
4537.71
4539.17
4540.61
4542.05
4543.48
4544.9
4546.31
4547.7
4549.07
4550.42
4551.76
4553.06
4554.34
4555.58
4556.79
4557.94
4559.05
4560.1
4561.07
4561.96
4562.75
4563.43
4563.98
4564.36
4564.56
4564.54
4564.25
4563.65
4562.67
4561.24
4559.27
4556.66
4553.29
4548.99
4543.6
4536.91
4528.68
4518.63
4506.46
4491.82
4474.36
4453.72
4429.54
4401.56
4369.65
4333.91
4295.06
4254.1
4211.63
4168.63
4127.04
4089.8
4059.46
4037.08
4022.14
4013.24
4008.61
4006.92
4007.4
4009.59
4012.87
4016.38
4019.03
4019.76
4018.01
4013.58
4005.77
3992.23
3966.89
3916.88
3826.95
3718.47
3622.66
3545.93
3503.77
3521.94
3584.44
3601
3504.03
3346.05
3231.41
3189.79
3182.86
3173.9
3170.8
3182.14
3197.88
3206.67
3210.36
3212.29
3213.86
3215.6
3217.83
3220.62
3218.95
3205.05
3186.15
3183.28
3192.03
3198.92
3202.65
3205.35
3206.9
3207.58
3206.96
3202.63
3194.85
3189.33
3192.48
3196.86
3197.46
3195.17
3192.37
3189.42
3186.15
3182.78
3179.42
3175.84
3171.81
3169.5
3173.53
3180.34
3188.42
3195.86
3199.04
3197.59
3192.13
3182.59
3169.99
3161.02
3164.02
3172.47
3169.25
3155.72
3135.34
3120.07
3121.53
3142.89
3177.16
3223.97
3278.75
3322.8
3353.02
3375.13
3394.79
3415.8
3438.59
3460.8
3479.79
3494.26
3505.02
3513.57
3521.69
3530.37
3539.5
3548.64
3557.13
3564.78
3571.66
3577.71
3582.39
3585.61
3587.54
3585.78
3575.28
3553.49
3526.23
3500.81
3476.19
3457.08
3450.78
3451.27
3449.17
3443.6
3438.51
3437.09
3437.93
3439.1
3441.2
3446.61
3456.53
3470
3481.24
3486.25
3490.69
3497.69
3507.47
3519.91
3535.65
3553.31
3594.03
3554.73
3282.49
2911.12
2745.67
2727.06
2785.17
2957.9
2945.93
2846.85
2806.07
2774.16
2731.04
2700.59
2686.58
2687.37
2699.55
2683.18
2584.21
2486.57
2470.17
2479.8
2481.58
2482.08
2486.09
2493.19
2503.45
2520.09
2522.59
2488.3
2393.94
2417.96
2445.36
2360.79
1790.99
746.852
1057.89
1951.12
2032.47
1522.52
564.998
2392.73
4821.21
4673.69
4504.02
4485.1
4508.47
4520.94
4522.41
4521.78
4522.44
4524.02
4525.71
4527.26
4528.73
4530.18
4531.64
4533.1
4534.55
4536
4537.43
4538.85
4540.25
4541.65
4543.02
4544.38
4545.72
4547.03
4548.31
4549.57
4550.79
4551.97
4553.1
4554.18
4555.21
4556.16
4557.04
4557.83
4558.52
4559.09
4559.52
4559.81
4559.91
4559.8
4559.46
4558.84
4557.9
4556.58
4554.83
4552.58
4549.74
4546.22
4541.91
4536.69
4530.4
4522.89
4513.98
4503.48
4491.16
4476.82
4460.23
4441.21
4419.58
4395.24
4368.18
4338.53
4306.63
4272.99
4238.22
4203.35
4169.89
4139.36
4112.69
4090.12
4071.44
4056.19
4043.76
4033.57
4025.08
4017.84
4011.43
4005.43
3999.24
3992.1
3983.11
3971.3
3955.49
3934.13
3905.28
3867.17
3818.92
3763.76
3705.56
3643.75
3578.15
3509.96
3439.25
3364.28
3293.6
3238.49
3202.54
3183.07
3175.99
3178.18
3187.11
3198.15
3206.47
3210.24
3211.44
3211.97
3212.6
3213.7
3215.78
3218.93
3221
3217.39
3211.56
3208.97
3207.97
3205.57
3202.53
3202.18
3206.15
3212.1
3218.63
3224.9
3228.37
3221.31
3205.36
3190.96
3185.13
3188.41
3191.88
3192.06
3191.35
3191.85
3194.22
3197.88
3201.21
3199.91
3193.62
3187.82
3185.65
3188.05
3193.63
3197.02
3196.68
3193.83
3189.48
3184.78
3179.95
3173.28
3164.09
3155.77
3152.12
3155.06
3166.08
3186.1
3213.64
3246.38
3280.61
3311.54
3337.94
3361.67
3384.37
3406.6
3428.01
3447.75
3465.05
3479.87
3492.71
3504.13
3514.71
3524.78
3534.49
3543.73
3552.34
3560.16
3567.08
3572.99
3577.72
3580.79
3581.61
3579.84
3574.96
3566.78
3555.39
3539.77
3518.51
3494.71
3474.88
3460.96
3450.66
3442.74
3437.09
3433.68
3432.09
3432.18
3434.27
3438.47
3444.04
3449.06
3451.42
3450.5
3446.91
3441.14
3433.06
3423.27
3413.77
3402.08
3376.83
3323.39
3257.24
3228.44
3264.75
3335.53
3411.97
3324.35
3042.57
2770.14
2614.96
2590.87
2614.44
2604.61
2582.7
2566.42
2555.84
2544.28
2526.01
2513.43
2512.9
2519.79
2528.21
2535.31
2544.07
2556.35
2571.14
2591.7
2622.42
2636.63
2547.03
2205.59
2024.41
1998.83
1969.99
1622.07
1029.91
904.042
1150.12
797.786
338.604
2392.49
4821.08
4673.66
4503.96
4485.02
4508.38
4520.85
4522.33
4521.69
4522.34
4523.91
4525.59
4527.13
4528.58
4530.03
4531.47
4532.91
4534.34
4535.76
4537.17
4538.55
4539.93
4541.28
4542.61
4543.92
4545.19
4546.44
4547.65
4548.82
4549.95
4551.03
4552.04
4552.99
4553.87
4554.65
4555.35
4555.93
4556.38
4556.69
4556.84
4556.81
4556.56
4556.07
4555.3
4554.22
4552.78
4550.93
4548.62
4545.77
4542.31
4538.16
4533.22
4527.39
4520.55
4512.58
4503.34
4492.69
4480.48
4466.57
4450.82
4433.14
4413.43
4391.68
4367.92
4342.29
4315.04
4286.56
4257.36
4228.08
4199.43
4172.1
4146.63
4123.38
4102.53
4084.04
4067.73
4053.28
4040.33
4028.48
4017.29
4006.25
3994.76
3982.14
3967.67
3950.62
3930.24
3905.72
3876.23
3840.94
3799.13
3750.97
3698.26
3643.46
3589.29
3539.24
3496.33
3458.86
3422.24
3384.59
3348.55
3318.12
3295.07
3278.29
3265.96
3256.8
3249.9
3244.46
3240.02
3236.39
3233.47
3231.07
3228.93
3226.63
3223.52
3219.15
3214.23
3210.29
3208.05
3207.15
3207.26
3208.28
3209.67
3210.65
3210.45
3208.69
3205.27
3200.66
3196.24
3193.51
3193.14
3193.77
3193.7
3192.52
3190.93
3189.41
3187.93
3186.39
3184.79
3183.29
3182.53
3183.11
3184.99
3187.51
3189.53
3189.73
3187.78
3184.29
3180.2
3176.55
3174.34
3174.08
3175.55
3177.7
3181.47
3188.46
3199.89
3216.27
3237.12
3261.21
3286.92
3312.68
3337.27
3360.35
3382.09
3402.62
3421.93
3439.93
3456.44
3471.33
3484.61
3496.56
3507.4
3517.38
3526.61
3535.03
3542.56
3549.08
3554.51
3558.74
3561.72
3563.18
3562.4
3558.84
3552.18
3542.27
3529.5
3514.81
3499.45
3484.98
3472.98
3463.85
3456.91
3451.5
3447.37
3444.42
3442.59
3441.79
3441.83
3442.56
3443.69
3444.72
3444.94
3443.85
3441.23
3437.08
3431.16
3422.76
3410.43
3391.41
3361.59
3315.91
3251.98
3173.88
3093.44
3027.25
2978.98
2925.24
2842.58
2764.89
2726.01
2715.75
2704.22
2683.85
2664.33
2650.27
2636.65
2615.02
2582.79
2549.83
2526.93
2514.22
2507.31
2503.71
2504
2508.46
2514.68
2514.97
2499.96
2464.42
2417.73
2396.93
2441.01
2551.28
2704.57
2795.98
2430.8
1281.25
85.8733
105.832
97.6349
2392.37
4821.01
4673.64
4503.92
4484.96
4508.33
4520.79
4522.27
4521.62
4522.27
4523.84
4525.52
4527.05
4528.49
4529.92
4531.36
4532.78
4534.2
4535.6
4536.98
4538.35
4539.69
4541.02
4542.31
4543.58
4544.82
4546.01
4547.17
4548.28
4549.34
4550.33
4551.26
4552.11
4552.87
4553.54
4554.09
4554.52
4554.8
4554.93
4554.86
4554.6
4554.1
4553.33
4552.26
4550.86
4549.07
4546.86
4544.15
4540.9
4537.04
4532.48
4527.15
4520.95
4513.8
4505.59
4496.21
4485.56
4473.52
4460.01
4444.92
4428.21
4409.83
4389.79
4368.15
4345.03
4320.63
4295.22
4269.16
4242.85
4216.74
4191.29
4166.91
4143.92
4122.49
4102.64
4084.28
4067.21
4051.17
4035.83
4020.83
4005.76
3990.16
3973.55
3955.42
3935.25
3912.49
3886.63
3857.21
3823.85
3786.45
3745.42
3701.74
3656.7
3611.39
3566.69
3522.91
3479.52
3436.37
3394.81
3357.16
3325.19
3299.39
3279.25
3263.88
3252.35
3243.65
3236.91
3231.49
3227.1
3223.54
3220.69
3218.37
3216.38
3214.5
3212.53
3210.56
3208.88
3207.7
3206.94
3206.45
3206.19
3206.16
3206.26
3206.28
3206.01
3205.32
3203.99
3202
3199.75
3197.74
3196.15
3194.94
3193.95
3193.14
3192.61
3192.44
3192.57
3192.84
3193.01
3192.98
3192.89
3192.94
3193.22
3193.62
3193.92
3193.98
3193.91
3193.95
3194.35
3195.24
3196.36
3198.13
3201.79
3207.6
3215.94
3227.19
3241.45
3258.44
3277.53
3297.92
3318.76
3339.34
3359.29
3378.48
3396.9
3414.49
3431.16
3446.77
3461.24
3474.56
3486.78
3497.98
3508.24
3517.57
3525.95
3533.34
3539.67
3544.88
3548.88
3551.57
3552.78
3552.2
3549.67
3545.16
3538.89
3531.07
3522.02
3512.05
3501.62
3491.25
3481.23
3472.04
3463.92
3456.85
3450.76
3445.58
3441.16
3437.36
3433.96
3430.58
3426.82
3422.12
3416.01
3408.11
3398.11
3385.64
3370.21
3351.19
3327.72
3298.79
3263.65
3223.17
3181.57
3145.47
3115.43
3083.62
3039.21
2978.12
2909.41
2845.76
2792.77
2748.68
2710.35
2676.1
2645.27
2616.92
2590.04
2564.94
2543.52
2527.48
2516.44
2508.73
2502.51
2496.32
2488.58
2476.94
2458.3
2429.7
2388.39
2331.63
2255.98
2158.44
2036.01
1859.18
1583.73
1199.42
810.487
554.283
370.371
106.943
2392.27
4820.95
4673.62
4503.89
4484.92
4508.29
4520.76
4522.23
4521.58
4522.22
4523.79
4525.46
4526.99
4528.43
4529.85
4531.28
4532.7
4534.1
4535.49
4536.86
4538.21
4539.54
4540.85
4542.12
4543.37
4544.57
4545.74
4546.86
4547.93
4548.95
4549.89
4550.77
4551.56
4552.25
4552.84
4553.31
4553.65
4553.83
4553.84
4553.65
4553.25
4552.6
4551.67
4550.43
4548.84
4546.86
4544.44
4541.52
4538.05
4533.97
4529.2
4523.68
4517.32
4510.03
4501.74
4492.34
4481.76
4469.9
4456.69
4442.06
4425.97
4408.4
4389.37
4368.93
4347.19
4324.32
4300.54
4276.11
4251.36
4226.62
4202.25
4178.54
4155.75
4134.02
4113.42
4093.9
4075.36
4057.6
4040.38
4023.39
4006.28
3988.68
3970.19
3950.37
3928.8
3905.09
3878.88
3849.89
3817.95
3783.08
3745.51
3705.75
3664.45
3622.37
3580.3
3539.01
3499.21
3461.59
3426.8
3395.43
3367.86
3344.21
3324.26
3307.59
3293.69
3282.04
3272.23
3263.9
3256.78
3250.66
3245.33
3240.63
3236.37
3232.42
3228.71
3225.24
3222.09
3219.38
3217.11
3215.27
3213.79
3212.55
3211.43
3210.25
3208.89
3207.26
3205.35
3203.26
3201.19
3199.34
3197.82
3196.56
3195.43
3194.39
3193.42
3192.51
3191.65
3190.8
3190.03
3189.39
3189
3188.89
3189.04
3189.33
3189.62
3189.89
3190.2
3190.76
3191.87
3193.89
3197.51
3202.53
3208.74
3216.4
3225.88
3237.38
3250.9
3266.26
3283.12
3301.03
3319.52
3338.17
3356.67
3374.8
3392.41
3409.4
3425.64
3441.05
3455.54
3469.06
3481.59
3493.11
3503.61
3513.08
3521.48
3528.78
3534.91
3539.82
3543.42
3545.65
3546.4
3545.58
3543.16
3539.13
3533.48
3526.36
3518.02
3508.82
3499.18
3489.55
3480.48
3471.88
3463.69
3456.02
3449.01
3442.64
3436.82
3431.35
3426.01
3420.52
3414.47
3407.47
3399.15
3389.13
3377.2
3363.1
3346.55
3327.21
3304.7
3278.54
3248.42
3214.41
3176.99
3136.54
3092.9
3045.65
2994.41
2939.68
2884.25
2832.19
2786.02
2745.6
2709.59
2677.05
2647.64
2621.07
2596.78
2574.14
2553.02
2533.56
2515.64
2498.56
2481.12
2461.95
2439.48
2411.74
2376.24
2330.14
2270.47
2194.57
2100.57
1988.05
1856.12
1697.72
1502.49
1264.62
989.571
697.712
405.354
135.237
2392.26
4820.94
4673.62
4503.89
4484.91
4508.28
4520.75
4522.22
4521.57
4522.21
4523.78
4525.45
4526.97
4528.41
4529.83
4531.26
4532.67
4534.08
4535.46
4536.83
4538.18
4539.5
4540.8
4542.07
4543.3
4544.5
4545.66
4546.77
4547.83
4548.83
4549.76
4550.62
4551.39
4552.06
4552.62
4553.07
4553.37
4553.52
4553.49
4553.26
4552.82
4552.12
4551.14
4549.84
4548.2
4546.15
4543.67
4540.69
4537.15
4533.01
4528.19
4522.61
4516.21
4508.9
4500.6
4491.22
4480.69
4468.92
4455.84
4441.39
4425.54
4408.26
4389.58
4369.56
4348.28
4325.92
4302.66
4278.75
4254.49
4230.18
4206.12
4182.61
4159.85
4138.02
4117.18
4097.31
4078.32
4060.03
4042.22
4024.6
4006.84
3988.58
3969.45
3949.06
3927.03
3903
3876.66
3847.8
3816.27
3782.11
3745.5
3706.86
3666.75
3625.86
3584.9
3544.49
3505.16
3467.25
3431.12
3397.26
3366.29
3338.76
3314.92
3294.73
3277.92
3264.13
3252.9
3243.81
3236.47
3230.54
3225.77
3221.91
3218.75
3216.1
3213.82
3211.83
3210.11
3208.68
3207.53
3206.63
3205.91
3205.32
3204.82
3204.33
3203.78
3203.13
3202.3
3201.28
3200.11
3198.87
3197.65
3196.5
3195.48
3194.61
3193.91
3193.42
3193.13
3193.06
3193.14
3193.38
3193.75
3194.22
3194.75
3195.34
3196.04
3196.94
3198.17
3199.89
3202.2
3205.25
3209.15
3213.91
3220.01
3227.76
3237.23
3248.39
3261.21
3275.52
3291.08
3307.55
3324.56
3341.81
3359.04
3376.05
3392.71
3408.92
3424.6
3439.66
3454
3467.54
3480.21
3491.94
3502.67
3512.36
3520.95
3528.42
3534.7
3539.77
3543.55
3545.99
3547.03
3546.62
3544.74
3541.38
3536.63
3530.59
3523.43
3515.36
3506.55
3497.21
3487.52
3477.69
3467.94
3458.57
3449.8
3441.69
3434.13
3426.88
3419.67
3412.16
3403.98
3394.75
3384.11
3371.74
3357.29
3340.65
3321.91
3301.38
3279.29
3255.29
3229.28
3201.27
3171.31
3139.63
3106.28
3070.63
3030.69
2986.61
2939.22
2889.78
2840.17
2792.35
2747.67
2706.68
2669.44
2635.71
2604.99
2576.84
2551.35
2528.02
2506.32
2485.5
2464.39
2441.36
2414.41
2381.12
2338.68
2283.96
2213.45
2123.39
2009.73
1868.57
1699.31
1505.11
1290.84
1061.55
822.946
583.436
353.328
138.316
2392.28
4820.96
4673.62
4503.9
4484.93
4508.29
4520.76
4522.23
4521.58
4522.23
4523.79
4525.47
4526.99
4528.43
4529.86
4531.28
4532.7
4534.11
4535.5
4536.87
4538.22
4539.55
4540.86
4542.13
4543.38
4544.59
4545.75
4546.88
4547.95
4548.96
4549.91
4550.79
4551.58
4552.27
4552.87
4553.34
4553.67
4553.85
4553.86
4553.68
4553.28
4552.63
4551.7
4550.46
4548.87
4546.89
4544.46
4541.55
4538.08
4533.99
4529.22
4523.7
4517.33
4510.04
4501.73
4492.33
4481.74
4469.86
4456.64
4442
4425.89
4408.31
4389.26
4368.8
4347.05
4324.17
4300.37
4275.94
4251.19
4226.47
4202.11
4178.42
4155.64
4133.94
4113.35
4093.86
4075.33
4057.59
4040.37
4023.39
4006.29
3988.69
3970.19
3950.37
3928.79
3905.06
3878.83
3849.81
3817.84
3782.94
3745.35
3705.56
3664.24
3622.15
3580.07
3538.78
3498.99
3461.39
3426.62
3395.28
3367.76
3344.15
3324.26
3307.64
3293.79
3282.19
3272.42
3264.12
3257.04
3250.94
3245.63
3240.93
3236.67
3232.7
3228.94
3225.36
3222.05
3219.12
3216.63
3214.59
3212.92
3211.56
3210.43
3209.43
3208.44
3207.3
3205.94
3204.37
3202.59
3200.62
3198.64
3196.84
3195.37
3194.23
3193.3
3192.44
3191.57
3190.74
3190.02
3189.43
3188.99
3188.69
3188.55
3188.6
3188.88
3189.47
3190.66
3192.48
3194.79
3197.81
3201.86
3207.12
3213.76
3221.96
3231.82
3243.42
3256.69
3271.48
3287.48
3304.31
3321.6
3339.03
3356.38
3373.52
3390.38
3406.91
3423.04
3438.68
3453.72
3468.04
3481.5
3493.99
3505.41
3515.69
3524.77
3532.62
3539.25
3544.65
3548.7
3551.35
3552.56
3552.27
3550.44
3547.09
3542.28
3536.13
3528.79
3520.39
3511
3500.66
3489.48
3477.75
3466.01
3454.94
3444.99
3436.22
3428.34
3420.97
3413.73
3406.27
3398.17
3388.93
3378.03
3365.01
3349.59
3331.87
3312.32
3291.49
3269.87
3247.93
3225.31
3201.15
3174.38
3143.84
3108.66
3068.46
3024.16
2974.95
2920.22
2861.12
2801.82
2747.84
2702
2663.64
2630.69
2601.68
2576.07
2553.17
2531.64
2511.32
2492.26
2473.83
2454.95
2433.98
2409.36
2378.19
2337.3
2283
2210.95
2116.63
1995.03
1840.68
1654.99
1445.72
1223.99
999.018
787.335
580.778
371.76
159.954
2392.38
4821.02
4673.64
4503.92
4484.97
4508.33
4520.8
4522.27
4521.63
4522.28
4523.85
4525.53
4527.06
4528.5
4529.93
4531.37
4532.8
4534.21
4535.62
4537
4538.37
4539.71
4541.04
4542.34
4543.61
4544.84
4546.04
4547.2
4548.31
4549.37
4550.37
4551.3
4552.15
4552.92
4553.58
4554.14
4554.57
4554.85
4554.98
4554.92
4554.65
4554.15
4553.39
4552.33
4550.92
4549.14
4546.92
4544.21
4540.96
4537.09
4532.53
4527.19
4520.99
4513.83
4505.6
4496.2
4485.53
4473.47
4459.93
4444.82
4428.07
4409.66
4389.58
4367.9
4344.75
4320.32
4294.89
4268.81
4242.5
4216.41
4190.99
4166.65
4143.7
4122.32
4102.51
4084.19
4067.15
4051.13
4035.81
4020.82
4005.76
3990.16
3973.54
3955.39
3935.19
3912.39
3886.48
3857
3823.57
3786.1
3745
3701.27
3656.19
3610.85
3566.11
3522.27
3478.8
3435.52
3393.83
3356.03
3323.93
3298.02
3277.79
3262.36
3250.77
3242.06
3235.33
3229.96
3225.64
3222.2
3219.53
3217.48
3215.87
3214.45
3212.92
3211.18
3209.45
3208.06
3207.09
3206.38
3205.75
3205.18
3204.79
3204.68
3204.75
3204.77
3204.58
3204.14
3203.28
3201.81
3199.76
3197.56
3195.69
3194.36
3193.5
3192.92
3192.58
3192.58
3192.99
3193.79
3194.78
3195.69
3196.19
3196.15
3195.79
3195.59
3195.79
3196.65
3198.27
3200.6
3203.87
3208.2
3213.82
3221.06
3230.23
3241.55
3255.09
3270.58
3287.52
3305.24
3323.11
3340.73
3357.95
3374.84
3391.52
3408.07
3424.51
3440.76
3456.64
3471.96
3486.51
3500.07
3512.47
3523.61
3533.42
3541.94
3549.24
3555.32
3560.1
3563.46
3565.24
3565.33
3563.64
3560.15
3554.92
3548.15
3540.02
3530.58