/*--------------------------------*- C++ -*----------------------------------*\
| =========                 |                                                 |
| \\      /  F ield         | OpenFOAM: The Open Source CFD Toolbox           |
|  \\    /   O peration     | Version:  2406                                  |
|   \\  /    A nd           | Website:  www.openfoam.com                      |
|    \\/     M anipulation  |                                                 |
\*---------------------------------------------------------------------------*/
FoamFile
{
    version     2.0;
    format      ascii;
    arch        "LSB;label=32;scalar=64";
    class       volScalarField;
    location    "0.1";
    object      p_rgh;
}
// * * * * * * * * * * * * * * * * * * * * * * * * * * * * * * * * * * * * * //

dimensions      [1 -1 -2 0 0 0 0];

internalField   nonuniform List<scalar> 
6250
(
2399.84
4823.58
4672.64
4504.43
4486.24
4509.46
4521.73
4523.16
4522.55
4523.24
4524.86
4526.6
4528.22
4529.76
4531.31
4532.89
4534.49
4536.11
4537.74
4539.38
4541.05
4542.74
4544.46
4546.2
4547.98
4549.8
4551.65
4553.56
4555.52
4557.54
4559.62
4561.79
4564.04
4566.4
4568.86
4571.45
4574.19
4577.09
4580.18
4583.48
4587.02
4590.82
4594.94
4599.4
4604.25
4609.55
4615.35
4621.72
4628.73
4636.45
4644.98
4654.4
4664.81
4676.31
4688.97
4702.87
4718.03
4734.4
4751.77
4769.33
4792.22
4784.79
4626.58
3979.35
3679.09
3719.9
3748.89
3729.7
3725.5
3744.69
3763.31
3769.87
3761.14
3738.81
3705
3664.66
3622.49
3581.25
3543.48
3511.69
3484.59
3459.31
3432.55
3400.36
3360.8
3314.89
3267.08
3220.36
3177
3138.61
3107.95
3088.32
3078.21
3072.69
3068.81
3066.89
3068.48
3073.54
3080.19
3072.78
3039.25
2993.55
2959.27
2934.47
2907.39
2875.49
2841.15
2806.62
2774.47
2747.89
2726.49
2706.13
2685.46
2666.32
2650.46
2639.58
2634.03
2630.79
2626.32
2618.96
2608.53
2595.16
2580.78
2568.82
2560.77
2556.03
2553.11
2550.69
2548.03
2543.12
2534.5
2523.59
2513.57
2505.78
2499.73
2495.33
2493.66
2494.74
2497.1
2498.8
2498.6
2495.89
2490.48
2482.46
2471.74
2458.75
2445.8
2438.18
2433.25
2429.61
2423.87
2412.56
2395.68
2382.71
2386.44
2406.13
2431.85
2459.8
2491.94
2531.34
2574.39
2608.61
2623.02
2621.27
2612.68
2610.62
2619.11
2636.9
2654.26
2660.75
2652.1
2627.56
2599.08
2587.05
2591.19
2598.73
2598.88
2588.57
2569.42
2550.77
2540.54
2533
2522.02
2508.21
2495.61
2490.88
2499.84
2517.44
2530.97
2529.22
2509.16
2480.03
2453.25
2432.78
2415.19
2396.61
2374.76
2349.62
2323.61
2299.62
2278.83
2260.87
2245.58
2233.93
2226.01
2219.95
2212.69
2201.59
2186.1
2167.39
2146.19
2122.54
2095.51
2064.12
2028.22
1988.52
1945.98
1902.2
1859.34
1818.8
1780.63
1743.74
1706.47
1667.59
1628.13
1592.39
1565.44
1547.52
1530.89
1507.32
1475.19
1435.21
1378.66
1298.4
1206
1113.82
1023.39
933.682
850.327
774.026
700.222
628.228
561.137
495.439
422.085
341.157
246.236
136.846
26.0267
-85.1727
2394.46
4822.1
4674.41
4504.74
4485.88
4509.22
4521.64
4523.11
4522.49
4523.17
4524.79
4526.54
4528.15
4529.69
4531.24
4532.82
4534.41
4536.02
4537.64
4539.28
4540.94
4542.62
4544.32
4546.05
4547.82
4549.61
4551.45
4553.33
4555.25
4557.24
4559.29
4561.41
4563.61
4565.91
4568.31
4570.82
4573.48
4576.28
4579.25
4582.42
4585.81
4589.45
4593.36
4597.6
4602.18
4607.18
4612.62
4618.57
4625.09
4632.25
4640.11
4648.74
4658.22
4668.6
4679.94
4692.22
4705.4
4719.27
4733.42
4746.65
4759.66
4753.12
4706.34
4502.28
4022.91
3838.23
3841.05
3770.08
3766.13
3797.39
3802.71
3791.01
3781.47
3766.65
3738.64
3697.61
3649.18
3596.99
3546.15
3510.37
3488.89
3470.62
3450.85
3424.96
3391.62
3349.44
3299
3244.55
3192.12
3138.95
3096.45
3079.35
3079.15
3083.25
3086.5
3089.75
3112.42
3152.41
3189.93
3193.22
3086.34
2958.24
2958.95
3005.75
3009.78
2948.95
2880.02
2825.72
2781.09
2754.61
2739.8
2723.65
2703.87
2676.36
2650.95
2634.21
2625.26
2622.19
2619.47
2613.13
2603.76
2591.51
2574.16
2556.14
2543.74
2535.9
2532.82
2532.8
2535.04
2534.82
2527.32
2514.12
2506.92
2501.72
2492.84
2485.34
2483.78
2486.29
2490.29
2493.01
2493.61
2492.03
2488.25
2491.67
2498.56
2490.29
2474.44
2464
2459.04
2445.09
2434.75
2431.46
2403.37
2350.63
2352.82
2394.7
2458.18
2497.58
2513.12
2523.24
2571.55
2694.54
2785.16
2743.5
2637.14
2576.34
2557.95
2583.47
2649.29
2715.02
2723.75
2682.63
2582.94
2538.72
2542.41
2568.21
2584.45
2586.22
2563.34
2511.3
2482.33
2481.92
2483.55
2473.8
2455.15
2448.31
2468.76
2505.27
2533.69
2537.29
2513.69
2479.22
2452.73
2433.03
2416.84
2400.43
2379.89
2355.19
2329.7
2304.83
2278.81
2251.7
2226.96
2208.12
2200.44
2200.61
2201.17
2196.85
2186.23
2171.19
2153.3
2134.84
2114.67
2089.38
2057.48
2020.2
1978.4
1934.12
1890.98
1851.69
1816.96
1786.41
1756.86
1717.9
1657.33
1591.31
1555.09
1548.64
1553.34
1561.12
1568.73
1566.04
1491.42
1309.54
1181.51
1119.42
1057.03
974.916
891.276
812.599
734.199
662.266
611.202
525.323
404.13
279
189.785
107.583
1.86895
-105.195
2395.51
4822.72
4674.14
4504.62
4485.83
4509.2
4521.63
4523.09
4522.46
4523.14
4524.76
4526.5
4528.1
4529.64
4531.18
4532.74
4534.32
4535.91
4537.52
4539.14
4540.77
4542.43
4544.1
4545.8
4547.52
4549.28
4551.06
4552.89
4554.76
4556.67
4558.64
4560.67
4562.77
4564.94
4567.2
4569.56
4572.04
4574.63
4577.37
4580.26
4583.33
4586.6
4590.08
4593.81
4597.82
4602.12
4606.76
4611.76
4617.15
4622.96
4629.19
4635.87
4642.97
4650.43
4658.15
4665.89
4673.29
4679.71
4684.11
4684.56
4679.08
4663.3
4652.55
4598.3
4399.85
4263.44
4157.76
3750.83
3667.66
3916.97
4067.89
4025.73
3947.57
3866.43
3773.32
3686.4
3631.43
3575.13
3524.81
3518.79
3477.7
3445.54
3428.2
3403.66
3361.22
3301.86
3242.63
3208.49
3198.95
3268.6
3158
3085.14
3104.08
3121.03
3093.12
3032.74
3007.11
3052.12
3154.31
3503.21
3691.03
3349.42
3013.64
3032.32
3196.98
3234.2
3196.09
3188.3
3175.17
3088.47
2987.04
2994.18
3056.68
3119.81
3124.05
3095.71
2968.15
2804.48
2767.74
2763.14
2784.19
2874.89
2987.31
2986.35
2939.61
2831.11
2703.24
2611.61
2588.46
2601.09
2625.13
2634.89
2613.79
2571.72
2524.74
2490.09
2472.19
2473.55
2484.58
2491.96
2495.09
2495.42
2494.4
2477.11
2492.57
2745.49
2790.85
2786.4
2621.72
2457.52
2440.81
2425.59
2752.86
2844.82
2468.24
2353.91
2443.53
2626.55
2674.08
2663.61
2586.56
2652.48
2940.66
3438.54
3429.64
3411.8
3282.11
2842.65
2762.95
2788.73
2991.06
3391.69
3432.77
3261.09
2774.96
2681.2
2673.03
2738.79
3099.24
3043.91
2756.57
2670.23
2636.81
2697.62
2655.93
2482.05
2379.7
2488.39
2619.55
2685.44
2578.61
2406.53
2372.87
2392.64
2406.18
2404.31
2376.13
2321.56
2265.84
2237.15
2230.83
2224.32
2215.57
2211.93
2220.18
2236.19
2245.32
2237.19
2210.18
2188.71
2196.25
2177.85
2162.5
2135.27
2097.48
2055.57
2003.73
1942.37
1888.23
1850.54
1826.48
1804.92
1760.58
1819.91
1936.39
1873.97
1640.78
1595.8
1625.65
1589.48
1471.68
1689.71
2288.38
2303.08
1623.59
1249.67
1095.96
890.769
785.8
764.01
690.082
546.566
545.958
1177.18
1293.62
1086.75
516.609
183.37
-8.66847
-132.231
2394.1
4821.93
4673.97
4504.45
4485.63
4508.99
4521.44
4522.92
4522.3
4522.98
4524.6
4526.34
4527.94
4529.46
4531
4532.55
4534.12
4535.69
4537.28
4538.87
4540.48
4542.1
4543.74
4545.4
4547.07
4548.77
4550.49
4552.25
4554.03
4555.85
4557.71
4559.62
4561.58
4563.6
4565.68
4567.83
4570.06
4572.38
4574.8
4577.33
4579.98
4582.76
4585.68
4588.76
4592.01
4595.43
4599.02
4602.8
4606.75
4610.84
4615.05
4619.3
4623.49
4627.45
4630.92
4633.54
4634.74
4633.7
4629.25
4619.67
4602.71
4574.05
4535.21
4488.47
4454.93
4413.99
4279.76
4035.67
3896.54
3968.13
3962.33
3941.28
3901.47
3885.41
3912.51
3938.66
3954.69
3967.89
3989.85
4004.27
3830.58
3648.85
3658.5
3662.16
3639.2
3573.89
3461.87
3271.05
2866.71
2919.92
3000.19
3001.13
3019.04
3177.98
3311.01
3317.82
3155.29
2991.19
2964.75
3165.22
3510.49
3480.97
3300.72
3226.04
3222.13
3225.99
3220.18
3216.53
3215.44
3215.15
3214.49
3210.92
3204.9
3201.82
3201.58
3202.58
3203.86
3204.2
3203.73
3203.27
3202.64
3201.76
3200.98
3200.69
3200.88
3201.07
3200.33
3198.27
3100.21
3056.83
3115.74
3177.24
3164.84
3068.62
3034.84
3051.17
2977.69
2713.99
2543.18
2526.97
2515.4
2538.59
2809.58
3086.44
3040.32
2774.61
2566.57
2547.17
2554.05
2491.15
2681.36
3122
3148.06
3165.02
2949.14
2469.32
2427.49
2497.59
2509.33
2511.37
2526.02
2543.1
2670.22
3177.6
3355.45
3243.11
3372.14
3548.19
3553.44
3534.79
3518.55
3517.28
3501.99
3222.15
3084.72
3270.88
3548.34
3564.82
3449.47
3217.28
3341.91
3497.81
3361.73
3299.63
3319.73
3332.94
2862.57
2761.39
2827.05
3158.16
3452.49
3018.23
2405.65
2413.26
2452.17
2519.28
2677.28
2608.62
2498.34
2397.05
2338.98
2285.09
2195.47
2090.58
2077.01
2157.87
2210.23
2210.98
2193.84
2185.14
2183.34
2175.36
2161.02
2145.89
2122.14
2083.34
2093.68
2044.85
1985.05
1864.27
1825.8
1815.93
2063.16
2017.58
1915.77
1593.55
1529.86
1525.44
1877.63
2377.51
2412.41
2048.42
2004.72
2415.86
2517.6
2298.55
2066.44
1952.4
1661.47
1544.47
1607.34
1320.3
625.351
569.363
543.984
939.164
1465.32
883.925
-204.714
-367.011
2394.18
4822
4673.89
4504.39
4485.58
4508.94
4521.39
4522.86
4522.24
4522.92
4524.52
4526.25
4527.84
4529.35
4530.87
4532.4
4533.95
4535.5
4537.05
4538.62
4540.19
4541.77
4543.36
4544.96
4546.58
4548.21
4549.85
4551.51
4553.2
4554.9
4556.63
4558.39
4560.18
4562
4563.86
4565.76
4567.71
4569.7
4571.75
4573.85
4576
4578.22
4580.49
4582.83
4585.21
4587.63
4590.07
4592.51
4594.91
4597.2
4599.3
4601.11
4602.45
4603.1
4602.75
4600.99
4597.23
4590.71
4580.39
4564.91
4542.55
4510.65
4467.39
4411.34
4343.95
4294.26
4284.52
4287.74
4206.8
4011.09
3862.8
3797.84
3791.95
3832.13
3879.88
3906.64
3922.49
3928.44
3935.86
3946.89
3968.35
4018.61
4040.22
4040.8
4036.72
4033.19
4029.06
4007.84
3797.87
3259.68
3059.58
2909.14
2976.03
3158.13
3198.71
2854.01
2941.79
3044.22
3019.12
2994.55
3162.61
3277.95
3259.9
3238.29
3221.48
3215.83
3215.23
3213.7
3212.51
3211.67
3210.86
3209.73
3209.5
3209.91
3210.42
3211.26
3211.88
3211.39
3210.95
3210.63
3210.28
3209.85
3209.36
3208.8
3208.1
3207.38
3206.88
3208.17
3206.09
3195.83
3192.55
3191.98
3192.02
3191.51
3190.33
3189.09
3188.03
3187.4
3135.51
2977.07
3027.83
3176.04
3200.11
3199.57
3197.74
3194.87
3190.52
3186.64
3185.14
2884.25
2841.67
3060.04
3150.73
3148.01
3144.64
3156.85
3179.62
3216.57
2900.12
2619.87
2797
3278.15
3367.37
3385.32
3241.47
2938.65
3025.78
3045.36
3437.33
3517.81
3519.96
3520.52
3521.4
3529.28
3549.73
3566.28
3570.2
3570.86
3574.1
3580.17
3580.83
3577.58
3582.13
3325.4
2752.87
2719.6
2629.66
2853.4
3443.45
3524.23
3491.65
3449.07
2881.68
2551.58
2564.68
2694.57
3326.55
3439.73
3438.44
3405.69
3277.44
3204.85
3206.33
2923.69
2382.43
2486.33
2614
2553.17
2132.81
1862.81
2092.3
2649.76
2795.92
2544.56
2278.38
2100.41
1941.83
1682.98
1670.47
1748.06
1809.51
1792
1971.74
1988.87
1886.59
1535.67
1407.27
1343.27
1297.63
1294.69
1403.7
2013.79
2196.88
2199.38
2280.87
2364
2239.68
1521.79
1249.79
1780.33
2040.28
2049.68
1525.7
1361.27
1549.51
1590.49
1773.41
1920.8
1525.37
-37.3954
2393.48
4821.61
4673.83
4504.25
4485.39
4508.76
4521.21
4522.69
4522.07
4522.74
4524.34
4526.06
4527.64
4529.14
4530.64
4532.16
4533.68
4535.21
4536.74
4538.27
4539.8
4541.34
4542.88
4544.42
4545.97
4547.52
4549.09
4550.65
4552.22
4553.81
4555.39
4556.99
4558.59
4560.21
4561.83
4563.46
4565.1
4566.74
4568.39
4570.04
4571.68
4573.31
4574.92
4576.48
4577.99
4579.42
4580.73
4581.87
4582.79
4583.41
4583.61
4583.26
4582.19
4580.15
4576.85
4571.91
4564.83
4555
4541.66
4523.86
4500.52
4470.26
4431.8
4384.03
4326.91
4264.87
4190.77
4085.57
3976.27
3908.86
3882.17
3882.61
3896.88
3916.39
3935.81
3953.02
3969.17
3985.91
4001.29
4015.59
4029.95
4040.44
4047.61
4055.06
4064.07
4073.89
4082.94
4101.16
4071.04
3911.06
3631.18
3540.04
3384.38
3363.12
3401.65
3065.07
2622.01
2655.96
2974.28
3023.09
3003.09
3200.17
3224.47
3224.76
3223.14
3218.83
3216.81
3215.49
3214.6
3214.17
3214.32
3213.31
3204.9
3192.38
3193
3199.39
3204.48
3204.05
3203.46
3203.09
3202.71
3202.13
3201.11
3200.13
3200.11
3200.52
3200.43
3199.37
3197.37
3195.18
3193.05
3190.74
3188.11
3185.29
3182.45
3179.27
3176.58
3173.88
3171.2
3180.28
3184.69
3185.08
3186.44
3187.12
3185.44
3182.67
3178.82
3173.99
3167.85
3171.21
3171.33
3163.51
3167.55
3161.87
3155.19
3153.08
3156.61
3156.55
3184.83
3309.08
3364.18
3382.03
3389.06
3386.25
3396.27
3433.93
3472.32
3500.66
3510.66
3512.96
3515.48
3518.44
3524.6
3533.62
3542.31
3550.08
3557.79
3565.58
3573.73
3580.45
3585.88
3592.02
3605.18
3595.78
3549.58
3499.73
3421.34
3103.4
3167.04
3433.35
3456.42
3454.68
3450
3437.06
3435.3
3439.57
3442.24
3443.5
3444.6
3445.83
3449.32
2976.04
2525.21
2619.66
2588.99
2590.79
3134.94
3550.74
3492.67
2734.03
1631.48
2302.98
3377.78
3551.65
3438.35
3061.97
3017.19
2863.64
2141.22
1900.6
1985.19
1889.45
1757.26
1613.36
1480.66
1258.81
1183.83
1299.04
1758.69
1874.64
1856.18
1518.2
1385.72
1507.28
1404.21
1535.52
2252.45
1677.07
700.47
482.61
571.821
1305.58
1420.85
1240.9
573.805
438.205
556.429
1011.83
1204.81
386.214
2393.32
4821.53
4673.76
4504.17
4485.3
4508.67
4521.12
4522.6
4521.97
4522.64
4524.23
4525.94
4527.51
4529
4530.48
4531.97
4533.47
4534.97
4536.47
4537.96
4539.45
4540.94
4542.43
4543.91
4545.39
4546.87
4548.34
4549.8
4551.26
4552.71
4554.15
4555.58
4557
4558.4
4559.78
4561.14
4562.47
4563.76
4565.02
4566.22
4567.35
4568.41
4569.37
4570.21
4570.9
4571.4
4571.68
4571.66
4571.29
4570.46
4569.08
4567.01
4564.06
4560.04
4554.68
4547.68
4538.65
4527.14
4512.65
4494.58
4472.27
4445.02
4412.17
4373.15
4327.75
4277.14
4222.5
4165.61
4113.62
4069.5
4031.72
4001.31
3980.21
3968.35
3963.8
3963.7
3965.69
3968.89
3973.77
3981.53
3993.15
4007.6
4020.33
4028.94
4034.38
4038.93
4045.75
4062.09
4090.82
4071.29
4004.61
3913.19
3702.7
3357.63
3238.93
3201.63
3147.34
3135.45
3185.15
3169.88
3124.4
3124.44
3168.22
3200.19
3210.38
3213.8
3214.38
3214.2
3214.09
3214.14
3214.32
3215.01
3214.42
3207.13
3197.41
3197.43
3206.6
3208.6
3208.98
3209.28
3209.57
3209.33
3208.68
3208.06
3207.26
3202.19
3200.75
3201.48
3201.03
3199.22
3196.72
3194.44
3192.95
3191.67
3190.53
3189.69
3188.98
3187.57
3186.68
3187.25
3189.92
3194.49
3198.21
3198.97
3198.09
3195.85
3192.34
3187.86
3182.96
3177.64
3171.64
3162.94
3154.67
3148.19
3144.07
3147.96
3163.06
3193.87
3241.61
3285.93
3316.9
3342.01
3364.6
3386.82
3411.29
3436.02
3458
3476.23
3491.18
3502.73
3509.37
3515.51
3524.19
3535.25
3547.15
3557.6
3566.01
3573.84
3581.94
3589.93
3596.03
3599.87
3603.1
3607.07
3610.08
3616.46
3613.86
3542.15
3434.99
3413.17
3413.65
3416.69
3416.52
3416.72
3417.07
3417.2
3417.49
3421.88
3430.24
3443.17
3455.26
3457.32
3454.39
3446.76
3438.44
3422.8
3394.03
3387.96
3413.63
3399.53
3052.06
2367.37
2503.57
3003.4
3128.81
3061.08
3094.33
3246.68
3412.2
3477.11
3213.54
2769.35
2629.47
2574.82
2551.57
2550.81
2342.48
1727.71
1706.88
1673.02
2264.51
2534.74
2532.56
2537.03
2552.96
2552.18
2545.88
2415.52
1305.85
897.936
1012.49
1130.55
1134.27
609.513
472.139
444.977
628.669
548.585
89.5764
-17.6828
2392.91
4821.3
4673.72
4504.08
4485.17
4508.53
4520.99
4522.47
4521.83
4522.49
4524.08
4525.78
4527.33
4528.8
4530.27
4531.74
4533.22
4534.69
4536.16
4537.62
4539.07
4540.51
4541.95
4543.37
4544.78
4546.18
4547.57
4548.94
4550.29
4551.61
4552.92
4554.19
4555.43
4556.62
4557.78
4558.88
4559.92
4560.89
4561.78
4562.56
4563.24
4563.78
4564.16
4564.35
4564.33
4564.03
4563.42
4562.44
4561
4559.03
4556.42
4553.04
4548.74
4543.34
4536.65
4528.41
4518.36
4506.18
4491.54
4474.08
4453.43
4429.25
4401.26
4369.34
4333.6
4294.75
4253.78
4211.3
4168.3
4126.71
4089.46
4059.12
4036.73
4021.79
4012.88
4008.25
4006.55
4007.03
4009.21
4012.48
4016
4018.64
4019.36
4017.61
4013.18
4005.36
3991.82
3966.47
3916.46
3826.52
3718.04
3622.22
3545.48
3503.32
3521.48
3583.99
3600.53
3503.56
3345.58
3230.93
3189.3
3182.38
3173.41
3170.3
3181.64
3197.37
3206.16
3209.84
3211.77
3213.33
3215.07
3217.3
3220.08
3218.39
3204.33
3185.34
3182.47
3191.21
3198.09
3201.82
3204.68
3206.32
3206.99
3206.33
3202.01
3194.18
3188
3191.07
3195.44
3196.57
3194.54
3191.74
3188.78
3185.51
3182.14
3178.77
3175.19
3171.15
3168.43
3172.25
3179.05
3187.11
3195
3198.35
3196.9
3191.43
3181.88
3169.28
3160.3
3163.31
3171.75
3168.52
3154.98
3134.59
3119.33
3120.78
3142.13
3176.4
3223.2
3277.98
3322.01
3352.22
3374.34
3394
3415.01
3437.79
3460
3478.97
3493.44
3504.19
3512.74
3520.86
3529.54
3538.66
3547.79
3556.28
3563.93
3570.81
3576.85
3581.52
3584.74
3586.67
3584.91
3574.39
3552.6
3525.34
3499.91
3475.29
3456.17
3449.86
3450.36
3448.25
3442.67
3437.57
3436.15
3436.98
3438.16
3440.25
3445.66
3455.57
3469.03
3480.27
3485.27
3489.7
3496.69
3506.47
3518.92
3534.66
3552.31
3593.03
3553.48
3280.45
2909.35
2744.23
2726.03
2780.35
2860.23
2840.86
2741.26
2772.06
2773.1
2729.98
2699.24
2683.73
2685.01
2698.41
2682.1
2583.11
2485.47
2469.06
2478.69
2480.47
2480.96
2484.92
2491.97
2502.23
2518.92
2521.41
2467.25
1971.14
1853.88
2227.55
2352.76
1373.04
-399.087
-125.996
1205.33
1875.51
1069.36
-55.6959
2392.72
4821.21
4673.68
4504.01
4485.08
4508.45
4520.91
4522.38
4521.74
4522.39
4523.97
4525.66
4527.2
4528.66
4530.11
4531.57
4533.02
4534.47
4535.91
4537.33
4538.75
4540.15
4541.54
4542.91
4544.26
4545.59
4546.9
4548.18
4549.43
4550.65
4551.82
4552.95
4554.03
4555.05
4556
4556.87
4557.65
4558.34
4558.9
4559.33
4559.61
4559.71
4559.6
4559.25
4558.62
4557.68
4556.36
4554.6
4552.35
4549.5
4545.98
4541.67
4536.44
4530.14
4522.63
4513.72
4503.2
4490.88
4476.54
4459.95
4440.92
4419.28
4394.93
4367.87
4338.22
4306.32
4272.67
4237.9
4203.02
4169.56
4139.02
4112.34
4089.77
4071.09
4055.83
4043.4
4033.2
4024.71
4017.46
4011.05
4005.04
3998.85
3991.7
3982.71
3970.89
3955.08
3933.71
3904.86
3866.74
3818.49
3763.33
3705.12
3643.31
3577.7
3509.5
3438.8
3363.82
3293.14
3238.01
3202.06
3182.59
3175.51
3177.69
3186.61
3197.64
3205.96
3209.73
3210.92
3211.45
3212.07
3213.17
3215.24
3218.39
3220.46
3216.84
3211.01
3208.41
3207.4
3205
3201.96
3201.6
3205.56
3211.51
3218.03
3224.3
3227.77
3220.7
3204.74
3190.33
3184.5
3187.77
3191.24
3191.42
3190.7
3191.19
3193.55
3197.22
3200.55
3199.23
3192.93
3187.13
3184.95
3187.35
3192.94
3196.32
3195.96
3193.11
3188.76
3184.04
3179.21
3172.54
3163.34
3155.01
3151.37
3154.31
3165.33
3185.35
3212.87
3245.6
3279.83
3310.74
3337.14
3360.88
3383.58
3405.81
3427.22
3446.95
3464.24
3479.05
3491.88
3503.3
3513.87
3523.95
3533.65
3542.89
3551.5
3559.31
3566.22
3572.12
3576.85
3579.91
3580.73
3578.96
3574.08
3565.9
3554.5
3538.87
3517.61
3493.79
3473.96
3460.03
3449.73
3441.82
3436.16
3432.74
3431.15
3431.24
3433.31
3437.51
3443.07
3448.08
3450.45
3449.52
3445.93
3440.15
3432.07
3422.28
3412.77
3401.08
3375.82
3322.38
3256.22
3227.42
3263.73
3334.5
3410.93
3323.3
3041.53
2769.09
2613.91
2589.81
2613.38
2603.54
2581.63
2565.34
2554.75
2543.19
2524.92
2512.33
2511.8
2518.68
2527.07
2534.17
2542.93
2555.22
2569.97
2590.35
2621.08
2635.47
2545.06
2202.92
2023.02
1997.66
1966.14
1582.9
674.285
385.817
991.233
794.987
-23.8653
2392.49
4821.07
4673.65
4503.95
4485
4508.36
4520.82
4522.29
4521.64
4522.29
4523.86
4525.54
4527.07
4528.52
4529.96
4531.4
4532.83
4534.26
4535.67
4537.07
4538.46
4539.82
4541.17
4542.5
4543.8
4545.07
4546.31
4547.52
4548.69
4549.81
4550.88
4551.89
4552.83
4553.7
4554.49
4555.18
4555.75
4556.2
4556.51
4556.65
4556.61
4556.36
4555.86
4555.09
4554.01
4552.56
4550.71
4548.39
4545.53
4542.07
4537.91
4532.97
4527.14
4520.3
4512.32
4503.07
4492.42
4480.2
4466.29
4450.54
4432.85
4413.14
4391.38
4367.61
4341.98
4314.73
4286.24
4257.04
4227.75
4199.1
4171.76
4146.29
4123.03
4102.17
4083.68
4067.36
4052.91
4039.95
4028.1
4016.9
4005.86
3994.37
3981.74
3967.26
3950.21
3929.83
3905.31
3875.81
3840.51
3798.7
3750.53
3697.82
3643.01
3588.84
3538.79
3495.87
3458.4
3421.77
3384.12
3348.07
3317.64
3294.58
3277.8
3265.46
3256.3
3249.39
3243.95
3239.5
3235.87
3232.94
3230.54
3228.4
3226.09
3222.97
3218.6
3213.68
3209.73
3207.48
3206.58
3206.68
3207.7
3209.09
3210.06
3209.86
3208.1
3204.67
3200.05
3195.63
3192.9
3192.51
3193.14
3193.07
3191.88
3190.29
3188.76
3187.28
3185.74
3184.12
3182.63
3181.86
3182.43
3184.31
3186.83
3188.84
3189.04
3187.08
3183.59
3179.49
3175.83
3173.62
3173.35
3174.82
3176.96
3180.73
3187.71
3199.14
3215.52
3236.36
3260.45
3286.15
3311.91
3336.5
3359.57
3381.31
3401.83
3421.14
3439.13
3455.63
3470.52
3483.8
3495.74
3506.58
3516.55
3525.77
3534.19
3541.71
3548.23
3553.66
3557.89
3560.86
3562.31
3561.53
3557.97
3551.3
3541.38
3528.6
3513.92
3498.55
3484.07
3472.07
3462.93
3455.99
3450.57
3446.44
3443.49
3441.65
3440.84
3440.89
3441.61
3442.74
3443.75
3443.97
3442.87
3440.25
3436.1
3430.17
3421.76
3409.43
3390.41
3360.59
3314.9
3250.96
3172.86
3092.41
3026.21
2977.95
2924.2
2841.54
2763.84
2724.95
2714.69
2703.16
2682.78
2663.26
2649.19
2635.57
2613.93
2581.69
2548.73
2525.83
2513.12
2506.2
2502.59
2502.87
2507.33
2513.54
2513.83
2498.81
2463.26
2416.58
2395.77
2439.85
2550.11
2703.4
2794.81
2429.62
1276.49
75.9345
102.989
57.3458
2392.37
4821.01
4673.62
4503.9
4484.94
4508.3
4520.76
4522.23
4521.58
4522.22
4523.79
4525.46
4526.99
4528.43
4529.85
4531.28
4532.7
4534.12
4535.51
4536.89
4538.25
4539.59
4540.91
4542.2
4543.46
4544.69
4545.89
4547.04
4548.14
4549.19
4550.19
4551.11
4551.95
4552.71
4553.37
4553.92
4554.34
4554.62
4554.74
4554.67
4554.4
4553.9
4553.12
4552.05
4550.65
4548.85
4546.63
4543.92
4540.67
4536.8
4532.24
4526.9
4520.7
4513.55
4505.33
4495.94
4485.28
4473.24
4459.72
4444.64
4427.92
4409.54
4389.49
4367.85
4344.72
4320.31
4294.9
4268.83
4242.52
4216.4
4190.95
4166.57
4143.58
4122.14
4102.29
4083.92
4066.85
4050.8
4035.45
4020.45
4005.37
3989.77
3973.16
3955.02
3934.84
3912.08
3886.22
3856.78
3823.42
3786.02
3744.98
3701.3
3656.25
3610.94
3566.24
3522.45
3479.06
3435.9
3394.34
3356.68
3324.7
3298.9
3278.75
3263.39
3251.85
3243.15
3236.39
3230.98
3226.57
3223.02
3220.16
3217.83
3215.84
3213.95
3211.98
3210
3208.32
3207.14
3206.38
3205.88
3205.61
3205.57
3205.67
3205.68
3205.41
3204.72
3203.38
3201.39
3199.13
3197.11
3195.52
3194.31
3193.31
3192.5
3191.97
3191.79
3191.91
3192.18
3192.35
3192.31
3192.21
3192.26
3192.54
3192.93
3193.22
3193.28
3193.2
3193.24
3193.64
3194.53
3195.64
3197.4
3201.05
3206.86
3215.2
3226.44
3240.7
3257.68
3276.77
3297.15
3317.98
3338.57
3358.51
3377.7
3396.11
3413.69
3430.36
3445.97
3460.43
3473.75
3485.96
3497.16
3507.41
3516.73
3525.11
3532.5
3538.83
3544.03
3548.02
3550.71
3551.91
3551.33
3548.79
3544.28
3538
3530.18
3521.12
3511.15
3500.72
3490.34
3480.31
3471.12
3462.99
3455.92
3449.83
3444.64
3440.21
3436.41
3433
3429.62
3425.86
3421.15
3415.04
3407.13
3397.12
3384.65
3369.22
3350.2
3326.72
3297.78
3262.63
3222.16
3180.55
3144.45
3114.4
3082.58
3038.17
2977.07
2908.36
2844.71
2791.71
2747.61
2709.29
2675.02
2644.19
2615.83
2588.95
2563.84
2542.42
2526.37
2515.33
2507.62
2501.4
2495.2
2487.45
2475.81
2457.17
2428.56
2387.24
2330.48
2254.82
2157.28
2034.84
1858.01
1582.55
1198.24
809.302
553.093
369.106
105.744
2392.27
4820.95
4673.61
4503.88
4484.9
4508.26
4520.72
4522.19
4521.54
4522.18
4523.74
4525.41
4526.93
4528.36
4529.78
4531.2
4532.62
4534.02
4535.4
4536.77
4538.11
4539.44
4540.74
4542.01
4543.25
4544.45
4545.61
4546.73
4547.8
4548.81
4549.75
4550.62
4551.4
4552.09
4552.68
4553.14
4553.47
4553.65
4553.65
4553.46
4553.05
4552.4
4551.47
4550.22
4548.63
4546.64
4544.21
4541.29
4537.82
4533.73
4528.96
4523.43
4517.06
4509.78
4501.47
4492.07
4481.49
4469.62
4456.4
4441.77
4425.68
4408.1
4389.07
4368.62
4346.88
4324.01
4300.22
4275.78
4251.03
4226.29
4201.91
4178.2
4155.4
4133.67
4113.06
4093.54
4075
4057.23
4040
4023
4005.89
3988.29
3969.79
3949.97
3928.4
3904.68
3878.46
3849.46
3817.52
3782.65
3745.08
3705.31
3664
3621.92
3579.85
3538.55
3498.75
3461.12
3426.33
3394.95
3367.38
3343.72
3323.77
3307.09
3293.19
3281.54
3271.72
3263.38
3256.26
3250.13
3244.8
3240.09
3235.83
3231.88
3228.16
3224.68
3221.53
3218.81
3216.54
3214.7
3213.21
3211.97
3210.84
3209.66
3208.29
3206.66
3204.74
3202.65
3200.57
3198.72
3197.19
3195.92
3194.8
3193.75
3192.77
3191.86
3190.99
3190.14
3189.36
3188.72
3188.32
3188.21
3188.36
3188.64
3188.93
3189.19
3189.5
3190.06
3191.15
3193.17
3196.79
3201.8
3208.01
3215.66
3225.13
3236.63
3250.15
3265.51
3282.36
3300.26
3318.75
3337.4
3355.89
3374.01
3391.62
3408.6
3424.84
3440.25
3454.73
3468.25
3480.77
3492.28
3502.78
3512.24
3520.64
3527.93
3534.06
3538.96
3542.57
3544.78
3545.53
3544.71
3542.28
3538.25
3532.6
3525.47
3517.13
3507.92
3498.27
3488.64
3479.57
3470.96
3462.76
3455.09
3448.07
3441.7
3435.87
3430.41
3425.05
3419.56
3413.5
3406.51
3398.18
3388.15
3376.22
3362.12
3345.55
3326.22
3303.7
3277.53
3247.41
3213.39
3175.96
3135.51
3091.87
3044.62
2993.37
2938.64
2883.2
2831.14
2784.96
2744.53
2708.52
2675.97
2646.56
2619.99
2595.69
2573.05
2551.92
2532.46
2514.53
2497.45
2480
2460.83
2438.35
2410.61
2375.1
2329
2269.33
2193.42
2099.42
1986.89
1854.95
1696.55
1501.32
1263.44
988.386
696.523
404.16
134.038
2392.26
4820.94
4673.61
4503.87
4484.89
4508.25
4520.71
4522.18
4521.53
4522.17
4523.73
4525.39
4526.91
4528.35
4529.76
4531.18
4532.59
4533.99
4535.37
4536.74
4538.08
4539.4
4540.69
4541.95
4543.18
4544.38
4545.53
4546.64
4547.69
4548.69
4549.61
4550.46
4551.23
4551.9
4552.46
4552.9
4553.19
4553.34
4553.3
4553.07
4552.62
4551.92
4550.93
4549.63
4547.98
4545.93
4543.44
4540.46
4536.92
4532.77
4527.94
4522.36
4515.96
4508.64
4500.34
4490.96
4480.42
4468.64
4455.56
4441.11
4425.25
4407.97
4389.28
4369.25
4347.97
4325.6
4302.34
4278.43
4254.16
4229.84
4205.78
4182.26
4159.5
4137.67
4116.82
4096.94
4077.95
4059.66
4041.84
4024.22
4006.45
3988.19
3969.06
3948.66
3926.62
3902.59
3876.25
3847.38
3815.85
3781.68
3745.07
3706.42
3666.31
3625.42
3584.45
3544.03
3504.69
3466.78
3430.65
3396.78
3365.81
3338.27
3314.43
3294.23
3277.42
3263.62
3252.39
3243.3
3235.95
3230.02
3225.24
3221.37
3218.21
3215.56
3213.27
3211.28
3209.55
3208.11
3206.96
3206.05
3205.33
3204.74
3204.23
3203.74
3203.19
3202.52
3201.69
3200.66
3199.49
3198.25
3197.02
3195.87
3194.84
3193.97
3193.27
3192.77
3192.48
3192.39
3192.48
3192.71
3193.08
3193.54
3194.07
3194.65
3195.34
3196.24
3197.47
3199.18
3201.48
3204.53
3208.43
3213.18
3219.27
3227.02
3236.48
3247.64
3260.45
3274.77
3290.32
3306.78
3323.79
3341.04
3358.26
3375.26
3391.92
3408.13
3423.8
3438.85
3453.19
3466.73
3479.39
3491.11
3501.84
3511.53
3520.12
3527.57
3533.85
3538.91
3542.69
3545.12
3546.16
3545.75
3543.86
3540.5
3535.74
3529.69
3522.54
3514.46
3505.65
3496.3
3486.61
3476.77
3467.01
3457.64
3448.86
3440.75
3433.18
3425.93
3418.72
3411.2
3403.02
3393.78
3383.14
3370.76
3356.31
3339.67
3320.92
3300.39
3278.29
3254.28
3228.27
3200.25
3170.28
3138.6
3105.25
3069.6
3029.65
2985.57
2938.17
2888.73
2839.11
2791.29
2746.6
2705.61
2668.36
2634.62
2603.9
2575.74
2550.25
2526.92
2505.21
2484.39
2463.27
2440.23
2413.28
2379.98
2337.55
2282.82
2212.3
2122.24
2008.57
1867.41
1698.14
1503.94
1289.67
1060.37
821.761
582.247
352.134
137.116
2392.28
4820.95
4673.61
4503.88
4484.9
4508.26
4520.73
4522.19
4521.54
4522.18
4523.74
4525.41
4526.93
4528.37
4529.79
4531.21
4532.62
4534.03
4535.41
4536.78
4538.12
4539.45
4540.75
4542.02
4543.26
4544.46
4545.63
4546.75
4547.81
4548.82
4549.77
4550.64
4551.42
4552.11
4552.7
4553.16
4553.5
4553.67
4553.68
4553.49
4553.08
4552.43
4551.49
4550.25
4548.66
4546.67
4544.24
4541.32
4537.84
4533.75
4528.98
4523.45
4517.08
4509.78
4501.47
4492.06
4481.46
4469.59
4456.36
4441.71
4425.6
4408.01
4388.96
4368.5
4346.74
4323.85
4300.05
4275.62
4250.86
4226.13
4201.77
4178.07
4155.3
4133.58
4113
4093.5
4074.97
4057.22
4040
4023.01
4005.9
3988.3
3969.8
3949.96
3928.38
3904.65
3878.41
3849.39
3817.42
3782.51
3744.92
3705.12
3663.8
3621.7
3579.62
3538.32
3498.53
3460.92
3426.15
3394.81
3367.28
3343.66
3323.77
3307.15
3293.29
3281.69
3271.91
3263.61
3256.52
3250.41
3245.1
3240.4
3236.13
3232.16
3228.39
3224.81
3221.49
3218.55
3216.06
3214.01
3212.34
3210.98
3209.84
3208.84
3207.84
3206.69
3205.34
3203.76
3201.97
3200
3198.01
3196.21
3194.74
3193.59
3192.65
3191.78
3190.92
3190.08
3189.35
3188.76
3188.31
3188.01
3187.86
3187.91
3188.19
3188.77
3189.96
3191.77
3194.07
3197.09
3201.13
3206.39
3213.03
3221.22
3231.08
3242.67
3255.94
3270.73
3286.72
3303.55
3320.83
3338.25
3355.59
3372.73
3389.59
3406.12
3422.24
3437.88
3452.91
3467.22
3480.68
3493.17
3504.59
3514.85
3523.93
3531.78
3538.4
3543.8
3547.84
3550.49
3551.69
3551.4
3549.57
3546.21
3541.4
3535.24
3527.9
3519.49
3510.09
3499.75
3488.57
3476.83
3465.09
3454.01
3444.06
3435.28
3427.4
3420.02
3412.78
3405.31
3397.21
3387.96
3377.06
3364.03
3348.61
3330.88
3311.33
3290.5
3268.87
3246.92
3224.3
3200.13
3173.36
3142.82
3107.63
3067.42
3023.12
2973.9
2919.17
2860.07
2800.76
2746.77
2700.93
2662.57
2629.61
2600.6
2574.98
2552.08
2530.54
2510.21
2491.15
2472.71
2453.84
2432.86
2408.23
2377.05
2336.16
2281.86
2209.8
2115.48
1993.88
1839.52
1653.83
1444.55
1222.82
997.838
786.15
579.588
370.566
158.754
2392.38
4821.01
4673.63
4503.91
4484.94
4508.31
4520.77
4522.24
4521.59
4522.23
4523.8
4525.47
4527
4528.44
4529.86
4531.29
4532.72
4534.13
4535.53
4536.91
4538.27
4539.61
4540.93
4542.22
4543.49
4544.72
4545.92
4547.07
4548.18
4549.23
4550.22
4551.15
4551.99
4552.75
4553.42
4553.97
4554.39
4554.67
4554.79
4554.73
4554.46
4553.95
4553.19
4552.12
4550.71
4548.92
4546.69
4543.99
4540.73
4536.85
4532.29
4526.94
4520.74
4513.57
4505.34
4495.94
4485.26
4473.19
4459.65
4444.53
4427.78
4409.36
4389.28
4367.6
4344.44
4320
4294.57
4268.49
4242.17
4216.07
4190.65
4166.31
4143.36
4121.96
4102.16
4083.83
4066.79
4050.76
4035.44
4020.44
4005.37
3989.77
3973.15
3954.99
3934.78
3911.98
3886.07
3856.58
3823.14
3785.67
3744.56
3700.83
3655.74
3610.4
3565.65
3521.81
3478.33
3435.05
3393.35
3355.56
3323.45
3297.53
3277.3
3261.86
3250.27
3241.55
3234.82
3229.44
3225.11
3221.68
3219
3216.95
3215.33
3213.9
3212.37
3210.63
3208.89
3207.49
3206.52
3205.8
3205.17
3204.59
3204.2
3204.09
3204.15
3204.17
3203.97
3203.52
3202.66
3201.19
3199.14
3196.93
3195.06
3193.72
3192.85
3192.27
3191.92
3191.91
3192.33
3193.12
3194.11
3195.01
3195.5
3195.46
3195.1
3194.89
3195.08
3195.95
3197.56
3199.88
3203.15
3207.47
3213.08
3220.32
3229.48
3240.8
3254.33
3269.82
3286.76
3304.47
3322.34
3339.95
3357.17
3374.06
3390.73
3407.28
3423.71
3439.95
3455.83
3471.15
3485.69
3499.24
3511.64
3522.77
3532.58
3541.1
3548.39
3554.47
3559.25
3562.6
3564.37
3564.45
3562.77
3559.27
3554.03
3547.26
3539.12
3529.68
3518.88
3506.49
3492.28
3476.46
3460.33
3445.9
3434.36