/*--------------------------------*- C++ -*----------------------------------*\
| =========                 |                                                 |
| \\      /  F ield         | OpenFOAM: The Open Source CFD Toolbox           |
|  \\    /   O peration     | Version:  2406                                  |
|   \\  /    A nd           | Website:  www.openfoam.com                      |
|    \\/     M anipulation  |                                                 |
\*---------------------------------------------------------------------------*/
FoamFile
{
    version     2.0;
    format      ascii;
    arch        "LSB;label=32;scalar=64";
    class       surfaceScalarField;
    location    "0.1";
    object      phi;
}
// * * * * * * * * * * * * * * * * * * * * * * * * * * * * * * * * * * * * * //

dimensions      [0 3 -1 0 0 0 0];

oriented        oriented;

internalField   nonuniform List<scalar> 
12225
(
1.58724e-05
2.18288e-08
1.58529e-05
1.95219e-08
1.58444e-05
8.57145e-09
1.58351e-05
9.27713e-09
1.58227e-05
1.24105e-08
1.58095e-05
1.31247e-08
1.57964e-05
1.31168e-08
1.57832e-05
1.32636e-08
1.57696e-05
1.36096e-08
1.57556e-05
1.39782e-08
1.57412e-05
1.43258e-08
1.57266e-05
1.46723e-08
1.57115e-05
1.50378e-08
1.56961e-05
1.54305e-08
1.56803e-05
1.58556e-08
1.56639e-05
1.63197e-08
1.56471e-05
1.68314e-08
1.56297e-05
1.74003e-08
1.56117e-05
1.80365e-08
1.55929e-05
1.87515e-08
1.55734e-05
1.95574e-08
1.55529e-05
2.04679e-08
1.55314e-05
2.14982e-08
1.55087e-05
2.26653e-08
1.54847e-05
2.39884e-08
1.54592e-05
2.54891e-08
1.54321e-05
2.71924e-08
1.54029e-05
2.9126e-08
1.53716e-05
3.13223e-08
1.53378e-05
3.38175e-08
1.53011e-05
3.66537e-08
1.52613e-05
3.98789e-08
1.52177e-05
4.35482e-08
1.517e-05
4.77251e-08
1.51175e-05
5.24831e-08
1.50596e-05
5.79071e-08
1.49955e-05
6.40955e-08
1.49243e-05
7.11631e-08
1.48451e-05
7.92433e-08
1.47566e-05
8.84924e-08
1.46575e-05
9.90936e-08
1.45462e-05
1.11262e-07
1.4421e-05
1.25253e-07
1.42796e-05
1.41368e-07
1.41197e-05
1.59967e-07
1.39382e-05
1.81479e-07
1.37317e-05
2.06425e-07
1.34963e-05
2.35433e-07
1.3227e-05
2.69271e-07
1.29182e-05
3.08885e-07
1.25627e-05
3.55458e-07
1.21522e-05
4.10477e-07
1.16764e-05
4.75855e-07
1.11223e-05
5.54097e-07
1.04737e-05
6.48573e-07
9.70973e-06
7.63966e-07
8.80265e-06
9.07085e-07
7.71423e-06
1.08842e-06
6.38885e-06
1.32538e-06
4.73739e-06
1.65146e-06
2.53322e-06
2.20417e-06
8.33865e-07
1.69936e-06
5.11865e-07
3.22e-07
3.82989e-07
1.28876e-07
2.94897e-07
8.80918e-08
2.42195e-07
5.27016e-08
2.08506e-07
3.36887e-08
1.80499e-07
2.8007e-08
1.60189e-07
2.03108e-08
1.49683e-07
1.05059e-08
1.46335e-07
3.34775e-09
1.46825e-07
-4.89626e-10
1.48494e-07
-1.66926e-09
1.49783e-07
-1.28936e-09
1.49679e-07
1.04011e-10
1.48069e-07
1.60991e-09
1.4532e-07
2.74897e-09
1.41915e-07
3.40569e-09
1.38606e-07
3.30904e-09
1.36581e-07
2.02481e-09
1.36439e-07
1.42213e-10
1.38329e-07
-1.88996e-09
1.4165e-07
-3.32138e-09
1.45044e-07
-3.394e-09
1.46963e-07
-1.91919e-09
1.46323e-07
6.40533e-10
1.43056e-07
3.26657e-09
1.37472e-07
5.58378e-09
1.30331e-07
7.14134e-09
1.22271e-07
8.06033e-09
1.14043e-07
8.2275e-09
1.06797e-07
7.24561e-09
1.0103e-07
5.76758e-09
9.61544e-08
4.87543e-09
9.14271e-08
4.72736e-09
8.69972e-08
4.4299e-09
8.40785e-08
2.91869e-09
8.38547e-08
2.2376e-10
8.72645e-08
-3.40974e-09
9.11419e-08
-3.87747e-09
9.01868e-08
9.55178e-10
8.36831e-08
6.50369e-09
7.60137e-08
7.66935e-09
6.94882e-08
6.52555e-09
6.34659e-08
6.02225e-09
5.71611e-08
6.30483e-09
5.07691e-08
6.39199e-09
4.46146e-08
6.1545e-09
3.91735e-08
5.44111e-09
3.52827e-08
3.89079e-09
3.32334e-08
2.04928e-09
3.20952e-08
1.13826e-09
3.08314e-08
1.26378e-09
2.92033e-08
1.62805e-09
2.74372e-08
1.76611e-09
2.62196e-08
1.21762e-09
2.6312e-08
-9.24349e-11
2.78236e-08
-1.51152e-09
3.02324e-08
-2.40885e-09
3.28785e-08
-2.64614e-09
3.52416e-08
-2.36304e-09
3.67599e-08
-1.51834e-09
3.72587e-08
-4.98817e-10
3.72749e-08
-1.61926e-11
3.74937e-08
-2.1881e-10
3.83276e-08
-8.33893e-10
3.9868e-08
-1.54036e-09
4.20076e-08
-2.13965e-09
4.46851e-08
-2.6775e-09
4.7409e-08
-2.72386e-09
4.94046e-08
-1.99558e-09
5.03377e-08
-9.33103e-10
5.05963e-08
-2.58567e-10
5.06454e-08
-4.91876e-11
5.05271e-08
1.18368e-10
5.02568e-08
2.7026e-10
5.03012e-08
-4.43454e-11
5.11718e-08
-8.7062e-10
5.29982e-08
-1.82642e-09
5.55173e-08
-2.51911e-09
5.83467e-08
-2.8294e-09
6.11321e-08
-2.78542e-09
6.35742e-08
-2.44208e-09
6.55108e-08
-1.93664e-09
6.6883e-08
-1.3722e-09
6.75226e-08
-6.39585e-10
6.74165e-08
1.06093e-10
6.81272e-08
-7.10615e-10
6.99559e-08
-1.82877e-09
7.29002e-08
-2.94425e-09
7.60729e-08
-3.17269e-09
7.78164e-08
-1.74355e-09
7.63788e-08
1.43764e-09
7.19333e-08
4.44545e-09
6.72575e-08
4.67584e-09
6.4324e-08
2.93346e-09
6.30007e-08
1.32337e-09
6.29206e-08
8.00726e-11
6.42236e-08
-1.30301e-09
6.77959e-08
-3.57227e-09
7.41895e-08
-6.39359e-09
8.25639e-08
-8.37445e-09
9.05681e-08
-8.00422e-09
9.604e-08
-5.47184e-09
9.82327e-08
-2.19276e-09
9.89966e-08
-7.63877e-10
1.00488e-07
-1.49101e-09
1.04507e-07
-4.01939e-09
1.10951e-07
-6.44365e-09
1.1836e-07
-7.40926e-09
1.24674e-07
-6.31408e-09
1.27701e-07
-3.02716e-09
1.27479e-07
2.2254e-10
1.27909e-07
-4.30134e-10
1.3131e-07
-3.40135e-09
1.37132e-07
-5.82186e-09
1.43475e-07
-6.34343e-09
1.48826e-07
-5.35071e-09
1.52275e-07
-3.4488e-09
1.54647e-07
-2.37182e-09
1.57509e-07
-2.86207e-09
1.60603e-07
-3.09435e-09
1.62992e-07
-2.38841e-09
1.64331e-07
-1.33965e-09
1.64947e-07
-6.16073e-10
1.66069e-07
-1.12187e-09
1.69741e-07
-3.6721e-09
1.76304e-07
-6.56287e-09
1.84177e-07
-7.87257e-09
1.90702e-07
-6.52487e-09
1.93902e-07
-3.20079e-09
1.94361e-07
-4.58928e-10
1.94277e-07
8.40177e-11
1.95072e-07
-7.94478e-10
1.96787e-07
-1.71485e-09
1.98849e-07
-2.06287e-09
2.00574e-07
-1.72502e-09
2.01546e-07
-9.71361e-10
2.01913e-07
-3.66803e-10
2.02073e-07
-1.59911e-10
2.02239e-07
-1.66583e-10
2.02434e-07
-1.94519e-10
2.02772e-07
-3.3838e-10
2.03587e-07
-8.14908e-10
2.05138e-07
-1.5513e-09
2.07302e-07
-2.1636e-09
2.096e-07
-2.29788e-09
2.11521e-07
-1.92084e-09
2.12816e-07
-1.29588e-09
2.13571e-07
-7.54136e-10
2.13863e-07
-2.92789e-10
2.13645e-07
2.18023e-10
2.12693e-07
9.52776e-10
2.10775e-07
1.91765e-09
2.0781e-07
2.96482e-09
2.03796e-07
4.01393e-09
1.98736e-07
5.06011e-09
1.92777e-07
5.95947e-09
1.86296e-07
6.48077e-09
1.79705e-07
6.59119e-09
1.73258e-07
6.44678e-09
1.66967e-07
6.2909e-09
1.60643e-07
6.32442e-09
1.54029e-07
6.61334e-09
1.47051e-07
6.97825e-09
1.40545e-07
6.50547e-09
1.35755e-07
4.79033e-09
1.33679e-07
2.07593e-09
1.33699e-07
-1.98967e-11
1.34394e-07
-6.95238e-10
1.35394e-07
-9.99743e-10
1.37395e-07
-2.00108e-09
1.38811e-07
-1.41551e-09
1.3686e-07
1.95113e-09
1.3102e-07
5.83939e-09
1.23489e-07
7.53081e-09
1.15666e-07
7.82355e-09
1.07861e-07
7.80447e-09
1.01321e-07
6.54009e-09
9.65755e-08
4.7457e-09
9.31151e-08
3.46047e-09
9.10701e-08
2.045e-09
9.20132e-08
-9.43081e-10
9.60391e-08
-4.02597e-09
1.00747e-07
-4.70756e-09
1.04642e-07
-3.8949e-09
1.03895e-07
7.46327e-10
9.45667e-08
9.32854e-09
7.75138e-08
1.70529e-08
2.2334e-08
1.59385e-05
6.41878e-09
1.59485e-05
9.48692e-09
1.59458e-05
1.12732e-08
1.59448e-05
1.02716e-08
1.59468e-05
1.04676e-08
1.59484e-05
1.15383e-08
1.59492e-05
1.23321e-08
1.59495e-05
1.29277e-08
1.59496e-05
1.3509e-08
1.59494e-05
1.41279e-08
1.5949e-05
1.4773e-08
1.59482e-05
1.54442e-08
1.59471e-05
1.6155e-08
1.59456e-05
1.69209e-08
1.59437e-05
1.77554e-08
1.59414e-05
1.86721e-08
1.59385e-05
1.9686e-08
1.59351e-05
2.08138e-08
1.59311e-05
2.20741e-08
1.59263e-05
2.34873e-08
1.59208e-05
2.50765e-08
1.59144e-05
2.68672e-08
1.5907e-05
2.88884e-08
1.58985e-05
3.11727e-08
1.58887e-05
3.3757e-08
1.58775e-05
3.66832e-08
1.58647e-05
3.99992e-08
1.58501e-05
4.37591e-08
1.58334e-05
4.8025e-08
1.58144e-05
5.28674e-08
1.57926e-05
5.83674e-08
1.57679e-05
6.46178e-08
1.57397e-05
7.17253e-08
1.57076e-05
7.98125e-08
1.56711e-05
8.90209e-08
1.56295e-05
9.95137e-08
1.55821e-05
1.1148e-07
1.55281e-05
1.25139e-07
1.54666e-05
1.40746e-07
1.53965e-05
1.58599e-07
1.53166e-05
1.79047e-07
1.52253e-05
2.02498e-07
1.51212e-05
2.29434e-07
1.50021e-05
2.60427e-07
1.48659e-05
2.96155e-07
1.471e-05
3.37426e-07
1.45312e-05
3.85212e-07
1.43259e-05
4.40686e-07
1.40899e-05
5.05272e-07
1.38181e-05
5.80713e-07
1.35044e-05
6.69159e-07
1.31416e-05
7.7329e-07
1.2721e-05
8.96476e-07
1.2232e-05
1.04302e-06
1.16621e-05
1.21847e-06
1.0996e-05
1.43015e-06
1.02152e-05
1.68785e-06
9.29857e-06
2.00504e-06
8.22326e-06
2.40069e-06
6.97346e-06
2.90126e-06
5.6008e-06
3.57683e-06
3.45358e-06
3.84658e-06
1.46296e-06
2.31262e-06
8.91004e-07
7.00831e-07
7.22906e-07
2.56191e-07
6.51385e-07
1.24222e-07
5.90436e-07
9.46372e-08
5.27531e-07
9.09118e-08
4.78787e-07
6.90547e-08
4.47461e-07
4.18325e-08
4.26645e-07
2.41631e-08
4.1204e-07
1.41162e-08
4.01801e-07
8.56921e-09
3.93535e-07
6.97654e-09
3.85792e-07
7.84783e-09
3.77952e-07
9.44912e-09
3.7052e-07
1.01816e-08
3.63595e-07
1.03303e-08
3.57302e-07
9.60193e-09
3.54523e-07
4.80437e-09
3.56675e-07
-2.01007e-09
3.62764e-07
-7.9791e-09
3.71397e-07
-1.19539e-08
3.80022e-07
-1.20196e-08
3.86003e-07
-7.89955e-09
3.87679e-07
-1.03642e-09
3.82923e-07
8.02305e-09
3.71708e-07
1.6799e-08
3.56159e-07
2.26906e-08
3.3798e-07
2.62389e-08
3.19701e-07
2.65061e-08
3.04347e-07
2.25997e-08
2.92463e-07
1.76522e-08
2.82313e-07
1.50256e-08
2.71508e-07
1.55316e-08
2.59794e-07
1.61442e-08
2.48822e-07
1.38905e-08
2.41521e-07
7.52467e-09
2.4169e-07
-3.57838e-09
2.48494e-07
-1.06815e-08
2.38165e-07
1.12844e-08
2.10315e-07
3.43532e-08
1.88255e-07
2.97293e-08
1.74234e-07
2.05469e-08
1.62294e-07
1.79617e-08
1.43021e-07
2.55786e-08
1.20789e-07
2.86233e-08
1.01143e-07
2.58006e-08
8.53472e-08
2.12371e-08
7.62712e-08
1.29668e-08
7.25777e-08
5.74271e-09
7.12492e-08
2.4668e-09
6.97588e-08
2.75421e-09
6.72474e-08
4.13948e-09
6.44399e-08
4.57355e-09
6.31193e-08
2.53821e-09
6.4573e-08
-1.54614e-09
6.84755e-08
-5.41398e-09
7.35924e-08
-7.52574e-09
7.89847e-08
-8.03844e-09
8.42834e-08
-7.66183e-09
8.86372e-08
-5.87206e-09
9.13613e-08
-3.223e-09
9.34234e-08
-2.07827e-09
9.63148e-08
-3.11017e-09
1.00244e-07
-4.76267e-09
1.04982e-07
-6.27922e-09
1.10396e-07
-7.5536e-09
1.16869e-07
-9.14987e-09
1.23729e-07
-9.58368e-09
1.29325e-07
-7.59216e-09
1.32766e-07
-4.37428e-09
1.3523e-07
-2.72181e-09
1.37875e-07
-2.69419e-09
1.40416e-07
-2.42333e-09
1.42423e-07
-1.73691e-09
1.44816e-07
-2.43696e-09
1.48759e-07
-4.81336e-09
1.5425e-07
-7.31763e-09
1.60418e-07
-8.68688e-09
1.66449e-07
-8.86109e-09
1.71752e-07
-8.08761e-09
1.75814e-07
-6.50449e-09
1.78668e-07
-4.79014e-09
1.81338e-07
-4.04272e-09
1.84219e-07
-3.52046e-09
1.87044e-07
-2.71919e-09
1.90666e-07
-4.33244e-09
1.95968e-07
-7.13053e-09
2.03022e-07
-9.99883e-09
2.09869e-07
-1.00196e-08
2.1568e-07
-7.55424e-09
2.17136e-07
-1.84631e-11
2.0979e-07
1.17913e-08
2.05017e-07
9.44872e-09
2.04069e-07
3.88146e-09
2.05741e-07
-3.48243e-10
2.09253e-07
-3.43145e-09
2.13474e-07
-5.52456e-09
2.18713e-07
-8.81142e-09
2.26649e-07
-1.43289e-08
2.3786e-07
-1.95861e-08
2.51022e-07
-2.11664e-08
2.64208e-07
-1.86574e-08
2.68795e-07
-6.77949e-09
2.71849e-07
-3.81791e-09
2.74789e-07
-4.43137e-09
2.81812e-07
-1.10423e-08
2.93436e-07
-1.80676e-08
3.08286e-07
-2.22595e-08
3.23256e-07
-2.12839e-08
3.3588e-07
-1.56514e-08
3.39012e-07
-2.90882e-09
3.44938e-07
-6.3568e-09
3.56497e-07
-1.49603e-08
3.7116e-07
-2.04851e-08
3.85933e-07
-2.11165e-08
3.99946e-07
-1.9363e-08
4.12746e-07
-1.62489e-08
4.22505e-07
-1.21305e-08
4.3231e-07
-1.26673e-08
4.42067e-07
-1.28515e-08
4.50844e-07
-1.11657e-08
4.5801e-07
-8.50561e-09
4.63712e-07
-6.31827e-09
4.70272e-07
-7.68168e-09
4.81325e-07
-1.47246e-08
4.97245e-07
-2.24833e-08
5.14713e-07
-2.53403e-08
5.28327e-07
-2.01388e-08
5.34998e-07
-9.87201e-09
5.36989e-07
-2.44998e-09
5.38568e-07
-1.49498e-09
5.41688e-07
-3.91412e-09
5.46582e-07
-6.60975e-09
5.52244e-07
-7.7244e-09
5.57305e-07
-6.78648e-09
5.61091e-07
-4.75669e-09
5.64106e-07
-3.38178e-09
5.66753e-07
-2.80668e-09
5.68885e-07
-2.29884e-09
5.70211e-07
-1.5203e-09
5.70785e-07
-9.13e-10
5.71667e-07
-1.69715e-09
5.74162e-07
-4.04615e-09
5.78121e-07
-6.12253e-09
5.82282e-07
-6.45843e-09
5.85356e-07
-4.99556e-09
5.86844e-07
-2.78368e-09
5.87146e-07
-1.05577e-09
5.86678e-07
1.7507e-10
5.85377e-07
1.51883e-09
5.82628e-07
3.70213e-09
5.77746e-07
6.79913e-09
5.70609e-07
1.01026e-08
5.61326e-07
1.32966e-08
5.49866e-07
1.65201e-08
5.36426e-07
1.93995e-08
5.21778e-07
2.11287e-08
5.06692e-07
2.1677e-08
4.91653e-07
2.14864e-08
4.76725e-07
2.12186e-08
4.61996e-07
2.10534e-08
4.46709e-07
2.19007e-08
4.2927e-07
2.44165e-08
4.11185e-07
2.45913e-08
3.96161e-07
1.98138e-08
3.85929e-07
1.23082e-08
3.78887e-07
7.0216e-09
3.72826e-07
5.36661e-09
3.68972e-07
2.85334e-09
3.69181e-07
-2.21015e-09
3.67553e-07
2.13257e-10
3.51084e-07
1.84203e-08
3.30187e-07
2.67361e-08
3.12305e-07
2.54123e-08
2.95666e-07
2.44633e-08
2.79145e-07
2.43249e-08
2.64821e-07
2.08639e-08
2.53268e-07
1.62986e-08
2.42858e-07
1.38711e-08
2.33643e-07
1.12595e-08
2.29517e-07
3.18365e-09
2.3123e-07
-5.73973e-09
2.32942e-07
-6.41938e-09
2.318e-07
-2.75261e-09
2.25573e-07
6.97357e-09
2.10172e-07
2.47297e-08
1.82464e-07
4.47601e-08
5.67251e-08
1.59197e-05
5.30107e-09
1.59224e-05
6.78222e-09
1.59269e-05
6.75335e-09
1.59291e-05
8.06008e-09
1.59303e-05
9.28436e-09
1.59315e-05
1.03077e-08
1.59326e-05
1.12091e-08
1.59335e-05
1.20445e-08
1.59342e-05
1.28718e-08
1.59346e-05
1.3722e-08
1.59347e-05
1.46068e-08
1.59346e-05
1.55368e-08
1.59343e-05
1.65277e-08
1.59336e-05
1.75979e-08
1.59326e-05
1.87659e-08
1.59312e-05
2.0051e-08
1.59294e-05
2.14739e-08
1.59272e-05
2.30574e-08
1.59244e-05
2.48269e-08
1.59211e-05
2.68105e-08
1.59171e-05
2.90399e-08
1.59125e-05
3.15505e-08
1.5907e-05
3.43822e-08
1.59006e-05
3.75802e-08
1.58931e-05
4.11954e-08
1.58845e-05
4.52858e-08
1.58746e-05
4.99172e-08
1.58632e-05
5.51643e-08
1.58501e-05
6.11125e-08
1.58351e-05
6.7859e-08
1.5818e-05
7.55147e-08
1.57984e-05
8.42067e-08
1.5776e-05
9.40806e-08
1.57505e-05
1.05303e-07
1.57215e-05
1.18067e-07
1.56884e-05
1.32591e-07
1.56507e-05
1.49132e-07
1.56079e-05
1.67984e-07
1.55592e-05
1.89488e-07
1.55037e-05
2.14039e-07
1.54407e-05
2.421e-07
1.5369e-05
2.74209e-07
1.52874e-05
3.10998e-07
1.51946e-05
3.53207e-07
1.50891e-05
4.01712e-07
1.49689e-05
4.57549e-07
1.48322e-05
5.21948e-07
1.46765e-05
5.9638e-07
1.44992e-05
6.82604e-07
1.42971e-05
7.82742e-07
1.40669e-05
8.99356e-07
1.38047e-05
1.03556e-06
1.3506e-05
1.19514e-06
1.31663e-05
1.38275e-06
1.27807e-05
1.60407e-06
1.23448e-05
1.86606e-06
1.18554e-05
2.17724e-06
1.13125e-05
2.54791e-06
1.07227e-05
2.99045e-06
1.01057e-05
3.51827e-06
9.52169e-06
4.16088e-06
8.55411e-06
4.81415e-06
5.7718e-06
5.09494e-06
2.8705e-06
3.60213e-06
1.50138e-06
1.62531e-06
1.17812e-06
4.47486e-07
1.0013e-06
2.7146e-07
8.63228e-07
2.28979e-07
7.82581e-07
1.49702e-07
7.31573e-07
9.28409e-08
6.93589e-07
6.21473e-08
6.61908e-07
4.57968e-08
6.32635e-07
3.78428e-08
6.01517e-07
3.80938e-08
5.66721e-07
4.26439e-08
5.35079e-07
4.10918e-08
5.16188e-07
2.90726e-08
5.08178e-07
1.83396e-08
5.07172e-07
1.06077e-08
5.19007e-07
-7.03059e-09
5.28408e-07
-1.14105e-08
5.40209e-07
-1.97803e-08
5.56199e-07
-2.79438e-08
5.74174e-07
-2.99945e-08
5.8964e-07
-2.33655e-08
5.97966e-07
-9.36303e-09
5.97882e-07
8.10765e-09
5.89985e-07
2.4696e-08
5.75932e-07
3.67438e-08
5.56559e-07
4.56117e-08
5.34979e-07
4.80857e-08
5.17064e-07
4.05148e-08
5.06082e-07
2.86339e-08
4.9985e-07
2.12576e-08
4.89993e-07
2.53887e-08
4.72157e-07
3.39799e-08
4.5237e-07
3.36779e-08
4.37439e-07
2.24556e-08
4.34202e-07
-3.41685e-10
4.46535e-07
-2.30142e-08
4.69412e-07
-1.15929e-08
4.15062e-07
8.87039e-08
3.75695e-07
6.90956e-08
3.51636e-07
4.46059e-08
3.27642e-07
4.19555e-08
2.62324e-07
9.0897e-08
1.90825e-07
1.00122e-07
1.41247e-07
7.53789e-08
1.07928e-07
5.45559e-08
9.80417e-08
2.28531e-08
9.66406e-08
7.14382e-09
9.55961e-08
3.51133e-09
9.15589e-08
6.7914e-09
8.57509e-08
9.94745e-09
8.26522e-08
7.6723e-09
8.38549e-08
1.33548e-09
8.82039e-08
-5.89509e-09
9.36716e-08
-1.08817e-08
9.89411e-08
-1.27952e-08
1.02903e-07
-1.20008e-08
1.08729e-07
-1.34876e-08
1.1481e-07
-1.19532e-08
1.18975e-07
-7.388e-09
1.24819e-07
-7.92157e-09
1.34202e-07
-1.24936e-08
1.44704e-07
-1.52649e-08
1.53309e-07
-1.48836e-08
1.57939e-07
-1.21833e-08
1.64614e-07
-1.58254e-08
1.74065e-07
-1.90344e-08
1.82362e-07
-1.5889e-08
1.85309e-07
-7.32167e-09
1.88964e-07
-6.37632e-09
1.96198e-07
-9.92838e-09
2.03687e-07
-9.91302e-09
2.08643e-07
-6.69245e-09
2.13945e-07
-7.73914e-09
2.2173e-07
-1.25978e-08
2.30984e-07
-1.65717e-08
2.39923e-07
-1.76262e-08
2.47501e-07
-1.64394e-08
2.5348e-07
-1.40667e-08
2.57402e-07
-1.04257e-08
2.57979e-07
-5.3675e-09
2.5873e-07
-4.79361e-09
2.63965e-07
-8.75569e-09
2.73474e-07
-1.2228e-08
2.83002e-07
-1.38604e-08
2.93727e-07
-1.78553e-08
3.03383e-07
-1.9655e-08
3.11124e-07
-1.77603e-08
3.16446e-07
-1.28768e-08
3.14971e-07
1.45655e-09
3.23519e-07
3.24324e-09
3.31565e-07
1.403e-09
3.37371e-07
-1.92503e-09
3.41079e-07
-4.05632e-09
3.46418e-07
-8.77027e-09
3.55251e-07
-1.43578e-08
3.6338e-07
-1.69398e-08
3.68978e-07
-1.99268e-08
3.73546e-07
-2.41546e-08
3.7831e-07
-2.59306e-08
3.80935e-07
-2.12815e-08
3.84011e-07
-9.85632e-09
3.94388e-07
-1.41942e-08
4.12453e-07
-2.24968e-08
4.28851e-07
-2.74406e-08
4.40204e-07
-2.94198e-08
4.50464e-07
-3.25199e-08
4.5552e-07
-2.63396e-08
4.6474e-07
-2.4872e-08
4.89433e-07
-2.76015e-08
5.11773e-07
-2.86966e-08
5.3183e-07
-3.50179e-08
5.49249e-07
-3.79035e-08
5.66807e-07
-3.86748e-08
5.86679e-07
-3.92352e-08
6.06223e-07
-3.5793e-08
6.31648e-07
-3.75553e-08
6.58148e-07
-3.91676e-08
6.8353e-07
-3.82328e-08
6.99207e-07
-2.68428e-08
7.14791e-07
-2.40899e-08
7.28666e-07
-2.01926e-08
7.32398e-07
-1.14138e-08
7.43648e-07
-2.59747e-08
7.63736e-07
-4.25712e-08
7.89262e-07
-5.08669e-08
8.15294e-07
-4.61702e-08
8.23277e-07
-1.78551e-08
8.19497e-07
1.33007e-09
8.21044e-07
-3.04272e-09
8.27947e-07
-1.0817e-08
8.38389e-07
-1.70516e-08
8.50357e-07
-1.96921e-08
8.61199e-07
-1.76288e-08
8.68037e-07
-1.15945e-08
8.72051e-07
-7.39624e-09
8.76448e-07
-7.20284e-09
8.8147e-07
-7.32124e-09
8.85684e-07
-5.73377e-09
8.89267e-07
-4.49614e-09
8.93417e-07
-5.84725e-09
8.99753e-07
-1.03822e-08
9.07932e-07
-1.43013e-08
9.15334e-07
-1.38611e-08
9.18904e-07
-8.56505e-09
9.16962e-07
-8.42235e-10
9.12715e-07
3.19172e-09
9.10243e-07
2.6468e-09
9.1012e-07
1.64218e-09
9.09708e-07
4.1138e-09
9.05871e-07
1.06366e-08
8.99057e-07
1.69167e-08
8.89985e-07
2.23686e-08
8.77855e-07
2.86502e-08
8.62155e-07
3.50994e-08
8.45315e-07
3.79681e-08
8.29048e-07
3.79441e-08
8.13843e-07
3.66918e-08
7.99557e-07
3.55044e-08
7.83727e-07
3.68836e-08
7.62101e-07
4.35268e-08
7.36418e-07
5.00993e-08
7.11364e-07
4.96448e-08
6.91147e-07
4.00305e-08
6.78208e-07
2.52476e-08
6.72019e-07
1.32102e-08
6.65651e-07
1.17347e-08
6.45239e-07
2.32654e-08
6.19708e-07
2.33217e-08
6.01532e-07
1.83892e-08
5.90951e-07
2.9001e-08
5.68404e-07
4.92826e-08
5.42735e-07
5.10817e-08
5.14395e-07
5.28035e-08
4.7402e-07
6.46997e-08
4.44346e-07
5.05375e-08
4.30348e-07
3.02973e-08
4.17578e-07
2.66404e-08
3.91847e-07
3.69909e-08
3.69245e-07
2.57854e-08
3.59173e-07
4.33277e-09
3.64918e-07
-1.21643e-08
3.80395e-07
-1.82297e-08
3.80317e-07
7.05093e-09
3.4951e-07
5.55369e-08
3.08979e-07
8.52918e-08
1.04471e-07
1.59289e-05
2.92897e-09
1.59305e-05
5.1261e-09
1.59305e-05
6.78143e-09
1.59311e-05
7.50874e-09
1.5932e-05
8.40411e-09
1.59328e-05
9.42313e-09
1.59336e-05
1.04214e-08
1.59343e-05
1.13859e-08
1.59348e-05
1.23507e-08
1.59352e-05
1.33459e-08
1.59354e-05
1.439e-08
1.59354e-05
1.54983e-08
1.59353e-05
1.66884e-08
1.59349e-05
1.798e-08
1.59343e-05
1.93945e-08
1.59334e-05
2.09546e-08
1.59322e-05
2.26853e-08
1.59306e-05
2.46139e-08
1.59286e-05
2.67709e-08
1.59263e-05
2.91903e-08
1.59234e-05
3.19101e-08
1.592e-05
3.49731e-08
1.59159e-05
3.84272e-08
1.59112e-05
4.23269e-08
1.59056e-05
4.67334e-08
1.58992e-05
5.17165e-08
1.58918e-05
5.73549e-08
1.58832e-05
6.37382e-08
1.58733e-05
7.09684e-08
1.5862e-05
7.91612e-08
1.58491e-05
8.84485e-08
1.58343e-05
9.89808e-08
1.58175e-05
1.10929e-07
1.57983e-05
1.2449e-07
1.57765e-05
1.39888e-07
1.57517e-05
1.57379e-07
1.57236e-05
1.77258e-07
1.56917e-05
1.99863e-07
1.56556e-05
2.25583e-07
1.56148e-05
2.54866e-07
1.55686e-05
2.8823e-07
1.55166e-05
3.26274e-07
1.54579e-05
3.6969e-07
1.53918e-05
4.19284e-07
1.53175e-05
4.75995e-07
1.52342e-05
5.40914e-07
1.51408e-05
6.15322e-07
1.50364e-05
7.00716e-07
1.49202e-05
7.98853e-07
1.47911e-05
9.11798e-07
1.46485e-05
1.04198e-06
1.44918e-05
1.19225e-06
1.4321e-05
1.36596e-06
1.41367e-05
1.56703e-06
1.39408e-05
1.8e-06
1.37368e-05
2.0701e-06
1.35308e-05
2.38323e-06
1.33328e-05
2.74592e-06
1.31579e-05
3.16529e-06
1.30278e-05
3.64834e-06
1.29833e-05
4.20546e-06
1.29922e-05
4.80519e-06
1.27622e-05
5.325e-06
1.08472e-05
5.51704e-06
7.85721e-06
4.61535e-06
4.89749e-06
3.4072e-06
2.55627e-06
2.61268e-06
1.4768e-06
1.30845e-06
1.32905e-06
2.97445e-07
1.25203e-06
1.69867e-07
1.09132e-06
2.22855e-07
9.38577e-07
1.98538e-07
8.18932e-07
1.57488e-07
7.20574e-07
1.36451e-07
6.28247e-07
1.34971e-07
5.47453e-07
1.21886e-07
5.02994e-07
7.3531e-08
4.74645e-07
4.6689e-08
5.35839e-07
-5.05858e-08
6.3423e-07
-1.05422e-07
6.45424e-07
-2.26044e-08
6.63149e-07
-3.75046e-08
6.89415e-07
-5.42104e-08
7.14968e-07
-5.5547e-08
7.44175e-07
-5.25729e-08
7.81973e-07
-4.71611e-08
8.311e-07
-4.10192e-08
8.63542e-07
-7.74573e-09
8.36417e-07
6.38686e-08
8.16476e-07
6.5553e-08
8.05316e-07
5.9245e-08
7.94705e-07
5.1126e-08
7.89292e-07
3.40469e-08
7.89594e-07
2.09557e-08
7.91499e-07
2.34836e-08
7.85647e-07
3.98321e-08
7.78112e-07
4.12133e-08
7.65938e-07
3.46296e-08
7.69002e-07
-3.4059e-09
7.95382e-07
-4.93948e-08
8.7108e-07
-8.72905e-08
9.65678e-07
-5.89361e-09
7.52001e-07
2.82772e-07
6.72122e-07
1.24485e-07
5.8236e-07
1.31718e-07
4.61385e-07
2.11872e-07
3.20279e-07
2.41228e-07
2.2125e-07
1.74408e-07
1.67914e-07
1.07891e-07
1.4512e-07
4.56476e-08
1.44722e-07
7.54201e-09
1.52357e-07
-4.1244e-09
1.26408e-07
3.27409e-08
8.88013e-08
4.75542e-08
7.62359e-08
2.02378e-08
8.9715e-08
-1.21437e-08
1.04776e-07
-2.09563e-08
1.06554e-07
-1.26591e-08
1.04629e-07
-1.08708e-08
1.05026e-07
-1.23974e-08
1.06534e-07
-1.49956e-08
1.10155e-07
-1.55746e-08
1.16763e-07
-1.39957e-08
1.27296e-07
-1.84543e-08
1.40967e-07
-2.61646e-08
1.55776e-07
-3.0074e-08
1.7264e-07
-3.17481e-08
1.85866e-07
-2.54087e-08
1.94944e-07
-2.49043e-08
1.98432e-07
-2.25223e-08
2.00744e-07
-1.82004e-08
2.02111e-07
-8.68899e-09
2.11505e-07
-1.57702e-08
2.22855e-07
-2.12779e-08
2.34092e-07
-2.11508e-08
2.42382e-07
-1.49819e-08
2.52639e-07
-1.79968e-08
2.64426e-07
-2.43849e-08
2.73949e-07
-2.60943e-08
2.82116e-07
-2.57936e-08
2.87964e-07
-2.22866e-08
2.92817e-07
-1.89202e-08
3.02641e-07
-2.02496e-08
2.96558e-07
7.15076e-10
2.97919e-07
-6.15392e-09
3.09163e-07
-2.00002e-08
3.2043e-07
-2.34948e-08
3.24358e-07
-1.77886e-08
3.36216e-07
-2.9713e-08
3.46266e-07
-2.9705e-08
3.4625e-07
-1.77441e-08
3.26593e-07
6.77997e-09
2.90659e-07
3.73904e-08
4.41526e-07
-1.47624e-07
4.46766e-07
-3.83717e-09
4.56947e-07
-1.21056e-08
4.61189e-07
-8.29822e-09
4.79182e-07
-2.6763e-08
4.90826e-07
-2.60023e-08
4.99074e-07
-2.51873e-08
5.02831e-07
-2.36845e-08
5.03213e-07
-2.45365e-08
4.96051e-07
-1.87689e-08
5.01997e-07
-2.72269e-08
5.14244e-07
-2.21036e-08
5.28032e-07
-2.79824e-08
5.416e-07
-3.60649e-08
5.54075e-07
-3.99153e-08
5.45741e-07
-2.10855e-08
5.23661e-07
-1.04405e-08
4.73003e-07
2.43189e-08
5.35928e-07
-8.77976e-08
5.91354e-07
-8.30269e-08
6.11084e-07
-4.84271e-08
6.24792e-07
-4.87257e-08
6.32358e-07
-4.54699e-08
6.2745e-07
-3.37667e-08
7.39346e-07
-1.51131e-07
7.923e-07
-8.87463e-08
8.24577e-07
-6.98324e-08
8.45677e-07
-6.02679e-08
9.75578e-07
-1.68134e-07
9.78668e-07
-2.99324e-08
9.91271e-07
-3.66925e-08
1.01408e-06
-4.30039e-08
1.02569e-06
-2.30181e-08
1.03894e-06
-3.92293e-08
1.05829e-06
-6.19207e-08
1.08527e-06
-7.78468e-08
1.1013e-06
-6.21983e-08
1.05298e-06
3.04673e-08
1.04585e-06
8.45119e-09
1.04782e-06
-5.01135e-09
1.05496e-06
-1.79559e-08
1.06535e-06
-2.74371e-08
1.07793e-06
-3.22772e-08
1.09115e-06
-3.08416e-08
1.10407e-06
-2.45138e-08
1.13013e-06
-3.34647e-08
1.15301e-06
-3.00807e-08
1.17136e-06
-2.56669e-08
1.18473e-06
-1.91093e-08
1.18756e-06
-7.32651e-09
1.18824e-06
-6.52928e-09
1.19574e-06
-1.78725e-08
1.20786e-06
-2.64236e-08
1.21871e-06
-2.47152e-08
1.22179e-06
-1.16442e-08
1.21458e-06
6.36501e-09
1.20268e-06
1.50998e-08
1.19525e-06
1.00698e-08
1.19507e-06
1.82702e-09
1.19747e-06
1.71145e-09
1.19797e-06
1.0135e-08
1.19564e-06
1.92478e-08
1.19253e-06
2.54816e-08
1.18556e-06
3.56146e-08
1.17388e-06
4.67778e-08
1.16232e-06
4.95277e-08
1.15412e-06
4.61501e-08
1.14868e-06
4.21271e-08
1.14378e-06
4.04052e-08
1.13536e-06
4.53071e-08
1.12167e-06
5.72166e-08
1.10542e-06
6.63458e-08
1.09165e-06
6.34204e-08
1.08065e-06
5.10293e-08
1.07243e-06
3.34624e-08
1.06811e-06
1.75348e-08
1.07117e-06
8.67848e-09
1.08171e-06
1.27253e-08
1.09578e-06
9.24238e-09
1.0923e-06
2.18736e-08
1.08389e-06
3.74155e-08
1.07008e-06
6.30915e-08
1.02637e-06
9.47904e-08
9.44353e-07
1.34818e-07
8.74977e-07
1.34075e-07
8.25388e-07
1.00127e-07
7.9888e-07
5.68054e-08
7.78914e-07
4.66065e-08
7.41459e-07
7.44456e-08
7.15304e-07
5.19404e-08
7.01777e-07
1.78601e-08
6.79805e-07
9.80715e-09
6.3821e-07
2.33652e-08
5.97051e-07
4.82102e-08
5.44656e-07
1.07932e-07
4.7257e-07
1.57378e-07
1.77869e-07
1.59253e-05
3.89231e-09
1.59251e-05
5.368e-09
1.59267e-05
5.14551e-09
1.59279e-05
6.27666e-09
1.59288e-05
7.48137e-09
1.59297e-05
8.53982e-09
1.59306e-05
9.53962e-09
1.59315e-05
1.05446e-08
1.59322e-05
1.15823e-08
1.59329e-05
1.26658e-08
1.59335e-05
1.38092e-08
1.59339e-05
1.50296e-08
1.59343e-05
1.63462e-08
1.59345e-05
1.77803e-08
1.59345e-05
1.93546e-08
1.59344e-05
2.10938e-08
1.59341e-05
2.30254e-08
1.59335e-05
2.51793e-08
1.59327e-05
2.75893e-08
1.59316e-05
3.02929e-08
1.59301e-05
3.33318e-08
1.59284e-05
3.67534e-08
1.59262e-05
4.06105e-08
1.59235e-05
4.49631e-08
1.59204e-05
4.98787e-08
1.59167e-05
5.54336e-08
1.59123e-05
6.17145e-08
1.59072e-05
6.88192e-08
1.59014e-05
7.68588e-08
1.58946e-05
8.59591e-08
1.58867e-05
9.62633e-08
1.58778e-05
1.07933e-07
1.58676e-05
1.21154e-07
1.58559e-05
1.36134e-07
1.58427e-05
1.53113e-07
1.58277e-05
1.72361e-07
1.58108e-05
1.94189e-07
1.57917e-05
2.18947e-07
1.57702e-05
2.47038e-07
1.57462e-05
2.7892e-07
1.57193e-05
3.15116e-07
1.56893e-05
3.56226e-07
1.56561e-05
4.02931e-07
1.56194e-05
4.56015e-07
1.5579e-05
5.16373e-07
1.55349e-05
5.85028e-07
1.54871e-05
6.63152e-07
1.54357e-05
7.52084e-07
1.53812e-05
8.53353e-07
1.53243e-05
9.687e-07
1.52662e-05
1.1001e-06
1.52086e-05
1.24978e-06
1.51544e-05
1.42024e-06
1.51071e-05
1.61425e-06
1.50723e-05
1.83481e-06
1.50573e-05
2.08513e-06
1.50721e-05
2.36847e-06
1.51299e-05
2.68803e-06
1.52487e-05
3.04657e-06
1.5451e-05
3.44599e-06
1.57688e-05
3.88772e-06
1.62126e-05
4.36135e-06
1.67077e-05
4.82985e-06
1.70471e-05
5.17766e-06
1.64964e-05
5.16606e-06
1.47914e-05
5.11225e-06
1.21025e-05
5.3015e-06
8.81586e-06
4.59514e-06
5.8273e-06
3.28601e-06
3.5386e-06
2.45856e-06
2.03291e-06
1.72854e-06
1.06719e-06
1.16426e-06
4.65106e-07
7.59572e-07
1.00632e-07
5.00925e-07
-1.161e-07
3.51703e-07
-2.30174e-07
2.3596e-07
-2.79324e-07
1.22681e-07
-2.60225e-07
2.75894e-08
-1.024e-07
-2.08411e-07
1.74673e-07
-3.82495e-07
4.65674e-07
-3.13606e-07
6.42189e-07
-2.14019e-07
7.03954e-07
-1.15976e-07
7.06713e-07
-5.83067e-08
6.99136e-07
-4.49956e-08
7.27908e-07
-7.5933e-08
8.84412e-07
-1.97523e-07
1.35526e-06
-4.78591e-07
1.29369e-06
1.25433e-07
1.26088e-06
9.83645e-08
1.23914e-06
8.09855e-08
1.20677e-06
8.35007e-08
1.20354e-06
3.7273e-08
1.22689e-06
-2.39672e-09
1.26319e-06
-1.28167e-08
1.24367e-06
5.93596e-08
1.22109e-06
6.37852e-08
1.2221e-06
3.36232e-08
1.24168e-06
-2.29908e-08
1.28375e-06
-9.14563e-08
1.36117e-06
-1.64712e-07
1.61047e-06
-2.55192e-07
1.9505e-06
-5.72637e-08
2.13221e-06
-5.72245e-08
2.21975e-06
4.41812e-08
2.26159e-06
1.70027e-07
2.34191e-06
1.60912e-07
2.45605e-06
6.02719e-08
2.629e-06
-6.50662e-08
2.8315e-06
-1.56853e-07
2.98605e-06
-1.47e-07
2.95243e-06
2.94944e-08
2.84801e-06
1.37162e-07
2.74279e-06
1.52774e-07
2.67363e-06
8.93943e-08
2.63371e-06
2.77727e-08
2.59873e-06
1.40257e-08
2.46775e-06
1.18327e-07
2.29039e-06
1.66489e-07
2.09771e-06
1.80276e-07
1.90569e-06
1.77023e-07
1.71763e-06
1.72492e-07
1.52822e-06
1.75409e-07
1.32829e-06
1.81481e-07
1.1221e-06
1.80021e-07
9.46176e-07
1.45852e-07
8.07461e-07
1.06967e-07
6.15388e-07
1.66664e-07
3.73061e-07
2.17423e-07
2.5084e-07
9.96987e-08
2.34479e-07
-1.84009e-09
2.48816e-07
-2.30253e-08
2.52e-07
-1.89541e-08
2.4573e-07
-1.5008e-08
2.46644e-07
-2.20651e-08
2.63154e-07
-3.14921e-08
2.74312e-07
-2.91547e-08
2.67879e-07
-1.79514e-08
2.6276e-07
-2.09758e-08
2.62634e-07
-2.56681e-08
2.61712e-07
-2.13638e-08
2.59807e-07
-1.70158e-08
2.94084e-07
-5.45259e-08
3.32992e-07
-3.81935e-08
3.49182e-07
-2.23438e-08
3.51284e-07
-2.21025e-08
3.48307e-07
-2.05179e-08
3.16345e-07
1.41737e-08
2.76548e-07
1.00843e-08
2.72279e-07
-2.54366e-08
2.76447e-07
-2.19118e-08
2.52331e-07
3.08961e-08
1.64682e-07
1.2504e-07
2.39824e-07
-2.22766e-07
3.65106e-07
-1.29119e-07
3.75394e-07
-2.23931e-08
4.06528e-07
-3.94328e-08
5.00645e-07
-1.2088e-07
5.09332e-07
-3.46888e-08
5.31515e-07
-4.73707e-08
5.40669e-07
-3.28383e-08
5.28464e-07
-1.23316e-08
5.25301e-07
-1.56055e-08
6.45374e-07
-1.47299e-07
6.76409e-07
-5.31393e-08
6.91322e-07
-4.28952e-08
7.23599e-07
-6.83415e-08
7.34811e-07
-5.1128e-08
7.263e-07
-1.25742e-08
5.26687e-07
1.89173e-07
3.14562e-07
2.36444e-07
2.49017e-07
-2.22521e-08
3.45579e-07
-1.7959e-07
4.84622e-07
-1.8747e-07
5.13133e-07
-7.72373e-08
4.911e-07
-2.34369e-08
5.15433e-07
-5.80996e-08
6.26754e-07
-2.62452e-07
7.55164e-07
-2.17156e-07
8.58542e-07
-1.7321e-07
1.00337e-06
-2.05092e-07
1.19153e-06
-3.56294e-07
1.36212e-06
-2.00526e-07
1.38457e-06
-5.91421e-08
1.37682e-06
-3.52507e-08
1.37233e-06
-1.85322e-08
1.36094e-06
-2.78381e-08
1.37378e-06
-7.47579e-08
1.4143e-06
-1.18366e-07
1.48901e-06
-1.36915e-07
1.33522e-06
1.84262e-07
1.22436e-06
1.19306e-07
1.22201e-06
-2.65913e-09
1.22266e-06
-1.86082e-08
1.22409e-06
-2.88649e-08
1.2259e-06
-3.40836e-08
1.20017e-06
-5.1141e-09
1.13723e-06
3.84272e-08
1.30748e-06
-2.03713e-07
1.51226e-06
-2.34867e-07
1.51636e-06
-2.97618e-08
1.52864e-06
-3.13954e-08
1.53737e-06
-1.60496e-08