/*--------------------------------*- C++ -*----------------------------------*\
| =========                 |                                                 |
| \\      /  F ield         | OpenFOAM: The Open Source CFD Toolbox           |
|  \\    /   O peration     | Version:  2406                                  |
|   \\  /    A nd           | Website:  www.openfoam.com                      |
|    \\/     M anipulation  |                                                 |
\*---------------------------------------------------------------------------*/
FoamFile
{
    version     2.0;
    format      ascii;
    arch        "LSB;label=32;scalar=64";
    class       volVectorField;
    location    "0.1";
    object      U;
}
// * * * * * * * * * * * * * * * * * * * * * * * * * * * * * * * * * * * * * //

dimensions      [0 1 -1 0 0 0 0];

internalField   nonuniform List<vector> 
6250
(
(56.733 0.0334768 0)
(10.1656 0.0301001 0)
(16.7537 0.0166062 0)
(20.6201 0.0151141 0)
(20.5633 0.018433 0)
(19.8805 0.020415 0)
(19.6445 0.0211869 0)
(19.673 0.0217659 0)
(19.7167 0.0224716 0)
(19.7146 0.0232269 0)
(19.6909 0.0239585 0)
(19.6674 0.0246645 0)
(19.6478 0.0253653 0)
(19.6295 0.0260759 0)
(19.6104 0.0268071 0)
(19.5904 0.0275701 0)
(19.5696 0.0283785 0)
(19.5482 0.0292472 0)
(19.526 0.0301921 0)
(19.5031 0.0312298 0)
(19.4792 0.0323778 0)
(19.4542 0.0336548 0)
(19.428 0.0350816 0)
(19.4004 0.0366806 0)
(19.3713 0.0384773 0)
(19.3404 0.0405 0)
(19.3076 0.042781 0)
(19.2724 0.0453566 0)
(19.2347 0.0482683 0)
(19.1941 0.0515631 0)
(19.1502 0.0552954 0)
(19.1024 0.0595268 0)
(19.0504 0.0643292 0)
(18.9935 0.069785 0)
(18.9311 0.0759904 0)
(18.8623 0.0830567 0)
(18.7863 0.0911142 0)
(18.702 0.100315 0)
(18.6083 0.110837 0)
(18.5038 0.122891 0)
(18.387 0.136724 0)
(18.256 0.15263 0)
(18.1087 0.170959 0)
(17.9427 0.192129 0)
(17.7551 0.216643 0)
(17.5426 0.245111 0)
(17.3013 0.278278 0)
(17.0264 0.317059 0)
(16.7125 0.362593 0)
(16.353 0.416313 0)
(15.9401 0.480047 0)
(15.4642 0.556166 0)
(14.9138 0.647818 0)
(14.2746 0.75929 0)
(13.529 0.89663 0)
(12.6543 1.06875 0)
(11.6215 1.28958 0)
(10.3917 1.58252 0)
(8.92408 1.99094 0)
(6.86134 2.61136 0)
(5.73587 3.8179 0)
(0.983976 1.43219 0)
(0.685018 0.576927 0)
(0.533515 0.242596 0)
(0.422519 0.106314 0)
(0.329653 0.0491139 0)
(0.276681 0.0253417 0)
(0.240522 0.0165447 0)
(0.210713 0.0089651 0)
(0.191505 0.00231828 0)
(0.183476 -0.00118944 0)
(0.182495 -0.00261712 0)
(0.184435 -0.00338805 0)
(0.186591 -0.00350739 0)
(0.187436 -0.00284455 0)
(0.186378 -0.00159937 0)
(0.183547 -0.000186827 0)
(0.179523 0.000996233 0)
(0.175102 0.00144886 0)
(0.171556 0.000670215 0)
(0.170095 -0.000912622 0)
(0.171327 -0.00258017 0)
(0.17486 -0.00375421 0)
(0.179423 -0.00403149 0)
(0.183028 -0.00339999 0)
(0.183987 -0.00194585 0)
(0.181562 7.65919e-05 0)
(0.175884 0.00213154 0)
(0.167694 0.00376383 0)
(0.157906 0.00499786 0)
(0.147545 0.00540911 0)
(0.137761 0.00455488 0)
(0.129649 0.00309089 0)
(0.123113 0.00186507 0)
(0.117144 0.00100642 0)
(0.111287 -0.000177811 0)
(0.106291 -0.00226257 0)
(0.104143 -0.00512401 0)
(0.106708 -0.00857474 0)
(0.112203 -0.00854281 0)
(0.114421 -0.00191653 0)
(0.109532 0.0040587 0)
(0.100016 0.00341379 0)
(0.0908287 0.000363651 0)
(0.0830445 -0.000609475 0)
(0.0754026 0.0013077 0)
(0.0673594 0.00333419 0)
(0.0593452 0.00424754 0)
(0.0519518 0.00405278 0)
(0.0460736 0.00273921 0)
(0.042476 0.00124605 0)
(0.0407053 0.000597832 0)
(0.0393555 0.000904776 0)
(0.0375522 0.0016134 0)
(0.0353079 0.00206761 0)
(0.0332888 0.00183487 0)
(0.0324994 0.000965248 0)
(0.0335521 -6.02738e-05 0)
(0.0361395 -0.000750158 0)
(0.0394555 -0.000983156 0)
(0.0427243 -0.000801087 0)
(0.045209 -0.000131248 0)
(0.0464147 0.000827578 0)
(0.0466125 0.00152362 0)
(0.0466349 0.00164422 0)
(0.0472287 0.00133052 0)
(0.0487048 0.000783181 0)
(0.0510413 0.000151354 0)
(0.054148 -0.000452439 0)
(0.0576651 -0.000674531 0)
(0.0607157 -0.000293692 0)
(0.0625413 0.000421142 0)
(0.0632029 0.000937022 0)
(0.0633365 0.00113685 0)
(0.0632665 0.00123109 0)
(0.0629544 0.00124471 0)
(0.0626942 0.000943673 0)
(0.0631946 0.000288115 0)
(0.0648991 -0.000449818 0)
(0.0676975 -0.0010071 0)
(0.0711395 -0.00131918 0)
(0.0747401 -0.00142114 0)
(0.078084 -0.00136355 0)
(0.0808423 -0.00126623 0)
(0.0829102 -0.00125858 0)
(0.0840842 -0.00107288 0)
(0.0842857 -0.0005952 0)
(0.0844767 -0.000573521 0)
(0.0859959 -0.00107458 0)
(0.0891928 -0.00197435 0)
(0.093383 -0.00256981 0)
(0.0967981 -0.00202328 0)
(0.0969764 0.000558802 0)
(0.0930344 0.00396269 0)
(0.0869504 0.00436786 0)
(0.0819365 0.00261458 0)
(0.0791302 0.000773639 0)
(0.0781979 -0.000534506 0)
(0.0789138 -0.00130507 0)
(0.0819769 -0.00249378 0)
(0.0884125 -0.00433892 0)
(0.0978118 -0.005921 0)
(0.108395 -0.00623326 0)
(0.117153 -0.0045105 0)
(0.12196 -0.000357628 0)
(0.123348 0.00276011 0)
(0.124315 0.00356324 0)
(0.127682 0.00158734 0)
(0.134335 -0.0015695 0)
(0.143411 -0.00395614 0)
(0.152434 -0.0042839 0)
(0.15822 -0.00166319 0)
(0.159622 0.00256805 0)
(0.159249 0.00363535 0)
(0.161553 0.0017387 0)
(0.167521 -0.000666814 0)
(0.175486 -0.00190706 0)
(0.182984 -0.00166615 0)
(0.188317 0.000131531 0)
(0.191905 0.00239714 0)
(0.195224 0.00322083 0)
(0.198959 0.00297277 0)
(0.202426 0.00267658 0)
(0.204658 0.00271682 0)
(0.205626 0.00269664 0)
(0.206429 0.00166693 0)
(0.209342 -0.000735536 0)
(0.215993 -0.0032716 0)
(0.225528 -0.00442755 0)
(0.23491 -0.00366777 0)
(0.240979 -0.00179617 0)
(0.242948 -0.000530395 0)
(0.242865 -0.000433438 0)
(0.243173 -0.000900612 0)
(0.244802 -0.00139767 0)
(0.2473 -0.00159931 0)
(0.249758 -0.00140359 0)
(0.251445 -0.00097738 0)
(0.252236 -0.000552769 0)
(0.252521 -0.000105765 0)
(0.252692 0.000469279 0)
(0.252875 0.00110774 0)
(0.253149 0.00155016 0)
(0.25383 0.0014918 0)
(0.255337 0.000888312 0)
(0.257752 9.04522e-05 0)
(0.260646 -0.000524755 0)
(0.263345 -0.000830216 0)
(0.265371 -0.000926376 0)
(0.266646 -0.000951651 0)
(0.267313 -0.000937974 0)
(0.267418 -0.000865305 0)
(0.266738 -0.000673572 0)
(0.264965 -0.000328341 0)
(0.261912 0.00011386 0)
(0.257529 0.000611413 0)
(0.251814 0.00114673 0)
(0.244852 0.00160337 0)
(0.23699 0.00181007 0)
(0.228755 0.00171151 0)
(0.220586 0.00137039 0)
(0.212652 0.00094771 0)
(0.20482 0.000705548 0)
(0.196657 0.00117132 0)
(0.188004 0.00239826 0)
(0.179345 0.00298616 0)
(0.17217 0.00176666 0)
(0.167922 -0.000991992 0)
(0.166821 -0.00405245 0)
(0.167407 -0.00687718 0)
(0.168586 -0.00950698 0)
(0.170697 -0.0105128 0)
(0.173105 -0.00696811 0)
(0.173013 0.000198098 0)
(0.168118 0.00425658 0)
(0.159347 0.00400987 0)
(0.149402 0.00267394 0)
(0.139431 0.00150881 0)
(0.130375 0.000288888 0)
(0.123301 -0.000806737 0)
(0.118098 -0.0015761 0)
(0.114463 -0.00245999 0)
(0.113683 -0.00373038 0)
(0.117032 -0.00392319 0)
(0.123097 -0.00180395 0)
(0.1293 0.00120048 0)
(0.132093 0.00468984 0)
(0.126716 0.00871334 0)
(0.110039 0.0131566 0)
(0.0747767 0.0187473 0)
(56.8223 0.0440615 0)
(10.3094 0.0527298 0)
(16.8368 0.0373393 0)
(20.7406 0.0353747 0)
(20.7135 0.0394583 0)
(20.0478 0.0420797 0)
(19.8273 0.0430768 0)
(19.8722 0.0437527 0)
(19.933 0.044631 0)
(19.9482 0.0456564 0)
(19.9419 0.0467282 0)
(19.9357 0.047841 0)
(19.9336 0.0490316 0)
(19.9327 0.0503332 0)
(19.931 0.0517708 0)
(19.9284 0.053369 0)
(19.9251 0.0551566 0)
(19.9212 0.0571659 0)
(19.9165 0.0594334 0)
(19.9111 0.0619989 0)
(19.9047 0.0649071 0)
(19.8973 0.0682074 0)
(19.8887 0.0719556 0)
(19.8788 0.0762144 0)
(19.8674 0.0810549 0)
(19.8544 0.0865578 0)
(19.8394 0.0928147 0)
(19.8223 0.0999302 0)
(19.8028 0.108024 0)
(19.7805 0.117232 0)
(19.7552 0.127711 0)
(19.7262 0.13964 0)
(19.6933 0.153224 0)
(19.6558 0.168701 0)
(19.613 0.186343 0)
(19.5644 0.206467 0)
(19.509 0.229438 0)
(19.4459 0.255681 0)
(19.374 0.285693 0)
(19.2921 0.32005 0)
(19.1986 0.359433 0)
(19.0921 0.404636 0)
(18.9705 0.456603 0)
(18.8315 0.516446 0)
(18.6727 0.585494 0)
(18.491 0.665331 0)
(18.2827 0.757869 0)
(18.0439 0.865415 0)
(17.7695 0.990786 0)
(17.4537 1.13744 0)
(17.0898 1.30968 0)
(16.6695 1.51289 0)
(16.1829 1.75392 0)
(15.6184 2.04166 0)
(14.9615 2.38778 0)
(14.1954 2.80809 0)
(13.2996 3.32452 0)
(12.2501 3.9686 0)
(11.0312 4.78755 0)
(9.51656 5.85481 0)
(8.35246 7.40351 0)
(6.10391 7.22312 0)
(2.24015 1.15054 0)
(1.18451 0.444824 0)
(0.970682 0.338871 0)
(0.861948 0.217489 0)
(0.77125 0.146492 0)
(0.695987 0.12772 0)
(0.626336 0.0958677 0)
(0.574588 0.0507203 0)
(0.542722 0.0168061 0)
(0.522725 -0.000448762 0)
(0.508192 -0.00588817 0)
(0.496867 -0.00334147 0)
(0.486882 0.00353148 0)
(0.477051 0.0104729 0)
(0.467399 0.0148983 0)
(0.458291 0.0168684 0)
(0.449752 0.0156268 0)
(0.443848 0.00939548 0)
(0.443363 0.00174033 0)
(0.448725 -0.00627574 0)
(0.458499 -0.0120421 0)
(0.470103 -0.0120746 0)
(0.480009 -0.0053843 0)
(0.485137 0.00574144 0)
(0.483409 0.0175049 0)
(0.473421 0.027041 0)
(0.456063 0.0327639 0)
(0.433342 0.0351178 0)
(0.410591 0.0350246 0)
(0.389498 0.0310914 0)
(0.37245 0.0251846 0)
(0.359105 0.0221246 0)
(0.346328 0.0232861 0)
(0.33195 0.0236387 0)
(0.316946 0.018207 0)
(0.304734 0.00663032 0)
(0.302392 -0.00685777 0)
(0.308411 -0.00919772 0)
(0.305273 0.00704665 0)
(0.282442 0.026855 0)
(0.249339 0.0357644 0)
(0.22618 0.0347093 0)
(0.210401 0.033718 0)
(0.191236 0.0329886 0)
(0.16489 0.0307105 0)
(0.137668 0.0280852 0)
(0.114874 0.0244114 0)
(0.0995311 0.0176251 0)
(0.0920109 0.00942065 0)
(0.089554 0.00541543 0)
(0.088142 0.00585592 0)
(0.0855743 0.00688606 0)
(0.082021 0.00671774 0)
(0.079244 0.00406121 0)
(0.0792155 -0.0015207 0)
(0.0826793 -0.00795436 0)
(0.0885541 -0.0118573 0)
(0.0953812 -0.012746 0)
(0.102299 -0.0114722 0)
(0.108349 -0.00774184 0)
(0.112564 -0.00347748 0)
(0.115427 -0.00165103 0)
(0.118365 -0.00296519 0)
(0.122598 -0.00598516 0)
(0.128084 -0.00913211 0)
(0.134448 -0.0114772 0)
(0.141958 -0.0135589 0)
(0.150586 -0.0135585 0)
(0.158568 -0.0101061 0)
(0.16409 -0.00523707 0)
(0.167587 -0.00231092 0)
(0.170743 -0.00144365 0)
(0.174041 -0.000740126 0)
(0.17675 1.48796e-05 0)
(0.179245 -0.00118124 0)
(0.183072 -0.00474067 0)
(0.189073 -0.00887797 0)
(0.196596 -0.0118463 0)
(0.204441 -0.0131107 0)
(0.211681 -0.0127757 0)
(0.217552 -0.0109743 0)
(0.221884 -0.00811344 0)
(0.225376 -0.0051447 0)
(0.228051 -0.00171135 0)
(0.231617 0.00136215 0)
(0.2354 -0.0027909 0)
(0.241231 -0.00814243 0)
(0.249483 -0.0131893 0)
(0.258699 -0.0128986 0)
(0.267836 -0.00593643 0)
(0.270776 0.00742331 0)
(0.266733 0.0186064 0)
(0.259645 0.0191826 0)
(0.255529 0.0123588 0)
(0.255523 0.00639757 0)
(0.258472 0.00109646 0)
(0.263474 -0.00456982 0)
(0.269532 -0.0153209 0)
(0.278202 -0.0283177 0)
(0.290409 -0.0365415 0)
(0.306353 -0.0327749 0)
(0.32175 -0.0216629 0)
(0.333516 -0.0111692 0)
(0.33781 -0.00719816 0)
(0.340801 -0.012152 0)
(0.347721 -0.0235841 0)
(0.358978 -0.0325889 0)
(0.376613 -0.0342442 0)
(0.395872 -0.0262681 0)
(0.411372 -0.0127157 0)
(0.42131 -0.00171983 0)
(0.426982 -0.00636219 0)
(0.438439 -0.0203265 0)
(0.454662 -0.0302845 0)
(0.473623 -0.031188 0)
(0.492048 -0.025533 0)
(0.506847 -0.0174658 0)
(0.521529 -0.0152315 0)
(0.535324 -0.01916 0)
(0.547305 -0.0201432 0)
(0.558666 -0.0157646 0)
(0.567867 -0.0101043 0)
(0.575495 -0.00615669 0)
(0.582964 -0.00700813 0)
(0.594002 -0.0169723 0)
(0.61114 -0.0299677 0)
(0.633137 -0.0362873 0)
(0.653282 -0.0304815 0)
(0.665944 -0.0145067 0)
(0.670655 -0.0013902 0)
(0.672014 0.00103293 0)
(0.674662 -0.00270429 0)
(0.679896 -0.00691767 0)
(0.686812 -0.00857608 0)
(0.693718 -0.00693177 0)
(0.69927 -0.00345818 0)
(0.703435 -0.000925099 0)
(0.706918 -0.000446081 0)
(0.709921 -0.00110262 0)
(0.712033 -0.00201258 0)
(0.713024 -0.00344104 0)
(0.713755 -0.00601084 0)
(0.715861 -0.00931903 0)
(0.720115 -0.0116978 0)
(0.725503 -0.0117131 0)
(0.730205 -0.009338 0)
(0.733034 -0.00580663 0)
(0.733993 -0.00275123 0)
(0.733812 -0.000497542 0)
(0.732994 0.00190227 0)
(0.730645 0.00544581 0)
(0.725915 0.010151 0)
(0.718382 0.0151424 0)
(0.708091 0.0200461 0)
(0.695038 0.0249347 0)
(0.679316 0.0292075 0)
(0.661553 0.0317413 0)
(0.642824 0.0323968 0)
(0.623955 0.0319695 0)
(0.605418 0.0316661 0)
(0.587475 0.0323867 0)
(0.568048 0.0336695 0)
(0.546859 0.0340887 0)
(0.524232 0.029881 0)
(0.503975 0.0215232 0)
(0.488096 0.0108006 0)
(0.477368 0.00389357 0)
(0.46959 0.00387421 0)
(0.464377 0.00563602 0)
(0.462522 0.00237958 0)
(0.460357 0.001132 0)
(0.449467 0.00837602 0)
(0.428123 0.0224104 0)
(0.402067 0.0320019 0)
(0.379454 0.0374226 0)
(0.358496 0.0397319 0)
(0.339181 0.0345558 0)
(0.323263 0.0260096 0)
(0.30964 0.0200939 0)
(0.297088 0.0138821 0)
(0.288769 -0.000194198 0)
(0.286379 -0.0163964 0)
(0.2893 -0.0234948 0)
(0.291514 -0.0234301 0)
(0.289479 -0.00217547 0)
(0.276545 0.0358855 0)
(0.247489 0.0711283 0)
(0.194854 0.0924446 0)
(56.8047 0.00377404 0)
(10.2646 0.00569615 0)
(16.8179 0.0103182 0)
(20.722 0.0133497 0)
(20.6932 0.0159437 0)
(20.0267 0.0183253 0)
(19.8062 0.0204607 0)
(19.8518 0.0224528 0)
(19.9134 0.024429 0)
(19.9293 0.0264418 0)
(19.9237 0.0285109 0)
(19.9183 0.0306661 0)
(19.9171 0.0329483 0)
(19.9171 0.0354001 0)
(19.9165 0.0380625 0)
(19.9151 0.0409779 0)
(19.913 0.0441917 0)
(19.9105 0.0477543 0)
(19.9074 0.0517215 0)
(19.9036 0.056155 0)
(19.8991 0.0611242 0)
(19.8937 0.066707 0)
(19.8874 0.072991 0)
(19.88 0.0800754 0)
(19.8713 0.0880728 0)
(19.8614 0.0971104 0)
(19.8498 0.107333 0)
(19.8366 0.118907 0)
(19.8213 0.13202 0)
(19.8038 0.146887 0)
(19.7838 0.163754 0)
(19.7609 0.182903 0)
(19.7348 0.204658 0)
(19.705 0.22939 0)
(19.6711 0.257528 0)
(19.6324 0.289563 0)
(19.5883 0.326068 0)
(19.5382 0.367703 0)
(19.4812 0.415236 0)
(19.4163 0.46956 0)
(19.3425 0.531721 0)
(19.2586 0.602941 0)
(19.1632 0.684659 0)
(19.0547 0.778572 0)
(18.9312 0.88669 0)
(18.7908 1.0114 0)
(18.6309 1.15557 0)
(18.4489 1.32262 0)
(18.2418 1.5167 0)
(18.0058 1.74283 0)
(17.737 2.00715 0)
(17.4308 2.31722 0)
(17.0821 2.68236 0)
(16.6855 3.11422 0)
(16.235 3.62742 0)
(15.7251 4.24045 0)
(15.1512 4.97689 0)
(14.5112 5.86702 0)
(13.8138 6.95008 0)
(13.0408 8.27441 0)
(12.3143 9.95599 0)
(11.1757 11.4338 0)
(11.0793 10.8333 0)
(4.09696 3.58184 0)
(2.1467 0.999522 0)
(1.66514 0.407597 0)
(1.31835 0.321398 0)
(1.14058 0.316123 0)
(1.03062 0.243828 0)
(0.944768 0.164345 0)
(0.884315 0.112393 0)
(0.843669 0.0774401 0)
(0.808973 0.0530675 0)
(0.771414 0.0413918 0)
(0.729157 0.0377747 0)
(0.686544 0.0362337 0)
(0.654017 0.0345949 0)
(0.636504 0.0329823 0)
(0.631674 0.0306212 0)
(0.640591 0.0138938 0)
(0.65366 -0.0128215 0)
(0.667636 -0.0362763 0)
(0.684916 -0.0510504 0)
(0.706537 -0.0510809 0)
(0.728175 -0.036841 0)
(0.743955 -0.0121248 0)
(0.750011 0.0192732 0)
(0.745487 0.0550533 0)
(0.731385 0.0857023 0)
(0.708181 0.102383 0)
(0.680293 0.101834 0)
(0.656747 0.0843461 0)
(0.639704 0.0656478 0)
(0.628428 0.0554928 0)
(0.618732 0.0549823 0)
(0.601176 0.0535749 0)
(0.577604 0.0473642 0)
(0.554457 0.0294384 0)
(0.545488 -0.00996012 0)
(0.557294 -0.0396347 0)
(0.585275 0.0596631 0)
(0.550855 0.15077 0)
(0.495004 0.111274 0)
(0.455409 0.0645408 0)
(0.428301 0.050386 0)
(0.375833 0.0837505 0)
(0.280422 0.10044 0)
(0.204313 0.0899129 0)
(0.148043 0.0727784 0)
(0.125769 0.0434434 0)
(0.121195 0.0182898 0)
(0.119826 0.00630008 0)
(0.117095 0.00669982 0)
(0.110763 0.0120815 0)
(0.103679 0.0145366 0)
(0.103168 0.00771012 0)
(0.107893 -0.00650445 0)
(0.113796 -0.0182788 0)
(0.120097 -0.0247258 0)
(0.126166 -0.0265693 0)
(0.132317 -0.0260164 0)
(0.139097 -0.0214571 0)
(0.14561 -0.0132446 0)
(0.151985 -0.00912977 0)
(0.161948 -0.0119947 0)
(0.174905 -0.0168889 0)
(0.186228 -0.0212062 0)
(0.194545 -0.0257936 0)
(0.201954 -0.0321616 0)
(0.211838 -0.0341333 0)
(0.222706 -0.0272348 0)
(0.229762 -0.0167857 0)
(0.234131 -0.0118141 0)
(0.240798 -0.0126706 0)
(0.249772 -0.0119553 0)
(0.257445 -0.00904474 0)
(0.26391 -0.0114859 0)
(0.272061 -0.0200098 0)
(0.282842 -0.0284845 0)
(0.29452 -0.0321259 0)
(0.305221 -0.0312511 0)
(0.314012 -0.0273686 0)
(0.319727 -0.0210496 0)
(0.322116 -0.0156683 0)
(0.322952 -0.0157755 0)
(0.32522 -0.0172651 0)
(0.334806 -0.0171981 0)
(0.347379 -0.0198964 0)
(0.361239 -0.0286644 0)
(0.374156 -0.0366745 0)
(0.385342 -0.037714 0)
(0.392408 -0.0334731 0)
(0.39128 -0.00778131 0)
(0.398336 0.0361077 0)
(0.411657 0.0249229 0)
(0.420048 0.00561984 0)
(0.424015 -0.00863048 0)
(0.428563 -0.0200784 0)
(0.437989 -0.0257384 0)
(0.449176 -0.029865 0)
(0.458753 -0.0414294 0)
(0.466628 -0.0581701 0)
(0.474131 -0.0691589 0)
(0.471606 -0.0623399 0)
(0.471464 -0.0176102 0)
(0.482647 -0.00948736 0)
(0.509121 -0.00878492 0)
(0.529738 -0.0282342 0)
(0.543816 -0.0542404 0)
(0.558181 -0.0742842 0)
(0.56539 -0.0809496 0)
(0.567355 -0.0677982 0)
(0.59062 -0.0151701 0)
(0.632926 -0.0270225 0)
(0.657 -0.0536493 0)
(0.675462 -0.0694373 0)
(0.695699 -0.0723012 0)
(0.717972 -0.0725501 0)
(0.741546 -0.0674469 0)
(0.777444 -0.0486753 0)
(0.808584 -0.0418508 0)
(0.838087 -0.0409294 0)
(0.865283 -0.037232 0)
(0.884562 -0.0298524 0)
(0.90148 -0.0250281 0)
(0.911372 -0.034489 0)
(0.92319 -0.0612426 0)
(0.942258 -0.0870196 0)
(0.973238 -0.0903007 0)
(1.00435 -0.0660228 0)
(1.02296 -0.03233 0)
(1.02837 -0.0119294 0)
(1.02625 -0.00949789 0)
(1.02956 -0.0180889 0)
(1.04095 -0.0273188 0)
(1.05567 -0.0311124 0)
(1.06967 -0.028194 0)
(1.08086 -0.0218063 0)
(1.08803 -0.0177708 0)
(1.09329 -0.0152797 0)
(1.09892 -0.0115757 0)
(1.10456 -0.00583402 0)
(1.10912 -0.000489805 0)
(1.11376 -0.00118982 0)
(1.12047 -0.00901809 0)
(1.12995 -0.0169829 0)
(1.14037 -0.0188914 0)
(1.14758 -0.0143201 0)
(1.14815 -0.00731552 0)
(1.14365 -0.00217847 0)
(1.13902 0.00156131 0)
(1.1377 0.00627532 0)
(1.13796 0.0139703 0)
(1.13562 0.0245537 0)
(1.12898 0.0356764 0)
(1.11917 0.0463916 0)
(1.10546 0.0573112 0)
(1.08784 0.0671099 0)
(1.0671 0.072687 0)
(1.04656 0.0749432 0)
(1.02713 0.0752395 0)
(1.00902 0.0747469 0)
(0.989145 0.0720543 0)
(0.967487 0.0741513 0)
(0.936469 0.085876 0)
(0.904252 0.0935447 0)
(0.874749 0.0796021 0)
(0.856565 0.0533141 0)
(0.843943 0.0334838 0)
(0.83405 0.0229696 0)
(0.818561 0.00648577 0)
(0.797304 -0.0160218 0)
(0.769625 -0.00085158 0)
(0.740138 0.0914005 0)
(0.721273 0.11874 0)
(0.697123 0.0992682 0)
(0.661212 0.0865983 0)
(0.615983 0.0782106 0)
(0.573241 0.0653247 0)
(0.545965 0.0525392 0)
(0.528589 0.047101 0)
(0.504882 0.0391054 0)
(0.476698 0.0148586 0)
(0.452534 -0.0095012 0)
(0.451046 -0.00465118 0)
(0.470066 0.013806 0)
(0.474511 0.04225 0)
(0.461605 0.0915984 0)
(0.41518 0.157821 0)
(0.340439 0.196664 0)
(56.8212 0.0135177 0)
(10.2826 0.0207949 0)
(16.8199 0.023395 0)
(20.7237 0.0257218 0)
(20.6956 0.0283062 0)
(20.0288 0.0309057 0)
(19.8077 0.0333683 0)
(19.8528 0.0357054 0)
(19.9142 0.0380086 0)
(19.93 0.0403549 0)
(19.9245 0.0427928 0)
(19.9192 0.0453618 0)
(19.9182 0.0481049 0)
(19.9185 0.05107 0)
(19.9183 0.0543078 0)
(19.9175 0.0578722 0)
(19.9161 0.0618218 0)
(19.9143 0.0662207 0)
(19.9121 0.0711403 0)
(19.9095 0.0766597 0)
(19.9062 0.0828677 0)
(19.9023 0.0898635 0)
(19.8976 0.0977591 0)
(19.8922 0.106681 0)
(19.8858 0.116771 0)
(19.8783 0.128191 0)
(19.8697 0.141125 0)
(19.8597 0.155781 0)
(19.8482 0.172397 0)
(19.8351 0.191243 0)
(19.82 0.212626 0)
(19.8027 0.236899 0)
(19.783 0.264464 0)
(19.7606 0.295783 0)
(19.735 0.331383 0)
(19.706 0.371873 0)
(19.673 0.417951 0)
(19.6357 0.470423 0)
(19.5933 0.530218 0)
(19.5454 0.598416 0)
(19.4913 0.676265 0)
(19.4301 0.76522 0)
(19.3611 0.866977 0)
(19.2834 0.983521 0)
(19.1959 1.11718 0)
(19.0977 1.27069 0)
(18.9876 1.44728 0)
(18.8645 1.65079 0)
(18.7271 1.88576 0)
(18.5742 2.1576 0)
(18.405 2.47278 0)
(18.2185 2.83905 0)
(18.0145 3.26568 0)
(17.7933 3.76377 0)
(17.5564 4.3466 0)
(17.3071 5.02996 0)
(17.0515 5.83246 0)
(16.7992 6.77574 0)
(16.567 7.88459 0)
(16.3725 9.18452 0)
(16.2779 10.7217 0)
(16.1533 12.3882 0)
(16.2911 13.7324 0)
(15.2544 13.459 0)
(12.2058 7.95808 0)
(8.42701 2.46592 0)
(3.7355 1.20539 0)
(2.02092 0.776886 0)
(1.75371 0.478653 0)
(1.63459 0.286653 0)
(1.47243 0.183314 0)
(1.25815 0.141603 0)
(1.08735 0.129721 0)
(0.955203 0.142282 0)
(0.839811 0.167104 0)
(0.727469 0.163148 0)
(0.646292 0.117256 0)
(0.600795 0.0744977 0)
(0.598355 0.0523538 0)
(0.760639 -0.0214649 0)
(0.798108 -0.0403571 0)
(0.818277 -0.0579461 0)
(0.844745 -0.0829095 0)
(0.875197 -0.0932896 0)
(0.910104 -0.0750799 0)
(0.954766 -0.0312771 0)
(1.00945 0.0242272 0)
(1.06245 0.0643285 0)
(1.06864 0.0843689 0)
(1.03922 0.111245 0)
(1.01206 0.129181 0)
(0.996887 0.116026 0)
(0.988751 0.0742377 0)
(0.986811 0.045745 0)
(0.990454 0.0666758 0)
(0.989927 0.126232 0)
(0.972471 0.130319 0)
(0.960813 0.0874114 0)
(0.958031 0.00767571 0)
(0.979794 -0.0825467 0)
(1.04074 -0.126845 0)
(1.24178 0.354305 0)
(1.02827 0.245742 0)
(0.884251 0.143463 0)
(0.797027 0.128739 0)
(0.675275 0.230662 0)
(0.450386 0.301421 0)
(0.342479 0.221326 0)
(0.236473 0.159211 0)
(0.195039 0.0595452 0)
(0.180425 0.0230172 0)
(0.178684 0.00883675 0)
(0.175968 0.0099526 0)
(0.140775 0.0106919 0)
(0.0964473 0.000617121 0)
(0.10346 -0.012074 0)
(0.127684 -0.028489 0)
(0.132989 -0.0306164 0)
(0.131244 -0.0345067 0)
(0.130803 -0.0339099 0)
(0.131983 -0.0371761 0)
(0.133173 -0.0379274 0)
(0.140243 -0.0341688 0)
(0.152079 -0.0361574 0)
(0.168955 -0.0390284 0)
(0.186943 -0.039339 0)
(0.201906 -0.0358896 0)
(0.225515 -0.0228391 0)
(0.242914 -0.0434531 0)
(0.246732 -0.057211 0)
(0.24742 -0.0505927 0)
(0.248049 -0.0231786 0)
(0.260254 -0.0198524 0)
(0.273166 -0.0341887 0)
(0.283984 -0.0349698 0)
(0.295866 -0.0249201 0)
(0.310534 -0.0278559 0)
(0.324978 -0.0419367 0)
(0.336567 -0.0530714 0)
(0.347359 -0.0564502 0)
(0.356927 -0.0517959 0)
(0.364174 -0.043623 0)
(0.370684 -0.0325515 0)
(0.374665 -0.0134917 0)
(0.370703 -0.00976542 0)
(0.381393 -0.0253103 0)
(0.392923 -0.0397197 0)
(0.403224 -0.0477632 0)
(0.41352 -0.0582897 0)
(0.425362 -0.0613253 0)
(0.433335 -0.0537246 0)
(0.426018 -0.0311172 0)
(0.307354 0.00670078 0)
(0.501233 0.000689761 0)
(0.551038 -0.0159509 0)
(0.564231 -0.0140986 0)
(0.572588 -0.0106584 0)
(0.588822 -0.0206282 0)
(0.606318 -0.0413115 0)
(0.620235 -0.0558405 0)
(0.6276 -0.0616639 0)
(0.629516 -0.0674598 0)
(0.625532 -0.0666609 0)
(0.618378 -0.0558012 0)
(0.627787 -0.0376053 0)
(0.661957 -0.0638194 0)
(0.679491 -0.0950074 0)
(0.702301 -0.0973738 0)
(0.68953 -0.038888 0)
(0.660226 -0.0519944 0)
(0.613934 -0.0638743 0)
(0.615765 -0.0832197 0)
(0.737042 -0.115085 0)
(0.760786 -0.110508 0)
(0.774432 -0.114942 0)
(0.782109 -0.114683 0)
(0.770352 -0.105283 0)
(0.833281 -0.0840355 0)
(0.980802 -0.104258 0)
(1.01932 -0.13048 0)
(1.04628 -0.146368 0)
(1.12526 -0.141549 0)
(1.22565 -0.118522 0)
(1.23127 -0.117723 0)
(1.27196 -0.0999301 0)
(1.27488 -0.0167464 0)
(1.29465 -0.0609575 0)
(1.3138 -0.116558 0)
(1.33584 -0.155824 0)
(1.35696 -0.167294 0)
(1.35598 -0.0727353 0)
(1.31178 0.0171048 0)
(1.30947 -0.00677329 0)
(1.31391 -0.0370616 0)
(1.3252 -0.0577748 0)
(1.33952 -0.0657378 0)
(1.35325 -0.0572999 0)
(1.3692 -0.0342317 0)
(1.39611 -0.0172104 0)
(1.4293 -0.018667 0)
(1.45444 -0.0231505 0)
(1.47325 -0.0217862 0)
(1.48156 -0.0242364 0)
(1.48546 -0.0318087 0)
(1.49119 -0.0478816 0)
(1.50233 -0.0597201 0)
(1.51753 -0.0552533 0)
(1.52743 -0.0320097 0)
(1.52478 0.0030908 0)
(1.51094 0.0199511 0)
(1.49733 0.0121969 0)
(1.49209 0.000548542 0)
(1.49514 0.00374776 0)
(1.49814 0.0255606 0)
(1.49686 0.0481555 0)
(1.49327 0.0661189 0)
(1.48725 0.0886693 0)
(1.47503 0.113422 0)
(1.45946 0.121889 0)
(1.44693 0.117034 0)
(1.43914 0.108082 0)
(1.43407 0.102121 0)
(1.42451 0.112708 0)
(1.41099 0.142639 0)
(1.39217 0.164369 0)
(1.37321 0.154778 0)
(1.35617 0.121094 0)
(1.34491 0.0730292 0)
(1.33841 0.0350599 0)
(1.33646 0.0420072 0)
(1.34429 0.120581 0)
(1.35643 0.144375 0)
(1.37297 0.101599 0)
(1.38757 0.0656344 0)
(1.34869 0.151829 0)
(1.29376 0.149953 0)
(1.23221 0.152536 0)
(1.14465 0.230016 0)
(1.06363 0.194063 0)
(1.01113 0.100656 0)
(0.984874 0.0785613 0)
(0.944053 0.136206 0)
(0.913783 0.107277 0)
(0.887508 0.0280667 0)
(0.862148 -0.0608014 0)
(0.841463 -0.115208 0)
(0.781611 -0.0192267 0)
(0.699862 0.169377 0)
(0.629317 0.24909 0)
(0.524525 0.310944 0)
(56.819 0.0063423 0)
(10.2734 0.00966498 0)
(16.8157 0.0111317 0)
(20.7199 0.0132115 0)
(20.6917 0.0157227 0)
(20.0249 0.0182127 0)
(19.8038 0.0206141 0)
(19.8491 0.0230012 0)
(19.9108 0.0254535 0)
(19.927 0.0280205 0)
(19.9218 0.0307392 0)
(19.9171 0.0336484 0)
(19.9166 0.0367939 0)
(19.9176 0.0402265 0)
(19.9182 0.0440012 0)
(19.9182 0.0481779 0)
(19.9179 0.0528219 0)
(19.9173 0.0580058 0)
(19.9164 0.0638102 0)
(19.9152 0.0703252 0)
(19.9137 0.0776517 0)
(19.9117 0.0859034 0)
(19.9092 0.0952082 0)
(19.9062 0.105711 0)
(19.9026 0.117575 0)
(19.8983 0.130985 0)
(19.8933 0.146151 0)
(19.8874 0.163312 0)
(19.8806 0.182738 0)
(19.8727 0.204735 0)
(19.8636 0.229655 0)
(19.8532 0.257893 0)
(19.8412 0.289903 0)
(19.8276 0.326201 0)
(19.8121 0.367375 0)
(19.7945 0.414098 0)
(19.7747 0.467138 0)
(19.7522 0.527373 0)
(19.727 0.595811 0)
(19.6986 0.673606 0)
(19.6668 0.762084 0)
(19.6314 0.862769 0)
(19.592 0.977417 0)
(19.5484 1.10805 0)
(19.5003 1.25701 0)
(19.4476 1.42699 0)
(19.3902 1.62111 0)
(19.3283 1.84301 0)
(19.2621 2.09686 0)
(19.1925 2.38753 0)
(19.1205 2.72063 0)
(19.0481 3.10265 0)
(18.9779 3.54105 0)
(18.914 4.04433 0)
(18.862 4.62211 0)
(18.8298 5.28506 0)
(18.828 6.04478 0)
(18.8711 6.91338 0)
(18.9784 7.90296 0)
(19.1734 9.02386 0)
(19.4984 10.2879 0)
(19.9532 11.6634 0)
(20.6007 13.0354 0)
(21.1457 13.9873 0)
(21.0484 13.7097 0)
(19.8734 13.0388 0)
(17.5678 12.1082 0)
(13.9876 7.22032 0)
(8.2841 1.77395 0)
(5.20521 0.733179 0)
(3.41862 0.540696 0)
(1.8258 0.375628 0)
(0.924246 0.238927 0)
(0.390605 0.198864 0)
(-0.0436145 0.222525 0)
(-0.303403 0.203249 0)
(-0.285727 0.0662054 0)
(-0.531203 0.000681388 0)
(-0.114934 -0.446351 0)
(-0.180385 -0.672525 0)
(0.552488 -0.128425 0)
(0.742823 -0.0998035 0)
(0.854578 -0.133288 0)
(0.882437 -0.132769 0)
(0.872132 -0.13134 0)
(0.878857 -0.127573 0)
(0.976885 -0.126704 0)
(1.43879 -0.0136487 0)
(1.61355 0.266182 0)
(1.59697 0.228146 0)
(1.56232 0.171796 0)
(1.52347 0.133107 0)
(1.50412 0.0933258 0)
(1.52041 0.0642362 0)
(1.55532 0.0580173 0)
(1.56628 0.0631607 0)
(1.54836 0.0660123 0)
(1.51155 0.07073 0)
(1.53727 -0.0297721 0)
(1.58515 -0.172063 0)
(1.63798 -0.320066 0)
(1.68515 -0.414305 0)
(2.40625 0.977196 0)
(2.38718 0.463809 0)
(2.76573 0.473814 0)
(2.99408 0.99697 0)
(2.85283 1.02428 0)
(2.97226 0.736248 0)
(3.1675 0.423349 0)
(3.40505 0.161376 0)
(3.65248 -0.000531014 0)
(3.76588 -0.0376691 0)
(3.65166 0.197873 0)
(3.47619 0.307516 0)
(3.38278 0.154804 0)
(3.32599 -0.00901343 0)
(3.27025 -0.0383218 0)
(3.18644 -0.0076447 0)
(2.98589 0.00426548 0)
(2.74261 -0.000739438 0)
(2.49775 -0.00946752 0)
(2.26185 -0.00836931 0)
(2.03026 0.000596513 0)
(1.77757 -0.0174968 0)
(1.51498 -0.0590046 0)
(1.28285 -0.0936757 0)
(1.01599 -0.103337 0)
(1.14606 -0.0719871 0)
(0.456655 -0.0385423 0)
(0.37428 -0.0503939 0)
(0.285712 -0.0469963 0)
(0.333288 -0.0097055 0)
(0.320793 -0.0331735 0)
(0.309649 -0.0361841 0)
(0.298356 -0.0326195 0)
(0.315671 -0.014419 0)
(0.33983 -0.0208074 0)
(0.344767 -0.049944 0)
(0.329446 -0.0720359 0)
(0.324846 -0.068688 0)
(0.329419 -0.0556397 0)
(0.331806 -0.0429892 0)
(0.331915 -0.0346364 0)
(0.396674 0.0333947 0)
(0.435422 0.00335535 0)
(0.438003 -0.0303832 0)
(0.434111 -0.0375479 0)
(0.428756 -0.0228878 0)
(0.361865 -0.0823684 0)
(0.346318 -0.083833 0)
(0.338762 -0.0307428 0)
(0.334513 0.0630233 0)
(0.347712 0.175667 0)
(0.0236435 -0.865654 0)
(0.473125 -0.0157772 0)
(0.479366 -0.0195726 0)
(0.452561 0.000627163 0)
(0.600005 -0.119466 0)
(0.630001 -0.0933342 0)
(0.653779 -0.0678575 0)
(0.675389 -0.0531989 0)
(0.669597 -0.0503821 0)
(0.609814 -0.0507651 0)
(0.74541 -0.0992452 0)
(0.835925 -0.075353 0)
(0.857768 -0.0812669 0)
(0.884224 -0.0978924 0)
(0.912422 -0.116371 0)
(0.915114 -0.115119 0)
(0.908849 -0.0326645 0)
(0.425925 0.210978 0)
(0.298881 -0.294472 0)
(0.233174 -0.28237 0)
(0.612341 -0.112322 0)
(0.662467 -0.0963547 0)
(0.660076 -0.0718125 0)
(0.499903 -0.0113118 0)
(0.67741 -0.690794 0)
(0.905608 -0.240333 0)
(1.03653 -0.149558 0)
(1.10233 -0.135348 0)
(1.29187 -0.644557 0)
(1.70418 0.063965 0)
(1.7326 -0.0317417 0)
(1.72347 -0.0810793 0)
(1.71651 -0.104669 0)
(1.70977 -0.140991 0)
(1.71237 -0.200056 0)
(1.71871 -0.24412 0)
(1.72591 -0.173155 0)
(1.98054 0.297346 0)
(1.53503 0.0376829 0)
(1.52857 -0.0152863 0)
(1.52823 -0.0489278 0)
(1.52958 -0.0758946 0)
(1.52922 -0.0939803 0)
(1.51785 -0.100544 0)
(1.44777 -0.067584 0)
(1.46607 -0.0745268 0)
(1.77145 -0.104308 0)
(1.85483 -0.131695 0)
(1.91905 -0.1108 0)
(1.93289 -0.0304978 0)
(1.92776 0.000286905 0)
(1.93184 -0.0359996 0)
(1.9393 -0.0649184 0)
(1.95066 -0.0599852 0)
(1.96679 -0.0207008 0)
(1.96056 0.0254601 0)
(1.90361 0.0487357 0)
(1.84072 0.0416447 0)
(1.81646 0.0114691 0)
(1.8381 0.00791443 0)
(1.8593 0.029554 0)
(1.85672 0.0475669 0)
(1.84712 0.0616051 0)
(1.83809 0.0851591 0)
(1.81915 0.110388 0)
(1.7964 0.116768 0)
(1.79232 0.108339 0)
(1.80709 0.100538 0)
(1.82642 0.0995398 0)
(1.84457 0.11367 0)
(1.85764 0.146354 0)
(1.86884 0.171802 0)
(1.87795 0.166511 0)
(1.8933 0.133254 0)
(1.9162 0.0898081 0)
(1.9491 0.0463697 0)
(1.98981 -0.00498075 0)
(2.03053 -0.0654755 0)
(2.07855 -0.110108 0)
(2.17159 -0.0338596 0)
(2.26555 0.0696003 0)
(2.33577 0.108806 0)
(2.36704 0.313078 0)
(2.33691 0.564177 0)
(2.31196 0.464479 0)
(2.26448 0.312575 0)
(2.23091 0.204929 0)
(2.18948 0.18979 0)
(2.09357 0.285337 0)
(2.01947 0.171623 0)
(1.98171 0.067197 0)
(1.86009 0.111069 0)
(1.70317 0.24361 0)
(1.70629 0.308055 0)
(1.41965 0.459461 0)
(1.23499 0.592296 0)
(1.10579 0.59726 0)
(56.8277 0.00882698 0)
(10.2871 0.0136237 0)
(16.8209 0.0149068 0)
(20.7262 0.0171547 0)
(20.6989 0.0200283 0)
(20.032 0.0228408 0)
(19.8107 0.025526 0)
(19.8559 0.0281969 0)
(19.9176 0.0309432 0)
(19.934 0.0338096 0)
(19.9291 0.0368301 0)
(19.9247 0.0400459 0)
(19.9246 0.0435064 0)
(19.9262 0.0472657 0)
(19.9275 0.0513825 0)
(19.9283 0.0559208 0)
(19.9289 0.060951 0)
(19.9294 0.0665513 0)
(19.9298 0.0728085 0)
(19.9302 0.0798195 0)
(19.9303 0.0876926 0)
(19.9303 0.0965496 0)
(19.9301 0.106527 0)
(19.9297 0.117779 0)
(19.9291 0.13048 0)
(19.9282 0.144824 0)
(19.927 0.161035 0)
(19.9255 0.179363 0)
(19.9237 0.200091 0)