/*--------------------------------*- C++ -*----------------------------------*\
| =========                 |                                                 |
| \\      /  F ield         | OpenFOAM: The Open Source CFD Toolbox           |
|  \\    /   O peration     | Version:  2406                                  |
|   \\  /    A nd           | Website:  www.openfoam.com                      |
|    \\/     M anipulation  |                                                 |
\*---------------------------------------------------------------------------*/
FoamFile
{
    version     2.0;
    format      ascii;
    arch        "LSB;label=32;scalar=64";
    class       surfaceScalarField;
    location    "0.5";
    object      phi;
}
// * * * * * * * * * * * * * * * * * * * * * * * * * * * * * * * * * * * * * //

dimensions      [0 3 -1 0 0 0 0];

oriented        oriented;

internalField   nonuniform List<scalar> 
4335
(
4.2679e-05
5.84339e-11
4.26789e-05
6.38549e-11
4.2679e-05
6.49623e-12
4.26789e-05
-6.87501e-11
4.26789e-05
-2.99386e-11
4.2679e-05
-1.5483e-11
4.2679e-05
-5.10556e-11
4.2679e-05
-1.95481e-11
4.26791e-05
-1.23338e-11
4.2679e-05
-8.19319e-12
4.26791e-05
5.75061e-12
4.26791e-05
8.29543e-13
4.26791e-05
1.78209e-12
4.26791e-05
9.7645e-12
4.26791e-05
1.64184e-11
4.26791e-05
1.9719e-11
4.26791e-05
1.60968e-11
4.26791e-05
7.04292e-12
4.2679e-05
1.77793e-12
4.2679e-05
2.98321e-12
4.2679e-05
5.10613e-12
4.2679e-05
8.08135e-12
4.2679e-05
1.41399e-11
4.2679e-05
1.76477e-11
4.2679e-05
1.41541e-11
4.2679e-05
9.16678e-12
4.2679e-05
9.29205e-12
4.2679e-05
1.32139e-11
4.2679e-05
1.59296e-11
4.2679e-05
1.49998e-11
4.2679e-05
1.07289e-11
4.2679e-05
5.27228e-12
4.2679e-05
4.84057e-13
4.2679e-05
-4.91692e-12
4.2679e-05
-1.13306e-11
4.2679e-05
-1.63505e-11
4.2679e-05
-1.53577e-11
4.2679e-05
-8.57927e-12
4.2679e-05
-2.50733e-12
4.2679e-05
-1.29115e-12
4.2679e-05
-1.04338e-12
4.2679e-05
2.75567e-12
4.26791e-05
7.51697e-12
4.26791e-05
7.62848e-12
4.26791e-05
3.61513e-12
4.26791e-05
8.39634e-13
4.26791e-05
3.04477e-12
4.26791e-05
9.06627e-12
4.26791e-05
1.42746e-11
4.26791e-05
1.45561e-11
4.26791e-05
9.63293e-12
4.26792e-05
3.95871e-12
4.26792e-05
2.86114e-12
4.26792e-05
6.18433e-12
4.26792e-05
7.742e-12
4.26792e-05
3.38101e-12
4.26792e-05
-3.91833e-12
4.26792e-05
-6.5539e-12
4.26792e-05
-2.10654e-12
4.26792e-05
3.86771e-12
4.26792e-05
3.4294e-12
4.26792e-05
-4.56062e-12
4.26792e-05
-1.2772e-11
4.26791e-05
-1.30847e-11
4.26791e-05
-4.70659e-12
4.26791e-05
4.65166e-12
4.26792e-05
7.16178e-12
4.26792e-05
1.21444e-12
4.26791e-05
-5.41722e-12
4.26791e-05
-4.14459e-12
4.26791e-05
4.2812e-12
4.26791e-05
9.96192e-12
4.26791e-05
5.75262e-12
4.26791e-05
-4.18777e-12
4.26791e-05
-8.35566e-12
4.26791e-05
-2.3963e-12
4.26791e-05
6.5799e-12
4.26791e-05
8.77545e-12
4.26791e-05
1.97605e-12
4.26791e-05
-7.22719e-12
4.26791e-05
-9.79332e-12
4.26791e-05
-2.70225e-12
4.26791e-05
7.20519e-12
4.26791e-05
1.02181e-11
4.26791e-05
3.32914e-12
4.26791e-05
-4.95642e-12
4.26791e-05
-4.08109e-12
4.26791e-05
5.27005e-12
4.26791e-05
1.1469e-11
4.26791e-05
6.10198e-12
4.26791e-05
-6.36823e-12
4.26791e-05
-1.33682e-11
4.26791e-05
-8.97026e-12
4.26791e-05
7.36609e-13
4.26791e-05
6.2506e-12
4.26791e-05
2.94066e-12
4.26792e-05
-3.81806e-12
4.26792e-05
-5.53592e-12
4.26791e-05
2.29423e-12
4.26791e-05
1.45222e-11
4.26791e-05
1.96e-11
4.26791e-05
1.32539e-11
4.26791e-05
4.0489e-12
4.26791e-05
3.82363e-12
4.26791e-05
1.33922e-11
4.26791e-05
2.13239e-11
4.26791e-05
1.91611e-11
4.26791e-05
1.04848e-11
4.26791e-05
5.22419e-12
4.26791e-05
7.63436e-12
4.26791e-05
1.40452e-11
4.26791e-05
1.79794e-11
4.26791e-05
1.41732e-11
4.2679e-05
4.78523e-12
4.2679e-05
-1.78156e-12
4.2679e-05
1.215e-12
4.2679e-05
1.02585e-11
4.2679e-05
1.49956e-11
4.2679e-05
1.04415e-11
4.2679e-05
3.6318e-12
4.2679e-05
4.13217e-12
4.2679e-05
1.20288e-11
4.26789e-05
1.83109e-11
4.26789e-05
1.69696e-11
4.26789e-05
1.10495e-11
4.26789e-05
6.32029e-12
4.26789e-05
5.5159e-12
4.26789e-05
8.84453e-12
4.26789e-05
1.25535e-11
4.26789e-05
1.08492e-11
4.26789e-05
2.32353e-12
4.26789e-05
-5.45017e-12
4.26789e-05
-6.08266e-12
4.26789e-05
-3.47041e-12
4.26789e-05
-4.30668e-12
4.26789e-05
-9.12923e-12
4.26789e-05
-1.39694e-11
4.26789e-05
-1.58848e-11
4.26789e-05
-1.33158e-11
4.26789e-05
-8.43767e-12
4.26789e-05
-5.04381e-12
4.2679e-05
-5.33076e-12
4.2679e-05
-6.78652e-12
4.2679e-05
-7.19195e-12
4.2679e-05
-8.76136e-12
4.2679e-05
-1.10994e-11
4.2679e-05
-1.47991e-11
4.2679e-05
-2.16877e-11
4.26791e-05
-2.24241e-11
-2.28962e-11
0.000116592
1.55802e-10
0.000116592
1.37457e-10
0.000116592
1.79046e-10
0.000116592
9.18326e-11
0.000116592
3.43912e-11
0.000116592
6.05671e-11
0.000116592
1.92356e-11
0.000116592
-1.59774e-11
0.000116592
-2.54581e-11
0.000116592
-2.98117e-11
0.000116592
-3.41565e-11
0.000116591
-5.1514e-11
0.000116591
-5.27256e-11
0.000116591
-2.8853e-11
0.000116591
-1.12569e-11
0.000116591
-8.46017e-12
0.000116591
-4.74678e-12
0.000116591
-8.1065e-13
0.000116591
-4.51549e-12
0.000116591
-9.47576e-12
0.000116591
-8.40944e-12
0.000116591
-5.08983e-12
0.000116591
-5.41787e-12
0.000116591
-1.17896e-11
0.000116591
-2.07294e-11
0.000116591
-2.33751e-11
0.000116591
-1.56564e-11
0.000116591
-5.13024e-12
0.000116591
-4.86737e-13
0.000116591
-9.02072e-13
0.000116591
-1.74267e-12
0.000116591
-2.75252e-12
0.000116591
-5.36616e-12
0.000116591
-9.61624e-12
0.000116591
-1.50807e-11
0.000116591
-2.285e-11
0.000116591
-2.98604e-11
0.000116591
-2.93183e-11
0.000116591
-2.04982e-11
0.000116591
-1.16654e-11
0.000116591
-1.00654e-11
0.000116591
-1.33263e-11
0.000116591
-1.46531e-11
0.000116591
-1.21948e-11
0.000116591
-7.78365e-12
0.000116591
-4.00678e-12
0.000116591
-9.42222e-13
0.000116591
3.82771e-12
0.000116591
1.181e-11
0.000116591
2.18626e-11
0.000116591
2.87159e-11
0.000116591
2.71997e-11
0.000116591
1.84754e-11
0.000116591
1.04705e-11
0.000116591
9.66387e-12
0.000116591
1.45091e-11
0.000116591
1.76981e-11
0.000116591
1.57969e-11
0.000116591
1.25659e-11
0.000116591
1.38212e-11
0.000116591
2.01573e-11
0.000116591
2.54565e-11
0.000116591
2.41984e-11
0.000116591
1.67478e-11
0.000116591
9.61863e-12
0.000116591
9.26591e-12
0.000116591
1.62538e-11
0.000116591
2.24505e-11
0.000116591
2.00924e-11
0.000116591
1.06215e-11
0.000116591
4.06952e-12
0.000116591
6.28256e-12
0.000116591
1.26088e-11
0.000116591
1.35267e-11
0.000116591
6.75295e-12
0.000116591
-5.50084e-13
0.000116591
-1.14136e-12
0.000116591
5.29008e-12
0.000116591
1.24716e-11
0.000116591
1.358e-11
0.000116591
6.69866e-12
0.000116591
-2.19975e-12
0.000116591
-4.35988e-12
0.000116591
1.75371e-12
0.000116591
7.33607e-12
0.000116591
2.88132e-12
0.000116591
-9.33102e-12
0.000116591
-1.74399e-11
0.000116591
-1.4645e-11
0.000116591
-6.34889e-12
0.000116591
-3.30533e-12
0.000116591
-8.89567e-12
0.000116591
-1.7088e-11
0.000116591
-1.98685e-11
0.000116591
-1.44004e-11
0.000116591
-5.15114e-12
0.000116591
6.1941e-13
0.000116591
-6.87545e-13
0.000116591
-4.91337e-12
0.000116591
-2.32816e-12
0.000116591
8.69839e-12
0.000116591
1.87456e-11
0.000116591
1.79136e-11
0.000116591
8.3155e-12
0.000116591
2.23268e-12
0.000116591
6.78626e-12
0.000116591
1.66577e-11
0.000116591
2.21222e-11
0.000116591
1.98792e-11
0.000116591
1.32099e-11
0.000116591
7.69542e-12
0.000116591
7.57147e-12
0.000116591
1.20149e-11
0.000116591
1.41634e-11
0.000116591
8.82682e-12
0.000116591
8.56051e-13
0.000116591
2.2522e-13
0.000116591
1.00687e-11
0.000116591
2.18467e-11
0.000116591
2.48948e-11
0.000116591
1.96874e-11
0.000116591
1.47898e-11
0.000116591
1.54514e-11
0.000116591
1.84607e-11
0.000116591
1.95427e-11
0.000116591
1.66861e-11
0.000116591
9.34322e-12
0.000116591
3.48275e-13
0.000116591
-4.10749e-12
0.000116591
-2.10178e-12
0.000116591
-2.78767e-13
0.000116591
-4.31676e-12
0.000116591
-1.13336e-11
0.000116591
-1.56725e-11
0.000116591
-1.67486e-11
0.000116591
-1.72657e-11
0.000116591
-1.94283e-11
0.000116591
-2.33142e-11
0.000116591
-2.72022e-11
0.000116591
-2.94064e-11
0.000116591
-3.03719e-11
0.000116591
-3.21852e-11
0.000116591
-3.40757e-11
0.000116591
-3.63467e-11
0.000116591
-4.32193e-11
0.000116591
-5.04085e-11
0.000116591
-5.15709e-11
0.000116591
-5.14791e-11
0.000116591
-5.81637e-11
-4.78431e-11
0.000179085
2.92472e-10
0.000179085
3.05199e-10
0.000179085
3.64292e-10
0.000179084
3.11635e-10
0.000179084
2.22966e-10
0.000179084
1.52157e-10
0.000179084
1.15223e-10
0.000179084
8.96405e-11
0.000179084
6.43959e-11
0.000179084
5.1841e-11
0.000179084
3.08307e-11
0.000179084
1.52676e-11
0.000179084
1.87637e-11
0.000179084
3.38444e-11
0.000179083
4.41117e-11
0.000179083
4.10121e-11
0.000179083
3.37735e-11
0.000179083
3.2146e-11
0.000179083
3.53289e-11
0.000179083
4.21199e-11
0.000179083
4.8527e-11
0.000179083
4.66973e-11
0.000179083
3.78372e-11
0.000179083
3.00419e-11
0.000179083
2.48795e-11
0.000179083
2.05429e-11
0.000179083
1.95697e-11
0.000179083
2.30209e-11
0.000179083
2.55416e-11
0.000179083
2.19399e-11
0.000179083
1.31802e-11
0.000179083
2.72689e-12
0.000179083
-7.1105e-12
0.000179083
-1.4131e-11
0.000179083
-1.64653e-11
0.000179083
-1.70957e-11
0.000179083
-1.97941e-11
0.000179083
-2.20151e-11
0.000179083
-1.88033e-11
0.000179083
-9.98571e-12
0.000179083
-1.2828e-12
0.000179083
1.9375e-12
0.000179083
2.40418e-14
0.000179083
-2.82274e-12
0.000179083
-3.05923e-12
0.000179083
7.10197e-13
0.000179083
7.12133e-12
0.000179083
1.34725e-11
0.000179083
1.82062e-11
0.000179083
2.19882e-11
0.000179083
2.55909e-11
0.000179083
2.71488e-11
0.000179083
2.2984e-11
0.000179083
1.34752e-11
0.000179083
4.7207e-12
0.000179083
3.0028e-12
0.000179083
7.89543e-12
0.000179083
1.34266e-11
0.000179083
1.43496e-11
0.000179083
1.14154e-11
0.000179083
1.06379e-11
0.000179083
1.40677e-11
0.000179083
2.01741e-11
0.000179083
2.41848e-11
0.000179083
2.28784e-11
0.000179083
1.78367e-11
0.000179083
1.47526e-11
0.000179083
1.70795e-11
0.000179083
2.15554e-11
0.000179083
2.0905e-11
0.000179083
1.39615e-11
0.000179083
7.07253e-12
0.000179083
6.33629e-12
0.000179083
9.98889e-12
0.000179083
1.1033e-11
0.000179083
6.56998e-12
0.000179083
-4.3421e-13
0.000179083
-3.70733e-12
0.000179083
-3.64992e-13
0.000179083
7.40269e-12
0.000179083
1.33034e-11
0.000179083
1.19221e-11
0.000179083
5.05878e-12
0.000179083
7.56564e-13
0.000179083
4.37754e-12
0.000179083
1.07632e-11
0.000179083
1.13033e-11
0.000179083
3.35178e-12
0.000179083
-5.94804e-12
0.000179083
-9.13709e-12
0.000179083
-7.08852e-12
0.000179083
-6.11515e-12
0.000179083
-1.01452e-11
0.000179083
-1.72239e-11
0.000179083
-2.15943e-11
0.000179083
-1.86789e-11
0.000179083
-8.88983e-12
0.000179083
1.72969e-12
0.000179083
6.0308e-12
0.000179083
4.55965e-12
0.000179083
5.09136e-12
0.000179083
1.29681e-11
0.000179083
2.34201e-11
0.000179083
2.75355e-11
0.000179083
2.36024e-11
0.000179083
1.89093e-11
0.000179083
1.97646e-11
0.000179083
2.4477e-11
0.000179083
2.77919e-11
0.000179083
2.59222e-11
0.000179083
1.88631e-11
0.000179083
1.02372e-11
0.000179083
6.32708e-12
0.000179083
9.7507e-12
0.000179083
1.48729e-11
0.000179083
1.47232e-11
0.000179083
9.43426e-12
0.000179083
7.28666e-12
0.000179083
1.32915e-11
0.000179083
2.30878e-11
0.000179083
2.84362e-11
0.000179083
2.74466e-11
0.000179083
2.44993e-11
0.000179083
2.29292e-11
0.000179083
2.32646e-11
0.000179083
2.47976e-11
0.000179083
2.43631e-11
0.000179083
1.84576e-11
0.000179083
8.3389e-12
0.000179083
5.63621e-13
0.000179083
-1.78239e-12
0.000179083
-2.85445e-12
0.000179083
-7.50641e-12
0.000179083
-1.53794e-11
0.000179083
-2.33341e-11
0.000179083
-2.75911e-11
0.000179083
-2.73785e-11
0.000179083
-2.5661e-11
0.000179083
-2.49324e-11
0.000179083
-2.56171e-11
0.000179083
-2.82991e-11
0.000179083
-3.28754e-11
0.000179083
-3.7341e-11
0.000179083
-4.01996e-11
0.000179083
-4.60956e-11
0.000179083
-5.43061e-11
0.000179083
-5.70833e-11
0.000179083
-6.27512e-11
0.000179083
-7.33931e-11
-6.62121e-11
0.00023018
2.64946e-10
0.00023018
4.07366e-10
0.00023018
4.48675e-10
0.00023018
4.67425e-10
0.00023018
4.09272e-10
0.000230179
3.415e-10
0.000230179
2.7029e-10
0.000230179
1.98437e-10
0.000230179
1.39914e-10
0.000230179
1.20975e-10
0.000230179
1.14827e-10
0.000230179
1.06375e-10
0.000230179
1.02872e-10
0.000230179
1.06774e-10
0.000230179
1.10218e-10
0.000230179
1.07859e-10
0.000230179
1.04744e-10
0.000230178
1.05347e-10
0.000230178
1.03144e-10
0.000230178
9.43954e-11
0.000230178
8.26557e-11
0.000230178
6.91956e-11
0.000230178
5.61386e-11
0.000230178
5.02182e-11
0.000230178
5.17828e-11
0.000230178
5.19743e-11
0.000230178
4.6133e-11
0.000230178
3.86889e-11
0.000230178
3.36671e-11
0.000230178
2.94426e-11
0.000230178
2.3951e-11
0.000230178
1.63891e-11
0.000230178
5.22437e-12
0.000230178
-8.89707e-12
0.000230178
-1.99475e-11
0.000230178
-2.16249e-11
0.000230178
-1.46157e-11
0.000230178
-4.34561e-12
0.000230178
5.15571e-12
0.000230178
1.23809e-11
0.000230178
1.60075e-11
0.000230178
1.46742e-11
0.000230178
1.05127e-11
0.000230178
6.06376e-12
0.000230178
4.0147e-12
0.000230178
6.3909e-12
0.000230178
1.39435e-11
0.000230178
2.39444e-11
0.000230178
3.13626e-11
0.000230178
3.28723e-11
0.000230178
2.94212e-11
0.000230178
2.44498e-11
0.000230178
2.01092e-11
0.000230178
1.56838e-11
0.000230178
1.02252e-11
0.000230178
5.28378e-12
0.000230178
4.17328e-12
0.000230178
8.01927e-12
0.000230178
1.38383e-11
0.000230178
1.772e-11
0.000230178
1.85368e-11
0.000230178
1.76647e-11
0.000230178
1.72861e-11
0.000230178
1.82315e-11
0.000230178
1.95493e-11
0.000230178
1.88579e-11
0.000230178
1.57948e-11
0.000230178
1.33446e-11
0.000230178
1.47326e-11
0.000230178
1.87389e-11
0.000230178
1.98926e-11
0.000230178
1.56081e-11
0.000230178
9.2936e-12
0.000230178
6.07141e-12
0.000230178
6.85033e-12
0.000230178
8.59983e-12
0.000230178
7.50596e-12
0.000230178
3.91046e-12
0.000230178
-2.06071e-14
0.000230178
-1.11855e-12
0.000230178
1.90435e-12
0.000230178
6.07169e-12
0.000230178
6.36406e-12
0.000230178
1.53749e-12
0.000230178
-3.7216e-12
0.000230178
-4.10993e-12
0.000230178
-3.83903e-13
0.000230178
1.76726e-12
0.000230178
-6.7842e-13
0.000230178
-5.23081e-12
0.000230178
-7.63028e-12
0.000230178
-7.01082e-12
0.000230178
-5.74377e-12
0.000230178
-6.31721e-12
0.000230178
-9.0592e-12
0.000230178
-1.18644e-11
0.000230178
-1.05333e-11
0.000230178
-3.12541e-12
0.000230178
6.38589e-12
0.000230178
1.1862e-11
0.000230178
1.12775e-11
0.000230178
9.34498e-12
0.000230178
1.19134e-11
0.000230178
1.82085e-11
0.000230178
2.2138e-11
0.000230178
2.07208e-11
0.000230178
1.66352e-11
0.000230178
1.32574e-11
0.000230178
1.17585e-11
0.000230178
1.19533e-11
0.000230178
1.18735e-11
0.000230178
9.46483e-12
0.000230178
5.13712e-12
0.000230178
3.23367e-12
0.000230178
7.06315e-12
0.000230178
1.39668e-11
0.000230178
1.76969e-11
0.000230178
1.65789e-11
0.000230178
1.49307e-11
0.000230178
1.73971e-11
0.000230178
2.26439e-11
0.000230178
2.70501e-11
0.000230178
2.8975e-11
0.000230178
2.80918e-11
0.000230178
2.43214e-11
0.000230178
1.97544e-11
0.000230178
1.65206e-11
0.000230178
1.352e-11
0.000230178
8.5607e-12
0.000230178
2.73357e-12
0.000230178
-1.01377e-12
0.000230178
-2.67905e-12
0.000230178
-4.82258e-12
0.000230178
-8.36046e-12
0.000230178
-1.50192e-11
0.000230178
-2.30048e-11
0.000230178
-2.65633e-11
0.000230178
-2.39188e-11
0.000230178
-1.97379e-11
0.000230178
-1.84215e-11
0.000230178
-2.00249e-11
0.000230178
-2.37707e-11
0.000230178
-3.18551e-11
0.000230178
-4.07762e-11
0.000230178
-4.65983e-11
0.000230178
-5.55634e-11
0.000230178
-5.33539e-11
0.000230178
-5.68666e-11
0.000230178
-6.37293e-11
-6.65516e-11
0.000269898
3.16703e-10
0.000269898
4.68778e-10
0.000269898
5.20975e-10
0.000269898
5.49175e-10
0.000269898
4.94756e-10
0.000269898
4.14901e-10
0.000269898
3.36801e-10
0.000269898
3.0051e-10
0.000269898
2.91378e-10
0.000269898
2.61568e-10
0.000269898
2.28565e-10
0.000269897
2.0897e-10
0.000269897
1.95517e-10
0.000269897
1.89248e-10
0.000269897
1.90634e-10
0.000269897
1.909e-10
0.000269897
1.83734e-10
0.000269897
1.72581e-10
0.000269897
1.58788e-10
0.000269897
1.42261e-10
0.000269897
1.29306e-10
0.000269897
1.22312e-10
0.000269897
1.12802e-10
0.000269897
9.57157e-11
0.000269897
7.81168e-11
0.000269897
6.72802e-11
0.000269897
6.10925e-11
0.000269897
5.42373e-11
0.000269897
4.52306e-11
0.000269897
3.44206e-11
0.000269897
2.26229e-11
0.000269897
1.26423e-11
0.000269897
6.57011e-12
0.000269897
2.62638e-12
0.000269897
-6.75965e-13
0.000269897
-6.70688e-13
0.000269897
4.734e-12
0.000269897
1.25912e-11
0.000269897
1.77928e-11
0.000269896
1.88285e-11
0.000269896
1.78359e-11
0.000269896
1.52628e-11
0.000269896
1.21117e-11
0.000269896
1.02212e-11
0.000269896
1.0637e-11
0.000269897
1.35472e-11
0.000269897
1.94613e-11
0.000269897
2.76041e-11
0.000269897
3.48768e-11
0.000269897
3.72655e-11
0.000269897
3.33504e-11
0.000269897
2.54941e-11
0.000269897
1.76563e-11
0.000269897
1.18289e-11
0.000269897
7.45861e-12
0.000269897
3.43435e-12
0.000269897
6.24559e-13
0.000269897
1.28331e-12
0.000269897
5.53092e-12
0.000269897
1.07528e-11
0.000269897
1.39088e-11
0.000269897
1.44631e-11
0.000269897
1.43531e-11
0.000269897
1.56406e-11
0.000269897
1.91171e-11
0.000269897
2.27655e-11
0.000269897
2.33165e-11
0.000269897
2.06729e-11
0.000269897
1.79122e-11
0.000269897
1.92996e-11
0.000269897
2.42305e-11
0.000269897
2.73713e-11
0.000269897
2.51008e-11
0.000269897
1.93447e-11
0.000269897
1.41881e-11
0.000269897
1.20584e-11
0.000269897
1.20251e-11
0.000269897
1.18279e-11
0.000269897
9.82111e-12
0.000269897
6.61052e-12
0.000269897
4.39898e-12
0.000269897
4.64921e-12
0.000269897
5.70749e-12
0.000269897
4.15829e-12
0.000269897
-6.65702e-13
0.000269897
-4.35841e-12
0.000269897
-3.42139e-12
0.000269897
1.04568e-12
0.000269897
4.41459e-12
0.000269897
3.43602e-12
0.000269897
-4.06472e-13
0.000269897
-3.3473e-12
0.000269897
-3.43169e-12
0.000269897
-1.56855e-12
0.000269897
2.66653e-13
0.000269897
3.42612e-13
0.000269897
-6.64415e-13
0.000269897
4.53445e-13
0.000269897
5.48575e-12
0.000269897
1.2674e-11
0.000269897
1.74568e-11
0.000269897
1.72361e-11
0.000269897
1.49202e-11
0.000269897
1.48344e-11
0.000269897
1.66448e-11
0.000269897
1.67095e-11
0.000269897
1.35443e-11
0.000269897
8.73419e-12
0.000269897
4.33186e-12
0.000269897
2.22233e-12
0.000269897
2.85176e-12
0.000269897
4.58963e-12
0.000269897
4.73024e-12
0.000269897
2.84421e-12
0.000269897
2.17456e-12
0.000269897
5.88288e-12
0.000269897
1.22921e-11
0.000269897
1.70669e-11
0.000269897
1.92401e-11
0.000269897
2.13161e-11
0.000269897
2.44218e-11
0.000269897
2.74469e-11
0.000269897
2.90603e-11
0.000269897
2.82098e-11
0.000269896
2.41187e-11
0.000269896
1.82191e-11
0.000269896
1.36592e-11
0.000269896
1.14325e-11
0.000269896
9.43497e-12
0.000269896
6.06997e-12
0.000269896
2.52621e-12
0.000269896
-1.22328e-12
0.000269896
-6.13239e-12
0.000269896
-9.62358e-12
0.000269896
-1.07907e-11
0.000269896
-1.21931e-11
0.000269896
-1.29031e-11
0.000269896
-1.03555e-11
0.000269896
-8.20288e-12
0.000269896
-1.19309e-11
0.000269896
-1.9468e-11
0.000269896
-2.3885e-11
0.000269896
-2.66105e-11
0.000269896
-3.1664e-11
0.000269896
-3.30838e-11
0.000269896
-3.44942e-11
0.000269896
-3.99829e-11
0.000269896
-4.42922e-11
0.000269896
-5.14371e-11
-5.44982e-11
0.000298256
3.70741e-10
0.000298256
3.53646e-10
0.000298256
3.72534e-10
0.000298256
4.13386e-10
0.000298256
4.4937e-10
0.000298256
4.51591e-10
0.000298256
4.25838e-10
0.000298256
3.93214e-10
0.000298256
3.74014e-10
0.000298256
3.31737e-10
0.000298256
2.94728e-10
0.000298256
2.9477e-10
0.000298256
3.00202e-10
0.000298256
2.9181e-10
0.000298256
2.80915e-10
0.000298256
2.70131e-10
0.000298256
2.50692e-10
0.000298256
2.26879e-10
0.000298256
2.06773e-10
0.000298256
1.88798e-10
0.000298255
1.72292e-10
0.000298255
1.60255e-10
0.000298255
1.48825e-10
0.000298255
1.31789e-10
0.000298255
1.12586e-10
0.000298255
9.8657e-11
0.000298255
8.94038e-11
0.000298255
7.97767e-11
0.000298255
7.00844e-11
0.000298255
6.27095e-11
0.000298255
5.5086e-11
0.000298255
4.41821e-11
0.000298255
3.2132e-11
0.000298255
2.24167e-11
0.000298255
1.6142e-11
0.000298255
1.47685e-11
0.000298255
1.96932e-11
0.000298255
3.06717e-11
0.000298255
4.12693e-11
0.000298255
4.41889e-11
0.000298255
3.88548e-11
0.000298255
2.87193e-11
0.000298255
1.97806e-11
0.000298255
1.64975e-11
0.000298255
1.9022e-11
0.000298255
2.38259e-11
0.000298255
2.78693e-11
0.000298255
3.10226e-11
0.000298255
3.37296e-11
0.000298255
3.45954e-11
0.000298255
3.10192e-11
0.000298255
2.26806e-11
0.000298255
1.32261e-11
0.000298255
7.21684e-12
0.000298255
6.24015e-12
0.000298255
7.77937e-12
0.000298255
8.01373e-12
0.000298255
6.01148e-12
0.000298255
4.15385e-12
0.000298255
4.93066e-12
0.000298255
8.01425e-12
0.000298255
1.06588e-11
0.000298255
1.05038e-11
0.000298255
8.13388e-12
0.000298255
6.83483e-12
0.000298255
9.54068e-12
0.000298255
1.54399e-11
0.000298255
2.0529e-11
0.000298255
2.14944e-11
0.000298255
1.98725e-11
0.000298255
1.97597e-11
0.000298255
2.23641e-11
0.000298255
2.44649e-11
0.000298255
2.26285e-11
0.000298255
1.68809e-11
0.000298255
1.03342e-11
0.000298255
6.16669e-12
0.000298255
5.12368e-12
0.000298255
5.0353e-12
0.000298255
3.10748e-12
0.000298255
-8.22278e-13
0.000298255
-3.61999e-12
0.000298255
-2.23143e-12
0.000298255
2.18261e-12
0.000298255
4.40933e-12
0.000298255
2.19854e-12
0.000298255
-1.86293e-12
0.000298255
-3.08515e-12
0.000298255
-4.89795e-14
0.000298255
4.19253e-12
0.000298255
5.80992e-12
0.000298255
4.313e-12
0.000298255
2.08134e-12
0.000298255
1.64818e-12
0.000298255
3.91762e-12
0.000298255
7.26715e-12
0.000298255
8.88028e-12
0.000298255
8.33779e-12
0.000298255
7.99854e-12
0.000298255
1.08803e-11
0.000298255
1.63106e-11
0.000298255
1.94867e-11
0.000298255
1.72324e-11
0.000298255
1.2329e-11
0.000298255
9.3623e-12
0.000298255
9.15142e-12
0.000298255
9.54904e-12
0.000298255
8.74308e-12
0.000298255
6.29561e-12
0.000298255
3.10817e-12
0.000298255
1.56619e-12
0.000298255
3.06331e-12
0.000298255
6.21201e-12
0.000298255
7.48065e-12
0.000298255
5.89299e-12
0.000298255
5.17168e-12
0.000298255
8.72642e-12
0.000298255
1.46255e-11
0.000298255
1.86961e-11
0.000298255
1.94827e-11
0.000298255
1.81359e-11
0.000298255
1.64205e-11
0.000298255
1.6173e-11
0.000298255
1.76642e-11
0.000298255
1.84442e-11
0.000298255
1.60407e-11
0.000298255
1.17109e-11
0.000298255
8.49962e-12
0.000298255
6.47294e-12
0.000298255
3.5795e-12
0.000298255
-7.64635e-13
0.000298255
-5.2359e-12
0.000298255
-9.8953e-12
0.000298255
-1.24408e-11
0.000298255
-1.05733e-11
0.000298255
-7.61244e-12
0.000298255
-7.08529e-12
0.000298255
-7.35128e-12
0.000298255
-7.14192e-12
0.000298255
-7.32892e-12
0.000298255
-8.54302e-12
0.000298255
-8.76469e-12
0.000298255
-9.98732e-12
0.000298255
-1.82243e-11
0.000298255
-2.56737e-11
0.000298255
-2.41478e-11
0.000298255
-2.7907e-11
0.000298255
-2.34443e-11
0.000298255
-2.99778e-11
-3.15644e-11
0.000315266
1.77838e-10
0.000315266
1.74523e-10
0.000315266
2.34776e-10
0.000315266
3.29176e-10
0.000315266
4.06145e-10
0.000315266
4.06256e-10
0.000315266
4.05013e-10
0.000315266
4.05255e-10
0.000315266
3.97272e-10
0.000315266
3.78653e-10
0.000315266
3.6267e-10
0.000315266
3.69583e-10
0.000315266
3.82943e-10
0.000315266
3.77441e-10
0.000315266
3.53914e-10
0.000315266
3.23079e-10
0.000315266
2.87481e-10
0.000315266
2.54288e-10
0.000315266
2.32567e-10
0.000315266
2.1972e-10
0.000315266
2.0836e-10
0.000315266
1.96283e-10
0.000315266
1.82227e-10
0.000315266
1.63277e-10
0.000315266
1.40299e-10
0.000315266
1.18807e-10
0.000315266
1.02477e-10
0.000315266
9.01383e-11
0.000315266
8.04143e-11
0.000315266
7.44982e-11
0.000315266
7.23363e-11
0.000315266
7.10929e-11
0.000315266
6.88222e-11
0.000315266
6.62182e-11
0.000315266
6.36072e-11
0.000315266
5.9501e-11
0.000315266
5.30811e-11
0.000315266
4.66398e-11
0.000315266
4.25811e-11
0.000315266
4.03442e-11
0.000315266
3.70992e-11
0.000315266
3.064e-11
0.000315266
2.2639e-11
0.000315266
1.78229e-11
0.000315266
1.92632e-11
0.000315266
2.48161e-11
0.000315266
2.86378e-11
0.000315266
2.78587e-11
0.000315266
2.42416e-11
0.000315266
2.18334e-11
0.000315266
2.22611e-11
0.000315266
2.29395e-11
0.000315266
2.00573e-11
0.000315266
1.37138e-11
0.000315266
8.06143e-12
0.000315266
6.48384e-12
0.000315266
7.96755e-12
0.000315266
8.472e-12
0.000315266
5.72246e-12
0.000315266
1.43027e-12
0.000315266
-5.98802e-13
0.000315266
1.88624e-12
0.000315266
7.15523e-12
0.000315266
1.06887e-11
0.000315266
9.54609e-12
0.000315266
5.85227e-12
0.000315266
5.32326e-12
0.000315266
1.00813e-11
0.000315266
1.6565e-11
0.000315266
1.9165e-11
0.000315266
1.66107e-11
0.000315266
1.33195e-11
0.000315266
1.28334e-11
0.000315266
1.42076e-11
0.000315266
1.34961e-11
0.000315266
9.02866e-12
0.000315266
2.63681e-12
0.000315266
-1.37778e-12
0.000315266
-4.01846e-13
0.000315266
3.70793e-12
0.000315266
5.93124e-12
0.000315266
2.75911e-12
0.000315266
-3.23739e-12
0.000315266
-5.75746e-12
0.000315266
-2.16692e-12
0.000315266
3.4577e-12
0.000315266
5.79168e-12
0.000315266
4.27603e-12
0.000315266
3.05777e-12
0.000315266
5.65569e-12
0.000315266
1.07858e-11
0.000315266
1.45944e-11
0.000315266
1.47873e-11
0.000315266
1.24144e-11
0.000315266
1.04909e-11
0.000315266
1.19104e-11
0.000315266
1.57153e-11
0.000315266
1.77101e-11
0.000315266
1.40992e-11
0.000315266
6.80267e-12
0.000315266
2.26656e-12
0.000315266
3.5597e-12
0.000315266
6.73099e-12
0.000315266
6.99035e-12
0.000315266
4.75728e-12
0.000315266
3.38692e-12
0.000315266
4.45859e-12
0.000315266
6.89227e-12
0.000315266
8.39245e-12
0.000315266
6.8452e-12
0.000315266
2.64557e-12
0.000315266
-7.83428e-13
0.000315266
4.3064e-13
0.000315266
5.63192e-12
0.000315266
9.3765e-12
0.000315266
7.97926e-12
0.000315266
4.25605e-12
0.000315266
2.6288e-12
0.000315266
3.68301e-12
0.000315266
5.54569e-12
0.000315266
6.16822e-12
0.000315266
4.58295e-12
0.000315266
2.87771e-12
0.000315266
4.10527e-12
0.000315266
7.97972e-12
0.000315266
1.01981e-11
0.000315266
8.28329e-12
0.000315266
4.20177e-12
0.000315266
7.44204e-13
0.000315266
-1.21513e-12
0.000315266
-9.58569e-13
0.000315266
1.09734e-12
0.000315266
1.77755e-12
0.000315266
-2.05094e-14
0.000315266
1.27717e-13
0.000315266
4.43363e-12
0.000315266
7.99238e-12
0.000315266
6.78299e-12
0.000315266
2.16576e-12
0.000315266
-1.84791e-12
0.000315266
-6.10672e-12
0.000315266
-9.26003e-12
0.000315266
-7.60577e-12
0.000315266
-8.64732e-12
0.000315266
-3.81132e-12
0.000315265
-1.37539e-12
0.000315265
-1.28793e-11
0.000315265
-1.59775e-11
0.000315265
-1.78687e-11
-1.5231e-11
0.000320935
8.83455e-11
0.000320935
1.10514e-10
0.000320936
1.60726e-10
0.000320936
2.16662e-10
0.000320936
2.69934e-10
0.000320936
3.04321e-10
0.000320936
3.44618e-10
0.000320936
3.66082e-10
0.000320936
3.65015e-10
0.000320936
3.71654e-10
0.000320936
3.88742e-10
0.000320936
3.98247e-10
0.000320936
3.9406e-10
0.000320936
3.71865e-10
0.000320936
3.36818e-10
0.000320936
3.05415e-10
0.000320936
2.82634e-10
0.000320936
2.63145e-10
0.000320936
2.47748e-10
0.000320936
2.37838e-10
0.000320936
2.25866e-10
0.000320936
2.05903e-10
0.000320936
1.83529e-10
0.000320936
1.65817e-10
0.000320936
1.50088e-10
0.000320936
1.30643e-10
0.000320936
1.10041e-10
0.000320936
9.53769e-11
0.000320936
8.86507e-11
0.000320936
8.72069e-11
0.000320936
8.79298e-11
0.000320936
8.75769e-11
0.000320936
8.38342e-11
0.000320936
7.81088e-11
0.000320936
7.43147e-11
0.000320936
7.38179e-11
0.000320936
7.34795e-11
0.000320936
6.89805e-11
0.000320936
5.94416e-11
0.000320936
4.82889e-11
0.000320936
4.01278e-11
0.000320935
3.67307e-11
0.000320936
3.59424e-11
0.000320936
3.55459e-11
0.000320936
3.57042e-11
0.000320936
3.74434e-11
0.000320936
3.95692e-11
0.000320936
3.90111e-11
0.000320936
3.32999e-11
0.000320936
2.40521e-11
0.000320936
1.62916e-11
0.000320936
1.41277e-11
0.000320936
1.64398e-11
0.000320936
1.77977e-11
0.000320936
1.45247e-11
0.000320936
8.32323e-12
0.000320936
3.62473e-12
0.000320936
2.59224e-12
0.000320936
3.51415e-12
0.000320936
3.92511e-12
0.000320936
2.15531e-12
0.000320936
-5.36932e-13
0.000320936
-1.37409e-12
0.000320936
9.67744e-13
0.000320936
4.9283e-12
0.000320936
6.62063e-12
0.000320936
5.3883e-12
0.000320936
5.40084e-12
0.000320936
1.04143e-11
0.000320936
1.83356e-11
0.000320936
2.30737e-11
0.000320936
2.14012e-11
0.000320936
1.62188e-11
0.000320936
1.27274e-11
0.000320936
1.24574e-11
0.000320936
1.31958e-11
0.000320936
1.1946e-11
0.000320936
7.48171e-12
0.000320936
1.52826e-12
0.000320936
-1.96705e-12
0.000320936
-7.09103e-13
0.000320936
2.60496e-12
0.000320936
2.79128e-12
0.000320936
-1.37078e-12
0.000320936
-4.97126e-12
0.000320936
-2.79339e-12
0.000320936
4.17737e-12
0.000320936
1.05464e-11
0.000320936
1.29648e-11
0.000320936
1.30304e-11
0.000320936
1.40578e-11
0.000320936
1.71393e-11
0.000320936
2.04544e-11
0.000320936
2.24092e-11
0.000320936
2.1425e-11
0.000320936
1.85806e-11
0.000320936
1.6785e-11
0.000320936
1.82618e-11
0.000320936
2.03651e-11
0.000320936
1.7201e-11
0.000320936
8.0141e-12
0.000320936
-7.59897e-13
0.000320936
-3.5185e-12
0.000320936
-1.56855e-12
0.000320936
4.96036e-13
0.000320936
4.81442e-13
0.000320936
-7.48055e-13
0.000320936
-1.42181e-12
0.000320936
-4.34342e-13
0.000320936
1.92761e-12
0.000320936
3.98865e-12
0.000320936
3.58144e-12
0.000320936
1.4709e-12
0.000320936
1.59928e-12
0.000320936
5.64018e-12
0.000320936
9.94538e-12
0.000320936
1.00729e-11
0.000320936
5.85302e-12
0.000320936
-1.9449e-13
0.000320936
-3.97602e-12
0.000320936
-3.61829e-12
0.000320936
-1.85816e-12
0.000320936
-1.30795e-12
0.000320936
-1.3278e-12
0.000320936
-6.66434e-13
0.000320936
-5.59911e-13
0.000320936
-2.41283e-12
0.000320936
-4.56442e-12
0.000320936
-5.28452e-12
0.000320936
-5.96421e-12
0.000320936
-5.7563e-12
0.000320936
-9.89911e-13
0.000320936
5.96953e-12
0.000320936
6.31068e-12
0.000320936
-7.20406e-13
0.000320936
-5.31341e-12
0.000320936
-3.73739e-12
0.000320936
-2.98606e-12
0.000320936
-6.13326e-12
0.000320936
-6.05345e-12
0.000320936
-1.73253e-12
0.000320936
-9.74802e-13
0.000320936
5.53554e-13
0.000320936
-2.08568e-12
0.000320936
-2.44021e-12
0.000320936
-3.56871e-12
0.000320936
-7.19029e-12
0.000320936
-9.13849e-12
0.000320935
-6.61016e-12
-1.59405e-11
0.000315267
9.39946e-11
0.000315267
6.38815e-11
0.000315267
9.10107e-11
0.000315267
1.27207e-10
0.000315267
1.74706e-10
0.000315267
2.4936e-10
0.000315267
3.20588e-10
0.000315267
3.49281e-10
0.000315267
3.6042e-10