/*--------------------------------*- C++ -*----------------------------------*\
| =========                 |                                                 |
| \\      /  F ield         | OpenFOAM: The Open Source CFD Toolbox           |
|  \\    /   O peration     | Version:  2406                                  |
|   \\  /    A nd           | Website:  www.openfoam.com                      |
|    \\/     M anipulation  |                                                 |
\*---------------------------------------------------------------------------*/
FoamFile
{
    version     2.0;
    format      ascii;
    arch        "LSB;label=32;scalar=64";
    class       volVectorField;
    location    "0.5";
    object      U;
}
// * * * * * * * * * * * * * * * * * * * * * * * * * * * * * * * * * * * * * //

dimensions      [0 1 -1 0 0 0 0];

internalField   nonuniform List<vector> 
2250
(
(0.640185 3.47846e-07 0)
(0.640184 2.77239e-07 0)
(0.640184 -2.75502e-07 0)
(0.640184 -8.19833e-07 0)
(0.640183 -5.4949e-07 0)
(0.640185 -3.63077e-07 0)
(0.640185 -5.13589e-07 0)
(0.640185 -2.14434e-07 0)
(0.640186 -1.13661e-07 0)
(0.640186 -1.00186e-07 0)
(0.640186 4.74632e-09 0)
(0.640186 -2.96293e-08 0)
(0.640186 -4.47317e-08 0)
(0.640186 8.69466e-09 0)
(0.640186 7.57238e-08 0)
(0.640186 1.17867e-07 0)
(0.640186 9.64117e-08 0)
(0.640186 3.44492e-08 0)
(0.640186 9.02786e-10 0)
(0.640185 1.92131e-08 0)
(0.640185 5.24566e-08 0)
(0.640185 7.91661e-08 0)
(0.640185 1.08882e-07 0)
(0.640185 1.22557e-07 0)
(0.640185 9.2113e-08 0)
(0.640185 4.5571e-08 0)
(0.640185 3.44096e-08 0)
(0.640185 6.20515e-08 0)
(0.640185 8.82744e-08 0)
(0.640185 8.48466e-08 0)
(0.640185 5.7622e-08 0)
(0.640185 2.55169e-08 0)
(0.640186 -4.23796e-09 0)
(0.640186 -3.86705e-08 0)
(0.640186 -8.25864e-08 0)
(0.640186 -1.1353e-07 0)
(0.640185 -1.01625e-07 0)
(0.640185 -5.16425e-08 0)
(0.640185 -6.87095e-09 0)
(0.640185 3.95495e-09 0)
(0.640186 4.36347e-09 0)
(0.640186 2.79912e-08 0)
(0.640186 6.1798e-08 0)
(0.640186 6.84e-08 0)
(0.640186 4.42214e-08 0)
(0.640186 2.27122e-08 0)
(0.640186 3.24211e-08 0)
(0.640186 6.89382e-08 0)
(0.640187 1.02072e-07 0)
(0.640187 1.02315e-07 0)
(0.640187 6.55621e-08 0)
(0.640187 2.16327e-08 0)
(0.640187 6.84278e-09 0)
(0.640187 2.42463e-08 0)
(0.640188 3.68703e-08 0)
(0.640188 1.05082e-08 0)
(0.640188 -3.98676e-08 0)
(0.640188 -6.50512e-08 0)
(0.640187 -3.93324e-08 0)
(0.640187 5.23579e-09 0)
(0.640187 1.2772e-08 0)
(0.640187 -3.43808e-08 0)
(0.640187 -9.26255e-08 0)
(0.640187 -1.01718e-07 0)
(0.640187 -4.71286e-08 0)
(0.640187 2.30701e-08 0)
(0.640187 4.22601e-08 0)
(0.640187 -2.77565e-09 0)
(0.640187 -5.6037e-08 0)
(0.640187 -5.19576e-08 0)
(0.640187 7.90366e-09 0)
(0.640187 5.29562e-08 0)
(0.640187 2.8366e-08 0)
(0.640187 -3.95319e-08 0)
(0.640187 -7.57071e-08 0)
(0.640187 -4.16198e-08 0)
(0.640187 2.42734e-08 0)
(0.640187 5.3159e-08 0)
(0.640187 1.78192e-08 0)
(0.640187 -4.34769e-08 0)
(0.640187 -6.53866e-08 0)
(0.640186 -1.91342e-08 0)
(0.640186 5.2948e-08 0)
(0.640186 7.41551e-08 0)
(0.640186 2.37707e-08 0)
(0.640186 -3.77251e-08 0)
(0.640186 -3.71749e-08 0)
(0.640186 2.40111e-08 0)
(0.640186 6.87018e-08 0)
(0.640187 3.70918e-08 0)
(0.640187 -4.28911e-08 0)
(0.640187 -9.2629e-08 0)
(0.640187 -6.63184e-08 0)
(0.640187 6.69675e-09 0)
(0.640187 5.49968e-08 0)
(0.640187 4.1013e-08 0)
(0.640187 -1.00279e-08 0)
(0.640187 -2.90216e-08 0)
(0.640187 2.42289e-08 0)
(0.640187 1.1012e-07 0)
(0.640187 1.45729e-07 0)
(0.640187 1.00594e-07 0)
(0.640187 3.41799e-08 0)
(0.640187 2.6025e-08 0)
(0.640187 8.30419e-08 0)
(0.640187 1.38988e-07 0)
(0.640187 1.33343e-07 0)
(0.640187 7.97542e-08 0)
(0.640187 4.0314e-08 0)
(0.640186 5.3854e-08 0)
(0.640186 1.03628e-07 0)
(0.640186 1.36585e-07 0)
(0.640186 1.13747e-07 0)
(0.640186 4.57335e-08 0)
(0.640186 -3.63362e-09 0)
(0.640185 1.64134e-08 0)
(0.640185 8.12217e-08 0)
(0.640185 1.18849e-07 0)
(0.640185 9.35579e-08 0)
(0.640185 4.64137e-08 0)
(0.640185 4.48269e-08 0)
(0.640184 9.38493e-08 0)
(0.640184 1.35588e-07 0)
(0.640184 1.2504e-07 0)
(0.640184 7.70728e-08 0)
(0.640184 3.41548e-08 0)
(0.640184 2.28216e-08 0)
(0.640184 4.33028e-08 0)
(0.640183 7.00677e-08 0)
(0.640183 5.69644e-08 0)
(0.640183 -4.91119e-09 0)
(0.640183 -6.10121e-08 0)
(0.640183 -6.44741e-08 0)
(0.640183 -4.25387e-08 0)
(0.640183 -4.51841e-08 0)
(0.640184 -7.31615e-08 0)
(0.640184 -1.0012e-07 0)
(0.640184 -1.09488e-07 0)
(0.640184 -9.6684e-08 0)
(0.640184 -6.89425e-08 0)
(0.640184 -5.15606e-08 0)
(0.640184 -6.24399e-08 0)
(0.640184 -8.18001e-08 0)
(0.640185 -8.63593e-08 0)
(0.640185 -9.18163e-08 0)
(0.640185 -1.01803e-07 0)
(0.640185 -1.2331e-07 0)
(0.640185 -1.65218e-07 0)
(0.640186 -1.57736e-07 0)
(0.640186 -1.49738e-07 0)
(1.74888 1.4546e-06 0)
(1.74888 1.36922e-06 0)
(1.74888 1.08402e-06 0)
(1.74888 -3.20324e-07 0)
(1.74887 -4.32032e-07 0)
(1.74887 -7.94112e-08 0)
(1.74887 -6.11955e-07 0)
(1.74887 -5.44983e-07 0)
(1.74887 -4.67645e-07 0)
(1.74887 -4.23173e-07 0)
(1.74887 -3.46002e-07 0)
(1.74887 -4.94615e-07 0)
(1.74887 -4.75151e-07 0)
(1.74887 -2.26038e-07 0)
(1.74887 -3.82941e-08 0)
(1.74887 2.50942e-08 0)
(1.74887 2.84268e-08 0)
(1.74887 -2.2201e-08 0)
(1.74887 -1.00192e-07 0)
(1.74887 -1.29434e-07 0)
(1.74887 -9.20963e-08 0)
(1.74887 -2.6351e-08 0)
(1.74887 2.44894e-08 0)
(1.74887 4.59468e-09 0)
(1.74887 -8.26103e-08 0)
(1.74887 -1.3498e-07 0)
(1.74887 -8.08763e-08 0)
(1.74887 2.6199e-08 0)
(1.74887 9.37612e-08 0)
(1.74887 9.61392e-08 0)
(1.74887 6.09894e-08 0)
(1.74887 1.33318e-08 0)
(1.74887 -3.98622e-08 0)
(1.74887 -1.05317e-07 0)
(1.74887 -1.99275e-07 0)
(1.74887 -3.03604e-07 0)
(1.74887 -3.47992e-07 0)
(1.74887 -2.84489e-07 0)
(1.74887 -1.63774e-07 0)
(1.74887 -8.30288e-08 0)
(1.74887 -6.87458e-08 0)
(1.74887 -7.09802e-08 0)
(1.74887 -5.64777e-08 0)
(1.74887 -3.9623e-08 0)
(1.74887 -3.42163e-08 0)
(1.74887 -2.18166e-08 0)
(1.74887 2.28313e-08 0)
(1.74887 1.03923e-07 0)
(1.74887 2.02628e-07 0)
(1.74887 2.79484e-07 0)
(1.74887 2.911e-07 0)
(1.74887 2.32767e-07 0)
(1.74887 1.52629e-07 0)
(1.74887 1.1318e-07 0)
(1.74887 1.22179e-07 0)
(1.74887 1.30952e-07 0)
(1.74887 1.01163e-07 0)
(1.74887 6.01347e-08 0)
(1.74887 6.17929e-08 0)
(1.74887 1.13013e-07 0)
(1.74887 1.60201e-07 0)
(1.74887 1.45786e-07 0)
(1.74887 7.54337e-08 0)
(1.74887 1.1316e-08 0)
(1.74887 1.76877e-08 0)
(1.74887 9.69069e-08 0)
(1.74887 1.77557e-07 0)
(1.74887 1.80973e-07 0)
(1.74887 1.06029e-07 0)
(1.74887 3.78994e-08 0)
(1.74887 5.0845e-08 0)
(1.74887 1.1293e-07 0)
(1.74887 1.27894e-07 0)
(1.74887 5.81729e-08 0)
(1.74887 -2.9085e-08 0)
(1.74887 -4.57622e-08 0)
(1.74887 1.64801e-08 0)
(1.74887 9.00276e-08 0)
(1.74887 1.03898e-07 0)
(1.74887 4.40316e-08 0)
(1.74887 -3.48978e-08 0)
(1.74887 -5.20994e-08 0)
(1.74887 1.67811e-08 0)
(1.74887 9.4349e-08 0)
(1.74887 8.39969e-08 0)
(1.74887 -1.68807e-08 0)
(1.74887 -1.06141e-07 0)
(1.74887 -9.91827e-08 0)
(1.74887 -3.14186e-08 0)
(1.74887 -9.59818e-09 0)
(1.74887 -7.7963e-08 0)
(1.74887 -1.74936e-07 0)
(1.74887 -2.1051e-07 0)
(1.74887 -1.56277e-07 0)
(1.74887 -6.32714e-08 0)
(1.74887 -3.63897e-09 0)
(1.74887 -1.11325e-08 0)
(1.74887 -4.36841e-08 0)
(1.74887 -1.6248e-08 0)
(1.74887 1.018e-07 0)
(1.74887 2.29411e-07 0)
(1.74887 2.55849e-07 0)
(1.74887 1.73656e-07 0)
(1.74887 9.49707e-08 0)
(1.74887 1.16745e-07 0)
(1.74887 2.1245e-07 0)
(1.74887 2.77586e-07 0)
(1.74887 2.61576e-07 0)
(1.74887 2.05115e-07 0)
(1.74887 1.66509e-07 0)
(1.74887 1.71145e-07 0)
(1.74887 2.06162e-07 0)
(1.74887 2.19838e-07 0)
(1.74887 1.6061e-07 0)
(1.74887 5.91048e-08 0)
(1.74887 1.63769e-08 0)
(1.74887 8.30669e-08 0)
(1.74887 1.96319e-07 0)
(1.74887 2.49396e-07 0)
(1.74887 2.17611e-07 0)
(1.74887 1.81273e-07 0)
(1.74887 2.07125e-07 0)
(1.74887 2.60821e-07 0)
(1.74887 2.75953e-07 0)
(1.74887 2.40339e-07 0)
(1.74887 1.77698e-07 0)
(1.74887 1.07825e-07 0)
(1.74887 5.86822e-08 0)
(1.74887 5.40059e-08 0)
(1.74887 5.70406e-08 0)
(1.74887 3.21529e-09 0)
(1.74887 -9.45754e-08 0)
(1.74887 -1.56628e-07 0)
(1.74887 -1.65827e-07 0)
(1.74887 -1.79846e-07 0)
(1.74887 -2.24475e-07 0)
(1.74887 -2.76428e-07 0)
(1.74887 -3.12825e-07 0)
(1.74887 -3.16751e-07 0)
(1.74887 -2.92362e-07 0)
(1.74887 -2.74872e-07 0)
(1.74887 -2.89677e-07 0)
(1.74887 -3.18231e-07 0)
(1.74887 -3.47221e-07 0)
(1.74887 -4.14699e-07 0)
(1.74887 -4.83601e-07 0)
(1.74887 -5.18608e-07 0)
(1.74887 -5.78004e-07 0)
(1.74887 -6.22195e-07 0)
(1.74887 -5.40729e-07 0)
(2.68627 3.51066e-06 0)
(2.68627 3.28484e-06 0)
(2.68627 4.05316e-06 0)
(2.68627 2.87065e-06 0)
(2.68626 1.67197e-06 0)
(2.68626 1.28507e-06 0)
(2.68626 7.11366e-07 0)
(2.68626 2.58245e-07 0)
(2.68626 4.77479e-10 0)
(2.68626 -6.74177e-08 0)
(2.68625 -2.1455e-07 0)
(2.68625 -4.27986e-07 0)
(2.68625 -3.78325e-07 0)
(2.68625 -4.77507e-08 0)
(2.68625 2.04082e-07 0)
(2.68625 2.28487e-07 0)
(2.68625 1.98519e-07 0)
(2.68625 1.97403e-07 0)
(2.68625 1.80957e-07 0)
(2.68625 1.92399e-07 0)
(2.68625 2.51222e-07 0)
(2.68625 2.69007e-07 0)
(2.68625 2.02886e-07 0)
(2.68625 9.03805e-08 0)
(2.68625 -2.09738e-08 0)
(2.68625 -6.55592e-08 0)
(2.68625 1.00243e-09 0)
(2.68625 1.16184e-07 0)
(2.68625 1.71148e-07 0)
(2.68625 1.40684e-07 0)
(2.68625 6.70624e-08 0)
(2.68625 -2.58845e-08 0)
(2.68625 -1.27052e-07 0)
(2.68625 -2.04413e-07 0)
(2.68625 -2.50289e-07 0)
(2.68625 -3.03644e-07 0)
(2.68625 -3.74391e-07 0)
(2.68625 -3.97115e-07 0)
(2.68625 -3.18647e-07 0)
(2.68625 -1.89341e-07 0)
(2.68625 -1.09544e-07 0)
(2.68625 -1.10861e-07 0)
(2.68624 -1.44804e-07 0)
(2.68624 -1.57902e-07 0)
(2.68624 -1.27791e-07 0)
(2.68625 -5.68378e-08 0)
(2.68625 3.56066e-08 0)
(2.68625 1.31469e-07 0)
(2.68625 2.31275e-07 0)
(2.68625 3.35635e-07 0)
(2.68625 4.14246e-07 0)
(2.68625 4.15646e-07 0)
(2.68625 3.21138e-07 0)
(2.68625 1.89842e-07 0)
(2.68625 1.13271e-07 0)
(2.68625 1.31805e-07 0)
(2.68625 1.97684e-07 0)
(2.68625 2.36546e-07 0)
(2.68625 2.27924e-07 0)
(2.68625 2.14748e-07 0)
(2.68625 2.39022e-07 0)
(2.68625 2.92662e-07 0)
(2.68625 3.29951e-07 0)
(2.68625 3.12441e-07 0)
(2.68625 2.51949e-07 0)
(2.68625 2.05012e-07 0)
(2.68625 2.22653e-07 0)
(2.68625 2.86106e-07 0)
(2.68625 3.10908e-07 0)
(2.68625 2.43617e-07 0)
(2.68625 1.40152e-07 0)
(2.68625 9.69193e-08 0)
(2.68625 1.30336e-07 0)
(2.68625 1.6483e-07 0)
(2.68625 1.35175e-07 0)
(2.68625 5.81332e-08 0)
(2.68625 3.07031e-09 0)
(2.68625 1.95748e-08 0)
(2.68625 9.58504e-08 0)
(2.68625 1.67699e-07 0)
(2.68625 1.6766e-07 0)
(2.68625 9.1503e-08 0)
(2.68625 1.64185e-08 0)
(2.68625 2.05417e-08 0)
(2.68624 8.3697e-08 0)
(2.68624 1.03862e-07 0)
(2.68624 2.22505e-08 0)
(2.68624 -9.89769e-08 0)
(2.68624 -1.56971e-07 0)
(2.68624 -1.32323e-07 0)
(2.68624 -9.87986e-08 0)
(2.68624 -1.26787e-07 0)
(2.68624 -2.11239e-07 0)
(2.68624 -2.86676e-07 0)
(2.68624 -2.88092e-07 0)
(2.68625 -2.01631e-07 0)
(2.68625 -7.69812e-08 0)
(2.68625 5.27265e-09 0)
(2.68625 1.75138e-08 0)
(2.68625 2.64839e-08 0)
(2.68625 1.10064e-07 0)
(2.68625 2.43389e-07 0)
(2.68625 3.1871e-07 0)
(2.68625 2.84584e-07 0)
(2.68625 2.13408e-07 0)
(2.68625 2.09267e-07 0)
(2.68625 2.83201e-07 0)
(2.68625 3.61154e-07 0)
(2.68625 3.80832e-07 0)
(2.68625 3.29415e-07 0)
(2.68625 2.32349e-07 0)
(2.68625 1.53845e-07 0)
(2.68624 1.47265e-07 0)
(2.68624 1.85419e-07 0)
(2.68624 1.86371e-07 0)
(2.68624 1.25277e-07 0)
(2.68624 7.70642e-08 0)
(2.68624 1.25218e-07 0)
(2.68624 2.51063e-07 0)
(2.68624 3.50552e-07 0)
(2.68624 3.6302e-07 0)
(2.68624 3.31039e-07 0)
(2.68624 3.13191e-07 0)
(2.68624 3.19147e-07 0)
(2.68624 3.31985e-07 0)
(2.68624 3.29857e-07 0)
(2.68624 2.77078e-07 0)
(2.68624 1.61654e-07 0)
(2.68624 4.09052e-08 0)
(2.68624 -1.3847e-08 0)
(2.68624 -2.15171e-08 0)
(2.68624 -5.99924e-08 0)
(2.68624 -1.4824e-07 0)
(2.68624 -2.42717e-07 0)
(2.68624 -3.13532e-07 0)
(2.68624 -3.5627e-07 0)
(2.68624 -3.79716e-07 0)
(2.68624 -4.04676e-07 0)
(2.68624 -4.29866e-07 0)
(2.68624 -4.4983e-07 0)
(2.68624 -4.80403e-07 0)
(2.68624 -5.25979e-07 0)
(2.68624 -5.64735e-07 0)
(2.68624 -5.95435e-07 0)
(2.68624 -6.91855e-07 0)
(2.68624 -8.162e-07 0)
(2.68624 -8.57363e-07 0)
(2.68624 -9.02099e-07 0)
(2.68624 -1.04801e-06 0)
(2.68624 -9.1343e-07 0)
(3.45271 4.38673e-06 0)
(3.4527 5.61298e-06 0)
(3.4527 6.3488e-06 0)
(3.4527 6.11816e-06 0)
(3.4527 4.94883e-06 0)
(3.45269 3.76146e-06 0)
(3.45269 2.85878e-06 0)
(3.45269 2.0838e-06 0)
(3.45269 1.43296e-06 0)
(3.45268 1.2063e-06 0)
(3.45268 1.00705e-06 0)
(3.45268 8.22099e-07 0)
(3.45268 8.40478e-07 0)
(3.45268 1.01074e-06 0)
(3.45268 1.12577e-06 0)
(3.45268 1.08605e-06 0)
(3.45268 1.00683e-06 0)
(3.45268 9.97053e-07 0)
(3.45268 1.01218e-06 0)
(3.45268 1.01225e-06 0)
(3.45267 9.80186e-07 0)
(3.45267 8.66119e-07 0)
(3.45267 6.99467e-07 0)
(3.45267 5.87738e-07 0)
(3.45267 5.4649e-07 0)
(3.45267 5.06449e-07 0)
(3.45267 4.52367e-07 0)
(3.45267 4.16981e-07 0)
(3.45267 3.89575e-07 0)
(3.45267 3.30766e-07 0)
(3.45267 2.32278e-07 0)
(3.45267 1.03407e-07 0)
(3.45267 -5.34509e-08 0)
(3.45267 -2.09146e-07 0)
(3.45267 -3.03945e-07 0)
(3.45267 -3.14831e-07 0)
(3.45267 -2.78479e-07 0)
(3.45267 -2.22331e-07 0)
(3.45267 -1.34449e-07 0)
(3.45267 -2.00735e-08 0)
(3.45267 6.96748e-08 0)
(3.45267 9.12947e-08 0)
(3.45267 5.42124e-08 0)
(3.45267 3.03504e-09 0)
(3.45267 -1.66357e-08 0)
(3.45267 2.67583e-08 0)
(3.45267 1.35371e-07 0)
(3.45267 2.7018e-07 0)
(3.45267 3.75999e-07 0)
(3.45267 4.25133e-07 0)
(3.45267 4.27199e-07 0)
(3.45267 3.97208e-07 0)
(3.45267 3.32797e-07 0)
(3.45267 2.32209e-07 0)
(3.45267 1.26775e-07 0)
(3.45267 7.08994e-08 0)
(3.45267 9.29387e-08 0)
(3.45267 1.62187e-07 0)
(3.45267 2.22116e-07 0)
(3.45267 2.45258e-07 0)
(3.45267 2.46309e-07 0)
(3.45267 2.56466e-07 0)
(3.45267 2.87575e-07 0)
(3.45267 3.22695e-07 0)
(3.45267 3.283e-07 0)
(3.45267 2.89243e-07 0)
(3.45267 2.37609e-07 0)
(3.45267 2.26281e-07 0)
(3.45267 2.62857e-07 0)
(3.45267 2.8897e-07 0)
(3.45267 2.5255e-07 0)
(3.45267 1.7586e-07 0)
(3.45267 1.23739e-07 0)
(3.45267 1.22225e-07 0)
(3.45267 1.35359e-07 0)
(3.45267 1.19805e-07 0)
(3.45267 7.51175e-08 0)
(3.45267 3.03731e-08 0)
(3.45267 2.11046e-08 0)
(3.45267 6.33383e-08 0)
(3.45267 1.27761e-07 0)
(3.45267 1.52983e-07 0)
(3.45267 1.0773e-07 0)
(3.45267 3.72749e-08 0)
(3.45267 1.53291e-08 0)
(3.45267 5.24108e-08 0)
(3.45267 8.0389e-08 0)
(3.45267 4.3519e-08 0)
(3.45267 -3.82002e-08 0)
(3.45267 -1.01659e-07 0)
(3.45267 -1.17866e-07 0)
(3.45267 -1.16045e-07 0)
(3.45267 -1.35149e-07 0)
(3.45267 -1.82728e-07 0)
(3.45267 -2.3187e-07 0)
(3.45267 -2.35955e-07 0)
(3.45267 -1.59156e-07 0)
(3.45267 -2.61333e-08 0)
(3.45267 8.59279e-08 0)
(3.45267 1.26178e-07 0)
(3.45267 1.30811e-07 0)
(3.45267 1.73536e-07 0)
(3.45267 2.67829e-07 0)
(3.45267 3.47559e-07 0)
(3.45267 3.56457e-07 0)
(3.45267 3.2006e-07 0)
(3.45267 2.94347e-07 0)
(3.45267 2.92481e-07 0)
(3.45267 2.97392e-07 0)
(3.45267 2.8941e-07 0)
(3.45267 2.4617e-07 0)
(3.45267 1.65832e-07 0)
(3.45267 9.76775e-08 0)
(3.45267 9.9924e-08 0)
(3.45267 1.63622e-07 0)
(3.45267 2.16055e-07 0)
(3.45267 2.10207e-07 0)
(3.45267 1.86102e-07 0)
(3.45267 2.17734e-07 0)
(3.45267 3.06552e-07 0)
(3.45267 3.88943e-07 0)
(3.45267 4.25873e-07 0)
(3.45267 4.28994e-07 0)
(3.45267 4.12493e-07 0)
(3.45267 3.82053e-07 0)
(3.45267 3.52631e-07 0)
(3.45267 3.24133e-07 0)
(3.45267 2.60818e-07 0)
(3.45267 1.49174e-07 0)
(3.45267 4.21337e-08 0)
(3.45267 -1.05432e-08 0)
(3.45267 -3.57503e-08 0)
(3.45267 -8.46279e-08 0)
(3.45267 -1.72516e-07 0)
(3.45267 -2.85663e-07 0)
(3.45267 -3.8191e-07 0)
(3.45267 -4.14596e-07 0)
(3.45267 -3.92925e-07 0)
(3.45267 -3.62653e-07 0)
(3.45267 -3.59178e-07 0)
(3.45267 -3.94071e-07 0)
(3.45267 -4.59463e-07 0)
(3.45267 -5.51666e-07 0)
(3.45267 -6.3467e-07 0)
(3.45267 -7.23328e-07 0)
(3.45267 -8.50215e-07 0)
(3.45267 -8.57553e-07 0)
(3.45267 -9.34591e-07 0)
(3.45267 -1.07819e-06 0)
(3.45267 -1.05545e-06 0)
(4.04848 4.47944e-06 0)
(4.04848 6.94723e-06 0)
(4.04848 7.69413e-06 0)
(4.04848 8.10311e-06 0)
(4.04847 7.15141e-06 0)
(4.04847 5.97403e-06 0)
(4.04847 4.76732e-06 0)
(4.04847 3.88986e-06 0)
(4.04847 3.35422e-06 0)
(4.04847 2.95006e-06 0)
(4.04846 2.63612e-06 0)
(4.04846 2.39629e-06 0)
(4.04846 2.23744e-06 0)
(4.04846 2.20502e-06 0)
(4.04846 2.2322e-06 0)
(4.04846 2.21423e-06 0)
(4.04846 2.1519e-06 0)
(4.04846 2.09131e-06 0)
(4.04846 1.98588e-06 0)
(4.04846 1.80834e-06 0)
(4.04845 1.61992e-06 0)
(4.04845 1.44474e-06 0)
(4.04845 1.26207e-06 0)
(4.04845 1.09887e-06 0)
(4.04845 9.8875e-07 0)
(4.04845 8.99786e-07 0)
(4.04845 7.90043e-07 0)
(4.04845 6.68417e-07 0)
(4.04845 5.53123e-07 0)
(4.04845 4.31901e-07 0)
(4.04845 2.99137e-07 0)
(4.04845 1.71955e-07 0)
(4.04845 5.09762e-08 0)
(4.04845 -7.5779e-08 0)
(4.04845 -1.75747e-07 0)
(4.04845 -1.87263e-07 0)
(4.04845 -9.70967e-08 0)
(4.04845 4.08987e-08 0)
(4.04845 1.61407e-07 0)
(4.04845 2.30386e-07 0)
(4.04845 2.40801e-07 0)
(4.04845 2.03248e-07 0)
(4.04845 1.48038e-07 0)
(4.04845 1.09397e-07 0)
(4.04845 1.06086e-07 0)
(4.04845 1.49169e-07 0)
(4.04845 2.45995e-07 0)
(4.04845 3.78745e-07 0)
(4.04845 4.94704e-07 0)
(4.04845 5.37719e-07 0)
(4.04845 4.94369e-07 0)
(4.04845 3.98919e-07 0)
(4.04845 2.98946e-07 0)
(4.04845 2.13345e-07 0)
(4.04845 1.38171e-07 0)
(4.04845 7.60783e-08 0)
(4.04845 4.99647e-08 0)
(4.04845 7.78663e-08 0)
(4.04845 1.43206e-07 0)
(4.04845 2.08801e-07 0)
(4.04845 2.4737e-07 0)
(4.04845 2.57225e-07 0)
(4.04845 2.54667e-07 0)
(4.04845 2.61863e-07 0)
(4.04845 2.84327e-07 0)
(4.04845 3.02601e-07 0)
(4.04845 2.93219e-07 0)
(4.04845 2.63632e-07 0)
(4.04845 2.54676e-07 0)
(4.04845 2.89073e-07 0)
(4.04845 3.27694e-07 0)
(4.04845 3.21037e-07 0)
(4.04845 2.6957e-07 0)
(4.04845 2.11456e-07 0)
(4.04845 1.741e-07 0)
(4.04845 1.5668e-07 0)
(4.04845 1.45093e-07 0)
(4.04845 1.23929e-07 0)
(4.04845 9.02651e-08 0)
(4.04845 6.14494e-08 0)
(4.04845 5.93905e-08 0)
(4.04845 8.09153e-08 0)
(4.04845 8.65598e-08 0)
(4.04845 4.38014e-08 0)
(4.04845 -2.27897e-08 0)
(4.04845 -5.54852e-08 0)
(4.04845 -3.24665e-08 0)
(4.04845 7.50007e-09 0)
(4.04845 1.69245e-08 0)
(4.04845 -1.14873e-08 0)
(4.04845 -4.76894e-08 0)
(4.04845 -6.69951e-08 0)
(4.04845 -6.96909e-08 0)
(4.04845 -6.68368e-08 0)
(4.04845 -6.96903e-08 0)
(4.04845 -8.05342e-08 0)
(4.04845 -7.53084e-08 0)
(4.04845 -2.26676e-08 0)
(4.04845 7.53378e-08 0)
(4.04845 1.67549e-07 0)
(4.04845 2.05763e-07 0)
(4.04845 2.00747e-07 0)
(4.04845 2.08154e-07 0)
(4.04845 2.49734e-07 0)
(4.04845 2.84565e-07 0)
(4.04845 2.73876e-07 0)
(4.04845 2.27524e-07 0)
(4.04845 1.70224e-07 0)
(4.04845 1.18382e-07 0)
(4.04845 9.09829e-08 0)
(4.04845 9.20604e-08 0)
(4.04845 9.36035e-08 0)
(4.04845 7.31184e-08 0)
(4.04845 5.16065e-08 0)
(4.04845 7.24682e-08 0)
(4.04845 1.42832e-07 0)
(4.04845 2.13628e-07 0)
(4.04845 2.45406e-07 0)
(4.04845 2.61746e-07 0)
(4.04845 3.01359e-07 0)
(4.04845 3.61223e-07 0)
(4.04845 4.14991e-07 0)
(4.04845 4.4572e-07 0)
(4.04845 4.38188e-07 0)
(4.04845 3.82184e-07 0)
(4.04845 2.98328e-07 0)
(4.04845 2.28023e-07 0)
(4.04845 1.81842e-07 0)
(4.04845 1.33912e-07 0)
(4.04845 7.60379e-08 0)
(4.04845 2.63385e-08 0)
(4.04845 -1.77915e-08 0)
(4.04845 -7.06865e-08 0)
(4.04845 -1.25808e-07 0)
(4.04845 -1.88673e-07 0)
(4.04845 -2.60949e-07 0)
(4.04845 -2.91803e-07 0)
(4.04845 -2.55618e-07 0)
(4.04845 -2.13564e-07 0)
(4.04845 -2.31652e-07 0)
(4.04845 -2.96508e-07 0)
(4.04845 -3.60563e-07 0)
(4.04845 -4.50707e-07 0)
(4.04845 -5.62007e-07 0)
(4.04845 -6.27291e-07 0)
(4.04845 -7.11022e-07 0)
(4.04845 -7.21732e-07 0)
(4.04845 -7.78577e-07 0)
(4.04845 -8.7755e-07 0)
(4.04844 -9.28624e-07 0)
(4.47384 5.28025e-06 0)
(4.47384 6.27255e-06 0)
(4.47384 7.03493e-06 0)
(4.47384 7.63732e-06 0)
(4.47385 7.44242e-06 0)
(4.47385 6.8493e-06 0)
(4.47384 6.0546e-06 0)
(4.47384 5.45693e-06 0)
(4.47384 5.1712e-06 0)
(4.47384 4.59868e-06 0)
(4.47384 4.06438e-06 0)
(4.47384 3.89592e-06 0)
(4.47384 3.79924e-06 0)
(4.47384 3.65417e-06 0)
(4.47384 3.55731e-06 0)
(4.47384 3.47579e-06 0)
(4.47383 3.3063e-06 0)
(4.47383 3.08307e-06 0)
(4.47383 2.84181e-06 0)
(4.47383 2.56833e-06 0)
(4.47383 2.32494e-06 0)
(4.47383 2.162e-06 0)
(4.47383 1.99154e-06 0)
(4.47383 1.73226e-06 0)
(4.47383 1.45546e-06 0)
(4.47383 1.26405e-06 0)
(4.47383 1.14477e-06 0)
(4.47383 1.02767e-06 0)
(4.47383 8.95081e-07 0)
(4.47383 7.53537e-07 0)
(4.47383 5.92221e-07 0)
(4.47383 4.20265e-07 0)
(4.47383 2.73232e-07 0)
(4.47383 1.66986e-07 0)
(4.47383 1.01827e-07 0)
(4.47383 1.00086e-07 0)
(4.47383 1.86711e-07 0)
(4.47383 3.27132e-07 0)
(4.47383 4.44442e-07 0)
(4.47383 4.87019e-07 0)
(4.47382 4.47167e-07 0)
(4.47382 3.52504e-07 0)
(4.47382 2.55239e-07 0)
(4.47382 2.0518e-07 0)
(4.47382 2.20787e-07 0)
(4.47383 2.85445e-07 0)
(4.47383 3.71601e-07 0)
(4.47383 4.57002e-07 0)
(4.47383 5.18609e-07 0)
(4.47383 5.27981e-07 0)
(4.47383 4.69609e-07 0)
(4.47383 3.58521e-07 0)
(4.47383 2.38586e-07 0)
(4.47383 1.49276e-07 0)
(4.47383 9.87374e-08 0)
(4.47383 7.04342e-08 0)
(4.47383 5.35589e-08 0)
(4.47383 5.57921e-08 0)
(4.47383 8.13098e-08 0)
(4.47383 1.19895e-07 0)
(4.47383 1.53336e-07 0)
(4.47383 1.70928e-07 0)
(4.47383 1.74041e-07 0)
(4.47383 1.75871e-07 0)
(4.47383 1.93082e-07 0)
(4.47383 2.31112e-07 0)
(4.47383 2.71353e-07 0)
(4.47383 2.9077e-07 0)
(4.47383 2.92738e-07 0)
(4.47383 3.07765e-07 0)
(4.47383 3.46922e-07 0)
(4.47383 3.80451e-07 0)
(4.47383 3.71702e-07 0)
(4.47383 3.17609e-07 0)
(4.47383 2.47514e-07 0)
(4.47383 1.8938e-07 0)
(4.47383 1.50206e-07 0)
(4.47383 1.24162e-07 0)
(4.47383 9.82778e-08 0)
(4.47383 6.40821e-08 0)
(4.47383 2.89715e-08 0)
(4.47383 1.34918e-08 0)
(4.47383 2.28717e-08 0)
(4.47383 2.99703e-08 0)
(4.47383 9.58289e-09 0)
(4.47383 -2.43056e-08 0)
(4.47383 -3.41279e-08 0)
(4.47383 -6.79125e-09 0)
(4.47383 3.29059e-08 0)
(4.47383 5.10685e-08 0)
(4.47383 4.09568e-08 0)
(4.47383 2.3571e-08 0)
(4.47383 1.56717e-08 0)
(4.47383 2.10722e-08 0)
(4.47383 3.5127e-08 0)
(4.47383 4.81065e-08 0)
(4.47383 5.50788e-08 0)
(4.47383 6.82677e-08 0)
(4.47383 1.08737e-07 0)
(4.47383 1.79392e-07 0)
(4.47383 2.47003e-07 0)
(4.47383 2.67944e-07 0)
(4.47383 2.44028e-07 0)
(4.47383 2.17938e-07 0)
(4.47383 2.07876e-07 0)
(4.47383 1.92499e-07 0)
(4.47383 1.59097e-07 0)
(4.47383 1.17612e-07 0)
(4.47383 7.62145e-08 0)
(4.47383 4.46735e-08 0)
(4.47383 3.6919e-08 0)
(4.47383 5.27868e-08 0)
(4.47383 7.01705e-08 0)
(4.47383 6.83184e-08 0)
(4.47383 6.22341e-08 0)
(4.47383 9.25561e-08 0)
(4.47383 1.64606e-07 0)
(4.47383 2.37363e-07 0)
(4.47383 2.84137e-07 0)
(4.47383 3.13626e-07 0)
(4.47383 3.33157e-07 0)
(4.47383 3.42066e-07 0)
(4.47383 3.44655e-07 0)
(4.47383 3.38172e-07 0)
(4.47383 3.0926e-07 0)
(4.47383 2.54947e-07 0)
(4.47383 1.96307e-07 0)
(4.47383 1.51554e-07 0)
(4.47383 1.1052e-07 0)
(4.47383 6.04201e-08 0)
(4.47383 1.00987e-08 0)
(4.47383 -4.29313e-08 0)
(4.47383 -1.07187e-07 0)
(4.47383 -1.48934e-07 0)
(4.47383 -1.48827e-07 0)
(4.47383 -1.46867e-07 0)
(4.47383 -1.49521e-07 0)
(4.47383 -1.2411e-07 0)
(4.47382 -1.01988e-07 0)
(4.47382 -1.36101e-07 0)
(4.47382 -2.04704e-07 0)
(4.47382 -2.38693e-07 0)
(4.47382 -2.73391e-07 0)
(4.47382 -3.77169e-07 0)
(4.47382 -4.37779e-07 0)
(4.47382 -4.45755e-07 0)
(4.47382 -5.23941e-07 0)
(4.47382 -5.16208e-07 0)
(4.47382 -6.19082e-07 0)
(4.47382 -6.39945e-07 0)
(4.72899 4.09497e-06 0)
(4.72899 3.99335e-06 0)
(4.72899 4.63397e-06 0)
(4.72899 5.61966e-06 0)
(4.72899 6.59476e-06 0)
(4.729 6.67082e-06 0)
(4.729 6.43681e-06 0)
(4.729 6.18597e-06 0)
(4.729 5.95902e-06 0)
(4.72899 5.47088e-06 0)
(4.72899 5.03787e-06 0)
(4.72899 5.05939e-06 0)
(4.72899 5.19119e-06 0)
(4.72899 5.11073e-06 0)
(4.72899 4.88883e-06 0)
(4.72899 4.58905e-06 0)
(4.72899 4.16177e-06 0)
(4.72899 3.71561e-06 0)
(4.72899 3.38232e-06 0)
(4.72899 3.12852e-06 0)
(4.72899 2.91043e-06 0)
(4.72899 2.7382e-06 0)
(4.72899 2.55036e-06 0)
(4.72899 2.26879e-06 0)
(4.72899 1.94227e-06 0)
(4.72899 1.67631e-06 0)
(4.72899 1.48267e-06 0)
(4.72899 1.31084e-06 0)
(4.72899 1.1633e-06 0)
(4.72899 1.06718e-06 0)
(4.72899 9.92544e-07 0)
(4.72899 8.94382e-07 0)
(4.72899 7.78673e-07 0)
(4.72899 6.73809e-07 0)
(4.72898 5.88946e-07 0)
(4.72898 5.35851e-07 0)
(4.72898 5.36209e-07 0)
(4.72898 5.82086e-07 0)
(4.72898 6.29333e-07 0)
(4.72898 6.30096e-07 0)
(4.72898 5.63973e-07 0)
(4.72898 4.4808e-07 0)
(4.72898 3.30507e-07 0)
(4.72898 2.71747e-07 0)
(4.72898 2.94244e-07 0)
(4.72898 3.62484e-07 0)
(4.72898 4.23667e-07 0)
(4.72898 4.51229e-07 0)
(4.72898 4.48092e-07 0)
(4.72898 4.25564e-07 0)
(4.72898 3.84303e-07 0)
(4.72898 3.16185e-07 0)
(4.72898 2.27206e-07 0)
(4.72898 1.48361e-07 0)
(4.72898 1.10428e-07 0)
(4.72898 1.09876e-07 0)
(4.72898 1.1472e-07 0)
(4.72898 1.00772e-07 0)
(4.72898 7.52287e-08 0)
(4.72899 6.06168e-08 0)
(4.72899 7.01973e-08 0)
(4.72899 9.66676e-08 0)
(4.72899 1.2005e-07 0)
(4.72899 1.24146e-07 0)
(4.72899 1.15522e-07 0)
(4.72899 1.22826e-07 0)
(4.72899 1.66827e-07 0)
(4.72899 2.33056e-07 0)
(4.72899 2.80985e-07 0)
(4.72899 2.89645e-07 0)
(4.72899 2.82047e-07 0)
(4.72899 2.86058e-07 0)
(4.72899 2.93867e-07 0)
(4.72899 2.7456e-07 0)
(4.72899 2.15642e-07 0)
(4.72899 1.37447e-07 0)
(4.72899 7.1446e-08 0)
(4.72899 3.76892e-08 0)
(4.72898 3.35724e-08 0)
(4.72898 3.51323e-08 0)
(4.72898 1.77626e-08 0)
(4.72898 -1.57562e-08 0)
(4.72898 -3.38955e-08 0)
(4.72898 -1.53511e-08 0)
(4.72898 1.90562e-08 0)
(4.72898 3.39685e-08 0)
(4.72898 2.267e-08 0)
(4.72898 1.48489e-08 0)
(4.72898 3.90845e-08 0)
(4.72898 8.80773e-08 0)
(4.72898 1.26786e-07 0)
(4.72898 1.3566e-07 0)
(4.72898 1.23542e-07 0)
(4.72898 1.13299e-07 0)
(4.72898 1.21693e-07 0)
(4.72898 1.49135e-07 0)
(4.72898 1.77037e-07 0)
(4.72898 1.84297e-07 0)
(4.72898 1.66223e-07 0)
(4.72898 1.49963e-07 0)
(4.72898 1.63066e-07 0)
(4.72898 1.87221e-07 0)
(4.72898 1.8045e-07 0)
(4.72898 1.42428e-07 0)
(4.72898 1.11072e-07 0)
(4.72898 1.05289e-07 0)
(4.72898 1.12034e-07 0)
(4.72898 1.14316e-07 0)
(4.72898 1.01912e-07 0)
(4.72898 7.18059e-08 0)
(4.72898 3.98033e-08 0)
(4.72898 3.23049e-08 0)
(4.72898 5.77773e-08 0)
(4.72898 9.08276e-08 0)
(4.72898 9.96697e-08 0)
(4.72898 9.33879e-08 0)
(4.72898 1.06247e-07 0)
(4.72898 1.40345e-07 0)
(4.72898 1.71262e-07 0)
(4.72898 1.85781e-07 0)
(4.72898 1.79159e-07 0)
(4.72898 1.56966e-07 0)
(4.72898 1.4745e-07 0)
(4.72898 1.67616e-07 0)
(4.72898 1.91408e-07 0)
(4.72898 1.8414e-07 0)
(4.72898 1.46737e-07 0)
(4.72898 1.0623e-07 0)
(4.72898 6.98307e-08 0)
(4.72898 2.81981e-08 0)
(4.72898 -7.36218e-09 0)
(4.72898 -3.10661e-08 0)
(4.72898 -6.41537e-08 0)
(4.72898 -9.3116e-08 0)
(4.72898 -7.14646e-08 0)
(4.72898 -1.77547e-08 0)
(4.72898 1.02858e-08 0)
(4.72898 3.33796e-09 0)
(4.72898 -2.17702e-08 0)
(4.72898 -5.50859e-08 0)
(4.72898 -1.05248e-07 0)
(4.72898 -1.29851e-07 0)
(4.72898 -1.26329e-07 0)
(4.72898 -2.09919e-07 0)
(4.72898 -2.23285e-07 0)
(4.72898 -1.79246e-07 0)
(4.72898 -3.04909e-07 0)
(4.72898 -3.01044e-07 0)
(4.72898 -3.75316e-07 0)
(4.72898 -3.53498e-07 0)
(4.81403 2.03438e-06 0)
(4.81403 2.15241e-06 0)
(4.81403 2.80756e-06 0)
(4.81404 3.88116e-06 0)
(4.81404 4.97831e-06 0)
(4.81404 5.31715e-06 0)
(4.81404 5.64475e-06 0)
(4.81404 5.86032e-06 0)
(4.81404 5.80954e-06 0)
(4.81404 5.69385e-06 0)
(4.81404 5.69025e-06 0)
(4.81404 5.83637e-06 0)
(4.81404 5.93454e-06 0)
(4.81404 5.7521e-06 0)
(4.81404 5.33471e-06 0)
(4.81404 4.8607e-06 0)
(4.81404 4.37724e-06 0)
(4.81404 3.93495e-06 0)
(4.81404 3.63756e-06 0)
(4.81404 3.4692e-06 0)
(4.81404 3.30506e-06 0)
(4.81404 3.07809e-06 0)
(4.81404 2.8089e-06 0)
(4.81404 2.52413e-06 0)
(4.81404 2.22534e-06 0)
(4.81404 1.92328e-06 0)
(4.81404 1.65134e-06 0)
(4.81404 1.43708e-06 0)
(4.81404 1.29548e-06 0)
(4.81404 1.23623e-06 0)
(4.81404 1.23366e-06 0)
(4.81404 1.22848e-06 0)
(4.81404 1.18891e-06 0)
(4.81404 1.13038e-06 0)
(4.81403 1.07198e-06 0)
(4.81403 1.01246e-06 0)
(4.81403 9.41469e-07 0)
(4.81403 8.56071e-07 0)
(4.81403 7.61229e-07 0)
(4.81403 6.65061e-07 0)
(4.81403 5.78763e-07 0)
(4.81403 5.07075e-07 0)
(4.81403 4.50825e-07 0)
(4.81403 4.25853e-07 0)
(4.81403 4.48766e-07 0)
(4.81403 4.99814e-07 0)
(4.81403 5.27875e-07 0)
(4.81403 5.00083e-07 0)
(4.81403 4.26001e-07 0)
(4.81403 3.45486e-07 0)
(4.81403 2.95707e-07 0)
(4.81403 2.79557e-07 0)
(4.81403 2.63994e-07 0)
(4.81404 2.20911e-07 0)
(4.81404 1.61654e-07 0)
(4.81404 1.17376e-07 0)
(4.81404 9.90457e-08 0)
(4.81404 8.53169e-08 0)
(4.81404 5.81164e-08 0)
(4.81404 2.29117e-08 0)
(4.81404 1.83581e-09 0)
(4.81404 1.0484e-08 0)
(4.81404 4.48196e-08 0)
(4.81404 8.19136e-08 0)
(4.81404 9.60254e-08 0)
(4.81404 8.55681e-08 0)
(4.81404 8.7238e-08 0)
(4.81404 1.37274e-07 0)
(4.81404 2.22917e-07 0)
(4.81404 2.88719e-07 0)
(4.81404 2.9607e-07 0)
(4.81404 2.6207e-07 0)
(4.81404 2.29667e-07 0)
(4.81404 2.14933e-07 0)
(4.81404 1.96407e-07 0)
(4.81404 1.54076e-07 0)
(4.81404 9.39306e-08 0)
(4.81404 3.90123e-08 0)
(4.81404 1.28571e-08 0)
(4.81404 1.95438e-08 0)
(4.81404 3.42316e-08 0)
(4.81404 2.15642e-08 0)
(4.81404 -2.30835e-08 0)
(4.81404 -5.92114e-08 0)
(4.81404 -4.55679e-08 0)
(4.81403 1.31331e-08 0)
(4.81403 7.23737e-08 0)
(4.81403 1.0125e-07 0)
(4.81403 1.1504e-07 0)
(4.81403 1.46132e-07 0)
(4.81403 1.96807e-07 0)
(4.81403 2.41429e-07 0)
(4.81403 2.58238e-07 0)
(4.81403 2.50549e-07 0)
(4.81403 2.38802e-07 0)
(4.81403 2.43914e-07 0)
(4.81403 2.66813e-07 0)
(4.81403 2.8595e-07 0)
(4.81403 2.61236e-07 0)
(4.81403 1.77055e-07 0)
(4.81403 7.9105e-08 0)
(4.81403 2.79639e-08 0)
(4.81403 2.40416e-08 0)
(4.81403 2.49977e-08 0)
(4.81404 1.54305e-08 0)
(4.81404 1.16252e-08 0)
(4.81404 2.40456e-08 0)
(4.81404 4.49485e-08 0)
(4.81403 5.96213e-08 0)
(4.81403 5.70994e-08 0)
(4.81403 3.71607e-08 0)
(4.81403 1.55405e-08 0)
(4.81403 2.27143e-08 0)
(4.81403 7.10307e-08 0)
(4.81403 1.25229e-07 0)
(4.81403 1.40983e-07 0)
(4.81403 1.18333e-07 0)
(4.81403 8.06071e-08 0)
(4.81403 4.36883e-08 0)
(4.81403 2.42407e-08 0)
(4.81403 2.14778e-08 0)
(4.81403 1.41897e-08 0)
(4.81403 4.73347e-09 0)
(4.81403 2.25222e-08 0)
(4.81403 6.13041e-08 0)
(4.81403 7.34216e-08 0)
(4.81403 3.80953e-08 0)
(4.81403 -8.09461e-09 0)
(4.81403 -3.34027e-08 0)
(4.81403 -4.75941e-08 0)
(4.81403 -4.34324e-08 0)
(4.81403 4.62101e-09 0)
(4.81403 5.31222e-08 0)
(4.81403 3.52597e-08 0)
(4.81403 -1.05014e-08 0)
(4.81403 -2.225e-09 0)
(4.81403 4.0904e-08 0)
(4.81403 3.61372e-08 0)
(4.81403 -2.01481e-08 0)
(4.81403 -4.57624e-08 0)
(4.81403 -5.07168e-08 0)
(4.81403 -7.51363e-08 0)
(4.81403 -4.76034e-08 0)
(4.81403 -8.26703e-08 0)
(4.81403 -6.03277e-08 0)
(4.81403 -4.8873e-08 0)
(4.81403 -1.55717e-07 0)
(4.81403 -1.91153e-07 0)
(4.81403 -1.81617e-07 0)