/*--------------------------------*- C++ -*----------------------------------*\
| =========                 |                                                 |
| \\      /  F ield         | OpenFOAM: The Open Source CFD Toolbox           |
|  \\    /   O peration     | Version:  2406                                  |
|   \\  /    A nd           | Website:  www.openfoam.com                      |
|    \\/     M anipulation  |                                                 |
\*---------------------------------------------------------------------------*/
FoamFile
{
    version     2.0;
    format      ascii;
    arch        "LSB;label=32;scalar=64";
    class       volScalarField;
    location    "700";
    object      alphat;
}
// * * * * * * * * * * * * * * * * * * * * * * * * * * * * * * * * * * * * * //

dimensions      [0 2 -1 0 0 0 0];

internalField   nonuniform List<scalar> 
5619
(
5.72869e-05
5.85007e-05
5.97515e-05
6.10222e-05
6.22637e-05
6.34239e-05
6.44256e-05
6.51648e-05
6.55062e-05
6.5289e-05
6.43603e-05
6.26672e-05
6.04347e-05
5.83485e-05
5.73716e-05
5.78514e-05
5.907e-05
6.0437e-05
6.19357e-05
6.355e-05
6.51874e-05
6.67798e-05
6.82983e-05
6.97347e-05
7.109e-05
7.23685e-05
7.35754e-05
7.47134e-05
7.57817e-05
7.67741e-05
7.76784e-05
7.84766e-05
7.91451e-05
7.96557e-05
7.99763e-05
8.0073e-05
7.99112e-05
7.94574e-05
7.86815e-05
7.75584e-05
7.60878e-05
7.42669e-05
7.2117e-05
6.96888e-05
6.70747e-05
6.44209e-05
6.19316e-05
5.98455e-05
5.83653e-05
5.75514e-05
5.72649e-05
5.72456e-05
5.72672e-05
5.72137e-05
5.70512e-05
5.67803e-05
5.64804e-05
5.61208e-05
5.56989e-05
5.52167e-05
5.46779e-05
5.40871e-05
5.34491e-05
5.27987e-05
5.21355e-05
5.14666e-05
5.07977e-05
5.01338e-05
4.94788e-05
4.88361e-05
4.8208e-05
4.75965e-05
4.7003e-05
4.64285e-05
4.58736e-05
4.53386e-05
4.48233e-05
4.43277e-05
4.38513e-05
4.33936e-05
4.29538e-05
4.25313e-05
4.2125e-05
4.17342e-05
4.13578e-05
4.0995e-05
4.06446e-05
4.03059e-05
3.99778e-05
3.96594e-05
3.93498e-05
3.90483e-05
3.87538e-05
3.84658e-05
3.81834e-05
3.7906e-05
3.76328e-05
3.73634e-05
3.7097e-05
3.68332e-05
3.65716e-05
3.62854e-05
3.5974e-05
3.56373e-05
3.52759e-05
3.4891e-05
3.44847e-05
3.40597e-05
3.36194e-05
3.31679e-05
3.27098e-05
3.22501e-05
3.17938e-05
3.13458e-05
3.09106e-05
3.04924e-05
3.00944e-05
2.97192e-05
2.93686e-05
2.90435e-05
2.87443e-05
2.84706e-05
2.82217e-05
2.79965e-05
2.77935e-05
2.76112e-05
2.74481e-05
2.73025e-05
2.71731e-05
2.70459e-05
2.69203e-05
2.67957e-05
2.66714e-05
2.6547e-05
2.64218e-05
2.62954e-05
2.61673e-05
2.60372e-05
2.59047e-05
2.57694e-05
2.56311e-05
2.54895e-05
2.53445e-05
2.51959e-05
2.50438e-05
2.4888e-05
2.47288e-05
2.45663e-05
2.44008e-05
2.42327e-05
2.40626e-05
2.3891e-05
2.37187e-05
2.35467e-05
2.33759e-05
2.32075e-05
2.30427e-05
2.28827e-05
2.2729e-05
2.25829e-05
2.24459e-05
2.23191e-05
2.22037e-05
2.21008e-05
2.20111e-05
2.19351e-05
2.18731e-05
2.18248e-05
2.179e-05
2.1768e-05
2.17578e-05
2.17583e-05
2.17687e-05
2.17875e-05
2.18138e-05
2.18475e-05
2.18903e-05
2.19473e-05
2.20293e-05
2.21557e-05
2.23558e-05
2.26663e-05
2.31178e-05
2.37046e-05
2.43128e-05
2.45255e-05
2.30393e-05
0.000267317
0.000283591
0.000301708
0.000319954
0.000337931
0.00035489
0.000369869
0.000381531
0.000388057
0.000387002
0.000375229
0.000349159
0.000306019
0.000247093
0.000182442
0.000129994
0.000101595
9.36867e-05
9.69012e-05
0.000104583
0.000113372
0.000121866
0.000129579
0.000136396
0.000142347
0.000147529
0.000152085
0.000156185
0.000160014
0.000163762
0.000167607
0.000171709
0.000176199
0.000181174
0.000186688
0.000192736
0.000199245
0.00020605
0.00021286
0.000219157
0.000224816
0.000229448
0.000232116
0.000231582
0.000226358
0.000214915
0.000196128
0.000169995
0.000138426
0.000105498
7.63829e-05
5.49192e-05
4.16832e-05
3.46142e-05
3.11457e-05
2.9472e-05
2.87209e-05
2.84599e-05
2.84317e-05
2.85332e-05
2.87041e-05
2.88825e-05
2.90234e-05
2.91676e-05
2.93139e-05
2.94548e-05
2.95843e-05
2.9698e-05
2.97928e-05
2.98671e-05
2.99203e-05
2.99527e-05
2.99654e-05
2.99601e-05
2.9939e-05
2.99045e-05
2.98592e-05
2.98055e-05
2.97462e-05
2.96836e-05
2.96201e-05
2.95576e-05
2.9498e-05
2.9443e-05
2.93938e-05
2.93516e-05
2.93173e-05
2.92915e-05
2.92746e-05
2.9267e-05
2.92689e-05
2.92802e-05
2.93009e-05
2.93309e-05
2.937e-05
2.94181e-05
2.94748e-05
2.954e-05
2.96135e-05
2.96949e-05
2.97842e-05
2.98919e-05
3.00204e-05
3.01729e-05
3.03523e-05
3.05615e-05
3.08031e-05
3.1079e-05
3.13906e-05
3.17382e-05
3.21209e-05
3.25366e-05
3.29816e-05
3.34513e-05
3.39395e-05
3.44398e-05
3.4945e-05
3.54481e-05
3.59424e-05
3.64219e-05
3.68817e-05
3.73178e-05
3.77273e-05
3.81084e-05
3.84602e-05
3.87826e-05
3.90762e-05
3.93419e-05
3.95812e-05
3.98195e-05
4.00581e-05
4.0298e-05
4.05405e-05
4.07864e-05
4.1037e-05
4.12933e-05
4.15562e-05
4.18268e-05
4.21061e-05
4.23948e-05
4.2694e-05
4.30043e-05
4.33265e-05
4.36611e-05
4.40085e-05
4.43689e-05
4.47425e-05
4.51288e-05
4.55275e-05
4.59376e-05
4.63579e-05
4.67865e-05
4.72213e-05
4.76595e-05
4.80976e-05
4.85318e-05
4.89575e-05
4.93694e-05
4.97619e-05
5.01289e-05
5.04638e-05
5.076e-05
5.10106e-05
5.12089e-05
5.13479e-05
5.14212e-05
5.14217e-05
5.13425e-05
5.11755e-05
5.09107e-05
5.05354e-05
5.0032e-05
4.94139e-05
4.86788e-05
4.77825e-05
4.66682e-05
4.52643e-05
4.34881e-05
4.12609e-05
3.85418e-05
3.5384e-05
3.20048e-05
2.88364e-05
2.65326e-05
2.60331e-05
2.91792e-05
4.27104e-05
0.00072332
0.000771586
0.000824018
0.000876457
0.00092796
0.000976846
0.00102097
0.00105735
0.00108188
0.00108896
0.00107105
0.00101867
0.000921911
0.000776045
0.00059353
0.000414055
0.000284579
0.000216084
0.000187224
0.000177727
0.000177348
0.000181617
0.000188491
0.000196928
0.000206361
0.000216497
0.00022722
0.000238534
0.000250522
0.000263312
0.000277056
0.000291906
0.000308005
0.000325468
0.000344364
0.000364689
0.000386331
0.000409025
0.000432286
0.000455358
0.000478881
0.000502235
0.000524464
0.000544253
0.000559859
0.000569075
0.000569264
0.000557541
0.000531254
0.000488972
0.000432021
0.000365901
0.000299928
0.000243998
0.000204084
0.000180175
0.000168394
0.000164188
0.000164701
0.000167314
0.000170469
0.000173862
0.000177142
0.000180144
0.000182734
0.000184822
0.000186355
0.000187304
0.000187661
0.000187436
0.00018665
0.000185337
0.000183537
0.000181298
0.00017867
0.000175706
0.000172459
0.000168981
0.000165323
0.000161532
0.000157653
0.000153726
0.000149789
0.000145873
0.000142006
0.000138212
0.000134511
0.000130918
0.000127445
0.000124099
0.000120887
0.00011781
0.000114869
0.000112062
0.000109385
0.000106833
0.000104402
0.000102084
9.98742e-05
9.77634e-05
9.57451e-05
9.36206e-05
9.13994e-05
8.91035e-05
8.6758e-05
8.43929e-05
8.20415e-05
7.97393e-05
7.75214e-05
7.54211e-05
7.34671e-05
7.16819e-05
7.00809e-05
6.86712e-05
6.74525e-05
6.64178e-05
6.55547e-05
6.48474e-05
6.42777e-05
6.38269e-05
6.34766e-05
6.32096e-05
6.30103e-05
6.28651e-05
6.27626e-05
6.2693e-05
6.26487e-05
6.26227e-05
6.26104e-05
6.26078e-05
6.26139e-05
6.26286e-05
6.26515e-05
6.26826e-05
6.27221e-05
6.27699e-05
6.28265e-05
6.28921e-05
6.29672e-05
6.30523e-05
6.31479e-05
6.32545e-05
6.33728e-05
6.35031e-05
6.3646e-05
6.38016e-05
6.39701e-05
6.41514e-05
6.43449e-05
6.45499e-05
6.4765e-05
6.49882e-05
6.52168e-05
6.54474e-05
6.56756e-05
6.58958e-05
6.61017e-05
6.62856e-05
6.64386e-05
6.6551e-05
6.66121e-05
6.66101e-05
6.65331e-05
6.63685e-05
6.6104e-05
6.57274e-05
6.52272e-05
6.45928e-05
6.38147e-05
6.28851e-05
6.17982e-05
6.05591e-05
5.9231e-05
5.78142e-05
5.63198e-05
5.47756e-05
5.32351e-05
5.17906e-05
5.05889e-05
4.98493e-05
4.98832e-05
5.11199e-05
5.41719e-05
6.00492e-05
7.08366e-05
9.19077e-05
0.000143291
0.00142601
0.00151248
0.001606
0.00169958
0.00179178
0.00187999
0.00196084
0.00202958
0.00207964
0.00210197
0.00208431
0.00201094
0.00186448
0.00163307
0.00132761
0.00100259
0.000739833
0.000576295
0.000486618
0.000436665
0.000407295
0.000390145
0.000381662
0.000380099
0.000384312
0.00039338
0.000406533
0.000423166
0.000442841
0.000465273
0.000490295
0.000517822
0.000547799
0.000580162
0.000614785
0.000651433
0.000689705
0.000728992
0.000768439
0.000807862
0.000847819
0.000887508
0.000925799
0.000961196
0.000991804
0.00101535
0.00102928
0.00103101
0.00101839
0.000990237
0.000947067
0.000891512
0.000828331
0.000763676
0.000703593
0.000652496
0.000612876
0.000585611
0.000569668
0.00056226
0.000560328
0.000561455
0.000563971
0.000566843
0.000569448
0.000571418
0.000572541
0.000572695
0.00057182
0.000569898
0.000566939
0.000562978
0.000558062
0.000552251
0.000545614
0.000538223
0.000530153
0.000521481
0.000512282
0.00050263
0.000492597
0.000482252
0.000471662
0.000460887
0.000449987
0.000439018
0.000428031
0.000417071
0.000406183
0.000395403
0.000384763
0.000374293
0.000364013
0.000353941
0.000344091
0.000334469
0.000325079
0.000315923
0.000307001
0.000298292
0.000289772
0.000280647
0.000270901
0.00026059
0.000249791
0.00023861
0.000227179
0.000215653
0.000204204
0.000193007
0.000182235
0.000172038
0.000162541
0.000153829
0.000145954
0.000138925
0.000132723
0.000127304
0.000122607
0.000118562
0.000115097
0.000112138
0.000109619
0.000107477
0.000105657
0.000104111
0.000102797
0.000101679
0.000100725
9.98239e-05
9.89656e-05
9.81447e-05
9.73557e-05
9.65943e-05
9.58567e-05
9.51399e-05
9.44412e-05
9.37588e-05
9.30912e-05
9.24374e-05
9.1797e-05
9.11697e-05
9.05558e-05
8.99558e-05
8.93707e-05
8.88014e-05
8.82492e-05
8.77155e-05
8.72015e-05
8.67085e-05
8.62376e-05
8.57893e-05
8.5364e-05
8.49613e-05
8.45802e-05
8.4219e-05
8.38751e-05
8.35452e-05
8.32254e-05
8.29112e-05
8.25981e-05
8.22818e-05
8.19588e-05
8.16273e-05
8.12878e-05
8.0944e-05
8.06035e-05
8.02789e-05
7.99886e-05
7.97575e-05
7.96176e-05
7.9667e-05
8.00032e-05
8.06992e-05
8.18549e-05
8.36003e-05
8.61012e-05
8.95662e-05
9.42524e-05
0.000100474
0.000108621
0.000119227
0.000133139
0.000151977
0.000179251
0.000223395
0.000309453
0.00232579
0.00245318
0.0025913
0.00273016
0.00286773
0.00300029
0.00312296
0.00322876
0.00330791
0.00334684
0.00332721
0.00322559
0.00301612
0.0026812
0.00223685
0.00176272
0.0013747
0.00112391
0.000978114
0.000890957
0.000833761
0.000792705
0.000762085
0.000740061
0.000726283
0.000720649
0.000722816
0.000732138
0.000747791
0.000768911
0.000794681
0.000824354
0.000857242
0.00089267
0.000929937
0.00096828
0.00100685
0.00104475
0.00108099
0.00111568
0.00114914
0.00118071
0.0012096
0.00123488
0.0012555
0.00127029
0.00127802
0.0012775
0.00126774
0.00124817
0.00121884
0.00118068
0.00113564
0.0010869
0.00103858
0.000994883
0.000958624
0.000930384
0.000909263
0.000894284
0.000884717
0.000879652
0.000877913
0.000878324
0.000879924
0.000882007
0.000884082
0.000885812
0.000886965
0.000887386
0.000886971
0.000885655
0.000883408
0.000880221
0.000876105
0.000871087
0.000865203
0.000858498
0.000851025
0.000842836
0.000833987
0.000824533
0.000814528
0.000804025
0.000793075
0.000781726
0.000770027
0.000758022
0.000745753
0.000733264
0.000720592
0.000707775
0.000694848
0.000681842
0.000668785
0.000655702
0.000642615
0.000629541
0.000616504
0.00060348
0.000590403
0.000576154
0.00056059
0.00054371
0.000525542
0.000506169
0.000485726
0.000464411
0.000442479
0.000420239
0.000398033
0.000376221
0.000355146
0.000335115
0.000316377
0.000299107
0.000283404
0.000269298
0.000256758
0.000245707
0.000236039
0.000227628
0.000220343
0.000214053
0.000208636
0.000203977
0.000199976
0.000196535
0.00019357
0.000190753
0.000188051
0.000185446
0.000182925
0.000180473
0.00017808
0.000175736
0.000173434
0.000171166
0.000168928
0.000166718
0.000164531
0.000162369
0.000160232
0.000158121
0.00015604
0.000153992
0.000151984
0.000150021
0.000148112
0.000146263
0.000144485
0.000142786
0.000141177
0.000139668
0.00013827
0.000136993
0.000135849
0.000134849
0.000134006
0.00013333
0.000132836
0.000132537
0.000132449
0.000132589
0.000132976
0.000133634
0.000134586
0.00013586
0.000137489
0.000139507
0.000141954
0.000144983
0.000148784
0.000153394
0.000158903
0.000165423
0.000173085
0.000182046
0.000192508
0.000204741
0.000219149
0.00023638
0.000257531
0.00028452
0.000320754
0.000372205
0.000448375
0.0033629
0.00353359
0.00371931
0.00390706
0.00409393
0.0042748
0.00444276
0.00458776
0.00469565
0.00474682
0.00471501
0.00456762
0.00427106
0.00380839
0.00321491
0.00260491
0.00211377
0.00178811
0.00158891
0.00146436
0.00137965
0.00131543
0.00126206
0.0012157
0.00117562
0.00114252
0.00111727
0.00110028
0.00109133
0.00108967
0.00109416
0.00110352
0.00111645
0.00113173
0.00114826
0.0011651
0.00118147
0.00119678
0.00121057
0.00122282
0.00123423
0.00124476
0.00125431
0.00126272
0.00126972
0.00127495
0.00127793
0.0012781
0.00127487
0.00126764
0.00125587
0.00123916
0.00121736
0.00119079
0.00116051
0.00112846
0.00109718
0.00106921
0.00104633
0.00102908
0.00101709
0.00100958
0.00100579
0.00100502
0.00100657
0.0010098
0.00101416
0.0010192
0.00102455
0.00102991
0.00103504
0.00103975
0.00104391
0.00104738
0.00105008
0.00105195
0.00105294
0.00105305
0.00105226
0.00105059
0.00104806
0.00104471
0.00104056
0.00103566
0.00103004
0.00102375
0.00101683
0.00100931
0.00100124
0.000992637
0.000983544
0.000973989
0.000964002
0.000953609
0.000942839
0.000931713
0.000920255
0.000908487
0.000896441
0.00088409
0.000871326
0.000857149
0.000841311
0.000823707
0.000804262
0.000782953
0.00075982
0.000734985
0.00070866
0.000681152
0.000652854
0.000624227
0.000595763
0.000567953
0.000541241
0.000515999
0.000492504
0.00047093
0.000451357
0.000433782
0.00041814
0.000404319
0.000392179
0.000381566
0.000372322
0.000364294
0.000357343
0.000351317
0.000346076
0.00034109
0.000336287
0.000331639
0.000327121
0.000322711
0.000318391
0.000314146
0.000309962
0.000305828
0.000301737
0.000297683
0.000293662
0.000289674
0.000285721
0.000281806
0.000277936
0.00027412
0.000270368
0.000266696
0.000263116
0.000259649
0.000256311
0.000253124
0.00025011
0.000247291
0.000244691
0.000242332
0.00024024
0.000238436
0.000236946
0.000235791
0.000234995
0.000234578
0.000234562
0.000234969
0.000235817
0.000237128
0.000238921
0.000241217
0.000244039
0.00024741
0.000251361
0.000255931
0.00026137
0.000267685
0.0002749
0.000283082
0.000292324
0.000302759
0.000314573
0.000328032
0.000343515
0.000361562
0.000382928
0.000408608
0.000439731
0.000476896
0.000517956
0.00447099
0.00468679
0.00492223
0.00516123
0.00539964
0.00563051
0.00584419
0.00602667
0.00615824
0.00621191
0.00615272
0.00594002
0.00553823
0.00494337
0.00422171
0.00351348
0.00294799
0.00255693
0.00230049
0.00212925
0.00200705
0.00191089
0.00182713
0.00174862
0.00167269
0.00159944
0.00153033
0.00146712
0.00141114
0.00136295
0.00132241
0.00128882
0.00126119
0.00123847
0.00121969
0.00120406
0.00119098
0.00118006
0.00117103
0.00116374
0.00115783
0.00115335
0.00115012
0.00114796
0.00114671
0.00114611
0.00114586
0.00114557
0.00114483
0.00114318
0.00114011
0.00113507
0.00112752
0.00111696
0.00110311
0.00108602
0.00106625
0.00104488
0.00102334
0.00100315
0.000985551
0.000971339
0.00096078
0.000953761
0.000949945
0.00094891
0.000950227
0.000953496
0.000958363
0.000964517
0.000971682
0.000979611
0.000988075
0.000996867
0.00100579
0.00101468
0.00102337
0.00103171
0.00103961
0.00104694
0.00105365
0.00105967
0.00106495
0.00106949
0.00107327
0.00107629
0.00107855
0.00108006
0.00108085
0.00108092
0.00108029
0.00107897
0.00107698
0.00107433
0.00107102
0.00106707
0.00106249
0.00105727
0.00105144
0.00104496
0.00103773
0.00102924
0.00101916
0.00100727
0.000993308
0.000977073
0.000958394
0.000937184
0.00091347
0.000887416
0.000859342
0.000829718
0.000799135
0.000768257
0.000737757
0.000708249
0.000680244
0.000654115
0.000630097
0.000608293
0.000588707
0.000571261
0.00055583
0.000542256
0.000530365
0.000519986
0.000510957
0.000503097
0.000496215
0.000489673
0.000483363
0.000477248
0.000471294
0.000465477
0.000459772
0.000454161
0.000448627
0.000443158
0.000437744
0.000432377
0.000427055
0.000421776
0.000416543
0.000411362
0.000406242
0.000401195
0.000396236
0.000391384
0.00038666
0.000382086
0.000377688
0.000373492
0.000369527
0.000365821
0.000362403
0.000359299
0.000356537
0.000354142
0.000352137
0.000350542
0.000349376
0.000348656
0.000348394
0.000348603
0.000349293
0.000350472
0.00035215
0.000354333
0.000357032
0.000360258
0.000364026
0.000368356
0.000373274
0.000378974
0.000385413
0.000392626
0.000400675
0.000409643
0.000419635
0.000430783
0.000443237
0.00045715
0.000472631
0.000489646
0.000507806
0.000525994
0.00054195
0.0055782
0.00583913
0.00612409
0.00641394
0.0067028
0.0069815
0.00723706
0.00745083
0.00759701
0.00764137
0.00754212
0.00725602
0.00675568
0.00606072
0.00526459
0.00450892
0.00389792
0.00344999
0.003132
0.00290325
0.00273098
0.00259151
0.0024685
0.00235158
0.00223509
0.00211704
0.00199806
0.00188035
0.00176674
0.00165994
0.00156204
0.00147429
0.00139712
0.00133033
0.0012733
0.00122517
0.00118502
0.00115192
0.00112503
0.00110357
0.00108674
0.00107334
0.00106239
0.00105334
0.00104586
0.00103968
0.00103453
0.00103013
0.00102619
0.00102238
0.00101834
0.00101371
0.00100804
0.00100092
0.000991928
0.000980728
0.000967143
0.000951217
0.000933268
0.000913881
0.000893846
0.000874045
0.000855309
0.000838308
0.000823484
0.000811053
0.000801047
0.000793379
0.000787902
0.00078445
0.000782865
0.000783003
0.000784733
0.000787938
0.000792505
0.00079832
0.000805266
0.00081322
0.000822052
0.000831625
0.000841802
0.000852441
0.000863407
0.00087457
0.000885811
0.000897021
0.000908105
0.000918979
0.000929572
0.000939824
0.000949684
0.000959106
0.000968052
0.000976488
0.000984381
0.000991701
0.000998417
0.0010045
0.00100994
0.00101467
0.00101863
0.00102227
0.00102528
0.00102732
0.00102798
0.00102676
0.00102315
0.00101661
0.00100667
0.000992998
0.000975449
0.00095416
0.000929566
0.000902378
0.000873507
0.000843948
0.000814653
0.000786425
0.000759863
0.000735351
0.000713076
0.000693079
0.000675292
0.000659585
0.000645786
0.000633713
0.000623192
0.000614015
0.000605954
0.000598305
0.000590933
0.000583789
0.000576836
0.000570043
0.000563386
0.000556844
0.000550398
0.000544036
0.000537747
0.000531524
0.000525363
0.000519267
0.000513238
0.000507284
0.000501417
0.000495652
0.000490006
0.000484502
0.000479164
0.000474018
0.000469092
0.000464415
0.000460018
0.00045593
0.000452177
0.000448787
0.000445782
0.000443181
0.000440999
0.000439248
0.000437934
0.00043706
0.000436626
0.000436627
0.000437059
0.000437914
0.000439186
0.000440867
0.000442952
0.000445437
0.000448321
0.000451607
0.000455299
0.000459407
0.000464035
0.000469144
0.000474743
0.000480843
0.000487451
0.000494563
0.000502156
0.000510164
0.000518457
0.000526804
0.000534846
0.000542094
0.000548049
0.00660891
0.00691192
0.00724256
0.00757883
0.00791275
0.00823274
0.00852238
0.00875856
0.00891029
0.00893857
0.00879983
0.0084564
0.00789753
0.00716567
0.00636317
0.00561077
0.00498372
0.00449385
0.00411909
0.0038308
0.00360347
0.00341628
0.00325298
0.00310156
0.00295383
0.00280497
0.00265296
0.00249797
0.00234176
0.00218707
0.00203707
0.00189485
0.00176305
0.00164357
0.00153748
0.00144505
0.00136589
0.00129914
0.00124367
0.00119818
0.00116135
0.00113206
0.00110903
0.00108955
0.00107276
0.00105812
0.00104534
0.00103418
0.00102442
0.00101582
0.00100812
0.001001
0.00099408
0.00098697
0.000979238
0.000970458
0.000960238
0.00094826
0.000934319
0.000918352
0.000900461
0.000880909
0.000860092
0.000838494
0.000816622
0.000794948
0.00077387
0.000753684
0.000734592
0.000716714
0.000700117
0.000684836
0.000670895
0.000658318
0.000647136
0.000637385
0.000629107
0.000622343
0.000617128
0.000613485
0.000611424
0.000610933
0.000611979
0.000614511
0.000618455
0.000623721
0.000630208
0.000637806
0.0006464
0.000655877
0.000666129
0.000677053
0.000688555
0.000700547
0.000712951
0.000725697
0.000738718
0.000751956
0.000765362
0.000778851
0.000792435
0.000807482
0.000824004
0.000841901
0.000860917
0.000880623
0.000900376
0.000919303
0.000936306
0.000950136
0.000959516
0.000963331
0.00096085
0.000951908
0.000936991
0.000917171
0.000893903
0.000868756
0.000843159
0.000818238
0.000794763
0.00077318
0.00075368
0.000736283
0.000720897
0.000707376
0.000695554
0.000685221
0.000676121
0.000667498
0.000659197
0.000651156
0.000643332
0.000635693
0.000628213
0.000620869
0.000613644
0.000606524
0.000599498
0.000592562
0.000585712
0.000578952
0.000572287
0.000565727
0.000559286
0.000552981
0.000546834
0.000540868
0.00053511
0.000529589
0.000524334
0.000519375
0.000514742
0.000510462
0.000506561
0.000503058
0.00049997
0.000497308
0.000495078
0.000493276
0.000491898
0.00049093
0.000490355
0.000490155
0.000490307
0.000490788
0.000491577
0.000492653
0.000493997
0.000495594
0.00049743
0.000499494
0.000501779
0.000504279
0.00050699
0.000509942
0.000513105
0.000516464
0.000519996
0.000523674
0.000527461
0.000531304
0.000535143
0.000538903
0.000542518
0.000545948
0.000549234
0.00748632
0.00782466
0.00819304
0.00856707
0.00893672
0.00928831
0.0096026
0.00985343
0.0100072
0.0100244
0.00986581
0.00950533
0.0089492
0.00825127
0.00750409
0.00679926
0.00618902
0.0056836
0.00527185
0.00493703
0.00466249
0.00443299
0.00423523
0.00405804
0.00389251
0.00373202
0.00357201
0.00340969
0.00324379
0.00307417
0.00290167
0.00272781
0.00255468
0.00238471
0.00222055
0.0020648
0.00191981
0.00178748
0.00166911
0.00156531
0.00147601
0.00140054
0.00133816
0.00128916
0.00124797
0.0012124
0.00118141
0.00115453
0.00113142
0.00111184
0.00109557
0.00108231
0.00107169
0.00106326
0.00105649
0.00105081
0.00104562
0.00104034
0.0010344
0.00102734
0.00101877
0.0010084
0.00099608
0.000981753
0.000965479
0.000947397
0.000927705
0.000906632
0.000884414
0.000861276
0.000837427
0.000813057
0.000788341
0.000763448
0.000738546
0.000713809
0.000689418
0.000665561
0.000642432
0.000620221
0.000599115
0.000579286
0.00056089
0.000544056
0.000528889
0.00051546
0.000503812
0.000493956
0.00048588
0.000479543
0.000474891
0.000471855
0.00047036
0.000470328
0.000471685
0.000474359
0.000478289
0.000483423
0.000489725
0.000497143
0.000505682
0.000516421
0.000529777
0.000546216
0.000566194
0.000590119
0.000618265
0.000650658
0.000686932
0.000726173
0.000766793
0.00080652
0.000842576
0.000872097
0.000892731
0.000903226
0.000903735
0.000895696
0.000881343
0.000863097
0.000843077
0.000822866
0.000803489
0.000785518
0.000769209
0.000754622
0.000741708
0.000730321
0.000720228
0.000710648
0.000701412
0.000692449
0.000683715
0.000675178
0.000666813
0.0006586
0.000650521
0.000642566
0.000634725
0.000626995
0.000619376
0.000611872
0.000604493
0.000597252
0.000590164
0.000583252
0.000576538
0.000570051
0.000563817
0.000557869
0.000552236
0.000546949
0.000542036
0.000537523
0.000533429
0.000529772
0.00052656
0.000523796
0.000521474
0.000519583
0.000518104
0.000517012
0.000516276
0.000515866
0.000515748
0.000515887
0.000516253
0.000516817
0.000517554
0.000518443
0.000519467
0.000520613
0.00052187
0.000523232
0.000524693
0.000526249
0.000527906
0.000529654
0.000531485
0.000533394
0.000535378
0.000537435
0.000539568
0.000541792
0.000544135
0.000546649
0.000549414
0.0081377
0.00850135
0.00889598
0.00929594
0.00968957
0.010062
0.0103925
0.0106543
0.0108144
0.010837
0.0106911
0.0103626
0.00986816
0.00926034
0.00861294
0.00799147
0.00743267
0.00694677
0.00653057
0.00617642
0.00587554
0.00561887
0.00539752
0.00520308
0.00502791
0.00486543
0.00471012
0.00455756
0.00440436
0.00424801
0.00408679
0.00391964
0.0037461
0.00356615
0.00338022
0.00318919
0.00299444
0.00279793
0.00260229
0.00241081
0.00222729
0.00205565
0.00189953
0.00176145
0.00164681
0.00155494
0.00147445
0.00140421
0.00134313
0.00129072
0.00124653
0.00121013
0.00118104
0.00115866
0.00114233
0.00113124
0.00112454
0.00112137
0.00112084
0.0011221
0.00112439
0.001127
0.00112932
0.00113085
0.00113116
0.0011299
0.00112681
0.00112167
0.00111434
0.00110471
0.00109269
0.00107825
0.00106138
0.0010421
0.00102047
0.00099657
0.00097054
0.00094255
0.000912811
0.000881579
0.000849141
0.000815818
0.00078195
0.000747893
0.000714004
0.000680635
0.000648118
0.000616756
0.000586814
0.000558515
0.000532028
0.000507476
0.000484931
0.000464422
0.00044594
0.00042945
0.000414892
0.000402199
0.000391302
0.000382114
0.000374538
0.000368064
0.000363102
0.000360252
0.000360226
0.000363856
0.000372082
0.000385939
0.0004065
0.000434776
0.000471512
0.000516867
0.000569964
0.000628437
0.000688241
0.000744087
0.000790655
0.000824175
0.000843512
0.000850129
0.00084707
0.000837721
0.000824948
0.000810794
0.000796541
0.000782917
0.000770299
0.00075881
0.000748389
0.000738366
0.000728594
0.000719014
0.000709595
0.000700317
0.000691168
0.000682137
0.000673216
0.000664403
0.000655696
0.000647098
0.000638616
0.000630262
0.000622051
0.000614002
0.000606138
0.000598486
0.000591074
0.000583935
0.000577101
0.000570607
0.000564483
0.000558763
0.000553473
0.000548637
0.000544272
0.00054039
0.000536993
0.000534076
0.000531627
0.000529623
0.000528037
0.000526833
0.000525975
0.000525421
0.000525131
0.000525065
0.000525187
0.000525465
0.000525873
0.000526389
0.000526997
0.000527685
0.000528447
0.000529279
0.000530179
0.000531149
0.000532192
0.000533315
0.000534524
0.000535828
0.00053724
0.000538776
0.000540459
0.00054232
0.000544399
0.000546748
0.000549434
0.00850337
0.00888014
0.00928741
0.00969976
0.0101048
0.0104875
0.0108278
0.0111002
0.0112752
0.0113229
0.0112209
0.0109634
0.0105699
0.0100846
0.00956226
0.00904914
0.00857193
0.00814065
0.00775659
0.00741771
0.0071206
0.00686108
0.00663439
0.00643543
0.00625896
0.00609984
0.00595321
0.00581464
0.00568019
0.00554648
0.00541062
0.00527028
0.00512355
0.00496896
0.00480536
0.00463184
0.00444764
0.00425211
0.00404462
0.00382472
0.0035924
0.00334869
0.00309629
0.00284032
0.00258821
0.00234905
0.00214171
0.001969
0.00181507
0.00167914
0.00156058
0.00145898
0.00137367
0.0013037
0.00124792
0.00120502
0.00117357
0.00115209
0.0011391
0.00113319
0.00113306
0.00113755
0.00114564
0.00115644
0.00116922
0.00118334
0.00119825
0.00121344
0.00122848
0.00124291
0.00125631
0.00126827
0.00127837
0.00128621
0.00129139
0.00129354
0.0012923
0.00128737
0.00127848
0.00126545
0.00124815
0.00122655
0.0012007
0.00117076
0.00113698
0.0010997
0.00105936
0.00101646
0.00097156
0.000925275
0.000878221
0.00083101
0.000784222
0.000738387
0.000693963
0.000651327
0.00061077
0.000572502
0.000536662
0.000503283
0.000472233
0.000440935
0.000409789
0.000379556
0.00035112
0.000325447
0.00030354
0.000286408
0.000275061
0.00027054
0.000273987
0.000286712
0.000310195
0.000345899
0.000394731
0.000456067
0.000526563
0.000599641
0.000666776
0.000720554
0.00075751
0.000778604
0.000787463
0.000788193
0.000784121
0.000777501
0.000769732
0.000761616
0.000753574
0.000745416
0.000737104
0.000728635
0.000720027
0.000711302
0.000702483
0.00069359
0.000684644
0.000675664
0.000666672
0.000657691
0.000648746
0.000639867
0.000631086
0.000622437
0.000613959
0.000605691
0.000597675
0.000589956
0.000582575
0.000575575
0.000568994
0.000562868
0.000557227
0.000552095
0.000547487
0.000543412
0.000539867
0.00053684
0.000534312
0.000532253
0.000530628
0.000529395
0.000528509
0.000527923
0.000527591
0.000527471
0.000527525
0.000527718
0.000528025
0.000528425
0.000528901
0.000529446
0.000530054
0.000530723
0.000531456
0.000532256
0.00053313
0.000534087
0.000535138
0.000536296
0.000537578
0.000539004
0.0005406
0.000542396
0.000544433
0.000546759
0.000549436
0.00854716
0.00892408
0.00932969
0.00974052
0.0101443
0.0105273
0.0108712
0.0111535
0.0113495
0.0114355
0.0113957
0.0112285
0.0109514
0.0105982
0.0102087
0.00981572
0.00943931
0.00908873
0.00876727
0.00847563
0.00821335
0.00797916
0.00777116
0.00758686
0.00742332
0.00727729
0.00714534
0.007024
0.00690991
0.0067999
0.00669107
0.0065808
0.0064668
0.00634707
0.00621989
0.00608373
0.00593719
0.00577896
0.00560771
0.00542206
0.0052205
0.00500132
0.00476247
0.0045016
0.00421649
0.00390671
0.00357511
0.0032304
0.002905
0.00261468
0.00234878
0.00210852
0.00189588
0.00171199
0.00155662
0.00142841
0.00132521
0.0012444
0.00118314
0.00113859
0.00110806
0.00108913
0.00107969
0.00107798
0.00108257
0.00109236
0.0011065
0.00112434
0.0011454
0.00116926
0.00119561
0.00122411
0.00125446
0.0012863
0.00131925
0.00135287
0.00138662
0.00141992
0.00145208
0.00148231
0.00150979
0.00153359
0.00155281
0.00156652
0.00157388
0.00157414
0.00156674
0.00155129
0.00152767
0.001496
0.00145668
0.00141034
0.00135781
0.00130011
0.00123833
0.00117363
0.00110714
0.00103995
0.000973023
0.00090715
0.000842531
0.000774469
0.000703533
0.000631135
0.000559088
0.000489449
0.000424311
0.000365574
0.000314738
0.00027279
0.000240228
0.000217226
0.000203903
0.000200628
0.000208301
0.000228493
0.000263225
0.000314015
0.000379897
0.000455239
0.000529877
0.000593324
0.000639998
0.000670444
0.000688553
0.000698478
0.000703288
0.000704922
0.000704625
0.000703229
0.00070089
0.000697703
0.000693754
0.000689124
0.000683885
0.000678103
0.000671839
0.00066515
0.000658093
0.000650722
0.000643097
0.000635277
0.000627326
0.000619309
0.000611295
0.000603354
0.000595555
0.000587968
0.000580661
0.000573696
0.000567132
0.000561019
0.000555397
0.0005503
0.000545747
0.000541749
0.000538301
0.000535391
0.000532994
0.000531076
0.000529595
0.000528505
0.000527757
0.000527299
0.000527083
0.000527066
0.000527207
0.000527475
0.000527842
0.000528289
0.000528804
0.000529377
0.000530007
0.000530691
0.000531435
0.000532243
0.000533123
0.000534083
0.000535136
0.000536295
0.000537577
0.000539004
0.000540599
0.000542396
0.000544433
0.000546759
0.000549436
0.0082639
0.00862844
0.0090187
0.00941462
0.00980489
0.0101777
0.0105174
0.0108054
0.0110215
0.0111477
0.0111722
0.011095
0.0109297
0.010701
0.0104374
0.0101626
0.00989216
0.00963423
0.00939262
0.00916914
0.00896453
0.00877889
0.00861179
0.00846227
0.00832896
0.00821008
0.00810354
0.00800705
0.00791819
0.00783453
0.00775366
0.00767332
0.00759139
0.0075059
0.0074151
0.00731735
0.00721114
0.00709502
0.00696754
0.00682724
0.00667249
0.00650154
0.00631238
0.00610288
0.00587075
0.00561356
0.00532828
0.00501166
0.00466037
0.00427134
0.00387218
0.00348324
0.00310529
0.00274649
0.0024159
0.00212096
0.0018659
0.00165174
0.00147678
0.00133747
0.00122922
0.00114713
0.00108649
0.0010431
0.00101343
0.000994629
0.000984527
0.000981508
0.000984426
0.000992494
0.00100521
0.00102227
0.00104354
0.001069
0.00109871
0.00113278
0.00117132
0.00121446
0.00126227
0.00131475
0.00137175