/*--------------------------------*- C++ -*----------------------------------*\
| =========                 |                                                 |
| \\      /  F ield         | OpenFOAM: The Open Source CFD Toolbox           |
|  \\    /   O peration     | Version:  2406                                  |
|   \\  /    A nd           | Website:  www.openfoam.com                      |
|    \\/     M anipulation  |                                                 |
\*---------------------------------------------------------------------------*/
FoamFile
{
    version     2.0;
    format      ascii;
    arch        "LSB;label=32;scalar=64";
    class       volScalarField;
    location    "700";
    object      epsilon;
}
// * * * * * * * * * * * * * * * * * * * * * * * * * * * * * * * * * * * * * //

dimensions      [0 2 -3 0 0 0 0];

internalField   nonuniform List<scalar> 
5619
(
4.08684
4.35701
4.65165
4.97072
5.30653
5.65008
5.98524
6.28741
6.52111
6.64011
6.59337
6.3439
5.90476
5.37671
4.93418
4.71822
4.73452
4.90767
5.1835
5.53508
5.94016
6.37775
6.83124
7.28932
7.74505
8.19449
8.63541
9.06608
9.48417
9.88587
10.2652
10.6137
10.92
11.1707
11.3504
11.4427
11.4319
11.304
11.0483
10.6594
10.143
9.50978
8.77943
7.98121
7.15394
6.3445
5.60415
4.98157
4.51232
4.20737
4.04654
3.98455
3.96959
3.96223
3.94156
3.9004
3.84501
3.77939
3.70291
3.61595
3.51946
3.41469
3.30298
3.1887
3.074
2.96037
2.84899
2.74075
2.63631
2.5361
2.4404
2.34935
2.26301
2.18132
2.10417
2.03143
1.96291
1.8984
1.83769
1.78054
1.72674
1.67605
1.62825
1.58312
1.54046
1.50007
1.46176
1.42535
1.39067
1.35758
1.32593
1.29558
1.26642
1.23833
1.2112
1.18495
1.15949
1.13473
1.11062
1.08708
1.06407
1.03927
1.01274
0.984557
0.954898
0.923976
0.89206
0.859468
0.826549
0.793677
0.761225
0.729555
0.698996
0.669833
0.642292
0.616539
0.59268
0.570757
0.550764
0.532651
0.516333
0.501705
0.488643
0.477019
0.466704
0.45757
0.449497
0.442372
0.436101
0.429999
0.424031
0.418162
0.412364
0.406611
0.400879
0.395148
0.389398
0.383613
0.377781
0.371889
0.365929
0.359896
0.353785
0.347597
0.341334
0.335003
0.328612
0.322174
0.315706
0.309226
0.302757
0.296327
0.289964
0.283702
0.277574
0.271618
0.265872
0.260375
0.255165
0.250279
0.245751
0.241612
0.237887
0.234597
0.231754
0.229364
0.227425
0.225925
0.224848
0.224168
0.223854
0.223871
0.22419
0.224772
0.225589
0.226636
0.227971
0.229756
0.232341
0.236363
0.242826
0.253082
0.268509
0.289481
0.312341
0.32061
0.265784
1.21793
1.30091
1.39196
1.49003
1.59245
1.6949
1.79037
1.86845
1.91473
1.91146
1.84099
1.69394
1.48206
1.24755
1.05363
0.953558
0.966082
1.07614
1.25074
1.45798
1.6758
1.89123
2.09688
2.28838
2.46316
2.61997
2.7586
2.87956
2.9837
3.07185
3.14444
3.20125
3.24132
3.26288
3.26361
3.24088
3.19229
3.11623
3.01248
2.88606
2.73483
2.5603
2.36345
2.14571
1.90948
1.65886
1.40064
1.14565
0.909043
0.707876
0.555005
0.452482
0.390873
0.355785
0.335059
0.321438
0.307306
0.292101
0.276824
0.261944
0.247995
0.235549
0.224732
0.214474
0.204792
0.195704
0.187213
0.17931
0.171974
0.165181
0.158902
0.153106
0.147761
0.142836
0.138299
0.13412
0.13027
0.126723
0.123452
0.120434
0.117645
0.115066
0.112677
0.110461
0.1084
0.106482
0.104691
0.103015
0.101444
0.099967
0.0985749
0.0972595
0.0960134
0.0948298
0.093703
0.0926276
0.0915989
0.090613
0.0896665
0.0887548
0.0878764
0.0869413
0.0859526
0.0849183
0.0838481
0.082754
0.0816502
0.0805524
0.0794766
0.0784391
0.0774549
0.0765369
0.0756957
0.0749384
0.0742688
0.0736875
0.0731919
0.0727771
0.0724363
0.0721616
0.0719446
0.0717769
0.0716508
0.0715589
0.0714949
0.0714534
0.0714297
0.071419
0.0714181
0.0714255
0.0714401
0.0714621
0.0714913
0.071528
0.0715726
0.0716253
0.071687
0.0717582
0.0718397
0.0719326
0.0720378
0.0721565
0.0722898
0.0724391
0.0726057
0.0727908
0.072996
0.0732224
0.0734713
0.0737438
0.0740407
0.0743627
0.0747099
0.0750822
0.0754787
0.0758982
0.0763387
0.0767973
0.0772708
0.0777548
0.0782448
0.0787352
0.0792202
0.0796935
0.0801483
0.080577
0.0809712
0.0813206
0.0816121
0.0818281
0.0819442
0.0819347
0.0818355
0.0815937
0.0811291
0.080329
0.0790459
0.0771027
0.07432
0.0705791
0.0659252
0.0606806
0.0554702
0.0510175
0.0475961
0.0440459
0.0357099
0.628741
0.683073
0.742155
0.805139
0.870186
0.934248
0.992511
1.03795
1.06109
1.05064
0.995894
0.891973
0.747329
0.588454
0.453031
0.370089
0.34424
0.361612
0.406163
0.466598
0.535757
0.608917
0.682643
0.754295
0.821902
0.884133
0.94022
0.989797
1.03272
1.06889
1.09813
1.12016
1.13456
1.14088
1.13875
1.12798
1.10874
1.0816
1.04762
1.00783
0.960223
0.904906
0.842033
0.771882
0.694973
0.612231
0.525223
0.436403
0.349228
0.268008
0.197326
0.140978
0.100594
0.074756
0.0597187
0.0513281
0.0464572
0.0433107
0.040906
0.0390052
0.037439
0.0360541
0.0347968
0.0336315
0.0325444
0.0315269
0.0305725
0.0296757
0.028832
0.0280371
0.0272875
0.0265801
0.025912
0.0252807
0.0246839
0.0241197
0.0235863
0.023082
0.0226055
0.0221554
0.0217307
0.0213301
0.0209529
0.020598
0.0202646
0.019952
0.0196593
0.0193857
0.0191304
0.0188927
0.0186716
0.0184663
0.0182761
0.0181001
0.0179374
0.0177873
0.017649
0.0175219
0.0174055
0.0172983
0.0172004
0.0171028
0.0170064
0.0169143
0.0168291
0.0167543
0.0166933
0.0166497
0.0166268
0.0166276
0.0166546
0.0167093
0.0167922
0.016903
0.0170399
0.0172005
0.0173813
0.0175783
0.0177872
0.0180034
0.0182228
0.0184413
0.0186554
0.0188624
0.0190598
0.019246
0.0194202
0.0195811
0.0197289
0.0198788
0.020031
0.0201865
0.020346
0.0205102
0.0206801
0.0208564
0.02104
0.0212318
0.0214329
0.0216442
0.0218667
0.0221014
0.0223493
0.0226115
0.0228888
0.0231822
0.0234924
0.0238201
0.0241656
0.024529
0.0249102
0.0253083
0.0257221
0.0261498
0.0265885
0.0270347
0.0274837
0.0279298
0.0283662
0.028785
0.029177
0.0295322
0.0298399
0.0300886
0.0302666
0.0303622
0.0303639
0.030261
0.0300437
0.029704
0.029237
0.0286628
0.0279571
0.0271068
0.0260984
0.0249199
0.023566
0.022044
0.0203823
0.0186388
0.0169057
0.0153029
0.0139533
0.0129303
0.0121633
0.0112655
0.00912521
0.431773
0.475257
0.522322
0.572151
0.623206
0.672999
0.717696
0.751843
0.768312
0.758949
0.716551
0.638729
0.532921
0.418898
0.322962
0.263447
0.240247
0.240993
0.253849
0.272016
0.292435
0.313992
0.336321
0.359168
0.382152
0.404759
0.426415
0.446558
0.464681
0.480351
0.493211
0.502992
0.509524
0.512757
0.512771
0.509787
0.504156
0.496324
0.486781
0.475229
0.461205
0.444701
0.425629
0.403805
0.378964
0.350817
0.31916
0.28404
0.245946
0.205979
0.165914
0.128071
0.0949114
0.0683782
0.0492179
0.0367398
0.0292959
0.0250992
0.0227683
0.0214345
0.0206102
0.0200422
0.0196057
0.019239
0.0189106
0.0186034
0.0183072
0.0180154
0.0177242
0.0174308
0.0171339
0.0168326
0.016527
0.0162172
0.015904
0.015588
0.0152701
0.0149513
0.0146325
0.0143147
0.0139988
0.0136857
0.0133762
0.0130712
0.0127715
0.0124778
0.0121908
0.0119111
0.0116393
0.0113758
0.0111211
0.0108754
0.010639
0.0104118
0.010194
0.00998526
0.00978548
0.00959448
0.00941224
0.00923718
0.0090695
0.0088937
0.00870941
0.00851894
0.00832439
0.00812845
0.00793425
0.00774519
0.00756486
0.00739677
0.00724415
0.0071097
0.00699539
0.00690235
0.0068308
0.00678012
0.00674896
0.00673537
0.00673703
0.0067514
0.00677594
0.00680816
0.00684583
0.00688695
0.00692982
0.00697311
0.00701583
0.00705683
0.0070958
0.00713644
0.00717866
0.00722276
0.00726891
0.00731733
0.00736825
0.00742195
0.00747871
0.00753884
0.00760268
0.00767056
0.00774285
0.00781991
0.0079021
0.00798978
0.00808328
0.00818289
0.00828886
0.00840134
0.00852038
0.00864587
0.00877753
0.00891482
0.00905693
0.00920269
0.00935054
0.00949843
0.00964384
0.00978373
0.00991451
0.0100322
0.0101322
0.01021
0.0102609
0.0102802
0.0102641
0.0102094
0.0101139
0.00997739
0.00980108
0.00958858
0.00934601
0.00906934
0.00875621
0.00841174
0.00804182
0.00765388
0.0072573
0.00686378
0.00648744
0.0061443
0.00585074
0.00562007
0.00545597
0.00534027
0.00521047
0.0049233
0.0042058
0.346258
0.384107
0.424979
0.468011
0.511794
0.554138
0.591766
0.62016
0.633645
0.626061
0.592457
0.532045
0.451628
0.36671
0.296497
0.253313
0.235952
0.23496
0.241501
0.250119
0.257995
0.264081
0.268472
0.271817
0.274837
0.278021
0.281548
0.285335
0.289155
0.292738
0.295842
0.298294
0.300008
0.300987
0.301311
0.301119
0.300584
0.299882
0.29916
0.298104
0.296577
0.294479
0.291608
0.287636
0.282109
0.27447
0.264111
0.250466
0.233146
0.212084
0.187669
0.160836
0.133056
0.106196
0.0821763
0.062465
0.0476542
0.0373943
0.0307331
0.0265836
0.0240354
0.02245
0.0214239
0.0207177
0.0201932
0.0197711
0.0194053
0.0190684
0.0187444
0.0184233
0.0180995
0.01777
0.0174336
0.0170899
0.0167395
0.0163833
0.0160226
0.0156586
0.0152926
0.0149257
0.0145591
0.0141938
0.0138306
0.0134703
0.0131136
0.0127612
0.0124136
0.0120715
0.0117352
0.0114052
0.011082
0.010766
0.0104574
0.0101567
0.00986387
0.00957917
0.00930259
0.00903421
0.00877432
0.00852132
0.00827495
0.00801347
0.00773555
0.0074434
0.00713923
0.00682607
0.00650762
0.00618814
0.00587234
0.00556507
0.00527102
0.00499442
0.00473872
0.00450638
0.00429877
0.00411622
0.00395809
0.00382302
0.00370909
0.00361411
0.00353572
0.00347163
0.00341965
0.00337779
0.00334428
0.00331763
0.00329663
0.00327988
0.00326667
0.00325535
0.00324549
0.0032371
0.00323008
0.00322437
0.00321996
0.00321684
0.00321502
0.00321454
0.00321545
0.0032178
0.0032217
0.00322722
0.00323447
0.00324356
0.00325459
0.00326767
0.00328289
0.00330032
0.00332001
0.00334197
0.00336614
0.0033924
0.00342055
0.00345029
0.00348119
0.00351273
0.00354421
0.00357484
0.00360369
0.00362974
0.00365191
0.00366915
0.00368043
0.00368491
0.00368197
0.0036713
0.00365299
0.00362755
0.00359592
0.0035595
0.00352002
0.00347605
0.00342522
0.00337093
0.00331589
0.00326293
0.00321502
0.00317528
0.00314674
0.00313213
0.00313317
0.0031494
0.00317611
0.003201
0.00319956
0.00313229
0.00295543
0.305137
0.339825
0.377222
0.416381
0.455956
0.493943
0.527444
0.552617
0.564853
0.559463
0.533143
0.486236
0.425009
0.361814
0.310761
0.280085
0.268288
0.268498
0.274263
0.281098
0.286075
0.287567
0.285152
0.279397
0.271462
0.262655
0.254065
0.2464
0.239984
0.234868
0.230945
0.228057
0.226055
0.224827
0.224309
0.224469
0.225297
0.226784
0.228902
0.231422
0.234144
0.236943
0.239633
0.241958
0.243577
0.24407
0.242957
0.239729
0.2339
0.225062
0.212947
0.197504
0.178989
0.158056
0.135807
0.113687
0.0932204
0.0756231
0.0615131
0.0508591
0.043168
0.0377588
0.0339772
0.0312986
0.0293448
0.0278602
0.0266781
0.0256915
0.0248322
0.0240566
0.0233371
0.0226562
0.0220031
0.0213711
0.0207566
0.0201574
0.0195727
0.0190021
0.0184456
0.0179032
0.0173749
0.0168607
0.0163604
0.0158738
0.0154004
0.01494
0.0144919
0.0140557
0.0136309
0.013217
0.0128136
0.0124203
0.0120367
0.0116627
0.0112978
0.010942
0.0105948
0.0102562
0.0099265
0.00960382
0.00928708
0.00894933
0.00858842
0.00820664
0.00780656
0.00739186
0.00696715
0.00653789
0.00611021
0.00569059
0.00528543
0.00490062
0.0045411
0.00421056
0.00391129
0.00364412
0.00340859
0.00320324
0.00302585
0.00287379
0.00274421
0.00263431
0.00254139
0.00246302
0.00239698
0.00234139
0.00229469
0.00225516
0.00222172
0.0021907
0.00216148
0.0021339
0.00210779
0.00208299
0.00205939
0.00203689
0.00201543
0.00199495
0.00197543
0.00195687
0.00193928
0.00192268
0.00190713
0.00189268
0.00187941
0.0018674
0.00185673
0.00184751
0.00183982
0.00183374
0.00182937
0.00182674
0.0018259
0.00182686
0.00182957
0.00183397
0.00183994
0.00184732
0.0018559
0.00186545
0.00187571
0.00188641
0.00189729
0.00190813
0.00191878
0.00192914
0.00193924
0.00194919
0.00195924
0.00196971
0.00198102
0.00199364
0.00200659
0.00202074
0.00203723
0.00205708
0.00208135
0.00211102
0.00214702
0.00218998
0.00224012
0.00229686
0.00235841
0.00242146
0.00248142
0.00253543
0.00259216
0.286028
0.318983
0.354463
0.391435
0.428591
0.464082
0.495326
0.51905
0.531529
0.529272
0.510265
0.475664
0.431197
0.386663
0.35223
0.333138
0.327922
0.331861
0.340442
0.350045
0.3577
0.361121
0.358928
0.350818
0.33753
0.320566
0.301766
0.282875
0.265251
0.249744
0.236744
0.226297
0.218248
0.212349
0.208333
0.205953
0.204996
0.205278
0.206639
0.20893
0.211809
0.214997
0.21833
0.221653
0.224779
0.227486
0.229517
0.230583
0.230378
0.228583
0.22488
0.218964
0.210583
0.199595
0.18606
0.170327
0.153077
0.135259
0.117928
0.102021
0.0881724
0.0766337
0.0673246
0.0599537
0.0541474
0.0495411
0.0458259
0.0427614
0.0401699
0.0379242
0.0359353
0.0341416
0.0325008
0.030984
0.0295717
0.0282504
0.0270108
0.0258461
0.0247511
0.0237215
0.0227533
0.0218429
0.0209864
0.0201803
0.0194208
0.0187041
0.0180267
0.0173851
0.0167759
0.016196
0.0156424
0.0151127
0.0146042
0.014115
0.013643
0.0131867
0.0127443
0.0123149
0.0118978
0.0114902
0.0110898
0.0106625
0.0102055
0.00972111
0.00921244
0.00868403
0.00814169
0.00759236
0.00704388
0.00650463
0.00598291
0.00548649
0.00502194
0.00459427
0.00420663
0.00386028
0.00355477
0.00328821
0.00305776
0.00285995
0.00269108
0.00254748
0.00242568
0.00232251
0.00223517
0.00216125
0.00209875
0.00204557
0.00200025
0.00195801
0.001918
0.00188
0.00184375
0.00180906
0.00177575
0.0017437
0.0017128
0.00168297
0.00165414
0.0016263
0.00159943
0.00157354
0.00154866
0.00152484
0.00150214
0.00148065
0.00146045
0.00144165
0.00142435
0.00140866
0.0013947
0.00138256
0.00137234
0.00136411
0.00135793
0.00135383
0.00135183
0.00135188
0.00135394
0.00135793
0.00136376
0.00137129
0.00138042
0.00139103
0.00140302
0.00141634
0.00143096
0.00144691
0.00146429
0.00148324
0.00150397
0.00152674
0.00155188
0.00157929
0.00160964
0.00164352
0.00168154
0.00172434
0.00177261
0.00182703
0.00188834
0.00195731
0.00203492
0.00212267
0.0022234
0.0023431
0.0024938
0.279196
0.311308
0.345855
0.381741
0.417707
0.452063
0.482542
0.506401
0.520709
0.522989
0.512245
0.49017
0.461857
0.434894
0.416333
0.409329
0.412751
0.423689
0.439272
0.456817
0.473626
0.487034
0.494686
0.494871
0.486814
0.470809
0.44815
0.42085
0.391239
0.361549
0.333594
0.308608
0.28725
0.269703
0.255824
0.245286
0.237684
0.232603
0.229658
0.228503
0.22887
0.230215
0.231889
0.233679
0.23546
0.237121
0.238551
0.239631
0.240234
0.240223
0.239442
0.237707
0.234807
0.23051
0.224595
0.216896
0.207362
0.196105
0.183435
0.169835
0.155895
0.142217
0.129305
0.117503
0.106972
0.0977161
0.0896374
0.0825832
0.0763881
0.0708985
0.0659842
0.0615411
0.0574896
0.0537705
0.0503407
0.0471692
0.0442333
0.0415161
0.0390042
0.036686
0.0345505
0.0325869
0.0307842
0.0291308
0.0276151
0.0262252
0.0249493
0.023776
0.0226945
0.0216945
0.0207665
0.0199019
0.019093
0.0183329
0.0176153
0.016935
0.016287
0.0156676
0.0150737
0.0145003
0.0139424
0.0133515
0.012724
0.0120635
0.0113744
0.0106634
0.0099383
0.00920858
0.00848453
0.00777681
0.00709584
0.00645109
0.00585043
0.00529969
0.0048024
0.00435973
0.00397073
0.0036327
0.00334167
0.00309294
0.0028815
0.00270241
0.00255105
0.00242323
0.00231528
0.00222407
0.00214701
0.0020815
0.00202565
0.00197366
0.00192446
0.00187772
0.00183311
0.00179039
0.00174934
0.00170981
0.00167165
0.00163476
0.00159906
0.00156451
0.00153108
0.00149877
0.0014676
0.00143762
0.00140889
0.00138149
0.00135551
0.00133104
0.00130822
0.00128714
0.00126792
0.00125069
0.00123554
0.00122256
0.00121183
0.00120341
0.00119732
0.00119357
0.00119213
0.00119296
0.00119599
0.00120114
0.00120832
0.00121744
0.00122841
0.00124118
0.00125572
0.00127204
0.0012902
0.00131031
0.00133253
0.00135708
0.00138425
0.00141436
0.00144767
0.00148475
0.00152619
0.00157268
0.00162505
0.0016843
0.00175169
0.0018288
0.00191775
0.00202148
0.0021441
0.00229154
0.00247204
0.27921
0.311023
0.34527
0.380826
0.416507
0.450815
0.481813
0.507272
0.524974
0.533288
0.531967
0.522937
0.51051
0.500319
0.497062
0.502647
0.516503
0.537182
0.563206
0.592966
0.624507
0.6555
0.683372
0.70554
0.719693
0.72408
0.717764
0.700765
0.674093
0.639619
0.599811
0.557379
0.514907
0.474563
0.437926
0.40595
0.379036
0.357157
0.339996
0.327068
0.317807
0.311908
0.308413
0.305565
0.302986
0.300493
0.297996
0.29545
0.292838
0.290153
0.28738
0.284488
0.281418
0.278074
0.274318
0.269981
0.264877
0.258833
0.251721
0.243489
0.234182
0.223949
0.213024
0.201691
0.190243
0.178936
0.167967
0.157461
0.14748
0.13804
0.129124
0.120702
0.112742
0.105215
0.0980996
0.0913798
0.0850473
0.0790974
0.0735274
0.0683348
0.0635154
0.0590623
0.054965
0.0512099
0.0477795
0.044654
0.0418109
0.039227
0.0368781
0.0347405
0.0327914
0.0310091
0.0293736
0.0278669
0.0264727
0.0251765
0.0239658
0.0228296
0.0217594
0.0207441
0.0197733
0.0187588
0.0176978
0.0165988
0.0154717
0.0143291
0.0131856
0.0120567
0.0109588
0.00990739
0.00891619
0.00799635
0.00715567
0.00639837
0.00572526
0.00513419
0.00462076
0.004179
0.00380198
0.00348233
0.00321267
0.00298595
0.00279569
0.00263609
0.0025021
0.00238947
0.00229469
0.00221445
0.00214624
0.00208301
0.00202337
0.00196684
0.00191301
0.00186156
0.00181222
0.00176478
0.00171908
0.00167498
0.00163237
0.0015912
0.00155142
0.00151303
0.00147603
0.00144048
0.00140642
0.00137393
0.0013431
0.00131404
0.00128685
0.00126164
0.00123854
0.00121766
0.00119908
0.00118291
0.00116921
0.00115804
0.00114941
0.00114333
0.00113979
0.00113872
0.00114006
0.00114373
0.00114964
0.0011577
0.00116782
0.00117994
0.00119403
0.0012101
0.0012282
0.00124842
0.00127092
0.00129591
0.00132368
0.00135456
0.00138897
0.00142739
0.00147045
0.00151892
0.00157371
0.00163597
0.00170712
0.00178896
0.00188379
0.00199458
0.00212525
0.00228091
0.0024683
0.282301
0.314096
0.348396
0.3841
0.420126
0.455199
0.487715
0.515927
0.538224
0.553611
0.562291
0.566122
0.568509
0.573445
0.584009
0.601507
0.62592
0.656845
0.693846
0.736311
0.783253
0.833238
0.884395
0.934499
0.981101
1.02169
1.05387
1.07557
1.08514
1.08161
1.06469
1.03497
0.993863
0.943533
0.886737
0.826534
0.765976
0.707802
0.654204
0.606697
0.566102
0.532596
0.506471
0.488154
0.472301
0.458038
0.44479
0.43234
0.420552
0.409389
0.398864
0.389003
0.37982
0.371304
0.363415
0.356077
0.349177
0.34257
0.33609
0.329559
0.322808
0.315689
0.308095
0.299963
0.29128
0.28208
0.272425
0.262399
0.252088
0.241573
0.230927
0.220211
0.209478
0.198778
0.188158
0.177667
0.167356
0.157277
0.14748
0.138015
0.128927
0.120254
0.112031
0.10428
0.0970169
0.0902481
0.0839707
0.0781736
0.0728386
0.0679412
0.0634528
0.0593417
0.0555745
0.0521181
0.0489399
0.0460092
0.0432975
0.0407795
0.0384331
0.0362333
0.0341583
0.0320096
0.0297891
0.0275188
0.0252231
0.0229314
0.0206757
0.0184899
0.0164074
0.014459
0.0126701
0.0110589
0.00963454
0.00839675
0.00733671
0.00643915
0.00568512
0.00505471
0.00452905
0.00409139
0.0037274
0.00342491
0.0031736
0.00296472
0.00279086
0.00264584
0.00252465
0.00242271
0.0023366
0.00225733
0.00218301
0.0021129
0.00204643
0.00198318
0.00192279
0.00186498
0.00180951
0.00175622
0.00170495
0.00165561
0.00160815
0.00156253
0.00151875
0.00147684
0.00143685
0.00139884
0.0013629
0.00132912
0.0012976
0.00126845
0.00124176
0.00121764
0.00119616
0.0011774
0.00116141
0.00114822
0.00113783
0.00113023
0.00112537
0.00112318
0.00112358
0.00112646
0.00113172
0.00113926
0.00114898
0.00116081
0.00117472
0.00119069
0.00120878
0.00122907
0.00125174
0.00127697
0.00130506
0.00133636
0.00137129
0.00141039
0.00145426
0.0015037
0.00155964
0.00162325
0.00169596
0.00177956
0.00187634
0.00198917
0.00212182
0.00227919
0.00246779
0.285578
0.317408
0.351867
0.387917
0.424607
0.460888
0.495474
0.527023
0.554382
0.57696
0.595123
0.610414
0.625344
0.642651
0.664407
0.691655
0.724759
0.763916
0.809316
0.86102
0.918818
0.982146
1.05007
1.12127
1.19413
1.26673
1.33697
1.40265
1.46155
1.5115
1.55047
1.57664
1.58844
1.58466
1.56458
1.52806
1.47577
1.40931
1.33132
1.24538
1.1558
1.06711
0.983581
0.908352
0.847847
0.799836
0.756591
0.717662
0.682309
0.650153
0.620835
0.594104
0.569773
0.54768
0.527665
0.509565
0.493213
0.478444
0.465086
0.452969
0.441918
0.431759
0.422314
0.413406
0.404866
0.396529
0.38825
0.379899
0.371367
0.362567
0.353432
0.343919
0.334001
0.323673
0.312944
0.301843
0.29041
0.278699
0.266773
0.254701
0.242559
0.230422
0.218366
0.206467
0.194796
0.183423
0.172411
0.161817
0.151687
0.142058
0.132957
0.124397
0.116378
0.10889
0.101913
0.0954213
0.0893807
0.0837572
0.0785164
0.0736113
0.0690026
0.0642428
0.0593418
0.05435
0.049321
0.0443169
0.0394043
0.0346526
0.0301313
0.025907
0.02204
0.0185795
0.0155583
0.0129877
0.0108553
0.00912584
0.0077471
0.00665866
0.00580074
0.00512081
0.00457689
0.00413747
0.00377955
0.00348629
0.00324493
0.00304556
0.00288034
0.00274255
0.00262714
0.00252186
0.00242396
0.00233225
0.00224589
0.00216424
0.00208681
0.00201317
0.00194299
0.001876
0.001812
0.00175082
0.00169238
0.00163658
0.00158341
0.00153285
0.00148494
0.00143971
0.00139722
0.00135755
0.00132075
0.00128692
0.00125612
0.00122841
0.00120385
0.00118246
0.00116425
0.00114922
0.00113732
0.0011285
0.00112268
0.00111974
0.00111957
0.00112204
0.00112701
0.00113434
0.00114394
0.00115571
0.0011696
0.0011856
0.00120374
0.00122413
0.0012469
0.00127227
0.00130052
0.001332
0.00136714
0.00140647
0.00145062
0.00150038
0.00155667
0.00162067
0.00169379
0.00177783
0.00187503
0.00198828
0.00212129
0.00227893
0.00246771
0.287023
0.31876
0.353261
0.389592
0.426935
0.464454
0.501128
0.535921
0.567978
0.596896
0.622986
0.647374
0.671799
0.698123
0.727813
0.76177
0.800543
0.844596
0.8944
0.950347
1.01266
1.08132
1.15607
1.23636
1.32136
1.41001
1.50097
1.59273
1.68359
1.77173
1.85526
1.93227
2.0009
2.05939
2.10606
2.13936
2.15772
2.15953
2.14301
2.10639
2.04817
1.96783
1.86669
1.74879
1.62053
1.49226
1.37976
1.28366
1.19559
1.11573
1.0438
0.979463
0.922135
0.871165
0.825915
0.785753
0.750071
0.718303
0.689941
0.664545
0.641741
0.621213
0.602691
0.585936
0.570723
0.556836
0.544058
0.532173
0.520969
0.510243
0.499805
0.489488
0.479147
0.468666
0.457958
0.446963
0.435647
0.423999
0.412023
0.399738
0.387172
0.374354
0.361318
0.348093
0.334713
0.321208
0.307615
0.293976
0.28034
0.266767
0.253326
0.240091
0.227137
0.214539
0.202362
0.190662
0.179475
0.168829
0.158738
0.14917
0.140095
0.130681
0.120947
0.111003
0.100961
0.0909471
0.0810839
0.0714889
0.0622693
0.0535231
0.0453442
0.0378263
0.0310631
0.0251396
0.0201151
0.0160037
0.0127618
0.0102909
0.00845499
0.00710731
0.0061141
0.00536892
0.00479569
0.00434399
0.00398142
0.00368679
0.0034455
0.00324636
0.00308126
0.00293222
0.00279494
0.00266743
0.00254834
0.00243668
0.00233167
0.00223264
0.00213907
0.00205054
0.00196671
0.0018873
0.00181213
0.00174104
0.00167392
0.0016107
0.00155136
0.00149586
0.00144422
0.00139643
0.00135252
0.00131248
0.00127634
0.00124408
0.00121568
0.00119111
0.00117031
0.00115319
0.00113966
0.00112959
0.00112283
0.00111923
0.0011186
0.00112078
0.00112558
0.00113284
0.00114243
0.00115424
0.00116819
0.00118426
0.00120248
0.00122294
0.00124579
0.00127124
0.00129956
0.00133111
0.00136632
0.00140572
0.00144995
0.00149978
0.00155615
0.00162022
0.00169342
0.00177754
0.00187481
0.00198813
0.00212119
0.00227888
0.00246769
0.285731
0.317143
0.351436
0.387796
0.425535
0.463995
0.502357
0.539794
0.575609
0.60944
0.641432
0.672297
0.703177
0.735334
0.769848
0.807505
0.848897
0.894569
0.945068
1.0009
1.06245
1.12998
1.20356
1.28307
1.36823
1.45853
1.55323
1.65143
1.75199
1.85361
1.95481
2.05404
2.1497
2.24022
2.32414
2.40018
2.46727
2.52457
2.57139
2.60705
2.63056
2.64024
2.63316
2.60491
2.55014
2.46487
2.34759
2.20585
2.0617
1.9246
1.79228
1.6675
1.55238
1.44816
1.35506
1.27268
1.20027
1.13685
1.08137
1.03274
0.989978
0.95219
0.91861
0.888588
0.861572
0.837082
0.81469
0.794005
0.774664
0.756332
0.738704
0.721512
0.704531
0.687579
0.67053
0.653304
0.635872
0.618248
0.600478
0.582639
0.564819
0.547114
0.529613
0.512386
0.495484
0.478926
0.462703
0.446777
0.431089
0.415566
0.400132
0.384722
0.369287
0.353809
0.338301
0.32281
0.307408
0.292191
0.277273
0.262704
0.248525
0.233583
0.217918
0.201746
0.185304
0.168841
0.152592
0.136751
0.121455
0.106783
0.0927701
0.0794398
0.0668429
0.0550895
0.0443598
0.0348788
0.0268559
0.0204076
0.0155026
0.0119595
0.00949878
0.00781944
0.00666175
0.00583602
0.00522044
0.00474327
0.00436339
0.00405572
0.00380435
0.00358023
0.00337605
0.00318826
0.00301459
0.00285332
0.00270312
0.00256287
0.00243169
0.00230883
0.00219371
0.00208583
0.00198482
0.00189036
0.00180219
0.0017201
0.00164393
0.00157352
0.00150875
0.0014495
0.00139565
0.00134709
0.0013037
0.00126535
0.0012319
0.00120319
0.00117905
0.0011593
0.00114372
0.00113211
0.00112422
0.00111981
0.00111865
0.00112049
0.0011251
0.00113228
0.00114186
0.0011537
0.00116771
0.00118386
0.00120215
0.00122268
0.00124559
0.00127109
0.00129945
0.00133103
0.00136627
0.00140568
0.00144992
0.00149976
0.00155614
0.00162022
0.00169342
0.00177754
0.00187481
0.00198813
0.00212119
0.00227888
0.00246769
0.282046
0.312911
0.346735
0.382831
0.420628
0.459614
0.499113
0.538429
0.576937
0.614236
0.650277
0.685417
0.720347
0.755907
0.792895
0.831977
0.873715
0.918647
0.967312
1.02022
1.07782
1.14044
1.2083
1.2815
1.36
1.4436
1.53194
1.62448
1.72049
1.81903
1.91901
2.01918
2.11819
2.21467
2.30731
2.39493
2.47654
2.55146
2.61928
2.67987
2.73336
2.77999
2.82007
2.85374
2.88068
2.89944
2.90625
2.89552
2.85868
2.78903
2.6961
2.58636
2.46372
2.33379
2.2025
2.0751
1.95527
1.84534
1.7464
1.65863
1.58153
1.5142
1.45555
1.40446
1.35983
1.32065
1.28591
1.25469
1.22607
1.19922
1.17336
1.14783
1.12205
1.09553
1.06793
1.03899
1.00859
0.976723
0.943483
0.909077
0.873798
0.838013
0.802136
0.766601
0.731838
0.698243
0.666154
0.635828
0.607422
0.580984
0.556455
0.533669
0.512378
0.492274
0.473023
0.45431
0.43587
0.417529
0.399228
0.380934
0.36263
0.342963
0.322018
0.300199
0.277982
0.255884
0.234384
0.213857
0.194514
0.176371
0.159253
0.142846
0.126782
0.110757
0.0946453
0.0785966
0.0630682
0.0487508
0.0363774
0.0264724
0.0191623
0.0141606
0.0109247
0.00887337
0.00754073
0.00662231
0.00594668
0.00542473
0.00501076
0.00464841
0.0043233
0.00402844
0.00375933
0.00351264
0.0032857
0.00307638
0.00288294
0.00270397
0.00253831
0.00238499
0.00224321
0.00211232
0.00199171
0.0018809
0.00177942
0.00168686
0.00160282
0.00152694
0.00145885
0.00139819
0.00134462
0.00129778
0.00125733
0.00122291
0.00119417
0.00117076
0.00115232
0.00113851
0.00112896
0.00112333
0.00112128
0.0011225
0.00112669
0.00113359
0.001143
0.00115473
0.00116867
0.00118478
0.00120305
0.00122356
0.00124645
0.00127193
0.00130026
0.00133181
0.00136701
0.00140638
0.00145056
0.00150034
0.00155665
0.00162065
0.00169378
0.00177782
0.00187503
0.00198828
0.00212129
0.00227893
0.00246771
0.277398
0.307607
0.340818
0.376467
0.414093
0.453291
0.493494
0.534088
0.574473
0.614185
0.652992
0.690966
0.728453
0.765973
0.804098
0.843366
0.884279
0.927334
0.973034
1.02187
1.07427
1.13061
1.19115
1.25608
1.32547
1.39927
1.47733
1.5593
1.64472
1.73292
1.82307
1.91419
2.00519
2.09489
2.18212
2.26579
2.34496
2.41888
2.48709
2.54944
2.60607
2.65735
2.70385
2.74622
2.7852
2.82165
2.85638
2.89014
2.923
2.95477
2.98329
3.00336
3.01236
3.00667
2.984
2.94246
2.88243
2.80653
2.71914
2.62556
2.53093
2.43933
2.35352
2.27505
2.20452
2.14198
2.08702
2.03898
1.99701
1.96004
1.92681
1.89586
1.86564
1.83461
1.80138
1.76486
1.72418
1.67875
1.62823
1.57245
1.51153
1.44585
1.37601
1.30286
1.22743
1.15096
1.0748
1.00037
0.929037
0.862045
0.800411
0.744835
0.69563
0.652678
0.615446
0.583047
0.554363
0.52822
0.503593
0.479666
0.455795
0.430042
0.402426
0.373557
0.344287
0.315604
0.28849
0.263788
0.242076
0.22358
0.208122
0.19513
0.183688
0.172629
0.160688
0.146711
0.129964
0.110466
0.0892168
0.0680752
0.049192
0.0341977
0.0236198
0.0168964
0.0129013
0.0105384
0.00904909
0.00801783
0.00725044
0.00660049
0.00603127
0.00552557
0.00507255
0.00466431
0.00429476
0.00395908
0.00365343
0.00337468
0.00312029
0.00288813
0.00267643
0.00248367
0.00230854
0.00214988
0.00200662
0.00187778
0.00176244
0.00165973
0.00156881
0.00148887
0.00141913
0.00135884
0.00130729
0.00126377
0.00122764
0.00119826
0.00117505
0.00115744
0.00114489
0.0011369
0.00113301
0.00113278
0.00113585
0.00114186
0.00115056
0.00116173
0.00117521
0.00119092
0.00120887
0.00122909
0.00125171
0.00127693
0.00130502
0.00133632
0.00137125
0.00141034
0.00145423
0.00150367
0.00155962
0.00162323
0.00169595
0.00177956
0.00187633
0.00198917
0.00212182
0.00227919
0.00246779
0.273929
0.303562
0.336222
0.371462
0.408918
0.448271
0.489035
0.530654
0.572536
0.614148
0.655111
0.695265
0.734684
0.773637
0.812498
0.851682
0.891617
0.93275
0.975545
1.02046
1.06793
1.1183
1.17188
1.22888
1.28943
1.35355
1.42118
1.49212
1.56604
1.64246
1.72077
1.80019
1.87985
1.95878
2.03599
2.11052
2.18149
2.24816
2.31001
2.36676
2.41842
2.46526
2.50771
2.5463
2.58161
2.6143
2.64516
2.67519
2.70564
2.73813
2.77413
2.81529
2.86331
2.91921
2.98235
3.05343
3.1327
3.21827
3.30594
3.38904
3.45954
3.51016
3.53669
3.53965
3.5239
3.49627
3.46231
3.42494
3.38507
3.34318
3.30033
3.25787
3.21664
3.17646
3.13633
3.09479
3.04952
2.99811
2.93821
2.86767
2.78489
2.68904
2.5799
2.45759
2.32266
2.17619
2.02003
1.85677
1.68972
1.52279
1.36042
1.20733
1.06798
0.945963
0.843423
0.760572
0.695561
0.644802
0.603833
0.568332
0.534906
0.499727
0.462234
0.423047
0.383352
0.344623
0.30837
0.275949
0.248415
0.226439
0.210272
0.199749
0.194294
0.1929
0.194081
0.195799
0.195457
0.190093
0.177036
0.155094
0.125831
0.0937693
0.0646282
0.0425268
0.0283318
0.0203022
0.0159617
0.0134564
0.0118174
0.0105182
0.00942474
0.00848038
0.0076529
0.00692089
0.00626891
0.0056853
0.00516106
0.00468906
0.00426354
0.00387981
0.00353396
0.00322268
0.00294311
0.00269274
0.00246931
0.00227074
0.00209509
0.00194056
0.00180539
0.00168793
0.00158659
0.00149988
0.00142636
0.0013647
0.00131366
0.00127208
0.00123891
0.00121318
0.00119404
0.00118067
0.0011724
0.00116859
0.0011687
0.00117228
0.00117895
0.00118842
0.00120047
0.00121496
0.00123184
0.00125112
0.0012729
0.00129734
0.00132467
0.00135522
0.00138937
0.00142763
0.00147058
0.00151898
0.00157374
0.00163599
0.00170713
0.00178896
0.00188379
0.00199458
0.00212524
0.00228091
0.0024683
0.274176
0.303536
0.335955
0.371096
0.408679
0.448454
0.489999
0.532798
0.576261
0.619797
0.6629
0.705224
0.746627
0.787166
0.827048
0.866573
0.906097
0.946018
0.986764
1.02877
1.07244
1.11816
1.16621
1.21683
1.27017
1.32631
1.38523
1.44681
1.5108
1.57686
1.64449
1.71311
1.78201
1.85039
1.91744
1.98233
2.04428
2.10265
2.15688
2.20665
2.25185
2.29261
2.3292
2.36195
2.3912
2.4174
2.44104
2.46279
2.48352
2.50435
2.52656
2.55168