/*--------------------------------*- C++ -*----------------------------------*\
| =========                 |                                                 |
| \\      /  F ield         | OpenFOAM: The Open Source CFD Toolbox           |
|  \\    /   O peration     | Version:  2406                                  |
|   \\  /    A nd           | Website:  www.openfoam.com                      |
|    \\/     M anipulation  |                                                 |
\*---------------------------------------------------------------------------*/
FoamFile
{
    version     2.0;
    format      ascii;
    arch        "LSB;label=32;scalar=64";
    class       volScalarField;
    location    "700";
    object      k;
}
// * * * * * * * * * * * * * * * * * * * * * * * * * * * * * * * * * * * * * //

dimensions      [0 2 -2 0 0 0 0];

internalField   nonuniform List<scalar> 
5619
(
0.047016
0.0490497
0.0512085
0.0534774
0.055786
0.0580566
0.0601648
0.0619347
0.0631284
0.0634557
0.0626278
0.0605018
0.0573287
0.053953
0.0515503
0.0507864
0.0514241
0.05297
0.0551301
0.0577134
0.0605464
0.0634857
0.0664323
0.0693271
0.0721388
0.0748539
0.0774675
0.0799758
0.0823704
0.0846337
0.0867356
0.0886328
0.0902682
0.091573
0.0924695
0.0928752
0.0927081
0.0918929
0.0903672
0.088089
0.0850719
0.0813458
0.076989
0.0721387
0.0670004
0.0618545
0.0570455
0.0529397
0.049836
0.0478508
0.0468467
0.046488
0.0464046
0.0463312
0.0461362
0.0457786
0.0453279
0.0447907
0.0441626
0.0434458
0.0426467
0.0417732
0.0408395
0.0398791
0.0389063
0.0379329
0.0369685
0.0360206
0.0350952
0.0341967
0.0333284
0.0324924
0.0316901
0.0309221
0.0301884
0.0294885
0.0288219
0.0281874
0.0275837
0.0270096
0.0264635
0.0259438
0.025449
0.0249774
0.0245274
0.0240975
0.023686
0.0232917
0.0229129
0.0225484
0.022197
0.0218573
0.0215284
0.021209
0.0208984
0.0205954
0.0202994
0.0200096
0.0197252
0.0194455
0.0191702
0.0188712
0.0185486
0.018203
0.0178356
0.0174485
0.0170444
0.0166267
0.0161995
0.0157671
0.0153345
0.0149063
0.0144872
0.0140815
0.0136929
0.0133246
0.0129787
0.0126568
0.0123596
0.0120873
0.0118393
0.0116147
0.0114123
0.0112307
0.0110683
0.0109234
0.0107946
0.0106803
0.0105792
0.0104803
0.0103831
0.0102872
0.0101919
0.0100969
0.0100018
0.00990628
0.00980997
0.0097126
0.00961392
0.00951372
0.00941183
0.0093081
0.00920246
0.00909485
0.00898529
0.00887385
0.00876064
0.00864585
0.00852974
0.00841262
0.00829489
0.00817702
0.00805954
0.00794307
0.00782827
0.00771588
0.00760667
0.00750145
0.00740103
0.00730623
0.00721782
0.00713653
0.00706298
0.00699768
0.00694101
0.0068932
0.00685427
0.00682409
0.00680237
0.00678864
0.0067823
0.00678264
0.00678908
0.00680084
0.00681729
0.00683839
0.00686521
0.006901
0.00695267
0.00703267
0.0071603
0.00736053
0.00765668
0.00805035
0.00846877
0.00861759
0.00760479
0.0554629
0.059018
0.0629325
0.0669979
0.0711015
0.0750545
0.0785821
0.0812914
0.0826484
0.0819801
0.0785538
0.0718166
0.0618775
0.0501055
0.0392221
0.032062
0.0296489
0.0309476
0.0343297
0.0385715
0.0429823
0.0472312
0.0511735
0.0547494
0.0579423
0.0607635
0.0632445
0.0654302
0.0673724
0.0691219
0.0707216
0.0722016
0.0735743
0.0748324
0.0759477
0.076871
0.0775348
0.0778558
0.0777413
0.0771168
0.0759446
0.0741188
0.0714747
0.0678326
0.0630285
0.0569674
0.0497065
0.0415594
0.0331635
0.0254067
0.0191335
0.0147562
0.0121024
0.0106498
0.00987957
0.00945005
0.00914283
0.00888266
0.00864733
0.0084288
0.00822551
0.00803939
0.00787049
0.00770728
0.00754938
0.00739674
0.00724933
0.00710713
0.00697014
0.0068384
0.00671193
0.00659077
0.00647496
0.0063645
0.00625941
0.00615965
0.00606517
0.00597591
0.00589175
0.00581257
0.00573824
0.00566859
0.00560343
0.00554258
0.00548584
0.00543299
0.00538382
0.00533811
0.00529566
0.00525625
0.00521967
0.00518573
0.00515423
0.00512501
0.00509789
0.00507272
0.00504936
0.00502769
0.00500762
0.00498896
0.00497169
0.00495412
0.00493648
0.00491916
0.0049026
0.00488728
0.00487374
0.00486251
0.00485409
0.00484893
0.00484738
0.00484965
0.0048558
0.00486572
0.00487915
0.0048957
0.00491486
0.00493606
0.0049587
0.00498219
0.00500598
0.00502962
0.00505268
0.00507488
0.00509597
0.00511579
0.00513427
0.0051513
0.0051669
0.0051827
0.00519873
0.00521508
0.00523181
0.005249
0.00526674
0.0052851
0.00530418
0.00532406
0.00534483
0.0053666
0.00538943
0.00541344
0.0054387
0.00546529
0.0054933
0.00552278
0.00555379
0.00558636
0.00562051
0.00565623
0.00569348
0.00573217
0.00577217
0.00581332
0.00585539
0.00589809
0.00594107
0.00598391
0.00602615
0.00606725
0.00610664
0.0061437
0.0061778
0.00620826
0.0062344
0.00625551
0.00627083
0.00627951
0.00628052
0.00627254
0.00625381
0.00622223
0.00617993
0.00612473
0.00605077
0.00595025
0.00581307
0.0056274
0.00538159
0.00506865
0.00469372
0.00428273
0.00388677
0.00357551
0.00342087
0.003484
0.00379533
0.0655618
0.0705541
0.0759607
0.0815381
0.087136
0.0925079
0.097297
0.100998
0.102929
0.102242
0.0980148
0.0895322
0.0768288
0.06137
0.0462173
0.0347374
0.0283715
0.026141
0.0263542
0.0278317
0.0299513
0.032394
0.0349797
0.0375954
0.0401692
0.0426604
0.045052
0.0473429
0.0495407
0.0516545
0.0536901
0.0556463
0.0575133
0.0592728
0.060898
0.0623559
0.063609
0.0646176
0.065342
0.0657481
0.0657798
0.0653531
0.0643681
0.0627133
0.0602715
0.0569337
0.0526239
0.0473369
0.0411895
0.0344737
0.0276849
0.0214645
0.0164076
0.0128069
0.0105486
0.00926622
0.00857819
0.0082131
0.0080119
0.00788999
0.0078048
0.00773493
0.00766926
0.00760184
0.00752963
0.0074511
0.00736557
0.00727292
0.00717334
0.0070673
0.0069554
0.00683838
0.00671705
0.00659224
0.00646481
0.00633561
0.00620546
0.00607514
0.00594538
0.00581685
0.00569019
0.00556594
0.00544459
0.00532657
0.00521223
0.00510185
0.00499565
0.00489378
0.00479632
0.0047033
0.00461471
0.00453046
0.00445046
0.00437455
0.00430257
0.00423434
0.00416965
0.00410832
0.00405019
0.00399488
0.00394232
0.00388735
0.00383021
0.00377163
0.00371236
0.00365335
0.0035956
0.00354022
0.0034883
0.00344086
0.00339879
0.0033628
0.00333332
0.00331054
0.00329433
0.00328438
0.00328011
0.00328084
0.00328579
0.00329412
0.00330505
0.00331783
0.0033318
0.00334639
0.00336113
0.00337565
0.00338971
0.00340302
0.00341552
0.0034284
0.00344168
0.00345543
0.00346969
0.00348454
0.00350004
0.00351627
0.00353331
0.00355124
0.00357015
0.00359013
0.00361127
0.00363366
0.0036574
0.00368257
0.00370925
0.00373751
0.0037674
0.00379895
0.00383217
0.00386702
0.00390343
0.00394127
0.00398035
0.00402039
0.00406103
0.00410182
0.0041422
0.00418148
0.00421889
0.00425351
0.00428434
0.00431028
0.00433016
0.00434279
0.00434693
0.00434137
0.00432494
0.00429656
0.00425524
0.00420019
0.00413088
0.0040489
0.00395465
0.0038472
0.00372585
0.0035905
0.00344215
0.00328366
0.00312063
0.00296229
0.00282216
0.00271813
0.00267186
0.00270798
0.00285261
0.00312709
0.00351414
0.076294
0.0824119
0.08899
0.0957554
0.102525
0.109005
0.114777
0.119254
0.121659
0.121048
0.116424
0.10706
0.093071
0.076086
0.0593529
0.0463553
0.0385204
0.0347543
0.033274
0.0329038
0.0331037
0.0336741
0.03455
0.0356995
0.0370861
0.0386632
0.0403804
0.0421898
0.0440492
0.0459235
0.0477826
0.0496006
0.0513543
0.0530225
0.0545855
0.056025
0.0573238
0.0584654
0.0594323
0.0602038
0.0607475
0.0610152
0.060944
0.0604544
0.0594505
0.0578251
0.055472
0.0523085
0.0483062
0.0435265
0.0381499
0.0324851
0.0269434
0.0219663
0.0179096
0.0149298
0.0129527
0.0117506
0.0110632
0.010681
0.0104655
0.0103358
0.0102477
0.0101777
0.0101132
0.0100471
0.00997526
0.00989531
0.00980591
0.00970644
0.00959676
0.00947712
0.009348
0.00921011
0.00906425
0.00891133
0.00875226
0.008588
0.00841946
0.00824757
0.00807318
0.00789714
0.00772024
0.00754324
0.00736683
0.00719169
0.00701843
0.00684759
0.00667967
0.00651511
0.00635425
0.00619741
0.00604478
0.00589652
0.0057527
0.00561334
0.00547837
0.00534775
0.00522144
0.00509883
0.00497973
0.00485305
0.00471845
0.00457698
0.00442974
0.00427827
0.00412442
0.00397032
0.00381828
0.00367069
0.00352982
0.00339769
0.00327595
0.00316572
0.00306763
0.00298177
0.00290779
0.00284499
0.00279241
0.00274894
0.00271343
0.00268474
0.00266179
0.0026436
0.0026293
0.00261816
0.00260959
0.00260295
0.00259788
0.00259365
0.00259012
0.00258729
0.00258511
0.00258356
0.00258263
0.00258233
0.00258266
0.00258365
0.00258533
0.00258772
0.00259088
0.00259484
0.00259965
0.00260536
0.00261203
0.0026197
0.0026284
0.00263817
0.002649
0.00266088
0.00267378
0.0026876
0.00270221
0.00271743
0.00273302
0.00274866
0.00276396
0.00277845
0.0027916
0.00280281
0.00281143
0.00281679
0.00281825
0.00281519
0.00280713
0.0027937
0.00277476
0.00275041
0.00272107
0.00268752
0.00265098
0.00261226
0.00257217
0.00253201
0.00249338
0.00245829
0.0024293
0.00240959
0.0024031
0.00241463
0.00244992
0.00251562
0.00261925
0.00276859
0.00297001
0.00322295
0.00350598
0.0872686
0.0943777
0.101993
0.109805
0.117594
0.125025
0.13162
0.136723
0.139487
0.13891
0.133988
0.124056
0.109371
0.0917273
0.0744461
0.0609446
0.0525694
0.048245
0.0462065
0.0451997
0.0445679
0.0440465
0.043593
0.0432658
0.0431408
0.0432664
0.0436506
0.0442681
0.0450751
0.0460218
0.0470607
0.048151
0.0492598
0.0503617
0.0514378
0.0524745
0.0534615
0.0543899
0.0552499
0.0560261
0.0567071
0.0572664
0.0576645
0.0578462
0.0577395
0.0572571
0.0563021
0.0547788
0.0526085
0.0497484
0.0462104
0.0420792
0.0375237
0.0327987
0.0282201
0.024105
0.0206912
0.0180766
0.0162162
0.0149703
0.0141697
0.0136636
0.0133403
0.0131253
0.0129719
0.0128517
0.0127474
0.0126484
0.0125481
0.0124423
0.0123286
0.0122058
0.0120733
0.011931
0.0117793
0.0116188
0.0114502
0.0112744
0.0110923
0.0109046
0.0107123
0.010516
0.0103166
0.0101148
0.00991111
0.00970622
0.00950067
0.009295
0.00908972
0.0088853
0.00868218
0.00848079
0.0082815
0.00808464
0.00789049
0.00769929
0.00751119
0.00732636
0.00714508
0.00696658
0.00679039
0.00660117
0.00639755
0.00618044
0.00595091
0.00571072
0.0054622
0.00520827
0.00495239
0.00469836
0.00445009
0.00421138
0.00398559
0.00377544
0.00358287
0.00340893
0.00325389
0.0031173
0.00299819
0.00289519
0.00280675
0.00273122
0.00266701
0.00261257
0.00256651
0.0025276
0.00249479
0.00246697
0.00244339
0.00242136
0.00240053
0.0023808
0.00236202
0.00234409
0.00232693
0.00231046
0.00229465
0.00227945
0.00226484
0.00225081
0.00223738
0.00222455
0.00221235
0.00220083
0.00219002
0.00217998
0.00217077
0.00216243
0.00215503
0.00214862
0.00214323
0.00213889
0.00213561
0.00213338
0.00213216
0.00213189
0.00213246
0.00213376
0.00213564
0.00213793
0.00214047
0.0021431
0.00214567
0.00214811
0.00215039
0.00215257
0.00215483
0.00215746
0.00216087
0.00216562
0.00217238
0.00218168
0.00219387
0.00220987
0.00223077
0.00225782
0.0022925
0.00233653
0.0023919
0.002461
0.00254654
0.0026516
0.0027794
0.00293283
0.00311329
0.00331826
0.00353768
0.098529
0.106566
0.115155
0.123941
0.132667
0.140955
0.148274
0.153912
0.156976
0.156449
0.151367
0.141191
0.126364
0.108818
0.0918106
0.078478
0.0699562
0.0652749
0.0628635
0.061508
0.0604532
0.0592953
0.0578883
0.0562657
0.0545606
0.0529317
0.0515098
0.0503724
0.0495433
0.0490061
0.0487224
0.0486458
0.048732
0.0489436
0.0492511
0.0496333
0.0500744
0.0505626
0.051087
0.0516252
0.0521678
0.0526988
0.0531953
0.053625
0.0539443
0.0540985
0.0540238
0.0536505
0.052908
0.0517305
0.0500629
0.0478702
0.0451496
0.0419486
0.0383819
0.0346342
0.0309384
0.0275273
0.0245791
0.0221812
0.0203292
0.0189532
0.0179537
0.0172313
0.0167025
0.0163041
0.0159913
0.0157333
0.0155095
0.0153057
0.0151128
0.0149245
0.0147369
0.0145474
0.0143546
0.0141579
0.013957
0.0137521
0.0135434
0.0133316
0.0131169
0.0129
0.0126814
0.0124613
0.0122403
0.0120186
0.0117965
0.0115742
0.0113519
0.0111298
0.0109081
0.0106868
0.0104663
0.0102465
0.0100277
0.00981007
0.00959359
0.00937848
0.00916512
0.00895262
0.00873999
0.00850956
0.00825888
0.00798837
0.00769876
0.00739162
0.00706936
0.0067353
0.00639362
0.00604924
0.00570752
0.00537395
0.00505373
0.00475137
0.00447039
0.00421316
0.00398087
0.00377361
0.00359061
0.00343043
0.00329122
0.00317092
0.0030674
0.00297862
0.00290263
0.00283771
0.00278237
0.00273497
0.00269432
0.00265613
0.00261974
0.00258495
0.00255155
0.00251937
0.00248826
0.0024581
0.0024288
0.00240029
0.00237251
0.00234544
0.00231907
0.00229341
0.00226849
0.00224436
0.00222108
0.00219873
0.0021774
0.00215719
0.00213821
0.00212057
0.00210438
0.00208976
0.00207681
0.00206561
0.00205625
0.00204878
0.00204323
0.00203962
0.00203796
0.00203821
0.00204035
0.00204434
0.00205016
0.00205778
0.00206724
0.00207856
0.00209186
0.00210727
0.00212501
0.00214535
0.00216862
0.0021952
0.00222559
0.00226025
0.00229983
0.00234515
0.00239714
0.00245688
0.00252562
0.00260476
0.00269586
0.00280057
0.00292049
0.00305689
0.0032102
0.0033793
0.00356095
0.110016
0.118934
0.128449
0.138155
0.14776
0.156844
0.164835
0.170986
0.174385
0.174043
0.169098
0.159183
0.14494
0.128375
0.112514
0.100014
0.0917347
0.0868906
0.0842264
0.0826765
0.0814587
0.0800414
0.0781195
0.075594
0.0725365
0.0691341
0.0656226
0.0622264
0.0591176
0.0564
0.0541142
0.0522535
0.0507831
0.0496562
0.0488247
0.0482453
0.0478813
0.0477029
0.0476851
0.0478061
0.048018
0.0482891
0.0485971
0.0489218
0.0492394
0.0495211
0.0497329
0.0498369
0.0497911
0.0495511
0.0490698
0.0482988
0.0471916
0.0457117
0.0438444
0.0416115
0.0390809
0.036366
0.0336109
0.0309632
0.028545
0.0264329
0.0246529
0.0231898
0.0220029
0.0210419
0.0202573
0.0196064
0.0190551
0.0185771
0.0181528
0.0177679
0.0174118
0.0170772
0.0167588
0.0164529
0.0161569
0.0158693
0.0155888
0.0153149
0.0150469
0.0147847
0.0145279
0.0142763
0.0140295
0.0137874
0.0135494
0.0133153
0.0130845
0.0128567
0.0126313
0.0124079
0.012186
0.0119653
0.0117454
0.0115259
0.0113065
0.0110871
0.0108676
0.0106469
0.0104235
0.0101788
0.00990945
0.00961484
0.00929487
0.00895035
0.00858315
0.00819634
0.00779424
0.00738237
0.00696724
0.00655591
0.00615552
0.0057727
0.00541301
0.0050806
0.00477802
0.00450626
0.00426494
0.00405268
0.00386741
0.00370664
0.00356777
0.0034482
0.00334547
0.00325736
0.00318194
0.00311714
0.00306128
0.00300877
0.00295865
0.00291063
0.00286443
0.00281981
0.00277659
0.0027346
0.00269372
0.00265386
0.00261493
0.00257691
0.00253977
0.00250353
0.00246822
0.0024339
0.00240065
0.00236857
0.00233779
0.00230844
0.00228066
0.00225462
0.00223047
0.00220838
0.00218849
0.00217096
0.00215589
0.0021434
0.00213356
0.00212642
0.00212201
0.00212032
0.00212132
0.00212497
0.00213123
0.00214005
0.00215138
0.00216521
0.00218155
0.00220047
0.00222206
0.00224647
0.00227392
0.00230465
0.00233901
0.00237752
0.00242056
0.00246868
0.00252254
0.00258287
0.00265052
0.00272641
0.00281155
0.00290701
0.00301386
0.00313307
0.00326547
0.00341173
0.00357272
0.121432
0.131172
0.141553
0.152122
0.16255
0.172393
0.181051
0.187767
0.191652
0.191793
0.187473
0.17853
0.165771
0.15116
0.137313
0.126301
0.118737
0.114084
0.111461
0.110033
0.109087
0.108036
0.106431
0.103986
0.100586
0.0962823
0.0912598
0.0857936
0.0801905
0.0747374
0.0696633
0.0651218
0.0611912
0.0578883
0.0551867
0.0530345
0.0513691
0.0501258
0.0492437
0.0486674
0.0483482
0.0482
0.0481347
0.0481191
0.0481341
0.0481629
0.0481888
0.0481941
0.0481595
0.0480644
0.047885
0.0475939
0.0471599
0.0465487
0.0457271
0.044668
0.0433582
0.0418051
0.0400409
0.0381221
0.0361225
0.034122
0.0321934
0.0303919
0.0287501
0.0272793
0.0259739
0.0248185
0.0237931
0.0228771
0.0220521
0.0213024
0.0206154
0.0199811
0.0193919
0.0188422
0.0183277
0.0178452
0.0173922
0.0169667
0.0165671
0.0161918
0.0158393
0.015508
0.0151964
0.0149028
0.0146256
0.014363
0.0141133
0.0138748
0.0136459
0.013425
0.0132105
0.0130012
0.0127956
0.0125926
0.012391
0.0121901
0.0119891
0.0117863
0.0115799
0.011352
0.0110983
0.0108172
0.010507
0.0101673
0.00979829
0.00940156
0.00898019
0.00853894
0.00808416
0.00762357
0.00716582
0.00671972
0.00629351
0.0058941
0.00552649
0.00519361
0.00489637
0.004634
0.00440453
0.00420523
0.004033
0.00388469
0.00375726
0.00364794
0.00355432
0.00347384
0.00340436
0.00333913
0.0032769
0.00321725
0.00315984
0.00310439
0.00305065
0.00299844
0.00294761
0.00289803
0.00284962
0.00280232
0.00275613
0.00271104
0.00266711
0.00262438
0.00258298
0.002543
0.00250459
0.00246792
0.00243316
0.00240048
0.00237009
0.00234217
0.0023169
0.00229443
0.00227493
0.00225849
0.00224521
0.00223514
0.00222829
0.00222463
0.00222412
0.00222668
0.00223221
0.00224062
0.0022518
0.00226569
0.00228223
0.00230141
0.00232325
0.00234784
0.00237532
0.00240587
0.00243974
0.00247723
0.00251883
0.00256489
0.0026159
0.00267245
0.00273519
0.00280485
0.00288228
0.00296842
0.00306437
0.00317137
0.00329098
0.00342523
0.00357706
0.132196
0.142667
0.153826
0.165178
0.176369
0.186944
0.196302
0.203708
0.208333
0.209382
0.206311
0.199149
0.188791
0.177007
0.165891
0.156951
0.150637
0.146671
0.144528
0.143652
0.143497
0.143536
0.143289
0.142351
0.140419
0.137313
0.132985
0.127516
0.121096
0.114003
0.106559
0.0990929
0.0919025
0.0852259
0.0792274
0.0739975
0.069562
0.0658974
0.062947
0.0606349
0.0588757
0.0576158
0.0567208
0.0559715
0.0553116
0.0547132
0.0541606
0.0536442
0.0531569
0.0526917
0.0522399
0.0517902
0.0513276
0.0508328
0.0502821
0.0496491
0.048907
0.0480319
0.0470069
0.0458253
0.0444933
0.0430301
0.0414662
0.0398386
0.038186
0.0365434
0.0349381
0.0333892
0.031907
0.0304957
0.029155
0.0278825
0.0266749
0.0255292
0.0244431
0.0234152
0.0224446
0.0215311
0.0206745
0.0198748
0.0191314
0.0184436
0.0178099
0.0172284
0.0166966
0.0162114
0.0157697
0.0153676
0.0150013
0.0146672
0.0143612
0.0140799
0.0138197
0.0135775
0.0133502
0.0131351
0.0129298
0.0127321
0.0125403
0.0123516
0.0121637
0.0119594
0.0117344
0.0114868
0.0112144
0.0109151
0.0105873
0.0102298
0.0098427
0.00942752
0.0089876
0.00852835
0.00805727
0.00758351
0.00711714
0.0066681
0.00624516
0.00585499
0.00550174
0.00518697
0.00491009
0.00466895
0.00446041
0.00428094
0.00412692
0.00399497
0.0038821
0.0037852
0.00370163
0.00362339
0.00354889
0.00347757
0.003409
0.00334284
0.0032788
0.00321666
0.00315623
0.00309737
0.00303998
0.002984
0.00292941
0.00287621
0.00282445
0.0027742
0.00272557
0.00267868
0.00263371
0.00259082
0.00255019
0.00251204
0.00247656
0.00244396
0.0024144
0.00238808
0.00236512
0.00234564
0.0023297
0.00231734
0.00230854
0.00230326
0.00230139
0.00230283
0.00230741
0.00231501
0.00232547
0.00233865
0.00235447
0.00237285
0.00239378
0.0024173
0.0024435
0.00247253
0.00250458
0.00253993
0.0025789
0.00262192
0.00266942
0.00272192
0.00278004
0.00284451
0.00291619
0.00299613
0.0030856
0.00318618
0.00329989
0.0034294
0.00357821
0.141484
0.152552
0.164355
0.176373
0.188241
0.199513
0.209613
0.217857
0.223509
0.225912
0.22469
0.220006
0.212729
0.204331
0.196378
0.189934
0.185365
0.182592
0.181375
0.181417
0.182379
0.183889
0.185562
0.187017
0.187904
0.187921
0.186833
0.184478
0.180774
0.175717
0.169383
0.161924
0.153561
0.144569
0.135259
0.125953
0.116957
0.108534
0.100886
0.0941439
0.0883667
0.0835476
0.0797015
0.0768565
0.0744087
0.0722488
0.0703021
0.0685384
0.0669368
0.0654866
0.0641806
0.0630109
0.0619668
0.0610335
0.0601924
0.059421
0.0586935
0.0579824
0.0572594
0.0564975
0.0556726
0.0547654
0.053763
0.052659
0.0514543
0.0501552
0.0487724
0.0473188
0.0458079
0.0442523
0.0426636
0.0410517
0.0394259
0.0377946
0.0361664
0.0345501
0.0329546
0.0313893
0.0298634
0.0283861
0.0269657
0.0256098
0.0243247
0.0231153
0.0219851
0.0209358
0.0199676
0.0190791
0.0182677
0.0175297
0.0168603
0.0162545
0.0157066
0.0152109
0.014762
0.0143545
0.0139831
0.0136435
0.0133315
0.0130421
0.0127716
0.0124939
0.0122076
0.0119138
0.0116126
0.0113038
0.0109863
0.0106579
0.0103158
0.0099566
0.00957749
0.00917675
0.00875488
0.00831523
0.00786419
0.00741073
0.00696536
0.00653859
0.0061395
0.00577461
0.00544745
0.00515875
0.00490704
0.00468946
0.00450239
0.00434209
0.00420503
0.00408752
0.0039864
0.00389206
0.00380251
0.00371698
0.00363492
0.00355591
0.00347961
0.00340575
0.0033341
0.0032645
0.00319683
0.00313102
0.00306702
0.00300485
0.00294455
0.00288621
0.00282993
0.00277586
0.00272417
0.00267502
0.00262863
0.00258519
0.0025449
0.00250797
0.00247457
0.00244484
0.00241892
0.00239689
0.00237878
0.00236458
0.00235426
0.0023477
0.00234477
0.00234529
0.00234909
0.00235597
0.00236572
0.00237819
0.00239324
0.00241077
0.00243074
0.00245317
0.00247813
0.00250574
0.00253621
0.00256979
0.00260679
0.0026476
0.0026927
0.00274261
0.00279799
0.0028596
0.00292837
0.00300544
0.00309219
0.00319037
0.00330215
0.00343031
0.00357842
0.148365
0.159847
0.172107
0.184625
0.197039
0.208932
0.219773
0.228952
0.235839
0.23991
0.240918
0.239079
0.235149
0.230268
0.225568
0.221807
0.2193
0.218096
0.218136
0.219308
0.221453
0.224366
0.227805
0.231498
0.235164
0.238524
0.241314
0.243294
0.244254
0.244019
0.242453
0.239453
0.234959
0.22895
0.221448
0.212533
0.202344
0.1911
0.179103
0.166729
0.154409
0.142588
0.131673
0.121954
0.11407
0.107724
0.102086
0.0970888
0.0926465
0.0887162
0.0852558
0.0822301
0.0796064
0.0773502
0.0754237
0.0737872
0.0723995
0.0712196
0.0702081
0.0693277
0.0685435
0.0678237
0.0671394
0.0664641
0.0657744
0.0650494
0.0642712
0.0634246
0.0624973
0.0614797
0.0603647
0.0591479
0.0578272
0.056403
0.054878
0.0532574
0.0515488
0.0497616
0.0479077
0.0460003
0.0440539
0.0420841
0.0401069
0.0381385
0.0361949
0.0342914
0.0324424
0.0306606
0.0289571
0.0273406
0.0258175
0.0243917
0.0230647
0.0218358
0.0207023
0.0196602
0.0187043
0.0178288
0.017028
0.016294
0.0156195
0.0149411
0.0142635
0.0135972
0.0129528
0.01234
0.0117669
0.0112382
0.0107548
0.0103133
0.00990603
0.00952242
0.00915044
0.00877882
0.00839914
0.00800752
0.00760538
0.00719895
0.00679766
0.00641191
0.00605093
0.00572129
0.00542637
0.00516667
0.00494059
0.00474528
0.00457741
0.00443314
0.00430896
0.00419337
0.00408388
0.00397946
0.00387943
0.00378329
0.00369066
0.0036012
0.00351468
0.00343089
0.00334971
0.00327103
0.00319484
0.00312113
0.00304995
0.0029814
0.00291559
0.00285267
0.00279282
0.00273621
0.00268304
0.00263351
0.00258781
0.00254611
0.00250856
0.00247529
0.00244637
0.00242184
0.00240169
0.00238585
0.00237422
0.00236664
0.00236291
0.00236282
0.00236611
0.00237255
0.00238191
0.00239398
0.0024086
0.00242566
0.00244509
0.00246692
0.00249119
0.00251805
0.00254769
0.00258037
0.00261641
0.0026562
0.00270022
0.00274904
0.00280331
0.00286384
0.00293158
0.00300772
0.00309367
0.00319121
0.00330253
0.00343042
0.00357844
0.152037
0.163707
0.17619
0.188987
0.201755
0.214121
0.225613
0.235702
0.243859
0.249666
0.252952
0.253922
0.253175
0.251556
0.249882
0.248711
0.248325
0.248834
0.250276
0.252645
0.2559
0.259957
0.264695
0.26996
0.275569
0.281322
0.287008
0.292412
0.297322
0.301535
0.304862
0.307131
0.308191
0.307914
0.306192
0.30293
0.298044
0.291444
0.283036
0.272734
0.260491
0.246364
0.230591
0.213664
0.196292
0.179569
0.165077
0.152772
0.141661
0.131743
0.122975
0.11532
0.108713
0.103076
0.098319
0.0943486
0.0910664
0.0883753
0.0861832
0.0844061
0.0829701
0.0818119
0.080878
0.0801236
0.0795106
0.0790053
0.0785773
0.0781979
0.0778398
0.077477
0.0770843
0.0766384
0.0761178
0.0755032
0.0747781
0.0739288
0.0729447
0.0718184
0.0705453
0.0691241
0.067556
0.0658449
0.0639971
0.0620214
0.0599286
0.0577319
0.0554468
0.0530909
0.050684
0.0482473
0.0458033
0.0433745
0.040983
0.038649
0.0363903
0.0342215
0.0321536
0.0301943
0.0283484
0.0266141
0.0249852
0.0233193
0.0216286
0.0199427
0.0182942
0.0167174
0.0152452
0.0139056
0.0127187
0.0116946
0.0108324
0.0101208
0.00953944
0.00906203
0.00865914
0.00830199
0.007966
0.00763373
0.0072966
0.00695456
0.00661381
0.00628344
0.00597224
0.00568665
0.00543005
0.00520314
0.00500476
0.00483228
0.00468285
0.00454339
0.00441095
0.00428432
0.00416278
0.00404583
0.00393307
0.00382421
0.003719
0.00361728
0.00351892
0.00342386
0.0033321
0.00324366
0.00315863
0.00307712
0.00299927
0.00292524
0.00285522
0.0027894
0.00272797
0.0026711
0.00261896
0.00257169
0.0025294
0.00249215
0.00245996
0.0024328
0.00241058
0.00239317
0.00238037
0.00237196
0.00236768
0.00236722
0.0023703
0.00237661
0.0023859
0.00239792
0.00241249
0.00242947
0.00244881
0.00247049
0.00249459
0.00252123
0.00255063
0.00258303
0.00261878
0.00265827
0.00270198
0.00275048
0.00280445
0.00286469
0.00293219
0.00300811
0.00309389
0.00319131
0.00330256
0.00343042
0.00357843
0.15207
0.16368
0.176118
0.188934
0.201812
0.214429
0.226378
0.237207
0.246472
0.253829
0.25914
0.262557
0.264523
0.265655
0.266548
0.267634
0.269165
0.271276
0.274049
0.277531
0.281741
0.286665
0.292261
0.298456
0.305149
0.312215
0.319512
0.326877
0.334138
0.341116
0.347631
0.353508
0.35858
0.362699
0.365734
0.367574
0.368129
0.367325
0.365094
0.361363
0.35603
0.348932
0.339816
0.328329
0.314086
0.296888
0.276824
0.254952
0.233796
0.214366
0.196141
0.179382
0.1643
0.151016
0.139538
0.129792
0.121652
0.114954
0.109518
0.105158
0.1017
0.0989853
0.0968747
0.0952533
0.0940268
0.0931193
0.0924691
0.0920254
0.0917449
0.0915894
0.0915244
0.091518
0.0915406
0.0915643
0.0915635
0.0915142
0.0913946
0.0911847
0.0908666
0.0904238
0.0898417
0.0891072
0.0882085
0.0871352
0.0858781
0.0844295
0.0827835
0.0809364
0.0788878
0.0766406
0.0742028
0.0715874
0.0688132
0.0659045
0.0628907
0.0598047
0.0566813
0.0535561
0.0504636
0.0474279
0.0444571
0.0413229
0.0380419
0.0346695
0.0312736
0.0279321
0.024725
0.0217271
0.0189999
0.0165865
0.0145084
0.012767
0.0113464
0.0102175
0.0093421
0.00867571
0.00817065
0.00777917
0.00745753
0.00717038
0.00689444
0.00661949
0.00634576
0.00607918
0.00582678
0.00559398
0.00538371
0.00519643
0.00503173
0.00487641
0.00472741
0.00458358
0.00444435
0.00430938
0.00417844
0.00405136
0.00392804
0.00380842
0.00369251
0.00358037
0.00347208
0.00336778
0.00326767
0.00317192
0.00308077
0.00299443
0.00291314
0.00283712
0.00276657
0.00270167
0.00264255
0.00258933
0.00254204
0.00250068
0.00246521
0.0024355
0.00241137
0.0023926
0.0023789
0.00236996
0.00236542
0.00236492
0.00236811
0.00237462
0.00238416
0.00239645
0.00241128
0.0024285
0.00244805
0.00246991
0.00249415
0.00252092
0.0025504
0.00258288
0.00261867
0.0026582
0.00270193
0.00275045
0.00280443
0.00286468
0.00293218
0.00300811
0.00309389
0.00319131
0.00330256
0.00343042
0.00357843
0.148544
0.15985
0.171979
0.184541
0.197258
0.20986
0.221997
0.233289
0.243357
0.251907
0.258803
0.264134
0.268209
0.27147
0.274363
0.277231
0.2803
0.283712
0.287568
0.291938
0.296869
0.302383
0.308478
0.315127
0.322284
0.329876
0.337813
0.345983
0.354257
0.362493
0.370535
0.378229
0.385415
0.391946
0.397687
0.40252
0.40635
0.409103
0.410728
0.411186
0.410449
0.408482
0.405238
0.400645
0.39458
0.386825
0.37698
0.364541
0.348803
0.329424
0.308124
0.286033
0.263452
0.241112
0.219773
0.200079
0.182457
0.167124
0.154108
0.143298
0.134487
0.127416
0.121815
0.117429
0.11403
0.111427
0.109461
0.108004
0.106955
0.106229
0.10576
0.105493
0.105383
0.105393
0.10549
0.105648
0.105842
0.106051
0.106256
0.10644
0.106585
0.106674
0.106689
0.106612
0.106421
0.106095
0.105608
0.104935
0.104047
0.102917
0.10152
0.0998315
0.0978343
0.0955176
0.0928808
0.089934
0.0867001
0.0832139
0.0795227
0.0756712
0.071676
0.0672623
0.0624413
0.0572881
0.0519111
0.0464465
0.041046
0.0358612
0.0310261
0.026641
0.022764
0.0194118
0.0165673
0.0141927
0.0122417
0.0106678
0.00942758
0.00847879
0.00777595
0.00726724
0.00689627
0.00660929
0.00636461
0.00613807
0.0059212
0.00571462
0.00552167
0.00534494
0.00518693
0.00503583
0.00488871
0.00474459
0.00460317
0.00446433
0.00432804
0.00419431
0.00406321
0.00393489
0.00380953
0.00368735
0.00356866
0.00345377
0.00334304
0.00323685
0.00313558
0.00303961
0.00294929
0.00286496
0.0027869
0.00271534
0.00265045
0.00259233
0.002541
0.00249643
0.00245849
0.00242699
0.00240167
0.00238221
0.00236823
0.00235934
0.00235511
0.00235508
0.00235885
0.00236602
0.00237623
0.00238919
0.00240466
0.0024225
0.00244262
0.00246503
0.00248978
0.00251702
0.00254695
0.00257986
0.00261606
0.00265598
0.00270009
0.00274895
0.00280326
0.00286381
0.00293157
0.00300771
0.00309367
0.0031912
0.00330253
0.00343042
0.00357844
0.142
0.152794
0.164382
0.176445
0.188745
0.20106
0.213096
0.224531
0.23504
0.244359
0.252346
0.259027
0.264603
0.269387
0.273714
0.277864
0.282038
0.286378
0.29099
0.295953
0.301329
0.307154
0.313448
0.320211
0.327422
0.335044
0.343019
0.351273
0.35971
0.368222
0.376683
0.384961
0.392915
0.40041
0.407313
0.413507
0.418893
0.423392
0.42695
0.429533
0.431131
0.431742
0.431362
0.429984
0.42759
0.424153
0.41963
0.41395
0.406959
0.398481
0.388167
0.375447
0.360708
0.344034
0.325379
0.304978
0.283389
0.261411
0.239957
0.219883
0.201832
0.186159
0.172937
0.162025
0.153153
0.146003
0.140264
0.13567
0.132002
0.129088
0.126783
0.124966
0.123532
0.122393
0.121477
0.120732
0.120123
0.119627
0.119231
0.118927
0.118711
0.118581
0.118535
0.11857
0.118678
0.118849
0.119062
0.119289
0.119491
0.119617
0.119607
0.119391
0.118895
0.118047
0.116778
0.115036
0.112785
0.110016
0.106749
0.10302
0.0988381
0.0939132
0.0882306
0.0818646
0.0749488
0.0676725
0.0602655
0.0529769
0.0460447
0.0396657
0.0339706
0.0290148
0.0247832
0.0212083
0.0181925
0.0156313
0.013435
0.0115449
0.00994022
0.00862819
0.00761717
0.00688846
0.00638726
0.00603929
0.00577828
0.00556287
0.00537466
0.0052074
0.00506087
0.00492224
0.00478784
0.00465632
0.00452708
0.00439973
0.00427402
0.00414981
0.00402707
0.00390586
0.00378633
0.00366872
0.00355335
0.00344061
0.00333094
0.00322486
0.00312288
0.00302557
0.00293345
0.00284703
0.00276677
0.00269305
0.00262618
0.00256635
0.00251366
0.0024681
0.00242958
0.00239788
0.00237271
0.0023537
0.00234044
0.00233245
0.00232926
0.00233038
0.00233534
0.00234372
0.00235513
0.00236927
0.00238591
0.00240488
0.00242611
0.00244961
0.00247544
0.00250377
0.0025348
0.00256881
0.00260613
0.00264719
0.00269244
0.00274246
0.0027979
0.00285955
0.00292834
0.00300543
0.00309219
0.00319036
0.00330214
0.00343031
0.00357842
0.133252
0.143376
0.154246
0.165617
0.177288
0.189081
0.200752
0.212026
0.222625
0.232306
0.240917
0.248436
0.254978
0.260759
0.26603
0.271019
0.275904
0.280822
0.285876
0.291151
0.296713
0.302608
0.308865
0.315497
0.322501
0.329855
0.337526
0.34546
0.353589
0.361828
0.370079
0.37823
0.386163
0.393756
0.400889
0.40745
0.413339
0.418475
0.422794
0.42626
0.428861
0.430605
0.431507
0.431578
0.430822
0.429242
0.426837
0.423614
0.419586
0.414781
0.409189
0.402786
0.395519
0.38728
0.378162
0.368159
0.3572
0.345159
0.331887
0.317267
0.301334
0.284394
0.26706