/*--------------------------------*- C++ -*----------------------------------*\
| =========                 |                                                 |
| \\      /  F ield         | OpenFOAM: The Open Source CFD Toolbox           |
|  \\    /   O peration     | Version:  2406                                  |
|   \\  /    A nd           | Website:  www.openfoam.com                      |
|    \\/     M anipulation  |                                                 |
\*---------------------------------------------------------------------------*/
FoamFile
{
    version     2.0;
    format      ascii;
    arch        "LSB;label=32;scalar=64";
    class       volScalarField;
    location    "700";
    object      nut;
}
// * * * * * * * * * * * * * * * * * * * * * * * * * * * * * * * * * * * * * //

dimensions      [0 2 -1 0 0 0 0];

internalField   nonuniform List<scalar> 
5619
(
4.86795e-05
4.96967e-05
5.07363e-05
5.17802e-05
5.27817e-05
5.36897e-05
5.44309e-05
5.49084e-05
5.5001e-05
5.45768e-05
5.35389e-05
5.19306e-05
5.00939e-05
4.87256e-05
4.84719e-05
4.91992e-05
5.02689e-05
5.1455e-05
5.27713e-05
5.41593e-05
5.5542e-05
5.68757e-05
5.81436e-05
5.93418e-05
6.04722e-05
6.15389e-05
6.25458e-05
6.34951e-05
6.43852e-05
6.52099e-05
6.59583e-05
6.66141e-05
6.71566e-05
6.7561e-05
6.77999e-05
6.7844e-05
6.7664e-05
6.72319e-05
6.65226e-05
6.55166e-05
6.42169e-05
6.26242e-05
6.07623e-05
5.86826e-05
5.64744e-05
5.42735e-05
5.22608e-05
5.06336e-05
4.95369e-05
4.89791e-05
4.88108e-05
4.88142e-05
4.88225e-05
4.87584e-05
4.86024e-05
4.83568e-05
4.80924e-05
4.77746e-05
4.74032e-05
4.69803e-05
4.6509e-05
4.59925e-05
4.54461e-05
4.48868e-05
4.43179e-05
4.37451e-05
4.31732e-05
4.26063e-05
4.20476e-05
4.14997e-05
4.09648e-05
4.04444e-05
3.99397e-05
3.94513e-05
3.89798e-05
3.85254e-05
3.80879e-05
3.76672e-05
3.7263e-05
3.68746e-05
3.65015e-05
3.6143e-05
3.57984e-05
3.54668e-05
3.51475e-05
3.48396e-05
3.45424e-05
3.42549e-05
3.39764e-05
3.37062e-05
3.34433e-05
3.31873e-05
3.29372e-05
3.26926e-05
3.24527e-05
3.22169e-05
3.19849e-05
3.17559e-05
3.15296e-05
3.13054e-05
3.10831e-05
3.08399e-05
3.05753e-05
3.02891e-05
2.9982e-05
2.96549e-05
2.93097e-05
2.89485e-05
2.85743e-05
2.81906e-05
2.78014e-05
2.74108e-05
2.7023e-05
2.66424e-05
2.62727e-05
2.59173e-05
2.55792e-05
2.52604e-05
2.49625e-05
2.46863e-05
2.44321e-05
2.41996e-05
2.39882e-05
2.37968e-05
2.36243e-05
2.34695e-05
2.33309e-05
2.32072e-05
2.30972e-05
2.29891e-05
2.28825e-05
2.27766e-05
2.2671e-05
2.25652e-05
2.24588e-05
2.23514e-05
2.22425e-05
2.2132e-05
2.20193e-05
2.19043e-05
2.17868e-05
2.16665e-05
2.15432e-05
2.1417e-05
2.12876e-05
2.11552e-05
2.10199e-05
2.08818e-05
2.07411e-05
2.05982e-05
2.04536e-05
2.03077e-05
2.01613e-05
2.00151e-05
1.98699e-05
1.97267e-05
1.95866e-05
1.94506e-05
1.93199e-05
1.91957e-05
1.90792e-05
1.89713e-05
1.88733e-05
1.87857e-05
1.87094e-05
1.86448e-05
1.8592e-05
1.8551e-05
1.85214e-05
1.85027e-05
1.8494e-05
1.84945e-05
1.85033e-05
1.85193e-05
1.85417e-05
1.85704e-05
1.86068e-05
1.86552e-05
1.87249e-05
1.88323e-05
1.90024e-05
1.92663e-05
1.96501e-05
2.01489e-05
2.06659e-05
2.08467e-05
1.95834e-05
0.000227314
0.00024097
0.000256075
0.000271125
0.000285717
0.000299125
0.000310418
0.00031831
0.000321073
0.000316442
0.000301666
0.000274027
0.000232511
0.000181115
0.000131407
9.70232e-05
8.18926e-05
8.00993e-05
8.48036e-05
9.18385e-05
9.922e-05
0.000106159
0.000112398
0.000117889
0.000122671
0.000126833
0.000130496
0.000133805
0.000136915
0.000139982
0.000143154
0.00014656
0.000150305
0.000154462
0.000159065
0.000164099
0.000169486
0.000175063
0.00018056
0.000185454
0.000189804
0.000193112
0.000194536
0.000192996
0.000187241
0.000176071
0.00015876
0.000135683
0.000108888
8.20699e-05
5.93653e-05
4.33103e-05
3.37248e-05
2.86906e-05
2.62179e-05
2.50043e-05
2.44811e-05
2.43106e-05
2.4311e-05
2.44099e-05
2.45542e-05
2.46949e-05
2.48074e-05
2.49269e-05
2.50468e-05
2.51608e-05
2.5264e-05
2.53529e-05
2.54251e-05
2.54795e-05
2.55157e-05
2.55342e-05
2.55361e-05
2.55231e-05
2.54971e-05
2.54602e-05
2.54146e-05
2.53626e-05
2.53065e-05
2.52483e-05
2.51899e-05
2.5133e-05
2.50793e-05
2.50299e-05
2.4986e-05
2.49486e-05
2.49181e-05
2.48953e-05
2.48804e-05
2.48735e-05
2.48749e-05
2.48845e-05
2.49022e-05
2.49279e-05
2.49614e-05
2.50025e-05
2.5051e-05
2.51067e-05
2.51695e-05
2.52389e-05
2.53151e-05
2.54068e-05
2.55163e-05
2.56462e-05
2.57989e-05
2.59769e-05
2.61824e-05
2.64171e-05
2.6682e-05
2.69775e-05
2.73029e-05
2.76562e-05
2.80345e-05
2.84336e-05
2.88486e-05
2.92738e-05
2.97031e-05
3.01306e-05
3.05507e-05
3.09582e-05
3.1349e-05
3.17196e-05
3.20676e-05
3.23914e-05
3.26904e-05
3.29644e-05
3.32139e-05
3.34397e-05
3.3643e-05
3.38456e-05
3.40483e-05
3.42522e-05
3.44582e-05
3.46672e-05
3.48802e-05
3.5098e-05
3.53214e-05
3.55514e-05
3.57887e-05
3.60342e-05
3.62884e-05
3.65522e-05
3.68261e-05
3.71105e-05
3.74058e-05
3.77121e-05
3.80297e-05
3.83581e-05
3.8697e-05
3.90456e-05
3.94028e-05
3.97672e-05
4.01368e-05
4.05093e-05
4.08818e-05
4.12509e-05
4.16128e-05
4.1963e-05
4.22967e-05
4.26087e-05
4.28935e-05
4.31453e-05
4.33584e-05
4.3527e-05
4.36453e-05
4.37076e-05
4.37082e-05
4.36409e-05
4.3499e-05
4.3274e-05
4.2955e-05
4.25272e-05
4.20018e-05
4.1377e-05
4.06151e-05
3.9668e-05
3.84746e-05
3.69649e-05
3.50718e-05
3.27606e-05
3.00764e-05
2.72041e-05
2.45109e-05
2.25527e-05
2.21281e-05
2.48023e-05
3.63038e-05
0.000615279
0.000655873
0.000699723
0.000743178
0.000785282
0.0008244
0.000858432
0.00088448
0.000898594
0.000895457
0.000868186
0.000808815
0.000710851
0.000576027
0.00042435
0.000293447
0.000210448
0.000170077
0.000153901
0.00014941
0.000150698
0.000155101
0.000161318
0.000168644
0.000176689
0.000185257
0.000194286
0.000203801
0.000213887
0.000224661
0.000236253
0.000248792
0.000262394
0.000277149
0.000293104
0.000310239
0.000328436
0.000347438
0.000366795
0.000386029
0.000405561
0.000424787
0.000442849
0.000458576
0.000470434
0.000476504
0.000474531
0.000462121
0.000437226
0.00039909
0.00034958
0.000294126
0.000240858
0.000197462
0.000167696
0.000150554
0.000142555
0.000140172
0.00014123
0.000143639
0.000146434
0.000149349
0.000152128
0.000154644
0.000156788
0.00015849
0.000159707
0.00016042
0.000160624
0.000160331
0.000159559
0.000158341
0.000156711
0.00015471
0.000152384
0.000149778
0.000146937
0.000143907
0.00014073
0.000137448
0.000134098
0.000130715
0.00012733
0.000123969
0.000120656
0.000117412
0.000114251
0.000111186
0.000108227
0.000105379
0.000102648
0.000100034
9.75367e-05
9.51544e-05
9.28836e-05
9.072e-05
8.86586e-05
8.66942e-05
8.48214e-05
8.30325e-05
8.13219e-05
7.95211e-05
7.76381e-05
7.56915e-05
7.37024e-05
7.16963e-05
6.97015e-05
6.77481e-05
6.5866e-05
6.40834e-05
6.2425e-05
6.09099e-05
5.95511e-05
5.83548e-05
5.73206e-05
5.64427e-05
5.57106e-05
5.51108e-05
5.46279e-05
5.42458e-05
5.39491e-05
5.3723e-05
5.35544e-05
5.34317e-05
5.33451e-05
5.32865e-05
5.32493e-05
5.32275e-05
5.32173e-05
5.32154e-05
5.32208e-05
5.32335e-05
5.32532e-05
5.32798e-05
5.33135e-05
5.33543e-05
5.34024e-05
5.34583e-05
5.35222e-05
5.35946e-05
5.36759e-05
5.37666e-05
5.38672e-05
5.3978e-05
5.40994e-05
5.42316e-05
5.43748e-05
5.45289e-05
5.46933e-05
5.48675e-05
5.50503e-05
5.52399e-05
5.54342e-05
5.56302e-05
5.58241e-05
5.60112e-05
5.61862e-05
5.63424e-05
5.64725e-05
5.6568e-05
5.66199e-05
5.66183e-05
5.65528e-05
5.64129e-05
5.61881e-05
5.5868e-05
5.54429e-05
5.49037e-05
5.42423e-05
5.34522e-05
5.25284e-05
5.14752e-05
5.03463e-05
4.91421e-05
4.78719e-05
4.65592e-05
4.52498e-05
4.4022e-05
4.30006e-05
4.23719e-05
4.24008e-05
4.3452e-05
4.60461e-05
5.10418e-05
6.02111e-05
7.81215e-05
0.000121797
0.0012133
0.00128616
0.00136454
0.00144231
0.00151798
0.00158899
0.00165201
0.00170239
0.00173379
0.00173757
0.00170247
0.00161503
0.00146288
0.00124378
0.000981692
0.000734087
0.00055586
0.000451082
0.000392533
0.000358212
0.000337261
0.000325024
0.000319437
0.000319353
0.000323913
0.000332386
0.000344154
0.000358739
0.000375806
0.000395142
0.000416628
0.000440205
0.000465834
0.00049346
0.000522967
0.000554137
0.000586608
0.000619833
0.000653061
0.000686416
0.000720122
0.000753443
0.000785367
0.000814566
0.000839374
0.000857817
0.000867725
0.000866978
0.000853903
0.000827804
0.000789489
0.000741583
0.000688383
0.000635096
0.000586528
0.000546024
0.000515415
0.000495108
0.00048381
0.000479019
0.000478279
0.000479716
0.000482074
0.000484577
0.000486762
0.00048835
0.000489181
0.000489166
0.000488261
0.000486457
0.000483767
0.000480222
0.000475867
0.000470755
0.000464944
0.000458498
0.000451483
0.000443964
0.000436006
0.000427673
0.000419026
0.000410124
0.000401024
0.000391779
0.000382439
0.00037305
0.000363656
0.000354296
0.000345006
0.000335817
0.000326756
0.000317845
0.000309103
0.000300543
0.000292175
0.000284005
0.000276034
0.000268264
0.000260694
0.000253305
0.000246077
0.000238336
0.000230066
0.000221317
0.000212152
0.000202662
0.000192958
0.000183173
0.000173451
0.000163944
0.000154796
0.000146137
0.000138072
0.000130674
0.000123987
0.000118019
0.000112754
0.000108154
0.000104167
0.000100735
9.77939e-05
9.52834e-05
9.31458e-05
9.13284e-05
8.97844e-05
8.84728e-05
8.73587e-05
8.641e-05
8.56008e-05
8.48365e-05
8.41085e-05
8.34121e-05
8.27428e-05
8.20968e-05
8.1471e-05
8.08627e-05
8.02697e-05
7.96906e-05
7.91239e-05
7.85689e-05
7.80252e-05
7.74926e-05
7.69713e-05
7.64618e-05
7.59648e-05
7.54813e-05
7.50122e-05
7.45587e-05
7.4122e-05
7.37031e-05
7.33028e-05
7.29219e-05
7.25603e-05
7.2218e-05
7.18941e-05
7.1587e-05
7.12946e-05
7.10141e-05
7.07422e-05
7.04751e-05
7.02088e-05
6.99398e-05
6.96652e-05
6.93834e-05
6.90948e-05
6.88025e-05
6.85131e-05
6.82372e-05
6.79904e-05
6.7794e-05
6.76751e-05
6.77171e-05
6.80029e-05
6.85944e-05
6.95768e-05
7.10603e-05
7.31862e-05
7.61314e-05
8.01146e-05
8.54027e-05
9.23282e-05
0.000101343
0.000113168
0.00012918
0.000152363
0.000189886
0.000263035
0.00197951
0.00208703
0.00220299
0.00231861
0.00243176
0.00253875
0.00263473
0.00271281
0.00276351
0.00277393
0.00272721
0.00260333
0.00238377
0.00206499
0.00168231
0.00131964
0.0010541
0.000891564
0.000795662
0.000735135
0.000692909
0.000661191
0.000637056
0.000619805
0.000609459
0.000605991
0.000609074
0.000618115
0.00063239
0.000651163
0.000673751
0.000699535
0.000727939
0.000758394
0.000790301
0.000823003
0.000855775
0.000887828
0.000918337
0.000947668
0.000975844
0.00100228
0.00102627
0.00104701
0.00106358
0.00107499
0.0010802
0.00107825
0.00106839
0.00105025
0.00102407
0.000990818
0.000952403
0.00091169
0.000872192
0.000837184
0.000808559
0.000786446
0.000770076
0.00075874
0.000751811
0.000748442
0.000747615
0.000748376
0.000749971
0.000751855
0.000753649
0.000755092
0.000756006
0.000756268
0.000755799
0.000754552
0.000752502
0.000749648
0.000746002
0.000741588
0.00073644
0.000730598
0.000724106
0.000717013
0.000709365
0.00070121
0.000692595
0.000683565
0.000674164
0.000664433
0.000654413
0.000644142
0.000633657
0.000622993
0.000612183
0.000601259
0.000590248
0.000579178
0.000568072
0.00055695
0.000545829
0.000534723
0.000523653
0.000512596
0.000501495
0.0004894
0.000476189
0.000461859
0.000446435
0.000429985
0.000412625
0.00039452
0.000375891
0.000356997
0.000338132
0.000319599
0.000301694
0.000284676
0.000268757
0.000254086
0.000240748
0.000228767
0.000218118
0.000208735
0.000200526
0.000193385
0.000187202
0.000181864
0.000177266
0.000173313
0.000169918
0.000166999
0.000164483
0.000162093
0.000159801
0.000157591
0.000155452
0.000153372
0.000151341
0.000149352
0.000147398
0.000145473
0.000143574
0.000141697
0.000139841
0.000138006
0.000136191
0.000134398
0.00013263
0.000130891
0.000129185
0.000127518
0.000125896
0.000124325
0.000122814
0.00012137
0.000120003
0.00011872
0.000117532
0.000116447
0.000115474
0.000114624
0.000113907
0.000113333
0.000112912
0.000112658
0.000112583
0.000112701
0.000113031
0.000113589
0.000114399
0.000115482
0.000116866
0.000118581
0.000120662
0.000123236
0.000126467
0.000130385
0.000135068
0.00014061
0.000147122
0.00015474
0.000163632
0.00017403
0.000186277
0.000200923
0.000218901
0.000241842
0.000272641
0.000316374
0.000381118
0.00286336
0.00300764
0.00316379
0.0033203
0.00347413
0.00362015
0.00375141
0.00385802
0.00392623
0.00393744
0.00386776
0.00368987
0.00338135
0.00294548
0.0024412
0.00197902
0.0016417
0.00142822
0.0012968
0.00121129
0.00114975
0.00110038
0.00105766
0.00101979
0.000986942
0.000960037
0.000939888
0.000926803
0.00092051
0.000920278
0.000925104
0.000933877
0.000945493
0.000958925
0.00097326
0.000987717
0.00100166
0.00101459
0.00102616
0.00103648
0.00104608
0.00105487
0.00106278
0.00106964
0.00107522
0.00107919
0.00108114
0.00108061
0.0010771
0.00107012
0.00105926
0.00104423
0.001025
0.00100199
0.000976279
0.000949601
0.000924116
0.000901812
0.000883905
0.000870647
0.000861629
0.000856226
0.000853814
0.000853798
0.000855607
0.00085872
0.00086269
0.000867151
0.000871809
0.000876428
0.000880816
0.000884821
0.000888322
0.000891223
0.000893454
0.000894966
0.00089573
0.000895731
0.00089497
0.00089346
0.000891221
0.00088828
0.00088467
0.000880424
0.000875577
0.000870163
0.000864217
0.000857771
0.000850856
0.0008435
0.000835733
0.000827579
0.000819063
0.00081021
0.00080104
0.000791574
0.00078183
0.000771828
0.000761593
0.000751101
0.000740262
0.000728225
0.000714778
0.000699832
0.000683321
0.000665225
0.000645577
0.000624481
0.000602116
0.000578744
0.000554698
0.000530371
0.000506182
0.000482547
0.000459846
0.000438396
0.00041843
0.000400099
0.00038347
0.00036854
0.000355253
0.000343515
0.000333206
0.000324194
0.000316346
0.000309532
0.000303632
0.000298518
0.000294071
0.00028984
0.000285765
0.000281821
0.000277987
0.000274245
0.00027058
0.000266977
0.000263427
0.000259919
0.000256446
0.000253005
0.000249592
0.000246206
0.000242849
0.000239525
0.000236238
0.000232997
0.00022981
0.00022669
0.00022365
0.000220703
0.000217867
0.000215159
0.000212598
0.000210202
0.000207992
0.000205987
0.000204208
0.000202675
0.000201408
0.000200426
0.000199749
0.000199394
0.00019938
0.000199725
0.000200446
0.00020156
0.000203084
0.000205036
0.000207434
0.000210299
0.000213658
0.000217542
0.000222165
0.000227533
0.000233666
0.00024062
0.000248476
0.000257346
0.000267388
0.000278827
0.000291988
0.000307328
0.000325489
0.000347316
0.000373771
0.000405362
0.000440263
0.00380843
0.00399107
0.00418919
0.00438852
0.0045847
0.0047707
0.00493686
0.00506935
0.00514912
0.00515084
0.00504338
0.00479443
0.00438474
0.00383591
0.00323466
0.00270235
0.00230961
0.00204754
0.00187541
0.00175745
0.00166955
0.00159669
0.00153022
0.001466
0.00140295
0.00134186
0.00128434
0.00123196
0.00118582
0.00114632
0.00111323
0.00108591
0.00106348
0.00104506
0.00102983
0.00101715
0.00100654
0.000997677
0.000990366
0.00098448
0.000979727
0.00097613
0.000973529
0.000971793
0.000970761
0.000970213
0.000969875
0.000969428
0.000968512
0.000966731
0.000963656
0.000958831
0.000951805
0.000942207
0.000929863
0.000914925
0.000897968
0.00087997
0.000862158
0.000845752
0.000831706
0.000820562
0.000812465
0.000807271
0.000804685
0.000804353
0.000805924
0.000809073
0.000813516
0.000818998
0.000825295
0.000832202
0.000839532
0.00084711
0.000854777
0.000862387
0.000869809
0.000876925
0.00088364
0.000889872
0.000895558
0.000900653
0.000905126
0.000908958
0.000912142
0.000914679
0.000916575
0.000917841
0.000918487
0.000918528
0.000917976
0.000916842
0.000915137
0.000912871
0.000910053
0.000906689
0.000902785
0.000898348
0.000893394
0.000887889
0.000881748
0.000874534
0.000865978
0.000855877
0.000844023
0.000830235
0.00081437
0.000796354
0.000776207
0.000754071
0.000730215
0.00070504
0.000679048
0.000652805
0.000626882
0.000601802
0.000578001
0.000555795
0.000535383
0.000516856
0.000500214
0.000485393
0.000472284
0.000460754
0.000450655
0.000441842
0.000434176
0.000427503
0.000421662
0.000416109
0.000410754
0.000405565
0.000400512
0.000395576
0.000390735
0.000385973
0.000381277
0.000376636
0.00037204
0.000367485
0.000362967
0.000358485
0.000354042
0.000349643
0.000345294
0.000341008
0.000336796
0.000332675
0.000328661
0.000324775
0.000321038
0.000317473
0.000314103
0.000310953
0.000308048
0.00030541
0.000303062
0.000301026
0.000299321
0.000297965
0.000296973
0.00029636
0.000296138
0.000296315
0.000296901
0.000297903
0.000299328
0.000301184
0.000303478
0.00030622
0.000309423
0.000313103
0.000317283
0.000322129
0.000327601
0.000333732
0.000340574
0.000348197
0.00035669
0.000366166
0.000376751
0.000388577
0.000401736
0.000416199
0.000431635
0.000447095
0.000460657
0.00475332
0.00497431
0.00521416
0.00545578
0.00569306
0.00591672
0.00611378
0.00626596
0.00634858
0.0063302
0.00617508
0.00585216
0.00535493
0.00472857
0.00407589
0.00350738
0.00307415
0.00276469
0.00254537
0.0023853
0.00226127
0.00215684
0.00206087
0.00196654
0.00187051
0.00177211
0.00167255
0.00157408
0.00147927
0.00139044
0.00130928
0.00123677
0.00117317
0.00111825
0.00107144
0.00103202
0.000999187
0.000972187
0.000950303
0.00093288
0.00091921
0.000908243
0.000899247
0.000891782
0.000885587
0.000880435
0.0008761
0.000872342
0.000868906
0.000865515
0.000861868
0.000857636
0.000852466
0.000845996
0.000837894
0.000827909
0.000815936
0.000802068
0.000786624
0.000770139
0.000753295
0.000736818
0.000721372
0.000707469
0.00069543
0.000685397
0.000677374
0.000671278
0.000666987
0.000664366
0.000663291
0.000663645
0.000665328
0.000668244
0.0006723
0.000677403
0.000683453
0.000690347
0.000697975
0.000706219
0.000714963
0.000724087
0.000733476
0.000743021
0.000752621
0.000762185
0.000771633
0.000780896
0.000789915
0.000798638
0.000807024
0.000815035
0.000822638
0.000829806
0.000836511
0.000842727
0.00084843
0.000853597
0.000858214
0.000862223
0.000865591
0.000868674
0.000871227
0.000872963
0.000873522
0.000872491
0.000869424
0.000863871
0.000855433
0.000843819
0.000828911
0.000810824
0.000789926
0.000766821
0.000742284
0.000717162
0.000692262
0.00066827
0.000645694
0.000624862
0.000605932
0.000588939
0.000573827
0.000560481
0.000548759
0.000538504
0.000529569
0.000521776
0.000514932
0.000508437
0.000502179
0.000496115
0.000490213
0.000484448
0.000478798
0.000473245
0.000467775
0.000462375
0.000457036
0.000451754
0.000446524
0.000441348
0.000436229
0.000431174
0.000426191
0.000421295
0.0004165
0.000411824
0.000407289
0.000402917
0.000398731
0.000394757
0.00039102
0.000387545
0.000384356
0.000381475
0.00037892
0.000376709
0.000374854
0.000373365
0.000372247
0.000371504
0.000371134
0.000371135
0.000371501
0.000372228
0.000373309
0.000374737
0.000376509
0.000378622
0.000381074
0.000383866
0.000387005
0.000390496
0.00039443
0.000398773
0.000403532
0.000408717
0.000414333
0.000420379
0.000426833
0.000433639
0.000440688
0.000447783
0.00045462
0.00046078
0.000465842
0.00563311
0.00588979
0.00616797
0.00644792
0.00672147
0.00697694
0.00719803
0.00736235
0.00744082
0.00739873
0.00720116
0.00682574
0.00628349
0.00563607
0.00498286
0.00441068
0.00395399
0.00360422
0.00333795
0.00313212
0.0029675
0.00282873
0.00270403
0.00258489
0.00246574
0.00234357
0.00221752
0.00208832
0.00195787
0.00182875
0.00170376
0.00158554
0.00147628
0.0013775
0.00129001
0.00121396
0.00114896
0.00109426
0.00104886
0.0010117
0.000981638
0.000957853
0.000938848
0.000922728
0.000908769
0.000896586
0.000885929
0.000876605
0.000868428
0.000861191
0.000854655
0.000848544
0.000842545
0.000836315
0.000829495
0.000821734
0.000812718
0.000802201
0.000790036
0.000776202
0.000760813
0.000744112
0.000726443
0.000708212
0.000689832
0.000671679
0.000654062
0.000637208
0.00062127
0.000606338
0.000592466
0.000579683
0.000568016
0.00055749
0.000548137
0.000539993
0.000533098
0.000527488
0.000523196
0.00052024
0.000518628
0.000518348
0.00051937
0.000521647
0.000525115
0.000529695
0.0005353
0.000541835
0.000549204
0.000557311
0.000566064
0.000575378
0.000585174
0.000595378
0.000605926
0.000616759
0.000627822
0.000639065
0.000650449
0.000661902
0.000673434
0.000686208
0.000700234
0.000715429
0.000731575
0.000748309
0.000765088
0.000781169
0.000795621
0.000807381
0.000815362
0.000818617
0.000816522
0.000808935
0.000796267
0.000779427
0.000759655
0.000738283
0.000716526
0.000695344
0.000675392
0.000657049
0.000640477
0.000625693
0.000612619
0.000601131
0.000591088
0.00058231
0.000574581
0.000567258
0.000560209
0.000553382
0.000546739
0.000540253
0.000533903
0.000527668
0.000521534
0.00051549
0.000509525
0.000503636
0.000497821
0.000492081
0.000486421
0.00048085
0.00047538
0.000470025
0.000464803
0.000459735
0.000454843
0.000450152
0.000445687
0.000441473
0.000437536
0.000433898
0.000430582
0.000427604
0.000424979
0.000422716
0.00042082
0.000419288
0.000418116
0.000417292
0.000416804
0.000416633
0.000416762
0.000417171
0.000417841
0.000418755
0.000419898
0.000421255
0.000422815
0.00042457
0.000426513
0.000428637
0.000430942
0.000433451
0.00043614
0.000438994
0.000441997
0.000445123
0.000448341
0.000451609
0.000454871
0.000458068
0.00046114
0.000464056
0.000466849
0.00638184
0.00666836
0.00697802
0.0072889
0.00759085
0.00787017
0.00810799
0.00827935
0.00835353
0.0082969
0.00808071
0.00769485
0.00716407
0.00655269
0.00594304
0.00539768
0.00494057
0.00456818
0.00426713
0.00402288
0.00382197
0.00365247
0.00350409
0.00336843
0.00323892
0.00311082
0.00298099
0.00284771
0.00271036
0.00256921
0.00242525
0.00228001
0.00213539
0.00199358
0.00185686
0.00172743
0.00160725
0.00149784
0.00140021
0.00131479
0.00124144
0.00117954
0.00112881
0.00108905
0.00105505
0.00102566
0.00100005
0.000977879
0.000958856
0.000942782
0.000929446
0.000918588
0.000909878
0.000902922
0.00089727
0.000892438
0.000887926
0.000883253
0.000877973
0.000871702
0.000864135
0.000855059
0.000844354
0.000831995
0.000818039
0.000802605
0.000785856
0.000767976
0.000749153
0.000729567
0.000709384
0.000688757
0.000667831
0.000646747
0.000625651
0.000604691
0.000584026
0.000563819
0.000544236
0.000525444
0.000507601
0.000490854
0.000475334
0.00046115
0.000448387
0.000437104
0.000427333
0.000419081
0.000412335
0.000407058
0.000403202
0.000400708
0.000399511
0.000399545
0.000400749
0.000403061
0.000406432
0.000410819
0.000416191
0.000422506
0.000429768
0.000438896
0.000450243
0.000464206
0.000481173
0.000501491
0.000525395
0.000552908
0.000583721
0.000617059
0.000651577
0.000685344
0.000715999
0.000741106
0.000758663
0.000767603
0.000768051
0.000761229
0.000749035
0.000733527
0.000716511
0.00069933
0.000682858
0.000667582
0.000653719
0.000641321
0.000630347
0.00062067
0.000612095
0.000603956
0.00059611
0.000588496
0.000581078
0.000573828
0.000566724
0.000559749
0.000552889
0.000546133
0.000539475
0.00053291
0.00052644
0.000520067
0.0005138
0.00050765
0.00050163
0.000495758
0.000490054
0.000484542
0.000479246
0.000474191
0.000469405
0.000464912
0.000460736
0.0004569
0.00045342
0.000450311
0.000447581
0.00044523
0.000443257
0.000441649
0.000440391
0.000439462
0.000438836
0.000438487
0.000438386
0.000438505
0.000438816
0.000439295
0.000439921
0.000440676
0.000441547
0.000442521
0.00044359
0.000444748
0.000445989
0.000447312
0.00044872
0.000450206
0.000451762
0.000453385
0.000455071
0.000456819
0.000458633
0.000460523
0.000462515
0.000464652
0.000467002
0.00693716
0.00724494
0.00757639
0.00790836
0.00822924
0.00852425
0.00877345
0.00895163
0.00902955
0.00897828
0.00877754
0.0084275
0.00795811
0.00742566
0.00689229
0.0064018
0.00597209
0.00560393
0.0052915
0.00502733
0.0048037
0.00461299
0.00444786
0.00430154
0.00416805
0.00404226
0.00392001
0.003798
0.00367377
0.00354555
0.00341218
0.00327304
0.00312793
0.00297704
0.00282091
0.00266043
0.00249691
0.00233216
0.00216853
0.00200891
0.00185655
0.00171475
0.00158646
0.0014736
0.00138122
0.00130578
0.00123968
0.00118212
0.00113219
0.00108951
0.00105369
0.00102434
0.00100101
0.000983191
0.000970287
0.000961624
0.000956485
0.000954137
0.000953859
0.000954966
0.000956826
0.000958881
0.000960642
0.0009617
0.000961712
0.000960404
0.000957555
0.000952993
0.000946589
0.000938247
0.000927901
0.000915513
0.00090107
0.000884587
0.000866108
0.000845712
0.000823508
0.000799645
0.000774306
0.000747709
0.000720102
0.000691758
0.000662971
0.000634043
0.000605279
0.000576976
0.000549417
0.000522855
0.000497515
0.000473579
0.000451189
0.000430445
0.000411404
0.000394087
0.000378485
0.000364564
0.000352275
0.00034156
0.000332361
0.000324603
0.000318206
0.000312741
0.000308554
0.000306156
0.000306152
0.000309247
0.000316243
0.000328018
0.000345485
0.000369503
0.00040071
0.000439242
0.000484357
0.000534049
0.000584882
0.000632362
0.000671964
0.000700477
0.000716933
0.000722569
0.000719974
0.000712026
0.000701165
0.000689129
0.000677009
0.000665424
0.000654694
0.000644927
0.000636068
0.00062755
0.000619245
0.000611105
0.000603101
0.000595218
0.000587445
0.000579773
0.000572195
0.000564709
0.000557312
0.000550009
0.000542804
0.000535707
0.000528732
0.000521894
0.000515213
0.000508711
0.000502414
0.000496348
0.00049054
0.000485021
0.000479817
0.000474955
0.000470458
0.000466348
0.000462637
0.000459337
0.000456449
0.000453969
0.000451886
0.000450182
0.000448833
0.00044781
0.00044708
0.000446609
0.000446362
0.000446306
0.000446409
0.000446645
0.000446992
0.00044743
0.000447947
0.000448533
0.00044918
0.000449887
0.000450652
0.000451477
0.000452363
0.000453318
0.000454345
0.000455454
0.000456654
0.000457959
0.00045939
0.000460972
0.000462739
0.000464736
0.000467019
0.00724812
0.00756687
0.00790874
0.00825082
0.00858086
0.00888422
0.00914162
0.0093297
0.00942299
0.00939857
0.0092436
0.00896371
0.00858703
0.00815795
0.00772133
0.00730819
0.00693267
0.00659803
0.00630301
0.0060448
0.00581995
0.00562458
0.00545445
0.00530515
0.00517228
0.00505161
0.00493922
0.00483159
0.00472562
0.0046187
0.00450861
0.00439359
0.00427224
0.00414346
0.00400644
0.00386051
0.00370517
0.00353992
0.00336435
0.0031782
0.00298168
0.00277594
0.00256363
0.00234947
0.00213988
0.00194473
0.00177751
0.00163636
0.00151065
0.00140005
0.00130395
0.00122198
0.00115349
0.00109763
0.00105337
0.00101959
0.000995077
0.000978581
0.000968893
0.000964864
0.000965442
0.000969693
0.000976806
0.000986084
0.000996936
0.00100885
0.00102139
0.00103414
0.00104673
0.00105879
0.00106998
0.00107993
0.00108829
0.00109474
0.00109892
0.00110052
0.00109925
0.00109484
0.00108707
0.00107578
0.00106088
0.00104233
0.00102017
0.000994557
0.000965692
0.000933874
0.000899473
0.000862923
0.000824706
0.000785337
0.000745342
0.00070524
0.000665522
0.000626634
0.000588959
0.000552813
0.000518438
0.000486008
0.000455637
0.000427351
0.000401037
0.000374506
0.000348099
0.000322461
0.000298341
0.000276561
0.000257973
0.000243435
0.000233805
0.00022997
0.0002329
0.00024371
0.000263659
0.000293991
0.000335482
0.000387603
0.000447518
0.00050964
0.000566723
0.000612458
0.000643892
0.000661836
0.000669369
0.000669987
0.000666518
0.000660882
0.00065427
0.000647365
0.000640525
0.000633587
0.000626519
0.000619319
0.000612002
0.000604586
0.00059709
0.000589533
0.00058193
0.000574299
0.000566658
0.000559027
0.000551427
0.000543883
0.000536421
0.000529072
0.000521867
0.000514841
0.00050803
0.000501469
0.000495197
0.000489247
0.000483653
0.000478446
0.000473651
0.000469288
0.000465371
0.000461906
0.000458892
0.000456318
0.000454169
0.000452418
0.000451036
0.000449988
0.000449234
0.000448735
0.000448453
0.000448351
0.000448396
0.000448561
0.000448821
0.000449161
0.000449566
0.000450029
0.000450546
0.000451115
0.000451738
0.000452418
0.000453161
0.000453974
0.000454867
0.000455852
0.000456941
0.000458153
0.00045951
0.000461037
0.000462768
0.000464745
0.00046702
0.00728407
0.00760288
0.00794337
0.00828435
0.0086139
0.00891862
0.00918119
0.00938142
0.00949838
0.00951468
0.00942238
0.00922842
0.00895581
0.0086376
0.00830592
0.00798326
0.00768113
0.00740376
0.00715213
0.00692589
0.00672407
0.00654519
0.00638733
0.00624814
0.00612498
0.00601502
0.00591534
0.00582304
0.00573537
0.00564975
0.00556385
0.00547559
0.00538316
0.00528501
0.00517977
0.00506627
0.00494339
0.00481011
0.00466534
0.00450798
0.00433678
0.00415032
0.00394687
0.00372451
0.00348157
0.00321836
0.00293783
0.00265206
0.00238611
0.00214889
0.00193185
0.00173674
0.00156502
0.00141733
0.0012932
0.0011913
0.0011097
0.00104614
0.000998247
0.000963691
0.000940292
0.000926104
0.000919458
0.000918971
0.000923538
0.000932297
0.000944591
0.000959919
0.000977896
0.000998206
0.00102058
0.00104475
0.00107046
0.00109742
0.0011253
0.00115373
0.00118226
0.00121039
0.00123752
0.00126301
0.00128614
0.00130614
0.00132223
0.00133362
0.00133961
0.00133956
0.00133299
0.00131959
0.00129926
0.0012721
0.00123845
0.00119886
0.00115404
0.00110485
0.00105223
0.00099716
0.000940604
0.000883472
0.000826594
0.000770627
0.000715739
0.000657932
0.000597689
0.000536206
0.000475023
0.000415884
0.000360565
0.000310681
0.000267504
0.000231872
0.000204209
0.000184665
0.000173342
0.000170555
0.000177069
0.000194219
0.000223726
0.000266881
0.00032287
0.000386913
0.000450374
0.000504332
0.000544029
0.000569923
0.00058532
0.000593753
0.000597836
0.000599218
0.000598959
0.000597766
0.000595774
0.000593061
0.000589701
0.000585762
0.000581307
0.000576391
0.000571066
0.000565381
0.000559382
0.000553117
0.000546637
0.000539991
0.000533234
0.000526421
0.00051961
0.00051286
0.000506232
0.000499784
0.000493573
0.000487653
0.000482073
0.000476875
0.000472097
0.000467763
0.000463892
0.000460493
0.000457561
0.000455087
0.000453049
0.000451418
0.000450158
0.000449231
0.000448594
0.000448205
0.000448021
0.000448006
0.000448126
0.000448353
0.000448665
0.000449046
0.000449483
0.000449971
0.000450506
0.000451088
0.00045172
0.000452407
0.000453154
0.00045397
0.000454865
0.000455851
0.000456941
0.000458153
0.00045951
0.000461037
0.000462768
0.000464745
0.00046702
0.00704094
0.0073493
0.00767706
0.00800612
0.00832556
0.00862398
0.00888667
0.00909706
0.00923852
0.00929796
0.00927008
0.00916087
0.00898768
0.00877444
0.00854432
0.00831408
0.00809315
0.00788589
0.00769409
0.00751847
0.00735915
0.00721584
0.00708788
0.00697424
0.00687355
0.0067842
0.00670431
0.00663189
0.00656491
0.0065013
0.00643909
0.00637641
0.00631154
0.0062429
0.00616906
0.00608871
0.00600063
0.00590363
0.00579654
0.00567813
0.00554707
0.00540186
0.00524087
0.0050623
0.00486426
0.0046447
0.00440095
0.00413055
0.00383034
0.00350186
0.00316925
0.00284699
0.00253545
0.00224192
0.00197368
0.00173623
0.00153235