/*--------------------------------*- C++ -*----------------------------------*\
| =========                 |                                                 |
| \\      /  F ield         | OpenFOAM: The Open Source CFD Toolbox           |
|  \\    /   O peration     | Version:  2406                                  |
|   \\  /    A nd           | Website:  www.openfoam.com                      |
|    \\/     M anipulation  |                                                 |
\*---------------------------------------------------------------------------*/
FoamFile
{
    version     2.0;
    format      ascii;
    arch        "LSB;label=32;scalar=64";
    class       volScalarField;
    location    "700";
    object      p_rgh;
}
// * * * * * * * * * * * * * * * * * * * * * * * * * * * * * * * * * * * * * //

dimensions      [0 2 -2 0 0 0 0];

internalField   nonuniform List<scalar> 
5619
(
-0.00385754
0.00755439
0.011959
0.0173088
0.0215283
0.0252917
0.0283909
0.0308975
0.032788
0.0340797
0.0347637
0.0348351
0.0342741
0.0328302
0.0292772
0.0205215
0.00288977
-0.0252264
-0.0631014
-0.109675
-0.164553
-0.227567
-0.298347
-0.376313
-0.460723
-0.5507
-0.645275
-0.743428
-0.844103
-0.946208
-1.0486
-1.15006
-1.24926
-1.34475
-1.43496
-1.51826
-1.59292
-1.65723
-1.70952
-1.74889
-1.7747
-1.78639
-1.7841
-1.76875
-1.74203
-1.70628
-1.66418
-1.61822
-1.57016
-1.52063
-1.46928
-1.41534
-1.35835
-1.29845
-1.23619
-1.17222
-1.10705
-1.04089
-0.973838
-0.906016
-0.837596
-0.768771
-0.699792
-0.630944
-0.562482
-0.494641
-0.427644
-0.361686
-0.296941
-0.233558
-0.171663
-0.111359
-0.052723
0.0041908
0.0593495
0.112739
0.164362
0.214235
0.262391
0.308871
0.353728
0.39702
0.438813
0.479176
0.518179
0.555898
0.592408
0.627788
0.662114
0.695466
0.72792
0.759554
0.790441
0.820652
0.850258
0.879336
0.907954
0.936066
0.963746
0.992119
1.02252
1.05555
1.0914
1.12991
1.17095
1.21425
1.25949
1.30625
1.35406
1.40238
1.45065
1.49828
1.54474
1.58952
1.63221
1.67245
1.71002
1.74476
1.77661
1.80558
1.83176
1.85527
1.87628
1.89497
1.91154
1.92614
1.93895
1.95061
1.9617
1.97253
1.98321
1.99379
2.00431
2.01482
2.02536
2.03596
2.04666
2.05746
2.06841
2.07951
2.09078
2.10222
2.11383
2.12561
2.13755
2.14963
2.16183
2.17412
2.18646
2.19882
2.21114
2.22337
2.23544
2.24731
2.25889
2.27013
2.28096
2.2913
2.30112
2.31033
2.31891
2.32682
2.33403
2.34052
2.34631
2.35141
2.35585
2.35966
2.36292
2.36567
2.36799
2.36994
2.37159
2.37301
2.37426
2.3754
2.37649
2.37756
2.37865
2.3798
2.38103
2.38239
2.38392
2.38569
2.38765
2.38975
2.40041
-0.00381438
0.00760881
0.0120217
0.0173868
0.0216242
0.0254116
0.0285424
0.0310907
0.0330355
0.0343957
0.0351604
0.0353135
0.0348093
0.0333595
0.0297129
0.0207966
0.00300057
-0.0252245
-0.0631353
-0.109688
-0.164516
-0.227472
-0.298198
-0.376117
-0.460488
-0.550433
-0.644981
-0.743113
-0.84377
-0.945863
-1.04825
-1.14971
-1.24891
-1.34442
-1.43468
-1.51803
-1.59278
-1.65721
-1.7097
-1.74938
-1.77556
-1.78768
-1.78588
-1.77105
-1.7448
-1.70938
-1.66736
-1.62117
-1.57258
-1.52234
-1.47027
-1.41574
-1.35833
-1.29821
-1.23593
-1.17208
-1.10695
-1.04077
-0.973692
-0.905851
-0.837422
-0.768632
-0.699715
-0.630907
-0.562472
-0.494659
-0.427692
-0.361767
-0.297057
-0.233711
-0.171856
-0.111592
-0.0529974
0.00387564
0.0589943
0.112345
0.16393
0.213769
0.261893
0.308345
0.353178
0.396451
0.43823
0.478581
0.517577
0.555291
0.591799
0.627178
0.661507
0.694862
0.727321
0.758961
0.789853
0.82007
0.849678
0.878756
0.90737
0.935461
0.963091
0.991481
1.02195
1.055
1.09086
1.1294
1.17044
1.21376
1.25901
1.30579
1.35362
1.40195
1.45023
1.49788
1.54435
1.58915
1.63186
1.67212
1.7097
1.74446
1.77632
1.80531
1.8315
1.85503
1.87605
1.89475
1.91132
1.92592
1.93871
1.95037
1.96148
1.97231
1.98301
1.99359
2.00412
2.01464
2.02518
2.03579
2.04649
2.0573
2.06826
2.07936
2.09063
2.10208
2.1137
2.12548
2.13743
2.14952
2.16173
2.17402
2.18638
2.19874
2.21106
2.2233
2.23538
2.24725
2.25884
2.27009
2.28092
2.29127
2.30109
2.31031
2.3189
2.32681
2.33402
2.34052
2.34631
2.35141
2.35585
2.35967
2.36292
2.36567
2.36799
2.36994
2.37159
2.37301
2.37427
2.37541
2.3765
2.37757
2.37866
2.37981
2.38104
2.38239
2.38389
2.38558
2.38728
2.38838
2.39289
-0.00370399
0.00774743
0.0121821
0.0175822
0.0218574
0.0256901
0.0288735
0.0314835
0.0334999
0.0349432
0.035804
0.0360663
0.0356786
0.0343302
0.0307303
0.0217738
0.00386158
-0.0245023
-0.0625347
-0.109183
-0.164082
-0.227087
-0.297843
-0.375777
-0.460152
-0.550095
-0.644642
-0.742779
-0.843453
-0.94558
-1.04802
-1.14957
-1.24891
-1.3446
-1.43509
-1.51875
-1.59389
-1.6588
-1.71193
-1.75237
-1.77943
-1.79255
-1.79185
-1.77814
-1.75293
-1.71832
-1.6767
-1.63035
-1.581
-1.52952
-1.476
-1.42011
-1.36163
-1.30073
-1.23789
-1.17365
-1.10835
-1.04217
-0.975182
-0.907493
-0.839242
-0.770606
-0.701829
-0.633171
-0.564894
-0.497233
-0.430405
-0.364607
-0.300011
-0.236769
-0.175006
-0.114822
-0.0562946
0.000523994
0.0556009
0.108922
0.160491
0.210326
0.258459
0.304934
0.349802
0.393122
0.434957
0.475375
0.514445
0.55224
0.588834
0.624303
0.658723
0.692171
0.724723
0.756454
0.787437
0.817741
0.847434
0.876592
0.905285
0.93345
0.961139
0.989601
1.02015
1.05329
1.08924
1.12786
1.169
1.21241
1.25776
1.30464
1.35257
1.40101
1.44939
1.49714
1.54371
1.5886
1.63138
1.67172
1.70938
1.7442
1.77612
1.80516
1.8314
1.85497
1.87602
1.89476
1.91136
1.92598
1.93879
1.95047
1.9616
1.97245
1.98316
1.99376
2.0043
2.01483
2.02538
2.036
2.0467
2.05753
2.06848
2.0796
2.09087
2.10232
2.11394
2.12573
2.13768
2.14976
2.16197
2.17427
2.18662
2.19898
2.2113
2.22353
2.2356
2.24746
2.25905
2.27028
2.2811
2.29144
2.30124
2.31045
2.31903
2.32692
2.33412
2.34061
2.34639
2.35148
2.35591
2.35972
2.36296
2.36571
2.36802
2.36997
2.37162
2.37304
2.37429
2.37543
2.37652
2.37759
2.37869
2.37984
2.38108
2.38245
2.384
2.38581
2.38786
2.38991
2.39496
-0.00352546
0.00793762
0.0124051
0.0178505
0.0221765
0.0260696
0.0293239
0.0320173
0.0341316
0.0356897
0.0366838
0.0370941
0.0368496
0.0355968
0.0320103
0.0230189
0.00509095
-0.0232435
-0.0612242
-0.107838
-0.162736
-0.225774
-0.296587
-0.374591
-0.459038
-0.549051
-0.643666
-0.741868
-0.842613
-0.944825
-1.04738
-1.14908
-1.24862
-1.34459
-1.43546
-1.5196
-1.59537
-1.66108
-1.71524
-1.75695
-1.78549
-1.80034
-1.80156
-1.78992
-1.76681
-1.73417
-1.69416
-1.64879
-1.59955
-1.54721
-1.49195
-1.43379
-1.37299
-1.31004
-1.24552
-1.17986
-1.11334
-1.04618
-0.9785
-0.910415
-0.842017
-0.773441
-0.70486
-0.636477
-0.56851
-0.50118
-0.43469
-0.369228
-0.304959
-0.242028
-0.180559
-0.12065
-0.0623762
-0.00579029
0.0490769
0.102213
0.153623
0.203326
0.251356
0.297754
0.342572
0.385869
0.427706
0.46815
0.50727
0.545136
0.581822
0.617401
0.651948
0.685536
0.718238
0.750127
0.781272
0.811742
0.841602
0.870928
0.899787
0.928125
0.955979
0.984607
1.01535
1.04871
1.08489
1.12375
1.16515
1.20882
1.25445
1.30161
1.34983
1.39855
1.44721
1.49524
1.54206
1.5872
1.63021
1.67076
1.70861
1.7436
1.77567
1.80484
1.8312
1.85487
1.87602
1.89482
1.91149
1.92617
1.93902
1.95073
1.9619
1.97278
1.98352
1.99414
2.00471
2.01527
2.02584
2.03648
2.04721
2.05805
2.06903
2.08016
2.09145
2.10291
2.11455
2.12635
2.13831
2.1504
2.16261
2.17491
2.18726
2.19961
2.21192
2.22414
2.2362
2.24804
2.2596
2.27081
2.2816
2.29191
2.30167
2.31085
2.31938
2.32724
2.3344
2.34084
2.34659
2.35165
2.35604
2.35983
2.36305
2.36578
2.36807
2.37001
2.37164
2.37305
2.3743
2.37544
2.37652
2.37759
2.37868
2.37983
2.38106
2.3824
2.3839
2.3856
2.38743
2.38932
2.39438
-0.00325697
0.00817069
0.0126847
0.018179
0.0225644
0.0265261
0.0298603
0.0326455
0.0348647
0.0365405
0.0376619
0.0381954
0.0380348
0.0367714
0.0330823
0.0240557
0.00631739
-0.0216651
-0.0592915
-0.105639
-0.16037
-0.223328
-0.294131
-0.372182
-0.456719
-0.546853
-0.641609
-0.739974
-0.840908
-0.943346
-1.04618
-1.14824
-1.24824
-1.34479
-1.4364
-1.52147
-1.59836
-1.66545
-1.72127
-1.76489
-1.79563
-1.81289
-1.81666
-1.80756
-1.78683
-1.75616
-1.71751
-1.67273
-1.62331
-1.57017
-1.5137
-1.45407
-1.39153
-1.32656
-1.25985
-1.19205
-1.12365
-1.05493
-0.986025
-0.917036
-0.848044
-0.779142
-0.710446
-0.6421
-0.574272
-0.507141
-0.440889
-0.375687
-0.311693
-0.249044
-0.187855
-0.128221
-0.0702149
-0.0138857
0.0407362
0.09364
0.144832
0.194334
0.242179
0.288413
0.333088
0.376263
0.418003
0.458377
0.497454
0.535307
0.572007
0.607629
0.642245
0.675927
0.708747
0.740774
0.772078
0.802725
0.832777
0.862307
0.891384
0.919958
0.948048
0.976911
1.00792
1.04156
1.07805
1.11726
1.15903
1.2031
1.24915
1.29676
1.34544
1.39463
1.44376
1.49225
1.53953
1.58509
1.62851
1.66943
1.70762
1.74291
1.77526
1.80469
1.83126
1.85512
1.87644
1.89539
1.91218
1.92697
1.93992
1.9517
1.96293
1.97386
1.98465
1.99533
2.00594
2.01654
2.02715
2.03783
2.04858
2.05945
2.07045
2.0816
2.09291
2.10438
2.11602
2.12782
2.13978
2.15186
2.16406
2.17634
2.18866
2.20099
2.21326
2.22544
2.23745
2.24923
2.26073
2.27187
2.28259
2.29282
2.30251
2.3116
2.32005
2.32783
2.33491
2.34128
2.34695
2.35195
2.35629
2.36002
2.3632
2.36589
2.36815
2.37006
2.37168
2.37308
2.37432
2.37546
2.37654
2.37761
2.3787
2.37986
2.3811
2.38246
2.384
2.38574
2.38762
2.38955
2.39412
-0.00287398
0.00842857
0.0130097
0.0185511
0.0230025
0.0270374
0.0304555
0.0333342
0.0356548
0.0374353
0.0386538
0.0392512
0.0390692
0.0376357
0.0336652
0.0245057
0.0070258
-0.0204002
-0.0574186
-0.103246
-0.157574
-0.220245
-0.290878
-0.368867
-0.453437
-0.543681
-0.638615
-0.737216
-0.838447
-0.941254
-1.04455
-1.14719
-1.24793
-1.34541
-1.43818
-1.52468
-1.6033
-1.67248
-1.73079
-1.77729
-1.8113
-1.83217
-1.83975
-1.83448
-1.81737
-1.78982
-1.75346
-1.7099
-1.66048
-1.60617
-1.54762
-1.48535
-1.41994
-1.35212
-1.28264
-1.21216
-1.1412
-1.07008
-0.999018
-0.928185
-0.857717
-0.787728
-0.718317
-0.649576
-0.581595
-0.514477
-0.448338
-0.383308
-0.319516
-0.257087
-0.19613
-0.136737
-0.0789781
-0.0229037
0.0314569
0.0840934
0.135013
0.184237
0.231804
0.27776
0.322162
0.365075
0.406568
0.446714
0.485589
0.523269
0.55983
0.595349
0.6299
0.663557
0.696392
0.728474
0.75987
0.790645
0.820861
0.850588
0.879891
0.908729
0.937108
0.966274
0.997619
1.03164
1.06856
1.10823
1.15052
1.19516
1.24181
1.29005
1.33939
1.38926
1.43908
1.48824
1.53619
1.58239
1.6264
1.66788
1.70658
1.74234
1.7751
1.80489
1.83178
1.85593
1.87748
1.89664
1.91361
1.92855
1.94163
1.95351
1.96483
1.97585
1.98671
1.99746
2.00814
2.0188
2.02947
2.0402
2.051
2.06192
2.07296
2.08414
2.09548
2.10697
2.11863
2.13044
2.14239
2.15447
2.16664
2.17889
2.19117
2.20344
2.21565
2.22774
2.23966
2.25134
2.26273
2.27375
2.28433
2.29443
2.30397
2.31292
2.32122
2.32885
2.33579
2.34203
2.34758
2.35246
2.3567
2.36035
2.36345
2.36608
2.36829
2.37016
2.37175
2.37313
2.37435
2.37548
2.37655
2.37761
2.3787
2.37985
2.38109
2.38244
2.38396
2.38569
2.38757
2.38959
2.39379
-0.00234181
0.00869651
0.0133743
0.0189547
0.0234772
0.0275852
0.0310858
0.0340503
0.0364552
0.0383072
0.0395649
0.0401331
0.0397978
0.0380435
0.0336731
0.0243414
0.00716894
-0.0195814
-0.055845
-0.10101
-0.154801
-0.217058
-0.287399
-0.365222
-0.449746
-0.540059
-0.63517
-0.734056
-0.835686
-0.939022
-1.043
-1.14653
-1.2484
-1.34732
-1.4419
-1.53062
-1.61193
-1.68428
-1.74631
-1.79715
-1.83612
-1.8625
-1.87593
-1.8766
-1.86517
-1.84267
-1.81034
-1.76946
-1.72121
-1.66658
-1.6064
-1.54144
-1.47252
-1.40057
-1.32655
-1.25143
-1.17597
-1.10076
-1.02615
-0.952295
-0.879266
-0.807109
-0.735884
-0.665672
-0.596555
-0.528615
-0.461924
-0.39655
-0.332563
-0.270037
-0.209043
-0.14965
-0.0919197
-0.0358975
0.0183857
0.0709173
0.121703
0.170764
0.218139
0.263879
0.308047
0.350713
0.391955
0.431856
0.4705
0.507974
0.544361
0.579745
0.614207
0.647825
0.680673
0.712823
0.744344
0.775299
0.80575
0.835763
0.865405
0.894632
0.923446
0.953083
0.984936
1.01952
1.05705
1.09742
1.14046
1.18591
1.23344
1.28261
1.33291
1.38377
1.43458
1.48472
1.53361
1.58072
1.62558
1.66784
1.70725
1.74364
1.77697
1.80725
1.83457
1.85908
1.88095
1.90038
1.91758
1.93271
1.94596
1.95797
1.9694
1.98053
1.99149
2.00233
2.01309
2.02382
2.03455
2.04533
2.05618
2.06712
2.07818
2.08937
2.10071
2.11219
2.12381
2.13558
2.14747
2.15947
2.17156
2.1837
2.19585
2.20797
2.22002
2.23193
2.24365
2.25512
2.26627
2.27705
2.28738
2.29721
2.30649
2.31517
2.32321
2.33059
2.33728
2.34329
2.34863
2.35332
2.35739
2.36089
2.36387
2.36639
2.36852
2.37033
2.37187
2.37321
2.3744
2.37551
2.37657
2.37763
2.37872
2.37987
2.38111
2.38247
2.38399
2.38572
2.38759
2.38968
2.39345
-0.00162334
0.00896271
0.0137763
0.0193807
0.0239771
0.028153
0.0317267
0.0347576
0.0372124
0.039079
0.0402893
0.0407109
0.0400915
0.0379165
0.0331152
0.0236209
0.00676655
-0.0192765
-0.0547219
-0.0991493
-0.152331
-0.214105
-0.284092
-0.361687
-0.446109
-0.536439
-0.631686
-0.730832
-0.832869
-0.936796
-1.04161
-1.14625
-1.24961
-1.35048
-1.44753
-1.53936
-1.62448
-1.70143
-1.76883
-1.82566
-1.87175
-1.90629
-1.92823
-1.9376
-1.93472
-1.92012
-1.89467
-1.85926
-1.81478
-1.76212
-1.70219
-1.63592
-1.56436
-1.48862
-1.40986
-1.32921
-1.2477
-1.16622
-1.08545
-1.00589
-0.927832
-0.851398
-0.776607
-0.703428
-0.631829
-0.561799
-0.493347
-0.426498
-0.361284
-0.297742
-0.235907
-0.175815
-0.117496
-0.0609763
-0.00627334
0.0466084
0.0976783
0.146961
0.194498
0.240344
0.28457
0.327255
0.368489
0.408367
0.446987
0.484449
0.520849
0.556283
0.590841
0.62461
0.657669
0.690095
0.721958
0.753323
0.784251
0.814806
0.845051
0.874939
0.904474
0.934895
0.967604
1.00311
1.04168
1.08316
1.12741
1.17418
1.22309
1.27371
1.32551
1.37788
1.4302
1.48183
1.53216
1.58062
1.62675
1.67016
1.7106
1.74791
1.78203
1.81299
1.8409
1.8659
1.88818
1.90796
1.92544
1.94082
1.95427
1.96646
1.97803
1.98929
2.00037
2.0113
2.02215
2.03295
2.04374
2.05456
2.06544
2.07639
2.08744
2.09861
2.1099
2.12132
2.13286
2.14451
2.15627
2.16811
2.18001
2.19193
2.20383
2.21568
2.22742
2.239
2.25036
2.26144
2.27218
2.28253
2.29242
2.30181
2.31063
2.31886
2.32646
2.3334
2.33969
2.34533
2.35032
2.35469
2.35849
2.36175
2.36453
2.36689
2.36889
2.37059
2.37205
2.37333
2.37448
2.37556
2.37661
2.37765
2.37873
2.37988
2.38112
2.38248
2.384
2.38572
2.38759
2.38975
2.39309
-0.000691347
0.00922055
0.0142163
0.0198236
0.0244939
0.0287261
0.0323549
0.03542
0.0378735
0.0396788
0.0407409
0.0409021
0.0399053
0.0372769
0.032065
0.0224049
0.00580783
-0.0195851
-0.0542196
-0.0978752
-0.150393
-0.211619
-0.281181
-0.358477
-0.442726
-0.533008
-0.628324
-0.727657
-0.830012
-0.93443
-1.03998
-1.14573
-1.25072
-1.35389
-1.45408
-1.54999
-1.64022
-1.7233
-1.79778
-1.86235
-1.91639
-1.96093
-1.99445
-2.01514
-2.02394
-2.02086
-2.00584
-1.97949
-1.9426
-1.89593
-1.84035
-1.77681
-1.70638
-1.63024
-1.54963
-1.46579
-1.37991
-1.29309
-1.2063
-1.12031
-1.03574
-0.953014
-0.872406
-0.794036
-0.717918
-0.644002
-0.572206
-0.502447
-0.434658
-0.368791
-0.304819
-0.242729
-0.182519
-0.124188
-0.0677354
-0.0131557
0.0395675
0.090462
0.139569
0.186943
0.232652
0.276774
0.319399
0.360623
0.400548
0.439277
0.476917
0.513569
0.549335
0.584309
0.618581
0.652235
0.685347
0.717988
0.750222
0.782118
0.813739
0.845028
0.875997
0.907963
0.942348
0.979645
1.02013
1.06366
1.11006
1.15907
1.21029
1.26326
1.31741
1.37212
1.42672
1.48056
1.53299
1.58343
1.63138
1.67646
1.71839
1.75701
1.79226
1.82419
1.8529
1.87858
1.90142
1.92165
1.93952
1.95521
1.96893
1.98133
1.99309
2.0045
2.01571
2.02675
2.03768
2.04854
2.05936
2.07019
2.08104
2.09195
2.10293
2.11399
2.12514
2.13638
2.14771
2.15912
2.17059
2.18211
2.19364
2.20514
2.21659
2.22794
2.23914
2.25014
2.26088
2.27131
2.28138
2.29102
2.3002
2.30885
2.31695
2.32447
2.33137
2.33766
2.34332
2.34838
2.35284
2.35674
2.36012
2.36303
2.36551
2.36763
2.36943
2.37097
2.37232
2.37351
2.37461
2.37564
2.37666
2.37769
2.37876
2.3799
2.38114
2.3825
2.38402
2.38574
2.3876
2.38981
2.39275
0.000453835
0.00946835
0.0146944
0.02028
0.0250213
0.029293
0.0329521
0.0360112
0.0384055
0.0400738
0.0409024
0.0407303
0.0393239
0.0362575
0.0306488
0.020761
0.00427793
-0.0206179
-0.05454
-0.0974526
-0.149273
-0.209864
-0.278867
-0.35569
-0.439563
-0.529582
-0.624769
-0.724135
-0.826717
-0.931597
-1.0379
-1.14477
-1.25136
-1.35677
-1.46003
-1.56008
-1.65574
-1.74572
-1.82864
-1.90306
-1.96743
-2.02085
-2.06584
-2.10164
-2.1239
-2.13346
-2.13157
-2.11827
-2.09346
-2.0576
-2.01154
-1.95617
-1.89256
-1.82187
-1.74532
-1.66417
-1.57965
-1.4929
-1.40499
-1.31684
-1.22924
-1.1428
-1.058
-0.975163
-0.894496
-0.816091
-0.739962
-0.666066
-0.594328
-0.524661
-0.456983
-0.391226
-0.327339
-0.265284
-0.205039
-0.146584
-0.0899046
-0.0349799
0.0182179
0.0697264
0.119594
0.16788
0.214654
0.259993
0.303983
0.346711
0.38827
0.428753
0.468252
0.506859
0.544663
0.581749
0.618202
0.654097
0.689507
0.724515
0.75919
0.793457
0.827341
0.862401
0.900139
0.940972
0.985215
1.03267
1.08315
1.13632
1.19175
1.24889
1.30713
1.36579
1.42413
1.48146
1.53711
1.59049
1.64109
1.68852
1.73253
1.77296
1.80977
1.84301
1.87282
1.89939
1.92295
1.94377
1.96211
1.97819
1.99223
2.00488
2.01683
2.0284
2.03973
2.05085
2.06183
2.0727
2.08349
2.09426
2.10501
2.11577
2.12656
2.13738
2.14825
2.15916
2.17011
2.18108
2.19205
2.20301
2.21392
2.22475
2.23546
2.24601
2.25635
2.26644
2.27622
2.28565
2.29467
2.30325
2.31135
2.31892
2.32595
2.33242
2.33832
2.34364
2.34841
2.35264
2.35635
2.35959
2.36239
2.3648
2.36687
2.36864
2.37017
2.3715
2.37268
2.37376
2.37477
2.37575
2.37673
2.37773
2.37879
2.37992
2.38115
2.38251
2.38404
2.38574
2.38761
2.38985
2.39246
0.00177003
0.00970782
0.0152067
0.0207475
0.0255545
0.0298475
0.0335121
0.036529
0.0388181
0.0402996
0.0408548
0.0403364
0.0385403
0.0350627
0.029038
0.0188152
0.00225637
-0.0223636
-0.0557628
-0.0980526
-0.149217
-0.209137
-0.277468
-0.353632
-0.436876
-0.526321
-0.621026
-0.720046
-0.822481
-0.927493
-1.03431
-1.1422
-1.25045
-1.35831
-1.46494
-1.56939
-1.67055
-1.76717
-1.85789
-1.94129
-2.01588
-2.0801
-2.13259
-2.17604
-2.21573
-2.24492
-2.25748
-2.25729
-2.2458
-2.22356
-2.19094
-2.14852
-2.09726
-2.03817
-1.9724
-1.9011
-1.82546
-1.74661
-1.6656
-1.58335
-1.50067
-1.41819
-1.33641
-1.25567
-1.17622
-1.09819
-1.02164
-0.946594
-0.873017
-0.80087
-0.730103
-0.660672
-0.59254
-0.525686
-0.460104
-0.395805
-0.332809
-0.271145
-0.210843
-0.151932
-0.0944327
-0.0383541
0.0163072
0.0695688
0.121462
0.172032
0.221334
0.269433
0.316399
0.362308
0.407237
0.451266
0.494471
0.536929
0.578715
0.619917
0.660619
0.700704
0.740204
0.781155
0.825251
0.872772
0.924079
0.978882
1.03691
1.09773
1.16081
1.22548
1.291
1.35657
1.42137
1.48461
1.54556
1.60361
1.65827
1.70919
1.75615
1.79905
1.83792
1.87286
1.90405
1.93174
1.95618
1.97769
1.99656
2.01305
2.02741
2.04028
2.05237
2.06403
2.0754
2.08652
2.09744
2.10819
2.11883
2.12937
2.13984
2.15027
2.16066
2.17103
2.18136
2.19168
2.20195
2.21217
2.22232
2.23237
2.24229
2.25205
2.26162
2.27095
2.28
2.28873
2.29709
2.30506
2.31259
2.31966
2.32623
2.3323
2.33785
2.34288
2.34741
2.35145
2.35501
2.35815
2.36087
2.36324
2.36529
2.36705
2.36859
2.36992
2.37111
2.37217
2.37315
2.37408
2.37498
2.37588
2.37681
2.37779
2.37882
2.37995
2.38117
2.38253
2.38405
2.38575
2.38761
2.38988
2.39224
0.00317285
0.00994272
0.0157442
0.0212239
0.0260921
0.0303932
0.034047
0.0370021
0.0391683
0.0404552
0.0407498
0.0399214
0.0377821
0.0339174
0.0274487
0.0167948
-1.01279e-05
-0.0245801
-0.0576863
-0.0995432
-0.150182
-0.209494
-0.277143
-0.352571
-0.435046
-0.523725
-0.617706
-0.716094
-0.818042
-0.922773
-1.02958
-1.13782
-1.24688
-1.35613
-1.46492
-1.57249
-1.67797
-1.78036
-1.87845
-1.97085
-2.05595
-2.13199
-2.19708
-2.24922
-2.28656
-2.31626
-2.34671
-2.36852
-2.37422
-2.36726
-2.34956
-2.32205
-2.28568
-2.24135
-2.19019
-2.13335
-2.07197
-2.00716
-1.93989
-1.87102
-1.80128
-1.73123
-1.66126
-1.59164
-1.5225
-1.45387
-1.38569
-1.31787
-1.25028
-1.18281
-1.11535
-1.04783
-0.98021
-0.912477
-0.84466
-0.77681
-0.709007
-0.641347
-0.573944
-0.506922
-0.44041
-0.374537
-0.309428
-0.2452
-0.181952
-0.119765
-0.0587009
0.00120515
0.0599384
0.117506
0.173933
0.229261
0.283545
0.336842
0.38922
0.440769
0.491577
0.541479
0.590484
0.641283
0.695918
0.754577
0.817664
0.884767
0.955489
1.02924
1.1053
1.18279
1.26076
1.33819
1.41404
1.48734
1.55724
1.62306
1.68429
1.74066
1.79204
1.83849
1.88015
1.91726
1.95012
1.97907
2.00446
2.02664
2.04598
2.06278
2.07734
2.09028
2.10235
2.11392
2.12513
2.13602
2.14665
2.15705
2.16725
2.1773
2.1872
2.19698
2.20664
2.21619
2.22563
2.23495
2.24414
2.25318
2.26205
2.27073
2.27918
2.28738
2.29529
2.30288
2.31012
2.31696
2.3234
2.32939
2.33492
2.33998
2.34457
2.34869
2.35235
2.35557
2.35838
2.36081
2.3629
2.36469
2.36623
2.36755
2.36869
2.36969
2.37059
2.37142
2.37219
2.37294
2.37369
2.37444
2.37522
2.37603
2.37691
2.37784
2.37886
2.37997
2.38119
2.38254
2.38406
2.38576
2.38762
2.38989
2.39213
0.00455421
0.0101789
0.0162943
0.0217089
0.0266365
0.0309417
0.0345829
0.0374791
0.0395361
0.0406589
0.0407431
0.0396682
0.0372445
0.0330283
0.0261207
0.015002
-0.00214361
-0.0268236
-0.0598288
-0.101439
-0.151713
-0.210543
-0.277596
-0.352327
-0.434029
-0.521893
-0.615061
-0.71269
-0.813984
-0.918219
-1.02474
-1.13295
-1.24227
-1.35211
-1.46183
-1.57072
-1.67794
-1.78257
-1.88361
-1.97998
-2.0706
-2.15437
-2.23015
-2.29656
-2.35161
-2.39291
-2.41733
-2.43194
-2.44699
-2.45677
-2.45464
-2.44236
-2.4217
-2.39357
-2.3589
-2.31862
-2.27375
-2.22538
-2.17458
-2.12236
-2.06957
-2.01683
-1.96452
-1.91279
-1.86161
-1.81077
-1.76001
-1.70901
-1.65745
-1.60502
-1.55145
-1.49646
-1.43986
-1.38147
-1.32119
-1.25895
-1.19476
-1.12869
-1.06086
-0.99141
-0.920543
-0.848474
-0.77544
-0.701689
-0.627474
-0.553048
-0.478658
-0.404534
-0.330887
-0.257898
-0.185718
-0.114462
-0.0442116
0.0249847
0.0931059
0.160182
0.226266
0.291138
0.354748
0.420354
0.490533
0.56564
0.646123
0.731467
0.821121
0.914288
1.00998
1.10704
1.20419
1.30009
1.39339
1.48283
1.56731
1.64593
1.71806
1.78336
1.84182
1.89367
1.93935
1.97937
2.01427
2.0446
2.07087
2.09356
2.11313
2.12996
2.14441
2.15709
2.16877
2.17988
2.19055
2.20082
2.21073
2.22034
2.22968
2.23876
2.24762
2.25626
2.26469
2.27291
2.28092
2.2887
2.29625
2.30355
2.31057
2.31729
2.32369
2.32974
2.33542
2.3407
2.34555
2.34997
2.35394
2.35745
2.36051
2.36312
2.36531
2.3671
2.36853
2.36964
2.37047
2.37107
2.3715
2.37179
2.372
2.37217
2.37233
2.37251
2.37273
2.373
2.37334
2.37376
2.37425
2.37482
2.37546
2.37619
2.377
2.3779
2.37889
2.37998
2.3812
2.38254
2.38406
2.38576
2.38762
2.38989
2.39213
0.00581256
0.0104241
0.0168442
0.0222023
0.0271907
0.0315057
0.0351454
0.0380042
0.0399872
0.0409982
0.0409395
0.0396923
0.0370542
0.0325479
0.0252582
0.0137183
-0.00376599
-0.0286134
-0.0616172
-0.103097
-0.153126
-0.211594
-0.278164
-0.352302
-0.433321
-0.520439
-0.612839
-0.709718
-0.810322
-0.913963
-1.02002
-1.12791
-1.23708
-1.34695
-1.4569
-1.56622
-1.67408
-1.77957
-1.88166
-1.97926
-2.07126
-2.15658
-2.23434
-2.30385
-2.36474
-2.41676
-2.45902
-2.49006
-2.50648
-2.51191
-2.51439
-2.51178
-2.50042
-2.48191
-2.45803
-2.43005
-2.39912
-2.36621
-2.33211
-2.29747
-2.26284
-2.22873
-2.19557
-2.16371
-2.13335
-2.10444
-2.07668
-2.04949
-2.02214
-1.9938
-1.96366
-1.931
-1.8953
-1.8562
-1.81351
-1.76712
-1.71698
-1.66306
-1.60535
-1.5439
-1.47877
-1.41008
-1.33801
-1.26277
-1.18462
-1.10386
-1.02081
-0.935837
-0.849334
-0.761695
-0.673315
-0.584574
-0.495819
-0.407358
-0.319453
-0.232294
-0.14601
-0.0609642
0.0226437
0.108252
0.199076
0.295963
0.399456
0.508972
0.623792
0.742872
0.864903
0.988345
1.1115
1.2326
1.34992
1.46185
1.56699
1.66422
1.75275
1.83207
1.90202
1.96281
2.01498
2.05941
2.0971
2.12903
2.15608
2.17898
2.19838
2.21478
2.22864
2.24054
2.25129
2.26138
2.27091
2.27995
2.28855
2.29674
2.30457
2.31205
2.31921
2.32606
2.33259
2.33883
2.34474
2.35034
2.35561
2.36052
2.36507
2.36923
2.373
2.37634
2.37924
2.3817
2.3837
2.38524
2.38634
2.38701
2.38727
2.38715
2.38669
2.38595
2.38498
2.38384
2.3826
2.3813
2.38001
2.37878
2.37766
2.37668
2.37586
2.37523
2.37478
2.37453
2.37445
2.37454
2.37479
2.37518
2.3757
2.37634
2.37709
2.37795
2.37892
2.38
2.3812
2.38254
2.38406
2.38575
2.38762
2.38988
2.39224
0.00687945
0.0106867
0.0173827
0.0227027
0.0277543
0.0320912
0.0357475
0.0385985
0.0405508
0.0415076
0.041375
0.0400303
0.0372552
0.032543
0.0249692
0.0131113
-0.00463184
-0.0296109
-0.0626156
-0.103991
-0.153819
-0.211983
-0.27815
-0.351788
-0.432227
-0.518707
-0.610441
-0.706656
-0.806628
-0.909691
-1.01524
-1.1227
-1.23151
-1.34109
-1.45079
-1.55989
-1.66758
-1.77294
-1.875
-1.97272
-2.06506
-2.15106
-2.2298
-2.30055
-2.36272
-2.41593
-2.46009
-2.4956
-2.52267
-2.54129
-2.54972
-2.5499
-2.54632
-2.53744
-2.52166
-2.50058
-2.47565
-2.44846
-2.42074
-2.3942
-2.3703
-2.35009
-2.33411
-2.32228
-2.314
-2.30833
-2.30423
-2.30096
-2.2981
-2.29547
-2.29287
-2.28983
-2.28556
-2.27899
-2.26887
-2.2539
-2.233
-2.20542
-2.17077
-2.12898
-2.08021
-2.02475
-1.9629
-1.89497
-1.82122
-1.74195
-1.65743
-1.56799
-1.47397
-1.37581
-1.274
-1.16912
-1.06184
-0.952849
-0.842832
-0.732376
-0.621966
-0.512259
-0.403743
-0.293066
-0.176267
-0.0518947
0.0806485
0.220598
0.366924
0.518187
0.672622
0.828218
0.982827
1.13428
1.28047
1.4195
1.54972
1.66981
1.77884
1.87628
1.96195
2.036
2.0988
2.15101
2.1937
2.22829
2.25635
2.27921
2.29795
2.31336
2.32606
2.33657
2.34575
2.35415
2.36188
2.369
2.37557
2.38163
2.38723
2.3924
2.39715
2.4015
2.40546
2.40904
2.41223
2.41503
2.41743
2.41941
2.42098
2.42212
2.42282
2.42307
2.42287
2.42221
2.42111
2.41958
2.41765
2.41536
2.41273
2.40984
2.40674
2.4035
2.40019
2.39688
2.39365
2.39056
2.38768
2.38504
2.3827
2.38068
2.37898
2.37762
2.37658
2.37585
2.37541
2.37522
2.37525
2.37549
2.3759
2.37647
2.37717
2.37799
2.37894
2.38
2.3812
2.38254
2.38405
2.38575
2.38761
2.38985
2.39246
0.00773029
0.0109723
0.0179008
0.0232052
0.0283218
0.0326938
0.0363853
0.0392573
0.0412192
0.0421732
0.0420271
0.0406522
0.037816
0.0329895
0.0252455
0.0131979
-0.00468509
-0.029705
-0.0626472
-0.103874
-0.153473
-0.21133
-0.277111
-0.350291
-0.430211
-0.516131
-0.607283
-0.702917
-0.802326
-0.904859
-1.00991
-1.11691
-1.2253
-1.33446
-1.44374
-1.55241
-1.65964
-1.76452
-1.86609
-1.96335
-2.05529
-2.14099
-2.21965
-2.29066
-2.3536
-2.40819
-2.45431
-2.49201
-2.52142
-2.54297
-2.55714
-2.56454
-2.56499
-2.56062
-2.55342
-2.54251
-2.52807
-2.51102
-2.49217
-2.47248
-2.45313
-2.4356
-2.42162
-2.41308
-2.41172
-2.41887
-2.43514
-2.46025
-2.49267
-2.5296
-2.56736
-2.60212
-2.63086
-2.65215
-2.66659
-2.67601
-2.68128
-2.6824
-2.67865
-2.66879
-2.65139
-2.6251
-2.58897
-2.54255
-2.48577
-2.41887
-2.34231
-2.25662
-2.16236
-2.06001
-1.95002
-1.83283
-1.70897
-1.57925
-1.44486
-1.30735
-1.16829
-1.02924
-0.891325
-0.751237
-0.603738
-0.446598
-0.279391
-0.103375
0.0797869
0.267962
0.458691
0.649357
0.837342
1.02017
1.19563
1.3618
1.51713
1.66039
1.79068
1.90741
2.01032
2.09955
2.17555
2.23903
2.29067
2.33133
2.36237
2.38579
2.40363
2.41747
2.42836
2.43684
2.44379
2.44986
2.45511
2.45965
2.46354
2.46684
2.46961
2.47189
2.4737
2.47506
2.476
2.47653
2.47664
2.47633
2.47561
2.47447
2.4729
2.47091
2.46848
2.46561
2.46231
2.4586
2.45449
2.45001
2.4452
2.44012
2.43483
2.42938
2.42388
2.41839
2.413
2.40779
2.40283
2.39821
2.39397
2.39015
2.3868
2.38391
2.3815
2.37954
2.37803
2.37691
2.37617
2.37575
2.37562
2.37574
2.37606
2.37656
2.37722
2.37803
2.37895
2.38001
2.38119
2.38253
2.38404
2.38574
2.3876
2.38981
2.39275
0.00837793
0.0112796
0.0183905
0.0237011
0.0288822
0.0333002
0.0370414
0.0399573
0.0419597
0.0429503
0.0428374
0.0414864
0.0386539
0.0337959
0.0259877
0.0138722
-0.00403085
-0.0289879
-0.0617807
-0.102784
-0.152093
-0.209595
-0.274961
-0.347673
-0.427083
-0.512466
-0.60307
-0.698158
-0.797038
-0.899064
-1.00363
-1.11018
-1.21811
-1.32682
-1.43565
-1.54383
-1.65055
-1.75489
-1.85594
-1.95269
-2.04415
-2.12945
-2.20784
-2.27876
-2.34188
-2.39698
-2.44401
-2.48313
-2.51456
-2.53869
-2.55599
-2.56708
-2.57256
-2.57305
-2.56949
-2.56343
-2.55547
-2.54605
-2.53631
-2.52734
-2.52019
-2.51583
-2.51517
-2.51901
-2.52777
-2.54079
-2.5572
-2.57695
-2.60057
-2.62916
-2.66442
-2.70845
-2.76336
-2.83128
-2.91354
-3.00178
-3.08332
-3.15123
-3.20116
-3.23116
-3.24345
-3.24242
-3.23026
-3.20785
-3.17444
-3.12877
-3.0698
-2.997
-2.91019
-2.80961
-2.69587
-2.56971
-2.43186
-2.28282
-2.12287
-1.95275
-1.77471
-1.59336
-1.41353
-1.23337
-1.04585
-0.847118
-0.637301
-0.418531
-0.193565
0.0345155
0.262448
0.487139
0.70579
0.916034
1.11595
1.30404
1.47922
1.64074
1.78813
1.9211
2.03953
2.14334
2.23265
2.30788
2.36988
2.41965
2.45796
2.48552
2.50401
2.51624
2.52469
2.53045
2.53451
2.53761
2.5398
2.54121
2.54197
2.54214
2.5418
2.541
2.53978
2.53817
2.53617
2.53381
2.53107
2.52795
2.52444
2.52054
2.51622
2.51149
2.50634
2.50077
2.4948
2.48844
2.48172
2.4747
2.46743
2.45997
2.45241
2.44483
2.43732
2.42999
2.42291
2.41617
2.40985
2.40401
2.39872
2.39399
2.38985
2.38631
2.38336
2.38096
2.37909
2.37769
2.37673
2.37615
2.37589
2.37591
2.37617
2.37663
2.37726
2.37804
2.37896
2.38
2.38118
2.38251
2.38402
2.38573
2.3876
2.38975
2.39309
0.00885656
0.0115996
0.0188444
0.0241783
0.029421
0.0338919
0.0376916
0.0406661
0.0427291
0.0437823
0.0437341
0.0424452
0.0396647
0.0348398
0.0270504
0.0149637
-0.00286284
-0.0276699
-0.0602364
-0.100946
-0.149902
-0.206994
-0.2719
-0.34411
-0.422987
-0.507817
-0.597863
-0.692398
-0.790738
-0.892241
-0.99631
-1.10237
-1.20983
-1.31807
-1.42642
-1.53412
-1.64036
-1.74422
-1.84482
-1.94116
-2.03225
-2.11722
-2.1954
-2.26625
-2.32957
-2.38512
-2.43292
-2.47315
-2.50602
-2.53192
-2.55137
-2.565
-2.57352
-2.57769
-2.57833
-2.57623
-2.57259
-2.56818
-2.56359
-2.55973
-2.55749
-2.55777
-2.56146
-2.56926
-2.58174
-2.60054
-2.62778
-2.66469
-2.71181
-2.76876
-2.8337
-2.90318
-2.97264
-3.03696
-3.0901
-3.13486
-3.18132
-3.23466
-3.29822
-3.3765
-3.47008
-3.56291
-3.63982
-3.69635
-3.72711
-3.73174
-3.71188
-3.67018
-3.60843
-3.52717
-3.4264
-3.30567
-3.16496
-3.00474
-2.82614
-2.63
-2.41556
-2.18399
-1.94432
-1.70442
-1.46199
-1.20877
-0.946413
-0.67776
-0.407357
-0.139101
0.123047
0.376084
0.617663
0.846289
1.06106
1.26157
1.44763
1.61922
1.77638
1.91919
2.04777
2.16225
2.26267
2.349
2.42126
2.47986
2.52589
2.56061
2.58456
2.59831
2.60474
2.60724
2.60785
2.6075
2.60628
2.60437
2.60193
2.59906
2.59586
2.59239
2.58867
2.58471
2.58051
2.57605
2.5713
2.56622
2.56078
2.55495
2.54871
2.54202
2.53489
2.52731
2.51931
2.51092
2.50219
2.49318