/*--------------------------------*- C++ -*----------------------------------*\
| =========                 |                                                 |
| \\      /  F ield         | OpenFOAM: The Open Source CFD Toolbox           |
|  \\    /   O peration     | Version:  2406                                  |
|   \\  /    A nd           | Website:  www.openfoam.com                      |
|    \\/     M anipulation  |                                                 |
\*---------------------------------------------------------------------------*/
FoamFile
{
    version     2.0;
    format      ascii;
    arch        "LSB;label=32;scalar=64";
    class       surfaceScalarField;
    location    "700";
    object      phi;
}
// * * * * * * * * * * * * * * * * * * * * * * * * * * * * * * * * * * * * * //

dimensions      [0 3 -1 0 0 0 0];

oriented        oriented;

internalField   nonuniform List<scalar> 
10988
(
-7.67331e-05
5.55877e-07
-7.76668e-05
9.33656e-07
-7.86047e-05
9.3794e-07
-7.9551e-05
9.46226e-07
-8.04991e-05
9.48181e-07
-8.14513e-05
9.52127e-07
-8.24084e-05
9.57122e-07
-8.33711e-05
9.62648e-07
-8.43373e-05
9.66136e-07
-8.52992e-05
9.61912e-07
-8.62378e-05
9.38488e-07
-8.71141e-05
8.76324e-07
-8.78676e-05
7.53491e-07
-8.84439e-05
5.76437e-07
-8.88758e-05
4.32123e-07
-8.93506e-05
4.74977e-07
-9.01262e-05
7.75847e-07
-9.13525e-05
1.22642e-06
-9.30075e-05
1.65519e-06
-9.49713e-05
1.96394e-06
-9.71124e-05
2.14115e-06
-9.93289e-05
2.21647e-06
-0.000101555
2.2257e-06
-0.000103752
2.19735e-06
-0.000105903
2.1507e-06
-0.000108
2.09708e-06
-0.000110042
2.04174e-06
-0.000112027
1.98549e-06
-0.000113953
1.92611e-06
-0.000115813
1.85931e-06
-0.000117592
1.77954e-06
-0.000119273
1.68068e-06
-0.000120829
1.55645e-06
-0.00012223
1.40094e-06
-0.000123439
1.20889e-06
-0.000124415
9.76307e-07
-0.000125116
7.00745e-07
-0.000125498
3.81642e-07
-0.000125519
2.13713e-08
-0.000125126
-3.93243e-07
-0.000124244
-8.81424e-07
-0.000122813
-1.43183e-06
-0.000120796
-2.01687e-06
-0.000118188
-2.6075e-06
-0.000115024
-3.16418e-06
-0.000111391
-3.6331e-06
-0.000107445
-3.94614e-06
-0.000103416
-4.02904e-06
-9.95929e-05
-3.82264e-06
-9.62761e-05
-3.31683e-06
-9.36955e-05
-2.58059e-06
-9.19391e-05
-1.75633e-06
-9.09362e-05
-1.00293e-06
-9.0511e-05
-4.25276e-07
-9.04643e-05
-4.68298e-08
-9.06222e-05
1.57977e-07
-9.08537e-05
2.31488e-07
-9.10807e-05
2.2687e-07
-9.1266e-05
1.85286e-07
-9.13917e-05
1.25768e-07
-9.14496e-05
5.78929e-08
-9.14369e-05
-1.28224e-08
-9.1351e-05
-8.59265e-08
-9.11891e-05
-1.6189e-07
-9.09513e-05
-2.37663e-07
-9.06411e-05
-3.10121e-07
-9.02636e-05
-3.7748e-07
-8.98249e-05
-4.38737e-07
-8.93315e-05
-4.93429e-07
-8.87901e-05
-5.41467e-07
-8.82072e-05
-5.83009e-07
-8.75889e-05
-6.18374e-07
-8.6941e-05
-6.47967e-07
-8.62688e-05
-6.72237e-07
-8.55772e-05
-6.91648e-07
-8.48706e-05
-7.06655e-07
-8.41529e-05
-7.17703e-07
-8.34276e-05
-7.25213e-07
-8.2698e-05
-7.29584e-07
-8.19668e-05
-7.31188e-07
-8.12364e-05
-7.30371e-07
-8.05089e-05
-7.27455e-07
-7.97862e-05
-7.22744e-07
-7.90697e-05
-7.16523e-07
-7.83606e-05
-7.09067e-07
-7.76599e-05
-7.00635e-07
-7.69685e-05
-6.91477e-07
-7.62866e-05
-6.81829e-07
-7.56147e-05
-6.71913e-07
-7.49528e-05
-6.61937e-07
-7.43007e-05
-6.52095e-07
-7.36582e-05
-6.42564e-07
-7.30247e-05
-6.33504e-07
-7.23996e-05
-6.2506e-07
-7.17823e-05
-6.17365e-07
-7.11717e-05
-6.10543e-07
-7.0567e-05
-6.04712e-07
-6.9967e-05
-5.99954e-07
-6.93706e-05
-5.96458e-07
-6.87757e-05
-5.94839e-07
-6.81195e-05
-6.56208e-07
-6.74e-05
-7.19532e-07
-6.66154e-05
-7.84528e-07
-6.57652e-05
-8.50171e-07
-6.485e-05
-9.15221e-07
-6.38719e-05
-9.78118e-07
-6.28349e-05
-1.03706e-06
-6.17449e-05
-1.09008e-06
-6.06098e-05
-1.13514e-06
-5.94394e-05
-1.17034e-06
-5.82454e-05
-1.19402e-06
-5.70405e-05
-1.20494e-06
-5.58381e-05
-1.20241e-06
-5.46517e-05
-1.1864e-06
-5.34942e-05
-1.15748e-06
-5.23773e-05
-1.11687e-06
-5.1311e-05
-1.06624e-06
-5.03034e-05
-1.00757e-06
-4.93603e-05
-9.43029e-07
-4.84855e-05
-8.74767e-07
-4.76807e-05
-8.04803e-07
-4.69457e-05
-7.34922e-07
-4.6279e-05
-6.6662e-07
-4.56779e-05
-6.01086e-07
-4.51387e-05
-5.39208e-07
-4.46571e-05
-4.81563e-07
-4.42285e-05
-4.28557e-07
-4.38479e-05
-3.80686e-07
-4.34732e-05
-3.74681e-07
-4.31029e-05
-3.70337e-07
-4.27351e-05
-3.6779e-07
-4.23682e-05
-3.66951e-07
-4.20005e-05
-3.67744e-07
-4.16305e-05
-3.70082e-07
-4.12566e-05
-3.73872e-07
-4.08777e-05
-3.79018e-07
-4.04923e-05
-3.85422e-07
-4.00994e-05
-3.92974e-07
-3.96978e-05
-4.01559e-07
-3.92868e-05
-4.11052e-07
-3.88655e-05
-4.21313e-07
-3.84333e-05
-4.32187e-07
-3.79898e-05
-4.435e-07
-3.75347e-05
-4.55059e-07
-3.70681e-05
-4.66645e-07
-3.65901e-05
-4.78015e-07
-3.61011e-05
-4.88897e-07
-3.56021e-05
-4.98996e-07
-3.50941e-05
-5.07988e-07
-3.45785e-05
-5.15528e-07
-3.40573e-05
-5.21252e-07
-3.35324e-05
-5.24782e-07
-3.30067e-05
-5.25737e-07
-3.24829e-05
-5.23741e-07
-3.19645e-05
-5.18443e-07
-3.14549e-05
-5.09528e-07
-3.09582e-05
-4.96742e-07
-3.04782e-05
-4.79909e-07
-3.00193e-05
-4.58953e-07
-2.95854e-05
-4.33915e-07
-2.91804e-05
-4.04969e-07
-2.8808e-05
-3.72427e-07
-2.84712e-05
-3.36746e-07
-2.81727e-05
-2.98511e-07
-2.79142e-05
-2.58414e-07
-2.7697e-05
-2.17213e-07
-2.75212e-05
-1.75674e-07
-2.73867e-05
-1.34513e-07
-2.72923e-05
-9.4324e-08
-2.72367e-05
-5.55316e-08
-2.72185e-05
-1.82413e-08
-2.72348e-05
1.63377e-08
-2.72817e-05
4.68933e-08
-2.73568e-05
7.50544e-08
-2.746e-05
1.03184e-07
-2.75931e-05
1.33081e-07
-2.77607e-05
1.67556e-07
-2.79717e-05
2.10971e-07
-2.82418e-05
2.70125e-07
-2.85969e-05
3.55088e-07
-2.90766e-05
4.79687e-07
-2.97374e-05
6.60853e-07
-3.06538e-05
9.16393e-07
-3.19162e-05
1.26239e-06
-3.36136e-05
1.69742e-06
-3.58577e-05
2.24408e-06
4.14231e-06
-0.000111707
1.11225e-06
-0.000112663
1.88912e-06
-0.000113623
1.89878e-06
-0.000114622
1.94484e-06
-0.000115648
1.97452e-06
-0.000116712
2.01581e-06
-0.00011782
2.06552e-06
-0.000118984
2.12638e-06
-0.000120216
2.19807e-06
-0.000121533
2.27897e-06
-0.000122959
2.3642e-06
-0.000124529
2.44678e-06
-0.000126303
2.52696e-06
-0.000128363
2.63676e-06
-0.000130787
2.85536e-06
-0.000133572
3.26069e-06
-0.000136635
3.83903e-06
-0.000139883
4.47428e-06
-0.000143261
5.03278e-06
-0.000146729
5.43243e-06
-0.000150243
5.65488e-06
-0.00015375
5.72337e-06
-0.000157201
5.67761e-06
-0.000160561
5.55726e-06
-0.000163805
5.39412e-06
-0.000166917
5.20951e-06
-0.00016989
5.01464e-06
-0.000172717
4.81239e-06
-0.00017539
4.59949e-06
-0.000177899
4.36829e-06
-0.000180228
4.10839e-06
-0.000182356
3.80798e-06
-0.000184254
3.4549e-06
-0.00018589
3.0374e-06
-0.000187227
2.545e-06
-0.00018822
1.96931e-06
-0.000188823
1.30469e-06
-0.00018899
5.48673e-07
-0.000188669
-2.99586e-07
-0.000187803
-1.25919e-06
-0.000186346
-2.33907e-06
-0.000184264
-3.51402e-06
-0.000181533
-4.74758e-06
-0.00017815
-5.99012e-06
-0.000174142
-7.17228e-06
-0.000169575
-8.2006e-06
-0.000164564
-8.9565e-06
-0.000159289
-9.30511e-06
-0.00015399
-9.12137e-06
-0.000148969
-8.33779e-06
-0.000144548
-7.00198e-06
-0.000140995
-5.30849e-06
-0.000138439
-3.55941e-06
-0.000136812
-2.05156e-06
-0.0001359
-9.59655e-07
-0.000135442
-2.99915e-07
-0.000135226
1.62544e-08
-0.000135102
1.02764e-07
-0.000134971
5.39053e-08
-0.000134778
-6.67654e-08
-0.000134497
-2.23607e-07
-0.000134113
-3.9681e-07
-0.000133625
-5.73496e-07
-0.000133041
-7.45547e-07
-0.000132371
-9.0813e-07
-0.000131623
-1.05823e-06
-0.000130806
-1.19411e-06
-0.00012993
-1.31494e-06
-0.000129003
-1.42057e-06
-0.000128033
-1.5114e-06
-0.000127028
-1.58813e-06
-0.000125995
-1.6517e-06
-0.00012494
-1.70315e-06
-0.000123869
-1.74352e-06
-0.000122786
-1.77388e-06
-0.000121698
-1.79522e-06
-0.000120607
-1.80852e-06
-0.000119517
-1.8147e-06
-0.000118432
-1.81459e-06
-0.000117355
-1.809e-06
-0.000116286
-1.79865e-06
-0.000115229
-1.78424e-06
-0.000114186
-1.76641e-06
-0.000113157
-1.74577e-06
-0.000112143
-1.7229e-06
-0.000111145
-1.69837e-06
-0.000110164
-1.67269e-06
-0.000109199
-1.64638e-06
-0.000108251
-1.6199e-06
-0.00010732
-1.59368e-06
-0.000106404
-1.56815e-06
-0.000105503
-1.54368e-06
-0.000104616
-1.52058e-06
-0.000103742
-1.49918e-06
-0.000102879
-1.47973e-06
-0.000102027
-1.46246e-06
-0.000101184
-1.44759e-06
-0.000100349
-1.43531e-06
-9.95195e-05
-1.42583e-06
-9.8695e-05
-1.41938e-06
-9.77881e-05
-1.56304e-06
-9.67952e-05
-1.71242e-06
-9.5714e-05
-1.86571e-06
-9.45437e-05
-2.02043e-06
-9.32855e-05
-2.17343e-06
-9.19427e-05
-2.32093e-06
-9.05211e-05
-2.45866e-06
-8.90292e-05
-2.58195e-06
-8.74782e-05
-2.68609e-06
-8.5882e-05
-2.76661e-06
-8.42563e-05
-2.81973e-06
-8.26186e-05
-2.84265e-06
-8.09871e-05
-2.83391e-06
-7.938e-05
-2.79355e-06
-7.78143e-05
-2.7231e-06
-7.63057e-05
-2.62548e-06
-7.48672e-05
-2.50468e-06
-7.35093e-05
-2.36544e-06
-7.22394e-05
-2.21285e-06
-7.10622e-05
-2.05193e-06
-6.99795e-05
-1.88738e-06
-6.89911e-05
-1.72334e-06
-6.80944e-05
-1.56324e-06
-6.72857e-05
-1.40975e-06
-6.65601e-05
-1.26484e-06
-6.59119e-05
-1.12981e-06
-6.5335e-05
-1.00544e-06
-6.48237e-05
-8.92048e-07
-6.43215e-05
-8.76881e-07
-6.38256e-05
-8.66212e-07
-6.33336e-05
-8.59829e-07
-6.28431e-05
-8.575e-07
-6.23519e-05
-8.58992e-07
-6.1858e-05
-8.6408e-07
-6.13594e-05
-8.72536e-07
-6.08543e-05
-8.8413e-07
-6.03412e-05
-8.98624e-07
-5.98184e-05
-9.15765e-07
-5.92847e-05
-9.35285e-07
-5.87388e-05
-9.56888e-07
-5.81799e-05
-9.80248e-07
-5.76071e-05
-1.005e-06
-5.70198e-05
-1.03075e-06
-5.64178e-05
-1.05703e-06
-5.5801e-05
-1.08333e-06
-5.51699e-05
-1.10909e-06
-5.45251e-05
-1.13368e-06
-5.38677e-05
-1.1564e-06
-5.31991e-05
-1.17651e-06
-5.25214e-05
-1.1932e-06
-5.18369e-05
-1.20563e-06
-5.11487e-05
-1.21292e-06
-5.04603e-05
-1.21418e-06
-4.97754e-05
-1.20854e-06
-4.90987e-05
-1.19518e-06
-4.84348e-05
-1.17337e-06
-4.7789e-05
-1.14252e-06
-4.71667e-05
-1.1022e-06
-4.65735e-05
-1.05222e-06
-4.60147e-05
-9.92661e-07
-4.54958e-05
-9.239e-07
-4.50215e-05
-8.46638e-07
-4.45963e-05
-7.61899e-07
-4.42238e-05
-6.71e-07
-4.39066e-05
-5.75491e-07
-4.36466e-05
-4.77059e-07
-4.34448e-05
-3.77399e-07
-4.33012e-05
-2.78084e-07
-4.3215e-05
-1.80403e-07
-4.31853e-05
-8.52491e-08
-4.32103e-05
6.79867e-09
-4.3286e-05
9.20324e-08
-4.34097e-05
1.70553e-07
-4.35825e-05
2.47796e-07
-4.38061e-05
3.26772e-07
-4.40845e-05
4.11394e-07
-4.44238e-05
5.06824e-07
-4.48327e-05
6.19899e-07
-4.53221e-05
7.59495e-07
-4.59036e-05
9.366e-07
-4.65876e-05
1.16372e-06
-4.738e-05
1.45324e-06
-4.82786e-05
1.81502e-06
-4.927e-05
2.25375e-06
-5.03162e-05
2.74361e-06
-5.13566e-05
3.28455e-06
5.21917e-06
-0.000150486
1.71139e-06
-0.000151518
2.92134e-06
-0.000152563
2.94379e-06
-0.000153674
3.05581e-06
-0.000154835
3.13603e-06
-0.00015606
3.24026e-06
-0.000157356
3.36168e-06
-0.000158737
3.50763e-06
-0.00016022
3.68112e-06
-0.000161828
3.88678e-06
-0.000163594
4.13025e-06
-0.000165572
4.4245e-06
-0.000167853
4.80771e-06
-0.00017059
5.37428e-06
-0.000174002
6.26668e-06
-0.000178278
7.5365e-06
-0.000183419
8.98067e-06
-0.000189196
1.02506e-05
-0.000195287
1.11242e-05
-0.000201427
1.15714e-05
-0.000207432
1.16598e-05
-0.00021319
1.14816e-05
-0.000218637
1.11252e-05
-0.000223744
1.06641e-05
-0.000228502
1.01521e-05
-0.000232917
9.62387e-06
-0.000236999
9.09663e-06
-0.00024076
8.57433e-06
-0.000244212
8.05109e-06
-0.000247358
7.51415e-06
-0.000250196
6.94642e-06
-0.000252716
6.32852e-06
-0.000254902
5.64037e-06
-0.000256727
4.86239e-06
-0.000258159
3.97691e-06
-0.000259159
2.96938e-06
-0.000259684
1.82951e-06
-0.000259687
5.51813e-07
-0.000259116
-8.70425e-07
-0.000257922
-2.45277e-06
-0.000256065
-4.19649e-06
-0.000253504
-6.07456e-06
-0.00025021
-8.04207e-06
-0.000246169
-1.00311e-05
-0.000241395
-1.19463e-05
-0.000235934
-1.36613e-05
-0.000229872
-1.50187e-05
-0.000223337
-1.58399e-05
-0.000216508
-1.59507e-05
-0.000209616
-1.52292e-05
-0.000202951
-1.36672e-05
-0.000196841
-1.14186e-05
-0.000191602
-8.79808e-06
-0.00018745
-6.20375e-06
-0.00018442
-3.98948e-06
-0.000182364
-2.3568e-06
-0.000181019
-1.32816e-06
-0.000180116
-8.00865e-07
-0.000179434
-6.28001e-07
-0.000178824
-6.76543e-07
-0.000178198
-8.49186e-07
-0.000177512
-1.08322e-06
-0.000176745
-1.34096e-06
-0.00017589
-1.60023e-06
-0.00017495
-1.84831e-06
-0.00017393
-2.07806e-06
-0.000172838
-2.28572e-06
-0.000171684
-2.46964e-06
-0.000170475
-2.62956e-06
-0.00016922
-2.76609e-06
-0.000167928
-2.88039e-06
-0.000166606
-2.97396e-06
-0.000165261
-3.04845e-06
-0.000163899
-3.10557e-06
-0.000162525
-3.14705e-06
-0.000161146
-3.17453e-06
-0.000159765
-3.18956e-06
-0.000158386
-3.19359e-06
-0.000157013
-3.18793e-06
-0.000155648
-3.17382e-06
-0.000154295
-3.15239e-06
-0.000152954
-3.12469e-06
-0.000151629
-3.09171e-06
-0.00015032
-3.05438e-06
-0.00014903
-3.01362e-06
-0.000147758
-2.97027e-06
-0.000146505
-2.92515e-06
-0.000145272
-2.87905e-06
-0.00014406
-2.83272e-06
-0.000142866
-2.78687e-06
-0.000141692
-2.74216e-06
-0.000140537
-2.69922e-06
-0.000139399
-2.65862e-06
-0.000138277
-2.62087e-06
-0.00013717
-2.58643e-06
-0.000136077
-2.55571e-06
-0.000134996
-2.52905e-06
-0.000133924
-2.50675e-06
-0.000132861
-2.48902e-06
-0.000131804
-2.47604e-06
-0.000130643
-2.72471e-06
-0.000129371
-2.98358e-06
-0.000127988
-3.24915e-06
-0.000126491
-3.51702e-06
-0.000124883
-3.78155e-06
-0.000123168
-4.03608e-06
-0.000121354
-4.27306e-06
-0.000119451
-4.48441e-06
-0.000117476
-4.66194e-06
-0.000115444
-4.79802e-06
-0.000113378
-4.88617e-06
-0.000111299
-4.92175e-06
-0.00010923
-4.90242e-06
-0.000107195
-4.82844e-06
-0.000105215
-4.70268e-06
-0.000103311
-4.53035e-06
-0.000101497
-4.31852e-06
-9.97865e-05
-4.07548e-06
-9.81893e-05
-3.81003e-06
-9.67104e-05
-3.53087e-06
-9.53517e-05
-3.24605e-06
-9.41125e-05
-2.96262e-06
-9.29893e-05
-2.6864e-06
-9.19772e-05
-2.42191e-06
-9.10696e-05
-2.17242e-06
-9.02594e-05
-1.94005e-06
-8.95389e-05
-1.72595e-06
-8.89005e-05
-1.53043e-06
-8.82739e-05
-1.50345e-06
-8.76557e-05
-1.48444e-06
-8.70427e-05
-1.47285e-06
-8.6432e-05
-1.46824e-06
-8.58209e-05
-1.47019e-06
-8.52067e-05
-1.47828e-06
-8.45871e-05
-1.49212e-06
-8.396e-05
-1.5113e-06
-8.33232e-05
-1.5354e-06
-8.2675e-05
-1.56399e-06
-8.20136e-05
-1.59659e-06
-8.13378e-05
-1.63269e-06
-8.06463e-05
-1.67174e-06
-7.99382e-05
-1.7131e-06
-7.92129e-05
-1.75607e-06
-7.847e-05
-1.79986e-06
-7.77097e-05
-1.84361e-06
-7.69324e-05
-1.88633e-06
-7.61391e-05
-1.92696e-06
-7.53312e-05
-1.9643e-06
-7.45106e-05
-1.99709e-06
-7.36798e-05
-2.02395e-06
-7.2842e-05
-2.04343e-06
-7.20008e-05
-2.05406e-06
-7.11606e-05
-2.05431e-06
-7.03264e-05
-2.0427e-06
-6.95037e-05
-2.01786e-06
-6.86986e-05
-1.97852e-06
-6.79174e-05
-1.92367e-06
-6.7167e-05
-1.8526e-06
-6.64543e-05
-1.76498e-06
-6.5786e-05
-1.66091e-06
-6.51689e-05
-1.54104e-06
-6.4609e-05
-1.40653e-06
-6.41117e-05
-1.2591e-06
-6.36817e-05
-1.10098e-06
-6.33223e-05
-9.3479e-07
-6.30358e-05
-7.63396e-07
-6.28234e-05
-5.89725e-07
-6.26849e-05
-4.16545e-07
-6.2619e-05
-2.46231e-07
-6.26236e-05
-8.06248e-08
-6.26936e-05
7.68193e-08
-6.28245e-05
2.22912e-07
-6.3014e-05
3.60093e-07
-6.32591e-05
4.92804e-07
-6.35565e-05
6.24148e-07
-6.39029e-05
7.57788e-07
-6.42942e-05
8.98051e-07
-6.47245e-05
1.05015e-06
-6.51855e-05
1.22044e-06
-6.56656e-05
1.41678e-06
-6.61506e-05
1.64866e-06
-6.66239e-05
1.92662e-06
-6.70695e-05
2.26057e-06
-6.74721e-05
2.65635e-06
-6.78124e-05
3.08394e-06
-6.80684e-05
3.54052e-06
5.38086e-06
-0.000196922
2.39355e-06
-0.000198095
4.09352e-06
-0.000199287
4.13656e-06
-0.000200571
4.33989e-06
-0.000201926
4.49065e-06
-0.000203366
4.68008e-06
-0.0002049
4.89635e-06
-0.000206545
5.15252e-06
-0.00020832
5.45537e-06
-0.000210249
5.81659e-06
-0.000212372
6.25318e-06
-0.000214747
6.79886e-06
-0.000217469
7.52995e-06
-0.000220699
8.60452e-06
-0.000224675
1.02425e-05
-0.000229659
1.25197e-05
-0.000235795
1.51166e-05
-0.000243006
1.74613e-05
-0.000251027
1.91456e-05
-0.000259518
2.00622e-05
-0.000268143
2.02851e-05
-0.000276619
1.99573e-05
-0.000284733
1.92389e-05
-0.000292347
1.82783e-05
-0.00029939
1.71954e-05
-0.000305841
1.6075e-05
-0.000311711
1.49668e-05
-0.000317028
1.38914e-05
-0.000321825
1.28478e-05
-0.000326131
1.18197e-05
-0.000329966
1.07819e-05
-0.000333342
9.70419e-06
-0.000336256
8.55441e-06
-0.000338694
7.301e-06
-0.000340633
5.91516e-06
-0.000342036
4.37279e-06
-0.000342863
2.65619e-06
-0.000343066
7.55074e-07
-0.000342597
-1.33922e-06
-0.00034141
-3.63996e-06
-0.000339457
-6.14935e-06
-0.00033669
-8.84147e-06
-0.000333068
-1.16635e-05
-0.000328569
-1.45302e-05
-0.000323194
-1.73214e-05
-0.000316974
-1.98813e-05
-0.000309973
-2.20195e-05
-0.00030229
-2.35231e-05
-0.000294057
-2.41833e-05
-0.000285447
-2.38394e-05
-0.00027668
-2.24344e-05
-0.000268035
-2.00631e-05
-0.000259849
-1.69845e-05
-0.000252473
-1.35795e-05
-0.0002462
-1.02632e-05
-0.000241173
-7.38362e-06
-0.000237353
-5.14737e-06
-0.000234551
-3.60316e-06
-0.000232502
-2.67761e-06
-0.000230943
-2.23527e-06
-0.000229661
-2.13064e-06
-0.000228505
-2.23919e-06
-0.000227378
-2.46833e-06
-0.000226223
-2.75541e-06
-0.000225011
-3.06066e-06
-0.000223729
-3.35995e-06
-0.000222375
-3.63932e-06
-0.000220954
-3.89126e-06
-0.000219471
-4.11237e-06
-0.000217935
-4.3018e-06
-0.000216355
-4.46025e-06
-0.00021474
-4.58936e-06
-0.000213097
-4.69128e-06
-0.000211434
-4.76841e-06
-0.000209758
-4.82323e-06
-0.000208074
-4.85819e-06
-0.000206388
-4.87562e-06
-0.000204704
-4.87767e-06
-0.000203026
-4.86633e-06
-0.000201356
-4.84342e-06
-0.000199698
-4.81059e-06
-0.000198053
-4.76932e-06
-0.000196424
-4.72099e-06
-0.000194812
-4.66686e-06
-0.000193217
-4.6081e-06
-0.000191642
-4.54582e-06
-0.000190086
-4.48107e-06
-0.00018855
-4.41486e-06
-0.000187034
-4.34817e-06
-0.000185539
-4.28193e-06
-0.000184065
-4.21704e-06
-0.000182609
-4.15436e-06
-0.000181173
-4.09471e-06
-0.000179755
-4.03886e-06
-0.000178354
-3.98749e-06
-0.000176969
-3.94124e-06
-0.000175597
-3.90068e-06
-0.000174238
-3.86631e-06
-0.000172888
-3.83849e-06
-0.000171547
-3.81751e-06
-0.000170072
-4.19959e-06
-0.000168459
-4.59691e-06
-0.000166704
-5.00416e-06
-0.000164806
-5.41449e-06
-0.000162768
-5.81916e-06
-0.000160597
-6.20781e-06
-0.000158301
-6.56875e-06
-0.000155896
-6.88944e-06
-0.0001534
-7.15732e-06
-0.000150838
-7.36067e-06
-0.000148234
-7.48971e-06
-0.000145619
-7.53752e-06
-0.00014302
-7.50079e-06
-0.000140468
-7.38025e-06
-0.00013799
-7.18067e-06
-0.00013561
-6.91036e-06
-0.000133348
-6.58043e-06
-0.00013122
-6.20378e-06
-0.000129236
-5.79401e-06
-0.000127403
-5.36444e-06
-0.000125721
-4.92734e-06
-0.000124191
-4.49336e-06
-0.000122806
-4.07125e-06
-0.00012156
-3.66773e-06
-0.000120445
-3.28764e-06
-0.000119451
-2.93407e-06
-0.000118568
-2.6086e-06
-0.000117787
-2.31166e-06
-0.000117021
-2.26961e-06
-0.000116265
-2.23963e-06
-0.000115517
-2.22089e-06
-0.000114773
-2.21268e-06
-0.000114029
-2.21435e-06
-0.000113282
-2.22525e-06
-0.000112529
-2.24477e-06
-0.000111768
-2.27227e-06
-0.000110996
-2.30711e-06
-0.000110212
-2.34861e-06
-0.000109412
-2.39604e-06
-0.000108596
-2.44861e-06
-0.000107763
-2.50546e-06
-0.00010691
-2.56562e-06
-0.000106038
-2.62802e-06
-0.000105146
-2.69149e-06
-0.000104235
-2.75468e-06
-0.000103306
-2.81613e-06
-0.000102358
-2.87422e-06
-0.000101395
-2.92719e-06
-0.000100419
-2.97313e-06
-9.94331e-05
-3.01002e-06
-9.84408e-05
-3.03572e-06
-9.74468e-05
-3.04803e-06
-9.64563e-05
-3.04477e-06
-9.54752e-05
-3.02379e-06
-9.451e-05
-2.98309e-06
-9.35676e-05
-2.92094e-06
-9.26553e-05
-2.83593e-06
-9.17808e-05
-2.72712e-06
-9.09517e-05
-2.59416e-06
-9.01752e-05
-2.4374e-06
-8.94582e-05
-2.25795e-06
-8.8807e-05
-2.05773e-06
-8.82265e-05
-1.8395e-06
-8.77207e-05
-1.60676e-06
-8.72917e-05
-1.36364e-06
-8.69404e-05
-1.11466e-06
-8.66655e-05
-8.64487e-07
-8.64644e-05
-6.17608e-07
-8.63325e-05
-3.78041e-07
-8.6264e-05
-1.49103e-07
-8.62531e-05
6.5946e-08
-8.62942e-05
2.63988e-07
-8.63799e-05
4.45824e-07
-8.65024e-05
6.15185e-07
-8.66535e-05
7.75192e-07
-8.68254e-05
9.2966e-07
-8.70106e-05
1.08315e-06
-8.72016e-05
1.24116e-06
-8.73915e-05
1.41035e-06
-8.75736e-05
1.5989e-06
-8.77416e-05
1.81662e-06
-8.78892e-05
2.0742e-06
-8.80102e-05
2.38168e-06
-8.80988e-05
2.74493e-06
-8.81457e-05
3.13084e-06
-8.81361e-05
3.53091e-06
5.18898e-06
-0.000252354
3.18138e-06
-0.000253698
5.43707e-06
-0.00025507
5.50894e-06
-0.000256557
5.82711e-06
-0.000258134
6.06717e-06
-0.000259817
6.36314e-06
-0.000261617
6.69704e-06
-0.000263554
7.08886e-06
-0.000265648
7.54985e-06
-0.000267932
8.0999e-06
-0.000270447
8.76855e-06
-0.000273259
9.6112e-06
-0.00027647
1.0741e-05
-0.000280238
1.23724e-05
-0.000284786
1.47897e-05
-0.000290363
1.80973e-05
-0.000297163
2.19162e-05
-0.000305232
2.55303e-05
-0.00031445
2.83644e-05
-0.000324566
3.01777e-05
-0.000335247
3.09661e-05
-0.000346141
3.08516e-05
-0.000356922
3.00199e-05
-0.000367322
2.86778e-05
-0.000377146
2.70196e-05
-0.000386276
2.52051e-05
-0.000394658
2.33485e-05
-0.000402284
2.15178e-05
-0.000409177
1.97403e-05
-0.000415369
1.80122e-05
-0.000420896
1.63087e-05
-0.000425783
1.45918e-05
-0.000430046
1.28171e-05
-0.000433684
1.09389e-05
-0.000436683
8.91403e-06
-0.000439016
6.70561e-06
-0.000440645
4.28585e-06
-0.000441528
1.63814e-06
-0.000441622
-1.24525e-06
-0.00044089
-4.37193e-06
-0.000439291
-7.74833e-06
-0.000436776
-1.13562e-05
-0.000433301
-1.5139e-05
-0.000428834
-1.89973e-05
-0.000423364
-2.27907e-05
-0.000416905
-2.63408e-05
-0.000409489
-2.9435e-05
-0.000401172
-3.18403e-05
-0.000392027
-3.3328e-05
-0.000382155
-3.37123e-05
-0.000371693
-3.28962e-05
-0.000360845
-3.09104e-05
-0.000349901
-2.79291e-05
-0.000339229
-2.42516e-05
-0.000329239
-2.02527e-05
-0.000320307
-1.63161e-05
-0.000312685
-1.27691e-05
-0.000306454
-9.83473e-06
-0.00030152
-7.61154e-06
-0.000297671
-6.08425e-06
-0.000294643
-5.15789e-06
-0.000292183
-4.69982e-06
-0.000290076
-4.57484e-06
-0.000288165
-4.66624e-06
-0.000286342
-4.88387e-06
-0.000284539
-5.16359e-06
-0.000282715
-5.46264e-06
-0.000280853
-5.75409e-06
-0.000278943
-6.02206e-06
-0.000276987
-6.25809e-06
-0.000274989
-6.45847e-06
-0.000272955
-6.62258e-06
-0.000270895
-6.7516e-06
-0.000268816
-6.84785e-06
-0.000266725
-6.9142e-06
-0.000264629
-6.95379e-06
-0.000262535
-6.96978e-06
-0.000260448
-6.96523e-06
-0.000258371
-6.94303e-06
-0.000256309
-6.90582e-06
-0.000254263
-6.85601e-06
-0.000252237
-6.79573e-06
-0.000250231
-6.72693e-06
-0.000248246
-6.65131e-06
-0.000246284
-6.57043e-06
-0.000244344
-6.4857e-06
-0.000242427
-6.39841e-06
-0.000240532
-6.30976e-06
-0.000238659
-6.22089e-06
-0.000236808
-6.13289e-06
-0.000234978
-6.0468e-06
-0.000233169
-5.96363e-06
-0.00023138
-5.88435e-06
-0.000229608
-5.80989e-06
-0.000227855
-5.74113e-06
-0.000226117
-5.6789e-06
-0.000224394
-5.62398e-06
-0.000222683
-5.57706e-06
-0.000220983
-5.53874e-06
-0.000219291
-5.50949e-06
-0.000217429
-6.06115e-06
-0.000215392
-6.63414e-06
-0.000213175
-7.22098e-06
-0.000210778
-7.81168e-06
-0.000208204
-8.3936e-06
-0.00020546
-8.95169e-06
-0.00020256
-9.46892e-06
-0.000199522
-9.92708e-06
-0.000196372
-1.03079e-05
-0.000193138
-1.05946e-05
-0.000189854
-1.07731e-05
-0.000186558
-1.08337e-05
-0.000183287
-1.07719e-05
-0.000180078
-1.05893e-05
-0.000176965
-1.02932e-05
-0.00017398
-9.89592e-06
-0.000171146
-9.41401e-06
-0.000168484
-8.86628e-06
-0.000166005
-8.27248e-06
-0.000163718
-7.65184e-06
-0.000161623
-7.02194e-06
-0.000159719
-6.39796e-06
-0.000157998
-5.79223e-06
-0.000156451
-5.2142e-06
-0.000155068
-4.67053e-06
-0.000153837
-4.16545e-06
-0.000152744
-3.70104e-06
-0.000151778
-3.27779e-06
-0.000150832
-3.21613e-06
-0.0001499
-3.17163e-06
-0.000148978
-3.14302e-06
-0.000148061
-3.12932e-06
-0.000147146
-3.12955e-06
-0.000146228
-3.1428e-06
-0.000145305
-3.16814e-06
-0.000144373
-3.20468e-06
-0.000143428
-3.25148e-06
-0.000142469
-3.30754e-06
-0.000141493
-3.37181e-06
-0.000140499
-3.44318e-06
-0.000139484
-3.52037e-06
-0.000138447
-3.60203e-06
-0.000137389
-3.68662e-06
-0.000136308
-3.77245e-06
-0.000135205
-3.85766e-06
-0.000134081
-3.94018e-06
-0.000132937
-4.01774e-06
-0.000131777
-4.0879e-06
-0.000130602
-4.14802e-06
-0.000129416
-4.19531e-06
-0.000128225
-4.22688e-06
-0.000127033
-4.23976e-06
-0.000125847
-4.23103e-06
-0.000124673
-4.19788e-06
-0.000123518
-4.13772e-06
-0.000122391
-4.04834e-06
-0.000121299
-3.92807e-06
-0.00012025
-3.77589e-06
-0.000119253
-3.5916e-06
-0.000118314
-3.37598e-06
-0.000117441
-3.13085e-06
-0.00011664
-2.85914e-06
-0.000115914
-2.56489e-06
-0.000115268
-2.25311e-06
-0.000114702
-1.92962e-06
-0.000114216
-1.60073e-06
-0.000113807
-1.2729e-06
-0.000113472
-9.52367e-07
-0.000113206
-6.44667e-07
-0.000113
-3.54375e-07
-0.00011285
-8.48252e-08
-0.000112747
1.61374e-07
-0.000112685
3.83659e-07
-0.000112654
5.84716e-07
-0.000112648
7.68348e-07
-0.000112657
9.39003e-07
-0.000112676
1.10198e-06
-0.000112698
1.26352e-06
-0.000112719
1.43087e-06
-0.000112733
1.61255e-06
-0.000112734
1.81836e-06
-0.000112719
2.05861e-06
-0.00011268
2.34276e-06
-0.000112611
2.67665e-06
-0.000112506
3.02543e-06
-0.000112351
3.37579e-06
4.81163e-06
-0.000316617
4.07662e-06
-0.000318126
6.94571e-06
-0.000319673
7.05554e-06
-0.000321355
7.50956e-06
-0.000323144
7.85639e-06
-0.00032506
8.2791e-06
-0.000327116
8.75299e-06
-0.000329334
9.3063e-06
-0.00033174
9.95583e-06
-0.000334371
1.07312e-05
-0.000337278
1.16761e-05
-0.000340536
1.28687e-05
-0.000344251
1.44561e-05
-0.000348575
1.66959e-05
-0.000353694
1.99094e-05
-0.00035981
2.42128e-05
-0.000367101
2.92079e-05
-0.000375693
3.41227e-05
-0.000385609
3.82797e-05
-0.000396739
4.13077e-05
-0.000408854
4.30817e-05
-0.000421642
4.36392e-05
-0.00043475
4.31283e-05
-0.000447834
4.17617e-05
-0.000460589
3.97744e-05
-0.000472773
3.73894e-05
-0.000484218
3.47934e-05
-0.000494823
3.21235e-05
-0.000504547
2.94641e-05
-0.000513387
2.68517e-05
-0.000521362
2.42839e-05
-0.000528501
2.17308e-05
-0.000534828
1.91445e-05
-0.000540358
1.64689e-05
-0.000545091
1.36467e-05
-0.000549012
1.06265e-05
-0.000552094
7.36799e-06
-0.000554302
3.84591e-06
-0.000555598
5.10923e-08
-0.000555963
-4.00702e-06
-0.000555387
-8.32485e-06
-0.000553838
-1.29049e-05
-0.000551274
-1.77028e-05
-0.000547658
-2.26138e-05
-0.000542963
-2.74851e-05
-0.000537178
-3.21255e-05
-0.0005303
-3.63131e-05
-0.000522331
-3.98095e-05
-0.000513277
-4.23825e-05
-0.000503152
-4.38374e-05
-0.000491997
-4.40503e-05
-0.000479912
-4.2996e-05
-0.000467079
-4.07619e-05
-0.000453789
-3.75417e-05
-0.00044043
-3.36118e-05
-0.000427449
-2.92967e-05
-0.000415289
-2.49296e-05
-0.000404311
-2.08127e-05
-0.000394739
-1.71828e-05
-0.000386635
-1.41885e-05
-0.000379909
-1.18837e-05
-0.000374369
-1.02401e-05
-0.000369773
-9.17118e-06
-0.000365877
-8.56167e-06
-0.000362469
-8.29189e-06
-0.000359379
-8.25428e-06
-0.00035648
-8.36132e-06
-0.000353687
-8.54706e-06
-0.000350944
-8.76483e-06
-0.000348219
-8.98353e-06
-0.000345494
-9.18371e-06
-0.000342762
-9.35427e-06
-0.000340024
-9.48985e-06
-0.000337283
-9.58888e-06
-0.000334545
-9.65226e-06
-0.000331816
-9.68239e-06
-0.000329104
-9.6825e-06
-0.000326413
-9.65622e-06
-0.000323749
-9.60725e-06
-0.000321115
-9.53924e-06
-0.000318516
-9.45558e-06
-0.000315952
-9.35939e-06
-0.000313425
-9.25348e-06
-0.000310936
-9.14033e-06
-0.000308485
-9.02216e-06
-0.000306069
-8.90089e-06
-0.00030369
-8.77824e-06
-0.000301344
-8.65572e-06
-0.00029903
-8.53471e-06
-0.000296746
-8.41644e-06
-0.000294491
-8.30209e-06
-0.000292262
-8.19274e-06
-0.000290057
-8.08942e-06
-0.000287874
-7.99312e-06
-0.00028571
-7.90478e-06
-0.000283563
-7.82531e-06
-0.000281432
-7.75555e-06
-0.000279313
-7.6963e-06
-0.000277203
-7.64826e-06
-0.000275101
-7.61206e-06
-0.000272784
-8.37805e-06
-0.000270245
-9.17334e-06
-0.000267478
-9.9875e-06
-0.000264483
-1.08065e-05
-0.000261264
-1.16128e-05
-0.000257831
-1.23851e-05
-0.0002542
-1.30998e-05
-0.000250396
-1.37314e-05
-0.000246449
-1.42546e-05
-0.000242398
-1.46458e-05
-0.000238285
-1.48858e-05
-0.000234158
-1.49612e-05
-0.000230063
-1.48664e-05
-0.000226049
-1.46037e-05
-0.000222158
-1.41841e-05
-0.000218429
-1.36253e-05
-0.000214892
-1.29506e-05
-0.000211572
-1.21865e-05
-0.000208484
-1.13606e-05
-0.000205636
-1.04996e-05
-0.00020303
-9.62776e-06
-0.000200662
-8.76577e-06
-0.000198524
-7.93045e-06
-0.000196604
-7.13451e-06
-0.000194888
-6.38684e-06
-0.00019336
-5.69297e-06
-0.000192005
-5.05559e-06
-0.000190808
-4.47516e-06
-0.000189635
-4.38863e-06
-0.000188481
-4.32554e-06
-0.00018734
-4.28409e-06
-0.000186207
-4.26287e-06
-0.000185076
-4.26055e-06
-0.000183943
-4.27584e-06
-0.000182803
-4.30748e-06
-0.000181654
-4.3542e-06
-0.000180491
-4.41469e-06
-0.000179311
-4.48761e-06
-0.000178111
-4.57148e-06
-0.000176889
-4.66474e-06
-0.000175644
-4.76568e-06
-0.000174374
-4.87241e-06
-0.000173077
-4.98284e-06
-0.000171755
-5.09467e-06
-0.000170407
-5.20536e-06
-0.000169035
-5.31213e-06
-0.000167641
-5.41194e-06
-0.000166227
-5.50151e-06
-0.000164798
-5.57736e-06
-0.000163358
-5.6358e-06
-0.000161911
-5.67307e-06
-0.000160466
-5.68532e-06
-0.000159028
-5.6688e-06
-0.000157606
-5.61997e-06
-0.000156208
-5.53563e-06
-0.000154843
-5.41313e-06
-0.000153521
-5.25053e-06
-0.00015225
-5.04683e-06
-0.000151039
-4.80213e-06
-0.000149898
-4.5178e-06
-0.000148832
-4.19658e-06
-0.000147848
-3.84262e-06
-0.000146952
-3.46146e-06
-0.000146145
-3.05986e-06
-0.000145429
-2.64554e-06
-0.000144803
-2.22679e-06
-0.000144263
-1.81204e-06
-0.000143806
-1.40935e-06
-0.000143425
-1.02589e-06
-0.000143112
-6.67494e-07
-0.000142858
-3.38391e-07
-0.000142656
-4.09924e-08
-0.000142496
2.23983e-07
-0.00014237
4.58471e-07
-0.000142269
6.66742e-07
-0.000142184
8.54026e-07
-0.000142108
1.02648e-06
-0.000142036
1.19113e-06
-0.000141961
1.35589e-06
-0.000141878
1.52963e-06
-0.000141782
1.72213e-06
-0.000141667
1.94325e-06
-0.000141526
2.2019e-06
-0.000141353
2.50383e-06
-0.00014114
2.81228e-06
-0.000140878
3.11446e-06
4.29784e-06
-0.000387755
5.05411e-06
-0.000389376
8.56667e-06
-0.000391044
8.72366e-06
-0.000392864
9.32925e-06
-0.000394804
9.79701e-06
-0.000396888
1.03632e-05
-0.000399132
1.09964e-05
-0.00040156
1.17342e-05
-0.000404204
1.26001e-05
-0.000407108
1.36348e-05
-0.000410328
1.48969e-05
-0.000413945
1.64856e-05
-0.000418063
1.85743e-05
-0.00042281
2.14429e-05
-0.000428318
2.54172e-05
-0.000434713
3.06077e-05
-0.000442137
3.66321e-05
-0.000450755
4.27406e-05
-0.000460701
4.82264e-05
-0.00047202
5.26264e-05
-0.000484635
5.56968e-05
-0.000498358
5.73621e-05