/*--------------------------------*- C++ -*----------------------------------*\
| =========                 |                                                 |
| \\      /  F ield         | OpenFOAM: The Open Source CFD Toolbox           |
|  \\    /   O peration     | Version:  2406                                  |
|   \\  /    A nd           | Website:  www.openfoam.com                      |
|    \\/     M anipulation  |                                                 |
\*---------------------------------------------------------------------------*/
FoamFile
{
    version     2.0;
    format      ascii;
    arch        "LSB;label=32;scalar=64";
    class       volScalarField;
    location    "700";
    object      T;
}
// * * * * * * * * * * * * * * * * * * * * * * * * * * * * * * * * * * * * * //

dimensions      [0 0 0 1 0 0 0];

internalField   nonuniform List<scalar> 
5619
(
298.041
297.95
297.895
297.82
297.742
297.661
297.578
297.496
297.416
297.338
297.264
297.195
297.133
297.081
297.043
297.018
296.972
296.737
296.138
295.733
295.593
295.501
295.384
295.27
295.164
295.053
294.937
294.814
294.686
294.557
294.43
294.305
294.18
294.056
293.933
293.812
293.696
293.587
293.488
293.402
293.327
293.266
293.218
293.185
293.165
293.156
293.152
293.151
293.15
293.15
293.15
293.15
293.15
293.15
293.15
293.15
293.15
293.15
293.15
293.15
293.15
293.15
293.15
293.15
293.15
293.15
293.15
293.15
293.15
293.15
293.15
293.15
293.15
293.15
293.15
293.15
293.15
293.15
293.15
293.15
293.15
293.15
293.15
293.15
293.15
293.15
293.15
293.15
293.15
293.15
293.15
293.15
293.15
293.15
293.15
293.15
293.15
293.15
293.15
293.15
293.15
293.15
293.15
293.15
293.15
293.15
293.15
293.15
293.15
293.15
293.15
293.15
293.15
293.15
293.15
293.15
293.15
293.15
293.15
293.15
293.15
293.15
293.15
293.15
293.15
293.15
293.15
293.15
293.15
293.15
293.15
293.15
293.15
293.15
293.15
293.15
293.15
293.15
293.15
293.15
293.15
293.15
293.15
293.15
293.15
293.15
293.15
293.15
293.15
293.15
293.15
293.15
293.15
293.15
293.15
293.15
293.15
293.15
293.15
293.15
293.15
293.15
293.15
293.15
293.15
293.15
293.15
293.15
293.15
293.15
293.15
293.15
293.15
293.15
293.15
293.15
293.15
293.15
293.15
293.15
293.15
293.15
293.15
293.15
293.15
293.15
293.15
298.063
297.974
297.921
297.849
297.773
297.694
297.613
297.532
297.452
297.376
297.303
297.235
297.173
297.12
297.078
297.052
297.015
296.893
296.407
295.95
295.743
295.639
295.533
295.425
295.326
295.23
295.134
295.035
294.935
294.836
294.739
294.643
294.547
294.45
294.347
294.235
294.113
293.985
293.856
293.73
293.608
293.493
293.39
293.302
293.234
293.19
293.167
293.156
293.152
293.151
293.15
293.15
293.15
293.15
293.15
293.15
293.15
293.15
293.15
293.15
293.15
293.15
293.15
293.15
293.15
293.15
293.15
293.15
293.15
293.15
293.15
293.15
293.15
293.15
293.15
293.15
293.15
293.15
293.15
293.15
293.15
293.15
293.15
293.15
293.15
293.15
293.15
293.15
293.15
293.15
293.15
293.15
293.15
293.15
293.15
293.15
293.15
293.15
293.15
293.15
293.15
293.15
293.15
293.15
293.15
293.15
293.15
293.15
293.15
293.15
293.15
293.15
293.15
293.15
293.15
293.15
293.15
293.15
293.15
293.15
293.15
293.15
293.15
293.15
293.15
293.15
293.15
293.15
293.15
293.15
293.15
293.15
293.15
293.15
293.15
293.15
293.15
293.15
293.15
293.15
293.15
293.15
293.15
293.15
293.15
293.15
293.15
293.15
293.15
293.15
293.15
293.15
293.15
293.15
293.15
293.15
293.15
293.15
293.15
293.15
293.15
293.15
293.15
293.15
293.15
293.15
293.15
293.15
293.15
293.15
293.15
293.15
293.15
293.15
293.15
293.15
293.15
293.15
293.15
293.15
293.15
293.15
293.15
293.15
293.15
293.15
293.15
298.079
297.991
297.939
297.867
297.794
297.716
297.636
297.556
297.478
297.402
297.331
297.264
297.205
297.153
297.112
297.085
297.062
297.015
296.746
296.322
296.048
295.908
295.805
295.708
295.62
295.539
295.465
295.398
295.336
295.281
295.23
295.177
295.117
295.061
295.002
294.927
294.817
294.672
294.501
294.326
294.138
293.947
293.761
293.585
293.432
293.313
293.234
293.187
293.166
293.156
293.152
293.151
293.15
293.15
293.15
293.15
293.15
293.15
293.15
293.15
293.15
293.15
293.15
293.15
293.15
293.15
293.15
293.15
293.15
293.15
293.15
293.15
293.15
293.15
293.15
293.15
293.15
293.15
293.15
293.15
293.15
293.15
293.15
293.15
293.15
293.15
293.15
293.15
293.15
293.15
293.15
293.15
293.15
293.15
293.15
293.15
293.15
293.15
293.15
293.15
293.15
293.15
293.15
293.15
293.15
293.15
293.15
293.15
293.15
293.15
293.15
293.15
293.15
293.15
293.15
293.15
293.15
293.15
293.15
293.15
293.15
293.15
293.15
293.15
293.15
293.15
293.15
293.15
293.15
293.15
293.15
293.15
293.15
293.15
293.15
293.15
293.15
293.15
293.15
293.15
293.15
293.15
293.15
293.15
293.15
293.15
293.15
293.15
293.15
293.15
293.15
293.15
293.15
293.15
293.15
293.15
293.15
293.15
293.15
293.15
293.15
293.15
293.15
293.15
293.15
293.15
293.15
293.15
293.15
293.15
293.15
293.15
293.15
293.15
293.15
293.15
293.15
293.15
293.15
293.15
293.15
293.15
293.15
293.15
293.15
293.15
293.15
298.088
298.002
297.95
297.879
297.806
297.73
297.651
297.573
297.496
297.422
297.352
297.288
297.231
297.182
297.143
297.118
297.102
297.075
296.981
296.692
296.421
296.259
296.157
296.075
296.003
295.939
295.889
295.851
295.83
295.829
295.84
295.87
295.82
295.81
295.824
295.859
295.809
295.746
295.517
295.316
295.068
294.788
294.492
294.194
293.905
293.646
293.445
293.305
293.224
293.183
293.164
293.156
293.153
293.151
293.151
293.15
293.15
293.15
293.15
293.15
293.15
293.15
293.15
293.15
293.15
293.15
293.15
293.15
293.15
293.15
293.15
293.15
293.15
293.15
293.15
293.15
293.15
293.15
293.15
293.15
293.15
293.15
293.15
293.15
293.15
293.15
293.15
293.15
293.15
293.15
293.15
293.15
293.15
293.15
293.15
293.15
293.15
293.15
293.15
293.15
293.15
293.15
293.15
293.15
293.15
293.15
293.15
293.15
293.15
293.15
293.15
293.15
293.15
293.15
293.15
293.15
293.15
293.15
293.15
293.15
293.15
293.15
293.15
293.15
293.15
293.15
293.15
293.15
293.15
293.15
293.15
293.15
293.15
293.15
293.15
293.15
293.15
293.15
293.15
293.15
293.15
293.15
293.15
293.15
293.15
293.15
293.15
293.15
293.15
293.15
293.15
293.15
293.15
293.15
293.15
293.15
293.15
293.15
293.15
293.15
293.15
293.15
293.15
293.15
293.15
293.15
293.15
293.15
293.15
293.15
293.15
293.15
293.15
293.15
293.15
293.15
293.15
293.15
293.15
293.15
293.15
293.15
293.15
293.15
293.15
293.15
293.15
298.095
298.008
297.956
297.886
297.814
297.739
297.662
297.585
297.51
297.439
297.372
297.31
297.256
297.21
297.175
297.153
297.143
297.129
297.101
296.969
296.763
296.615
296.525
296.465
296.417
296.378
296.352
296.343
296.344
296.355
296.48
296.609
296.646
296.646
296.668
296.809
297.153
297.34
297.106
296.965
296.733
296.401
296.003
295.564
295.083
294.594
294.133
293.753
293.496
293.324
293.228
293.188
293.168
293.158
293.154
293.152
293.151
293.151
293.15
293.15
293.15
293.15
293.15
293.15
293.15
293.15
293.15
293.15
293.15
293.15
293.15
293.15
293.15
293.15
293.15
293.15
293.15
293.15
293.15
293.15
293.15
293.15
293.15
293.15
293.15
293.15
293.15
293.15
293.15
293.15
293.15
293.15
293.15
293.15
293.15
293.15
293.15
293.15
293.15
293.15
293.15
293.15
293.15
293.15
293.15
293.15
293.15
293.15
293.15
293.15
293.15
293.15
293.15
293.15
293.15
293.15
293.15
293.15
293.15
293.15
293.15
293.15
293.15
293.15
293.15
293.15
293.15
293.15
293.15
293.15
293.15
293.15
293.15
293.15
293.15
293.15
293.15
293.15
293.15
293.15
293.15
293.15
293.15
293.15
293.15
293.15
293.15
293.15
293.15
293.15
293.15
293.15
293.15
293.15
293.15
293.15
293.15
293.15
293.15
293.15
293.15
293.15
293.15
293.15
293.15
293.15
293.15
293.15
293.15
293.15
293.15
293.15
293.15
293.15
293.15
293.15
293.15
293.15
293.15
293.15
293.15
293.15
293.15
293.15
293.15
293.15
293.15
298.099
298.013
297.96
297.891
297.82
297.746
297.67
297.596
297.524
297.456
297.392
297.334
297.284
297.242
297.212
297.196
297.192
297.186
297.186
297.165
297.059
296.962
296.906
296.875
296.868
296.865
296.874
296.882
296.907
297.062
297.372
297.565
297.623
297.637
297.664
298.06
298.986
299.415
299.474
299.558
299.797
299.488
299.081
298.599
297.996
297.273
296.479
295.669
294.89
294.194
293.69
293.43
293.304
293.216
293.182
293.167
293.16
293.155
293.153
293.152
293.151
293.151
293.151
293.15
293.15
293.15
293.15
293.15
293.15
293.15
293.15
293.15
293.15
293.15
293.15
293.15
293.15
293.15
293.15
293.15
293.15
293.15
293.15
293.15
293.15
293.15
293.15
293.15
293.15
293.15
293.15
293.15
293.15
293.15
293.15
293.15
293.15
293.15
293.15
293.15
293.15
293.15
293.15
293.15
293.15
293.15
293.15
293.15
293.15
293.15
293.15
293.15
293.15
293.15
293.15
293.15
293.15
293.15
293.15
293.15
293.15
293.15
293.15
293.15
293.15
293.15
293.15
293.15
293.15
293.15
293.15
293.15
293.15
293.15
293.15
293.15
293.15
293.15
293.15
293.15
293.15
293.15
293.15
293.15
293.15
293.15
293.15
293.15
293.15
293.15
293.15
293.15
293.15
293.15
293.15
293.15
293.15
293.15
293.15
293.15
293.15
293.15
293.15
293.15
293.15
293.15
293.15
293.15
293.15
293.15
293.15
293.15
293.15
293.15
293.15
293.15
293.15
293.15
293.15
293.15
293.15
293.15
293.15
293.15
293.15
293.15
293.15
298.103
298.017
297.964
297.895
297.825
297.752
297.68
297.608
297.54
297.475
297.415
297.362
297.317
297.281
297.259
297.251
297.25
297.251
297.284
297.319
297.314
297.304
297.307
297.309
297.369
297.447
297.541
297.625
297.777
298.186
298.618
298.853
298.933
298.972
299.069
299.853
301.474
302.163
302.287
302.768
303.837
304.459
304.49
304.127
303.679
302.965
302.025
300.899
299.672
298.389
297.087
295.853
294.773
294.019
293.558
293.363
293.279
293.219
293.187
293.172
293.164
293.161
293.157
293.154
293.153
293.152
293.151
293.151
293.15
293.15
293.15
293.15
293.15
293.15
293.15
293.15
293.15
293.15
293.15
293.15
293.15
293.15
293.15
293.15
293.15
293.15
293.15
293.15
293.15
293.15
293.15
293.15
293.15
293.15
293.15
293.15
293.15
293.15
293.15
293.15
293.15
293.15
293.15
293.15
293.15
293.15
293.15
293.15
293.15
293.15
293.15
293.15
293.15
293.15
293.15
293.15
293.15
293.15
293.15
293.15
293.15
293.15
293.15
293.15
293.15
293.15
293.15
293.15
293.15
293.15
293.15
293.15
293.15
293.15
293.15
293.15
293.15
293.15
293.15
293.15
293.15
293.15
293.15
293.15
293.15
293.15
293.15
293.15
293.15
293.15
293.15
293.15
293.15
293.15
293.15
293.15
293.15
293.15
293.15
293.15
293.15
293.15
293.15
293.15
293.15
293.15
293.15
293.15
293.15
293.15
293.15
293.15
293.15
293.15
293.15
293.15
293.15
293.15
293.15
293.15
293.15
293.15
293.15
293.15
293.15
293.15
293.15
298.108
298.023
297.97
297.901
297.833
297.763
297.693
297.625
297.56
297.5
297.445
297.397
297.358
297.33
297.317
297.315
297.317
297.328
297.405
297.503
297.584
297.658
297.719
297.782
297.906
298.138
298.493
298.915
299.38
299.874
300.323
300.646
300.838
300.957
301.195
302.46
304.387
305.089
305.225
305.514
307.774
310.576
311.445
311.694
312.069
311.413
310.807
309.554
308.141
306.647
305.001
303.345
301.72
300.117
298.559
297.065
295.708
294.698
294.044
293.627
293.428
293.341
293.297
293.251
293.22
293.199
293.181
293.17
293.163
293.158
293.155
293.153
293.152
293.152
293.151
293.151
293.15
293.15
293.15
293.15
293.15
293.15
293.15
293.15
293.15
293.15
293.15
293.15
293.15
293.15
293.15
293.15
293.15
293.15
293.15
293.15
293.15
293.15
293.15
293.15
293.15
293.15
293.15
293.15
293.15
293.15
293.15
293.15
293.15
293.15
293.15
293.15
293.15
293.15
293.15
293.15
293.15
293.15
293.15
293.15
293.15
293.15
293.15
293.15
293.15
293.15
293.15
293.15
293.15
293.15
293.15
293.15
293.15
293.15
293.15
293.15
293.15
293.15
293.15
293.15
293.15
293.15
293.15
293.15
293.15
293.15
293.15
293.15
293.15
293.15
293.15
293.15
293.15
293.15
293.15
293.15
293.15
293.15
293.15
293.15
293.15
293.15
293.15
293.15
293.15
293.15
293.15
293.15
293.15
293.15
293.15
293.15
293.15
293.15
293.15
293.15
293.15
293.15
293.15
293.15
293.15
293.15
293.15
293.15
293.15
293.15
293.15
298.118
298.034
297.98
297.913
297.847
297.779
297.713
297.649
297.589
297.533
297.484
297.442
297.41
297.39
297.385
297.386
297.395
297.429
297.528
297.672
297.832
297.99
298.125
298.262
298.513
298.967
299.615
300.343
301.069
301.76
302.399
302.974
303.567
304.339
305.327
306.405
307.382
307.979
308.224
308.641
311.935
314.983
315.627
316.01
316.778
317.371
317.824
318.041
317.389
316.719
315.625
314.266
312.684
310.98
309.217
307.44
305.693
304.009
302.387
300.881
299.563
298.392
297.326
296.498
295.774
295.138
294.618
294.178
293.851
293.596
293.417
293.306
293.255
293.233
293.209
293.193
293.18
293.169
293.163
293.157
293.154
293.152
293.151
293.15
293.15
293.15
293.15
293.15
293.15
293.15
293.15
293.15
293.15
293.15
293.15
293.15
293.15
293.15
293.15
293.15
293.15
293.15
293.15
293.15
293.15
293.15
293.15
293.15
293.15
293.15
293.15
293.15
293.15
293.15
293.15
293.15
293.15
293.15
293.15
293.15
293.15
293.15
293.15
293.15
293.15
293.15
293.15
293.15
293.15
293.15
293.15
293.15
293.15
293.15
293.15
293.15
293.15
293.15
293.15
293.15
293.15
293.15
293.15
293.15
293.15
293.15
293.15
293.15
293.15
293.15
293.15
293.15
293.15
293.15
293.15
293.15
293.15
293.15
293.15
293.15
293.15
293.15
293.15
293.15
293.15
293.15
293.15
293.15
293.15
293.15
293.15
293.15
293.15
293.15
293.15
293.15
293.15
293.15
293.15
293.15
293.15
293.15
293.15
293.15
293.15
293.15
293.15
298.135
298.052
297.999
297.934
297.87
297.805
297.743
297.683
297.628
297.577
297.534
297.498
297.472
297.462
297.46
297.465
297.492
297.54
297.644
297.812
298.028
298.255
298.462
298.697
299.093
299.74
300.602
301.544
302.477
303.377
304.243
305.079
305.942
306.978
308.233
309.534
310.733
311.856
312.988
314.233
315.556
316.706
317.569
318.377
319.165
319.817
320.304
320.65
320.863
320.967
320.939
320.653
320.278
319.762
319.125
318.369
317.492
316.488
315.363
314.134
312.83
311.51
310.214
308.953
307.739
306.578
305.471
304.397
303.351
302.336
301.355
300.413
299.517
298.683
297.906
297.158
296.467
295.818
295.221
294.676
294.184
293.803
293.514
293.313
293.218
293.182
293.174
293.168
293.162
293.159
293.156
293.154
293.152
293.151
293.151
293.15
293.15
293.15
293.15
293.15
293.15
293.15
293.15
293.15
293.15
293.15
293.15
293.15
293.15
293.15
293.15
293.15
293.15
293.15
293.15
293.15
293.15
293.15
293.15
293.15
293.15
293.15
293.15
293.15
293.15
293.15
293.15
293.15
293.15
293.15
293.15
293.15
293.15
293.15
293.15
293.15
293.15
293.15
293.15
293.15
293.15
293.15
293.15
293.15
293.15
293.15
293.15
293.15
293.15
293.15
293.15
293.15
293.15
293.15
293.15
293.15
293.15
293.15
293.15
293.15
293.15
293.15
293.15
293.15
293.15
293.15
293.15
293.15
293.15
293.15
293.15
293.15
293.15
293.15
293.15
293.15
293.15
293.15
293.15
293.15
293.15
293.15
293.15
293.15
293.15
293.15
293.15
298.16
298.079
298.027
297.965
297.903
297.843
297.784
297.729
297.678
297.632
297.594
297.564
297.545
297.54
297.54
297.558
297.596
297.651
297.753
297.923
298.157
298.418
298.679
298.995
299.473
300.168
301.061
302.035
303.041
304.059
305.058
306.019
306.968
308.026
309.277
310.607
311.857
312.989
314.027
315.02
316.041
317.067
318.021
318.87
319.609
320.241
320.778
321.221
321.568
321.835
322.018
322.141
322.225
322.271
322.25
322.115
321.966
321.765
321.521
321.234
320.909
320.551
320.156
319.723
319.251
318.739
318.184
317.583
316.929
316.219
315.445
314.603
313.69
312.71
311.693
310.647
309.576
308.487
307.387
306.284
305.18
304.065
302.949
301.845
300.763
299.717
298.757
297.946
297.164
296.462
295.828
295.247
294.729
294.261
293.872
293.581
293.361
293.24
293.187
293.176
293.17
293.163
293.159
293.155
293.153
293.151
293.15
293.15
293.15
293.15
293.15
293.15
293.15
293.15
293.15
293.15
293.15
293.15
293.15
293.15
293.15
293.15
293.15
293.15
293.15
293.15
293.15
293.15
293.15
293.15
293.15
293.15
293.15
293.15
293.15
293.15
293.15
293.15
293.15
293.15
293.15
293.15
293.15
293.15
293.15
293.15
293.15
293.15
293.15
293.15
293.15
293.15
293.15
293.15
293.15
293.15
293.15
293.15
293.15
293.15
293.15
293.15
293.15
293.15
293.15
293.15
293.15
293.15
293.15
293.15
293.15
293.15
293.15
293.15
293.15
293.15
293.15
293.15
293.15
293.15
293.15
293.15
293.15
293.15
293.15
293.15
293.15
298.194
298.117
298.067
298.006
297.948
297.891
297.837
297.785
297.738
297.697
297.663
297.637
297.624
297.621
297.623
297.651
297.693
297.751
297.849
298.008
298.225
298.465
298.723
299.044
299.496
300.13
300.956
301.873
302.837
303.828
304.812
305.765
306.706
307.719
308.87
310.075
311.206
312.219
313.125
313.953
314.733
315.462
316.115
316.68
317.2
317.761
318.376
319.027
319.711
320.399
321.067
321.683
322.185
322.528
322.688
322.752
322.789
322.817
322.831
322.829
322.789
322.737
322.675
322.6
322.512
322.411
322.297
322.168
322.023
321.862
321.68
321.477
321.251
320.998
320.716
320.402
320.053
319.666
319.234
318.756
318.225
317.637
316.989
316.276
315.493
314.638
313.711
312.728
311.716
310.684
309.637
308.582
307.52
306.457
305.379
304.287
303.18
302.071
300.961
299.869
298.849
297.846
296.893
295.896
294.98
294.087
293.497
293.231
293.178
293.163
293.155
293.151
293.15
293.15
293.15
293.15
293.15
293.15
293.15
293.15
293.15
293.15
293.15
293.15
293.15
293.15
293.15
293.15
293.15
293.15
293.15
293.15
293.15
293.15
293.15
293.15
293.15
293.15
293.15
293.15
293.15
293.15
293.15
293.15
293.15
293.15
293.15
293.15
293.15
293.15
293.15
293.15
293.15
293.15
293.15
293.15
293.15
293.15
293.15
293.15
293.15
293.15
293.15
293.15
293.15
293.15
293.15
293.15
293.15
293.15
293.15
293.15
293.15
293.15
293.15
293.15
293.15
293.15
293.15
293.15
293.15
293.15
293.15
293.15
293.15
293.15
293.15
298.237
298.163
298.115
298.058
298.003
297.949
297.898
297.85
297.806
297.769
297.738
297.716
297.705
297.702
297.706
297.738
297.78
297.836
297.926
298.063
298.246
298.447
298.684
298.979
299.387
299.948
300.651
301.446
302.302
303.196
304.099
304.989
305.874
306.794
307.771
308.744
309.641
310.427
311.096
311.662
312.135
312.526
312.834
313.065
313.24
313.414
313.773
314.247
314.822
315.511
316.286
317.149
318.092
319.099
320.141
321.183
322.058
322.629
322.892
322.979
323.009
323.023
323.03
323.032
323.034
323.032
323.021
323.003
322.987
322.964
322.939
322.909
322.875
322.835
322.789
322.736
322.676
322.608
322.533
322.448
322.355
322.251
322.138
322.013
321.876
321.723
321.554
321.363
321.151
320.91
320.643
320.338
320.001
319.617
319.192
318.701
318.161
317.532
316.842
316.037
315.106
313.925
312.529
310.879
309.019
306.882
304.507
301.819
298.94
296.82
294.958
293.739
293.231
293.18
293.16
293.152
293.15
293.15
293.15
293.15
293.15
293.15
293.15
293.15
293.15
293.15
293.15
293.15
293.15
293.15
293.15
293.15
293.15
293.15
293.15
293.15
293.15
293.15
293.15
293.15
293.15
293.15
293.15
293.15
293.15
293.15
293.15
293.15
293.15
293.15
293.15
293.15
293.15
293.15
293.15
293.15
293.15
293.15
293.15
293.15
293.15
293.15
293.15
293.15
293.15
293.15
293.15
293.15
293.15
293.15
293.15
293.15
293.15
293.15
293.15
293.15
293.15
293.15
293.15
293.15
293.15
293.15
293.15
293.15
293.15
293.15
293.15
298.286
298.216
298.17
298.116
298.064
298.013
297.965
297.92
297.879
297.844
297.816
297.795
297.784
297.781
297.785
297.816
297.854
297.906
297.983
298.096
298.243
298.41
298.613
298.865
299.203
299.654
300.215
300.86
301.569
302.32
303.09
303.858
304.622
305.395
306.18
306.939
307.63
308.228
308.724
309.121
309.425
309.644
309.783
309.856
309.886
309.919
309.926
310.124
310.437
310.81
311.307
311.974
312.779
313.711
314.751
315.888
317.121
318.408
319.704
320.963
322.01
322.626
322.902
323.009
323.049
323.066
323.071
323.074
323.08
323.079
323.081
323.08
323.08
323.078
323.083
323.081
323.082
323.078
323.072
323.065
323.056
323.048
323.04
323.034
323.021
323.013
322.997
322.984
322.96
322.936
322.909
322.881
322.855
322.832
322.785
322.752
322.688
322.64
322.547
322.479
322.31
322.165
321.858
321.576
321.006
320.406
319.357
318.005
315.959
313.216
309.751
305.853
301.582
297.267
295.218
293.614
293.215
293.167
293.153
293.151
293.15
293.15
293.15
293.15
293.15
293.15
293.15
293.15
293.15
293.15
293.15
293.15
293.15
293.15
293.15
293.15
293.15
293.15
293.15
293.15
293.15
293.15
293.15
293.15
293.15
293.15
293.15
293.15
293.15
293.15
293.15
293.15
293.15
293.15
293.15
293.15
293.15
293.15
293.15
293.15
293.15
293.15
293.15
293.15
293.15
293.15
293.15
293.15
293.15
293.15
293.15
293.15
293.15
293.15
293.15
293.15
293.15
293.15
293.15
293.15
293.15
293.15
293.15
293.15
293.15
293.15
293.15
298.338
298.272
298.229
298.177
298.128
298.08
298.034
297.991
297.953
297.919
297.892
297.871
297.859
297.855
297.857
297.883
297.917
297.963
298.027
298.117
298.233
298.369
298.534
298.738
299.003
299.349
299.777
300.277
300.835
301.434
302.055
302.679
303.296
303.908
304.508
305.078
305.586
306.021
306.38
306.661
306.866
307.001
307.073
307.099
307.105
307.114
307.106
307.15
307.258
307.409
307.63
307.937
308.348
308.875
309.527
310.347
311.35
312.517
313.807
315.191
316.62
318.028
319.38
320.633
321.581
322.151
322.504
322.721
322.841
322.906
322.956
322.997
323.026
323.052
323.071
323.087
323.099
323.109
323.115
323.12
323.123
323.125
323.127
323.128
323.129
323.13
323.131
323.132
323.132
323.131
323.129
323.127
323.125
323.123
323.121
323.117
323.114
323.11
323.106
323.099
323.094
323.082
323.071
323.049
323.029
322.98
322.927
322.794
322.621
322.207
321.572
320.327
318.245
314.848
310.038
304.591
298.732
295.257
293.627
293.216
293.164
293.152
293.15
293.15
293.15
293.15
293.15
293.15
293.15
293.15
293.15
293.15
293.15
293.15
293.15
293.15
293.15
293.15
293.15
293.15
293.15
293.15
293.15
293.15
293.15
293.15
293.15
293.15
293.15
293.15
293.15
293.15
293.15
293.15
293.15
293.15
293.15
293.15
293.15
293.15
293.15
293.15
293.15
293.15
293.15
293.15
293.15
293.15
293.15
293.15
293.15
293.15
293.15
293.15
293.15
293.15
293.15
293.15
293.15
293.15
293.15
293.15
293.15
293.15
293.15
293.15
293.15
298.39
298.327
298.286
298.237
298.19
298.144
298.101
298.06
298.022
297.99
297.963
297.942
297.928
297.922
297.921
297.941
297.97
298.009
298.061
298.132
298.223
298.333
298.464
298.625
298.828
299.086
299.405
299.78
300.204
300.665
301.147
301.633
302.109
302.567
303.001
303.408
303.776
304.096
304.363
304.574
304.73
304.831
304.881
304.898
304.896
304.886
304.874
304.874
304.892
304.911
304.956
305.035
305.158
305.338
305.593
305.95
306.439
307.095
307.947
309.006
310.245
311.591
312.949
314.25
315.47
316.608
317.615
318.463
319.147
319.684
320.09
320.439
320.771
321.088
321.399
321.699
321.993
322.278
322.522
322.723
322.866
322.948
323.006
323.051
323.088
323.113
323.129
323.138
323.142
323.144
323.146
323.146
323.147
323.147
323.147
323.147
323.147
323.147
323.147
323.146
323.146
323.145
323.145
323.144
323.142
323.14
323.137
323.133
323.124
323.113
323.09
323.048
322.959
322.666
321.894
320.089
316.735
311.295
304.557
297.652
294.593
293.307
293.179
293.153
293.15
293.15
293.15
293.15
293.15
293.15
293.15
293.15
293.15
293.15
293.15
293.15
293.15
293.15
293.15
293.15
293.15
293.15
293.15
293.15
293.15
293.15
293.15
293.15
293.15
293.15
293.15
293.15
293.15
293.15
293.15
293.15
293.15
293.15
293.15
293.15
293.15
293.15
293.15
293.15
293.15
293.15
293.15
293.15
293.15
293.15
293.15
293.15
293.15
293.15
293.15
293.15
293.15
293.15
293.15
293.15
293.15
293.15
293.15
293.15
293.15
293.15
293.15
298.438
298.378
298.34
298.292
298.248
298.204
298.162
298.122
298.086
298.054
298.026
298.005
297.99
297.982
297.978
297.991
298.015
298.047
298.09
298.147
298.219
298.307
298.411
298.537
298.692
298.885
299.12
299.398
299.714
300.061
300.427
300.797
301.154
301.489
301.807
302.105
302.378
302.62
302.826
302.994
303.123
303.213
303.266
303.287
303.29
303.29
303.285
303.266
303.241
303.219
303.215
303.227
303.25
303.294
303.37
303.488
303.664
303.911
304.246
304.681
305.226
305.889
306.683
307.617
308.689
309.853
311.028
312.127
313.035
313.689
314.109
314.379
314.67
314.853
315.199
315.375
315.804
316.059
316.699
317.118
317.841
318.531
319.339
320.119
320.84
321.537
322.178
322.686
322.928
323.017
323.089
323.124
323.14
323.146
323.148
323.149
323.149
323.15
323.15
323.15
323.15
323.15
323.15
323.15
323.149
323.149
323.149
323.149
323.149
323.148
323.147
323.146
323.143
323.135
323.12
323.084
322.973
322.454
320.196
315.915
308.79
300.697
295.311
293.394
293.189
293.154
293.151
293.15
293.15
293.15
293.15
293.15
293.15
293.15
293.15
293.15
293.15
293.15
293.15
293.15
293.15
293.15
293.15
293.15
293.15
293.15
293.15
293.15
293.15
293.15
293.15
293.15
293.15
293.15
293.15
293.15
293.15
293.15
293.15
293.15
293.15
293.15
293.15
293.15
293.15
293.15
293.15
293.15
293.15
293.15
293.15
293.15
293.15
293.15
293.15
293.15
293.15
293.15
293.15
293.15
293.15
293.15
293.15
293.15
293.15
293.15
293.15
298.481
298.423
298.387
298.341
298.298
298.256
298.216
298.177
298.141
298.109
298.082
298.059
298.043
298.033
298.028
298.033
298.053
298.079
298.115
298.161
298.219
298.29
298.374
298.475
298.595
298.741
298.918
299.125
299.362
299.623
299.9
300.181
300.452
300.705
300.945
301.172
301.381
301.57
301.736
301.875
301.987
302.072
302.131
302.165
302.181
302.186
302.185
302.174
302.155
302.134
302.117
302.104
302.096
302.098
302.113
302.148
302.207
302.3
302.431
302.611
302.846
303.145
303.518
303.978
304.532
305.178
305.904
306.682
307.467
308.219
308.908
309.517
310.035
310.436
310.673
310.725
310.595
310.397
310.214
310.141
310.214
310.358
310.866
311.378
312.331
313.157
314.394
315.721
317.367
319.167
320.658
321.926
322.72
323.014
323.103
323.137
323.146
323.149
323.15
323.15
323.15
323.15
323.15
323.15
323.15
323.15
323.15
323.15
323.15
323.15
323.15
323.15
323.15
323.15
323.149
323.148
323.146
323.135
323.096
322.952
321.993
318.062
311.082
301.952
295.411
293.39
293.183
293.155
293.151
293.15
293.15
293.15
293.15
293.15
293.15
293.15
293.15
293.15
293.15
293.15
293.15
293.15
293.15
293.15
293.15
293.15
293.15
293.15
293.15
293.15
293.15
293.15
293.15
293.15
293.15
293.15
293.15
293.15
293.15
293.15
293.15
293.15
293.15
293.15
293.15
293.15
293.15
293.15
293.15
293.15
293.15
293.15
293.15
293.15
293.15
293.15
293.15
293.15
293.15
293.15
293.15
293.15
293.15
293.15
293.15
293.15
293.15
298.516
298.461
298.426
298.382
298.341
298.3
298.26
298.223
298.187
298.156
298.128
298.105
298.087
298.076
298.069
298.068
298.083
298.106
298.136
298.175
298.223
298.281
298.351
298.433
298.53
298.645
298.781
298.94
299.12
299.32
299.533
299.751
299.963
300.164
300.353
300.533
300.7
300.854
300.992
301.111
301.212
301.292
301.353
301.397
301.424
301.44
301.449
301.448
301.44
301.428
301.414
301.401
301.39
301.382
301.377
301.381
301.402
301.44
301.495
301.575
301.683
301.826
302.009
302.238
302.517
302.849
303.235
303.673
304.153
304.668
305.205
305.748
306.274
306.754
307.156
307.452
307.641
307.753
307.839
307.916
307.959
307.922
307.798
307.615
307.459
307.382
307.376
307.644
308.276
309.276
310.979
313.203
315.898
319.058
321.524
322.729
323.061
323.132
323.146
323.148
323.149
323.15
323.15
323.15
323.15
323.15
323.15
323.15
323.15
323.15
323.15
323.15
323.15
323.15
323.15
323.15
323.15
323.15
323.149
323.146
323.129
323.038
322.484
318.398
309.96
299.106
294.452
293.342
293.181
293.155
293.151
293.15
293.15
293.15
293.15
293.15
293.15
293.15
293.15
293.15
293.15
293.15
293.15
293.15
293.15
293.15
293.15
293.15
293.15
293.15
293.15
293.15
293.15
293.15
293.15
293.15
293.15
293.15
293.15
293.15
293.15
293.15
293.15
293.15
293.15
293.15
293.15
293.15
293.15
293.15
293.15
293.15
293.15
293.15
293.15
293.15
293.15
293.15
293.15
293.15
293.15
293.15
293.15
293.15
293.15
293.15
293.15
298.544
298.49
298.456
298.413
298.374
298.334
298.295
298.259
298.224
298.192
298.164
298.141
298.122
298.109
298.102
298.098
298.107
298.128
298.154
298.188
298.229
298.279
298.338
298.408
298.489
298.583
298.693
298.819
298.962
299.12
299.289
299.462
299.634
299.8
299.958
300.107
300.247
300.378
300.497
300.603
300.694
300.771
300.833
300.881
300.916
300.942
300.959
300.968
300.972
300.968
300.961
300.953
300.944
300.936
300.929
300.926
300.933
300.952
300.978
301.017
301.073
301.149
301.248
301.373
301.528
301.714
301.934
302.186
302.471
302.785
303.127
303.491
303.868
304.246
304.61
304.945
305.243
305.499
305.722
305.915
306.073
306.18
306.234
306.24
306.223
306.174
306.091
305.984
305.882
305.831
305.86
306.087
306.87
308.82
312.216
316.492
321.036
322.844
323.102
323.141
323.148
323.15
323.15
323.15
323.15
323.15
323.15
323.15
323.15
323.15
323.15
323.15
323.15
323.15
323.15
323.15
323.15
323.15
323.15
323.15
323.15
323.148
323.135
323.011
322.143
316.036
304.953
296.386
293.818
293.273
293.172
293.154
293.151
293.15
293.15
293.15
293.15
293.15
293.15
293.15
293.15
293.15
293.15
293.15
293.15
293.15
293.15
293.15
293.15
293.15
293.15
293.15
293.15
293.15
293.15
293.15
293.15
293.15
293.15
293.15
293.15
293.15
293.15
293.15
293.15
293.15
293.15
293.15
293.15
293.15
293.15
293.15
293.15
293.15
293.15
293.15
293.15
293.15
293.15
293.15
293.15
293.15
293.15
293.15
293.15
293.15
293.15
298.564
298.512
298.479
298.437
298.398
298.359
298.321
298.285
298.251
298.22
298.192
298.168
298.149
298.135
298.127
298.122
298.126
298.145
298.169
298.199
298.236
298.28
298.333
298.394
298.465
298.546
298.638
298.744
298.862
298.992
299.132
299.276
299.421
299.562
299.699
299.831
299.954
300.07
300.176
300.272
300.357
300.431
300.492
300.542
300.582
300.613
300.636
300.652
300.663
300.668
300.671
300.665
300.66
300.654
300.648
300.644
300.651
300.663
300.678
300.7
300.733
300.778
300.838
300.916
301.012
301.129
301.268
301.43
301.614
301.82
302.047
302.291
302.551
302.82
303.093
303.364
303.626
303.875
304.11
304.327
304.522
304.691
304.83
304.94
305.023
305.081
305.115
305.117
305.102
305.064
305.011
304.956
304.957
305.088
305.564
307.542
312.529
319.084
322.599
323.102
323.147
323.15
323.15
323.15
323.15
323.15
323.15
323.15
323.15
323.15
323.15
323.15
323.15
323.15
323.15
323.15
323.15
323.15
323.15
323.15
323.15
323.15
323.15
323.146
323.099
322.52
317.587
305.443
296.884
294.101
293.372
293.204
293.166
293.156
293.153
293.151
293.15
293.15
293.15
293.15
293.15
293.15
293.15
293.15
293.15
293.15
293.15
293.15
293.15
293.15
293.15
293.15
293.15
293.15
293.15
293.15
293.15
293.15
293.15
293.15
293.15
293.15
293.15
293.15
293.15
293.15
293.15
293.15
293.15
293.15
293.15