/*--------------------------------*- C++ -*----------------------------------*\
| =========                 |                                                 |
| \\      /  F ield         | OpenFOAM: The Open Source CFD Toolbox           |
|  \\    /   O peration     | Version:  2406                                  |
|   \\  /    A nd           | Website:  www.openfoam.com                      |
|    \\/     M anipulation  |                                                 |
\*---------------------------------------------------------------------------*/
FoamFile
{
    version     2.0;
    format      ascii;
    arch        "LSB;label=32;scalar=64";
    class       volVectorField;
    location    "700";
    object      U;
}
// * * * * * * * * * * * * * * * * * * * * * * * * * * * * * * * * * * * * * //

dimensions      [0 1 -1 0 0 0 0];

internalField   nonuniform List<vector> 
5619
(
(1.90508 -0.000208994 0)
(1.93016 -0.000347917 0)
(1.95292 -0.000367652 0)
(1.97671 -0.000388265 0)
(2.00033 -0.000410449 0)
(2.02409 -0.000437611 0)
(2.04794 -0.000471221 0)
(2.07194 -0.000512468 0)
(2.09607 -0.000560806 0)
(2.12024 -0.000610451 0)
(2.14417 -0.000642621 0)
(2.16719 -0.000613173 0)
(2.18803 -0.000447189 0)
(2.20492 -8.24721e-05 0)
(2.21691 0.000398864 0)
(2.22662 0.000689909 0)
(2.24073 0.000517494 0)
(2.26527 -2.88491e-05 0)
(2.30172 -0.00065029 0)
(2.34773 -0.00115 0)
(2.39975 -0.00148351 0)
(2.45472 -0.00168207 0)
(2.51055 -0.00179363 0)
(2.56601 -0.00185814 0)
(2.62043 -0.00190258 0)
(2.67356 -0.00194317 0)
(2.72531 -0.00198839 0)
(2.77567 -0.00204119 0)
(2.8246 -0.0021003 0)
(2.872 -0.00216098 0)
(2.91761 -0.00221558 0)
(2.96102 -0.00225377 0)
(3.0017 -0.00226283 0)
(3.03892 -0.00222799 0)
(3.07184 -0.00213308 0)
(3.09948 -0.00196127 0)
(3.12079 -0.00169584 0)
(3.13467 -0.00132058 0)
(3.14003 -0.000818708 0)
(3.13595 -0.000135318 0)
(3.12063 0.00081231 0)
(3.09215 0.00203499 0)
(3.04934 0.00348429 0)
(2.99164 0.00509796 0)
(2.9193 0.00676831 0)
(2.83374 0.00832102 0)
(2.7379 0.00950792 0)
(2.6366 0.0100356 0)
(2.53647 0.00965575 0)
(2.4453 0.008314 0)
(2.37026 0.00626597 0)
(2.31576 0.00400747 0)
(2.28193 0.00199851 0)
(2.26521 0.000436385 0)
(2.26041 -0.000699918 0)
(2.26273 -0.00144286 0)
(2.26825 -0.00179818 0)
(2.2743 -0.00187228 0)
(2.27961 -0.00180727 0)
(2.28359 -0.00167189 0)
(2.28593 -0.00149637 0)
(2.28651 -0.00129199 0)
(2.28533 -0.00103753 0)
(2.28226 -0.000709115 0)
(2.27727 -0.00031722 0)
(2.27042 0.000114679 0)
(2.2618 0.000569266 0)
(2.25157 0.00103401 0)
(2.23989 0.00149965 0)
(2.22693 0.00195948 0)
(2.21285 0.00240861 0)
(2.1978 0.00284346 0)
(2.18194 0.00326142 0)
(2.16541 0.0036606 0)
(2.14834 0.00403961 0)
(2.13084 0.00439743 0)
(2.11301 0.00473327 0)
(2.09495 0.00504649 0)
(2.07674 0.0053366 0)
(2.05846 0.0056032 0)
(2.04017 0.00584603 0)
(2.02193 0.00606498 0)
(2.00379 0.00626013 0)
(1.98578 0.00643179 0)
(1.96795 0.00658049 0)
(1.95031 0.00670702 0)
(1.9329 0.00681238 0)
(1.91572 0.00689785 0)
(1.89879 0.00696488 0)
(1.88211 0.00701511 0)
(1.86568 0.00705032 0)
(1.84949 0.00707241 0)
(1.83353 0.00708333 0)
(1.8178 0.00708509 0)
(1.80226 0.00707974 0)
(1.78691 0.00706947 0)
(1.77171 0.00705654 0)
(1.75667 0.00704328 0)
(1.74179 0.00703459 0)
(1.72672 0.00703925 0)
(1.7112 0.00703823 0)
(1.69396 0.00702094 0)
(1.67517 0.00700041 0)
(1.65472 0.00697715 0)
(1.63265 0.00695182 0)
(1.60898 0.00692359 0)
(1.58378 0.00689111 0)
(1.55718 0.00685266 0)
(1.52935 0.00680644 0)
(1.50052 0.00675075 0)
(1.47095 0.00668416 0)
(1.44095 0.00660571 0)
(1.41085 0.00651502 0)
(1.38098 0.00641236 0)
(1.35167 0.00629861 0)
(1.32324 0.00617521 0)
(1.29595 0.006044 0)
(1.27003 0.00590708 0)
(1.24565 0.00576667 0)
(1.22294 0.00562498 0)
(1.20195 0.00548413 0)
(1.18272 0.00534608 0)
(1.16521 0.00521264 0)
(1.14938 0.00508558 0)
(1.13513 0.00496672 0)
(1.12239 0.00485783 0)
(1.11108 0.00476248 0)
(1.10086 0.00468755 0)
(1.09149 0.00462154 0)
(1.08216 0.00454895 0)
(1.07293 0.00447556 0)
(1.06375 0.00440137 0)
(1.05456 0.00432662 0)
(1.04534 0.00425113 0)
(1.03604 0.00417466 0)
(1.02663 0.00409687 0)
(1.01707 0.0040174 0)
(1.00734 0.00393587 0)
(0.997402 0.00385189 0)
(0.98724 0.00376508 0)
(0.97683 0.00367507 0)
(0.966155 0.00358149 0)
(0.955201 0.003484 0)
(0.94396 0.00338229 0)
(0.932428 0.00327607 0)
(0.920608 0.0031651 0)
(0.908509 0.0030492 0)
(0.896146 0.00292823 0)
(0.883544 0.00280215 0)
(0.870733 0.00267098 0)
(0.857756 0.00253486 0)
(0.844661 0.00239403 0)
(0.83151 0.00224889 0)
(0.818371 0.00209994 0)
(0.805323 0.00194789 0)
(0.792453 0.00179357 0)
(0.779855 0.001638 0)
(0.767628 0.00148236 0)
(0.755877 0.00132796 0)
(0.744702 0.00117622 0)
(0.734207 0.00102864 0)
(0.724484 0.000886748 0)
(0.715618 0.00075202 0)
(0.707682 0.000625833 0)
(0.700729 0.000509381 0)
(0.694797 0.000403603 0)
(0.689904 0.000309128 0)
(0.686049 0.00022624 0)
(0.683213 0.000154842 0)
(0.681365 9.43747e-05 0)
(0.680466 4.35961e-05 0)
(0.680483 3.18436e-06 0)
(0.68131 -2.53896e-05 0)
(0.68285 -4.47226e-05 0)
(0.685086 -5.79135e-05 0)
(0.688033 -6.58598e-05 0)
(0.691767 -6.92037e-05 0)
(0.696444 -6.7801e-05 0)
(0.702359 -5.9195e-05 0)
(0.710013 -3.39414e-05 0)
(0.720205 3.67998e-05 0)
(0.734134 0.00023317 0)
(0.753444 0.00076892 0)
(0.780209 0.00221551 0)
(0.816923 0.00618178 0)
(0.86643 0.0176118 0)
(0.926668 0.0544988 0)
(2.1202 -0.000536243 0)
(2.13979 -0.000945638 0)
(2.15731 -0.00099343 0)
(2.17623 -0.00105707 0)
(2.19544 -0.0011153 0)
(2.21535 -0.00118067 0)
(2.236 -0.00125183 0)
(2.2576 -0.00132962 0)
(2.28036 -0.00141267 0)
(2.30456 -0.00149757 0)
(2.33056 -0.00157702 0)
(2.35889 -0.00163997 0)
(2.39039 -0.00167886 0)
(2.42641 -0.00171152 0)
(2.4688 -0.00180295 0)
(2.5187 -0.00204579 0)
(2.57504 -0.00250607 0)
(2.63554 -0.00316878 0)
(2.69883 -0.00392196 0)
(2.76426 -0.00463266 0)
(2.83107 -0.00522167 0)
(2.89827 -0.00567134 0)
(2.96485 -0.00600024 0)
(3.02997 -0.00623936 0)
(3.09305 -0.00641877 0)
(3.15373 -0.00656119 0)
(3.21182 -0.00667912 0)
(3.26718 -0.00677435 0)
(3.3197 -0.00683866 0)
(3.36921 -0.00685497 0)
(3.41547 -0.00679879 0)
(3.45812 -0.00663938 0)
(3.4967 -0.00634085 0)
(3.53064 -0.00586331 0)
(3.55924 -0.00516446 0)
(3.58173 -0.00420172 0)
(3.59727 -0.00293461 0)
(3.60494 -0.00132732 0)
(3.60381 0.000653113 0)
(3.59291 0.00310128 0)
(3.57103 0.00612332 0)
(3.53755 0.00970717 0)
(3.49187 0.0137667 0)
(3.43367 0.0181692 0)
(3.36312 0.0226853 0)
(3.28105 0.0269518 0)
(3.18914 0.0304466 0)
(3.09013 0.0325094 0)
(2.988 0.0324563 0)
(2.888 0.0298259 0)
(2.7963 0.0247096 0)
(2.719 0.0179625 0)
(2.66035 0.0110097 0)
(2.62103 0.00521648 0)
(2.59796 0.00126824 0)
(2.58598 -0.000903053 0)
(2.58035 -0.00174162 0)
(2.5777 -0.0017371 0)
(2.5756 -0.00124483 0)
(2.5727 -0.000450699 0)
(2.56829 0.000553516 0)
(2.562 0.00171175 0)
(2.55368 0.00298604 0)
(2.54344 0.00435058 0)
(2.53146 0.00577105 0)
(2.51791 0.00721254 0)
(2.50295 0.00864965 0)
(2.48678 0.0100632 0)
(2.46956 0.011439 0)
(2.45144 0.0127666 0)
(2.43257 0.0140389 0)
(2.41311 0.0152509 0)
(2.39317 0.0163993 0)
(2.37286 0.0174818 0)
(2.3523 0.0184972 0)
(2.33158 0.0194444 0)
(2.31078 0.020323 0)
(2.28996 0.0211327 0)
(2.26921 0.0218734 0)
(2.24857 0.0225454 0)
(2.22808 0.0231491 0)
(2.2078 0.0236852 0)
(2.18776 0.0241549 0)
(2.16798 0.0245598 0)
(2.14848 0.0249019 0)
(2.12929 0.0251838 0)
(2.11041 0.0254087 0)
(2.09185 0.0255801 0)
(2.0736 0.0257021 0)
(2.05567 0.0257791 0)
(2.03805 0.0258159 0)
(2.02071 0.0258173 0)
(2.00366 0.0257882 0)
(1.98686 0.0257335 0)
(1.9703 0.025658 0)
(1.95395 0.0255665 0)
(1.93778 0.0254636 0)
(1.92179 0.0253537 0)
(1.90598 0.0252438 0)
(1.89003 0.0251453 0)
(1.87364 0.0250428 0)
(1.85549 0.0249205 0)
(1.83571 0.0247873 0)
(1.81424 0.024643 0)
(1.79107 0.0244868 0)
(1.76626 0.0243155 0)
(1.73989 0.0241251 0)
(1.71209 0.023911 0)
(1.68306 0.0236686 0)
(1.65304 0.023394 0)
(1.6223 0.0230846 0)
(1.59116 0.0227392 0)
(1.55998 0.0223585 0)
(1.52908 0.0219452 0)
(1.49882 0.0215035 0)
(1.4695 0.0210391 0)
(1.4414 0.0205587 0)
(1.41474 0.0200693 0)
(1.38969 0.0195778 0)
(1.36637 0.019091 0)
(1.34483 0.0186147 0)
(1.32509 0.0181538 0)
(1.30713 0.0177127 0)
(1.29088 0.0172946 0)
(1.27626 0.0169025 0)
(1.26318 0.0165388 0)
(1.25156 0.0162073 0)
(1.24108 0.0159149 0)
(1.23148 0.0156515 0)
(1.22195 0.0153832 0)
(1.21253 0.0151131 0)
(1.20316 0.0148409 0)
(1.1938 0.0145662 0)
(1.1844 0.0142881 0)
(1.17494 0.0140057 0)
(1.16536 0.0137181 0)
(1.15565 0.0134241 0)
(1.14577 0.0131227 0)
(1.13569 0.0128127 0)
(1.12539 0.0124932 0)
(1.11485 0.012163 0)
(1.10405 0.0118212 0)
(1.09298 0.0114668 0)
(1.08163 0.0110992 0)
(1.07 0.0107174 0)
(1.05809 0.0103211 0)
(1.04591 0.00990975 0)
(1.03347 0.00948327 0)
(1.02081 0.00904173 0)
(1.00796 0.00858553 0)
(0.994954 0.00811541 0)
(0.981846 0.00763252 0)
(0.968699 0.00713841 0)
(0.955584 0.0066351 0)
(0.942579 0.00612512 0)
(0.929775 0.00561146 0)
(0.917266 0.00509761 0)
(0.905156 0.00458745 0)
(0.893548 0.00408526 0)
(0.882549 0.00359553 0)
(0.872262 0.00312288 0)
(0.862785 0.00267186 0)
(0.854207 0.00224675 0)
(0.846603 0.00185137 0)
(0.840035 0.00148881 0)
(0.834545 0.00116125 0)
(0.83016 0.000869812 0)
(0.826887 0.000614381 0)
(0.82472 0.000393582 0)
(0.82364 0.000204695 0)
(0.823621 4.43914e-05 0)
(0.82463 -8.46321e-05 0)
(0.82654 -0.000185462 0)
(0.829379 -0.000270531 0)
(0.833162 -0.000348164 0)
(0.837943 -0.000425874 0)
(0.843817 -0.000512581 0)
(0.850928 -0.000619744 0)
(0.859466 -0.000763436 0)
(0.869654 -0.000968412 0)
(0.881714 -0.00127751 0)
(0.895819 -0.00177441 0)
(0.912013 -0.00263963 0)
(0.930146 -0.00428662 0)
(0.949847 -0.00766951 0)
(0.970489 -0.014968 0)
(0.988465 -0.0293062 0)
(2.19705 -0.000861039 0)
(2.21337 -0.00153294 0)
(2.2278 -0.00161352 0)
(2.24383 -0.00174111 0)
(2.26039 -0.00185992 0)
(2.27785 -0.00199971 0)
(2.29626 -0.00215902 0)
(2.31581 -0.00234417 0)
(2.33672 -0.00255941 0)
(2.35925 -0.00280987 0)
(2.3838 -0.0031005 0)
(2.41096 -0.0034394 0)
(2.44169 -0.00385179 0)
(2.47768 -0.00441174 0)
(2.52173 -0.00525374 0)
(2.57742 -0.00646618 0)
(2.64685 -0.00792907 0)
(2.72796 -0.00937879 0)
(2.816 -0.0106171 0)
(2.90642 -0.0115759 0)
(2.99596 -0.0122676 0)
(3.08251 -0.0127363 0)
(3.16484 -0.0130347 0)
(3.2423 -0.0132124 0)
(3.31465 -0.0133098 0)
(3.38188 -0.0133543 0)
(3.44414 -0.0133592 0)
(3.50163 -0.0133233 0)
(3.55451 -0.0132317 0)
(3.6029 -0.0130558 0)
(3.64682 -0.0127553 0)
(3.68619 -0.0122787 0)
(3.72081 -0.011565 0)
(3.75036 -0.0105452 0)
(3.77442 -0.00914458 0)
(3.79246 -0.00728506 0)
(3.80388 -0.00488874 0)
(3.808 -0.00187993 0)
(3.80413 0.00182592 0)
(3.79146 0.00636493 0)
(3.76936 0.0118349 0)
(3.73723 0.0182305 0)
(3.69453 0.0254871 0)
(3.6409 0.033439 0)
(3.57632 0.0417753 0)
(3.5012 0.0499904 0)
(3.41649 0.0573389 0)
(3.32371 0.0628312 0)
(3.22509 0.0653288 0)
(3.1236 0.0638084 0)
(3.02306 0.0577959 0)
(2.92809 0.0478123 0)
(2.8437 0.0355023 0)
(2.77418 0.0231808 0)
(2.7216 0.0129382 0)
(2.68502 0.00587249 0)
(2.66105 0.00196294 0)
(2.64543 0.000535809 0)
(2.63445 0.000789597 0)
(2.62539 0.00207494 0)
(2.61657 0.00397472 0)
(2.60707 0.0062461 0)
(2.59647 0.00873621 0)
(2.5846 0.011342 0)
(2.57144 0.0139974 0)
(2.55707 0.0166583 0)
(2.54157 0.0192915 0)
(2.52509 0.0218707 0)
(2.50774 0.0243762 0)
(2.48966 0.0267927 0)
(2.47098 0.0291092 0)
(2.45179 0.0313175 0)
(2.43222 0.0334119 0)
(2.41236 0.0353884 0)
(2.3923 0.037244 0)
(2.37211 0.0389768 0)
(2.35186 0.0405851 0)
(2.33162 0.0420678 0)
(2.31143 0.043424 0)
(2.29135 0.0446534 0)
(2.27142 0.0457559 0)
(2.25166 0.0467324 0)
(2.23211 0.0475844 0)
(2.2128 0.0483145 0)
(2.19374 0.0489262 0)
(2.17495 0.0494244 0)
(2.15644 0.0498149 0)
(2.13822 0.0501048 0)
(2.12029 0.0503019 0)
(2.10265 0.050415 0)
(2.08529 0.0504532 0)
(2.06822 0.0504261 0)
(2.0514 0.0503431 0)
(2.03484 0.0502136 0)
(2.01851 0.0500465 0)
(2.00238 0.0498503 0)
(1.98644 0.0496327 0)
(1.97067 0.0494005 0)
(1.9551 0.0491592 0)
(1.93939 0.0489154 0)
(1.92325 0.0486706 0)
(1.90538 0.0484125 0)
(1.88593 0.0481384 0)
(1.86482 0.0478453 0)
(1.84206 0.0475273 0)
(1.8177 0.0471771 0)
(1.79182 0.0467863 0)
(1.76457 0.0463461 0)
(1.73614 0.0458482 0)
(1.70676 0.0452858 0)
(1.67671 0.0446544 0)
(1.64632 0.0439528 0)
(1.61591 0.0431833 0)
(1.58583 0.042352 0)
(1.5564 0.0414679 0)
(1.52794 0.0405429 0)
(1.50069 0.0395904 0)
(1.47487 0.0386245 0)
(1.45064 0.0376591 0)
(1.42811 0.0367074 0)
(1.40733 0.0357807 0)
(1.38831 0.034889 0)
(1.37101 0.0340398 0)
(1.35537 0.0332391 0)
(1.34131 0.032491 0)
(1.32875 0.0317977 0)
(1.31759 0.0311599 0)
(1.30753 0.0305775 0)
(1.29833 0.0300482 0)
(1.28919 0.029521 0)
(1.28017 0.0289934 0)
(1.2712 0.0284638 0)
(1.26225 0.0279302 0)
(1.25327 0.0273906 0)
(1.24422 0.026843 0)
(1.23508 0.0262855 0)
(1.22582 0.0257158 0)
(1.2164 0.0251321 0)
(1.2068 0.0245321 0)
(1.19699 0.0239139 0)
(1.18697 0.0232755 0)
(1.17671 0.022615 0)
(1.16619 0.0219307 0)
(1.15543 0.0212209 0)
(1.1444 0.0204842 0)
(1.13312 0.0197197 0)
(1.1216 0.0189265 0)
(1.10985 0.0181042 0)
(1.09791 0.0172531 0)
(1.08579 0.0163738 0)
(1.07354 0.0154678 0)
(1.06122 0.0145373 0)
(1.04888 0.0135853 0)
(1.0366 0.0126156 0)
(1.02443 0.011633 0)
(1.01249 0.0106434 0)
(1.00084 0.00965343 0)
(0.989602 0.00867047 0)
(0.978865 0.00770269 0)
(0.968732 0.00675869 0)
(0.959303 0.00584726 0)
(0.950672 0.00497706 0)
(0.942923 0.00415621 0)
(0.936132 0.00339194 0)
(0.930355 0.0026901 0)
(0.925636 0.00205486 0)
(0.921999 0.00148841 0)
(0.919449 0.000990813 0)
(0.917976 0.000560018 0)
(0.917554 0.000192376 0)
(0.918145 -0.000113996 0)
(0.919638 -0.000359161 0)
(0.922013 -0.000555177 0)
(0.925222 -0.00071806 0)
(0.929222 -0.000856072 0)
(0.933966 -0.000976709 0)
(0.9394 -0.00108602 0)
(0.945455 -0.00118822 0)
(0.95203 -0.00128436 0)
(0.95898 -0.00136935 0)
(0.966112 -0.0014253 0)
(0.973194 -0.00140809 0)
(0.979978 -0.00122366 0)
(0.986223 -0.000695698 0)
(0.991737 0.000445726 0)
(0.996402 0.00209067 0)
(0.998422 0.000152521 0)
(2.23164 -0.00124179 0)
(2.24608 -0.00221909 0)
(2.25873 -0.00234179 0)
(2.27305 -0.00255711 0)
(2.28795 -0.00275698 0)
(2.30382 -0.00299354 0)
(2.32068 -0.00326351 0)
(2.3387 -0.0035787 0)
(2.35806 -0.00394817 0)
(2.37901 -0.00438522 0)
(2.4019 -0.00490804 0)
(2.42723 -0.00554934 0)
(2.45582 -0.00638252 0)
(2.48903 -0.00757092 0)
(2.52911 -0.00937783 0)
(2.57923 -0.0119748 0)
(2.64222 -0.0151122 0)
(2.71854 -0.0181796 0)
(2.80595 -0.0206828 0)
(2.90076 -0.0224599 0)
(2.99896 -0.0235568 0)
(3.09692 -0.0240951 0)
(3.19178 -0.0242171 0)
(3.28155 -0.0240579 0)
(3.36508 -0.0237272 0)
(3.44187 -0.0233011 0)
(3.51193 -0.0228205 0)
(3.57551 -0.0222942 0)
(3.63298 -0.0217039 0)
(3.68471 -0.0210086 0)
(3.73101 -0.0201479 0)
(3.77205 -0.019045 0)
(3.80789 -0.017609 0)
(3.83844 -0.0157368 0)
(3.86347 -0.0133171 0)
(3.88265 -0.0102343 0)
(3.89552 -0.00637396 0)
(3.90159 -0.00162668 0)
(3.90029 0.00412696 0)
(3.8911 0.0110434 0)
(3.87348 0.0192456 0)
(3.84688 0.0287621 0)
(3.81076 0.0395238 0)
(3.76474 0.0513195 0)
(3.70867 0.0637537 0)
(3.64273 0.0762006 0)
(3.56744 0.0877672 0)
(3.48373 0.0973007 0)
(3.39289 0.103481 0)
(3.29663 0.105039 0)
(3.19714 0.101104 0)
(3.09724 0.0916021 0)
(3.00046 0.0775324 0)
(2.9109 0.0609156 0)
(2.83248 0.0443153 0)
(2.76792 0.0300657 0)
(2.71784 0.0195888 0)
(2.68078 0.0131749 0)
(2.65389 0.0102745 0)
(2.63401 0.0100006 0)
(2.61835 0.0115001 0)
(2.60482 0.0141154 0)
(2.59204 0.0174015 0)
(2.57918 0.0210729 0)
(2.56578 0.0249456 0)
(2.55162 0.0288972 0)
(2.53664 0.0328439 0)
(2.52085 0.0367286 0)
(2.50433 0.0405118 0)
(2.48714 0.0441667 0)
(2.46941 0.047675 0)
(2.45122 0.0510244 0)
(2.43268 0.054207 0)
(2.41386 0.0572176 0)
(2.39486 0.0600532 0)
(2.37574 0.0627117 0)
(2.35656 0.0651917 0)
(2.33739 0.0674921 0)
(2.31826 0.0696118 0)
(2.29921 0.0715497 0)
(2.28027 0.0733049 0)
(2.26148 0.0748769 0)
(2.24286 0.0762659 0)
(2.22442 0.077473 0)
(2.20618 0.0785009 0)
(2.18814 0.0793535 0)
(2.17033 0.0800368 0)
(2.15274 0.0805586 0)
(2.13539 0.0809283 0)
(2.11826 0.0811573 0)
(2.10137 0.0812581 0)
(2.0847 0.0812447 0)
(2.06826 0.0811315 0)
(2.05203 0.0809334 0)
(2.036 0.0806652 0)
(2.02015 0.080341 0)
(2.00446 0.0799744 0)
(1.98894 0.0795774 0)
(1.97361 0.0791595 0)
(1.95815 0.0787289 0)
(1.94224 0.078294 0)
(1.92465 0.0778398 0)
(1.9055 0.0773603 0)
(1.88473 0.0768501 0)
(1.86234 0.0762976 0)
(1.8384 0.0756904 0)
(1.81299 0.075014 0)
(1.78625 0.0742541 0)
(1.75838 0.0733976 0)
(1.7296 0.0724342 0)
(1.70021 0.0713579 0)
(1.67053 0.0701681 0)
(1.64087 0.0688698 0)
(1.61158 0.0674741 0)
(1.58298 0.065997 0)
(1.55536 0.0644585 0)
(1.52897 0.062881 0)
(1.50401 0.0612877 0)
(1.48064 0.0597011 0)
(1.45895 0.058142 0)
(1.43898 0.0566284 0)
(1.42074 0.0551755 0)
(1.40418 0.0537949 0)
(1.38923 0.0524952 0)
(1.37582 0.0512823 0)
(1.36384 0.0501591 0)
(1.35323 0.0491254 0)
(1.34368 0.0481791 0)
(1.33495 0.0473186 0)
(1.32628 0.0464642 0)
(1.31774 0.0456105 0)
(1.30925 0.0447547 0)
(1.30079 0.0438936 0)
(1.29231 0.0430237 0)
(1.28378 0.0421419 0)
(1.27517 0.041245 0)
(1.26645 0.0403295 0)
(1.2576 0.0393923 0)
(1.24859 0.0384301 0)
(1.2394 0.0374397 0)
(1.23002 0.0364182 0)
(1.22043 0.0353627 0)
(1.21061 0.0342703 0)
(1.20058 0.0331389 0)
(1.19032 0.0319662 0)
(1.17984 0.0307507 0)
(1.16916 0.0294913 0)
(1.15829 0.0281877 0)
(1.14725 0.0268401 0)
(1.13608 0.0254499 0)
(1.12482 0.0240194 0)
(1.11351 0.022552 0)
(1.10221 0.0210526 0)
(1.09098 0.0195273 0)
(1.0799 0.0179836 0)
(1.06904 0.0164305 0)
(1.05848 0.0148785 0)
(1.04831 0.0133392 0)
(1.03861 0.0118253 0)
(1.02947 0.0103502 0)
(1.02097 0.00892753 0)
(1.01319 0.00757096 0)
(1.00619 0.00629322 0)
(1.00002 0.00510567 0)
(0.994721 0.00401768 0)
(0.990302 0.00303602 0)
(0.986763 0.00216447 0)
(0.984082 0.00140357 0)
(0.982218 0.000750651 0)
(0.98111 0.000200443 0)
(0.980683 -0.000251082 0)
(0.980883 -0.000610801 0)
(0.981635 -0.000895297 0)
(0.982848 -0.00112234 0)
(0.984431 -0.00130525 0)
(0.986293 -0.00145613 0)
(0.988346 -0.0015863 0)
(0.990505 -0.001707 0)
(0.99269 -0.0018305 0)
(0.994822 -0.00197174 0)
(0.996826 -0.00215055 0)
(0.998634 -0.0023935 0)
(1.00017 -0.00273291 0)
(1.00137 -0.00319099 0)
(1.00217 -0.00368571 0)
(1.00262 -0.00388164 0)
(1.00123 -0.00420157 0)
(2.24688 -0.00168095 0)
(2.25993 -0.00300692 0)
(2.27129 -0.00318227 0)
(2.28429 -0.00350783 0)
(2.29787 -0.00380941 0)
(2.31241 -0.00416696 0)
(2.32792 -0.00457484 0)
(2.34455 -0.00505166 0)
(2.36247 -0.00561242 0)
(2.38192 -0.00628033 0)
(2.40321 -0.00708888 0)
(2.4268 -0.00809743 0)
(2.45338 -0.00942681 0)
(2.48405 -0.0113198 0)
(2.52053 -0.0141453 0)
(2.5651 -0.0181494 0)
(2.61999 -0.0230338 0)
(2.68635 -0.0280077 0)
(2.76385 -0.0323532 0)
(2.85076 -0.0357122 0)
(2.94437 -0.0379929 0)
(3.04147 -0.0392548 0)
(3.13895 -0.0396518 0)
(3.23408 -0.0393845 0)
(3.32479 -0.038657 0)
(3.40968 -0.037644 0)
(3.48801 -0.0364701 0)
(3.55953 -0.035203 0)
(3.62437 -0.0338566 0)
(3.68278 -0.0323978 0)
(3.7351 -0.030756 0)
(3.78162 -0.0288294 0)
(3.82253 -0.0264916 0)
(3.85788 -0.0235974 0)
(3.88763 -0.0199881 0)
(3.91157 -0.0154987 0)
(3.92943 -0.00996567 0)
(3.94082 -0.00323363 0)
(3.94534 0.00485271 0)
(3.94265 0.0144768 0)
(3.93243 0.0258152 0)
(3.91426 0.038949 0)
(3.88769 0.0538299 0)
(3.85237 0.0702269 0)
(3.80811 0.0876848 0)
(3.75489 0.10548 0)
(3.69294 0.122585 0)
(3.62264 0.137679 0)
(3.54457 0.149237 0)
(3.45947 0.155741 0)
(3.36836 0.156004 0)
(3.2727 0.149527 0)
(3.17465 0.136765 0)
(3.07718 0.119149 0)
(2.98393 0.0988555 0)
(2.89859 0.0783689 0)
(2.82415 0.0599694 0)
(2.76218 0.0452897 0)
(2.71257 0.0350767 0)
(2.67381 0.0292353 0)
(2.64363 0.0270994 0)
(2.6196 0.027777 0)
(2.59959 0.0304148 0)
(2.58192 0.0343253 0)
(2.56543 0.0390086 0)
(2.54935 0.0441207 0)
(2.53322 0.0494298 0)
(2.51679 0.0547805 0)
(2.49995 0.0600682 0)
(2.48268 0.0652224 0)
(2.46501 0.0701965 0)
(2.447 0.0749599 0)
(2.4287 0.0794938 0)
(2.4102 0.0837873 0)
(2.39156 0.087835 0)
(2.37285 0.0916349 0)
(2.35412 0.0951872 0)
(2.33544 0.0984931 0)
(2.31683 0.101554 0)
(2.29833 0.104372 0)
(2.27998 0.106948 0)
(2.26179 0.109283 0)
(2.24377 0.111377 0)
(2.22594 0.113232 0)
(2.20831 0.114848 0)
(2.19088 0.116229 0)
(2.17365 0.11738 0)
(2.15662 0.118304 0)
(2.13979 0.119013 0)
(2.12315 0.119514 0)
(2.10671 0.119822 0)
(2.09045 0.119952 0)
(2.07438 0.11992 0)
(2.05847 0.119744 0)
(2.04273 0.119444 0)
(2.02713 0.11904 0)
(2.01167 0.11855 0)
(1.99634 0.117993 0)
(1.98117 0.117386 0)
(1.96588 0.116741 0)
(1.9501 0.116072 0)
(1.93266 0.115365 0)
(1.91366 0.114618 0)
(1.89305 0.113823 0)
(1.87084 0.112965 0)
(1.84708 0.112022 0)
(1.82187 0.110972 0)
(1.79534 0.109794 0)
(1.76769 0.108466 0)
(1.73917 0.106974 0)
(1.71005 0.105308 0)
(1.68065 0.103468 0)
(1.65131 0.101463 0)
(1.62237 0.0993119 0)
(1.59413 0.0970396 0)
(1.5669 0.094678 0)
(1.54092 0.092262 0)
(1.51639 0.0898279 0)
(1.49344 0.0874101 0)
(1.47217 0.0850403 0)
(1.45262 0.0827456 0)
(1.43478 0.0805479 0)
(1.41861 0.078464 0)
(1.40403 0.0765057 0)
(1.39096 0.0746803 0)
(1.3793 0.072991 0)
(1.36898 0.071437 0)
(1.35971 0.0700152 0)
(1.35122 0.0687201 0)
(1.34282 0.0674351 0)
(1.33455 0.0661523 0)
(1.32633 0.0648677 0)
(1.31815 0.0635766 0)
(1.30997 0.0622741 0)
(1.30174 0.0609557 0)
(1.29346 0.0596166 0)
(1.28507 0.0582519 0)
(1.27657 0.056857 0)
(1.26793 0.0554272 0)
(1.25912 0.0539579 0)
(1.25014 0.0524447 0)
(1.24098 0.0508834 0)
(1.23162 0.0492704 0)
(1.22205 0.0476022 0)
(1.21229 0.0458761 0)
(1.20234 0.0440899 0)
(1.1922 0.0422426 0)
(1.1819 0.0403338 0)
(1.17146 0.0383645 0)
(1.16091 0.0363371 0)
(1.15028 0.0342555 0)
(1.13963 0.0321252 0)
(1.129 0.0299537 0)
(1.11844 0.0277505 0)
(1.10803 0.0255268 0)
(1.09783 0.0232963 0)
(1.0879 0.0210741 0)
(1.07833 0.0188771 0)
(1.06918 0.0167238 0)
(1.06053 0.0146331 0)
(1.05244 0.0126245 0)
(1.04497 0.0107169 0)
(1.03815 0.00892777 0)
(1.03203 0.00727272 0)
(1.02663 0.00576421 0)
(1.02195 0.00441106 0)
(1.01798 0.00321781 0)
(1.01468 0.00218448 0)
(1.01202 0.00130649 0)
(1.00993 0.000575062 0)
(1.00837 -2.10306e-05 0)
(1.00726 -0.000493064 0)
(1.00655 -0.00085814 0)
(1.00616 -0.00113737 0)
(1.00601 -0.00134871 0)
(1.00604 -0.00150801 0)
(1.00618 -0.00162907 0)
(1.00638 -0.00172368 0)
(1.00658 -0.00180151 0)
(1.00674 -0.00187014 0)
(1.00682 -0.00193472 0)
(1.00677 -0.00199791 0)
(1.00653 -0.00206237 0)
(1.00605 -0.00213983 0)
(1.00531 -0.00224531 0)
(1.00433 -0.00245287 0)
(1.0019 -0.0035296 0)
(2.24952 -0.00218762 0)
(2.26128 -0.003906 0)
(2.27145 -0.0041447 0)
(2.28316 -0.00460136 0)
(2.29544 -0.00502416 0)
(2.30862 -0.00552572 0)
(2.32272 -0.00609772 0)
(2.33789 -0.00676697 0)
(2.35429 -0.00755572 0)
(2.37214 -0.00849895 0)
(2.39174 -0.00964795 0)
(2.41352 -0.0110914 0)
(2.43809 -0.0129985 0)
(2.46636 -0.0156851 0)
(2.49957 -0.0196071 0)
(2.53917 -0.0250703 0)
(2.58659 -0.0317677 0)
(2.64292 -0.0388237 0)
(2.70879 -0.045369 0)
(2.78396 -0.0508554 0)
(2.86719 -0.0550086 0)
(2.95646 -0.0577477 0)
(3.04932 -0.0591448 0)
(3.14321 -0.0593811 0)
(3.23577 -0.0586971 0)
(3.32502 -0.0573445 0)
(3.40948 -0.0555446 0)
(3.48821 -0.0534592 0)
(3.56073 -0.0511771 0)
(3.6269 -0.0487139 0)
(3.68681 -0.046019 0)
(3.74067 -0.0429873 0)
(3.78866 -0.039469 0)
(3.83095 -0.0352806 0)
(3.86758 -0.0302144 0)
(3.89851 -0.0240508 0)
(3.92357 -0.0165718 0)
(3.94255 -0.00757451 0)
(3.95516 0.00312386 0)
(3.96116 0.0156921 0)
(3.96051 0.0303543 0)
(3.95309 0.0472725 0)
(3.93859 0.0664424 0)
(3.91672 0.0876337 0)
(3.88724 0.110366 0)
(3.85001 0.133879 0)
(3.805 0.157113 0)
(3.7522 0.178726 0)
(3.69164 0.197168 0)
(3.62336 0.210854 0)
(3.54753 0.21839 0)
(3.46458 0.218847 0)
(3.37545 0.211982 0)
(3.28182 0.198363 0)
(3.18613 0.179338 0)
(3.09145 0.156869 0)
(3.00108 0.133253 0)
(2.91801 0.11077 0)
(2.84444 0.0913211 0)
(2.7814 0.0761568 0)
(2.72874 0.065766 0)
(2.68536 0.0599602 0)
(2.64963 0.0580918 0)
(2.61974 0.0593083 0)
(2.59403 0.0627579 0)
(2.57112 0.0677091 0)
(2.54995 0.0735912 0)
(2.52979 0.0799864 0)
(2.51014 0.0866011 0)
(2.4907 0.0932337 0)
(2.47131 0.0997485 0)
(2.45187 0.106056 0)
(2.43238 0.112097 0)
(2.41285 0.117837 0)
(2.39332 0.123255 0)
(2.37383 0.128341 0)
(2.35443 0.133092 0)
(2.33517 0.13751 0)
(2.31608 0.1416 0)
(2.2972 0.145368 0)
(2.27854 0.148821 0)
(2.26014 0.151963 0)
(2.242 0.154802 0)
(2.22413 0.157341 0)
(2.20652 0.159584 0)
(2.18918 0.161537 0)
(2.17209 0.163203 0)
(2.15525 0.164589 0)
(2.13865 0.165702 0)
(2.12227 0.166551 0)
(2.1061 0.167147 0)
(2.09012 0.167505 0)
(2.07432 0.16764 0)
(2.05868 0.167571 0)
(2.04319 0.167319 0)
(2.02784 0.166905 0)
(2.01259 0.166353 0)
(1.99745 0.165684 0)
(1.98244 0.164921 0)
(1.96731 0.164082 0)
(1.95164 0.163183 0)
(1.93432 0.162209 0)
(1.91542 0.161165 0)
(1.89489 0.160041 0)
(1.87274 0.158817 0)
(1.84904 0.157463 0)
(1.82386 0.155949 0)
(1.79736 0.154243 0)
(1.76973 0.152316 0)
(1.74122 0.150146 0)
(1.71212 0.147722 0)
(1.68275 0.145045 0)
(1.65345 0.14213 0)
(1.62456 0.139004 0)
(1.59639 0.135707 0)
(1.56925 0.132286 0)
(1.54337 0.128792 0)
(1.51895 0.125279 0)
(1.49613 0.121796 0)
(1.475 0.118389 0)
(1.45559 0.115097 0)
(1.43789 0.111949 0)
(1.42186 0.10897 0)
(1.40742 0.106175 0)
(1.39447 0.103572 0)
(1.38293 0.101164 0)
(1.37272 0.0989511 0)
(1.36355 0.0969263 0)
(1.35516 0.0950757 0)
(1.34686 0.0932408 0)
(1.33869 0.0914098 0)
(1.33059 0.0895767 0)
(1.32252 0.0877355 0)
(1.31445 0.0858799 0)
(1.30635 0.0840038 0)
(1.2982 0.0821007 0)
(1.28996 0.0801644 0)
(1.28161 0.0781883 0)
(1.27313 0.0761663 0)
(1.2645 0.074092 0)
(1.2557 0.0719595 0)
(1.24674 0.0697633 0)
(1.23759 0.0674984 0)
(1.22825 0.0651604 0)
(1.21873 0.0627456 0)
(1.20904 0.0602517 0)
(1.19917 0.0576774 0)
(1.18916 0.0550229 0)
(1.17902 0.0522901 0)
(1.16878 0.0494828 0)
(1.15849 0.046607 0)
(1.14817 0.0436713 0)
(1.13789 0.0406863 0)
(1.12769 0.0376657 0)
(1.11763 0.0346257 0)
(1.10778 0.031585 0)
(1.09819 0.0285648 0)
(1.08895 0.0255883 0)
(1.0801 0.0226801 0)
(1.07171 0.0198658 0)
(1.06385 0.017171 0)
(1.05655 0.0146201 0)
(1.04986 0.0122358 0)
(1.0438 0.0100376 0)
(1.03839 0.00804057 0)
(1.03362 0.00625516 0)
(1.02949 0.00468599 0)
(1.02596 0.00333179 0)
(1.023 0.00218551 0)
(1.02054 0.0012348 0)
(1.01855 0.000462739 0)
(1.01694 -0.000149833 0)
(1.01568 -0.000623459 0)
(1.01468 -0.000982783 0)
(1.01388 -0.00125193 0)
(1.01323 -0.00145232 0)
(1.01268 -0.00160307 0)
(1.01216 -0.00172106 0)
(1.01164 -0.00182121 0)
(1.01109 -0.00191667 0)
(1.01046 -0.00201862 0)
(1.00971 -0.00213457 0)
(1.00881 -0.0022657 0)
(1.00769 -0.00240245 0)
(1.00634 -0.00249531 0)
(1.00478 -0.00253641 0)
(1.00202 -0.00326432 0)
(2.24167 -0.00275415 0)
(2.25201 -0.00489657 0)
(2.26089 -0.00520905 0)
(2.27119 -0.00581427 0)
(2.282 -0.00637528 0)
(2.29365 -0.00704121 0)
(2.30614 -0.00780115 0)
(2.31963 -0.00869163 0)
(2.33426 -0.00974371 0)
(2.35024 -0.0110063 0)
(2.36787 -0.0125511 0)
(2.38753 -0.014498 0)
(2.40973 -0.0170619 0)
(2.43518 -0.0206154 0)
(2.46465 -0.0256618 0)
(2.49891 -0.0325304 0)
(2.5387 -0.0409401 0)
(2.58487 -0.0500425 0)
(2.63841 -0.0589267 0)
(2.69995 -0.0669129 0)
(2.76941 -0.0735463 0)
(2.84601 -0.0785606 0)
(2.92834 -0.0818705 0)
(3.01462 -0.0835458 0)
(3.10287 -0.0837716 0)
(3.19112 -0.0827991 0)
(3.27759 -0.0808981 0)
(3.36077 -0.0783135 0)
(3.43956 -0.0752317 0)
(3.51318 -0.0717596 0)
(3.58124 -0.0679159 0)
(3.64355 -0.063633 0)
(3.70014 -0.0587681 0)
(3.75108 -0.0531179 0)
(3.79645 -0.0464368 0)
(3.83627 -0.0384559 0)
(3.87052 -0.028903 0)
(3.89905 -0.0175222 0)
(3.92168 -0.00409103 0)
(3.93825 0.0115522 0)
(3.94859 0.0295133 0)
(3.95318 0.0500922 0)
(3.95207 0.0734331 0)
(3.94506 0.0993418 0)
(3.93191 0.127348 0)
(3.91241 0.156704 0)
(3.88634 0.186367 0)
(3.85348 0.215045 0)
(3.81352 0.24126 0)
(3.76614 0.263475 0)
(3.71102 0.28026 0)
(3.64795 0.290483 0)
(3.57706 0.293463 0)
(3.49893 0.289069 0)
(3.4147 0.277753 0)
(3.32617 0.260531 0)
(3.23563 0.238907 0)
(3.14569 0.214746 0)
(3.05897 0.190084 0)
(2.97777 0.166881 0)
(2.9038 0.146768 0)
(2.83796 0.130847 0)
(2.78036 0.119608 0)
(2.73045 0.112975 0)
(2.68723 0.110457 0)
(2.64952 0.111326 0)
(2.61612 0.114788 0)
(2.58594 0.120101 0)
(2.5581 0.126632 0)
(2.5319 0.133878 0)
(2.50684 0.141461 0)
(2.48258 0.149103 0)
(2.45889 0.156611 0)
(2.43565 0.163851 0)
(2.41278 0.170736 0)
(2.39026 0.177214 0)
(2.36811 0.183256 0)
(2.34633 0.188849 0)
(2.32496 0.193994 0)
(2.30401 0.198699 0)
(2.28351 0.202977 0)
(2.26346 0.206843 0)
(2.24388 0.210313 0)
(2.22477 0.213403 0)
(2.20611 0.216127 0)
(2.18789 0.218499 0)
(2.17009 0.220531 0)
(2.15268 0.222237 0)
(2.13565 0.223627 0)
(2.11896 0.224714 0)
(2.10257 0.22551 0)
(2.08647 0.226031 0)
(2.07061 0.226292 0)
(2.05497 0.226311 0)
(2.03952 0.226107 0)
(2.02423 0.225701 0)
(2.00905 0.225117 0)
(1.994 0.224376 0)
(1.97907 0.223501 0)
(1.964 0.222515 0)
(1.94839 0.221429 0)
(1.93111 0.220225 0)
(1.91223 0.218905 0)
(1.89169 0.217455 0)
(1.86951 0.215847 0)
(1.84574 0.214041 0)
(1.82048 0.211995 0)
(1.79387 0.209664 0)
(1.76613 0.207011 0)
(1.73749 0.204007 0)
(1.70826 0.200637 0)
(1.67875 0.196907 0)
(1.64933 0.192838 0)
(1.62033 0.188472 0)
(1.59207 0.183868 0)
(1.56487 0.179093 0)
(1.53896 0.174222 0)
(1.51453 0.169333 0)
(1.49173 0.164496 0)
(1.47064 0.159776 0)
(1.45129 0.155224 0)
(1.43366 0.150882 0)
(1.4177 0.146781 0)
(1.40333 0.142939 0)
(1.39047 0.139367 0)
(1.37901 0.136066 0)
(1.36886 0.133031 0)
(1.35977 0.130253 0)
(1.35144 0.127705 0)
(1.34322 0.125178 0)
(1.33511 0.122654 0)
(1.32709 0.120127 0)
(1.3191 0.117587 0)
(1.31112 0.115028 0)
(1.30311 0.112441 0)
(1.29505 0.109819 0)
(1.28692 0.107154 0)
(1.27868 0.104437 0)
(1.27032 0.10166 0)
(1.26182 0.0988154 0)
(1.25318 0.0958959 0)
(1.24436 0.0928943 0)
(1.23538 0.0898042 0)
(1.22623 0.0866202 0)
(1.21691 0.083338 0)
(1.20743 0.0799549 0)
(1.1978 0.0764697 0)
(1.18803 0.0728834 0)
(1.17815 0.0691993 0)
(1.16819 0.0654232 0)
(1.15819 0.0615641 0)
(1.14818 0.0576338 0)
(1.13821 0.0536478 0)
(1.12834 0.0496247 0)
(1.11862 0.0455867 0)
(1.10911 0.0415593 0)
(1.09986 0.0375707 0)
(1.09095 0.0336517 0)
(1.08243 0.0298344 0)
(1.07436 0.0261521 0)
(1.06679 0.0226372 0)
(1.05976 0.0193208 0)
(1.05331 0.0162308 0)
(1.04745 0.0133907 0)
(1.0422 0.0108187 0)
(1.03755 0.00852608 0)
(1.03349 0.00651706 0)
(1.02999 0.00478828 0)
(1.02701 0.0033292 0)
(1.0245 0.00212287 0)
(1.02241 0.00114706 0)
(1.02067 0.000375614 0)
(1.01923 -0.000219575 0)