/*--------------------------------*- C++ -*----------------------------------*\
| =========                 |                                                 |
| \\      /  F ield         | OpenFOAM: The Open Source CFD Toolbox           |
|  \\    /   O peration     | Version:  2406                                  |
|   \\  /    A nd           | Website:  www.openfoam.com                      |
|    \\/     M anipulation  |                                                 |
\*---------------------------------------------------------------------------*/
FoamFile
{
    version     2.0;
    format      ascii;
    arch        "LSB;label=32;scalar=64";
    class       volScalarField;
    location    "0.5";
    object      p;
}
// * * * * * * * * * * * * * * * * * * * * * * * * * * * * * * * * * * * * * //

dimensions      [0 2 -2 0 0 0 0];

internalField   nonuniform List<scalar> 
125
(
102.825
102.764
102.703
102.642
102.58
102.519
102.458
102.397
102.335
102.274
102.213
102.152
102.091
102.029
101.968
101.907
101.846
101.784
101.723
101.662
101.601
101.539
101.478
101.417
101.356
102.825
102.764
102.703
102.642
102.58
102.519
102.458
102.397
102.335
102.274
102.213
102.152
102.091
102.029
101.968
101.907
101.846
101.784
101.723
101.662
101.601
101.539
101.478
101.417
101.356
102.825
102.764
102.703
102.642
102.58
102.519
102.458
102.397
102.335
102.274
102.213
102.152
102.091
102.029
101.968
101.907
101.846
101.784
101.723
101.662
101.601
101.539
101.478
101.417
101.356
102.825
102.764
102.703
102.642
102.58
102.519
102.458
102.397
102.335
102.274
102.213
102.152
102.091
102.029
101.968
101.907
101.846
101.784
101.723
101.662
101.601
101.539
101.478
101.417
101.356
102.825
102.764
102.703
102.642
102.58
102.519
102.458
102.397
102.335
102.274
102.213
102.152
102.091
102.029
101.968
101.907
101.846
101.784
101.723
101.662
101.601
101.539
101.478
101.417
101.356
)
;

boundaryField
{
    inlet
    {
        type            fixedValue;
        value           uniform 102.856;
    }
    outlet
    {
        type            fixedValue;
        value           uniform 101.325;
    }
    walls
    {
        type            zeroGradient;
    }
    frontAndBack
    {
        type            empty;
    }
}


// ************************************************************************* //
