/*--------------------------------*- C++ -*----------------------------------*\
| =========                 |                                                 |
| \\      /  F ield         | OpenFOAM: The Open Source CFD Toolbox           |
|  \\    /   O peration     | Version:  2406                                  |
|   \\  /    A nd           | Website:  www.openfoam.com                      |
|    \\/     M anipulation  |                                                 |
\*---------------------------------------------------------------------------*/
FoamFile
{
    version     2.0;
    format      ascii;
    arch        "LSB;label=32;scalar=64";
    class       surfaceScalarField;
    location    "0.5";
    object      phi;
}
// * * * * * * * * * * * * * * * * * * * * * * * * * * * * * * * * * * * * * //

dimensions      [0 3 -1 0 0 0 0];

oriented        oriented;

internalField   nonuniform List<scalar> 
220
(
1.51891e-05
-9.02002e-13
1.51891e-05
2.25863e-13
1.51891e-05
9.40998e-14
1.51891e-05
2.50214e-13
1.51891e-05
1.2235e-12
1.51891e-05
-7.11431e-13
1.51891e-05
-3.65179e-13
1.51891e-05
4.02376e-13
1.51891e-05
-5.3197e-13
1.51891e-05
-5.3122e-13
1.51891e-05
-1.8741e-14
1.51891e-05
-3.30081e-13
1.51891e-05
-4.54781e-13
1.51891e-05
-8.96297e-14
1.51891e-05
-4.94699e-13
1.51891e-05
-8.20903e-13
1.51891e-05
2.83718e-14
1.51891e-05
-3.5289e-13
1.51891e-05
-1.24695e-12
1.51891e-05
2.73979e-13
1.51891e-05
2.77003e-13
1.51891e-05
-5.00471e-13
1.51891e-05
7.10249e-13
1.51891e-05
6.05478e-13
8.85227e-14
3.33654e-05
-3.95815e-13
3.33654e-05
1.02339e-12
3.33654e-05
9.32381e-13
3.33654e-05
-2.03535e-13
3.33654e-05
1.42772e-12
3.33654e-05
-5.66041e-13
3.33654e-05
-1.0254e-12
3.33654e-05
1.79404e-13
3.33654e-05
-4.80092e-13
3.33654e-05
-8.63632e-13
3.33654e-05
-2.07471e-13
3.33654e-05
-2.92165e-13
3.33654e-05
-6.79799e-13
3.33654e-05
-2.31291e-13
3.33654e-05
-2.89078e-13
3.33654e-05
-1.05614e-12
3.33654e-05
-2.05643e-13
3.33654e-05
1.8541e-13
3.33654e-05
-1.34987e-12
3.33654e-05
-8.96988e-14
3.33654e-05
7.46631e-13
3.33654e-05
-6.5938e-13
3.33654e-05
4.96307e-13
3.33654e-05
9.70105e-13
3.14282e-13
3.94147e-05
9.52324e-13
3.94147e-05
2.3897e-12
3.94147e-05
1.44406e-12
3.94147e-05
-4.60058e-14
3.94147e-05
1.58266e-12
3.94147e-05
4.01551e-15
3.94147e-05
-8.56595e-13
3.94147e-05
2.70946e-13
3.94147e-05
-9.59248e-14
3.94147e-05
-5.75358e-13
3.94147e-05
1.93105e-14
3.94147e-05
1.1629e-13
3.94147e-05
-3.11713e-13
3.94147e-05
8.73953e-14
3.94147e-05
2.43014e-13
3.94147e-05
-6.03761e-13
3.94147e-05
3.64867e-14
3.94147e-05
7.34254e-13
3.94147e-05
-8.22578e-13
3.94147e-05
-2.82166e-14
3.94147e-05
9.78381e-13
3.94147e-05
-4.28203e-13
3.94147e-05
3.512e-13
3.94147e-05
5.10768e-13
-1.75249e-13
3.33654e-05
7.59091e-13
3.33654e-05
1.93526e-12
3.33654e-05
1.53514e-12
3.33654e-05
2.54306e-13
3.33654e-05
1.16199e-12
3.33654e-05
3.96442e-13
3.33654e-05
-5.27582e-13
3.33654e-05
9.90845e-15
3.33654e-05
2.63802e-14
3.33654e-05
-3.00801e-13
3.33654e-05
1.68397e-14
3.33654e-05
2.05748e-13
3.33654e-05
-8.9553e-14
3.33654e-05
1.12586e-13
3.33654e-05
4.03374e-13
3.33654e-05
-2.02438e-13
3.33654e-05
-2.85647e-14
3.33654e-05
7.31355e-13
3.33654e-05
-2.63142e-13
3.33654e-05
-9.01249e-14
3.33654e-05
7.03424e-13
3.33654e-05
-1.28342e-13
3.33654e-05
6.40155e-14
3.33654e-05
1.07722e-13
-3.63605e-13
1.51891e-05
1.51891e-05
1.51891e-05
1.51891e-05
1.51891e-05
1.51891e-05
1.51891e-05
1.51891e-05
1.51891e-05
1.51891e-05
1.51891e-05
1.51891e-05
1.51891e-05
1.51891e-05
1.51891e-05
1.51891e-05
1.51891e-05
1.51891e-05
1.51891e-05
1.51891e-05
1.51891e-05
1.51891e-05
1.51891e-05
1.51891e-05
)
;

boundaryField
{
    inlet
    {
        type            calculated;
        value           nonuniform List<scalar> 5(-1.51891e-05 -3.33654e-05 -3.94147e-05 -3.33654e-05 -1.51891e-05);
    }
    outlet
    {
        type            calculated;
        value           nonuniform List<scalar> 5(1.51891e-05 3.33654e-05 3.94147e-05 3.33654e-05 1.51891e-05);
    }
    walls
    {
        type            calculated;
        value           uniform 0;
    }
    frontAndBack
    {
        type            empty;
    }
}


// ************************************************************************* //
