/*--------------------------------*- C++ -*----------------------------------*\
| =========                 |                                                 |
| \\      /  F ield         | OpenFOAM: The Open Source CFD Toolbox           |
|  \\    /   O peration     | Version:  2406                                  |
|   \\  /    A nd           | Website:  www.openfoam.com                      |
|    \\/     M anipulation  |                                                 |
\*---------------------------------------------------------------------------*/
FoamFile
{
    version     2.0;
    format      ascii;
    arch        "LSB;label=32;scalar=64";
    class       volVectorField;
    location    "0.5";
    object      U;
}
// * * * * * * * * * * * * * * * * * * * * * * * * * * * * * * * * * * * * * //

dimensions      [0 1 -1 0 0 0 0];

internalField   nonuniform List<vector> 
125
(
(0.0759454 -2.11253e-09 0)
(0.0759453 -1.0428e-09 0)
(0.0759454 4.7107e-10 0)
(0.0759454 5.06385e-10 0)
(0.0759454 1.11577e-09 0)
(0.0759454 -2.61084e-10 0)
(0.0759454 -4.43582e-10 0)
(0.0759454 1.64473e-10 0)
(0.0759454 -4.76862e-10 0)
(0.0759453 -6.21618e-10 0)
(0.0759453 -1.30756e-10 0)
(0.0759453 -3.3544e-10 0)
(0.0759453 -5.83198e-10 0)
(0.0759453 -2.97553e-10 0)
(0.0759453 -4.95742e-10 0)
(0.0759453 -8.83759e-10 0)
(0.0759453 -3.62567e-10 0)
(0.0759453 -4.84461e-10 0)
(0.0759453 -1.07807e-09 0)
(0.0759453 -8.9694e-11 0)
(0.0759453 2.65001e-10 0)
(0.0759453 -3.34593e-10 0)
(0.0759453 7.04573e-10 0)
(0.0759453 1.06877e-09 0)
(0.0759453 4.99342e-10 0)
(0.166827 -2.90238e-09 0)
(0.166827 4.78736e-10 0)
(0.166827 1.05667e-09 0)
(0.166827 1.465e-10 0)
(0.166827 3.19798e-09 0)
(0.166827 -1.50568e-09 0)
(0.166827 -1.88799e-09 0)
(0.166827 7.64899e-10 0)
(0.166827 -1.27261e-09 0)
(0.166827 -1.94889e-09 0)
(0.166827 -3.24686e-10 0)
(0.166827 -8.65457e-10 0)
(0.166827 -1.62019e-09 0)
(0.166827 -4.90337e-10 0)
(0.166827 -1.06834e-09 0)
(0.166827 -2.60433e-09 0)
(0.166827 -3.03702e-10 0)
(0.166827 -3.02717e-10 0)
(0.166827 -3.4012e-09 0)
(0.166827 1.55572e-10 0)
(0.166827 1.13631e-09 0)
(0.166827 -1.55699e-09 0)
(0.166827 1.56957e-09 0)
(0.166827 2.54217e-09 0)
(0.166827 9.85772e-10 0)
(0.197073 8.25498e-10 0)
(0.197073 4.63626e-09 0)
(0.197073 3.29711e-09 0)
(0.197073 -2.5629e-10 0)
(0.197073 3.57231e-09 0)
(0.197073 -6.54692e-10 0)
(0.197073 -2.37094e-09 0)
(0.197073 5.97936e-10 0)
(0.197073 -7.77708e-10 0)
(0.197073 -1.8784e-09 0)
(0.197073 -2.50101e-10 0)
(0.197073 -2.97888e-10 0)
(0.197073 -1.23952e-09 0)
(0.197073 -2.15255e-10 0)
(0.197073 -1.39332e-10 0)
(0.197073 -2.08165e-09 0)
(0.197073 -2.338e-10 0)
(0.197073 1.09797e-09 0)
(0.197073 -2.80703e-09 0)
(0.197073 -1.85768e-10 0)
(0.197073 2.00433e-09 0)
(0.197073 -1.31089e-09 0)
(0.197073 1.1813e-09 0)
(0.197073 2.09872e-09 0)
(0.197073 3.4203e-10 0)
(0.166827 3.40904e-09 0)
(0.166827 7.05907e-09 0)
(0.166827 4.10227e-09 0)
(0.166827 1.78165e-10 0)
(0.166827 3.69166e-09 0)
(0.166827 6.99529e-10 0)
(0.166827 -1.7204e-09 0)
(0.166827 4.89789e-10 0)
(0.166827 1.13947e-12 0)
(0.166827 -1.07577e-09 0)
(0.166827 1.59815e-10 0)
(0.166827 4.9765e-10 0)
(0.166827 -3.71155e-10 0)
(0.166827 4.00605e-10 0)
(0.166827 9.80469e-10 0)
(0.166827 -9.2075e-10 0)
(0.166827 1.34638e-10 0)
(0.166827 2.04868e-09 0)
(0.166827 -1.42423e-09 0)
(0.166827 -3.6646e-11 0)
(0.166827 2.20846e-09 0)
(0.166827 -7.19008e-10 0)
(0.166827 4.82177e-10 0)
(0.166827 4.03419e-10 0)
(0.166827 -1.16117e-09 0)
(0.0759453 1.89533e-09 0)
(0.0759453 3.32966e-09 0)
(0.0759454 1.54536e-09 0)
(0.0759454 8.12274e-10 0)
(0.0759454 1.43864e-09 0)
(0.0759454 2.32034e-10 0)
(0.0759454 -3.75784e-10 0)
(0.0759453 3.59229e-11 0)
(0.0759453 -1.27491e-10 0)
(0.0759453 -2.75226e-10 0)
(0.0759453 9.30711e-11 0)
(0.0759453 2.03634e-10 0)
(0.0759453 1.6803e-11 0)
(0.0759453 2.4239e-10 0)
(0.0759453 3.8616e-10 0)
(0.0759453 -1.32404e-10 0)
(0.0759453 2.24954e-10 0)
(0.0759453 6.08384e-10 0)
(0.0759453 -3.05034e-10 0)
(0.0759453 3.11306e-10 0)
(0.0759453 5.56805e-10 0)
(0.0759453 -1.19954e-10 0)
(0.0759453 1.32281e-10 0)
(0.0759453 -3.9674e-10 0)
(0.0759453 -9.23657e-10 0)
)
;

boundaryField
{
    inlet
    {
        type            zeroGradient;
    }
    outlet
    {
        type            zeroGradient;
    }
    walls
    {
        type            noSlip;
    }
    frontAndBack
    {
        type            empty;
    }
}


// ************************************************************************* //
