/*--------------------------------*- C++ -*----------------------------------*\
| =========                 |                                                 |
| \\      /  F ield         | OpenFOAM: The Open Source CFD Toolbox           |
|  \\    /   O peration     | Version:  2406                                  |
|   \\  /    A nd           | Website:  www.openfoam.com                      |
|    \\/     M anipulation  |                                                 |
\*---------------------------------------------------------------------------*/
FoamFile
{
    version     2.0;
    format      ascii;
    arch        "LSB;label=32;scalar=64";
    class       volScalarField;
    location    "0.3";
    object      alpha.glycerin;
}
// * * * * * * * * * * * * * * * * * * * * * * * * * * * * * * * * * * * * * //

dimensions      [0 0 0 0 0 0 0];

internalField   nonuniform List<scalar> 
6250
(
5.12544e-320
5.12643e-320
5.12741e-320
5.1284e-320
5.13038e-320
5.13038e-320
5.13235e-320
5.13334e-320
5.13433e-320
5.13631e-320
5.13631e-320
5.13828e-320
5.14026e-320
5.14125e-320
5.14224e-320
5.14421e-320
5.1452e-320
5.14619e-320
5.14816e-320
5.15014e-320
5.15014e-320
5.15212e-320
5.15409e-320
-5.15508e-320
5.15607e-320
5.15805e-320
-5.16002e-320
-5.16101e-320
-5.162e-320
-5.16397e-320
-5.16496e-320
-5.16595e-320
-5.16793e-320
-5.1699e-320
-5.17089e-320
-5.17188e-320
-5.17386e-320
-5.17583e-320
-5.17583e-320
-5.17781e-320
-5.17978e-320
-5.18077e-320
-5.18176e-320
-5.18374e-320
-5.18571e-320
-5.1867e-320
-5.18769e-320
-5.18967e-320
-5.19164e-320
-5.19263e-320
-5.19362e-320
-5.19559e-320
-5.19658e-320
-5.19757e-320
-5.19955e-320
-5.20152e-320
-5.20251e-320
-5.2035e-320
-5.20548e-320
-5.20745e-320
-5.20844e-320
-5.20943e-320
-5.2114e-320
-5.21338e-320
-5.21437e-320
-5.21536e-320
-5.21733e-320
-5.21832e-320
-5.21931e-320
-5.22129e-320
-5.22326e-320
-5.22425e-320
-5.22524e-320
-5.22721e-320
-5.22919e-320
-5.23018e-320
-5.23117e-320
-5.23314e-320
-5.23413e-320
-5.23512e-320
-5.2371e-320
-5.23907e-320
-5.24006e-320
-5.24105e-320
-5.24302e-320
-5.245e-320
-5.24599e-320
-5.24698e-320
-5.24895e-320
-5.25093e-320
-5.25093e-320
-5.25291e-320
-5.25488e-320
-5.25587e-320
-5.25686e-320
-5.25883e-320
-5.26081e-320
-5.2618e-320
-5.26279e-320
-5.26476e-320
-5.26674e-320
-5.26773e-320
-5.26872e-320
-5.27069e-320
-5.27168e-320
-5.27267e-320
-5.27464e-320
-5.27662e-320
-5.27761e-320
-5.2786e-320
-5.28057e-320
-5.28255e-320
-5.28354e-320
-5.28453e-320
-5.2865e-320
-5.28848e-320
-5.28947e-320
-5.29045e-320
-5.29243e-320
-5.29441e-320
-5.2954e-320
-5.29638e-320
-5.29836e-320
-5.30034e-320
-5.30231e-320
-5.3033e-320
-5.30429e-320
-5.30627e-320
-5.30824e-320
-5.31022e-320
-5.31219e-320
-5.31318e-320
-5.31516e-320
-5.31713e-320
-5.31911e-320
-5.32109e-320
-5.32306e-320
-5.32603e-320
-5.328e-320
-5.32998e-320
-5.33196e-320
-5.33591e-320
-5.33789e-320
-5.34085e-320
-5.34381e-320
-5.34777e-320
-1.07034e-319
-1.07113e-319
-1.07192e-319
-1.07291e-319
-1.0739e-319
-1.07509e-319
-1.07637e-319
-1.07766e-319
-1.07924e-319
-1.62133e-319
-2.34028e-306
-3.94106e-289
-9.67994e-273
-3.296e-257
-6.76555e-242
-5.62221e-227
-5.44354e-203
-5.34455e-189
-6.09117e-175
-6.93691e-162
-1.05878e-149
-1.55273e-137
-2.30591e-125
-2.97533e-113
-1.09048e-101
-1.16854e-90
-2.93187e-80
-1.1085e-70
-4.09751e-62
-1.75378e-54
-3.38114e-43
-2.15022e-32
-2.23221e-26
-2.44296e-21
-7.59407e-18
-2.75683e-15
-2.80224e-15
-1.87235e-15
-1.31084e-15
-1.01544e-15
-1.11455e-15
-2.54556e-15
0.0236314
0.776964
0.999857
0.999859
0.999859
0.999903
0.999909
0.999909
0.999909
0.999609
0.999507
0.999507
0.999713
0.999881
0.999871
0.999853
0.999731
0.999723
0.999898
0.999978
0.999978
0.999953
0.999522
0.999509
0.99958
0.999928
0.999928
0.99992
0.99992
0.999518
0.999334
0.999334
0.999757
0.999836
0.999834
0.999833
0.99983
0.99983
0.999216
0.99908
0.999133
0.999152
0.999152
0.997782
0.997509
0.998931
0.999665
0.999665
0.999665
0.999665
0.997053
0.992011
0.992011
0.992011
0.996556
0.999104
0.999104
0.994829
0.987007
0.989831
0.994405
0.994405
5.12346e-320
5.12247e-320
5.1205e-320
5.1205e-320
5.1205e-320
5.11951e-320
5.11852e-320
5.11753e-320
5.11654e-320
5.11654e-320
5.11556e-320
5.11457e-320
5.11457e-320
5.11358e-320
5.11259e-320
5.11259e-320
5.11062e-320
5.11062e-320
5.11062e-320
5.10864e-320
5.10864e-320
5.10864e-320
5.10666e-320
-5.10666e-320
5.10567e-320
5.10469e-320
-5.10469e-320
-5.10469e-320
-5.10271e-320
-5.10271e-320
-5.10271e-320
-5.10073e-320
-5.10073e-320
-5.10073e-320
-5.09975e-320
-5.09876e-320
-5.09876e-320
-5.09777e-320
-5.09678e-320
-5.09678e-320
-5.09579e-320
-5.0948e-320
-5.0948e-320
-5.0948e-320
-5.09283e-320
-5.09283e-320
-5.09283e-320
-5.09184e-320
-5.09085e-320
-5.09085e-320
-5.09085e-320
-5.08888e-320
-5.08888e-320
-5.08888e-320
-5.08789e-320
-5.0869e-320
-5.0869e-320
-5.0869e-320
-5.08591e-320
-5.08492e-320
-5.08492e-320
-5.08492e-320
-5.08295e-320
-5.08295e-320
-5.08295e-320
-5.08196e-320
-5.08097e-320
-5.08097e-320
-5.08097e-320
-5.07998e-320
-5.07899e-320
-5.07899e-320
-5.07899e-320
-5.07899e-320
-5.07801e-320
-5.07702e-320
-5.07702e-320
-5.07702e-320
-5.07603e-320
-5.07504e-320
-5.07504e-320
-5.07504e-320
-5.07405e-320
-5.07307e-320
-5.07307e-320
-5.07307e-320
-5.07307e-320
-5.07208e-320
-5.07109e-320
-5.07109e-320
-5.07109e-320
-5.07109e-320
-5.0701e-320
-5.06911e-320
-5.06911e-320
-5.06911e-320
-5.06911e-320
-5.06813e-320
-5.06714e-320
-5.06714e-320
-5.06714e-320
-5.06714e-320
-5.06615e-320
-5.06516e-320
-5.06516e-320
-5.06516e-320
-5.06516e-320
-5.06417e-320
-5.06417e-320
-5.06318e-320
-5.06318e-320
-5.06318e-320
-5.06318e-320
-5.0622e-320
-5.06121e-320
-5.06121e-320
-5.06121e-320
-5.06121e-320
-5.06121e-320
-5.06022e-320
-5.05923e-320
-5.05923e-320
-5.05923e-320
-5.05923e-320
-5.05923e-320
-5.05824e-320
-5.05824e-320
-5.05726e-320
-5.05726e-320
-5.05726e-320
-5.05726e-320
-5.05726e-320
-5.05627e-320
-5.05528e-320
-5.05528e-320
-5.05528e-320
-5.05528e-320
-5.05528e-320
-5.05429e-320
-5.05429e-320
-5.0533e-320
-5.0533e-320
-5.0533e-320
-5.0533e-320
-5.0533e-320
-5.0533e-320
-5.05232e-320
-5.05232e-320
-5.05133e-320
-5.05133e-320
-5.05133e-320
-5.05133e-320
-5.05133e-320
-5.05133e-320
-1.01017e-319
-1.01027e-319
-6.20253e-308
-1.12693e-290
-2.98372e-274
-1.0938e-258
-2.41338e-243
-2.15157e-228
-2.22976e-204
-2.33707e-190
-2.83502e-176
-3.42519e-163
-5.526e-151
-8.53316e-139
-1.32911e-126
-1.79121e-114
-6.82667e-103
-7.57174e-92
-1.9567e-81
-7.58014e-72
-2.85502e-63
-1.23774e-55
-2.40168e-44
-1.527e-33
-1.57521e-27
-1.70769e-22
-5.44902e-19
-2.14765e-16
-3.76593e-16
-4.18528e-16
-4.36745e-16
-4.5988e-16
-4.93948e-16
-1.0647e-15
0.0121724
0.0711269
0.108708
0.534417
0.993556
0.999909
0.999909
0.999909
0.999909
0.999909
0.999909
0.999909
0.999909
0.999909
0.996632
0.982175
0.974282
0.976627
0.98792
0.998362
0.999978
0.999963
0.999879
0.999894
0.999918
0.999927
0.999625
0.99589
0.995185
0.997495
0.999668
0.999968
0.999969
0.999969
0.992145
0.985261
0.992881
0.999792
0.999818
0.999804
0.999825
0.996834
0.989164
0.990128
0.997975
0.999665
0.999665
0.999578
0.999611
0.999665
0.999652
0.999652
0.999115
0.998746
0.999073
0.999104
0.999104
0.995359
0.987007
0.989887
0.994257
0.991847
5.12445e-320
5.12445e-320
5.12445e-320
5.12346e-320
5.12346e-320
5.12346e-320
5.12247e-320
5.12247e-320
5.12247e-320
5.12247e-320
5.12247e-320
5.12247e-320
5.12247e-320
5.12247e-320
5.12247e-320
5.12247e-320
5.12247e-320
5.12247e-320
5.12247e-320
5.12148e-320
5.12148e-320
5.12148e-320
5.12148e-320
-5.1205e-320
5.1205e-320
5.1205e-320
-5.1205e-320
-5.1205e-320
-5.1205e-320
-5.1205e-320
-5.1205e-320
-5.1205e-320
-5.1205e-320
-5.1205e-320
-5.1205e-320
-5.1205e-320
-5.1205e-320
-5.11951e-320
-5.11951e-320
-5.11951e-320
-5.11951e-320
-5.11852e-320
-5.11852e-320
-5.11852e-320
-5.11852e-320
-5.11852e-320
-5.11852e-320
-5.11852e-320
-5.11852e-320
-5.11852e-320
-5.11852e-320
-5.11852e-320
-5.11852e-320
-5.11753e-320
-5.11753e-320
-5.11753e-320
-5.11753e-320
-5.11654e-320
-5.11654e-320
-5.11654e-320
-5.11654e-320
-5.11654e-320
-5.11654e-320
-5.11654e-320
-5.11654e-320
-5.11654e-320
-5.11654e-320
-5.11556e-320
-5.11556e-320
-5.11556e-320
-5.11556e-320
-5.11457e-320
-5.11457e-320
-5.11457e-320
-5.11457e-320
-5.11457e-320
-5.11457e-320
-5.11457e-320
-5.11457e-320
-5.11457e-320
-5.11358e-320
-5.11358e-320
-5.11358e-320
-5.11259e-320
-5.11259e-320
-5.11259e-320
-5.11259e-320
-5.11259e-320
-5.11259e-320
-5.11259e-320
-5.11259e-320
-5.11259e-320
-5.1116e-320
-5.1116e-320
-5.1116e-320
-5.11062e-320
-5.11062e-320
-5.11062e-320
-5.11062e-320
-5.11062e-320
-5.11062e-320
-5.11062e-320
-5.11062e-320
-5.10963e-320
-5.10963e-320
-5.10963e-320
-5.10864e-320
-5.10864e-320
-5.10864e-320
-5.10864e-320
-5.10864e-320
-5.10864e-320
-5.10864e-320
-5.10864e-320
-5.10765e-320
-5.10765e-320
-5.10765e-320
-5.10666e-320
-5.10666e-320
-5.10666e-320
-5.10666e-320
-5.10666e-320
-5.10666e-320
-5.10666e-320
-5.10567e-320
-5.10567e-320
-5.10469e-320
-5.10469e-320
-5.10469e-320
-5.10469e-320
-5.10469e-320
-5.10469e-320
-5.10469e-320
-5.1037e-320
-5.1037e-320
-5.10271e-320
-5.10271e-320
-5.10271e-320
-5.10271e-320
-5.10271e-320
-5.10271e-320
-5.10172e-320
-5.10073e-320
-5.10073e-320
-5.10073e-320
-5.10073e-320
-5.09975e-320
-5.09876e-320
-5.09876e-320
-5.09876e-320
-5.09777e-320
-5.09678e-320
-1.01926e-319
-1.01906e-319
-1.01886e-319
-1.01857e-319
-2.12201e-309
-4.17069e-292
-1.19296e-275
-4.71664e-260
-1.12015e-244
-1.07236e-229
-1.1902e-205
-1.33204e-191
-1.71978e-177
-2.20365e-164
-3.75654e-152
-6.10529e-140
-9.96816e-128
-1.4023e-115
-5.55496e-104
-6.376e-93
-1.69761e-82
-6.74551e-73
-2.59433e-64
-1.14331e-56
-2.24483e-45
-1.43743e-34
-1.48577e-28
-1.60385e-23
-5.05035e-20
-1.93052e-17
-5.08782e-17
-8.25983e-17
-1.12981e-16
-1.42211e-16
-1.67969e-16
-2.88815e-16
0.000421872
6.91557e-06
6.94247e-06
0.0273684
0.0968794
0.125708
0.312529
0.751354
0.666564
0.204246
0.166509
0.542344
0.943878
0.956248
0.803384
0.349529
0.144906
0.172988
0.311272
0.529743
0.651553
0.694998
0.748753
0.816092
0.876146
0.953587
0.99707
0.997029
0.832956
0.78544
0.932195
0.999887
0.999969
0.951677
0.904086
0.904119
0.954849
0.999771
0.977993
0.567009
0.546532
0.842169
0.989188
0.976258
0.98385
0.989648
0.980055
0.98959
0.999611
0.92129
0.76816
0.814319
0.974426
0.999104
0.999104
0.999104
0.999104
0.999104
0.999104
0.616806
0.179359
0.520421
5.12445e-320
5.12346e-320
5.12346e-320
5.12346e-320
5.12346e-320
5.12247e-320
5.12247e-320
5.12247e-320
5.12247e-320
5.12247e-320
5.12247e-320
5.12247e-320
5.12247e-320
5.12247e-320
5.12247e-320
5.12247e-320
5.12247e-320
5.12247e-320
5.12247e-320
5.12247e-320
5.12247e-320
5.12247e-320
5.12148e-320
-5.12148e-320
5.12148e-320
5.12148e-320
-5.12148e-320
-5.12148e-320
-5.12148e-320
-5.1205e-320
-5.1205e-320
-5.1205e-320
-5.1205e-320
-5.1205e-320
-5.1205e-320
-5.1205e-320
-5.1205e-320
-5.1205e-320
-5.1205e-320
-5.1205e-320
-5.1205e-320
-5.1205e-320
-5.1205e-320
-5.1205e-320
-5.1205e-320
-5.1205e-320
-5.1205e-320
-5.1205e-320
-5.1205e-320
-5.11951e-320
-5.11951e-320
-5.11951e-320
-5.11951e-320
-5.11951e-320
-5.11951e-320
-5.11951e-320
-5.11852e-320
-5.11852e-320
-5.11852e-320
-5.11852e-320
-5.11852e-320
-5.11852e-320
-5.11852e-320
-5.11852e-320
-5.11852e-320
-5.11852e-320
-5.11852e-320
-5.11852e-320
-5.11852e-320
-5.11852e-320
-5.11852e-320
-5.11852e-320
-5.11852e-320
-5.11852e-320
-5.11852e-320
-5.11753e-320
-5.11753e-320
-5.11753e-320
-5.11753e-320
-5.11753e-320
-5.11753e-320
-5.11654e-320
-5.11654e-320
-5.11654e-320
-5.11654e-320
-5.11654e-320
-5.11654e-320
-5.11654e-320
-5.11654e-320
-5.11654e-320
-5.11654e-320
-5.11654e-320
-5.11654e-320
-5.11654e-320
-5.11654e-320
-5.11654e-320
-5.11654e-320
-5.11654e-320
-5.11654e-320
-5.11556e-320
-5.11556e-320
-5.11556e-320
-5.11556e-320
-5.11556e-320
-5.11556e-320
-5.11457e-320
-5.11457e-320
-5.11457e-320
-5.11457e-320
-5.11457e-320
-5.11457e-320
-5.11457e-320
-5.11457e-320
-5.11457e-320
-5.11457e-320
-5.11457e-320
-5.11457e-320
-5.11457e-320
-5.11457e-320
-5.11457e-320
-5.11457e-320
-5.11358e-320
-5.11358e-320
-5.11358e-320
-5.11358e-320
-5.11358e-320
-5.11259e-320
-5.11259e-320
-5.11259e-320
-5.11259e-320
-5.11259e-320
-5.11259e-320
-5.11259e-320
-5.11259e-320
-5.11259e-320
-5.11259e-320
-5.11259e-320
-5.11259e-320
-5.11259e-320
-5.11259e-320
-5.1116e-320
-5.1116e-320
-5.1116e-320
-5.1116e-320
-5.11062e-320
-5.11062e-320
-5.11062e-320
-5.11062e-320
-5.11062e-320
-5.11062e-320
-5.11062e-320
-5.10963e-320
-1.02193e-319
-1.02183e-319
-1.02173e-319
-1.02163e-319
-7.44913e-311
-1.57934e-293
-4.86493e-277
-2.06744e-261
-5.26616e-246
-5.39456e-231
-6.39046e-207
-7.61305e-193
-1.04332e-178
-1.4149e-165
-2.54515e-153
-4.35166e-141
-7.45181e-129
-1.09612e-116
-4.52623e-105
-5.39897e-94
-1.48928e-83
-6.11228e-74
-2.42072e-65
-1.09523e-57
-2.20122e-46
-1.43863e-35
-1.51353e-29
-1.65888e-24
-5.29662e-21
-2.04654e-18
-7.50086e-18
-1.63818e-17
-2.85971e-17
-4.42487e-17
-6.30686e-17
-3.0672e-17
-2.99388e-08
4.18134e-07
4.59871e-07
6.54761e-06
6.07829e-06
4.74785e-06
0.00195894
0.0432144
0.0383715
0.0166977
5.6546e-05
0.01524
0.0207459
0.00980562
0.00125001
1.76537e-05
1.7841e-07
1.53359e-07
1.44038e-07
1.44038e-07
1.44038e-07
1.44048e-07
1.45629e-07
1.50252e-07
1.5444e-07
0.0525509
0.551735
0.814612
0.661269
0.407359
0.466329
0.670197
0.818065
0.877442
0.93046
0.962995
0.969888
0.864348
0.514824
0.513284
0.577542
0.913756
0.787433
0.264099
0.176196
0.174773
0.539664
0.988255
0.99956
0.999409
0.966846
0.307848
0.20431
0.21577
0.781289
0.999104
0.999104
0.999104
0.999104
0.843536
0.18079
0.0968701
5.12445e-320
5.12445e-320
5.12346e-320
5.12346e-320
5.12346e-320
5.12346e-320
5.12346e-320
5.12346e-320
5.12247e-320
5.12247e-320
5.12247e-320
5.12247e-320
5.12247e-320
5.12247e-320
5.12247e-320
5.12247e-320
5.12247e-320
5.12247e-320
5.12247e-320
5.12247e-320
5.12247e-320
5.12247e-320
5.12247e-320
-5.12247e-320
5.12247e-320
5.12247e-320
-5.12148e-320
-5.12148e-320
-5.12148e-320
-5.12148e-320
-5.12148e-320
-5.12148e-320
-5.1205e-320
-5.1205e-320
-5.1205e-320
-5.1205e-320
-5.1205e-320
-5.1205e-320
-5.1205e-320
-5.1205e-320
-5.1205e-320
-5.1205e-320
-5.1205e-320
-5.1205e-320
-5.1205e-320
-5.1205e-320
-5.1205e-320
-5.1205e-320
-5.1205e-320
-5.1205e-320
-5.1205e-320
-5.11951e-320
-5.11951e-320
-5.11951e-320
-5.11951e-320
-5.11951e-320
-5.11951e-320
-5.11852e-320
-5.11852e-320
-5.11852e-320
-5.11852e-320
-5.11852e-320
-5.11852e-320
-5.11852e-320
-5.11852e-320
-5.11852e-320
-5.11852e-320
-5.11852e-320
-5.11852e-320
-5.11852e-320
-5.11852e-320
-5.11852e-320
-5.11852e-320
-5.11852e-320
-5.11852e-320
-5.11852e-320
-5.11753e-320
-5.11753e-320
-5.11753e-320
-5.11753e-320
-5.11753e-320
-5.11654e-320
-5.11654e-320
-5.11654e-320
-5.11654e-320
-5.11654e-320
-5.11654e-320
-5.11654e-320
-5.11654e-320
-5.11654e-320
-5.11654e-320
-5.11654e-320
-5.11654e-320
-5.11654e-320
-5.11654e-320
-5.11654e-320
-5.11654e-320
-5.11654e-320
-5.11654e-320
-5.11556e-320
-5.11556e-320
-5.11556e-320
-5.11556e-320
-5.11556e-320
-5.11457e-320
-5.11457e-320
-5.11457e-320
-5.11457e-320
-5.11457e-320
-5.11457e-320
-5.11457e-320
-5.11457e-320
-5.11457e-320
-5.11457e-320
-5.11457e-320
-5.11457e-320
-5.11457e-320
-5.11457e-320
-5.11457e-320
-5.11457e-320
-5.11358e-320
-5.11358e-320
-5.11358e-320
-5.11358e-320
-5.11358e-320
-5.11259e-320
-5.11259e-320
-5.11259e-320
-5.11259e-320
-5.11259e-320
-5.11259e-320
-5.11259e-320
-5.11259e-320
-5.11259e-320
-5.11259e-320
-5.11259e-320
-5.1116e-320
-5.1116e-320
-5.1116e-320
-5.11062e-320
-5.11062e-320
-5.11062e-320
-5.11062e-320
-5.11062e-320
-5.11062e-320
-5.10963e-320
-5.10864e-320
-5.10864e-320
-5.10864e-320
-5.10864e-320
-5.10765e-320
-5.10666e-320
-5.10666e-320
-1.02113e-319
-1.02094e-319
-1.02084e-319
-2.70321e-312
-6.15453e-295
-2.03121e-278
-9.22541e-263
-2.50465e-247
-2.72682e-232
-3.42267e-208
-4.30687e-194
-6.21445e-180
-8.84502e-167
-1.66455e-154
-2.96835e-142
-5.28615e-130
-8.06464e-118
-3.44558e-106
-4.24348e-95
-1.20647e-84
-5.09671e-75
-2.07577e-66
-9.65339e-59
-1.99422e-47
-1.34028e-36
-1.4515e-30
-1.64034e-25
-5.41528e-22
-2.16418e-19
-1.04682e-18
-2.93617e-18
-6.35894e-18
-1.18509e-17
-1.99226e-17
-5.1046e-18
-5.16796e-09
-5.04504e-09
1.01968e-09
3.79326e-07
3.59738e-07
3.45449e-07
1.45564e-06
3.81318e-06
0.00010941
6.01096e-05
4.87164e-05
7.22636e-07
3.54293e-07
1.30009e-07
6.37003e-06
5.70674e-05
5.70703e-05
5.70674e-05
3.7116e-05
1.44038e-07
2.71517e-07
4.94457e-06
6.58938e-06
2.4473e-06
1.42994e-06
5.45232e-07
5.08045e-07
4.91201e-07
4.90219e-07
4.91201e-07
4.90973e-07
4.94856e-07
5.03914e-07
5.14364e-07
4.32393e-07
0.232221
0.88576
0.918763
0.909567
0.895852
0.90602
0.913835
0.913835
0.913835
0.784944
0.152236
0.0104651
0.118787
0.223583
0.317486
0.706163
0.71486
0.553492
0.190275
0.189989
0.299196
0.307301
0.218532
0.47975
0.781353
0.739337
0.206755
-5.12445e-320
-5.12346e-320
-5.12346e-320
-5.12346e-320
-5.12346e-320
-5.12346e-320
-5.12346e-320
-5.12247e-320
-5.12247e-320
-5.12247e-320
-5.12247e-320
-5.12247e-320
-5.12247e-320
-5.12247e-320
-5.12247e-320
-5.12247e-320
-5.12247e-320
-5.12247e-320
5.12247e-320
5.12247e-320
5.12247e-320
5.12247e-320
5.12247e-320
-5.12247e-320
5.12247e-320
5.12247e-320
-5.12148e-320
-5.12148e-320
-5.12148e-320
-5.12148e-320
-5.12148e-320
-5.12148e-320
-5.12148e-320
-5.1205e-320
-5.1205e-320
-5.1205e-320
-5.1205e-320
-5.1205e-320
-5.1205e-320
-5.1205e-320
-5.1205e-320
-5.1205e-320
-5.1205e-320
-5.1205e-320
-5.1205e-320
-5.1205e-320
-5.1205e-320
-5.1205e-320
-5.1205e-320
-5.1205e-320
-5.1205e-320
-5.1205e-320
-5.11951e-320
-5.11951e-320
-5.11951e-320
-5.11951e-320
-5.11951e-320
-5.11951e-320
-5.11951e-320
-5.11852e-320
-5.11852e-320
-5.11852e-320
-5.11852e-320
-5.11852e-320
-5.11852e-320
-5.11852e-320
-5.11852e-320
-5.11852e-320
-5.11852e-320
-5.11852e-320
-5.11852e-320
-5.11852e-320
-5.11852e-320
-5.11852e-320
-5.11852e-320
-5.11852e-320
-5.11852e-320
-5.11753e-320
-5.11753e-320
-5.11753e-320
-5.11753e-320
-5.11753e-320
-5.11753e-320
-5.11654e-320
-5.11654e-320
-5.11654e-320
-5.11654e-320
-5.11654e-320
-5.11654e-320
-5.11654e-320
-5.11654e-320
-5.11654e-320
-5.11654e-320
-5.11654e-320
-5.11654e-320
-5.11654e-320
-5.11654e-320
-5.11654e-320
-5.11654e-320
-5.11654e-320
-5.11556e-320
-5.11556e-320
-5.11556e-320
-5.11556e-320
-5.11556e-320
-5.11457e-320
-5.11457e-320
-5.11457e-320
-5.11457e-320
-5.11457e-320
-5.11457e-320
-5.11457e-320
-5.11457e-320
-5.11457e-320
-5.11457e-320
-5.11457e-320
-5.11457e-320
-5.11457e-320
-5.11457e-320
-5.11457e-320
-5.11358e-320
-5.11358e-320
-5.11358e-320
-5.11358e-320
-5.11259e-320
-5.11259e-320
-5.11259e-320
-5.11259e-320
-5.11259e-320
-5.11259e-320
-5.11259e-320
-5.11259e-320
-5.11259e-320
-5.11259e-320
-5.1116e-320
-5.1116e-320
-5.11062e-320
-5.11062e-320
-5.11062e-320
-5.11062e-320
-5.11062e-320
-5.11062e-320
-5.10963e-320
-5.10864e-320
-5.10864e-320
-5.10864e-320
-5.10765e-320
-5.10666e-320
-5.10666e-320
-5.10666e-320
-5.10469e-320
-5.10469e-320
-5.1037e-320
-1.02054e-319
-1.02025e-319
-1.01995e-319
-9.77536e-314
-2.38335e-296
-8.40177e-280
-4.06465e-264
-1.17198e-248
-1.3509e-233
-1.78944e-209
-2.36842e-195
-3.58248e-181
-5.32723e-168
-1.04395e-155
-1.93231e-143
-3.56081e-131
-5.60537e-119
-2.46472e-107
-3.11693e-96
-9.08262e-86
-3.92705e-76
-1.63556e-67
-7.77637e-60
-1.64317e-48
-1.131e-37
-1.25698e-31
-1.46205e-26
-4.98832e-23
-2.06456e-20
-1.26366e-19
-4.39977e-19
-1.15601e-18
-2.55772e-18
-5.01923e-18
-4.46516e-18
-5.52187e-11
7.22122e-10
1.37486e-09
-2.16759e-08
7.78518e-09
2.08196e-08
6.07629e-08
1.81273e-07
1.62468e-07
1.06138e-07
1.29807e-06
4.34623e-08
2.38469e-08
1.20292e-08
4.61634e-09
1.13763e-06
2.59347e-06
4.00474e-06
6.31537e-06
1.67827e-06
5.86167e-06
6.58946e-06
6.56706e-06
2.09337e-06
6.63917e-06
8.30403e-06
8.3159e-06
8.30402e-06
2.91239e-06
3.31792e-06
1.13557e-05
1.13784e-05
1.13595e-05
6.88792e-06
1.61683e-07
0.00588175
0.0336954
0.03263
0.0115542
0.000122609
0.00265394
0.521384
0.913835
0.812051
0.212905
0.00116293
0.000919067
0.00733283
0.0113343
0.0115043
0.0731853
0.629787
0.701163
0.700882
0.531223
0.076527
0.0571442
0.05715
0.0576992
0.0545028
0.0373266
0.0336792
-5.12346e-320
-5.12346e-320
-5.12346e-320
-5.12346e-320
-5.12346e-320
-5.12346e-320
-5.12346e-320
-5.12346e-320
-5.12247e-320
-5.12247e-320
-5.12247e-320
-5.12247e-320
-5.12247e-320
-5.12247e-320
-5.12247e-320
-5.12247e-320
-5.12247e-320
-5.12247e-320
5.12247e-320
5.12247e-320
5.12247e-320
5.12247e-320
5.12247e-320
-5.12247e-320
5.12247e-320
5.12247e-320
-5.12247e-320
-5.12247e-320
-5.12247e-320
-5.12148e-320
-5.12148e-320
-5.12148e-320
-5.12148e-320
-5.12148e-320
-5.12148e-320
-5.1205e-320
-5.1205e-320
-5.1205e-320
-5.1205e-320
-5.1205e-320
-5.1205e-320
-5.1205e-320
-5.1205e-320
-5.1205e-320
-5.1205e-320
-5.1205e-320
-5.1205e-320
-5.1205e-320
-5.1205e-320
-5.1205e-320
-5.1205e-320
-5.1205e-320
-5.1205e-320
-5.1205e-320
-5.1205e-320
-5.11951e-320
-5.11951e-320
-5.11951e-320
-5.11951e-320
-5.11951e-320
-5.11951e-320
-5.11852e-320
-5.11852e-320
-5.11852e-320
-5.11852e-320
-5.11852e-320
-5.11852e-320
-5.11852e-320
-5.11852e-320
-5.11852e-320
-5.11852e-320
-5.11852e-320
-5.11852e-320
-5.11852e-320
-5.11852e-320
-5.11852e-320
-5.11852e-320
-5.11852e-320
-5.11852e-320
-5.11753e-320
-5.11753e-320
-5.11753e-320
-5.11753e-320
-5.11753e-320
-5.11753e-320
-5.11654e-320
-5.11654e-320
-5.11654e-320
-5.11654e-320
-5.11654e-320
-5.11654e-320
-5.11654e-320
-5.11654e-320
-5.11654e-320
-5.11654e-320
-5.11654e-320
-5.11654e-320
-5.11654e-320
-5.11654e-320
-5.11654e-320
-5.11654e-320
-5.11654e-320
-5.11556e-320
-5.11556e-320
-5.11556e-320
-5.11556e-320
-5.11556e-320
-5.11457e-320
-5.11457e-320
-5.11457e-320
-5.11457e-320
-5.11457e-320
-5.11457e-320
-5.11457e-320
-5.11457e-320
-5.11457e-320
-5.11457e-320
-5.11457e-320
-5.11457e-320
-5.11457e-320
-5.11457e-320
-5.11358e-320
-5.11358e-320
-5.11358e-320
-5.11358e-320
-5.11259e-320
-5.11259e-320
-5.11259e-320
-5.11259e-320
-5.11259e-320
-5.11259e-320
-5.11259e-320
-5.11259e-320
-5.1116e-320
-5.1116e-320
-5.11062e-320
-5.11062e-320
-5.11062e-320
-5.11062e-320
-5.11062e-320
-5.10963e-320
-5.10864e-320
-5.10864e-320
-5.10864e-320
-5.10864e-320
-5.10666e-320
-5.10666e-320
-5.10666e-320
-5.10469e-320
-5.10469e-320
-5.10271e-320
-5.10271e-320
-5.10073e-320
-1.01995e-319
-1.01975e-319
-1.01936e-319
-3.36721e-315
-8.77179e-298
-3.29486e-281
-1.69347e-265
-5.17161e-250
-6.29333e-235
-8.77197e-211
-1.2176e-196
-1.92502e-182
-2.98202e-169
-6.06783e-157
-1.16256e-144
-2.21102e-132
-3.5824e-120
-1.61732e-108
-2.09552e-97
-6.2451e-87
-2.75783e-77
-1.17206e-68
-5.68418e-61
-1.22533e-49
-8.61069e-39
-9.78388e-33
-1.1659e-27
-4.08813e-24
-1.74099e-21
-1.299e-20
-5.43226e-20
-1.68612e-19
-4.33839e-19
-9.77307e-19
-1.48707e-18
-1.58998e-11
2.63525e-11
3.79216e-11
5.13337e-10
4.49383e-10
-1.04892e-09
2.58884e-09
6.57079e-09
7.28996e-09
7.53629e-10
7.18392e-10
1.85849e-09
2.31659e-09
2.26491e-09
5.02395e-10
3.46229e-10
4.37428e-10
5.46447e-10
6.2613e-10
2.13539e-08
1.01238e-07
1.75127e-07
2.9706e-07
3.2019e-07
3.57567e-07
3.71e-07
3.76598e-07
4.23212e-07
4.39754e-07
4.82571e-07
5.84604e-07
7.35025e-07
1.77677e-06
1.18603e-06
6.22776e-09
2.68482e-08
3.25403e-06
2.32839e-06
1.5489e-06
7.65537e-07
1.5697e-07
0.0101967
0.0518751
0.0613935
0.0615513
0.0176754
6.07084e-06
0.00420875
0.0231299
0.0231406
0.0153644
0.00358958
0.158822
0.682066
0.706096
0.706033
0.655285
0.166616
0.045411
0.0447957
0.0305303
0.0178125
-5.12346e-320
-5.12346e-320
-5.12346e-320
-5.12346e-320
-5.12346e-320
-5.12346e-320
-5.12346e-320
-5.12346e-320
-5.12247e-320
-5.12247e-320
-5.12247e-320
-5.12247e-320
-5.12247e-320
-5.12247e-320
-5.12247e-320
-5.12247e-320
-5.12247e-320
-5.12247e-320
-5.12247e-320
5.12247e-320
5.12247e-320
5.12247e-320
5.12247e-320
-5.12247e-320
5.12247e-320
5.12247e-320
-5.12247e-320
-5.12247e-320
-5.12247e-320
-5.12148e-320
-5.12148e-320
-5.12148e-320
-5.12148e-320
-5.12148e-320
-5.12148e-320
-5.12148e-320
-5.1205e-320
-5.1205e-320
-5.1205e-320
-5.1205e-320
-5.1205e-320
-5.1205e-320
-5.1205e-320
-5.1205e-320
-5.1205e-320
-5.1205e-320
-5.1205e-320
-5.1205e-320
-5.1205e-320
-5.1205e-320
-5.1205e-320
-5.1205e-320
-5.1205e-320
-5.1205e-320
-5.1205e-320
-5.1205e-320
-5.11951e-320
-5.11951e-320
-5.11951e-320
-5.11951e-320
-5.11951e-320
-5.11951e-320
-5.11852e-320
-5.11852e-320
-5.11852e-320
-5.11852e-320
-5.11852e-320
-5.11852e-320
-5.11852e-320
-5.11852e-320
-5.11852e-320
-5.11852e-320
-5.11852e-320
-5.11852e-320
-5.11852e-320
-5.11852e-320
-5.11852e-320
-5.11852e-320
-5.11852e-320
-5.11852e-320
-5.11753e-320
-5.11753e-320
-5.11753e-320
-5.11753e-320
-5.11753e-320
-5.11753e-320
-5.11654e-320
-5.11654e-320
-5.11654e-320
-5.11654e-320
-5.11654e-320
-5.11654e-320
-5.11654e-320
-5.11654e-320
-5.11654e-320
-5.11654e-320
-5.11654e-320
-5.11654e-320
-5.11654e-320
-5.11654e-320
-5.11654e-320
-5.11654e-320
-5.11654e-320
-5.11556e-320
-5.11556e-320
-5.11556e-320
-5.11556e-320
-5.11556e-320
-5.11457e-320
-5.11457e-320
-5.11457e-320
-5.11457e-320
-5.11457e-320
-5.11457e-320
-5.11457e-320
-5.11457e-320
-5.11457e-320
-5.11457e-320
-5.11457e-320
-5.11457e-320
-5.11457e-320
-5.11457e-320
-5.11358e-320
-5.11358e-320
-5.11358e-320
-5.11259e-320
-5.11259e-320
-5.11259e-320
-5.11259e-320
-5.11259e-320
-5.11259e-320
-5.11259e-320
-5.11259e-320
-5.1116e-320
-5.1116e-320
-5.11062e-320
-5.11062e-320
-5.11062e-320
-5.11062e-320
-5.10963e-320
-5.10864e-320
-5.10864e-320
-5.10864e-320
-5.10765e-320
-5.10666e-320
-5.10666e-320
-5.10567e-320
-5.10469e-320
-5.10469e-320
-5.10271e-320
-5.10271e-320
-5.10073e-320
-5.09876e-320
-1.01955e-319
-1.01926e-319
-1.01896e-319
-1.05617e-316
-2.93421e-299
-1.17221e-282
-6.38826e-267
-2.06197e-251
-2.6434e-236
-3.86856e-212
-5.61903e-198
-9.26467e-184
-1.49179e-170
-3.14512e-158
-6.22438e-146
-1.2193e-133
-2.02952e-121
-9.39095e-110
-1.2446e-98
-3.78791e-88
-1.70615e-78
-7.38999e-70
-3.65145e-62
-8.0207e-51
-5.74682e-40
-6.66494e-34
-8.11925e-29
-2.91689e-25
-1.27294e-22
-1.12718e-21
-5.52359e-21
-1.98149e-20
-5.81552e-20
-1.47746e-19
-2.86073e-19
-1.26364e-21
2.33863e-13
1.18745e-12
1.29966e-11
2.65069e-11
2.52974e-11
-7.84449e-11
1.88666e-10
2.2731e-10
1.90945e-10
-5.72327e-11
-9.73093e-12
5.6431e-11
2.00047e-10
2.14921e-10
2.84494e-11
2.42926e-11
2.81365e-11
3.02671e-11
2.58686e-11
9.59035e-12
3.21094e-12
-1.08387e-12
5.84433e-12
3.81741e-12
-1.44134e-12
-2.86226e-12
-1.1751e-11
7.95666e-12
3.70251e-11
8.64991e-11
1.02249e-10
3.24702e-10
-2.00928e-09
-1.64928e-09
9.19102e-09
9.62298e-08
9.76381e-08
3.12203e-07
5.47831e-08
2.12192e-08
1.05736e-07
7.08173e-06
6.56963e-06
6.70181e-06
6.05115e-06
6.08976e-06
8.28123e-06
3.869e-06
0.0136988
0.0156129
0.00334372
0.00500444
0.0804053
0.0959222
0.044845
0.0456853
0.258788
0.294798
0.294798
0.294798
0.108986
-5.12346e-320
-5.12346e-320
-5.12346e-320
-5.12346e-320
-5.12346e-320
-5.12346e-320
-5.12346e-320
-5.12346e-320
-5.12346e-320
-5.12247e-320
-5.12247e-320
-5.12247e-320
-5.12247e-320
-5.12247e-320
-5.12247e-320
-5.12247e-320
-5.12247e-320
-5.12247e-320
-5.12247e-320
5.12247e-320
5.12247e-320
5.12247e-320
5.12247e-320
-5.12247e-320
5.12247e-320
5.12247e-320
-5.12247e-320
-5.12247e-320
-5.12247e-320
-5.12247e-320
-5.12247e-320
-5.12247e-320
-5.12148e-320
-5.12148e-320
-5.12148e-320
-5.12148e-320
-5.12148e-320
-5.12148e-320
-5.1205e-320
-5.1205e-320
-5.1205e-320
-5.1205e-320
-5.1205e-320
-5.1205e-320
-5.1205e-320
-5.1205e-320
-5.1205e-320
-5.1205e-320
-5.1205e-320
-5.1205e-320
-5.1205e-320
-5.1205e-320
-5.1205e-320
-5.1205e-320
-5.1205e-320
-5.1205e-320
-5.1205e-320
-5.1205e-320
-5.11951e-320
-5.11951e-320
-5.11951e-320
-5.11951e-320
-5.11951e-320
-5.11951e-320
-5.11852e-320
-5.11852e-320
-5.11852e-320
-5.11852e-320
-5.11852e-320
-5.11852e-320
-5.11852e-320
-5.11852e-320
-5.11852e-320
-5.11852e-320
-5.11852e-320
-5.11852e-320
-5.11852e-320
-5.11852e-320
-5.11852e-320
-5.11852e-320
-5.11852e-320
-5.11852e-320
-5.11753e-320
-5.11753e-320
-5.11753e-320
-5.11753e-320
-5.11753e-320
-5.11753e-320
-5.11654e-320
-5.11654e-320
-5.11654e-320
-5.11654e-320
-5.11654e-320
-5.11654e-320
-5.11654e-320
-5.11654e-320
-5.11654e-320
-5.11654e-320
-5.11654e-320
-5.11654e-320
-5.11654e-320
-5.11654e-320
-5.11654e-320
-5.11654e-320
-5.11654e-320
-5.11556e-320
-5.11556e-320
-5.11556e-320
-5.11556e-320
-5.11556e-320
-5.11457e-320
-5.11457e-320
-5.11457e-320
-5.11457e-320
-5.11457e-320
-5.11457e-320
-5.11457e-320
-5.11457e-320
-5.11457e-320
-5.11457e-320
-5.11457e-320
-5.11457e-320
-5.11457e-320
-5.11358e-320
-5.11358e-320
-5.11358e-320
-5.11259e-320
-5.11259e-320
-5.11259e-320
-5.11259e-320
-5.11259e-320
-5.11259e-320
-5.11259e-320
-5.1116e-320
-5.1116e-320
-5.11062e-320
-5.11062e-320
-5.11062e-320
-5.11062e-320
-5.10963e-320
-5.10864e-320
-5.10864e-320
-5.10864e-320
-5.10765e-320
-5.10666e-320
-5.10666e-320
-5.10469e-320
-5.10469e-320
-5.10271e-320
-5.10271e-320
-5.10073e-320
-5.09975e-320
-5.09876e-320
-1.01936e-319
-1.01896e-319
-1.01857e-319
-2.90166e-318
-8.47013e-301
-3.59478e-284
-2.07465e-268
-7.06838e-253
-9.53284e-238
-1.46271e-213
-2.21993e-199
-3.81161e-185
-6.37014e-172
-1.38949e-159
-2.83641e-147
-5.71488e-135
-9.75886e-123
-4.62203e-111
-6.2578e-100
-1.94252e-89
-8.91321e-80
-3.9298e-71
-1.97582e-63
-4.41655e-52
-3.22184e-41
-3.80768e-35
-4.73281e-30
-1.73794e-26
-7.75058e-24
-7.99226e-23
-4.51252e-22
-1.84374e-21
-6.09491e-21
-1.72664e-20
-3.93878e-20
-6.17577e-22
2.19806e-14
6.00528e-14
3.08977e-13
9.71043e-13
1.39154e-12
2.10341e-12
4.33627e-12
5.14052e-12
4.86177e-12
4.70249e-12
2.7377e-12
1.24386e-11
2.90499e-11
4.96969e-11
5.19727e-11
4.80536e-11
3.96535e-11
2.78543e-11
2.45924e-11
1.20045e-11
9.24414e-12
9.55938e-12
1.00682e-11
1.05299e-11
1.06347e-11
1.06034e-11
1.01704e-11
9.43621e-12
8.71042e-12
6.15733e-12
3.74266e-12
8.42925e-13
-8.6735e-12
1.0298e-11
-1.69837e-09
2.25577e-09
-6.09542e-10
-2.53811e-09
7.85514e-10
1.18191e-09
1.39912e-08
3.15901e-07
2.3676e-06
1.04936e-05
1.16064e-05
1.14772e-05
8.80519e-06
8.60909e-07
5.3268e-05
0.000410773
0.000877622
0.000360371
1.82672e-05
1.63015e-05
0.000144765
9.77308e-06
1.02934e-05
0.00287522
0.0114118
0.0179473
0.0135495
-5.12346e-320
-5.12346e-320
-5.12346e-320
-5.12346e-320
-5.12346e-320
-5.12346e-320
-5.12346e-320
-5.12346e-320
-5.12346e-320
-5.12247e-320