/*--------------------------------*- C++ -*----------------------------------*\
| =========                 |                                                 |
| \\      /  F ield         | OpenFOAM: The Open Source CFD Toolbox           |
|  \\    /   O peration     | Version:  2406                                  |
|   \\  /    A nd           | Website:  www.openfoam.com                      |
|    \\/     M anipulation  |                                                 |
\*---------------------------------------------------------------------------*/
FoamFile
{
    version     2.0;
    format      ascii;
    arch        "LSB;label=32;scalar=64";
    class       surfaceScalarField;
    location    "0.3";
    object      alphaPhi0.air;
}
// * * * * * * * * * * * * * * * * * * * * * * * * * * * * * * * * * * * * * //

dimensions      [0 3 -1 0 0 0 0];

oriented        oriented;

internalField   nonuniform List<scalar> 
12225
(
0.351965
2.32852e-07
0.35196
4.79361e-06
0.351953
6.80706e-06
0.351948
4.70519e-06
0.351944
4.10465e-06
0.35194
4.2115e-06
0.351935
5.20442e-06
0.351928
6.31437e-06
0.351921
7.34548e-06
0.351914
6.92712e-06
0.351907
6.75094e-06
0.351901
6.86084e-06
0.351894
6.54109e-06
0.351889
5.39684e-06
0.351885
3.95931e-06
0.351881
3.38413e-06
0.351877
3.83728e-06
0.351873
4.20869e-06
0.351869
4.12598e-06
0.351865
4.61827e-06
0.351859
5.50926e-06
0.351853
6.31273e-06
0.351846
7.11644e-06
0.351838
7.68988e-06
0.351831
7.05177e-06
0.351825
6.05781e-06
0.351819
5.99648e-06
0.351813
6.12157e-06
0.351807
5.53034e-06
0.351802
5.07111e-06
0.351796
5.70203e-06
0.351789
6.86685e-06
0.351782
7.27316e-06
0.351776
6.46291e-06
0.35177
5.35485e-06
0.351766
4.4401e-06
0.351762
3.59831e-06
0.351759
2.97473e-06
0.351757
2.81235e-06
0.351753
3.06984e-06
0.35175
3.43222e-06
0.351746
3.59665e-06
0.351743
3.38982e-06
0.35174
2.94517e-06
0.351738
2.34107e-06
0.351736
1.51115e-06
0.351736
6.25723e-07
0.351735
2.33108e-07
0.351735
6.89171e-07
0.351733
1.41199e-06
0.351732
1.69129e-06
0.35173
1.49687e-06
0.351729
1.10779e-06
0.351728
5.61188e-07
0.351728
-1.84869e-08
0.351729
-1.18472e-07
0.351728
6.09158e-07
0.351727
1.39372e-06
0.351725
1.43336e-06
0.351724
8.90756e-07
0.351724
4.01839e-07
0.351724
5.27972e-08
0.351724
-4.09837e-07
0.351725
-9.01516e-07
0.351726
-6.22747e-07
0.351725
5.08508e-07
0.351724
1.54669e-06
0.351722
1.41609e-06
0.351722
5.29846e-07
0.351722
-6.73644e-07
0.351724
-1.37017e-06
0.351725
-1.51833e-06
0.351727
-1.33523e-06
0.351728
-1.01167e-06
0.351728
-6.98504e-07
0.351729
-4.6499e-07
0.351729
-3.50095e-07
0.35173
-3.69688e-07
0.35173
-4.7512e-07
0.351731
-5.73898e-07
0.351731
-6.48139e-07
0.351732
-7.7767e-07
0.351733
-9.85219e-07
0.351734
-1.11125e-06
0.351735
-9.85111e-07
0.351736
-6.86097e-07
0.351736
-5.14773e-07
0.351737
-6.34878e-07
0.351738
-9.08659e-07
0.351739
-1.09639e-06
0.35174
-1.15246e-06
0.351741
-1.23962e-06
0.351743
-1.45238e-06
0.351744
-1.69476e-06
0.351746
-1.83823e-06
0.351748
-1.87788e-06
0.35175
-1.88266e-06
0.351752
-1.86864e-06
0.351754
-1.78912e-06
0.351755
-1.61981e-06
0.351757
-1.39598e-06
0.351758
-1.15653e-06
0.351759
-9.04089e-07
0.351759
-6.48806e-07
0.35176
-4.75643e-07
0.35176
-4.28856e-07
0.351761
-4.47765e-07
0.351761
-3.71308e-07
0.351761
-1.56529e-07
0.351761
1.20306e-07
0.351761
1.82753e-07
0.351761
-5.30153e-08
0.351761
-4.01367e-07
0.351762
-5.82005e-07
0.351763
-4.69101e-07
0.351763
-1.86404e-07
0.351763
1.65896e-08
0.351763
2.59976e-08
0.351763
-1.17093e-07
0.351763
-2.58356e-07
0.351763
-3.30415e-07
0.351764
-2.95643e-07
0.351764
-1.40559e-07
0.351764
7.60953e-08
0.351764
2.02174e-07
0.351763
1.4359e-07
0.351763
-4.33866e-08
0.351764
-1.96183e-07
0.351764
-2.06552e-07
0.351764
-1.12501e-07
0.351764
-6.69242e-08
0.351764
-1.73023e-07
0.351765
-3.6555e-07
0.351765
-4.78518e-07
0.351765
-4.1479e-07
0.351766
-2.46786e-07
0.351766
-1.38341e-07
0.351766
-1.48112e-07
0.351766
-2.1033e-07
0.351766
-2.37251e-07
0.351767
-1.84986e-07
0.351767
-4.53925e-08
0.351767
1.76049e-07
0.351766
4.40574e-07
0.351765
6.94818e-07
0.351765
8.41259e-07
0.351764
7.79235e-07
0.351763
5.18999e-07
0.351763
2.29678e-07
0.351763
5.79544e-08
0.351763
9.83223e-08
0.351762
4.18887e-07
0.351762
8.19107e-07
0.351761
1.0939e-06
0.351759
1.09638e-06
0.351759
8.3525e-07
0.351758
4.38856e-07
0.351758
1.04082e-07
0.351758
-2.17444e-08
0.351758
1.40918e-07
0.351757
4.62487e-07
0.351757
7.56819e-07
0.351756
8.83903e-07
0.351755
8.3686e-07
0.351754
6.77158e-07
0.351754
4.39582e-07
0.351754
2.04573e-07
0.351754
-1.22549e-07
0.351754
-3.5536e-07
0.351754
-2.9712e-07
0.351754
1.16605e-07
0.351754
6.18219e-07
0.351753
8.87659e-07
0.351752
7.85388e-07
0.351752
4.25391e-07
0.351752
6.20654e-08
0.351752
-1.16125e-07
0.351752
-1.14799e-07
0.351752
-6.34685e-08
0.351752
-1.55462e-08
0.351752
8.52554e-08
0.351751
2.85315e-07
0.351751
5.17264e-07
0.35175
6.62297e-07
0.35175
6.28711e-07
0.351749
4.14862e-07
0.351749
1.15654e-07
0.351749
-1.85349e-07
0.35175
-3.46365e-07
0.35175
-3.44896e-07
0.35175
-2.20028e-07
0.35175
-5.15506e-08
0.35175
9.17296e-08
0.35175
1.87984e-07
0.35175
2.48162e-07
0.351749
2.60756e-07
0.351749
1.91394e-07
0.351749
4.94057e-08
0.351749
-1.3537e-07
0.35175
-2.74948e-07
0.35175
-3.21338e-07
0.35175
-2.81512e-07
0.35175
-2.02498e-07
0.351751
-1.20113e-07
0.351751
-3.04518e-08
0.351751
5.56677e-08
0.35175
1.13663e-07
0.35175
9.52007e-08
0.35175
-2.5328e-08
0.351751
-2.162e-07
0.351751
-4.31069e-07
0.351752
-6.3682e-07
0.351752
-8.21809e-07
0.351753
-9.73458e-07
0.351754
-1.04201e-06
0.351755
-9.69259e-07
0.351756
-7.69596e-07
0.351757
-5.53055e-07
0.351757
-4.39384e-07
0.351758
-4.55242e-07
0.351758
-5.39141e-07
0.351759
-6.32493e-07
0.35176
-7.27872e-07
0.35176
-8.33139e-07
0.351761
-9.07339e-07
0.351762
-8.67438e-07
0.351763
-6.61759e-07
0.351763
-3.27963e-07
0.351763
1.47136e-08
0.351763
2.5637e-07
0.351763
3.7495e-07
0.351762
4.42222e-07
0.351762
5.24054e-07
0.351761
6.19608e-07
0.35176
6.72623e-07
0.35176
6.30157e-07
0.351759
4.88185e-07
0.351759
2.94343e-07
0.351759
1.1461e-07
0.351759
7.80623e-09
0.351759
-4.52486e-08
0.351759
-1.31348e-07
0.351759
-2.2711e-07
0.351759
-3.21453e-07
0.35176
-3.69016e-07
0.35176
-3.38985e-07
0.35176
-2.6693e-07
0.351761
-1.70477e-07
0.351761
-2.07467e-07
-1.05383e-07
0.351965
1.20276e-06
0.351968
1.48291e-06
0.351973
1.77732e-06
0.351975
2.57305e-06
0.351977
3.03668e-06
0.351979
1.95311e-06
0.351982
2.39028e-06
0.351986
2.12665e-06
0.351991
1.92409e-06
0.351996
2.37681e-06
0.352
2.22873e-06
0.352005
1.85926e-06
0.35201
2.25902e-06
0.352012
2.88819e-06
0.352013
3.24353e-06
0.352013
2.87203e-06
0.352015
2.44628e-06
0.352016
2.71812e-06
0.352018
2.74415e-06
0.35202
1.94037e-06
0.352025
1.10157e-06
0.35203
5.17093e-07
0.352037
2.76204e-07
0.352044
8.7363e-07
0.352049
1.97776e-06
0.352053
2.69554e-06
0.352055
3.12956e-06
0.352058
3.85517e-06
0.352059
4.37942e-06
0.35206
3.72513e-06
0.352064
2.37461e-06
0.352069
1.48732e-06
0.352075
1.48874e-06
0.352079
2.05709e-06
0.352082
2.60439e-06
0.352083
2.99175e-06
0.352084
3.31629e-06
0.352083
3.46175e-06
0.352083
3.25796e-06
0.352083
2.7501e-06
0.352084
2.28616e-06
0.352086
2.11216e-06
0.352087
2.21475e-06
0.352087
2.52541e-06
0.352087
2.9728e-06
0.352085
3.18383e-06
0.352083
2.70994e-06
0.352081
1.73125e-06
0.352081
1.05488e-06
0.352081
9.58376e-07
0.352082
1.38258e-06
0.352081
2.1357e-06
0.352079
3.08393e-06
0.352076
3.6938e-06
0.352073
3.33619e-06
0.35207
2.21555e-06
0.352069
1.39479e-06
0.352069
1.45976e-06
0.352069
1.95724e-06
0.352068
2.23715e-06
0.352066
2.46222e-06
0.352063
3.03447e-06
0.352059
3.60225e-06
0.352054
3.32834e-06
0.352051
2.19228e-06
0.352051
1.18221e-06
0.352051
1.06933e-06
0.352051
1.67918e-06
0.352049
2.22735e-06
0.352046
2.2786e-06
0.352043
1.96921e-06
0.35204
1.49754e-06
0.352038
1.07915e-06
0.352036
8.75775e-07
0.352034
8.60518e-07
0.352033
8.69109e-07
0.352032
8.05177e-07
0.352031
7.71876e-07
0.352029
9.30689e-07
0.352027
1.28804e-06
0.352025
1.66635e-06
0.352022
1.83568e-06
0.35202
1.69282e-06
0.352017
1.36991e-06
0.352015
1.13895e-06
0.352013
1.12199e-06
0.352012
1.11027e-06
0.35201
8.05115e-07
0.352009
1.67188e-07
0.352008
-4.65571e-07
0.352008
-7.57099e-07
0.352008
-8.0181e-07
0.352007
-9.06907e-07
0.352007
-1.16998e-06
0.352006
-1.38595e-06
0.352006
-1.33391e-06
0.352005
-1.03874e-06
0.352004
-7.09376e-07
0.352002
-5.05227e-07
0.352001
-4.13651e-07
0.352
-3.76014e-07
0.351999
-3.66708e-07
0.351999
-3.76485e-07
0.351998
-3.56265e-07
0.351998
-2.92267e-07
0.351998
-2.22205e-07
0.351998
-2.0254e-07
0.351998
-2.44857e-07
0.351998
-2.73715e-07
0.351998
-1.87917e-07
0.351998
-3.17311e-08
0.351998
6.73202e-08
0.351998
4.8745e-08
0.351997
-2.10506e-08
0.351997
-1.00193e-08
0.351996
1.08203e-07
0.351996
1.73393e-07
0.351996
4.60573e-08
0.351996
-2.46307e-07
0.351997
-5.32971e-07
0.351997
-6.74669e-07
0.351997
-6.77938e-07
0.351998
-6.01074e-07
0.351998
-4.88927e-07
0.351999
-3.66789e-07
0.351999
-2.75318e-07
0.352
-2.72777e-07
0.352
-3.47835e-07
0.352
-3.97061e-07
0.352
-3.1934e-07
0.352
-1.32844e-07
0.352
2.34656e-08
0.352
3.08614e-08
0.351999
-6.80756e-08
0.351999
-1.28738e-07
0.351999
-2.13037e-08
0.351998
1.84829e-07
0.351998
3.3117e-07
0.351997
3.09758e-07
0.351997
1.56794e-07
0.351997
-1.22309e-08
0.351997
-8.33895e-08
0.351997
-5.31277e-08
0.351998
9.38387e-09
0.351998
1.82148e-08
0.351999
-5.44417e-08
0.352
-2.034e-07
0.352001
-3.17475e-07
0.352002
-3.85635e-07
0.352002
-3.94443e-07
0.352002
-3.57152e-07
0.352003
-2.74729e-07
0.352004
-1.45995e-07
0.352005
-1.53306e-08
0.352006
4.86415e-08
0.352007
3.69787e-08
0.352008
-1.09283e-07
0.352008
-3.32715e-07
0.352009
-4.94058e-07
0.352009
-4.39829e-07
0.35201
-1.12642e-07
0.35201
3.39293e-07
0.35201
6.5713e-07
0.35201
7.13092e-07
0.352011
5.6609e-07
0.352011
4.05116e-07
0.35201
3.53395e-07
0.35201
3.84693e-07
0.352009
4.35146e-07
0.352008
4.66444e-07
0.352008
5.81892e-07
0.352008
8.80464e-07
0.352007
1.2945e-06
0.352006
1.60847e-06
0.352005
1.63866e-06
0.352004
1.40563e-06
0.352003
1.11661e-06
0.352002
9.96738e-07
0.352
1.1179e-06
0.351999
1.39223e-06
0.351997
1.68003e-06
0.351996
1.91851e-06
0.351994
2.11068e-06
0.351992
2.27169e-06
0.351991
2.38769e-06
0.351989
2.4112e-06
0.351987
2.30435e-06
0.351984
2.0894e-06
0.351982
1.86631e-06
0.35198
1.73484e-06
0.351978
1.75098e-06
0.351976
1.87566e-06
0.351974
1.99965e-06
0.351972
2.02239e-06
0.351971
1.91607e-06
0.351969
1.72978e-06
0.351968
1.52657e-06
0.351967
1.33178e-06
0.351965
1.13169e-06
0.351964
9.11493e-07
0.351963
6.73435e-07
0.351962
4.51688e-07
0.351962
2.46183e-07
0.351962
4.74478e-10
0.351962
-3.01701e-07
0.351963
-6.30141e-07
0.351964
-9.38186e-07
0.351965
-1.20161e-06
0.351967
-1.45219e-06
0.351968
-1.73837e-06
0.35197
-2.04169e-06
0.351971
-2.28991e-06
0.351973
-2.44639e-06
0.351975
-2.53498e-06
0.351976
-2.5907e-06
0.351978
-2.60852e-06
0.351979
-2.56324e-06
0.351981
-2.46998e-06
0.351983
-2.39547e-06
0.351985
-2.39667e-06
0.351987
-2.46218e-06
0.351989
-2.52372e-06
0.351991
-2.52466e-06
0.351993
-2.47187e-06
0.351994
-2.41241e-06
0.351996
-2.36753e-06
0.351997
-2.29911e-06
0.351999
-2.1482e-06
0.352001
-1.89999e-06
0.352003
-1.60902e-06
0.352005
-1.36152e-06
0.352006
-1.20482e-06
0.352008
-1.11902e-06
0.35201
-1.04821e-06
0.352011
-9.55384e-07
0.352013
-8.48824e-07
0.352014
-7.62915e-07
0.352015
-7.17555e-07
0.352016
-6.91164e-07
0.352016
-6.40982e-07
0.352017
-5.3093e-07
0.352017
-3.53219e-07
0.352017
-1.22348e-07
0.352017
1.19758e-07
0.352016
3.29578e-07
0.352015
5.3075e-07
0.352014
7.43838e-07
0.352013
9.6579e-07
0.352011
1.1918e-06
1.4253e-06
0.351967
9.53572e-07
0.351967
1.78327e-06
0.351966
2.13853e-06
0.351967
2.04964e-06
0.351968
2.22866e-06
0.351968
1.85314e-06
0.351968
1.70977e-06
0.351969
1.72823e-06
0.351969
1.73281e-06
0.35197
1.75508e-06
0.35197
2.21682e-06
0.351969
2.95397e-06
0.351967
3.50029e-06
0.351967
3.14583e-06
0.351968
2.72388e-06
0.351968
2.63071e-06
0.351968
2.16435e-06
0.351969
1.99411e-06
0.351969
2.69427e-06
0.351967
3.68377e-06
0.351964
4.07898e-06
0.351961
3.78671e-06
0.351958
2.85369e-06
0.351957
2.27129e-06
0.351957
2.24537e-06
0.351958
1.75167e-06
0.35196
1.04511e-06
0.351963
7.131e-07
0.351966
1.1343e-06
0.351968
1.80975e-06
0.351969
1.73638e-06
0.351969
1.25812e-06
0.351969
1.10607e-06
0.35197
1.15898e-06
0.351972
1.11584e-06
0.351974
1.02193e-06
0.351976
9.37992e-07
0.351978
1.03377e-06
0.35198
1.38461e-06
0.351981
1.63674e-06
0.351982
1.61031e-06
0.351982
1.70248e-06
0.351983
2.01573e-06
0.351983
2.18506e-06
0.351984
2.25726e-06
0.351984
2.60447e-06
0.351984
3.13263e-06
0.351982
3.27511e-06
0.35198
2.87693e-06
0.351979
2.25743e-06
0.351979
1.61786e-06
0.35198
9.85666e-07
0.351983
6.28998e-07
0.351985
8.88519e-07
0.351987
1.64331e-06
0.351987
1.99977e-06
0.351987
1.75853e-06
0.351987
1.44009e-06
0.351988
1.36746e-06
0.351989
1.1756e-06
0.35199
6.82725e-07
0.351993
4.0232e-07
0.351996
9.6105e-07
0.351997
1.97209e-06
0.351997
2.41068e-06
0.351996
1.96196e-06
0.351996
1.28259e-06
0.351996
1.05443e-06
0.351997
1.31482e-06
0.351998
1.66675e-06
0.351998
1.76087e-06
0.351998
1.52734e-06
0.351998
1.08445e-06
0.351998
6.19615e-07
0.351999
2.1909e-07
0.352
-1.65472e-07
0.352001
-5.69495e-07
0.352003
-9.15616e-07
0.352005
-1.07179e-06
0.352007
-1.01742e-06
0.35201
-8.33314e-07
0.352012
-5.81192e-07
0.352014
-3.13453e-07
0.352016
-7.88554e-08
0.352017
1.33703e-07
0.352017
4.28857e-07
0.352018
8.85332e-07
0.352017
1.38809e-06
0.352016
1.71797e-06
0.352013
1.81722e-06
0.352011
1.83305e-06
0.352008
1.86515e-06
0.352005
1.82384e-06
0.352003
1.58406e-06
0.352
1.19983e-06
0.351998
8.69416e-07
0.351996
7.03876e-07
0.351995
6.07824e-07
0.351994
4.36588e-07
0.351993
1.96039e-07
0.351993
-7.71206e-09
0.351993
-1.29825e-07
0.351992
-2.36241e-07
0.351992
-3.13809e-07
0.351992
-3.20018e-07
0.351992
-2.14832e-07
0.351992
-9.85949e-09
0.351992
1.18266e-07
0.351991
6.9072e-08
0.351991
-8.88542e-08
0.351992
-1.92417e-07
0.351992
-1.25054e-07
0.351992
7.66939e-08
0.351991
2.62039e-07
0.351991
3.32307e-07
0.351991
2.83726e-07
0.351991
1.24158e-07
0.351991
-1.37397e-07
0.351991
-4.37274e-07
0.351991
-6.43638e-07
0.351991
-6.56352e-07
0.351991
-5.13225e-07
0.351991
-3.58074e-07
0.351991
-3.14401e-07
0.351991
-3.77471e-07
0.351991
-4.53084e-07
0.351991
-4.75328e-07
0.351991
-4.54169e-07
0.351991
-4.316e-07
0.351991
-4.03038e-07
0.351992
-3.38564e-07
0.351992
-2.3609e-07
0.351992
-1.58201e-07
0.351992
-1.44192e-07
0.351992
-1.70633e-07
0.351992
-1.3622e-07
0.351992
4.29e-09
0.351993
2.0123e-07
0.351993
3.21652e-07
0.351992
2.83836e-07
0.351992
1.25094e-07
0.351992
-3.95455e-08
0.351992
-1.29079e-07
0.351993
-1.50767e-07
0.351993
-1.80696e-07
0.351993
-2.62981e-07
0.351993
-4.15345e-07
0.351993
-5.5775e-07
0.351994
-6.09356e-07
0.351994
-5.27466e-07
0.351994
-3.39042e-07
0.351994
-1.28489e-07
0.351993
6.62399e-09
0.351993
5.45241e-09
0.351994
-1.22897e-07
0.351994
-2.75766e-07
0.351994
-3.73539e-07
0.351994
-3.90496e-07
0.351994
-3.32716e-07
0.351994
-1.91749e-07
0.351994
6.82921e-08
0.351994
4.35582e-07
0.351993
7.94673e-07
0.351993
9.80903e-07
0.351993
9.0529e-07
0.351993
6.60065e-07
0.351992
4.66765e-07
0.351992
5.03876e-07
0.351992
7.74532e-07
0.351991
1.12945e-06
0.35199
1.42458e-06
0.35199
1.63266e-06
0.351989
1.81123e-06
0.351989
1.98554e-06
0.351988
2.09534e-06
0.351988
2.06857e-06
0.351987
1.93076e-06
0.351986
1.82279e-06
0.351985
1.90034e-06
0.351984
2.21514e-06
0.351983
2.68052e-06
0.351982
3.14208e-06
0.351981
3.46715e-06
0.35198
3.60036e-06
0.351978
3.56652e-06
0.351977
3.43239e-06
0.351976
3.25921e-06
0.351975
3.08403e-06
0.351974
2.93274e-06
0.351973
2.8367e-06
0.351972
2.83532e-06
0.351971
2.93955e-06
0.35197
3.08955e-06
0.351969
3.16601e-06
0.351968
3.06881e-06
0.351967
2.79215e-06
0.351966
2.42182e-06
0.351965
2.04435e-06
0.351964
1.66047e-06
0.351964
1.22925e-06
0.351964
7.37259e-07
0.351964
2.24225e-07
0.351965
-2.37608e-07
0.351965
-6.05517e-07
0.351966
-9.01588e-07
0.351967
-1.17651e-06
0.351967
-1.45766e-06
0.351968
-1.75641e-06
0.351968
-2.08476e-06
0.351969
-2.44265e-06
0.35197
-2.81983e-06
0.351971
-3.18334e-06
0.351972
-3.48023e-06
0.351973
-3.68641e-06
0.351974
-3.82569e-06
0.351975
-3.93329e-06
0.351977
-4.01286e-06
0.351978
-4.04167e-06
0.35198
-4.0095e-06
0.351982
-3.9458e-06
0.351983
-3.89776e-06
0.351984
-3.8765e-06
0.351986
-3.84227e-06
0.351987
-3.74774e-06
0.351988
-3.58954e-06
0.351989
-3.41004e-06
0.35199
-3.24759e-06
0.351991
-3.09373e-06
0.351992
-2.90406e-06
0.351993
-2.6491e-06
0.351994
-2.35211e-06
0.351995
-2.07603e-06
0.351996
-1.87273e-06
0.351996
-1.74432e-06
0.351997
-1.64802e-06
0.351998
-1.53346e-06
0.351998
-1.37711e-06
0.351999
-1.18872e-06
0.351999
-9.93986e-07
0.351999
-8.02916e-07
0.351999
-5.95959e-07
0.351999
-3.37745e-07
0.351999
-2.44928e-08
0.351999
3.36284e-07
0.351999
7.00325e-07
0.351998
1.04741e-06
0.351998
1.38334e-06
0.351997
1.70884e-06
0.351996
2.02793e-06
2.43545e-06
0.351965
-8.32784e-07
0.351967
-5.12316e-07
0.351968
7.65961e-07
0.351969
1.45679e-06
0.351969
2.37079e-06
0.351968
2.28185e-06
0.351969
1.64764e-06
0.351968
1.82609e-06
0.351968
2.28472e-06
0.351968
1.89232e-06
0.351969
1.43898e-06
0.351971
8.83386e-07
0.351973
8.86645e-07
0.351974
1.90983e-06
0.351975
2.61643e-06
0.351974
2.70264e-06
0.351974
2.31122e-06
0.351974
1.90409e-06
0.351976
1.61799e-06
0.351978
1.43948e-06
0.35198
1.54494e-06
0.351982
2.32065e-06
0.351982
2.85483e-06
0.351982
2.4134e-06
0.351981
2.45945e-06
0.35198
2.78169e-06
0.351979
2.16763e-06
0.351979
1.36579e-06
0.351979
1.11984e-06
0.351979
1.54166e-06
0.351978
2.14542e-06
0.351977
2.31334e-06
0.351976
2.15778e-06
0.351975
2.19839e-06
0.351974
2.27388e-06
0.351973
2.08795e-06
0.351972
1.87633e-06
0.351971
1.9211e-06
0.351971
2.13843e-06
0.35197
2.24182e-06
0.351969
2.16485e-06
0.351969
2.11918e-06
0.351969
2.06088e-06
0.351969
1.70237e-06
0.35197
1.14377e-06
0.351972
8.80518e-07
0.351974
1.17411e-06
0.351976
1.67435e-06
0.351977
2.07388e-06
0.351976
2.39632e-06
0.351975
2.60612e-06
0.351974
2.39573e-06
0.351973
1.73038e-06
0.351973
1.21019e-06
0.351973
1.34471e-06
0.351973
1.82817e-06
0.351973
2.11536e-06
0.351972
2.22272e-06
0.351971
2.505e-06
0.351969
2.82979e-06
0.351967
2.68223e-06
0.351966
1.98132e-06
0.351965
1.39746e-06
0.351966
1.43575e-06
0.351966
1.76472e-06
0.351966
1.84115e-06
0.351966
1.63017e-06
0.351966
1.46662e-06
0.351965
1.51666e-06
0.351965
1.67283e-06
0.351965
1.8276e-06
0.351965
1.99888e-06
0.351964
2.20119e-06
0.351962
2.39568e-06
0.35196
2.54914e-06
0.351957
2.66483e-06
0.351954
2.7833e-06
0.35195
2.89574e-06
0.351946
2.94947e-06
0.351942
2.84883e-06
0.351938
2.54512e-06
0.351936
2.13779e-06
0.351934
1.78082e-06
0.351932
1.47296e-06
0.351931
1.02382e-06
0.351931
2.96099e-07
0.351933
-5.72133e-07
0.351935
-1.2896e-06
0.351939
-1.73623e-06
0.351943
-2.06865e-06
0.351947
-2.39969e-06
0.351951
-2.69323e-06
0.351956
-2.86765e-06
0.351961
-2.92543e-06
0.351965
-2.91759e-06
0.351969
-2.84454e-06
0.351972
-2.66291e-06
0.351975
-2.36306e-06
0.351977
-2.00865e-06
0.351979
-1.68372e-06
0.351981
-1.40718e-06
0.351982
-1.17023e-06
0.351982
-9.99069e-07
0.351983
-9.11682e-07
0.351984
-8.83645e-07
0.351984
-8.33073e-07
0.351985
-6.96512e-07
0.351986
-5.39033e-07
0.351986
-4.9114e-07
0.351987
-6.16408e-07
0.351987
-8.09159e-07
0.351988
-8.71589e-07
0.351989
-7.11634e-07
0.35199
-4.44001e-07
0.35199
-2.81587e-07
0.351991
-3.44285e-07
0.351992
-5.90585e-07
0.351992
-8.84137e-07
0.351993
-1.0913e-06
0.351993
-1.11425e-06
0.351994
-9.14159e-07
0.351994
-5.56932e-07
0.351994
-2.06148e-07
0.351993
-5.00405e-08
0.351993
-1.17629e-07
0.351993
-2.84283e-07
0.351993
-3.81904e-07
0.351993
-3.23106e-07
0.351992
-1.88594e-07
0.351992
-1.1989e-07
0.351992
-1.66555e-07
0.351992
-2.68589e-07
0.351992
-3.2935e-07
0.351992
-2.99361e-07
0.351992
-2.1026e-07
0.351992
-1.09391e-07
0.351992
-9.24492e-09
0.351992
8.94964e-08
0.351993
1.62787e-07
0.351993
1.72921e-07
0.351993
1.03981e-07
0.351993
-1.65819e-08
0.351993
-1.44531e-07
0.351993
-2.47595e-07
0.351993
-3.29081e-07
0.351993
-4.08306e-07
0.351993
-4.99262e-07
0.351993
-5.73242e-07
0.351993
-5.81831e-07
0.351993
-4.88804e-07
0.351993
-2.9835e-07
0.351993
-7.28055e-08
0.351993
8.71536e-08
0.351993
8.80315e-08
0.351993
-1.04239e-07
0.351993
-3.82144e-07
0.351993
-5.77808e-07
0.351993
-5.5779e-07
0.351993
-3.11914e-07
0.351993
5.53175e-08
0.351993
4.11011e-07
0.351992
6.95166e-07
0.351992
9.03922e-07
0.351992
1.032e-06
0.351992
1.0455e-06
0.351992
9.36938e-07
0.351992
7.97469e-07
0.351991
7.94941e-07
0.351991
1.05257e-06
0.351991
1.53563e-06
0.35199
2.06185e-06
0.351989
2.438e-06
0.351988
2.59207e-06
0.351988
2.58774e-06
0.351987
2.53544e-06
0.351987
2.50725e-06
0.351986
2.52892e-06
0.351985
2.62555e-06
0.351985
2.84089e-06
0.351984
3.20319e-06
0.351983
3.68061e-06
0.351981
4.17633e-06
0.35198
4.56556e-06
0.351979
4.7496e-06
0.351978
4.69983e-06
0.351977
4.47028e-06
0.351976
4.17116e-06
0.351975
3.91669e-06
0.351974
3.77485e-06
0.351974
3.7508e-06
0.351973
3.81173e-06
0.351972
3.91657e-06
0.351971
4.01904e-06
0.35197
4.05552e-06
0.351969
3.95303e-06
0.351968
3.67305e-06
0.351967
3.23196e-06
0.351967
2.66927e-06
0.351966
2.03306e-06
0.351966
1.3554e-06
0.351966
6.4249e-07
0.351966
-6.31431e-08
0.351967
-6.71971e-07
0.351967
-1.11065e-06
0.351968
-1.39665e-06
0.351968
-1.61406e-06
0.351969
-1.85175e-06
0.351969
-2.15396e-06
0.35197
-2.52101e-06
0.35197
-2.94175e-06
0.351971
-3.40611e-06
0.351971
-3.89263e-06
0.351972
-4.35303e-06
0.351973
-4.72713e-06
0.351974
-4.98897e-06
0.351976
-5.16469e-06
0.351977
-5.29827e-06
0.351978
-5.40223e-06
0.35198
-5.44426e-06
0.351981
-5.3958e-06
0.351983
-5.28334e-06
0.351984
-5.16598e-06
0.351985
-5.0745e-06
0.351986
-4.98281e-06
0.351988
-4.83789e-06
0.351989
-4.61391e-06
0.35199
-4.33329e-06
0.351991
-4.04064e-06
0.351992
-3.76196e-06
0.351993
-3.49042e-06
0.351993
-3.20806e-06
0.351994
-2.91533e-06
0.351995
-2.63692e-06
0.351996
-2.40064e-06
0.351996
-2.21166e-06
0.351997
-2.04456e-06
0.351997
-1.85728e-06
0.351998
-1.61615e-06
0.351998
-1.31538e-06
0.351998
-9.72592e-07
0.351998
-6.10595e-07
0.351998
-2.34594e-07
0.351998
1.64569e-07
0.351998
5.97991e-07
0.351997
1.05699e-06
0.351997
1.52195e-06
0.351996
1.98125e-06
0.351995
2.42029e-06
0.351995
2.83183e-06
3.32922e-06
0.351965
5.19569e-08
0.351964
2.28011e-07
0.351965
5.92708e-07
0.351966
5.77539e-07
0.351967
9.17292e-07
0.351967
2.19551e-06
0.351966
2.21316e-06
0.351966
1.91054e-06
0.351967
1.64573e-06
0.351968
1.18127e-06
0.351968
1.16319e-06
0.351968
1.20056e-06
0.351968
9.92867e-07
0.351969
8.83167e-07
0.351971
7.23079e-07
0.351972
1.41566e-06
0.351972
2.40247e-06
0.351971
2.40936e-06
0.351971
1.84791e-06
0.351971
1.60109e-06
0.351971
1.43726e-06
0.351972
1.05487e-06
0.351974
8.96964e-07
0.351976
7.91862e-07
0.351977
7.73327e-07
0.351979
1.57916e-06
0.351978
2.54478e-06
0.351977
2.7343e-06
0.351976
2.44185e-06
0.351975
2.33152e-06
0.351975
2.36635e-06
0.351975
2.31583e-06
0.351974
2.25602e-06
0.351974
2.25603e-06
0.351974
2.21617e-06
0.351974
2.20298e-06
0.351974
2.18884e-06
0.351974
1.90389e-06
0.351975
1.43558e-06
0.351976
1.12021e-06
0.351977
9.49751e-07
0.351978
7.44254e-07
0.35198
6.44672e-07
0.351981
7.53645e-07
0.351981
7.76223e-07
0.351982
4.75905e-07
0.351983
2.37126e-07
0.351984
2.1454e-07
0.351986
3.00326e-07
0.351988
4.63594e-07
0.351989
9.66493e-07
0.35199
1.80281e-06
0.351989
2.43263e-06
0.351988
2.46421e-06
0.351987
2.16946e-06
0.351987
1.96514e-06
0.351987
1.73805e-06
0.351988
1.19837e-06
0.35199
5.94054e-07
0.351993
4.23565e-07
0.351995
7.63295e-07
0.351996
9.98165e-07
0.351996
7.2979e-07
0.351998
2.72993e-07
0.351999
5.19367e-09
0.352001
1.84689e-08
0.352003
1.43414e-07
0.352004
1.91983e-07
0.352005
1.12486e-07
0.352007
-8.80188e-08
0.352009
-2.97368e-07
0.352012
-3.88291e-07
0.352014
-3.49029e-07
0.352017
-2.42778e-07
0.352019
-8.02169e-08
0.352022
1.92845e-07
0.352024
7.39034e-07
0.352025
1.47058e-06
0.352026
2.22426e-06
0.352026
2.83776e-06
0.352025
3.21676e-06
0.352024
3.37525e-06
0.352023
3.40841e-06
0.352021
3.36682e-06
0.352018
3.14061e-06
0.352016
2.55704e-06
0.352014
1.62873e-06
0.352012
6.16878e-07
0.352011
-1.4545e-07
0.352009
-7.44612e-07
0.352008
-1.27732e-06
0.352007
-1.7925e-06
0.352007
-2.18017e-06
0.352006
-2.3238e-06
0.352005
-2.23826e-06
0.352004
-2.01771e-06
0.352003
-1.71307e-06
0.352002
-1.31932e-06
0.352001
-8.63481e-07
0.352
-4.27054e-07
0.351999
-7.43949e-08
0.351997
1.71964e-07
0.351996
3.3969e-07
0.351995
4.47766e-07
0.351993
4.73466e-07
0.351992
4.03013e-07
0.351991
2.59269e-07
0.35199
8.80385e-08
0.35199
-7.3715e-08
0.35199
-2.51274e-07
0.351989
-4.21326e-07
0.351989
-5.04141e-07
0.351989
-4.23914e-07
0.351988
-2.25747e-07
0.351988
-7.27445e-08
0.351988
-1.12001e-07
0.351988
-3.32259e-07
0.351987
-5.79835e-07
0.351987
-7.04151e-07
0.351987
-6.63095e-07
0.351986
-5.11773e-07
0.351986
-3.48145e-07
0.351986
-2.56707e-07
0.351986
-3.00009e-07
0.351987
-4.74292e-07
0.351987
-7.01967e-07
0.351987
-8.56812e-07
0.351988
-8.44159e-07
0.351989
-6.93751e-07
0.351989
-5.42727e-07
0.351989
-5.16088e-07
0.35199
-6.17897e-07
0.35199
-7.29432e-07
0.35199
-7.17349e-07
0.351991
-5.51604e-07
0.351991
-3.17764e-07
0.351991
-1.28136e-07
0.351991
-3.91695e-08
0.351991
-3.97622e-08
0.351992
-9.58615e-08
0.351992
-1.59917e-07
0.351992
-2.23697e-07
0.351992
-2.89361e-07
0.351992
-3.64785e-07
0.351993
-4.51143e-07
0.351993
-5.36508e-07
0.351993
-5.95086e-07
0.351993
-5.90362e-07
0.351993
-5.00494e-07
0.351993
-3.37012e-07
0.351992
-1.46784e-07
0.351992
9.05318e-09
0.351992
7.93164e-08
0.351992
2.49672e-08
0.351992
-1.55482e-07
0.351992
-4.0228e-07
0.351993
-5.91324e-07
0.351993
-5.81158e-07
0.351993
-3.12778e-07
0.351992
1.75443e-07
0.351992
6.68147e-07
0.351992
1.00295e-06
0.351992
1.12316e-06
0.351992
1.10135e-06
0.351992
1.05198e-06
0.351991
1.0459e-06
0.351991
1.10671e-06
0.351991
1.26112e-06
0.35199
1.55876e-06
0.35199
2.01885e-06
0.351989
2.56356e-06
0.351989
3.03038e-06
0.351988
3.27376e-06
0.351987
3.27114e-06
0.351987
3.13704e-06
0.351986
3.03935e-06
0.351986
3.09741e-06
0.351985
3.34168e-06
0.351984
3.73636e-06
0.351983
4.21778e-06
0.351982
4.71507e-06
0.351981
5.15558e-06
0.35198
5.46973e-06
0.351979
5.60272e-06
0.351978
5.53272e-06
0.351977
5.28952e-06
0.351977
4.95972e-06
0.351976
4.6638e-06
0.351975
4.50556e-06
0.351974
4.52184e-06
0.351974
4.66763e-06
0.351973
4.84555e-06
0.351972
4.96005e-06
0.351971
4.94897e-06
0.35197
4.77801e-06
0.351969
4.42241e-06
0.351969
3.86392e-06
0.351968
3.11975e-06
0.351968
2.25359e-06
0.351968
1.34984e-06
0.351968
4.9933e-07
0.351968
-2.35027e-07
0.351968
-8.35325e-07
0.351969
-1.29987e-06
0.351969
-1.63973e-06
0.351969
-1.90019e-06
0.351969
-2.15805e-06
0.35197
-2.48627e-06
0.35197
-2.91565e-06
0.351971
-3.43727e-06
0.351971
-4.02371e-06
0.351972
-4.63174e-06
0.351973
-5.21309e-06
0.351974
-5.71881e-06
0.351975
-6.1054e-06
0.351976
-6.36311e-06
0.351977
-6.52482e-06
0.351979
-6.63114e-06
0.35198
-6.68284e-06
0.351981
-6.6556e-06
0.351982
-6.54541e-06
0.351984
-6.38295e-06
0.351985
-6.21471e-06
0.351986
-6.06186e-06
0.351987
-5.90173e-06
0.351988
-5.6898e-06
0.351989
-5.40079e-06
0.35199
-5.0512e-06
0.351991
-4.68464e-06
0.351992
-4.33804e-06
0.351993
-4.02004e-06
0.351993
-3.71683e-06
0.351994
-3.41404e-06
0.351995
-3.11115e-06
0.351996
-2.81744e-06
0.351996
-2.53703e-06
0.351996
-2.25746e-06
0.351997
-1.95084e-06
0.351997
-1.58847e-06
0.351997
-1.16029e-06
0.351997
-6.80222e-07
0.351997
-1.71643e-07
0.351997
3.5094e-07
0.351997
8.87601e-07
0.351996
1.44215e-06
0.351996
2.00932e-06
0.351995
2.57955e-06
0.351995
3.12532e-06
0.351994
3.63769e-06
4.22727e-06
0.351969
1.10604e-06
0.351967
1.70214e-06
0.351966
1.34543e-06
0.351966
9.26941e-07
0.351966
8.24396e-07
0.351967
9.85033e-07
0.351968
1.36083e-06
0.351969
9.21971e-07
0.35197
1.1796e-06
0.351969
1.90316e-06
0.351968
2.30324e-06
0.351967
2.36916e-06
0.351966
2.13493e-06
0.351964
2.16601e-06
0.351963
2.0225e-06
0.351963
1.45093e-06
0.351964
1.16127e-06
0.351966
1.07111e-06
0.351966
1.22953e-06
0.351966
1.58133e-06
0.351966
1.39999e-06
0.351966
1.5367e-06
0.351964
2.22646e-06
0.351963
2.56497e-06
0.351961
2.23352e-06
0.351961
1.50884e-06
0.351963
1.12139e-06
0.351964
1.28253e-06
0.351965
1.16903e-06
0.351967
6.1285e-07
0.351969
3.41875e-07
0.351971
4.52283e-07
0.351973
4.87512e-07
0.351975
3.68247e-07
0.351976
3.94934e-07
0.351978
7.31224e-07
0.351979
1.22816e-06
0.351979
1.58637e-06
0.351979
1.74317e-06
0.351978
1.84987e-06
0.351977
1.85284e-06
0.351976
1.64978e-06
0.351975
1.51185e-06
0.351974
1.80769e-06
0.351973
2.30211e-06
0.351971
2.56798e-06
0.351968
2.55471e-06
0.351966
2.3495e-06
0.351965
1.84049e-06
0.351964
9.96616e-07
0.351965
3.56458e-07
0.351966
2.53995e-07
0.351968
5.56771e-07
0.35197
6.31801e-07
0.351972
4.92898e-07
0.351973
6.8106e-07
0.351974
1.29854e-06
0.351973
1.75524e-06
0.351972
1.67086e-06
0.351971
1.47622e-06
0.35197
1.72194e-06
0.351969
2.16727e-06
0.351967
2.18871e-06
0.351966
1.71463e-06
0.351965
1.25417e-06
0.351963
1.19354e-06
0.351962
1.39302e-06
0.351961
1.5171e-06
0.351959
1.44558e-06
0.351958
1.28555e-06
0.351957
1.17479e-06
0.351955
1.16535e-06
0.351954
1.23582e-06
0.351952
1.33272e-06
0.35195
1.41875e-06
0.351949
1.47862e-06
0.351948
1.48607e-06
0.351949
1.33668e-06
0.35195
9.91264e-07
0.351952
5.63272e-07
0.351955
1.8898e-07
0.351959
-1.23411e-07
0.351962
-4.42481e-07
0.351967
-7.72394e-07
0.351971
-1.06617e-06
0.351975
-1.33863e-06
0.351978
-1.67123e-06
0.351981
-2.06192e-06
0.351983
-2.36441e-06
0.351985
-2.50463e-06
0.351986
-2.54384e-06
0.351987
-2.59943e-06
0.351987
-2.68892e-06
0.351988
-2.73826e-06
0.351988
-2.69506e-06
0.351989
-2.57297e-06
0.351989
-2.38986e-06
0.35199
-2.12325e-06
0.351991
-1.75936e-06
0.351992
-1.34961e-06
0.351993
-9.82369e-07
0.351994
-7.06989e-07
0.351995
-4.81078e-07
0.351995
-2.26435e-07
0.351996
5.15818e-08
0.351996
2.67969e-07
0.351996
3.07349e-07
0.351996
1.50281e-07
0.351996
-1.04854e-07
0.351996
-3.39032e-07
0.351996
-4.88623e-07
0.351996
-5.4881e-07
0.351996
-5.33568e-07
0.351996
-4.76729e-07
0.351997
-4.41297e-07
0.351997
-4.81907e-07
0.351997
-5.7271e-07
0.351997
-5.96551e-07
0.351997
-4.43152e-07
0.351996
-1.31256e-07
0.351996
2.16132e-07
0.351995