/*--------------------------------*- C++ -*----------------------------------*\
| =========                 |                                                 |
| \\      /  F ield         | OpenFOAM: The Open Source CFD Toolbox           |
|  \\    /   O peration     | Version:  2406                                  |
|   \\  /    A nd           | Website:  www.openfoam.com                      |
|    \\/     M anipulation  |                                                 |
\*---------------------------------------------------------------------------*/
FoamFile
{
    version     2.0;
    format      ascii;
    arch        "LSB;label=32;scalar=64";
    class       surfaceScalarField;
    location    "0.3";
    object      alphaPhi0.glycerin;
}
// * * * * * * * * * * * * * * * * * * * * * * * * * * * * * * * * * * * * * //

dimensions      [0 3 -1 0 0 0 0];

oriented        oriented;

internalField   nonuniform List<scalar> 
12225
(
0
0
0
0
0
0
0
0
0
0
0
0
0
0
0
0
0
0
0
0
0
0
0
0
0
0
0
0
0
0
0
0
0
0
0
0
0
0
0
0
0
0
0
0
0
0
0
0
0
0
0
0
0
0
0
0
0
0
0
0
0
0
0
0
0
0
0
0
0
0
0
0
0
0
0
0
0
0
0
0
0
0
0
0
0
0
0
0
0
0
0
0
0
0
0
0
0
0
0
0
0
0
0
0
0
0
0
0
0
0
0
0
0
0
0
0
0
0
0
0
0
0
0
0
0
0
0
0
0
0
0
0
0
0
0
0
0
0
0
0
0
0
0
0
0
0
0
0
0
0
0
0
0
0
0
0
0
0
0
0
0
0
0
0
0
0
0
0
0
0
0
0
0
0
0
0
0
0
0
0
0
0
0
0
0
0
0
0
0
0
0
0
0
0
0
0
0
0
0
0
0
0
0
0
0
0
0
0
0
0
0
0
0
0
0
0
0
0
0
0
0
0
0
0
0
0
0
0
0
0
0
0
0
0
0
0
0
0
0
0
0
0
0
0
0
0
0
0
0
0
0
0
0
0
0
0
0
0
0
0
0
0
0
0
0
0
0
0
0
0
0
0
0
0
0
0
0
0
0
0
0
0
0
0
0
0
0
0
0
0
0
0
0
0
0
0
0
0
0
0
0
0
0
0
0
0
0
0
0
0
0
0
-3.43019e-311
-4.04808e-313
-5.70103e-294
-7.54447e-296
-1.37975e-277
-2.05239e-279
-4.62059e-262
-7.74355e-264
-9.30833e-247
-1.76144e-248
-7.57311e-232
-1.62171e-233
-7.15859e-208
-1.73845e-209
-6.83964e-194
-1.88772e-195
-7.55755e-180
-2.37572e-181
-8.30875e-167
-2.98146e-168
-1.21815e-154
-5.00126e-156
-1.7061e-142
-8.03506e-144
-2.40343e-130
-1.30249e-131
-2.9185e-118
-1.82655e-119
-9.97259e-107
-7.23925e-108
-9.85245e-96
-8.34005e-97
-2.24852e-85
-2.23464e-86
-7.60599e-76
-8.95362e-77
-2.46384e-67
-3.47678e-68
-8.99773e-60
-1.54775e-60
-1.4278e-48
-3.0689e-49
-7.09755e-38
-1.98246e-38
-5.30402e-32
-2.06417e-32
-3.56227e-27
-2.24253e-27
-3.94148e-24
-7.13201e-24
1.41504e-21
-2.82297e-21
2.2946e-21
-2.01916e-21
1.86473e-21
-3.68893e-22
1.15387e-21
1.25002e-22
1.84321e-22
4.46519e-22
-1.52448e-21
7.57308e-22
-2.1212e-21
-1.36061e-21
1.08815e-07
1.07228e-08
2.58635e-07
7.5779e-08
2.20958e-07
3.7611e-08
1.7683e-07
4.40593e-08
1.50756e-07
2.60026e-08
1.39882e-07
1.08792e-08
1.31676e-07
8.2059e-09
1.25874e-07
5.80251e-09
1.25547e-07
3.26672e-10
1.26979e-07
-1.47905e-09
1.25616e-07
1.36077e-09
1.22221e-07
3.3932e-09
1.19759e-07
2.51999e-09
1.1918e-07
5.65055e-10
1.20018e-07
-8.41802e-10
1.21391e-07
-1.38893e-09
1.22584e-07
-1.22044e-09
1.24156e-07
-1.58906e-09
1.26986e-07
-2.81875e-09
1.31324e-07
-4.33664e-09
1.36624e-07
-5.29995e-09
1.41905e-07
-5.32486e-09
1.46663e-07
-4.7821e-09
1.51149e-07
-4.49138e-09
1.56783e-07
-5.57871e-09
1.64457e-07
-7.66794e-09
1.74345e-07
-9.88431e-09
1.85503e-07
-1.11306e-08
1.95648e-07
-1.01165e-08
2.02793e-07
-7.25158e-09
2.06946e-07
-4.15999e-09
2.07779e-07
-8.40478e-10
2.05616e-07
2.29882e-09
2.00793e-07
4.78549e-09
1.94515e-07
6.2526e-09
1.88364e-07
6.1251e-09
1.84575e-07
3.77106e-09
1.84294e-07
2.6339e-10
1.86044e-07
-1.84189e-09
1.87843e-07
-1.82942e-09
1.88487e-07
-6.31527e-10
1.90318e-07
-1.82362e-09
1.95649e-07
-5.32257e-09
2.02819e-07
-7.42424e-09
2.07948e-07
-5.193e-09
2.07591e-07
8.03546e-10
2.00876e-07
6.71508e-09
1.91062e-07
9.81387e-09
1.8112e-07
9.94207e-09
1.72767e-07
8.35338e-09
1.6492e-07
6.50848e-09
1.59081e-07
5.83842e-09
1.52487e-07
6.5936e-09
1.4448e-07
8.00575e-09
1.36739e-07
8.68127e-09
1.28969e-07
7.76943e-09
1.23248e-07
5.72116e-09
1.19599e-07
3.18678e-09
1.17847e-07
8.11626e-10
1.18863e-07
-1.38955e-10
1.17228e-07
1.63509e-09
3.82105e-09
0
0
0
0
0
0
0
0
0
0
0
0
0
0
0
0
0
0
0
0
0
0
0
0
0
0
0
0
0
0
0
0
0
0
0
0
0
0
0
0
0
0
0
0
0
0
0
0
0
0
0
0
0
0
0
0
0
0
0
0
0
0
0
0
0
0
0
0
0
0
0
0
0
0
0
0
0
0
0
0
0
0
0
0
0
0
0
0
0
0
0
0
0
0
0
0
0
0
0
0
0
0
0
0
0
0
0
0
0
0
0
0
0
0
0
0
0
0
0
0
0
0
0
0
0
0
0
0
0
0
0
0
0
0
0
0
0
0
0
0
0
0
0
0
0
0
0
0
0
0
0
0
0
0
0
0
0
0
0
0
0
0
0
0
0
0
0
0
0
0
0
0
0
0
0
0
0
0
0
0
0
0
0
0
0
0
0
0
0
0
0
0
0
0
0
0
0
0
0
0
0
0
0
0
0
0
0
0
0
0
0
0
0
0
0
0
0
0
0
0
0
0
0
0
0
0
0
0
0
0
0
0
0
0
0
0
0
0
0
0
0
0
0
0
0
0
0
0
0
0
0
0
0
0
0
0
0
0
0
0
0
0
0
0
0
0
0
0
0
0
0
0
0
0
0
0
0
0
0
0
0
0
0
0
0
0
0
0
0
0
0
0
0
0
0
0
0
0
0
0
0
0
0
0
0
0
0
0
0
0
0
0
-1.31424e-312
-1.21337e-314
-2.38471e-295
-2.46895e-297
-6.30387e-279
-7.33048e-281
-2.30646e-263
-3.01678e-265
-5.07706e-248
-7.47888e-250
-4.51339e-233
-7.49604e-235
-4.66125e-209
-8.73645e-211
-4.86515e-195
-1.02978e-196
-5.87189e-181
-1.40433e-182
-7.05086e-168
-1.90593e-169
-1.12915e-155
-3.45007e-157
-1.72809e-143
-5.96763e-145
-2.66282e-131
-1.03893e-132
-3.54251e-119
-1.56069e-120
-1.32937e-107
-6.60783e-109
-1.44741e-96
-8.10899e-98
-3.6588e-86
-2.30749e-87
-1.38074e-76
-9.78871e-78
-5.04157e-68
-4.01161e-69
-2.10704e-60
-1.87863e-61
-3.91591e-49
-3.90536e-50
-2.367e-38
-2.6355e-39
-2.30189e-32
-2.85488e-33
-2.33147e-27
-3.20772e-28
-6.90914e-24
-1.04205e-24
-2.53511e-21
-4.07944e-22
-4.04193e-21
-6.74779e-22
-3.89169e-21
-6.8277e-22
-3.29188e-21
-6.44201e-22
-2.43274e-21
-5.8699e-22
-1.40915e-21
-4.46504e-22
-1.84202e-21
-1.76447e-21
4.02426e-08
5.3664e-09
1.20316e-07
-1.80519e-09
2.03719e-07
5.34749e-09
4.55188e-07
2.98803e-08
4.52181e-07
5.79915e-08
4.26743e-07
3.63178e-08
3.85283e-07
4.96652e-08
3.56116e-07
3.49696e-08
3.48365e-07
8.07822e-09
3.4567e-07
1.21533e-09
3.27993e-07
1.90386e-08
3.11406e-07
1.99797e-08
3.03004e-07
1.09223e-08
3.00765e-07
2.8038e-09
3.00031e-07
-2.25429e-09
2.97813e-07
-3.18421e-09
2.99907e-07
-1.99562e-09
3.0739e-07
-4.2731e-09
3.22664e-07
-9.99174e-09
3.39538e-07
-1.81504e-08
3.575e-07
-2.32613e-08
3.7636e-07
-2.42243e-08
3.9425e-07
-2.26969e-08
4.10037e-07
-2.02309e-08
4.27443e-07
-2.29634e-08
4.49008e-07
-2.92263e-08
4.72904e-07
-3.50946e-08
4.99141e-07
-3.84808e-08
5.25175e-07
-3.53865e-08
5.47423e-07
-2.81471e-08
5.62317e-07
-1.86741e-08
5.70935e-07
-9.4483e-09
5.73874e-07
-6.38786e-10
5.68485e-07
1.01749e-08
5.49015e-07
1.78808e-08
5.3529e-07
2.01062e-08
5.30453e-07
1.45313e-08
5.2542e-07
5.68045e-09
5.25322e-07
-1.66639e-09
5.24906e-07
-1.05311e-09
5.15803e-07
8.48541e-09
5.06815e-07
3.70971e-09
5.10832e-07
-1.08203e-08
5.25634e-07
-1.99466e-08
5.37408e-07
-1.47529e-08
5.36531e-07
1.68086e-09
5.20812e-07
2.24347e-08
4.95775e-07
3.47033e-08
4.68894e-07
3.68382e-08
4.43832e-07
3.34157e-08
4.20768e-07
2.95937e-08
4.01461e-07
2.51677e-08
3.82981e-07
2.4482e-08
3.64396e-07
2.66577e-08
3.44607e-07
2.85559e-08
3.26269e-07
2.61068e-08
3.11243e-07
2.07477e-08
2.97592e-07
1.41332e-08
2.91681e-07
5.78233e-09
2.95095e-07
-1.45802e-09
2.92684e-07
4.79556e-09
1.25735e-08
0
0
0
0
0
0
0
0
0
0
0
0
0
0
0
0
0
0
0
0
0
0
0
0
0
0
0
0
0
0
0
0
0
0
0
0
0
0
0
0
0
0
0
0
0
0
0
0
0
0
0
0
0
0
0
0
0
0
0
0
0
0
0
0
0
0
0
0
0
0
0
0
0
0
0
0
0
0
0
0
0
0
0
0
0
0
0
0
0
0
0
0
0
0
0
0
0
0
0
0
0
0
0
0
0
0
0
0
0
0
0
0
0
0
0
0
0
0
0
0
0
0
0
0
0
0
0
0
0
0
0
0
0
0
0
0
0
0
0
0
0
0
0
0
0
0
0
0
0
0
0
0
0
0
0
0
0
0
0
0
0
0
0
0
0
0
0
0
0
0
0
0
0
0
0
0
0
0
0
0
0
0
0
0
0
0
0
0
0
0
0
0
0
0
0
0
0
0
0
0
0
0
0
0
0
0
0
0
0
0
0
0
0
0
0
0
0
0
0
0
0
0
0
0
0
0
0
0
0
0
0
0
0
0
0
0
0
0
0
0
0
0
0
0
0
0
0
0
0
0
0
0
0
0
0
0
0
0
0
0
0
0
0
0
0
0
0
0
0
0
0
0
0
0
0
0
0
0
0
0
0
0
0
0
0
0
0
0
0
0
0
0
0
0
0
0
0
0
0
0
0
0
0
0
0
0
0
0
0
0
-0
0
-4.33188e-314
-4.01422e-316
-8.51738e-297
-8.80345e-299
-2.43744e-280
-2.81226e-282
-9.64282e-265
-1.24279e-266
-2.29176e-249
-3.30125e-251
-2.19598e-234
-3.53706e-236
-2.43997e-210
-4.39578e-212
-2.73434e-196
-5.51082e-198
-3.53572e-182
-7.97205e-184
-4.53868e-169
-1.14472e-170
-7.7529e-157
-2.18674e-158
-1.26291e-144
-3.98179e-146
-2.06708e-132
-7.28055e-134
-2.91549e-120
-1.14621e-121
-1.15793e-108
-5.07609e-110
-1.33231e-97
-6.50428e-99
-3.55452e-87
-1.92958e-88
-1.41429e-77
-8.52212e-79
-5.44071e-69
-3.63187e-70
-2.39453e-61
-1.76687e-62
-4.68534e-50
-3.81247e-51
-2.9814e-39
-2.66859e-40
-3.05126e-33
-2.99681e-34
-3.24595e-28
-3.49056e-29
-1.00097e-24
-1.17733e-25
-3.71431e-22
-4.78621e-23
-9.36718e-22
-1.33341e-22
-1.42751e-21
-2.27958e-22
-1.78938e-21
-3.29865e-22
-1.98787e-21
-4.45962e-22
-1.92923e-21
-5.70541e-22
-2.64787e-21
-1.14798e-21
3.31579e-09
2.70792e-10
1.51617e-09
-1.59483e-11
6.89354e-09
-2.86751e-11
6.5287e-08
2.31222e-09
1.39502e-07
-1.24466e-09
2.16837e-07
-1.23076e-10
3.95063e-07
1.42375e-09
3.99305e-07
3.80732e-08
2.34646e-07
1.48923e-09
8.3522e-08
-6.78972e-10
1.6215e-07
-4.31129e-09
3.92917e-07
8.72449e-09
4.16823e-07
1.6554e-08
3.77092e-07
7.06611e-09
2.05834e-07
2.40355e-09
3.58995e-08
7.68777e-11
5.77604e-08
-3.63112e-12
1.16184e-07
-3.44515e-12
2.31019e-07
-2.14637e-12
3.24602e-07
-5.98871e-15
3.53504e-07
-1.03007e-14
3.87736e-07
-3.21823e-13
4.49071e-07
-9.12368e-13
5.21923e-07
-6.30317e-13
6.00903e-07
-2.27575e-13
6.75696e-07
-2.09198e-08
7.14435e-07
-6.19833e-08
7.46321e-07
-5.90986e-08
5.99288e-07
-6.8536e-08
7.00049e-07
-5.70604e-08
8.60245e-07
-4.68193e-08
8.88588e-07
-3.55899e-08
8.98461e-07
-1.05103e-08
8.21762e-07
7.07156e-09
8.11959e-07
2.23679e-08
8.00673e-07
2.6806e-08
8.70431e-07
1.78339e-08
8.77641e-07
-1.14276e-09
7.13053e-07
-2.80477e-09
4.93484e-07
1.12768e-08
4.5411e-07
2.39953e-08
8.01548e-07
2.57679e-08
7.96313e-07
-6.9814e-09
8.09815e-07
-1.85632e-08
8.54266e-07
-1.94463e-08
8.53481e-07
3.3906e-09
8.16619e-07
4.43365e-08
7.86941e-07
6.98937e-08
7.49882e-07
7.39117e-08
6.6118e-07
6.63798e-08
5.19433e-07
5.39929e-08
5.74111e-07
3.19623e-08
5.98199e-07
5.95565e-08
5.68992e-07
5.58668e-08
5.38395e-07
5.91528e-08
5.16776e-07
4.77264e-08
5.02039e-07
3.54848e-08
4.90577e-07
2.55948e-08
4.85854e-07
1.05057e-08
3.06353e-07
-1.0477e-08
9.39437e-08
-4.49332e-09
-4.90246e-10
0
0
0
0
0
0
0
0
0
0
0
0
0
0
0
0
0
0
0
0
0
0
0
0
0
0
0
0
0
0
0
0
0
0
0
0
0
0
0
0
0
0
0
0
0
0
0
0
0
0
0
0
0
0
0
0
0
0
0
0
0
0
0
0
0
0
0
0
0
0
0
0
0
0
0
0
0
0
0
0
0
0
0
0
0
0
0
0
0
0
0
0
0
0
0
0
0
0
0
0
0
0
0
0
0
0
0
0
0
0
0
0
0
0
0
0
0
0
0
0
0
0
0
0
0
0
0
0
0
0
0
0
0
0
0
0
0
0
0
0
0
0
0
0
0
0
0
0
0
0
0
0
0
0
0
0
0
0
0
0
0
0
0
0
0
0
0
0
0
0
0
0
0
0
0
0
0
0
0
0
0
0
0
0
0
0
0
0
0
0
0
0
0
0
0
0
0
0
0
0
0
0
0
0
0
0
0
0
0
0
0
0
0
0
0
0
0
0
0
0
0
0
0
0
0
0
0
0
0
0
0
0
0
0
0
0
0
0
0
0
0
0
0
0
0
0
0
0
0
0
0
0
0
0
0
0
0
0
0
0
0
0
0
0
0
0
0
0
0
0
0
0
0
0
0
0
0
0
0
0
0
0
0
0
0
0
0
0
0
0
0
0
0
0
0
0
0
0
0
0
0
0
0
0
0
0
0
0
0
0
-0
0
-1.49779e-315
-1.47011e-317
-3.17425e-298
-3.46542e-300
-9.77379e-282
-1.18713e-283
-4.15192e-266
-5.61117e-268
-1.05719e-250
-1.58968e-252
-1.08266e-235
-1.81098e-237
-1.28228e-211
-2.38522e-213
-1.52751e-197
-3.1582e-199
-2.09363e-183
-4.80821e-185
-2.84039e-170
-7.23996e-172
-5.11299e-158
-1.44507e-159
-8.75196e-146
-2.73957e-147
-1.50114e-133
-5.19768e-135
-2.21305e-121
-8.46394e-123
-9.16541e-110
-3.86597e-111
-1.09738e-98
-5.09654e-100
-3.04109e-88
-1.55248e-89
-1.25503e-78
-7.03056e-80
-5.00235e-70
-3.06992e-71
-2.2795e-62
-1.5302e-63
-4.61667e-51
-3.38565e-52
-3.04094e-40
-2.43414e-41
-3.22302e-34
-2.81532e-35
-3.5545e-29
-3.39056e-30
-1.13947e-25
-1.18923e-26
-4.40543e-23
-5.0469e-24
-1.60804e-22
-2.03195e-23
-3.47597e-22
-4.88081e-23
-5.96249e-22
-9.40312e-23
-8.99731e-22
-1.61615e-22
-1.2399e-21
-2.56728e-22
-2.08875e-21
-2.12089e-22
2.5622e-10
1.45858e-11
2.32698e-10
6.81604e-12
1.92636e-10
1.1229e-11
2.2657e-09
2.40771e-10
1.07258e-09
-5.24259e-11
9.60083e-10
-7.05081e-12
9.95549e-09
7.55902e-10
4.46358e-08
2.15704e-10
3.07509e-08
-1.41763e-10
5.2134e-09
-4.98753e-10
5.37635e-10
-2.99591e-11
1.21909e-08
-1.15284e-10
1.11613e-08
-8.18243e-11
2.40176e-09
-2.91912e-11
8.05414e-11
-2.67211e-11
6.06087e-12
-2.71288e-13
2.52558e-12
-1.71515e-13
8.44155e-14
-9.80646e-13
7.1483e-14
-2.14198e-12
6.40273e-14
-7.07798e-15
6.33648e-14
-1.81788e-14
6.45055e-14
-3.32117e-13
7.21656e-14
-9.32247e-13
9.14834e-14
-6.5861e-13
2.55369e-13
-3.95113e-13
2.21347e-07
-9.60297e-12
7.31944e-07
-7.38946e-12
6.67847e-07
-4.23554e-12
3.89846e-07
-5.95939e-13
4.23478e-07
-2.49313e-13
6.77077e-07
-1.38473e-12
9.46655e-07
-1.91073e-12
1.06475e-06
-2.25932e-12
1.17573e-06
-5.77401e-12
1.23621e-06
9.38049e-09
1.2247e-06
3.94978e-08
1.23445e-06
1.85604e-08
7.30851e-07
-1.84033e-08
6.75656e-07
-1.5297e-08
6.5814e-07
1.25713e-08
9.81207e-07
5.07377e-08
9.40999e-07
6.87897e-08
5.05921e-07
1.45059e-08
6.64461e-08
-5.08689e-08
2.88156e-07
-8.91537e-08
4.68948e-07
-2.11721e-08
1.12474e-06
1.54408e-08
1.2022e-06
9.75219e-08
1.17306e-06
1.03101e-07
1.11878e-06
1.2104e-07
7.41739e-07
1.15624e-07
3.05044e-07
4.30179e-08
1.84711e-07
2.77428e-08
3.75915e-07
1.27218e-08
7.92037e-07
7.72704e-08
7.84851e-07
5.49127e-08
7.77841e-07
4.24951e-08
7.60533e-07
4.29022e-08
7.40773e-07
3.02662e-08
3.50197e-07
-1.28937e-08
1.46357e-07
-5.09009e-08
-2.44923e-08
0
0
0
0
0
0
0
0
0
0
0
0
0
0
0
0
0
0
0
0
0
0
0
0
0
0
0
0
0
0
0
0
0
0
0
0
0
0
0
0
0
0
0
0
0
0
0
0
0
0
0
0
0
0
0
0
0
0
0
0
0
0
0
0
0
0
0
0
0
0
0
0
0
0
0
0
0
0
0
0
0
0
0
0
0
0
0
0
0
0
0
0
0
0
0
0
0
0
0
0
0
0
0
0
0
0
0
0
0
0
0
0
0
0
0
0
0
0
0
0
0
0
0
0
0
0
0
0
0
0
0
0
0
0
0
0
0
0
0
0
0
0
0
0
0
0
0
0
0
0
0
0
0
0
0
0
0
0
0
0
0
0
0
0
0
0
0
0
0
0
0
0
0
0
0
0
0
0
0
0
0
0
0
0
0
0
0
0
0
0
0
0
0
0
0
0
0
0
0
0
0
0
0
0
0
0
0
0
0
0
0
0
0
0
0
0
0
0
0
0
0
0
0
0
0
0
0
0
0
0
0
0
0
0
0
0
0
0
0
0
0
0
0
0
0
0
0
0
0
0
0
0
0
0
0
0
0
0
0
0
0
0
0
0
0
0
0
0
0
0
0
0
0
0
0
0
0
0
0
0
0
0
0
0
0
0
0
0
0
0
0
0
0
0
0
0
0
0
0
0
0
0
0
0
0
0
0
0
0
0
0
0
-5.45718e-317
-5.36713e-319
-1.2424e-299
-1.35666e-301
-4.10021e-283
-4.97086e-285
-1.86223e-267
-2.50613e-269
-5.05593e-252
-7.55076e-254
-5.50477e-237
-9.1194e-239
-6.91034e-213
-1.26919e-214
-8.69724e-199
-1.76977e-200
-1.2553e-184
-2.82772e-186
-1.78739e-171
-4.45298e-173
-3.36559e-159
-9.26319e-161
-6.00623e-147
-1.82404e-148
-1.07066e-134
-3.58279e-136
-1.63547e-122
-6.02142e-124
-6.99873e-111
-2.83042e-112
-8.63699e-100
-3.83012e-101
-2.46187e-89
-1.19493e-90
-1.04331e-79
-5.5323e-81
-4.26576e-71
-2.46658e-72
-1.99321e-63
-1.25456e-64
-4.14107e-52
-2.8327e-53
-2.8019e-41
-2.08031e-42
-3.05816e-35
-2.46229e-36
-3.48695e-30
-3.04346e-31
-1.1627e-26
-1.10037e-27
-4.69782e-24
-4.82533e-25
-2.29916e-23
-2.56774e-24
-6.52858e-23
-7.95014e-24
-1.43222e-22
-1.90787e-23
-2.70653e-22
-3.95488e-23
-4.61914e-22
-7.41777e-23
-6.37741e-22
-3.5752e-23
1.38321e-11
7.54757e-13
2.00908e-11
5.2905e-13
3.048e-11
8.54227e-13
2.56858e-10
1.45375e-11
2.0044e-10
3.99449e-12
1.89665e-10
3.90783e-12
8.77347e-10
7.12271e-11
9.94212e-10
9.81541e-11
8.32232e-10
-1.02082e-10
3.09545e-10
-5.05846e-11
1.81367e-10
7.41857e-12
9.79638e-11
-3.2503e-11
2.72208e-11
-1.14446e-11
1.62542e-12
-3.75336e-12
-2.03687e-11
-6.92727e-13
-5.59202e-11
3.58577e-11
-8.37628e-11
2.82028e-11
-1.02164e-10
1.79978e-11
-9.22996e-13
7.12904e-12
-9.51867e-13
1.32521e-14
-3.17563e-12
-2.51407e-14
-1.25475e-11
-1.09639e-12
-6.82713e-12
-2.58532e-12
-4.87838e-12
-1.73993e-12
-4.08402e-13
-4.14275e-12
4.45136e-14
-1.05891e-11
3.49854e-13
-8.20924e-12
4.62823e-13
-4.83034e-12
4.76111e-13
-1.0606e-12
4.75996e-13
-7.31024e-13
4.82026e-13
-1.85515e-12
5.10562e-13
-2.40891e-12
5.6536e-13
-2.79267e-12
9.08883e-13
-6.5746e-12
9.3816e-09
-2.07859e-13
1.10307e-06
3.55857e-10
1.54221e-06
2.34383e-08
1.64632e-06
-1.59624e-09
1.64381e-06
-1.43602e-08
1.6758e-06
-4.56921e-11
1.63327e-06
1.13019e-07
1.57111e-06
1.33626e-07
1.53856e-06
4.97323e-08
1.56758e-06
-7.72135e-08
7.74875e-07
-8.64287e-08
-6.26241e-08
-4.0179e-09
5.01069e-08
8.05824e-10
4.06587e-07
-5.89117e-09
6.84444e-07
-5.16902e-09
9.82453e-07
2.38495e-08
1.14541e-06
8.93364e-08
1.09728e-06
1.71521e-07
3.6403e-07
1.27796e-07
2.66631e-07
4.12385e-08
2.49917e-07
2.72678e-08
4.14757e-07
2.86243e-09
4.20861e-07
1.4755e-08
4.43978e-07
2.07092e-08
9.32897e-07
6.68213e-09
7.99463e-07
-1.09774e-10
5.41667e-07
-1.62986e-08
-9.00061e-09
0
0
0
0
0
0
0
0
0
0
0
0
0
0
0
0
0
0
0
0
0
0
0
0
0
0
0
0
0
0
0
0
0
0
0
0
0
0
0
0
0
0
0
0
0
0
0
0
0
0
0
0
0
0
0
0
0
0
0
0
0
0
0
0
0
0
0
0
0
0
0
0
0
0
0
0
0
0
0
0
0
0
0
0
0
0
0
0
0
0
0
0
0
0
0
0
0
0
0
0
0
0
0
0
0
0
0
0
0
0
0
0
0
0
0
0
0
0
0
0
0
0
0
0
0
0
0
0
0
0
0
0
0
0
0
0
0
0
0
0
0
0
0
0
0
0
0
0
0
0
0
0
0
0
0
0
0
0
0
0
0
0
0
0
0
0
0
0
0
0
0
0
0
0
0
0
0
0
0
0
0
0
0
0
0
0
0
0
0
0
0
0
0
0
0
0
0
0
0
0
0
0
0
0
0
0
0
0
0
0
0
0
0
0
0
0
0
0
0
0
0
0
0
0
0
0
0
0
0
0
0
0
0
0
0
0
0
0
0
0
0
0
0
0
0
0
0
0
0
0
0
0
0
0
0
0
0
0
0
0
0
0
0
0
0
0
0
0
0
0
0
0
0
0
0
0
0
0
0
0
0
0
0
0
0
0
0
0
0
0
0
0
0
0
0
0
0
0
0
0
0
0
0
0
0
0
0
0
0
0
0
0
-1.98265e-318
-1.85917e-320
-4.8362e-301
-5.02676e-303
-1.70577e-284
-1.96471e-286
-8.25733e-269
-1.05351e-270
-2.38256e-253
-3.36551e-255
-2.74849e-238
-4.29579e-240
-3.64412e-214
-6.29753e-216
-4.82834e-200
-9.21821e-202
-7.31227e-186
-1.54088e-187
-1.08887e-172
-2.52994e-174
-2.13722e-160
-5.46898e-162
-3.96309e-148
-1.11553e-149
-7.31814e-136
-2.26286e-137
-1.15469e-123
-3.9167e-125
-5.09059e-112
-1.89134e-113
-6.45665e-101
-2.62348e-102
-1.88766e-90
-8.37453e-92
-8.19177e-81
-3.96155e-82
-3.42581e-72
-1.80292e-73
-1.63632e-64
-9.35599e-66
-3.47547e-53
-2.15544e-54
-2.40611e-42
-1.61608e-43
-2.69184e-36
-1.95516e-37
-3.1548e-31
-2.4746e-32
-1.08587e-27
-9.18727e-29
-4.54055e-25
-4.13944e-26
-2.81303e-24
-2.76074e-25
-9.93684e-24
-1.0488e-24
-2.65653e-23
-3.0114e-24
-6.00215e-23
-7.29103e-24
-1.20803e-22
-1.56707e-23
-1.46521e-22
-1.66746e-23
7.28085e-13
2.67077e-14
1.23107e-12
2.44502e-14
2.04209e-12
4.25414e-14
1.59841e-11
5.9653e-13
1.97357e-11
2.40556e-13
2.3362e-11
2.8569e-13
9.17492e-11
2.96013e-12
1.85648e-10
4.25536e-12
8.53031e-11
-1.81909e-12
3.70326e-11
-2.39135e-12
4.85511e-11
-1.56904e-12
1.74107e-11
-1.40637e-12
6.62943e-12
-6.83223e-13
3.06027e-12
-1.95816e-13
2.41213e-12
-4.82208e-14
3.77037e-11
5.53065e-13
6.47831e-11
5.00065e-13
8.37296e-11
1.55642e-13
9.00101e-11
-2.74525e-13
8.83451e-11
8.6489e-13
8.66743e-11
2.68772e-12
8.65462e-11
3.09907e-12
8.55791e-11
2.38722e-12
8.19421e-11
2.19392e-13
9.55676e-11
5.99801e-13
8.61511e-11
-2.61954e-14
7.90439e-11
-3.04071e-14
7.43332e-11
1.02677e-12
5.60487e-11
8.08279e-13
8.65022e-11
1.48608e-12
8.18532e-11
4.61198e-12
7.42766e-11
6.89276e-12
6.64033e-11
6.83876e-12
4.22297e-11
1.25685e-12
4.19038e-11
3.76881e-13
4.00826e-08
1.65411e-09
8.59185e-08
1.28145e-09
6.97423e-08
-2.07454e-09
8.02895e-09
-7.30981e-10
4.20807e-09
-5.70926e-11
4.63869e-07
5.30904e-11
2.18199e-06
4.29267e-08
2.1492e-06
8.51992e-08
1.26094e-06
-3.44372e-08
-3.25473e-10
-7.03465e-08
9.03198e-09
-1.73142e-08
6.43698e-09
-6.74044e-11
3.70415e-08
-2.17429e-10
4.68258e-08
-2.47535e-09
8.57664e-08
-1.91361e-09
8.80688e-07
-8.12705e-10
1.65122e-06
1.56605e-07
1.65282e-06
2.51108e-07
1.61547e-06
2.06293e-07
4.76447e-07
9.35443e-08
1.42175e-07
5.11775e-09
1.3488e-07
3.73964e-09
1.34589e-07
2.65878e-09
1.29095e-07
3.3653e-09
1.09935e-07
-1.04317e-10
7.21809e-08
-4.2677e-09
-3.17139e-09
0
0
0
0
0
0
0
0
0
0
0
0
0
0
0
0
0
0
0
0
0
0
0
0
0
0
0
0
0
0
0
0
0
0
0
0
0
0
0
0
0
0
0
0
0
0
0
0
0
0
0
0
0
0
0
0
0
0
0
0
0
0
0
0
0
0
0
0
0
0
0
0
0
0
0
0
0
0
0
0
0
0
0
0
0
0
0
0
0
0
0
0
0
0
0
0
0
0
0
0
0
0
0
0
0
0
0
0
0
0
0
0
0
0
0
0
0
0
0
0
0
0
0
0
0
0
0
0
0
0
0
0
0
0
0
0
0
0
0
0
0
0
0
0
0
0
0
0
0
0
0
0
0
0
0
0
0
0
0
0
0
0
0
0
0
0
0
0
0
0
0
0
0
0
0
0
0
0
0
0
0
0
0
0
0
0
0
0
0
0
0
0
0
0
0
0
0
0
0
0
0
0
0
0
0
0
0
0
0
0
0
0
0
0
0
0
0
0
0
0
0
0
0
0
0
0
0
0
0
0
0
0
0
0
0
0
0
0
0
0
0
0
0
0
0
0
0
0
0
0
0
0
0
0
0
0
0
0
0
0
0
0
0
0
0
0
0
0
0
0
0
0
0
0
0
0
0
0
0
0
0
0
0
0
0
0
0
0
0
0
0
0
0
0
0
0
0
0
0
0
0
0
0
0
0
0
0
0
0
0
-0
0
-6.85763e-320
-5.82997e-322
-1.78802e-302
-1.68702e-304
-6.72302e-286
-7.01943e-288
-3.45941e-270
-3.99465e-272
-1.0578e-254
-1.34998e-256
-1.28908e-239
-1.81682e-241
-1.79968e-215
-2.7987e-217
-2.50255e-201
-4.29e-203
-3.96447e-187
-7.48368e-189
-6.15512e-174
-1.27799e-175
-1.2556e-161
-2.86398e-163
-2.41239e-149
-6.03713e-151
-4.60234e-137
-1.26191e-138
-7.48276e-125
-2.24467e-126
-3.39118e-113
-1.1113e-114
-4.4125e-102
-1.57721e-103
-1.32118e-91
-5.1428e-93
-5.86432e-82
-2.48195e-83
-2.50634e-73
-1.15146e-74
-1.22301e-65
-6.08924e-67
-2.65417e-54
-1.42981e-55
-1.87886e-43
-1.09332e-44
-2.15198e-37
-1.35046e-38
-2.58698e-32
-1.74777e-33
-9.15897e-29
-6.6498e-30
-3.94255e-26
-3.07008e-27
-2.97734e-25
-2.48095e-26
-1.26233e-24
-1.12248e-25
-3.98093e-24
-3.76446e-25
-1.0435e-23
-1.04472e-24
-2.40256e-23
-2.53245e-24
-3.75467e-23
-4.13355e-24
2.60404e-14
7.03426e-16
4.97261e-14
7.03875e-16
9.10398e-14
1.20211e-15
6.69056e-13
1.87596e-14
8.96873e-13
1.0799e-14
1.17387e-12
8.405e-15
4.0524e-12
8.61438e-14
8.16202e-12
1.46888e-13
6.33092e-12
9.32783e-15
4.0513e-12
-1.04474e-13
2.54567e-12
-6.2758e-14
1.1897e-12
-5.20949e-14
5.37257e-13
-3.00866e-14
3.4844e-13
-8.68405e-15
3.04393e-13
-3.92689e-15
8.56327e-13
1.10325e-15
1.34595e-12
1.03605e-14
1.49343e-12
8.17944e-15
1.21429e-12
4.62782e-15
2.05767e-12
-8.37801e-15
4.72057e-12
1.99695e-14
7.85452e-12
2.09501e-14
1.04276e-11
2.00411e-14
1.07752e-11
4.08863e-15
1.14237e-11
2.23197e-15
1.1417e-11
3.29402e-15
1.14511e-11
1.41155e-14
1.2897e-11
3.80058e-14
1.36756e-11
4.55547e-14
1.50533e-11
6.23423e-14
1.99186e-11
1.10919e-13
2.72851e-11
1.56936e-13
3.73154e-11
3.90024e-13
4.02145e-11
3.94708e-13
4.00262e-11
5.79236e-13
1.61656e-09
7.64772e-11
2.79905e-09
9.97879e-11
8.21775e-10
-9.88421e-11
1.28644e-10
-4.17148e-11
4.90398e-11
-2.41728e-12
1.03659e-10
2.48563e-12
1.18407e-07
5.45492e-09
2.89325e-07
8.78844e-10
2.75627e-07
-4.92287e-09
1.7343e-07
-8.10163e-10
1.28183e-08
-1.14546e-10
1.2733e-08
-2.67621e-12
1.17191e-07
-7.69564e-12
1.09966e-07
2.24069e-08
1.01791e-07
2.23873e-08
6.3322e-08
1.48647e-09
1.63262e-07
-1.69944e-10
1.89822e-06
2.22826e-09
2.53983e-06
1.99826e-07
2.59385e-06
9.93182e-08
2.6561e-06
-6.64598e-10
1.36901e-06
-6.19357e-09
3.10243e-08
-2.19445e-08
9.07343e-08
-2.16757e-09
1.51045e-07
1.08101e-11
1.33745e-07
-5.01182e-08
-3.96266e-08
0
0
0
0
0
0
0
0
0
0
0
0
0
0
0
0
0
0
0
0
0
0
0
0
0
0
0
0
0
0
0
0
0
0
0
0
0
0
0
0
0
0
0
0
0
0
0
0
0
0
0
0
0
0
0
0
0
0
0
0
0
0
0
0
0
0
0
0
0
0
0
0
0
0
0
0
0
0
0
0
0
0
0
0
0
0
0
0
0
0
0
0
0
0
0
0
0
0
0
0
0
0
0
0
0
0
0
0
0
0
0
0
0
0
0
0
0
0
0
0
0
0
0
0
0
0
0
0
0
0
0
0
0
0
0
0
0
0
0
0
0
0
0
0
0
0
0
0
0
0
0
0
0
0
0
0
0
0
0
0
0
0
0
0
0
0
0
0
0
0
0
0
0
0
0
0
0
0
0
0
0
0
0
0
0
0
0
0
0
0
0
0
0
0
0
0
0
0
0
0
0
0
0
0
0
0
0
0
0
0
0
0
0
0
0
0
0
0
0
0
0
0
0
0
0
0
0
0
0
0
0
0
0
0
0
0
0
0
0
0
0
0
0
0
0
0
0
0
0
0
0
0
0
0
0
0
0
0
0
0
0
0
0
0
0
0
0
0
0
0
0
0
0
0
0
0
0
0
0
0
0
0
0
0
0
0
0
0
0
0
0
0
0
0
0
0
0
0
0
0
0
0
0
0
0
0
0
0
0
0
-0
0
-2.15907e-321
-1.4822e-323
-6.00527e-304
-4.86821e-306
-2.40252e-287
-2.15364e-289
-1.3114e-271
-1.29895e-273
-4.24031e-256
-4.6371e-258
-5.44659e-241
-6.57003e-243
-7.98823e-217
-1.06182e-218
-1.16306e-202
-1.70174e-204
-1.92274e-188
-3.09312e-190
-3.10506e-175
-5.48517e-177
-6.56759e-163
-1.27233e-164
-1.30441e-150
-2.76747e-152
-2.56529e-138
-5.95182e-140
-4.28844e-126
-1.08643e-127
-1.9938e-114
-5.50676e-116
-2.65625e-103
-7.98534e-105
-8.13054e-93
-2.65604e-94
-3.68511e-83
-1.30592e-84
-1.60709e-74
-6.16741e-76
-8.00004e-67
-3.31879e-68
-1.77156e-55
-7.93006e-57
-1.28056e-44
-6.17352e-46
-1.49944e-38
-7.77001e-40
-1.84574e-33
-1.02593e-34
-6.70644e-30
-3.98943e-31
-2.96302e-27
-1.88162e-28
-2.65927e-26
-1.79763e-27
-1.32242e-25
-9.48437e-27
-4.82094e-25
-3.65401e-26
-1.44013e-24
-1.14819e-25
-3.73046e-24
-3.1112e-25
-7.37877e-24
-6.39486e-25
6.86704e-16
1.67214e-17
1.36916e-15
2.01169e-17
2.54215e-15
2.80222e-17
2.08441e-14
4.63261e-16
3.12905e-14
3.55035e-16
3.94947e-14
2.35736e-16
1.23548e-13
1.82364e-15
2.66766e-13
3.71401e-15
2.75082e-13
9.5509e-16
1.72303e-13
-1.79542e-15
1.11654e-13
-1.85018e-15
6.10847e-14
-1.39676e-15
3.14815e-14
-4.49167e-16
2.29809e-14
-2.14975e-17
1.95203e-14
1.55339e-16
2.06407e-14
-1.02533e-17
3.11806e-14
-1.56127e-16
3.96613e-14
-2.71613e-16
4.4702e-14
-3.60647e-16
3.6615e-14
-2.32625e-16
5.71596e-14
-4.57499e-16
7.81559e-14
-1.97998e-17
9.81154e-14
8.88098e-17
1.02223e-13
3.56976e-17
1.04368e-13
2.94028e-17
1.07616e-13
5.15739e-17
1.21598e-13
1.35109e-16
1.59248e-13
3.36979e-16
2.04337e-13
5.49802e-16
2.65809e-13
9.00958e-16
3.75023e-13
1.78908e-15
5.28303e-13
3.39136e-15
9.07918e-13
1.07569e-14
1.27894e-12
1.34085e-14
1.83484e-12
2.56973e-14
7.62704e-11
2.07371e-12
1.71638e-10
3.8617e-12
7.10261e-11
1.43028e-13
3.07316e-11
-2.10981e-12
2.69158e-11
1.23007e-13
2.85073e-11
1.01345e-12
5.13192e-09
3.559e-10
5.83927e-09
1.69798e-10
1.03443e-09
-9.62344e-11
2.09482e-10
-7.49258e-12
7.79833e-11
-3.55811e-12
5.69686e-11
-2.48378e-12
1.30854e-09
-2.80524e-12
2.3695e-08
1.62228e-11
1.25533e-07
4.48454e-09
9.67752e-08
1.15282e-08
4.73296e-08
2.06651e-09
1.48805e-07
-2.7864e-09
5.73818e-07
2.168e-09
4.92187e-07
-1.04629e-08
3.15118e-07
-2.79124e-11
8.54424e-07
-1.82247e-09
1.66166e-06
-2.64844e-10
1.64957e-06
2.49939e-08
1.62969e-06
3.49516e-08
1.59653e-06
-1.88816e-09
-1.98015e-08
0
0
0
0
0
0
0
0
0
0
0
0
0
0
0
0
0
0
0
0
0
0
0
0
0
0
0
0
0
0
0
0
0
0
0
0
0
0
0
0
0
0
0
0
0
0
0
0
0
0
0
0
0
0
0
0
0
0
0
0
0
0
0
0
0
0
0
0
0
0
0
0
0
0
0
0
0
0
0
0
0
0
0
0
0
0
0
0
0
0
0
0
0
0
0
0
0
0
0
0
0
0
0
0
0
0
0
0
0
0
0
0
0
0
0
0
0
0
0
0
0
0
0
0
0
0
0
0
0
0
0
0
0
0
0
0
0
0
0
0
0
0
0
0
0
0
0
0
0
0
0
0
0
0
0
0
0
0
0
0
0
0
0
0
0
0
0
0
0
0
0
0
0
0
0
0
0
0
0
0
0
0
0
0
0
0
0
0
0
0
0
0
0
0
0
0
0
0
0
0
0
0
0
0
0
0
0
0
0
0
0
0
0
0
0
0
0
0
0
0
0
0
0
0
0
0
0
0
0
0
0
0
0
0
0
0
0
0
0
0
0
0
0
0
0
0
0
0
0
0
0
0
0
0
0
0
0
0
0
0
0
0
0
0
0
0
0
0
0
0
0
0
0
0
0
0
0
0
0
0
0
0
0
0
0
0
0
0
0
0
0
0
0
0
0
0
0
0
0
0
0
0
0
0
0
0
0
0
0
0
0
0
-5.92879e-323
0
-1.73955e-305
-1.12516e-307
-7.39591e-289
-5.29067e-291
-4.27677e-273
-3.38058e-275
-1.46026e-257
-1.27421e-259
-1.97409e-242
-1.89956e-244
-3.03698e-218
-3.21895e-220
-4.6225e-204
-5.39029e-206
-7.96207e-190
-1.02016e-191
-1.33531e-176
-1.87737e-178
-2.92381e-164
-4.50433e-166
-5.99354e-152
-1.01027e-153
-1.21315e-139
-2.23394e-141
-2.08203e-127
-4.18171e-129
-9.9152e-116
-2.16851e-117
-1.35047e-104
-3.21067e-106
-4.21941e-94
-1.08855e-95
-1.94981e-84
-5.44857e-86
-8.66289e-76
-2.61714e-77
-4.39193e-68
-1.43168e-69
-9.90622e-57
-3.47724e-58
-7.29738e-46
-2.75233e-47
-8.71578e-40
-3.52418e-41
-1.09576e-34
-4.73834e-36
-4.07357e-31
-1.87887e-32
-1.84092e-28
-9.0303e-30
-1.92565e-27
-1.00135e-28
-1.10409e-26
-6.06411e-28
-4.58615e-26
-2.64956e-27
-1.54307e-25
-9.33299e-27
-4.45443e-25
-2.80539e-26
-1.03662e-24
-6.75637e-26
1.64259e-17
2.95507e-19
3.60422e-17
4.50228e-19
6.32959e-17
6.74712e-19
5.17206e-16
9.36004e-18
8.62933e-16
9.41043e-18
1.09137e-15
7.44321e-18
2.87954e-15
3.68172e-17
6.5289e-15
7.83873e-17
7.45888e-15
2.4259e-17
5.67603e-15
-1.30686e-17
3.82645e-15
-4.31477e-19
2.45866e-15
6.63464e-18
2.00788e-15
1.11827e-17
1.99216e-15
1.16736e-17
2.14481e-15
1.72327e-17
2.11103e-15
3.33603e-17
1.95047e-15
2.56873e-17
1.69689e-15
1.92834e-17
1.37242e-15
1.30055e-17
1.18943e-15
1.21761e-17
8.58556e-16
7.49168e-18
8.44922e-16
7.12558e-18
9.41531e-16
6.97789e-18
9.86091e-16
7.10457e-18
1.01824e-15
7.32279e-18
1.06279e-15
7.62407e-18
1.18503e-15
8.03002e-18
1.49524e-15
8.31406e-18
2.01192e-15
8.16006e-18
2.87243e-15
6.76409e-18
4.63027e-15
1.36415e-18
7.98793e-15
-1.55091e-17
1.85387e-14
1.4237e-16
3.17616e-14
1.78578e-16
5.69519e-14
6.45159e-16
2.0885e-12
3.99057e-14
5.84342e-12
1.11524e-13
5.92083e-12
3.52244e-14
3.81773e-12
-2.08385e-14
3.93212e-12
1.43566e-14
4.87558e-12
7.49727e-14
3.49535e-10
1.13871e-11
5.14311e-10
5.09399e-12
4.34438e-10
-1.90219e-12
4.70468e-10
1.41579e-11
4.57398e-10
3.9712e-11
4.41259e-10
4.11792e-11
2.54819e-10
4.36149e-12
2.55411e-10
-2.89832e-12
5.4328e-09
3.27819e-10
1.94007e-08
4.8524e-10
1.88048e-08
3.0003e-10
1.04738e-08
-1.37026e-10
1.23215e-08
2.96341e-10
3.05102e-09
-5.50383e-10
2.26558e-09
-2.39817e-10
4.07366e-10
-2.18482e-11
1.65574e-10
-3.31113e-12
4.83879e-08
1.14719e-09
1.2639e-07
6.84632e-10
1.43423e-07
-1.56808e-09
-6.33422e-10
0
0
0
0
0
0
0
0
0
0
0
0
0
0
0
0
0
0
0
0
0
0
0
0
0
0
0
0
0
0
0
0
0
0
0
0
0
0
0
0
0
0
0
0
0
0
0
0
0
0
0
0
0
0
0
0
0
0
0
0
0
0
0
0
0
0
0
0
0
0
0
0
0
0
0
0
0
0
0
0
0
0
0
0
0
0
0
0
0
0
0
0
0
0
0
0
0
0
0
0
0
0
0
0
0
0
0
0
0
0
0
0
0
0
0
0
0
0
0
0
0
0
0
0
0
0
0
0
0
0
0
0
0
0
0
0
0
0
0
0
0
0
0
0
0
0
0
0
0
0
0
0
0
0
0
0
0
0
0
0
0
0
0
0
0
0
0
0
0
0
0
0
0
0
0
0
0
0
0
0
0
0
0
0
0
0
0
0
0
0
0
0
0
0
0
0
0
0
0
0
0
0
0
0
0
0
0
0
0
0
0
0
0
0
0
0
0
0
0
0
0
0
0
0
0
0
0
0
0
0
0
0
0
0
0
0
0
0
0
0
0
0
0
0
0
0
0
0
0
0
0
0
0
0
0
0
0
0
0
0
0
0
0
0
0
0
0
0
0
0
0
0
0
0
0
0
0
0
0
0
0
0
0
0
0
0
0
0
0
0
0
0
0
0
0
0
0
0
0
0
0
0
0
0
0
0
0
0
0
0
0
0
-0
0
-4.04925e-307
-1.85728e-309
-1.82909e-290
-9.29552e-293
-1.1201e-274
-6.30015e-277
-4.0366e-259
-2.50994e-261
-5.74015e-244
-3.94082e-246
-9.25725e-220
-7.00802e-222
-1.47202e-205
-1.22711e-207
-2.63991e-191
-2.4199e-193
-4.59447e-178
-4.62419e-180
-1.04067e-165
-1.14824e-167
-2.20008e-153
-2.65695e-155
-4.57972e-141
-6.04349e-143
-8.06248e-129
-1.16059e-130
-3.92963e-117
-6.15959e-119
-5.46709e-106
-9.31433e-108
-1.74199e-95
-3.21972e-97
-8.19925e-86
-1.64086e-87
-3.70736e-77
-8.01683e-79
-1.91197e-69
-4.458e-71
-4.38663e-58
-1.10038e-59
-3.28792e-47
-8.85254e-49
-3.99822e-41
-1.15255e-42
-5.12264e-36
-1.57678e-37
-1.9434e-32
-6.36885e-34
-8.95746e-30
-3.11549e-31
-1.07569e-28
-3.95691e-30
-7.01687e-28
-2.71932e-29
-3.28347e-27
-1.33485e-28
-1.2326e-26
-5.23159e-28
-3.93458e-26
-1.73426e-27
-1.03984e-25
-4.73196e-27
2.91861e-19
3.6458e-21
7.34702e-19
6.74796e-21
1.39699e-18
1.10168e-20
1.06292e-17
1.27464e-19
1.98788e-17
1.62218e-19
2.71756e-17
1.48369e-19
6.35022e-17
5.18092e-19
1.40782e-16
1.17502e-18
1.64507e-16
5.19598e-19
1.51967e-16
2.50445e-19
1.54492e-16
4.47921e-19
1.62659e-16
1.01807e-18
1.74639e-16
7.26121e-19
1.86657e-16
7.23774e-19
2.03461e-16
6.6925e-19
2.36384e-16
7.90831e-19
2.62483e-16
9.42693e-19
2.83316e-16
1.13241e-18
2.99428e-16
1.46009e-18
3.16509e-16
1.66798e-18
3.30731e-16
3.37902e-18
3.48399e-16
3.62506e-18
3.69613e-16
3.64916e-18
3.88717e-16
3.8044e-18
3.98148e-16
3.98336e-18
4.0061e-16
4.141e-18
3.98454e-16
4.2821e-18
3.8858e-16
4.37048e-18
3.67002e-16
4.30758e-18
3.36529e-16
3.95493e-18
2.97503e-16
3.22857e-18
2.23975e-16
1.79169e-18
3.57831e-16
1.54404e-18
5.31627e-16
1.72667e-18
1.17064e-15
1.98454e-18
4.055e-14