/*--------------------------------*- C++ -*----------------------------------*\
| =========                 |                                                 |
| \\      /  F ield         | OpenFOAM: The Open Source CFD Toolbox           |
|  \\    /   O peration     | Version:  2406                                  |
|   \\  /    A nd           | Website:  www.openfoam.com                      |
|    \\/     M anipulation  |                                                 |
\*---------------------------------------------------------------------------*/
FoamFile
{
    version     2.0;
    format      ascii;
    arch        "LSB;label=32;scalar=64";
    class       volScalarField;
    location    "0.3";
    object      p;
}
// * * * * * * * * * * * * * * * * * * * * * * * * * * * * * * * * * * * * * //

dimensions      [1 -1 -2 0 0 0 0];

internalField   nonuniform List<scalar> 
6250
(
3158.44
3565.72
4364.96
4438.08
4254.42
4185.36
4214.4
4244.28
4247.61
4240.8
4237.94
4239.52
4241.65
4242.68
4243.13
4243.7
4244.47
4245.29
4246.08
4246.83
4247.59
4248.36
4249.13
4249.9
4250.67
4251.45
4252.22
4252.99
4253.76
4254.54
4255.31
4256.09
4256.86
4257.64
4258.41
4259.19
4259.96
4260.74
4261.51
4262.29
4263.07
4263.84
4264.62
4265.39
4266.17
4266.95
4267.72
4268.5
4269.27
4270.05
4270.82
4271.6
4272.37
4273.14
4273.92
4274.69
4275.46
4276.23
4277
4277.77
4278.54
4279.31
4280.08
4280.85
4281.62
4282.38
4283.15
4283.92
4284.68
4285.45
4286.21
4286.97
4287.74
4288.5
4289.27
4290.03
4290.79
4291.56
4292.32
4293.09
4293.85
4294.62
4295.38
4296.15
4296.91
4297.68
4298.45
4299.21
4299.98
4300.75
4301.51
4302.28
4303.05
4303.81
4304.58
4305.34
4306.11
4306.87
4307.64
4308.4
4309.17
4309.93
4310.7
4311.46
4312.23
4312.99
4313.76
4314.53
4315.3
4316.07
4316.84
4317.61
4318.38
4319.15
4319.92
4320.7
4321.47
4322.25
4323.03
4323.81
4324.59
4325.37
4326.16
4326.95
4327.75
4328.55
4329.36
4330.17
4330.99
4331.82
4332.65
4333.5
4334.35
4335.22
4336.1
4337
4337.91
4338.84
4339.8
4340.78
4341.78
4342.82
4343.9
4345.01
4346.17
4347.37
4348.63
4349.95
4351.34
4352.8
4354.34
4355.97
4357.7
4359.54
4361.49
4363.57
4365.79
4368.15
4370.67
4373.34
4376.18
4379.18
4382.33
4385.63
4389.05
4392.57
4396.14
4399.71
4403.22
4406.57
4409.68
4412.43
4414.7
4416.37
4417.31
4417.43
4416.63
4414.88
4412.19
4408.6
4404.16
4398.28
4390.89
4387.8
4392.69
4387.02
4410.64
4389.52
4298.7
3851.82
3742.29
3660.63
3705.94
3801.45
3827.68
3833.62
3850.2
3836.7
3779.19
3711.37
3656.81
3611.93
3565.18
3511.47
3451.9
3396.94
3354.81
3323.88
3296.68
3267.72
3238.08
3213.86
3201.68
3199.92
3199.2
3186.95
3151.43
3093.73
3027.48
2958.05
2887.53
2822.75
2767.13
2726.26
2706.91
2703.41
2691.52
2651.77
2587.61
2527.84
2479.04
2416.49
2313.34
2162.71
1988.94
1817.35
1659.89
1513.96
1370.78
1223.26
1072.43
924.555
788.754
672.451
572.235
481.613
392.934
288.775
163.112
42.9831
3154.74
3561.32
4364.38
4439.03
4254.5
4184.69
4213.79
4244
4247.47
4240.62
4237.73
4239.35
4241.51
4242.56
4243.02
4243.59
4244.38
4245.21
4246.01
4246.77
4247.53
4248.31
4249.08
4249.86
4250.63
4251.41
4252.19
4252.96
4253.74
4254.51
4255.29
4256.06
4256.84
4257.62
4258.39
4259.17
4259.95
4260.72
4261.5
4262.28
4263.05
4263.83
4264.61
4265.39
4266.16
4266.94
4267.72
4268.49
4269.27
4270.04
4270.82
4271.59
4272.37
4273.14
4273.92
4274.69
4275.46
4276.23
4277
4277.78
4278.55
4279.32
4280.08
4280.85
4281.62
4282.39
4283.15
4283.92
4284.68
4285.45
4286.21
4286.98
4287.74
4288.51
4289.27
4290.03
4290.8
4291.56
4292.33
4293.09
4293.86
4294.62
4295.39
4296.15
4296.92
4297.69
4298.45
4299.22
4299.99
4300.75
4301.52
4302.28
4303.05
4303.82
4304.58
4305.35
4306.11
4306.88
4307.64
4308.4
4309.17
4309.93
4310.7
4311.46
4312.23
4312.99
4313.76
4314.52
4315.29
4316.06
4316.83
4317.6
4318.37
4319.14
4319.91
4320.68
4321.45
4322.22
4323
4323.77
4324.55
4325.33
4326.11
4326.89
4327.68
4328.47
4329.26
4330.06
4330.87
4331.68
4332.5
4333.32
4334.16
4335
4335.85
4336.72
4337.59
4338.48
4339.39
4340.32
4341.27
4342.24
4343.24
4344.27
4345.34
4346.44
4347.59
4348.78
4350.03
4351.33
4352.7
4354.13
4355.65
4357.25
4358.95
4360.75
4362.66
4364.7
4366.87
4369.18
4371.64
4374.26
4377.03
4379.95
4383.02
4386.22
4389.52
4392.9
4396.31
4399.66
4402.88
4405.86
4408.45
4410.53
4411.92
4412.48
4412.06
4410.54
4407.8
4403.64
4397.68
4387.89
4374.09
4369.37
4381.49
4403.15
4430.22
4437.68
4373.05
4333.02
4128.92
3817.2
3874.7
4013.5
3909.06
3914.87
4024.83
3999.91
3806.74
3682.87
3656.2
3642.38
3605.57
3530.81
3424.61
3336.29
3279.02
3239.11
3201.85
3153.8
3094.11
3041.63
3031.82
3067.5
3116.41
3150.17
3137.41
3073.91
3008.77
2969.43
2930.64
2865.38
2781.22
2716.66
2694.81
2723.25
2766.33
2718.72
2552.43
2449.04
2445.3
2447.98
2398.47
2288.5
2112.77
1926.82
1761.63
1606.24
1440.19
1277.46
1124.73
981.308
841.534
720.632
620.339
540.503
482.764
400.968
207.872
27.6143
3155.64
3562.69
4364.8
4438.96
4254.46
4184.81
4213.99
4244.18
4247.62
4240.76
4237.86
4239.47
4241.62
4242.67
4243.12
4243.69
4244.47
4245.3
4246.08
4246.84
4247.6
4248.37
4249.14
4249.91
4250.68
4251.45
4252.23
4253
4253.77
4254.55
4255.32
4256.09
4256.87
4257.64
4258.42
4259.19
4259.97
4260.74
4261.52
4262.29
4263.07
4263.85
4264.62
4265.4
4266.17
4266.95
4267.72
4268.5
4269.27
4270.05
4270.82
4271.6
4272.37
4273.14
4273.92
4274.69
4275.46
4276.23
4277
4277.77
4278.54
4279.31
4280.08
4280.85
4281.62
4282.38
4283.15
4283.91
4284.68
4285.44
4286.21
4286.97
4287.74
4288.5
4289.26
4290.03
4290.79
4291.56
4292.32
4293.09
4293.85
4294.62
4295.38
4296.15
4296.91
4297.68
4298.45
4299.21
4299.98
4300.74
4301.51
4302.28
4303.04
4303.81
4304.57
4305.34
4306.1
4306.87
4307.63
4308.39
4309.16
4309.92
4310.68
4311.45
4312.21
4312.98
4313.74
4314.51
4315.27
4316.04
4316.81
4317.58
4318.34
4319.11
4319.88
4320.65
4321.42
4322.19
4322.96
4323.73
4324.5
4325.28
4326.05
4326.83
4327.61
4328.39
4329.18
4329.97
4330.76
4331.56
4332.37
4333.17
4333.99
4334.81
4335.64
4336.47
4337.32
4338.17
4339.04
4339.92
4340.82
4341.73
4342.66
4343.62
4344.59
4345.6
4346.62
4347.68
4348.77
4349.9
4351.06
4352.27
4353.51
4354.81
4356.15
4357.54
4358.99
4360.48
4362.03
4363.63
4365.28
4366.98
4368.71
4370.47
4372.24
4374.03
4375.8
4377.54
4379.23
4380.83
4382.31
4383.63
4384.75
4385.61
4386.15
4386.34
4386.13
4385.5
4384.49
4383.25
4382.22
4382.45
4385.99
4395.98
4412.59
4432.38
4453.06
4468.9
4434.22
4337.11
4178.05
3971.03
3980.47
3904.08
3516.8
3618.88
4100.51
4053.41
3741.6
3600.44
3619.96
3597.79
3507.02
3437.64
3407.56
3385.08
3368.72
3361.64
3355.03
3334.53
3303.78
3271.08
3262.6
3197.45
3146.51
3134.19
3110.8
3063.87
2971.5
2863.56
2738.99
2650.08
2641.26
2692.15
2793.29
2919.19
2891.73
2749.81
2596.66
2492.67
2616.44
2813.78
2777.48
2297.29
1884.96
1727.54
1669.15
1593.83
1560.09
1426.99
1128.22
827.763
653.586
600.557
569.399
518.611
474.23
426
383.689
164.208
3154.88
3561.46
4364.09
4438.6
4254.2
4184.54
4213.69
4243.89
4247.35
4240.52
4237.65
4239.27
4241.43
4242.49
4242.96
4243.53
4244.32
4245.16
4245.95
4246.72
4247.48
4248.26
4249.04
4249.82
4250.59
4251.37
4252.14
4252.92
4253.7
4254.48
4255.25
4256.03
4256.81
4257.58
4258.36
4259.14
4259.92
4260.69
4261.47
4262.25
4263.03
4263.8
4264.58
4265.36
4266.13
4266.91
4267.69
4268.46
4269.24
4270.02
4270.79
4271.57
4272.34
4273.12
4273.89
4274.66
4275.44
4276.21
4276.98
4277.75
4278.52
4279.29
4280.06
4280.83
4281.6
4282.36
4283.13
4283.9
4284.66
4285.43
4286.19
4286.96
4287.72
4288.49
4289.25
4290.02
4290.78
4291.55
4292.31
4293.08
4293.84
4294.61
4295.37
4296.14
4296.91
4297.67
4298.44
4299.2
4299.97
4300.74
4301.5
4302.27
4303.03
4303.8
4304.57
4305.33
4306.09
4306.86
4307.62
4308.39
4309.15
4309.91
4310.68
4311.44
4312.2
4312.97
4313.73
4314.5
4315.26
4316.03
4316.79
4317.56
4318.32
4319.09
4319.86
4320.62
4321.39
4322.16
4322.92
4323.69
4324.46
4325.23
4326
4326.77
4327.54
4328.31
4329.09
4329.87
4330.65
4331.44
4332.22
4333.01
4333.81
4334.61
4335.41
4336.21
4337.03
4337.85
4338.67
4339.51
4340.36
4341.21
4342.08
4342.96
4343.86
4344.77
4345.7
4346.64
4347.6
4348.59
4349.59
4350.62
4351.67
4352.74
4353.84
4354.96
4356.1
4357.26
4358.43
4359.61
4360.8
4361.98
4363.14
4364.27
4365.34
4366.34
4367.24
4368
4368.61
4369.01
4369.18
4369.07
4368.65
4367.89
4366.78
4365.32
4363.54
4361.5
4359.35
4357.27
4355.54
4354.46
4354.17
4354.45
4354.41
4352.29
4343.66
4324.02
4278.13
4232.8
4221.48
4171.09
4000.65
3768.72
3539.02
3400.17
3546.79
3562.04
3532.6
3496.43
3461.35
3436.89
3420.42
3411.57
3407.05
3404.65
3405.02
3409.08
3418.01
3434.46
3459.75
3489.54
3512.02
3484.81
3456.43
3529.13
3507.87
3480.62
3437.26
3369.5
3262.4
3093.03
2555.65
2095.81
2234.99
2481.5
2578.81
2643.2
2675.97
2792.67
2926.23
3139.74
3300.55
3235.52
2733.48
2067.15
1666.24
1255.47
973.205
1085.21
1191.8
1058.11
759.303
582.433
509.169
302.122
109.226
133.129
191.468
123.214
3154.87
3561.54
4364.2
4438.68
4254.26
4184.59
4213.75
4243.96
4247.44
4240.61
4237.73
4239.35
4241.52
4242.58
4243.05
4243.62
4244.4
4245.24
4246.04
4246.8
4247.56
4248.33
4249.11
4249.89
4250.66
4251.43
4252.21
4252.98
4253.76
4254.53
4255.31
4256.08
4256.86
4257.63
4258.41
4259.18
4259.96
4260.73
4261.51
4262.29
4263.06
4263.84
4264.61
4265.39
4266.17
4266.94
4267.72
4268.49
4269.27
4270.04
4270.82
4271.59
4272.37
4273.14
4273.91
4274.68
4275.46
4276.23
4277
4277.77
4278.54
4279.31
4280.07
4280.84
4281.61
4282.38
4283.14
4283.91
4284.67
4285.44
4286.2
4286.97
4287.73
4288.5
4289.26
4290.03
4290.79
4291.56
4292.32
4293.09
4293.86
4294.62
4295.39
4296.15
4296.92
4297.68
4298.45
4299.21
4299.98
4300.75
4301.51
4302.28
4303.04
4303.81
4304.57
4305.33
4306.1
4306.86
4307.62
4308.39
4309.15
4309.91
4310.68
4311.44
4312.2
4312.97
4313.73
4314.49
4315.26
4316.02
4316.78
4317.55
4318.31
4319.07
4319.84
4320.6
4321.36
4322.13
4322.89
4323.65
4324.41
4325.17
4325.94
4326.7
4327.46
4328.23
4328.99
4329.76
4330.53
4331.3
4332.06
4332.83
4333.61
4334.38
4335.15
4335.92
4336.7
4337.48
4338.26
4339.05
4339.83
4340.62
4341.42
4342.22
4343.02
4343.83
4344.64
4345.46
4346.28
4347.1
4347.93
4348.75
4349.58
4350.4
4351.22
4352.03
4352.82
4353.6
4354.36
4355.08
4355.76
4356.39
4356.95
4357.42
4357.8
4358.05
4358.15
4358.08
4357.81
4357.29
4356.5
4355.4
4353.94
4352.09
4349.81
4347.06
4343.82
4340.04
4335.72
4330.8
4325.2
4318.76
4311.23
4302.19
4290.97
4276.39
4256.26
4228.26
4189.14
4137.03
4068.87
3962.75
3874.61
3847.67
3861.09
3777.53
3578.29
3466.49
3454.57
3450.32
3424.24
3409.45
3404.86
3400.18
3396.93
3395.08
3394.79
3395.28
3396.14
3399.62
3407.65
3419.52
3430.36
3446.53
3522.57
3618.61
3626.87
3614.04
3605.17
3603.34
3603.58
3610.03
3415.74
3031.92
2844.27
3309.62
3364.79
2935.98
1709.78
1329.38
1851.54
2815.76
3493.86
3187.99
2583.32
2239.72
2004.94
1558.64
610.195
246.982
554.257
970.935
1185.58
1105.63
792.922
433.7
114.597
-3.29999
51.3574
43.7552
3154.63
3561.15
4363.95
4438.52
4254.08
4184.4
4213.56
4243.78
4247.27
4240.45
4237.58
4239.2
4241.38
4242.44
4242.92
4243.49
4244.28
4245.13
4245.92
4246.69
4247.46
4248.23
4249.01
4249.79
4250.57
4251.35
4252.12
4252.9
4253.68
4254.46
4255.23
4256.01
4256.79
4257.57
4258.34
4259.12
4259.9
4260.68
4261.45
4262.23
4263.01
4263.79
4264.56
4265.34
4266.12
4266.89
4267.67
4268.45
4269.22
4270
4270.77
4271.55
4272.32
4273.1
4273.87
4274.64
4275.42
4276.19
4276.96
4277.73
4278.5
4279.27
4280.04
4280.81
4281.58
4282.34
4283.11
4283.88
4284.64
4285.41
4286.18
4286.94
4287.71
4288.48
4289.24
4290.01
4290.77
4291.54
4292.31
4293.07
4293.84
4294.6
4295.37
4296.14
4296.9
4297.67
4298.43
4299.2
4299.96
4300.73
4301.5
4302.26
4303.03
4303.79
4304.55
4305.32
4306.08
4306.85
4307.61
4308.37
4309.13
4309.9
4310.66
4311.42
4312.18
4312.95
4313.71
4314.47
4315.23
4316
4316.76
4317.52
4318.28
4319.04
4319.8
4320.56
4321.32
4322.08
4322.84
4323.6
4324.35
4325.11
4325.86
4326.62
4327.37
4328.13
4328.88
4329.64
4330.39
4331.14
4331.89
4332.64
4333.39
4334.13
4334.87
4335.62
4336.36
4337.09
4337.83
4338.56
4339.29
4340.02
4340.74
4341.46
4342.17
4342.88
4343.58
4344.27
4344.95
4345.62
4346.27
4346.9
4347.52
4348.11
4348.67
4349.19
4349.67
4350.11
4350.49
4350.79
4351.02
4351.16
4351.19
4351.09
4350.84
4350.42
4349.81
4348.98
4347.89
4346.51
4344.81
4342.75
4340.27
4337.34
4333.91
4329.92
4325.31
4320.01
4313.91
4306.91
4298.85
4289.52
4278.65
4265.85
4250.52
4231.8
4208.53
4179.06
4141.65
4093.9
4035.77
3967.59
3900.57
3827.38
3727.41
3596.65
3507.86
3481.98
3480.53
3466.16
3442.45
3426.08
3417.46
3410.28
3403.98
3400.4
3400.84
3406.52
3417
3430.59
3449.11
3475.26
3510.61
3550.8
3583.11
3602.55
3612.72
3619.27
3624.82
3630.82
3634.72
3643.75
3644.84
3589.1
3321.98
3228.75
3195.42
3083.16
2667.37
1790.37
1494.48
2545.68
2882.42
2576.81
2496.32
2436.22
2290.18
2089.81
1811.9
1077.01
-325.236
-399.436
205.759
574.897
826.417
931.89
753.68
403.748
128.938
24.4068
3154.52
3561.02
4363.91
4438.5
4254.06
4184.38
4213.55
4243.79
4247.28
4240.47
4237.6
4239.23
4241.41
4242.48
4242.96
4243.54
4244.33
4245.17
4245.97
4246.74
4247.51
4248.29
4249.07
4249.85
4250.62
4251.4
4252.18
4252.95
4253.73
4254.51
4255.28
4256.06
4256.84
4257.61
4258.39
4259.17
4259.94
4260.72
4261.5
4262.27
4263.05
4263.83
4264.6
4265.38
4266.16
4266.93
4267.71
4268.48
4269.26
4270.03
4270.81
4271.58
4272.36
4273.13
4273.9
4274.67
4275.44
4276.22
4276.99
4277.76
4278.53
4279.29
4280.06
4280.83
4281.6
4282.37
4283.13
4283.9
4284.67
4285.43
4286.2
4286.97
4287.73
4288.5
4289.27
4290.03
4290.8
4291.56
4292.33
4293.1
4293.86
4294.63
4295.39
4296.16
4296.93
4297.69
4298.46
4299.22
4299.99
4300.75
4301.51
4302.28
4303.04
4303.81
4304.57
4305.33
4306.1
4306.86
4307.62
4308.38
4309.15
4309.91
4310.67
4311.43
4312.19
4312.96
4313.72
4314.48
4315.24
4316
4316.76
4317.52
4318.28
4319.03
4319.79
4320.55
4321.3
4322.06
4322.81
4323.56
4324.32
4325.07
4325.81
4326.56
4327.31
4328.05
4328.79
4329.53
4330.27
4331
4331.73
4332.46
4333.19
4333.91
4334.62
4335.33
4336.03
4336.73
4337.42
4338.1
4338.78
4339.44
4340.09
4340.73
4341.35
4341.96
4342.55
4343.12
4343.67
4344.19
4344.68
4345.13
4345.54
4345.91
4346.23
4346.48
4346.67
4346.79
4346.81
4346.74
4346.55
4346.24
4345.78
4345.15
4344.34
4343.32
4342.06
4340.53
4338.71
4336.56
4334.03
4331.09
4327.69
4323.78
4319.29
4314.17
4308.35
4301.72
4294.2
4285.64
4275.89
4264.75
4251.95
4237.14
4219.88
4199.61
4175.69
4147.42
4114.25
4075.86
4032.32
3983.06
3926.75
3863.09
3795.71
3733.4
3685.85
3646.65
3607.42
3567.75
3532.11
3503.13
3480.57
3462.89
3449.38
3440.24
3435.35
3434.19
3435.84
3439.86
3447.02
3458.38
3474.66
3497.23
3528.68
3563.63
3588.28
3600.4
3606.06
3612.06
3623.05
3643.94
3681.52
3667.47
3511.03
3282.68
3158.26
3157.02
3150.06
2983.39
2063.25
1869.75
2147.98
2273.67
2313.27
2309.36
2108.09
2039.29
2141.34
1853.73
891.921
-509.276
-342.55
160.675
-231.885
-410.33
-301.084
-177.248
-50.5527
4.79861
3154.4
3560.85
4363.81
4438.44
4253.98
4184.29
4213.46
4243.7
4247.2
4240.38
4237.52
4239.15
4241.33
4242.4
4242.88
4243.46
4244.26
4245.1
4245.9
4246.67
4247.44
4248.22
4249
4249.78
4250.56
4251.34
4252.11
4252.89
4253.67
4254.45
4255.23
4256
4256.78
4257.56
4258.34
4259.11
4259.89
4260.67
4261.45
4262.22
4263
4263.78
4264.56
4265.33
4266.11
4266.89
4267.66
4268.44
4269.21
4269.99
4270.76
4271.54
4272.31
4273.09
4273.86
4274.63
4275.4
4276.17
4276.95
4277.72
4278.49
4279.26
4280.03
4280.79
4281.56
4282.33
4283.1
4283.87
4284.63
4285.4
4286.17
4286.94
4287.7
4288.47
4289.24
4290.01
4290.77
4291.54
4292.31
4293.07
4293.84
4294.61
4295.37
4296.14
4296.91
4297.67
4298.44
4299.2
4299.97
4300.73
4301.49
4302.26
4303.02
4303.79
4304.55
4305.31
4306.08
4306.84
4307.6
4308.36
4309.13
4309.89
4310.65
4311.41
4312.17
4312.93
4313.69
4314.45
4315.21
4315.97
4316.73
4317.49
4318.24
4319
4319.76
4320.51
4321.26
4322.01
4322.76
4323.51
4324.26
4325
4325.74
4326.48
4327.22
4327.95
4328.69
4329.41
4330.14
4330.86
4331.57
4332.28
4332.98
4333.68
4334.36
4335.04
4335.71
4336.37
4337.02
4337.66
4338.28
4338.89
4339.47
4340.04
4340.59
4341.11
4341.6
4342.06
4342.48
4342.87
4343.21
4343.5
4343.73
4343.91
4344.01
4344.03
4343.96
4343.79
4343.51
4343.1
4342.55
4341.85
4340.96
4339.88
4338.59
4337.04
4335.23
4333.11
4330.66
4327.83
4324.59
4320.89
4316.68
4311.92
4306.53
4300.44
4293.59
4285.87
4277.18
4267.39
4256.35
4243.89
4229.79
4213.79
4195.61
4174.94
4151.45
4124.84
4094.85
4061.34
4024.25
3983.83
3940.77
3896.65
3852.77
3809.07
3764.69
3720.8
3680.16
3644.46
3613.34
3586.02
3562.35
3542.37
3525.86
3512.64
3502.63
3495.81
3492.21
3491.98
3495.26
3502.14
3512.31
3524.89
3537.89
3548.28
3553.54
3553.81
3551.04
3546.13
3537.41
3518.76
3479.24
3402.1
3284.26
3188.17
3157.5
3173.49
3220.92
3140.33
2808.39
2436.31
2194.44
2079.26
2070.74
2095.97
2045.96
1865.5
1741.44
1805.31
1776.03
1473.8
861.026
682.229
503.09
72.9844
-264.761
-244.437
-32.6639
43.7174
3154.32
3560.74
4363.76
4438.41
4253.95
4184.25
4213.42
4243.67
4247.18
4240.37
4237.51
4239.15
4241.33
4242.4
4242.89
4243.47
4244.27
4245.12
4245.92
4246.69
4247.46
4248.24
4249.03
4249.81
4250.59
4251.37
4252.15
4252.92
4253.7
4254.48
4255.26
4256.04
4256.82
4257.59
4258.37
4259.15
4259.93
4260.7
4261.48
4262.26
4263.04
4263.81
4264.59
4265.37
4266.14
4266.92
4267.7
4268.47
4269.25
4270.02
4270.8
4271.57
4272.34
4273.12
4273.89
4274.66
4275.43
4276.2
4276.97
4277.74
4278.51
4279.28
4280.05
4280.82
4281.59
4282.36
4283.13
4283.89
4284.66
4285.43
4286.2
4286.97
4287.73
4288.5
4289.27
4290.04
4290.8
4291.57
4292.34
4293.11
4293.87
4294.64
4295.41
4296.17
4296.94
4297.7
4298.47
4299.23
4299.99
4300.76
4301.52
4302.28
4303.05
4303.81
4304.57
4305.34
4306.1
4306.86
4307.62
4308.39
4309.15
4309.91
4310.67
4311.43
4312.19
4312.95
4313.71
4314.47
4315.23
4315.98
4316.74
4317.5
4318.25
4319.01
4319.76
4320.51
4321.26
4322.01
4322.75
4323.5
4324.24
4324.98
4325.71
4326.45
4327.18
4327.9
4328.62
4329.34
4330.05
4330.75
4331.45
4332.14
4332.83
4333.5
4334.17
4334.82
4335.46
4336.09
4336.7
4337.29
4337.87
4338.43
4338.96
4339.46
4339.94
4340.38
4340.78
4341.15
4341.47
4341.74
4341.95
4342.1
4342.19
4342.19
4342.1
4341.92
4341.63
4341.23
4340.68
4339.99
4339.14
4338.1
4336.87
4335.41
4333.7
4331.72
4329.44
4326.82
4323.84
4320.45
4316.62
4312.29
4307.43
4301.96
4295.83
4288.98
4281.32
4272.77
4263.22
4252.57
4240.69
4227.44
4212.65
4196.15
4177.76
4157.29
4134.55
4109.37
4081.65
4051.36
4018.61
3983.69
3947.03
3909.05
3870.06
3830.56
3791.64
3754.85
3721.09
3690.15
3661.54
3635.13
3611.18
3589.9
3571.24
3555.11
3541.45
3530.2
3521.25
3514.37
3509.27
3505.62
3502.97
3500.77
3498.35
3494.93
3489.54
3481.18
3468.96
3451.93
3428.74
3397.63
3356.77
3305.92
3246.33
3183.22
3116.98
3033.25
2914.78
2724.25
2470.51
2271.48
2196.14
2213.26
2283.22
2366.37
2451.69
2379
2025.55
1667.42
1683.09
1560.26
1094.96
773.729
621.291
348.268
-258.075
-723.506
-701.866
-227.597
3154.26
3560.65
4363.71
4438.38
4253.91
4184.21
4213.38
4243.63
4247.14
4240.33
4237.47
4239.11
4241.29
4242.37
4242.85
4243.44
4244.23
4245.08
4245.88
4246.66
4247.43
4248.21
4248.99
4249.77
4250.55
4251.33
4252.11
4252.89
4253.67
4254.45
4255.22
4256
4256.78
4257.56
4258.33
4259.11
4259.89
4260.67
4261.44
4262.22
4263
4263.78
4264.55
4265.33
4266.11
4266.88
4267.66
4268.43
4269.21
4269.98
4270.76
4271.53
4272.3
4273.08
4273.85
4274.62
4275.39
4276.16
4276.93
4277.71
4278.48
4279.25
4280.01
4280.78
4281.55
4282.32
4283.09
4283.86
4284.63
4285.4
4286.17
4286.94
4287.7
4288.47
4289.24
4290.01
4290.78
4291.55
4292.32
4293.08
4293.85
4294.62
4295.38
4296.15
4296.91
4297.68
4298.44
4299.21
4299.97
4300.74
4301.5
4302.26
4303.03
4303.79
4304.55
4305.31
4306.08
4306.84
4307.6
4308.36
4309.13
4309.89
4310.65
4311.41
4312.17
4312.93
4313.69
4314.44
4315.2
4315.96
4316.71
4317.47
4318.22
4318.98
4319.73
4320.48
4321.22
4321.97
4322.71
4323.45
4324.19
4324.93
4325.66
4326.39
4327.11
4327.83
4328.54
4329.25
4329.95
4330.65
4331.33
4332.01
4332.68
4333.34
4333.98
4334.62
4335.23
4335.83
4336.42
4336.98
4337.52
4338.03
4338.52
4338.97
4339.39
4339.77
4340.11
4340.4
4340.63
4340.81
4340.92
4340.96
4340.92
4340.79
4340.56
4340.21
4339.75
4339.15
4338.4
4337.49
4336.39
4335.09
4333.58
4331.81
4329.78
4327.46
4324.81
4321.8
4318.41
4314.58
4310.28
4305.46
4300.08
4294.08
4287.39
4279.96
4271.71
4262.56
4252.42
4241.2
4228.79
4215.09
4199.97
4183.31
4164.99
4144.9
4122.92
4099
4073.09
4045.23
4015.53
3984.16
3951.36
3917.5
3883.04
3848.62
3814.85
3782.19
3750.84
3720.96
3692.74
3666.43
3642.18
3620.1
3600.14
3582.26
3566.36
3552.33
3539.98
3529.1
3519.43
3510.68
3502.48
3494.33
3485.64
3475.61
3463.37
3448.03
3428.87
3405.31
3376.77
3342.49
3301.5
3252.44
3193.63
3123.85
3044.1
2955.69
2858.2
2751.68
2640.57
2540.33
2459.3
2390.13
2319.07
2229.42
2107.97
1930.19
1707.69
1509.8
1359.27
1143.66
887.472
704.822
608.564
554.01
498.322
389.929
219.26
38.9794
3154.22
3560.59
4363.68
4438.36
4253.89
4184.18
4213.36
4243.61
4247.12
4240.32
4237.46
4239.1
4241.28
4242.36
4242.85
4243.43
4244.23
4245.08
4245.89
4246.66
4247.43
4248.22
4249
4249.78
4250.57
4251.35
4252.13
4252.91
4253.69
4254.47
4255.24
4256.02
4256.8
4257.58
4258.36
4259.14
4259.92
4260.69
4261.47
4262.25
4263.03
4263.8
4264.58
4265.36
4266.13
4266.91
4267.69
4268.46
4269.24
4270.01
4270.78
4271.56
4272.33
4273.1
4273.88
4274.65
4275.42
4276.19
4276.96
4277.73
4278.5
4279.27
4280.04
4280.81
4281.58
4282.35
4283.12
4283.89
4284.66
4285.43
4286.2
4286.97
4287.74
4288.51
4289.28
4290.04
4290.81
4291.58
4292.35
4293.12
4293.89
4294.65
4295.42
4296.18
4296.95
4297.71
4298.48
4299.24
4300.01
4300.77
4301.53
4302.29
4303.06
4303.82
4304.58
4305.34
4306.11
4306.87
4307.63
4308.39
4309.15
4309.92
4310.68
4311.44
4312.2
4312.95
4313.71
4314.47
4315.23
4315.98
4316.74
4317.49
4318.24
4318.99
4319.74
4320.49
4321.24
4321.98
4322.72
4323.46
4324.2
4324.93
4325.66
4326.38
4327.1
4327.82
4328.52
4329.23
4329.92
4330.61
4331.28
4331.95
4332.61
4333.25
4333.88
4334.5
4335.1
4335.68
4336.25
4336.79
4337.3
4337.78
4338.23
4338.65
4339.03
4339.36
4339.65
4339.88
4340.06
4340.17
4340.2
4340.16
4340.03
4339.8
4339.46
4339
4338.4
4337.66
4336.76
4335.69
4334.41
4332.93
4331.2
4329.22
4326.96
4324.38
4321.46
4318.17
4314.47
4310.32
4305.69
4300.52
4294.76
4288.37
4281.29
4273.45
4264.79
4255.24
4244.71
4233.12
4220.39
4206.43
4191.15
4174.46
4156.28
4136.53
4115.16
4092.16
4067.51
4041.28
4013.56
3984.52
3954.38
3923.43
3892.02
3860.48
3829.14
3798.33
3768.39
3739.64
3712.31
3686.57
3662.48
3640.1
3619.42
3600.41
3582.98
3566.99
3552.29
3538.64
3525.77
3513.36
3501.01
3488.25
3474.56
3459.36
3442.04
3421.99
3398.63
3371.35
3339.52
3302.39
3259.17
3209.18
3152.11
3088.31
3018.71
2943.85
2863.05
2774.88
2677.83
2572.91
2465.35
2359.42
2254.24
2145.55
2028.4
1899.83
1758.26
1604.03
1441.48
1274.96
1107.07
939.951
777.275
611.995
420.763
205.771
38.4261
-30.4325
3154.19
3560.56
4363.66
4438.35
4253.88
4184.17
4213.34
4243.6
4247.11
4240.3
4237.44
4239.08
4241.27
4242.35
4242.83
4243.42
4244.22
4245.07
4245.87
4246.65
4247.42
4248.2
4248.99
4249.77
4250.55
4251.33
4252.11
4252.89
4253.67
4254.44
4255.22
4256
4256.78
4257.56
4258.34
4259.11
4259.89
4260.67
4261.44
4262.22
4263
4263.77
4264.55
4265.33
4266.1
4266.88
4267.65
4268.43
4269.2
4269.98
4270.75
4271.52
4272.3
4273.07
4273.84
4274.61
4275.38
4276.16
4276.93
4277.7
4278.47
4279.24
4280.01
4280.78
4281.55
4282.32
4283.09
4283.86
4284.63
4285.4
4286.17
4286.94
4287.71
4288.48
4289.25
4290.02
4290.79
4291.56
4292.33
4293.09
4293.86
4294.63
4295.4
4296.16
4296.93
4297.69
4298.46
4299.22
4299.98
4300.75
4301.51
4302.27
4303.04
4303.8
4304.56
4305.32
4306.09
4306.85
4307.61
4308.37
4309.13
4309.89
4310.65
4311.42
4312.18
4312.94
4313.69
4314.45
4315.21
4315.96
4316.72
4317.47
4318.23
4318.98
4319.73
4320.47
4321.22
4321.96
4322.7
4323.44
4324.18
4324.91
4325.64
4326.36
4327.08
4327.79
4328.49
4329.19
4329.88
4330.56
4331.24
4331.9
4332.55
4333.19
4333.81
4334.42
4335.01
4335.59
4336.14
4336.66
4337.16
4337.63
4338.06
4338.46
4338.81
4339.12
4339.37
4339.57
4339.71
4339.78
4339.77
4339.68
4339.49
4339.2
4338.8
4338.27
4337.6
4336.78
4335.78
4334.61
4333.23
4331.63
4329.78
4327.66
4325.25
4322.52
4319.44
4315.97
4312.08
4307.74
4302.89
4297.5
4291.52
4284.9
4277.57
4269.48
4260.57
4250.77
4240.01
4228.2
4215.29
4201.18
4185.81
4169.11
4151.01
4131.48
4110.47
4087.98
4064.04
4038.71
4012.09
3984.33
3955.61
3926.18
3896.3
3866.24
3836.33
3806.86
3778.12
3750.36
3723.76
3698.45
3674.53
3652.04
3631.01
3611.4
3593.12
3576.04
3559.98
3544.72
3529.98
3515.44
3500.71
3485.4
3469.04
3451.14
3431.16
3408.57
3382.79
3353.28
3319.5
3280.91
3237.06
3187.55
3132.13
3070.6
3002.8
2928.51
2847.47
2759.63
2665.69
2567.44
2467.38
2366.76
2264.29
2156.84
2040.92
1913.59
1772.75
1619.41
1459.33
1296.77
1129.69
958.188
788.286
624.482
466.336
319.162
178.8
75.0509
3154.18
3560.55
4363.65
4438.34
4253.87
4184.16
4213.33
4243.59
4247.11
4240.3
4237.44
4239.08
4241.27
4242.35
4242.83
4243.42
4244.22
4245.07
4245.88
4246.65
4247.43
4248.21
4248.99
4249.78
4250.56
4251.34
4252.12
4252.9
4253.68
4254.46
4255.24
4256.02
4256.8
4257.58
4258.36
4259.13
4259.91
4260.69
4261.47
4262.25
4263.02
4263.8
4264.58
4265.35
4266.13
4266.9
4267.68
4268.45
4269.23
4270
4270.78
4271.55
4272.32
4273.1
4273.87
4274.64
4275.41
4276.18
4276.95
4277.73
4278.5
4279.27
4280.04
4280.81
4281.58
4282.35
4283.12
4283.89
4284.66
4285.43
4286.2
4286.97
4287.74
4288.51
4289.28
4290.05
4290.82
4291.59
4292.36
4293.13
4293.9
4294.67
4295.43
4296.2
4296.96
4297.73
4298.49
4299.26
4300.02
4300.78
4301.55
4302.31
4303.07
4303.83
4304.6
4305.36
4306.12
4306.88
4307.64
4308.41
4309.17
4309.93
4310.69
4311.45
4312.21
4312.97
4313.73
4314.48
4315.24
4316
4316.75
4317.5
4318.26
4319.01
4319.76
4320.5
4321.25
4322
4322.74
4323.48
4324.21
4324.94
4325.67
4326.39
4327.11
4327.82
4328.53
4329.23
4329.92
4330.6
4331.27
4331.93
4332.58
4333.22
4333.84
4334.45
4335.04
4335.61
4336.16
4336.68
4337.17
4337.64
4338.06
4338.45
4338.8
4339.1
4339.35
4339.54
4339.67
4339.72
4339.7
4339.6
4339.39
4339.08
4338.66
4338.1
4337.41
4336.56
4335.54
4334.33
4332.91
4331.26
4329.37
4327.21
4324.74
4321.95
4318.81
4315.27
4311.31
4306.89
4301.96
4296.49
4290.41
4283.69
4276.26
4268.07
4259.05
4249.14
4238.27
4226.36
4213.34
4199.15
4183.71
4166.96
4148.85
4129.33
4108.39
4086.02
4062.26
4037.17
4010.87
3983.49
3955.22
3926.3
3896.96
3867.5
3838.19
3809.3
3781.08
3753.75
3727.49
3702.44
3678.71
3656.35
3635.37
3615.72
3597.33
3580.04
3563.67
3547.99
3532.73
3517.56
3502.12
3486
3468.76
3449.91
3428.95
3405.37
3378.63
3348.24
3313.69
3274.51
3230.24
3180.48
3124.91
3063.29
2995.59
2921.94
2842.61
2757.97
2668.48
2574.57
2476.52
2374.09
2266.23
2151.24
2027.51
1894.01
1750.51
1597.8
1437.88
1273.87
1109.31
947.384
790.286
638.919
491.18
347.002
196.772
77.6357
3154.19
3560.56
4363.66
4438.35
4253.88
4184.17
4213.34
4243.6
4247.11
4240.3
4237.44
4239.08
4241.27
4242.35
4242.83
4243.42
4244.22
4245.07
4245.87
4246.65
4247.42
4248.2
4248.99
4249.77
4250.55
4251.33
4252.11
4252.89
4253.67
4254.45
4255.23
4256
4256.78
4257.56
4258.34
4259.11
4259.89
4260.67
4261.45
4262.22
4263
4263.77
4264.55
4265.33
4266.1
4266.88
4267.65
4268.42
4269.2
4269.97
4270.75
4271.52
4272.29
4273.06
4273.84
4274.61
4275.38
4276.15
4276.92
4277.69
4278.46
4279.23
4280.01
4280.78
4281.55
4282.32
4283.09
4283.86
4284.63
4285.4
4286.18
4286.95
4287.72
4288.49
4289.26
4290.03
4290.8
4291.57
4292.34
4293.11
4293.88
4294.64
4295.41
4296.18
4296.94
4297.71
4298.47
4299.24
4300
4300.76
4301.53
4302.29
4303.05
4303.81
4304.58
4305.34
4306.1
4306.86
4307.63
4308.39
4309.15
4309.91
4310.67
4311.43
4312.19
4312.95
4313.71
4314.47
4315.23
4315.99
4316.74
4317.5
4318.25
4319
4319.75
4320.5
4321.25
4322
4322.74
4323.48
4324.22
4324.95
4325.68
4326.41
4327.13
4327.84
4328.55
4329.25
4329.95
4330.63
4331.31
4331.98
4332.63
4333.27
4333.9
4334.51
4335.11
4335.69
4336.24
4336.77
4337.28
4337.75
4338.19
4338.59
4338.95
4339.26
4339.52
4339.73
4339.87
4339.95
4339.95
4339.86
4339.68
4339.39
4338.99
4338.47
4337.8
4336.98
4335.99
4334.81
4333.43
4331.82
4329.96
4327.83
4325.41
4322.66
4319.56
4316.07
4312.15
4307.78
4302.89
4297.46
4291.43
4284.75
4277.37
4269.21
4260.22
4250.33
4239.47
4227.56
4214.52
4200.28
4184.77
4167.91
4149.65
4129.94
4108.75
4086.09
4061.98
4036.5
4009.75
3981.92
3953.18
3923.8
3894.03
3864.19
3834.58
3805.5
3777.22
3749.95
3723.86
3699.07
3675.67
3653.72
3633.21
3614.1
3596.29
3579.64
3563.97
3549.02
3534.53
3520.16
3505.53
3490.22
3473.77
3455.68
3435.44
3412.49
3386.29
3356.29
3321.96
3282.78
3238.3
3188.16
3132.14
3070.11
3001.95
2927.53
2846.7
2759.62
2667.15
2571.1
2473.15
2373.07
2268.56
2156.87
2036.09
1905.28
1763.53
1609.07
1440.11
1261.07
1082.05
909.114
743.369
587.022
441.222
306.883
172.86
69.7852
3154.22
3560.59
4363.68
4438.36
4253.89
4184.18
4213.36
4243.61
4247.12
4240.32
4237.46
4239.1
4241.29
4242.36
4242.85
4243.43
4244.23
4245.08
4245.89
4246.66
4247.44
4248.22
4249
4249.79
4250.57
4251.35
4252.13
4252.91
4253.69
4254.47
4255.25
4256.03
4256.81
4257.58
4258.36
4259.14
4259.92
4260.7
4261.47
4262.25
4263.03
4263.8
4264.58
4265.35
4266.13
4266.9
4267.68
4268.45
4269.23
4270
4270.77
4271.55
4272.32
4273.09
4273.86
4274.64
4275.41
4276.18
4276.95
4277.72
4278.49
4279.27
4280.04
4280.81
4281.58
4282.35
4283.12
4283.9
4284.67
4285.44
4286.21
4286.98
4287.75
4288.52
4289.3
4290.07
4290.84
4291.61
4292.38
4293.14
4293.91
4294.68
4295.45
4296.21
4296.98
4297.74
4298.51
4299.27
4300.04
4300.8
4301.56
4302.33
4303.09
4303.85
4304.61
4305.38
4306.14
4306.9
4307.66
4308.43
4309.19
4309.95
4310.71
4311.47
4312.23
4312.99
4313.75
4314.51
4315.27
4316.03
4316.78
4317.54
4318.29
4319.05
4319.8
4320.55
4321.3
4322.05
4322.8
4323.54
4324.28
4325.02
4325.75
4326.48
4327.21
4327.93
4328.64
4329.35
4330.05
4330.74
4331.43
4332.1
4332.76
4333.42
4334.06
4334.68
4335.29
4335.89
4336.46
4337.01
4337.53
4338.03
4338.49
4338.92
4339.31
4339.65
4339.95
4340.2
4340.39
4340.51
4340.55
4340.52
4340.4
4340.18
4339.85
4339.4
4338.81
4338.07
4337.17
4336.09
4334.81
4333.32
4331.58
4329.58
4327.29
4324.68
4321.72
4318.39
4314.63
4310.42
4305.71
4300.46
4294.61
4288.11
4280.91
4272.94
4264.12
4254.39
4243.67
4231.86
4218.9
4204.67
4189.09
4172.08
4153.55
4133.44
4111.69
4088.3
4063.28
4036.7
4008.7