/*--------------------------------*- C++ -*----------------------------------*\
| =========                 |                                                 |
| \\      /  F ield         | OpenFOAM: The Open Source CFD Toolbox           |
|  \\    /   O peration     | Version:  2406                                  |
|   \\  /    A nd           | Website:  www.openfoam.com                      |
|    \\/     M anipulation  |                                                 |
\*---------------------------------------------------------------------------*/
FoamFile
{
    version     2.0;
    format      ascii;
    arch        "LSB;label=32;scalar=64";
    class       surfaceScalarField;
    location    "0.3";
    object      phi;
}
// * * * * * * * * * * * * * * * * * * * * * * * * * * * * * * * * * * * * * //

dimensions      [0 3 -1 0 0 0 0];

oriented        oriented;

internalField   nonuniform List<scalar> 
12225
(
0.353349
2.32111e-07
0.353345
4.59044e-06
0.353338
6.71188e-06
0.353333
4.62563e-06
0.35333
3.75426e-06
0.353325
4.60095e-06
0.35332
5.13871e-06
0.353314
6.2431e-06
0.353306
7.39268e-06
0.353299
7.17353e-06
0.353292
7.0641e-06
0.353285
6.92234e-06
0.353279
6.38122e-06
0.353273
5.23174e-06
0.35327
3.89409e-06
0.353266
3.30949e-06
0.353263
3.67553e-06
0.353259
4.03396e-06
0.353255
3.98748e-06
0.35325
4.54215e-06
0.353245
5.48067e-06
0.353238
6.31051e-06
0.353231
7.20283e-06
0.353223
7.89528e-06
0.353216
7.33355e-06
0.35321
6.25741e-06
0.353204
6.01062e-06
0.353198
6.00857e-06
0.353192
5.40581e-06
0.353187
4.96202e-06
0.353182
5.5717e-06
0.353175
6.75862e-06
0.353168
7.30239e-06
0.353161
6.67733e-06
0.353155
5.70526e-06
0.35315
4.82845e-06
0.353146
3.9369e-06
0.353143
3.1789e-06
0.35314
2.80927e-06
0.353137
2.92773e-06
0.353134
3.34651e-06
0.35313
3.68251e-06
0.353127
3.5881e-06
0.353124
3.13088e-06
0.353121
2.47232e-06
0.35312
1.65331e-06
0.353119
8.64544e-07
0.353118
4.0904e-07
0.353118
7.56714e-07
0.353116
1.36364e-06
0.353115
1.64289e-06
0.353113
1.53391e-06
0.353112
1.23232e-06
0.353111
6.84153e-07
0.353111
-6.32106e-08
0.353111
-3.04792e-07
0.353111
4.48829e-07
0.35311
1.44439e-06
0.353108
1.61904e-06
0.353107
1.05525e-06
0.353106
4.95476e-07
0.353106
2.14998e-07
0.353106
-1.48955e-07
0.353107
-7.4616e-07
0.353108
-7.60681e-07
0.353108
2.93216e-08
0.353107
1.20806e-06
0.353105
1.37497e-06
0.353104
7.88393e-07
0.353105
-5.8839e-08
0.353105
-7.31248e-07
0.353106
-1.11355e-06
0.353108
-1.37725e-06
0.353109
-1.41344e-06
0.35311
-1.12744e-06
0.353111
-6.37105e-07
0.353111
-2.70702e-07
0.353111
-2.64144e-07
0.353112
-5.18604e-07
0.353113
-6.99748e-07
0.353113
-6.39418e-07
0.353114
-5.34923e-07
0.353115
-6.73282e-07
0.353116
-9.98577e-07
0.353117
-1.14666e-06
0.353118
-9.21153e-07
0.353118
-5.69952e-07
0.353119
-4.88104e-07
0.353119
-7.49843e-07
0.35312
-1.06358e-06
0.353122
-1.15097e-06
0.353123
-1.08577e-06
0.353124
-1.14083e-06
0.353125
-1.41879e-06
0.353127
-1.7624e-06
0.353129
-1.96397e-06
0.353131
-1.97286e-06
0.353133
-1.89164e-06
0.353135
-1.8144e-06
0.353136
-1.7297e-06
0.353138
-1.57973e-06
0.353139
-1.35022e-06
0.35314
-1.08787e-06
0.353141
-8.5477e-07
0.353142
-6.92441e-07
0.353143
-5.84501e-07
0.353143
-4.91376e-07
0.353143
-3.61763e-07
0.353144
-1.86448e-07
0.353144
-2.44245e-08
0.353144
5.71549e-08
0.353144
-1.5543e-08
0.353144
-1.93766e-07
0.353144
-3.68252e-07
0.353145
-4.31144e-07
0.353145
-3.43855e-07
0.353145
-1.83027e-07
0.353145
-2.39534e-08
0.353145
2.92322e-10
0.353145
-1.22003e-07
0.353146
-2.98372e-07
0.353146
-3.87459e-07
0.353146
-2.86039e-07
0.353146
-4.10931e-08
0.353146
1.80506e-07
0.353146
2.0831e-07
0.353146
8.04879e-08
0.353146
-1.03783e-07
0.353146
-2.04196e-07
0.353146
-1.81137e-07
0.353146
-1.29572e-07
0.353147
-1.1486e-07
0.353147
-2.20818e-07
0.353147
-3.63824e-07
0.353148
-4.32415e-07
0.353148
-3.6086e-07
0.353148
-2.20397e-07
0.353148
-1.34146e-07
0.353148
-1.69222e-07
0.353149
-2.70247e-07
0.353149
-2.98676e-07
0.353149
-1.62607e-07
0.353149
1.28051e-07
0.353149
4.2378e-07
0.353148
6.22735e-07
0.353147
7.16189e-07
0.353147
7.06422e-07
0.353146
5.7179e-07
0.353146
3.58881e-07
0.353146
9.88943e-08
0.353146
-5.31668e-09
0.353145
2.67227e-07
0.353144
7.63063e-07
0.353143
1.16505e-06
0.353142
1.20163e-06
0.353141
8.78512e-07
0.353141
4.31505e-07
0.353141
1.06911e-07
0.353141
-1.86305e-08
0.353141
7.91865e-08
0.35314
3.59114e-07
0.35314
6.97946e-07
0.353139
9.51508e-07
0.353138
9.866e-07
0.353137
7.6952e-07
0.353136
4.04176e-07
0.353136
1.00971e-07
0.353136
-5.93184e-08
0.353137
-1.67777e-07
0.353137
-1.69459e-07
0.353137
-1.19512e-08
0.353136
3.33042e-07
0.353136
6.69492e-07
0.353135
8.21003e-07
0.353134
6.917e-07
0.353134
3.74583e-07
0.353134
-2.69812e-08
0.353134
-2.74378e-07
0.353134
-3.00903e-07
0.353135
-1.34046e-07
0.353134
1.29837e-07
0.353134
4.08713e-07
0.353133
5.90838e-07
0.353133
6.33833e-07
0.353132
5.52119e-07
0.353132
3.94305e-07
0.353132
2.24869e-07
0.353132
2.57747e-08
0.353132
-1.83848e-07
0.353132
-3.33109e-07
0.353133
-3.44603e-07
0.353133
-1.96832e-07
0.353133
3.06286e-08
0.353132
2.13224e-07
0.353132
2.89571e-07
0.353132
2.742e-07
0.353132
2.01392e-07
0.353132
9.45255e-08
0.353132
-4.79919e-08
0.353132
-2.20256e-07
0.353132
-3.38158e-07
0.353133
-3.31011e-07
0.353133
-2.17411e-07
0.353133
-8.18346e-08
0.353133
1.43767e-08
0.353133
3.25185e-08
0.353133
2.44763e-08
0.353133
2.71133e-08
0.353133
2.63146e-08
0.353133
-4.34459e-08
0.353133
-2.41463e-07
0.353134
-5.09791e-07
0.353134
-7.53538e-07
0.353135
-9.02051e-07
0.353136
-9.5478e-07
0.353137
-9.37336e-07
0.353138
-8.51983e-07
0.353139
-7.03552e-07
0.353139
-5.4465e-07
0.35314
-4.59376e-07
0.35314
-4.88917e-07
0.353141
-5.98668e-07
0.353141
-7.21166e-07
0.353142
-8.1357e-07
0.353143
-8.73317e-07
0.353144
-9.01828e-07
0.353145
-8.59078e-07
0.353146
-6.68296e-07
0.353146
-3.2282e-07
0.353146
1.30131e-07
0.353145
4.69028e-07
0.353145
6.12111e-07
0.353144
5.95337e-07
0.353144
5.41552e-07
0.353143
5.45236e-07
0.353142
5.9151e-07
0.353142
5.80412e-07
0.353141
4.32139e-07
0.353141
1.96421e-07
0.353141
-3.05747e-08
0.353141
-1.73625e-07
0.353142
-2.20809e-07
0.353142
-2.26602e-07
0.353142
-2.59374e-07
0.353142
-3.12031e-07
0.353143
-3.38915e-07
0.353143
-3.14763e-07
0.353143
-2.2255e-07
0.353144
-2.25262e-07
-1.05927e-07
0.35335
1.18031e-06
0.353353
1.55633e-06
0.353358
1.95689e-06
0.353359
2.71729e-06
0.35336
2.77944e-06
0.353363
2.06417e-06
0.353366
2.05267e-06
0.35337
2.17956e-06
0.353375
2.14626e-06
0.35338
2.20721e-06
0.353385
2.00486e-06
0.353391
1.80666e-06
0.353395
2.21467e-06
0.353397
2.82446e-06
0.353398
3.29816e-06
0.353398
3.06263e-06
0.353399
2.66826e-06
0.3534
2.8848e-06
0.353401
2.81902e-06
0.353404
1.94599e-06
0.353408
1.26244e-06
0.353414
7.58382e-07
0.35342
3.43731e-07
0.353428
6.03634e-07
0.353434
1.49983e-06
0.353438
2.28007e-06
0.353441
2.8454e-06
0.353443
3.65755e-06
0.353444
4.33232e-06
0.353445
3.98412e-06
0.353448
2.84854e-06
0.353453
1.89336e-06
0.353458
1.56321e-06
0.353463
1.82109e-06
0.353467
2.31697e-06
0.353469
2.78041e-06
0.35347
3.21272e-06
0.353469
3.47437e-06
0.353469
3.35181e-06
0.353469
2.83857e-06
0.35347
2.31555e-06
0.353471
2.13465e-06
0.353473
2.31466e-06
0.353473
2.70551e-06
0.353472
3.119e-06
0.353471
3.22498e-06
0.353469
2.73556e-06
0.353468
1.8304e-06
0.353467
1.24121e-06
0.353467
1.08572e-06
0.353468
1.27491e-06
0.353467
1.80013e-06
0.353466
2.6757e-06
0.353463
3.44941e-06
0.35346
3.37038e-06
0.353457
2.44764e-06
0.353456
1.68347e-06
0.353456
1.67751e-06
0.353455
2.05751e-06
0.353454
2.14104e-06
0.353452
2.12081e-06
0.35345
2.57433e-06
0.353447
3.32249e-06
0.353442
3.50948e-06
0.353439
2.75332e-06
0.353437
1.75423e-06
0.353437
1.31219e-06
0.353437
1.55267e-06
0.353436
1.92042e-06
0.353434
2.07798e-06
0.353431
2.0414e-06
0.353428
1.87491e-06
0.353425
1.56092e-06
0.353422
1.18385e-06
0.35342
8.7557e-07
0.353419
7.23518e-07
0.353418
7.15132e-07
0.353417
7.98366e-07
0.353415
9.2302e-07
0.353414
1.07851e-06
0.353412
1.29645e-06
0.35341
1.55592e-06
0.353407
1.71876e-06
0.353405
1.6588e-06
0.353402
1.43461e-06
0.3534
1.24202e-06
0.353398
1.15517e-06
0.353397
1.00565e-06
0.353395
6.14105e-07
0.353394
2.66816e-08
0.353393
-4.35825e-07
0.353393
-6.44197e-07
0.353393
-7.75691e-07
0.353392
-1.01813e-06
0.353392
-1.31543e-06
0.353391
-1.43894e-06
0.353391
-1.26078e-06
0.35339
-9.04506e-07
0.353388
-6.06849e-07
0.353387
-4.76389e-07
0.353386
-4.55825e-07
0.353385
-4.35537e-07
0.353384
-3.82655e-07
0.353384
-3.25076e-07
0.353383
-2.98378e-07
0.353383
-2.91891e-07
0.353383
-2.74615e-07
0.353383
-2.36031e-07
0.353383
-2.00694e-07
0.353383
-1.78127e-07
0.353383
-1.47617e-07
0.353383
-1.03286e-07
0.353383
-2.9089e-08
0.353383
9.04157e-08
0.353382
2.04289e-07
0.353381
2.42793e-07
0.353381
1.51429e-07
0.353381
-3.86219e-08
0.353381
-2.40328e-07
0.353382
-3.75709e-07
0.353382
-4.37693e-07
0.353382
-4.87136e-07
0.353382
-5.46327e-07
0.353383
-5.7942e-07
0.353383
-5.30709e-07
0.353384
-4.16804e-07
0.353384
-3.16316e-07
0.353384
-2.84134e-07
0.353385
-3.03393e-07
0.353385
-3.12006e-07
0.353385
-2.65443e-07
0.353385
-1.79135e-07
0.353385
-9.37493e-08
0.353384
-4.37095e-08
0.353384
-4.43801e-08
0.353384
-9.62912e-09
0.353383
9.62569e-08
0.353383
2.35176e-07
0.353383
3.01497e-07
0.353382
2.23266e-07
0.353382
5.20302e-08
0.353382
-8.04313e-08
0.353382
-6.36636e-08
0.353382
5.4053e-08
0.353383
9.78606e-08
0.353383
-2.55926e-08
0.353384
-2.63128e-07
0.353385
-3.92202e-07
0.353386
-3.73679e-07
0.353387
-3.03857e-07
0.353387
-2.87138e-07
0.353387
-3.05205e-07
0.353388
-2.48097e-07
0.35339
-1.00743e-07
0.353391
2.65033e-08
0.353392
1.92218e-08
0.353392
-1.33194e-07
0.353393
-3.33933e-07
0.353393
-4.55341e-07
0.353394
-4.24278e-07
0.353394
-2.30602e-07
0.353395
7.48387e-08
0.353395
3.93852e-07
0.353396
6.14592e-07
0.353396
6.38197e-07
0.353396
4.77394e-07
0.353396
2.72156e-07
0.353395
1.8846e-07
0.353395
2.98601e-07
0.353394
5.1663e-07
0.353394
6.98991e-07
0.353393
8.46996e-07
0.353393
1.02044e-06
0.353392
1.23951e-06
0.353392
1.42644e-06
0.35339
1.47664e-06
0.353389
1.35663e-06
0.353388
1.18426e-06
0.353386
1.10144e-06
0.353385
1.19456e-06
0.353384
1.4474e-06
0.353382
1.78175e-06
0.353381
2.09037e-06
0.353379
2.29103e-06
0.353377
2.35954e-06
0.353375
2.32684e-06
0.353373
2.24255e-06
0.353371
2.13821e-06
0.353369
2.02993e-06
0.353367
1.9238e-06
0.353365
1.85236e-06
0.353362
1.85944e-06
0.353361
1.94341e-06
0.353359
2.02978e-06
0.353357
2.01731e-06
0.353355
1.87063e-06
0.353354
1.64829e-06
0.353353
1.43328e-06
0.353351
1.25933e-06
0.35335
1.09646e-06
0.353349
8.95069e-07
0.353348
6.54547e-07
0.353347
4.32309e-07
0.353347
2.37975e-07
0.353347
4.56757e-08
0.353347
-2.54969e-07
0.353348
-6.45491e-07
0.353349
-1.0471e-06
0.35335
-1.36636e-06
0.353352
-1.59675e-06
0.353353
-1.81493e-06
0.353355
-2.0635e-06
0.353356
-2.31053e-06
0.353358
-2.49262e-06
0.35336
-2.57499e-06
0.353361
-2.57378e-06
0.353363
-2.5283e-06
0.353365
-2.46852e-06
0.353367
-2.41278e-06
0.353369
-2.3837e-06
0.35337
-2.40475e-06
0.353372
-2.47786e-06
0.353374
-2.56444e-06
0.353376
-2.59948e-06
0.353378
-2.5444e-06
0.353379
-2.42535e-06
0.353381
-2.30854e-06
0.353382
-2.22786e-06
0.353384
-2.14434e-06
0.353386
-1.95847e-06
0.353388
-1.65488e-06
0.35339
-1.32571e-06
0.353392
-1.10173e-06
0.353393
-1.03797e-06
0.353395
-1.06736e-06
0.353397
-1.06978e-06
0.353398
-9.83777e-07
0.3534
-8.48844e-07
0.3534
-7.41292e-07
0.353401
-7.00874e-07
0.353402
-6.83098e-07
0.353402
-5.98228e-07
0.353402
-4.05364e-07
0.353402
-1.4746e-07
0.353402
1.33109e-07
0.353401
3.70783e-07
0.3534
5.81949e-07
0.353399
7.91737e-07
0.353398
1.00898e-06
1.2743e-06
0.353352
9.20684e-07
0.353351
1.77138e-06
0.353351
2.02364e-06
0.353352
2.24869e-06
0.353353
1.74046e-06
0.353353
2.22048e-06
0.353353
1.99287e-06
0.353353
1.58307e-06
0.353354
1.70757e-06
0.353354
1.81258e-06
0.353354
2.23821e-06
0.353353
2.94211e-06
0.353352
3.47485e-06
0.353351
3.11607e-06
0.353352
2.77377e-06
0.353352
2.7704e-06
0.353352
2.31023e-06
0.353353
2.07415e-06
0.353353
2.61447e-06
0.353352
3.35755e-06
0.35335
3.75854e-06
0.353347
3.68498e-06
0.353344
2.97342e-06
0.353342
2.50822e-06
0.353341
2.46507e-06
0.353342
1.92291e-06
0.353343
1.23683e-06
0.353346
8.64618e-07
0.353349
1.06865e-06
0.353352
1.61814e-06
0.353353
1.6671e-06
0.353353
1.44357e-06
0.353353
1.37617e-06
0.353354
1.32947e-06
0.353355
1.19439e-06
0.353357
1.03523e-06
0.353359
9.03173e-07
0.353362
9.79618e-07
0.353364
1.32229e-06
0.353365
1.54707e-06
0.353366
1.44641e-06
0.353366
1.43174e-06
0.353367
1.68574e-06
0.353368
1.90945e-06
0.353369
2.09391e-06
0.35337
2.49643e-06
0.353369
3.03353e-06
0.353368
3.24143e-06
0.353366
3.03018e-06
0.353365
2.60865e-06
0.353364
2.02659e-06
0.353364
1.28126e-06
0.353366
7.33883e-07
0.353369
8.16411e-07
0.353371
1.51817e-06
0.353371
1.932e-06
0.353371
1.75209e-06
0.353371
1.47439e-06
0.353372
1.48116e-06
0.353373
1.39875e-06
0.353374
9.27346e-07
0.353376
4.81699e-07
0.353379
6.85858e-07
0.353381
1.56747e-06
0.353381
2.12943e-06
0.353381
1.9377e-06
0.353381
1.4384e-06
0.353381
1.23918e-06
0.353382
1.39143e-06
0.353382
1.59476e-06
0.353383
1.6306e-06
0.353383
1.53858e-06
0.353383
1.38617e-06
0.353383
1.14656e-06
0.353383
7.36683e-07
0.353384
1.59724e-07
0.353385
-4.38561e-07
0.353387
-8.12645e-07
0.353389
-9.04128e-07
0.35339
-8.75312e-07
0.353393
-8.85419e-07
0.353395
-8.71011e-07
0.353397
-6.7781e-07
0.353399
-3.12108e-07
0.353401
2.97558e-08
0.353402
2.35846e-07
0.353403
4.58681e-07
0.353403
8.60199e-07
0.353402
1.36034e-06
0.3534
1.7359e-06
0.353398
1.89067e-06
0.353395
1.89097e-06
0.353393
1.81452e-06
0.35339
1.66016e-06
0.353387
1.41367e-06
0.353385
1.1359e-06
0.353383
9.23046e-07
0.353381
7.91544e-07
0.35338
6.53102e-07
0.353379
4.32456e-07
0.353378
1.6414e-07
0.353378
-4.16284e-08
0.353378
-1.82167e-07
0.353377
-2.50631e-07
0.353377
-2.66012e-07
0.353377
-2.29252e-07
0.353377
-1.34995e-07
0.353377
-1.21961e-08
0.353377
4.59552e-08
0.353377
1.20148e-08
0.353376
-6.91908e-08
0.353376
-1.00387e-07
0.353376
-1.45102e-08
0.353376
1.77665e-07
0.353376
3.68042e-07
0.353376
4.37217e-07
0.353376
3.0391e-07
0.353376
-1.41453e-08
0.353376
-3.6969e-07
0.353376
-5.80165e-07
0.353376
-5.67389e-07
0.353376
-4.19004e-07
0.353376
-2.99536e-07
0.353376
-3.11081e-07
0.353376
-4.13334e-07
0.353376
-5.09002e-07
0.353376
-5.20966e-07
0.353376
-4.54737e-07
0.353376
-3.77648e-07
0.353376
-3.4124e-07
0.353376
-3.49536e-07
0.353376
-3.65274e-07
0.353377
-3.38654e-07
0.353377
-2.56197e-07
0.353377
-1.61496e-07
0.353377
-7.77464e-08
0.353377
4.51525e-09
0.353377
1.01761e-07
0.353377
2.15304e-07
0.353377
2.69488e-07
0.353377
2.04237e-07
0.353377
4.54088e-08
0.353377
-1.0039e-07
0.353377
-1.46001e-07
0.353378
-1.34364e-07
0.353378
-1.88593e-07
0.353378
-3.83412e-07
0.353378
-6.11275e-07
0.353378
-7.01402e-07
0.353379
-5.76589e-07
0.353379
-3.29485e-07
0.353379
-1.22936e-07
0.353378
-4.20624e-08
0.353378
-7.91263e-08
0.353378
-1.61121e-07
0.353379
-2.73826e-07
0.353379
-3.91156e-07
0.353379
-4.66793e-07
0.353379
-4.33531e-07
0.353379
-2.67259e-07
0.353379
-1.04396e-08
0.353379
2.60776e-07
0.353378
5.01526e-07
0.353378
6.87856e-07
0.353378
7.777e-07
0.353378
7.29577e-07
0.353378
5.78255e-07
0.353377
4.60604e-07
0.353377
5.35836e-07
0.353377
8.43936e-07
0.353376
1.25908e-06
0.353376
1.60686e-06
0.353375
1.79578e-06
0.353374
1.85832e-06
0.353374
1.87629e-06
0.353373
1.8952e-06
0.353373
1.91316e-06
0.353372
1.93588e-06
0.353371
2.00315e-06
0.35337
2.169e-06
0.353369
2.45711e-06
0.353368
2.8377e-06
0.353367
3.22774e-06
0.353366
3.51967e-06
0.353364
3.63197e-06
0.353363
3.55523e-06
0.353362
3.3587e-06
0.353361
3.14801e-06
0.35336
3.00298e-06
0.353359
2.94122e-06
0.353358
2.94076e-06
0.353357
2.98608e-06
0.353356
3.07131e-06
0.353355
3.15798e-06
0.353353
3.15852e-06
0.353352
2.99231e-06
0.353351
2.66422e-06
0.35335
2.27123e-06
0.35335
1.9072e-06
0.353349
1.57133e-06
0.353349
1.1968e-06
0.353349
7.36366e-07
0.353349
2.12142e-07
0.35335
-2.77638e-07
0.35335
-6.42856e-07
0.353351
-9.14288e-07
0.353352
-1.17621e-06
0.353352
-1.49504e-06
0.353353
-1.87709e-06
0.353353
-2.27298e-06
0.353354
-2.62593e-06
0.353355
-2.93141e-06
0.353356
-3.21515e-06
0.353357
-3.47611e-06
0.353358
-3.68561e-06
0.353359
-3.82335e-06
0.35336
-3.90055e-06
0.353362
-3.94498e-06
0.353364
-3.97021e-06
0.353365
-3.9673e-06
0.353367
-3.93264e-06
0.353368
-3.88984e-06
0.353369
-3.86758e-06
0.353371
-3.85752e-06
0.353372
-3.80667e-06
0.353373
-3.66444e-06
0.353374
-3.43966e-06
0.353375
-3.20172e-06
0.353376
-3.01531e-06
0.353377
-2.86926e-06
0.353378
-2.69219e-06
0.353379
-2.43334e-06
0.35338
-2.1275e-06
0.353381
-1.87108e-06
0.353382
-1.73153e-06
0.353382
-1.68341e-06
0.353383
-1.63383e-06
0.353384
-1.50619e-06
0.353384
-1.29754e-06
0.353385
-1.05956e-06
0.353385
-8.33888e-07
0.353385
-6.09188e-07
0.353385
-3.33731e-07
0.353384
-1.98732e-08
0.353384
3.61079e-07
0.353384
7.45644e-07
0.353383
1.10871e-06
0.353383
1.44505e-06
0.353382
1.75608e-06
2.20581e-06
0.353349
-8.28474e-07
0.353352
-5.47412e-07
0.353353
4.3224e-07
0.353354
1.80341e-06
0.353353
2.28043e-06
0.353353
2.14775e-06
0.353354
1.63566e-06
0.353353
1.79753e-06
0.353353
2.41935e-06
0.353352
2.15638e-06
0.353353
1.62548e-06
0.353355
9.39196e-07
0.353358
8.53912e-07
0.353359
1.6788e-06
0.35336
2.30763e-06
0.35336
2.4194e-06
0.35336
2.13903e-06
0.35336
1.95674e-06
0.353361
1.90816e-06
0.353363
1.6789e-06
0.353365
1.56216e-06
0.353366
2.20188e-06
0.353366
2.73685e-06
0.353367
2.33216e-06
0.353367
2.44118e-06
0.353366
2.84928e-06
0.353365
2.37448e-06
0.353364
1.71049e-06
0.353363
1.43329e-06
0.353363
1.53976e-06
0.353363
1.83298e-06
0.353363
1.94937e-06
0.353362
1.94175e-06
0.353361
2.14308e-06
0.35336
2.32292e-06
0.353359
2.18875e-06
0.353358
1.96431e-06
0.353357
1.93942e-06
0.353356
2.09652e-06
0.353356
2.22501e-06
0.353355
2.23374e-06
0.353354
2.24399e-06
0.353354
2.17608e-06
0.353354
1.79338e-06
0.353355
1.25907e-06
0.353356
9.88205e-07
0.353358
1.20325e-06
0.35336
1.54601e-06
0.353361
1.84505e-06
0.353361
2.1808e-06
0.353361
2.50433e-06
0.35336
2.46307e-06
0.353358
1.90926e-06
0.353358
1.37086e-06
0.353358
1.399e-06
0.353358
1.75763e-06
0.353358
1.91793e-06
0.353358
1.90503e-06
0.353357
2.1635e-06
0.353356
2.66579e-06
0.353354
2.85389e-06
0.353352
2.41617e-06
0.353351
1.80958e-06
0.353351
1.62143e-06
0.353351
1.71393e-06
0.353351
1.69181e-06
0.353351
1.53246e-06
0.353351
1.49751e-06
0.353351
1.64039e-06
0.35335
1.75849e-06
0.35335
1.73087e-06
0.35335
1.70902e-06
0.35335
1.86603e-06
0.353349
2.18579e-06
0.353347
2.498e-06
0.353344
2.64686e-06
0.353341
2.65215e-06
0.353338
2.67662e-06
0.353334
2.80805e-06
0.35333
2.93013e-06
0.353327
2.82981e-06
0.353323
2.47389e-06
0.35332
2.06651e-06
0.353318
1.7764e-06
0.353317
1.49282e-06
0.353316
9.63243e-07
0.353316
1.49733e-07
0.353318
-6.93181e-07
0.353321
-1.29224e-06
0.353324
-1.6543e-06
0.353328
-1.99543e-06
0.353332
-2.40078e-06
0.353337
-2.76835e-06
0.353341
-2.96643e-06
0.353346
-2.9806e-06
0.35335
-2.88999e-06
0.353354
-2.75977e-06
0.353357
-2.59271e-06
0.35336
-2.35405e-06
0.353362
-2.03574e-06
0.353364
-1.69688e-06
0.353366
-1.39422e-06
0.353367
-1.17769e-06
0.353367
-1.03307e-06
0.353368
-9.2495e-07
0.353369
-8.23094e-07
0.353369
-7.17832e-07
0.35337
-6.28281e-07
0.353371
-5.93757e-07
0.353371
-6.26795e-07
0.353372
-6.85064e-07
0.353372
-6.93643e-07
0.353373
-6.10429e-07
0.353374
-4.67812e-07
0.353374
-3.57892e-07
0.353375
-3.58187e-07
0.353376
-4.92065e-07
0.353377
-7.20688e-07
0.353377
-9.51724e-07
0.353378
-1.06422e-06
0.353378
-9.71855e-07
0.353378
-6.98663e-07
0.353378
-3.83257e-07
0.353378
-1.97483e-07
0.353378
-1.69944e-07
0.353378
-2.55455e-07
0.353378
-3.26578e-07
0.353378
-3.0147e-07
0.353377
-2.08243e-07
0.353377
-1.3393e-07
0.353377
-1.44698e-07
0.353377
-2.48644e-07
0.353377
-3.57978e-07
0.353377
-3.72809e-07
0.353377
-2.70213e-07
0.353377
-1.13114e-07
0.353377
7.13318e-09
0.353377
6.06486e-08
0.353377
7.4735e-08
0.353377
9.77034e-08
0.353378
1.1646e-07
0.353378
8.08746e-08
0.353377
-5.67121e-08
0.353378
-2.24416e-07
0.353378
-3.48771e-07
0.353378
-4.13639e-07
0.353378
-4.77897e-07
0.353378
-5.75364e-07
0.353378
-6.46195e-07
0.353378
-5.86252e-07
0.353378
-3.70519e-07
0.353378
-1.07968e-07
0.353378
5.22701e-08
0.353378
2.64141e-08
0.353378
-1.48369e-07
0.353378
-3.72388e-07
0.353378
-5.4765e-07
0.353378
-6.02491e-07
0.353378
-4.83905e-07
0.353378
-1.87382e-07
0.353378
1.98925e-07
0.353378
5.41024e-07
0.353377
7.37766e-07
0.353377
7.94382e-07
0.353377
7.89479e-07
0.353377
7.87885e-07
0.353377
8.04004e-07
0.353377
8.47411e-07
0.353376
9.74615e-07
0.353376
1.25548e-06
0.353375
1.68216e-06
0.353375
2.1374e-06
0.353374
2.46555e-06
0.353373
2.58479e-06
0.353373
2.53637e-06
0.353372
2.44028e-06
0.353372
2.41381e-06
0.353371
2.52275e-06
0.35337
2.77536e-06
0.353369
3.13725e-06
0.353368
3.55187e-06
0.353367
3.96117e-06
0.353366
4.3158e-06
0.353365
4.57033e-06
0.353364
4.6798e-06
0.353363
4.61651e-06
0.353362
4.40262e-06
0.353361
4.12552e-06
0.35336
3.90332e-06
0.353359
3.81459e-06
0.353358
3.85461e-06
0.353357
3.95685e-06
0.353356
4.04976e-06
0.353355
4.08875e-06
0.353354
4.04043e-06
0.353354
3.86726e-06
0.353353
3.544e-06
0.353352
3.07639e-06
0.353351
2.50197e-06
0.353351
1.88118e-06
0.353351
1.25042e-06
0.353351
5.97519e-07
0.353351
-6.4312e-08
0.353352
-6.75659e-07
0.353352
-1.14871e-06
0.353353
-1.4683e-06
0.353353
-1.69503e-06
0.353354
-1.93095e-06
0.353354
-2.25199e-06
0.353355
-2.66591e-06
0.353355
-3.1261e-06
0.353356
-3.57726e-06
0.353356
-3.99348e-06
0.353357
-4.37071e-06
0.353358
-4.6951e-06
0.35336
-4.94573e-06
0.353361
-5.11897e-06
0.353362
-5.23807e-06
0.353363
-5.32918e-06
0.353365
-5.38475e-06
0.353366
-5.37363e-06
0.353368
-5.2899e-06
0.353369
-5.17001e-06
0.35337
-5.06276e-06
0.353371
-4.97951e-06
0.353373
-4.87339e-06
0.353374
-4.67863e-06
0.353375
-4.3771e-06
0.353376
-4.02534e-06
0.353377
-3.70737e-06
0.353378
-3.46041e-06
0.353378
-3.24926e-06
0.353379
-3.01441e-06
0.35338
-2.74094e-06
0.353381
-2.47309e-06
0.353381
-2.26185e-06
0.353382
-2.10579e-06
0.353382
-1.94709e-06
0.353383
-1.72105e-06
0.353383
-1.40511e-06
0.353383
-1.0268e-06
0.353383
-6.26978e-07
0.353383
-2.21954e-07
0.353383
1.92482e-07
0.353383
6.41112e-07
0.353382
1.11561e-06
0.353382
1.59564e-06
0.353381
2.05742e-06
0.353381
2.47413e-06
3.04151e-06
0.35335
5.4214e-08
0.353349
2.08669e-07
0.353349
4.35496e-07
0.35335
7.67639e-07
0.353351
9.93549e-07
0.353351
2.13863e-06
0.353351
2.18497e-06
0.353351
1.83595e-06
0.353352
1.57675e-06
0.353353
1.1892e-06
0.353353
1.17543e-06
0.353353
1.19216e-06
0.353353
1.02854e-06
0.353354
9.07946e-07
0.353355
7.73291e-07
0.353356
1.43935e-06
0.353356
2.31334e-06
0.353356
2.26063e-06
0.353356
1.82685e-06
0.353356
1.80245e-06
0.353355
1.72412e-06
0.353356
1.28611e-06
0.353358
1.01739e-06
0.353359
8.36361e-07
0.353361
7.02871e-07
0.353363
1.28895e-06
0.353363
2.10492e-06
0.353362
2.35852e-06
0.353361
2.34173e-06
0.353361
2.43639e-06
0.35336
2.47278e-06
0.35336
2.33968e-06
0.353359
2.23018e-06
0.353359
2.21177e-06
0.353359
2.1829e-06
0.353359
2.24281e-06
0.353359
2.34379e-06
0.353359
2.13851e-06
0.353359
1.67835e-06
0.35336
1.33094e-06
0.353361
1.13428e-06
0.353362
9.37756e-07
0.353364
8.26554e-07
0.353365
8.71052e-07
0.353365
8.41528e-07
0.353366
5.31308e-07
0.353366
2.97657e-07
0.353368
1.70951e-07
0.35337
1.24101e-07
0.353372
1.50845e-07
0.353374
5.36636e-07
0.353375
1.41864e-06
0.353374
2.17055e-06
0.353373
2.33826e-06
0.353373
2.16831e-06
0.353372
2.10612e-06
0.353372
2.03964e-06
0.353372
1.57652e-06
0.353374
8.78707e-07
0.353376
5.25456e-07
0.353378
7.55518e-07
0.353379
1.03333e-06
0.35338
8.64687e-07
0.353382
4.44964e-07
0.353383
1.47683e-07
0.353385
8.21573e-08
0.353386
1.50649e-07
0.353387
1.85777e-07
0.353389
1.46564e-07
0.353391
4.9222e-08
0.353392
-1.28473e-07
0.353394
-2.92836e-07
0.353397
-4.031e-07
0.353399
-4.2571e-07
0.353402
-2.97151e-07
0.353405
-2.50798e-08
0.353407
3.87228e-07
0.353409
9.09656e-07
0.35341
1.49627e-06
0.353411
2.14341e-06
0.353411
2.76395e-06
0.35341
3.21392e-06
0.353409
3.43025e-06
0.353407
3.46506e-06
0.353405
3.35499e-06
0.353403
3.01433e-06
0.353401
2.35432e-06
0.353399
1.47018e-06
0.353397
5.92155e-07
0.353395
-9.89307e-08
0.353394
-7.23908e-07
0.353393
-1.33332e-06
0.353392
-1.87998e-06
0.353392
-2.23019e-06
0.353391
-2.31168e-06
0.35339
-2.18104e-06
0.353389
-1.94255e-06
0.353388
-1.64796e-06
0.353387
-1.2908e-06
0.353386
-8.69743e-07
0.353385
-4.5593e-07
0.353384
-6.83598e-08
0.353382
1.96842e-07
0.353381
3.60793e-07
0.353379
4.57906e-07
0.353378
4.93148e-07
0.353377
4.42795e-07
0.353376
2.90529e-07
0.353375
6.91195e-08
0.353375
-1.60969e-07
0.353375
-3.15964e-07
0.353374
-3.442e-07
0.353374
-2.56274e-07
0.353373
-1.36051e-07
0.353373
-9.29075e-08
0.353373
-1.79717e-07
0.353373
-3.48458e-07
0.353373
-4.96464e-07
0.353372
-5.54984e-07
0.353372
-5.24391e-07
0.353371
-4.42134e-07
0.353371
-3.56338e-07
0.353371
-3.11375e-07
0.353371
-3.42979e-07
0.353371
-4.45105e-07
0.353372
-5.79162e-07
0.353372
-6.88176e-07
0.353372
-7.24969e-07
0.353373
-6.93144e-07
0.353373
-6.38056e-07
0.353374
-6.1512e-07
0.353374
-6.52854e-07
0.353375
-7.17398e-07
0.353375
-7.29132e-07
0.353375
-6.24542e-07
0.353376
-4.1824e-07
0.353376
-2.03935e-07
0.353376
-7.90185e-08
0.353376
-8.23127e-08
0.353376
-1.47857e-07
0.353377
-1.84712e-07
0.353377
-1.83611e-07
0.353377
-2.11509e-07
0.353377
-3.21489e-07
0.353377
-4.88008e-07
0.353377
-6.23931e-07
0.353378
-6.68094e-07
0.353378
-6.29978e-07
0.353378
-5.47555e-07
0.353377
-4.26757e-07
0.353377
-2.55511e-07
0.353377
-7.38327e-08
0.353377
4.92829e-08
0.353377
6.0094e-09
0.353377
-1.87395e-07
0.353377
-4.31552e-07
0.353378
-5.98612e-07
0.353378
-6.09704e-07
0.353377
-4.46029e-07
0.353377
-1.12055e-07
0.353377
3.13689e-07
0.353377
7.12321e-07
0.353377
9.53422e-07
0.353377
9.87534e-07
0.353377
8.94184e-07
0.353377
8.26839e-07
0.353376
9.0042e-07
0.353376
1.1289e-06
0.353376
1.46043e-06
0.353375
1.84603e-06
0.353375
2.25903e-06
0.353374
2.66091e-06
0.353373
2.97919e-06
0.353373
3.14449e-06
0.353372
3.15283e-06
0.353372
3.08657e-06
0.353371
3.07114e-06
0.35337
3.20877e-06
0.35337
3.53468e-06
0.353369
4.00924e-06
0.353368
4.53858e-06
0.353367
5.01314e-06
0.353366
5.34953e-06
0.353365
5.51457e-06
0.353364
5.51896e-06
0.353363
5.39341e-06
0.353362
5.17577e-06
0.353361
4.92034e-06
0.353361
4.706e-06
0.35336
4.61238e-06
0.353359
4.67056e-06
0.353358
4.8291e-06
0.353357
4.97829e-06
0.353356
5.01989e-06
0.353355
4.91256e-06
0.353355
4.65794e-06
0.353354
4.25599e-06
0.353353
3.68578e-06
0.353353
2.94605e-06
0.353353
2.08691e-06
0.353353
1.20467e-06
0.353353
4.02603e-07
0.353353
-2.69461e-07
0.353353
-8.30597e-07
0.353353
-1.30526e-06
0.353354
-1.6991e-06
0.353354
-2.01944e-06
0.353354
-2.31007e-06
0.353355
-2.64258e-06
0.353355
-3.06976e-06
0.353356
-3.59912e-06
0.353356
-4.18742e-06
0.353357
-4.76276e-06
0.353358
-5.27407e-06
0.353359
-5.70333e-06
0.35336
-6.04261e-06
0.353361
-6.28809e-06
0.353362
-6.45089e-06
0.353364
-6.55341e-06
0.353365
-6.60536e-06
0.353366
-6.60367e-06
0.353367
-6.54023e-06
0.353369
-6.41179e-06
0.35337
-6.2382e-06
0.353371
-6.05569e-06
0.353372
-5.88445e-06
0.353373
-5.70063e-06
0.353374
-5.45227e-06
0.353375
-5.11263e-06
0.353376
-4.71667e-06
0.353377
-4.33842e-06
0.353378
-4.02819e-06
0.353378
-3.77341e-06
0.353379
-3.52208e-06
0.35338
-3.23864e-06
0.353381
-2.93139e-06
0.353381
-2.62901e-06
0.353382
-2.33876e-06
0.353382
-2.03087e-06
0.353382
-1.66261e-06
0.353382
-1.21431e-06
0.353382
-7.01955e-07
0.353382
-1.58376e-07
0.353382
3.91931e-07
0.353382
9.48798e-07
0.353381
1.51801e-06
0.353381
2.0995e-06
0.35338
2.67061e-06
0.35338
3.19723e-06
3.88626e-06
0.353353
1.13314e-06
0.353352
1.69756e-06
0.353351
1.12558e-06
0.353351
8.56479e-07
0.353351
9.06274e-07
0.353352
1.10867e-06
0.353353
1.49727e-06
0.353354
9.59723e-07
0.353354
1.10116e-06
0.353354
1.83358e-06
0.353352
2.34029e-06
0.353351
2.44922e-06
0.35335
2.23552e-06
0.353349
2.24226e-06
0.353347
2.06859e-06
0.353347
1.54198e-06
0.353348
1.17475e-06
0.35335
1.01013e-06
0.35335
1.12177e-06
0.353351
1.41184e-06
0.353351
1.19833e-06
0.353351
1.29072e-06
0.35335
2.00886e-06
0.353349
2.47895e-06
0.353347
2.38201e-06
0.353346
1.82275e-06
0.353347
1.39668e-06
0.353348
1.4439e-06
0.353349
1.3218e-06
0.353351
8.43028e-07
0.353353
6.08943e-07
0.353354
6.48349e-07
0.353356
5.71377e-07
0.353358
3.44932e-07
0.35336
2.28705e-07
0.353362
4.21974e-07
0.353363
8.72805e-07
0.353364
1.28306e-06
0.353364
1.53485e-06
0.353364
1.71671e-06
0.353363
1.76282e-06
0.353362
1.60472e-06
0.353362
1.49858e-06
0.353361
1.77417e-06
0.353359
2.22943e-06
0.353357
2.51938e-06
0.353355
2.62828e-06
0.353353
2.5784e-06
0.353351
2.20344e-06
0.353349
1.40793e-06
0.353349
6.74622e-07
0.35335
4.64565e-07
0.353352
6.22886e-07
0.353353
5.61164e-07
0.353355
2.83109e-07
0.353357
3.40431e-07
0.353358
9.44973e-07
0.353358
1.51757e-06
0.353358
1.57778e-06
0.353357
1.43465e-06
0.353356
1.64789e-06
0.353355
2.08162e-06
0.353353
2.16937e-06
0.353352
1.79763e-06
0.353351
1.42243e-06
0.353349
1.38473e-06
0.353348
1.53521e-06
0.353347
1.55258e-06
0.353345
1.37751e-06
0.353344
1.2023e-06
0.353343
1.16172e-06
0.353342
1.2209e-06
0.35334
1.26205e-06
0.353338
1.24812e-06
0.353337
1.26628e-06
0.353335
1.39174e-06
0.353334
1.55698e-06
0.353333
1.56181e-06
0.353334
1.2748e-06
0.353335
8.20656e-07
0.353337
4.37221e-07
0.35334
1.90477e-07
0.353344
-5.95119e-08
0.353348
-4.27743e-07
0.353352
-8.38665e-07
0.353356
-1.17227e-06
0.35336
-1.43618e-06
0.353363
-1.72526e-06
0.353366
-2.0586e-06
0.353368
-2.33228e-06
0.35337
-2.48942e-06
0.353371
-2.56909e-06
0.353372
-2.64138e-06
0.353372
-2.71405e-06
0.353373
-2.74456e-06
0.353373
-2.69592e-06
0.353374
-2.56099e-06
0.353374
-2.34645e-06
0.353375
-2.06049e-06
0.353376
-1.72265e-06
0.353377
-1.36939e-06
0.353378
-1.02395e-06
0.353379
-7.09362e-07
0.35338
-4.0761e-07
0.35338
-1.09184e-07
0.35338
1.48453e-07
0.353381
2.93019e-07
0.353381
2.6542e-07
0.353381
8.96465e-08
0.353381
-1.40553e-07
0.353381
-3.20673e-07
0.353381
-3.98764e-07
0.353381
-3.89401e-07
0.353381
-3.58711e-07
0.353381
-3.8776e-07
0.353382
-5.05809e-07
0.353382
-6.42728e-07
0.353382
-6.68123e-07
0.353382
-5.00964e-07
0.353382
-1.92125e-07
0.353381
1.3521e-07
0.35338