/*--------------------------------*- C++ -*----------------------------------*\
| =========                 |                                                 |
| \\      /  F ield         | OpenFOAM: The Open Source CFD Toolbox           |
|  \\    /   O peration     | Version:  2406                                  |
|   \\  /    A nd           | Website:  www.openfoam.com                      |
|    \\/     M anipulation  |                                                 |
\*---------------------------------------------------------------------------*/
FoamFile
{
    version     2.0;
    format      ascii;
    arch        "LSB;label=32;scalar=64";
    class       surfaceScalarField;
    location    "0.3";
    object      phi;
}
// * * * * * * * * * * * * * * * * * * * * * * * * * * * * * * * * * * * * * //

dimensions      [0 3 -1 0 0 0 0];

oriented        oriented;

internalField   nonuniform List<scalar> 
12225
(
1.99462e-05
9.73398e-09
1.99206e-05
2.55336e-08
1.98972e-05
2.34728e-08
1.98797e-05
1.74629e-08
1.9861e-05
1.86577e-08
1.98388e-05
2.22429e-08
1.98149e-05
2.39489e-08
1.97908e-05
2.4076e-08
1.97667e-05
2.40838e-08
1.97422e-05
2.44976e-08
1.97172e-05
2.49871e-08
1.96919e-05
2.53162e-08
1.96664e-05
2.5512e-08
1.96407e-05
2.56688e-08
1.96149e-05
2.58208e-08
1.95889e-05
2.59567e-08
1.95629e-05
2.60659e-08
1.95367e-05
2.61516e-08
1.95105e-05
2.62213e-08
1.94842e-05
2.62792e-08
1.94579e-05
2.63271e-08
1.94315e-05
2.63659e-08
1.94051e-05
2.63969e-08
1.93787e-05
2.64217e-08
1.93523e-05
2.64414e-08
1.93258e-05
2.6457e-08
1.92993e-05
2.64689e-08
1.92729e-05
2.64774e-08
1.92464e-05
2.64831e-08
1.92199e-05
2.64863e-08
1.91934e-05
2.64876e-08
1.91669e-05
2.64877e-08
1.91404e-05
2.64876e-08
1.91139e-05
2.64877e-08
1.90874e-05
2.64887e-08
1.9061e-05
2.64905e-08
1.90345e-05
2.64932e-08
1.9008e-05
2.64967e-08
1.89815e-05
2.65011e-08
1.8955e-05
2.65061e-08
1.89284e-05
2.65117e-08
1.89019e-05
2.65172e-08
1.88754e-05
2.65221e-08
1.88489e-05
2.65257e-08
1.88224e-05
2.65274e-08
1.87958e-05
2.65269e-08
1.87693e-05
2.6524e-08
1.87428e-05
2.65188e-08
1.87163e-05
2.65114e-08
1.86898e-05
2.65024e-08
1.86633e-05
2.64923e-08
1.86368e-05
2.64817e-08
1.86103e-05
2.64709e-08
1.85839e-05
2.64601e-08
1.85574e-05
2.64493e-08
1.8531e-05
2.64382e-08
1.85046e-05
2.64265e-08
1.84781e-05
2.64138e-08
1.84517e-05
2.63998e-08
1.84254e-05
2.63844e-08
1.8399e-05
2.63677e-08
1.83726e-05
2.63496e-08
1.83463e-05
2.63304e-08
1.832e-05
2.63104e-08
1.82937e-05
2.629e-08
1.82674e-05
2.62694e-08
1.82412e-05
2.6249e-08
1.8215e-05
2.62291e-08
1.81888e-05
2.62099e-08
1.81626e-05
2.61914e-08
1.81364e-05
2.61738e-08
1.81102e-05
2.61568e-08
1.80841e-05
2.61403e-08
1.8058e-05
2.6124e-08
1.80319e-05
2.61074e-08
1.80058e-05
2.60903e-08
1.79797e-05
2.60722e-08
1.79536e-05
2.60531e-08
1.79276e-05
2.60328e-08
1.79016e-05
2.60114e-08
1.78756e-05
2.59891e-08
1.78496e-05
2.59661e-08
1.78237e-05
2.59427e-08
1.77978e-05
2.59191e-08
1.77719e-05
2.58957e-08
1.7746e-05
2.58726e-08
1.77202e-05
2.585e-08
1.76943e-05
2.58281e-08
1.76685e-05
2.5807e-08
1.76427e-05
2.57867e-08
1.7617e-05
2.57673e-08
1.75912e-05
2.57489e-08
1.75655e-05
2.57314e-08
1.75398e-05
2.57151e-08
1.75141e-05
2.57001e-08
1.74884e-05
2.56865e-08
1.74627e-05
2.56747e-08
1.74371e-05
2.56648e-08
1.74114e-05
2.56572e-08
1.73857e-05
2.56523e-08
1.73601e-05
2.56503e-08
1.73344e-05
2.56516e-08
1.73088e-05
2.56565e-08
1.72831e-05
2.56653e-08
1.72574e-05
2.56783e-08
1.72317e-05
2.56959e-08
1.7206e-05
2.57185e-08
1.71803e-05
2.57465e-08
1.71545e-05
2.57804e-08
1.71287e-05
2.58208e-08
1.71028e-05
2.58684e-08
1.70769e-05
2.59241e-08
1.70509e-05
2.59886e-08
1.70248e-05
2.60633e-08
1.69987e-05
2.61492e-08
1.69724e-05
2.6248e-08
1.69461e-05
2.63613e-08
1.69196e-05
2.64912e-08
1.68929e-05
2.664e-08
1.68661e-05
2.68101e-08
1.68391e-05
2.70047e-08
1.68119e-05
2.72271e-08
1.67844e-05
2.7481e-08
1.67567e-05
2.77707e-08
1.67286e-05
2.81011e-08
1.67001e-05
2.84774e-08
1.66712e-05
2.8906e-08
1.66418e-05
2.93935e-08
1.66118e-05
2.99478e-08
1.65812e-05
3.05774e-08
1.655e-05
3.12922e-08
1.65179e-05
3.21032e-08
1.64848e-05
3.30226e-08
1.64508e-05
3.40643e-08
1.64155e-05
3.5244e-08
1.63789e-05
3.65792e-08
1.63409e-05
3.80898e-08
1.63011e-05
3.9798e-08
1.62593e-05
4.17289e-08
1.62154e-05
4.39107e-08
1.6169e-05
4.63753e-08
1.61199e-05
4.91584e-08
1.60676e-05
5.23005e-08
1.60117e-05
5.58468e-08
1.59519e-05
5.98484e-08
1.58875e-05
6.43629e-08
1.58181e-05
6.94548e-08
1.57429e-05
7.51964e-08
1.56612e-05
8.16687e-08
1.55722e-05
8.89621e-08
1.54751e-05
9.71773e-08
1.53686e-05
1.06426e-07
1.52518e-05
1.16831e-07
1.51233e-05
1.28527e-07
1.49816e-05
1.41662e-07
1.48252e-05
1.56396e-07
1.46523e-05
1.72896e-07
1.4461e-05
1.91344e-07
1.42491e-05
2.11923e-07
1.40142e-05
2.34821e-07
1.3754e-05
2.60222e-07
1.34657e-05
2.88295e-07
1.31465e-05
3.19188e-07
1.27935e-05
3.53008e-07
1.24037e-05
3.89805e-07
1.19742e-05
4.29545e-07
1.15021e-05
4.72078e-07
1.09849e-05
5.17164e-07
1.04204e-05
5.64496e-07
9.80693e-06
6.1351e-07
9.1435e-06
6.63434e-07
8.43024e-06
7.13254e-07
7.66855e-06
7.6169e-07
6.86136e-06
8.07194e-07
6.01341e-06
8.47953e-07
5.13146e-06
8.8195e-07
4.22439e-06
9.07069e-07
3.30299e-06
9.21398e-07
2.37884e-06
9.2415e-07
1.46147e-06
9.17371e-07
5.2315e-07
9.38319e-07
-5.00294e-07
1.02344e-06
-1.2218e-06
7.21508e-07
-1.42049e-06
1.98692e-07
-1.13558e-06
-2.84916e-07
-1.69361e-07
-9.66217e-07
1.36248e-06
-1.53184e-06
8.37882e-07
5.24601e-07
3.85845e-07
4.52037e-07
2.65829e-07
1.20016e-07
2.21278e-07
4.45516e-08
1.76977e-07
4.43002e-08
1.50815e-07
2.61624e-08
1.39903e-07
1.09121e-08
1.31678e-07
8.22521e-09
1.25833e-07
5.84484e-09
1.25485e-07
3.4774e-10
1.26974e-07
-1.48894e-09
1.25634e-07
1.33977e-09
1.22245e-07
3.38955e-09
1.19707e-07
2.5382e-09
1.19121e-07
5.85335e-10
1.1994e-07
-8.18426e-10
1.21299e-07
-1.35961e-09
1.2249e-07
-1.19113e-09
1.24036e-07
-1.5455e-09
1.26807e-07
-2.77138e-09
1.31114e-07
-4.30709e-09
1.36401e-07
-5.28687e-09
1.41726e-07
-5.32494e-09
1.46516e-07
-4.79034e-09
1.51017e-07
-4.50034e-09
1.56592e-07
-5.57532e-09
1.64253e-07
-7.6606e-09
1.74133e-07
-9.88027e-09
1.85294e-07
-1.11614e-08
1.95466e-07
-1.01714e-08
2.0275e-07
-7.28376e-09
2.06954e-07
-4.2049e-09
2.07856e-07
-9.01977e-10
2.05603e-07
2.25308e-09
2.00852e-07
4.75149e-09
1.94591e-07
6.26134e-09
1.88431e-07
6.15953e-09
1.84614e-07
3.8172e-09
1.84328e-07
2.85463e-10
1.8619e-07
-1.86164e-09
1.88056e-07
-1.86597e-09
1.88693e-07
-6.37072e-10
1.90483e-07
-1.78954e-09
1.95806e-07
-5.32309e-09
2.03249e-07
-7.44291e-09
2.08564e-07
-5.31512e-09
2.07906e-07
6.57904e-10
2.01311e-07
6.59461e-09
1.9156e-07
9.75132e-09
1.81632e-07
9.92775e-09
1.7326e-07
8.37226e-09
1.66687e-07
6.57259e-09
1.60741e-07
5.94659e-09
1.54038e-07
6.70304e-09
1.45951e-07
8.08708e-09
1.37228e-07
8.72271e-09
1.29431e-07
7.79686e-09
1.23685e-07
5.74615e-09
1.20467e-07
3.2182e-09
1.19635e-07
8.31979e-10
1.19781e-07
-1.4605e-10
1.18167e-07
1.6132e-09
3.7908e-09
1.99985e-05
-8.2315e-11
2.002e-05
3.95597e-09
2.0036e-05
7.50704e-09
2.00435e-05
9.99988e-09
2.0053e-05
9.10232e-09
2.00663e-05
8.95578e-09
2.00805e-05
9.80652e-09
2.00939e-05
1.0644e-08
2.01069e-05
1.11145e-08
2.012e-05
1.13935e-08
2.01333e-05
1.16814e-08
2.01466e-05
1.19864e-08
2.01599e-05
1.22559e-08
2.0173e-05
1.24778e-08
2.01862e-05
1.26704e-08
2.01993e-05
1.28479e-08
2.02124e-05
1.30126e-08
2.02253e-05
1.31638e-08
2.02383e-05
1.33028e-08
2.02511e-05
1.34317e-08
2.02639e-05
1.35527e-08
2.02766e-05
1.36669e-08
2.02892e-05
1.37749e-08
2.03018e-05
1.38775e-08
2.03142e-05
1.39754e-08
2.03266e-05
1.40692e-08
2.03389e-05
1.41595e-08
2.03511e-05
1.42466e-08
2.03633e-05
1.43309e-08
2.03754e-05
1.4413e-08
2.03874e-05
1.44931e-08
2.03993e-05
1.45716e-08
2.04111e-05
1.46487e-08
2.04229e-05
1.47244e-08
2.04346e-05
1.47987e-08
2.04462e-05
1.48719e-08
2.04577e-05
1.4944e-08
2.04692e-05
1.50153e-08
2.04806e-05
1.50858e-08
2.0492e-05
1.51557e-08
2.05033e-05
1.52249e-08
2.05145e-05
1.52933e-08
2.05257e-05
1.53608e-08
2.05368e-05
1.54274e-08
2.05478e-05
1.54929e-08
2.05588e-05
1.55573e-08
2.05697e-05
1.56204e-08
2.05805e-05
1.56823e-08
2.05913e-05
1.57431e-08
2.0602e-05
1.58032e-08
2.06126e-05
1.58628e-08
2.06232e-05
1.59222e-08
2.06336e-05
1.59816e-08
2.06441e-05
1.60411e-08
2.06544e-05
1.61006e-08
2.06647e-05
1.61603e-08
2.06749e-05
1.62197e-08
2.0685e-05
1.62788e-08
2.06951e-05
1.63373e-08
2.07051e-05
1.63951e-08
2.0715e-05
1.64521e-08
2.07248e-05
1.6508e-08
2.07346e-05
1.6563e-08
2.07443e-05
1.6617e-08
2.07539e-05
1.66702e-08
2.07635e-05
1.67226e-08
2.07729e-05
1.67743e-08
2.07823e-05
1.68256e-08
2.07917e-05
1.68765e-08
2.08009e-05
1.69271e-08
2.08101e-05
1.69776e-08
2.08193e-05
1.70279e-08
2.08283e-05
1.70781e-08
2.08373e-05
1.71283e-08
2.08463e-05
1.71784e-08
2.08551e-05
1.72283e-08
2.08639e-05
1.72781e-08
2.08726e-05
1.73277e-08
2.08813e-05
1.7377e-08
2.08899e-05
1.74259e-08
2.08984e-05
1.74745e-08
2.09068e-05
1.75227e-08
2.09152e-05
1.75704e-08
2.09235e-05
1.76177e-08
2.09317e-05
1.76646e-08
2.09399e-05
1.77111e-08
2.0948e-05
1.77574e-08
2.0956e-05
1.78034e-08
2.0964e-05
1.78493e-08
2.09719e-05
1.78952e-08
2.09797e-05
1.79412e-08
2.09875e-05
1.79874e-08
2.09952e-05
1.8034e-08
2.10028e-05
1.80813e-08
2.10104e-05
1.81294e-08
2.10179e-05
1.81785e-08
2.10253e-05
1.8229e-08
2.10327e-05
1.8281e-08
2.104e-05
1.83349e-08
2.10473e-05
1.83909e-08
2.10545e-05
1.84493e-08
2.10616e-05
1.85103e-08
2.10687e-05
1.85744e-08
2.10757e-05
1.86419e-08
2.10827e-05
1.87133e-08
2.10896e-05
1.87889e-08
2.10965e-05
1.88693e-08
2.11032e-05
1.89551e-08
2.111e-05
1.9047e-08
2.11167e-05
1.91458e-08
2.11233e-05
1.92523e-08
2.11298e-05
1.93676e-08
2.11363e-05
1.94927e-08
2.11428e-05
1.96291e-08
2.11491e-05
1.97782e-08
2.11554e-05
1.99417e-08
2.11617e-05
2.01216e-08
2.11678e-05
2.03201e-08
2.11739e-05
2.05398e-08
2.118e-05
2.07834e-08
2.11859e-05
2.10543e-08
2.11918e-05
2.13561e-08
2.11976e-05
2.1693e-08
2.12033e-05
2.20696e-08
2.12089e-05
2.24914e-08
2.12144e-05
2.29643e-08
2.12198e-05
2.3495e-08
2.12251e-05
2.40913e-08
2.12303e-05
2.47616e-08
2.12354e-05
2.55159e-08
2.12403e-05
2.63649e-08
2.12451e-05
2.73212e-08
2.12497e-05
2.83986e-08
2.12541e-05
2.9613e-08
2.12584e-05
3.09822e-08
2.12625e-05
3.25263e-08
2.12663e-05
3.42682e-08
2.12698e-05
3.62337e-08
2.12731e-05
3.8452e-08
2.12761e-05
4.09564e-08
2.12787e-05
4.37845e-08
2.12808e-05
4.69789e-08
2.12826e-05
5.05883e-08
2.12837e-05
5.46679e-08
2.12843e-05
5.92802e-08
2.12842e-05
6.4497e-08
2.12832e-05
7.03994e-08
2.12813e-05
7.70805e-08
2.12784e-05
8.46459e-08
2.12741e-05
9.32158e-08
2.12684e-05
1.02927e-07
2.12609e-05
1.13936e-07
2.12513e-05
1.2642e-07
2.12392e-05
1.4058e-07
2.12242e-05
1.56644e-07
2.12058e-05
1.74869e-07
2.11831e-05
1.95544e-07
2.11555e-05
2.18993e-07
2.11218e-05
2.45574e-07
2.10809e-05
2.75682e-07
2.10314e-05
3.09747e-07
2.09715e-05
3.4823e-07
2.08991e-05
3.91615e-07
2.08117e-05
4.40402e-07
2.07064e-05
4.95087e-07
2.05798e-05
5.56141e-07
2.04279e-05
6.23981e-07
2.02461e-05
6.9894e-07
2.00294e-05
7.8121e-07
1.97721e-05
8.70774e-07
1.94682e-05
9.6734e-07
1.91112e-05
1.07027e-06
1.86944e-05
1.17851e-06
1.82111e-05
1.29051e-06
1.76548e-05
1.40418e-06
1.702e-05
1.51679e-06
1.63021e-05
1.62502e-06
1.54987e-05
1.7248e-06
1.46116e-05
1.81121e-06
1.36517e-05
1.87724e-06
1.26788e-05
1.91125e-06
1.18037e-05
1.89856e-06
1.0734e-05
1.79118e-06
9.30182e-06
1.63088e-06
7.54246e-06
1.47444e-06
5.29974e-06
1.27651e-06
2.8639e-06
9.03998e-07
1.73826e-06
1.65024e-06
1.06163e-06
1.12867e-06
8.71101e-07
3.10542e-07
6.37315e-07
2.78338e-07
5.04119e-07
1.77496e-07
4.5481e-07
7.54718e-08
4.26859e-07
3.88631e-08
3.85346e-07
4.97387e-08
3.56066e-07
3.51246e-08
3.48252e-07
8.16157e-09
3.45589e-07
1.17449e-09
3.28034e-07
1.88945e-08
3.11412e-07
2.00112e-08
3.02945e-07
1.10053e-08
3.00645e-07
2.88501e-09
3.01966e-07
-2.13881e-09
3.04813e-07
-4.20648e-09
3.07445e-07
-3.82388e-09
3.13461e-07
-7.56132e-09
3.24208e-07
-1.3518e-08
3.39088e-07
-1.91868e-08
3.569e-07
-2.30997e-08
3.75749e-07
-2.41735e-08
3.9367e-07
-2.2711e-08
4.09475e-07
-2.03056e-08
4.26862e-07
-2.29623e-08
4.48414e-07
-2.92131e-08
4.73558e-07
-3.50237e-08
5.00923e-07
-3.85265e-08
5.27047e-07
-3.62959e-08
5.47628e-07
-2.7864e-08
5.6192e-07
-1.84979e-08
5.70648e-07
-9.62943e-09
5.73698e-07
-7.97083e-10
5.68488e-07
9.96208e-09
5.56409e-07
1.83396e-08
5.4214e-07
2.04286e-08
5.31042e-07
1.49154e-08
5.25592e-07
5.73521e-09
5.25508e-07
-1.77695e-09
5.25238e-07
-1.59623e-09
5.16191e-07
8.40931e-09
5.1043e-07
3.97221e-09
5.15763e-07
-1.0656e-08
5.28169e-07
-1.98497e-08
5.3784e-07
-1.49852e-08
5.37325e-07
1.17294e-09
5.21903e-07
2.20162e-08
4.97076e-07
3.45777e-08
4.7023e-07
3.67747e-08
4.45128e-07
3.3474e-08
4.21997e-07
2.9703e-08
4.02566e-07
2.5378e-08
3.8435e-07
2.49187e-08
3.65657e-07
2.67807e-08
3.45722e-07
2.86572e-08
3.27339e-07
2.61805e-08
3.12278e-07
2.08067e-08
3.01269e-07
1.42272e-08
2.96214e-07
5.88713e-09
2.98257e-07
-2.18908e-09
2.95215e-07
4.65556e-09
1.50232e-08
1.99807e-05
1.48428e-09
1.99806e-05
4.05625e-09
1.99832e-05
4.92146e-09
1.99877e-05
5.49392e-09
1.99905e-05
6.33297e-09
1.99922e-05
7.2225e-09
1.99941e-05
7.96135e-09
1.99962e-05
8.53032e-09
1.99983e-05
8.97953e-09
2.00004e-05
9.35738e-09
2.00023e-05
9.70368e-09
2.00043e-05
1.0024e-08
2.00063e-05
1.03075e-08
2.00082e-05
1.05518e-08
2.00101e-05
1.07653e-08
2.0012e-05
1.09569e-08
2.00139e-05
1.11308e-08
2.00157e-05
1.12886e-08
2.00176e-05
1.14317e-08
2.00195e-05
1.15623e-08
2.00213e-05
1.16821e-08
2.00232e-05
1.17927e-08
2.00251e-05
1.18951e-08
2.0027e-05
1.19904e-08
2.00289e-05
1.20793e-08
2.00308e-05
1.21626e-08
2.00327e-05
1.22408e-08
2.00346e-05
1.23146e-08
2.00366e-05
1.23849e-08
2.00385e-05
1.24522e-08
2.00405e-05
1.25171e-08
2.00425e-05
1.25798e-08
2.00445e-05
1.26404e-08
2.00465e-05
1.2699e-08
2.00486e-05
1.27558e-08
2.00506e-05
1.28108e-08
2.00527e-05
1.28644e-08
2.00548e-05
1.29165e-08
2.00569e-05
1.29672e-08
2.00591e-05
1.30166e-08
2.00612e-05
1.30648e-08
2.00634e-05
1.31118e-08
2.00656e-05
1.31576e-08
2.00679e-05
1.32023e-08
2.00701e-05
1.32458e-08
2.00724e-05
1.32881e-08
2.00747e-05
1.33294e-08
2.0077e-05
1.33698e-08
2.00793e-05
1.34095e-08
2.00817e-05
1.34487e-08
2.0084e-05
1.34874e-08
2.00864e-05
1.35259e-08
2.00889e-05
1.35642e-08
2.00913e-05
1.36024e-08
2.00937e-05
1.36405e-08
2.00962e-05
1.36785e-08
2.00987e-05
1.37164e-08
2.01013e-05
1.37541e-08
2.01038e-05
1.37914e-08
2.01064e-05
1.38283e-08
2.0109e-05
1.38648e-08
2.01116e-05
1.39006e-08
2.01142e-05
1.39359e-08
2.01168e-05
1.39706e-08
2.01195e-05
1.40047e-08
2.01222e-05
1.40383e-08
2.01249e-05
1.40713e-08
2.01276e-05
1.41037e-08
2.01304e-05
1.41357e-08
2.01331e-05
1.41672e-08
2.01359e-05
1.41984e-08
2.01387e-05
1.42291e-08
2.01415e-05
1.42595e-08
2.01444e-05
1.42897e-08
2.01472e-05
1.43196e-08
2.01501e-05
1.43494e-08
2.0153e-05
1.43791e-08
2.01559e-05
1.44088e-08
2.01588e-05
1.44386e-08
2.01618e-05
1.44684e-08
2.01648e-05
1.44983e-08
2.01678e-05
1.45282e-08
2.01708e-05
1.4558e-08
2.01738e-05
1.45879e-08
2.01769e-05
1.46176e-08
2.01799e-05
1.46473e-08
2.0183e-05
1.46768e-08
2.01861e-05
1.47061e-08
2.01892e-05
1.47355e-08
2.01923e-05
1.47647e-08
2.01955e-05
1.47941e-08
2.01987e-05
1.48237e-08
2.02018e-05
1.48537e-08
2.0205e-05
1.48842e-08
2.02083e-05
1.49156e-08
2.02115e-05
1.49479e-08
2.02147e-05
1.49816e-08
2.0218e-05
1.50169e-08
2.02213e-05
1.50541e-08
2.02246e-05
1.50935e-08
2.02279e-05
1.51354e-08
2.02312e-05
1.51802e-08
2.02346e-05
1.52281e-08
2.02379e-05
1.52798e-08
2.02413e-05
1.53355e-08
2.02447e-05
1.53959e-08
2.02481e-05
1.54614e-08
2.02515e-05
1.55328e-08
2.0255e-05
1.56109e-08
2.02584e-05
1.56965e-08
2.02619e-05
1.57906e-08
2.02653e-05
1.58944e-08
2.02688e-05
1.60091e-08
2.02723e-05
1.61361e-08
2.02758e-05
1.62773e-08
2.02793e-05
1.64344e-08
2.02828e-05
1.66095e-08
2.02864e-05
1.68051e-08
2.02899e-05
1.70239e-08
2.02934e-05
1.72688e-08
2.02969e-05
1.75434e-08
2.03004e-05
1.78516e-08
2.03039e-05
1.81976e-08
2.03074e-05
1.85865e-08
2.03108e-05
1.90237e-08
2.03143e-05
1.95156e-08
2.03177e-05
2.0069e-08
2.03211e-05
2.0692e-08
2.03245e-05
2.13935e-08
2.03278e-05
2.21834e-08
2.03311e-05
2.3073e-08
2.03344e-05
2.40749e-08
2.03376e-05
2.52033e-08
2.03407e-05
2.64742e-08
2.03438e-05
2.79056e-08
2.03468e-05
2.95177e-08
2.03497e-05
3.13331e-08
2.03526e-05
3.33775e-08
2.03553e-05
3.56796e-08
2.0358e-05
3.82717e-08
2.03606e-05
4.11903e-08
2.03631e-05
4.44763e-08
2.03655e-05
4.81759e-08
2.03679e-05
5.23411e-08
2.03701e-05
5.70304e-08
2.03723e-05
6.23098e-08
2.03744e-05
6.82536e-08
2.03766e-05
7.49454e-08
2.03788e-05
8.24794e-08
2.0381e-05
9.09618e-08
2.03834e-05
1.00512e-07
2.03861e-05
1.11265e-07
2.03891e-05
1.23371e-07
2.03927e-05
1.37002e-07
2.0397e-05
1.52348e-07
2.04023e-05
1.69626e-07
2.04087e-05
1.89077e-07
2.04167e-05
2.10973e-07
2.04267e-05
2.35619e-07
2.0439e-05
2.63354e-07
2.04542e-05
2.94561e-07
2.04728e-05
3.29663e-07
2.04953e-05
3.69131e-07
2.05222e-05
4.13484e-07
2.0554e-05
4.63292e-07
2.05909e-05
5.19171e-07
2.06332e-05
5.81779e-07
2.06803e-05
6.51804e-07
2.07316e-05
7.29944e-07
2.07854e-05
8.16881e-07
2.08396e-05
9.13229e-07
2.08903e-05
1.01948e-06
2.09329e-05
1.13592e-06
2.09609e-05
1.26256e-06
2.09661e-05
1.39901e-06
2.09385e-05
1.54439e-06
2.08663e-05
1.69721e-06
2.07358e-05
1.85527e-06
2.05313e-05
2.01568e-06
2.02336e-05
2.17496e-06
1.98152e-05
2.32969e-06
1.9236e-05
2.47769e-06
1.8408e-05
2.61918e-06
1.72808e-05
2.75814e-06
1.58375e-05
2.91775e-06
1.39802e-05
3.13374e-06
1.14903e-05
3.39398e-06
9.16958e-06
3.97091e-06
6.54889e-06
3.74936e-06
3.99935e-06
2.86008e-06
1.80792e-06
2.46976e-06
1.05294e-06
9.3248e-07
9.47178e-07
1.8123e-07
8.30839e-07
1.55202e-07
6.38128e-07
2.4245e-07
5.63165e-07
1.10087e-07
5.65226e-07
6.1012e-09
5.73183e-07
-6.78308e-09
4.80111e-07
1.11967e-07
4.44794e-07
5.53279e-08
4.30499e-07
2.53006e-08
4.22687e-07
1.06966e-08
4.15053e-07
5.49537e-09
4.0719e-07
3.65717e-09
4.00271e-07
3.09438e-09
4.10491e-07
-1.77808e-08
4.30175e-07
-3.32018e-08
4.52017e-07
-4.10292e-08
4.77209e-07
-4.82917e-08
5.07835e-07
-5.47998e-08
5.46656e-07
-6.15321e-08
5.91128e-07
-6.47769e-08
6.44876e-07
-7.671e-08
6.8363e-07
-6.7968e-08
7.16306e-07
-6.76997e-08
7.49671e-07
-7.18915e-08
7.87302e-07
-7.39266e-08
8.27252e-07
-6.78142e-08
8.62437e-07
-5.36825e-08
8.88519e-07
-3.57114e-08
9.00547e-07
-1.28248e-08
9.02495e-07
8.01408e-09
8.94176e-07
2.66581e-08
8.82918e-07
3.16865e-08
8.78198e-07
1.96351e-08
8.85161e-07
-1.22769e-09
8.88591e-07
-5.20648e-09
8.67948e-07
1.90466e-08
8.31772e-07
4.45858e-08
8.0464e-07
3.11034e-08
8.0181e-07
-7.82582e-09
8.28867e-07
-4.69064e-08
8.65361e-07
-5.14796e-08
8.63252e-07
3.28214e-09
8.33577e-07
5.16914e-08
7.9723e-07
7.09245e-08
7.60276e-07
7.37284e-08
7.19492e-07
7.42586e-08
6.78115e-07
7.10799e-08
6.4361e-07
5.98831e-08
6.07066e-07
6.14629e-08
5.71015e-07
6.2831e-08
5.40115e-07
5.95578e-08
5.18386e-07
4.79092e-08
5.03616e-07
3.55765e-08
4.92195e-07
2.56486e-08
4.87497e-07
1.05854e-08
4.9773e-07
-1.24224e-08
5.24929e-07
-2.25435e-08
-5.7471e-09
1.99899e-05
3.83819e-10
1.99919e-05
2.05865e-09
1.99932e-05
3.68791e-09
1.99939e-05
4.76784e-09
1.99948e-05
5.44054e-09
1.9996e-05
5.99444e-09
1.99974e-05
6.54964e-09
1.99989e-05
7.08921e-09
2.00003e-05
7.56625e-09
2.00017e-05
7.97422e-09
2.0003e-05
8.33093e-09
2.00044e-05
8.65139e-09
2.00058e-05
8.93954e-09
2.00071e-05
9.19574e-09
2.00085e-05
9.42292e-09
2.00098e-05
9.62589e-09
2.00111e-05
9.80875e-09
2.00124e-05
9.97414e-09
2.00137e-05
1.0124e-08
2.0015e-05
1.02602e-08
2.00163e-05
1.03844e-08
2.00176e-05
1.04983e-08
2.00189e-05
1.06032e-08
2.00202e-05
1.07001e-08
2.00215e-05
1.079e-08
2.00228e-05
1.08736e-08
2.00241e-05
1.09517e-08
2.00254e-05
1.1025e-08
2.00267e-05
1.10941e-08
2.0028e-05
1.11596e-08
2.00293e-05
1.12218e-08
2.00306e-05
1.12813e-08
2.00319e-05
1.13384e-08
2.00332e-05
1.13933e-08
2.00345e-05
1.14462e-08
2.00358e-05
1.14973e-08
2.00371e-05
1.15468e-08
2.00384e-05
1.15948e-08
2.00398e-05
1.16414e-08
2.00411e-05
1.16869e-08
2.00424e-05
1.17313e-08
2.00438e-05
1.17747e-08
2.00451e-05
1.1817e-08
2.00464e-05
1.18583e-08
2.00478e-05
1.18985e-08
2.00491e-05
1.19376e-08
2.00505e-05
1.19756e-08
2.00518e-05
1.20126e-08
2.00532e-05
1.20486e-08
2.00546e-05
1.20839e-08
2.00559e-05
1.21185e-08
2.00573e-05
1.21526e-08
2.00587e-05
1.21864e-08
2.00601e-05
1.22201e-08
2.00615e-05
1.22536e-08
2.00629e-05
1.22871e-08
2.00642e-05
1.23205e-08
2.00656e-05
1.23538e-08
2.00671e-05
1.23868e-08
2.00685e-05
1.24194e-08
2.00699e-05
1.24516e-08
2.00713e-05
1.24833e-08
2.00727e-05
1.25144e-08
2.00741e-05
1.25448e-08
2.00756e-05
1.25747e-08
2.0077e-05
1.2604e-08
2.00784e-05
1.26327e-08
2.00799e-05
1.26609e-08
2.00813e-05
1.26886e-08
2.00828e-05
1.27158e-08
2.00842e-05
1.27427e-08
2.00857e-05
1.27691e-08
2.00872e-05
1.27953e-08
2.00886e-05
1.28212e-08
2.00901e-05
1.28469e-08
2.00916e-05
1.28725e-08
2.00931e-05
1.28979e-08
2.00945e-05
1.29233e-08
2.0096e-05
1.29486e-08
2.00975e-05
1.29739e-08
2.0099e-05
1.29991e-08
2.01005e-05
1.30244e-08
2.0102e-05
1.30496e-08
2.01036e-05
1.30747e-08
2.01051e-05
1.30998e-08
2.01066e-05
1.31248e-08
2.01081e-05
1.31497e-08
2.01097e-05
1.31746e-08
2.01112e-05
1.31994e-08
2.01127e-05
1.32243e-08
2.01143e-05
1.32493e-08
2.01158e-05
1.32746e-08
2.01174e-05
1.33002e-08
2.01189e-05
1.33265e-08
2.01205e-05
1.33536e-08
2.01221e-05
1.33818e-08
2.01236e-05
1.34114e-08
2.01252e-05
1.34425e-08
2.01268e-05
1.34756e-08
2.01284e-05
1.3511e-08
2.013e-05
1.35491e-08
2.01315e-05
1.35902e-08
2.01331e-05
1.36348e-08
2.01347e-05
1.36833e-08
2.01363e-05
1.37364e-08
2.01379e-05
1.37945e-08
2.01395e-05
1.38584e-08
2.01411e-05
1.39289e-08
2.01427e-05
1.40069e-08
2.01444e-05
1.40932e-08
2.0146e-05
1.41892e-08
2.01476e-05
1.4296e-08
2.01491e-05
1.44152e-08
2.01507e-05
1.45483e-08
2.01523e-05
1.46973e-08
2.01539e-05
1.48642e-08
2.01554e-05
1.50514e-08
2.0157e-05
1.52617e-08
2.01585e-05
1.54979e-08
2.016e-05
1.57636e-08
2.01615e-05
1.60625e-08
2.0163e-05
1.6399e-08
2.01644e-05
1.67779e-08
2.01658e-05
1.72046e-08
2.01671e-05
1.76854e-08
2.01684e-05
1.8227e-08
2.01696e-05
1.88373e-08
2.01708e-05
1.95248e-08
2.01719e-05
2.02995e-08
2.01729e-05
2.11721e-08
2.01738e-05
2.2155e-08
2.01746e-05
2.32619e-08
2.01753e-05
2.45083e-08
2.01759e-05
2.59114e-08
2.01763e-05
2.74905e-08
2.01765e-05
2.92674e-08
2.01766e-05
3.12663e-08
2.01765e-05
3.35145e-08
2.01761e-05
3.60424e-08
2.01755e-05
3.88841e-08
2.01746e-05
4.20778e-08
2.01734e-05
4.5666e-08
2.01719e-05
4.96966e-08
2.017e-05
5.42229e-08
2.01677e-05
5.93043e-08
2.0165e-05
6.50075e-08
2.01619e-05
7.14065e-08
2.01582e-05
7.85839e-08
2.01541e-05
8.66316e-08
2.01494e-05
9.56521e-08
2.01442e-05
1.05759e-07
2.01383e-05
1.17077e-07
2.0132e-05
1.29746e-07
2.01251e-05
1.4392e-07
2.01176e-05
1.59768e-07
2.01098e-05
1.77475e-07
2.01016e-05
1.97245e-07
2.00933e-05
2.19301e-07
2.0085e-05
2.43883e-07
2.00771e-05
2.71253e-07
2.007e-05
3.01695e-07
2.00641e-05
3.35511e-07
2.00602e-05
3.73029e-07
2.00591e-05
4.14596e-07
2.00618e-05
4.60584e-07
2.00696e-05
5.11388e-07
2.0084e-05
5.67431e-07
2.01066e-05
6.29165e-07
2.01395e-05
6.97078e-07
2.01847e-05
7.71697e-07
2.02443e-05
8.53595e-07
2.03204e-05
9.43395e-07
2.04145e-05
1.04178e-06
2.05276e-05
1.14951e-06
2.06592e-05
1.26738e-06
2.08073e-05
1.39627e-06
2.09674e-05
1.5371e-06
2.11318e-05
1.6909e-06
2.12886e-05
1.8589e-06
2.1421e-05
2.04257e-06
2.15068e-05
2.24382e-06
2.15201e-05
2.46448e-06
2.1432e-05
2.70721e-06
2.12127e-05
2.9775e-06
2.08444e-05
3.28601e-06
2.03281e-05
3.65002e-06
1.96542e-05
4.06792e-06
1.90589e-05
4.56617e-06
1.78203e-05
4.988e-06
1.53617e-05
5.31867e-06
1.19324e-05
5.89903e-06
8.04203e-06
4.82288e-06
4.82686e-06
3.3964e-06
2.64155e-06
2.34051e-06
1.25694e-06
1.62706e-06
1.01851e-06
3.4852e-07
1.01621e-06
8.3945e-09
9.32966e-07
7.64632e-08
7.76743e-07
2.6819e-07
6.19369e-07
2.12701e-07
5.48345e-07
9.63248e-08
4.97802e-07
6.12394e-08
4.60712e-07
4.2586e-08
4.45171e-07
1.91982e-08
4.41342e-07
6.9228e-09
4.34692e-07
-1.11304e-08
4.39175e-07
-3.76852e-08
4.44052e-07
-4.59054e-08
4.39303e-07
-4.35432e-08
4.37548e-07
-5.3045e-08
4.69599e-07
-9.35832e-08
5.85751e-07
-1.80929e-07
7.72621e-07
-2.6358e-07
8.12807e-07
-1.08154e-07
8.43958e-07
-9.88511e-08
8.85312e-07
-1.13245e-07
9.31058e-07
-1.19673e-07
9.85901e-07
-1.22657e-07
1.04939e-06
-1.1717e-07
1.1141e-06
-1.00423e-07
1.18082e-06
-7.9549e-08
1.2708e-06
-8.19644e-08
1.28988e-06
7.58524e-09
1.27246e-06
4.91023e-08
1.27232e-06
1.97742e-08
1.28932e-06
-1.82287e-08
1.29987e-06
-1.57525e-08
1.28345e-06
3.54663e-08
1.23816e-06
8.9877e-08
1.18935e-06
7.9907e-08
1.16132e-06
2.02025e-08
1.16867e-06
-5.42532e-08
1.22858e-06
-1.11387e-07
1.30891e-06
-7.70442e-08
1.26922e-06
9.13763e-08
1.21578e-06
1.2437e-07
1.1761e-06
1.13404e-07
1.12549e-06
1.24866e-07
1.06051e-06
1.36061e-07
9.82432e-07
1.37962e-07
9.07382e-07
1.36513e-07
8.48673e-07
1.2154e-07
8.08293e-07
9.99377e-08
7.88427e-07
6.77758e-08
7.80082e-07
4.39215e-08
7.63006e-07
4.2724e-08
7.43075e-07
3.05165e-08
7.44501e-07
-1.3848e-08
7.94609e-07
-7.26523e-08
-9.87202e-08
1.99888e-05
6.90883e-10
1.99885e-05
2.38598e-09
1.99889e-05
3.24025e-09
1.999e-05
3.67116e-09
1.99913e-05
4.18584e-09
1.99925e-05
4.77961e-09
1.99937e-05
5.34408e-09
1.99949e-05
5.833e-09
1.99962e-05
6.25549e-09
1.99976e-05
6.63055e-09
1.99989e-05
6.9704e-09
2.00003e-05
7.2794e-09
2.00017e-05
7.55828e-09
2.00031e-05
7.80822e-09
2.00045e-05
8.0322e-09
2.00059e-05
8.23392e-09
2.00073e-05
8.41648e-09
2.00087e-05
8.5821e-09
2.001e-05
8.73258e-09
2.00114e-05
8.86962e-09
2.00128e-05
8.99486e-09
2.00142e-05
9.10971e-09
2.00156e-05
9.21532e-09
2.0017e-05
9.31272e-09
2.00184e-05
9.40285e-09
2.00198e-05
9.48654e-09
2.00211e-05
9.56455e-09
2.00225e-05
9.63751e-09
2.00239e-05
9.70601e-09
2.00253e-05
9.77059e-09
2.00267e-05
9.83176e-09
2.00281e-05
9.88996e-09
2.00295e-05
9.94554e-09
2.00309e-05
9.99872e-09
2.00323e-05
1.00497e-08
2.00337e-05
1.00986e-08
2.00351e-05
1.01457e-08
2.00365e-05
1.01911e-08
2.00379e-05
1.0235e-08
2.00393e-05
1.02774e-08
2.00407e-05
1.03185e-08
2.00421e-05
1.03584e-08
2.00435e-05
1.03971e-08
2.0045e-05
1.04346e-08
2.00464e-05
1.0471e-08
2.00478e-05
1.05064e-08
2.00493e-05
1.05408e-08
2.00507e-05
1.05743e-08
2.00521e-05
1.06071e-08
2.00536e-05
1.06392e-08
2.0055e-05
1.06708e-08
2.00565e-05
1.07019e-08
2.00579e-05
1.07326e-08
2.00594e-05
1.07631e-08
2.00609e-05
1.07933e-08
2.00623e-05
1.08232e-08
2.00638e-05
1.08529e-08
2.00653e-05
1.08823e-08
2.00667e-05
1.09113e-08
2.00682e-05
1.094e-08
2.00697e-05
1.09682e-08
2.00712e-05
1.09959e-08
2.00727e-05
1.10231e-08
2.00742e-05
1.10499e-08
2.00757e-05
1.10761e-08
2.00772e-05
1.11019e-08
2.00787e-05
1.11271e-08
2.00802e-05
1.11519e-08
2.00817e-05
1.11763e-08
2.00832e-05
1.12002e-08
2.00847e-05
1.12238e-08
2.00863e-05
1.1247e-08
2.00878e-05
1.12698e-08
2.00893e-05
1.12923e-08
2.00908e-05
1.13146e-08
2.00924e-05
1.13367e-08
2.00939e-05
1.13585e-08
2.00955e-05
1.13802e-08
2.0097e-05
1.14018e-08
2.00986e-05
1.14232e-08
2.01001e-05
1.14446e-08
2.01017e-05
1.14659e-08
2.01032e-05
1.1487e-08
2.01048e-05
1.15081e-08
2.01064e-05
1.1529e-08
2.01079e-05
1.15498e-08
2.01095e-05
1.15706e-08
2.01111e-05
1.15913e-08
2.01127e-05
1.1612e-08
2.01143e-05
1.16328e-08
2.01159e-05
1.16538e-08
2.01175e-05
1.16751e-08
2.01191e-05
1.16968e-08
2.01207e-05
1.17193e-08
2.01223e-05
1.17425e-08
2.01239e-05
1.17669e-08
2.01255e-05
1.17927e-08
2.01272e-05
1.182e-08
2.01288e-05
1.18493e-08
2.01304e-05
1.18809e-08
2.01321e-05
1.19152e-08
2.01337e-05
1.19524e-08
2.01353e-05
1.19932e-08
2.0137e-05
1.2038e-08
2.01386e-05
1.20874e-08
2.01403e-05
1.2142e-08
2.01419e-05
1.22026e-08
2.01436e-05
1.22699e-08
2.01453e-05
1.2345e-08
2.01469e-05
1.24289e-08
2.01486e-05
1.25227e-08
2.01503e-05
1.2628e-08
2.01519e-05
1.27462e-08
2.01536e-05
1.2879e-08
2.01553e-05
1.30285e-08
2.01569e-05
1.31968e-08
2.01586e-05
1.33865e-08
2.01603e-05
1.36004e-08
2.01619e-05
1.38416e-08
2.01636e-05
1.41138e-08
2.01652e-05
1.44209e-08
2.01668e-05
1.47675e-08
2.01685e-05
1.51586e-08
2.01701e-05
1.55999e-08
2.01716e-05
1.60979e-08
2.01732e-05
1.66597e-08
2.01748e-05
1.72934e-08
2.01763e-05
1.8008e-08
2.01778e-05
1.88136e-08
2.01792e-05
1.97215e-08
2.01806e-05
2.07444e-08
2.0182e-05
2.18966e-08
2.01833e-05
2.31939e-08
2.01846e-05
2.4654e-08
2.01858e-05
2.62969e-08
2.01869e-05
2.81447e-08
2.01879e-05
3.02222e-08
2.01889e-05
3.25571e-08
2.01897e-05
3.51803e-08
2.01905e-05
3.81263e-08
2.01911e-05
4.14335e-08
2.01917e-05
4.51446e-08
2.01921e-05
4.93075e-08
2.01923e-05
5.39751e-08
2.01924e-05
5.92063e-08
2.01923e-05
6.50668e-08
2.01921e-05
7.16291e-08
2.01917e-05
7.89737e-08
2.01912e-05
8.71898e-08
2.01904e-05
9.63757e-08
2.01896e-05
1.0664e-07
2.01885e-05
1.18102e-07
2.01874e-05
1.30894e-07
2.01862e-05
1.45158e-07
2.01849e-05
1.61053e-07
2.01836e-05
1.78749e-07
2.01824e-05
1.98432e-07
2.01814e-05
2.20304e-07
2.01807e-05
2.4458e-07
2.01805e-05
2.71493e-07
2.01809e-05
3.0129e-07
2.01821e-05
3.34233e-07
2.01846e-05
3.70596e-07
2.01885e-05
4.10668e-07
2.01943e-05
4.54746e-07
2.02026e-05
5.03137e-07
2.02139e-05
5.56155e-07
2.02289e-05
6.14119e-07
2.02486e-05
6.77351e-07
2.02742e-05
7.46182e-07
2.03068e-05
8.20953e-07
2.03482e-05
9.02031e-07
2.04001e-05
9.89819e-07
2.04649e-05
1.08479e-06
2.05447e-05
1.18754e-06
2.06422e-05
1.29881e-06
2.07597e-05
1.41959e-06
2.08994e-05
1.55119e-06
2.10629e-05
1.69535e-06
2.12512e-05
1.85426e-06
2.14643e-05
2.03075e-06
2.17005e-05
2.2283e-06
2.19563e-05
2.45142e-06
2.22277e-05
2.70604e-06
2.25153e-05
2.99849e-06
2.28301e-05
3.33519e-06
2.3177e-05
3.72104e-06
2.359e-05
4.1531e-06
2.39457e-05
4.63238e-06
2.41791e-05
5.08526e-06
2.45252e-05
5.55294e-06
2.36496e-05
5.69848e-06
2.13607e-05
5.68527e-06
1.80178e-05
5.6834e-06
1.41839e-05
5.46091e-06
1.05137e-05
4.01881e-06
7.63815e-06
2.8839e-06
5.51356e-06
2.20106e-06
3.87501e-06
1.90674e-06
2.49162e-06
1.59609e-06
1.34362e-06
1.24433e-06
4.06597e-07
9.98258e-07
-3.72347e-07
8.21529e-07
-9.96786e-07
6.43637e-07
-1.48527e-06
4.95406e-07
-1.86372e-06
3.67322e-07
-2.12595e-06
2.24547e-07
-2.25957e-06
8.77114e-08
-2.29787e-06
-5.24109e-09
-2.17899e-06
-1.71928e-07
-1.88134e-06
-3.91233e-07
-1.37632e-06
-6.85951e-07
-6.79545e-07
-9.60351e-07
5.97322e-08
-8.47431e-07
6.10661e-07
-6.4978e-07
8.8042e-07
-3.83004e-07
9.66353e-07
-2.05606e-07
9.70641e-07
-1.26944e-07
9.64281e-07
-1.1081e-07