/*--------------------------------*- C++ -*----------------------------------*\
| =========                 |                                                 |
| \\      /  F ield         | OpenFOAM: The Open Source CFD Toolbox           |
|  \\    /   O peration     | Version:  2406                                  |
|   \\  /    A nd           | Website:  www.openfoam.com                      |
|    \\/     M anipulation  |                                                 |
\*---------------------------------------------------------------------------*/
FoamFile
{
    version     2.0;
    format      ascii;
    arch        "LSB;label=32;scalar=64";
    class       volVectorField;
    location    "0.3";
    object      U;
}
// * * * * * * * * * * * * * * * * * * * * * * * * * * * * * * * * * * * * * //

dimensions      [0 1 -1 0 0 0 0];

internalField   nonuniform List<vector> 
6250
(
(35.4385 0.0144004 0)
(36.7067 0.0507674 0)
(23.3245 0.0599218 0)
(21.0066 0.0549437 0)
(24.182 0.0536635 0)
(25.7318 0.0579491 0)
(25.3 0.0628497 0)
(24.6728 0.0656156 0)
(24.5407 0.067084 0)
(24.648 0.068485 0)
(24.699 0.0700238 0)
(24.6582 0.0714179 0)
(24.5986 0.0725384 0)
(24.5587 0.0734604 0)
(24.5318 0.0742749 0)
(24.5037 0.0750063 0)
(24.4713 0.0756466 0)
(24.4374 0.0761958 0)
(24.4042 0.0766667 0)
(24.3715 0.077074 0)
(24.3389 0.0774268 0)
(24.306 0.077731 0)
(24.2729 0.0779914 0)
(24.2399 0.0782138 0)
(24.2068 0.0784037 0)
(24.1738 0.0785656 0)
(24.1407 0.0787024 0)
(24.1076 0.0788153 0)
(24.0745 0.0789055 0)
(24.0414 0.0789745 0)
(24.0083 0.0790251 0)
(23.9752 0.0790607 0)
(23.9421 0.0790848 0)
(23.909 0.0791007 0)
(23.8759 0.0791109 0)
(23.8428 0.0791173 0)
(23.8096 0.079121 0)
(23.7765 0.0791226 0)
(23.7434 0.0791225 0)
(23.7103 0.0791207 0)
(23.6771 0.0791171 0)
(23.644 0.0791109 0)
(23.6108 0.0791009 0)
(23.5777 0.0790852 0)
(23.5445 0.0790618 0)
(23.5114 0.0790287 0)
(23.4782 0.0789849 0)
(23.4451 0.0789298 0)
(23.4119 0.0788643 0)
(23.3788 0.0787894 0)
(23.3457 0.078707 0)
(23.3125 0.0786185 0)
(23.2795 0.0785252 0)
(23.2464 0.0784277 0)
(23.2133 0.0783261 0)
(23.1802 0.07822 0)
(23.1472 0.0781089 0)
(23.1142 0.077992 0)
(23.0812 0.0778687 0)
(23.0482 0.0777387 0)
(23.0152 0.0776019 0)
(22.9823 0.0774588 0)
(22.9493 0.0773101 0)
(22.9164 0.0771569 0)
(22.8836 0.0770004 0)
(22.8507 0.0768422 0)
(22.8179 0.0766833 0)
(22.7851 0.0765249 0)
(22.7523 0.0763678 0)
(22.7196 0.0762125 0)
(22.6868 0.0760591 0)
(22.6541 0.0759074 0)
(22.6214 0.0757566 0)
(22.5888 0.0756058 0)
(22.5561 0.0754536 0)
(22.5235 0.0752985 0)
(22.4909 0.0751391 0)
(22.4583 0.0749746 0)
(22.4258 0.0748043 0)
(22.3932 0.0746286 0)
(22.3607 0.074448 0)
(22.3283 0.0742636 0)
(22.2958 0.0740766 0)
(22.2634 0.0738884 0)
(22.231 0.0737002 0)
(22.1987 0.0735128 0)
(22.1664 0.0733271 0)
(22.1341 0.0731435 0)
(22.1018 0.0729625 0)
(22.0695 0.0727841 0)
(22.0373 0.0726083 0)
(22.0051 0.0724351 0)
(21.9729 0.0722643 0)
(21.9408 0.0720958 0)
(21.9087 0.0719297 0)
(21.8765 0.0717663 0)
(21.8444 0.0716059 0)
(21.8124 0.0714494 0)
(21.7803 0.0712975 0)
(21.7482 0.0711512 0)
(21.7161 0.0710114 0)
(21.6841 0.0708791 0)
(21.652 0.0707549 0)
(21.6199 0.0706397 0)
(21.5879 0.0705341 0)
(21.5557 0.0704388 0)
(21.5236 0.0703544 0)
(21.4915 0.0702816 0)
(21.4592 0.0702213 0)
(21.427 0.0701744 0)
(21.3947 0.070142 0)
(21.3623 0.0701253 0)
(21.3299 0.0701258 0)
(21.2974 0.0701455 0)
(21.2647 0.0701865 0)
(21.232 0.0702515 0)
(21.1991 0.0703438 0)
(21.1661 0.0704671 0)
(21.1329 0.0706259 0)
(21.0995 0.0708254 0)
(21.0659 0.0710715 0)
(21.032 0.0713707 0)
(20.9978 0.0717307 0)
(20.9633 0.07216 0)
(20.9284 0.0726682 0)
(20.893 0.0732661 0)
(20.8572 0.0739659 0)
(20.8207 0.0747812 0)
(20.7837 0.0757272 0)
(20.7459 0.0768211 0)
(20.7072 0.0780822 0)
(20.6676 0.0795319 0)
(20.627 0.0811945 0)
(20.5851 0.0830971 0)
(20.5418 0.0852704 0)
(20.497 0.0877486 0)
(20.4504 0.0905705 0)
(20.4017 0.0937795 0)
(20.3509 0.0974242 0)
(20.2974 0.10156 0)
(20.2411 0.106247 0)
(20.1815 0.111555 0)
(20.1182 0.11756 0)
(20.0507 0.12435 0)
(19.9785 0.13202 0)
(19.9011 0.140679 0)
(19.8176 0.150447 0)
(19.7274 0.161458 0)
(19.6296 0.173861 0)
(19.5232 0.187821 0)
(19.4072 0.203519 0)
(19.2803 0.221154 0)
(19.1411 0.240939 0)
(18.9882 0.263108 0)
(18.8198 0.287905 0)
(18.634 0.315588 0)
(18.4288 0.346424 0)
(18.2018 0.380679 0)
(17.9505 0.418609 0)
(17.6721 0.460452 0)
(17.3635 0.506406 0)
(17.0216 0.556612 0)
(16.6429 0.611121 0)
(16.2239 0.669867 0)
(15.7607 0.732617 0)
(15.2497 0.798925 0)
(14.6872 0.868065 0)
(14.0699 0.938951 0)
(13.3948 1.01003 0)
(12.6593 1.07925 0)
(11.8617 1.14405 0)
(11.0013 1.20128 0)
(10.0791 1.24724 0)
(9.09745 1.27769 0)
(8.06108 1.28792 0)
(6.97694 1.27304 0)
(5.85483 1.2283 0)
(4.70642 1.15006 0)
(3.54962 1.03899 0)
(2.39175 0.902494 0)
(1.32733 0.887992 0)
(-0.0308043 1.07042 0)
(-1.38997 -0.383688 0)
(-1.85972 -2.38277 0)
(-1.18281 -4.22301 0)
(-2.33654 -6.0246 0)
(2.27038 -6.80988 0)
(1.24128 0.539778 0)
(0.465503 0.607871 0)
(0.375212 0.236262 0)
(0.305016 0.0678627 0)
(0.244085 0.024791 0)
(0.202275 0.0111362 0)
(0.179396 0.00145723 0)
(0.16812 0.000438826 0)
(0.159867 -0.00203186 0)
(0.156475 -0.00660352 0)
(0.157766 -0.00638124 0)
(0.158106 -0.00122019 0)
(0.15496 0.00162583 0)
(0.150906 0.00094196 0)
(0.148873 -0.000699656 0)
(0.149173 -0.00153119 0)
(0.150579 -0.00100143 0)
(0.152134 0.000468473 0)
(0.153767 0.00147565 0)
(0.156435 0.00166317 0)
(0.160941 0.00153847 0)
(0.167077 0.00177839 0)
(0.173843 0.00271463 0)
(0.180173 0.00402862 0)
(0.185806 0.00472102 0)
(0.191876 0.0034629 0)
(0.200049 0.000540051 0)
(0.211182 -0.00272069 0)
(0.224705 -0.00500403 0)
(0.238387 -0.00523415 0)
(0.249639 -0.00369968 0)
(0.257027 -0.00199227 0)
(0.260186 -0.000797031 0)
(0.259228 0.000389089 0)
(0.254607 0.00199844 0)
(0.247234 0.00345359 0)
(0.238947 0.00360016 0)
(0.23254 0.00197385 0)
(0.230109 -0.000845183 0)
(0.23142 -0.0031605 0)
(0.233763 -0.00269981 0)
(0.235167 -7.28324e-05 0)
(0.236495 -0.000136425 0)
(0.240971 -0.00326523 0)
(0.249619 -0.00591739 0)
(0.258488 -0.00588925 0)
(0.26174 -0.00353263 0)
(0.256871 -0.000396521 0)
(0.245974 0.00162627 0)
(0.233109 0.00199745 0)
(0.221412 0.00141682 0)
(0.212103 0.000899617 0)
(0.204593 0.000988863 0)
(0.196947 0.00176272 0)
(0.187704 0.0026165 0)
(0.176927 0.00298365 0)
(0.166289 0.00221938 0)
(0.157616 0.000575635 0)
(0.152019 -0.00153105 0)
(0.149815 -0.00340752 0)
(0.149666 -0.00350117 0)
(0.148343 0.000115972 0)
(0.145275 0.00389181 0)
(35.4714 0.0106262 0)
(36.8246 0.0383405 0)
(23.4949 0.0476058 0)
(21.1939 0.0433075 0)
(24.3935 0.0411959 0)
(25.9879 0.0442366 0)
(25.6085 0.047987 0)
(25.0303 0.0496905 0)
(24.9438 0.0500789 0)
(25.0964 0.0504449 0)
(25.1945 0.051064 0)
(25.2021 0.0516418 0)
(25.1912 0.0520088 0)
(25.2 0.0522238 0)
(25.2215 0.052384 0)
(25.2422 0.0525214 0)
(25.2587 0.0526281 0)
(25.2737 0.0527 0)
(25.2894 0.0527454 0)
(25.3057 0.0527742 0)
(25.3219 0.0527922 0)
(25.3379 0.0528018 0)
(25.3537 0.0528054 0)
(25.3694 0.052805 0)
(25.385 0.0528026 0)
(25.4005 0.0527994 0)
(25.416 0.0527961 0)
(25.4313 0.0527934 0)
(25.4466 0.0527922 0)
(25.4617 0.0527936 0)
(25.4767 0.0527985 0)
(25.4917 0.0528079 0)
(25.5065 0.0528224 0)
(25.5213 0.0528424 0)
(25.5359 0.0528681 0)
(25.5505 0.0528994 0)
(25.565 0.0529359 0)
(25.5794 0.0529772 0)
(25.5937 0.0530231 0)
(25.6079 0.0530731 0)
(25.6221 0.0531266 0)
(25.6361 0.0531827 0)
(25.6501 0.0532401 0)
(25.664 0.0532975 0)
(25.6779 0.0533534 0)
(25.6916 0.0534071 0)
(25.7053 0.0534582 0)
(25.7189 0.0535071 0)
(25.7324 0.0535545 0)
(25.7458 0.0536016 0)
(25.7591 0.0536497 0)
(25.7724 0.0536998 0)
(25.7855 0.053753 0)
(25.7986 0.0538096 0)
(25.8116 0.0538695 0)
(25.8245 0.0539325 0)
(25.8373 0.0539975 0)
(25.85 0.0540636 0)
(25.8626 0.0541299 0)
(25.8751 0.0541955 0)
(25.8876 0.05426 0)
(25.8999 0.0543233 0)
(25.9122 0.0543854 0)
(25.9243 0.0544468 0)
(25.9364 0.054508 0)
(25.9484 0.0545693 0)
(25.9603 0.0546315 0)
(25.9721 0.0546947 0)
(25.9838 0.0547595 0)
(25.9954 0.054826 0)
(26.007 0.0548944 0)
(26.0184 0.0549646 0)
(26.0298 0.0550365 0)
(26.0411 0.0551096 0)
(26.0523 0.0551838 0)
(26.0634 0.0552586 0)
(26.0744 0.0553335 0)
(26.0854 0.0554084 0)
(26.0962 0.0554831 0)
(26.107 0.0555573 0)
(26.1177 0.0556312 0)
(26.1283 0.0557049 0)
(26.1388 0.0557784 0)
(26.1492 0.055852 0)
(26.1596 0.0559259 0)
(26.1698 0.0560002 0)
(26.18 0.056075 0)
(26.19 0.0561506 0)
(26.2 0.0562271 0)
(26.2099 0.0563047 0)
(26.2198 0.0563836 0)
(26.2295 0.0564642 0)
(26.2392 0.0565469 0)
(26.2487 0.0566322 0)
(26.2582 0.0567207 0)
(26.2677 0.0568131 0)
(26.277 0.05691 0)
(26.2863 0.0570121 0)
(26.2955 0.0571203 0)
(26.3046 0.0572351 0)
(26.3136 0.0573574 0)
(26.3226 0.057488 0)
(26.3315 0.0576277 0)
(26.3403 0.0577772 0)
(26.349 0.0579377 0)
(26.3577 0.0581102 0)
(26.3663 0.0582958 0)
(26.3748 0.058496 0)
(26.3833 0.0587122 0)
(26.3917 0.0589464 0)
(26.4 0.0592005 0)
(26.4082 0.059477 0)
(26.4164 0.0597786 0)
(26.4244 0.0601086 0)
(26.4324 0.0604708 0)
(26.4404 0.0608693 0)
(26.4482 0.0613093 0)
(26.456 0.0617962 0)
(26.4636 0.0623365 0)
(26.4712 0.0629376 0)
(26.4787 0.0636077 0)
(26.4861 0.0643562 0)
(26.4934 0.0651937 0)
(26.5006 0.0661323 0)
(26.5076 0.0671854 0)
(26.5146 0.0683683 0)
(26.5214 0.0696982 0)
(26.5281 0.0711945 0)
(26.5347 0.072879 0)
(26.5411 0.0747763 0)
(26.5473 0.0769141 0)
(26.5534 0.0793237 0)
(26.5593 0.0820402 0)
(26.565 0.0851034 0)
(26.5704 0.0885582 0)
(26.5756 0.0924552 0)
(26.5805 0.0968516 0)
(26.5852 0.101812 0)
(26.5894 0.10741 0)
(26.5933 0.113727 0)
(26.5968 0.120857 0)
(26.5998 0.128907 0)
(26.6023 0.137995 0)
(26.6041 0.148257 0)
(26.6052 0.159846 0)
(26.6055 0.172937 0)
(26.6049 0.187726 0)
(26.6031 0.204437 0)
(26.6001 0.223323 0)
(26.5957 0.244669 0)
(26.5895 0.268799 0)
(26.5813 0.296078 0)
(26.5707 0.326916 0)
(26.5573 0.361775 0)
(26.5406 0.40117 0)
(26.5199 0.445676 0)
(26.4944 0.495929 0)
(26.4632 0.552628 0)
(26.4253 0.616536 0)
(26.3791 0.688474 0)
(26.3232 0.769312 0)
(26.2554 0.859955 0)
(26.1734 0.961322 0)
(26.0744 1.0743 0)
(25.955 1.19973 0)
(25.8113 1.33829 0)
(25.6387 1.49046 0)
(25.4318 1.65641 0)
(25.1846 1.83588 0)
(24.8903 2.02807 0)
(24.5418 2.23147 0)
(24.1309 2.44373 0)
(23.6495 2.66153 0)
(23.0891 2.88041 0)
(22.4413 3.09472 0)
(21.6984 3.2976 0)
(20.854 3.48099 0)
(19.9032 3.63579 0)
(18.8478 3.75223 0)
(17.6893 3.81943 0)
(16.4852 3.82614 0)
(15.2134 3.79996 0)
(13.9846 3.53887 0)
(12.6445 3.05228 0)
(10.8295 2.44537 0)
(8.15702 1.37511 0)
(5.86904 -0.466642 0)
(2.05211 2.39274 0)
(1.49884 1.67793 0)
(1.26021 0.43519 0)
(0.873113 0.184561 0)
(0.683743 0.20001 0)
(0.600943 0.123697 0)
(0.549179 0.0588917 0)
(0.503066 0.0461319 0)
(0.461383 0.0353043 0)
(0.439214 0.00921782 0)
(0.432542 0.000865219 0)
(0.420187 0.00930339 0)
(0.399731 0.0158789 0)
(0.382885 0.012274 0)
(0.376056 0.00427912 0)
(0.376177 -0.00146591 0)
(0.378233 -0.00457811 0)
(0.381317 -0.00640606 0)
(0.386895 -0.0104178 0)
(0.397455 -0.0176317 0)
(0.413809 -0.0259636 0)
(0.43455 -0.0316484 0)
(0.457675 -0.0331236 0)
(0.480685 -0.0320465 0)
(0.501619 -0.0315316 0)
(0.522291 -0.0360266 0)
(0.546485 -0.0430028 0)
(0.575913 -0.0494002 0)
(0.609584 -0.0516834 0)
(0.64264 -0.0452226 0)
(0.672345 -0.0329517 0)
(0.695767 -0.018727 0)
(0.710424 -0.0028242 0)
(0.71761 0.0130903 0)
(0.715642 0.0247694 0)
(0.703863 0.0301203 0)
(0.685962 0.0269462 0)
(0.669523 0.0155251 0)
(0.660046 0.0016751 0)
(0.658654 -0.00569089 0)
(0.655526 -0.00537622 0)
(0.649075 -0.00359366 0)
(0.640878 -0.0104346 0)
(0.63985 -0.0261271 0)
(0.651931 -0.0348493 0)
(0.668557 -0.0230014 0)
(0.67573 0.00812244 0)
(0.66508 0.0379151 0)
(0.638397 0.0518445 0)
(0.60495 0.0513667 0)
(0.571592 0.0430994 0)
(0.540507 0.0328249 0)
(0.514385 0.0281441 0)
(0.492035 0.0333999 0)
(0.469031 0.0411516 0)
(0.444447 0.0442304 0)
(0.419858 0.0395708 0)
(0.398453 0.0301124 0)
(0.382145 0.0192068 0)
(0.373472 0.00867687 0)
(0.371569 0.00331222 0)
(0.367166 0.00797927 0)
(0.363462 0.0127502 0)
(35.4646 -0.000481966 0)
(36.785 -0.00214838 0)
(23.4276 -0.000970832 0)
(21.1234 0.00218211 0)
(24.3228 0.00504519 0)
(25.9062 0.00678555 0)
(25.5092 0.00788471 0)
(24.9144 0.00889991 0)
(24.8139 0.00988327 0)
(24.9537 0.0107783 0)
(25.0383 0.0115848 0)
(25.0315 0.012322 0)
(25.0063 0.0129987 0)
(25.0008 0.0136221 0)
(25.0084 0.0142034 0)
(25.015 0.0147523 0)
(25.0175 0.015274 0)
(25.0187 0.0157714 0)
(25.0205 0.0162468 0)
(25.023 0.0167026 0)
(25.0255 0.0171408 0)
(25.0279 0.0175632 0)
(25.0302 0.0179711 0)
(25.0325 0.0183653 0)
(25.0349 0.0187464 0)
(25.0373 0.0191153 0)
(25.0397 0.019473 0)
(25.0421 0.0198211 0)
(25.0445 0.0201609 0)
(25.0469 0.0204932 0)
(25.0494 0.0208183 0)
(25.0519 0.0211361 0)
(25.0544 0.0214465 0)
(25.0569 0.0217494 0)
(25.0595 0.0220446 0)
(25.062 0.0223324 0)
(25.0646 0.0226128 0)
(25.0672 0.0228862 0)
(25.0699 0.0231533 0)
(25.0725 0.0234144 0)
(25.0752 0.02367 0)
(25.0779 0.0239204 0)
(25.0807 0.0241658 0)
(25.0834 0.0244067 0)
(25.0862 0.0246439 0)
(25.089 0.0248781 0)
(25.0919 0.0251098 0)
(25.0948 0.0253397 0)
(25.0977 0.0255677 0)
(25.1006 0.0257941 0)
(25.1036 0.0260187 0)
(25.1065 0.0262415 0)
(25.1095 0.0264623 0)
(25.1126 0.0266812 0)
(25.1156 0.026898 0)
(25.1187 0.0271126 0)
(25.1218 0.0273249 0)
(25.125 0.0275348 0)
(25.1282 0.027742 0)
(25.1314 0.0279465 0)
(25.1346 0.0281484 0)
(25.1378 0.0283477 0)
(25.1411 0.0285443 0)
(25.1444 0.0287383 0)
(25.1477 0.0289294 0)
(25.1511 0.0291179 0)
(25.1544 0.0293034 0)
(25.1578 0.0294863 0)
(25.1612 0.0296664 0)
(25.1647 0.0298439 0)
(25.1681 0.0300191 0)
(25.1716 0.030192 0)
(25.1751 0.0303629 0)
(25.1787 0.030532 0)
(25.1822 0.0306995 0)
(25.1858 0.0308656 0)
(25.1894 0.0310306 0)
(25.1931 0.0311945 0)
(25.1967 0.0313575 0)
(25.2004 0.0315195 0)
(25.2041 0.0316804 0)
(25.2078 0.03184 0)
(25.2116 0.0319982 0)
(25.2154 0.0321549 0)
(25.2192 0.03231 0)
(25.223 0.0324633 0)
(25.2268 0.0326151 0)
(25.2307 0.0327654 0)
(25.2346 0.0329145 0)
(25.2385 0.0330626 0)
(25.2424 0.0332102 0)
(25.2463 0.0333577 0)
(25.2503 0.0335055 0)
(25.2543 0.0336541 0)
(25.2583 0.0338042 0)
(25.2623 0.0339562 0)
(25.2664 0.0341108 0)
(25.2704 0.0342684 0)
(25.2745 0.0344298 0)
(25.2786 0.0345955 0)
(25.2828 0.0347662 0)
(25.2869 0.0349426 0)
(25.2911 0.0351256 0)
(25.2953 0.0353161 0)
(25.2995 0.035515 0)
(25.3037 0.0357237 0)
(25.308 0.0359436 0)
(25.3123 0.0361762 0)
(25.3165 0.0364233 0)
(25.3209 0.0366871 0)
(25.3252 0.03697 0)
(25.3295 0.0372746 0)
(25.3339 0.0376039 0)
(25.3382 0.0379615 0)
(25.3426 0.0383513 0)
(25.347 0.0387776 0)
(25.3514 0.0392453 0)
(25.3557 0.0397602 0)
(25.3601 0.0403286 0)
(25.3645 0.0409576 0)
(25.3689 0.0416553 0)
(25.3733 0.0424308 0)
(25.3777 0.0432946 0)
(25.3821 0.0442581 0)
(25.3864 0.0453346 0)
(25.3907 0.0465389 0)
(25.395 0.0478877 0)
(25.3993 0.0493998 0)
(25.4035 0.0510966 0)
(25.4077 0.0530021 0)
(25.4118 0.0551434 0)
(25.4159 0.057551 0)
(25.42 0.0602594 0)
(25.4239 0.0633076 0)
(25.4278 0.0667396 0)
(25.4316 0.0706049 0)
(25.4353 0.0749597 0)
(25.4389 0.0798674 0)
(25.4425 0.0853998 0)
(25.4459 0.0916381 0)
(25.4492 0.0986744 0)
(25.4524 0.106613 0)
(25.4554 0.115572 0)
(25.4584 0.125687 0)
(25.4612 0.137109 0)
(25.464 0.150012 0)
(25.4667 0.164595 0)
(25.4694 0.181081 0)
(25.472 0.199727 0)
(25.4748 0.220824 0)
(25.4777 0.244705 0)
(25.4808 0.271749 0)
(25.4844 0.302388 0)
(25.4885 0.337115 0)
(25.4933 0.376488 0)
(25.4992 0.421146 0)
(25.5064 0.471809 0)
(25.5154 0.529297 0)
(25.5265 0.594529 0)
(25.5403 0.668539 0)
(25.5573 0.752479 0)
(25.5783 0.847622 0)
(25.6038 0.95536 0)
(25.6345 1.07719 0)
(25.6711 1.21472 0)
(25.7141 1.36957 0)
(25.7636 1.54341 0)
(25.8196 1.73783 0)
(25.8815 1.95428 0)
(25.9479 2.19387 0)
(26.0163 2.45727 0)
(26.0832 2.74442 0)
(26.1434 3.05436 0)
(26.1897 3.38496 0)
(26.2132 3.73271 0)
(26.2025 4.09244 0)
(26.1439 4.4572 0)
(26.0212 4.81794 0)
(25.8161 5.16337 0)
(25.5058 5.47886 0)
(25.0624 5.74386 0)
(24.4452 5.92054 0)
(23.5961 5.96854 0)
(22.4214 5.90456 0)
(20.8368 5.83443 0)
(18.7981 5.86051 0)
(16.2601 5.84549 0)
(13.3909 6.89682 0)
(9.40967 4.92066 0)
(7.09832 1.4838 0)
(2.68312 1.1936 0)
(1.50792 0.671442 0)
(1.2833 0.270382 0)
(1.1125 0.132246 0)
(0.876034 0.181698 0)
(0.751029 0.132184 0)
(0.709263 0.0385041 0)
(0.71792 0.00999492 0)
(0.655059 0.088714 0)
(0.576552 0.0828994 0)
(0.545533 0.0437578 0)
(0.5313 0.00978185 0)
(0.52193 -0.0109138 0)
(0.513221 -0.0197186 0)
(0.501201 -0.0160363 0)
(0.503292 -0.0258346 0)
(0.524833 -0.0456424 0)
(0.551149 -0.0645743 0)
(0.579403 -0.0777653 0)
(0.613392 -0.0813667 0)
(0.655729 -0.0751164 0)
(0.708946 -0.0639012 0)
(0.774657 -0.0724584 0)
(0.831786 -0.101446 0)
(0.87715 -0.130055 0)
(0.916461 -0.148283 0)
(0.958658 -0.144753 0)
(1.00945 -0.11381 0)
(1.05839 -0.0807759 0)
(1.09677 -0.0520768 0)
(1.12107 -0.0195468 0)
(1.13043 0.0168492 0)
(1.1255 0.0605194 0)
(1.11054 0.0831115 0)
(1.09974 0.0673416 0)
(1.10235 0.0326746 0)
(1.10881 -0.000591883 0)
(1.10389 -0.00174309 0)
(1.06113 0.0432442 0)
(1.01829 0.028565 0)
(1.00153 -0.0251845 0)
(1.01692 -0.0583863 0)
(1.059 -0.0488254 0)
(1.08284 -0.00615928 0)
(1.06847 0.0581439 0)
(1.02386 0.109982 0)
(0.973075 0.127979 0)
(0.9262 0.129425 0)
(0.877928 0.126675 0)
(0.82206 0.10772 0)
(0.777213 0.0900932 0)
(0.734387 0.0843478 0)
(0.694392 0.0911538 0)
(0.660576 0.0866746 0)
(0.637001 0.0722394 0)
(0.620571 0.0541381 0)
(0.610763 0.0237068 0)
(0.612762 -0.0117599 0)
(0.640784 0.0224459 0)
(0.666378 0.070701 0)
(35.471 0.0026374 0)
(36.8036 0.0117839 0)
(23.4445 0.0181395 0)
(21.1327 0.0214415 0)
(24.3278 0.0234441 0)
(25.9105 0.0252406 0)
(25.5136 0.0271557 0)
(24.9184 0.0290006 0)
(24.817 0.0305701 0)
(24.9557 0.0318556 0)
(25.0394 0.0329558 0)
(25.032 0.0339384 0)
(25.006 0.0348121 0)
(24.9999 0.0355712 0)
(25.0067 0.0362241 0)
(25.0127 0.0367895 0)
(25.0145 0.0372831 0)
(25.0149 0.0377146 0)
(25.016 0.0380909 0)
(25.0178 0.0384185 0)
(25.0197 0.0387038 0)
(25.0213 0.0389525 0)
(25.0229 0.0391694 0)
(25.0245 0.0393585 0)
(25.0261 0.0395233 0)
(25.0277 0.0396667 0)
(25.0293 0.0397913 0)
(25.0309 0.0398996 0)
(25.0325 0.0399935 0)
(25.0341 0.0400754 0)
(25.0358 0.0401474 0)
(25.0374 0.0402114 0)
(25.039 0.0402686 0)
(25.0406 0.0403201 0)
(25.0423 0.0403664 0)
(25.0439 0.0404081 0)
(25.0456 0.040446 0)
(25.0472 0.0404809 0)
(25.0489 0.0405133 0)
(25.0505 0.0405435 0)
(25.0522 0.0405717 0)
(25.0539 0.0405977 0)
(25.0555 0.0406212 0)
(25.0572 0.040642 0)
(25.0589 0.0406596 0)
(25.0606 0.0406737 0)
(25.0623 0.0406843 0)
(25.064 0.0406913 0)
(25.0657 0.040695 0)
(25.0674 0.0406961 0)
(25.0691 0.0406953 0)
(25.0708 0.0406936 0)
(25.0725 0.0406917 0)
(25.0742 0.0406904 0)
(25.076 0.04069 0)
(25.0777 0.0406907 0)
(25.0794 0.0406921 0)
(25.0812 0.0406942 0)
(25.0829 0.0406965 0)
(25.0847 0.0406986 0)
(25.0865 0.0407002 0)
(25.0882 0.040701 0)
(25.09 0.0407008 0)
(25.0918 0.0406994 0)
(25.0936 0.0406968 0)
(25.0954 0.0406932 0)
(25.0972 0.0406887 0)
(25.099 0.0406834 0)
(25.1008 0.0406776 0)
(25.1026 0.0406714 0)
(25.1044 0.0406651 0)
(25.1062 0.0406588 0)
(25.108 0.0406526 0)
(25.1099 0.0406466 0)
(25.1117 0.0406409 0)
(25.1136 0.0406358 0)
(25.1154 0.0406314 0)
(25.1173 0.0406277 0)
(25.1191 0.0406249 0)
(25.121 0.0406231 0)
(25.1229 0.0406223 0)
(25.1247 0.0406225 0)
(25.1266 0.0406236 0)
(25.1285 0.0406256 0)
(25.1304 0.0406282 0)
(25.1323 0.0406315 0)
(25.1342 0.0406353 0)
(25.1361 0.0406395 0)
(25.138 0.0406442 0)
(25.14 0.0406494 0)
(25.1419 0.0406552 0)
(25.1438 0.040662 0)
(25.1458 0.0406701 0)
(25.1477 0.04068 0)
(25.1496 0.0406921 0)
(25.1516 0.0407073 0)
(25.1536 0.0407263 0)
(25.1555 0.0407498 0)
(25.1575 0.0407787 0)
(25.1595 0.040814 0)
(25.1615 0.0408565 0)
(25.1634 0.0409073 0)
(25.1654 0.0409673 0)
(25.1674 0.0410379 0)
(25.1694 0.0411201 0)
(25.1714 0.0412155 0)
(25.1734 0.0413255 0)
(25.1754 0.0414521 0)
(25.1774 0.0415971 0)
(25.1794 0.0417631 0)
(25.1814 0.0419526 0)
(25.1834 0.0421686 0)
(25.1854 0.0424145 0)
(25.1874 0.0426942 0)
(25.1894 0.0430122 0)
(25.1914 0.0433734 0)
(25.1933 0.0437834 0)
(25.1953 0.0442486 0)
(25.1972 0.0447762 0)
(25.1991 0.0453743 0)
(25.201 0.0460521 0)
(25.2028 0.0468198 0)
(25.2046 0.0476891 0)
(25.2063 0.048673 0)
(25.208 0.0497861 0)
(25.2097 0.0510451 0)
(25.2113 0.0524684 0)
(25.2128 0.0540769 0)
(25.2142 0.0558939 0)
(25.2155 0.0579456 0)
(25.2167 0.0602616 0)
(25.2178 0.0628749 0)
(25.2187 0.0658225 0)
(25.2195 0.0691459 0)
(25.2201 0.0728917 0)
(25.2206 0.0771122 0)
(25.2208 0.0818658 0)
(25.2207 0.0872181 0)
(25.2204 0.0932427 0)
(25.2198 0.100022 0)
(25.2189 0.107648 0)
(25.2176 0.116225 0)
(25.2159 0.125867 0)
(25.2138 0.136706 0)
(25.2112 0.148885 0)
(25.2081 0.162567 0)
(25.2045 0.177933 0)
(25.2002 0.195185 0)
(25.1954 0.214551 0)
(25.1899 0.236281 0)
(25.1836 0.260656 0)
(25.1767 0.287989 0)
(25.1691 0.318626 0)
(25.1608 0.352952 0)
(25.1518 0.391395 0)
(25.1423 0.434426 0)
(25.1322 0.482569 0)
(25.1219 0.536399 0)
(25.1114 0.596553 0)
(25.1012 0.663735 0)
(25.0917 0.738719 0)
(25.0835 0.822362 0)
(25.0772 0.915609 0)
(25.0738 1.01951 0)
(25.0744 1.13522 0)
(25.0806 1.26403 0)
(25.0939 1.40737 0)
(25.1165 1.56682 0)
(25.1506 1.7441 0)
(25.1987 1.94109 0)
(25.2635 2.15978 0)
(25.3477 2.4022 0)
(25.4536 2.67039 0)
(25.5829 2.96623 0)
(25.736 3.29128 0)
(25.9116 3.64655 0)
(26.1057 4.03229 0)
(26.3111 4.44778 0)
(26.5156 4.8912 0)
(26.7021 5.35969 0)
(26.8462 5.85075 0)
(26.9189 6.36163 0)
(26.8845 6.89798 0)
(26.7075 7.48803 0)
(26.3478 8.17437 0)
(25.8239 9.01905 0)
(25.0581 10.0392 0)
(24.28 11.3961 0)
(23.0018 12.2866 0)
(21.0726 12.2295 0)
(18.4614 12.0181 0)
(12.397 5.45459 0)
(7.00726 1.00559 0)
(4.60294 0.208191 0)
(1.83933 0.754386 0)
(1.46913 0.32814 0)
(1.26929 -0.0359583 0)
(1.25319 -0.0908192 0)
(1.08707 0.244587 0)
(0.820354 0.167994 0)
(0.720576 0.0621274 0)
(0.647928 0.0254288 0)
(0.588899 0.0172396 0)
(0.55977 0.0230457 0)
(0.557146 0.0372753 0)
(0.542509 -0.0182477 0)
(0.544198 -0.0504253 0)
(0.554416 -0.0637006 0)
(0.552469 -0.0726933 0)
(0.544335 -0.0754476 0)
(0.556502 -0.0771935 0)
(0.63329 -0.0725432 0)
(0.868304 -0.140916 0)
(0.994774 -0.204198 0)
(1.03805 -0.195648 0)
(1.07972 -0.197629 0)
(1.13179 -0.209976 0)
(1.19445 -0.209072 0)
(1.27255 -0.172164 0)
(1.35129 -0.11343 0)
(1.43472 -0.0361372 0)
(1.53568 0.0291287 0)
(1.60689 0.060619 0)
(1.61013 0.054534 0)
(1.59273 0.0153248 0)
(1.59763 -0.0437676 0)
(1.61918 -0.0355444 0)
(1.62855 0.0879842 0)
(1.57943 0.201141 0)
(1.51262 0.147236 0)
(1.46763 -0.00221476 0)
(1.44367 -0.153327 0)
(1.50867 -0.197388 0)
(1.59636 0.0376639 0)
(1.60829 0.228479 0)
(1.5569 0.253614 0)
(1.49649 0.234632 0)
(1.43266 0.226009 0)
(1.37113 0.213126 0)
(1.30434 0.207363 0)
(1.17792 0.243683 0)
(1.07494 0.247724 0)
(1.02313 0.205198 0)
(0.999913 0.144672 0)
(0.981488 0.0999186 0)
(0.960283 0.0665578 0)
(0.939385 0.0220109 0)
(0.928071 -0.0576626 0)
(0.95976 -0.147515 0)
(1.05721 -0.104032 0)
(35.471 0.000946673 0)
(36.8011 0.00356133 0)
(23.4386 0.00512093 0)
(21.1269 0.00598182 0)
(24.3232 0.00690894 0)
(25.9063 0.00801918 0)
(25.5093 0.00911291 0)
(24.9136 0.0100437 0)
(24.8119 0.0108075 0)
(24.9506 0.0114668 0)
(25.0343 0.0120674 0)
(25.0269 0.0126188 0)
(25.0009 0.0131158 0)
(24.9948 0.0135588 0)
(25.0017 0.013956 0)
(25.0077 0.0143171 0)
(25.0096 0.0146488 0)
(25.0101 0.0149553 0)
(25.0113 0.0152399 0)
(25.0132 0.0155059 0)
(25.0152 0.0157559 0)
(25.017 0.0159925 0)
(25.0186 0.0162174 0)
(25.0204 0.0164326 0)
(25.0221 0.0166395 0)
(25.0238 0.0168393 0)
(25.0256 0.0170327 0)
(25.0273 0.0172207 0)
(25.029 0.0174041 0)
(25.0308 0.0175839 0)
(25.0325 0.0177605 0)
(25.0342 0.0179344 0)
(25.036 0.0181056 0)
(25.0377 0.0182741 0)
(25.0395 0.01844 0)
(25.0412 0.0186037 0)
(25.043 0.0187651 0)
(25.0447 0.0189245 0)
(25.0465 0.0190817 0)
(25.0482 0.0192369 0)
(25.05 0.01939 0)
(25.0518 0.0195414 0)
(25.0535 0.0196912 0)
(25.0553 0.0198396 0)
(25.0571 0.019987 0)
(25.0589 0.0201333 0)
(25.0607 0.0202788 0)
(25.0625 0.0204237 0)
(25.0643 0.020568 0)
(25.0661 0.0207119 0)
(25.0679 0.0208555 0)
(25.0697 0.0209988 0)
(25.0715 0.0211419 0)
(25.0733 0.0212846 0)
(25.0752 0.0214268 0)
(25.077 0.0215684 0)
(25.0788 0.0217093 0)
(25.0807 0.0218493 0)
(25.0825 0.0219885 0)
(25.0843 0.0221268 0)
(25.0862 0.0222641 0)
(25.0881 0.0224003 0)
(25.0899 0.0225354 0)
(25.0918 0.0226693 0)
(25.0937 0.0228021 0)
(25.0955 0.0229336 0)
(25.0974 0.0230639 0)
(25.0993 0.023193 0)
(25.1012 0.0233209 0)
(25.1031 0.0234476 0)
(25.105 0.0235731 0)
(25.1069 0.0236974 0)
(25.1088 0.0238205 0)
(25.1107 0.0239424 0)
(25.1126 0.0240631 0)
(25.1145 0.0241828 0)
(25.1164 0.0243016 0)
(25.1184 0.0244194 0)
(25.1203 0.0245364 0)
(25.1222 0.0246525 0)
(25.1242 0.0247679 0)
(25.1261 0.0248825 0)
(25.1281 0.0249962 0)
(25.13 0.0251093 0)
(25.132 0.0252215 0)
(25.1339 0.0253331 0)
(25.1359 0.0254441 0)
(25.1379 0.0255546 0)
(25.1399 0.0256649 0)
(25.1419 0.0257752 0)
(25.1439 0.0258858 0)
(25.1459 0.025997 0)
(25.1479 0.0261093 0)
(25.1499 0.0262231 0)
(25.1519 0.026339 0)
(25.1539 0.0264574 0)
(25.1559 0.0265791 0)
(25.1579 0.0267046 0)
(25.16 0.0268348 0)
(25.162 0.0269703 0)
(25.164 0.027112 0)
(25.1661 0.027261 0)
(25.1681 0.0274184 0)
(25.1702 0.0275852 0)
(25.1723 0.0277631 0)
(25.1743 0.0279534 0)
(25.1764 0.0281581 0)
(25.1785 0.0283791 0)
(25.1805 0.0286189 0)
(25.1826 0.02888 0)
(25.1847 0.0291655 0)
(25.1868 0.0294787 0)
(25.1889 0.0298234 0)
(25.1909 0.0302041 0)
(25.193 0.0306256 0)
(25.1951 0.0310934 0)
(25.1972 0.0316137 0)
(25.1993 0.0321936 0)
(25.2014 0.0328408 0)
(25.2034 0.0335644 0)
(25.2055 0.0343742 0)
(25.2075 0.0352814 0)
(25.2096 0.0362987 0)
(25.2116 0.0374401 0)
(25.2136 0.0387216 0)
(25.2155 0.0401611 0)
(25.2175 0.0417784 0)
(25.2194 0.0435961 0)
(25.2213 0.0456394 0)
(25.2231 0.0479365 0)
(25.2249 0.0505191 0)
(25.2266 0.0534227 0)
(25.2283 0.056687 0)
(25.2299 0.0603566 0)
(25.2315 0.0644813 0)
(25.2329 0.0691169 0)
(25.2343 0.0743257 0)
(25.2355 0.0801775 0)
(25.2367 0.0867503 0)
(25.2377 0.0941314 0)
(25.2386 0.102418 0)
(25.2393 0.111719 0)
(25.2399 0.122156 0)
(25.2403 0.133864 0)
(25.2405 0.146994 0)
(25.2405 0.161715 0)
(25.2403 0.178212 0)
(25.24 0.196695 0)
(25.2394 0.217393 0)
(25.2386 0.240561 0)
(25.2376 0.266484 0)
(25.2364 0.295472 0)
(25.235 0.327869 0)
(25.2335 0.364053 0)
(25.2319 0.404438 0)
(25.2303 0.449475 0)
(25.2288 0.499656 0)
(25.2274 0.555512 0)
(25.2263 0.617615 0)
(25.2256 0.686579 0)
(25.2257 0.763054 0)
(25.2267 0.847728 0)
(25.2289 0.941318 0)
(25.2328 1.04457 0)
(25.2388 1.15825 0)
(25.2475 1.28315 0)
(25.2595 1.42005 0)
(25.2757 1.56975 0)
(25.2971 1.73309 0)
(25.3251 1.91092 0)
(25.361 2.10416 0)
(25.4067 2.31385 0)
(25.4644 2.54122 0)
(25.5366 2.78778 0)
(25.6261 3.05547 0)
(25.7361 3.34682 0)
(25.8697 3.66513 0)
(26.0299 4.01469 0)
(26.2192 4.40113 0)
(26.4393 4.83179 0)
(26.691 5.3162 0)
(26.9734 5.86657 0)
(27.2831 6.498 0)
(27.6167 7.22889 0)
(27.9677 8.07726 0)
(28.3476 9.0625 0)
(28.7561 10.1964 0)
(29.2233 11.4686 0)
(29.7738 12.8294 0)
(30.1247 14.0894 0)
(30.5604 15.619 0)
(30.1431 15.7967 0)
(28.4939 14.7398 0)
(25.1824 12.6892 0)
(21.5955 9.23774 0)
(13.9618 2.60134 0)
(10.2945 0.257526 0)
(8.44122 0.243902 0)
(6.87019 0.940562 0)
(3.50065 0.600025 0)
(2.07948 0.220431 0)
(1.32994 0.13745 0)
(-0.115044 0.122079 0)
(-0.875501 0.027544 0)
(-1.58943 -0.0389511 0)
(-2.14148 -0.0945288 0)
(-2.46094 -0.245953 0)
(-2.78897 -0.301053 0)
(-3.01666 -0.314276 0)
(-2.88912 -0.421152 0)
(-2.50851 -0.74617 0)
(-1.92307 -1.36739 0)
(-1.81746 -1.82511 0)
(-0.380539 -0.689607 0)
(0.712408 -0.264675 0)
(0.963711 -0.218782 0)
(1.15387 -0.22598 0)
(1.2168 -0.245249 0)
(1.20375 -0.239348 0)
(1.21852 -0.195962 0)
(1.28377 -0.144688 0)
(1.67138 -0.164839 0)
(2.19116 0.125817 0)
(2.24287 0.216553 0)
(2.22136 0.0959113 0)
(2.21698 -0.0295307 0)
(2.25315 -0.0253677 0)
(2.30865 0.0946239 0)
(2.29849 0.205557 0)
(2.2039 0.212022 0)
(2.11748 0.0859789 0)
(2.12407 -0.142838 0)
(2.20985 -0.358394 0)
(2.34749 -0.440163 0)
(2.49446 0.18586 0)
(2.28058 0.370109 0)
(2.23934 0.338881 0)
(2.19654 0.389608 0)
(2.10124 0.433029 0)
(2.00491 0.435735 0)
(1.88256 0.41876 0)
(1.77397 0.410228 0)
(1.64436 0.356642 0)
(1.62578 0.235009 0)
(1.63288 0.132982 0)
(1.58526 0.131402 0)
(1.51727 0.121871 0)
(1.48562 -0.0181152 0)
(1.48818 -0.218879 0)
(1.52225 -0.390846 0)
(35.473 0.00125255 0)
(36.807 0.0053666 0)
(23.4452 0.00832017 0)
(21.1323 0.0101178 0)
(24.3278 0.0117248 0)
(25.9108 0.0134135 0)
(25.5136 0.0150533 0)
(24.9178 0.0165296 0)
(24.8158 0.0178439 0)
(24.9542 0.0190396 0)
(25.0378 0.0201408 0)
(25.0301 0.0211506 0)
(25.004 0.0220687 0)
(24.9976 0.0229 0)
(25.0043 0.0236534 0)
(25.0102 0.0243377 0)
(25.0119 0.0249601 0)
(25.0122 0.0255261 0)
(25.0133 0.0260409 0)
(25.0151 0.026509 0)
(25.0169 0.0269351 0)
(25.0185 0.0273232 0)
(25.0201 0.0276774 0)
(25.0217 0.0280008 0)
(25.0233 0.0282963 0)
(25.0249 0.0285662 0)
(25.0266 0.028813 0)
(25.0282 0.0290391 0)
(25.0298 0.0292467 0)
(25.0315 0.0294378 0)
(25.0331 0.0296142 0)
(25.0348 0.0297772 0)
(25.0365 0.029928 0)
(25.0381 0.030068 0)
(25.0398 0.0301982 0)
(25.0415 0.0303195 0)
(25.0432 0.0304325 0)
(25.0449 0.0305381 0)
(25.0466 0.0306368 0)
(25.0483 0.0307292 0)
(25.05 0.0308158 0)
(25.0517 0.030897 0)
(25.0535 0.030973 0)
(25.0552 0.0310439 0)
(25.0569 0.0311097 0)
(25.0587 0.0311706 0)
(25.0604 0.0312266 0)
(25.0622 0.0312782 0)
(25.064 0.0313256 0)
(25.0657 0.0313693 0)
(25.0675 0.0314099 0)
(25.0693 0.0314479 0)
(25.0711 0.0314836 0)
(25.0729 0.0315176 0)
(25.0746 0.0315501 0)
(25.0765 0.0315812 0)
(25.0783 0.031611 0)
(25.0801 0.0316396 0)
(25.0819 0.0316668 0)
(25.0837 0.0316925 0)
(25.0856 0.0317166 0)
(25.0874 0.0317389 0)
(25.0892 0.0317594 0)
(25.0911 0.0317779 0)
(25.0929 0.0317945 0)
(25.0948 0.0318093 0)
(25.0967 0.0318224 0)
(25.0985 0.0318338 0)
(25.1004 0.0318437 0)
(25.1023 0.0318523 0)
(25.1042 0.0318596 0)
(25.1061 0.0318659 0)
(25.108 0.0318713 0)
(25.1099 0.0318759 0)
(25.1118 0.03188 0)
(25.1137 0.0318837 0)
(25.1156 0.0318871 0)
(25.1176 0.0318905 0)
(25.1195 0.0318937 0)
(25.1214 0.031897 0)
(25.1234 0.0319003 0)
(25.1253 0.0319037 0)
(25.1273 0.031907 0)
(25.1292 0.0319102 0)
(25.1312 0.0319133 0)
(25.1332 0.0319163 0)