/*--------------------------------*- C++ -*----------------------------------*\
| =========                 |                                                 |
| \\      /  F ield         | OpenFOAM: The Open Source CFD Toolbox           |
|  \\    /   O peration     | Version:  2406                                  |
|   \\  /    A nd           | Website:  www.openfoam.com                      |
|    \\/     M anipulation  |                                                 |
\*---------------------------------------------------------------------------*/
FoamFile
{
    version     2.0;
    format      ascii;
    arch        "LSB;label=32;scalar=64";
    class       volVectorField;
    location    "0.3";
    object      U;
}
// * * * * * * * * * * * * * * * * * * * * * * * * * * * * * * * * * * * * * //

dimensions      [0 1 -1 0 0 0 0];

internalField   nonuniform List<vector> 
6250
(
(34.7274 1.74034e-05 0)
(58.9129 0.000279595 0)
(50.6649 0.000622289 0)
(41.9733 0.000703385 0)
(41.4311 0.000615028 0)
(43.7983 0.000641055 0)
(44.835 0.000810538 0)
(44.5256 0.000928477 0)
(44.1027 0.000925538 0)
(44.033 0.000912109 0)
(44.1308 0.000995909 0)
(44.1877 0.00106366 0)
(44.1795 0.00104152 0)
(44.1588 0.000939016 0)
(44.153 0.000796023 0)
(44.1565 0.000690662 0)
(44.1591 0.000689707 0)
(44.1585 0.000722773 0)
(44.1571 0.000700052 0)
(44.1563 0.000687867 0)
(44.1559 0.000793531 0)
(44.1551 0.000981848 0)
(44.1545 0.00119162 0)
(44.1534 0.00134158 0)
(44.1524 0.00130823 0)
(44.1515 0.00113009 0)
(44.1509 0.000968015 0)
(44.1501 0.000888526 0)
(44.1492 0.0008295 0)
(44.1487 0.000780827 0)
(44.1481 0.000825739 0)
(44.1473 0.000981524 0)
(44.1464 0.00112275 0)
(44.1454 0.00112982 0)
(44.1447 0.00101919 0)
(44.1441 0.000864103 0)
(44.1435 0.00069243 0)
(44.1431 0.000517599 0)
(44.1427 0.000379074 0)
(44.1424 0.000316769 0)
(44.142 0.000340549 0)
(44.1416 0.000410829 0)
(44.1411 0.00046804 0)
(44.1406 0.000479713 0)
(44.1403 0.000435675 0)
(44.14 0.000325698 0)
(44.1399 0.000170535 0)
(44.1398 5.2816e-05 0)
(44.1398 3.59527e-05 0)
(44.1396 9.68843e-05 0)
(44.1394 0.000157846 0)
(44.1392 0.000161065 0)
(44.139 8.37759e-05 0)
(44.1389 -6.61162e-05 0)
(44.1388 -0.000225296 0)
(44.1389 -0.000287514 0)
(44.139 -0.000202611 0)
(44.1388 -5.93656e-05 0)
(44.1385 -8.71638e-06 0)
(44.1384 -0.000109613 0)
(44.1383 -0.000284937 0)
(44.1383 -0.000444047 0)
(44.1383 -0.000570192 0)
(44.1383 -0.000653424 0)
(44.1385 -0.000625568 0)
(44.1386 -0.000430424 0)
(44.1384 -0.000172982 0)
(44.1382 -2.31562e-05 0)
(44.1381 -7.05031e-05 0)
(44.1381 -0.000250976 0)
(44.1381 -0.000452215 0)
(44.1382 -0.000608661 0)
(44.1384 -0.000696766 0)
(44.1386 -0.000722658 0)
(44.1387 -0.000706678 0)
(44.1388 -0.000676894 0)
(44.1389 -0.000657742 0)
(44.1389 -0.000660611 0)
(44.139 -0.000675059 0)
(44.139 -0.000675666 0)
(44.1391 -0.000642784 0)
(44.1392 -0.000578616 0)
(44.1393 -0.000496557 0)
(44.1394 -0.000395673 0)
(44.1395 -0.000258868 0)
(44.1397 -8.34534e-05 0)
(44.1397 9.84914e-05 0)
(44.1398 0.000244838 0)
(44.1399 0.000344274 0)
(44.14 0.000418535 0)
(44.1401 0.000485293 0)
(44.1403 0.000529852 0)
(44.1404 0.000524238 0)
(44.1405 0.000463747 0)
(44.1408 0.000372778 0)
(44.141 0.000279114 0)
(44.1413 0.000192835 0)
(44.1415 0.00011049 0)
(44.1417 3.1e-05 0)
(44.1419 -3.74057e-05 0)
(44.1422 -8.32374e-05 0)
(44.1423 -0.000100315 0)
(44.1425 -9.1459e-05 0)
(44.1426 -6.70749e-05 0)
(44.1427 -4.01449e-05 0)
(44.1428 -1.96208e-05 0)
(44.1429 -4.78817e-06 0)
(44.1429 1.26243e-05 0)
(44.1429 3.94427e-05 0)
(44.1429 6.95237e-05 0)
(44.1429 8.46847e-05 0)
(44.1429 7.65089e-05 0)
(44.143 5.03049e-05 0)
(44.143 2.09637e-05 0)
(44.143 2.41113e-06 0)
(44.1431 -1.25617e-06 0)
(44.1431 4.34562e-06 0)
(44.1431 6.60492e-06 0)
(44.1431 -2.30347e-06 0)
(44.1431 -2.1559e-05 0)
(44.1432 -4.34804e-05 0)
(44.1432 -5.85341e-05 0)
(44.1433 -6.00258e-05 0)
(44.1433 -4.87766e-05 0)
(44.1433 -3.75445e-05 0)
(44.1432 -3.89665e-05 0)
(44.1432 -5.35506e-05 0)
(44.1432 -7.02276e-05 0)
(44.1432 -7.90127e-05 0)
(44.1433 -7.7891e-05 0)
(44.1433 -7.33287e-05 0)
(44.1433 -7.53661e-05 0)
(44.1433 -8.5382e-05 0)
(44.1434 -9.7124e-05 0)
(44.1434 -0.00010088 0)
(44.1435 -9.2771e-05 0)
(44.1435 -8.00637e-05 0)
(44.1435 -7.34476e-05 0)
(44.1435 -7.53466e-05 0)
(44.1436 -7.73277e-05 0)
(44.1436 -6.77752e-05 0)
(44.1436 -4.19565e-05 0)
(44.1436 -7.11675e-06 0)
(44.1436 2.63492e-05 0)
(44.1435 5.53582e-05 0)
(44.1435 8.39561e-05 0)
(44.1434 0.000111704 0)
(44.1433 0.000127425 0)
(44.1432 0.000115623 0)
(44.1432 8.16039e-05 0)
(44.1432 5.57518e-05 0)
(44.1432 6.69262e-05 0)
(44.1431 0.000117228 0)
(44.143 0.000176081 0)
(44.1428 0.00020376 0)
(44.1427 0.000183682 0)
(44.1426 0.000132437 0)
(44.1426 8.33403e-05 0)
(44.1426 6.29527e-05 0)
(44.1426 7.35508e-05 0)
(44.1426 9.96229e-05 0)
(44.1425 0.000124227 0)
(44.1424 0.000135659 0)
(44.1423 0.000130475 0)
(44.1422 0.000111328 0)
(44.1421 8.31265e-05 0)
(44.1421 4.90655e-05 0)
(44.1421 1.28833e-05 0)
(44.1421 -1.94301e-05 0)
(44.1421 -3.93504e-05 0)
(44.1421 -3.1446e-05 0)
(44.1421 2.36818e-06 0)
(44.142 4.055e-05 0)
(44.1419 5.36645e-05 0)
(44.1418 2.88434e-05 0)
(44.1418 -2.03667e-05 0)
(44.1417 -6.61014e-05 0)
(44.1418 -9.20214e-05 0)
(44.1418 -9.78638e-05 0)
(44.1418 -9.20492e-05 0)
(44.1418 -7.95297e-05 0)
(44.1418 -6.34288e-05 0)
(44.1417 -4.75846e-05 0)
(44.1416 -3.86576e-05 0)
(44.1416 -4.37478e-05 0)
(44.1415 -6.56087e-05 0)
(44.1415 -9.89183e-05 0)
(44.1415 -0.000133349 0)
(44.1415 -0.000161201 0)
(44.1415 -0.000176326 0)
(44.1415 -0.000174257 0)
(44.1416 -0.000156296 0)
(44.1416 -0.000130964 0)
(44.1416 -0.000108532 0)
(44.1415 -9.26553e-05 0)
(44.1415 -8.12674e-05 0)
(44.1415 -7.34454e-05 0)
(44.1415 -7.23878e-05 0)
(44.1415 -8.16327e-05 0)
(44.1415 -9.87716e-05 0)
(44.1415 -0.000113454 0)
(44.1416 -0.000112601 0)
(44.1416 -9.20631e-05 0)
(44.1416 -5.89781e-05 0)
(44.1416 -2.43704e-05 0)
(44.1416 5.24238e-06 0)
(44.1416 3.15858e-05 0)
(44.1416 5.72936e-05 0)
(44.1416 7.9249e-05 0)
(44.1416 8.89726e-05 0)
(44.1416 8.03012e-05 0)
(44.1416 5.52058e-05 0)
(44.1417 2.40807e-05 0)
(44.1418 -7.60195e-07 0)
(44.142 -1.26153e-05 0)
(44.1421 -1.10852e-05 0)
(44.1422 1.3631e-06 0)
(44.1423 2.0869e-05 0)
(44.1424 4.12993e-05 0)
(44.1424 5.55627e-05 0)
(44.1425 5.97451e-05 0)
(44.1426 5.43238e-05 0)
(44.1426 4.23339e-05 0)
(44.1427 2.77392e-05 0)
(44.1428 1.51302e-05 0)
(44.1429 1.00604e-05 0)
(44.1431 1.81465e-05 0)
(44.1432 4.27843e-05 0)
(44.1432 8.23638e-05 0)
(44.1432 0.000123828 0)
(44.1432 0.000153406 0)
(44.1431 0.000164283 0)
(44.143 0.000160672 0)
(44.143 0.000153344 0)
(44.1429 0.000150287 0)
(44.1428 0.000150879 0)
(44.1428 0.000147487 0)
(44.1427 0.000133029 0)
(44.1427 0.000107176 0)
(44.1426 7.72901e-05 0)
(44.1427 5.07285e-05 0)
(44.1427 2.93029e-05 0)
(44.1427 9.11541e-06 0)
(44.1427 -1.41638e-05 0)
(44.1428 -3.94855e-05 0)
(44.1428 -6.17213e-05 0)
(44.1429 -7.7738e-05 0)
(44.1429 -8.50564e-05 0)
(44.1429 -9.55679e-05 0)
(44.143 -0.000109482 0)
(34.728 6.88699e-05 0)
(58.9127 0.000373547 0)
(50.6667 0.000585944 0)
(41.9764 0.000508509 0)
(41.4349 0.000471945 0)
(43.8024 0.000479583 0)
(44.8405 0.000489405 0)
(44.5315 0.000562373 0)
(44.1107 0.000646307 0)
(44.0425 0.000681701 0)
(44.1417 0.000677171 0)
(44.2001 0.000605079 0)
(44.1933 0.000532581 0)
(44.1739 0.000465519 0)
(44.1689 0.000403033 0)
(44.1727 0.000359812 0)
(44.1757 0.000381985 0)
(44.176 0.000445282 0)
(44.1752 0.000433521 0)
(44.1749 0.000333762 0)
(44.1757 0.000240005 0)
(44.1763 0.000198895 0)
(44.1772 0.000227898 0)
(44.1781 0.000372039 0)
(44.179 0.00049289 0)
(44.1794 0.000541619 0)
(44.1799 0.000616527 0)
(44.1804 0.000719388 0)
(44.1805 0.00073893 0)
(44.1805 0.000640188 0)
(44.1807 0.000528309 0)
(44.1812 0.000500693 0)
(44.182 0.000530921 0)
(44.1826 0.00053803 0)
(44.1832 0.000515021 0)
(44.1835 0.000498174 0)
(44.1837 0.000486536 0)
(44.1837 0.000470101 0)
(44.1836 0.000449384 0)
(44.1835 0.000429493 0)
(44.1836 0.000426539 0)
(44.1838 0.000437041 0)
(44.184 0.000429884 0)
(44.1841 0.000397129 0)
(44.1841 0.000354261 0)
(44.184 0.000286564 0)
(44.1837 0.000178411 0)
(44.1835 8.22827e-05 0)
(44.1834 6.0866e-05 0)
(44.1834 0.000109939 0)
(44.1835 0.000177947 0)
(44.1835 0.000249509 0)
(44.1834 0.000329866 0)
(44.1831 0.000373211 0)
(44.1827 0.000328662 0)
(44.1822 0.000236832 0)
(44.182 0.000210324 0)
(44.182 0.000288873 0)
(44.1819 0.000386091 0)
(44.1818 0.000426845 0)
(44.1816 0.000455244 0)
(44.1815 0.000531246 0)
(44.1811 0.000599531 0)
(44.1806 0.000563956 0)
(44.18 0.000437431 0)
(44.1797 0.000340637 0)
(44.1796 0.000329916 0)
(44.1797 0.000354975 0)
(44.1796 0.000351014 0)
(44.1793 0.000325456 0)
(44.179 0.000313329 0)
(44.1787 0.000321267 0)
(44.1783 0.00034319 0)
(44.1779 0.000379779 0)
(44.1776 0.000437774 0)
(44.1774 0.000509907 0)
(44.1773 0.00057117 0)
(44.1772 0.00059592 0)
(44.177 0.000578689 0)
(44.1768 0.000536261 0)
(44.1766 0.000485343 0)
(44.1763 0.000418319 0)
(44.1761 0.00030997 0)
(44.1758 0.000155316 0)
(44.1754 -1.06395e-05 0)
(44.1751 -0.000146734 0)
(44.1748 -0.000253843 0)
(44.1747 -0.000372061 0)
(44.1745 -0.000523969 0)
(44.1743 -0.000676877 0)
(44.1742 -0.000779735 0)
(44.1741 -0.000819358 0)
(44.1741 -0.000825898 0)
(44.174 -0.00082846 0)
(44.174 -0.000821725 0)
(44.1739 -0.000780821 0)
(44.1739 -0.000697109 0)
(44.1738 -0.000589476 0)
(44.1736 -0.000484779 0)
(44.1735 -0.000396773 0)
(44.1733 -0.000323898 0)
(44.1732 -0.000259395 0)
(44.1731 -0.000201964 0)
(44.173 -0.000155516 0)
(44.1729 -0.000124806 0)
(44.1729 -0.000111162 0)
(44.1729 -0.000109152 0)
(44.1728 -0.000108521 0)
(44.1728 -0.000100856 0)
(44.1728 -8.64019e-05 0)
(44.1729 -7.55949e-05 0)
(44.1729 -7.57227e-05 0)
(44.1729 -8.59331e-05 0)
(44.1729 -9.64413e-05 0)
(44.1728 -9.49508e-05 0)
(44.1727 -7.76207e-05 0)
(44.1726 -5.1659e-05 0)
(44.1726 -2.9521e-05 0)
(44.1726 -1.69454e-05 0)
(44.1727 -1.22069e-05 0)
(44.1727 -1.10355e-05 0)
(44.1727 -8.0371e-06 0)
(44.1727 3.7951e-06 0)
(44.1728 2.81147e-05 0)
(44.1729 5.69391e-05 0)
(44.173 7.60164e-05 0)
(44.173 7.69045e-05 0)
(44.1731 6.34737e-05 0)
(44.1731 4.71815e-05 0)
(44.1731 3.80876e-05 0)
(44.1731 3.75266e-05 0)
(44.1731 3.72464e-05 0)
(44.1731 2.93398e-05 0)
(44.1731 1.40171e-05 0)
(44.173 2.31052e-06 0)
(44.173 5.3559e-06 0)
(44.1729 2.22179e-05 0)
(44.1729 3.7969e-05 0)
(44.1729 3.68889e-05 0)
(44.1728 1.70287e-05 0)
(44.1727 -5.07867e-06 0)
(44.1727 -7.48043e-06 0)
(44.1727 1.48076e-05 0)
(44.1727 4.57845e-05 0)
(44.1728 6.36943e-05 0)
(44.1729 5.99697e-05 0)
(44.173 4.30896e-05 0)
(44.1731 2.30102e-05 0)
(44.1732 1.65228e-06 0)
(44.1733 -2.0207e-05 0)
(44.1733 -3.39786e-05 0)
(44.1734 -2.65023e-05 0)
(44.1735 6.23283e-06 0)
(44.1736 4.86374e-05 0)
(44.1738 7.36116e-05 0)
(44.1739 6.2129e-05 0)
(44.174 1.92771e-05 0)
(44.1741 -2.95631e-05 0)
(44.1741 -5.77422e-05 0)
(44.1742 -5.34195e-05 0)
(44.1742 -2.06267e-05 0)
(44.1743 2.69288e-05 0)
(44.1744 7.01291e-05 0)
(44.1745 9.00877e-05 0)
(44.1745 7.85814e-05 0)
(44.1745 4.51076e-05 0)
(44.1745 1.03499e-05 0)
(44.1745 -8.36405e-06 0)
(44.1744 -8.55925e-06 0)
(44.1743 2.48098e-06 0)
(44.1742 2.48388e-05 0)
(44.1741 5.92336e-05 0)
(44.1741 0.000100804 0)
(44.1741 0.000134064 0)
(44.174 0.000142482 0)
(44.1739 0.000122322 0)
(44.1737 8.7707e-05 0)
(44.1735 5.82091e-05 0)
(44.1734 4.87462e-05 0)
(44.1732 6.31986e-05 0)
(44.173 9.6494e-05 0)
(44.1729 0.000136675 0)
(44.1727 0.000170787 0)
(44.1725 0.000189983 0)
(44.1723 0.000192408 0)
(44.172 0.000182356 0)
(44.1718 0.000166538 0)
(44.1715 0.000149009 0)
(44.1713 0.000129694 0)
(44.171 0.000111782 0)
(44.1707 0.000103949 0)
(44.1704 0.000112339 0)
(44.1702 0.000131925 0)
(44.1699 0.000148386 0)
(44.1697 0.000150314 0)
(44.1695 0.000137496 0)
(44.1693 0.000118028 0)
(44.1692 9.93436e-05 0)
(44.169 8.25833e-05 0)
(44.1688 6.49979e-05 0)
(44.1687 4.662e-05 0)
(44.1685 3.34489e-05 0)
(44.1684 3.05375e-05 0)
(44.1684 3.3455e-05 0)
(44.1683 2.8752e-05 0)
(44.1684 8.09033e-06 0)
(44.1684 -2.54519e-05 0)
(44.1685 -6.07565e-05 0)
(44.1687 -8.90491e-05 0)
(44.1689 -0.000112257 0)
(44.1691 -0.000138916 0)
(44.1693 -0.000172514 0)
(44.1695 -0.000206122 0)
(44.1696 -0.000229238 0)
(44.1699 -0.000236944 0)
(44.1701 -0.000230994 0)
(44.1703 -0.00021565 0)
(44.1705 -0.000196012 0)
(44.1707 -0.000178975 0)
(44.1709 -0.000171829 0)
(44.1712 -0.000177609 0)
(44.1714 -0.00019283 0)
(44.1717 -0.000209857 0)
(44.1719 -0.000221518 0)
(44.1721 -0.000225043 0)
(44.1723 -0.00022189 0)
(44.1725 -0.000213574 0)
(44.1727 -0.00019746 0)
(44.1729 -0.000167966 0)
(44.1731 -0.000126574 0)
(44.1734 -8.22006e-05 0)
(44.1737 -4.7843e-05 0)
(44.1739 -3.14994e-05 0)
(44.1741 -3.00387e-05 0)
(44.1743 -3.2755e-05 0)
(44.1745 -3.14841e-05 0)
(44.1747 -2.77181e-05 0)
(44.1749 -2.94425e-05 0)
(44.175 -4.16892e-05 0)
(44.1751 -5.94546e-05 0)
(44.1752 -7.17757e-05 0)
(44.1752 -7.09244e-05 0)
(44.1753 -5.807e-05 0)
(44.1753 -4.10227e-05 0)
(44.1752 -2.50946e-05 0)
(44.1752 -9.80468e-06 0)
(44.1751 7.053e-06 0)
(44.1749 2.9148e-05 0)
(44.1748 4.54333e-05 0)
(44.1746 7.44873e-05 0)
(34.7277 0.000129055 0)
(58.9133 0.000279347 0)
(50.6662 0.00023558 0)
(41.9753 0.000209446 0)
(41.4339 0.000155908 0)
(43.8013 9.7425e-05 0)
(44.8388 -1.19026e-05 0)
(44.5299 -1.88997e-05 0)
(44.1082 4.13387e-05 0)
(44.0395 6.75821e-05 0)
(44.1382 4.26695e-05 0)
(44.1957 5.86647e-05 0)
(44.1883 0.000170402 0)
(44.1683 0.000242295 0)
(44.1631 0.0002561 0)
(44.167 0.000212969 0)
(44.1699 0.000115204 0)
(44.1701 0.000103687 0)
(44.1694 0.000210871 0)
(44.1688 0.000315682 0)
(44.1688 0.000324326 0)
(44.1685 0.000242584 0)
(44.1682 6.08775e-05 0)
(44.1679 -7.18731e-05 0)
(44.1677 -8.26302e-05 0)
(44.1676 -7.18515e-05 0)
(44.1677 -6.01161e-05 0)
(44.1681 1.53889e-05 0)
(44.1685 0.000149077 0)
(44.1688 0.000245329 0)
(44.169 0.000219715 0)
(44.1691 0.000101706 0)
(44.1692 4.98786e-06 0)
(44.1692 -1.7239e-05 0)
(44.1692 1.3196e-05 0)
(44.1695 6.72842e-05 0)
(44.1697 0.000131206 0)
(44.17 0.000202409 0)
(44.1704 0.000256502 0)
(44.1705 0.000249506 0)
(44.1707 0.00018667 0)
(44.1708 0.000132711 0)
(44.1708 0.000127168 0)
(44.1709 0.000161642 0)
(44.171 0.00022833 0)
(44.1712 0.000317345 0)
(44.1712 0.0003876 0)
(44.1711 0.000390838 0)
(44.1709 0.000328666 0)
(44.1707 0.000239459 0)
(44.1705 0.000155034 0)
(44.1704 0.000110038 0)
(44.1706 0.000155534 0)
(44.171 0.000294712 0)
(44.1713 0.00042476 0)
(44.1714 0.000429354 0)
(44.1714 0.000313152 0)
(44.1714 0.000187631 0)
(44.1715 0.000117635 0)
(44.1715 6.84416e-05 0)
(44.1716 1.28423e-05 0)
(44.1718 1.01539e-05 0)
(44.1722 0.000112603 0)
(44.1725 0.000248756 0)
(44.1726 0.000291038 0)
(44.1726 0.000199484 0)
(44.1726 7.49965e-05 0)
(44.1726 2.07437e-05 0)
(44.1727 5.45891e-05 0)
(44.1727 0.000117485 0)
(44.1728 0.000148905 0)
(44.1729 0.000121903 0)
(44.1729 3.4466e-05 0)
(44.1729 -9.15492e-05 0)
(44.1729 -0.000223233 0)
(44.1729 -0.000332597 0)
(44.173 -0.000401055 0)
(44.1732 -0.000416345 0)
(44.1735 -0.000375767 0)
(44.1737 -0.000288557 0)
(44.1739 -0.000168376 0)
(44.1742 -2.66077e-05 0)
(44.1746 0.000121967 0)
(44.1748 0.000255148 0)
(44.175 0.00035848 0)
(44.1752 0.000442532 0)
(44.1753 0.000529704 0)
(44.1754 0.000619819 0)
(44.1753 0.000684161 0)
(44.1752 0.000702564 0)
(44.1749 0.000686706 0)
(44.1746 0.000662202 0)
(44.1743 0.000635273 0)
(44.1739 0.000591826 0)
(44.1736 0.00052694 0)
(44.1733 0.000458946 0)
(44.1729 0.00040915 0)
(44.1727 0.000377439 0)
(44.1725 0.000344832 0)
(44.1724 0.000296648 0)
(44.1723 0.000236142 0)
(44.1722 0.000175161 0)
(44.1722 0.000122298 0)
(44.1722 8.06199e-05 0)
(44.1722 5.26346e-05 0)
(44.1722 4.16441e-05 0)
(44.1722 4.54853e-05 0)
(44.1721 5.38141e-05 0)
(44.1721 5.58193e-05 0)
(44.1721 5.01743e-05 0)
(44.1721 4.76696e-05 0)
(44.1721 5.78812e-05 0)
(44.1721 8.12745e-05 0)
(44.1721 0.000108586 0)
(44.172 0.000126994 0)
(44.172 0.000124471 0)
(44.172 9.37272e-05 0)
(44.172 3.92394e-05 0)
(44.172 -2.36861e-05 0)
(44.172 -7.70497e-05 0)
(44.172 -0.000112003 0)
(44.172 -0.000132685 0)
(44.172 -0.000149061 0)
(44.172 -0.000166264 0)
(44.172 -0.000178749 0)
(44.172 -0.000179125 0)
(44.172 -0.000167132 0)
(44.172 -0.000149616 0)
(44.172 -0.000132408 0)
(44.172 -0.000116747 0)
(44.172 -9.96394e-05 0)
(44.172 -7.76534e-05 0)
(44.1721 -5.35482e-05 0)
(44.1721 -3.33661e-05 0)
(44.1721 -2.05284e-05 0)
(44.1721 -1.16039e-05 0)
(44.1721 1.70755e-06 0)
(44.1722 2.21327e-05 0)
(44.1722 3.94976e-05 0)
(44.1722 3.97714e-05 0)
(44.1722 1.96552e-05 0)
(44.1721 -7.64494e-06 0)
(44.1721 -2.38427e-05 0)
(44.1721 -2.37509e-05 0)
(44.1722 -2.23806e-05 0)
(44.1722 -3.98021e-05 0)
(44.1722 -7.70567e-05 0)
(44.1722 -0.000112262 0)
(44.1723 -0.000118428 0)
(44.1723 -9.18313e-05 0)
(44.1723 -5.54949e-05 0)
(44.1723 -3.45395e-05 0)
(44.1723 -3.59881e-05 0)
(44.1723 -4.798e-05 0)
(44.1723 -5.64683e-05 0)
(44.1723 -5.86278e-05 0)
(44.1724 -6.00953e-05 0)
(44.1724 -6.3863e-05 0)
(44.1724 -6.70525e-05 0)
(44.1724 -6.15568e-05 0)
(44.1723 -4.05336e-05 0)
(44.1723 -4.05284e-06 0)
(44.1723 3.96012e-05 0)
(44.1723 7.42464e-05 0)
(44.1723 8.46339e-05 0)
(44.1723 6.96202e-05 0)
(44.1722 4.71851e-05 0)
(44.1722 4.16153e-05 0)
(44.1722 6.41387e-05 0)
(44.1721 0.000105251 0)
(44.1721 0.000141706 0)
(44.172 0.000162094 0)
(44.1719 0.000173736 0)
(44.1718 0.000190454 0)
(44.1717 0.000213873 0)
(44.1717 0.000231498 0)
(44.1716 0.000231879 0)
(44.1716 0.000220418 0)
(44.1714 0.000214664 0)
(44.1713 0.000229538 0)
(44.1712 0.000265629 0)
(44.1711 0.000312056 0)
(44.1709 0.000354364 0)
(44.1708 0.000382336 0)
(44.1706 0.000393473 0)
(44.1705 0.00039192 0)
(44.1703 0.000383786 0)
(44.1702 0.000373147 0)
(44.1701 0.000362081 0)
(44.1699 0.000351421 0)
(44.1698 0.000343582 0)
(44.1697 0.000343309 0)
(44.1695 0.000352629 0)
(44.1694 0.000364437 0)
(44.1693 0.000363795 0)
(44.1691 0.000340028 0)
(44.169 0.000297404 0)
(44.1689 0.000252236 0)
(44.1688 0.000217859 0)
(44.1687 0.000192833 0)
(44.1686 0.000164804 0)
(44.1686 0.000123653 0)
(44.1686 7.21664e-05 0)
(44.1687 2.01551e-05 0)
(44.1688 -2.75077e-05 0)
(44.1688 -7.33079e-05 0)
(44.1689 -0.000123439 0)
(44.169 -0.000178613 0)
(44.169 -0.000232902 0)
(44.1691 -0.000279545 0)
(44.1692 -0.000316265 0)
(44.1693 -0.000345026 0)
(44.1694 -0.000368727 0)
(44.1695 -0.000388333 0)
(44.1697 -0.000403158 0)
(44.1698 -0.000412779 0)
(44.17 -0.000417813 0)
(44.1702 -0.000419547 0)
(44.1703 -0.000419457 0)
(44.1705 -0.000419104 0)
(44.1707 -0.000420053 0)
(44.1709 -0.000422988 0)
(44.1711 -0.000425967 0)
(44.1712 -0.000424364 0)
(44.1714 -0.000414319 0)
(44.1716 -0.00039682 0)
(44.1717 -0.000377784 0)
(44.1718 -0.000363001 0)
(44.172 -0.000352367 0)
(44.1721 -0.000337149 0)
(44.1722 -0.000309866 0)
(44.1723 -0.000272512 0)
(44.1725 -0.000236747 0)
(44.1726 -0.000214306 0)
(44.1727 -0.000206831 0)
(44.1727 -0.000205244 0)
(44.1728 -0.000198244 0)
(44.1729 -0.000181275 0)
(44.173 -0.0001579 0)
(44.1731 -0.000134191 0)
(44.1731 -0.000111349 0)
(44.1731 -8.51656e-05 0)
(44.1731 -5.05555e-05 0)
(44.1731 -6.30313e-06 0)
(44.173 4.17572e-05 0)
(44.173 8.73855e-05 0)
(44.173 0.000128099 0)
(44.1729 0.000164177 0)
(44.1728 0.000197883 0)
(44.1726 0.000248089 0)
(34.7273 3.17688e-07 0)
(58.9132 1.37447e-05 0)
(50.6662 0.000133772 0)
(41.9757 0.00035228 0)
(41.4342 0.000370961 0)
(43.8012 0.000409717 0)
(44.839 0.000401688 0)
(44.53 0.000373703 0)
(44.1081 0.000343377 0)
(44.0393 0.000300379 0)
(44.1379 0.0003075 0)
(44.1957 0.00033458 0)
(44.1889 0.000399857 0)
(44.1693 0.000464004 0)
(44.164 0.000522327 0)
(44.168 0.000579613 0)
(44.1709 0.000531793 0)
(44.1709 0.000426746 0)
(44.1702 0.000357582 0)
(44.1699 0.000337869 0)
(44.1703 0.000383547 0)
(44.1708 0.000513257 0)
(44.1709 0.000632648 0)
(44.1707 0.000660802 0)
(44.171 0.000682236 0)
(44.1708 0.000651331 0)
(44.1706 0.000488724 0)
(44.1706 0.000291185 0)
(44.1704 0.000181252 0)
(44.1704 0.000176411 0)
(44.1705 0.000211092 0)
(44.1703 0.000233276 0)
(44.1703 0.000248881 0)
(44.1703 0.000265679 0)
(44.1701 0.000262692 0)
(44.17 0.000222836 0)
(44.1698 0.000163416 0)
(44.1697 0.000131829 0)
(44.1696 0.000155445 0)
(44.1695 0.000199307 0)
(44.1694 0.000229087 0)
(44.1693 0.000267799 0)
(44.1692 0.000328828 0)
(44.1692 0.000368793 0)
(44.1692 0.000363627 0)
(44.1694 0.000358679 0)
(44.1696 0.000393462 0)
(44.1698 0.000440581 0)
(44.17 0.000465485 0)
(44.1702 0.000465515 0)
(44.1702 0.000427929 0)
(44.17 0.000312353 0)
(44.1698 0.000126884 0)
(44.1697 -2.61899e-05 0)
(44.1697 -5.85028e-05 0)
(44.1698 8.146e-06 0)
(44.1697 9.17878e-05 0)
(44.1697 0.000164304 0)
(44.1697 0.000247884 0)
(44.1696 0.000313751 0)
(44.1693 0.000289478 0)
(44.169 0.000180924 0)
(44.1688 9.74495e-05 0)
(44.1688 0.000119649 0)
(44.1689 0.000212523 0)
(44.1689 0.000286306 0)
(44.1689 0.000306886 0)
(44.1689 0.00030358 0)
(44.1688 0.000302098 0)
(44.1688 0.000299318 0)
(44.1688 0.000293138 0)
(44.1688 0.000300016 0)
(44.1687 0.000332171 0)
(44.1687 0.000378496 0)
(44.1685 0.000408311 0)
(44.1682 0.000393462 0)
(44.1679 0.00033284 0)
(44.1674 0.000249895 0)
(44.167 0.000164278 0)
(44.1665 7.09946e-05 0)
(44.166 -4.40381e-05 0)
(44.1656 -0.000170112 0)
(44.1652 -0.000270483 0)
(44.1649 -0.00032248 0)
(44.1647 -0.000344495 0)
(44.1645 -0.000368663 0)
(44.1645 -0.00039684 0)
(44.1646 -0.000399743 0)
(44.1649 -0.000358862 0)
(44.1653 -0.000293156 0)
(44.1657 -0.000237781 0)
(44.1662 -0.000208798 0)
(44.1668 -0.000200128 0)
(44.1674 -0.000200456 0)
(44.168 -0.000204598 0)
(44.1685 -0.0002107 0)
(44.169 -0.000216514 0)
(44.1694 -0.000220622 0)
(44.1698 -0.000223068 0)
(44.1702 -0.000222484 0)
(44.1704 -0.000215372 0)
(44.1706 -0.000199695 0)
(44.1708 -0.000178315 0)
(44.1709 -0.000156259 0)
(44.171 -0.000135211 0)
(44.1711 -0.000111787 0)
(44.1711 -8.41254e-05 0)
(44.1712 -5.82603e-05 0)
(44.1713 -4.51511e-05 0)
(44.1714 -5.19579e-05 0)
(44.1714 -7.18227e-05 0)
(44.1715 -8.71947e-05 0)
(44.1716 -8.34542e-05 0)
(44.1717 -6.07692e-05 0)
(44.1717 -3.32312e-05 0)
(44.1718 -1.72964e-05 0)
(44.1719 -2.09239e-05 0)
(44.172 -3.94222e-05 0)
(44.1721 -5.80512e-05 0)
(44.1722 -5.86426e-05 0)
(44.1722 -3.06567e-05 0)
(44.1723 1.87254e-05 0)
(44.1723 6.68539e-05 0)
(44.1723 9.17419e-05 0)
(44.1723 8.75507e-05 0)
(44.1722 6.68558e-05 0)
(44.1722 4.74814e-05 0)
(44.1722 3.89202e-05 0)
(44.1722 3.74191e-05 0)
(44.1722 3.22559e-05 0)
(44.1721 1.66209e-05 0)
(44.1721 -5.16992e-06 0)
(44.1721 -2.13618e-05 0)
(44.1721 -2.36966e-05 0)
(44.1721 -1.49877e-05 0)
(44.1721 -4.78379e-06 0)
(44.1721 5.28108e-07 0)
(44.1721 3.76798e-06 0)
(44.1722 1.11013e-05 0)
(44.1722 2.26285e-05 0)
(44.1722 2.92087e-05 0)
(44.1722 2.1082e-05 0)
(44.1722 8.64146e-07 0)
(44.1722 -1.83782e-05 0)
(44.1722 -2.64016e-05 0)
(44.1722 -2.70964e-05 0)
(44.1723 -3.33838e-05 0)
(44.1723 -4.88651e-05 0)
(44.1723 -6.23048e-05 0)
(44.1722 -5.79892e-05 0)
(44.1722 -3.2026e-05 0)
(44.1722 2.21915e-06 0)
(44.1722 2.5802e-05 0)
(44.1722 2.7007e-05 0)
(44.1722 7.09352e-06 0)
(44.1722 -2.21636e-05 0)
(44.1723 -4.63758e-05 0)
(44.1723 -5.37924e-05 0)
(44.1723 -3.8707e-05 0)
(44.1723 -4.8727e-06 0)
(44.1722 3.52929e-05 0)
(44.1722 6.8877e-05 0)
(44.1722 9.07576e-05 0)
(44.1722 0.000103693 0)
(44.1722 0.000110077 0)
(44.1722 0.000107361 0)
(44.1722 9.45442e-05 0)
(44.1721 8.13149e-05 0)
(44.172 8.62074e-05 0)
(44.172 0.000121024 0)
(44.1719 0.000177597 0)
(44.1719 0.000233184 0)
(44.1718 0.000267111 0)
(44.1717 0.000274501 0)
(44.1716 0.000265645 0)
(44.1716 0.000255045 0)
(44.1715 0.000252141 0)
(44.1714 0.000260791 0)
(44.1713 0.000281908 0)
(44.1712 0.000315321 0)
(44.1711 0.000359316 0)
(44.171 0.000409669 0)
(44.1708 0.000458698 0)
(44.1707 0.00049569 0)
(44.1706 0.000510215 0)
(44.1704 0.000497922 0)
(44.1703 0.000465141 0)
(44.1702 0.000427447 0)
(44.1701 0.000401056 0)
(44.1699 0.000392824 0)
(44.1698 0.000398395 0)
(44.1697 0.000409202 0)
(44.1696 0.00041953 0)
(44.1695 0.00042647 0)
(44.1694 0.000425304 0)
(44.1693 0.000408906 0)
(44.1691 0.000373433 0)
(44.169 0.000322435 0)
(44.1689 0.000263622 0)
(44.1689 0.000202658 0)
(44.1689 0.000139362 0)
(44.1689 6.95021e-05 0)
(44.1689 -6.08872e-06 0)
(44.1689 -7.65183e-05 0)
(44.169 -0.000128852 0)
(44.1691 -0.000160564 0)
(44.1691 -0.0001809 0)
(44.1692 -0.000204307 0)
(44.1692 -0.000240886 0)
(44.1693 -0.000290407 0)
(44.1693 -0.000344724 0)
(44.1694 -0.000396206 0)
(44.1695 -0.000442113 0)
(44.1696 -0.00048218 0)
(44.1697 -0.000515351 0)
(44.1699 -0.000540234 0)
(44.17 -0.000557216 0)
(44.1702 -0.000568354 0)
(44.1703 -0.000574969 0)
(44.1705 -0.000575868 0)
(44.1707 -0.000569935 0)
(44.1709 -0.000559738 0)
(44.171 -0.000550136 0)
(44.1712 -0.000543326 0)
(44.1713 -0.000535487 0)
(44.1715 -0.000519049 0)
(44.1716 -0.000489602 0)
(44.1718 -0.000450862 0)
(44.1719 -0.000412355 0)
(44.172 -0.000381016 0)
(44.1721 -0.000355992 0)
(44.1722 -0.00033079 0)
(44.1723 -0.000301023 0)
(44.1725 -0.000269588 0)
(44.1726 -0.000243565 0)
(44.1727 -0.00022643 0)
(44.1727 -0.000213915 0)
(44.1728 -0.00019751 0)
(44.1728 -0.000171531 0)
(44.1729 -0.000137143 0)
(44.1729 -9.9828e-05 0)
(44.1729 -6.35002e-05 0)
(44.1729 -2.73315e-05 0)
(44.1729 1.28419e-05 0)
(44.1729 5.84329e-05 0)
(44.1728 0.00010738 0)
(44.1728 0.000156849 0)
(44.1727 0.000204303 0)
(44.1726 0.000247843 0)
(44.1725 0.000307269 0)
(34.7277 -4.71771e-05 0)
(58.913 -8.20874e-05 0)
(50.6658 -7.85943e-05 0)
(41.9751 -9.67215e-06 0)
(41.4338 8.83647e-05 0)
(43.8012 0.000234256 0)
(44.8387 0.000208174 0)
(44.5295 0.0001807 0)
(44.108 0.000222648 0)
(44.0393 0.000218603 0)
(44.138 0.00019106 0)
(44.1957 8.78359e-05 0)
(44.1883 -1.09313e-05 0)
(44.1686 -3.17054e-05 0)
(44.1633 -3.62582e-05 0)
(44.1676 2.5696e-05 0)
(44.1705 0.000118122 0)
(44.1703 0.000182171 0)
(44.1696 0.000213157 0)
(44.1693 0.000195086 0)
(44.1692 0.000133452 0)
(44.1694 6.85389e-05 0)
(44.1698 1.2647e-05 0)
(44.1698 -7.99745e-05 0)
(44.17 -0.000111226 0)
(44.1704 -1.73505e-05 0)
(44.1704 9.52531e-05 0)
(44.1703 0.000148227 0)
(44.1702 0.000160578 0)
(44.1701 0.000180238 0)
(44.1701 0.000221309 0)
(44.1699 0.000255733 0)
(44.1699 0.000278063 0)
(44.1699 0.000307642 0)
(44.1699 0.000334889 0)
(44.1699 0.000342403 0)
(44.1699 0.000332569 0)
(44.1698 0.000313147 0)
(44.1698 0.000294338 0)
(44.17 0.000281183 0)
(44.1701 0.000263853 0)
(44.1702 0.000235583 0)
(44.1704 0.00019503 0)
(44.1706 0.000128028 0)
(44.1706 2.49628e-05 0)
(44.1706 -8.29217e-05 0)
(44.1707 -0.000150826 0)
(44.1709 -0.000163047 0)
(44.1711 -0.000130585 0)
(44.1713 -4.92528e-05 0)
(44.1716 8.98163e-05 0)
(44.1718 0.000246937 0)
(44.1718 0.000352456 0)
(44.1717 0.00038359 0)
(44.1716 0.000390143 0)
(44.1716 0.00040606 0)
(44.1715 0.000398883 0)
(44.1715 0.000340559 0)
(44.1716 0.000281617 0)
(44.1719 0.000292993 0)
(44.1722 0.000358323 0)
(44.1723 0.000389892 0)
(44.1725 0.000342436 0)
(44.1726 0.000254929 0)
(44.1728 0.000178465 0)
(44.173 0.000125615 0)
(44.1732 8.99349e-05 0)
(44.1733 7.68139e-05 0)
(44.1735 8.74242e-05 0)
(44.1737 0.00010432 0)
(44.1739 0.000111605 0)
(44.1742 0.000112908 0)
(44.1744 0.000122972 0)
(44.1747 0.000148096 0)
(44.1751 0.00018538 0)
(44.1755 0.000235171 0)
(44.1758 0.000302285 0)
(44.176 0.000393178 0)
(44.1762 0.0005086 0)
(44.1763 0.000630697 0)
(44.1764 0.00072602 0)
(44.1764 0.00077133 0)
(44.1762 0.000772598 0)
(44.176 0.000748806 0)
(44.1758 0.000699209 0)
(44.1755 0.000599038 0)
(44.1753 0.000435351 0)
(44.175 0.000235786 0)
(44.1747 4.79228e-05 0)
(44.1745 -0.00010598 0)
(44.1743 -0.000235093 0)
(44.1742 -0.000352016 0)
(44.1741 -0.000447906 0)
(44.174 -0.000502452 0)
(44.1739 -0.000507893 0)
(44.1738 -0.000476456 0)
(44.1737 -0.000426597 0)
(44.1736 -0.000369139 0)
(44.1735 -0.000306204 0)
(44.1733 -0.000239763 0)
(44.1732 -0.000177446 0)
(44.173 -0.000128625 0)
(44.1729 -9.71491e-05 0)
(44.1727 -8.17097e-05 0)
(44.1725 -7.81542e-05 0)
(44.1723 -8.20219e-05 0)
(44.1722 -8.85125e-05 0)
(44.172 -9.36811e-05 0)
(44.1719 -9.68325e-05 0)
(44.1719 -9.82465e-05 0)
(44.1718 -9.67604e-05 0)
(44.1718 -8.88928e-05 0)
(44.1718 -7.30888e-05 0)
(44.1717 -5.583e-05 0)
(44.1717 -5.06585e-05 0)
(44.1716 -6.76013e-05 0)
(44.1716 -0.000104636 0)
(44.1716 -0.000149645 0)
(44.1716 -0.000188279 0)
(44.1715 -0.000210209 0)
(44.1714 -0.000211119 0)
(44.1714 -0.000194188 0)
(44.1713 -0.000169452 0)
(44.1714 -0.000148491 0)
(44.1714 -0.000138197 0)
(44.1714 -0.000135457 0)
(44.1715 -0.000131142 0)
(44.1715 -0.000117545 0)
(44.1716 -9.52943e-05 0)
(44.1716 -7.31164e-05 0)
(44.1717 -6.15076e-05 0)
(44.1718 -6.38487e-05 0)
(44.1718 -7.22392e-05 0)
(44.1718 -7.27174e-05 0)
(44.1719 -5.68473e-05 0)
(44.1719 -2.92069e-05 0)
(44.172 -4.06743e-06 0)
(44.172 6.78614e-06 0)
(44.172 4.72706e-06 0)
(44.172 -4.19417e-07 0)
(44.1721 -1.55252e-06 0)
(44.1721 -1.91065e-06 0)
(44.1721 -1.0254e-05 0)
(44.1721 -3.0471e-05 0)
(44.1721 -5.55088e-05 0)
(44.1722 -7.43156e-05 0)
(44.1722 -8.28046e-05 0)
(44.1722 -8.50224e-05 0)
(44.1722 -8.42613e-05 0)
(44.1722 -7.71186e-05 0)
(44.1722 -5.88632e-05 0)
(44.1722 -3.33366e-05 0)
(44.1722 -1.40777e-05 0)
(44.1722 -1.35199e-05 0)
(44.1722 -3.34535e-05 0)
(44.1722 -6.3893e-05 0)
(44.1722 -8.95634e-05 0)
(44.1722 -9.69455e-05 0)
(44.1722 -7.83149e-05 0)
(44.1722 -3.55297e-05 0)
(44.1722 1.90622e-05 0)
(44.1721 6.64767e-05 0)
(44.1721 9.215e-05 0)
(44.1721 9.59382e-05 0)
(44.1721 9.06978e-05 0)
(44.1721 9.06222e-05 0)
(44.1721 0.000101424 0)
(44.172 0.000121618 0)
(44.172 0.000150665 0)
(44.1719 0.000191803 0)
(44.1718 0.000245428 0)
(44.1718 0.000302156 0)
(44.1717 0.000345636 0)
(44.1717 0.000364571 0)
(44.1716 0.000361828 0)
(44.1715 0.000352135 0)
(44.1714 0.000351801 0)
(44.1713 0.000370364 0)
(44.1712 0.000408765 0)
(44.1711 0.000461732 0)
(44.171 0.000520642 0)
(44.1709 0.000576114 0)
(44.1708 0.000620374 0)
(44.1706 0.000648611 0)
(44.1705 0.000658655 0)
(44.1704 0.00065037 0)
(44.1703 0.000626638 0)
(44.1702 0.000595282 0)
(44.1701 0.000568251 0)
(44.17 0.000556041 0)
(44.1699 0.000561159 0)
(44.1698 0.000576366 0)
(44.1697 0.000589819 0)
(44.1696 0.000592505 0)
(44.1695 0.000580656 0)
(44.1694 0.000553172 0)
(44.1693 0.000508462 0)
(44.1692 0.000443909 0)
(44.1691 0.000359818 0)
(44.1691 0.000262945 0)
(44.1691 0.000163307 0)
(44.1691 6.86822e-05 0)
(44.1691 -1.75623e-05 0)
(44.1692 -9.3272e-05 0)