/*--------------------------------*- C++ -*----------------------------------*\
| =========                 |                                                 |
| \\      /  F ield         | OpenFOAM: The Open Source CFD Toolbox           |
|  \\    /   O peration     | Version:  2406                                  |
|   \\  /    A nd           | Website:  www.openfoam.com                      |
|    \\/     M anipulation  |                                                 |
\*---------------------------------------------------------------------------*/
FoamFile
{
    version     2.0;
    format      ascii;
    arch        "LSB;label=32;scalar=64";
    class       surfaceScalarField;
    location    "1.4";
    object      alphaPhi0.air;
}
// * * * * * * * * * * * * * * * * * * * * * * * * * * * * * * * * * * * * * //

dimensions      [0 3 -1 0 0 0 0];

oriented        oriented;

internalField   nonuniform List<scalar> 
12225
(
0.510744
1.40545e-06
0.510738
6.20055e-06
0.510731
7.27025e-06
0.510725
5.37659e-06
0.51072
4.77352e-06
0.510716
4.7688e-06
0.51071
5.559e-06
0.510705
5.41304e-06
0.5107
4.97008e-06
0.510695
4.91371e-06
0.51069
5.01367e-06
0.510684
5.33392e-06
0.510679
5.48383e-06
0.510674
5.46149e-06
0.510668
5.39922e-06
0.510663
5.30006e-06
0.510658
5.07758e-06
0.510653
5.15762e-06
0.510647
5.49358e-06
0.510642
5.46512e-06
0.510636
5.2441e-06
0.510631
5.18467e-06
0.510626
5.02233e-06
0.510621
4.81186e-06
0.510616
4.9713e-06
0.510611
5.29216e-06
0.510606
5.60339e-06
0.5106
5.78368e-06
0.510594
5.80239e-06
0.510588
6.03922e-06
0.510581
6.42415e-06
0.510575
6.68272e-06
0.510568
6.60598e-06
0.510562
6.32093e-06
0.510556
6.14315e-06
0.51055
5.75939e-06
0.510545
5.12456e-06
0.51054
4.91209e-06
0.510535
5.29538e-06
0.510529
5.56848e-06
0.510524
5.18687e-06
0.510519
4.68775e-06
0.510514
4.76054e-06
0.510509
5.252e-06
0.510503
5.74139e-06
0.510497
6.16147e-06
0.510491
6.5807e-06
0.510484
6.57931e-06
0.510478
5.98196e-06
0.510473
5.35535e-06
0.510468
5.17012e-06
0.510462
5.40773e-06
0.510457
5.48025e-06
0.510452
5.10868e-06
0.510447
4.8537e-06
0.510442
4.89322e-06
0.510437
4.97392e-06
0.510432
5.10272e-06
0.510426
5.39088e-06
0.510421
5.78866e-06
0.510415
5.86544e-06
0.510409
5.5772e-06
0.510404
5.49286e-06
0.510398
5.57505e-06
0.510393
5.38132e-06
0.510388
5.01467e-06
0.510383
4.803e-06
0.510378
4.87959e-06
0.510373
5.15037e-06
0.510367
5.37997e-06
0.510362
5.53772e-06
0.510356
5.63511e-06
0.510351
5.59081e-06
0.510345
5.53643e-06
0.51034
5.55782e-06
0.510334
5.60345e-06
0.510328
5.62288e-06
0.510323
5.44285e-06
0.510318
5.13586e-06
0.510313
5.05239e-06
0.510308
5.23163e-06
0.510302
5.45111e-06
0.510296
5.6218e-06
0.510291
5.78843e-06
0.510285
5.80399e-06
0.510279
5.57599e-06
0.510274
5.40597e-06
0.510268
5.45064e-06
0.510263
5.57083e-06
0.510257
5.67414e-06
0.510251
5.70819e-06
0.510246
5.71678e-06
0.51024
5.72428e-06
0.510234
5.67245e-06
0.510229
5.54284e-06
0.510223
5.37513e-06
0.510218
5.22432e-06
0.510213
5.09152e-06
0.510208
4.96436e-06
0.510203
4.99951e-06
0.510198
5.30062e-06
0.510192
5.554e-06
0.510187
5.54609e-06
0.510181
5.53469e-06
0.510176
5.61139e-06
0.51017
5.5995e-06
0.510164
5.57694e-06
0.510159
5.61708e-06
0.510153
5.57039e-06
0.510148
5.35521e-06
0.510143
5.04703e-06
0.510138
4.84048e-06
0.510133
4.87213e-06
0.510128
4.99724e-06
0.510123
5.02879e-06
0.510118
5.03481e-06
0.510113
5.09917e-06
0.510108
5.2311e-06
0.510102
5.5786e-06
0.510096
6.05959e-06
0.51009
6.24206e-06
0.510084
6.00956e-06
0.510078
5.57226e-06
0.510073
5.14836e-06
0.510068
4.95775e-06
0.510063
5.05547e-06
0.510058
5.21324e-06
0.510053
5.24942e-06
0.510047
5.20039e-06
0.510042
5.16502e-06
0.510037
5.27618e-06
0.510031
5.52421e-06
0.510026
5.64947e-06
0.51002
5.53372e-06
0.510015
5.36154e-06
0.51001
5.28278e-06
0.510004
5.3241e-06
0.509999
5.55327e-06
0.509993
5.85033e-06
0.509987
5.86902e-06
0.509982
5.51277e-06
0.509976
5.06052e-06
0.509972
4.85784e-06
0.509967
4.97137e-06
0.509961
5.22072e-06
0.509956
5.40536e-06
0.509951
5.44039e-06
0.509945
5.4266e-06
0.50994
5.47105e-06
0.509934
5.55494e-06
0.509928
5.66055e-06
0.509923
5.67286e-06
0.509917
5.50365e-06
0.509912
5.37899e-06
0.509906
5.51531e-06
0.509901
5.74905e-06
0.509895
5.79857e-06
0.509889
5.60593e-06
0.509884
5.27656e-06
0.509879
4.93085e-06
0.509874
4.76942e-06
0.509869
4.96793e-06
0.509864
5.33504e-06
0.509858
5.49253e-06
0.509853
5.39918e-06
0.509848
5.23436e-06
0.509843
5.16634e-06
0.509837
5.30729e-06
0.509832
5.57585e-06
0.509826
5.78153e-06
0.50982
5.76246e-06
0.509815
5.4468e-06
0.50981
5.07834e-06
0.509805
5.01446e-06
0.5098
5.20277e-06
0.509794
5.32935e-06
0.509789
5.3275e-06
0.509784
5.29259e-06
0.509778
5.17807e-06
0.509773
5.05204e-06
0.509768
5.17949e-06
0.509763
5.51178e-06
0.509757
5.64858e-06
0.509752
5.44915e-06
0.509746
5.2219e-06
0.509741
5.20326e-06
0.509736
5.34868e-06
0.50973
5.58757e-06
0.509724
5.80606e-06
0.509719
5.86385e-06
0.509713
5.71799e-06
0.509707
5.48874e-06
0.509702
5.44966e-06
0.509696
5.6539e-06
0.50969
5.79629e-06
0.509685
5.69025e-06
0.509679
5.46112e-06
0.509674
5.29524e-06
0.509669
5.22555e-06
0.509664
5.16135e-06
0.509658
5.09203e-06
0.509653
5.06864e-06
0.509648
5.03235e-06
0.509643
5.00855e-06
0.509638
5.20735e-06
0.509633
5.5908e-06
0.509627
5.79436e-06
0.509621
5.69919e-06
0.509616
5.5569e-06
0.50961
5.51886e-06
0.509604
5.55763e-06
0.509599
5.71699e-06
0.509593
5.94007e-06
0.509587
6.02385e-06
0.509581
5.887e-06
0.509575
5.589e-06
0.50957
5.37656e-06
0.509564
5.44561e-06
0.509559
5.59693e-06
0.509553
5.63375e-06
0.509548
5.64357e-06
0.509542
5.64688e-06
0.509536
5.55703e-06
0.509531
5.51083e-06
0.509525
5.66453e-06
0.509519
5.75422e-06
0.509514
5.58718e-06
0.509508
5.43872e-06
0.509503
5.41015e-06
0.509498
5.40706e-06
0.509492
5.49156e-06
0.509487
5.57842e-06
0.509481
5.54596e-06
0.509476
5.47907e-06
0.50947
5.3959e-06
0.509465
5.29526e-06
0.50946
5.28883e-06
0.509454
5.42231e-06
0.509449
5.5749e-06
0.509443
5.60773e-06
0.509437
5.52917e-06
0.509432
5.38477e-06
0.509427
5.29627e-06
0.509421
5.38553e-06
0.509416
5.4659e-06
0.50941
5.42829e-06
0.509405
5.45954e-06
0.5094
5.43923e-06
0.509394
5.74842e-06
5.15326e-06
0.510751
9.12215e-08
0.510757
3.66673e-07
0.510763
1.4628e-06
0.510766
2.34163e-06
0.510768
2.19981e-06
0.510771
2.39235e-06
0.510774
2.45635e-06
0.510777
2.36086e-06
0.510779
2.48837e-06
0.510782
2.55543e-06
0.510784
2.34204e-06
0.510788
1.8398e-06
0.510792
1.7036e-06
0.510795
2.23941e-06
0.510798
2.73769e-06
0.5108
2.58536e-06
0.510803
2.41938e-06
0.510805
2.60565e-06
0.510808
2.73102e-06
0.510811
2.9149e-06
0.510813
3.08834e-06
0.510815
2.83978e-06
0.510818
2.59484e-06
0.51082
2.70702e-06
0.510822
2.8113e-06
0.510824
2.83163e-06
0.510827
2.57096e-06
0.510831
1.92966e-06
0.510836
1.37261e-06
0.51084
1.45927e-06
0.510844
2.41629e-06
0.510848
3.23989e-06
0.510851
3.17151e-06
0.510855
2.61976e-06
0.510859
2.10392e-06
0.510863
2.05679e-06
0.510865
2.61729e-06
0.510867
2.91745e-06
0.51087
2.4316e-06
0.510874
1.99328e-06
0.510877
2.18726e-06
0.510879
2.78171e-06
0.51088
3.23166e-06
0.510882
3.44212e-06
0.510884
3.38696e-06
0.510888
2.5593e-06
0.510893
1.65816e-06
0.510898
1.71598e-06
0.510902
2.07355e-06
0.510905
2.23118e-06
0.510907
2.3317e-06
0.51091
2.42815e-06
0.510913
2.72671e-06
0.510915
2.87643e-06
0.510918
2.58971e-06
0.51092
2.3419e-06
0.510923
2.31115e-06
0.510926
2.39721e-06
0.510929
2.47773e-06
0.510932
2.64973e-06
0.510934
3.05412e-06
0.510937
3.18772e-06
0.51094
2.83796e-06
0.510943
2.50809e-06
0.510946
2.38058e-06
0.510948
2.25077e-06
0.510951
1.96002e-06
0.510954
1.71143e-06
0.510958
1.74818e-06
0.510961
1.93317e-06
0.510965
2.20138e-06
0.510968
2.64376e-06
0.51097
2.90696e-06
0.510973
2.86601e-06
0.510976
2.76994e-06
0.510979
2.64248e-06
0.510982
2.50101e-06
0.510985
2.39032e-06
0.510988
2.27758e-06
0.510991
2.22106e-06
0.510993
2.30082e-06
0.510996
2.42367e-06
0.511
2.42248e-06
0.511003
2.41039e-06
0.511006
2.52861e-06
0.511009
2.54586e-06
0.511012
2.38736e-06
0.511016
2.24955e-06
0.511019
2.24891e-06
0.511022
2.40861e-06
0.511025
2.6364e-06
0.511028
2.81847e-06
0.511031
2.9258e-06
0.511034
2.87952e-06
0.511037
2.69728e-06
0.51104
2.44916e-06
0.511043
2.22487e-06
0.511045
2.18591e-06
0.511048
2.27219e-06
0.511051
2.29652e-06
0.511054
2.41541e-06
0.511056
2.75378e-06
0.511059
2.95964e-06
0.511062
2.8613e-06
0.511065
2.70804e-06
0.511068
2.59859e-06
0.511071
2.58563e-06
0.511073
2.80742e-06
0.511076
3.08773e-06
0.511078
3.15461e-06
0.51108
2.93784e-06
0.511083
2.46129e-06
0.511085
2.02203e-06
0.511089
1.87994e-06
0.511092
1.88697e-06
0.511095
1.99249e-06
0.511098
2.21965e-06
0.511101
2.34504e-06
0.511104
2.3861e-06
0.511107
2.63741e-06
0.51111
2.99807e-06
0.511113
3.05621e-06
0.511116
2.73887e-06
0.511119
2.29334e-06
0.511122
1.92383e-06
0.511125
1.82686e-06
0.511128
2.10328e-06
0.511131
2.51954e-06
0.511134
2.75978e-06
0.511136
2.64047e-06
0.511139
2.23747e-06
0.511143
2.02383e-06
0.511146
2.19902e-06
0.511149
2.44533e-06
0.511152
2.59398e-06
0.511155
2.66673e-06
0.511157
2.57006e-06
0.511161
2.3614e-06
0.511164
2.32532e-06
0.511167
2.55443e-06
0.51117
2.80174e-06
0.511172
2.80388e-06
0.511175
2.61626e-06
0.511177
2.47983e-06
0.51118
2.46767e-06
0.511183
2.52027e-06
0.511186
2.5758e-06
0.511188
2.59887e-06
0.511191
2.63494e-06
0.511194
2.68756e-06
0.511197
2.7517e-06
0.5112
2.83587e-06
0.511203
2.72974e-06
0.511206
2.27052e-06
0.511209
1.77146e-06
0.511214
1.64432e-06
0.511217
1.87868e-06
0.511221
2.25026e-06
0.511223
2.64916e-06
0.511226
2.87443e-06
0.511228
2.77008e-06
0.51123
2.62582e-06
0.511232
2.72636e-06
0.511235
2.89565e-06
0.511238
2.90236e-06
0.51124
2.69032e-06
0.511243
2.28746e-06
0.511246
1.92978e-06
0.51125
1.85585e-06
0.511254
2.0532e-06
0.511257
2.43142e-06
0.51126
2.73768e-06
0.511262
2.6303e-06
0.511265
2.26021e-06
0.511268
2.12633e-06
0.511271
2.32988e-06
0.511274
2.61578e-06
0.511276
2.88527e-06
0.511278
3.04322e-06
0.511281
2.84649e-06
0.511283
2.41029e-06
0.511287
2.24733e-06
0.51129
2.49941e-06
0.511292
2.74368e-06
0.511295
2.72947e-06
0.511298
2.59806e-06
0.5113
2.44289e-06
0.511304
2.30871e-06
0.511307
2.31079e-06
0.511311
2.44804e-06
0.511314
2.5931e-06
0.511317
2.59084e-06
0.51132
2.4612e-06
0.511323
2.46366e-06
0.511326
2.67519e-06
0.511329
2.8458e-06
0.511331
2.82115e-06
0.511334
2.71391e-06
0.511337
2.65085e-06
0.511339
2.63821e-06
0.511342
2.66575e-06
0.511344
2.78438e-06
0.511346
2.89956e-06
0.511348
2.71815e-06
0.511351
2.3182e-06
0.511355
2.19702e-06
0.511358
2.42516e-06
0.511361
2.59502e-06
0.511364
2.59091e-06
0.511367
2.53076e-06
0.51137
2.38815e-06
0.511374
2.23796e-06
0.511377
2.2719e-06
0.511381
2.46192e-06
0.511384
2.63439e-06
0.511387
2.65726e-06
0.51139
2.49669e-06
0.511393
2.34531e-06
0.511396
2.39284e-06
0.511399
2.49488e-06
0.511403
2.47499e-06
0.511406
2.45913e-06
0.511409
2.43339e-06
0.511412
2.21167e-06
0.511416
2.09758e-06
0.511419
2.3862e-06
0.511422
2.68349e-06
0.511425
2.7031e-06
0.511428
2.62994e-06
0.51143
2.5199e-06
0.511434
2.40218e-06
0.511437
2.37678e-06
0.51144
2.44303e-06
0.511443
2.62181e-06
0.511445
2.84199e-06
0.511448
2.90044e-06
0.51145
2.7679e-06
0.511453
2.61377e-06
0.511456
2.54012e-06
0.511459
2.50981e-06
0.511462
2.51099e-06
0.511465
2.51491e-06
0.511468
2.43919e-06
0.511471
2.37405e-06
0.511474
2.40019e-06
0.511477
2.36461e-06
0.51148
2.30565e-06
0.511483
2.378e-06
0.511486
2.48053e-06
2.68676e-06
0.510749
-3.25972e-07
0.510749
3.46746e-07
0.510749
1.38433e-06
0.51075
1.71687e-06
0.51075
1.43037e-06
0.510752
1.22388e-06
0.510752
1.72497e-06
0.510753
2.03539e-06
0.510753
2.06826e-06
0.510753
2.59176e-06
0.510752
2.9338e-06
0.510752
2.67646e-06
0.510751
2.2405e-06
0.510751
1.85236e-06
0.510752
1.76068e-06
0.510753
2.15355e-06
0.510753
2.15286e-06
0.510754
1.70805e-06
0.510755
1.63168e-06
0.510756
1.72708e-06
0.510758
1.83637e-06
0.510758
2.08636e-06
0.510759
2.02563e-06
0.51076
1.9713e-06
0.51076
2.38352e-06
0.51076
2.94226e-06
0.510759
3.24095e-06
0.510758
2.91899e-06
0.510757
2.37779e-06
0.510757
2.14754e-06
0.510757
2.30498e-06
0.510757
2.7731e-06
0.510758
2.64254e-06
0.510759
1.58658e-06
0.51076
1.19591e-06
0.51076
2.15638e-06
0.510759
3.0508e-06
0.510759
2.96639e-06
0.510759
2.12607e-06
0.51076
1.2797e-06
0.510761
1.14814e-06
0.510762
1.6887e-06
0.510763
2.40289e-06
0.510764
2.72378e-06
0.510765
2.59783e-06
0.510765
2.36782e-06
0.510764
1.94606e-06
0.510764
1.71462e-06
0.510764
2.16622e-06
0.510764
2.79858e-06
0.510763
2.98026e-06
0.510763
2.59329e-06
0.510764
2.04326e-06
0.510765
1.88045e-06
0.510765
1.95375e-06
0.510766
2.09331e-06
0.510766
2.15507e-06
0.510766
1.95427e-06
0.510767
1.7481e-06
0.510768
1.9175e-06
0.510768
2.43963e-06
0.510769
2.79557e-06
0.510769
2.57278e-06
0.510769
2.12455e-06
0.51077
1.91732e-06
0.51077
2.14185e-06
0.510769
2.66852e-06
0.510768
2.97667e-06
0.510767
2.87707e-06
0.510766
2.58951e-06
0.510766
2.26401e-06
0.510766
2.19461e-06
0.510767
2.49815e-06
0.510767
2.82893e-06
0.510767
2.86e-06
0.510767
2.52344e-06
0.510767
2.12001e-06
0.510768
1.93479e-06
0.510768
1.93232e-06
0.510768
2.1313e-06
0.510768
2.51245e-06
0.510768
2.797e-06
0.510767
2.76857e-06
0.510767
2.4922e-06
0.510767
2.3034e-06
0.510768
2.32863e-06
0.510768
2.28405e-06
0.510768
2.08322e-06
0.510768
1.95359e-06
0.510769
1.96155e-06
0.510769
2.06602e-06
0.51077
2.29436e-06
0.51077
2.48724e-06
0.510771
2.41622e-06
0.510771
2.21642e-06
0.510772
2.08481e-06
0.510772
1.98454e-06
0.510772
1.9853e-06
0.510772
2.16975e-06
0.510772
2.28975e-06
0.510772
2.20995e-06
0.510773
2.16711e-06
0.510774
2.17345e-06
0.510774
2.07361e-06
0.510775
1.98652e-06
0.510776
1.88984e-06
0.510777
1.69362e-06
0.510778
1.75898e-06
0.510779
2.27953e-06
0.510779
2.8822e-06
0.510779
3.14807e-06
0.510778
2.87586e-06
0.510778
2.27446e-06
0.510778
1.89496e-06
0.510778
1.89194e-06
0.510778
2.07487e-06
0.510778
2.38858e-06
0.510777
2.60943e-06
0.510777
2.43753e-06
0.510778
2.13371e-06
0.510779
2.11111e-06
0.51078
2.32231e-06
0.51078
2.52332e-06
0.510779
2.58955e-06
0.510779
2.50843e-06
0.510778
2.37351e-06
0.510778
2.29837e-06
0.510778
2.32457e-06
0.510779
2.48005e-06
0.510779
2.61093e-06
0.510778
2.3742e-06
0.510779
1.86294e-06
0.510779
1.58493e-06
0.51078
1.69123e-06
0.510781
1.9955e-06
0.510781
2.37231e-06
0.510781
2.64786e-06
0.510781
2.65367e-06
0.51078
2.48439e-06
0.510781
2.32641e-06
0.510781
2.21307e-06
0.510782
2.0756e-06
0.510783
1.88168e-06
0.510783
1.77869e-06
0.510784
1.9372e-06
0.510784
2.29948e-06
0.510784
2.62551e-06
0.510784
2.71872e-06
0.510784
2.59251e-06
0.510784
2.34877e-06
0.510785
2.11217e-06
0.510786
2.10915e-06
0.510786
2.33807e-06
0.510786
2.4296e-06
0.510785
2.2e-06
0.510785
1.88524e-06
0.510785
1.74451e-06
0.510786
1.82341e-06
0.510786
2.1153e-06
0.510787
2.52233e-06
0.510787
2.70518e-06
0.510787
2.48026e-06
0.510787
2.15537e-06
0.510788
2.05345e-06
0.510789
2.17362e-06
0.510789
2.37339e-06
0.510789
2.42353e-06
0.510789
2.25364e-06
0.510789
2.0249e-06
0.510789
1.86808e-06
0.510789
1.97306e-06
0.51079
2.43044e-06
0.51079
2.82824e-06
0.510789
2.73512e-06
0.510789
2.35641e-06
0.510789
2.08225e-06
0.51079
1.96255e-06
0.510791
2.00584e-06
0.510791
2.24311e-06
0.510792
2.39618e-06
0.510792
2.19279e-06
0.510792
1.86004e-06
0.510793
1.77852e-06
0.510794
1.91678e-06
0.510795
2.03956e-06
0.510795
2.09744e-06
0.510796
2.09795e-06
0.510796
2.036e-06
0.510796
1.99005e-06
0.510797
2.02234e-06
0.510797
2.13892e-06
0.510797
2.23654e-06
0.510798
2.14568e-06
0.510798
1.96139e-06
0.510799
1.96542e-06
0.5108
2.17776e-06
0.5108
2.36908e-06
0.5108
2.4243e-06
0.510801
2.40627e-06
0.510801
2.37607e-06
0.510801
2.32374e-06
0.510802
2.35168e-06
0.510802
2.59997e-06
0.510802
2.81112e-06
0.510801
2.61095e-06
0.510801
2.22011e-06
0.510802
2.11731e-06
0.510802
2.30182e-06
0.510802
2.51514e-06
0.510802
2.65133e-06
0.510802
2.62172e-06
0.510802
2.41449e-06
0.510802
2.22306e-06
0.510802
2.19304e-06
0.510802
2.33582e-06
0.510802
2.52384e-06
0.510802
2.50467e-06
0.510802
2.30748e-06
0.510803
2.2371e-06
0.510803
2.30136e-06
0.510803
2.28704e-06
0.510803
2.30976e-06
0.510803
2.50799e-06
0.510803
2.54052e-06
0.510802
2.28624e-06
0.510803
2.19068e-06
0.510803
2.34628e-06
0.510803
2.48671e-06
0.510803
2.61125e-06
0.510803
2.68695e-06
0.510803
2.62736e-06
0.510803
2.55054e-06
0.510803
2.50662e-06
0.510803
2.46534e-06
0.510803
2.46281e-06
0.510804
2.49181e-06
0.510804
2.48669e-06
0.510804
2.45937e-06
0.510804
2.49274e-06
0.510804
2.48942e-06
0.510804
2.35807e-06
0.510804
2.23759e-06
0.510805
2.156e-06
0.510805
2.1036e-06
0.510805
2.15652e-06
0.510805
2.16973e-06
0.510806
2.0195e-06
0.510806
1.90234e-06
0.510807
1.85968e-06
1.99087e-06
0.510749
-2.84069e-08
0.510749
4.15593e-07
0.510749
1.03038e-06
0.510749
1.56399e-06
0.510749
1.77521e-06
0.510748
1.88043e-06
0.510748
1.76122e-06
0.510749
1.59279e-06
0.510749
1.78663e-06
0.51075
1.76632e-06
0.510751
1.36636e-06
0.510753
1.19921e-06
0.510754
1.50202e-06
0.510753
2.25107e-06
0.510753
2.32322e-06
0.510753
1.88489e-06
0.510753
1.65488e-06
0.510753
1.69721e-06
0.510753
2.05894e-06
0.510752
2.47147e-06
0.510752
2.21226e-06
0.510752
1.65825e-06
0.510753
1.74582e-06
0.510752
2.06062e-06
0.510753
2.16033e-06
0.510754
1.84789e-06
0.510756
1.27239e-06
0.510757
1.29083e-06
0.510758
1.98695e-06
0.510757
2.64017e-06
0.510757
2.45434e-06
0.510758
1.51699e-06
0.51076
1.14864e-06
0.51076
1.74439e-06
0.510758
2.42024e-06
0.510758
2.53823e-06
0.510759
2.1912e-06
0.51076
1.95626e-06
0.51076
1.95579e-06
0.510759
2.0436e-06
0.510758
2.36444e-06
0.510757
2.6481e-06
0.510757
2.5987e-06
0.510757
2.27576e-06
0.510758
1.8427e-06
0.510759
1.56805e-06
0.510759
1.47429e-06
0.51076
1.60166e-06
0.51076
1.92529e-06
0.51076
2.12467e-06
0.510761
2.20695e-06
0.510762
2.22393e-06
0.510762
2.0885e-06
0.510761
1.96197e-06
0.510762
1.92524e-06
0.510762
1.98962e-06
0.510762
2.11493e-06
0.510761
2.252e-06
0.510761
2.35702e-06
0.51076
2.28144e-06
0.510761
2.24147e-06
0.510761
2.39343e-06
0.510761
2.17726e-06
0.510762
1.64013e-06
0.510762
1.46738e-06
0.510763
1.68303e-06
0.510763
1.96295e-06
0.510764
2.16428e-06
0.510765
2.23176e-06
0.510765
2.22945e-06
0.510765
2.16154e-06
0.510765
2.12819e-06
0.510766
2.22784e-06
0.510766
2.33706e-06
0.510767
2.41181e-06
0.510767
2.308e-06
0.510767
1.8815e-06
0.510768
1.45543e-06
0.510768
1.32334e-06
0.510769
1.42511e-06
0.51077
1.61341e-06
0.510771
1.84179e-06
0.510772
1.99369e-06
0.510772
1.97293e-06
0.510772
1.96526e-06
0.510773
2.08727e-06
0.510773
2.19443e-06
0.510773
2.16177e-06
0.510773
2.06667e-06
0.510772
2.11958e-06
0.510772
2.25188e-06
0.510772
2.28693e-06
0.510772
2.28359e-06
0.510773
2.19233e-06
0.510773
1.91053e-06
0.510773
1.56392e-06
0.510774
1.34638e-06
0.510775
1.42194e-06
0.510775
1.81938e-06
0.510775
2.22826e-06
0.510775
2.30572e-06
0.510775
2.14776e-06
0.510775
1.99083e-06
0.510775
1.82197e-06
0.510776
1.77589e-06
0.510776
2.02813e-06
0.510775
2.26152e-06
0.510774
2.2275e-06
0.510775
2.13691e-06
0.510775
2.20223e-06
0.510776
2.41519e-06
0.510776
2.551e-06
0.510776
2.30313e-06
0.510776
1.88635e-06
0.510777
1.67807e-06
0.510777
1.68669e-06
0.510777
1.96982e-06
0.510777
2.52208e-06
0.510777
2.84276e-06
0.510777
2.61201e-06
0.510777
2.11665e-06
0.510777
1.69073e-06
0.510778
1.47536e-06
0.510779
1.59314e-06
0.51078
1.96691e-06
0.51078
2.24663e-06
0.51078
2.26911e-06
0.51078
2.06837e-06
0.510781
1.8059e-06
0.510782
1.77674e-06
0.510782
1.90683e-06
0.510782
1.82534e-06
0.510782
1.57491e-06
0.510783
1.39335e-06
0.510783
1.37835e-06
0.510784
1.64265e-06
0.510784
2.10178e-06
0.510785
2.38681e-06
0.510785
2.29759e-06
0.510785
2.03405e-06
0.510785
1.88533e-06
0.510786
1.87437e-06
0.510786
1.87455e-06
0.510786
1.81898e-06
0.510786
1.76229e-06
0.510786
1.79918e-06
0.510787
1.99764e-06
0.510787
2.29538e-06
0.510787
2.56366e-06
0.510787
2.63091e-06
0.510787
2.3346e-06
0.510787
1.85144e-06
0.510788
1.63059e-06
0.510789
1.77327e-06
0.510789
1.98546e-06
0.510789
2.10805e-06
0.510788
2.15673e-06
0.510788
2.07987e-06
0.510788
1.976e-06
0.510788
2.1407e-06
0.510789
2.53057e-06
0.510788
2.74349e-06
0.510788
2.60363e-06
0.510788
2.23116e-06
0.510788
1.79339e-06
0.510789
1.53099e-06
0.51079
1.5806e-06
0.51079
1.82533e-06
0.51079
2.05553e-06
0.51079
2.04423e-06
0.51079
1.77579e-06
0.510791
1.65506e-06
0.510792
1.96497e-06
0.510792
2.39049e-06
0.510792
2.56851e-06
0.510792
2.49211e-06
0.510791
2.21303e-06
0.510791
1.84971e-06
0.510792
1.73747e-06
0.510792
1.98652e-06
0.510792
2.20097e-06
0.510792
2.06653e-06
0.510792
1.82553e-06
0.510792
1.79089e-06
0.510792
1.86388e-06
0.510793
1.92684e-06
0.510793
2.02005e-06
0.510793
2.06873e-06
0.510793
1.9679e-06
0.510793
1.79417e-06
0.510793
1.75535e-06
0.510793
1.96147e-06
0.510793
2.20678e-06
0.510793
2.21367e-06
0.510793
2.04585e-06
0.510793
1.94322e-06
0.510794
1.95155e-06
0.510794
2.03651e-06
0.510794
2.19591e-06
0.510794
2.3238e-06
0.510794
2.24773e-06
0.510795
1.97915e-06
0.510796
1.84984e-06
0.510796
2.07773e-06
0.510797
2.32516e-06
0.510797
2.24474e-06
0.510797
2.03237e-06
0.510797
1.90689e-06
0.510798
1.84452e-06
0.510798
1.91747e-06
0.510799
2.12894e-06
0.510799
2.23069e-06
0.510799
2.11763e-06
0.5108
1.92201e-06
0.5108
1.83869e-06
0.510801
1.9788e-06
0.510801
2.18833e-06
0.510801
2.22478e-06
0.510801
2.12435e-06
0.510801
2.05081e-06
0.510802
1.94244e-06
0.510802
1.80835e-06
0.510803
1.94191e-06
0.510803
2.259e-06
0.510803
2.32888e-06
0.510803
2.20242e-06
0.510803
2.12279e-06
0.510804
2.0715e-06
0.510804
2.11434e-06
0.510805
2.25995e-06
0.510805
2.32687e-06
0.510805
2.31433e-06
0.510805
2.28267e-06
0.510806
2.20255e-06
0.510806
2.14433e-06
0.510806
2.15481e-06
0.510807
2.10485e-06
0.510807
1.96214e-06
0.510808
1.87722e-06
0.510808
1.86595e-06
0.510809
1.86637e-06
0.510809
1.90703e-06
0.510809
1.87624e-06
0.51081
1.70283e-06
0.51081
1.61693e-06
0.510811
1.76646e-06
0.510811
1.90343e-06
0.510811
1.88282e-06
0.510811
1.83522e-06
1.85832e-06
0.51075
-1.12218e-07
0.510751
-5.06272e-07
0.510752
5.78559e-08
0.510752
1.31112e-06
0.510752
1.69513e-06
0.510753
1.14768e-06
0.510754
7.22121e-07
0.510754
1.26589e-06
0.510754
1.62508e-06
0.510754
1.51965e-06
0.510754
1.6208e-06
0.510753
2.1967e-06
0.510752
2.36627e-06
0.510753
1.75111e-06
0.510754
1.37185e-06
0.510754
1.76227e-06
0.510753
2.26742e-06
0.510753
2.25361e-06
0.510753
1.50982e-06
0.510755
7.35271e-07
0.510756
9.96325e-07
0.510756
1.70844e-06
0.510756
2.00478e-06
0.510756
1.96133e-06
0.510757
1.43552e-06
0.510758
9.42076e-07
0.510758
1.34846e-06
0.510756
2.40092e-06
0.510755
3.186e-06
0.510755
2.77364e-06
0.510756
1.57451e-06
0.510757
9.9884e-07
0.510756
1.43064e-06
0.510756
2.21337e-06
0.510756
2.62033e-06
0.510756
2.30598e-06
0.510756
1.55108e-06
0.510757
1.06799e-06
0.510758
1.16582e-06
0.510759
1.47384e-06
0.510759
1.76873e-06
0.51076
2.17998e-06
0.51076
2.39206e-06
0.51076
1.96245e-06
0.510761
1.40067e-06
0.510761
1.43565e-06
0.510761
1.67753e-06
0.510761
1.64232e-06
0.510761
1.53033e-06
0.510762
1.4918e-06
0.510762
1.50407e-06
0.510763
1.55082e-06
0.510763
1.74945e-06
0.510763
2.0968e-06
0.510763
2.10853e-06
0.510763
1.67691e-06
0.510764
1.43757e-06
0.510765
1.73654e-06
0.510765
2.36067e-06
0.510764
2.70218e-06
0.510764
2.31497e-06
0.510765
1.77512e-06
0.510765
1.70387e-06
0.510765
1.72507e-06
0.510765
1.55792e-06
0.510765
1.51929e-06
0.510766
1.57552e-06
0.510766
1.50154e-06
0.510767
1.4295e-06
0.510768
1.53537e-06
0.510768
1.77312e-06
0.510768
1.97671e-06
0.510768
1.99522e-06
0.510769
1.81498e-06
0.51077
1.58058e-06
0.510771
1.44115e-06
0.510771
1.48172e-06
0.510771
1.65395e-06
0.51077
1.74359e-06
0.51077
1.75843e-06
0.51077
1.83852e-06
0.51077
2.0141e-06
0.510769
2.28185e-06
0.510769
2.39728e-06
0.510769
2.19201e-06
0.510769
1.94887e-06
0.510769
1.86763e-06
0.51077
1.8356e-06
0.51077
1.77703e-06
0.51077
1.82666e-06
0.51077
2.02793e-06
0.510771
2.15994e-06
0.510771
2.06988e-06
0.510771
1.80523e-06
0.510771
1.54898e-06
0.510772
1.45888e-06
0.510771
1.45799e-06
0.510771
1.4673e-06
0.510772
1.61965e-06
0.510772
1.97173e-06
0.510772
2.211e-06
0.510772
2.09168e-06
0.510772
1.80772e-06
0.510773
1.52723e-06
0.510773
1.3282e-06
0.510774
1.48803e-06
0.510774
1.99061e-06
0.510774
2.42819e-06
0.510773
2.53017e-06
0.510773
2.22839e-06
0.510774
1.75228e-06
0.510775
1.49975e-06
0.510776
1.47948e-06
0.510776
1.53106e-06
0.510776
1.68834e-06
0.510776
1.75109e-06
0.510776
1.62606e-06
0.510777
1.6553e-06
0.510778
1.92056e-06
0.510779
2.15215e-06
0.510778
2.21227e-06
0.510778
2.05501e-06
0.510778
1.69285e-06
0.510778
1.30628e-06
0.510779
1.15594e-06
0.51078
1.32681e-06
0.51078
1.67064e-06
0.510781
1.89611e-06
0.510781
1.79934e-06
0.510781
1.55657e-06
0.510781
1.40934e-06
0.510782
1.34405e-06
0.510782
1.38159e-06
0.510782
1.54895e-06
0.510782
1.67477e-06
0.510782
1.73173e-06
0.510782
1.89533e-06
0.510782
2.13661e-06
0.510782
2.23925e-06
0.510782
2.09267e-06
0.510782
1.80909e-06
0.510782
1.62214e-06
0.510783
1.62769e-06
0.510783
1.76627e-06
0.510782
1.96141e-06
0.510782
2.10506e-06
0.510782
2.12346e-06
0.510782
2.01177e-06
0.510783
1.86582e-06
0.510784
1.85654e-06
0.510784
1.9038e-06
0.510784
1.74512e-06
0.510784
1.42642e-06
0.510785
1.20681e-06
0.510786
1.13805e-06
0.510787
1.21367e-06
0.510787
1.50514e-06
0.510788
1.8462e-06
0.510788
1.956e-06
0.510788
1.90003e-06
0.510789
1.89907e-06
0.510789
1.95424e-06
0.51079
1.99984e-06
0.51079
2.00234e-06
0.51079
1.86617e-06
0.51079
1.60602e-06
0.51079
1.36105e-06
0.510791
1.2423e-06
0.510792
1.37483e-06
0.510792
1.70272e-06
0.510792
1.87368e-06
0.510792
1.76988e-06
0.510792
1.65734e-06
0.510793
1.62525e-06
0.510794
1.63173e-06
0.510794
1.80948e-06
0.510795
2.0533e-06
0.510794
1.98737e-06
0.510794
1.65306e-06
0.510795
1.46871e-06
0.510796
1.55688e-06
0.510796
1.67447e-06
0.510796
1.67844e-06
0.510796
1.66905e-06
0.510796
1.67189e-06
0.510797
1.63314e-06
0.510797
1.64966e-06
0.510797
1.79912e-06
0.510797
1.94645e-06
0.510797
1.94115e-06
0.510797
1.78538e-06
0.510798
1.63533e-06
0.510798
1.66966e-06
0.510798
1.82946e-06
0.510799
1.92339e-06
0.510799
1.95321e-06
0.510799
1.96249e-06
0.510799
1.89479e-06
0.510799
1.83491e-06
0.510799
1.95319e-06
0.5108
2.16284e-06
0.510799
2.16354e-06
0.510799
1.92059e-06
0.5108
1.78102e-06
0.5108
1.87793e-06
0.5108
1.96865e-06
0.5108
1.98768e-06
0.5108
1.99753e-06
0.5108
1.88435e-06
0.5108
1.68631e-06
0.510801
1.61315e-06
0.510802
1.68566e-06
0.510802
1.82859e-06
0.510802
1.92052e-06
0.510802
1.83616e-06
0.510802
1.71064e-06
0.510803
1.71339e-06
0.510803
1.75286e-06
0.510803
1.76928e-06
0.510804
1.86713e-06
0.510804
1.95247e-06
0.510804
1.79457e-06
0.510804
1.59095e-06
0.510805
1.67933e-06
0.510805
1.87997e-06
0.510805
1.98497e-06
0.510805
2.085e-06
0.510805
2.11239e-06
0.510805
2.01931e-06
0.510806
1.96404e-06
0.510806
1.97733e-06
0.510806
2.0267e-06
0.510806
2.10538e-06
0.510806
2.12612e-06
0.510807
2.05767e-06
0.510807
1.9963e-06
0.510807
1.99487e-06
0.510807
1.96564e-06
0.510807
1.8726e-06
0.510807
1.76741e-06
0.510807
1.65657e-06
0.510807
1.60416e-06
0.510808
1.63919e-06
0.510808
1.61614e-06
0.510808
1.53175e-06
0.510808
1.4658e-06
0.510809
1.43637e-06
0.510809
1.45203e-06
0.510809
1.45659e-06
1.53914e-06
0.51075
-5.81372e-08
0.510749
5.50918e-07
0.510749
5.41647e-07
0.51075
2.06085e-07
0.510751
5.50654e-07
0.510751
1.35765e-06
0.510749
1.83265e-06
0.510749
1.38716e-06
0.51075
9.77772e-07
0.51075
1.32829e-06
0.51075
1.80625e-06
0.510751
1.55061e-06
0.510752
9.02644e-07
0.510753
1.08621e-06
0.510753
1.38197e-06
0.510753
1.53338e-06
0.510754
1.59439e-06
0.510754
1.43009e-06
0.510755
1.20365e-06
0.510755
9.98845e-07
0.510754
1.0583e-06
0.510755
1.53624e-06
0.510755
1.85742e-06
0.510755
1.52777e-06
0.510756
1.02182e-06
0.510756
9.01221e-07
0.510756
1.29069e-06
0.510756
1.80752e-06
0.510758
1.84096e-06
0.510759
1.55911e-06
0.510759
1.35879e-06
0.510759
1.46483e-06
0.510758
1.86007e-06
0.510758
2.19939e-06
0.510759
2.22133e-06
0.510759
1.83336e-06
0.510759
1.30882e-06
0.510759
1.12167e-06
0.510759
1.28548e-06
0.510759
1.48827e-06
0.510759
1.47976e-06
0.51076
1.27259e-06
0.510762
1.16762e-06
0.510762
1.22852e-06
0.510763
1.16285e-06
0.510763
1.23675e-06
0.510763
1.71373e-06
0.510762
2.17214e-06
0.510762
2.06232e-06
0.510762
1.56353e-06
0.510762
1.46604e-06
0.510761
1.7904e-06
0.510761
1.7729e-06
0.510762
1.404e-06
0.510763
1.15334e-06
0.510764
1.11003e-06
0.510764
1.32234e-06
0.510764
1.79883e-06
0.510764
2.20529e-06
0.510764
2.24657e-06
0.510765
1.82106e-06
0.510765
1.20672e-06
0.510766
9.99999e-07
0.510766
1.28146e-06
0.510766
1.60441e-06
0.510766
1.84637e-06
0.510766
1.98973e-06
0.510765
1.86057e-06
0.510765
1.62769e-06
0.510765
1.62086e-06
0.510765
1.86702e-06
0.510765
2.19314e-06
0.510764
2.30465e-06
0.510764
1.99938e-06
0.510764
1.53988e-06
0.510764
1.23251e-06
0.510765
1.0643e-06
0.510766
9.92378e-07
0.510766
1.0682e-06
0.510767
1.28977e-06
0.510767
1.46958e-06
0.510768
1.49713e-06
0.510768
1.58474e-06
0.510769
1.72915e-06
0.510769
1.70482e-06
0.51077
1.59184e-06
0.51077
1.52155e-06
0.51077
1.47789e-06
0.510771
1.47764e-06
0.510771
1.59849e-06
0.510771
1.78618e-06
0.510772
1.86388e-06
0.510772
1.78934e-06
0.510772
1.55278e-06
0.510772
1.19518e-06
0.510773
1.05105e-06
0.510773
1.23384e-06
0.510773
1.40946e-06
0.510773
1.41363e-06
0.510774
1.44235e-06
0.510775
1.543e-06
0.510775
1.48899e-06
0.510776
1.28425e-06
0.510776
1.09779e-06
0.510776
9.93705e-07
0.510777
1.12054e-06
0.510777
1.53131e-06
0.510778
1.9367e-06
0.510778
2.16604e-06
0.510778
2.20551e-06
0.510778
1.99036e-06
0.510778
1.68306e-06
0.510778
1.46448e-06
0.510778
1.33096e-06
0.510778
1.46916e-06
0.510778
1.85245e-06
0.510778
2.06144e-06
0.510777
2.02382e-06
0.510777
1.9324e-06
0.510778
1.77693e-06
0.510778
1.60861e-06
0.510779
1.55927e-06
0.510779
1.57199e-06
0.510779
1.56627e-06
0.510778
1.59162e-06
0.510778
1.66013e-06
0.510778
1.7427e-06
0.510778
1.77255e-06
0.510778
1.56739e-06
0.510778
1.21311e-06
0.510779
1.0338e-06
0.510779
9.91148e-07
0.51078
9.5135e-07
0.51078
1.06099e-06
0.51078
1.34522e-06
0.510781
1.56852e-06
0.510781
1.62724e-06
0.510781
1.58352e-06
0.510782
1.47023e-06
0.510783
1.31078e-06
0.510784
1.15193e-06
0.510784
1.07163e-06
0.510785
1.13741e-06
0.510785
1.29102e-06
0.510786
1.47268e-06
0.510786
1.71199e-06
0.510786
1.94537e-06
0.510786
2.02071e-06
0.510786
1.89267e-06
0.510786
1.71156e-06
0.510787
1.62928e-06