/*--------------------------------*- C++ -*----------------------------------*\
| =========                 |                                                 |
| \\      /  F ield         | OpenFOAM: The Open Source CFD Toolbox           |
|  \\    /   O peration     | Version:  2406                                  |
|   \\  /    A nd           | Website:  www.openfoam.com                      |
|    \\/     M anipulation  |                                                 |
\*---------------------------------------------------------------------------*/
FoamFile
{
    version     2.0;
    format      ascii;
    arch        "LSB;label=32;scalar=64";
    class       volScalarField;
    location    "1.4";
    object      p;
}
// * * * * * * * * * * * * * * * * * * * * * * * * * * * * * * * * * * * * * //

dimensions      [1 -1 -2 0 0 0 0];

internalField   nonuniform List<scalar> 
6250
(
2.31245
-3215.58
-1028.33
546.329
501.298
32.7002
-127.7
-50.4755
25.8332
32.1558
12.0095
2.40976
4.65738
8.32421
9.02955
8.18587
7.63643
7.64034
7.76817
7.79314
7.73176
7.6682
7.64009
7.61945
7.5877
7.55059
7.51327
7.48059
7.45069
7.42271
7.38787
7.34726
7.31387
7.28368
7.2482
7.21215
7.1814
7.14818
7.11632
7.0858
7.0463
7.00812
6.97362
6.94415
6.9194
6.88894
6.85456
6.81329
6.77305
6.74091
6.70566
6.67579
6.65276
6.61887
6.58171
6.55469
6.52813
6.49547
6.46043
6.42664
6.39538
6.36184
6.32666
6.29409
6.26263
6.23053
6.1993
6.17034
6.13923
6.1046
6.06765
6.02777
5.99198
5.9628
5.93222
5.89637
5.85862
5.8233
5.78967
5.75464
5.71789
5.68046
5.64426
5.61004
5.57618
5.54303
5.50893
5.46966
5.43155
5.40114
5.37153
5.34011
5.30973
5.27681
5.2411
5.20676
5.17402
5.14189
5.11103
5.08003
5.048
5.01746
4.98408
4.94505
4.90905
4.87753
4.84624
4.8163
4.78536
4.75093
4.71514
4.6785
4.64315
4.61156
4.58112
4.55116
4.52233
4.49121
4.45623
4.41886
4.37975
4.34081
4.30652
4.27664
4.24665
4.21662
4.18585
4.14995
4.10866
4.06681
4.02856
3.99324
3.95904
3.92656
3.8955
3.86432
3.83386
3.80264
3.76616
3.72491
3.68168
3.63881
3.5992
3.56395
3.53315
3.50508
3.47737
3.44723
3.4116
3.37234
3.33288
3.2938
3.25537
3.21748
3.17899
3.14079
3.10517
3.07123
3.03877
3.00977
2.9813
2.95013
2.9189
2.88636
2.84835
2.80969
2.77424
2.73873
2.70282
2.6674
2.6324
2.59737
2.56231
2.53007
2.50035
2.4699
2.43881
2.40858
2.37793
2.34534
2.31322
2.28164
2.24889
2.2172
2.18555
2.15211
2.11957
2.08764
2.05338
2.01685
1.97986
1.94328
1.90712
1.87189
1.83695
1.80034
1.76304
1.72625
1.68943
1.65495
1.62258
1.5895
1.55864
1.53031
1.50001
1.46853
1.43806
1.40665
1.3731
1.34022
1.30819
1.27325
1.23655
1.20025
1.16247
1.12513
1.0902
1.05491
1.01954
0.986072
0.953158
0.91933
0.885114
0.852316
0.820813
0.787562
0.752151
0.717341
0.683458
0.648551
0.612649
0.576929
0.541491
0.507027
0.474374
0.443221
0.413177
0.383707
0.354749
0.326133
0.296249
0.265
0.234919
0.206425
0.176556
0.144892
0.114434
0.0841155
0.0532422
0.0139116
2.27688
-3215.65
-1028.36
546.341
501.306
32.7019
-127.705
-50.4764
25.8401
32.1612
12.0071
2.39806
4.64882
8.32238
9.03172
8.18825
7.63184
7.63753
7.77179
7.79454
7.7353
7.67332
7.63897
7.61547
7.58628
7.55351
7.51399
7.47908
7.44634
7.41026
7.37924
7.34941
7.31511
7.28
7.24734
7.21351
7.18359
7.15324
7.11842
7.08488
7.04825
7.0169
6.98497
6.94305
6.90603
6.8759
6.84611
6.81212
6.77688
6.74622
6.71316
6.6798
6.65112
6.61931
6.58347
6.55367
6.52627
6.49443
6.46144
6.42565
6.38935
6.35854
6.32958
6.29845
6.26679
6.23371
6.19878
6.16654
6.13508
6.10215
6.06901
6.03187
5.99378
5.96115
5.93002
5.89444
5.85609
5.82123
5.79053
5.75886
5.7216
5.67989
5.64129
5.60845
5.57609
5.54278
5.50919
5.47018
5.42847
5.39639
5.37164
5.34387
5.31288
5.27905
5.24088
5.20256
5.1696
5.14179
5.11639
5.08897
5.05326
5.0136
4.97585
4.93754
4.90373
4.87722
4.85113
4.82372
4.7922
4.75367
4.71358
4.67443
4.6379
4.60934
4.58439
4.55592
4.52537
4.492
4.45275
4.41166
4.37391
4.33893
4.30763
4.28091
4.25262
4.22002
4.18573
4.1492
4.10888
4.06648
4.02581
3.98898
3.95597
3.92676
3.89945
3.86897
3.83506
3.80047
3.76263
3.7219
3.68164
3.64163
3.60247
3.56585
3.53291
3.50265
3.47401
3.44606
3.41408
3.37639
3.33557
3.29285
3.25071
3.2121
3.17535
3.13893
3.10619
3.07592
3.04356
3.0124
2.98356
2.95043
2.91518
2.88381
2.85027
2.81204
2.7749
2.73807
2.69998
2.66318
2.62972
2.59825
2.56531
2.53183
2.49955
2.46833
2.43846
2.4091
2.37886
2.34652
2.3137
2.28127
2.24831
2.21801
2.18847
2.15401
2.11766
2.08289
2.04845
2.01448
1.98141
1.94763
1.91111
1.87251
1.83442
1.79679
1.7603
1.72618
1.69116
1.65671
1.62597
1.59325
1.55886
1.52873
1.49854
1.46512
1.43434
1.40714
1.37617
1.34103
1.30736
1.27236
1.2343
1.19843
1.16315
1.12612
1.09098
1.05622
1.01915
0.983487
0.951302
0.919774
0.886685
0.853186
0.820906
0.788507
0.754075
0.718238
0.682336
0.646313
0.61062
0.576325
0.542677
0.509383
0.47696
0.444628
0.412553
0.381281
0.351252
0.323433
0.296409
0.267597
0.237116
0.20718
0.177804
0.146155
0.113093
0.0818873
0.0494539
0.0177846
2.27339
-3215.63
-1028.34
546.347
501.309
32.6999
-127.715
-50.4806
25.8476
32.1718
12.0126
2.40061
4.65296
8.32572
9.0313
8.18862
7.63235
7.63489
7.77278
7.7967
7.73103
7.67086
7.64156
7.6183
7.58519
7.55163
7.51563
7.47981
7.45053
7.42142
7.38805
7.35117
7.315
7.28081
7.24746
7.21222
7.18185
7.1544
7.11686
7.07829
7.04483
7.01403
6.98341
6.94841
6.91141
6.87671
6.84634
6.81456
6.77915
6.74349
6.7103
6.68118
6.6509
6.61801
6.58466
6.55346
6.52627
6.49544
6.4595
6.42478
6.39233
6.36136
6.32956
6.29621
6.26489
6.23339
6.19963
6.16822
6.13562
6.09965
6.0663
6.0331
5.99769
5.96375
5.93098
5.89604
5.85806
5.82112
5.78694
5.75378
5.71979
5.68243
5.64619
5.61378
5.57785
5.53917
5.50454
5.47016
5.43247
5.39863
5.37122
5.34292
5.31099
5.27789
5.24254
5.20486
5.17027
5.14001
5.11187
5.08588
5.05528
5.01703
4.97836
4.93976
4.90423
4.87728
4.85173
4.82205
4.78905
4.75188
4.71336
4.67557
4.6386
4.60789
4.58324
4.55673
4.52645
4.49335
4.45472
4.41271
4.37447
4.33991
4.30763
4.28034
4.25351
4.22121
4.18517
4.14684
4.10578
4.06456
4.02641
3.99153
3.95853
3.92674
3.89748
3.86931
3.83828
3.80363
3.76448
3.72126
3.67763
3.63673
3.60011
3.56675
3.53616
3.50671
3.47568
3.44427
3.4116
3.37507
3.33611
3.29528
3.25264
3.21204
3.17466
3.13809
3.10503
3.07595
3.04427
3.01103
2.98168
2.9514
2.91683
2.88339
2.84915
2.81068
2.77331
2.73845
2.70319
2.6666
2.62999
2.5959
2.56384
2.53238
2.501
2.46979
2.43868
2.40706
2.37662
2.34619
2.31393
2.28206
2.24953
2.21681
2.18633
2.1548
2.12069
2.0859
2.05056
2.01481
1.97942
1.94502
1.91084
1.87506
1.83783
1.79907
1.7596
1.72337
1.689
1.65479
1.62411
1.59306
1.55867
1.5276
1.49964
1.46855
1.43607
1.40648
1.37609
1.34163
1.30763
1.27355
1.23604
1.19944
1.16389
1.12594
1.08936
1.05532
1.02011
0.984385
0.950741
0.918981
0.887096
0.854054
0.820828
0.787776
0.753804
0.718228
0.682131
0.64687
0.611605
0.575729
0.540591
0.507269
0.475577
0.444648
0.414226
0.383914
0.35338
0.323654
0.295056
0.266319
0.236086
0.205612
0.177048
0.147575
0.115186
0.0829769
0.0501098
0.017278
2.27381
-3215.64
-1028.35
546.338
501.307
32.6991
-127.717
-50.489
25.839
32.1644
12.007
2.40248
4.64927
8.31752
9.03587
8.19351
7.62644
7.63318
7.77248
7.7928
7.73213
7.67291
7.63815
7.62017
7.59079
7.54923
7.51113
7.47713
7.44668
7.41534
7.38385
7.35066
7.3145
7.27901
7.2466
7.21401
7.18371
7.15237
7.11333
7.07907
7.04799
7.01278
6.98125
6.9497
6.91434
6.87884
6.84494
6.8115
6.77464
6.73917
6.71081
6.68282
6.65096
6.61917
6.58821
6.55684
6.52537
6.49248
6.45761
6.42387
6.39319
6.36237
6.32811
6.29458
6.26504
6.23291
6.19832
6.16767
6.13485
6.09896
6.06733
6.03392
5.99705
5.96181
5.92663
5.89379
5.86173
5.82586
5.78867
5.75185
5.7167
5.68163
5.64587
5.61355
5.58009
5.54011
5.49984
5.46502
5.43301
5.40143
5.37299
5.34484
5.31052
5.2728
5.2369
5.20343
5.17372
5.14603
5.11598
5.08519
5.05148
5.01207
4.97496
4.94157
4.90872
4.88064
4.8539
4.82198
4.78644
4.74806
4.70922
4.67454
4.64286
4.61275
4.58531
4.55744
4.52485
4.48951
4.45326
4.41357
4.37445
4.34056
4.30835
4.27842
4.25179
4.2217
4.18572
4.14706
4.10601
4.06413
4.02513
3.99008
3.9587
3.92888
3.89914
3.86932
3.83722
3.80206
3.76387
3.72178
3.6775
3.63553
3.59924
3.56684
3.53708
3.50922
3.47831
3.44435
3.4101
3.37293
3.33309
3.29338
3.25237
3.21186
3.17527
3.13924
3.10349
3.07315
3.04482
3.01308
2.98207
2.95264
2.91904
2.88356
2.8492
2.81185
2.7721
2.73462
2.70065
2.66706
2.63135
2.59586
2.56232
2.53033
2.49997
2.47092
2.4412
2.40891
2.37673
2.34551
2.31323
2.28236
2.25133
2.21736
2.18471
2.15354
2.12023
2.08566
2.05139
2.01657
1.98022
1.94371
1.90809
1.87196
1.83613
1.80033
1.76187
1.72431
1.68955
1.65421
1.62176
1.59282
1.56076
1.5276
1.49845
1.46967
1.43739
1.40545
1.37542
1.34214
1.3068
1.27283
1.23657
1.19889
1.16291
1.12603
1.08866
1.05372
1.02018
0.986034
0.951343
0.917978
0.886292
0.854007
0.820576
0.787186
0.753561
0.718558
0.682255
0.646376
0.611456
0.576492
0.541615
0.507427
0.474416
0.443158
0.413796
0.38507
0.355028
0.324279
0.294611
0.266178
0.237174
0.206119
0.175507
0.146003
0.114794
0.0828828
0.0503897
0.0170576
2.27258
-3215.65
-1028.36
546.331
501.311
32.707
-127.709
-50.4841
25.8376
32.1595
12.009
2.40839
4.65885
8.32404
9.02811
8.19049
7.63494
7.64019
7.7773
7.79179
7.72585
7.67464
7.64249
7.61599
7.58338
7.54821
7.51977
7.48499
7.45258
7.42166
7.38191
7.34456
7.31466
7.28554
7.25285
7.21597
7.18101
7.14845
7.11554
7.08504
7.05021
7.00903
6.97401
6.94561
6.91563
6.88165
6.84569
6.81179
6.77833
6.7437
6.71073
6.68
6.65037
6.61889
6.58923
6.56106
6.5258
6.48868
6.45617
6.42514
6.39391
6.36184
6.32894
6.29639
6.26547
6.23248
6.19571
6.16413
6.13633
6.10417
6.07052
6.03387
5.99583
5.96225
5.9271
5.89266
5.86097
5.82513
5.78929
5.75451
5.71913
5.68444
5.64745
5.61206
5.57898
5.54121
5.50028
5.46333
5.43287
5.40392
5.37452
5.34511
5.31023
5.27124
5.235
5.20192
5.17392
5.15015
5.12101
5.0859
5.0498
5.0105
4.97239
4.94054
4.91049
4.88251
4.85545
4.82309
4.78667
4.74786
4.70785
4.67209
4.64176
4.61375
4.58773
4.56137
4.52783
4.48843
4.4503
4.41122
4.37236
4.34132
4.31291
4.28192
4.25281
4.22174
4.18393
4.14433
4.10455
4.06388
4.02553
3.99041
3.95875
3.93014
3.9015
3.87122
3.83818
3.80114
3.76134
3.72042
3.67847
3.63724
3.60032
3.56713
3.53623
3.50859
3.47976
3.44629
3.41114
3.37291
3.33106
3.29071
3.25113
3.21104
3.17515
3.14145
3.1057
3.07333
3.04537
3.01425
2.98175
2.95204
2.91893
2.88193
2.8474
2.81295
2.77477
2.73592
2.69947
2.66477
2.63045
2.59713
2.56465
2.5325
2.50055
2.46909
2.43892
2.40838
2.37721
2.3463
2.31368
2.2817
2.25172
2.21945
2.18592
2.15326
2.11958
2.08519
2.05122
2.01717
1.98215
1.94637
1.91006
1.87191
1.83379
1.79795
1.7611
1.72431
1.69089
1.6562
1.62106
1.5909
1.56099
1.5281
1.49743
1.46942
1.43871
1.4062
1.37609
1.34397
1.30778
1.27278
1.23687
1.19862
1.16287
1.12776
1.08996
1.05274
1.01857
0.985554
0.951844
0.918557
0.886819
0.854798
0.821205
0.78687
0.752433
0.71809
0.682855
0.646534
0.610973
0.576281
0.541775
0.508161
0.475652
0.443463
0.412336
0.383566
0.355373
0.325899
0.2956
0.265927
0.237143
0.206645
0.175505
0.146078
0.115272
0.0827161
0.049744
0.0168069
2.27002
-3215.66
-1028.36
546.331
501.308
32.6988
-127.714
-50.4805
25.8399
32.1579
12.0055
2.40514
4.65242
8.31945
9.03173
8.19035
7.62802
7.63525
7.77528
7.79567
7.73154
7.67516
7.63834
7.61057
7.58521
7.55038
7.51499
7.48157
7.44971
7.41657
7.37973
7.3465
7.31769
7.28657
7.24738
7.21059
7.18185
7.14883
7.11482
7.08184
7.04643
7.0127
6.97735
6.94478
6.91568
6.87982
6.84236
6.80964
6.77721
6.74497
6.71179
6.67975
6.65337
6.62089
6.58496
6.55623
6.52531
6.49255
6.46037
6.4245
6.38974
6.35955
6.33028
6.29728
6.26341
6.23016
6.19415
6.1619
6.13495
6.10427
6.0705
6.03393
5.99543
5.96227
5.92831
5.89262
5.86032
5.82475
5.78863
5.75341
5.71812
5.68641
5.64977
5.61008
5.57544
5.5394
5.50047
5.46347
5.43172
5.40411
5.37551
5.34439
5.30845
5.26896
5.23324
5.20246
5.17514
5.15048
5.12162
5.08542
5.04783
5.00995
4.97275
4.94115
4.91236
4.88403
4.85574
4.82248
4.78458
4.74512
4.70607
4.67188
4.64349
4.61659
4.58832
4.55969
4.52763
4.4892
4.45002
4.41162
4.37276
4.34014
4.3127
4.2824
4.25164
4.22087
4.18409
4.14368
4.10283
4.06165
4.02391
3.99094
3.96103
3.93286
3.90324
3.87091
3.837
3.80014
3.75969
3.71846
3.67784
3.63778
3.60113
3.56871
3.53744
3.50774
3.47873
3.44598
3.41069
3.37308
3.33094
3.28894
3.24939
3.20956
3.17277
3.14054
3.10706
3.07372
3.04525
3.01585
2.98251
2.95092
2.91931
2.88344
2.84678
2.81088
2.77347
2.73556
2.69943
2.66488
2.63064
2.59629
2.56248
2.53091
2.50106
2.47053
2.4401
2.40897
2.3764
2.34558
2.31446
2.28164
2.25109
2.22052
2.18699
2.15301
2.11917
2.08474
2.05041
2.01669
1.9823
1.94621
1.90975
1.87241
1.83415
1.79758
1.7608
1.72299
1.68902
1.65653
1.62175
1.5897
1.56044
1.52896
1.49735
1.46887
1.43985
1.40733
1.37531
1.3434
1.30808
1.27279
1.23726
1.19875
1.16165
1.12674
1.09023
1.0532
1.01819
0.984924
0.95184
0.918236
0.885369
0.853641
0.821325
0.787558
0.752748
0.717698
0.682022
0.64565
0.610562
0.57624
0.54138
0.507605
0.476022
0.445127
0.413716
0.38324
0.354245
0.325495
0.296024
0.266049
0.236751
0.206751
0.175511
0.144895
0.114254
0.082935
0.0504714
0.0172095
2.26501
-3215.66
-1028.37
546.326
501.308
32.7011
-127.716
-50.486
25.8404
32.1604
12.0068
2.40553
4.65738
8.32612
9.03186
8.18992
7.62931
7.63313
7.771
7.79586
7.7373
7.67865
7.63913
7.6092
7.58393
7.55124
7.51753
7.48665
7.45186
7.41516
7.38111
7.34947
7.3182
7.28697
7.24776
7.20949
7.18356
7.15269
7.11695
7.08073
7.04329
7.01316
6.98089
6.9452
6.91261
6.87818
6.8443
6.81237
6.77689
6.74191
6.71129
6.68156
6.65474
6.62311
6.58591
6.55678
6.52771
6.49244
6.45737
6.4231
6.39093
6.36155
6.33123
6.29605
6.26085
6.2295
6.19646
6.16382
6.13593
6.1053
6.07015
6.03319
5.99381
5.96073
5.93117
5.89628
5.86118
5.82461
5.78904
5.75581
5.71946
5.68643
5.65231
5.6111
5.5721
5.53616
5.50054
5.46641
5.43544
5.40707
5.37562
5.34046
5.30424
5.26853
5.23613
5.20661
5.17834
5.15094
5.12049
5.08389
5.04618
5.01022
4.97469
4.94302
4.9141
4.88507
4.85551
4.82098
4.78276
4.74483
4.70697
4.67238
4.64404
4.61909
4.59189
4.56121
4.52739
4.48778
4.44687
4.41029
4.3745
4.34114
4.31414
4.28606
4.25341
4.21933
4.18158
4.14109
4.10148
4.06251
4.02579
3.99231
3.96125
3.93282
3.90425
3.87233
3.83772
3.80018
3.75935
3.71793
3.67746
3.63769
3.60108
3.56977
3.54008
3.50983
3.4797
3.44574
3.40837
3.37092
3.33039
3.28816
3.24896
3.21057
3.17288
3.14001
3.10837
3.07435
3.04396
3.01699
2.98591
2.9521
2.91867
2.88284
2.84557
2.81017
2.77456
2.7367
2.69869
2.66272
2.62948
2.59773
2.56506
2.53237
2.501
2.46952
2.43872
2.40861
2.37704
2.34641
2.31597
2.28259
2.25034
2.2197
2.18703
2.15377
2.12082
2.08642
2.05084
2.01616
1.9821
1.94658
1.91021
1.87286
1.83371
1.79651
1.76147
1.72424
1.68832
1.65616
1.62246
1.58875
1.55926
1.53019
1.49858
1.46811
1.43992
1.40896
1.37604
1.34422
1.3095
1.27288
1.23755
1.20019
1.16171
1.12565
1.09012
1.05375
1.01806
0.984047
0.951831
0.919778
0.886709
0.853513
0.820175
0.786468
0.752419
0.717994
0.682931
0.646643
0.610634
0.575958
0.5419
0.50833
0.475693
0.444625
0.414508
0.384508
0.354705
0.325753
0.296662
0.265757
0.235738
0.207163
0.177073
0.145595
0.113965
0.0822045
0.0495049
0.0166857
2.25926
-3215.67
-1028.37
546.327
501.303
32.6999
-127.719
-50.489
25.8447
32.1674
12.0081
2.40154
4.64935
8.32457
9.03924
8.19154
7.62707
7.63403
7.77103
7.79397
7.73141
7.67155
7.64078
7.61307
7.58672
7.55218
7.51317
7.48051
7.44542
7.41454
7.38769
7.35369
7.31566
7.28149
7.24595
7.21006
7.18152
7.14956
7.11463
7.0802
7.04478
7.0123
6.97685
6.94316
6.91452
6.88312
6.84659
6.80699
6.77278
6.74476
6.71492
6.68039
6.64923
6.62171
6.58984
6.55867
6.52735
6.49075
6.4551
6.42369
6.39283
6.36126
6.32865
6.29303
6.25837
6.22763
6.19765
6.16661
6.13502
6.1016
6.06646
6.03187
5.99515
5.96158
5.93267
5.8975
5.85998
5.82363
5.78805
5.75625
5.72148
5.68535
5.65053
5.61097
5.56969
5.53205
5.4991
5.46842
5.43843
5.40896
5.3749
5.3363
5.29894
5.2656
5.23724
5.2107
5.18179
5.15146
5.11954
5.08189
5.0423
5.00741
4.97523
4.94563
4.91757
4.88716
4.85486
4.81845
4.7788
4.74132
4.70682
4.67524
4.64672
4.62012
4.59191
4.55969
4.52526
4.48758
4.44755
4.41131
4.37681
4.34144
4.3115
4.28448
4.25339
4.21949
4.18169
4.13973
4.09826
4.05966
4.0252
3.99428
3.96432
3.93513
3.90525
3.87157
3.83545
3.7982
3.75834
3.71741
3.6776
3.6387
3.60187
3.56982
3.54047
3.51029
3.47963
3.44546
3.40693
3.36861
3.32898
3.28696
3.24719
3.20955
3.17204
3.13861
3.10934
3.07737
3.04431
3.01504
2.98497
2.95192
2.9193
2.88494
2.84639
2.80786
2.77139
2.73523
2.69948
2.66399
2.62919
2.59633
2.56368
2.53132
2.50119
2.47068
2.43917
2.40855
2.37672
2.3452
2.31592
2.28445
2.25132
2.2193
2.1863
2.15255
2.11994
2.08725
2.05266
2.01689
1.9812
1.94517
1.9094
1.87347
1.83478
1.79595
1.76029
1.72381
1.68696
1.65476
1.62322
1.58931
1.55785
1.5294
1.49944
1.46834
1.4397
1.40985
1.37629
1.34364
1.30992
1.27318
1.23754
1.20096
1.16161
1.12408
1.08902
1.05404
1.0192
0.984377
0.950336
0.918021
0.885882
0.853186
0.820176
0.786668
0.751983
0.716765
0.682439
0.647166
0.610585
0.575278
0.541458
0.508076
0.475421
0.444783
0.415448
0.385368
0.354425
0.325099
0.297015
0.266228
0.235182
0.206295
0.175907
0.144365
0.114141
0.0833093
0.0505358
0.0172637
2.25949
-3215.66
-1028.37
546.323
501.302
32.7014
-127.714
-50.4835
25.842
32.1617
12.0005
2.39739
4.65711
8.32898
9.03361
8.18975
7.63258
7.63852
7.77157
7.79372
7.73211
7.67061
7.64053
7.61465
7.58438
7.55147
7.51426
7.48221
7.45096
7.41768
7.38307
7.3488
7.31632
7.2864
7.25371
7.21371
7.1787
7.1475
7.1163
7.08566
7.04761
7.00771
6.97412
6.94503
6.91397
6.87938
6.84435
6.80779
6.7753
6.74769
6.71662
6.67959
6.64641
6.62104
6.59274
6.56133
6.52841
6.49067
6.45417
6.42342
6.39264
6.36098
6.33018
6.29431
6.2571
6.22557
6.19697
6.16857
6.13763
6.10167
6.06373
6.03011
5.99775
5.96447
5.93349
5.89826
5.86056
5.82486
5.78909
5.7573
5.72418
5.68579
5.64843
5.60982
5.56894
5.53194
5.50094
5.47134
5.44014
5.40801
5.37306
5.33579
5.29958
5.26651
5.2383
5.21264
5.18408
5.15195
5.11886
5.08211
5.04256
5.00724
4.97553
4.94651
4.91911
4.88792
4.85415
4.81813
4.77881
4.74096
4.70699
4.67642
4.64852
4.62218
4.59421
4.56068
4.52401
4.48651
4.44693
4.40994
4.37771
4.3453
4.31448
4.28575
4.25316
4.21698
4.17852
4.13805
4.09858
4.06104
4.02636
3.9952
3.96517
3.93554
3.90603
3.87294
3.83599
3.79759
3.75748
3.7167
3.67763
3.64003
3.60343
3.57069
3.5416
3.51141
3.48002
3.44609
3.40676
3.36638
3.32658
3.2853
3.24608
3.2106
3.17454
3.1389
3.10817
3.07827
3.04619
3.01635
2.98692
2.95299
2.9175
2.88302
2.84679
2.80914
2.77206
2.73498
2.69859
2.66326
2.62896
2.59705
2.56534
2.53214
2.50051
2.4698
2.43852
2.40884
2.37831
2.34602
2.31583
2.285
2.25163
2.2194
2.18737
2.15345
2.11962
2.08667
2.05277
2.018
1.98306
1.94651
1.9089
1.87213
1.8345
1.79599
1.76039
1.72542
1.68797
1.65312
1.62185
1.5897
1.55796
1.52926
1.50069
1.46947
1.43946
1.41072
1.37807
1.34421
1.31063
1.27392
1.23702
1.2011
1.16295
1.12467
1.08851
1.05325
1.01902
0.985028
0.951052
0.918525
0.886001
0.852483
0.81916
0.786358
0.752596
0.717201
0.68222
0.647074
0.610872
0.576081
0.542834
0.509374
0.475904
0.44407
0.414427
0.385926
0.356363
0.325743
0.296537
0.266652
0.235647
0.206149
0.1764
0.145144
0.113917
0.082644
0.050245
0.0172882
2.26763
-3215.66
-1028.38
546.316
501.3
32.6994
-127.718
-50.4904
25.8367
32.1668
12.0189
2.4108
4.65169
8.31895
9.03189
8.19287
7.63407
7.6403
7.77485
7.79042
7.72659
7.66789
7.64042
7.62051
7.58891
7.54921
7.51127
7.48031
7.44958
7.41584
7.37935
7.34958
7.32088
7.28345
7.24769
7.21174
7.17914
7.14936
7.11462
7.08102
7.04688
7.01044
6.97717
6.94582
6.90984
6.87381
6.84285
6.81193
6.7793
6.746
6.71239
6.67872
6.64894
6.62346
6.5929
6.55871
6.52575
6.49034
6.45469
6.42448
6.39448
6.35996
6.32585
6.29052
6.25636
6.22837
6.19956
6.1681
6.13466
6.09648
6.05871
6.02884
6.00165
5.96967
5.93527
5.89681
5.85749
5.82338
5.78925
5.75763
5.72667
5.68617
5.64309
5.60533
5.56799
5.53262
5.50367
5.47412
5.43986
5.40492
5.36896
5.33288
5.29952
5.26845
5.24008
5.21417
5.18607
5.15193
5.11569
5.07897
5.04102
5.00745
4.97735
4.94785
4.91967
4.88771
4.85212
4.81551
4.77656
4.73962
4.70818
4.67944
4.6508
4.62236
4.59282
4.55903
4.52235
4.48602
4.44796
4.41038
4.37804
4.34659
4.31454
4.28457
4.25245
4.21604
4.17692
4.13611
4.09664
4.05975
4.02623
3.99703
3.96816
3.9372
3.9056
3.87216
3.83544
3.79663
3.75612
3.71517
3.6762
3.64018
3.60572
3.57304
3.54289
3.51141
3.4781
3.44391
3.40521
3.36455
3.32567
3.28514
3.24389
3.20723
3.17343
3.13969
3.10913
3.08032
3.04789
3.01487
2.98486
2.95362
2.91887
2.88303
2.846
2.80768
2.77028
2.73408
2.69876
2.66391
2.62888
2.59565
2.56405
2.5317
2.50042
2.47015
2.43854
2.40815
2.37853
2.34671
2.31554
2.28507
2.25226
2.21892
2.18639
2.15339
2.12035
2.08751
2.05312
2.01739
1.98205
1.94604
1.9088
1.8724
1.83571
1.79614
1.75799
1.72375
1.68841
1.65288
1.62097
1.58989
1.55787
1.52787
1.50032
1.47083
1.43986
1.41033
1.37844
1.34424
1.31093
1.27505
1.23678
1.19995
1.16274
1.12481
1.08849
1.05321
1.01886
0.984746
0.950219
0.91727
0.88526
0.852355
0.818694
0.785043
0.751612
0.717203
0.682378
0.647531
0.611478
0.575315
0.540804
0.508474
0.477289
0.445813
0.414563
0.385272
0.356425
0.325575
0.295984
0.267203
0.235886
0.204849
0.175499
0.14522
0.113749
0.082204
0.050331
0.0174171
2.25527
-3215.67
-1028.37
546.332
501.305
32.6979
-127.718
-50.4823
25.8405
32.1597
12.005
2.40402
4.65812
8.32483
9.02946
8.19137
7.63638
7.64067
7.77195
7.78823
7.73225
7.67351
7.63562
7.61096
7.58245
7.55134
7.51874
7.48502
7.44967
7.41385
7.38123
7.35373
7.32022
7.27876
7.24512
7.21816
7.18801
7.14921
7.10931
7.07808
7.04753
7.0141
6.97797
6.94101
6.90751
6.87477
6.84401
6.81255
6.77738
6.74514
6.71472
6.68035
6.64923
6.62323
6.5933
6.55952
6.52548
6.49027
6.45565
6.42589
6.39604
6.35894
6.32302
6.29038
6.25825
6.23017
6.1998
6.16542
6.13142
6.09626
6.06198
6.0319
6.00317
5.97051
5.93397
5.8955
5.85854
5.82616
5.79322
5.75914
5.7254
5.68463
5.63982
5.60232
5.57013
5.53742
5.50581
5.474
5.43941
5.40374
5.36779
5.33252
5.29993
5.27133
5.24435
5.21618
5.1863
5.15113
5.11333
5.0783
5.04279
5.00907
4.9793
4.94977
4.91995
4.88672
4.84985
4.81348
4.77708
4.74168
4.70993
4.68105
4.65262
4.6233
4.59337
4.56032
4.52243
4.48421
4.44746
4.41149
4.37957
4.34961
4.31749
4.28481
4.25072
4.21343
4.1743
4.13497
4.09747
4.06213
4.02844
3.99749
3.96775
3.93739
3.90622
3.87269
3.83569
3.79653
3.75634
3.71608
3.67661
3.64026
3.60664
3.57382
3.54344
3.51318
3.47966
3.44424
3.40463
3.36162
3.32172
3.28398
3.2451
3.2082
3.17428
3.13999
3.10742
3.07968
3.05134
3.01892
2.98629
2.95363
2.91826
2.88173
2.84535
2.80833
2.77089
2.73351
2.69733
2.66336
2.62979
2.59676
2.56496
2.53196
2.49939
2.4693
2.43895
2.40915
2.38018
2.3481
2.31488
2.28387
2.25264
2.21991
2.18714
2.15406
2.12012
2.08684
2.0538
2.01909
1.98321
1.94665
1.90854
1.87084
1.83517
1.79768
1.759
1.72389
1.68897
1.65226
1.61912
1.58975
1.55977
1.52899
1.5001
1.47122
1.44038
1.41071
1.38018
1.34569
1.31064
1.27498
1.2374
1.20052
1.16361
1.12575
1.08871
1.05252
1.01815
0.985304
0.951322
0.917143
0.884007
0.851579
0.819068
0.785492
0.751832
0.717673
0.682236
0.646872
0.611798
0.576682
0.542097
0.509227
0.47784
0.446228
0.414585
0.38513
0.357036
0.326746
0.296152
0.266645
0.236059
0.205538
0.175553
0.14486
0.113713
0.0826324
0.0506983
0.0174488
2.25864
-3215.67
-1028.37
546.321
501.298
32.6976
-127.715
-50.4858
25.8385
32.1667
12.0163
2.40951
4.65385
8.31991
9.03195
8.19566
7.63377
7.6337
7.77153
7.79436
7.73474
7.67032
7.63118
7.61207
7.58805
7.5532
7.51383
7.47653
7.44542
7.41807
7.38798
7.35372
7.31581
7.27971
7.24915
7.21753
7.18455
7.14583
7.10512
7.07623
7.0496
7.01669
6.97806
6.93679
6.90392
6.87647
6.84572
6.81522
6.77979
6.74024
6.70865
6.68171
6.65471
6.62596
6.59133
6.55488
6.52084
6.49112
6.46113
6.42822
6.39395
6.35567
6.3194
6.28986
6.26127
6.23277
6.19905
6.16029
6.12586
6.09458
6.06381
6.03457
6.00442
5.97049
5.9327
5.89355
5.85713
5.82625
5.79589
5.76068
5.72313
5.68241
5.63834
5.59953
5.56844
5.53871
5.50786
5.47435
5.43805
5.40128
5.36514
5.33123
5.30017
5.27336
5.24783
5.21783
5.18571
5.15024
5.11104
5.07545
5.04211
5.00922
4.98016
4.95076
4.91954
4.88633
4.84904
4.8108
4.7748
4.74101
4.71055
4.68334
4.65536
4.62369
4.59071
4.55718
4.5204
4.4838
4.44965
4.41437
4.38031
4.34948
4.31762
4.284
4.24913
4.2115
4.17215
4.13284
4.09543
4.06138
4.02979
3.99987
3.97001
3.93819
3.90504
3.87081
3.83484
3.79608
3.75524
3.71482
3.67561
3.64008
3.60894
3.57749
3.54502
3.51216
3.47607
3.43966
3.40323
3.3626
3.32132
3.28209
3.24265
3.20565
3.17385
3.1428
3.1099
3.07908
3.04966
3.01776
2.9854
2.95398
2.92017
2.88291
2.84432
2.80616
2.76938
2.73335
2.69775
2.66353
2.6292
2.59479
2.56311
2.53204
2.50039
2.46992
2.43852
2.4071
2.37866
2.34946
2.3171
2.28446
2.25165
2.21805
2.18574
2.1548
2.12225
2.08817
2.05372
2.01788
1.9813
1.94593
1.90992
1.87182
1.83489
1.79763
1.7579
1.72121
1.68814
1.65355
1.61937
1.58837
1.55859
1.52874
1.50032
1.4724
1.44165
1.41004
1.3791
1.34579
1.31105
1.27577
1.23792
1.1995
1.16211
1.12544
1.08989
1.0538
1.01781
0.983854
0.950028
0.916161
0.883219
0.850861
0.818483
0.784943
0.751314
0.71785
0.682915
0.647228
0.611589
0.575996
0.540988
0.507746
0.47708
0.447244
0.416245
0.385343
0.356025
0.326221
0.29641
0.267206
0.236592
0.205544
0.175095
0.144968
0.113646
0.0817495
0.0498095
0.0171103
2.2608
-3215.68
-1028.38
546.327
501.304
32.696
-127.721
-50.4834
25.8475
32.1651
12.0012
2.40215
4.66191
8.33117
9.03673
8.19038
7.62794
7.63416
7.77603
7.79748
7.73021
7.6676
7.63494
7.61297
7.58555
7.54996
7.51315
7.48209
7.45201
7.41846
7.38398
7.34944
7.31394
7.28173
7.25197
7.21817
7.1838
7.14627
7.11003
7.07991
7.04926
7.01294
6.97236
6.93508
6.90736
6.88115
6.84623
6.80843
6.77433
6.74352
6.71453
6.68415
6.65402
6.62354
6.58898
6.55561
6.52464
6.49484
6.46431
6.42749
6.38871
6.35321
6.32152
6.29342
6.26403
6.23191
6.19613
6.15734
6.12376
6.09669
6.07021
6.04008
6.00495
5.96654
5.92803
5.89271
5.86076
5.8307
5.79963
5.76125
5.71821
5.67794
5.63876
5.60196
5.57186
5.54228
5.50835
5.4721
5.43492
5.39884
5.36568
5.3352
5.30484
5.27623
5.24982
5.21782
5.18295
5.14859
5.11124
5.07674
5.04533
5.01219
4.98116
4.9508
4.91755
4.88365
4.84791
4.81061
4.77615
4.74428
4.71306
4.6835
4.65515
4.62451
4.59191
4.55851
4.52113
4.48245
4.44809
4.41558
4.3833
4.35229
4.31957
4.2839
4.2472
4.20954
4.17092
4.13229
4.09602
4.06273
4.03098
4.00041
3.97084
3.94027
3.90713
3.87097
3.83332
3.79439
3.75421
3.71577
3.67871
3.64235
3.60946
3.57758
3.54514
3.5137
3.47871
3.43955
3.40042
3.35935
3.31788
3.28092
3.24492
3.20767
3.17333
3.1421
3.11068
3.08053
3.05235
3.02126
2.98681
2.95242
2.91801
2.88244
2.84527
2.80711
2.76965
2.73294
2.69672
2.66274
2.62989
2.59625
2.56367
2.53146
2.49892
2.46942
2.44064
2.40999
2.37943
2.34859
2.31599
2.28337
2.25222
2.22027
2.187
2.15397
2.12091
2.08757
2.05452
2.02031
1.98341
1.94609
1.90943
1.87104
1.83353
1.79844
1.76055
1.72196
1.68717
1.65323
1.61924
1.58822
1.55959
1.53034
1.50046
1.47171
1.44224
1.41146
1.38068
1.34717
1.31094
1.27493
1.23827
1.20094
1.16352
1.12552
1.08899
1.05365
1.01864
0.984646
0.950108
0.915626
0.882552
0.850201
0.818377
0.785704
0.752003
0.718152
0.683032
0.64714
0.611797
0.576966
0.542433
0.508451
0.476558
0.446908
0.416896
0.386185
0.357041
0.327504
0.296725
0.266461
0.236045
0.205917
0.175265
0.144871
0.113936
0.0818647
0.0499397
0.0171034
2.25924
-3215.68
-1028.38
546.329
501.305
32.6985
-127.715
-50.4835
25.8396
32.1613
12.008
2.40975
4.66389
8.32689
9.03224
8.18839
7.63004
7.64035
7.7776
7.79414
7.7268
7.66939
7.64151
7.61497
7.57919
7.5434
7.51214
7.4845
7.45492
7.41795
7.37971
7.34982
7.32088
7.28777
7.25165
7.21182
7.1762
7.14433
7.11274
7.08166
7.0459
7.00984
6.97405
6.93771
6.90727
6.87916
6.84434
6.80791
6.77373
6.74179
6.71571
6.68734
6.65484
6.62124
6.58559
6.55351
6.52683
6.49789
6.46437
6.42562
6.3853
6.35127
6.32351
6.29634
6.26483
6.22832
6.19058
6.15523
6.12518
6.09813
6.07071
6.03992
6.0027
5.9639
5.92771
5.89425
5.86269
5.83043
5.79772
5.76068
5.71671
5.67506
5.63838
5.6029
5.5714
5.54143
5.50789
5.47067
5.43255
5.39685
5.36472
5.33633
5.30791
5.27802
5.2497
5.2178
5.18229
5.14814
5.11112
5.0748
5.04356
5.01283
4.98268
4.95178
4.91641
4.88071
4.8456
4.80962
4.77586
4.74526
4.71534
4.68526
4.65548
4.62354
4.58863
4.55477
4.52075
4.48478
4.45009
4.4173
4.38433
4.35168
4.31863
4.28329
4.24577
4.20694
4.1685
4.13112
4.09484
4.06211
4.03195
4.00217
3.9723
3.9405
3.90604
3.86926
3.83133
3.79299
3.75379
3.71544
3.67872
3.64301
3.61086
3.58
3.54607
3.51156
3.47587
3.43695
3.39872
3.35957
3.31746
3.27795
3.24237
3.20771
3.17423
3.14316
3.11219
3.08038
3.05066
3.02097
2.98806
2.95313
2.91742
2.88125
2.84424
2.80626
2.76904
2.7331
2.69706
2.66213
2.62881
2.59494
2.56257
2.53184
2.49989
2.46888
2.43919
2.4088
2.37887
2.34907
2.31764
2.28418
2.25074
2.21858
2.18677
2.15485
2.12229
2.08816
2.05328
2.01895
1.98325
1.94586
1.90982
1.87261
1.83329
1.7968
1.76038
1.72166
1.68581
1.65286
1.61971
1.58764
1.55849
1.53048
1.50136
1.47232
1.44271
1.41083
1.37946
1.34748
1.31191
1.27502
1.23738
1.19967
1.16337
1.12672
1.09012
1.05397
1.01751
0.982482
0.94856
0.915172
0.882661
0.849673
0.817287
0.785405
0.752303
0.718544
0.683535
0.647119
0.611081
0.575873
0.54185
0.508753
0.476038
0.445767
0.417358
0.387189
0.35678
0.327175
0.297043
0.266519
0.235435
0.205726
0.175761
0.144427
0.113274
0.0818264
0.0493847
0.016554
2.25872
-3215.67
-1028.37
546.325
501.301
32.6989
-127.716
-50.4823
25.8454
32.1676
12.0122
2.40842
4.65969
8.32335
9.03094
8.19429
7.63415
7.6345
7.76772
7.79069
7.73197
7.67455
7.63979
7.6088
7.57898
7.55015
7.52086
7.48875
7.44772
7.4089
7.38002
7.35621
7.32346
7.28316
7.24743
7.21251
7.17905
7.1506
7.12011
7.08175
7.04071
7.00615
6.9742
6.9409
6.90939
6.87762
6.83897
6.80159
6.77454
6.74889
6.71988
6.68653
6.6502
6.61705
6.58638
6.55882
6.53219
6.49894
6.46129
6.42347
6.38476
6.35198
6.32658
6.29809
6.26344
6.22663
6.18941
6.15469
6.12702
6.10179
6.07351
6.04076
6.00109
5.95994
5.9251
5.89578
5.86759
5.83492
5.79789
5.75862
5.7146
5.67228
5.63767
5.60641
5.5759
5.54348
5.50653
5.46732
5.42949
5.39681
5.36799
5.34075
5.31202
5.28005
5.24949
5.21677
5.17937
5.1454
5.11319
5.07959
5.0477
5.015
4.98161
4.94956
4.9148
4.87854
4.84424
4.81038
4.77738
4.74659
4.71677
4.6864
4.65603
4.62446
4.58961
4.55407
4.51975
4.48487
4.45152
4.42036