/*--------------------------------*- C++ -*----------------------------------*\
| =========                 |                                                 |
| \\      /  F ield         | OpenFOAM: The Open Source CFD Toolbox           |
|  \\    /   O peration     | Version:  2406                                  |
|   \\  /    A nd           | Website:  www.openfoam.com                      |
|    \\/     M anipulation  |                                                 |
\*---------------------------------------------------------------------------*/
FoamFile
{
    version     2.0;
    format      ascii;
    arch        "LSB;label=32;scalar=64";
    class       surfaceScalarField;
    location    "1.4";
    object      phi;
}
// * * * * * * * * * * * * * * * * * * * * * * * * * * * * * * * * * * * * * //

dimensions      [0 3 -1 0 0 0 0];

oriented        oriented;

internalField   nonuniform List<scalar> 
12225
(
0.510747
1.85038e-06
0.51074
6.52787e-06
0.510733
7.25158e-06
0.510728
5.13417e-06
0.510723
4.70194e-06
0.510718
4.74049e-06
0.510713
5.41691e-06
0.510708
5.48605e-06
0.510703
4.97825e-06
0.510698
4.78422e-06
0.510693
4.98748e-06
0.510687
5.60691e-06
0.510682
5.69993e-06
0.510676
5.46998e-06
0.510671
5.29497e-06
0.510665
5.25049e-06
0.51066
5.33768e-06
0.510655
5.17807e-06
0.51065
5.09839e-06
0.510645
5.24412e-06
0.51064
5.10752e-06
0.510634
5.08211e-06
0.510629
5.26095e-06
0.510624
5.22395e-06
0.510619
5.09953e-06
0.510614
4.98073e-06
0.510609
5.27987e-06
0.510603
5.59508e-06
0.510597
5.80086e-06
0.510591
6.26627e-06
0.510585
6.37591e-06
0.510578
6.24306e-06
0.510572
6.45592e-06
0.510565
6.65932e-06
0.510559
6.42133e-06
0.510553
5.96353e-06
0.510547
5.43187e-06
0.510542
5.04973e-06
0.510537
5.2206e-06
0.510532
5.53555e-06
0.510526
5.31952e-06
0.510522
4.55316e-06
0.510518
4.10955e-06
0.510513
4.81751e-06
0.510507
5.9336e-06
0.5105
6.60041e-06
0.510493
6.822e-06
0.510487
6.54119e-06
0.510481
5.98872e-06
0.510475
5.46132e-06
0.51047
5.06454e-06
0.510465
5.1669e-06
0.51046
5.48162e-06
0.510454
5.36349e-06
0.510449
5.11958e-06
0.510444
5.04324e-06
0.510439
5.00544e-06
0.510434
5.00164e-06
0.510429
5.04948e-06
0.510424
5.45766e-06
0.510418
5.9747e-06
0.510412
5.87246e-06
0.510406
5.48238e-06
0.510401
5.34782e-06
0.510396
5.28432e-06
0.510391
5.16348e-06
0.510385
5.09518e-06
0.51038
5.0912e-06
0.510375
5.14505e-06
0.51037
5.23829e-06
0.510365
5.28503e-06
0.510359
5.34134e-06
0.510354
5.47235e-06
0.510348
5.59173e-06
0.510343
5.63885e-06
0.510337
5.68575e-06
0.510331
5.77263e-06
0.510325
5.70341e-06
0.51032
5.34514e-06
0.510315
4.95982e-06
0.51031
4.91339e-06
0.510305
5.21814e-06
0.5103
5.54571e-06
0.510294
5.70702e-06
0.510288
5.75341e-06
0.510282
5.72659e-06
0.510277
5.61129e-06
0.510271
5.50818e-06
0.510266
5.61063e-06
0.51026
5.75285e-06
0.510254
5.65314e-06
0.510249
5.52383e-06
0.510243
5.53337e-06
0.510238
5.55806e-06
0.510232
5.62503e-06
0.510226
5.74609e-06
0.510221
5.68928e-06
0.510215
5.34107e-06
0.51021
4.84355e-06
0.510206
4.50577e-06
0.510201
4.74649e-06
0.510196
5.42586e-06
0.51019
5.8814e-06
0.510184
5.96203e-06
0.510178
5.84706e-06
0.510172
5.55912e-06
0.510167
5.28468e-06
0.510162
5.20282e-06
0.510157
5.29688e-06
0.510151
5.44879e-06
0.510146
5.43936e-06
0.51014
5.2794e-06
0.510135
5.16128e-06
0.51013
5.01548e-06
0.510125
4.80227e-06
0.510121
4.74137e-06
0.510116
4.85951e-06
0.510111
5.06027e-06
0.510105
5.46329e-06
0.510099
6.02061e-06
0.510093
6.33044e-06
0.510087
6.22217e-06
0.510081
5.82206e-06
0.510076
5.26853e-06
0.510071
4.86226e-06
0.510066
4.86802e-06
0.510061
5.11584e-06
0.510056
5.2683e-06
0.51005
5.24604e-06
0.510045
5.2101e-06
0.51004
5.32111e-06
0.510034
5.54475e-06
0.510029
5.68583e-06
0.510023
5.58829e-06
0.510018
5.3086e-06
0.510013
5.11552e-06
0.510007
5.174e-06
0.510002
5.42282e-06
0.509996
5.76139e-06
0.50999
5.95977e-06
0.509984
5.79784e-06
0.509979
5.37935e-06
0.509974
4.9926e-06
0.509969
4.85874e-06
0.509964
5.01096e-06
0.509959
5.30271e-06
0.509953
5.50487e-06
0.509948
5.47635e-06
0.509943
5.33064e-06
0.509937
5.26836e-06
0.509932
5.40124e-06
0.509926
5.67741e-06
0.50992
5.85748e-06
0.509915
5.7993e-06
0.509909
5.66798e-06
0.509903
5.65685e-06
0.509898
5.6518e-06
0.509892
5.50559e-06
0.509887
5.31559e-06
0.509882
5.1049e-06
0.509877
4.85014e-06
0.509872
4.84869e-06
0.509867
5.19464e-06
0.509861
5.42284e-06
0.509856
5.36516e-06
0.509851
5.27143e-06
0.509845
5.22009e-06
0.50984
5.27412e-06
0.509835
5.50269e-06
0.509829
5.76242e-06
0.509823
5.83313e-06
0.509818
5.60605e-06
0.509812
5.24858e-06
0.509807
5.06009e-06
0.509802
5.13555e-06
0.509797
5.28481e-06
0.509791
5.33441e-06
0.509786
5.3089e-06
0.509781
5.20601e-06
0.509776
5.05969e-06
0.509771
5.06329e-06
0.509766
5.29071e-06
0.50976
5.54753e-06
0.509754
5.54503e-06
0.509749
5.31372e-06
0.509744
5.18414e-06
0.509739
5.29357e-06
0.509733
5.56858e-06
0.509727
5.83786e-06
0.509721
5.90107e-06
0.509716
5.71667e-06
0.50971
5.42637e-06
0.509705
5.29206e-06
0.509699
5.46593e-06
0.509694
5.74789e-06
0.509688
5.87622e-06
0.509682
5.76991e-06
0.509677
5.49042e-06
0.509671
5.26794e-06
0.509666
5.17314e-06
0.509661
5.03921e-06
0.509656
4.96952e-06
0.509651
5.06042e-06
0.509646
5.09596e-06
0.509641
5.13539e-06
0.509635
5.41845e-06
0.50963
5.72324e-06
0.509624
5.71397e-06
0.509618
5.56011e-06
0.509613
5.52907e-06
0.509607
5.52933e-06
0.509602
5.58137e-06
0.509596
5.79997e-06
0.50959
5.96298e-06
0.509584
5.92166e-06
0.509578
5.77177e-06
0.509573
5.56458e-06
0.509567
5.44099e-06
0.509562
5.5257e-06
0.509556
5.67556e-06
0.50955
5.71173e-06
0.509545
5.62722e-06
0.509539
5.5129e-06
0.509534
5.48531e-06
0.509528
5.58324e-06
0.509523
5.6601e-06
0.509517
5.59988e-06
0.509511
5.52296e-06
0.509506
5.50458e-06
0.5095
5.50384e-06
0.509495
5.5386e-06
0.509489
5.5637e-06
0.509484
5.51794e-06
0.509478
5.44207e-06
0.509473
5.35441e-06
0.509468
5.28975e-06
0.509462
5.3143e-06
0.509457
5.45081e-06
0.509451
5.63972e-06
0.509446
5.71815e-06
0.50944
5.60558e-06
0.509435
5.40115e-06
0.509429
5.28789e-06
0.509424
5.32262e-06
0.509419
5.32894e-06
0.509413
5.30065e-06
0.509408
5.42541e-06
0.509402
5.48523e-06
0.509397
5.82429e-06
5.21235e-06
0.510753
8.71126e-08
0.51076
5.4752e-08
0.510766
9.77916e-07
0.510769
2.07163e-06
0.510771
2.20761e-06
0.510774
2.36213e-06
0.510776
2.79265e-06
0.510779
2.78528e-06
0.510782
2.2868e-06
0.510785
1.93257e-06
0.510788
2.0812e-06
0.510791
2.19102e-06
0.510795
1.96892e-06
0.510798
2.04714e-06
0.510801
2.49402e-06
0.510804
2.51435e-06
0.510806
2.51692e-06
0.510809
2.8676e-06
0.510811
2.80356e-06
0.510814
2.72615e-06
0.510816
3.12555e-06
0.510818
3.00006e-06
0.51082
2.5157e-06
0.510823
2.40041e-06
0.510826
2.63504e-06
0.510828
2.85677e-06
0.51083
2.83435e-06
0.510833
2.59819e-06
0.510837
1.87809e-06
0.510842
1.19556e-06
0.510847
1.60285e-06
0.510851
2.68289e-06
0.510854
3.18957e-06
0.510858
2.97303e-06
0.510862
2.47682e-06
0.510865
2.19033e-06
0.510868
2.40444e-06
0.510871
2.56927e-06
0.510873
2.56898e-06
0.510876
2.52962e-06
0.510879
2.34394e-06
0.510881
2.50601e-06
0.510883
2.8232e-06
0.510885
2.91126e-06
0.510887
3.11342e-06
0.510891
3.06044e-06
0.510895
2.54908e-06
0.5109
2.06482e-06
0.510904
1.95365e-06
0.510907
2.1742e-06
0.51091
2.33031e-06
0.510913
2.21058e-06
0.510916
2.41897e-06
0.510919
2.69497e-06
0.510921
2.52147e-06
0.510924
2.38471e-06
0.510926
2.36212e-06
0.510929
2.4055e-06
0.510931
2.59356e-06
0.510934
2.65063e-06
0.510937
2.77116e-06
0.51094
3.00736e-06
0.510943
3.02244e-06
0.510945
2.85781e-06
0.510948
2.60393e-06
0.510951
2.29571e-06
0.510954
1.99697e-06
0.510957
1.80886e-06
0.510961
1.85492e-06
0.510964
2.09075e-06
0.510967
2.25724e-06
0.51097
2.31254e-06
0.510973
2.38825e-06
0.510976
2.57656e-06
0.510979
2.78305e-06
0.510982
2.76583e-06
0.510985
2.58376e-06
0.510988
2.46845e-06
0.510991
2.48134e-06
0.510993
2.49808e-06
0.510996
2.4e-06
0.510999
2.29058e-06
0.511002
2.20101e-06
0.511006
2.15789e-06
0.511009
2.36335e-06
0.511012
2.66412e-06
0.511015
2.72406e-06
0.511018
2.46105e-06
0.511022
2.14853e-06
0.511025
2.18846e-06
0.511028
2.46741e-06
0.511031
2.69614e-06
0.511034
2.9112e-06
0.511036
2.98759e-06
0.511039
2.80447e-06
0.511042
2.5386e-06
0.511046
2.33874e-06
0.511049
2.30199e-06
0.511051
2.41495e-06
0.511053
2.36116e-06
0.511056
2.17399e-06
0.511059
2.32228e-06
0.511062
2.67811e-06
0.511065
2.85505e-06
0.511068
2.89909e-06
0.511071
2.79846e-06
0.511074
2.62245e-06
0.511076
2.66425e-06
0.511079
2.88453e-06
0.511081
3.05133e-06
0.511083
3.05631e-06
0.511086
2.79002e-06
0.511089
2.40645e-06
0.511091
2.16305e-06
0.511094
1.9677e-06
0.511097
1.82273e-06
0.5111
1.90994e-06
0.511103
2.08952e-06
0.511106
2.23509e-06
0.51111
2.50439e-06
0.511113
2.86661e-06
0.511117
3.06789e-06
0.511119
3.00333e-06
0.511122
2.66123e-06
0.511125
2.13448e-06
0.511128
1.76599e-06
0.511131
1.84578e-06
0.511134
2.27497e-06
0.511137
2.70673e-06
0.511139
2.82091e-06
0.511142
2.54438e-06
0.511145
2.17747e-06
0.511149
2.07415e-06
0.511152
2.26723e-06
0.511155
2.51012e-06
0.511157
2.55476e-06
0.51116
2.42341e-06
0.511163
2.29016e-06
0.511167
2.28339e-06
0.51117
2.50767e-06
0.511173
2.8734e-06
0.511175
3.046e-06
0.511178
2.8561e-06
0.51118
2.51894e-06
0.511183
2.27923e-06
0.511186
2.23236e-06
0.511189
2.41492e-06
0.511192
2.66953e-06
0.511194
2.79377e-06
0.511197
2.76892e-06
0.511199
2.66905e-06
0.511202
2.63575e-06
0.511206
2.69374e-06
0.511209
2.62063e-06
0.511212
2.30804e-06
0.511216
1.99437e-06
0.51122
1.90215e-06
0.511223
1.97156e-06
0.511226
2.20711e-06
0.511229
2.58195e-06
0.511231
2.76167e-06
0.511233
2.64151e-06
0.511236
2.60614e-06
0.511238
2.79329e-06
0.511241
2.93534e-06
0.511243
2.88845e-06
0.511246
2.63849e-06
0.511249
2.24719e-06
0.511252
1.91272e-06
0.511256
1.85656e-06
0.51126
2.18716e-06
0.511263
2.63127e-06
0.511265
2.72903e-06
0.511268
2.45336e-06
0.511271
2.18109e-06
0.511274
2.1515e-06
0.511277
2.35547e-06
0.51128
2.72475e-06
0.511282
3.02728e-06
0.511284
2.99684e-06
0.511286
2.68952e-06
0.511289
2.36823e-06
0.511292
2.32093e-06
0.511295
2.57276e-06
0.511298
2.74796e-06
0.5113
2.63749e-06
0.511303
2.41465e-06
0.511307
2.26922e-06
0.51131
2.27506e-06
0.511314
2.42031e-06
0.511317
2.63593e-06
0.511319
2.73127e-06
0.511322
2.56316e-06
0.511325
2.3546e-06
0.511329
2.38354e-06
0.511332
2.60279e-06
0.511335
2.84008e-06
0.511337
2.93475e-06
0.51134
2.8408e-06
0.511342
2.7343e-06
0.511345
2.68247e-06
0.511347
2.65965e-06
0.511349
2.76626e-06
0.511351
2.83837e-06
0.511354
2.58582e-06
0.511357
2.25129e-06
0.511361
2.26725e-06
0.511364
2.47951e-06
0.511367
2.5478e-06
0.51137
2.52578e-06
0.511373
2.4826e-06
0.511376
2.35104e-06
0.51138
2.26521e-06
0.511383
2.34101e-06
0.511387
2.486e-06
0.51139
2.61292e-06
0.511393
2.62304e-06
0.511396
2.48049e-06
0.511399
2.35888e-06
0.511402
2.39768e-06
0.511405
2.50429e-06
0.511409
2.55157e-06
0.511412
2.48874e-06
0.511415
2.29838e-06
0.511418
2.15759e-06
0.511422
2.26545e-06
0.511425
2.46392e-06
0.511428
2.58094e-06
0.51143
2.65153e-06
0.511433
2.60316e-06
0.511436
2.4782e-06
0.51144
2.45878e-06
0.511443
2.51074e-06
0.511445
2.60238e-06
0.511448
2.74696e-06
0.51145
2.81085e-06
0.511453
2.71729e-06
0.511456
2.56225e-06
0.511459
2.49031e-06
0.511462
2.54252e-06
0.511465
2.61662e-06
0.511468
2.59922e-06
0.511471
2.50681e-06
0.511474
2.46216e-06
0.511477
2.46691e-06
0.51148
2.37947e-06
0.511483
2.26528e-06
0.511486
2.27721e-06
0.511489
2.35165e-06
2.59982e-06
0.510752
-1.2259e-07
0.510752
9.07708e-08
0.510752
9.55615e-07
0.510752
1.58293e-06
0.510753
1.49945e-06
0.510754
1.31176e-06
0.510755
1.56003e-06
0.510756
2.14535e-06
0.510756
2.32939e-06
0.510755
2.58859e-06
0.510755
2.82085e-06
0.510754
2.44374e-06
0.510754
2.35724e-06
0.510754
2.25926e-06
0.510755
1.62718e-06
0.510755
1.78472e-06
0.510756
2.25978e-06
0.510757
1.82757e-06
0.510758
1.62081e-06
0.510759
1.82149e-06
0.51076
1.8183e-06
0.510761
2.03277e-06
0.510761
2.18689e-06
0.510762
1.84295e-06
0.510763
1.91276e-06
0.510763
2.68198e-06
0.510762
3.08437e-06
0.510762
2.86465e-06
0.510762
2.5442e-06
0.51076
2.44801e-06
0.51076
2.38287e-06
0.51076
2.52151e-06
0.51076
2.61181e-06
0.510761
2.0918e-06
0.510762
1.56852e-06
0.510763
1.67993e-06
0.510763
2.33892e-06
0.510762
2.91929e-06
0.510762
2.79472e-06
0.510763
1.88312e-06
0.510764
1.24785e-06
0.510765
1.53763e-06
0.510765
2.18558e-06
0.510766
2.53874e-06
0.510766
2.44667e-06
0.510767
2.2499e-06
0.510768
2.07857e-06
0.510768
1.88421e-06
0.510768
2.12781e-06
0.510767
2.59889e-06
0.510767
2.77838e-06
0.510766
2.72655e-06
0.510766
2.44278e-06
0.510767
2.11221e-06
0.510768
1.83494e-06
0.510768
1.74794e-06
0.510769
2.00169e-06
0.510769
2.15049e-06
0.510769
2.05013e-06
0.51077
1.9684e-06
0.510771
2.05967e-06
0.510771
2.3979e-06
0.510772
2.67398e-06
0.510772
2.50419e-06
0.510773
2.1006e-06
0.510773
2.0334e-06
0.510772
2.38205e-06
0.510772
2.75323e-06
0.51077
2.92101e-06
0.51077
2.7952e-06
0.51077
2.40364e-06
0.51077
2.18361e-06
0.51077
2.34099e-06
0.51077
2.67619e-06
0.510769
2.98917e-06
0.510769
2.8498e-06
0.51077
2.27849e-06
0.51077
1.85807e-06
0.510771
1.79884e-06
0.510771
2.06453e-06
0.510771
2.43248e-06
0.510771
2.62916e-06
0.510771
2.69348e-06
0.51077
2.5465e-06
0.51077
2.24775e-06
0.510771
2.23856e-06
0.510771
2.5277e-06
0.510771
2.56054e-06
0.510771
2.17046e-06
0.510771
1.83627e-06
0.510772
1.80802e-06
0.510773
1.96843e-06
0.510773
2.30612e-06
0.510773
2.66583e-06
0.510774
2.7259e-06
0.510774
2.41348e-06
0.510774
1.93312e-06
0.510775
1.60876e-06
0.510775
1.72107e-06
0.510776
2.13325e-06
0.510775
2.42472e-06
0.510775
2.52154e-06
0.510775
2.44219e-06
0.510776
2.11726e-06
0.510777
1.81902e-06
0.510778
1.69206e-06
0.510779
1.58393e-06
0.51078
1.646e-06
0.510781
2.05296e-06
0.510782
2.65284e-06
0.510782
3.15397e-06
0.510781
3.15079e-06
0.510781
2.58423e-06
0.510781
2.03532e-06
0.510781
1.84544e-06
0.510781
1.85032e-06
0.510781
2.11221e-06
0.510781
2.52168e-06
0.51078
2.56616e-06
0.51078
2.31801e-06
0.510781
2.20124e-06
0.510782
2.20618e-06
0.510783
2.30662e-06
0.510783
2.50429e-06
0.510782
2.54872e-06
0.510782
2.4136e-06
0.510781
2.32723e-06
0.510781
2.35099e-06
0.510781
2.47214e-06
0.510782
2.63294e-06
0.510782
2.60683e-06
0.510781
2.26867e-06
0.510782
1.8138e-06
0.510782
1.54582e-06
0.510783
1.6292e-06
0.510784
1.99975e-06
0.510784
2.42648e-06
0.510784
2.66561e-06
0.510783
2.61799e-06
0.510783
2.42319e-06
0.510784
2.28955e-06
0.510785
2.24576e-06
0.510785
2.13823e-06
0.510786
1.95164e-06
0.510786
1.85225e-06
0.510787
1.9009e-06
0.510787
2.126e-06
0.510787
2.45851e-06
0.510787
2.66454e-06
0.510787
2.67595e-06
0.510788
2.53621e-06
0.510788
2.33469e-06
0.510788
2.26723e-06
0.510789
2.3222e-06
0.510789
2.2357e-06
0.510789
2.00124e-06
0.510789
1.9022e-06
0.510789
1.92402e-06
0.510789
1.93047e-06
0.510789
2.13163e-06
0.51079
2.49e-06
0.51079
2.54604e-06
0.51079
2.32505e-06
0.510791
2.20066e-06
0.510791
2.17777e-06
0.510792
2.21375e-06
0.510792
2.35886e-06
0.510792
2.44283e-06
0.510792
2.28693e-06
0.510792
1.97967e-06
0.510792
1.85037e-06
0.510793
2.12765e-06
0.510793
2.58534e-06
0.510792
2.80232e-06
0.510792
2.6324e-06
0.510792
2.27863e-06
0.510792
1.97999e-06
0.510793
1.90384e-06
0.510794
2.10183e-06
0.510795
2.34898e-06
0.510795
2.35961e-06
0.510795
2.08204e-06
0.510796
1.77883e-06
0.510796
1.76571e-06
0.510797
1.96827e-06
0.510798
2.12075e-06
0.510798
2.14678e-06
0.510798
2.0772e-06
0.510799
1.9547e-06
0.510799
1.86383e-06
0.5108
1.93141e-06
0.5108
2.1444e-06
0.510801
2.2818e-06
0.510801
2.23484e-06
0.510801
2.10764e-06
0.510802
2.027e-06
0.510802
2.09616e-06
0.510803
2.26585e-06
0.510804
2.37325e-06
0.510804
2.45489e-06
0.510804
2.51204e-06
0.510804
2.41616e-06
0.510805
2.39444e-06
0.510805
2.64071e-06
0.510805
2.74433e-06
0.510804
2.43276e-06
0.510805
2.14653e-06
0.510805
2.20297e-06
0.510805
2.35191e-06
0.510805
2.4742e-06
0.510805
2.60244e-06
0.510805
2.55034e-06
0.510805
2.34783e-06
0.510805
2.24545e-06
0.510805
2.27281e-06
0.510805
2.37e-06
0.510805
2.48366e-06
0.510805
2.48726e-06
0.510805
2.36045e-06
0.510806
2.24499e-06
0.510806
2.23598e-06
0.510806
2.31367e-06
0.510806
2.43527e-06
0.510806
2.48719e-06
0.510806
2.38174e-06
0.510806
2.28618e-06
0.510806
2.3186e-06
0.510806
2.38855e-06
0.510806
2.51145e-06
0.510806
2.65031e-06
0.510806
2.65468e-06
0.510806
2.56562e-06
0.510806
2.48514e-06
0.510806
2.46481e-06
0.510806
2.53271e-06
0.510806
2.60953e-06
0.510807
2.58681e-06
0.510807
2.46159e-06
0.510807
2.37538e-06
0.510807
2.3841e-06
0.510807
2.38191e-06
0.510807
2.32183e-06
0.510808
2.20057e-06
0.510808
2.12669e-06
0.510808
2.20649e-06
0.510808
2.25425e-06
0.510809
2.13313e-06
0.510809
2.00218e-06
0.510809
1.89859e-06
1.97006e-06
0.510753
-3.80416e-09
0.510752
6.19042e-07
0.510752
1.41278e-06
0.510752
1.7631e-06
0.510752
1.67783e-06
0.510751
1.54488e-06
0.510751
1.40641e-06
0.510752
1.44464e-06
0.510753
1.91419e-06
0.510753
2.25372e-06
0.510754
1.80642e-06
0.510755
1.40705e-06
0.510756
1.12284e-06
0.510757
1.64296e-06
0.510756
2.58203e-06
0.510755
2.20696e-06
0.510756
1.52744e-06
0.510756
1.53203e-06
0.510756
1.73837e-06
0.510756
2.19565e-06
0.510755
2.41924e-06
0.510756
1.80588e-06
0.510756
1.62898e-06
0.510756
2.22107e-06
0.510755
2.59403e-06
0.510756
2.08547e-06
0.510758
1.21302e-06
0.510759
1.24937e-06
0.51076
1.58841e-06
0.510761
2.09842e-06
0.51076
2.57929e-06
0.510761
2.30264e-06
0.510761
1.65694e-06
0.510762
1.31404e-06
0.510762
1.62576e-06
0.510762
2.16009e-06
0.510762
2.478e-06
0.510762
2.43045e-06
0.510763
2.04985e-06
0.510763
1.74552e-06
0.510762
1.93621e-06
0.510761
2.48984e-06
0.510761
2.91036e-06
0.51076
2.8003e-06
0.510761
2.22948e-06
0.510761
1.70229e-06
0.510762
1.55296e-06
0.510762
1.58158e-06
0.510762
1.59342e-06
0.510763
1.71734e-06
0.510764
2.09292e-06
0.510764
2.36104e-06
0.510765
2.21061e-06
0.510765
2.04491e-06
0.510765
1.92478e-06
0.510765
1.80162e-06
0.510765
2.01766e-06
0.510764
2.31145e-06
0.510764
2.32962e-06
0.510764
2.18247e-06
0.510764
2.19037e-06
0.510764
2.40463e-06
0.510764
2.32696e-06
0.510765
1.95756e-06
0.510765
1.70961e-06
0.510765
1.68347e-06
0.510766
1.92573e-06
0.510766
2.22185e-06
0.510767
2.16504e-06
0.510768
1.99542e-06
0.510768
1.98919e-06
0.510768
2.09618e-06
0.510769
2.24277e-06
0.510769
2.29439e-06
0.51077
2.39612e-06
0.51077
2.47347e-06
0.51077
2.21313e-06
0.51077
1.81124e-06
0.51077
1.45382e-06
0.510771
1.26629e-06
0.510772
1.34501e-06
0.510773
1.5247e-06
0.510774
1.7779e-06
0.510775
2.03473e-06
0.510775
2.1036e-06
0.510775
2.04182e-06
0.510776
2.09421e-06
0.510776
2.25656e-06
0.510776
2.1926e-06
0.510776
2.01147e-06
0.510775
2.04512e-06
0.510775
2.17593e-06
0.510775
2.31079e-06
0.510775
2.40604e-06
0.510776
2.29866e-06
0.510776
2.00954e-06
0.510777
1.60604e-06
0.510777
1.20532e-06
0.510778
1.22247e-06
0.510778
1.74543e-06
0.510778
2.21674e-06
0.510778
2.36697e-06
0.510778
2.34223e-06
0.510778
2.07343e-06
0.510778
1.72997e-06
0.510778
1.70199e-06
0.510778
1.90086e-06
0.510778
2.07101e-06
0.510778
2.18273e-06
0.510778
2.30198e-06
0.510779
2.50231e-06
0.510779
2.66334e-06
0.510779
2.47919e-06
0.510779
2.01102e-06
0.510779
1.64264e-06
0.51078
1.48881e-06
0.51078
1.64996e-06
0.510781
2.23067e-06
0.51078
2.75626e-06
0.51078
2.81507e-06
0.51078
2.51931e-06
0.51078
2.01043e-06
0.510781
1.52355e-06
0.510782
1.42779e-06
0.510782
1.70953e-06
0.510783
2.03734e-06
0.510783
2.26476e-06
0.510783
2.28475e-06
0.510783
2.08112e-06
0.510784
1.91438e-06
0.510785
1.91277e-06
0.510785
1.89343e-06
0.510785
1.72856e-06
0.510785
1.45207e-06
0.510786
1.23721e-06
0.510786
1.30648e-06
0.510787
1.68155e-06
0.510788
2.16275e-06
0.510788
2.45367e-06
0.510788
2.38706e-06
0.510788
2.10913e-06
0.510788
1.89071e-06
0.510789
1.80326e-06
0.510789
1.76045e-06
0.510789
1.75225e-06
0.510789
1.76405e-06
0.510789
1.81599e-06
0.51079
2.0094e-06
0.51079
2.30054e-06
0.51079
2.5438e-06
0.51079
2.59732e-06
0.51079
2.35412e-06
0.510791
2.0146e-06
0.510791
1.89042e-06
0.510791
1.92649e-06
0.510791
1.92626e-06
0.510791
1.97049e-06
0.510791
2.06043e-06
0.510791
2.02426e-06
0.510791
2.02062e-06
0.510791
2.27134e-06
0.510791
2.54367e-06
0.510791
2.59981e-06
0.510791
2.4822e-06
0.510791
2.18818e-06
0.510791
1.79827e-06
0.510792
1.57479e-06
0.510793
1.67006e-06
0.510793
1.95559e-06
0.510793
2.11964e-06
0.510793
1.95106e-06
0.510793
1.70525e-06
0.510794
1.74544e-06
0.510795
2.06066e-06
0.510795
2.38984e-06
0.510795
2.57188e-06
0.510794
2.47742e-06
0.510794
2.11316e-06
0.510794
1.81364e-06
0.510795
1.81899e-06
0.510795
2.01618e-06
0.510795
2.12031e-06
0.510795
1.97648e-06
0.510795
1.78431e-06
0.510795
1.75943e-06
0.510796
1.8645e-06
0.510796
1.98964e-06
0.510796
2.05365e-06
0.510796
2.02825e-06
0.510796
1.90934e-06
0.510796
1.7567e-06
0.510796
1.7543e-06
0.510796
1.94242e-06
0.510797
2.14216e-06
0.510796
2.22581e-06
0.510796
2.16522e-06
0.510796
2.04803e-06
0.510797
2.01002e-06
0.510797
2.03834e-06
0.510797
2.12578e-06
0.510798
2.27719e-06
0.510798
2.24651e-06
0.510798
2.00187e-06
0.510799
1.9565e-06
0.510799
2.18175e-06
0.5108
2.25511e-06
0.5108
2.09066e-06
0.5108
1.96604e-06
0.5108
1.89083e-06
0.510801
1.84103e-06
0.510802
1.96049e-06
0.510802
2.11053e-06
0.510802
2.1161e-06
0.510802
2.04462e-06
0.510803
1.9473e-06
0.510803
1.9031e-06
0.510804
2.02997e-06
0.510804
2.20656e-06
0.510804
2.24195e-06
0.510804
2.14407e-06
0.510804
1.99737e-06
0.510805
1.86381e-06
0.510805
1.87734e-06
0.510806
2.06908e-06
0.510806
2.22137e-06
0.510806
2.25591e-06
0.510806
2.25172e-06
0.510806
2.16061e-06
0.510807
2.07702e-06
0.510807
2.16344e-06
0.510808
2.28466e-06
0.510808
2.32666e-06
0.510808
2.31845e-06
0.510808
2.23589e-06
0.510809
2.13327e-06
0.510809
2.12709e-06
0.51081
2.16989e-06
0.51081
2.10789e-06
0.51081
1.95681e-06
0.510811
1.8468e-06
0.510811
1.84109e-06
0.510812
1.91332e-06
0.510812
1.90552e-06
0.510812
1.76533e-06
0.510813
1.66856e-06
0.510814
1.71582e-06
0.510814
1.81044e-06
0.510814
1.87332e-06
0.510814
1.87918e-06
1.86091e-06
0.510753
1.03259e-07
0.510753
2.69018e-07
0.510754
3.9029e-07
0.510755
8.46541e-07
0.510755
1.38938e-06
0.510755
1.64868e-06
0.510755
1.35242e-06
0.510756
1.00408e-06
0.510757
1.11579e-06
0.510757
1.33306e-06
0.510758
1.631e-06
0.510757
1.95389e-06
0.510756
2.27023e-06
0.510756
1.97716e-06
0.510757
1.29347e-06
0.510757
1.62411e-06
0.510757
2.36483e-06
0.510756
2.43417e-06
0.510756
1.94909e-06
0.510757
1.07503e-06
0.510758
7.17328e-07
0.510759
1.21486e-06
0.510759
1.79231e-06
0.510759
2.10654e-06
0.51076
1.65766e-06
0.510761
1.22908e-06
0.51076
1.43038e-06
0.51076
1.82651e-06
0.510759
2.47168e-06
0.510758
2.8521e-06
0.510759
2.32175e-06
0.510759
1.50795e-06
0.51076
1.1825e-06
0.51076
1.54569e-06
0.510759
2.37573e-06
0.510758
2.63787e-06
0.510759
2.00384e-06
0.51076
1.37009e-06
0.510761
1.13744e-06
0.510761
1.40588e-06
0.510761
1.74685e-06
0.510762
1.81583e-06
0.510763
2.0562e-06
0.510763
2.13647e-06
0.510764
1.79934e-06
0.510764
1.66685e-06
0.510764
1.70436e-06
0.510764
1.68404e-06
0.510764
1.6527e-06
0.510764
1.49711e-06
0.510765
1.40874e-06
0.510765
1.46039e-06
0.510766
1.4413e-06
0.510767
1.70098e-06
0.510766
2.14515e-06
0.510766
2.10218e-06
0.510766
1.67863e-06
0.510767
1.41228e-06
0.510768
1.75025e-06
0.510768
2.46898e-06
0.510767
2.71564e-06
0.510767
2.30843e-06
0.510768
1.81362e-06
0.510768
1.60277e-06
0.510768
1.60607e-06
0.510768
1.66757e-06
0.510768
1.713e-06
0.510769
1.69527e-06
0.510769
1.57214e-06
0.51077
1.45989e-06
0.51077
1.52417e-06
0.510771
1.72705e-06
0.510771
1.94004e-06
0.510771
1.92976e-06
0.510772
1.71426e-06
0.510773
1.56024e-06
0.510774
1.50417e-06
0.510774
1.55206e-06
0.510774
1.62836e-06
0.510773
1.69478e-06
0.510773
1.76574e-06
0.510773
1.74735e-06
0.510773
1.90651e-06
0.510772
2.27716e-06
0.510772
2.42866e-06
0.510772
2.29197e-06
0.510772
2.03407e-06
0.510772
1.87291e-06
0.510773
1.82941e-06
0.510773
1.74363e-06
0.510773
1.79652e-06
0.510773
2.03911e-06
0.510773
2.19927e-06
0.510774
2.15813e-06
0.510774
1.91282e-06
0.510775
1.56578e-06
0.510775
1.3543e-06
0.510775
1.31237e-06
0.510775
1.37347e-06
0.510775
1.69305e-06
0.510775
2.11054e-06
0.510775
2.20699e-06
0.510775
2.03808e-06
0.510775
1.74842e-06
0.510776
1.38201e-06
0.510776
1.26767e-06
0.510777
1.5769e-06
0.510777
2.06958e-06
0.510776
2.4607e-06
0.510776
2.51378e-06
0.510776
2.20365e-06
0.510777
1.8326e-06
0.510778
1.5566e-06
0.510779
1.36635e-06
0.510779
1.43163e-06
0.510779
1.6076e-06
0.510779
1.55599e-06
0.51078
1.5598e-06
0.510781
1.84086e-06
0.510781
2.10851e-06
0.510782
2.24127e-06
0.510781
2.20026e-06
0.510781
1.85908e-06
0.510781
1.41882e-06
0.510782
1.20931e-06
0.510782
1.25884e-06
0.510783
1.50062e-06
0.510784
1.82931e-06
0.510784
1.9716e-06
0.510784
1.85446e-06
0.510784
1.62936e-06
0.510784
1.38859e-06
0.510785
1.23651e-06
0.510785
1.25998e-06
0.510785
1.39827e-06
0.510785
1.58313e-06
0.510785
1.79902e-06
0.510785
2.03844e-06
0.510785
2.25222e-06
0.510785
2.2828e-06
0.510785
2.03871e-06
0.510785
1.72966e-06
0.510785
1.58852e-06
0.510786
1.59576e-06
0.510786
1.74487e-06
0.510785
1.97959e-06
0.510785
2.09318e-06
0.510785
2.05056e-06
0.510785
1.96e-06
0.510786
1.91436e-06
0.510787
1.97283e-06
0.510787
1.98539e-06
0.510787
1.76867e-06
0.510788
1.48051e-06
0.510788
1.31995e-06
0.510789
1.21697e-06
0.51079
1.24028e-06
0.51079
1.52059e-06
0.510791
1.77458e-06
0.510791
1.78578e-06
0.510791
1.81142e-06
0.510792
1.95065e-06
0.510792
2.00158e-06
0.510793
1.99403e-06
0.510793
1.99502e-06
0.510793
1.86824e-06
0.510793
1.58429e-06
0.510793
1.32467e-06
0.510794
1.30779e-06
0.510795
1.54836e-06
0.510795
1.7806e-06
0.510795
1.82114e-06
0.510795
1.7539e-06
0.510795
1.65582e-06
0.510796
1.57174e-06
0.510797
1.65179e-06
0.510797
1.8855e-06
0.510798
1.99938e-06
0.510797
1.89017e-06
0.510798
1.66351e-06
0.510798
1.51736e-06
0.510799
1.5811e-06
0.510799
1.65392e-06
0.510799
1.60086e-06
0.510799
1.57101e-06
0.5108
1.60456e-06
0.5108
1.65132e-06
0.5108
1.74725e-06
0.5108
1.87719e-06
0.5108
1.92208e-06
0.5108
1.82168e-06
0.5108
1.68523e-06
0.510801
1.65041e-06
0.510801
1.72102e-06
0.510801
1.84921e-06
0.510802
1.96029e-06
0.510802
1.98694e-06
0.510802
1.97155e-06
0.510802
1.92754e-06
0.510802
1.87938e-06
0.510802
1.99604e-06
0.510802
2.18537e-06
0.510802
2.11312e-06
0.510802
1.8797e-06
0.510803
1.84479e-06
0.510803
1.9346e-06
0.510803
1.91866e-06
0.510803
1.90197e-06
0.510803
1.91205e-06
0.510803
1.78977e-06
0.510804
1.64908e-06
0.510804
1.64239e-06
0.510805
1.72234e-06
0.510805
1.82963e-06
0.510805
1.87552e-06
0.510805
1.80367e-06
0.510805
1.71408e-06
0.510806
1.70407e-06
0.510806
1.77386e-06
0.510806
1.87048e-06
0.510807
1.92059e-06
0.510807
1.86219e-06
0.510807
1.73529e-06
0.510807
1.69475e-06
0.510808
1.75979e-06
0.510808
1.85098e-06
0.510808
1.98666e-06
0.510808
2.09519e-06
0.510808
2.08926e-06
0.510808
2.04903e-06
0.510809
2.01239e-06
0.510809
2.00571e-06
0.510809
2.06884e-06
0.510809
2.11249e-06
0.510809
2.05296e-06
0.51081
1.95385e-06
0.51081
1.94982e-06
0.51081
2.01125e-06
0.51081
1.98484e-06
0.51081
1.85095e-06
0.51081
1.68665e-06
0.51081
1.61327e-06
0.510811
1.65824e-06
0.510811
1.64974e-06
0.510811
1.57049e-06
0.510811
1.53344e-06
0.510811
1.49891e-06
0.510812
1.45768e-06
0.510812
1.43255e-06
1.505e-06
0.510752
2.53891e-07
0.510752
4.69631e-07
0.510752
6.94968e-07
0.510752
7.3142e-07
0.510753
6.18415e-07
0.510754
9.46242e-07
0.510753
1.59373e-06
0.510753
1.75858e-06
0.510752
1.22837e-06
0.510753
1.07998e-06
0.510753
1.41626e-06
0.510753
1.63304e-06
0.510754
1.29135e-06
0.510755
1.01814e-06
0.510755
1.23083e-06
0.510756
1.25387e-06
0.510757
1.39905e-06
0.510757
1.70742e-06
0.510758
1.70248e-06
0.510757
1.2143e-06
0.510757
7.80436e-07
0.510757
1.10541e-06
0.510758
1.66571e-06
0.510758
1.79626e-06
0.510758
1.46382e-06
0.510758
1.02693e-06
0.510759
9.45371e-07
0.510759
1.23904e-06
0.51076
1.70283e-06
0.510761
1.92988e-06
0.510762
1.63331e-06
0.510762
1.29743e-06
0.510762
1.47668e-06
0.510761
1.88045e-06
0.510762
2.20367e-06
0.510762
2.23083e-06
0.510762
1.75655e-06
0.510762
1.26989e-06
0.510762
1.18952e-06
0.510762
1.45087e-06
0.510762
1.66798e-06
0.510763
1.42202e-06
0.510764
1.07309e-06
0.510765
1.13574e-06
0.510765
1.29336e-06
0.510766
1.27169e-06
0.510766
1.35823e-06
0.510766
1.71285e-06
0.510765
2.05349e-06
0.510765
2.03131e-06
0.510765
1.69732e-06
0.510764
1.60199e-06
0.510764
1.67029e-06
0.510764
1.52356e-06
0.510765
1.37159e-06
0.510766
1.19507e-06
0.510767
1.06619e-06
0.510767
1.39349e-06
0.510767
1.94812e-06
0.510767
2.25388e-06
0.510767
2.1074e-06
0.510768
1.60291e-06
0.510769
1.21405e-06
0.510769
1.26467e-06
0.510769
1.54523e-06
0.510769
1.75401e-06
0.510769
1.83238e-06
0.510769
1.8172e-06
0.510769
1.69072e-06
0.510768
1.62046e-06
0.510768
1.79567e-06
0.510768
2.08858e-06
0.510767
2.36849e-06
0.510767
2.30514e-06
0.510767
1.76025e-06
0.510767
1.27431e-06
0.510768
1.0826e-06
0.510768
1.06014e-06
0.510769
1.08545e-06
0.510769
1.09997e-06
0.51077
1.27036e-06
0.51077
1.39607e-06
0.510771
1.37538e-06
0.510771
1.5736e-06
0.510772
1.88105e-06
0.510772
1.9515e-06
0.510773
1.74348e-06
0.510773
1.42683e-06
0.510774
1.24269e-06
0.510774
1.28618e-06
0.510774
1.5839e-06
0.510774
2.00324e-06
0.510774
2.17894e-06
0.510775
1.92107e-06
0.510775
1.39927e-06
0.510776
9.79883e-07
0.510776
9.25004e-07
0.510776
1.1578e-06
0.510776
1.38124e-06
0.510776
1.53068e-06
0.510777
1.66103e-06
0.510777
1.61268e-06
0.510778
1.3731e-06
0.510779
1.11527e-06
0.510779
9.15417e-07
0.51078
8.90713e-07
0.51078
1.17858e-06
0.51078
1.68455e-06
0.510781
2.13307e-06
0.510781
2.31892e-06
0.510781
2.19361e-06
0.510781
1.89377e-06
0.510781
1.58465e-06
0.510781
1.27459e-06
0.510781
1.17995e-06
0.510781
1.51223e-06
0.510781
1.89739e-06
0.51078
2.06842e-06
0.51078
2.1189e-06
0.51078
1.94194e-06
0.510781
1.6603e-06
0.510781
1.58856e-06
0.510782
1.56941e-06
0.510782
1.46443e-06
0.510781
1.48085e-06
0.510781
1.63089e-06
0.510781
1.77969e-06
0.510781
1.89629e-06
0.510781
1.84893e-06
0.510781
1.55611e-06
0.510782
1.22869e-06
0.510782
1.02001e-06
0.510782
9.01744e-07
0.510783
9.02067e-07
0.510783
1.04486e-06
0.510783
1.26617e-06
0.510784
1.48054e-06
0.510784
1.60867e-06
0.510785
1.61601e-06
0.510785
1.53648e-06
0.510786
1.38767e-06
0.510787
1.20613e-06
0.510787
1.10695e-06
0.510788
1.08464e-06
0.510788
1.13283e-06
0.510789
1.36075e-06
0.510789
1.69374e-06
0.510789
1.97969e-06
0.510789
2.11266e-06
0.510789
2.00163e-06
0.510789
1.80114e-06