/*--------------------------------*- C++ -*----------------------------------*\
| =========                 |                                                 |
| \\      /  F ield         | OpenFOAM: The Open Source CFD Toolbox           |
|  \\    /   O peration     | Version:  2406                                  |
|   \\  /    A nd           | Website:  www.openfoam.com                      |
|    \\/     M anipulation  |                                                 |
\*---------------------------------------------------------------------------*/
FoamFile
{
    version     2.0;
    format      ascii;
    arch        "LSB;label=32;scalar=64";
    class       volVectorField;
    location    "1.4";
    object      U;
}
// * * * * * * * * * * * * * * * * * * * * * * * * * * * * * * * * * * * * * //

dimensions      [0 1 -1 0 0 0 0];

internalField   nonuniform List<vector> 
6250
(
(50.5228 0.000102829 0)
(85.4044 0.000531627 0)
(73.2319 0.000798802 0)
(60.5937 0.000786397 0)
(59.8522 0.000735787 0)
(63.3105 0.000704202 0)
(64.8187 0.000744083 0)
(64.3668 0.000780944 0)
(63.7502 0.000762013 0)
(63.6478 0.000738929 0)
(63.7904 0.000744111 0)
(63.8745 0.000812558 0)
(63.8639 0.000880446 0)
(63.8344 0.000902758 0)
(63.8255 0.00086587 0)
(63.8304 0.000793303 0)
(63.8342 0.000734882 0)
(63.8335 0.000705382 0)
(63.8317 0.000718046 0)
(63.8306 0.000757938 0)
(63.83 0.00078323 0)
(63.8297 0.000805778 0)
(63.8291 0.000829708 0)
(63.8283 0.000824617 0)
(63.8277 0.000789469 0)
(63.827 0.000760318 0)
(63.8264 0.000798882 0)
(63.8257 0.000882682 0)
(63.825 0.000959376 0)
(63.8243 0.0010247 0)
(63.8234 0.00105433 0)
(63.8227 0.00104673 0)
(63.8219 0.00104725 0)
(63.8211 0.00106542 0)
(63.8202 0.00107026 0)
(63.8195 0.00105723 0)
(63.8188 0.0010242 0)
(63.8181 0.000979371 0)
(63.8175 0.000961475 0)
(63.8168 0.000954054 0)
(63.8161 0.000895404 0)
(63.8155 0.000764044 0)
(63.8149 0.000642426 0)
(63.8145 0.000649663 0)
(63.8138 0.000770739 0)
(63.8129 0.000907029 0)
(63.8121 0.0010131 0)
(63.8112 0.0010765 0)
(63.8105 0.00109398 0)
(63.8098 0.00106686 0)
(63.8091 0.00101465 0)
(63.8085 0.000984898 0)
(63.8078 0.000974037 0)
(63.8071 0.000926242 0)
(63.8065 0.000853495 0)
(63.8059 0.000805008 0)
(63.8052 0.00078946 0)
(63.8046 0.000790807 0)
(63.804 0.000801154 0)
(63.8033 0.000841694 0)
(63.8026 0.000898519 0)
(63.8018 0.000920543 0)
(63.8011 0.0009217 0)
(63.8005 0.000943648 0)
(63.7998 0.000973022 0)
(63.7991 0.000977767 0)
(63.7985 0.000959272 0)
(63.7979 0.000945195 0)
(63.7972 0.00095346 0)
(63.7966 0.000973849 0)
(63.7959 0.000982403 0)
(63.7952 0.000968248 0)
(63.7946 0.000939042 0)
(63.7939 0.000915047 0)
(63.7932 0.000914308 0)
(63.7925 0.000936736 0)
(63.7918 0.000969393 0)
(63.791 0.000986174 0)
(63.7903 0.00096946 0)
(63.7897 0.000941965 0)
(63.7891 0.000943592 0)
(63.7885 0.00098405 0)
(63.7878 0.00103658 0)
(63.7871 0.00107535 0)
(63.7864 0.0010909 0)
(63.7857 0.00107541 0)
(63.7849 0.00103055 0)
(63.7842 0.000982922 0)
(63.7836 0.000965199 0)
(63.7829 0.000970733 0)
(63.7821 0.000965753 0)
(63.7814 0.000946703 0)
(63.7808 0.000934381 0)
(63.78 0.000941444 0)
(63.7793 0.000970768 0)
(63.7786 0.00100687 0)
(63.7779 0.00101818 0)
(63.7772 0.000991082 0)
(63.7766 0.000940395 0)
(63.776 0.000896279 0)
(63.7754 0.000893359 0)
(63.7748 0.000922037 0)
(63.7741 0.000927463 0)
(63.7733 0.000900531 0)
(63.7726 0.00087848 0)
(63.7719 0.000877519 0)
(63.7712 0.000895825 0)
(63.7706 0.000923195 0)
(63.7699 0.000941285 0)
(63.7692 0.000939651 0)
(63.7686 0.000918512 0)
(63.7679 0.000893932 0)
(63.7672 0.000889036 0)
(63.7666 0.000900066 0)
(63.766 0.000907779 0)
(63.7654 0.000910267 0)
(63.7648 0.000907802 0)
(63.7642 0.000898535 0)
(63.7635 0.000904047 0)
(63.7628 0.000938576 0)
(63.762 0.000973166 0)
(63.7612 0.000982698 0)
(63.7605 0.00097864 0)
(63.7598 0.000976219 0)
(63.7591 0.000981993 0)
(63.7586 0.000996156 0)
(63.7579 0.000999713 0)
(63.7573 0.000972083 0)
(63.7566 0.000924104 0)
(63.756 0.000892606 0)
(63.7553 0.000905848 0)
(63.7546 0.000954328 0)
(63.7539 0.000995017 0)
(63.7532 0.000994134 0)
(63.7525 0.000961203 0)
(63.7519 0.000935876 0)
(63.7513 0.000945291 0)
(63.7506 0.000987186 0)
(63.7499 0.00104309 0)
(63.7491 0.00107776 0)
(63.7484 0.00105569 0)
(63.7477 0.000981624 0)
(63.7471 0.000903061 0)
(63.7465 0.000867868 0)
(63.7458 0.000884847 0)
(63.7452 0.000929815 0)
(63.7445 0.000969598 0)
(63.7438 0.000981549 0)
(63.7431 0.000969857 0)
(63.7425 0.000953384 0)
(63.7418 0.000946935 0)
(63.7411 0.000950829 0)
(63.7404 0.000951692 0)
(63.7397 0.000950418 0)
(63.739 0.00097163 0)
(63.7383 0.00102337 0)
(63.7376 0.00106781 0)
(63.7368 0.00106244 0)
(63.7362 0.0010086 0)
(63.7355 0.000929914 0)
(63.7349 0.00085295 0)
(63.7343 0.000819612 0)
(63.7337 0.000845622 0)
(63.733 0.000885502 0)
(63.7323 0.000901011 0)
(63.7317 0.000904373 0)
(63.731 0.000916571 0)
(63.7304 0.000946719 0)
(63.7297 0.00098977 0)
(63.729 0.00102623 0)
(63.7283 0.00103611 0)
(63.7275 0.00100913 0)
(63.7268 0.000961077 0)
(63.7262 0.000930627 0)
(63.7256 0.000934533 0)
(63.7249 0.000943045 0)
(63.7243 0.000923456 0)
(63.7236 0.000882805 0)
(63.7229 0.000844625 0)
(63.7223 0.000827619 0)
(63.7217 0.000848131 0)
(63.721 0.000901939 0)
(63.7203 0.000950294 0)
(63.7196 0.000948947 0)
(63.719 0.000902433 0)
(63.7183 0.000862716 0)
(63.7177 0.000868271 0)
(63.717 0.000914788 0)
(63.7163 0.00097071 0)
(63.7155 0.00100384 0)
(63.7148 0.0010015 0)
(63.7141 0.000973134 0)
(63.7134 0.000948274 0)
(63.7128 0.000952204 0)
(63.7121 0.000973834 0)
(63.7113 0.000986391 0)
(63.7106 0.000982273 0)
(63.7099 0.000972 0)
(63.7092 0.000971207 0)
(63.7086 0.00097618 0)
(63.7079 0.000965393 0)
(63.7073 0.000941069 0)
(63.7067 0.00092046 0)
(63.7061 0.000908098 0)
(63.7054 0.00092119 0)
(63.7048 0.000978386 0)
(63.7041 0.0010468 0)
(63.7033 0.00107098 0)
(63.7026 0.00105109 0)
(63.702 0.00102706 0)
(63.7013 0.00101631 0)
(63.7006 0.00102435 0)
(63.6999 0.00105578 0)
(63.6991 0.00108826 0)
(63.6984 0.00109527 0)
(63.6976 0.00107516 0)
(63.6969 0.00104055 0)
(63.6962 0.0010134 0)
(63.6956 0.00100887 0)
(63.6949 0.00101642 0)
(63.6942 0.00102117 0)
(63.6934 0.00102398 0)
(63.6927 0.00103047 0)
(63.6921 0.00104517 0)
(63.6914 0.00106896 0)
(63.6907 0.00108097 0)
(63.6899 0.00105791 0)
(63.6893 0.00101832 0)
(63.6886 0.000998417 0)
(63.6879 0.00100722 0)
(63.6872 0.0010347 0)
(63.6865 0.00106209 0)
(63.6858 0.00106941 0)
(63.6851 0.00105235 0)
(63.6845 0.00101947 0)
(63.6838 0.000986836 0)
(63.6831 0.000973988 0)
(63.6825 0.000990728 0)
(63.6818 0.00102682 0)
(63.6811 0.00105754 0)
(63.6803 0.00106454 0)
(63.6796 0.00104596 0)
(63.679 0.0010172 0)
(63.6783 0.000997952 0)
(63.6777 0.000988183 0)
(63.677 0.000983977 0)
(63.6763 0.000996376 0)
(63.6756 0.00100574 0)
(63.675 0.00103054 0)
(63.674 0.000973085 0)
(50.5229 0.000101205 0)
(85.4058 0.000409667 0)
(73.2353 0.000598781 0)
(60.5983 0.000584838 0)
(59.8581 0.000522817 0)
(63.317 0.000509845 0)
(64.8259 0.000584579 0)
(64.3753 0.000605423 0)
(63.7596 0.000538662 0)
(63.6583 0.000472951 0)
(63.8016 0.000449617 0)
(63.8869 0.000455348 0)
(63.8776 0.000435618 0)
(63.8492 0.000434828 0)
(63.8414 0.000474917 0)
(63.8471 0.000512249 0)
(63.852 0.00053916 0)
(63.8524 0.000560202 0)
(63.8514 0.000562869 0)
(63.8512 0.00055943 0)
(63.8517 0.00055462 0)
(63.852 0.000530254 0)
(63.8525 0.000491528 0)
(63.8527 0.000465859 0)
(63.8531 0.000479542 0)
(63.8533 0.000498068 0)
(63.8536 0.000498038 0)
(63.854 0.000462988 0)
(63.8543 0.000394335 0)
(63.8549 0.000364547 0)
(63.8557 0.000416778 0)
(63.8561 0.000513744 0)
(63.8565 0.000577738 0)
(63.8569 0.000572008 0)
(63.8574 0.000516023 0)
(63.8579 0.000451948 0)
(63.8584 0.000405368 0)
(63.8587 0.000372771 0)
(63.859 0.000384047 0)
(63.8593 0.000428308 0)
(63.8597 0.000448135 0)
(63.8602 0.000448497 0)
(63.8602 0.000463312 0)
(63.8604 0.000522515 0)
(63.8608 0.000605661 0)
(63.8611 0.000631594 0)
(63.8616 0.000581159 0)
(63.8622 0.000503339 0)
(63.8628 0.000432059 0)
(63.8632 0.00037976 0)
(63.8635 0.000340426 0)
(63.8639 0.000338495 0)
(63.8643 0.000399554 0)
(63.8646 0.000452064 0)
(63.8649 0.000451371 0)
(63.8653 0.000439807 0)
(63.8656 0.000431265 0)
(63.866 0.000432097 0)
(63.8663 0.000452091 0)
(63.8666 0.00049113 0)
(63.867 0.000531546 0)
(63.8674 0.000524322 0)
(63.8677 0.00047785 0)
(63.868 0.000439631 0)
(63.8683 0.000405625 0)
(63.8687 0.000360974 0)
(63.869 0.000312077 0)
(63.8695 0.000275201 0)
(63.8699 0.00027583 0)
(63.8703 0.000312315 0)
(63.8706 0.000355335 0)
(63.871 0.000394711 0)
(63.8714 0.000429912 0)
(63.8718 0.000457979 0)
(63.8722 0.000474865 0)
(63.8725 0.000469506 0)
(63.8729 0.000451249 0)
(63.8733 0.00042743 0)
(63.8737 0.000386306 0)
(63.874 0.000336193 0)
(63.8743 0.000302317 0)
(63.8746 0.000298614 0)
(63.8751 0.000308845 0)
(63.8755 0.000320364 0)
(63.8759 0.000347436 0)
(63.8763 0.000381537 0)
(63.8767 0.000393562 0)
(63.877 0.000383316 0)
(63.8774 0.000385967 0)
(63.8779 0.000418474 0)
(63.8784 0.000450585 0)
(63.8787 0.000467167 0)
(63.8791 0.00047651 0)
(63.8794 0.000467482 0)
(63.8797 0.000440059 0)
(63.8801 0.000412568 0)
(63.8805 0.000384498 0)
(63.8809 0.000353655 0)
(63.8813 0.000326005 0)
(63.8815 0.000301588 0)
(63.8818 0.000312294 0)
(63.8822 0.000385117 0)
(63.8826 0.000465942 0)
(63.8829 0.00050735 0)
(63.8834 0.000519888 0)
(63.8837 0.00050493 0)
(63.884 0.000475636 0)
(63.8844 0.000465912 0)
(63.8847 0.000471513 0)
(63.885 0.000464794 0)
(63.8853 0.000431954 0)
(63.8856 0.000380911 0)
(63.8859 0.000343516 0)
(63.8863 0.000331978 0)
(63.8866 0.000322533 0)
(63.887 0.000316077 0)
(63.8874 0.000332622 0)
(63.8877 0.000363695 0)
(63.8881 0.000409851 0)
(63.8885 0.000483147 0)
(63.889 0.000546888 0)
(63.8894 0.000550768 0)
(63.8898 0.000491424 0)
(63.8901 0.000393072 0)
(63.8904 0.000296526 0)
(63.8908 0.000255388 0)
(63.8912 0.000284853 0)
(63.8916 0.000345397 0)
(63.8919 0.000391611 0)
(63.8922 0.000403439 0)
(63.8925 0.000389908 0)
(63.8929 0.000382283 0)
(63.8934 0.000396359 0)
(63.8938 0.000412112 0)
(63.8942 0.000403984 0)
(63.8945 0.000372726 0)
(63.8948 0.000341228 0)
(63.8952 0.000332075 0)
(63.8956 0.000355588 0)
(63.8961 0.000398584 0)
(63.8965 0.000427698 0)
(63.8968 0.000418361 0)
(63.8971 0.000380582 0)
(63.8973 0.000350346 0)
(63.8977 0.000345202 0)
(63.898 0.00035666 0)
(63.8984 0.00037304 0)
(63.8988 0.00038251 0)
(63.8991 0.000386259 0)
(63.8994 0.000397084 0)
(63.8997 0.000422205 0)
(63.9001 0.000457138 0)
(63.9005 0.000475593 0)
(63.9009 0.000451122 0)
(63.9013 0.00040068 0)
(63.9017 0.000369131 0)
(63.9022 0.00036586 0)
(63.9027 0.000367879 0)
(63.9031 0.000374387 0)
(63.9035 0.000386378 0)
(63.9037 0.000381812 0)
(63.904 0.000375603 0)
(63.9043 0.000408035 0)
(63.9046 0.000455786 0)
(63.9049 0.000469123 0)
(63.9052 0.000444602 0)
(63.9055 0.000398637 0)
(63.9059 0.000353869 0)
(63.9063 0.00033695 0)
(63.9068 0.000355782 0)
(63.9073 0.000395901 0)
(63.9077 0.000418353 0)
(63.908 0.000392743 0)
(63.9083 0.000346725 0)
(63.9087 0.000334437 0)
(63.9091 0.000364862 0)
(63.9094 0.000408945 0)
(63.9098 0.000448748 0)
(63.9101 0.000466631 0)
(63.9103 0.000449131 0)
(63.9106 0.000419986 0)
(63.9109 0.000414534 0)
(63.9113 0.000439533 0)
(63.9118 0.000464638 0)
(63.9121 0.000458816 0)
(63.9124 0.00043268 0)
(63.9127 0.000414621 0)
(63.9131 0.000416861 0)
(63.9135 0.000432515 0)
(63.914 0.000445784 0)
(63.9144 0.000447036 0)
(63.9148 0.000430062 0)
(63.9151 0.00040373 0)
(63.9154 0.000399374 0)
(63.9159 0.000424576 0)
(63.9163 0.000449331 0)
(63.9167 0.000447607 0)
(63.917 0.000416276 0)
(63.9173 0.000377715 0)
(63.9176 0.000355063 0)
(63.9179 0.000341856 0)
(63.9182 0.000336619 0)
(63.9185 0.000347377 0)
(63.9188 0.000348547 0)
(63.9191 0.000326529 0)
(63.9194 0.000322422 0)
(63.9199 0.000354077 0)
(63.9203 0.000375879 0)
(63.9207 0.000364535 0)
(63.921 0.000349317 0)
(63.9214 0.000341748 0)
(63.9218 0.000339573 0)
(63.9222 0.000356669 0)
(63.9227 0.000383794 0)
(63.9231 0.00039725 0)
(63.9235 0.000393225 0)
(63.9239 0.000374915 0)
(63.9243 0.000355938 0)
(63.9247 0.000357416 0)
(63.9251 0.000375818 0)
(63.9255 0.000388151 0)
(63.9259 0.000383867 0)
(63.9263 0.000364892 0)
(63.9266 0.000338801 0)
(63.9271 0.000329823 0)
(63.9275 0.000348317 0)
(63.9279 0.000365427 0)
(63.9283 0.000366307 0)
(63.9286 0.000361367 0)
(63.929 0.000348207 0)
(63.9294 0.00033306 0)
(63.9298 0.000330124 0)
(63.9301 0.000333244 0)
(63.9305 0.000337472 0)
(63.9309 0.000343789 0)
(63.9312 0.000346412 0)
(63.9315 0.000343995 0)
(63.9318 0.000344046 0)
(63.9322 0.000350603 0)
(63.9326 0.000355037 0)
(63.933 0.000350038 0)
(63.9333 0.000338327 0)
(63.9337 0.000329641 0)
(63.934 0.000333829 0)
(63.9344 0.00033955 0)
(63.9347 0.000333255 0)
(63.9351 0.000335004 0)
(63.9356 0.000347596 0)
(63.9359 0.000388202 0)
(63.9365 0.000383318 0)
(50.5229 1.04991e-05 0)
(85.4055 -5.51494e-05 0)
(73.2339 -6.65832e-05 0)
(60.5963 -7.5648e-07 0)
(59.8558 2.34655e-05 0)
(63.3145 4.24914e-05 0)
(64.8235 8.83574e-05 0)
(64.3726 0.000110922 0)
(63.7566 8.30434e-05 0)
(63.6548 9.83842e-05 0)
(63.7977 0.000169344 0)
(63.8825 0.000187639 0)
(63.8727 0.00016078 0)
(63.8437 0.000137036 0)
(63.8356 0.000116505 0)
(63.8413 0.000124151 0)
(63.8457 0.000164075 0)
(63.8458 0.000171234 0)
(63.8449 0.000142583 0)
(63.8444 0.00013213 0)
(63.8447 0.000151149 0)
(63.8451 0.000159886 0)
(63.8452 0.00015093 0)
(63.8452 0.000133123 0)
(63.8453 0.000161377 0)
(63.8454 0.000236168 0)
(63.8453 0.000275163 0)
(63.8453 0.000247298 0)
(63.8453 0.000167222 0)
(63.8451 0.000106189 0)
(63.8449 0.000114325 0)
(63.8449 0.000180008 0)
(63.845 0.000224128 0)
(63.8451 0.000177356 0)
(63.8452 9.75974e-05 0)
(63.8453 8.52522e-05 0)
(63.8454 0.000156246 0)
(63.8453 0.000231482 0)
(63.8452 0.000232843 0)
(63.8453 0.000155876 0)
(63.8454 8.68253e-05 0)
(63.8456 0.000120713 0)
(63.8457 0.000207071 0)
(63.8457 0.000250571 0)
(63.8457 0.000243755 0)
(63.8459 0.000203057 0)
(63.8459 0.000132287 0)
(63.846 6.67058e-05 0)
(63.846 6.56341e-05 0)
(63.8459 0.000127917 0)
(63.8459 0.000185182 0)
(63.8458 0.000194046 0)
(63.8457 0.000181351 0)
(63.8458 0.000172151 0)
(63.8459 0.000156584 0)
(63.846 0.000161611 0)
(63.8461 0.000190658 0)
(63.8461 0.000206575 0)
(63.8461 0.000203096 0)
(63.8462 0.000192756 0)
(63.8463 0.000207339 0)
(63.8464 0.000247712 0)
(63.8464 0.000265193 0)
(63.8465 0.000239857 0)
(63.8466 0.000198158 0)
(63.8466 0.000183757 0)
(63.8466 0.000206274 0)
(63.8465 0.000228607 0)
(63.8464 0.00023225 0)
(63.8462 0.000217772 0)
(63.8462 0.000183541 0)
(63.8462 0.000162854 0)
(63.8462 0.000181351 0)
(63.8462 0.000223468 0)
(63.8462 0.000261195 0)
(63.8462 0.000251147 0)
(63.8462 0.000199571 0)
(63.8463 0.000171629 0)
(63.8463 0.00019514 0)
(63.8464 0.000250411 0)
(63.8464 0.000297049 0)
(63.8464 0.00031163 0)
(63.8464 0.00029959 0)
(63.8463 0.000268983 0)
(63.8462 0.00024546 0)
(63.8463 0.000253942 0)
(63.8464 0.000273306 0)
(63.8464 0.000253338 0)
(63.8463 0.000193105 0)
(63.8464 0.000152877 0)
(63.8464 0.000155133 0)
(63.8465 0.000184535 0)
(63.8466 0.000236937 0)
(63.8467 0.000281645 0)
(63.8467 0.00028134 0)
(63.8467 0.000243886 0)
(63.8467 0.000200766 0)
(63.8468 0.000185114 0)
(63.8469 0.000212404 0)
(63.847 0.000244694 0)
(63.8469 0.000248113 0)
(63.8469 0.000252728 0)
(63.8469 0.000265298 0)
(63.8469 0.000254968 0)
(63.8471 0.000229901 0)
(63.8473 0.000195701 0)
(63.8473 0.000151127 0)
(63.8475 0.000139976 0)
(63.8476 0.000190829 0)
(63.8477 0.000277198 0)
(63.8477 0.000348338 0)
(63.8477 0.000347556 0)
(63.8476 0.000271789 0)
(63.8476 0.00018929 0)
(63.8477 0.000140722 0)
(63.8476 0.000123569 0)
(63.8477 0.000147425 0)
(63.8476 0.00019025 0)
(63.8475 0.000201331 0)
(63.8475 0.00019271 0)
(63.8476 0.000204722 0)
(63.8477 0.000230387 0)
(63.8478 0.000249754 0)
(63.8479 0.000249557 0)
(63.8478 0.000216424 0)
(63.8478 0.000172965 0)
(63.8477 0.000164684 0)
(63.8476 0.000202166 0)
(63.8477 0.000260885 0)
(63.8477 0.000300261 0)
(63.8477 0.000280081 0)
(63.8477 0.000208779 0)
(63.8477 0.000146932 0)
(63.8478 0.000142298 0)
(63.8479 0.000191311 0)
(63.848 0.000254091 0)
(63.848 0.000290835 0)
(63.848 0.000284927 0)
(63.8479 0.000251307 0)
(63.8479 0.000231212 0)
(63.8479 0.00025173 0)
(63.848 0.000289635 0)
(63.8481 0.000299681 0)
(63.8482 0.000276624 0)
(63.8483 0.000249189 0)
(63.8483 0.000238055 0)
(63.8484 0.000253808 0)
(63.8484 0.000282816 0)
(63.8484 0.000293799 0)
(63.8484 0.000277217 0)
(63.8484 0.000245652 0)
(63.8485 0.000225353 0)
(63.8485 0.000233169 0)
(63.8486 0.000239528 0)
(63.8486 0.000202276 0)
(63.8486 0.000136651 0)
(63.8486 9.62469e-05 0)
(63.8486 9.97464e-05 0)
(63.8486 0.000141421 0)
(63.8487 0.000218468 0)
(63.8487 0.000287151 0)
(63.8487 0.000292626 0)
(63.8487 0.000258313 0)
(63.8488 0.000239217 0)
(63.8489 0.000242522 0)
(63.849 0.000255931 0)
(63.8491 0.000263728 0)
(63.849 0.000245056 0)
(63.849 0.000199667 0)
(63.8489 0.000154676 0)
(63.849 0.000153601 0)
(63.8491 0.000209319 0)
(63.8491 0.000269455 0)
(63.8491 0.000275083 0)
(63.849 0.000229269 0)
(63.849 0.000181475 0)
(63.849 0.000171065 0)
(63.849 0.000208369 0)
(63.8492 0.000267328 0)
(63.8493 0.000294056 0)
(63.8493 0.000258913 0)
(63.8494 0.000185254 0)
(63.8494 0.000136929 0)
(63.8495 0.000155606 0)
(63.8496 0.000206547 0)
(63.8497 0.000235303 0)
(63.8497 0.00022885 0)
(63.8498 0.000203055 0)
(63.8498 0.000178611 0)
(63.8498 0.000171684 0)
(63.8499 0.000192671 0)
(63.85 0.00022695 0)
(63.8501 0.000238203 0)
(63.8501 0.000222589 0)
(63.8501 0.000211421 0)
(63.8502 0.000223674 0)
(63.8502 0.000256723 0)
(63.8504 0.000288736 0)
(63.8504 0.000298011 0)
(63.8505 0.000296703 0)
(63.8505 0.000299074 0)
(63.8505 0.000305339 0)
(63.8505 0.000333202 0)
(63.8506 0.000370746 0)
(63.8506 0.000355654 0)
(63.8505 0.000282393 0)
(63.8506 0.000229124 0)
(63.8506 0.000235463 0)
(63.8506 0.000265194 0)
(63.8506 0.00029139 0)
(63.8507 0.000302434 0)
(63.8506 0.000279476 0)
(63.8506 0.000239069 0)
(63.8506 0.000217082 0)
(63.8506 0.000222236 0)
(63.8506 0.000244793 0)
(63.8507 0.000264274 0)
(63.8507 0.000261171 0)
(63.8507 0.000244468 0)
(63.8507 0.000237569 0)
(63.8507 0.000243201 0)
(63.8507 0.000251327 0)
(63.8508 0.000255307 0)
(63.8508 0.000241175 0)
(63.8507 0.000211596 0)
(63.8507 0.000204379 0)
(63.8507 0.000233182 0)
(63.8507 0.000273421 0)
(63.8508 0.000307596 0)
(63.8508 0.00031907 0)
(63.8507 0.000301726 0)
(63.8507 0.00027926 0)
(63.8507 0.000271388 0)
(63.8507 0.000286008 0)
(63.8508 0.00032016 0)
(63.8508 0.000348574 0)
(63.8508 0.000347654 0)
(63.8508 0.000321886 0)
(63.8508 0.000298763 0)
(63.8509 0.000291998 0)
(63.8509 0.000290819 0)
(63.8509 0.000286199 0)
(63.8509 0.000277443 0)
(63.851 0.000275205 0)
(63.851 0.000284301 0)
(63.851 0.000281052 0)
(63.851 0.000253794 0)
(63.8511 0.000229097 0)
(63.8511 0.000215668 0)
(63.8512 0.000236122 0)
(50.5231 -1.36452e-05 0)
(85.4056 4.14954e-05 0)
(73.2339 0.00019075 0)
(60.5964 0.000301645 0)
(59.8557 0.000305194 0)
(63.3143 0.000269051 0)
(64.823 0.000271199 0)
(64.3721 0.000332099 0)
(63.7562 0.000393817 0)
(63.6543 0.000439127 0)
(63.7976 0.000421858 0)
(63.8826 0.000357136 0)
(63.8728 0.000321994 0)
(63.8442 0.000346555 0)
(63.836 0.000363483 0)
(63.8412 0.0003321 0)
(63.8458 0.000292783 0)
(63.846 0.000243508 0)
(63.8447 0.00024567 0)
(63.8442 0.000320962 0)
(63.8443 0.000371171 0)
(63.8444 0.000354377 0)
(63.8446 0.00034795 0)
(63.8446 0.000363892 0)
(63.8444 0.000381527 0)
(63.8444 0.00038749 0)
(63.8445 0.0003645 0)
(63.8449 0.000363831 0)
(63.845 0.000383428 0)
(63.8451 0.000412752 0)
(63.8451 0.000436353 0)
(63.845 0.000422672 0)
(63.8451 0.000380565 0)
(63.8453 0.000324367 0)
(63.8453 0.000301965 0)
(63.8452 0.000350344 0)
(63.8452 0.000427601 0)
(63.8452 0.000472205 0)
(63.8453 0.000434827 0)
(63.8454 0.000335173 0)
(63.8453 0.00027629 0)
(63.8452 0.000306489 0)
(63.8451 0.000359629 0)
(63.845 0.000369941 0)
(63.845 0.000342405 0)
(63.8451 0.00033028 0)
(63.8452 0.000349587 0)
(63.8452 0.000375756 0)
(63.8452 0.000422975 0)
(63.8454 0.00047908 0)
(63.8455 0.000513598 0)
(63.8455 0.000510087 0)
(63.8455 0.000453303 0)
(63.8456 0.000379596 0)
(63.8456 0.000310699 0)
(63.8456 0.000270062 0)
(63.8456 0.00029303 0)
(63.8456 0.000326055 0)
(63.8455 0.000318382 0)
(63.8455 0.000288361 0)
(63.8455 0.000289047 0)
(63.8455 0.000345495 0)
(63.8455 0.000389969 0)
(63.8455 0.000370126 0)
(63.8456 0.000329057 0)
(63.8456 0.000325768 0)
(63.8457 0.000378896 0)
(63.8458 0.000448119 0)
(63.8458 0.000476909 0)
(63.8459 0.000460207 0)
(63.8461 0.000419643 0)
(63.846 0.000389597 0)
(63.8461 0.000391726 0)
(63.8461 0.000411509 0)
(63.8461 0.00044109 0)
(63.8462 0.000446632 0)
(63.8462 0.000397104 0)
(63.8462 0.000328066 0)
(63.8463 0.000275356 0)
(63.8463 0.000259036 0)
(63.8465 0.000278067 0)
(63.8466 0.00030655 0)
(63.8467 0.000334519 0)
(63.8468 0.000342481 0)
(63.8469 0.00032306 0)
(63.8469 0.000314957 0)
(63.8469 0.000340766 0)
(63.847 0.000362609 0)
(63.847 0.000341132 0)
(63.847 0.000308767 0)
(63.847 0.000303522 0)
(63.8469 0.000313614 0)
(63.8469 0.000334485 0)
(63.8469 0.000361177 0)
(63.847 0.000368656 0)
(63.847 0.000345751 0)
(63.8471 0.000297268 0)
(63.8471 0.000246785 0)
(63.8471 0.000242599 0)
(63.8472 0.000291644 0)
(63.8472 0.000333603 0)
(63.8472 0.000340483 0)
(63.8473 0.000324226 0)
(63.8473 0.000280798 0)
(63.8473 0.00023879 0)
(63.8474 0.000236172 0)
(63.8473 0.000255647 0)
(63.8472 0.000277216 0)
(63.8472 0.000309113 0)
(63.8472 0.000357814 0)
(63.8473 0.000416966 0)
(63.8474 0.000451401 0)
(63.8474 0.000423415 0)
(63.8474 0.000363313 0)
(63.8474 0.000324123 0)
(63.8474 0.000312446 0)
(63.8475 0.000338933 0)
(63.8476 0.000401807 0)
(63.8476 0.00043449 0)
(63.8475 0.00040464 0)
(63.8475 0.000354614 0)
(63.8474 0.00031396 0)
(63.8475 0.000302132 0)
(63.8476 0.000339478 0)
(63.8478 0.000398148 0)
(63.8478 0.000435313 0)
(63.8479 0.000440899 0)
(63.8479 0.000416733 0)
(63.8479 0.000376312 0)
(63.848 0.00035262 0)
(63.8481 0.000351172 0)
(63.8481 0.000340086 0)
(63.8482 0.000302306 0)
(63.8482 0.000251585 0)
(63.8482 0.000218828 0)
(63.8483 0.000233337 0)
(63.8484 0.000293775 0)
(63.8484 0.000362258 0)
(63.8485 0.00039342 0)
(63.8485 0.000373068 0)
(63.8485 0.000325693 0)
(63.8485 0.000282181 0)
(63.8486 0.000247656 0)
(63.8486 0.000220512 0)
(63.8486 0.000213837 0)
(63.8486 0.000231063 0)
(63.8486 0.000269493 0)
(63.8487 0.000323323 0)
(63.8488 0.000369747 0)
(63.8488 0.000391321 0)
(63.8488 0.00038012 0)
(63.8488 0.000341584 0)
(63.8488 0.000314052 0)
(63.8488 0.000326189 0)
(63.8489 0.000352198 0)
(63.8489 0.000362916 0)
(63.8489 0.000369396 0)
(63.8489 0.000369015 0)
(63.8489 0.000345102 0)
(63.8489 0.00032984 0)
(63.8489 0.000349714 0)
(63.8489 0.000365092 0)
(63.8489 0.000351082 0)
(63.8489 0.00032951 0)
(63.8488 0.000306475 0)
(63.8489 0.000287002 0)
(63.8489 0.000292157 0)
(63.8491 0.000320381 0)
(63.8492 0.000347923 0)
(63.8491 0.000348745 0)
(63.8491 0.000324552 0)
(63.8491 0.000315929 0)
(63.8492 0.000349472 0)
(63.8493 0.000398265 0)
(63.8494 0.000421108 0)
(63.8494 0.000405813 0)
(63.8493 0.000356371 0)
(63.8492 0.000294781 0)
(63.8493 0.000266 0)
(63.8493 0.000286641 0)
(63.8494 0.000324686 0)
(63.8494 0.000334997 0)
(63.8494 0.00030888 0)
(63.8494 0.000282739 0)
(63.8494 0.00027815 0)
(63.8494 0.000285254 0)
(63.8495 0.000295294 0)
(63.8495 0.000302934 0)
(63.8495 0.000302179 0)
(63.8494 0.000290973 0)
(63.8494 0.000280679 0)
(63.8495 0.000287617 0)
(63.8496 0.000305312 0)
(63.8496 0.00031376 0)
(63.8496 0.000306791 0)
(63.8495 0.000291877 0)
(63.8495 0.000284792 0)
(63.8496 0.000293602 0)
(63.8496 0.000306727 0)
(63.8496 0.000320549 0)
(63.8497 0.000329087 0)
(63.8497 0.000307531 0)
(63.8497 0.000275087 0)
(63.8498 0.000284641 0)
(63.8499 0.000320623 0)
(63.8499 0.000324954 0)
(63.8499 0.000304899 0)
(63.85 0.000300473 0)
(63.85 0.000305214 0)
(63.8501 0.000312344 0)
(63.8502 0.00033363 0)
(63.8502 0.00034939 0)
(63.8503 0.000344484 0)
(63.8503 0.000334902 0)
(63.8503 0.000329898 0)
(63.8504 0.00033467 0)
(63.8504 0.000351284 0)
(63.8505 0.000361809 0)
(63.8505 0.000352344 0)
(63.8505 0.000333974 0)
(63.8505 0.0003203 0)
(63.8506 0.000316941 0)
(63.8506 0.000334786 0)
(63.8507 0.00036711 0)
(63.8507 0.000381498 0)
(63.8508 0.00037188 0)
(63.8508 0.000353937 0)
(63.8508 0.000330116 0)
(63.8508 0.000318628 0)
(63.8509 0.000335687 0)
(63.8509 0.000358592 0)
(63.851 0.000366928 0)
(63.851 0.000359074 0)
(63.851 0.000337966 0)
(63.851 0.000315663 0)
(63.8511 0.000304511 0)
(63.8512 0.000301161 0)
(63.8512 0.000293636 0)
(63.8513 0.000287485 0)
(63.8513 0.000292095 0)
(63.8514 0.000299618 0)
(63.8515 0.000300213 0)
(63.8515 0.000284791 0)
(63.8515 0.000261029 0)
(63.8516 0.00025413 0)
(63.8517 0.000265169 0)
(63.8517 0.000274086 0)
(63.8517 0.000274789 0)
(63.8517 0.000265809 0)
(63.8518 0.000258757 0)
(50.523 1.1693e-05 0)
(85.4056 4.93319e-05 0)
(73.2341 9.39072e-05 0)
(60.5968 0.000146117 0)
(59.8561 0.000177392 0)
(63.3147 0.000201978 0)
(64.8235 0.000164292 0)
(64.3726 0.000112323 0)
(63.7565 0.000128815 0)
(63.6549 0.000145995 0)
(63.7982 0.000106775 0)
(63.8829 7.40415e-05 0)
(63.873 9.35625e-05 0)
(63.8439 0.000139767 0)
(63.8359 0.00018132 0)
(63.8416 0.00020208 0)
(63.846 0.00022371 0)
(63.8459 0.000239264 0)
(63.8446 0.000221544 0)
(63.844 0.000176098 0)
(63.8446 0.000145282 0)
(63.845 0.000129046 0)
(63.8449 0.000141594 0)
(63.8449 0.000182123 0)
(63.8448 0.000176832 0)
(63.8451 0.000121551 0)
(63.8451 6.11159e-05 0)
(63.845 5.75833e-05 0)
(63.845 0.000114693 0)
(63.8448 0.000172319 0)
(63.8447 0.00018142 0)
(63.8449 0.0001241 0)
(63.845 6.0748e-05 0)
(63.845 6.70899e-05 0)
(63.8449 0.000150846 0)
(63.8448 0.000212117 0)
(63.8448 0.000184775 0)
(63.8449 0.000131511 0)
(63.8451 0.000109731 0)
(63.8452 0.00014099 0)
(63.8451 0.000203946 0)
(63.8452 0.000266407 0)
(63.8453 0.000321251 0)
(63.8454 0.000313596 0)
(63.8455 0.000223878 0)
(63.8455 0.000128696 0)
(63.8455 7.57582e-05 0)
(63.8455 4.42189e-05 0)
(63.8454 1.50422e-05 0)
(63.8455 -5.26884e-06 0)
(63.8455 1.03917e-05 0)
(63.8456 5.06542e-05 0)
(63.8457 7.95925e-05 0)
(63.8458 0.000131527 0)
(63.8459 0.000198919 0)
(63.8458 0.000221376 0)
(63.8457 0.000212269 0)
(63.8459 0.000207899 0)
(63.846 0.000230959 0)
(63.846 0.000270752 0)
(63.8459 0.00028351 0)
(63.8459 0.000258425 0)
(63.8459 0.000210017 0)
(63.846 0.000158306 0)
(63.846 0.000121583 0)
(63.846 0.000100881 0)
(63.846 9.52712e-05 0)
(63.8461 9.5477e-05 0)
(63.8461 8.42695e-05 0)
(63.8462 7.87957e-05 0)
(63.8463 0.000100434 0)
(63.8463 0.000138781 0)
(63.8464 0.000172792 0)
(63.8464 0.000178673 0)
(63.8464 0.000169251 0)
(63.8466 0.000160721 0)
(63.8467 0.00014044 0)
(63.8467 0.000118363 0)
(63.8468 9.99349e-05 0)
(63.8467 8.98752e-05 0)
(63.8467 9.31784e-05 0)
(63.8466 9.83208e-05 0)
(63.8466 0.00012693 0)
(63.8466 0.000178251 0)
(63.8465 0.000206764 0)
(63.8465 0.000203442 0)
(63.8465 0.000197144 0)
(63.8465 0.000206641 0)
(63.8466 0.00021142 0)
(63.8466 0.000203542 0)
(63.8466 0.000211786 0)
(63.8467 0.000236509 0)
(63.8467 0.000255881 0)
(63.8467 0.000252823 0)
(63.8467 0.000216125 0)
(63.8468 0.000158911 0)
(63.8469 0.000104877 0)
(63.8469 6.96218e-05 0)
(63.8468 7.85315e-05 0)
(63.8468 0.000147363 0)
(63.8468 0.000225935 0)
(63.8468 0.00025781 0)
(63.8469 0.000251542 0)
(63.8469 0.00022202 0)
(63.8469 0.000185287 0)
(63.847 0.000182988 0)
(63.8471 0.000220934 0)
(63.8471 0.000261124 0)
(63.8471 0.000274285 0)
(63.847 0.00025232 0)
(63.847 0.000210961 0)
(63.8471 0.000178362 0)
(63.8472 0.000151693 0)
(63.8473 0.000122852 0)
(63.8474 0.000111638 0)
(63.8474 0.000111413 0)
(63.8473 0.00011289 0)
(63.8474 0.000150053 0)
(63.8475 0.000217777 0)
(63.8476 0.000261589 0)
(63.8477 0.000260618 0)
(63.8477 0.00021449 0)
(63.8476 0.000132941 0)
(63.8476 6.43232e-05 0)
(63.8477 4.39256e-05 0)
(63.8477 6.09545e-05 0)
(63.8478 9.78179e-05 0)
(63.8479 0.000134463 0)
(63.8479 0.00014701 0)
(63.8479 0.000142048 0)
(63.848 0.000138951 0)
(63.848 0.000133133 0)
(63.8481 0.00012095 0)
(63.8482 0.000109667 0)
(63.8481 0.0001029 0)
(63.8481 0.000107777 0)
(63.8481 0.000134032 0)
(63.8481 0.000179782 0)
(63.8481 0.000223358 0)
(63.8481 0.000237166 0)
(63.8481 0.000218284 0)
(63.8481 0.000197502 0)
(63.8482 0.000196624 0)
(63.8482 0.000204375 0)
(63.8482 0.000211949 0)
(63.8482 0.000213988 0)
(63.8482 0.000204388 0)
(63.8481 0.000197959 0)
(63.8482 0.000209515 0)
(63.8482 0.00023756 0)
(63.8483 0.000263316 0)
(63.8484 0.000253208 0)
(63.8484 0.000203879 0)
(63.8484 0.000157782 0)
(63.8485 0.000138213 0)
(63.8486 0.000130221 0)
(63.8487 0.000136483 0)
(63.8488 0.000160892 0)
(63.8488 0.000173834 0)
(63.8488 0.00017467 0)
(63.8489 0.000200585 0)
(63.849 0.000245627 0)
(63.849 0.000272219 0)
(63.8491 0.000272347 0)
(63.8492 0.00024709 0)
(63.8491 0.000196459 0)
(63.8491 0.000143301 0)
(63.8491 0.00011523 0)
(63.8492 0.000124915 0)
(63.8493 0.00015422 0)
(63.8493 0.000162601 0)
(63.8493 0.000143343 0)
(63.8493 0.000131091 0)
(63.8493 0.000143043 0)
(63.8494 0.000167981 0)
(63.8495 0.000201842 0)
(63.8497 0.000230071 0)
(63.8497 0.000225251 0)
(63.8497 0.000195778 0)
(63.8497 0.000173847 0)
(63.8497 0.000177425 0)
(63.8498 0.00019489 0)
(63.8499 0.000194999 0)
(63.8499 0.000178376 0)
(63.8499 0.000172409 0)
(63.8499 0.000182107 0)
(63.85 0.000195783 0)
(63.85 0.000206984 0)
(63.85 0.000212325 0)
(63.8501 0.000204683 0)
(63.85 0.000186248 0)
(63.85 0.000178144 0)
(63.8501 0.00019305 0)
(63.8501 0.000217789 0)
(63.8502 0.000234327 0)
(63.8502 0.000234883 0)
(63.8502 0.000224369 0)
(63.8502 0.000216421 0)
(63.8502 0.000213564 0)
(63.8502 0.00021847 0)
(63.8503 0.000239787 0)
(63.8503 0.000251498 0)
(63.8503 0.000226666 0)
(63.8503 0.000201914 0)
(63.8503 0.000214551 0)
(63.8504 0.000232811 0)
(63.8504 0.000224773 0)
(63.8504 0.000208496 0)
(63.8504 0.000190472 0)
(63.8504 0.000166232 0)
(63.8504 0.000158119 0)
(63.8505 0.000170107 0)
(63.8505 0.000182578 0)
(63.8506 0.000187753 0)
(63.8506 0.000179846 0)
(63.8506 0.000164888 0)
(63.8506 0.000163977 0)
(63.8507 0.000178536 0)
(63.8508 0.000191453 0)
(63.8508 0.00019469 0)
(63.8508 0.000187444 0)
(63.8508 0.000168782 0)
(63.8508 0.000153177 0)
(63.8509 0.000159082 0)
(63.8509 0.000175748 0)
(63.851 0.000188884 0)