/*--------------------------------*- C++ -*----------------------------------*\
| =========                 |                                                 |
| \\      /  F ield         | OpenFOAM: The Open Source CFD Toolbox           |
|  \\    /   O peration     | Version:  2406                                  |
|   \\  /    A nd           | Website:  www.openfoam.com                      |
|    \\/     M anipulation  |                                                 |
\*---------------------------------------------------------------------------*/
FoamFile
{
    version     2.0;
    format      ascii;
    arch        "LSB;label=32;scalar=64";
    class       surfaceScalarField;
    location    "0.3";
    object      phi;
}
// * * * * * * * * * * * * * * * * * * * * * * * * * * * * * * * * * * * * * //

dimensions      [0 3 -1 0 0 0 0];

oriented        oriented;

internalField   nonuniform List<scalar> 
4335
(
3.03967e-05
2.19385e-11
3.03967e-05
1.49448e-11
3.03967e-05
5.73014e-12
3.03967e-05
-2.87316e-12
3.03967e-05
-4.68989e-12
3.03967e-05
-1.65105e-11
3.03967e-05
-3.59722e-11
3.03967e-05
-3.10172e-11
3.03968e-05
-1.35722e-11
3.03968e-05
-1.31732e-11
3.03968e-05
-1.88593e-11
3.03968e-05
-1.84572e-11
3.03968e-05
-1.73402e-11
3.03968e-05
-1.53962e-11
3.03969e-05
-8.71712e-12
3.03969e-05
-2.18949e-12
3.03969e-05
4.92806e-12
3.03969e-05
1.22568e-11
3.03969e-05
1.60603e-11
3.03969e-05
1.64207e-11
3.03969e-05
1.31435e-11
3.03968e-05
6.42757e-12
3.03968e-05
2.51727e-15
3.03968e-05
-5.11111e-12
3.03968e-05
-1.00089e-11
3.03968e-05
-1.02208e-11
3.03968e-05
-2.78475e-12
3.03968e-05
4.803e-12
3.03968e-05
4.30129e-12
3.03968e-05
-1.90347e-12
3.03968e-05
-5.23571e-12
3.03968e-05
-4.43097e-12
3.03969e-05
-3.52274e-12
3.03969e-05
-4.56263e-12
3.03969e-05
-8.18208e-12
3.03969e-05
-1.31944e-11
3.03969e-05
-1.51771e-11
3.03969e-05
-1.16456e-11
3.03969e-05
-5.01324e-12
3.03969e-05
6.38791e-14
3.03969e-05
-3.43506e-13
3.03969e-05
-5.55333e-12
3.03969e-05
-8.76924e-12
3.03969e-05
-4.91485e-12
3.03969e-05
4.3319e-12
3.03969e-05
1.14821e-11
3.03969e-05
1.25431e-11
3.03969e-05
9.2046e-12
3.03969e-05
5.20551e-12
3.03969e-05
2.6192e-12
3.03969e-05
1.56569e-12
3.03969e-05
1.06353e-12
3.03969e-05
-6.61561e-13
3.03969e-05
-3.41928e-12
3.03969e-05
-5.11295e-12
3.03969e-05
-4.99651e-12
3.03969e-05
-5.60618e-12
3.0397e-05
-8.88667e-12
3.0397e-05
-1.44101e-11
3.0397e-05
-1.70971e-11
3.0397e-05
-1.31923e-11
3.0397e-05
-4.57961e-12
3.0397e-05
2.81821e-12
3.0397e-05
5.34732e-12
3.0397e-05
4.34053e-12
3.0397e-05
3.04404e-12
3.0397e-05
3.95373e-12
3.0397e-05
5.49799e-12
3.0397e-05
5.61523e-12
3.0397e-05
2.9462e-12
3.0397e-05
-7.4408e-13
3.0397e-05
-2.23409e-12
3.0397e-05
-3.55931e-13
3.0397e-05
2.44494e-12
3.0397e-05
2.27024e-12
3.0397e-05
-1.32227e-12
3.0397e-05
-4.77259e-12
3.0397e-05
-4.50761e-12
3.0397e-05
-1.00371e-12
3.0397e-05
1.98114e-12
3.0397e-05
1.24647e-12
3.0397e-05
-2.46217e-12
3.0397e-05
-5.29285e-12
3.0397e-05
-4.40577e-12
3.0397e-05
-1.0369e-12
3.0397e-05
1.06573e-12
3.0397e-05
-4.10689e-13
3.03969e-05
-3.19297e-12
3.03969e-05
-3.87665e-12
3.03969e-05
-1.1818e-12
3.03969e-05
2.88071e-12
3.03969e-05
4.53414e-12
3.03969e-05
3.04214e-12
3.03969e-05
1.40262e-12
3.03969e-05
2.82216e-12
3.03969e-05
7.07141e-12
3.03969e-05
1.05804e-11
3.03969e-05
1.04331e-11
3.03969e-05
6.90105e-12
3.03969e-05
3.96805e-12
3.03969e-05
4.13976e-12
3.03969e-05
6.53319e-12
3.03969e-05
7.33248e-12
3.03969e-05
4.37535e-12
3.03969e-05
-4.1449e-13
3.03969e-05
-2.82921e-12
3.03969e-05
-1.34135e-12
3.03968e-05
1.95154e-12
3.03968e-05
4.24299e-12
3.03968e-05
4.01494e-12
3.03968e-05
2.9753e-12
3.03968e-05
3.51332e-12
3.03968e-05
5.81509e-12
3.03968e-05
7.07851e-12
3.03968e-05
5.48109e-12
3.03968e-05
2.45365e-12
3.03968e-05
9.13641e-13
3.03968e-05
2.71031e-12
3.03968e-05
6.21018e-12
3.03968e-05
8.00334e-12
3.03968e-05
6.54962e-12
3.03968e-05
2.7082e-12
3.03968e-05
-1.34815e-12
3.03968e-05
-4.05808e-12
3.03968e-05
-4.42081e-12
3.03968e-05
-2.96865e-12
3.03968e-05
-2.3611e-12
3.03968e-05
-3.81641e-12
3.03968e-05
-4.44179e-12
3.03968e-05
-2.75819e-12
3.03968e-05
-1.15192e-12
3.03968e-05
-2.4321e-12
3.03968e-05
-5.44679e-12
3.03968e-05
-7.72295e-12
3.03968e-05
-7.32778e-12
3.03968e-05
-4.38189e-12
3.03968e-05
-7.83852e-13
3.03968e-05
1.79268e-12
3.03968e-05
2.16102e-12
3.03968e-05
1.0327e-12
3.03968e-05
-3.28741e-13
3.03968e-05
-2.648e-13
3.03968e-05
5.71768e-13
3.03968e-05
-1.69314e-12
3.03968e-05
-6.38523e-12
3.03968e-05
-7.10299e-12
3.03968e-05
-4.97246e-12
3.03968e-05
-2.815e-12
3.03968e-05
-1.75028e-12
-1.15682e-12
8.27587e-05
4.8155e-11
8.27587e-05
3.91578e-11
8.27586e-05
2.98387e-11
8.27586e-05
1.28404e-11
8.27586e-05
-5.26135e-12
8.27586e-05
-1.09072e-11
8.27586e-05
-8.90134e-12
8.27586e-05
-2.98445e-11
8.27586e-05
-4.66267e-11
8.27586e-05
-4.55327e-11
8.27586e-05
-3.23505e-11
8.27586e-05
-1.8739e-11
8.27586e-05
-9.12192e-12
8.27586e-05
-1.19185e-12
8.27586e-05
9.49683e-12
8.27586e-05
1.77819e-11
8.27586e-05
1.95351e-11
8.27586e-05
2.13523e-11
8.27586e-05
2.38445e-11
8.27586e-05
2.29116e-11
8.27586e-05
1.95984e-11
8.27585e-05
1.6268e-11
8.27585e-05
1.40113e-11
8.27585e-05
1.17146e-11
8.27585e-05
6.40453e-12
8.27585e-05
-8.65605e-13
8.27585e-05
-4.3606e-12
8.27585e-05
-1.5928e-12
8.27585e-05
3.51972e-12
8.27585e-05
6.55474e-12
8.27585e-05
6.92758e-12
8.27585e-05
3.97167e-12
8.27585e-05
-2.79602e-12
8.27585e-05
-8.63988e-12
8.27585e-05
-9.0489e-12
8.27585e-05
-6.67874e-12
8.27586e-05
-6.68099e-12
8.27586e-05
-1.0803e-11
8.27586e-05
-1.70185e-11
8.27586e-05
-2.07608e-11
8.27586e-05
-1.86114e-11
8.27586e-05
-1.32578e-11
8.27586e-05
-9.07725e-12
8.27586e-05
-5.53299e-12
8.27586e-05
7.01258e-13
8.27586e-05
9.17499e-12
8.27586e-05
1.56139e-11
8.27586e-05
1.76789e-11
8.27586e-05
1.59979e-11
8.27586e-05
1.23984e-11
8.27586e-05
8.30471e-12
8.27586e-05
4.95479e-12
8.27586e-05
2.3263e-12
8.27586e-05
-2.09164e-12
8.27586e-05
-9.03524e-12
8.27586e-05
-1.58074e-11
8.27586e-05
-1.85429e-11
8.27587e-05
-1.63395e-11
8.27587e-05
-1.34461e-11
8.27587e-05
-1.25458e-11
8.27587e-05
-1.16136e-11
8.27587e-05
-7.06617e-12
8.27587e-05
1.59859e-12
8.27587e-05
1.05143e-11
8.27587e-05
1.49826e-11
8.27587e-05
1.3306e-11
8.27587e-05
8.40608e-12
8.27587e-05
3.95048e-12
8.27587e-05
2.546e-12
8.27587e-05
2.41407e-12
8.27587e-05
5.3434e-14
8.27587e-05
-5.32193e-12
8.27587e-05
-9.92038e-12
8.27587e-05
-9.462e-12
8.27587e-05
-4.76153e-12
8.27587e-05
-9.2734e-13
8.27587e-05
-2.2549e-12
8.27587e-05
-7.161e-12
8.27587e-05
-1.03095e-11
8.27587e-05
-8.11946e-12
8.27587e-05
-2.18468e-12
8.27587e-05
2.12438e-12
8.27587e-05
1.49284e-12
8.27586e-05
-2.23383e-12
8.27586e-05
-4.12483e-12
8.27586e-05
-1.89388e-12
8.27586e-05
1.99597e-12
8.27586e-05
3.37512e-12
8.27586e-05
8.31986e-13
8.27586e-05
-2.0846e-12
8.27586e-05
-7.13849e-13
8.27586e-05
5.1701e-12
8.27586e-05
1.14448e-11
8.27586e-05
1.38986e-11
8.27586e-05
1.2911e-11
8.27586e-05
1.19805e-11
8.27586e-05
1.39103e-11
8.27586e-05
1.74638e-11
8.27586e-05
1.8528e-11
8.27586e-05
1.46558e-11
8.27586e-05
8.06503e-12
8.27586e-05
3.56841e-12
8.27585e-05
3.67134e-12
8.27585e-05
5.78194e-12
8.27585e-05
6.00115e-12
8.27585e-05
3.12738e-12
8.27585e-05
-3.37947e-13
8.27585e-05
-1.05939e-12
8.27585e-05
2.16332e-12
8.27585e-05
6.75204e-12
8.27585e-05
8.73199e-12
8.27585e-05
7.03315e-12
8.27585e-05
4.57664e-12
8.27585e-05
4.54851e-12
8.27585e-05
6.98726e-12
8.27585e-05
8.93998e-12
8.27585e-05
7.65024e-12
8.27585e-05
3.65236e-12
8.27585e-05
3.95078e-13
8.27585e-05
3.05921e-13
8.27585e-05
2.31008e-12
8.27585e-05
3.19878e-12
8.27585e-05
1.26524e-12
8.27585e-05
-2.99291e-12
8.27585e-05
-6.81159e-12
8.27585e-05
-7.24599e-12
8.27585e-05
-5.37675e-12
8.27585e-05
-6.33195e-12
8.27585e-05
-1.15948e-11
8.27585e-05
-1.62559e-11
8.27585e-05
-1.67899e-11
8.27585e-05
-1.46837e-11
8.27585e-05
-1.28876e-11
8.27585e-05
-1.19513e-11
8.27585e-05
-1.01599e-11
8.27585e-05
-7.19337e-12
8.27585e-05
-4.24094e-12
8.27585e-05
-1.25985e-12
8.27585e-05
1.59848e-12
8.27585e-05
3.48655e-12
8.27585e-05
3.36155e-12
8.27585e-05
1.20116e-12
8.27585e-05
-1.06127e-13
8.27585e-05
-1.37128e-13
8.27585e-05
-1.62866e-12
8.27585e-05
-5.97909e-12
8.27585e-05
-9.34278e-12
8.27585e-05
-1.16248e-11
8.27585e-05
-1.48706e-11
-1.56813e-11
0.000126814
8.51069e-11
0.000126814
8.21447e-11
0.000126814
8.34864e-11
0.000126814
8.76049e-11
0.000126814
8.26278e-11
0.000126814
5.40249e-11
0.000126814
4.62965e-11
0.000126814
3.87555e-11
0.000126814
2.44297e-11
0.000126814
1.96298e-11
0.000126814
2.43598e-11
0.000126814
2.80692e-11
0.000126814
2.79083e-11
0.000126814
2.91117e-11
0.000126814
3.69047e-11
0.000126814
4.52364e-11
0.000126814
4.5447e-11
0.000126814
4.25176e-11
0.000126814
4.68517e-11
0.000126814
5.39716e-11
0.000126814
5.45046e-11
0.000126814
4.51316e-11
0.000126814
2.88711e-11
0.000126814
1.38972e-11
0.000126814
5.8361e-12
0.000126814
3.9005e-12
0.000126814
4.31802e-12
0.000126814
6.0807e-12
0.000126814
8.88059e-12
0.000126814
1.03798e-11
0.000126814
1.07231e-11
0.000126814
1.2084e-11
0.000126814
1.2727e-11
0.000126814
9.89253e-12
0.000126814
5.22867e-12
0.000126814
8.49674e-13
0.000126814
-3.65265e-12
0.000126814
-1.0054e-11
0.000126814
-1.86432e-11
0.000126814
-2.7431e-11
0.000126814
-3.0478e-11
0.000126814
-2.51708e-11
0.000126814
-1.4966e-11
0.000126814
-5.55339e-12
0.000126814
1.50291e-12
0.000126814
7.52675e-12
0.000126814
1.26969e-11
0.000126814
1.64711e-11
0.000126814
1.82169e-11
0.000126814
1.76732e-11
0.000126814
1.44914e-11
0.000126814
1.00452e-11
0.000126814
7.16284e-12
0.000126814
6.482e-12
0.000126814
4.71e-12
0.000126814
-1.4828e-12
0.000126814
-1.07756e-11
0.000126814
-1.74413e-11
0.000126814
-1.79254e-11
0.000126814
-1.37168e-11
0.000126814
-8.67355e-12
0.000126814
-5.2488e-12
0.000126814
-2.86314e-12
0.000126814
1.11527e-13
0.000126814
4.15077e-12
0.000126814
7.90596e-12
0.000126814
9.24131e-12
0.000126814
7.52439e-12
0.000126814
4.96301e-12
0.000126814
4.27662e-12
0.000126814
5.52533e-12
0.000126814
5.96496e-12
0.000126814
3.00544e-12
0.000126814
-2.3493e-12
0.000126814
-6.31386e-12
0.000126814
-6.73845e-12
0.000126814
-5.17505e-12
0.000126814
-4.17533e-12
0.000126814
-5.20838e-12
0.000126814
-6.88012e-12
0.000126814
-6.58479e-12
0.000126814
-3.5682e-12
0.000126814
-4.97841e-13
0.000126814
-6.89997e-13
0.000126814
-4.60134e-12
0.000126814
-9.10726e-12
0.000126814
-1.04455e-11
0.000126814
-7.82268e-12
0.000126814
-3.79493e-12
0.000126814
-1.31168e-12
0.000126814
-2.71893e-13
0.000126814
2.15188e-12
0.000126814
7.74946e-12
0.000126814
1.50918e-11
0.000126814
2.05553e-11
0.000126814
2.17084e-11
0.000126814
1.89748e-11
0.000126814
1.53822e-11
0.000126814
1.31551e-11
0.000126814
1.1172e-11
0.000126814
7.24223e-12
0.000126814
5.67661e-13
0.000126814
-6.185e-12
0.000126814
-9.84379e-12
0.000126814
-9.29345e-12
0.000126814
-6.47365e-12
0.000126814
-3.9356e-12
0.000126814
-2.5195e-12
0.000126814
-4.48136e-13
0.000126814
4.68025e-12
0.000126814
1.18467e-11
0.000126814
1.71421e-11
0.000126814
1.79064e-11
0.000126814
1.49701e-11
0.000126814
1.1541e-11
0.000126814
9.7961e-12
0.000126814
8.88852e-12
0.000126814
6.30406e-12
0.000126814
2.23384e-12
0.000126814
-1.39177e-12
0.000126814
-2.98179e-12
0.000126814
-2.62928e-12
0.000126814
-1.33616e-12
0.000126814
-2.84203e-13
0.000126814
-8.25736e-13
0.000126814
-3.07374e-12
0.000126813
-4.75417e-12
0.000126813
-6.08799e-12
0.000126813
-9.57208e-12
0.000126813
-1.4576e-11
0.000126813
-1.8236e-11
0.000126813
-1.92035e-11
0.000126813
-1.84367e-11
0.000126813
-1.65291e-11
0.000126813
-1.35446e-11
0.000126813
-9.96487e-12
0.000126813
-7.17296e-12
0.000126814
-5.23579e-12
0.000126814
-4.06018e-12
0.000126814
-1.76406e-12
0.000126814
1.96238e-12
0.000126814
2.06613e-12
0.000126814
-1.54071e-12
0.000126813
-2.28506e-12
0.000126813
-7.6314e-13
0.000126813
-2.80975e-12
0.000126814
-1.03706e-11
0.000126814
-1.92715e-11
0.000126814
-2.74568e-11
-2.97832e-11
0.00016268
1.04664e-10
0.00016268
1.20756e-10
0.00016268
1.30318e-10
0.00016268
1.39484e-10
0.00016268
1.44367e-10
0.00016268
1.37998e-10
0.00016268
1.31042e-10
0.00016268
1.29454e-10
0.00016268
1.21481e-10
0.00016268
1.10117e-10
0.00016268
9.87844e-11
0.000162679
8.76075e-11
0.000162679
8.66723e-11
0.000162679
9.09628e-11
0.000162679
9.24181e-11
0.000162679
9.10443e-11
0.000162679
8.9604e-11
0.000162679
8.71321e-11
0.000162679
8.2531e-11
0.000162679
7.63109e-11
0.000162679
6.90893e-11
0.000162679
5.89075e-11
0.000162679
4.44635e-11
0.000162679
2.92542e-11
0.000162679
1.83634e-11
0.000162679
1.38588e-11
0.000162679
1.36544e-11
0.000162679
1.52613e-11
0.000162679
1.82297e-11
0.000162679
1.99517e-11
0.000162679
1.74754e-11
0.000162679
1.37751e-11
0.000162679
1.24704e-11
0.000162679
1.27218e-11
0.000162679
1.11395e-11
0.000162679
6.08561e-12
0.000162679
-1.95321e-12
0.000162679
-1.06367e-11
0.000162679
-1.83273e-11
0.000162679
-2.51545e-11
0.000162679
-2.96543e-11
0.000162679
-2.89987e-11
0.000162679
-2.27683e-11
0.000162679
-1.35803e-11
0.000162679
-4.54899e-12
0.000162679
3.07273e-12
0.000162679
9.55299e-12
0.000162679
1.40049e-11
0.000162679
1.607e-11
0.000162679
1.60019e-11
0.000162679
1.35699e-11
0.000162679
8.33747e-12
0.000162679
1.8788e-12
0.000162679
-1.8214e-12
0.000162679
-1.9238e-12
0.000162679
-2.01792e-12
0.000162679
-6.72848e-12
0.000162679
-1.45765e-11
0.000162679
-2.05319e-11
0.000162679
-2.03959e-11
0.000162679
-1.45506e-11
0.000162679
-6.70286e-12
0.000162679
-3.4128e-13
0.000162679
3.67648e-12
0.000162679
6.62037e-12
0.000162679
9.79147e-12
0.000162679
1.25333e-11
0.000162679
1.22868e-11
0.000162679
7.74479e-12
0.000162679
1.34847e-12
0.000162679
-2.88954e-12
0.000162679
-2.89821e-12
0.000162679
-1.11788e-12
0.000162679
-1.46224e-12
0.000162679
-5.17004e-12
0.000162679
-9.5447e-12
0.000162679
-1.13188e-11
0.000162679
-9.41647e-12
0.000162679
-5.8321e-12
0.000162679
-3.62826e-12
0.000162679
-3.55042e-12
0.000162679
-3.58159e-12
0.000162679
-1.82701e-12
0.000162679
1.23345e-12
0.000162679
2.90903e-12
0.000162679
1.45208e-12
0.000162679
-1.53863e-12
0.000162679
-2.53998e-12
0.000162679
-1.02129e-14
0.000162679
4.68299e-12
0.000162679
8.40409e-12
0.000162679
1.02625e-11
0.000162679
1.16884e-11
0.000162679
1.49444e-11
0.000162679
1.98718e-11
0.000162679
2.3655e-11
0.000162679
2.32733e-11
0.000162679
1.85665e-11
0.000162679
1.23395e-11
0.000162679
7.81114e-12
0.000162679
5.46849e-12
0.000162679
3.1515e-12
0.000162679
-5.45694e-13
0.000162679
-4.33601e-12
0.000162679
-5.77416e-12
0.000162679
-4.01754e-12
0.000162679
-5.88029e-14
0.000162679
3.76195e-12
0.000162679
5.88528e-12
0.000162679
7.66592e-12
0.000162679
1.07567e-11
0.000162679
1.47978e-11
0.000162679
1.72323e-11
0.000162679
1.64876e-11
0.000162679
1.31696e-11
0.000162679
9.07667e-12
0.000162679
5.53561e-12
0.000162679
2.96415e-12
0.000162679
7.94242e-13
0.000162679
-1.20894e-12
0.000162679
-3.2638e-12
0.000162679
-5.28777e-12
0.000162679
-6.43205e-12
0.000162679
-5.22843e-12
0.000162679
-2.93781e-12
0.000162679
-3.05364e-12
0.000162679
-6.0846e-12
0.000162679
-9.40907e-12
0.000162679
-1.20541e-11
0.000162679
-1.45042e-11
0.000162679
-1.69349e-11
0.000162679
-1.83903e-11
0.000162679
-1.7398e-11
0.000162679
-1.46175e-11
0.000162679
-1.15048e-11
0.000162679
-8.45322e-12
0.000162679
-6.48402e-12
0.000162679
-5.47454e-12
0.000162679
-5.89071e-12
0.000162679
-5.7395e-12
0.000162679
-2.3796e-12
0.000162679
-3.97481e-13
0.000162679
-2.80865e-12
0.000162679
-5.19769e-12
0.000162679
-6.09429e-12
0.000162679
-5.61098e-12
0.000162679
-1.063e-11
0.000162679
-2.20503e-11
0.000162679
-3.37931e-11
-3.61193e-11
0.00019046
1.35875e-10
0.00019046
1.62012e-10
0.00019046
1.77398e-10
0.00019046
1.96119e-10
0.00019046
2.04053e-10
0.000190459
2.26923e-10
0.000190459
2.39381e-10
0.000190459
2.32802e-10
0.000190459
2.20067e-10
0.000190459
2.04782e-10
0.000190459
1.90808e-10
0.000190459
1.7851e-10
0.000190459
1.72772e-10
0.000190459
1.71071e-10
0.000190459
1.66641e-10
0.000190459
1.59208e-10
0.000190458
1.54079e-10
0.000190458
1.47155e-10
0.000190458
1.31176e-10
0.000190458
1.09478e-10
0.000190458
9.12628e-11
0.000190458
7.95544e-11
0.000190458
7.08601e-11
0.000190458
6.19632e-11
0.000190458
5.22039e-11
0.000190458
4.36518e-11
0.000190458
3.86439e-11
0.000190458
3.73169e-11
0.000190458
3.91598e-11
0.000190458
4.12203e-11
0.000190458
3.7744e-11
0.000190458
2.82367e-11
0.000190458
1.94155e-11
0.000190458
1.62177e-11
0.000190458
1.61657e-11
0.000190458
1.30144e-11
0.000190458
4.37008e-12
0.000190458
-5.78118e-12
0.000190458
-1.1876e-11
0.000190458
-1.36963e-11
0.000190458
-1.4722e-11
0.000190458
-1.6643e-11
0.000190458
-1.79756e-11
0.000190458
-1.67623e-11
0.000190458
-1.25847e-11
0.000190458
-6.67707e-12
0.000190458
-9.53952e-13
0.000190458
2.87751e-12
0.000190458
4.86327e-12
0.000190458
7.11455e-12
0.000190458
1.11886e-11
0.000190458
1.47083e-11
0.000190458
1.38897e-11
0.000190458
8.54383e-12
0.000190458
2.79652e-12
0.000190458
3.51551e-13
0.000190458
-1.56282e-13
0.000190458
-2.29242e-12
0.000190458
-6.99951e-12
0.000190458
-1.17588e-11
0.000190458
-1.31877e-11
0.000190458
-9.86158e-12
0.000190458
-3.39554e-12
0.000190458
2.63102e-12
0.000190458
5.49994e-12
0.000190458
5.69007e-12
0.000190458
5.94312e-12
0.000190458
7.64637e-12
0.000190458
9.03299e-12
0.000190458
6.73477e-12
0.000190458
9.45368e-13
0.000190458
-4.26568e-12
0.000190458
-5.55436e-12
0.000190458
-3.46542e-12
0.000190458
-1.88561e-12
0.000190458
-3.66781e-12
0.000190458
-7.76238e-12
0.000190458
-1.07227e-11
0.000190458
-9.49563e-12
0.000190458
-4.9191e-12
0.000190458
-5.80961e-13
0.000190458
9.18295e-13
0.000190458
4.49432e-13
0.000190458
9.97698e-13
0.000190458
3.73375e-12
0.000190458
6.38393e-12
0.000190458
6.1651e-12
0.000190458
2.87773e-12
0.000190458
-5.30186e-14
0.000190458
8.20996e-13
0.000190458
5.71947e-12
0.000190458
1.16269e-11
0.000190458
1.53099e-11
0.000190458
1.61822e-11
0.000190458
1.61492e-11
0.000190458
1.69104e-11
0.000190458
1.76814e-11
0.000190458
1.61225e-11
0.000190458
1.06323e-11
0.000190458
3.30244e-12
0.000190458
-2.03316e-12
0.000190458
-3.43427e-12
0.000190458
-2.33099e-12
0.000190458
-1.51633e-12
0.000190458
-2.28338e-12
0.000190458
-3.67216e-12
0.000190458
-3.18869e-12
0.000190458
2.77288e-13
0.000190458
5.01849e-12
0.000190458
8.48543e-12
0.000190458
9.99008e-12
0.000190458
1.07962e-11
0.000190458
1.21685e-11
0.000190458
1.3925e-11
0.000190458
1.4063e-11
0.000190458
1.0821e-11
0.000190458
4.82393e-12
0.000190458
-1.27251e-12
0.000190458
-4.7901e-12
0.000190458
-5.31025e-12
0.000190458
-4.62243e-12
0.000190458
-4.47811e-12
0.000190458
-5.3034e-12
0.000190458
-5.43652e-12
0.000190458
-3.63099e-12
0.000190458
-2.08804e-12
0.000190458
-3.70438e-12
0.000190458
-7.54175e-12
0.000190458
-1.05437e-11
0.000190458
-1.19169e-11
0.000190458
-1.29743e-11
0.000190458
-1.36605e-11
0.000190458
-1.20764e-11
0.000190458
-9.77186e-12
0.000190458
-1.02543e-11
0.000190458
-1.16676e-11
0.000190458
-1.08797e-11
0.000190458
-7.90926e-12
0.000190458
-5.41595e-12
0.000190458
-4.57054e-12
0.000190458
-3.34965e-12
0.000190458
-1.42357e-12
0.000190458
-4.10584e-13
0.000190458
-1.67942e-12
0.000190458
-2.94744e-12
0.000190458
-4.46683e-12
0.000190458
-1.07388e-11
0.000190458
-2.01396e-11
0.000190458
-3.34402e-11
-3.83647e-11
0.000210238
1.39107e-10
0.000210238
1.58097e-10
0.000210238
1.82832e-10
0.000210238
2.05038e-10
0.000210238
2.36481e-10
0.000210238
2.73347e-10
0.000210238
2.91959e-10
0.000210238
3.029e-10
0.000210238
3.1433e-10
0.000210237
3.10325e-10
0.000210237
2.95588e-10
0.000210237
2.81996e-10
0.000210237
2.72394e-10
0.000210237
2.6244e-10
0.000210237
2.46505e-10
0.000210237
2.26248e-10
0.000210237
2.1026e-10
0.000210237
1.99322e-10
0.000210237
1.84572e-10
0.000210237
1.6209e-10
0.000210237
1.38244e-10
0.000210237
1.1839e-10
0.000210237
1.02691e-10
0.000210236
9.20331e-11
0.000210236
8.56574e-11
0.000210236
7.97356e-11
0.000210236
7.23867e-11
0.000210236
6.41942e-11
0.000210236
5.66316e-11
0.000210236
5.12937e-11
0.000210236
4.66159e-11
0.000210236
3.95259e-11
0.000210236
3.06568e-11
0.000210236
2.3283e-11
0.000210236
1.84991e-11
0.000210236
1.42961e-11
0.000210236
8.50204e-12
0.000210236
1.75244e-12
0.000210236
-2.66478e-12
0.000210236
-4.20267e-12
0.000210236
-5.42156e-12
0.000210236
-8.60925e-12
0.000210236
-1.27512e-11
0.000210236
-1.4748e-11
0.000210236
-1.20163e-11
0.000210236
-5.66166e-12
0.000210236
2.09516e-12
0.000210236
8.51917e-12
0.000210236
1.13413e-11
0.000210236
1.06786e-11
0.000210236
9.75439e-12
0.000210236
1.17641e-11
0.000210236
1.50552e-11
0.000210236
1.47115e-11
0.000210236
8.85324e-12
0.000210237
6.99133e-13
0.000210237
-4.91659e-12
0.000210237
-6.02501e-12
0.000210237
-4.73542e-12
0.000210237
-3.74054e-12
0.000210237
-4.30066e-12
0.000210237
-4.70638e-12
0.000210237
-2.4646e-12
0.000210237
2.82695e-12
0.000210237
8.17416e-12
0.000210237
9.88596e-12
0.000210237
7.57404e-12
0.000210237
4.64967e-12
0.000210237
4.57577e-12
0.000210237
6.76839e-12
0.000210237
7.73267e-12
0.000210237
4.70441e-12
0.000210237
-1.19537e-12
0.000210237
-6.12185e-12
0.000210237
-7.63522e-12
0.000210237
-6.53098e-12
0.000210237
-5.63718e-12
0.000210237
-6.57958e-12
0.000210237
-7.84858e-12
0.000210237
-6.82256e-12
0.000210237
-2.9951e-12
0.000210237
1.1423e-12
0.000210237
2.61643e-12
0.000210237
1.48111e-12
0.000210237
3.95486e-13
0.000210237
1.63519e-12
0.000210237
4.96235e-12
0.000210237
7.66468e-12
0.000210237
7.57229e-12
0.000210237
5.92268e-12
0.000210237
5.76315e-12
0.000210237
8.58704e-12
0.000210237
1.28228e-11
0.000210237
1.50742e-11
0.000210237
1.35254e-11
0.000210237
9.17195e-12
0.000210237
4.88235e-12
0.000210237
2.44835e-12
0.000210237
4.84963e-13
0.000210237
-3.16146e-12
0.000210237
-8.36845e-12
0.000210237
-1.23568e-11
0.000210237
-1.24729e-11
0.000210237
-8.7958e-12
0.000210237
-3.96345e-12
0.000210237
-6.27931e-13
0.000210237
1.05971e-12
0.000210237
3.20495e-12
0.000210237
7.62306e-12
0.000210236
1.26629e-11
0.000210236
1.55227e-11
0.000210236
1.46466e-11
0.000210236
1.14541e-11
0.000210236
8.40102e-12
0.000210236
6.1609e-12
0.000210236
3.96346e-12
0.000210236
8.84877e-13
0.000210236
-2.90524e-12
0.000210236
-6.20555e-12
0.000210236
-7.74663e-12
0.000210236
-7.09487e-12
0.000210236
-5.01387e-12
0.000210236
-3.65286e-12
0.000210236
-4.03671e-12
0.000210236
-4.31365e-12
0.000210236
-3.44561e-12
0.000210236
-3.06857e-12
0.000210236
-4.37242e-12
0.000210236
-6.36002e-12
0.000210236
-8.00126e-12
0.000210236
-9.61706e-12
0.000210236
-1.13408e-11
0.000210236
-1.08543e-11
0.000210236
-8.24633e-12
0.000210236
-6.88294e-12
0.000210236
-6.39791e-12
0.000210236
-5.23328e-12
0.000210236
-3.65824e-12
0.000210236
-1.22233e-12
0.000210236
-6.55603e-13
0.000210236
-3.50083e-12
0.000210236
-5.24545e-12
0.000210236
-5.01256e-12
0.000210236
-5.09609e-12
0.000210236
-6.91935e-12
0.000210236
-9.57649e-12
0.000210236
-1.38638e-11
0.000210236
-1.96745e-11
0.000210236
-2.99348e-11
-3.7624e-11
0.000222079
1.1429e-10
0.000222079
1.28085e-10
0.000222079
1.49676e-10
0.000222079
1.78536e-10
0.000222079
2.3475e-10
0.000222079
2.85637e-10
0.000222079
3.09425e-10
0.000222079
3.28815e-10
0.000222078
3.5205e-10
0.000222078
3.65762e-10
0.000222078
3.67854e-10
0.000222078
3.62236e-10
0.000222078
3.4861e-10
0.000222078
3.2935e-10
0.000222078
3.09279e-10
0.000222078
2.87892e-10
0.000222078
2.61435e-10
0.000222078
2.33571e-10
0.000222078
2.11239e-10
0.000222078
1.94385e-10
0.000222078
1.79115e-10
0.000222078
1.62466e-10
0.000222078
1.43504e-10
0.000222078
1.25993e-10
0.000222078
1.13434e-10
0.000222078
1.04282e-10
0.000222078
9.65009e-11
0.000222078
8.8421e-11
0.000222078
7.65812e-11
0.000222078
6.08864e-11
0.000222078
4.63836e-11
0.000222078
3.64414e-11
0.000222078
2.94283e-11
0.000222078
2.21783e-11
0.000222078
1.42163e-11
0.000222078
7.57148e-12
0.000222078
3.87205e-12
0.000222078
2.34882e-12
0.000222078
1.61735e-12
0.000222078
1.16803e-13
0.000222078
-2.4344e-12
0.000222078
-4.74006e-12
0.000222078
-5.13122e-12
0.000222078
-3.40575e-12
0.000222078
-1.18688e-12
0.000222078
-3.82246e-13
0.000222078
-5.23691e-13
0.000222078
7.97228e-13
0.000222078
4.11157e-12
0.000222078
6.67862e-12
0.000222078
6.22474e-12
0.000222078
4.00737e-12
0.000222078
3.00551e-12
0.000222078
3.99461e-12
0.000222078
4.78176e-12
0.000222078
3.36731e-12
0.000222078
1.27046e-13
0.000222078
-2.62216e-12
0.000222078
-2.69573e-12
0.000222078
2.55485e-13
0.000222078
3.85822e-12
0.000222078
5.79639e-12
0.000222078
5.41174e-12
0.000222078
4.70416e-12
0.000222078
5.62857e-12
0.000222078
7.36582e-12
0.000222078
7.48569e-12
0.000222078
4.46697e-12
0.000222078
-3.98326e-13
0.000222078
-4.17865e-12
0.000222078
-5.50558e-12
0.000222078
-5.39816e-12
0.000222078
-6.26119e-12
0.000222078
-8.82086e-12
0.000222078
-1.13503e-11
0.000222078
-1.13677e-11
0.000222078
-8.28284e-12
0.000222078
-4.23474e-12
0.000222078
-1.94426e-12
0.000222078
-1.75636e-12
0.000222078
-1.5831e-12
0.000222078
8.03685e-13
0.000222078
4.9264e-12
0.000222078
8.43943e-12
0.000222078
9.28056e-12
0.000222078
8.17208e-12
0.000222078
7.67872e-12
0.000222078
9.16483e-12
0.000222078
1.18977e-11
0.000222078
1.34754e-11
0.000222078
1.2739e-11
0.000222078
1.07047e-11
0.000222078
9.45715e-12
0.000222078
9.66546e-12
0.000222078
9.86111e-12
0.000222078
7.61894e-12
0.000222078
2.39633e-12
0.000222078
-3.25163e-12
0.000222078
-6.53655e-12
0.000222078
-6.8442e-12
0.000222078
-5.85123e-12
0.000222078
-5.46547e-12
0.000222078
-5.73098e-12
0.000222078
-5.16688e-12
0.000222078
-2.59111e-12
0.000222078
1.51856e-12
0.000222078
5.07586e-12
0.000222078
6.53959e-12
0.000222078
6.48414e-12
0.000222078
6.55038e-12
0.000222078
7.40678e-12
0.000222078
8.06927e-12
0.000222078
7.47358e-12
0.000222078
5.32715e-12
0.000222078
1.73769e-12
0.000222078
-2.16298e-12
0.000222078
-4.32221e-12
0.000222078
-4.55913e-12
0.000222078
-4.74104e-12
0.000222078
-5.7095e-12
0.000222078
-6.55301e-12
0.000222078
-5.90126e-12
0.000222078
-3.86098e-12
0.000222078
-2.33606e-12
0.000222078
-2.34754e-12
0.000222078
-2.8923e-12
0.000222078
-3.32191e-12
0.000222078
-4.00178e-12
0.000222078
-5.67252e-12
0.000222078
-7.2056e-12
0.000222078
-7.05947e-12
0.000222078
-6.97865e-12
0.000222078
-7.27473e-12
0.000222078
-5.37776e-12
0.000222078
-1.34803e-12
0.000222078
2.43312e-12
0.000222078
3.5916e-12
0.000222078
1.47903e-12
0.000222078
-1.38706e-12
0.000222077
-3.93931e-12
0.000222077
-5.85042e-12
0.000222077
-4.71675e-12
0.000222077
-3.17746e-12
0.000222077
-3.23776e-12
0.000222078
-5.85967e-12
0.000222078
-1.46122e-11
0.000222078
-1.99044e-11
0.000222078
-2.3179e-11
0.000222077
-2.66531e-11
-3.21192e-11
0.000226021
9.21591e-11
0.000226021
1.07414e-10
0.000226021
1.28156e-10
0.000226021
1.6885e-10
0.000226021
2.20559e-10
0.000226021
2.64875e-10
0.000226021
3.04996e-10
0.000226021
3.48965e-10
0.000226021
3.81254e-10
0.000226021
3.96051e-10
0.000226021
4.00493e-10
0.000226021
4.00471e-10
0.000226021
3.91878e-10
0.000226021
3.71397e-10
0.000226021
3.47346e-10
0.000226021
3.25587e-10
0.000226021
3.00555e-10
0.000226021
2.71905e-10
0.000226021
2.47436e-10
0.000226021
2.26923e-10
0.000226021
2.05364e-10
0.000226021
1.84063e-10
0.000226021
1.65412e-10
0.000226021
1.48529e-10
0.000226021
1.31905e-10
0.000226021
1.14398e-10
0.000226021
9.73564e-11
0.000226021
8.34828e-11
0.000226021
7.17878e-11
0.000226021
5.93454e-11
0.000226021
4.72277e-11
0.000226021
3.84256e-11
0.000226021
3.19867e-11
0.000226021
2.47736e-11
0.000226021
1.63627e-11
0.000226021
1.00786e-11
0.000226021
7.99319e-12
0.000226021
8.26867e-12
0.000226021
7.84754e-12
0.000226021
4.52593e-12
0.000226021
-5.83684e-13
0.000226021
-4.75429e-12
0.000226021
-6.04329e-12
0.000226021
-4.74042e-12
0.000226021
-2.75833e-12
0.000226021
-2.12575e-12
0.000226021
-3.47584e-12
0.000226021
-5.12622e-12
0.000226021
-5.08985e-12
0.000226021
-3.5985e-12
0.000226021
-2.43779e-12
0.000226021
-2.4238e-12
0.000226021
-2.40725e-12
0.000226021
-1.14329e-12
0.000226021
1.22833e-12
0.000226021
3.95746e-12
0.000226021
6.86483e-12
0.000226021
9.52501e-12
0.000226021
1.15937e-11
0.000226021
1.27788e-11
0.000226021
1.3319e-11
0.000226021
1.25472e-11
0.000226021
9.70789e-12
0.000226021
4.7025e-12
0.000226021
-1.07257e-12
0.000226021
-5.69338e-12
0.000226021
-8.46192e-12
0.000226021
-9.43672e-12
0.000226021
-1.01985e-11
0.000226021
-1.12643e-11
0.000226021
-1.24059e-11
0.000226021
-1.28953e-11
0.000226021
-1.30161e-11
0.000226021
-1.27893e-11
0.000226021
-1.23382e-11
0.000226021
-1.11787e-11
0.000226021
-8.72482e-12
0.000226021
-4.80208e-12
0.000226021
6.3871e-14
0.000226021
4.46218e-12
0.000226021
7.30334e-12
0.000226021
9.11454e-12
0.000226021
1.02494e-11
0.000226021
1.10838e-11
0.000226021
1.11949e-11
0.000226021
1.05175e-11
0.000226021
9.32578e-12
0.000226021
7.98887e-12
0.000226021
7.28278e-12
0.000226021
6.90536e-12
0.000226021
5.97876e-12
0.000226021
4.31419e-12
0.000226021
2.45848e-12
0.000226021
1.00205e-12
0.000226021
7.07174e-13
0.000226021
1.19836e-12
0.000226021
1.44202e-12
0.000226021
1.19671e-12
0.000226021
8.53473e-13
0.000226021
9.5362e-13
0.000226021
1.9774e-12
0.000226021
3.24389e-12
0.000226021
4.18638e-12
0.000226021
4.39315e-12
0.000226021
3.84205e-12
0.000226021
3.04281e-12
0.000226021
2.49219e-12
0.000226021
1.79655e-12
0.000226021
2.69782e-13
0.000226021
-1.67203e-12
0.000226021
-3.27053e-12
0.000226021
-4.21464e-12
0.000226021
-4.24546e-12
0.000226021
-3.11425e-12
0.000226021
-1.35826e-12
0.000226021
-6.22226e-13
0.000226021
-2.97562e-14
0.000226021
1.3229e-12
0.000226021
2.47028e-12
0.000226021
2.25181e-12
0.000226021
6.76006e-13
0.000226021
-1.23839e-12
0.000226021
-2.17965e-12
0.000226021
-2.61482e-12
0.000226021
-3.79492e-12
0.000226021
-5.65445e-12
0.000226021
-6.80517e-12
0.000226021
-6.84277e-12
0.000226021
-7.50375e-12
0.000226021
-8.75088e-12
0.000226021
-7.59519e-12
0.000226021
-4.46657e-12
0.000226021
-3.04099e-12
0.000226021
-2.32549e-12
0.000226021
9.0407e-13
0.000226021
5.2847e-12
0.000226021
8.01658e-12
0.000226021
8.94977e-12
0.000226021
7.98475e-12
0.000226021
3.46649e-12
0.000226021
-3.22035e-12
0.000226021
-7.5348e-12
0.000226021
-8.456e-12
0.000226021
-8.85845e-12
0.000226021
-7.91009e-12
0.000226021
-1.28191e-11
0.000226021
-1.92839e-11
0.000226021
-2.49752e-11
0.000226021
-2.81429e-11
-3.13026e-11