/*--------------------------------*- C++ -*----------------------------------*\
| =========                 |                                                 |
| \\      /  F ield         | OpenFOAM: The Open Source CFD Toolbox           |
|  \\    /   O peration     | Version:  2406                                  |
|   \\  /    A nd           | Website:  www.openfoam.com                      |
|    \\/     M anipulation  |                                                 |
\*---------------------------------------------------------------------------*/
FoamFile
{
    version     2.0;
    format      ascii;
    arch        "LSB;label=32;scalar=64";
    class       volVectorField;
    location    "0.3";
    object      U;
}
// * * * * * * * * * * * * * * * * * * * * * * * * * * * * * * * * * * * * * //

dimensions      [0 1 -1 0 0 0 0];

internalField   nonuniform List<vector> 
2250
(
(0.455951 1.50177e-07 0)
(0.45595 4.79975e-08 0)
(0.45595 -4.89456e-08 0)
(0.45595 -1.28972e-07 0)
(0.45595 -1.25396e-07 0)
(0.45595 -1.99632e-07 0)
(0.45595 -3.31379e-07 0)
(0.455951 -3.14313e-07 0)
(0.455951 -1.69984e-07 0)
(0.455952 -1.36275e-07 0)
(0.455952 -1.54441e-07 0)
(0.455952 -1.5566e-07 0)
(0.455952 -1.40058e-07 0)
(0.455952 -1.09794e-07 0)
(0.455953 -5.81681e-08 0)
(0.455953 -1.84757e-08 0)
(0.455953 3.01146e-08 0)
(0.455953 8.95271e-08 0)
(0.455953 1.22479e-07 0)
(0.455953 1.1806e-07 0)
(0.455953 8.57693e-08 0)
(0.455953 4.12994e-08 0)
(0.455953 4.36559e-09 0)
(0.455952 -3.42937e-08 0)
(0.455952 -7.97069e-08 0)
(0.455952 -8.72349e-08 0)
(0.455952 -3.07618e-08 0)
(0.455952 3.71371e-08 0)
(0.455952 4.82145e-08 0)
(0.455953 1.22871e-08 0)
(0.455953 -1.92295e-08 0)
(0.455953 -3.12844e-08 0)
(0.455953 -4.00443e-08 0)
(0.455953 -5.44045e-08 0)
(0.455953 -7.94692e-08 0)
(0.455953 -1.12166e-07 0)
(0.455953 -1.28281e-07 0)
(0.455953 -1.07392e-07 0)
(0.455954 -5.53275e-08 0)
(0.455954 -4.95463e-09 0)
(0.455954 3.34184e-09 0)
(0.455954 -3.37289e-08 0)
(0.455954 -6.21504e-08 0)
(0.455954 -2.73973e-08 0)
(0.455954 5.41609e-08 0)
(0.455954 1.21243e-07 0)
(0.455954 1.33766e-07 0)
(0.455953 1.01288e-07 0)
(0.455953 5.50704e-08 0)
(0.455953 2.28196e-08 0)
(0.455953 1.49603e-08 0)
(0.455954 1.9574e-08 0)
(0.455954 1.29358e-08 0)
(0.455954 -1.33282e-08 0)
(0.455954 -4.19149e-08 0)
(0.455954 -5.12461e-08 0)
(0.455954 -5.14322e-08 0)
(0.455954 -7.29078e-08 0)
(0.455955 -1.17792e-07 0)
(0.455955 -1.47417e-07 0)
(0.455955 -1.23814e-07 0)
(0.455955 -5.34103e-08 0)
(0.455955 1.91483e-08 0)
(0.455955 5.38087e-08 0)
(0.455955 4.63601e-08 0)
(0.455955 2.51029e-08 0)
(0.455955 1.74546e-08 0)
(0.455955 2.96118e-08 0)
(0.455955 4.06161e-08 0)
(0.455955 2.84769e-08 0)
(0.455955 -2.52435e-09 0)
(0.455955 -2.31628e-08 0)
(0.455955 -1.16456e-08 0)
(0.455955 1.73426e-08 0)
(0.455955 2.92633e-08 0)
(0.455955 9.76212e-09 0)
(0.455955 -1.89829e-08 0)
(0.455955 -2.45693e-08 0)
(0.455955 -2.5844e-10 0)
(0.455954 2.81148e-08 0)
(0.455954 2.86878e-08 0)
(0.455954 -3.09468e-09 0)
(0.455954 -3.91957e-08 0)
(0.455954 -4.75501e-08 0)
(0.455954 -2.54665e-08 0)
(0.455954 -2.54106e-10 0)
(0.455954 -4.74914e-10 0)
(0.455954 -2.33699e-08 0)
(0.455954 -3.77991e-08 0)
(0.455954 -2.02262e-08 0)
(0.455954 1.60602e-08 0)
(0.455954 3.85616e-08 0)
(0.455954 3.12052e-08 0)
(0.455954 1.18137e-08 0)
(0.455954 1.17907e-08 0)
(0.455954 4.09573e-08 0)
(0.455954 7.72737e-08 0)
(0.455954 8.93346e-08 0)
(0.455954 6.87767e-08 0)
(0.455954 3.86106e-08 0)
(0.455953 3.28717e-08 0)
(0.455953 5.25389e-08 0)
(0.455953 6.75127e-08 0)
(0.455953 5.2369e-08 0)
(0.455953 1.47014e-08 0)
(0.455953 -1.40728e-08 0)
(0.455953 -9.57315e-09 0)
(0.455953 2.16547e-08 0)
(0.455953 4.99234e-08 0)
(0.455953 5.48283e-08 0)
(0.455953 4.14647e-08 0)
(0.455953 3.38674e-08 0)
(0.455953 4.39681e-08 0)
(0.455953 5.65905e-08 0)
(0.455952 5.01213e-08 0)
(0.455952 2.63175e-08 0)
(0.455952 1.04491e-08 0)
(0.455952 2.08339e-08 0)
(0.455952 4.97406e-08 0)
(0.455952 7.04533e-08 0)
(0.455952 6.55211e-08 0)
(0.455952 3.76199e-08 0)
(0.455952 -1.73067e-09 0)
(0.455952 -3.4889e-08 0)
(0.455952 -4.49514e-08 0)
(0.455952 -3.24344e-08 0)
(0.455952 -2.42863e-08 0)
(0.455952 -3.76679e-08 0)
(0.455952 -4.96572e-08 0)
(0.455952 -4.0279e-08 0)
(0.455952 -2.54392e-08 0)
(0.455952 -2.67743e-08 0)
(0.455952 -4.67632e-08 0)
(0.455952 -6.25373e-08 0)
(0.455952 -5.50271e-08 0)
(0.455952 -3.3251e-08 0)
(0.455952 -7.29764e-09 0)
(0.455952 1.50823e-08 0)
(0.455952 2.03731e-08 0)
(0.455952 2.24459e-09 0)
(0.455952 -1.92551e-08 0)
(0.455952 -1.94957e-08 0)
(0.455952 -5.95922e-09 0)
(0.455952 -1.68948e-08 0)
(0.455952 -4.81392e-08 0)
(0.455952 -5.43743e-08 0)
(0.455952 -3.4875e-08 0)
(0.455952 -1.32143e-08 0)
(0.455952 2.34877e-10 0)
(0.455952 9.66407e-09 0)
(1.24138 4.865e-07 0)
(1.24138 3.5621e-07 0)
(1.24138 1.45014e-07 0)
(1.24138 -9.31549e-08 0)
(1.24138 -2.63058e-07 0)
(1.24138 -3.68944e-07 0)
(1.24138 -5.3934e-07 0)
(1.24138 -6.57929e-07 0)
(1.24138 -6.26417e-07 0)
(1.24138 -5.63788e-07 0)
(1.24138 -4.94527e-07 0)
(1.24138 -3.75594e-07 0)
(1.24138 -2.70065e-07 0)
(1.24138 -1.73176e-07 0)
(1.24138 -3.5016e-08 0)
(1.24138 7.33146e-08 0)
(1.24138 1.39409e-07 0)
(1.24138 2.15899e-07 0)
(1.24138 2.8051e-07 0)
(1.24138 2.77551e-07 0)
(1.24138 2.20157e-07 0)
(1.24138 1.42162e-07 0)
(1.24138 8.31816e-08 0)
(1.24138 3.19464e-08 0)
(1.24138 -5.3609e-08 0)
(1.24138 -1.19144e-07 0)
(1.24138 -8.34062e-08 0)
(1.24138 1.15662e-08 0)
(1.24138 5.60734e-08 0)
(1.24138 3.60553e-08 0)
(1.24138 1.48876e-08 0)
(1.24138 -2.40343e-09 0)
(1.24138 -5.13784e-08 0)
(1.24138 -1.1255e-07 0)
(1.24138 -1.54176e-07 0)
(1.24138 -1.81962e-07 0)
(1.24138 -1.98676e-07 0)
(1.24138 -2.00737e-07 0)
(1.24138 -1.90565e-07 0)
(1.24138 -1.65927e-07 0)
(1.24138 -1.37772e-07 0)
(1.24138 -1.32464e-07 0)
(1.24138 -1.32915e-07 0)
(1.24138 -7.68206e-08 0)
(1.24138 5.05073e-08 0)
(1.24138 1.84744e-07 0)
(1.24138 2.53616e-07 0)
(1.24138 2.4496e-07 0)
(1.24138 1.93694e-07 0)
(1.24138 1.34258e-07 0)
(1.24138 8.7009e-08 0)
(1.24138 5.53534e-08 0)
(1.24138 2.2609e-08 0)
(1.24138 -3.3449e-08 0)
(1.24138 -1.10742e-07 0)
(1.24138 -1.73586e-07 0)
(1.24138 -1.98474e-07 0)
(1.24138 -2.07832e-07 0)
(1.24138 -2.28349e-07 0)
(1.24138 -2.45814e-07 0)
(1.24138 -2.13194e-07 0)
(1.24138 -1.1092e-07 0)
(1.24138 2.1664e-08 0)
(1.24138 1.20043e-07 0)
(1.24138 1.50628e-07 0)
(1.24138 1.26836e-07 0)
(1.24138 8.65228e-08 0)
(1.24138 6.4228e-08 0)
(1.24138 5.92608e-08 0)
(1.24138 4.5135e-08 0)
(1.24138 8.03693e-10 0)
(1.24138 -5.52373e-08 0)
(1.24138 -7.84077e-08 0)
(1.24138 -5.21293e-08 0)
(1.24138 -1.1083e-08 0)
(1.24138 -4.65373e-09 0)
(1.24138 -4.10356e-08 0)
(1.24138 -8.07109e-08 0)
(1.24138 -8.13139e-08 0)
(1.24138 -4.04187e-08 0)
(1.24138 2.94471e-09 0)
(1.24138 8.01591e-09 0)
(1.24138 -2.46471e-08 0)
(1.24138 -5.60204e-08 0)
(1.24138 -5.13291e-08 0)
(1.24138 -1.63967e-08 0)
(1.24138 9.63349e-09 0)
(1.24138 -8.13828e-10 0)
(1.24138 -2.88567e-08 0)
(1.24138 -2.97718e-08 0)
(1.24138 1.51159e-08 0)
(1.24138 8.03779e-08 0)
(1.24138 1.22777e-07 0)
(1.24138 1.29801e-07 0)
(1.24138 1.28013e-07 0)
(1.24138 1.49028e-07 0)
(1.24138 1.92346e-07 0)
(1.24138 2.23856e-07 0)
(1.24138 2.09479e-07 0)
(1.24138 1.52534e-07 0)
(1.24138 9.82711e-08 0)
(1.24138 8.1248e-08 0)
(1.24138 9.06793e-08 0)
(1.24138 8.9239e-08 0)
(1.24138 5.66729e-08 0)
(1.24138 1.07577e-08 0)
(1.24138 -1.04316e-08 0)
(1.24138 1.1698e-08 0)
(1.24138 5.93529e-08 0)
(1.24138 9.75881e-08 0)
(1.24138 1.04345e-07 0)
(1.24138 9.18064e-08 0)
(1.24138 8.65616e-08 0)
(1.24138 9.59038e-08 0)
(1.24138 1.04154e-07 0)
(1.24138 9.55725e-08 0)
(1.24138 7.12145e-08 0)
(1.24138 5.1246e-08 0)
(1.24138 5.47383e-08 0)
(1.24138 7.2499e-08 0)
(1.24138 7.82086e-08 0)
(1.24138 5.50611e-08 0)
(1.24138 3.96684e-09 0)
(1.24138 -5.7835e-08 0)
(1.24138 -9.9752e-08 0)
(1.24138 -9.61985e-08 0)
(1.24138 -7.34643e-08 0)
(1.24138 -8.81358e-08 0)
(1.24138 -1.35056e-07 0)
(1.24138 -1.60707e-07 0)
(1.24138 -1.51565e-07 0)
(1.24138 -1.36249e-07 0)
(1.24138 -1.44926e-07 0)
(1.24138 -1.621e-07 0)
(1.24138 -1.43489e-07 0)
(1.24138 -9.00821e-08 0)
(1.24138 -3.33746e-08 0)
(1.24138 1.00187e-08 0)
(1.24138 3.70105e-08 0)
(1.24138 4.54322e-08 0)
(1.24138 2.78086e-08 0)
(1.24138 3.70256e-09 0)
(1.24138 5.25877e-10 0)
(1.24138 -1.69325e-08 0)
(1.24138 -7.08663e-08 0)
(1.24138 -1.1451e-07 0)
(1.24138 -1.14989e-07 0)
(1.24138 -1.02562e-07 0)
(1.24138 -1.0573e-07 0)
(1.24138 -1.00394e-07 0)
(1.90222 9.9019e-07 0)
(1.90222 8.92476e-07 0)
(1.90222 7.90225e-07 0)
(1.90221 6.51328e-07 0)
(1.90221 4.26822e-07 0)
(1.90221 1.2196e-07 0)
(1.90221 6.36293e-08 0)
(1.90221 -1.59764e-07 0)
(1.90221 -4.09215e-07 0)
(1.90221 -4.41919e-07 0)
(1.90221 -2.75745e-07 0)
(1.90221 -1.03585e-07 0)
(1.90221 -1.96903e-09 0)
(1.90221 7.73015e-08 0)
(1.90221 2.29577e-07 0)
(1.90221 3.75391e-07 0)
(1.90221 4.11875e-07 0)
(1.90221 4.11236e-07 0)
(1.9022 4.63136e-07 0)
(1.9022 5.08868e-07 0)
(1.9022 5.03195e-07 0)
(1.9022 4.28374e-07 0)
(1.9022 2.97185e-07 0)
(1.9022 1.69281e-07 0)
(1.9022 7.66364e-08 0)
(1.9022 1.76822e-08 0)
(1.9022 3.47853e-09 0)
(1.9022 4.28047e-08 0)
(1.9022 1.03517e-07 0)
(1.9022 1.37752e-07 0)
(1.9022 1.45004e-07 0)
(1.9022 1.35254e-07 0)
(1.9022 8.91133e-08 0)
(1.9022 1.88214e-08 0)
(1.9022 -3.08826e-08 0)
(1.9022 -5.57233e-08 0)
(1.9022 -8.95931e-08 0)
(1.9022 -1.60652e-07 0)
(1.9022 -2.71049e-07 0)
(1.9022 -3.69158e-07 0)
(1.9022 -3.80883e-07 0)
(1.9022 -2.96828e-07 0)
(1.9022 -1.77896e-07 0)
(1.9022 -7.00783e-08 0)
(1.9022 3.42956e-08 0)
(1.9022 1.42123e-07 0)
(1.9022 2.296e-07 0)
(1.9022 2.72323e-07 0)
(1.9022 2.71781e-07 0)
(1.9022 2.38084e-07 0)
(1.9022 1.7973e-07 0)
(1.9022 1.17002e-07 0)
(1.9022 7.05663e-08 0)
(1.9022 3.1813e-08 0)
(1.9022 -3.39233e-08 0)
(1.9022 -1.36334e-07 0)
(1.9022 -2.32753e-07 0)
(1.9022 -2.71917e-07 0)
(1.9022 -2.48758e-07 0)
(1.9022 -1.98338e-07 0)
(1.90221 -1.44295e-07 0)
(1.90221 -8.22191e-08 0)
(1.90221 -2.81954e-09 0)
(1.90221 8.08163e-08 0)
(1.90221 1.42098e-07 0)
(1.90221 1.58431e-07 0)
(1.90221 1.28667e-07 0)
(1.90221 7.96941e-08 0)
(1.90221 4.5978e-08 0)
(1.9022 4.04392e-08 0)
(1.9022 3.77335e-08 0)
(1.9022 6.20233e-09 0)
(1.9022 -5.07588e-08 0)
(1.9022 -9.29101e-08 0)
(1.9022 -9.12198e-08 0)
(1.9022 -6.29958e-08 0)
(1.9022 -4.98354e-08 0)
(1.9022 -7.0722e-08 0)
(1.9022 -1.02314e-07 0)
(1.9022 -1.03397e-07 0)
(1.9022 -6.00868e-08 0)
(1.9022 -3.18543e-09 0)
(1.9022 2.0794e-08 0)
(1.9022 -5.5111e-09 0)
(1.9022 -5.2777e-08 0)
(1.9022 -7.67878e-08 0)
(1.9022 -6.09301e-08 0)
(1.9022 -2.97263e-08 0)
(1.9022 -1.51997e-08 0)
(1.9022 -1.84574e-08 0)
(1.9022 -6.09303e-09 0)
(1.9022 5.12216e-08 0)
(1.9022 1.42768e-07 0)
(1.9022 2.26557e-07 0)
(1.9022 2.687e-07 0)
(1.9022 2.69942e-07 0)
(1.9022 2.57749e-07 0)
(1.9022 2.53507e-07 0)
(1.9022 2.46672e-07 0)
(1.9022 2.09138e-07 0)
(1.9022 1.30483e-07 0)
(1.9022 4.03933e-08 0)
(1.9022 -1.91905e-08 0)
(1.9022 -3.31979e-08 0)
(1.9022 -2.23882e-08 0)
(1.9022 -1.69416e-08 0)
(1.9022 -2.52168e-08 0)
(1.9022 -2.71437e-08 0)
(1.9022 5.00501e-09 0)
(1.9022 7.42513e-08 0)
(1.9022 1.46074e-07 0)
(1.9022 1.79673e-07 0)
(1.9022 1.68888e-07 0)
(1.9022 1.45382e-07 0)
(1.9022 1.38376e-07 0)
(1.9022 1.4509e-07 0)
(1.9022 1.33497e-07 0)
(1.9022 8.65276e-08 0)
(1.9022 2.75572e-08 0)
(1.9022 -6.83438e-09 0)
(1.9022 -8.14686e-09 0)
(1.9022 4.73214e-10 0)
(1.9022 -3.03017e-09 0)
(1.9022 -2.51931e-08 0)
(1.9022 -6.19477e-08 0)
(1.9022 -8.83222e-08 0)
(1.9022 -8.98399e-08 0)
(1.9022 -1.05446e-07 0)
(1.9022 -1.69214e-07 0)
(1.9022 -2.44047e-07 0)
(1.9022 -2.81129e-07 0)
(1.9022 -2.75716e-07 0)
(1.9022 -2.51576e-07 0)
(1.9022 -2.26551e-07 0)
(1.9022 -1.88108e-07 0)
(1.9022 -1.32771e-07 0)
(1.9022 -8.28968e-08 0)
(1.9022 -4.87007e-08 0)
(1.9022 -2.46911e-08 0)
(1.9022 9.99442e-09 0)
(1.9022 4.45416e-08 0)
(1.9022 3.41073e-08 0)
(1.9022 -2.65665e-09 0)
(1.9022 -8.13234e-09 0)
(1.9022 -7.7781e-09 0)
(1.9022 -6.20156e-08 0)
(1.9022 -1.53361e-07 0)
(1.9022 -2.39839e-07 0)
(1.9022 -3.27026e-07 0)
(1.9022 -3.47534e-07 0)
(2.44021 1.48539e-06 0)
(2.4402 1.54265e-06 0)
(2.4402 1.6595e-06 0)
(2.4402 1.73764e-06 0)
(2.4402 1.72976e-06 0)
(2.4402 1.42526e-06 0)
(2.4402 1.28732e-06 0)
(2.4402 1.16288e-06 0)
(2.4402 9.72282e-07 0)
(2.44019 8.35303e-07 0)
(2.44019 7.82806e-07 0)
(2.44019 7.15904e-07 0)
(2.44019 6.95918e-07 0)
(2.44019 7.4175e-07 0)
(2.44019 8.40786e-07 0)
(2.44019 9.26924e-07 0)
(2.44019 9.30931e-07 0)
(2.44019 8.92281e-07 0)
(2.44019 8.99303e-07 0)
(2.44019 9.26528e-07 0)
(2.44019 8.93721e-07 0)
(2.44019 7.48544e-07 0)
(2.44018 5.14297e-07 0)
(2.44018 2.91829e-07 0)
(2.44018 1.62576e-07 0)
(2.44018 1.25857e-07 0)
(2.44018 1.34599e-07 0)
(2.44018 1.62083e-07 0)
(2.44018 1.99273e-07 0)
(2.44018 2.13866e-07 0)
(2.44018 1.95497e-07 0)
(2.44018 1.82313e-07 0)
(2.44018 1.84611e-07 0)
(2.44018 1.69234e-07 0)
(2.44018 1.22651e-07 0)
(2.44018 5.35273e-08 0)
(2.44018 -3.31088e-08 0)
(2.44018 -1.35967e-07 0)
(2.44018 -2.60173e-07 0)
(2.44018 -3.90871e-07 0)
(2.44018 -4.65753e-07 0)
(2.44018 -4.27745e-07 0)
(2.44018 -2.97162e-07 0)
(2.44018 -1.45849e-07 0)
(2.44018 -1.81352e-08 0)
(2.44018 8.48751e-08 0)
(2.44018 1.67764e-07 0)
(2.44018 2.24619e-07 0)
(2.44018 2.5191e-07 0)
(2.44018 2.49748e-07 0)
(2.44018 2.06282e-07 0)
(2.44018 1.26903e-07 0)
(2.44019 5.29732e-08 0)
(2.44019 2.22102e-08 0)
(2.44019 1.54579e-08 0)
(2.44019 -2.92654e-08 0)
(2.44019 -1.35288e-07 0)
(2.44019 -2.48184e-07 0)
(2.44019 -2.94144e-07 0)
(2.44019 -2.53017e-07 0)
(2.44019 -1.62647e-07 0)
(2.44019 -7.40448e-08 0)
(2.44019 -1.06883e-08 0)
(2.44019 3.57131e-08 0)
(2.44019 8.38576e-08 0)
(2.44019 1.3681e-07 0)
(2.44019 1.71001e-07 0)
(2.44019 1.57872e-07 0)
(2.44019 1.01249e-07 0)
(2.44019 4.09323e-08 0)
(2.44019 1.6402e-08 0)
(2.44019 2.12426e-08 0)
(2.44019 1.30399e-08 0)
(2.44019 -3.31911e-08 0)
(2.44019 -9.75593e-08 0)
(2.44019 -1.37685e-07 0)
(2.44019 -1.33323e-07 0)
(2.44019 -1.0295e-07 0)
(2.44019 -7.92297e-08 0)
(2.44019 -7.54757e-08 0)
(2.44019 -7.45162e-08 0)
(2.44019 -5.14766e-08 0)
(2.44019 -8.25041e-09 0)
(2.44019 2.16687e-08 0)
(2.44019 7.06118e-09 0)
(2.44019 -4.30614e-08 0)
(2.44019 -8.32523e-08 0)
(2.44019 -7.45057e-08 0)
(2.44019 -2.24684e-08 0)
(2.44018 3.38852e-08 0)
(2.44018 6.87445e-08 0)
(2.44018 9.42855e-08 0)
(2.44018 1.43354e-07 0)
(2.44018 2.2549e-07 0)
(2.44018 3.10246e-07 0)
(2.44018 3.49718e-07 0)
(2.44018 3.22654e-07 0)
(2.44018 2.54587e-07 0)
(2.44018 1.9064e-07 0)
(2.44018 1.49545e-07 0)
(2.44018 1.09077e-07 0)
(2.44018 4.24683e-08 0)
(2.44018 -4.13934e-08 0)
(2.44018 -1.02789e-07 0)
(2.44018 -1.10825e-07 0)
(2.44018 -7.32267e-08 0)
(2.44018 -2.46402e-08 0)
(2.44018 8.10339e-09 0)
(2.44018 3.29338e-08 0)
(2.44018 8.00679e-08 0)
(2.44018 1.58935e-07 0)
(2.44018 2.36829e-07 0)
(2.44018 2.69649e-07 0)
(2.44018 2.44856e-07 0)
(2.44018 1.91497e-07 0)
(2.44018 1.45657e-07 0)
(2.44018 1.13324e-07 0)
(2.44018 7.58358e-08 0)
(2.44018 2.5939e-08 0)
(2.44018 -2.09484e-08 0)
(2.44018 -5.08341e-08 0)
(2.44018 -6.48568e-08 0)
(2.44018 -6.11684e-08 0)
(2.44018 -3.79619e-08 0)
(2.44018 -2.02415e-08 0)
(2.44018 -3.80138e-08 0)
(2.44018 -7.71328e-08 0)
(2.44018 -1.14871e-07 0)
(2.44018 -1.59497e-07 0)
(2.44018 -2.15908e-07 0)
(2.44018 -2.68671e-07 0)
(2.44018 -2.94699e-07 0)
(2.44018 -2.80359e-07 0)
(2.44018 -2.42462e-07 0)
(2.44018 -1.94625e-07 0)
(2.44018 -1.43885e-07 0)
(2.44018 -1.06328e-07 0)
(2.44018 -8.87196e-08 0)
(2.44018 -8.9092e-08 0)
(2.44018 -6.75178e-08 0)
(2.44018 -3.4205e-09 0)
(2.44018 1.52885e-08 0)
(2.44018 -3.53211e-08 0)
(2.44018 -5.65051e-08 0)
(2.44018 -4.21393e-08 0)
(2.44018 -5.2496e-08 0)
(2.44018 -1.51896e-07 0)
(2.44018 -3.14967e-07 0)
(2.44018 -4.76892e-07 0)
(2.44018 -5.17863e-07 0)
(2.8569 1.85154e-06 0)
(2.85689 2.21723e-06 0)
(2.85689 2.44296e-06 0)
(2.85689 2.69513e-06 0)
(2.85689 2.76261e-06 0)
(2.85689 2.86026e-06 0)
(2.85689 2.87349e-06 0)
(2.85689 2.7815e-06 0)
(2.85689 2.59465e-06 0)
(2.85689 2.35764e-06 0)
(2.85689 2.12991e-06 0)
(2.85688 1.92846e-06 0)
(2.85688 1.87208e-06 0)
(2.85688 1.89583e-06 0)
(2.85688 1.87505e-06 0)
(2.85688 1.81098e-06 0)
(2.85688 1.767e-06 0)
(2.85688 1.70369e-06 0)
(2.85688 1.55773e-06 0)
(2.85687 1.35904e-06 0)
(2.85687 1.18164e-06 0)
(2.85687 1.02828e-06 0)
(2.85687 8.54798e-07 0)
(2.85687 6.65006e-07 0)
(2.85687 5.04124e-07 0)
(2.85687 4.08777e-07 0)
(2.85687 3.73671e-07 0)
(2.85687 3.7583e-07 0)
(2.85687 4.07681e-07 0)
(2.85687 4.31572e-07 0)
(2.85687 3.87745e-07 0)
(2.85687 2.9415e-07 0)
(2.85687 2.30721e-07 0)
(2.85687 2.23481e-07 0)
(2.85687 2.23494e-07 0)
(2.85687 1.66016e-07 0)
(2.85687 3.63958e-08 0)
(2.85687 -1.12269e-07 0)
(2.85687 -2.22181e-07 0)
(2.85687 -2.91508e-07 0)
(2.85687 -3.37482e-07 0)
(2.85687 -3.5204e-07 0)
(2.85687 -3.17089e-07 0)
(2.85687 -2.36772e-07 0)
(2.85687 -1.3675e-07 0)
(2.85687 -3.5079e-08 0)
(2.85687 5.69415e-08 0)
(2.85687 1.21189e-07 0)
(2.85687 1.53758e-07 0)
(2.85687 1.72354e-07 0)
(2.85687 1.83468e-07 0)
(2.85687 1.63941e-07 0)
(2.85687 1.01345e-07 0)
(2.85687 2.96501e-08 0)
(2.85687 -5.34782e-09 0)
(2.85687 -1.21199e-08 0)
(2.85687 -4.25147e-08 0)
(2.85687 -1.20753e-07 0)
(2.85687 -2.08602e-07 0)
(2.85687 -2.47044e-07 0)
(2.85687 -2.11219e-07 0)
(2.85687 -1.20341e-07 0)
(2.85687 -1.80619e-08 0)
(2.85687 5.85355e-08 0)
(2.85687 1.01333e-07 0)
(2.85687 1.28379e-07 0)
(2.85687 1.56124e-07 0)
(2.85687 1.7027e-07 0)
(2.85687 1.39874e-07 0)
(2.85687 6.11579e-08 0)
(2.85687 -2.35646e-08 0)
(2.85687 -6.49037e-08 0)
(2.85687 -5.52677e-08 0)
(2.85687 -3.71146e-08 0)
(2.85687 -5.67573e-08 0)
(2.85687 -1.14319e-07 0)
(2.85687 -1.67531e-07 0)
(2.85687 -1.72766e-07 0)
(2.85687 -1.26437e-07 0)
(2.85687 -6.65142e-08 0)
(2.85687 -3.09478e-08 0)
(2.85687 -2.15679e-08 0)
(2.85687 -9.82773e-09 0)
(2.85687 2.53105e-08 0)
(2.85687 6.68589e-08 0)
(2.85687 7.75014e-08 0)
(2.85687 4.59764e-08 0)
(2.85687 4.13001e-09 0)
(2.85687 -1.87853e-09 0)
(2.85687 4.36499e-08 0)
(2.85687 1.13291e-07 0)
(2.85687 1.69074e-07 0)
(2.85687 2.00417e-07 0)
(2.85687 2.2496e-07 0)
(2.85687 2.62483e-07 0)
(2.85687 3.05591e-07 0)
(2.85687 3.17172e-07 0)
(2.85687 2.69173e-07 0)
(2.85687 1.77525e-07 0)
(2.85687 8.88683e-08 0)
(2.85687 3.8453e-08 0)
(2.85687 1.96902e-08 0)
(2.85687 2.27781e-09 0)
(2.85687 -2.82173e-08 0)
(2.85687 -5.69227e-08 0)
(2.85687 -5.78678e-08 0)
(2.85687 -2.22993e-08 0)
(2.85687 3.37132e-08 0)
(2.85687 8.51045e-08 0)
(2.85687 1.20712e-07 0)
(2.85687 1.51722e-07 0)
(2.85687 1.89848e-07 0)
(2.85687 2.28104e-07 0)
(2.85687 2.41613e-07 0)
(2.85687 2.12577e-07 0)
(2.85687 1.4742e-07 0)
(2.85687 7.05235e-08 0)
(2.85687 5.32664e-09 0)
(2.85687 -3.40351e-08 0)
(2.85687 -4.94815e-08 0)
(2.85687 -5.75387e-08 0)
(2.85687 -7.27423e-08 0)
(2.85687 -8.80064e-08 0)
(2.85687 -7.76844e-08 0)
(2.85687 -4.07404e-08 0)
(2.85687 -2.67868e-08 0)
(2.85687 -6.60547e-08 0)
(2.85687 -1.26887e-07 0)
(2.85687 -1.70553e-07 0)
(2.85687 -1.93862e-07 0)
(2.85687 -2.16562e-07 0)
(2.85687 -2.34555e-07 0)
(2.85687 -2.19243e-07 0)
(2.85687 -1.86234e-07 0)
(2.85687 -1.70398e-07 0)
(2.85687 -1.63574e-07 0)
(2.85687 -1.44153e-07 0)
(2.85687 -1.13719e-07 0)
(2.85687 -9.93643e-08 0)
(2.85687 -9.11456e-08 0)
(2.85687 -4.65478e-08 0)
(2.85687 -4.47377e-09 0)
(2.85687 -1.82232e-08 0)
(2.85687 -5.57232e-08 0)
(2.85687 -7.46736e-08 0)
(2.85687 -8.02379e-08 0)
(2.85687 -1.61375e-07 0)
(2.85687 -3.23142e-07 0)
(2.85687 -5.15142e-07 0)
(2.85687 -5.76892e-07 0)
(3.15357 2.10244e-06 0)
(3.15357 2.50681e-06 0)
(3.15357 2.82525e-06 0)
(3.15357 3.16149e-06 0)
(3.15357 3.45797e-06 0)
(3.15357 3.91705e-06 0)
(3.15357 4.13968e-06 0)
(3.15357 4.16372e-06 0)
(3.15356 4.12397e-06 0)
(3.15356 3.94604e-06 0)
(3.15356 3.70046e-06 0)
(3.15356 3.49507e-06 0)
(3.15356 3.38413e-06 0)
(3.15356 3.29262e-06 0)
(3.15356 3.11481e-06 0)
(3.15355 2.88862e-06 0)
(3.15355 2.73743e-06 0)
(3.15355 2.61396e-06 0)
(3.15355 2.37725e-06 0)
(3.15355 2.03363e-06 0)
(3.15355 1.7187e-06 0)
(3.15355 1.49389e-06 0)
(3.15355 1.3189e-06 0)
(3.15355 1.16772e-06 0)
(3.15355 1.03643e-06 0)
(3.15355 9.18974e-07 0)
(3.15355 8.18852e-07 0)
(3.15355 7.46016e-07 0)
(3.15355 7.14522e-07 0)
(3.15355 7.06792e-07 0)
(3.15355 6.52595e-07 0)
(3.15355 5.22431e-07 0)
(3.15355 3.83939e-07 0)
(3.15355 3.07028e-07 0)
(3.15355 2.78157e-07 0)
(3.15355 2.2553e-07 0)
(3.15355 1.03497e-07 0)
(3.15355 -4.48587e-08 0)
(3.15355 -1.38246e-07 0)
(3.15355 -1.55831e-07 0)
(3.15355 -1.51467e-07 0)
(3.15355 -1.7531e-07 0)
(3.15355 -2.14738e-07 0)
(3.15355 -2.22192e-07 0)
(3.15355 -1.74334e-07 0)
(3.15355 -8.2679e-08 0)
(3.15355 2.26484e-08 0)
(3.15355 1.02013e-07 0)
(3.15355 1.31658e-07 0)
(3.15355 1.33712e-07 0)
(3.15355 1.56273e-07 0)
(3.15355 2.04891e-07 0)
(3.15355 2.28708e-07 0)
(3.15355 1.83826e-07 0)
(3.15355 9.15645e-08 0)
(3.15355 1.1298e-08 0)
(3.15355 -2.95869e-08 0)
(3.15355 -5.17591e-08 0)
(3.15355 -8.35011e-08 0)
(3.15355 -1.22701e-07 0)
(3.15355 -1.4498e-07 0)
(3.15355 -1.22997e-07 0)
(3.15355 -4.93284e-08 0)
(3.15355 4.64954e-08 0)
(3.15355 1.14271e-07 0)
(3.15355 1.28809e-07 0)
(3.15355 1.13169e-07 0)
(3.15355 1.07836e-07 0)
(3.15355 1.21516e-07 0)
(3.15355 1.23715e-07 0)
(3.15355 8.32716e-08 0)
(3.15355 1.0597e-08 0)
(3.15355 -5.05789e-08 0)
(3.15355 -7.1848e-08 0)
(3.15355 -6.71304e-08 0)
(3.15355 -7.34759e-08 0)
(3.15355 -1.07076e-07 0)
(3.15355 -1.43841e-07 0)
(3.15355 -1.44036e-07 0)
(3.15355 -9.31897e-08 0)
(3.15355 -2.21968e-08 0)
(3.15355 2.21871e-08 0)
(3.15355 2.34296e-08 0)
(3.15355 9.54551e-09 0)
(3.15355 1.82257e-08 0)
(3.15355 5.33795e-08 0)
(3.15355 8.17407e-08 0)
(3.15355 7.35776e-08 0)
(3.15355 4.15167e-08 0)
(3.15355 3.03757e-08 0)
(3.15355 6.98032e-08 0)
(3.15355 1.44641e-07 0)
(3.15355 2.10116e-07 0)
(3.15355 2.32039e-07 0)
(3.15355 2.14114e-07 0)
(3.15355 1.88038e-07 0)
(3.15355 1.72502e-07 0)
(3.15355 1.51975e-07 0)
(3.15355 9.76288e-08 0)
(3.15355 7.62159e-09 0)
(3.15355 -8.08128e-08 0)
(3.15355 -1.23567e-07 0)
(3.15355 -1.11758e-07 0)
(3.15355 -7.44801e-08 0)
(3.15355 -4.72006e-08 0)
(3.15355 -3.79678e-08 0)
(3.15355 -2.45668e-08 0)
(3.15355 2.13636e-08 0)
(3.15355 9.90064e-08 0)
(3.15355 1.72682e-07 0)
(3.15355 2.06022e-07 0)
(3.15355 1.98559e-07 0)
(3.15355 1.80846e-07 0)
(3.15355 1.73291e-07 0)
(3.15355 1.61154e-07 0)
(3.15355 1.18877e-07 0)
(3.15355 4.37961e-08 0)
(3.15355 -3.73967e-08 0)
(3.15355 -9.16646e-08 0)
(3.15355 -1.0505e-07 0)
(3.15355 -8.99764e-08 0)
(3.15355 -7.14017e-08 0)
(3.15355 -7.15842e-08 0)
(3.15355 -8.18839e-08 0)
(3.15355 -7.1455e-08 0)
(3.15355 -4.81254e-08 0)
(3.15355 -5.30275e-08 0)
(3.15355 -9.15063e-08 0)
(3.15355 -1.2991e-07 0)
(3.15355 -1.47773e-07 0)
(3.15355 -1.61423e-07 0)
(3.15355 -1.78116e-07 0)
(3.15355 -1.65578e-07 0)
(3.15355 -1.34099e-07 0)
(3.15355 -1.35269e-07 0)
(3.15355 -1.51313e-07 0)
(3.15355 -1.38395e-07 0)
(3.15355 -9.59731e-08 0)
(3.15355 -5.25676e-08 0)
(3.15355 -4.50837e-08 0)
(3.15355 -5.9742e-08 0)
(3.15355 -4.90279e-08 0)
(3.15355 -3.36411e-08 0)
(3.15355 -4.63694e-08 0)
(3.15355 -7.97334e-08 0)
(3.15355 -1.11542e-07 0)
(3.15355 -1.84105e-07 0)
(3.15355 -3.0407e-07 0)
(3.15355 -4.88307e-07 0)
(3.15355 -5.81172e-07 0)
(3.33118 1.97803e-06 0)
(3.33118 2.1949e-06 0)
(3.33118 2.53868e-06 0)
(3.33118 2.88909e-06 0)
(3.33118 3.5829e-06 0)
(3.33118 4.28782e-06 0)
(3.33118 4.62466e-06 0)
(3.33118 4.86381e-06 0)
(3.33118 5.13372e-06 0)
(3.33118 5.22294e-06 0)
(3.33118 5.12614e-06 0)
(3.33117 4.95824e-06 0)
(3.33117 4.75374e-06 0)
(3.33117 4.5137e-06 0)
(3.33117 4.23295e-06 0)
(3.33117 3.91136e-06 0)
(3.33117 3.58705e-06 0)
(3.33117 3.2986e-06 0)
(3.33117 3.0275e-06 0)
(3.33117 2.73211e-06 0)
(3.33117 2.42512e-06 0)
(3.33116 2.1331e-06 0)
(3.33116 1.86493e-06 0)
(3.33116 1.65612e-06 0)
(3.33116 1.51652e-06 0)
(3.33116 1.40248e-06 0)
(3.33116 1.28698e-06 0)
(3.33116 1.16293e-06 0)
(3.33116 1.01895e-06 0)
(3.33116 8.67734e-07 0)
(3.33116 7.28728e-07 0)
(3.33116 5.97385e-07 0)
(3.33116 4.65755e-07 0)
(3.33116 3.40222e-07 0)
(3.33116 2.34205e-07 0)
(3.33116 1.52992e-07 0)
(3.33116 8.38061e-08 0)
(3.33116 2.1626e-08 0)
(3.33116 -2.03177e-08 0)
(3.33116 -3.84801e-08 0)
(3.33116 -5.58348e-08 0)
(3.33116 -8.98695e-08 0)
(3.33116 -1.2404e-07 0)
(3.33116 -1.26465e-07 0)
(3.33116 -8.91219e-08 0)
(3.33116 -3.30911e-08 0)
(3.33116 2.6561e-08 0)
(3.33116 8.56434e-08 0)
(3.33116 1.26036e-07 0)
(3.33116 1.2986e-07 0)
(3.33116 1.14136e-07 0)
(3.33116 1.17751e-07 0)
(3.33116 1.47595e-07 0)
(3.33116 1.60324e-07 0)
(3.33116 1.15727e-07 0)
(3.33116 3.04001e-08 0)
(3.33116 -4.43628e-08 0)
(3.33116 -7.21989e-08 0)
(3.33116 -5.72406e-08 0)
(3.33116 -2.76423e-08 0)
(3.33116 -7.21253e-09 0)
(3.33116 -9.61461e-10 0)
(3.33116 1.07973e-08 0)
(3.33116 5.01606e-08 0)
(3.33116 1.05981e-07 0)
(3.33116 1.36894e-07 0)
(3.33117 1.17957e-07 0)
(3.33117 7.00317e-08 0)
(3.33116 3.65834e-08 0)
(3.33116 3.5765e-08 0)
(3.33116 4.26353e-08 0)
(3.33116 1.85869e-08 0)
(3.33116 -4.45343e-08 0)
(3.33116 -1.13129e-07 0)
(3.33116 -1.44163e-07 0)
(3.33116 -1.27734e-07 0)
(3.33116 -9.01789e-08 0)
(3.33116 -6.67518e-08 0)
(3.33116 -6.60671e-08 0)
(3.33116 -6.26635e-08 0)
(3.33116 -3.20147e-08 0)
(3.33116 1.99676e-08 0)
(3.33116 6.05557e-08 0)
(3.33116 6.67553e-08 0)
(3.33116 5.16685e-08 0)
(3.33116 4.94584e-08 0)
(3.33116 7.57381e-08 0)
(3.33116 1.14208e-07 0)
(3.33116 1.34425e-07 0)
(3.33116 1.28003e-07 0)
(3.33116 1.1652e-07 0)
(3.33116 1.27245e-07 0)
(3.33116 1.62409e-07 0)
(3.33116 1.93389e-07 0)
(3.33116 1.85905e-07 0)
(3.33116 1.3196e-07 0)
(3.33116 5.79737e-08 0)
(3.33116 -1.72504e-09 0)
(3.33116 -3.9161e-08 0)
(3.33116 -7.22797e-08 0)
(3.33116 -1.15012e-07 0)
(3.33116 -1.53973e-07 0)
(3.33116 -1.60863e-07 0)
(3.33116 -1.23143e-07 0)
(3.33116 -5.7183e-08 0)
(3.33116 4.68281e-09 0)
(3.33116 4.30882e-08 0)
(3.33116 6.82133e-08 0)
(3.33116 1.03844e-07 0)
(3.33116 1.53863e-07 0)
(3.33116 1.91601e-07 0)
(3.33116 1.89491e-07 0)
(3.33116 1.53352e-07 0)
(3.33116 1.0794e-07 0)
(3.33116 6.55251e-08 0)
(3.33116 2.49614e-08 0)
(3.33116 -1.31178e-08 0)
(3.33116 -4.87824e-08 0)
(3.33116 -8.28443e-08 0)
(3.33116 -1.08709e-07 0)
(3.33116 -1.13093e-07 0)
(3.33116 -9.20839e-08 0)
(3.33116 -6.69835e-08 0)
(3.33116 -6.24337e-08 0)
(3.33116 -6.81659e-08 0)
(3.33116 -6.27334e-08 0)
(3.33116 -5.30237e-08 0)
(3.33116 -5.93185e-08 0)
(3.33116 -8.49647e-08 0)
(3.33116 -1.10423e-07 0)
(3.33116 -1.25138e-07 0)
(3.33116 -1.42196e-07 0)
(3.33116 -1.44574e-07 0)
(3.33116 -1.09542e-07 0)
(3.33116 -6.57868e-08 0)
(3.33116 -3.49026e-08 0)
(3.33116 -2.14084e-08 0)
(3.33116 -2.06213e-08 0)
(3.33116 -1.43799e-08 0)
(3.33116 -3.00463e-08 0)
(3.33116 -7.67536e-08 0)
(3.33116 -8.76712e-08 0)
(3.33116 -6.79684e-08 0)
(3.33116 -5.52107e-08 0)
(3.33116 -8.71106e-08 0)
(3.33116 -1.73085e-07 0)
(3.33116 -2.44897e-07 0)
(3.33116 -3.18429e-07 0)
(3.33116 -4.28077e-07 0)
(3.33116 -5.27372e-07 0)
(3.39032 1.5445e-06 0)
(3.39032 1.76913e-06 0)
(3.39032 2.05964e-06 0)
(3.39032 2.57924e-06 0)
(3.39032 3.42065e-06 0)
(3.39032 4.15339e-06 0)
(3.39032 4.66221e-06 0)
(3.39032 5.1718e-06 0)
(3.39032 5.62207e-06 0)
(3.39032 5.85633e-06 0)
(3.39032 5.91136e-06 0)
(3.39032 5.85685e-06 0)
(3.39032 5.66725e-06 0)
(3.39032 5.35607e-06 0)
(3.39031 5.02854e-06 0)
(3.39031 4.70233e-06 0)
(3.39031 4.30234e-06 0)
(3.39031 3.87129e-06 0)
(3.39031 3.52214e-06 0)
(3.39031 3.23887e-06 0)
(3.39031 2.94865e-06 0)
(3.39031 2.6455e-06 0)
(3.39031 2.35342e-06 0)
(3.39031 2.09968e-06 0)
(3.39031 1.88948e-06 0)
(3.39031 1.69484e-06 0)
(3.39031 1.51197e-06 0)
(3.39031 1.34492e-06 0)
(3.39031 1.15326e-06 0)
(3.39031 9.20562e-07 0)
(3.39031 7.05574e-07 0)
(3.39031 5.6031e-07 0)
(3.39031 4.58369e-07 0)
(3.39031 3.41927e-07 0)
(3.39031 2.06593e-07 0)
(3.39031 1.04392e-07 0)
(3.39031 7.14676e-08 0)
(3.39031 8.31884e-08 0)
(3.39031 8.87489e-08 0)
(3.39031 5.87117e-08 0)
(3.39031 -6.75955e-10 0)
(3.39031 -5.69727e-08 0)
(3.39031 -7.98672e-08 0)
(3.39031 -6.37205e-08 0)
(3.39031 -3.42935e-08 0)
(3.39031 -2.70079e-08 0)
(3.39031 -4.52255e-08 0)
(3.39031 -5.17872e-08 0)
(3.39031 -2.11324e-08 0)
(3.39031 1.95253e-08 0)
(3.39031 2.95155e-08 0)
(3.39031 1.08733e-08 0)
(3.39031 1.0702e-09 0)
(3.39031 1.91206e-08 0)
(3.39031 4.39948e-08 0)
(3.39031 4.85308e-08 0)
(3.39031 3.62312e-08 0)
(3.39031 3.14337e-08 0)
(3.39031 5.03529e-08 0)
(3.39031 8.99517e-08 0)
(3.39031 1.29993e-07 0)
(3.39031 1.43009e-07 0)
(3.39031 1.16871e-07 0)
(3.39031 7.0049e-08 0)
(3.39031 3.40381e-08 0)
(3.39031 1.77235e-08 0)
(3.39031 5.67829e-10 0)
(3.39031 -3.95728e-08 0)
(3.39031 -9.36087e-08 0)
(3.39031 -1.35154e-07 0)
(3.39031 -1.47415e-07 0)
(3.39031 -1.41222e-07 0)
(3.39031 -1.42411e-07 0)
(3.39031 -1.6103e-07 0)
(3.39031 -1.80512e-07 0)
(3.39031 -1.72036e-07 0)
(3.39031 -1.23656e-07 0)
(3.39031 -5.57973e-08 0)
(3.39031 -1.3811e-09 0)
(3.39031 2.38226e-08 0)
(3.39031 3.69499e-08 0)
(3.39031 6.43591e-08 0)
(3.39031 1.0924e-07 0)
(3.39031 1.46922e-07 0)
(3.39031 1.54343e-07 0)
(3.39031 1.34547e-07 0)
(3.39031 1.14672e-07 0)
(3.39031 1.18811e-07 0)
(3.39031 1.42126e-07 0)
(3.39031 1.56487e-07 0)
(3.39031 1.43251e-07 0)
(3.39031 1.12244e-07 0)
(3.39031 8.8239e-08 0)
(3.39031 8.59338e-08 0)
(3.39031 9.15232e-08 0)
(3.39031 7.64441e-08 0)
(3.39031 3.11947e-08 0)
(3.39031 -2.46237e-08 0)
(3.39031 -5.78578e-08 0)
(3.39031 -5.53004e-08 0)
(3.39031 -3.53873e-08 0)
(3.39031 -2.14898e-08 0)
(3.39031 -1.79367e-08 0)
(3.39031 -1.35707e-08 0)
(3.39031 4.7848e-09 0)
(3.39031 3.78882e-08 0)
(3.39031 6.72885e-08 0)
(3.39031 7.38066e-08 0)
(3.39031 5.84309e-08 0)
(3.39031 4.19343e-08 0)
(3.39031 3.945e-08 0)
(3.39031 4.22169e-08 0)
(3.39031 3.74557e-08 0)
(3.39031 2.38751e-08 0)
(3.39031 1.17592e-09 0)
(3.39031 -2.46563e-08 0)
(3.39031 -3.59219e-08 0)
(3.39031 -2.68581e-08 0)
(3.39031 -1.71943e-08 0)
(3.39031 -2.72705e-08 0)
(3.39031 -5.10124e-08 0)
(3.39031 -6.19396e-08 0)
(3.39031 -4.85669e-08 0)
(3.39031 -3.42661e-08 0)
(3.39031 -4.29603e-08 0)
(3.39031 -6.40675e-08 0)
(3.39031 -7.42575e-08 0)
(3.39031 -7.53177e-08 0)
(3.39031 -9.17978e-08 0)
(3.39031 -1.14756e-07 0)
(3.39031 -1.07999e-07 0)
(3.39031 -8.67279e-08 0)
(3.39031 -8.30833e-08 0)
(3.39031 -6.72347e-08 0)
(3.39031 -8.23314e-09 0)
(3.39031 6.03931e-08 0)
(3.39031 8.63168e-08 0)
(3.39031 6.7745e-08 0)
(3.39031 3.93853e-08 0)
(3.39031 -4.23215e-09 0)
(3.39031 -6.54222e-08 0)
(3.39031 -9.58339e-08 0)
(3.39031 -9.13403e-08 0)
(3.39031 -8.68782e-08 0)