/*--------------------------------*- C++ -*----------------------------------*\
| =========                 |                                                 |
| \\      /  F ield         | OpenFOAM: The Open Source CFD Toolbox           |
|  \\    /   O peration     | Version:  2406                                  |
|   \\  /    A nd           | Website:  www.openfoam.com                      |
|    \\/     M anipulation  |                                                 |
\*---------------------------------------------------------------------------*/
FoamFile
{
    version     2.0;
    format      ascii;
    arch        "LSB;label=32;scalar=64";
    class       volScalarField;
    location    "0.25";
    object      alpha.glycerin;
}
// * * * * * * * * * * * * * * * * * * * * * * * * * * * * * * * * * * * * * //

dimensions      [0 0 0 0 0 0 0];

internalField   nonuniform List<scalar> 
6250
(
4.9703e-320
4.9703e-320
4.97228e-320
4.97326e-320
4.97425e-320
4.97425e-320
4.97623e-320
4.97722e-320
4.97821e-320
4.98018e-320
4.98018e-320
4.98216e-320
4.98413e-320
4.98413e-320
4.98611e-320
4.9871e-320
4.98809e-320
4.99006e-320
4.99105e-320
4.99204e-320
4.99402e-320
4.995e-320
4.99599e-320
4.99797e-320
-4.99994e-320
-4.99994e-320
-5.00192e-320
-5.0039e-320
-5.0039e-320
-5.00587e-320
-5.00785e-320
-5.00884e-320
-5.00983e-320
-5.0118e-320
-5.01279e-320
-5.01378e-320
-5.01575e-320
-5.01674e-320
-1.00364e-319
-1.00394e-319
-1.00414e-319
-1.00453e-319
-1.00473e-319
-1.00503e-319
-1.00532e-319
-1.00552e-319
-1.00592e-319
-1.00612e-319
-1.00641e-319
-1.00671e-319
-1.00691e-319
-1.0073e-319
-1.0075e-319
-1.00789e-319
-1.00809e-319
-1.00849e-319
-1.00868e-319
-1.00908e-319
-1.00928e-319
-1.00967e-319
-1.00997e-319
-1.01027e-319
-1.01066e-319
-1.01096e-319
-1.01125e-319
-1.01165e-319
-1.01204e-319
-1.01244e-319
-1.01283e-319
-1.01323e-319
-1.01372e-319
-1.01422e-319
-1.01461e-319
-1.01521e-319
-1.0158e-319
-1.01639e-319
-1.01698e-319
-1.01768e-319
-1.01837e-319
-1.01916e-319
-1.02015e-319
-1.02104e-319
-1.02212e-319
-1.02331e-319
-1.02459e-319
-1.02598e-319
-1.02766e-319
-1.02944e-319
-1.03141e-319
-5.70654e-307
-1.17919e-289
-3.0551e-272
-8.53869e-255
-6.77977e-238
-3.04274e-221
-9.16654e-205
-2.47534e-188
-5.21128e-172
-1.17413e-147
-1.08507e-128
-2.2555e-111
-7.62976e-99
-2.01915e-87
-4.07025e-76
-9.69894e-65
-2.58899e-54
-3.03219e-47
-2.97788e-41
-1.05287e-35
-1.15859e-30
-1.86901e-26
-3.45219e-24
-1.44449e-23
-1.02178e-23
-5.38399e-24
-4.50561e-24
-8.58584e-24
-2.07734e-24
0.62775
0.999995
0.999997
0.999997
0.999997
0.999997
0.999997
0.999997
0.999997
0.999997
0.999938
0.999881
0.999881
0.999962
0.999986
0.999986
0.999929
0.999867
0.999912
0.999998
0.999938
0.999852
0.999852
0.99992
0.999998
0.999998
0.999998
0.999998
0.999998
0.999998
0.999995
0.99956
0.999525
0.999646
0.999536
0.999208
0.998927
0.998923
0.998803
0.999029
0.9998
0.999858
0.9998
0.999422
0.999079
0.999079
0.999059
0.998953
0.999231
0.999658
0.999991
0.999999
1
1
1
1
1
1
0.999998
0.999984
0.999981
0.999999
1
1
1
1
1
1
1
1
0.999999
0.999994
0.999983
0.999968
0.999955
0.999933
0.999921
0.999947
1
1
1
1
1
1
0.999999
1
1
1
0.999969
0.999815
0.999814
0.999814
0.999814
0.999902
0.999963
0.999963
0.999963
0.998343
0.990353
0.990305
0.99063
0.998131
0.999141
0.996133
0.984917
0.983153
0.995033
0.997578
0.997578
0.996274
0.994094
0.995536
0.997565
0.998317
0.998317
0.998082
0.996602
0.996636
0.997012
0.997012
0.996602
0.994949
0.994274
0.992674
0.993195
0.995852
0.997114
0.99738
0.998899
0.999286
0.999286
0.999286
4.96832e-320
4.96635e-320
4.96635e-320
4.96536e-320
4.96437e-320
4.96437e-320
4.96338e-320
4.9624e-320
4.9624e-320
4.96141e-320
4.96042e-320
4.96042e-320
4.95943e-320
4.95844e-320
4.95844e-320
4.95745e-320
4.95647e-320
4.95647e-320
4.95548e-320
4.95449e-320
4.95449e-320
4.9535e-320
4.95251e-320
4.95251e-320
-4.95153e-320
-4.95054e-320
-4.95054e-320
-4.95054e-320
-4.94856e-320
-4.94856e-320
-4.94856e-320
-4.94757e-320
-4.94659e-320
-4.94659e-320
-4.9456e-320
-4.94461e-320
-4.94461e-320
-4.94362e-320
-4.94263e-320
-4.94263e-320
-4.94263e-320
-4.94164e-320
-4.94066e-320
-4.94066e-320
-4.93967e-320
-4.93868e-320
-4.93868e-320
-4.93868e-320
-4.93769e-320
-4.9367e-320
-4.9367e-320
-4.9367e-320
-4.93473e-320
-4.93473e-320
-4.93473e-320
-4.93374e-320
-4.93275e-320
-4.93275e-320
-4.93275e-320
-4.93176e-320
-4.93078e-320
-4.93078e-320
-4.93078e-320
-4.92979e-320
-4.9288e-320
-4.9288e-320
-4.92781e-320
-4.92682e-320
-4.92682e-320
-4.92682e-320
-4.92583e-320
-4.92485e-320
-4.92485e-320
-4.92386e-320
-4.92287e-320
-4.92287e-320
-4.92188e-320
-4.92089e-320
-4.92089e-320
-4.91991e-320
-4.91892e-320
-4.91892e-320
-4.91694e-320
-4.91694e-320
-4.91497e-320
-4.91497e-320
-4.91398e-320
-9.82598e-320
-9.824e-320
-2.64483e-308
-5.81705e-291
-1.60135e-273
-4.74578e-256
-3.98621e-239
-1.88752e-222
-5.98204e-206
-1.69404e-189
-3.7274e-173
-8.7452e-149
-8.38341e-130
-1.80015e-112
-6.26336e-100
-1.69778e-88
-3.48988e-77
-8.43902e-66
-2.27394e-55
-2.6727e-48
-2.6171e-42
-9.15922e-37
-9.91117e-32
-1.5587e-27
-2.97705e-25
-1.2706e-24
-1.53063e-24
-1.58353e-24
-1.69368e-24
-2.4983e-24
-6.89923e-25
0.0967862
0.078083
0.334523
0.928812
0.998089
0.996903
0.999997
0.999997
0.999997
0.999997
0.999997
0.999993
0.999994
0.999997
0.999784
0.998943
0.998943
0.999384
0.999996
0.999998
0.999998
0.999998
0.999998
0.999998
0.999998
0.999998
0.999998
0.999998
0.999998
0.999998
0.999998
0.999998
0.999998
0.999998
0.999998
0.999998
0.999998
0.990394
0.938602
0.956521
0.998648
0.999858
0.999858
0.999858
0.999858
0.98549
0.917277
0.914767
0.914767
0.936264
0.957624
0.94534
0.945133
0.957858
0.97833
0.998592
1
1
0.999999
0.999995
0.999995
0.996449
0.971966
0.973503
0.985179
0.998167
1
1
1
1
1
0.999999
0.999996
0.999993
0.999986
0.998964
0.996683
0.996602
0.996605
0.998708
0.999944
1
1
1
0.999999
1
1
1
0.999998
0.999997
0.999997
0.999997
0.999992
0.999973
0.999963
0.999934
0.999963
0.999963
0.999963
0.998971
0.996446
0.99861
0.999141
0.989517
0.913948
0.912095
0.978976
0.996515
0.997577
0.997561
0.695776
0.624853
0.624865
0.68277
0.967577
0.984449
0.893834
0.88877
0.949147
0.992443
0.996961
0.997012
0.997012
0.816507
0.552301
0.552304
0.667596
0.974597
0.990838
0.986791
0.978832
0.954556
4.96832e-320
4.96832e-320
4.96832e-320
4.96832e-320
4.96832e-320
4.96832e-320
4.96832e-320
4.96832e-320
4.96832e-320
4.96832e-320
4.96734e-320
4.96734e-320
4.96734e-320
4.96734e-320
4.96635e-320
4.96635e-320
4.96635e-320
4.96635e-320
4.96635e-320
4.96635e-320
4.96635e-320
4.96635e-320
4.96635e-320
4.96635e-320
-4.96635e-320
-4.96635e-320
-4.96635e-320
-4.96635e-320
-4.96635e-320
-4.96536e-320
-4.96536e-320
-4.96536e-320
-4.96536e-320
-4.96536e-320
-4.96437e-320
-4.96437e-320
-4.96437e-320
-4.96437e-320
-4.96437e-320
-4.96437e-320
-4.96437e-320
-4.96437e-320
-4.96437e-320
-4.96437e-320
-4.96437e-320
-4.96437e-320
-4.96437e-320
-4.96437e-320
-4.96338e-320
-4.96338e-320
-4.96338e-320
-4.96338e-320
-4.9624e-320
-4.9624e-320
-4.9624e-320
-4.9624e-320
-4.9624e-320
-4.9624e-320
-4.9624e-320
-4.9624e-320
-4.9624e-320
-4.9624e-320
-4.9624e-320
-4.9624e-320
-4.9624e-320
-4.9624e-320
-4.96141e-320
-4.96141e-320
-4.96141e-320
-4.96141e-320
-4.96141e-320
-4.96141e-320
-4.96042e-320
-4.96042e-320
-4.96042e-320
-4.96042e-320
-4.96042e-320
-4.96042e-320
-4.96042e-320
-4.96042e-320
-4.96042e-320
-4.96042e-320
-4.96042e-320
-4.96042e-320
-4.95943e-320
-4.95844e-320
-9.91689e-320
-9.91689e-320
-9.91491e-320
-1.58007e-309
-3.70805e-292
-1.08678e-274
-3.42056e-257
-3.04261e-240
-1.52096e-223
-5.07176e-207
-1.50579e-190
-3.46055e-174
-8.44724e-150
-8.39133e-131
-1.85958e-113
-6.65038e-101
-1.84538e-89
-3.86715e-78
-9.49367e-67
-2.58607e-56
-3.05929e-49
-3.00125e-43
-1.04681e-37
-1.12224e-32
-1.73079e-28
-3.23215e-26
-1.60462e-25
-3.00766e-25
-4.3727e-25
-5.73666e-25
-8.6213e-25
7.92013e-05
2.11286e-05
8.38743e-06
0.00115897
0.106923
0.154811
0.0831685
0.123195
0.620917
0.99713
0.998274
0.999997
0.999997
0.999997
0.999997
0.999965
0.999956
0.999998
0.999998
0.999998
0.999998
0.999104
0.966063
0.868284
0.694545
0.714825
0.845546
0.944912
0.979588
0.986916
0.981091
0.940133
0.798831
0.697807
0.710314
0.727306
0.718165
0.721865
0.768787
0.85277
0.944951
0.989935
0.97914
0.91003
0.835123
0.811096
0.858474
0.928676
0.960188
0.960841
0.960842
0.916084
0.736812
0.663983
0.616131
0.615739
0.616187
0.736249
0.84563
0.954254
0.999914
0.999275
0.909425
0.402859
0.0670212
0.140573
0.518607
0.829141
0.899508
0.956921
0.995331
0.977789
0.921577
0.90738
0.908805
0.951326
0.995785
0.99787
0.997869
0.960921
0.657746
0.582318
0.709763
0.904716
0.986673
0.903641
0.72878
0.764625
0.905314
0.993775
0.999997
0.999997
0.948228
0.869332
0.897505
0.982789
0.999962
0.999963
0.999963
0.995053
0.754138
0.3727
0.465788
0.816613
0.978576
0.97649
0.807943
0.788951
0.789008
0.856714
0.962583
0.950887
0.941527
0.946889
0.957365
0.981966
0.994566
0.994539
0.543457
0.289454
0.289416
0.289427
0.358535
0.902608
0.99091
0.99091
0.987294
0.987243
0.673632
0.194069
0.191448
0.191439
0.353049
4.96832e-320
4.96832e-320
4.96832e-320
4.96832e-320
4.96832e-320
4.96832e-320
4.96832e-320
4.96832e-320
4.96832e-320
4.96832e-320
4.96734e-320
4.96734e-320
4.96734e-320
4.96734e-320
4.96734e-320
4.96734e-320
4.96635e-320
4.96635e-320
4.96635e-320
4.96635e-320
4.96635e-320
4.96635e-320
4.96635e-320
4.96635e-320
-4.96635e-320
-4.96635e-320
-4.96635e-320
-4.96635e-320
-4.96635e-320
-4.96635e-320
-4.96635e-320
-4.96635e-320
-4.96635e-320
-4.96635e-320
-4.96635e-320
-4.96635e-320
-4.96635e-320
-4.96536e-320
-4.96536e-320
-4.96536e-320
-4.96536e-320
-4.96536e-320
-4.96536e-320
-4.96536e-320
-4.96437e-320
-4.96437e-320
-4.96437e-320
-4.96437e-320
-4.96437e-320
-4.96437e-320
-4.96437e-320
-4.96437e-320
-4.96437e-320
-4.96437e-320
-4.96437e-320
-4.96437e-320
-4.96437e-320
-4.96437e-320
-4.96437e-320
-4.96437e-320
-4.96437e-320
-4.96437e-320
-4.96437e-320
-4.96437e-320
-4.96437e-320
-4.96437e-320
-4.96437e-320
-4.96437e-320
-4.96437e-320
-4.96338e-320
-4.96338e-320
-4.96338e-320
-4.96338e-320
-4.96338e-320
-4.96338e-320
-4.96338e-320
-4.96338e-320
-4.96338e-320
-4.96338e-320
-4.96338e-320
-4.96338e-320
-4.96338e-320
-4.9624e-320
-4.9624e-320
-4.9624e-320
-4.9624e-320
-9.92479e-320
-9.92479e-320
-9.92479e-320
-1.01744e-310
-2.52701e-293
-7.81839e-276
-2.59065e-258
-2.41924e-241
-1.26605e-224
-4.40724e-208
-1.36222e-191
-3.25038e-175
-8.21652e-151
-8.4317e-132
-1.92572e-114
-7.08206e-102
-2.01656e-90
-4.3274e-79
-1.08563e-67
-3.01578e-57
-3.63066e-50
-3.61724e-44
-1.27874e-38
-1.38692e-33
-2.16139e-29
-4.10467e-27
-2.45235e-26
-6.3021e-26
-1.19792e-25
-1.9542e-25
-3.13198e-25
5.04416e-05
2.70682e-06
7.87705e-07
1.96252e-06
8.30335e-06
4.93718e-06
1.75577e-06
2.81967e-06
0.0460414
0.0907782
0.0504384
0.0375877
0.384775
0.963131
0.999997
0.999995
0.999992
0.917105
0.74726
0.747285
0.916447
0.999051
0.976519
0.448318
0.0599274
0.0954244
0.188372
0.207342
0.254353
0.403052
0.348921
0.159047
0.0523656
0.0302281
0.0250248
0.0210165
0.0172482
0.0151372
0.0209277
0.0526227
0.304078
0.687094
0.625659
0.202925
0.0264325
0.0233297
0.0294283
0.037432
0.378036
0.728459
0.773363
0.80812
0.777865
0.915734
0.92157
0.809708
0.0950305
1.23272e-07
1.23242e-07
0.136978
0.647918
0.512612
0.0570198
3.61828e-08
1.24753e-08
1.19218e-08
1.19218e-08
1.19215e-08
1.19255e-08
0.118166
0.594793
0.518695
0.133388
0.00306809
0.00426084
0.223258
0.641843
0.860098
0.996395
0.84194
0.128982
3.37457e-07
2.37941e-07
2.37998e-07
0.333056
0.567891
0.22814
0.00597384
0.032725
0.425017
0.867573
0.899581
0.632739
0.144404
0.251159
0.80552
0.999917
0.999962
0.999963
0.471974
0.002621
1.02507e-06
8.97904e-07
8.98877e-07
0.0226644
0.523013
0.807502
0.808889
0.814258
0.849725
0.740396
0.324051
0.274063
0.274063
0.274056
0.274063
0.407087
0.858125
0.908735
0.908733
0.899287
0.808043
0.876864
0.982823
0.99067
0.880844
0.235466
0.120923
0.120817
0.120867
0.441541
0.540649
0.540644
4.96832e-320
4.96832e-320
4.96832e-320
4.96832e-320
4.96832e-320
4.96832e-320
4.96832e-320
4.96832e-320
4.96832e-320
4.96832e-320
4.96832e-320
4.96832e-320
4.96832e-320
4.96734e-320
4.96734e-320
4.96734e-320
4.96734e-320
4.96734e-320
4.96734e-320
4.96635e-320
4.96635e-320
4.96635e-320
4.96635e-320
4.96635e-320
-4.96635e-320
-4.96635e-320
-4.96635e-320
-4.96635e-320
-4.96635e-320
-4.96635e-320
-4.96635e-320
-4.96635e-320
-4.96635e-320
-4.96635e-320
-4.96635e-320
-4.96635e-320
-4.96635e-320
-4.96635e-320
-4.96635e-320
-4.96536e-320
-4.96536e-320
-4.96536e-320
-4.96536e-320
-4.96536e-320
-4.96536e-320
-4.96536e-320
-4.96437e-320
-4.96437e-320
-4.96437e-320
-4.96437e-320
-4.96437e-320
-4.96437e-320
-4.96437e-320
-4.96437e-320
-4.96437e-320
-4.96437e-320
-4.96437e-320
-4.96437e-320
-4.96437e-320
-4.96437e-320
-4.96437e-320
-4.96437e-320
-4.96437e-320
-4.96338e-320
-4.96338e-320
-4.96338e-320
-4.96338e-320
-4.96338e-320
-4.9624e-320
-4.9624e-320
-4.9624e-320
-4.9624e-320
-4.9624e-320
-4.9624e-320
-4.9624e-320
-4.9624e-320
-4.9624e-320
-4.96141e-320
-4.96141e-320
-4.96042e-320
-4.96042e-320
-4.96042e-320
-4.96042e-320
-4.95943e-320
-4.95844e-320
-4.95844e-320
-9.91491e-320
-9.91392e-320
-9.91194e-320
-6.94706e-312
-1.81328e-294
-5.87764e-277
-2.03394e-259
-1.9772e-242
-1.07362e-225
-3.86547e-209
-1.23186e-192
-3.02156e-176
-7.83006e-152
-8.21659e-133
-1.91487e-115
-7.17368e-103
-2.07827e-91
-4.53442e-80
-1.15644e-68
-3.26727e-58
-4.00473e-51
-4.06894e-45
-1.4702e-39
-1.63412e-34
-2.61875e-30
-5.16404e-28
-3.70874e-27
-1.22597e-26
-2.91618e-26
-5.76403e-26
-2.19617e-26
1.3161e-07
1.61259e-09
5.00226e-08
6.81616e-08
4.32644e-07
4.08084e-07
2.06199e-07
1.93251e-07
1.25172e-06
7.48298e-07
4.4119e-07
4.45417e-07
0.0144426
0.107102
0.0895451
0.0632133
0.374237
0.856748
0.859059
0.859108
0.45974
0.366129
0.661802
0.490731
0.0579401
8.85305e-05
1.42819e-05
5.68587e-06
2.52072e-06
3.99709e-05
7.69522e-07
5.3154e-07
5.15536e-07
5.14512e-07
5.14449e-07
5.14445e-07
5.14445e-07
8.20909e-07
1.66647e-06
2.2745e-06
0.00020891
0.0016469
0.00138897
1.19183e-05
3.74957e-06
2.64983e-06
2.62588e-06
8.14343e-06
0.000395808
0.00081739
6.73188e-06
6.1156e-06
0.0689541
0.650965
0.865417
0.31931
1.2775e-07
1.2311e-07
4.67922e-07
1.32018e-08
1.32002e-08
1.32018e-08
1.32018e-08
1.1734e-07
8.62602e-07
2.87147e-06
3.22326e-06
1.62561e-06
4.34947e-07
1.80948e-08
1.80983e-08
1.80948e-08
1.80983e-08
2.0874e-08
8.95705e-07
9.95826e-07
1.01419e-06
0.0631568
0.300456
0.190133
1.40854e-06
1.37068e-06
1.37658e-06
3.43879e-07
2.16653e-07
2.1665e-07
2.16653e-07
0.00597235
0.00418194
4.64685e-07
4.41186e-07
4.41104e-07
4.40069e-07
4.39043e-07
4.39088e-07
0.142693
0.69316
0.815523
0.468402
0.0166496
6.31156e-06
6.12357e-06
6.12067e-06
1.95898e-06
2.99728e-07
2.84421e-07
2.73865e-07
2.63467e-07
2.49882e-07
2.43789e-07
2.39519e-07
0.307103
0.643612
0.643859
0.64389
0.643868
0.273835
1.08179e-05
2.92257e-07
0.257071
0.865025
0.907543
0.528422
0.286458
0.286494
0.382961
0.744563
0.746081
0.745995
0.345401
0.151237
0.154681
0.160391
-4.96832e-320
-4.96832e-320
-4.96832e-320
-4.96832e-320
-4.96832e-320
-4.96832e-320
-4.96832e-320
-4.96832e-320
-4.96832e-320
-4.96832e-320
-4.96832e-320
-4.96832e-320
-4.96734e-320
-4.96734e-320
-4.96734e-320
-4.96734e-320
-4.96734e-320
-4.96734e-320
-4.96734e-320
4.96635e-320
4.96635e-320
4.96635e-320
4.96635e-320
4.96635e-320
-4.96635e-320
-4.96635e-320
-4.96635e-320
-4.96635e-320
-4.96635e-320
-4.96635e-320
-4.96635e-320
-4.96635e-320
-4.96635e-320
-4.96635e-320
-4.96635e-320
-4.96635e-320
-4.96635e-320
-4.96635e-320
-4.96635e-320
-4.96635e-320
-4.96536e-320
-4.96536e-320
-4.96536e-320
-4.96536e-320
-4.96536e-320
-4.96536e-320
-4.96437e-320
-4.96437e-320
-4.96437e-320
-4.96437e-320
-4.96437e-320
-4.96437e-320
-4.96437e-320
-4.96437e-320
-4.96437e-320
-4.96437e-320
-4.96437e-320
-4.96437e-320
-4.96437e-320
-4.96437e-320
-4.96437e-320
-4.96437e-320
-4.96338e-320
-4.96338e-320
-4.96338e-320
-4.9624e-320
-4.9624e-320
-4.9624e-320
-4.9624e-320
-4.9624e-320
-4.9624e-320
-4.9624e-320
-4.9624e-320
-4.96141e-320
-4.96042e-320
-4.96042e-320
-4.96042e-320
-4.96042e-320
-4.95943e-320
-4.95844e-320
-4.95844e-320
-4.95745e-320
-4.95647e-320
-4.95647e-320
-4.95449e-320
-4.95449e-320
-4.95251e-320
-9.90305e-320
-9.90009e-320
-4.77434e-313
-1.30334e-295
-4.40451e-278
-1.58389e-260
-1.59483e-243
-8.94091e-227
-3.31294e-210
-1.08319e-193
-2.71785e-177
-7.18466e-153
-7.67159e-134
-1.8152e-116
-6.89174e-104
-2.0206e-92
-4.45749e-81
-1.14903e-69
-3.28216e-59
-4.07169e-52
-4.19495e-46
-1.54127e-40
-1.74819e-35
-2.87248e-31
-5.87304e-29
-4.98857e-28
-2.03398e-27
-5.88024e-27
-1.38423e-26
-4.03449e-27
-1.39124e-10
4.06168e-09
2.35578e-09
-1.44829e-09
1.91808e-08
2.708e-08
1.93442e-08
1.59711e-08
6.92238e-08
2.30291e-06
2.40944e-07
5.55088e-08
4.93617e-07
3.35396e-06
1.85725e-06
1.60792e-06
0.004698
0.0857139
0.112516
0.0663981
0.0609483
0.352909
0.386479
0.122484
8.85302e-05
1.5905e-05
7.43518e-06
3.33653e-06
1.08803e-06
8.8272e-07
5.33503e-07
5.175e-07
5.14512e-07
5.14449e-07
5.14445e-07
5.14445e-07
5.14445e-07
1.03934e-06
2.14942e-06
2.18281e-06
2.2745e-06
9.81864e-06
5.2282e-05
4.57158e-05
3.80886e-06
2.62348e-06
2.62588e-06
1.3176e-05
0.000108907
5.46021e-05
1.43539e-05
5.94468e-06
3.33414e-06
3.32131e-06
3.33414e-06
0.00365262
0.000311547
5.40613e-08
5.0367e-08
4.71882e-08
7.97571e-07
7.01548e-06
1.25062e-05
1.03001e-05
8.65851e-07
1.23899e-06
5.38385e-06
1.51487e-05
1.40702e-05
2.93229e-07
1.21178e-05
1.95906e-05
1.95983e-05
1.95906e-05
1.51993e-05
1.01467e-06
1.01477e-06
1.01423e-06
1.01597e-06
1.13064e-06
0.00012527
2.81894e-05
4.7672e-06
2.89774e-06
3.48548e-06
5.89809e-06
4.98583e-06
1.6614e-06
1.65298e-06
1.90253e-06
6.5034e-07
7.42302e-07
1.56313e-06
1.8358e-06
7.12842e-07
5.05648e-07
5.05648e-07
5.05648e-07
5.05648e-07
5.14029e-07
6.31799e-06
1.13766e-05
6.40662e-06
3.11917e-06
1.36742e-05
7.83797e-06
2.84421e-07
8.75193e-06
1.1429e-05
1.25256e-06
2.34941e-07
2.26658e-07
2.09675e-07
2.01133e-07
2.01077e-07
2.01133e-07
2.01133e-07
2.20985e-07
2.64945e-07
2.9225e-07
0.582962
0.908443
0.908443
0.90846
0.908352
0.873113
0.289564
0.130785
0.130647
0.130652
0.130912
0.490426
0.507695
-4.96832e-320
-4.96832e-320
-4.96832e-320
-4.96832e-320
-4.96832e-320
-4.96832e-320
-4.96832e-320
-4.96832e-320
-4.96832e-320
-4.96832e-320
-4.96832e-320
-4.96832e-320
-4.96832e-320
-4.96832e-320
-4.96832e-320
-4.96734e-320
-4.96734e-320
-4.96734e-320
-4.96734e-320
4.96734e-320
4.96734e-320
4.96734e-320
4.96635e-320
4.96635e-320
-4.96635e-320
-4.96635e-320
-4.96635e-320
-4.96635e-320
-4.96635e-320
-4.96635e-320
-4.96635e-320
-4.96635e-320
-4.96635e-320
-4.96635e-320
-4.96635e-320
-4.96635e-320
-4.96635e-320
-4.96635e-320
-4.96635e-320
-4.96635e-320
-4.96635e-320
-4.96635e-320
-4.96536e-320
-4.96536e-320
-4.96536e-320
-4.96536e-320
-4.96536e-320
-4.96536e-320
-4.96437e-320
-4.96437e-320
-4.96437e-320
-4.96437e-320
-4.96437e-320
-4.96437e-320
-4.96437e-320
-4.96437e-320
-4.96437e-320
-4.96437e-320
-4.96437e-320
-4.96437e-320
-4.96437e-320
-4.96338e-320
-4.96338e-320
-4.96338e-320
-4.9624e-320
-4.9624e-320
-4.9624e-320
-4.9624e-320
-4.9624e-320
-4.9624e-320
-4.9624e-320
-4.96141e-320
-4.96042e-320
-4.96042e-320
-4.96042e-320
-4.96042e-320
-4.95943e-320
-4.95844e-320
-4.95844e-320
-4.95745e-320
-4.95647e-320
-4.95548e-320
-4.95449e-320
-4.9535e-320
-4.95251e-320
-4.95054e-320
-4.94856e-320
-9.89515e-320
-9.89119e-320
-3.1504e-314
-8.95948e-297
-3.1442e-279
-1.17039e-261
-1.21596e-244
-7.01163e-228
-2.66408e-211
-8.90532e-195
-2.27808e-178
-6.12395e-154
-6.63416e-135
-1.5894e-117
-6.10019e-105
-1.8058e-93
-4.01887e-82
-1.04478e-70
-3.01033e-60
-3.76977e-53
-3.92587e-47
-1.46094e-41
-1.68268e-36
-2.81791e-32
-5.93028e-30
-5.83339e-29
-2.82953e-28
-9.64906e-28
-2.6447e-27
-7.32741e-28
-1.24061e-11
1.60882e-10
1.87338e-10
2.71963e-10
7.15058e-10
1.39551e-09
1.28452e-09
1.11324e-09
3.62472e-09
1.43262e-07
7.6785e-08
-7.94975e-09
-8.90236e-08
1.75914e-07
1.5245e-07
1.2491e-07
1.5008e-06
7.10833e-06
1.01376e-05
1.93232e-06
3.74136e-06
0.0159051
0.029789
0.0300144
0.0124529
3.2491e-06
3.38249e-06
1.24653e-06
9.90058e-07
9.46936e-07
5.97158e-07
5.14702e-07
5.14462e-07
5.14446e-07
5.14445e-07
5.14445e-07
3.8078e-06
1.12202e-05
1.62165e-05
3.35821e-05
2.80729e-05
9.44923e-06
5.83874e-06
5.70484e-06
3.70422e-06
1.79021e-05
6.74554e-05
6.78019e-05
6.02291e-05
6.11655e-06
3.35753e-06
3.3395e-06
3.32114e-06
3.32996e-06
2.96429e-05
3.80752e-05
5.22673e-05
5.68794e-05
2.25476e-05
8.22473e-08
4.34165e-07
9.54924e-07
1.55667e-06
2.14614e-06
8.22515e-06
1.88362e-05
4.00659e-05
4.24824e-05
2.1159e-05
2.43052e-06
2.68157e-06
2.74657e-06
1.61382e-05
1.57045e-05
3.6388e-06
1.01477e-06
1.01417e-06
1.01597e-06
4.65377e-06
2.10102e-05
2.89905e-05
2.14935e-05
2.20946e-06
1.34388e-06
1.32829e-06
1.3359e-06
3.21754e-05
3.76887e-05
3.76739e-05
3.76761e-05
6.99122e-06
7.53654e-07
6.7461e-06
8.92946e-06
8.13509e-06
9.36117e-07
1.44178e-06
1.24478e-05
1.07288e-05
1.23356e-06
5.78293e-07
5.78293e-07
1.55175e-06
1.67088e-05
1.73499e-05
1.7434e-05
1.5604e-05
1.78162e-05
1.7817e-05
1.68644e-05
5.8957e-07
3.58119e-07
5.65608e-06
1.14832e-05
1.18705e-05
1.08097e-05
8.2199e-06
6.45607e-06
1.56304e-06
1.00614e-06
0.0293453
0.261509
0.26611
0.118309
0.150623
0.468456
0.508826
0.508863
0.508826
0.503821
0.196114
0.194151
0.313972
-4.96832e-320
-4.96832e-320
-4.96832e-320
-4.96832e-320
-4.96832e-320
-4.96832e-320
-4.96832e-320
-4.96832e-320
-4.96832e-320
-4.96832e-320
-4.96832e-320
-4.96832e-320
-4.96832e-320
-4.96832e-320
-4.96832e-320
-4.96734e-320
-4.96734e-320
-4.96734e-320
-4.96734e-320
4.96734e-320
4.96734e-320
4.96734e-320
4.96635e-320
4.96635e-320
-4.96635e-320
-4.96635e-320
-4.96635e-320
-4.96635e-320
-4.96635e-320
-4.96635e-320
-4.96635e-320
-4.96635e-320
-4.96635e-320
-4.96635e-320
-4.96635e-320
-4.96635e-320
-4.96635e-320
-4.96635e-320
-4.96635e-320
-4.96635e-320
-4.96635e-320
-4.96635e-320
-4.96635e-320
-4.96536e-320
-4.96536e-320
-4.96536e-320
-4.96536e-320
-4.96536e-320
-4.96536e-320
-4.96437e-320
-4.96437e-320
-4.96437e-320
-4.96437e-320
-4.96437e-320
-4.96437e-320
-4.96437e-320
-4.96437e-320
-4.96437e-320
-4.96437e-320
-4.96437e-320
-4.96437e-320
-4.96338e-320
-4.96338e-320
-4.9624e-320
-4.9624e-320
-4.9624e-320
-4.9624e-320
-4.9624e-320
-4.9624e-320
-4.96141e-320
-4.96141e-320
-4.96042e-320
-4.96042e-320
-4.96042e-320
-4.95943e-320
-4.95844e-320
-4.95844e-320
-4.95745e-320
-4.95647e-320
-4.95647e-320
-4.95449e-320
-4.95449e-320
-4.95251e-320
-4.95054e-320
-4.94955e-320
-4.94856e-320
-4.94659e-320
-9.88823e-320
-9.88329e-320
-1.90754e-315
-5.63359e-298
-2.04665e-280
-7.86174e-263
-8.40256e-246
-4.96915e-229
-1.93059e-212
-6.58019e-196
-1.71176e-179
-4.66789e-155
-5.11849e-136
-1.23892e-118
-4.79702e-106
-1.43101e-94
-3.20728e-83
-8.39515e-72
-2.43621e-61
-3.07506e-54
-3.23201e-48
-1.21607e-42
-1.41922e-37
-2.41572e-33
-5.2129e-31
-5.84874e-30
-3.29161e-29
-1.29396e-28
-4.04698e-28
-1.14365e-28
-1.66044e-20
5.03837e-12
7.20613e-12
1.24057e-11
-2.38048e-11
6.10845e-11
6.32962e-11
5.86845e-11
1.39643e-10
1.92819e-10
2.09138e-10
4.35002e-11
2.19105e-09
1.04056e-08
2.0424e-09
4.14764e-09
-2.15289e-09
2.74487e-07
8.98099e-07
1.90981e-07
2.13402e-07
2.97434e-06
1.38147e-05
2.33669e-06
1.21889e-06
2.07963e-06
3.2764e-06
5.85896e-06
1.57616e-05
1.58666e-05
1.58161e-05
7.99998e-06
5.14702e-07
5.14462e-07
3.95182e-05
7.85445e-05
7.91502e-05
7.92787e-05
7.93134e-05
7.93134e-05
7.93134e-05
2.69705e-05
6.27725e-05
6.71018e-05
6.75468e-05
6.77624e-05
6.78019e-05
6.78019e-05
6.78019e-05
6.77914e-05
6.29657e-05
4.82778e-06
2.3508e-05
5.92155e-05
6.00098e-05
6.01696e-05
6.01914e-05
6.01914e-05
6.01914e-05
6.01751e-05
3.21061e-05
9.64386e-07
1.29481e-06
1.96274e-06
2.91524e-05
5.26671e-05
5.32168e-05
5.33288e-05
5.33422e-05
5.33422e-05
5.3342e-05
5.33055e-05
5.31909e-05
5.30127e-05
3.01977e-05
1.5678e-06
1.0281e-06
9.12905e-07
1.24339e-06
1.29802e-06
1.29802e-06
8.44172e-06
1.9935e-05
2.15348e-05
2.22627e-05
2.50102e-05
2.57261e-05
6.65697e-06
4.76571e-06
4.76203e-06
6.59549e-06
9.97234e-06
9.97234e-06
9.47428e-06
1.69676e-06
4.98772e-07
1.02628e-06
8.92957e-06
1.66557e-05
1.6775e-05
8.81172e-06
6.31614e-07
8.34438e-07
1.02723e-06
1.18037e-05
1.76391e-05
1.77811e-05
1.78127e-05
1.78194e-05
1.78212e-05
1.78195e-05
9.15305e-06
2.38379e-06
2.37339e-06
7.81778e-06
1.53227e-05
1.53857e-05
1.53869e-05
1.53862e-05
8.56098e-06
6.241e-06
6.23993e-06
6.42874e-06
4.48982e-06
0.000623385
0.01053
0.0168037
0.0139046
0.00444765
1.06445e-06
0.0562643
0.198261
0.269003
-4.96832e-320
-4.96832e-320
-4.96832e-320
-4.96832e-320
-4.96832e-320
-4.96832e-320
-4.96832e-320
-4.96832e-320
-4.96832e-320
-4.96832e-320
-4.96832e-320
-4.96832e-320
-4.96832e-320
-4.96832e-320
-4.96832e-320
-4.96832e-320
-4.96832e-320
-4.96734e-320
-4.96734e-320
4.96734e-320
4.96734e-320
4.96734e-320
4.96734e-320
4.96734e-320
-4.96635e-320
-4.96635e-320
-4.96635e-320
-4.96635e-320
-4.96635e-320
-4.96635e-320
-4.96635e-320
-4.96635e-320
-4.96635e-320
-4.96635e-320
-4.96635e-320
-4.96635e-320
-4.96635e-320
-4.96635e-320
-4.96635e-320
-4.96635e-320
-4.96635e-320
-4.96635e-320
-4.96635e-320
-4.96635e-320
-4.96536e-320
-4.96536e-320
-4.96536e-320
-4.96536e-320
-4.96536e-320
-4.96536e-320
-4.96437e-320
-4.96437e-320
-4.96437e-320
-4.96437e-320
-4.96437e-320
-4.96437e-320
-4.96437e-320
-4.96437e-320
-4.96437e-320
-4.96437e-320
-4.96437e-320
-4.96338e-320
-4.96338e-320
-4.9624e-320
-4.9624e-320
-4.9624e-320
-4.9624e-320
-4.9624e-320
-4.9624e-320
-4.96141e-320
-4.96042e-320
-4.96042e-320
-4.96042e-320
-4.95943e-320
-4.95844e-320
-4.95844e-320
-4.95745e-320
-4.95647e-320
-4.95647e-320
-4.95449e-320
-4.95449e-320
-4.95251e-320
-4.95054e-320
-4.94955e-320
-4.94856e-320
-4.94659e-320
-4.94461e-320
-9.88329e-320
-9.87835e-320
-1.00897e-316
-3.08596e-299
-1.15775e-281
-4.57842e-264
-5.02242e-247
-3.03948e-230
-1.20497e-213
-4.17922e-197
-1.10344e-180
-3.04677e-156
-3.37563e-137
-8.24073e-120
-3.21352e-107
-9.64459e-96
-2.17338e-84
-5.71876e-73
-1.66872e-62
-2.11959e-55
-2.24459e-49
-8.52391e-44
-1.00607e-38
-1.73711e-34
-3.83485e-32
-4.85593e-31
-3.12037e-30
-1.39379e-29
-4.91319e-29
-5.62479e-29
-1.57378e-20
1.44605e-13
3.8198e-13
5.99808e-13
1.55724e-12
3.59658e-12
3.71151e-12
1.64893e-12
1.00113e-12
9.48798e-12
1.27533e-11
2.52494e-12
-1.24352e-11
-1.36958e-10
4.13916e-10
5.09901e-10
2.1251e-09
-5.98085e-09
7.72656e-09
-8.0965e-09
1.02351e-08
8.72738e-08
9.55677e-08
1.02072e-06
9.92971e-07
1.14395e-06
3.49311e-06
5.94012e-06
5.147e-06
2.97322e-06
1.9066e-06
4.64222e-07
8.35262e-07
4.84163e-06
5.92395e-06
5.48665e-06
5.51712e-06
6.26342e-06
6.83571e-06
6.29133e-06
5.39302e-06
1.25132e-05
1.81551e-05
1.00529e-05
7.68286e-07
3.28521e-08
1.67518e-05
5.2036e-05
1.89976e-05
1.3292e-07
1.41256e-05
1.97973e-05
2.03845e-05
7.85814e-06
1.4745e-05
5.89682e-05
3.08499e-05
1.1637e-06
3.24159e-08
1.47301e-06
1.88718e-05
2.4512e-05
2.48656e-05
2.46884e-05
1.88301e-05
2.96001e-06
1.96364e-08
3.54305e-08
3.16156e-05
3.43791e-05
7.02098e-06
1.09992e-07
1.08284e-07
2.142e-05
2.87421e-05
2.68938e-05
1.22342e-05
1.58764e-12
5.46275e-07
7.62141e-06
9.74572e-06
1.05029e-05
5.20147e-06
2.74268e-08
3.57859e-09
2.83321e-06
1.94461e-05
2.06572e-05
1.85258e-05
1.90431e-05
1.90467e-05
5.72801e-06
9.8676e-08
3.8226e-08
1.60567e-08
5.51269e-08
5.14675e-06
1.61841e-05
1.6775e-05
1.69417e-05
1.69705e-05
1.69461e-05
1.50287e-05
2.38517e-06
6.53873e-07
1.6586e-06
1.56885e-05
1.77811e-05
1.17249e-05
8.50032e-07
3.31344e-06
1.41609e-05
1.48678e-05
1.51403e-05
1.52885e-05
1.53471e-05
1.53227e-05
1.18667e-05
3.06227e-06
8.83449e-06
1.1222e-05
9.42168e-06
5.19317e-06
2.64874e-06
1.40472e-06
1.32428e-06
9.50654e-07
5.96815e-06
3.98027e-06
1.76033e-07
8.42586e-08
0.00196474
0.0334305
-4.96832e-320
-4.96832e-320
-4.96832e-320
-4.96832e-320
-4.96832e-320
-4.96832e-320
-4.96832e-320
-4.96832e-320
-4.96832e-320
-4.96832e-320
-4.96832e-320
-4.96832e-320
-4.96832e-320
-4.96832e-320
-4.96832e-320
-4.96832e-320
-4.96832e-320
-4.96734e-320
-4.96734e-320
4.96734e-320
4.96734e-320
4.96734e-320
4.96734e-320
4.96734e-320
-4.96734e-320
-4.96635e-320
-4.96635e-320
-4.96635e-320
-4.96635e-320
-4.96635e-320
-4.96635e-320
-4.96635e-320
-4.96635e-320
-4.96635e-320
-4.96635e-320
-4.96635e-320
-4.96635e-320
-4.96635e-320
-4.96635e-320
-4.96635e-320
-4.96635e-320
-4.96635e-320
-4.96635e-320
-4.96635e-320
-4.96635e-320
-4.96536e-320
-4.96536e-320
-4.96536e-320
-4.96536e-320
-4.96536e-320
-4.96437e-320
-4.96437e-320
-4.96437e-320
-4.96437e-320
-4.96437e-320
-4.96437e-320
-4.96437e-320
-4.96437e-320
-4.96437e-320
-4.96437e-320
-4.96437e-320
-4.96338e-320
-4.96338e-320
-4.9624e-320
-4.9624e-320
-4.9624e-320
-4.9624e-320
-4.9624e-320
-4.96141e-320
-4.96141e-320
-4.96042e-320
-4.96042e-320
-4.96042e-320
-4.95943e-320
-4.95844e-320
-4.95844e-320
-4.95647e-320
-4.95647e-320
-4.95548e-320
-4.95449e-320
-4.95251e-320
-4.95251e-320
-4.95054e-320
-4.94856e-320
-4.94659e-320
-4.94461e-320
-4.94263e-320
-9.88131e-320
-9.87538e-320
-4.3918e-318
-1.3814e-300
-5.3424e-283
-2.17126e-265
-2.44061e-248
-1.50912e-231
-6.09571e-215
-2.1484e-198
-5.74969e-182
-1.60549e-157
-1.7951e-138
-4.41459e-121
-1.73172e-108
-5.22267e-97
-1.18187e-85
-3.12221e-74
-9.14884e-64
-1.16775e-56
-1.24407e-50
-4.76059e-45
-5.67261e-40
-9.9175e-36
-2.23553e-33
-3.16814e-32
-2.2976e-31
-1.1541e-30
-4.54626e-30
-8.57375e-30
-1.92679e-20
2.24188e-15
6.99511e-15
1.19436e-14
3.12594e-14
7.11572e-14
1.30603e-13
4.90176e-13
4.35908e-13
3.00368e-13
3.88344e-13
1.40583e-13
2.9536e-13
6.76846e-12
8.44114e-12
1.20117e-11
8.42987e-12
1.90353e-10
4.67989e-10
4.19563e-10
3.73067e-10
1.54647e-09
2.15669e-09
1.30432e-08
1.89394e-08
3.38294e-08
1.71238e-07
2.55831e-07
2.07436e-07
1.53347e-07
8.87492e-08
2.43338e-08
4.38434e-08
1.27754e-07
1.24969e-07
1.09137e-07
7.0452e-08
7.72739e-09
-1.01686e-09
6.60763e-11
4.94322e-11
5.08384e-11
4.92349e-11
3.9115e-09
1.48882e-08
1.5692e-08
1.45499e-08
1.86789e-08
5.4123e-08
8.10819e-08
7.0371e-08
5.05884e-08
2.25364e-12
2.10464e-12
1.95757e-12
1.8833e-12
1.85602e-12
1.83056e-12
1.81309e-12
1.8009e-12
1.79159e-12
1.78355e-12
1.78107e-12
3.65552e-12
1.76326e-12
1.75446e-12
1.73867e-12
1.69765e-12
1.65172e-12
1.62676e-12
1.61224e-12