/*--------------------------------*- C++ -*----------------------------------*\
| =========                 |                                                 |
| \\      /  F ield         | OpenFOAM: The Open Source CFD Toolbox           |
|  \\    /   O peration     | Version:  2406                                  |
|   \\  /    A nd           | Website:  www.openfoam.com                      |
|    \\/     M anipulation  |                                                 |
\*---------------------------------------------------------------------------*/
FoamFile
{
    version     2.0;
    format      ascii;
    arch        "LSB;label=32;scalar=64";
    class       surfaceScalarField;
    location    "0.25";
    object      alphaPhi0.glycerin;
}
// * * * * * * * * * * * * * * * * * * * * * * * * * * * * * * * * * * * * * //

dimensions      [0 3 -1 0 0 0 0];

oriented        oriented;

internalField   nonuniform List<scalar> 
12225
(
0
0
0
0
0
0
0
0
0
0
0
0
0
0
0
0
0
0
0
0
0
0
0
0
0
0
0
0
0
0
0
0
0
0
0
0
0
0
0
0
0
0
0
0
0
0
0
0
0
0
0
0
0
0
0
0
0
0
0
0
0
0
0
0
0
0
0
0
0
0
0
0
0
0
0
0
0
0
0
0
0
0
0
0
0
0
0
0
0
0
0
0
0
0
0
0
0
0
0
0
0
0
0
0
0
0
0
0
0
0
0
0
0
0
0
0
0
0
0
0
0
0
0
0
0
0
0
0
0
0
0
0
0
0
0
0
0
0
0
0
0
0
0
0
0
0
0
0
0
0
0
0
0
0
0
0
0
0
0
0
0
0
0
0
0
0
0
0
0
0
0
0
0
0
0
0
-0
0
-1.00605e-311
-1.31061e-313
-2.04862e-294
-3.02775e-296
-5.21989e-277
-8.7755e-279
-1.43146e-259
-2.74444e-261
-1.11221e-242
-2.43781e-244
-4.86925e-226
-1.22312e-227
-1.42577e-209
-4.11431e-211
-3.72631e-193
-1.23832e-194
-7.55508e-177
-2.89858e-178
-1.62982e-152
-7.23814e-154
-1.43235e-133
-7.38443e-135
-2.80875e-116
-1.68626e-117
-8.87826e-104
-6.23021e-105
-2.17062e-92
-1.7893e-93
-3.98708e-81
-3.88512e-82
-8.51223e-70
-9.88514e-71
-1.9933e-59
-2.78915e-60
-1.99324e-52
-3.41288e-53
-1.61199e-46
-3.45555e-47
-4.45858e-41
-1.24079e-41
-3.54018e-36
-1.36613e-36
-3.5439e-32
-2.16701e-32
-2.41282e-30
-4.133e-30
2.51849e-30
-1.36563e-29
3.08295e-30
-3.33235e-30
1.03458e-30
5.43141e-31
-3.96902e-30
1.88088e-30
-1.09193e-29
9.76515e-31
-1.16095e-30
-1.48097e-30
3.16454e-07
1.21238e-07
2.82832e-07
3.36249e-08
2.4122e-07
4.1612e-08
2.10665e-07
3.05558e-08
2.04792e-07
5.87241e-09
2.10596e-07
-5.80374e-09
2.10998e-07
-4.0187e-10
2.04735e-07
6.26251e-09
1.9871e-07
6.0251e-09
1.93485e-07
5.22496e-09
1.85102e-07
8.36357e-09
1.7276e-07
1.2342e-08
1.59197e-07
1.35618e-08
1.46239e-07
1.29737e-08
1.33614e-07
1.26251e-08
1.21245e-07
1.23686e-08
1.09965e-07
1.12676e-08
1.00612e-07
9.35714e-09
9.35106e-08
7.10574e-09
8.90697e-08
4.44098e-09
8.78901e-08
1.16906e-09
9.00572e-08
-2.16774e-09
9.35152e-08
-3.45855e-09
9.47387e-08
-1.2103e-09
9.18048e-08
2.93414e-09
8.59319e-08
5.8729e-09
7.85305e-08
7.40139e-09
7.03847e-08
8.14579e-09
6.20424e-08
8.34235e-09
5.39739e-08
8.06845e-09
4.65344e-08
7.42901e-09
3.99714e-08
6.55164e-09
3.43047e-08
5.66392e-09
2.94681e-08
4.83118e-09
2.53888e-08
4.06809e-09
2.19188e-08
3.4585e-09
1.8891e-08
3.03523e-09
1.61318e-08
2.74825e-09
1.36946e-08
2.36544e-09
1.17839e-08
1.89024e-09
1.03953e-08
1.39518e-09
9.20126e-09
1.19419e-09
7.89718e-09
1.30009e-09
6.47764e-09
1.41815e-09
5.17642e-09
1.29935e-09
4.19284e-09
9.83233e-10
3.71476e-09
4.63898e-10
3.91751e-09
-1.86052e-10
4.97557e-09
-9.85214e-10
6.71055e-09
-1.66349e-09
8.66354e-09
-1.95028e-09
1.02835e-08
-1.62007e-09
1.11106e-08
-8.27096e-10
1.0729e-08
3.81592e-10
9.46113e-09
1.26783e-09
7.88704e-09
1.5741e-09
6.69221e-09
1.19483e-09
6.68465e-09
7.55324e-12
8.26369e-09
-1.57914e-09
1.12162e-08
-2.95257e-09
1.46237e-08
-3.4076e-09
1.74111e-08
-2.78753e-09
1.87281e-08
-1.31701e-09
1.84926e-08
2.35473e-10
1.7794e-08
6.98661e-10
1.77428e-08
5.11463e-11
1.81669e-08
-4.24103e-10
1.8914e-08
-7.47119e-10
2.00873e-08
-1.17327e-09
2.16144e-08
-1.52705e-09
2.31197e-08
-1.50544e-09
2.44529e-08
-1.33356e-09
2.6081e-08
-1.62884e-09
2.88354e-08
-2.75539e-09
3.29144e-08
-4.07896e-09
3.78778e-08
-4.96439e-09
4.27041e-08
-4.81688e-09
4.63148e-08
-3.59781e-09
4.81705e-08
-1.85571e-09
4.84287e-08
-2.58265e-10
4.81591e-08
2.69598e-10
4.86538e-08
-4.94656e-10
5.06962e-08
-2.04236e-09
5.43438e-08
-3.6476e-09
5.85712e-08
-4.22752e-09
6.20671e-08
-3.49596e-09
6.45782e-08
-2.51102e-09
6.69247e-08
-2.34647e-09
6.98677e-08
-2.95415e-09
7.36714e-08
-3.80632e-09
7.80445e-08
-4.3739e-09
8.25235e-08
-4.47968e-09
8.71012e-08
-4.57845e-09
9.26347e-08
-5.52201e-09
1.00006e-07
-7.37115e-09
1.09317e-07
-9.31066e-09
1.20057e-07
-1.07405e-08
1.30297e-07
-1.13348e-08
1.40591e-07
-1.05422e-08
1.48159e-07
-7.68291e-09
1.52222e-07
-3.16531e-09
1.52862e-07
-3.84153e-10
1.52923e-07
9.52148e-11
1.52021e-07
-7.51945e-10
1.52848e-07
-1.60383e-09
1.54805e-07
-1.08056e-09
1.56799e-07
-5.71553e-10
1.58116e-07
-1.31587e-09
1.61696e-07
-3.5795e-09
1.6951e-07
-8.19984e-09
1.79571e-07
-7.74373e-09
1.87163e-07
-4.80015e-09
1.91084e-07
-2.27427e-09
1.89907e-07
1.17702e-09
1.87519e-07
2.38923e-09
1.8668e-07
7.28605e-10
1.86037e-07
4.14803e-10
1.83891e-07
2.04872e-09
1.79072e-07
4.81985e-09
1.72365e-07
6.70683e-09
1.64853e-07
6.68935e-09
1.59004e-07
5.44323e-09
1.596e-07
1.96231e-11
1.65828e-07
-5.33748e-09
1.75488e-07
-6.15495e-09
1.82256e-07
-3.45297e-09
1.84512e-07
-1.54588e-09
1.8571e-07
-1.08351e-09
1.86351e-07
-4.23232e-10
1.83247e-07
3.10371e-09
1.76422e-07
6.82501e-09
9.40206e-09
0
0
0
0
0
0
0
0
0
0
0
0
0
0
0
0
0
0
0
0
0
0
0
0
0
0
0
0
0
0
0
0
0
0
0
0
0
0
0
0
0
0
0
0
0
0
0
0
0
0
0
0
0
0
0
0
0
0
0
0
0
0
0
0
0
0
0
0
0
0
0
0
0
0
0
0
0
0
0
0
0
0
0
0
0
0
0
0
0
0
0
0
0
0
0
0
0
0
0
0
0
0
0
0
0
0
0
0
0
0
0
0
0
0
0
0
0
0
0
0
0
0
0
0
0
0
0
0
0
0
0
0
0
0
0
0
0
0
0
0
0
0
0
0
0
0
0
0
0
0
0
0
0
0
0
0
0
0
0
0
0
0
0
0
0
0
0
0
0
0
0
0
0
0
0
0
-0
0
-5.98385e-313
-6.29005e-315
-1.31532e-295
-1.57082e-297
-3.61771e-278
-4.91791e-280
-1.0708e-260
-1.65987e-262
-8.97858e-244
-1.58938e-245
-4.24149e-227
-8.58486e-229
-1.34005e-210
-3.10424e-212
-3.77933e-194
-1.0027e-195
-8.27153e-178
-2.51442e-179
-1.92744e-153
-6.7136e-155
-1.83167e-134
-7.30855e-136
-3.88997e-117
-1.777e-118
-1.33486e-104
-6.97505e-106
-3.55646e-93
-2.12322e-94
-7.15623e-82
-4.874e-83
-1.68573e-70
-1.30753e-71
-4.39944e-60
-3.87838e-61
-4.97446e-53
-4.97276e-54
-4.64901e-47
-5.25665e-48
-1.53882e-41
-1.96164e-42
-1.55888e-36
-2.23131e-37
-2.27086e-32
-3.6147e-33
-3.99771e-30
-6.95959e-31
-1.53957e-29
-2.86765e-30
-1.58282e-29
-3.21738e-30
-1.27079e-29
-3.12429e-30
-8.77988e-30
-2.93111e-30
-7.57578e-30
-4.39866e-30
-9.98776e-31
-1.58518e-30
1.33279e-07
1.64176e-09
1.73136e-07
-2.09057e-09
4.77333e-07
7.89723e-09
5.97423e-07
7.56138e-08
5.80572e-07
1.02093e-08
5.87278e-07
-5.37914e-09
5.57892e-07
2.89843e-08
5.26432e-07
3.77217e-08
5.09482e-07
2.29752e-08
5.00327e-07
1.43799e-08
4.85115e-07
2.3575e-08
4.60538e-07
3.69186e-08
4.33461e-07
4.06401e-08
4.08227e-07
3.82075e-08
3.8214e-07
3.83238e-08
3.54776e-07
3.97081e-08
3.28779e-07
3.72403e-08
3.06895e-07
3.15435e-08
2.88312e-07
2.57041e-08
2.73357e-07
1.93959e-08
2.63149e-07
1.13766e-08
2.58399e-07
2.58235e-09
2.5604e-07
-1.09947e-09
2.48854e-07
5.97524e-09
2.32178e-07
1.9611e-08
2.11593e-07
2.64573e-08
1.9067e-07
2.83249e-08
1.69736e-07
2.90795e-08
1.49246e-07
2.88327e-08
1.30031e-07
2.72826e-08
1.12554e-07
2.49068e-08
9.68732e-08
2.22321e-08
8.28932e-08
1.9644e-08
7.08648e-08
1.68595e-08
6.08027e-08
1.41302e-08
5.22859e-08
1.19753e-08
4.48836e-08
1.04376e-08
3.69106e-08
8.30459e-09
3.06735e-08
6.805e-09
2.75667e-08
5.7305e-09
2.46984e-08
4.49039e-09
2.19449e-08
3.94791e-09
1.86696e-08
4.57556e-09
1.4894e-08
5.19391e-09
1.13071e-08
4.88649e-09
7.87194e-09
3.49658e-09
5.97044e-09
2.0124e-09
5.50069e-09
2.5852e-10
6.77642e-09
-2.28625e-09
9.67942e-09
-4.45948e-09
1.27985e-08
-5.30695e-09
1.60646e-08
-4.30242e-09
1.89006e-08
-2.96184e-09
2.03642e-08
-5.51091e-10
2.00453e-08
1.94464e-09
1.88596e-08
2.47794e-09
1.80322e-08
2.02218e-09
1.90556e-08
-1.01578e-09
2.30115e-08
-5.53633e-09
2.94743e-08
-9.41613e-09
3.6733e-08
-1.0667e-08
4.27754e-08
-9.36396e-09
4.63141e-08
-4.55942e-09
4.79364e-08
-4.55272e-10
5.03302e-08
-4.40523e-10
5.35331e-08
-2.48501e-09
5.66419e-08
-3.53297e-09
5.9599e-08
-3.70422e-09
6.31908e-08
-4.76502e-09
6.74802e-08
-5.8165e-09
7.14438e-08
-5.46899e-09
7.43817e-08
-4.27186e-09
7.74107e-08
-4.65994e-09
8.29719e-08
-8.32119e-09
9.11104e-08
-1.22235e-08
1.01048e-07
-1.5286e-08
1.11446e-07
-1.52813e-08
1.19984e-07
-1.21085e-08
1.25513e-07
-7.3559e-09
1.2955e-07
-3.88766e-09
1.32401e-07
-2.49325e-09
1.36343e-07
-4.43703e-09
1.43677e-07
-9.37612e-09
1.54453e-07
-1.44238e-08
1.66641e-07
-1.64155e-08
1.77315e-07
-1.41698e-08
1.8529e-07
-1.04857e-08
1.9291e-07
-9.96687e-09
2.02042e-07
-1.20858e-08
2.12899e-07
-1.46634e-08
2.24776e-07
-1.62501e-08
2.36604e-07
-1.63067e-08
2.47988e-07
-1.59653e-08
2.60788e-07
-1.83245e-08
2.77035e-07
-2.37161e-08
2.96437e-07
-2.87113e-08
3.17899e-07
-3.2203e-08
3.40498e-07
-3.39329e-08
3.63321e-07
-3.33652e-08
3.84088e-07
-2.95272e-08
4.00054e-07
-1.61e-08
4.10944e-07
-9.1517e-09
4.18602e-07
-7.40675e-09
4.01803e-07
-1.08793e-08
4.00291e-07
-1.59888e-08
4.33416e-07
-1.47293e-08
4.71463e-07
-1.09715e-08
4.8231e-07
-9.81235e-09
4.9246e-07
-1.36734e-08
5.06265e-07
-2.19467e-08
3.24554e-07
-2.76972e-08
3.38491e-07
-2.48504e-08
3.46128e-07
-1.5974e-08
4.88308e-07
-3.79123e-09
5.61412e-07
2.1266e-09
5.15101e-07
2.45271e-09
4.86213e-07
-1.08652e-09
5.04893e-07
2.75667e-09
5.31036e-07
1.48678e-08
5.22283e-07
2.41815e-08
5.10488e-07
1.85704e-08
4.97891e-07
1.80484e-08
4.90097e-07
7.82143e-09
2.74197e-07
-6.12375e-09
2.74445e-07
-1.37733e-08
2.77135e-07
-1.35167e-08
4.5322e-07
-7.4877e-09
5.14001e-07
-9.54961e-09
5.1601e-07
-3.13752e-09
4.94829e-07
2.01646e-08
4.62827e-07
3.13895e-08
2.30567e-08
0
0
0
0
0
0
0
0
0
0
0
0
0
0
0
0
0
0
0
0
0
0
0
0
0
0
0
0
0
0
0
0
0
0
0
0
0
0
0
0
0
0
0
0
0
0
0
0
0
0
0
0
0
0
0
0
0
0
0
0
0
0
0
0
0
0
0
0
0
0
0
0
0
0
0
0
0
0
0
0
0
0
0
0
0
0
0
0
0
0
0
0
0
0
0
0
0
0
0
0
0
0
0
0
0
0
0
0
0
0
0
0
0
0
0
0
0
0
0
0
0
0
0
0
0
0
0
0
0
0
0
0
0
0
0
0
0
0
0
0
0
0
0
0
0
0
0
0
0
0
0
0
0
0
0
0
0
0
0
0
0
0
0
0
0
0
0
0
0
0
0
0
0
0
0
0
-0
0
-3.42714e-314
-3.89364e-316
-8.04e-297
-1.02824e-298
-2.35586e-279
-3.39423e-281
-7.41409e-262
-1.20418e-263
-6.59536e-245
-1.20821e-246
-3.29795e-228
-6.81693e-230
-1.10037e-211
-2.56711e-213
-3.26999e-195
-8.61128e-197
-7.52473e-179
-2.23678e-180
-1.83992e-154
-6.17255e-156
-1.83157e-135
-6.93211e-137
-4.06884e-118
-1.73635e-119
-1.45904e-105
-7.01472e-107
-4.05973e-94
-2.1966e-95
-8.52896e-83
-5.18648e-84
-2.09778e-71
-1.43135e-72
-5.71845e-61
-4.36959e-62
-6.75708e-54
-5.76979e-55
-6.60308e-48
-6.28638e-49
-2.28527e-42
-2.42039e-43
-2.41813e-37
-2.84444e-38
-3.65353e-33
-4.77246e-34
-6.61608e-31
-9.62275e-32
-3.13414e-30
-5.12598e-31
-5.48018e-30
-1.02659e-30
-7.22357e-30
-1.60653e-30
-8.20149e-30
-2.2681e-30
-1.00368e-29
-3.80667e-30
1.54858e-09
4.39861e-10
3.6208e-09
-3.52062e-10
1.70423e-09
-1.58732e-10
3.11726e-08
5.28662e-10
1.81852e-07
1.59214e-09
1.63168e-07
-1.89782e-09
1.2864e-07
-2.38316e-10
2.86656e-07
6.46628e-09
7.25025e-07
2.32922e-08
7.63002e-07
1.18796e-08
7.87062e-07
-3.66352e-09
7.60386e-07
5.02514e-08
7.13129e-07
8.41759e-08
6.79119e-07
7.46495e-08
6.59355e-07
5.79717e-08
6.35005e-07
6.26536e-08
6.00135e-07
7.4606e-08
5.64049e-07
7.33265e-08
5.33577e-07
6.2016e-08
5.07143e-07
5.21374e-08
4.81583e-07
4.49559e-08
4.50545e-07
3.35839e-08
3.95581e-07
1.14852e-08
3.27e-07
-2.45594e-09
3.05747e-07
9.42607e-09
3.03945e-07
2.35612e-08
3.07015e-07
3.87565e-08
2.79024e-07
4.56022e-08
2.46414e-07
4.71546e-08
2.17515e-07
4.42126e-08
1.88857e-07
3.92873e-08
1.48238e-07
3.21026e-08
1.00592e-07
1.92766e-08
8.51945e-08
1.13516e-08
7.59901e-08
9.98217e-09
6.49298e-08
8.80107e-09
5.50459e-08
7.26396e-09
4.81454e-08
6.60168e-09
4.34091e-08
7.83753e-09
3.89706e-08
9.87428e-09
3.67462e-08
8.33882e-09
3.53777e-08
5.16885e-09
3.26727e-08
4.54067e-09
2.61235e-08
5.15315e-09
1.86192e-08
6.03697e-09
1.243e-08
5.4217e-09
6.8327e-09
5.70486e-09
1.48138e-09
5.88996e-09
-6.68463e-10
2.035e-09
-5.66583e-10
-1.77717e-09
1.63279e-09
-6.04806e-09
3.75521e-09
-8.86819e-09
4.96012e-09
-9.97343e-09
6.46531e-09
-9.4871e-09
1.19775e-08
-3.993e-09
1.22792e-08
8.31325e-10
1.23544e-08
1.13518e-09
1.88414e-08
-1.43964e-15
2.43205e-08
-4.53664e-15
3.02455e-08
-4.37317e-09
3.8057e-08
-1.70171e-08
4.42331e-08
-1.64291e-08
3.36574e-08
-4.24893e-09
3.91295e-09
-8.10385e-10
5.34059e-09
-3.55796e-12
2.71209e-08
-1.26019e-13
7.09229e-08
-1.79963e-16
8.46261e-08
-2.05149e-15
8.76229e-08
-1.68731e-16
9.52913e-08
-3.79846e-09
1.0237e-07
-1.16847e-08
1.03085e-07
-9.56347e-09
9.79176e-08
-2.12493e-09
9.40771e-08
2.08153e-10
9.8737e-08
-3.04628e-09
1.14858e-07
-1.28735e-08
1.30312e-07
-2.78104e-08
1.43698e-07
-2.85666e-08
1.53382e-07
-2.16924e-08
1.26765e-07
-1.13987e-08
8.24188e-08
-1.58518e-09
1.14884e-07
-2.07964e-09
1.70325e-07
-1.54576e-11
2.09413e-07
-7.18867e-15
2.20534e-07
-2.15086e-08
1.87636e-07
-3.14286e-08
1.9233e-07
-1.68741e-08
2.32092e-07
-5.70713e-09
2.8273e-07
-6.54779e-09
3.0222e-07
-2.03956e-08
3.16796e-07
-2.92391e-08
3.30755e-07
-3.0208e-08
3.11495e-07
-3.06006e-08
3.19617e-07
-1.54398e-08
3.58448e-07
-2.11232e-08
3.99521e-07
-4.24451e-08
4.19698e-07
-4.8888e-08
4.3945e-07
-5.19545e-08
4.58741e-07
-5.32243e-08
4.34207e-07
-4.35869e-08
2.23523e-07
-8.9877e-09
2.29355e-07
-1.9078e-09
4.31579e-07
-2.04651e-11
6.45741e-07
-9.69775e-14
6.62197e-07
-7.18643e-09
6.25719e-07
-3.38684e-08
5.75513e-07
-4.25627e-08
5.98523e-07
-3.9345e-08
6.15616e-07
-3.2287e-08
7.64487e-07
-3.28336e-08
7.93173e-07
-4.67628e-08
7.95679e-07
-2.79372e-08
8.2117e-07
-1.76661e-08
8.60402e-07
-1.60442e-08
9.04708e-07
-1.24693e-08
9.55737e-07
-8.68165e-09
9.67417e-07
-6.9285e-09
9.67774e-07
8.61379e-10
2.82315e-07
5.79254e-09
2.72576e-07
1.04297e-08
2.69355e-07
1.32647e-08
2.64686e-07
9.12141e-09
5.93085e-07
9.15572e-09
8.87363e-07
1.11823e-08
8.89312e-07
-4.51522e-09
8.99219e-07
-2.01223e-08
9.10555e-07
-1.08499e-08
9.19668e-07
-2.62217e-09
2.63248e-07
-1.71436e-09
1.78151e-07
4.69959e-09
1.7046e-07
3.64779e-09
1.75367e-07
2.17865e-09
8.29379e-09
0
0
0
0
0
0
0
0
0
0
0
0
0
0
0
0
0
0
0
0
0
0
0
0
0
0
0
0
0
0
0
0
0
0
0
0
0
0
0
0
0
0
0
0
0
0
0
0
0
0
0
0
0
0
0
0
0
0
0
0
0
0
0
0
0
0
0
0
0
0
0
0
0
0
0
0
0
0
0
0
0
0
0
0
0
0
0
0
0
0
0
0
0
0
0
0
0
0
0
0
0
0
0
0
0
0
0
0
0
0
0
0
0
0
0
0
0
0
0
0
0
0
0
0
0
0
0
0
0
0
0
0
0
0
0
0
0
0
0
0
0
0
0
0
0
0
0
0
0
0
0
0
0
0
0
0
0
0
0
0
0
0
0
0
0
0
0
0
0
0
0
0
0
0
0
0
0
0
-2.19337e-315
-2.72949e-317
-5.44184e-298
-7.59311e-300
-1.68177e-280
-2.63154e-282
-5.56611e-263
-9.76715e-265
-5.19176e-246
-1.02149e-247
-2.71386e-229
-5.98507e-231
-9.43715e-213
-2.33166e-214
-2.91419e-196
-8.06092e-198
-6.94864e-180
-2.14994e-181
-1.75585e-155
-6.07031e-157
-1.80197e-136
-6.95213e-138
-4.11828e-119
-1.77057e-120
-1.5167e-106
-7.25496e-108
-4.32874e-95
-2.29989e-96
-9.32044e-84
-5.4909e-85
-2.34877e-72
-1.5317e-73
-6.5613e-62
-4.72908e-63
-7.95123e-55
-6.32575e-56
-7.9794e-49
-7.00112e-50
-2.84158e-43
-2.74915e-44
-3.10228e-38
-3.31194e-39
-4.85724e-34
-5.73376e-35
-9.23675e-32
-1.20964e-32
-5.49892e-31
-8.03e-32
-1.39894e-30
-2.29294e-31
-2.61372e-30
-4.85549e-31
-4.15408e-30
-8.82359e-31
-6.45664e-30
-1.58398e-30
8.01123e-10
5.05571e-11
4.60216e-10
7.71219e-12
3.06835e-10
-2.85678e-12
7.86278e-10
6.28132e-11
2.16776e-09
2.11222e-10
4.89875e-10
-2.20206e-10
2.86352e-10
-3.52379e-11
6.73114e-09
2.26271e-11
8.69185e-08
4.68706e-10
1.02165e-07
-4.70396e-10
6.44584e-08
-2.76159e-11
1.85099e-07
3.41466e-09
7.84084e-07
1.20346e-08
9.61372e-07
7.14648e-08
9.89906e-07
2.94376e-08
9.67627e-07
8.4936e-08
9.05288e-07
1.36951e-07
6.33473e-07
9.94911e-08
6.18461e-07
5.34398e-08
6.10999e-07
3.81994e-08
7.88417e-07
3.90387e-08
7.60338e-07
5.27313e-08
5.71911e-07
1.82549e-08
1.96392e-07
-1.65067e-08
3.19609e-08
-1.60142e-09
1.05439e-07
3.33394e-10
1.22016e-07
-5.76322e-11
1.08356e-07
-2.19104e-10
1.14226e-07
-2.15805e-10
1.04208e-07
4.88673e-10
5.55398e-08
-8.33002e-11
1.17718e-08
-3.81017e-11
5.45929e-09
-1.65443e-11
4.42489e-09
-3.73885e-12
3.44856e-09
-2.1726e-12
2.52384e-09
-2.27838e-12
1.83535e-09
-2.03397e-12
1.54843e-09
-5.77813e-12
3.00293e-09
-6.76975e-12
1.17892e-08
-9.48865e-12
3.59347e-08
1.33291e-10
3.54066e-08
2.24186e-09
2.13364e-08
1.08756e-09
6.01685e-10
-1.21463e-10
8.06941e-10
1.39552e-11
7.66364e-10
1.67598e-12
7.11663e-10
1.21515e-12
-3.51691e-10
1.21596e-12
-4.00927e-09
2.66432e-10
-7.26074e-09
1.7359e-10
-1.12081e-08
-3.54017e-11
-1.86844e-08
8.97137e-10
-2.33115e-08
-2.17863e-09
-2.41298e-08
-1.00817e-08
-1.94852e-08
-5.57703e-09
-9.91121e-09
8.41634e-10
-5.28742e-15
5.0165e-10
4.06143e-15
-1.36479e-14
1.2936e-14
-1.62353e-14
2.27397e-08
-1.31719e-13
3.29959e-08
-1.88774e-14
1.37291e-08
-3.47324e-14
8.13394e-10
-5.25437e-13
3.51654e-12
-6.12832e-13
6.28235e-15
-4.34836e-14
1.58943e-15
-1.18866e-13
1.30473e-15
-6.14562e-16
1.21568e-15
-3.95069e-15
1.43024e-15
-2.68468e-15
3.8045e-08
-1.06742e-13
5.82258e-08
-4.65951e-13
3.00537e-08
-2.06813e-12
-6.14007e-11
-2.99832e-12
3.02219e-10
-8.99094e-13
5.05801e-09
-2.81524e-12
4.11983e-08
-7.80837e-12
8.04872e-08
-2.7527e-09
9.97424e-08
-1.42352e-08
9.99011e-08
-1.86105e-08
4.51028e-08
9.5003e-10
2.09242e-09
2.17883e-09
1.54656e-11
-2.57216e-12
1.00149e-13
-1.49574e-13
6.77682e-14
-3.21726e-14
1.56545e-07
-3.26951e-13
1.13704e-07
-2.89101e-14
7.1523e-09
-3.22724e-14
3.50809e-09
-6.09213e-10
6.75641e-08
-1.19119e-09
2.9284e-07
-8.67759e-10
3.43877e-07
-3.70351e-12
3.00286e-07
-5.97153e-14
1.12208e-07
-1.10677e-13
8.4518e-08
-1.85553e-13
2.51774e-07
-2.36409e-14
4.6982e-07
-2.12286e-08
4.78225e-07
-5.72414e-08
4.86712e-07
-6.04418e-08
4.67053e-07
-3.3565e-08
3.32435e-08
-6.65812e-09
1.92461e-09
-5.60053e-11
1.99231e-11
-3.97248e-12
8.11231e-13
-1.80419e-12
7.55712e-13
-4.92647e-13
1.80994e-07
-9.90502e-12
7.9209e-07
-3.5102e-12
7.94124e-07
-1.46641e-12
7.74214e-07
-1.11646e-12
7.98036e-07
-1.82141e-12
7.84958e-07
-9.69352e-13
4.99945e-07
-6.94177e-14
2.8341e-07
-5.09148e-08
3.05273e-07
-7.20549e-08
3.31757e-07
-7.5034e-08
3.67837e-07
-8.10896e-08
4.02755e-07
-7.61047e-08
9.62881e-07
-4.06976e-08
1.30868e-06
-1.90525e-08
1.33048e-06
1.06773e-08
1.29121e-06
7.65345e-08
1.19566e-06
7.7787e-08
1.1698e-06
3.9388e-08
1.34121e-06
7.75942e-09
1.38183e-06
-4.40917e-09
1.38549e-06
-3.64848e-09
7.69973e-07
-1.22244e-08
1.5055e-07
-3.23668e-08
1.69142e-07
-2.75983e-08
1.82765e-07
-2.12537e-08
1.79248e-07
2.10289e-09
7.89092e-07
2.18002e-08
7.65815e-07
4.76933e-08
4.38268e-08
0
0
0
0
0
0
0
0
0
0
0
0
0
0
0
0
0
0
0
0
0
0
0
0
0
0
0
0
0
0
0
0
0
0
0
0
0
0
0
0
0
0
0
0
0
0
0
0
0
0
0
0
0
0
0
0
0
0
0
0
0
0
0
0
0
0
0
0
0
0
0
0
0
0
0
0
0
0
0
0
0
0
0
0
0
0
0
0
0
0
0
0
0
0
0
0
0
0
0
0
0
0
0
0
0
0
0
0
0
0
0
0
0
0
0
0
0
0
0
0
0
0
0
0
0
0
0
0
0
0
0
0
0
0
0
0
0
0
0
0
0
0
0
0
0
0
0
0
0
0
0
0
0
0
0
0
0
0
0
0
0
0
0
0
0
0
0
0
0
0
0
0
0
0
0
0
0
0
-1.50689e-316
-1.92064e-318
-3.93168e-299
-5.60121e-301
-1.27393e-281
-2.02826e-283
-4.40669e-264
-7.83879e-266
-4.28216e-247
-8.5071e-249
-2.32443e-230
-5.15443e-232
-8.36645e-214
-2.06945e-215
-2.66565e-197
-7.34858e-199
-6.53763e-181
-2.00669e-182
-1.69417e-156
-5.78335e-158
-1.77813e-137
-6.7419e-139
-4.14566e-120
-1.7433e-121
-1.55421e-107
-7.23684e-109
-4.50769e-96
-2.32004e-97
-9.85093e-85
-5.5939e-86
-2.51805e-73
-1.57458e-74
-7.13608e-63
-4.90442e-64
-8.78238e-56
-6.62168e-57
-8.97e-50
-7.4073e-51
-3.26246e-44
-2.94675e-45
-3.65562e-39
-3.60818e-40
-5.91524e-35
-6.37758e-36
-1.17968e-32
-1.38957e-33
-8.58139e-32
-1.1053e-32
-2.87698e-31
-4.0576e-32
-6.95029e-31
-1.07511e-31
-1.39689e-30
-2.37142e-31
-2.79207e-30
-2.01952e-31
3.78585e-11
2.22737e-12
4.49183e-11
7.24511e-13
4.20113e-11
2.32233e-13
1.01293e-10
3.98076e-12
2.98967e-10
1.38931e-11
8.6567e-11
-7.79999e-12
5.3532e-11
-2.23373e-12
7.5758e-11
4.31081e-13
5.00255e-10
4.28131e-11
3.29732e-11
-5.71011e-12
2.87471e-12
-2.61356e-13
3.39776e-09
1.85491e-11
7.00023e-08
1.48506e-09
1.78422e-07
-2.81522e-10
1.54823e-07
-7.49706e-10
2.95554e-07
2.53599e-09
1.04775e-06
1.47806e-08
1.11479e-06
1.19704e-07
1.13321e-06
6.37913e-08
1.08369e-06
2.41874e-08
3.80402e-07
8.52101e-09
5.84485e-07
2.59096e-08
5.86754e-07
4.05142e-09
2.27577e-07
-3.99183e-08
5.3637e-10
-1.27351e-09
6.21141e-10
2.20754e-11
5.33679e-10
5.55672e-12
3.03455e-10
-5.84264e-13
9.49028e-11
-6.62813e-12
1.50932e-10
-2.10146e-12
7.23202e-11
-5.58125e-12
3.43936e-11
-2.57336e-13
1.79898e-11
-1.46197e-13
1.42824e-11
-3.17928e-14
1.21375e-11
-2.78006e-14
9.88623e-12
-2.70827e-14
7.86559e-12
-1.33344e-14
6.99945e-12
-2.74984e-13
9.35582e-12
-9.62428e-13
7.2562e-12
-3.76911e-13
7.70884e-11
-1.09178e-11
1.56573e-10
-7.2412e-11
1.2803e-10
-8.2938e-12
3.55034e-12
-7.3636e-12
3.52619e-12
-1.20373e-12
3.65728e-12
-3.57928e-14
2.67997e-12
1.04689e-12
4.73929e-12
-2.78844e-13
4.45032e-11
-1.79755e-11
2.66915e-11
-1.55915e-11
1.12893e-14
-1.03866e-13
9.10214e-10
-2.50708e-12
-2.51804e-08
4.17497e-12
-7.13571e-08
-2.03889e-12
-6.81649e-08
-4.73455e-10
-5.61572e-10
-3.98318e-10
-5.0653e-14
-5.98696e-11
-4.6073e-14
-2.05417e-14
1.33682e-13
6.51423e-15
3.09554e-15
-1.26239e-15
1.96077e-15
-1.78299e-14
1.60528e-15
-3.45068e-14
1.92462e-15
-5.25886e-13
7.96057e-14
-1.13447e-12
7.26019e-13
-2.1324e-14
6.02261e-13
2.32172e-13
9.81526e-14
8.61255e-13
4.73385e-16
4.35284e-13
3.51176e-14
-3.35428e-13
2.56364e-15
-7.46311e-14
7.56876e-16
-4.64602e-13
-4.25361e-15
-2.06356e-12
-4.42047e-13
-2.56099e-12
-6.01395e-13
-7.47225e-13
-3.69923e-13
-3.62744e-12
-8.75355e-12
-2.32413e-13
-2.76136e-09
-1.70064e-13
-1.74692e-08
-4.07894e-13
-2.12485e-08
-2.01965e-11
-2.18058e-09
-6.79441e-11
-3.2185e-12
4.6446e-13
-2.77243e-13
-6.53275e-12
9.87294e-14
-1.52841e-12
7.9219e-14
-3.61678e-13
5.61634e-14
-3.04143e-13
4.60957e-14
-1.90541e-14
3.59864e-14
-2.24106e-14
8.44992e-10
-7.34761e-13
8.70332e-10
-8.97349e-12
3.80248e-12
-1.22336e-12
1.72915e-13
-9.31517e-14
1.59843e-13
-6.86573e-14
1.76892e-13
-1.51253e-13
2.07701e-13
-2.38371e-13
2.13944e-13
-5.17824e-14
2.27871e-07
-3.32209e-13
4.26833e-07
-1.5918e-13
3.21183e-07
-3.9951e-14
5.58639e-08
-2.84259e-12
2.42377e-11
-7.56347e-13
-6.64093e-12
-1.48474e-11
1.981e-12
-1.26353e-11
3.84923e-12
-4.12452e-12
4.88689e-12
2.98604e-13
6.09078e-13
-3.99406e-12
3.55733e-13
-1.57862e-12
2.95622e-13
-8.50341e-15
2.5852e-13
-6.06495e-14
2.58142e-13
-1.15362e-12
3.05972e-13
-5.29418e-13
6.57219e-13
-1.05645e-13
9.40157e-07
-6.79276e-13
9.44607e-07
-3.31742e-12
9.45112e-07
-2.08343e-12
9.39617e-07
-9.30676e-13
9.39081e-07
-1.16352e-12
2.81168e-08
-2.61435e-12
8.2484e-09
-3.4927e-12
1.8926e-08
-1.42503e-13
1.39229e-06
2.18918e-08
1.72727e-06
1.2675e-07
1.72415e-06
7.96109e-08
5.81286e-07
2.63676e-09
5.76922e-07
-4.55767e-08
5.80759e-07
-5.30199e-08
1.45126e-06
-3.68053e-08
1.52955e-06
-2.02243e-08
1.53681e-06
-7.10338e-09
1.54798e-06
-4.40568e-09
6.35258e-08
4.07504e-09
2.2406e-07
5.5073e-09
3.62643e-07
1.79466e-08
1.74431e-08
0
0
0
0
0
0
0
0
0
0
0
0
0
0
0
0
0
0
0
0
0
0
0
0
0
0
0
0
0
0
0
0
0
0
0
0
0
0
0
0
0
0
0
0
0
0
0
0
0
0
0
0
0
0
0
0
0
0
0
0
0
0
0
0
0
0
0
0
0
0
0
0
0
0
0
0
0
0
0
0
0
0
0
0
0
0
0
0
0
0
0
0
0
0
0
0
0
0
0
0
0
0
0
0
0
0
0
0
0
0
0
0
0
0
0
0
0
0
0
0
0
0
0
0
0
0
0
0
0
0
0
0
0
0
0
0
0
0
0
0
0
0
0
0
0
0
0
0
0
0
0
0
0
0
0
0
0
0
0
0
0
0
0
0
0
0
0
0
0
0
0
0
0
0
0
0
0
0
-1.04211e-317
-1.28981e-319
-2.84585e-300
-3.92584e-302
-9.62135e-283
-1.47877e-284
-3.4617e-265
-5.92478e-267
-3.48779e-248
-6.64328e-250
-1.9568e-231
-4.14482e-233
-7.25724e-215
-1.70799e-216
-2.37537e-198
-6.20557e-200
-5.96769e-182
-1.72871e-183
-1.57994e-157
-5.06879e-159
-1.69e-138
-5.99695e-140
-4.00698e-121
-1.57048e-122
-1.52493e-108
-6.59149e-110
-4.48316e-97
-2.13376e-98
-9.9208e-86
-5.19054e-87
-2.56642e-74
-1.47348e-75
-7.36067e-64
-4.62918e-65
-9.17373e-57
-6.30824e-58
-9.50201e-51
-7.13086e-52
-3.51289e-45
-2.87169e-46
-4.01377e-40
-3.56736e-41
-6.65299e-36
-6.41665e-37
-1.37469e-33
-1.43604e-34
-1.18278e-32
-1.33563e-33
-4.89897e-32
-5.96744e-33
-1.44386e-31
-1.89216e-32
-3.47952e-31
-4.88876e-32
-5.22326e-31
-3.12645e-32
2.13909e-12
8.7654e-14
2.83357e-12
5.19306e-14
3.04653e-12
2.71404e-14
6.86275e-12
1.82739e-13
2.0085e-11
6.87858e-13
1.22756e-11
1.49909e-14
1.03223e-11
-2.80922e-13
1.06253e-11
1.29167e-13
5.086e-11
2.50544e-12
3.42194e-11
2.9326e-12
2.95662e-11
1.42627e-12
4.57961e-11
2.30633e-12
1.39735e-09
1.35026e-10
1.09251e-09
2.27744e-11
3.78618e-10
-4.05952e-11
2.89719e-09
2.31974e-11
5.89392e-08
1.99173e-09
2.71452e-07
1.62717e-09
2.50461e-07
-2.57653e-09
2.05783e-07
-7.4873e-10
4.32574e-07
8.37446e-09
8.37713e-07
7.43078e-08
4.58809e-07
8.07176e-09
-1.50901e-08
-3.11366e-08
-5.0602e-10
-1.60842e-08
2.83117e-11
-5.44943e-10
2.7113e-11
-5.57453e-12
1.79327e-11
4.15798e-13
1.14245e-11
5.35953e-13
9.03286e-12
-1.57664e-13
3.22433e-12
2.6007e-14
2.78329e-12
5.89479e-14
2.583e-12
5.37015e-14
2.51121e-12
3.99729e-14
2.44968e-12
3.37165e-14
2.38201e-12
4.05873e-14
2.30264e-12
6.60308e-14
9.47993e-12
1.54188e-12
1.17177e-11
3.6973e-12
1.02244e-11
8.03289e-12
1.27785e-11
-6.45967e-12
6.67911e-11
-3.45062e-13
1.53833e-10
-1.26581e-12
4.02632e-11
9.40206e-12
8.39944e-12
1.2369e-12
6.20697e-12
1.02674e-12
5.22256e-12
8.85728e-13
1.16562e-10
5.37899e-12
1.57066e-10
-5.42773e-12
2.71134e-11
-4.83004e-12
-1.60109e-12
5.09236e-12
4.39657e-12
2.51323e-12
3.57516e-12
4.17884e-12
-2.74053e-13
1.01268e-12
-4.73397e-10
-1.14925e-12
-8.5514e-11
-1.43904e-12
-6.25476e-12
-1.24425e-11
-1.74743e-14
-5.95176e-12
-1.70174e-14
2.88556e-13
1.55147e-13
7.81716e-14
-1.42323e-13
5.06704e-13
-1.56386e-11
2.80843e-12
-1.76019e-11
5.4686e-12
-3.86571e-12
2.74839e-12
-3.96774e-12
7.09856e-13
-2.07893e-12
4.46312e-12
-3.59923e-11
1.34888e-11
-7.08911e-11
2.12508e-11
-2.91274e-11
6.30286e-12
-5.12003e-12
4.17028e-13
-8.4603e-11
3.65949e-12
-8.80851e-11
6.2194e-12
-9.04821e-11
4.56342e-12
-8.62601e-11
-1.68374e-13
-4.15687e-12
-8.65787e-13
-3.59661e-12
-8.80654e-13
-2.71217e-12
-1.1444e-12
-2.00836e-12
-1.19721e-12
-1.5378e-11
-6.91355e-12
-7.15783e-11
-1.20845e-11
-1.08566e-11
2.64975e-12
-1.20512e-11
-2.43169e-12
-4.86365e-12
-3.17908e-13
-3.53897e-13
3.80651e-14
-5.20165e-12
1.719e-14
-4.69064e-12
4.44147e-13
-1.56946e-12
3.89372e-13
-1.576e-12
-3.83328e-12
-1.60363e-12
-1.21777e-11
-4.84646e-13
-1.22108e-11
-1.82875e-13
-2.81003e-12
1.8794e-13
1.10169e-13
9.51431e-13
-1.04286e-12
1.2312e-12
-2.19651e-12
6.62334e-13
-1.15278e-12
3.73917e-13
-4.63354e-14
2.75373e-13
-5.99208e-14
2.42671e-13
-9.79136e-15
3.51749e-13
-2.95095e-12
5.42432e-13
-9.87275e-13
7.944e-12
-1.46155e-12
9.82741e-12
-3.76104e-13
8.93091e-13
-2.89019e-13
-2.86337e-12
4.37803e-12
-1.32361e-11
1.59148e-11
-4.43582e-12
1.16046e-11
-1.07762e-11
8.01011e-12
-3.03093e-11
1.46802e-11
-2.39125e-11
1.21413e-13
-1.04927e-12
-2.04134e-11
1.36116e-14
-1.02776e-12
2.72241e-13
-8.9187e-13
3.36615e-13
-3.40353e-12
3.10097e-13
-2.06144e-12
2.3212e-13
-8.68027e-13
1.67259e-13
-1.10319e-12
2.36634e-13
-2.69786e-12
5.76328e-13
-4.12611e-12
1.3562e-12
-9.72388e-13
3.45865e-07
1.47033e-09
2.48449e-06
8.02218e-08
2.48392e-06
1.13579e-07
2.50471e-06
1.52463e-08
2.5052e-06
-1.27684e-08
2.49231e-06
-8.63796e-09
1.63271e-06
-4.2136e-08
3.34167e-07
-4.47303e-08
3.64391e-07
-4.50154e-08
3.6678e-07
-1.25411e-08
3.57761e-07
9.52071e-09
9.41432e-07
1.44821e-08
1.26612e-06
8.37289e-08
7.62665e-08
0
0
0
0
0
0
0
0
0
0
0
0
0
0
0
0
0
0
0
0
0
0
0
0
0
0
0
0
0
0
0
0
0
0
0
0
0
0
0
0
0
0
0
0
0
0
0
0
0
0
0
0
0
0
0
0
0
0
0
0
0
0
0
0
0
0
0
0
0
0
0
0
0
0
0
0
0
0
0
0
0
0
0
0
0
0
0
0
0
0
0
0
0
0
0
0
0
0
0
0
0
0
0
0
0
0
0
0
0
0
0
0
0
0
0
0
0
0
0
0
0
0
0
0
0
0
0
0
0
0
0
0
0
0
0
0
0
0
0
0
0
0
0
0
0
0
0
0
0
0
0
0
0
0
0
0
0
0
0
0
0
0
0
0
0
0
0
0
0
0
0
0
0
0
0
0
-0
0
-6.91544e-319
-7.90999e-321
-1.96865e-301
-2.50366e-303
-6.9165e-284
-9.77582e-286
-2.57789e-266
-4.04659e-268
-2.6822e-249
-4.67226e-251
-1.54923e-232
-2.99206e-234
-5.8975e-216
-1.26155e-217
-1.97564e-199
-4.6757e-201
-5.06632e-183
-1.32498e-184
-1.36572e-158
-3.94178e-160
-1.48415e-139
-4.72087e-141
-3.56831e-122
-1.24904e-123
-1.375e-109
-5.28827e-111
-4.0885e-98
-1.72492e-99
-9.1446e-87
-4.22503e-88
-2.39054e-75
-1.20744e-76
-6.93047e-65
-3.81993e-66
-8.73831e-58
-5.24619e-59
-9.16904e-52
-5.98464e-53
-3.44064e-46
-2.43664e-47
-3.99952e-41
-3.06687e-42
-6.76674e-37
-5.60562e-38
-1.44047e-34
-1.28594e-35
-1.43542e-33
-1.37696e-34
-7.06679e-33
-7.25966e-34
-2.45174e-32
-2.68616e-33
-6.85676e-32
-7.97229e-33
-9.58692e-32
-4.77068e-33
8.48578e-14
2.69966e-15
1.34932e-13
2.77901e-15
1.61335e-13
1.67578e-15
3.38533e-13
7.47108e-15
9.93146e-13
3.46969e-14
9.97692e-13
1.08411e-14
7.23514e-13
-6.61529e-15
8.44751e-13
7.98882e-15
3.19315e-12
1.52836e-13
5.59022e-12
8.72139e-14
5.88107e-12
1.19107e-13
7.93268e-12
2.22163e-13
1.35397e-10
7.29907e-12
1.54997e-10
3.21372e-12
1.12716e-10
1.46999e-12
1.29917e-10
6.24052e-12
1.96423e-09
1.63223e-10
3.36474e-09
2.28001e-10
9.66449e-10
-1.9272e-10
2.21037e-10
-3.85336e-12
8.49068e-09
1.1763e-10
1.20322e-07
3.7647e-09
1.33435e-07
-1.8372e-09
8.40705e-08
-1.94591e-09
4.98305e-10
-4.7165e-10
1.22167e-11
-2.04338e-11
1.24589e-13
-3.15486e-12
2.62976e-12
-7.52275e-13
4.63821e-12
6.56944e-13
4.81285e-12
3.65687e-13
3.20994e-12
2.30137e-13
2.96457e-12
3.00552e-13
2.87093e-12
1.47072e-13
2.77386e-12
1.37017e-13
2.67073e-12
1.36831e-13
2.57461e-12
1.36698e-13
4.10898e-11
2.02836e-12
9.50086e-11
3.73589e-12
1.43337e-10
5.97036e-12
1.38766e-10
1.24318e-11
5.46186e-11
1.11395e-11
1.13674e-11
6.48279e-12
1.64524e-11
5.77142e-12
3.27e-11
5.19999e-12
1.62454e-11
1.56816e-12
2.87661e-10
1.04213e-11
2.77263e-10
3.07991e-11
2.54151e-10
3.0063e-11
7.6353e-11
9.139e-12
1.17913e-11
2.80544e-12
1.27118e-11
3.18861e-12
1.30287e-11
1.30265e-12
1.44001e-11
2.01189e-12
1.29925e-11
1.56763e-12
1.32789e-10
8.78017e-12
1.53173e-10
-1.12522e-12
1.57139e-10
-1.8656e-13
7.26195e-11
3.62484e-12
2.38116e-12
2.61074e-12
1.35964e-12
1.85999e-13
1.99965e-12
8.83308e-13
5.5193e-12
6.49723e-13
1.05684e-11
1.30252e-12
2.50155e-11
1.26092e-12
7.39999e-11
1.01221e-11
1.55856e-10
1.38761e-11
1.50928e-10
1.9484e-11
5.23243e-11
1.61633e-11
7.2283e-12
5.61946e-12
7.91142e-12
3.39475e-13
1.15985e-11
-1.976e-12
2.42033e-11
-8.06148e-12
7.18714e-11
-1.56355e-11
3.56054e-11
-2.32883e-11
4.08889e-12
-1.22381e-11
5.06677e-12
-1.94761e-12
5.66477e-12
-1.78501e-12
5.76771e-12
-1.38691e-12