/*--------------------------------*- C++ -*----------------------------------*\
| =========                 |                                                 |
| \\      /  F ield         | OpenFOAM: The Open Source CFD Toolbox           |
|  \\    /   O peration     | Version:  2406                                  |
|   \\  /    A nd           | Website:  www.openfoam.com                      |
|    \\/     M anipulation  |                                                 |
\*---------------------------------------------------------------------------*/
FoamFile
{
    version     2.0;
    format      ascii;
    arch        "LSB;label=32;scalar=64";
    class       volScalarField;
    location    "0.25";
    object      p;
}
// * * * * * * * * * * * * * * * * * * * * * * * * * * * * * * * * * * * * * //

dimensions      [1 -1 -2 0 0 0 0];

internalField   nonuniform List<scalar> 
6250
(
2938.52
3296.89
4223.09
4334.68
4124.19
4036.45
4065.36
4099.53
4103.42
4094.51
4089.66
4090.08
4091.31
4091.31
4090.6
4089.99
4089.63
4089.33
4088.99
4088.62
4088.24
4087.88
4087.52
4087.16
4086.8
4086.44
4086.08
4085.72
4085.37
4085.01
4084.65
4084.3
4083.94
4083.58
4083.23
4082.87
4082.52
4082.17
4081.81
4081.46
4081.11
4080.76
4080.41
4080.06
4079.71
4079.37
4079.02
4078.68
4078.34
4078
4077.67
4077.33
4077
4076.68
4076.36
4076.04
4075.73
4075.43
4075.13
4074.84
4074.56
4074.3
4074.04
4073.8
4073.57
4073.36
4073.17
4073.01
4072.86
4072.75
4072.67
4072.63
4072.62
4072.67
4072.76
4072.91
4073.13
4073.43
4073.81
4074.28
4074.85
4075.55
4076.37
4077.34
4078.48
4079.79
4081.31
4083.04
4085.01
4087.24
4089.75
4092.55
4095.66
4099.08
4102.82
4106.85
4111.16
4115.7
4120.4
4125.17
4129.88
4134.38
4138.49
4142.02
4144.74
4146.44
4146.94
4146.1
4143.83
4140.23
4135.27
4129.7
4121.37
4119.4
4121.94
4122.65
4154.85
4121.5
3441.86
3358.13
3286.19
3211.91
3301.74
3340.96
3241.31
3092.77
2975.34
2869.94
2746.97
2621.52
2521.31
2448.87
2392.78
2350.37
2325.97
2320
2328.11
2346.67
2371.89
2393.93
2392.33
2349.92
2273.5
2188.49
2106.05
2027.48
1954.58
1889.93
1834.97
1789.18
1750.42
1716.87
1687.49
1661.22
1637.25
1615.44
1596.49
1581.09
1568.13
1555.23
1541.51
1528.19
1516.45
1505.89
1495.89
1486.13
1475.97
1462.46
1443.43
1419.09
1391.29
1362.48
1338.26
1321.54
1313.42
1313.94
1319.79
1324.7
1322.23
1309.88
1289.28
1268.66
1259.44
1262.97
1271.87
1283.08
1297.33
1312.67
1326.64
1340.45
1357.91
1380.47
1402.86
1419.44
1425.75
1421.57
1411.32
1401.62
1400.4
1411.14
1431.15
1453.32
1468.46
1473.58
1475.77
1483.38
1497.2
1513.22
1526.89
1535.89
1542.42
1552.08
1565.82
1577.03
1577.88
1562.24
1525.25
1462.46
1382.71
1314.99
1273.6
1248.84
1226.23
1194.81
1171.61
1167.85
1183.39
1211.43
1189.19
1087.89
954.939
828.881
768.41
765.149
747.082
697.999
641.24
602.83
594.644
621.685
696.6
773.566
772.17
675.865
556.967
473.753
397.828
279.581
135.193
15.3557
2934.73
3292.2
4222.33
4335.62
4124.3
4035.76
4064.7
4099.22
4103.26
4094.32
4089.44
4089.89
4091.15
4091.18
4090.48
4089.88
4089.53
4089.24
4088.91
4088.54
4088.17
4087.82
4087.46
4087.11
4086.75
4086.4
4086.04
4085.69
4085.33
4084.98
4084.62
4084.27
4083.91
4083.56
4083.21
4082.85
4082.5
4082.15
4081.79
4081.44
4081.09
4080.74
4080.39
4080.04
4079.69
4079.34
4078.99
4078.64
4078.3
4077.96
4077.61
4077.28
4076.94
4076.61
4076.28
4075.95
4075.63
4075.31
4075
4074.7
4074.4
4074.11
4073.83
4073.56
4073.3
4073.06
4072.83
4072.62
4072.42
4072.25
4072.11
4071.99
4071.9
4071.85
4071.83
4071.87
4071.95
4072.09
4072.29
4072.56
4072.92
4073.36
4073.9
4074.56
4075.34
4076.26
4077.34
4078.6
4080.04
4081.7
4083.59
4085.73
4088.14
4090.85
4093.86
4097.19
4100.83
4104.77
4108.97
4113.37
4117.89
4122.4
4126.76
4130.75
4134.12
4136.6
4137.89
4137.71
4135.79
4131.95
4125.77
4117.16
4104.84
4099.61
4113.56
4139.74
4173.13
4147.02
4005.25
3977.46
3603.44
3343.55
3710.18
3785.8
3297.05
2988.88
2931.87
2905.72
2813.96
2689.34
2590.17
2522.47
2460.12
2403.63
2369.49
2359.97
2363.32
2378.1
2407.64
2448.04
2473.21
2434.79
2341.1
2256.1
2184.01
2105.79
2025.55
1954.21
1895.17
1845.33
1800.59
1761.33
1727.56
1696.99
1668.05
1640.32
1619.34
1600.43
1585.49
1571.71
1557.03
1543.39
1532.1
1520.6
1505.28
1492.02
1477.07
1459.76
1439.72
1415.52
1389.28
1359.48
1330.3
1307.99
1295.25
1295.34
1304.98
1315.08
1316.4
1304.13
1275.62
1233.29
1215.83
1223.44
1237.47
1251.99
1271.77
1293.25
1309.21
1319.99
1335.11
1359.71
1382.6
1400.98
1408.69
1404.72
1391.03
1371.37
1349.96
1349.21
1378.96
1419.94
1445.96
1443.41
1427.58
1429.82
1451.67
1477.02
1494.67
1498.9
1491.92
1491.64
1507.5
1525.29
1531.86
1523.41
1495.72
1429.03
1301.72
1160.08
1102.48
1124.8
1174.39
1192.52
1165.98
1123.35
1086.26
1065.69
1030.83
1000.83
974.072
944.095
945.911
982.476
1035.82
1006.09
798.161
575.471
451.072
362.052
402.49
545.294
689.385
790.983
869.524
978.998
872.979
485.503
132.483
-28.6236
2935.61
3293.61
4222.82
4335.58
4124.26
4035.89
4064.9
4099.41
4103.42
4094.47
4089.58
4090.02
4091.28
4091.3
4090.59
4089.98
4089.62
4089.33
4089
4088.62
4088.25
4087.88
4087.53
4087.17
4086.81
4086.45
4086.09
4085.73
4085.37
4085.02
4084.66
4084.3
4083.94
4083.59
4083.23
4082.88
4082.52
4082.16
4081.81
4081.45
4081.1
4080.75
4080.39
4080.04
4079.69
4079.34
4078.99
4078.64
4078.29
4077.95
4077.6
4077.26
4076.92
4076.58
4076.25
4075.92
4075.59
4075.27
4074.95
4074.64
4074.33
4074.03
4073.74
4073.46
4073.19
4072.93
4072.68
4072.44
4072.22
4072.02
4071.84
4071.69
4071.55
4071.45
4071.38
4071.34
4071.34
4071.39
4071.48
4071.62
4071.83
4072.09
4072.43
4072.84
4073.33
4073.91
4074.59
4075.36
4076.24
4077.22
4078.32
4079.52
4080.83
4082.25
4083.75
4085.34
4087
4088.71
4090.44
4092.16
4093.86
4095.48
4096.97
4098.28
4099.34
4100.08
4100.43
4100.34
4099.83
4099.06
4098.49
4099.15
4102.83
4112.42
4127.91
4144.12
4153.78
4152.04
4058.35
3896.08
3705.9
3515.11
3584.32
3499.4
3075.16
2912.76
3215.86
3296.91
2782.22
2366.21
2350.04
2454.43
2459.27
2397.27
2365.66
2362.93
2361.29
2381.17
2470.72
2656.61
2822.28
2720.46
2343.33
2202.93
2174.78
2099.61
2002.93
1904.63
1813.74
1742.71
1701.2
1677.19
1658.02
1636.08
1609.79
1579.59
1567.05
1579.68
1593.93
1585.92
1558.63
1521.17
1501.51
1490.83
1485.82
1498.53
1498.51
1491.17
1461.9
1426.55
1389.19
1348.74
1297.29
1257.09
1259.84
1270
1294.65
1344
1364.88
1341.53
1292.4
1290.25
1277.77
1269.02
1269.78
1243.63
1266.41
1301.54
1295.89
1252.26
1234.51
1329.98
1414.26
1451.48
1444.89
1398.15
1330.97
1318.24
1377.56
1426.5
1449.88
1477.94
1490.1
1471.94
1432.7
1422.17
1429.68
1452.52
1472.95
1468.47
1445.24
1435.29
1469.76
1518.64
1549.17
1562.41
1549.8
1500.79
1474.41
1412.35
1313.53
1143.69
1100.7
1127.22
1119.87
1058.49
1003.68
1011.18
1026.65
1014.29
1010.63
997.426
858.659
596.788
433.741
466.175
538.056
567.475
559.862
525.052
526.072
680.169
944.281
1109
960.536
636.11
354.196
176.135
73.5777
-5.55374
2934.86
3292.34
4222.04
4335.17
4123.97
4035.59
4064.58
4099.09
4103.14
4094.21
4089.35
4089.8
4091.08
4091.1
4090.41
4089.81
4089.47
4089.18
4088.86
4088.49
4088.12
4087.77
4087.41
4087.06
4086.71
4086.35
4086
4085.64
4085.29
4084.94
4084.58
4084.23
4083.87
4083.52
4083.16
4082.81
4082.46
4082.1
4081.75
4081.4
4081.04
4080.69
4080.33
4079.98
4079.63
4079.28
4078.93
4078.58
4078.23
4077.88
4077.53
4077.18
4076.84
4076.49
4076.15
4075.81
4075.48
4075.14
4074.81
4074.49
4074.16
4073.85
4073.53
4073.23
4072.93
4072.64
4072.36
4072.08
4071.82
4071.57
4071.34
4071.12
4070.91
4070.73
4070.56
4070.42
4070.31
4070.23
4070.17
4070.15
4070.17
4070.23
4070.33
4070.47
4070.67
4070.92
4071.22
4071.58
4072
4072.47
4072.99
4073.56
4074.17
4074.81
4075.46
4076.09
4076.69
4077.22
4077.64
4077.89
4077.93
4077.69
4077.12
4076.15
4074.74
4072.87
4070.54
4067.8
4064.75
4061.57
4058.49
4055.66
4053.07
4050
4044.62
4033.54
4010.13
3966.46
3889.33
3854.34
3864.72
3748.81
3424.84
3263.86
3190.95
3152.98
3279.89
3221.45
2868.54
2426.33
2451.1
2801.29
2478.87
1922.98
1913.25
2185
2380.24
2371.84
2261.23
2423.78
2602.83
2452.6
2111.95
1845.46
1770.38
1716.64
1683.09
1642.2
1613.58
1599.05
1588.79
1580.77
1573.64
1567.01
1560.57
1554.73
1548.84
1539.89
1568.85
1545.1
1496.97
1487.72
1480.1
1473.77
1466.82
1466.41
1479.52
1472.9
1417.43
1447.73
1452.7
1401.04
1307.32
1331.46
1361.56
1358.65
1353.93
1398.23
1353.13
1317.82
1306.88
1302.6
1299.09
1291.57
1281.25
1274.68
1265.83
1305.37
1304.46
1278.57
1284.17
1299.87
1320.91
1467.19
1577.89
1508.04
1402.53
1482.56
1563.32
1569.15
1570.74
1563.9
1613.34
1573.96
1570.11
1551.88
1543.15
1597.53
1633.87
1592.67
1591.49
1544.39
1536.37
1608.17
1649.7
1659.38
1642.69
1633.97
1632.65
1616.71
1587.06
1545.92
1503.02
1477.46
1396.82
1297.48
1233.01
1130.44
1011.19
982.4
989.552
979.092
941.794
889.159
821.157
483.981
18.1879
173.885
569.107
922.93
1014
777.404
550.819
517.517
533.623
565.118
606.018
563.835
292.316
65.4556
2934.83
3292.39
4222.15
4335.26
4124.04
4035.65
4064.64
4099.17
4103.23
4094.31
4089.44
4089.89
4091.17
4091.2
4090.51
4089.91
4089.56
4089.28
4088.94
4088.58
4088.21
4087.85
4087.49
4087.14
4086.78
4086.42
4086.07
4085.71
4085.35
4085
4084.64
4084.28
4083.93
4083.57
4083.21
4082.86
4082.5
4082.14
4081.79
4081.43
4081.07
4080.72
4080.36
4080
4079.65
4079.29
4078.94
4078.58
4078.23
4077.87
4077.52
4077.16
4076.81
4076.46
4076.11
4075.76
4075.41
4075.07
4074.72
4074.38
4074.04
4073.71
4073.37
4073.04
4072.71
4072.39
4072.07
4071.76
4071.46
4071.16
4070.86
4070.58
4070.3
4070.04
4069.78
4069.54
4069.31
4069.09
4068.89
4068.7
4068.53
4068.37
4068.23
4068.1
4067.99
4067.89
4067.81
4067.73
4067.65
4067.58
4067.49
4067.38
4067.23
4067.04
4066.77
4066.4
4065.92
4065.27
4064.43
4063.34
4061.96
4060.23
4058.09
4055.47
4052.31
4048.52
4044.04
4038.77
4032.63
4025.48
4017.15
4007.34
3995.61
3981.23
3963.26
3939.96
3909.38
3868.18
3813.19
3746.23
3656.69
3528.99
3469.55
3488.98
3539.27
3486.53
3262.34
3095.77
3005.25
2911.67
2897.08
2866.11
2567.43
1755.38
1454.26
2107.78
2363.96
1764.22
1627.9
1936.74
2199.97
1934.77
1769.25
1669.97
1617.56
1590.61
1584.48
1591.42
1593.39
1590.55
1586.99
1582.82
1577.87
1572.51
1566.98
1560.36
1549.67
1530.86
1508.38
1499.63
1488.58
1482.87
1477.85
1471.19
1463.87
1454.07
1436.03
1426.06
1416.3
1421.92
1452.89
1461.04
1375.9
1362.2
1359.25
1361.34
1359.81
1342.34
1315.25
1307.19
1301.38
1295.62
1289.54
1283.6
1278.53
1270.11
1261.9
1255.17
1267.01
1302.8
1313.44
1308.33
1318.09
1368.73
1418.39
1470.79
1539.11
1550.46
1553.61
1552.69
1553.32
1553.91
1562.04
1570.44
1575.14
1574.13
1583.54
1601.36
1617.36
1632.27
1635.74
1634.43
1641.5
1668.54
1671.5
1621.08
1616.2
1602.83
1598.14
1595.43
1594.57
1595.47
1571.64
1495.23
1450.5
1442.21
1459.78
1448.09
1313.22
1241.84
1235.39
1299.6
1468.22
1598.3
1563.63
1392.21
867.26
20.6006
67.6679
360.012
564.672
675.549
754.177
852.476
883.597
740.455
600.572
383.535
187.808
38.699
2934.59
3291.99
4221.89
4335.08
4123.85
4035.44
4064.44
4098.98
4103.05
4094.13
4089.28
4089.74
4091.02
4091.05
4090.37
4089.77
4089.43
4089.15
4088.82
4088.46
4088.09
4087.74
4087.39
4087.04
4086.68
4086.33
4085.97
4085.62
4085.27
4084.91
4084.56
4084.2
4083.85
4083.49
4083.14
4082.78
4082.43
4082.07
4081.71
4081.36
4081
4080.64
4080.29
4079.93
4079.57
4079.22
4078.86
4078.5
4078.14
4077.78
4077.43
4077.07
4076.71
4076.35
4075.99
4075.63
4075.28
4074.92
4074.56
4074.2
4073.84
4073.49
4073.13
4072.77
4072.41
4072.06
4071.7
4071.35
4070.99
4070.63
4070.28
4069.93
4069.57
4069.22
4068.86
4068.51
4068.15
4067.79
4067.43
4067.06
4066.68
4066.3
4065.91
4065.51
4065.08
4064.64
4064.17
4063.66
4063.11
4062.51
4061.84
4061.09
4060.25
4059.28
4058.18
4056.9
4055.43
4053.72
4051.72
4049.41
4046.71
4043.57
4039.93
4035.72
4030.85
4025.23
4018.75
4011.29
4002.7
3992.79
3981.33
3968
3952.44
3934.12
3912.36
3886.14
3854.22
3814.84
3766.34
3706.94
3639.79
3571.78
3517.03
3455.23
3376.03
3286.32
3239.12
3250.98
3295.81
3287.09
3081.38
2739.71
2532.91
2343.38
2095.52
2083.53
1904.65
1277.64
979.782
1481.31
1867.91
1665.24
1629.11
1609.38
1599.5
1591.42
1583.15
1577.63
1574.44
1571.64
1568.41
1564.92
1561.28
1557.21
1552.21
1545.76
1537.48
1528.05
1517.56
1505.98
1495.3
1486.35
1477.25
1467.37
1457.34
1447.28
1437.92
1430.61
1426.75
1417.3
1380.95
1344.91
1353.67
1357.53
1357.84
1356.5
1352.96
1347.43
1339.77
1329.99
1319.14
1308.21
1297.19
1286.74
1277.4
1269.92
1264.65
1262.3
1264.13
1270.51
1280.88
1294.27
1303.97
1306.97
1341.57
1457.73
1554.05
1564.98
1565.18
1569.14
1571.22
1572.95
1573.38
1573.4
1577.52
1585.08
1593.09
1602.42
1613.32
1625.01
1636.22
1649.38
1652.85
1620.97
1600.11
1605.33
1610.05
1612.92
1612.45
1602.5
1580.83
1554.06
1519.96
1477.45
1430.26
1389.73
1361.65
1321.99
1274.21
1309.11
1297.24
1315.35
1449.95
1610.39
1611.8
1593.47
1544.08
1109.69
445.335
734.707
1143.84
1039.55
938.016
837.568
715.818
582.226
519.549
491.635
309.549
17.6568
2934.47
3291.84
4221.83
4335.06
4123.83
4035.42
4064.43
4098.98
4103.06
4094.15
4089.3
4089.77
4091.05
4091.09
4090.41
4089.82
4089.48
4089.2
4088.88
4088.51
4088.15
4087.79
4087.44
4087.09
4086.74
4086.38
4086.03
4085.68
4085.32
4084.96
4084.61
4084.25
4083.9
4083.54
4083.18
4082.83
4082.47
4082.11
4081.75
4081.39
4081.03
4080.67
4080.31
4079.95
4079.59
4079.23
4078.87
4078.51
4078.14
4077.78
4077.42
4077.05
4076.69
4076.32
4075.95
4075.58
4075.21
4074.84
4074.46
4074.09
4073.71
4073.33
4072.95
4072.57
4072.18
4071.79
4071.39
4070.99
4070.59
4070.18
4069.76
4069.34
4068.91
4068.47
4068.02
4067.55
4067.07
4066.58
4066.06
4065.52
4064.96
4064.37
4063.74
4063.07
4062.36
4061.59
4060.76
4059.85
4058.86
4057.77
4056.57
4055.23
4053.74
4052.08
4050.21
4048.11
4045.74
4043.05
4040.02
4036.59
4032.69
4028.28
4023.27
4017.6
4011.18
4003.9
3995.65
3986.31
3975.72
3963.69
3950
3934.39
3916.51
3895.94
3872.15
3844.54
3812.43
3775.23
3732.75
3685.26
3633.29
3576.04
3511.47
3441.21
3371.86
3310.85
3259.52
3198.03
3107.98
2986.34
2869.61
2822.33
2851.61
2882.53
2661.35
2126.65
1782.99
1556.46
1258.22
859.87
1171.35
1532.71
1612.96
1632.63
1621.84
1612.17
1606.88
1602.11
1597.16
1592.43
1587.27
1581.45
1575.49
1569.3
1562.37
1554.42
1545.1
1534.49
1522.78
1510.96
1500.09
1489.88
1479.32
1467.63
1455.13
1442.64
1431.13
1421.28
1411.18
1398.36
1385.01
1375.88
1368.67
1362.42
1361.92
1361.19
1357.15
1350.69
1341.91
1331.24
1319.29
1306.63
1292.47
1276.77
1262.18
1253.18
1250.8
1253.04
1255.5
1260.92
1273.99
1298.43
1333.02
1375.59
1425.98
1478.05
1516.72
1536.79
1544.74
1553.28
1562.17
1566.75
1566.92
1565.4
1565.74
1570.68
1580.47
1593.79
1607.36
1619.86
1631.34
1638.57
1634.69
1625.83
1618.04
1614.37
1616.04
1622.04
1627.72
1626.97
1615.46
1588.15
1547.98
1501.76
1450.7
1397.64
1374.85
1365.49
1343.08
1311.72
1284.13
1265.27
1272.92
1320.32
1400.08
1452.17
1506.91
1596.46
1470.48
1603.26
1593.9
1245.92
1042.25
1116.65
1302.82
1158.17
571.681
127.524
-9.02278
-88.1062
2934.35
3291.67
4221.73
4334.99
4123.74
4035.33
4064.33
4098.89
4102.97
4094.06
4089.21
4089.68
4090.97
4091.01
4090.33
4089.74
4089.4
4089.12
4088.8
4088.44
4088.07
4087.72
4087.37
4087.02
4086.67
4086.32
4085.96
4085.61
4085.25
4084.9
4084.54
4084.19
4083.83
4083.48
4083.12
4082.76
4082.41
4082.05
4081.69
4081.33
4080.97
4080.61
4080.25
4079.89
4079.52
4079.16
4078.8
4078.43
4078.07
4077.7
4077.33
4076.96
4076.59
4076.21
4075.83
4075.46
4075.08
4074.69
4074.3
4073.91
4073.52
4073.12
4072.72
4072.31
4071.89
4071.47
4071.04
4070.6
4070.15
4069.69
4069.21
4068.73
4068.22
4067.7
4067.16
4066.59
4066
4065.37
4064.72
4064.02
4063.28
4062.49
4061.65
4060.74
4059.76
4058.69
4057.53
4056.27
4054.88
4053.36
4051.69
4049.83
4047.78
4045.5
4042.96
4040.14
4036.99
4033.47
4029.54
4025.14
4020.21
4014.7
4008.52
4001.61
3993.86
3985.17
3975.43
3964.51
3952.26
3938.48
3922.99
3905.53
3885.83
3863.58
3838.42
3809.99
3777.95
3741.96
3701.8
3657.31
3608.35
3555.16
3498.48
3439.92
3379.62
3315.18
3242.63
3160.17
3070.81
2979.39
2891.24
2795.47
2659.48
2464.18
2215.63
2036.39
1984.74
2036.11
1953.78
1678.35
1437.68
1356.03
1409.87
1518.97
1574.87
1580.76
1574.82
1572.19
1571.84
1571.05
1569.28
1567.07
1565.01
1562.27
1557.79
1551.45
1543.04
1532.63
1520.9
1508.84
1497.24
1486.02
1473.92
1459.64
1444.54
1430.77
1419.79
1411.77
1403.56
1391.3
1373.76
1356.41
1351.07
1356.87
1364.37
1367.73
1366.48
1361.28
1352.55
1340.41
1325.11
1307.25
1286.98
1265.65
1246.01
1232.09
1226.41
1227.65
1236.35
1248.8
1266.63
1291.62
1321.68
1355.86
1399.22
1454.78
1507.7
1542.24
1558.92
1568.4
1575.15
1578.02
1576.23
1571.51
1568.51
1571.34
1580.62
1595.37
1613.63
1632.9
1651.1
1664.85
1667.13
1652.35
1633.85
1624.89
1631.87
1651.96
1669.3
1665.49
1640.88
1600.74
1543.94
1469.56
1377.85
1278.84
1224.31
1251.5
1301.4
1323.46
1318.94
1321.74
1345.75
1408.14
1533.96
1706.77
1872
1906.74
1765.03
1489.27
1351.25
1271.27
1190.11
1140.99
1183.14
1114.56
982.016
754.585
-46.8413
-490.247
2934.27
3291.55
4221.67
4334.96
4123.71
4035.29
4064.3
4098.86
4102.95
4094.05
4089.2
4089.67
4090.97
4091.01
4090.34
4089.75
4089.41
4089.14
4088.82
4088.46
4088.1
4087.75
4087.4
4087.05
4086.7
4086.35
4086
4085.64
4085.29
4084.93
4084.58
4084.22
4083.87
4083.51
4083.15
4082.8
4082.44
4082.08
4081.72
4081.36
4081
4080.64
4080.27
4079.91
4079.54
4079.18
4078.81
4078.44
4078.07
4077.7
4077.32
4076.95
4076.57
4076.19
4075.8
4075.42
4075.02
4074.63
4074.23
4073.82
4073.41
4073
4072.57
4072.14
4071.7
4071.24
4070.78
4070.3
4069.81
4069.31
4068.78
4068.24
4067.67
4067.07
4066.45
4065.79
4065.1
4064.37
4063.58
4062.75
4061.86
4060.9
4059.86
4058.75
4057.53
4056.22
4054.78
4053.21
4051.48
4049.59
4047.51
4045.22
4042.69
4039.89
4036.79
4033.36
4029.55
4025.33
4020.65
4015.44
4009.66
4003.23
3996.08
3988.14
3979.3
3969.48
3958.55
3946.38
3932.84
3917.76
3900.96
3882.24
3861.37
3838.12
3812.22
3783.41
3751.43
3716.03
3677.03
3634.31
3587.91
3538.03
3484.84
3428.17
3367.46
3302.28
3232.73
3159.23
3081.23
2995.98
2899.17
2787.07
2661.15
2529.04
2401.01
2283.98
2157.64
2005.2
1800.97
1598.88
1486.6
1487.36
1552.33
1604.4
1616.75
1607.14
1597.66
1594.3
1593.84
1593.75
1592.94
1589.95
1584.19
1577.34
1570.39
1562.41
1552.52
1540.93
1529.7
1519.19
1507.37
1494.07
1479.74
1464.48
1448.6
1433.08
1418.88
1407.36
1398.36
1390.54
1382.09
1375.06
1371.05
1369.3
1367.47
1363.84
1358.44
1352.21
1345.45
1336.9
1325.53
1311.32
1295.96
1281.75
1270.42
1262.96
1260.27
1262.99
1271.09
1283.78
1301.19
1324.13
1352.68
1385.73
1421.61
1457.32
1487.69
1509.05
1522.34
1531.36
1538.65
1544.61
1549.36
1553.47
1559.19
1567.6
1578.32
1590.4
1602.6
1613.45
1621.8
1626.64
1627.1
1624.29
1622.24
1624.05
1629
1632.67
1629.8
1618.35
1599.21
1572.07
1535.26
1489.91
1440.63
1395.86
1368.15
1355.09
1341.03
1317.99
1293.55
1288.24
1315.25
1372.63
1454.26
1542
1618.41
1675.62
1660.5
1619.9
1637.73
1702.99
1700.58
1577.86
1433.44
1356.86
1385.21
1327.99
883.606
-34.8997
2934.2
3291.46
4221.62
4334.93
4123.67
4035.24
4064.25
4098.82
4102.91
4094.01
4089.16
4089.63
4090.93
4090.97
4090.3
4089.71
4089.37
4089.1
4088.78
4088.42
4088.06
4087.71
4087.36
4087.01
4086.66
4086.31
4085.96
4085.6
4085.25
4084.89
4084.54
4084.18
4083.83
4083.47
4083.11
4082.75
4082.4
4082.04
4081.68
4081.31
4080.95
4080.59
4080.22
4079.86
4079.49
4079.12
4078.75
4078.38
4078.01
4077.63
4077.26
4076.88
4076.49
4076.11
4075.72
4075.32
4074.92
4074.52
4074.11
4073.69
4073.27
4072.83
4072.39
4071.94
4071.48
4071
4070.51
4070.01
4069.48
4068.94
4068.37
4067.78
4067.16
4066.51
4065.82
4065.09
4064.31
4063.49
4062.6
4061.66
4060.64
4059.54
4058.36
4057.07
4055.67
4054.15
4052.49
4050.67
4048.67
4046.49
4044.09
4041.44
4038.53
4035.32
4031.78
4027.86
4023.54
4018.77
4013.49
4007.65
4001.19
3994.05
3986.15
3977.41
3967.74
3957.04
3945.21
3932.12
3917.65
3901.64
3883.93
3864.36
3842.74
3818.86
3792.52
3763.51
3731.63
3696.69
3658.54
3617.05
3572.14
3523.72
3471.71
3416.03
3356.66
3293.62
3226.73
3155.42
3078.82
2996.26
2907.9
2814.85
2718.21
2617.3
2509.64
2393.09
2271.05
2152.7
2047.39
1962.24
1899.3
1854.4
1818.91
1785.96
1754.87
1727.27
1704.06
1684.61
1667.59
1652.05
1637.44
1623.54
1610.4
1598.08
1586.23
1574.33
1562.17
1549.9
1537.56
1524.82
1511.6
1498.36
1485.4
1472.49
1459.37
1446.87
1436.08
1425.77
1416.22
1407.03
1398.15
1389.95
1382.3
1375.67
1370.61
1366.36
1361.8
1356.18
1349.15
1340.85
1331.58
1321.93
1312.8
1304.87
1298.62
1294.45
1293.01
1295.24
1301.42
1311.09
1323.79
1339.21
1357.1
1376.89
1397.72
1418.61
1438.45
1456.21
1471.38
1484.29
1495.55
1505.55
1514.3
1522.35
1529.88
1537.66
1545.98
1554.74
1563.66
1572.31
1580.09
1586.53
1591.26
1594.05
1595.01
1594.65
1593.23
1590.28
1584.79
1575.27
1560.36
1539.25
1512
1479.77
1444.64
1409.79
1379.18
1356.24
1342.34
1336.73
1339.84
1353.74
1378.95
1414.9
1456.23
1498.49
1534.86
1553.88
1544.03
1507.46
1454.49
1389.55
1302
1205.94
1135.26
1094.19
1062.9
1018.74
892.139
353.847
2934.16
3291.4
4221.58
4334.91
4123.64
4035.21
4064.22
4098.8
4102.89
4093.99
4089.15
4089.62
4090.92
4090.97
4090.29
4089.71
4089.37
4089.1
4088.79
4088.43
4088.07
4087.72
4087.38
4087.03
4086.68
4086.33
4085.97
4085.62
4085.27
4084.91
4084.56
4084.21
4083.85
4083.49
4083.14
4082.78
4082.42
4082.06
4081.7
4081.34
4080.98
4080.61
4080.25
4079.88
4079.51
4079.15
4078.77
4078.4
4078.03
4077.65
4077.27
4076.88
4076.5
4076.11
4075.71
4075.31
4074.9
4074.49
4074.08
4073.65
4073.22
4072.77
4072.32
4071.85
4071.38
4070.88
4070.37
4069.84
4069.3
4068.72
4068.12
4067.5
4066.84
4066.14
4065.4
4064.62
4063.78
4062.89
4061.93
4060.9
4059.79
4058.59
4057.29
4055.88
4054.35
4052.67
4050.85
4048.85
4046.66
4044.25
4041.61
4038.71
4035.52
4032.01
4028.15
4023.88
4019.19
4014.01
4008.3
4002
3995.06
3987.4
3978.95
3969.64
3959.38
3948.07
3935.6
3921.86
3906.74
3890.09
3871.77
3851.63
3829.5
3805.22
3778.6
3749.47
3717.65
3682.99
3645.32
3604.51
3560.42
3512.96
3462.03
3407.55
3349.44
3287.52
3221.57
3151.39
3076.88
2998.09
2915.1
2827.88
2736.18
2640.05
2540.56
2440.28
2342.54
2249.48
2160.87
2075.3
1994.56
1924.01
1867.38
1823.57
1788.16
1757.23
1729.3
1704.46
1682.73
1663.73
1646.89
1631.7
1617.63
1604.3
1591.48
1579
1566.71
1554.51
1542.39
1530.5
1518.51
1506.3
1493.99
1481.63
1469.22
1457.01
1445.27
1434.07
1423.54
1413.74
1404.63
1396.21
1388.56
1381.77
1375.65
1369.76
1363.73
1357.46
1351.03
1344.54
1338.06
1331.69
1325.7
1320.45
1316.38
1313.9
1313.35
1314.98
1318.87
1324.98
1333.22
1343.52
1355.69
1369.41
1384.2
1399.52
1414.69
1429
1441.94
1453.44
1463.7
1472.97
1481.59
1489.94
1498.25
1506.66
1515.22
1523.77
1532.07
1539.8
1546.64
1552.31
1556.6
1559.41
1560.82
1561.09
1560.33
1558.27
1554.21
1547.32
1537.16
1523.79
1507.65
1489.44
1470.22
1451.46
1434.9
1421.86
1412.19
1404.46
1397.57
1391.76
1387.98
1386.53
1386.05
1383.68
1375.44
1357.47
1326.98
1283.35
1230.45
1173.81
1115.39
1053.41
984.299
901.63
794.487
645.032
440.677
116.005
2934.13
3291.36
4221.56
4334.89
4123.63
4035.2
4064.21
4098.78
4102.87
4093.98
4089.13
4089.61
4090.91
4090.95
4090.28
4089.7
4089.36
4089.09
4088.77
4088.41
4088.05
4087.71
4087.36
4087.01
4086.66
4086.31
4085.95
4085.6
4085.25
4084.89
4084.54
4084.18
4083.83
4083.47
4083.11
4082.75
4082.39
4082.03
4081.67
4081.31
4080.95
4080.58
4080.22
4079.85
4079.48
4079.11
4078.74
4078.36
4077.99
4077.61
4077.23
4076.84
4076.45
4076.06
4075.66
4075.26
4074.85
4074.43
4074.01
4073.58
4073.14
4072.69
4072.23
4071.76
4071.27
4070.77
4070.25
4069.71
4069.14
4068.56
4067.94
4067.29
4066.61
4065.88
4065.12
4064.3
4063.43
4062.49
4061.49
4060.41
4059.25
4057.99
4056.62
4055.13
4053.52
4051.75
4049.83
4047.72
4045.41
4042.87
4040.09
4037.04
4033.68
4029.99
4025.92
4021.45
4016.53
4011.11
4005.13
3998.56
3991.32
3983.35
3974.57
3964.92
3954.29
3942.6
3929.75
3915.63
3900.11
3883.08
3864.39
3843.91
3821.48
3796.95
3770.16
3740.94
3709.14
3674.61
3637.19
3596.74
3553.14
3506.26
3456.01
3402.25
3344.88
3283.78
3218.84
3150
3077.21
3000.46
2919.76
2835.3
2747.5
2657.14
2565.28
2473.06
2381.51
2291.62
2204.72
2122.87
2048.64
1984.12
1929.56
1883.23
1842.85
1806.98
1775.1
1746.94
1721.89
1699.07
1678.34
1659.6
1642.43
1626.43
1611.3
1596.86
1582.91
1569.29
1555.85
1542.41
1529.26
1516.41
1503.72
1491.17
1478.83
1466.81
1455.23
1444.16
1433.61
1423.58
1414.09
1405.16
1396.84
1389.11
1381.96
1375.28
1368.97
1362.92
1357.04
1351.3
1345.72
1340.4
1335.51
1331.27
1327.89
1325.55
1324.44
1324.74
1326.58
1330.01
1334.98
1341.44
1349.26
1358.26
1368.2
1378.77
1389.66
1400.58
1411.33
1422.06
1432.52
1442.74
1452.78
1462.63
1472.27
1481.67
1490.81
1499.62
1508.01
1515.84
1523
1529.35
1534.78
1539.19
1542.47
1544.53
1545.22
1544.34
1541.67
1537.03
1530.39
1521.83
1511.53
1499.76
1486.88
1473.33
1459.47
1445.49
1431.33
1416.82
1401.87
1386.47
1370.43
1353.03
1333.05
1309.05
1279.53
1243.18
1199.11
1147.33
1088.9
1024.59
953.435
872.831
780.661
676.219
557.063
420.306
254.704
99.1715
2934.13
3291.35
4221.55
4334.89
4123.63
4035.19
4064.2
4098.78
4102.87
4093.98
4089.13
4089.61
4090.9
4090.95
4090.28
4089.7
4089.36
4089.09
4088.78
4088.42
4088.06
4087.71
4087.37
4087.02
4086.67
4086.32
4085.97
4085.62
4085.27
4084.91
4084.56
4084.2
4083.85
4083.49
4083.14
4082.78
4082.42
4082.06
4081.7
4081.34
4080.98
4080.61
4080.25
4079.88
4079.51
4079.14
4078.77
4078.4
4078.02
4077.64
4077.26
4076.87
4076.49
4076.09
4075.69
4075.29
4074.88
4074.47
4074.04
4073.61
4073.17
4072.72
4072.26
4071.78
4071.29
4070.79
4070.26
4069.72
4069.15
4068.56
4067.93
4067.28
4066.59
4065.86
4065.08
4064.25
4063.37
4062.43
4061.41
4060.32
4059.13
4057.85
4056.47
4054.96
4053.31
4051.52
4049.56
4047.41
4045.06
4042.49
4039.66
4036.55
4033.14
4029.38
4025.25
4020.71
4015.7
4010.19
4004.13
3997.46
3990.11
3982.02
3973.13
3963.34
3952.58
3940.75
3927.75
3913.47
3897.8
3880.6
3861.76
3841.13
3818.56
3793.91
3767.02
3737.73
3705.9
3671.36
3633.99
3593.64
3550.17
3503.48
3453.44
3399.93
3342.87
3282.14
3217.67
3149.39
3077.26
3001.31
2921.71
2838.76
2752.92
2664.79
2575.1
2484.76
2395.02
2307.47
2223.87
2145.72
2073.94
2008.91
1950.65
1898.86
1853.07
1812.8
1777.49
1746.53
1719.46
1695.94
1675.04
1655.96
1638.43
1622.26
1607.21
1593
1579.41
1566.27
1553.47
1540.93
1528.61
1516.45
1504.37
1492.37
1480.47
1468.73
1457.19
1445.93
1435.01
1424.53
1414.59
1405.27
1396.61
1388.65
1381.38
1374.78
1368.75
1363.18
1357.95
1353.02
1348.38
1344.03
1340
1336.36
1333.17
1330.55
1328.62
1327.5
1327.31
1328.14
1330.07
1333.13
1337.35
1342.71
1349.13
1356.53
1364.81
1373.88
1383.66
1393.75
1404.21
1414.84
1425.42
1435.84
1446.04
1455.95
1465.53
1474.71
1483.46
1491.72
1499.46
1506.64
1513.22
1519.11
1524.16
1528.17
1530.93
1532.3
1532.19
1530.58
1527.48
1522.98
1517.25
1510.48
1502.78
1494.14
1484.4
1473.29
1460.44
1445.28
1427.08
1405.06
1378.49
1346.83
1309.39
1265.59
1215.28
1158.79
1096.97
1031.17
962.566
891.229
815.928
735.017
647.31
552.485
448.29
335.992
201.654
90.541
2934.14
3291.36
4221.56
4334.9
4123.63
4035.2
4064.21
4098.78
4102.88
4093.98
4089.14
4089.61
4090.91
4090.96
4090.28
4089.7
4089.36
4089.09
4088.78
4088.42
4088.06
4087.71
4087.36
4087.01
4086.66
4086.31
4085.96
4085.61
4085.25
4084.9
4084.55
4084.19
4083.83
4083.48
4083.12
4082.76
4082.4
4082.04
4081.68
4081.32
4080.96
4080.6
4080.23
4079.86
4079.5
4079.13
4078.76
4078.38
4078.01
4077.63
4077.25
4076.86
4076.48
4076.08
4075.69
4075.29
4074.88
4074.47
4074.05
4073.62
4073.18
4072.73
4072.28
4071.81
4071.32
4070.82
4070.3
4069.76
4069.2
4068.62
4068
4067.36
4066.68
4065.96
4065.2
4064.38
4063.52
4062.59
4061.59
4060.52
4059.36
4058.1
4056.74
4055.26
4053.65
4051.89
4049.96
4047.86
4045.55
4043.02
4040.24
4037.19
4033.83
4030.14
4026.07
4021.59
4016.66
4011.23
4005.25
3998.65
3991.39
3983.39
3974.59
3964.89
3954.22
3942.48
3929.56
3915.36
3899.76
3882.63
3863.84
3843.24
3820.69
3796.02
3769.09
3739.74
3707.81
3673.16
3635.64
3595.12
3551.48
3504.6
3454.37
3400.68
3343.4
3282.43
3217.66
3149.03
3076.49
3000.03
2919.7
2835.66
2748.38
2658.64
2567.53
2476.26
2385.89
2297.4
2211.9
2130.98
2056.7
1991.11
1935.29
1888.46
1848.48
1813.26
1781.73
1753.62
1728.73
1706.59
1686.54
1668.12
1651.07
1635.2
1620.24
1605.95
1592.13
1578.68
1565.53
1552.6
1539.81
1527.1
1514.44
1501.83
1489.26
1476.78
1464.48
1452.43
1440.66
1429.28
1418.46
1408.41
1399.27
1391.06
1383.73
1377.23
1371.49
1366.41
1361.84
1357.61
1353.63
1349.8
1346.05
1342.35
1338.69
1335.11
1331.67
1328.48
1325.66
1323.36
1321.75
1321.02
1321.39
1322.97
1325.85
1330.06
1335.67
1342.89
1351.68
1361.71
1372.64
1384.12
1395.92
1407.83
1419.62
1431.12
1442.18
1452.75
1462.83
1472.46
1481.69
1490.56
1499.03
1506.93
1513.98
1519.85
1524.37
1527.49
1529.28
1529.86
1529.41
1528.14
1526.27
1523.85
1520.71
1516.45
1510.6
1502.64
1491.94
1477.58
1458.3
1432.6
1398.15
1355.29
1303.05
1240.29
1166.83
1084.06
994.814
904.212
814.876
726.919
642.074
560.079
478.625
396.706
313.014
228.229
133.513
55.3365
2934.16
3291.4
4221.58
4334.91
4123.65
4035.22
4064.23
4098.8
4102.89
4094
4089.15
4089.62
4090.92
4090.97
4090.3
4089.71
4089.38
4089.11
4088.79
4088.43
4088.08
4087.73
4087.38
4087.04
4086.69
4086.33
4085.98
4085.63
4085.28
4084.93
4084.57
4084.22
4083.86
4083.51
4083.15
4082.8
4082.44
4082.08
4081.72
4081.36
4081
4080.64
4080.27
4079.91
4079.54
4079.18
4078.81
4078.43
4078.06
4077.69
4077.31
4076.93
4076.54
4076.15
4075.76
4075.36
4074.96
4074.56
4074.14
4073.72
4073.29
4072.85
4072.4
4071.94
4071.47
4070.98
4070.48
4069.96
4069.41
4068.85
4068.26
4067.64
4066.98
4066.29
4065.56
4064.79
4063.96
4063.08
4062.13
4061.11
4060.01
4058.82
4057.53
4056.13
4054.61
4052.94
4051.12
4049.13
4046.95
4044.55
4041.92
4039.02
4035.83
4032.32
4028.45
4024.18
4019.47
4014.27
4008.54
4002.21
3995.22
3987.51
3979.01
3969.62
3959.27
3947.85
3935.25
3921.37
3906.08
3889.23
3870.7
3850.32
3827.93
3803.36
3776.45
3747.04
3714.95
3680.03
3642.15
3601.18
3557.01
3509.53
3458.67
3404.34
3346.43
3284.78
3219.15
3149.36
3075.31
2997.09
2914.81
2828.46
2737.83
2642.93
2544.79
2445.88
2349.73
2258.95
2173.8
2092.68
2015.08
1943.93
1883.57
1836.07
1799.56
1769.83
1743.59
1719.82
1698.6
1679.82
1663
1647.7
1633.61
1620.49
1608.09
1596.15
1584.44
1572.82
1561.24
1549.67
1538.04
1526.31
1514.46
1502.45
1490.21
1477.77
1465.19
1452.51
1439.79
1427.31
1415.44
1404.43
1394.42
1385.68
1378.48
1372.82
1368.32
1364.5
1361.03
1357.83
1354.88
1352.04
1349.02
1345.54
1341.44
1336.66
1331.28
1325.51
1319.57