/*--------------------------------*- C++ -*----------------------------------*\
| =========                 |                                                 |
| \\      /  F ield         | OpenFOAM: The Open Source CFD Toolbox           |
|  \\    /   O peration     | Version:  2406                                  |
|   \\  /    A nd           | Website:  www.openfoam.com                      |
|    \\/     M anipulation  |                                                 |
\*---------------------------------------------------------------------------*/
FoamFile
{
    version     2.0;
    format      ascii;
    arch        "LSB;label=32;scalar=64";
    class       surfaceScalarField;
    location    "0.25";
    object      phi;
}
// * * * * * * * * * * * * * * * * * * * * * * * * * * * * * * * * * * * * * //

dimensions      [0 3 -1 0 0 0 0];

oriented        oriented;

internalField   nonuniform List<scalar> 
12225
(
2.16519e-05
9.3671e-09
2.16268e-05
2.50533e-08
2.16034e-05
2.34807e-08
2.15858e-05
1.76084e-08
2.15672e-05
1.85952e-08
2.15451e-05
2.20983e-08
2.15212e-05
2.38506e-08
2.14972e-05
2.40286e-08
2.14731e-05
2.40349e-08
2.14487e-05
2.44284e-08
2.14238e-05
2.49158e-08
2.13985e-05
2.52576e-08
2.13731e-05
2.5468e-08
2.13474e-05
2.56353e-08
2.13216e-05
2.57948e-08
2.12957e-05
2.59382e-08
2.12697e-05
2.60562e-08
2.12435e-05
2.61527e-08
2.12173e-05
2.6235e-08
2.1191e-05
2.63078e-08
2.11646e-05
2.63724e-08
2.11382e-05
2.64294e-08
2.11117e-05
2.64793e-08
2.10852e-05
2.65229e-08
2.10586e-05
2.65607e-08
2.1032e-05
2.65933e-08
2.10054e-05
2.66213e-08
2.09787e-05
2.66454e-08
2.09521e-05
2.66663e-08
2.09254e-05
2.66846e-08
2.08987e-05
2.67006e-08
2.0872e-05
2.6715e-08
2.08452e-05
2.67282e-08
2.08185e-05
2.67407e-08
2.07917e-05
2.6753e-08
2.0765e-05
2.67659e-08
2.07382e-05
2.67801e-08
2.07114e-05
2.67967e-08
2.06846e-05
2.68168e-08
2.06577e-05
2.68418e-08
2.06309e-05
2.68729e-08
2.0604e-05
2.69116e-08
2.0577e-05
2.69592e-08
2.055e-05
2.70169e-08
2.05229e-05
2.7086e-08
2.04957e-05
2.71679e-08
2.04685e-05
2.72641e-08
2.04411e-05
2.73761e-08
2.04136e-05
2.75059e-08
2.03859e-05
2.76556e-08
2.03581e-05
2.78273e-08
2.03301e-05
2.80238e-08
2.03018e-05
2.82479e-08
2.02733e-05
2.85029e-08
2.02445e-05
2.87927e-08
2.02154e-05
2.91214e-08
2.01859e-05
2.9494e-08
2.0156e-05
2.99161e-08
2.01256e-05
3.03943e-08
2.00947e-05
3.0936e-08
2.00631e-05
3.15499e-08
2.00309e-05
3.22458e-08
1.99978e-05
3.30352e-08
1.99639e-05
3.39311e-08
1.9929e-05
3.49481e-08
1.98929e-05
3.61029e-08
1.98554e-05
3.74142e-08
1.98165e-05
3.89033e-08
1.97759e-05
4.05937e-08
1.97334e-05
4.25126e-08
1.96887e-05
4.46902e-08
1.96416e-05
4.71612e-08
1.95916e-05
4.99647e-08
1.95385e-05
5.31457e-08
1.94817e-05
5.67552e-08
1.94209e-05
6.08517e-08
1.93554e-05
6.55016e-08
1.92846e-05
7.0781e-08
1.92078e-05
7.67761e-08
1.91242e-05
8.35853e-08
1.90329e-05
9.13198e-08
1.89328e-05
1.00106e-07
1.88227e-05
1.10086e-07
1.87013e-05
1.21421e-07
1.8567e-05
1.34291e-07
1.84181e-05
1.48897e-07
1.82526e-05
1.65462e-07
1.80684e-05
1.84233e-07
1.78629e-05
2.05477e-07
1.76334e-05
2.29482e-07
1.73769e-05
2.56554e-07
1.70899e-05
2.87006e-07
1.67687e-05
3.21148e-07
1.64095e-05
3.59276e-07
1.60078e-05
4.01652e-07
1.55593e-05
4.48479e-07
1.50595e-05
4.99866e-07
1.45037e-05
5.55783e-07
1.38877e-05
6.16008e-07
1.32076e-05
6.8006e-07
1.24605e-05
7.4712e-07
1.16444e-05
8.16055e-07
1.07588e-05
8.85665e-07
9.80473e-06
9.54045e-07
8.78594e-06
1.01879e-06
7.70893e-06
1.077e-06
6.58354e-06
1.12539e-06
5.42308e-06
1.16047e-06
4.24421e-06
1.17886e-06
3.06425e-06
1.17996e-06
1.90329e-06
1.16096e-06
7.04157e-07
1.19913e-06
-2.48942e-07
9.53099e-07
-5.83991e-07
3.35049e-07
-2.51133e-07
-3.32858e-07
8.43432e-07
-1.09456e-06
1.26853e-06
-4.25094e-07
5.60199e-07
7.08327e-07
3.2555e-07
2.34649e-07
2.8338e-07
4.217e-08
2.41488e-07
4.18913e-08
2.10776e-07
3.07124e-08
2.0478e-07
5.99567e-09
2.10577e-07
-5.79637e-09
2.11051e-07
-4.74514e-10
2.04816e-07
6.23496e-09
1.98784e-07
6.0322e-09
1.93577e-07
5.2071e-09
1.85255e-07
8.32186e-09
1.72937e-07
1.23181e-08
1.5937e-07
1.35672e-08
1.46388e-07
1.29822e-08
1.3376e-07
1.26279e-08
1.2138e-07
1.23797e-08
1.10086e-07
1.12944e-08
1.00697e-07
9.38891e-09
9.35636e-08
7.13305e-09
8.90962e-08
4.46732e-09
8.79007e-08
1.19558e-09
9.00539e-08
-2.15322e-09
9.35353e-08
-3.48137e-09
9.47992e-08
-1.26398e-09
9.19051e-08
2.89414e-09
8.60527e-08
5.85242e-09
7.86665e-08
7.38618e-09
7.05306e-08
8.13587e-09
6.21889e-08
8.34174e-09
5.4112e-08
8.07686e-09
4.6669e-08
7.44305e-09
4.0098e-08
6.57099e-09
3.44169e-08
5.68111e-09
2.95717e-08
4.84513e-09
2.5491e-08
4.08075e-09
2.20202e-08
3.47081e-09
1.89733e-08
3.04693e-09
1.62029e-08
2.77032e-09
1.37588e-08
2.44415e-09
1.18366e-08
1.92222e-09
1.0439e-08
1.39755e-09
9.24487e-09
1.19414e-09
7.94598e-09
1.29889e-09
6.52888e-09
1.4171e-09
5.22997e-09
1.29891e-09
4.24779e-09
9.82173e-10
3.77134e-09
4.76453e-10
3.97628e-09
-2.04943e-10
5.03364e-09
-1.05735e-09
6.76405e-09
-1.73041e-09
8.70948e-09
-1.94544e-09
1.03215e-08
-1.61203e-09
1.11426e-08
-8.21086e-10
1.07587e-08
3.83932e-10
9.49051e-09
1.26816e-09
7.91628e-09
1.57424e-09
6.72032e-09
1.19596e-09
6.70596e-09
1.43522e-11
8.27597e-09
-1.57001e-09
1.122e-08
-2.94405e-09
1.46226e-08
-3.40253e-09
1.74074e-08
-2.78481e-09
1.87204e-08
-1.31306e-09
1.84779e-08
2.42494e-10
1.77726e-08
7.05311e-10
1.77107e-08
6.19371e-11
1.8128e-08
-4.17305e-10
1.88641e-08
-7.36099e-10
2.00272e-08
-1.16308e-09
2.15453e-08
-1.51811e-09
2.30402e-08
-1.49496e-09
2.43603e-08
-1.32011e-09
2.59741e-08
-1.61378e-09
2.87186e-08
-2.74445e-09
3.27865e-08
-4.06792e-09
3.77407e-08
-4.95426e-09
4.25605e-08
-4.81974e-09
4.61661e-08
-3.60557e-09
4.80208e-08
-1.85475e-09
4.8284e-08
-2.63228e-10
4.80207e-08
2.63286e-10
4.8518e-08
-4.97268e-10
5.05603e-08
-2.04233e-09
5.42078e-08
-3.64742e-09
5.8438e-08
-4.2302e-09
6.19388e-08
-3.50079e-09
6.44544e-08
-2.51561e-09
6.68029e-08
-2.34851e-09
6.97555e-08
-2.9526e-09
7.35584e-08
-3.80295e-09
7.79311e-08
-4.37264e-09
8.24115e-08
-4.4804e-09
8.69856e-08
-4.57411e-09
9.24927e-08
-5.50714e-09
9.98438e-08
-7.35105e-09
1.09137e-07
-9.2936e-09
1.19866e-07
-1.07288e-08
1.31196e-07
-1.13297e-08
1.41763e-07
-1.05676e-08
1.4944e-07
-7.67615e-09
1.5263e-07
-3.19041e-09
1.53037e-07
-4.06781e-10
1.5297e-07
6.67315e-11
1.53739e-07
-7.69263e-10
1.55475e-07
-1.73526e-09
1.566e-07
-1.12559e-09
1.57217e-07
-6.16627e-10
1.5856e-07
-1.34358e-09
1.62137e-07
-3.57711e-09
1.70314e-07
-8.17665e-09
1.80612e-07
-1.02976e-08
1.87839e-07
-7.22691e-09
1.91476e-07
-3.63723e-09
1.90263e-07
1.21305e-09
1.87882e-07
2.38057e-09
1.87162e-07
7.20226e-10
1.86737e-07
4.25215e-10
1.84568e-07
2.16853e-09
1.79667e-07
4.90135e-09
1.72899e-07
6.7679e-09
1.66096e-07
6.80328e-09
1.6053e-07
5.56607e-09
1.60425e-07
1.05038e-10
1.66779e-07
-6.35406e-09
1.76339e-07
-9.56072e-09
1.82675e-07
-6.33587e-09
1.84951e-07
-2.27607e-09
1.86165e-07
-1.21352e-09
1.86695e-07
-5.30283e-10
1.83655e-07
3.0405e-09
1.7688e-07
6.7743e-09
9.38769e-09
2.17031e-05
-1.38534e-10
2.17243e-05
3.82884e-09
2.17405e-05
7.34192e-09
2.17482e-05
9.85313e-09
2.17577e-05
9.10357e-09
2.17709e-05
8.92763e-09
2.1785e-05
9.74411e-09
2.17984e-05
1.05788e-08
2.18114e-05
1.10568e-08
2.18245e-05
1.13347e-08
2.18378e-05
1.16132e-08
2.18512e-05
1.19093e-08
2.18645e-05
1.21734e-08
2.18777e-05
1.23921e-08
2.18909e-05
1.25821e-08
2.19041e-05
1.27571e-08
2.19172e-05
1.29196e-08
2.19303e-05
1.3069e-08
2.19433e-05
1.32062e-08
2.19563e-05
1.33338e-08
2.19692e-05
1.34537e-08
2.19821e-05
1.35674e-08
2.19949e-05
1.36759e-08
2.20076e-05
1.37801e-08
2.20203e-05
1.38809e-08
2.20329e-05
1.3979e-08
2.20455e-05
1.40748e-08
2.2058e-05
1.41691e-08
2.20704e-05
1.4262e-08
2.20827e-05
1.43541e-08
2.20949e-05
1.44457e-08
2.21071e-05
1.45372e-08
2.21192e-05
1.4629e-08
2.21312e-05
1.47215e-08
2.21432e-05
1.48152e-08
2.2155e-05
1.49106e-08
2.21668e-05
1.50083e-08
2.21785e-05
1.51089e-08
2.21901e-05
1.52131e-08
2.22016e-05
1.53218e-08
2.22131e-05
1.54357e-08
2.22244e-05
1.55558e-08
2.22357e-05
1.5683e-08
2.22469e-05
1.58184e-08
2.2258e-05
1.59631e-08
2.22691e-05
1.61185e-08
2.228e-05
1.6286e-08
2.22909e-05
1.64674e-08
2.23018e-05
1.66647e-08
2.23126e-05
1.688e-08
2.23233e-05
1.71159e-08
2.23339e-05
1.73751e-08
2.23445e-05
1.76608e-08
2.2355e-05
1.79765e-08
2.23655e-05
1.83263e-08
2.23759e-05
1.87148e-08
2.23863e-05
1.9147e-08
2.23965e-05
1.96289e-08
2.24068e-05
2.0167e-08
2.24169e-05
2.0769e-08
2.2427e-05
2.14433e-08
2.24371e-05
2.21999e-08
2.24471e-05
2.30499e-08
2.2457e-05
2.4006e-08
2.24669e-05
2.50829e-08
2.24767e-05
2.62973e-08
2.24864e-05
2.76681e-08
2.24961e-05
2.9217e-08
2.25057e-05
3.09689e-08
2.25153e-05
3.29518e-08
2.25248e-05
3.51981e-08
2.25342e-05
3.77443e-08
2.25435e-05
4.06327e-08
2.25528e-05
4.39115e-08
2.25619e-05
4.76361e-08
2.25709e-05
5.18702e-08
2.25797e-05
5.66873e-08
2.25883e-05
6.21722e-08
2.25966e-05
6.84228e-08
2.26047e-05
7.55524e-08
2.26123e-05
8.36922e-08
2.26194e-05
9.29943e-08
2.26259e-05
1.03635e-07
2.26315e-05
1.15819e-07
2.2636e-05
1.29783e-07
2.26391e-05
1.45802e-07
2.26403e-05
1.64196e-07
2.26392e-05
1.85332e-07
2.26351e-05
2.09637e-07
2.2627e-05
2.37598e-07
2.26137e-05
2.69777e-07
2.25939e-05
3.06812e-07
2.25657e-05
3.49415e-07
2.25266e-05
3.98329e-07
2.24739e-05
4.54375e-07
2.24039e-05
5.18416e-07
2.23125e-05
5.91321e-07
2.21944e-05
6.73923e-07
2.20434e-05
7.66955e-07
2.18525e-05
8.70971e-07
2.16134e-05
9.86242e-07
2.13168e-05
1.11265e-06
2.09529e-05
1.24954e-06
2.05114e-05
1.39552e-06
1.99819e-05
1.54829e-06
1.93544e-05
1.70451e-06
1.86202e-05
1.85962e-06
1.77728e-05
2.00782e-06
1.68104e-05
2.14129e-06
1.5739e-05
2.25141e-06
1.45799e-05
2.32002e-06
1.34394e-05
2.33966e-06
1.21319e-05
2.26056e-06
1.03608e-05
2.10617e-06
8.04977e-06
1.97816e-06
5.21231e-06
1.74289e-06
3.04355e-06
1.74367e-06
1.4451e-06
2.30678e-06
1.0602e-06
6.19548e-07
8.71536e-07
2.30835e-07
6.72191e-07
2.41235e-07
5.89784e-07
1.1312e-07
5.81758e-07
1.4022e-08
5.89319e-07
-1.33581e-08
5.58222e-07
3.06225e-08
5.26683e-07
3.77741e-08
5.09665e-07
2.305e-08
5.00521e-07
1.43518e-08
4.85423e-07
2.34197e-08
4.60924e-07
3.68172e-08
4.33839e-07
4.06516e-08
4.08602e-07
3.82197e-08
3.82917e-07
3.83132e-08
3.55548e-07
3.97481e-08
3.2946e-07
3.73824e-08
3.07182e-07
3.16672e-08
2.88536e-07
2.57787e-08
2.73536e-07
1.94674e-08
2.63275e-07
1.14568e-08
2.58487e-07
2.63431e-09
2.56198e-07
-1.19184e-09
2.49127e-07
5.80668e-09
2.32529e-07
1.94929e-08
2.1196e-07
2.64208e-08
1.91056e-07
2.82898e-08
1.70136e-07
2.90562e-08
1.49638e-07
2.88403e-08
1.30395e-07
2.73195e-08
1.12876e-07
2.49617e-08
9.71536e-08
2.22937e-08
8.31371e-08
1.96977e-08
7.10763e-08
1.69059e-08
6.09852e-08
1.41719e-08
5.24434e-08
1.20127e-08
4.50198e-08
1.04705e-08
3.82947e-08
9.49542e-09
3.23468e-08
8.39212e-09
2.79285e-08
6.34046e-09
2.47916e-08
4.53449e-09
2.20216e-08
3.96413e-09
1.87458e-08
4.57471e-09
1.49723e-08
5.19053e-09
1.13866e-08
4.88465e-09
8.49608e-09
3.8727e-09
6.59939e-09
2.37314e-09
6.09942e-09
2.95034e-10
7.2898e-09
-2.24773e-09
9.96893e-09
-4.40954e-09
1.34463e-08
-5.42284e-09
1.70446e-08
-5.21029e-09
1.99067e-08
-3.68319e-09
2.09869e-08
-6.96275e-10
2.02655e-08
1.98957e-09
1.89029e-08
2.93679e-09
1.80432e-08
2.0557e-09
1.90563e-08
-9.98731e-10
2.29853e-08
-5.49905e-09
2.94252e-08
-9.38388e-09
3.66808e-08
-1.06581e-08
4.31038e-08
-9.2078e-09
4.76145e-08
-5.82377e-09
4.90521e-08
-1.19516e-09
5.06217e-08
-8.64265e-10
5.34063e-08
-2.72265e-09
5.64874e-08
-3.49837e-09
5.94289e-08
-3.6776e-09
6.30026e-08
-4.73685e-09
6.72801e-08
-5.79557e-09
7.12298e-08
-5.44467e-09
7.41446e-08
-4.23495e-09
7.71478e-08
-4.61693e-09
8.26904e-08
-8.2871e-09
9.08147e-08
-1.21922e-08
1.01097e-07
-1.52362e-08
1.11531e-07
-1.52543e-08
1.20048e-07
-1.21224e-08
1.25589e-07
-7.39545e-09
1.29278e-07
-3.95266e-09
1.32073e-07
-2.53146e-09
1.36017e-07
-4.44154e-09
1.43346e-07
-9.37091e-09
1.54112e-07
-1.44137e-08
1.66299e-07
-1.64173e-08
1.76978e-07
-1.41801e-08
1.84951e-07
-1.04882e-08
1.92564e-07
-9.96173e-09
2.01689e-07
-1.20771e-08
2.12539e-07
-1.46533e-08
2.24415e-07
-1.62487e-08
2.3625e-07
-1.63159e-08
2.4763e-07
-1.59535e-08
2.60395e-07
-1.82719e-08
2.76593e-07
-2.35497e-08
2.95956e-07
-2.86566e-08
3.17392e-07
-3.21643e-08
3.39966e-07
-3.39038e-08
3.62774e-07
-3.33758e-08
3.8423e-07
-2.91319e-08
4.00992e-07
-1.99521e-08
4.11008e-07
-1.04229e-08
4.19263e-07
-8.18832e-09
4.29301e-07
-1.08079e-08
4.4342e-07
-1.58544e-08
4.58729e-07
-1.64346e-08
4.71977e-07
-1.38641e-08
4.83126e-07
-1.24922e-08
4.94624e-07
-1.50752e-08
5.0918e-07
-2.27327e-08
5.26056e-07
-2.71734e-08
5.41435e-07
-2.26063e-08
5.52363e-07
-1.45649e-08
5.57349e-07
-3.7735e-09
5.57584e-07
2.14525e-09
5.5584e-07
2.46446e-09
5.5732e-07
-1.0543e-09
5.5592e-07
3.56863e-09
5.42105e-07
1.87163e-08
5.24193e-07
2.468e-08
5.12105e-07
1.88912e-08
4.99308e-07
1.83628e-08
4.91407e-07
8.00599e-09
4.91272e-07
-6.21868e-09
4.9567e-07
-1.39586e-08
5.01519e-07
-1.21851e-08
5.0618e-07
-6.93699e-09
5.14902e-07
-9.93592e-09
5.21399e-07
-7.02736e-09
5.04188e-07
2.02514e-08
4.77968e-07
3.29945e-08
3.32238e-08
2.16861e-05
1.42089e-09
2.1686e-05
3.98995e-09
2.16884e-05
4.90311e-09
2.16928e-05
5.48457e-09
2.16956e-05
6.28905e-09
2.16973e-05
7.16346e-09
2.16992e-05
7.90727e-09
2.17013e-05
8.48459e-09
2.17034e-05
8.93808e-09
2.17054e-05
9.31473e-09
2.17074e-05
9.65614e-09
2.17093e-05
9.97074e-09
2.17112e-05
1.02497e-08
2.17131e-05
1.04913e-08
2.1715e-05
1.07037e-08
2.17169e-05
1.08952e-08
2.17187e-05
1.10696e-08
2.17206e-05
1.12281e-08
2.17224e-05
1.13718e-08
2.17242e-05
1.15029e-08
2.17261e-05
1.16233e-08
2.17279e-05
1.17347e-08
2.17297e-05
1.18386e-08
2.17316e-05
1.19363e-08
2.17334e-05
1.2029e-08
2.17353e-05
1.21176e-08
2.17372e-05
1.22031e-08
2.1739e-05
1.2286e-08
2.17409e-05
1.23669e-08
2.17428e-05
1.24465e-08
2.17448e-05
1.25252e-08
2.17467e-05
1.26036e-08
2.17486e-05
1.26824e-08
2.17506e-05
1.2762e-08
2.17526e-05
1.28433e-08
2.17546e-05
1.29269e-08
2.17566e-05
1.30136e-08
2.17586e-05
1.31042e-08
2.17606e-05
1.31995e-08
2.17626e-05
1.33004e-08
2.17646e-05
1.3408e-08
2.17667e-05
1.35231e-08
2.17687e-05
1.36469e-08
2.17707e-05
1.37806e-08
2.17728e-05
1.39257e-08
2.17748e-05
1.40838e-08
2.17768e-05
1.42568e-08
2.17788e-05
1.44465e-08
2.17809e-05
1.46556e-08
2.17828e-05
1.48865e-08
2.17848e-05
1.51422e-08
2.17868e-05
1.54261e-08
2.17887e-05
1.57419e-08
2.17906e-05
1.6094e-08
2.17924e-05
1.64871e-08
2.17942e-05
1.69266e-08
2.17959e-05
1.74187e-08
2.17976e-05
1.79703e-08
2.17992e-05
1.85892e-08
2.18007e-05
1.92843e-08
2.1802e-05
2.00655e-08
2.18033e-05
2.09442e-08
2.18044e-05
2.19329e-08
2.18054e-05
2.30463e-08
2.18061e-05
2.43005e-08
2.18067e-05
2.5714e-08
2.18071e-05
2.73078e-08
2.18072e-05
2.91057e-08
2.1807e-05
3.11346e-08
2.18066e-05
3.34249e-08
2.18057e-05
3.60112e-08
2.18046e-05
3.89327e-08
2.1803e-05
4.22335e-08
2.18009e-05
4.59641e-08
2.17984e-05
5.0181e-08
2.17953e-05
5.49489e-08
2.17916e-05
6.03409e-08
2.17874e-05
6.64398e-08
2.17824e-05
7.33399e-08
2.17768e-05
8.1148e-08
2.17706e-05
8.99858e-08
2.17636e-05
9.99912e-08
2.17559e-05
1.11321e-07
2.17475e-05
1.24153e-07
2.17386e-05
1.38691e-07
2.17293e-05
1.55164e-07
2.17196e-05
1.73833e-07
2.171e-05
1.94995e-07
2.17006e-05
2.18986e-07
2.1692e-05
2.46189e-07
2.16848e-05
2.77036e-07
2.16796e-05
3.12023e-07
2.16773e-05
3.51707e-07
2.16789e-05
3.96718e-07
2.16855e-05
4.47771e-07
2.16982e-05
5.05673e-07
2.17182e-05
5.71331e-07
2.17464e-05
6.45747e-07
2.17833e-05
7.3002e-07
2.1829e-05
8.25318e-07
2.18824e-05
9.3285e-07
2.19412e-05
1.0538e-06
2.20015e-05
1.18922e-06
2.20571e-05
1.33995e-06
2.2099e-05
1.50636e-06
2.21153e-05
1.68823e-06
2.20905e-05
1.88446e-06
2.20053e-05
2.09298e-06
2.18361e-05
2.31049e-06
2.15546e-05
2.53293e-06
2.11189e-05
2.75568e-06
2.04832e-05
2.9754e-06
1.95512e-05
3.19259e-06
1.82465e-05
3.41085e-06
1.65541e-05
3.67056e-06
1.43449e-05
3.95206e-06
1.16914e-05
4.39718e-06
8.92067e-06
5.07751e-06
5.79831e-06
3.74191e-06
3.27702e-06
2.75213e-06
1.36209e-06
2.15616e-06
1.17497e-06
3.00241e-07
1.09892e-06
9.00733e-08
1.0258e-06
5.97564e-08
8.11516e-07
2.44911e-07
7.56326e-07
9.2964e-08
7.63423e-07
1.59525e-08
7.88407e-07
-1.06325e-08
7.6105e-07
5.07768e-08
7.13755e-07
8.4113e-08
6.79571e-07
7.48354e-08
6.59763e-07
5.80278e-08
6.35624e-07
6.24521e-08
6.0083e-07
7.45421e-08
5.64623e-07
7.35889e-08
5.34037e-07
6.22538e-08
5.07555e-07
5.22599e-08
4.81959e-07
4.50633e-08
4.59544e-07
3.38725e-08
4.49905e-07
1.2273e-08
4.53313e-07
-4.60012e-09
4.41054e-07
1.80657e-08
3.80071e-07
8.04764e-08
3.27153e-07
7.93392e-08
2.85863e-07
6.95798e-08
2.50478e-07
6.44408e-08
2.21352e-07
5.79664e-08
1.96367e-07
5.23041e-08
1.73005e-07
4.83237e-08
1.48726e-07
4.65727e-08
1.24722e-07
4.3702e-08
1.0512e-07
3.65073e-08
8.95033e-08
2.97891e-08
7.59202e-08
2.55957e-08
6.35634e-08
2.28272e-08
5.14264e-08
2.16325e-08
4.20023e-08
1.78162e-08
3.73879e-08
1.09549e-08
3.59042e-08
6.0182e-09
3.44487e-08
5.41962e-09
3.10403e-08
7.98308e-09
2.32482e-08
1.29827e-08
1.51008e-08
1.3032e-08
7.67076e-09
1.13028e-08
1.66824e-09
8.37566e-09
-5.75007e-10
2.53829e-09
-4.56085e-10
-2.36665e-09
1.87735e-09
-6.74297e-09
5.14611e-09
-8.69159e-09
1.03432e-08
-1.04074e-08
1.58449e-08
-9.18494e-09
1.94812e-08
-4.33255e-09
2.00071e-08
1.46371e-09
1.79359e-08
5.00793e-09
2.191e-08
-1.9184e-09
2.60654e-08
-5.1541e-09
3.04011e-08
-9.83473e-09
3.79763e-08
-1.69591e-08
4.56127e-08
-1.82946e-08
5.22167e-08
-1.58118e-08
5.95911e-08
-1.31981e-08
6.30772e-08
-4.68121e-09
7.35492e-08
-1.13363e-08
8.34229e-08
-1.25963e-08
8.99748e-08
-1.00503e-08
9.23062e-08
-6.009e-09
9.64926e-08
-8.92325e-09
1.02698e-07
-1.2001e-08
1.07714e-07
-1.04603e-08
1.08077e-07
-4.59821e-09
1.0293e-07
5.30233e-10
1.06875e-07
-1.22319e-08
1.1685e-07
-2.21673e-08
1.30143e-07
-2.85299e-08
1.43662e-07
-2.8773e-08
1.53295e-07
-2.17553e-08
1.57551e-07
-1.16513e-08
1.57957e-07
-4.35818e-09
1.72816e-07
-1.73911e-08
1.96022e-07
-2.76469e-08
2.13573e-07
-2.69228e-08
2.28209e-07
-2.90496e-08
2.4487e-07
-3.30782e-08
2.60433e-07
-2.97431e-08
2.73875e-07
-2.393e-08
2.88552e-07
-2.46382e-08
3.01909e-07
-2.5434e-08
3.16314e-07
-2.9059e-08
3.32047e-07
-3.19814e-08
3.48235e-07
-3.25037e-08
3.63728e-07
-3.14469e-08
3.79851e-07
-3.43951e-08
3.9883e-07
-4.25283e-08
4.18975e-07
-4.88018e-08
4.38743e-07
-5.19319e-08
4.58065e-07
-5.32258e-08
4.7811e-07
-5.34208e-08
5.06806e-07
-5.78279e-08
5.5627e-07
-6.94157e-08
6.16437e-07
-7.05902e-08
6.58826e-07
-5.05774e-08
6.76784e-07
-2.87662e-08
6.98092e-07
-3.71625e-08
7.2599e-07
-4.43326e-08
7.53008e-07
-4.08813e-08
7.74173e-07
-3.3658e-08
7.92669e-07
-3.35707e-08
8.15807e-07
-4.58707e-08
8.43684e-07
-5.50504e-08
8.69777e-07
-4.8699e-08
8.98802e-07
-4.35909e-08
9.33336e-07
-3.83071e-08
9.63712e-07
-2.82305e-08
9.76984e-07
-1.08074e-08
9.75239e-07
6.90207e-10
9.66753e-07
1.20546e-08
9.45765e-07
3.97047e-08
9.24951e-07
4.54939e-08
9.11913e-07
3.19295e-08
9.04955e-07
2.53202e-08
9.00067e-07
1.28941e-08
8.98308e-07
-4.45991e-09
9.07344e-07
-2.29949e-08
9.29326e-07
-3.41671e-08
9.42081e-07
-1.96913e-08
9.46365e-07
-1.42204e-08
9.16617e-07
2.27211e-08
8.8282e-07
5.4048e-08
8.53074e-07
6.27403e-08
6.16961e-08
2.1695e-05
3.63955e-10
2.1697e-05
1.99797e-09
2.16983e-05
3.60705e-09
2.16991e-05
4.69078e-09
2.17e-05
5.38255e-09
2.17012e-05
5.94408e-09
2.17026e-05
6.49934e-09
2.17041e-05
7.03823e-09
2.17055e-05
7.51555e-09
2.17069e-05
7.92312e-09
2.17083e-05
8.27788e-09
2.17096e-05
8.5954e-09
2.1711e-05
8.88072e-09
2.17124e-05
9.13495e-09
2.17137e-05
9.36112e-09
2.1715e-05
9.56383e-09
2.17164e-05
9.74689e-09
2.17177e-05
9.91281e-09
2.1719e-05
1.00636e-08
2.17203e-05
1.0201e-08
2.17216e-05
1.03271e-08
2.17229e-05
1.04435e-08
2.17242e-05
1.05517e-08
2.17254e-05
1.0653e-08
2.17267e-05
1.07486e-08
2.1728e-05
1.08395e-08
2.17293e-05
1.09267e-08
2.17306e-05
1.10111e-08
2.17318e-05
1.10932e-08
2.17331e-05
1.1174e-08
2.17344e-05
1.12539e-08
2.17356e-05
1.13337e-08
2.17369e-05
1.14141e-08
2.17382e-05
1.14957e-08
2.17394e-05
1.15793e-08
2.17407e-05
1.16655e-08
2.1742e-05
1.17553e-08
2.17432e-05
1.18496e-08
2.17445e-05
1.19493e-08
2.17457e-05
1.20555e-08
2.17469e-05
1.21693e-08
2.17482e-05
1.22921e-08
2.17494e-05
1.24251e-08
2.17506e-05
1.257e-08
2.17518e-05
1.27284e-08
2.1753e-05
1.29022e-08
2.17542e-05
1.30936e-08
2.17553e-05
1.33049e-08
2.17564e-05
1.3539e-08
2.17575e-05
1.37989e-08
2.17586e-05
1.4088e-08
2.17596e-05
1.44103e-08
2.17605e-05
1.47702e-08
2.17615e-05
1.51725e-08
2.17623e-05
1.5623e-08
2.17631e-05
1.61277e-08
2.17638e-05
1.66939e-08
2.17645e-05
1.73295e-08
2.1765e-05
1.80435e-08
2.17655e-05
1.8846e-08
2.17658e-05
1.97485e-08
2.1766e-05
2.07638e-08
2.1766e-05
2.19065e-08
2.17659e-05
2.31931e-08
2.17655e-05
2.46422e-08
2.17649e-05
2.62746e-08
2.17641e-05
2.81141e-08
2.17631e-05
3.01875e-08
2.17617e-05
3.25248e-08
2.17599e-05
3.51602e-08
2.17578e-05
3.8132e-08
2.17553e-05
4.14835e-08
2.17522e-05
4.52633e-08
2.17487e-05
4.95263e-08
2.17445e-05
5.43344e-08
2.17397e-05
5.9757e-08
2.17342e-05
6.58725e-08
2.17278e-05
7.2769e-08
2.17206e-05
8.05458e-08
2.17125e-05
8.93141e-08
2.17033e-05
9.91992e-08
2.16929e-05
1.10342e-07
2.16813e-05
1.22898e-07
2.16684e-05
1.37046e-07
2.16542e-05
1.5298e-07
2.16384e-05
1.70921e-07
2.16211e-05
1.91111e-07
2.16023e-05
2.1382e-07
2.15819e-05
2.39346e-07
2.15601e-05
2.68017e-07
2.15369e-05
3.00193e-07
2.15127e-05
3.36266e-07
2.14877e-05
3.76662e-07
2.14626e-05
4.21841e-07
2.14381e-05
4.72297e-07
2.14152e-05
5.28562e-07
2.13953e-05
5.91205e-07
2.13802e-05
6.60838e-07
2.13721e-05
7.38122e-07
2.13737e-05
8.23779e-07
2.13879e-05
9.18606e-07
2.14182e-05
1.0235e-06
2.1468e-05
1.13948e-06
2.15402e-05
1.26774e-06
2.16369e-05
1.40962e-06
2.17585e-05
1.56669e-06
2.19022e-05
1.74071e-06
2.20615e-05
1.93366e-06
2.22243e-05
2.14777e-06
2.23717e-05
2.38552e-06
2.24775e-05
2.64987e-06
2.25095e-05
2.94342e-06
2.2432e-05
3.27e-06
2.22101e-05
3.63282e-06
2.18347e-05
4.04594e-06
2.128e-05
4.50677e-06
2.06359e-05
5.04124e-06
2.00891e-05
5.62429e-06
1.78906e-05
5.94049e-06
1.44087e-05
6.23398e-06
1.01798e-05
6.38506e-06
6.23085e-06
4.24921e-06
3.58052e-06
2.7404e-06
2.05764e-06
1.58264e-06
1.16657e-06
1.13598e-06
1.13753e-06
1.22e-07
1.16927e-06
-1.5786e-08
1.2172e-06
-5.85634e-08
1.09281e-06
1.75174e-07
9.93156e-07
1.83764e-07
9.68165e-07
9.98269e-08
9.90363e-07
3.58294e-08
9.6885e-07
8.39657e-08
9.06494e-07
1.36898e-07
8.53206e-07
1.26877e-07
8.26166e-07
8.9294e-08
8.15614e-07
6.28121e-08
7.99979e-07
6.06982e-08
7.68387e-07
6.54639e-08
7.58729e-07
2.19317e-08
7.83913e-07
-2.97844e-08
8.22024e-07
-2.00453e-08
6.77933e-07
2.24567e-07
5.21628e-07
2.35644e-07
4.07038e-07
1.84169e-07
3.25393e-07
1.46086e-07
2.84393e-07
9.89666e-08
2.60216e-07
7.64805e-08
2.38962e-07
6.95778e-08
2.09781e-07
7.57538e-08
1.79297e-07
7.4186e-08
1.54751e-07
6.10534e-08
1.34407e-07
5.01327e-08
1.1539e-07
4.4613e-08
9.57577e-08
4.24597e-08
7.72883e-08
4.01018e-08
6.38251e-08
3.12795e-08
5.71821e-08
1.75978e-08
5.47214e-08
8.47886e-09
5.51496e-08
4.9915e-09
5.58084e-08
7.32425e-09
4.45939e-08
2.41971e-08
3.27172e-08
2.49087e-08
1.64505e-08
2.75695e-08
-3.65857e-09
2.84847e-08
-7.56589e-09
6.4456e-09
-1.05057e-08
5.73204e-10
-1.38348e-08
-3.41397e-09
-2.4526e-08
1.99967e-09
-2.7842e-08
-7.09139e-09
-2.60278e-08
-1.09992e-08
-2.38523e-08
-6.50804e-09
-2.34498e-08
1.06125e-09
-2.3905e-08
5.46316e-09
3.28054e-08
-5.86288e-08
4.93697e-08
-2.17184e-08
5.46433e-08
-1.51083e-08
5.56922e-08
-1.8008e-08
5.4442e-08
-1.70444e-08
6.36516e-08
-2.50215e-08
8.18536e-08
-3.14001e-08
1.11362e-07
-3.41891e-08
1.26755e-07
-2.67302e-08
1.12919e-07
1.23997e-09
1.035e-07
-6.31213e-10
1.01554e-07
-4.06258e-09
1.00836e-07
-8.20597e-09
1.00237e-07
-1.1402e-08
1.00578e-07
-1.08006e-08
1.07726e-07
-1.17464e-08
8.49975e-08
2.32587e-08
6.74494e-08
5.31612e-09
7.22802e-08
-2.69981e-08
8.68231e-08
-4.30728e-08
1.02387e-07
-4.43367e-08
1.05883e-07
-2.52514e-08
9.23913e-08
1.8402e-09
5.69262e-08
3.1107e-08
1.59192e-07
-1.19657e-07
2.28397e-07
-9.68514e-08
2.69059e-07
-6.75846e-08
2.69497e-07
-2.94879e-08
2.7288e-07
-3.64612e-08
2.82062e-07
-3.89255e-08
3.08292e-07
-5.016e-08
3.38758e-07
-5.51043e-08
3.58635e-07
-4.53108e-08
3.72728e-07
-4.31522e-08
3.88607e-07
-4.78595e-08
4.08178e-07
-5.20754e-08
4.35791e-07
-5.90596e-08
4.54421e-07
-5.30257e-08
4.66738e-07
-5.48452e-08
4.77578e-07
-5.96418e-08
4.86327e-07
-6.0681e-08
4.92075e-07
-5.89738e-08
4.95655e-07
-5.70004e-08
4.85432e-07
-4.76055e-08
5.82679e-07
-1.66662e-07
6.99232e-07
-1.87144e-07
8.11693e-07
-1.63038e-07
8.79019e-07
-9.60924e-08
9.04423e-07
-6.25663e-08
9.20706e-07
-6.06157e-08
9.4384e-07
-6.40148e-08
9.80482e-07
-7.03e-08
1.03252e-06
-8.56093e-08
1.0877e-06
-1.01052e-07
1.12869e-06
-9.60339e-08
1.16853e-06
-8.85472e-08
1.20948e-06
-8.45349e-08
1.26222e-06
-9.10484e-08
1.32471e-06
-9.07201e-08
1.38347e-06
-6.95679e-08
1.46111e-06
-7.6954e-08
1.46559e-06
7.5797e-09
1.42218e-06
8.31166e-08
1.38299e-06
8.46827e-08
1.36603e-06
4.88889e-08
1.38172e-06
9.62547e-09
1.40507e-06
-1.04484e-08
1.41368e-06
-1.30778e-08
1.41315e-06
-2.24618e-08
1.4197e-06
-4.07215e-08
1.43102e-06
-3.10083e-08
1.44652e-06
-2.97182e-08
1.4534e-06
1.58426e-08
1.44048e-06
6.69677e-08
1.41455e-06
8.86638e-08
8.22752e-08
2.16941e-05
6.47342e-10
2.16938e-05
2.30486e-09
2.16942e-05
3.18839e-09
2.16952e-05
3.6422e-09
2.16965e-05
4.15089e-09
2.16977e-05
4.7355e-09
2.16989e-05
5.29696e-09
2.17001e-05
5.7869e-09
2.17014e-05
6.21031e-09
2.17028e-05
6.58457e-09
2.17041e-05
6.92225e-09
2.17055e-05
7.22862e-09
2.17069e-05
7.50517e-09
2.17082e-05
7.75346e-09
2.17096e-05
7.9765e-09
2.1711e-05
8.17785e-09
2.17124e-05
8.36054e-09
2.17138e-05
8.52677e-09
2.17152e-05
8.67836e-09
2.17166e-05
8.81702e-09
2.17179e-05
8.9444e-09
2.17193e-05
9.06205e-09
2.17207e-05
9.17136e-09
2.17221e-05
9.27359e-09
2.17235e-05
9.3699e-09
2.17248e-05
9.46132e-09
2.17262e-05
9.54881e-09
2.17276e-05
9.63322e-09
2.1729e-05
9.71533e-09
2.17304e-05
9.7959e-09
2.17317e-05
9.87566e-09
2.17331e-05
9.95533e-09
2.17345e-05
1.00356e-08
2.17359e-05
1.01174e-08
2.17372e-05
1.02013e-08
2.17386e-05
1.02883e-08
2.174e-05
1.03792e-08
2.17414e-05
1.0475e-08
2.17427e-05
1.05768e-08
2.17441e-05
1.06857e-08
2.17455e-05
1.08029e-08
2.17468e-05
1.09297e-08
2.17482e-05
1.10677e-08
2.17496e-05
1.12185e-08
2.17509e-05
1.13839e-08
2.17522e-05
1.15661e-08
2.17536e-05
1.17673e-08
2.17549e-05
1.19902e-08
2.17562e-05
1.22377e-08
2.17575e-05
1.25132e-08
2.17587e-05
1.28204e-08
2.176e-05
1.31635e-08
2.17612e-05
1.35473e-08
2.17624e-05
1.39772e-08
2.17636e-05
1.4459e-08
2.17647e-05
1.49995e-08
2.17658e-05
1.56064e-08
2.17668e-05
1.62883e-08
2.17678e-05
1.70548e-08
2.17687e-05
1.79167e-08
2.17696e-05
1.88864e-08
2.17704e-05
1.99776e-08
2.17711e-05
2.12059e-08
2.17717e-05
2.25887e-08
2.17722e-05
2.41456e-08
2.17726e-05
2.5899e-08
2.17728e-05
2.78736e-08
2.17729e-05
3.00975e-08
2.17728e-05
3.26023e-08
2.17725e-05
3.54235e-08
2.17721e-05
3.86009e-08
2.17714e-05
4.21792e-08
2.17704e-05
4.62086e-08
2.17692e-05
5.07455e-08
2.17677e-05
5.5853e-08
2.17659e-05
6.16019e-08
2.17637e-05
6.80714e-08
2.17611e-05
7.53503e-08
2.17581e-05
8.35377e-08
2.17547e-05
9.27443e-08
2.17508e-05
1.03094e-07
2.17464e-05
1.14724e-07
2.17415e-05
1.27788e-07
2.17361e-05
1.42457e-07
2.17301e-05
1.58918e-07
2.17237e-05
1.77381e-07
2.17167e-05
1.98075e-07
2.17093e-05
2.21255e-07
2.17014e-05
2.47196e-07
2.16932e-05
2.76203e-07
2.16848e-05
3.08603e-07
2.16763e-05
3.44753e-07
2.1668e-05
3.85034e-07
2.166e-05
4.29856e-07
2.16526e-05
4.79649e-07
2.16463e-05
5.3487e-07
2.16415e-05
5.95994e-07
2.16388e-05
6.63513e-07
2.1639e-05
7.37935e-07
2.1643e-05
8.1978e-07
2.1652e-05
9.09582e-07
2.16676e-05
1.0079e-06
2.16918e-05
1.11533e-06
2.1727e-05
1.23255e-06
2.17763e-05
1.36035e-06
2.18432e-05
1.49971e-06
2.1932e-05
1.65193e-06
2.2047e-05
1.81871e-06
2.21924e-05
2.00233e-06
2.23722e-05
2.20572e-06
2.25894e-05
2.43264e-06
2.28452e-05
2.68763e-06
2.31388e-05
2.97638e-06
2.34666e-05
3.30503e-06
2.38316e-05
3.681e-06
2.42309e-05
4.10749e-06
2.46826e-05
4.58947e-06
2.519e-05
5.1169e-06
2.54642e-05
5.66633e-06
2.55767e-05
6.12149e-06
2.55075e-05
6.45419e-06
2.33984e-05
6.35832e-06
1.99896e-05
6.14925e-06
1.58283e-05
5.74395e-06
1.16963e-05
5.26796e-06
7.92434e-06
3.89393e-06
5.15513e-06
2.75342e-06
3.38269e-06
1.71388e-06
2.1434e-06
1.41446e-06
1.63658e-06
6.90589e-07
1.62417e-06
1.12233e-07
1.60671e-06
5.32885e-08
1.55903e-06
1.31647e-07
1.38708e-06
3.08845e-07
1.30903e-06
2.0493e-07
1.32174e-06
7.65789e-08
1.35492e-06
2.96332e-08
1.27987e-06
1.35756e-07
1.20933e-06
1.36001e-07
1.2131e-06
1.81604e-08
1.3262e-06
-1.42881e-07
1.60013e-06
-2.93977e-07
1.48211e-06
3.42583e-07
1.05471e-06
6.63041e-07
6.55773e-07
5.83111e-07
3.96794e-07
4.05065e-07
2.8276e-07
2.13001e-07
2.74488e-07
8.47524e-08
3.45083e-07
-1.01726e-09
4.47665e-07
-2.68286e-08
5.62021e-07
-4.01694e-08
6.7476e-07
-5.16857e-08
7.76756e-07
-5.18632e-08
8.47906e-07
-2.65378e-08
8.20672e-07
6.9694e-08
6.59294e-07
2.0148e-07
4.02755e-07
2.87818e-07
1.73692e-07
2.46661e-07
9.36825e-08
8.84882e-08
1.09674e-07
-1.09999e-08
2.1255e-07
-9.55516e-08
3.34213e-07
-9.74661e-08
3.7089e-07
-1.17687e-08
3.18108e-07
8.03517e-08
1.93982e-07
1.5261e-07
7.63692e-08
1.24059e-07
3.39969e-08
4.29455e-08
2.47644e-09
2.81065e-08
-6.66169e-08
7.1093e-08
-8.42785e-08
1.05702e-08
-9.03058e-08
-4.9719e-09
-9.43407e-08
-2.47314e-09
-8.84298e-08
-4.84968e-09
9.51071e-08
-1.78074e-07
2.732e-07
-2.36722e-07
2.81703e-07
-3.0221e-08
2.03371e-07
6.3224e-08
1.46603e-07
3.87602e-08
1.29645e-07
-8.65122e-11
1.47708e-07
-4.30841e-08
2.33513e-07
-1.17206e-07
2.64076e-07
-6.47513e-08
1.84828e-07
5.25179e-08
7.97615e-08
1.06306e-07
3.87772e-08
4.03532e-08
1.09719e-07
-7.50044e-08
1.48047e-07
-4.65337e-08
4.86675e-08
8.79773e-08
-1.78649e-07
2.16516e-07
-4.57868e-07
2.67473e-07
-5.16462e-07
8.18526e-08
-3.56559e-07
-1.54588e-07
-1.53634e-07
-2.29922e-07
-7.37985e-08
-1.22909e-07
-7.56994e-08
-4.24357e-08
-7.44784e-08
-2.64725e-08
-7.96334e-08
6.99519e-09
-2.57588e-07
2.09062e-07
-1.44306e-07
-2.32939e-07
1.00246e-07
-3.41403e-07
2.22286e-07
-1.89625e-07
2.55236e-07
-6.24385e-08
2.13505e-07
5.26971e-09
1.63255e-07
1.13247e-08
1.50627e-07
-3.7532e-08
2.1795e-07
-1.22427e-07
3.09634e-07
-1.36994e-07
3.5367e-07
-8.71878e-08
3.60586e-07
-5.47762e-08
3.97034e-07
-8.85232e-08
4.66977e-07