/*--------------------------------*- C++ -*----------------------------------*\
| =========                 |                                                 |
| \\      /  F ield         | OpenFOAM: The Open Source CFD Toolbox           |
|  \\    /   O peration     | Version:  2406                                  |
|   \\  /    A nd           | Website:  www.openfoam.com                      |
|    \\/     M anipulation  |                                                 |
\*---------------------------------------------------------------------------*/
FoamFile
{
    version     2.0;
    format      ascii;
    arch        "LSB;label=32;scalar=64";
    class       volVectorField;
    location    "0.25";
    object      U;
}
// * * * * * * * * * * * * * * * * * * * * * * * * * * * * * * * * * * * * * //

dimensions      [0 1 -1 0 0 0 0];

internalField   nonuniform List<vector> 
6250
(
(37.2971 0.0137317 0)
(40.0303 0.0494578 0)
(25.7437 0.059171 0)
(22.8204 0.0548772 0)
(26.1211 0.0536082 0)
(27.8886 0.0576913 0)
(27.4992 0.0625355 0)
(26.8228 0.0653532 0)
(26.6605 0.0668563 0)
(26.7712 0.0682621 0)
(26.8324 0.0698218 0)
(26.7944 0.0712688 0)
(26.733 0.0724553 0)
(26.6917 0.0734348 0)
(26.6647 0.0742927 0)
(26.6371 0.0750606 0)
(26.6049 0.0757391 0)
(26.571 0.0763332 0)
(26.5376 0.0768574 0)
(26.505 0.0773264 0)
(26.4723 0.0777491 0)
(26.4393 0.0781295 0)
(26.4062 0.0784699 0)
(26.373 0.078772 0)
(26.3398 0.0790378 0)
(26.3066 0.0792696 0)
(26.2734 0.0794701 0)
(26.2401 0.0796422 0)
(26.2068 0.0797886 0)
(26.1734 0.0799118 0)
(26.14 0.080014 0)
(26.1067 0.0800971 0)
(26.0733 0.0801628 0)
(26.0398 0.0802128 0)
(26.0064 0.0802487 0)
(25.973 0.0802724 0)
(25.9395 0.0802861 0)
(25.906 0.0802926 0)
(25.8725 0.0802954 0)
(25.839 0.0802983 0)
(25.8054 0.0803055 0)
(25.7718 0.0803212 0)
(25.7381 0.0803494 0)
(25.7044 0.0803939 0)
(25.6706 0.0804583 0)
(25.6367 0.0805459 0)
(25.6026 0.0806605 0)
(25.5685 0.0808057 0)
(25.5342 0.0809856 0)
(25.4997 0.0812047 0)
(25.4651 0.0814676 0)
(25.4302 0.0817798 0)
(25.395 0.082147 0)
(25.3595 0.0825757 0)
(25.3237 0.083073 0)
(25.2876 0.0836473 0)
(25.2509 0.084308 0)
(25.2138 0.085066 0)
(25.1762 0.0859342 0)
(25.1378 0.0869274 0)
(25.0988 0.0880632 0)
(25.059 0.0893618 0)
(25.0182 0.090847 0)
(24.9764 0.0925456 0)
(24.9334 0.0944884 0)
(24.889 0.0967098 0)
(24.8431 0.0992484 0)
(24.7955 0.102147 0)
(24.7458 0.105455 0)
(24.694 0.109224 0)
(24.6395 0.113515 0)
(24.5822 0.118397 0)
(24.5216 0.123947 0)
(24.4573 0.130253 0)
(24.3888 0.137414 0)
(24.3154 0.145546 0)
(24.2366 0.154778 0)
(24.1516 0.165257 0)
(24.0596 0.17715 0)
(23.9597 0.190645 0)
(23.8507 0.205952 0)
(23.7314 0.223309 0)
(23.6004 0.24298 0)
(23.4561 0.265259 0)
(23.2968 0.29047 0)
(23.1204 0.318968 0)
(22.9245 0.35114 0)
(22.7067 0.387402 0)
(22.4639 0.428191 0)
(22.193 0.473961 0)
(21.8903 0.525166 0)
(21.5517 0.582237 0)
(21.1729 0.645555 0)
(20.749 0.7154 0)
(20.2749 0.791909 0)
(19.7452 0.87501 0)
(19.1541 0.964356 0)
(18.496 1.05922 0)
(17.7653 1.1584 0)
(16.9568 1.26007 0)
(16.066 1.36166 0)
(15.09 1.45969 0)
(14.0268 1.54949 0)
(12.8767 1.62528 0)
(11.6423 1.68024 0)
(10.3298 1.70669 0)
(8.94854 1.69642 0)
(7.5148 1.64121 0)
(6.03816 1.53442 0)
(4.57792 1.37578 0)
(3.00416 1.15805 0)
(1.9371 1.13994 0)
(-0.428056 -0.0379923 0)
(-0.111898 -2.56309 0)
(-1.34169 -5.14601 0)
(0.435265 -6.88266 0)
(2.60531 -2.95284 0)
(0.538159 0.853475 0)
(0.456956 0.357032 0)
(0.387144 0.103546 0)
(0.319767 0.0241009 0)
(0.278647 0.00917954 0)
(0.256832 -0.00976826 0)
(0.258381 -0.0154192 0)
(0.263874 -0.00419476 0)
(0.260598 0.00401963 0)
(0.252534 0.00412009 0)
(0.245624 0.00256409 0)
(0.237484 0.00349903 0)
(0.224462 0.0052936 0)
(0.207884 0.00588058 0)
(0.191048 0.00561404 0)
(0.174977 0.00563039 0)
(0.159235 0.00569957 0)
(0.144253 0.00514732 0)
(0.131167 0.00400942 0)
(0.120723 0.00258905 0)
(0.113374 0.000788652 0)
(0.109871 -0.0015568 0)
(0.110832 -0.00405003 0)
(0.114972 -0.00533282 0)
(0.118424 -0.00415992 0)
(0.117511 -0.00153981 0)
(0.111803 0.00028241 0)
(0.103237 0.00122747 0)
(0.0933288 0.00187 0)
(0.0828908 0.00228731 0)
(0.0725352 0.00239015 0)
(0.0627819 0.0022082 0)
(0.0539949 0.00189347 0)
(0.0463252 0.0015914 0)
(0.0397607 0.00129168 0)
(0.0342186 0.00100483 0)
(0.0295445 0.000808069 0)
(0.0255102 0.000723984 0)
(0.0218884 0.000696132 0)
(0.0185883 0.000583491 0)
(0.0158583 0.000423996 0)
(0.0138415 0.000231859 0)
(0.0122887 0.000155137 0)
(0.0107647 0.000216655 0)
(0.00904811 0.000258192 0)
(0.00729689 0.000154056 0)
(0.00580996 -4.15557e-05 0)
(0.00483199 -0.000246454 0)
(0.00462594 -0.0003698 0)
(0.00543638 -0.000770427 0)
(0.00724777 -0.00111589 0)
(0.00966299 -0.0011923 0)
(0.0120285 -0.000924178 0)
(0.0136559 -0.000396513 0)
(0.013944 0.000397138 0)
(0.0128159 0.00115574 0)
(0.0108563 0.00157203 0)
(0.00892831 0.00146639 0)
(0.0080342 0.000779489 0)
(0.00898901 -0.000313993 0)
(0.0119642 -0.00128749 0)
(0.0161845 -0.0016329 0)
(0.0202777 -0.00117348 0)
(0.0228823 9.18743e-07 0)
(0.0234344 0.00145515 0)
(0.0226872 0.00209989 0)
(0.0221024 0.0019242 0)
(0.0222959 0.00149574 0)
(0.0230241 0.0010338 0)
(0.0242282 0.000472197 0)
(0.0259481 -2.64153e-05 0)
(0.0278658 -0.000210347 0)
(0.0295728 -0.00016995 0)
(0.0312697 -0.000379336 0)
(0.0338842 -0.00111306 0)
(0.0381752 -0.0019228 0)
(0.0439967 -0.00244483 0)
(0.0503589 -0.00231654 0)
(0.0558318 -0.00146563 0)
(0.0592678 -0.000145372 0)
(0.0603991 0.00122836 0)
(0.0601347 0.00221424 0)
(0.0600608 0.00218129 0)
(0.0615736 0.00102385 0)
(0.0652523 -0.00041227 0)
(0.0703969 -0.00107957 0)
(0.0753612 -0.00057498 0)
(0.0791033 0.000332186 0)
(0.0820106 0.00054785 0)
(0.0852023 -7.06001e-06 0)
(0.0894132 -0.000768006 0)
(0.0945857 -0.00123734 0)
(0.100119 -0.00124947 0)
(0.105656 -0.00112242 0)
(0.111798 -0.00155615 0)
(0.11975 -0.00273704 0)
(0.130201 -0.00410273 0)
(0.142906 -0.00517553 0)
(0.156998 -0.00566741 0)
(0.171139 -0.0047736 0)
(0.182783 -0.00174324 0)
(0.189489 0.00325741 0)
(0.191484 0.00744067 0)
(0.191484 0.00790198 0)
(0.19181 0.00538873 0)
(0.192943 0.002926 0)
(0.194814 0.00226921 0)
(0.196171 0.0023316 0)
(0.196939 0.00250882 0)
(0.19994 0.0024922 0)
(0.208393 0.00159106 0)
(0.218548 0.00168824 0)
(0.230511 0.000846987 0)
(0.237528 -0.00264941 0)
(0.238497 -0.00616879 0)
(0.237804 -0.00907979 0)
(0.235002 -0.0122173 0)
(0.233564 -0.0138502 0)
(0.232067 -0.0111257 0)
(0.228107 -0.00325846 0)
(0.220655 0.00454978 0)
(0.211423 0.00979265 0)
(0.203274 0.0133191 0)
(0.200389 0.0118049 0)
(0.204065 0.00550621 0)
(0.213374 -0.00202169 0)
(0.223968 -0.00941764 0)
(0.230098 -0.0177804 0)
(0.233699 -0.0224987 0)
(0.233916 -0.018888 0)
(0.232131 -0.00743114 0)
(0.224727 0.00257653 0)
(0.214077 0.00802385 0)
(37.3288 0.0100655 0)
(40.1439 0.0372833 0)
(25.9117 0.0470767 0)
(23.0076 0.0433562 0)
(26.3316 0.041202 0)
(28.1424 0.0440239 0)
(27.805 0.0477293 0)
(27.178 0.0494992 0)
(27.0613 0.0499214 0)
(27.2172 0.0502659 0)
(27.3254 0.0508546 0)
(27.3357 0.0514204 0)
(27.323 0.0517882 0)
(27.3303 0.052005 0)
(27.3519 0.0521643 0)
(27.3731 0.0523005 0)
(27.3898 0.0524083 0)
(27.4049 0.0524842 0)
(27.4207 0.0525358 0)
(27.4371 0.0525731 0)
(27.4535 0.0526018 0)
(27.4697 0.0526243 0)
(27.4857 0.052642 0)
(27.5016 0.0526569 0)
(27.5175 0.0526707 0)
(27.5333 0.0526848 0)
(27.549 0.0527007 0)
(27.5647 0.0527193 0)
(27.5802 0.0527415 0)
(27.5957 0.0527683 0)
(27.611 0.0528003 0)
(27.6263 0.0528383 0)
(27.6415 0.052883 0)
(27.6566 0.0529352 0)
(27.6715 0.052996 0)
(27.6864 0.0530668 0)
(27.7012 0.0531493 0)
(27.7158 0.0532454 0)
(27.7304 0.0533576 0)
(27.7448 0.0534883 0)
(27.7592 0.0536403 0)
(27.7734 0.053816 0)
(27.7876 0.0540181 0)
(27.8016 0.0542493 0)
(27.8156 0.0545124 0)
(27.8294 0.0548106 0)
(27.8432 0.0551474 0)
(27.8569 0.0555269 0)
(27.8705 0.0559539 0)
(27.884 0.0564339 0)
(27.8974 0.0569729 0)
(27.9108 0.0575779 0)
(27.924 0.0582569 0)
(27.9372 0.0590189 0)
(27.9503 0.0598742 0)
(27.9634 0.0608344 0)
(27.9764 0.061913 0)
(27.9893 0.0631253 0)
(28.0021 0.0644887 0)
(28.0148 0.0660233 0)
(28.0275 0.067752 0)
(28.0401 0.0697011 0)
(28.0526 0.0719006 0)
(28.0651 0.0743849 0)
(28.0774 0.0771932 0)
(28.0897 0.0803699 0)
(28.1019 0.0839657 0)
(28.1141 0.0880382 0)
(28.1261 0.0926528 0)
(28.1381 0.0978837 0)
(28.15 0.103815 0)
(28.1619 0.110544 0)
(28.1736 0.11818 0)
(28.1852 0.126848 0)
(28.1966 0.136694 0)
(28.208 0.147881 0)
(28.2191 0.1606 0)
(28.23 0.175069 0)
(28.2406 0.191537 0)
(28.2509 0.210292 0)
(28.2607 0.231665 0)
(28.2699 0.256034 0)
(28.2784 0.283835 0)
(28.286 0.315568 0)
(28.2924 0.351802 0)
(28.2973 0.393191 0)
(28.3001 0.440477 0)
(28.3004 0.494503 0)
(28.2974 0.556219 0)
(28.29 0.626693 0)
(28.2771 0.70711 0)
(28.257 0.798775 0)
(28.2276 0.903109 0)
(28.1864 1.02162 0)
(28.1301 1.15589 0)
(28.0547 1.30745 0)
(27.9554 1.47778 0)
(27.8263 1.66811 0)
(27.6604 1.87928 0)
(27.4494 2.11157 0)
(27.1836 2.36438 0)
(26.8521 2.63604 0)
(26.4429 2.92343 0)
(25.9431 3.22172 0)
(25.3397 3.52406 0)
(24.6197 3.82142 0)
(23.7708 4.10229 0)
(22.7843 4.35303 0)
(21.6508 4.55644 0)
(20.3827 4.69785 0)
(18.9662 4.73978 0)
(17.5079 4.71363 0)
(15.8509 4.42863 0)
(14.2225 3.8824 0)
(11.842 3.20507 0)
(8.60495 1.85794 0)
(5.89574 1.23196 0)
(1.57404 2.71504 0)
(1.56731 0.896683 0)
(1.19742 0.158614 0)
(0.892109 0.198278 0)
(0.777685 0.146197 0)
(0.734236 0.0458908 0)
(0.729002 -0.00622622 0)
(0.714553 0.00298728 0)
(0.679682 0.025272 0)
(0.646944 0.0223621 0)
(0.63127 0.0203185 0)
(0.617965 0.040729 0)
(0.592995 0.0617516 0)
(0.559376 0.0668083 0)
(0.526379 0.0624935 0)
(0.494941 0.0598115 0)
(0.461548 0.0581681 0)
(0.427425 0.0529297 0)
(0.396776 0.0443065 0)
(0.371149 0.0343192 0)
(0.350041 0.0224975 0)
(0.334118 0.00757906 0)
(0.325489 -0.00783801 0)
(0.322705 -0.0139466 0)
(0.317298 -0.00294551 0)
(0.302631 0.0176479 0)
(0.278676 0.0313653 0)
(0.251942 0.0380458 0)
(0.225425 0.0412126 0)
(0.199413 0.041847 0)
(0.174558 0.0405116 0)
(0.151626 0.0376698 0)
(0.130772 0.033653 0)
(0.112062 0.0292982 0)
(0.0957789 0.0250477 0)
(0.0820356 0.0211891 0)
(0.0705063 0.0181181 0)
(0.0605994 0.015901 0)
(0.0518027 0.0144483 0)
(0.0438272 0.0128409 0)
(0.0372272 0.00994021 0)
(0.0327074 0.00714013 0)
(0.0293239 0.0061008 0)
(0.0256402 0.00672338 0)
(0.0211477 0.00748689 0)
(0.0163796 0.00700697 0)
(0.0122111 0.00554359 0)
(0.0090555 0.00302302 0)
(0.00741197 -0.000779225 0)
(0.00788469 -0.00483076 0)
(0.0104399 -0.00798632 0)
(0.014436 -0.00898103 0)
(0.01917 -0.00742538 0)
(0.0234831 -0.0036017 0)
(0.0260383 0.00189682 0)
(0.0261141 0.00577994 0)
(0.0244223 0.00674352 0)
(0.0226509 0.00443371 0)
(0.022585 -0.000738225 0)
(0.0255724 -0.0078922 0)
(0.0323271 -0.014208 0)
(0.0414468 -0.0162962 0)
(0.0504012 -0.0134418 0)
(0.0570032 -0.00691458 0)
(0.0603885 -0.000525645 0)
(0.0623887 0.000716145 0)
(0.0650103 -0.00186336 0)
(0.068695 -0.00418347 0)
(0.0723979 -0.00526433 0)
(0.0764127 -0.0068746 0)
(0.0814367 -0.00819315 0)
(0.0867441 -0.00763904 0)
(0.0908801 -0.00607689 0)
(0.0942153 -0.00704586 0)
(0.0991792 -0.0129296 0)
(0.107719 -0.0195202 0)
(0.119616 -0.0236536 0)
(0.133173 -0.0228997 0)
(0.14555 -0.0170705 0)
(0.154395 -0.00876965 0)
(0.159294 -0.00240691 0)
(0.16274 -0.00138427 0)
(0.166962 -0.00556792 0)
(0.174083 -0.0127774 0)
(0.185596 -0.0193592 0)
(0.200344 -0.0213409 0)
(0.214572 -0.0179576 0)
(0.226328 -0.0140251 0)
(0.236044 -0.0134132 0)
(0.246206 -0.0157022 0)
(0.258587 -0.0190296 0)
(0.273033 -0.0213819 0)
(0.287832 -0.0219101 0)
(0.301908 -0.0226461 0)
(0.316801 -0.0270695 0)
(0.334907 -0.0354118 0)
(0.357162 -0.0440611 0)
(0.382878 -0.0503677 0)
(0.410852 -0.0530014 0)
(0.440107 -0.0500189 0)
(0.467701 -0.0387076 0)
(0.49012 -0.0216931 0)
(0.507787 -0.0108573 0)
(0.52033 -0.00863412 0)
(0.530751 -0.0105176 0)
(0.545259 -0.0120908 0)
(0.563511 -0.00729024 0)
(0.581892 -0.00500995 0)
(0.596662 -0.00952012 0)
(0.611043 -0.0218943 0)
(0.627016 -0.045636 0)
(0.645982 -0.0574712 0)
(0.668242 -0.0405398 0)
(0.68526 -0.0166816 0)
(0.694935 0.0137145 0)
(0.697751 0.0238818 0)
(0.697201 0.0181649 0)
(0.699705 0.018358 0)
(0.695515 0.0268568 0)
(0.68506 0.0323333 0)
(0.666961 0.0301165 0)
(0.646358 0.0207505 0)
(0.629117 0.00939625 0)
(0.620723 -0.0126374 0)
(0.613897 -0.0427001 0)
(0.614933 -0.0520333 0)
(0.622656 -0.0269504 0)
(0.632539 0.00983047 0)
(0.641044 0.0201491 0)
(0.64731 0.0190034 0)
(0.642024 0.0270925 0)
(0.61232 0.0323192 0)
(0.58023 0.0362503 0)
(37.3224 -0.00039449 0)
(40.1066 -0.00184017 0)
(25.8458 -0.000727281 0)
(22.937 0.00223289 0)
(26.2609 0.0050307 0)
(28.0613 0.00678166 0)
(27.7066 0.00789583 0)
(27.0628 0.00890635 0)
(26.9321 0.0098758 0)
(27.0751 0.0107528 0)
(27.1697 0.0115362 0)
(27.1657 0.0122471 0)
(27.1385 0.0128988 0)
(27.1316 0.0135023 0)
(27.1391 0.0140693 0)
(27.1461 0.0146076 0)
(27.1487 0.0151197 0)
(27.1498 0.0156068 0)
(27.1515 0.0160706 0)
(27.1539 0.0165138 0)
(27.1565 0.0169389 0)
(27.1588 0.0173485 0)
(27.161 0.0177451 0)
(27.1633 0.0181312 0)
(27.1656 0.018509 0)
(27.1679 0.0188798 0)
(27.1703 0.0192449 0)
(27.1726 0.019605 0)
(27.175 0.0199608 0)
(27.1774 0.0203133 0)
(27.1797 0.0206632 0)
(27.1822 0.0210116 0)
(27.1846 0.0213595 0)
(27.187 0.0217081 0)
(27.1895 0.0220587 0)
(27.192 0.0224127 0)
(27.1944 0.0227715 0)
(27.1969 0.0231364 0)
(27.1994 0.0235087 0)
(27.202 0.0238899 0)
(27.2045 0.0242813 0)
(27.207 0.0246848 0)
(27.2096 0.0251023 0)
(27.2121 0.0255364 0)
(27.2147 0.02599 0)
(27.2172 0.0264665 0)
(27.2198 0.0269701 0)
(27.2223 0.0275053 0)
(27.2248 0.0280771 0)
(27.2273 0.0286915 0)
(27.2298 0.0293549 0)
(27.2323 0.0300746 0)
(27.2347 0.0308589 0)
(27.237 0.0317172 0)
(27.2394 0.0326598 0)
(27.2416 0.0336988 0)
(27.2438 0.0348473 0)
(27.246 0.0361206 0)
(27.248 0.0375355 0)
(27.2499 0.0391112 0)
(27.2517 0.0408694 0)
(27.2534 0.0428345 0)
(27.2548 0.0450341 0)
(27.2561 0.0474996 0)
(27.2572 0.0502669 0)
(27.2581 0.0533766 0)
(27.2587 0.0568752 0)
(27.259 0.0608157 0)
(27.259 0.0652586 0)
(27.2586 0.0702729 0)
(27.2578 0.0759376 0)
(27.2565 0.0823426 0)
(27.2548 0.0895908 0)
(27.2525 0.0977996 0)
(27.2497 0.107104 0)
(27.2462 0.117658 0)
(27.242 0.129638 0)
(27.237 0.14325 0)
(27.2313 0.158727 0)
(27.2247 0.17634 0)
(27.2173 0.196402 0)
(27.209 0.219275 0)
(27.1998 0.245377 0)
(27.1898 0.275193 0)
(27.179 0.309286 0)
(27.1675 0.348307 0)
(27.1556 0.393013 0)
(27.1434 0.444281 0)
(27.1314 0.503126 0)
(27.1201 0.570724 0)
(27.11 0.648428 0)
(27.102 0.737797 0)
(27.097 0.840611 0)
(27.0963 0.958898 0)
(27.1011 1.09493 0)
(27.1128 1.25123 0)
(27.133 1.43049 0)
(27.1629 1.63559 0)
(27.2035 1.86942 0)
(27.2553 2.13476 0)
(27.3177 2.43408 0)
(27.3889 2.76923 0)
(27.465 3.14113 0)
(27.5398 3.54924 0)
(27.604 3.99101 0)
(27.6445 4.46134 0)
(27.6443 4.95201 0)
(27.5815 5.45146 0)
(27.4294 5.94357 0)
(27.1544 6.40941 0)
(26.7175 6.82102 0)
(26.0548 7.1476 0)
(25.112 7.34556 0)
(23.7708 7.42249 0)
(21.9235 7.55675 0)
(19.6111 7.64654 0)
(16.4214 8.25157 0)
(13.807 9.49298 0)
(8.08858 2.92772 0)
(6.19121 0.791529 0)
(1.81712 0.956753 0)
(1.56075 0.422767 0)
(1.46921 0.0254365 0)
(1.35498 -0.0720998 0)
(1.09192 0.127173 0)
(0.974032 0.155727 0)
(0.953006 0.100186 0)
(0.971154 0.0597959 0)
(0.968054 0.0723877 0)
(0.92587 0.111505 0)
(0.871525 0.12647 0)
(0.835975 0.120033 0)
(0.810645 0.131956 0)
(0.774663 0.147749 0)
(0.728066 0.140511 0)
(0.684533 0.116841 0)
(0.649165 0.0933129 0)
(0.617326 0.0747089 0)
(0.586853 0.0537694 0)
(0.569386 0.0245017 0)
(0.567822 0.0110243 0)
(0.561256 0.0389057 0)
(0.517783 0.0845426 0)
(0.443225 0.105125 0)
(0.380503 0.108955 0)
(0.332464 0.109067 0)
(0.293109 0.105599 0)
(0.259948 0.0975665 0)
(0.230491 0.0867488 0)
(0.20137 0.0760691 0)
(0.170407 0.0669578 0)
(0.142531 0.0573636 0)
(0.120842 0.0478693 0)
(0.103014 0.0403366 0)
(0.0866429 0.0349039 0)
(0.0709279 0.0313395 0)
(0.0575119 0.0274851 0)
(0.048897 0.021373 0)
(0.045427 0.0152813 0)
(0.0442843 0.0143036 0)
(0.041441 0.0172645 0)
(0.0345475 0.0188321 0)
(0.0241676 0.0170346 0)
(0.013872 0.0135102 0)
(0.00494179 0.00901403 0)
(-0.000228553 0.00264086 0)
(-0.00139405 -0.00564231 0)
(0.000483088 -0.0130236 0)
(0.00387736 -0.0166427 0)
(0.00934589 -0.0189411 0)
(0.0164945 -0.0162723 0)
(0.0228341 -0.00643843 0)
(0.0247878 0.00248374 0)
(0.0232357 0.0059277 0)
(0.0239446 0.00456624 0)
(0.0299954 -0.00508111 0)
(0.0353593 -0.0204958 0)
(0.0427279 -0.0331059 0)
(0.0525326 -0.0356714 0)
(0.0605797 -0.0310425 0)
(0.0669142 -0.02281 0)
(0.0752523 -0.0073011 0)
(0.0881025 -0.00469272 0)
(0.0996499 -0.0105087 0)
(0.108257 -0.0121123 0)
(0.114046 -0.0125176 0)
(0.118341 -0.0158625 0)
(0.124873 -0.0206828 0)
(0.131956 -0.0205237 0)
(0.134409 -0.0167457 0)
(0.131974 -0.0181229 0)
(0.130588 -0.0273752 0)
(0.138456 -0.0382481 0)
(0.15359 -0.0504701 0)
(0.171479 -0.0543835 0)
(0.186617 -0.0454879 0)
(0.194167 -0.0307636 0)
(0.195495 -0.0203786 0)
(0.204081 -0.0127186 0)
(0.230678 -0.015308 0)
(0.257269 -0.0325965 0)
(0.277024 -0.0524812 0)
(0.295643 -0.0622088 0)
(0.31476 -0.0540095 0)
(0.333737 -0.0391259 0)
(0.352229 -0.0376627 0)
(0.369219 -0.0468088 0)
(0.38659 -0.0572253 0)
(0.405286 -0.063022 0)
(0.42457 -0.0623167 0)
(0.443688 -0.0591017 0)
(0.464686 -0.0663639 0)
(0.487037 -0.0839122 0)
(0.511035 -0.10026 0)
(0.536219 -0.11075 0)
(0.561158 -0.116041 0)
(0.584516 -0.115956 0)
(0.609322 -0.106189 0)
(0.656828 -0.0741761 0)
(0.738665 -0.0361695 0)
(0.800175 -0.0286621 0)
(0.836329 -0.0475642 0)
(0.861185 -0.0738517 0)
(0.889716 -0.0817047 0)
(0.924103 -0.069959 0)
(0.954372 -0.0579508 0)
(0.979818 -0.0580018 0)
(1.00519 -0.0704172 0)
(1.03593 -0.0751813 0)
(1.07054 -0.0671137 0)
(1.10637 -0.0531381 0)
(1.14655 -0.0333114 0)
(1.18434 -0.0159563 0)
(1.21329 -0.0112447 0)
(1.22727 -0.0280885 0)
(1.22121 -0.0169321 0)
(1.1985 0.0677862 0)
(1.16651 0.0974853 0)
(1.14251 0.0709276 0)
(1.13265 0.0781712 0)
(1.12781 0.0539527 0)
(1.12464 0.0160061 0)
(1.13176 -0.00745646 0)
(1.14559 -0.0222855 0)
(1.16673 -0.0445516 0)
(1.17796 -0.0786954 0)
(1.16767 -0.0703332 0)
(1.13438 0.0472101 0)
(1.08182 0.116399 0)
(1.0434 0.133159 0)
(37.3284 0.00246066 0)
(40.1243 0.0113039 0)
(25.8626 0.0176468 0)
(22.9467 0.0210479 0)
(26.2662 0.0231215 0)
(28.0657 0.0249387 0)
(27.7111 0.0268579 0)
(27.0669 0.0287136 0)
(26.9353 0.0302996 0)
(27.0773 0.0315975 0)
(27.1711 0.0327018 0)
(27.1665 0.0336841 0)
(27.1386 0.0345586 0)
(27.131 0.0353221 0)
(27.1378 0.0359828 0)
(27.1442 0.0365578 0)
(27.1461 0.037062 0)
(27.1465 0.037505 0)
(27.1476 0.0378936 0)
(27.1493 0.0382344 0)
(27.1512 0.038534 0)
(27.1529 0.0387982 0)
(27.1544 0.0390324 0)
(27.156 0.039241 0)
(27.1576 0.0394282 0)
(27.1592 0.0395974 0)
(27.1608 0.0397519 0)
(27.1624 0.0398943 0)
(27.164 0.040027 0)
(27.1656 0.0401522 0)
(27.1672 0.0402721 0)
(27.1688 0.0403885 0)
(27.1703 0.0405034 0)
(27.1719 0.0406187 0)
(27.1735 0.0407367 0)
(27.1751 0.0408593 0)
(27.1767 0.0409891 0)
(27.1782 0.0411287 0)
(27.1798 0.0412809 0)
(27.1814 0.0414488 0)
(27.1829 0.0416356 0)
(27.1845 0.0418447 0)
(27.186 0.0420797 0)
(27.1875 0.0423443 0)
(27.189 0.0426429 0)
(27.1905 0.04298 0)
(27.192 0.0433608 0)
(27.1934 0.0437912 0)
(27.1948 0.0442778 0)
(27.1962 0.0448278 0)
(27.1975 0.0454497 0)
(27.1988 0.0461527 0)
(27.2001 0.0469474 0)
(27.2013 0.0478454 0)
(27.2024 0.0488602 0)
(27.2034 0.0500067 0)
(27.2044 0.0513017 0)
(27.2052 0.0527646 0)
(27.206 0.0544167 0)
(27.2066 0.0562825 0)
(27.2071 0.0583895 0)
(27.2074 0.0607689 0)
(27.2075 0.0634557 0)
(27.2075 0.0664898 0)
(27.2072 0.0699162 0)
(27.2066 0.0737857 0)
(27.2058 0.0781559 0)
(27.2046 0.0830918 0)
(27.203 0.0886667 0)
(27.2011 0.0949635 0)
(27.1987 0.102075 0)
(27.1958 0.110108 0)
(27.1923 0.119179 0)
(27.1882 0.129422 0)
(27.1834 0.140989 0)
(27.1778 0.154047 0)
(27.1714 0.168788 0)
(27.164 0.185426 0)
(27.1556 0.204203 0)
(27.146 0.225391 0)
(27.1352 0.249296 0)
(27.123 0.276259 0)
(27.1093 0.306666 0)
(27.094 0.340948 0)
(27.0771 0.379586 0)
(27.0583 0.423121 0)
(27.0377 0.472151 0)
(27.0151 0.527347 0)
(26.9906 0.58945 0)
(26.9642 0.659286 0)
(26.9361 0.737766 0)
(26.9064 0.825899 0)
(26.8755 0.924794 0)
(26.8441 1.03568 0)
(26.8128 1.15991 0)
(26.7829 1.29902 0)
(26.7557 1.45471 0)
(26.7333 1.62894 0)
(26.7181 1.82392 0)
(26.7131 2.04219 0)
(26.722 2.28663 0)
(26.7487 2.56049 0)
(26.7976 2.86733 0)
(26.8729 3.21093 0)
(26.9779 3.59505 0)
(27.1143 4.02321 0)
(27.2811 4.49822 0)
(27.4729 5.02181 0)
(27.6786 5.59421 0)
(27.8789 6.21409 0)
(28.0482 6.87995 0)
(28.1461 7.58971 0)
(28.1371 8.34969 0)
(27.9664 9.1778 0)
(27.6046 10.1417 0)
(27.0579 11.2332 0)
(26.2888 12.6137 0)
(25.3442 14.2729 0)
(23.9885 14.4902 0)
(20.8009 13.5522 0)
(17.4822 11.1908 0)
(8.30472 1.95575 0)
(5.27887 0.108163 0)
(4.03462 -0.337 0)
(1.54666 0.726922 0)
(1.49269 0.29966 0)
(1.47593 -0.00967121 0)
(1.54613 -0.107656 0)
(1.41415 0.163346 0)
(1.28461 0.296417 0)
(1.23195 0.248595 0)
(1.22712 0.181185 0)
(1.22093 0.176835 0)
(1.17699 0.211708 0)
(1.10291 0.219089 0)
(1.04513 0.18798 0)
(1.02545 0.171193 0)
(1.00592 0.160785 0)
(0.977225 0.116765 0)
(0.95992 0.0332164 0)
(0.971689 -0.0369993 0)
(1.02605 0.0652731 0)
(0.956591 0.31348 0)
(0.754787 0.271527 0)
(0.574767 0.217105 0)
(0.444067 0.194164 0)
(0.372192 0.171152 0)
(0.337063 0.151767 0)
(0.312457 0.1387 0)
(0.283052 0.130579 0)
(0.242286 0.119568 0)
(0.207167 0.0966682 0)
(0.180031 0.0758069 0)
(0.15618 0.0631681 0)
(0.131647 0.0568485 0)
(0.10724 0.0600591 0)
(0.0861979 0.053705 0)
(0.0750056 0.0311095 0)
(0.0691894 0.0153328 0)
(0.0671198 0.0117899 0)
(0.0680194 0.0181155 0)
(0.0661109 0.032341 0)
(0.0497178 0.0357851 0)
(0.0335264 0.0330199 0)
(0.00247816 0.0258995 0)
(-0.00794685 0.00862909 0)
(-0.010791 -0.00658983 0)
(-0.0141979 -0.0206182 0)
(-0.0241111 -0.0276094 0)
(-0.03328 -0.0304259 0)
(-0.0350162 -0.0271243 0)
(-0.0319891 -0.0137987 0)
(-0.0313511 0.0057355 0)
(-0.0294318 0.0222158 0)
(-0.00411605 0.00454801 0)
(0.0610842 -0.00277184 0)
(0.0703296 -0.0246012 0)
(0.0691361 -0.0478578 0)
(0.0668299 -0.0541861 0)
(0.0675883 -0.0506316 0)
(0.0724568 -0.0342154 0)
(0.147254 0.00731104 0)
(0.162992 -0.00979221 0)
(0.141512 -0.0167476 0)
(0.1309 -0.0161542 0)
(0.129107 -0.00889247 0)
(0.128352 -0.0305645 0)
(0.128271 -0.0373274 0)
(0.125567 -0.0292583 0)
(0.122696 -0.00651623 0)
(0.126158 0.0121367 0)
(0.0897638 -0.0596227 0)
(0.0905781 -0.0803344 0)
(0.10386 -0.0892656 0)
(0.118866 -0.0827074 0)
(0.129211 -0.0601527 0)
(0.127367 -0.0267878 0)
(0.111974 0.00330747 0)
(0.100465 -0.013599 0)
(0.239811 -0.0383469 0)
(0.328211 -0.0599213 0)
(0.339299 -0.0853718 0)
(0.341273 -0.0958366 0)
(0.341806 -0.0881405 0)
(0.354447 -0.0636207 0)
(0.416918 -0.0738905 0)
(0.440542 -0.0753434 0)
(0.458579 -0.0824188 0)
(0.475621 -0.0909855 0)
(0.494488 -0.0953663 0)
(0.521998 -0.0939624 0)
(0.563525 -0.104941 0)
(0.579084 -0.127165 0)
(0.590269 -0.141355 0)
(0.603011 -0.146522 0)
(0.613117 -0.146172 0)
(0.616724 -0.14461 0)
(0.609123 -0.139471 0)
(0.64744 -0.0952141 0)
(0.803273 -0.11125 0)
(0.929371 -0.0753052 0)
(1.08198 -0.0535425 0)
(1.12172 -0.0971198 0)
(1.13942 -0.127696 0)
(1.15954 -0.125041 0)
(1.19774 -0.103269 0)
(1.25788 -0.104325 0)
(1.326 -0.1567 0)
(1.38055 -0.210323 0)
(1.4432 -0.192474 0)
(1.48564 -0.178195 0)
(1.5386 -0.17375 0)
(1.61596 -0.140248 0)
(1.69923 -0.0422263 0)
(1.77831 0.0337624 0)
(1.83555 0.0735784 0)
(1.81825 0.10778 0)
(1.756 0.125156 0)
(1.71324 0.101033 0)
(1.71334 0.0646469 0)
(1.73633 0.0208797 0)
(1.75978 -0.0376154 0)
(1.76812 -0.121179 0)
(1.77299 -0.182138 0)
(1.77247 -0.0822733 0)
(1.81182 -0.00956684 0)
(1.82301 0.215112 0)
(1.79905 0.266148 0)
(1.78319 0.220973 0)
(1.75044 0.179528 0)
(37.3286 0.000922838 0)
(40.1222 0.00357238 0)
(25.857 0.00518917 0)
(22.9409 0.00607171 0)
(26.2615 0.0069849 0)
(28.0615 0.00807259 0)
(27.7068 0.00915567 0)
(27.0621 0.0100843 0)
(26.9303 0.010845 0)
(27.0722 0.0114964 0)
(27.166 0.0120853 0)
(27.1613 0.0126241 0)
(27.1335 0.013109 0)
(27.1258 0.0135407 0)
(27.1327 0.0139278 0)
(27.1391 0.0142801 0)
(27.1411 0.0146045 0)
(27.1416 0.0149048 0)
(27.1427 0.015184 0)
(27.1446 0.0154456 0)
(27.1466 0.0156926 0)
(27.1484 0.0159279 0)
(27.15 0.016154 0)
(27.1517 0.016373 0)
(27.1535 0.0165869 0)
(27.1552 0.0167974 0)
(27.1569 0.0170063 0)
(27.1586 0.0172149 0)
(27.1604 0.0174245 0)
(27.1621 0.0176365 0)
(27.1638 0.017852 0)
(27.1655 0.0180725 0)
(27.1672 0.0182993 0)
(27.169 0.0185338 0)
(27.1707 0.0187776 0)
(27.1724 0.0190324 0)
(27.1741 0.0192998 0)
(27.1759 0.019582 0)
(27.1776 0.019881 0)
(27.1793 0.020199 0)
(27.181 0.0205388 0)
(27.1827 0.0209033 0)
(27.1844 0.0212956 0)
(27.1861 0.0217196 0)
(27.1878 0.0221794 0)
(27.1895 0.0226799 0)
(27.1911 0.0232266 0)
(27.1928 0.0238257 0)
(27.1944 0.0244842 0)
(27.196 0.0252101 0)
(27.1976 0.0260124 0)
(27.1992 0.0269013 0)
(27.2007 0.0278882 0)
(27.2023 0.028986 0)
(27.2037 0.0302092 0)
(27.2052 0.0315743 0)
(27.2065 0.0330999 0)
(27.2079 0.0348067 0)
(27.2092 0.0367184 0)
(27.2104 0.0388614 0)
(27.2115 0.0412657 0)
(27.2125 0.0439648 0)
(27.2134 0.0469968 0)
(27.2143 0.0504042 0)
(27.2149 0.0542351 0)
(27.2155 0.0585439 0)
(27.2159 0.0633915 0)
(27.2161 0.0688469 0)
(27.2161 0.0749876 0)
(27.2159 0.081901 0)
(27.2155 0.0896856 0)
(27.2147 0.0984523 0)
(27.2137 0.108326 0)
(27.2124 0.119447 0)
(27.2107 0.131973 0)
(27.2086 0.146082 0)
(27.2061 0.161974 0)
(27.2031 0.179872 0)
(27.1996 0.200029 0)
(27.1956 0.222728 0)
(27.191 0.248283 0)
(27.1859 0.277051 0)
(27.1801 0.309427 0)
(27.1736 0.345852 0)
(27.1666 0.386818 0)
(27.1588 0.432872 0)
(27.1504 0.484619 0)
(27.1414 0.542726 0)
(27.1319 0.607927 0)
(27.1218 0.681024 0)
(27.1114 0.762892 0)
(27.1008 0.854475 0)
(27.0903 0.956787 0)
(27.08 1.07091 0)
(27.0703 1.19797 0)
(27.0617 1.33917 0)
(27.0546 1.49573 0)
(27.0498 1.6689 0)
(27.048 1.85996 0)
(27.0503 2.07019 0)
(27.0581 2.30094 0)
(27.0729 2.55364 0)
(27.0971 2.82992 0)
(27.1334 3.13173 0)
(27.1851 3.46159 0)
(27.2566 3.82286 0)
(27.3526 4.22006 0)
(27.4787 4.65933 0)
(27.6404 5.14883 0)
(27.843 5.69905 0)
(28.0914 6.3236 0)
(28.3879 7.03837 0)
(28.7343 7.86274 0)
(29.1244 8.81522 0)
(29.5641 9.91548 0)
(30.0346 11.1658 0)
(30.5861 12.5693 0)
(31.1399 14.0814 0)
(31.8209 15.5637 0)
(31.9577 16.7944 0)
(32.1045 17.8062 0)
(30.6086 16.8469 0)
(27.7605 14.2872 0)
(22.8022 10.6392 0)
(18.7108 6.82769 0)
(11.2648 1.15078 0)
(6.56129 -0.0648557 0)
(6.10088 -0.657352 0)
(3.13569 0.339867 0)
(2.11338 0.686244 0)
(2.07153 0.288573 0)
(2.08306 0.0170314 0)
(1.96693 0.245741 0)
(1.79896 0.449152 0)
(1.68565 0.395258 0)
(1.64471 0.261171 0)
(1.66467 0.146986 0)
(1.65173 0.130383 0)
(1.55269 0.206434 0)
(1.51532 0.0718938 0)
(1.55437 -0.120478 0)
(1.66651 -0.194625 0)
(2.0381 0.458183 0)
(1.69537 0.602521 0)
(1.04996 0.404221 0)
(0.620689 0.292258 0)
(0.410928 0.197742 0)
(0.343392 0.17988 0)
(0.348491 0.211569 0)
(0.481989 0.315988 0)
(0.644976 0.352828 0)
(0.771239 0.312753 0)
(0.901188 0.273285 0)
(1.02661 0.254679 0)
(1.12236 0.248708 0)
(1.0237 0.224702 0)
(0.694898 0.151911 0)
(0.256222 0.0509499 0)
(0.147159 0.0150627 0)
(0.108684 0.00294297 0)
(0.139588 -0.00372477 0)
(0.420848 0.0547078 0)
(0.465728 0.0896001 0)
(0.435926 0.119913 0)
(0.391183 0.137925 0)
(0.101533 0.0223388 0)
(0.060296 0.000207469 0)
(0.0341985 -0.0139945 0)
(-0.044003 0.0164485 0)
(-0.0950636 -0.0119114 0)
(-0.111647 -0.0278224 0)
(-0.118389 -0.0166347 0)
(-0.116675 0.00136297 0)
(-0.111209 0.0187305 0)
(0.314404 -0.34159 0)
(0.525719 -0.107872 0)
(0.279452 -0.019473 0)
(0.172599 -0.0514724 0)
(0.141784 -0.0673515 0)
(0.221927 -0.153961 0)
(0.176969 -0.197861 0)
(0.401883 -0.27673 0)
(0.249978 -0.217589 0)
(0.173936 -0.0261766 0)
(0.0643227 -0.00507523 0)
(0.0178146 -0.029831 0)
(0.230189 -0.028031 0)
(0.113971 -0.0361294 0)
(-0.00419211 -0.0247372 0)
(-0.29178 0.0246714 0)
(-0.881551 0.239916 0)
(-0.797151 0.147575 0)
(-0.183544 -0.0304578 0)
(-0.0787948 -0.162535 0)
(-0.10479 -0.152178 0)
(-0.0920027 -0.0624076 0)
(-0.0831883 0.0396559 0)
(-0.0794709 0.192079 0)
(-0.572823 -0.749779 0)
(0.126531 -0.654239 0)
(0.168048 -0.424282 0)
(0.345833 -0.099357 0)
(0.312827 -0.100764 0)
(0.235122 -0.118191 0)
(0.155626 -0.203819 0)
(0.167893 -0.190218 0)
(0.362736 -0.0975766 0)
(0.431673 -0.0874954 0)
(0.451672 -0.094885 0)
(0.466553 -0.0977763 0)
(0.524514 -0.129113 0)
(0.602812 -0.108177 0)
(0.619874 -0.138115 0)
(0.61405 -0.154385 0)
(0.614403 -0.156521 0)
(0.619834 -0.153512 0)
(0.628494 -0.151624 0)
(0.816423 -0.218397 0)
(2.32077 -1.10085 0)
(2.63826 -1.17984 0)
(3.83625 -0.882195 0)
(2.59699 -0.188618 0)
(1.41375 -0.0832242 0)
(1.32548 -0.116492 0)
(1.20207 -0.113385 0)
(1.16117 -0.0961285 0)
(1.29886 -0.100024 0)
(1.70783 -0.189726 0)
(1.74256 -0.248774 0)
(1.7647 -0.231005 0)
(1.80823 -0.22857 0)
(1.85116 -0.258294 0)
(1.89291 -0.281417 0)
(1.91382 -0.268407 0)
(1.9558 -0.2183 0)
(2.52406 0.131047 0)
(2.60942 0.315439 0)
(2.53859 0.27823 0)
(2.46413 0.123759 0)
(2.42503 -0.030019 0)
(2.44585 -0.0918803 0)
(2.50307 -0.0413986 0)
(2.54045 0.0179786 0)
(2.56351 0.011814 0)
(2.58529 -0.0396124 0)
(2.60181 -0.11318 0)
(2.6227 -0.150602 0)
(2.59951 0.0357595 0)
(2.5715 0.197997 0)
(2.53186 0.231279 0)
(37.3305 0.00117053 0)
(40.1277 0.00513332 0)
(25.8633 0.00805895 0)
(22.9461 0.00987785 0)
(26.2661 0.011486 0)
(28.0659 0.0131633 0)
(27.711 0.014798 0)
(27.0662 0.0162756 0)
(26.934 0.0175911 0)
(27.0757 0.0187848 0)
(27.1693 0.019882 0)
(27.1645 0.0208877 0)
(27.1364 0.0218028 0)
(27.1286 0.0226334 0)
(27.1353 0.0233886 0)
(27.1415 0.0240767 0)
(27.1434 0.0247043 0)
(27.1437 0.0252768 0)
(27.1447 0.0257994 0)
(27.1465 0.0262769 0)
(27.1483 0.0267142 0)
(27.1499 0.0271156 0)
(27.1515 0.0274853 0)
(27.1531 0.027827 0)
(27.1547 0.0281443 0)
(27.1564 0.0284405 0)
(27.158 0.0287183 0)
(27.1596 0.0289806 0)
(27.1613 0.0292299 0)
(27.1629 0.0294684 0)
(27.1646 0.0296985 0)
(27.1662 0.0299224 0)
(27.1679 0.0301424 0)
(27.1696 0.0303607 0)
(27.1712 0.0305797 0)
(27.1729 0.0308018 0)
(27.1746 0.0310298 0)
(27.1763 0.0312663 0)
(27.178 0.0315144 0)
(27.1797 0.0317775 0)
(27.1814 0.0320589 0)
(27.1831 0.0323625 0)
(27.1849 0.0326923 0)
(27.1866 0.0330529 0)
(27.1883 0.0334492 0)
(27.1901 0.0338868 0)
(27.1918 0.0343719 0)
(27.1935 0.0349113 0)
(27.1953 0.0355128 0)