/*--------------------------------*- C++ -*----------------------------------*\
| =========                 |                                                 |
| \\      /  F ield         | OpenFOAM: The Open Source CFD Toolbox           |
|  \\    /   O peration     | Version:  2406                                  |
|   \\  /    A nd           | Website:  www.openfoam.com                      |
|    \\/     M anipulation  |                                                 |
\*---------------------------------------------------------------------------*/
FoamFile
{
    version     2.0;
    format      ascii;
    arch        "LSB;label=32;scalar=64";
    class       surfaceScalarField;
    location    "0.2";
    object      alphaPhi0.glycerin;
}
// * * * * * * * * * * * * * * * * * * * * * * * * * * * * * * * * * * * * * //

dimensions      [0 3 -1 0 0 0 0];

oriented        oriented;

internalField   nonuniform List<scalar> 
12225
(
0
0
0
0
0
0
0
0
0
0
0
0
0
0
0
0
0
0
0
0
0
0
0
0
0
0
0
0
0
0
0
0
0
0
0
0
0
0
0
0
0
0
0
0
0
0
0
0
0
0
0
0
0
0
0
0
0
0
0
0
0
0
0
0
0
0
0
0
0
0
0
0
0
0
0
0
0
0
0
0
0
0
0
0
0
0
0
0
0
0
0
0
0
0
0
0
0
0
0
0
0
0
0
0
0
0
0
0
0
0
0
0
0
0
0
0
0
0
0
0
0
0
0
0
0
0
0
0
0
0
0
0
0
0
0
0
0
0
0
0
0
0
0
0
0
0
0
0
0
0
0
0
0
0
0
0
0
0
0
0
0
0
0
0
0
0
0
0
0
0
0
0
0
0
0
0
0
0
0
0
0
0
0
0
0
0
0
0
0
0
0
0
0
0
0
0
0
0
0
0
0
0
0
0
0
0
0
0
0
0
0
0
0
0
0
0
0
0
0
0
0
0
0
0
0
0
0
0
0
0
0
0
0
0
0
0
-0
0
-7.85564e-322
-4.94066e-324
-4.38953e-309
-2.96091e-311
-2.72534e-296
-2.01889e-298
-2.07451e-283
-1.69332e-285
-4.79044e-268
-4.32233e-270
-6.61495e-257
-6.61781e-259
-1.67857e-245
-1.8674e-247
-9.94467e-234
-1.23368e-235
-1.00732e-221
-1.39712e-223
-1.44266e-209
-2.24274e-211
-3.05014e-197
-5.32744e-199
-1.20154e-184
-2.36329e-186
-5.89727e-173
-1.30908e-174
-1.01381e-161
-2.54527e-163
-4.43913e-151
-1.26314e-152
-1.69776e-140
-5.48659e-142
-6.5051e-130
-2.3925e-131
-1.88453e-119
-7.90514e-121
-3.31235e-109
-1.5888e-110
-3.47985e-99
-1.91418e-100
-9.81335e-88
-6.21141e-89
-5.34535e-78
-3.9088e-79
-3.5123e-68
-2.98188e-69
-2.70308e-59
-2.68096e-60
-6.68658e-52
-7.81064e-53
-8.31319e-44
-1.15621e-44
-4.93091e-39
-8.29142e-40
-1.02923e-34
-2.13995e-35
-9.91815e-31
-2.64531e-31
-4.26689e-27
-1.55136e-27
-2.48771e-22
-1.47647e-22
-2.62407e-20
-5.45934e-20
1.2733e-19
-2.27588e-19
2.33656e-19
-1.40891e-19
1.49908e-19
1.59362e-21
1.01899e-19
1.49907e-20
-4.63383e-19
2.80518e-20
-1.83656e-18
5.3761e-20
-2.14702e-18
-2.4305e-18
2.94395e-07
1.07896e-07
2.63225e-07
3.11728e-08
2.386e-07
2.46253e-08
2.06634e-07
3.19663e-08
1.86579e-07
2.00542e-08
1.80128e-07
6.45099e-09
1.7973e-07
3.98388e-10
1.81329e-07
-1.59897e-09
1.82495e-07
-1.16547e-09
1.8121e-07
1.28495e-09
1.77279e-07
3.89467e-09
1.72818e-07
4.45896e-09
1.69272e-07
3.54517e-09
1.67809e-07
1.48459e-09
1.68601e-07
-7.91807e-10
1.71325e-07
-2.89553e-09
1.7643e-07
-5.1138e-09
1.83013e-07
-6.59197e-09
1.89809e-07
-6.62484e-09
1.95286e-07
-5.45209e-09
1.99052e-07
-3.77041e-09
2.0097e-07
-1.93286e-09
2.01189e-07
-2.10901e-10
1.99832e-07
1.35732e-09
1.9985e-07
-1.66502e-11
2.02756e-07
-3.14776e-09
2.08026e-07
-5.27561e-09
2.1367e-07
-5.65007e-09
2.18326e-07
-4.66203e-09
2.21948e-07
-3.41106e-09
2.24594e-07
-2.60943e-09
2.26266e-07
-1.6719e-09
2.25809e-07
4.57414e-10
2.2231e-07
3.49869e-09
2.15294e-07
6.67182e-09
2.06291e-07
8.28066e-09
1.98465e-07
7.64628e-09
1.93514e-07
5.54746e-09
1.89906e-07
4.03765e-09
1.85709e-07
4.19658e-09
1.8116e-07
4.54928e-09
1.77231e-07
3.92854e-09
1.73893e-07
3.33847e-09
1.69981e-07
3.91219e-09
1.64827e-07
5.15362e-09
1.59e-07
5.82706e-09
1.53028e-07
5.33535e-09
1.47783e-07
4.77787e-09
1.42713e-07
5.07002e-09
1.36803e-07
5.91019e-09
1.30152e-07
6.65001e-09
1.24533e-07
6.49534e-09
1.20514e-07
4.01848e-09
1.18624e-07
1.89052e-09
1.15913e-07
2.71087e-09
1.12794e-07
3.11882e-09
1.07353e-07
5.41578e-09
9.81367e-08
9.17159e-09
8.57975e-08
1.23618e-08
7.323e-08
1.25073e-08
6.34165e-08
9.78566e-09
5.72862e-08
6.1372e-09
5.41083e-08
3.17795e-09
5.08032e-08
3.30519e-09
4.56049e-08
5.11517e-09
3.855e-08
7.02693e-09
3.26157e-08
5.95216e-09
2.97729e-08
2.8845e-09
3.01557e-08
-3.76335e-10
3.23549e-08
-2.19279e-09
3.5358e-08
-3.00602e-09
3.86781e-08
-3.13576e-09
4.06795e-08
-1.98831e-09
4.16691e-08
-9.79614e-10
4.32497e-08
-1.56987e-09
4.59063e-08
-2.64797e-09
4.79046e-08
-1.99052e-09
4.97163e-08
-1.80433e-09
5.32361e-08
-3.51012e-09
6.08013e-08
-7.55551e-09
7.15361e-08
-1.07252e-08
8.30326e-08
-1.14991e-08
9.44548e-08
-1.14226e-08
1.07098e-07
-1.26413e-08
1.22554e-07
-1.54568e-08
1.41138e-07
-1.85828e-08
1.62092e-07
-2.09514e-08
1.83673e-07
-2.15805e-08
2.03084e-07
-1.94109e-08
2.1698e-07
-1.3895e-08
2.22931e-07
-6.38442e-09
-1.57367e-10
0
0
0
0
0
0
0
0
0
0
0
0
0
0
0
0
0
0
0
0
0
0
0
0
0
0
0
0
0
0
0
0
0
0
0
0
0
0
0
0
0
0
0
0
0
0
0
0
0
0
0
0
0
0
0
0
0
0
0
0
0
0
0
0
0
0
0
0
0
0
0
0
0
0
0
0
0
0
0
0
0
0
0
0
0
0
0
0
0
0
0
0
0
0
0
0
0
0
0
0
0
0
0
0
0
0
0
0
0
0
0
0
0
0
0
0
0
0
0
0
0
0
0
0
0
0
0
0
0
0
0
0
0
0
0
0
0
0
0
0
0
0
0
0
0
0
0
0
0
0
0
0
0
0
0
0
0
0
0
0
0
0
0
0
0
0
0
0
0
0
0
0
0
0
0
0
0
0
0
0
0
0
0
0
0
0
0
0
0
0
0
0
0
0
0
0
0
0
0
0
0
0
0
0
0
0
0
0
0
0
0
0
0
0
0
0
0
0
0
0
0
0
0
0
0
0
0
0
0
0
0
0
0
0
0
0
0
0
-1.97626e-323
0
-1.11026e-310
-5.69138e-313
-7.42629e-298
-4.20187e-300
-6.1024e-285
-3.8213e-287
-1.52398e-269
-1.05882e-271
-2.2794e-258
-1.76126e-260
-6.27322e-247
-5.40265e-249
-4.03515e-235
-3.88123e-237
-4.4413e-223
-4.7799e-225
-6.91587e-211
-8.34221e-213
-1.59044e-198
-2.15339e-200
-6.81641e-186
-1.03728e-187
-3.64025e-174
-6.23277e-176
-6.80925e-163
-1.31292e-164
-3.244e-152
-7.04846e-154
-1.34979e-141
-3.30627e-143
-5.62644e-131
-1.55399e-132
-1.7735e-120
-5.52302e-122
-3.39379e-110
-1.19137e-111
-3.88572e-100
-1.53687e-101
-1.19611e-88
-5.32623e-90
-7.12814e-79
-3.57014e-80
-5.14136e-69
-2.89288e-70
-4.36391e-60
-2.75469e-61
-1.19851e-52
-8.47467e-54
-1.67015e-44
-1.32074e-45
-1.12594e-39
-9.94122e-41
-2.72808e-35
-2.68476e-36
-3.16137e-31
-3.46171e-32
-1.73581e-27
-2.1096e-28
-1.55481e-22
-2.08267e-23
-5.35329e-20
-7.73431e-21
-2.46578e-19
-3.73712e-20
-3.22775e-19
-5.12726e-20
-2.60385e-19
-4.57555e-20
-1.88057e-19
-4.03225e-20
-1.07997e-19
-3.20689e-20
-4.37312e-19
-1.84087e-19
-2.55476e-16
-3.23537e-16
1.34048e-07
3.29521e-09
1.58411e-07
-2.11443e-09
2.88259e-07
5.41887e-09
5.6653e-07
4.06501e-08
5.31675e-07
5.49986e-08
5.12442e-07
2.56839e-08
4.98067e-07
1.47732e-08
4.82764e-07
8.25987e-09
4.74902e-07
5.4471e-09
4.66776e-07
1.0254e-08
4.45362e-07
2.53081e-08
4.33415e-07
1.64063e-08
4.31092e-07
5.86814e-09
4.32351e-07
2.26573e-10
4.36834e-07
-5.27488e-09
4.45186e-07
-1.1249e-08
4.58008e-07
-1.79389e-08
4.74396e-07
-2.29854e-08
4.92155e-07
-2.44043e-08
5.09011e-07
-2.22708e-08
5.2376e-07
-1.85293e-08
5.35124e-07
-1.33134e-08
5.41072e-07
-6.98374e-09
5.45143e-07
-2.66782e-09
5.52813e-07
-7.11385e-09
5.64672e-07
-1.49737e-08
5.79259e-07
-1.9862e-08
5.92478e-07
-1.88677e-08
6.01833e-07
-1.4016e-08
6.07752e-07
-9.35007e-09
6.12566e-07
-7.45813e-09
6.17587e-07
-6.73376e-09
6.18356e-07
-1.79568e-09
5.96774e-07
8.74641e-09
5.93056e-07
2.01621e-08
5.77405e-07
2.70125e-08
5.61219e-07
2.67465e-08
5.46954e-07
1.98124e-08
5.36771e-07
1.42212e-08
5.2503e-07
1.59375e-08
5.11273e-07
1.83062e-08
4.92942e-07
1.62341e-08
4.8192e-07
1.37138e-08
4.70051e-07
1.51319e-08
4.61658e-07
1.98325e-08
4.45359e-07
2.21261e-08
4.29251e-07
2.14436e-08
4.13311e-07
2.075e-08
3.98112e-07
2.03023e-08
3.83399e-07
2.00895e-08
3.68295e-07
2.17618e-08
3.5266e-07
2.20142e-08
3.37482e-07
1.91971e-08
2.51738e-07
1.16581e-08
2.94605e-07
1.46052e-08
2.94536e-07
1.5416e-08
2.80407e-07
1.95457e-08
2.59622e-07
2.99559e-08
2.31597e-07
4.03877e-08
2.01262e-07
4.28423e-08
1.68654e-07
3.41213e-08
1.5028e-07
2.18263e-08
1.41791e-07
1.0983e-08
1.39042e-07
1.1317e-08
1.26797e-07
1.73826e-08
1.12608e-07
2.12383e-08
1.00013e-07
1.71533e-08
8.6403e-08
7.12856e-09
9.33238e-08
-5.97529e-10
9.68553e-08
-3.49256e-09
9.85538e-08
-4.70748e-09
8.90519e-08
-7.83216e-09
9.52658e-08
-6.39708e-09
9.90019e-08
-8.7582e-10
8.50879e-08
5.94294e-09
8.09008e-08
7.5238e-10
8.33786e-08
-9.09051e-11
9.70375e-08
-1.33725e-13
1.12564e-07
-1.28275e-14
1.35938e-07
-1.08334e-08
1.59293e-07
-3.20903e-08
1.80188e-07
-3.23967e-08
1.98576e-07
-2.98125e-08
2.18691e-07
-3.2753e-08
2.44625e-07
-4.13914e-08
2.76289e-07
-5.02948e-08
3.12976e-07
-5.76009e-08
3.52266e-07
-6.0871e-08
3.89317e-07
-5.64617e-08
4.1677e-07
-4.13484e-08
4.29972e-07
-1.95819e-08
-8.94994e-10
0
0
0
0
0
0
0
0
0
0
0
0
0
0
0
0
0
0
0
0
0
0
0
0
0
0
0
0
0
0
0
0
0
0
0
0
0
0
0
0
0
0
0
0
0
0
0
0
0
0
0
0
0
0
0
0
0
0
0
0
0
0
0
0
0
0
0
0
0
0
0
0
0
0
0
0
0
0
0
0
0
0
0
0
0
0
0
0
0
0
0
0
0
0
0
0
0
0
0
0
0
0
0
0
0
0
0
0
0
0
0
0
0
0
0
0
0
0
0
0
0
0
0
0
0
0
0
0
0
0
0
0
0
0
0
0
0
0
0
0
0
0
0
0
0
0
0
0
0
0
0
0
0
0
0
0
0
0
0
0
0
0
0
0
0
0
0
0
0
0
0
0
0
0
0
0
0
0
0
0
0
0
0
0
0
0
0
0
0
0
0
0
0
0
0
0
0
0
0
0
0
0
0
0
0
0
0
0
0
0
0
0
0
0
0
0
0
0
0
0
0
0
0
0
0
0
0
0
0
0
0
0
0
0
0
0
0
0
0
0
-2.45244e-312
-1.26495e-314
-1.76748e-299
-1.00538e-301
-1.5663e-286
-9.84362e-289
-4.22086e-271
-2.93575e-273
-6.81421e-260
-5.25339e-262
-2.02418e-248
-1.73213e-250
-1.40491e-236
-1.33604e-238
-1.6675e-224
-1.76421e-226
-2.79761e-212
-3.29602e-214
-6.92382e-200
-9.09106e-202
-3.18914e-187
-4.66972e-189
-1.82744e-175
-2.9856e-177
-3.66131e-164
-6.67659e-166
-1.8647e-153
-3.79621e-155
-8.2778e-143
-1.8815e-144
-3.67377e-132
-9.32196e-134
-1.23049e-121
-3.48464e-123
-2.49724e-111
-7.88908e-113
-3.02675e-101
-1.06597e-102
-9.8461e-90
-3.8624e-91
-6.19139e-80
-2.70228e-81
-4.70571e-70
-2.28213e-71
-4.20411e-61
-2.26195e-62
-1.21427e-53
-7.235e-55
-1.77849e-45
-1.17116e-46
-1.25981e-40
-9.14883e-42
-3.20714e-36
-2.56255e-37
-3.90547e-32
-3.42527e-33
-2.25277e-28
-2.16391e-29
-2.11838e-23
-2.22514e-24
-7.44907e-21
-8.55799e-22
-4.02566e-20
-5.08463e-21
-7.93941e-20
-1.11411e-20
-1.05818e-19
-1.68326e-20
-1.19569e-19
-2.23866e-20
-1.17906e-19
-2.75597e-20
-2.79882e-19
-8.7409e-20
-1.105e-15
-5.38988e-16
3.06174e-09
2.33554e-10
1.02184e-09
-7.69575e-11
6.44338e-09
-1.27603e-12
7.00685e-08
1.84803e-09
1.56755e-07
-8.19136e-10
1.95e-07
-4.90545e-10
2.43175e-07
-5.62926e-11
3.79205e-07
1.34578e-09
2.84482e-07
4.7457e-09
9.59314e-08
5.4153e-10
1.50294e-08
-3.83647e-11
7.63586e-08
-3.16081e-12
4.14323e-07
-6.93338e-12
5.28057e-07
-4.04829e-12
5.21824e-07
-2.29052e-12
5.12493e-07
-2.4675e-13
5.00416e-07
-7.4907e-16
4.45955e-07
-8.33627e-15
3.85876e-07
-3.84339e-13
4.57893e-07
-4.9532e-13
5.86599e-07
-5.98884e-13
7.1181e-07
-1.28205e-13
7.89111e-07
-9.19255e-13
8.18963e-07
-8.63704e-14
8.30843e-07
-8.06207e-09
8.5383e-07
-3.6053e-08
8.81523e-07
-4.86275e-08
9.04845e-07
-4.21894e-08
9.18659e-07
-2.78292e-08
9.25175e-07
-1.58756e-08
9.3164e-07
-1.39236e-08
8.33151e-07
-2.06019e-08
7.81926e-07
-1.53873e-08
8.85888e-07
3.54781e-09
9.56185e-07
2.73306e-08
9.35195e-07
4.76816e-08
9.12034e-07
4.9579e-08
8.95903e-07
3.59412e-08
7.10656e-07
1.86346e-08
6.76183e-07
2.22902e-08
8.3962e-07
3.11118e-08
8.34424e-07
3.36697e-08
8.19608e-07
2.57556e-08
8.06818e-07
2.51677e-08
7.8489e-07
4.31899e-08
7.50195e-07
5.684e-08
6.03822e-07
4.1694e-08
5.00013e-07
3.23985e-08
5.51632e-07
2.31209e-08
6.45029e-07
2.36629e-08
6.26301e-07
4.05906e-08
6.00983e-07
4.71831e-08
4.6652e-07
4.50055e-08
3.81582e-07
2.99863e-08
3.60333e-07
2.60617e-08
5.03561e-07
1.40804e-08
4.94327e-07
2.98321e-08
4.53163e-07
7.11199e-08
3.91833e-07
1.01718e-07
3.37313e-07
9.73624e-08
2.95662e-07
7.62524e-08
2.67205e-07
5.05483e-08
1.43496e-07
1.3387e-08
4.4143e-08
1.47494e-09
1.04894e-07
2.53328e-09
2.07296e-07
3.91501e-08
1.81771e-07
4.12853e-08
1.41491e-07
1.62898e-08
1.43245e-07
-6.83456e-09
1.8259e-07
-9.57277e-09
1.97616e-07
-4.29097e-09
1.52767e-07
-6.8675e-09
8.50724e-09
-4.76836e-09
9.23059e-10
-1.57851e-10
7.7846e-10
-4.23936e-12
9.10608e-11
-1.75561e-12
1.52109e-13
1.14574e-15
6.52319e-14
-4.79177e-14
9.96222e-14
-4.83388e-14
8.19848e-08
-2.08417e-14
1.9077e-07
-3.73669e-10
2.09123e-07
-7.85826e-11
2.37005e-07
-7.79926e-10
2.79002e-07
-1.54772e-08
3.13365e-07
-6.06091e-08
3.44718e-07
-8.16934e-08
3.84823e-07
-9.76796e-08
4.34278e-07
-1.10327e-07
4.83483e-07
-1.14758e-07
5.28752e-07
-8.21329e-08
5.55096e-07
-3.76403e-08
1.12063e-09
0
0
0
0
0
0
0
0
0
0
0
0
0
0
0
0
0
0
0
0
0
0
0
0
0
0
0
0
0
0
0
0
0
0
0
0
0
0
0
0
0
0
0
0
0
0
0
0
0
0
0
0
0
0
0
0
0
0
0
0
0
0
0
0
0
0
0
0
0
0
0
0
0
0
0
0
0
0
0
0
0
0
0
0
0
0
0
0
0
0
0
0
0
0
0
0
0
0
0
0
0
0
0
0
0
0
0
0
0
0
0
0
0
0
0
0
0
0
0
0
0
0
0
0
0
0
0
0
0
0
0
0
0
0
0
0
0
0
0
0
0
0
0
0
0
0
0
0
0
0
0
0
0
0
0
0
0
0
0
0
0
0
0
0
0
0
0
0
0
0
0
0
0
0
0
0
0
0
0
0
0
0
0
0
0
0
0
0
0
0
0
0
0
0
0
0
0
0
0
0
0
0
0
0
0
0
0
0
0
0
0
0
0
0
0
0
0
0
0
0
0
0
0
0
0
0
0
0
0
0
0
0
0
0
0
0
0
0
-0
0
-5.72112e-314
-3.12041e-316
-4.43967e-301
-2.67139e-303
-4.23635e-288
-2.81579e-290
-1.2289e-272
-9.03315e-275
-2.1344e-261
-1.73675e-263
-6.81523e-250
-6.14374e-252
-5.07864e-238
-5.07545e-240
-6.46274e-226
-7.16365e-228
-1.16054e-213
-1.42729e-215
-3.06836e-201
-4.18768e-203
-1.50659e-188
-2.28184e-190
-9.18169e-177
-1.54302e-178
-1.95164e-165
-3.63809e-167
-1.05181e-154
-2.17384e-156
-4.92782e-144
-1.12846e-145
-2.30198e-133
-5.83607e-135
-8.09444e-123
-2.26971e-124
-1.72021e-112
-5.32893e-114
-2.17797e-102
-7.44447e-104
-7.38431e-91
-2.78102e-92
-4.8296e-81
-2.00105e-82
-3.81107e-71
-1.73442e-72
-3.52974e-62
-1.76158e-63
-1.05566e-54
-5.76809e-56
-1.59973e-46
-9.55503e-48
-1.17195e-41
-7.64135e-43
-3.08539e-37
-2.19368e-38
-3.88699e-33
-3.01163e-34
-2.32208e-29
-1.96072e-30
-2.27412e-24
-2.09479e-25
-8.28524e-22
-8.34191e-23
-5.41026e-21
-5.9715e-22
-1.47207e-20
-1.78948e-21
-2.74935e-20
-3.71019e-21
-4.25809e-20
-6.44286e-21
-5.84735e-20
-1.00459e-20
-1.29545e-19
-2.5219e-20
-6.83888e-16
-1.3737e-16
2.24202e-10
9.37513e-12
1.46082e-10
9.98967e-13
1.39773e-10
5.06561e-12
1.83776e-09
1.5055e-10
1.04203e-09
-2.53936e-11
5.73671e-10
-2.28195e-11
4.97863e-10
1.94258e-11
3.89381e-09
4.12569e-10
2.21048e-09
-2.35547e-10
4.34216e-11
-8.74214e-11
4.41462e-12
-4.00846e-12
2.44142e-12
-1.31874e-12
4.50053e-14
-4.63081e-12
3.34281e-14
-4.0954e-12
2.38731e-14
-2.3037e-12
1.37609e-14
-2.48752e-13
1.26794e-14
-1.17815e-14
1.28284e-14
-2.05992e-14
1.51292e-14
-3.91774e-13
1.73997e-14
-4.94919e-13
2.08975e-14
-5.97459e-13
2.17032e-14
-1.38837e-13
3.14894e-14
-9.49056e-13
1.08615e-12
-1.14203e-12
5.96407e-07
-1.049e-11
1.05303e-06
-6.47086e-13
9.7422e-07
-8.93369e-14
9.38086e-07
-4.72871e-14
9.87619e-07
-2.29287e-13
1.05551e-06
-7.36955e-09
1.05681e-06
-8.74885e-09
1.01333e-06
-1.64645e-08
1.01325e-06
-1.79787e-08
1.09407e-06
-1.09354e-08
1.25291e-06
-6.55351e-10
1.2792e-06
5.79905e-08
1.25217e-06
7.62937e-08
1.09762e-06
4.61276e-08
9.62019e-07
1.25356e-08
9.4373e-07
1.24793e-08
1.14798e-06
3.195e-08
1.14899e-06
4.50328e-08
6.39661e-07
2.6469e-08
6.15101e-07
1.50637e-08
6.07264e-07
1.64747e-08
9.02841e-07
3.94176e-08
9.16374e-07
7.38232e-08
8.84859e-07
7.97262e-08
3.99668e-07
5.50666e-08
3.332e-07
2.04168e-08
3.23649e-07
1.73096e-08
6.07451e-07
6.71431e-09
8.25043e-07
4.92437e-08
8.58547e-07
7.09219e-08
6.00948e-07
5.5039e-08
7.53928e-08
1.41166e-08
1.35049e-07
3.86087e-09
2.45102e-07
-4.30413e-09
5.39373e-07
1.42467e-08
6.19162e-07
1.24638e-07
5.73362e-07
1.22318e-07
5.16199e-07
1.07978e-07
3.23467e-07
6.45311e-08
4.29301e-08
1.37948e-08
1.87492e-08
1.69095e-09
3.12221e-08
1.63578e-09
1.9882e-07
2.79991e-08
1.81808e-07
8.56297e-09
6.25785e-08
-8.76523e-09
4.10904e-08
-8.84279e-09
5.63378e-08
-2.48536e-09
3.85811e-08
-4.20526e-10
2.05749e-10
-3.44697e-10
6.40655e-12
-1.02601e-13
2.14188e-12
-8.82699e-13
2.64193e-13
6.37821e-14
1.98972e-13
-1.96086e-14
3.42142e-13
-2.05172e-13
3.50252e-13
-5.68223e-14
2.43248e-13
8.58689e-14
1.66332e-13
-3.73593e-10
4.15805e-13
-7.88324e-11
1.64931e-10
-9.28427e-10
1.00413e-07
-1.81496e-09
3.99987e-07
-5.06883e-10
4.1126e-07
-2.40163e-08
4.0409e-07
-5.5412e-08
4.28196e-07
-7.22974e-08
4.32295e-07
-5.37717e-08
4.059e-07
-4.67819e-09
5.67623e-07
-9.15108e-09
2.90798e-08
0
0
0
0
0
0
0
0
0
0
0
0
0
0
0
0
0
0
0
0
0
0
0
0
0
0
0
0
0
0
0
0
0
0
0
0
0
0
0
0
0
0
0
0
0
0
0
0
0
0
0
0
0
0
0
0
0
0
0
0
0
0
0
0
0
0
0
0
0
0
0
0
0
0
0
0
0
0
0
0
0
0
0
0
0
0
0
0
0
0
0
0
0
0
0
0
0
0
0
0
0
0
0
0
0
0
0
0
0
0
0
0
0
0
0
0
0
0
0
0
0
0
0
0
0
0
0
0
0
0
0
0
0
0
0
0
0
0
0
0
0
0
0
0
0
0
0
0
0
0
0
0
0
0
0
0
0
0
0
0
0
0
0
0
0
0
0
0
0
0
0
0
0
0
0
0
0
0
0
0
0
0
0
0
0
0
0
0
0
0
0
0
0
0
0
0
0
0
0
0
0
0
0
0
0
0
0
0
0
0
0
0
0
0
0
0
0
0
0
0
0
0
0
0
0
0
0
0
0
0
0
0
0
0
0
0
0
0
-0
0
-1.41422e-315
-7.72489e-318
-1.18112e-302
-7.11782e-305
-1.21224e-289
-8.06731e-292
-3.77913e-274
-2.77943e-276
-7.04584e-263
-5.73051e-265
-2.41156e-251
-2.17002e-253
-1.92304e-239
-1.91516e-241
-2.61359e-227
-2.88129e-229
-5.00159e-215
-6.10399e-217
-1.40584e-202
-1.89915e-204
-7.31941e-190
-1.09424e-191
-4.71679e-178
-7.80076e-180
-1.05706e-166
-1.93295e-168
-5.98831e-156
-1.20994e-157
-2.94002e-145
-6.55844e-147
-1.43477e-134
-3.53024e-136
-5.25454e-124
-1.42446e-125
-1.1596e-113
-3.45915e-115
-1.52029e-103
-4.98338e-105
-5.32326e-92
-1.91443e-93
-3.58695e-82
-1.41294e-83
-2.91002e-72
-1.25332e-73
-2.76622e-63
-1.3002e-64
-8.48071e-56
-4.342e-57
-1.31653e-47
-7.32836e-49
-9.88049e-43
-5.96893e-44
-2.66704e-38
-1.74579e-39
-3.45136e-34
-2.4446e-35
-2.12508e-30
-1.62709e-31
-2.16282e-25
-1.78903e-26
-8.14945e-23
-7.28152e-24
-6.3146e-22
-6.09757e-23
-2.19777e-21
-2.29643e-22
-5.27235e-21
-5.97244e-22
-1.03016e-20
-1.26641e-21
-1.76366e-20
-2.35367e-21
-3.81852e-20
-5.5185e-21
-1.4742e-16
-2.05189e-17
9.01817e-12
3.19813e-13
9.90569e-12
1.19759e-13
1.47527e-11
2.16693e-13
1.6041e-10
5.02213e-12
1.34043e-10
8.91954e-13
1.12079e-10
-9.07597e-13
1.31171e-10
3.06094e-13
5.29791e-10
1.40146e-11
2.93917e-10
-1.29164e-13
2.16859e-10
-1.27568e-11
1.86297e-10
1.92206e-12
1.51634e-10
8.01198e-12
1.12063e-10
1.01308e-11
7.6847e-11
7.01325e-12
2.6469e-11
5.50806e-12
2.1826e-12
8.62366e-13
1.77592e-12
3.82783e-13
1.89695e-11
2.41199e-13
2.82277e-11
1.8515e-12
2.53999e-11
2.44669e-12
2.30284e-11
2.54374e-12
5.60224e-12
1.22534e-12
1.41467e-11
2.183e-12
1.04793e-11
1.51286e-12
4.34603e-13
-4.48507e-13
1.31936e-13
-3.46006e-13
9.99744e-14
-5.89364e-14
8.98961e-14
-3.8796e-14
9.91227e-14
-2.40074e-13
4.42607e-09
-1.46924e-11
4.3122e-08
-3.07589e-12
5.54611e-08
-2.40352e-12
3.72763e-08
-1.87369e-12
6.24949e-09
1.3465e-11
5.5975e-09
-4.96859e-12
3.84063e-07
3.2283e-09
1.58671e-06
3.84127e-08
1.61275e-06
4.67494e-08
1.63471e-06
-8.32356e-09
1.67067e-06
-1.88985e-09
1.63504e-06
6.81497e-08
1.60472e-06
7.5043e-08
1.55561e-06
3.55113e-08
1.04542e-06
2.80265e-09
1.25108e-06
6.14565e-09
1.33888e-06
6.28786e-08
1.31754e-06
1.30863e-07
5.4747e-07
5.74576e-08
6.47736e-07
2.07885e-08
6.88495e-07
3.79285e-08
6.52011e-07
2.78079e-08
4.7235e-07
4.32473e-09
3.64814e-07
2.57822e-09
7.38612e-07
1.993e-09
1.15532e-06
3.21993e-08
1.19562e-06
4.28879e-08
6.79872e-08
1.34721e-08
9.56463e-10
4.80518e-10
4.03328e-08
2.68906e-09
2.73902e-07
-3.31713e-09
4.16091e-07
2.68057e-08
4.74132e-07
1.59874e-08
3.73577e-07
3.68564e-08
2.12377e-07
4.50908e-08
7.16758e-08
1.76537e-08
4.34157e-08
4.77795e-09
4.01373e-08
6.15961e-09
4.86326e-08
-1.94859e-09
3.32528e-08
-7.03868e-08
4.77501e-09
-7.12364e-08
4.68355e-10
-3.50777e-09
3.57838e-10
-4.35416e-10
1.14585e-11
-5.3896e-12
2.67733e-12
2.10884e-12
2.62195e-12
1.52323e-12
1.21389e-12
3.33239e-12
8.09176e-12
-6.95578e-12
1.32285e-11
-5.38994e-12
3.21261e-12
9.94502e-12
3.10618e-12
1.91923e-13
2.16118e-08
3.40371e-09
1.10665e-08
8.05173e-09
4.81393e-09
4.82865e-10
3.23152e-09
-2.69614e-09
2.94304e-09
-2.65168e-09
3.79122e-08
-3.45696e-09
7.24539e-08
-7.01278e-09
5.65436e-08
-1.01546e-08
1.34196e-08
-5.02767e-09
7.25364e-09
-4.47891e-10
4.3228e-07
9.6628e-10
1.1011e-07
0
0
0
0
0
0
0
0
0
0
0
0
0
0
0
0
0
0
0
0
0
0
0
0
0
0
0
0
0
0
0
0
0
0
0
0
0
0
0
0
0
0
0
0
0
0
0
0
0
0
0
0
0
0
0
0
0
0
0
0
0
0
0
0
0
0
0
0
0
0
0
0
0
0
0
0
0
0
0
0
0
0
0
0
0
0
0
0
0
0
0
0
0
0
0
0
0
0
0
0
0
0
0
0
0
0
0
0
0
0
0
0
0
0
0
0
0
0
0
0
0
0
0
0
0
0
0
0
0
0
0
0
0
0
0
0
0
0
0
0
0
0
0
0
0
0
0
0
0
0
0
0
0
0
0
0
0
0
0
0
0
0
0
0
0
0
0
0
0
0
0
0
0
0
0
0
0
0
0
0
0
0
0
0
0
0
0
0
0
0
0
0
0
0
0
0
0
0
0
0
0
0
0
0
0
0
0
0
0
0
0
0
0
0
0
0
0
0
0
0
0
0
0
0
0
0
0
0
0
0
0
0
0
0
0
0
0
0
-0
0
-3.51299e-317
-1.83368e-319
-3.15453e-304
-1.81612e-306
-3.47762e-291
-2.20972e-293
-1.16302e-275
-8.16023e-278
-2.32256e-264
-1.80009e-266
-8.49968e-253
-7.27833e-255
-7.23257e-241
-6.84312e-243
-1.04657e-228
-1.09405e-230
-2.12723e-216
-2.45644e-218
-6.33402e-204
-8.07717e-206
-3.4838e-191
-4.90375e-193
-2.36484e-179
-3.67219e-181
-5.56589e-168
-9.52817e-170
-3.30136e-157
-6.22542e-159
-1.69186e-146
-3.51105e-148
-8.59205e-136
-1.96028e-137
-3.2649e-125
-8.17965e-127
-7.45458e-115
-2.04825e-116
-1.00841e-104
-3.03456e-106
-3.63393e-93
-1.19591e-94
-2.51424e-83
-9.03461e-85
-2.09011e-73
-8.1873e-75
-2.03237e-64
-8.66365e-66
-6.36523e-57
-2.9476e-58
-1.00855e-48
-5.06437e-50
-7.72321e-44
-4.19759e-45
-2.12787e-39
-1.24947e-40
-2.81376e-35
-1.78178e-36
-1.77442e-31
-1.20956e-32
-1.86149e-26
-1.36355e-27
-7.16653e-24
-5.63139e-25
-6.43014e-23
-5.41114e-24
-2.71337e-22
-2.44087e-23
-7.89736e-22
-7.5775e-23
-1.84694e-21
-1.88448e-22
-3.73324e-21
-4.03255e-22
-8.31642e-21
-9.45217e-22
-1.86999e-17
-2.19638e-18
3.11208e-13
8.59777e-15
4.26894e-13
3.85358e-15
6.36586e-13
7.04853e-15
5.50179e-12
1.60349e-13
6.35116e-12
3.24264e-14
5.45015e-12
-9.16852e-15
5.73649e-12
1.82189e-14
1.93407e-11
4.1117e-13
1.91546e-11
4.5994e-14
6.70714e-12
-2.7586e-13
8.37908e-12
-7.49562e-14
1.57409e-11
-1.68083e-14
2.49161e-11
6.79382e-14
3.01074e-11
1.31596e-14
3.25052e-11
-7.40929e-14
4.33835e-11
1.09279e-13
4.1577e-11
1.37892e-12
3.90033e-11
1.8918e-12
4.02217e-11
-1.3038e-13
3.9663e-11
-2.8628e-13
3.6737e-11
1.39943e-13
2.05814e-11
1.78194e-12
1.07028e-11
-1.30328e-13
1.7651e-11
-2.48645e-13
1.90254e-11
1.72542e-12
2.03592e-11
2.02073e-12
1.74826e-11
4.43731e-13
1.0625e-11
1.09302e-12
1.59952e-11
1.71234e-12
2.77705e-12
-9.24551e-14
1.68401e-12
-7.22748e-14
1.49638e-12
-2.13626e-13
1.44212e-12
-1.88032e-13
2.3984e-11
-2.19372e-12
1.87008e-11
6.77028e-14
3.21292e-09
3.29242e-11
1.6647e-07
3.62118e-09
2.23249e-07
-6.46437e-10
1.25836e-07
-2.4229e-09
4.27527e-08
-2.23375e-10
4.26298e-07
2.09453e-09
1.65563e-06
3.11985e-08
1.13879e-06
4.52709e-08
7.43578e-08
-2.45015e-09
6.84244e-09
-4.61365e-09
6.84229e-08
-2.55463e-10
9.56027e-07
1.23024e-08
1.87022e-06
1.29025e-07
1.7921e-06
1.10137e-07
1.78388e-06
5.68069e-08
1.81555e-06
6.79234e-09
1.83129e-06
-7.56533e-10
1.08677e-06
6.26884e-09
6.63446e-08
4.54136e-09
6.87464e-08
-1.24263e-09
8.2698e-08
-8.39669e-10
3.6885e-08
-3.02923e-09
1.53781e-08
4.00331e-12
1.31037e-08
1.38583e-09
4.09204e-07
8.00732e-09
1.42372e-06
5.59231e-08
1.26654e-06
4.53528e-08
1.13626e-06
3.91964e-08
9.92752e-07
6.07861e-08
3.09509e-07
2.18809e-08
1.41854e-07
2.40228e-09
5.86604e-07
2.64088e-09
9.97288e-07
-3.79126e-08
1.09326e-06
-1.15925e-07
4.11897e-07
-2.03266e-07
-2.11644e-08
-1.94901e-07
-1.57899e-10
-2.21367e-08
-6.04602e-13
-1.81132e-10
3.48124e-11
7.36659e-12
5.6008e-11
1.40918e-12
2.19029e-09
2.54965e-10
4.15871e-09
-4.40309e-10
2.33298e-09
-1.61742e-09
6.27076e-10
-6.57044e-10
6.24635e-10
2.46746e-12
8.03719e-08
1.01567e-09
1.41885e-07
1.46488e-08
1.31678e-07
1.09254e-08
1.22096e-07
7.07809e-09
1.11572e-07
8.10762e-09
1.26622e-08
2.39872e-09
4.03422e-09
-3.5851e-09
3.64292e-09
-1.42444e-09
5.46321e-09
-5.19751e-09
3.25534e-09
-2.10345e-10
4.92707e-07
3.1875e-08
2.26778e-07
0
0
0
0
0
0
0
0
0
0
0
0
0
0
0
0
0
0
0
0
0
0
0
0
0
0
0
0
0
0
0
0
0
0
0
0
0
0
0
0
0
0
0
0
0
0
0
0
0
0
0
0
0
0
0
0
0
0
0
0
0
0
0
0
0
0
0
0
0
0
0
0
0
0
0
0
0
0
0
0
0
0
0
0
0
0
0
0
0
0
0
0
0
0
0
0
0
0
0
0
0
0
0
0
0
0
0
0
0
0
0
0
0
0
0
0
0
0
0
0
0
0
0
0
0
0
0
0
0
0
0
0
0
0
0
0
0
0
0
0
0
0
0
0
0
0
0
0
0
0
0
0
0
0
0
0
0
0
0
0
0
0
0
0
0
0
0
0
0
0
0
0
0
0
0
0
0
0
0
0
0
0
0
0
0
0
0
0
0
0
0
0
0
0
0
0
0
0
0
0
0
0
0
0
0
0
0
0
0
0
0
0
0
0
0
0
0
0
0
0
0
0
0
0
0
0
0
0
0
0
0
0
0
0
0
0
0
0
0
0
-8.39467e-319
-3.99205e-321
-8.09438e-306
-4.24707e-308
-9.56915e-293
-5.53901e-295
-3.42637e-277
-2.18857e-279
-7.31282e-266
-5.15503e-268
-2.85432e-254
-2.22058e-256
-2.58462e-242
-2.21881e-244
-3.97024e-230
-3.75999e-232
-8.5441e-218
-8.92311e-220
-2.68619e-205
-3.09207e-207
-1.55547e-192
-1.97229e-194
-1.10832e-180
-1.54687e-182
-2.72984e-169
-4.19026e-171
-1.6893e-158
-2.84916e-160
-9.00475e-148
-1.66698e-149
-4.74252e-137
-9.62536e-139
-1.86359e-126
-4.14158e-128
-4.38831e-116
-1.06645e-117
-6.10672e-106
-1.62053e-107
-2.25863e-94
-6.53494e-96
-1.60058e-84
-5.04124e-86
-1.36045e-74
-4.65678e-76
-1.35065e-65
-5.01584e-67
-4.31439e-58
-1.73521e-59
-6.96757e-50
-3.02939e-51
-5.43704e-45
-2.55076e-46
-1.52685e-40
-7.71443e-42
-2.05948e-36
-1.11842e-37
-1.32699e-32
-7.72956e-34
-1.42951e-27
-8.91165e-29
-5.58307e-25
-3.71601e-26
-5.70692e-24
-4.04434e-25
-2.82288e-23
-2.12317e-24
-9.61586e-23
-7.64606e-24
-2.60322e-22
-2.17795e-23
-6.01496e-22
-5.26294e-23
-1.40589e-21
-1.27695e-22
-1.70119e-18
-1.58901e-19
8.42779e-15
1.68388e-16
1.22014e-14
7.77496e-17
1.9147e-14
1.00668e-16
1.76323e-13
3.19841e-15
2.0747e-13
1.09388e-15
1.98418e-13
-1.69435e-16
2.16625e-13
1.00121e-16
6.21494e-13
6.5182e-15
6.65964e-13
1.58026e-15
3.95436e-13
-5.39228e-15
3.22376e-13
-2.12575e-15
3.05448e-13
-6.53816e-17
3.72571e-13
6.77262e-16
3.8442e-13
1.15433e-15
3.08899e-13
1.19834e-15
7.2068e-13
2.41721e-15
2.63372e-12
1.46895e-14
5.06986e-12
3.30954e-14
4.71213e-12
9.19608e-15
3.87328e-12
-1.94589e-15
3.98073e-12
1.0471e-15
5.5469e-12
2.12149e-14
4.71932e-12
2.49407e-15
3.50728e-12
-2.04225e-14
5.09195e-12
-2.29136e-15
6.87369e-12
1.30074e-14
5.44161e-12
1.10442e-14
4.99589e-12
-1.82234e-14
5.50923e-12
-1.91654e-14
6.47583e-12
1.32856e-14
1.18389e-11
4.89457e-13
1.15367e-11
9.53804e-13
1.18583e-11
1.3593e-12
5.34104e-12
1.69455e-13
5.49804e-12
1.24603e-13
3.74763e-11
1.11244e-12
3.4538e-09
2.10543e-10
2.77569e-09
2.61699e-11
4.95034e-10
-1.47902e-10
2.98398e-10
-9.2315e-12
2.37135e-09
2.89662e-11
7.15571e-08
3.20659e-09
1.2362e-07
-4.54251e-10
9.20161e-08
-1.77275e-09
2.64085e-09
-5.57847e-10
2.39277e-09
-7.0004e-11
1.45239e-08
-5.37208e-11
3.05366e-07
7.39266e-10
7.22817e-07
5.98264e-10
5.64031e-07
-5.82713e-10
2.3686e-07
-9.5515e-10
5.57494e-08
-5.36763e-10
6.90058e-08
-1.99765e-10
2.82584e-07
-1.30415e-11
2.94238e-07
-3.34251e-13
3.06205e-07
-6.31057e-14
3.16252e-07
-7.98931e-13
1.08186e-07
1.48287e-09
3.78475e-07
1.56409e-08
5.78801e-07
5.03555e-08
3.13349e-07
3.72507e-09
4.82194e-08
-6.46603e-09
7.49548e-08
-7.43133e-10
1.00846e-06
-4.86266e-11
1.44089e-06
2.1655e-08
1.47472e-06
8.00256e-09
1.51839e-06
-1.59759e-09
1.5565e-06
-3.65859e-08
1.50856e-06
-3.00402e-08
1.36931e-06
-2.72104e-08
3.25832e-07
-2.64173e-09
5.0485e-10
-1.4454e-10
3.40468e-10
-8.36309e-12
3.27988e-10
1.55094e-11
3.29768e-10
2.43195e-12
1.54193e-08
6.03595e-10
1.56577e-08
-3.08754e-10
1.54962e-08
-1.25193e-09
3.36929e-09
-1.639e-09
1.10547e-09
-4.48268e-10
2.45452e-09
9.44059e-12
1.55847e-07
-8.57506e-11
9.64286e-08
3.68704e-09
6.31709e-09
-9.89158e-11
1.41317e-08
-1.12346e-10
1.15946e-07
5.68711e-09
1.0574e-07
1.60604e-08
9.42564e-08
1.93955e-08
6.78318e-08
1.64754e-08
6.45391e-08
1.1428e-09
5.07932e-07
9.92227e-08
3.67662e-07
0
0
0
0
0
0
0
0
0
0
0
0
0
0
0
0
0
0
0
0
0
0
0
0
0
0
0
0
0
0
0
0
0
0
0
0
0
0
0
0
0
0
0
0
0
0
0
0
0
0
0
0
0
0
0
0
0
0
0
0
0
0
0
0
0
0
0
0
0
0
0
0
0
0
0
0
0
0
0
0
0
0
0
0
0
0
0
0
0
0
0
0
0
0
0
0
0
0
0
0
0
0
0
0
0
0
0
0
0
0
0
0
0
0
0
0
0
0
0
0
0
0
0
0
0
0
0
0
0
0
0
0
0
0
0
0
0
0
0
0
0
0
0
0
0
0
0
0
0
0
0
0
0
0
0
0
0
0
0
0
0
0
0
0
0
0
0
0
0
0
0
0
0
0
0
0
0
0
0
0
0
0
0
0
0
0
0
0
0
0
0
0
0
0
0
0
0
0
0
0
0
0
0
0
0
0
0
0
0
0
0
0
0
0
0
0
0
0
0
0
0
0
0
0
0
0
0
0
0
0
0
0
0
0
0
0
0
0
-0
0
-1.84731e-320
-7.41098e-323
-1.91019e-307
-8.64639e-310
-2.41783e-294
-1.20716e-296
-9.25233e-279
-5.0957e-281
-2.1061e-267
-1.27945e-269
-8.74779e-256
-5.8608e-258
-8.40892e-244
-6.21127e-246
-1.36767e-231
-1.11332e-233
-3.10784e-219
-2.78652e-221
-1.02876e-206
-1.01532e-208
-6.25368e-194
-6.7886e-196
-4.66361e-182
-5.56352e-184
-1.19853e-170
-1.56978e-172
-7.71515e-160
-1.10826e-161
-4.26506e-149
-6.71153e-151
-2.32277e-138
-3.99908e-140
-9.41185e-128
-1.77054e-129
-2.27934e-117
-4.67837e-119
-3.25424e-107
-7.27669e-109
-1.23213e-95
-2.99674e-97
-8.92113e-86
-2.35611e-87
-7.73469e-76
-2.21433e-77
-7.82262e-67
-2.4232e-68
-2.54312e-59
-8.50782e-61
-4.17752e-51
-1.50638e-52
-3.3153e-46
-1.28591e-47
-9.47087e-42
-3.94294e-43
-1.30043e-37
-5.79797e-39
-8.54265e-34
-4.06906e-35
-9.4227e-29
-4.78248e-30
-3.71258e-26
-2.00207e-27
-4.27396e-25
-2.44095e-26
-2.42541e-24
-1.46164e-25
-9.45807e-24
-5.98873e-25
-2.90496e-23
-1.92304e-24
-7.53432e-23
-5.18406e-24
-1.87092e-22
-1.32886e-23
-1.08046e-19
-7.85911e-21
1.65394e-16
2.88586e-18
2.4094e-16
1.81113e-18
3.40061e-16
1.7565e-18
3.48719e-15
5.29378e-17
4.56003e-15
2.02508e-17
4.36933e-15
1.68668e-18
4.48057e-15
-7.99547e-18
1.09563e-14
6.75656e-17
1.25341e-14
1.78444e-17
7.19473e-15
-4.6339e-17
5.00883e-15
-1.75678e-17
4.97613e-15
-1.05529e-17
5.71808e-15
-1.65929e-17
6.92977e-15
-2.55661e-17
8.13713e-15
8.58962e-19
1.0539e-14
1.16178e-17
2.51403e-14
8.09385e-17
5.83858e-14
1.96134e-16
6.71795e-14
1.01751e-16
6.48337e-14
3.21656e-17
6.53843e-14
4.80453e-17
8.63368e-14
2.28192e-16
8.8647e-14
1.06e-16
6.97989e-14
-5.80479e-17
6.73607e-14
9.80245e-17
7.96952e-14
6.04777e-16
1.19182e-13
5.02203e-16
1.00542e-13
3.16154e-16
8.08578e-14
3.54121e-16
1.50712e-13
1.61611e-16
1.00717e-12
1.10073e-14
1.9471e-12
1.39682e-14
2.32608e-12
8.74824e-16
4.47324e-12
-7.57428e-15
4.42565e-12
1.45051e-13
5.56648e-12
1.50475e-14
2.08872e-10
5.8878e-12
2.32561e-10
2.19271e-12
8.57413e-11
-2.97465e-12
7.65198e-11
-1.99599e-13
1.03429e-10
2.20972e-12
3.18152e-09
1.35892e-10
2.64868e-09
7.48888e-11
1.34419e-09
-1.05549e-10
1.19167e-09
-4.72354e-11
1.22215e-09
1.10135e-11
8.98103e-10
3.03252e-11
1.61414e-09
2.49384e-11
2.13395e-09
7.9139e-11
1.5807e-09
-3.30926e-11
7.22873e-10
-1.01133e-10
2.14042e-10
-3.12502e-11
1.40861e-11
-5.40938e-13
8.96817e-13
-1.44462e-13
3.54585e-13
-6.18909e-14
3.5258e-13
-3.28353e-13
4.07158e-13
-1.12326e-12
1.4855e-09
-2.50988e-12
6.60958e-08
1.58601e-10
1.46532e-07
5.83777e-10
1.05679e-07
-5.96537e-10
3.2941e-09
-1.47795e-10
1.6367e-09