/*--------------------------------*- C++ -*----------------------------------*\
| =========                 |                                                 |
| \\      /  F ield         | OpenFOAM: The Open Source CFD Toolbox           |
|  \\    /   O peration     | Version:  2406                                  |
|   \\  /    A nd           | Website:  www.openfoam.com                      |
|    \\/     M anipulation  |                                                 |
\*---------------------------------------------------------------------------*/
FoamFile
{
    version     2.0;
    format      ascii;
    arch        "LSB;label=32;scalar=64";
    class       volScalarField;
    location    "0.2";
    object      alpha.glycerin;
}
// * * * * * * * * * * * * * * * * * * * * * * * * * * * * * * * * * * * * * //

dimensions      [0 0 0 0 0 0 0];

internalField   nonuniform List<scalar> 
6250
(
5.30034e-320
5.30034e-320
5.30231e-320
5.3033e-320
5.30429e-320
5.30528e-320
5.30627e-320
5.30824e-320
5.30923e-320
5.31022e-320
5.31219e-320
5.31318e-320
5.31417e-320
5.31615e-320
5.31812e-320
5.31911e-320
5.3201e-320
5.32208e-320
5.32405e-320
5.32504e-320
5.32603e-320
5.328e-320
5.32998e-320
5.33097e-320
5.33196e-320
5.33393e-320
5.33591e-320
-5.3369e-320
-5.33789e-320
-5.33986e-320
-5.34184e-320
-5.34283e-320
-5.34381e-320
-5.34579e-320
-5.34777e-320
-5.34875e-320
-5.34974e-320
-5.35172e-320
-5.3537e-320
-5.35468e-320
-5.35666e-320
-5.35765e-320
-5.35962e-320
-5.3616e-320
-5.36259e-320
-5.36358e-320
-5.36555e-320
-5.36753e-320
-5.36852e-320
-5.36951e-320
-5.37148e-320
-5.37346e-320
-5.37445e-320
-5.37543e-320
-5.37741e-320
-5.37939e-320
-5.38037e-320
-5.38136e-320
-5.38334e-320
-5.38532e-320
-5.38729e-320
-5.38828e-320
-5.38927e-320
-5.39124e-320
-5.39322e-320
-5.39421e-320
-5.3952e-320
-5.39717e-320
-5.39915e-320
-5.40014e-320
-5.40113e-320
-5.4031e-320
-5.40508e-320
-5.40705e-320
-5.40804e-320
-5.40903e-320
-5.41101e-320
-5.41298e-320
-5.41397e-320
-5.41496e-320
-5.41694e-320
-5.41891e-320
-5.42089e-320
-5.42188e-320
-5.42286e-320
-5.42484e-320
-5.42682e-320
-5.42781e-320
-5.42978e-320
-5.43077e-320
-5.43275e-320
-5.43472e-320
-5.4367e-320
-5.43769e-320
-5.43867e-320
-5.44065e-320
-5.44263e-320
-5.4446e-320
-5.44658e-320
-5.44856e-320
-5.44954e-320
-5.45152e-320
-5.4535e-320
-5.45547e-320
-5.45745e-320
-5.45943e-320
-5.4614e-320
-5.46437e-320
-5.46634e-320
-5.46832e-320
-1.09416e-319
-1.09465e-319
-1.09524e-319
-1.09584e-319
-1.09643e-319
-1.09702e-319
-1.09781e-319
-1.0986e-319
-1.64909e-319
-6.16148e-317
-3.47037e-304
-2.17062e-291
-1.66575e-278
-3.88124e-263
-5.41308e-252
-1.38887e-240
-8.33043e-229
-8.55512e-217
-1.2443e-204
-2.67669e-192
-1.07517e-179
-5.39416e-168
-9.506e-157
-4.2808e-146
-1.69012e-135
-6.71398e-125
-2.02663e-114
-3.73298e-104
-4.13748e-94
-1.24064e-82
-7.25196e-73
-5.16963e-63
-4.37317e-54
-1.20815e-46
-1.71096e-38
-1.18549e-33
-2.98896e-29
-3.64853e-25
-2.14033e-21
-1.98848e-16
-6.46125e-14
-3.14917e-13
-4.02225e-13
-3.50391e-13
-2.41019e-13
-5.9802e-13
-1.72506e-12
-4.29961e-12
0.661768
0.999993
0.999995
0.999995
0.999995
0.999995
0.999995
0.999995
0.999995
0.999995
0.99988
0.999777
0.999777
0.999913
0.999994
0.999592
0.998919
0.998919
0.999225
0.999876
0.999887
0.999889
0.999934
0.999969
0.999969
0.999436
0.998776
0.998776
0.998776
0.999012
0.999879
0.999904
0.999904
0.999904
0.999767
0.995529
0.994663
0.994779
0.999365
0.999937
0.999937
0.999937
0.999937
0.999937
0.999937
0.999937
0.999573
0.993365
0.992997
0.992997
0.992997
0.997982
0.999909
0.999909
0.999909
0.999909
0.999887
0.999725
0.999442
0.998742
0.999024
0.999416
0.999821
0.999821
0.998285
0.997849
0.998134
0.99968
0.999743
0.999743
0.999669
0.9999
0.999975
0.999976
0.999978
0.999982
0.999985
0.999987
0.99999
0.999991
0.999991
0.999986
0.999971
0.999971
0.999981
0.999981
0.999989
0.999994
0.999998
0.999998
0.998067
0.995563
5.29638e-320
5.2954e-320
5.29441e-320
5.29441e-320
5.29342e-320
5.29243e-320
5.29243e-320
5.29045e-320
5.29045e-320
5.28947e-320
5.28848e-320
5.28848e-320
5.28749e-320
5.2865e-320
5.2865e-320
5.28453e-320
5.28453e-320
5.28453e-320
5.28255e-320
5.28255e-320
5.28156e-320
5.28057e-320
5.28057e-320
5.27959e-320
5.2786e-320
5.2786e-320
5.27761e-320
-5.27662e-320
-5.27662e-320
-5.27563e-320
-5.27464e-320
-5.27464e-320
-5.27366e-320
-5.27267e-320
-5.27267e-320
-5.27267e-320
-5.27069e-320
-5.27069e-320
-5.27069e-320
-5.2697e-320
-5.26872e-320
-5.26872e-320
-5.26773e-320
-5.26674e-320
-5.26674e-320
-5.26674e-320
-5.26575e-320
-5.26476e-320
-5.26476e-320
-5.26476e-320
-5.26279e-320
-5.26279e-320
-5.26279e-320
-5.2618e-320
-5.26081e-320
-5.26081e-320
-5.26081e-320
-5.25982e-320
-5.25883e-320
-5.25883e-320
-5.25883e-320
-5.25785e-320
-5.25686e-320
-5.25686e-320
-5.25686e-320
-5.25587e-320
-5.25488e-320
-5.25488e-320
-5.25488e-320
-5.25389e-320
-5.25389e-320
-5.25291e-320
-5.25291e-320
-5.25291e-320
-5.25192e-320
-5.25093e-320
-5.25093e-320
-5.25093e-320
-5.24994e-320
-5.24994e-320
-5.24895e-320
-5.24895e-320
-5.24895e-320
-5.24797e-320
-5.24698e-320
-5.24698e-320
-5.24698e-320
-5.24698e-320
-5.24599e-320
-5.245e-320
-5.245e-320
-5.245e-320
-5.245e-320
-5.24401e-320
-5.24401e-320
-5.24302e-320
-5.24302e-320
-5.24302e-320
-5.24302e-320
-5.24204e-320
-5.24105e-320
-5.24105e-320
-5.24105e-320
-5.24105e-320
-5.24006e-320
-5.24006e-320
-5.23907e-320
-5.23907e-320
-5.23907e-320
-5.23907e-320
-5.23808e-320
-5.2371e-320
-5.2371e-320
-5.2371e-320
-5.2371e-320
-5.2371e-320
-5.23611e-320
-1.04722e-319
-1.04712e-319
-1.09941e-318
-6.42078e-306
-4.29593e-293
-3.53143e-280
-8.82359e-265
-1.32059e-253
-3.6374e-242
-2.34209e-230
-2.58111e-218
-4.02555e-206
-9.27541e-194
-3.98473e-181
-2.13417e-169
-4.00616e-158
-1.91677e-147
-8.01703e-137
-3.36293e-126
-1.06813e-115
-2.06286e-105
-2.38813e-95
-7.44932e-84
-4.51032e-74
-3.31524e-64
-2.87779e-55
-8.11641e-48
-1.16707e-39
-8.16361e-35
-2.06543e-30
-2.51737e-26
-1.46561e-22
-1.4008e-17
-5.1294e-15
-2.54454e-14
-3.72529e-14
-3.5517e-14
-3.31961e-14
-2.96764e-14
-1.85527e-13
-1.98128e-10
0.109647
0.113824
0.169024
0.659759
0.999994
0.999995
0.999995
0.994206
0.993047
0.999749
0.999994
0.999994
0.999994
0.999994
0.999994
0.999991
0.99998
0.999961
0.99991
0.999877
0.999888
0.999889
0.998836
0.998636
0.999473
0.999974
0.999977
0.999977
0.999978
0.99997
0.999913
0.999893
0.999385
0.985682
0.971455
0.978188
0.997763
0.999937
0.999937
0.999937
0.999937
0.991101
0.985199
0.985207
0.995607
0.999937
0.999936
0.999901
0.999901
0.999693
0.999497
0.999502
0.999908
0.731901
0.823597
0.995386
0.99991
0.99991
0.99991
0.99991
0.962181
0.945073
0.94508
0.979
0.999809
0.999809
0.989544
0.902524
0.930464
0.997009
0.999669
0.934168
0.872273
0.883014
0.869806
0.852834
0.850255
0.870097
0.904862
0.963889
0.99929
0.999986
0.999978
0.999977
0.999981
0.999756
0.999835
0.999985
0.999998
0.999998
0.999996
0.998902
5.29836e-320
5.29836e-320
5.29836e-320
5.29737e-320
5.29737e-320
5.29737e-320
5.29638e-320
5.29638e-320
5.29638e-320
5.29638e-320
5.29638e-320
5.29638e-320
5.29638e-320
5.29638e-320
5.29638e-320
5.29638e-320
5.29638e-320
5.2954e-320
5.2954e-320
5.2954e-320
5.2954e-320
5.29441e-320
5.29441e-320
5.29441e-320
5.29441e-320
5.29441e-320
5.29441e-320
-5.29441e-320
-5.29441e-320
-5.29441e-320
-5.29441e-320
-5.29441e-320
-5.29441e-320
-5.29342e-320
-5.29342e-320
-5.29342e-320
-5.29342e-320
-5.29243e-320
-5.29243e-320
-5.29243e-320
-5.29243e-320
-5.29243e-320
-5.29243e-320
-5.29243e-320
-5.29243e-320
-5.29243e-320
-5.29243e-320
-5.29243e-320
-5.29144e-320
-5.29144e-320
-5.29144e-320
-5.29045e-320
-5.29045e-320
-5.29045e-320
-5.29045e-320
-5.29045e-320
-5.29045e-320
-5.29045e-320
-5.29045e-320
-5.29045e-320
-5.28947e-320
-5.28947e-320
-5.28947e-320
-5.28848e-320
-5.28848e-320
-5.28848e-320
-5.28848e-320
-5.28848e-320
-5.28848e-320
-5.28848e-320
-5.28848e-320
-5.28848e-320
-5.28749e-320
-5.28749e-320
-5.28749e-320
-5.2865e-320
-5.2865e-320
-5.2865e-320
-5.2865e-320
-5.2865e-320
-5.2865e-320
-5.2865e-320
-5.2865e-320
-5.28551e-320
-5.28551e-320
-5.28453e-320
-5.28453e-320
-5.28453e-320
-5.28453e-320
-5.28453e-320
-5.28453e-320
-5.28453e-320
-5.28453e-320
-5.28354e-320
-5.28354e-320
-5.28255e-320
-5.28255e-320
-5.28255e-320
-5.28255e-320
-5.28255e-320
-5.28255e-320
-5.28255e-320
-5.28156e-320
-5.28156e-320
-5.28057e-320
-5.28057e-320
-5.28057e-320
-5.28057e-320
-5.28057e-320
-5.28057e-320
-5.27959e-320
-5.27959e-320
-5.2786e-320
-5.2786e-320
-5.2786e-320
-5.2786e-320
-1.05552e-319
-1.05542e-319
-1.05532e-319
-1.05523e-319
-1.4799e-307
-1.06634e-294
-9.44741e-282
-2.54517e-266
-4.10759e-255
-1.21969e-243
-8.46143e-232
-1.00373e-219
-1.68283e-207
-4.16141e-195
-1.91487e-182
-1.09597e-170
-2.19274e-159
-1.11494e-148
-4.94013e-138
-2.18778e-127
-7.31013e-117
-1.47967e-106
-1.78839e-96
-5.80081e-85
-3.63723e-75
-2.75718e-65
-2.45795e-56
-7.08952e-49
-1.03815e-40
-7.3644e-36
-1.88161e-31
-2.30621e-27
-1.34384e-23
-1.28265e-18
-4.60779e-16
-2.57111e-15
-5.31507e-15
-7.55896e-15
-9.33079e-15
-1.04689e-14
-2.99713e-14
-1.49844e-10
-1.19259e-07
4.50347e-06
5.31209e-06
0.0275324
0.107422
0.15517
0.185804
0.384767
0.559342
0.380436
0.0666505
0.0237065
0.373412
0.87927
0.90564
0.881886
0.86056
0.807307
0.660028
0.606881
0.678289
0.830053
0.93861
0.982084
0.992118
0.996768
0.999051
0.999977
0.999978
0.999974
0.999962
0.978991
0.830924
0.830158
0.959698
0.999927
0.999932
0.999936
0.836646
0.749505
0.856248
0.994351
0.9955
0.995527
0.997364
0.999924
0.846745
0.732962
0.736259
0.942449
0.999386
0.999501
0.975513
0.707455
0.694633
0.88342
0.999539
0.99991
0.99991
0.99991
0.998893
0.999705
0.557327
0.170738
0.193445
0.852745
0.989543
0.941313
0.764983
0.844511
0.991389
0.95237
0.402243
0.0132068
0.0079132
0.00100726
5.14011e-07
5.13315e-07
5.13305e-07
0.129781
0.669286
0.864157
0.872971
0.926025
0.988084
0.99979
0.999892
0.999985
0.992755
0.986339
0.993687
0.998464
5.29836e-320
5.29737e-320
5.29737e-320
5.29737e-320
5.29737e-320
5.29638e-320
5.29638e-320
5.29638e-320
5.29638e-320
5.29638e-320
5.29638e-320
5.29638e-320
5.29638e-320
5.29638e-320
5.29638e-320
5.29638e-320
5.29638e-320
5.29638e-320
5.29638e-320
5.29638e-320
5.29638e-320
5.2954e-320
5.2954e-320
5.2954e-320
5.2954e-320
5.2954e-320
5.2954e-320
-5.29441e-320
-5.29441e-320
-5.29441e-320
-5.29441e-320
-5.29441e-320
-5.29441e-320
-5.29441e-320
-5.29441e-320
-5.29441e-320
-5.29441e-320
-5.29441e-320
-5.29441e-320
-5.29441e-320
-5.29441e-320
-5.29441e-320
-5.29441e-320
-5.29441e-320
-5.29441e-320
-5.29441e-320
-5.29342e-320
-5.29342e-320
-5.29342e-320
-5.29342e-320
-5.29342e-320
-5.29342e-320
-5.29243e-320
-5.29243e-320
-5.29243e-320
-5.29243e-320
-5.29243e-320
-5.29243e-320
-5.29243e-320
-5.29243e-320
-5.29243e-320
-5.29243e-320
-5.29243e-320
-5.29243e-320
-5.29243e-320
-5.29243e-320
-5.29243e-320
-5.29243e-320
-5.29243e-320
-5.29144e-320
-5.29144e-320
-5.29144e-320
-5.29144e-320
-5.29144e-320
-5.29144e-320
-5.29045e-320
-5.29045e-320
-5.29045e-320
-5.29045e-320
-5.29045e-320
-5.29045e-320
-5.29045e-320
-5.29045e-320
-5.29045e-320
-5.29045e-320
-5.29045e-320
-5.29045e-320
-5.29045e-320
-5.29045e-320
-5.29045e-320
-5.29045e-320
-5.28947e-320
-5.28947e-320
-5.28947e-320
-5.28947e-320
-5.28947e-320
-5.28848e-320
-5.28848e-320
-5.28848e-320
-5.28848e-320
-5.28848e-320
-5.28848e-320
-5.28848e-320
-5.28848e-320
-5.28848e-320
-5.28848e-320
-5.28848e-320
-5.28848e-320
-5.28848e-320
-5.28848e-320
-5.28848e-320
-5.28749e-320
-5.28749e-320
-5.28749e-320
-5.2865e-320
-5.2865e-320
-1.0574e-319
-1.0573e-319
-1.0573e-319
-1.0573e-319
-3.49269e-309
-2.71108e-296
-2.58766e-283
-7.50864e-268
-1.30455e-256
-4.16687e-245
-3.10615e-233
-3.954e-221
-7.10254e-209
-1.87836e-196
-9.22492e-184
-5.62267e-172
-1.19514e-160
-6.43987e-150
-3.0159e-139
-1.40785e-128
-4.94507e-118
-1.04929e-107
-1.32573e-97
-4.48242e-86
-2.92138e-76
-2.29527e-66
-2.11472e-57
-6.2859e-50
-9.45909e-42
-6.87635e-37
-1.79557e-32
-2.24343e-28
-1.3298e-24
-1.29376e-19
-4.6923e-17
-3.05959e-16
-8.34726e-16
-1.57101e-15
-2.46354e-15
-3.44026e-15
-7.77191e-15
-3.67021e-11
-4.30083e-08
2.53659e-07
2.74032e-07
4.51562e-06
4.46653e-06
3.26926e-06
3.67406e-06
0.00318072
0.00652916
0.000725819
6.57015e-06
9.37512e-08
5.23474e-08
3.04631e-08
2.02129e-08
1.91566e-08
1.91566e-08
1.91566e-08
1.92051e-08
2.0829e-08
2.3744e-08
2.67301e-08
2.82383e-08
3.21294e-08
0.185786
0.770807
0.869038
0.834634
0.850481
0.912428
0.926513
0.89937
0.824855
0.826014
0.900906
0.992556
0.999927
0.994138
0.769205
0.749517
0.824474
0.993686
0.789317
0.499093
0.499144
0.529112
0.824627
0.825749
0.704776
0.331193
0.329771
0.376119
0.846268
0.905438
0.90127
0.342387
0.147121
0.146494
0.399993
0.946419
0.999705
0.999705
0.965367
0.261828
0.0418814
0.0416437
0.267617
0.645216
0.440072
0.124612
0.124406
0.10961
0.0307668
4.52945e-06
1.03864e-06
5.41658e-07
5.36922e-07
5.13886e-07
5.13114e-07
5.13109e-07
5.13114e-07
5.13114e-07
1.02323e-06
0.0351405
0.564122
0.881219
0.856976
0.846436
0.808942
0.502265
0.549004
0.927747
5.29836e-320
5.29836e-320
5.29737e-320
5.29737e-320
5.29737e-320
5.29737e-320
5.29737e-320
5.29638e-320
5.29638e-320
5.29638e-320
5.29638e-320
5.29638e-320
5.29638e-320
5.29638e-320
5.29638e-320
5.29638e-320
5.29638e-320
5.29638e-320
5.29638e-320
5.29638e-320
5.29638e-320
5.29638e-320
5.29638e-320
5.29638e-320
5.2954e-320
5.2954e-320
5.2954e-320
-5.2954e-320
-5.2954e-320
-5.29441e-320
-5.29441e-320
-5.29441e-320
-5.29441e-320
-5.29441e-320
-5.29441e-320
-5.29441e-320
-5.29441e-320
-5.29441e-320
-5.29441e-320
-5.29441e-320
-5.29441e-320
-5.29441e-320
-5.29441e-320
-5.29441e-320
-5.29441e-320
-5.29441e-320
-5.29441e-320
-5.29342e-320
-5.29342e-320
-5.29342e-320
-5.29342e-320
-5.29342e-320
-5.29342e-320
-5.29243e-320
-5.29243e-320
-5.29243e-320
-5.29243e-320
-5.29243e-320
-5.29243e-320
-5.29243e-320
-5.29243e-320
-5.29243e-320
-5.29243e-320
-5.29243e-320
-5.29243e-320
-5.29243e-320
-5.29243e-320
-5.29243e-320
-5.29243e-320
-5.29243e-320
-5.29144e-320
-5.29144e-320
-5.29144e-320
-5.29144e-320
-5.29144e-320
-5.29045e-320
-5.29045e-320
-5.29045e-320
-5.29045e-320
-5.29045e-320
-5.29045e-320
-5.29045e-320
-5.29045e-320
-5.29045e-320
-5.29045e-320
-5.29045e-320
-5.29045e-320
-5.29045e-320
-5.29045e-320
-5.29045e-320
-5.28947e-320
-5.28947e-320
-5.28947e-320
-5.28947e-320
-5.28947e-320
-5.28848e-320
-5.28848e-320
-5.28848e-320
-5.28848e-320
-5.28848e-320
-5.28848e-320
-5.28848e-320
-5.28848e-320
-5.28848e-320
-5.28848e-320
-5.28848e-320
-5.28749e-320
-5.28749e-320
-5.28749e-320
-5.2865e-320
-5.2865e-320
-5.2865e-320
-5.2865e-320
-5.2865e-320
-5.2865e-320
-5.2865e-320
-5.28551e-320
-1.0571e-319
-1.05691e-319
-1.05691e-319
-8.61412e-311
-7.19444e-298
-7.38422e-285
-2.30207e-269
-4.2921e-258
-1.46907e-246
-1.17148e-234
-1.59213e-222
-3.04673e-210
-8.5631e-198
-4.4578e-185
-2.87221e-173
-6.43523e-162
-3.64435e-151
-1.78842e-140
-8.72252e-130
-3.19197e-119
-7.03726e-109
-9.21459e-99
-3.22136e-87
-2.16634e-77
-1.75319e-67
-1.6615e-58
-5.07495e-51
-7.84271e-43
-5.85397e-38
-1.56996e-33
-2.01622e-29
-1.23049e-25
-1.23971e-20
-4.61799e-18
-3.53304e-17
-1.21269e-16
-2.86534e-16
-5.50448e-16
-9.23972e-16
-1.95694e-15
-6.38502e-12
2.35955e-08
9.27846e-09
-2.0695e-08
4.88557e-08
1.98768e-07
1.53073e-07
1.49688e-07
5.41024e-07
5.51671e-07
1.26355e-05
1.70614e-05
1.71145e-05
1.69767e-05
1.6757e-05
1.31862e-05
1.32716e-06
1.91566e-08
2.05657e-07
4.64403e-06
4.86368e-06
4.85577e-06
1.31874e-06
4.03054e-06
3.78101e-06
9.01796e-08
8.85438e-08
8.85238e-08
8.85438e-08
8.85238e-08
0.00139737
0.0186254
0.0366328
0.0309831
0.00683883
3.12448e-07
0.0187224
0.591881
0.976007
0.974666
0.978891
0.986106
0.992618
0.992471
0.833325
0.700477
0.804493
0.824115
0.550014
0.394187
0.393811
0.606795
0.299998
0.228091
0.240073
0.710147
0.734663
0.381379
0.00724372
0.00609108
0.0936205
0.218114
0.233368
0.46461
0.430215
0.172315
0.0413814
0.0413814
0.0447428
0.0581296
0.0293715
0.00517528
0.000495157
5.86039e-06
5.68564e-06
2.89271e-06
1.06438e-06
5.41658e-07
5.26262e-07
5.13886e-07
5.13114e-07
0.00712996
0.0125937
0.00886021
0.00380049
0.00380288
0.0238956
0.0986186
0.0893223
0.0127015
0.00151592
0.0655664
0.809958
5.29737e-320
5.29737e-320
5.29737e-320
5.29737e-320
5.29737e-320
5.29737e-320
5.29638e-320
5.29638e-320
5.29638e-320
5.29638e-320
5.29638e-320
5.29638e-320
-5.29638e-320
-5.29638e-320
-5.29638e-320
-5.29638e-320
-5.29638e-320
-5.29638e-320
5.29638e-320
5.29638e-320
5.29638e-320
5.29638e-320
5.29638e-320
5.29638e-320
5.2954e-320
5.2954e-320
5.2954e-320
-5.2954e-320
-5.2954e-320
-5.2954e-320
-5.29441e-320
-5.29441e-320
-5.29441e-320
-5.29441e-320
-5.29441e-320
-5.29441e-320
-5.29441e-320
-5.29441e-320
-5.29441e-320
-5.29441e-320
-5.29441e-320
-5.29441e-320
-5.29441e-320
-5.29441e-320
-5.29441e-320
-5.29441e-320
-5.29441e-320
-5.29441e-320
-5.29342e-320
-5.29342e-320
-5.29342e-320
-5.29342e-320
-5.29342e-320
-5.29342e-320
-5.29243e-320
-5.29243e-320
-5.29243e-320
-5.29243e-320
-5.29243e-320
-5.29243e-320
-5.29243e-320
-5.29243e-320
-5.29243e-320
-5.29243e-320
-5.29243e-320
-5.29243e-320
-5.29243e-320
-5.29243e-320
-5.29243e-320
-5.29243e-320
-5.29243e-320
-5.29144e-320
-5.29144e-320
-5.29144e-320
-5.29144e-320
-5.29144e-320
-5.29045e-320
-5.29045e-320
-5.29045e-320
-5.29045e-320
-5.29045e-320
-5.29045e-320
-5.29045e-320
-5.29045e-320
-5.29045e-320
-5.29045e-320
-5.29045e-320
-5.29045e-320
-5.29045e-320
-5.29045e-320
-5.29045e-320
-5.28947e-320
-5.28947e-320
-5.28947e-320
-5.28947e-320
-5.28848e-320
-5.28848e-320
-5.28848e-320
-5.28848e-320
-5.28848e-320
-5.28848e-320
-5.28848e-320
-5.28848e-320
-5.28848e-320
-5.28848e-320
-5.28749e-320
-5.28749e-320
-5.2865e-320
-5.2865e-320
-5.2865e-320
-5.2865e-320
-5.2865e-320
-5.2865e-320
-5.28551e-320
-5.28453e-320
-5.28453e-320
-5.28453e-320
-1.05671e-319
-1.05671e-319
-1.05651e-319
-2.13468e-312
-1.91638e-299
-2.11206e-286
-7.06112e-271
-1.40962e-259
-5.15661e-248
-4.38589e-236
-6.34325e-224
-1.28854e-211
-3.83418e-199
-2.10723e-186
-1.42914e-174
-3.36022e-163
-1.99077e-152
-1.01885e-141
-5.16636e-131
-1.95977e-120
-4.46581e-110
-6.02758e-100
-2.16664e-88
-1.49478e-78
-1.23866e-68
-1.20013e-59
-3.74363e-52
-5.90502e-44
-4.49907e-39
-1.23251e-34
-1.61928e-30
-1.01363e-26
-1.05434e-21
-4.01913e-19
-3.56459e-18
-1.48373e-17
-4.24856e-17
-9.74383e-17
-1.92374e-16
-4.16701e-16
-8.98484e-13
-4.34441e-12
3.81776e-10
3.52677e-10
4.19434e-09
-8.38325e-09
6.02252e-09
5.11548e-09
1.39195e-08
1.56976e-08
2.10263e-08
2.00016e-07
3.81388e-07
8.05457e-07
1.12858e-06
1.45464e-06
8.25124e-07
1.95622e-06
2.00109e-06
2.00197e-06
1.33483e-06
2.76824e-06
2.52549e-06
6.76302e-07
8.61438e-07
1.44303e-06
1.4178e-06
3.84717e-07
1.25571e-06
1.32933e-06
8.87658e-08
1.59285e-07
1.96004e-07
2.10433e-07
2.02063e-07
1.53523e-07
2.55806e-07
0.0312393
0.0951426
0.0758235
0.0108658
0.0217517
0.561918
0.77922
0.351094
0.00690753
0.000454953
0.106701
0.672643
0.810465
0.810698
0.810698
0.810698
0.770329
0.200794
0.0413404
0.041176
0.0304183
0.00577864
0.0051529
0.0155091
0.294035
0.460118
0.462247
0.460118
0.354842
0.0490539
0.0602462
0.361145
0.383049
0.32731
0.060825
8.43968e-05
6.74949e-06
1.73769e-06
1.04041e-06
9.79975e-05
0.00113809
0.0010725
0.000156099
5.2549e-07
0.000878774
0.0356101
0.0385238
0.0385266
0.0385238
0.0248881
0.00439991
0.00305644
0.00186101
0.0015305
0.131235
0.806926
5.29737e-320
5.29737e-320
5.29737e-320
5.29737e-320
5.29737e-320
5.29737e-320
5.29737e-320
5.29737e-320
5.29638e-320
5.29638e-320
5.29638e-320
5.29638e-320
-5.29638e-320
-5.29638e-320
-5.29638e-320
-5.29638e-320
-5.29638e-320
-5.29638e-320
-5.29638e-320
5.29638e-320
5.29638e-320
5.29638e-320
5.29638e-320
5.29638e-320
5.29638e-320
5.29638e-320
5.29638e-320
-5.2954e-320
-5.2954e-320
-5.2954e-320
-5.2954e-320
-5.2954e-320
-5.2954e-320
-5.29441e-320
-5.29441e-320
-5.29441e-320
-5.29441e-320
-5.29441e-320
-5.29441e-320
-5.29441e-320
-5.29441e-320
-5.29441e-320
-5.29441e-320
-5.29441e-320
-5.29441e-320
-5.29441e-320
-5.29441e-320
-5.29441e-320
-5.29441e-320
-5.29441e-320
-5.29441e-320
-5.29342e-320
-5.29342e-320
-5.29342e-320
-5.29342e-320
-5.29342e-320
-5.29243e-320
-5.29243e-320
-5.29243e-320
-5.29243e-320
-5.29243e-320
-5.29243e-320
-5.29243e-320
-5.29243e-320
-5.29243e-320
-5.29243e-320
-5.29243e-320
-5.29243e-320
-5.29243e-320
-5.29243e-320
-5.29243e-320
-5.29243e-320
-5.29243e-320
-5.29144e-320
-5.29144e-320
-5.29144e-320
-5.29144e-320
-5.29144e-320
-5.29045e-320
-5.29045e-320
-5.29045e-320
-5.29045e-320
-5.29045e-320
-5.29045e-320
-5.29045e-320
-5.29045e-320
-5.29045e-320
-5.29045e-320
-5.29045e-320
-5.29045e-320
-5.29045e-320
-5.29045e-320
-5.28947e-320
-5.28947e-320
-5.28947e-320
-5.28947e-320
-5.28848e-320
-5.28848e-320
-5.28848e-320
-5.28848e-320
-5.28848e-320
-5.28848e-320
-5.28848e-320
-5.28848e-320
-5.28749e-320
-5.28749e-320
-5.2865e-320
-5.2865e-320
-5.2865e-320
-5.2865e-320
-5.2865e-320
-5.28551e-320
-5.28453e-320
-5.28453e-320
-5.28453e-320
-5.28453e-320
-5.28255e-320
-1.05651e-319
-1.05641e-319
-1.05631e-319
-5.09032e-314
-4.90581e-301
-5.79645e-288
-2.07424e-272
-4.424e-261
-1.72546e-249
-1.56112e-237
-2.39579e-225
-5.15041e-213
-1.61735e-200
-9.35313e-188
-6.6546e-176
-1.63636e-164
-1.01076e-153
-5.37666e-143
-2.82518e-132
-1.10731e-121
-2.59995e-111
-3.60651e-101
-1.32916e-89
-9.38214e-80
-7.93991e-70
-7.84492e-61
-2.49269e-53
-4.00231e-45
-3.10334e-40
-8.65449e-36
-1.15849e-31
-7.40244e-28
-7.90144e-23
-3.05479e-20
-3.0874e-19
-1.50783e-18
-5.06239e-18
-1.34792e-17
-3.05536e-17
-6.98514e-17
-8.24073e-14
-5.13499e-12
4.30626e-12
4.34014e-12
9.01945e-11
1.4281e-10
-1.68491e-10
-1.28269e-10
-1.72861e-10
1.12171e-10
1.41682e-10
1.59707e-10
1.19792e-10
1.19373e-10
1.32841e-10
1.49335e-10
8.27998e-09
4.44055e-08
1.6697e-07
1.71176e-07
1.38195e-07
1.22851e-07
2.00478e-07
2.05145e-07
1.1344e-07
1.3613e-07
2.56688e-07
2.28817e-07
2.17919e-07
2.29291e-07
6.82061e-08
2.89649e-07
5.56843e-07
5.55377e-07
4.22051e-07
9.6926e-08
2.85925e-08
3.72412e-07
5.01717e-06
3.10759e-06
3.09061e-06
9.07848e-07
0.00937771
0.0357837
0.0377893
0.0195573
8.59553e-05
7.97991e-05
0.0330443
0.164392
0.220434
0.153023
0.0468324
0.0180992
0.0483436
0.096539
0.0965443
0.0965465
0.0119352
0.0305218
0.14527
0.167256
0.05472
0.000646912
0.0616322
0.369955
0.383928
0.383928
0.383928
0.383644
0.382619
0.277955
0.0159342
4.53821e-07
4.68602e-07
2.28749e-07
0.00246129
0.00323132
0.00323132
0.0025465
0.000114768
2.98834e-05
0.00885195
0.0311461
0.0115671
4.67569e-05
0.00826309
0.0299659
0.0299532
0.0225803
0.00151885
0.201239
0.804089
-5.29737e-320
-5.29737e-320
-5.29737e-320
-5.29737e-320
-5.29737e-320
-5.29737e-320
-5.29737e-320
-5.29638e-320
-5.29638e-320
-5.29638e-320
-5.29638e-320
-5.29638e-320
-5.29638e-320
-5.29638e-320
-5.29638e-320
-5.29638e-320
-5.29638e-320
-5.29638e-320
-5.29638e-320
5.29638e-320
5.29638e-320
5.29638e-320
5.29638e-320
5.29638e-320
5.29638e-320
5.29638e-320
5.29638e-320
-5.2954e-320
-5.2954e-320
-5.2954e-320
-5.2954e-320
-5.2954e-320
-5.2954e-320
-5.29441e-320
-5.29441e-320
-5.29441e-320
-5.29441e-320
-5.29441e-320
-5.29441e-320
-5.29441e-320
-5.29441e-320
-5.29441e-320
-5.29441e-320
-5.29441e-320
-5.29441e-320
-5.29441e-320
-5.29441e-320
-5.29441e-320
-5.29441e-320
-5.29441e-320
-5.29441e-320
-5.29441e-320
-5.29342e-320
-5.29342e-320
-5.29342e-320
-5.29342e-320
-5.29342e-320
-5.29243e-320
-5.29243e-320
-5.29243e-320
-5.29243e-320
-5.29243e-320
-5.29243e-320
-5.29243e-320
-5.29243e-320
-5.29243e-320
-5.29243e-320
-5.29243e-320
-5.29243e-320
-5.29243e-320
-5.29243e-320
-5.29243e-320
-5.29243e-320
-5.29243e-320
-5.29144e-320
-5.29144e-320
-5.29144e-320
-5.29144e-320
-5.29144e-320
-5.29045e-320
-5.29045e-320
-5.29045e-320
-5.29045e-320
-5.29045e-320
-5.29045e-320
-5.29045e-320
-5.29045e-320
-5.29045e-320
-5.29045e-320
-5.29045e-320
-5.29045e-320
-5.29045e-320
-5.28947e-320
-5.28947e-320
-5.28947e-320
-5.28947e-320
-5.28848e-320
-5.28848e-320
-5.28848e-320
-5.28848e-320
-5.28848e-320
-5.28848e-320
-5.28848e-320
-5.28848e-320
-5.28749e-320
-5.28749e-320
-5.2865e-320
-5.2865e-320
-5.2865e-320
-5.2865e-320
-5.28551e-320
-5.28453e-320
-5.28453e-320
-5.28453e-320
-5.28354e-320
-5.28255e-320
-5.28255e-320
-1.05631e-319
-1.05621e-319
-1.05602e-319
-1.11792e-315
-1.15524e-302
-1.46111e-289
-5.58642e-274
-1.27042e-262
-5.27118e-251
-5.06107e-239
-8.22091e-227
-1.86541e-214
-6.16509e-202
-3.74108e-189
-2.78444e-177
-7.14043e-166
-4.58545e-155
-2.52821e-144
-1.37285e-133
-5.54487e-123
-1.33807e-112
-1.9029e-102
-7.17381e-91
-5.16959e-81
-4.45885e-71
-4.48396e-62
-1.44869e-54
-2.36362e-46
-1.86195e-41
-5.27636e-37
-7.18163e-33
-4.67294e-29
-5.10122e-24
-1.98741e-21
-2.2601e-20
-1.26563e-19
-4.86452e-19
-1.47077e-18
-3.75003e-18
-9.14169e-18
-5.17568e-15
-1.83303e-23
2.09488e-13
7.09747e-14
1.39238e-12
3.25695e-12
1.60579e-12
-3.15701e-12
-8.10231e-12
-2.03914e-12
1.2244e-12
-4.3986e-12
-6.5235e-12
-4.01087e-12
-1.5473e-12
1.82666e-13
4.56294e-13
-3.6834e-13
3.09601e-12
7.71211e-13
-2.72097e-12
-2.57464e-12
1.9394e-11
2.35489e-11
1.09657e-12
2.31407e-11
3.32868e-11
3.88172e-11
4.43761e-11
5.21508e-11
2.79054e-10
1.47995e-08
5.25377e-08
3.38198e-08
1.94492e-07
1.15246e-07
3.937e-09
-2.28597e-07
7.34176e-08
1.81694e-07
7.37109e-08
4.9484e-08
9.07962e-07
4.37968e-06
2.79296e-05
6.7215e-05
9.24142e-05
7.91405e-05
1.93963e-06
3.44682e-06
3.29339e-06
2.08914e-06
1.09539e-06
1.98478e-07
1.13721e-07
1.12038e-07
1.12777e-07
1.12035e-07
1.14569e-07
0.00332907
0.0297815
0.0302817
0.0134526
1.23181e-05
0.00071119
0.00824753
0.0209024
0.0245173
0.0181692
0.00592243
4.49357e-05
1.36e-09
1.29941e-09
3.15835e-07
5.98705e-07
1.74965e-07
0.00128602
0.0032226
0.00323116
0.00322289
0.00157731
6.78586e-07
0.000181432
0.000465399
0.000137351
2.45571e-07
3.86372e-07
0.0169789
0.0299832
0.0253281
0.00322846
0.0390369
0.765636
-5.29737e-320
-5.29737e-320
-5.29737e-320
-5.29737e-320
-5.29737e-320
-5.29737e-320
-5.29737e-320
-5.29737e-320
-5.29638e-320
-5.29638e-320
-5.29638e-320
-5.29638e-320
-5.29638e-320
-5.29638e-320
-5.29638e-320
-5.29638e-320
-5.29638e-320
-5.29638e-320
-5.29638e-320
-5.29638e-320
5.29638e-320
5.29638e-320
5.29638e-320
5.29638e-320
5.29638e-320
5.29638e-320
5.29638e-320
-5.29638e-320
-5.29638e-320
-5.2954e-320
-5.2954e-320
-5.2954e-320
-5.2954e-320
-5.2954e-320
-5.2954e-320
-5.2954e-320
-5.29441e-320
-5.29441e-320
-5.29441e-320
-5.29441e-320
-5.29441e-320
-5.29441e-320
-5.29441e-320
-5.29441e-320
-5.29441e-320
-5.29441e-320
-5.29441e-320
-5.29441e-320
-5.29441e-320
-5.29441e-320
-5.29441e-320
-5.29441e-320
-5.29441e-320
-5.29441e-320
-5.29342e-320
-5.29342e-320
-5.29342e-320
-5.29342e-320
-5.29342e-320
-5.29243e-320
-5.29243e-320
-5.29243e-320
-5.29243e-320
-5.29243e-320
-5.29243e-320
-5.29243e-320
-5.29243e-320
-5.29243e-320
-5.29243e-320
-5.29243e-320
-5.29243e-320
-5.29243e-320
-5.29243e-320
-5.29243e-320
-5.29243e-320
-5.29243e-320
-5.29144e-320
-5.29144e-320
-5.29144e-320
-5.29144e-320
-5.29144e-320
-5.29045e-320
-5.29045e-320
-5.29045e-320
-5.29045e-320
-5.29045e-320
-5.29045e-320
-5.29045e-320
-5.29045e-320
-5.29045e-320
-5.29045e-320
-5.29045e-320
-5.29045e-320
-5.28947e-320
-5.28947e-320
-5.28947e-320
-5.28848e-320
-5.28848e-320
-5.28848e-320
-5.28848e-320
-5.28848e-320
-5.28848e-320
-5.28848e-320
-5.28848e-320
-5.28749e-320
-5.28749e-320
-5.2865e-320
-5.2865e-320
-5.2865e-320
-5.2865e-320
-5.28551e-320
-5.28453e-320
-5.28453e-320
-5.28453e-320
-5.28354e-320
-5.28255e-320
-5.28255e-320
-1.05631e-319
-1.05611e-319
-1.05592e-319
-2.14831e-317
-2.37911e-304
-3.21656e-291
-1.31196e-275
-3.17566e-264
-1.39908e-252
-1.42267e-240
-2.44075e-228
-5.83286e-216
-2.02427e-203
-1.28599e-190
-9.98981e-179
-2.66554e-167
-1.77563e-156
-1.01248e-145
-5.66939e-135
-2.35469e-124
-5.82805e-114
-8.48042e-104
-3.2641e-92
-2.39689e-82
-2.10322e-72
-2.14893e-63
-7.047e-56
-1.16627e-47
-9.31683e-43
-2.67765e-38
-3.69807e-34
-2.44469e-30
-2.7212e-25
-1.06225e-22
-1.34636e-21
-8.51042e-21
-3.68577e-20
-1.24729e-19
-3.53146e-19
-9.23292e-19
-2.28446e-16
-5.30792e-25
3.33893e-15
6.31218e-15
3.42368e-14
8.62394e-14
1.03908e-13
7.74553e-14
3.30775e-14
1.97933e-14
3.33022e-13
1.19992e-12
1.87547e-12
1.70341e-12
3.64002e-13
1.31316e-13
1.12698e-13
4.12241e-14
6.89016e-14
1.26065e-13
-7.19067e-15
-3.77424e-13
-3.7703e-13
1.16937e-13
2.53915e-13
2.18458e-13
-3.24005e-12
-3.48685e-12
-8.17439e-13
8.00458e-13
8.40113e-13
2.7094e-12
1.03013e-11
1.37372e-11
2.59385e-09
8.95454e-09
1.84728e-09
2.08113e-09
9.02923e-10
-2.18312e-09
-1.05946e-09
2.3998e-09
4.66638e-08
1.29769e-07
2.47081e-07
7.55534e-08
1.3813e-06
1.62488e-06
-9.81543e-08
5.92113e-08
8.99669e-08
6.58027e-08
1.51243e-07
1.43454e-06
1.62432e-06
1.67227e-06
1.66902e-06
1.57265e-06
7.81357e-07
4.8827e-08
1.60504e-07
1.4284e-07
1.68584e-07
1.29959e-07
8.38456e-08
7.47421e-08
7.48196e-08
1.57136e-08
3.94655e-09
1.74598e-09
1.36e-09
1.29941e-09
1.29312e-09
1.29941e-09
1.29379e-09
1.68854e-07
5.141e-07
1.0221e-08
3.54905e-09
2.98789e-09
3.01874e-09
3.10481e-07
2.02065e-08
3.17072e-08
2.56744e-08
1.34152e-08
6.47176e-09
3.77298e-07
0.00948812
0.0248272
0.00607957
0.00012086
0.503358
-5.29737e-320
-5.29737e-320
-5.29737e-320
-5.29737e-320
-5.29737e-320
-5.29737e-320
-5.29737e-320
-5.29737e-320
-5.29638e-320
-5.29638e-320
-5.29638e-320
-5.29638e-320
-5.29638e-320
-5.29638e-320
-5.29638e-320
-5.29638e-320
-5.29638e-320
-5.29638e-320
-5.29638e-320
-5.29638e-320
-5.29638e-320
5.29638e-320
5.29638e-320
5.29638e-320
5.29638e-320
5.29638e-320
5.29638e-320
-5.29638e-320
-5.29638e-320
-5.29638e-320
-5.2954e-320
-5.2954e-320
-5.2954e-320
-5.2954e-320
-5.2954e-320
-5.2954e-320
-5.29441e-320
-5.29441e-320
-5.29441e-320
-5.29441e-320
-5.29441e-320
-5.29441e-320
-5.29441e-320
-5.29441e-320
-5.29441e-320
-5.29441e-320
-5.29441e-320
-5.29441e-320
-5.29441e-320
-5.29441e-320
-5.29441e-320
-5.29441e-320
-5.29441e-320
-5.29441e-320
-5.29342e-320
-5.29342e-320
-5.29342e-320
-5.29342e-320
-5.29342e-320
-5.29342e-320
-5.29243e-320
-5.29243e-320
-5.29243e-320
-5.29243e-320
-5.29243e-320
-5.29243e-320
-5.29243e-320
-5.29243e-320
-5.29243e-320
-5.29243e-320
-5.29243e-320
-5.29243e-320
-5.29243e-320
-5.29243e-320
-5.29243e-320
-5.29243e-320
-5.29243e-320
-5.29144e-320
-5.29144e-320
-5.29144e-320
-5.29144e-320
-5.29045e-320
-5.29045e-320