/*--------------------------------*- C++ -*----------------------------------*\
| =========                 |                                                 |
| \\      /  F ield         | OpenFOAM: The Open Source CFD Toolbox           |
|  \\    /   O peration     | Version:  2406                                  |
|   \\  /    A nd           | Website:  www.openfoam.com                      |
|    \\/     M anipulation  |                                                 |
\*---------------------------------------------------------------------------*/
FoamFile
{
    version     2.0;
    format      ascii;
    arch        "LSB;label=32;scalar=64";
    class       volScalarField;
    location    "0.2";
    object      p;
}
// * * * * * * * * * * * * * * * * * * * * * * * * * * * * * * * * * * * * * //

dimensions      [1 -1 -2 0 0 0 0];

internalField   nonuniform List<scalar> 
6250
(
3550.93
4091.09
4626.08
4609.74
4479.65
4446.4
4470.84
4486.78
4484.33
4477.56
4474.51
4474.11
4473.63
4472.34
4470.77
4469.34
4468.04
4466.75
4465.43
4464.1
4462.77
4461.44
4460.12
4458.8
4457.47
4456.15
4454.83
4453.51
4452.18
4450.86
4449.54
4448.22
4446.9
4445.58
4444.25
4442.93
4441.61
4440.29
4438.97
4437.65
4436.32
4435
4433.68
4432.36
4431.03
4429.71
4428.39
4427.07
4425.74
4424.42
4423.1
4421.78
4420.45
4419.13
4417.81
4416.48
4415.16
4413.84
4412.51
4411.19
4409.87
4408.54
4407.22
4405.9
4404.57
4403.25
4401.93
4400.6
4399.28
4397.96
4396.63
4395.31
4393.99
4392.66
4391.34
4390.02
4388.69
4387.37
4386.05
4384.73
4383.4
4382.08
4380.76
4379.44
4378.12
4376.8
4375.49
4374.17
4372.85
4371.54
4370.23
4368.92
4367.61
4366.3
4365
4363.7
4362.41
4361.11
4359.83
4358.55
4357.27
4356
4354.74
4353.48
4352.24
4351.01
4349.78
4348.58
4347.38
4346.2
4345.04
4343.91
4342.79
4341.7
4340.64
4339.61
4338.62
4337.66
4336.75
4335.89
4335.08
4334.33
4333.64
4333.02
4332.48
4332.02
4331.64
4331.35
4331.16
4331.06
4331.06
4331.16
4331.34
4331.61
4331.95
4332.33
4332.74
4333.12
4333.45
4333.67
4333.72
4333.53
4333.05
4332.2
4330.92
4329.17
4326.92
4324.16
4320.9
4317.24
4312.64
4307.47
4302.62
4303.08
4304.99
4304.41
4322.93
4298.44
3983.69
3952.31
3990.17
3882.46
3872.38
3922.55
3950.87
3953.2
3938.56
3908.8
3870.2
3832.74
3803.21
3784.02
3772.19
3763.33
3755.95
3745.75
3728.6
3704.61
3676.98
3648.21
3619.1
3592.3
3577.82
3578.64
3582.09
3579.07
3566.2
3545.19
3519.52
3489.17
3449.76
3400.67
3344.15
3289.85
3247.49
3217.02
3190.45
3160.71
3129.82
3102.11
3075.01
3042.52
3004.17
2963.51
2924.38
2886.53
2849.56
2814.46
2783.6
2759.1
2743.07
2714.93
2666.74
2619.62
2566.68
2500.03
2427.69
2365.1
2318.31
2285.65
2262.18
2241.22
2223.85
2217.43
2230.84
2260.61
2298.17
2334.96
2365.8
2386.06
2389.21
2380.41
2367.53
2346.97
2310.35
2270.63
2240.53
2224.53
2209.56
2184.06
2149.18
2111.5
2072.52
2025.91
1964.35
1881.62
1772.8
1636.42
1478.8
1314.9
3547.34
4087.37
4625.97
4610.75
4479.63
4445.77
4470.37
4486.61
4484.24
4477.42
4474.35
4473.98
4473.53
4472.25
4470.69
4469.26
4467.97
4466.69
4465.38
4464.05
4462.72
4461.41
4460.09
4458.77
4457.45
4456.13
4454.81
4453.49
4452.17
4450.85
4449.53
4448.21
4446.89
4445.56
4444.24
4442.92
4441.6
4440.28
4438.96
4437.64
4436.32
4435
4433.67
4432.35
4431.03
4429.71
4428.39
4427.06
4425.74
4424.42
4423.1
4421.77
4420.45
4419.13
4417.81
4416.48
4415.16
4413.84
4412.51
4411.19
4409.87
4408.54
4407.22
4405.9
4404.57
4403.25
4401.93
4400.6
4399.28
4397.95
4396.63
4395.31
4393.98
4392.66
4391.34
4390.01
4388.69
4387.37
4386.04
4384.72
4383.4
4382.07
4380.75
4379.43
4378.11
4376.79
4375.47
4374.15
4372.83
4371.51
4370.2
4368.89
4367.57
4366.26
4364.95
4363.65
4362.34
4361.04
4359.75
4358.46
4357.17
4355.88
4354.61
4353.34
4352.07
4350.82
4349.57
4348.33
4347.11
4345.89
4344.7
4343.51
4342.35
4341.21
4340.08
4338.99
4337.92
4336.88
4335.87
4334.9
4333.98
4333.1
4332.27
4331.5
4330.78
4330.14
4329.56
4329.07
4328.65
4328.33
4328.09
4327.95
4327.9
4327.95
4328.07
4328.27
4328.53
4328.81
4329.1
4329.33
4329.46
4329.41
4329.11
4328.47
4327.41
4325.85
4323.71
4320.92
4317.38
4312.95
4306.32
4295.98
4288.23
4290.89
4303.23
4316.97
4334.67
4316.01
4237.05
4207.58
4065.48
3887.36
3909.52
4040.84
4080.66
4057.91
4028.79
3962.96
3858.62
3798.73
3775.44
3746.66
3726.96
3719.94
3720.06
3716.82
3698.82
3663.18
3620.26
3580.62
3548.58
3532.85
3542.9
3563.96
3582.46
3587.54
3578.11
3561.46
3545.41
3530.26
3494.76
3425.25
3354.64
3296.17
3252.5
3229.75
3209.01
3166.33
3118.11
3094.89
3089.26
3075.99
3049.41
3016.49
2972.51
2914.83
2857.34
2816.87
2792.41
2774.52
2761.33
2773.66
2713.59
2660.29
2620.39
2560.19
2475.07
2386.95
2321.56
2282.6
2250.8
2207.77
2156.56
2154.18
2189.21
2244.66
2291
2337.95
2389.99
2442.04
2478.52
2446.78
2355.12
2332.87
2301.21
2267.39
2213.06
2182.74
2171
2139.26
2093.84
2055.01
2027.41
1991.16
1936.39
1859.31
1755.94
1623.36
1470.43
1314.53
3548.32
4088.68
4626.24
4610.58
4479.58
4445.89
4470.54
4486.74
4484.34
4477.52
4474.44
4474.07
4473.61
4472.33
4470.76
4469.33
4468.04
4466.75
4465.43
4464.1
4462.77
4461.45
4460.13
4458.8
4457.48
4456.16
4454.83
4453.51
4452.19
4450.87
4449.54
4448.22
4446.9
4445.58
4444.26
4442.94
4441.61
4440.29
4438.97
4437.65
4436.32
4435
4433.68
4432.36
4431.03
4429.71
4428.39
4427.07
4425.74
4424.42
4423.1
4421.77
4420.45
4419.13
4417.8
4416.48
4415.16
4413.83
4412.51
4411.19
4409.86
4408.54
4407.22
4405.89
4404.57
4403.24
4401.92
4400.6
4399.27
4397.95
4396.62
4395.3
4393.97
4392.65
4391.33
4390
4388.68
4387.35
4386.03
4384.71
4383.38
4382.06
4380.74
4379.41
4378.09
4376.77
4375.45
4374.13
4372.81
4371.49
4370.17
4368.85
4367.53
4366.22
4364.91
4363.6
4362.29
4360.98
4359.68
4358.37
4357.08
4355.78
4354.49
4353.21
4351.93
4350.65
4349.39
4348.13
4346.87
4345.63
4344.4
4343.18
4341.97
4340.77
4339.59
4338.42
4337.28
4336.15
4335.04
4333.95
4332.89
4331.86
4330.85
4329.87
4328.92
4328
4327.11
4326.25
4325.42
4324.62
4323.85
4323.1
4322.37
4321.66
4320.95
4320.24
4319.51
4318.76
4317.97
4317.11
4316.17
4315.12
4313.93
4312.57
4311.02
4309.24
4307.2
4304.91
4302.38
4299.77
4297.49
4296.48
4298.63
4304.82
4313.21
4321.29
4326.96
4331.81
4279.22
4171.97
4062.5
3932.57
3911.57
3928.95
3867.56
3851.47
3921.34
3878.41
3809.45
3801.31
3772.45
3794.65
3805.85
3792.95
3799.06
3798.63
3781.7
3760.73
3744.39
3726.5
3677.87
3527.54
3427.43
3505.31
3594.27
3612.35
3572.93
3523.42
3501.96
3501.81
3490.48
3437.26
3365.67
3307.65
3270.54
3265.01
3272.75
3258.98
3188.43
3171.09
3191.33
3173.01
3074.69
2953.2
2880.37
2897.14
2901.53
2868.67
2784.72
2706.95
2698.7
2773.96
2888.26
2921.9
2834.09
2598.71
2369.74
2273.56
2242.6
2237.35
2259.99
2320
2251.86
2104.78
2069.9
2174.34
2331.01
2429.03
2448.54
2461.56
2427.53
2380.33
2318.05
2309.28
2309.99
2313.76
2316
2306.61
2287.84
2228.51
2128.33
2022.49
1981.14
1965.37
1935.56
1879.87
1796.68
1664.22
1465.21
1302.96
3547.53
4087.53
4625.67
4610.33
4479.39
4445.66
4470.29
4486.51
4484.14
4477.34
4474.28
4473.91
4473.46
4472.19
4470.64
4469.21
4467.92
4466.65
4465.34
4464.01
4462.68
4461.36
4460.05
4458.73
4457.41
4456.09
4454.77
4453.45
4452.13
4450.81
4449.49
4448.18
4446.86
4445.54
4444.22
4442.9
4441.58
4440.25
4438.93
4437.61
4436.29
4434.97
4433.65
4432.33
4431.01
4429.68
4428.36
4427.04
4425.72
4424.4
4423.07
4421.75
4420.43
4419.11
4417.78
4416.46
4415.14
4413.82
4412.49
4411.17
4409.85
4408.52
4407.2
4405.88
4404.55
4403.23
4401.91
4400.58
4399.26
4397.93
4396.61
4395.28
4393.96
4392.64
4391.31
4389.99
4388.66
4387.34
4386.01
4384.69
4383.36
4382.04
4380.72
4379.39
4378.07
4376.74
4375.42
4374.1
4372.78
4371.45
4370.13
4368.81
4367.49
4366.17
4364.85
4363.54
4362.22
4360.91
4359.6
4358.29
4356.98
4355.67
4354.37
4353.07
4351.77
4350.48
4349.19
4347.91
4346.63
4345.35
4344.09
4342.83
4341.58
4340.33
4339.1
4337.87
4336.66
4335.46
4334.27
4333.09
4331.93
4330.77
4329.64
4328.52
4327.41
4326.31
4325.23
4324.15
4323.08
4322.02
4320.95
4319.88
4318.78
4317.66
4316.5
4315.28
4313.99
4312.61
4311.11
4309.48
4307.68
4305.7
4303.52
4301.1
4298.45
4295.56
4292.45
4289.16
4285.75
4282.32
4279
4275.85
4272.7
4269.2
4264.29
4256.42
4240.61
4214.32
4164.36
4132.78
4131.83
4108.31
4010.63
3867.06
3753.57
3672.09
3676.29
3746.01
3768.74
3766.91
3779.56
3817.1
3837.53
3840.13
3836.68
3832.95
3829.78
3826.4
3822.4
3816.92
3808.38
3803.74
3770.91
3751.78
3751.55
3700.5
3637.32
3566.33
3529.26
3599.52
3660.06
3610.24
3465.79
3058.4
2902.26
2993.51
3097.81
3172.44
3167.58
3181.17
3143.9
3160.62
3110.4
3001.26
2916.73
2865.82
2821.95
2846.58
2863.02
2841.22
2767.14
2670.21
2733.11
2919.88
3017.14
2907.83
2480.25
2195.68
2005.36
1885.42
1890.09
2041.97
2141.98
2112.34
1994.69
2066.43
2435.38
2582.11
2506.86
2367.87
2321.39
2316.98
2315.24
2314.42
2314.37
2314.87
2317.42
2312.3
2291.06
2261.26
2252.38
2261.13
2252.38
2203.65
2179.81
2194.4
2136.21
1881.48
1464.74
1148.73
3547.58
4087.69
4625.79
4610.4
4479.44
4445.71
4470.34
4486.57
4484.21
4477.41
4474.34
4473.98
4473.53
4472.26
4470.7
4469.28
4467.99
4466.71
4465.4
4464.07
4462.74
4461.42
4460.1
4458.78
4457.46
4456.14
4454.82
4453.5
4452.18
4450.86
4449.53
4448.21
4446.89
4445.57
4444.25
4442.93
4441.61
4440.28
4438.96
4437.64
4436.32
4435
4433.67
4432.35
4431.03
4429.71
4428.38
4427.06
4425.74
4424.41
4423.09
4421.77
4420.45
4419.12
4417.8
4416.48
4415.15
4413.83
4412.51
4411.18
4409.86
4408.53
4407.21
4405.89
4404.56
4403.24
4401.91
4400.59
4399.26
4397.94
4396.61
4395.29
4393.96
4392.64
4391.31
4389.99
4388.66
4387.34
4386.01
4384.69
4383.36
4382.03
4380.71
4379.38
4378.06
4376.73
4375.41
4374.08
4372.75
4371.43
4370.1
4368.78
4367.45
4366.13
4364.8
4363.48
4362.16
4360.84
4359.51
4358.19
4356.87
4355.55
4354.23
4352.92
4351.6
4350.29
4348.97
4347.66
4346.35
4345.05
4343.74
4342.44
4341.14
4339.84
4338.55
4337.26
4335.97
4334.68
4333.39
4332.11
4330.83
4329.55
4328.26
4326.98
4325.69
4324.39
4323.08
4321.76
4320.42
4319.06
4317.66
4316.23
4314.75
4313.21
4311.6
4309.91
4308.11
4306.2
4304.14
4301.92
4299.51
4296.89
4294.03
4290.89
4287.46
4283.69
4279.56
4275.03
4270.06
4264.57
4258.45
4251.52
4243.55
4234.21
4222.81
4208.35
4189.17
4164.15
4131.08
4091.49
4038.54
3958.13
3878.66
3831.74
3813.86
3803.64
3788.06
3781.95
3790.2
3801.8
3812.39
3822.1
3829.02
3833.07
3835.47
3837.16
3838.48
3839.47
3840.05
3840.47
3839.58
3842.85
3829.46
3743.1
3673.26
3664.47
3675.18
3695.19
3719.51
3724.54
3713.93
3683.37
3640.69
3426.87
3058.91
3152.86
3566.8
3577.8
2956.02
2829.51
3031.62
3233
3279.91
2964.33
2532.6
2405.32
2472.39
2577.51
2743.37
2874.85
2948.22
2857.37
2665.12
2530.92
2557.51
2522.33
2400.51
2207.37
1872.03
1700.5
1663.05
1753.63
1986.44
2059.25
2008.41
1999.03
2121.33
2378.1
2407.34
2357.74
2325.4
2316.53
2313.26
2309.31
2308.91
2312.66
2318.51
2316.94
2300.79
2270.78
2280.75
2315.43
2331.21
2309.63
2300.07
2305.38
2281.01
2148.53
1986.97
1490.87
3547.32
4087.31
4625.58
4610.26
4479.28
4445.54
4470.18
4486.43
4484.07
4477.27
4474.22
4473.86
4473.42
4472.15
4470.6
4469.18
4467.89
4466.62
4465.31
4463.98
4462.66
4461.34
4460.03
4458.71
4457.39
4456.07
4454.75
4453.43
4452.12
4450.8
4449.48
4448.16
4446.84
4445.52
4444.2
4442.88
4441.56
4440.24
4438.92
4437.6
4436.28
4434.96
4433.63
4432.31
4430.99
4429.67
4428.35
4427.03
4425.7
4424.38
4423.06
4421.74
4420.42
4419.09
4417.77
4416.45
4415.12
4413.8
4412.48
4411.15
4409.83
4408.51
4407.18
4405.86
4404.54
4403.21
4401.89
4400.56
4399.24
4397.92
4396.59
4395.27
4393.94
4392.62
4391.29
4389.96
4388.64
4387.31
4385.99
4384.66
4383.33
4382.01
4380.68
4379.35
4378.02
4376.7
4375.37
4374.04
4372.71
4371.38
4370.06
4368.73
4367.4
4366.07
4364.74
4363.41
4362.08
4360.74
4359.41
4358.08
4356.75
4355.42
4354.08
4352.75
4351.41
4350.08
4348.74
4347.4
4346.06
4344.72
4343.38
4342.03
4340.69
4339.34
4337.98
4336.62
4335.26
4333.89
4332.52
4331.13
4329.74
4328.33
4326.91
4325.48
4324.02
4322.54
4321.03
4319.49
4317.91
4316.29
4314.61
4312.86
4311.05
4309.14
4307.14
4305.03
4302.78
4300.38
4297.81
4295.05
4292.07
4288.84
4285.33
4281.51
4277.35
4272.79
4267.79
4262.3
4256.23
4249.49
4241.97
4233.51
4223.91
4212.86
4199.94
4184.57
4166.05
4143.41
4115.66
4081.51
4041.98
3999.53
3961.13
3927.78
3894.4
3858.04
3825.12
3807.87
3805.01
3806.21
3808.13
3813.38
3820.97
3826.99
3829.68
3829.74
3828.32
3825.89
3822.38
3817.71
3811.52
3805.74
3799.44
3787.68
3784.1
3792.34
3804.49
3816.44
3809.17
3758.93
3690.69
3651.44
3656.56
3643.52
3551.74
3356.44
3352.41
3300.26
3120.89
2843.8
2969.94
3408.01
3306.87
3117.92
2805.49
2337.53
2283.68
2571.44
2731.04
2730.79
2623.58
2596.7
2531.15
2428.06
2360.2
2349.25
2351.22
2341.66
2292.97
2225.45
2141.6
1585.41
1351.45
1506.56
1621.04
1619.21
1757.33
2070.02
2316.64
2315.67
2313.88
2312.22
2310.09
2308.13
2308.2
2314.72
2323.4
2328.43
2318.42
2278.92
2272.55
2342.08
2400.64
2386.16
2379.6
2373.29
2386.28
2378.57
2297.72
1540.53
3547.23
4087.24
4625.56
4610.26
4479.28
4445.54
4470.19
4486.44
4484.09
4477.29
4474.24
4473.89
4473.45
4472.18
4470.63
4469.21
4467.93
4466.66
4465.35
4464.02
4462.7
4461.38
4460.07
4458.75
4457.43
4456.11
4454.79
4453.47
4452.16
4450.84
4449.52
4448.2
4446.88
4445.56
4444.23
4442.91
4441.59
4440.27
4438.95
4437.63
4436.31
4434.99
4433.66
4432.34
4431.02
4429.7
4428.38
4427.05
4425.73
4424.41
4423.08
4421.76
4420.44
4419.12
4417.79
4416.47
4415.15
4413.82
4412.5
4411.18
4409.85
4408.53
4407.2
4405.88
4404.55
4403.23
4401.9
4400.58
4399.26
4397.93
4396.6
4395.28
4393.95
4392.63
4391.3
4389.97
4388.65
4387.32
4385.99
4384.67
4383.34
4382.01
4380.68
4379.35
4378.02
4376.69
4375.36
4374.03
4372.7
4371.37
4370.03
4368.7
4367.37
4366.03
4364.69
4363.36
4362.02
4360.68
4359.34
4357.99
4356.65
4355.3
4353.95
4352.6
4351.24
4349.89
4348.53
4347.16
4345.79
4344.42
4343.04
4341.65
4340.26
4338.85
4337.44
4336.02
4334.59
4333.14
4331.68
4330.2
4328.7
4327.18
4325.63
4324.05
4322.44
4320.78
4319.09
4317.34
4315.54
4313.67
4311.73
4309.7
4307.57
4305.34
4302.98
4300.49
4297.84
4295.01
4291.99
4288.74
4285.25
4281.49
4277.41
4273
4268.2
4262.98
4257.27
4251.03
4244.17
4236.6
4228.23
4218.92
4208.48
4196.7
4183.34
4168.07
4150.61
4130.68
4108.3
4083.75
4057.74
4030.55
4001.84
3971.76
3942.14
3915.61
3894.85
3880.61
3871
3863.8
3858.18
3854.06
3850.66
3846.89
3842.36
3837.34
3832.17
3826.86
3821.23
3815.03
3808.09
3799.95
3789.54
3774.26
3754.04
3735.32
3722.46
3714.77
3708.17
3696.61
3684.49
3684.73
3697.77
3728.38
3676.76
3496.08
3310.45
3254.83
3234.4
3131.96
2712.88
2699.5
2886.79
2913.85
2893.44
2821.45
2641.8
2578.07
2529.71
2471.6
2423.8
2377.42
2374.16
2421.66
2461.24
2459.84
2360.83
2421.5
2567.63
2616.21
2459.84
2214.75
1854.99
1798.06
2056.26
2058.28
2011.25
2124.5
2249.41
2289.29
2301.68
2304.45
2302.71
2302.16
2302.66
2309.38
2319.73
2326.11
2327.25
2320.57
2319.33
2327.18
2322.27
2317.66
2335.09
2415.84
2537.17
2635.14
2619.18
1519.09
3547.12
4087.08
4625.48
4610.2
4479.21
4445.45
4470.1
4486.36
4484.01
4477.22
4474.17
4473.81
4473.38
4472.12
4470.57
4469.15
4467.87
4466.59
4465.29
4463.96
4462.64
4461.33
4460.01
4458.7
4457.38
4456.06
4454.74
4453.43
4452.11
4450.79
4449.47
4448.15
4446.83
4445.51
4444.19
4442.87
4441.55
4440.23
4438.91
4437.59
4436.27
4434.95
4433.63
4432.3
4430.98
4429.66
4428.34
4427.02
4425.7
4424.37
4423.05
4421.73
4420.41
4419.08
4417.76
4416.44
4415.12
4413.79
4412.47
4411.15
4409.82
4408.5
4407.17
4405.85
4404.53
4403.2
4401.88
4400.55
4399.23
4397.9
4396.58
4395.25
4393.93
4392.6
4391.27
4389.95
4388.62
4387.29
4385.96
4384.64
4383.31
4381.98
4380.65
4379.32
4377.99
4376.65
4375.32
4373.99
4372.65
4371.32
4369.98
4368.65
4367.31
4365.97
4364.63
4363.28
4361.94
4360.59
4359.24
4357.88
4356.53
4355.17
4353.81
4352.44
4351.07
4349.69
4348.31
4346.92
4345.52
4344.11
4342.7
4341.28
4339.84
4338.39
4336.93
4335.45
4333.95
4332.43
4330.89
4329.33
4327.73
4326.11
4324.44
4322.74
4320.99
4319.19
4317.33
4315.4
4313.41
4311.33
4309.16
4306.89
4304.5
4301.98
4299.33
4296.51
4293.52
4290.33
4286.92
4283.27
4279.35
4275.14
4270.59
4265.68
4260.37
4254.6
4248.34
4241.52
4234.07
4225.92
4216.97
4207.12
4196.26
4184.25
4170.96
4156.24
4140
4122.15
4102.71
4081.77
4059.43
4035.94
4011.89
3988.3
3966.26
3946.29
3928.35
3912.29
3898.19
3886.03
3875.47
3866.09
3857.55
3849.56
3841.83
3834.11
3826.24
3818.06
3809.42
3800.11
3789.96
3778.73
3766.24
3752.48
3738.29
3725.71
3715.46
3705.77
3694.07
3678.25
3657.17
3630.44
3593.32
3539.67
3449.42
3345.86
3283.99
3272.78
3283.29
3227.89
3082.58
2949.65
2884.52
2886.97
2926.4
2908.01
2771.38
2542.53
2401.92
2357.73
2349.08
2345.58
2343.28
2353.04
2373.92
2387.8
2388.86
2356.71
2296.3
2325.89
2354.13
2356.51
2310.2
2195.99
2135.67
2147.01
2213.22
2270.54
2287.08
2284.26
2285.43
2289.49
2291.78
2291.3
2295.4
2302.76
2309.42
2314.6
2319.39
2320.93
2326.68
2335.42
2341
2346.29
2344.21
2449.33
2633.61
2729.3
2737.34
1858.53
3547.05
4087
4625.44
4610.19
4479.18
4445.43
4470.08
4486.34
4484
4477.22
4474.17
4473.81
4473.38
4472.12
4470.58
4469.16
4467.88
4466.61
4465.31
4463.98
4462.66
4461.35
4460.04
4458.72
4457.4
4456.09
4454.77
4453.45
4452.13
4450.82
4449.5
4448.18
4446.86
4445.54
4444.22
4442.9
4441.58
4440.26
4438.94
4437.62
4436.3
4434.98
4433.65
4432.33
4431.01
4429.69
4428.37
4427.04
4425.72
4424.4
4423.08
4421.76
4420.43
4419.11
4417.79
4416.46
4415.14
4413.82
4412.49
4411.17
4409.85
4408.52
4407.2
4405.87
4404.55
4403.22
4401.9
4400.57
4399.25
4397.92
4396.6
4395.27
4393.94
4392.62
4391.29
4389.96
4388.64
4387.31
4385.98
4384.65
4383.32
4381.99
4380.66
4379.32
4377.99
4376.66
4375.32
4373.99
4372.65
4371.31
4369.97
4368.63
4367.29
4365.94
4364.6
4363.25
4361.9
4360.54
4359.18
4357.82
4356.45
4355.08
4353.71
4352.32
4350.94
4349.54
4348.14
4346.73
4345.3
4343.87
4342.43
4340.97
4339.5
4338.01
4336.5
4334.97
4333.42
4331.84
4330.23
4328.59
4326.91
4325.2
4323.43
4321.62
4319.76
4317.83
4315.83
4313.75
4311.59
4309.34
4306.98
4304.5
4301.89
4299.14
4296.24
4293.15
4289.88
4286.39
4282.67
4278.69
4274.42
4269.85
4264.93
4259.63
4253.92
4247.75
4241.08
4233.86
4226.02
4217.52
4208.28
4198.22
4187.28
4175.37
4162.41
4148.35
4133.13
4116.73
4099.19
4080.59
4061.13
4041.14
4021.02
4001.16
3981.84
3963.26
3945.66
3929.35
3914.54
3901.2
3889.03
3877.76
3867.14
3856.96
3846.95
3836.89
3826.63
3816.06
3805.08
3793.56
3781.41
3768.55
3754.92
3740.54
3725.39
3709.43
3692.43
3673.84
3652.81
3628.36
3599.57
3566
3527.5
3483.54
3434.02
3381.24
3328.43
3270.5
3199.97
3102.53
2985.88
2892.53
2852.54
2840.59
2809.45
2730.92
2614.67
2511.89
2457.8
2442.86
2442.97
2456.2
2481.68
2512.72
2553.17
2603.46
2643.31
2576.16
2411.26
2301.02
2303.53
2368.08
2388.36
2344.02
2271.58
2219.6
2211.23
2232.57
2258.26
2278.5
2294.37
2302.58
2302.26
2299.83
2299.66
2302.41
2305.87
2306.46
2301.99
2295.11
2287.41
2281.3
2276.72
2269.53
2258.89
2234.88
2244.29
2336.99
1925.89
1082.9
3546.99
4086.92
4625.4
4610.16
4479.15
4445.39
4470.04
4486.31
4483.97
4477.18
4474.13
4473.78
4473.35
4472.09
4470.54
4469.13
4467.85
4466.58
4465.27
4463.95
4462.63
4461.32
4460
4458.69
4457.37
4456.05
4454.74
4453.42
4452.1
4450.78
4449.47
4448.15
4446.83
4445.51
4444.19
4442.87
4441.55
4440.23
4438.91
4437.59
4436.27
4434.94
4433.62
4432.3
4430.98
4429.66
4428.34
4427.01
4425.69
4424.37
4423.05
4421.73
4420.4
4419.08
4417.76
4416.43
4415.11
4413.79
4412.46
4411.14
4409.82
4408.49
4407.17
4405.85
4404.52
4403.2
4401.87
4400.55
4399.22
4397.9
4396.57
4395.24
4393.92
4392.59
4391.26
4389.94
4388.61
4387.28
4385.95
4384.62
4383.29
4381.96
4380.63
4379.29
4377.96
4376.63
4375.29
4373.95
4372.61
4371.27
4369.93
4368.59
4367.24
4365.89
4364.54
4363.19
4361.83
4360.47
4359.11
4357.74
4356.36
4354.98
4353.6
4352.2
4350.8
4349.39
4347.97
4346.54
4345.1
4343.65
4342.18
4340.7
4339.19
4337.67
4336.13
4334.56
4332.96
4331.33
4329.67
4327.97
4326.23
4324.44
4322.6
4320.7
4318.74
4316.71
4314.6
4312.41
4310.12
4307.73
4305.22
4302.58
4299.8
4296.87
4293.77
4290.48
4286.98
4283.26
4279.3
4275.07
4270.54
4265.69
4260.49
4254.91
4248.91
4242.45
4235.51
4228.02
4219.95
4211.25
4201.87
4191.76
4180.86
4169.14
4156.55
4143.06
4128.68
4113.4
4097.3
4080.47
4063.04
4045.2
4027.13
4009.05
3991.18
3973.79
3957.09
3941.24
3926.27
3912.13
3898.71
3885.88
3873.51
3861.45
3849.55
3837.68
3825.69
3813.48
3800.92
3787.89
3774.25
3759.88
3744.65
3728.42
3711.06
3692.47
3672.55
3651.12
3627.78
3602.07
3573.55
3541.9
3506.86
3467.8
3423.78
3373.53
3317.26
3257.21
3195.42
3132.51
3069.13
3009.93
2957.64
2907.04
2851.54
2790.52
2727.58
2667.69
2614.54
2570.97
2537.26
2512.09
2492.03
2474.5
2459.01
2442.37
2419.36
2384.38
2342.27
2317.37
2319.77
2324.22
2302.8
2259.58
2219.56
2203.04
2212.44
2235.92
2258.16
2271.29
2276.94
2279.04
2280.36
2282.28
2285.46
2290.22
2296.36
2303.34
2310.09
2317.25
2327.14
2341.1
2360.23
2388.58
2423.06
2408.06
2253.77
2008.91
1729.17
1218.22
3546.95
4086.87
4625.38
4610.15
4479.13
4445.37
4470.03
4486.29
4483.96
4477.17
4474.12
4473.77
4473.34
4472.09
4470.54
4469.13
4467.85
4466.58
4465.28
4463.96
4462.64
4461.33
4460.02
4458.7
4457.39
4456.07
4454.75
4453.44
4452.12
4450.8
4449.48
4448.17
4446.85
4445.53
4444.21
4442.89
4441.57
4440.25
4438.93
4437.61
4436.29
4434.97
4433.65
4432.33
4431
4429.68
4428.36
4427.04
4425.72
4424.4
4423.07
4421.75
4420.43
4419.11
4417.78
4416.46
4415.14
4413.81
4412.49
4411.17
4409.84
4408.52
4407.19
4405.87
4404.55
4403.22
4401.9
4400.57
4399.25
4397.92
4396.59
4395.27
4393.94
4392.61
4391.29
4389.96
4388.63
4387.3
4385.97
4384.64
4383.31
4381.98
4380.64
4379.31
4377.98
4376.64
4375.3
4373.96
4372.62
4371.28
4369.94
4368.59
4367.24
4365.89
4364.54
4363.18
4361.82
4360.45
4359.08
4357.71
4356.33
4354.94
4353.55
4352.14
4350.73
4349.31
4347.88
4346.44
4344.99
4343.52
4342.03
4340.52
4339
4337.45
4335.88
4334.28
4332.65
4330.99
4329.28
4327.54
4325.75
4323.91
4322.01
4320.05
4318.02
4315.92
4313.73
4311.45
4309.07
4306.57
4303.95
4301.2
4298.3
4295.23
4291.99
4288.55
4284.9
4281.02
4276.88
4272.47
4267.75
4262.71
4257.32
4251.54
4245.34
4238.7
4231.57
4223.92
4215.71
4206.91
4197.47
4187.36
4176.54
4165
4152.7
4139.65
4125.86
4111.34
4096.15
4080.37
4064.1
4047.46
4030.6
4013.69
3996.9
3980.38
3964.25
3948.6
3933.45
3918.83
3904.7
3891.01
3877.65
3864.54
3851.55
3838.55
3825.43
3812.06
3798.31
3784.07
3769.2
3753.58
3737.1
3719.64
3701.07
3681.28
3660.1
3637.32
3612.63
3585.7
3556.19
3523.77
3488.12
3448.94
3406.09
3359.81
3310.89
3260.32
3208.37
3154.46
3097.87
3039.25
2980.95
2924.89
2870.82
2817.04
2762.17
2706.92
2654.82
2609.73
2572.89
2543.05
2518.64
2498.67
2481.95
2466.71
2450.66
2431.12
2406.5
2379.57
2355.12
2334.24
2314.94
2296.11
2279.42
2267.21
2260.08
2256.55
2254.29
2251.94
2249.72
2248.17
2247.08
2245.91
2244.54
2243.06
2241.39
2239.08
2235.55
2230.46
2223.69
2214.32
2199.99
2175.1
2128.64
2046.25
1898.92
1710.31
1578.87
795.084
3546.93
4086.84
4625.36
4610.14
4479.12
4445.36
4470.01
4486.28
4483.94
4477.16
4474.11
4473.76
4473.33
4472.08
4470.53
4469.12
4467.84
4466.57
4465.26
4463.94
4462.62
4461.31
4460
4458.68
4457.37
4456.05
4454.73
4453.42
4452.1
4450.78
4449.46
4448.15
4446.83
4445.51
4444.19
4442.87
4441.55
4440.23
4438.91
4437.59
4436.27
4434.94
4433.62
4432.3
4430.98
4429.66
4428.34
4427.01
4425.69
4424.37
4423.05
4421.73
4420.4
4419.08
4417.76
4416.43
4415.11
4413.79
4412.46
4411.14
4409.82
4408.49
4407.17
4405.85
4404.52
4403.2
4401.87
4400.55
4399.22
4397.9
4396.57
4395.24
4393.92
4392.59
4391.26
4389.93
4388.6
4387.28
4385.95
4384.62
4383.28
4381.95
4380.62
4379.29
4377.95
4376.61
4375.28
4373.94
4372.6
4371.25
4369.91
4368.56
4367.21
4365.86
4364.51
4363.15
4361.78
4360.42
4359.04
4357.67
4356.28
4354.89
4353.49
4352.09
4350.67
4349.25
4347.81
4346.36
4344.9
4343.42
4341.92
4340.4
4338.87
4337.3
4335.72
4334.1
4332.45
4330.76
4329.04
4327.27
4325.45
4323.58
4321.64
4319.65
4317.58
4315.43
4313.19
4310.86
4308.42
4305.86
4303.18
4300.36
4297.38
4294.23
4290.91
4287.38
4283.63
4279.65
4275.41
4270.89
4266.07
4260.91
4255.4
4249.51
4243.2
4236.45
4229.22
4221.48
4213.2
4204.34
4194.88
4184.78
4174.03
4162.61
4150.5
4137.71
4124.25
4110.16
4095.49
4080.3
4064.67
4048.72
4032.56
4016.31
4000.09
3984.02
3968.18
3952.67
3937.51
3922.73
3908.31
3894.2
3880.34
3866.63
3852.98
3839.28
3825.42
3811.27
3796.73
3781.66
3765.96
3749.49
3732.14
3713.77
3694.24
3673.43
3651.15
3627.24
3601.48
3573.69
3543.63
3511.12
3476.02
3438.22
3397.71
3354.52
3308.71
3260.37
3209.59
3156.61
3101.92
3046.43
2991.29
2937.2
2883.97
2831.08
2778.66
2727.83
2680.21
2637
2598.47
2564.22
2533.6
2505.77
2479.73
2454.45
2428.87
2402.22
2374.55
2347.32
2322.61
2301.14
2281.54
2262.15
2243.03
2225.85
2212.28
2202.74
2196.36
2191.8
2187.93
2184
2179.5
2173.97
2166.98
2158.02
2146.38
2131.17
2111.27
2085.35
2051.72
2007.98
1950.69
1874.59
1772.42
1633.2
1447.28
1179.21
850.496
266.511
3546.92
4086.83
4625.36
4610.14
4479.12
4445.35
4470.01
4486.28
4483.94
4477.16
4474.11
4473.76
4473.33
4472.08
4470.53
4469.12
4467.84
4466.57
4465.27
4463.95
4462.63
4461.32
4460.01
4458.7
4457.38
4456.06
4454.75
4453.43
4452.12
4450.8
4449.48
4448.16
4446.84
4445.53
4444.21
4442.89
4441.57
4440.25
4438.93
4437.61
4436.29
4434.97
4433.65
4432.32
4431
4429.68
4428.36
4427.04
4425.72
4424.39
4423.07
4421.75
4420.43
4419.11
4417.78
4416.46
4415.14
4413.81
4412.49
4411.17
4409.84
4408.52
4407.2
4405.87
4404.55
4403.22
4401.9
4400.57
4399.25
4397.92
4396.6
4395.27
4393.94
4392.62
4391.29
4389.96
4388.63
4387.3
4385.97
4384.64
4383.31
4381.98
4380.65
4379.31
4377.98
4376.64
4375.3
4373.96
4372.62
4371.28
4369.93
4368.59
4367.24
4365.88
4364.53
4363.17
4361.8
4360.44
4359.06
4357.68
4356.3
4354.91
4353.51
4352.1
4350.69
4349.26
4347.82
4346.37
4344.9
4343.42
4341.92
4340.4
4338.85
4337.29
4335.69
4334.07
4332.41
4330.72
4328.99
4327.21
4325.38
4323.5
4321.56
4319.55
4317.47
4315.3
4313.05
4310.7
4308.24
4305.66
4302.96
4300.11
4297.1
4293.93
4290.57
4287.02
4283.24
4279.22
4274.94
4270.38
4265.52
4260.32
4254.77
4248.84
4242.49
4235.69
4228.42
4220.65
4212.34
4203.46
4193.99
4183.89
4173.16
4161.77
4149.71
4137.01
4123.67
4109.72
4095.21
4080.22
4064.82
4049.1
4033.17
4017.14
4001.13
3985.23
3969.53
3954.11
3938.99
3924.2
3909.7
3895.47
3881.44
3867.53
3853.63
3839.67
3825.51
3811.04
3796.14
3780.69
3764.56
3747.62
3729.76
3710.83
3690.73
3669.32
3646.46
3622.03
3595.87
3567.82
3537.73
3505.44
3470.83
3433.76
3394.13
3351.89
3307.04
3259.75
3210.27
3158.95
3106.18
3052.39
2998.03
2943.6
2889.5
2836.05
2783.67
2732.96
2684.69
2639.55
2598.05
2560.47
2526.91
2496.65
2469.11
2443.91
2420.46
2398
2375.72
2353.24
2330.6
2308.05
2285.87
2264.37
2244.01
2225.52
2209.76
2197.17
2187.41
2179.44
2172.09
2164.57
2156.45
2147.23
2136.1
2121.93
2103.35
2078.83
2046.61
2004.67
1950.66
1881.73
1794.38
1684.34
1546.48
1373.88
1157.89
890.94
558.343
220.607
3546.93
4086.84
4625.36
4610.14
4479.12
4445.36
4470.01
4486.28
4483.94
4477.16
4474.11
4473.76
4473.33
4472.08
4470.53
4469.12
4467.84
4466.57
4465.26
4463.94
4462.62
4461.31
4460
4458.68
4457.37
4456.05
4454.74
4453.42
4452.1
4450.78
4449.46
4448.15
4446.83
4445.51
4444.19
4442.87
4441.55
4440.23
4438.91
4437.59
4436.27
4434.95
4433.62
4432.3
4430.98
4429.66
4428.34
4427.02
4425.69
4424.37
4423.05
4421.73
4420.4
4419.08
4417.76
4416.44
4415.11
4413.79
4412.47
4411.14
4409.82
4408.5
4407.17
4405.85
4404.52
4403.2
4401.88
4400.55
4399.23
4397.9
4396.57
4395.25
4393.92
4392.6
4391.27
4389.94
4388.61
4387.28
4385.95
4384.62
4383.29
4381.96
4380.63
4379.3
4377.96
4376.63
4375.29
4373.95
4372.61
4371.27
4369.93
4368.58
4367.23
4365.88
4364.52
4363.17
4361.8
4360.44
4359.07
4357.69
4356.31
4354.92
4353.52
4352.12
4350.7
4349.28
4347.84
4346.4
4344.93
4343.46
4341.96
4340.45
4338.91
4337.35
4335.76
4334.15
4332.5
4330.82
4329.09
4327.33
4325.51
4323.64
4321.71
4319.71
4317.65
4315.5
4313.26
4310.93
4308.49
4305.93
4303.25
4300.42
4297.44
4294.3
4290.96
4287.43
4283.68
4279.69
4275.45
4270.92
4266.09
4260.92
4255.4
4249.49
4243.17
4236.4
4229.16
4221.4
4213.1
4204.22
4194.74
4184.62
4173.85
4162.4
4150.28
4137.47
4124.01
4109.93
4095.27
4080.1
4064.52
4048.62
4032.54
4016.38
4000.26
3984.3
3968.58
3953.18
3938.13
3923.45
3909.1
3895.05
3881.21
3867.5
3853.79
3840
3825.98
3811.61
3796.78
3781.33
3765.16
3748.12
3730.09
3710.95
3690.58
3668.87
3645.72
3621
3594.6
3566.37
3536.19
3503.98
3469.67
3433.17
3394.34
3353.01
3309.01
3262.26
3212.75
3160.57
3105.99
3049.63
2992.69
2936.57
2881.94
2828.39
2775.25
2722.74
2672.22
2625.48
2583.54
2546.27
2512.64
2481.97
2453.36
2425.77
2398.52
2371.83
2344.74
2317.14
2289.52
2263.01
2238.9
2217.09
2195.95
2174.54
2154.44
2138.33
2127.46
2120.8
2116.06
2111.47
2106.04
2098.99
2089.4
2076.29
2058.37
2033.78
2000.09
1954.36
1893.44
1814.15
1712.92
1585.59
1428.35
1240.71
1021.07
774.947
473.337
210.774
3546.95
4086.87
4625.38
4610.15
4479.13
4445.37
4470.03
4486.29
4483.96
4477.17
4474.12
4473.77
4473.34
4472.09
4470.54
4469.13
4467.85
4466.58
4465.28
4463.96
4462.64
4461.33
4460.02
4458.7
4457.39
4456.07
4454.75
4453.44
4452.12
4450.8
4449.49
4448.17
4446.85
4445.53
4444.21
4442.89
4441.57
4440.25
4438.93
4437.61
4436.29
4434.97
4433.65
4432.33
4431.01
4429.69
4428.36
4427.04
4425.72
4424.4
4423.08
4421.75
4420.43
4419.11
4417.79
4416.46
4415.14
4413.82
4412.49
4411.17
4409.85
4408.52
4407.2
4405.88
4404.55
4403.23
4401.9
4400.58
4399.25
4397.93
4396.6
4395.28
4393.95
4392.62
4391.3
4389.97
4388.64
4387.31
4385.99
4384.66
4383.33
4381.99
4380.66
4379.33
4378
4376.66
4375.33
4373.99
4372.65
4371.31
4369.97
4368.62
4367.28
4365.93
4364.57
4363.22
4361.86
4360.5
4359.13
4357.76
4356.38
4355
4353.6
4352.21
4350.8
4349.38
4347.95
4346.52
4345.06
4343.6
4342.11
4340.61
4339.09
4337.55
4335.98
4334.38
4332.76
4331.1
4329.4
4327.66
4325.87
4324.04
4322.14
4320.19
4318.16
4316.06
4313.87
4311.59
4309.21
4306.71
4304.09
4301.33
4298.43
4295.36
4292.11
4288.66
4285
4281.11
4276.95
4272.53
4267.79
4262.73
4257.32
4251.51
4245.29
4238.62
4231.45
4223.77
4215.52
4206.67
4197.19
4187.03
4176.17
4164.58
4152.24
4139.16
4125.34
4110.83
4095.66
4079.94
4063.75
4047.23
4030.52
4013.81
3997.24
3980.96
3965.09
3949.68
3934.77
3920.36
3906.4
3892.83
3879.54
3866.42
3853.35
3840.18
3826.78
3812.99
3798.67
3783.67
3767.85
3751.06
3733.19
3714.12
3693.78
3672.09
3648.96
3624.3
3597.98
3569.87
3539.84
3507.73