/*--------------------------------*- C++ -*----------------------------------*\
| =========                 |                                                 |
| \\      /  F ield         | OpenFOAM: The Open Source CFD Toolbox           |
|  \\    /   O peration     | Version:  2406                                  |
|   \\  /    A nd           | Website:  www.openfoam.com                      |
|    \\/     M anipulation  |                                                 |
\*---------------------------------------------------------------------------*/
FoamFile
{
    version     2.0;
    format      ascii;
    arch        "LSB;label=32;scalar=64";
    class       surfaceScalarField;
    location    "0.2";
    object      phi;
}
// * * * * * * * * * * * * * * * * * * * * * * * * * * * * * * * * * * * * * //

dimensions      [0 3 -1 0 0 0 0];

oriented        oriented;

internalField   nonuniform List<scalar> 
12225
(
1.62274e-05
1.10458e-08
1.62006e-05
2.67737e-08
1.61778e-05
2.28817e-08
1.61609e-05
1.68427e-08
1.61421e-05
1.8828e-08
1.61196e-05
2.2529e-08
1.60956e-05
2.39322e-08
1.60718e-05
2.3816e-08
1.6048e-05
2.38014e-08
1.60238e-05
2.42548e-08
1.5999e-05
2.47305e-08
1.5974e-05
2.50209e-08
1.59488e-05
2.51864e-08
1.59235e-05
2.53254e-08
1.5898e-05
2.54625e-08
1.58725e-05
2.55822e-08
1.58468e-05
2.56754e-08
1.5821e-05
2.57468e-08
1.57952e-05
2.58033e-08
1.57694e-05
2.58488e-08
1.57435e-05
2.58846e-08
1.57176e-05
2.59117e-08
1.56916e-05
2.59317e-08
1.56657e-05
2.59461e-08
1.56397e-05
2.59557e-08
1.56138e-05
2.59617e-08
1.55878e-05
2.59645e-08
1.55619e-05
2.5965e-08
1.55359e-05
2.59635e-08
1.55099e-05
2.59605e-08
1.5484e-05
2.59562e-08
1.5458e-05
2.59508e-08
1.54321e-05
2.59446e-08
1.54061e-05
2.59377e-08
1.53802e-05
2.59304e-08
1.53543e-05
2.59228e-08
1.53284e-05
2.5915e-08
1.53025e-05
2.59073e-08
1.52766e-05
2.58999e-08
1.52507e-05
2.58933e-08
1.52248e-05
2.58877e-08
1.51989e-05
2.58836e-08
1.5173e-05
2.58808e-08
1.51471e-05
2.58792e-08
1.51213e-05
2.58781e-08
1.50954e-05
2.58767e-08
1.50695e-05
2.58742e-08
1.50436e-05
2.58699e-08
1.50178e-05
2.58634e-08
1.49919e-05
2.58548e-08
1.49661e-05
2.58444e-08
1.49402e-05
2.58328e-08
1.49144e-05
2.58209e-08
1.48886e-05
2.58093e-08
1.48628e-05
2.57987e-08
1.4837e-05
2.57893e-08
1.48112e-05
2.57811e-08
1.47855e-05
2.57742e-08
1.47597e-05
2.57682e-08
1.47339e-05
2.57631e-08
1.47082e-05
2.57587e-08
1.46824e-05
2.5755e-08
1.46567e-05
2.5752e-08
1.46309e-05
2.57499e-08
1.46052e-05
2.57488e-08
1.45794e-05
2.57487e-08
1.45537e-05
2.57499e-08
1.45279e-05
2.57525e-08
1.45022e-05
2.57566e-08
1.44764e-05
2.57625e-08
1.44506e-05
2.57703e-08
1.44249e-05
2.57802e-08
1.43991e-05
2.57927e-08
1.43733e-05
2.58081e-08
1.43474e-05
2.58266e-08
1.43216e-05
2.58487e-08
1.42957e-05
2.58748e-08
1.42698e-05
2.59052e-08
1.42439e-05
2.59404e-08
1.42179e-05
2.59807e-08
1.41919e-05
2.60267e-08
1.41658e-05
2.60789e-08
1.41396e-05
2.6138e-08
1.41134e-05
2.62049e-08
1.40872e-05
2.62805e-08
1.40608e-05
2.63662e-08
1.40343e-05
2.64633e-08
1.40077e-05
2.65737e-08
1.3981e-05
2.66991e-08
1.39542e-05
2.68419e-08
1.39272e-05
2.70046e-08
1.39e-05
2.71899e-08
1.38726e-05
2.7401e-08
1.3845e-05
2.76414e-08
1.38171e-05
2.79153e-08
1.37888e-05
2.82269e-08
1.37602e-05
2.85815e-08
1.37313e-05
2.89846e-08
1.37018e-05
2.94428e-08
1.36719e-05
2.99633e-08
1.36413e-05
3.05542e-08
1.36101e-05
3.12247e-08
1.35781e-05
3.19851e-08
1.35452e-05
3.2847e-08
1.35114e-05
3.38234e-08
1.34765e-05
3.49289e-08
1.34403e-05
3.61802e-08
1.34027e-05
3.75956e-08
1.33635e-05
3.91963e-08
1.33225e-05
4.10057e-08
1.32795e-05
4.30503e-08
1.32341e-05
4.53603e-08
1.31861e-05
4.79692e-08
1.31352e-05
5.09149e-08
1.3081e-05
5.42402e-08
1.3023e-05
5.79928e-08
1.29608e-05
6.22264e-08
1.28938e-05
6.70008e-08
1.28214e-05
7.23831e-08
1.27429e-05
7.84473e-08
1.26577e-05
8.52759e-08
1.25647e-05
9.29596e-08
1.24631e-05
1.01598e-07
1.23518e-05
1.113e-07
1.22296e-05
1.22183e-07
1.20952e-05
1.34372e-07
1.19472e-05
1.47999e-07
1.1784e-05
1.63204e-07
1.16039e-05
1.80125e-07
1.1405e-05
1.989e-07
1.11854e-05
2.19662e-07
1.09428e-05
2.42525e-07
1.06752e-05
2.67581e-07
1.03804e-05
2.94882e-07
1.00559e-05
3.24426e-07
9.69981e-06
3.56133e-07
9.30997e-06
3.8984e-07
8.88459e-06
4.25381e-07
8.42217e-06
4.62411e-07
7.92174e-06
5.00433e-07
7.38296e-06
5.38782e-07
6.80634e-06
5.76614e-07
6.19346e-06
6.1289e-07
5.54707e-06
6.46388e-07
4.87134e-06
6.75728e-07
4.17189e-06
6.99453e-07
3.45579e-06
7.16098e-07
2.7305e-06
7.25293e-07
2.00531e-06
7.25187e-07
1.26307e-06
7.42234e-07
4.18589e-07
8.44486e-07
-3.0784e-07
7.26429e-07
-6.64004e-07
3.56163e-07
-6.22785e-07
-4.12186e-08
-1.80156e-07
-4.42629e-07
7.57584e-07
-9.37741e-07
1.06776e-06
-3.10171e-07
5.0096e-07
5.66796e-07
3.02997e-07
1.97963e-07
2.6349e-07
3.95071e-08
2.3866e-07
2.48301e-08
2.0666e-07
3.19999e-08
1.86518e-07
2.01422e-08
1.8002e-07
6.49758e-09
1.79605e-07
4.15538e-10
1.81186e-07
-1.5812e-09
1.82355e-07
-1.16858e-09
1.81089e-07
1.26589e-09
1.77212e-07
3.87672e-09
1.72746e-07
4.46614e-09
1.69186e-07
3.55968e-09
1.67688e-07
1.49818e-09
1.68472e-07
-7.83624e-10
1.71357e-07
-2.88577e-09
1.7646e-07
-5.1024e-09
1.83045e-07
-6.5855e-09
1.89673e-07
-6.62822e-09
1.95139e-07
-5.46505e-09
1.98931e-07
-3.79208e-09
2.00894e-07
-1.96383e-09
2.01133e-07
-2.38918e-10
1.99789e-07
1.34447e-09
1.9977e-07
1.89026e-11
2.02889e-07
-3.11909e-09
2.08161e-07
-5.27206e-09
2.1383e-07
-5.66858e-09
2.1852e-07
-4.69072e-09
2.21955e-07
-3.43475e-09
2.2458e-07
-2.62527e-09
2.26281e-07
-1.70102e-09
2.25867e-07
4.141e-10
2.22425e-07
3.44257e-09
2.15708e-07
6.71678e-09
2.0737e-07
8.33774e-09
1.99662e-07
7.70805e-09
1.9406e-07
5.60229e-09
1.90004e-07
4.05571e-09
1.85815e-07
4.18928e-09
1.8127e-07
4.54529e-09
1.77334e-07
3.93564e-09
1.74001e-07
3.33302e-09
1.70114e-07
3.88743e-09
1.64992e-07
5.12146e-09
1.59177e-07
5.81519e-09
1.53822e-07
5.35462e-09
1.48973e-07
4.8496e-09
1.43833e-07
5.14016e-09
1.37855e-07
5.97784e-09
1.31162e-07
6.69261e-09
1.24658e-07
6.50423e-09
1.20637e-07
4.02101e-09
1.18746e-07
1.89124e-09
1.16043e-07
2.70305e-09
1.12959e-07
3.08338e-09
1.07611e-07
5.34864e-09
9.8503e-08
9.10757e-09
8.61657e-08
1.23373e-08
7.36276e-08
1.25381e-08
6.37194e-08
9.90816e-09
5.74947e-08
6.22469e-09
5.4216e-08
3.2788e-09
5.08537e-08
3.36226e-09
4.56848e-08
5.16886e-09
3.86001e-08
7.08474e-09
3.25936e-08
6.0065e-09
2.96656e-08
2.92802e-09
3.00215e-08
-3.55895e-10
3.22222e-08
-2.20073e-09
3.52516e-08
-3.02939e-09
3.861e-08
-3.35845e-09
4.06755e-08
-2.06547e-09
4.17047e-08
-1.02914e-09
4.32968e-08
-1.59217e-09
4.5974e-08
-2.67716e-09
4.79853e-08
-2.01127e-09
4.97997e-08
-1.81447e-09
5.3292e-08
-3.49228e-09
6.08132e-08
-7.52119e-09
7.15207e-08
-1.07075e-08
8.30079e-08
-1.14873e-08
9.44165e-08
-1.14085e-08
1.07031e-07
-1.26141e-08
1.22458e-07
-1.54277e-08
1.4102e-07
-1.85615e-08
1.6196e-07
-2.09398e-08
1.8354e-07
-2.15804e-08
2.02969e-07
-1.94287e-08
2.16908e-07
-1.39389e-08
2.23368e-07
-6.46024e-09
-2.72339e-10
1.62831e-05
1.41872e-10
1.63055e-05
4.35326e-09
1.63204e-05
8.02395e-09
1.63269e-05
1.03112e-08
1.63368e-05
8.96567e-09
1.63503e-05
8.977e-09
1.63643e-05
9.94419e-09
1.63774e-05
1.07681e-08
1.639e-05
1.11904e-08
1.64028e-05
1.14524e-08
1.64157e-05
1.17513e-08
1.64287e-05
1.20661e-08
1.64415e-05
1.23402e-08
1.64543e-05
1.25682e-08
1.6467e-05
1.27706e-08
1.64796e-05
1.29595e-08
1.64922e-05
1.31356e-08
1.65046e-05
1.32981e-08
1.6517e-05
1.34487e-08
1.65292e-05
1.35899e-08
1.65414e-05
1.37232e-08
1.65534e-05
1.38498e-08
1.65654e-05
1.39702e-08
1.65773e-05
1.40852e-08
1.6589e-05
1.41956e-08
1.66007e-05
1.43019e-08
1.66122e-05
1.44045e-08
1.66237e-05
1.45038e-08
1.66351e-05
1.46003e-08
1.66463e-05
1.46941e-08
1.66575e-05
1.47857e-08
1.66686e-05
1.48751e-08
1.66796e-05
1.49627e-08
1.66905e-05
1.50486e-08
1.67012e-05
1.51329e-08
1.6712e-05
1.52157e-08
1.67226e-05
1.52973e-08
1.67331e-05
1.53777e-08
1.67435e-05
1.54571e-08
1.67539e-05
1.55358e-08
1.67642e-05
1.56139e-08
1.67744e-05
1.56916e-08
1.67845e-05
1.57689e-08
1.67945e-05
1.58458e-08
1.68045e-05
1.59221e-08
1.68144e-05
1.59974e-08
1.68242e-05
1.60715e-08
1.68339e-05
1.61441e-08
1.68435e-05
1.6215e-08
1.68531e-05
1.62841e-08
1.68626e-05
1.63518e-08
1.6872e-05
1.64181e-08
1.68813e-05
1.64837e-08
1.68906e-05
1.65489e-08
1.68998e-05
1.66142e-08
1.69089e-05
1.66798e-08
1.69179e-05
1.67459e-08
1.69269e-05
1.68126e-08
1.69358e-05
1.68797e-08
1.69446e-05
1.69473e-08
1.69533e-05
1.70151e-08
1.6962e-05
1.70832e-08
1.69706e-05
1.71513e-08
1.69791e-05
1.72197e-08
1.69876e-05
1.72883e-08
1.6996e-05
1.73574e-08
1.70043e-05
1.74271e-08
1.70126e-05
1.74975e-08
1.70208e-05
1.7569e-08
1.70289e-05
1.76416e-08
1.70369e-05
1.77157e-08
1.70449e-05
1.77915e-08
1.70528e-05
1.78693e-08
1.70607e-05
1.79495e-08
1.70685e-05
1.80324e-08
1.70762e-05
1.81185e-08
1.70839e-05
1.8208e-08
1.70915e-05
1.83017e-08
1.7099e-05
1.83999e-08
1.71065e-05
1.85035e-08
1.71139e-05
1.86132e-08
1.71213e-05
1.87297e-08
1.71286e-05
1.88542e-08
1.71358e-05
1.89876e-08
1.71429e-05
1.91313e-08
1.715e-05
1.92866e-08
1.7157e-05
1.94552e-08
1.7164e-05
1.96388e-08
1.71708e-05
1.98396e-08
1.71776e-05
2.00598e-08
1.71843e-05
2.03021e-08
1.71909e-05
2.05695e-08
1.71975e-05
2.08654e-08
1.72039e-05
2.11937e-08
1.72103e-05
2.15587e-08
1.72165e-05
2.19654e-08
1.72227e-05
2.24193e-08
1.72287e-05
2.29268e-08
1.72347e-05
2.34951e-08
1.72405e-05
2.41322e-08
1.72462e-05
2.48472e-08
1.72518e-05
2.56505e-08
1.72572e-05
2.65537e-08
1.72625e-05
2.757e-08
1.72676e-05
2.87141e-08
1.72725e-05
3.00029e-08
1.72773e-05
3.14553e-08
1.72818e-05
3.30929e-08
1.7286e-05
3.49402e-08
1.729e-05
3.70246e-08
1.72937e-05
3.93777e-08
1.7297e-05
4.20352e-08
1.72999e-05
4.50375e-08
1.73024e-05
4.84307e-08
1.73044e-05
5.22674e-08
1.73058e-05
5.66072e-08
1.73065e-05
6.1518e-08
1.73064e-05
6.70775e-08
1.73054e-05
7.33737e-08
1.73034e-05
8.05064e-08
1.73e-05
8.85895e-08
1.72953e-05
9.77521e-08
1.72887e-05
1.08141e-07
1.72801e-05
1.19921e-07
1.7269e-05
1.3328e-07
1.72549e-05
1.48427e-07
1.72373e-05
1.65598e-07
1.72155e-05
1.85052e-07
1.71885e-05
2.07077e-07
1.71555e-05
2.31985e-07
1.7115e-05
2.60114e-07
1.70657e-05
2.9182e-07
1.70058e-05
3.27471e-07
1.69333e-05
3.6744e-07
1.68456e-05
4.12086e-07
1.674e-05
4.61742e-07
1.66131e-05
5.16684e-07
1.64614e-05
5.77113e-07
1.62807e-05
6.43093e-07
1.60666e-05
7.14517e-07
1.58144e-05
7.91052e-07
1.55189e-05
8.72099e-07
1.5175e-05
9.56736e-07
1.47778e-05
1.04368e-06
1.43222e-05
1.13128e-06
1.38042e-05
1.21745e-06
1.32206e-05
1.29969e-06
1.25708e-05
1.37515e-06
1.18563e-05
1.43968e-06
1.11111e-05
1.48741e-06
1.04465e-05
1.50908e-06
9.70204e-06
1.47088e-06
8.67914e-06
1.37907e-06
7.34691e-06
1.29101e-06
5.68614e-06
1.21814e-06
3.66192e-06
1.08648e-06
2.36273e-06
9.8902e-07
1.29281e-06
1.63671e-06
1.0005e-06
4.90274e-07
8.75988e-07
1.64018e-07
6.92272e-07
2.08546e-07
5.83645e-07
1.40627e-07
5.3255e-07
7.1238e-08
5.12168e-07
2.68793e-08
4.97766e-07
1.48169e-08
4.85705e-07
1.04798e-08
4.77834e-07
6.70306e-09
4.66637e-07
1.24631e-08
4.45188e-07
2.53249e-08
4.33076e-07
1.65784e-08
4.30704e-07
5.93132e-09
4.31948e-07
2.54328e-10
4.36419e-07
-5.25409e-09
4.44755e-07
-1.12224e-08
4.57563e-07
-1.79099e-08
4.73954e-07
-2.29761e-08
4.91748e-07
-2.44224e-08
5.08646e-07
-2.23636e-08
5.23405e-07
-1.85509e-08
5.34824e-07
-1.3383e-08
5.41511e-07
-6.9258e-09
5.45525e-07
-2.66888e-09
5.52553e-07
-7.00908e-09
5.6431e-07
-1.48769e-08
5.78911e-07
-1.98731e-08
5.92198e-07
-1.89549e-08
6.0163e-07
-1.41226e-08
6.07618e-07
-9.42339e-09
6.12478e-07
-7.48513e-09
6.17571e-07
-6.79385e-09
6.20138e-07
-2.15341e-09
6.14091e-07
9.4897e-09
5.99812e-07
2.0996e-08
5.80648e-07
2.75017e-08
5.61535e-07
2.68214e-08
5.47208e-07
1.99286e-08
5.36977e-07
1.4287e-08
5.25285e-07
1.58812e-08
5.1155e-07
1.82805e-08
4.99077e-07
1.64091e-08
4.88364e-07
1.40461e-08
4.76824e-07
1.54269e-08
4.62066e-07
1.98795e-08
4.458e-07
2.20808e-08
4.2966e-07
2.14951e-08
4.13688e-07
2.08215e-08
3.98438e-07
2.03905e-08
3.83822e-07
2.05938e-08
3.68732e-07
2.17826e-08
3.53218e-07
2.20176e-08
3.3807e-07
1.91698e-08
3.22938e-07
1.70227e-08
3.07933e-07
1.77081e-08
2.94952e-07
1.60644e-08
2.80915e-07
1.93858e-08
2.60253e-07
2.97696e-08
2.323e-07
4.02897e-08
2.01949e-07
4.28899e-08
1.76461e-07
3.53955e-08
1.59371e-07
2.33155e-08
1.4948e-07
1.31693e-08
1.41115e-07
1.17277e-08
1.26864e-07
1.94198e-08
1.12598e-07
2.13508e-08
1.0097e-07
1.7634e-08
9.555e-08
8.34804e-09
9.57406e-08
-5.46467e-10
9.69562e-08
-3.41634e-09
9.87345e-08
-4.80772e-09
1.03489e-07
-8.11249e-09
1.10207e-07
-8.7844e-09
1.1284e-07
-3.66123e-09
9.96459e-08
1.16015e-08
9.54363e-08
1.53243e-09
9.73143e-08
-3.8893e-09
1.08421e-07
-1.29216e-08
1.20153e-07
-1.52234e-08
1.37403e-07
-2.47714e-08
1.59324e-07
-3.26292e-08
1.80241e-07
-3.24037e-08
1.98694e-07
-2.98621e-08
2.18809e-07
-3.27291e-08
2.44739e-07
-4.13572e-08
2.76461e-07
-5.02832e-08
3.13133e-07
-5.76127e-08
3.52458e-07
-6.09048e-08
3.8957e-07
-5.6541e-08
4.17124e-07
-4.14927e-08
4.3054e-07
-1.9876e-08
-1.20575e-09
1.62629e-05
1.68331e-09
1.62631e-05
4.16573e-09
1.62662e-05
4.88879e-09
1.62711e-05
5.44545e-09
1.62736e-05
6.42551e-09
1.62753e-05
7.34693e-09
1.62771e-05
8.05023e-09
1.62793e-05
8.59085e-09
1.62815e-05
9.02543e-09
1.62835e-05
9.39996e-09
1.62855e-05
9.74693e-09
1.62875e-05
1.0067e-08
1.62895e-05
1.03496e-08
1.62915e-05
1.05949e-08
1.62935e-05
1.0812e-08
1.62954e-05
1.10084e-08
1.62974e-05
1.11873e-08
1.62993e-05
1.135e-08
1.63013e-05
1.14983e-08
1.63032e-05
1.16346e-08
1.63052e-05
1.17607e-08
1.63072e-05
1.18777e-08
1.63091e-05
1.19867e-08
1.63111e-05
1.20886e-08
1.63131e-05
1.21844e-08
1.63152e-05
1.22746e-08
1.63172e-05
1.236e-08
1.63193e-05
1.24411e-08
1.63214e-05
1.25183e-08
1.63235e-05
1.2592e-08
1.63256e-05
1.26626e-08
1.63277e-05
1.27306e-08
1.63299e-05
1.27961e-08
1.63321e-05
1.28595e-08
1.63343e-05
1.2921e-08
1.63365e-05
1.29808e-08
1.63388e-05
1.30391e-08
1.63411e-05
1.30961e-08
1.63434e-05
1.3152e-08
1.63457e-05
1.32071e-08
1.63481e-05
1.32613e-08
1.63504e-05
1.33148e-08
1.63528e-05
1.33676e-08
1.63553e-05
1.34196e-08
1.63577e-05
1.34707e-08
1.63602e-05
1.35209e-08
1.63627e-05
1.35699e-08
1.63652e-05
1.36178e-08
1.63678e-05
1.36646e-08
1.63703e-05
1.37102e-08
1.63729e-05
1.37547e-08
1.63756e-05
1.37985e-08
1.63782e-05
1.38416e-08
1.63809e-05
1.38844e-08
1.63836e-05
1.39271e-08
1.63863e-05
1.39701e-08
1.6389e-05
1.40134e-08
1.63918e-05
1.40573e-08
1.63945e-05
1.41017e-08
1.63973e-05
1.41466e-08
1.64002e-05
1.41922e-08
1.6403e-05
1.42382e-08
1.64059e-05
1.42847e-08
1.64088e-05
1.43317e-08
1.64117e-05
1.43794e-08
1.64146e-05
1.44278e-08
1.64175e-05
1.4477e-08
1.64205e-05
1.45274e-08
1.64235e-05
1.4579e-08
1.64265e-05
1.46322e-08
1.64295e-05
1.46871e-08
1.64326e-05
1.47442e-08
1.64357e-05
1.48036e-08
1.64387e-05
1.48659e-08
1.64418e-05
1.49312e-08
1.6445e-05
1.50002e-08
1.64481e-05
1.50732e-08
1.64512e-05
1.51507e-08
1.64544e-05
1.52335e-08
1.64576e-05
1.53222e-08
1.64608e-05
1.54177e-08
1.6464e-05
1.55209e-08
1.64672e-05
1.5633e-08
1.64704e-05
1.57552e-08
1.64737e-05
1.58889e-08
1.64769e-05
1.60358e-08
1.64802e-05
1.61975e-08
1.64835e-05
1.6376e-08
1.64867e-05
1.65736e-08
1.649e-05
1.67927e-08
1.64933e-05
1.70362e-08
1.64965e-05
1.73072e-08
1.64998e-05
1.76092e-08
1.6503e-05
1.79463e-08
1.65063e-05
1.83228e-08
1.65095e-05
1.8744e-08
1.65127e-05
1.92155e-08
1.65159e-05
1.97439e-08
1.6519e-05
2.03363e-08
1.65222e-05
2.10009e-08
1.65253e-05
2.17471e-08
1.65283e-05
2.25851e-08
1.65314e-05
2.35266e-08
1.65343e-05
2.45846e-08
1.65373e-05
2.57739e-08
1.65402e-05
2.7111e-08
1.6543e-05
2.86145e-08
1.65458e-05
3.03053e-08
1.65485e-05
3.22068e-08
1.65512e-05
3.43456e-08
1.65538e-05
3.67513e-08
1.65564e-05
3.94575e-08
1.6559e-05
4.25019e-08
1.65615e-05
4.59269e-08
1.65639e-05
4.97804e-08
1.65664e-05
5.41161e-08
1.6569e-05
5.89946e-08
1.65715e-05
6.4484e-08
1.65743e-05
7.06611e-08
1.65772e-05
7.76119e-08
1.65803e-05
8.54336e-08
1.65838e-05
9.42352e-08
1.65878e-05
1.0414e-07
1.65925e-05
1.15284e-07
1.65979e-05
1.27824e-07
1.66044e-05
1.41934e-07
1.66122e-05
1.57807e-07
1.66216e-05
1.75663e-07
1.66329e-05
1.95746e-07
1.66466e-05
2.1833e-07
1.6663e-05
2.43719e-07
1.66825e-05
2.72251e-07
1.67057e-05
3.043e-07
1.67329e-05
3.40277e-07
1.67643e-05
3.80628e-07
1.68002e-05
4.25833e-07
1.68405e-05
4.76398e-07
1.68848e-05
5.32847e-07
1.69322e-05
5.95702e-07
1.69812e-05
6.65459e-07
1.70298e-05
7.42545e-07
1.70746e-05
8.2728e-07
1.71115e-05
9.19817e-07
1.71351e-05
1.02008e-06
1.71387e-05
1.1277e-06
1.71142e-05
1.24193e-06
1.70523e-05
1.36161e-06
1.69424e-05
1.48507e-06
1.67718e-05
1.61025e-06
1.65242e-05
1.73505e-06
1.61754e-05
1.85781e-06
1.56679e-05
1.97845e-06
1.49496e-05
2.09734e-06
1.40123e-05
2.22826e-06
1.28298e-05
2.40066e-06
1.12817e-05
2.6346e-06
9.35384e-06
2.91688e-06
7.39085e-06
3.5997e-06
5.12281e-06
2.75832e-06
3.22495e-06
2.06187e-06
1.70334e-06
1.73016e-06
1.06835e-06
7.75615e-07
9.78442e-07
1.61147e-07
9.05567e-07
9.9754e-08
7.65046e-07
1.55337e-07
6.72179e-07
1.03347e-07
6.36416e-07
4.24663e-08
6.2173e-07
2.71488e-08
5.49874e-07
9.7181e-08
5.25404e-07
4.10484e-08
5.37039e-07
-5.70373e-09
5.55509e-07
-1.82155e-08
5.78218e-07
-2.79632e-08
5.97127e-07
-3.01308e-08
6.18249e-07
-3.90319e-08
6.40561e-07
-4.5288e-08
6.64444e-07
-4.83056e-08
6.91582e-07
-4.95015e-08
7.25492e-07
-5.24611e-08
7.62761e-07
-5.06518e-08
8.06727e-07
-5.08924e-08
8.25902e-07
-2.18436e-08
8.34074e-07
-1.5181e-08
8.54553e-07
-3.53557e-08
8.81295e-07
-4.66149e-08
9.04383e-07
-4.2043e-08
9.18321e-07
-2.80605e-08
9.24905e-07
-1.60082e-08
9.32244e-07
-1.48243e-08
9.45573e-07
-2.01223e-08
9.59698e-07
-1.62785e-08
9.64511e-07
4.67665e-09
9.55459e-07
3.00482e-08
9.35321e-07
4.76393e-08
9.12462e-07
4.96806e-08
8.96179e-07
3.62121e-08
8.8632e-07
2.41451e-08
8.72719e-07
2.94822e-08
8.53378e-07
3.76216e-08
8.35793e-07
3.39944e-08
8.2347e-07
2.63689e-08
8.10738e-07
2.81586e-08
7.87579e-07
4.30394e-08
7.52763e-07
5.68967e-08
7.14067e-07
6.01909e-08
6.82916e-07
5.19727e-08
6.61408e-07
4.18983e-08
6.46145e-07
3.58564e-08
6.27254e-07
4.06738e-08
6.01805e-07
4.74666e-08
5.70018e-07
5.09572e-08
5.38963e-07
4.80778e-08
5.1912e-07
3.75507e-08
5.12951e-07
2.22338e-08
4.95648e-07
3.6688e-08
4.54377e-07
7.10411e-08
3.93152e-07
1.01514e-07
3.38567e-07
9.74756e-08
2.97289e-07
7.66731e-08
2.69641e-07
5.09636e-08
2.58126e-07
2.46839e-08
2.58878e-07
1.09766e-08
2.46776e-07
3.15209e-08
2.15057e-07
5.30698e-08
1.84849e-07
4.78427e-08
1.71906e-07
2.12904e-08
1.79881e-07
-8.52139e-09
1.97685e-07
-2.12203e-08
2.02297e-07
-9.41903e-09
2.11275e-07
-1.70914e-08
2.35381e-07
-3.28904e-08
2.63649e-07
-3.19288e-08
1.67442e-07
1.07808e-07
9.8413e-08
7.05616e-08
8.50592e-08
9.46447e-09
1.26861e-07
-5.47238e-08
1.76881e-07
-6.52432e-08
1.91086e-07
-3.89763e-08
2.05108e-07
-4.66505e-08
2.3256e-07
-5.98562e-08
2.64786e-07
-6.20881e-08
2.89386e-07
-5.73287e-08
3.14488e-07
-6.64592e-08
3.45256e-07
-8.10511e-08
3.85439e-07
-9.77962e-08
4.35043e-07
-1.10508e-07
4.89503e-07
-1.11001e-07
5.36664e-07
-8.8654e-08
5.57641e-07
-4.08529e-08
4.33595e-10
1.6273e-05
4.22656e-10
1.62749e-05
2.23898e-09
1.62759e-05
3.91783e-09
1.62764e-05
4.97984e-09
1.62772e-05
5.57034e-09
1.62785e-05
6.0891e-09
1.62799e-05
6.64277e-09
1.62813e-05
7.18119e-09
1.62827e-05
7.65009e-09
1.6284e-05
8.04827e-09
1.62854e-05
8.39807e-09
1.62867e-05
8.71458e-09
1.62881e-05
9.0006e-09
1.62894e-05
9.25616e-09
1.62907e-05
9.48419e-09
1.62921e-05
9.68916e-09
1.62934e-05
9.87466e-09
1.62947e-05
1.00431e-08
1.6296e-05
1.01964e-08
1.62973e-05
1.03365e-08
1.62986e-05
1.04652e-08
1.62999e-05
1.05839e-08
1.63012e-05
1.06937e-08
1.63024e-05
1.07956e-08
1.63037e-05
1.08907e-08
1.6305e-05
1.09797e-08
1.63063e-05
1.10633e-08
1.63076e-05
1.11421e-08
1.63089e-05
1.12167e-08
1.63102e-05
1.12875e-08
1.63115e-05
1.13549e-08
1.63129e-05
1.14193e-08
1.63142e-05
1.14811e-08
1.63155e-05
1.15404e-08
1.63168e-05
1.15976e-08
1.63181e-05
1.16529e-08
1.63195e-05
1.17065e-08
1.63208e-05
1.17585e-08
1.63222e-05
1.18091e-08
1.63235e-05
1.18587e-08
1.63249e-05
1.19073e-08
1.63262e-05
1.19551e-08
1.63276e-05
1.20022e-08
1.6329e-05
1.20488e-08
1.63303e-05
1.20946e-08
1.63317e-05
1.21398e-08
1.63331e-05
1.2184e-08
1.63345e-05
1.22273e-08
1.63359e-05
1.22694e-08
1.63373e-05
1.23104e-08
1.63387e-05
1.23504e-08
1.63401e-05
1.23894e-08
1.63415e-05
1.24277e-08
1.63429e-05
1.24655e-08
1.63444e-05
1.25032e-08
1.63458e-05
1.2541e-08
1.63472e-05
1.25791e-08
1.63487e-05
1.26176e-08
1.63501e-05
1.26568e-08
1.63516e-05
1.26965e-08
1.6353e-05
1.27367e-08
1.63545e-05
1.27776e-08
1.63559e-05
1.28192e-08
1.63574e-05
1.28614e-08
1.63589e-05
1.29044e-08
1.63604e-05
1.29482e-08
1.63618e-05
1.29932e-08
1.63633e-05
1.30394e-08
1.63648e-05
1.30871e-08
1.63663e-05
1.31366e-08
1.63678e-05
1.31881e-08
1.63693e-05
1.32419e-08
1.63708e-05
1.32986e-08
1.63723e-05
1.33583e-08
1.63738e-05
1.34216e-08
1.63754e-05
1.34891e-08
1.63769e-05
1.35611e-08
1.63784e-05
1.36385e-08
1.63799e-05
1.37218e-08
1.63814e-05
1.3812e-08
1.63829e-05
1.391e-08
1.63844e-05
1.40169e-08
1.63859e-05
1.41339e-08
1.63874e-05
1.42625e-08
1.63889e-05
1.44041e-08
1.63904e-05
1.45606e-08
1.63918e-05
1.47339e-08
1.63933e-05
1.49262e-08
1.63947e-05
1.51401e-08
1.63961e-05
1.53783e-08
1.63975e-05
1.5644e-08
1.63989e-05
1.59406e-08
1.64002e-05
1.62721e-08
1.64015e-05
1.66428e-08
1.64028e-05
1.70579e-08
1.6404e-05
1.75228e-08
1.64052e-05
1.80439e-08
1.64063e-05
1.86282e-08
1.64073e-05
1.92837e-08
1.64083e-05
2.00193e-08
1.64092e-05
2.08449e-08
1.641e-05
2.17718e-08
1.64108e-05
2.28125e-08
1.64114e-05
2.39811e-08
1.64118e-05
2.52933e-08
1.64122e-05
2.67667e-08
1.64124e-05
2.84211e-08
1.64124e-05
3.02784e-08
1.64123e-05
3.23633e-08
1.64119e-05
3.47035e-08
1.64113e-05
3.73298e-08
1.64105e-05
4.02766e-08
1.64094e-05
4.35824e-08
1.64081e-05
4.72903e-08
1.64064e-05
5.14483e-08
1.64044e-05
5.61096e-08
1.64021e-05
6.1334e-08
1.63993e-05
6.71875e-08
1.63963e-05
7.37437e-08
1.63928e-05
8.10843e-08
1.63889e-05
8.92995e-08
1.63847e-05
9.84893e-08
1.638e-05
1.08764e-07
1.63751e-05
1.20244e-07
1.63698e-05
1.33064e-07
1.63644e-05
1.47369e-07
1.63589e-05
1.63318e-07
1.63535e-05
1.81084e-07
1.63484e-05
2.00855e-07
1.63439e-05
2.22833e-07
1.63404e-05
2.47235e-07
1.63383e-05
2.74295e-07
1.63383e-05
3.04263e-07
1.63412e-05
3.37403e-07
1.63478e-05
3.74e-07
1.63593e-05
4.14356e-07
1.63769e-05
4.58793e-07
1.64021e-05
5.07658e-07
1.64365e-05
5.61328e-07
1.64817e-05
6.20209e-07
1.65395e-05
6.84746e-07
1.66114e-05
7.55426e-07
1.66984e-05
8.32786e-07
1.68011e-05
9.17416e-07
1.69188e-05
1.00995e-06
1.70497e-05
1.11109e-06
1.71897e-05
1.2216e-06
1.73324e-05
1.34237e-06
1.74682e-05
1.47447e-06
1.7584e-05
1.61925e-06
1.76638e-05
1.77801e-06
1.76901e-05
1.95211e-06
1.76431e-05
2.14431e-06
1.75092e-05
2.36224e-06
1.7294e-05
2.61583e-06
1.70079e-05
2.92066e-06
1.66797e-05
3.24512e-06
1.66155e-05
3.66383e-06
1.54606e-05
3.91328e-06
1.33984e-05
4.12405e-06
1.06941e-05
4.43445e-06
7.66711e-06
3.80263e-06
4.99698e-06
2.83128e-06
2.97831e-06
2.11843e-06
1.62852e-06
1.50512e-06
7.73531e-07
9.58336e-07
3.4076e-07
4.75237e-07
1.39284e-07
2.28625e-07
1.09931e-07
1.26534e-07
1.89388e-07
-3.84088e-08
3.66926e-07
-1.83241e-07
5.13086e-07
-1.64376e-07
6.01127e-07
-1.16004e-07
6.46294e-07
-7.52983e-08
6.61323e-07
-5.40602e-08
6.65774e-07
-4.9739e-08
6.74741e-07
-5.72733e-08
6.93149e-07
-6.79088e-08
7.22383e-07
-8.16949e-08
7.67926e-07
-9.61954e-08
8.72192e-07
-1.55159e-07
1.05623e-06
-2.0588e-07
1.11152e-06
-7.04757e-08
1.1171e-06
-4.09292e-08
1.11446e-06
-4.39758e-08
1.11269e-06
-4.02727e-08
1.12255e-06
-3.79219e-08
1.13629e-06
-2.97457e-08
1.15186e-06
-3.04007e-08
1.18297e-06
-5.12304e-08
1.22613e-06
-5.94399e-08
1.27372e-06
-4.29056e-08
1.31122e-06
-7.45851e-09
1.28532e-06
7.35411e-08
1.25445e-06
8.05535e-08
1.24249e-06
4.81675e-08
1.24808e-06
1.85562e-08
1.25838e-06
1.91827e-08
1.25416e-06
4.18429e-08
1.24234e-06
4.58171e-08
1.23473e-06
3.39766e-08
1.22926e-06
3.36272e-08
1.20979e-06
6.25062e-08
1.16638e-06
1.0031e-07
1.11745e-06
1.09124e-07
1.07249e-06
9.69328e-08
1.0301e-06
8.42814e-08
9.93632e-07
7.23285e-08
9.81324e-07
5.29818e-08
9.85241e-07
4.35494e-08
9.78268e-07
5.79309e-08
9.48429e-07
7.79168e-08
9.11935e-07
7.40442e-08
8.85277e-07
4.88915e-08
8.71862e-07
5.01032e-08
8.43139e-07
9.97643e-08
7.16026e-07
2.28627e-07
6.36673e-07
1.7683e-07
5.75434e-07
1.37911e-07
5.17951e-07
1.08446e-07
4.67733e-07
7.49026e-08
4.40172e-07
3.85374e-08
4.40483e-07
3.12098e-08
4.07262e-07
8.6291e-08
3.49583e-07
1.05522e-07
3.31774e-07
3.90987e-08
3.72926e-07
-4.96732e-08
4.71157e-07
-1.19451e-07
5.04836e-07
-4.30982e-08
4.95823e-07
-8.07839e-09
4.9473e-07
-3.17978e-08
4.70091e-07
-7.28958e-09
3.9412e-07
1.8378e-07
3.5783e-07
1.06851e-07
4.53054e-07
-8.57597e-08
6.40424e-07
-2.42093e-07
6.86318e-07
-1.11138e-07
4.82609e-07
1.64733e-07
3.32631e-07
1.03327e-07
2.7604e-07
-3.2655e-09
3.168e-07
-1.02848e-07
4.13584e-07
-1.54113e-07
4.38362e-07
-9.12368e-08
4.52592e-07
-9.52807e-08
4.83373e-07
-1.28577e-07
5.47863e-07
-1.74999e-07
6.58374e-07
-2.21512e-07
7.44989e-07
-1.75269e-07
7.58857e-07
-5.47207e-08
3.27471e-08
1.6271e-05
8.47178e-10
1.62707e-05
2.61962e-09
1.62712e-05
3.34762e-09
1.62725e-05
3.70287e-09
1.62738e-05
4.24363e-09
1.62751e-05
4.86265e-09
1.62763e-05
5.42661e-09
1.62776e-05
5.90404e-09
1.62789e-05
6.31684e-09
1.62802e-05
6.68698e-09
1.62816e-05
7.02465e-09
1.6283e-05
7.3323e-09
1.62844e-05
7.61034e-09
1.62858e-05
7.86036e-09
1.62872e-05
8.08548e-09
1.62886e-05
8.28915e-09
1.629e-05
8.47416e-09
1.62914e-05
8.64261e-09
1.62928e-05
8.79633e-09
1.62942e-05
8.93699e-09
1.62956e-05
9.06614e-09
1.6297e-05
9.18511e-09
1.62984e-05
9.29504e-09
1.62998e-05
9.39695e-09
1.63012e-05
9.49171e-09
1.63026e-05
9.58011e-09
1.6304e-05
9.66285e-09
1.63054e-05
9.74053e-09
1.63068e-05
9.8137e-09
1.63082e-05
9.88284e-09
1.63096e-05
9.94837e-09
1.6311e-05
1.00107e-08
1.63124e-05
1.00701e-08
1.63138e-05
1.0127e-08
1.63152e-05
1.01815e-08
1.63167e-05
1.0234e-08
1.63181e-05
1.02847e-08
1.63195e-05
1.03337e-08
1.63209e-05
1.03813e-08
1.63224e-05
1.04276e-08
1.63238e-05
1.04727e-08
1.63252e-05
1.05169e-08
1.63267e-05
1.05601e-08
1.63281e-05
1.06023e-08
1.63296e-05
1.06437e-08
1.6331e-05
1.06841e-08
1.63325e-05
1.07235e-08
1.6334e-05
1.0762e-08
1.63354e-05
1.07995e-08
1.63369e-05
1.08361e-08
1.63384e-05
1.08719e-08
1.63399e-05
1.0907e-08
1.63414e-05
1.09416e-08
1.63428e-05
1.0976e-08
1.63443e-05
1.10102e-08
1.63458e-05
1.10444e-08
1.63473e-05
1.10789e-08
1.63488e-05
1.11137e-08
1.63503e-05
1.11488e-08
1.63519e-05
1.11844e-08
1.63534e-05
1.12205e-08
1.63549e-05
1.12571e-08
1.63564e-05
1.12943e-08
1.6358e-05
1.13322e-08
1.63595e-05
1.13709e-08
1.6361e-05
1.14106e-08
1.63626e-05
1.14515e-08
1.63641e-05
1.14937e-08
1.63657e-05
1.15375e-08
1.63672e-05
1.15831e-08
1.63688e-05
1.1631e-08
1.63703e-05
1.16813e-08
1.63719e-05
1.17345e-08
1.63735e-05
1.17911e-08
1.6375e-05
1.18514e-08
1.63766e-05
1.1916e-08
1.63782e-05
1.19856e-08
1.63798e-05
1.20608e-08
1.63813e-05
1.21424e-08
1.63829e-05
1.22314e-08
1.63845e-05
1.23286e-08
1.63861e-05
1.24353e-08
1.63877e-05
1.25528e-08
1.63892e-05
1.26825e-08
1.63908e-05
1.28262e-08
1.63924e-05
1.29855e-08
1.6394e-05
1.31627e-08
1.63955e-05
1.336e-08
1.63971e-05
1.358e-08
1.63986e-05
1.38257e-08
1.64002e-05
1.41003e-08
1.64017e-05
1.44075e-08
1.64032e-05
1.47514e-08
1.64047e-05
1.51367e-08
1.64062e-05
1.55685e-08
1.64077e-05
1.60527e-08
1.64092e-05
1.65958e-08
1.64106e-05
1.72052e-08
1.6412e-05
1.7889e-08
1.64133e-05
1.86564e-08
1.64147e-05
1.95178e-08
1.6416e-05
2.04846e-08
1.64172e-05
2.15696e-08
1.64184e-05
2.27874e-08
1.64195e-05
2.41537e-08
1.64206e-05
2.56867e-08
1.64216e-05
2.74062e-08
1.64226e-05
2.93345e-08
1.64234e-05
3.14965e-08
1.64242e-05
3.39198e-08
1.64249e-05
3.66352e-08
1.64255e-05
3.96771e-08
1.6426e-05
4.30835e-08
1.64264e-05
4.68968e-08
1.64267e-05
5.11641e-08
1.64269e-05
5.59373e-08
1.64269e-05
6.12743e-08
1.64269e-05
6.72388e-08
1.64267e-05
7.39013e-08
1.64265e-05
8.13392e-08
1.64261e-05
8.96381e-08
1.64257e-05
9.88915e-08
1.64253e-05
1.09202e-07
1.64248e-05
1.20682e-07
1.64244e-05
1.33453e-07
1.64242e-05
1.47648e-07
1.64241e-05
1.63409e-07
1.64243e-05
1.80891e-07
1.64249e-05
2.00258e-07
1.6426e-05
2.21687e-07
1.64279e-05
2.45364e-07
1.64307e-05
2.71484e-07
1.64347e-05
3.00251e-07
1.64402e-05
3.31879e-07
1.64477e-05
3.66584e-07
1.64574e-05
4.0459e-07
1.64701e-05
4.46121e-07
1.64863e-05
4.91405e-07
1.6507e-05
5.40671e-07
1.65331e-05
5.94154e-07
1.65657e-05
6.52097e-07
1.66064e-05
7.14762e-07
1.66567e-05
7.82447e-07
1.67186e-05
8.55505e-07
1.67942e-05
9.3438e-07
1.68856e-05
1.01964e-06
1.69952e-05
1.11205e-06
1.7125e-05
1.21258e-06
1.7277e-05
1.32248e-06
1.74529e-05
1.44334e-06
1.76538e-05
1.57709e-06
1.78796e-05
1.72626e-06
1.81298e-05
1.8941e-06
1.84073e-05
2.08483e-06
1.87219e-05
2.30115e-06
1.90949e-05
2.54773e-06
1.95197e-05
2.82031e-06
2.00669e-05
3.11666e-06
2.05396e-05
3.4405e-06
2.09588e-05
3.70487e-06
2.14753e-05
3.91797e-06
2.13582e-05
3.9197e-06
2.04222e-05
3.76732e-06
1.90327e-05
3.50797e-06
1.73595e-05
3.17833e-06
1.56258e-05
2.69196e-06
1.40491e-05
2.05196e-06
1.27368e-05
1.5409e-06
1.16396e-05
1.22372e-06
1.0631e-05
9.7026e-07
9.7183e-06
7.29424e-07
8.97638e-06
5.77542e-07
8.33862e-06
5.21761e-07
7.75404e-06
5.09279e-07
7.19174e-06
5.0824e-07
6.633e-06
5.09005e-07
6.06382e-06
5.11907e-07
5.47702e-06
5.18891e-07
4.86577e-06
5.29553e-07
4.21641e-06
5.53159e-07
3.5188e-06
5.42451e-07
2.78543e-06
5.27488e-07
2.00069e-06
7.1427e-07
1.44391e-06
5.15846e-07
1.1321e-06
2.67835e-07
1.0157e-06
7.6133e-08
1.08891e-06
-1.11134e-07
1.30105e-06
-2.41886e-07
1.48746e-06
-2.16815e-07
1.54235e-06
-1.06112e-07
1.48583e-06
-2.92176e-09
1.38424e-06
5.86805e-08
1.83437e-06
-4.57582e-07
1.74163e-06
1.6628e-07
1.65307e-06
1.69114e-07
1.63431e-06
6.69227e-08
1.67299e-06
-2.01242e-08
1.70178e-06
-9.60114e-09
1.65594e-06
8.76791e-08
1.62037e-06
8.13873e-08
1.61614e-06
3.82042e-08
1.64565e-06
4.11395e-09
1.69791e-06
1.02529e-08
1.70084e-06
9.73798e-08
1.6462e-06
1.63757e-07
1.58424e-06
1.58896e-07
1.53887e-06
1.29648e-07
1.52018e-06
9.10174e-08
1.526e-06
4.717e-08
1.5546e-06
1.49429e-08
1.59803e-06
1.44997e-08
1.6383e-06
3.76471e-08
1.63665e-06
7.5694e-08
1.62651e-06
5.90325e-08
1.63592e-06
4.06981e-08
1.63992e-06
9.57591e-08
1.52504e-06
3.43507e-07