/*--------------------------------*- C++ -*----------------------------------*\
| =========                 |                                                 |
| \\      /  F ield         | OpenFOAM: The Open Source CFD Toolbox           |
|  \\    /   O peration     | Version:  2406                                  |
|   \\  /    A nd           | Website:  www.openfoam.com                      |
|    \\/     M anipulation  |                                                 |
\*---------------------------------------------------------------------------*/
FoamFile
{
    version     2.0;
    format      ascii;
    arch        "LSB;label=32;scalar=64";
    class       volVectorField;
    location    "0.2";
    object      U;
}
// * * * * * * * * * * * * * * * * * * * * * * * * * * * * * * * * * * * * * //

dimensions      [0 1 -1 0 0 0 0];

internalField   nonuniform List<vector> 
6250
(
(32.0091 0.0169135 0)
(28.97 0.0546824 0)
(17.8266 0.0616172 0)
(17.2324 0.0543826 0)
(20.0737 0.0532024 0)
(21.0099 0.0581651 0)
(20.4587 0.0629862 0)
(19.9735 0.065282 0)
(19.931 0.066414 0)
(20.0298 0.0676756 0)
(20.0512 0.0691189 0)
(20.0016 0.070387 0)
(19.9479 0.0713648 0)
(19.9133 0.0721501 0)
(19.887 0.0728373 0)
(19.8581 0.0734478 0)
(19.8255 0.0739727 0)
(19.7923 0.0744117 0)
(19.7599 0.0747765 0)
(19.7278 0.0750797 0)
(19.6956 0.0753304 0)
(19.6632 0.075535 0)
(19.6308 0.0756991 0)
(19.5983 0.0758281 0)
(19.5659 0.0759265 0)
(19.5335 0.0759987 0)
(19.501 0.0760482 0)
(19.4685 0.076078 0)
(19.4361 0.0760907 0)
(19.4036 0.0760884 0)
(19.3712 0.0760728 0)
(19.3387 0.0760454 0)
(19.3063 0.0760074 0)
(19.2739 0.0759601 0)
(19.2415 0.0759045 0)
(19.2091 0.0758415 0)
(19.1767 0.0757719 0)
(19.1443 0.0756965 0)
(19.1119 0.0756167 0)
(19.0795 0.0755341 0)
(19.0472 0.0754506 0)
(19.0148 0.0753678 0)
(18.9825 0.0752869 0)
(18.9501 0.0752078 0)
(18.9178 0.0751294 0)
(18.8854 0.0750497 0)
(18.8531 0.0749662 0)
(18.8207 0.0748766 0)
(18.7884 0.0747793 0)
(18.7561 0.0746739 0)
(18.7238 0.074561 0)
(18.6915 0.0744425 0)
(18.6592 0.0743202 0)
(18.6269 0.0741963 0)
(18.5946 0.0740723 0)
(18.5624 0.073949 0)
(18.5302 0.0738267 0)
(18.498 0.0737051 0)
(18.4657 0.0735838 0)
(18.4335 0.0734626 0)
(18.4013 0.0733416 0)
(18.3691 0.0732209 0)
(18.3369 0.0731011 0)
(18.3048 0.0729825 0)
(18.2726 0.0728657 0)
(18.2404 0.0727509 0)
(18.2082 0.0726384 0)
(18.176 0.0725284 0)
(18.1438 0.0724213 0)
(18.1116 0.0723173 0)
(18.0794 0.0722169 0)
(18.0472 0.0721208 0)
(18.015 0.0720295 0)
(17.9827 0.0719441 0)
(17.9504 0.0718655 0)
(17.9181 0.0717947 0)
(17.8858 0.0717325 0)
(17.8535 0.0716796 0)
(17.8211 0.0716367 0)
(17.7886 0.0716041 0)
(17.7561 0.0715825 0)
(17.7235 0.0715724 0)
(17.6909 0.0715745 0)
(17.6582 0.0715903 0)
(17.6254 0.0716212 0)
(17.5925 0.0716696 0)
(17.5595 0.0717381 0)
(17.5263 0.0718303 0)
(17.493 0.07195 0)
(17.4596 0.0721018 0)
(17.4259 0.0722907 0)
(17.3921 0.0725227 0)
(17.358 0.0728039 0)
(17.3236 0.0731414 0)
(17.2889 0.0735431 0)
(17.2538 0.074018 0)
(17.2183 0.074576 0)
(17.1823 0.0752282 0)
(17.1458 0.0759875 0)
(17.1087 0.076868 0)
(17.0709 0.0778858 0)
(17.0323 0.0790591 0)
(16.9928 0.0804081 0)
(16.9524 0.0819556 0)
(16.9107 0.0837271 0)
(16.8678 0.0857513 0)
(16.8234 0.0880603 0)
(16.7773 0.0906904 0)
(16.7294 0.0936819 0)
(16.6793 0.0970804 0)
(16.6269 0.100937 0)
(16.5717 0.105309 0)
(16.5135 0.110261 0)
(16.4518 0.115864 0)
(16.3862 0.1222 0)
(16.3162 0.129358 0)
(16.2412 0.137438 0)
(16.1606 0.146551 0)
(16.0737 0.156819 0)
(15.9796 0.168377 0)
(15.8776 0.181371 0)
(15.7664 0.19596 0)
(15.6452 0.212315 0)
(15.5124 0.230618 0)
(15.3669 0.25106 0)
(15.207 0.273835 0)
(15.031 0.299142 0)
(14.837 0.327172 0)
(14.623 0.358103 0)
(14.3868 0.392088 0)
(14.1258 0.429239 0)
(13.8377 0.46961 0)
(13.5197 0.513175 0)
(13.1689 0.559797 0)
(12.7827 0.609194 0)
(12.3581 0.660895 0)
(11.8926 0.71419 0)
(11.3838 0.768038 0)
(10.8295 0.82105 0)
(10.2282 0.871468 0)
(9.57885 0.917153 0)
(8.88157 0.95556 0)
(8.13754 0.983763 0)
(7.34934 0.998512 0)
(6.52123 0.996356 0)
(5.65909 0.973949 0)
(4.77141 0.928176 0)
(3.86709 0.8606 0)
(2.9594 0.762633 0)
(2.11055 0.754522 0)
(0.994027 1.04925 0)
(0.00663811 0.318346 0)
(-0.908625 -1.25886 0)
(-0.568152 -2.70206 0)
(-1.03075 -4.22931 0)
(0.386465 -5.2561 0)
(2.2107 -1.4275 0)
(0.498736 0.737024 0)
(0.416898 0.30538 0)
(0.360829 0.0901827 0)
(0.307276 0.01405 0)
(0.275941 0.00832763 0)
(0.244654 0.00333584 0)
(0.22685 -0.00657069 0)
(0.223318 -0.0112622 0)
(0.225163 -0.0110555 0)
(0.227541 -0.0083827 0)
(0.227681 -0.00319088 0)
(0.224155 0.00258566 0)
(0.218483 0.00470419 0)
(0.21321 0.00483676 0)
(0.21002 0.00459683 0)
(0.20952 0.00373676 0)
(0.21182 0.00216828 0)
(0.216956 0.000369535 0)
(0.224517 -0.00074897 0)
(0.233053 -0.000456664 0)
(0.240852 0.00114829 0)
(0.246794 0.00324697 0)
(0.25041 0.00498235 0)
(0.25155 0.00563838 0)
(0.250428 0.00457743 0)
(0.249235 0.00175035 0)
(0.251148 -0.00137492 0)
(0.256694 -0.003465 0)
(0.263868 -0.00415002 0)
(0.270496 -0.00398522 0)
(0.275592 -0.00374293 0)
(0.27943 -0.0037865 0)
(0.282329 -0.00351362 0)
(0.283385 -0.00183192 0)
(0.280921 0.00108242 0)
(0.274255 0.00335502 0)
(0.264438 0.00412984 0)
(0.254144 0.0037347 0)
(0.245781 0.00253972 0)
(0.239822 0.00189366 0)
(0.234819 0.00259825 0)
(0.229463 0.00312772 0)
(0.224113 0.00214104 0)
(0.219636 0.000645287 0)
(0.215233 -0.000292536 0)
(0.209619 -0.000532158 0)
(0.20263 -0.000770094 0)
(0.195485 -0.000746024 0)
(0.189192 0.000410151 0)
(0.1831 0.00201469 0)
(0.176257 0.00298877 0)
(0.168151 0.00326815 0)
(0.159708 0.00261895 0)
(0.153538 0.000641666 0)
(0.148663 -0.00172889 0)
(0.146579 -0.0017594 0)
(0.144027 -0.000957282 0)
(0.138748 0.000240244 0)
(0.129527 0.00248545 0)
(0.115619 0.00498024 0)
(0.0994379 0.00631894 0)
(0.0848903 0.00585415 0)
(0.0748752 0.00463289 0)
(0.0694251 0.00400094 0)
(0.0658181 0.00561419 0)
(0.0607245 0.00814678 0)
(0.0528385 0.00849399 0)
(0.044115 0.00629077 0)
(0.0381197 0.0029643 0)
(0.0366831 7.05259e-05 0)
(0.0386665 -0.00183952 0)
(0.0422004 -0.00344815 0)
(0.0462814 -0.00484164 0)
(0.0496525 -0.00532448 0)
(0.0516097 -0.00385761 0)
(0.0531007 -0.00112051 0)
(0.0555709 -0.000989125 0)
(0.0584032 -0.0010031 0)
(0.0606297 -0.00138395 0)
(0.0637584 -0.00235921 0)
(0.0705655 -0.00467473 0)
(0.0822282 -0.00611141 0)
(0.0963763 -0.00584024 0)
(0.110662 -0.00550478 0)
(0.125429 -0.00671254 0)
(0.142758 -0.00933208 0)
(0.164046 -0.0120853 0)
(0.189078 -0.0140527 0)
(0.216282 -0.014587 0)
(0.242712 -0.0130975 0)
(0.264086 -0.00931669 0)
(0.276563 -0.00405541 0)
(0.280531 0.00046837 0)
(32.0457 0.0126893 0)
(29.1031 0.0415241 0)
(18.002 0.048695 0)
(17.4161 0.0426196 0)
(20.2864 0.0408834 0)
(21.2717 0.0446902 0)
(20.7729 0.0484204 0)
(20.3347 0.0497472 0)
(20.3362 0.0499326 0)
(20.4798 0.0503043 0)
(20.5479 0.0509628 0)
(20.5461 0.05154 0)
(20.5402 0.0518937 0)
(20.5531 0.0521132 0)
(20.5744 0.0522943 0)
(20.5931 0.0524578 0)
(20.6084 0.0525909 0)
(20.623 0.0526903 0)
(20.6382 0.0527653 0)
(20.6538 0.0528256 0)
(20.6692 0.0528761 0)
(20.6843 0.0529191 0)
(20.6993 0.0529565 0)
(20.7142 0.0529904 0)
(20.729 0.0530225 0)
(20.7436 0.0530542 0)
(20.7581 0.0530865 0)
(20.7725 0.0531201 0)
(20.7868 0.0531555 0)
(20.8009 0.0531932 0)
(20.8149 0.0532332 0)
(20.8288 0.053276 0)
(20.8426 0.0533215 0)
(20.8563 0.0533699 0)
(20.8698 0.0534212 0)
(20.8833 0.0534755 0)
(20.8966 0.0535327 0)
(20.9098 0.0535932 0)
(20.9229 0.0536574 0)
(20.9359 0.053726 0)
(20.9488 0.0537994 0)
(20.9616 0.0538779 0)
(20.9743 0.0539612 0)
(20.9869 0.0540484 0)
(20.9994 0.0541381 0)
(21.0118 0.0542283 0)
(21.0241 0.0543171 0)
(21.0363 0.054403 0)
(21.0484 0.0544851 0)
(21.0604 0.0545632 0)
(21.0723 0.0546381 0)
(21.0841 0.0547112 0)
(21.0959 0.0547843 0)
(21.1075 0.0548592 0)
(21.119 0.0549375 0)
(21.1305 0.0550203 0)
(21.1418 0.0551078 0)
(21.153 0.0552002 0)
(21.1642 0.0552968 0)
(21.1753 0.0553972 0)
(21.1862 0.0555006 0)
(21.1971 0.0556068 0)
(21.2079 0.0557154 0)
(21.2186 0.0558264 0)
(21.2292 0.0559401 0)
(21.2398 0.0560567 0)
(21.2502 0.0561766 0)
(21.2606 0.0563003 0)
(21.2709 0.0564281 0)
(21.281 0.0565607 0)
(21.2912 0.0566986 0)
(21.3012 0.0568425 0)
(21.3111 0.0569931 0)
(21.321 0.0571511 0)
(21.3308 0.0573175 0)
(21.3405 0.0574931 0)
(21.3501 0.0576789 0)
(21.3596 0.0578762 0)
(21.3691 0.0580863 0)
(21.3785 0.0583105 0)
(21.3878 0.0585508 0)
(21.397 0.0588091 0)
(21.4062 0.0590877 0)
(21.4152 0.0593894 0)
(21.4242 0.0597172 0)
(21.4331 0.0600747 0)
(21.4419 0.0604659 0)
(21.4506 0.0608955 0)
(21.4593 0.0613689 0)
(21.4678 0.0618919 0)
(21.4762 0.0624714 0)
(21.4845 0.0631151 0)
(21.4928 0.0638318 0)
(21.5009 0.0646313 0)
(21.5089 0.0655247 0)
(21.5168 0.0665249 0)
(21.5245 0.0676461 0)
(21.5322 0.0689046 0)
(21.5397 0.0703186 0)
(21.547 0.0719088 0)
(21.5542 0.0736984 0)
(21.5613 0.0757136 0)
(21.5682 0.077984 0)
(21.5749 0.0805428 0)
(21.5814 0.0834277 0)
(21.5877 0.0866809 0)
(21.5937 0.0903504 0)
(21.5995 0.0944903 0)
(21.6049 0.0991618 0)
(21.6101 0.104434 0)
(21.6149 0.110386 0)
(21.6193 0.117105 0)
(21.6232 0.124693 0)
(21.6266 0.133263 0)
(21.6294 0.142945 0)
(21.6315 0.153882 0)
(21.6329 0.166242 0)
(21.6333 0.18021 0)
(21.6327 0.195997 0)
(21.6308 0.213841 0)
(21.6275 0.234009 0)
(21.6225 0.256805 0)
(21.6155 0.282566 0)
(21.6062 0.31167 0)
(21.594 0.344539 0)
(21.5784 0.381639 0)
(21.5588 0.423483 0)
(21.5344 0.470631 0)
(21.5042 0.523687 0)
(21.4671 0.583294 0)
(21.4215 0.650122 0)
(21.366 0.724858 0)
(21.2984 0.808179 0)
(21.2163 0.900723 0)
(21.1171 1.00304 0)
(20.9973 1.11557 0)
(20.8532 1.23852 0)
(20.6804 1.37184 0)
(20.4741 1.51512 0)
(20.2289 1.66748 0)
(19.9391 1.82752 0)
(19.5984 1.99313 0)
(19.2005 2.16151 0)
(18.7389 2.32903 0)
(18.2072 2.49125 0)
(17.5999 2.64297 0)
(16.9121 2.77824 0)
(16.1423 2.89116 0)
(15.2884 2.97426 0)
(14.3883 3.02072 0)
(13.4231 3.06468 0)
(12.5064 2.99736 0)
(11.5325 2.71834 0)
(10.2235 2.36927 0)
(8.40496 1.86884 0)
(5.77215 0.934415 0)
(4.40749 0.148173 0)
(1.46994 2.10738 0)
(1.3514 0.736224 0)
(1.21601 0.138061 0)
(0.936179 0.119974 0)
(0.776119 0.149736 0)
(0.695362 0.0989183 0)
(0.650097 0.0430358 0)
(0.627178 0.0147193 0)
(0.613581 0.00558477 0)
(0.603079 0.00417678 0)
(0.590321 0.010958 0)
(0.5692 0.0181187 0)
(0.547286 0.0176736 0)
(0.537292 0.0120771 0)
(0.537964 0.001672 0)
(0.541892 -0.00876009 0)
(0.549752 -0.018482 0)
(0.563085 -0.02819 0)
(0.581755 -0.0346014 0)
(0.60321 -0.035064 0)
(0.62522 -0.0309664 0)
(0.645537 -0.024789 0)
(0.662476 -0.0169343 0)
(0.673804 -0.00758585 0)
(0.679695 0.00105132 0)
(0.685435 -0.00156558 0)
(0.697026 -0.0136868 0)
(0.714403 -0.0232959 0)
(0.73272 -0.0241726 0)
(0.747125 -0.01864 0)
(0.756421 -0.0122009 0)
(0.763096 -0.00802566 0)
(0.769833 -0.00381817 0)
(0.774546 0.0045705 0)
(0.773085 0.0171203 0)
(0.760989 0.0303216 0)
(0.738462 0.0373839 0)
(0.713133 0.0344268 0)
(0.692729 0.0251244 0)
(0.676858 0.0178912 0)
(0.663105 0.0173715 0)
(0.648254 0.0180223 0)
(0.632103 0.0160309 0)
(0.617292 0.0147137 0)
(0.603763 0.0192376 0)
(0.587503 0.0276233 0)
(0.568206 0.0324635 0)
(0.546672 0.0301374 0)
(0.526021 0.0255935 0)
(0.506911 0.022952 0)
(0.489567 0.0257369 0)
(0.470824 0.0310215 0)
(0.451199 0.0318319 0)
(0.432938 0.0210408 0)
(0.413266 0.0121766 0)
(0.392438 0.0138927 0)
(0.377119 0.0142197 0)
(0.362124 0.0247086 0)
(0.340173 0.0451614 0)
(0.308482 0.060545 0)
(0.2704 0.0595753 0)
(0.234496 0.0455319 0)
(0.20794 0.0264281 0)
(0.192198 0.011796 0)
(0.180892 0.010018 0)
(0.167542 0.0150179 0)
(0.150774 0.0250833 0)
(0.132981 0.0245949 0)
(0.121037 0.0119606 0)
(0.11801 -0.00221957 0)
(0.12004 -0.0104005 0)
(0.122506 -0.0118718 0)
(0.126974 -0.0105236 0)
(0.134401 -0.00285181 0)
(0.140084 0.000267255 0)
(0.133991 -0.00601955 0)
(0.120564 -0.0121201 0)
(0.117612 -0.00936952 0)
(0.125964 -0.00827642 0)
(0.142262 -0.0167704 0)
(0.160491 -0.0358153 0)
(0.184542 -0.050897 0)
(0.212128 -0.0551426 0)
(0.236924 -0.0546372 0)
(0.260398 -0.0585502 0)
(0.288459 -0.0692765 0)
(0.32421 -0.0822626 0)
(0.367365 -0.0925441 0)
(0.415989 -0.0954923 0)
(0.465592 -0.0863993 0)
(0.507559 -0.062369 0)
(0.533167 -0.0288383 0)
(0.541164 -0.00173127 0)
(32.0372 -0.00087285 0)
(29.0549 -0.00332749 0)
(17.9315 -0.00182533 0)
(17.3479 0.00208287 0)
(20.2166 0.00508492 0)
(21.1885 0.00667886 0)
(20.6716 0.00772577 0)
(20.2177 0.00880137 0)
(20.2064 0.00986493 0)
(20.3376 0.0108184 0)
(20.3923 0.0116678 0)
(20.3766 0.012444 0)
(20.3569 0.0131622 0)
(20.3563 0.0138313 0)
(20.3641 0.0144599 0)
(20.3695 0.0150545 0)
(20.3715 0.0156189 0)
(20.3729 0.0161567 0)
(20.375 0.0166716 0)
(20.3777 0.0171666 0)
(20.3803 0.0176434 0)
(20.3828 0.0181034 0)
(20.3852 0.0185477 0)
(20.3877 0.0189774 0)
(20.3902 0.0193935 0)
(20.3927 0.0197969 0)
(20.3952 0.0201885 0)
(20.3978 0.0205687 0)
(20.4004 0.0209385 0)
(20.403 0.0212984 0)
(20.4056 0.0216492 0)
(20.4083 0.0219914 0)
(20.411 0.0223256 0)
(20.4137 0.0226524 0)
(20.4165 0.0229721 0)
(20.4193 0.0232852 0)
(20.4221 0.0235923 0)
(20.4249 0.0238935 0)
(20.4278 0.0241893 0)
(20.4307 0.0244798 0)
(20.4336 0.024765 0)
(20.4366 0.0250448 0)
(20.4395 0.0253192 0)
(20.4426 0.0255882 0)
(20.4456 0.0258518 0)
(20.4487 0.0261104 0)
(20.4518 0.0263644 0)
(20.4549 0.0266143 0)
(20.4581 0.0268605 0)
(20.4613 0.0271034 0)
(20.4645 0.0273435 0)
(20.4678 0.027581 0)
(20.4711 0.0278162 0)
(20.4744 0.0280495 0)
(20.4778 0.0282811 0)
(20.4811 0.0285112 0)
(20.4845 0.02874 0)
(20.488 0.0289676 0)
(20.4914 0.0291941 0)
(20.4949 0.0294194 0)
(20.4984 0.0296436 0)
(20.502 0.0298666 0)
(20.5055 0.0300885 0)
(20.5091 0.0303096 0)
(20.5128 0.03053 0)
(20.5164 0.0307503 0)
(20.5201 0.0309708 0)
(20.5238 0.031192 0)
(20.5275 0.0314145 0)
(20.5313 0.0316389 0)
(20.535 0.0318659 0)
(20.5388 0.0320962 0)
(20.5426 0.0323305 0)
(20.5465 0.0325697 0)
(20.5504 0.0328147 0)
(20.5542 0.0330665 0)
(20.5581 0.0333263 0)
(20.5621 0.0335955 0)
(20.566 0.0338755 0)
(20.57 0.0341681 0)
(20.574 0.0344755 0)
(20.578 0.0347999 0)
(20.582 0.0351439 0)
(20.586 0.0355104 0)
(20.5901 0.0359028 0)
(20.5941 0.0363246 0)
(20.5982 0.0367799 0)
(20.6023 0.0372733 0)
(20.6064 0.03781 0)
(20.6104 0.0383957 0)
(20.6145 0.039037 0)
(20.6186 0.0397413 0)
(20.6227 0.0405169 0)
(20.6268 0.0413735 0)
(20.6308 0.0423216 0)
(20.6348 0.0433735 0)
(20.6389 0.044543 0)
(20.6429 0.0458455 0)
(20.6468 0.0472985 0)
(20.6507 0.048922 0)
(20.6546 0.0507382 0)
(20.6585 0.0527724 0)
(20.6623 0.055053 0)
(20.6661 0.0576122 0)
(20.6698 0.0604862 0)
(20.6734 0.063716 0)
(20.677 0.0673479 0)
(20.6805 0.0714344 0)
(20.684 0.0760348 0)
(20.6873 0.0812163 0)
(20.6907 0.0870552 0)
(20.6939 0.0936378 0)
(20.6971 0.101062 0)
(20.7002 0.10944 0)
(20.7034 0.118897 0)
(20.7065 0.129577 0)
(20.7096 0.141645 0)
(20.7128 0.155285 0)
(20.7161 0.170711 0)
(20.7196 0.188163 0)
(20.7233 0.207917 0)
(20.7274 0.230285 0)
(20.7321 0.255625 0)
(20.7375 0.284342 0)
(20.7437 0.316897 0)
(20.7511 0.353811 0)
(20.7599 0.395677 0)
(20.7706 0.44316 0)
(20.7834 0.497008 0)
(20.7989 0.558054 0)
(20.8176 0.627224 0)
(20.8399 0.705528 0)
(20.8665 0.794064 0)
(20.8979 0.894001 0)
(20.9345 1.00656 0)
(20.9766 1.13299 0)
(21.0243 1.27451 0)
(21.0773 1.43228 0)
(21.135 1.60727 0)
(21.1959 1.80019 0)
(21.2577 2.01129 0)
(21.3172 2.24026 0)
(21.3698 2.48608 0)
(21.4095 2.7468 0)
(21.4288 3.01948 0)
(21.4183 3.30002 0)
(21.3672 3.58303 0)
(21.2629 3.86178 0)
(21.0904 4.12763 0)
(20.8311 4.36921 0)
(20.4619 4.56119 0)
(19.9415 4.6718 0)
(19.2138 4.69544 0)
(18.1975 4.70316 0)
(16.8825 4.81405 0)
(15.2451 5.0352 0)
(12.9412 5.33693 0)
(11.6153 6.74853 0)
(6.65243 2.35264 0)
(5.62017 0.634312 0)
(2.56555 0.692334 0)
(1.48027 0.504128 0)
(1.29058 0.24653 0)
(1.19123 0.0837286 0)
(1.03545 0.0492602 0)
(0.887898 0.0417444 0)
(0.81185 0.0307663 0)
(0.771109 0.0498011 0)
(0.735773 0.0963656 0)
(0.657311 0.0560496 0)
(0.662351 0.0165028 0)
(0.68223 -1.82861e-06 0)
(0.707539 -0.0152534 0)
(0.73492 -0.0346577 0)
(0.760423 -0.0576731 0)
(0.786201 -0.076183 0)
(0.813662 -0.082888 0)
(0.845992 -0.0764307 0)
(0.885163 -0.0630248 0)
(0.931212 -0.0453543 0)
(0.9798 -0.0241149 0)
(1.02204 -0.0164725 0)
(1.04051 -0.0388878 0)
(1.05602 -0.0662767 0)
(1.08444 -0.0791642 0)
(1.11679 -0.0721403 0)
(1.14067 -0.0542104 0)
(1.15302 -0.0375191 0)
(1.16062 -0.031932 0)
(1.17309 -0.0331429 0)
(1.1915 -0.0174124 0)
(1.20582 0.0266177 0)
(1.20373 0.0742772 0)
(1.18397 0.106374 0)
(1.15427 0.107174 0)
(1.12947 0.0804269 0)
(1.11353 0.0586646 0)
(1.09945 0.0663283 0)
(1.07883 0.0771036 0)
(1.0572 0.0695305 0)
(1.03774 0.0599623 0)
(1.02168 0.0618948 0)
(0.999696 0.0707585 0)
(0.963317 0.0725507 0)
(0.919536 0.0716302 0)
(0.872237 0.0763872 0)
(0.837855 0.0832612 0)
(0.814734 0.0808303 0)
(0.795413 0.0766073 0)
(0.767722 0.0720357 0)
(0.735349 0.0702977 0)
(0.695378 0.0767765 0)
(0.660894 0.0828362 0)
(0.643446 0.0738835 0)
(0.63177 0.0774076 0)
(0.597024 0.097712 0)
(0.531885 0.132774 0)
(0.456337 0.151047 0)
(0.393027 0.134896 0)
(0.350299 0.0964282 0)
(0.330851 0.0620026 0)
(0.32908 0.0604827 0)
(0.314163 0.0940451 0)
(0.28424 0.0809122 0)
(0.249976 0.0596049 0)
(0.221213 0.0283659 0)
(0.21623 -0.00103706 0)
(0.234134 -0.00517825 0)
(0.251363 -0.0114455 0)
(0.259009 -0.0291339 0)
(0.270666 -0.0439774 0)
(0.30618 -0.0274486 0)
(0.29142 0.0398461 0)
(0.152807 0.00189173 0)
(0.103514 -0.0125782 0)
(0.119649 -0.0240386 0)
(0.199471 -0.0172062 0)
(0.235325 -0.077211 0)
(0.241502 -0.105439 0)
(0.26875 -0.102116 0)
(0.309237 -0.0938584 0)
(0.347814 -0.110819 0)
(0.378875 -0.14528 0)
(0.410854 -0.176268 0)
(0.45343 -0.202188 0)
(0.510621 -0.216851 0)
(0.579764 -0.203943 0)
(0.645282 -0.147913 0)
(0.68842 -0.0698757 0)
(0.701091 -0.00356747 0)
(32.0448 0.00329606 0)
(29.0769 0.0133053 0)
(17.9486 0.0196037 0)
(17.3555 0.0225413 0)
(20.2203 0.0242839 0)
(21.1921 0.026007 0)
(20.6756 0.027902 0)
(20.221 0.0296911 0)
(20.2084 0.0311687 0)
(20.3386 0.032364 0)
(20.3925 0.0333944 0)
(20.376 0.0343228 0)
(20.3555 0.03515 0)
(20.3541 0.0358681 0)
(20.3611 0.0364864 0)
(20.3657 0.0370225 0)
(20.3669 0.0374906 0)
(20.3675 0.0378996 0)
(20.3688 0.0382564 0)
(20.3707 0.0385675 0)
(20.3725 0.0388391 0)
(20.3741 0.0390764 0)
(20.3756 0.0392839 0)
(20.3772 0.0394651 0)
(20.3789 0.0396237 0)
(20.3805 0.0397624 0)
(20.3821 0.0398839 0)
(20.3837 0.0399904 0)
(20.3854 0.0400836 0)
(20.387 0.0401654 0)
(20.3886 0.0402372 0)
(20.3903 0.0403003 0)
(20.3919 0.0403559 0)
(20.3935 0.0404049 0)
(20.3952 0.0404483 0)
(20.3969 0.0404867 0)
(20.3985 0.0405209 0)
(20.4002 0.0405516 0)
(20.4019 0.0405798 0)
(20.4035 0.0406062 0)
(20.4052 0.0406317 0)
(20.4069 0.0406569 0)
(20.4086 0.0406824 0)
(20.4103 0.040708 0)
(20.4121 0.0407336 0)
(20.4138 0.0407583 0)
(20.4155 0.0407814 0)
(20.4172 0.0408019 0)
(20.419 0.0408193 0)
(20.4207 0.0408332 0)
(20.4225 0.0408436 0)
(20.4242 0.0408511 0)
(20.426 0.0408566 0)
(20.4278 0.040861 0)
(20.4296 0.0408657 0)
(20.4313 0.0408717 0)
(20.4331 0.0408799 0)
(20.4349 0.0408909 0)
(20.4367 0.0409051 0)
(20.4385 0.0409224 0)
(20.4403 0.0409427 0)
(20.4422 0.0409661 0)
(20.444 0.0409923 0)
(20.4458 0.0410214 0)
(20.4477 0.0410535 0)
(20.4495 0.0410889 0)
(20.4514 0.0411279 0)
(20.4532 0.041171 0)
(20.4551 0.0412186 0)
(20.457 0.0412714 0)
(20.4588 0.0413301 0)
(20.4607 0.0413955 0)
(20.4626 0.0414685 0)
(20.4645 0.0415499 0)
(20.4664 0.0416407 0)
(20.4682 0.0417422 0)
(20.4701 0.0418556 0)
(20.472 0.0419822 0)
(20.4739 0.0421237 0)
(20.4758 0.0422821 0)
(20.4777 0.0424594 0)
(20.4796 0.0426584 0)
(20.4815 0.0428819 0)
(20.4833 0.0431332 0)
(20.4852 0.0434162 0)
(20.487 0.043735 0)
(20.4889 0.0440945 0)
(20.4907 0.0445 0)
(20.4925 0.0449573 0)
(20.4943 0.0454732 0)
(20.496 0.0460551 0)
(20.4978 0.0467113 0)
(20.4994 0.0474512 0)
(20.5011 0.0482853 0)
(20.5027 0.0492255 0)
(20.5043 0.0502851 0)
(20.5058 0.0514791 0)
(20.5072 0.0528245 0)
(20.5085 0.0543403 0)
(20.5098 0.0560479 0)
(20.511 0.0579713 0)
(20.5121 0.0601374 0)
(20.513 0.0625765 0)
(20.5139 0.0653222 0)
(20.5145 0.0684127 0)
(20.5151 0.0718902 0)
(20.5154 0.0758024 0)
(20.5155 0.0802024 0)
(20.5155 0.0851499 0)
(20.5152 0.0907116 0)
(20.5146 0.0969622 0)
(20.5137 0.103985 0)
(20.5125 0.111875 0)
(20.511 0.120735 0)
(20.5091 0.130683 0)
(20.5068 0.141849 0)
(20.5041 0.154379 0)
(20.501 0.168436 0)
(20.4974 0.184201 0)
(20.4933 0.201875 0)
(20.4887 0.221682 0)
(20.4836 0.24387 0)
(20.4781 0.268716 0)
(20.4721 0.296524 0)
(20.4657 0.32763 0)
(20.459 0.362409 0)
(20.4521 0.401271 0)
(20.4452 0.444669 0)
(20.4386 0.493103 0)
(20.4325 0.547126 0)
(20.4273 0.607346 0)
(20.4237 0.674436 0)
(20.4223 0.74914 0)
(20.4238 0.832286 0)
(20.4295 0.92479 0)
(20.4405 1.02767 0)
(20.4582 1.14207 0)
(20.4845 1.26921 0)
(20.5212 1.41048 0)
(20.5705 1.56733 0)
(20.6343 1.7413 0)
(20.7149 1.93397 0)
(20.8139 2.14688 0)
(20.9324 2.38142 0)
(21.0704 2.63874 0)
(21.2264 2.91956 0)
(21.3971 3.22404 0)
(21.5759 3.55172 0)
(21.7533 3.90136 0)
(21.915 4.27188 0)
(22.0439 4.66144 0)
(22.1182 5.07127 0)
(22.1132 5.51864 0)
(22.0118 6.03601 0)
(21.7871 6.66189 0)
(21.5285 7.45306 0)
(21.0345 8.34544 0)
(20.8649 9.73531 0)
(20.0261 10.1895 0)
(18.4174 9.72851 0)
(16.0276 8.97814 0)
(11.5488 4.6659 0)
(7.14501 1.07602 0)
(4.61687 0.298453 0)
(2.8269 0.316322 0)
(1.33111 0.241963 0)
(0.762195 0.0603321 0)
(0.324233 -0.0460727 0)
(0.0592332 0.163267 0)
(0.018254 -0.0163341 0)
(0.465887 -0.0724736 0)
(0.587924 -0.0373203 0)
(0.695295 -0.0445736 0)
(0.781926 -0.0473879 0)
(0.820821 -0.0716828 0)
(0.830516 -0.0906783 0)
(0.835941 -0.103408 0)
(0.852283 -0.110544 0)
(0.883033 -0.117553 0)
(0.926253 -0.112577 0)
(0.978017 -0.119539 0)
(1.23134 0.00514873 0)
(1.37511 -0.0228813 0)
(1.402 -0.0997306 0)
(1.39511 -0.145612 0)
(1.38845 -0.133148 0)
(1.39231 -0.0841374 0)
(1.40843 -0.0439184 0)
(1.43147 -0.0445725 0)
(1.45868 -0.0643726 0)
(1.50444 -0.058216 0)
(1.5627 0.000538536 0)
(1.62091 0.0731389 0)
(1.62905 0.116191 0)
(1.59176 0.12576 0)
(1.55664 0.0882677 0)
(1.5531 0.0487424 0)
(1.56906 0.0696707 0)
(1.57231 0.115986 0)
(1.56016 0.106047 0)
(1.54939 0.0690791 0)
(1.54243 0.0712465 0)
(1.52935 0.137152 0)
(1.48775 0.221295 0)
(1.42781 0.24348 0)
(1.36724 0.193646 0)
(1.31362 0.132888 0)
(1.26107 0.108248 0)
(1.23221 0.13218 0)
(1.22627 0.175165 0)
(1.22457 0.184453 0)
(1.20579 0.150207 0)
(1.17734 0.094828 0)
(1.13966 0.0500077 0)
(1.10839 0.138002 0)
(1.07953 0.305269 0)
(0.958451 0.388966 0)
(0.837882 0.330807 0)
(0.75713 0.238685 0)
(0.676187 0.145871 0)
(0.616588 0.0490432 0)
(0.584479 -0.015999 0)
(0.573437 0.05085 0)
(0.506056 0.195704 0)
(0.452467 0.179333 0)
(0.435154 0.0794697 0)
(0.444851 -0.0329583 0)
(0.508798 -0.0808676 0)
(0.617826 -0.0245767 0)
(0.614146 -0.0626977 0)
(0.602108 -0.148309 0)
(0.63885 -0.251282 0)
(0.528878 0.554347 0)
(0.493222 0.441298 0)
(0.405451 0.0887864 0)
(0.736852 -0.285684 0)
(1.10592 -0.368815 0)
(0.701628 -0.111986 0)
(0.419939 -0.101298 0)
(0.342761 -0.11899 0)
(0.353787 -0.137095 0)
(0.495135 -0.14347 0)
(0.532404 -0.172643 0)
(0.553106 -0.217344 0)
(0.5795 -0.274554 0)
(0.640106 -0.319585 0)
(0.747677 -0.333517 0)
(0.886282 -0.290442 0)
(0.956809 -0.148965 0)
(0.928606 0.00305239 0)
(32.0443 0.00100287 0)
(29.0723 0.00338194 0)
(17.9417 0.00472446 0)
(17.3499 0.00552837 0)
(20.2161 0.00650053 0)
(21.1882 0.00766905 0)
(20.6713 0.00877975 0)
(20.2164 0.00970635 0)
(20.2037 0.0104748 0)
(20.3338 0.011156 0)
(20.3878 0.0117875 0)
(20.3713 0.0123709 0)
(20.3508 0.0128994 0)
(20.3495 0.0133751 0)
(20.3566 0.0138074 0)
(20.3613 0.0142055 0)
(20.3626 0.014575 0)
(20.3633 0.0149191 0)
(20.3648 0.0152411 0)
(20.3668 0.0155442 0)
(20.3687 0.0158311 0)
(20.3704 0.0161042 0)
(20.3721 0.0163653 0)
(20.3738 0.0166159 0)
(20.3756 0.0168573 0)
(20.3774 0.0170907 0)
(20.3791 0.017317 0)
(20.3809 0.0175371 0)
(20.3826 0.0177516 0)
(20.3844 0.0179612 0)
(20.3861 0.0181664 0)
(20.3879 0.0183677 0)
(20.3896 0.0185656 0)
(20.3914 0.0187603 0)
(20.3932 0.0189521 0)
(20.3949 0.0191414 0)
(20.3967 0.0193284 0)
(20.3985 0.0195131 0)
(20.4003 0.0196958 0)
(20.4021 0.0198765 0)
(20.4039 0.0200551 0)
(20.4057 0.0202318 0)
(20.4075 0.0204064 0)
(20.4093 0.020579 0)
(20.4111 0.0207496 0)
(20.4129 0.0209182 0)
(20.4147 0.021085 0)
(20.4165 0.0212502 0)
(20.4184 0.0214139 0)
(20.4202 0.0215765 0)
(20.4221 0.021738 0)
(20.4239 0.0218988 0)
(20.4258 0.0220591 0)
(20.4276 0.0222192 0)
(20.4295 0.0223792 0)
(20.4314 0.0225394 0)
(20.4332 0.0226997 0)
(20.4351 0.0228605 0)
(20.437 0.0230217 0)
(20.4389 0.0231834 0)
(20.4408 0.0233457 0)
(20.4427 0.0235088 0)
(20.4446 0.0236728 0)
(20.4465 0.0238379 0)
(20.4484 0.0240044 0)
(20.4503 0.0241728 0)
(20.4522 0.0243434 0)
(20.4542 0.0245167 0)
(20.4561 0.0246935 0)
(20.458 0.0248743 0)
(20.46 0.0250598 0)
(20.4619 0.025251 0)
(20.4639 0.0254488 0)
(20.4658 0.0256542 0)
(20.4678 0.0258684 0)
(20.4698 0.0260928 0)
(20.4717 0.0263288 0)
(20.4737 0.0265783 0)
(20.4757 0.0268431 0)
(20.4777 0.0271255 0)
(20.4796 0.027428 0)
(20.4816 0.0277535 0)
(20.4836 0.0281051 0)
(20.4856 0.0284865 0)
(20.4875 0.0289018 0)
(20.4895 0.0293554 0)
(20.4915 0.0298526 0)
(20.4934 0.030399 0)
(20.4954 0.0310011 0)
(20.4973 0.0316662 0)
(20.4993 0.0324023 0)
(20.5012 0.0332187 0)
(20.5031 0.0341255 0)
(20.505 0.0351344 0)
(20.5069 0.0362582 0)
(20.5087 0.0375115 0)
(20.5105 0.0389107 0)
(20.5123 0.0404739 0)
(20.5141 0.0422218 0)
(20.5158 0.0441774 0)
(20.5175 0.0463663 0)
(20.5191 0.0488174 0)
(20.5207 0.051563 0)
(20.5223 0.0546392 0)
(20.5237 0.0580864 0)
(20.5251 0.0619498 0)
(20.5264 0.0662798 0)
(20.5276 0.0711329 0)
(20.5288 0.0765721 0)
(20.5298 0.082668 0)
(20.5307 0.089499 0)
(20.5315 0.0971528 0)
(20.5322 0.105727 0)
(20.5328 0.115331 0)
(20.5332 0.126085 0)
(20.5335 0.138124 0)
(20.5336 0.151598 0)
(20.5337 0.166672 0)
(20.5335 0.183531 0)
(20.5333 0.202376 0)
(20.5329 0.223433 0)
(20.5324 0.246947 0)
(20.5319 0.27319 0)
(20.5313 0.302459 0)
(20.5308 0.335077 0)
(20.5304 0.371397 0)
(20.5301 0.4118 0)
(20.5302 0.456695 0)
(20.5306 0.506524 0)
(20.5317 0.561752 0)
(20.5335 0.622872 0)
(20.5364 0.690402 0)
(20.5406 0.764876 0)
(20.5464 0.846844 0)
(20.5544 0.936868 0)
(20.565 1.03551 0)
(20.5789 1.14336 0)
(20.5967 1.26098 0)
(20.6195 1.38897 0)
(20.6484 1.52796 0)
(20.6847 1.67865 0)
(20.7301 1.84184 0)
(20.7864 2.0185 0)
(20.8559 2.20984 0)
(20.9412 2.41746 0)
(21.0449 2.64342 0)
(21.1698 2.89042 0)
(21.3189 3.16198 0)
(21.4947 3.46268 0)
(21.6996 3.79849 0)
(21.9354 4.17712 0)
(22.203 4.60815 0)
(22.5015 5.10279 0)
(22.8338 5.67488 0)
(23.2001 6.3326 0)
(23.6296 7.09655 0)
(24.1242 7.93708 0)
(24.705 8.86194 0)
(25.4408 9.82793 0)
(26.0003 10.6351 0)
(26.5755 11.5221 0)
(26.7466 11.7085 0)
(26.2489 11.0985 0)
(24.8538 9.7297 0)
(23.0391 7.88462 0)
(20.5531 5.32019 0)
(18.2561 2.8713 0)
(16.7889 1.50867 0)
(15.2949 0.734048 0)
(13.8892 0.023007 0)
(12.6975 -0.633038 0)
(11.6605 -0.819222 0)
(10.7787 -0.651439 0)
(10.0216 -0.417299 0)
(9.32647 -0.255181 0)
(8.64002 -0.177409 0)
(7.94389 -0.156346 0)
(7.21517 -0.175087 0)
(6.47723 -0.230911 0)
(5.70754 -0.290463 0)
(4.57261 -0.549869 0)
(4.93712 -0.908442 0)
(2.61323 -0.132506 0)
(1.91322 -0.152554 0)
(1.60108 -0.216902 0)
(1.32176 -0.219144 0)
(1.2417 -0.21061 0)
(1.49791 -0.0866493 0)
(1.77665 -0.0726003 0)
(1.93138 -0.16262 0)
(1.92734 -0.213868 0)
(1.81338 -0.163891 0)
(2.05692 -0.0301594 0)
(2.16734 0.281265 0)
(2.10911 0.276939 0)
(2.05813 0.161706 0)
(2.06277 0.0579876 0)
(2.10667 0.040096 0)
(2.10454 0.0814238 0)
(2.05059 0.110608 0)
(2.01788 0.0968673 0)
(2.03391 0.102097 0)
(2.08926 0.188195 0)
(2.13125 0.266527 0)
(2.09734 0.275661 0)
(2.02851 0.271021 0)
(1.94105 0.26927 0)
(1.90329 0.233661 0)
(1.90897 0.128534 0)
(1.93232 0.0534546 0)
(1.96827 0.129447 0)
(2.0169 0.273088 0)
(2.04402 0.274309 0)
(2.05173 0.16991 0)
(2.05715 0.07141 0)
(2.14038 0.0657701 0)
(1.97151 0.680408 0)
(1.72597 0.532816 0)
(1.67038 0.413796 0)
(1.56492 0.361984 0)
(1.44081 0.312558 0)
(1.37056 0.20979 0)
(1.31808 0.130534 0)
(1.25778 0.315463 0)
(1.17542 0.430501 0)
(1.19516 0.161732 0)
(1.42074 -0.192392 0)
(1.67417 -0.525301 0)
(1.8507 -0.215792 0)
(2.2024 0.0591192 0)
(3.02525 0.0633206 0)
(2.54739 0.325848 0)
(1.47699 0.319732 0)
(1.3268 -0.0267485 0)
(1.48197 -0.635697 0)
(1.91419 -1.05083 0)
(2.42703 -0.244958 0)
(2.29354 0.860712 0)
(1.78065 0.582923 0)
(1.47713 0.0630768 0)
(1.24069 -0.451291 0)
(1.21087 -0.60992 0)
(0.891116 -0.255702 0)
(0.934704 -0.239365 0)
(0.952498 -0.365828 0)
(0.973764 -0.540547 0)
(1.15597 -0.7425 0)
(1.60189 -0.640322 0)
(1.50397 -0.0977932 0)
(1.31501 0.176635 0)
(32.0467 0.00155819 0)
(29.0797 0.00613061 0)
(17.9491 0.00913399 0)
(17.3554 0.0108453 0)
(20.2209 0.0124325 0)
(21.193 0.0141391 0)
(20.676 0.0157731 0)
(20.2207 0.0172224 0)
(20.2077 0.0185069 0)
(20.3375 0.0196764 0)
(20.3913 0.0207523 0)
(20.3746 0.021736 0)
(20.3539 0.0226284 0)
(20.3523 0.0234362 0)
(20.3592 0.0241684 0)
(20.3637 0.0248329 0)
(20.3648 0.0254362 0)
(20.3654 0.0259839 0)
(20.3667 0.0264814 0)
(20.3685 0.0269337 0)
(20.3703 0.0273454 0)
(20.3719 0.0277202 0)
(20.3734 0.0280618 0)
(20.3751 0.0283734 0)
(20.3767 0.0286579 0)
(20.3783 0.0289179 0)
(20.38 0.0291558 0)
(20.3816 0.0293738 0)
(20.3833 0.0295736 0)
(20.385 0.029757 0)
(20.3866 0.0299255 0)
(20.3883 0.0300807 0)
(20.39 0.0302237 0)
(20.3917 0.0303557 0)
(20.3934 0.0304777 0)
(20.3951 0.0305907 0)
(20.3968 0.0306955 0)
(20.3985 0.0307931 0)
(20.4003 0.0308842 0)
(20.402 0.0309696 0)
(20.4038 0.0310502 0)
(20.4055 0.0311265 0)
(20.4073 0.0311989 0)
(20.4091 0.0312679 0)
(20.4108 0.0313333 0)
(20.4126 0.0313951 0)
(20.4144 0.0314532 0)
(20.4162 0.0315073 0)
(20.418 0.0315574 0)
(20.4198 0.0316035 0)
(20.4216 0.0316458 0)
(20.4235 0.0316848 0)
(20.4253 0.031721 0)
(20.4271 0.0317553 0)
(20.429 0.0317883 0)
(20.4308 0.0318206 0)
(20.4327 0.0318531 0)
(20.4345 0.031886 0)
(20.4364 0.0319197 0)
(20.4383 0.0319544 0)
(20.4402 0.0319904 0)
(20.4421 0.0320278 0)
(20.444 0.0320668 0)
(20.4459 0.0321076 0)
(20.4478 0.0321506 0)
(20.4497 0.0321961 0)
(20.4517 0.0322446 0)
(20.4536 0.0322966 0)
(20.4555 0.0323527 0)
(20.4575 0.0324137 0)
(20.4594 0.0324803 0)
(20.4614 0.0325534 0)
(20.4634 0.032634 0)
(20.4654 0.0327231 0)
(20.4673 0.0328219 0)
(20.4693 0.0329318 0)
(20.4713 0.0330544 0)