/*--------------------------------*- C++ -*----------------------------------*\
| =========                 |                                                 |
| \\      /  F ield         | OpenFOAM: The Open Source CFD Toolbox           |
|  \\    /   O peration     | Version:  2406                                  |
|   \\  /    A nd           | Website:  www.openfoam.com                      |
|    \\/     M anipulation  |                                                 |
\*---------------------------------------------------------------------------*/
FoamFile
{
    version     2.0;
    format      ascii;
    arch        "LSB;label=32;scalar=64";
    class       volScalarField;
    location    "900";
    object      alphat;
}
// * * * * * * * * * * * * * * * * * * * * * * * * * * * * * * * * * * * * * //

dimensions      [0 2 -1 0 0 0 0];

internalField   nonuniform List<scalar> 
5619
(
5.35523e-05
5.35815e-05
5.34641e-05
5.33774e-05
5.32974e-05
5.32323e-05
5.31686e-05
5.30952e-05
5.30055e-05
5.28988e-05
5.27765e-05
5.26408e-05
5.24953e-05
5.23434e-05
5.21886e-05
5.20342e-05
5.18832e-05
5.17381e-05
5.16016e-05
5.14757e-05
5.13617e-05
5.12593e-05
5.11668e-05
5.10802e-05
5.09941e-05
5.09035e-05
5.08077e-05
5.07143e-05
5.06373e-05
5.05953e-05
5.06129e-05
5.07167e-05
5.09297e-05
5.12658e-05
5.17277e-05
5.23062e-05
5.29834e-05
5.37357e-05
5.45372e-05
5.53621e-05
5.61859e-05
5.69865e-05
5.77443e-05
5.84424e-05
5.90668e-05
5.96061e-05
6.00517e-05
6.03973e-05
6.06392e-05
6.07758e-05
6.08076e-05
6.07367e-05
6.05668e-05
6.03027e-05
5.99502e-05
5.95157e-05
5.9006e-05
5.84281e-05
5.77885e-05
5.71089e-05
5.64067e-05
5.56903e-05
5.49665e-05
5.42409e-05
5.35185e-05
5.28035e-05
5.20991e-05
5.14081e-05
5.07326e-05
5.00741e-05
4.94338e-05
4.88124e-05
4.82105e-05
4.76281e-05
4.70653e-05
4.65218e-05
4.59972e-05
4.54911e-05
4.50029e-05
4.45318e-05
4.40773e-05
4.36385e-05
4.32148e-05
4.28053e-05
4.24092e-05
4.20258e-05
4.16542e-05
4.12938e-05
4.09437e-05
4.06032e-05
4.02715e-05
3.99481e-05
3.96321e-05
3.93229e-05
3.90199e-05
3.87224e-05
3.84298e-05
3.81416e-05
3.78572e-05
3.75759e-05
3.72976e-05
3.69935e-05
3.66632e-05
3.63066e-05
3.59244e-05
3.55182e-05
3.50899e-05
3.46427e-05
3.418e-05
3.37063e-05
3.32264e-05
3.27452e-05
3.22681e-05
3.18e-05
3.13456e-05
3.0909e-05
3.04935e-05
3.01017e-05
2.97354e-05
2.93956e-05
2.90825e-05
2.8796e-05
2.85352e-05
2.8299e-05
2.80859e-05
2.78946e-05
2.77232e-05
2.75703e-05
2.74343e-05
2.73007e-05
2.71688e-05
2.70379e-05
2.69074e-05
2.67767e-05
2.66453e-05
2.65126e-05
2.63783e-05
2.62418e-05
2.61028e-05
2.59609e-05
2.5816e-05
2.56676e-05
2.55157e-05
2.53601e-05
2.52008e-05
2.50378e-05
2.48712e-05
2.47012e-05
2.45281e-05
2.43524e-05
2.41746e-05
2.39954e-05
2.38155e-05
2.36358e-05
2.34575e-05
2.32817e-05
2.31096e-05
2.29427e-05
2.27823e-05
2.26298e-05
2.24866e-05
2.23542e-05
2.22336e-05
2.21259e-05
2.20319e-05
2.19521e-05
2.18867e-05
2.18356e-05
2.17984e-05
2.17744e-05
2.17625e-05
2.17618e-05
2.1771e-05
2.17891e-05
2.18149e-05
2.18482e-05
2.18908e-05
2.19476e-05
2.20294e-05
2.21558e-05
2.23559e-05
2.26663e-05
2.31177e-05
2.37046e-05
2.43128e-05
2.45255e-05
2.30393e-05
0.000161848
0.00016035
0.000158267
0.000155639
0.000153032
0.000150667
0.000148609
0.000146787
0.000145103
0.000143511
0.000142033
0.000140663
0.000139399
0.000138239
0.000137181
0.000136224
0.000135365
0.000134596
0.000133906
0.000133274
0.000132675
0.000132068
0.000131392
0.00013056
0.000129443
0.000127865
0.000125611
0.000122508
0.000118409
0.000113371
0.000107484
0.000100907
9.38943e-05
8.67481e-05
7.97646e-05
7.31879e-05
6.71842e-05
6.18385e-05
5.71683e-05
5.31439e-05
4.97085e-05
4.67944e-05
4.43326e-05
4.22597e-05
4.05203e-05
3.90673e-05
3.7862e-05
3.68731e-05
3.60748e-05
3.54458e-05
3.49683e-05
3.4626e-05
3.44034e-05
3.42845e-05
3.42521e-05
3.42861e-05
3.43637e-05
3.44242e-05
3.44146e-05
3.43656e-05
3.43146e-05
3.42539e-05
3.41778e-05
3.40826e-05
3.39661e-05
3.38276e-05
3.36679e-05
3.34887e-05
3.32926e-05
3.30825e-05
3.28619e-05
3.26343e-05
3.24031e-05
3.21715e-05
3.19426e-05
3.17189e-05
3.15027e-05
3.12958e-05
3.10996e-05
3.09153e-05
3.07437e-05
3.05851e-05
3.044e-05
3.03083e-05
3.019e-05
3.00849e-05
2.99925e-05
2.99126e-05
2.98448e-05
2.97886e-05
2.97435e-05
2.97093e-05
2.96853e-05
2.96714e-05
2.96671e-05
2.96722e-05
2.96864e-05
2.97094e-05
2.97413e-05
2.97814e-05
2.98301e-05
2.98935e-05
2.99744e-05
3.00766e-05
3.02039e-05
3.03601e-05
3.05489e-05
3.07734e-05
3.1036e-05
3.13382e-05
3.16798e-05
3.20594e-05
3.24735e-05
3.29177e-05
3.33858e-05
3.38709e-05
3.43655e-05
3.48621e-05
3.53533e-05
3.58328e-05
3.62948e-05
3.67348e-05
3.71496e-05
3.75368e-05
3.78952e-05
3.82244e-05
3.85247e-05
3.87968e-05
3.90422e-05
3.92869e-05
3.9532e-05
3.97787e-05
4.0028e-05
4.02812e-05
4.05392e-05
4.08032e-05
4.10742e-05
4.13532e-05
4.16413e-05
4.19393e-05
4.22482e-05
4.25688e-05
4.29018e-05
4.32478e-05
4.36073e-05
4.39804e-05
4.43673e-05
4.47678e-05
4.51813e-05
4.56069e-05
4.60435e-05
4.64891e-05
4.69415e-05
4.73979e-05
4.78547e-05
4.8308e-05
4.8753e-05
4.91843e-05
4.95961e-05
4.99822e-05
5.03357e-05
5.06499e-05
5.09175e-05
5.11318e-05
5.12857e-05
5.13726e-05
5.13854e-05
5.1317e-05
5.11594e-05
5.09029e-05
5.05346e-05
5.00371e-05
4.94172e-05
4.86812e-05
4.77842e-05
4.66694e-05
4.52651e-05
4.34887e-05
4.12614e-05
3.85421e-05
3.53842e-05
3.2005e-05
2.88365e-05
2.65327e-05
2.60331e-05
2.91792e-05
4.27104e-05
0.000271391
0.000257704
0.000245871
0.000235719
0.000227315
0.000220324
0.000214432
0.000209303
0.000204665
0.00020034
0.000196307
0.000192515
0.000188909
0.000185437
0.000182046
0.000178679
0.000175273
0.000171758
0.000168055
0.000164083
0.000159761
0.000155011
0.00014977
0.000144
0.000137699
0.000130942
0.00012386
0.000116732
0.000109785
0.00010325
9.73255e-05
9.21744e-05
8.79038e-05
8.45654e-05
8.21633e-05
8.06689e-05
8.00376e-05
8.02223e-05
8.11826e-05
8.28896e-05
8.53266e-05
8.84882e-05
9.23784e-05
9.70069e-05
0.000102385
0.00010852
0.000115411
0.000123039
0.000131361
0.000140301
0.000149741
0.000159515
0.000169406
0.000179146
0.000188429
0.000196928
0.00020388
0.000209922
0.000215354
0.000220179
0.000224377
0.000227894
0.00023069
0.000232741
0.000234035
0.000234576
0.000234381
0.00023348
0.000231915
0.000229735
0.000226998
0.000223766
0.000220105
0.000216079
0.000211753
0.000207191
0.000202449
0.000197582
0.000192639
0.000187664
0.000182694
0.000177761
0.000172894
0.000168113
0.000163437
0.00015888
0.000154451
0.000150157
0.000146003
0.000141991
0.000138121
0.000134392
0.000130802
0.000127346
0.000124022
0.000120824
0.000117749
0.000114791
0.000111946
0.000109206
0.000106567
0.000103766
0.000100819
9.77576e-05
9.462e-05
9.14519e-05
8.83038e-05
8.5228e-05
8.22759e-05
7.94938e-05
7.69203e-05
7.45838e-05
7.2501e-05
7.06774e-05
6.91082e-05
6.77799e-05
6.66731e-05
6.57645e-05
6.50293e-05
6.44424e-05
6.39801e-05
6.36207e-05
6.33449e-05
6.31361e-05
6.29804e-05
6.28662e-05
6.27842e-05
6.27263e-05
6.26868e-05
6.26585e-05
6.26401e-05
6.26314e-05
6.2632e-05
6.26417e-05
6.26605e-05
6.26886e-05
6.27262e-05
6.27737e-05
6.28316e-05
6.29004e-05
6.29808e-05
6.30732e-05
6.31784e-05
6.3297e-05
6.34294e-05
6.35762e-05
6.37375e-05
6.39132e-05
6.41032e-05
6.43065e-05
6.4522e-05
6.47476e-05
6.49809e-05
6.52182e-05
6.54552e-05
6.56862e-05
6.59047e-05
6.61027e-05
6.62713e-05
6.64004e-05
6.64788e-05
6.64946e-05
6.64353e-05
6.62881e-05
6.60402e-05
6.56792e-05
6.51932e-05
6.45715e-05
6.38044e-05
6.2884e-05
6.18047e-05
6.05657e-05
5.92357e-05
5.78177e-05
5.63224e-05
5.47774e-05
5.32364e-05
5.17916e-05
5.05896e-05
4.98498e-05
4.98836e-05
5.11202e-05
5.41721e-05
6.00493e-05
7.08367e-05
9.19077e-05
0.000143291
0.000468888
0.000410203
0.000360958
0.000323023
0.000295829
0.000276681
0.000262851
0.000252223
0.000243454
0.000235772
0.000228865
0.000222543
0.000216664
0.000211129
0.00020587
0.000200841
0.000196017
0.000191389
0.000186969
0.000182787
0.000178895
0.000175366
0.000172289
0.000169758
0.000167862
0.000166801
0.000166713
0.00016767
0.000169714
0.000172871
0.00017715
0.000182549
0.000189065
0.000196706
0.000205493
0.000215464
0.00022667
0.000239174
0.000253037
0.000268316
0.000285049
0.000303247
0.000322882
0.000343875
0.000366089
0.00038932
0.000413295
0.000437683
0.000462104
0.000486148
0.000509407
0.000531497
0.000552087
0.000570918
0.000587813
0.000602172
0.000615132
0.000626827
0.000637254
0.000646366
0.000654117
0.000660469
0.000665398
0.000668896
0.000670971
0.000671646
0.000670958
0.000668957
0.000665703
0.000661269
0.000655733
0.00064918
0.000641699
0.000633384
0.000624325
0.000614614
0.00060434
0.000593588
0.000582441
0.000570972
0.000559254
0.000547349
0.000535315
0.000523205
0.000511063
0.00049893
0.00048684
0.00047482
0.000462896
0.000451088
0.00043941
0.000427875
0.000416494
0.000405271
0.000394212
0.000383319
0.000372593
0.000362035
0.00035165
0.000341417
0.000331312
0.000320385
0.000308606
0.000296047
0.00028281
0.00026904
0.000254921
0.000240669
0.00022652
0.000212716
0.000199485
0.000187028
0.000175498
0.000164999
0.000155578
0.000147236
0.000139931
0.000133594
0.000128137
0.000123464
0.00011948
0.000116092
0.000113216
0.000110776
0.000108706
0.000106949
0.000105457
0.000104186
0.000103102
0.000102077
0.000101099
0.000100163
9.92621e-05
9.83918e-05
9.7548e-05
9.67273e-05
9.59271e-05
9.51452e-05
9.43803e-05
9.36313e-05
9.28979e-05
9.21801e-05
9.14783e-05
9.07932e-05
9.01261e-05
8.94783e-05
8.88513e-05
8.82467e-05
8.76662e-05
8.71113e-05
8.65833e-05
8.6083e-05
8.56108e-05
8.51664e-05
8.47489e-05
8.43565e-05
8.39864e-05
8.3635e-05
8.32981e-05
8.29708e-05
8.26481e-05
8.23251e-05
8.1998e-05
8.16643e-05
8.13239e-05
8.09801e-05
8.064e-05
8.03161e-05
8.00265e-05
7.97958e-05
7.96563e-05
7.96962e-05
8.00251e-05
8.07154e-05
8.18667e-05
8.36086e-05
8.6107e-05
8.95702e-05
9.4255e-05
0.000100475
0.000108622
0.000119227
0.000133139
0.000151977
0.000179251
0.000223395
0.000309453
0.000943564
0.000805421
0.000670852
0.000550823
0.000455211
0.000386518
0.00034135
0.00031326
0.000296153
0.000285617
0.000279196
0.000275528
0.000273828
0.000273638
0.000274689
0.000276823
0.000279947
0.000284006
0.000288964
0.000294789
0.000301441
0.000308858
0.000316953
0.000325613
0.000334711
0.000344504
0.000355191
0.00036663
0.000378836
0.000391858
0.000405764
0.000420633
0.000436543
0.000453574
0.000471787
0.00049122
0.000511876
0.000533712
0.000556637
0.000580506
0.000605122
0.000630242
0.000655585
0.000680852
0.000705739
0.000729961
0.000753266
0.000775452
0.000796372
0.000815939
0.000834116
0.000850907
0.000866347
0.000880485
0.000893327
0.000905247
0.000916479
0.00092701
0.000936807
0.000945825
0.000954014
0.000961326
0.000967714
0.000973133
0.000977548
0.000980927
0.000983251
0.000984508
0.000984697
0.000983827
0.000981917
0.000978994
0.000975093
0.000970256
0.00096453
0.000957967
0.000950621
0.000942549
0.000933808
0.000924453
0.000914541
0.000904123
0.000893252
0.000881974
0.000870333
0.000858371
0.000846122
0.000833621
0.000820896
0.000807973
0.000794873
0.000781615
0.000768214
0.000754683
0.000741033
0.00072727
0.000713401
0.000699433
0.000685379
0.000671202
0.000656819
0.000640973
0.000623468
0.000604286
0.000583455
0.000561076
0.000537319
0.000512438
0.000486762
0.00046069
0.000434661
0.00040913
0.000384529
0.000361237
0.000339548
0.000319663
0.000301683
0.000285622
0.00027142
0.000258968
0.000248121
0.000238721
0.000230605
0.000223616
0.000217606
0.000212444
0.000208014
0.000204204
0.00020092
0.000197797
0.000194796
0.000191901
0.000189094
0.00018636
0.000183689
0.000181071
0.000178496
0.000175959
0.000173455
0.00017098
0.000168534
0.000166115
0.000163726
0.000161368
0.000159045
0.000156764
0.000154529
0.000152348
0.000150229
0.000148182
0.000146216
0.00014434
0.000142565
0.000140903
0.000139363
0.000137957
0.000136695
0.000135589
0.00013465
0.000133889
0.00013332
0.000132954
0.000132808
0.000132897
0.000133242
0.000133862
0.000134783
0.000136033
0.000137641
0.000139644
0.000142081
0.000145065
0.000148844
0.000153436
0.000158932
0.000165442
0.000173097
0.000182054
0.000192513
0.000204744
0.000219151
0.000236381
0.000257531
0.00028452
0.000320754
0.000372205
0.000448375
0.00178471
0.00160712
0.00141368
0.00121084
0.00101435
0.000839222
0.000697727
0.000594767
0.000527328
0.000487246
0.000465767
0.000456354
0.000454608
0.000457705
0.000463869
0.000471984
0.000481338
0.00049147
0.000502077
0.00051296
0.000523993
0.000535102
0.000546254
0.000557454
0.000568734
0.000580159
0.000592021
0.000604521
0.000617586
0.000631262
0.000645585
0.000660571
0.000676205
0.000692446
0.00070922
0.00072642
0.000743909
0.000761527
0.000779099
0.000796445
0.000813395
0.000829801
0.000845544
0.000860542
0.000874753
0.000888173
0.000900828
0.000912764
0.000924042
0.000934722
0.000944861
0.000954504
0.00096368
0.000972404
0.000980906
0.000989577
0.000998427
0.00100743
0.00101655
0.00102574
0.00103494
0.00104407
0.00105307
0.00106186
0.00107035
0.00107847
0.00108615
0.00109331
0.00109988
0.00110582
0.00111105
0.00111556
0.00111929
0.00112223
0.00112436
0.00112567
0.00112616
0.00112585
0.00112473
0.00112284
0.00112019
0.0011168
0.00111271
0.00110794
0.00110252
0.00109647
0.00108984
0.00108263
0.00107488
0.00106662
0.00105785
0.0010486
0.00103889
0.00102873
0.00101813
0.0010071
0.000995641
0.000983768
0.000971497
0.000958779
0.00094548
0.000930522
0.000913583
0.000894516
0.000873211
0.000849627
0.000823801
0.000795871
0.000766092
0.000734837
0.000702591
0.000669919
0.000637432
0.00060573
0.000575356
0.000546753
0.000520242
0.000496013
0.00047414
0.000454596
0.000437282
0.000422048
0.000408717
0.000397099
0.000387005
0.000378256
0.000370689
0.000364135
0.000358435
0.000353007
0.000347769
0.000342691
0.000337745
0.000332908
0.00032816
0.000323486
0.000318871
0.000314306
0.000309782
0.000305294
0.00030084
0.000296421
0.000292038
0.000287699
0.000283412
0.000279186
0.000275035
0.000270974
0.00026702
0.000263194
0.000259514
0.000256004
0.000252685
0.000249582
0.000246718
0.000244116
0.000241801
0.000239796
0.000238124
0.000236806
0.000235863
0.000235318
0.000235189
0.000235497
0.000236261
0.000237499
0.00023923
0.000241474
0.000244253
0.000247589
0.000251511
0.000256057
0.000261447
0.000267738
0.000274936
0.000283105
0.000292339
0.000302768
0.000314579
0.000328035
0.000343517
0.000361563
0.000382928
0.000408608
0.000439731
0.000476896
0.000517956
0.00273921
0.00255656
0.00235007
0.00212038
0.00187828
0.0016359
0.00140678
0.00120349
0.0010354
0.000907323
0.000815728
0.000753814
0.000714217
0.000690377
0.000677206
0.000671074
0.000669525
0.000670944
0.00067429
0.000678905
0.000684378
0.000690453
0.000696974
0.000703844
0.000710994
0.00071837
0.000725922
0.000733729
0.000741813
0.000750129
0.000758632
0.000767267
0.000775963
0.000784639
0.000793209
0.000801583
0.000809672
0.000817398
0.000824697
0.000831523
0.000837852
0.000843683
0.000849034
0.000853942
0.000858457
0.000862633
0.000866529
0.000870198
0.000873688
0.000877038
0.000880276
0.000883421
0.000886481
0.000889455
0.000892713
0.000896543
0.000900963
0.000905977
0.000911582
0.00091777
0.000924524
0.00093182
0.00093963
0.000947914
0.000956631
0.000965728
0.000975148
0.000984829
0.000994704
0.0010047
0.00101474
0.00102476
0.00103467
0.00104441
0.0010539
0.00106309
0.0010719
0.00108028
0.00108818
0.00109557
0.0011024
0.00110864
0.00111426
0.00111926
0.00112361
0.00112729
0.00113032
0.00113267
0.00113435
0.00113536
0.00113569
0.00113534
0.00113433
0.00113264
0.00113027
0.00112723
0.0011235
0.00111909
0.001114
0.00110817
0.00110148
0.00109345
0.00108369
0.0010719
0.0010578
0.0010411
0.00102157
0.000999072
0.000973582
0.000945254
0.000914426
0.000881631
0.000847562
0.000813013
0.000778802
0.000745681
0.000714276
0.000685041
0.000658253
0.000634031
0.000612363
0.000593146
0.000576218
0.000561383
0.000548433
0.000537162
0.000527382
0.000518882
0.00051145
0.000504385
0.000497564
0.000490941
0.000484482
0.000478156
0.00047194
0.000465813
0.000459758
0.000453761
0.000447813
0.000441909
0.000436046
0.000430224
0.000424449
0.000418729
0.000413075
0.000407503
0.00040203
0.000396677
0.000391468
0.00038643
0.000381589
0.000376975
0.000372617
0.000368545
0.000364788
0.000361375
0.000358332
0.000355684
0.000353452
0.000351657
0.000350315
0.00034944
0.000349046
0.00034914
0.000349733
0.00035083
0.000352439
0.000354565
0.000357218
0.000360406
0.000364144
0.00036845
0.000373349
0.000379019
0.000385442
0.000392645
0.000400687
0.00040965
0.00041964
0.000430786
0.000443238
0.00045715
0.000472631
0.000489646
0.000507806
0.000525994
0.00054195
0.00362687
0.00344297
0.00323139
0.00299129
0.00273023
0.00245772
0.00218419
0.00191985
0.00167436
0.00145631
0.00127346
0.00112633
0.00101278
0.000928367
0.000867605
0.000825066
0.000796014
0.000776653
0.000764116
0.000756322
0.000751802
0.000749526
0.000748785
0.000749086
0.000750086
0.000751542
0.000753276
0.000755156
0.000757137
0.000759168
0.00076119
0.00076315
0.000764995
0.000766673
0.000768137
0.000769347
0.00077027
0.000770883
0.000771176
0.000771151
0.000770824
0.00077022
0.000769372
0.000768323
0.000767117
0.000765797
0.000764409
0.000762992
0.000761582
0.000760208
0.000758895
0.000757659
0.000756513
0.000755461
0.000754552
0.00075385
0.000753362
0.000753103
0.000753091
0.000753354
0.000753924
0.000754836
0.000756132
0.000757851
0.000760036
0.000762726
0.000765956
0.000769759
0.000774159
0.000779172
0.000784807
0.000791064
0.000797931
0.000805389
0.00081341
0.000821956
0.000830985
0.000840445
0.000850284
0.000860442
0.000870859
0.000881474
0.000892227
0.000903056
0.000913905
0.000924717
0.000935438
0.000946021
0.000956416
0.00096658
0.000976472
0.000986053
0.000995285
0.00100413
0.00101256
0.00102054
0.00102802
0.00103499
0.00104141
0.0010472
0.00105232
0.00105728
0.00106181
0.00106555
0.00106805
0.00106877
0.00106709
0.00106235
0.00105395
0.00104136
0.00102432
0.00100282
0.000977261
0.000948384
0.000917214
0.000884921
0.00085266
0.000821427
0.000791977
0.000764799
0.000740139
0.000718055
0.000698473
0.000681237
0.000666145
0.000652985
0.000641551
0.000631607
0.000622891
0.000614629
0.000606667
0.000598942
0.000591413
0.000584045
0.00057681
0.000569685
0.000562651
0.000555693
0.000548801
0.00054197
0.000535196
0.000528484
0.000521839
0.000515272
0.000508798
0.000502434
0.000496202
0.000490129
0.00048424
0.000478567
0.00047314
0.000467992
0.000463154
0.000458658
0.000454532
0.000450803
0.000447493
0.000444621
0.000442202
0.000440243
0.000438751
0.000437725
0.000437162
0.000437057
0.0004374
0.000438183
0.000439395
0.000441029
0.000443077
0.000445533
0.000448394
0.000451662
0.000455341
0.000459439
0.000464055
0.000469157
0.000474751
0.000480848
0.000487454
0.000494565
0.000502157
0.000510165
0.000518457
0.000526804
0.000534847
0.000542095
0.000548049
0.00444994
0.00428107
0.00408484
0.00385961
0.00360964
0.00334217
0.00306464
0.00278387
0.00250593
0.00223649
0.00198169
0.00175015
0.00154569
0.00137082
0.00122585
0.00110922
0.00101789
0.000948009
0.000895566
0.000856838
0.000828608
0.000808243
0.000793673
0.000783313
0.000775982
0.000770814
0.00076719
0.000764675
0.000762978
0.000761714
0.000760759
0.000760027
0.000759451
0.000758981
0.000758574
0.000758195
0.000757819
0.000757424
0.000756995
0.000756521
0.000755995
0.000755415
0.000754777
0.000754082
0.000753326
0.000752508
0.00075162
0.000750656
0.000749606
0.000748458
0.000747199
0.000745817
0.000744298
0.00074263
0.000740729
0.000738307
0.000735336
0.000731815
0.000727752
0.000723168
0.000718093
0.000712569
0.00070665
0.000700396
0.000693881
0.000687185
0.000680394
0.000673602
0.000666905
0.000660402
0.00065419
0.000648365
0.00064302
0.000638239
0.000634101
0.000630673
0.000628014
0.000626173
0.000625185
0.000625076
0.000625861
0.000627544
0.000630121
0.000633579
0.000637898
0.000643054
0.000649016
0.000655751
0.000663222
0.000671392
0.000680222
0.000689674
0.000699708
0.000710287
0.000721372
0.000732926
0.000744911
0.000757291
0.000770034
0.000783068
0.000796413
0.00081146
0.000828292
0.000846903
0.000867134
0.00088864
0.000910839
0.000932869
0.00095357
0.000971535
0.000985229
0.000993195
0.000994321
0.000988101
0.000974793
0.00095541
0.000931523
0.000904937
0.000877374
0.000850235
0.000824507
0.000800779
0.000779324
0.000760196
0.000743307
0.0007285
0.000715589
0.000704337
0.000694456
0.000685112
0.000676123
0.000667413
0.000658931
0.000650639
0.000642507
0.00063451
0.000626627
0.000618845
0.000611152
0.000603544
0.000596019
0.000588582
0.000581242
0.00057401
0.000566905
0.000559948
0.000553164
0.00054658
0.000540227
0.000534137
0.000528345
0.000522882
0.00051778
0.00051307
0.000508776
0.000504921
0.000501521
0.000498585
0.000496117
0.000494113
0.000492563
0.000491453
0.000490763
0.000490469
0.000490546
0.000490969
0.000491712
0.000492754
0.000494072
0.000495649
0.000497471
0.000499525
0.000501803
0.000504297
0.000507002
0.000509949
0.00051311
0.000516466
0.000519998
0.000523675
0.000527461
0.000531305
0.000535143
0.000538904
0.000542518
0.000545949
0.000549234
0.00520872
0.00507065
0.00490661
0.00471506
0.00449734
0.00425952
0.00400772
0.00374749
0.0034833
0.00321849
0.00295551
0.00269621
0.00244523
0.00220732
0.00198527
0.00178214
0.00160073
0.00144263
0.00130819
0.00119663
0.00110619
0.00103445
0.000978704
0.000936256
0.000904594
0.000881496
0.000865069
0.000853752
0.000846266
0.000841289
0.000838199
0.000836561
0.000836064
0.000836481
0.000837646
0.000839433
0.00084174
0.000844483
0.000847588
0.000850985
0.000854608
0.000858388
0.000862258
0.000866146
0.000869978
0.000873678
0.000877169
0.000880374
0.000883217
0.000885626
0.000887534
0.00088888
0.000889613
0.000889691
0.000889227
0.00088806
0.000886048
0.000883154
0.000879344
0.000874589
0.000868861
0.000862136
0.000854395
0.000845628
0.000835832
0.000825017
0.000813204
0.000800431
0.000786752
0.000772237
0.000756975
0.000741068
0.000724639
0.000707819
0.000690752
0.000673589
0.000656486
0.000639595
0.000623069
0.000607049
0.00059167
0.000577052
0.000563299
0.000550504
0.00053874
0.000528066
0.000518526
0.000510151
0.00050296
0.000496961
0.000492158
0.000488544
0.000486111
0.000484849
0.000484746
0.000485793
0.000487981
0.000491307
0.000495774
0.000501365
0.000508109
0.000516938
0.000528304
0.000542746
0.000560822
0.000583076
0.000609961
0.000641725
0.000678257
0.000718893
0.000762245
0.000806094
0.000847485
0.000883102
0.000909915
0.000925924
0.000930681
0.000925332
0.000912156
0.000893866
0.000872968
0.000851405
0.00083048
0.000810945
0.000793161
0.000777241
0.000763157
0.000750761
0.000739799
0.000729416
0.000719415
0.000709711
0.000700247
0.000690989
0.000681904
0.000672971
0.00066417
0.000655489
0.000646918
0.000638456
0.000630102
0.000621865
0.000613756
0.00060579
0.000597989
0.000590377
0.000582982
0.000575836
0.00056897
0.000562421
0.000556221
0.000550405
0.000545003
0.000540042
0.000535544
0.000531526
0.000527997
0.000524956
0.000522399
0.000520309
0.000518665
0.000517438
0.000516596
0.000516102
0.000515919
0.00051601
0.00051634
0.000516878
0.000517596
0.000518472
0.000519487
0.000520627
0.000521881
0.00052324
0.000524699
0.000526253
0.000527908
0.000529655
0.000531486
0.000533395
0.000535379
0.000537435
0.000539568
0.000541792
0.000544136
0.000546649
0.000549414
0.00585396
0.00575468
0.00563007
0.0054804
0.00530446
0.00510769
0.00489537
0.00467253
0.00444332
0.00421095
0.00397773
0.00374513
0.00351393
0.00328378
0.00305641
0.00283344
0.00261643
0.00240688
0.00220651
0.00201795
0.00184382
0.00168639
0.00154723
0.00142705
0.00132571
0.00124233
0.00117548
0.00112314
0.00108206
0.00105085
0.0010276
0.0010107
0.00099884
0.000990984
0.000986311
0.000984182
0.000984095
0.000985654
0.000988539
0.000992486
0.000997275
0.00100271
0.00100863
0.00101487
0.00102129
0.00102776
0.00103416
0.00104036
0.00104625
0.00105173
0.0010567
0.00106107
0.00106476
0.0010677
0.00106981
0.00107161
0.00107312
0.0010743
0.00107514
0.0010756
0.00107562
0.00107513
0.00107405
0.00107228
0.0010697
0.00106617
0.00106156
0.00105572
0.00104851
0.00103979
0.00102942
0.0010173
0.00100335
0.000987506
0.000969764
0.000950145
0.00092872
0.0009056
0.000880939
0.000854931
0.0008278
0.000799799
0.000771196
0.00074227
0.000713299
0.000684554
0.000656289
0.000628736
0.000602102
0.000576562
0.000552261
0.000529315
0.000507807
0.000487797
0.000469322
0.000452398
0.000437028
0.000423207
0.000410928
0.000400156
0.000390841
0.000382319
0.000375004
0.000369519
0.000366607
0.000367132
0.000372083
0.000382556
0.000399726
0.000424771
0.000458704
0.000502083
0.000554551
0.000614284
0.000677588
0.000739055
0.000792622
0.000833331
0.000858878
0.000870017
0.000869682
0.000861566
0.000848993
0.000834422
0.000819438
0.00080496
0.000791478
0.00077918
0.000768019
0.000757292
0.000746834
0.000736571
0.000726465
0.000716494
0.000706642
0.000696898
0.000687253
0.000677704
0.000668252
0.0006589
0.000649659
0.000640543
0.000631571
0.000622766
0.000614156
0.000605771
0.000597647
0.000589819
0.000582326
0.000575205
0.000568492
0.000562222
0.000556426
0.000551129
0.00054635
0.000542099
0.000538378
0.000535183
0.000532496
0.000530295
0.000528546
0.000527212
0.000526252
0.000525619
0.000525269
0.000525159
0.00052525
0.000525506
0.000525899
0.000526406
0.000527007
0.000527692
0.000528452
0.000529282
0.000530181
0.00053115
0.000532193
0.000533316
0.000534525
0.000535829
0.00053724
0.000538776
0.000540459
0.000542321
0.0005444
0.000546749
0.000549434
0.00631843
0.00625977
0.00617516
0.00606861
0.00593669
0.00578441
0.00561612
0.00543629
0.00524868
0.00505638
0.00486178
0.00466662
0.00447212
0.00427906
0.00408804
0.00389892
0.003711
0.00352434
0.00333942
0.003156
0.0029741
0.00279424
0.00261751
0.00244553
0.00228026
0.00212369
0.00197759
0.00184357
0.0017242
0.00161983
0.00153003
0.00145382
0.0013899
0.00133682
0.0012931
0.00125734
0.00122828
0.00120481
0.00118595
0.00117089
0.00115897
0.00114962
0.00114241
0.00113695
0.00113297
0.0011302
0.00112847
0.0011276
0.00112744
0.00112787
0.00112876
0.00112999
0.00113146
0.00113305
0.00113466
0.00113627
0.00113815
0.0011405
0.00114336
0.00114682
0.00115096
0.00115585
0.00116154
0.00116805
0.00117539
0.00118349
0.00119227
0.0012016
0.00121129
0.00122109
0.00123073
0.00123986
0.00124811
0.00125506
0.00126029
0.00126333
0.00126376
0.00126116
0.00125515
0.00124543
0.00123175
0.00121399
0.00119211
0.00116618
0.0011364
0.00110307
0.00106657
0.00102738
0.000986021
0.000943061
0.000899072
0.000854616
0.000810221
0.000766368
0.000723475
0.000681895
0.000641909
0.000603737
0.000567545
0.000533406
0.000501231
0.000468345
0.000435158
0.000402469
0.000371217
0.000342433
0.000317188
0.000296546
0.000281554
0.000273262
0.000272798
0.000281452
0.000300739
0.000332303
0.000377503
0.000436511
0.00050699
0.000583076
0.000656003
0.000716999
0.000760849
0.000787325
0.000799768
0.0008026
0.000799624
0.000793494
0.00078587
0.000777712
0.000769528
0.000761177
0.000752626
0.000743871
0.000734926
0.000725816
0.000716565
0.000707196
0.000697732
0.000688195
0.00067861
0.000669004
0.000659408
0.000649855
0.000640384
0.000631035
0.000621853
0.000612886
0.000604181
0.000595788
0.000587758
0.000580137
0.000572969
0.000566295
0.000560148
0.000554553
0.00054953
0.000545085
0.000541216
0.000537912
0.000535148
0.000532893
0.000531108
0.000529748
0.000528762
0.0005281
0.000527712
0.000527551
0.000527576
0.000527751
0.000528045
0.000528436
0.000528908
0.00052945
0.000530056
0.000530725
0.000531457
0.000532257
0.000533131
0.000534088
0.000535139
0.000536297
0.000537578
0.000539004
0.0005406
0.000542397
0.000544433
0.000546759
0.000549436
0.00654992
0.00652953
0.00648129
0.00641452
0.00632395
0.0062143
0.00608895
0.00595167
0.00580569
0.00565384
0.00549847
0.0053415
0.00518441
0.00502828
0.00487381
0.00472136
0.00457108
0.00442299
0.0042769
0.00413237
0.00398893
0.00384612
0.00370351
0.00356076
0.0034177
0.00327443
0.00313138
0.00298939
0.00284956
0.00271314
0.00258147
0.00245584
0.00233731
0.00222666
0.00212426
0.00203015
0.00194407
0.00186551
0.00179382
0.00172826
0.00166807
0.00161254
0.00156105
0.00151308
0.00146824
0.00142629
0.0013871
0.00135064
0.00131699
0.00128623
0.00125848
0.00123383
0.0012123
0.00119384
0.00117832
0.00116552
0.00115531
0.00114704
0.00113905
0.00113141
0.00112434
0.00111817
0.00111324
0.00110991
0.00110853
0.00110941
0.00111285
0.00111909
0.00112834
0.00114076
0.00115645
0.00117543
0.00119766
0.00122298
0.00125115
0.00128181
0.00131446
0.00134849
0.0013831
0.00141741
0.00145036
0.00148082
0.00150759
0.00152946
0.00154524
0.00155391
0.00155458
0.00154666
0.00152983
0.00150411
0.00146986
0.00142774
0.00137868
0.00132381
0.00126434
0.00120153
0.00113659
0.00107063
0.00100464
0.000939371
0.000874999
0.000806763
0.000735155
0.000661543
0.000587726
0.000515782
0.000447867
0.00038598
0.000331745
0.00028627
0.000250146
0.000223583
0.000206663
0.000199649
0.000203284
0.000219021
0.00024897
0.000295208
0.000357986
0.000433167
0.000511175
0.000580341
0.000632964
0.00066815
0.000689521
0.000701588
0.00070784
0.000710494
0.000710956
0.000710201
0.000708408
0.000705679
0.000702101
0.000697756
0.00069272
0.000687057
0.000680831
0.000674101
0.000666925
0.000659364
0.000651478
0.000643336
0.000635005
0.00062656
0.000618077
0.000609636
0.000601316
0.000593196
0.000585355
0.000577863
0.000570788
0.000564186
0.000558107
0.000552585
0.000547647
0.000543303
0.000539552
0.00053638
0.000533761
0.000531658
0.000530027
0.000528818
0.000527977
0.000527449
0.000527183
0.000527129
0.000527246
0.000527497
0.000527854
0.000528295
0.000528807
0.000529378
0.000530007
0.000530692
0.000531435
0.000532243
0.000533123
0.000534083
0.000535136
0.000536295
0.000537578
0.000539004
0.0005406
0.000542397
0.000544433
0.000546759
0.000549436
0.00652715
0.00654001
0.00652204
0.00648884
0.00643379
0.00636144
0.00627427
0.00617531
0.00606717
0.00595226
0.00583273
0.00571046
0.00558709
0.00546399
0.00534227
0.00522277
0.00510609
0.00499258
0.00488232
0.00477519
0.00467092
0.00456914
0.00446938
0.00437119
0.00427414
0.00417788
0.00408217
0.00398687
0.00389195
0.00379748
0.00370366
0.00361081
0.00351935
0.00342978
0.00334262
0.00325835
0.00317735
0.00309989
0.00302603
0.00295563
0.00288831
0.00282349
0.00276035
0.00269789
0.002635
0.00257054
0.00250344
0.00243278
0.0023579
0.00227853
0.00219483
0.00210745
0.00201757