/*--------------------------------*- C++ -*----------------------------------*\
| =========                 |                                                 |
| \\      /  F ield         | OpenFOAM: The Open Source CFD Toolbox           |
|  \\    /   O peration     | Version:  2406                                  |
|   \\  /    A nd           | Website:  www.openfoam.com                      |
|    \\/     M anipulation  |                                                 |
\*---------------------------------------------------------------------------*/
FoamFile
{
    version     2.0;
    format      ascii;
    arch        "LSB;label=32;scalar=64";
    class       volScalarField;
    location    "900";
    object      epsilon;
}
// * * * * * * * * * * * * * * * * * * * * * * * * * * * * * * * * * * * * * //

dimensions      [0 2 -3 0 0 0 0];

internalField   nonuniform List<scalar> 
5619
(
3.36889
3.37832
3.35835
3.34344
3.32951
3.31864
3.30841
3.29658
3.28161
3.26313
3.24148
3.21716
3.19082
3.1632
3.13497
3.10676
3.07912
3.05256
3.02746
3.00418
2.98289
2.96355
2.94584
2.92909
2.9124
2.89494
2.8765
2.85828
2.84267
2.83294
2.83316
2.8478
2.88091
2.93536
3.01244
3.11171
3.23132
3.36827
3.51881
3.67874
3.84355
4.00864
4.16946
4.32163
4.46105
4.58409
4.68766
4.76932
4.82733
4.8607
4.86915
4.85308
4.81349
4.75189
4.67016
4.57049
4.45519
4.32667
4.18725
4.042
3.8954
3.74943
3.60562
3.46515
3.32893
3.19761
3.07163
2.95126
2.83665
2.7278
2.62464
2.52704
2.43481
2.34774
2.26557
2.18806
2.11493
2.04594
1.98081
1.9193
1.86116
1.80616
1.75408
1.70471
1.65785
1.61331
1.57091
1.5305
1.49191
1.45501
1.41967
1.38574
1.35313
1.32172
1.29141
1.26211
1.23373
1.20618
1.17941
1.15333
1.1279
1.10055
1.07134
1.04039
1.00789
0.974087
0.939285
0.903831
0.868108
0.832519
0.797463
0.763322
0.730442
0.699114
0.66957
0.641975
0.61643
0.59297
0.571582
0.552205
0.534748
0.519093
0.505111
0.492666
0.48162
0.471839
0.463196
0.455568
0.448858
0.442331
0.435949
0.429676
0.423483
0.417339
0.411222
0.405108
0.398977
0.392814
0.386603
0.380333
0.373995
0.367583
0.361093
0.354525
0.347883
0.341173
0.334406
0.327593
0.320754
0.313908
0.30708
0.300297
0.293591
0.286996
0.280547
0.274284
0.268246
0.262472
0.257003
0.251875
0.247124
0.242781
0.238872
0.235416
0.232427
0.22991
0.22786
0.226268
0.225112
0.224368
0.224003
0.223978
0.224264
0.224823
0.225622
0.226657
0.227984
0.229763
0.232344
0.236364
0.242826
0.253082
0.268508
0.28948
0.31234
0.320609
0.265784
1.29476
1.311
1.31401
1.30761
1.29758
1.28708
1.27699
1.26692
1.2563
1.24493
1.23328
1.22159
1.21022
1.19956
1.19002
1.182
1.17591
1.17216
1.17112
1.17313
1.1784
1.18695
1.19845
1.21209
1.22629
1.23849
1.2455
1.24543
1.23635
1.21691
1.18688
1.14711
1.09967
1.04751
0.993839
0.94148
0.892508
0.848095
0.808597
0.773757
0.742929
0.715277
0.689916
0.666005
0.642812
0.61974
0.596342
0.572329
0.547557
0.522025
0.495852
0.469266
0.442581
0.416173
0.390458
0.36587
0.342843
0.322142
0.304353
0.28841
0.273412
0.259352
0.246214
0.23397
0.222588
0.21203
0.202255
0.193218
0.184874
0.177177
0.170081
0.163543
0.157518
0.151968
0.146852
0.142134
0.137781
0.133761
0.130045
0.126606
0.123419
0.120462
0.117714
0.115156
0.112772
0.110546
0.108463
0.106512
0.10468
0.102957
0.101333
0.0998005
0.0983508
0.0969772
0.0956733
0.0944332
0.0932518
0.0921246
0.0910477
0.0900156
0.0890264
0.0879788
0.0868771
0.085731
0.0845514
0.083352
0.082148
0.0809561
0.0797933
0.0786759
0.0776192
0.0766359
0.075736
0.0749262
0.0742095
0.073586
0.0730526
0.072604
0.072233
0.0719317
0.0716915
0.071504
0.0713611
0.0712556
0.0711806
0.0711305
0.0711005
0.071085
0.0710809
0.0710859
0.0710989
0.0711199
0.071149
0.0711861
0.0712316
0.071286
0.0713499
0.0714238
0.0715087
0.0716054
0.071715
0.0718387
0.0719775
0.0721329
0.0723062
0.0724987
0.0727118
0.0729469
0.0732052
0.0734877
0.0737953
0.0741287
0.0744879
0.0748728
0.0752826
0.0757158
0.0761704
0.0766435
0.0771315
0.0776302
0.0781347
0.0786395
0.0791384
0.0796251
0.0800926
0.0805333
0.0809388
0.0812988
0.0816002
0.0818256
0.0819509
0.0819421
0.081841
0.0815974
0.0811316
0.0803307
0.079047
0.0771033
0.0743204
0.0705794
0.0659253
0.0606806
0.0554701
0.0510174
0.0475961
0.0440459
0.0357099
0.591503
0.60737
0.614538
0.611942
0.603462
0.592328
0.58058
0.568971
0.557662
0.546639
0.536061
0.526024
0.516597
0.507825
0.499728
0.492287
0.485431
0.479024
0.472847
0.466588
0.459831
0.452064
0.442704
0.431155
0.416904
0.400113
0.381268
0.360506
0.338492
0.31595
0.293649
0.272301
0.252461
0.23447
0.218446
0.204322
0.191895
0.180889
0.171005
0.161955
0.15349
0.145411
0.137573
0.129888
0.122317
0.114865
0.107568
0.100483
0.0936794
0.0872269
0.08119
0.0756228
0.0705655
0.066044
0.0620693
0.0586401
0.0558055
0.0532782
0.0509344
0.048738
0.0466687
0.0447196
0.0428841
0.0411558
0.0395291
0.0379983
0.0365583
0.0352042
0.0339317
0.0327364
0.0316143
0.0305616
0.0295747
0.0286502
0.0277847
0.0269749
0.0262178
0.0255103
0.0248494
0.0242324
0.0236566
0.0231193
0.022618
0.0221504
0.0217142
0.0213073
0.0209276
0.0205733
0.0202425
0.0199337
0.0196453
0.0193759
0.0191241
0.0188889
0.018669
0.0184636
0.0182717
0.0180925
0.0179258
0.0177695
0.0176243
0.0174763
0.0173266
0.0171791
0.0170376
0.0169062
0.0167895
0.016692
0.0166181
0.0165714
0.016555
0.0165707
0.0166191
0.0166997
0.0168106
0.0169488
0.0171105
0.0172913
0.0174862
0.0176906
0.0178999
0.0181097
0.0183164
0.018517
0.018709
0.0188906
0.0190608
0.0192184
0.0193636
0.019511
0.0196611
0.0198149
0.0199729
0.0201361
0.0203052
0.020481
0.0206647
0.020857
0.0210589
0.0212716
0.021496
0.0217332
0.0219842
0.0222501
0.022532
0.0228306
0.023147
0.0234816
0.0238351
0.0242075
0.0245986
0.0250079
0.025434
0.0258749
0.0263281
0.0267898
0.0272553
0.0277188
0.0281734
0.0286108
0.0290218
0.0293961
0.0297225
0.0299895
0.0301849
0.0302967
0.0303133
0.0302235
0.0300172
0.0296862
0.0292252
0.0286536
0.0279508
0.0271026
0.0260956
0.0249181
0.023565
0.0220434
0.020382
0.0186387
0.0169057
0.0153029
0.0139533
0.0129303
0.0121633
0.0112655
0.0091252
0.286834
0.291669
0.294112
0.292585
0.287293
0.279099
0.269138
0.258403
0.247543
0.236914
0.226682
0.216929
0.207648
0.198797
0.190318
0.182141
0.174187
0.166375
0.158628
0.150884
0.143106
0.1353
0.127528
0.119915
0.112659
0.10579
0.0993845
0.0934958
0.0881677
0.083411
0.0792062
0.0755083
0.0722516
0.0693581
0.066745
0.0643331
0.0620517
0.0598433
0.0576654
0.0554913
0.0533095
0.0511219
0.0489416
0.0467893
0.0446905
0.0426719
0.0407586
0.0389723
0.0373291
0.0358392
0.0345062
0.033328
0.0322971
0.031402
0.0306276
0.0299609
0.0293371
0.0287389
0.0281572
0.0275867
0.0270234
0.0264643
0.025907
0.02535
0.0247922
0.0242334
0.0236737
0.0231137
0.0225545
0.0219972
0.0214432
0.0208941
0.0203513
0.0198162
0.0192903
0.0187746
0.0182703
0.0177783
0.0172993
0.0168338
0.0163824
0.0159451
0.0155221
0.0151135
0.014719
0.0143386
0.0139718
0.0136183
0.0132778
0.0129498
0.0126339
0.0123295
0.0120362
0.0117535
0.011481
0.0112181
0.0109645
0.0107197
0.0104839
0.0102551
0.0100337
0.00979899
0.00955036
0.00929111
0.00902434
0.00875412
0.00848504
0.00822215
0.00797056
0.00773522
0.00752047
0.0073298
0.00716558
0.00702898
0.00691997
0.00683744
0.00677942
0.00674331
0.00672611
0.00672469
0.00673596
0.006757
0.0067852
0.00681825
0.00685422
0.00689159
0.00692924
0.00696583
0.00700099
0.00703802
0.00707679
0.00711761
0.00716062
0.00720606
0.00725416
0.0073052
0.00735947
0.00741729
0.00747901
0.00754499
0.0076156
0.00769124
0.0077723
0.00785916
0.00795219
0.00805171
0.00815801
0.00827129
0.00839162
0.00851895
0.00865302
0.00879334
0.00893911
0.00908919
0.00924202
0.00939555
0.00954723
0.00969397
0.00983211
0.0099575
0.0100656
0.0101516
0.0102105
0.0102377
0.010229
0.0101809
0.0100915
0.00995996
0.00978763
0.00957797
0.00933708
0.0090631
0.00875198
0.00840896
0.00804006
0.00765282
0.00725669
0.00686345
0.00648728
0.00614423
0.00585071
0.00562006
0.00545597
0.00534027
0.00521047
0.0049233
0.0042058
0.157773
0.149123
0.139617
0.130103
0.121133
0.112993
0.105611
0.0988
0.0924405
0.086577
0.0811733
0.0762341
0.0717353
0.0676397
0.0639076
0.0605021
0.0573918
0.054552
0.051965
0.0496208
0.0475161
0.0456536
0.0440397
0.0426818
0.041584
0.0406736
0.0399119
0.0392826
0.0387614
0.0383236
0.0379445
0.0376
0.037268
0.0369288
0.0365665
0.0361692
0.0357304
0.0352483
0.034726
0.0341708
0.0335936
0.0330071
0.0324253
0.0318621
0.03133
0.0308392
0.0303975
0.0300095
0.0296766
0.0293974
0.0291681
0.0289826
0.0288334
0.028712
0.0286059
0.02849
0.028355
0.0281957
0.0280083
0.0277896
0.0275377
0.0272515
0.0269306
0.0265757
0.0261882
0.02577
0.0253238
0.0248525
0.0243593
0.0238477
0.0233212
0.0227832
0.0222369
0.0216855
0.0211319
0.0205787
0.0200282
0.0194825
0.0189433
0.0184121
0.0178901
0.0173783
0.0168774
0.0163879
0.0159103
0.0154446
0.014991
0.0145494
0.0141196
0.0137014
0.0132946
0.0128987
0.0125134
0.0121383
0.011773
0.0114171
0.0110701
0.0107318
0.0104022
0.0100792
0.00976238
0.00942314
0.00905954
0.00867484
0.0082725
0.0078573
0.007435
0.00701216
0.00659578
0.00619288
0.00580998
0.00545268
0.00512525
0.00483043
0.00456937
0.00434177
0.00414615
0.00398015
0.00384087
0.00372515
0.00362981
0.00355183
0.00348842
0.0034371
0.00339571
0.00336246
0.00333589
0.00331438
0.00329711
0.00328191
0.00326832
0.00325632
0.0032458
0.00323669
0.00322897
0.00322263
0.00321767
0.00321415
0.0032121
0.00321162
0.00321279
0.00321572
0.00322051
0.00322731
0.00323622
0.00324738
0.00326089
0.00327685
0.00329532
0.00331632
0.00333981
0.0033657
0.00339377
0.00342373
0.00345517
0.00348753
0.00352012
0.00355211
0.00358254
0.00361034
0.0036344
0.00365359
0.00366683
0.00367322
0.00367207
0.00366303
0.00364613
0.00362184
0.00359112
0.00355533
0.00351622
0.00347365
0.00342361
0.00336989
0.00331524
0.00326253
0.0032148
0.00317516
0.00314668
0.00313211
0.00313316
0.0031494
0.00317611
0.003201
0.00319956
0.00313229
0.00295543
0.1226
0.110142
0.0960006
0.0816956
0.0685244
0.0575044
0.0490295
0.0429324
0.0387174
0.0357895
0.033677
0.0320984
0.030884
0.0299322
0.0291809
0.0285908
0.0281361
0.0277995
0.0275688
0.0274352
0.0273918
0.0274328
0.027552
0.0277426
0.0279963
0.0283027
0.0286421
0.0289981
0.02936
0.0297194
0.0300689
0.0304024
0.0307145
0.0310017
0.0312618
0.0314943
0.0317005
0.031883
0.0320459
0.0321942
0.0323335
0.0324692
0.0326068
0.0327505
0.0329038
0.0330686
0.0332455
0.0334337
0.033631
0.0338339
0.0340381
0.0342382
0.0344285
0.0346027
0.0347379
0.034816
0.0348322
0.0347829
0.0346662
0.0344812
0.0342286
0.0339103
0.0335294
0.0330898
0.0325965
0.0320549
0.0314707
0.03085
0.0301988
0.0295229
0.0288282
0.0281197
0.0274023
0.0266806
0.0259582
0.0252388
0.0245251
0.0238198
0.0231248
0.0224417
0.021772
0.0211164
0.0204758
0.0198506
0.019241
0.018647
0.0180686
0.0175054
0.0169572
0.0164235
0.0159038
0.0153976
0.0149043
0.0144233
0.0139542
0.0134961
0.0130486
0.0126112
0.012184
0.0117644
0.0113507
0.0109068
0.0104297
0.00992278
0.00939012
0.0088376
0.00827241
0.00770294
0.00713834
0.00658797
0.00606077
0.00556461
0.00510573
0.00468839
0.00431473
0.00398489
0.00369732
0.00344924
0.00323705
0.00305679
0.00290442
0.00277607
0.00266821
0.00257767
0.00250166
0.00243786
0.00238435
0.00233909
0.00230081
0.00226523
0.0022316
0.00219977
0.00216952
0.00214067
0.00211309
0.0020867
0.0020614
0.00203716
0.00201396
0.00199178
0.00197067
0.00195064
0.00193177
0.00191413
0.0018978
0.00188289
0.00186949
0.00185772
0.00184767
0.00183946
0.00183316
0.00182884
0.00182653
0.00182624
0.00182794
0.00183154
0.00183693
0.00184391
0.00185228
0.00186177
0.00187209
0.00188295
0.00189408
0.00190522
0.00191618
0.00192686
0.00193727
0.00194751
0.0019578
0.00196849
0.00197998
0.00199276
0.00200604
0.00202039
0.002037
0.00205695
0.00208126
0.00211098
0.00214699
0.00218997
0.00224012
0.00229686
0.00235841
0.00242146
0.00248143
0.00253543
0.00259216
0.132616
0.122006
0.108828
0.0941462
0.0790584
0.0647893
0.0523585
0.0424085
0.0351038
0.0301678
0.0269966
0.0250702
0.0239873
0.023461
0.0232989
0.0233768
0.0236158
0.0239661
0.024396
0.0248854
0.0254213
0.0259957
0.0266034
0.0272411
0.0279069
0.0285998
0.0293193
0.0300668
0.030824
0.0315873
0.0323548
0.0331252
0.0338973
0.03467
0.0354424
0.0362139
0.0369836
0.0377511
0.0385155
0.0392763
0.0400324
0.0407827
0.0415258
0.0422596
0.0429821
0.0436902
0.0443808
0.0450499
0.0456931
0.0463053
0.0468812
0.0474151
0.0479008
0.0483324
0.0486678
0.0488784
0.0489581
0.0489042
0.0487165
0.0483973
0.0479517
0.0473869
0.0467119
0.0459376
0.0450755
0.0441382
0.0431381
0.0420878
0.0409993
0.0398836
0.0387512
0.0376113
0.036472
0.0353402
0.0342217
0.0331214
0.0320431
0.0309897
0.0299634
0.0289656
0.0279971
0.0270586
0.0261498
0.0252705
0.0244201
0.0235979
0.0228028
0.0220338
0.0212899
0.0205697
0.0198721
0.0191958
0.0185397
0.0179026
0.0172833
0.0166807
0.0160937
0.0155214
0.0149636
0.014417
0.0138786
0.0133019
0.0126832
0.0120264
0.0113368
0.0106217
0.00989021
0.00915281
0.00842107
0.00770692
0.00702182
0.00637604
0.00577785
0.00523308
0.00474481
0.00431352
0.00393741
0.00361293
0.00333542
0.00309964
0.00290024
0.00273213
0.00259062
0.00247158
0.00237138
0.00228699
0.00221592
0.00215564
0.00210439
0.00205663
0.00201136
0.00196829
0.00192713
0.00188765
0.00184965
0.001813
0.00177757
0.00174328
0.00171008
0.00167794
0.00164685
0.00161685
0.00158797
0.00156028
0.00153386
0.00150881
0.00148523
0.00146323
0.00144295
0.0014245
0.001408
0.00139356
0.00138127
0.00137121
0.00136344
0.00135797
0.00135481
0.00135391
0.0013552
0.0013586
0.00136397
0.00137118
0.0013801
0.00139058
0.00140251
0.00141581
0.00143045
0.00144645
0.00146388
0.00148288
0.00150367
0.00152649
0.00155167
0.00157916
0.00160956
0.00164347
0.00168151
0.00172433
0.0017726
0.00182703
0.00188834
0.00195731
0.00203492
0.00212267
0.0022234
0.0023431
0.0024938
0.169255
0.163485
0.154353
0.142176
0.127479
0.111265
0.0946813
0.0788861
0.0648761
0.0533424
0.044571
0.0382049
0.0338345
0.0310233
0.0293721
0.028555
0.0283238
0.0284983
0.0289523
0.0295993
0.0303812
0.0312602
0.0322127
0.0332252
0.0342913
0.0354098
0.0365827
0.0378145
0.0391046
0.0404339
0.0418032
0.043213
0.0446631
0.0461531
0.0476813
0.0492455
0.0508422
0.0524674
0.0541158
0.0557814
0.0574574
0.0591366
0.0608107
0.0624714
0.0641095
0.0657155
0.0672797
0.0687917
0.0702409
0.0716167
0.0729081
0.0741047
0.075196
0.0761724
0.0769717
0.0775207
0.0778073
0.0778252
0.0775739
0.077058
0.0762873
0.0752763
0.0740435
0.0726109
0.0710028
0.0692452
0.0673648
0.065388
0.0633405
0.0612466
0.0591283
0.0570057
0.0548962
0.0528146
0.0507732
0.0487818
0.046848
0.0449772
0.0431732
0.041438
0.0397725
0.0381763
0.0366483
0.0351867
0.0337891
0.032453
0.0311753
0.0299531
0.0287832
0.0276625
0.026588
0.0255566
0.0245655
0.0236119
0.0226933
0.0218072
0.0209512
0.0201234
0.0193225
0.018544
0.0177827
0.0169726
0.0161099
0.0152009
0.0142538
0.0132791
0.0122896
0.0112995
0.0103237
0.00937757
0.00847518
0.0076289
0.00684843
0.00614031
0.00550775
0.00495079
0.00446667
0.00405052
0.00369602
0.00339613
0.00314367
0.00293177
0.00275417
0.00260535
0.00248051
0.00237566
0.00228754
0.002213
0.00214969
0.00209087
0.00203524
0.00198238
0.00193188
0.00188347
0.00183689
0.00179195
0.0017485
0.00170643
0.00166565
0.00162613
0.00158784
0.00155079
0.00151503
0.0014806
0.0014476
0.00141611
0.00138624
0.00135811
0.00133185
0.00130758
0.00128543
0.00126552
0.00124795
0.00123282
0.00122019
0.00121011
0.0012026
0.00119764
0.0011952
0.00119522
0.0011976
0.00120224
0.00120904
0.00121787
0.00122864
0.00124128
0.00125574
0.00127201
0.00129015
0.00131025
0.00133247
0.00135702
0.00138419
0.00141432
0.00144764
0.00148473
0.00152618
0.00157267
0.00162505
0.0016843
0.00175169
0.0018288
0.00191776
0.00202148
0.0021441
0.00229154
0.00247204
0.223142
0.224759
0.222741
0.216777
0.206689
0.193022
0.176544
0.158195
0.139001
0.12002
0.102327
0.0869879
0.0741794
0.0639483
0.0561236
0.0504195
0.046496
0.0440073
0.042643
0.0421432
0.0422993
0.0429501
0.0439747
0.0452853
0.0468205
0.0485399
0.0504193
0.052447
0.0546233
0.0569081
0.0593019
0.0618066
0.064424
0.0671547
0.069998
0.0729512
0.0760098
0.0791667
0.0824127
0.0857359
0.0891224
0.0925559
0.0960183
0.0994896
0.102948
0.106371
0.109735
0.113014
0.116184
0.119219
0.122095
0.124788
0.127275
0.129536
0.131538
0.133095
0.134177
0.134763
0.134843
0.134416
0.133489
0.132079
0.130213
0.127924
0.12525
0.122235
0.118928
0.115378
0.111635
0.107748
0.103763
0.099724
0.0956716
0.0916411
0.0876632
0.0837641
0.079965
0.0762826
0.0727295
0.0693144
0.0660425
0.0629163
0.0599358
0.057099
0.0544023
0.0518409
0.0494091
0.0471007
0.0449092
0.0428276
0.0408492
0.0389673
0.0371755
0.0354674
0.0338373
0.0322795
0.0307888
0.0293606
0.0279915
0.0266736
0.0253988
0.0240528
0.0226338
0.0211557
0.0196346
0.0180903
0.016545
0.0150228
0.0135475
0.0121418
0.0108251
0.0096126
0.00851399
0.00753368
0.00667096
0.00592105
0.0052762
0.00472685
0.0042625
0.00387246
0.00354637
0.00327456
0.00304832
0.00286001
0.00270305
0.002572
0.00246242
0.00237019
0.0022922
0.00222016
0.00215236
0.00208815
0.00202702
0.00196859
0.00191254
0.00185861
0.00180662
0.00175641
0.00170786
0.00166091
0.00161553
0.0015717
0.00152946
0.00148886
0.00144997
0.00141288
0.0013777
0.00134455
0.00131353
0.00128479
0.00125844
0.0012346
0.00121335
0.0011948
0.001179
0.00116598
0.00115578
0.00114836
0.00114368
0.00114168
0.00114227
0.00114535
0.00115079
0.00115849
0.00116835
0.00118029
0.00119425
0.00121023
0.00122827
0.00124845
0.00127093
0.00129591
0.00132367
0.00135455
0.00138897
0.00142739
0.00147045
0.00151892
0.00157371
0.00163597
0.00170713
0.00178897
0.00188379
0.00199459
0.00212525
0.00228091
0.0024683
0.28231
0.292718
0.299841
0.303213
0.302094
0.296726
0.287475
0.274826
0.259273
0.241316
0.221499
0.200462
0.179385
0.159317
0.140729
0.12409
0.109742
0.0978063
0.0882497
0.0809385
0.075661
0.0721683
0.0702052
0.0695289
0.0699211
0.0711933
0.0731889
0.0757832
0.0788635
0.0822926
0.0860355
0.0900712
0.0943865
0.0989728
0.103824
0.108932
0.114288
0.119883
0.125699
0.131719
0.13792
0.144272
0.150745
0.157301
0.163902
0.170504
0.17706
0.183523
0.189843
0.19597
0.201852
0.207442
0.212691
0.217557
0.222078
0.226013
0.229224
0.231656
0.233271
0.234041
0.233954
0.233015
0.231238
0.228657
0.225313
0.221261
0.216566
0.211298
0.205532
0.199347
0.192823
0.186039
0.179071
0.171989
0.164862
0.157748
0.150702
0.14377
0.13699
0.130396
0.124011
0.117854
0.111939
0.106274
0.100861
0.0957002
0.0907881
0.0861186
0.0816834
0.0774732
0.0734771
0.069684
0.0660823
0.0626604
0.0594067
0.05631
0.0533595
0.0505454
0.0478599
0.0452877
0.0428165
0.0402139
0.037484
0.034657
0.0317667
0.028854
0.0259646
0.0231469
0.0204494
0.0179175
0.0155896
0.0134938
0.0116454
0.0100461
0.008685
0.00754141
0.00658909
0.00580018
0.00514828
0.00461014
0.00416612
0.00379986
0.00349773
0.00324834
0.00304217
0.00287136
0.00272953
0.00261104
0.00251155
0.00242041
0.00233523
0.00225505
0.00217914
0.00210698
0.00203812
0.00197223
0.00190902
0.00184829
0.00178988
0.00173367
0.00167959
0.00162763
0.00157779
0.0015301
0.00148461
0.00144142
0.0014006
0.00136227
0.00132653
0.00129349
0.00126325
0.00123591
0.00121155
0.00119022
0.00117198
0.00115682
0.00114474
0.0011357
0.00112964
0.00112645
0.00112605
0.00112829
0.00113305
0.0011402
0.00114963
0.00116125
0.00117501
0.00119088
0.00120889
0.00122914
0.00125178
0.001277
0.00130508
0.00133637
0.0013713
0.00141039
0.00145426
0.0015037
0.00155965
0.00162325
0.00169596
0.00177957
0.00187634
0.00198917
0.00212182
0.00227919
0.00246778
0.332535
0.351367
0.367594
0.381116
0.39083
0.396914
0.39956
0.399069
0.395684
0.389569
0.380792
0.36934
0.355155
0.338218
0.319131
0.298509
0.277038
0.255295
0.233838
0.213359
0.194468
0.177648
0.163238
0.151426
0.142277
0.135751
0.131739
0.129921
0.129731
0.13103
0.133594
0.137241
0.141826
0.147235
0.153381
0.160192
0.167614
0.175597
0.184096
0.193068
0.202469
0.212252
0.222367
0.232761
0.243374
0.254145
0.265005
0.275882
0.286703
0.297389
0.30786
0.318033
0.327829
0.337166
0.345966
0.354382
0.36184
0.368213
0.373409
0.377354
0.38
0.38132
0.381309
0.379984
0.377382
0.373557
0.368579
0.362531
0.355507
0.347608
0.338941
0.329617
0.319746
0.309437
0.298796
0.287922
0.27691
0.265846
0.254809
0.243866
0.233079
0.222498
0.212166
0.202117
0.192379
0.18297
0.173904
0.16519
0.156829
0.148821
0.141161
0.133843
0.126856
0.120189
0.113828
0.10776
0.101968
0.0964398
0.0911613
0.0861048
0.0812512
0.0761353
0.0707661
0.0652
0.0594989
0.0537369
0.0479962
0.0423654
0.0369362
0.0318009
0.0270466
0.0227497
0.0189672
0.0157294
0.013034
0.0108468
0.00910785
0.00774288
0.00667546
0.00583707
0.00517224
0.00463931
0.00420813
0.00385692
0.00356949
0.00333338
0.00313885
0.00297762
0.00284337
0.00272154
0.00260869
0.00250327
0.00240421
0.00231073
0.00222219
0.00213809
0.00205801
0.00198164
0.00190874
0.00183911
0.00177263
0.00170922
0.00164885
0.00159152
0.00153723
0.00148605
0.00143803
0.00139324
0.00135175
0.00131363
0.00127894
0.00124774
0.00122006
0.00119592
0.00117531
0.00115819
0.00114451
0.00113419
0.00112711
0.00112313
0.00112213
0.00112393
0.00112837
0.00113531
0.00114461
0.00115617
0.0011699
0.00118579
0.00120386
0.0012242
0.00124694
0.00127229
0.00130053
0.001332
0.00136714
0.00140647
0.00145063
0.00150038
0.00155668
0.00162067
0.0016938
0.00177783
0.00187504
0.00198828
0.00212129
0.00227893
0.00246771
0.362763
0.388084
0.411431
0.433401
0.452644
0.469388
0.483757
0.496029
0.506443
0.515191
0.522384
0.528041
0.532083
0.534346
0.534555
0.532335
0.527288
0.519314
0.508475
0.494756
0.47833
0.459583
0.439096
0.417589
0.39584
0.374594
0.354493
0.336187
0.320429
0.307445
0.297282
0.289862
0.285032
0.282597
0.282347
0.284072
0.287576
0.292681
0.299225
0.307071
0.316094
0.326187
0.337256
0.349213
0.361977
0.375468
0.389604
0.404299
0.419458
0.434975
0.450735
0.466608
0.482459
0.498143
0.513511
0.52857
0.543162
0.556107
0.567178
0.576245
0.583221
0.58806
0.590758
0.591345
0.589884
0.586461
0.581186
0.574184
0.565596
0.55557
0.544263
0.531837
0.518454
0.504273
0.489452
0.47414
0.458479
0.4426
0.426624
0.410657
0.394792
0.37911
0.363677
0.348547
0.33376
0.319348
0.305332
0.291725
0.278534
0.265761
0.253407
0.241468
0.22994
0.218819
0.2081
0.197777
0.187842
0.178291
0.16912
0.160291
0.151781
0.142798
0.133345
0.123517
0.113416
0.103162
0.0928758
0.0826812
0.072698
0.0630446
0.0538432
0.0452243
0.0373274
0.0302905
0.0242275
0.0192003
0.0151971
0.0121289
0.00984795
0.00818143
0.00696417
0.0060609
0.00537335
0.00483615
0.00440765
0.00406115
0.0037786
0.00354648
0.00335486
0.00318263
0.00302455
0.0028781
0.00274164
0.00261395
0.00249405
0.00238116
0.00227464
0.00217398
0.00207878
0.00198871
0.00190355
0.00182311
0.00174727
0.00167594
0.00160907
0.00154663
0.0014886
0.00143499
0.00138577
0.00134096
0.00130053
0.00126445
0.00123268
0.00120516
0.00118179
0.00116247
0.00114706
0.00113541
0.00112734
0.00112267
0.00112118
0.00112267
0.00112694
0.0011338
0.00114309
0.00115467
0.00116847
0.00118444
0.00120259
0.00122301
0.00124583
0.00127126
0.00129957
0.00133112
0.00136633
0.00140573
0.00144995
0.00149978
0.00155615
0.00162023
0.00169343
0.00177754
0.00187482
0.00198813
0.00212119
0.00227888
0.00246769
0.369267
0.398306
0.425764
0.453007
0.478525
0.502591
0.52525
0.546748
0.567322
0.587222
0.606671
0.625859
0.64492
0.663932
0.682908
0.701804
0.720517
0.738849
0.756498
0.773106
0.788257
0.801503
0.812397
0.820542
0.825649
0.827583
0.826398
0.82235
0.81585
0.807478
0.797907
0.787821
0.777848
0.768516
0.760224
0.75324
0.747709
0.743671
0.741087
0.739865
0.739881
0.741007
0.743129
0.746166
0.750082
0.754898
0.76069
0.76758
0.775723
0.785282
0.796406
0.809202
0.823713
0.839898
0.857627
0.876676
0.897371
0.918887
0.936697
0.950577
0.960401
0.966229
0.968179
0.966419
0.96116
0.952638
0.941103
0.926811
0.910025
0.891009
0.870028
0.847347
0.823233
0.79795
0.771759
0.744917
0.717676
0.690274
0.662938
0.63588
0.609288
0.583329
0.558142
0.533836
0.51049
0.488152
0.466839
0.446538
0.427213
0.408805
0.391244
0.374447
0.358332
0.34282
0.327846
0.313358
0.299318
0.285713
0.27255
0.259788
0.247393
0.234308
0.220517
0.206175
0.19145
0.176528
0.161583
0.146762
0.132165
0.11785
0.10384
0.0901614
0.0768807
0.0641447
0.0521987
0.0413655
0.0319762
0.0242711
0.0183137
0.0139663
0.0109393
0.00888555
0.00748802
0.00650708
0.00578611
0.00523269
0.00479465
0.00444116
0.00415312
0.00389695
0.00366411
0.0034504
0.0032531
0.00307019
0.00290008
0.00274147
0.0025933
0.00245471
0.00232501
0.00220362
0.0020901
0.00198407
0.00188524
0.00179335
0.0017082
0.00162961
0.00155742
0.00149146
0.00143159
0.00137766
0.0013295
0.00128695
0.00124982
0.00121792
0.00119103
0.00116892
0.00115136
0.00113809
0.00112882
0.0011233
0.00112125
0.00112238
0.00112645
0.00113323
0.0011425
0.00115412
0.00116798
0.00118402
0.00120225
0.00122274
0.00124562
0.0012711
0.00129946
0.00133103
0.00136627
0.00140569
0.00144993
0.00149976
0.00155614
0.00162022
0.00169342
0.00177754
0.00187482
0.00198813
0.00212119
0.00227888
0.00246769
0.355854
0.385837
0.414414
0.44359
0.471794
0.499314
0.526093
0.552293
0.578087
0.603703
0.629397
0.655444
0.68213
0.709734
0.738529
0.768766
0.800667
0.834409
0.870134
0.907953
0.94792
0.990025
1.03419
1.08026
1.12803
1.17722
1.22752
1.2786
1.33015
1.38187
1.43357
1.48512
1.53649
1.58776
1.63906
1.69054
1.74235
1.79455
1.84709
1.89974
1.95207
2.00341
2.05283
2.09914
2.14094
2.17676
2.20514
2.2248
2.23478
2.23462
2.22446
2.20512
2.1781
2.1455
2.10984
2.07385
2.04015
2.01289
1.99891
1.98858
1.97194
1.94979
1.9224
1.89018
1.85363
1.81323
1.76943
1.72264
1.67325
1.6216
1.56799
1.5127
1.456
1.39813
1.33936
1.27996
1.22021
1.16043
1.10093
1.04208
0.984258
0.927842
0.873229
0.820802
0.770915
0.723877
0.679937
0.639263
0.601933
0.567925
0.537115
0.509282
0.48412
0.461259
0.440294
0.420823
0.402482
0.384983
0.368147
0.351815
0.33586
0.319055
0.301411
0.283204
0.264771
0.246488
0.2287
0.211674
0.19554
0.180258
0.165611
0.151243
0.136729
0.121688
0.105917
0.0895191
0.0729837
0.0571429
0.0429766
0.031302
0.0224912
0.0163809
0.0124196
0.00993515
0.00835408
0.00728868
0.00651772
0.00592733
0.00546084
0.00505335
0.00468833
0.00435774
0.00405642
0.0037805
0.00352697
0.00329336
0.00307769
0.00287835
0.00269399
0.00252354
0.00236606
0.00222081
0.00208711
0.00196439
0.00185213
0.00174984
0.00165707
0.00157339
0.00149837
0.00143159
0.00137264
0.0013211
0.00127657
0.00123864
0.0012069
0.00118095
0.00116038
0.00114478
0.00113378
0.00112696
0.00112397
0.00112445
0.00112807
0.00113455
0.00114364
0.00115515
0.00116894
0.00118494
0.00120314
0.00122361
0.00124648
0.00127194
0.00130027
0.00133181
0.00136701
0.00140638
0.00145056
0.00150034
0.00155665
0.00162065
0.00169378
0.00177783
0.00187503
0.00198828
0.00212129
0.00227893
0.00246771
0.330904
0.359662
0.38708
0.415552
0.443557
0.471376
0.498859
0.526074
0.55309
0.580058
0.607188
0.634751
0.663071
0.692517
0.723494
0.756434
0.791785
0.830015
0.871602
0.917018
0.966704
1.02106
1.08042
1.14507
1.21521
1.29102
1.37259
1.46003
1.55339
1.65273
1.75805
1.86939
1.98678
2.11027
2.23995
2.37593
2.51833
2.66733
2.82311
2.98587
3.15583
3.33321
3.51807
3.71015
3.90882
4.11292
4.3207
4.52961
4.73606
4.93519
5.12078
5.28539
5.42063
5.51785
5.56912
5.56855
5.51374
5.40654
5.25205
5.07418
4.90067
4.74342
4.5838
4.41852
4.25081
4.08275
3.91574
3.75069
3.58823
3.42875
3.27242
3.1193
2.96933
2.82237
2.67825
2.53675
2.39768
2.2608
2.12594
1.993
1.86198
1.73302
1.60643
1.48271
1.36255
1.2468
1.13643
1.03253
0.936141
0.848241
0.769593
0.700641
0.641415
0.591479
0.549933
0.515481
0.486573
0.461608
0.439182
0.418179
0.397787
0.376296
0.353654
0.330275
0.306783
0.283923
0.262461
0.243077
0.226266
0.212251
0.200922
0.191811
0.18409
0.176622
0.168054
0.157008
0.142401
0.123877
0.102209
0.0793587
0.0579559
0.040311
0.0275275
0.0192962
0.0144261
0.0116084
0.00988594
0.00872203
0.0078667
0.00714618
0.00651692
0.00595887
0.00545959
0.00501012
0.00460358
0.00423458
0.00389879
0.00359274
0.00331357
0.00305891
0.00282681
0.00261557
0.00242374
0.00225001
0.00209322
0.00195229
0.00182619
0.00171395
0.00161464
0.00152735
0.00145122
0.0013854
0.00132908
0.0012815
0.00124193
0.00120965
0.00118403
0.00116442
0.00115024
0.00114094
0.001136
0.00113496
0.0011374
0.00114294
0.00115129
0.00116221
0.00117552
0.00119112
0.00120898
0.00122915
0.00125175
0.00127695
0.00130503
0.00133632
0.00137126
0.00141034
0.00145423
0.00150367
0.00155962
0.00162324
0.00169595
0.00177956
0.00187633
0.00198917
0.00212182
0.00227919
0.00246778
0.303551
0.329807
0.354755
0.380914
0.4069
0.432979
0.458947
0.484791
0.510492
0.53611
0.561778
0.587713
0.61421
0.641638
0.670435
0.701091
0.734145
0.770178
0.809801
0.853635
0.902291
0.956357
1.01639
1.08292
1.15644
1.23742
1.32632
1.4236
1.5297
1.64506
1.77007
1.90511
2.05049
2.2065
2.37334
2.55116
2.73998
2.93974
3.15029
3.37138
3.60281
3.84448
4.0963
4.35784
4.62833
4.90677
5.19201
5.48299
5.77871
6.07822
6.38086
6.68645
6.99506
7.30636
7.61907
7.92974
8.23152
8.51315
8.76004
8.95446
9.07395
9.09137
9.0305
8.90753
8.73355
8.51479
8.25841
7.97418
7.67046
7.35368
7.02879
6.69982
6.37003
6.04202
5.71789
5.39925
5.08733
4.78279
4.48582
4.19619
3.91333
3.63651
3.36493
3.09792
2.83506
2.57635
2.32228
2.074
1.83342
1.60335
1.38741
1.18978
1.01465
0.865505
0.744249
0.650498
0.581306
0.531559
0.49508
0.465999
0.439913
0.413055
0.384595
0.354799
0.324486
0.294753
0.266783
0.241686
0.220395
0.203593
0.191674
0.184729
0.182511
0.184375
0.189175
0.195122
0.199664
0.199541
0.191304
0.172585
0.143873
0.1095
0.0762366
0.049878
0.0325155
0.0226661
0.0174628
0.0145743
0.0127432
0.0113151
0.0101222
0.00909581
0.00819841
0.00740556
0.00669988
0.00606843
0.00550128
0.00499059
0.00453011
0.00411473
0.00374022
0.00340301
0.00310003
0.0028286
0.00258627
0.00237085
0.00218025
0.00201253
0.0018658
0.00173829
0.00162828
0.00153412
0.00145427
0.00138727
0.00133174
0.00128643
0.00125018
0.00122195
0.00120077
0.00118578
0.00117621
0.00117139
0.00117073
0.00117373
0.00117996
0.00118911
0.00120093
0.00121527
0.00123204
0.00125125
0.00127298
0.00129739
0.0013247
0.00135524
0.00138938
0.00142763
0.00147059
0.00151899
0.00157375
0.00163599
0.00170713
0.00178897
0.00188379
0.00199458
0.00212525
0.00228091
0.0024683
0.28108
0.304433
0.326486
0.349692
0.372849
0.396202
0.419531
0.442779
0.465867