/*--------------------------------*- C++ -*----------------------------------*\
| =========                 |                                                 |
| \\      /  F ield         | OpenFOAM: The Open Source CFD Toolbox           |
|  \\    /   O peration     | Version:  2406                                  |
|   \\  /    A nd           | Website:  www.openfoam.com                      |
|    \\/     M anipulation  |                                                 |
\*---------------------------------------------------------------------------*/
FoamFile
{
    version     2.0;
    format      ascii;
    arch        "LSB;label=32;scalar=64";
    class       volScalarField;
    location    "900";
    object      k;
}
// * * * * * * * * * * * * * * * * * * * * * * * * * * * * * * * * * * * * * //

dimensions      [0 2 -2 0 0 0 0];

internalField   nonuniform List<scalar> 
5619
(
0.041256
0.0413225
0.0411537
0.0410281
0.0409111
0.0408184
0.0407299
0.0406278
0.0405002
0.0403446
0.0401636
0.0399609
0.0397418
0.0395122
0.0392776
0.039043
0.0388131
0.0385919
0.038383
0.0381894
0.0380127
0.0378527
0.0377066
0.0375688
0.0374314
0.0372872
0.0371349
0.0369849
0.0368576
0.0367811
0.0367909
0.0369256
0.0372196
0.0376955
0.0383609
0.0392072
0.0402133
0.0413487
0.0425782
0.0438643
0.0451695
0.0464578
0.0476952
0.0488508
0.0498972
0.0508111
0.0515735
0.05217
0.0525909
0.0528313
0.0528905
0.0527718
0.0524819
0.0520304
0.0514294
0.0506922
0.0498332
0.0488674
0.0478091
0.046695
0.0455573
0.0444105
0.0432662
0.0421339
0.0410212
0.0399342
0.0388775
0.0378545
0.0368674
0.0359176
0.0350058
0.0341321
0.0332962
0.0324972
0.0317342
0.031006
0.0303111
0.0296481
0.0290154
0.0284114
0.0278346
0.0272834
0.0267563
0.0262518
0.0257683
0.0253046
0.0248593
0.0244311
0.0240186
0.0236209
0.0232367
0.022865
0.0225048
0.0221552
0.0218151
0.0214838
0.0211605
0.0208443
0.0205347
0.0202308
0.0199323
0.0196087
0.0192601
0.0188874
0.0184919
0.0180761
0.0176429
0.0171961
0.0167399
0.0162792
0.0158189
0.0153641
0.0149197
0.01449
0.0140788
0.0136893
0.0133237
0.0129835
0.0126694
0.0123815
0.0121191
0.0118815
0.0116672
0.0114747
0.0113026
0.0111491
0.0110125
0.0108913
0.0107841
0.0106793
0.0105764
0.0104747
0.0103738
0.0102732
0.0101726
0.0100715
0.00996967
0.00986674
0.00976247
0.00965665
0.00954907
0.00943962
0.00932819
0.00921475
0.00909931
0.00898194
0.00886278
0.00874202
0.00861992
0.00849684
0.00837319
0.00824945
0.00812618
0.00800404
0.0078837
0.00776594
0.00765155
0.00754137
0.00743625
0.00733702
0.00724447
0.00715936
0.00708231
0.00701385
0.00695436
0.00690406
0.00686297
0.00683096
0.00680769
0.00679269
0.00678531
0.00678482
0.0067906
0.00680187
0.00681797
0.00683882
0.00686547
0.00690114
0.00695274
0.0070327
0.00716031
0.00736052
0.00765667
0.00805034
0.00846876
0.00861758
0.00760479
0.0444366
0.0445025
0.0442599
0.0437838
0.0432508
0.0427443
0.0422875
0.0418635
0.0414494
0.0410373
0.0406372
0.0402521
0.0398874
0.0395493
0.0392442
0.0389788
0.038759
0.0385904
0.0384773
0.0384222
0.0384242
0.0384769
0.0385655
0.0386622
0.0387215
0.038675
0.0384396
0.0379592
0.0371806
0.0360939
0.034708
0.0330611
0.0312254
0.0292934
0.0273608
0.0255093
0.0237972
0.0222563
0.020896
0.0197091
0.0186787
0.0177833
0.0170004
0.0163088
0.0156898
0.0151276
0.0146093
0.0141246
0.0136658
0.0132271
0.0128046
0.012396
0.0120001
0.0116169
0.0112473
0.010893
0.0105567
0.010242
0.00995351
0.00968239
0.00942021
0.00916659
0.00892134
0.0086844
0.00845586
0.00823585
0.00802455
0.00782211
0.00762869
0.00744438
0.00726922
0.00710318
0.00694619
0.00679809
0.00665868
0.00652771
0.00640486
0.00628982
0.00618222
0.00608169
0.00598784
0.00590029
0.00581864
0.00574253
0.00567159
0.00560546
0.00554381
0.00548632
0.00543271
0.00538268
0.00533598
0.00529238
0.00525164
0.00521358
0.005178
0.00514475
0.00511366
0.0050846
0.00505748
0.00503211
0.00500845
0.00498416
0.00495954
0.00493509
0.00491137
0.00488898
0.0048686
0.00485086
0.00483639
0.00482572
0.00481925
0.00481722
0.00481968
0.00482651
0.0048374
0.0048519
0.00486945
0.00488941
0.00491114
0.004934
0.0049574
0.00498084
0.00500387
0.00502616
0.00504743
0.00506752
0.00508631
0.00510368
0.00511965
0.00513585
0.00515231
0.00516912
0.00518635
0.00520408
0.00522239
0.00524137
0.00526109
0.00528167
0.00530318
0.00532572
0.00534939
0.00537427
0.00540046
0.00542804
0.00545709
0.00548767
0.00551985
0.00555366
0.00558911
0.0056262
0.00566488
0.00570506
0.00574663
0.00578939
0.00583312
0.00587751
0.00592222
0.0059668
0.00601077
0.00605359
0.00609467
0.00613337
0.00616903
0.00620097
0.0062285
0.00625089
0.00626739
0.00627713
0.00627909
0.00627197
0.00625402
0.00622283
0.00618035
0.00612502
0.00605097
0.00595038
0.00581316
0.00562746
0.00538163
0.00506868
0.00469374
0.00428274
0.00388677
0.00357551
0.00342087
0.003484
0.00379533
0.0388239
0.03835
0.0376921
0.0368388
0.0359337
0.0350565
0.034246
0.0334988
0.0327987
0.0321328
0.0315034
0.0309089
0.0303471
0.0298149
0.0293088
0.0288233
0.0283513
0.0278828
0.0274048
0.0269014
0.0263534
0.0257394
0.0250375
0.0242277
0.0232959
0.0222535
0.0211263
0.0199422
0.0187389
0.0175561
0.0164316
0.0153979
0.0144783
0.013685
0.0130201
0.0124773
0.0120448
0.0117083
0.0114525
0.0112626
0.0111252
0.011028
0.0109608
0.0109147
0.0108824
0.0108579
0.0108365
0.0108149
0.0107903
0.0107611
0.010726
0.0106845
0.0106363
0.0105816
0.0105205
0.0104535
0.0103755
0.0102869
0.0101873
0.0100762
0.00995337
0.00981925
0.0096743
0.00951925
0.00935496
0.00918245
0.00900285
0.00881738
0.00862729
0.00843386
0.00823836
0.00804199
0.00784591
0.00765117
0.00745874
0.00726946
0.00708406
0.00690315
0.00672723
0.00655669
0.0063918
0.00623278
0.00607971
0.00593264
0.00579155
0.00565635
0.00552693
0.00540313
0.00528477
0.00517165
0.00506357
0.00496029
0.00486161
0.0047673
0.00467713
0.00459091
0.00450843
0.0044295
0.00435401
0.00428157
0.00421215
0.00413891
0.00406215
0.00398289
0.00390223
0.00382149
0.00374211
0.00366564
0.00359357
0.0035273
0.00346799
0.00341651
0.00337338
0.00333874
0.0033124
0.00329386
0.0032824
0.00327713
0.00327708
0.00328127
0.00328876
0.00329868
0.00331026
0.00332284
0.0033359
0.00334902
0.00336189
0.0033742
0.00338585
0.00339795
0.0034105
0.00342357
0.00343722
0.00345149
0.00346648
0.00348224
0.00349887
0.00351644
0.00353506
0.00355481
0.00357579
0.0035981
0.00362184
0.0036471
0.00367396
0.00370251
0.0037328
0.00376487
0.00379873
0.00383436
0.00387168
0.00391058
0.00395085
0.00399222
0.00403434
0.00407673
0.00411883
0.00415994
0.00419925
0.00423584
0.00426867
0.00429662
0.00431849
0.00433303
0.00433898
0.00433511
0.00432022
0.0042932
0.00425303
0.0041989
0.00413026
0.00404847
0.00395437
0.00384702
0.00372574
0.00359043
0.00344212
0.00328366
0.00312063
0.00296229
0.00282217
0.00271814
0.00267186
0.00270798
0.00285261
0.00312709
0.00351414
0.0354293
0.0334308
0.0315165
0.0297672
0.028255
0.0269528
0.0258111
0.0247834
0.0238379
0.0229546
0.0221269
0.0213488
0.0206129
0.0199124
0.0192412
0.0185937
0.0179644
0.0173489
0.0167432
0.0161449
0.0155538
0.0149722
0.0144058
0.0138642
0.0133609
0.0129047
0.0125034
0.0121611
0.0118805
0.0116623
0.0115043
0.0114027
0.0113519
0.0113455
0.0113764
0.0114377
0.0115225
0.0116246
0.0117383
0.0118586
0.0119812
0.0121026
0.01222
0.0123315
0.0124357
0.0125319
0.0126198
0.0126995
0.0127712
0.0128354
0.0128922
0.012942
0.0129847
0.0130199
0.013047
0.0130607
0.0130623
0.0130507
0.0130249
0.0129841
0.0129276
0.012855
0.0127662
0.0126613
0.0125405
0.0124045
0.0122541
0.0120901
0.0119137
0.0117263
0.011529
0.0113233
0.0111105
0.0108921
0.0106694
0.0104435
0.0102157
0.00998706
0.00975854
0.00953101
0.00930524
0.00908188
0.00886147
0.00864447
0.00843126
0.00822211
0.00801723
0.00781677
0.00762081
0.00742939
0.00724251
0.00706013
0.00688217
0.00670855
0.00653915
0.00637387
0.00621254
0.0060551
0.00590156
0.00575119
0.00560391
0.00544583
0.00527648
0.00509732
0.00490996
0.00471664
0.00452005
0.00432325
0.00412953
0.00394216
0.00376419
0.00359822
0.00344625
0.00330954
0.00318863
0.0030834
0.00299314
0.00291677
0.00285292
0.00280013
0.00275688
0.00272175
0.00269343
0.00267073
0.00265263
0.00263827
0.00262696
0.00261797
0.00261088
0.00260473
0.00259936
0.00259475
0.00259085
0.00258765
0.00258511
0.00258326
0.00258209
0.00258163
0.00258192
0.00258297
0.00258485
0.00258761
0.00259129
0.00259595
0.00260167
0.00260847
0.00261642
0.00262555
0.00263587
0.00264738
0.00266003
0.00267375
0.00268842
0.00270386
0.0027198
0.00273595
0.00275189
0.00276715
0.00278118
0.00279335
0.00280301
0.00280944
0.00281198
0.00280999
0.00280293
0.00279043
0.0027723
0.00274864
0.00271984
0.00268667
0.00265035
0.00261183
0.0025719
0.00253185
0.00249328
0.00245824
0.00242928
0.00240958
0.0024031
0.00241464
0.00244992
0.00251563
0.00261925
0.00276859
0.00297001
0.00322295
0.00350598
0.0372481
0.0334351
0.0295164
0.0258266
0.0226784
0.0202142
0.0183939
0.0170638
0.0160612
0.0152714
0.0146241
0.014081
0.013618
0.013219
0.0128734
0.0125734
0.0123138
0.0120908
0.011902
0.0117458
0.0116218
0.01153
0.0114708
0.0114448
0.0114526
0.0114919
0.0115594
0.0116517
0.0117659
0.0118996
0.0120499
0.0122139
0.0123889
0.0125718
0.0127599
0.0129503
0.0131405
0.0133282
0.0135113
0.0136882
0.0138577
0.0140192
0.0141724
0.0143175
0.014455
0.0145857
0.0147105
0.0148301
0.0149454
0.0150566
0.0151639
0.015267
0.0153651
0.0154573
0.0155407
0.0156123
0.0156716
0.0157171
0.0157473
0.015761
0.0157571
0.015735
0.0156939
0.0156337
0.0155544
0.0154563
0.01534
0.0152062
0.015056
0.0148904
0.0147107
0.0145183
0.0143145
0.0141007
0.0138783
0.0136487
0.0134131
0.0131727
0.0129287
0.012682
0.0124337
0.0121845
0.0119351
0.0116862
0.0114383
0.0111919
0.0109473
0.0107048
0.0104646
0.010227
0.00999189
0.00975951
0.00952981
0.00930281
0.00907846
0.00885672
0.00863747
0.00842072
0.00820664
0.00799419
0.00778273
0.00755346
0.00730441
0.00703678
0.00675213
0.00645301
0.00614283
0.00582578
0.00550675
0.005191
0.00488381
0.00459016
0.0043143
0.00405951
0.00382789
0.00362041
0.00343695
0.00327656
0.00313766
0.0030183
0.00291636
0.00282968
0.00275622
0.00269409
0.0026416
0.00259726
0.00255987
0.00252813
0.00250117
0.00247594
0.00245199
0.00242923
0.0024075
0.00238669
0.0023667
0.00234746
0.00232892
0.00231105
0.00229382
0.00227723
0.0022613
0.00224604
0.00223149
0.00221771
0.00220473
0.00219263
0.00218148
0.00217133
0.00216225
0.0021543
0.00214753
0.00214196
0.00213762
0.00213448
0.00213252
0.00213165
0.00213177
0.00213275
0.00213444
0.00213665
0.00213919
0.00214189
0.00214459
0.00214718
0.00214962
0.00215197
0.00215437
0.00215712
0.00216061
0.0021654
0.00217217
0.00218154
0.00219379
0.00220983
0.00223075
0.00225782
0.00229251
0.00233653
0.00239191
0.002461
0.00254654
0.0026516
0.0027794
0.00293284
0.00311329
0.00331826
0.00353768
0.0452447
0.0406644
0.0355785
0.0303551
0.0254356
0.0211967
0.0178597
0.0154494
0.0138339
0.0127997
0.0121492
0.0117464
0.0115033
0.0113649
0.0112975
0.0112804
0.0113008
0.0113506
0.0114247
0.0115198
0.0116339
0.0117654
0.0119133
0.0120766
0.0122541
0.0124444
0.0126474
0.0128602
0.0130802
0.0133059
0.0135358
0.0137687
0.0140029
0.0142371
0.0144697
0.0146993
0.0149245
0.0151443
0.0153576
0.015564
0.0157632
0.015955
0.0161399
0.0163184
0.0164912
0.0166588
0.0168218
0.0169807
0.0171356
0.0172862
0.017432
0.017572
0.0177052
0.01783
0.0179427
0.0180421
0.0181268
0.0181955
0.018247
0.0182803
0.0182947
0.0182896
0.0182648
0.0182203
0.0181561
0.0180728
0.017971
0.0178514
0.017715
0.0175628
0.017396
0.0172157
0.017023
0.0168193
0.0166058
0.0163836
0.0161538
0.0159175
0.0156757
0.0154294
0.0151794
0.0149265
0.0146714
0.0144146
0.0141567
0.0138982
0.0136394
0.0133806
0.0131221
0.0128642
0.0126068
0.0123502
0.0120943
0.0118392
0.0115848
0.0113311
0.0110781
0.0108256
0.0105741
0.0103221
0.0100684
0.00979111
0.00948697
0.00915642
0.00880051
0.00842153
0.00802296
0.00760947
0.0071869
0.00676193
0.00634179
0.00593366
0.00554418
0.00517893
0.00484207
0.00453614
0.00426213
0.00401963
0.00380719
0.0036226
0.00346324
0.00332635
0.00320916
0.00310908
0.00302372
0.00295098
0.00288907
0.00283611
0.0027907
0.00274799
0.00270721
0.00266814
0.00263054
0.00259421
0.00255901
0.0025248
0.00249149
0.00245901
0.00242731
0.00239636
0.00236618
0.00233677
0.00230819
0.0022805
0.00225377
0.0022281
0.0022036
0.00218038
0.00215856
0.00213827
0.00211964
0.00210277
0.00208778
0.00207476
0.00206378
0.0020549
0.00204814
0.00204351
0.00204098
0.00204054
0.00204211
0.00204566
0.00205114
0.0020585
0.00206776
0.00207895
0.00209214
0.00210748
0.00212516
0.00214546
0.00216869
0.00219525
0.00222561
0.00226027
0.00229985
0.00234516
0.00239715
0.00245689
0.00252562
0.00260476
0.00269586
0.00280058
0.0029205
0.00305689
0.0032102
0.0033793
0.00356095
0.0583784
0.0540668
0.0489309
0.0432065
0.0372474
0.0314578
0.0262213
0.0218313
0.0184336
0.0160102
0.0143734
0.0133261
0.0126966
0.0123513
0.0121948
0.0121626
0.0122124
0.012317
0.0124589
0.012627
0.0128142
0.0130161
0.0132299
0.0134539
0.0136867
0.0139277
0.0141762
0.0144334
0.014695
0.0149596
0.0152264
0.0154946
0.0157632
0.0160311
0.0162974
0.0165608
0.0168203
0.017075
0.0173239
0.0175664
0.017802
0.0180304
0.0182513
0.0184649
0.018671
0.0188697
0.0190609
0.0192445
0.01942
0.0195869
0.0197445
0.0198919
0.020028
0.0201516
0.0202583
0.0203455
0.0204122
0.0204576
0.0204813
0.0204833
0.0204637
0.0204229
0.0203617
0.0202811
0.0201821
0.0200659
0.0199338
0.0197871
0.0196273
0.0194554
0.0192729
0.0190808
0.0188803
0.0186723
0.0184578
0.0182376
0.0180124
0.017783
0.0175499
0.0173137
0.0170748
0.0168336
0.0165904
0.0163456
0.0160994
0.015852
0.0156035
0.0153541
0.0151038
0.0148527
0.0146007
0.014348
0.0140943
0.0138396
0.0135839
0.013327
0.0130687
0.012809
0.012548
0.0122844
0.0120164
0.0117211
0.011394
0.0110345
0.0106427
0.0102199
0.00976878
0.00929344
0.00879973
0.00829492
0.00778744
0.00728639
0.00680081
0.00633895
0.00590759
0.00551161
0.00515374
0.00483471
0.00455358
0.00430814
0.00409543
0.00391208
0.00375466
0.00361986
0.00350458
0.0034061
0.00332209
0.00325008
0.00318813
0.0031299
0.00307426
0.00302086
0.00296938
0.00291956
0.00287118
0.00282408
0.00277812
0.0027332
0.00268925
0.00264624
0.00260417
0.00256306
0.00252296
0.00248396
0.00244616
0.00240969
0.00237468
0.00234129
0.00230969
0.00228007
0.00225258
0.00222741
0.00220472
0.00218465
0.00216732
0.00215283
0.00214125
0.00213261
0.00212693
0.00212418
0.00212431
0.00212726
0.00213296
0.00214134
0.00215233
0.0021659
0.00218206
0.00220084
0.00222232
0.00224666
0.00227405
0.00230475
0.00233908
0.00237756
0.00242059
0.0024687
0.00252255
0.00258288
0.00265052
0.00272641
0.00281155
0.00290702
0.00301386
0.00313307
0.00326548
0.00341173
0.00357272
0.075938
0.0726842
0.0683901
0.0631245
0.0570833
0.0505819
0.0439767
0.0376292
0.0318693
0.0269585
0.0230542
0.0200858
0.0179359
0.0164541
0.0154865
0.0148977
0.0145791
0.0144491
0.0144487
0.0145367
0.0146851
0.0148747
0.0150931
0.0153324
0.0155875
0.0158556
0.0161351
0.0164253
0.0167255
0.0170305
0.0173399
0.0176528
0.0179684
0.0182858
0.0186039
0.0189215
0.0192373
0.01955
0.0198584
0.0201612
0.0204573
0.0207457
0.0210255
0.0212958
0.0215561
0.0218054
0.0220432
0.0222686
0.022481
0.0226794
0.0228631
0.023031
0.0231823
0.023316
0.0234238
0.0234962
0.0235318
0.0235303
0.023492
0.0234177
0.0233089
0.0231678
0.0229968
0.022799
0.0225774
0.0223355
0.0220765
0.021804
0.021521
0.0212306
0.0209354
0.0206379
0.0203401
0.0200437
0.01975
0.0194603
0.0191751
0.0188949
0.0186202
0.0183508
0.0180867
0.0178277
0.0175736
0.0173238
0.0170779
0.0168356
0.0165963
0.0163595
0.0161247
0.0158915
0.0156593
0.0154277
0.0151962
0.0149645
0.0147319
0.0144982
0.0142629
0.0140255
0.0137861
0.013543
0.0132945
0.0130188
0.0127107
0.0123686
0.0119911
0.0115778
0.0111293
0.0106478
0.0101373
0.00960375
0.00905492
0.0085003
0.00795044
0.00741612
0.00690734
0.00643245
0.00599743
0.00560562
0.00525783
0.00495276
0.00468765
0.00445885
0.00426235
0.00409411
0.00395031
0.00382754
0.00372286
0.0036332
0.00355606
0.00348373
0.00341474
0.00334857
0.00328481
0.00322312
0.00316324
0.00310495
0.00304809
0.00299252
0.00293816
0.00288497
0.00283293
0.00278208
0.00273248
0.00268421
0.0026374
0.00259219
0.00254876
0.00250728
0.00246797
0.00243102
0.00239664
0.00236503
0.00233639
0.00231089
0.00228866
0.00226982
0.00225444
0.00224256
0.00223418
0.00222924
0.00222768
0.00222938
0.00223423
0.00224211
0.00225289
0.00226647
0.00228278
0.0023018
0.00232352
0.00234803
0.00237545
0.00240596
0.0024398
0.00247728
0.00251886
0.00256491
0.00261592
0.00267246
0.00273519
0.00280485
0.00288228
0.00296843
0.00306437
0.00317137
0.00329098
0.00342523
0.00357706
0.0966202
0.0950778
0.0924217
0.0885965
0.0836363
0.0777505
0.0711869
0.0642128
0.057099
0.050119
0.0435633
0.037753
0.0327722
0.0286663
0.0254073
0.0229189
0.0210943
0.0198144
0.0189655
0.0184483
0.0181806
0.0180974
0.0181494
0.0182997
0.018522
0.0187977
0.0191144
0.0194641
0.0198423
0.0202367
0.0206455
0.0210672
0.0215008
0.0219452
0.0223992
0.0228613
0.02333
0.0238035
0.0242798
0.0247569
0.0252324
0.025704
0.0261694
0.0266261
0.0270714
0.0275029
0.027918
0.0283139
0.0286883
0.0290384
0.029362
0.0296566
0.0299203
0.030151
0.0303441
0.0304732
0.030535
0.0305281
0.0304521
0.0303077
0.0300965
0.0298216
0.0294866
0.0290963
0.028656
0.0281718
0.0276501
0.0270977
0.0265213
0.0259277
0.0253233
0.0247145
0.0241068
0.0235053
0.0229145
0.0223382
0.0217794
0.0212406
0.0207234
0.020229
0.019758
0.0193105
0.0188861
0.0184841
0.0181037
0.0177436
0.0174025
0.017079
0.0167717
0.0164789
0.0161993
0.0159313
0.0156735
0.0154245
0.015183
0.0149477
0.0147174
0.0144909
0.0142676
0.0140451
0.0138217
0.013577
0.0133063
0.0130082
0.0126807
0.0123218
0.0119301
0.0115047
0.0110458
0.0105551
0.0100364
0.00949572
0.00894169
0.0083848
0.00783678
0.00730938
0.00681307
0.00635594
0.00594303
0.00557629
0.00525497
0.00497638
0.00473664
0.00453133
0.00435603
0.00420658
0.00407934
0.00397062
0.00387726
0.00379009
0.0037072
0.00362789
0.0035516
0.00347795
0.00340659
0.00333726
0.00326975
0.00320391
0.00313962
0.00307684
0.00301554
0.00295574
0.00289752
0.00284097
0.00278622
0.00273343
0.00268278
0.00263449
0.00258876
0.00254581
0.00250587
0.00246915
0.00243585
0.00240614
0.00238016
0.002358
0.00233974
0.00232538
0.00231489
0.0023082
0.00230517
0.00230567
0.00230952
0.00231654
0.00232656
0.00233942
0.002355
0.00237322
0.00239403
0.00241747
0.00244362
0.00247261
0.00250464
0.00253997
0.00257892
0.00262194
0.00266943
0.00272193
0.00278004
0.00284451
0.00291619
0.00299613
0.0030856
0.00318618
0.00329989
0.0034294
0.00357821
0.117618
0.118134
0.117578
0.115874
0.112931
0.108902
0.103957
0.0982752
0.0920175
0.0853248
0.0783295
0.0711681
0.0641126
0.0574085
0.0511741
0.0455356
0.0405928
0.0363899
0.0329269
0.0301696
0.0280557
0.0265066
0.0254379
0.0247675
0.0244201
0.02433
0.0244422
0.0247121
0.0251005
0.0255664
0.0260945
0.0266744
0.0272987
0.0279618
0.0286594
0.0293879
0.0301438
0.0309236
0.0317236
0.0325399
0.0333682
0.0342039
0.0350419
0.0358769
0.0367032
0.0375149
0.0383061
0.0390704
0.0398018
0.0404942
0.0411419
0.0417395
0.0422818
0.0427646
0.0431957
0.0435481
0.0438066
0.0439665
0.0440242
0.0439775
0.0438252
0.0435676
0.043206
0.0427431
0.042183
0.0415307
0.0407924
0.0399755
0.0390878
0.0381383
0.0371364
0.0360917
0.0350144
0.0339142
0.0328009
0.031684
0.0305723
0.0294739
0.0283961
0.0273454
0.0263272
0.025346
0.0244053
0.0235078
0.022655
0.0218479
0.0210865
0.0203703
0.0196983
0.0190691
0.0184807
0.017931
0.0174179
0.0169388
0.0164914
0.0160731
0.0156815
0.0153143
0.0149695
0.0146435
0.0143338
0.0140116
0.0136756
0.0133283
0.0129712
0.0126052
0.01223
0.0118442
0.0114452
0.0110296
0.0105939
0.0101356
0.00965459
0.00915366
0.00863922
0.00812085
0.00761026
0.00711959
0.00665963
0.00623845
0.00586068
0.00552757
0.00523768
0.00498778
0.00477368
0.00459094
0.00443538
0.00430265
0.00418896
0.00408328
0.0039832
0.00388773
0.00379617
0.00370802
0.00362287
0.00354041
0.00346037
0.00338256
0.00330684
0.00323315
0.00316145
0.00309176
0.00302414
0.0029587
0.00289557
0.00283492
0.00277694
0.00272184
0.00266985
0.00262117
0.00257604
0.00253466
0.00249721
0.00246385
0.00243469
0.0024098
0.00238922
0.00237291
0.00236079
0.00235274
0.0023486
0.00234815
0.00235119
0.00235747
0.00236678
0.00237892
0.00239373
0.0024111
0.00243096
0.00245331
0.00247822
0.0025058
0.00253625
0.00256982
0.00260681
0.00264762
0.00269271
0.00274262
0.002798
0.0028596
0.00292838
0.00300544
0.0030922
0.00319037
0.00330215
0.00343031
0.00357842
0.135366
0.137927
0.139506
0.140117
0.139569
0.137997
0.135532
0.132319
0.128477
0.124098
0.119243
0.11395
0.108235
0.102103
0.0956857
0.089104
0.0824893
0.0759511
0.0696017
0.0635854
0.0580343
0.0530562
0.0487255
0.0450816
0.0421301
0.0398493
0.038197
0.0370852
0.0363815
0.0360378
0.0359886
0.036179
0.0365649
0.0371111
0.03779
0.0385798
0.0394628
0.0404245
0.0414525
0.0425359
0.0436646
0.0448292
0.0460205
0.0472294
0.0484469
0.049664
0.0508716
0.0520605
0.0532217
0.0543462
0.055425
0.0564497
0.0574119
0.0583038
0.0591182
0.0598832
0.0605527
0.0611176
0.0615717
0.0619097
0.0621274
0.0622216
0.0621902
0.0620315
0.0617449
0.0613306
0.0607895
0.0601235
0.0593352
0.0584284
0.0574078
0.056279
0.0550489
0.0537255
0.0523175
0.0508349
0.0492882
0.0476887
0.0460482
0.0443786
0.0426919
0.041
0.0393142
0.0376452
0.0360031
0.0343967
0.0328339
0.0313215
0.0298649
0.0284686
0.0271355
0.0258678
0.0246665
0.0235316
0.0224624
0.0214577
0.0205154
0.0196334
0.0188095
0.0180392
0.0173182
0.0165803
0.0158312
0.0150844
0.0143529
0.01365
0.012987
0.012372
0.0118085
0.011295
0.0108247
0.0103865
0.00996707
0.00955292
0.00913308
0.00870128
0.00825723
0.0078064
0.0073586
0.00692546
0.00651787
0.00614406
0.00580872
0.00551311
0.00525586
0.00503398
0.0048438
0.00468095
0.00454133
0.00441183
0.00428946
0.00417292
0.00406137
0.0039542
0.00385095
0.00375124
0.00365477
0.00356132
0.00347073
0.00338292
0.00329784
0.00321553
0.00313604
0.00305948
0.002986
0.00291577
0.00284897
0.00278583
0.00272655
0.00267135
0.00262042
0.00257395
0.00253209
0.00249496
0.00246262
0.0024351
0.00241235
0.00239431
0.00238083
0.00237171
0.00236674
0.00236564
0.00236816
0.002374
0.00238291
0.00239466
0.00240905
0.00242595
0.00244528
0.00246703
0.00249126
0.0025181
0.00254772
0.00258039
0.00261642
0.00265621
0.00270023
0.00274904
0.00280331
0.00286384
0.00293159
0.00300772
0.00309367
0.00319121
0.00330253
0.00343043
0.00357844
0.14692
0.151221
0.154616
0.157287
0.158961
0.159766
0.159802
0.159196
0.158054
0.156465
0.154493
0.152181
0.14955
0.146603
0.143327
0.139687
0.135636
0.131183
0.12636
0.121177
0.115668
0.109902
0.103977
0.098018
0.0921576
0.0865256
0.0812326
0.0763938
0.0721416
0.0685073
0.0654848
0.0630432
0.0611359
0.0597086
0.0587047
0.0580691
0.0577508
0.0577042
0.057889
0.0582704
0.0588187
0.0595088
0.0603191
0.0612314
0.0622297
0.0633
0.0644297
0.0656066
0.0668191
0.0680553
0.0693032
0.0705504
0.0717843
0.0729921
0.0741614
0.0752935
0.0763885
0.0773729
0.078237
0.0789788
0.0795986
0.0800978
0.080479
0.080745
0.0808985
0.0809419
0.0808766
0.080703
0.0804207
0.0800281
0.0795231
0.0789027
0.0781639
0.0773034
0.0763186
0.0752074
0.0739687
0.0726028
0.0711114
0.0694981
0.067768
0.0659285
0.0639885
0.0619588
0.0598515
0.0576801
0.0554593
0.0532042
0.0509303
0.048653
0.0463874
0.0441477
0.0419471
0.0397973
0.0377085
0.0356892
0.033746
0.0318843
0.0301082
0.0284165
0.0268049
0.0251322
0.0234097
0.0216677
0.0199405
0.0182655
0.0166799
0.0152172
0.0139037
0.0127557
0.0117782
0.0109643
0.0102969
0.0097504
0.00929436
0.00889731
0.00853075
0.00817293
0.00781138
0.00744342
0.00707422
0.00671333
0.00637081
0.00605463
0.00576944
0.00551674
0.00529574
0.00510379
0.00493779
0.0047832
0.00463662
0.00449659
0.00436222
0.00423294
0.00410828
0.00398789
0.0038715
0.00375891
0.00365
0.0035447
0.00344301
0.00334499
0.00325073
0.00316036
0.00307406
0.00299202
0.00291444
0.00284153
0.0027735
0.00271055
0.00265283
0.0026005
0.00255365
0.00251235
0.00247658
0.0024463
0.0024214
0.0024017
0.002387
0.00237702
0.00237146
0.00237
0.00237229
0.00237801
0.00238686
0.00239856
0.0024129
0.00242973
0.00244896
0.00247058
0.00249464
0.00252126
0.00255064
0.00258304
0.00261878
0.00265827
0.00270198
0.00275048
0.00280445
0.0028647
0.00293219
0.00300811
0.0030939
0.00319131
0.00330256
0.00343042
0.00357843
0.150948
0.156498
0.161176
0.165369
0.168738
0.171407
0.17344
0.174941
0.176
0.176704
0.177125
0.177324
0.177346
0.177221
0.176964
0.176579
0.176058
0.175384
0.174521
0.173429
0.172064
0.170378
0.16833
0.165888
0.163035
0.159778
0.156148
0.152206
0.148031
0.143718
0.139372
0.135097
0.13098
0.127094
0.123486
0.120183
0.117192
0.114506
0.112102
0.109955
0.108034
0.106309
0.104752
0.103343
0.102068
0.10092
0.0999023
0.0990221
0.0982926
0.0977288
0.0973449
0.0971515
0.0971532
0.0973471
0.097722
0.0982583
0.0989709
0.0997854
0.10039
0.100786
0.100983
0.101005
0.100878
0.100631
0.100291
0.0998818
0.0994263
0.098943
0.0984463
0.0979465
0.0974497
0.0969577
0.0964682
0.0959753
0.0954696
0.0949387
0.094368
0.0937409
0.0930397
0.092246
0.0913419
0.0903102
0.0891354
0.0878041
0.0863059
0.0846338
0.0827843
0.0807584
0.0785611
0.0762017
0.0736936
0.0710542
0.068304
0.0654663
0.0625662
0.0596294
0.0566816
0.0537476
0.0508513
0.0480068
0.0452139
0.0422514
0.0391279
0.03589
0.0325981
0.0293236
0.0261427
0.0231296
0.0203489
0.0178498
0.0156625
0.013798
0.0122499
0.0109979
0.0100111
0.00925061
0.00867166
0.00822674
0.0078694
0.00755939
0.00726763
0.00697898
0.00669077
0.0064081
0.00613852
0.00588841
0.0056616
0.00545909
0.00528079
0.0051126
0.00495124
0.0047954
0.00464445
0.004498
0.0043558
0.00421766
0.00408347
0.00395317
0.00382678
0.00370436
0.00358604
0.003472
0.00336243
0.00325759
0.00315772
0.00306309
0.00297397
0.0028906
0.00281321
0.002742
0.00267711
0.00261865
0.00256666
0.00252112
0.00248198
0.00244907
0.0024222
0.0024011
0.00238547
0.00237494
0.00236912
0.00236761
0.00237002
0.00237595
0.00238505
0.00239703
0.00241164
0.00242872
0.00244817
0.00246998
0.00249419
0.00252093
0.00255041
0.00258288
0.00261867
0.0026582
0.00270193
0.00275045
0.00280443
0.00286469
0.00293219
0.00300811
0.00309389
0.00319131
0.00330256
0.00343042
0.00357843
0.147942
0.154175
0.15954
0.164619
0.169032
0.172898
0.176244
0.179144
0.181666
0.183882
0.185864
0.187679
0.189392
0.191057
0.192725
0.194434
0.196214
0.198083
0.200049
0.202112
0.204263
0.20648
0.208735
0.210994
0.213218
0.215367
0.217403
0.219293
0.221009
0.222533
0.22386
0.224996
0.22596
0.226782
0.227495
0.228137
0.228738
0.229323
0.229898
0.230454
0.230962
0.231369
0.231601
0.231562
0.23114
0.23022
0.228691
0.226459
0.223457
0.219663
0.215101
0.209855
0.204061
0.197906
0.191611
0.185409
0.179528
0.17429
0.170176
0.166526
0.16267
0.158663
0.154539
0.150347
0.146143
0.141982
0.137914
0.133987
0.130241
0.12671
0.123423
0.120399
0.117654
0.115195
0.113024
0.111136
0.10952
0.108158
0.10703
0.106106
0.105354
0.104738
0.104215
0.103742
0.103272
0.102755
0.102144
0.10139
0.100451
0.0992855
0.0978626
0.0961578
0.0941569
0.091857
0.0892663
0.0864047
0.0833021
0.0799979
0.0765393
0.0729661
0.0692886
0.0652511
0.0608537
0.0561518
0.0512304
0.0462002
0.0411895
0.0363312
0.0317478
0.0275369
0.0237616
0.0204481
0.0175909
0.0151633
0.0131283
0.0114486
0.010091
0.00902533
0.00821846
0.00762793
0.00720082
0.00688032
0.00661738
0.00638016
0.00615507
0.00594048
0.0057393
0.00555432
0.00538844
0.00522956
0.00507466
0.00492276
0.00477353
0.00462683
0.00448261
0.00434088
0.00420172
0.00406526
0.00393171
0.00380131
0.0036744
0.00355132
0.00343249
0.00331833
0.00320928
0.00310577
0.00300822
0.00291702
0.00283247
0.00275487
0.00268439
0.00262117
0.00256523
0.00251654
0.00247497
0.0024403
0.00241226
0.00239049
0.0023746
0.00236413
0.00235863
0.00235762
0.00236063
0.00236722
0.00237702
0.00238968
0.00240496
0.00242267
0.00244271
0.00246507
0.00248979
0.00251702
0.00254695
0.00257985
0.00261606
0.00265598
0.00270008
0.00274895
0.00280326
0.00286381
0.00293157
0.00300771
0.00309367
0.00319121
0.00330253
0.00343043
0.00357844
0.139705
0.146093
0.151608
0.156984
0.161831
0.16626
0.170267
0.173899
0.177197
0.180213
0.183006
0.185643
0.188191
0.190721
0.193303
0.196004
0.198884
0.202002
0.205407
0.20914
0.21323
0.217692
0.222532
0.227741
0.233302
0.239191
0.245378
0.251834
0.258529
0.265433
0.27252
0.279766
0.287153
0.294671
0.302313
0.310081
0.317979
0.326015
0.3342
0.342546
0.351065
0.359763
0.368637
0.377653
0.386752
0.395845
0.404806
0.413468
0.421601
0.428907
0.435012
0.439475
0.441801
0.441484
0.438063
0.431206
0.420793
0.406974
0.390129
0.371872
0.354071
0.337568
0.321246
0.30491
0.28877
0.272979
0.257663
0.24292
0.228829
0.215452
0.202833
0.191007
0.180001
0.16983
0.160504
0.152026
0.144391
0.137587
0.131595
0.126392
0.121949
0.118231
0.115197
0.112803
0.110993
0.109706
0.108869
0.108401
0.108207
0.108183
0.108216
0.108187
0.107978
0.107479
0.106594
0.105254
0.103416
0.101073
0.0982542
0.0950046
0.0913497
0.0870573
0.0821175
0.0765855
0.0705623
0.0641945
0.057666
0.0511826
0.0449489
0.039143
0.0338943
0.0292709
0.0252792
0.0218735
0.0189724
0.0164784
0.0143
0.0123735
0.010679
0.00923821
0.00808688
0.00723555
0.00664671
0.00624634
0.00595736
0.00572661
0.00552841
0.00535346
0.00520059
0.00505626
0.00491665
0.00478033
0.00464656
0.00451485
0.00438486
0.00425638
0.00412934
0.00400373
0.00387967
0.00375738
0.00363715
0.00351938
0.00340453
0.00329312
0.00318572
0.00308294
0.00298535
0.00289354
0.00280801
0.00272923
0.00265754
0.0025932
0.00253636
0.00248703
0.00244512
0.00241044
0.00238269
0.00236149
0.00234639
0.0023369
0.0023325
0.00233267
0.00233691
0.00234475
0.00235578
0.00236966
0.00238612
0.00240498
0.00242615
0.00244961
0.00247543
0.00250375
0.00253478
0.00256879
0.00260612
0.00264718
0.00269244
0.00274246
0.0027979
0.00285955
0.00292835
0.00300543
0.00309219
0.00319037
0.00330215
0.00343031
0.00357842
0.128485
0.134619
0.139884
0.145105
0.149906
0.154392
0.15854
0.162374
0.165912
0.169187
0.172241
0.17513
0.177919
0.180681
0.183493
0.186437
0.189592
0.193036
0.196844
0.201081
0.205801
0.211046
0.216843
0.22321
0.230153
0.237671
0.245757
0.254404
0.263598
0.273327
0.283573
0.294316
0.305537
0.317211
0.329316
0.341824
0.354705
0.367926
0.381453
0.395251
0.409293
0.423566
0.438057
0.452724
0.467502