/*--------------------------------*- C++ -*----------------------------------*\
| =========                 |                                                 |
| \\      /  F ield         | OpenFOAM: The Open Source CFD Toolbox           |
|  \\    /   O peration     | Version:  2406                                  |
|   \\  /    A nd           | Website:  www.openfoam.com                      |
|    \\/     M anipulation  |                                                 |
\*---------------------------------------------------------------------------*/
FoamFile
{
    version     2.0;
    format      ascii;
    arch        "LSB;label=32;scalar=64";
    class       volScalarField;
    location    "900";
    object      nut;
}
// * * * * * * * * * * * * * * * * * * * * * * * * * * * * * * * * * * * * * //

dimensions      [0 2 -1 0 0 0 0];

internalField   nonuniform List<scalar> 
5619
(
4.54705e-05
4.54899e-05
4.53874e-05
4.53119e-05
4.52423e-05
4.5185e-05
4.51284e-05
4.50635e-05
4.49853e-05
4.48932e-05
4.47882e-05
4.46725e-05
4.45488e-05
4.44201e-05
4.42894e-05
4.41593e-05
4.40323e-05
4.39108e-05
4.37967e-05
4.3692e-05
4.35976e-05
4.35134e-05
4.34379e-05
4.33674e-05
4.32975e-05
4.32239e-05
4.31463e-05
4.30711e-05
4.301e-05
4.29788e-05
4.29984e-05
4.30912e-05
4.32769e-05
4.35673e-05
4.39644e-05
4.44606e-05
4.50403e-05
4.56836e-05
4.63683e-05
4.70724e-05
4.77751e-05
4.84577e-05
4.91034e-05
4.9698e-05
5.02294e-05
5.06882e-05
5.10668e-05
5.13603e-05
5.15652e-05
5.16805e-05
5.17065e-05
5.1645e-05
5.14992e-05
5.12733e-05
5.09722e-05
5.06014e-05
5.01666e-05
4.96737e-05
4.91286e-05
4.85498e-05
4.7952e-05
4.73422e-05
4.67261e-05
4.61087e-05
4.5494e-05
4.48857e-05
4.42865e-05
4.36987e-05
4.31242e-05
4.25641e-05
4.20196e-05
4.14912e-05
4.09794e-05
4.04842e-05
4.00057e-05
3.95435e-05
3.90975e-05
3.86672e-05
3.82521e-05
3.78517e-05
3.74653e-05
3.70923e-05
3.6732e-05
3.63839e-05
3.60472e-05
3.57212e-05
3.54054e-05
3.5099e-05
3.48013e-05
3.45119e-05
3.423e-05
3.3955e-05
3.36864e-05
3.34236e-05
3.3166e-05
3.29131e-05
3.26644e-05
3.24194e-05
3.21776e-05
3.19386e-05
3.1702e-05
3.14435e-05
3.11627e-05
3.08596e-05
3.05347e-05
3.01894e-05
2.98254e-05
2.94452e-05
2.90519e-05
2.86493e-05
2.82413e-05
2.78324e-05
2.74269e-05
2.7029e-05
2.66428e-05
2.62717e-05
2.59185e-05
2.55855e-05
2.52742e-05
2.49854e-05
2.47193e-05
2.44758e-05
2.42542e-05
2.40534e-05
2.38723e-05
2.37097e-05
2.35641e-05
2.34341e-05
2.33185e-05
2.3205e-05
2.30929e-05
2.29817e-05
2.28708e-05
2.27597e-05
2.2648e-05
2.25352e-05
2.2421e-05
2.2305e-05
2.21869e-05
2.20664e-05
2.19432e-05
2.18171e-05
2.1688e-05
2.15557e-05
2.14203e-05
2.12818e-05
2.11402e-05
2.09957e-05
2.08486e-05
2.06993e-05
2.05482e-05
2.03958e-05
2.02429e-05
2.00903e-05
1.99387e-05
1.97893e-05
1.9643e-05
1.95012e-05
1.93648e-05
1.92352e-05
1.91136e-05
1.9001e-05
1.88985e-05
1.8807e-05
1.87271e-05
1.86592e-05
1.86037e-05
1.85602e-05
1.85286e-05
1.85082e-05
1.84982e-05
1.84975e-05
1.85054e-05
1.85207e-05
1.85427e-05
1.8571e-05
1.86071e-05
1.86554e-05
1.8725e-05
1.88324e-05
1.90025e-05
1.92663e-05
1.96501e-05
2.01489e-05
2.06659e-05
2.08467e-05
1.95834e-05
0.000137258
0.000135959
0.000134173
0.000131944
0.000129746
0.000127759
0.000126031
0.000124499
0.00012308
0.000121746
0.000120511
0.00011937
0.000118318
0.000117354
0.000116477
0.000115686
0.000114978
0.000114345
0.000113776
0.000113256
0.000112761
0.000112257
0.000111691
0.000110989
0.000110041
0.000108695
0.000106772
0.000104125
0.000100631
9.63506e-05
9.13473e-05
8.57581e-05
7.97988e-05
7.37263e-05
6.77928e-05
6.22056e-05
5.7106e-05
5.25659e-05
4.85999e-05
4.51827e-05
4.22659e-05
3.97918e-05
3.7702e-05
3.59425e-05
3.44662e-05
3.32333e-05
3.2211e-05
3.13724e-05
3.06959e-05
3.01633e-05
2.97595e-05
2.94705e-05
2.92833e-05
2.91841e-05
2.91582e-05
2.91885e-05
2.92553e-05
2.93064e-05
2.92966e-05
2.92548e-05
2.9211e-05
2.91587e-05
2.90931e-05
2.9011e-05
2.89106e-05
2.87914e-05
2.8654e-05
2.84999e-05
2.83314e-05
2.8151e-05
2.79616e-05
2.77663e-05
2.7568e-05
2.73694e-05
2.71731e-05
2.69814e-05
2.67961e-05
2.66188e-05
2.64507e-05
2.62929e-05
2.61458e-05
2.601e-05
2.58857e-05
2.57729e-05
2.56715e-05
2.55813e-05
2.55022e-05
2.54336e-05
2.53754e-05
2.53271e-05
2.52883e-05
2.52587e-05
2.5238e-05
2.52258e-05
2.52218e-05
2.52258e-05
2.52376e-05
2.5257e-05
2.52838e-05
2.53177e-05
2.53589e-05
2.54126e-05
2.54812e-05
2.55679e-05
2.5676e-05
2.58086e-05
2.59689e-05
2.61596e-05
2.63827e-05
2.66395e-05
2.69298e-05
2.72523e-05
2.76043e-05
2.79818e-05
2.83796e-05
2.87919e-05
2.92123e-05
2.96344e-05
3.00519e-05
3.04594e-05
3.0852e-05
3.12261e-05
3.15786e-05
3.19077e-05
3.22123e-05
3.24921e-05
3.27473e-05
3.29786e-05
3.31872e-05
3.33951e-05
3.36034e-05
3.38131e-05
3.4025e-05
3.42402e-05
3.44595e-05
3.46838e-05
3.49142e-05
3.51513e-05
3.53962e-05
3.56495e-05
3.5912e-05
3.61845e-05
3.64675e-05
3.67616e-05
3.70671e-05
3.73842e-05
3.77131e-05
3.80534e-05
3.84049e-05
3.87667e-05
3.91377e-05
3.95164e-05
3.99009e-05
4.02888e-05
4.06771e-05
4.10623e-05
4.14405e-05
4.18071e-05
4.21571e-05
4.24852e-05
4.27857e-05
4.30526e-05
4.32801e-05
4.34622e-05
4.3593e-05
4.36668e-05
4.36777e-05
4.36195e-05
4.34856e-05
4.32675e-05
4.29544e-05
4.25316e-05
4.20046e-05
4.1379e-05
4.06166e-05
3.9669e-05
3.84753e-05
3.69654e-05
3.50722e-05
3.27608e-05
3.00766e-05
2.72042e-05
2.4511e-05
2.25528e-05
2.21282e-05
2.48023e-05
3.63038e-05
0.000229342
0.000217931
0.000208063
0.000199592
0.000192574
0.000186731
0.000181803
0.000177505
0.000173614
0.000169996
0.000166626
0.000163458
0.000160444
0.000157542
0.000154705
0.000151884
0.000149026
0.000146069
0.000142947
0.000139591
0.000135931
0.000131899
0.000127442
0.000122528
0.000117156
0.000111393
0.000105356
9.9283e-05
9.33648e-05
8.77972e-05
8.2751e-05
7.83639e-05
7.47278e-05
7.18867e-05
6.9844e-05
6.85752e-05
6.80423e-05
6.82051e-05
6.90292e-05
7.04898e-05
7.25727e-05
7.52735e-05
7.85954e-05
8.25467e-05
8.7137e-05
9.23727e-05
9.82523e-05
0.00010476
0.000111858
0.000119482
0.000127531
0.000135862
0.000144289
0.000152585
0.000160487
0.000167714
0.000173614
0.000178756
0.000183379
0.000187484
0.000191054
0.000194044
0.00019642
0.00019816
0.000199255
0.000199708
0.000199534
0.000198759
0.000197418
0.000195553
0.000193215
0.000190456
0.00018733
0.000183895
0.000180205
0.000176314
0.00017227
0.000168121
0.000163907
0.000159667
0.000155431
0.000151228
0.00014708
0.000143007
0.000139023
0.000135141
0.000131368
0.000127711
0.000124174
0.000120757
0.000117462
0.000114287
0.00011123
0.000108288
0.000105458
0.000102736
0.000100119
9.76008e-05
9.51796e-05
9.2848e-05
9.06022e-05
8.82194e-05
8.57118e-05
8.31071e-05
8.04379e-05
7.7743e-05
7.50652e-05
7.24491e-05
6.99383e-05
6.75723e-05
6.53838e-05
6.3397e-05
6.1626e-05
6.00755e-05
5.87413e-05
5.76121e-05
5.66712e-05
5.58989e-05
5.5274e-05
5.47752e-05
5.43823e-05
5.40768e-05
5.38425e-05
5.36651e-05
5.35328e-05
5.34358e-05
5.33662e-05
5.3317e-05
5.32835e-05
5.32595e-05
5.32439e-05
5.32366e-05
5.32371e-05
5.32454e-05
5.32615e-05
5.32854e-05
5.33174e-05
5.33579e-05
5.34071e-05
5.34657e-05
5.3534e-05
5.36126e-05
5.37021e-05
5.38029e-05
5.39155e-05
5.40403e-05
5.41774e-05
5.43268e-05
5.44882e-05
5.46611e-05
5.48442e-05
5.5036e-05
5.52343e-05
5.5436e-05
5.56374e-05
5.58338e-05
5.60194e-05
5.61877e-05
5.6331e-05
5.64407e-05
5.65073e-05
5.65207e-05
5.64702e-05
5.63451e-05
5.61343e-05
5.58274e-05
5.54143e-05
5.48858e-05
5.42338e-05
5.34514e-05
5.2534e-05
5.14808e-05
5.03503e-05
4.9145e-05
4.7874e-05
4.65608e-05
4.5251e-05
4.40229e-05
4.30012e-05
4.23724e-05
4.24011e-05
4.34522e-05
4.60463e-05
5.10419e-05
6.02112e-05
7.81215e-05
0.000121797
0.000393857
0.000344862
0.000303953
0.000272563
0.000250096
0.000234258
0.000222781
0.000213928
0.000206599
0.000200166
0.000194388
0.000189092
0.000184159
0.000179507
0.000175077
0.00017083
0.000166746
0.000162816
0.000159052
0.00015548
0.000152146
0.000149113
0.000146458
0.000144264
0.000142608
0.000141675
0.000141572
0.000142362
0.000144081
0.000146753
0.000150385
0.000154975
0.000160521
0.000167028
0.000174515
0.000183014
0.000192568
0.000203229
0.00021505
0.000228078
0.000242346
0.000257863
0.000274604
0.000292501
0.000311436
0.000331234
0.000351664
0.000372441
0.000393241
0.000413715
0.000433514
0.000452313
0.00046983
0.000485845
0.000500209
0.000512413
0.000523437
0.000533384
0.000542253
0.000550001
0.000556591
0.000561989
0.000566175
0.000569143
0.0005709
0.000571465
0.000570869
0.000569156
0.000566377
0.000562593
0.000557871
0.000552285
0.00054591
0.000538824
0.000531105
0.000522833
0.000514082
0.000504925
0.000495432
0.000485666
0.000475687
0.000465551
0.000455305
0.000444995
0.000434658
0.00042433
0.000414037
0.000403806
0.000393657
0.000383606
0.000373667
0.00036385
0.000354164
0.000344613
0.000335202
0.000325933
0.000316806
0.000307823
0.000298987
0.000290281
0.000281684
0.000272389
0.000262369
0.000251686
0.000240427
0.000228715
0.000216708
0.000204587
0.000192555
0.000180816
0.000169566
0.000158974
0.000149171
0.000140244
0.000132235
0.000125143
0.000118933
0.000113546
0.000108908
0.000104936
0.00010155
9.86701e-05
9.62256e-05
9.41519e-05
9.23928e-05
9.08998e-05
8.9632e-05
8.85522e-05
8.76309e-05
8.67597e-05
8.59289e-05
8.51334e-05
8.43679e-05
8.36284e-05
8.29115e-05
8.22142e-05
8.15342e-05
8.08699e-05
8.022e-05
7.95836e-05
7.89605e-05
7.83506e-05
7.77542e-05
7.71722e-05
7.66053e-05
7.60549e-05
7.55221e-05
7.50084e-05
7.45152e-05
7.40437e-05
7.3595e-05
7.31698e-05
7.27686e-05
7.2391e-05
7.20362e-05
7.17027e-05
7.13881e-05
7.10895e-05
7.08032e-05
7.0525e-05
7.02507e-05
6.99762e-05
6.96982e-05
6.94145e-05
6.91252e-05
6.8833e-05
6.85439e-05
6.82686e-05
6.80224e-05
6.78264e-05
6.77078e-05
6.77417e-05
6.80212e-05
6.8608e-05
6.95867e-05
7.10673e-05
7.3191e-05
7.61346e-05
8.01167e-05
8.5404e-05
9.23289e-05
0.000101343
0.000113168
0.000129181
0.000152363
0.000189886
0.000263035
0.000791441
0.000674687
0.000561603
0.000461416
0.000382127
0.000325463
0.000288323
0.000265237
0.000251151
0.000242435
0.00023712
0.000234079
0.000232667
0.000232509
0.000233386
0.000235168
0.00023778
0.00024118
0.00024534
0.000250233
0.000255828
0.000262073
0.000268895
0.000276197
0.000283873
0.00029222
0.000301307
0.000311042
0.000321437
0.000332537
0.000344396
0.00035708
0.000370656
0.000385189
0.000400732
0.000417316
0.000434942
0.000453572
0.000473129
0.000493488
0.00051448
0.000535896
0.000557499
0.00057903
0.000600232
0.000620862
0.000640705
0.000659591
0.000677395
0.000694043
0.000709505
0.000723787
0.000736916
0.000748937
0.000759852
0.00076999
0.000779543
0.000788501
0.000796833
0.000804501
0.000811465
0.000817681
0.000823111
0.000827716
0.000831465
0.000834334
0.000836303
0.000837365
0.000837518
0.000836769
0.000835136
0.00083264
0.000829312
0.000825188
0.000820308
0.000814716
0.000808459
0.000801583
0.000794138
0.000786172
0.000777732
0.000768862
0.000759607
0.000750006
0.000740097
0.000729914
0.000719489
0.000708848
0.000698018
0.00068702
0.000675871
0.000664588
0.000653185
0.000641671
0.000630056
0.000618346
0.000606545
0.00059466
0.000582704
0.000570643
0.000558407
0.000544928
0.000530038
0.000513723
0.000496007
0.000476974
0.00045677
0.000435611
0.000413778
0.000391608
0.000369475
0.000347767
0.00032685
0.000307046
0.000288606
0.0002717
0.000256415
0.000242761
0.000230688
0.000220102
0.000210882
0.000202893
0.000195994
0.000190054
0.000184946
0.000180558
0.000176793
0.000173555
0.000170764
0.00016811
0.00016556
0.0001631
0.000160714
0.000158392
0.000156122
0.000153897
0.000151709
0.000149553
0.000147425
0.000145322
0.000143244
0.000141189
0.000139158
0.000137155
0.000135181
0.000133242
0.000131343
0.00012949
0.00012769
0.00012595
0.000124279
0.000122685
0.000121177
0.000119765
0.000118456
0.000117261
0.000116189
0.000115249
0.000114451
0.000113805
0.000113321
0.00011301
0.000112886
0.000112962
0.000113255
0.000113782
0.000114565
0.000115627
0.000116995
0.000118697
0.000120769
0.000123305
0.000126517
0.00013042
0.000135092
0.000140626
0.000147133
0.000154746
0.000163636
0.000174032
0.000186278
0.000200923
0.000218902
0.000241842
0.000272641
0.000316374
0.000381118
0.00150276
0.00135119
0.00118671
0.00101509
0.000849734
0.000703198
0.000585507
0.000500357
0.00044486
0.000411992
0.00039446
0.000386875
0.000385616
0.000388362
0.000393651
0.000400561
0.000408506
0.000417104
0.000426102
0.000435337
0.000444702
0.000454135
0.00046361
0.000473132
0.000482728
0.000492454
0.000502619
0.000513301
0.000524466
0.000536154
0.000548397
0.000561203
0.000574562
0.000588437
0.000602764
0.00061745
0.000632378
0.000647411
0.000662399
0.000677188
0.000691634
0.00070561
0.000719016
0.000731782
0.000743874
0.000755289
0.000766049
0.000776196
0.000785781
0.000794857
0.000803472
0.000811664
0.000819459
0.000826869
0.000834096
0.000841468
0.000848993
0.000856651
0.000864409
0.000872224
0.000880045
0.000887813
0.000895465
0.000902936
0.000910159
0.000917067
0.000923594
0.000929681
0.000935271
0.000940314
0.000944766
0.000948592
0.000951763
0.000954258
0.000956064
0.000957174
0.000957589
0.000957314
0.000956361
0.000954744
0.000952483
0.000949597
0.00094611
0.000942045
0.000937428
0.000932282
0.00092663
0.000920496
0.000913901
0.000906863
0.000899401
0.000891531
0.000883265
0.000874617
0.000865595
0.000856208
0.00084646
0.000836357
0.000825917
0.000815096
0.000803782
0.000791058
0.000776649
0.000760432
0.000742312
0.000722255
0.000700293
0.000676542
0.00065122
0.000624645
0.000597226
0.000569447
0.000541825
0.000514871
0.000489047
0.000464729
0.00044219
0.000421592
0.000402997
0.000386382
0.000371663
0.000358713
0.000347381
0.000337505
0.000328925
0.000321488
0.000315057
0.000309486
0.000304641
0.000300028
0.000295576
0.00029126
0.000287057
0.000282946
0.000278912
0.00027494
0.000271018
0.000267139
0.000263294
0.000259481
0.000255696
0.000251941
0.000248217
0.00024453
0.000240886
0.000237295
0.000233768
0.000230317
0.000226958
0.000223706
0.000220579
0.000217596
0.000214776
0.000212139
0.000209705
0.000207495
0.000205528
0.000203824
0.000202403
0.000201282
0.000200482
0.000200019
0.000199909
0.000200171
0.00020082
0.000201873
0.000203345
0.000205253
0.000207614
0.00021045
0.000213784
0.000217648
0.00022223
0.000227577
0.000233695
0.000240639
0.000248488
0.000257353
0.000267392
0.00027883
0.000291989
0.000307329
0.000325489
0.000347317
0.000373771
0.000405362
0.000440263
0.00231288
0.00215637
0.00198
0.00178459
0.00157938
0.00137466
0.00118185
0.00101146
0.000871179
0.0007647
0.000688736
0.000637515
0.000604835
0.000585225
0.000574456
0.000569521
0.000568386
0.000569714
0.000572646
0.000576635
0.000581339
0.00058655
0.000592135
0.000598015
0.000604131
0.000610437
0.00061689
0.000623584
0.000630508
0.000637629
0.000644907
0.000652292
0.000659726
0.000667139
0.000674456
0.0006816
0.000688497
0.000695078
0.000701291
0.000707095
0.000712473
0.000717422
0.000721961
0.000726121
0.000729945
0.00073348
0.000736777
0.000739881
0.000742833
0.000745667
0.000748407
0.000751067
0.000753656
0.000756173
0.000758937
0.000762189
0.000765943
0.000770203
0.000774967
0.000780227
0.000785968
0.000792171
0.00079881
0.000805854
0.000813266
0.000821001
0.000829011
0.000837244
0.00084564
0.00085414
0.000862681
0.000871198
0.000879629
0.00088791
0.000895983
0.000903791
0.000911282
0.00091841
0.000925131
0.00093141
0.000937214
0.000942519
0.000947302
0.000951547
0.000955241
0.000958375
0.000960942
0.000962939
0.000964364
0.000965215
0.000965493
0.000965197
0.000964329
0.000962887
0.00096087
0.000958277
0.000955103
0.000951345
0.000947012
0.000942051
0.000936362
0.000929526
0.000921221
0.0009112
0.000899206
0.000885003
0.000868396
0.000849262
0.000827587
0.0008035
0.000777289
0.000749405
0.000720439
0.000691067
0.000661981
0.000633823
0.000607123
0.000582269
0.000559496
0.000538904
0.000520483
0.000504147
0.000489756
0.000477145
0.000466137
0.000456556
0.000448242
0.000441017
0.0004347
0.000428695
0.000422897
0.000417268
0.000411778
0.000406403
0.00040112
0.000395913
0.000390767
0.000385671
0.000380617
0.000375599
0.000370616
0.000365669
0.000360762
0.000355901
0.000351097
0.000346362
0.000341711
0.000337163
0.000332737
0.000328455
0.000324341
0.00032042
0.000316717
0.000313257
0.000310065
0.000307164
0.000304578
0.000302328
0.000300431
0.000298906
0.000297765
0.000297023
0.000296687
0.000296768
0.000297272
0.000298205
0.000299572
0.00030138
0.000303635
0.000306345
0.000309522
0.000313182
0.000317347
0.000322166
0.000327626
0.000333748
0.000340584
0.000348203
0.000356694
0.000366168
0.000376753
0.000388578
0.000401737
0.000416199
0.000431635
0.000447095
0.000460657
0.00306633
0.00290833
0.00272718
0.0025224
0.00230049
0.00206954
0.00183833
0.00161545
0.00140898
0.0012262
0.00107322
0.00095039
0.000855719
0.000785424
0.000734873
0.000699515
0.000675389
0.000659332
0.000648956
0.000642532
0.000638835
0.00063701
0.000636464
0.000636787
0.000637691
0.000638973
0.000640484
0.000642113
0.00064383
0.000645585
0.000647329
0.000649015
0.000650599
0.000652036
0.000653287
0.000654318
0.000655099
0.000655614
0.000655853
0.000655821
0.000655529
0.000655
0.000654265
0.000653358
0.000652317
0.000651182
0.000649989
0.000648773
0.000647564
0.000646387
0.000645262
0.000644204
0.000643223
0.000642323
0.000641544
0.000640942
0.000640521
0.000640293
0.000640275
0.00064049
0.000640966
0.000641732
0.000642823
0.000644275
0.000646122
0.000648399
0.000651136
0.00065436
0.000658091
0.000662345
0.000667129
0.000672441
0.000678273
0.000684608
0.000691423
0.000698685
0.000706358
0.000714399
0.000722762
0.000731396
0.000740252
0.000749276
0.000758418
0.000767625
0.000776848
0.00078604
0.000795156
0.000804153
0.000812991
0.000821633
0.000830043
0.000838189
0.000846037
0.00085356
0.000860725
0.000867505
0.000873869
0.000879789
0.000885245
0.000890166
0.000894516
0.000898736
0.000902582
0.000905761
0.000907885
0.000908492
0.00090706
0.000903033
0.000895884
0.000885185
0.000870688
0.000852411
0.000830681
0.000806131
0.000779631
0.000752178
0.000724751
0.000698199
0.000673164
0.000650059
0.000629096
0.000610322
0.000593675
0.000579023
0.000566194
0.000555007
0.000545287
0.000536834
0.000529425
0.000522402
0.000515634
0.000509068
0.000502669
0.000496407
0.000490258
0.000484202
0.000478224
0.000472311
0.000466454
0.000460649
0.000454893
0.000449189
0.000443542
0.000437962
0.00043246
0.000427052
0.000421757
0.000416596
0.000411592
0.000406771
0.000402159
0.000397784
0.000393673
0.000389853
0.000386347
0.000383178
0.000380365
0.000377925
0.000375869
0.000374204
0.000372936
0.000372065
0.000371587
0.000371497
0.000371789
0.000372455
0.000373486
0.000374875
0.000376615
0.000378703
0.000381135
0.000383913
0.00038704
0.000390523
0.000394446
0.000398783
0.000403539
0.000408721
0.000414336
0.00042038
0.000426833
0.00043364
0.000440688
0.000447784
0.00045462
0.00046078
0.000465842
0.00376528
0.0036198
0.00345137
0.00325883
0.00304589
0.00281865
0.00258339
0.00234581
0.00211097
0.00188362
0.00166915
0.00147465
0.00130308
0.00115653
0.00103518
0.00093763
0.000861303
0.000802932
0.000759146
0.000726823
0.000703274
0.000686296
0.000674159
0.00066554
0.000659451
0.000655169
0.000652178
0.000650114
0.000648709
0.000647664
0.000646879
0.000646279
0.000645809
0.000645426
0.000645093
0.000644782
0.000644471
0.000644143
0.000643783
0.000643385
0.000642942
0.000642452
0.000641914
0.000641326
0.000640687
0.000639994
0.000639244
0.000638428
0.000637539
0.000636566
0.000635499
0.000634326
0.000633036
0.000631619
0.00063
0.000627936
0.000625404
0.000622402
0.000618939
0.000615031
0.000610705
0.000605996
0.000600949
0.000595618
0.000590064
0.000584354
0.000578564
0.000572773
0.000567062
0.000561515
0.000556216
0.000551247
0.000546686
0.000542606
0.000539072
0.000536143
0.000533869
0.000532291
0.00053144
0.000531337
0.000531994
0.000533417
0.0005356
0.000538534
0.0005422
0.000546579
0.000551644
0.000557366
0.000563715
0.000570658
0.000578164
0.000586198
0.000594728
0.000603721
0.000613145
0.000622968
0.000633157
0.000643682
0.000654516
0.000665597
0.000676942
0.000689734
0.000704044
0.000719867
0.000737066
0.000755349
0.000774221
0.000792947
0.000810544
0.000825815
0.000837454
0.000844223
0.000845178
0.000839887
0.000828571
0.000812092
0.000791784
0.000769183
0.000745752
0.000722681
0.00070081
0.000680639
0.000662401
0.000646141
0.000631784
0.000619196
0.000608221
0.000598656
0.000590256
0.000582314
0.000574673
0.000567269
0.000560059
0.000553012
0.0005461
0.000539303
0.000532604
0.00052599
0.000519452
0.000512986
0.000506592
0.000500272
0.000494034
0.000487889
0.000481851
0.000475939
0.000470174
0.000464579
0.000459181
0.000454006
0.000449083
0.000444441
0.000440106
0.000436103
0.000432455
0.000429179
0.000426289
0.000423794
0.000421697
0.000419994
0.000418677
0.000417734
0.000417147
0.000416898
0.000416963
0.000417323
0.000417955
0.00041884
0.000419961
0.000421301
0.00042285
0.000424596
0.000426533
0.000428653
0.000430951
0.000433457
0.000436143
0.000438996
0.000441998
0.000445124
0.000448342
0.000451609
0.000454872
0.000458068
0.00046114
0.000464056
0.000466849
0.00441028
0.00429082
0.00414956
0.00398538
0.00379952
0.00359713
0.00338335
0.00316281
0.00293918
0.00271524
0.00249299
0.00227395
0.00206226
0.0018618
0.00167479
0.00150386
0.00135135
0.00121853
0.00110568
0.00101211
0.000936297
0.000876198
0.000829535
0.000794036
0.000767588
0.000748322
0.000734647
0.000725252
0.000719006
0.00071486
0.0007123
0.000710961
0.000710583
0.000710977
0.000712003
0.000713554
0.000715544
0.000717902
0.000720566
0.000723477
0.000726579
0.000729813
0.000733121
0.000736444
0.000739717
0.000742878
0.000745859
0.000748595
0.000751022
0.000753079
0.000754707
0.000755857
0.000756485
0.000756554
0.000756166
0.000755174
0.000753464
0.000751005
0.000747767
0.000743725
0.000738856
0.000733139
0.000726558
0.000719104
0.000710775
0.000701577
0.000691531
0.000680667
0.000669031
0.000656683
0.000643697
0.000630164
0.000616184
0.000601871
0.000587348
0.000572743
0.000558188
0.000543813
0.000529749
0.000516116
0.000503027
0.000490586
0.000478883
0.000467994
0.000457982
0.000448898
0.000440779
0.000433651
0.000427531
0.000422426
0.000418337
0.00041526
0.000413188
0.000412111
0.000412022
0.000412909
0.000414767
0.000417593
0.000421389
0.000426142
0.000431874
0.000439379
0.000449041
0.000461318
0.000476685
0.000495603
0.000518458
0.000545461
0.000576517
0.000611061
0.000647913
0.000685187
0.00072037
0.000750642
0.00077343
0.000787034
0.000791073
0.000786522
0.000775319
0.00075977
0.000742004
0.000723674
0.000705886
0.00068928
0.000674163
0.000660629
0.000648657
0.000638119
0.0006288
0.000619974
0.000611472
0.000603223
0.000595179
0.000587309
0.000579588
0.000571995
0.000564515
0.000557137
0.000549853
0.000542661
0.000535562
0.000528562
0.000521671
0.000514901
0.000508272
0.000501803
0.00049552
0.000489446
0.000483613
0.000478047
0.000472779
0.000467836
0.000463245
0.00045903
0.000455208
0.000451793
0.000448794
0.00044621
0.000444037
0.000442261
0.000440864
0.000439822
0.000439106
0.000438686
0.000438531
0.000438608
0.000438889
0.000439346
0.000439957
0.000440701
0.000441564
0.000442533
0.000443599
0.000444754
0.000445994
0.000447315
0.000448722
0.000450207
0.000451763
0.000453386
0.000455072
0.00045682
0.000458633
0.000460523
0.000462515
0.000464652
0.000467002
0.00495938
0.00487283
0.00476499
0.00463627
0.00448574
0.00431803
0.00413757
0.00394856
0.00375443
0.00355784
0.00336065
0.00316406
0.00296866
0.00277412
0.00258207
0.00239376
0.00221054
0.00203362
0.00186452
0.00170548
0.00155871
0.00142611
0.00130899
0.00120792
0.00112278
0.00105279
0.00099675
0.000952723
0.000918245
0.000892049
0.00087254
0.000858365
0.000848428
0.000841857
0.000837966
0.000836219
0.000836194
0.000837557
0.000840039
0.000843418
0.000847507
0.000852144
0.000857184
0.000862497
0.000867961
0.000873465
0.000878901
0.00088417
0.000889176
0.000893831
0.000898053
0.000901764
0.000904896
0.000907386
0.000909181
0.000910713
0.000911996
0.000913011
0.000913735
0.000914135
0.000914165
0.000913768
0.00091287
0.000911383
0.000909208
0.000906233
0.000902339
0.0008974
0.000891292
0.000883896
0.000875103
0.000864818
0.000852972
0.000839519
0.000824446
0.000807776
0.000789567
0.000769915
0.000748951
0.000726839
0.000703771
0.000679961
0.000655639
0.000631042
0.000606406
0.000581962
0.000557926
0.000534496
0.000511847
0.000490128
0.000469464
0.000449952
0.000431663
0.000414649
0.000398939
0.000384549
0.000371481
0.00035973
0.00034929
0.000340132
0.000332213
0.000324967
0.000318748
0.000314086
0.00031161
0.000312057
0.000316266
0.000325169
0.000339766
0.000361057
0.000389905
0.000426781
0.000471383
0.000522159
0.00057597
0.000628215
0.000673744
0.000708341
0.000730049
0.000739511
0.000739222
0.000732319
0.000721629
0.000709242
0.000696504
0.000684196
0.000672735
0.00066228
0.000652792
0.000643673
0.000634782
0.000626057
0.000617467
0.000608991
0.000600617
0.000592334
0.000584137
0.000576021
0.000567987
0.000560039
0.000552186
0.000544439
0.000536814
0.000529331
0.000522014
0.000514889
0.000507985
0.000501333
0.000494965
0.000488913
0.000483209
0.000477881
0.000472956
0.000468454
0.000464392
0.00046078
0.000457618
0.000454903
0.00045262
0.000450749
0.000449263
0.00044813
0.000447313
0.000446776
0.000446478
0.000446385
0.000446462
0.00044668
0.000447014
0.000447445
0.000447956
0.000448538
0.000449184
0.00044989
0.000450654
0.000451478
0.000452364
0.000453318
0.000454346
0.000455454
0.000456654
0.00045796
0.00045939
0.000460972
0.00046274
0.000464736
0.000467019
0.00535525
0.00530327
0.00522946
0.00513737
0.00502418
0.00489415
0.00475096
0.00459833
0.00443938
0.00427668
0.00411217
0.00394729
0.003783
0.00361997
0.00345865
0.00329889
0.0031401
0.0029824
0.00282613
0.0026711
0.00251735
0.00236532
0.00221596
0.00207065
0.00193102
0.00179875
0.00167531
0.00156235
0.00146178
0.00137388
0.00129824
0.00123404
0.00118016
0.0011354
0.00109851
0.00106833
0.00104377
0.00102391
0.00100794
0.000995176
0.00098505
0.000977098
0.000970941
0.000966273
0.000962845
0.000960455
0.000958937
0.000958152
0.000957976
0.000958301
0.000959022
0.00096004
0.000961261
0.000962589
0.000963935
0.000965283
0.000966874
0.000968862
0.000971286
0.000974219
0.000977733
0.000981889
0.00098673
0.000992275
0.00099852
0.00100543
0.00101291
0.00102087
0.00102913
0.0010375
0.00104573
0.00105353
0.00106058
0.00106653
0.00107101
0.00107364
0.00107404
0.00107186
0.00106678
0.00105854
0.00104695
0.00103187
0.00101328
0.000991258
0.000965955
0.000937627
0.000906607
0.000873295
0.000838141
0.000801624
0.000764231
0.000726441
0.000688702
0.000651424
0.000614962
0.000579616
0.000545625
0.000513177
0.000482412
0.000453392
0.000426042
0.000398088
0.000369879
0.000342093
0.000315529
0.000291064
0.000269606
0.000252062
0.00023932
0.000232274
0.000231882
0.000239241
0.00025564
0.000282476
0.000320902
0.000371066
0.000430978
0.000495653
0.000557638
0.000609477
0.000646741
0.000669239
0.000679808
0.00068221
0.000679677
0.000674464
0.000667981
0.000661044
0.000654085
0.000646985
0.000639714
0.00063227
0.000624665
0.000616921
0.000609057
0.000601093
0.000593048
0.000584941
0.000576794
0.00056863
0.000560474
0.000552355
0.000544306
0.000536361
0.000528558
0.000520936
0.000513539
0.000506407
0.000499582
0.000493106
0.000487015
0.000481343
0.000476119
0.000471365
0.000467096
0.000463318
0.000460031
0.000457222
0.000454874
0.000452958
0.000451441
0.000450285
0.000449447
0.000448884
0.000448555
0.000448418
0.00044844
0.000448588
0.000448838
0.000449171
0.000449572
0.000450033
0.000450548
0.000451116
0.000451738
0.000452418
0.000453161
0.000453975
0.000454868
0.000455852
0.000456942
0.000458154
0.00045951
0.000461037
0.000462768
0.000464745
0.00046702
0.00555337
0.00553403
0.00549126
0.00543306
0.00535504
0.00526119
0.00515438
0.00503776
0.00491404
0.00478555
0.00465426
0.00452172
0.00438915
0.00425744
0.00412716
0.00399857
0.00387179
0.00374684
0.00362351
0.00350146
0.00338029
0.0032596
0.00313905
0.00301835
0.0028974
0.00277628
0.00265538
0.00253542
0.00241733
0.00230215
0.00219101
0.00208499
0.00198499
0.00189163
0.00180523
0.00172581
0.00165313
0.00158677
0.00152617
0.0014707
0.00141972
0.00137264
0.00132893
0.00128816
0.00125001
0.00121426
0.00118083
0.0011497
0.00112093
0.00109462
0.00107086
0.00104975
0.00103129
0.00101546
0.00100214
0.000991155
0.000982393
0.000975246
0.00096834
0.000961732
0.000955614
0.000950265
0.000945984
0.000943072
0.000941824
0.000942513
0.000945384
0.000950651
0.00095849
0.000969033
0.00098236
0.000998495
0.00101739
0.00103893
0.0010629
0.00108898
0.00111677
0.00114572
0.00117518
0.00120438
0.00123242
0.00125835
0.00128115
0.00129976
0.00131322
0.00132061
0.00132121
0.0013145
0.00130021
0.00127836
0.00124926
0.00121348
0.00117179
0.00112515
0.00107461
0.00102123
0.000966037
0.000909977
0.000853888
0.000798416
0.000743704
0.000685707
0.000624845
0.000562279
0.000499539
0.000438392
0.000380668
0.000328068
0.000281972
0.000243322
0.000212619
0.000190044
0.000175666
0.000169707
0.000172802
0.000186185
0.000211651
0.000250963
0.000304334
0.000368243
0.00043455
0.000493335
0.000538056
0.000567956
0.000586115
0.000596367
0.000601677
0.000603929
0.000604319
0.000603673
0.000602147
0.000599824
0.00059678
0.000593084
0.000588801
0.000583986
0.000578693
0.000572971
0.000566871
0.000560443
0.00055374
0.000546819
0.000539738
0.00053256
0.000525351
0.000518176
0.000511105
0.000504205
0.000497541
0.000491174
0.000485161
0.000479551
0.000474384
0.000469692
0.000465496
0.000461804
0.000458617
0.000455921
0.000453695
0.000451908
0.000450522
0.000449495
0.00044878
0.000448331
0.000448105
0.00044806
0.000448159
0.000448372
0.000448676
0.000449051
0.000449486
0.000449972
0.000450506
0.000451088
0.00045172
0.000452407
0.000453154
0.000453971
0.000454866
0.000455851
0.000456941
0.000458154
0.00045951
0.000461037
0.000462768
0.000464745
0.00046702
0.00553545
0.00554455
0.0055277
0.00549818
0.00545041
0.00538828
0.00531386
0.00522971
0.00513801
0.00504076
0.00493977
0.00483659
0.00473258
0.00462887
0.00452638
0.0044258
0.00432762
0.00423211
0.00413932
0.00404917
0.0039614
0.0038757
0.00379168
0.00370896
0.00362717
0.00354604
0.00346534
0.00338498
0.00330493
0.00322525
0.00314613
0.00306783
0.00299072
0.00291523
0.0028418
0.00277082
0.00270263
0.00263743