/*--------------------------------*- C++ -*----------------------------------*\
| =========                 |                                                 |
| \\      /  F ield         | OpenFOAM: The Open Source CFD Toolbox           |
|  \\    /   O peration     | Version:  2406                                  |
|   \\  /    A nd           | Website:  www.openfoam.com                      |
|    \\/     M anipulation  |                                                 |
\*---------------------------------------------------------------------------*/
FoamFile
{
    version     2.0;
    format      ascii;
    arch        "LSB;label=32;scalar=64";
    class       volScalarField;
    location    "900";
    object      p_rgh;
}
// * * * * * * * * * * * * * * * * * * * * * * * * * * * * * * * * * * * * * //

dimensions      [0 2 -2 0 0 0 0];

internalField   nonuniform List<scalar> 
5619
(
-0.026291
-0.0249266
-0.0443987
-0.0594654
-0.0742559
-0.0866367
-0.0966468
-0.104245
-0.109609
-0.113031
-0.114826
-0.11528
-0.114676
-0.113282
-0.111347
-0.109125
-0.106863
-0.104803
-0.103205
-0.102341
-0.102492
-0.103945
-0.106986
-0.111898
-0.11896
-0.128449
-0.140625
-0.155718
-0.173921
-0.195387
-0.220186
-0.248322
-0.279714
-0.3142
-0.351529
-0.391359
-0.433251
-0.476678
-0.52102
-0.565581
-0.609601
-0.652276
-0.692785
-0.730312
-0.764073
-0.793342
-0.81747
-0.835907
-0.848215
-0.854075
-0.853293
-0.845804
-0.83166
-0.811037
-0.7842
-0.751501
-0.713364
-0.670259
-0.622718
-0.571337
-0.516678
-0.459269
-0.39964
-0.338299
-0.27572
-0.212342
-0.148561
-0.08473
-0.0211614
0.0418774
0.104159
0.165493
0.225727
0.284738
0.342435
0.398751
0.453643
0.507087
0.559075
0.609617
0.658733
0.706453
0.752815
0.797867
0.84166
0.884249
0.925694
0.966056
1.0054
1.04378
1.08128
1.11795
1.15386
1.18906
1.22363
1.25764
1.29115
1.3241
1.35656
1.3898
1.42523
1.4635
1.50486
1.5491
1.59604
1.64538
1.69671
1.74957
1.80339
1.85756
1.91144
1.96441
2.01586
2.06527
2.11219
2.15629
2.19732
2.23515
2.26975
2.30116
2.32948
2.35488
2.37754
2.39768
2.41552
2.43121
2.44498
2.45751
2.46941
2.48101
2.49245
2.50376
2.515
2.52622
2.53745
2.54874
2.56011
2.5716
2.58322
2.59499
2.60693
2.61904
2.63132
2.64377
2.65637
2.66912
2.68198
2.69492
2.70791
2.72089
2.73382
2.74664
2.75929
2.7717
2.78381
2.79554
2.80683
2.81761
2.82782
2.8374
2.84631
2.85452
2.86199
2.86873
2.87473
2.88001
2.8846
2.88855
2.89192
2.89476
2.89715
2.89917
2.90087
2.90232
2.9036
2.90477
2.90587
2.90695
2.90804
2.90919
2.91043
2.9118
2.91333
2.9151
2.91707
2.91916
2.92983
-0.0262903
-0.0249228
-0.0443918
-0.0594539
-0.0742428
-0.0866239
-0.096636
-0.104237
-0.109605
-0.113031
-0.11483
-0.115287
-0.114687
-0.113296
-0.111364
-0.109145
-0.106886
-0.104829
-0.103232
-0.10237
-0.102521
-0.103972
-0.10701
-0.111915
-0.118964
-0.128433
-0.140582
-0.155645
-0.173817
-0.195247
-0.220009
-0.248112
-0.279479
-0.313949
-0.351273
-0.391107
-0.433014
-0.476461
-0.520828
-0.565417
-0.609466
-0.652171
-0.69271
-0.730266
-0.764055
-0.793352
-0.817506
-0.835969
-0.848299
-0.854181
-0.853419
-0.845948
-0.831821
-0.811211
-0.784386
-0.751696
-0.713582
-0.670545
-0.623099
-0.571778
-0.517146
-0.459761
-0.400155
-0.338836
-0.276279
-0.212921
-0.149158
-0.0853453
-0.0217927
0.0412316
0.1035
0.164823
0.225048
0.284051
0.341742
0.398053
0.452941
0.506382
0.55837
0.608912
0.658028
0.705749
0.752113
0.797168
0.840964
0.883557
0.925006
0.965372
1.00472
1.04311
1.08061
1.11729
1.1532
1.18841
1.22298
1.25699
1.29049
1.32342
1.35584
1.38909
1.4246
1.46291
1.50429
1.54854
1.5955
1.64485
1.69621
1.74908
1.80292
1.8571
1.91101
1.96399
2.01547
2.0649
2.11184
2.15596
2.197
2.23485
2.26947
2.30089
2.32923
2.35464
2.37731
2.39745
2.4153
2.43099
2.44474
2.45726
2.46919
2.48079
2.49224
2.50356
2.51481
2.52603
2.53727
2.54856
2.55994
2.57143
2.58306
2.59483
2.60678
2.61889
2.63118
2.64364
2.65625
2.66901
2.68187
2.69482
2.70781
2.7208
2.73374
2.74657
2.75923
2.77165
2.78376
2.7955
2.80679
2.81758
2.82779
2.83738
2.8463
2.85451
2.86198
2.86872
2.87472
2.88001
2.8846
2.88855
2.89192
2.89477
2.89716
2.89917
2.90087
2.90233
2.90361
2.90478
2.90588
2.90696
2.90806
2.90921
2.91044
2.9118
2.9133
2.91499
2.91669
2.91779
2.92231
-0.0262968
-0.0248954
-0.0443629
-0.059427
-0.0742174
-0.0866026
-0.0966199
-0.104226
-0.109599
-0.11303
-0.114833
-0.115294
-0.114696
-0.113307
-0.111376
-0.109157
-0.106895
-0.104834
-0.10323
-0.102357
-0.102493
-0.103924
-0.106936
-0.111807
-0.118819
-0.128252
-0.140364
-0.155378
-0.173498
-0.194878
-0.219594
-0.247655
-0.27899
-0.313441
-0.350761
-0.390608
-0.432545
-0.47604
-0.520472
-0.565143
-0.609291
-0.652112
-0.692784
-0.730489
-0.764443
-0.79392
-0.818269
-0.836941
-0.849494
-0.855609
-0.855092
-0.847873
-0.834003
-0.813654
-0.787093
-0.754683
-0.716833
-0.674014
-0.626767
-0.575651
-0.521219
-0.464018
-0.404576
-0.3434
-0.280966
-0.217709
-0.154026
-0.0902713
-0.0267565
0.0362498
0.0985189
0.15986
0.220117
0.279168
0.336918
0.3933
0.448268
0.501797
0.553879
0.604522
0.653742
0.701571
0.748047
0.793214
0.837124
0.879831
0.921395
0.961877
1.00134
1.03984
1.07746
1.11424
1.15026
1.18558
1.22026
1.25437
1.28798
1.32101
1.35351
1.38688
1.42251
1.46093
1.50242
1.5468
1.59388
1.64336
1.69484
1.74784
1.8018
1.85612
1.91014
1.96324
2.01483
2.06436
2.11139
2.15559
2.19671
2.23463
2.2693
2.30078
2.32916
2.35461
2.37732
2.3975
2.41537
2.43108
2.44485
2.45738
2.46933
2.48095
2.49241
2.50375
2.51501
2.52624
2.53749
2.54879
2.56017
2.57167
2.5833
2.59508
2.60703
2.61915
2.63144
2.6439
2.65652
2.66927
2.68213
2.69508
2.70807
2.72105
2.73399
2.74681
2.75946
2.77187
2.78397
2.7957
2.80698
2.81775
2.82795
2.83752
2.84643
2.85462
2.86209
2.86881
2.8748
2.88007
2.88466
2.8886
2.89196
2.8948
2.89719
2.8992
2.9009
2.90235
2.90363
2.9048
2.9059
2.90698
2.90808
2.90924
2.91048
2.91185
2.91341
2.91522
2.91727
2.91933
2.92438
-0.0262365
-0.0247419
-0.0442418
-0.0593553
-0.0741724
-0.0865743
-0.0966005
-0.104213
-0.109591
-0.113026
-0.114831
-0.115292
-0.114693
-0.113302
-0.111368
-0.109143
-0.106874
-0.104803
-0.103188
-0.1023
-0.102419
-0.103832
-0.106825
-0.111681
-0.118678
-0.128089
-0.140174
-0.15516
-0.173248
-0.194587
-0.219255
-0.24726
-0.278534
-0.312924
-0.350186
-0.389984
-0.431886
-0.475367
-0.51981
-0.56452
-0.608739
-0.651665
-0.692479
-0.730365
-0.764542
-0.794283
-0.81894
-0.837961
-0.850903
-0.857445
-0.857385
-0.85065
-0.837283
-0.81745
-0.791421
-0.759545
-0.722233
-0.67996
-0.633242
-0.582618
-0.528642
-0.471861
-0.412805
-0.351978
-0.289854
-0.226869
-0.16342
-0.099862
-0.0365067
0.0263753
0.0885537
0.149836
0.210064
0.269114
0.32689
0.38332
0.438358
0.491977
0.544165
0.594929
0.644286
0.692262
0.738896
0.784231
0.828316
0.871205
0.912956
0.953629
0.993286
1.03199
1.0698
1.10679
1.14301
1.17854
1.21342
1.24774
1.28155
1.31479
1.3475
1.38106
1.41694
1.45562
1.4974
1.54208
1.58948
1.63928
1.69111
1.74446
1.79877
1.85343
1.9078
1.96122
2.01311
2.06292
2.11022
2.15465
2.19598
2.23408
2.26892
2.30053
2.32903
2.35458
2.37738
2.39762
2.41555
2.43132
2.44513
2.4577
2.46967
2.48132
2.49281
2.50417
2.51545
2.52671
2.53798
2.5493
2.56071
2.57223
2.58388
2.59568
2.60765
2.61978
2.63208
2.64455
2.65718
2.66994
2.68281
2.69575
2.70874
2.72172
2.73464
2.74745
2.76008
2.77247
2.78455
2.79624
2.80749
2.81823
2.8284
2.83793
2.84679
2.85495
2.86237
2.86906
2.87501
2.88025
2.8848
2.88872
2.89205
2.89487
2.89724
2.89924
2.90092
2.90237
2.90365
2.90481
2.9059
2.90698
2.90808
2.90923
2.91046
2.91181
2.91331
2.91501
2.91685
2.91874
2.9238
-0.0259443
-0.0242773
-0.043821
-0.0590468
-0.0739693
-0.0864686
-0.0965642
-0.104219
-0.109622
-0.113074
-0.114891
-0.115361
-0.114771
-0.113387
-0.111459
-0.109238
-0.106971
-0.104897
-0.103272
-0.102368
-0.102462
-0.103837
-0.106779
-0.111572
-0.118495
-0.127818
-0.139794
-0.154655
-0.172604
-0.193798
-0.218319
-0.246183
-0.27733
-0.311615
-0.348804
-0.38857
-0.430487
-0.474036
-0.518608
-0.563513
-0.607996
-0.651262
-0.692491
-0.730869
-0.765612
-0.795989
-0.821345
-0.841119
-0.85486
-0.862232
-0.863023
-0.857143
-0.84462
-0.825611
-0.800382
-0.769267
-0.732672
-0.691066
-0.644963
-0.594903
-0.541432
-0.485094
-0.426421
-0.365917
-0.304061
-0.24129
-0.178006
-0.114566
-0.0512873
0.0115569
0.0737323
0.135043
0.195329
0.254461
0.312341
0.368896
0.424077
0.477855
0.530217
0.581167
0.630721
0.678906
0.725757
0.771318
0.815637
0.858768
0.900766
0.941692
0.981607
1.02057
1.05865
1.09591
1.13241
1.16821
1.20338
1.23798
1.27208
1.30562
1.33862
1.37248
1.40868
1.44771
1.48986
1.53495
1.58278
1.63306
1.68538
1.73925
1.7941
1.8493
1.9042
1.95816
2.01056
2.06085
2.1086
2.15343
2.19513
2.23356
2.26868
2.30055
2.32927
2.35501
2.37797
2.39835
2.4164
2.43227
2.44617
2.45881
2.47084
2.48254
2.49407
2.50548
2.5168
2.5281
2.5394
2.55076
2.56219
2.57373
2.5854
2.59722
2.6092
2.62134
2.63365
2.64612
2.65873
2.67148
2.68433
2.69726
2.71022
2.72316
2.73604
2.7488
2.76138
2.77371
2.78572
2.79735
2.80852
2.81918
2.82926
2.83871
2.84749
2.85556
2.8629
2.86951
2.87539
2.88056
2.88505
2.88892
2.89221
2.89499
2.89733
2.8993
2.90097
2.9024
2.90367
2.90482
2.90592
2.907
2.9081
2.90925
2.9105
2.91187
2.9134
2.91515
2.91704
2.91897
2.92354
-0.0252728
-0.0235457
-0.0431223
-0.0584894
-0.0735447
-0.0861905
-0.0964244
-0.104199
-0.109692
-0.113205
-0.115059
-0.115553
-0.114977
-0.113601
-0.111675
-0.109452
-0.107177
-0.105086
-0.103435
-0.102493
-0.102535
-0.103845
-0.106709
-0.111408
-0.118223
-0.127423
-0.139261
-0.153962
-0.171739
-0.192751
-0.217083
-0.244763
-0.275741
-0.309887
-0.346982
-0.386714
-0.428672
-0.472352
-0.517155
-0.562403
-0.607347
-0.651195
-0.693128
-0.732329
-0.768005
-0.799418
-0.825898
-0.846869
-0.861862
-0.870522
-0.872617
-0.868035
-0.856775
-0.838984
-0.814931
-0.784935
-0.749386
-0.708741
-0.663501
-0.614197
-0.561373
-0.505576
-0.447338
-0.387172
-0.32556
-0.262947
-0.199742
-0.136311
-0.072978
-0.0100246
0.052308
0.113817
0.174335
0.233729
0.291895
0.348755
0.404257
0.458367
0.511071
0.562371
0.61228
0.660824
0.708037
0.753961
0.798644
0.842139
0.884501
0.925791
0.96607
1.0054
1.04384
1.08147
1.11833
1.1545
1.19003
1.225
1.25947
1.2934
1.32678
1.36103
1.39764
1.43715
1.47981
1.52545
1.57389
1.62481
1.67782
1.73241
1.78801
1.84397
1.89963
1.95434
2.00746
2.05844
2.10683
2.15226
2.19449
2.2334
2.26894
2.30117
2.33021
2.35622
2.3794
2.39998
2.41819
2.43421
2.44822
2.46094
2.47305
2.48482
2.49642
2.50789
2.51927
2.53062
2.54198
2.55337
2.56485
2.57643
2.58813
2.59997
2.61197
2.62412
2.63644
2.64891
2.66151
2.67424
2.68706
2.69995
2.71285
2.72574
2.73854
2.75122
2.7637
2.77592
2.78781
2.7993
2.81034
2.82085
2.83078
2.84008
2.8487
2.85662
2.86382
2.87029
2.87604
2.88109
2.88548
2.88926
2.89247
2.89518
2.89747
2.8994
2.90104
2.90245
2.9037
2.90484
2.90593
2.907
2.9081
2.90925
2.91049
2.91185
2.91337
2.9151
2.91699
2.91901
2.92321
-0.0241057
-0.0227717
-0.0423501
-0.0579127
-0.073124
-0.085934
-0.0963108
-0.10421
-0.109808
-0.113403
-0.115317
-0.115849
-0.115295
-0.11393
-0.112004
-0.109772
-0.107477
-0.105353
-0.103651
-0.10264
-0.102591
-0.103788
-0.106514
-0.111052
-0.117681
-0.126672
-0.138275
-0.152713
-0.170209
-0.190936
-0.214988
-0.242409
-0.273167
-0.307153
-0.344171
-0.383932
-0.426048
-0.470033
-0.515308
-0.561205
-0.606989
-0.651871
-0.69503
-0.735645
-0.772913
-0.806077
-0.834449
-0.857428
-0.874517
-0.885331
-0.889605
-0.88719
-0.878035
-0.862262
-0.840141
-0.811971
-0.77811
-0.738991
-0.695098
-0.646952
-0.595091
-0.54006
-0.482398
-0.422622
-0.361226
-0.29867
-0.235376
-0.171726
-0.108058
-0.0446711
0.0181794
0.0802764
0.14144
0.201523
0.260413
0.318023
0.37429
0.429177
0.482662
0.534742
0.585428
0.634742
0.682716
0.72939
0.774812
0.819033
0.86211
0.904101
0.945069
0.985077
1.02419
1.06247
1.09998
1.13679
1.17295
1.20854
1.24364
1.27818
1.31217
1.34704
1.38432
1.42455
1.46799
1.51449
1.56384
1.61573
1.66975
1.72539
1.78205
1.8391
1.89583
1.95159
2.00571
2.05765
2.10692
2.15316
2.19612
2.23566
2.27176
2.30448
2.33393
2.36029
2.38377
2.40459
2.42301
2.43919
2.45334
2.46618
2.47837
2.49023
2.5019
2.51343
2.52486
2.53625
2.54764
2.55907
2.57056
2.58214
2.59384
2.60567
2.61764
2.62976
2.64202
2.65442
2.66695
2.67958
2.69229
2.70505
2.7178
2.73052
2.74315
2.75562
2.76788
2.77987
2.79151
2.80275
2.81352
2.82376
2.83341
2.84242
2.85077
2.85843
2.86537
2.8716
2.87713
2.88199
2.8862
2.88982
2.8929
2.89551
2.89771
2.89957
2.90115
2.90253
2.90375
2.90488
2.90596
2.90702
2.90812
2.90927
2.91051
2.91187
2.9134
2.91513
2.91701
2.9191
2.92286
-0.0223218
-0.0222508
-0.0417667
-0.057573
-0.0729271
-0.0859016
-0.0964174
-0.104426
-0.110096
-0.113743
-0.115697
-0.116258
-0.115725
-0.114368
-0.112433
-0.110175
-0.107839
-0.105655
-0.103873
-0.102755
-0.102571
-0.1036
-0.106122
-0.110419
-0.116771
-0.125452
-0.136716
-0.15078
-0.167871
-0.188186
-0.21183
-0.238865
-0.269289
-0.303024
-0.339908
-0.379687
-0.42201
-0.466424
-0.512382
-0.559242
-0.606287
-0.65274
-0.697787
-0.740599
-0.780362
-0.816297
-0.847686
-0.873893
-0.894378
-0.908709
-0.91657
-0.917757
-0.912154
-0.899809
-0.880978
-0.855935
-0.824973
-0.788486
-0.746924
-0.700786
-0.650599
-0.596904
-0.540243
-0.481146
-0.42012
-0.357645
-0.294166
-0.230089
-0.165781
-0.101564
-0.0377223
0.025502
0.0879043
0.149316
0.209603
0.268659
0.326407
0.382794
0.437785
0.491369
0.543546
0.594332
0.643754
0.691848
0.738659
0.784236
0.828635
0.871915
0.914138
0.955367
0.995669
1.03511
1.07375
1.11166
1.14891
1.18556
1.22169
1.25724
1.29224
1.32812
1.3665
1.40792
1.45265
1.50053
1.55135
1.60477
1.66038
1.71765
1.77595
1.83463
1.89297
1.95029
2.00591
2.05924
2.1098
2.15721
2.20121
2.24167
2.27856
2.31194
2.34194
2.36876
2.39261
2.41374
2.4324
2.44878
2.4631
2.47604
2.48833
2.50027
2.512
2.52358
2.53505
2.54647
2.55787
2.56929
2.58076
2.59231
2.60396
2.61573
2.62761
2.63962
2.65176
2.66401
2.67637
2.6888
2.70128
2.71378
2.72626
2.73867
2.75095
2.76306
2.77493
2.78649
2.7977
2.80848
2.81878
2.82854
2.83771
2.84626
2.85415
2.86135
2.86787
2.87371
2.87888
2.88341
2.88734
2.89071
2.89359
2.89603
2.89809
2.89984
2.90134
2.90266
2.90384
2.90493
2.90599
2.90704
2.90813
2.90928
2.91052
2.91188
2.91341
2.91513
2.91701
2.91917
2.92251
-0.0197384
-0.0220705
-0.0414529
-0.0575785
-0.0730571
-0.0861821
-0.0968214
-0.104939
-0.110686
-0.114352
-0.116303
-0.116865
-0.116313
-0.114937
-0.112989
-0.110715
-0.108344
-0.106089
-0.104188
-0.102904
-0.102503
-0.103262
-0.105465
-0.109393
-0.115324
-0.123534
-0.134281
-0.147775
-0.16424
-0.183898
-0.206887
-0.233299
-0.263175
-0.296481
-0.33311
-0.372863
-0.415444
-0.460458
-0.507405
-0.555691
-0.604631
-0.653473
-0.701411
-0.747615
-0.791253
-0.831515
-0.867639
-0.898937
-0.924805
-0.944745
-0.958371
-0.965417
-0.965707
-0.959117
-0.945829
-0.926097
-0.900117
-0.868215
-0.830783
-0.788279
-0.741202
-0.690075
-0.635437
-0.577824
-0.51776
-0.455751
-0.392271
-0.327763
-0.26263
-0.197238
-0.13191
-0.0669305
-0.0025436
0.0610443
0.123662
0.185172
0.245467
0.304465
0.362111
0.41837
0.473227
0.526681
0.578748
0.629455
0.678837
0.726939
0.773812
0.819513
0.8641
0.907639
0.950193
0.99183
1.03262
1.07262
1.11191
1.15055
1.18863
1.22608
1.26292
1.30071
1.34113
1.38473
1.43179
1.48211
1.53545
1.59146
1.64969
1.70955
1.77042
1.83158
1.89232
1.9519
2.00965
2.06497
2.11736
2.16641
2.21188
2.25361
2.29159
2.32589
2.35666
2.38409
2.40844
2.42997
2.44893
2.46556
2.48006
2.49314
2.50552
2.51753
2.52931
2.54091
2.55239
2.56378
2.57514
2.5865
2.59788
2.60932
2.62082
2.63241
2.64409
2.65587
2.66773
2.67968
2.69168
2.70373
2.71578
2.72781
2.73977
2.75162
2.76331
2.77478
2.78598
2.79685
2.80732
2.81735
2.82689
2.83588
2.8443
2.85209
2.85926
2.86577
2.87164
2.87688
2.8815
2.88554
2.88904
2.89204
2.89461
2.89679
2.89865
2.90024
2.90162
2.90285
2.90396
2.90502
2.90604
2.90708
2.90816
2.9093
2.91054
2.9119
2.91343
2.91515
2.91702
2.91923
2.92217
-0.016272
-0.0221735
-0.0413202
-0.0578419
-0.0734282
-0.0867034
-0.0974663
-0.105711
-0.111581
-0.115354
-0.117332
-0.117857
-0.11729
-0.115878
-0.113833
-0.111433
-0.108931
-0.106541
-0.104488
-0.103013
-0.102362
-0.102793
-0.104571
-0.107971
-0.113266
-0.120739
-0.130683
-0.143348
-0.158934
-0.177653
-0.19969
-0.225186
-0.254233
-0.286862
-0.323038
-0.362641
-0.405461
-0.451186
-0.499397
-0.549572
-0.601087
-0.653233
-0.705233
-0.756262
-0.805478
-0.852039
-0.895136
-0.934013
-0.967991
-0.996483
-1.01901
-1.03522
-1.04488
-1.04774
-1.04366
-1.03276
-1.01516
-0.991059
-0.960752
-0.924625
-0.883132
-0.836769
-0.786062
-0.731553
-0.67378
-0.613275
-0.550551
-0.486092
-0.420355
-0.35376
-0.286688
-0.219481
-0.152442
-0.0858347
-0.0198841
0.0452202
0.109322
0.172298
0.234052
0.294514
0.353636
0.411392
0.467774
0.522786
0.57645
0.628796
0.679863
0.7297
0.77836
0.825902
0.872388
0.917883
0.962455
1.00617
1.0491
1.09131
1.1329
1.17376
1.21393
1.25521
1.2994
1.34698
1.39827
1.45301
1.51091
1.57155
1.63441
1.69884
1.76412
1.82948
1.89413
1.95731
2.01832
2.07656
2.13153
2.18287
2.23032
2.27377
2.3132
2.34871
2.38047
2.4087
2.43368
2.45569
2.47502
2.49192
2.50662
2.51982
2.53227
2.54431
2.5561
2.56767
2.57909
2.59039
2.60162
2.61281
2.62399
2.63518
2.6464
2.65766
2.66897
2.68032
2.69171
2.70313
2.71455
2.72595
2.7373
2.74857
2.75971
2.77068
2.78143
2.79191
2.80207
2.81186
2.82122
2.83013
2.83852
2.84638
2.85366
2.86037
2.86647
2.87199
2.87693
2.8813
2.88514
2.88849
2.89139
2.89388
2.89601
2.89784
2.89941
2.90079
2.902
2.9031
2.90413
2.90512
2.90611
2.90712
2.90818
2.90932
2.91055
2.91192
2.91344
2.91516
2.91702
2.91927
2.92187
-0.0120676
-0.0224957
-0.0412849
-0.0582716
-0.0739441
-0.0873635
-0.0982357
-0.106596
-0.112583
-0.116485
-0.118609
-0.119266
-0.118719
-0.117255
-0.115189
-0.112761
-0.110158
-0.107547
-0.10516
-0.103268
-0.102123
-0.101987
-0.10313
-0.105821
-0.110335
-0.116955
-0.125969
-0.137525
-0.15183
-0.169189
-0.189818
-0.213917
-0.241657
-0.273165
-0.308512
-0.347696
-0.390629
-0.437126
-0.486889
-0.539506
-0.594449
-0.65108
-0.708671
-0.766416
-0.823461
-0.878923
-0.931919
-0.981593
-1.02715
-1.06786
-1.10312
-1.13244
-1.15549
-1.17211
-1.18187
-1.18443
-1.17981
-1.16803
-1.14926
-1.12379
-1.09196
-1.05418
-1.01093
-0.962688
-0.909999
-0.853398
-0.793426
-0.730611
-0.665463
-0.598468
-0.530081
-0.46072
-0.390771
-0.320578
-0.250449
-0.180652
-0.111419
-0.042943
0.0246138
0.0911221
0.156482
0.220618
0.283482
0.345043
0.405291
0.46423
0.521878
0.578264
0.633429
0.687417
0.740283
0.792085
0.842883
0.89274
0.941722
0.989912
1.03739
1.08402
1.12983
1.17706
1.22768
1.28206
1.3406
1.40292
1.46866
1.53731
1.60819
1.68053
1.75345
1.82605
1.8974
1.96665
2.03305
2.09596
2.15491
2.20959
2.25982
2.30555
2.34685
2.38387
2.41683
2.446
2.47169
2.49422
2.51392
2.53107
2.54595
2.55922
2.57165
2.58365
2.59533
2.60675
2.61797
2.62903
2.63997
2.65081
2.66159
2.67233
2.68304
2.69372
2.70438
2.71502
2.72562
2.73617
2.74665
2.75703
2.76728
2.77736
2.78725
2.79689
2.80624
2.81526
2.8239
2.83214
2.83992
2.84722
2.85402
2.86029
2.86603
2.87123
2.87592
2.88009
2.88378
2.88701
2.88984
2.89228
2.89439
2.89622
2.8978
2.89917
2.90039
2.90148
2.90248
2.90343
2.90435
2.90526
2.9062
2.90718
2.90822
2.90934
2.91057
2.91193
2.91346
2.91516
2.91703
2.91929
2.92166
-0.00746833
-0.0229478
-0.0412507
-0.0587445
-0.0744823
-0.0880445
-0.0990217
-0.107497
-0.113596
-0.117607
-0.119832
-0.120595
-0.120185
-0.118874
-0.116912
-0.114485
-0.111796
-0.109105
-0.106617
-0.104501
-0.102975
-0.102278
-0.102662
-0.104386
-0.107714
-0.112891
-0.120148
-0.129866
-0.142423
-0.158016
-0.176879
-0.199256
-0.225386
-0.255487
-0.289744
-0.32829
-0.37119
-0.418418
-0.469837
-0.525186
-0.584068
-0.64595
-0.710177
-0.77599
-0.842545
-0.908941
-0.974241
-1.0375
-1.09782
-1.15435
-1.20632
-1.2531
-1.29418
-1.32921
-1.35811
-1.3805
-1.39542
-1.4024
-1.40145
-1.39256
-1.37597
-1.35207
-1.32128
-1.28407
-1.24094
-1.19239
-1.13897
-1.08121
-1.01964
-0.9548
-0.887189
-0.817299
-0.745591
-0.672499
-0.598422
-0.523727
-0.448742
-0.373764
-0.299052
-0.224829
-0.151288
-0.0785841
-0.006846
0.0638284
0.133367
0.201723
0.268868
0.334795
0.399513
0.463043
0.525417
0.586678
0.646875
0.706061
0.764293
0.821653
0.878221
0.933814
0.988434
1.04488
1.10544
1.17046
1.24038
1.31471
1.39299
1.47452
1.55845
1.64378
1.7294
1.81414
1.89685
1.97645
2.05201
2.1228
2.18834
2.24836
2.30283
2.35185
2.39566
2.43456
2.46891
2.49908
2.52546
2.54844
2.56841
2.58569
2.60059
2.61376
2.626
2.63775
2.64912
2.66017
2.67095
2.6815
2.69187
2.70207
2.71214
2.72209
2.73193
2.74166
2.75129
2.7608
2.77018
2.77942
2.78849
2.79736
2.80601
2.8144
2.82251
2.83028
2.8377
2.84472
2.85132
2.85747
2.86315
2.86835
2.87307
2.87731
2.88107
2.88439
2.88729
2.88979
2.89195
2.8938
2.89538
2.89674
2.89792
2.89895
2.89988
2.90072
2.90152
2.90228
2.90304
2.9038
2.90459
2.90542
2.9063
2.90724
2.90825
2.90936
2.91059
2.91194
2.91347
2.91517
2.91703
2.9193
2.92154
-0.00290184
-0.0234187
-0.0411277
-0.05913
-0.0749122
-0.0886143
-0.0996937
-0.108287
-0.114503
-0.118633
-0.120969
-0.121824
-0.121484
-0.120224
-0.118303
-0.115927
-0.11329
-0.110599
-0.108043
-0.105803
-0.104078
-0.103074
-0.103006
-0.104095
-0.106569
-0.110664
-0.116611
-0.124701
-0.135234
-0.148504
-0.164844
-0.184603
-0.208142
-0.235815
-0.267962
-0.304888
-0.34684
-0.393991
-0.446407
-0.504029
-0.566644
-0.633877
-0.705204
-0.779964
-0.857371
-0.936533
-1.01646
-1.0961
-1.17435
-1.25013
-1.32238
-1.39012
-1.45254
-1.50893
-1.55879
-1.60257
-1.64086
-1.67104
-1.69206
-1.70519
-1.71029
-1.70728
-1.69612
-1.67707
-1.65049
-1.61682
-1.57653
-1.53013
-1.47812
-1.42101
-1.35932
-1.29357
-1.22425
-1.15187
-1.07688
-0.999739
-0.920854
-0.840618
-0.759391
-0.677504
-0.595258
-0.512925
-0.43075
-0.348948
-0.267705
-0.187179
-0.107499
-0.0287626
0.0489572
0.125615
0.201188
0.275675
0.349089
0.421456
0.492811
0.563221
0.632761
0.70122
0.768535
0.837985
0.912455
0.992547
1.07867
1.17025
1.26664
1.36693
1.47002
1.57458
1.67918
1.78233
1.88253
1.9784
2.06874
2.15256
2.22918
2.29826
2.3598
2.41409
2.46167
2.50316
2.53921
2.57042
2.59738
2.6206
2.64056
2.65767
2.67229
2.68505
2.69676
2.7079
2.71858
2.72886
2.7388
2.74843
2.75778
2.76689
2.77578
2.78445
2.79292
2.80119
2.80924
2.81708
2.82468
2.83204
2.83912
2.8459
2.85237
2.85848
2.86422
2.86956
2.87448
2.87896
2.88298
2.88655
2.88965
2.89231
2.89454
2.89637
2.89783
2.89896
2.8998
2.90042
2.90085
2.90115
2.90136
2.90153
2.90169
2.90187
2.90209
2.90236
2.90271
2.90313
2.90362
2.9042
2.90485
2.90558
2.9064
2.9073
2.90829
2.90938
2.9106
2.91195
2.91347
2.91517
2.91703
2.9193
2.92154
0.00125412
-0.0237952
-0.0408551
-0.0593253
-0.0751345
-0.088969
-0.100146
-0.108855
-0.115187
-0.119432
-0.121879
-0.122836
-0.122586
-0.121401
-0.119525
-0.117161
-0.114502
-0.111745
-0.109061
-0.106621
-0.104614
-0.103244
-0.102724
-0.103273
-0.105115
-0.108475
-0.113586
-0.120719
-0.130146
-0.14214
-0.157015
-0.175136
-0.196908
-0.222769
-0.253178
-0.28859
-0.329434
-0.376083
-0.428816
-0.487786
-0.552972
-0.624148
-0.700908
-0.782683
-0.868752
-0.958262
-1.05023
-1.14358
-1.23718
-1.32987
-1.42053
-1.50808
-1.59153
-1.67004
-1.74277
-1.8087
-1.86818
-1.9253
-1.97845
-2.02006
-2.04966
-2.06995
-2.08154
-2.08496
-2.08031
-2.06767
-2.0473
-2.01949
-1.98461
-1.94306
-1.89524
-1.84158
-1.78252
-1.71851
-1.64997
-1.57734
-1.50104
-1.42148
-1.33906
-1.25414
-1.1671
-1.07826
-0.987941
-0.89644
-0.804041
-0.711018
-0.617632
-0.524143
-0.430798
-0.337826
-0.245434
-0.153788
-0.063013
0.0268106
0.115639
0.203478
0.290366
0.376071
0.460437
0.54697
0.639477
0.739195
0.846468
0.960582
1.08068
1.20557
1.33381
1.46371
1.59344
1.72108
1.84475
1.96272
2.07348
2.17581
2.26884
2.35206
2.42528
2.48868
2.54284
2.58867
2.62729
2.65982
2.68726
2.71041
2.72995
2.74643
2.76032
2.77218
2.78285
2.79285
2.8023
2.81125
2.81976
2.82787
2.8356
2.843
2.85008
2.85684
2.8633
2.86946
2.87531
2.88084
2.88604
2.8909
2.8954
2.89952
2.90324
2.90654
2.9094
2.91182
2.91379
2.91531
2.91638
2.91701
2.91724
2.91709
2.9166
2.91582
2.91481
2.91362
2.91233
2.91099
2.90965
2.90838
2.90722
2.9062
2.90535
2.90469
2.90422
2.90394
2.90385
2.90394
2.90418
2.90457
2.90509
2.90574
2.90649
2.90735
2.90832
2.9094
2.9106
2.91195
2.91347
2.91517
2.91703
2.91929
2.92166
0.00476416
-0.0239829
-0.0404092
-0.059274
-0.0750979
-0.0890517
-0.100319
-0.109137
-0.115577
-0.119932
-0.122481
-0.123529
-0.12336
-0.12224
-0.12041
-0.118074
-0.115421
-0.112634
-0.109879
-0.107319
-0.105139
-0.103529
-0.102694
-0.102841
-0.104186
-0.106946
-0.111349
-0.117648
-0.12611
-0.137026
-0.150739
-0.167643
-0.188183
-0.212847
-0.242156
-0.276645
-0.316848
-0.363264
-0.416327
-0.476363
-0.543528
-0.617745
-0.698756
-0.786145
-0.879344
-0.977628
-1.08011
-1.1857
-1.29316
-1.40115
-1.50819
-1.61272
-1.71317
-1.80806
-1.89605
-1.97601
-2.04682
-2.10715
-2.15998
-2.21377
-2.27206
-2.3256
-2.36719
-2.39828
-2.42035
-2.43401
-2.43983
-2.438
-2.42862
-2.41179
-2.38762
-2.35628
-2.31799
-2.27301
-2.22165
-2.16424
-2.10113
-2.03268
-1.95922
-1.88109
-1.79863
-1.71217
-1.622
-1.52844
-1.43178
-1.33229
-1.23022
-1.12581
-1.01931
-0.910988
-0.801175
-0.690292
-0.578837
-0.467353
-0.356338
-0.246153
-0.136992
-0.029199
0.0769362
0.184943
0.299798
0.423641
0.556718
0.698102
0.846611
1.00068
1.15843
1.31777
1.47644
1.63218
1.78279
1.92628
2.06089
2.18518
2.29812
2.39907
2.48782
2.56449
2.62948
2.6834
2.72726
2.76252
2.79085
2.81376
2.83244
2.84774
2.86033
2.87071
2.87973
2.88798
2.89554
2.9025
2.9089
2.9148
2.92023
2.92523
2.92982
2.93401
2.93782
2.94124
2.94428
2.94694
2.94921
2.95107
2.95252
2.95355
2.95415
2.9543
2.954
2.95326
2.95208
2.95047
2.94846
2.94608
2.94338
2.9404
2.9372
2.93387
2.93046
2.92706
2.92373
2.92054
2.91757
2.91485
2.91243
2.91033
2.90858
2.90716
2.90608
2.90532
2.90485
2.90464
2.90466
2.90489
2.9053
2.90587
2.90657
2.90739
2.90834
2.9094
2.9106
2.91194
2.91346
2.91516
2.91703
2.91927
2.92188
0.00755818
-0.0239199
-0.0397941
-0.0589628
-0.0747953
-0.0888503
-0.100198
-0.109113
-0.11565
-0.120102
-0.122744
-0.123876
-0.123779
-0.122718
-0.120929
-0.118616
-0.115965
-0.113152
-0.110336
-0.107681
-0.105366
-0.103583
-0.10253
-0.102416
-0.103452
-0.105853
-0.109841
-0.115662
-0.123578
-0.133883
-0.146926
-0.163117
-0.182925
-0.206868
-0.235507
-0.269426
-0.309211
-0.355425
-0.408562
-0.469015
-0.536991
-0.612381
-0.694888
-0.784075
-0.879363
-0.980051
-1.08534
-1.1942
-1.3056
-1.41853
-1.53191
-1.6447
-1.75579
-1.86422
-1.96902
-2.06909
-2.16314
-2.24949
-2.32635
-2.39142
-2.4411
-2.48199
-2.52375
-2.56763
-2.60747
-2.63858
-2.66263
-2.68017
-2.6916
-2.69719
-2.6971
-2.69141
-2.6801
-2.66314
-2.64041
-2.6117
-2.57677
-2.53536
-2.48725
-2.43232
-2.37051
-2.3019
-2.22665
-2.14497
-2.05716
-1.96348
-1.86421
-1.75959
-1.64986
-1.53528
-1.41602
-1.29225
-1.16412
-1.03197
-0.896567
-0.75926
-0.62167
-0.485395
-0.351459
-0.216523
-0.0742593
0.0785262
0.241965
0.414777
0.595291
0.781406
0.970702
1.1606
1.34848
1.53186
1.70844
1.87625
2.03362
2.17921
2.31202
2.43134
2.53676
2.62828
2.7063
2.77148
2.8246
2.86644
2.89822
2.92186
2.93959
2.95319
2.96384
2.9721
2.97883
2.98467
2.9897
2.99402
2.99769
3.00078
3.00334
3.00541
3.00702
3.0082
3.00896
3.00931
3.00926
3.00881
3.00795
3.00668
3.005
3.0029
3.00037
2.99741
2.99402
2.99022
2.98602
2.98146
2.97655
2.97137
2.96596
2.96041
2.95477
2.94915
2.94362
2.93828
2.93319
2.92843
2.92406
2.92013
2.91666
2.91368
2.91118
2.90915
2.90758
2.90642
2.90564
2.9052
2.90505
2.90515
2.90547
2.90597
2.90663
2.90743
2.90835
2.90941
2.9106
2.91193
2.91344
2.91515
2.91702
2.91923
2.92217
0.00969592
-0.0235843
-0.0390287
-0.0584079
-0.0742474
-0.0883833
-0.0998
-0.108798
-0.11542
-0.119957
-0.122679
-0.123886
-0.123854
-0.122846
-0.121098
-0.11881
-0.116167
-0.113342
-0.110491
-0.107775
-0.105372
-0.103471
-0.102269
-0.101973
-0.10279
-0.104932
-0.108622
-0.114099
-0.121627
-0.131503
-0.144088
-0.159801
-0.179126
-0.202597
-0.2308
-0.264344
-0.303846
-0.34991
-0.403069
-0.463779
-0.5323
-0.608464
-0.691925
-0.782246
-0.878832
-0.980976
-1.08791
-1.19843
-1.31142
-1.42582
-1.54029
-1.65363
-1.76446
-1.87187
-1.97516
-2.07378
-2.16747
-2.25623
-2.34026
-2.41954
-2.4933
-2.56086
-2.62036
-2.66791
-2.70831
-2.748
-2.78463
-2.81533
-2.83925
-2.85685
-2.86836
-2.87403
-2.87415
-2.86923
-2.85998
-2.84687
-2.83038
-2.81078
-2.78809
-2.76197
-2.73175
-2.69648
-2.65503
-2.60631
-2.54939
-2.48352
-2.40816
-2.32305
-2.22807
-2.12326
-2.00881
-1.88505
-1.75234
-1.61092
-1.46076
-1.30168
-1.13447
-0.96281
-0.792055
-0.621788
-0.445004
-0.256941
-0.0577396
0.150769
0.366065
0.585324
0.805486
1.02362
1.237
1.44327
1.64044
1.82692
2.00143
2.16306
2.31115
2.44529
2.5652
2.67071
2.76179
2.83867
2.90207
2.95302
2.99244
3.02094
3.03989
3.05203
3.06017
3.06561
3.06937
3.07219
3.07411
3.07526
3.07576
3.07569
3.07513
3.07412
3.07272
3.07093
3.06879
3.0663
3.06345
3.06024
3.05666
3.0527
3.04834
3.04357
3.03839
3.03278
3.02677
3.02036
3.01359
3.0065
2.99914
2.99158
2.9839
2.97619
2.96854
2.96104
2.9538
2.94689
2.94041
2.93441
2.92896
2.92409
2.91982
2.91616
2.9131
2.91062
2.90868
2.90723
2.90622
2.9056
2.90533
2.90534
2.90559
2.90604
2.90667
2.90744
2.90836
2.9094
2.91058
2.91191
2.91342
2.91514
2.91701
2.91917
2.92251
0.0113042
-0.0229975
-0.0381435
-0.0576485
-0.0734946
-0.087691
-0.0991644
-0.108232
-0.114926
-0.119536
-0.122329
-0.123602
-0.123629
-0.122671
-0.120962
-0.118702
-0.116073
-0.113246
-0.110375
-0.10762
-0.105157
-0.103173
-0.101864
-0.101434
-0.102089
-0.10404
-0.107506
-0.112726
-0.119962
-0.129516
-0.141751
-0.157091
-0.176028
-0.199106
-0.226918
-0.260088
-0.299245
-0.345014
-0.397944
-0.458541
-0.527115
-0.603384
-0.686925
-0.777324
-0.873959
-0.976145
-1.08324
-1.19388
-1.30702
-1.42179
-1.53683
-1.65111
-1.76292
-1.87134
-1.97616
-2.07651
-2.17176
-2.26144
-2.3452
-2.42279
-2.49419
-2.55985
-2.62014
-2.67487
-2.72437
-2.76784
-2.80544
-2.84021
-2.87252
-2.90075
-2.9248
-2.94455
-2.95984
-2.97148
-2.97928
-2.98232
-2.9806
-2.97405
-2.96271
-2.94671
-2.92639
-2.90231
-2.87512
-2.84547
-2.81416
-2.78094
-2.74398
-2.70016
-2.64575
-2.57765
-2.49418
-2.39456
-2.27799
-2.14396
-1.99274
-1.82517
-1.64084
-1.43904
-1.22498
-1.00676
-0.78539
-0.552965
-0.310969
-0.0615628
0.191084
0.443457
0.691789
0.933164
1.16519
1.38623
1.59521
1.79148
1.97466
2.14451
2.30083
2.44351
2.57248
2.68773
2.78924
2.8769
2.95058
3.0105
3.05754
3.09309
3.11793