/*--------------------------------*- C++ -*----------------------------------*\
| =========                 |                                                 |
| \\      /  F ield         | OpenFOAM: The Open Source CFD Toolbox           |
|  \\    /   O peration     | Version:  2406                                  |
|   \\  /    A nd           | Website:  www.openfoam.com                      |
|    \\/     M anipulation  |                                                 |
\*---------------------------------------------------------------------------*/
FoamFile
{
    version     2.0;
    format      ascii;
    arch        "LSB;label=32;scalar=64";
    class       surfaceScalarField;
    location    "900";
    object      phi;
}
// * * * * * * * * * * * * * * * * * * * * * * * * * * * * * * * * * * * * * //

dimensions      [0 3 -1 0 0 0 0];

oriented        oriented;

internalField   nonuniform List<scalar> 
10988
(
-7.4559e-05
2.41364e-07
-7.44822e-05
-7.68292e-08
-7.44327e-05
-4.95319e-08
-7.44563e-05
2.36169e-08
-7.45144e-05
5.80964e-08
-7.45821e-05
6.77122e-08
-7.46325e-05
5.04189e-08
-7.46495e-05
1.70373e-08
-7.46263e-05
-2.32189e-08
-7.45612e-05
-6.5112e-08
-7.44552e-05
-1.05963e-07
-7.43123e-05
-1.42944e-07
-7.41376e-05
-1.74715e-07
-7.39364e-05
-2.01151e-07
-7.37136e-05
-2.22837e-07
-7.34734e-05
-2.40194e-07
-7.32198e-05
-2.5357e-07
-7.29566e-05
-2.63219e-07
-7.26877e-05
-2.6883e-07
-7.24181e-05
-2.69665e-07
-7.21531e-05
-2.65006e-07
-7.18989e-05
-2.54203e-07
-7.16623e-05
-2.36622e-07
-7.14506e-05
-2.11651e-07
-7.12724e-05
-1.78222e-07
-7.11379e-05
-1.34473e-07
-7.10604e-05
-7.75335e-08
-7.10583e-05
-2.07796e-09
-7.11487e-05
9.03265e-08
-7.13445e-05
1.95821e-07
-7.16613e-05
3.16814e-07
-7.21149e-05
4.53644e-07
-7.27177e-05
6.02785e-07
-7.34764e-05
7.58652e-07
-7.43907e-05
9.14352e-07
-7.54535e-05
1.06272e-06
-7.66508e-05
1.19731e-06
-7.79638e-05
1.31305e-06
-7.93703e-05
1.40643e-06
-8.08457e-05
1.47546e-06
-8.23651e-05
1.5194e-06
-8.39037e-05
1.53851e-06
-8.54374e-05
1.53376e-06
-8.69441e-05
1.5067e-06
-8.84033e-05
1.45921e-06
-8.97968e-05
1.39351e-06
-9.11088e-05
1.31196e-06
-9.23258e-05
1.21704e-06
-9.34371e-05
1.11129e-06
-9.44343e-05
9.97197e-07
-9.53115e-05
8.77191e-07
-9.60651e-05
7.53603e-07
-9.66937e-05
6.28607e-07
-9.71979e-05
5.04222e-07
-9.75801e-05
3.82162e-07
-9.7844e-05
2.63855e-07
-9.79946e-05
1.50687e-07
-9.80383e-05
4.36856e-08
-9.79788e-05
-5.95212e-08
-9.78182e-05
-1.60566e-07
-9.75626e-05
-2.5564e-07
-9.72209e-05
-3.41714e-07
-9.68023e-05
-4.18557e-07
-9.6316e-05
-4.86297e-07
-9.57707e-05
-5.45271e-07
-9.51748e-05
-5.95946e-07
-9.45359e-05
-6.38854e-07
-9.38614e-05
-6.74573e-07
-9.31577e-05
-7.03711e-07
-9.24308e-05
-7.26889e-07
-9.1686e-05
-7.4472e-07
-9.09282e-05
-7.57812e-07
-9.01615e-05
-7.66737e-07
-8.93894e-05
-7.72034e-07
-8.86152e-05
-7.74207e-07
-8.78415e-05
-7.73719e-07
-8.70705e-05
-7.71005e-07
-8.63041e-05
-7.66459e-07
-8.55436e-05
-7.60432e-07
-8.47904e-05
-7.5324e-07
-8.40452e-05
-7.45164e-07
-8.33088e-05
-7.36455e-07
-8.25814e-05
-7.27339e-07
-8.18634e-05
-7.18011e-07
-8.11548e-05
-7.08646e-07
-8.04554e-05
-6.99392e-07
-7.9765e-05
-6.90381e-07
-7.90833e-05
-6.81727e-07
-7.84098e-05
-6.73528e-07
-7.77439e-05
-6.65872e-07
-7.70851e-05
-6.58831e-07
-7.64326e-05
-6.52472e-07
-7.57857e-05
-6.46849e-07
-7.51437e-05
-6.42016e-07
-7.45057e-05
-6.38017e-07
-7.38708e-05
-6.34903e-07
-7.32381e-05
-6.32723e-07
-7.26066e-05
-6.31502e-07
-7.19752e-05
-6.31379e-07
-7.13423e-05
-6.32935e-07
-7.06408e-05
-7.01474e-07
-6.98685e-05
-7.72269e-07
-6.90237e-05
-8.44838e-07
-6.81058e-05
-9.17879e-07
-6.71159e-05
-9.8985e-07
-6.60571e-05
-1.05888e-06
-6.49342e-05
-1.12287e-06
-6.37546e-05
-1.17959e-06
-6.25278e-05
-1.22685e-06
-6.12651e-05
-1.26263e-06
-5.99798e-05
-1.28529e-06
-5.86862e-05
-1.29369e-06
-5.73988e-05
-1.28736e-06
-5.61323e-05
-1.26651e-06
-5.49003e-05
-1.23203e-06
-5.37148e-05
-1.18544e-06
-5.25861e-05
-1.12869e-06
-5.15221e-05
-1.06402e-06
-5.05283e-05
-9.93787e-07
-4.9608e-05
-9.20272e-07
-4.87625e-05
-8.45559e-07
-4.7991e-05
-7.71454e-07
-4.72916e-05
-6.99433e-07
-4.6661e-05
-6.30639e-07
-4.60951e-05
-5.65894e-07
-4.55894e-05
-5.05708e-07
-4.51389e-05
-4.50423e-07
-4.47385e-05
-4.00476e-07
-4.4344e-05
-3.9451e-07
-4.39537e-05
-3.9025e-07
-4.35659e-05
-3.87852e-07
-4.31787e-05
-3.87223e-07
-4.27904e-05
-3.88286e-07
-4.23994e-05
-3.90947e-07
-4.20043e-05
-3.95108e-07
-4.16037e-05
-4.00668e-07
-4.11961e-05
-4.07521e-07
-4.07806e-05
-4.15552e-07
-4.03559e-05
-4.24638e-07
-3.99213e-05
-4.34646e-07
-3.94759e-05
-4.45427e-07
-3.90191e-05
-4.56815e-07
-3.85504e-05
-4.68625e-07
-3.80698e-05
-4.80649e-07
-3.75771e-05
-4.92657e-07
-3.70727e-05
-5.04391e-07
-3.65572e-05
-5.1557e-07
-3.60313e-05
-5.25883e-07
-3.54963e-05
-5.34997e-07
-3.49537e-05
-5.42554e-07
-3.44056e-05
-5.48178e-07
-3.38541e-05
-5.51484e-07
-3.3302e-05
-5.5208e-07
-3.27524e-05
-5.49588e-07
-3.22088e-05
-5.43651e-07
-3.16748e-05
-5.33955e-07
-3.11545e-05
-5.20248e-07
-3.06522e-05
-5.02358e-07
-3.0172e-05
-4.80217e-07
-2.97181e-05
-4.53879e-07
-2.92946e-05
-4.23533e-07
-2.8905e-05
-3.89516e-07
-2.85527e-05
-3.52305e-07
-2.82402e-05
-3.12513e-07
-2.79694e-05
-2.70856e-07
-2.77413e-05
-2.28116e-07
-2.75562e-05
-1.85083e-07
-2.74137e-05
-1.42501e-07
-2.73127e-05
-1.00991e-07
-2.72517e-05
-6.09922e-08
-2.7229e-05
-2.26667e-08
-2.7242e-05
1.30651e-08
-2.72867e-05
4.46703e-08
-2.73601e-05
7.34323e-08
-2.74622e-05
1.02028e-07
-2.75944e-05
1.32287e-07
-2.77615e-05
1.67023e-07
-2.79721e-05
2.10634e-07
-2.8242e-05
2.6992e-07
-2.8597e-05
3.54968e-07
-2.90766e-05
4.79631e-07
-2.97374e-05
6.60813e-07
-3.06538e-05
9.1638e-07
-3.19162e-05
1.26238e-06
-3.36136e-05
1.6974e-06
-3.58577e-05
2.24409e-06
4.14231e-06
-0.0001148
5.58192e-07
-0.000114832
-4.48228e-08
-0.000114838
-4.39813e-08
-0.000114936
1.21338e-07
-0.00011507
1.9285e-07
-0.000115215
2.11916e-07
-0.000115329
1.65263e-07
-0.00011539
7.77392e-08
-0.000115386
-2.75251e-08
-0.000115315
-1.35647e-07
-0.000115181
-2.39977e-07
-0.00011499
-3.33862e-07
-0.000114752
-4.13479e-07
-0.000114475
-4.78212e-07
-0.000114168
-5.2906e-07
-0.000113842
-5.66792e-07
-0.000113503
-5.91925e-07
-0.000113162
-6.04417e-07
-0.000112828
-6.02821e-07
-0.000112513
-5.84802e-07
-0.00011223
-5.47835e-07
-0.000111995
-4.89236e-07
-0.000111826
-4.06311e-07
-0.000111741
-2.96609e-07
-0.000111762
-1.57135e-07
-0.000111913
1.66882e-08
-0.000112209
2.18527e-07
-0.000112655
4.44469e-07
-0.000113264
6.99411e-07
-0.00011405
9.80864e-07
-0.000115015
1.28276e-06
-0.000116159
1.59762e-06
-0.000117472
1.91578e-06
-0.00011894
2.22601e-06
-0.000120542
2.51684e-06
-0.000122257
2.7777e-06
-0.00012406
2.99984e-06
-0.000125923
3.17675e-06
-0.000127821
3.30424e-06
-0.000129726
3.38023e-06
-0.000131611
3.40445e-06
-0.000133451
3.37812e-06
-0.000135221
3.30375e-06
-0.000136899
3.18477e-06
-0.000138465
3.02537e-06
-0.000139902
2.83034e-06
-0.000141195
2.6049e-06
-0.000142332
2.35447e-06
-0.000143305
2.08455e-06
-0.000144109
1.80057e-06
-0.000144739
1.50781e-06
-0.000145197
1.21128e-06
-0.000145484
9.15606e-07
-0.000145605
6.25038e-07
-0.000145566
3.43198e-07
-0.000145375
7.2994e-08
-0.00014504
-1.84451e-07
-0.000144568
-4.27721e-07
-0.000143974
-6.54092e-07
-0.000143273
-8.61842e-07
-0.000142478
-1.05001e-06
-0.000141602
-1.21814e-06
-0.000140654
-1.36636e-06
-0.000139645
-1.49525e-06
-0.000138585
-1.60563e-06
-0.000137482
-1.69856e-06
-0.000136346
-1.77522e-06
-0.000135183
-1.83691e-06
-0.000134002
-1.88495e-06
-0.000132808
-1.92068e-06
-0.000131608
-1.94544e-06
-0.000130405
-1.96049e-06
-0.000129205
-1.96709e-06
-0.00012801
-1.96639e-06
-0.000126825
-1.95948e-06
-0.000125651
-1.94737e-06
-0.000124491
-1.93097e-06
-0.000123347
-1.91112e-06
-0.000122219
-1.88857e-06
-0.000121108
-1.864e-06
-0.000120015
-1.83801e-06
-0.00011894
-1.81114e-06
-0.000117884
-1.78386e-06
-0.000116845
-1.75658e-06
-0.000115824
-1.72966e-06
-0.00011482
-1.70341e-06
-0.000113832
-1.67811e-06
-0.00011286
-1.65399e-06
-0.000111902
-1.63126e-06
-0.000110958
-1.61008e-06
-0.000110027
-1.59061e-06
-0.000109106
-1.57297e-06
-0.000108196
-1.55727e-06
-0.000107294
-1.5436e-06
-0.0001064
-1.53203e-06
-0.000105512
-1.52265e-06
-0.000104629
-1.51553e-06
-0.00010375
-1.51072e-06
-0.000102873
-1.50834e-06
-0.000101998
-1.50853e-06
-0.000101031
-1.66823e-06
-9.99688e-05
-1.8344e-06
-9.88089e-05
-2.00471e-06
-9.75507e-05
-2.17607e-06
-9.61959e-05
-2.34463e-06
-9.47489e-05
-2.50591e-06
-9.32168e-05
-2.65495e-06
-9.16099e-05
-2.78653e-06
-8.99412e-05
-2.89554e-06
-8.82265e-05
-2.97732e-06
-8.64837e-05
-3.0281e-06
-8.4732e-05
-3.04535e-06
-8.29913e-05
-3.02806e-06
-8.1281e-05
-2.97683e-06
-7.96191e-05
-2.89389e-06
-7.80217e-05
-2.78281e-06
-7.65022e-05
-2.64824e-06
-7.50707e-05
-2.49545e-06
-7.37346e-05
-2.32992e-06
-7.24979e-05
-2.15699e-06
-7.1362e-05
-1.98149e-06
-7.03258e-05
-1.8076e-06
-6.93865e-05
-1.63873e-06
-6.85397e-05
-1.47747e-06
-6.77799e-05
-1.32568e-06
-6.71011e-05
-1.18453e-06
-6.64968e-05
-1.05468e-06
-6.5961e-05
-9.36324e-07
-6.54345e-05
-9.21064e-07
-6.49142e-05
-9.10494e-07
-6.43977e-05
-9.04392e-07
-6.38824e-05
-9.02512e-07
-6.33661e-05
-9.0461e-07
-6.28466e-05
-9.10446e-07
-6.23219e-05
-9.19779e-07
-6.17902e-05
-9.32365e-07
-6.12498e-05
-9.47949e-07
-6.06991e-05
-9.66263e-07
-6.01367e-05
-9.87016e-07
-5.95614e-05
-1.00989e-06
-5.89723e-05
-1.03454e-06
-5.83686e-05
-1.06057e-06
-5.77496e-05
-1.08755e-06
-5.71153e-05
-1.115e-06
-5.64656e-05
-1.14237e-06
-5.58009e-05
-1.16908e-06
-5.5122e-05
-1.19445e-06
-5.44302e-05
-1.21776e-06
-5.37269e-05
-1.23825e-06
-5.30144e-05
-1.25508e-06
-5.22952e-05
-1.26738e-06
-5.15724e-05
-1.27424e-06
-5.08497e-05
-1.27476e-06
-5.01313e-05
-1.26806e-06
-4.94216e-05
-1.25331e-06
-4.87258e-05
-1.22977e-06
-4.80492e-05
-1.19685e-06
-4.73974e-05
-1.15415e-06
-4.67761e-05
-1.10149e-06
-4.6191e-05
-1.03898e-06
-4.56475e-05
-9.6703e-07
-4.51507e-05
-8.86397e-07
-4.47048e-05
-7.98152e-07
-4.43137e-05
-7.03667e-07
-4.398e-05
-6.04547e-07
-4.37055e-05
-5.02537e-07
-4.34912e-05
-3.99398e-07
-4.33369e-05
-2.96765e-07
-4.32419e-05
-1.95993e-07
-4.32049e-05
-9.80099e-08
-4.32244e-05
-3.12487e-09
-4.32961e-05
8.47622e-08
-4.34167e-05
1.65244e-07
-4.35872e-05
2.43932e-07
-4.38091e-05
3.24022e-07
-4.40864e-05
4.09497e-07
-4.44249e-05
5.05555e-07
-4.48333e-05
6.19085e-07
-4.53224e-05
7.58995e-07
-4.59038e-05
9.36305e-07
-4.65877e-05
1.16356e-06
-4.738e-05
1.45315e-06
-4.82786e-05
1.81498e-06
-4.927e-05
2.25373e-06
-5.03161e-05
2.74359e-06
-5.13566e-05
3.28455e-06
5.21917e-06
-0.000163073
1.18404e-06
-0.000163495
3.77701e-07
-0.000163729
1.90089e-07
-0.000163973
3.64984e-07
-0.000164209
4.29036e-07
-0.000164435
4.37398e-07
-0.000164615
3.45535e-07
-0.000164722
1.84877e-07
-0.000164742
-8.05446e-09
-0.000164672
-2.0521e-07
-0.000164519
-3.93374e-07
-0.000164292
-5.60577e-07
-0.000164007
-6.98691e-07
-0.000163679
-8.05925e-07
-0.000163325
-8.83317e-07
-0.00016296
-9.31527e-07
-0.000162601
-9.50822e-07
-0.000162265
-9.40483e-07
-0.00016197
-8.97543e-07
-0.000161737
-8.17914e-07
-0.000161587
-6.9767e-07
-0.000161543
-5.33344e-07
-0.000161627
-3.22627e-07
-0.000161858
-6.5211e-08
-0.000162246
2.3088e-07
-0.000162785
5.55127e-07
-0.000163472
9.05572e-07
-0.000164309
1.28214e-06
-0.000165291
1.68142e-06
-0.000166407
2.09678e-06
-0.000167644
2.5198e-06
-0.000168989
2.94195e-06
-0.000170427
3.35371e-06
-0.000171945
3.7443e-06
-0.000173531
4.10246e-06
-0.00017517
4.41722e-06
-0.000176849
4.67871e-06
-0.000178551
4.87876e-06
-0.000180258
5.01145e-06
-0.000181951
5.0731e-06
-0.000183609
5.06232e-06
-0.000185211
4.97985e-06
-0.000186735
4.82836e-06
-0.000188163
4.61214e-06
-0.000189474
4.33683e-06
-0.000190653
4.00913e-06
-0.000191685
3.63657e-06
-0.000192557
3.22714e-06
-0.000193262
2.78906e-06
-0.000193792
2.33055e-06
-0.000194144
1.85964e-06
-0.000194316
1.38397e-06
-0.000194311
9.10683e-07
-0.000194133
4.46388e-07
-0.000193786
-3.28451e-09
-0.000193279
-4.34186e-07
-0.000192621
-8.42164e-07
-0.000191826
-1.2235e-06
-0.000190904
-1.57582e-06
-0.000189868
-1.89753e-06
-0.000188731
-2.18767e-06
-0.000187503
-2.44585e-06
-0.000186197
-2.67233e-06
-0.000184824
-2.86796e-06
-0.000183396
-3.03406e-06
-0.000181922
-3.17227e-06
-0.000180413
-3.28447e-06
-0.000178877
-3.37272e-06
-0.000177323
-3.43915e-06
-0.000175758
-3.48593e-06
-0.000174188
-3.5152e-06
-0.000172619
-3.52904e-06
-0.000171057
-3.52947e-06
-0.000169505
-3.51836e-06
-0.000167967
-3.49748e-06
-0.000166446
-3.46847e-06
-0.000164944
-3.43281e-06
-0.000163463
-3.39188e-06
-0.000162005
-3.3469e-06
-0.00016057
-3.29898e-06
-0.000159159
-3.24909e-06
-0.000157772
-3.19812e-06
-0.000156409
-3.14682e-06
-0.00015507
-3.09588e-06
-0.000153753
-3.04588e-06
-0.000152459
-2.99732e-06
-0.000151187
-2.95067e-06
-0.000149935
-2.90629e-06
-0.000148701
-2.86451e-06
-0.000147486
-2.82561e-06
-0.000146287
-2.78984e-06
-0.000145102
-2.75737e-06
-0.000143931
-2.7284e-06
-0.000142772
-2.70305e-06
-0.000141622
-2.68144e-06
-0.000140481
-2.66366e-06
-0.000139347
-2.64981e-06
-0.000138218
-2.63994e-06
-0.000137092
-2.63407e-06
-0.000135968
-2.63222e-06
-0.000134728
-2.90848e-06
-0.000133366
-3.19617e-06
-0.00013188
-3.49086e-06
-0.000130269
-3.78707e-06
-0.000128536
-4.078e-06
-0.000126686
-4.3558e-06
-0.000124729
-4.6118e-06
-0.000122679
-4.83695e-06
-0.000120552
-5.02242e-06
-0.000118369
-5.16024e-06
-0.000116153
-5.24402e-06
-0.000113929
-5.26956e-06
-0.000111721
-5.2353e-06
-0.000109556
-5.14252e-06
-0.000107454
-4.99523e-06
-0.000105437
-4.7998e-06
-0.000103521
-4.56435e-06
-0.000101719
-4.29808e-06
-0.000100038
-4.01046e-06
-9.84844e-05
-3.71067e-06
-9.70588e-05
-3.40702e-06
-9.57598e-05
-3.10663e-06
-9.45832e-05
-2.81528e-06
-9.35234e-05
-2.53734e-06
-9.25731e-05
-2.27591e-06
-9.17248e-05
-2.03291e-06
-9.09702e-05
-1.80929e-06
-9.03013e-05
-1.60521e-06
-8.96444e-05
-1.57796e-06
-8.89958e-05
-1.55905e-06
-8.83523e-05
-1.5479e-06
-8.77108e-05
-1.54403e-06
-8.70684e-05
-1.54699e-06
-8.64225e-05
-1.55635e-06
-8.57706e-05
-1.57169e-06
-8.51104e-05
-1.59256e-06
-8.44398e-05
-1.61852e-06
-8.3757e-05
-1.64911e-06
-8.30602e-05
-1.68382e-06
-8.2348e-05
-1.7221e-06
-8.16192e-05
-1.76335e-06
-8.08728e-05
-1.80689e-06
-8.01084e-05
-1.85197e-06
-7.93257e-05
-1.89777e-06
-7.85247e-05
-1.94336e-06
-7.7706e-05
-1.98771e-06
-7.68708e-05
-2.02969e-06
-7.60205e-05
-2.06808e-06
-7.51572e-05
-2.10154e-06
-7.42836e-05
-2.12865e-06
-7.34031e-05
-2.14794e-06
-7.25194e-05
-2.15786e-06
-7.16373e-05
-2.15689e-06
-7.07619e-05
-2.14351e-06
-6.98989e-05
-2.11632e-06
-6.90545e-05
-2.07407e-06
-6.82356e-05
-2.01576e-06
-6.74491e-05
-1.94068e-06
-6.67021e-05
-1.84854e-06
-6.60015e-05
-1.73949e-06
-6.53543e-05
-1.61424e-06
-6.47667e-05
-1.47404e-06
-6.42442e-05
-1.32067e-06
-6.37914e-05
-1.15647e-06
-6.34118e-05
-9.84134e-07
-6.31077e-05
-8.06645e-07
-6.288e-05
-6.27036e-07
-6.27286e-05
-4.48184e-07
-6.2652e-05
-2.72569e-07
-6.26479e-05
-1.02093e-07
-6.27112e-05
6.0217e-08
-6.28371e-05
2.10623e-07
-6.30227e-05
3.50924e-07
-6.32649e-05
4.86119e-07
-6.35603e-05
6.19392e-07
-6.39053e-05
7.54503e-07
-6.42956e-05
8.95857e-07
-6.47253e-05
1.04874e-06
-6.51858e-05
1.21957e-06
-6.56658e-05
1.41627e-06
-6.61506e-05
1.64838e-06
-6.6624e-05
1.92647e-06
-6.70695e-05
2.26049e-06
-6.7472e-05
2.65631e-06
-6.78124e-05
3.08391e-06
-6.80684e-05
3.54053e-06
5.38087e-06
-0.000222786
2.6791e-06
-0.000224581
2.17263e-06
-0.000225777
1.38644e-06
-0.000226593
1.18091e-06
-0.000227111
9.46453e-07
-0.000227451
7.78267e-07
-0.000227667
5.60823e-07
-0.000227769
2.86599e-07
-0.000227754
-2.21932e-08
-0.000227625
-3.3442e-07
-0.000227389
-6.29337e-07
-0.000227062
-8.87507e-07
-0.000226664
-1.09681e-06
-0.000226215
-1.25464e-06
-0.000225736
-1.36286e-06
-0.000225244
-1.42313e-06
-0.000224758
-1.43709e-06
-0.000224293
-1.4054e-06
-0.000223865
-1.32586e-06
-0.000223487
-1.19522e-06
-0.000223174
-1.01077e-06
-0.000222937
-7.70647e-07
-0.000222785
-4.74549e-07
-0.000222726
-1.24413e-07
-0.000222768
2.72895e-07
-0.000222921
7.08006e-07
-0.000223193
1.17743e-06
-0.000223591
1.68058e-06
-0.000224124
2.21382e-06
-0.000224796
2.76914e-06
-0.000225612
3.33564e-06
-0.000226572
3.90185e-06
-0.000227673
4.45498e-06
-0.000228909
4.98068e-06
-0.000230271
5.46395e-06
-0.000231744
5.89001e-06
-0.00023331
6.2453e-06
-0.00023495
6.51834e-06
-0.000236639
6.70033e-06
-0.000238351
6.78535e-06
-0.000240059
6.77047e-06
-0.000241735
6.65569e-06
-0.00024335
6.44373e-06
-0.000244878
6.13973e-06
-0.000246292
5.75091e-06
-0.000247569
5.28618e-06
-0.000248688
4.75579e-06
-0.000249632
4.17085e-06
-0.000250386
3.54299e-06
-0.000250939
2.88397e-06
-0.000251285
2.20542e-06
-0.00025142
1.51845e-06
-0.000251343
8.33642e-07
-0.000251057
1.60916e-07
-0.000250569
-4.91261e-07
-0.000249888
-1.11564e-06
-0.000249024
-1.7061e-06
-0.000247989
-2.25784e-06
-0.000246798
-2.7673e-06
-0.000245463
-3.23192e-06
-0.000244001
-3.65011e-06
-0.000242426
-4.02132e-06
-0.000240752
-4.34594e-06
-0.000238995
-4.62518e-06
-0.000237168
-4.86093e-06
-0.000235285
-5.05556e-06
-0.000233357
-5.21186e-06
-0.000231397
-5.33283e-06
-0.000229415
-5.42164e-06
-0.000227419
-5.48149e-06
-0.000225419
-5.51558e-06
-0.000223421
-5.52702e-06
-0.000221431
-5.51878e-06
-0.000219456
-5.49369e-06
-0.000217499
-5.45437e-06
-0.000215564
-5.40326e-06
-0.000213655
-5.3426e-06
-0.000211772
-5.27443e-06
-0.000209918
-5.20055e-06
-0.000208095
-5.12264e-06
-0.000206302
-5.04214e-06
-0.000204539
-4.96035e-06
-0.000202808
-4.87841e-06
-0.000201106
-4.79733e-06
-0.000199434
-4.71797e-06
-0.00019779
-4.64109e-06
-0.000196174
-4.56735e-06
-0.000194583
-4.4973e-06
-0.000193016
-4.43141e-06
-0.000191471
-4.37011e-06
-0.000189948
-4.31372e-06
-0.000188442
-4.26254e-06
-0.000186954
-4.2168e-06
-0.00018548
-4.1767e-06
-0.000184019
-4.1424e-06
-0.000182569
-4.11402e-06
-0.000181127
-4.09167e-06
-0.000179692
-4.07541e-06
-0.00017826
-4.06525e-06
-0.000176832
-4.06118e-06
-0.000175254
-4.48618e-06
-0.000173522
-4.92847e-06
-0.000171631
-5.38107e-06
-0.000169583
-5.83542e-06
-0.00016738
-6.28091e-06
-0.00016503
-6.70534e-06
-0.000162547
-7.09528e-06
-0.000159947
-7.43675e-06
-0.000157253
-7.71618e-06
-0.000154492
-7.92142e-06
-0.000151693
-8.04284e-06
-0.000148889
-8.07428e-06
-0.00014611
-8.01368e-06
-0.00014339
-7.86338e-06
-0.000140755
-7.62996e-06
-0.000138231
-7.32351e-06
-0.000135839
-6.95679e-06
-0.000133593
-6.54405e-06
-0.000131503
-6.09994e-06
-0.000129575
-5.63849e-06
-0.00012781
-5.17233e-06
-0.000126204
-4.71224e-06
-0.000124753
-4.26688e-06
-0.000123447
-3.84275e-06
-0.000122279
-3.44441e-06
-0.000121237
-3.07463e-06
-0.000120312
-2.73471e-06
-0.000119492
-2.42481e-06
-0.000118688
-2.38237e-06
-0.000117894
-2.35259e-06
-0.000117108
-2.33453e-06
-0.000116324
-2.32747e-06
-0.00011554
-2.33069e-06
-0.000114753
-2.34353e-06
-0.00011396
-2.36531e-06
-0.000113157
-2.39537e-06
-0.000112342
-2.43301e-06
-0.000111514
-2.47751e-06
-0.00011067
-2.52808e-06
-0.000109808
-2.58387e-06
-0.000108927
-2.64397e-06
-0.000108027
-2.70734e-06
-0.000107106
-2.77284e-06
-0.000106165
-2.83921e-06
-0.000105203
-2.90505e-06
-0.000104222
-2.96881e-06
-0.000103223
-3.0288e-06
-0.000102208
-3.08317e-06
-0.000101179
-3.12994e-06
-0.000100141
-3.16703e-06
-9.90966e-05
-3.19222e-06
-9.80511e-05
-3.20329e-06
-9.701e-05
-3.19798e-06
-9.59794e-05
-3.17414e-06
-9.4966e-05
-3.12974e-06
-9.3977e-05
-3.06305e-06
-9.30201e-05
-2.97267e-06
-9.21031e-05
-2.85771e-06
-9.12337e-05
-2.71786e-06
-9.04197e-05
-2.55355e-06
-8.9668e-05
-2.36598e-06
-8.89848e-05
-2.15717e-06
-8.83755e-05
-1.93003e-06
-8.78438e-05
-1.68817e-06
-8.7392e-05
-1.43588e-06
-8.70208e-05
-1.17782e-06
-8.6729e-05
-9.1882e-07
-8.65137e-05
-6.63534e-07
-8.63701e-05
-4.16122e-07
-8.62922e-05
-1.80002e-07
-8.62737e-05
4.17725e-08
-8.63088e-05
2.45705e-07
-8.639e-05
4.32159e-07
-8.65091e-05
6.05215e-07
-8.66578e-05
7.68108e-07
-8.68281e-05
9.24774e-07
-8.70121e-05
1.07989e-06
-8.72025e-05
1.23907e-06
-8.7392e-05
1.40906e-06
-8.75738e-05
1.59815e-06
-8.77417e-05
1.81619e-06
-8.78892e-05
2.07398e-06
-8.80102e-05
2.38156e-06
-8.80988e-05
2.74488e-06
-8.81457e-05
3.1308e-06
-8.81361e-05
3.53092e-06
5.18899e-06
-0.000291923
5.43762e-06
-0.000296055
6.30484e-06
-0.000299422
4.75331e-06
-0.00030201
3.76873e-06
-0.000303717
2.65368e-06
-0.000304669
1.73004e-06
-0.000305042
9.34505e-07
-0.000305008
2.51819e-07
-0.000304678
-3.51867e-07
-0.00030412
-8.92168e-07
-0.000303381
-1.36835e-06
-0.000302499
-1.76981e-06
-0.000301505
-2.09037e-06
-0.00030043
-2.33033e-06
-0.000299299
-2.49406e-06
-0.000298137
-2.58504e-06
-0.000296967
-2.60671e-06
-0.000295811
-2.56122e-06
-0.00029469
-2.44696e-06
-0.000293624
-2.26092e-06
-0.000292634
-2.00083e-06
-0.00029174
-1.66549e-06
-0.000290959
-1.25553e-06
-0.000290309
-7.74064e-07
-0.000289809
-2.27015e-07
-0.000289478
3.76895e-07
-0.000289329
1.02866e-06
-0.000289372
1.72362e-06
-0.000289616
2.45823e-06
-0.00029007
3.22217e-06
-0.000290734
4.00056e-06
-0.00029161
4.77774e-06
-0.000292692
5.53656e-06
-0.00029397
6.25827e-06
-0.000295429
6.92336e-06
-0.000297052
7.5126e-06
-0.000298814
8.00814e-06
-0.000300691
8.39455e-06
-0.00030265
8.65946e-06
-0.000304658
8.79414e-06
-0.000306682
8.79366e-06
-0.000308683
8.65688e-06
-0.000310626
8.3864e-06
-0.000312474
7.98825e-06
-0.000314195
7.47145e-06
-0.000315756
6.84757e-06
-0.00031713
6.1302e-06
-0.000318294
5.33434e-06
-0.000319227
4.47592e-06
-0.000319914
3.57121e-06
-0.000320345
2.63643e-06
-0.000320514
1.68723e-06
-0.000320419
7.38579e-07
-0.000320063
-1.9516e-07
-0.000319452
-1.10153e-06
-0.000318598
-1.9702e-06
-0.000317511
-2.79254e-06
-0.000316208
-3.56149e-06
-0.000314703
-4.27159e-06
-0.000313016
-4.91893e-06
-0.000311165
-5.50115e-06
-0.000309169
-6.01737e-06
-0.000307047
-6.46802e-06
-0.000304818
-6.85469e-06
-0.000302499
-7.17995e-06
-0.000300107
-7.44711e-06
-0.000297659
-7.66002e-06
-0.000295169
-7.82294e-06
-0.00029265
-7.94034e-06
-0.000290115
-8.01677e-06
-0.000287574
-8.05678e-06
-0.000285036
-8.0648e-06
-0.00028251
-8.04509e-06
-0.000280002
-8.00166e-06
-0.000277518
-7.93829e-06
-0.000275063
-7.85845e-06
-0.00027264
-7.76535e-06
-0.000270252
-7.66189e-06
-0.000267902
-7.55067e-06
-0.000265591
-7.43405e-06
-0.000263319
-7.31411e-06
-0.000261087
-7.19268e-06
-0.000258894
-7.0714e-06
-0.000256739
-6.95167e-06
-0.000254622
-6.83474e-06
-0.000252542
-6.72166e-06
-0.000250496
-6.61336e-06
-0.000248483
-6.51061e-06
-0.0002465
-6.4141e-06
-0.000244546
-6.32438e-06
-0.000242617
-6.24193e-06
-0.000240713
-6.16713e-06
-0.000238829
-6.10032e-06
-0.000236964
-6.04176e-06
-0.000235115
-5.99163e-06
-0.000233279
-5.95012e-06
-0.000231453
-5.91734e-06
-0.000229635
-5.89336e-06
-0.000227822
-5.8782e-06
-0.000226012
-5.87186e-06
-0.000224012
-6.48575e-06
-0.000221816
-7.12433e-06
-0.00021942
-7.77744e-06
-0.000216823
-8.43244e-06
-0.00021403
-9.07389e-06
-0.000211051
-9.68398e-06
-0.000207903
-1.02431e-05
-0.000204609
-1.0731e-05
-0.000201197
-1.1128e-05
-0.000197702
-1.14166e-05
-0.000194162
-1.15829e-05
-0.000190618
-1.16185e-05
-0.000187111
-1.15207e-05
-0.000183681
-1.12934e-05
-0.000180364
-1.09466e-05
-0.000177192
-1.04954e-05
-0.00017419
-9.95875e-06
-0.000171377
-9.35744e-06
-0.000168764
-8.71279e-06
-0.000166357
-8.04507e-06
-0.000164157
-7.37241e-06
-0.000162159
-6.71014e-06
-0.000160356
-6.07047e-06
-0.000158736
-5.4625e-06
-0.000157288
-4.89248e-06
-0.000155998
-4.36416e-06
-0.000154854
-3.8792e-06
-0.000153841
-3.43765e-06
-0.000152848
-3.37553e-06
-0.000151869
-3.33144e-06
-0.0001509
-3.30398e-06
-0.000149935
-3.29207e-06
-0.000148971
-3.29468e-06
-0.000148004
-3.31081e-06
-0.000147029
-3.3395e-06
-0.000146045
-3.37977e-06
-0.000145047
-3.43061e-06
-0.000144034
-3.49096e-06
-0.000143002
-3.5597e-06
-0.000141951
-3.63561e-06
-0.000140877
-3.71734e-06
-0.000139781
-3.80344e-06
-0.000138662
-3.89227e-06
-0.000137519
-3.98204e-06
-0.000136353
-4.07078e-06
-0.000135166
-4.1563e-06
-0.000133958
-4.23625e-06
-0.000132733
-4.30806e-06
-0.000131494
-4.369e-06
-0.000130245
-4.41619e-06
-0.000128991
-4.44665e-06
-0.000127737
-4.45736e-06
-0.000126489
-4.44533e-06
-0.000125256
-4.40772e-06
-0.000124044
-4.34193e-06
-0.000122861
-4.24577e-06
-0.000121716
-4.11758e-06
-0.000120617
-3.95641e-06
-0.000119573
-3.76216e-06
-0.000118591
-3.5357e-06
-0.000117678
-3.279e-06
-0.00011684
-2.99515e-06
-0.000116081
-2.68836e-06
-0.000115406
-2.36383e-06
-0.000114814
-2.02758e-06
-0.000114306
-1.68615e-06
-0.000113878
-1.3462e-06
-0.000113528
-1.01416e-06
-0.000113248
-6.95779e-07
-0.000113032
-3.95753e-07
-0.000112873
-1.17547e-07
-0.000112763
1.36265e-07
-0.000112696
3.64948e-07
-0.000112662
5.71054e-07
-0.000112653
7.58641e-07
-0.00011266
9.32307e-07
-0.000112678
1.09752e-06
-0.000112699
1.26065e-06
-0.000112719
1.4291e-06
-0.000112733
1.61151e-06
-0.000112734
1.81778e-06
-0.000112719
2.0583e-06
-0.00011268
2.34259e-06
-0.000112611
2.67658e-06
-0.000112506
3.02539e-06
-0.000112351
3.37581e-06
4.81165e-06
-0.000367881
9.22877e-06
-0.000373947
1.23707e-05
-0.000379306
1.01122e-05
-0.000383876
8.33858e-06
-0.00038737
6.14723e-06
-0.000389735
4.09548e-06
-0.000391014
2.21381e-06
-0.000391354
5.91647e-07
-0.000390954
-7.51647e-07
-0.000390018
-1.82856e-06
-0.000388711
-2.67541e-06
-0.000387152
-3.32875e-06
-0.000385424
-3.81795e-06
-0.000383589
-4.16617e-06
-0.000381691
-4.39198e-06
-0.000379769
-4.50702e-06
-0.000377855
-4.52003e-06
-0.00037598
-4.43658e-06
-0.00037417
-4.25652e-06
-0.000372454
-3.97747e-06
-0.000370857
-3.59791e-06
-0.000369405
-3.11759e-06
-0.000368122
-2.53839e-06
-0.000367031
-1.86506e-06
-0.000366153
-1.10542e-06
-0.000365506
-2.69766e-07
-0.000365107
6.29591e-07
-0.000364965
1.58197e-06
-0.000365089
2.5818e-06
-0.000365485
3.618e-06
-0.000366155
4.67151e-06
-0.0003671
5.72198e-06
-0.000368311
6.74741e-06
-0.000369776
7.72387e-06
-0.000371479
8.62649e-06
-0.000373397
9.43067e-06
-0.000375503
1.01133e-05
-0.000377762
1.06539e-05
-0.000380138
1.10356e-05
-0.00038259
1.1246e-05
-0.000385073
1.12772e-05
-0.000387543
1.11264e-05
-0.000389953
1.0796e-05
-0.000392257
1.02926e-05
-0.000394413
9.62736e-06
-0.00039638
8.81487e-06
-0.000398123
7.87276e-06
-0.000399609
6.82081e-06
-0.000400813
5.68023e-06
-0.000401715
4.47293e-06
-0.0004023
3.22086e-06
-0.000402558
1.94535e-06
-0.000402486
6.66842e-07
-0.000402086
-5.94941e-07
-0.000401365
-1.82244e-06
-0.000400334
-3.00133e-06
-0.000399007
-4.11958e-06
-0.000397402
-5.16693e-06
-0.000395538
-6.1353e-06
-0.000393438
-7.01883e-06
-0.000391125
-7.81387e-06
-0.000388624
-8.51883e-06
-0.000385958
-9.13404e-06
-0.000383151
-9.66142e-06
-0.000380227
-1.01043e-05
-0.000377207
-1.0467e-05
-0.000374112
-1.07549e-05
-0.000370961
-1.09736e-05
-0.000367773
-1.11292e-05
-0.000364561
-1.12282e-05
-0.000361341
-1.12767e-05
-0.000358125
-1.12809e-05
-0.000354924
-1.12467e-05
-0.000351745
-1.11798e-05
-0.000348598
-1.10855e-05
-0.000345488
-1.09685e-05
-0.00034242
-1.08333e-05
-0.000339398
-1.06841e-05
-0.000336424
-1.05244e-05
-0.000333501
-1.03575e-05
-0.000330629
-1.01864e-05
-0.000327808
-1.00135e-05
-0.000325038
-9.84117e-06
-0.000322318
-9.67134e-06
-0.000319647
-9.50572e-06
-0.000317023
-9.34575e-06
-0.000314444
-9.19273e-06
-0.000311907
-9.0477e-06
-0.000309409
-8.91159e-06
-0.000306949
-8.78515e-06
-0.000304522
-8.66904e-06
-0.000302125
-8.56377e-06
-0.000299755
-8.46977e-06
-0.00029741
-8.38739e-06
-0.000295085
-8.3169e-06
-0.000292776
-8.25849e-06
-0.000290481
-8.21231e-06
-0.000288196
-8.17846e-06
-0.000285917
-8.15696e-06
-0.000283641
-8.14781e-06
-0.000281128
-8.99937e-06
-0.000278367
-9.88493e-06
-0.000275354
-1.07903e-05
-0.000272089
-1.16978e-05
-0.000268577
-1.25857e-05
-0.000264832
-1.34291e-05
-0.000260875
-1.42007e-05
-0.000256733
-1.48723e-05
-0.000252445
-1.54163e-05
-0.000248053
-1.58086e-05
-0.000243606
-1.60299e-05
-0.000239156
-1.60687e-05
-0.000234755
-1.59217e-05
-0.000230453
-1.55948e-05
-0.000226298
-1.51024e-05
-0.000222327
-1.44661e-05
-0.000218573
-1.37127e-05
-0.000215059
-1.28717e-05
-0.000211799
-1.19727e-05
-0.0002088
-1.10442e-05
-0.000206061
-1.0111e-05
-0.000203577
-9.19425e-06
-0.000201337
-8.31058e-06
-0.000199327
-7.47225e-06
-0.000197532
-6.68754e-06
-0.000195935
-5.96131e-06
-0.000194519
-5.29559e-06
-0.000193266
-4.69022e-06
-0.000192039
-4.603e-06
-0.000190829
-4.54055e-06
-0.000189633
-4.5008e-06
-0.000188443
-4.48221e-06
-0.000187254
-4.48332e-06
-0.000186062
-4.50277e-06
-0.000184862
-4.53918e-06
-0.000183651
-4.59119e-06
-0.000182424
-4.65739e-06
-0.000181179
-4.73631e-06
-0.000179912
-4.82639e-06
-0.000178622
-4.92593e-06
-0.000177306
-5.03309e-06
-0.000175964
-5.14584e-06
-0.000174594
-5.26197e-06
-0.000173197
-5.37904e-06
-0.000171773
-5.49434e-06
-0.000170325
-5.60496e-06
-0.000168853
-5.70772e-06
-0.000167362
-5.7992e-06
-0.000165855
-5.87578e-06
-0.000164338
-5.93367e-06
-0.000162815
-5.96898e-06
-0.000161295
-5.9778e-06
-0.000159784
-5.95633e-06
-0.000158291
-5.90097e-06
-0.000156824
-5.80853e-06
-0.000155394
-5.67639e-06
-0.000154008
-5.50268e-06
-0.000152678
-5.28647e-06
-0.000151413
-5.02801e-06
-0.000150219
-4.72882e-06
-0.000149107
-4.39184e-06
-0.00014808
-4.02143e-06
-0.000147145
-3.62339e-06
-0.000146304
-3.20472e-06
-0.000145559
-2.77342e-06
-0.000144907
-2.33806e-06
-0.000144345
-1.90733e-06
-0.00014387
-1.48957e-06
-0.000143474
-1.09214e-06
-0.000143148
-7.21099e-07
-0.000142885
-3.80788e-07
-0.000142675
-7.36911e-08
-0.00014251
1.99462e-07
-0.000142379
4.40571e-07
-0.000142274
6.54011e-07
-0.000142187
8.45236e-07
-0.00014211
1.02061e-06
-0.000142037
1.18736e-06
-0.000141962
1.35357e-06
-0.000141878
1.52826e-06
-0.000141782
1.72136e-06
-0.000141667
1.94283e-06
-0.000141526
2.20168e-06
-0.000141353
2.50373e-06
-0.00014114
2.81223e-06
-0.000140878
3.11449e-06
4.29787e-06
-0.000448079
1.37754e-05
-0.000455483
1.97739e-05
-0.000462242
1.6872e-05
-0.000468304
1.44001e-05
-0.000473341
1.11847e-05
-0.000477267
8.02131e-06
-0.000480034
4.98057e-06
-0.000481664
2.22135e-06
-0.000482238
-1.76883e-07
-0.000481911
-2.15573e-06
-0.000480875
-3.71148e-06
-0.000479313
-4.89122e-06
-0.000477377
-5.75327e-06
-0.000475191
-6.35224e-06
-0.000472848
-6.73485e-06
-0.000470422
-6.9334e-06
-0.000467971
-6.97149e-06
-0.000465542
-6.86488e-06
-0.00046318
-6.6189e-06
-0.000460923
-6.23423e-06
-0.000458809