/*--------------------------------*- C++ -*----------------------------------*\
| =========                 |                                                 |
| \\      /  F ield         | OpenFOAM: The Open Source CFD Toolbox           |
|  \\    /   O peration     | Version:  2406                                  |
|   \\  /    A nd           | Website:  www.openfoam.com                      |
|    \\/     M anipulation  |                                                 |
\*---------------------------------------------------------------------------*/
FoamFile
{
    version     2.0;
    format      ascii;
    arch        "LSB;label=32;scalar=64";
    class       volScalarField;
    location    "900";
    object      T;
}
// * * * * * * * * * * * * * * * * * * * * * * * * * * * * * * * * * * * * * //

dimensions      [0 0 0 1 0 0 0];

internalField   nonuniform List<scalar> 
5619
(
295.381
294.379
294.074
293.751
293.613
293.47
293.405
293.332
293.296
293.256
293.235
293.212
293.199
293.185
293.178
293.17
293.166
293.161
293.158
293.156
293.155
293.153
293.152
293.152
293.151
293.151
293.151
293.15
293.15
293.15
293.15
293.15
293.15
293.15
293.15
293.15
293.15
293.15
293.15
293.15
293.15
293.15
293.15
293.15
293.15
293.15
293.15
293.15
293.15
293.15
293.15
293.15
293.15
293.15
293.15
293.15
293.15
293.15
293.15
293.15
293.15
293.15
293.15
293.15
293.15
293.15
293.15
293.15
293.15
293.15
293.15
293.15
293.15
293.15
293.15
293.15
293.15
293.15
293.15
293.15
293.15
293.15
293.15
293.15
293.15
293.15
293.15
293.15
293.15
293.15
293.15
293.15
293.15
293.15
293.15
293.15
293.15
293.15
293.15
293.15
293.15
293.15
293.15
293.15
293.15
293.15
293.15
293.15
293.15
293.15
293.15
293.15
293.15
293.15
293.15
293.15
293.15
293.15
293.15
293.15
293.15
293.15
293.15
293.15
293.15
293.15
293.15
293.15
293.15
293.15
293.15
293.15
293.15
293.15
293.15
293.15
293.15
293.15
293.15
293.15
293.15
293.15
293.15
293.15
293.15
293.15
293.15
293.15
293.15
293.15
293.15
293.15
293.15
293.15
293.15
293.15
293.15
293.15
293.15
293.15
293.15
293.15
293.15
293.15
293.15
293.15
293.15
293.15
293.15
293.15
293.15
293.15
293.15
293.15
293.15
293.15
293.15
293.15
293.15
293.15
293.15
293.15
293.15
293.15
293.15
293.15
293.15
296.001
294.796
294.396
293.96
293.768
293.577
293.489
293.396
293.349
293.297
293.269
293.239
293.221
293.203
293.192
293.182
293.175
293.168
293.165
293.161
293.158
293.156
293.155
293.153
293.153
293.152
293.151
293.151
293.151
293.151
293.15
293.15
293.15
293.15
293.15
293.15
293.15
293.15
293.15
293.15
293.15
293.15
293.15
293.15
293.15
293.15
293.15
293.15
293.15
293.15
293.15
293.15
293.15
293.15
293.15
293.15
293.15
293.15
293.15
293.15
293.15
293.15
293.15
293.15
293.15
293.15
293.15
293.15
293.15
293.15
293.15
293.15
293.15
293.15
293.15
293.15
293.15
293.15
293.15
293.15
293.15
293.15
293.15
293.15
293.15
293.15
293.15
293.15
293.15
293.15
293.15
293.15
293.15
293.15
293.15
293.15
293.15
293.15
293.15
293.15
293.15
293.15
293.15
293.15
293.15
293.15
293.15
293.15
293.15
293.15
293.15
293.15
293.15
293.15
293.15
293.15
293.15
293.15
293.15
293.15
293.15
293.15
293.15
293.15
293.15
293.15
293.15
293.15
293.15
293.15
293.15
293.15
293.15
293.15
293.15
293.15
293.15
293.15
293.15
293.15
293.15
293.15
293.15
293.15
293.15
293.15
293.15
293.15
293.15
293.15
293.15
293.15
293.15
293.15
293.15
293.15
293.15
293.15
293.15
293.15
293.15
293.15
293.15
293.15
293.15
293.15
293.15
293.15
293.15
293.15
293.15
293.15
293.15
293.15
293.15
293.15
293.15
293.15
293.15
293.15
293.15
293.15
293.15
293.15
293.15
293.15
293.15
297.032
295.567
295.016
294.389
294.083
293.797
293.662
293.526
293.456
293.382
293.34
293.296
293.27
293.243
293.226
293.209
293.198
293.187
293.18
293.173
293.168
293.164
293.161
293.158
293.157
293.155
293.154
293.153
293.153
293.152
293.152
293.151
293.151
293.151
293.151
293.151
293.15
293.15
293.15
293.15
293.15
293.15
293.15
293.15
293.15
293.15
293.15
293.15
293.15
293.15
293.15
293.15
293.15
293.15
293.15
293.15
293.15
293.15
293.15
293.15
293.15
293.15
293.15
293.15
293.15
293.15
293.15
293.15
293.15
293.15
293.15
293.15
293.15
293.15
293.15
293.15
293.15
293.15
293.15
293.15
293.15
293.15
293.15
293.15
293.15
293.15
293.15
293.15
293.15
293.15
293.15
293.15
293.15
293.15
293.15
293.15
293.15
293.15
293.15
293.15
293.15
293.15
293.15
293.15
293.15
293.15
293.15
293.15
293.15
293.15
293.15
293.15
293.15
293.15
293.15
293.15
293.15
293.15
293.15
293.15
293.15
293.15
293.15
293.15
293.15
293.15
293.15
293.15
293.15
293.15
293.15
293.15
293.15
293.15
293.15
293.15
293.15
293.15
293.15
293.15
293.15
293.15
293.15
293.15
293.15
293.15
293.15
293.15
293.15
293.15
293.15
293.15
293.15
293.15
293.15
293.15
293.15
293.15
293.15
293.15
293.15
293.15
293.15
293.15
293.15
293.15
293.15
293.15
293.15
293.15
293.15
293.15
293.15
293.15
293.15
293.15
293.15
293.15
293.15
293.15
293.15
293.15
293.15
293.15
293.15
293.15
293.15
298.594
296.968
296.24
295.366
294.801
294.329
294.063
293.836
293.709
293.585
293.512
293.438
293.391
293.345
293.313
293.282
293.261
293.24
293.225
293.211
293.201
293.191
293.184
293.177
293.173
293.168
293.165
293.162
293.16
293.158
293.157
293.156
293.155
293.154
293.153
293.153
293.152
293.152
293.152
293.151
293.151
293.151
293.151
293.151
293.15
293.15
293.15
293.15
293.15
293.15
293.15
293.15
293.15
293.15
293.15
293.15
293.15
293.15
293.15
293.15
293.15
293.15
293.15
293.15
293.15
293.15
293.15
293.15
293.15
293.15
293.15
293.15
293.15
293.15
293.15
293.15
293.15
293.15
293.15
293.15
293.15
293.15
293.15
293.15
293.15
293.15
293.15
293.15
293.15
293.15
293.15
293.15
293.15
293.15
293.15
293.15
293.15
293.15
293.15
293.15
293.15
293.15
293.15
293.15
293.15
293.15
293.15
293.15
293.15
293.15
293.15
293.15
293.15
293.15
293.15
293.15
293.15
293.15
293.15
293.15
293.15
293.15
293.15
293.15
293.15
293.15
293.15
293.15
293.15
293.15
293.15
293.15
293.15
293.15
293.15
293.15
293.15
293.15
293.15
293.15
293.15
293.15
293.15
293.15
293.15
293.15
293.15
293.15
293.15
293.15
293.15
293.15
293.15
293.15
293.15
293.15
293.15
293.15
293.15
293.15
293.15
293.15
293.15
293.15
293.15
293.15
293.15
293.15
293.15
293.15
293.15
293.15
293.15
293.15
293.15
293.15
293.15
293.15
293.15
293.15
293.15
293.15
293.15
293.15
293.15
293.15
293.15
300.347
298.934
298.181
297.222
296.381
295.628
295.068
294.633
294.34
294.101
293.94
293.796
293.694
293.602
293.533
293.471
293.422
293.378
293.343
293.311
293.287
293.263
293.246
293.23
293.217
293.206
293.197
293.189
293.183
293.178
293.173
293.17
293.167
293.164
293.162
293.16
293.159
293.157
293.156
293.155
293.154
293.153
293.153
293.152
293.152
293.152
293.151
293.151
293.151
293.151
293.15
293.15
293.15
293.15
293.15
293.15
293.15
293.15
293.15
293.15
293.15
293.15
293.15
293.15
293.15
293.15
293.15
293.15
293.15
293.15
293.15
293.15
293.15
293.15
293.15
293.15
293.15
293.15
293.15
293.15
293.15
293.15
293.15
293.15
293.15
293.15
293.15
293.15
293.15
293.15
293.15
293.15
293.15
293.15
293.15
293.15
293.15
293.15
293.15
293.15
293.15
293.15
293.15
293.15
293.15
293.15
293.15
293.15
293.15
293.15
293.15
293.15
293.15
293.15
293.15
293.15
293.15
293.15
293.15
293.15
293.15
293.15
293.15
293.15
293.15
293.15
293.15
293.15
293.15
293.15
293.15
293.15
293.15
293.15
293.15
293.15
293.15
293.15
293.15
293.15
293.15
293.15
293.15
293.15
293.15
293.15
293.15
293.15
293.15
293.15
293.15
293.15
293.15
293.15
293.15
293.15
293.15
293.15
293.15
293.15
293.15
293.15
293.15
293.15
293.15
293.15
293.15
293.15
293.15
293.15
293.15
293.15
293.15
293.15
293.15
293.15
293.15
293.15
293.15
293.15
293.15
293.15
293.15
293.15
293.15
293.15
293.15
301.964
300.906
300.296
299.481
298.659
297.829
297.034
296.32
295.735
295.253
294.886
294.585
294.352
294.16
294.005
293.875
293.767
293.675
293.599
293.531
293.476
293.427
293.387
293.352
293.323
293.297
293.276
293.257
293.242
293.229
293.218
293.209
293.201
293.194
293.188
293.183
293.179
293.175
293.172
293.169
293.166
293.164
293.162
293.16
293.159
293.157
293.156
293.155
293.154
293.153
293.153
293.152
293.151
293.151
293.151
293.151
293.15
293.15
293.15
293.15
293.15
293.15
293.15
293.15
293.15
293.15
293.15
293.15
293.15
293.15
293.15
293.15
293.15
293.15
293.15
293.15
293.15
293.15
293.15
293.15
293.15
293.15
293.15
293.15
293.15
293.15
293.15
293.15
293.15
293.15
293.15
293.15
293.15
293.15
293.15
293.15
293.15
293.15
293.15
293.15
293.15
293.15
293.15
293.15
293.15
293.15
293.15
293.15
293.15
293.15
293.15
293.15
293.15
293.15
293.15
293.15
293.15
293.15
293.15
293.15
293.15
293.15
293.15
293.15
293.15
293.15
293.15
293.15
293.15
293.15
293.15
293.15
293.15
293.15
293.15
293.15
293.15
293.15
293.15
293.15
293.15
293.15
293.15
293.15
293.15
293.15
293.15
293.15
293.15
293.15
293.15
293.15
293.15
293.15
293.15
293.15
293.15
293.15
293.15
293.15
293.15
293.15
293.15
293.15
293.15
293.15
293.15
293.15
293.15
293.15
293.15
293.15
293.15
293.15
293.15
293.15
293.15
293.15
293.15
293.15
293.15
293.15
293.15
293.15
293.15
293.15
293.15
303.478
302.76
302.325
301.723
301.084
300.379
299.623
298.845
298.079
297.351
296.714
296.164
295.704
295.322
295.006
294.743
294.521
294.332
294.172
294.034
293.918
293.817
293.732
293.657
293.595
293.539
293.492
293.45
293.414
293.384
293.357
293.334
293.314
293.297
293.282
293.269
293.257
293.246
293.237
293.228
293.221
293.214
293.207
293.201
293.195
293.19
293.185
293.18
293.176
293.172
293.168
293.165
293.162
293.16
293.158
293.156
293.155
293.153
293.153
293.152
293.151
293.151
293.151
293.151
293.15
293.15
293.15
293.15
293.15
293.15
293.15
293.15
293.15
293.15
293.15
293.15
293.15
293.15
293.15
293.15
293.15
293.15
293.15
293.15
293.15
293.15
293.15
293.15
293.15
293.15
293.15
293.15
293.15
293.15
293.15
293.15
293.15
293.15
293.15
293.15
293.15
293.15
293.15
293.15
293.15
293.15
293.15
293.15
293.15
293.15
293.15
293.15
293.15
293.15
293.15
293.15
293.15
293.15
293.15
293.15
293.15
293.15
293.15
293.15
293.15
293.15
293.15
293.15
293.15
293.15
293.15
293.15
293.15
293.15
293.15
293.15
293.15
293.15
293.15
293.15
293.15
293.15
293.15
293.15
293.15
293.15
293.15
293.15
293.15
293.15
293.15
293.15
293.15
293.15
293.15
293.15
293.15
293.15
293.15
293.15
293.15
293.15
293.15
293.15
293.15
293.15
293.15
293.15
293.15
293.15
293.15
293.15
293.15
293.15
293.15
293.15
293.15
293.15
293.15
293.15
293.15
293.15
293.15
293.15
293.15
293.15
293.15
304.991
304.603
304.358
303.986
303.595
303.137
302.614
302.015
301.339
300.604
299.853
299.119
298.422
297.789
297.229
296.738
296.309
295.935
295.606
295.316
295.066
294.851
294.665
294.505
294.368
294.249
294.144
294.051
293.968
293.897
293.835
293.78
293.733
293.691
293.656
293.625
293.596
293.57
293.547
293.526
293.506
293.488
293.47
293.453
293.434
293.417
293.397
293.379
293.36
293.337
293.316
293.297
293.278
293.26
293.243
293.228
293.214
293.202
293.192
293.183
293.176
293.17
293.165
293.161
293.158
293.156
293.155
293.154
293.153
293.152
293.151
293.151
293.151
293.15
293.15
293.15
293.15
293.15
293.15
293.15
293.15
293.15
293.15
293.15
293.15
293.15
293.15
293.15
293.15
293.15
293.15
293.15
293.15
293.15
293.15
293.15
293.15
293.15
293.15
293.15
293.15
293.15
293.15
293.15
293.15
293.15
293.15
293.15
293.15
293.15
293.15
293.15
293.15
293.15
293.15
293.15
293.15
293.15
293.15
293.15
293.15
293.15
293.15
293.15
293.15
293.15
293.15
293.15
293.15
293.15
293.15
293.15
293.15
293.15
293.15
293.15
293.15
293.15
293.15
293.15
293.15
293.15
293.15
293.15
293.15
293.15
293.15
293.15
293.15
293.15
293.15
293.15
293.15
293.15
293.15
293.15
293.15
293.15
293.15
293.15
293.15
293.15
293.15
293.15
293.15
293.15
293.15
293.15
293.15
293.15
293.15
293.15
293.15
293.15
293.15
293.15
293.15
293.15
293.15
293.15
293.15
293.15
293.15
293.15
293.15
293.15
293.15
306.522
306.441
306.402
306.252
306.123
305.937
305.72
305.45
305.105
304.658
304.101
303.49
302.828
302.138
301.452
300.782
300.14
299.536
298.972
298.45
297.976
297.555
297.183
296.856
296.573
296.325
296.109
295.92
295.752
295.605
295.477
295.365
295.274
295.202
295.149
295.108
295.071
295.043
295.042
295.074
295.005
295.045
295.021
295.037
295.024
295.027
295.029
295.084
295.172
294.88
294.769
294.644
294.6
294.53
294.433
294.351
294.243
294.146
294.031
293.924
293.812
293.705
293.603
293.513
293.434
293.372
293.327
293.297
293.268
293.244
293.224
293.207
293.194
293.183
293.174
293.167
293.162
293.158
293.155
293.153
293.152
293.151
293.151
293.15
293.15
293.15
293.15
293.15
293.15
293.15
293.15
293.15
293.15
293.15
293.15
293.15
293.15
293.15
293.15
293.15
293.15
293.15
293.15
293.15
293.15
293.15
293.15
293.15
293.15
293.15
293.15
293.15
293.15
293.15
293.15
293.15
293.15
293.15
293.15
293.15
293.15
293.15
293.15
293.15
293.15
293.15
293.15
293.15
293.15
293.15
293.15
293.15
293.15
293.15
293.15
293.15
293.15
293.15
293.15
293.15
293.15
293.15
293.15
293.15
293.15
293.15
293.15
293.15
293.15
293.15
293.15
293.15
293.15
293.15
293.15
293.15
293.15
293.15
293.15
293.15
293.15
293.15
293.15
293.15
293.15
293.15
293.15
293.15
293.15
293.15
293.15
293.15
293.15
293.15
293.15
293.15
293.15
293.15
293.15
293.15
293.15
293.15
293.15
293.15
293.15
293.15
293.15
308.017
308.213
308.3
308.38
308.462
308.482
308.538
308.524
308.485
308.428
308.231
307.989
307.705
307.318
306.901
306.419
305.894
305.298
304.688
304.077
303.488
302.926
302.415
301.952
301.558
301.209
300.913
300.651
300.417
300.205
300.014
299.847
299.729
299.708
299.774
299.861
299.953
300.059
300.187
300.342
300.517
300.713
300.922
301.143
301.367
301.601
301.849
302.112
302.376
302.615
302.794
302.873
302.922
302.953
302.934
302.782
302.674
302.425
302.276
301.939
301.722
301.354
301.053
300.641
300.273
299.815
299.385
298.898
298.435
297.95
297.483
297.013
296.56
296.118
295.692
295.285
294.899
294.535
294.208
293.926
293.689
293.498
293.353
293.256
293.204
293.187
293.179
293.172
293.167
293.162
293.159
293.156
293.154
293.153
293.152
293.151
293.151
293.15
293.15
293.15
293.15
293.15
293.15
293.15
293.15
293.15
293.15
293.15
293.15
293.15
293.15
293.15
293.15
293.15
293.15
293.15
293.15
293.15
293.15
293.15
293.15
293.15
293.15
293.15
293.15
293.15
293.15
293.15
293.15
293.15
293.15
293.15
293.15
293.15
293.15
293.15
293.15
293.15
293.15
293.15
293.15
293.15
293.15
293.15
293.15
293.15
293.15
293.15
293.15
293.15
293.15
293.15
293.15
293.15
293.15
293.15
293.15
293.15
293.15
293.15
293.15
293.15
293.15
293.15
293.15
293.15
293.15
293.15
293.15
293.15
293.15
293.15
293.15
293.15
293.15
293.15
293.15
293.15
293.15
293.15
293.15
293.15
293.15
293.15
293.15
293.15
293.15
309.37
309.787
309.983
310.223
310.463
310.681
310.896
311.093
311.261
311.318
311.31
311.404
311.381
311.372
311.345
311.22
311.275
310.962
310.712
310.361
310.011
309.632
309.293
308.957
308.704
308.487
308.353
308.25
308.173
308.079
307.941
307.716
307.416
307.968
308.07
308.361
308.837
309.038
309.397
309.722
310.12
310.516
310.942
311.372
311.809
312.244
312.676
313.099
313.51
313.905
314.276
314.614
314.91
315.141
315.244
315.283
315.274
315.179
315.124
314.955
314.834
314.555
314.323
313.972
313.687
313.263
312.897
312.402
311.954
311.393
310.869
310.245
309.655
308.978
308.332
307.613
306.925
306.174
305.453
304.665
303.902
303.092
302.302
301.49
300.696
299.906
299.162
298.481
297.855
297.247
296.679
296.138
295.632
295.157
294.715
294.303
293.942
293.652
293.426
293.274
293.201
293.172
293.166
293.16
293.156
293.153
293.151
293.15
293.15
293.15
293.15
293.15
293.15
293.15
293.15
293.15
293.15
293.15
293.15
293.15
293.15
293.15
293.15
293.15
293.15
293.15
293.15
293.15
293.15
293.15
293.15
293.15
293.15
293.15
293.15
293.15
293.15
293.15
293.15
293.15
293.15
293.15
293.15
293.15
293.15
293.15
293.15
293.15
293.15
293.15
293.15
293.15
293.15
293.15
293.15
293.15
293.15
293.15
293.15
293.15
293.15
293.15
293.15
293.15
293.15
293.15
293.15
293.15
293.15
293.15
293.15
293.15
293.15
293.15
293.15
293.15
293.15
293.15
293.15
293.15
293.15
293.15
293.15
293.15
293.15
293.15
293.15
310.494
311.071
311.342
311.685
312.025
312.353
312.671
312.972
313.243
313.461
313.647
313.847
314.017
314.144
314.296
314.393
314.463
314.414
314.551
314.481
314.522
314.462
314.492
314.456
314.472
314.6
314.638
314.844
315.091
315.289
315.446
315.553
315.699
315.875
316.083
316.326
316.595
316.901
317.234
317.593
317.96
318.328
318.687
319.031
319.351
319.642
319.905
320.136
320.34
320.52
320.676
320.811
320.926
321.026
321.114
321.185
321.236
321.275
321.306
321.321
321.319
321.316
321.253
321.207
321.151
321.096
320.979
320.897
320.763
320.656
320.49
320.348
320.147
319.968
319.723
319.501
319.205
318.933
318.576
318.245
317.818
317.417
316.909
316.426
315.825
315.243
314.544
313.844
313.05
312.259
311.404
310.551
309.641
308.736
307.78
306.832
305.83
304.818
303.752
302.679
301.515
300.232
298.933
297.708
296.56
295.397
294.375
293.589
293.242
293.176
293.161
293.154
293.151
293.15
293.15
293.15
293.15
293.15
293.15
293.15
293.15
293.15
293.15
293.15
293.15
293.15
293.15
293.15
293.15
293.15
293.15
293.15
293.15
293.15
293.15
293.15
293.15
293.15
293.15
293.15
293.15
293.15
293.15
293.15
293.15
293.15
293.15
293.15
293.15
293.15
293.15
293.15
293.15
293.15
293.15
293.15
293.15
293.15
293.15
293.15
293.15
293.15
293.15
293.15
293.15
293.15
293.15
293.15
293.15
293.15
293.15
293.15
293.15
293.15
293.15
293.15
293.15
293.15
293.15
293.15
293.15
293.15
293.15
293.15
293.15
293.15
293.15
311.34
312.022
312.34
312.742
313.135
313.516
313.881
314.23
314.551
314.841
315.115
315.383
315.635
315.865
316.087
316.295
316.489
316.659
316.837
316.976
317.087
317.267
317.391
317.594
317.77
318.027
318.302
318.626
318.953
319.265
319.548
319.793
320.025
320.242
320.46
320.669
320.874
321.064
321.232
321.376
321.506
321.624
321.73
321.826
321.911
321.989
322.059
322.123
322.182
322.237
322.288
322.335
322.379
322.42
322.458
322.493
322.525
322.554
322.581
322.606
322.629
322.651
322.671
322.69
322.708
322.725
322.741
322.754
322.76
322.759
322.748
322.734
322.72
322.692
322.669
322.633
322.602
322.556
322.514
322.456
322.402
322.331
322.266
322.179
322.099
321.992
321.892
321.76
321.635
321.467
321.31
321.095
320.892
320.612
320.348
319.983
319.634
319.153
318.691
318.057
317.401
316.445
315.33
313.835
312.067
309.964
307.619
304.952
301.99
298.791
296.586
294.581
293.563
293.205
293.168
293.155
293.151
293.15
293.15
293.15
293.15
293.15
293.15
293.15
293.15
293.15
293.15
293.15
293.15
293.15
293.15
293.15
293.15
293.15
293.15
293.15
293.15
293.15
293.15
293.15
293.15
293.15
293.15
293.15
293.15
293.15
293.15
293.15
293.15
293.15
293.15
293.15
293.15
293.15
293.15
293.15
293.15
293.15
293.15
293.15
293.15
293.15
293.15
293.15
293.15
293.15
293.15
293.15
293.15
293.15
293.15
293.15
293.15
293.15
293.15
293.15
293.15
293.15
293.15
293.15
293.15
293.15
293.15
293.15
293.15
293.15
293.15
311.901
312.648
312.992
313.427
313.842
314.243
314.623
314.985
315.321
315.638
315.943
316.237
316.519
316.787
317.048
317.303
317.551
317.788
318.017
318.228
318.416
318.611
318.791
318.998
319.204
319.436
319.675
319.918
320.151
320.365
320.547
320.696
320.819
320.924
321.017
321.102
321.178
321.245
321.305
321.363
321.419
321.46
321.491
321.51
321.519
321.52
321.51
321.496
321.48
321.463
321.448
321.442
321.449
321.469
321.497
321.562
321.617
321.703
321.78
321.883
321.984
322.102
322.22
322.345
322.469
322.593
322.713
322.811
322.894
322.949
322.976
322.998
323.015
323.03
323.041
323.05
323.056
323.061
323.065
323.069
323.071
323.071
323.067
323.063
323.056
323.049
323.04
323.032
323.021
323.011
322.998
322.986
322.969
322.955
322.932
322.913
322.88
322.854
322.804
322.767
322.676
322.602
322.418
322.249
321.818
321.42
320.606
319.65
318.044
315.819
312.665
308.809
304.484
299.777
296.033
294.165
293.266
293.182
293.157
293.151
293.15
293.15
293.15
293.15
293.15
293.15
293.15
293.15
293.15
293.15
293.15
293.15
293.15
293.15
293.15
293.15
293.15
293.15
293.15
293.15
293.15
293.15
293.15
293.15
293.15
293.15
293.15
293.15
293.15
293.15
293.15
293.15
293.15
293.15
293.15
293.15
293.15
293.15
293.15
293.15
293.15
293.15
293.15
293.15
293.15
293.15
293.15
293.15
293.15
293.15
293.15
293.15
293.15
293.15
293.15
293.15
293.15
293.15
293.15
293.15
293.15
293.15
293.15
293.15
293.15
293.15
293.15
312.207
312.996
313.353
313.809
314.229
314.634
315.012
315.372
315.705
316.023
316.33
316.625
316.911
317.189
317.462
317.731
317.997
318.254
318.501
318.734
318.947
319.146
319.332
319.517
319.698
319.879
320.053
320.219
320.37
320.501
320.609
320.695
320.766
320.82
320.863
320.896
320.918
320.927
320.916
320.893
320.854
320.797
320.725
320.637
320.532
320.411
320.275
320.126
319.965
319.795
319.617
319.435
319.252
319.071
318.894
318.73
318.585
318.473
318.406
318.384
318.375
318.466
318.575
318.726
318.914
319.14
319.404
319.71
320.056
320.436
320.837
321.235
321.602
321.924
322.234
322.507
322.752
322.933
323.032
323.075
323.094
323.112
323.122
323.13
323.134
323.135
323.136
323.137
323.138
323.139
323.138
323.138
323.137
323.135
323.134
323.132
323.131
323.128
323.126
323.122
323.119
323.112
323.106
323.092
323.08
323.051
323.02
322.944
322.841
322.602
322.189
321.337
319.817
317.144
312.996
307.601
301.892
296.443
294.189
293.265
293.174
293.153
293.15
293.15
293.15
293.15
293.15
293.15
293.15
293.15
293.15
293.15
293.15
293.15
293.15
293.15
293.15
293.15
293.15
293.15
293.15
293.15
293.15
293.15
293.15
293.15
293.15
293.15
293.15
293.15
293.15
293.15
293.15
293.15
293.15
293.15
293.15
293.15
293.15
293.15
293.15
293.15
293.15
293.15
293.15
293.15
293.15
293.15
293.15
293.15
293.15
293.15
293.15
293.15
293.15
293.15
293.15
293.15
293.15
293.15
293.15
293.15
293.15
293.15
293.15
293.15
293.15
312.314
313.128
313.494
313.965
314.384
314.789
315.159
315.511
315.834
316.142
316.437
316.723
317.001
317.274
317.544
317.813
318.08
318.341
318.591
318.83
319.051
319.253
319.437
319.607
319.766
319.913
320.049
320.173
320.283
320.375
320.448
320.501
320.535
320.551
320.556
320.543
320.527
320.495
320.447
320.383
320.3
320.199
320.078
319.939
319.783
319.611
319.423
319.22
319.005
318.778
318.544
318.309
318.075
317.848
317.629
317.424
317.235
317.061
316.898
316.744
316.596
316.457
316.329
316.217
316.124
316.053
316.025
316.026
316.085
316.198
316.368
316.609
316.931
317.331
317.784
318.282
318.823
319.416
320.057
320.724
321.357
321.849
322.305
322.676
322.941
323.059
323.097
323.125
323.138
323.144
323.147
323.148
323.148
323.148
323.149
323.149
323.149
323.148
323.148
323.148
323.148
323.148
323.147
323.147
323.146
323.145
323.143
323.141
323.135
323.129
323.116
323.093
323.047
322.917
322.509
321.183
318.61
313.987
307.322
300.17
295.355
293.499
293.2
293.157
293.151
293.15
293.15
293.15
293.15
293.15
293.15
293.15
293.15
293.15
293.15
293.15
293.15
293.15
293.15
293.15
293.15
293.15
293.15
293.15
293.15
293.15
293.15
293.15
293.15
293.15
293.15
293.15
293.15
293.15
293.15
293.15
293.15
293.15
293.15
293.15
293.15
293.15
293.15
293.15
293.15
293.15
293.15
293.15
293.15
293.15
293.15
293.15
293.15
293.15
293.15
293.15
293.15
293.15
293.15
293.15
293.15
293.15
293.15
293.15
293.15
293.15
293.15
312.287
313.117
313.489
313.973
314.39
314.796
315.158
315.502
315.814
316.111
316.393
316.665
316.931
317.192
317.454
317.716
317.977
318.235
318.485
318.724
318.948
319.154
319.34
319.507
319.657
319.79
319.907
320.009
320.095
320.164
320.217
320.253
320.271
320.276
320.259
320.234
320.2
320.151
320.087
320.006
319.908
319.793
319.661
319.513
319.35
319.173
318.983
318.782
318.572
318.358
318.143
317.928
317.716
317.508
317.305
317.109
316.921
316.739
316.562
316.388
316.217
316.05
315.888
315.733
315.586
315.45
315.325
315.211
315.11
315.021
314.944
314.881
314.844
314.836
314.849
314.88
314.966
315.121
315.367
315.727
316.223
316.86
317.588
318.382
319.247
320.19
321.162
321.869
322.483
322.893
323.064
323.115
323.137
323.146
323.149
323.149
323.15
323.15
323.15
323.15
323.15
323.15
323.15
323.15
323.15
323.15
323.15
323.149
323.149
323.149
323.149
323.148
323.147
323.143
323.133
323.109
323.054
322.766
321.351
317.81
311.656
303.692
296.27
293.728
293.213
293.157
293.151
293.15
293.15
293.15
293.15
293.15
293.15
293.15
293.15
293.15
293.15
293.15
293.15
293.15
293.15
293.15
293.15
293.15
293.15
293.15
293.15
293.15
293.15
293.15
293.15
293.15
293.15
293.15
293.15
293.15
293.15
293.15
293.15
293.15
293.15
293.15
293.15
293.15
293.15
293.15
293.15
293.15
293.15
293.15
293.15
293.15
293.15
293.15
293.15
293.15
293.15
293.15
293.15
293.15
293.15
293.15
293.15
293.15
293.15
293.15
293.15
312.19
313.032
313.408
313.904
314.32
314.727
315.084
315.422
315.725
316.011
316.279
316.537
316.789
317.038
317.288
317.54
317.794
318.047
318.294
318.533
318.759
318.969
319.159
319.328
319.477
319.607
319.718
319.811
319.889
319.949
319.993
320.021
320.034
320.037
320.014
319.984
319.946
319.893
319.827
319.744
319.646
319.534
319.407
319.267
319.115
318.953
318.782
318.603
318.419
318.232
318.043
317.854
317.667
317.482
317.3
317.12
316.943
316.771
316.602
316.435
316.271
316.108
315.948
315.792
315.638
315.489
315.343
315.2
315.062
314.928
314.799
314.676
314.56
314.454
314.356
314.27
314.198
314.14
314.103
314.094
314.115
314.163
314.256
314.421
314.698
315.138
315.806
316.734
317.833
319.047
320.396
321.742
322.52
322.986
323.104
323.137
323.147
323.149
323.15
323.15
323.15
323.15
323.15
323.15
323.15
323.15
323.15
323.15
323.15
323.15
323.15
323.15
323.15
323.15
323.15
323.149
323.148
323.142
323.12
323.045
322.601
319.635
313.601
304.615
296.164
293.513
293.203
293.158
293.151
293.15
293.15
293.15
293.15
293.15
293.15
293.15
293.15
293.15
293.15
293.15
293.15
293.15
293.15
293.15
293.15
293.15
293.15
293.15
293.15
293.15
293.15
293.15
293.15
293.15
293.15
293.15
293.15
293.15
293.15
293.15
293.15
293.15
293.15
293.15
293.15
293.15
293.15
293.15
293.15
293.15
293.15
293.15
293.15
293.15
293.15
293.15
293.15
293.15
293.15
293.15
293.15
293.15
293.15
293.15
293.15
293.15
293.15
312.067
312.918
313.297
313.802
314.219
314.628
314.981
315.316
315.611
315.89
316.146
316.393
316.632
316.869
317.108
317.35
317.597
317.844
318.088
318.326
318.553
318.767
318.962
319.136
319.289
319.42
319.531
319.624
319.699
319.758
319.799
319.825
319.836
319.843
319.819
319.79
319.753
319.703
319.639
319.561
319.469
319.363
319.247
319.119
318.983
318.837
318.685
318.528
318.366
318.201
318.033
317.864
317.696
317.529
317.364
317.201
317.041
316.883
316.727
316.573
316.421
316.27
316.12
315.972
315.826
315.681
315.539
315.398
315.259
315.122
314.987
314.854
314.724
314.596
314.47
314.347
314.228
314.113
314.006
313.91
313.826
313.757
313.705
313.673
313.663
313.683
313.742
313.855
314.063
314.451
315.155
316.322
317.933
319.769
321.773
322.72
323.077
323.136
323.147
323.149
323.15
323.15
323.15
323.15
323.15
323.15
323.15
323.15
323.15
323.15
323.15
323.15
323.15
323.15
323.15
323.15
323.15
323.15
323.15
323.148
323.14
323.08
322.724
319.957
312.379
301.591
295.151
293.442
293.198
293.158
293.151
293.15
293.15
293.15
293.15
293.15
293.15
293.15
293.15
293.15
293.15
293.15
293.15
293.15
293.15
293.15
293.15
293.15
293.15
293.15
293.15
293.15
293.15
293.15
293.15
293.15
293.15
293.15
293.15
293.15
293.15
293.15
293.15
293.15
293.15
293.15
293.15
293.15
293.15
293.15
293.15
293.15
293.15
293.15
293.15
293.15
293.15
293.15
293.15
293.15
293.15
293.15
293.15
293.15
293.15
293.15
293.15
311.952
312.809
313.189
313.703
314.119
314.53
314.881
315.214
315.503
315.776
316.023
316.261
316.49
316.717
316.946
317.181
317.42
317.662
317.904
318.141
318.369
318.586
318.785
318.965
319.122
319.257
319.371
319.465
319.542
319.601
319.643
319.67
319.681
319.692
319.67
319.644
319.609
319.564
319.505
319.432
319.346
319.249
319.142
319.026
318.902
318.771
318.634
318.492
318.347
318.198
318.046
317.894
317.742
317.591
317.44
317.291
317.144
316.999
316.855
316.712
316.571
316.431
316.292
316.154
316.017
315.881
315.747
315.613
315.48
315.349
315.218
315.089
314.96
314.832
314.706
314.58
314.455
314.332
314.212
314.096
313.984
313.877
313.775
313.681
313.596
313.526
313.473
313.443
313.437
313.462
313.539
313.697
314.033
314.881
316.545
318.992
321.7
322.903
323.115
323.144
323.149
323.15
323.15
323.15
323.15
323.15
323.15
323.15
323.15
323.15
323.15
323.15
323.15
323.15
323.15
323.15
323.15
323.15
323.15
323.15
323.15
323.149
323.14
323.056
322.366
317.099
306.527
297.172
294.033
293.318
293.181
293.156
293.151
293.15
293.15
293.15
293.15
293.15
293.15
293.15
293.15
293.15
293.15
293.15
293.15
293.15
293.15
293.15
293.15
293.15
293.15
293.15
293.15
293.15
293.15
293.15
293.15
293.15
293.15
293.15
293.15
293.15
293.15
293.15
293.15
293.15
293.15
293.15
293.15
293.15
293.15
293.15
293.15
293.15
293.15
293.15
293.15
293.15
293.15
293.15
293.15
293.15
293.15
293.15
293.15
293.15
293.15
311.866
312.725
313.105
313.626
314.041
314.453
314.802
315.132
315.418
315.686
315.927
316.157
316.378
316.598
316.82
317.047
317.282
317.52
317.759
317.995
318.224
318.443
318.646
318.829
318.991
319.129
319.245
319.341
319.42
319.482
319.525
319.554
319.565
319.58
319.561
319.537
319.506
319.464
319.41
319.343
319.263
319.173
319.074
318.966
318.852
318.731
318.606
318.476
318.342
318.204
318.065
317.925
317.785
317.645
317.506
317.368
317.23
317.094
316.96
316.827
316.694
316.563
316.433
316.304
316.176
316.048
315.922
315.796
315.671
315.547
315.424
315.301
315.179
315.057
314.935
314.814
314.693
314.572
314.452
314.334
314.217
314.102
313.99
313.881
313.777
313.679
313.589
313.506
313.434
313.38
313.345
313.335
313.363
313.477
313.759
314.657
317.055
320.518
322.777
323.123
323.148
323.15
323.15
323.15
323.15
323.15
323.15
323.15
323.15
323.15
323.15
323.15
323.15
323.15
323.15
323.15
323.15
323.15
323.15
323.15
323.15
323.15
323.15
323.147
323.11
322.615
318.081
306.177
297.258
294.238
293.419
293.221
293.174
293.16
293.154
293.152
293.15
293.15
293.15
293.15
293.15
293.15
293.15
293.15
293.15
293.15
293.15
293.15
293.15
293.15
293.15
293.15
293.15
293.15
293.15
293.15
293.15
293.15
293.15
293.15
293.15
293.15
293.15
293.15
293.15
293.15
293.15
293.15
293.15
293.15
293.15
293.15
293.15
293.15
293.15
293.15
293.15
293.15
293.15
293.15