/*--------------------------------*- C++ -*----------------------------------*\
| =========                 |                                                 |
| \\      /  F ield         | OpenFOAM: The Open Source CFD Toolbox           |
|  \\    /   O peration     | Version:  2406                                  |
|   \\  /    A nd           | Website:  www.openfoam.com                      |
|    \\/     M anipulation  |                                                 |
\*---------------------------------------------------------------------------*/
FoamFile
{
    version     2.0;
    format      ascii;
    arch        "LSB;label=32;scalar=64";
    class       volVectorField;
    location    "900";
    object      U;
}
// * * * * * * * * * * * * * * * * * * * * * * * * * * * * * * * * * * * * * //

dimensions      [0 1 -1 0 0 0 0];

internalField   nonuniform List<vector> 
5619
(
(1.86011 -9.28315e-05 0)
(1.8647 4.15266e-05 0)
(1.8605 2.22866e-05 0)
(1.86092 -6.32167e-06 0)
(1.86193 -2.21447e-05 0)
(1.86372 -2.7569e-05 0)
(1.86533 -2.16146e-05 0)
(1.86625 -7.76255e-06 0)
(1.86619 1.06091e-05 0)
(1.86511 3.1669e-05 0)
(1.86297 5.42105e-05 0)
(1.85984 7.6627e-05 0)
(1.85584 9.81377e-05 0)
(1.85112 0.000118439 0)
(1.8458 0.000137633 0)
(1.83999 0.000155731 0)
(1.8338 0.000172688 0)
(1.82732 0.00018843 0)
(1.82064 0.000202509 0)
(1.81388 0.000214152 0)
(1.80716 0.000222681 0)
(1.80063 0.000227841 0)
(1.79444 0.000230081 0)
(1.78878 0.000230717 0)
(1.78384 0.000231082 0)
(1.77985 0.000230026 0)
(1.77709 0.000221646 0)
(1.77594 0.000196997 0)
(1.77694 0.000157759 0)
(1.78041 0.000106952 0)
(1.78668 3.29718e-05 0)
(1.79618 -7.68711e-05 0)
(1.80929 -0.000229238 0)
(1.82624 -0.000426365 0)
(1.84714 -0.00066527 0)
(1.87188 -0.000938374 0)
(1.90021 -0.0012352 0)
(1.93169 -0.00154429 0)
(1.96581 -0.00185466 0)
(2.00197 -0.00215657 0)
(2.03956 -0.00244188 0)
(2.07793 -0.00270383 0)
(2.11648 -0.00293695 0)
(2.15462 -0.00313675 0)
(2.19183 -0.00329969 0)
(2.22761 -0.00342311 0)
(2.26154 -0.00350511 0)
(2.29325 -0.00354458 0)
(2.32244 -0.00354122 0)
(2.34887 -0.00349541 0)
(2.37236 -0.0034082 0)
(2.39279 -0.00328128 0)
(2.4101 -0.00311686 0)
(2.42428 -0.00291776 0)
(2.43537 -0.00268709 0)
(2.44345 -0.00242866 0)
(2.44863 -0.00214582 0)
(2.45104 -0.00183286 0)
(2.45086 -0.00146475 0)
(2.44812 -0.0010342 0)
(2.44288 -0.000574779 0)
(2.43538 -0.000112701 0)
(2.42584 0.000345629 0)
(2.41449 0.000795927 0)
(2.40155 0.00123504 0)
(2.38725 0.00166054 0)
(2.37178 0.00207054 0)
(2.35533 0.00246359 0)
(2.33806 0.00283868 0)
(2.32015 0.00319519 0)
(2.30173 0.00353283 0)
(2.28292 0.00385161 0)
(2.26384 0.00415168 0)
(2.24458 0.00443336 0)
(2.22523 0.00469715 0)
(2.20586 0.00494361 0)
(2.18654 0.00517344 0)
(2.16731 0.00538739 0)
(2.14821 0.00558621 0)
(2.12927 0.00577063 0)
(2.11053 0.00594142 0)
(2.092 0.00609938 0)
(2.0737 0.00624526 0)
(2.05562 0.00637979 0)
(2.03778 0.00650367 0)
(2.02018 0.00661755 0)
(2.0028 0.00672205 0)
(1.98564 0.00681778 0)
(1.9687 0.00690532 0)
(1.95195 0.00698521 0)
(1.93539 0.00705799 0)
(1.91899 0.00712415 0)
(1.90275 0.00718419 0)
(1.88663 0.00723865 0)
(1.87063 0.00728812 0)
(1.85472 0.00733337 0)
(1.83886 0.00737537 0)
(1.82308 0.0074152 0)
(1.80736 0.00745665 0)
(1.79137 0.00750749 0)
(1.77482 0.00754675 0)
(1.75635 0.00756316 0)
(1.73614 0.00756994 0)
(1.71409 0.007567 0)
(1.69024 0.00755477 0)
(1.66462 0.00753228 0)
(1.63733 0.00749829 0)
(1.60853 0.00745146 0)
(1.57843 0.0073906 0)
(1.5473 0.00731482 0)
(1.51543 0.00722372 0)
(1.48318 0.00711746 0)
(1.4509 0.00699683 0)
(1.41896 0.00686324 0)
(1.38773 0.00671866 0)
(1.35751 0.00656549 0)
(1.32858 0.00640641 0)
(1.30118 0.00624422 0)
(1.27547 0.00608165 0)
(1.25156 0.00592126 0)
(1.2295 0.00576529 0)
(1.2093 0.00561572 0)
(1.19093 0.0054742 0)
(1.17432 0.00534225 0)
(1.15937 0.00522126 0)
(1.146 0.00511244 0)
(1.13411 0.00501869 0)
(1.12337 0.00494604 0)
(1.11351 0.00488178 0)
(1.10368 0.00480958 0)
(1.09395 0.00473577 0)
(1.08426 0.00466041 0)
(1.07457 0.00458376 0)
(1.06483 0.00450569 0)
(1.055 0.00442593 0)
(1.04505 0.00434417 0)
(1.03494 0.00426008 0)
(1.02465 0.0041733 0)
(1.01414 0.0040835 0)
(1.00339 0.00399033 0)
(0.992387 0.00389345 0)
(0.981102 0.00379256 0)
(0.969525 0.00368734 0)
(0.95765 0.00357751 0)
(0.945473 0.00346284 0)
(0.932998 0.00334312 0)
(0.920235 0.00321821 0)
(0.907203 0.00308804 0)
(0.893926 0.00295259 0)
(0.88044 0.00281195 0)
(0.866788 0.00266631 0)
(0.853023 0.00251598 0)
(0.839209 0.0023614 0)
(0.825417 0.00220316 0)
(0.811731 0.002042 0)
(0.79824 0.00187881 0)
(0.785043 0.00171467 0)
(0.772242 0.0015508 0)
(0.759943 0.00138855 0)
(0.748254 0.0012294 0)
(0.737277 0.00107488 0)
(0.727108 0.000926536 0)
(0.717835 0.000785886 0)
(0.70953 0.000654316 0)
(0.702248 0.000533027 0)
(0.696026 0.000422959 0)
(0.690881 0.000324737 0)
(0.68681 0.000238626 0)
(0.683794 0.000164519 0)
(0.681796 0.000101851 0)
(0.680776 4.93688e-05 0)
(0.680694 7.14245e-06 0)
(0.681458 -2.29593e-05 0)
(0.682951 -4.30665e-05 0)
(0.685151 -5.68139e-05 0)
(0.688075 -6.51572e-05 0)
(0.691792 -6.87648e-05 0)
(0.696458 -6.75431e-05 0)
(0.702367 -5.90467e-05 0)
(0.710017 -3.38591e-05 0)
(0.720207 3.68356e-05 0)
(0.734134 0.000233194 0)
(0.753445 0.000768923 0)
(0.78021 0.00221551 0)
(0.816923 0.00618178 0)
(0.866431 0.0176118 0)
(0.926668 0.0544988 0)
(2.18492 -0.000219445 0)
(2.19168 6.72091e-05 0)
(2.1892 4.85753e-05 0)
(2.19094 -4.02508e-05 0)
(2.19311 -8.30725e-05 0)
(2.196 -9.86239e-05 0)
(2.19862 -7.84185e-05 0)
(2.20039 -3.30703e-05 0)
(2.20096 2.67589e-05 0)
(2.20026 9.42596e-05 0)
(2.1983 0.000165947 0)
(2.19518 0.000237259 0)
(2.19104 0.000305347 0)
(2.18609 0.00036918 0)
(2.18049 0.000428909 0)
(2.17442 0.000484627 0)
(2.16804 0.000536327 0)
(2.16152 0.000583669 0)
(2.15503 0.000625035 0)
(2.14877 0.000657546 0)
(2.14299 0.000677415 0)
(2.13797 0.000679646 0)
(2.13401 0.000657515 0)
(2.13146 0.000601569 0)
(2.13072 0.000497538 0)
(2.13222 0.000327213 0)
(2.13643 8.41218e-05 0)
(2.14345 -0.000241156 0)
(2.1534 -0.000662722 0)
(2.16661 -0.00118326 0)
(2.18327 -0.00180506 0)
(2.20338 -0.00252339 0)
(2.22684 -0.00332248 0)
(2.2534 -0.00417897 0)
(2.28275 -0.00506487 0)
(2.31448 -0.00595068 0)
(2.34813 -0.00680796 0)
(2.38321 -0.00761103 0)
(2.41921 -0.0083375 0)
(2.4556 -0.00896836 0)
(2.49187 -0.00948781 0)
(2.52752 -0.00988297 0)
(2.56207 -0.0101438 0)
(2.59507 -0.0102629 0)
(2.62612 -0.0102355 0)
(2.65485 -0.0100595 0)
(2.68098 -0.00973547 0)
(2.70423 -0.00926634 0)
(2.72442 -0.00865747 0)
(2.74142 -0.00791639 0)
(2.75513 -0.00705264 0)
(2.76554 -0.00607759 0)
(2.77265 -0.00500427 0)
(2.77655 -0.00384718 0)
(2.77733 -0.00262123 0)
(2.77512 -0.00134042 0)
(2.7701 -1.19183e-05 0)
(2.76239 0.0013516 0)
(2.75217 0.0027427 0)
(2.73975 0.00415838 0)
(2.72546 0.00557564 0)
(2.70949 0.00697111 0)
(2.69205 0.00833374 0)
(2.67336 0.00965508 0)
(2.65359 0.0109285 0)
(2.63293 0.0121491 0)
(2.61154 0.013313 0)
(2.58959 0.0144178 0)
(2.56721 0.0154621 0)
(2.54454 0.0164451 0)
(2.52168 0.0173672 0)
(2.49873 0.0182293 0)
(2.4758 0.0190329 0)
(2.45294 0.0197798 0)
(2.43023 0.0204723 0)
(2.40772 0.0211128 0)
(2.38545 0.0217038 0)
(2.36346 0.022248 0)
(2.34178 0.022748 0)
(2.32042 0.0232065 0)
(2.29939 0.023626 0)
(2.27871 0.0240089 0)
(2.25838 0.0243576 0)
(2.2384 0.0246744 0)
(2.21875 0.0249612 0)
(2.19944 0.02522 0)
(2.18044 0.0254527 0)
(2.16174 0.0256608 0)
(2.14334 0.0258458 0)
(2.1252 0.0260093 0)
(2.1073 0.0261524 0)
(2.08964 0.0262763 0)
(2.07217 0.026382 0)
(2.05489 0.0264707 0)
(2.03777 0.0265434 0)
(2.02077 0.0266011 0)
(2.00388 0.0266452 0)
(1.98709 0.026677 0)
(1.97042 0.0267005 0)
(1.9535 0.0267248 0)
(1.93608 0.0267317 0)
(1.91669 0.0267024 0)
(1.8955 0.0266436 0)
(1.87243 0.0265534 0)
(1.8475 0.0264296 0)
(1.82077 0.0262689 0)
(1.79235 0.0260678 0)
(1.7624 0.0258229 0)
(1.73114 0.0255318 0)
(1.69886 0.0251932 0)
(1.66587 0.0248075 0)
(1.63253 0.0243768 0)
(1.59921 0.0239052 0)
(1.56629 0.0233986 0)
(1.53413 0.0228643 0)
(1.50305 0.0223107 0)
(1.47333 0.0217465 0)
(1.4452 0.0211804 0)
(1.41882 0.0206208 0)
(1.3943 0.020075 0)
(1.37169 0.019549 0)
(1.351 0.0190479 0)
(1.33218 0.0185753 0)
(1.31516 0.018134 0)
(1.29985 0.017726 0)
(1.28615 0.0173524 0)
(1.27398 0.0170159 0)
(1.263 0.0167217 0)
(1.25294 0.016458 0)
(1.24294 0.016188 0)
(1.23306 0.015915 0)
(1.22322 0.0156385 0)
(1.21338 0.015358 0)
(1.2035 0.0150726 0)
(1.19354 0.0147812 0)
(1.18347 0.0144828 0)
(1.17324 0.0141763 0)
(1.16283 0.0138605 0)
(1.15221 0.0135344 0)
(1.14135 0.013197 0)
(1.13025 0.0128472 0)
(1.11886 0.0124842 0)
(1.10719 0.0121071 0)
(1.09523 0.0117151 0)
(1.08298 0.0113078 0)
(1.07043 0.0108846 0)
(1.05761 0.0104454 0)
(1.04452 0.00999017 0)
(1.0312 0.00951917 0)
(1.01768 0.00903302 0)
(1.00401 0.00853266 0)
(0.990244 0.00801945 0)
(0.976441 0.00749517 0)
(0.962677 0.00696204 0)
(0.949038 0.0064228 0)
(0.935614 0.00588063 0)
(0.922507 0.00533921 0)
(0.909821 0.00480261 0)
(0.897665 0.00427526 0)
(0.886147 0.0037618 0)
(0.875375 0.00326699 0)
(0.865448 0.00279546 0)
(0.856457 0.00235159 0)
(0.848479 0.00193923 0)
(0.841576 0.00156148 0)
(0.835792 0.00122053 0)
(0.83115 0.000917443 0)
(0.827658 0.000652046 0)
(0.825306 0.000422879 0)
(0.824073 0.00022709 0)
(0.823931 6.08628e-05 0)
(0.824855 -7.34294e-05 0)
(0.826697 -0.000178096 0)
(0.829485 -0.000265541 0)
(0.833232 -0.000344862 0)
(0.837987 -0.000423759 0)
(0.843844 -0.000511263 0)
(0.850943 -0.000618957 0)
(0.859474 -0.00076298 0)
(0.869658 -0.000968156 0)
(0.881716 -0.00127738 0)
(0.895819 -0.00177434 0)
(0.912013 -0.0026396 0)
(0.930145 -0.0042866 0)
(0.949846 -0.00766949 0)
(0.970489 -0.0149681 0)
(0.988465 -0.0293062 0)
(2.38226 -0.000436662 0)
(2.39555 2.32205e-05 0)
(2.39754 3.2306e-05 0)
(2.40156 -0.000128399 0)
(2.40489 -0.000209991 0)
(2.40841 -0.000239903 0)
(2.41151 -0.000197606 0)
(2.41371 -0.000103563 0)
(2.41467 2.08212e-05 0)
(2.41431 0.000159542 0)
(2.41267 0.000305022 0)
(2.40984 0.000448663 0)
(2.40605 0.000583109 0)
(2.4015 0.0007048 0)
(2.39645 0.000812099 0)
(2.39113 0.000902886 0)
(2.38576 0.000974333 0)
(2.3806 0.0010222 0)
(2.3759 0.0010392 0)
(2.37194 0.00101545 0)
(2.36904 0.000939591 0)
(2.36752 0.000799081 0)
(2.36771 0.000581106 0)
(2.36993 0.000274223 0)
(2.37444 -0.000125852 0)
(2.38125 -0.000620022 0)
(2.39018 -0.00120565 0)
(2.40134 -0.00188722 0)
(2.41469 -0.00267883 0)
(2.43009 -0.00358438 0)
(2.44736 -0.00459752 0)
(2.46631 -0.0057087 0)
(2.48674 -0.00690291 0)
(2.50844 -0.008157 0)
(2.53123 -0.00944081 0)
(2.55491 -0.0107192 0)
(2.57928 -0.0119546 0)
(2.60412 -0.0131093 0)
(2.62917 -0.0141477 0)
(2.65416 -0.015037 0)
(2.6788 -0.0157484 0)
(2.70278 -0.0162572 0)
(2.72578 -0.0165433 0)
(2.7475 -0.016591 0)
(2.76765 -0.0163894 0)
(2.78598 -0.0159325 0)
(2.80225 -0.0152191 0)
(2.81626 -0.0142525 0)
(2.82787 -0.0130405 0)
(2.83696 -0.0115948 0)
(2.84346 -0.00993116 0)
(2.84733 -0.00806815 0)
(2.84857 -0.0060274 0)
(2.84724 -0.00383283 0)
(2.84339 -0.00150827 0)
(2.83713 0.0009269 0)
(2.82856 0.00344936 0)
(2.81789 0.00603186 0)
(2.80527 0.00863953 0)
(2.7909 0.0112441 0)
(2.77495 0.013827 0)
(2.75758 0.0163701 0)
(2.73898 0.0188552 0)
(2.71932 0.0212673 0)
(2.69876 0.0235942 0)
(2.67746 0.0258262 0)
(2.65557 0.0279563 0)
(2.63323 0.0299793 0)
(2.61056 0.0318921 0)
(2.58767 0.0336933 0)
(2.56467 0.0353831 0)
(2.54165 0.0369626 0)
(2.51869 0.0384343 0)
(2.49585 0.0398013 0)
(2.47318 0.0410673 0)
(2.45075 0.0422368 0)
(2.42858 0.0433141 0)
(2.40672 0.0443039 0)
(2.38517 0.0452112 0)
(2.36395 0.0460405 0)
(2.34309 0.0467967 0)
(2.32257 0.0474844 0)
(2.30242 0.0481078 0)
(2.28261 0.0486712 0)
(2.26314 0.0491784 0)
(2.24401 0.0496332 0)
(2.22519 0.050039 0)
(2.20669 0.050399 0)
(2.18847 0.0507162 0)
(2.17052 0.0509931 0)
(2.15282 0.0512322 0)
(2.13535 0.0514359 0)
(2.11809 0.051606 0)
(2.10101 0.0517445 0)
(2.08408 0.051853 0)
(2.0673 0.0519328 0)
(2.05061 0.0519857 0)
(2.03404 0.0520124 0)
(2.01759 0.0520134 0)
(2.00091 0.0519912 0)
(1.98372 0.0519441 0)
(1.96461 0.0518541 0)
(1.94374 0.0517128 0)
(1.92103 0.0515144 0)
(1.89651 0.0512506 0)
(1.87024 0.0509136 0)
(1.84232 0.050496 0)
(1.81294 0.0499917 0)
(1.78231 0.0493962 0)
(1.75071 0.0487079 0)
(1.71845 0.0479282 0)
(1.6859 0.0470622 0)
(1.65341 0.0461187 0)
(1.62136 0.0451097 0)
(1.59008 0.0440499 0)
(1.5599 0.042956 0)
(1.53109 0.0418452 0)
(1.50384 0.0407347 0)
(1.47833 0.0396404 0)
(1.45465 0.0385765 0)
(1.43283 0.0375548 0)
(1.41288 0.0365847 0)
(1.39476 0.0356729 0)
(1.37838 0.0348237 0)
(1.36366 0.0340395 0)
(1.3505 0.0333207 0)
(1.33882 0.032666 0)
(1.32828 0.0320735 0)
(1.31864 0.0315393 0)
(1.30906 0.0310068 0)
(1.29959 0.0304726 0)
(1.29017 0.0299348 0)
(1.28076 0.0293909 0)
(1.27132 0.0288386 0)
(1.26181 0.0282757 0)
(1.25219 0.0276998 0)
(1.24243 0.0271089 0)
(1.23251 0.0265006 0)
(1.22239 0.0258729 0)
(1.21206 0.0252237 0)
(1.2015 0.024551 0)
(1.19068 0.0238531 0)
(1.1796 0.0231283 0)
(1.16825 0.022375 0)
(1.15664 0.0215922 0)
(1.14476 0.020779 0)
(1.13263 0.019935 0)
(1.12026 0.01906 0)
(1.10769 0.0181546 0)
(1.09494 0.0172199 0)
(1.08207 0.0162578 0)
(1.06912 0.0152708 0)
(1.05617 0.0142623 0)
(1.04327 0.0132367 0)
(1.03051 0.0121991 0)
(1.01798 0.0111558 0)
(1.00577 0.0101137 0)
(0.993987 0.00908074 0)
(0.982733 0.00806528 0)
(0.972112 0.00707624 0)
(0.962226 0.00612268 0)
(0.953171 0.00521344 0)
(0.945035 0.00435681 0)
(0.937892 0.0035601 0)
(0.931801 0.00282923 0)
(0.926805 0.00216833 0)
(0.922927 0.00157954 0)
(0.920173 0.00106279 0)
(0.918528 0.000615857 0)
(0.917966 0.000234753 0)
(0.918444 -8.36054e-05 0)
(0.919854 -0.000338375 0)
(0.922164 -0.000540795 0)
(0.925325 -0.000708307 0)
(0.929289 -0.00084961 0)
(0.934008 -0.000972551 0)
(0.939426 -0.00108343 0)
(0.94547 -0.00118665 0)
(0.952038 -0.00128345 0)
(0.958984 -0.00136884 0)
(0.966113 -0.00142503 0)
(0.973194 -0.00140794 0)
(0.979978 -0.00122359 0)
(0.986223 -0.00069567 0)
(0.991737 0.000445749 0)
(0.996402 0.00209067 0)
(0.998422 0.000152522 0)
(2.51755 -0.0010182 0)
(2.54648 -0.000537866 0)
(2.56119 -0.000265331 0)
(2.57297 -0.000331103 0)
(2.58003 -0.000371612 0)
(2.58472 -0.00040769 0)
(2.58782 -0.000358034 0)
(2.58964 -0.000223155 0)
(2.59016 -3.00241e-05 0)
(2.58935 0.000190495 0)
(2.58725 0.000420705 0)
(2.58401 0.000644163 0)
(2.57984 0.000847213 0)
(2.57498 0.00102318 0)
(2.56965 0.0011687 0)
(2.56408 0.00127984 0)
(2.55847 0.00135198 0)
(2.55302 0.00137878 0)
(2.54789 0.00134982 0)
(2.54326 0.00125184 0)
(2.5393 0.0010705 0)
(2.53613 0.000791034 0)
(2.53388 0.000399752 0)
(2.53265 -0.000113445 0)
(2.53251 -0.000746009 0)
(2.53358 -0.00149083 0)
(2.53596 -0.00235842 0)
(2.53973 -0.00336143 0)
(2.54499 -0.00450069 0)
(2.55181 -0.00577009 0)
(2.56025 -0.00715861 0)
(2.57033 -0.00865189 0)
(2.58204 -0.0102293 0)
(2.59534 -0.011863 0)
(2.61013 -0.0135178 0)
(2.62628 -0.0151528 0)
(2.64361 -0.0167226 0)
(2.66189 -0.0181798 0)
(2.68088 -0.0194771 0)
(2.7003 -0.0205688 0)
(2.71983 -0.0214127 0)
(2.73915 -0.0219712 0)
(2.75795 -0.0222127 0)
(2.77591 -0.0221119 0)
(2.79271 -0.0216502 0)
(2.80809 -0.0208168 0)
(2.82179 -0.0196079 0)
(2.83358 -0.0180272 0)
(2.84329 -0.0160849 0)
(2.85077 -0.0137977 0)
(2.85592 -0.0111881 0)
(2.85868 -0.0082835 0)
(2.85903 -0.00511585 0)
(2.85698 -0.00172167 0)
(2.85258 0.00186248 0)
(2.84592 0.00559869 0)
(2.83713 0.00944869 0)
(2.82632 0.0133744 0)
(2.81364 0.0173436 0)
(2.79925 0.0213217 0)
(2.78332 0.0252737 0)
(2.76602 0.0291672 0)
(2.74752 0.032975 0)
(2.72798 0.036674 0)
(2.70757 0.0402454 0)
(2.68644 0.043674 0)
(2.66475 0.0469485 0)
(2.64262 0.0500608 0)
(2.62017 0.0530058 0)
(2.59753 0.0557809 0)
(2.57479 0.0583861 0)
(2.55203 0.0608231 0)
(2.52934 0.0630951 0)
(2.50679 0.0652067 0)
(2.48441 0.0671633 0)
(2.46227 0.0689713 0)
(2.4404 0.0706373 0)
(2.41883 0.0721683 0)
(2.39757 0.0735715 0)
(2.37666 0.0748539 0)
(2.35608 0.0760227 0)
(2.33586 0.0770846 0)
(2.31599 0.0780463 0)
(2.29647 0.078914 0)
(2.27728 0.0796935 0)
(2.25842 0.0803905 0)
(2.23988 0.0810101 0)
(2.22164 0.0815572 0)
(2.20368 0.082036 0)
(2.18599 0.0824507 0)
(2.16854 0.0828049 0)
(2.15132 0.0831019 0)
(2.1343 0.0833449 0)
(2.11745 0.0835364 0)
(2.10077 0.0836788 0)
(2.08421 0.0837743 0)
(2.06776 0.083825 0)
(2.05141 0.0838324 0)
(2.03518 0.0837966 0)
(2.01874 0.0837179 0)
(2.00177 0.0835985 0)
(1.98291 0.083411 0)
(1.96231 0.0831399 0)
(1.93991 0.0827746 0)
(1.91573 0.082301 0)
(1.88983 0.0817063 0)
(1.86233 0.0809781 0)
(1.83341 0.0801067 0)
(1.8033 0.0790855 0)
(1.77226 0.0779128 0)
(1.74063 0.076592 0)
(1.70875 0.0751328 0)
(1.677 0.0735507 0)
(1.64572 0.0718667 0)
(1.61527 0.0701055 0)
(1.58594 0.0682948 0)
(1.558 0.0664629 0)
(1.53164 0.0646376 0)
(1.507 0.0628443 0)
(1.48418 0.0611054 0)
(1.4632 0.0594392 0)
(1.44405 0.0578599 0)
(1.42669 0.0563776 0)
(1.41103 0.0549987 0)
(1.39697 0.0537261 0)
(1.38443 0.05256 0)
(1.37331 0.0514972 0)
(1.36329 0.0505329 0)
(1.35412 0.0496633 0)
(1.34502 0.0487993 0)
(1.33604 0.0479343 0)
(1.32711 0.0470648 0)
(1.3182 0.0461867 0)
(1.30927 0.0452962 0)
(1.30028 0.0443896 0)
(1.2912 0.0434632 0)
(1.282 0.0425136 0)
(1.27266 0.0415373 0)
(1.26314 0.0405309 0)
(1.25344 0.0394912 0)
(1.24353 0.0384153 0)
(1.23339 0.0373003 0)
(1.22303 0.0361438 0)
(1.21243 0.0349436 0)
(1.2016 0.0336979 0)
(1.19055 0.0324056 0)
(1.17928 0.0310661 0)
(1.16781 0.0296794 0)
(1.15618 0.0282465 0)
(1.14442 0.0267693 0)
(1.13256 0.0252506 0)
(1.12066 0.0236947 0)
(1.10878 0.022107 0)
(1.09699 0.0204942 0)
(1.08535 0.0188645 0)
(1.07395 0.0172277 0)
(1.06287 0.0155945 0)
(1.0522 0.0139773 0)
(1.04203 0.0123891 0)
(1.03245 0.0108439 0)
(1.02354 0.00935569 0)
(1.01538 0.00793837 0)
(1.00804 0.00660493 0)
(1.00156 0.00536687 0)
(0.995978 0.00423363 0)
(0.991317 0.00321196 0)
(0.98757 0.00230554 0)
(0.984714 0.00151473 0)
(0.982703 0.000836593 0)
(0.981476 0.000265416 0)
(0.980955 -0.000204131 0)
(0.981078 -0.000578045 0)
(0.981771 -0.000872479 0)
(0.98294 -0.00110684 0)
(0.984491 -0.00129499 0)
(0.98633 -0.00144953 0)
(0.988368 -0.00158218 0)
(0.990518 -0.00170452 0)
(0.992697 -0.00182906 0)
(0.994825 -0.00197093 0)
(0.996828 -0.00215012 0)
(0.998634 -0.00239327 0)
(1.00017 -0.00273279 0)
(1.00137 -0.00319094 0)
(1.00217 -0.00368568 0)
(1.00262 -0.00388164 0)
(1.00123 -0.00420157 0)
(2.58357 -0.00236795 0)
(2.62793 -0.00250102 0)
(2.65988 -0.00181342 0)
(2.68746 -0.00147746 0)
(2.70646 -0.0010869 0)
(2.71806 -0.000789322 0)
(2.7236 -0.000511845 0)
(2.72483 -0.000224524 0)
(2.72304 9.47235e-05 0)
(2.71899 0.000444171 0)
(2.71312 0.000808098 0)
(2.70582 0.00116207 0)
(2.69739 0.0014865 0)
(2.6881 0.00177048 0)
(2.67819 0.00200831 0)
(2.6679 0.00219428 0)
(2.65744 0.00232274 0)
(2.64701 0.00238666 0)
(2.63679 0.00237437 0)
(2.62698 0.00227121 0)
(2.61775 0.00206183 0)
(2.60928 0.00173043 0)
(2.60174 0.00126191 0)
(2.5953 0.000642785 0)
(2.59011 -0.000135814 0)
(2.58634 -0.00107612 0)
(2.58416 -0.00218281 0)
(2.58365 -0.0034692 0)
(2.58489 -0.00494714 0)
(2.58798 -0.00661557 0)
(2.59295 -0.00846155 0)
(2.59982 -0.0104658 0)
(2.60856 -0.0126001 0)
(2.6191 -0.0148252 0)
(2.63134 -0.0170918 0)
(2.64514 -0.0193424 0)
(2.6603 -0.0215135 0)
(2.67661 -0.0235385 0)
(2.6938 -0.0253506 0)
(2.71159 -0.0268848 0)
(2.72967 -0.0280802 0)
(2.74773 -0.0288818 0)
(2.76543 -0.0292418 0)
(2.78244 -0.0291215 0)
(2.79847 -0.0284915 0)
(2.8132 -0.0273325 0)
(2.82639 -0.025636 0)
(2.83779 -0.0234036 0)
(2.84721 -0.0206467 0)
(2.85449 -0.0173862 0)
(2.85953 -0.0136515 0)
(2.86223 -0.00947934 0)
(2.86258 -0.00491406 0)
(2.86058 -7.76869e-06 0)
(2.85627 0.00518558 0)
(2.84972 0.0106098 0)
(2.84105 0.0162088 0)
(2.83036 0.0219264 0)
(2.8178 0.0277071 0)
(2.80352 0.0334983 0)
(2.7877 0.0392511 0)
(2.77049 0.0449206 0)
(2.75207 0.050467 0)
(2.7326 0.0558562 0)
(2.71226 0.0610602 0)
(2.69119 0.0660563 0)
(2.66955 0.0708275 0)
(2.64747 0.0753616 0)
(2.62508 0.0796508 0)
(2.60248 0.0836916 0)
(2.57979 0.0874835 0)
(2.55709 0.0910291 0)
(2.53446 0.0943334 0)
(2.51196 0.0974031 0)
(2.48965 0.100246 0)
(2.46758 0.102873 0)
(2.44578 0.105292 0)
(2.42429 0.107515 0)
(2.40313 0.109551 0)
(2.3823 0.111412 0)
(2.36183 0.113108 0)
(2.34171 0.11465 0)
(2.32194 0.116045 0)
(2.30252 0.117305 0)
(2.28344 0.118437 0)
(2.26469 0.11945 0)
(2.24626 0.120351 0)
(2.22813 0.121146 0)
(2.21029 0.121843 0)
(2.1927 0.122447 0)
(2.17536 0.122963 0)
(2.15825 0.123395 0)
(2.14133 0.123749 0)
(2.12459 0.124026 0)
(2.108 0.12423 0)
(2.09154 0.124365 0)
(2.07518 0.124431 0)
(2.05892 0.124431 0)
(2.04277 0.124365 0)
(2.02643 0.124233 0)
(2.00952 0.124037 0)
(1.99075 0.123736 0)
(1.97024 0.123307 0)
(1.94793 0.122732 0)
(1.92385 0.12199 0)
(1.89806 0.121063 0)
(1.87069 0.11993 0)
(1.8419 0.118576 0)
(1.81193 0.116993 0)
(1.78107 0.115177 0)
(1.74963 0.113134 0)
(1.71798 0.110881 0)
(1.68648 0.108441 0)
(1.6555 0.105849 0)
(1.62536 0.103142 0)
(1.59639 0.100364 0)
(1.56883 0.09756 0)
(1.54287 0.0947721 0)
(1.51866 0.0920394 0)
(1.49626 0.0893958 0)
(1.47571 0.0868686 0)
(1.45698 0.0844786 0)
(1.44003 0.08224 0)
(1.42476 0.0801612 0)
(1.41107 0.0782455 0)
(1.39887 0.0764922 0)
(1.38805 0.074896 0)
(1.37834 0.0734496 0)
(1.36944 0.0721438 0)
(1.36062 0.0708478 0)
(1.35192 0.0695514 0)
(1.34328 0.068249 0)
(1.33467 0.066935 0)
(1.32604 0.0656038 0)
(1.31737 0.0642499 0)
(1.30862 0.0628681 0)
(1.29977 0.0614531 0)
(1.29079 0.0600001 0)
(1.28165 0.0585042 0)
(1.27234 0.0569609 0)
(1.26285 0.0553659 0)
(1.25315 0.0537152 0)
(1.24325 0.0520056 0)
(1.23314 0.050234 0)
(1.22282 0.0483983 0)
(1.21231 0.046497 0)
(1.2016 0.0445297 0)
(1.19073 0.0424968 0)
(1.17971 0.0404004 0)
(1.16859 0.0382436 0)
(1.15739 0.0360313 0)
(1.14618 0.03377 0)
(1.13499 0.0314682 0)
(1.1239 0.0291363 0)
(1.11296 0.0267866 0)
(1.10225 0.0244334 0)
(1.09185 0.0220929 0)
(1.08182 0.0197828 0)
(1.07224 0.017522 0)
(1.06318 0.0153303 0)
(1.05472 0.0132275 0)
(1.0469 0.0112328 0)
(1.03978 0.00936428 0)
(1.03338 0.00763744 0)
(1.02774 0.00606485 0)
(1.02284 0.00465525 0)
(1.01868 0.00341299 0)
(1.01523 0.00233777 0)
(1.01244 0.00142462 0)
(1.01026 0.000664203 0)
(1.00861 4.44034e-05 0)
(1.00743 -0.000446599 0)
(1.00667 -0.000825872 0)
(1.00624 -0.00111544 0)
(1.00606 -0.00133421 0)
(1.00607 -0.00149869 0)
(1.0062 -0.00162327 0)
(1.00639 -0.00172018 0)
(1.00659 -0.00179948 0)
(1.00674 -0.001869 0)
(1.00682 -0.00193411 0)
(1.00677 -0.0019976 0)
(1.00653 -0.0020622 0)
(1.00605 -0.00213976 0)
(1.0053 -0.00224527 0)
(1.00433 -0.00245287 0)
(1.0019 -0.00352961 0)
(2.59491 -0.00439924 0)
(2.64431 -0.00584062 0)
(2.68356 -0.0048237 0)
(2.7201 -0.00405601 0)
(2.74899 -0.00301473 0)
(2.77 -0.00201365 0)
(2.78288 -0.00106259 0)
(2.78839 -0.000202208 0)
(2.78785 0.000570355 0)
(2.7828 0.00126949 0)
(2.77458 0.0019071 0)
(2.76422 0.00248449 0)
(2.75241 0.00299807 0)
(2.73963 0.00344312 0)
(2.72626 0.00381606 0)
(2.7126 0.00411099 0)
(2.69888 0.00432128 0)
(2.68533 0.00443787 0)
(2.67215 0.00444506 0)
(2.65953 0.00432308 0)
(2.64767 0.00405141 0)
(2.63676 0.00360942 0)
(2.62696 0.00297813 0)
(2.61845 0.00214178 0)
(2.61138 0.00108893 0)
(2.6059 -0.000187243 0)
(2.60213 -0.00168852 0)
(2.60017 -0.00342174 0)
(2.60007 -0.00540025 0)
(2.60189 -0.00762287 0)
(2.60567 -0.0100714 0)
(2.61141 -0.0127202 0)
(2.61909 -0.0155332 0)
(2.62863 -0.0184616 0)
(2.63994 -0.0214443 0)
(2.65287 -0.0244091 0)
(2.66724 -0.0272755 0)
(2.68284 -0.0299572 0)
(2.69942 -0.0323654 0)
(2.71669 -0.0344123 0)
(2.73435 -0.0360136 0)
(2.75208 -0.0370917 0)
(2.76954 -0.037578 0)
(2.78642 -0.0374153 0)
(2.8024 -0.036559 0)
(2.81717 -0.0349786 0)
(2.83046 -0.032658 0)
(2.84203 -0.029596 0)
(2.85168 -0.0258057 0)
(2.85923 -0.0213135 0)
(2.86457 -0.0161586 0)
(2.8676 -0.0103912 0)
(2.86829 -0.00407253 0)
(2.86662 0.00272417 0)
(2.86264 0.00992183 0)
(2.8564 0.0174471 0)
(2.84799 0.0252243 0)
(2.83753 0.0331755 0)
(2.82515 0.0412235 0)
(2.81101 0.0492932 0)
(2.79526 0.0573141 0)
(2.77808 0.0652222 0)
(2.75964 0.0729607 0)
(2.74011 0.0804809 0)
(2.71966 0.0877424 0)
(2.69846 0.0947126 0)
(2.67664 0.101367 0)
(2.65437 0.107687 0)
(2.63176 0.113663 0)
(2.60893 0.119288 0)
(2.586 0.124561 0)
(2.56305 0.129488 0)
(2.54016 0.134074 0)
(2.51742 0.138329 0)
(2.49487 0.142266 0)
(2.47256 0.145897 0)
(2.45054 0.149238 0)
(2.42884 0.152302 0)
(2.40747 0.155107 0)
(2.38645 0.157666 0)
(2.3658 0.159994 0)
(2.34551 0.162107 0)
(2.32559 0.164018 0)
(2.30603 0.16574 0)
(2.28682 0.167286 0)
(2.26795 0.168667 0)
(2.24941 0.169893 0)
(2.23118 0.170975 0)
(2.21324 0.171921 0)
(2.19558 0.17274 0)
(2.17816 0.173439 0)
(2.16098 0.174023 0)
(2.144 0.174498 0)
(2.1272 0.17487 0)
(2.11056 0.175142 0)
(2.09405 0.175317 0)
(2.07765 0.175399 0)
(2.06134 0.175389 0)
(2.04514 0.175288 0)
(2.02877 0.175097 0)
(2.0118 0.174813 0)
(1.99299 0.174377 0)
(1.97242 0.173756 0)
(1.95004 0.172921 0)
(1.92588 0.171842 0)
(1.90002 0.17049 0)
(1.87256 0.168838 0)
(1.84369 0.166865 0)
(1.81364 0.164556 0)
(1.7827 0.161909 0)
(1.75119 0.158932 0)
(1.71948 0.15565 0)
(1.68793 0.152098 0)
(1.65692 0.148327 0)
(1.62679 0.144393 0)
(1.59785 0.140361 0)
(1.57034 0.136295 0)
(1.54446 0.132259 0)
(1.52034 0.128308 0)
(1.49806 0.124493 0)
(1.47765 0.120851 0)
(1.45906 0.117413 0)
(1.44225 0.114198 0)
(1.42713 0.111217 0)
(1.41359 0.108475 0)
(1.40152 0.105969 0)
(1.39084 0.103691 0)
(1.38126 0.10163 0)
(1.37248 0.0997669 0)
(1.36379 0.0979217 0)
(1.35522 0.0960776 0)
(1.34672 0.0942264 0)
(1.33824 0.0923599 0)
(1.32976 0.0904705 0)
(1.32124 0.0885507 0)
(1.31265 0.0865932 0)
(1.30396 0.084591 0)
(1.29515 0.0825371 0)
(1.2862 0.0804252 0)
(1.27708 0.0782491 0)
(1.26779 0.076003 0)
(1.25832 0.0736819 0)
(1.24865 0.0712814 0)
(1.23879 0.0687978 0)
(1.22873 0.0662286 0)
(1.21849 0.0635722 0)
(1.20807 0.0608285 0)
(1.19751 0.0579991 0)
(1.18682 0.055087 0)
(1.17603 0.0520976 0)
(1.16519 0.0490383 0)
(1.15434 0.0459189 0)
(1.14352 0.0427516 0)
(1.13281 0.0395515 0)
(1.12225 0.036336 0)
(1.11192 0.0331252 0)
(1.10188 0.0299414 0)
(1.0922 0.0268088 0)
(1.08294 0.023753 0)
(1.07418 0.0208004 0)
(1.06596 0.0179771 0)
(1.05834 0.0153081 0)
(1.05136 0.0128163 0)
(1.04504 0.0105213 0)
(1.03941 0.00843836 0)
(1.03444 0.00657751 0)
(1.03014 0.00494308 0)
(1.02647 0.0035333 0)
(1.02339 0.0023405 0)
(1.02084 0.00135157 0)
(1.01877 0.000548806 0)
(1.0171 -8.81142e-05 0)
(1.01579 -0.000580556 0)
(1.01475 -0.000953627 0)
(1.01393 -0.00123263 0)
(1.01327 -0.00143992 0)
(1.01269 -0.00159534 0)
(1.01217 -0.00171641 0)
(1.01165 -0.0018185 0)
(1.01109 -0.00191516 0)
(1.01046 -0.00201781 0)
(1.00971 -0.00213416 0)
(1.00881 -0.00226548 0)
(1.00769 -0.00240237 0)
(1.00634 -0.00249526 0)
(1.00478 -0.00253642 0)
(1.00202 -0.00326434 0)
(2.5713 -0.00692756 0)
(2.61962 -0.0101267 0)
(2.65918 -0.00886935 0)
(2.69741 -0.00777754 0)
(2.7297 -0.00613595 0)
(2.75588 -0.0043895 0)
(2.77536 -0.00258903 0)
(2.7881 -0.000860811 0)
(2.79439 0.000715385 0)
(2.79489 0.00208709 0)
(2.7907 0.00325318 0)
(2.78296 0.00423602 0)
(2.77265 0.0050603 0)
(2.76057 0.00574754 0)
(2.74734 0.00631213 0)
(2.73343 0.00675583 0)
(2.71923 0.0070745 0)
(2.70502 0.00725935 0)
(2.69107 0.00729245 0)
(2.67763 0.00715058 0)
(2.6649 0.00680952 0)
(2.65311 0.00624435 0)
(2.64244 0.0054313 0)
(2.63309 0.00434967 0)
(2.62522 0.00298337 0)
(2.61898 0.00132109 0)
(2.6145 -0.00064322 0)
(2.61189 -0.00291071 0)
(2.61119 -0.00549452 0)
(2.61242 -0.0083987 0)
(2.61564 -0.0116015 0)
(2.62084 -0.0150702 0)
(2.628 -0.0187587 0)
(2.63706 -0.0226051 0)
(2.64795 -0.0265315 0)
(2.66051 -0.0304464 0)
(2.67459 -0.034246 0)
(2.68997 -0.0378184 0)
(2.70642 -0.041047 0)
(2.72365 -0.0438145 0)
(2.74138 -0.0460069 0)
(2.75927 -0.0475178 0)
(2.777 -0.0482517 0)
(2.79425 -0.0481275 0)
(2.81067 -0.0470807 0)
(2.82598 -0.0450652 0)
(2.83988 -0.0420548 0)
(2.85213 -0.0380429 0)
(2.8625 -0.0330425 0)
(2.87082 -0.027085 0)
(2.87694 -0.020219 0)
(2.88077 -0.0125084 0)
(2.88224 -0.00403092 0)
(2.88134 0.00512042 0)
(2.87806 0.0148425 0)
(2.87246 0.0250333 0)
(2.8646 0.0355896 0)
(2.85458 0.0464024 0)
(2.84254 0.0573636 0)
(2.82862 0.0683684 0)
(2.81298 0.0793185 0)
(2.79579 0.0901238 0)
(2.77723 0.100704 0)
(2.75747 0.110991 0)
(2.73669 0.120925 0)
(2.71506 0.13046 0)
(2.69275 0.13956 0)
(2.6699 0.148199 0)
(2.64666 0.15636 0)
(2.62315 0.164035 0)
(2.59951 0.171222 0)
(2.57582 0.177926 0)
(2.55218 0.184156 0)
(2.52868 0.189927 0)
(2.50536 0.195256 0)
(2.4823 0.200161 0)
(2.45954 0.204664 0)
(2.43711 0.208786 0)
(2.41504 0.212549 0)
(2.39334 0.215974 0)
(2.37203 0.219084 0)
(2.35111 0.221898 0)
(2.33059 0.224438 0)
(2.31046 0.22672 0)
(2.29071 0.228764 0)
(2.27133 0.230584 0)
(2.2523 0.232197 0)
(2.2336 0.233616 0)
(2.21523 0.234853 0)
(2.19715 0.235919 0)
(2.17934 0.236825 0)
(2.16179 0.237578 0)
(2.14446 0.238188 0)
(2.12733 0.238659 0)
(2.11038 0.238998 0)
(2.09358 0.239209 0)
(2.0769 0.239296 0)
(2.06032 0.23926 0)
(2.04387 0.239104 0)
(2.02727 0.238829 0)
(2.01006 0.238428 0)
(1.99099 0.237816 0)
(1.97016 0.236947 0)
(1.94752 0.235779 0)
(1.9231 0.234272 0)
(1.89696 0.232383 0)
(1.86924 0.230075 0)
(1.8401 0.227319 0)
(1.80979 0.224093 0)
(1.7786 0.220394 0)
(1.74686 0.216233 0)
(1.71493 0.211642 0)
(1.68318 0.206674 0)
(1.65199 0.201396 0)
(1.62171 0.195892 0)
(1.59264 0.190251 0)
(1.56505 0.184567 0)
(1.53911 0.17893 0)
(1.51498 0.17342 0)
(1.49271 0.168105 0)
(1.47233 0.163041 0)
(1.4538 0.158267 0)
(1.43705 0.15381 0)
(1.42201 0.149684 0)
(1.40855 0.145894 0)
(1.39657 0.142434 0)
(1.38597 0.139293 0)
(1.37647 0.136454 0)
(1.36777 0.133883 0)
(1.35917 0.131341 0)
(1.35069 0.128803 0)
(1.34228 0.126256 0)
(1.33391 0.123688 0)
(1.32553 0.121091 0)
(1.31713 0.118454 0)
(1.30866 0.115766 0)
(1.3001 0.11302 0)
(1.29143 0.110205 0)
(1.28263 0.107313 0)
(1.27368 0.104337 0)
(1.26456 0.101269 0)
(1.25527 0.0981027 0)
(1.2458 0.0948326 0)
(1.23615 0.0914544 0)
(1.22632 0.0879653 0)
(1.21632 0.0843639 0)
(1.20617 0.0806509 0)
(1.19588 0.076829 0)
(1.18548 0.0729034 0)
(1.175 0.068882 0)
(1.16449 0.0647757 0)
(1.15397 0.0605985 0)
(1.1435 0.0563677 0)
(1.13315 0.0521039 0)
(1.12295 0.0478312 0)
(1.11299 0.0435766 0)
(1.10332 0.0393701 0)
(1.094 0.0352437 0)
(1.08509 0.031231 0)
(1.07667 0.0273659 0)
(1.06877 0.0236819 0)
(1.06143 0.0202104 0)
(1.05471 0.0169798 0)
(1.04861 0.0140137 0)
(1.04315 0.0113299 0)
(1.03832 0.00893956 0)
(1.0341 0.00684629 0)