/*--------------------------------*- C++ -*----------------------------------*\
| =========                 |                                                 |
| \\      /  F ield         | OpenFOAM: The Open Source CFD Toolbox           |
|  \\    /   O peration     | Version:  2406                                  |
|   \\  /    A nd           | Website:  www.openfoam.com                      |
|    \\/     M anipulation  |                                                 |
\*---------------------------------------------------------------------------*/
FoamFile
{
    version     2.0;
    format      ascii;
    arch        "LSB;label=32;scalar=64";
    class       surfaceScalarField;
    location    "0.5";
    object      phi;
}
// * * * * * * * * * * * * * * * * * * * * * * * * * * * * * * * * * * * * * //

dimensions      [0 3 -1 0 0 0 0];

oriented        oriented;

internalField   nonuniform List<scalar> 
7780
(
9.5028e-07
-7.23669e-13
9.50281e-07
-4.96117e-13
9.50282e-07
-7.29579e-13
9.50282e-07
-4.03683e-13
9.50283e-07
-1.60397e-13
9.50283e-07
-1.43791e-13
9.50284e-07
-2.10444e-13
9.50284e-07
-2.59686e-13
9.50284e-07
-5.76553e-14
9.50284e-07
-2.58076e-14
9.50284e-07
2.22789e-13
9.50284e-07
2.79559e-13
9.50285e-07
1.85644e-13
9.50284e-07
-8.87309e-14
9.50284e-07
-9.48756e-14
9.50285e-07
-2.54586e-13
9.50285e-07
-2.78164e-13
9.50285e-07
-3.83611e-13
9.50285e-07
-4.93324e-13
9.50286e-07
-3.14606e-13
9.50286e-07
-9.64983e-14
9.50286e-07
-1.25991e-13
9.50286e-07
-3.6196e-13
9.50286e-07
-5.06852e-13
9.50286e-07
-4.98587e-13
9.50287e-07
-3.14689e-13
9.50288e-07
-6.44164e-14
9.50288e-07
4.57481e-14
9.50288e-07
-2.08161e-15
9.50288e-07
-7.64926e-14
9.50287e-07
-7.44939e-14
9.50287e-07
6.78834e-15
9.50287e-07
2.70338e-14
9.50287e-07
-6.97546e-14
9.50287e-07
-1.50552e-13
9.50286e-07
-1.38531e-13
9.50285e-07
-9.24999e-14
9.50285e-07
-5.8072e-14
9.50285e-07
-1.48772e-14
9.50284e-07
1.21271e-14
9.50284e-07
2.58498e-14
9.50284e-07
6.29426e-14
9.50285e-07
1.28685e-13
9.50285e-07
1.66025e-13
9.50285e-07
1.21617e-13
9.50284e-07
5.12155e-14
9.50284e-07
4.20668e-14
9.50284e-07
6.83955e-14
9.50284e-07
9.73416e-14
9.50284e-07
1.36071e-13
9.50284e-07
1.74988e-13
9.50284e-07
2.22698e-13
9.50284e-07
2.79454e-13
9.50283e-07
3.03365e-13
9.50283e-07
2.84319e-13
9.50283e-07
2.08836e-13
9.50283e-07
1.1851e-13
9.50282e-07
1.05128e-13
9.50282e-07
1.85407e-13
9.50282e-07
2.48474e-13
9.50282e-07
2.10285e-13
9.50282e-07
1.1919e-13
9.50282e-07
7.34591e-14
9.50282e-07
8.90309e-14
9.50282e-07
1.15107e-13
9.50282e-07
1.01926e-13
9.50282e-07
5.58622e-14
9.50282e-07
-7.19074e-15
9.50282e-07
-8.0322e-14
9.50282e-07
-1.15576e-13
9.50283e-07
-7.40284e-14
9.50283e-07
-5.38798e-15
9.50283e-07
-5.47809e-15
9.50283e-07
-8.42836e-14
9.50283e-07
-1.60542e-13
9.50283e-07
-1.96284e-13
9.50283e-07
-2.45968e-13
9.50284e-07
-3.58001e-13
9.50284e-07
-4.91749e-13
9.50284e-07
-5.32845e-13
9.50284e-07
-3.88924e-13
9.50285e-07
-1.11263e-13
9.50285e-07
1.41343e-13
9.50285e-07
2.45904e-13
9.50285e-07
1.70137e-13
9.50285e-07
-1.3957e-15
9.50284e-07
-1.35512e-13
9.50284e-07
-1.80006e-13
9.50284e-07
-1.82294e-13
9.50284e-07
-1.90694e-13
9.50284e-07
-1.64133e-13
9.50284e-07
-7.99766e-14
9.50284e-07
-5.93548e-15
9.50284e-07
-5.35602e-14
9.50284e-07
-2.46808e-13
9.50284e-07
-4.47727e-13
9.50284e-07
-4.78806e-13
9.50284e-07
-2.97379e-13
9.50284e-07
-1.26711e-14
9.50283e-07
2.18559e-13
9.50283e-07
2.61113e-13
9.50283e-07
1.00964e-13
9.50283e-07
-1.26618e-13
9.50283e-07
-2.39159e-13
9.50283e-07
-1.83816e-13
9.50283e-07
-5.90588e-14
9.50284e-07
3.01602e-14
9.50284e-07
8.33446e-14
9.50284e-07
1.50259e-13
9.50284e-07
2.1227e-13
9.50283e-07
1.93038e-13
9.50283e-07
8.27365e-14
9.50283e-07
-2.24733e-14
9.50283e-07
-1.00334e-14
9.50282e-07
1.54377e-13
9.50282e-07
3.79854e-13
9.50282e-07
4.92433e-13
9.50282e-07
3.88687e-13
9.50281e-07
1.56945e-13
9.50281e-07
-5.52819e-15
9.50281e-07
-8.6449e-15
9.50281e-07
5.9543e-14
9.50281e-07
7.1124e-14
9.50281e-07
5.53237e-15
9.50281e-07
-4.3053e-14
9.50281e-07
-5.97438e-15
9.50281e-07
6.79456e-14
9.50281e-07
6.62908e-14
9.50282e-07
-6.87591e-14
9.50282e-07
-2.69164e-13
9.50282e-07
-3.78929e-13
9.50282e-07
-3.08059e-13
9.50283e-07
-1.47405e-13
9.50283e-07
-6.38182e-14
9.50283e-07
-1.25597e-13
9.50283e-07
-2.553e-13
9.50284e-07
-3.43676e-13
9.50284e-07
-3.62605e-13
9.50284e-07
-3.62524e-13
9.50284e-07
-3.85809e-13
9.50284e-07
-4.00478e-13
9.50284e-07
-3.3562e-13
9.50285e-07
-1.87039e-13
9.50285e-07
-2.92072e-14
9.50285e-07
5.39283e-14
9.50285e-07
1.89516e-14
9.50285e-07
-1.01077e-13
9.50285e-07
-1.97431e-13
9.50285e-07
-1.831e-13
9.50285e-07
-8.04281e-14
9.50285e-07
2.25283e-14
9.50285e-07
3.99816e-14
9.50285e-07
-1.28848e-14
9.50285e-07
-2.23209e-14
9.50285e-07
5.46727e-14
9.50284e-07
1.34806e-13
9.50284e-07
1.33431e-13
9.50284e-07
7.67344e-14
9.50284e-07
9.63766e-14
9.50283e-07
2.77527e-13
9.50283e-07
5.08524e-13
9.50283e-07
5.95589e-13
9.50283e-07
4.69263e-13
9.50283e-07
2.57877e-13
9.50282e-07
1.34401e-13
9.50282e-07
1.19825e-13
9.50282e-07
1.43283e-13
9.50282e-07
1.56456e-13
9.50281e-07
1.16964e-13
9.50281e-07
1.66636e-14
9.50281e-07
-8.01339e-14
9.50281e-07
-1.60804e-13
9.50281e-07
-2.25874e-13
9.50281e-07
-1.88099e-13
9.50281e-07
-7.85831e-14
9.50281e-07
-6.04571e-14
9.50281e-07
-7.76372e-14
9.50281e-07
-1.72126e-14
9.50281e-07
2.19571e-14
9.50282e-07
-3.4315e-14
9.50282e-07
-1.25901e-13
9.50282e-07
-2.01022e-13
9.50282e-07
-2.36924e-13
9.50283e-07
-2.50149e-13
9.50283e-07
-2.50401e-13
9.50283e-07
-2.06333e-13
9.50283e-07
-1.11771e-13
9.50284e-07
-1.01506e-13
9.50284e-07
-1.6017e-13
9.50284e-07
-8.73567e-14
9.50284e-07
5.09571e-15
9.50284e-07
-7.15482e-14
9.50284e-07
-1.14085e-13
9.50284e-07
-3.72436e-14
9.50284e-07
1.51774e-13
9.50283e-07
4.26572e-13
9.50283e-07
5.83234e-13
9.50282e-07
7.47614e-13
9.5028e-07
1.00213e-12
1.23832e-12
2.65963e-06
-1.55767e-12
2.65963e-06
-2.00775e-12
2.65963e-06
-1.9689e-12
2.65963e-06
-1.99724e-12
2.65964e-06
-1.5271e-12
2.65964e-06
-9.35725e-13
2.65964e-06
-5.24345e-13
2.65964e-06
-5.14447e-13
2.65964e-06
-1.99146e-13
2.65964e-06
-6.56907e-14
2.65964e-06
3.19558e-13
2.65964e-06
-1.22481e-15
2.65964e-06
-8.12483e-14
2.65964e-06
-1.58222e-13
2.65964e-06
1.10967e-13
2.65964e-06
-1.22106e-13
2.65964e-06
-7.21639e-13
2.65964e-06
-1.06052e-12
2.65964e-06
-1.06578e-12
2.65964e-06
-9.23381e-13
2.65964e-06
-8.89697e-13
2.65964e-06
-9.54383e-13
2.65964e-06
-9.05627e-13
2.65964e-06
-6.04797e-13
2.65964e-06
-2.87922e-13
2.65964e-06
-1.76501e-13
2.65964e-06
-2.34057e-13
2.65964e-06
-3.38665e-13
2.65964e-06
-3.85407e-13
2.65964e-06
-3.92502e-13
2.65964e-06
-4.04465e-13
2.65964e-06
-2.76089e-13
2.65964e-06
3.78625e-14
2.65964e-06
2.84452e-13
2.65964e-06
3.10558e-13
2.65964e-06
2.41127e-13
2.65964e-06
1.81015e-13
2.65964e-06
9.33858e-14
2.65964e-06
3.20518e-15
2.65964e-06
6.6579e-15
2.65964e-06
1.31666e-13
2.65964e-06
2.99136e-13
2.65964e-06
4.00014e-13
2.65964e-06
4.09729e-13
2.65964e-06
3.40009e-13
2.65964e-06
2.25362e-13
2.65964e-06
1.64466e-13
2.65964e-06
1.82746e-13
2.65964e-06
2.23174e-13
2.65964e-06
2.8252e-13
2.65964e-06
3.75728e-13
2.65964e-06
5.00013e-13
2.65964e-06
6.4722e-13
2.65964e-06
7.77867e-13
2.65964e-06
8.80987e-13
2.65964e-06
9.18583e-13
2.65964e-06
8.10986e-13
2.65964e-06
5.83149e-13
2.65964e-06
3.88137e-13
2.65964e-06
3.30808e-13
2.65964e-06
3.68541e-13
2.65964e-06
4.16898e-13
2.65964e-06
4.30037e-13
2.65964e-06
3.86149e-13
2.65964e-06
2.77346e-13
2.65964e-06
1.27764e-13
2.65964e-06
2.45122e-15
2.65964e-06
-6.78027e-14
2.65964e-06
-1.38301e-13
2.65964e-06
-2.55826e-13
2.65964e-06
-3.63092e-13
2.65964e-06
-3.844e-13
2.65964e-06
-3.5475e-13
2.65964e-06
-3.76918e-13
2.65964e-06
-4.7826e-13
2.65964e-06
-6.00758e-13
2.65964e-06
-7.04226e-13
2.65964e-06
-7.9516e-13
2.65964e-06
-8.97019e-13
2.65964e-06
-1.00199e-12
2.65964e-06
-1.03349e-12
2.65964e-06
-9.10151e-13
2.65964e-06
-6.30368e-13
2.65964e-06
-2.77035e-13
2.65964e-06
1.5045e-14
2.65964e-06
1.35722e-13
2.65964e-06
1.06299e-13
2.65964e-06
3.11847e-14
2.65964e-06
-3.67329e-14
2.65964e-06
-1.43212e-13
2.65964e-06
-3.00527e-13
2.65964e-06
-4.34108e-13
2.65964e-06
-4.42246e-13
2.65964e-06
-3.16015e-13
2.65964e-06
-1.60983e-13
2.65964e-06
-8.47925e-14
2.65964e-06
-9.92934e-14
2.65964e-06
-1.57383e-13
2.65964e-06
-2.09325e-13
2.65964e-06
-2.0186e-13
2.65964e-06
-1.21111e-13
2.65964e-06
-4.214e-14
2.65964e-06
-5.38046e-14
2.65964e-06
-1.37051e-13
2.65964e-06
-1.75422e-13
2.65964e-06
-9.39725e-14
2.65964e-06
6.66494e-14
2.65964e-06
2.21752e-13
2.65964e-06
3.41717e-13
2.65964e-06
4.36611e-13
2.65964e-06
4.95753e-13
2.65964e-06
5.05403e-13
2.65964e-06
4.87685e-13
2.65964e-06
4.72497e-13
2.65964e-06
4.79316e-13
2.65964e-06
5.23069e-13
2.65964e-06
5.94151e-13
2.65964e-06
6.27207e-13
2.65964e-06
5.47532e-13
2.65964e-06
3.65499e-13
2.65964e-06
1.66058e-13
2.65964e-06
1.28214e-14
2.65964e-06
-9.30846e-14
2.65964e-06
-1.85413e-13
2.65964e-06
-2.70216e-13
2.65964e-06
-3.13372e-13
2.65964e-06
-2.97218e-13
2.65964e-06
-2.43173e-13
2.65964e-06
-2.03746e-13
2.65964e-06
-2.41484e-13
2.65964e-06
-3.61989e-13
2.65964e-06
-4.82158e-13
2.65964e-06
-5.33641e-13
2.65964e-06
-5.40151e-13
2.65964e-06
-5.62925e-13
2.65964e-06
-6.10135e-13
2.65964e-06
-6.3057e-13
2.65964e-06
-5.8225e-13
2.65964e-06
-4.84746e-13
2.65964e-06
-3.97247e-13
2.65964e-06
-3.59127e-13
2.65964e-06
-3.55789e-13
2.65964e-06
-3.5624e-13
2.65964e-06
-3.4045e-13
2.65964e-06
-2.77943e-13
2.65964e-06
-1.71801e-13
2.65964e-06
-9.74979e-14
2.65964e-06
-1.23523e-13
2.65964e-06
-2.25934e-13
2.65964e-06
-3.16543e-13
2.65964e-06
-3.11845e-13
2.65964e-06
-2.11678e-13
2.65964e-06
-1.0691e-13
2.65964e-06
-3.39705e-14
2.65964e-06
5.81799e-14
2.65964e-06
2.06713e-13
2.65964e-06
3.96375e-13
2.65964e-06
5.76588e-13
2.65964e-06
7.13338e-13
2.65964e-06
8.34244e-13
2.65964e-06
9.47237e-13
2.65964e-06
9.8663e-13
2.65964e-06
8.79841e-13
2.65964e-06
6.47005e-13
2.65964e-06
3.9048e-13
2.65964e-06
1.50561e-13
2.65964e-06
-9.28044e-14
2.65964e-06
-2.90888e-13
2.65964e-06
-3.8053e-13
2.65964e-06
-3.85908e-13
2.65964e-06
-3.35147e-13
2.65964e-06
-2.4617e-13
2.65964e-06
-2.16094e-13
2.65964e-06
-2.3103e-13
2.65964e-06
-1.89101e-13
2.65964e-06
-1.73556e-13
2.65964e-06
-2.37761e-13
2.65964e-06
-2.19613e-13
2.65964e-06
-9.78551e-14
2.65964e-06
-3.06722e-14
2.65964e-06
-7.07552e-14
2.65964e-06
-1.44613e-13
2.65964e-06
-1.99579e-13
2.65964e-06
-2.4099e-13
2.65964e-06
-3.18393e-13
2.65964e-06
-4.34918e-13
2.65964e-06
-4.55391e-13
2.65964e-06
-3.46507e-13
2.65964e-06
-3.23111e-13
2.65964e-06
-3.91865e-13
2.65964e-06
-3.41233e-13
2.65964e-06
-1.77507e-13
2.65964e-06
7.78241e-14
2.65964e-06
3.98853e-13
2.65964e-06
6.96621e-13
2.65964e-06
1.15577e-12
2.65964e-06
1.72268e-12
2.65963e-06
2.27835e-12
2.65963e-06
2.73794e-12
2.87655e-12
4.1781e-06
-2.13969e-12
4.1781e-06
-2.62175e-12
4.1781e-06
-2.53587e-12
4.1781e-06
-2.35265e-12
4.1781e-06
-1.84967e-12
4.1781e-06
-1.48118e-12
4.1781e-06
-1.28031e-12
4.1781e-06
-9.952e-13
4.1781e-06
-2.36351e-13
4.1781e-06
-2.78777e-13
4.1781e-06
-3.31415e-13
4.1781e-06
-2.34733e-13
4.1781e-06
1.47734e-13
4.1781e-06
2.06712e-13
4.1781e-06
-1.52884e-13
4.1781e-06
-4.54827e-13
4.1781e-06
-6.26104e-13
4.1781e-06
-7.32484e-13
4.1781e-06
-8.17543e-13
4.1781e-06
-9.87126e-13
4.1781e-06
-1.0296e-12
4.1781e-06
-1.04943e-12
4.1781e-06
-1.04559e-12
4.1781e-06
-7.85159e-13
4.1781e-06
-3.69527e-13
4.1781e-06
-9.76696e-14
4.1781e-06
-3.40381e-14
4.1781e-06
-1.91379e-13
4.1781e-06
-4.67023e-13
4.1781e-06
-5.98202e-13
4.1781e-06
-5.57151e-13
4.1781e-06
-4.64333e-13
4.1781e-06
-3.15057e-13
4.1781e-06
-2.03896e-13
4.1781e-06
-2.27605e-13
4.1781e-06
-2.45783e-13
4.1781e-06
-1.31091e-13
4.1781e-06
-1.67213e-15
4.1781e-06
2.92764e-14
4.1781e-06
-1.01194e-14
4.1781e-06
-5.89841e-14
4.1781e-06
-4.5865e-14
4.1781e-06
3.17319e-14
4.1781e-06
1.24183e-13
4.1781e-06
1.90226e-13
4.1781e-06
1.96215e-13
4.1781e-06
1.91263e-13
4.1781e-06
2.23824e-13
4.1781e-06
2.69595e-13
4.1781e-06
3.11884e-13
4.1781e-06
3.21027e-13
4.1781e-06
2.80363e-13
4.1781e-06
2.56885e-13
4.1781e-06
3.1762e-13
4.1781e-06
4.64197e-13
4.1781e-06
6.24765e-13
4.1781e-06
6.64384e-13
4.1781e-06
5.36004e-13
4.1781e-06
3.59178e-13
4.1781e-06
2.69186e-13
4.1781e-06
2.55167e-13
4.1781e-06
2.26973e-13
4.1781e-06
1.48477e-13
4.1781e-06
5.72109e-14
4.1781e-06
-1.518e-14
4.1781e-06
-8.9841e-14
4.1781e-06
-1.80026e-13
4.1781e-06
-2.49644e-13
4.1781e-06
-2.77948e-13
4.1781e-06
-2.97642e-13
4.1781e-06
-3.26904e-13
4.1781e-06
-3.48785e-13
4.1781e-06
-3.74677e-13
4.1781e-06
-4.64622e-13
4.1781e-06
-6.2133e-13
4.1781e-06
-7.50762e-13
4.1781e-06
-7.8403e-13
4.1781e-06
-7.45763e-13
4.1781e-06
-6.97655e-13
4.1781e-06
-6.79337e-13
4.1781e-06
-6.64684e-13
4.1781e-06
-5.99967e-13
4.1781e-06
-4.7321e-13
4.1781e-06
-3.15127e-13
4.1781e-06
-1.62341e-13
4.1781e-06
-5.5095e-14
4.1781e-06
-1.48156e-14
4.1781e-06
6.20137e-15
4.1781e-06
2.49964e-14
4.1781e-06
-1.81125e-14
4.1781e-06
-1.89739e-13
4.1781e-06
-4.39951e-13
4.1781e-06
-6.04385e-13
4.1781e-06
-5.58743e-13
4.1781e-06
-3.46739e-13
4.1781e-06
-1.32404e-13
4.1781e-06
-1.00542e-14
4.1781e-06
4.781e-14
4.1781e-06
8.10361e-14
4.1781e-06
7.7822e-14
4.1781e-06
2.90871e-14
4.1781e-06
-4.66168e-14
4.1781e-06
-1.20138e-13
4.1781e-06
-1.49257e-13
4.1781e-06
-9.12268e-14
4.1781e-06
5.21631e-14
4.1781e-06
2.01991e-13
4.1781e-06
2.54649e-13
4.1781e-06
1.97089e-13
4.1781e-06
1.2791e-13
4.1781e-06
1.43897e-13
4.1781e-06
2.53974e-13
4.1781e-06
4.05269e-13
4.1781e-06
5.30515e-13
4.1781e-06
5.79769e-13
4.1781e-06
5.53684e-13
4.1781e-06
4.98326e-13
4.1781e-06
4.41495e-13
4.1781e-06
3.55569e-13
4.1781e-06
2.19216e-13
4.1781e-06
7.41485e-14
4.1781e-06
-2.56234e-14
4.1781e-06
-8.21682e-14
4.1781e-06
-1.54678e-13
4.1781e-06
-2.89042e-13
4.1781e-06
-4.60903e-13
4.1781e-06
-6.16973e-13
4.1781e-06
-7.22151e-13
4.1781e-06
-7.55434e-13
4.1781e-06
-7.33977e-13
4.1781e-06
-7.18639e-13
4.1781e-06
-7.45929e-13
4.1781e-06
-8.03376e-13
4.1781e-06
-8.75831e-13
4.1781e-06
-9.70556e-13
4.1781e-06
-1.08818e-12
4.1781e-06
-1.18427e-12
4.1781e-06
-1.18563e-12
4.1781e-06
-1.05985e-12
4.1781e-06
-8.62106e-13
4.1781e-06
-6.9244e-13
4.1781e-06
-5.96188e-13
4.1781e-06
-5.36745e-13
4.1781e-06
-4.92491e-13
4.1781e-06
-4.59297e-13
4.1781e-06
-4.35062e-13
4.1781e-06
-4.21645e-13
4.1781e-06
-4.16907e-13
4.1781e-06
-4.05982e-13
4.1781e-06
-3.94099e-13
4.1781e-06
-3.82664e-13
4.1781e-06
-3.38741e-13
4.1781e-06
-2.56996e-13
4.1781e-06
-1.55335e-13
4.1781e-06
-1.75905e-14
4.1781e-06
1.84068e-13
4.1781e-06
4.65602e-13
4.1781e-06
7.79945e-13
4.1781e-06
1.01259e-12
4.1781e-06
1.09912e-12
4.1781e-06
1.08801e-12
4.1781e-06
1.06351e-12
4.1781e-06
1.01528e-12
4.1781e-06
8.49331e-13
4.1781e-06
5.66842e-13
4.1781e-06
2.74747e-13
4.1781e-06
3.21783e-14
4.1781e-06
-1.43054e-13
4.1781e-06
-2.34883e-13
4.1781e-06
-2.89831e-13
4.1781e-06
-3.4273e-13
4.1781e-06
-3.31726e-13
4.1781e-06
-2.76487e-13
4.1781e-06
-2.48928e-13
4.1781e-06
-2.10284e-13
4.1781e-06
-1.67577e-13
4.1781e-06
-2.23807e-13
4.1781e-06
-3.07615e-13
4.1781e-06
-2.81728e-13
4.1781e-06
-1.76734e-13
4.1781e-06
-1.15865e-13
4.1781e-06
-1.24891e-13
4.1781e-06
-1.66407e-13
4.1781e-06
-1.90224e-13
4.1781e-06
-1.75854e-13
4.1781e-06
-1.90392e-13
4.1781e-06
-2.3062e-13
4.1781e-06
-1.86064e-13
4.1781e-06
-1.07709e-13
4.1781e-06
-1.03278e-13
4.1781e-06
4.10539e-15
4.1781e-06
3.18115e-13
4.1781e-06
6.93932e-13
4.1781e-06
1.13678e-12
4.1781e-06
1.63322e-12
4.1781e-06
2.24604e-12
4.17809e-06
2.91068e-12
4.17809e-06
3.45074e-12
4.17809e-06
4.00233e-12
3.82524e-12
5.50598e-06
-2.50192e-12
5.50598e-06
-3.0245e-12
5.50598e-06
-3.00491e-12
5.50598e-06
-3.25226e-12
5.50598e-06
-2.78327e-12
5.50598e-06
-1.96116e-12
5.50598e-06
-9.94876e-13
5.50598e-06
-6.85289e-13
5.50598e-06
-5.36416e-13
5.50598e-06
-1.48072e-13
5.50598e-06
5.18292e-14
5.50598e-06
4.37125e-13
5.50598e-06
3.3508e-13
5.50598e-06
-9.00637e-15
5.50598e-06
-3.66123e-13
5.50598e-06
-3.52973e-13
5.50598e-06
-3.01734e-13
5.50598e-06
-4.33373e-13
5.50598e-06
-5.62223e-13
5.50598e-06
-8.53518e-13
5.50598e-06
-1.09338e-12
5.50598e-06
-9.11598e-13
5.50598e-06
-5.61034e-13
5.50598e-06
-3.34292e-13
5.50598e-06
-2.02964e-13
5.50598e-06
-2.58311e-13
5.50598e-06
-4.73421e-13
5.50598e-06
-6.40119e-13
5.50598e-06
-6.96819e-13
5.50598e-06
-6.4877e-13
5.50598e-06
-5.6117e-13
5.50598e-06
-5.6124e-13
5.50598e-06
-5.17755e-13
5.50598e-06
-2.60911e-13
5.50598e-06
-1.78676e-15
5.50598e-06
-1.42019e-15
5.50598e-06
-1.61535e-13
5.50598e-06
-2.91089e-13
5.50598e-06
-2.8159e-13
5.50598e-06
-1.25486e-13
5.50598e-06
2.11581e-14
5.50598e-06
3.52516e-14
5.50598e-06
-3.70745e-14
5.50598e-06
-8.91441e-14
5.50598e-06
-5.96769e-14
5.50598e-06
-3.77356e-15
5.50598e-06
4.39396e-14
5.50598e-06
1.15456e-13
5.50598e-06
2.05937e-13
5.50598e-06
3.07989e-13
5.50598e-06
4.03379e-13
5.50598e-06
4.42468e-13
5.50598e-06
4.15789e-13
5.50598e-06
3.44178e-13
5.50598e-06
2.68092e-13
5.50598e-06
2.69295e-13
5.50598e-06
3.49461e-13
5.50598e-06
3.91523e-13
5.50598e-06
3.35594e-13
5.50598e-06
2.53528e-13
5.50598e-06
2.16585e-13
5.50598e-06
2.0022e-13
5.50598e-06
1.36188e-13
5.50598e-06
1.07646e-14
5.50598e-06
-1.08544e-13
5.50598e-06
-1.68587e-13
5.50598e-06
-1.81469e-13
5.50598e-06
-1.77268e-13
5.50598e-06
-1.84926e-13
5.50598e-06
-2.56012e-13
5.50598e-06
-3.91655e-13
5.50598e-06
-5.00496e-13
5.50598e-06
-4.83785e-13
5.50598e-06
-3.80199e-13
5.50598e-06
-3.34114e-13
5.50598e-06
-4.13063e-13
5.50598e-06
-5.60482e-13
5.50598e-06
-6.82424e-13
5.50598e-06
-7.12019e-13
5.50598e-06
-6.55975e-13
5.50598e-06
-5.52124e-13
5.50598e-06
-4.18082e-13
5.50598e-06
-2.63747e-13
5.50598e-06
-1.1138e-13
5.50598e-06
1.72511e-14
5.50598e-06
8.98917e-14
5.50598e-06
5.61619e-14
5.50598e-06
-4.71831e-14
5.50598e-06
-1.08388e-13
5.50598e-06
-6.34966e-14
5.50598e-06
1.3882e-14
5.50598e-06
-2.75927e-15
5.50598e-06
-1.40859e-13
5.50598e-06
-2.84057e-13
5.50598e-06
-2.96735e-13
5.50598e-06
-1.75846e-13
5.50598e-06
-3.27663e-14
5.50598e-06
4.06753e-14
5.50598e-06
2.2168e-14
5.50598e-06
-6.12405e-14
5.50598e-06
-1.52577e-13
5.50598e-06
-2.0492e-13
5.50598e-06
-2.31984e-13
5.50598e-06
-2.71505e-13
5.50598e-06
-3.08935e-13
5.50598e-06
-2.70956e-13
5.50598e-06
-1.24608e-13
5.50598e-06
4.05601e-14
5.50598e-06
9.84619e-14
5.50598e-06
4.53098e-14
5.50598e-06
6.42325e-15
5.50598e-06
9.81426e-14
5.50598e-06
3.15646e-13
5.50598e-06
5.42417e-13
5.50598e-06
6.44575e-13
5.50598e-06
5.81485e-13
5.50598e-06
4.38365e-13
5.50598e-06
3.36444e-13
5.50598e-06
2.94432e-13
5.50598e-06
2.25546e-13
5.50598e-06
6.91629e-14
5.50598e-06
-1.32434e-13
5.50598e-06
-2.74866e-13
5.50598e-06
-3.16132e-13
5.50598e-06
-3.23463e-13
5.50598e-06
-3.76991e-13
5.50598e-06
-4.92586e-13
5.50598e-06
-6.23583e-13
5.50598e-06
-6.96239e-13
5.50598e-06
-6.79312e-13
5.50598e-06
-6.41572e-13
5.50598e-06
-6.77562e-13
5.50598e-06
-7.90926e-13
5.50598e-06
-8.95883e-13
5.50598e-06
-9.1837e-13
5.50598e-06
-8.86224e-13
5.50598e-06
-8.90491e-13
5.50598e-06
-9.64393e-13
5.50598e-06
-1.0339e-12
5.50598e-06
-1.00955e-12
5.50598e-06
-8.98557e-13
5.50598e-06
-7.85125e-13
5.50598e-06
-7.12107e-13
5.50598e-06
-6.58026e-13
5.50598e-06
-5.89093e-13
5.50598e-06
-5.02852e-13
5.50598e-06
-4.44912e-13
5.50598e-06
-4.53658e-13
5.50598e-06
-4.82672e-13
5.50598e-06
-4.63959e-13
5.50598e-06
-3.85385e-13
5.50598e-06
-2.60061e-13
5.50598e-06
-1.0576e-13
5.50598e-06
4.66918e-14
5.50598e-06
1.80947e-13
5.50598e-06
3.13357e-13
5.50598e-06
4.90193e-13
5.50598e-06
7.3576e-13
5.50598e-06
9.72336e-13
5.50598e-06
1.07431e-12
5.50598e-06
9.99228e-13
5.50598e-06
8.47901e-13
5.50598e-06
7.41731e-13
5.50598e-06
6.40112e-13
5.50598e-06
4.51033e-13
5.50598e-06
2.26119e-13
5.50598e-06
5.37866e-14
5.50598e-06
-5.47493e-14
5.50598e-06
-1.0395e-13
5.50598e-06
-1.26596e-13
5.50598e-06
-1.64827e-13
5.50598e-06
-1.69185e-13
5.50598e-06
-1.13827e-13
5.50598e-06
-8.49748e-14
5.50598e-06
-9.53276e-14
5.50598e-06
-7.8179e-14
5.50598e-06
-5.85902e-14
5.50598e-06
-1.01243e-13
5.50598e-06
-1.49519e-13
5.50598e-06
-1.21211e-13
5.50598e-06
-4.77785e-14
5.50598e-06
1.29076e-14
5.50598e-06
4.51415e-14
5.50598e-06
6.98904e-14
5.50598e-06
1.24652e-13
5.50598e-06
1.82656e-13
5.50598e-06
1.87763e-13
5.50598e-06
1.58513e-13
5.50598e-06
1.57712e-13
5.50598e-06
2.12984e-13
5.50598e-06
4.28284e-13
5.50598e-06
8.94195e-13
5.50597e-06
1.55829e-12
5.50597e-06
2.24065e-12
5.50597e-06
2.86324e-12
5.50597e-06
3.40753e-12
5.50597e-06
4.00297e-12
5.50597e-06
4.60411e-12
5.50597e-06
5.16116e-12
4.91309e-12
6.64357e-06
-2.29768e-12
6.64357e-06
-2.18762e-12
6.64357e-06
-2.46392e-12
6.64357e-06
-2.36438e-12
6.64357e-06
-1.97628e-12
6.64357e-06
-1.55009e-12
6.64357e-06
-1.16134e-12
6.64357e-06
-6.80518e-13
6.64357e-06
-5.12018e-13
6.64357e-06
9.0493e-14
6.64357e-06
2.13659e-13
6.64357e-06
2.90361e-13
6.64357e-06
1.41836e-13
6.64357e-06
1.83188e-13
6.64357e-06
1.35431e-13
6.64357e-06
7.19787e-14
6.64357e-06
8.15665e-14
6.64357e-06
-1.78041e-13
6.64357e-06
-5.43398e-13
6.64356e-06
-7.35845e-13
6.64356e-06
-7.8283e-13
6.64356e-06
-6.61554e-13
6.64356e-06
-5.47989e-13
6.64356e-06
-5.92305e-13
6.64356e-06
-6.27704e-13
6.64356e-06
-6.36481e-13
6.64356e-06
-7.74564e-13
6.64356e-06
-9.75163e-13
6.64356e-06
-1.12402e-12
6.64356e-06
-1.11566e-12
6.64356e-06
-8.46953e-13
6.64356e-06
-4.882e-13
6.64356e-06
-3.12397e-13
6.64356e-06
-3.28323e-13
6.64356e-06
-4.14221e-13
6.64356e-06
-5.13146e-13
6.64356e-06
-5.23423e-13
6.64356e-06
-4.35568e-13
6.64356e-06
-3.69549e-13
6.64356e-06
-3.11505e-13
6.64356e-06
-2.16821e-13
6.64356e-06
-1.32388e-13
6.64356e-06
-9.21142e-14
6.64356e-06
-8.55318e-14
6.64356e-06
-6.98651e-14
6.64356e-06
-4.13034e-14
6.64356e-06
-9.45714e-16
6.64356e-06
8.46437e-14
6.64356e-06
1.65681e-13
6.64356e-06
1.61604e-13
6.64356e-06
1.04027e-13
6.64356e-06
8.5284e-14
6.64356e-06
1.65807e-13
6.64356e-06
2.97427e-13
6.64356e-06
3.56266e-13
6.64356e-06
3.24428e-13
6.64356e-06
3.11139e-13
6.64356e-06
3.52033e-13
6.64356e-06
3.71962e-13
6.64356e-06
3.25602e-13
6.64356e-06
2.20976e-13
6.64356e-06
8.90186e-14
6.64356e-06
-2.31755e-14
6.64356e-06
-6.33833e-14
6.64356e-06
-9.2762e-15
6.64356e-06
9.00665e-14
6.64356e-06
1.27223e-13
6.64356e-06
7.31373e-14
6.64356e-06
9.90808e-15
6.64356e-06
-2.20096e-14
6.64356e-06
-9.23605e-14
6.64356e-06
-2.51106e-13
6.64356e-06
-4.01806e-13
6.64356e-06
-4.11202e-13
6.64356e-06
-3.02384e-13
6.64356e-06
-2.19557e-13
6.64356e-06
-2.62881e-13
6.64356e-06
-4.20796e-13
6.64356e-06
-5.82732e-13
6.64356e-06
-6.31169e-13
6.64356e-06
-5.32922e-13
6.64356e-06
-3.37978e-13
6.64356e-06
-1.39376e-13
6.64356e-06
-1.90691e-14
6.64356e-06
2.92204e-14
6.64356e-06
7.07701e-14
6.64356e-06
1.07785e-13
6.64356e-06
6.73978e-14
6.64356e-06
-8.20569e-14
6.64356e-06
-2.56967e-13
6.64356e-06
-3.37376e-13
6.64356e-06
-2.97677e-13
6.64356e-06
-2.22433e-13
6.64356e-06
-2.09497e-13
6.64356e-06
-2.74191e-13
6.64356e-06
-3.60285e-13
6.64356e-06
-4.05769e-13
6.64356e-06
-3.76142e-13
6.64356e-06
-2.93349e-13
6.64356e-06
-2.43795e-13
6.64356e-06
-2.9014e-13
6.64356e-06
-3.87662e-13
6.64356e-06
-4.47698e-13
6.64356e-06
-4.49973e-13
6.64356e-06
-4.5491e-13
6.64356e-06
-4.99388e-13
6.64356e-06
-5.22164e-13
6.64356e-06
-4.39791e-13
6.64356e-06
-2.58616e-13
6.64356e-06
-5.97839e-14
6.64356e-06
8.72018e-14
6.64356e-06
1.71518e-13
6.64356e-06
2.31511e-13
6.64356e-06
3.1711e-13
6.64356e-06
4.31158e-13
6.64356e-06
5.06398e-13
6.64356e-06
4.70987e-13
6.64356e-06
3.34888e-13
6.64356e-06
1.69956e-13
6.64356e-06
3.39548e-14
6.64356e-06
-7.93952e-14
6.64356e-06
-2.09056e-13
6.64356e-06
-3.5728e-13
6.64356e-06
-4.65088e-13
6.64356e-06
-4.90187e-13
6.64356e-06
-4.30842e-13
6.64356e-06
-3.46276e-13
6.64356e-06
-3.20596e-13
6.64356e-06
-3.85307e-13
6.64356e-06
-4.76751e-13
6.64356e-06
-5.25938e-13
6.64356e-06
-5.44375e-13
6.64356e-06
-5.97698e-13
6.64356e-06
-7.17865e-13
6.64356e-06
-8.46225e-13
6.64356e-06
-8.93525e-13
6.64356e-06
-8.45334e-13
6.64356e-06
-7.88279e-13
6.64356e-06
-8.27099e-13
6.64356e-06
-9.70164e-13
6.64356e-06
-1.11731e-12
6.64356e-06
-1.15628e-12
6.64356e-06
-1.04951e-12
6.64356e-06
-8.67819e-13
6.64356e-06
-7.40688e-13
6.64356e-06
-7.13877e-13
6.64356e-06
-7.17167e-13
6.64356e-06
-6.68141e-13
6.64356e-06
-5.33919e-13
6.64356e-06
-3.50152e-13
6.64356e-06
-1.88869e-13
6.64356e-06
-8.44117e-14
6.64356e-06
6.03053e-15
6.64356e-06
1.4803e-13
6.64356e-06
3.51959e-13
6.64356e-06
5.48465e-13
6.64356e-06
6.5258e-13
6.64356e-06
6.57251e-13
6.64356e-06
6.41482e-13
6.64356e-06
6.85291e-13
6.64356e-06
7.65738e-13
6.64356e-06
7.8555e-13
6.64356e-06
7.17186e-13
6.64356e-06
5.80782e-13
6.64356e-06
3.77206e-13
6.64356e-06
1.78104e-13
6.64356e-06
6.07802e-14
6.64356e-06
-1.23994e-14
6.64356e-06
-8.33932e-14
6.64356e-06
-1.13966e-13
6.64356e-06
-7.21277e-14
6.64356e-06
4.58032e-14
6.64356e-06
1.83127e-13
6.64356e-06
2.16861e-13
6.64356e-06
1.20405e-13
6.64356e-06
1.80961e-14
6.64356e-06
-9.4777e-15
6.64356e-06
-1.03456e-14
6.64356e-06
-3.23556e-14
6.64356e-06
-4.75584e-15
6.64356e-06
8.8127e-14
6.64356e-06
1.89909e-13
6.64356e-06
2.64757e-13
6.64356e-06
2.89872e-13
6.64356e-06
3.0316e-13
6.64356e-06
3.48134e-13
6.64356e-06
4.05701e-13
6.64356e-06
4.97391e-13
6.64356e-06
6.75542e-13
6.64356e-06
9.5372e-13
6.64356e-06
1.31032e-12
6.64356e-06
1.65376e-12
6.64356e-06
2.0085e-12
6.64356e-06
2.48612e-12
6.64356e-06
3.25354e-12
6.64356e-06
3.88575e-12
6.64356e-06
4.57171e-12
6.64356e-06
5.08072e-12
6.64355e-06
5.32761e-12
5.37628e-12
7.59113e-06
-1.94634e-12
7.59113e-06
-2.55703e-12
7.59112e-06
-2.28176e-12
7.59112e-06
-1.94981e-12
7.59112e-06
-1.65802e-12
7.59112e-06
-1.29554e-12
7.59112e-06
-8.37691e-13
7.59112e-06
-2.82641e-13
7.59112e-06
9.42204e-14
7.59112e-06
2.83969e-13
7.59112e-06
3.71599e-13
7.59112e-06
5.12206e-13
7.59112e-06
6.02844e-13
7.59112e-06
6.11867e-13
7.59112e-06
6.0438e-13
7.59112e-06
3.92046e-13
7.59112e-06
2.26342e-13
7.59112e-06
1.15583e-13
7.59112e-06
-7.86414e-14
7.59112e-06
-2.36674e-13
7.59112e-06
-3.83733e-13
7.59112e-06
-4.86881e-13
7.59112e-06
-4.83044e-13
7.59112e-06
-5.59646e-13
7.59112e-06
-7.82915e-13
7.59112e-06
-9.65285e-13
7.59112e-06
-1.00005e-12
7.59112e-06
-8.88173e-13
7.59112e-06
-7.22516e-13
7.59112e-06
-6.28642e-13
7.59112e-06
-5.61468e-13
7.59112e-06
-4.56875e-13
7.59112e-06
-4.18808e-13
7.59112e-06
-4.84448e-13
7.59112e-06
-5.24804e-13
7.59112e-06
-5.31727e-13
7.59112e-06
-5.43616e-13
7.59112e-06
-5.2178e-13
7.59112e-06
-5.25657e-13
7.59112e-06
-5.80055e-13
7.59112e-06
-6.00196e-13
7.59112e-06
-5.38963e-13
7.59112e-06
-4.09213e-13
7.59112e-06
-2.57285e-13
7.59112e-06
-9.91005e-14
7.59112e-06
5.12557e-14
7.59112e-06
1.35926e-13
7.59112e-06
1.43137e-13
7.59112e-06
9.79343e-14
7.59112e-06
2.27391e-14
7.59112e-06
-3.94503e-14
7.59112e-06
-6.77908e-14
7.59112e-06
-5.52e-14
7.59112e-06
1.64455e-14
7.59112e-06
1.13815e-13
7.59112e-06
1.77472e-13
7.59112e-06
2.21578e-13
7.59112e-06
2.63196e-13
7.59112e-06
2.34761e-13
7.59112e-06
1.1006e-13
7.59112e-06
-3.75402e-14
7.59112e-06
-1.34442e-13
7.59112e-06
-1.77084e-13
7.59112e-06
-1.94968e-13
7.59112e-06
-1.69821e-13
7.59112e-06
-5.4826e-14
7.59112e-06
8.40707e-14
7.59112e-06
1.11828e-13
7.59112e-06
1.03467e-14
7.59112e-06
-9.45975e-14
7.59112e-06
-1.00923e-13
7.59112e-06
-4.69076e-14
7.59112e-06
-2.11436e-14
7.59112e-06
-3.90839e-14
7.59112e-06
-8.96204e-14
7.59112e-06
-1.81332e-13
7.59112e-06
-2.94702e-13
7.59112e-06
-4.01404e-13
7.59112e-06
-4.65285e-13
7.59112e-06
-4.81386e-13
7.59112e-06
-4.63179e-13
7.59112e-06
-4.13962e-13
7.59112e-06
-3.10619e-13
7.59112e-06
-1.70551e-13
7.59112e-06
-5.30505e-14
7.59112e-06
1.77893e-14
7.59112e-06
6.79868e-14
7.59112e-06
1.1528e-13
7.59112e-06
1.38719e-13
7.59112e-06
1.10679e-13
7.59112e-06
3.28289e-14
7.59112e-06
-7.28638e-14
7.59112e-06
-1.84488e-13
7.59112e-06
-2.74522e-13
7.59112e-06
-3.08131e-13
7.59112e-06
-2.78486e-13
7.59112e-06
-2.37841e-13
7.59112e-06
-2.42134e-13
7.59112e-06
-2.87421e-13
7.59112e-06
-3.47635e-13
7.59112e-06
-4.29445e-13
7.59112e-06
-5.44521e-13
7.59112e-06
-6.59132e-13
7.59112e-06
-7.04182e-13
7.59112e-06
-6.49684e-13
7.59112e-06
-5.45375e-13
7.59112e-06
-4.58643e-13
7.59112e-06
-4.02322e-13
7.59112e-06
-3.46233e-13
7.59112e-06
-2.59906e-13
7.59112e-06
-1.32145e-13
7.59112e-06
1.86122e-14
7.59112e-06
1.51768e-13
7.59112e-06
2.41241e-13
7.59112e-06
3.00508e-13
7.59112e-06
3.36206e-13
7.59112e-06
3.1694e-13
7.59112e-06
2.16933e-13
7.59112e-06
5.76275e-14
7.59112e-06
-1.04169e-13
7.59112e-06
-2.14474e-13
7.59112e-06
-2.58235e-13
7.59112e-06
-2.54155e-13
7.59112e-06
-2.35166e-13
7.59112e-06
-2.46146e-13
7.59112e-06
-3.20242e-13
7.59112e-06
-4.34586e-13
7.59112e-06
-5.29738e-13
7.59112e-06
-5.75708e-13
7.59112e-06
-5.79664e-13
7.59112e-06
-5.69654e-13
7.59112e-06
-5.70237e-13
7.59112e-06
-5.86868e-13
7.59112e-06
-6.23769e-13
7.59112e-06
-6.91399e-13
7.59112e-06
-7.89143e-13
7.59112e-06
-8.91428e-13
7.59112e-06
-9.52909e-13
7.59112e-06
-9.55136e-13
7.59112e-06
-9.30838e-13
7.59112e-06
-9.24879e-13
7.59112e-06
-9.47797e-13
7.59112e-06
-9.63662e-13
7.59112e-06
-9.34188e-13
7.59112e-06
-8.79161e-13
7.59112e-06
-8.34517e-13
7.59112e-06
-7.81394e-13
7.59112e-06
-6.82507e-13
7.59112e-06
-5.32166e-13
7.59112e-06
-3.55516e-13
7.59112e-06
-1.93408e-13
7.59112e-06
-5.89799e-14
7.59112e-06
5.84523e-14
7.59112e-06
1.67231e-13
7.59112e-06
2.63105e-13
7.59112e-06
3.30599e-13
7.59112e-06
3.6657e-13
7.59112e-06
3.96781e-13
7.59112e-06
4.38202e-13
7.59112e-06
4.99171e-13
7.59112e-06
5.6422e-13
7.59112e-06
5.77664e-13
7.59112e-06
5.2759e-13
7.59112e-06
4.7658e-13
7.59112e-06
4.07985e-13
7.59112e-06
2.93264e-13
7.59112e-06
1.94782e-13
7.59112e-06
1.4903e-13
7.59112e-06
1.29083e-13
7.59112e-06
1.12514e-13
7.59112e-06
8.43271e-14
7.59112e-06
6.52058e-14
7.59112e-06
7.02318e-14
7.59111e-06
3.18713e-14
7.59111e-06
-7.30372e-14
7.59111e-06
-1.38645e-13
7.59111e-06
-6.20924e-14
7.59111e-06
1.22962e-13
7.59111e-06
2.58294e-13
7.59111e-06
2.8914e-13
7.59111e-06
2.80132e-13
7.59111e-06
2.76164e-13
7.59111e-06
2.95347e-13
7.59111e-06
2.94583e-13
7.59111e-06
2.8887e-13
7.59111e-06
4.05992e-13
7.59111e-06
5.92393e-13
7.59111e-06
7.50961e-13
7.59111e-06
9.64237e-13
7.59111e-06
1.23833e-12
7.59111e-06
1.61649e-12
7.59111e-06
2.15113e-12
7.59111e-06
2.6124e-12
7.59111e-06
3.04308e-12
7.59111e-06
3.75429e-12
7.59111e-06
4.42493e-12