/*--------------------------------*- C++ -*----------------------------------*\
| =========                 |                                                 |
| \\      /  F ield         | OpenFOAM: The Open Source CFD Toolbox           |
|  \\    /   O peration     | Version:  2406                                  |
|   \\  /    A nd           | Website:  www.openfoam.com                      |
|    \\/     M anipulation  |                                                 |
\*---------------------------------------------------------------------------*/
FoamFile
{
    version     2.0;
    format      ascii;
    arch        "LSB;label=32;scalar=64";
    class       volVectorField;
    location    "0.5";
    object      U;
}
// * * * * * * * * * * * * * * * * * * * * * * * * * * * * * * * * * * * * * //

dimensions      [0 1 -1 0 0 0 0];

internalField   nonuniform List<vector> 
4000
(
(0.0190056 -6.87618e-09 0)
(0.0190056 -4.12374e-09 0)
(0.0190056 -7.84147e-09 0)
(0.0190056 -4.297e-09 0)
(0.0190057 -2.08544e-09 0)
(0.0190057 -1.15912e-09 0)
(0.0190057 -9.54642e-10 0)
(0.0190057 -1.34859e-09 0)
(0.0190057 8.55924e-10 0)
(0.0190057 1.14153e-09 0)
(0.0190057 2.4806e-09 0)
(0.0190057 3.19175e-09 0)
(0.0190057 2.71982e-09 0)
(0.0190057 7.99018e-10 0)
(0.0190057 -1.27767e-10 0)
(0.0190057 -2.47794e-09 0)
(0.0190057 -3.20844e-09 0)
(0.0190057 -4.30652e-09 0)
(0.0190057 -5.06554e-09 0)
(0.0190057 -3.38743e-09 0)
(0.0190057 -1.93198e-09 0)
(0.0190057 -2.54489e-09 0)
(0.0190057 -4.52782e-09 0)
(0.0190057 -5.64018e-09 0)
(0.0190057 -5.47233e-09 0)
(0.0190057 -3.78386e-09 0)
(0.0190057 -1.34571e-09 0)
(0.0190058 2.24164e-11 0)
(0.0190058 -2.63659e-10 0)
(0.0190058 -8.93362e-10 0)
(0.0190058 -5.31621e-10 0)
(0.0190057 7.69588e-10 0)
(0.0190057 1.51142e-09 0)
(0.0190057 9.88284e-10 0)
(0.0190057 1.49069e-10 0)
(0.0190057 -2.10908e-10 0)
(0.0190057 -1.24457e-10 0)
(0.0190057 2.46619e-10 0)
(0.0190057 7.07105e-10 0)
(0.0190057 7.64118e-10 0)
(0.0190057 3.29337e-10 0)
(0.0190057 4.3359e-11 0)
(0.0190057 2.08671e-10 0)
(0.0190057 4.79376e-10 0)
(0.0190057 3.91723e-10 0)
(0.0190057 1.4573e-10 0)
(0.0190057 1.99432e-10 0)
(0.0190057 3.60275e-10 0)
(0.0190057 4.31025e-10 0)
(0.0190057 6.10948e-10 0)
(0.0190057 1.09634e-09 0)
(0.0190057 2.00695e-09 0)
(0.0190057 3.10963e-09 0)
(0.0190057 3.87455e-09 0)
(0.0190057 3.93218e-09 0)
(0.0190057 3.35062e-09 0)
(0.0190057 2.65166e-09 0)
(0.0190056 2.60423e-09 0)
(0.0190056 3.17823e-09 0)
(0.0190056 3.30083e-09 0)
(0.0190056 2.39592e-09 0)
(0.0190056 1.24737e-09 0)
(0.0190056 7.74444e-10 0)
(0.0190056 9.12657e-10 0)
(0.0190056 9.84335e-10 0)
(0.0190056 7.17179e-10 0)
(0.0190056 3.18616e-10 0)
(0.0190056 -2.4183e-10 0)
(0.0190056 -1.08759e-09 0)
(0.0190056 -1.67828e-09 0)
(0.0190057 -1.29372e-09 0)
(0.0190057 -2.78007e-10 0)
(0.0190057 2.09507e-10 0)
(0.0190057 -3.6304e-10 0)
(0.0190057 -1.37835e-09 0)
(0.0190057 -2.21456e-09 0)
(0.0190057 -3.04503e-09 0)
(0.0190057 -4.23015e-09 0)
(0.0190057 -5.48052e-09 0)
(0.0190057 -5.83904e-09 0)
(0.0190057 -4.59392e-09 0)
(0.0190057 -2.11924e-09 0)
(0.0190057 3.78122e-10 0)
(0.0190057 1.74744e-09 0)
(0.0190057 1.56242e-09 0)
(0.0190057 3.2505e-10 0)
(0.0190057 -8.53373e-10 0)
(0.0190057 -1.43713e-09 0)
(0.0190057 -1.75621e-09 0)
(0.0190057 -1.94682e-09 0)
(0.0190057 -1.65601e-09 0)
(0.0190057 -7.38313e-10 0)
(0.0190057 5.82985e-11 0)
(0.0190057 -3.99628e-10 0)
(0.0190057 -2.20982e-09 0)
(0.0190057 -3.94299e-09 0)
(0.0190057 -4.01197e-09 0)
(0.0190057 -2.20873e-09 0)
(0.0190057 4.26818e-10 0)
(0.0190057 2.54693e-09 0)
(0.0190057 3.01636e-09 0)
(0.0190057 1.47621e-09 0)
(0.0190057 -9.25572e-10 0)
(0.0190057 -2.35892e-09 0)
(0.0190057 -2.04241e-09 0)
(0.0190057 -7.32043e-10 0)
(0.0190057 4.625e-10 0)
(0.0190057 1.26665e-09 0)
(0.0190057 1.98431e-09 0)
(0.0190057 2.55061e-09 0)
(0.0190057 2.49082e-09 0)
(0.0190057 1.77475e-09 0)
(0.0190057 1.11384e-09 0)
(0.0190057 1.38389e-09 0)
(0.0190056 2.83342e-09 0)
(0.0190056 4.72648e-09 0)
(0.0190056 5.66745e-09 0)
(0.0190056 4.67744e-09 0)
(0.0190056 2.402e-09 0)
(0.0190056 5.73411e-10 0)
(0.0190056 6.82244e-11 0)
(0.0190056 2.80341e-10 0)
(0.0190056 2.61974e-10 0)
(0.0190056 -1.40903e-10 0)
(0.0190056 -2.75885e-10 0)
(0.0190056 2.66398e-10 0)
(0.0190056 8.69937e-10 0)
(0.0190056 5.68067e-10 0)
(0.0190056 -9.12268e-10 0)
(0.0190056 -2.85279e-09 0)
(0.0190056 -3.90942e-09 0)
(0.0190056 -3.38559e-09 0)
(0.0190057 -2.15761e-09 0)
(0.0190057 -1.64113e-09 0)
(0.0190057 -2.27267e-09 0)
(0.0190057 -3.39072e-09 0)
(0.0190057 -4.1804e-09 0)
(0.0190057 -4.48314e-09 0)
(0.0190057 -4.66961e-09 0)
(0.0190057 -4.91058e-09 0)
(0.0190057 -4.89559e-09 0)
(0.0190057 -4.1985e-09 0)
(0.0190057 -2.84412e-09 0)
(0.0190057 -1.40414e-09 0)
(0.0190057 -5.62448e-10 0)
(0.0190057 -7.72362e-10 0)
(0.0190057 -1.88363e-09 0)
(0.0190057 -2.94907e-09 0)
(0.0190057 -2.97535e-09 0)
(0.0190057 -1.87629e-09 0)
(0.0190057 -5.37285e-10 0)
(0.0190057 2.84137e-11 0)
(0.0190057 -1.93869e-10 0)
(0.0190057 -1.47692e-10 0)
(0.0190057 6.53174e-10 0)
(0.0190057 1.48371e-09 0)
(0.0190057 1.65729e-09 0)
(0.0190057 1.44855e-09 0)
(0.0190057 1.96586e-09 0)
(0.0190057 3.91e-09 0)
(0.0190057 6.24636e-09 0)
(0.0190057 7.1244e-09 0)
(0.0190057 5.93158e-09 0)
(0.0190057 3.83622e-09 0)
(0.0190057 2.35036e-09 0)
(0.0190056 1.82292e-09 0)
(0.0190056 1.77877e-09 0)
(0.0190056 1.78701e-09 0)
(0.0190056 1.39012e-09 0)
(0.0190056 4.67354e-10 0)
(0.0190056 -5.32169e-10 0)
(0.0190056 -1.5337e-09 0)
(0.0190056 -2.32163e-09 0)
(0.0190056 -1.8076e-09 0)
(0.0190056 -5.7997e-10 0)
(0.0190056 -3.75705e-10 0)
(0.0190056 -5.62203e-10 0)
(0.0190056 -1.39648e-10 0)
(0.0190056 -2.45847e-12 0)
(0.0190056 -6.4454e-10 0)
(0.0190056 -1.61566e-09 0)
(0.0190056 -2.4978e-09 0)
(0.0190056 -2.97157e-09 0)
(0.0190057 -3.18988e-09 0)
(0.0190057 -3.41162e-09 0)
(0.0190057 -3.15554e-09 0)
(0.0190057 -2.34479e-09 0)
(0.0190057 -2.29327e-09 0)
(0.0190057 -2.89346e-09 0)
(0.0190057 -2.15506e-09 0)
(0.0190057 -1.09563e-09 0)
(0.0190057 -1.53487e-09 0)
(0.0190057 -1.94716e-09 0)
(0.0190057 -1.39102e-09 0)
(0.0190057 3.24757e-10 0)
(0.0190057 3.04185e-09 0)
(0.0190057 4.87327e-09 0)
(0.0190056 6.8381e-09 0)
(0.0190056 9.7984e-09 0)
(0.0190056 1.22569e-08 0)
(0.0531926 -2.29533e-08 0)
(0.0531926 -2.49142e-08 0)
(0.0531927 -2.7117e-08 0)
(0.0531927 -2.40994e-08 0)
(0.0531927 -1.66478e-08 0)
(0.0531927 -1.11063e-08 0)
(0.0531927 -6.86776e-09 0)
(0.0531927 -7.65801e-09 0)
(0.0531927 -2.46988e-09 0)
(0.0531927 -5.14562e-10 0)
(0.0531928 6.05892e-09 0)
(0.0531928 3.37755e-09 0)
(0.0531928 1.75907e-09 0)
(0.0531928 -2.13178e-09 0)
(0.0531928 6.89299e-10 0)
(0.0531928 -4.12602e-09 0)
(0.0531928 -1.05466e-08 0)
(0.0531928 -1.53608e-08 0)
(0.0531928 -1.6542e-08 0)
(0.0531928 -1.26845e-08 0)
(0.0531928 -9.94552e-09 0)
(0.0531928 -1.13765e-08 0)
(0.0531928 -1.35436e-08 0)
(0.0531928 -1.19665e-08 0)
(0.0531928 -8.66257e-09 0)
(0.0531928 -5.39878e-09 0)
(0.0531928 -3.16557e-09 0)
(0.0531928 -2.99017e-09 0)
(0.0531928 -3.8601e-09 0)
(0.0531928 -4.63504e-09 0)
(0.0531928 -4.74773e-09 0)
(0.0531928 -2.43458e-09 0)
(0.0531928 1.25757e-09 0)
(0.0531928 2.96276e-09 0)
(0.0531928 2.44456e-09 0)
(0.0531928 1.73953e-09 0)
(0.0531928 1.42163e-09 0)
(0.0531928 8.42139e-10 0)
(0.0531928 3.82892e-10 0)
(0.0531928 8.06431e-10 0)
(0.0531928 2.16985e-09 0)
(0.0531928 4.03501e-09 0)
(0.0531928 5.57039e-09 0)
(0.0531928 6.02214e-09 0)
(0.0531928 4.92159e-09 0)
(0.0531928 3.1932e-09 0)
(0.0531928 2.54164e-09 0)
(0.0531928 2.84658e-09 0)
(0.0531928 3.35498e-09 0)
(0.0531928 4.12962e-09 0)
(0.0531928 5.369e-09 0)
(0.0531928 7.40501e-09 0)
(0.0531928 9.91165e-09 0)
(0.0531928 1.19196e-08 0)
(0.0531928 1.29106e-08 0)
(0.0531928 1.24299e-08 0)
(0.0531927 1.02296e-08 0)
(0.0531927 7.66563e-09 0)
(0.0531927 6.44834e-09 0)
(0.0531927 6.3523e-09 0)
(0.0531927 6.05967e-09 0)
(0.0531927 5.3643e-09 0)
(0.0531927 4.95909e-09 0)
(0.0531927 4.83642e-09 0)
(0.0531927 4.11621e-09 0)
(0.0531927 2.39826e-09 0)
(0.0531927 4.97483e-10 0)
(0.0531927 -9.69327e-10 0)
(0.0531927 -2.49966e-09 0)
(0.0531927 -4.15759e-09 0)
(0.0531927 -4.82728e-09 0)
(0.0531927 -4.19829e-09 0)
(0.0531927 -3.70059e-09 0)
(0.0531927 -4.60499e-09 0)
(0.0531927 -6.43743e-09 0)
(0.0531927 -8.2679e-09 0)
(0.0531927 -1.01127e-08 0)
(0.0531927 -1.23922e-08 0)
(0.0531928 -1.48899e-08 0)
(0.0531928 -1.63362e-08 0)
(0.0531928 -1.5078e-08 0)
(0.0531928 -1.08103e-08 0)
(0.0531928 -5.14323e-09 0)
(0.0531928 -3.451e-10 0)
(0.0531928 1.92174e-09 0)
(0.0531928 1.42055e-09 0)
(0.0531928 -2.35243e-10 0)
(0.0531928 -1.36648e-09 0)
(0.0531928 -2.20156e-09 0)
(0.0531928 -3.54906e-09 0)
(0.0531928 -4.96772e-09 0)
(0.0531928 -5.28733e-09 0)
(0.0531928 -4.38689e-09 0)
(0.0531928 -3.56432e-09 0)
(0.0531928 -4.12319e-09 0)
(0.0531928 -5.56301e-09 0)
(0.0531928 -5.95275e-09 0)
(0.0531928 -4.34143e-09 0)
(0.0531928 -1.56275e-09 0)
(0.0531928 1.06085e-09 0)
(0.0531927 2.32432e-09 0)
(0.0531927 1.26135e-09 0)
(0.0531927 -1.54674e-09 0)
(0.0531928 -3.86378e-09 0)
(0.0531928 -3.86345e-09 0)
(0.0531928 -1.74231e-09 0)
(0.0531928 9.53063e-10 0)
(0.0531928 3.26989e-09 0)
(0.0531928 5.34984e-09 0)
(0.0531928 7.05107e-09 0)
(0.0531928 7.50776e-09 0)
(0.0531928 6.52372e-09 0)
(0.0531927 5.27929e-09 0)
(0.0531927 5.32373e-09 0)
(0.0531927 7.25815e-09 0)
(0.0531927 1.01216e-08 0)
(0.0531927 1.19244e-08 0)
(0.0531927 1.09599e-08 0)
(0.0531927 7.43858e-09 0)
(0.0531927 3.5757e-09 0)
(0.0531927 1.26556e-09 0)
(0.0531927 2.71709e-10 0)
(0.0531927 -7.25497e-10 0)
(0.0531927 -2.20919e-09 0)
(0.0531927 -3.28425e-09 0)
(0.0531927 -2.97909e-09 0)
(0.0531927 -1.78526e-09 0)
(0.0531927 -1.27341e-09 0)
(0.0531927 -2.54498e-09 0)
(0.0531927 -5.31609e-09 0)
(0.0531928 -7.80998e-09 0)
(0.0531928 -8.22228e-09 0)
(0.0531928 -6.98014e-09 0)
(0.0531928 -6.27854e-09 0)
(0.0531928 -7.3792e-09 0)
(0.0531928 -9.41142e-09 0)
(0.0531928 -1.06325e-08 0)
(0.0531928 -1.0354e-08 0)
(0.0531928 -9.41943e-09 0)
(0.0531928 -8.87844e-09 0)
(0.0531928 -8.62526e-09 0)
(0.0531928 -7.7156e-09 0)
(0.0531928 -5.88454e-09 0)
(0.0531928 -3.8171e-09 0)
(0.0531928 -2.15756e-09 0)
(0.0531928 -1.39984e-09 0)
(0.0531928 -1.91665e-09 0)
(0.0531928 -3.21086e-09 0)
(0.0531928 -4.14032e-09 0)
(0.0531928 -3.95886e-09 0)
(0.0531928 -2.7471e-09 0)
(0.0531928 -1.46241e-09 0)
(0.0531928 -9.44355e-10 0)
(0.0531928 -3.93663e-10 0)
(0.0531928 1.28098e-09 0)
(0.0531928 3.61229e-09 0)
(0.0531928 5.51511e-09 0)
(0.0531928 6.74505e-09 0)
(0.0531928 8.41677e-09 0)
(0.0531928 1.18266e-08 0)
(0.0531928 1.58336e-08 0)
(0.0531928 1.73761e-08 0)
(0.0531928 1.48115e-08 0)
(0.0531928 9.79718e-09 0)
(0.0531928 5.43629e-09 0)
(0.0531928 2.63797e-09 0)
(0.0531928 3.81073e-10 0)
(0.0531928 -1.50978e-09 0)
(0.0531928 -2.8336e-09 0)
(0.0531927 -3.9792e-09 0)
(0.0531927 -4.47775e-09 0)
(0.0531927 -4.34761e-09 0)
(0.0531927 -4.77078e-09 0)
(0.0531927 -4.62162e-09 0)
(0.0531927 -3.00487e-09 0)
(0.0531927 -2.58099e-09 0)
(0.0531927 -3.41365e-09 0)
(0.0531927 -2.58979e-09 0)
(0.0531927 -9.48165e-10 0)
(0.0531927 -9.76211e-10 0)
(0.0531928 -2.40177e-09 0)
(0.0531928 -3.95745e-09 0)
(0.0531928 -5.09914e-09 0)
(0.0531928 -5.80004e-09 0)
(0.0531928 -6.54843e-09 0)
(0.0531928 -7.22289e-09 0)
(0.0531928 -6.54024e-09 0)
(0.0531928 -5.48525e-09 0)
(0.0531928 -6.02434e-09 0)
(0.0531928 -6.01151e-09 0)
(0.0531928 -4.65084e-09 0)
(0.0531928 -3.89686e-09 0)
(0.0531928 -1.83044e-09 0)
(0.0531928 1.78512e-09 0)
(0.0531928 6.57359e-09 0)
(0.0531927 1.4233e-08 0)
(0.0531927 2.13771e-08 0)
(0.0531927 2.92011e-08 0)
(0.0531927 3.67374e-08 0)
(0.0531926 4.10445e-08 0)
(0.0835619 -3.78365e-08 0)
(0.0835619 -4.85676e-08 0)
(0.0835619 -4.69417e-08 0)
(0.083562 -4.5529e-08 0)
(0.083562 -3.55941e-08 0)
(0.083562 -2.54225e-08 0)
(0.083562 -2.01848e-08 0)
(0.083562 -1.60142e-08 0)
(0.083562 -4.97144e-09 0)
(0.083562 -3.97537e-09 0)
(0.083562 -1.87383e-10 0)
(0.083562 -2.92564e-09 0)
(0.083562 -7.39415e-11 0)
(0.083562 -4.54592e-10 0)
(0.083562 -1.39613e-09 0)
(0.083562 -6.96029e-09 0)
(0.083562 -1.50227e-08 0)
(0.083562 -1.91055e-08 0)
(0.083562 -1.99158e-08 0)
(0.083562 -2.0652e-08 0)
(0.083562 -2.07745e-08 0)
(0.083562 -2.11028e-08 0)
(0.083562 -2.02464e-08 0)
(0.083562 -1.44517e-08 0)
(0.083562 -6.93197e-09 0)
(0.083562 -2.9626e-09 0)
(0.083562 -2.79837e-09 0)
(0.083562 -5.28063e-09 0)
(0.083562 -8.44106e-09 0)
(0.083562 -9.80732e-09 0)
(0.083562 -9.58973e-09 0)
(0.083562 -7.36461e-09 0)
(0.083562 -2.56995e-09 0)
(0.083562 1.39444e-09 0)
(0.083562 1.77295e-09 0)
(0.083562 8.71168e-10 0)
(0.083562 1.01838e-09 0)
(0.083562 1.00284e-09 0)
(0.083562 1.93193e-10 0)
(0.083562 -2.03256e-10 0)
(0.083562 6.17515e-10 0)
(0.083562 2.5323e-09 0)
(0.083562 4.38696e-09 0)
(0.083562 5.48858e-09 0)
(0.083562 5.57487e-09 0)
(0.083562 4.60476e-09 0)
(0.083562 4.04643e-09 0)
(0.083562 4.62725e-09 0)
(0.083562 5.60033e-09 0)
(0.083562 6.71977e-09 0)
(0.083562 7.75439e-09 0)
(0.083562 8.67495e-09 0)
(0.083562 1.00851e-08 0)
(0.083562 1.22451e-08 0)
(0.083562 1.48891e-08 0)
(0.083562 1.67787e-08 0)
(0.083562 1.57591e-08 0)
(0.083562 1.17201e-08 0)
(0.083562 7.62636e-09 0)
(0.083562 5.90284e-09 0)
(0.083562 6.04085e-09 0)
(0.083562 6.31787e-09 0)
(0.083562 5.83539e-09 0)
(0.083562 4.57925e-09 0)
(0.083562 2.74126e-09 0)
(0.083562 3.86221e-10 0)
(0.083562 -1.92303e-09 0)
(0.083562 -3.40939e-09 0)
(0.083562 -4.37442e-09 0)
(0.083562 -5.63278e-09 0)
(0.083562 -6.92487e-09 0)
(0.083562 -7.36909e-09 0)
(0.083562 -7.37437e-09 0)
(0.083562 -8.51918e-09 0)
(0.083562 -1.11193e-08 0)
(0.083562 -1.37385e-08 0)
(0.083562 -1.5367e-08 0)
(0.083562 -1.62311e-08 0)
(0.083562 -1.69906e-08 0)
(0.083562 -1.7858e-08 0)
(0.083562 -1.78605e-08 0)
(0.083562 -1.5759e-08 0)
(0.083562 -1.14907e-08 0)
(0.083562 -6.18064e-09 0)
(0.083562 -1.49449e-09 0)
(0.083562 1.04447e-09 0)
(0.083562 1.3772e-09 0)
(0.083562 9.9069e-10 0)
(0.083562 5.71338e-10 0)
(0.083562 -1.02484e-09 0)
(0.083562 -4.63856e-09 0)
(0.083562 -8.7884e-09 0)
(0.083562 -1.06661e-08 0)
(0.083562 -8.95198e-09 0)
(0.083562 -5.23425e-09 0)
(0.083562 -2.20833e-09 0)
(0.083562 -9.47818e-10 0)
(0.083562 -7.52527e-10 0)
(0.083562 -8.12883e-10 0)
(0.083562 -7.6052e-10 0)
(0.083562 -4.93255e-10 0)
(0.083562 -5.24944e-10 0)
(0.083562 -1.45385e-09 0)
(0.083562 -2.66852e-09 0)
(0.083562 -2.55129e-09 0)
(0.083562 -3.42604e-10 0)
(0.083562 2.82672e-09 0)
(0.083562 5.07486e-09 0)
(0.083562 5.89475e-09 0)
(0.083562 6.26582e-09 0)
(0.083562 7.00632e-09 0)
(0.083562 8.15657e-09 0)
(0.083562 9.54484e-09 0)
(0.083562 1.08096e-08 0)
(0.083562 1.15327e-08 0)
(0.083562 1.17375e-08 0)
(0.083562 1.17256e-08 0)
(0.083562 1.11447e-08 0)
(0.083562 9.10643e-09 0)
(0.083562 5.62517e-09 0)
(0.083562 1.98449e-09 0)
(0.083562 -6.2936e-10 0)
(0.083562 -2.21234e-09 0)
(0.083562 -3.71124e-09 0)
(0.083562 -5.71217e-09 0)
(0.083562 -7.75985e-09 0)
(0.083562 -9.2306e-09 0)
(0.083562 -9.96798e-09 0)
(0.083562 -1.0158e-08 0)
(0.083562 -1.04829e-08 0)
(0.083562 -1.15814e-08 0)
(0.083562 -1.30481e-08 0)
(0.083562 -1.41757e-08 0)
(0.083562 -1.51136e-08 0)
(0.083562 -1.65042e-08 0)
(0.083562 -1.83355e-08 0)
(0.083562 -1.95336e-08 0)
(0.083562 -1.89051e-08 0)
(0.083562 -1.63906e-08 0)
(0.083562 -1.32351e-08 0)
(0.083562 -1.09097e-08 0)
(0.0835621 -9.71204e-09 0)
(0.0835621 -9.00851e-09 0)
(0.0835621 -8.30671e-09 0)
(0.0835621 -7.34287e-09 0)
(0.0835621 -6.06947e-09 0)
(0.0835621 -5.16021e-09 0)
(0.0835621 -5.25477e-09 0)
(0.0835621 -6.10209e-09 0)
(0.0835621 -6.98786e-09 0)
(0.0835621 -7.03863e-09 0)
(0.0835621 -5.79806e-09 0)
(0.0835621 -3.95162e-09 0)
(0.0835621 -2.04656e-09 0)
(0.0835621 4.39074e-10 0)
(0.0835621 4.09837e-09 0)
(0.0835621 8.97374e-09 0)
(0.0835621 1.41701e-08 0)
(0.0835621 1.81825e-08 0)
(0.0835621 2.05187e-08 0)
(0.0835621 2.16771e-08 0)
(0.083562 2.18048e-08 0)
(0.083562 2.00509e-08 0)
(0.083562 1.57133e-08 0)
(0.083562 9.94731e-09 0)
(0.083562 4.38158e-09 0)
(0.083562 -5.72324e-10 0)
(0.083562 -4.37041e-09 0)
(0.083562 -6.30037e-09 0)
(0.083562 -6.98705e-09 0)
(0.083562 -6.93477e-09 0)
(0.083562 -5.90757e-09 0)
(0.083562 -5.0228e-09 0)
(0.083562 -4.92669e-09 0)
(0.083562 -4.3483e-09 0)
(0.083562 -4.01238e-09 0)
(0.083562 -5.18774e-09 0)
(0.083562 -5.70022e-09 0)
(0.083562 -4.00076e-09 0)
(0.083562 -2.21443e-09 0)
(0.083562 -2.18467e-09 0)
(0.083562 -3.24301e-09 0)
(0.083562 -4.32205e-09 0)
(0.083562 -5.0233e-09 0)
(0.083562 -5.64356e-09 0)
(0.083562 -6.84195e-09 0)
(0.083562 -7.34519e-09 0)
(0.083562 -5.90581e-09 0)
(0.083562 -5.12237e-09 0)
(0.083562 -5.83632e-09 0)
(0.083562 -4.06042e-09 0)
(0.083562 8.96783e-10 0)
(0.083562 7.21906e-09 0)
(0.083562 1.50444e-08 0)
(0.0835619 2.29801e-08 0)
(0.0835619 3.36734e-08 0)
(0.0835619 4.65249e-08 0)
(0.0835619 5.75373e-08 0)
(0.0835618 6.81774e-08 0)
(0.0835618 6.80253e-08 0)
(0.11012 -4.91964e-08 0)
(0.11012 -5.89258e-08 0)
(0.11012 -5.76108e-08 0)
(0.11012 -5.78996e-08 0)
(0.11012 -4.81507e-08 0)
(0.11012 -3.59717e-08 0)
(0.11012 -2.3763e-08 0)
(0.11012 -1.81061e-08 0)
(0.11012 -8.18138e-09 0)
(0.11012 -5.11377e-09 0)
(0.11012 -3.52235e-09 0)
(0.11012 1.44743e-09 0)
(0.11012 3.99879e-09 0)
(0.11012 9.41065e-10 0)
(0.11012 -6.72167e-09 0)
(0.11012 -8.73743e-09 0)
(0.11012 -9.61144e-09 0)
(0.11012 -1.24037e-08 0)
(0.11012 -1.50416e-08 0)
(0.11012 -1.95745e-08 0)
(0.11012 -2.22705e-08 0)
(0.11012 -2.05816e-08 0)
(0.11012 -1.67937e-08 0)
(0.11012 -1.15339e-08 0)
(0.11012 -5.95235e-09 0)
(0.11012 -3.73964e-09 0)
(0.11012 -5.31452e-09 0)
(0.11012 -8.6134e-09 0)
(0.11012 -1.18213e-08 0)
(0.11012 -1.24593e-08 0)
(0.11012 -1.11084e-08 0)
(0.11012 -1.01162e-08 0)
(0.11012 -8.10911e-09 0)
(0.11012 -4.30482e-09 0)
(0.11012 -1.82095e-09 0)
(0.11012 -1.9058e-09 0)
(0.11012 -2.35165e-09 0)
(0.11012 -2.51068e-09 0)
(0.11012 -2.39272e-09 0)
(0.11012 -1.46567e-09 0)
(0.11012 -6.74835e-10 0)
(0.11012 -5.24594e-10 0)
(0.11012 -4.70505e-10 0)
(0.11012 7.13724e-11 0)
(0.11012 1.21679e-09 0)
(0.11012 1.96477e-09 0)
(0.11012 2.39956e-09 0)
(0.11012 3.52484e-09 0)
(0.11012 5.20727e-09 0)
(0.11012 7.02175e-09 0)
(0.11012 8.29747e-09 0)
(0.11012 8.32818e-09 0)
(0.11012 7.74315e-09 0)
(0.11012 7.54145e-09 0)
(0.11012 8.21411e-09 0)
(0.11012 9.74532e-09 0)
(0.11012 1.07596e-08 0)
(0.11012 9.63104e-09 0)
(0.11012 7.11035e-09 0)
(0.11012 5.36204e-09 0)
(0.11012 4.90242e-09 0)
(0.11012 4.44974e-09 0)
(0.11012 2.96372e-09 0)
(0.11012 7.46748e-10 0)
(0.11012 -1.18566e-09 0)
(0.11012 -2.6068e-09 0)
(0.11012 -3.83506e-09 0)
(0.11012 -4.59356e-09 0)
(0.11012 -4.86707e-09 0)
(0.11012 -5.53574e-09 0)
(0.11012 -7.04192e-09 0)
(0.11012 -8.44263e-09 0)
(0.11012 -8.77754e-09 0)
(0.11012 -8.83124e-09 0)
(0.11012 -9.99111e-09 0)
(0.11012 -1.20605e-08 0)
(0.11012 -1.3901e-08 0)
(0.11012 -1.48967e-08 0)
(0.11012 -1.4972e-08 0)
(0.11012 -1.4374e-08 0)
(0.11012 -1.31495e-08 0)
(0.11012 -1.09512e-08 0)
(0.11012 -7.8934e-09 0)
(0.11012 -4.55452e-09 0)
(0.11012 -1.47139e-09 0)
(0.11012 5.09415e-10 0)
(0.11012 7.74159e-10 0)
(0.11012 5.48193e-11 0)
(0.11012 -2.86111e-10 0)
(0.11012 -3.35561e-10 0)
(0.11012 -1.53043e-09 0)
(0.11012 -4.48165e-09 0)
(0.11012 -7.62939e-09 0)
(0.11012 -8.51402e-09 0)
(0.11012 -6.38707e-09 0)
(0.11012 -2.95194e-09 0)
(0.11012 -2.52503e-10 0)
(0.11012 1.11636e-09 0)
(0.11012 1.27165e-09 0)
(0.11012 3.16231e-10 0)
(0.11012 -1.25421e-09 0)
(0.11012 -2.65138e-09 0)
(0.11012 -3.59235e-09 0)
(0.11012 -4.07322e-09 0)
(0.11012 -3.6787e-09 0)
(0.11012 -1.80759e-09 0)
(0.11012 1.09119e-09 0)
(0.11012 3.21831e-09 0)
(0.11012 3.27092e-09 0)
(0.11012 2.14626e-09 0)
(0.11012 1.96311e-09 0)
(0.11012 3.92007e-09 0)
(0.11012 7.49508e-09 0)
(0.11012 1.09869e-08 0)
(0.11012 1.25987e-08 0)
(0.11012 1.18137e-08 0)
(0.11012 9.82431e-09 0)
(0.11012 8.09821e-09 0)
(0.11012 6.63886e-09 0)
(0.11012 4.49772e-09 0)
(0.11012 1.50512e-09 0)
(0.11012 -1.38276e-09 0)
(0.11012 -3.29418e-09 0)
(0.11012 -4.54553e-09 0)
(0.11012 -6.24775e-09 0)
(0.11012 -8.80741e-09 0)
(0.11012 -1.16986e-08 0)
(0.11012 -1.41135e-08 0)
(0.11012 -1.51911e-08 0)
(0.11012 -1.48276e-08 0)
(0.11012 -1.42982e-08 0)
(0.11012 -1.48932e-08 0)
(0.11012 -1.65788e-08 0)
(0.11012 -1.84204e-08 0)
(0.11012 -1.97303e-08 0)
(0.11012 -2.06573e-08 0)
(0.11012 -2.15266e-08 0)
(0.11012 -2.19484e-08 0)
(0.11012 -2.10409e-08 0)
(0.11012 -1.85707e-08 0)
(0.11012 -1.56223e-08 0)
(0.11012 -1.34656e-08 0)
(0.11012 -1.22198e-08 0)
(0.11012 -1.13703e-08 0)
(0.11012 -1.05461e-08 0)
(0.11012 -9.63132e-09 0)
(0.11012 -9.01087e-09 0)
(0.11012 -9.02426e-09 0)
(0.11012 -9.14525e-09 0)
(0.11012 -8.8339e-09 0)
(0.11012 -7.99361e-09 0)
(0.11012 -6.36262e-09 0)
(0.11012 -3.97771e-09 0)
(0.11012 -1.29859e-09 0)
(0.11012 1.65281e-09 0)
(0.11012 5.27746e-09 0)
(0.11012 1.00897e-08 0)
(0.11012 1.58099e-08 0)
(0.11012 2.05782e-08 0)
(0.11012 2.24835e-08 0)
(0.11012 2.15363e-08 0)
(0.11012 1.95956e-08 0)
(0.11012 1.78522e-08 0)
(0.11012 1.50758e-08 0)
(0.11012 1.04257e-08 0)
(0.11012 5.41649e-09 0)
(0.11012 1.35428e-09 0)
(0.11012 -1.58926e-09 0)
(0.11012 -3.28008e-09 0)
(0.11012 -4.3118e-09 0)
(0.11012 -5.2559e-09 0)
(0.11012 -5.1738e-09 0)
(0.11012 -4.09719e-09 0)
(0.11012 -3.55419e-09 0)
(0.11012 -3.25823e-09 0)
(0.11012 -2.65255e-09 0)
(0.11012 -3.00565e-09 0)
(0.11012 -4.24982e-09 0)
(0.11012 -4.38889e-09 0)
(0.11012 -3.03186e-09 0)
(0.11012 -1.72414e-09 0)
(0.11012 -1.36309e-09 0)
(0.11012 -1.59803e-09 0)
(0.11012 -1.67009e-09 0)
(0.11012 -9.6228e-10 0)
(0.11012 -4.52071e-10 0)
(0.11012 -9.04821e-10 0)
(0.11012 -7.70555e-10 0)
(0.11012 1.49317e-10 0)
(0.11012 8.39752e-10 0)
(0.11012 4.19081e-09 0)
(0.11012 1.21364e-08 0)
(0.11012 2.25621e-08 0)
(0.110119 3.40414e-08 0)
(0.110119 4.54941e-08 0)
(0.110119 5.73958e-08 0)
(0.110119 7.01869e-08 0)
(0.110119 8.18817e-08 0)
(0.110119 9.33242e-08 0)
(0.110119 8.91225e-08 0)
(0.132871 -5.0448e-08 0)
(0.132871 -5.44719e-08 0)
(0.132871 -5.7232e-08 0)
(0.132871 -5.84518e-08 0)
(0.132871 -4.94658e-08 0)
(0.132871 -3.66949e-08 0)
(0.132871 -2.19935e-08 0)
(0.132871 -1.42759e-08 0)
(0.132871 -1.19535e-08 0)
(0.132871 -1.42112e-09 0)
(0.132871 1.9976e-09 0)
(0.132871 6.75113e-09 0)
(0.132871 4.06199e-09 0)
(0.132871 1.48741e-09 0)
(0.132871 -2.14424e-09 0)
(0.132871 -2.83575e-09 0)
(0.132871 -2.20341e-09 0)
(0.132871 -6.06668e-09 0)
(0.132871 -1.11345e-08 0)
(0.132871 -1.62523e-08 0)
(0.132871 -1.91007e-08 0)
(0.132871 -1.58373e-08 0)
(0.132871 -1.11058e-08 0)
(0.132871 -9.59142e-09 0)
(0.132871 -8.97585e-09 0)
(0.132871 -9.50003e-09 0)
(0.132871 -1.29072e-08 0)
(0.132871 -1.66218e-08 0)
(0.132871 -1.87207e-08 0)
(0.132871 -1.80791e-08 0)
(0.132871 -1.41617e-08 0)
(0.132871 -1.00534e-08 0)
(0.132871 -7.63502e-09 0)
(0.132871 -5.43664e-09 0)
(0.132871 -4.01559e-09 0)
(0.132871 -5.05784e-09 0)
(0.132871 -6.53728e-09 0)
(0.132871 -6.713e-09 0)
(0.132871 -6.00403e-09 0)
(0.132871 -4.13694e-09 0)
(0.132871 -2.06801e-09 0)
(0.132871 -1.29766e-09 0)
(0.132871 -1.62172e-09 0)
(0.132871 -1.97448e-09 0)
(0.132871 -1.41974e-09 0)
(0.132871 -4.34214e-10 0)
(0.132871 5.43454e-10 0)
(0.132871 2.15675e-09 0)
(0.132871 3.94286e-09 0)
(0.132871 5.07178e-09 0)
(0.132871 5.61157e-09 0)
(0.132871 5.84348e-09 0)
(0.132871 6.22532e-09 0)
(0.132871 6.62347e-09 0)
(0.132871 6.39705e-09 0)
(0.132871 6.16856e-09 0)
(0.132871 6.97953e-09 0)
(0.132871 7.95518e-09 0)
(0.132871 7.6753e-09 0)
(0.132871 6.42766e-09 0)
(0.132871 5.00344e-09 0)
(0.132871 3.40103e-09 0)
(0.132871 1.3775e-09 0)
(0.132871 -5.54572e-10 0)
(0.132871 -1.29423e-09 0)
(0.132871 -7.75056e-10 0)
(0.132871 -4.21647e-10 0)
(0.132871 -9.55766e-10 0)
(0.132871 -1.86326e-09 0)
(0.132871 -3.0791e-09 0)
(0.132871 -5.20358e-09 0)
(0.132871 -7.83314e-09 0)
(0.132871 -9.14312e-09 0)
(0.132871 -8.24868e-09 0)
(0.132871 -6.77418e-09 0)
(0.132871 -6.74423e-09 0)
(0.132871 -8.56611e-09 0)
(0.132871 -1.1257e-08 0)
(0.132871 -1.3143e-08 0)
(0.132871 -1.30378e-08 0)
(0.132871 -1.09943e-08 0)
(0.132871 -7.61995e-09 0)
(0.132871 -3.94193e-09 0)
(0.132871 -1.04843e-09 0)
(0.132871 8.37835e-10 0)
(0.132871 1.87937e-09 0)
(0.132871 1.67475e-09 0)
(0.132871 -6.51943e-11 0)
(0.132871 -2.33103e-09 0)
(0.132871 -3.58509e-09 0)
(0.132871 -3.48175e-09 0)
(0.132871 -3.15851e-09 0)
(0.132871 -3.74133e-09 0)
(0.132871 -4.95836e-09 0)
(0.132871 -5.59513e-09 0)
(0.132871 -5.17909e-09 0)
(0.132871 -4.28791e-09 0)
(0.132871 -3.41248e-09 0)
(0.132871 -2.85395e-09 0)
(0.132871 -3.15586e-09 0)
(0.132871 -4.43019e-09 0)
(0.132871 -5.90735e-09 0)
(0.132871 -6.8198e-09 0)
(0.132871 -7.21984e-09 0)
(0.132871 -7.51705e-09 0)
(0.132871 -7.4073e-09 0)
(0.132871 -6.09776e-09 0)
(0.132871 -3.70866e-09 0)
(0.132871 -1.46975e-09 0)
(0.132871 -9.96267e-11 0)
(0.132871 1.02789e-09 0)
(0.132871 2.8931e-09 0)
(0.132871 5.68723e-09 0)
(0.132871 8.74447e-09 0)
(0.132871 1.08765e-08 0)
(0.132871 1.10582e-08 0)
(0.132871 9.37867e-09 0)
(0.132871 7.05228e-09 0)
(0.132871 5.01499e-09 0)
(0.132871 2.99686e-09 0)
(0.132871 2.87948e-10 0)
(0.132871 -3.06209e-09 0)
(0.132871 -6.06028e-09 0)
(0.132871 -7.75903e-09 0)
(0.132871 -8.30979e-09 0)
(0.132871 -8.53502e-09 0)
(0.132871 -9.00452e-09 0)
(0.132871 -9.96573e-09 0)
(0.132871 -1.10719e-08 0)
(0.132871 -1.16234e-08 0)
(0.132871 -1.17697e-08 0)
(0.132871 -1.24937e-08 0)
(0.132871 -1.42561e-08 0)
(0.132871 -1.63874e-08 0)
(0.132871 -1.76508e-08 0)
(0.132871 -1.75962e-08 0)
(0.132871 -1.70297e-08 0)
(0.132871 -1.70977e-08 0)
(0.132871 -1.81103e-08 0)
(0.132871 -1.93053e-08 0)
(0.132871 -1.98113e-08 0)
(0.132871 -1.93129e-08 0)
(0.132871 -1.77308e-08 0)
(0.132871 -1.54713e-08 0)
(0.132871 -1.35151e-08 0)
(0.132871 -1.23996e-08 0)
(0.132871 -1.18889e-08 0)
(0.132871 -1.14777e-08 0)
(0.132871 -1.03497e-08 0)
(0.132871 -8.16115e-09 0)
(0.132871 -5.61451e-09 0)
(0.132871 -3.18211e-09 0)
(0.132871 -5.73359e-10 0)
(0.132871 2.444e-09 0)
(0.132871 5.81597e-09 0)
(0.132871 9.0662e-09 0)
(0.132871 1.1859e-08 0)
(0.132871 1.43193e-08 0)
(0.132871 1.63516e-08 0)
(0.132871 1.74875e-08 0)
(0.132871 1.72122e-08 0)
(0.132871 1.57692e-08 0)
(0.132871 1.41961e-08 0)
(0.132871 1.21141e-08 0)
(0.132871 8.38045e-09 0)
(0.132871 4.15954e-09 0)
(0.132871 1.22016e-09 0)
(0.132871 -5.81982e-10 0)
(0.132871 -1.75938e-09 0)
(0.132871 -2.367e-09 0)
(0.132871 -2.44681e-09 0)
(0.132871 -1.36066e-09 0)
(0.132871 5.63103e-10 0)
(0.132871 1.19344e-09 0)
(0.132871 1.62399e-10 0)
(0.132871 -5.79953e-10 0)
(0.132871 -5.30738e-10 0)
(0.132871 -9.48308e-10 0)
(0.132871 -1.75578e-09 0)
(0.132871 -1.40004e-09 0)
(0.132871 2.23753e-10 0)
(0.132871 1.93003e-09 0)
(0.132871 3.13382e-09 0)
(0.132871 3.66009e-09 0)
(0.132871 4.22779e-09 0)
(0.132871 5.23635e-09 0)
(0.132871 5.83448e-09 0)
(0.132871 6.52368e-09 0)
(0.132871 8.55116e-09 0)
(0.132871 1.20966e-08 0)
(0.132871 1.77069e-08 0)
(0.132871 2.56968e-08 0)
(0.132871 3.59838e-08 0)
(0.132871 4.7786e-08 0)
(0.132871 6.19333e-08 0)
(0.132871 7.40066e-08 0)
(0.132871 8.72091e-08 0)
(0.132871 9.86997e-08 0)
(0.132871 1.06859e-07 0)
(0.132871 1.04854e-07 0)
(0.151823 -4.43757e-08 0)
(0.151823 -4.97248e-08 0)
(0.151822 -5.08802e-08 0)
(0.151822 -4.56933e-08 0)
(0.151822 -3.80479e-08 0)
(0.151822 -3.02713e-08 0)
(0.151822 -2.22994e-08 0)
(0.151822 -1.0678e-08 0)
(0.151822 -4.92598e-09 0)
(0.151822 2.89989e-09 0)
(0.151822 4.55355e-09 0)
(0.151822 7.03174e-09 0)
(0.151822 7.56952e-09 0)
(0.151822 8.21414e-09 0)
(0.151822 7.60319e-09 0)
(0.151822 4.27377e-09 0)
(0.151822 2.76359e-09 0)
(0.151822 -5.81675e-10 0)
(0.151822 -6.20212e-09 0)
(0.151822 -9.68224e-09 0)
(0.151822 -1.14213e-08 0)
(0.151822 -1.13243e-08 0)
(0.151822 -1.04026e-08 0)
(0.151822 -1.17317e-08 0)
(0.151822 -1.44564e-08 0)
(0.151822 -1.64398e-08 0)
(0.151822 -1.80774e-08 0)
(0.151822 -1.89446e-08 0)
(0.151822 -1.88207e-08 0)
(0.151822 -1.77317e-08 0)
(0.151822 -1.42618e-08 0)
(0.151822 -9.63448e-09 0)
(0.151822 -7.62671e-09 0)
(0.151822 -8.60369e-09 0)
(0.151822 -9.9967e-09 0)
(0.151822 -1.10965e-08 0)
(0.151822 -1.12577e-08 0)
(0.151822 -1.0055e-08 0)
(0.151822 -9.38346e-09 0)
(0.151822 -9.35019e-09 0)
(0.151822 -8.59347e-09 0)
(0.151822 -7.05133e-09 0)
(0.151822 -5.22208e-09 0)
(0.151822 -3.57149e-09 0)
(0.151822 -1.85924e-09 0)
(0.151822 -5.00167e-11 0)
(0.151822 1.29857e-09 0)
(0.151822 2.27716e-09 0)
(0.151822 2.5241e-09 0)
(0.151822 1.54375e-09 0)
(0.151822 1.83e-10 0)
(0.151822 -3.65818e-10 0)
(0.151822 5.61123e-10 0)
(0.151822 2.62761e-09 0)
(0.151822 4.26582e-09 0)
(0.151822 4.74008e-09 0)
(0.151822 5.29769e-09 0)
(0.151822 6.37218e-09 0)
(0.151822 6.43993e-09 0)
(0.151822 4.72365e-09 0)
(0.151822 2.13595e-09 0)
(0.151822 -1.84618e-10 0)
(0.151822 -1.72634e-09 0)
(0.151822 -2.33932e-09 0)
(0.151822 -1.57454e-09 0)
(0.151822 5.76738e-10 0)
(0.151822 2.39295e-09 0)
(0.151822 2.13756e-09 0)
(0.151822 3.47964e-10 0)
(0.151822 -1.2578e-09 0)
(0.151822 -2.15997e-09 0)
(0.151822 -3.11188e-09 0)
(0.151822 -4.1191e-09 0)
(0.151822 -4.20255e-09 0)
(0.151822 -3.5716e-09 0)
(0.151822 -3.68629e-09 0)
(0.151822 -5.30914e-09 0)
(0.151822 -7.87189e-09 0)
(0.151822 -1.00104e-08 0)
(0.151822 -1.05339e-08 0)
(0.151822 -9.34263e-09 0)
(0.151822 -6.94692e-09 0)
(0.151822 -4.02664e-09 0)
(0.151822 -1.59149e-09 0)
(0.151822 -1.47621e-10 0)
(0.151822 8.03488e-10 0)
(0.151822 1.52075e-09 0)
(0.151822 1.38837e-09 0)
(0.151822 -2.69897e-11 0)
(0.151822 -2.01147e-09 0)
(0.151822 -3.33479e-09 0)
(0.151822 -3.70131e-09 0)
(0.151822 -3.93898e-09 0)
(0.151822 -4.77987e-09 0)
(0.151822 -5.89067e-09 0)
(0.151822 -6.53657e-09 0)
(0.151822 -6.65321e-09 0)
(0.151822 -6.49855e-09 0)
(0.151822 -6.22293e-09 0)
(0.151822 -6.34052e-09 0)
(0.151822 -7.47402e-09 0)
(0.151822 -9.46369e-09 0)
(0.151822 -1.1203e-08 0)
(0.151822 -1.17804e-08 0)
(0.151822 -1.13779e-08 0)
(0.151822 -1.07577e-08 0)
(0.151822 -9.99998e-09 0)
(0.151822 -8.51889e-09 0)
(0.151822 -6.16035e-09 0)
(0.151822 -3.39731e-09 0)
(0.151822 -6.89933e-10 0)
(0.151822 1.74008e-09 0)
(0.151822 3.77917e-09 0)
(0.151822 5.56516e-09 0)
(0.151822 7.24991e-09 0)
(0.151822 8.30225e-09 0)
(0.151822 7.76542e-09 0)
(0.151822 5.44922e-09 0)
(0.151822 2.28178e-09 0)
(0.151822 -6.11763e-10 0)
(0.151822 -2.79779e-09 0)
(0.151822 -4.57929e-09 0)
(0.151822 -6.19198e-09 0)
(0.151822 -7.29562e-09 0)
(0.151822 -7.6908e-09 0)
(0.151822 -7.80555e-09 0)
(0.151822 -8.08253e-09 0)
(0.151822 -8.78728e-09 0)
(0.151822 -9.88003e-09 0)
(0.151822 -1.07701e-08 0)