/*--------------------------------*- C++ -*----------------------------------*\
| =========                 |                                                 |
| \\      /  F ield         | OpenFOAM: The Open Source CFD Toolbox           |
|  \\    /   O peration     | Version:  2406                                  |
|   \\  /    A nd           | Website:  www.openfoam.com                      |
|    \\/     M anipulation  |                                                 |
\*---------------------------------------------------------------------------*/
FoamFile
{
    version     2.0;
    format      ascii;
    arch        "LSB;label=32;scalar=64";
    class       surfaceScalarField;
    location    "0.15";
    object      alphaPhi0.air;
}
// * * * * * * * * * * * * * * * * * * * * * * * * * * * * * * * * * * * * * //

dimensions      [0 3 -1 0 0 0 0];

oriented        oriented;

internalField   nonuniform List<scalar> 
12225
(
0.203892
2.72821e-06
0.203884
8.48007e-06
0.203873
1.03995e-05
0.203867
6.42743e-06
0.203863
3.94477e-06
0.203858
5.46333e-06
0.203853
4.73237e-06
0.203849
4.27579e-06
0.203843
5.14896e-06
0.203839
4.89679e-06
0.203834
4.22409e-06
0.203831
3.29398e-06
0.203828
2.87677e-06
0.203824
3.77225e-06
0.203819
5.03479e-06
0.203815
4.63904e-06
0.203812
2.8966e-06
0.203811
1.24577e-06
0.203811
-8.90266e-08
0.203812
-1.7392e-06
0.203816
-3.46932e-06
0.203819
-3.51685e-06
0.203822
-2.28177e-06
0.203823
-1.36705e-06
0.203824
-8.71796e-07
0.203824
-3.4533e-08
0.203824
2.63963e-07
0.203824
-3.47075e-07
0.203825
-1.18779e-06
0.203828
-2.43265e-06
0.203831
-3.46425e-06
0.203835
-3.52894e-06
0.203837
-1.99053e-06
0.203836
2.46228e-07
0.203835
1.78721e-06
0.203832
2.65117e-06
0.203829
3.02863e-06
0.203827
2.00991e-06
0.203827
1.14094e-07
0.203828
-1.43957e-06
0.203831
-2.26523e-06
0.203834
-3.03459e-06
0.203837
-3.37753e-06
0.20384
-2.83025e-06
0.203841
-1.53396e-06
0.203841
1.00807e-07
0.20384
1.19234e-06
0.203839
1.18668e-06
0.203838
4.45403e-07
0.203839
-3.18134e-07
0.203839
-6.63292e-07
0.20384
-7.98461e-07
0.203841
-7.29543e-07
0.203841
-1.95322e-07
0.20384
9.30126e-07
0.203839
1.45638e-06
0.203838
1.0629e-06
0.203837
4.35488e-07
0.203837
-6.91458e-08
0.203838
-4.27587e-07
0.203838
-7.54521e-07
0.203839
-7.83313e-07
0.20384
-5.38381e-07
0.20384
-3.49118e-07
0.203841
-5.2676e-07
0.203841
-7.80622e-07
0.203842
-6.42556e-07
0.203842
-4.06798e-08
0.203842
3.07201e-07
0.203841
3.7067e-07
0.203841
3.68659e-07
0.20384
6.20702e-07
0.20384
9.22735e-07
0.203839
7.90959e-07
0.203839
1.03266e-07
0.203839
-6.79098e-07
0.20384
-9.62412e-07
0.203841
-5.87765e-07
0.203841
-1.03034e-07
0.203841
3.67461e-08
0.203841
-2.58912e-07
0.203842
-5.8293e-07
0.203842
-5.81925e-07
0.203843
-4.04311e-07
0.203843
-4.13196e-07
0.203844
-5.83589e-07
0.203844
-6.08134e-07
0.203845
-2.80078e-07
0.203845
1.20907e-07
0.203844
1.6394e-07
0.203844
-1.20042e-07
0.203845
-3.68238e-07
0.203845
-3.90904e-07
0.203845
-2.12868e-07
0.203846
-9.22127e-08
0.203846
-1.11876e-07
0.203846
-2.28337e-07
0.203846
-2.10128e-07
0.203846
-8.55447e-08
0.203846
4.02059e-08
0.203846
-5.21617e-09
0.203846
-1.86125e-07
0.203847
-2.92558e-07
0.203847
-2.41758e-07
0.203847
-3.91091e-08
0.203847
5.52545e-08
0.203847
-3.17879e-08
0.203847
-9.92498e-08
0.203847
-3.74611e-08
0.203847
2.11503e-07
0.203846
4.53218e-07
0.203846
4.94585e-07
0.203846
3.66423e-07
0.203845
2.6474e-07
0.203845
3.33137e-07
0.203844
5.15765e-07
0.203844
5.21845e-07
0.203844
3.15809e-07
0.203843
2.25598e-07
0.203843
4.73612e-07
0.203842
8.77126e-07
0.203841
1.0258e-06
0.20384
7.99296e-07
0.20384
1.54473e-07
0.20384
-1.77812e-07
0.20384
2.94212e-07
0.203839
1.14432e-06
0.203837
1.59723e-06
0.203836
1.27433e-06
0.203835
3.9603e-07
0.203836
-4.15976e-07
0.203836
-3.69452e-07
0.203836
3.23423e-07
0.203835
8.35506e-07
0.203834
6.7032e-07
0.203834
4.91297e-08
0.203835
-4.72579e-07
0.203835
-2.88561e-07
0.203835
3.94036e-07
0.203834
8.79355e-07
0.203833
6.80728e-07
0.203833
2.75908e-08
0.203834
-5.90735e-07
0.203834
-6.6955e-07
0.203835
-2.42455e-07
0.203834
2.38147e-07
0.203834
5.7237e-07
0.203833
4.98202e-07
0.203833
1.16819e-07
0.203833
-1.63479e-07
0.203834
-3.60571e-07
0.203834
-4.67689e-07
0.203835
-5.40996e-07
0.203835
-4.90776e-07
0.203835
-2.19283e-07
0.203835
2.15851e-07
0.203835
5.18075e-07
0.203834
5.00871e-07
0.203834
1.16863e-07
0.203835
-5.9287e-07
0.203836
-1.33863e-06
0.203838
-1.76889e-06
0.203839
-1.59687e-06
0.20384
-8.47396e-07
0.20384
1.66693e-07
0.203839
7.55864e-07
0.203839
5.9307e-07
0.203839
8.65146e-08
0.203839
-5.28823e-07
0.20384
-8.57949e-07
0.203841
-9.6982e-07
0.203842
-9.71477e-07
0.203843
-8.70346e-07
0.203843
-5.50688e-07
0.203843
2.82449e-10
0.203843
5.38952e-07
0.203842
7.6979e-07
0.203842
5.38943e-07
0.203842
-1.21591e-07
0.203843
-9.73698e-07
0.203844
-1.51669e-06
0.203846
-1.3356e-06
0.203846
-5.16136e-07
0.203845
5.57596e-07
0.203844
1.10326e-06
0.203843
1.04669e-06
0.203843
7.03247e-07
0.203842
3.9323e-07
0.203842
2.03483e-07
0.203842
4.432e-08
0.203842
-1.51149e-07
0.203842
-2.10727e-07
0.203842
3.61605e-08
0.203842
6.23692e-07
0.20384
1.26412e-06
0.203839
1.60576e-06
0.203837
1.45569e-06
0.203836
9.24255e-07
0.203836
3.66334e-07
0.203836
-1.10611e-07
0.203837
-3.38724e-07
0.203837
-3.78589e-07
0.203837
-2.4312e-07
0.203837
8.50778e-08
0.203837
3.09593e-07
0.203836
4.42891e-07
0.203836
5.73145e-07
0.203835
6.53387e-07
0.203835
5.45594e-07
0.203834
2.22666e-07
0.203835
-2.63234e-07
0.203835
-7.88958e-07
0.203837
-1.15797e-06
0.203838
-1.25144e-06
0.203839
-1.11793e-06
0.20384
-8.89526e-07
0.20384
-6.15966e-07
0.203841
-2.94453e-07
0.203841
4.50501e-08
0.20384
3.21602e-07
0.20384
3.76298e-07
0.20384
1.0355e-07
0.20384
-4.53551e-07
0.203841
-1.06695e-06
0.203843
-1.45647e-06
0.203844
-1.48468e-06
0.203846
-1.22324e-06
0.203846
-8.56737e-07
0.203847
-5.2349e-07
0.203847
-2.38288e-07
0.203847
4.69765e-08
0.203847
3.08688e-07
0.203846
4.7519e-07
0.203846
4.67215e-07
0.203846
2.65816e-07
0.203846
-4.77212e-08
0.203846
-3.98434e-07
0.203847
-5.9312e-07
0.203847
-4.98776e-07
0.203847
-9.71541e-08
0.203847
2.92634e-07
0.203846
4.91308e-07
0.203846
5.25654e-07
0.203845
4.3969e-07
0.203845
2.96717e-07
0.203845
1.37451e-07
0.203845
-7.88844e-08
0.203845
-2.93446e-07
0.203846
-4.90139e-07
-1.0285e-06
0.203899
-8.34819e-07
0.203908
-7.42543e-07
0.203917
1.55183e-06
0.20392
3.63083e-06
0.203922
2.28603e-06
0.203924
3.0833e-06
0.203926
3.38472e-06
0.203926
3.62315e-06
0.203929
2.62261e-06
0.203933
5.07131e-07
0.203936
8.07468e-07
0.203938
1.28666e-06
0.20394
1.02191e-06
0.203943
7.98675e-07
0.203948
5.89681e-07
0.203951
9.44166e-07
0.203952
2.38481e-06
0.20395
2.90112e-06
0.203948
2.5188e-06
0.203943
2.92348e-06
0.203936
3.16787e-06
0.203931
2.13455e-06
0.203927
1.32481e-06
0.203925
1.28853e-06
0.203923
9.25702e-07
0.203922
9.37309e-07
0.203921
1.07068e-06
0.203919
1.16161e-06
0.203917
1.71651e-06
0.203912
2.40602e-06
0.203906
2.49374e-06
0.2039
1.90159e-06
0.203898
3.84644e-07
0.2039
-1.64663e-06
0.203905
-3.51361e-06
0.203913
-4.87881e-06
0.20392
-4.63861e-06
0.203925
-2.90782e-06
0.203927
-1.22284e-06
0.203925
1.31675e-07
0.203921
1.39683e-06
0.203916
2.32963e-06
0.20391
2.1317e-06
0.203907
9.96813e-07
0.203905
-2.63611e-07
0.203906
-7.22646e-07
0.203908
-5.61791e-07
0.203909
-2.78489e-07
0.20391
-8.27783e-08
0.20391
-1.69252e-08
0.203909
8.75232e-08
0.203908
3.68337e-07
0.203906
6.54243e-07
0.203905
6.36842e-07
0.203906
3.04242e-07
0.203908
-2.44101e-07
0.20391
-6.80126e-07
0.203911
-7.11168e-07
0.203911
-2.81971e-07
0.20391
4.19499e-07
0.203909
5.13983e-07
0.203908
5.02491e-08
0.203908
-4.97174e-07
0.203908
-6.8459e-07
0.203909
-8.01424e-07
0.203909
-1.07877e-06
0.203909
-1.18453e-06
0.20391
-8.12283e-07
0.203911
-2.80125e-07
0.203911
-2.10492e-07
0.203912
-5.81023e-07
0.203914
-8.23088e-07
0.203915
-5.09148e-07
0.203916
2.87465e-07
0.203915
9.78515e-07
0.203913
1.20907e-06
0.203911
8.82805e-07
0.20391
3.17342e-07
0.20391
-1.14627e-07
0.20391
-1.82357e-07
0.20391
-1.18316e-07
0.20391
-1.92098e-07
0.20391
-4.10403e-07
0.20391
-5.73933e-07
0.20391
-5.5321e-07
0.20391
-3.84681e-07
0.203909
-2.13678e-07
0.203909
-2.68898e-08
0.203909
1.80836e-08
0.20391
-1.55196e-07
0.20391
-4.96125e-07
0.20391
-7.08956e-07
0.203911
-6.72122e-07
0.203911
-5.03828e-07
0.203911
-4.08413e-07
0.203912
-6.08234e-07
0.203912
-9.22686e-07
0.203913
-1.03959e-06
0.203914
-7.99548e-07
0.203914
-3.89341e-07
0.203914
3.13834e-08
0.203914
1.89801e-07
0.203913
1.59365e-07
0.203913
1.08166e-07
0.203913
1.14529e-07
0.203913
1.151e-07
0.203913
-1.21514e-08
0.203913
-1.83682e-07
0.203913
-2.11175e-07
0.203913
1.0765e-07
0.203913
5.06497e-07
0.203913
6.69141e-07
0.203913
4.45291e-07
0.203913
-1.01517e-08
0.203914
-7.25128e-08
0.203913
6.1428e-07
0.203912
1.68681e-06
0.20391
2.30485e-06
0.203909
1.95437e-06
0.203908
1.01317e-06
0.203909
2.62322e-07
0.203909
4.79867e-07
0.203909
1.37638e-06
0.203907
2.04157e-06
0.203905
1.85243e-06
0.203904
1.19167e-06
0.203904
9.33519e-07
0.203904
1.57318e-06
0.203903
2.59843e-06
0.2039
3.09624e-06
0.203897
2.60264e-06
0.203895
1.57806e-06
0.203895
8.76228e-07
0.203894
9.16285e-07
0.203894
1.34734e-06
0.203892
1.47641e-06
0.203891
9.89514e-07
0.20389
3.39455e-07
0.203891
8.92358e-08
0.203891
4.34575e-07
0.203891
9.88854e-07
0.20389
1.17453e-06
0.203888
7.6609e-07
0.203887
5.94824e-08
0.203888
-5.07102e-07
0.203889
-6.91359e-07
0.20389
-6.15283e-07
0.203891
-6.08652e-07
0.203892
-8.04112e-07
0.203893
-1.05867e-06
0.203894
-1.12769e-06
0.203894
-8.48028e-07
0.203894
-4.35455e-07
0.203894
-2.02631e-07
0.203894
-3.19126e-07
0.203895
-6.9021e-07
0.203896
-1.12661e-06
0.203898
-1.5201e-06
0.2039
-1.82412e-06
0.203902
-2.06052e-06
0.203903
-2.29648e-06
0.203903
-2.56212e-06
0.203905
-2.7553e-06
0.203906
-2.68575e-06
0.203909
-2.19502e-06
0.203911
-1.40759e-06
0.203912
-7.45763e-07
0.203913
-5.62689e-07
0.203913
-9.34551e-07
0.203914
-1.48747e-06
0.203915
-1.84364e-06
0.203916
-1.83448e-06
0.203916
-1.58292e-06
0.203917
-1.34201e-06
0.203918
-1.18334e-06
0.20392
-9.88024e-07
0.203921
-6.58761e-07
0.203922
-2.61626e-07
0.203922
-2.66003e-08
0.203921
-1.49006e-07
0.20392
-6.03345e-07
0.20392
-1.00907e-06
0.20392
-9.40878e-07
0.203921
-2.26662e-07
0.203921
8.4056e-07
0.203921
1.72371e-06
0.203919
2.08302e-06
0.203918
1.96406e-06
0.203916
1.67407e-06
0.203915
1.47736e-06
0.203913
1.39337e-06
0.203912
1.31986e-06
0.203911
1.27439e-06
0.20391
1.44894e-06
0.203909
1.9862e-06
0.203908
2.81564e-06
0.203906
3.60558e-06
0.203903
3.96297e-06
0.203899
3.69311e-06
0.203896
2.86646e-06
0.203894
1.8018e-06
0.203893
8.04036e-07
0.203893
2.32963e-08
0.203893
-2.82219e-07
0.203894
-2.78048e-07
0.203894
-1.35678e-07
0.203895
8.63801e-08
0.203895
3.68712e-07
0.203895
5.49744e-07
0.203895
3.54233e-07
0.203895
-3.77626e-07
0.203896
-1.56259e-06
0.203897
-2.74329e-06
0.2039
-3.46616e-06
0.203902
-3.56215e-06
0.203904
-3.16782e-06
0.203906
-2.57757e-06
0.203908
-2.02205e-06
0.20391
-1.54907e-06
0.203911
-1.10811e-06
0.203912
-7.19017e-07
0.203913
-5.10463e-07
0.203913
-6.12809e-07
0.203913
-1.01986e-06
0.203913
-1.53014e-06
0.203913
-1.85943e-06
0.203914
-1.83199e-06
0.203915
-1.48935e-06
0.203915
-1.00663e-06
0.203915
-5.4487e-07
0.203915
-1.09419e-07
0.203915
3.15346e-07
0.203915
7.58641e-07
0.203915
1.11876e-06
0.203914
1.23642e-06
0.203912
1.0193e-06
0.203912
5.26574e-07
0.203911
-1.68828e-07
0.203911
-8.34042e-07
0.203913
-1.34917e-06
0.203915
-1.69061e-06
0.203917
-1.89887e-06
0.20392
-1.99043e-06
0.203922
-1.97768e-06
0.203924
-1.89518e-06
0.203926
-1.81212e-06
0.203928
-1.81106e-06
0.20393
-1.91446e-06
0.203931
-2.0963e-06
-2.5293e-06
0.203896
-1.42089e-06
0.203895
1.0827e-06
0.203895
1.16179e-06
0.203898
5.65221e-07
0.203901
-4.70303e-07
0.203902
1.54324e-06
0.203905
8.99945e-07
0.203908
4.48436e-07
0.203908
2.23306e-06
0.203906
3.41503e-06
0.203903
2.99499e-06
0.203903
1.88729e-06
0.203903
5.83351e-07
0.203904
-1.81349e-07
0.203905
-2.39443e-07
0.203906
-4.3294e-07
0.203909
-7.2708e-07
0.203913
-8.53018e-07
0.203917
-7.69296e-07
0.203919
9.21431e-08
0.203922
5.89102e-07
0.203924
2.16459e-07
0.203924
7.19578e-07
0.203924
1.29494e-06
0.203925
6.24102e-07
0.203926
8.05172e-08
0.203926
4.95079e-07
0.203927
7.81171e-07
0.203928
6.99153e-07
0.203929
1.32598e-06
0.203928
2.70763e-06
0.203927
3.53107e-06
0.203924
3.63533e-06
0.203918
3.69555e-06
0.203911
3.31279e-06
0.203904
2.07177e-06
0.203899
7.79527e-07
0.203896
9.54945e-08
0.203895
-3.26286e-07
0.203896
-7.37055e-07
0.203898
-1.05956e-06
0.203902
-1.0919e-06
0.203905
-6.31074e-07
0.203906
-1.06325e-07
0.203905
5.09915e-08
0.203905
-2.13003e-07
0.203905
-4.61394e-07
0.203905
-3.53697e-07
0.203905
-6.08614e-09
0.203905
2.4508e-07
0.203904
3.66737e-07
0.203904
6.06572e-07
0.203904
8.29032e-07
0.203904
7.12561e-07
0.203904
2.53263e-07
0.203904
-2.27199e-07
0.203904
-5.5382e-07
0.203904
-7.47502e-07
0.203904
-7.00096e-07
0.203905
-2.53313e-07
0.203905
1.85737e-07
0.203905
7.37194e-08
0.203905
-3.80702e-07
0.203905
-6.38243e-07
0.203905
-4.46602e-07
0.203904
-3.85218e-07
0.203904
-8.45864e-07
0.203904
-1.40312e-06
0.203905
-1.41162e-06
0.203906
-8.30492e-07
0.203906
-2.99167e-07
0.203905
-1.86488e-07
0.203905
-3.67046e-07
0.203905
-3.05076e-07
0.203906
1.284e-07
0.203907
7.67342e-07
0.203907
1.01702e-06
0.203906
6.20633e-07
0.203906
-7.78481e-08
0.203907
-5.01965e-07
0.203907
-4.6245e-07
0.203907
-3.05817e-07
0.203907
-3.89499e-07
0.203907
-6.21127e-07
0.203907
-6.7166e-07
0.203907
-4.40412e-07
0.203907
-1.72212e-07
0.203907
-1.1179e-07
0.203908
-2.91629e-07
0.203908
-5.5415e-07
0.203908
-7.79021e-07
0.203908
-9.04439e-07
0.203909
-9.44675e-07
0.203909
-9.31749e-07
0.20391
-9.01502e-07
0.20391
-9.06022e-07
0.20391
-9.254e-07
0.20391
-9.02586e-07
0.20391
-7.88329e-07
0.20391
-5.80495e-07
0.20391
-3.04684e-07
0.203911
-6.79738e-08
0.203911
7.08655e-08
0.203911
1.26827e-07
0.203911
1.5757e-07
0.203911
2.00544e-07
0.20391
2.04635e-07
0.20391
8.98929e-08
0.20391
-6.8489e-08
0.20391
-9.78454e-08
0.20391
1.77431e-07
0.20391
6.59605e-07
0.20391
1.06189e-06
0.203909
1.11761e-06
0.203908
9.3445e-07
0.203907
9.15073e-07
0.203908
1.40994e-06
0.203908
2.24692e-06
0.203907
2.81045e-06
0.203905
2.57477e-06
0.203904
1.66558e-06
0.203904
8.66784e-07
0.203904
9.42498e-07
0.203904
1.88438e-06
0.203903
2.92311e-06
0.203901
3.30957e-06
0.203899
3.01181e-06
0.203898
2.65988e-06
0.203898
2.80064e-06
0.203897
3.33599e-06
0.203896
3.63245e-06
0.203895
3.21875e-06
0.203893
2.26014e-06
0.203893
1.3792e-06
0.203893
1.07855e-06
0.203893
1.31845e-06
0.203893
1.62253e-06
0.203891
1.59578e-06
0.20389
1.24009e-06
0.20389
9.11726e-07
0.20389
8.55486e-07
0.20389
9.27452e-07
0.20389
7.96822e-07
0.20389
2.99944e-07
0.20389
-4.06171e-07
0.20389
-1.01907e-06
0.203891
-1.34676e-06
0.203892
-1.38892e-06
0.203892
-1.30895e-06
0.203892
-1.24504e-06
0.203892
-1.17735e-06
0.203892
-1.01045e-06
0.203893
-7.51343e-07
0.203893
-5.57378e-07
0.203893
-6.18472e-07
0.203894
-1.02743e-06
0.203894
-1.73964e-06
0.203895
-2.59654e-06
0.203897
-3.35949e-06
0.203899
-3.81857e-06
0.2039
-3.90351e-06
0.203901
-3.71382e-06
0.203902
-3.42668e-06
0.203903
-3.1446e-06
0.203903
-2.83225e-06
0.203904
-2.41439e-06
0.203905
-1.94244e-06
0.203907
-1.62529e-06
0.203907
-1.68618e-06
0.203908
-2.12028e-06
0.203909
-2.64907e-06
0.20391
-2.89598e-06
0.203911
-2.65701e-06
0.203912
-2.05776e-06
0.203912
-1.43426e-06
0.203912
-1.07086e-06
0.203912
-1.00837e-06
0.203913
-1.05998e-06
0.203914
-1.02119e-06
0.203915
-8.51428e-07
0.203915
-6.62664e-07
0.203914
-5.11347e-07
0.203914
-2.7545e-07
0.203913
2.52858e-07
0.203913
1.15914e-06
0.203912
2.18654e-06
0.203912
2.90713e-06
0.20391
3.03924e-06
0.20391
2.66996e-06
0.203909
2.18016e-06
0.203908
1.95474e-06
0.203907
2.14637e-06
0.203906
2.66673e-06
0.203904
3.34818e-06
0.203902
4.05664e-06
0.2039
4.70314e-06
0.203899
5.18447e-06
0.203897
5.33116e-06
0.203896
4.9559e-06
0.203895
3.99738e-06
0.203894
2.63624e-06
0.203894
1.23734e-06
0.203893
1.88506e-07
0.203893
-2.48217e-07
0.203893
-1.66312e-07
0.203893
2.02719e-07
0.203892
4.81791e-07
0.203892
5.1776e-07
0.203893
1.98213e-07
0.203894
-4.99885e-07
0.203895
-1.54128e-06
0.203896
-2.79457e-06
0.203897
-3.99326e-06
0.203899
-4.85444e-06
0.2039
-5.16011e-06
0.203902
-4.85525e-06
0.203903
-4.09572e-06
0.203905
-3.18358e-06
0.203905
-2.40983e-06
0.203906
-1.90864e-06
0.203907
-1.64981e-06
0.203908
-1.5392e-06
0.203909
-1.52821e-06
0.20391
-1.62882e-06
0.20391
-1.83474e-06
0.20391
-2.04663e-06
0.20391
-2.09143e-06
0.203911
-1.82967e-06
0.203911
-1.2567e-06
0.203911
-5.14913e-07
0.203911
2.07824e-07
0.20391
7.76578e-07
0.20391
1.16408e-06
0.20391
1.38739e-06
0.203909
1.43967e-06
0.203909
1.26876e-06
0.203909
8.26096e-07
0.203909
1.17218e-07
0.203908
-7.1892e-07
0.203909
-1.5177e-06
0.203909
-2.17031e-06
0.20391
-2.66008e-06
0.203911
-3.01436e-06
0.203912
-3.26414e-06
0.203914
-3.43116e-06
0.203915
-3.54807e-06
0.203917
-3.6705e-06
0.203919
-3.81792e-06
0.203921
-4.05046e-06
-4.26937e-06
0.203903
1.70793e-06
0.203902
2.00759e-06
0.203901
1.59955e-06
0.203898
3.85279e-06
0.203897
2.677e-07
0.203899
2.06058e-07
0.203897
2.04412e-06
0.203896
2.16147e-06
0.203895
3.07442e-06
0.203895
3.32693e-06
0.203896
2.32317e-06
0.203896
1.96186e-06
0.203894
2.13665e-06
0.203892
2.06413e-06
0.203889
2.44433e-06
0.203885
3.65742e-06
0.203879
5.23781e-06
0.203872
6.16636e-06
0.203867
4.73659e-06
0.203863
3.20681e-06
0.203861
3.29141e-06
0.203859
2.33236e-06
0.203859
5.84088e-07
0.20386
-4.57863e-07
0.203862
-7.47176e-07
0.203863
-1.15737e-06
0.203865
-1.43049e-06
0.203868
-2.04497e-06
0.203871
-2.89894e-06
0.203876
-3.41806e-06
0.203882
-3.37491e-06
0.203889
-2.75981e-06
0.203894
-2.0691e-06
0.203899
-1.16683e-06
0.203902
3.309e-07
0.203903
1.6048e-06
0.203902
1.44746e-06
0.203901
9.18136e-07
0.2039
7.72631e-07
0.203899
4.50524e-07
0.203898
-5.84664e-07
0.203899
-1.46336e-06
0.203899
-1.34958e-06
0.2039
-6.26903e-07
0.2039
7.53918e-08
0.203899
2.64152e-07
0.203899
1.16143e-07
0.203899
-2.18334e-07
0.203899
-4.76099e-07
0.2039
-6.08068e-07
0.203901
-7.16416e-07
0.203903
-7.9879e-07
0.203904
-7.93695e-07
0.203906
-6.98386e-07
0.203906
-5.16744e-07
0.203906
-2.46975e-07
0.203906
-4.47321e-10
0.203905
-5.26433e-08
0.203905
-5.56456e-07
0.203906
-1.0814e-06
0.203907
-1.27437e-06
0.203909
-1.30456e-06
0.20391
-1.2699e-06
0.20391
-9.73691e-07
0.20391
-2.34689e-07
0.203909
4.948e-07
0.203907
5.29741e-07
0.203906
-8.45951e-08
0.203905
-6.17996e-07
0.203905
-5.03098e-07
0.203905
2.92331e-08
0.203904
3.78892e-07
0.203903
2.1498e-07
0.203903
-2.10943e-07
0.203904
-5.24086e-07
0.203905
-4.657e-07
0.203906
-1.91887e-07
0.203907
-3.78302e-08
0.203907
-1.36629e-07
0.203907
-3.57903e-07
0.203907
-4.42442e-07
0.203907
-3.91243e-07
0.203907
-3.93534e-07
0.203907
-4.96739e-07
0.203907
-5.40056e-07
0.203907
-4.2761e-07
0.203907
-3.28934e-07
0.203907
-4.56989e-07
0.203908
-7.73623e-07
0.203908
-1.02156e-06
0.203909
-1.0372e-06
0.203909
-9.07337e-07
0.203908
-8.44031e-07
0.203908
-9.49864e-07
0.203909
-1.13191e-06
0.203909
-1.21401e-06
0.203909
-1.11029e-06
0.203909
-8.78326e-07
0.203909
-6.60563e-07
0.203909
-5.34763e-07
0.203909
-4.57574e-07
0.203909
-3.55484e-07
0.20391
-2.29992e-07
0.20391
-1.46353e-07
0.20391
-1.17094e-07
0.203911
-5.66344e-08
0.203911
1.30155e-07
0.20391
3.97446e-07
0.20391
5.71891e-07
0.203909
5.37653e-07
0.203909
4.00012e-07
0.203909
4.29478e-07
0.203909
8.2714e-07
0.203909
1.48104e-06
0.203908
2.04473e-06
0.203906
2.24196e-06
0.203906
2.15392e-06
0.203906
2.11801e-06
0.203906
2.3638e-06
0.203906
2.72833e-06
0.203905
2.81985e-06
0.203903
2.49057e-06
0.203902
2.1022e-06
0.203902
2.20366e-06
0.203902
2.96509e-06
0.203901
3.95724e-06
0.2039
4.52841e-06
0.203898
4.39979e-06
0.203897
3.86993e-06
0.203897
3.48208e-06
0.203897
3.45976e-06
0.203897
3.51826e-06
0.203896
3.24667e-06
0.203894
2.56776e-06
0.203894
1.86179e-06
0.203893
1.57816e-06
0.203893
1.78066e-06
0.203893
2.12206e-06
0.203892
2.16828e-06
0.203891
1.78845e-06
0.203891
1.20974e-06
0.203891
7.28249e-07
0.203891
4.08474e-07
0.203891
9.74268e-08
0.203891
-3.47266e-07
0.203891
-9.38771e-07
0.203891
-1.49593e-06
0.203892
-1.78134e-06
0.203892
-1.75214e-06
0.203892
-1.53799e-06
0.203893
-1.27971e-06
0.203893
-1.07785e-06
0.203893
-9.87699e-07
0.203893
-1.06212e-06
0.203894
-1.34926e-06
0.203895
-1.85652e-06
0.203896
-2.55469e-06
0.203897
-3.39324e-06
0.203897
-4.24874e-06
0.203899
-4.90681e-06
0.2039
-5.17228e-06
0.203901
-4.96504e-06
0.203902
-4.39407e-06
0.203903
-3.72329e-06
0.203903
-3.20736e-06
0.203903
-2.94388e-06
0.203904
-2.87713e-06
0.203906
-2.90994e-06
0.203907
-3.00846e-06
0.203908
-3.18687e-06
0.203909
-3.40919e-06
0.20391
-3.5297e-06
0.20391
-3.35392e-06
0.203911
-2.80076e-06
0.203912
-2.02169e-06
0.203912
-1.35019e-06
0.203912
-1.08176e-06
0.203912
-1.24928e-06
0.203913
-1.57651e-06
0.203913
-1.67764e-06
0.203914
-1.33199e-06
0.203914
-5.9433e-07
0.203914
3.23984e-07
0.203913
1.24038e-06
0.203912
2.10214e-06
0.203911
2.87809e-06
0.20391
3.45618e-06
0.20391
3.66784e-06
0.203909
3.45175e-06
0.203908
2.99491e-06
0.203907
2.68783e-06
0.203907
2.89414e-06
0.203906
3.70987e-06
0.203904
4.90423e-06
0.203902
6.066e-06
0.2039
6.8267e-06
0.203898
7.00426e-06
0.203897
6.60548e-06
0.203896
5.72347e-06
0.203896
4.47443e-06
0.203895
3.02125e-06
0.203895
1.60952e-06
0.203895
5.43208e-07
0.203894
5.81795e-08
0.203894
1.17919e-07
0.203894
5.41534e-07
0.203893
8.75515e-07
0.203893
7.62647e-07
0.203893
3.18412e-08
0.203894
-1.27067e-06
0.203895
-2.83649e-06
0.203897
-4.28573e-06
0.203898
-5.39072e-06
0.203899
-6.07068e-06
0.2039
-6.28704e-06
0.203902
-6.01815e-06
0.203903
-5.30355e-06
0.203904
-4.31567e-06
0.203905
-3.33506e-06
0.203906
-2.62266e-06
0.203906
-2.2902e-06
0.203907
-2.26419e-06
0.203908
-2.37417e-06
0.203909
-2.47851e-06
0.203909
-2.52281e-06
0.20391
-2.49691e-06
0.20391
-2.3579e-06
0.20391
-2.01779e-06
0.20391
-1.40734e-06
0.20391
-5.57832e-07
0.20391
3.72108e-07
0.20391
1.16538e-06
0.203909
1.66105e-06
0.203909
1.82018e-06
0.203909
1.69997e-06
0.203909
1.35788e-06
0.203909
8.1001e-07
0.203909
4.01444e-08
0.203909
-8.97854e-07
0.203909
-1.86903e-06
0.20391
-2.72619e-06
0.203911
-3.39357e-06
0.203911
-3.88968e-06
0.203912
-4.28362e-06
0.203914
-4.63377e-06
0.203915
-4.95558e-06
0.203917
-5.2501e-06
0.203918
-5.47908e-06
0.20392
-5.73946e-06
-5.85515e-06
0.203897
4.26977e-07
0.203898
8.29609e-07
0.203899
4.91165e-07
0.203901
1.45789e-06
0.2039
1.20565e-06
0.2039
7.95691e-07
0.203902
-3.53547e-07
0.203905
-1.19218e-06
0.20391
-1.51883e-06
0.203914
-5.38669e-07
0.203915
1.36258e-06
0.203914
2.33436e-06
0.203915
1.88541e-06
0.203916
9.39296e-07
0.203918
2.07636e-07
0.203922
-6.56816e-07
0.203929
-1.55449e-06
0.203936
-9.38486e-07
0.20394
6.1862e-07
0.203942
1.76691e-06
0.203943
2.62979e-06
0.203941
4.18594e-06
0.203937
4.69293e-06
0.203932
4.45443e-06
0.203927
3.84649e-06
0.203923
2.41072e-06
0.203921
1.39145e-06
0.203917
1.1304e-06
0.203914
4.10486e-07
0.203911
-5.26053e-07
0.203909
-1.13434e-06
0.203908
-1.47428e-06
0.203908
-1.8239e-06
0.203908
-2.09521e-06
0.20391
-1.73684e-06
0.203913
-9.6393e-07
0.203915
-4.24515e-07
0.203916
1.06055e-07
0.203916
8.60254e-07
0.203915
1.5555e-06
0.203912
1.79778e-06
0.203909
1.60122e-06
0.203907
1.16035e-06
0.203905
7.28097e-07
0.203905
5.18161e-07
0.203904
6.3073e-07
0.203904
6.83896e-07
0.203903
5.7489e-07
0.203902
3.77356e-07
0.203901
1.87142e-07
0.203901
-1.99708e-07
0.203901
-8.12101e-07
0.203901
-1.27561e-06
0.203902
-1.35683e-06
0.203903
-1.22801e-06
0.203904
-1.04426e-06
0.203904
-6.40061e-07
0.203904
5.16123e-08
0.203903
4.65086e-07
0.203902
3.52309e-07
0.2039
5.22571e-08
0.203899
-2.59112e-07
0.203898
-4.36303e-07
0.203898
-7.71525e-07
0.203899
-1.16312e-06
0.203901
-1.28245e-06
0.203903
-1.07418e-06
0.203903
-7.97761e-07
0.203903
-6.61806e-07
0.203903
-6.45826e-07
0.203904
-6.14285e-07
0.203905
-4.82063e-07
0.203905
-3.3823e-07
0.203906
-3.01474e-07
0.203906
-4.68275e-07
0.203906
-7.18683e-07
0.203906
-8.00263e-07
0.203907
-6.10473e-07
0.203907
-3.3519e-07
0.203907
-2.45838e-07
0.203907
-3.5784e-07
0.203907
-5.01867e-07
0.203907
-5.48373e-07
0.203907
-5.25232e-07
0.203907
-5.05055e-07
0.203907
-5.2368e-07
0.203908
-6.13964e-07
0.203908
-8.16603e-07
0.203908
-1.07607e-06
0.203908
-1.22875e-06
0.203909
-1.16132e-06
0.203909
-9.43196e-07
0.203909
-7.71718e-07
0.203908
-7.83951e-07
0.203908
-9.43983e-07
0.203908
-1.09964e-06
0.203908
-1.12748e-06
0.203908
-1.01727e-06
0.203908
-8.63321e-07
0.203909
-7.58297e-07
0.203909
-7.02148e-07
0.203909
-6.20114e-07
0.203909
-4.70475e-07
0.20391
-3.07497e-07
0.20391
-2.08077e-07
0.20391
-1.44762e-07
0.20391
1.32082e-08
0.20391
3.87946e-07
0.20391
8.81886e-07
0.203909
1.23483e-06
0.203908
1.24686e-06
0.203907
1.0167e-06
0.203907
9.1277e-07
0.203908
1.28183e-06
0.203908
2.09176e-06
0.203907
2.90507e-06
0.203906
3.22949e-06
0.203905
2.98084e-06
0.203905
2.56466e-06
0.203905
2.49974e-06
0.203905
2.9136e-06
0.203904
3.45961e-06
0.203902
3.72755e-06
0.203901
3.69436e-06
0.2039
3.6981e-06
0.2039
4.02867e-06
0.2039
4.58266e-06
0.203899
4.94498e-06
0.203898
4.8196e-06
0.203898
4.32299e-06
0.203897
3.8235e-06
0.203897
3.5756e-06
0.203897
3.50576e-06
0.203896
3.35718e-06
0.203895
3.00747e-06
0.203894
2.59749e-06
0.203893
2.35707e-06
0.203893
2.33512e-06
0.203893
2.36014e-06
0.203893
2.18192e-06
0.203892
1.69439e-06
0.203892
1.0212e-06
0.203892
3.93578e-07
0.203892
-1.00538e-07
0.203892
-4.89436e-07
0.203892
-9.22747e-07
0.203892
-1.41067e-06
0.203892
-1.82444e-06
0.203892
-2.00755e-06
0.203893
-1.89575e-06
0.203893
-1.59929e-06
0.203893
-1.3163e-06
0.203893
-1.21685e-06
0.203894
-1.4114e-06
0.203894
-1.94591e-06
0.203895
-2.74169e-06
0.203896
-3.62647e-06
0.203897
-4.46145e-06
0.203898
-5.15046e-06
0.203899
-5.62549e-06
0.2039
-5.82824e-06
0.2039
-5.6918e-06
0.203901
-5.2121e-06
0.203902
-4.52566e-06
0.203903
-3.89096e-06
0.203903
-3.56343e-06
0.203904
-3.63887e-06
0.203905
-3.98943e-06
0.203907
-4.35792e-06
0.203908
-4.52231e-06
0.203909
-4.40845e-06
0.203909
-4.07679e-06
0.20391
-3.62199e-06
0.20391
-3.09644e-06
0.203911
-2.53003e-06
0.203911
-2.00505e-06
0.203912
-1.66878e-06
0.203912
-1.62814e-06
0.203912
-1.80574e-06
0.203913
-1.91231e-06
0.203913
-1.60696e-06
0.203913
-7.25017e-07
0.203913
5.90182e-07
0.203912
1.97874e-06
0.203911
3.08861e-06
0.20391
3.75423e-06
0.20391
4.01279e-06
0.203909
3.99631e-06
0.203909
3.83922e-06
0.203908
3.67884e-06
0.203907
3.69796e-06
0.203906
4.10244e-06
0.203905
4.99865e-06
0.203903
6.26852e-06
0.203902
7.56555e-06
0.2039
8.45361e-06
0.203899
8.59027e-06
0.203897
7.88694e-06
0.203897
6.53282e-06
0.203896
4.86985e-06
0.203896
3.24245e-06
0.203896
1.90847e-06
0.203895
1.02158e-06
0.203895
6.19801e-07
0.203894
6.25383e-07
0.203894
8.67623e-07
0.203894
1.02257e-06
0.203894
7.1797e-07
0.203894
-2.63999e-07
0.203895
-1.93314e-06
0.203896
-3.8753e-06
0.203897
-5.59563e-06
0.203898
-6.78901e-06
0.2039
-7.3667e-06
0.203901
-7.39127e-06
0.203902
-6.98879e-06
0.203903
-6.27054e-06
0.203904
-5.34851e-06
0.203905
-4.374e-06
0.203906
-3.53832e-06
0.203906
-3.01037e-06
0.203907
-2.84501e-06
0.203908
-2.94377e-06
0.203908
-3.11045e-06
0.203909
-3.1605e-06
0.203909
-3.00181e-06
0.20391
-2.63216e-06
0.20391
-2.08104e-06
0.20391
-1.36693e-06
0.20391
-5.03218e-07
0.203909
4.4719e-07
0.203909
1.34068e-06
0.203909
1.98788e-06
0.203909
2.24415e-06
0.203908
2.084e-06
0.203908
1.59035e-06
0.203908
8.65259e-07
0.203908
-1.91597e-08
0.203908
-1.01656e-06
0.203908
-2.06786e-06
0.203909
-3.09061e-06
0.203909
-4.00457e-06
0.20391
-4.76663e-06
0.203911
-5.38689e-06
0.203912
-5.9062e-06
0.203914
-6.35451e-06
0.203915
-6.74819e-06
0.203917
-7.0322e-06
0.203919
-7.32915e-06
-7.30428e-06
0.203894
-7.25453e-07
0.203896
-1.1305e-06
0.203896
1.06557e-06
0.203894
3.62276e-06
0.203893
1.93509e-06
0.203893
7.60434e-07
0.203892
8.46112e-07
0.203889
1.67971e-06
0.203886
1.58273e-06
0.203884
1.02797e-06
0.203885
3.8979e-07
0.203887
4.81528e-07
0.203888
1.2184e-06
0.203886
2.11587e-06
0.203885
2.01402e-06
0.203882
1.8162e-06
0.203878
2.58049e-06
0.203874
3.43334e-06
0.203871
3.01473e-06
0.203872
1.43804e-06
0.203875
-3.79249e-07
0.20388
-9.17134e-07
0.203886
-1.74478e-06
0.203893
-2.37476e-06
0.203898
-1.58457e-06
0.203901
-6.2232e-07
0.203903
-3.56046e-07
0.203905
-2.3511e-07
0.203905
1.31492e-08
0.203905
-1.61234e-07
0.203904
-9.89617e-07
0.203904
-1.15064e-06
0.203903
-7.17366e-07
0.203902
-9.80035e-07
0.203902
-1.67922e-06
0.203902
-1.61022e-06
0.203903
-9.98814e-07
0.203904
-6.33865e-07
0.203905
-3.57424e-07
0.203906
2.85416e-07
0.203907
1.08007e-06
0.203907
1.44147e-06
0.203907
1.144e-06
0.203907
4.88607e-07
0.203908
-4.6409e-08
0.203909
-3.28354e-07
0.20391
-3.15918e-07
0.203911
-6.1727e-08
0.203911
2.1895e-07
0.203911
3.66949e-07
0.20391
2.43951e-07
0.203909
6.08132e-08
0.203908
-5.89202e-08
0.203907
-1.39012e-07
0.203906
-5.41026e-07
0.203906
-1.27281e-06
0.203908
-1.79635e-06
0.203909
-1.67107e-06
0.203911
-1.19869e-06
0.203912
-8.95001e-07
0.203913
-5.4584e-07
0.203912
1.70306e-07
0.203911
1.10733e-06
0.203908
1.54278e-06
0.203906
1.098e-06
0.203905
2.97311e-07
0.203904
-9.3307e-08
0.203903
-3.57089e-08
0.203902
-1.36394e-08
0.203902
-3.84479e-07
0.203902
-9.80465e-07
0.203903
-1.37429e-06
0.203904
-1.36387e-06
0.203905
-1.10377e-06
0.203905
-9.18625e-07
0.203906
-9.47108e-07
0.203906
-1.01184e-06
0.203906
-8.65633e-07
0.203906
-5.37364e-07
0.203906
-3.17855e-07
0.203906
-3.87794e-07
0.203907
-6.09404e-07
0.203907
-7.3343e-07
0.203907
-7.14995e-07
0.203907
-7.1047e-07
0.203907
-8.26528e-07
0.203908
-9.99175e-07
0.203908
-1.11196e-06
0.203908
-1.12992e-06
0.203908
-1.08526e-06
0.203908
-1.01038e-06
0.203908
-9.1883e-07
0.203908
-8.30625e-07
0.203908
-7.77797e-07
0.203908
-7.87983e-07
0.203908
-8.67764e-07
0.203907
-9.88621e-07
0.203907
-1.08977e-06
0.203908
-1.11924e-06
0.203908
-1.07583e-06
0.203908
-9.96878e-07
0.203909
-9.00917e-07
0.203909
-7.59992e-07
0.203909
-5.41228e-07
0.203909
-2.58706e-07
0.203909
3.54738e-08
0.203909
3.19344e-07
0.203908
6.32444e-07
0.203908
1.00998e-06
0.203908
1.40345e-06
0.203908
1.68217e-06
0.203907
1.74825e-06
0.203906
1.67423e-06
0.203906
1.70764e-06
0.203906
2.08532e-06
0.203906
2.77531e-06
0.203906