/*--------------------------------*- C++ -*----------------------------------*\
| =========                 |                                                 |
| \\      /  F ield         | OpenFOAM: The Open Source CFD Toolbox           |
|  \\    /   O peration     | Version:  2406                                  |
|   \\  /    A nd           | Website:  www.openfoam.com                      |
|    \\/     M anipulation  |                                                 |
\*---------------------------------------------------------------------------*/
FoamFile
{
    version     2.0;
    format      ascii;
    arch        "LSB;label=32;scalar=64";
    class       volScalarField;
    location    "0.15";
    object      alpha.glycerin;
}
// * * * * * * * * * * * * * * * * * * * * * * * * * * * * * * * * * * * * * //

dimensions      [0 0 0 0 0 0 0];

internalField   nonuniform List<scalar> 
6250
(
2.90274e-86
3.19704e-85
6.99821e-83
7.306e-81
5.62467e-79
3.64403e-77
2.14925e-75
1.15729e-73
5.54952e-72
2.33019e-70
8.51209e-69
2.69803e-67
7.41285e-66
1.76343e-64
3.62181e-63
6.44943e-62
1.01087e-60
1.39353e-59
1.60142e-58
1.64154e-57
2.77431e-56
6.98744e-55
3.77897e-53
1.37389e-45
5.35431e-43
0
-2.04306e-17
-7.74028e-16
-1.11147e-14
-4.13785e-14
0.265964
0.675527
0.835672
0.979347
0.993816
0.99383
0.993835
0.99384
0.993844
0.995542
0.996436
0.997183
0.99783
0.998232
0.998539
0.99882
0.999086
0.9993
0.999411
0.999455
0.999471
0.999584
0.999724
0.999763
0.999794
0.999813
0.999827
0.999839
0.99985
0.999862
0.999876
0.99989
0.999903
0.999915
0.999925
0.999934
0.999941
0.999947
0.999951
0.999954
0.999957
0.999958
0.999958
0.999958
0.999958
0.999959
0.999959
0.999959
0.999959
0.999959
0.999959
0.999959
0.999932
0.999897
0.999916
0.999978
0.999999
0.999999
1
1
1
1
1
1
0.999985
0.999957
0.99995
0.999951
0.999956
0.999992
1
1
1
0.999998
0.999965
0.999963
0.999962
0.999962
0.999962
0.999981
0.999996
0.999996
0.999999
1
1
0.999977
0.999943
0.999943
0.999948
0.999945
0.999937
0.999937
0.999937
0.999937
0.999951
0.999987
0.999964
0.999952
0.999952
0.999952
0.999952
0.999953
0.999969
0.999966
0.999964
0.999964
0.999982
0.999998
0.999991
0.999977
0.999977
0.999977
0.999976
0.999976
0.999976
0.999976
0.999976
0.999983
0.999998
0.999999
0.999998
0.999996
0.999996
0.999996
0.999997
0.999995
0.999983
0.99998
0.99998
0.99998
0.99998
0.99998
0.99998
0.999985
0.999997
1
1
1
1
1
1
1
1
1
1
1
1
1
1
1
0.999992
0.999983
0.999983
0.999988
0.999999
0.999995
0.999964
0.999962
0.999962
0.999962
0.999962
0.999962
0.999964
0.999964
0.999962
0.999962
0.999962
0.999967
0.999997
1
1
0.999986
0.999973
0.999973
0.999973
0.999973
0.999973
0.999985
1
1
1
1
1
1
1
1
1
1
1
1
1
1
1
0.999999
0.999999
0.999998
0.999981
0.999983
0.999995
0.999999
1
1
1
1
1
1
1.00001
1.00001
1.00001
1.00001
1.00001
1.00001
1.00001
1.00001
1.00001
1.00001
1.00001
1.00001
1.00001
1
6.89916e-87
4.84728e-86
1.01206e-83
7.1651e-82
4.48297e-80
2.70906e-78
1.47718e-76
7.05475e-75
2.99311e-73
1.13197e-71
3.77614e-70
1.10076e-68
2.80615e-67
6.2611e-66
1.22241e-64
2.09883e-63
3.20658e-62
4.39998e-61
5.15359e-60
5.36918e-59
8.80801e-58
2.17601e-56
1.19363e-54
3.54973e-47
4.28143e-44
-1.08219e-60
-1.75782e-18
-8.06241e-17
-1.65232e-15
2.95488e-09
5.01994e-10
4.50544e-10
3.66108e-10
0.0147301
0.0654858
0.15147
0.245045
0.369694
0.469818
0.535972
0.567563
0.578308
0.580945
0.58584
0.598852
0.621451
0.653309
0.694039
0.742438
0.798106
0.859156
0.881227
0.885268
0.891344
0.899969
0.908239
0.914332
0.920219
0.926617
0.933436
0.940626
0.94808
0.955222
0.961755
0.967779
0.973512
0.979011
0.984147
0.98871
0.992545
0.99559
0.997829
0.999266
0.999897
0.999958
0.999959
0.999959
0.999959
0.999959
0.999959
0.999959
0.999959
0.999943
0.999912
0.999945
0.999986
0.999998
0.999999
0.999999
1
1
1
1
1
0.999987
0.999957
0.999961
0.999977
0.999987
0.999994
1
1
1
1
1
1
1.00001
1.00001
1.00001
1.00001
1.00001
1.00001
1.00001
1.00001
1.00002
1.00002
1.00002
1.00003
1.00003
1.00003
1.00004
1.00004
1.00004
1.00004
1.00005
1.00005
1.00005
1.00005
1.00005
1.00005
1.00005
1.00005
1.00005
1.00004
1.00004
1.00004
1.00004
1.00004
1.00004
1.00004
1.00004
1.00004
1.00004
1.00004
1.00004
1.00004
1.00004
1.00004
1.00004
1.00004
1.00005
1.00005
1.00005
1.00005
1.00005
1.00005
1.00005
1.00005
1.00005
1.00005
1.00005
1.00005
1.00005
1.00005
1.00005
1.00005
1.00005
1.00005
1.00005
1.00005
1.00005
1.00005
1.00005
1.00005
1.00005
1.00005
1.00005
1.00005
1.00005
1.00005
1.00005
1.00005
1.00004
1.00004
1.00004
1.00004
1.00004
1.00004
1.00003
1.00003
1.00003
1.00003
1.00003
1.00003
1.00003
1.00002
1.00002
1.00002
1.00002
1.00002
1.00002
1.00002
1.00002
1.00002
1.00002
1.00002
1.00002
1.00002
1.00002
1.00002
1.00002
1.00002
1.00002
1.00002
1.00001
1.00001
1.00001
1.00001
1.00001
1.00001
1
1
1
0.999996
0.99995
0.999943
0.999943
0.999943
0.999943
0.999943
0.999943
0.999943
0.999943
0.999948
0.999994
1
0.999998
0.999998
0.999997
0.999997
0.999998
0.999998
1
1
1
1
1
1
1
1
2.75503e-88
1.61436e-87
3.95133e-85
3.12356e-83
1.11355e-80
2.3711e-79
9.89572e-79
2.30143e-77
7.31532e-76
7.17861e-75
-2.06821e-73
1.65968e-72
4.79656e-71
1.2046e-69
2.64041e-68
-4.73556e-66
8.15512e-66
1.27907e-64
1.74446e-63
2.13766e-62
-7.21986e-60
4.65907e-62
3.84171e-58
1.76443e-56
6.73299e-49
0
-2.36841e-19
-1.27372e-17
-3.29126e-16
5.18289e-10
1.18206e-09
1.18952e-09
2.81059e-10
2.46413e-10
2.00058e-06
1.5573e-06
2.57286e-07
1.20264e-07
1.19593e-07
1.19565e-07
1.19593e-07
0.000233337
0.000796596
0.000897252
0.000675867
0.000353009
0.000114289
4.46356e-06
2.32288e-07
2.34114e-07
0.00206832
0.0307012
0.089652
0.136645
0.141786
0.13729
0.129706
0.128952
0.134907
0.152076
0.17712
0.202931
0.224703
0.242858
0.260707
0.281486
0.30699
0.337241
0.371169
0.407782
0.446728
0.487871
0.530462
0.572451
0.610913
0.643306
0.669802
0.693331
0.717979
0.746495
0.773903
0.803473
0.833177
0.860539
0.88436
0.904884
0.923365
0.940875
0.957468
0.972235
0.984079
0.99261
0.997985
0.999766
0.999975
0.999947
0.999954
0.999968
0.999979
0.999987
0.999998
1
1
1
1
1
1
1
1
1
1
1
1
0.999997
0.999944
0.999929
0.999929
0.999928
0.999929
0.999929
0.999986
1
0.999971
0.999953
0.999953
0.999952
0.999952
0.999951
0.999951
0.999951
0.999951
0.999961
0.999997
1
1
0.999989
0.999968
0.999967
0.999967
0.999967
0.999967
0.999967
0.999967
0.999967
0.999992
1
1
1
0.999999
0.999942
0.999914
0.999913
0.999913
0.999913
0.999913
0.999913
0.999913
0.999913
0.999923
0.999989
0.99998
0.999948
0.999947
0.999947
0.999947
0.999947
0.999947
0.999947
0.999947
0.999947
0.999947
0.99996
0.999996
0.999995
0.999983
0.999982
0.999982
0.999982
0.999982
0.999984
0.999997
1
1
1
1
1
1
0.999998
0.999993
0.999993
0.999993
0.999993
0.999993
0.999993
0.999998
1
1
1
1
1
1
1
1
1
1
1
1
1
1
0.999997
0.999989
0.999989
0.999989
0.999989
0.999989
0.999997
1
1
1
1
0.99997
0.999945
0.999944
0.999943
0.999943
0.999943
0.999943
0.999943
0.999943
0.999953
0.999994
1
1
1
0.999976
0.999947
0.999946
0.999946
0.999946
0.999946
0.999946
0.999946
0.999946
0.999984
0.999999
0.999996
0.999995
0.999997
0.999998
0.999998
3.03252e-92
1.84376e-89
4.21611e-88
3.54e-86
1.16107e-82
-9.88917e-84
-9.99672e-83
-4.57855e-81
-2.30152e-79
-7.48514e-78
-1.33458e-76
-4.38881e-76
4.91194e-74
4.9813e-72
9.65254e-71
2.07581e-69
5.79154e-68
1.60748e-66
3.32794e-65
-4.54061e-64
-6.33804e-62
3.0945e-61
1.14542e-59
5.6717e-58
4.38063e-50
8.45839e-63
-3.37629e-20
-1.99475e-18
-5.84624e-17
4.8519e-12
2.13951e-10
5.53813e-10
2.32065e-11
-3.0142e-09
1.33963e-07
6.31837e-07
1.91191e-06
2.14296e-06
2.13552e-06
2.10661e-06
1.94484e-06
1.92649e-06
1.41657e-06
7.37657e-07
9.06772e-07
2.97895e-06
3.15071e-06
3.78186e-08
7.09036e-06
1.2336e-05
2.49785e-06
2.45581e-07
2.44585e-07
2.4473e-07
2.44717e-07
2.44864e-07
2.44954e-07
2.47333e-07
2.56349e-07
2.60142e-07
2.46827e-07
2.33517e-07
2.16709e-07
1.97706e-07
1.8708e-07
1.82121e-07
1.74433e-07
1.63004e-07
1.491e-07
1.3306e-07
1.15143e-07
9.53094e-08
7.54557e-08
5.13857e-08
3.03968e-08
2.18789e-08
1.89395e-08
1.80995e-08
1.81316e-08
0.000514221
0.00894763
0.0232015
0.0443858
0.0723932
0.102875
0.131247
0.158583
0.190779
0.234033
0.290304
0.355518
0.424421
0.495777
0.570908
0.649552
0.728425
0.799034
0.852842
0.89868
0.937066
0.965847
0.985799
0.996734
0.999477
0.999945
0.999962
0.999979
0.999988
0.999991
0.999995
0.999997
0.999999
0.999999
0.999994
0.999978
0.999978
0.99998
0.99998
0.999983
0.999991
0.999998
0.999999
0.999998
0.999996
0.999963
0.999954
0.999984
0.999997
0.999995
0.999996
0.999998
0.999999
1
1
1
1
1
1
1
1.00001
1.00001
1.00001
1.00001
1.00001
1.00001
1.00001
1.00001
1.00001
1.00002
1.00002
1.00002
1.00002
1.00002
1.00002
1.00002
1.00002
1.00001
1.00001
1.00001
1.00001
1.00001
1.00001
1.00001
1.00001
1.00001
1.00001
1.00001
1.00001
1.00001
1.00001
1.00001
1.00001
1.00001
1.00001
1.00001
1.00001
1.00001
1.00001
1.00001
1.00002
1.00002
1.00002
1.00002
1.00002
1.00002
1.00002
1.00002
1.00002
1.00002
1.00002
1.00003
1.00003
1.00003
1.00003
1.00003
1.00003
1.00003
1.00003
1.00003
1.00003
1.00003
1.00003
1.00003
1.00003
1.00003
1.00003
1.00003
1.00002
1.00002
1.00002
1.00002
1.00002
1.00002
1.00002
1.00002
1.00002
1.00002
1.00002
1.00002
1.00002
1.00002
1.00002
1.00002
1.00002
1.00002
1.00002
1.00002
1.00001
1.00001
1.00001
1.00001
1.00001
1.00001
1.00001
1
1
1
0.999971
0.999963
0.999989
0.999995
0.999996
0.999996
0.999996
0.999996
0.999998
0.999999
0.999999
0.999963
0.99996
-1.73302e-96
-9.30535e-94
-4.16683e-91
-3.46981e-89
-2.03594e-86
-2.84432e-85
-3.76419e-84
-5.2319e-82
-1.48114e-80
-3.49516e-79
-1.01226e-84
-7.91252e-76
-3.44744e-75
-6.18593e-74
-2.33437e-72
-2.50238e-70
-5.47317e-69
-1.01513e-67
-1.45326e-65
-4.49824e-71
-9.83229e-70
-1.66568e-68
-2.36744e-67
2.82816e-52
8.68593e-47
4.2292e-63
-4.43601e-21
-2.79123e-19
-9.07625e-18
-3.25033e-15
3.37657e-12
1.1973e-11
-1.9498e-13
-5.00642e-10
6.62442e-09
8.97652e-09
4.59146e-08
9.21982e-08
2.3719e-07
4.1942e-07
3.91774e-07
4.83146e-08
4.32812e-07
9.13549e-07
3.51745e-07
4.32117e-08
2.99795e-08
2.19244e-08
1.31384e-07
3.28844e-07
1.33653e-06
2.0818e-06
2.08154e-06
2.08507e-06
9.40109e-07
2.45048e-07
8.99012e-07
5.73013e-06
6.82206e-06
6.93931e-06
6.97677e-06
6.9843e-06
6.97677e-06
6.97677e-06
4.65064e-06
2.38792e-07
9.88954e-07
3.42913e-06
3.42913e-06
3.43502e-06
3.47482e-06
3.48173e-06
3.4833e-06
3.48173e-06
3.48173e-06
1.01055e-06
2.69711e-08
1.89395e-08
1.91611e-08
1.41936e-08
1.5893e-08
1.43467e-08
1.18788e-08
7.62818e-09
5.65005e-09
4.74652e-09
4.356e-09
4.21004e-09
4.17257e-09
4.21004e-09
4.1745e-09
4.22286e-09
4.34586e-09
4.4991e-09
4.57205e-09
4.10059e-09
0.00515882
0.03351
0.0941878
0.177482
0.279619
0.396665
0.520792
0.64045
0.74968
0.836819
0.910205
0.965966
0.991098
0.997968
0.999145
0.999209
0.999169
0.999458
0.999738
0.999851
0.999909
0.999946
0.999969
0.999983
0.999992
0.999996
0.999998
0.999999
1
1
1
1
1
0.999999
0.999969
0.999937
0.999937
0.999938
0.999937
0.999937
0.999937
0.999937
0.999937
0.999942
0.999979
0.999972
0.999958
0.999959
0.99996
0.999959
0.999959
0.999959
0.999964
0.999992
1
0.999998
0.999995
0.999995
0.999995
0.999996
0.999998
1
1
1
1
1
0.999999
0.999999
0.999999
1
1
1
0.999999
0.999977
0.99995
0.999949
0.999948
0.999948
0.999948
0.999948
0.999948
0.999948
0.999948
0.999948
0.999977
0.999999
0.999995
0.999989
0.999989
0.999989
0.999989
0.999995
1
1
1
1
1
1
1
1
1
1
1.00001
1.00001
1.00001
1.00001
1.00001
1.00001
1.00001
1.00001
1.00001
1.00001
1.00001
1.00001
1.00001
1.00001
1.00001
1.00001
1.00001
1.00001
1.00001
1.00001
1.00001
1.00001
1.00001
1.00001
1.00001
1.00001
1.00001
1.00001
1.00001
1.00001
1
1
1
1
1
1
1
1
1
1
1
0.999987
0.99997
0.999969
0.999969
0.999969
0.999969
0.999982
0.999999
0.999999
0.999994
0.999988
-1.41783e-86
-3.41744e-85
-3.98977e-84
-2.91176e-83
-1.44484e-82
-3.22111e-79
-1.01602e-77
-1.5748e-76
-1.58382e-75
-1.1516e-74
-6.29962e-74
-2.5057e-73
4.69e-72
6.14732e-69
3.30868e-68
-1.95673e-66
-5.11274e-65
-6.97229e-64
-6.67022e-63
-4.95211e-62
-2.99694e-61
-1.45856e-60
-1.22654e-61
1.62662e-53
4.4747e-47
3.9418e-65
-4.99907e-22
-3.28754e-20
-1.17467e-18
-5.71654e-15
9.09921e-15
6.09767e-14
-2.88152e-13
-1.89325e-10
-4.33591e-10
2.51845e-11
4.98765e-10
4.51222e-10
4.25921e-10
4.45511e-10
4.68844e-10
5.93604e-10
6.78503e-09
1.79608e-08
1.30384e-08
2.50856e-08
2.26087e-08
9.13148e-09
6.40333e-10
3.78188e-10
2.0934e-08
4.21976e-08
1.23521e-07
3.16917e-07
5.35628e-07
3.21916e-07
3.05403e-07
4.01224e-07
3.96964e-07
3.73048e-07
5.49676e-07
1.19935e-06
1.14034e-06
3.14433e-07
3.42239e-09
7.8341e-07
2.91371e-06
3.21487e-06
3.32856e-06
2.38002e-06
5.94599e-07
2.83139e-07
3.3212e-07
2.11388e-07
4.69727e-07
1.08517e-06
1.00683e-06
7.39574e-07
8.8318e-07
8.89557e-07
8.87314e-07
8.88951e-07
6.95049e-07
1.67608e-07
7.2407e-09
5.16013e-09
3.98798e-09
3.29627e-09
4.17118e-09
4.73624e-09
9.69864e-09
1.15742e-08
1.14319e-08
1.03908e-08
4.7532e-09
3.49699e-09
3.20138e-09
3.13917e-09
2.90731e-09
3.32362e-09
3.55286e-09
3.90403e-09
6.57532e-09
1.87832e-08
0.00113369
0.0179616
0.0768359
0.307841
0.620343
0.750748
0.825545
0.906093
0.968356
0.989474
0.994478
0.996376
0.997929
0.999055
0.999594
0.999832
0.99992
0.999948
0.999967
0.999987
0.999996
0.999998
0.999999
1
1
0.999999
0.999994
0.999987
0.999991
0.999994
0.999994
0.999994
0.999994
0.999994
0.99998
0.999946
0.999956
0.999958
0.999958
0.999967
0.999994
0.999998
0.999999
1
1
1
1
1
1
1
1
1
1
1
1
1
1
1
1
1
1
1
1
1
0.999999
0.999966
0.999954
0.999956
0.999984
0.999999
0.999997
0.999994
0.999994
0.999995
0.999997
0.999998
0.999999
0.999999
0.999999
0.999999
0.999999
1
1
1
1
1
1
1
1
1
1.00001
1.00001
1.00001
1.00001
1.00001
1.00001
1.00001
1.00001
1.00001
1.00001
1.00001
1.00002
1.00002
1.00002
1.00002
1.00002
1.00002
1.00002
1.00002
1.00002
1.00002
1.00002
1.00002
1.00002
1.00002
1.00002
1.00002
1.00002
1.00002
1.00002
1.00002
1.00002
1.00002
1.00002
1.00001
1.00001
1.00001
1.00001
1.00001
1.00001
1.00001
1.00001
1.00001
1.00001
1.00001
1.00001
1.00001
1.00001
1
1
1
1
1
1
0.999995
0.999989
-8.54015e-88
-3.88997e-86
-1.10244e-81
-4.74206e-80
-1.01105e-78
-1.46765e-77
-1.65966e-76
-1.54293e-75
-7.44519e-75
-1.31324e-73
-5.21882e-72
-1.05481e-70
-1.23352e-69
-5.0651e-69
-3.54931e-66
-1.27053e-64
-2.27655e-63
-2.72141e-62
-2.44193e-61
-1.75329e-60
-1.04826e-59
-5.36154e-59
-2.38477e-58
-3.32211e-70
2.69594e-48
6.01005e-66
-4.69255e-23
-3.18006e-21
-1.25205e-19
-8.93986e-17
9.26946e-16
3.66525e-15
5.84173e-15
-1.98856e-12
7.45374e-12
1.56181e-11
2.10522e-11
2.28478e-11
-1.72094e-11
-1.53538e-11
2.19151e-11
2.18694e-11
2.2751e-11
2.59538e-11
2.67363e-11
2.0886e-10
3.03939e-10
6.66547e-10
4.7458e-10
4.7758e-11
2.83342e-11
2.83739e-11
4.04628e-11
5.59036e-11
1.21119e-09
1.94199e-09
1.97672e-12
3.01392e-11
3.37302e-11
2.59204e-11
1.97569e-11
3.32722e-11
1.44865e-09
3.6676e-09
3.38203e-09
1.17714e-09
3.7111e-10
7.79651e-10
3.93595e-10
1.06333e-09
4.314e-09
7.4676e-09
7.21867e-09
3.86179e-09
8.25087e-10
2.0455e-08
7.15031e-08
9.81776e-08
4.06421e-08
1.49987e-08
6.74706e-07
8.70816e-07
7.61448e-07
2.35011e-07
4.78045e-09
3.48313e-09
2.72483e-09
2.21146e-09
2.99945e-09
5.60823e-09
5.25629e-09
3.47039e-09
3.16251e-09
4.57316e-09
5.7102e-09
5.61189e-09
4.91776e-09
3.47821e-09
2.70819e-09
3.46747e-09
5.36923e-09
3.82281e-08
1.38362e-07
5.52181e-07
7.335e-07
1.00444e-06
1.01935e-06
1.51088e-06
2.83574e-06
0.00812863
0.0309682
0.124332
0.483257
0.838751
0.909524
0.955817
0.985091
0.994935
0.997464
0.99876
0.999362
0.999692
0.999882
0.999954
0.999978
0.999991
0.999998
0.999999
0.999999
0.999997
0.999976
0.999977
0.999992
0.999994
0.999994
0.999982
0.999974
0.999972
0.99997
0.999984
0.999998
0.999997
0.999996
0.999996
0.999996
0.999996
0.999997
0.999986
0.999941
0.999943
0.999951
0.99995
0.999949
0.999949
0.999949
0.999949
0.999949
0.999983
1
1
1
1
1
1
1
1
1
1
1
1
1
1
1
1
1
1
1
0.999999
0.999995
0.999969
0.999958
0.999958
0.999957
0.999957
0.999957
0.999957
0.999957
0.999963
0.999991
1
1
1
1
1
1
1
1
1
1
1
1
1.00001
1.00001
1.00001
1.00001
1.00001
1.00001
1.00001
1.00001
1.00001
1.00001
1.00001
1.00001
1.00001
1.00001
1.00001
1.00001
1.00001
1.00001
1.00002
1.00002
1.00002
1.00002
1.00002
1.00002
1.00001
1.00001
1.00001
1.00001
1.00001
1.00001
1.00001
1.00001
1.00001
1.00001
1.00001
1.00001
1.00001
1.00001
1.00001
1.00001
1
1
1
1
1
1
1
1
0.999996
-2.15867e-89
-1.17925e-83
-9.65051e-81
-3.71075e-79
-7.33336e-78
-1.39372e-76
-2.69577e-75
-4.28066e-74
-5.20002e-73
-8.51121e-72
-1.65648e-70
-2.53799e-69
-2.89114e-68
-2.53221e-67
-2.71846e-65
-8.84887e-64
-1.51967e-62
-1.76092e-61
-1.5405e-60
-1.08358e-59
-6.37793e-59
-3.22883e-58
-1.43415e-57
-5.01168e-72
6.98484e-48
6.52564e-37
-3.61565e-24
-2.49974e-22
-1.09533e-20
-1.4494e-18
2.53554e-17
1.07039e-16
1.9656e-16
4.03087e-15
3.0297e-13
7.9422e-13
1.26919e-12
1.62214e-12
2.56301e-12
2.95142e-12
2.57754e-12
2.7797e-12
2.56632e-12
1.43486e-12
1.34025e-12
1.34131e-12
1.76785e-12
1.26155e-11
3.32377e-11
3.65499e-11
1.63363e-11
1.79734e-12
6.15343e-13
1.78422e-13
-1.67826e-12
-2.12899e-12
-2.82409e-12
-2.1626e-12
7.75613e-13
1.78907e-12
1.57507e-12
1.45531e-12
1.43158e-12
2.607e-12
8.08053e-12
3.00847e-12
1.77946e-12
1.99721e-12
2.15648e-12
2.16482e-12
1.94666e-12
-3.49932e-12
-3.28633e-12
2.46726e-12
2.13548e-12
2.57193e-12
4.14908e-12
8.60206e-12
2.42995e-10
1.53407e-09
3.79091e-09
8.45183e-09
7.97482e-09
6.62588e-09
4.91453e-09
3.33094e-09
2.4362e-09
1.81883e-09
1.29787e-09
9.32947e-10
7.09888e-10
5.56316e-10
4.81004e-10
5.44644e-10
7.05426e-10
1.21994e-09
1.70536e-09
1.75617e-09
1.74635e-09
2.79348e-09
7.52133e-09
2.09853e-08
5.88241e-08
1.69149e-07
4.11438e-07
1.08397e-06
2.6997e-06
1.77801e-05
7.24683e-05
0.000408644
0.00165407
0.00535207
0.0136388
0.0385984
0.119724
0.471425
0.902174
0.968055
0.98537
0.995343
0.997979
0.999014
0.99954
0.999781
0.999913
0.999967
0.999956
0.999929
0.999966
0.999992
0.999986
0.999977
0.999974
0.999974
0.999974
0.999974
0.999974
0.999985
0.999999
0.999999
0.999999
0.999998
0.999989
0.999949
0.999944
0.999943
0.999942
0.999941
0.999941
0.999941
0.999955
0.999991
0.999997
0.999999
0.999999
1
1
1
1
1
1
1
1
1
1
1
1
1
1
1
1
1
1
1
1
1
1
1
0.999995
0.999963
0.999959
0.999959
0.999958
0.999967
0.999993
0.999996
0.999997
0.999997
0.999998
0.999998
0.999999
0.999999
1
1
1
1
1
1
1
1
1
1
1.00001
1.00001
1.00001
1.00001
1.00001
1.00001
1.00001
1.00001
1.00001
1.00001
1.00001
1.00001
1.00001
1.00001
1.00001
1.00001
1.00002
1.00002
1.00002
1.00002
1.00002
1.00002
1.00002
1.00002
1.00002
1.00002
1.00002
1.00002
1.00002
1.00001
1.00001
1.00001
1.00001
1.00001
1.00001
1.00001
1.00001
1.00001
1.00001
1.00001
1.00001
1.00001
1.00001
1.00001
1.00001
1
1
1
-1.62081e-87
-5.28921e-83
-2.55879e-80
-9.73921e-79
-2.74154e-77
-3.60953e-75
-1.21503e-73
-2.20445e-72
-2.72143e-71
-2.57575e-70
-2.03062e-69
-1.42245e-68
-9.23494e-68
-5.57783e-67
-2.8119e-65
-9.11422e-64
-1.6201e-62
-1.95014e-61
-1.77345e-60
-1.29718e-59
-7.94275e-59
-4.18498e-58
-1.93588e-57
-4.72706e-57
4.74013e-49
2.47919e-37
-2.23139e-25
-1.56371e-23
-7.75143e-22
-3.22405e-20
5.23095e-19
2.32556e-18
1.58883e-18
1.96567e-16
6.1008e-15
1.36389e-14
2.00759e-14
6.16407e-14
1.44767e-13
2.52137e-13
3.63271e-13
5.10399e-13
5.35918e-13
4.05909e-13
3.65087e-13
3.8833e-13
5.34934e-13
7.41999e-13
1.0917e-12
2.40013e-12
2.60563e-12
2.55149e-12
1.91981e-12
7.30769e-13
1.02193e-13
2.40283e-13
5.69771e-13
9.74251e-13
1.24458e-12
1.36143e-12
1.37654e-12
1.32535e-12
1.34009e-12
1.43145e-12
1.61209e-12
1.88076e-12
2.13199e-12
2.20993e-12
2.20913e-12
2.1657e-12
2.08919e-12
1.98475e-12
1.87687e-12
2.03165e-12
1.55178e-12
2.18356e-13
-2.73452e-13
7.46777e-13
8.37977e-13
8.94958e-13
9.53535e-13
1.63839e-11
2.08472e-11
1.90036e-12
2.3018e-12
3.21072e-12
5.29415e-12
8.95535e-12
1.39202e-11
2.0805e-11
3.3938e-11
5.04326e-11
7.36463e-11
1.05252e-10
1.51873e-10
2.27671e-10
3.52364e-10
5.36885e-10
7.16172e-10
1.16507e-09
2.71596e-09
7.34544e-09
1.99767e-08
5.64803e-08
1.6924e-07
5.21665e-07
1.71193e-06
5.27043e-06
2.07873e-05
6.98215e-05
0.00021454
0.000658574
0.00198528
0.00597759
0.0239592
0.0482779
0.135922
0.464024
0.934194
0.984587
0.992183
0.995679
0.997965
0.999043
0.999557
0.999798
0.999888
0.99992
0.999954
0.999975
0.999984
0.999991
0.999995
0.999997
0.999998
0.999999
0.999999
0.999999
0.999999
0.999999
0.999999
0.999999
0.999997
0.999996
0.999997
0.999997
0.999997
0.999997
0.999997
0.999997
0.999992
0.999964
0.999943
0.999943
0.999943
0.999943
0.999943
0.999944
0.999944
0.999944
0.999952
0.999989
1
1
1
1
1
1
1
1
1
1
1
1
1
1
1
1
1
1
1
0.999998
0.999982
0.999959
0.999958
0.999958
0.999957
0.999957
0.999957
0.999957
0.999957
0.999957
0.999978
1
1
1
1
1
1
1
1
1
1
1
1
1.00001
1.00001
1.00001
1.00001
1.00001
1.00001
1.00001
1.00001
1.00001
1.00001
1.00001
1.00001
1.00001
1.00001
1.00001
1.00001
1.00001
1.00001
1.00001
1.00001
1.00001
1.00001
1.00001
1.00001
1.00001
1.00001
1.00001
1.00001
1.00001
1.00001
1.00001
1.00001
1.00001
1.00001
1.00001
1.00001
1.00001
1.00001
1.00001
1
1
1
1
1
1
-5.3134e-85
-2.23832e-80
-5.86584e-78
-2.14161e-76
-4.14128e-75
-5.67469e-74
-6.34456e-73
-6.12461e-72
-5.13971e-71
-3.74037e-70
-2.38137e-69
-1.35671e-68
-7.12545e-68
-3.26302e-67
-9.24298e-66
-3.1287e-64
-5.95717e-63
-7.63103e-62
-7.35037e-61
-5.67743e-60
-3.66303e-59
-2.03022e-58
-9.8644e-58
-4.07963e-57
9.17448e-53
3.05814e-38
-1.05628e-26
-7.47298e-25
-4.2819e-23
-4.60175e-22
7.2649e-21
3.49288e-20
8.09148e-20
4.83329e-18
8.58593e-17
2.12536e-16
4.84398e-16
6.47499e-16
1.18331e-15
3.72069e-15
6.65682e-15
9.62575e-15
1.45131e-14
1.50249e-14
1.57037e-14
1.72072e-14
1.75644e-14
1.3619e-14
9.10473e-15
8.05071e-15
3.2812e-14
7.66773e-14
8.50536e-14
7.82332e-14
7.72813e-14
6.97817e-14
6.60336e-14
6.41969e-14
6.33891e-14
6.14511e-14
5.89315e-14
5.56881e-14
5.50996e-14
5.47323e-14
6.05186e-14
7.38644e-14
1.01775e-13
1.34712e-13
1.71892e-13
2.1521e-13
2.64694e-13
3.19182e-13
3.79295e-13
4.50262e-13
5.21718e-13
6.02107e-13
6.5683e-13
6.96482e-13
7.59671e-13
7.87201e-13
7.90107e-13
1.02019e-12
1.44678e-12
1.88119e-12
2.52067e-12
3.55718e-12
5.23242e-12
7.85765e-12
1.18951e-11
1.79527e-11
2.68308e-11
3.95436e-11
5.74121e-11
8.20459e-11
1.15791e-10
1.62589e-10
2.28313e-10
3.19006e-10
4.33966e-10
5.9295e-10
1.08754e-09
2.54008e-09
6.33616e-09
1.87305e-08
4.81029e-08
1.69413e-07
4.97329e-07
1.71212e-06
5.02119e-06
1.72048e-05
5.22939e-05
0.000170138
0.000525275
0.00161893
0.00467524
0.0135567
0.0380852
0.0992764
0.331696
0.828914
0.971447
0.98492
0.992136
0.996227
0.998197
0.999137
0.99957
0.999778
0.999887
0.999945
0.999969
0.999984
0.999955
0.999941
0.999942
0.99997
0.999998
0.999998
0.999995
0.999993
0.999996
0.999998
0.999998
0.999998
0.999998
0.999997
0.999993
0.999959
0.999942
0.999942
0.999945
0.999943
0.999943
0.999943
0.999943
0.999943
0.999943
0.999977
0.999994
0.999996
0.999997
0.999998
1
1
1
1
1
1
1
1
1
1
1
1
1
1
1
1
1
0.999998
0.999981
0.999981
0.999984
0.999984
0.999977
0.999959
0.999958
0.999957
0.999972
0.999995
0.999997
0.999998
0.999999
0.999999
1
1
1
1
1
1
1
1
1
1
1
1.00001
1.00001
1.00001
1.00001
1.00001
1.00001
1.00001
1.00001
1.00001
1.00001
1.00001
1.00001
1.00001
1.00002
1.00002
1.00002
1.00002
1.00002
1.00002
1.00002
1.00002
1.00002
1.00002
1.00002
1.00002
1.00002
1.00002
1.00002
1.00002
1.00002
1.00001
1.00001
1.00001
1.00001
1.00001
1.00001
1.00001
1.00001
1.00001
1.00001
1.00001
1.00001
1.00001
1.00001
1
-2.44559e-83
-2.33065e-79
-3.21879e-77
-1.10421e-75
-2.09977e-74
-2.75447e-73
-2.7564e-72
-2.21604e-71
-1.47437e-70
-8.28742e-70
-4.00761e-69
-1.69803e-68
-6.41236e-68
-2.10807e-67
-1.46804e-66
-4.04168e-65
-8.27536e-64
-1.14106e-62
-1.16816e-61
-9.47204e-61
-6.34994e-60
-3.61591e-59
-1.78802e-58
-5.2045e-58
2.56364e-55
9.64645e-39
-3.54706e-28
-2.52685e-26
-1.71555e-24
-3.52273e-24
5.40031e-23
3.01794e-22
7.70461e-22
7.9661e-20
7.12749e-19
1.93343e-18
4.22914e-18
6.84923e-18
5.552e-18
1.18205e-17
2.38934e-17
4.41984e-17
6.85283e-17
1.09916e-16
1.48243e-16
1.76477e-16
1.85721e-16
1.84931e-16
1.47162e-16
6.09767e-17
3.36861e-17
6.78791e-17
1.41104e-16
7.2216e-16
1.48191e-15
1.43547e-15
1.42972e-15
1.44999e-15
1.39263e-15
1.29697e-15
1.16012e-15
9.9996e-16
8.28303e-16
7.05318e-16
7.12832e-16
7.84062e-16
9.18778e-16
1.35546e-15
2.20993e-15
3.53748e-15
5.3578e-15
7.68659e-15
1.0527e-14
1.35273e-14
1.88049e-14
2.70636e-14
3.82776e-14
5.54804e-14
8.46011e-14
1.33796e-13
2.18775e-13
3.63908e-13
6.09858e-13
1.01797e-12
1.68377e-12
2.7506e-12
4.42534e-12
7.00214e-12
1.08895e-11
1.66442e-11
2.50089e-11
3.69549e-11
5.37323e-11
7.69304e-11
1.08632e-10
1.51689e-10
2.1034e-10
2.90205e-10
3.97693e-10
5.2178e-10
7.06582e-10
1.23518e-09
2.74361e-09
6.39768e-09
1.92714e-08
4.93801e-08
1.8175e-07
5.29389e-07
1.86845e-06
5.37187e-06
1.88135e-05
5.63471e-05
0.000194895
0.000557933
0.00176476
0.00483559
0.0142912
0.0402135
0.11616
0.414364
0.890102
0.958307
0.978708
0.989695
0.994955
0.997506
0.99876
0.99939
0.999698
0.999854
0.999933
0.999948
0.999947
0.999951
0.999959
0.999969
0.999954
0.999952
0.999952
0.999952
0.999976
0.999998
0.999998
0.999999
0.999998
0.999998
0.999997
0.999997
0.999992
0.999955
0.999944
0.999943
0.999943
0.999948
0.999985
0.99999
0.999991
0.999992
0.999993
0.999993
0.999994
0.999997
0.999999
0.999999
0.999999
0.999999
1
1
1
1
1
1
1
1
1
1
1
1
1
0.999999
0.999999
1
1
0.999992
0.999963
0.99996
0.99996
0.999959
0.999961
0.999961
0.999966
0.999989
0.999999
0.999999
1
1
1
1
1
1
1
1
1
1
1
1.00001
1.00001
1.00001
1.00001
1.00001
1.00001
1.00001
1.00001
1.00001
1.00001
1.00001
1.00001
1.00001
1.00001
1.00001
1.00001
1.00002
1.00002
1.00002
1.00002
1.00002
1.00002
1.00001
1.00001
1.00001
1.00001
1.00001
1.00001
1.00001
1.00001
1.00001
1.00001
1.00001
1.00001
1.00001
1.00001
1.00001
1.00001
1.00001
1.00001
1.00001
1.00001
1.00001
1
1
-4.35391e-81
-1.87586e-78
-2.89132e-76
-1.0105e-74
-1.93417e-73
-1.69023e-71
-5.61745e-70
-9.82388e-69
-1.13062e-67
-9.58939e-67
-6.40501e-66
-3.5159e-65
-1.63126e-64
-6.51408e-64
-2.26251e-63
-6.86336e-63
-1.81854e-62
-4.21626e-62
-8.72578e-62
-1.75044e-61
-3.95395e-61
-9.83392e-61
-1.79563e-60
1.16737e-58
9.56916e-54
1.33898e-39
-7.1438e-30
-5.11584e-28
-4.2276e-26
-2.91388e-26
-1.32655e-25
-6.36393e-26
4.81225e-24
1.26743e-22
1.84526e-21
-5.54697e-21
3.64031e-22
5.10489e-20
7.60008e-20
9.74344e-20
1.61201e-19
3.05204e-19
4.38896e-19
5.75563e-19
9.44098e-19
1.28493e-18
1.6509e-18
1.86797e-18
1.88803e-18
1.71808e-18
5.79191e-19
2.14197e-19
2.16739e-19
2.55542e-19
2.64347e-19
7.0988e-19
2.40448e-18
4.74255e-18
7.04737e-18
8.70555e-18
9.57629e-18
9.72742e-18
9.39484e-18
8.22162e-18
7.7521e-18
8.62915e-18
1.10288e-17
1.81626e-17
3.64238e-17
8.00503e-17
1.81449e-16
4.05864e-16
8.8301e-16
1.86821e-15
3.84919e-15
7.73496e-15
1.52101e-14
2.92813e-14
5.52319e-14
1.02113e-13
1.8511e-13
3.29128e-13
5.74115e-13
9.82651e-13
1.65043e-12
2.72009e-12
4.39872e-12
6.97916e-12
1.08644e-11
1.65963e-11
2.48883e-11
3.66683e-11
5.31239e-11
7.57961e-11
1.06644e-10
1.48155e-10
2.04006e-10
2.80149e-10
3.79798e-10
4.95247e-10
6.32103e-10
9.65578e-10
1.89285e-09
4.26209e-09
1.15752e-08
2.52379e-08
9.81864e-08
2.41937e-07
9.72174e-07
2.73831e-06
1.04075e-05
2.8278e-05
0.000102253
0.000288836
0.000967025
0.00293401
0.00963473
0.0272388
0.0749136
0.244204
0.704374
0.932241
0.964041
0.981
0.99
0.994738
0.99727
0.998613
0.999306
0.999659
0.999818
0.999891
0.999934
0.999954
0.999966
0.999962
0.999955
0.999976
0.999997
0.999998
0.999998
0.999999
0.999999
0.999999
0.999999
0.999997
0.99999
0.999958
0.999946
0.999944
0.999943
0.999942
0.999942
0.999942
0.999943
0.999943
0.999943
0.999943
0.999943
0.999943
0.999943
0.999978
0.999999
0.999999
0.999999
0.999999
1
1
1
1
1
0.999999
0.999997
0.999997
0.999997
0.999997
0.999997
0.999997
0.999998
1
1
1
0.999999
0.999999
0.999993
0.999965
0.999961
0.999961
0.999961
0.999961
0.999961
0.999961
0.999973
0.999996
0.999999
0.999996
0.999993
0.999993
0.999993
0.999996
1
1
1
1
1
1
1
1
1.00001
1.00001
1.00001
1.00001
1.00001
1.00001
1.00001
1.00001
1.00001
1.00001
1.00001
1.00001
1.00001
1.00001
1.00001
1.00001
1.00001
1.00001
1.00001
1.00001
1.00001
1.00001
1.00001
1.00001
1.00001
1.00001
1.00001
1.00001
1.00001
1.00001
1.00001
1.00001
1.00001
1.00001
1.00001
1.00001
1.00001
1.00001
1.00001
1.00001
1
1
-3.23869e-82
-7.28199e-78
-4.81183e-76
-1.22656e-74
-1.26247e-73
-8.34703e-73
-7.54438e-72
-6.35954e-71
-5.33819e-70
-2.67404e-69
-5.66788e-68
-3.99754e-67
-1.185e-66
-5.11481e-67
-1.06352e-71
-3.55946e-69
-1.50879e-66
-2.36416e-71
-2.50868e-58
-2.01574e-68
-2.99723e-66
-4.67735e-64
-5.79394e-62
-2.11632e-46
5.20418e-54
-1.41908e-55
-4.76107e-32
-3.42312e-30
-3.92627e-28
-1.26e-27
9.37251e-27
3.58822e-25
2.44675e-24
2.64399e-24
5.13461e-22
4.41019e-21
1.63269e-20
3.64831e-20
5.7809e-20
7.76784e-20
9.77992e-20
1.17217e-19
1.35362e-19
1.51717e-19
1.66031e-19
1.78458e-19
1.89152e-19
1.97869e-19
2.04377e-19
2.08767e-19
2.11223e-19
2.12596e-19
2.1421e-19
2.1674e-19
2.20883e-19
2.26744e-19
2.33521e-19
2.41041e-19
2.49429e-19
2.58526e-19
2.75952e-19
3.14279e-19
4.08512e-19
7.0761e-19
1.44265e-18
3.22922e-18
7.4352e-18
1.71463e-17
3.91283e-17
8.79543e-17
1.94285e-16
4.2125e-16
8.95951e-16
1.86853e-15
3.82012e-15
7.65528e-15
1.50357e-14
2.89439e-14
5.46106e-14
1.01001e-13
1.83129e-13
3.25563e-13
5.67572e-13
9.70427e-13
1.62741e-12
2.67701e-12
4.31973e-12
6.83873e-12
1.06246e-11
1.62045e-11
2.42781e-11
3.57637e-11
5.18462e-11
7.40456e-11
1.04312e-10
1.45262e-10
2.00225e-10
2.74533e-10
3.7499e-10
4.9898e-10
6.30078e-10
8.81004e-10
1.55648e-09
3.46835e-09
7.65165e-09
2.55117e-08
6.25237e-08
2.50465e-07
7.04708e-07
2.42398e-06
8.4093e-06
2.32901e-05
8.32543e-05
0.000231562
0.000757989
0.00226564
0.0071614
0.0223688
0.0691572
0.200638
0.60899
0.924963
0.960082
0.97884
0.98882
0.99411
0.996904
0.998377
0.999151
0.999557
0.999769
0.999879
0.999938
0.999967
0.999982
0.99999
0.999995
0.999997
0.999998
0.999998
0.999999
0.999999
0.999999
0.999999
0.999999
0.999999
0.999992
0.999951
0.999947
0.999945
0.999944
0.999946
0.999982
0.999991
0.999993
0.999994
0.999994
0.999995
0.999995
0.999995
0.999996
0.999997
0.999999
0.999999
0.999999
0.999999
1
1
0.999999
0.999997
0.999997
0.999997
0.999997
0.999999
1
1
1
1
1
1
1
1
1
0.999999
0.999997
0.999978
0.999963
0.999962
0.999961
0.999961
0.999961
0.999962
0.999971
0.999993
0.999996
0.999996