/*--------------------------------*- C++ -*----------------------------------*\
| =========                 |                                                 |
| \\      /  F ield         | OpenFOAM: The Open Source CFD Toolbox           |
|  \\    /   O peration     | Version:  2406                                  |
|   \\  /    A nd           | Website:  www.openfoam.com                      |
|    \\/     M anipulation  |                                                 |
\*---------------------------------------------------------------------------*/
FoamFile
{
    version     2.0;
    format      ascii;
    arch        "LSB;label=32;scalar=64";
    class       surfaceScalarField;
    location    "0.15";
    object      alphaPhi0.glycerin;
}
// * * * * * * * * * * * * * * * * * * * * * * * * * * * * * * * * * * * * * //

dimensions      [0 3 -1 0 0 0 0];

oriented        oriented;

internalField   nonuniform List<scalar> 
12225
(
2.19138e-92
9.75219e-95
2.85026e-91
5.3297e-93
5.49575e-89
1.13779e-90
5.62369e-87
1.04669e-88
4.22425e-85
7.98497e-87
2.65583e-83
5.64218e-85
1.5135e-81
3.49642e-83
7.85038e-80
1.87712e-81
3.61609e-78
8.80477e-80
1.45403e-76
3.62595e-78
5.07017e-75
1.301e-76
1.52928e-73
4.03411e-75
3.98606e-72
1.0803e-73
8.96616e-71
2.50476e-72
1.73513e-69
5.02856e-71
2.9013e-68
8.79257e-70
4.25275e-67
1.36105e-68
5.4411e-66
1.86566e-67
5.76894e-65
2.14869e-66
5.56819e-64
2.23254e-65
8.95133e-63
3.87051e-64
2.10312e-61
1.00682e-62
1.04678e-59
5.66066e-61
1.60482e-52
2.02607e-53
5.42518e-50
8.2908e-51
5.32171e-50
1.03474e-51
-1.38411e-24
-3.52897e-25
-3.79226e-23
-1.45144e-23
-3.04705e-22
-2.3983e-22
-5.82655e-24
-1.1285e-21
1.70769e-09
-3.11997e-16
2.72701e-09
-8.14963e-17
3.30726e-09
-6.29553e-17
3.13777e-09
2.25078e-10
2.74352e-09
3.56151e-10
2.10785e-09
6.18172e-10
1.62647e-09
4.74943e-10
1.38745e-09
2.33589e-10
1.35733e-09
2.43508e-11
1.39426e-09
-3.26417e-11
1.39353e-09
1.42396e-12
1.32688e-09
5.6232e-11
1.22794e-09
8.30326e-11
1.13457e-09
7.82814e-11
1.0657e-09
5.80507e-11
1.02297e-09
3.64169e-11
9.98308e-10
2.13465e-11
9.81345e-10
1.49229e-11
9.62771e-10
1.65714e-11
9.48423e-10
1.30846e-11
9.29594e-10
1.76174e-11
9.52172e-10
-2.33677e-11
1.09102e-09
-1.43929e-10
1.3236e-09
-2.37009e-10
1.55597e-09
-2.36201e-10
1.73276e-09
-1.7996e-10
1.85968e-09
-1.29371e-10
1.96449e-09
-1.06533e-10
2.08141e-09
-1.17997e-10
2.24584e-09
-1.65016e-10
2.48021e-09
-2.34582e-10
2.7814e-09
-3.01023e-10
3.12803e-09
-3.46127e-10
3.49896e-09
-3.70185e-10
3.88596e-09
-3.86035e-10
4.29402e-09
-4.06938e-10
4.73484e-09
-4.39583e-10
5.21998e-09
-4.83829e-10
5.75758e-09
-5.36257e-10
6.35331e-09
-5.94363e-10
7.01301e-09
-6.58301e-10
7.7435e-09
-7.29074e-10
8.54994e-09
-8.0498e-10
9.43128e-09
-8.79802e-10
1.03772e-08
-9.44348e-10
1.13698e-08
-9.90935e-10
1.23901e-08
-1.01867e-09
1.34273e-08
-1.03563e-09
1.44875e-08
-1.05866e-09
1.55899e-08
-1.1009e-09
1.67532e-08
-1.16178e-09
1.79912e-08
-1.23639e-09
1.9311e-08
-1.32204e-09
2.07144e-08
-1.40356e-09
2.21829e-08
-1.46837e-09
2.3691e-08
-1.50807e-09
2.5218e-08
-1.52686e-09
2.67568e-08
-1.53857e-09
2.83084e-08
-1.55143e-09
2.98714e-08
-1.56295e-09
3.14347e-08
-1.56299e-09
3.29807e-08
-1.54571e-09
3.44943e-08
-1.5135e-09
3.5974e-08
-1.47966e-09
3.74339e-08
-1.46196e-09
3.89011e-08
-1.46854e-09
4.03928e-08
-1.49016e-09
4.19034e-08
-1.50915e-09
4.34161e-08
-1.51282e-09
4.49145e-08
-1.49758e-09
4.6382e-08
-1.4675e-09
4.78139e-08
-1.43195e-09
4.92158e-08
-1.40191e-09
5.06007e-08
-1.38579e-09
5.1986e-08
-1.38595e-09
5.33861e-08
-1.40005e-09
5.48076e-08
-1.42152e-09
5.62488e-08
-1.44114e-09
5.76984e-08
-1.44952e-09
5.91441e-08
-1.44353e-09
6.05695e-08
-1.42536e-09
6.19682e-08
-1.39864e-09
6.33321e-08
-1.36394e-09
6.46528e-08
-1.3206e-09
6.59212e-08
-1.26835e-09
6.71257e-08
-1.20817e-09
6.82667e-08
-1.14139e-09
6.93363e-08
-1.06999e-09
7.03317e-08
-9.95812e-10
7.12514e-08
-9.20505e-10
7.20972e-08
-8.45626e-10
7.28695e-08
-7.72321e-10
7.35713e-08
-7.01625e-10
7.42057e-08
-6.34351e-10
7.47798e-08
-5.71008e-10
7.52917e-08
-5.12296e-10
7.57478e-08
-4.58129e-10
7.6156e-08
-4.08197e-10
7.65186e-08
-3.62768e-10
7.68399e-08
-3.2151e-10
7.71241e-08
-2.84326e-10
7.73759e-08
-2.50746e-10
7.75973e-08
-2.20826e-10
7.77912e-08
-1.94278e-10
7.79618e-08
-1.70763e-10
7.81113e-08
-1.4968e-10
7.82449e-08
-1.31179e-10
7.83597e-08
-1.14778e-10
7.84589e-08
-1.0048e-10
7.85469e-08
-8.78234e-11
7.86235e-08
-7.66492e-11
7.86904e-08
-6.68261e-11
7.87486e-08
-5.82494e-11
7.87992e-08
-5.07272e-11
7.88434e-08
-4.42415e-11
7.88821e-08
-3.8585e-11
7.89158e-08
-3.36376e-11
7.89466e-08
-2.93371e-11
7.89725e-08
-2.54935e-11
7.89945e-08
-2.22106e-11
7.90134e-08
-1.92714e-11
7.90298e-08
-1.67159e-11
7.90442e-08
-1.45081e-11
7.90569e-08
-1.25841e-11
7.9068e-08
-1.09242e-11
7.90772e-08
-9.54514e-12
7.90851e-08
-8.3581e-12
7.90924e-08
-7.26237e-12
7.90989e-08
-6.33643e-12
7.91044e-08
-5.50116e-12
7.91093e-08
-4.83874e-12
7.91135e-08
-4.07628e-12
7.9117e-08
-3.44946e-12
7.91209e-08
-2.9176e-12
7.91239e-08
-2.49765e-12
7.91262e-08
-2.17438e-12
7.91283e-08
-1.89625e-12
7.91301e-08
-1.64173e-12
7.91317e-08
-1.40681e-12
7.91331e-08
-1.19966e-12
7.91342e-08
-1.02793e-12
7.91352e-08
-9.34085e-13
7.91362e-08
-8.71177e-13
7.9137e-08
-8.20021e-13
7.91378e-08
-7.25499e-13
7.91385e-08
-6.332e-13
7.91392e-08
-5.52676e-13
7.91397e-08
-4.78673e-13
7.91402e-08
-4.06248e-13
7.91405e-08
-3.47384e-13
7.91398e-08
-4.34058e-13
7.914e-08
-3.28599e-13
7.91402e-08
-2.47835e-13
7.91412e-08
-1.61319e-13
7.91416e-08
-1.83454e-13
7.91403e-08
-4.11643e-13
7.91397e-08
-4.80482e-13
7.91401e-08
-3.84678e-13
7.91404e-08
-3.07987e-13
7.91407e-08
-2.69071e-13
7.91409e-08
-2.22805e-13
7.91411e-08
-1.58714e-13
7.91414e-08
-8.06126e-14
7.91413e-08
-3.14792e-15
7.91413e-08
9.67707e-14
7.91411e-08
2.10375e-13
7.91408e-08
3.3614e-13
7.91424e-08
5.15011e-13
7.91428e-08
5.60045e-13
7.91423e-08
5.10309e-13
7.91419e-08
3.78992e-13
7.91396e-08
2.86822e-13
7.91393e-08
2.90933e-13
7.91391e-08
3.18493e-13
7.91388e-08
3.16255e-13
7.91385e-08
2.82227e-13
7.91383e-08
2.86297e-13
7.91399e-08
2.97951e-13
7.91398e-08
2.41982e-13
7.91396e-08
1.68602e-13
7.91394e-08
1.50492e-13
7.91392e-08
1.67052e-13
7.9139e-08
1.97018e-13
7.91388e-08
2.46592e-13
7.91385e-08
2.99969e-13
7.91381e-08
3.54733e-13
7.91377e-08
4.13476e-13
7.91372e-08
4.80903e-13
7.91367e-08
5.46608e-13
7.91361e-08
6.10958e-13
7.91354e-08
7.18294e-13
7.91346e-08
8.44283e-13
7.91336e-08
9.21583e-13
7.91327e-08
9.59568e-13
7.91316e-08
1.10106e-12
7.91295e-08
1.4116e-12
7.9127e-08
1.67517e-12
7.91258e-08
2.03755e-12
7.91241e-08
2.35239e-12
7.91214e-08
2.73861e-12
7.91182e-08
3.22729e-12
7.91143e-08
3.91763e-12
7.91096e-08
4.68105e-12
7.91039e-08
5.76985e-12
7.9097e-08
6.95272e-12
7.90887e-08
8.44717e-12
7.90783e-08
1.0431e-11
7.90655e-08
1.29097e-11
7.90495e-08
1.59978e-11
7.90296e-08
1.98647e-11
7.90049e-08
2.47127e-11
7.8974e-08
3.08169e-11
7.89353e-08
3.84942e-11
7.88871e-08
4.81169e-11
7.88269e-08
6.00946e-11
7.87519e-08
7.47926e-11
7.86592e-08
9.26029e-11
7.8546e-08
1.13168e-10
7.8412e-08
1.33953e-10
1.41917e-10
5.38533e-93
7.78749e-97
5.16226e-92
4.89774e-95
9.17106e-90
1.44009e-92
6.63114e-88
1.01614e-90
4.18817e-86
1.53982e-88
2.5559e-84
5.01294e-87
1.39584e-82
6.74506e-85
6.6858e-81
4.33065e-83
2.84177e-79
2.00621e-81
1.07368e-77
8.28166e-80
3.5711e-76
3.08411e-78
1.03592e-74
9.43926e-77
2.61871e-73
2.50698e-75
5.77415e-72
5.80808e-74
1.10991e-70
1.17378e-72
1.86789e-69
2.19875e-71
2.79181e-68
3.57858e-70
3.71689e-67
5.09012e-69
4.19658e-66
6.21428e-68
4.27287e-65
6.92425e-67
6.89363e-64
1.45627e-65
1.67951e-62
4.74774e-64
8.93095e-61
2.94093e-62
2.39421e-53
9.12995e-55
1.2757e-50
5.93026e-52
1.3219e-50
5.72718e-52
-4.17771e-25
-9.09343e-26
-1.57611e-23
-4.91216e-24
-2.34436e-22
-1.24225e-22
2.19019e-16
2.80811e-16
5.81536e-18
-1.62171e-17
1.57126e-18
-1.62834e-18
2.32007e-18
-4.70182e-19
7.9023e-11
1.43581e-12
1.5398e-10
6.02843e-13
2.26974e-10
-1.14655e-12
3.4431e-10
2.66112e-13
6.58545e-10
-2.06982e-13
1.02745e-09
-1.5032e-15
1.27721e-09
-3.70398e-16
1.36815e-09
-2.28397e-16
1.33333e-09
1.46031e-11
1.24563e-09
3.45487e-11
1.14612e-09
4.18853e-11
1.068e-09
4.07926e-11
1.03086e-09
3.27796e-11
1.04488e-09
2.04932e-11
1.11983e-09
3.19184e-12
1.23968e-09
-1.40434e-14
1.47084e-09
-1.43178e-15
1.65464e-09
-3.08909e-11
1.70431e-09
-2.35579e-11
2.0611e-09
-2.24065e-10
2.68507e-09
-4.55138e-10
3.21661e-09
-4.02869e-10
3.59427e-09
-2.83557e-10
3.91391e-09
-2.21894e-10
4.23402e-09
-2.07282e-10
4.60636e-09
-2.41701e-10
5.09767e-09
-3.4353e-10
5.76167e-09
-5.07763e-10
6.5809e-09
-6.76398e-10
7.50074e-09
-8.03098e-10
8.48474e-09
-8.90972e-10
9.53415e-09
-9.7532e-10
1.0674e-08
-1.08837e-09
1.1933e-08
-1.24524e-09
1.33301e-08
-1.44389e-09
1.48717e-08
-1.67298e-09
1.65587e-08
-1.92455e-09
1.8396e-08
-2.20038e-09
2.03948e-08
-2.50614e-09
2.25655e-08
-2.83823e-09
2.48903e-08
-3.17571e-09
2.74102e-08
-3.46269e-09
3.00856e-08
-3.66477e-09
3.28865e-08
-3.81798e-09
3.57908e-08
-3.93832e-09
3.88058e-08
-4.07203e-09
4.19681e-08
-4.26163e-09
4.53031e-08
-4.49524e-09
4.88221e-08
-4.75389e-09
5.25364e-08
-5.03668e-09
5.64559e-08
-5.32415e-09
6.05518e-08
-5.5641e-09
6.4774e-08
-5.73007e-09
6.90796e-08
-5.83232e-09
7.34591e-08
-5.91788e-09
7.79232e-08
-6.01531e-09
8.24721e-08
-6.11183e-09
8.70786e-08
-6.16937e-09
9.16924e-08
-6.15955e-09
9.62634e-08
-6.08449e-09
1.00763e-07
-5.97874e-09
1.052e-07
-5.90133e-09
1.09629e-07
-5.8989e-09
1.14086e-07
-5.93804e-09
1.18545e-07
-5.96314e-09
1.22964e-07
-5.92991e-09
1.27298e-07
-5.82962e-09
1.31506e-07
-5.67545e-09
1.35569e-07
-5.49514e-09
1.39493e-07
-5.32609e-09
1.43305e-07
-5.1976e-09
1.47038e-07
-5.11886e-09
1.50723e-07
-5.08437e-09
1.54379e-07
-5.07712e-09
1.58005e-07
-5.06649e-09
1.61577e-07
-5.02147e-09
1.65064e-07
-4.93042e-09
1.68446e-07
-4.80699e-09
1.71713e-07
-4.6655e-09
1.74858e-07
-4.5085e-09
1.77867e-07
-4.32979e-09
1.80727e-07
-4.12651e-09
1.83422e-07
-3.9023e-09
1.85945e-07
-3.66294e-09
1.88289e-07
-3.41342e-09
1.90453e-07
-3.15899e-09
1.92439e-07
-2.90493e-09
1.9425e-07
-2.65566e-09
1.95893e-07
-2.41462e-09
1.97376e-07
-2.18427e-09
1.98709e-07
-1.96713e-09
1.99904e-07
-1.76477e-09
2.00969e-07
-1.57752e-09
2.01917e-07
-1.40578e-09
2.02758e-07
-1.24933e-09
2.03503e-07
-1.10728e-09
2.04161e-07
-9.79082e-10
2.04741e-07
-8.6385e-10
2.05251e-07
-7.60949e-10
2.05699e-07
-6.69358e-10
2.06093e-07
-5.88026e-10
2.06438e-07
-5.15893e-10
2.06741e-07
-4.52094e-10
2.07005e-07
-3.9552e-10
2.07236e-07
-3.45947e-10
2.07437e-07
-3.02286e-10
2.07613e-07
-2.63936e-10
2.07766e-07
-2.3029e-10
2.079e-07
-2.00838e-10
2.08017e-07
-1.75035e-10
2.08119e-07
-1.52528e-10
2.08207e-07
-1.32807e-10
2.08285e-07
-1.15615e-10
2.08352e-07
-1.00573e-10
2.0841e-07
-8.74862e-11
2.08462e-07
-7.62968e-11
2.08506e-07
-6.62932e-11
2.08545e-07
-5.74516e-11
2.08579e-07
-5.00602e-11
2.08608e-07
-4.36292e-11
2.08634e-07
-3.80254e-11
2.08656e-07
-3.31669e-11
2.08676e-07
-2.89905e-11
2.08692e-07
-2.52548e-11
2.08707e-07
-2.21432e-11
2.0872e-07
-1.9307e-11
2.08731e-07
-1.71722e-11
2.08741e-07
-1.48606e-11
2.08749e-07
-1.28195e-11
2.08757e-07
-1.10309e-11
2.08763e-07
-9.533e-12
2.08768e-07
-8.22671e-12
2.08773e-07
-7.09777e-12
2.08777e-07
-6.20226e-12
2.0878e-07
-5.44068e-12
2.08784e-07
-4.79387e-12
2.08786e-07
-4.22971e-12
2.08789e-07
-3.66749e-12
2.08791e-07
-3.33771e-12
2.08793e-07
-3.14842e-12
2.08795e-07
-2.83763e-12
2.08796e-07
-2.46557e-12
2.08798e-07
-2.17245e-12
2.08799e-07
-1.93709e-12
2.088e-07
-1.71381e-12
2.08801e-07
-1.52946e-12
2.08802e-07
-1.46278e-12
2.08802e-07
-1.30742e-12
2.08803e-07
-1.27289e-12
2.08803e-07
-1.14819e-12
2.08804e-07
-1.06766e-12
2.08805e-07
-1.0316e-12
2.08805e-07
-1.02032e-12
2.08805e-07
-1.03985e-12
2.08805e-07
-9.35258e-13
2.08805e-07
-7.97045e-13
2.08805e-07
-6.54317e-13
2.08805e-07
-5.28334e-13
2.08805e-07
-3.53646e-13
2.08805e-07
-2.34097e-13
2.08805e-07
-8.28615e-14
2.08805e-07
7.98057e-14
2.08804e-07
2.42437e-13
2.08804e-07
4.45121e-13
2.08804e-07
6.05487e-13
2.08804e-07
6.87207e-13
2.08804e-07
6.66229e-13
2.08804e-07
6.05865e-13
2.08804e-07
5.54956e-13
2.08803e-07
5.45088e-13
2.08803e-07
5.61738e-13
2.08803e-07
5.794e-13
2.08803e-07
5.91566e-13
2.08802e-07
5.99671e-13
2.08802e-07
5.60342e-13
2.08802e-07
5.32424e-13
2.08801e-07
4.98823e-13
2.088e-07
5.162e-13
2.088e-07
5.78759e-13
2.08799e-07
6.67252e-13
2.08798e-07
8.08431e-13
2.08797e-07
9.67211e-13
2.08796e-07
1.1463e-12
2.08794e-07
1.3378e-12
2.08793e-07
1.55443e-12
2.08792e-07
1.76791e-12
2.0879e-07
1.97491e-12
2.08788e-07
2.30495e-12
2.08786e-07
2.75696e-12
2.08783e-07
3.13164e-12
2.08773e-07
3.53842e-12
2.08766e-07
4.24967e-12
2.08762e-07
5.17976e-12
2.08757e-07
6.1888e-12
2.08752e-07
7.36e-12
2.08746e-07
8.76996e-12
2.08738e-07
1.04279e-11
2.08729e-07
1.22998e-11
2.08718e-07
1.45098e-11
2.08705e-07
1.74605e-11
2.08699e-07
2.08649e-11
2.08684e-07
2.49014e-11
2.08663e-07
2.98277e-11
2.08637e-07
3.59509e-11
2.08606e-07
4.32412e-11
2.0857e-07
5.21581e-11
2.08527e-07
6.29195e-11
2.08475e-07
7.5979e-11
2.08415e-07
9.15623e-11
2.08343e-07
1.10322e-10
2.08259e-07
1.32471e-10
2.0816e-07
1.583e-10
2.08047e-07
1.87854e-10
2.07919e-07
2.20464e-10
2.07779e-07
2.5332e-10
2.07634e-07
2.79435e-10
2.85443e-10
2.16317e-94
1.00104e-97
1.63636e-93
3.95026e-97
3.22416e-91
9.66192e-94
2.53342e-89
1.01306e-91
9.42434e-87
2.80702e-89
1.62287e-85
9.37665e-88
1.45748e-84
1.31777e-86
5.90654e-83
6.40735e-85
2.49201e-81
2.98586e-83
9.25358e-80
1.17287e-81
3.04527e-78
4.06605e-80
9.69833e-77
1.35486e-78
2.59037e-75
3.79948e-77
6.03164e-74
9.28573e-76
1.22599e-72
1.98347e-74
2.10315e-71
3.3993e-73
3.757e-70
6.31596e-72
5.41497e-69
9.57724e-71
6.68685e-68
1.24696e-69
7.50799e-67
1.48514e-68
1.30171e-65
2.31092e-67
4.88636e-64
1.09346e-65
2.92924e-62
7.16865e-64
8.88845e-55
2.415e-56
5.89635e-52
4.36156e-54
1.10559e-51
5.67624e-53
-9.59055e-26
-1.62342e-26
-4.93562e-24
-9.98162e-25
-1.22683e-22
-2.95956e-23
3.22238e-16
2.13035e-17
3.86546e-16
1.37382e-16
4.61813e-16
1.4701e-16
4.72397e-16
3.93893e-17
9.36472e-13
4.99903e-13
4.32611e-13
1.09201e-12
-2.4322e-13
-4.81297e-13
2.04654e-13
-1.81419e-13
8.88403e-16
-3.65669e-15
2.64322e-16
-1.31986e-15
2.43139e-16
-7.9046e-16
2.50158e-16
-6.76159e-16
1.05959e-12
-1.79854e-14
2.41756e-12
-4.64499e-14
2.30037e-12
-1.14219e-14
1.23382e-12
-2.26836e-13
4.44813e-13
-9.50281e-14
8.66583e-14
-1.4951e-14
1.90961e-14
-3.87072e-17
4.0825e-16
-6.3087e-16
4.44929e-16
-8.26887e-15
1.48771e-11
-6.40131e-13
1.7204e-10
-1.42753e-13
4.27707e-10
-1.18656e-14
5.56078e-10
-4.78981e-16
5.87994e-10
-2.12404e-15
6.02132e-10
-4.39897e-16
6.47724e-10
-5.62079e-15
7.41739e-10
-1.90461e-14
9.27668e-10
-2.80062e-14
1.24521e-09
-2.31047e-14
1.65831e-09
-2.5197e-14
2.10885e-09
-2.70771e-14
2.57937e-09
-3.01434e-14
3.1127e-09
-3.74516e-14
3.77772e-09
-2.60721e-14
4.64227e-09
-7.94518e-15
5.75538e-09
-1.32739e-14
7.13922e-09
-2.48457e-14
8.80368e-09
-2.77055e-14
1.07689e-08
-3.14214e-14
1.30653e-08
-3.45569e-14
1.57082e-08
-3.78271e-14
1.86676e-08
-3.95191e-14
2.18643e-08
-4.30511e-14
2.52146e-08
-4.67628e-14
2.87079e-08
-1.79974e-14
3.24778e-08
-3.98589e-15
3.67348e-08
-1.431e-15
4.15994e-08
-1.8385e-16
4.70001e-08
-2.1945e-09
5.2804e-08
-2.50582e-09
5.91057e-08
-2.93642e-09
6.56867e-08
-3.54376e-09
7.25036e-08
-4.34249e-09
7.95639e-08
-5.2075e-09
8.689e-08
-5.99311e-09
9.45324e-08
-6.71446e-09
1.02523e-07
-7.52178e-09
1.10825e-07
-8.54862e-09
1.19314e-07
-9.77474e-09
1.27827e-07
-1.10142e-08
1.36218e-07
-1.20757e-08
1.44078e-07
-1.28721e-08
1.51646e-07
-1.33939e-08
1.59321e-07
-1.35788e-08
1.66968e-07
-1.35446e-08
1.74608e-07
-1.3571e-08
1.82218e-07
-1.3568e-08
1.89754e-07
-1.34616e-08
1.97134e-07
-1.32066e-08
2.04267e-07
-1.28051e-08
2.11079e-07
-1.23074e-08
2.17551e-07
-1.17984e-08
2.23721e-07
-1.13684e-08
2.29644e-07
-1.10428e-08
2.35371e-07
-1.08109e-08
2.40949e-07
-1.06554e-08
2.46398e-07
-1.0515e-08
2.51668e-07
-1.02923e-08
2.567e-07
-9.96168e-09
2.61472e-07
-9.57883e-09
2.66009e-07
-9.20275e-09
2.7033e-07
-8.83004e-09
2.74421e-07
-8.43021e-09
2.78272e-07
-7.98815e-09
2.81881e-07
-7.51175e-09
2.85231e-07
-7.01323e-09
2.8832e-07
-6.50263e-09
2.91149e-07
-5.98838e-09
2.93735e-07
-5.47977e-09
2.96073e-07
-4.98544e-09
2.98166e-07
-4.51207e-09
3.00037e-07
-4.06445e-09
3.01715e-07
-3.64586e-09
3.03209e-07
-3.25828e-09
3.04534e-07
-2.90237e-09
3.05706e-07
-2.57792e-09
3.06741e-07
-2.28396e-09
3.07652e-07
-2.01888e-09
3.08454e-07
-1.78085e-09
3.09158e-07
-1.5679e-09
3.09787e-07
-1.37825e-09
3.1033e-07
-1.20998e-09
3.10803e-07
-1.06101e-09
3.11215e-07
-9.29351e-10
3.11569e-07
-8.132e-10
3.11884e-07
-7.10907e-10
3.12159e-07
-6.21014e-10
3.12398e-07
-5.42177e-10
3.12607e-07
-4.73081e-10
3.1279e-07
-4.12541e-10
3.12948e-07
-3.59516e-10
3.13087e-07
-3.1316e-10
3.13213e-07
-2.72623e-10
3.13321e-07
-2.37354e-10
3.13412e-07
-2.06661e-10
3.13492e-07
-1.79921e-10
3.13561e-07
-1.56681e-10
3.13611e-07
-1.36509e-10
3.13646e-07
-1.18795e-10
3.13692e-07
-1.03272e-10
3.13731e-07
-8.96691e-11
3.13766e-07
-7.79363e-11
3.13796e-07
-6.78062e-11
3.13822e-07
-5.90465e-11
3.13845e-07
-5.14686e-11
3.13864e-07
-4.49705e-11
3.13881e-07
-3.90918e-11
3.13916e-07
-3.40008e-11
3.13933e-07
-2.96499e-11
3.13931e-07
-2.60928e-11
3.13941e-07
-2.26954e-11
3.13949e-07
-1.96313e-11
3.13957e-07
-1.69642e-11
3.13964e-07
-1.46859e-11
3.13969e-07
-1.27464e-11
3.13974e-07
-1.1107e-11
3.13979e-07
-9.72104e-12
3.13983e-07
-8.5048e-12
3.13986e-07
-7.47568e-12
3.13989e-07
-6.38759e-12
3.14005e-07
-5.60414e-12
3.14009e-07
-5.04182e-12
3.14007e-07
-4.58455e-12
3.14008e-07
-4.1097e-12
3.14009e-07
-3.65087e-12
3.14011e-07
-3.25552e-12
3.14012e-07
-2.93881e-12
3.14013e-07
-2.67325e-12
3.14017e-07
-2.45234e-12
3.1402e-07
-2.30509e-12
3.14021e-07
-2.16243e-12
3.14022e-07
-2.01876e-12
3.14023e-07
-1.85716e-12
3.14024e-07
-1.71603e-12
3.14024e-07
-1.59499e-12
3.14025e-07
-1.47965e-12
3.14023e-07
-1.35751e-12
3.14023e-07
-1.21574e-12
3.14024e-07
-1.04665e-12
3.14024e-07
-8.61461e-13
3.14025e-07
-7.15332e-13
3.14025e-07
-4.96893e-13
3.14026e-07
-2.89149e-13
3.14028e-07
-9.31269e-14
3.14028e-07
1.13207e-13
3.14028e-07
2.65814e-13
3.14028e-07
4.19086e-13
3.14029e-07
5.26599e-13
3.14029e-07
5.80416e-13
3.14029e-07
5.99843e-13
3.14029e-07
6.11106e-13
3.14029e-07
6.30715e-13
3.14029e-07
6.59165e-13
3.14029e-07
6.89534e-13
3.14028e-07
7.1685e-13
3.14028e-07
7.39544e-13
3.14028e-07
7.84286e-13
3.14028e-07
7.45426e-13
3.14024e-07
7.74917e-13
3.14024e-07
8.55309e-13
3.14023e-07
9.81325e-13
3.14022e-07
1.18097e-12
3.14022e-07
1.43033e-12
3.14023e-07
1.76666e-12
3.14024e-07
2.10811e-12
3.14022e-07
2.46422e-12
3.14021e-07
2.84578e-12
3.1402e-07
3.26186e-12
3.14014e-07
3.67846e-12
3.13999e-07
4.30533e-12
3.13996e-07
5.11441e-12
3.13993e-07
6.09577e-12
3.13989e-07
7.30321e-12
3.13985e-07
8.75086e-12
3.13979e-07
1.05163e-11
3.13973e-07
1.25257e-11
3.13966e-07
1.48446e-11
3.13957e-07
1.76225e-11
3.1396e-07
2.09226e-11
3.13951e-07
2.46785e-11
3.13937e-07
2.90863e-11
3.1392e-07
3.43881e-11
3.13899e-07
4.06297e-11
3.13861e-07
4.80377e-11
3.13833e-07
5.70209e-11
3.13802e-07
6.75436e-11
3.13764e-07
8.01709e-11
3.13721e-07
9.51514e-11
3.13671e-07
1.12678e-10
3.13614e-07
1.33142e-10
3.13548e-07
1.57095e-10
3.13483e-07
1.84683e-10
3.13408e-07
2.15909e-10
3.13315e-07
2.5051e-10
3.13214e-07
2.8781e-10
3.13108e-07
3.26144e-10
3.13e-07
3.61683e-10
3.12892e-07
3.87173e-10
3.91953e-10
1.21869e-97
6.90286e-101
1.42761e-95
3.03775e-98
1.28621e-93
6.16812e-96
1.2846e-91
8.07043e-94
1.1734e-88
6.83648e-91
1.04134e-87
8.0973e-90
1.40316e-86
1.26942e-88
6.45344e-85
6.75368e-87
3.00332e-83
3.43908e-85
1.18437e-81
1.46098e-83
4.12502e-80
5.42306e-82
1.37682e-78
1.94373e-80
3.88156e-77
5.95564e-79
9.54196e-76
1.5927e-77
2.04662e-74
3.73795e-76
3.54338e-73
7.01977e-75
6.55157e-72
1.40504e-73
1.00557e-70
2.32526e-72
1.32482e-69
3.3236e-71
1.64191e-68
5.56975e-70
2.95137e-67
9.12357e-69
1.09427e-65
3.78818e-67
7.03946e-64
2.70981e-65
2.34477e-56
9.78972e-58
4.3601e-53
2.32614e-54
9.58053e-53
4.55817e-54
-1.70037e-26
-2.25488e-27
-1.0121e-24
-1.48817e-25
-3.0165e-23
-4.86494e-24
1.90174e-17
1.3291e-18
1.86859e-16
8.717e-18
4.16163e-16
2.26822e-17
4.4301e-16
1.65302e-17
4.68118e-13
3.21368e-14
1.4774e-12
8.10934e-14
1.01122e-12
-2.57213e-14
7.78033e-13
4.0966e-15
6.81507e-13
5.72283e-14
5.94358e-13
5.14028e-14
5.11507e-13
5.12762e-14
4.92181e-13
3.01376e-14
4.01572e-13
-3.03718e-14
2.64215e-13
-1.52117e-14
1.57939e-13
-8.73205e-15
2.30626e-13
-8.87772e-15
4.28851e-13
-1.54395e-14
3.93751e-13
-9.78483e-15
3.91654e-13
-7.93007e-16
6.55038e-13
1.00903e-13
8.81394e-13
3.32419e-13
1.26486e-13
-2.16117e-14
5.3036e-15
-2.20263e-14
9.39177e-16
-7.98739e-15
6.24709e-16
-6.23309e-16
8.29937e-16
-2.91537e-15
1.07406e-15
-1.10583e-15
1.31562e-15
-5.94427e-15
1.64366e-15
-1.70408e-14
2.08336e-15
-2.26105e-14
2.35623e-15
-2.64483e-14
2.50031e-15
-2.93761e-14
2.59576e-15
-3.21982e-14
2.67626e-15
-3.62106e-14
2.83918e-15
-4.14897e-14
2.904e-15
-2.66822e-14
3.012e-15
-8.57807e-15
3.29704e-15
-1.61972e-14
3.58698e-15
-2.9339e-14
3.76991e-15
-3.31378e-14
3.87849e-15
-3.69688e-14
3.88351e-15
-4.06107e-14
3.77993e-15
-4.40858e-14
3.52584e-15
-4.74429e-14
3.10469e-15
-5.08139e-14
2.63189e-15
-5.05595e-14
1.60317e-15
-1.90023e-14
1.14241e-15
-4.30853e-15
1.03819e-15
-1.47741e-15
1.06786e-15
-6.42704e-16
2.28e-10
-2.08508e-14
1.28536e-09
-5.38524e-15
2.99078e-09
-1.18223e-14
5.76444e-09
-2.24612e-14
9.50024e-09
-7.80336e-15
1.36352e-08
-3.4167e-15
1.80484e-08
-1.59727e-15
2.35244e-08
-7.85271e-16
3.12924e-08
-4.13004e-16
4.22294e-08
-2.50305e-16
5.60735e-08
-2.24653e-16
7.18126e-08
-4.09902e-16
8.90153e-08
-5.24854e-16
1.07971e-07
-6.04102e-16
1.28732e-07
-5.86823e-16
1.50484e-07
-2.57096e-16
1.71652e-07
-5.17825e-11
1.90567e-07
-6.07356e-09
2.07962e-07
-7.63012e-09
2.25062e-07
-1.02437e-08
2.41007e-07
-1.33065e-08
2.5546e-07
-1.62002e-08
2.68168e-07
-1.84772e-08
2.78029e-07
-1.98399e-08
2.87312e-07
-2.03258e-08
2.96295e-07
-2.0016e-08
3.0473e-07
-1.92364e-08
3.12704e-07
-1.86236e-08
3.2026e-07
-1.80693e-08
3.27348e-07
-1.73757e-08
3.33856e-07
-1.6469e-08
3.39806e-07
-1.55272e-08
3.45336e-07
-1.47327e-08
3.50549e-07
-1.40427e-08
3.55432e-07
-1.33197e-08
3.59967e-07
-1.25204e-08
3.6415e-07
-1.16905e-08
3.6799e-07
-1.08501e-08
3.71496e-07
-1.00073e-08
3.74676e-07
-9.16698e-09
3.77541e-07
-8.34336e-09
3.80106e-07
-7.54972e-09
3.8239e-07
-6.79632e-09
3.84416e-07
-6.0904e-09
3.86198e-07
-5.43636e-09
3.87768e-07
-4.83594e-09
3.89164e-07
-4.28903e-09
3.90387e-07
-3.79437e-09
3.91452e-07
-3.34929e-09
3.92384e-07
-2.95062e-09
3.93198e-07
-2.59488e-09
3.9391e-07
-2.2784e-09
3.9453e-07
-1.99778e-09
3.9507e-07
-1.74985e-09
3.9554e-07
-1.53132e-09
3.9595e-07
-1.3388e-09
3.96307e-07
-1.16955e-09
3.96617e-07
-1.02099e-09
3.96888e-07
-8.90749e-10
3.97123e-07
-7.76788e-10
3.97327e-07
-6.77104e-10
3.97505e-07
-5.90043e-10
3.9766e-07
-5.13796e-10
3.97795e-07
-4.47175e-10
3.97912e-07
-3.89177e-10
3.98013e-07
-3.38683e-10
3.98102e-07
-2.94793e-10
3.98179e-07
-2.56598e-10
3.98246e-07
-2.23482e-10
3.98305e-07
-1.94632e-10
3.98356e-07
-1.69486e-10
3.984e-07
-1.47486e-10
3.98439e-07
-1.28225e-10
3.98472e-07
-1.11484e-10
3.98501e-07
-9.69578e-11
3.98526e-07
-8.43575e-11
3.98547e-07
-7.34425e-11
3.98566e-07
-6.39637e-11
3.98582e-07
-5.56893e-11
3.98596e-07
-4.84842e-11
3.98608e-07
-4.22937e-11
3.98619e-07
-3.6934e-11
3.98628e-07
-3.22048e-11
3.98636e-07
-2.80211e-11
3.98643e-07
-2.43524e-11
3.98649e-07
-2.1169e-11
3.98654e-07
-1.84231e-11
3.98659e-07
-1.60694e-11
3.98663e-07
-1.40354e-11
3.98667e-07
-1.22814e-11
3.9867e-07
-1.06295e-11
3.98673e-07
-9.24062e-12
3.98676e-07
-8.04009e-12
3.98678e-07
-7.07793e-12
3.9868e-07
-6.31342e-12
3.98682e-07
-5.66764e-12
3.98683e-07
-5.08804e-12
3.98685e-07
-4.57436e-12
3.98686e-07
-4.07392e-12
3.98688e-07
-3.70948e-12
3.98689e-07
-3.37996e-12
3.9869e-07
-3.15239e-12
3.98692e-07
-3.0212e-12
3.98693e-07
-2.72658e-12
3.98694e-07
-2.45856e-12
3.98695e-07
-2.23465e-12
3.98695e-07
-2.02507e-12
3.98696e-07
-1.84373e-12
3.98697e-07
-1.7306e-12
3.98697e-07
-1.57176e-12
3.98698e-07
-1.3943e-12
3.98699e-07
-1.2099e-12
3.98699e-07
-1.00685e-12
3.987e-07
-7.87686e-13
3.98701e-07
-5.54896e-13
3.98701e-07
-3.41156e-13
3.98702e-07
-1.59737e-13
3.98702e-07
1.66246e-14
3.98702e-07
1.71103e-13
3.98703e-07
2.99216e-13
3.98703e-07
3.97342e-13
3.98703e-07
4.71118e-13
3.98703e-07
5.31256e-13
3.98703e-07
5.86483e-13
3.98703e-07
6.40928e-13
3.98702e-07
6.9582e-13
3.98702e-07
7.54258e-13
3.98702e-07
8.19411e-13
3.98701e-07
8.90232e-13
3.98701e-07
9.75712e-13
3.987e-07
1.08664e-12
3.987e-07
1.25332e-12
3.98699e-07
1.48178e-12
3.98698e-07
1.77947e-12
3.98697e-07
2.14601e-12
3.98697e-07
2.58783e-12
3.98695e-07
3.06757e-12
3.98694e-07
3.59776e-12
3.98693e-07
4.19863e-12
3.98691e-07
4.89309e-12
3.98689e-07
5.72244e-12
3.98686e-07
6.7538e-12
3.98683e-07
8.04536e-12
3.98679e-07
9.60334e-12
3.98675e-07
1.14691e-11
3.9867e-07
1.36799e-11
3.98664e-07
1.62752e-11
3.98656e-07
1.92946e-11
3.98648e-07
2.28085e-11
3.98638e-07
2.69178e-11
3.98627e-07
3.17e-11
3.98614e-07
3.72392e-11
3.98599e-07
4.37176e-11
3.98582e-07
5.13241e-11
3.98561e-07
6.02607e-11
3.98538e-07
7.07628e-11
3.98511e-07
8.30983e-11
3.98477e-07
9.75031e-11
3.9843e-07
1.14406e-10
3.984e-07
1.34001e-10
3.9836e-07
1.56461e-10
3.98312e-07
1.82142e-10
3.98258e-07
2.11287e-10
3.98199e-07
2.43876e-10
3.98135e-07
2.79621e-10
3.98067e-07
3.17921e-10
3.97998e-07
3.57474e-10
3.97928e-07
3.96262e-10
3.97853e-07
4.30495e-10
3.97781e-07
4.53884e-10
4.57807e-10
6.76633e-101
7.62747e-104
2.95422e-98
1.87724e-100
5.81861e-96
6.32434e-98
7.75744e-94
1.09491e-95
6.57457e-91
1.13189e-92
8.40832e-90
1.69844e-91
1.29877e-88
2.98848e-90
6.38409e-87
1.64964e-88
3.31712e-85
9.50068e-87
1.42916e-83
4.52007e-85
5.37823e-82
1.87749e-83
1.88451e-80
7.22371e-82
6.01402e-79
1.24752e-80
1.6176e-77
3.60411e-79
3.80756e-76
9.09145e-78
6.95049e-75
3.50009e-76
1.3785e-73
7.59847e-75
2.29047e-72
1.38622e-73
4.25502e-71
2.18571e-72
5.67582e-70
3.1944e-71
9.1277e-69
5.63451e-70
3.6316e-67
2.47856e-68
2.55266e-65
1.93464e-66
7.68041e-58
3.57963e-59
4.70874e-53
4.28922e-54
4.96195e-53
2.0261e-54
-2.39581e-27
-2.55166e-28
-1.54041e-25
-1.75321e-26
-5.14522e-24
-6.18072e-25
1.24912e-18
7.9428e-20
9.60754e-18
5.64343e-19
3.36429e-17
1.06969e-18
4.78304e-17
2.14543e-18
3.01874e-14
2.01031e-15
1.04571e-13
6.56127e-15
7.75111e-14
1.16299e-15
8.02959e-14
-1.22104e-15
1.37142e-13
-8.59635e-16
2.05496e-13
3.97463e-16
2.21962e-13
1.96274e-16
1.71158e-13
-9.38414e-16
1.69024e-13
-8.27417e-16
4.33521e-13
2.07661e-15
2.64434e-13
9.20158e-15
6.73323e-14
-8.69106e-16
4.48361e-14
-1.33752e-15
2.85584e-14
-5.97456e-16
2.52676e-14
-1.52033e-16
1.30523e-13
-2.89578e-16
4.74917e-13
1.71652e-15
8.8796e-13
1.1005e-14
9.50496e-13
5.46883e-14
1.00191e-12
5.96949e-14
8.49366e-13
2.97979e-14
3.15988e-13
6.25915e-15
3.12917e-13
1.81187e-15
2.15654e-12
5.09113e-15
2.8987e-12
9.96215e-15
2.964e-12
3.68492e-15
2.99074e-12
-5.06663e-16
2.99909e-12
-1.54651e-15
3.00191e-12
-3.21983e-15
3.00543e-12
-3.54142e-15
2.82331e-12
-2.88635e-15
4.29356e-13
-3.69763e-15
3.8637e-13
-5.09268e-15
1.50763e-12
-1.16317e-14
1.51397e-12
-1.41962e-14
1.51517e-12
-1.40044e-14
1.50209e-12
-1.02239e-14
1.46956e-12
-3.1016e-15
1.42791e-12
3.61709e-17
1.37141e-12
1.10613e-14
1.29632e-12
2.67525e-14
6.68418e-13
3.36246e-14
4.71191e-14
2.1164e-14
3.35227e-14
7.6853e-15
1.70582e-14
1.39493e-14
6.83263e-15
7.0175e-15
2.15219e-15
-1.70887e-14
1.24421e-15
-6.43835e-15
1.88925e-15
-1.47815e-14
2.18523e-15
-2.55374e-14
1.46624e-15
-8.45432e-15
9.58601e-16
-3.59215e-15
7.15564e-16
-1.71529e-15
6.14496e-16
-9.01067e-16
5.8591e-16
-5.30957e-16
5.96707e-16
-3.57507e-16
6.24211e-16
-3.98697e-16
6.77971e-16
-5.61524e-16
7.42526e-16
-6.41485e-16
8.2482e-16
-6.84513e-16
9.01597e-16
-6.38734e-16
9.42518e-16
-3.80442e-16
8.3352e-12
-7.68249e-16
4.0544e-09
-6.47566e-16
2.17759e-08
-2.77989e-16
5.10579e-08
-7.01495e-16
8.96245e-08
-4.76916e-16
1.34234e-07
-6.22292e-16
1.81168e-07
-5.51083e-15
2.25918e-07
-2.6895e-14
2.65998e-07
-7.05402e-14
3.0079e-07
-5.69841e-09
3.30404e-07
-7.06058e-09
3.56298e-07
-1.09845e-08
3.74979e-07
-2.05938e-08
3.87208e-07
-2.50546e-08
3.96213e-07
-2.46733e-08
4.03754e-07
-2.30498e-08
4.10441e-07
-2.1503e-08
4.16775e-07
-2.02341e-08
4.22621e-07
-1.89915e-08
4.2779e-07
-1.76208e-08
4.3239e-07
-1.62534e-08
4.36522e-07
-1.49558e-08
4.40226e-07
-1.36946e-08
4.4353e-07
-1.24605e-08
4.46459e-07
-1.12667e-08
4.4904e-07
-1.01281e-08
4.51303e-07
-9.05803e-09
4.53279e-07
-8.06584e-09
4.54999e-07
-7.15618e-09
4.56493e-07
-6.32983e-09
4.57789e-07
-5.58458e-09
4.58911e-07
-4.91646e-09
4.59882e-07
-4.32036e-09
4.60722e-07
-3.79062e-09
4.61441e-07
-3.32145e-09
4.62049e-07
-2.90697e-09
4.62592e-07
-2.54156e-09
4.63062e-07
-2.22024e-09
4.63469e-07
-1.93809e-09
4.63821e-07
-1.69081e-09
4.64126e-07
-1.47422e-09
4.64389e-07
-1.28474e-09
4.64618e-07
-1.11923e-09
4.64815e-07
-9.74574e-10
4.65005e-07
-8.48342e-10
4.65155e-07
-7.38433e-10
4.65274e-07
-6.42609e-10
4.65386e-07
-5.5905e-10
4.65483e-07
-4.86334e-10
4.65567e-07
-4.2308e-10
4.65641e-07
-3.68074e-10
4.65704e-07
-3.20274e-10
4.65759e-07
-2.78574e-10
4.65821e-07
-2.42345e-10
4.65868e-07
-2.10887e-10
4.65903e-07
-1.83547e-10
4.65934e-07
-1.59727e-10
4.65961e-07
-1.38961e-10
4.65985e-07
-1.209e-10
4.66006e-07
-1.05202e-10
4.66025e-07
-9.15613e-11
4.66041e-07
-7.97117e-11
4.66055e-07
-6.94268e-11
4.66067e-07
-6.04803e-11
4.66078e-07
-5.27058e-11
4.66087e-07
-4.59525e-11
4.66095e-07
-4.00547e-11
4.66102e-07
-3.4899e-11
4.66108e-07
-3.04034e-11
4.66113e-07
-2.64895e-11
4.66118e-07
-2.30915e-11
4.66122e-07
-2.01517e-11
4.66125e-07
-1.76299e-11
4.66123e-07
-1.54633e-11
4.66109e-07
-1.34955e-11
4.66111e-07
-1.16743e-11
4.66113e-07
-1.01054e-11
4.66114e-07
-8.86545e-12
4.66116e-07
-7.87109e-12
4.66117e-07
-7.04918e-12
4.66118e-07
-6.30878e-12
4.66119e-07
-5.64645e-12
4.6612e-07
-5.08827e-12
4.66121e-07
-4.51407e-12
4.66131e-07
-3.97841e-12
4.66146e-07
-3.64715e-12
4.66145e-07
-3.39342e-12
4.66142e-07
-3.12507e-12
4.66142e-07
-2.82519e-12
4.66143e-07
-2.55081e-12
4.66143e-07
-2.31324e-12
4.66146e-07
-2.11265e-12
4.66148e-07
-1.94874e-12
4.66149e-07
-1.80575e-12
4.66149e-07
-1.63666e-12
4.66149e-07