/*--------------------------------*- C++ -*----------------------------------*\
| =========                 |                                                 |
| \\      /  F ield         | OpenFOAM: The Open Source CFD Toolbox           |
|  \\    /   O peration     | Version:  2406                                  |
|   \\  /    A nd           | Website:  www.openfoam.com                      |
|    \\/     M anipulation  |                                                 |
\*---------------------------------------------------------------------------*/
FoamFile
{
    version     2.0;
    format      ascii;
    arch        "LSB;label=32;scalar=64";
    class       volScalarField;
    location    "0.15";
    object      p_rgh;
}
// * * * * * * * * * * * * * * * * * * * * * * * * * * * * * * * * * * * * * //

dimensions      [1 -1 -2 0 0 0 0];

internalField   nonuniform List<scalar> 
6250
(
4999.45
4999.25
4999.47
4999.56
4999.52
4999.47
4999.46
4999.46
4999.45
4999.44
4999.43
4999.43
4999.42
4999.41
4999.41
4999.4
4999.39
4999.39
4999.39
4999.38
4999.38
4999.37
4999.37
4999.37
4999.37
4999.37
4999.37
4999.37
4999.37
4999.36
5007.6
5034.13
5047.26
5054.26
5045.7
5036.92
5031.9
5029.52
5027.94
5025.92
5023.2
5020.38
5017.98
5016.06
5014.41
5012.82
5011.17
5009.47
5007.78
5006.26
5004.99
5004.28
5004.15
5003.88
5002.89
5001.37
4999.77
4998.35
4997.21
4996.4
4995.8
4995.18
4994.38
4993.36
4992.21
4991.04
4989.93
4988.9
4987.94
4987.02
4986.14
4985.27
4984.34
4983.27
4981.96
4980.31
4978.33
4976.1
4973.82
4971.67
4969.73
4967.95
4966.2
4964.35
4962.24
4959.77
4956.94
4953.85
4950.59
4947.18
4943.57
4939.71
4935.6
4931.32
4927.02
4922.83
4918.8
4914.81
4910.7
4906.33
4901.61
4896.48
4890.97
4885.09
4878.87
4872.28
4865.25
4857.65
4849.3
4840.01
4829.65
4818.12
4805.33
4791.23
4775.75
4758.86
4740.54
4720.8
4699.66
4677.17
4653.38
4628.35
4602.15
4574.85
4546.53
4517.3
4487.24
4456.42
4424.93
4392.81
4360.14
4326.96
4293.33
4259.31
4224.94
4190.27
4155.32
4120.13
4084.74
4049.16
4013.43
3977.56
3941.56
3905.46
3869.26
3832.97
3796.61
3760.19
3723.71
3687.18
3650.61
3614
3577.35
3540.68
3503.99
3467.28
3430.56
3393.83
3357.08
3320.33
3283.56
3246.78
3210
3173.2
3136.4
3099.6
3062.79
3025.97
2989.16
2952.34
2915.53
2878.71
2841.9
2805.1
2768.29
2731.49
2694.69
2657.89
2621.09
2584.29
2547.48
2510.67
2473.86
2437.05
2400.24
2363.44
2326.63
2289.83
2253.03
2216.24
2179.45
2142.67
2105.89
2069.11
2032.34
1995.58
1958.82
1922.06
1885.31
1848.56
1811.82
1775.08
1738.34
1701.61
1664.88
1628.15
1591.42
1554.7
1517.97
1481.24
1444.52
1407.79
1371.07
1334.34
1297.62
1260.9
1224.18
1187.46
1150.74
1114.02
1077.3
1040.59
1003.87
967.158
930.442
893.724
857.006
820.29
783.576
746.863
710.15
673.437
636.725
600.013
563.304
526.599
489.895
453.193
416.497
379.809
343.132
306.473
269.839
233.24
196.695
160.225
123.833
87.4896
51.4046
16.6888
4999.42
4999.19
4999.45
4999.56
4999.52
4999.47
4999.45
4999.46
4999.45
4999.44
4999.43
4999.42
4999.42
4999.41
4999.4
4999.4
4999.39
4999.39
4999.38
4999.38
4999.38
4999.37
4999.37
4999.37
4999.37
4999.37
4999.37
4999.37
4999.37
4999.37
4999.34
4998.72
4999.06
4999.12
4998.63
4998.3
4998.44
4999.95
5002.36
5003.29
5002.29
5000.54
4999.15
4998.3
4997.81
4997.53
4997.36
4997.24
4997.13
4997.29
4997.26
4997.31
4999.4
5000.97
4999.7
4997.28
4995.29
4993.84
4992.92
4992.59
4992.67
4992.54
4991.82
4990.56
4989.07
4987.6
4986.23
4984.91
4983.55
4982.1
4980.57
4979
4977.36
4975.57
4973.46
4970.9
4967.81
4964.3
4960.69
4957.42
4954.67
4952.25
4949.99
4947.71
4945.2
4942.27
4938.95
4935.48
4932.1
4928.85
4925.63
4922.26
4918.64
4914.79
4910.85
4907.12
4903.78
4900.58
4897.2
4893.44
4889.23
4884.53
4879.34
4873.7
4867.69
4861.31
4854.53
4847.28
4839.37
4830.57
4820.7
4809.67
4797.43
4783.91
4769.02
4752.7
4734.95
4715.75
4695.12
4673.11
4649.76
4625.15
4599.33
4572.37
4544.38
4515.42
4485.59
4454.98
4423.66
4391.7
4359.16
4326.11
4292.59
4258.67
4224.38
4189.78
4154.9
4119.77
4084.42
4048.89
4013.2
3977.35
3941.39
3905.3
3869.12
3832.85
3796.5
3760.09
3723.62
3687.1
3650.53
3613.92
3577.29
3540.63
3503.95
3467.25
3430.53
3393.81
3357.07
3320.32
3283.56
3246.78
3210
3173.21
3136.41
3099.61
3062.8
3025.98
2989.17
2952.35
2915.53
2878.71
2841.9
2805.1
2768.3
2731.5
2694.7
2657.9
2621.09
2584.29
2547.48
2510.67
2473.86
2437.05
2400.24
2363.43
2326.62
2289.82
2253.02
2216.23
2179.44
2142.66
2105.88
2069.1
2032.33
1995.57
1958.81
1922.05
1885.3
1848.55
1811.8
1775.06
1738.33
1701.6
1664.87
1628.14
1591.42
1554.69
1517.97
1481.24
1444.52
1407.79
1371.07
1334.34
1297.62
1260.9
1224.18
1187.46
1150.74
1114.02
1077.31
1040.59
1003.87
967.157
930.444
893.731
857.019
820.309
783.599
746.89
710.183
673.48
636.778
600.076
563.377
526.679
489.983
453.294
416.611
379.939
343.28
306.636
270.015
233.423
196.873
160.376
123.895
87.3407
50.9651
16.4638
4999.41
4999.19
4999.45
4999.56
4999.51
4999.46
4999.45
4999.45
4999.45
4999.44
4999.43
4999.42
4999.41
4999.41
4999.4
4999.39
4999.38
4999.38
4999.37
4999.37
4999.36
4999.36
4999.35
4999.35
4999.34
4999.34
4999.33
4999.32
4999.3
4999.26
4999.21
4999.18
4999.21
4999.18
4998.66
4998.56
4998.84
4998.95
4998.94
4998.93
4998.92
4998.9
4998.87
4998.82
4998.78
4998.77
4998.77
4998.76
4998.74
4998.74
4998.73
4998.41
4998.55
4999.38
4999.05
4998.4
4998.03
4997.79
4997.6
4997.49
4997.51
4997.5
4997.27
4996.82
4996.25
4995.67
4995.1
4994.52
4993.89
4993.14
4992.3
4991.44
4990.61
4989.79
4988.78
4987.29
4985.2
4982.59
4979.57
4976.15
4972.49
4968.64
4964.59
4960.59
4956.31
4951.18
4945.15
4938.78
4932.6
4926.68
4920.61
4913.9
4906.36
4898.16
4890.04
4883.42
4879.31
4877
4875.28
4873.44
4871.12
4868.15
4864.46
4860.16
4855.44
4850.43
4845.1
4839.33
4832.8
4825.09
4815.99
4805.61
4794.06
4781.28
4767.12
4751.48
4734.31
4715.61
4695.4
4673.71
4650.6
4626.15
4600.43
4573.54
4545.56
4516.59
4486.74
4456.07
4424.69
4392.65
4360.04
4326.9
4293.31
4259.32
4224.97
4190.3
4155.36
4120.18
4084.79
4049.21
4013.47
3977.59
3941.59
3905.47
3869.26
3832.97
3796.6
3760.17
3723.68
3687.15
3650.58
3613.97
3577.32
3540.66
3503.98
3467.28
3430.57
3393.84
3357.09
3320.34
3283.58
3246.8
3210.02
3173.23
3136.44
3099.63
3062.82
3026
2989.18
2952.36
2915.54
2878.72
2841.91
2805.11
2768.3
2731.5
2694.7
2657.9
2621.09
2584.29
2547.48
2510.66
2473.85
2437.04
2400.23
2363.42
2326.62
2289.81
2253.02
2216.22
2179.43
2142.65
2105.87
2069.1
2032.33
1995.56
1958.8
1922.05
1885.3
1848.55
1811.8
1775.06
1738.33
1701.6
1664.87
1628.14
1591.42
1554.69
1517.97
1481.24
1444.52
1407.79
1371.07
1334.35
1297.62
1260.9
1224.18
1187.46
1150.74
1114.02
1077.31
1040.59
1003.88
967.161
930.447
893.738
857.029
820.322
783.617
746.912
710.207
673.506
636.807
600.111
563.416
526.725
490.038
453.355
416.678
380.011
343.356
306.716
270.09
233.482
196.903
160.358
123.788
87.0528
50.4613
16.2336
4999.41
4999.17
4999.43
4999.55
4999.51
4999.46
4999.44
4999.45
4999.44
4999.43
4999.42
4999.41
4999.41
4999.4
4999.39
4999.38
4999.38
4999.37
4999.36
4999.35
4999.35
4999.34
4999.33
4999.32
4999.31
4999.3
4999.28
4999.26
4999.24
4999.2
4999.15
4999.09
4999.03
4998.95
4998.9
4998.89
4998.92
4998.94
4998.95
4998.95
4998.96
4998.96
4998.92
4998.84
4998.78
4998.75
4998.75
4998.76
4998.78
4998.79
4998.78
4998.69
4998.46
4998.51
4998.6
4998.62
4998.6
4998.59
4998.58
4998.58
4998.57
4998.56
4998.55
4998.54
4998.54
4998.52
4998.51
4998.5
4998.49
4998.48
4998.47
4998.46
4998.45
4998.44
4998.42
4998.41
4998.38
4998.36
4998.33
4998.24
4997.59
4996.62
4995.55
4994.4
4993.14
4991.6
4989.63
4987.23
4984.51
4981.55
4978.25
4974.27
4969.4
4963.74
4957.35
4949.56
4938.25
4923.77
4909.66
4896.52
4883.37
4869.94
4856.52
4844.44
4835.33
4829.38
4825.97
4824.73
4823.76
4820.49
4814.15
4805.61
4795.7
4784.34
4771.21
4756.23
4739.57
4721.26
4701.3
4679.71
4656.57
4631.97
4606.02
4578.84
4550.54
4521.22
4490.99
4459.96
4428.22
4395.85
4362.91
4329.48
4295.6
4261.35
4226.77
4191.9
4156.78
4121.43
4085.89
4050.17
4014.3
3978.31
3942.21
3906.02
3869.73
3833.37
3796.93
3760.44
3723.9
3687.33
3650.73
3614.1
3577.44
3540.77
3504.08
3467.37
3430.65
3393.91
3357.17
3320.41
3283.64
3246.86
3210.08
3173.28
3136.48
3099.67
3062.85
3026.03
2989.21
2952.39
2915.57
2878.76
2841.94
2805.13
2768.32
2731.52
2694.71
2657.91
2621.1
2584.29
2547.47
2510.66
2473.85
2437.04
2400.23
2363.42
2326.61
2289.81
2253.01
2216.22
2179.43
2142.64
2105.87
2069.09
2032.32
1995.56
1958.8
1922.05
1885.29
1848.55
1811.8
1775.06
1738.33
1701.6
1664.87
1628.14
1591.41
1554.69
1517.96
1481.24
1444.51
1407.79
1371.07
1334.34
1297.62
1260.9
1224.18
1187.46
1150.74
1114.02
1077.3
1040.58
1003.87
967.158
930.447
893.738
857.03
820.324
783.619
746.917
710.214
673.511
636.81
600.11
563.413
526.72
490.032
453.35
416.673
379.998
343.333
306.675
270.027
233.388
196.763
160.157
123.498
86.6233
49.9069
16.0082
4999.4
4999.16
4999.43
4999.54
4999.5
4999.45
4999.44
4999.44
4999.44
4999.43
4999.42
4999.41
4999.4
4999.39
4999.38
4999.38
4999.37
4999.36
4999.35
4999.34
4999.33
4999.32
4999.31
4999.3
4999.28
4999.27
4999.25
4999.23
4999.21
4999.18
4999.14
4999.09
4999.05
4999.02
4998.98
4998.94
4998.92
4998.92
4998.93
4998.92
4998.91
4998.88
4998.85
4998.82
4998.79
4998.78
4998.77
4998.77
4998.76
4998.73
4998.69
4998.65
4998.62
4998.61
4998.62
4998.61
4998.6
4998.59
4998.58
4998.58
4998.57
4998.56
4998.55
4998.54
4998.53
4998.53
4998.52
4998.51
4998.51
4998.5
4998.49
4998.49
4998.48
4998.48
4998.47
4998.47
4998.46
4998.45
4998.43
4998.39
4998.27
4998.08
4998.07
4998.17
4998.21
4998.2
4998.18
4998.16
4998.16
4998.16
4998.15
4998.13
4998.13
4998.11
4998.1
4998.04
4996.91
4993.13
4987.88
4982.03
4975.19
4967.25
4958.15
4947.47
4931.7
4902.76
4866.96
4841.41
4829.15
4820.94
4810.78
4801.6
4795.22
4789
4779.46
4766.28
4750.41
4732.54
4712.67
4690.94
4667.47
4642.38
4615.84
4587.99
4558.98
4528.95
4498.03
4466.32
4433.94
4400.96
4367.47
4333.53
4299.2
4264.54
4229.58
4194.37
4158.95
4123.34
4087.56
4051.63
4015.58
3979.43
3943.18
3906.85
3870.45
3833.98
3797.46
3760.89
3724.29
3687.66
3651.01
3614.34
3577.65
3540.95
3504.24
3467.51
3430.77
3394.03
3357.27
3320.5
3283.73
3246.94
3210.15
3173.35
3136.54
3099.72
3062.9
3026.08
2989.26
2952.43
2915.61
2878.8
2841.98
2805.17
2768.36
2731.55
2694.74
2657.92
2621.11
2584.29
2547.48
2510.66
2473.85
2437.03
2400.22
2363.41
2326.61
2289.8
2253.01
2216.21
2179.42
2142.64
2105.86
2069.09
2032.32
1995.56
1958.8
1922.04
1885.29
1848.55
1811.8
1775.06
1738.33
1701.59
1664.86
1628.14
1591.41
1554.69
1517.96
1481.24
1444.51
1407.79
1371.07
1334.34
1297.62
1260.9
1224.18
1187.46
1150.74
1114.02
1077.3
1040.58
1003.87
967.156
930.444
893.733
857.024
820.317
783.611
746.907
710.203
673.499
636.797
600.095
563.395
526.697
490.002
453.31
416.621
379.935
343.252
306.574
269.897
233.224
196.557
159.9
123.171
86.192
49.3935
15.8063
4999.4
4999.15
4999.42
4999.54
4999.5
4999.45
4999.43
4999.44
4999.43
4999.42
4999.41
4999.4
4999.39
4999.39
4999.38
4999.37
4999.36
4999.35
4999.34
4999.33
4999.32
4999.31
4999.29
4999.28
4999.27
4999.25
4999.23
4999.21
4999.19
4999.17
4999.14
4999.11
4999.08
4999.05
4999.02
4998.99
4998.97
4998.96
4998.94
4998.93
4998.91
4998.89
4998.87
4998.85
4998.82
4998.8
4998.79
4998.77
4998.75
4998.73
4998.71
4998.69
4998.66
4998.63
4998.62
4998.61
4998.61
4998.6
4998.59
4998.58
4998.57
4998.56
4998.55
4998.54
4998.53
4998.52
4998.51
4998.5
4998.49
4998.48
4998.47
4998.46
4998.45
4998.44
4998.42
4998.41
4998.39
4998.36
4998.32
4998.27
4998.23
4998.21
4998.21
4998.22
4998.22
4998.22
4998.22
4998.22
4998.23
4998.23
4998.23
4998.23
4998.23
4998.23
4998.23
4998.22
4998.14
4997.88
4997.74
4997.87
4997.94
4997.93
4997.92
4997.89
4997.35
4993.49
4985.33
4971.09
4960.82
4937.78
4890.3
4842.46
4814.69
4803.22
4793.12
4780.11
4766.15
4749.88
4730.41
4708.12
4683.83
4657.77
4630.12
4601.11
4570.93
4539.75
4507.73
4475
4441.67
4407.82
4373.54
4338.89
4303.92
4268.68
4233.22
4197.55
4161.73
4125.77
4089.68
4053.49
4017.2
3980.84
3944.4
3907.91
3871.36
3834.77
3798.14
3761.48
3724.8
3688.1
3651.39
3614.67
3577.94
3541.2
3504.45
3467.7
3430.94
3394.17
3357.4
3320.62
3283.83
3247.04
3210.24
3173.43
3136.61
3099.79
3062.97
3026.14
2989.31
2952.49
2915.67
2878.85
2842.02
2805.21
2768.39
2731.57
2694.75
2657.93
2621.11
2584.3
2547.48
2510.66
2473.84
2437.03
2400.22
2363.41
2326.6
2289.8
2253
2216.2
2179.41
2142.63
2105.85
2069.08
2032.32
1995.55
1958.8
1922.04
1885.29
1848.55
1811.8
1775.06
1738.33
1701.59
1664.86
1628.14
1591.41
1554.69
1517.96
1481.24
1444.52
1407.79
1371.07
1334.35
1297.62
1260.9
1224.18
1187.46
1150.73
1114.01
1077.3
1040.58
1003.86
967.147
930.434
893.723
857.012
820.304
783.596
746.888
710.181
673.475
636.768
600.061
563.356
526.651
489.946
453.242
416.539
379.837
343.135
306.433
269.73
233.025
196.322
159.627
122.847
85.7918
48.9416
15.6331
4999.39
4999.15
4999.42
4999.54
4999.5
4999.44
4999.43
4999.43
4999.43
4999.42
4999.41
4999.4
4999.39
4999.38
4999.37
4999.36
4999.35
4999.34
4999.33
4999.32
4999.31
4999.29
4999.28
4999.27
4999.25
4999.24
4999.22
4999.2
4999.18
4999.16
4999.13
4999.11
4999.08
4999.06
4999.03
4999.01
4998.99
4998.97
4998.95
4998.93
4998.91
4998.89
4998.87
4998.85
4998.83
4998.81
4998.79
4998.78
4998.76
4998.74
4998.72
4998.7
4998.68
4998.66
4998.65
4998.64
4998.62
4998.61
4998.6
4998.59
4998.58
4998.57
4998.55
4998.54
4998.53
4998.52
4998.51
4998.5
4998.49
4998.48
4998.47
4998.46
4998.45
4998.44
4998.42
4998.4
4998.39
4998.36
4998.34
4998.31
4998.27
4998.24
4998.22
4998.22
4998.22
4998.21
4998.2
4998.19
4998.18
4998.17
4998.16
4998.15
4998.14
4998.12
4998.11
4998.08
4998.05
4998.03
4998.02
4998.03
4998.03
4998.03
4998.03
4998.03
4998.01
4997.88
4997.68
4997.76
4997.5
4994.39
4986.74
4972.71
4949.16
4916.79
4860.64
4816.91
4793.16
4775.94
4755.64
4732.46
4706.62
4678.67
4649.11
4618.24
4586.28
4553.44
4519.88
4485.74
4451.14
4416.15
4380.85
4345.29
4309.52
4273.57
4237.47
4201.26
4164.96
4128.58
4092.13
4055.61
4019.05
3982.44
3945.79
3909.11
3872.4
3835.67
3798.92
3762.15
3725.39
3688.61
3651.83
3615.05
3578.27
3541.49
3504.7
3467.92
3431.13
3394.34
3357.54
3320.74
3283.94
3247.14
3210.32
3173.51
3136.69
3099.87
3063.04
3026.22
2989.39
2952.56
2915.73
2878.9
2842.07
2805.25
2768.42
2731.59
2694.77
2657.94
2621.12
2584.3
2547.48
2510.66
2473.84
2437.02
2400.21
2363.4
2326.59
2289.79
2252.99
2216.2
2179.41
2142.63
2105.85
2069.08
2032.32
1995.55
1958.8
1922.04
1885.29
1848.55
1811.8
1775.06
1738.33
1701.59
1664.86
1628.14
1591.41
1554.69
1517.96
1481.24
1444.52
1407.79
1371.07
1334.35
1297.62
1260.9
1224.17
1187.45
1150.73
1114.01
1077.29
1040.57
1003.85
967.136
930.421
893.708
856.996
820.285
783.574
746.863
710.152
673.44
636.728
600.015
563.302
526.589
489.874
453.159
416.443
379.725
343.005
306.282
269.554
232.822
196.09
159.363
122.545
85.4346
48.5497
15.4842
4999.39
4999.14
4999.41
4999.53
4999.49
4999.44
4999.43
4999.43
4999.42
4999.41
4999.4
4999.39
4999.38
4999.37
4999.36
4999.35
4999.34
4999.33
4999.32
4999.31
4999.3
4999.28
4999.27
4999.26
4999.24
4999.23
4999.21
4999.19
4999.17
4999.15
4999.13
4999.11
4999.08
4999.06
4999.04
4999.02
4999
4998.98
4998.96
4998.94
4998.92
4998.9
4998.88
4998.86
4998.84
4998.82
4998.8
4998.78
4998.77
4998.75
4998.73
4998.71
4998.69
4998.68
4998.66
4998.65
4998.63
4998.62
4998.61
4998.59
4998.58
4998.57
4998.56
4998.55
4998.53
4998.52
4998.51
4998.5
4998.49
4998.47
4998.46
4998.45
4998.44
4998.42
4998.41
4998.39
4998.37
4998.35
4998.33
4998.31
4998.29
4998.27
4998.26
4998.25
4998.24
4998.23
4998.22
4998.21
4998.2
4998.19
4998.18
4998.17
4998.16
4998.14
4998.12
4998.09
4998.06
4998.02
4998
4997.99
4997.98
4997.97
4997.96
4997.95
4997.94
4997.94
4997.93
4997.93
4997.94
4997.82
4997.32
4996.2
4992.86
4982.19
4961.31
4924.13
4879.55
4828.71
4792.13
4764.96
4736.65
4705.72
4672.95
4639.23
4604.72
4569.6
4534.01
4498.08
4461.88
4425.5
4388.98
4352.35
4315.65
4278.88
4242.08
4205.26
4168.42
4131.57
4094.72
4057.85
4020.99
3984.12
3947.25
3910.38
3873.51
3836.63
3799.76
3762.89
3726.02
3689.16
3652.31
3615.46
3578.62
3541.79
3504.96
3468.14
3431.32
3394.5
3357.68
3320.86
3284.05
3247.23
3210.41
3173.6
3136.78
3099.95
3063.13
3026.3
2989.47
2952.63
2915.79
2878.96
2842.12
2805.28
2768.45
2731.62
2694.79
2657.96
2621.13
2584.3
2547.48
2510.66
2473.84
2437.02
2400.2
2363.39
2326.59
2289.78
2252.99
2216.19
2179.4
2142.62
2105.85
2069.08
2032.31
1995.55
1958.8
1922.04
1885.3
1848.55
1811.81
1775.07
1738.33
1701.6
1664.87
1628.14
1591.41
1554.69
1517.96
1481.24
1444.52
1407.79
1371.07
1334.34
1297.62
1260.89
1224.17
1187.45
1150.72
1114
1077.28
1040.56
1003.84
967.123
930.407
893.692
856.977
820.263
783.549
746.834
710.118
673.401
636.683
599.964
563.243
526.521
489.797
453.07
416.341
379.609
342.874
306.133
269.386
232.633
195.878
159.128
122.281
85.1296
48.2206
15.3595
4999.39
4999.14
4999.41
4999.53
4999.49
4999.44
4999.42
4999.42
4999.42
4999.41
4999.4
4999.39
4999.38
4999.37
4999.36
4999.35
4999.34
4999.33
4999.32
4999.3
4999.29
4999.28
4999.26
4999.25
4999.23
4999.22
4999.2
4999.18
4999.17
4999.15
4999.13
4999.11
4999.09
4999.06
4999.04
4999.02
4999
4998.98
4998.96
4998.94
4998.92
4998.9
4998.88
4998.86
4998.85
4998.83
4998.81
4998.79
4998.77
4998.75
4998.74
4998.72
4998.7
4998.68
4998.67
4998.65
4998.64
4998.63
4998.61
4998.6
4998.59
4998.57
4998.56
4998.55
4998.53
4998.52
4998.51
4998.5
4998.49
4998.47
4998.46
4998.45
4998.43
4998.42
4998.4
4998.39
4998.37
4998.35
4998.33
4998.32
4998.3
4998.28
4998.26
4998.25
4998.24
4998.22
4998.21
4998.2
4998.19
4998.17
4998.16
4998.15
4998.13
4998.12
4998.1
4998.09
4998.07
4998.05
4998.04
4998.02
4998.01
4997.99
4997.98
4997.96
4997.94
4997.92
4997.9
4997.89
4997.88
4997.87
4997.8
4997.6
4997.1
4995.87
4993.19
4985.57
4964.24
4916.72
4859.23
4810.55
4772.72
4737.31
4700.75
4663.14
4625.29
4587.3
4549.25
4511.2
4473.18
4435.24
4397.36
4359.58
4321.87
4284.25
4246.71
4209.25
4171.86
4134.53
4097.26
4060.05
4022.88
3985.75
3948.67
3911.61
3874.57
3837.56
3800.57
3763.6
3726.64
3689.7
3652.77
3615.86
3578.97
3542.08
3505.21
3468.35
3431.5
3394.65
3357.81
3320.98
3284.15
3247.33
3210.51
3173.68
3136.86
3100.04
3063.21
3026.38
2989.54
2952.7
2915.85
2879.01
2842.16
2805.32
2768.48
2731.64
2694.81
2657.97
2621.14
2584.31
2547.48
2510.65
2473.83
2437.01
2400.19
2363.38
2326.58
2289.78
2252.98
2216.19
2179.4
2142.62
2105.85
2069.08
2032.32
1995.56
1958.8
1922.05
1885.3
1848.55
1811.81
1775.07
1738.33
1701.6
1664.87
1628.14
1591.41
1554.69
1517.96
1481.24
1444.51
1407.79
1371.07
1334.34
1297.61
1260.89
1224.16
1187.44
1150.71
1113.99
1077.27
1040.55
1003.83
967.111
930.393
893.675
856.958
820.241
783.524
746.805
710.084
673.362
636.638
599.912
563.185
526.455
489.722
452.986
416.246
379.503
342.754
305.999
269.237
232.467
195.696
158.928
122.061
84.879
47.9534
15.2586
4999.38
4999.13
4999.4
4999.53
4999.49
4999.43
4999.42
4999.42
4999.42
4999.41
4999.4
4999.39
4999.38
4999.37
4999.36
4999.34
4999.33
4999.32
4999.31
4999.3
4999.29
4999.27
4999.26
4999.24
4999.23
4999.21
4999.2
4999.18
4999.16
4999.14
4999.12
4999.1
4999.09
4999.07
4999.05
4999.03
4999.01
4998.99
4998.97
4998.95
4998.93
4998.91
4998.89
4998.87
4998.85
4998.83
4998.81
4998.79
4998.78
4998.76
4998.74
4998.72
4998.71
4998.69
4998.67
4998.66
4998.64
4998.63
4998.62
4998.6
4998.59
4998.57
4998.56
4998.55
4998.54
4998.52
4998.51
4998.5
4998.48
4998.47
4998.46
4998.44
4998.43
4998.41
4998.4
4998.38
4998.37
4998.35
4998.33
4998.32
4998.3
4998.29
4998.27
4998.26
4998.24
4998.23
4998.22
4998.2
4998.19
4998.18
4998.16
4998.15
4998.13
4998.12
4998.1
4998.08
4998.07
4998.05
4998.03
4998.01
4998
4997.98
4997.97
4997.95
4997.94
4997.92
4997.91
4997.89
4997.87
4997.86
4997.83
4997.77
4997.65
4997.35
4996.53
4994.3
4989.11
4976.02
4940.52
4876.47
4818.58
4773.03
4730.72
4688.54
4646.59
4605.25
4564.42
4524.05
4484.1
4444.53
4405.29
4366.35
4327.66
4289.21
4250.96
4212.88
4174.97
4137.2
4099.55
4062.02
4024.58
3987.22
3949.94
3912.71
3875.53
3838.4
3801.3
3764.23
3727.19
3690.18
3653.19
3616.22
3579.27
3542.34
3505.43
3468.54
3431.66
3394.79
3357.93
3321.09
3284.25
3247.42
3210.59
3173.76
3136.94
3100.11
3063.28
3026.44
2989.6
2952.75
2915.9
2879.05
2842.2
2805.35
2768.5
2731.66
2694.82
2657.98
2621.15
2584.31
2547.48
2510.65
2473.82
2437
2400.19
2363.38
2326.57
2289.77
2252.98
2216.19
2179.4
2142.62
2105.85
2069.08
2032.32
1995.56
1958.8
1922.05
1885.3
1848.55
1811.81
1775.07
1738.33
1701.6
1664.87
1628.14
1591.41
1554.69
1517.96
1481.24
1444.51
1407.79
1371.06
1334.34
1297.61
1260.88
1224.16
1187.43
1150.71
1113.98
1077.26
1040.54
1003.82
967.1
930.38
893.661
856.941
820.221
783.501
746.778
710.054
673.327
636.598
599.867
563.133
526.397
489.657
452.914
416.166
379.413
342.654
305.889
269.115
232.334
195.55
158.77
121.889
84.6839
47.7468
15.1804
4999.38
4999.13
4999.4
4999.53
4999.48
4999.43
4999.42
4999.42
4999.41
4999.4
4999.39
4999.38
4999.37
4999.36
4999.35
4999.34
4999.33
4999.32
4999.31
4999.29
4999.28
4999.27
4999.25
4999.24
4999.22
4999.21
4999.19
4999.18
4999.16
4999.14
4999.12
4999.1
4999.09
4999.07
4999.05
4999.03
4999.01
4998.99
4998.97
4998.95
4998.93
4998.91
4998.89
4998.87
4998.85
4998.83
4998.82
4998.8
4998.78
4998.76
4998.74
4998.73
4998.71
4998.69
4998.68
4998.66
4998.65
4998.63
4998.62
4998.6
4998.59
4998.58
4998.56
4998.55
4998.54
4998.52
4998.51
4998.5
4998.48
4998.47
4998.45
4998.44
4998.43
4998.41
4998.4
4998.38
4998.37
4998.35
4998.33
4998.32
4998.3
4998.29
4998.27
4998.26
4998.24
4998.23
4998.21
4998.2
4998.19
4998.17
4998.16
4998.14
4998.13
4998.11
4998.1
4998.08
4998.06
4998.05
4998.03
4998.02
4998
4997.98
4997.97
4997.95
4997.93
4997.92
4997.9
4997.88
4997.86
4997.85
4997.82
4997.79
4997.74
4997.61
4997.28
4996.46
4994.46
4989.33
4975.02
4934.76
4868.65
4808.58
4758.48
4711.63
4665.85
4621.18
4577.69
4535.14
4493.4
4452.36
4411.9
4371.95
4332.42
4293.25
4254.4
4215.83
4177.49
4139.35
4101.4
4063.6
4025.94
3988.4
3950.95
3913.59
3876.3
3839.06
3801.87
3764.73
3727.62
3690.55
3653.51
3616.5
3579.52
3542.55
3505.61
3468.69
3431.79
3394.9
3358.03
3321.17
3284.33
3247.49
3210.66
3173.83
3137
3100.17
3063.33
3026.49
2989.64
2952.79
2915.93
2879.08
2842.22
2805.37
2768.52
2731.68
2694.83
2657.99
2621.15
2584.32
2547.48
2510.65
2473.83
2437
2400.19
2363.38
2326.57
2289.77
2252.97
2216.18
2179.4
2142.62
2105.85
2069.08
2032.32
1995.56
1958.8
1922.05
1885.3
1848.56
1811.81
1775.07
1738.34
1701.6
1664.87
1628.14
1591.41
1554.69
1517.96
1481.24
1444.51
1407.79
1371.06
1334.33
1297.61
1260.88
1224.15
1187.43
1150.7
1113.98
1077.26
1040.53
1003.81
967.091
930.37
893.649
856.927
820.206
783.482
746.757
710.029
673.299
636.566
599.831
563.093
526.353
489.608
452.859
416.104
379.345
342.579
305.807
269.025
232.236
195.443
158.656
121.764
84.5447
47.6001
15.1249
4999.38
4999.13
4999.4
4999.52
4999.48
4999.43
4999.42
4999.42
4999.41
4999.4
4999.39
4999.38
4999.37
4999.36
4999.35
4999.34
4999.33
4999.32
4999.31
4999.29
4999.28
4999.27
4999.25
4999.24
4999.22
4999.21
4999.19
4999.17
4999.16
4999.14
4999.12
4999.1
4999.08
4999.07
4999.05
4999.03
4999.01
4998.99
4998.97
4998.95
4998.93
4998.91
4998.89
4998.87
4998.85
4998.84
4998.82
4998.8
4998.78
4998.76
4998.75
4998.73
4998.71
4998.7
4998.68
4998.66
4998.65
4998.63
4998.62
4998.61
4998.59
4998.58
4998.56
4998.55
4998.54
4998.52
4998.51
4998.5
4998.48
4998.47
4998.45
4998.44
4998.42
4998.41
4998.4
4998.38
4998.37
4998.35
4998.33
4998.32
4998.3
4998.29
4998.27
4998.26
4998.24
4998.23
4998.22
4998.2
4998.19
4998.17
4998.16
4998.14
4998.13
4998.11
4998.1
4998.08
4998.06
4998.05
4998.03
4998.02
4998
4997.98
4997.97
4997.95
4997.93
4997.92
4997.9
4997.88
4997.86
4997.84
4997.82
4997.8
4997.76
4997.69
4997.51
4997.07
4995.9
4992.89
4984.68
4959.79
4902.4
4835.33
4778.44
4727.79
4679.36
4632.37
4586.93
4542.81
4499.79
4457.69
4416.36
4375.69
4335.58
4295.93
4256.68
4217.78
4179.16
4140.78
4102.62
4064.66
4026.85
3989.18
3951.63
3914.17
3876.8
3839.49
3802.24
3765.05
3727.9
3690.8
3653.73
3616.69
3579.68
3542.69
3505.73
3468.8
3431.88
3394.99
3358.11
3321.24
3284.39
3247.55
3210.71
3173.87
3137.04
3100.2
3063.36
3026.51
2989.66
2952.81
2915.95
2879.09
2842.24
2805.38
2768.53
2731.69
2694.84
2658
2621.16
2584.32
2547.49
2510.66
2473.83
2437.01
2400.19
2363.38
2326.57
2289.77
2252.98
2216.18
2179.4
2142.62
2105.85
2069.08
2032.32
1995.56
1958.8
1922.05
1885.3
1848.56
1811.82
1775.08
1738.34
1701.61
1664.87
1628.14
1591.41
1554.69
1517.96
1481.23
1444.51
1407.78
1371.05
1334.33
1297.6
1260.87
1224.15
1187.42
1150.7
1113.98
1077.25
1040.53
1003.81
967.086
930.364
893.642
856.919
820.195
783.47
746.743
710.013
673.281
636.546
599.809
563.069
526.325
489.577
452.825
416.067
379.303
342.534
305.757
268.971
232.176
195.379
158.587
121.69
84.4614
47.5125
15.0918
4999.38
4999.13
4999.4
4999.52
4999.48
4999.43
4999.42
4999.42
4999.41
4999.4
4999.39
4999.38
4999.37
4999.36
4999.35
4999.34
4999.33
4999.32
4999.3
4999.29
4999.28
4999.27
4999.25
4999.24
4999.22
4999.21
4999.19
4999.17
4999.16
4999.14
4999.12
4999.1
4999.08
4999.07
4999.05
4999.03
4999.01
4998.99
4998.97
4998.95
4998.93
4998.91
4998.89
4998.87
4998.86
4998.84
4998.82
4998.8
4998.78
4998.76
4998.75
4998.73
4998.71
4998.7
4998.68
4998.67
4998.65
4998.64
4998.62
4998.61
4998.59
4998.58
4998.56
4998.55
4998.54
4998.52
4998.51
4998.5
4998.48
4998.47
4998.45
4998.44
4998.42
4998.41
4998.4
4998.38
4998.37
4998.35
4998.33
4998.32
4998.3
4998.29
4998.27
4998.26
4998.24
4998.23
4998.21
4998.2
4998.18
4998.17
4998.16
4998.14
4998.13
4998.11
4998.09
4998.08
4998.06
4998.05
4998.03
4998.02
4998
4997.98
4997.97
4997.95
4997.93
4997.91
4997.9
4997.88
4997.86
4997.84
4997.82
4997.8
4997.76
4997.7
4997.57
4997.24
4996.37
4993.98
4987.19
4966.9
4914.46
4846.16
4786.26
4734.05
4684.55
4636.7
4590.48
4545.75
4502.22
4459.71
4418.04
4377.1
4336.76
4296.94
4257.55
4218.52
4179.8
4141.34
4103.11
4065.08
4027.21
3989.49
3951.89
3914.4
3876.99
3839.65
3802.38
3765.17
3728.01
3690.89
3653.81
3616.77
3579.75
3542.76
3505.79
3468.85
3431.93
3395.03
3358.15
3321.28
3284.42
3247.57
3210.73
3173.89
3137.05
3100.21
3063.37
3026.52
2989.67
2952.81
2915.95
2879.1
2842.24
2805.39
2768.54
2731.69
2694.85
2658
2621.16
2584.33
2547.49
2510.66
2473.84
2437.02
2400.2
2363.39
2326.58
2289.78
2252.98
2216.19
2179.4
2142.62
2105.85
2069.08
2032.32
1995.56
1958.8
1922.05
1885.3
1848.56
1811.82
1775.08
1738.34
1701.61
1664.87
1628.14
1591.41
1554.69
1517.96
1481.23
1444.51
1407.78
1371.05
1334.33
1297.6
1260.87
1224.15
1187.42
1150.7
1113.98
1077.25
1040.53
1003.81
967.085
930.362
893.639
856.916
820.192
783.466
746.738
710.008
673.275
636.539
599.801
563.06
526.316
489.567
452.814
416.054
379.29
342.519
305.74
268.953
232.157
195.358
158.564
121.665
84.4338
47.4835
15.0807
4999.38
4999.13
4999.4
4999.52
4999.48
4999.43
4999.42
4999.42
4999.41
4999.4
4999.39
4999.38
4999.37
4999.36
4999.35
4999.34
4999.33
4999.32
4999.31
4999.29
4999.28
4999.27
4999.25
4999.24
4999.22
4999.21
4999.19
4999.17
4999.16
4999.14
4999.12
4999.1
4999.08
4999.07
4999.05
4999.03
4999.01
4998.99
4998.97
4998.95
4998.93
4998.91
4998.89
4998.87
4998.85
4998.84
4998.82
4998.8
4998.78
4998.76
4998.75
4998.73
4998.71
4998.7
4998.68
4998.66
4998.65
4998.63
4998.62
4998.61
4998.59
4998.58
4998.56
4998.55
4998.54
4998.52
4998.51
4998.5
4998.48
4998.47
4998.45
4998.44
4998.43
4998.41
4998.4
4998.38
4998.37
4998.35
4998.33
4998.32
4998.3
4998.29
4998.27
4998.26
4998.24
4998.23
4998.22
4998.2
4998.19
4998.17
4998.16
4998.14
4998.13
4998.11
4998.1
4998.08
4998.07
4998.05
4998.03
4998.02
4998
4997.98
4997.97
4997.95
4997.93
4997.92
4997.9
4997.88
4997.86
4997.84
4997.82
4997.8
4997.76
4997.69
4997.53
4997.12
4996.02
4993.14
4985.32
4961.83
4905.8
4838.12
4780.33
4729.27
4680.58
4633.38
4587.73
4543.46
4500.31
4458.11
4416.71
4375.98
4335.83
4296.16
4256.89
4217.97
4179.34
4140.96
4102.8
4064.82
4027
3989.31
3951.73
3914.25
3876.86
3839.54
3802.28
3765.08
3727.94
3690.83
3653.77
3616.73
3579.72
3542.74
3505.78
3468.85
3431.93
3395.03
3358.15
3321.28
3284.42
3247.57
3210.73
3173.88
3137.04
3100.2
3063.35
3026.5
2989.65
2952.8
2915.94
2879.09
2842.23
2805.38
2768.54
2731.69
2694.85
2658.01
2621.17
2584.34
2547.5
2510.67
2473.85
2437.03
2400.21
2363.39
2326.59
2289.78
2252.99
2216.19
2179.41
2142.63
2105.86
2069.09
2032.32
1995.56
1958.81
1922.05
1885.3
1848.56
1811.82
1775.08
1738.34
1701.61
1664.87
1628.14
1591.41
1554.68
1517.96
1481.23
1444.5
1407.78
1371.05
1334.32
1297.6
1260.87
1224.15
1187.42
1150.7
1113.98
1077.26
1040.53
1003.81
967.088
930.365
893.642
856.919
820.195
783.47
746.743
710.013
673.281
636.546
599.809
563.069
526.326
489.579
452.826
416.068
379.305
342.535
305.758
268.972
232.177
195.38
158.588
121.691
84.4618
47.5127
15.0918
4999.38
4999.13
4999.4
4999.53
4999.48
4999.43
4999.42
4999.42
4999.41
4999.4
4999.39
4999.38
4999.37
4999.36
4999.35
4999.34
4999.33
4999.32
4999.31
4999.29
4999.28
4999.27
4999.25
4999.24
4999.22
4999.21
4999.19
4999.18
4999.16
4999.14
4999.12
4999.1
4999.09
4999.07
4999.05
4999.03
4999.01
4998.99
4998.97
4998.95
4998.93
4998.91
4998.89
4998.87
4998.85
4998.83
4998.82
4998.8
4998.78
4998.76
4998.74
4998.73
4998.71
4998.69
4998.68
4998.66
4998.65
4998.63
4998.62
4998.6
4998.59
4998.58
4998.56
4998.55
4998.54
4998.52
4998.51
4998.5
4998.48
4998.47
4998.45
4998.44
4998.43
4998.41
4998.4
4998.38
4998.37
4998.35
4998.34
4998.32
4998.3
4998.29
4998.27
4998.26
4998.24
4998.23
4998.21
4998.2
4998.18
4998.17
4998.16
4998.14
4998.13
4998.11
4998.1
4998.08
4998.06
4998.05
4998.03
4998.02
4998
4997.99
4997.97
4997.95
4997.94
4997.92
4997.9
4997.88
4997.86
4997.84
4997.82
4997.79
4997.74
4997.63
4997.34
4996.62
4994.82
4990.27
4977.63
4940.66
4875.33
4813.06
4761.67
4714.19
4668
4622.94
4579.13
4536.33
4494.38
4453.16
4412.56
4372.5
4332.89
4293.68
4254.8
4216.2
4177.85
4139.7
4101.72
4063.9
4026.21
3988.63
3951.15
3913.74
3876.42
3839.16
3801.95
3764.8
3727.7
3690.63
3653.59
3616.58
3579.6
3542.64
3505.7
3468.79
3431.88
3394.99
3358.12
3321.25
3284.39
3247.54
3210.69
3173.85
3137.01
3100.16
3063.31
3026.47
2989.62
2952.77
2915.92
2879.07
2842.22
2805.37
2768.53
2731.69
2694.85
2658.01
2621.18
2584.34
2547.51
2510.68
2473.86
2437.04
2400.22
2363.4
2326.6
2289.79
2253
2216.2
2179.42
2142.64
2105.86
2069.09
2032.33