/*--------------------------------*- C++ -*----------------------------------*\
| =========                 |                                                 |
| \\      /  F ield         | OpenFOAM: The Open Source CFD Toolbox           |
|  \\    /   O peration     | Version:  2406                                  |
|   \\  /    A nd           | Website:  www.openfoam.com                      |
|    \\/     M anipulation  |                                                 |
\*---------------------------------------------------------------------------*/
FoamFile
{
    version     2.0;
    format      ascii;
    arch        "LSB;label=32;scalar=64";
    class       volScalarField;
    location    "0.15";
    object      p_rgh;
}
// * * * * * * * * * * * * * * * * * * * * * * * * * * * * * * * * * * * * * //

dimensions      [1 -1 -2 0 0 0 0];

internalField   nonuniform List<scalar> 
6250
(
4247.33
3689.08
3977.11
4208.15
4194.03
4107.16
4064.49
4058.75
4053.51
4037.73
4017.96
3999.8
3983.39
3967.16
3950.49
3933.59
3916.73
3899.95
3883.2
3866.44
3849.67
3832.89
3816.12
3799.35
3782.57
3765.8
3749.02
3732.24
3715.46
3698.68
3681.91
3665.14
3648.37
3631.6
3614.82
3598.05
3581.28
3564.5
3547.72
3530.95
3514.18
3497.41
3480.63
3463.85
3447.07
3430.3
3413.53
3396.76
3379.98
3363.2
3346.43
3329.66
3312.89
3296.11
3279.34
3262.56
3245.78
3229.01
3212.24
3195.47
3178.69
3161.91
3145.14
3128.36
3111.59
3094.82
3078.04
3061.27
3044.49
3027.72
3010.95
2994.17
2977.4
2960.62
2943.85
2927.07
2910.3
2893.53
2876.75
2859.98
2843.2
2826.43
2809.65
2792.88
2776.11
2759.33
2742.56
2725.78
2709.01
2692.23
2675.46
2658.69
2641.92
2625.14
2608.36
2591.59
2574.81
2558.04
2541.27
2524.5
2507.72
2490.95
2474.17
2457.4
2440.62
2423.85
2407.08
2390.31
2373.53
2356.76
2339.98
2323.2
2306.43
2289.66
2272.89
2256.11
2239.34
2222.56
2205.79
2189.01
2172.24
2155.46
2138.69
2121.92
2105.14
2088.37
2071.59
2054.82
2038.04
2021.27
2004.49
1987.71
1970.94
1954.17
1937.4
1920.62
1903.85
1887.07
1870.29
1853.51
1836.74
1819.97
1803.19
1786.42
1769.65
1752.87
1736.09
1719.31
1702.54
1685.76
1668.99
1652.22
1635.45
1618.67
1601.89
1585.12
1568.34
1551.56
1534.79
1518.02
1501.25
1484.47
1467.7
1450.92
1434.15
1417.38
1400.61
1383.84
1367.06
1350.29
1333.52
1316.74
1299.97
1283.19
1266.42
1249.65
1232.88
1216.11
1199.34
1182.56
1165.79
1149.01
1132.23
1115.46
1098.68
1081.91
1065.13
1048.36
1031.59
1014.81
998.034
981.254
964.473
947.691
930.911
914.133
897.358
880.586
863.816
847.047
830.277
813.507
796.734
779.96
763.183
746.404
729.626
712.851
696.077
679.306
662.537
645.769
629.003
612.238
595.473
578.706
561.938
545.168
528.397
511.623
494.849
478.072
461.292
444.509
427.724
410.936
394.145
377.353
360.559
343.764
326.969
310.178
293.389
276.605
259.826
243.051
226.281
209.515
192.753
175.994
159.235
142.476
125.717
108.956
92.1953
75.4334
58.6706
41.9073
25.1437
8.38136
4247.31
3689.04
3977.09
4208.16
4194.04
4107.17
4064.49
4058.75
4053.52
4037.73
4017.95
3999.8
3983.4
3967.17
3950.48
3933.58
3916.73
3899.96
3883.21
3866.45
3849.68
3832.9
3816.12
3799.34
3782.55
3765.77
3749.01
3732.24
3715.47
3698.69
3681.92
3665.14
3648.36
3631.59
3614.82
3598.04
3581.27
3564.5
3547.73
3530.95
3514.17
3497.4
3480.63
3463.86
3447.08
3430.3
3413.53
3396.75
3379.98
3363.21
3346.43
3329.66
3312.88
3296.11
3279.34
3262.56
3245.78
3229.01
3212.24
3195.46
3178.69
3161.92
3145.14
3128.36
3111.59
3094.82
3078.04
3061.27
3044.49
3027.72
3010.95
2994.17
2977.4
2960.62
2943.85
2927.07
2910.3
2893.53
2876.75
2859.98
2843.2
2826.43
2809.65
2792.88
2776.11
2759.33
2742.56
2725.78
2709.01
2692.23
2675.46
2658.69
2641.92
2625.14
2608.36
2591.59
2574.82
2558.04
2541.27
2524.5
2507.72
2490.95
2474.17
2457.4
2440.62
2423.85
2407.08
2390.31
2373.53
2356.75
2339.98
2323.2
2306.43
2289.66
2272.89
2256.11
2239.34
2222.56
2205.79
2189.01
2172.24
2155.46
2138.69
2121.92
2105.14
2088.37
2071.59
2054.82
2038.04
2021.27
2004.49
1987.72
1970.94
1954.17
1937.4
1920.62
1903.85
1887.07
1870.29
1853.51
1836.74
1819.97
1803.2
1786.42
1769.65
1752.87
1736.09
1719.31
1702.53
1685.76
1668.99
1652.22
1635.45
1618.67
1601.89
1585.11
1568.34
1551.56
1534.79
1518.02
1501.25
1484.47
1467.7
1450.92
1434.15
1417.38
1400.61
1383.84
1367.07
1350.29
1333.52
1316.74
1299.97
1283.19
1266.42
1249.65
1232.88
1216.11
1199.34
1182.57
1165.79
1149.01
1132.23
1115.45
1098.68
1081.9
1065.13
1048.36
1031.59
1014.81
998.034
981.254
964.472
947.69
930.909
914.131
897.357
880.587
863.818
847.05
830.279
813.508
796.734
779.959
763.182
746.404
729.626
712.85
696.077
679.306
662.538
645.771
629.004
612.238
595.472
578.706
561.938
545.169
528.397
511.624
494.848
478.072
461.293
444.511
427.726
410.937
394.145
377.352
360.558
343.763
326.969
310.176
293.387
276.603
259.824
243.05
226.281
209.515
192.752
175.992
159.234
142.476
125.718
108.958
92.1964
75.4341
58.6709
41.9074
25.1437
8.38158
4247.32
3689.05
3977.1
4208.16
4194.03
4107.16
4064.5
4058.76
4053.51
4037.73
4017.95
3999.8
3983.4
3967.16
3950.47
3933.58
3916.72
3899.96
3883.21
3866.45
3849.67
3832.9
3816.13
3799.35
3782.57
3765.78
3749.01
3732.23
3715.46
3698.69
3681.92
3665.14
3648.37
3631.6
3614.82
3598.05
3581.27
3564.5
3547.73
3530.96
3514.18
3497.4
3480.63
3463.85
3447.08
3430.3
3413.53
3396.76
3379.98
3363.21
3346.43
3329.66
3312.88
3296.11
3279.34
3262.56
3245.79
3229.01
3212.24
3195.46
3178.69
3161.91
3145.14
3128.37
3111.59
3094.82
3078.04
3061.27
3044.49
3027.72
3010.95
2994.17
2977.4
2960.62
2943.85
2927.07
2910.3
2893.52
2876.75
2859.98
2843.2
2826.43
2809.65
2792.88
2776.11
2759.33
2742.56
2725.78
2709.01
2692.23
2675.46
2658.69
2641.91
2625.14
2608.36
2591.59
2574.82
2558.04
2541.27
2524.5
2507.72
2490.95
2474.17
2457.4
2440.62
2423.85
2407.08
2390.31
2373.53
2356.76
2339.98
2323.2
2306.43
2289.66
2272.89
2256.11
2239.34
2222.56
2205.78
2189.01
2172.24
2155.47
2138.69
2121.91
2105.14
2088.36
2071.59
2054.82
2038.04
2021.27
2004.49
1987.71
1970.94
1954.17
1937.4
1920.62
1903.85
1887.07
1870.29
1853.51
1836.74
1819.97
1803.2
1786.42
1769.65
1752.87
1736.09
1719.31
1702.54
1685.76
1668.99
1652.22
1635.45
1618.67
1601.89
1585.11
1568.34
1551.57
1534.79
1518.02
1501.25
1484.47
1467.7
1450.92
1434.15
1417.38
1400.61
1383.84
1367.07
1350.29
1333.52
1316.74
1299.97
1283.19
1266.42
1249.65
1232.88
1216.11
1199.34
1182.56
1165.79
1149.01
1132.23
1115.45
1098.68
1081.9
1065.13
1048.36
1031.59
1014.81
998.034
981.252
964.47
947.688
930.908
914.132
897.358
880.587
863.817
847.049
830.28
813.509
796.735
779.959
763.181
746.403
729.626
712.85
696.077
679.306
662.537
645.77
629.005
612.24
595.474
578.707
561.938
545.169
528.398
511.625
494.85
478.072
461.293
444.511
427.726
410.938
394.146
377.352
360.557
343.762
326.968
310.176
293.387
276.603
259.823
243.05
226.281
209.516
192.754
175.994
159.235
142.477
125.718
108.958
92.1965
75.4337
58.6703
41.9067
25.1431
8.38145
4247.32
3689.04
3977.08
4208.16
4194.04
4107.16
4064.49
4058.75
4053.51
4037.73
4017.96
3999.81
3983.4
3967.16
3950.47
3933.58
3916.73
3899.96
3883.22
3866.45
3849.67
3832.9
3816.12
3799.34
3782.57
3765.79
3749.01
3732.23
3715.46
3698.68
3681.91
3665.14
3648.37
3631.59
3614.82
3598.05
3581.27
3564.49
3547.72
3530.95
3514.18
3497.4
3480.63
3463.85
3447.08
3430.3
3413.53
3396.76
3379.98
3363.21
3346.43
3329.66
3312.88
3296.11
3279.34
3262.56
3245.79
3229.01
3212.24
3195.46
3178.69
3161.91
3145.14
3128.37
3111.59
3094.82
3078.04
3061.27
3044.49
3027.72
3010.95
2994.17
2977.4
2960.62
2943.85
2927.07
2910.3
2893.52
2876.75
2859.98
2843.2
2826.43
2809.65
2792.88
2776.11
2759.33
2742.56
2725.78
2709.01
2692.23
2675.46
2658.69
2641.91
2625.14
2608.36
2591.59
2574.82
2558.04
2541.27
2524.5
2507.72
2490.95
2474.17
2457.4
2440.63
2423.85
2407.08
2390.3
2373.53
2356.76
2339.98
2323.21
2306.43
2289.66
2272.88
2256.11
2239.34
2222.56
2205.79
2189.01
2172.24
2155.46
2138.69
2121.91
2105.14
2088.36
2071.59
2054.82
2038.04
2021.27
2004.49
1987.71
1970.94
1954.17
1937.4
1920.62
1903.85
1887.07
1870.29
1853.51
1836.74
1819.97
1803.2
1786.42
1769.65
1752.87
1736.09
1719.31
1702.54
1685.76
1668.99
1652.22
1635.45
1618.67
1601.89
1585.11
1568.34
1551.57
1534.79
1518.02
1501.25
1484.47
1467.7
1450.92
1434.15
1417.38
1400.61
1383.84
1367.07
1350.29
1333.52
1316.74
1299.97
1283.19
1266.42
1249.65
1232.88
1216.11
1199.34
1182.56
1165.78
1149.01
1132.23
1115.45
1098.68
1081.91
1065.13
1048.36
1031.59
1014.81
998.034
981.251
964.468
947.686
930.907
914.131
897.358
880.588
863.819
847.05
830.281
813.509
796.736
779.959
763.181
746.403
729.625
712.85
696.077
679.307
662.538
645.771
629.005
612.24
595.475
578.707
561.939
545.168
528.397
511.624
494.85
478.073
461.293
444.511
427.726
410.938
394.147
377.353
360.557
343.762
326.967
310.176
293.388
276.604
259.824
243.05
226.281
209.516
192.755
175.995
159.236
142.477
125.718
108.958
92.1963
75.4337
58.6703
41.9068
25.1432
8.3815
4247.31
3689.04
3977.08
4208.16
4194.05
4107.16
4064.48
4058.75
4053.51
4037.73
4017.96
3999.81
3983.4
3967.16
3950.48
3933.58
3916.72
3899.95
3883.21
3866.45
3849.67
3832.9
3816.12
3799.34
3782.56
3765.79
3749.01
3732.24
3715.47
3698.69
3681.92
3665.14
3648.37
3631.59
3614.82
3598.05
3581.28
3564.5
3547.72
3530.95
3514.18
3497.4
3480.63
3463.85
3447.08
3430.3
3413.53
3396.76
3379.98
3363.21
3346.43
3329.66
3312.88
3296.11
3279.34
3262.56
3245.79
3229.01
3212.24
3195.46
3178.69
3161.91
3145.14
3128.36
3111.59
3094.82
3078.04
3061.27
3044.49
3027.72
3010.94
2994.17
2977.4
2960.62
2943.85
2927.07
2910.3
2893.53
2876.75
2859.98
2843.2
2826.43
2809.65
2792.88
2776.11
2759.33
2742.56
2725.78
2709.01
2692.23
2675.46
2658.69
2641.91
2625.14
2608.37
2591.59
2574.82
2558.04
2541.27
2524.5
2507.72
2490.95
2474.17
2457.4
2440.62
2423.85
2407.08
2390.3
2373.53
2356.75
2339.98
2323.21
2306.43
2289.66
2272.88
2256.11
2239.33
2222.56
2205.79
2189.01
2172.24
2155.46
2138.69
2121.91
2105.14
2088.37
2071.59
2054.82
2038.04
2021.26
2004.49
1987.71
1970.94
1954.17
1937.4
1920.62
1903.85
1887.07
1870.29
1853.51
1836.74
1819.97
1803.2
1786.42
1769.65
1752.87
1736.09
1719.31
1702.54
1685.77
1668.99
1652.22
1635.45
1618.67
1601.89
1585.12
1568.34
1551.57
1534.79
1518.02
1501.25
1484.47
1467.7
1450.92
1434.15
1417.38
1400.61
1383.84
1367.07
1350.29
1333.52
1316.74
1299.97
1283.19
1266.42
1249.65
1232.88
1216.11
1199.34
1182.56
1165.78
1149
1132.23
1115.45
1098.68
1081.91
1065.14
1048.36
1031.59
1014.81
998.032
981.25
964.466
947.684
930.905
914.13
897.358
880.588
863.82
847.051
830.281
813.51
796.736
779.96
763.182
746.403
729.625
712.85
696.077
679.307
662.539
645.772
629.007
612.241
595.475
578.708
561.939
545.169
528.397
511.624
494.849
478.073
461.294
444.511
427.726
410.938
394.146
377.353
360.558
343.763
326.968
310.176
293.387
276.604
259.825
243.051
226.282
209.517
192.755
175.996
159.237
142.478
125.719
108.958
92.1967
75.4339
58.6703
41.9066
25.143
8.38135
4247.31
3689.04
3977.09
4208.17
4194.05
4107.15
4064.48
4058.75
4053.51
4037.73
4017.96
3999.8
3983.4
3967.16
3950.47
3933.58
3916.73
3899.97
3883.22
3866.45
3849.68
3832.9
3816.12
3799.34
3782.56
3765.78
3749.01
3732.23
3715.46
3698.69
3681.91
3665.14
3648.37
3631.59
3614.82
3598.04
3581.27
3564.5
3547.72
3530.95
3514.18
3497.41
3480.63
3463.85
3447.08
3430.3
3413.53
3396.75
3379.98
3363.21
3346.43
3329.66
3312.89
3296.11
3279.34
3262.56
3245.79
3229.01
3212.24
3195.46
3178.69
3161.92
3145.14
3128.36
3111.59
3094.82
3078.05
3061.27
3044.49
3027.72
3010.94
2994.17
2977.4
2960.62
2943.85
2927.07
2910.3
2893.53
2876.75
2859.98
2843.2
2826.43
2809.65
2792.88
2776.11
2759.33
2742.56
2725.78
2709.01
2692.23
2675.46
2658.69
2641.91
2625.14
2608.37
2591.59
2574.82
2558.04
2541.27
2524.5
2507.72
2490.95
2474.17
2457.4
2440.62
2423.85
2407.08
2390.3
2373.53
2356.76
2339.98
2323.21
2306.43
2289.66
2272.88
2256.11
2239.33
2222.56
2205.79
2189.01
2172.24
2155.46
2138.68
2121.91
2105.14
2088.37
2071.6
2054.82
2038.04
2021.26
2004.49
1987.71
1970.94
1954.17
1937.4
1920.62
1903.84
1887.06
1870.29
1853.51
1836.74
1819.97
1803.2
1786.42
1769.65
1752.87
1736.09
1719.31
1702.54
1685.77
1668.99
1652.22
1635.45
1618.67
1601.89
1585.12
1568.34
1551.57
1534.8
1518.02
1501.25
1484.47
1467.7
1450.93
1434.15
1417.38
1400.61
1383.84
1367.07
1350.29
1333.52
1316.74
1299.97
1283.19
1266.42
1249.65
1232.88
1216.11
1199.34
1182.56
1165.78
1149
1132.22
1115.45
1098.68
1081.91
1065.14
1048.37
1031.59
1014.81
998.031
981.248
964.464
947.683
930.904
914.129
897.358
880.589
863.821
847.053
830.283
813.511
796.736
779.96
763.181
746.403
729.625
712.85
696.078
679.308
662.54
645.774
629.008
612.242
595.476
578.708
561.939
545.169
528.397
511.624
494.849
478.072
461.294
444.512
427.727
410.938
394.147
377.353
360.558
343.763
326.969
310.177
293.388
276.604
259.826
243.052
226.283
209.518
192.756
175.997
159.238
142.479
125.719
108.958
92.1965
75.4335
58.67
41.9063
25.1429
8.38122
4247.31
3689.04
3977.07
4208.15
4194.05
4107.17
4064.49
4058.74
4053.5
4037.73
4017.96
3999.81
3983.41
3967.16
3950.48
3933.58
3916.72
3899.95
3883.21
3866.45
3849.68
3832.9
3816.12
3799.35
3782.57
3765.79
3749.01
3732.24
3715.46
3698.69
3681.91
3665.14
3648.37
3631.6
3614.82
3598.05
3581.27
3564.5
3547.72
3530.95
3514.18
3497.4
3480.63
3463.85
3447.08
3430.3
3413.53
3396.76
3379.98
3363.21
3346.43
3329.66
3312.88
3296.11
3279.34
3262.56
3245.79
3229.01
3212.24
3195.46
3178.69
3161.91
3145.14
3128.36
3111.59
3094.82
3078.04
3061.27
3044.49
3027.72
3010.95
2994.17
2977.4
2960.62
2943.85
2927.07
2910.3
2893.53
2876.75
2859.98
2843.2
2826.43
2809.65
2792.88
2776.11
2759.33
2742.56
2725.78
2709.01
2692.23
2675.46
2658.69
2641.91
2625.14
2608.37
2591.59
2574.82
2558.04
2541.27
2524.49
2507.72
2490.95
2474.17
2457.4
2440.62
2423.85
2407.07
2390.3
2373.53
2356.76
2339.98
2323.21
2306.43
2289.65
2272.88
2256.1
2239.33
2222.56
2205.79
2189.01
2172.23
2155.46
2138.68
2121.91
2105.14
2088.37
2071.6
2054.82
2038.04
2021.26
2004.48
1987.71
1970.94
1954.17
1937.4
1920.62
1903.84
1887.06
1870.29
1853.51
1836.74
1819.97
1803.2
1786.42
1769.65
1752.87
1736.09
1719.31
1702.54
1685.77
1668.99
1652.22
1635.45
1618.67
1601.89
1585.12
1568.34
1551.57
1534.8
1518.02
1501.25
1484.47
1467.7
1450.93
1434.15
1417.38
1400.61
1383.84
1367.07
1350.29
1333.52
1316.74
1299.97
1283.2
1266.43
1249.66
1232.88
1216.11
1199.33
1182.56
1165.78
1149
1132.22
1115.45
1098.68
1081.91
1065.14
1048.37
1031.59
1014.81
998.029
981.245
964.462
947.681
930.903
914.129
897.358
880.589
863.822
847.054
830.284
813.512
796.737
779.96
763.181
746.403
729.626
712.851
696.078
679.309
662.542
645.776
629.01
612.244
595.477
578.708
561.939
545.168
528.397
511.624
494.849
478.072
461.293
444.512
427.727
410.939
394.147
377.354
360.559
343.764
326.969
310.178
293.389
276.605
259.827
243.053
226.284
209.519
192.758
175.998
159.239
142.48
125.72
108.959
92.1967
75.4336
58.6699
41.9062
25.1428
8.38115
4247.32
3689.04
3977.08
4208.15
4194.04
4107.16
4064.49
4058.75
4053.52
4037.73
4017.96
3999.8
3983.4
3967.16
3950.47
3933.57
3916.73
3899.96
3883.21
3866.45
3849.68
3832.9
3816.12
3799.34
3782.56
3765.79
3749.01
3732.24
3715.46
3698.69
3681.92
3665.14
3648.36
3631.59
3614.82
3598.05
3581.27
3564.5
3547.72
3530.95
3514.18
3497.4
3480.63
3463.85
3447.08
3430.3
3413.53
3396.76
3379.98
3363.21
3346.43
3329.66
3312.88
3296.11
3279.33
3262.56
3245.79
3229.01
3212.24
3195.47
3178.69
3161.91
3145.14
3128.37
3111.59
3094.82
3078.04
3061.27
3044.49
3027.72
3010.95
2994.17
2977.4
2960.62
2943.85
2927.07
2910.3
2893.53
2876.75
2859.98
2843.2
2826.43
2809.65
2792.88
2776.11
2759.33
2742.56
2725.79
2709.01
2692.23
2675.46
2658.69
2641.91
2625.14
2608.37
2591.59
2574.82
2558.04
2541.27
2524.49
2507.72
2490.95
2474.18
2457.4
2440.62
2423.85
2407.07
2390.3
2373.53
2356.76
2339.98
2323.21
2306.43
2289.65
2272.88
2256.1
2239.34
2222.56
2205.79
2189.01
2172.23
2155.45
2138.68
2121.91
2105.14
2088.37
2071.6
2054.82
2038.04
2021.26
2004.48
1987.71
1970.94
1954.17
1937.4
1920.62
1903.84
1887.06
1870.29
1853.51
1836.74
1819.97
1803.2
1786.42
1769.65
1752.87
1736.09
1719.31
1702.54
1685.77
1668.99
1652.22
1635.45
1618.67
1601.89
1585.12
1568.35
1551.57
1534.8
1518.03
1501.25
1484.48
1467.7
1450.93
1434.16
1417.38
1400.61
1383.84
1367.06
1350.29
1333.51
1316.74
1299.97
1283.2
1266.43
1249.66
1232.88
1216.11
1199.33
1182.55
1165.77
1149
1132.22
1115.45
1098.68
1081.91
1065.14
1048.37
1031.59
1014.81
998.027
981.243
964.459
947.678
930.901
914.128
897.358
880.591
863.823
847.055
830.285
813.513
796.737
779.96
763.181
746.403
729.626
712.851
696.08
679.311
662.544
645.777
629.011
612.245
595.477
578.709
561.939
545.168
528.396
511.623
494.849
478.072
461.293
444.512
427.727
410.939
394.148
377.355
360.56
343.764
326.97
310.179
293.391
276.607
259.828
243.055
226.286
209.521
192.759
175.999
159.24
142.48
125.72
108.959
92.1968
75.4334
58.6696
41.9059
25.1426
8.38099
4247.32
3689.04
3977.07
4208.15
4194.04
4107.16
4064.49
4058.75
4053.51
4037.73
4017.96
3999.8
3983.4
3967.17
3950.48
3933.58
3916.73
3899.96
3883.21
3866.45
3849.68
3832.9
3816.12
3799.34
3782.56
3765.79
3749.01
3732.23
3715.46
3698.69
3681.92
3665.14
3648.37
3631.59
3614.82
3598.05
3581.28
3564.5
3547.72
3530.95
3514.18
3497.4
3480.63
3463.85
3447.08
3430.3
3413.53
3396.75
3379.98
3363.21
3346.43
3329.66
3312.88
3296.11
3279.34
3262.56
3245.79
3229.01
3212.24
3195.47
3178.69
3161.91
3145.14
3128.37
3111.59
3094.82
3078.04
3061.27
3044.49
3027.72
3010.95
2994.17
2977.4
2960.62
2943.85
2927.07
2910.3
2893.53
2876.75
2859.98
2843.2
2826.43
2809.65
2792.88
2776.11
2759.33
2742.56
2725.79
2709.01
2692.23
2675.46
2658.69
2641.91
2625.14
2608.37
2591.59
2574.82
2558.04
2541.27
2524.49
2507.72
2490.95
2474.18
2457.4
2440.62
2423.85
2407.07
2390.3
2373.53
2356.76
2339.98
2323.2
2306.42
2289.65
2272.87
2256.1
2239.34
2222.56
2205.79
2189.01
2172.23
2155.45
2138.68
2121.91
2105.14
2088.37
2071.6
2054.82
2038.04
2021.26
2004.48
1987.71
1970.94
1954.17
1937.4
1920.62
1903.84
1887.06
1870.29
1853.51
1836.74
1819.97
1803.2
1786.42
1769.65
1752.87
1736.09
1719.31
1702.54
1685.77
1669
1652.22
1635.45
1618.67
1601.9
1585.12
1568.35
1551.57
1534.8
1518.03
1501.25
1484.48
1467.7
1450.93
1434.16
1417.39
1400.61
1383.84
1367.06
1350.29
1333.51
1316.74
1299.97
1283.2
1266.43
1249.66
1232.88
1216.11
1199.33
1182.55
1165.77
1148.99
1132.22
1115.45
1098.68
1081.91
1065.14
1048.37
1031.59
1014.81
998.025
981.24
964.457
947.676
930.9
914.128
897.359
880.592
863.825
847.057
830.286
813.513
796.738
779.96
763.181
746.403
729.626
712.852
696.081
679.313
662.545
645.779
629.013
612.246
595.478
578.709
561.939
545.168
528.395
511.622
494.848
478.072
461.293
444.512
427.727
410.939
394.149
377.355
360.561
343.766
326.972
310.18
293.392
276.609
259.83
243.056
226.287
209.522
192.761
176
159.241
142.481
125.721
108.959
92.1968
75.4334
58.6695
41.9057
25.1425
8.38088
4247.32
3689.04
3977.07
4208.15
4194.03
4107.16
4064.49
4058.75
4053.51
4037.73
4017.96
3999.8
3983.4
3967.16
3950.48
3933.58
3916.73
3899.96
3883.21
3866.45
3849.68
3832.9
3816.12
3799.35
3782.57
3765.79
3749.01
3732.24
3715.46
3698.69
3681.92
3665.14
3648.37
3631.59
3614.82
3598.05
3581.27
3564.5
3547.72
3530.95
3514.17
3497.4
3480.63
3463.86
3447.08
3430.31
3413.53
3396.76
3379.98
3363.2
3346.43
3329.66
3312.88
3296.11
3279.34
3262.56
3245.78
3229.01
3212.24
3195.47
3178.69
3161.91
3145.14
3128.37
3111.59
3094.82
3078.04
3061.27
3044.5
3027.72
3010.95
2994.17
2977.4
2960.62
2943.85
2927.07
2910.3
2893.53
2876.75
2859.98
2843.2
2826.43
2809.65
2792.88
2776.11
2759.33
2742.56
2725.79
2709.01
2692.24
2675.46
2658.69
2641.91
2625.14
2608.37
2591.59
2574.82
2558.04
2541.26
2524.49
2507.72
2490.95
2474.18
2457.4
2440.62
2423.84
2407.07
2390.3
2373.53
2356.76
2339.98
2323.2
2306.42
2289.65
2272.87
2256.11
2239.34
2222.56
2205.79
2189.01
2172.23
2155.45
2138.68
2121.91
2105.14
2088.37
2071.59
2054.81
2038.03
2021.26
2004.48
1987.71
1970.94
1954.17
1937.4
1920.62
1903.84
1887.06
1870.29
1853.51
1836.74
1819.97
1803.2
1786.42
1769.64
1752.87
1736.09
1719.32
1702.54
1685.77
1669
1652.22
1635.45
1618.67
1601.9
1585.12
1568.35
1551.57
1534.8
1518.03
1501.25
1484.48
1467.71
1450.93
1434.16
1417.39
1400.61
1383.84
1367.06
1350.29
1333.51
1316.74
1299.97
1283.2
1266.43
1249.66
1232.88
1216.11
1199.33
1182.55
1165.77
1148.99
1132.22
1115.45
1098.68
1081.91
1065.14
1048.37
1031.59
1014.81
998.022
981.237
964.454
947.674
930.899
914.127
897.359
880.593
863.827
847.058
830.288
813.514
796.738
779.96
763.182
746.403
729.627
712.853
696.083
679.314
662.547
645.781
629.014
612.247
595.478
578.709
561.939
545.167
528.395
511.622
494.847
478.071
461.293
444.512
427.728
410.94
394.149
377.356
360.562
343.767
326.973
310.182
293.394
276.61
259.832
243.058
226.289
209.524
192.762
176.002
159.242
142.482
125.721
108.96
92.1968
75.4332
58.6692
41.9054
25.1423
8.38073
4247.32
3689.04
3977.08
4208.15
4194.03
4107.15
4064.49
4058.75
4053.51
4037.73
4017.96
3999.81
3983.4
3967.16
3950.48
3933.58
3916.73
3899.96
3883.21
3866.45
3849.67
3832.9
3816.12
3799.34
3782.57
3765.79
3749.01
3732.23
3715.46
3698.69
3681.92
3665.14
3648.37
3631.59
3614.82
3598.05
3581.27
3564.5
3547.73
3530.95
3514.18
3497.4
3480.63
3463.85
3447.08
3430.3
3413.53
3396.76
3379.98
3363.21
3346.43
3329.66
3312.89
3296.11
3279.34
3262.56
3245.79
3229.01
3212.24
3195.46
3178.69
3161.92
3145.14
3128.37
3111.59
3094.82
3078.04
3061.27
3044.5
3027.72
3010.94
2994.17
2977.4
2960.63
2943.85
2927.07
2910.3
2893.53
2876.75
2859.98
2843.2
2826.43
2809.65
2792.88
2776.11
2759.33
2742.56
2725.79
2709.01
2692.24
2675.46
2658.68
2641.91
2625.14
2608.37
2591.59
2574.82
2558.04
2541.26
2524.49
2507.72
2490.95
2474.18
2457.4
2440.62
2423.84
2407.07
2390.3
2373.53
2356.76
2339.98
2323.2
2306.42
2289.65
2272.88
2256.11
2239.34
2222.56
2205.78
2189
2172.22
2155.45
2138.68
2121.91
2105.14
2088.37
2071.59
2054.81
2038.03
2021.26
2004.49
1987.72
1970.94
1954.17
1937.4
1920.62
1903.84
1887.06
1870.29
1853.52
1836.75
1819.97
1803.2
1786.42
1769.64
1752.87
1736.09
1719.32
1702.54
1685.77
1669
1652.22
1635.45
1618.67
1601.9
1585.12
1568.35
1551.58
1534.8
1518.03
1501.25
1484.48
1467.71
1450.93
1434.16
1417.39
1400.61
1383.84
1367.06
1350.29
1333.51
1316.74
1299.97
1283.2
1266.43
1249.66
1232.88
1216.1
1199.32
1182.54
1165.76
1148.99
1132.22
1115.45
1098.68
1081.91
1065.14
1048.37
1031.59
1014.8
998.019
981.234
964.451
947.672
930.898
914.127
897.36
880.594
863.828
847.06
830.289
813.515
796.738
779.96
763.182
746.404
729.628
712.855
696.085
679.316
662.549
645.782
629.016
612.248
595.479
578.709
561.938
545.167
528.394
511.621
494.847
478.071
461.293
444.512
427.728
410.941
394.15
377.357
360.563
343.768
326.975
310.183
293.396
276.612
259.834
243.06
226.291
209.526
192.764
176.003
159.243
142.483
125.722
108.96
92.1968
75.433
58.669
41.9052
25.1421
8.38058
4247.3
3689.03
3977.08
4208.15
4194.04
4107.16
4064.49
4058.75
4053.51
4037.73
4017.96
3999.81
3983.4
3967.16
3950.48
3933.58
3916.73
3899.96
3883.21
3866.45
3849.68
3832.9
3816.12
3799.34
3782.57
3765.79
3749.01
3732.24
3715.46
3698.69
3681.91
3665.14
3648.37
3631.59
3614.82
3598.05
3581.28
3564.5
3547.72
3530.95
3514.18
3497.41
3480.63
3463.85
3447.08
3430.3
3413.53
3396.76
3379.98
3363.21
3346.43
3329.66
3312.89
3296.11
3279.33
3262.56
3245.79
3229.01
3212.24
3195.46
3178.69
3161.92
3145.14
3128.36
3111.59
3094.82
3078.05
3061.27
3044.5
3027.72
3010.94
2994.17
2977.4
2960.63
2943.85
2927.07
2910.3
2893.52
2876.75
2859.98
2843.21
2826.43
2809.66
2792.88
2776.11
2759.33
2742.56
2725.79
2709.01
2692.24
2675.46
2658.68
2641.91
2625.14
2608.37
2591.59
2574.81
2558.04
2541.26
2524.49
2507.73
2490.95
2474.18
2457.4
2440.62
2423.84
2407.07
2390.3
2373.53
2356.76
2339.98
2323.2
2306.42
2289.65
2272.88
2256.11
2239.33
2222.56
2205.78
2189
2172.22
2155.45
2138.68
2121.91
2105.14
2088.37
2071.59
2054.81
2038.03
2021.26
2004.49
1987.72
1970.94
1954.17
1937.39
1920.62
1903.84
1887.06
1870.29
1853.52
1836.75
1819.97
1803.2
1786.42
1769.64
1752.87
1736.09
1719.32
1702.55
1685.77
1669
1652.22
1635.45
1618.68
1601.9
1585.13
1568.35
1551.58
1534.8
1518.03
1501.26
1484.48
1467.71
1450.94
1434.16
1417.39
1400.61
1383.84
1367.06
1350.29
1333.51
1316.74
1299.97
1283.2
1266.43
1249.66
1232.88
1216.1
1199.32
1182.54
1165.76
1148.99
1132.22
1115.45
1098.68
1081.91
1065.14
1048.37
1031.59
1014.8
998.016
981.231
964.449
947.67
930.897
914.128
897.361
880.596
863.829
847.061
830.29
813.515
796.739
779.96
763.182
746.405
729.629
712.857
696.086
679.318
662.551
645.784
629.017
612.249
595.479
578.709
561.938
545.166
528.393
511.62
494.846
478.07
461.292
444.512
427.728
410.941
394.151
377.358
360.564
343.77
326.976
310.185
293.398
276.614
259.836
243.062
226.293
209.528
192.765
176.004
159.244
142.483
125.722
108.96
92.1968
75.4328
58.6687
41.9049
25.1419
8.38043
4247.31
3689.04
3977.08
4208.15
4194.03
4107.15
4064.49
4058.75
4053.51
4037.73
4017.96
3999.8
3983.4
3967.16
3950.48
3933.58
3916.73
3899.96
3883.21
3866.45
3849.67
3832.9
3816.12
3799.34
3782.57
3765.79
3749.01
3732.24
3715.46
3698.69
3681.92
3665.14
3648.37
3631.59
3614.82
3598.05
3581.28
3564.5
3547.72
3530.95
3514.17
3497.4
3480.63
3463.85
3447.08
3430.31
3413.53
3396.75
3379.98
3363.21
3346.43
3329.66
3312.88
3296.11
3279.34
3262.56
3245.79
3229.01
3212.24
3195.47
3178.69
3161.92
3145.14
3128.36
3111.59
3094.82
3078.05
3061.27
3044.49
3027.72
3010.94
2994.17
2977.4
2960.63
2943.85
2927.07
2910.3
2893.52
2876.75
2859.98
2843.21
2826.43
2809.66
2792.88
2776.1
2759.33
2742.56
2725.79
2709.01
2692.24
2675.46
2658.68
2641.91
2625.14
2608.37
2591.59
2574.81
2558.04
2541.26
2524.5
2507.73
2490.95
2474.18
2457.39
2440.62
2423.84
2407.07
2390.3
2373.53
2356.75
2339.98
2323.2
2306.42
2289.65
2272.88
2256.11
2239.33
2222.56
2205.78
2189
2172.23
2155.45
2138.68
2121.91
2105.14
2088.36
2071.58
2054.81
2038.03
2021.26
2004.49
1987.72
1970.94
1954.17
1937.39
1920.62
1903.84
1887.06
1870.29
1853.52
1836.75
1819.97
1803.2
1786.42
1769.64
1752.87
1736.09
1719.32
1702.55
1685.77
1669
1652.23
1635.45
1618.68
1601.9
1585.13
1568.35
1551.58
1534.8
1518.03
1501.26
1484.48
1467.71
1450.94
1434.17
1417.39
1400.61
1383.84
1367.06
1350.29
1333.51
1316.74
1299.98
1283.21
1266.43
1249.66
1232.88
1216.1
1199.32
1182.54
1165.76
1148.98
1132.22
1115.45
1098.68
1081.91
1065.14
1048.36
1031.58
1014.8
998.013
981.228
964.446
947.669
930.896
914.128
897.362
880.597
863.831
847.062
830.291
813.516
796.739
779.961
763.182
746.405
729.631
712.858
696.088
679.32
662.553
645.786
629.018
612.249
595.48
578.709
561.937
545.165
528.393
511.619
494.845
478.07
461.292
444.512
427.728
410.942
394.152
377.36
360.566
343.771
326.978
310.187
293.4
276.616
259.838
243.065
226.296
209.53
192.767
176.006
159.245
142.484
125.723
108.96
92.1967
75.4326
58.6684
41.9046
25.1417
8.38027
4247.31
3689.03
3977.08
4208.15
4194.04
4107.16
4064.49
4058.74
4053.51
4037.73
4017.96
3999.8
3983.4
3967.16
3950.47
3933.58
3916.73
3899.96
3883.21
3866.45
3849.67
3832.9
3816.12
3799.34
3782.57
3765.79
3749.01
3732.23
3715.46
3698.69
3681.92
3665.14
3648.37
3631.6
3614.82
3598.05
3581.27
3564.5
3547.73
3530.95
3514.18
3497.4
3480.63
3463.85
3447.08
3430.31
3413.53
3396.76
3379.98
3363.21
3346.43
3329.66
3312.88
3296.11
3279.34
3262.56
3245.79
3229.01
3212.24
3195.47
3178.69
3161.92
3145.14
3128.37
3111.59
3094.82
3078.05
3061.27
3044.49
3027.72
3010.94
2994.17
2977.4
2960.63
2943.85
2927.07
2910.3
2893.52
2876.75
2859.98
2843.21
2826.43
2809.65
2792.88
2776.1
2759.33
2742.56
2725.79
2709.01
2692.23
2675.46
2658.69
2641.92
2625.15
2608.37
2591.59
2574.81
2558.04
2541.26
2524.5
2507.73
2490.95
2474.17
2457.39
2440.62
2423.84
2407.07
2390.3
2373.53
2356.75
2339.97
2323.2
2306.42
2289.65
2272.88
2256.11
2239.33
2222.55
2205.78
2189
2172.23
2155.45
2138.68
2121.91
2105.13
2088.36
2071.58
2054.81
2038.03
2021.26
2004.49
1987.71
1970.94
1954.17
1937.39
1920.61
1903.84
1887.07
1870.29
1853.52
1836.74
1819.97
1803.19
1786.42
1769.64
1752.87
1736.1
1719.32
1702.55
1685.77
1669
1652.23
1635.45
1618.68
1601.9
1585.13
1568.35
1551.58
1534.8
1518.03
1501.26
1484.49
1467.71
1450.94
1434.17
1417.39
1400.61
1383.84
1367.06
1350.29
1333.52
1316.75
1299.98
1283.21
1266.43
1249.66
1232.88
1216.1
1199.31
1182.53
1165.76
1148.98
1132.21
1115.45
1098.68
1081.91
1065.14
1048.36
1031.58
1014.8
998.01
981.225
964.444
947.667
930.896
914.128
897.363
880.598
863.832
847.064
830.292
813.516
796.739
779.961
763.183
746.406
729.632
712.86
696.09
679.322
662.555
645.787
629.019
612.25
595.48
578.709
561.937
545.165
528.392
511.619
494.845
478.069
461.292
444.512
427.729
410.942
394.153
377.361
360.567
343.773
326.98
310.189
293.402
276.619
259.84
243.067
226.298
209.532
192.769
176.007
159.246
142.485
125.723
108.96
92.1965
75.4324
58.6681
41.9043
25.1415
8.38011
4247.31
3689.04
3977.08
4208.15
4194.04
4107.15
4064.49
4058.75
4053.51
4037.73
4017.96
3999.81
3983.4
3967.16
3950.47
3933.58
3916.73
3899.96
3883.21
3866.45
3849.67
3832.9
3816.12
3799.34
3782.57
3765.79
3749.02
3732.24
3715.46
3698.69
3681.91
3665.14
3648.37
3631.6
3614.82
3598.05
3581.27
3564.5
3547.72
3530.95
3514.18
3497.4
3480.63
3463.85
3447.08
3430.3
3413.53
3396.76
3379.98
3363.21
3346.43
3329.66
3312.89
3296.11
3279.34
3262.56
3245.79
3229.01
3212.24
3195.47
3178.69
3161.92
3145.14
3128.37
3111.59
3094.82
3078.04
3061.27
3044.49
3027.72
3010.94
2994.17
2977.4
2960.63
2943.85
2927.07
2910.3
2893.52
2876.75
2859.98
2843.21
2826.43
2809.65
2792.88
2776.1
2759.33
2742.56
2725.79
2709.01
2692.23
2675.46
2658.69
2641.92
2625.14
2608.37
2591.59
2574.81
2558.04
2541.27
2524.5
2507.72
2490.95
2474.17
2457.39
2440.62
2423.84
2407.07
2390.3
2373.53
2356.75
2339.97
2323.2
2306.42
2289.65
2272.88
2256.1
2239.33
2222.55
2205.78
2189
2172.23
2155.46
2138.68
2121.91
2105.13
2088.36
2071.58
2054.81
2038.03
2021.26
2004.49
1987.71
1970.94
1954.16
1937.39
1920.62
1903.84
1887.07
1870.29
1853.52
1836.74
1819.97
1803.19
1786.42
1769.64
1752.87
1736.1
1719.32
1702.55
1685.77
1669
1652.23
1635.45
1618.68
1601.91
1585.13
1568.36
1551.58
1534.81
1518.03
1501.26
1484.49
1467.72
1450.94
1434.17
1417.39
1400.61
1383.84
1367.06
1350.29
1333.52
1316.75
1299.98
1283.21
1266.43
1249.66
1232.88
1216.09
1199.31
1182.53
1165.75
1148.98
1132.21
1115.45
1098.68