/*--------------------------------*- C++ -*----------------------------------*\
| =========                 |                                                 |
| \\      /  F ield         | OpenFOAM: The Open Source CFD Toolbox           |
|  \\    /   O peration     | Version:  2406                                  |
|   \\  /    A nd           | Website:  www.openfoam.com                      |
|    \\/     M anipulation  |                                                 |
\*---------------------------------------------------------------------------*/
FoamFile
{
    version     2.0;
    format      ascii;
    arch        "LSB;label=32;scalar=64";
    class       surfaceScalarField;
    location    "0.15";
    object      phi;
}
// * * * * * * * * * * * * * * * * * * * * * * * * * * * * * * * * * * * * * //

dimensions      [0 3 -1 0 0 0 0];

oriented        oriented;

internalField   nonuniform List<scalar> 
12225
(
0.208137
2.6352e-06
0.208128
8.69547e-06
0.208119
9.48209e-06
0.208112
7.00208e-06
0.208108
3.79845e-06
0.208103
4.67895e-06
0.208098
5.83054e-06
0.208093
4.7722e-06
0.208088
4.93714e-06
0.208083
5.01622e-06
0.208078
4.46762e-06
0.208074
3.90915e-06
0.208071
3.26355e-06
0.208067
4.14495e-06
0.208062
5.35362e-06
0.208057
4.94801e-06
0.208054
3.07208e-06
0.208052
1.43772e-06
0.208052
2.52217e-07
0.208053
-9.07023e-07
0.208056
-2.64079e-06
0.208059
-3.50358e-06
0.208062
-2.98433e-06
0.208064
-2.30205e-06
0.208066
-1.1776e-06
0.208065
3.42232e-07
0.208064
8.2501e-07
0.208064
1.22713e-07
0.208065
-1.22703e-06
0.208068
-2.74515e-06
0.208072
-3.5475e-06
0.208075
-3.42733e-06
0.208078
-2.53624e-06
0.208079
-1.24301e-06
0.208078
4.98935e-07
0.208076
2.22026e-06
0.208073
3.42248e-06
0.20807
2.57227e-06
0.20807
7.23326e-07
0.20807
-5.9716e-07
0.208071
-7.35445e-07
0.208072
-1.39645e-06
0.208075
-2.92542e-06
0.208079
-4.09839e-06
0.208083
-3.67965e-06
0.208085
-1.65965e-06
0.208084
6.72378e-07
0.208082
1.70354e-06
0.208081
1.31492e-06
0.208081
3.32482e-07
0.208081
-3.92431e-07
0.208082
-6.19033e-07
0.208082
-6.92953e-07
0.208083
-7.01543e-07
0.208083
-1.7583e-07
0.208083
4.80635e-07
0.208082
7.88682e-07
0.208081
8.82897e-07
0.20808
8.48138e-07
0.20808
6.51333e-07
0.20808
2.01173e-08
0.20808
-9.33724e-07
0.208082
-1.52485e-06
0.208083
-1.15823e-06
0.208083
-3.44904e-07
0.208083
9.67183e-09
0.208084
-2.21485e-07
0.208084
-4.68056e-07
0.208084
-3.2746e-07
0.208084
3.89585e-08
0.208084
3.23369e-07
0.208084
5.60215e-07
0.208083
7.59224e-07
0.208082
7.43981e-07
0.208082
5.12303e-07
0.208082
1.20187e-08
0.208082
-4.54108e-07
0.208083
-6.67222e-07
0.208083
-6.63129e-07
0.208084
-4.34269e-07
0.208084
-2.26156e-07
0.208084
-1.65632e-07
0.208084
-2.44996e-07
0.208085
-4.1687e-07
0.208085
-6.14515e-07
0.208086
-7.29488e-07
0.208087
-6.33337e-07
0.208087
-2.94388e-07
0.208087
1.91785e-08
0.208087
5.81004e-08
0.208087
-2.0516e-07
0.208088
-3.92254e-07
0.208088
-2.81381e-07
0.208088
-7.52031e-10
0.208088
7.72978e-08
0.208088
-1.81243e-07
0.208088
-4.79585e-07
0.208089
-4.72865e-07
0.208089
-1.4435e-07
0.208089
1.99893e-07
0.208089
1.96131e-07
0.208089
-1.23479e-07
0.208089
-3.92158e-07
0.20809
-3.61892e-07
0.20809
-4.97198e-08
0.208089
1.93908e-07
0.208089
8.37524e-08
0.20809
-2.45094e-07
0.20809
-3.47013e-07
0.20809
5.0886e-09
0.208089
5.86856e-07
0.208088
8.67577e-07
0.208088
5.94871e-07
0.208088
6.30396e-08
0.208088
-1.89872e-07
0.208088
1.38276e-07
0.208087
7.17116e-07
0.208086
1.00034e-06
0.208085
7.74187e-07
0.208085
3.51257e-07
0.208085
2.16795e-07
0.208084
4.65746e-07
0.208084
8.36542e-07
0.208083
8.80032e-07
0.208082
4.57532e-07
0.208082
1.48369e-07
0.208082
4.17791e-07
0.208081
1.01452e-06
0.208079
1.38234e-06
0.208078
1.18875e-06
0.208078
3.84005e-07
0.208078
-3.13243e-07
0.208078
-3.13648e-07
0.208078
2.60655e-07
0.208077
6.55372e-07
0.208077
6.16501e-07
0.208077
9.11308e-08
0.208077
-2.67227e-07
0.208077
-1.0208e-07
0.208077
4.23097e-07
0.208076
6.85687e-07
0.208075
4.88693e-07
0.208076
-1.24911e-07
0.208076
-5.99158e-07
0.208077
-5.65355e-07
0.208077
-1.29053e-07
0.208076
4.94077e-07
0.208076
7.02755e-07
0.208075
4.08539e-07
0.208075
-1.23735e-07
0.208076
-5.74153e-07
0.208077
-7.30635e-07
0.208077
-6.11014e-07
0.208078
-3.09292e-07
0.208078
4.81566e-08
0.208077
3.06723e-07
0.208077
3.51538e-07
0.208077
1.75399e-07
0.208077
-8.14764e-08
0.208077
-3.63195e-07
0.208078
-7.30395e-07
0.208079
-1.17922e-06
0.208081
-1.48801e-06
0.208082
-1.34558e-06
0.208083
-6.51357e-07
0.208082
3.31244e-07
0.208082
6.87625e-07
0.208081
4.60168e-07
0.208081
-3.08926e-07
0.208082
-9.5169e-07
0.208083
-1.15476e-06
0.208084
-9.41774e-07
0.208085
-5.98918e-07
0.208085
-3.47172e-07
0.208086
-1.71463e-07
0.208085
6.56054e-08
0.208085
3.00343e-07
0.208085
4.13385e-07
0.208084
3.03929e-07
0.208085
-2.96172e-07
0.208086
-1.06237e-06
0.208087
-1.46847e-06
0.208088
-1.10285e-06
0.208088
-4.47488e-08
0.208087
9.63198e-07
0.208086
1.2488e-06
0.208085
9.34781e-07
0.208085
4.00027e-07
0.208085
6.92215e-08
0.208085
1.70283e-09
0.208085
1.07773e-08
0.208085
-3.87161e-08
0.208085
-8.84492e-09
0.208085
3.03025e-07
0.208084
8.91772e-07
0.208082
1.46201e-06
0.208081
1.64822e-06
0.208079
1.33137e-06
0.208078
7.25213e-07
0.208078
8.75225e-08
0.208079
-3.29697e-07
0.208079
-4.52024e-07
0.20808
-3.43123e-07
0.20808
-3.27586e-08
0.208079
2.5284e-07
0.208079
3.98403e-07
0.208078
4.91356e-07
0.208078
5.93606e-07
0.208077
6.38976e-07
0.208077
4.84666e-07
0.208077
1.08731e-07
0.208077
-4.76467e-07
0.208078
-1.01268e-06
0.208079
-1.29806e-06
0.208081
-1.26772e-06
0.208082
-1.04723e-06
0.208082
-7.92145e-07
0.208083
-5.48754e-07
0.208083
-2.5595e-07
0.208083
9.98601e-08
0.208083
3.76689e-07
0.208082
4.00294e-07
0.208082
5.28141e-08
0.208083
-6.11562e-07
0.208084
-1.27869e-06
0.208086
-1.6253e-06
0.208087
-1.54323e-06
0.208089
-1.18773e-06
0.208089
-8.03979e-07
0.20809
-5.04782e-07
0.20809
-2.29139e-07
0.20809
1.18433e-07
0.20809
4.7443e-07
0.208089
6.82922e-07
0.208088
6.11737e-07
0.208088
2.77327e-07
0.208088
-1.62539e-07
0.208089
-5.41177e-07
0.208089
-6.61567e-07
0.20809
-4.83384e-07
0.20809
-1.09843e-07
0.20809
1.44419e-07
0.20809
2.588e-07
0.208089
2.89509e-07
0.208089
2.76332e-07
0.208089
2.31287e-07
0.208089
1.33009e-07
0.208089
-4.7681e-08
0.208089
-1.88121e-07
-7.11148e-07
0.208144
-7.62903e-07
0.208154
-8.86617e-07
0.208163
5.88525e-07
0.208167
3.08804e-06
0.208167
3.22298e-06
0.208169
2.51066e-06
0.208172
3.38388e-06
0.208173
3.45952e-06
0.208175
3.05659e-06
0.208178
1.88952e-06
0.208182
1.01036e-06
0.208184
1.1513e-06
0.208187
8.4959e-07
0.20819
1.08269e-06
0.208194
9.36021e-07
0.208198
1.23033e-06
0.208198
2.50728e-06
0.208197
2.75543e-06
0.208195
2.15242e-06
0.208192
2.64694e-06
0.208186
3.41469e-06
0.20818
2.483e-06
0.208175
1.40911e-06
0.208172
7.83042e-07
0.208171
1.18065e-07
0.208171
1.92578e-07
0.208171
1.00888e-06
0.208169
1.99132e-06
0.208165
2.62679e-06
0.20816
2.52358e-06
0.208154
1.98171e-06
0.208149
1.90763e-06
0.208145
1.70844e-06
0.208143
8.80224e-08
0.208146
-2.27652e-06
0.208153
-4.27758e-06
0.208161
-4.49673e-06
0.208166
-3.20824e-06
0.208169
-2.28331e-06
0.208171
-1.96001e-06
0.208171
-7.23577e-07
0.208168
1.4686e-06
0.208162
2.859e-06
0.208156
2.43627e-06
0.208151
9.56967e-07
0.20815
-2.81309e-07
0.208151
-7.80095e-07
0.208153
-7.13794e-07
0.208155
-4.06143e-07
0.208156
-2.46666e-07
0.208156
-3.02253e-07
0.208155
-7.19684e-08
0.208154
6.84011e-07
0.208152
1.28705e-06
0.208151
1.02531e-06
0.208151
1.46108e-08
0.208153
-9.21861e-07
0.208155
-1.21364e-06
0.208157
-9.02791e-07
0.208157
3.45463e-08
0.208156
8.61291e-07
0.208154
1.01928e-06
0.208153
1.58132e-07
0.208152
-8.09977e-07
0.208153
-1.22722e-06
0.208154
-1.03513e-06
0.208155
-8.05423e-07
0.208155
-7.87022e-07
0.208156
-7.46337e-07
0.208156
-5.74654e-07
0.208157
-4.76303e-07
0.208158
-5.32489e-07
0.208159
-5.91409e-07
0.208161
-3.85856e-07
0.208161
2.03734e-07
0.20816
8.54631e-07
0.208158
1.19023e-06
0.208157
9.58468e-07
0.208156
3.6091e-07
0.208155
-1.67627e-07
0.208156
-3.03481e-07
0.208156
-1.97775e-07
0.208156
-2.3538e-07
0.208156
-4.5499e-07
0.208156
-6.17783e-07
0.208155
-5.35561e-07
0.208155
-3.07292e-07
0.208155
-9.0344e-08
0.208155
-2.44957e-09
0.208155
-8.62075e-08
0.208155
-3.38954e-07
0.208155
-5.53931e-07
0.208156
-6.07965e-07
0.208156
-4.73605e-07
0.208157
-3.37113e-07
0.208157
-4.75121e-07
0.208157
-8.46964e-07
0.208158
-1.1556e-06
0.208159
-1.07975e-06
0.20816
-6.41377e-07
0.20816
-1.18159e-07
0.20816
1.87554e-07
0.208159
1.5113e-07
0.208159
-1.14078e-08
0.208159
-4.50249e-08
0.208159
1.1308e-07
0.208159
2.62169e-07
0.208158
1.71145e-07
0.208158
-8.73637e-08
0.208158
-2.06165e-07
0.208159
1.2047e-08
0.208159
4.34779e-07
0.208159
6.79682e-07
0.208159
5.17773e-07
0.208158
1.23139e-07
0.208158
1.21735e-07
0.208158
8.46528e-07
0.208157
1.8772e-06
0.208156
2.36445e-06
0.208154
1.88373e-06
0.208154
8.76696e-07
0.208154
1.45469e-07
0.208154
5.34021e-07
0.208154
1.58392e-06
0.208152
2.2598e-06
0.20815
1.989e-06
0.208149
1.2301e-06
0.208149
9.10704e-07
0.208149
1.54835e-06
0.208148
2.62333e-06
0.208145
3.14701e-06
0.208142
2.64634e-06
0.20814
1.5999e-06
0.208139
8.54569e-07
0.208139
8.87452e-07
0.208138
1.34299e-06
0.208137
1.48605e-06
0.208136
1.06251e-06
0.208135
4.76536e-07
0.208135
1.53098e-07
0.208136
4.37779e-07
0.208135
9.2173e-07
0.208134
1.09861e-06
0.208133
7.65905e-07
0.208132
9.36861e-08
0.208132
-5.01527e-07
0.208134
-7.44017e-07
0.208135
-7.7864e-07
0.208136
-8.41758e-07
0.208137
-1.03032e-06
0.208138
-1.19914e-06
0.208138
-1.10805e-06
0.208138
-7.67448e-07
0.208138
-3.91506e-07
0.208139
-1.557e-07
0.208139
-2.86019e-07
0.20814
-7.09902e-07
0.208142
-1.31679e-06
0.208144
-1.91181e-06
0.208145
-2.26461e-06
0.208147
-2.30029e-06
0.208148
-2.20101e-06
0.208149
-2.23378e-06
0.20815
-2.45759e-06
0.208152
-2.6254e-06
0.208155
-2.36244e-06
0.208157
-1.70107e-06
0.208158
-1.0169e-06
0.208159
-7.82192e-07
0.208159
-1.05721e-06
0.208159
-1.53733e-06
0.20816
-1.79355e-06
0.208161
-1.64077e-06
0.208162
-1.28698e-06
0.208163
-1.08262e-06
0.208164
-1.10043e-06
0.208166
-1.14294e-06
0.208167
-9.23634e-07
0.208168
-4.82383e-07
0.208168
-6.98855e-08
0.208167
1.52691e-08
0.208165
-3.63075e-07
0.208165
-7.6381e-07
0.208166
-6.74018e-07
0.208167
6.2844e-08
0.208167
1.09012e-06
0.208166
1.82551e-06
0.208164
1.97144e-06
0.208163
1.71553e-06
0.208161
1.46067e-06
0.20816
1.42634e-06
0.208158
1.5166e-06
0.208157
1.52786e-06
0.208156
1.47347e-06
0.208155
1.58836e-06
0.208154
2.07952e-06
0.208153
2.88232e-06
0.208151
3.624e-06
0.208148
3.89177e-06
0.208144
3.49939e-06
0.208141
2.6246e-06
0.208139
1.6176e-06
0.208138
7.11535e-07
0.208138
1.10431e-07
0.208138
-1.29015e-07
0.208139
-1.65839e-07
0.208139
-1.01428e-07
0.20814
3.34849e-08
0.20814
3.00326e-07
0.20814
4.53588e-07
0.20814
2.39066e-07
0.20814
-5.62819e-07
0.208141
-1.7783e-06
0.208143
-2.91785e-06
0.208145
-3.5364e-06
0.208147
-3.50872e-06
0.20815
-3.03249e-06
0.208152
-2.44376e-06
0.208153
-1.95276e-06
0.208155
-1.54532e-06
0.208156
-1.12966e-06
0.208158
-7.26846e-07
0.208158
-5.0744e-07
0.208158
-6.39524e-07
0.208158
-1.12011e-06
0.208158
-1.69263e-06
0.208159
-2.01542e-06
0.208159
-1.90829e-06
0.20816
-1.46564e-06
0.20816
-9.43018e-07
0.208161
-5.18598e-07
0.208161
-1.78583e-07
0.208161
2.11655e-07
0.208161
6.89074e-07
0.208161
1.10177e-06
0.20816
1.21306e-06
0.208159
9.21573e-07
0.208158
3.24169e-07
0.208158
-4.19484e-07
0.208158
-1.04267e-06
0.20816
-1.4687e-06
0.208161
-1.75211e-06
0.208164
-1.94715e-06
0.208166
-2.04965e-06
0.208168
-2.03331e-06
0.20817
-1.9174e-06
0.208172
-1.79711e-06
0.208174
-1.77736e-06
0.208176
-1.85106e-06
-2.26684e-06
0.208142
-1.54307e-06
0.20814
7.70406e-07
0.208138
2.30256e-06
0.208141
8.47696e-07
0.208143
6.12743e-07
0.208146
2.07701e-08
0.208148
7.21603e-07
0.208151
1.00146e-06
0.208153
1.24229e-06
0.208152
2.62409e-06
0.20815
2.82524e-06
0.208149
2.48181e-06
0.208149
9.97378e-07
0.20815
-6.80532e-08
0.208151
-3.76129e-07
0.208153
-6.14862e-07
0.208156
-5.87824e-07
0.208159
-4.53437e-07
0.208162
-5.41121e-07
0.208165
-3.25982e-07
0.208168
3.31742e-07
0.20817
6.56877e-07
0.20817
1.45867e-06
0.208169
1.97676e-06
0.208168
1.07766e-06
0.208168
-1.56593e-07
0.208169
-4.27141e-07
0.208171
3.23332e-10
0.208173
5.42786e-07
0.208175
1.35223e-06
0.208175
2.06908e-06
0.208174
2.46211e-06
0.208173
3.18519e-06
0.208169
4.02785e-06
0.208162
3.91734e-06
0.208156
2.55159e-06
0.20815
1.27208e-06
0.208146
1.01485e-06
0.208142
1.10158e-06
0.20814
2.49633e-07
0.20814
-1.19663e-06
0.208144
-1.93886e-06
0.208148
-1.31164e-06
0.208151
-1.02979e-07
0.208151
4.83516e-07
0.208151
1.92027e-07
0.20815
-4.43198e-07
0.20815
-6.92023e-07
0.20815
-3.57607e-07
0.20815
1.72629e-07
0.208149
3.76363e-07
0.208149
3.05514e-07
0.208149
3.67916e-07
0.20815
5.73667e-07
0.20815
5.60541e-07
0.20815
2.4967e-07
0.208149
-1.12906e-07
0.208148
-3.99058e-07
0.208148
-7.16171e-07
0.208149
-8.39164e-07
0.20815
-4.9831e-07
0.208151
9.36323e-08
0.208151
2.83565e-07
0.20815
-8.61517e-08
0.20815
-4.90545e-07
0.208149
-5.90688e-07
0.208149
-6.71928e-07
0.208149
-1.01723e-06
0.20815
-1.36678e-06
0.208151
-1.26077e-06
0.208151
-7.96975e-07
0.208151
-3.58062e-07
0.208151
-2.76825e-07
0.20815
-3.30833e-07
0.208151
-1.75929e-07
0.208151
2.62716e-07
0.208152
7.02142e-07
0.208152
7.61892e-07
0.208152
4.3558e-07
0.208152
-8.03524e-08
0.208152
-3.52207e-07
0.208152
-3.95094e-07
0.208152
-4.54517e-07
0.208153
-6.15722e-07
0.208153
-6.93049e-07
0.208153
-5.30359e-07
0.208153
-2.73035e-07
0.208153
-1.7941e-07
0.208153
-2.99925e-07
0.208153
-4.52552e-07
0.208154
-5.17932e-07
0.208154
-5.68338e-07
0.208154
-7.41363e-07
0.208154
-9.84236e-07
0.208155
-1.11355e-06
0.208156
-1.05596e-06
0.208156
-9.1209e-07
0.208155
-8.35201e-07
0.208155
-8.42161e-07
0.208155
-8.04529e-07
0.208156
-5.92147e-07
0.208156
-2.3268e-07
0.208156
7.4194e-08
0.208156
1.57006e-07
0.208156
7.81874e-08
0.208156
2.63998e-08
0.208156
1.38835e-07
0.208156
3.18251e-07
0.208156
3.53166e-07
0.208155
1.58193e-07
0.208155
-9.0843e-08
0.208156
-1.4334e-08
0.208156
4.64498e-07
0.208155
1.09203e-06
0.208154
1.45106e-06
0.208153
1.43133e-06
0.208152
1.34236e-06
0.208153
1.5724e-06
0.208153
2.12741e-06
0.208152
2.55354e-06
0.208151
2.38836e-06
0.208149
1.67524e-06
0.208148
1.12178e-06
0.208149
1.32694e-06
0.208149
2.1982e-06
0.208148
3.03792e-06
0.208146
3.24708e-06
0.208144
2.90253e-06
0.208143
2.63129e-06
0.208142
2.89772e-06
0.208142
3.49406e-06
0.208141
3.74839e-06
0.208139
3.24075e-06
0.208138
2.2044e-06
0.208137
1.30831e-06
0.208138
1.06049e-06
0.208138
1.37447e-06
0.208137
1.74021e-06
0.208136
1.73314e-06
0.208135
1.33909e-06
0.208134
9.52683e-07
0.208134
8.18156e-07
0.208135
8.28181e-07
0.208135
6.98372e-07
0.208135
2.63317e-07
0.208134
-4.22185e-07
0.208135
-1.12101e-06
0.208136
-1.5802e-06
0.208137
-1.71876e-06
0.208137
-1.62453e-06
0.208137
-1.39651e-06
0.208137
-1.09196e-06
0.208137
-7.81155e-07
0.208137
-5.88418e-07
0.208138
-5.98015e-07
0.208139
-8.72932e-07
0.208139
-1.38104e-06
0.20814
-2.08719e-06
0.208141
-2.89213e-06
0.208142
-3.59159e-06
0.208144
-3.95707e-06
0.208146
-3.89155e-06
0.208147
-3.54294e-06
0.208148
-3.20085e-06
0.208148
-3.05306e-06
0.208149
-3.01133e-06
0.20815
-2.84011e-06
0.208151
-2.43124e-06
0.208152
-1.96107e-06
0.208153
-1.75181e-06
0.208154
-1.95685e-06
0.208154
-2.39051e-06
0.208155
-2.65078e-06
0.208156
-2.46948e-06
0.208157
-1.94624e-06
0.208158
-1.42789e-06
0.208158
-1.20256e-06
0.208158
-1.23037e-06
0.208159
-1.25037e-06
0.20816
-1.02203e-06
0.20816
-5.92505e-07
0.20816
-2.17039e-07
0.208159
-3.31266e-08
0.208159
1.03613e-07
0.208158
4.94657e-07
0.208158
1.28366e-06
0.208158
2.21488e-06
0.208157
2.84217e-06
0.208156
2.9011e-06
0.208154
2.52705e-06
0.208154
2.12837e-06
0.208153
2.0652e-06
0.208152
2.40358e-06
0.208151
2.98136e-06
0.208149
3.5986e-06
0.208147
4.1648e-06
0.208145
4.67098e-06
0.208144
5.06195e-06
0.208142
5.16578e-06
0.208141
4.76824e-06
0.20814
3.80462e-06
0.208139
2.46724e-06
0.208139
1.12974e-06
0.208138
1.93945e-07
0.208138
-1.64234e-07
0.208138
-2.64085e-08
0.208138
2.7662e-07
0.208138
4.54983e-07
0.208137
3.84285e-07
0.208138
-1.66746e-08
0.208139
-7.25278e-07
0.20814
-1.75563e-06
0.208141
-2.98073e-06
0.208143
-4.14133e-06
0.208144
-4.95136e-06
0.208146
-5.18286e-06
0.208147
-4.7897e-06
0.208149
-3.96015e-06
0.20815
-3.03365e-06
0.208151
-2.31133e-06
0.208151
-1.89646e-06
0.208152
-1.70589e-06
0.208154
-1.61277e-06
0.208155
-1.58187e-06
0.208155
-1.67136e-06
0.208155
-1.90723e-06
0.208155
-2.17488e-06
0.208156
-2.24822e-06
0.208156
-1.95013e-06
0.208157
-1.30146e-06
0.208157
-5.11256e-07
0.208156
1.81828e-07
0.208156
6.6972e-07
0.208156
9.86662e-07
0.208155
1.19691e-06
0.208155
1.27892e-06
0.208155
1.12798e-06
0.208155
6.49989e-07
0.208154
-1.07185e-07
0.208154
-9.69169e-07
0.208155
-1.73935e-06
0.208155
-2.32775e-06
0.208156
-2.75009e-06
0.208157
-3.05878e-06
0.208158
-3.28172e-06
0.20816
-3.42383e-06
0.208162
-3.52104e-06
0.208163
-3.61711e-06
0.208165
-3.78937e-06
-4.06539e-06
0.208148
1.45378e-06
0.208147
1.65388e-06
0.208147
2.28513e-06
0.208145
2.93907e-06
0.208144
1.86966e-06
0.208143
5.36031e-07
0.208142
1.69554e-06
0.208141
2.07547e-06
0.208139
2.85542e-06
0.208139
3.28959e-06
0.208139
2.20406e-06
0.208139
2.31512e-06
0.208138
2.4183e-06
0.208136
1.8713e-06
0.208134
1.79396e-06
0.208131
2.59276e-06
0.208126
4.19219e-06
0.20812
5.58238e-06
0.208114
5.04222e-06
0.20811
3.66641e-06
0.208107
3.64546e-06
0.208105
2.83655e-06
0.208105
1.594e-06
0.208106
1.07705e-06
0.208106
7.52268e-07
0.208106
1.38633e-07
0.208106
-9.3101e-07
0.208109
-2.38723e-06
0.208112
-3.30027e-06
0.208117
-3.1603e-06
0.208122
-2.95241e-06
0.208127
-2.99901e-06
0.208133
-2.87973e-06
0.20814
-2.07094e-06
0.208144
-3.41687e-07
0.208146
7.44472e-07
0.208146
5.02167e-07
0.208147
2.59448e-07
0.208147
1.03381e-06
0.208146
1.66756e-06
0.208144
7.5464e-07
0.208143
-8.14755e-07
0.208143
-1.54703e-06
0.208144
-1.22072e-06
0.208145
-5.75714e-07
0.208145
-1.02102e-07
0.208145
7.39681e-08
0.208144
-1.16087e-07
0.208144
-4.06242e-07
0.208145
-4.21073e-07
0.208146
-3.16025e-07
0.208146
-5.01912e-07
0.208148
-9.25292e-07
0.208149
-1.11482e-06
0.208151
-8.7247e-07
0.208152
-4.49008e-07
0.208152
-4.421e-08
0.208151
2.38991e-07
0.20815
5.35268e-08
0.20815
-6.5437e-07
0.208151
-1.45043e-06
0.208153
-1.76261e-06
0.208154
-1.42705e-06
0.208155
-8.48205e-07
0.208155
-4.02885e-07
0.208155
-9.06743e-08
0.208154
5.41603e-08
0.208153
-6.36748e-09
0.208152
-2.02484e-07
0.208151
-3.04127e-07
0.20815
-2.06251e-07
0.20815
1.94487e-08
0.208149
1.26276e-07
0.208149
6.09415e-08
0.208149
-1.32385e-07
0.20815
-3.31775e-07
0.208151
-4.22083e-07
0.208152
-3.75833e-07
0.208152
-2.29871e-07
0.208153
-1.89414e-07
0.208153
-2.70295e-07
0.208153
-4.03455e-07
0.208153
-5.18435e-07
0.208153
-5.73644e-07
0.208152
-5.3138e-07
0.208152
-3.94826e-07
0.208152
-2.95414e-07
0.208152
-4.05331e-07
0.208153
-7.10785e-07
0.208153
-9.64225e-07
0.208154
-9.51396e-07
0.208154
-7.5581e-07
0.208154
-6.79112e-07
0.208154
-8.91956e-07
0.208154
-1.2349e-06
0.208154
-1.39426e-06
0.208155
-1.23591e-06
0.208155
-9.03705e-07
0.208155
-6.54175e-07
0.208154
-5.99494e-07
0.208154
-6.28524e-07
0.208155
-5.51709e-07
0.208155
-3.2905e-07
0.208155
-1.05167e-07
0.208155
-3.11458e-08
0.208156
-8.09482e-08
0.208156
-6.70003e-08
0.208156
1.78464e-07
0.208156
5.46495e-07
0.208155
7.4107e-07
0.208154
5.97445e-07
0.208154
3.17671e-07
0.208154
3.32881e-07
0.208154
9.20577e-07
0.208154
1.8562e-06
0.208153
2.57801e-06
0.208152
2.6749e-06
0.208151
2.27799e-06
0.208151
1.93927e-06
0.208151
2.09142e-06
0.208151
2.61373e-06
0.20815
2.98259e-06
0.208148
2.87905e-06
0.208147
2.53664e-06
0.208147
2.49759e-06
0.208147
3.03715e-06
0.208146
3.86713e-06
0.208145
4.42211e-06
0.208143
4.40069e-06
0.208142
4.01385e-06
0.208141
3.70746e-06
0.208142
3.63203e-06
0.208141
3.5466e-06
0.20814
3.1476e-06
0.208139
2.45595e-06
0.208138
1.85909e-06
0.208138
1.69854e-06
0.208138
1.9555e-06
0.208137
2.26245e-06
0.208136
2.23295e-06
0.208136
1.79876e-06
0.208135
1.19557e-06
0.208135
6.74282e-07
0.208136
2.92929e-07
0.208136
-4.3064e-08
0.208136
-5.06196e-07
0.208136
-1.13304e-06
0.208136
-1.71794e-06
0.208137
-2.04089e-06
0.208137
-2.01927e-06
0.208137
-1.71058e-06
0.208138
-1.27514e-06
0.208138
-9.14826e-07
0.208138
-8.20155e-07
0.208138
-1.09049e-06
0.208139
-1.66973e-06
0.20814
-2.38564e-06
0.208141
-3.10579e-06
0.208142
-3.78416e-06
0.208143
-4.38762e-06
0.208144
-4.85334e-06
0.208145
-5.05155e-06
0.208146
-4.8716e-06
0.208147
-4.38235e-06
0.208148
-3.8312e-06
0.208149
-3.46401e-06
0.208149
-3.34619e-06
0.20815
-3.34346e-06
0.208151
-3.27712e-06
0.208153
-3.11681e-06
0.208154
-2.99082e-06
0.208154
-3.02665e-06
0.208155
-3.16147e-06
0.208156
-3.15506e-06
0.208156
-2.80362e-06
0.208157
-2.16078e-06
0.208158
-1.53562e-06
0.208158
-1.24201e-06
0.208158
-1.31864e-06
0.208158
-1.47831e-06
0.208159
-1.35489e-06
0.208159
-8.08976e-07
0.208159
1.0601e-08
0.208159
8.42651e-07
0.208158
1.55221e-06
0.208157
2.18818e-06
0.208156
2.80853e-06
0.208156
3.32774e-06
0.208155
3.55556e-06
0.208154
3.40087e-06
0.208153
3.03831e-06
0.208152
2.85366e-06
0.208152
3.17787e-06
0.208151
4.05402e-06
0.208149
5.20503e-06
0.208147
6.22078e-06
0.208145
6.78553e-06
0.208143
6.79867e-06
0.208142
6.31865e-06
0.208141
5.43807e-06
0.208141
4.24584e-06
0.20814
2.87296e-06
0.20814
1.54195e-06
0.20814
5.71048e-07
0.208139
1.1936e-07
0.208139
2.23977e-07
0.208139
6.0348e-07
0.208138
8.46379e-07
0.208138
6.23682e-07
0.208138
-2.26237e-07
0.208139
-1.58971e-06
0.208141
-3.14081e-06
0.208142
-4.52263e-06
0.208143
-5.53684e-06
0.208145
-6.13136e-06
0.208146
-6.28401e-06
0.208147
-5.96563e-06
0.208148
-5.20915e-06
0.208149
-4.19231e-06
0.20815
-3.21123e-06
0.208151
-2.54261e-06
0.208151
-2.28843e-06
0.208152
-2.33999e-06
0.208153
-2.48957e-06
0.208154
-2.58794e-06
0.208155
-2.60919e-06
0.208155
-2.57991e-06
0.208155
-2.46858e-06
0.208156
-2.16184e-06
0.208156
-1.55619e-06
0.208156
-6.82414e-07
0.208156
2.65635e-07
0.208156
1.03551e-06
0.208155
1.46868e-06
0.208155
1.56721e-06
0.208155
1.42182e-06
0.208155
1.09598e-06
0.208155
5.6077e-07
0.208155
-2.00622e-07
0.208155
-1.13923e-06
0.208155
-2.09216e-06
0.208156
-2.90108e-06
0.208157
-3.50159e-06
0.208157
-3.93654e-06
0.208158
-4.29187e-06
0.20816
-4.61804e-06
0.208161
-4.92825e-06
0.208163
-5.18688e-06
0.208164
-5.46357e-06
-5.70812e-06
0.208141
4.18207e-07
0.208143
3.20484e-07
0.208144
5.11531e-07
0.208147
4.38078e-07
0.208147
1.74653e-06
0.208146
1.58213e-06
0.208148
3.81507e-08
0.208151
-9.4103e-07
0.208155
-1.50543e-06
0.208159
-4.8991e-07
0.20816
1.1861e-06
0.20816
2.28774e-06
0.20816
2.28337e-06
0.20816
1.72337e-06
0.208161
1.28023e-06
0.208163
-9.96009e-08
0.208169
-1.82992e-06
0.208177
-1.70269e-06
0.208182
-1.18645e-07
0.208185
5.7823e-07
0.208187
1.44514e-06
0.208187
2.99709e-06
0.208185
3.72096e-06
0.208182
3.93466e-06
0.208179
3.98044e-06
0.208175
3.50441e-06
0.208171
3.10645e-06
0.208166
2.54934e-06
0.208162
1.16532e-06
0.208159
5.36469e-08
0.208156
-4.37324e-07
0.208154
-1.03689e-06
0.208153
-1.91732e-06
0.208154
-2.41332e-06
0.208155
-1.8633e-06
0.208157
-9.48072e-07
0.208158
-6.46272e-07
0.208159
-7.72397e-07
0.20816
-3.82261e-07
0.208161
6.74073e-07
0.20816
1.67792e-06
0.208158
1.95556e-06
0.208155
1.53371e-06
0.208152
9.20812e-07
0.208151
5.85105e-07
0.20815
7.16122e-07
0.20815
9.78782e-07
0.208148
9.90701e-07
0.208147
6.62646e-07
0.208147
2.89176e-07
0.208146
-4.00109e-08
0.208146
-5.01794e-07
0.208147
-1.04525e-06
0.208147
-1.32594e-06
0.208147
-1.26321e-06
0.208148
-1.16453e-06
0.208149
-1.04543e-06
0.20815
-6.1229e-07
0.20815
9.72794e-08
0.208149
4.581e-07
0.208147
2.44257e-07
0.208145
-2.30012e-07
0.208144
-3.46791e-07
0.208144
-3.07458e-07
0.208144
-5.97892e-07
0.208145
-1.16597e-06
0.208146
-1.48872e-06
0.208148
-1.25398e-06
0.208148
-7.47273e-07
0.208148
-4.55237e-07
0.208149
-5.2088e-07
0.208149
-6.6822e-07
0.20815
-6.63393e-07
0.208151
-5.03686e-07
0.208151
-4.01134e-07
0.208151
-5.02267e-07
0.208151
-6.98872e-07
0.208152
-7.44201e-07
0.208152
-5.58991e-07
0.208152
-3.57572e-07
0.208152
-3.54227e-07
0.208153
-5.08085e-07
0.208153
-6.10232e-07
0.208153
-5.56872e-07
0.208153
-4.54448e-07
0.208153
-4.39908e-07
0.208153
-5.48615e-07
0.208153
-7.44612e-07
0.208153
-9.78157e-07
0.208154
-1.16393e-06
0.208154
-1.19419e-06
0.208154
-1.04026e-06
0.208154
-8.31664e-07
0.208154
-7.58576e-07
0.208154
-8.85433e-07
0.208154
-1.08602e-06
0.208153
-1.17637e-06
0.208154
-1.0776e-06
0.208154
-8.76175e-07
0.208154
-7.2441e-07
0.208154
-6.96806e-07
0.208154
-7.24409e-07
0.208155
-6.76066e-07
0.208155
-4.93789e-07
0.208155
-2.52115e-07
0.208155
-6.77198e-08
0.208155
5.01701e-08
0.208155
1.92578e-07
0.208155
5.0174e-07
0.208155
9.0145e-07
0.208154
1.18637e-06
0.208153
1.21498e-06
0.208153
1.10451e-06
0.208152
1.19117e-06
0.208153
1.71772e-06
0.208153
2.54388e-06
0.208152
3.18853e-06
0.208151
3.24781e-06
0.20815
2.80741e-06
0.20815
2.41387e-06
0.20815
2.57323e-06
0.20815
3.25169e-06
0.208149
3.92459e-06
0.208147
4.11821e-06
0.208146
3.87502e-06
0.208145
3.67569e-06
0.208145
3.93236e-06
0.208145
4.55686e-06
0.208144
5.06149e-06
0.208143
5.05412e-06
0.208142
4.56986e-06
0.208142
3.96794e-06
0.208142
3.57082e-06
0.208142
3.39724e-06
0.208141
3.26083e-06
0.20814
3.03079e-06
0.208139
2.76052e-06
0.208138
2.56701e-06
0.208138
2.48554e-06
0.208138
2.40701e-06
0.208137
2.14769e-06
0.208137
1.63407e-06
0.208137
9.68178e-07
0.208137
3.12902e-07
0.208137
-2.34135e-07
0.208137
-7.17337e-07
0.208137
-1.23108e-06
0.208137
-1.73159e-06
0.208137
-2.09163e-06
0.208137
-2.16971e-06
0.208137
-1.95443e-06
0.208138
-1.59414e-06
0.208138
-1.2845e-06
0.208139
-1.21822e-06
0.208139
-1.54996e-06
0.20814
-2.29643e-06
0.208141
-3.27466e-06
0.208142
-4.22348e-06
0.208143
-4.92865e-06
0.208144
-5.32699e-06
0.208144
-5.52122e-06
0.208145
-5.60585e-06
0.208146
-5.56186e-06
0.208147
-5.30918e-06
0.208148
-4.84871e-06
0.208148
-4.3453e-06
0.208149
-4.03711e-06
0.20815
-4.03914e-06
0.208151
-4.2402e-06
0.208152
-4.39244e-06
0.208153
-4.31642e-06
0.208154
-4.03204e-06
0.208155
-3.69257e-06
0.208155
-3.40663e-06
0.208156
-3.13322e-06
0.208156
-2.76113e-06
0.208157
-2.2761e-06
0.208157
-1.8226e-06
0.208158
-1.57554e-06
0.208158
-1.53269e-06
0.208158
-1.45318e-06
0.208158
-1.02005e-06
0.208158
-9.95847e-08
0.208158
1.13956e-06
0.208157
2.33605e-06
0.208156
3.19717e-06
0.208155
3.65592e-06
0.208155
3.82883e-06
0.208154
3.86509e-06
0.208154
3.85059e-06
0.208153
3.84875e-06
0.208152
3.98813e-06
0.208151
4.45002e-06
0.20815
5.33589e-06
0.208148
6.52919e-06
0.208147
7.69289e-06
0.208145
8.40558e-06
0.208144
8.36704e-06
0.208142
7.54995e-06
0.208142
6.17699e-06
0.208141
4.5865e-06
0.208141
3.08464e-06
0.208141
1.87595e-06
0.20814
1.07742e-06
0.20814
7.00802e-07
0.208139
6.94563e-07
0.208139
8.79413e-07
0.208139
9.42622e-07
0.208139
5.55832e-07
0.208139
-5.48578e-07
0.20814
-2.29244e-06
0.208141
-4.2314e-06
0.208142
-5.88547e-06
0.208144
-6.97389e-06
0.208145
-7.42912e-06
0.208146
-7.35732e-06
0.208147
-6.90138e-06
0.208148
-6.16673e-06
0.208149
-5.24721e-06
0.20815
-4.27831e-06
0.208151
-3.45632e-06
0.208152
-2.96675e-06
0.208152
-2.86878e-06
0.208153
-3.0422e-06
0.208153
-3.25579e-06
0.208154
-3.3078e-06
0.208155
-3.12344e-06
0.208155
-2.73824e-06
0.208155
-2.20821e-06
0.208155
-1.53937e-06
0.208155
-7.12971e-07
0.208155
2.26652e-07
0.208155
1.12081e-06
0.208155
1.75155e-06
0.208154
1.96785e-06
0.208154
1.76669e-06
0.208154
1.25183e-06
0.208154
5.48631e-07
0.208154
-3.09756e-07
0.208154
-1.2669e-06
0.208154
-2.28422e-06
0.208155
-3.27128e-06
0.208155
-4.13587e-06
0.208156
-4.83757e-06
0.208157
-5.40274e-06
0.208158
-5.88124e-06
0.20816
-6.31567e-06
0.208161
-6.66845e-06
0.208163
-7.0306e-06
-7.20882e-06
0.20814
-4.59757e-07
0.208141
-6.49363e-07
0.20814
1.31745e-06
0.208137
3.22945e-06
0.208137
1.58125e-06
0.208138
9.26781e-07
0.208137
1.20663e-06
0.208134
2.25942e-06
0.20813
1.80975e-06
0.208129
9.15464e-07
0.20813
-1.30197e-07
0.208133
-3.55356e-07
0.208135
6.05491e-07
0.208135
1.36854e-06
0.208134
1.84198e-06
0.208132
2.30383e-06
0.208127
3.02221e-06
0.208122
3.55937e-06
0.208118
3.37741e-06
0.208117
2.31028e-06
0.208117
8.84696e-07
0.20812
7.15808e-08
0.208125
-8.68056e-07
0.208131
-2.04469e-06
0.208137
-2.2627e-06
0.208142
-1.59419e-06
0.208146
-9.00415e-07
0.208149
-3.03265e-07
0.20815
4.25683e-08
0.20815
-1.43974e-07
0.20815
-6.94477e-07
0.20815
-7.26455e-07
0.208149
-5.34069e-07
0.208147
-1.15056e-06
0.208148
-2.02796e-06
0.208148
-1.7809e-06
0.208149
-7.95293e-07
0.208148
-4.50624e-07
0.208149
-6.91538e-07
0.20815
-5.33072e-07
0.208151
3.70562e-07
0.208152
1.15143e-06
0.208152
1.21854e-06
0.208152
7.52641e-07
0.208153
2.25148e-07
0.208154
-2.46969e-07
0.208155
-3.7522e-07
0.208156
-1.04668e-07
0.208157
2.22609e-07
0.208157
3.08435e-07
0.208156
2.16298e-07
0.208156
2.64816e-07
0.208154
3.33655e-07
0.208153
2.38944e-07
0.208152
-1.8807e-07
0.208151
-8.67053e-07
0.208152
-1.54921e-06
0.208153
-1.89074e-06
0.208155
-1.7537e-06
0.208157
-1.34315e-06
0.208158
-8.15363e-07
0.208158
-2.79663e-07
0.208157
4.6362e-07
0.208156
1.03837e-06
0.208154
1.11502e-06
0.208152
7.15245e-07
0.20815
2.73616e-07
0.208149
1.36646e-07
0.208148
1.58391e-07
0.208148
-1.39756e-08
0.208148
-5.33318e-07
0.208148
-1.06667e-06
0.208149
-1.3575e-06
0.20815
-1.36972e-06
0.20815
-1.23958e-06
0.208151
-1.09989e-06
0.208151
-9.88108e-07
0.208151
-8.58539e-07
0.208151
-6.87066e-07
0.208152
-5.50157e-07
0.208152
-5.44457e-07
0.208152
-6.35699e-07
0.208152
-6.78161e-07
0.208152
-6.16508e-07
0.208152
-5.85953e-07
0.208153
-7.29569e-07
0.208153
-9.92926e-07
0.208153
-1.17957e-06
0.208154
-1.19027e-06
0.208154
-1.10821e-06
0.208153
-1.05259e-06
0.208153
-1.02558e-06
0.208154
-9.51602e-07
0.208154
-8.18512e-07
0.208153
-7.19339e-07
0.208153
-7.52775e-07
0.208153
-9.09851e-07
0.208153
-1.06958e-06
0.208153
-1.10906e-06
0.208153
-1.01671e-06
0.208154
-8.99705e-07
0.208154
-8.6777e-07
0.208154
-9.04234e-07
0.208154
-8.60614e-07
0.208155
-6.00374e-07
0.208155
-1.48971e-07
0.208154
3.29218e-07
0.208154
6.55631e-07
0.208154
8.33861e-07
0.208154
9.97303e-07
0.208153
1.26832e-06
0.208153
1.62359e-06
0.208152
1.923e-06
0.208151
2.0821e-06
0.208151