/*--------------------------------*- C++ -*----------------------------------*\
| =========                 |                                                 |
| \\      /  F ield         | OpenFOAM: The Open Source CFD Toolbox           |
|  \\    /   O peration     | Version:  2406                                  |
|   \\  /    A nd           | Website:  www.openfoam.com                      |
|    \\/     M anipulation  |                                                 |
\*---------------------------------------------------------------------------*/
FoamFile
{
    version     2.0;
    format      ascii;
    arch        "LSB;label=32;scalar=64";
    class       surfaceScalarField;
    location    "0.15";
    object      phi;
}
// * * * * * * * * * * * * * * * * * * * * * * * * * * * * * * * * * * * * * //

dimensions      [0 3 -1 0 0 0 0];

oriented        oriented;

internalField   nonuniform List<scalar> 
12225
(
4.46039e-07
5.29616e-09
4.30527e-07
1.55125e-08
4.13616e-07
1.69106e-08
3.9898e-07
1.4636e-08
3.84686e-07
1.42944e-08
3.69295e-07
1.53908e-08
3.53302e-07
1.59923e-08
3.37508e-07
1.57938e-08
3.22183e-07
1.53248e-08
3.07251e-07
1.49312e-08
2.92659e-07
1.4591e-08
2.78437e-07
1.42218e-08
2.64607e-07
1.38287e-08
2.51144e-07
1.34618e-08
2.37987e-07
1.31564e-08
2.25059e-07
1.29279e-08
2.12272e-07
1.27863e-08
1.99528e-07
1.27437e-08
1.86716e-07
1.28118e-08
1.73718e-07
1.29982e-08
1.60411e-07
1.33063e-08
1.46676e-07
1.37345e-08
1.32399e-07
1.4276e-08
1.1748e-07
1.49176e-08
1.01837e-07
1.56414e-08
8.53971e-08
1.64381e-08
6.8015e-08
1.73795e-08
4.9193e-08
1.88189e-08
2.75744e-08
2.16154e-08
1.4166e-10
2.74305e-08
2.59031e-09
-2.44866e-09
2.93448e-09
-3.44166e-10
3.48176e-09
-5.47285e-10
3.17586e-09
3.05904e-10
2.762e-09
4.13857e-10
2.12453e-09
6.37465e-10
1.64041e-09
4.84128e-10
1.39748e-09
2.42927e-10
1.36368e-09
3.38014e-11
1.39481e-09
-3.11289e-11
1.39138e-09
3.42603e-12
1.32249e-09
6.88868e-11
1.22147e-09
1.01018e-10
1.12593e-09
9.55437e-11
1.05453e-09
7.13949e-11
1.0089e-09
4.56353e-11
9.8094e-10
2.79587e-11
9.60314e-10
2.06246e-11
9.37823e-10
2.24896e-11
9.20149e-10
1.76739e-11
8.98662e-10
2.14873e-11
9.17177e-10
-1.85156e-11
1.0489e-09
-1.31727e-10
1.27272e-09
-2.23812e-10
1.49646e-09
-2.2374e-10
1.66531e-09
-1.68854e-10
1.78449e-09
-1.19185e-10
1.88101e-09
-9.65109e-11
1.98831e-09
-1.07301e-10
2.14124e-09
-1.52935e-10
2.36217e-09
-2.20926e-10
2.64839e-09
-2.86221e-10
2.97893e-09
-3.30543e-10
3.33276e-09
-3.53832e-10
3.70145e-09
-3.68705e-10
4.08982e-09
-3.88374e-10
4.50928e-09
-4.1947e-10
4.97114e-09
-4.61862e-10
5.48342e-09
-5.12284e-10
6.05177e-09
-5.68361e-10
6.68209e-09
-6.30344e-10
7.38146e-09
-6.99433e-10
8.15573e-09
-7.74356e-10
9.00489e-09
-8.49288e-10
9.9198e-09
-9.15077e-10
1.0883e-08
-9.63414e-10
1.18751e-08
-9.92255e-10
1.28828e-08
-1.00781e-09
1.39078e-08
-1.02517e-09
1.497e-08
-1.06219e-09
1.60934e-08
-1.12339e-09
1.72945e-08
-1.20115e-09
1.85812e-08
-1.28663e-09
1.99512e-08
-1.36985e-09
2.13892e-08
-1.43799e-09
2.28715e-08
-1.48223e-09
2.43773e-08
-1.50568e-09
2.58979e-08
-1.52055e-09
2.74351e-08
-1.53721e-09
2.89906e-08
-1.55552e-09
3.05569e-08
-1.56634e-09
3.21173e-08
-1.56037e-09
3.36536e-08
-1.53632e-09
3.51562e-08
-1.50243e-09
3.6631e-08
-1.47478e-09
3.80993e-08
-1.46811e-09
3.95824e-08
-1.48309e-09
4.10873e-08
-1.50487e-09
4.26042e-08
-1.51686e-09
4.41156e-08
-1.51149e-09
4.56047e-08
-1.48917e-09
4.7061e-08
-1.45631e-09
4.84836e-08
-1.42258e-09
4.98812e-08
-1.39766e-09
5.12688e-08
-1.38767e-09
5.2662e-08
-1.39314e-09
5.40725e-08
-1.41065e-09
5.55053e-08
-1.43294e-09
5.69555e-08
-1.45043e-09
5.84106e-08
-1.45526e-09
5.98567e-08
-1.4461e-09
6.12827e-08
-1.42603e-09
6.26807e-08
-1.398e-09
6.40427e-08
-1.36201e-09
6.53598e-08
-1.31728e-09
6.66234e-08
-1.2636e-09
6.78256e-08
-1.2021e-09
6.89604e-08
-1.13448e-09
7.00233e-08
-1.06268e-09
7.1012e-08
-9.88418e-10
7.19252e-08
-9.13268e-10
7.2764e-08
-8.38724e-10
7.35298e-08
-7.65798e-10
7.42254e-08
-6.95517e-10
7.48539e-08
-6.28536e-10
7.54196e-08
-5.65809e-10
7.59273e-08
-5.07565e-10
7.63809e-08
-4.53548e-10
7.6785e-08
-4.04159e-10
7.71439e-08
-3.59011e-10
7.74623e-08
-3.18145e-10
7.77437e-08
-2.81264e-10
7.7992e-08
-2.48221e-10
7.82107e-08
-2.1873e-10
7.84032e-08
-1.92461e-10
7.85723e-08
-1.68925e-10
7.87206e-08
-1.48182e-10
7.88504e-08
-1.29867e-10
7.89642e-08
-1.13866e-10
7.90636e-08
-9.96618e-11
7.91505e-08
-8.70609e-11
7.92264e-08
-7.59392e-11
7.92927e-08
-6.61883e-11
7.93505e-08
-5.76917e-11
7.94009e-08
-5.0268e-11
7.94447e-08
-4.38705e-11
7.94828e-08
-3.8234e-11
7.95159e-08
-3.32771e-11
7.95449e-08
-2.89419e-11
7.95702e-08
-2.51419e-11
7.95923e-08
-2.17737e-11
7.96115e-08
-1.88525e-11
7.96281e-08
-1.63848e-11
7.96424e-08
-1.42956e-11
7.96548e-08
-1.25099e-11
7.96658e-08
-1.10149e-11
7.96754e-08
-9.70661e-12
7.96838e-08
-8.47556e-12
7.96911e-08
-7.39644e-12
7.96975e-08
-6.4744e-12
7.97031e-08
-5.67215e-12
7.97079e-08
-4.85481e-12
7.9712e-08
-4.10548e-12
7.97154e-08
-3.47736e-12
7.97183e-08
-2.99789e-12
7.97208e-08
-2.64171e-12
7.97231e-08
-2.35219e-12
7.97251e-08
-2.08609e-12
7.97269e-08
-1.83608e-12
7.97285e-08
-1.59265e-12
7.97298e-08
-1.36207e-12
7.9731e-08
-1.17838e-12
7.97321e-08
-1.05653e-12
7.9733e-08
-9.69794e-13
7.97338e-08
-8.73549e-13
7.97345e-08
-7.74051e-13
7.97352e-08
-6.989e-13
7.97358e-08
-6.2828e-13
7.97364e-08
-5.46622e-13
7.9737e-08
-4.81404e-13
7.97376e-08
-4.8248e-13
7.9738e-08
-3.89374e-13
7.97384e-08
-2.81176e-13
7.97386e-08
-1.69864e-13
7.97387e-08
-1.54156e-13
7.97391e-08
-3.73932e-13
7.97396e-08
-4.62136e-13
7.97399e-08
-3.67841e-13
7.97402e-08
-2.80473e-13
7.97405e-08
-2.4398e-13
7.97407e-08
-2.05445e-13
7.97408e-08
-1.51898e-13
7.97409e-08
-8.42308e-14
7.97409e-08
-2.1154e-14
7.97408e-08
6.34734e-14
7.97407e-08
1.70003e-13
7.97404e-08
2.89621e-13
7.974e-08
4.89789e-13
7.97394e-08
5.72992e-13
7.97389e-08
5.51763e-13
7.97385e-08
4.51657e-13
7.97382e-08
3.73162e-13
7.97379e-08
3.84335e-13
7.97375e-08
4.20892e-13
7.97371e-08
4.23517e-13
7.97368e-08
3.87258e-13
7.97365e-08
3.73985e-13
7.97362e-08
3.81317e-13
7.9736e-08
3.32245e-13
7.97358e-08
2.31033e-13
7.97357e-08
2.01682e-13
7.97356e-08
2.14823e-13
7.97353e-08
2.42477e-13
7.97351e-08
2.84487e-13
7.97347e-08
3.4085e-13
7.97343e-08
3.95554e-13
7.97339e-08
4.48605e-13
7.97333e-08
5.13197e-13
7.97328e-08
5.79371e-13
7.97322e-08
6.41824e-13
7.97315e-08
7.35828e-13
7.97307e-08
8.67435e-13
7.97298e-08
9.83938e-13
7.97289e-08
1.02347e-12
7.97278e-08
1.14206e-12
7.97264e-08
1.45561e-12
7.97248e-08
1.74728e-12
7.97227e-08
2.11684e-12
7.97203e-08
2.44334e-12
7.97176e-08
2.81779e-12
7.97143e-08
3.30741e-12
7.97104e-08
3.98779e-12
7.97057e-08
4.71786e-12
7.97e-08
5.79882e-12
7.9693e-08
6.99386e-12
7.96846e-08
8.44925e-12
7.96742e-08
1.04096e-11
7.96614e-08
1.28922e-11
7.96454e-08
1.59804e-11
7.96255e-08
1.98505e-11
7.96008e-08
2.47083e-11
7.95699e-08
3.0826e-11
7.95313e-08
3.8529e-11
7.9483e-08
4.81869e-11
7.94228e-08
6.01981e-11
7.93478e-08
7.49249e-11
7.92549e-08
9.27856e-11
7.91414e-08
1.1342e-10
7.90071e-08
1.34273e-10
1.42236e-10
4.78325e-07
6.54559e-10
4.89076e-07
4.76185e-09
4.96824e-07
9.16263e-09
4.99689e-07
1.17708e-08
5.01092e-07
1.28909e-08
5.02464e-07
1.40176e-08
5.03029e-07
1.54265e-08
5.02141e-07
1.66806e-08
4.99831e-07
1.76332e-08
4.96342e-07
1.84191e-08
4.91781e-07
1.91502e-08
4.86156e-07
1.98448e-08
4.79476e-07
2.05068e-08
4.71769e-07
2.1167e-08
4.63055e-07
2.18683e-08
4.53333e-07
2.26494e-08
4.42573e-07
2.35453e-08
4.30723e-07
2.45922e-08
4.17704e-07
2.58304e-08
4.03397e-07
2.73047e-08
3.87636e-07
2.90664e-08
3.7019e-07
3.11784e-08
3.50739e-07
3.37258e-08
3.28823e-07
3.68316e-08
3.03772e-07
4.06895e-08
2.74587e-07
4.56193e-08
2.39768e-07
5.2195e-08
1.9716e-07
6.14226e-08
1.43034e-07
7.57378e-08
7.47123e-08
9.57507e-08
7.15926e-09
6.51033e-08
2.83572e-09
3.97934e-09
3.00011e-09
-7.11709e-10
2.33291e-09
9.73086e-10
1.21986e-09
1.52689e-09
8.96486e-10
9.60832e-10
8.9946e-10
4.81153e-10
1.27861e-09
-1.36229e-10
1.78205e-09
-4.69633e-10
2.14528e-09
-3.94368e-10
2.30705e-09
-1.58344e-10
2.26115e-09
1.14787e-10
2.09794e-09
2.64231e-10
1.88214e-09
3.11349e-10
1.67323e-09
2.80309e-10
1.51939e-09
1.9948e-10
1.43697e-09
1.10377e-10
1.43256e-09
2.50395e-11
1.47472e-09
-1.96689e-11
1.64424e-09
-1.51834e-10
1.78017e-09
-1.14438e-10
1.82636e-09
-6.47007e-11
2.20599e-09
-5.11348e-10
2.85981e-09
-8.7763e-10
3.39718e-09
-7.61088e-10
3.76588e-09
-5.37536e-10
4.0715e-09
-4.2478e-10
4.36774e-09
-3.92717e-10
4.70869e-09
-4.48235e-10
5.16441e-09
-6.08641e-10
5.78917e-09
-8.45672e-10
6.56338e-09
-1.06042e-09
7.43215e-09
-1.19931e-09
8.35715e-09
-1.27882e-09
9.33725e-09
-1.34878e-09
1.0396e-08
-1.44708e-09
1.15621e-08
-1.58556e-09
1.28563e-08
-1.75606e-09
1.42879e-08
-1.94387e-09
1.58609e-08
-2.14134e-09
1.75829e-08
-2.35216e-09
1.94679e-08
-2.58437e-09
2.15321e-08
-2.83831e-09
2.37829e-08
-3.09987e-09
2.62127e-08
-3.34465e-09
2.87994e-08
-3.54996e-09
3.15141e-08
-3.70672e-09
3.4333e-08
-3.82657e-09
3.72534e-08
-3.94539e-09
4.03068e-08
-4.11553e-09
4.35343e-08
-4.35093e-09
4.69527e-08
-4.6196e-09
5.05705e-08
-4.90448e-09
5.43911e-08
-5.19061e-09
5.8393e-08
-5.43998e-09
6.25292e-08
-5.61857e-09
6.67571e-08
-5.73361e-09
7.10635e-08
-5.82685e-09
7.54593e-08
-5.93306e-09
7.99532e-08
-6.04936e-09
8.45275e-08
-6.14072e-09
8.91394e-08
-6.17235e-09
9.37379e-08
-6.13499e-09
9.82836e-08
-6.04829e-09
1.02763e-07
-5.95463e-09
1.07207e-07
-5.91227e-09
1.11664e-07
-5.93958e-09
1.1614e-07
-5.98116e-09
1.20604e-07
-5.98027e-09
1.25008e-07
-5.9152e-09
1.29309e-07
-5.79078e-09
1.33479e-07
-5.62639e-09
1.37508e-07
-5.45141e-09
1.41409e-07
-5.29812e-09
1.4521e-07
-5.18907e-09
1.48945e-07
-5.12759e-09
1.52639e-07
-5.1044e-09
1.56307e-07
-5.10035e-09
1.5994e-07
-5.08342e-09
1.63511e-07
-5.02652e-09
1.66992e-07
-4.9261e-09
1.70364e-07
-4.79837e-09
1.73621e-07
-4.65537e-09
1.76755e-07
-4.49586e-09
1.79751e-07
-4.31342e-09
1.82594e-07
-4.1066e-09
1.85272e-07
-3.87994e-09
1.87776e-07
-3.63873e-09
1.90101e-07
-3.38819e-09
1.92247e-07
-3.1337e-09
1.94213e-07
-2.88013e-09
1.96006e-07
-2.63181e-09
1.97632e-07
-2.39166e-09
1.991e-07
-2.16281e-09
2.00419e-07
-1.94751e-09
2.016e-07
-1.74684e-09
2.02653e-07
-1.56138e-09
2.03591e-07
-1.39142e-09
2.04424e-07
-1.2363e-09
2.05161e-07
-1.09569e-09
2.05811e-07
-9.6871e-10
2.06384e-07
-8.54706e-10
2.06889e-07
-7.52883e-10
2.07333e-07
-6.6231e-10
2.07722e-07
-5.81799e-10
2.08064e-07
-5.10422e-10
2.08362e-07
-4.4709e-10
2.08624e-07
-3.9132e-10
2.08852e-07
-3.42268e-10
2.09052e-07
-2.99098e-10
2.09226e-07
-2.61131e-10
2.09378e-07
-2.27827e-10
2.09511e-07
-1.98588e-10
2.09626e-07
-1.73044e-10
2.09727e-07
-1.50812e-10
2.09814e-07
-1.31464e-10
2.0989e-07
-1.14536e-10
2.09957e-07
-9.97706e-11
2.10015e-07
-8.69475e-11
2.10065e-07
-7.56419e-11
2.10109e-07
-6.56085e-11
2.10146e-07
-5.68955e-11
2.10179e-07
-4.95619e-11
2.10208e-07
-4.31353e-11
2.10233e-07
-3.75722e-11
2.10255e-07
-3.27824e-11
2.10274e-07
-2.86028e-11
2.10291e-07
-2.49073e-11
2.10305e-07
-2.17517e-11
2.10318e-07
-1.90649e-11
2.10329e-07
-1.68022e-11
2.10339e-07
-1.44592e-11
2.10347e-07
-1.2366e-11
2.10355e-07
-1.06977e-11
2.10361e-07
-9.22636e-12
2.10366e-07
-7.96644e-12
2.10371e-07
-6.94036e-12
2.10375e-07
-6.05645e-12
2.10379e-07
-5.2996e-12
2.10382e-07
-4.70425e-12
2.10385e-07
-4.03879e-12
2.10387e-07
-3.61562e-12
2.10389e-07
-3.29838e-12
2.10391e-07
-3.09499e-12
2.10393e-07
-2.70647e-12
2.10394e-07
-2.38959e-12
2.10396e-07
-2.14503e-12
2.10397e-07
-1.9048e-12
2.10399e-07
-1.67452e-12
2.104e-07
-1.5241e-12
2.10401e-07
-1.38112e-12
2.10401e-07
-1.31804e-12
2.10402e-07
-1.20447e-12
2.10403e-07
-1.11967e-12
2.10404e-07
-1.09011e-12
2.10404e-07
-1.07384e-12
2.10405e-07
-1.11716e-12
2.10406e-07
-1.04139e-12
2.10406e-07
-8.9939e-13
2.10407e-07
-7.56505e-13
2.10407e-07
-6.32985e-13
2.10407e-07
-4.98777e-13
2.10407e-07
-3.20703e-13
2.10407e-07
-2.11595e-13
2.10407e-07
-4.88895e-14
2.10407e-07
1.12634e-13
2.10407e-07
3.08359e-13
2.10407e-07
4.9969e-13
2.10407e-07
6.08199e-13
2.10407e-07
6.1517e-13
2.10407e-07
5.81923e-13
2.10406e-07
5.45947e-13
2.10406e-07
5.47324e-13
2.10406e-07
5.76054e-13
2.10406e-07
6.03701e-13
2.10406e-07
6.23188e-13
2.10405e-07
6.36164e-13
2.10405e-07
6.0371e-13
2.10405e-07
5.6028e-13
2.10405e-07
5.22048e-13
2.10404e-07
4.96311e-13
2.10404e-07
5.59631e-13
2.10403e-07
6.05061e-13
2.10403e-07
7.48762e-13
2.10402e-07
8.89739e-13
2.10401e-07
1.06432e-12
2.104e-07
1.25292e-12
2.10399e-07
1.47887e-12
2.10398e-07
1.70938e-12
2.10396e-07
1.9372e-12
2.10395e-07
2.24975e-12
2.10393e-07
2.68964e-12
2.10391e-07
3.17163e-12
2.10388e-07
3.5688e-12
2.10385e-07
4.24098e-12
2.10382e-07
5.19387e-12
2.10377e-07
6.23383e-12
2.10372e-07
7.40979e-12
2.10365e-07
8.79138e-12
2.10358e-07
1.04607e-11
2.10349e-07
1.23634e-11
2.10338e-07
1.45408e-11
2.10325e-07
1.74225e-11
2.1031e-07
2.08898e-11
2.10292e-07
2.49195e-11
2.10271e-07
2.97557e-11
2.10246e-07
3.58949e-11
2.10215e-07
4.31751e-11
2.10179e-07
5.20853e-11
2.10136e-07
6.28557e-11
2.10085e-07
7.58606e-11
2.10024e-07
9.15745e-11
2.09952e-07
1.10295e-10
2.09867e-07
1.32543e-10
2.09769e-07
1.58431e-10
2.09656e-07
1.88006e-10
2.09528e-07
2.20722e-10
2.09387e-07
2.53668e-10
2.09242e-07
2.79856e-10
2.85863e-10
4.76734e-07
9.00169e-10
4.7762e-07
3.87507e-09
4.80425e-07
6.35756e-09
4.84127e-07
8.06948e-09
4.87638e-07
9.37954e-09
4.90954e-07
1.07005e-08
4.94261e-07
1.21187e-08
4.97445e-07
1.34961e-08
5.00318e-07
1.47586e-08
5.0278e-07
1.5956e-08
5.04772e-07
1.71573e-08
5.06223e-07
1.83918e-08
5.07058e-07
1.96709e-08
5.07207e-07
2.10166e-08
5.06611e-07
2.24635e-08
5.05209e-07
2.40507e-08
5.02935e-07
2.58188e-08
4.99713e-07
2.78128e-08
4.95458e-07
3.0085e-08
4.90066e-07
3.26967e-08
4.83411e-07
3.57199e-08
4.75347e-07
3.92416e-08
4.65702e-07
4.33692e-08
4.54294e-07
4.82375e-08
4.40964e-07
5.40169e-08
4.2566e-07
6.09196e-08
4.0866e-07
6.9192e-08
3.91e-07
7.90788e-08
3.76031e-07
9.07037e-08
3.67615e-07
1.04164e-07
3.13958e-07
1.18759e-07
2.07978e-07
1.09959e-07
1.11351e-07
9.59146e-08
3.78308e-08
7.44933e-08
2.78237e-09
3.65753e-08
-1.39113e-09
5.13431e-09
1.30037e-09
-2.21034e-09
2.25156e-09
-1.08741e-09
2.18092e-09
-3.98994e-10
2.02583e-09
-2.39296e-10
2.08444e-09
-2.16989e-10
2.32687e-09
-1.27681e-10
2.48133e-09
1.09745e-10
2.31949e-09
4.73175e-10
1.98375e-09
6.16064e-10
1.68978e-09
4.93477e-10
1.56039e-09
2.39811e-10
1.54466e-09
4.08377e-11
1.56693e-09
-4.18725e-11
1.81986e-09
-4.04684e-10
2.26708e-09
-5.61611e-10
2.62785e-09
-4.25448e-10
3.0539e-09
-9.37394e-10
3.58218e-09
-1.4059e-09
4.00732e-09
-1.18624e-09
4.36236e-09
-8.92598e-10
4.80282e-09
-8.65269e-10
5.32964e-09
-9.19552e-10
5.95539e-09
-1.074e-09
6.7172e-09
-1.37046e-09
7.64272e-09
-1.77121e-09
8.69228e-09
-2.11001e-09
9.83587e-09
-2.34292e-09
1.10809e-08
-2.5239e-09
1.24574e-08
-2.72534e-09
1.39942e-08
-2.98388e-09
1.57127e-08
-3.30411e-09
1.76238e-08
-3.66713e-09
1.9724e-08
-4.04418e-09
2.20061e-08
-4.42345e-09
2.44697e-08
-4.81592e-09
2.7126e-08
-5.24084e-09
2.99947e-08
-5.70721e-09
3.30993e-08
-6.20464e-09
3.64592e-08
-6.70473e-09
4.00836e-08
-7.17449e-09
4.39887e-08
-7.61192e-09
4.82181e-08
-8.056e-09
5.28051e-08
-8.5323e-09
5.76731e-08
-8.98349e-09
6.27281e-08
-9.40583e-09
6.79434e-08
-9.83486e-09
7.33261e-08
-1.02872e-08
7.89541e-08
-1.08186e-08
8.48722e-08
-1.1358e-08
9.10527e-08
-1.17991e-08
9.7454e-08
-1.21349e-08
1.04071e-07
-1.24435e-08
1.10932e-07
-1.27942e-08
1.1806e-07
-1.3178e-08
1.25436e-07
-1.35162e-08
1.32999e-07
-1.37351e-08
1.40669e-07
-1.38044e-08
1.48358e-07
-1.37373e-08
1.55971e-07
-1.35678e-08
1.63498e-07
-1.34393e-08
1.71022e-07
-1.34635e-08
1.78549e-07
-1.35084e-08
1.86033e-07
-1.34639e-08
1.93419e-07
-1.33018e-08
2.00635e-07
-1.30072e-08
2.07612e-07
-1.26031e-08
2.14299e-07
-1.21389e-08
2.20686e-07
-1.16848e-08
2.26802e-07
-1.13058e-08
2.32693e-07
-1.10179e-08
2.38403e-07
-1.08151e-08
2.43979e-07
-1.06755e-08
2.49419e-07
-1.05234e-08
2.54664e-07
-1.02725e-08
2.5966e-07
-9.92219e-09
2.64402e-07
-9.54001e-09
2.68917e-07
-9.17007e-09
2.73219e-07
-8.79765e-09
2.77296e-07
-8.39063e-09
2.81131e-07
-7.94198e-09
2.84713e-07
-7.46108e-09
2.88035e-07
-6.96058e-09
2.91096e-07
-6.44925e-09
2.93897e-07
-5.9355e-09
2.96446e-07
-5.42866e-09
2.98751e-07
-4.9369e-09
3.00826e-07
-4.46658e-09
3.02686e-07
-4.02235e-09
3.04345e-07
-3.60729e-09
3.05822e-07
-3.22317e-09
3.07131e-07
-2.87062e-09
3.08289e-07
-2.5495e-09
3.09311e-07
-2.25859e-09
3.10212e-07
-1.99629e-09
3.11004e-07
-1.76085e-09
3.117e-07
-1.55016e-09
3.1231e-07
-1.36271e-09
3.12844e-07
-1.19636e-09
3.13311e-07
-1.04906e-09
3.1372e-07
-9.18925e-10
3.14077e-07
-8.04125e-10
3.14388e-07
-7.03027e-10
3.1466e-07
-6.14155e-10
3.14897e-07
-5.36166e-10
3.15104e-07
-4.67756e-10
3.15284e-07
-4.07898e-10
3.15441e-07
-3.55484e-10
3.15577e-07
-3.09615e-10
3.15696e-07
-2.69593e-10
3.15799e-07
-2.34706e-10
3.15889e-07
-2.04282e-10
3.15967e-07
-1.77787e-10
3.16036e-07
-1.54866e-10
3.16095e-07
-1.34851e-10
3.16147e-07
-1.17378e-10
3.16192e-07
-1.02138e-10
3.16231e-07
-8.88082e-11
3.16265e-07
-7.7296e-11
3.16295e-07
-6.72973e-11
3.16321e-07
-5.8616e-11
3.16343e-07
-5.11039e-11
3.16363e-07
-4.45294e-11
3.16379e-07
-3.86149e-11
3.16394e-07
-3.36058e-11
3.16406e-07
-2.95064e-11
3.16418e-07
-2.583e-11
3.16428e-07
-2.24238e-11
3.16436e-07
-1.94026e-11
3.16444e-07
-1.6823e-11
3.1645e-07
-1.46015e-11
3.16456e-07
-1.26984e-11
3.16461e-07
-1.10736e-11
3.16465e-07
-9.67437e-12
3.16469e-07
-8.45659e-12
3.16472e-07
-7.3711e-12
3.16475e-07
-6.32967e-12
3.16477e-07
-5.65548e-12
3.16479e-07
-5.1416e-12
3.16481e-07
-4.65016e-12
3.16483e-07
-4.12602e-12
3.16485e-07
-3.64648e-12
3.16486e-07
-3.23317e-12
3.16487e-07
-2.88701e-12
3.16488e-07
-2.5802e-12
3.16489e-07
-2.36715e-12
3.1649e-07
-2.23695e-12
3.16491e-07
-2.09968e-12
3.16492e-07
-1.96288e-12
3.16493e-07
-1.83021e-12
3.16494e-07
-1.71697e-12
3.16494e-07
-1.5879e-12
3.16495e-07
-1.4953e-12
3.16495e-07
-1.33727e-12
3.16496e-07
-1.18321e-12
3.16496e-07
-9.92177e-13
3.16496e-07
-8.09455e-13
3.16496e-07
-6.54076e-13
3.16497e-07
-4.08617e-13
3.16497e-07
-2.08551e-13
3.16497e-07
4.12947e-15
3.16497e-07
1.87452e-13
3.16497e-07
3.46251e-13
3.16498e-07
4.79326e-13
3.16498e-07
5.59836e-13
3.16498e-07
6.03404e-13
3.16498e-07
6.3532e-13
3.16498e-07
6.73168e-13
3.16497e-07
7.19207e-13
3.16497e-07
7.67091e-13
3.16497e-07
8.10206e-13
3.16497e-07
8.45728e-13
3.16497e-07
8.88362e-13
3.16497e-07
8.58734e-13
3.16497e-07
8.55637e-13
3.16496e-07
9.14424e-13
3.16496e-07
9.95415e-13
3.16495e-07
1.19047e-12
3.16495e-07
1.38537e-12
3.16494e-07
1.70727e-12
3.16493e-07
2.05132e-12
3.16492e-07
2.42038e-12
3.1649e-07
2.80574e-12
3.16489e-07
3.2665e-12
3.16487e-07
3.70682e-12
3.16485e-07
4.29971e-12
3.16483e-07
5.14374e-12
3.1648e-07
6.09251e-12
3.16476e-07
7.34249e-12
3.16472e-07
8.79472e-12
3.16467e-07
1.05637e-11
3.1646e-07
1.2594e-11
3.16453e-07
1.49273e-11
3.16444e-07
1.76542e-11
3.16434e-07
2.09583e-11
3.16421e-07
2.47544e-11
3.16407e-07
2.91391e-11
3.1639e-07
3.44071e-11
3.1637e-07
4.06628e-11
3.16347e-07
4.80279e-11
3.1632e-07
5.69689e-11
3.16288e-07
6.74905e-11
3.16251e-07
8.00887e-11
3.16208e-07
9.50034e-11
3.16159e-07
1.12572e-10
3.16101e-07
1.33089e-10
3.16036e-07
1.56917e-10
3.15962e-07
1.84568e-10
3.15878e-07
2.15905e-10
3.15786e-07
2.50563e-10
3.15686e-07
2.87916e-10
3.1558e-07
3.26347e-10
3.15472e-07
3.61959e-10
3.15364e-07
3.87497e-10
3.92248e-10
4.81339e-07
6.10035e-10
4.82219e-07
2.99461e-09
4.83419e-07
5.15751e-09
4.84723e-07
6.76508e-09
4.86004e-07
8.09781e-09
4.87315e-07
9.3886e-09
4.88754e-07
1.0679e-08
4.90316e-07
1.19327e-08
4.91936e-07
1.31377e-08
4.93566e-07
1.43235e-08
4.95191e-07
1.55305e-08
4.96793e-07
1.67879e-08
4.98344e-07
1.81179e-08
4.99813e-07
1.95459e-08
5.01172e-07
2.11041e-08
5.02393e-07
2.28284e-08
5.03453e-07
2.4758e-08
5.04329e-07
2.69357e-08
5.05004e-07
2.94098e-08
5.05466e-07
3.22345e-08
5.05715e-07
3.54707e-08
5.0577e-07
3.91855e-08
5.05686e-07
4.34517e-08
5.05577e-07
4.83449e-08
5.05655e-07
5.39369e-08
5.06285e-07
6.02864e-08
5.08058e-07
6.74164e-08
5.11827e-07
7.53071e-08
5.18647e-07
8.38808e-08
5.30268e-07
9.25417e-08
5.44982e-07
1.04043e-07
5.50767e-07
1.04172e-07
5.47267e-07
9.94138e-08
5.23819e-07
9.79408e-08
4.6862e-07
9.17739e-08
4.11455e-07
6.22992e-08
3.72178e-07
3.70659e-08
3.41981e-07
2.91084e-08
3.13803e-07
2.77775e-08
2.84992e-07
2.85698e-08
2.5259e-07
3.21838e-08
2.15958e-07
3.65023e-08
1.8078e-07
3.52866e-08
1.53003e-07
2.82495e-08
1.34958e-07
1.86614e-08
1.24717e-07
1.07342e-08
1.1835e-07
6.60787e-09
1.0963e-07
8.7607e-09
9.38703e-08
1.57169e-08
6.82944e-08
2.51701e-08
3.88224e-08
2.89088e-08
1.31103e-08
2.52856e-08
3.70242e-09
8.47008e-09
2.39937e-09
-1.03309e-10
3.16891e-09
-1.95625e-09
4.19371e-09
-1.91786e-09
5.05733e-09
-1.72936e-09
5.95158e-09
-1.81425e-09
7.03114e-09
-2.15398e-09
8.08777e-09
-2.42749e-09
8.9591e-09
-2.6429e-09
9.74012e-09
-2.89138e-09
1.06328e-08
-3.23592e-09
1.18419e-08
-3.73319e-09
1.33872e-08
-4.2708e-09
1.51317e-08
-4.72838e-09
1.69896e-08
-5.16169e-09
1.90026e-08
-5.67967e-09
2.1191e-08
-6.23202e-09
2.35688e-08
-6.80035e-09
2.61514e-08
-7.39758e-09
2.89224e-08
-8.01086e-09
3.18477e-08
-8.63149e-09
3.48986e-08
-9.25432e-09
3.81174e-08
-9.92233e-09
4.15801e-08
-1.06358e-08
4.54246e-08
-1.14551e-08
4.98578e-08
-1.2488e-08
5.54527e-08
-1.41263e-08
6.29163e-08
-1.64466e-08
6.98413e-08
-1.63306e-08
7.64146e-08
-1.64079e-08
8.31886e-08
-1.70611e-08
9.01773e-08
-1.7807e-08
9.74319e-08
-1.86123e-08
1.05148e-07
-1.95147e-08
1.13467e-07
-2.04541e-08
1.22353e-07
-2.13291e-08
1.31641e-07
-2.20823e-08
1.41188e-07
-2.27249e-08
1.5095e-07
-2.32786e-08
1.60962e-07
-2.37473e-08
1.71299e-07
-2.41412e-08
1.82046e-07
-2.4484e-08
1.93281e-07
-2.48027e-08
2.04905e-07
-2.50629e-08
2.16198e-07
-2.47559e-08
2.26711e-07
-2.40213e-08
2.36813e-07
-2.3566e-08
2.46793e-07
-2.32814e-08
2.56697e-07
-2.29115e-08
2.6647e-07
-2.23758e-08
2.75957e-07
-2.16258e-08
2.85053e-07
-2.0781e-08
2.93748e-07
-2.0001e-08
3.01987e-07
-1.92569e-08
3.09765e-07
-1.85928e-08
3.1725e-07
-1.81602e-08
3.24519e-07
-1.77933e-08
3.31414e-07
-1.71674e-08
3.37774e-07
-1.62819e-08
3.43623e-07
-1.53888e-08
3.49101e-07
-1.4648e-08
3.54275e-07
-1.39715e-08
3.59125e-07
-1.32405e-08
3.63618e-07
-1.24353e-08
3.67759e-07
-1.16024e-08
3.7156e-07
-1.07616e-08
3.7503e-07
-9.91868e-09
3.78175e-07
-9.08022e-09
3.81006e-07
-8.2602e-09
3.8354e-07
-7.47142e-09
3.85797e-07
-6.72352e-09
3.87799e-07
-6.02363e-09
3.89567e-07
-5.3757e-09
3.91125e-07
-4.78131e-09
3.92495e-07
-4.24019e-09
3.93696e-07
-3.75083e-09
3.94748e-07
-3.31061e-09
3.95668e-07
-2.91636e-09
3.96472e-07
-2.56457e-09
3.97174e-07
-2.25187e-09
3.97786e-07
-1.97454e-09
3.98319e-07
-1.72965e-09
3.98784e-07
-1.51354e-09
3.99188e-07
-1.32325e-09
3.9954e-07
-1.15596e-09
3.99846e-07
-1.00911e-09
4.00113e-07
-8.8042e-10
4.00344e-07
-7.67723e-10
4.00546e-07
-6.69265e-10
4.00721e-07
-5.83146e-10
4.00873e-07
-5.07865e-10
4.01006e-07
-4.42104e-10
4.01121e-07
-3.84826e-10
4.01221e-07
-3.34931e-10
4.01308e-07
-2.91517e-10
4.01384e-07
-2.5375e-10
4.0145e-07
-2.20943e-10
4.01507e-07
-1.9238e-10
4.01557e-07
-1.67449e-10
4.01601e-07
-1.45645e-10
4.01639e-07
-1.26625e-10
4.01672e-07
-1.10116e-10
4.01701e-07
-9.57862e-11
4.01725e-07
-8.33582e-11
4.01747e-07
-7.25719e-11
4.01766e-07
-6.31821e-11
4.01782e-07
-5.49724e-11
4.01796e-07
-4.78979e-11
4.01808e-07
-4.18051e-11
4.01819e-07
-3.64771e-11
4.01828e-07
-3.17577e-11
4.01837e-07
-2.76004e-11
4.01844e-07
-2.39697e-11
4.0185e-07
-2.08248e-11
4.01856e-07
-1.81146e-11
4.0186e-07
-1.57927e-11
4.01865e-07
-1.37976e-11
4.01868e-07
-1.20297e-11
4.01871e-07
-1.04273e-11
4.01874e-07
-9.10645e-12
4.01876e-07
-7.98905e-12
4.01878e-07
-7.09166e-12
4.0188e-07
-6.34638e-12
4.01881e-07
-5.67183e-12
4.01883e-07
-5.0595e-12
4.01884e-07
-4.51748e-12
4.01885e-07
-3.98225e-12
4.01886e-07
-3.64684e-12
4.01887e-07
-3.32062e-12
4.01888e-07
-3.15736e-12
4.01889e-07
-2.98352e-12
4.01889e-07
-2.69442e-12
4.0189e-07
-2.45802e-12
4.0189e-07
-2.23944e-12
4.01891e-07
-2.03531e-12
4.01891e-07
-1.86786e-12
4.01892e-07
-1.74593e-12
4.01892e-07
-1.55454e-12
4.01892e-07
-1.36602e-12
4.01893e-07
-1.16481e-12
4.01893e-07
-9.51581e-13
4.01893e-07
-7.1792e-13
4.01893e-07
-4.89388e-13
4.01894e-07
-2.95107e-13
4.01894e-07
-1.12036e-13
4.01894e-07
5.67748e-14
4.01895e-07
2.01822e-13
4.01895e-07
3.20064e-13
4.01895e-07
4.15369e-13
4.01895e-07
4.9714e-13
4.01895e-07
5.73982e-13
4.01895e-07
6.49776e-13
4.01895e-07
7.25033e-13
4.01895e-07
7.99765e-13
4.01895e-07
8.76245e-13
4.01895e-07
9.50236e-13
4.01895e-07
1.02869e-12
4.01894e-07
1.12408e-12
4.01894e-07
1.26153e-12
4.01894e-07
1.46041e-12
4.01893e-07
1.72637e-12
4.01892e-07
2.06736e-12
4.01891e-07
2.48431e-12
4.0189e-07
2.97799e-12
4.01889e-07
3.51706e-12
4.01888e-07
4.13462e-12
4.01886e-07
4.84866e-12
4.01884e-07
5.69592e-12
4.01882e-07
6.73045e-12
4.01879e-07
8.02302e-12
4.01876e-07
9.59345e-12
4.01872e-07
1.14681e-11
4.01867e-07
1.36906e-11
4.01861e-07
1.62942e-11
4.01854e-07
1.93206e-11
4.01846e-07
2.28321e-11
4.01837e-07
2.6929e-11
4.01826e-07
3.17136e-11
4.01814e-07
3.72618e-11
4.01799e-07
4.37261e-11
4.01782e-07
5.13143e-11
4.01763e-07
6.02269e-11
4.0174e-07
7.06987e-11
4.01714e-07
8.29981e-11
4.01684e-07
9.73859e-11
4.0165e-07
1.14202e-10
4.01611e-07
1.33787e-10
4.01567e-07
1.56262e-10
4.01519e-07
1.81918e-10
4.01464e-07
2.11061e-10
4.01405e-07
2.43655e-10
4.01341e-07
2.79465e-10
4.01274e-07
3.17806e-10
4.01204e-07
3.57462e-10
4.01134e-07
3.96335e-10
4.01066e-07
4.30613e-10
4.00999e-07
4.54048e-10
4.57965e-10
4.84355e-07
5.38202e-10
4.84744e-07
2.60578e-09
4.85439e-07
4.46238e-09
4.86366e-07
5.83738e-09
4.8744e-07
7.02313e-09
4.88603e-07
8.22553e-09
4.89824e-07
9.45653e-09
4.91083e-07
1.06727e-08
4.92355e-07
1.18638e-08
4.93625e-07
1.30522e-08
4.94888e-07
1.42657e-08
4.96148e-07
1.5526e-08
4.97412e-07
1.68516e-08
4.98693e-07
1.82637e-08
5.00008e-07
1.97875e-08
5.01384e-07
2.14511e-08
5.02857e-07
2.32845e-08
5.04472e-07
2.53196e-08
5.06291e-07
2.75906e-08
5.08391e-07
3.01338e-08
5.10875e-07
3.29861e-08
5.13875e-07
3.61842e-08
5.17564e-07
3.9761e-08
5.22165e-07
4.37419e-08
5.27963e-07
4.81372e-08
5.35315e-07
5.29317e-08
5.44661e-07
5.80673e-08
5.56553e-07
6.34132e-08
5.71672e-07
6.87597e-08
5.90701e-07
7.35109e-08
6.17119e-07
7.76245e-08
6.40818e-07
8.04726e-08
6.5895e-07
8.12817e-08
6.75101e-07
8.17901e-08
6.89075e-07
7.78006e-08
6.84348e-07
6.70265e-08
6.64825e-07
5.65884e-08
6.43646e-07
5.02874e-08
6.2469e-07
4.67331e-08
6.08943e-07
4.43157e-08
5.98433e-07
4.26929e-08
5.93047e-07
4.18874e-08
5.87409e-07
4.09247e-08
5.77484e-07
3.81748e-08
5.62753e-07
3.33942e-08
5.45317e-07
2.81723e-08
5.27762e-07
2.41646e-08
5.14059e-07
2.24657e-08
5.07016e-07
2.27614e-08
5.07851e-07
2.43356e-08
5.09653e-07
2.7106e-08
5.04577e-07
3.03603e-08
4.85382e-07
2.7664e-08
4.69937e-07
1.53402e-08
4.6003e-07
7.94962e-09
4.52612e-07
5.50023e-09
4.46705e-07
4.17845e-09
4.4224e-07
2.65248e-09
4.39026e-07
1.06307e-09
4.369e-07
-2.99276e-10
4.35694e-07
-1.43381e-09
4.35247e-07
-2.44296e-09
4.35459e-07
-3.44731e-09
4.36118e-07
-4.39227e-09
4.36869e-07
-5.02271e-09
4.37042e-07
-4.90266e-09
4.36466e-07
-4.58613e-09
4.35258e-07
-4.47191e-09
4.33222e-07
-4.19651e-09
4.29931e-07
-3.50985e-09
4.25019e-07
-2.48609e-09
4.17664e-07
-6.57369e-10
4.07107e-07
1.92148e-09
3.917e-07
6.14686e-09
3.70686e-07
1.10856e-08
3.43051e-07
1.69928e-08
3.07695e-07
2.3896e-08
2.62875e-07
3.23269e-08
2.06836e-07
4.19097e-08
1.45976e-07
4.44139e-08
1.00582e-07
2.90651e-08
8.36654e-08
5.08868e-10
8.64209e-08
-1.98172e-08
9.47287e-08
-2.61154e-08
1.02357e-07
-2.62401e-08
1.09552e-07
-2.67091e-08
1.17486e-07
-2.83875e-08
1.26291e-07
-3.01323e-08
1.35457e-07
-3.12466e-08
1.44548e-07
-3.18152e-08
1.53522e-07
-3.22528e-08
1.62644e-07
-3.2869e-08
1.72376e-07
-3.38743e-08
1.83336e-07
-3.54446e-08
1.9644e-07
-3.79066e-08
2.15083e-07
-4.37055e-08
2.3645e-07
-4.61211e-08
2.53129e-07
-4.07001e-08
2.67449e-07
-3.78867e-08
2.81061e-07
-3.68938e-08
2.94306e-07
-3.61567e-08
3.07461e-07
-3.55307e-08
3.20759e-07
-3.49238e-08
3.34408e-07
-3.44302e-08
3.4827e-07
-3.38623e-08
3.60574e-07
-3.15615e-08
3.70429e-07
-2.84476e-08
3.79166e-07
-2.68968e-08
3.87713e-07
-2.634e-08
3.95894e-07
-2.53482e-08
4.03202e-07
-2.359e-08
4.09737e-07
-2.19245e-08
4.15882e-07
-2.07928e-08
4.2179e-07
-1.98793e-08
4.2728e-07
-1.87306e-08
4.32248e-07
-1.74032e-08
4.36723e-07
-1.60776e-08
4.40771e-07
-1.48092e-08
4.44411e-07
-1.35595e-08
4.47664e-07
-1.23332e-08
4.50551e-07
-1.1147e-08
4.53097e-07
-1.00168e-08
4.55329e-07
-8.95593e-09
4.57278e-07
-7.97314e-09
4.58976e-07
-7.07279e-09
4.6045e-07
-6.25527e-09
4.61728e-07
-5.51831e-09
4.62835e-07
-4.85784e-09
4.63793e-07
-4.26871e-09
4.64622e-07
-3.74531e-09
4.65339e-07
-3.28171e-09
4.6596e-07
-2.87213e-09
4.66496e-07
-2.51116e-09
4.6696e-07
-2.19364e-09
4.67361e-07
-1.91495e-09
4.67709e-07
-1.67057e-09
4.68009e-07
-1.45652e-09
4.6827e-07
-1.26935e-09
4.68495e-07
-1.10582e-09
4.6869e-07
-9.6298e-10
4.68859e-07
-8.38307e-10
4.69006e-07
-7.29725e-10
4.69133e-07
-6.34941e-10
4.69243e-07
-5.52312e-10
4.69339e-07
-4.80444e-10
4.69422e-07
-4.17973e-10
4.69495e-07
-3.63732e-10
4.69557e-07
-3.16583e-10
4.69612e-07
-2.75402e-10
4.69659e-07
-2.39653e-10
4.697e-07
-2.08557e-10
4.69736e-07
-1.8148e-10
4.69767e-07
-1.57879e-10
4.69794e-07
-1.3733e-10
4.69818e-07
-1.19479e-10
4.69838e-07
-1.03968e-10
4.69856e-07
-9.04997e-11
4.69872e-07
-7.88111e-11
4.69885e-07
-6.86742e-11
4.69897e-07
-5.98585e-11
4.69907e-07
-5.21903e-11
4.69916e-07
-4.55002e-11
4.69924e-07
-3.96375e-11
4.69931e-07
-3.45031e-11
4.69937e-07
-3.00239e-11
4.69942e-07
-2.61307e-11
4.69947e-07
-2.27648e-11
4.69951e-07
-1.98727e-11
4.69955e-07
-1.74164e-11
4.69958e-07
-1.52729e-11
4.69961e-07
-1.32897e-11
4.69963e-07
-1.15053e-11
4.69965e-07
-1.00099e-11
4.69967e-07
-8.81874e-12
4.69968e-07
-7.8349e-12
4.6997e-07
-6.98127e-12
4.69971e-07
-6.21121e-12
4.69972e-07
-5.53744e-12
4.69973e-07
-4.98678e-12
4.69974e-07
-4.42292e-12
4.69974e-07
-3.91582e-12
4.69974e-07
-3.64141e-12
4.69975e-07
-3.39277e-12
4.69975e-07
-3.11126e-12
4.69976e-07
-2.80807e-12
4.69976e-07
-2.53644e-12
4.69977e-07
-2.2943e-12
4.69977e-07
-2.09131e-12
4.69977e-07
-1.92294e-12
4.69977e-07
-1.76185e-12
4.69978e-07
-1.57641e-12
4.69978e-07
-1.37577e-12
4.69978e-07
-1.16379e-12