/*--------------------------------*- C++ -*----------------------------------*\
| =========                 |                                                 |
| \\      /  F ield         | OpenFOAM: The Open Source CFD Toolbox           |
|  \\    /   O peration     | Version:  2406                                  |
|   \\  /    A nd           | Website:  www.openfoam.com                      |
|    \\/     M anipulation  |                                                 |
\*---------------------------------------------------------------------------*/
FoamFile
{
    version     2.0;
    format      ascii;
    arch        "LSB;label=32;scalar=64";
    class       volVectorField;
    location    "0.15";
    object      U;
}
// * * * * * * * * * * * * * * * * * * * * * * * * * * * * * * * * * * * * * //

dimensions      [0 1 -1 0 0 0 0];

internalField   nonuniform List<vector> 
6250
(
(19.6342 0.000140803 0)
(34.113 0.000731946 0)
(29.8939 0.000977944 0)
(24.9237 0.00115735 0)
(24.4693 0.000870088 0)
(25.7751 0.000639553 0)
(26.3795 0.000444446 0)
(26.2144 0.000473479 0)
(25.9777 0.000725103 0)
(25.9397 0.000692711 0)
(25.9941 0.000606799 0)
(26.0242 0.000666144 0)
(26.0191 0.000692873 0)
(26.0081 0.00063155 0)
(26.0049 0.000528179 0)
(26.0064 0.000421253 0)
(26.0073 0.000253599 0)
(26.0071 -7.90021e-06 0)
(26.0065 -0.000264512 0)
(26.0065 -0.000511231 0)
(26.0065 -0.000803543 0)
(26.0072 -0.00102993 0)
(26.0077 -0.0010512 0)
(26.0079 -0.000892454 0)
(26.0081 -0.000628219 0)
(26.0083 -0.000303995 0)
(26.0081 -4.0556e-05 0)
(26.0079 4.26935e-05 0)
(26.0081 -6.14654e-05 0)
(26.0083 -0.000287375 0)
(26.0088 -0.000509362 0)
(26.0092 -0.000595181 0)
(26.0096 -0.000442974 0)
(26.0098 -3.10959e-05 0)
(26.0098 0.000511188 0)
(26.0098 0.00102519 0)
(26.0094 0.00132707 0)
(26.0088 0.00122688 0)
(26.0086 0.000753397 0)
(26.0088 0.000196858 0)
(26.0089 -0.0002616 0)
(26.0089 -0.000613953 0)
(26.0091 -0.000858473 0)
(26.0096 -0.000915214 0)
(26.0102 -0.00072075 0)
(26.0106 -0.00033497 0)
(26.0106 5.77404e-05 0)
(26.0104 0.000281321 0)
(26.0102 0.000281257 0)
(26.0101 0.000143166 0)
(26.0101 -7.26148e-06 0)
(26.0102 -0.000113714 0)
(26.0103 -0.000178919 0)
(26.0104 -0.000178933 0)
(26.0104 -7.72217e-05 0)
(26.0104 0.000106778 0)
(26.0103 0.000280725 0)
(26.0102 0.00034839 0)
(26.0101 0.000303937 0)
(26.01 0.00018304 0)
(26.0099 1.10095e-05 0)
(26.01 -0.000148583 0)
(26.0102 -0.000204474 0)
(26.0104 -0.000131177 0)
(26.0104 -2.0093e-05 0)
(26.0104 1.73467e-05 0)
(26.0104 -4.13501e-05 0)
(26.0105 -0.000119974 0)
(26.0105 -0.000144505 0)
(26.0106 -9.98263e-05 0)
(26.0106 -5.01929e-06 0)
(26.0105 0.000111968 0)
(26.0104 0.000203213 0)
(26.0103 0.000212286 0)
(26.0102 0.000123746 0)
(26.0102 -1.40236e-05 0)
(26.0102 -0.000129088 0)
(26.0103 -0.000167884 0)
(26.0104 -0.000129026 0)
(26.0105 -6.52098e-05 0)
(26.0105 -2.82713e-05 0)
(26.0105 -3.25615e-05 0)
(26.0105 -5.62547e-05 0)
(26.0106 -7.26083e-05 0)
(26.0107 -7.7196e-05 0)
(26.0107 -7.82432e-05 0)
(26.0108 -7.57597e-05 0)
(26.0109 -5.84367e-05 0)
(26.0109 -2.87751e-05 0)
(26.0109 -1.20593e-05 0)
(26.0109 -1.53688e-05 0)
(26.0109 -1.84941e-05 0)
(26.011 -2.55367e-06 0)
(26.011 1.98064e-05 0)
(26.011 1.99626e-05 0)
(26.011 -5.74724e-06 0)
(26.011 -2.6515e-05 0)
(26.0111 -9.92488e-06 0)
(26.0111 3.60829e-05 0)
(26.0111 6.67648e-05 0)
(26.0111 4.85441e-05 0)
(26.0111 -8.245e-06 0)
(26.0111 -6.29594e-05 0)
(26.0112 -7.37732e-05 0)
(26.0112 -3.86594e-05 0)
(26.0112 1.70749e-06 0)
(26.0112 1.11181e-05 0)
(26.0112 -6.54439e-06 0)
(26.0112 -1.94733e-05 0)
(26.0113 -3.23795e-06 0)
(26.0112 3.24368e-05 0)
(26.0111 5.67645e-05 0)
(26.011 5.33439e-05 0)
(26.011 3.79401e-05 0)
(26.011 3.8179e-05 0)
(26.011 5.74617e-05 0)
(26.0109 6.27542e-05 0)
(26.0108 2.65414e-05 0)
(26.0107 -2.93755e-05 0)
(26.0106 -4.76204e-05 0)
(26.0106 2.52966e-06 0)
(26.0106 8.22461e-05 0)
(26.0105 0.000113134 0)
(26.0104 5.21856e-05 0)
(26.0103 -4.3182e-05 0)
(26.0103 -7.34691e-05 0)
(26.0102 1.88048e-08 0)
(26.0102 0.000114113 0)
(26.01 0.000157777 0)
(26.0098 7.48226e-05 0)
(26.0097 -6.96822e-05 0)
(26.0097 -0.000158215 0)
(26.0098 -0.000128316 0)
(26.0098 -2.7831e-05 0)
(26.0097 4.38638e-05 0)
(26.0096 2.47371e-05 0)
(26.0096 -4.49207e-05 0)
(26.0096 -8.29846e-05 0)
(26.0096 -4.27767e-05 0)
(26.0096 3.71923e-05 0)
(26.0095 8.00369e-05 0)
(26.0095 4.12045e-05 0)
(26.0094 -4.20537e-05 0)
(26.0095 -0.000101817 0)
(26.0096 -9.41837e-05 0)
(26.0096 -2.54738e-05 0)
(26.0096 5.48619e-05 0)
(26.0095 0.000100478 0)
(26.0094 9.37228e-05 0)
(26.0094 5.58706e-05 0)
(26.0095 1.53752e-05 0)
(26.0095 -1.54805e-05 0)
(26.0096 -3.29983e-05 0)
(26.0097 -3.48314e-05 0)
(26.0097 -1.52897e-05 0)
(26.0097 2.49263e-05 0)
(26.0096 6.93191e-05 0)
(26.0096 9.75451e-05 0)
(26.0096 9.84351e-05 0)
(26.0096 6.83778e-05 0)
(26.0097 9.33142e-06 0)
(26.0098 -6.48622e-05 0)
(26.01 -0.000118976 0)
(26.0102 -0.000102269 0)
(26.0103 -5.86166e-07 0)
(26.0103 0.000120045 0)
(26.0102 0.000181789 0)
(26.0102 0.000144668 0)
(26.0101 4.79964e-05 0)
(26.0102 -4.49411e-05 0)
(26.0104 -8.96652e-05 0)
(26.0105 -8.32711e-05 0)
(26.0106 -5.48197e-05 0)
(26.0106 -2.51363e-05 0)
(26.0107 1.20225e-05 0)
(26.0107 6.30317e-05 0)
(26.0107 0.000113446 0)
(26.0106 0.000130544 0)
(26.0106 8.60359e-05 0)
(26.0105 -1.34841e-05 0)
(26.0106 -0.000129016 0)
(26.0108 -0.000193834 0)
(26.011 -0.000151436 0)
(26.0111 -2.22101e-05 0)
(26.011 0.000102533 0)
(26.0108 0.000149276 0)
(26.0107 0.000105864 0)
(26.0106 2.41126e-05 0)
(26.0106 -3.99293e-05 0)
(26.0106 -6.98035e-05 0)
(26.0106 -8.337e-05 0)
(26.0106 -9.28767e-05 0)
(26.0106 -8.38631e-05 0)
(26.0106 -3.77326e-05 0)
(26.0105 3.66602e-05 0)
(26.0104 0.000101517 0)
(26.0102 0.000114759 0)
(26.01 5.89287e-05 0)
(26.0098 -4.42166e-05 0)
(26.0098 -0.000140501 0)
(26.0098 -0.000189801 0)
(26.0099 -0.000184441 0)
(26.0099 -0.000129666 0)
(26.0099 -4.51524e-05 0)
(26.0099 3.6374e-05 0)
(26.0099 8.43276e-05 0)
(26.0098 9.69886e-05 0)
(26.0098 9.26228e-05 0)
(26.0097 7.82446e-05 0)
(26.0096 4.90955e-05 0)
(26.0096 4.74589e-06 0)
(26.0096 -4.60326e-05 0)
(26.0097 -8.2844e-05 0)
(26.0098 -8.4224e-05 0)
(26.01 -4.91436e-05 0)
(26.0102 1.7571e-06 0)
(26.0103 4.18864e-05 0)
(26.0104 6.3852e-05 0)
(26.0104 7.98091e-05 0)
(26.0104 9.78784e-05 0)
(26.0104 0.000109567 0)
(26.0103 9.62073e-05 0)
(26.0103 4.4675e-05 0)
(26.0103 -3.67824e-05 0)
(26.0104 -0.000117413 0)
(26.0106 -0.000159516 0)
(26.0108 -0.000146473 0)
(26.011 -9.59796e-05 0)
(26.0111 -4.29558e-05 0)
(26.0112 -8.06811e-06 0)
(26.0113 1.2656e-05 0)
(26.0113 2.85971e-05 0)
(26.0112 3.97494e-05 0)
(26.0111 3.50314e-05 0)
(26.0111 5.71769e-06 0)
(26.011 -4.49868e-05 0)
(26.011 -0.000103228 0)
(26.011 -0.000142686 0)
(26.0111 -0.000137532 0)
(26.0112 -7.88546e-05 0)
(26.0112 1.18114e-05 0)
(26.0112 0.000106136 0)
(26.0112 0.000177096 0)
(26.0112 0.000211811 0)
(26.0111 0.000211557 0)
(26.0111 0.000186201 0)
(26.0111 0.000147649 0)
(26.0111 0.000104989 0)
(26.0111 7.48358e-05 0)
(26.0112 4.65302e-06 0)
(19.6343 9.62186e-05 0)
(34.1146 0.000486154 0)
(29.8983 0.000733262 0)
(24.9303 0.000838963 0)
(24.4767 0.000501012 0)
(25.7826 0.000591541 0)
(26.3884 0.000869743 0)
(26.2241 0.000766563 0)
(25.988 0.000604576 0)
(25.951 0.000397179 0)
(26.0065 0.00026779 0)
(26.0377 0.000291027 0)
(26.0332 0.000311027 0)
(26.0228 0.000432786 0)
(26.0208 0.000581836 0)
(26.0237 0.000682598 0)
(26.0254 0.000729761 0)
(26.0252 0.000698205 0)
(26.0244 0.000660589 0)
(26.0244 0.000656105 0)
(26.0235 0.00057037 0)
(26.0228 0.000380414 0)
(26.0222 0.000216312 0)
(26.0217 6.04779e-05 0)
(26.0212 -6.61069e-05 0)
(26.0214 -8.20657e-05 0)
(26.0215 -2.92582e-05 0)
(26.0212 2.88221e-06 0)
(26.021 -1.89102e-05 0)
(26.0203 -0.000119013 0)
(26.0196 -0.000239172 0)
(26.019 -0.000306269 0)
(26.0183 -0.000361152 0)
(26.0179 -0.000463284 0)
(26.018 -0.000615773 0)
(26.0185 -0.000691006 0)
(26.0196 -0.00058808 0)
(26.0206 -0.000431767 0)
(26.021 -0.000364792 0)
(26.0212 -0.000290949 0)
(26.0214 -9.57386e-05 0)
(26.0213 0.000131679 0)
(26.0207 0.000206126 0)
(26.0198 9.12319e-05 0)
(26.019 -6.04458e-05 0)
(26.0187 -9.54436e-05 0)
(26.0187 -2.34705e-05 0)
(26.019 4.92755e-05 0)
(26.0193 4.57381e-05 0)
(26.0194 -1.97887e-05 0)
(26.0194 -7.56549e-05 0)
(26.0194 -7.01017e-05 0)
(26.0194 -1.951e-05 0)
(26.0191 2.20584e-05 0)
(26.0188 1.72651e-05 0)
(26.0188 -2.73111e-05 0)
(26.019 -8.6409e-05 0)
(26.0192 -0.000128756 0)
(26.0195 -0.000108191 0)
(26.0196 -3.5396e-05 0)
(26.0196 8.59743e-06 0)
(26.0194 -3.73223e-05 0)
(26.0191 -0.000122685 0)
(26.019 -0.000152139 0)
(26.0191 -0.000100106 0)
(26.0192 -2.8622e-05 0)
(26.0193 9.99896e-06 0)
(26.0194 3.3329e-05 0)
(26.0194 6.58377e-05 0)
(26.0195 8.66241e-05 0)
(26.0196 6.41548e-05 0)
(26.0197 1.27425e-05 0)
(26.0198 -2.02116e-05 0)
(26.02 -1.04751e-05 0)
(26.0201 2.38441e-05 0)
(26.0201 5.00925e-05 0)
(26.0199 4.23747e-05 0)
(26.0197 5.26597e-06 0)
(26.0195 -3.00587e-05 0)
(26.0194 -3.85257e-05 0)
(26.0194 -2.19891e-05 0)
(26.0194 -8.33645e-06 0)
(26.0194 -1.87849e-05 0)
(26.0195 -4.74887e-05 0)
(26.0195 -7.29996e-05 0)
(26.0195 -7.96661e-05 0)
(26.0194 -6.27958e-05 0)
(26.0193 -2.66573e-05 0)
(26.0193 9.05836e-06 0)
(26.0194 1.34237e-05 0)
(26.0194 -1.9636e-05 0)
(26.0194 -5.88276e-05 0)
(26.0194 -6.29818e-05 0)
(26.0195 -3.10472e-05 0)
(26.0195 -7.42183e-06 0)
(26.0196 -2.92737e-05 0)
(26.0196 -8.23626e-05 0)
(26.0197 -0.000114701 0)
(26.0198 -9.32759e-05 0)
(26.0199 -3.60102e-05 0)
(26.02 8.91132e-06 0)
(26.02 1.10545e-05 0)
(26.0199 -1.47921e-05 0)
(26.0198 -2.80753e-05 0)
(26.0198 -7.88254e-06 0)
(26.0199 2.12585e-05 0)
(26.0199 2.20155e-05 0)
(26.0198 -9.7136e-06 0)
(26.0197 -3.67299e-05 0)
(26.0197 -1.74702e-05 0)
(26.0198 4.5522e-05 0)
(26.0199 0.000101057 0)
(26.0199 9.24825e-05 0)
(26.0199 2.30229e-05 0)
(26.0198 -3.5631e-05 0)
(26.0198 -1.23487e-05 0)
(26.0198 9.1032e-05 0)
(26.0197 0.000195442 0)
(26.0196 0.00021451 0)
(26.0194 0.000135254 0)
(26.0192 3.73908e-05 0)
(26.0192 1.98975e-05 0)
(26.0193 9.18614e-05 0)
(26.0193 0.000172738 0)
(26.0191 0.000181333 0)
(26.0188 0.000117971 0)
(26.0186 6.16715e-05 0)
(26.0186 8.78808e-05 0)
(26.0187 0.000180683 0)
(26.0186 0.000247751 0)
(26.0183 0.000221911 0)
(26.0179 0.000126557 0)
(26.0176 4.91826e-05 0)
(26.0174 4.9683e-05 0)
(26.0174 0.000107597 0)
(26.0174 0.000144701 0)
(26.0172 0.000112171 0)
(26.017 3.60338e-05 0)
(26.0169 -1.05195e-05 0)
(26.0169 1.20841e-05 0)
(26.017 6.92119e-05 0)
(26.017 9.721e-05 0)
(26.0168 6.96821e-05 0)
(26.0166 8.1521e-06 0)
(26.0165 -3.88823e-05 0)
(26.0165 -3.65306e-05 0)
(26.0166 7.86128e-08 0)
(26.0168 2.257e-05 0)
(26.017 -3.81104e-06 0)
(26.0171 -6.45397e-05 0)
(26.0172 -0.000118126 0)
(26.0173 -0.000131692 0)
(26.0173 -0.00010122 0)
(26.0173 -4.98176e-05 0)
(26.0173 -7.65344e-06 0)
(26.0173 6.47485e-06 0)
(26.0175 -1.39733e-05 0)
(26.0176 -5.93423e-05 0)
(26.0178 -0.000109505 0)
(26.0181 -0.000147269 0)
(26.0183 -0.000173322 0)
(26.0185 -0.000203067 0)
(26.0185 -0.000238787 0)
(26.0186 -0.000250019 0)
(26.0188 -0.000204541 0)
(26.0192 -0.000119065 0)
(26.0195 -4.026e-05 0)
(26.0198 -1.79745e-05 0)
(26.0199 -5.92815e-05 0)
(26.0199 -0.000132097 0)
(26.0199 -0.000184316 0)
(26.02 -0.000182162 0)
(26.0201 -0.000137595 0)
(26.0202 -8.98134e-05 0)
(26.0203 -6.5654e-05 0)
(26.0205 -6.24497e-05 0)
(26.0206 -5.47619e-05 0)
(26.0208 -2.66157e-05 0)
(26.021 4.2211e-06 0)
(26.021 -1.31539e-06 0)
(26.0209 -6.20468e-05 0)
(26.0207 -0.000135629 0)
(26.0206 -0.000147798 0)
(26.0207 -6.67648e-05 0)
(26.0208 6.17146e-05 0)
(26.0209 0.000161213 0)
(26.0208 0.000182696 0)
(26.0207 0.000142512 0)
(26.0204 9.44284e-05 0)
(26.0202 7.67605e-05 0)
(26.0201 8.50367e-05 0)
(26.0199 9.27045e-05 0)
(26.0197 8.93658e-05 0)
(26.0195 9.2427e-05 0)
(26.0194 0.000126234 0)
(26.0193 0.000194415 0)
(26.0192 0.000269049 0)
(26.019 0.000307236 0)
(26.0187 0.000284925 0)
(26.0182 0.000218498 0)
(26.0178 0.000139383 0)
(26.0175 7.03365e-05 0)
(26.0173 2.75582e-05 0)
(26.0172 1.42932e-05 0)
(26.0173 1.54733e-05 0)
(26.0173 1.24741e-05 0)
(26.0174 9.39146e-06 0)
(26.0175 2.48199e-05 0)
(26.0175 5.39473e-05 0)
(26.0176 7.06167e-05 0)
(26.0175 4.38153e-05 0)
(26.0175 -4.06849e-05 0)
(26.0176 -0.000158669 0)
(26.0177 -0.000256937 0)
(26.018 -0.00029628 0)
(26.0183 -0.00027643 0)
(26.0186 -0.000227523 0)
(26.0188 -0.000177343 0)
(26.0191 -0.000131862 0)
(26.0193 -8.49062e-05 0)
(26.0195 -3.59534e-05 0)
(26.0197 -1.15017e-06 0)
(26.0198 -6.25408e-06 0)
(26.0198 -6.30254e-05 0)
(26.0198 -0.00015062 0)
(26.0197 -0.000223599 0)
(26.0198 -0.000244983 0)
(26.0199 -0.000213385 0)
(26.02 -0.000157965 0)
(26.02 -0.000107998 0)
(26.0201 -6.92681e-05 0)
(26.0201 -2.89713e-05 0)
(26.0201 2.32071e-05 0)
(26.0202 7.81918e-05 0)
(26.0201 0.000112375 0)
(26.02 0.000105153 0)
(26.0199 5.47651e-05 0)
(26.0198 -1.26801e-05 0)
(26.0197 -6.11867e-05 0)
(26.0197 -7.79659e-05 0)
(26.0198 -7.78499e-05 0)
(26.0201 -8.01242e-05 0)
(26.0203 -9.33628e-05 0)
(26.0206 -0.000109152 0)
(26.0209 -0.000115387 0)
(26.0212 -0.000109856 0)
(26.0214 -0.000102596 0)
(26.0217 -0.000105223 0)
(26.0218 -0.000113459 0)
(26.0221 -0.000174955 0)
(19.6342 -0.000129001 0)
(34.1139 -0.000171042 0)
(29.8961 -0.000117146 0)
(24.9266 -0.000186906 0)
(24.4736 -8.78972e-05 0)
(25.7796 -7.76698e-05 0)
(26.3857 0.000133854 0)
(26.2209 8.21581e-05 0)
(25.9857 1.38636e-06 0)
(25.948 7.18803e-05 0)
(26.0028 0.000102767 0)
(26.0336 1.33022e-05 0)
(26.0285 -0.000212022 0)
(26.0179 -0.000323229 0)
(26.0158 -0.00034504 0)
(26.018 -0.00036856 0)
(26.0197 -0.000372514 0)
(26.0203 -0.000423296 0)
(26.02 -0.000503372 0)
(26.0204 -0.000390144 0)
(26.0207 -0.000100428 0)
(26.0212 0.000108206 0)
(26.0213 0.000331151 0)
(26.0213 0.000511015 0)
(26.0208 0.000534081 0)
(26.0209 0.000468474 0)
(26.0212 0.000419368 0)
(26.0212 0.000426213 0)
(26.0216 0.000499213 0)
(26.0219 0.000615416 0)
(26.0218 0.000743371 0)
(26.0218 0.000866991 0)
(26.0217 0.00089757 0)
(26.0215 0.000731714 0)
(26.0208 0.000344125 0)
(26.0198 -0.000149788 0)
(26.019 -0.000462435 0)
(26.0185 -0.000445852 0)
(26.018 -0.000269786 0)
(26.0175 -0.000134406 0)
(26.0174 -1.16401e-05 0)
(26.0177 0.000179074 0)
(26.0183 0.000367175 0)
(26.0187 0.000409564 0)
(26.0189 0.000274235 0)
(26.0188 5.33895e-05 0)
(26.0188 -0.000129557 0)
(26.0188 -0.000192607 0)
(26.0188 -0.000131034 0)
(26.0188 -2.54363e-05 0)
(26.0187 4.62526e-05 0)
(26.0186 0.00010145 0)
(26.0186 0.000188026 0)
(26.0187 0.000260622 0)
(26.0188 0.000226264 0)
(26.0188 8.20961e-05 0)
(26.0187 -7.2703e-05 0)
(26.0186 -0.000144065 0)
(26.0185 -0.000112158 0)
(26.0185 2.4776e-06 0)
(26.0187 0.000150442 0)
(26.0189 0.000225534 0)
(26.0189 0.000149582 0)
(26.0189 -3.3248e-05 0)
(26.0188 -0.000193008 0)
(26.0187 -0.00026018 0)
(26.0186 -0.000268086 0)
(26.0186 -0.000267353 0)
(26.0187 -0.000252422 0)
(26.0188 -0.000202715 0)
(26.0189 -0.000143273 0)
(26.0189 -0.00011884 0)
(26.0188 -0.000122911 0)
(26.0188 -9.82621e-05 0)
(26.0188 -5.56792e-06 0)
(26.0189 0.00012703 0)
(26.019 0.00022159 0)
(26.019 0.000213343 0)
(26.019 0.000112141 0)
(26.019 2.34442e-06 0)
(26.019 -4.66965e-05 0)
(26.019 -4.00087e-05 0)
(26.019 -3.22988e-05 0)
(26.0191 -5.29743e-05 0)
(26.0191 -7.61113e-05 0)
(26.0191 -6.72494e-05 0)
(26.0191 -3.08256e-05 0)
(26.0191 -1.56004e-06 0)
(26.0191 -2.47502e-07 0)
(26.0192 -1.82365e-05 0)
(26.0192 -4.4768e-05 0)
(26.0192 -7.63125e-05 0)
(26.0192 -0.00010373 0)
(26.0192 -0.000111876 0)
(26.0193 -9.98359e-05 0)
(26.0194 -8.86427e-05 0)
(26.0195 -0.000100266 0)
(26.0194 -0.000131408 0)
(26.0194 -0.000151134 0)
(26.0194 -0.000128744 0)
(26.0194 -6.6765e-05 0)
(26.0195 4.91209e-07 0)
(26.0195 4.0304e-05 0)
(26.0195 4.2716e-05 0)
(26.0195 2.67923e-05 0)
(26.0195 1.981e-05 0)
(26.0195 2.5835e-05 0)
(26.0195 2.56814e-05 0)
(26.0195 5.71197e-06 0)
(26.0194 -1.94329e-05 0)
(26.0194 -1.70127e-05 0)
(26.0194 2.44696e-05 0)
(26.0195 7.61853e-05 0)
(26.0195 9.42446e-05 0)
(26.0194 7.05364e-05 0)
(26.0191 5.13174e-05 0)
(26.019 0.000100795 0)
(26.019 0.00022525 0)
(26.0191 0.000341941 0)
(26.0191 0.000345149 0)
(26.0189 0.000218257 0)
(26.0187 7.03493e-05 0)
(26.0185 3.71499e-05 0)
(26.0185 0.00015565 0)
(26.0186 0.00031663 0)
(26.0186 0.00037627 0)
(26.0184 0.000301996 0)
(26.0181 0.000200838 0)
(26.0179 0.000204375 0)
(26.0178 0.00033544 0)
(26.0178 0.00047916 0)
(26.0177 0.000501367 0)
(26.0175 0.000376931 0)
(26.0173 0.000207059 0)
(26.0172 0.00011628 0)
(26.0172 0.000141412 0)
(26.0172 0.000204439 0)
(26.0172 0.000214113 0)
(26.0171 0.000150182 0)
(26.0169 7.36412e-05 0)
(26.0168 5.19249e-05 0)
(26.0168 9.6071e-05 0)
(26.0168 0.000146838 0)
(26.0168 0.00013967 0)
(26.0168 6.1512e-05 0)
(26.0168 -4.73888e-05 0)
(26.0168 -0.00013574 0)
(26.0169 -0.000183688 0)
(26.017 -0.000199498 0)
(26.0171 -0.000200618 0)
(26.0172 -0.000190161 0)
(26.0172 -0.000156778 0)
(26.0171 -0.000101957 0)
(26.0172 -4.87896e-05 0)
(26.0172 -2.91631e-05 0)
(26.0173 -6.06255e-05 0)
(26.0174 -0.000137686 0)
(26.0175 -0.000241195 0)
(26.0176 -0.000344192 0)
(26.0177 -0.000412014 0)
(26.0179 -0.000422826 0)
(26.0181 -0.000387923 0)
(26.0183 -0.000347929 0)
(26.0184 -0.000343441 0)
(26.0185 -0.00037487 0)
(26.0185 -0.000392933 0)
(26.0187 -0.000354389 0)
(26.0188 -0.000263546 0)
(26.019 -0.000179853 0)
(26.0191 -0.000157024 0)
(26.0192 -0.000198183 0)
(26.0192 -0.000255372 0)
(26.0193 -0.000273538 0)
(26.0195 -0.000241415 0)
(26.0196 -0.000196309 0)
(26.0197 -0.000177604 0)
(26.0197 -0.00018497 0)
(26.0197 -0.000182027 0)
(26.0198 -0.000136219 0)
(26.0199 -5.89429e-05 0)
(26.02 6.94107e-06 0)
(26.02 2.24606e-05 0)
(26.02 -1.30502e-05 0)
(26.0199 -4.58912e-05 0)
(26.0198 -1.11972e-05 0)
(26.0198 9.92324e-05 0)
(26.0198 0.000232894 0)
(26.0197 0.000318534 0)
(26.0195 0.00032735 0)
(26.0194 0.000289044 0)
(26.0192 0.000255942 0)
(26.0192 0.000254436 0)
(26.0191 0.000273664 0)
(26.019 0.000294949 0)
(26.0187 0.000320496 0)
(26.0185 0.000369536 0)
(26.0182 0.000452818 0)
(26.018 0.000550544 0)
(26.0179 0.000616303 0)
(26.0177 0.000603473 0)
(26.0175 0.000499431 0)
(26.0174 0.000333136 0)
(26.0173 0.000155963 0)
(26.0173 2.24843e-05 0)
(26.0173 -4.08093e-05 0)
(26.0173 -4.60773e-05 0)
(26.0173 -2.2378e-05 0)
(26.0172 7.35667e-06 0)
(26.0172 2.82108e-05 0)
(26.0172 2.76881e-05 0)
(26.0173 -1.56574e-05 0)
(26.0174 -0.000120955 0)
(26.0176 -0.000278274 0)
(26.0177 -0.000442773 0)
(26.0179 -0.000560313 0)
(26.0181 -0.000594367 0)
(26.0183 -0.000544351 0)
(26.0185 -0.000445621 0)
(26.0187 -0.000344843 0)
(26.0188 -0.000269567 0)
(26.0189 -0.000218365 0)
(26.019 -0.000177682 0)
(26.0191 -0.000143635 0)
(26.0193 -0.000128849 0)
(26.0194 -0.000147623 0)
(26.0194 -0.000196556 0)
(26.0194 -0.000247758 0)
(26.0194 -0.000264559 0)
(26.0195 -0.000228377 0)
(26.0196 -0.000152822 0)
(26.0196 -6.94285e-05 0)
(26.0196 1.17362e-06 0)
(26.0195 5.90332e-05 0)
(26.0194 0.000113394 0)
(26.0194 0.0001633 0)
(26.0194 0.000190962 0)
(26.0194 0.000175019 0)
(26.0194 0.000107263 0)
(26.0193 2.89007e-07 0)
(26.0193 -0.000122673 0)
(26.0193 -0.000234912 0)
(26.0194 -0.000323179 0)
(26.0195 -0.00038272 0)
(26.0196 -0.000412283 0)
(26.0197 -0.000413976 0)
(26.0199 -0.000395786 0)
(26.0201 -0.000373141 0)
(26.0203 -0.000360416 0)
(26.0205 -0.000366715 0)
(26.0209 -0.000400016 0)
(19.6353 -1.39891e-05 0)
(34.1143 0.000180723 0)
(29.8974 0.000324706 0)
(24.9278 0.000331852 0)
(24.4732 0.000408265 0)
(25.7798 0.000127101 0)
(26.3849 3.39472e-05 0)
(26.22 0.000160495 0)
(25.9841 0.000437721 0)
(25.9463 0.00064065 0)
(26.0013 0.000649268 0)
(26.0323 0.000644051 0)
(26.0274 0.000541755 0)
(26.0164 0.000383079 0)
(26.0139 0.000284222 0)
(26.0156 0.000277271 0)
(26.0166 0.000412748 0)
(26.016 0.000589542 0)
(26.0145 0.000591411 0)
(26.0138 0.000449252 0)
(26.0137 0.000317532 0)
(26.0131 5.36248e-05 0)
(26.0129 -0.000210511 0)
(26.0134 -0.000348069 0)
(26.0132 -0.000452739 0)
(26.0132 -0.000520604 0)
(26.0133 -0.000504389 0)
(26.0133 -0.000484167 0)
(26.0138 -0.000476553 0)
(26.0144 -0.000427171 0)
(26.0149 -0.000386018 0)
(26.0156 -0.000348775 0)
(26.0162 -0.000205281 0)
(26.0171 9.95863e-05 0)
(26.0179 0.000469974 0)
(26.0181 0.000681796 0)
(26.0182 0.000650197 0)
(26.0184 0.00052503 0)
(26.0185 0.000396688 0)
(26.0184 0.000176972 0)
(26.0181 -0.000176674 0)
(26.0179 -0.000499907 0)
(26.0178 -0.00058938 0)
(26.0179 -0.000434885 0)
(26.0181 -0.000196974 0)
(26.0182 -2.69572e-05 0)
(26.0182 3.13874e-05 0)
(26.0181 1.9142e-05 0)
(26.018 4.42916e-06 0)
(26.0181 8.12256e-06 0)
(26.0182 -5.81098e-06 0)
(26.0183 -5.83323e-05 0)
(26.0184 -0.000108634 0)
(26.0186 -0.000112646 0)
(26.0188 -7.87496e-05 0)
(26.0189 -3.56507e-05 0)
(26.019 2.70107e-06 0)
(26.0189 6.52126e-06 0)
(26.0188 -6.27514e-05 0)
(26.0187 -0.000179024 0)
(26.0188 -0.000247007 0)
(26.019 -0.000203392 0)
(26.0192 -8.68657e-05 0)
(26.0194 3.03669e-05 0)
(26.0194 0.000115678 0)
(26.0194 0.000163705 0)
(26.0193 0.000149704 0)
(26.0192 5.65787e-05 0)
(26.019 -6.36895e-05 0)
(26.0189 -0.000120123 0)
(26.0188 -7.84855e-05 0)
(26.0188 3.46937e-06 0)
(26.0187 4.5505e-05 0)
(26.0186 2.36992e-05 0)
(26.0186 -2.25504e-05 0)
(26.0186 -4.57956e-05 0)
(26.0188 -3.21863e-05 0)
(26.0189 -5.41951e-06 0)
(26.019 1.36555e-06 0)
(26.0191 -1.75243e-05 0)
(26.0191 -4.37547e-05 0)
(26.0191 -6.14909e-05 0)
(26.0191 -7.50955e-05 0)
(26.0191 -8.90905e-05 0)
(26.0191 -9.08162e-05 0)
(26.019 -6.86888e-05 0)
(26.019 -4.07796e-05 0)
(26.019 -4.02853e-05 0)
(26.0191 -7.19451e-05 0)
(26.0192 -0.000102077 0)
(26.0192 -0.000100793 0)
(26.0193 -7.97617e-05 0)
(26.0192 -7.85377e-05 0)
(26.0192 -0.000114428 0)
(26.0192 -0.000160141 0)
(26.0193 -0.000174713 0)
(26.0193 -0.000146149 0)
(26.0193 -9.9831e-05 0)
(26.0193 -6.92163e-05 0)
(26.0193 -6.44119e-05 0)
(26.0193 -6.68908e-05 0)
(26.0193 -5.44255e-05 0)
(26.0194 -2.8088e-05 0)
(26.0194 -6.86251e-06 0)
(26.0194 -3.63253e-06 0)
(26.0194 -6.12644e-06 0)
(26.0195 8.10874e-06 0)
(26.0195 4.06729e-05 0)
(26.0195 6.55862e-05 0)
(26.0194 5.45409e-05 0)
(26.0193 1.42996e-05 0)
(26.0193 -9.35957e-06 0)
(26.0193 3.37056e-05 0)
(26.0193 0.000141744 0)
(26.0193 0.000251312 0)
(26.0192 0.000293193 0)
(26.019 0.000257478 0)
(26.0189 0.000205146 0)
(26.0188 0.000209021 0)
(26.0189 0.000278426 0)
(26.019 0.000344867 0)
(26.0189 0.000333821 0)
(26.0186 0.000256607 0)
(26.0184 0.000199343 0)
(26.0183 0.000239161 0)
(26.0184 0.000364626 0)
(26.0183 0.000486117 0)
(26.0182 0.000522594 0)
(26.0179 0.000476947 0)
(26.0177 0.000420335 0)
(26.0177 0.000411554 0)
(26.0177 0.000434922 0)
(26.0177 0.000426182 0)
(26.0176 0.000346232 0)
(26.0175 0.000228064 0)
(26.0173 0.000148392 0)
(26.0173 0.000151815 0)
(26.0172 0.000213315 0)
(26.0172 0.000263392 0)
(26.0171 0.000250878 0)
(26.017 0.000188253 0)
(26.0169 0.000120408 0)
(26.0169 7.56486e-05 0)
(26.0169 4.67141e-05 0)
(26.017 7.58817e-06 0)
(26.017 -5.96708e-05 0)
(26.017 -0.000145241 0)
(26.017 -0.000214518 0)
(26.0171 -0.000239166 0)
(26.0171 -0.000220262 0)
(26.0172 -0.000176256 0)
(26.0172 -0.000127609 0)
(26.0172 -9.25057e-05 0)
(26.0172 -8.43755e-05 0)
(26.0172 -0.00010749 0)
(26.0173 -0.000156644 0)
(26.0175 -0.000221641 0)
(26.0176 -0.000300495 0)
(26.0177 -0.000393424 0)
(26.0178 -0.000487544 0)
(26.0179 -0.000557128 0)
(26.018 -0.000576279 0)
(26.0182 -0.000539806 0)
(26.0184 -0.000472181 0)
(26.0185 -0.000410805 0)
(26.0186 -0.000376291 0)
(26.0186 -0.000361364 0)
(26.0187 -0.000344526 0)
(26.0188 -0.000316511 0)
(26.019 -0.000292193 0)
(26.0192 -0.00029642 0)
(26.0193 -0.000333528 0)
(26.0193 -0.000372584 0)
(26.0194 -0.000369017 0)
(26.0195 -0.000304873 0)
(26.0196 -0.000208658 0)
(26.0197 -0.000135805 0)
(26.0197 -0.000121977 0)
(26.0197 -0.000152838 0)
(26.0197 -0.000177062 0)
(26.0198 -0.00015332 0)
(26.0199 -8.4428e-05 0)
(26.0199 -1.73728e-06 0)
(26.0199 7.13835e-05 0)
(26.0198 0.000140028 0)
(26.0196 0.00022144 0)
(26.0196 0.000314659 0)
(26.0195 0.000389084 0)
(26.0194 0.000407974 0)
(26.0193 0.000365566 0)
(26.0192 0.000300954 0)
(26.0191 0.000273134 0)
(26.019 0.000319225 0)
(26.0189 0.000430983 0)
(26.0187 0.00056506 0)
(26.0185 0.000673854 0)
(26.0182 0.000731492 0)
(26.018 0.000735985 0)
(26.0178 0.000693016 0)
(26.0177 0.000603208 0)
(26.0176 0.000467669 0)
(26.0176 0.000301631 0)
(26.0175 0.000139644 0)
(26.0175 2.67812e-05 0)
(26.0174 -7.88314e-06 0)
(26.0174 2.30024e-05 0)
(26.0174 7.68222e-05 0)
(26.0173 0.000104866 0)
(26.0173 7.66158e-05 0)
(26.0173 -1.57001e-05 0)
(26.0173 -0.000158107 0)
(26.0175 -0.000322317 0)
(26.0177 -0.000477701 0)
(26.0179 -0.000601998 0)
(26.018 -0.000681539 0)
(26.0182 -0.000703218 0)
(26.0183 -0.000658653 0)
(26.0184 -0.000556859 0)
(26.0186 -0.000429788 0)
(26.0187 -0.000319774 0)
(26.0188 -0.000256485 0)
(26.0189 -0.000241467 0)
(26.019 -0.000253427 0)
(26.0191 -0.000268952 0)
(26.0192 -0.000279466 0)
(26.0193 -0.000288736 0)
(26.0194 -0.000297169 0)
(26.0194 -0.000291507 0)
(26.0194 -0.000251918 0)
(26.0195 -0.000170018 0)
(26.0195 -6.05829e-05 0)
(26.0195 4.47838e-05 0)
(26.0195 0.000118035 0)
(26.0194 0.000151063 0)
(26.0194 0.000153951 0)
(26.0193 0.000138718 0)
(26.0193 0.000105725 0)
(26.0193 4.61013e-05 0)
(26.0193 -4.38686e-05 0)
(26.0194 -0.00014696 0)
(26.0194 -0.000238301 0)
(26.0194 -0.000302872 0)
(26.0195 -0.000343971 0)
(26.0196 -0.000376155 0)
(26.0197 -0.000411783 0)
(26.0199 -0.000452347 0)
(26.02 -0.000493684 0)
(26.0202 -0.000529955 0)
(26.0204 -0.000566927 0)
(26.0207 -0.000609464 0)
(19.6344 0.000113459 0)
(34.1137 0.000213935 0)
(29.8966 0.000326431 0)
(24.9277 0.000208829 0)
(24.4742 6.57887e-05 0)
(25.7797 3.87503e-05 0)
(26.3855 0.000153694 0)
(26.221 0.000159256 0)
(25.9854 7.51394e-05 0)
(25.9488 4.94128e-05 0)
(26.004 5.80928e-06 0)
(26.0347 6.49442e-05 0)
(26.03 0.000137258 0)
(26.0192 0.000174463 0)
(26.017 0.000250102 0)
(26.0192 0.000276428 0)
(26.0211 0.000264619 0)
(26.0222 0.000314877 0)
(26.0227 0.000377678 0)
(26.0226 0.000374056 0)
(26.0233 0.000500792 0)
(26.0235 0.000694154 0)
(26.0231 0.000747409 0)
(26.023 0.000736002 0)
(26.0226 0.000674212 0)
(26.022 0.000522406 0)
(26.0218 0.000343821 0)
(26.0211 0.000151472 0)
(26.0204 -2.80761e-05 0)
(26.02 -0.00012179 0)
(26.0197 -0.000183328 0)
(26.0194 -0.000295249 0)
(26.0191 -0.000457918 0)
(26.0191 -0.000572101 0)
(26.0193 -0.000508718 0)
(26.0195 -0.00034078 0)
(26.0197 -0.000257995 0)
(26.0197 -0.000216285 0)
(26.0199 -6.00318e-05 0)
(26.0202 0.000154843 0)
(26.0202 0.000257505 0)
(26.0199 0.00021251 0)
(26.0195 0.000123684 0)
(26.0191 6.47365e-05 0)
(26.019 3.92104e-05 0)
(26.0189 3.88932e-05 0)
(26.0188 4.69651e-05 0)
(26.0186 2.7579e-05 0)
(26.0185 -2.02251e-05 0)
(26.0183 -5.29246e-05 0)
(26.0183 -6.07418e-05 0)
(26.0183 -8.36747e-05 0)
(26.0183 -0.000132442 0)
(26.0183 -0.000160992 0)
(26.0184 -0.000140134 0)
(26.0184 -8.71261e-05 0)
(26.0185 -1.88004e-05 0)
(26.0187 5.688e-05 0)
(26.0187 9.49257e-05 0)
(26.0187 3.48611e-05 0)
(26.0185 -0.000112329 0)
(26.0182 -0.000251296 0)
(26.0181 -0.000309842 0)
(26.018 -0.000304802 0)
(26.0179 -0.000280485 0)
(26.018 -0.000241991 0)
(26.0182 -0.000169119 0)
(26.0184 -7.32932e-05 0)
(26.0185 2.25481e-06 0)
(26.0185 3.1006e-05 0)
(26.0186 2.25822e-05 0)
(26.0186 4.41675e-06 0)
(26.0187 -6.01506e-06 0)
(26.0188 -9.92319e-06 0)
(26.0189 -2.15734e-05 0)
(26.0189 -4.94892e-05 0)
(26.0189 -7.90215e-05 0)
(26.019 -8.42473e-05 0)
(26.019 -6.03031e-05 0)
(26.019 -3.33979e-05 0)
(26.019 -2.84567e-05 0)
(26.0191 -4.39269e-05 0)
(26.0191 -5.88911e-05 0)
(26.0191 -5.94938e-05 0)
(26.0191 -4.7857e-05 0)
(26.0191 -3.44219e-05 0)
(26.0191 -3.2768e-05 0)
(26.0191 -5.53862e-05 0)
(26.0192 -0.000100097 0)
(26.0192 -0.000141125 0)
(26.0192 -0.000148174 0)
(26.0193 -0.000119892 0)
(26.0193 -9.04899e-05 0)
(26.0193 -9.50546e-05 0)
(26.0193 -0.00013256 0)
(26.0192 -0.000168419 0)
(26.0192 -0.000170193 0)
(26.0192 -0.000137573 0)
(26.0192 -9.7951e-05 0)
(26.0193 -7.72807e-05 0)
(26.0193 -7.66879e-05 0)
(26.0193 -7.6467e-05 0)
(26.0193 -6.02574e-05 0)
(26.0193 -3.30163e-05 0)
(26.0194 -1.38192e-05 0)
(26.0194 -1.20395e-05 0)
(26.0194 -1.18978e-05 0)
(26.0194 1.18947e-05 0)
(26.0194 6.3744e-05 0)
(26.0194 0.000115419 0)
(26.0193 0.000128964 0)
(26.0192 9.98628e-05 0)
(26.0191 7.05855e-05 0)
(26.019 9.92876e-05 0)
(26.019 0.000202783 0)
(26.0191 0.00033 0)
(26.0191 0.000398937 0)
(26.019 0.000371519 0)
(26.0188 0.000293595 0)
(26.0187 0.000254581 0)
(26.0187 0.000301471 0)
(26.0187 0.000394325 0)
(26.0187 0.000452266 0)
(26.0185 0.00043854 0)
(26.0183 0.000396258 0)
(26.0182 0.000399931 0)
(26.0181 0.000476089 0)
(26.0181 0.000575561 0)
(26.0181 0.00062314 0)
(26.0179 0.000591256 0)
(26.0178 0.00051909 0)
(26.0178 0.000462496 0)
(26.0178 0.000439937 0)
(26.0178 0.00042414 0)
(26.0177 0.000383701 0)
(26.0175 0.000324083 0)
(26.0174 0.000279613 0)
(26.0173 0.000273713 0)
(26.0172 0.000292673 0)
(26.0172 0.000297389 0)
(26.0172 0.000259323 0)
(26.0171 0.000183318 0)
(26.0171 9.7755e-05 0)
(26.0171 2.82407e-05 0)
(26.0171 -2.27287e-05 0)
(26.0171 -7.4904e-05 0)
(26.0171 -0.000142674 0)
(26.0171 -0.000213796 0)
(26.0171 -0.000263473 0)
(26.0172 -0.000272888 0)
(26.0172 -0.000241244 0)
(26.0172 -0.000187321 0)
(26.0172 -0.000139116 0)
(26.0173 -0.000124989 0)
(26.0173 -0.000163319 0)
(26.0174 -0.000252009 0)
(26.0175 -0.000365024 0)
(26.0176 -0.000472274 0)
(26.0178 -0.000555852 0)
(26.0179 -0.000613396 0)
(26.018 -0.000652961 0)
(26.0181 -0.000674559 0)
(26.0181 -0.000665934 0)
(26.0183 -0.000619739 0)
(26.0184 -0.000550077 0)
(26.0185 -0.00048919 0)
(26.0186 -0.000463859 0)
(26.0187 -0.000473319 0)
(26.0188 -0.000491059 0)
(26.0189 -0.000489631 0)
(26.0191 -0.000464407 0)
(26.0192 -0.000433526 0)
(26.0193 -0.000414989 0)
(26.0194 -0.000405096 0)
(26.0194 -0.000381289 0)
(26.0195 -0.000327023 0)
(26.0196 -0.000253739 0)
(26.0197 -0.000194763 0)
(26.0197 -0.000175184 0)
(26.0197 -0.000184402 0)
(26.0197 -0.000180699 0)
(26.0197 -0.00012436 0)
(26.0198 -1.01014e-05 0)
(26.0198 0.000129941 0)
(26.0197 0.000254136 0)
(26.0196 0.000341534 0)
(26.0195 0.00039735 0)
(26.0194 0.0004356 0)
(26.0193 0.000460039 0)
(26.0193 0.000464821 0)
(26.0192 0.000452557 0)
(26.0191 0.000447286 0)
(26.0189 0.000484273 0)
(26.0188 0.000583179 0)
(26.0186 0.000728094 0)
(26.0184 0.000872263 0)
(26.0182 0.000962265 0)