/*--------------------------------*- C++ -*----------------------------------*\
| =========                 |                                                 |
| \\      /  F ield         | OpenFOAM: The Open Source CFD Toolbox           |
|  \\    /   O peration     | Version:  2406                                  |
|   \\  /    A nd           | Website:  www.openfoam.com                      |
|    \\/     M anipulation  |                                                 |
\*---------------------------------------------------------------------------*/
FoamFile
{
    version     2.0;
    format      ascii;
    arch        "LSB;label=32;scalar=64";
    class       volVectorField;
    location    "0.15";
    object      U;
}
// * * * * * * * * * * * * * * * * * * * * * * * * * * * * * * * * * * * * * //

dimensions      [0 1 -1 0 0 0 0];

internalField   nonuniform List<vector> 
6250
(
(0.554652 0.00784713 0)
(0.769077 0.0284632 0)
(0.570188 0.0346831 0)
(0.458097 0.0323384 0)
(0.463754 0.0300468 0)
(0.476902 0.0298616 0)
(0.460449 0.029779 0)
(0.432894 0.0285006 0)
(0.4102 0.026403 0)
(0.392345 0.0242058 0)
(0.375065 0.0221586 0)
(0.357123 0.0202074 0)
(0.339307 0.0183317 0)
(0.32216 0.0166047 0)
(0.305588 0.015104 0)
(0.289349 0.0138645 0)
(0.273307 0.0128935 0)
(0.257374 0.0121918 0)
(0.241436 0.0117546 0)
(0.225345 0.0115648 0)
(0.208946 0.0115894 0)
(0.192084 0.0117762 0)
(0.174614 0.0120474 0)
(0.156401 0.0122861 0)
(0.137334 0.0123152 0)
(0.117308 0.0118793 0)
(0.0961944 0.0107312 0)
(0.0738209 0.00909393 0)
(0.0598935 0.00598047 0)
(0.000950403 0.0043684 0)
(0.0026674 0.00148239 0)
(0.00341589 0.000665382 0)
(0.00404003 0.000270057 0)
(0.00418046 0.000192905 0)
(0.00375496 0.000156183 0)
(0.00303828 0.000322831 0)
(0.00232952 0.000351117 0)
(0.00186465 0.000248064 0)
(0.0016982 0.000104049 0)
(0.00171359 3.24601e-05 0)
(0.00174634 3.27627e-05 0)
(0.0017062 6.32898e-05 0)
(0.00159687 7.81445e-05 0)
(0.00146739 7.16561e-05 0)
(0.00135828 5.34907e-05 0)
(0.00128378 3.46949e-05 0)
(0.00123869 2.32939e-05 0)
(0.0012095 2.23871e-05 0)
(0.00118397 2.98584e-05 0)
(0.00115739 2.80125e-05 0)
(0.00112732 3.34756e-05 0)
(0.0011185 8.14638e-06 0)
(0.00120976 -8.56109e-05 0)
(0.00144 -0.000168297 0)
(0.00173321 -0.000162968 0)
(0.00198615 -0.000109089 0)
(0.00216423 -6.20874e-05 0)
(0.00229136 -3.84686e-05 0)
(0.00241004 -4.33059e-05 0)
(0.00256615 -7.7584e-05 0)
(0.00279748 -0.000130258 0)
(0.00311649 -0.000177621 0)
(0.00350613 -0.000203072 0)
(0.00393708 -0.000207292 0)
(0.00438922 -0.00020221 0)
(0.00486062 -0.000199428 0)
(0.00536277 -0.00020409 0)
(0.00591104 -0.000215135 0)
(0.00651788 -0.000228916 0)
(0.00719158 -0.00024315 0)
(0.00793908 -0.000258432 0)
(0.00876874 -0.000276522 0)
(0.00968934 -0.000297155 0)
(0.0107053 -0.000316045 0)
(0.0118109 -0.00032602 0)
(0.0129888 -0.000320353 0)
(0.0142141 -0.000297011 0)
(0.0154648 -0.000261769 0)
(0.0167329 -0.000227493 0)
(0.0180332 -0.000208323 0)
(0.0193946 -0.000209369 0)
(0.0208444 -0.000225303 0)
(0.022399 -0.000249664 0)
(0.0240616 -0.000275026 0)
(0.0258211 -0.000291635 0)
(0.0276516 -0.000293115 0)
(0.0295229 -0.000282185 0)
(0.0314159 -0.000269101 0)
(0.0333277 -0.000263448 0)
(0.0352622 -0.000266496 0)
(0.0372168 -0.000271551 0)
(0.0391752 -0.000270971 0)
(0.0411137 -0.000261818 0)
(0.0430131 -0.000248281 0)
(0.0448708 -0.000240559 0)
(0.0467058 -0.000250995 0)
(0.0485478 -0.000282845 0)
(0.0504162 -0.000324067 0)
(0.0523087 -0.000360792 0)
(0.054206 -0.000385217 0)
(0.0560848 -0.000396874 0)
(0.0579267 -0.000399312 0)
(0.0597246 -0.000399003 0)
(0.0614837 -0.000403163 0)
(0.0632206 -0.000416067 0)
(0.0649553 -0.000439431 0)
(0.066706 -0.000471713 0)
(0.0684838 -0.000508962 0)
(0.0702882 -0.000544013 0)
(0.0721074 -0.000572008 0)
(0.0739237 -0.000591111 0)
(0.0757213 -0.000603492 0)
(0.0774885 -0.000610333 0)
(0.0792159 -0.000612415 0)
(0.0808926 -0.000608677 0)
(0.0825076 -0.000598508 0)
(0.0840505 -0.000581421 0)
(0.0855123 -0.000558933 0)
(0.0868866 -0.000532534 0)
(0.0881691 -0.000503356 0)
(0.0893577 -0.000471714 0)
(0.0904521 -0.000438729 0)
(0.0914541 -0.000404969 0)
(0.0923664 -0.000371061 0)
(0.0931927 -0.00033771 0)
(0.0939378 -0.000306793 0)
(0.0946076 -0.000277969 0)
(0.0952072 -0.00025011 0)
(0.095742 -0.00022426 0)
(0.0962176 -0.000200314 0)
(0.0966397 -0.000178277 0)
(0.0970134 -0.000158012 0)
(0.0973433 -0.000139952 0)
(0.0976343 -0.000124015 0)
(0.0978905 -0.000109553 0)
(0.0981158 -9.62063e-05 0)
(0.0983134 -8.44073e-05 0)
(0.0984865 -7.43963e-05 0)
(0.0986382 -6.57282e-05 0)
(0.098771 -5.7534e-05 0)
(0.0988871 -5.0025e-05 0)
(0.0989885 -4.35098e-05 0)
(0.0990769 -3.78727e-05 0)
(0.0991542 -3.3035e-05 0)
(0.0992215 -2.88202e-05 0)
(0.0992801 -2.51993e-05 0)
(0.0993311 -2.1876e-05 0)
(0.0993754 -1.88709e-05 0)
(0.0994141 -1.6491e-05 0)
(0.0994479 -1.45627e-05 0)
(0.0994774 -1.27237e-05 0)
(0.0995031 -1.10275e-05 0)
(0.0995253 -9.56086e-06 0)
(0.0995445 -8.32922e-06 0)
(0.0995612 -7.36129e-06 0)
(0.0995758 -6.7206e-06 0)
(0.0995886 -6.03192e-06 0)
(0.0995998 -5.16032e-06 0)
(0.0996096 -4.41373e-06 0)
(0.0996181 -3.85644e-06 0)
(0.0996256 -3.34459e-06 0)
(0.0996321 -2.76809e-06 0)
(0.0996376 -2.11354e-06 0)
(0.0996423 -1.52482e-06 0)
(0.0996462 -1.25123e-06 0)
(0.0996495 -1.22938e-06 0)
(0.0996525 -1.18564e-06 0)
(0.0996551 -1.09707e-06 0)
(0.0996575 -9.85865e-07 0)
(0.0996596 -8.63204e-07 0)
(0.0996615 -7.15119e-07 0)
(0.0996631 -6.11442e-07 0)
(0.0996645 -5.44988e-07 0)
(0.0996657 -5.04298e-07 0)
(0.0996668 -4.38413e-07 0)
(0.0996677 -3.69906e-07 0)
(0.0996686 -3.23448e-07 0)
(0.0996694 -2.86768e-07 0)
(0.0996702 -2.66647e-07 0)
(0.0996709 -3.75852e-07 0)
(0.0996716 -5.06933e-07 0)
(0.0996723 -3.07539e-07 0)
(0.0996728 5.34477e-08 0)
(0.0996731 3.16876e-07 0)
(0.0996732 9.59197e-08 0)
(0.0996736 -7.32309e-07 0)
(0.0996742 -9.04081e-07 0)
(0.0996747 -4.31575e-07 0)
(0.0996751 -1.875e-07 0)
(0.0996755 -1.17127e-07 0)
(0.0996757 -9.0353e-08 0)
(0.099676 -4.03378e-08 0)
(0.0996761 -3.43706e-09 0)
(0.0996761 -5.4089e-09 0)
(0.0996761 5.28578e-08 0)
(0.099676 2.02608e-07 0)
(0.0996757 4.94676e-07 0)
(0.0996753 1.06847e-06 0)
(0.0996746 1.1166e-06 0)
(0.099674 6.26937e-07 0)
(0.0996734 1.23501e-07 0)
(0.099673 -1.63069e-07 0)
(0.0996726 2.77792e-08 0)
(0.0996721 3.04061e-07 0)
(0.0996716 4.08708e-07 0)
(0.0996712 4.62231e-07 0)
(0.0996708 6.55865e-07 0)
(0.0996705 8.45386e-07 0)
(0.0996701 6.48878e-07 0)
(0.0996699 2.94416e-07 0)
(0.0996697 1.71599e-07 0)
(0.0996695 1.55633e-07 0)
(0.0996693 1.62723e-07 0)
(0.099669 1.88222e-07 0)
(0.0996686 2.16078e-07 0)
(0.0996682 2.37314e-07 0)
(0.0996676 2.50665e-07 0)
(0.099667 2.71882e-07 0)
(0.0996664 2.88238e-07 0)
(0.0996656 3.04073e-07 0)
(0.0996648 3.54816e-07 0)
(0.0996639 4.54635e-07 0)
(0.0996629 5.54221e-07 0)
(0.0996618 5.88523e-07 0)
(0.0996604 5.17847e-07 0)
(0.0996589 3.49284e-07 0)
(0.0996571 4.55459e-07 0)
(0.0996548 9.47043e-07 0)
(0.099652 1.0824e-06 0)
(0.0996488 9.73276e-07 0)
(0.0996451 9.65963e-07 0)
(0.0996406 1.10318e-06 0)
(0.0996353 1.20277e-06 0)
(0.0996288 1.4891e-06 0)
(0.0996211 1.91426e-06 0)
(0.0996115 2.59958e-06 0)
(0.0995999 3.60637e-06 0)
(0.0995856 4.88242e-06 0)
(0.0995677 6.54477e-06 0)
(0.0995456 8.73669e-06 0)
(0.099518 1.16912e-05 0)
(0.0994836 1.5688e-05 0)
(0.0994406 2.11225e-05 0)
(0.0993868 2.85084e-05 0)
(0.0993197 3.84655e-05 0)
(0.0992371 5.14935e-05 0)
(0.0991337 6.82563e-05 0)
(0.0989935 9.03907e-05 0)
(0.0988068 0.000122118 0)
(0.0986811 0.000146088 0)
(0.574088 0.00619455 0)
(0.831161 0.0266437 0)
(0.667826 0.0390054 0)
(0.576247 0.0417674 0)
(0.597912 0.0423356 0)
(0.631389 0.0446006 0)
(0.637413 0.0474492 0)
(0.630293 0.0493008 0)
(0.624847 0.050125 0)
(0.621966 0.050545 0)
(0.618065 0.0508733 0)
(0.611839 0.0510946 0)
(0.603885 0.0511845 0)
(0.594771 0.0512196 0)
(0.584539 0.0513116 0)
(0.573061 0.05155 0)
(0.560276 0.0520052 0)
(0.546156 0.0527475 0)
(0.530639 0.0538523 0)
(0.513604 0.0553977 0)
(0.494872 0.0574649 0)
(0.474199 0.0601452 0)
(0.451251 0.063553 0)
(0.425561 0.0678496 0)
(0.396458 0.0732943 0)
(0.362976 0.0803465 0)
(0.32365 0.0899574 0)
(0.27647 0.104133 0)
(0.218076 0.129105 0)
(0.166737 0.158339 0)
(0.00901927 -0.00453569 0)
(0.00505668 -0.000716041 0)
(0.00365559 -0.000761546 0)
(0.00355754 0.00094033 0)
(0.00215702 0.00100859 0)
(0.00115479 0.00161005 0)
(0.00102811 0.00139877 0)
(0.00137593 0.000687672 0)
(0.00193076 4.6314e-05 0)
(0.00246808 -0.000151219 0)
(0.0028059 -1.54421e-05 0)
(0.00288694 0.000225884 0)
(0.00275716 0.000360342 0)
(0.00250162 0.00035773 0)
(0.00221694 0.000280363 0)
(0.00197826 0.000190016 0)
(0.00182676 0.00012023 0)
(0.00177129 7.55488e-05 0)
(0.00180752 5.38599e-05 0)
(0.00193586 2.28434e-05 0)
(0.0020976 4.51424e-07 0)
(0.00223008 -0.000165521 0)
(0.00251393 -0.000615708 0)
(0.00314447 -0.0010206 0)
(0.00390114 -0.00101944 0)
(0.0044944 -0.000808218 0)
(0.00491295 -0.000627311 0)
(0.00526728 -0.000550202 0)
(0.00564762 -0.000611137 0)
(0.00613686 -0.000820008 0)
(0.00680974 -0.00113145 0)
(0.00768614 -0.0014385 0)
(0.00871855 -0.001663 0)
(0.00984399 -0.00180487 0)
(0.0110343 -0.00191797 0)
(0.0123041 -0.00205799 0)
(0.0136888 -0.00225376 0)
(0.0152217 -0.00250528 0)
(0.0169219 -0.00279787 0)
(0.018797 -0.0031204 0)
(0.0208534 -0.0034737 0)
(0.0231046 -0.0038634 0)
(0.0255707 -0.0042843 0)
(0.0282679 -0.00471023 0)
(0.0311971 -0.00510008 0)
(0.0343377 -0.00541763 0)
(0.0376549 -0.00565619 0)
(0.0411129 -0.00584407 0)
(0.044697 -0.00604003 0)
(0.0484278 -0.0062958 0)
(0.0523483 -0.00661693 0)
(0.056497 -0.006985 0)
(0.0608931 -0.00737048 0)
(0.0655455 -0.00773837 0)
(0.0704421 -0.00803611 0)
(0.0755379 -0.00822064 0)
(0.0807725 -0.00830155 0)
(0.0861085 -0.00833121 0)
(0.0915475 -0.00835339 0)
(0.0971072 -0.00836395 0)
(0.102785 -0.0083194 0)
(0.108539 -0.0081787 0)
(0.114308 -0.00794087 0)
(0.120028 -0.00765143 0)
(0.125665 -0.00739582 0)
(0.131236 -0.00725672 0)
(0.136796 -0.0072478 0)
(0.142381 -0.00730115 0)
(0.147979 -0.00733243 0)
(0.153535 -0.00730055 0)
(0.158986 -0.00720051 0)
(0.164287 -0.00705748 0)
(0.169409 -0.00691213 0)
(0.174358 -0.00680552 0)
(0.179163 -0.006766 0)
(0.183865 -0.00679457 0)
(0.188503 -0.00687379 0)
(0.193105 -0.00696787 0)
(0.197674 -0.0070329 0)
(0.202185 -0.00703206 0)
(0.206598 -0.00696238 0)
(0.210884 -0.00684098 0)
(0.21503 -0.00668456 0)
(0.219028 -0.00649291 0)
(0.222863 -0.00626214 0)
(0.226516 -0.00599224 0)
(0.229969 -0.00568888 0)
(0.233209 -0.00535932 0)
(0.236228 -0.00501166 0)
(0.239022 -0.00465396 0)
(0.241591 -0.00429389 0)
(0.243939 -0.00393772 0)
(0.246073 -0.00359048 0)
(0.248003 -0.00325715 0)
(0.249742 -0.00294119 0)
(0.251301 -0.00264497 0)
(0.252694 -0.00236991 0)
(0.253936 -0.00211656 0)
(0.255039 -0.00188465 0)
(0.256017 -0.00167347 0)
(0.256881 -0.00148223 0)
(0.257643 -0.00130998 0)
(0.258315 -0.00115554 0)
(0.258905 -0.00101767 0)
(0.259424 -0.000894951 0)
(0.259879 -0.000785809 0)
(0.260278 -0.000689079 0)
(0.260627 -0.000603665 0)
(0.260932 -0.0005285 0)
(0.261198 -0.000462202 0)
(0.261431 -0.000403708 0)
(0.261634 -0.000352252 0)
(0.261811 -0.000307101 0)
(0.261965 -0.000267748 0)
(0.2621 -0.000233449 0)
(0.262217 -0.000203582 0)
(0.262318 -0.000177396 0)
(0.262407 -0.00015444 0)
(0.262485 -0.000134267 0)
(0.262552 -0.000116497 0)
(0.26261 -0.000100999 0)
(0.262661 -8.76064e-05 0)
(0.262705 -7.634e-05 0)
(0.262743 -6.65567e-05 0)
(0.262777 -5.80858e-05 0)
(0.262806 -5.08021e-05 0)
(0.262832 -4.45186e-05 0)
(0.262854 -3.89662e-05 0)
(0.262873 -3.42825e-05 0)
(0.26289 -3.00263e-05 0)
(0.262905 -2.61716e-05 0)
(0.262918 -2.23465e-05 0)
(0.262929 -1.90387e-05 0)
(0.262939 -1.63818e-05 0)
(0.262947 -1.41151e-05 0)
(0.262955 -1.22113e-05 0)
(0.262961 -1.06927e-05 0)
(0.262966 -9.39195e-06 0)
(0.262971 -8.2609e-06 0)
(0.262975 -7.34683e-06 0)
(0.262979 -6.40192e-06 0)
(0.262982 -5.81745e-06 0)
(0.262985 -5.29551e-06 0)
(0.262988 -4.81758e-06 0)
(0.26299 -4.18751e-06 0)
(0.262992 -3.68667e-06 0)
(0.262994 -3.30584e-06 0)
(0.262996 -2.93996e-06 0)
(0.262997 -2.56921e-06 0)
(0.262999 -2.30381e-06 0)
(0.263 -2.12051e-06 0)
(0.263001 -1.93313e-06 0)
(0.263002 -1.70753e-06 0)
(0.263003 -1.49901e-06 0)
(0.263004 -1.40924e-06 0)
(0.263005 -1.5698e-06 0)
(0.263006 -1.77381e-06 0)
(0.263007 -1.69701e-06 0)
(0.263007 -1.46714e-06 0)
(0.263008 -1.27631e-06 0)
(0.263008 -1.08433e-06 0)
(0.263009 -8.58551e-07 0)
(0.263009 -5.49166e-07 0)
(0.263009 -3.17924e-07 0)
(0.263009 1.53911e-09 0)
(0.263009 3.65456e-07 0)
(0.263009 7.61915e-07 0)
(0.263009 1.19678e-06 0)
(0.263009 1.48801e-06 0)
(0.263009 1.61418e-06 0)
(0.263008 1.54873e-06 0)
(0.263008 1.43812e-06 0)
(0.263008 1.38283e-06 0)
(0.263008 1.38222e-06 0)
(0.263007 1.37205e-06 0)
(0.263007 1.29682e-06 0)
(0.263007 1.20165e-06 0)
(0.263007 1.09863e-06 0)
(0.263006 1.00546e-06 0)
(0.263006 8.95529e-07 0)
(0.263005 8.16338e-07 0)
(0.263005 8.6567e-07 0)
(0.263004 9.33629e-07 0)
(0.263004 1.1237e-06 0)
(0.263003 1.32295e-06 0)
(0.263002 1.57225e-06 0)
(0.263001 1.87501e-06 0)
(0.263 2.23586e-06 0)
(0.262998 2.62423e-06 0)
(0.262997 3.04549e-06 0)
(0.262995 3.55593e-06 0)
(0.262993 4.05694e-06 0)
(0.26299 4.4324e-06 0)
(0.262987 4.44825e-06 0)
(0.262984 5.2183e-06 0)
(0.26298 6.96891e-06 0)
(0.262975 8.52396e-06 0)
(0.262968 1.00731e-05 0)
(0.262961 1.17804e-05 0)
(0.262952 1.38763e-05 0)
(0.262942 1.6496e-05 0)
(0.26293 1.98021e-05 0)
(0.262915 2.40589e-05 0)
(0.262898 2.96292e-05 0)
(0.262878 3.56247e-05 0)
(0.262853 4.24295e-05 0)
(0.262824 5.16001e-05 0)
(0.26279 6.30814e-05 0)
(0.262748 7.74273e-05 0)
(0.262699 9.52417e-05 0)
(0.262641 0.000117313 0)
(0.262571 0.000144724 0)
(0.262488 0.000178432 0)
(0.262391 0.000220021 0)
(0.262277 0.000270618 0)
(0.262147 0.000331067 0)
(0.261997 0.000401549 0)
(0.261809 0.000476703 0)
(0.261571 0.00054036 0)
(0.261505 0.000556837 0)
(0.575228 0.00158946 0)
(0.825903 0.00772646 0)
(0.649671 0.0135562 0)
(0.55385 0.0181715 0)
(0.57849 0.0222492 0)
(0.615764 0.0264272 0)
(0.624891 0.0306066 0)
(0.621656 0.0344659 0)
(0.621818 0.0379637 0)
(0.625994 0.0412613 0)
(0.630042 0.0444765 0)
(0.632389 0.047638 0)
(0.633562 0.0507716 0)
(0.634064 0.053946 0)
(0.633837 0.0572552 0)
(0.632654 0.0607956 0)
(0.630384 0.0646652 0)
(0.626965 0.0689718 0)
(0.62232 0.0738381 0)
(0.616332 0.0794043 0)
(0.608855 0.0858348 0)
(0.599722 0.0933308 0)
(0.588737 0.102151 0)
(0.57569 0.112646 0)
(0.560368 0.12531 0)
(0.542685 0.140863 0)
(0.522635 0.16039 0)
(0.501681 0.18546 0)
(0.478773 0.218848 0)
(0.465527 0.264962 0)
(0.423394 0.304707 0)
(0.345082 0.0978959 0)
(0.252631 0.0476907 0)
(0.0449997 0.00910095 0)
(0.0114933 0.00143942 0)
(-0.000446726 0.00126533 0)
(0.000336081 0.00127966 0)
(0.00248191 8.91512e-05 0)
(0.00283816 -0.000711079 0)
(0.00259208 -0.000643825 0)
(0.00249215 -0.000198441 0)
(0.00273048 0.000378471 0)
(0.00309427 0.000565358 0)
(0.00306098 0.000508896 0)
(0.00270467 0.000407657 0)
(0.00227321 0.000276867 0)
(0.00199839 0.000164645 0)
(0.00190349 4.91085e-05 0)
(0.00191939 2.24719e-06 0)
(0.00200064 -0.000186478 0)
(0.00244731 2.88228e-05 0)
(0.00315566 -0.000162 0)
(0.00367149 -0.0015714 0)
(0.00412078 -0.00248604 0)
(0.00467066 -0.00214311 0)
(0.00521401 -0.0015222 0)
(0.00572091 -0.00121384 0)
(0.00629976 -0.00114773 0)
(0.00701197 -0.00133185 0)
(0.00789292 -0.00182326 0)
(0.00895544 -0.0025328 0)
(0.01018 -0.00318624 0)
(0.0115378 -0.00363021 0)
(0.0130236 -0.00390982 0)
(0.0146597 -0.00416785 0)
(0.0164795 -0.00451478 0)
(0.0185132 -0.00498326 0)
(0.0207801 -0.00554818 0)
(0.0232849 -0.00616688 0)
(0.0260214 -0.00681681 0)
(0.0289855 -0.00750815 0)
(0.0321844 -0.00826389 0)
(0.0356364 -0.00908522 0)
(0.0393672 -0.00993275 0)
(0.0434002 -0.0107358 0)
(0.0477533 -0.0114256 0)
(0.0524462 -0.0119659 0)
(0.057517 -0.0123839 0)
(0.0630272 -0.0127997 0)
(0.068975 -0.0134634 0)
(0.0752045 -0.0144484 0)
(0.0816141 -0.0155934 0)
(0.0882289 -0.0168324 0)
(0.0951067 -0.0181009 0)
(0.102313 -0.0192443 0)
(0.109867 -0.0201407 0)
(0.117731 -0.0208286 0)
(0.125873 -0.0214705 0)
(0.134302 -0.022199 0)
(0.143051 -0.0230038 0)
(0.152125 -0.0237492 0)
(0.161475 -0.0243033 0)
(0.17101 -0.0246273 0)
(0.180619 -0.0247678 0)
(0.190201 -0.0248116 0)
(0.19968 -0.0248554 0)
(0.209104 -0.0248494 0)
(0.218513 -0.0246445 0)
(0.227895 -0.0242132 0)
(0.237204 -0.0235428 0)
(0.246352 -0.0226567 0)
(0.255239 -0.0216308 0)
(0.263786 -0.0205847 0)
(0.271951 -0.0196701 0)
(0.279758 -0.0189974 0)
(0.28725 -0.0185782 0)
(0.294489 -0.0183706 0)
(0.301536 -0.0183086 0)
(0.308432 -0.0182408 0)
(0.315123 -0.0180249 0)
(0.321532 -0.0176342 0)
(0.327614 -0.017143 0)
(0.333395 -0.016604 0)
(0.338905 -0.01601 0)
(0.344146 -0.0153322 0)
(0.349096 -0.0145654 0)
(0.353733 -0.0137327 0)
(0.358048 -0.0128539 0)
(0.362037 -0.0119479 0)
(0.365699 -0.0110313 0)
(0.36904 -0.0101216 0)
(0.37207 -0.00923451 0)
(0.374803 -0.00838019 0)
(0.377257 -0.0075683 0)
(0.379452 -0.00680598 0)
(0.381407 -0.0060972 0)
(0.383143 -0.00544354 0)
(0.384681 -0.00484536 0)
(0.386039 -0.00430099 0)
(0.387237 -0.00380831 0)
(0.388291 -0.0033644 0)
(0.389217 -0.00296609 0)
(0.39003 -0.002611 0)
(0.390742 -0.00229545 0)
(0.391365 -0.00201527 0)
(0.391911 -0.0017671 0)
(0.392387 -0.00154742 0)
(0.392803 -0.00135374 0)
(0.393166 -0.00118356 0)
(0.393483 -0.00103405 0)
(0.393759 -0.000902753 0)
(0.394 -0.000787648 0)
(0.39421 -0.000686644 0)
(0.394392 -0.000598102 0)
(0.394551 -0.000520929 0)
(0.394689 -0.000453857 0)
(0.394809 -0.000395274 0)
(0.394914 -0.000344308 0)
(0.395005 -0.000300373 0)
(0.395084 -0.000261716 0)
(0.395154 -0.000227267 0)
(0.395214 -0.000197288 0)
(0.395266 -0.000171582 0)
(0.395312 -0.000149319 0)
(0.395351 -0.000130026 0)
(0.395386 -0.000113318 0)
(0.395416 -9.87733e-05 0)
(0.395442 -8.58674e-05 0)
(0.395464 -7.43005e-05 0)
(0.395484 -6.4922e-05 0)
(0.395501 -5.76154e-05 0)
(0.395515 -5.02018e-05 0)
(0.395529 -4.31978e-05 0)
(0.39554 -3.73019e-05 0)
(0.39555 -3.22505e-05 0)
(0.395559 -2.79462e-05 0)
(0.395567 -2.43431e-05 0)
(0.395573 -2.12695e-05 0)
(0.395579 -1.86329e-05 0)
(0.395584 -1.63523e-05 0)
(0.395589 -1.40737e-05 0)
(0.395592 -1.20742e-05 0)
(0.395595 -1.09591e-05 0)
(0.395598 -1.03775e-05 0)
(0.3956 -9.34859e-06 0)
(0.395603 -8.23166e-06 0)
(0.395605 -7.29259e-06 0)
(0.395607 -6.4505e-06 0)
(0.395608 -5.69033e-06 0)
(0.39561 -5.03562e-06 0)
(0.395611 -4.58704e-06 0)
(0.395612 -4.41164e-06 0)
(0.395613 -4.16073e-06 0)
(0.395615 -3.91652e-06 0)
(0.395616 -3.72941e-06 0)
(0.395616 -3.58262e-06 0)
(0.395617 -3.48973e-06 0)
(0.395618 -3.30749e-06 0)
(0.395619 -2.9116e-06 0)
(0.395619 -2.48481e-06 0)
(0.39562 -2.05351e-06 0)
(0.39562 -1.62561e-06 0)
(0.39562 -1.17466e-06 0)
(0.395621 -6.72914e-07 0)
(0.395621 -1.77744e-07 0)
(0.395621 2.93668e-07 0)
(0.395621 7.77895e-07 0)
(0.395622 1.23011e-06 0)
(0.395622 1.53669e-06 0)
(0.395622 1.64995e-06 0)
(0.395622 1.65096e-06 0)
(0.395622 1.63322e-06 0)
(0.395622 1.66661e-06 0)
(0.395622 1.75057e-06 0)
(0.395622 1.84435e-06 0)
(0.395622 1.92139e-06 0)
(0.395622 1.97084e-06 0)
(0.395621 1.94959e-06 0)
(0.395621 1.80394e-06 0)
(0.395621 1.68002e-06 0)
(0.39562 1.71764e-06 0)
(0.39562 1.93008e-06 0)
(0.395619 2.23845e-06 0)
(0.395619 2.67778e-06 0)
(0.395618 3.30418e-06 0)
(0.395617 3.96156e-06 0)
(0.395615 4.58935e-06 0)
(0.395614 5.27887e-06 0)
(0.395612 6.01681e-06 0)
(0.39561 6.58453e-06 0)
(0.395608 7.51332e-06 0)
(0.395605 9.23995e-06 0)
(0.395602 1.12194e-05 0)
(0.395598 1.34148e-05 0)
(0.395593 1.60221e-05 0)
(0.395587 1.91976e-05 0)
(0.39558 2.28775e-05 0)
(0.395571 2.71913e-05 0)
(0.395561 3.2359e-05 0)
(0.395549 3.87133e-05 0)
(0.395535 4.56901e-05 0)
(0.395518 5.35078e-05 0)
(0.395499 6.33336e-05 0)
(0.395476 7.50592e-05 0)
(0.395449 8.91122e-05 0)
(0.395418 0.000106698 0)
(0.395382 0.000127994 0)
(0.395339 0.00015318 0)
(0.395289 0.000183309 0)
(0.395232 0.000219397 0)
(0.395165 0.000262422 0)
(0.395088 0.000313447 0)
(0.395001 0.000373675 0)
(0.394902 0.000443352 0)
(0.394792 0.000522032 0)
(0.394675 0.000609301 0)
(0.394546 0.000702245 0)
(0.394388 0.000791656 0)
(0.394178 0.000858576 0)
(0.394216 0.000872321 0)
(0.578387 0.00181269 0)
(0.833288 0.0087556 0)
(0.656139 0.0150361 0)
(0.556218 0.0195613 0)
(0.577313 0.0230289 0)
(0.612233 0.0262012 0)
(0.619221 0.0293276 0)
(0.613763 0.0323555 0)
(0.611995 0.0352521 0)
(0.61482 0.0380939 0)
(0.618133 0.0409926 0)
(0.620349 0.0440324 0)
(0.622048 0.0472766 0)
(0.623807 0.0507934 0)
(0.625616 0.0546646 0)
(0.627286 0.0589819 0)
(0.628729 0.0638449 0)
(0.629939 0.0693657 0)
(0.630915 0.0756735 0)
(0.631639 0.0829181 0)
(0.632098 0.0912748 0)
(0.6323 0.100949 0)
(0.632291 0.112185 0)
(0.632173 0.125267 0)
(0.632136 0.140525 0)
(0.63254 0.158328 0)
(0.633884 0.179029 0)
(0.63722 0.202913 0)
(0.643317 0.229911 0)
(0.654514 0.258333 0)
(0.672978 0.300642 0)
(0.685372 0.298832 0)
(0.691322 0.295928 0)
(0.666611 0.310693 0)
(0.623551 0.212262 0)
(0.560498 0.0626301 0)
(0.491685 -0.00161776 0)
(0.440691 -0.00591352 0)
(0.406323 0.000225282 0)
(0.374383 0.00523983 0)
(0.347178 0.0115174 0)
(0.306217 0.0168253 0)
(0.230354 0.0143246 0)
(0.193124 0.00776655 0)
(0.175779 0.00112408 0)
(0.166197 -0.00346402 0)
(0.160439 -0.00528421 0)
(0.146931 -0.000615121 0)
(0.126608 0.00825395 0)
(0.129708 0.0150929 0)
(0.0644888 0.00979349 0)
(0.0163178 5.3109e-05 0)
(0.00840023 -0.00289112 0)
(0.00379696 -0.00369871 0)
(0.00309802 -0.00275115 0)
(0.00447155 -0.00189287 0)
(0.00577851 -0.00178109 0)
(0.00683745 -0.00182649 0)
(0.00808662 -0.00208677 0)
(0.00949878 -0.00269737 0)
(0.0107198 -0.00358235 0)
(0.0116761 -0.00432333 0)
(0.0126496 -0.00479301 0)
(0.0139463 -0.00510732 0)
(0.0156881 -0.00544699 0)
(0.0177662 -0.0059199 0)
(0.0200327 -0.00653272 0)
(0.0224525 -0.00723175 0)
(0.0250658 -0.00796073 0)
(0.0279092 -0.00869797 0)
(0.0310109 -0.00946413 0)
(0.0343684 -0.0102992 0)
(0.0379398 -0.0112195 0)
(0.0416754 -0.0121952 0)
(0.0455788 -0.0131585 0)
(0.0497204 -0.0140292 0)
(0.0542236 -0.0148025 0)
(0.0593331 -0.015554 0)
(0.0653935 -0.0163784 0)
(0.0738569 -0.0175041 0)
(0.0830336 -0.0199264 0)
(0.0913337 -0.0227886 0)
(0.0996832 -0.0254534 0)
(0.108314 -0.0280833 0)
(0.117159 -0.0305088 0)
(0.126422 -0.0324652 0)
(0.13641 -0.0339983 0)
(0.147216 -0.0353847 0)
(0.158661 -0.036839 0)
(0.170477 -0.0383175 0)
(0.182526 -0.0395774 0)
(0.194848 -0.0403909 0)
(0.207531 -0.0406455 0)
(0.220714 -0.0403711 0)
(0.234468 -0.0396887 0)
(0.248857 -0.0393639 0)
(0.263316 -0.0402181 0)
(0.276957 -0.0416547 0)
(0.289801 -0.0428589 0)
(0.302291 -0.043585 0)
(0.314703 -0.0437708 0)
(0.327018 -0.0434951 0)
(0.339085 -0.0428457 0)
(0.350731 -0.0419007 0)
(0.361898 -0.0406884 0)
(0.372502 -0.0391076 0)
(0.382493 -0.037403 0)
(0.39202 -0.0359769 0)
(0.401227 -0.0347739 0)
(0.410102 -0.0334227 0)
(0.41839 -0.0318565 0)
(0.426006 -0.0303549 0)
(0.433055 -0.0290729 0)
(0.439712 -0.0278795 0)
(0.445979 -0.026576 0)
(0.451825 -0.0251263 0)
(0.457218 -0.0235631 0)
(0.462179 -0.0219441 0)
(0.46672 -0.0202926 0)
(0.470851 -0.0186401 0)
(0.474581 -0.0170151 0)
(0.477929 -0.0154433 0)
(0.480917 -0.0139449 0)
(0.483571 -0.0125347 0)
(0.48592 -0.0112214 0)
(0.487993 -0.0100095 0)
(0.489816 -0.0089006 0)
(0.491417 -0.00789345 0)
(0.49282 -0.00698328 0)
(0.494048 -0.00616458 0)
(0.495121 -0.00543127 0)
(0.496058 -0.00477702 0)
(0.496875 -0.00419535 0)
(0.497587 -0.00368007 0)
(0.498208 -0.00322439 0)
(0.498749 -0.00282229 0)
(0.499219 -0.00246807 0)
(0.499629 -0.00215658 0)
(0.499985 -0.00188305 0)
(0.500295 -0.00164323 0)
(0.500564 -0.00143319 0)
(0.500799 -0.00124933 0)
(0.501003 -0.0010885 0)
(0.50118 -0.000947968 0)
(0.501334 -0.000825401 0)
(0.501468 -0.000718514 0)
(0.501585 -0.000625446 0)
(0.501686 -0.000544441 0)
(0.501774 -0.000474123 0)
(0.501851 -0.000412849 0)
(0.501917 -0.000359472 0)
(0.501976 -0.000312806 0)
(0.502026 -0.00027197 0)
(0.502071 -0.000236563 0)
(0.502109 -0.000205826 0)
(0.502142 -0.000179178 0)
(0.502171 -0.000156086 0)
(0.502196 -0.000135982 0)
(0.502218 -0.000118242 0)
(0.502237 -0.000102898 0)
(0.502253 -8.97519e-05 0)
(0.502267 -7.84032e-05 0)
(0.50228 -6.82684e-05 0)
(0.502291 -5.92716e-05 0)
(0.502301 -5.14539e-05 0)
(0.502309 -4.46859e-05 0)
(0.502316 -3.8861e-05 0)
(0.502323 -3.38465e-05 0)
(0.502328 -2.94868e-05 0)
(0.502333 -2.56751e-05 0)
(0.502337 -2.23515e-05 0)
(0.502341 -1.95176e-05 0)
(0.502344 -1.72305e-05 0)
(0.502346 -1.5334e-05 0)
(0.502349 -1.37635e-05 0)
(0.502351 -1.23054e-05 0)
(0.502353 -1.09592e-05 0)
(0.502354 -9.78592e-06 0)
(0.502356 -8.7402e-06 0)
(0.502357 -8.05581e-06 0)
(0.502358 -7.43949e-06 0)
(0.502359 -6.99373e-06 0)
(0.50236 -6.51429e-06 0)
(0.502361 -5.95566e-06 0)
(0.502362 -5.47682e-06 0)
(0.502363 -5.04044e-06 0)
(0.502363 -4.61709e-06 0)
(0.502364 -4.27363e-06 0)
(0.502364 -3.91502e-06 0)
(0.502365 -3.48161e-06 0)
(0.502365 -3.00555e-06 0)
(0.502366 -2.51639e-06 0)
(0.502366 -2.04509e-06 0)
(0.502366 -1.44616e-06 0)
(0.502367 -8.93969e-07 0)
(0.502367 -3.61684e-07 0)
(0.502367 1.09049e-07 0)
(0.502368 5.17437e-07 0)
(0.502368 8.68322e-07 0)
(0.502368 1.12596e-06 0)
(0.502369 1.31302e-06 0)
(0.502369 1.46517e-06 0)
(0.502369 1.61126e-06 0)
(0.502369 1.75992e-06 0)
(0.502369 1.90696e-06 0)
(0.502369 2.04665e-06 0)
(0.502369 2.18413e-06 0)
(0.502369 2.32299e-06 0)
(0.502369 2.3953e-06 0)
(0.502368 2.51651e-06 0)
(0.502368 2.73851e-06 0)
(0.502367 3.05917e-06 0)
(0.502367 3.61288e-06 0)
(0.502366 4.28012e-06 0)
(0.502365 5.18117e-06 0)
(0.502364 6.22937e-06 0)
(0.502362 7.38859e-06 0)
(0.502361 8.65722e-06 0)
(0.502359 1.01412e-05 0)
(0.502357 1.18264e-05 0)
(0.502354 1.3899e-05 0)
(0.502351 1.64725e-05 0)
(0.502347 1.95429e-05 0)
(0.502342 2.34609e-05 0)
(0.502337 2.81091e-05 0)
(0.50233 3.36354e-05 0)
(0.502322 4.00289e-05 0)
(0.502313 4.73994e-05 0)
(0.502302 5.5977e-05 0)
(0.50229 6.6116e-05 0)
(0.502276 7.79879e-05 0)
(0.502259 9.18867e-05 0)
(0.502239 0.00010831 0)
(0.502217 0.000127682 0)
(0.50219 0.000150475 0)
(0.50216 0.000177445 0)
(0.502125 0.000209083 0)
(0.502085 0.000246722 0)
(0.50204 0.000291266 0)
(0.501988 0.000342843 0)
(0.50193 0.000402108 0)
(0.501866 0.000470182 0)
(0.501795 0.00054766 0)
(0.501718 0.000634099 0)
(0.501636 0.000728143 0)
(0.501553 0.000827041 0)
(0.501466 0.000925855 0)
(0.501351 0.00101459 0)
(0.50118 0.00107648 0)
(0.501317 0.00108746 0)
(0.580671 0.00146808 0)
(0.838044 0.00697975 0)
(0.659905 0.0118307 0)
(0.558368 0.0153507 0)
(0.578833 0.0183433 0)
(0.613801 0.0214039 0)
(0.620782 0.0245734 0)
(0.61501 0.0277084 0)
(0.612762 0.0307604 0)
(0.615104 0.0337873 0)
(0.617967 0.036871 0)
(0.619749 0.0400734 0)
(0.621047 0.0434455 0)
(0.622492 0.0470468 0)
(0.624139 0.0509509 0)
(0.625863 0.0552415 0)
(0.627642 0.0600099 0)
(0.62955 0.0653558 0)
(0.631677 0.0713895 0)
(0.634108 0.0782317 0)
(0.636951 0.0860129 0)
(0.640347 0.094871 0)
(0.644485 0.104945 0)
(0.649611 0.116365 0)
(0.656036 0.129226 0)
(0.664157 0.143559 0)
(0.674475 0.159261 0)
(0.687556 0.176016 0)
(0.704355 0.19326 0)
(0.725039 0.209162 0)
(0.752887 0.224774 0)
(0.785487 0.238688 0)
(0.813889 0.243284 0)
(0.836659 0.242744 0)
(0.853425 0.22332 0)
(0.860313 0.188575 0)
(0.848602 0.158978 0)
(0.821446 0.138584 0)
(0.792387 0.124713 0)
(0.76928 0.116495 0)
(0.753139 0.11491 0)
(0.743401 0.119546 0)
(0.735816 0.12229 0)
(0.72756 0.112649 0)
(0.714499 0.0922465 0)
(0.694926 0.0690241 0)
(0.672204 0.0510011 0)
(0.651682 0.0438295 0)
(0.636397 0.0486551 0)
(0.630862 0.066072 0)
(0.633309 0.0926051 0)
(0.631722 0.109958 0)
(0.622308 0.0613457 0)
(0.602176 0.0118545 0)
(0.581208 -0.00687646 0)
(0.567837 -0.00980779 0)
(0.560598 -0.00918187 0)
(0.555251 -0.00995096 0)
(0.550696 -0.0120665 0)
(0.547177 -0.0135186 0)
(0.545029 -0.0143619 0)
(0.544069 -0.0150815 0)
(0.543979 -0.0163471 0)
(0.544567 -0.0187301 0)
(0.545681 -0.0214465 0)
(0.5465 -0.0226194 0)
(0.546196 -0.0232237 0)
(0.545013 -0.0247765 0)
(0.543131 -0.0264174 0)
(0.539931 -0.0276292 0)
(0.534959 -0.0287591 0)
(0.527618 -0.0298384 0)
(0.516864 -0.0305914 0)
(0.501135 -0.0310627 0)
(0.479161 -0.0312037 0)
(0.450337 -0.0304731 0)
(0.414099 -0.0289174 0)
(0.366134 -0.0277967 0)
(0.307536 -0.0290714 0)
(0.213643 -0.0363829 0)
(0.12814 -0.0408253 0)
(0.108788 -0.0421772 0)
(0.105703 -0.0410835 0)
(0.113566 -0.0406338 0)
(0.123185 -0.0414148 0)
(0.132145 -0.042783 0)
(0.141566 -0.0442313 0)
(0.152183 -0.0455677 0)
(0.163596 -0.0467593 0)
(0.175063 -0.0478227 0)
(0.186295 -0.0487121 0)
(0.197497 -0.0493616 0)
(0.209125 -0.0497696 0)
(0.221804 -0.0499962 0)
(0.236616 -0.0501972 0)
(0.255865 -0.0509592 0)
(0.282664 -0.054442 0)
(0.306725 -0.0591345 0)
(0.325714 -0.0621861 0)
(0.342961 -0.0634407 0)
(0.359652 -0.063282 0)
(0.376088 -0.0619394 0)
(0.392581 -0.0595426 0)
(0.409563 -0.0569461 0)
(0.426844 -0.0553372 0)
(0.443272 -0.0550384 0)
(0.457227 -0.0558335 0)
(0.468813 -0.056984 0)
(0.479596 -0.0572087 0)
(0.489945 -0.0552913 0)
(0.499644 -0.051604 0)
(0.508289 -0.0477314 0)
(0.516192 -0.0446713 0)
(0.523671 -0.0421577 0)
(0.530813 -0.0396509 0)
(0.537339 -0.0370135 0)
(0.543248 -0.0344328 0)
(0.548559 -0.0318731 0)
(0.55336 -0.029321 0)
(0.557662 -0.0267774 0)
(0.561492 -0.0242976 0)
(0.564878 -0.0219215 0)
(0.567855 -0.0196771 0)
(0.57046 -0.0175854 0)
(0.57273 -0.0156568 0)
(0.574703 -0.0138947 0)
(0.576415 -0.0122966 0)
(0.577899 -0.0108563 0)
(0.579183 -0.00956503 0)
(0.580295 -0.00841246 0)
(0.581257 -0.00738715 0)
(0.582089 -0.00647767 0)
(0.582808 -0.00567309 0)
(0.58343 -0.00496364 0)
(0.583968 -0.00433909 0)
(0.584434 -0.00379016 0)
(0.584837 -0.00330835 0)
(0.585185 -0.00288607 0)
(0.585488 -0.00251637 0)
(0.585749 -0.00219293 0)
(0.585976 -0.00191056 0)
(0.586172 -0.00166419 0)
(0.586342 -0.00144881 0)
(0.58649 -0.00126083 0)
(0.586618 -0.00109723 0)
(0.586729 -0.000954847 0)
(0.586826 -0.000831102 0)
(0.58691 -0.000723443 0)
(0.586983 -0.000629556 0)
(0.587046 -0.000547977 0)
(0.587101 -0.000477023 0)
(0.587149 -0.000415042 0)
(0.58719 -0.000360914 0)
(0.587227 -0.000313849 0)
(0.587258 -0.00027296 0)
(0.587286 -0.000237463 0)
(0.58731 -0.00020665 0)
(0.58733 -0.0001799 0)
(0.587348 -0.000156644 0)
(0.587364 -0.000136484 0)
(0.587378 -0.000119047 0)
(0.58739 -0.00010383 0)
(0.587401 -9.0441e-05 0)
(0.58741 -7.86745e-05 0)