/*--------------------------------*- C++ -*----------------------------------*\
| =========                 |                                                 |
| \\      /  F ield         | OpenFOAM: The Open Source CFD Toolbox           |
|  \\    /   O peration     | Version:  2406                                  |
|   \\  /    A nd           | Website:  www.openfoam.com                      |
|    \\/     M anipulation  |                                                 |
\*---------------------------------------------------------------------------*/
FoamFile
{
    version     2.0;
    format      ascii;
    arch        "LSB;label=32;scalar=64";
    class       volVectorField;
    location    "0.5";
    object      U;
}
// * * * * * * * * * * * * * * * * * * * * * * * * * * * * * * * * * * * * * //

dimensions      [0 1 -1 0 0 0 0];

internalField   nonuniform List<vector> 
2250
(
(0.309124 -2.88463e-08 0)
(0.309124 -3.29988e-08 0)
(0.309124 -1.23241e-07 0)
(0.309125 -1.52589e-07 0)
(0.309125 -1.23075e-07 0)
(0.309125 -6.32442e-08 0)
(0.309125 -6.02245e-08 0)
(0.309125 -5.61295e-08 0)
(0.309125 -4.37274e-08 0)
(0.309125 -3.72164e-08 0)
(0.309125 -3.28033e-08 0)
(0.309125 3.71488e-09 0)
(0.309125 1.87033e-08 0)
(0.309125 -2.38374e-08 0)
(0.309125 -5.84086e-08 0)
(0.309126 -3.5684e-08 0)
(0.309126 -9.40078e-09 0)
(0.309126 -5.36884e-09 0)
(0.309126 -1.9289e-08 0)
(0.309126 -4.01708e-08 0)
(0.309126 -5.92552e-08 0)
(0.309126 -6.9853e-08 0)
(0.309126 -6.51344e-08 0)
(0.309126 -4.60572e-08 0)
(0.309126 -3.67741e-08 0)
(0.309126 -5.23367e-08 0)
(0.309126 -6.59123e-08 0)
(0.309126 -5.08149e-08 0)
(0.309126 -2.29876e-08 0)
(0.309126 -1.30708e-08 0)
(0.309126 -2.46639e-08 0)
(0.309126 -3.58241e-08 0)
(0.309126 -3.85155e-08 0)
(0.309126 -4.44613e-08 0)
(0.309126 -5.28683e-08 0)
(0.309126 -4.98325e-08 0)
(0.309126 -3.89959e-08 0)
(0.309126 -3.04343e-08 0)
(0.309126 -1.70465e-08 0)
(0.309126 1.09751e-08 0)
(0.309126 3.48835e-08 0)
(0.309126 2.96115e-08 0)
(0.309126 8.2373e-09 0)
(0.309126 2.45827e-09 0)
(0.309126 1.33659e-08 0)
(0.309126 1.9861e-08 0)
(0.309126 2.073e-08 0)
(0.309126 2.36117e-08 0)
(0.309126 2.34082e-08 0)
(0.309126 1.73184e-08 0)
(0.309126 1.94224e-08 0)
(0.309126 3.08774e-08 0)
(0.309126 2.42481e-08 0)
(0.309126 -1.28303e-08 0)
(0.309126 -4.84411e-08 0)
(0.309126 -5.17298e-08 0)
(0.309126 -3.39399e-08 0)
(0.309126 -2.0704e-08 0)
(0.309126 -1.77604e-08 0)
(0.309126 -2.12986e-08 0)
(0.309127 -3.31433e-08 0)
(0.309127 -4.58534e-08 0)
(0.309127 -4.3155e-08 0)
(0.309127 -2.8763e-08 0)
(0.309127 -2.88958e-08 0)
(0.309127 -4.49756e-08 0)
(0.309127 -4.67189e-08 0)
(0.309127 -2.11478e-08 0)
(0.309127 4.30834e-09 0)
(0.309127 5.45722e-09 0)
(0.309127 -7.2986e-09 0)
(0.309127 -1.48367e-08 0)
(0.309127 -1.36585e-08 0)
(0.309127 -6.27147e-09 0)
(0.309127 5.65901e-09 0)
(0.309127 8.80256e-09 0)
(0.309127 -1.24162e-08 0)
(0.309127 -4.23553e-08 0)
(0.309127 -4.23664e-08 0)
(0.309127 -8.67013e-09 0)
(0.309127 2.23646e-08 0)
(0.309127 2.75446e-08 0)
(0.309127 2.31778e-08 0)
(0.309126 2.51567e-08 0)
(0.309126 2.84517e-08 0)
(0.309126 2.98776e-08 0)
(0.309126 3.21485e-08 0)
(0.309126 2.57755e-08 0)
(0.309126 3.71131e-09 0)
(0.309126 -1.19792e-08 0)
(0.309126 2.02039e-09 0)
(0.309126 2.87623e-08 0)
(0.309126 3.28833e-08 0)
(0.309126 1.41205e-08 0)
(0.309126 -8.94602e-10 0)
(0.309126 -2.35603e-09 0)
(0.309126 1.73164e-11 0)
(0.309126 1.87298e-09 0)
(0.309126 2.3717e-09 0)
(0.309126 -3.62685e-09 0)
(0.309126 -1.1168e-08 0)
(0.309126 -5.45552e-09 0)
(0.309126 1.52737e-08 0)
(0.309126 3.01236e-08 0)
(0.309126 1.94756e-08 0)
(0.309126 -4.40147e-09 0)
(0.309126 -1.27865e-08 0)
(0.309126 -1.15469e-09 0)
(0.309126 1.04172e-08 0)
(0.309126 9.36547e-09 0)
(0.309126 1.5168e-09 0)
(0.309126 -6.94157e-09 0)
(0.309126 -1.20917e-08 0)
(0.309126 -3.03487e-09 0)
(0.309126 2.10126e-08 0)
(0.309126 3.59939e-08 0)
(0.309126 2.65991e-08 0)
(0.309126 1.38086e-08 0)
(0.309126 1.78751e-08 0)
(0.309126 2.4411e-08 0)
(0.309126 1.57619e-08 0)
(0.309126 -4.78297e-11 0)
(0.309126 -1.0865e-08 0)
(0.309126 -1.88913e-08 0)
(0.309126 -1.98791e-08 0)
(0.309126 -5.8792e-09 0)
(0.309126 9.94745e-09 0)
(0.309126 9.14125e-09 0)
(0.309126 -2.8255e-09 0)
(0.309126 -7.47291e-09 0)
(0.309126 -8.56723e-10 0)
(0.309126 5.86781e-09 0)
(0.309126 4.73621e-09 0)
(0.309126 2.63403e-09 0)
(0.309126 8.60975e-09 0)
(0.309126 2.13638e-08 0)
(0.309126 3.26787e-08 0)
(0.309126 3.7482e-08 0)
(0.309126 3.67613e-08 0)
(0.309126 2.89193e-08 0)
(0.309126 1.04625e-08 0)
(0.309126 -1.18344e-09 0)
(0.309126 1.17741e-08 0)
(0.309126 2.19906e-08 0)
(0.309126 1.03899e-08 0)
(0.309126 6.34923e-09 0)
(0.309126 2.30729e-08 0)
(0.309125 1.34635e-08 0)
(0.309125 -2.90455e-08 0)
(0.309125 1.66985e-08 0)
(0.84447 -1.67533e-07 0)
(0.84447 -1.69095e-07 0)
(0.84447 -3.11783e-07 0)
(0.84447 -3.66873e-07 0)
(0.84447 -3.59737e-07 0)
(0.844471 -2.69984e-07 0)
(0.844471 -2.63324e-07 0)
(0.844471 -2.35883e-07 0)
(0.844471 -1.91184e-07 0)
(0.844471 -1.18594e-07 0)
(0.844471 -4.95665e-08 0)
(0.844471 -2.41781e-09 0)
(0.844471 -1.62342e-08 0)
(0.844471 -8.71718e-08 0)
(0.844471 -1.35221e-07 0)
(0.844471 -1.1358e-07 0)
(0.844471 -7.48504e-08 0)
(0.844471 -6.71963e-08 0)
(0.844471 -1.07188e-07 0)
(0.844471 -1.58723e-07 0)
(0.844471 -1.84266e-07 0)
(0.844471 -1.87832e-07 0)
(0.844471 -1.84275e-07 0)
(0.844471 -1.69973e-07 0)
(0.844471 -1.59746e-07 0)
(0.844471 -1.78935e-07 0)
(0.844471 -1.94725e-07 0)
(0.844471 -1.57941e-07 0)
(0.844471 -9.24447e-08 0)
(0.844471 -5.91994e-08 0)
(0.844471 -7.38404e-08 0)
(0.844471 -9.72185e-08 0)
(0.844471 -1.0413e-07 0)
(0.844471 -1.13966e-07 0)
(0.844471 -1.31384e-07 0)
(0.844471 -1.23428e-07 0)
(0.844471 -8.59332e-08 0)
(0.844471 -5.39755e-08 0)
(0.844472 -3.33591e-08 0)
(0.844472 9.37083e-09 0)
(0.844471 7.23124e-08 0)
(0.844471 1.03136e-07 0)
(0.844472 8.70051e-08 0)
(0.844472 7.26694e-08 0)
(0.844471 8.42843e-08 0)
(0.844471 8.98539e-08 0)
(0.844472 8.18179e-08 0)
(0.844471 8.7737e-08 0)
(0.844471 9.98328e-08 0)
(0.844472 8.47744e-08 0)
(0.844472 5.3795e-08 0)
(0.844472 4.18417e-08 0)
(0.844472 3.50805e-08 0)
(0.844472 -8.04043e-09 0)
(0.844472 -6.70571e-08 0)
(0.844472 -8.47372e-08 0)
(0.844472 -6.37777e-08 0)
(0.844472 -5.06085e-08 0)
(0.844472 -6.04427e-08 0)
(0.844472 -7.71295e-08 0)
(0.844472 -1.03902e-07 0)
(0.844472 -1.45388e-07 0)
(0.844472 -1.67704e-07 0)
(0.844472 -1.41634e-07 0)
(0.844472 -1.05005e-07 0)
(0.844472 -1.03139e-07 0)
(0.844472 -1.1446e-07 0)
(0.844472 -9.26336e-08 0)
(0.844472 -4.97236e-08 0)
(0.844472 -2.82874e-08 0)
(0.844472 -2.68626e-08 0)
(0.844472 -1.96234e-08 0)
(0.844472 -1.16172e-08 0)
(0.844472 -1.75933e-08 0)
(0.844472 -2.0965e-08 0)
(0.844472 -9.56965e-09 0)
(0.844472 -1.49417e-08 0)
(0.844472 -5.3769e-08 0)
(0.844472 -7.55482e-08 0)
(0.844472 -3.76085e-08 0)
(0.844472 2.48869e-08 0)
(0.844472 5.67188e-08 0)
(0.844472 6.21987e-08 0)
(0.844472 6.8953e-08 0)
(0.844472 7.1057e-08 0)
(0.844472 6.07626e-08 0)
(0.844472 6.05469e-08 0)
(0.844472 7.23453e-08 0)
(0.844471 6.01553e-08 0)
(0.844471 2.3034e-08 0)
(0.844471 1.19809e-08 0)
(0.844471 4.48455e-08 0)
(0.844471 7.048e-08 0)
(0.844471 5.57971e-08 0)
(0.844471 2.97802e-08 0)
(0.844471 1.84543e-08 0)
(0.844471 1.23475e-08 0)
(0.844471 8.684e-09 0)
(0.844471 1.89684e-08 0)
(0.844471 3.10875e-08 0)
(0.844472 2.37209e-08 0)
(0.844472 8.46981e-09 0)
(0.844472 1.47287e-08 0)
(0.844472 3.77071e-08 0)
(0.844472 3.92338e-08 0)
(0.844472 8.74545e-09 0)
(0.844472 -1.67626e-08 0)
(0.844471 -1.40751e-08 0)
(0.844471 -4.14502e-09 0)
(0.844471 -6.32302e-09 0)
(0.844471 -1.07618e-08 0)
(0.844471 -1.14673e-08 0)
(0.844471 -1.74523e-08 0)
(0.844472 -1.7076e-08 0)
(0.844472 1.55715e-08 0)
(0.844472 6.27257e-08 0)
(0.844472 7.71095e-08 0)
(0.844472 6.10549e-08 0)
(0.844472 5.69873e-08 0)
(0.844472 6.61079e-08 0)
(0.844471 5.53642e-08 0)
(0.844471 2.87573e-08 0)
(0.844471 1.30592e-08 0)
(0.844471 3.32279e-09 0)
(0.844471 -9.62031e-09 0)
(0.844471 -4.51254e-09 0)
(0.844471 2.3582e-08 0)
(0.844471 4.28603e-08 0)
(0.844471 3.8312e-08 0)
(0.844471 3.40608e-08 0)
(0.844471 5.10837e-08 0)
(0.844471 7.58667e-08 0)
(0.844471 8.56189e-08 0)
(0.844471 8.66371e-08 0)
(0.844471 9.70533e-08 0)
(0.844471 1.13667e-07 0)
(0.844471 1.22788e-07 0)
(0.844471 1.22258e-07 0)
(0.844471 1.17408e-07 0)
(0.844471 1.0516e-07 0)
(0.844471 7.37211e-08 0)
(0.844471 3.99987e-08 0)
(0.844471 3.58914e-08 0)
(0.844471 2.99831e-08 0)
(0.844471 8.71214e-09 0)
(0.844471 2.00105e-08 0)
(0.844471 4.332e-08 0)
(0.844471 3.74866e-08 0)
(0.844471 9.21692e-09 0)
(0.844471 3.91415e-08 0)
(1.29709 -8.67708e-08 0)
(1.29709 -1.79324e-07 0)
(1.29709 -3.51024e-07 0)
(1.29709 -4.87744e-07 0)
(1.29709 -5.62955e-07 0)
(1.29709 -5.3646e-07 0)
(1.29709 -4.74159e-07 0)
(1.29709 -3.88611e-07 0)
(1.29709 -2.728e-07 0)
(1.29709 -1.62271e-07 0)
(1.29709 -6.67605e-08 0)
(1.29709 -5.36716e-08 0)
(1.29709 -7.48476e-08 0)
(1.29709 -7.0772e-08 0)
(1.29709 -3.27273e-08 0)
(1.29709 -3.3702e-08 0)
(1.29709 -5.61328e-08 0)
(1.29709 -9.2318e-08 0)
(1.29709 -1.62878e-07 0)
(1.29709 -2.30994e-07 0)
(1.29709 -2.47671e-07 0)
(1.29709 -2.25407e-07 0)
(1.29709 -2.20947e-07 0)
(1.29709 -2.38921e-07 0)
(1.29709 -2.3172e-07 0)
(1.29709 -1.91434e-07 0)
(1.29709 -1.47632e-07 0)
(1.29709 -1.16575e-07 0)
(1.29709 -9.66245e-08 0)
(1.29709 -8.10137e-08 0)
(1.29709 -7.46508e-08 0)
(1.29709 -8.1986e-08 0)
(1.29709 -8.46668e-08 0)
(1.29709 -7.49815e-08 0)
(1.29709 -7.09276e-08 0)
(1.29709 -6.76768e-08 0)
(1.29709 -3.97864e-08 0)
(1.29709 3.02264e-09 0)
(1.29709 2.65727e-08 0)
(1.29709 3.26934e-08 0)
(1.29709 6.27514e-08 0)
(1.29709 1.20577e-07 0)
(1.29709 1.59864e-07 0)
(1.29709 1.70362e-07 0)
(1.29709 1.84455e-07 0)
(1.29709 1.99023e-07 0)
(1.29709 1.8899e-07 0)
(1.29709 1.70202e-07 0)
(1.29709 1.61983e-07 0)
(1.29709 1.36718e-07 0)
(1.29709 6.82262e-08 0)
(1.29709 -7.27409e-09 0)
(1.29709 -3.21913e-08 0)
(1.29709 -1.92011e-08 0)
(1.29709 -1.94123e-08 0)
(1.29709 -3.78978e-08 0)
(1.29709 -5.42806e-08 0)
(1.29709 -7.76145e-08 0)
(1.29709 -1.21647e-07 0)
(1.29709 -1.64927e-07 0)
(1.29709 -1.8269e-07 0)
(1.29709 -1.92024e-07 0)
(1.29709 -2.09854e-07 0)
(1.29709 -2.03201e-07 0)
(1.29709 -1.47723e-07 0)
(1.29709 -8.88167e-08 0)
(1.29709 -7.69216e-08 0)
(1.29709 -9.2102e-08 0)
(1.29709 -9.0213e-08 0)
(1.29709 -7.43717e-08 0)
(1.29709 -6.58787e-08 0)
(1.29709 -5.61238e-08 0)
(1.29709 -3.87194e-08 0)
(1.29709 -3.86377e-08 0)
(1.29709 -6.07521e-08 0)
(1.29709 -6.36162e-08 0)
(1.29709 -3.0529e-08 0)
(1.29709 -6.6205e-09 0)
(1.29709 -2.18001e-08 0)
(1.29709 -3.73308e-08 0)
(1.29709 -1.77179e-08 0)
(1.29709 1.31354e-08 0)
(1.29709 2.4884e-08 0)
(1.29709 3.15864e-08 0)
(1.29709 4.44432e-08 0)
(1.29709 4.67203e-08 0)
(1.29709 4.38381e-08 0)
(1.29709 6.70327e-08 0)
(1.29709 1.03675e-07 0)
(1.29709 1.02667e-07 0)
(1.29709 6.03853e-08 0)
(1.29709 2.9431e-08 0)
(1.29709 3.14331e-08 0)
(1.29709 3.33001e-08 0)
(1.29709 1.80729e-08 0)
(1.29709 4.59247e-09 0)
(1.29709 3.50058e-09 0)
(1.29709 9.32344e-09 0)
(1.29709 2.79979e-08 0)
(1.29709 6.64842e-08 0)
(1.29709 1.00161e-07 0)
(1.29709 9.5334e-08 0)
(1.29709 6.19185e-08 0)
(1.29709 4.3704e-08 0)
(1.29709 5.40654e-08 0)
(1.29709 6.0732e-08 0)
(1.29709 4.8072e-08 0)
(1.29709 4.0196e-08 0)
(1.29709 4.72693e-08 0)
(1.29709 5.08475e-08 0)
(1.29709 4.8969e-08 0)
(1.29709 5.66142e-08 0)
(1.29709 5.94264e-08 0)
(1.29709 3.37965e-08 0)
(1.29709 7.41034e-09 0)
(1.29709 2.20228e-08 0)
(1.29709 5.63191e-08 0)
(1.29709 6.34938e-08 0)
(1.29709 4.98161e-08 0)
(1.29709 4.46146e-08 0)
(1.29709 4.04764e-08 0)
(1.29709 2.33806e-08 0)
(1.29709 9.83519e-09 0)
(1.29709 6.84852e-09 0)
(1.29709 -6.48331e-09 0)
(1.29709 -2.85848e-08 0)
(1.29709 -2.96199e-08 0)
(1.29709 -1.13961e-09 0)
(1.29709 3.69728e-08 0)
(1.29709 6.85839e-08 0)
(1.29709 9.65312e-08 0)
(1.29709 1.2556e-07 0)
(1.29709 1.48689e-07 0)
(1.29709 1.5947e-07 0)
(1.29709 1.63103e-07 0)
(1.29709 1.641e-07 0)
(1.29709 1.63499e-07 0)
(1.29709 1.56089e-07 0)
(1.29709 1.3432e-07 0)
(1.29709 1.08153e-07 0)
(1.29709 8.93238e-08 0)
(1.29709 7.19927e-08 0)
(1.29709 4.99179e-08 0)
(1.29709 2.05871e-08 0)
(1.29709 1.13042e-08 0)
(1.29709 4.69083e-08 0)
(1.29709 5.45487e-08 0)
(1.29709 3.72134e-08 0)
(1.29709 8.25257e-08 0)
(1.29709 6.74209e-09 0)
(1.66716 1.4901e-07 0)
(1.66716 -4.62116e-09 0)
(1.66716 -1.69454e-07 0)
(1.66716 -3.73939e-07 0)
(1.66716 -4.42106e-07 0)
(1.66716 -4.50078e-07 0)
(1.66716 -3.61464e-07 0)
(1.66716 -2.6192e-07 0)
(1.66716 -1.5848e-07 0)
(1.66716 -1.12027e-07 0)
(1.66716 -3.04636e-08 0)
(1.66716 5.56335e-08 0)
(1.66716 9.49708e-08 0)
(1.66716 1.29831e-07 0)
(1.66716 1.89278e-07 0)
(1.66716 1.78499e-07 0)
(1.66716 9.90875e-08 0)
(1.66716 9.01777e-09 0)
(1.66716 -8.05528e-08 0)
(1.66716 -1.61368e-07 0)
(1.66716 -2.07736e-07 0)
(1.66716 -2.07089e-07 0)
(1.66716 -1.92544e-07 0)
(1.66716 -1.94494e-07 0)
(1.66716 -1.8761e-07 0)
(1.66716 -1.51116e-07 0)
(1.66716 -1.15319e-07 0)
(1.66716 -1.08078e-07 0)
(1.66716 -1.20099e-07 0)
(1.66716 -1.23247e-07 0)
(1.66716 -1.0749e-07 0)
(1.66716 -9.42237e-08 0)
(1.66716 -9.10218e-08 0)
(1.66716 -7.91962e-08 0)
(1.66716 -6.01253e-08 0)
(1.66716 -4.98908e-08 0)
(1.66716 -3.66711e-08 0)
(1.66716 -1.70101e-10 0)
(1.66716 4.09729e-08 0)
(1.66716 5.10321e-08 0)
(1.66716 4.52706e-08 0)
(1.66716 7.24787e-08 0)
(1.66716 1.28931e-07 0)
(1.66716 1.73105e-07 0)
(1.66716 2.0133e-07 0)
(1.66716 2.2529e-07 0)
(1.66716 2.25724e-07 0)
(1.66716 1.8939e-07 0)
(1.66716 1.44508e-07 0)
(1.66716 1.12696e-07 0)
(1.66716 7.30849e-08 0)
(1.66716 1.19635e-08 0)
(1.66716 -3.4312e-08 0)
(1.66716 -3.60098e-08 0)
(1.66716 -2.7769e-08 0)
(1.66716 -4.84856e-08 0)
(1.66716 -8.6019e-08 0)
(1.66716 -1.1858e-07 0)
(1.66716 -1.49448e-07 0)
(1.66716 -1.77069e-07 0)
(1.66716 -1.79245e-07 0)
(1.66716 -1.56878e-07 0)
(1.66716 -1.50409e-07 0)
(1.66716 -1.71309e-07 0)
(1.66716 -1.73814e-07 0)
(1.66716 -1.32192e-07 0)
(1.66716 -8.24655e-08 0)
(1.66716 -6.1627e-08 0)
(1.66716 -5.56777e-08 0)
(1.66716 -4.65991e-08 0)
(1.66716 -4.56567e-08 0)
(1.66716 -5.38361e-08 0)
(1.66716 -4.72551e-08 0)
(1.66716 -2.89654e-08 0)
(1.66716 -3.29146e-08 0)
(1.66716 -5.88469e-08 0)
(1.66716 -6.37292e-08 0)
(1.66716 -3.8933e-08 0)
(1.66716 -2.96013e-08 0)
(1.66716 -5.4499e-08 0)
(1.66716 -7.57021e-08 0)
(1.66716 -7.29485e-08 0)
(1.66716 -6.713e-08 0)
(1.66716 -6.16177e-08 0)
(1.66716 -3.92669e-08 0)
(1.66716 -1.1853e-08 0)
(1.66716 -6.23254e-09 0)
(1.66716 -5.911e-09 0)
(1.66716 2.30111e-08 0)
(1.66716 6.17818e-08 0)
(1.66716 6.61135e-08 0)
(1.66716 3.93196e-08 0)
(1.66716 2.13679e-08 0)
(1.66716 1.92643e-08 0)
(1.66716 1.48573e-08 0)
(1.66716 1.18873e-08 0)
(1.66716 2.19537e-08 0)
(1.66716 3.65923e-08 0)
(1.66716 4.82813e-08 0)
(1.66716 6.87398e-08 0)
(1.66716 1.04702e-07 0)
(1.66716 1.3073e-07 0)
(1.66716 1.1909e-07 0)
(1.66716 8.51976e-08 0)
(1.66716 7.08477e-08 0)
(1.66716 8.5189e-08 0)
(1.66716 9.99444e-08 0)
(1.66716 1.04413e-07 0)
(1.66716 1.11795e-07 0)
(1.66716 1.17106e-07 0)
(1.66716 1.03972e-07 0)
(1.66716 8.62669e-08 0)
(1.66716 8.24165e-08 0)
(1.66716 7.07319e-08 0)
(1.66716 3.24751e-08 0)
(1.66716 2.25969e-09 0)
(1.66716 1.07712e-08 0)
(1.66716 2.923e-08 0)
(1.66716 2.63521e-08 0)
(1.66716 1.68319e-08 0)
(1.66716 1.41622e-08 0)
(1.66716 1.49438e-09 0)
(1.66716 -1.95397e-08 0)
(1.66716 -2.39238e-08 0)
(1.66716 -1.40603e-08 0)
(1.66716 -1.27362e-08 0)
(1.66716 -1.29994e-08 0)
(1.66716 9.55906e-09 0)
(1.66716 5.74834e-08 0)
(1.66716 1.08789e-07 0)
(1.66716 1.41319e-07 0)
(1.66716 1.54108e-07 0)
(1.66716 1.62629e-07 0)
(1.66716 1.77792e-07 0)
(1.66716 1.89624e-07 0)
(1.66716 1.82464e-07 0)
(1.66716 1.69108e-07 0)
(1.66716 1.58767e-07 0)
(1.66716 1.23604e-07 0)
(1.66716 6.85466e-08 0)
(1.66716 4.8923e-08 0)
(1.66716 5.86992e-08 0)
(1.66716 4.36545e-08 0)
(1.66716 1.65557e-08 0)
(1.66716 2.72346e-08 0)
(1.66716 5.10347e-08 0)
(1.66716 6.97953e-09 0)
(1.66716 -5.96799e-08 0)
(1.66716 -3.27766e-08 0)
(1.66716 -8.40036e-08 0)
(1.95483 2.11043e-07 0)
(1.95483 1.94068e-07 0)
(1.95483 1.304e-07 0)
(1.95483 5.05807e-08 0)
(1.95483 5.70218e-09 0)
(1.95483 1.49231e-08 0)
(1.95483 6.84183e-08 0)
(1.95483 1.28878e-07 0)
(1.95482 2.00631e-07 0)
(1.95482 2.43447e-07 0)
(1.95482 3.28123e-07 0)
(1.95482 4.29625e-07 0)
(1.95482 4.56782e-07 0)
(1.95482 4.43211e-07 0)
(1.95482 4.25047e-07 0)
(1.95482 3.76027e-07 0)
(1.95482 2.75067e-07 0)
(1.95482 1.56712e-07 0)
(1.95482 5.94003e-08 0)
(1.95482 -1.07027e-08 0)
(1.95482 -6.50081e-08 0)
(1.95482 -9.4158e-08 0)
(1.95482 -1.01082e-07 0)
(1.95482 -1.32375e-07 0)
(1.95482 -1.96659e-07 0)
(1.95482 -2.42756e-07 0)
(1.95482 -2.4156e-07 0)
(1.95482 -2.1108e-07 0)
(1.95482 -1.80158e-07 0)
(1.95482 -1.57893e-07 0)
(1.95482 -1.3522e-07 0)
(1.95482 -1.17732e-07 0)
(1.95482 -1.14384e-07 0)
(1.95482 -1.09803e-07 0)
(1.95482 -8.99731e-08 0)
(1.95482 -6.99168e-08 0)
(1.95482 -6.11088e-08 0)
(1.95482 -4.96734e-08 0)
(1.95482 -1.68512e-08 0)
(1.95482 2.55467e-08 0)
(1.95482 5.46874e-08 0)
(1.95482 8.25596e-08 0)
(1.95482 1.24571e-07 0)
(1.95482 1.56805e-07 0)
(1.95482 1.61298e-07 0)
(1.95482 1.58828e-07 0)
(1.95482 1.58028e-07 0)
(1.95482 1.39219e-07 0)
(1.95482 1.04537e-07 0)
(1.95482 8.6397e-08 0)
(1.95482 8.8683e-08 0)
(1.95482 7.52438e-08 0)
(1.95482 3.03754e-08 0)
(1.95482 -1.48844e-08 0)
(1.95482 -4.20775e-08 0)
(1.95482 -6.95746e-08 0)
(1.95482 -1.01117e-07 0)
(1.95482 -1.18762e-07 0)
(1.95482 -1.25497e-07 0)
(1.95482 -1.40272e-07 0)
(1.95482 -1.60072e-07 0)
(1.95482 -1.59797e-07 0)
(1.95482 -1.42713e-07 0)
(1.95482 -1.38814e-07 0)
(1.95482 -1.45593e-07 0)
(1.95482 -1.2858e-07 0)
(1.95482 -8.44305e-08 0)
(1.95482 -4.9571e-08 0)
(1.95482 -3.80037e-08 0)
(1.95482 -3.04984e-08 0)
(1.95482 -2.07511e-08 0)
(1.95482 -1.97011e-08 0)
(1.95482 -1.8838e-08 0)
(1.95482 -2.14736e-09 0)
(1.95482 8.36028e-09 0)
(1.95482 -2.07508e-08 0)
(1.95482 -7.35766e-08 0)
(1.95482 -1.04161e-07 0)
(1.95482 -1.08899e-07 0)
(1.95482 -1.18518e-07 0)
(1.95482 -1.33343e-07 0)
(1.95482 -1.28733e-07 0)
(1.95482 -1.08944e-07 0)
(1.95482 -9.49791e-08 0)
(1.95482 -7.85313e-08 0)
(1.95482 -4.82012e-08 0)
(1.95482 -2.66851e-08 0)
(1.95482 -3.00192e-08 0)
(1.95482 -2.63464e-08 0)
(1.95482 1.23089e-08 0)
(1.95482 5.82888e-08 0)
(1.95482 7.45057e-08 0)
(1.95482 6.85585e-08 0)
(1.95482 6.09835e-08 0)
(1.95482 5.06293e-08 0)
(1.95482 3.94591e-08 0)
(1.95482 4.19771e-08 0)
(1.95482 5.71133e-08 0)
(1.95482 6.67493e-08 0)
(1.95482 6.67699e-08 0)
(1.95482 7.28222e-08 0)
(1.95482 9.2495e-08 0)
(1.95482 1.06595e-07 0)
(1.95482 9.97568e-08 0)
(1.95482 8.56874e-08 0)
(1.95482 8.89175e-08 0)
(1.95482 1.06217e-07 0)
(1.95482 1.16101e-07 0)
(1.95482 1.15791e-07 0)
(1.95482 1.13449e-07 0)
(1.95482 9.84315e-08 0)
(1.95482 6.48667e-08 0)
(1.95482 3.90709e-08 0)
(1.95482 3.59465e-08 0)
(1.95482 2.62836e-08 0)
(1.95482 -3.27243e-09 0)
(1.95482 -1.93286e-08 0)
(1.95482 -6.30776e-09 0)
(1.95482 6.01884e-09 0)
(1.95482 1.16329e-09 0)
(1.95482 -4.55128e-09 0)
(1.95482 -9.15557e-09 0)
(1.95482 -2.41017e-08 0)
(1.95482 -3.33976e-08 0)
(1.95482 -1.60595e-08 0)
(1.95482 1.13944e-08 0)
(1.95482 2.71899e-08 0)
(1.95482 4.22538e-08 0)
(1.95482 7.25667e-08 0)
(1.95482 1.07658e-07 0)
(1.95482 1.26192e-07 0)
(1.95482 1.30738e-07 0)
(1.95482 1.4142e-07 0)
(1.95482 1.63578e-07 0)
(1.95482 1.81178e-07 0)
(1.95482 1.72342e-07 0)
(1.95482 1.42689e-07 0)
(1.95482 1.14925e-07 0)
(1.95482 8.08416e-08 0)
(1.95482 4.16271e-08 0)
(1.95482 3.56381e-08 0)
(1.95482 4.50164e-08 0)
(1.95482 4.61648e-09 0)
(1.95482 -3.68182e-08 0)
(1.95482 -5.35829e-08 0)
(1.95482 -6.59527e-08 0)
(1.95482 -1.17578e-07 0)
(1.95482 -1.33733e-07 0)
(1.95482 -1.62871e-07 0)
(1.95482 -1.84864e-07 0)
(2.16021 4.53926e-07 0)
(2.16021 4.83581e-07 0)
(2.16021 5.07131e-07 0)
(2.16021 5.91922e-07 0)
(2.16021 6.14969e-07 0)
(2.16021 6.82535e-07 0)
(2.16021 7.15102e-07 0)
(2.16021 7.36635e-07 0)
(2.16021 7.68583e-07 0)
(2.16021 7.9314e-07 0)
(2.16021 8.21375e-07 0)
(2.16021 8.24618e-07 0)
(2.16021 8.05571e-07 0)
(2.16021 7.5665e-07 0)
(2.16021 6.83347e-07 0)
(2.16021 6.00337e-07 0)
(2.1602 4.97362e-07 0)
(2.1602 3.84281e-07 0)
(2.1602 2.84499e-07 0)
(2.1602 2.13083e-07 0)
(2.1602 1.47529e-07 0)
(2.1602 6.91172e-08 0)
(2.1602 -5.57085e-09 0)
(2.1602 -7.76667e-08 0)
(2.1602 -1.54208e-07 0)
(2.1602 -2.02136e-07 0)
(2.1602 -1.9313e-07 0)
(2.1602 -1.45704e-07 0)
(2.1602 -1.01051e-07 0)
(2.1602 -7.82931e-08 0)
(2.1602 -6.56952e-08 0)
(2.1602 -5.58318e-08 0)
(2.1602 -5.72698e-08 0)
(2.1602 -6.06735e-08 0)
(2.1602 -5.03147e-08 0)
(2.1602 -3.60603e-08 0)
(2.1602 -3.50285e-08 0)
(2.1602 -3.89766e-08 0)
(2.1602 -1.62592e-08 0)
(2.1602 4.20412e-08 0)
(2.1602 9.82665e-08 0)
(2.1602 1.21958e-07 0)
(2.1602 1.25778e-07 0)
(2.1602 1.22797e-07 0)
(2.1602 1.10218e-07 0)
(2.1602 1.01788e-07 0)
(2.1602 1.15503e-07 0)
(2.1602 1.35904e-07 0)
(2.1602 1.33241e-07 0)
(2.1602 1.09681e-07 0)
(2.1602 9.19502e-08 0)
(2.1602 7.78276e-08 0)
(2.1602 4.34066e-08 0)
(2.1602 -3.93532e-09 0)
(2.1602 -3.62234e-08 0)
(2.1602 -5.26855e-08 0)
(2.1602 -6.87897e-08 0)
(2.1602 -8.07155e-08 0)
(2.1602 -8.38708e-08 0)
(2.1602 -9.3976e-08 0)
(2.1602 -1.22936e-07 0)
(2.1602 -1.4703e-07 0)
(2.1602 -1.3812e-07 0)
(2.1602 -1.10762e-07 0)
(2.1602 -9.59224e-08 0)
(2.1602 -9.0878e-08 0)
(2.1602 -7.69406e-08 0)
(2.1602 -5.86777e-08 0)
(2.1602 -4.9872e-08 0)
(2.1602 -4.16121e-08 0)
(2.1602 -2.24927e-08 0)
(2.1602 -8.8246e-09 0)
(2.1602 -1.50401e-08 0)
(2.1602 -2.69982e-08 0)
(2.1602 -3.25316e-08 0)
(2.1602 -5.20689e-08 0)
(2.1602 -1.00422e-07 0)
(2.1602 -1.48538e-07 0)
(2.1602 -1.62844e-07 0)
(2.1602 -1.51817e-07 0)
(2.1602 -1.40733e-07 0)
(2.1602 -1.27112e-07 0)
(2.1602 -1.05987e-07 0)
(2.1602 -9.43857e-08 0)
(2.1602 -9.73805e-08 0)
(2.1602 -8.9468e-08 0)
(2.1602 -6.07186e-08 0)
(2.1602 -3.63357e-08 0)
(2.1602 -2.62589e-08 0)
(2.1602 -3.803e-09 0)
(2.1602 3.81981e-08 0)
(2.1602 6.8547e-08 0)
(2.1602 7.14485e-08 0)
(2.1602 6.47992e-08 0)
(2.1602 5.90073e-08 0)
(2.1602 5.06322e-08 0)
(2.1602 4.90523e-08 0)
(2.1602 6.7099e-08 0)
(2.1602 9.34391e-08 0)
(2.1602 1.06918e-07 0)
(2.1602 1.09188e-07 0)
(2.1602 1.19873e-07 0)
(2.1602 1.41092e-07 0)
(2.1602 1.56523e-07 0)
(2.1602 1.58374e-07 0)
(2.1602 1.55575e-07 0)
(2.1602 1.56065e-07 0)
(2.1602 1.55053e-07 0)
(2.1602 1.46183e-07 0)
(2.1602 1.34895e-07 0)
(2.1602 1.22165e-07 0)
(2.1602 9.49365e-08 0)
(2.1602 5.59743e-08 0)
(2.1602 3.11798e-08 0)
(2.1602 2.33702e-08 0)
(2.1602 7.41256e-09 0)
(2.1602 -1.86056e-08 0)
(2.1602 -2.97564e-08 0)
(2.1602 -2.63595e-08 0)
(2.1602 -3.10016e-08 0)
(2.1602 -4.05753e-08 0)
(2.1602 -3.62388e-08 0)
(2.1602 -2.63177e-08 0)
(2.1602 -2.62493e-08 0)
(2.1602 -2.32671e-08 0)
(2.1602 -4.22535e-09 0)
(2.1602 1.43977e-08 0)
(2.1602 1.87101e-08 0)
(2.1602 2.11193e-08 0)
(2.1602 3.13008e-08 0)
(2.1602 4.1743e-08 0)
(2.1602 5.6289e-08 0)
(2.1602 8.3267e-08 0)
(2.1602 1.01352e-07 0)
(2.1602 9.39878e-08 0)
(2.1602 7.39513e-08 0)
(2.1602 5.18739e-08 0)
(2.1602 2.87604e-08 0)
(2.1602 6.18421e-09 0)
(2.1602 -4.47587e-09 0)
(2.1602 -1.35559e-09 0)
(2.1602 -6.12249e-09 0)
(2.1602 -5.55891e-08 0)
(2.1602 -9.56559e-08 0)
(2.1602 -1.32754e-07 0)
(2.1602 -1.99328e-07 0)
(2.1602 -1.96407e-07 0)
(2.1602 -1.57148e-07 0)
(2.1602 -2.06165e-07 0)
(2.1602 -2.41489e-07 0)
(2.28341 8.63856e-07 0)
(2.2834 8.8634e-07 0)
(2.2834 1.00478e-06 0)
(2.2834 1.18271e-06 0)
(2.2834 1.29214e-06 0)
(2.2834 1.37698e-06 0)
(2.2834 1.38625e-06 0)
(2.2834 1.40154e-06 0)
(2.2834 1.36961e-06 0)
(2.2834 1.33826e-06 0)
(2.2834 1.29536e-06 0)
(2.2834 1.2255e-06 0)
(2.2834 1.14981e-06 0)
(2.2834 1.04815e-06 0)
(2.2834 9.19145e-07 0)
(2.2834 7.95568e-07 0)
(2.2834 6.88423e-07 0)
(2.2834 5.8836e-07 0)
(2.2834 4.87194e-07 0)
(2.2834 3.96529e-07 0)
(2.2834 3.10353e-07 0)
(2.2834 2.01378e-07 0)
(2.2834 8.86218e-08 0)
(2.2834 1.6632e-08 0)
(2.2834 -1.65889e-08 0)
(2.2834 -3.93461e-08 0)
(2.2834 -5.74472e-08 0)
(2.2834 -5.95956e-08 0)
(2.2834 -5.09403e-08 0)
(2.2834 -5.27913e-08 0)
(2.2834 -6.04318e-08 0)
(2.2834 -5.54295e-08 0)
(2.2834 -4.81245e-08 0)
(2.2834 -5.32524e-08 0)
(2.2834 -5.93055e-08 0)
(2.2834 -5.22821e-08 0)
(2.2834 -3.42585e-08 0)
(2.2834 -1.07721e-08 0)
(2.2834 2.06855e-08 0)
(2.2834 6.18642e-08 0)
(2.2834 9.2998e-08 0)
(2.2834 9.10365e-08 0)
(2.2834 7.16918e-08 0)
(2.2834 6.43388e-08 0)
(2.2834 6.89849e-08 0)
(2.2834 7.30927e-08 0)
(2.2834 8.14331e-08 0)
(2.2834 9.71865e-08 0)
(2.2834 9.93599e-08 0)
(2.2834 7.19516e-08 0)
(2.2834 3.66704e-08 0)
(2.2834 2.10963e-08 0)
(2.2834 1.35351e-08 0)
(2.2834 -6.97731e-09 0)
(2.2834 -2.95537e-08 0)
(2.2834 -4.16916e-08 0)
(2.2834 -5.6777e-08 0)
(2.2834 -7.95298e-08 0)
(2.2834 -9.11225e-08 0)
(2.2834 -8.36421e-08 0)
(2.2834 -7.84388e-08 0)
(2.2834 -8.72167e-08 0)
(2.2834 -8.98876e-08 0)
(2.2834 -7.66641e-08 0)
(2.2834 -6.83554e-08 0)
(2.2834 -7.44114e-08 0)
(2.2834 -7.44372e-08 0)
(2.2834 -5.63207e-08 0)
(2.2834 -3.68739e-08 0)
(2.2834 -2.6991e-08 0)
(2.2834 -1.74369e-08 0)
(2.2834 -1.08126e-08 0)
(2.2834 -2.59988e-08 0)
(2.2834 -6.14498e-08 0)
(2.2834 -9.13637e-08 0)
(2.2834 -1.07772e-07 0)
(2.2834 -1.29285e-07 0)
(2.2834 -1.59994e-07 0)
(2.2834 -1.74834e-07 0)
(2.2834 -1.64115e-07 0)
(2.2834 -1.49343e-07 0)
(2.2834 -1.4473e-07 0)
(2.2834 -1.41434e-07 0)
(2.2834 -1.38017e-07 0)
(2.2834 -1.45938e-07 0)
(2.2834 -1.55905e-07 0)
(2.2834 -1.40679e-07 0)
(2.2834 -1.0204e-07 0)
(2.2834 -7.05497e-08 0)
(2.2834 -5.18945e-08 0)
(2.2834 -2.32022e-08 0)
(2.2834 1.26034e-08 0)
(2.2834 3.31075e-08 0)
(2.2834 4.29651e-08 0)
(2.2834 6.1591e-08 0)
(2.2834 8.36029e-08 0)
(2.2834 9.71733e-08 0)
(2.2834 1.14499e-07 0)
(2.2834 1.48718e-07 0)
(2.2834 1.81506e-07 0)
(2.2834 1.9508e-07 0)
(2.2834 2.02072e-07 0)
(2.2834 2.15971e-07 0)
(2.2834 2.25838e-07 0)
(2.2834 2.21355e-07 0)
(2.2834 2.07483e-07 0)
(2.2834 1.90941e-07 0)
(2.2834 1.73066e-07 0)
(2.2834 1.54385e-07 0)
(2.2834 1.38179e-07 0)
(2.2834 1.26303e-07 0)
(2.2834 1.11339e-07 0)
(2.2834 8.37793e-08 0)
(2.2834 5.1253e-08 0)
(2.2834 3.09128e-08 0)
(2.2834 1.93225e-08 0)
(2.2834 6.32656e-11 0)
(2.2834 -2.31236e-08 0)
(2.2834 -3.23681e-08 0)
(2.2834 -2.94747e-08 0)
(2.2834 -2.8056e-08 0)
(2.2834 -2.3277e-08 0)
(2.2834 -8.91911e-09 0)
(2.2834 -1.18567e-10 0)
(2.2834 -6.21719e-09 0)
(2.2834 -7.70702e-09 0)
(2.2834 4.79233e-09 0)
(2.2834 1.0304e-08 0)
(2.2834 2.19301e-09 0)
(2.2834 4.1117e-10 0)
(2.2834 1.21256e-08 0)
(2.2834 2.7706e-08 0)
(2.2834 4.0496e-08 0)
(2.2834 3.56998e-08 0)
(2.2834 1.08294e-08 0)
(2.2834 -7.57603e-09 0)
(2.2834 -1.03044e-08 0)
(2.2834 -1.39986e-08 0)
(2.2834 -2.71637e-08 0)
(2.2834 -4.51904e-08 0)
(2.2834 -6.28034e-08 0)
(2.2834 -8.07567e-08 0)
(2.2834 -1.011e-07 0)
(2.2834 -1.11184e-07 0)
(2.2834 -1.03406e-07 0)
(2.2834 -1.69215e-07 0)
(2.2834 -1.8178e-07 0)
(2.2834 -1.77809e-07 0)
(2.2834 -2.15109e-07 0)
(2.2834 -2.3926e-07 0)
(2.32446 1.12041e-06 0)
(2.32446 1.24257e-06 0)
(2.32446 1.45725e-06 0)
(2.32446 1.69959e-06 0)
(2.32446 1.87607e-06 0)
(2.32446 1.91213e-06 0)
(2.32446 1.9001e-06 0)
(2.32446 1.91977e-06 0)
(2.32446 1.88858e-06 0)
(2.32446 1.862e-06 0)
(2.32446 1.77285e-06 0)
(2.32446 1.61858e-06 0)
(2.32446 1.44441e-06 0)
(2.32446 1.28087e-06 0)
(2.32446 1.12893e-06 0)
(2.32446 9.80644e-07 0)
(2.32446 8.39277e-07 0)
(2.32446 7.11626e-07 0)
(2.32446 5.84875e-07 0)
(2.32446 4.63295e-07 0)
(2.32446 3.73638e-07 0)
(2.32446 3.02997e-07 0)
(2.32446 2.25681e-07 0)
(2.32446 1.57031e-07 0)
(2.32446 1.13601e-07 0)
(2.32446 7.45336e-08 0)
(2.32446 1.78407e-08 0)
(2.32446 -3.74356e-08 0)
(2.32446 -6.30509e-08 0)
(2.32446 -7.25866e-08 0)
(2.32446 -8.24277e-08 0)
(2.32446 -7.43339e-08 0)
(2.32446 -4.553e-08 0)
(2.32446 -2.73301e-08 0)
(2.32446 -2.8024e-08 0)
(2.32446 -2.26253e-08 0)
(2.32446 3.53966e-09 0)
(2.32446 3.45459e-08 0)
(2.32446 4.64211e-08 0)
(2.32446 4.39394e-08 0)
(2.32446 4.20302e-08 0)
(2.32446 3.85149e-08 0)
(2.32446 3.20981e-08 0)
(2.32446 3.65781e-08 0)
(2.32446 5.05624e-08 0)
(2.32446 5.11906e-08 0)
(2.32446 3.20596e-08 0)
(2.32446 1.72007e-08 0)
(2.32446 2.14631e-08 0)
(2.32446 2.4928e-08 0)
(2.32446 1.33943e-08 0)
(2.32446 5.76127e-09 0)
(2.32446 1.07145e-08 0)
(2.32446 6.90029e-09 0)
(2.32446 -1.3138e-08 0)
(2.32446 -2.9228e-08 0)
(2.32446 -3.47101e-08 0)
(2.32446 -4.42368e-08 0)
(2.32446 -5.2598e-08 0)
(2.32446 -4.04332e-08 0)
(2.32446 -1.58788e-08 0)
(2.32446 -1.08611e-08 0)
(2.32446 -2.52716e-08 0)
(2.32446 -2.94528e-08 0)
(2.32446 -1.72295e-08 0)
(2.32446 -1.09022e-08 0)
(2.32446 -1.616e-08 0)
(2.32446 -1.86271e-08 0)
(2.32446 -1.97798e-08 0)
(2.32446 -3.10887e-08 0)
(2.32446 -4.46275e-08 0)
(2.32446 -4.51973e-08 0)
(2.32446 -4.54639e-08 0)
(2.32446 -6.47919e-08 0)
(2.32446 -9.23536e-08 0)
(2.32446 -1.01345e-07 0)
(2.32446 -9.43337e-08 0)
(2.32446 -9.52269e-08 0)
(2.32446 -1.08091e-07 0)
(2.32446 -1.18514e-07 0)
(2.32446 -1.2516e-07 0)
(2.32446 -1.37742e-07 0)
(2.32446 -1.51065e-07 0)
(2.32446 -1.53721e-07 0)
(2.32446 -1.52706e-07 0)
(2.32446 -1.62371e-07 0)
(2.32446 -1.66647e-07 0)
(2.32446 -1.38718e-07 0)
(2.32446 -9.11675e-08 0)
(2.32446 -5.78176e-08 0)
(2.32446 -3.70835e-08 0)
(2.32446 -7.63799e-09 0)
(2.32446 2.30857e-08 0)
(2.32446 4.17018e-08 0)
(2.32446 6.31655e-08 0)
(2.32446 9.86608e-08 0)
(2.32446 1.30129e-07 0)
(2.32446 1.48697e-07 0)
(2.32446 1.76727e-07 0)
(2.32446 2.19685e-07 0)
(2.32446 2.45899e-07 0)
(2.32446 2.41371e-07 0)
(2.32446 2.27545e-07 0)
(2.32446 2.13335e-07 0)
(2.32446 1.9064e-07 0)
(2.32446 1.63352e-07 0)
(2.32446 1.41201e-07 0)
(2.32446 1.20267e-07 0)
(2.32446 9.61981e-08 0)
(2.32446 7.46388e-08 0)
(2.32446 6.1209e-08 0)
(2.32446 5.18529e-08 0)
(2.32446 3.60312e-08 0)
(2.32446 8.07901e-09 0)
(2.32446 -2.12001e-08 0)
(2.32446 -3.53312e-08 0)
(2.32446 -3.56952e-08 0)
(2.32446 -3.71139e-08 0)
(2.32446 -3.75131e-08 0)
(2.32446 -2.49169e-08 0)
(2.32446 -9.62173e-09 0)
(2.32446 -8.52084e-09 0)
(2.32446 -9.29489e-09 0)
(2.32446 -1.39998e-09 0)
(2.32446 -5.56252e-09 0)
(2.32446 -3.09891e-08 0)
(2.32446 -4.57824e-08 0)
(2.32446 -3.46439e-08 0)
(2.32446 -2.42697e-08 0)
(2.32446 -2.71695e-08 0)
(2.32446 -2.54597e-08 0)
(2.32446 -1.8411e-08 0)
(2.32446 -2.29415e-08 0)
(2.32446 -4.01157e-08 0)
(2.32446 -5.17379e-08 0)
(2.32446 -4.84317e-08 0)
(2.32446 -6.00805e-08 0)
(2.32446 -9.38548e-08 0)
(2.32446 -1.05299e-07 0)
(2.32446 -9.15689e-08 0)
(2.32446 -9.88927e-08 0)
(2.32446 -1.28186e-07 0)
(2.32446 -1.48016e-07 0)