/*--------------------------------*- C++ -*----------------------------------*\
| =========                 |                                                 |
| \\      /  F ield         | OpenFOAM: The Open Source CFD Toolbox           |
|  \\    /   O peration     | Version:  2406                                  |
|   \\  /    A nd           | Website:  www.openfoam.com                      |
|    \\/     M anipulation  |                                                 |
\*---------------------------------------------------------------------------*/
FoamFile
{
    version     2.0;
    format      ascii;
    arch        "LSB;label=32;scalar=64";
    class       volVectorField;
    location    "0.3";
    object      U;
}
// * * * * * * * * * * * * * * * * * * * * * * * * * * * * * * * * * * * * * //

dimensions      [0 1 -1 0 0 0 0];

internalField   nonuniform List<vector> 
2250
(
(0.0243457 -6.42172e-09 0)
(0.0243457 -1.00388e-08 0)
(0.0243458 -4.03751e-09 0)
(0.0243458 -6.22629e-09 0)
(0.0243458 -1.67604e-09 0)
(0.0243458 -3.95418e-10 0)
(0.0243458 -4.0691e-09 0)
(0.0243458 -3.72741e-09 0)
(0.0243458 -1.82922e-10 0)
(0.0243458 2.67738e-09 0)
(0.0243458 1.41206e-09 0)
(0.0243458 -1.40718e-09 0)
(0.0243458 -2.79566e-09 0)
(0.0243458 -2.9274e-09 0)
(0.0243458 -3.16345e-09 0)
(0.0243458 -3.14081e-09 0)
(0.0243458 -1.80099e-09 0)
(0.0243458 -4.94076e-10 0)
(0.0243458 -1.34972e-11 0)
(0.0243458 -1.06913e-09 0)
(0.0243458 -2.83209e-09 0)
(0.0243458 -2.85734e-09 0)
(0.0243458 -4.06347e-10 0)
(0.0243458 2.25556e-09 0)
(0.0243458 2.80376e-09 0)
(0.0243458 1.29455e-09 0)
(0.0243458 -6.75351e-10 0)
(0.0243458 -1.4379e-09 0)
(0.0243458 -1.42778e-10 0)
(0.0243458 2.28176e-09 0)
(0.0243458 3.95003e-09 0)
(0.0243458 4.02631e-09 0)
(0.0243458 2.7834e-09 0)
(0.0243458 1.56596e-09 0)
(0.0243458 1.14102e-09 0)
(0.0243458 9.97941e-10 0)
(0.0243458 2.60034e-10 0)
(0.0243458 -8.44846e-10 0)
(0.0243458 -1.3048e-09 0)
(0.0243458 -4.17256e-10 0)
(0.0243458 1.35646e-09 0)
(0.0243458 2.92827e-09 0)
(0.0243458 3.21047e-09 0)
(0.0243458 2.44233e-09 0)
(0.0243458 1.70644e-09 0)
(0.0243458 1.41137e-09 0)
(0.0243458 1.61962e-09 0)
(0.0243458 1.75524e-09 0)
(0.0243458 1.41912e-09 0)
(0.0243458 9.91231e-10 0)
(0.0243458 9.59995e-10 0)
(0.0243457 1.48686e-09 0)
(0.0243457 2.9826e-09 0)
(0.0243457 4.97276e-09 0)
(0.0243457 6.16066e-09 0)
(0.0243457 5.48389e-09 0)
(0.0243457 3.34706e-09 0)
(0.0243457 1.33345e-09 0)
(0.0243457 6.85795e-10 0)
(0.0243457 1.00053e-09 0)
(0.0243457 5.97172e-10 0)
(0.0243457 -1.88419e-09 0)
(0.0243457 -5.27072e-09 0)
(0.0243457 -6.87088e-09 0)
(0.0243457 -5.21451e-09 0)
(0.0243457 -1.52858e-09 0)
(0.0243457 1.22673e-09 0)
(0.0243457 8.21361e-10 0)
(0.0243457 -1.84606e-09 0)
(0.0243457 -4.03046e-09 0)
(0.0243457 -3.8683e-09 0)
(0.0243457 -1.94506e-09 0)
(0.0243457 -3.41705e-10 0)
(0.0243457 -2.37254e-10 0)
(0.0243458 -1.27258e-09 0)
(0.0243458 -2.00542e-09 0)
(0.0243458 -1.9204e-09 0)
(0.0243458 -1.42296e-09 0)
(0.0243458 -1.58621e-09 0)
(0.0243458 -2.4616e-09 0)
(0.0243457 -3.42636e-09 0)
(0.0243457 -3.69324e-09 0)
(0.0243457 -3.42392e-09 0)
(0.0243457 -3.16808e-09 0)
(0.0243457 -2.90304e-09 0)
(0.0243458 -2.25135e-09 0)
(0.0243458 -7.56416e-10 0)
(0.0243458 1.04696e-09 0)
(0.0243458 2.26976e-09 0)
(0.0243458 2.31106e-09 0)
(0.0243458 1.3045e-09 0)
(0.0243458 6.0112e-11 0)
(0.0243458 -9.64719e-10 0)
(0.0243458 -2.30282e-09 0)
(0.0243458 -4.31674e-09 0)
(0.0243458 -6.70028e-09 0)
(0.0243458 -8.13469e-09 0)
(0.0243458 -7.63606e-09 0)
(0.0243458 -5.8522e-09 0)
(0.0243459 -4.37673e-09 0)
(0.0243459 -4.04129e-09 0)
(0.0243459 -4.21228e-09 0)
(0.0243459 -3.35739e-09 0)
(0.0243459 -9.60811e-10 0)
(0.0243459 1.71209e-09 0)
(0.0243459 3.00455e-09 0)
(0.0243459 2.51197e-09 0)
(0.0243459 1.60673e-09 0)
(0.0243459 1.76706e-09 0)
(0.0243459 3.25093e-09 0)
(0.0243459 4.85807e-09 0)
(0.0243459 5.46748e-09 0)
(0.0243459 4.97543e-09 0)
(0.0243459 4.04669e-09 0)
(0.0243459 3.52161e-09 0)
(0.0243458 3.62079e-09 0)
(0.0243458 4.03044e-09 0)
(0.0243458 4.19111e-09 0)
(0.0243458 3.83404e-09 0)
(0.0243458 3.26211e-09 0)
(0.0243458 3.17387e-09 0)
(0.0243458 3.84271e-09 0)
(0.0243458 4.83743e-09 0)
(0.0243458 5.16849e-09 0)
(0.0243458 4.08832e-09 0)
(0.0243458 1.67717e-09 0)
(0.0243458 -8.21843e-10 0)
(0.0243458 -1.92216e-09 0)
(0.0243458 -1.27138e-09 0)
(0.0243458 -1.62104e-10 0)
(0.0243458 -5.70553e-11 0)
(0.0243458 -1.14251e-09 0)
(0.0243458 -2.04498e-09 0)
(0.0243458 -1.61104e-09 0)
(0.0243458 5.93081e-11 0)
(0.0243458 1.72912e-09 0)
(0.0243458 2.00227e-09 0)
(0.0243457 9.58266e-10 0)
(0.0243457 -2.92195e-10 0)
(0.0243457 -1.05625e-09 0)
(0.0243457 -1.16211e-09 0)
(0.0243457 -1.11068e-09 0)
(0.0243457 -8.77893e-10 0)
(0.0243457 4.5417e-10 0)
(0.0243457 2.17645e-09 0)
(0.0243457 3.59427e-09 0)
(0.0243457 5.6352e-09 0)
(0.0243457 7.29832e-09 0)
(0.0243457 9.01211e-09 0)
(0.0243456 7.64989e-09 0)
(0.066284 -1.89192e-08 0)
(0.066284 -2.59131e-08 0)
(0.066284 -2.06267e-08 0)
(0.066284 -2.05227e-08 0)
(0.0662841 -1.76943e-08 0)
(0.0662841 -1.42436e-08 0)
(0.0662841 -1.299e-08 0)
(0.0662841 -6.5342e-09 0)
(0.0662841 -2.57525e-09 0)
(0.0662841 -2.84381e-09 0)
(0.0662841 -6.99895e-09 0)
(0.0662841 -7.28788e-09 0)
(0.0662841 -3.74579e-09 0)
(0.0662841 -3.41907e-09 0)
(0.0662841 -6.79896e-09 0)
(0.0662841 -9.50383e-09 0)
(0.0662841 -8.07313e-09 0)
(0.0662841 -4.53116e-09 0)
(0.0662841 -2.43774e-09 0)
(0.0662841 -4.77252e-09 0)
(0.0662841 -9.59882e-09 0)
(0.0662841 -1.13273e-08 0)
(0.0662841 -7.94914e-09 0)
(0.0662841 -3.1021e-09 0)
(0.0662841 -9.94297e-10 0)
(0.0662841 -1.73629e-09 0)
(0.0662841 -3.32057e-09 0)
(0.0662841 -3.61737e-09 0)
(0.0662841 -1.25418e-09 0)
(0.0662841 2.43455e-09 0)
(0.0662841 4.83028e-09 0)
(0.0662841 4.24134e-09 0)
(0.0662841 1.10682e-09 0)
(0.0662841 -1.89208e-09 0)
(0.0662841 -2.8225e-09 0)
(0.0662841 -2.4673e-09 0)
(0.0662841 -2.88752e-09 0)
(0.0662841 -4.29901e-09 0)
(0.0662841 -4.74509e-09 0)
(0.0662842 -2.69188e-09 0)
(0.0662842 1.3213e-09 0)
(0.0662842 5.34091e-09 0)
(0.0662842 7.14296e-09 0)
(0.0662842 6.93439e-09 0)
(0.0662841 6.48578e-09 0)
(0.0662841 7.24766e-09 0)
(0.0662841 9.15377e-09 0)
(0.0662841 1.09627e-08 0)
(0.0662841 1.19466e-08 0)
(0.0662841 1.27166e-08 0)
(0.0662841 1.40454e-08 0)
(0.066284 1.57262e-08 0)
(0.066284 1.75467e-08 0)
(0.066284 1.9473e-08 0)
(0.066284 2.09219e-08 0)
(0.066284 2.08691e-08 0)
(0.066284 1.8369e-08 0)
(0.066284 1.32466e-08 0)
(0.066284 6.79903e-09 0)
(0.066284 9.3616e-10 0)
(0.066284 -3.98038e-09 0)
(0.066284 -8.87886e-09 0)
(0.066284 -1.37199e-08 0)
(0.066284 -1.69062e-08 0)
(0.066284 -1.65536e-08 0)
(0.066284 -1.27244e-08 0)
(0.066284 -8.2765e-09 0)
(0.0662841 -6.78687e-09 0)
(0.0662841 -8.92043e-09 0)
(0.0662841 -1.18851e-08 0)
(0.0662841 -1.18884e-08 0)
(0.0662841 -7.62602e-09 0)
(0.0662841 -1.34475e-09 0)
(0.0662841 3.21371e-09 0)
(0.0662841 4.08972e-09 0)
(0.0662841 2.08527e-09 0)
(0.0662841 -5.27239e-10 0)
(0.0662841 -1.97371e-09 0)
(0.0662841 -2.55189e-09 0)
(0.0662841 -3.08361e-09 0)
(0.0662841 -3.85717e-09 0)
(0.0662841 -4.31577e-09 0)
(0.0662841 -4.06545e-09 0)
(0.066284 -3.15373e-09 0)
(0.066284 -1.51929e-09 0)
(0.066284 1.07663e-09 0)
(0.066284 4.60643e-09 0)
(0.066284 7.9736e-09 0)
(0.066284 9.68806e-09 0)
(0.066284 8.50482e-09 0)
(0.066284 4.64458e-09 0)
(0.066284 -4.11966e-10 0)
(0.066284 -5.17483e-09 0)
(0.066284 -9.20176e-09 0)
(0.0662841 -1.32466e-08 0)
(0.0662841 -1.78406e-08 0)
(0.0662841 -2.19051e-08 0)
(0.0662841 -2.37309e-08 0)
(0.0662842 -2.27651e-08 0)
(0.0662842 -2.04714e-08 0)
(0.0662842 -1.86666e-08 0)
(0.0662842 -1.76359e-08 0)
(0.0662842 -1.55634e-08 0)
(0.0662843 -1.08504e-08 0)
(0.0662843 -4.18226e-09 0)
(0.0662843 1.9368e-09 0)
(0.0662843 5.63555e-09 0)
(0.0662843 7.5223e-09 0)
(0.0662843 9.71966e-09 0)
(0.0662843 1.33957e-08 0)
(0.0662842 1.74886e-08 0)
(0.0662842 1.98753e-08 0)
(0.0662842 1.97744e-08 0)
(0.0662842 1.79028e-08 0)
(0.0662842 1.56223e-08 0)
(0.0662842 1.38851e-08 0)
(0.0662842 1.291e-08 0)
(0.0662841 1.24245e-08 0)
(0.0662841 1.20736e-08 0)
(0.0662841 1.16492e-08 0)
(0.0662841 1.11388e-08 0)
(0.0662841 1.04592e-08 0)
(0.0662841 9.40721e-09 0)
(0.0662841 7.60106e-09 0)
(0.0662841 4.46894e-09 0)
(0.0662841 -3.46597e-10 0)
(0.066284 -5.74194e-09 0)
(0.066284 -9.48296e-09 0)
(0.066284 -9.936e-09 0)
(0.066284 -7.74438e-09 0)
(0.066284 -4.99956e-09 0)
(0.066284 -3.66981e-09 0)
(0.066284 -3.75589e-09 0)
(0.066284 -3.9163e-09 0)
(0.066284 -2.82397e-09 0)
(0.066284 -9.66805e-10 0)
(0.066284 -4.01267e-10 0)
(0.066284 -1.47034e-09 0)
(0.066284 -2.9211e-09 0)
(0.066284 -4.05039e-09 0)
(0.066284 -3.85673e-09 0)
(0.066284 -1.71952e-09 0)
(0.066284 2.35304e-09 0)
(0.066284 8.34625e-09 0)
(0.066284 1.4394e-08 0)
(0.0662839 1.98485e-08 0)
(0.0662839 2.6445e-08 0)
(0.0662839 3.0001e-08 0)
(0.0662839 3.0075e-08 0)
(0.0662838 2.82275e-08 0)
(0.101569 -2.85445e-08 0)
(0.101569 -3.70509e-08 0)
(0.101569 -4.47913e-08 0)
(0.101569 -3.66119e-08 0)
(0.101569 -3.4851e-08 0)
(0.101569 -2.50457e-08 0)
(0.101569 -1.38802e-08 0)
(0.101569 -5.96557e-09 0)
(0.101569 -7.06257e-09 0)
(0.101569 -1.03518e-08 0)
(0.101569 -1.09226e-08 0)
(0.101569 -7.66364e-09 0)
(0.101569 -3.59345e-09 0)
(0.101569 -2.26684e-09 0)
(0.101569 -4.40536e-09 0)
(0.101569 -7.41068e-09 0)
(0.101569 -1.0071e-08 0)
(0.101569 -1.15589e-08 0)
(0.101569 -1.30226e-08 0)
(0.101569 -1.52994e-08 0)
(0.101569 -1.65167e-08 0)
(0.101569 -1.62302e-08 0)
(0.101569 -1.51464e-08 0)
(0.101569 -1.35546e-08 0)
(0.101569 -1.2167e-08 0)
(0.101569 -1.06751e-08 0)
(0.101569 -9.08112e-09 0)
(0.101569 -8.21442e-09 0)
(0.101569 -8.42239e-09 0)
(0.101569 -9.21092e-09 0)
(0.101569 -9.87017e-09 0)
(0.101569 -1.03764e-08 0)
(0.101569 -1.08718e-08 0)
(0.101569 -1.14242e-08 0)
(0.101569 -1.18453e-08 0)
(0.101569 -1.19506e-08 0)
(0.101569 -1.16747e-08 0)
(0.101569 -1.0679e-08 0)
(0.101569 -8.30302e-09 0)
(0.101569 -4.46817e-09 0)
(0.101569 7.14969e-10 0)
(0.101569 6.2603e-09 0)
(0.101569 1.10019e-08 0)
(0.101569 1.46857e-08 0)
(0.101569 1.83057e-08 0)
(0.101569 2.28819e-08 0)
(0.101569 2.78535e-08 0)
(0.101569 3.19786e-08 0)
(0.101569 3.47226e-08 0)
(0.101569 3.69208e-08 0)
(0.101569 3.9526e-08 0)
(0.101569 4.18989e-08 0)
(0.101569 4.2389e-08 0)
(0.101569 4.09972e-08 0)
(0.101569 3.90953e-08 0)
(0.101569 3.7498e-08 0)
(0.101569 3.4598e-08 0)
(0.101569 2.69974e-08 0)
(0.101569 1.32794e-08 0)
(0.101569 -3.25805e-09 0)
(0.101569 -1.70703e-08 0)
(0.101569 -2.46738e-08 0)
(0.101569 -2.75637e-08 0)
(0.101569 -2.97629e-08 0)
(0.101569 -3.33867e-08 0)
(0.101569 -3.67925e-08 0)
(0.101569 -3.70927e-08 0)
(0.101569 -3.3365e-08 0)
(0.101569 -2.76394e-08 0)
(0.101569 -2.24241e-08 0)
(0.101569 -1.80193e-08 0)
(0.101569 -1.26382e-08 0)
(0.101569 -5.15348e-09 0)
(0.101569 2.67092e-09 0)
(0.101569 7.7878e-09 0)
(0.101569 8.52792e-09 0)
(0.101569 6.64127e-09 0)
(0.101569 5.27926e-09 0)
(0.101569 6.323e-09 0)
(0.101569 8.79302e-09 0)
(0.101569 1.08611e-08 0)
(0.101569 1.17134e-08 0)
(0.101569 1.21099e-08 0)
(0.101569 1.32349e-08 0)
(0.101569 1.52623e-08 0)
(0.101569 1.75543e-08 0)
(0.101569 1.88958e-08 0)
(0.101569 1.85409e-08 0)
(0.101569 1.61812e-08 0)
(0.101569 1.15633e-08 0)
(0.101569 4.60437e-09 0)
(0.101569 -4.27977e-09 0)
(0.101569 -1.35734e-08 0)
(0.101569 -2.15291e-08 0)
(0.101569 -2.77743e-08 0)
(0.101569 -3.33277e-08 0)
(0.101569 -3.93951e-08 0)
(0.101569 -4.55211e-08 0)
(0.101569 -4.95843e-08 0)
(0.101569 -4.94483e-08 0)
(0.101569 -4.51351e-08 0)
(0.101569 -3.86194e-08 0)
(0.101569 -3.17442e-08 0)
(0.101569 -2.44813e-08 0)
(0.101569 -1.56572e-08 0)
(0.101569 -5.27455e-09 0)
(0.101569 5.25814e-09 0)
(0.101569 1.4049e-08 0)
(0.101569 2.06896e-08 0)
(0.101569 2.5857e-08 0)
(0.101569 3.02112e-08 0)
(0.101569 3.35928e-08 0)
(0.101569 3.53949e-08 0)
(0.101569 3.5285e-08 0)
(0.101569 3.33577e-08 0)
(0.101569 3.0419e-08 0)
(0.101569 2.74101e-08 0)
(0.101569 2.52275e-08 0)
(0.101569 2.42154e-08 0)
(0.101569 2.37976e-08 0)
(0.101569 2.25389e-08 0)
(0.101569 1.90966e-08 0)
(0.101569 1.33873e-08 0)
(0.101569 6.95166e-09 0)
(0.101569 1.46763e-09 0)
(0.101569 -2.72238e-09 0)
(0.101569 -6.5399e-09 0)
(0.101569 -1.03266e-08 0)
(0.101569 -1.33044e-08 0)
(0.101569 -1.41766e-08 0)
(0.101569 -1.26872e-08 0)
(0.101569 -1.01988e-08 0)
(0.101569 -8.98752e-09 0)
(0.101569 -1.0218e-08 0)
(0.101569 -1.24701e-08 0)
(0.101569 -1.31113e-08 0)
(0.101569 -1.14465e-08 0)
(0.101569 -8.7617e-09 0)
(0.101569 -6.27874e-09 0)
(0.101569 -4.57855e-09 0)
(0.101569 -2.32165e-09 0)
(0.101569 3.51073e-09 0)
(0.101569 1.26818e-08 0)
(0.101569 2.26974e-08 0)
(0.101569 3.2158e-08 0)
(0.101569 4.15499e-08 0)
(0.101569 5.06222e-08 0)
(0.101569 5.62107e-08 0)
(0.101569 5.46621e-08 0)
(0.101569 5.28031e-08 0)
(0.130295 -2.79521e-08 0)
(0.130295 -3.87683e-08 0)
(0.130295 -4.57614e-08 0)
(0.130295 -3.76846e-08 0)
(0.130295 -2.72407e-08 0)
(0.130295 -1.66749e-08 0)
(0.130295 -1.3369e-08 0)
(0.130295 -1.08431e-08 0)
(0.130295 -7.96828e-09 0)
(0.130295 -5.58432e-09 0)
(0.130295 -3.17636e-09 0)
(0.130295 -4.16743e-09 0)
(0.130295 -6.10312e-09 0)
(0.130295 -4.43175e-09 0)
(0.130295 -1.66622e-09 0)
(0.130295 -1.8245e-09 0)
(0.130295 -7.06107e-09 0)
(0.130295 -1.44347e-08 0)
(0.130295 -1.97221e-08 0)
(0.130295 -2.05689e-08 0)
(0.130295 -1.76306e-08 0)
(0.130295 -1.5368e-08 0)
(0.130295 -1.5822e-08 0)
(0.130295 -1.69708e-08 0)
(0.130295 -1.68276e-08 0)
(0.130295 -1.53486e-08 0)
(0.130295 -1.42401e-08 0)
(0.130295 -1.567e-08 0)
(0.130295 -1.96763e-08 0)
(0.130295 -2.36533e-08 0)
(0.130295 -2.51359e-08 0)
(0.130295 -2.39623e-08 0)
(0.130295 -2.22169e-08 0)
(0.130295 -2.21969e-08 0)
(0.130295 -2.41743e-08 0)
(0.130295 -2.60453e-08 0)
(0.130295 -2.5378e-08 0)
(0.130295 -2.15933e-08 0)
(0.130295 -1.59355e-08 0)
(0.130295 -9.75432e-09 0)
(0.130295 -3.45223e-09 0)
(0.130295 3.80972e-09 0)
(0.130295 1.27355e-08 0)
(0.130295 2.23109e-08 0)
(0.130295 3.14966e-08 0)
(0.130295 3.97447e-08 0)
(0.130295 4.69083e-08 0)
(0.130295 5.26621e-08 0)
(0.130295 5.65291e-08 0)
(0.130295 5.85511e-08 0)
(0.130295 5.97314e-08 0)
(0.130295 6.06553e-08 0)
(0.130295 6.05256e-08 0)
(0.130295 5.80999e-08 0)
(0.130295 5.28176e-08 0)
(0.130295 4.49458e-08 0)
(0.130295 3.52913e-08 0)
(0.130295 2.37207e-08 0)
(0.130295 9.11303e-09 0)
(0.130295 -8.39664e-09 0)
(0.130295 -2.60515e-08 0)
(0.130295 -4.0064e-08 0)
(0.130295 -4.85446e-08 0)
(0.130295 -5.28807e-08 0)
(0.130295 -5.59874e-08 0)
(0.130295 -5.89367e-08 0)
(0.130295 -5.99217e-08 0)
(0.130295 -5.63414e-08 0)
(0.130295 -4.74175e-08 0)
(0.130295 -3.52023e-08 0)
(0.130295 -2.30855e-08 0)
(0.130295 -1.31593e-08 0)
(0.130295 -5.4825e-09 0)
(0.130295 9.89799e-10 0)
(0.130295 6.97632e-09 0)
(0.130295 1.2293e-08 0)
(0.130295 1.68404e-08 0)
(0.130295 2.09154e-08 0)
(0.130295 2.48361e-08 0)
(0.130295 2.85507e-08 0)
(0.130295 3.15638e-08 0)
(0.130295 3.3877e-08 0)
(0.130295 3.58232e-08 0)
(0.130295 3.74874e-08 0)
(0.130295 3.82226e-08 0)
(0.130295 3.70571e-08 0)
(0.130295 3.34852e-08 0)
(0.130295 2.77488e-08 0)
(0.130295 2.04135e-08 0)
(0.130295 1.1893e-08 0)
(0.130295 1.90284e-09 0)
(0.130295 -9.67356e-09 0)
(0.130295 -2.20138e-08 0)
(0.130295 -3.3603e-08 0)
(0.130295 -4.32458e-08 0)
(0.130295 -5.14317e-08 0)
(0.130295 -5.93084e-08 0)
(0.130295 -6.68573e-08 0)
(0.130295 -7.23285e-08 0)
(0.130295 -7.29194e-08 0)
(0.130295 -6.72017e-08 0)
(0.130295 -5.6538e-08 0)
(0.130295 -4.42815e-08 0)
(0.130295 -3.27087e-08 0)
(0.130295 -2.16102e-08 0)
(0.130295 -9.53416e-09 0)
(0.130295 3.47972e-09 0)
(0.130295 1.59598e-08 0)
(0.130295 2.63142e-08 0)
(0.130295 3.42191e-08 0)
(0.130295 4.0271e-08 0)
(0.130295 4.50776e-08 0)
(0.130295 4.84711e-08 0)
(0.130295 5.00602e-08 0)
(0.130295 4.98406e-08 0)
(0.130295 4.82993e-08 0)
(0.130295 4.59467e-08 0)
(0.130295 4.29149e-08 0)
(0.130295 3.92169e-08 0)
(0.130295 3.50672e-08 0)
(0.130295 3.0736e-08 0)
(0.130295 2.58877e-08 0)
(0.130295 1.96589e-08 0)
(0.130295 1.16985e-08 0)
(0.130295 3.28175e-09 0)
(0.130295 -3.58529e-09 0)
(0.130295 -7.95951e-09 0)
(0.130295 -1.05474e-08 0)
(0.130295 -1.27455e-08 0)
(0.130295 -1.52539e-08 0)
(0.130295 -1.77023e-08 0)
(0.130295 -1.92367e-08 0)
(0.130295 -1.93365e-08 0)
(0.130295 -1.87145e-08 0)
(0.130295 -1.87099e-08 0)
(0.130295 -1.89946e-08 0)
(0.130295 -1.76936e-08 0)
(0.130295 -1.40681e-08 0)
(0.130295 -8.84387e-09 0)
(0.130295 -3.60355e-09 0)
(0.130295 1.49756e-09 0)
(0.130295 9.05424e-09 0)
(0.130295 1.99176e-08 0)
(0.130295 3.22662e-08 0)
(0.130295 4.66571e-08 0)
(0.130295 5.97028e-08 0)
(0.130295 6.89881e-08 0)
(0.130295 7.55651e-08 0)
(0.130294 7.44209e-08 0)
(0.130295 6.94576e-08 0)
(0.152544 -2.18397e-08 0)
(0.152543 -2.57645e-08 0)
(0.152543 -2.16659e-08 0)
(0.152543 -1.78056e-08 0)
(0.152543 -1.23378e-08 0)
(0.152543 -8.82253e-09 0)
(0.152543 -8.82141e-09 0)
(0.152543 -5.22459e-09 0)
(0.152543 -1.22471e-09 0)
(0.152543 -1.79311e-09 0)
(0.152543 -2.39234e-09 0)
(0.152543 -2.99305e-09 0)
(0.152543 -3.0944e-09 0)
(0.152543 -2.7992e-09 0)
(0.152543 -3.05986e-09 0)
(0.152543 -5.07136e-09 0)
(0.152543 -8.3219e-09 0)
(0.152543 -1.15556e-08 0)
(0.152543 -1.43509e-08 0)
(0.152543 -1.59815e-08 0)
(0.152543 -1.52014e-08 0)
(0.152543 -1.29038e-08 0)
(0.152543 -1.15763e-08 0)
(0.152543 -1.23281e-08 0)
(0.152543 -1.49669e-08 0)
(0.152543 -1.86169e-08 0)
(0.152543 -2.1996e-08 0)
(0.152543 -2.52025e-08 0)
(0.152543 -2.86854e-08 0)
(0.152543 -3.20973e-08 0)
(0.152543 -3.48564e-08 0)
(0.152543 -3.67879e-08 0)
(0.152543 -3.82225e-08 0)
(0.152543 -3.95603e-08 0)
(0.152543 -4.09486e-08 0)
(0.152543 -4.16061e-08 0)
(0.152543 -3.98011e-08 0)
(0.152543 -3.43343e-08 0)
(0.152543 -2.55246e-08 0)
(0.152543 -1.51388e-08 0)
(0.152543 -5.30996e-09 0)
(0.152543 4.28135e-09 0)
(0.152543 1.4942e-08 0)
(0.152543 2.74595e-08 0)
(0.152543 4.02999e-08 0)
(0.152543 5.14132e-08 0)
(0.152543 5.98101e-08 0)
(0.152543 6.61992e-08 0)
(0.152543 7.16617e-08 0)
(0.152543 7.60037e-08 0)
(0.152543 7.83059e-08 0)
(0.152543 7.80497e-08 0)
(0.152543 7.49722e-08 0)
(0.152543 6.88687e-08 0)
(0.152543 5.95092e-08 0)
(0.152543 4.67315e-08 0)
(0.152543 3.11894e-08 0)
(0.152543 1.46511e-08 0)
(0.152543 -1.60665e-09 0)
(0.152543 -1.74375e-08 0)
(0.152543 -3.31817e-08 0)
(0.152543 -4.84839e-08 0)
(0.152543 -6.15745e-08 0)
(0.152543 -7.04251e-08 0)
(0.152543 -7.43475e-08 0)
(0.152543 -7.42677e-08 0)
(0.152543 -7.14282e-08 0)
(0.152543 -6.63104e-08 0)
(0.152543 -5.83981e-08 0)
(0.152543 -4.73913e-08 0)
(0.152543 -3.4364e-08 0)
(0.152543 -2.14965e-08 0)
(0.152543 -1.05113e-08 0)
(0.152543 -1.42857e-09 0)
(0.152543 6.63179e-09 0)
(0.152543 1.49686e-08 0)
(0.152543 2.40959e-08 0)
(0.152543 3.33585e-08 0)
(0.152543 4.17356e-08 0)
(0.152543 4.83247e-08 0)
(0.152543 5.28672e-08 0)
(0.152543 5.56386e-08 0)
(0.152543 5.72484e-08 0)
(0.152543 5.79891e-08 0)
(0.152543 5.73731e-08 0)
(0.152543 5.42161e-08 0)
(0.152543 4.76737e-08 0)
(0.152543 3.77714e-08 0)
(0.152543 2.55153e-08 0)
(0.152543 1.22638e-08 0)
(0.152543 -1.23043e-09 0)
(0.152543 -1.50455e-08 0)
(0.152543 -2.9524e-08 0)
(0.152543 -4.41902e-08 0)
(0.152543 -5.77108e-08 0)
(0.152543 -6.88415e-08 0)
(0.152543 -7.70429e-08 0)
(0.152543 -8.25068e-08 0)
(0.152543 -8.5104e-08 0)
(0.152543 -8.41083e-08 0)
(0.152543 -7.83985e-08 0)
(0.152543 -6.78394e-08 0)
(0.152543 -5.41169e-08 0)
(0.152543 -3.99094e-08 0)
(0.152543 -2.66935e-08 0)
(0.152543 -1.38907e-08 0)
(0.152543 -4.62289e-10 0)
(0.152543 1.35098e-08 0)
(0.152543 2.68308e-08 0)
(0.152543 3.79722e-08 0)
(0.152543 4.65551e-08 0)
(0.152543 5.29681e-08 0)
(0.152543 5.77838e-08 0)
(0.152543 6.09643e-08 0)
(0.152543 6.21892e-08 0)
(0.152543 6.14387e-08 0)
(0.152543 5.9296e-08 0)
(0.152543 5.61317e-08 0)
(0.152543 5.16825e-08 0)
(0.152543 4.56706e-08 0)
(0.152543 3.86366e-08 0)
(0.152543 3.1658e-08 0)
(0.152543 2.5063e-08 0)
(0.152543 1.80217e-08 0)
(0.152543 9.88652e-09 0)
(0.152543 1.41479e-09 0)
(0.152543 -5.7201e-09 0)
(0.152543 -1.04289e-08 0)
(0.152543 -1.30603e-08 0)
(0.152543 -1.52245e-08 0)
(0.152543 -1.8227e-08 0)
(0.152543 -2.19582e-08 0)
(0.152543 -2.44381e-08 0)
(0.152543 -2.39108e-08 0)
(0.152543 -2.16138e-08 0)
(0.152543 -1.99859e-08 0)
(0.152543 -1.91639e-08 0)
(0.152543 -1.76087e-08 0)
(0.152543 -1.37925e-08 0)
(0.152543 -6.68568e-09 0)
(0.152543 3.09161e-09 0)
(0.152543 1.48229e-08 0)
(0.152543 2.79672e-08 0)
(0.152543 4.15162e-08 0)
(0.152543 5.71759e-08 0)
(0.152543 7.13283e-08 0)
(0.152543 8.00502e-08 0)
(0.152543 8.48016e-08 0)
(0.152543 8.22188e-08 0)
(0.152543 7.48471e-08 0)
(0.168384 4.02636e-09 0)
(0.168384 1.57871e-09 0)
(0.168384 8.78891e-09 0)
(0.168384 7.81133e-09 0)
(0.168384 7.23758e-09 0)
(0.168384 7.65031e-09 0)
(0.168384 1.06082e-08 0)
(0.168384 1.31772e-08 0)
(0.168384 1.25084e-08 0)
(0.168384 8.60055e-09 0)
(0.168384 3.86624e-09 0)
(0.168384 1.76746e-09 0)
(0.168384 2.66182e-09 0)
(0.168384 3.53724e-09 0)
(0.168384 7.37812e-10 0)
(0.168383 -3.95457e-09 0)
(0.168383 -7.06187e-09 0)
(0.168383 -8.64793e-09 0)
(0.168383 -1.04275e-08 0)
(0.168383 -1.32872e-08 0)
(0.168383 -1.51772e-08 0)
(0.168383 -1.40953e-08 0)
(0.168383 -1.18358e-08 0)
(0.168383 -1.18883e-08 0)
(0.168383 -1.64144e-08 0)
(0.168383 -2.40133e-08 0)
(0.168383 -3.13065e-08 0)
(0.168383 -3.61745e-08 0)
(0.168383 -3.87932e-08 0)
(0.168383 -4.06799e-08 0)
(0.168383 -4.3322e-08 0)
(0.168383 -4.69764e-08 0)
(0.168383 -5.05047e-08 0)
(0.168383 -5.24247e-08 0)
(0.168383 -5.21595e-08 0)
(0.168384 -4.99584e-08 0)
(0.168384 -4.55516e-08 0)
(0.168384 -3.83507e-08 0)
(0.168384 -2.84519e-08 0)
(0.168384 -1.68758e-08 0)
(0.168384 -4.70413e-09 0)
(0.168384 7.17651e-09 0)
(0.168384 1.98952e-08 0)
(0.168384 3.43942e-08 0)
(0.168384 4.97485e-08 0)
(0.168384 6.36481e-08 0)
(0.168384 7.44107e-08 0)
(0.168383 8.24482e-08 0)
(0.168383 8.95428e-08 0)
(0.168383 9.60055e-08 0)
(0.168383 9.96972e-08 0)
(0.168383 9.82406e-08 0)
(0.168383 9.09655e-08 0)
(0.168383 7.89836e-08 0)
(0.168383 6.40779e-08 0)
(0.168383 4.69911e-08 0)
(0.168383 2.73699e-08 0)
(0.168383 5.96266e-09 0)
(0.168383 -1.50086e-08 0)
(0.168383 -3.31217e-08 0)
(0.168383 -4.75597e-08 0)
(0.168383 -5.96284e-08 0)
(0.168383 -7.08279e-08 0)
(0.168383 -8.06906e-08 0)
(0.168383 -8.72377e-08 0)
(0.168383 -8.89262e-08 0)
(0.168384 -8.59434e-08 0)
(0.168384 -7.98318e-08 0)
(0.168384 -7.19071e-08 0)
(0.168384 -6.20779e-08 0)
(0.168384 -4.96151e-08 0)
(0.168384 -3.46052e-08 0)
(0.168384 -1.82338e-08 0)
(0.168384 -2.19674e-09 0)
(0.168384 1.24094e-08 0)
(0.168384 2.59427e-08 0)
(0.168384 3.85868e-08 0)
(0.168384 5.0076e-08 0)
(0.168384 5.97175e-08 0)
(0.168384 6.66758e-08 0)
(0.168384 7.0884e-08 0)
(0.168383 7.29166e-08 0)
(0.168383 7.33735e-08 0)
(0.168383 7.25096e-08 0)
(0.168383 7.00936e-08 0)
(0.168383 6.54908e-08 0)
(0.168383 5.79524e-08 0)
(0.168383 4.70714e-08 0)
(0.168383 3.30294e-08 0)
(0.168383 1.67045e-08 0)
(0.168383 -6.34524e-10 0)
(0.168383 -1.80337e-08 0)
(0.168383 -3.49668e-08 0)
(0.168383 -5.12972e-08 0)
(0.168383 -6.6603e-08 0)
(0.168383 -7.97634e-08 0)
(0.168383 -8.95253e-08 0)
(0.168383 -9.50577e-08 0)
(0.168384 -9.62692e-08 0)
(0.168384 -9.36698e-08 0)
(0.168384 -8.78201e-08 0)
(0.168384 -7.90111e-08 0)
(0.168384 -6.74065e-08 0)
(0.168384 -5.36674e-08 0)
(0.168384 -3.87193e-08 0)
(0.168384 -2.3104e-08 0)
(0.168384 -6.59549e-09 0)
(0.168384 1.0985e-08 0)
(0.168384 2.82913e-08 0)
(0.168384 4.38275e-08 0)
(0.168384 5.63903e-08 0)
(0.168384 6.55702e-08 0)
(0.168384 7.1551e-08 0)
(0.168384 7.46042e-08 0)
(0.168384 7.48736e-08 0)
(0.168384 7.27976e-08 0)
(0.168384 6.93621e-08 0)
(0.168384 6.55271e-08 0)
(0.168384 6.12993e-08 0)
(0.168384 5.5664e-08 0)
(0.168384 4.78773e-08 0)
(0.168383 3.84892e-08 0)
(0.168383 2.87848e-08 0)
(0.168383 1.97354e-08 0)
(0.168383 1.13949e-08 0)
(0.168383 3.28947e-09 0)
(0.168383 -5.27195e-09 0)
(0.168383 -1.36315e-08 0)
(0.168383 -2.05464e-08 0)
(0.168383 -2.54302e-08 0)
(0.168383 -2.8661e-08 0)
(0.168383 -3.09654e-08 0)
(0.168383 -3.2551e-08 0)
(0.168383 -3.24549e-08 0)
(0.168383 -2.99516e-08 0)
(0.168383 -2.56486e-08 0)
(0.168383 -2.08272e-08 0)
(0.168383 -1.70235e-08 0)
(0.168383 -1.38365e-08 0)
(0.168383 -7.19888e-09 0)
(0.168383 4.85226e-09 0)
(0.168383 2.02424e-08 0)
(0.168383 3.50205e-08 0)
(0.168383 4.80531e-08 0)
(0.168383 5.95573e-08 0)
(0.168383 6.87678e-08 0)
(0.168383 7.66765e-08 0)
(0.168383 7.87474e-08 0)
(0.168383 7.55634e-08 0)
(0.168384 7.07248e-08 0)
(0.177867 3.76384e-08 0)
(0.177867 3.61637e-08 0)
(0.177867 3.81748e-08 0)
(0.177867 3.73027e-08 0)
(0.177867 3.79829e-08 0)
(0.177867 3.46411e-08 0)
(0.177867 3.2615e-08 0)
(0.177867 2.99533e-08 0)
(0.177867 2.59482e-08 0)
(0.177867 2.11268e-08 0)
(0.177867 1.44041e-08 0)
(0.177867 9.45447e-09 0)
(0.177867 6.46028e-09 0)
(0.177867 3.84449e-09 0)
(0.177867 -9.24018e-10 0)
(0.177867 -6.50044e-09 0)
(0.177867 -1.06644e-08 0)
(0.177867 -1.32645e-08 0)
(0.177867 -1.41163e-08 0)
(0.177867 -1.49759e-08 0)
(0.177867 -1.69098e-08 0)
(0.177867 -1.82644e-08 0)
(0.177867 -1.81617e-08 0)
(0.177867 -1.79211e-08 0)
(0.177867 -1.97107e-08 0)
(0.177867 -2.48378e-08 0)
(0.177867 -3.24106e-08 0)
(0.177867 -3.99057e-08 0)
(0.177867 -4.51646e-08 0)
(0.177867 -4.79899e-08 0)
(0.177867 -4.99458e-08 0)
(0.177867 -5.23492e-08 0)
(0.177867 -5.48408e-08 0)
(0.177866 -5.58218e-08 0)
(0.177867 -5.38564e-08 0)
(0.177867 -4.90354e-08 0)
(0.177867 -4.2618e-08 0)
(0.177867 -3.57097e-08 0)
(0.177867 -2.84458e-08 0)
(0.177867 -1.94677e-08 0)
(0.177867 -7.34016e-09 0)
(0.177867 7.77339e-09 0)
(0.177867 2.46607e-08 0)
(0.177867 4.17922e-08 0)
(0.177867 5.85933e-08 0)
(0.177867 7.48403e-08 0)
(0.177867 8.98884e-08 0)
(0.177867 1.02282e-07 0)
(0.177867 1.10854e-07 0)
(0.177866 1.14939e-07 0)
(0.177866 1.13814e-07 0)
(0.177866 1.07163e-07 0)
(0.177866 9.56135e-08 0)
(0.177866 8.02492e-08 0)
(0.177866 6.2557e-08 0)
(0.177866 4.3473e-08 0)
(0.177866 2.32263e-08 0)
(0.177866 1.80629e-09 0)
(0.177866 -1.99599e-08 0)
(0.177866 -4.04586e-08 0)
(0.177866 -5.79919e-08 0)
(0.177866 -7.19035e-08 0)
(0.177867 -8.28392e-08 0)
(0.177867 -9.14183e-08 0)
(0.177867 -9.73481e-08 0)
(0.177867 -9.97524e-08 0)
(0.177867 -9.79043e-08 0)
(0.177867 -9.17725e-08 0)
(0.177867 -8.19766e-08 0)
(0.177867 -6.9185e-08 0)
(0.177867 -5.39791e-08 0)
(0.177867 -3.70089e-08 0)
(0.177867 -1.89647e-08 0)
(0.177867 -6.59003e-10 0)
(0.177867 1.74169e-08 0)
(0.177867 3.47281e-08 0)
(0.177867 4.99564e-08 0)
(0.177867 6.22107e-08 0)
(0.177867 7.10016e-08 0)
(0.177867 7.69426e-08 0)
(0.177867 8.10484e-08 0)
(0.177867 8.40962e-08 0)
(0.177867 8.57863e-08 0)
(0.177867 8.50338e-08 0)
(0.177867 8.10977e-08 0)
(0.177867 7.42974e-08 0)
(0.177867 6.52008e-08 0)
(0.177867 5.35982e-08 0)
(0.177867 3.86664e-08 0)
(0.177867 2.01373e-08 0)
(0.177867 -5.87274e-10 0)
(0.177867 -2.09225e-08 0)
(0.177867 -3.88203e-08 0)
(0.177867 -5.43468e-08 0)
(0.177867 -6.90197e-08 0)
(0.177867 -8.35204e-08 0)
(0.177867 -9.63742e-08 0)
(0.177867 -1.04715e-07 0)
(0.177867 -1.06804e-07 0)
(0.177867 -1.03149e-07 0)
(0.177867 -9.57788e-08 0)
(0.177867 -8.62394e-08 0)
(0.177867 -7.4516e-08 0)
(0.177867 -5.95726e-08 0)
(0.177867 -4.14237e-08 0)
(0.177867 -2.16528e-08 0)
(0.177867 -1.89732e-09 0)
(0.177867 1.71728e-08 0)
(0.177867 3.53348e-08 0)
(0.177867 5.22447e-08 0)
(0.177867 6.66349e-08 0)
(0.177867 7.71347e-08 0)
(0.177867 8.31025e-08 0)
(0.177867 8.52689e-08 0)
(0.177867 8.48955e-08 0)
(0.177867 8.26311e-08 0)
(0.177867 7.84128e-08 0)
(0.177867 7.22365e-08 0)
(0.177867 6.46895e-08 0)
(0.177867 5.64073e-08 0)
(0.177867 4.74206e-08 0)
(0.177867 3.74087e-08 0)
(0.177867 2.64273e-08 0)
(0.177867 1.50444e-08 0)
(0.177867 4.17141e-09 0)
(0.177867 -5.85834e-09 0)
(0.177867 -1.55195e-08 0)
(0.177867 -2.50132e-08 0)
(0.177867 -3.35846e-08 0)
(0.177867 -4.0077e-08 0)
(0.177867 -4.35724e-08 0)
(0.177867 -4.41139e-08 0)
(0.177867 -4.29727e-08 0)
(0.177867 -4.08925e-08 0)
(0.177867 -3.68148e-08 0)
(0.177867 -2.97645e-08 0)
(0.177867 -2.06875e-08 0)
(0.177867 -1.22905e-08 0)
(0.177867 -5.97116e-09 0)
(0.177867 6.45231e-10 0)
(0.177867 1.01235e-08 0)
(0.177867 2.05879e-08 0)
(0.177867 3.01612e-08 0)
(0.177867 3.93737e-08 0)
(0.177867 4.86238e-08 0)
(0.177867 5.57592e-08 0)
(0.177867 6.24887e-08 0)
(0.177867 6.27281e-08 0)
(0.177867 6.16951e-08 0)
(0.177867 5.92363e-08 0)
(0.181024 6.53245e-08 0)
(0.181024 7.06203e-08 0)
(0.181024 6.99694e-08 0)
(0.181024 7.02333e-08 0)
(0.181024 6.69752e-08 0)
(0.181024 5.90842e-08 0)
(0.181024 5.11581e-08 0)
(0.181024 4.30321e-08 0)
(0.181024 3.69338e-08 0)
(0.181024 3.09458e-08 0)
(0.181024 2.30188e-08 0)
(0.181024 1.38864e-08 0)
(0.181024 4.55642e-09 0)
(0.181024 -3.52071e-09 0)
(0.181024 -9.74366e-09 0)
(0.181024 -1.37946e-08 0)
(0.181024 -1.64387e-08 0)
(0.181024 -1.83708e-08 0)
(0.181024 -1.8803e-08 0)
(0.181024 -1.77408e-08 0)
(0.181024 -1.69127e-08 0)
(0.181024 -1.73485e-08 0)
(0.181024 -1.91409e-08 0)
(0.181024 -2.14349e-08 0)
(0.181024 -2.36649e-08 0)
(0.181024 -2.66342e-08 0)
(0.181024 -3.10059e-08 0)
(0.181024 -3.65529e-08 0)
(0.181024 -4.26274e-08 0)
(0.181024 -4.84447e-08 0)
(0.181024 -5.32428e-08 0)
(0.181024 -5.6219e-08 0)
(0.181024 -5.72255e-08 0)
(0.181024 -5.66995e-08 0)
(0.181024 -5.47303e-08 0)
(0.181024 -5.11748e-08 0)
(0.181024 -4.61005e-08 0)
(0.181024 -3.95412e-08 0)
(0.181024 -3.1168e-08 0)
(0.181024 -2.0326e-08 0)
(0.181024 -6.47967e-09 0)
(0.181024 1.0166e-08 0)
(0.181024 2.78145e-08 0)
(0.181024 4.52879e-08 0)
(0.181024 6.23107e-08 0)
(0.181024 7.9225e-08 0)
(0.181024 9.60077e-08 0)
(0.181024 1.10805e-07 0)
(0.181024 1.20554e-07 0)
(0.181024 1.23374e-07 0)
(0.181024 1.1917e-07 0)
(0.181024 1.09389e-07 0)
(0.181024 9.59892e-08 0)
(0.181024 8.04377e-08 0)
(0.181024 6.34159e-08 0)
(0.181024 4.52663e-08 0)
(0.181024 2.62573e-08 0)
(0.181024 6.5393e-09 0)
(0.181024 -1.38261e-08 0)
(0.181024 -3.43604e-08 0)
(0.181024 -5.38118e-08 0)
(0.181024 -7.0371e-08 0)
(0.181024 -8.29183e-08 0)
(0.181024 -9.1572e-08 0)
(0.181024 -9.69193e-08 0)
(0.181024 -9.92789e-08 0)
(0.181024 -9.82336e-08 0)
(0.181024 -9.29535e-08 0)
(0.181024 -8.31434e-08 0)
(0.181024 -6.96448e-08 0)
(0.181024 -5.39579e-08 0)
(0.181024 -3.74925e-08 0)
(0.181024 -2.1019e-08 0)
(0.181024 -4.6004e-09 0)
(0.181024 1.19392e-08 0)
(0.181024 2.82261e-08 0)
(0.181024 4.38976e-08 0)
(0.181024 5.78837e-08 0)
(0.181024 6.9502e-08 0)
(0.181024 7.85194e-08 0)
(0.181024 8.50554e-08 0)
(0.181024 8.92696e-08 0)
(0.181024 9.12561e-08 0)
(0.181024 9.07613e-08 0)