/*--------------------------------*- C++ -*----------------------------------*\
| =========                 |                                                 |
| \\      /  F ield         | OpenFOAM: The Open Source CFD Toolbox           |
|  \\    /   O peration     | Version:  2406                                  |
|   \\  /    A nd           | Website:  www.openfoam.com                      |
|    \\/     M anipulation  |                                                 |
\*---------------------------------------------------------------------------*/
FoamFile
{
    version     2.0;
    format      ascii;
    arch        "LSB;label=32;scalar=64";
    class       surfaceScalarField;
    location    "0.4";
    object      alphaPhi0.air;
}
// * * * * * * * * * * * * * * * * * * * * * * * * * * * * * * * * * * * * * //

dimensions      [0 3 -1 0 0 0 0];

oriented        oriented;

internalField   nonuniform List<scalar> 
12225
(
0.413748
8.36178e-07
0.413743
5.08299e-06
0.413736
6.75244e-06
0.413731
5.11152e-06
0.413727
4.10129e-06
0.413722
4.81471e-06
0.413718
4.7653e-06
0.413713
4.64062e-06
0.413708
5.07702e-06
0.413703
5.15708e-06
0.413697
5.72963e-06
0.413691
6.1523e-06
0.413685
5.97747e-06
0.41368
5.28029e-06
0.413675
4.42883e-06
0.413671
4.07741e-06
0.413667
4.27219e-06
0.413662
4.34416e-06
0.413658
4.23947e-06
0.413654
4.4377e-06
0.413649
4.75723e-06
0.413644
4.84789e-06
0.413639
4.96921e-06
0.413634
5.34955e-06
0.413628
5.40881e-06
0.413623
5.07643e-06
0.413618
5.11478e-06
0.413613
5.60794e-06
0.413606
6.12875e-06
0.4136
6.49815e-06
0.413594
6.39109e-06
0.413588
5.72484e-06
0.413583
5.01741e-06
0.413578
4.76299e-06
0.413573
5.00929e-06
0.413568
5.29359e-06
0.413562
5.40238e-06
0.413557
5.73256e-06
0.41355
6.28344e-06
0.413544
6.40094e-06
0.413538
5.84849e-06
0.413533
5.16429e-06
0.413528
4.97287e-06
0.413523
5.31127e-06
0.413517
5.78699e-06
0.413511
6.0013e-06
0.413505
5.781e-06
0.4135
5.3192e-06
0.413495
4.99444e-06
0.41349
5.05892e-06
0.413484
5.39191e-06
0.413479
5.77329e-06
0.413472
6.13151e-06
0.413466
6.42006e-06
0.41346
6.41694e-06
0.413454
5.95477e-06
0.413448
5.27286e-06
0.413444
4.82055e-06
0.413439
4.79916e-06
0.413434
4.9488e-06
0.413429
4.9799e-06
0.413424
4.87207e-06
0.413419
4.71234e-06
0.413415
4.46212e-06
0.413411
4.04132e-06
0.413407
3.52077e-06
0.413404
3.0868e-06
0.413401
2.83995e-06
0.413399
2.70611e-06
0.413396
2.56757e-06
0.413394
2.36063e-06
0.413392
2.08536e-06
0.41339
1.80108e-06
0.413388
1.59639e-06
0.413387
1.50416e-06
0.413385
1.44357e-06
0.413384
1.29788e-06
0.413383
1.0528e-06
0.413382
8.25261e-07
0.413381
7.31829e-07
0.413381
7.50395e-07
0.41338
7.50827e-07
0.413379
6.4634e-07
0.413379
4.89752e-07
0.413378
4.12954e-07
0.413378
4.69214e-07
0.413377
5.62535e-07
0.413377
5.65521e-07
0.413376
4.5668e-07
0.413376
3.28379e-07
0.413376
2.69431e-07
0.413375
2.88832e-07
0.413375
3.30751e-07
0.413375
3.36006e-07
0.413374
3.01083e-07
0.413374
2.5395e-07
0.413374
2.00895e-07
0.413374
1.33454e-07
0.413374
1.05789e-07
0.413374
1.44671e-07
0.413373
2.1662e-07
0.413373
2.61551e-07
0.413373
2.37122e-07
0.413373
1.3574e-07
0.413373
2.41601e-08
0.413373
-3.41684e-08
0.413373
-1.73828e-08
0.413373
4.92566e-08
0.413373
1.23893e-07
0.413372
1.48499e-07
0.413372
9.03017e-08
0.413372
-2.47497e-08
0.413372
-1.37939e-07
0.413373
-1.82963e-07
0.413373
-1.28945e-07
0.413373
-1.82004e-08
0.413373
5.37115e-08
0.413373
2.16938e-08
0.413373
-1.30892e-07
0.413373
-3.36803e-07
0.413374
-4.92329e-07
0.413374
-5.42074e-07
0.413375
-5.07859e-07
0.413375
-4.64943e-07
0.413376
-4.79767e-07
0.413376
-5.57091e-07
0.413377
-6.43989e-07
0.413378
-6.79811e-07
0.413378
-6.4917e-07
0.413379
-5.84994e-07
0.413379
-5.3486e-07
0.41338
-5.25008e-07
0.41338
-5.48222e-07
0.413381
-5.75386e-07
0.413382
-5.70861e-07
0.413382
-5.09772e-07
0.413382
-3.97054e-07
0.413383
-2.91902e-07
0.413383
-2.88322e-07
0.413383
-4.4411e-07
0.413384
-7.17094e-07
0.413385
-9.81015e-07
0.413386
-1.12506e-06
0.413387
-1.15692e-06
0.413389
-1.19163e-06
0.41339
-1.33545e-06
0.413392
-1.58487e-06
0.413393
-1.83559e-06
0.413395
-1.97649e-06
0.413397
-1.97256e-06
0.413399
-1.86778e-06
0.413401
-1.71868e-06
0.413402
-1.55426e-06
0.413404
-1.37203e-06
0.413405
-1.17861e-06
0.413406
-1.0049e-06
0.413407
-8.82761e-07
0.413408
-8.10833e-07
0.413408
-7.5048e-07
0.413409
-6.63823e-07
0.41341
-5.26866e-07
0.41341
-3.59083e-07
0.41341
-2.04737e-07
0.41341
-1.06058e-07
0.41341
-8.24221e-08
0.413411
-1.34231e-07
0.413411
-2.37122e-07
0.413411
-3.41263e-07
0.413412
-4.04654e-07
0.413412
-3.94954e-07
0.413412
-3.06204e-07
0.413412
-1.70643e-07
0.413412
-5.10282e-08
0.413412
-2.04218e-08
0.413413
-1.01847e-07
0.413413
-2.28722e-07
0.413413
-3.02984e-07
0.413413
-2.72076e-07
0.413414
-1.53911e-07
0.413414
4.60455e-09
0.413413
1.70127e-07
0.413413
3.48399e-07
0.413412
5.39883e-07
0.413412
7.00526e-07
0.413411
7.62668e-07
0.41341
7.00724e-07
0.41341
5.65651e-07
0.413409
4.37823e-07
0.413409
3.73135e-07
0.413409
3.70819e-07
0.413408
3.98802e-07
0.413408
4.36782e-07
0.413407
4.84627e-07
0.413407
5.3182e-07
0.413406
5.4262e-07
0.413406
4.89488e-07
0.413405
3.81739e-07
0.413405
2.74768e-07
0.413405
2.21237e-07
0.413405
2.30841e-07
0.413404
2.49791e-07
0.413404
2.33662e-07
0.413404
1.9781e-07
0.413404
1.91088e-07
0.413403
2.49789e-07
0.413403
3.50073e-07
0.413403
4.18794e-07
0.413402
3.95568e-07
0.413402
2.84426e-07
0.413402
1.54411e-07
0.413402
7.85369e-08
0.413402
8.01494e-08
0.413402
1.19443e-07
0.413401
1.21789e-07
0.413401
1.03046e-07
0.413401
8.56639e-08
0.413401
1.03262e-07
0.413401
1.56491e-07
0.413401
2.13637e-07
0.413401
2.3815e-07
0.4134
2.14421e-07
0.4134
1.54821e-07
0.4134
8.62945e-08
0.4134
2.04846e-08
0.4134
-4.12518e-08
0.4134
-9.76193e-08
0.4134
-1.27294e-07
0.4134
-1.27915e-07
0.413401
-1.04475e-07
0.413401
-7.075e-08
0.413401
-4.88572e-08
0.413401
-1.74023e-08
0.413401
4.67472e-08
0.413401
1.44253e-07
0.4134
2.22602e-07
0.4134
2.30976e-07
0.4134
1.63647e-07
0.4134
6.54464e-08
0.4134
-1.0524e-08
0.4134
-3.35667e-08
0.4134
-5.36881e-08
0.4134
-9.85061e-08
0.4134
-1.77741e-07
0.4134
-2.55456e-07
0.413401
-2.8607e-07
0.413401
-2.58348e-07
0.413401
-2.0293e-07
0.413401
-1.49363e-07
0.413402
-1.75788e-07
-9.77528e-08
0.413751
6.17693e-07
0.413755
1.12609e-06
0.41376
1.7464e-06
0.413763
2.31692e-06
0.413764
2.24541e-06
0.413767
2.27572e-06
0.413769
2.58834e-06
0.413771
2.84226e-06
0.413773
3.06419e-06
0.413775
3.00648e-06
0.413778
2.38784e-06
0.413783
1.90202e-06
0.413787
1.97719e-06
0.41379
2.21405e-06
0.413792
2.18388e-06
0.413794
1.83437e-06
0.413797
1.56885e-06
0.4138
1.77454e-06
0.413802
2.03147e-06
0.413804
1.99619e-06
0.413807
2.17546e-06
0.413809
2.70002e-06
0.413811
3.0096e-06
0.413813
3.14054e-06
0.413815
3.35113e-06
0.413817
3.4634e-06
0.413819
3.02286e-06
0.413822
2.19198e-06
0.413827
1.42073e-06
0.413832
1.09711e-06
0.413837
1.48982e-06
0.413841
1.90929e-06
0.413844
1.90362e-06
0.413847
1.85522e-06
0.41385
2.18061e-06
0.413852
2.76322e-06
0.413855
3.0898e-06
0.413857
3.02122e-06
0.413861
3.0226e-06
0.413864
3.36202e-06
0.413866
3.58276e-06
0.413868
3.17398e-06
0.413871
2.34281e-06
0.413874
1.71773e-06
0.413879
1.47741e-06
0.413883
1.52302e-06
0.413887
1.78527e-06
0.41389
2.16115e-06
0.413893
2.41953e-06
0.413895
2.45988e-06
0.413898
2.46047e-06
0.413902
2.52338e-06
0.413905
2.5291e-06
0.413909
2.4569e-06
0.413913
2.55115e-06
0.413916
2.90748e-06
0.413918
3.19451e-06
0.41392
3.05752e-06
0.413922
2.55263e-06
0.413925
2.03699e-06
0.413928
1.71958e-06
0.413932
1.58533e-06
0.413935
1.64114e-06
0.413937
1.94157e-06
0.413939
2.37671e-06
0.41394
2.65404e-06
0.41394
2.58502e-06
0.413941
2.30058e-06
0.413941
2.0967e-06
0.413942
2.11672e-06
0.413942
2.25426e-06
0.413942
2.31503e-06
0.413941
2.21701e-06
0.413941
2.05012e-06
0.41394
1.95923e-06
0.41394
1.99499e-06
0.413939
2.09188e-06
0.413938
2.17268e-06
0.413937
2.2344e-06
0.413935
2.31494e-06
0.413933
2.41593e-06
0.413932
2.49524e-06
0.41393
2.5232e-06
0.413928
2.52107e-06
0.413925
2.53339e-06
0.413923
2.57304e-06
0.413921
2.60562e-06
0.413919
2.5942e-06
0.413917
2.55604e-06
0.413915
2.5567e-06
0.413913
2.62632e-06
0.41391
2.69965e-06
0.413908
2.66471e-06
0.413906
2.49172e-06
0.413904
2.29439e-06
0.413902
2.21635e-06
0.4139
2.27274e-06
0.413897
2.33692e-06
0.413895
2.29113e-06
0.413893
2.15108e-06
0.413891
2.03784e-06
0.41389
2.04331e-06
0.413888
2.14072e-06
0.413886
2.22267e-06
0.413884
2.22447e-06
0.413881
2.17606e-06
0.413879
2.14968e-06
0.413877
2.18231e-06
0.413875
2.25234e-06
0.413873
2.31175e-06
0.41387
2.33816e-06
0.413868
2.34607e-06
0.413866
2.35878e-06
0.413863
2.38285e-06
0.41386
2.40275e-06
0.413858
2.39325e-06
0.413856
2.33535e-06
0.413854
2.22683e-06
0.413851
2.07845e-06
0.413849
1.92086e-06
0.413847
1.79114e-06
0.413845
1.70946e-06
0.413842
1.66609e-06
0.41384
1.62506e-06
0.413838
1.54937e-06
0.413836
1.43314e-06
0.413834
1.31306e-06
0.413832
1.24403e-06
0.413831
1.24808e-06
0.413829
1.29671e-06
0.413827
1.33674e-06
0.413825
1.3376e-06
0.413823
1.31336e-06
0.413821
1.2955e-06
0.413819
1.29419e-06
0.413818
1.27884e-06
0.413816
1.23237e-06
0.413814
1.1457e-06
0.413813
1.01292e-06
0.413812
8.08673e-07
0.413811
5.10507e-07
0.41381
1.39607e-07
0.413809
-2.09163e-07
0.413808
-4.45228e-07
0.413807
-5.53947e-07
0.413807
-6.03978e-07
0.413806
-6.83547e-07
0.413805
-8.09443e-07
0.413804
-9.09442e-07
0.413803
-8.96772e-07
0.413801
-7.52228e-07
0.4138
-5.40943e-07
0.413799
-3.57638e-07
0.413798
-2.56772e-07
0.413797
-2.43421e-07
0.413796
-2.87254e-07
0.413796
-3.43134e-07
0.413795
-3.7037e-07
0.413795
-3.45696e-07
0.413794
-2.76708e-07
0.413794
-1.84423e-07
0.413794
-1.04109e-07
0.413794
-5.15733e-08
0.413794
-4.83673e-08
0.413794
-1.01124e-07
0.413794
-1.75584e-07
0.413794
-2.51266e-07
0.413794
-3.12869e-07
0.413794
-3.57381e-07
0.413794
-3.96583e-07
0.413794
-4.35769e-07
0.413794
-4.62185e-07
0.413794
-4.61695e-07
0.413795
-4.53544e-07
0.413795
-4.85299e-07
0.413796
-5.85514e-07
0.413796
-7.15463e-07
0.413797
-7.83534e-07
0.413797
-7.27356e-07
0.413798
-5.77278e-07
0.413798
-4.21517e-07
0.413799
-3.23188e-07
0.4138
-2.84185e-07
0.413801
-2.56896e-07
0.413802
-2.0701e-07
0.413803
-1.52202e-07
0.413803
-1.31319e-07
0.413804
-1.53477e-07
0.413804
-1.79413e-07
0.413805
-1.69478e-07
0.413806
-1.24002e-07
0.413806
-7.74784e-08
0.413807
-4.43433e-08
0.413807
-8.07458e-09
0.413808
2.77919e-08
0.413808
5.1844e-08
0.413808
6.20565e-09
0.413809
-1.06037e-07
0.413809
-2.40547e-07
0.41381
-3.1849e-07
0.41381
-3.04187e-07
0.413811
-2.36027e-07
0.413811
-1.94362e-07
0.413812
-2.16149e-07
0.413812
-2.67496e-07
0.413813
-2.75486e-07
0.413813
-2.10959e-07
0.413814
-1.07393e-07
0.413814
-4.50926e-08
0.413814
-6.20701e-08
0.413815
-1.23063e-07
0.413815
-1.64017e-07
0.413815
-1.3243e-07
0.413815
-4.25512e-08
0.413815
7.13255e-08
0.413815
1.64858e-07
0.413815
2.47138e-07
0.413815
3.42085e-07
0.413815
4.65357e-07
0.413814
6.07651e-07
0.413814
7.43131e-07
0.413813
8.53145e-07
0.413812
9.37307e-07
0.413811
1.00186e-06
0.41381
1.04934e-06
0.413809
1.08392e-06
0.413808
1.12019e-06
0.413806
1.17702e-06
0.413805
1.27403e-06
0.413804
1.40904e-06
0.413802
1.54825e-06
0.4138
1.66006e-06
0.413799
1.73782e-06
0.413797
1.80659e-06
0.413795
1.89193e-06
0.413794
1.98087e-06
0.413792
2.02656e-06
0.41379
1.99371e-06
0.413788
1.89768e-06
0.413786
1.79605e-06
0.413784
1.72841e-06
0.413782
1.69414e-06
0.413781
1.65436e-06
0.413779
1.57769e-06
0.413777
1.47276e-06
0.413775
1.36988e-06
0.413774
1.29546e-06
0.413773
1.22079e-06
0.413771
1.18365e-06
1.00755e-06
0.413751
7.1893e-07
0.413751
1.63841e-06
0.41375
1.91603e-06
0.41375
2.32205e-06
0.413751
1.42182e-06
0.413752
1.48005e-06
0.413753
1.78953e-06
0.413754
1.44206e-06
0.413756
1.58746e-06
0.413757
1.98672e-06
0.413757
2.41144e-06
0.413756
2.75765e-06
0.413755
3.03038e-06
0.413754
3.03541e-06
0.413753
3.05257e-06
0.413752
3.18826e-06
0.41375
3.03176e-06
0.413749
2.79323e-06
0.413749
2.77634e-06
0.413748
2.68704e-06
0.413748
2.39279e-06
0.413748
2.1251e-06
0.413749
1.86113e-06
0.413751
1.78917e-06
0.413752
1.94635e-06
0.413753
2.14765e-06
0.413754
2.51438e-06
0.413753
2.77689e-06
0.413752
2.56015e-06
0.413751
2.07076e-06
0.413751
1.84118e-06
0.413751
2.13293e-06
0.41375
2.46961e-06
0.41375
2.32054e-06
0.41375
2.0504e-06
0.41375
2.0809e-06
0.413751
2.16403e-06
0.413752
1.9279e-06
0.413754
1.53013e-06
0.413756
1.41564e-06
0.413758
1.77967e-06
0.413759
2.37752e-06
0.413758
2.80347e-06
0.413757
2.8681e-06
0.413756
2.63777e-06
0.413755
2.3062e-06
0.413755
2.08302e-06
0.413755
2.07529e-06
0.413755
2.17291e-06
0.413755
2.19682e-06
0.413756
2.14139e-06
0.413756
2.07828e-06
0.413757
1.95214e-06
0.413757
1.6936e-06
0.413758
1.48673e-06
0.41376
1.62106e-06
0.413761
2.08612e-06
0.413761
2.55208e-06
0.413761
2.76603e-06
0.41376
2.78468e-06
0.413759
2.75774e-06
0.413758
2.69585e-06
0.413757
2.55602e-06
0.413757
2.3974e-06
0.413757
2.3172e-06
0.413757
2.30478e-06
0.413758
2.26697e-06
0.413758
2.17185e-06
0.413758
2.07801e-06
0.413758
2.04203e-06
0.413758
2.06974e-06
0.413758
2.14003e-06
0.413758
2.21495e-06
0.413758
2.23867e-06
0.413758
2.16718e-06
0.413758
2.01069e-06
0.413758
1.83194e-06
0.413758
1.69448e-06
0.413759
1.60945e-06
0.41376
1.53064e-06
0.413761
1.40993e-06
0.413762
1.25764e-06
0.413764
1.13875e-06
0.413765
1.1012e-06
0.413766
1.11582e-06
0.413768
1.11032e-06
0.413769
1.05391e-06
0.413771
9.8539e-07
0.413773
9.68416e-07
0.413774
1.03769e-06
0.413776
1.18325e-06
0.413777
1.36311e-06
0.413778
1.52171e-06
0.413779
1.6222e-06
0.413779
1.68325e-06
0.41378
1.76984e-06
0.41378
1.92446e-06
0.413781
2.10421e-06
0.413781
2.20659e-06
0.413781
2.16565e-06
0.413781
2.01146e-06
0.413781
1.83906e-06
0.413781
1.72348e-06
0.413782
1.66602e-06
0.413782
1.62031e-06
0.413783
1.55303e-06
0.413784
1.46794e-06
0.413785
1.38396e-06
0.413785
1.30768e-06
0.413787
1.23838e-06
0.413788
1.19409e-06
0.413789
1.2128e-06
0.41379
1.31435e-06
0.413791
1.46334e-06
0.413792
1.58163e-06
0.413792
1.60265e-06
0.413793
1.52187e-06
0.413794
1.40147e-06
0.413795
1.32021e-06
0.413795
1.31506e-06
0.413796
1.35738e-06
0.413796
1.37584e-06
0.413797
1.30883e-06
0.413797
1.14107e-06
0.413798
9.04868e-07
0.413798
6.53982e-07
0.413799
4.29019e-07
0.4138
2.51013e-07
0.413801
1.07865e-07
0.413803
-2.10531e-08
0.413804
-1.50987e-07
0.413806
-2.74269e-07
0.413808
-3.42479e-07
0.413809
-2.97395e-07
0.413811
-1.00184e-07
0.413812
1.65959e-07
0.413812
4.52287e-07
0.413813
6.83119e-07
0.413813
8.59993e-07
0.413813
1.01779e-06
0.413812
1.16294e-06
0.413811
1.25979e-06
0.41381
1.27052e-06
0.413808
1.20734e-06
0.413806
1.12769e-06
0.413805
1.08114e-06
0.413803
1.05461e-06
0.413801
9.9633e-07
0.413799
8.88568e-07
0.413798
7.72503e-07
0.413796
7.02466e-07
0.413795
6.87564e-07
0.413794
6.83185e-07
0.413793
6.33124e-07
0.413792
5.12486e-07
0.413792
3.43781e-07
0.413791
1.74535e-07
0.413791
5.32614e-08
0.41379
1.36865e-08
0.41379
3.55697e-08
0.41379
1.17083e-07
0.413789
1.89025e-07
0.413789
2.11885e-07
0.413789
1.58347e-07
0.413789
3.61314e-08
0.413789
-1.07422e-07
0.413789
-2.36637e-07
0.413789
-3.1587e-07
0.413789
-3.36561e-07
0.413789
-3.27209e-07
0.413788
-3.38397e-07
0.413788
-4.04326e-07
0.413788
-5.10648e-07
0.413789
-6.088e-07
0.413789
-6.66217e-07
0.413789
-6.97378e-07
0.413789
-7.36502e-07
0.413789
-7.85707e-07
0.413789
-8.00445e-07
0.413789
-7.3408e-07
0.413789
-5.93195e-07
0.413789
-4.42255e-07
0.413789
-3.51056e-07
0.41379
-3.36091e-07
0.41379
-3.57786e-07
0.41379
-3.69291e-07
0.41379
-3.59139e-07
0.41379
-3.43089e-07
0.41379
-3.25895e-07
0.413791
-2.8966e-07
0.413791
-2.19671e-07
0.413791
-1.3354e-07
0.413791
-7.06251e-08
0.413791
-5.41839e-08
0.413791
-7.12869e-08
0.413791
-8.84289e-08
0.413791
-1.04989e-07
0.413791
-1.50718e-07
0.413791
-2.51107e-07
0.413791
-3.82009e-07
0.413791
-4.76582e-07
0.413792
-4.80521e-07
0.413792
-4.03715e-07
0.413792
-3.11695e-07
0.413792
-2.67149e-07
0.413792
-2.75533e-07
0.413792
-2.89571e-07
0.413792
-2.5989e-07
0.413792
-1.89662e-07
0.413792
-1.16739e-07
0.413792
-8.10115e-08
0.413792
-8.12303e-08
0.413792
-7.25237e-08
0.413792
-7.74863e-09
0.413792
1.22645e-07
0.413792
2.92619e-07
0.413792
4.72306e-07
0.413792
6.46675e-07
0.413791
8.1944e-07
0.413791
9.97326e-07
0.41379
1.17418e-06
0.41379
1.33216e-06
0.413789
1.45838e-06
0.413789
1.55824e-06
0.413788
1.64871e-06
0.413788
1.74158e-06
0.413787
1.83887e-06
0.413786
1.9416e-06
0.413785
2.06197e-06
0.413784
2.21824e-06
0.413784
2.41148e-06
0.413783
2.61311e-06
0.413782
2.77822e-06
0.413781
2.88019e-06
0.413779
2.93124e-06
0.413779
2.96209e-06
0.413778
2.98582e-06
0.413777
2.98271e-06
0.413776
2.92483e-06
0.413775
2.81418e-06
0.413774
2.68906e-06
0.413773
2.59288e-06
0.413772
2.53573e-06
0.413771
2.48942e-06
0.41377
2.41964e-06
0.413769
2.31339e-06
0.413768
2.18875e-06
0.413767
2.03415e-06
0.413767
1.92281e-06
1.57808e-06
0.41375
-6.24178e-07
0.413752
-1.92325e-07
0.413753
3.15072e-07
0.413754
1.50926e-06
0.413754
2.02923e-06
0.413753
1.89146e-06
0.413753
1.58282e-06
0.413753
1.60171e-06
0.413753
1.79716e-06
0.413753
1.85996e-06
0.413754
1.8602e-06
0.413755
1.49625e-06
0.413757
1.39197e-06
0.413758
1.78622e-06
0.413759
2.15012e-06
0.41376
2.16302e-06
0.413761
2.01e-06
0.413762
1.97573e-06
0.413762
2.12011e-06
0.413763
2.08925e-06
0.413763
1.83343e-06
0.413764
1.89144e-06
0.413763
2.02228e-06
0.413764
1.65471e-06
0.413764
1.3502e-06
0.413765
1.20515e-06
0.413767
1.11156e-06
0.413768
1.61847e-06
0.413768
2.39392e-06
0.413767
2.62419e-06
0.413767
2.51279e-06
0.413766
2.50552e-06
0.413766
2.62204e-06
0.413766
2.58704e-06
0.413766
2.22533e-06
0.413766
1.86133e-06
0.413766
1.94211e-06
0.413766
2.23618e-06
0.413765
2.11343e-06
0.413765
1.58469e-06
0.413766
1.22226e-06
0.413767
1.29322e-06
0.413768
1.54272e-06
0.413769
1.72504e-06
0.41377
1.89626e-06
0.41377
2.04622e-06
0.41377
2.06118e-06
0.41377
1.99888e-06
0.41377
1.98788e-06
0.413771
1.97855e-06
0.413771
1.88022e-06
0.413771
1.79815e-06
0.413771
1.86269e-06
0.413771
1.94246e-06
0.413771
1.8216e-06
0.413771
1.56443e-06
0.413771
1.43446e-06
0.413772
1.5171e-06
0.413774
1.64514e-06
0.413775
1.71032e-06
0.413776
1.80505e-06
0.413776
1.9925e-06
0.413777
2.13817e-06
0.413777
2.08279e-06
0.413777
1.87566e-06
0.413778
1.72963e-06
0.413778
1.78074e-06
0.413779
1.97514e-06
0.413779
2.14994e-06
0.413778
2.18262e-06
0.413778
2.08729e-06
0.413779
1.98749e-06
0.413779
1.9835e-06
0.413779
2.05175e-06
0.413779
2.08806e-06
0.413779
2.03489e-06
0.413779
1.93402e-06
0.413779
1.85742e-06
0.413779
1.82298e-06
0.413778
1.79084e-06
0.413778
1.72986e-06
0.413778
1.66619e-06
0.413777
1.6578e-06
0.413776
1.72715e-06
0.413776
1.82462e-06
0.413775
1.87682e-06
0.413774
1.87024e-06
0.413773
1.86063e-06
0.413772
1.8952e-06
0.413771
1.94769e-06
0.413771
1.9498e-06
0.41377
1.87754e-06
0.41377
1.77774e-06
0.41377
1.70799e-06
0.41377
1.67691e-06
0.41377
1.65576e-06
0.41377
1.63011e-06
0.413771
1.61675e-06
0.413771
1.6339e-06
0.413772
1.67213e-06
0.413772
1.70078e-06
0.413772
1.70148e-06
0.413772
1.68821e-06
0.413772
1.69381e-06
0.413772
1.74123e-06
0.413772
1.8266e-06
0.413771
1.92282e-06
0.413771
1.99613e-06
0.41377
2.02481e-06
0.413769
2.01314e-06
0.413768
1.99404e-06
0.413768
2.0123e-06
0.413767
2.08893e-06
0.413766
2.19226e-06
0.413766
2.24931e-06
0.413765
2.19744e-06
0.413764
2.03893e-06
0.413764
1.85245e-06
0.413764
1.74618e-06
0.413763
1.78558e-06
0.413762
1.9504e-06
0.413762
2.1519e-06
0.413761
2.29224e-06
0.41376
2.33622e-06
0.413758
2.32537e-06
0.413756
2.33065e-06
0.413754
2.39076e-06
0.413752
2.48546e-06
0.41375
2.55365e-06
0.413747
2.53997e-06
0.413745
2.4239e-06
0.413742
2.22252e-06
0.41374
1.98186e-06
0.413738
1.75998e-06
0.413736
1.60204e-06
0.413735
1.49672e-06
0.413734
1.39204e-06
0.413733
1.20878e-06
0.413733
9.14469e-07
0.413734
5.64576e-07
0.413735
2.40514e-07
0.413736
-5.96826e-09
0.413737
-2.23486e-07
0.413739
-4.79341e-07
0.413741
-8.08981e-07
0.413743
-1.18759e-06
0.413746
-1.54939e-06
0.413749
-1.8324e-06
0.413751
-2.0168e-06
0.413754
-2.11334e-06
0.413757
-2.14156e-06
0.41376
-2.12781e-06
0.413763
-2.10545e-06
0.413766
-2.10298e-06
0.413768
-2.12546e-06
0.413771
-2.14613e-06
0.413773
-2.11508e-06
0.413775
-1.97914e-06
0.413777
-1.7236e-06
0.413778
-1.40354e-06
0.413779
-1.09207e-06
0.413781
-8.57721e-07
0.413781
-7.3719e-07
0.413782
-7.33418e-07
0.413783
-8.11566e-07
0.413784
-9.19996e-07
0.413785
-1.01643e-06
0.413786
-1.06805e-06
0.413786
-1.05591e-06
0.413787
-9.84822e-07
0.413787
-8.93119e-07
0.413788
-8.39876e-07
0.413788
-8.63409e-07
0.413789
-9.46357e-07
0.413789
-1.02627e-06
0.413789
-1.04602e-06
0.41379
-9.97246e-07
0.41379
-9.14274e-07
0.41379
-8.30212e-07
0.41379
-7.45632e-07
0.41379
-6.42047e-07
0.41379
-5.20583e-07
0.41379
-4.16732e-07
0.41379
-3.71436e-07
0.41379
-3.9107e-07
0.41379
-4.40795e-07
0.41379
-4.77317e-07
0.41379
-4.81356e-07
0.41379
-4.5659e-07
0.413791
-4.06494e-07
0.413791
-3.25074e-07
0.413791
-2.15704e-07
0.413791
-1.09734e-07
0.413791
-5.44594e-08
0.413791
-7.56121e-08
0.413791
-1.49774e-07
0.413791
-2.29595e-07
0.413791
-2.85026e-07
0.413791
-3.24998e-07
0.413791
-3.7863e-07
0.413791
-4.51336e-07
0.413791
-5.08701e-07
0.413791
-5.0445e-07
0.413791
-4.27644e-07
0.413792
-3.18047e-07
0.413791
-2.35125e-07
0.413791
-2.09695e-07
0.413791
-2.1916e-07
0.413791
-2.21599e-07
0.413791
-1.89345e-07
0.413791
-1.28827e-07
0.413791
-6.08634e-08
0.413791
2.2952e-09
0.413791
8.89036e-08
0.413791
2.22122e-07
0.413791
4.13534e-07
0.413791
6.51562e-07
0.413791
9.10532e-07
0.41379
1.16717e-06
0.41379
1.40949e-06
0.413789
1.63317e-06
0.413789
1.83297e-06
0.413788
2.00221e-06
0.413788
2.14174e-06
0.413787
2.26581e-06
0.413787
2.39558e-06
0.413786
2.54469e-06
0.413785
2.7106e-06
0.413784
2.88347e-06
0.413783
3.06251e-06
0.413783
3.25705e-06
0.413782
3.46834e-06
0.413781
3.6724e-06
0.41378
3.82787e-06
0.413779
3.90589e-06
0.413778
3.91211e-06
0.413777
3.87918e-06
0.413776
3.83534e-06
0.413775
3.78194e-06
0.413774
3.70318e-06
0.413774
3.594e-06
0.413773
3.47362e-06
0.413772
3.36946e-06
0.413771
3.28889e-06
0.41377
3.21162e-06
0.413769
3.10707e-06
0.413769
2.96478e-06
0.413768
2.75504e-06
0.413767
2.59164e-06
2.04413e-06
0.41375
-2.63239e-08
0.41375
2.26511e-07
0.41375
5.26964e-07
0.41375
1.03011e-06
0.413751
1.20663e-06
0.413751
1.62828e-06
0.413751
1.84623e-06
0.413751
1.84977e-06
0.413751
1.64584e-06
0.413752
1.33296e-06
0.413752
1.29463e-06
0.413752
1.34015e-06
0.413752
1.23008e-06
0.413753
1.02511e-06
0.413755
8.53692e-07
0.413755
1.19715e-06
0.413756
1.70966e-06
0.413756
1.72272e-06
0.413757
1.4999e-06
0.413757
1.72771e-06
0.413757
1.96658e-06
0.413757
1.78181e-06
0.413757
1.76193e-06
0.413757
2.05261e-06
0.413756
2.30497e-06
0.413755
2.40362e-06
0.413754
2.06986e-06
0.413754
1.57219e-06
0.413755
1.55914e-06
0.413756
1.7222e-06
0.413756
1.54239e-06
0.413758
1.29985e-06
0.413759
1.44629e-06
0.41376
1.74802e-06
0.41376
1.67802e-06
0.413761
1.3529e-06
0.413761
1.30051e-06
0.413762
1.66814e-06
0.413762
2.08588e-06
0.413761
2.26679e-06
0.41376
2.21574e-06
0.41376
2.0617e-06
0.413759
1.88053e-06
0.413759
1.74617e-06
0.413759
1.75079e-06
0.41376
1.84652e-06
0.41376
1.86732e-06
0.41376
1.79306e-06
0.41376
1.72194e-06
0.413761
1.67646e-06
0.413761
1.61095e-06
0.413761
1.60735e-06
0.413761
1.79381e-06
0.413761
2.08038e-06
0.413761
2.17862e-06
0.41376
1.95393e-06
0.41376
1.59351e-06
0.41376
1.316e-06
0.413761
1.12772e-06
0.413761
9.77281e-07
0.413762
9.40454e-07
0.413763
1.09846e-06
0.413764
1.33944e-06
0.413765
1.45134e-06
0.413765
1.38996e-06
0.413766
1.32369e-06
0.413766
1.38742e-06
0.413766
1.53378e-06
0.413767
1.61586e-06
0.413768
1.55772e-06
0.413768
1.40122e-06
0.413769
1.24093e-06
0.41377
1.14869e-06
0.413771
1.13978e-06
0.413772
1.19159e-06
0.413772
1.28028e-06
0.413773
1.3932e-06
0.413773
1.51337e-06
0.413773
1.61441e-06
0.413774
1.68548e-06
0.413774
1.74532e-06
0.413773
1.81657e-06
0.413773
1.89257e-06
0.413773
1.93662e-06
0.413773
1.91096e-06
0.413773
1.81066e-06
0.413773
1.67674e-06
0.413773
1.57276e-06
0.413774
1.53182e-06
0.413774
1.51573e-06
0.413775
1.44314e-06
0.413775
1.27313e-06
0.413776
1.05419e-06
0.413777
8.79071e-07
0.413778
7.91682e-07
0.413779
7.55023e-07
0.41378
7.11708e-07
0.413781
6.54061e-07
0.413782
6.28297e-07
0.413783
6.77127e-07
0.413783
7.90772e-07
0.413784
9.2109e-07
0.413785
1.03159e-06
0.413785
1.12425e-06
0.413786
1.21923e-06
0.413786
1.31537e-06
0.413787
1.37934e-06
0.413788
1.37341e-06
0.413788
1.2935e-06
0.413789
1.17878e-06
0.41379
1.0821e-06
0.413791
1.03232e-06
0.413792
1.01549e-06
0.413793
9.84332e-07
0.413795
8.8895e-07
0.413796
7.1132e-07
0.413798
4.83593e-07
0.413799
2.74208e-07
0.413801
1.48367e-07
0.413803
1.26941e-07
0.413804
1.74956e-07
0.413806
2.39553e-07
0.413808
2.64151e-07
0.41381
2.48086e-07
0.413813
2.46838e-07
0.413815
3.33065e-07
0.413816
5.43715e-07
0.413818
8.49489e-07
0.413819
1.17528e-06
0.41382
1.45445e-06
0.413821
1.66772e-06
0.413822
1.8376e-06
0.413822
1.99281e-06
0.413821
2.1417e-06
0.413821
2.27438e-06
0.41382
2.37392e-06
0.413819
2.42082e-06
0.413817
2.37932e-06
0.413816
2.19986e-06
0.413815
1.89479e-06
0.413814
1.52871e-06
0.413812
1.18257e-06
0.413811
8.86701e-07
0.41381
6.06144e-07
0.413809
2.9024e-07
0.413808
-7.59893e-08
0.413807
-4.373e-07
0.413806
-7.13381e-07
0.413805
-8.5793e-07
0.413803
-8.77446e-07
0.413802
-8.21737e-07
0.413801
-7.57845e-07
0.413799
-7.35069e-07
0.413798
-7.6714e-07
0.413797
-8.33887e-07
0.413795
-8.90186e-07
0.413794
-8.83865e-07
0.413793
-7.8134e-07
0.413792
-5.90503e-07
0.413791
-3.64923e-07
0.41379
-1.74167e-07
0.413789
-6.99216e-08
0.413788
-6.95081e-08
0.413788
-1.66317e-07
0.413787
-3.11127e-07
0.413787
-4.49924e-07
0.413786
-5.46602e-07
0.413786
-5.95334e-07
0.413786
-6.10568e-07
0.413785
-6.09352e-07
0.413785
-6.07473e-07
0.413785
-6.28124e-07
0.413784
-7.00807e-07
0.413784
-8.39501e-07
0.413784
-1.0172e-06
0.413784
-1.16915e-06
0.413785
-1.23461e-06
0.413785
-1.20069e-06
0.413785
-1.106e-06
0.413786
-1.0026e-06
0.413786
-9.16884e-07
0.413786
-8.46682e-07
0.413787
-7.88071e-07
0.413787
-7.53344e-07
0.413787
-7.57497e-07
0.413788
-7.92213e-07
0.413788
-8.22369e-07
0.413788
-8.12267e-07
0.413789
-7.53051e-07
0.413789
-6.61962e-07
0.413789
-5.584e-07
0.413789
-4.48397e-07
0.41379
-3.35894e-07
0.41379
-2.42162e-07
0.41379
-2.03451e-07
0.41379
-2.40709e-07
0.41379
-3.34301e-07
0.41379
-4.32993e-07
0.41379
-4.92081e-07
0.41379
-5.05674e-07
0.413791
-5.01018e-07
0.413791
-5.02483e-07
0.413791
-5.03514e-07
0.413791
-4.75417e-07
0.413791
-4.01305e-07
0.413791
-3.00316e-07
0.413791
-2.1525e-07
0.413791
-1.74805e-07
0.413791
-1.71275e-07
0.413791
-1.71798e-07
0.413791
-1.39356e-07
0.413791
-6.57901e-08
0.413791
4.11241e-08
0.41379
1.78125e-07
0.41379
3.51213e-07
0.41379
5.72209e-07
0.41379
8.44776e-07
0.41379
1.15556e-06
0.413789
1.47874e-06
0.413789
1.78928e-06
0.413789
2.07326e-06
0.413788
2.32683e-06
0.413788
2.54855e-06
0.413787
2.7372e-06
0.413786
2.89881e-06
0.413786
3.05294e-06
0.413785
3.22557e-06
0.413784
3.43109e-06
0.413784
3.66108e-06
0.413783
3.89289e-06
0.413782
4.10923e-06
0.413781
4.30783e-06
0.41378
4.4907e-06
0.413779
4.64616e-06
0.413779
4.74668e-06
0.413778
4.76899e-06
0.413777
4.71728e-06
0.413776
4.62395e-06
0.413775
4.52521e-06
0.413775
4.43596e-06
0.413774
4.34847e-06
0.413773
4.25253e-06
0.413772
4.15115e-06
0.413771
4.0536e-06
0.413771
3.9566e-06
0.41377
3.83668e-06
0.413769
3.67145e-06
0.413769
3.4118e-06
0.413768
3.19391e-06
2.44208e-06
0.413753
6.19074e-07
0.413752
1.02068e-06
0.413752
5.8578e-07
0.413752
4.5035e-07
0.413753
8.9926e-07
0.413753
1.14438e-06
0.413754
1.41121e-06
0.413754
1.14085e-06
0.413755
1.21342e-06
0.413754
1.55854e-06
0.413754
1.8968e-06
0.413753
2.1843e-06
0.413752
2.26658e-06
0.413751
2.32302e-06
0.413749
2.19409e-06
0.413749
1.73797e-06
0.413749
1.34853e-06
0.41375
1.14969e-06
0.41375
1.15671e-06
0.41375
1.36706e-06
0.413751
1.37946e-06
0.413751
1.29842e-06
0.413752
1.21523e-06
0.413753
1.18607e-06
0.413754
1.38912e-06
0.413755
1.61633e-06
0.413755
1.65804e-06
0.413755
1.59142e-06
0.413755
1.52831e-06
0.413755
1.5322e-06
0.413755
1.54999e-06
0.413755
1.4164e-06
0.413755
1.27311e-06
0.413756
1.45789e-06
0.413755
1.80395e-06
0.413755
1.84854e-06
0.413755
1.51009e-06
0.413755
1.19356e-06
0.413756
1.1245e-06
0.413757
1.20278e-06
0.413758
1.22486e-06
0.413759
1.20561e-06
0.41376
1.23128e-06
0.41376
1.25943e-06
0.413761
1.27102e-06
0.413761
1.3413e-06
0.413762
1.47766e-06
0.413762
1.55129e-06
0.413762
1.51111e-06
0.413762
1.46944e-06
0.413762
1.4953e-06
0.413762
1.50079e-06
0.413763
1.43943e-06
0.413763
1.42319e-06
0.413764
1.55024e-06
0.413764
1.7457e-06
0.413764
1.8674e-06
0.413763
1.87606e-06
0.413763
1.83054e-06
0.413762
1.7799e-06
0.413761
1.71333e-06
0.413761
1.60396e-06
0.413761
1.4551e-06
0.413761
1.31042e-06
0.413761
1.23217e-06
0.413761
1.25304e-06
0.413761
1.31841e-06
0.413761
1.34074e-06
0.413762
1.30088e-06
0.413762
1.27044e-06
0.413762
1.30983e-06
0.413762
1.38812e-06
0.413761
1.43672e-06
0.413761
1.43765e-06
0.413761
1.4255e-06
0.413761
1.41862e-06
0.413761
1.38253e-06
0.413761
1.26762e-06
0.413762
1.07074e-06
0.413762
8.55887e-07
0.413763
7.07866e-07
0.413765
6.56486e-07
0.413766
6.52708e-07
0.413767
6.28594e-07
0.413768
5.69348e-07
0.41377
5.19327e-07
0.413771
5.28354e-07
0.413772
6.11131e-07
0.413773
7.55161e-07
0.413773
9.37833e-07
0.413774
1.12607e-06
0.413774
1.28164e-06
0.413773
1.3859e-06
0.413773
1.45677e-06
0.413772
1.52763e-06
0.413771
1.60702e-06
0.41377
1.66716e-06
0.413769
1.67206e-06
0.413768
1.61063e-06
0.413767
1.50076e-06
0.413767
1.37073e-06
0.413766
1.24532e-06
0.413766
1.14633e-06
0.413766
1.0949e-06
0.413766
1.10112e-06
0.413767
1.14737e-06
0.413767
1.19046e-06
0.413767
1.19623e-06
0.413767
1.1756e-06
0.413767
1.18203e-06
0.413767
1.26849e-06
0.413766
1.43712e-06
0.413766
1.6279e-06
0.413765
1.75765e-06
0.413764
1.77825e-06
0.413763
1.70927e-06
0.413762
1.62257e-06
0.413761
1.5911e-06
0.413759
1.63913e-06
0.413758
1.72809e-06
0.413756
1.78932e-06
0.413754
1.77468e-06
0.413753
1.67951e-06
0.413752
1.54484e-06
0.413751
1.43002e-06
0.41375
1.37703e-06
0.413749
1.38651e-06
0.413748
1.41496e-06
0.413748
1.39936e-06
0.413748
1.29903e-06
0.413749
1.12601e-06
0.41375
9.36729e-07
0.413751
7.85768e-07
0.413752
6.8014e-07
0.413754
5.7643e-07
0.413756
4.18452e-07