/*--------------------------------*- C++ -*----------------------------------*\
| =========                 |                                                 |
| \\      /  F ield         | OpenFOAM: The Open Source CFD Toolbox           |
|  \\    /   O peration     | Version:  2406                                  |
|   \\  /    A nd           | Website:  www.openfoam.com                      |
|    \\/     M anipulation  |                                                 |
\*---------------------------------------------------------------------------*/
FoamFile
{
    version     2.0;
    format      ascii;
    arch        "LSB;label=32;scalar=64";
    class       volScalarField;
    location    "0.4";
    object      p_rgh;
}
// * * * * * * * * * * * * * * * * * * * * * * * * * * * * * * * * * * * * * //

dimensions      [1 -1 -2 0 0 0 0];

internalField   nonuniform List<scalar> 
6250
(
1775.46
-370.47
1010.59
2035.4
2011.5
1701.87
1588.11
1629.97
1672.87
1670.56
1650.73
1637.56
1632.11
1627.63
1621.24
1613.83
1606.61
1599.76
1592.99
1586.14
1579.24
1572.34
1565.46
1558.58
1551.7
1544.82
1537.93
1531.05
1524.18
1517.3
1510.42
1503.53
1496.65
1489.77
1482.89
1476.01
1469.13
1462.24
1455.37
1448.49
1441.6
1434.72
1427.84
1420.96
1414.08
1407.2
1400.31
1393.43
1386.55
1379.67
1372.79
1365.91
1359.03
1352.15
1345.27
1338.38
1331.5
1324.62
1317.74
1310.86
1303.98
1297.1
1290.22
1283.34
1276.45
1269.57
1262.69
1255.81
1248.93
1242.05
1235.17
1228.28
1221.4
1214.52
1207.64
1200.76
1193.88
1187
1180.12
1173.24
1166.36
1159.47
1152.59
1145.71
1138.83
1131.95
1125.07
1118.19
1111.31
1104.43
1097.55
1090.67
1083.78
1076.9
1070.02
1063.14
1056.26
1049.38
1042.5
1035.62
1028.73
1021.85
1014.97
1008.09
1001.21
994.329
987.45
980.569
973.686
966.804
959.922
953.041
946.162
939.283
932.401
925.519
918.636
911.754
904.873
897.993
891.113
884.232
877.351
870.469
863.587
856.705
849.823
842.942
836.061
829.181
822.3
815.418
808.537
801.655
794.774
787.892
781.011
774.13
767.25
760.369
753.488
746.607
739.724
732.84
725.956
719.075
712.196
705.318
698.44
691.56
684.676
677.791
670.905
664.022
657.141
650.263
643.385
636.507
629.627
622.744
615.86
608.975
602.091
595.21
588.33
581.453
574.577
567.699
560.819
553.937
547.052
540.168
533.284
526.403
519.524
512.648
505.771
498.893
492.013
485.131
478.247
471.364
464.48
457.597
450.715
443.835
436.956
430.077
423.197
416.316
409.433
402.55
395.666
388.782
381.898
375.015
368.134
361.254
354.374
347.494
340.612
333.73
326.848
319.967
313.086
306.205
299.323
292.442
285.561
278.682
271.804
264.924
258.044
251.163
244.282
237.403
230.524
223.646
216.767
209.889
203.011
196.133
189.254
182.373
175.49
168.605
161.719
154.831
147.941
141.051
134.162
127.273
120.387
113.502
106.619
99.7379
92.8589
85.9818
79.1057
72.2298
65.3531
58.4758
51.5978
44.7193
37.8401
30.9601
24.0795
17.199
10.3189
3.43947
1775.45
-370.514
1010.56
2035.4
2011.51
1701.86
1588.1
1629.97
1672.87
1670.56
1650.73
1637.56
1632.11
1627.64
1621.25
1613.84
1606.61
1599.75
1592.99
1586.14
1579.24
1572.34
1565.45
1558.58
1551.7
1544.82
1537.94
1531.05
1524.17
1517.29
1510.41
1503.54
1496.65
1489.77
1482.89
1476.01
1469.13
1462.24
1455.36
1448.48
1441.61
1434.73
1427.84
1420.96
1414.08
1407.2
1400.32
1393.44
1386.55
1379.67
1372.79
1365.91
1359.03
1352.14
1345.26
1338.39
1331.51
1324.63
1317.74
1310.86
1303.98
1297.1
1290.22
1283.34
1276.46
1269.58
1262.69
1255.81
1248.93
1242.05
1235.17
1228.29
1221.41
1214.52
1207.64
1200.76
1193.88
1187
1180.12
1173.24
1166.36
1159.47
1152.59
1145.71
1138.83
1131.95
1125.07
1118.19
1111.31
1104.43
1097.55
1090.67
1083.78
1076.9
1070.02
1063.14
1056.26
1049.38
1042.5
1035.62
1028.73
1021.85
1014.97
1008.09
1001.21
994.33
987.449
980.568
973.686
966.804
959.922
953.042
946.162
939.283
932.402
925.519
918.635
911.753
904.873
897.994
891.114
884.233
877.351
870.468
863.587
856.705
849.824
842.943
836.061
829.18
822.299
815.419
808.538
801.656
794.773
787.891
781.01
774.13
767.251
760.37
753.489
746.606
739.722
732.839
725.957
719.076
712.196
705.318
698.44
691.56
684.676
677.791
670.905
664.021
657.14
650.262
643.386
636.508
629.628
622.744
615.859
608.973
602.089
595.209
588.331
581.455
574.578
567.7
560.819
553.936
547.051
540.167
533.284
526.403
519.524
512.648
505.772
498.894
492.014
485.131
478.246
471.361
464.477
457.595
450.715
443.835
436.957
430.078
423.198
416.317
409.433
402.549
395.665
388.781
381.898
375.016
368.135
361.254
354.374
347.494
340.613
333.731
326.848
319.966
313.084
306.203
299.323
292.443
285.563
278.682
271.803
264.924
258.044
251.164
244.283
237.402
230.523
223.645
216.767
209.889
203.012
196.134
189.255
182.374
175.491
168.606
161.719
154.831
147.941
141.051
134.161
127.272
120.385
113.501
106.618
99.738
92.8592
85.9819
79.1056
72.23
65.354
58.4771
51.5989
44.7198
37.84
30.9598
24.0794
17.1989
10.3192
3.43894
1775.44
-370.509
1010.58
2035.41
2011.51
1701.87
1588.1
1629.96
1672.87
1670.56
1650.73
1637.57
1632.12
1627.64
1621.25
1613.84
1606.61
1599.75
1592.99
1586.15
1579.24
1572.34
1565.45
1558.58
1551.7
1544.82
1537.94
1531.06
1524.18
1517.29
1510.41
1503.53
1496.65
1489.77
1482.89
1476.01
1469.13
1462.25
1455.36
1448.48
1441.6
1434.72
1427.84
1420.96
1414.08
1407.2
1400.32
1393.43
1386.55
1379.67
1372.79
1365.91
1359.03
1352.15
1345.27
1338.38
1331.5
1324.62
1317.74
1310.86
1303.98
1297.1
1290.22
1283.33
1276.45
1269.57
1262.69
1255.81
1248.93
1242.05
1235.17
1228.29
1221.4
1214.52
1207.64
1200.76
1193.88
1187
1180.12
1173.24
1166.35
1159.47
1152.59
1145.71
1138.83
1131.95
1125.07
1118.19
1111.31
1104.43
1097.55
1090.66
1083.78
1076.9
1070.02
1063.14
1056.26
1049.38
1042.5
1035.61
1028.73
1021.85
1014.97
1008.09
1001.21
994.33
987.449
980.567
973.685
966.803
959.923
953.042
946.162
939.282
932.4
925.518
918.636
911.754
904.873
897.994
891.113
884.232
877.35
870.468
863.586
856.705
849.824
842.943
836.062
829.18
822.299
815.418
808.537
801.656
794.774
787.891
781.01
774.129
767.25
760.371
753.489
746.606
739.721
732.838
725.956
719.076
712.198
705.32
698.44
691.559
684.675
677.789
670.904
664.021
657.141
650.264
643.387
636.509
629.628
622.744
615.858
608.973
602.089
595.209
588.332
581.456
574.58
567.701
560.819
553.935
547.049
540.165
533.283
526.404
519.526
512.649
505.772
498.894
492.013
485.13
478.246
471.361
464.477
457.596
450.716
443.837
436.958
430.079
423.198
416.316
409.433
402.549
395.664
388.78
381.898
375.016
368.136
361.255
354.374
347.493
340.612
333.731
326.849
319.966
313.084
306.203
299.323
292.443
285.564
278.684
271.803
264.923
258.043
251.163
244.283
237.403
230.523
223.644
216.767
209.89
203.012
196.134
189.255
182.374
175.491
168.606
161.719
154.83
147.941
141.051
134.161
127.272
120.385
113.5
106.618
99.7384
92.8601
85.9828
79.1062
72.23
65.3538
58.477
51.599
44.7198
37.8398
30.9594
24.0789
17.1986
10.3189
3.439
1775.43
-370.52
1010.57
2035.4
2011.51
1701.87
1588.1
1629.97
1672.87
1670.56
1650.73
1637.56
1632.1
1627.63
1621.24
1613.84
1606.61
1599.75
1592.99
1586.14
1579.24
1572.34
1565.46
1558.58
1551.7
1544.82
1537.93
1531.05
1524.18
1517.3
1510.41
1503.53
1496.65
1489.77
1482.89
1476
1469.13
1462.25
1455.37
1448.48
1441.6
1434.72
1427.84
1420.96
1414.08
1407.2
1400.32
1393.43
1386.55
1379.67
1372.79
1365.91
1359.03
1352.15
1345.27
1338.38
1331.5
1324.62
1317.74
1310.86
1303.98
1297.1
1290.22
1283.34
1276.45
1269.57
1262.69
1255.81
1248.93
1242.05
1235.17
1228.29
1221.41
1214.53
1207.64
1200.76
1193.88
1187
1180.12
1173.24
1166.36
1159.47
1152.59
1145.71
1138.83
1131.95
1125.07
1118.19
1111.31
1104.43
1097.55
1090.66
1083.78
1076.9
1070.02
1063.14
1056.26
1049.38
1042.5
1035.62
1028.74
1021.85
1014.97
1008.09
1001.21
994.33
987.45
980.568
973.685
966.803
959.923
953.043
946.162
939.281
932.399
925.518
918.636
911.755
904.875
897.994
891.113
884.231
877.35
870.468
863.587
856.706
849.824
842.943
836.062
829.181
822.3
815.419
808.538
801.656
794.774
787.892
781.01
774.129
767.25
760.37
753.49
746.607
739.722
732.838
725.956
719.077
712.199
705.321
698.441
691.558
684.673
677.788
670.904
664.022
657.142
650.265
643.387
636.508
629.626
622.742
615.857
608.972
602.09
595.21
588.333
581.457
574.58
567.7
560.818
553.934
547.049
540.165
533.283
526.404
519.527
512.65
505.773
498.894
492.012
485.129
478.244
471.36
464.477
457.595
450.715
443.837
436.958
430.079
423.198
416.316
409.433
402.548
395.664
388.78
381.897
375.016
368.136
361.256
354.375
347.494
340.612
333.73
326.849
319.967
313.085
306.203
299.322
292.443
285.564
278.684
271.804
264.924
258.043
251.163
244.283
237.403
230.523
223.645
216.767
209.889
203.012
196.134
189.255
182.374
175.491
168.607
161.719
154.83
147.94
141.05
134.161
127.272
120.386
113.501
106.618
99.7382
92.8601
85.9832
79.1068
72.2305
65.354
58.4769
51.599
44.72
37.84
30.9595
24.0788
17.1985
10.3188
3.43907
1775.44
-370.518
1010.57
2035.4
2011.51
1701.87
1588.11
1629.97
1672.87
1670.56
1650.73
1637.56
1632.11
1627.63
1621.24
1613.84
1606.62
1599.76
1592.99
1586.14
1579.24
1572.34
1565.46
1558.58
1551.7
1544.82
1537.94
1531.05
1524.17
1517.3
1510.41
1503.53
1496.65
1489.77
1482.89
1476.01
1469.12
1462.25
1455.37
1448.49
1441.6
1434.72
1427.84
1420.96
1414.08
1407.2
1400.32
1393.43
1386.55
1379.67
1372.79
1365.91
1359.03
1352.15
1345.27
1338.38
1331.5
1324.62
1317.74
1310.86
1303.98
1297.1
1290.22
1283.34
1276.46
1269.57
1262.69
1255.81
1248.93
1242.05
1235.17
1228.29
1221.4
1214.52
1207.64
1200.76
1193.88
1187
1180.12
1173.24
1166.35
1159.47
1152.59
1145.71
1138.83
1131.95
1125.07
1118.19
1111.31
1104.43
1097.54
1090.66
1083.78
1076.9
1070.02
1063.14
1056.26
1049.38
1042.5
1035.62
1028.74
1021.85
1014.97
1008.09
1001.21
994.33
987.449
980.567
973.685
966.803
959.922
953.042
946.161
939.28
932.399
925.517
918.636
911.756
904.875
897.993
891.112
884.23
877.349
870.468
863.587
856.706
849.824
842.942
836.061
829.18
822.3
815.42
808.538
801.655
794.773
787.891
781.01
774.13
767.25
760.37
753.489
746.606
739.723
732.839
725.957
719.077
712.199
705.32
698.44
691.558
684.673
677.788
670.904
664.023
657.144
650.267
643.389
636.509
629.627
622.742
615.857
608.973
602.091
595.212
588.335
581.458
574.58
567.7
560.817
553.933
547.048
540.164
533.283
526.404
519.528
512.651
505.773
498.893
492.011
485.127
478.243
471.359
464.476
457.595
450.716
443.838
436.959
430.08
423.198
416.316
409.432
402.548
395.664
388.78
381.897
375.016
368.135
361.256
354.376
347.495
340.613
333.73
326.848
319.966
313.085
306.204
299.323
292.443
285.564
278.684
271.805
264.925
258.044
251.163
244.282
237.402
230.523
223.644
216.766
209.889
203.012
196.134
189.255
182.374
175.492
168.607
161.719
154.831
147.941
141.05
134.16
127.272
120.386
113.501
106.619
99.7385
92.8602
85.9833
79.1072
72.2311
65.3545
58.4772
51.599
44.7199
37.8399
30.9593
24.0786
17.1982
10.3186
3.43906
1775.44
-370.52
1010.56
2035.39
2011.5
1701.86
1588.1
1629.97
1672.87
1670.56
1650.73
1637.57
1632.11
1627.63
1621.24
1613.84
1606.61
1599.75
1592.98
1586.14
1579.24
1572.34
1565.46
1558.58
1551.7
1544.82
1537.94
1531.05
1524.17
1517.29
1510.41
1503.53
1496.65
1489.77
1482.89
1476.01
1469.13
1462.24
1455.36
1448.48
1441.6
1434.72
1427.84
1420.96
1414.08
1407.2
1400.32
1393.43
1386.55
1379.67
1372.79
1365.91
1359.03
1352.14
1345.26
1338.39
1331.5
1324.62
1317.74
1310.86
1303.98
1297.1
1290.21
1283.34
1276.46
1269.58
1262.69
1255.81
1248.93
1242.05
1235.17
1228.29
1221.41
1214.52
1207.64
1200.76
1193.88
1187
1180.12
1173.24
1166.36
1159.48
1152.59
1145.71
1138.83
1131.95
1125.07
1118.19
1111.31
1104.43
1097.55
1090.66
1083.78
1076.9
1070.02
1063.14
1056.26
1049.38
1042.5
1035.62
1028.74
1021.85
1014.97
1008.09
1001.21
994.33
987.449
980.568
973.686
966.804
959.922
953.041
946.161
939.28
932.399
925.518
918.637
911.756
904.875
897.993
891.111
884.23
877.349
870.469
863.588
856.707
849.824
842.942
836.061
829.18
822.301
815.42
808.539
801.656
794.773
787.89
781.009
774.13
767.251
760.371
753.489
746.606
739.723
732.839
725.958
719.078
712.199
705.32
698.439
691.556
684.672
677.787
670.904
664.023
657.145
650.267
643.389
636.508
629.625
622.741
615.856
608.973
602.092
595.213
588.336
581.459
574.58
567.699
560.816
553.931
547.047
540.164
533.284
526.406
519.529
512.652
505.773
498.893
492.01
485.126
478.241
471.358
464.476
457.595
450.716
443.838
436.959
430.08
423.198
416.315
409.431
402.547
395.663
388.78
381.898
375.017
368.136
361.256
354.376
347.495
340.613
333.731
326.848
319.966
313.085
306.204
299.324
292.444
285.564
278.685
271.805
264.925
258.044
251.163
244.282
237.402
230.523
223.644
216.766
209.889
203.012
196.134
189.255
182.375
175.492
168.607
161.719
154.831
147.941
141.051
134.161
127.272
120.386
113.501
106.619
99.7393
92.8609
85.9838
79.1076
72.2315
65.355
58.4775
51.5991
44.7198
37.8397
30.9592
24.0784
17.198
10.3183
3.43911
1775.43
-370.525
1010.57
2035.4
2011.5
1701.86
1588.1
1629.97
1672.87
1670.56
1650.73
1637.56
1632.11
1627.63
1621.24
1613.84
1606.61
1599.76
1592.99
1586.14
1579.24
1572.34
1565.46
1558.58
1551.7
1544.82
1537.94
1531.06
1524.17
1517.29
1510.42
1503.54
1496.65
1489.77
1482.89
1476.01
1469.13
1462.25
1455.37
1448.49
1441.6
1434.72
1427.84
1420.96
1414.08
1407.2
1400.31
1393.43
1386.55
1379.67
1372.79
1365.91
1359.03
1352.15
1345.27
1338.39
1331.5
1324.62
1317.74
1310.86
1303.98
1297.1
1290.22
1283.34
1276.46
1269.57
1262.69
1255.81
1248.93
1242.05
1235.17
1228.29
1221.41
1214.52
1207.64
1200.76
1193.88
1187
1180.12
1173.24
1166.36
1159.47
1152.59
1145.71
1138.83
1131.95
1125.07
1118.19
1111.31
1104.43
1097.55
1090.66
1083.78
1076.9
1070.02
1063.14
1056.26
1049.38
1042.5
1035.62
1028.73
1021.85
1014.97
1008.09
1001.21
994.329
987.448
980.567
973.686
966.804
959.922
953.04
946.159
939.279
932.399
925.519
918.638
911.756
904.874
897.991
891.11
884.229
877.349
870.469
863.588
856.706
849.824
842.942
836.061
829.18
822.301
815.42
808.539
801.656
794.772
787.889
781.009
774.129
767.251
760.371
753.49
746.607
739.723
732.84
725.958
719.079
712.2
705.32
698.439
691.556
684.672
677.788
670.905
664.025
657.147
650.268
643.389
636.508
629.625
622.741
615.856
608.974
602.093
595.215
588.338
581.46
574.58
567.698
560.814
553.93
547.046
540.164
533.284
526.407
519.53
512.652
505.773
498.892
492.009
485.124
478.24
471.357
464.475
457.596
450.717
443.839
436.96
430.08
423.198
416.315
409.431
402.546
395.662
388.779
381.898
375.017
368.137
361.257
354.376
347.495
340.613
333.731
326.849
319.966
313.085
306.204
299.324
292.445
285.565
278.685
271.805
264.925
258.044
251.163
244.282
237.402
230.522
223.643
216.766
209.889
203.012
196.134
189.255
182.375
175.492
168.607
161.72
154.831
147.941
141.051
134.161
127.273
120.386
113.502
106.62
99.7398
92.8615
85.9844
79.108
72.2318
65.3552
58.4777
51.5992
44.7198
37.8396
30.9589
24.0782
17.1978
10.3181
3.43909
1775.43
-370.531
1010.56
2035.4
2011.51
1701.86
1588.1
1629.96
1672.86
1670.56
1650.73
1637.57
1632.11
1627.63
1621.24
1613.84
1606.61
1599.76
1592.99
1586.14
1579.24
1572.34
1565.46
1558.58
1551.7
1544.82
1537.94
1531.06
1524.17
1517.29
1510.41
1503.53
1496.65
1489.77
1482.89
1476.01
1469.13
1462.25
1455.36
1448.48
1441.6
1434.72
1427.84
1420.96
1414.08
1407.2
1400.32
1393.43
1386.55
1379.67
1372.79
1365.91
1359.03
1352.15
1345.27
1338.38
1331.5
1324.62
1317.74
1310.86
1303.98
1297.1
1290.22
1283.34
1276.46
1269.57
1262.69
1255.81
1248.93
1242.05
1235.17
1228.29
1221.41
1214.52
1207.64
1200.76
1193.88
1187
1180.12
1173.24
1166.36
1159.47
1152.59
1145.71
1138.83
1131.95
1125.07
1118.19
1111.31
1104.43
1097.55
1090.67
1083.78
1076.9
1070.02
1063.14
1056.26
1049.38
1042.5
1035.62
1028.74
1021.85
1014.97
1008.09
1001.21
994.329
987.448
980.568
973.686
966.804
959.922
953.04
946.159
939.279
932.399
925.519
918.638
911.756
904.873
897.99
891.109
884.229
877.35
870.47
863.588
856.706
849.823
842.941
836.061
829.181
822.302
815.421
808.539
801.655
794.772
787.89
781.009
774.13
767.251
760.371
753.49
746.607
739.723
732.84
725.959
719.079
712.2
705.32
698.438
691.555
684.671
677.788
670.906
664.026
657.147
650.269
643.389
636.507
629.624
622.74
615.856
608.974
602.095
595.217
588.339
581.46
574.58
567.697
560.813
553.929
547.046
540.165
533.286
526.408
519.531
512.653
505.773
498.891
492.007
485.123
478.239
471.356
464.475
457.596
450.718
443.84
436.961
430.08
423.198
416.314
409.43
402.546
395.662
388.779
381.898
375.017
368.138
361.258
354.377
347.495
340.613
333.731
326.849
319.967
313.085
306.204
299.325
292.445
285.566
278.686
271.806
264.925
258.044
251.163
244.282
237.401
230.522
223.643
216.765
209.888
203.012
196.134
189.255
182.375
175.492
168.607
161.72
154.831
147.941
141.051
134.161
127.273
120.387
113.502
106.62
99.7404
92.8622
85.9852
79.1087
72.2323
65.3555
58.4779
51.5993
44.7198
37.8395
30.9587
24.078
17.1976
10.3179
3.43905
1775.43
-370.531
1010.56
2035.4
2011.5
1701.86
1588.1
1629.97
1672.87
1670.56
1650.73
1637.56
1632.11
1627.63
1621.24
1613.84
1606.61
1599.76
1592.99
1586.14
1579.24
1572.34
1565.45
1558.58
1551.7
1544.82
1537.94
1531.06
1524.18
1517.29
1510.41
1503.53
1496.65
1489.77
1482.89
1476.01
1469.13
1462.25
1455.37
1448.48
1441.6
1434.72
1427.84
1420.96
1414.08
1407.2
1400.32
1393.44
1386.55
1379.67
1372.79
1365.91
1359.03
1352.15
1345.27
1338.38
1331.5
1324.62
1317.74
1310.86
1303.98
1297.1
1290.22
1283.34
1276.45
1269.57
1262.69
1255.81
1248.93
1242.05
1235.17
1228.29
1221.41
1214.52
1207.64
1200.76
1193.88
1187
1180.12
1173.24
1166.35
1159.47
1152.59
1145.71
1138.83
1131.95
1125.07
1118.19
1111.31
1104.43
1097.54
1090.66
1083.78
1076.9
1070.02
1063.14
1056.26
1049.38
1042.5
1035.62
1028.74
1021.85
1014.97
1008.09
1001.21
994.328
987.448
980.568
973.687
966.804
959.921
953.039
946.158
939.279
932.399
925.519
918.638
911.755
904.872
897.99
891.109
884.229
877.35
870.47
863.588
856.705
849.822
842.941
836.061
829.181
822.302
815.421
808.538
801.655
794.771
787.89
781.01
774.13
767.251
760.371
753.49
746.607
739.723
732.841
725.96
719.08
712.2
705.319
698.438
691.554
684.671
677.789
670.907
664.028
657.149
650.27
643.389
636.507
629.623
622.739
615.857
608.976
602.097
595.218
588.34
581.46
574.579
567.696
560.811
553.928
547.045
540.165
533.286
526.409
519.532
512.653
505.772
498.889
492.005
485.121
478.237
471.355
464.475
457.596
450.718
443.84
436.961
430.08
423.197
416.313
409.429
402.545
395.661
388.779
381.898
375.018
368.138
361.258
354.377
347.496
340.613
333.731
326.849
319.967
313.086
306.205
299.325
292.446
285.567
278.687
271.807
264.926
258.044
251.163
244.281
237.401
230.521
223.642
216.765
209.888
203.011
196.134
189.255
182.375
175.492
168.607
161.72
154.831
147.941
141.051
134.162
127.274
120.387
113.503
106.621
99.741
92.8628
85.9858
79.1093
72.2327
65.3558
58.478
51.5993
44.7197
37.8393
30.9585
24.0777
17.1973
10.3177
3.43898
1775.42
-370.534
1010.56
2035.4
2011.51
1701.86
1588.1
1629.97
1672.86
1670.56
1650.72
1637.56
1632.11
1627.63
1621.24
1613.84
1606.61
1599.75
1592.99
1586.14
1579.24
1572.34
1565.45
1558.58
1551.7
1544.82
1537.93
1531.05
1524.18
1517.3
1510.41
1503.53
1496.65
1489.77
1482.89
1476.01
1469.13
1462.25
1455.36
1448.48
1441.6
1434.72
1427.84
1420.96
1414.08
1407.2
1400.31
1393.43
1386.55
1379.67
1372.79
1365.91
1359.03
1352.15
1345.26
1338.38
1331.5
1324.62
1317.74
1310.86
1303.98
1297.1
1290.22
1283.34
1276.45
1269.57
1262.69
1255.81
1248.93
1242.05
1235.17
1228.29
1221.41
1214.52
1207.64
1200.76
1193.88
1187
1180.12
1173.24
1166.35
1159.47
1152.59
1145.71
1138.83
1131.95
1125.07
1118.19
1111.31
1104.43
1097.54
1090.66
1083.78
1076.9
1070.02
1063.14
1056.26
1049.38
1042.5
1035.62
1028.74
1021.85
1014.97
1008.09
1001.21
994.327
987.448
980.568
973.687
966.804
959.921
953.039
946.158
939.279
932.399
925.519
918.637
911.754
904.871
897.989
891.109
884.23
877.35
870.47
863.588
856.705
849.822
842.941
836.061
829.182
822.302
815.421
808.538
801.655
794.771
787.89
781.01
774.131
767.252
760.371
753.489
746.606
739.723
732.841
725.96
719.08
712.2
705.319
698.437
691.554
684.671
677.789
670.909
664.029
657.15
650.27
643.388
636.506
629.622
622.739
615.857
608.977
602.098
595.22
588.341
581.461
574.578
567.694
560.81
553.927
547.046
540.166
533.288
526.411
519.532
512.653
505.771
498.888
492.003
485.119
478.236
471.355
464.475
457.597
450.719
443.841
436.961
430.08
423.197
416.312
409.428
402.544
395.661
388.779
381.899
375.019
368.139
361.259
354.378
347.496
340.614
333.731
326.849
319.967
313.086
306.206
299.326
292.447
285.568
278.688
271.808
264.926
258.045
251.163
244.281
237.4
230.52
223.642
216.764
209.888
203.011
196.134
189.255
182.375
175.492
168.607
161.72
154.832
147.942
141.052
134.162
127.274
120.388
113.504
106.622
99.7419
92.8636
85.9865
79.1099
72.2332
65.3561
58.4782
51.5993
44.7196
37.8391
30.9582
24.0774
17.197
10.3175
3.43896
1775.42
-370.537
1010.56
2035.4
2011.51
1701.86
1588.1
1629.97
1672.87
1670.56
1650.73
1637.56
1632.11
1627.63
1621.24
1613.84
1606.61
1599.76
1592.99
1586.14
1579.24
1572.34
1565.46
1558.58
1551.7
1544.82
1537.94
1531.05
1524.17
1517.29
1510.41
1503.53
1496.65
1489.77
1482.89
1476.01
1469.13
1462.25
1455.36
1448.48
1441.6
1434.72
1427.84
1420.96
1414.08
1407.2
1400.32
1393.43
1386.55
1379.67
1372.79
1365.91
1359.03
1352.15
1345.27
1338.38
1331.5
1324.62
1317.74
1310.86
1303.98
1297.1
1290.22
1283.34
1276.46
1269.58
1262.69
1255.81
1248.93
1242.05
1235.17
1228.29
1221.41
1214.52
1207.64
1200.76
1193.88
1187
1180.12
1173.24
1166.36
1159.47
1152.59
1145.71
1138.83
1131.95
1125.07
1118.19
1111.31
1104.43
1097.54
1090.66
1083.78
1076.9
1070.02
1063.14
1056.26
1049.38
1042.5
1035.62
1028.74
1021.85
1014.97
1008.09
1001.21
994.327
987.448
980.569
973.687
966.804
959.92
953.038
946.158
939.279
932.399
925.519
918.636
911.753
904.871
897.99
891.11
884.23
877.35
870.469
863.587
856.704
849.822
842.941
836.061
829.182
822.302
815.42
808.538
801.655
794.772
787.891
781.011
774.132
767.252
760.371
753.489
746.606
739.724
732.842
725.961
719.081
712.2
705.318
698.436
691.553
684.671
677.79
670.91
664.03
657.151
650.27
643.388
636.505
629.621
622.739
615.858
608.979
602.1
595.221
588.341
581.46
574.577
567.693
560.809
553.926
547.045
540.167
533.289
526.411
519.533
512.652
505.77
498.886
492.001
485.117
478.235
471.354
464.475
457.597
450.72
443.841
436.961
430.079
423.196
416.312
409.427
402.543
395.661
388.779
381.899
375.019
368.14
361.259
354.378
347.496
340.614
333.731
326.849
319.967
313.086
306.206
299.327
292.448
285.569
278.689
271.808
264.927
258.045
251.163
244.281
237.4
230.52
223.641
216.764
209.887
203.011
196.133
189.255
182.375
175.492
168.607
161.72
154.832
147.942
141.052
134.163
127.275
120.389
113.505
106.623
99.7428
92.8644
85.9871
79.1104
72.2336
65.3564
58.4783
51.5993
44.7194
37.8389
30.9579
24.077
17.1967
10.3172
3.4389
1775.43
-370.534
1010.56
2035.4
2011.51
1701.86
1588.1
1629.97
1672.87
1670.56
1650.73
1637.56
1632.11
1627.63
1621.24
1613.84
1606.61
1599.76
1592.99
1586.14
1579.24
1572.34
1565.46
1558.58
1551.7
1544.82
1537.94
1531.06
1524.17
1517.29
1510.41
1503.53
1496.65
1489.77
1482.89
1476.01
1469.13
1462.25
1455.37
1448.49
1441.6
1434.72
1427.84
1420.96
1414.08
1407.2
1400.32
1393.43
1386.55
1379.67
1372.79
1365.91
1359.03
1352.15
1345.27
1338.38
1331.5
1324.62
1317.74
1310.86
1303.98
1297.1
1290.22
1283.34
1276.46
1269.58
1262.69
1255.81
1248.93
1242.05
1235.17
1228.29
1221.41
1214.52
1207.64
1200.76
1193.88
1187
1180.12
1173.24
1166.36
1159.48
1152.59
1145.71
1138.83
1131.95
1125.07
1118.19
1111.31
1104.42
1097.54
1090.66
1083.78
1076.9
1070.02
1063.14
1056.26
1049.37
1042.5
1035.62
1028.74
1021.85
1014.97
1008.09
1001.21
994.327
987.449
980.568
973.686
966.803
959.92
953.038
946.158
939.279
932.399
925.518
918.635
911.753
904.871
897.99
891.11
884.231
877.35
870.468
863.586
856.703
849.822
842.941
836.062
829.182
822.301
815.419
808.537
801.655
794.773
787.892
781.012
774.132
767.251
760.37
753.488
746.606
739.724
732.843
725.962
719.081
712.2
705.318
698.436
691.554
684.672
677.792
670.912
664.032
657.151
650.27
643.387
636.504
629.621
622.74
615.86
608.981
602.102
595.223
588.342
581.46
574.576
567.692
560.808
553.926
547.046
540.168
533.29
526.413
519.533
512.652
505.769
498.884
492
485.116
478.234
471.354
464.475
457.598
450.72
443.841
436.961
430.079
423.195
416.311
409.426
402.543
395.66
388.779
381.899
375.02
368.14
361.26
354.379
347.497
340.614
333.731
326.849
319.967
313.087
306.207
299.328
292.449
285.57
278.69
271.809
264.927
258.045
251.163
244.28
237.399
230.519
223.641
216.763
209.887
203.01
196.133
189.255
182.375
175.492
168.607
161.721
154.832
147.942
141.053
134.163
127.276
120.389
113.505
106.624
99.7436
92.8652
85.9878
79.1109
72.234
65.3566
58.4784
51.5993
44.7193
37.8386
30.9576
24.0767
17.1964
10.317
3.43886
1775.43
-370.534
1010.56
2035.4
2011.51
1701.86
1588.09
1629.96
1672.87
1670.56
1650.73
1637.56
1632.11
1627.63
1621.24
1613.84
1606.61
1599.75
1592.99
1586.14
1579.24
1572.34
1565.46
1558.58
1551.7
1544.82
1537.94
1531.05
1524.17
1517.29
1510.41
1503.53
1496.65
1489.77
1482.89
1476.01
1469.12
1462.24
1455.36
1448.49
1441.6
1434.72
1427.84
1420.96
1414.08
1407.2
1400.32
1393.44
1386.55
1379.67
1372.79
1365.91
1359.03
1352.15
1345.27
1338.38
1331.5
1324.62
1317.74
1310.86
1303.98
1297.1
1290.22
1283.34
1276.46
1269.57
1262.69
1255.81
1248.93
1242.05
1235.17
1228.29
1221.41
1214.53
1207.64
1200.76
1193.88
1187
1180.12
1173.24
1166.36
1159.48
1152.59
1145.71
1138.83
1131.95
1125.07
1118.19
1111.31
1104.42
1097.54
1090.66
1083.79
1076.9
1070.02
1063.14
1056.25
1049.37
1042.5
1035.62
1028.74
1021.85
1014.97
1008.09
1001.21
994.328
987.449
980.568
973.686
966.802
959.92
953.039
946.159
939.279
932.399
925.517
918.635
911.752
904.871
897.991
891.111
884.23
877.349
870.468
863.585
856.703
849.822
842.941
836.061
829.181
822.3
815.419
808.537
801.655
794.774
787.893
781.013
774.132
767.251
760.369
753.487
746.606
739.725
732.844
725.963
719.082
712.2
705.317
698.435
691.554
684.673
677.793
670.913
664.033
657.152
650.269
643.386
636.503
629.621
622.74
615.86
608.982
602.103
595.224
588.342
581.459
574.574
567.69
560.807
553.926
547.046
540.169
533.291
526.413
519.533
512.651
505.767
498.883
491.998
485.115
478.233
471.354
464.476
457.598
450.72
443.841
436.96
430.078
423.194
416.309
409.425
402.542
395.66
388.78
381.9
375.021
368.141
361.261
354.379
347.497
340.614
333.731
326.849
319.968
313.087
306.208
299.329
292.45
285.571
278.69
271.809
264.928
258.045
251.162
244.28
237.399
230.519
223.64
216.763
209.886
203.01
196.133
189.255
182.374
175.492
168.607
161.721
154.832
147.943
141.053
134.164
127.276
120.39
113.506
106.624
99.7445
92.866
85.9885
79.1115
72.2344
65.3568
58.4785
51.5992
44.7191
37.8383
30.9573
24.0764
17.1961
10.3168
3.4388
1775.43
-370.536
1010.55
2035.39
2011.51
1701.86
1588.1
1629.97
1672.87
1670.56
1650.73
1637.56
1632.11
1627.63
1621.25
1613.84
1606.61
1599.76
1592.99
1586.14
1579.24
1572.34
1565.46
1558.58
1551.7
1544.82
1537.94
1531.06
1524.18
1517.29
1510.41
1503.53
1496.65
1489.77
1482.89
1476.01
1469.13
1462.24
1455.36
1448.48
1441.6
1434.72
1427.84
1420.96
1414.08
1407.2
1400.32
1393.43
1386.55
1379.67
1372.79
1365.91
1359.03
1352.15
1345.26
1338.38
1331.5
1324.62
1317.74
1310.86
1303.98
1297.1
1290.22
1283.34
1276.45
1269.57
1262.69
1255.81
1248.93
1242.05
1235.17
1228.29
1221.41
1214.53
1207.64
1200.76
1193.88
1187
1180.12
1173.24
1166.36
1159.47
1152.59
1145.71
1138.83
1131.95
1125.07
1118.19
1111.31
1104.42
1097.54
1090.67
1083.79
1076.9
1070.02
1063.14
1056.25
1049.38
1042.5
1035.62
1028.74
1021.85
1014.97
1008.09
1001.21
994.328
987.448
980.567
973.685
966.802
959.92
953.039
946.159
939.279
932.398
925.516
918.634
911.752
904.871
897.991
891.111
884.23
877.348
870.467
863.585
856.703
849.822
842.942
836.061
829.18
822.299
815.418
808.537
801.656
794.775
787.894
781.013
774.132
767.25
760.368
753.487
746.606
739.726
732.845
725.964
719.082
712.2
705.317
698.435
691.554
684.674
677.795
670.915
664.034
657.152
650.269
643.386
636.503
629.621
622.741
615.862
608.984
602.105
595.225
588.342
581.458
574.573
567.689
560.806
553.926
547.047
540.17
533.293
526.414
519.533
512.651
505.766
498.881
491.997
485.114
478.233
471.354
464.476
457.599
450.721
443.841
436.96
430.077
423.193
416.309
409.425
402.542
395.66
388.78
381.901
375.021
368.142
361.261
354.38
347.497
340.614
333.731
326.849
319.968
313.088
306.208
299.33
292.451
285.571
278.691
271.81
264.928
258.045
251.162
244.28
237.398
230.518
223.64
216.762
209.886
203.009
196.133
189.254
182.374
175.492
168.607
161.721
154.833
147.943
141.054
134.165
127.277
120.391
113.507
106.625
99.7453
92.8668
85.9892
79.1121
72.2348
65.3571
58.4785
51.5991
44.7188
37.838
30.9569
24.076
17.1958
10.3166
3.43875
1775.43
-370.533
1010.56
2035.4
2011.51
1701.86
1588.1
1629.96
1672.87
1670.56
1650.73
1637.56
1632.11
1627.63
1621.24
1613.84
1606.61
1599.76
1592.99
1586.14
1579.24
1572.34
1565.46
1558.58
1551.7
1544.82
1537.93
1531.06
1524.18
1517.29
1510.41
1503.53
1496.65
1489.77
1482.89
1476.01
1469.13
1462.25
1455.37
1448.49
1441.6
1434.72
1427.84
1420.96
1414.08
1407.2
1400.32
1393.43
1386.55
1379.67
1372.79
1365.91
1359.03
1352.15
1345.27
1338.38
1331.5
1324.62
1317.74
1310.86
1303.98
1297.1
1290.22
1283.33
1276.45
1269.57
1262.69
1255.81
1248.93
1242.05
1235.17
1228.29
1221.41
1214.53
1207.64
1200.76
1193.88
1187
1180.12
1173.24
1166.36
1159.47
1152.59
1145.71
1138.83
1131.96
1125.07
1118.19
1111.3
1104.42
1097.54
1090.67
1083.79
1076.9
1070.02
1063.14
1056.26
1049.38
1042.5
1035.62
1028.73
1021.85
1014.97
1008.09
1001.21
994.328
987.448
980.566
973.684
966.802
959.921
953.04
946.159
939.278
932.397
925.515
918.634
911.753
904.872
897.992
891.111
884.229
877.348
870.466
863.585
856.704
849.823
842.942
836.061
829.179
822.298
815.418
808.537
801.657
794.776
787.895
781.013
774.131
767.249
760.367
753.486
746.606
739.727
732.846
725.965
719.082
712.199
705.316
698.435
691.554
684.675
677.796
670.916
664.035
657.152
650.268
643.385
636.502
629.62
622.741
615.863
608.985
602.106
595.225
588.341
581.457
574.572
567.688
560.805
553.926
547.048
540.171
533.293
526.414
519.533
512.65
505.765
498.88
491.995
485.113
478.232
471.354
464.476
457.599
450.721
443.841
436.959
430.076
423.192
416.308
409.424
402.542
395.66
388.781
381.901