/*--------------------------------*- C++ -*----------------------------------*\
| =========                 |                                                 |
| \\      /  F ield         | OpenFOAM: The Open Source CFD Toolbox           |
|  \\    /   O peration     | Version:  2406                                  |
|   \\  /    A nd           | Website:  www.openfoam.com                      |
|    \\/     M anipulation  |                                                 |
\*---------------------------------------------------------------------------*/
FoamFile
{
    version     2.0;
    format      ascii;
    arch        "LSB;label=32;scalar=64";
    class       volScalarField;
    location    "0.4";
    object      p_rgh;
}
// * * * * * * * * * * * * * * * * * * * * * * * * * * * * * * * * * * * * * //

dimensions      [1 -1 -2 0 0 0 0];

internalField   nonuniform List<scalar> 
6250
(
-87.7034
-3229.32
-962.013
599.29
525.334
51.5184
-102.336
-21.4233
53.9705
58.617
37.9277
28.4521
30.7428
34.2329
34.7193
33.7121
33.0277
32.9139
32.9281
32.8274
32.6486
32.4771
32.3342
32.2024
32.0684
31.9321
31.7969
31.6641
31.533
31.4027
31.273
31.1439
31.0155
30.8875
30.76
30.6327
30.5058
30.379
30.2524
30.1259
29.9995
29.8731
29.7467
29.6204
29.494
29.3675
29.241
29.1144
28.9878
28.861
28.7341
28.607
28.4798
28.3525
28.2251
28.0975
27.9697
27.8418
27.7137
27.5854
27.4569
27.3283
27.1995
27.0706
26.9414
26.8121
26.6826
26.5529
26.423
26.2929
26.1627
26.0322
25.9016
25.7708
25.6398
25.5086
25.3772
25.2457
25.1139
24.982
24.8499
24.7175
24.585
24.4523
24.3195
24.1864
24.0532
23.9197
23.7861
23.6523
23.5183
23.3841
23.2498
23.1152
22.9805
22.8456
22.7105
22.5752
22.4397
22.3041
22.1683
22.0323
21.8961
21.7597
21.6231
21.4864
21.3495
21.2124
21.0751
20.9377
20.8001
20.6623
20.5243
20.3861
20.2478
20.1093
19.9706
19.8317
19.6927
19.5535
19.4141
19.2745
19.1348
18.9949
18.8548
18.7146
18.5742
18.4336
18.2928
18.1519
18.0107
17.8695
17.728
17.5864
17.4446
17.3027
17.1606
17.0183
16.8758
16.7332
16.5904
16.4475
16.3043
16.161
16.0176
15.874
15.7302
15.5863
15.4422
15.2979
15.1534
15.0089
14.8641
14.7192
14.5741
14.4289
14.2835
14.1379
13.9922
13.8463
13.7003
13.5541
13.4077
13.2612
13.1145
12.9677
12.8207
12.6736
12.5263
12.3788
12.2312
12.0834
11.9355
11.7874
11.6392
11.4908
11.3423
11.1936
11.0447
10.8958
10.7466
10.5973
10.4479
10.2983
10.1485
9.99861
9.84855
9.69834
9.54799
9.3975
9.24686
9.09608
8.94514
8.79407
8.64283
8.49145
8.33992
8.18823
8.03641
7.88444
7.73233
7.58009
7.42772
7.27521
7.12256
6.96976
6.81681
6.66372
6.51047
6.35708
6.20356
6.04991
5.89615
5.74227
5.58828
5.43417
5.27992
5.12553
4.97099
4.81632
4.66152
4.50661
4.35161
4.19654
4.04142
3.88624
3.73099
3.57566
3.42024
3.26474
3.10918
2.95359
2.79804
2.64259
2.48729
2.33222
2.17741
2.02292
1.86883
1.71525
1.56237
1.41042
1.25985
1.11098
0.965277
0.820991
0.688601
0.534017
0.463231
-0.02215
-91.2734
-3236.04
-966.043
598.549
525.108
50.4664
-103.731
-22.5177
53.2345
58.0168
37.3443
27.9016
30.2601
33.8176
34.3527
33.381
32.7281
32.644
32.685
32.6072
32.4482
32.2943
32.1671
32.0494
31.9279
31.8027
31.6775
31.5538
31.4308
31.3079
31.1849
31.0619
30.939
30.8161
30.6932
30.5703
30.4472
30.324
30.2008
30.0774
29.9538
29.8301
29.7062
29.5821
29.4579
29.3334
29.2088
29.0839
28.9589
28.8336
28.7082
28.5825
28.4566
28.3305
28.2042
28.0777
27.951
27.824
27.6968
27.5694
27.4418
27.314
27.186
27.0577
26.9292
26.8006
26.6717
26.5426
26.4133
26.2837
26.154
26.0241
25.8939
25.7636
25.633
25.5022
25.3713
25.2401
25.1087
24.9771
24.8454
24.7134
24.5812
24.4488
24.3162
24.1835
24.0505
23.9173
23.7839
23.6504
23.5166
23.3827
23.2485
23.1142
22.9797
22.845
22.7101
22.575
22.4397
22.3042
22.1685
22.0327
21.8967
21.7604
21.624
21.4875
21.3507
21.2137
21.0766
20.9393
20.8018
20.6641
20.5262
20.3882
20.2499
20.1115
19.9729
19.8342
19.6952
19.5561
19.4168
19.2773
19.1377
18.9979
18.8579
18.7177
18.5773
18.4368
18.2961
18.1553
18.0142
17.873
17.7316
17.5901
17.4484
17.3065
17.1644
17.0222
16.8798
16.7372
16.5945
16.4516
16.3085
16.1652
16.0218
15.8783
15.7345
15.5906
15.4466
15.3023
15.158
15.0134
14.8687
14.7238
14.5788
14.4336
14.2882
14.1427
13.997
13.8511
13.7051
13.559
13.4126
13.2661
13.1195
12.9727
12.8257
12.6786
12.5313
12.3839
12.2363
12.0886
11.9407
11.7926
11.6444
11.4961
11.3476
11.1989
11.0501
10.9011
10.752
10.6027
10.4533
10.3037
10.154
10.0041
9.85405
9.70386
9.55352
9.40303
9.2524
9.10161
8.95069
8.79963
8.64842
8.49706
8.34556
8.19391
8.0421
7.89014
7.73803
7.58578
7.43339
7.28086
7.12821
6.97542
6.82249
6.66943
6.51622
6.36286
6.20935
6.05569
5.90189
5.74795
5.5939
5.43974
5.28546
5.13107
4.97656
4.82192
4.66713
4.51219
4.35712
4.20191
4.0466
3.89121
3.73575
3.58024
3.42467
3.26903
3.1133
2.95745
2.80149
2.64542
2.48926
2.33307
2.17686
2.02067
1.86448
1.70823
1.5518
1.39501
1.23753
1.07891
0.918234
0.754726
0.584162
0.411987
0.20755
0.113155
-91.1011
-3235.3
-965.28
599.002
525.478
50.8739
-103.27
-22.0281
53.7209
58.4792
37.7775
28.3109
30.6501
34.1877
34.7011
33.7076
33.0345
32.9318
32.9554
32.8611
32.6867
32.5185
32.3779
32.2478
32.1148
31.9788
31.8437
31.7106
31.579
31.448
31.3174
31.1874
31.0579
30.9289
30.8002
30.6718
30.5436
30.4157
30.2879
30.1603
30.0327
29.9053
29.7778
29.6504
29.5229
29.3955
29.268
29.1405
29.0128
28.8852
28.7574
28.6295
28.5015
28.3734
28.2452
28.1168
27.9884
27.8597
27.731
27.6021
27.473
27.3438
27.2144
27.0849
26.9552
26.8254
26.6954
26.5652
26.4348
26.3043
26.1736
26.0428
25.9117
25.7805
25.6491
25.5176
25.3859
25.254
25.1219
24.9896
24.8572
24.7245
24.5918
24.4588
24.3256
24.1923
24.0588
23.9251
23.7912
23.6572
23.523
23.3886
23.254
23.1192
22.9843
22.8492
22.7139
22.5784
22.4428
22.307
22.171
22.0348
21.8984
21.7619
21.6252
21.4883
21.3513
21.214
21.0766
20.939
20.8013
20.6633
20.5252
20.387
20.2485
20.1099
19.9711
19.8321
19.6929
19.5536
19.4141
19.2745
19.1346
18.9946
18.8545
18.7141
18.5736
18.4329
18.2921
18.151
18.0098
17.8685
17.7269
17.5853
17.4434
17.3014
17.1592
17.0168
16.8743
16.7316
16.5887
16.4457
16.3025
16.1591
16.0156
15.8719
15.7281
15.5841
15.4399
15.2956
15.1511
15.0064
14.8616
14.7167
14.5715
14.4262
14.2808
14.1351
13.9894
13.8434
13.6973
13.5511
13.4047
13.2581
13.1114
12.9645
12.8175
12.6703
12.5229
12.3754
12.2278
12.08
11.932
11.7839
11.6356
11.4872
11.3386
11.1899
11.041
10.8919
10.7428
10.5934
10.4439
10.2943
10.1445
9.99456
9.84447
9.69423
9.54384
9.39331
9.24262
9.09179
8.94081
8.78968
8.63841
8.48699
8.33543
8.18372
8.03187
7.87988
7.72774
7.57546
7.42303
7.27046
7.11774
6.96488
6.81188
6.65875
6.50547
6.35207
6.19853
6.04486
5.89105
5.7371
5.583
5.42877
5.2744
5.1199
4.96528
4.81054
4.65569
4.50073
4.34564
4.19043
4.03509
3.87961
3.72401
3.56829
3.41248
3.25658
3.1006
2.94455
2.7884
2.63213
2.47574
2.31918
2.16246
2.00555
1.84843
1.69107
1.5334
1.37529
1.21652
1.05686
0.895798
0.733343
0.567354
0.403506
0.223071
0.108876
-91.6124
-3236.54
-966.561
597.966
524.663
50.1559
-103.982
-22.7414
53.0399
57.8486
37.1916
27.7589
30.1275
33.6946
34.2371
33.2708
32.6225
32.5429
32.5879
32.5138
32.3581
32.2072
32.0828
31.9677
31.8487
31.7258
31.6028
31.4812
31.3601
31.2391
31.1178
30.9965
30.8752
30.7538
30.6323
30.5107
30.3889
30.267
30.1449
30.0226
29.9001
29.7774
29.6545
29.5314
29.408
29.2844
29.1606
29.0365
28.9123
28.7877
28.663
28.538
28.4127
28.2873
28.1616
28.0356
27.9094
27.783
27.6564
27.5295
27.4024
27.275
27.1474
27.0196
26.8916
26.7633
26.6349
26.5061
26.3772
26.2481
26.1187
25.9891
25.8593
25.7293
25.599
25.4686
25.3379
25.207
25.0759
24.9446
24.8131
24.6814
24.5495
24.4174
24.2851
24.1525
24.0198
23.8868
23.7537
23.6204
23.4868
23.3531
23.2192
23.085
22.9507
22.8162
22.6815
22.5466
22.4115
22.2762
22.1407
22.005
21.8691
21.7331
21.5969
21.4604
21.3238
21.187
21.05
20.9128
20.7755
20.638
20.5002
20.3623
20.2242
20.086
19.9475
19.8089
19.6701
19.5311
19.3919
19.2526
19.113
18.9733
18.8335
18.6934
18.5532
18.4128
18.2722
18.1315
17.9905
17.8494
17.7082
17.5667
17.4251
17.2833
17.1414
16.9992
16.8569
16.7145
16.5718
16.429
16.2861
16.1429
15.9996
15.8561
15.7125
15.5687
15.4247
15.2806
15.1363
14.9918
14.8472
14.7024
14.5574
14.4123
14.2671
14.1216
13.976
13.8303
13.6843
13.5383
13.392
13.2456
13.099
12.9523
12.8054
12.6584
12.5112
12.3639
12.2164
12.0687
11.9209
11.7729
11.6248
11.4765
11.3281
11.1795
11.0307
10.8818
10.7328
10.5836
10.4342
10.2847
10.1351
9.98524
9.83527
9.68516
9.5349
9.38449
9.23394
9.08324
8.93239
8.78139
8.63023
8.47892
8.32746
8.17585
8.0241
7.87221
7.72019
7.56803
7.41573
7.26329
7.11069
6.95794
6.80504
6.65198
6.49878
6.34544
6.19197
6.03838
5.88467
5.73084
5.57687
5.42276
5.26849
5.11405
4.95946
4.80472
4.64986
4.49489
4.33983
4.18468
4.02941
3.87403
3.7185
3.56279
3.40692
3.25087
3.09468
2.93836
2.78194
2.62542
2.4688
2.31202
2.15503
1.99776
1.84014
1.6821
1.52358
1.36451
1.2048
1.04439
0.883064
0.720949
0.557097
0.394705
0.22523
0.0889935
-91.8791
-3237
-966.841
597.879
524.676
50.1983
-103.924
-22.6545
53.1667
58.0104
37.3763
27.9576
30.3368
33.9128
34.462
33.4996
32.8528
32.773
32.8167
32.7403
32.5815
32.4268
32.2981
32.1784
32.0545
31.9265
31.7983
31.6714
31.5451
31.4188
31.2924
31.166
31.0397
30.9134
30.7872
30.6609
30.5346
30.4083
30.2819
30.1555
30.029
29.9025
29.7758
29.6491
29.5222
29.3953
29.2682
29.1411
29.0138
28.8863
28.7588
28.6311
28.5032
28.3752
28.2471
28.1188
27.9903
27.8617
27.733
27.6041
27.475
27.3458
27.2164
27.0868
26.957
26.8271
26.6971
26.5668
26.4364
26.3058
26.175
26.0441
25.913
25.7817
25.6503
25.5186
25.3868
25.2548
25.1227
24.9903
24.8578
24.7251
24.5923
24.4592
24.326
24.1926
24.059
23.9253
23.7913
23.6572
23.5229
23.3885
23.2538
23.119
22.984
22.8489
22.7135
22.578
22.4423
22.3064
22.1704
22.0341
21.8977
21.7612
21.6244
21.4875
21.3504
21.2131
21.0756
20.938
20.8002
20.6622
20.5241
20.3858
20.2473
20.1086
19.9697
19.8307
19.6915
19.5522
19.4127
19.273
19.1331
18.9931
18.8529
18.7125
18.5719
18.4312
18.2903
18.1493
18.008
17.8667
17.7251
17.5834
17.4415
17.2994
17.1572
17.0148
16.8722
16.7295
16.5866
16.4436
16.3004
16.157
16.0135
15.8697
15.7259
15.5818
15.4377
15.2933
15.1488
15.0041
14.8593
14.7143
14.5691
14.4238
14.2783
14.1327
13.9869
13.8409
13.6948
13.5485
13.4021
13.2555
13.1088
12.9619
12.8148
12.6676
12.5203
12.3727
12.2251
12.0772
11.9293
11.7811
11.6328
11.4844
11.3358
11.187
11.0381
10.8891
10.7399
10.5905
10.441
10.2914
10.1416
9.9916
9.84149
9.69122
9.54081
9.39026
9.23957
9.08873
8.93775
8.78662
8.63534
8.4839
8.33231
8.18057
8.02869
7.87666
7.72449
7.57219
7.41975
7.26718
7.11447
6.96161
6.8086
6.65543
6.50211
6.34864
6.19502
6.04128
5.88741
5.73343
5.57932
5.42509
5.27072
5.11619
4.96149
4.80663
4.65162
4.49646
4.34118
4.18579
4.03031
3.87473
3.71903
3.56319
3.40718
3.25097
3.09456
2.93795
2.78115
2.62419
2.4671
2.30986
2.15245
1.99482
1.83689
1.67858
1.5198
1.36048
1.20058
1.04009
0.878928
0.717335
0.55449
0.393378
0.225351
0.0888427
-92.1084
-3237.47
-967.262
597.54
524.354
49.8581
-104.275
-23.0003
52.8313
57.6832
37.0546
27.6412
30.0266
33.6098
34.1663
33.211
32.5712
32.4984
32.5492
32.4798
32.3278
32.1799
32.0579
31.9446
31.827
31.7053
31.5831
31.462
31.3414
31.2206
31.0995
30.9782
30.8569
30.7355
30.6139
30.4921
30.3701
30.248
30.1257
30.0032
29.8805
29.7576
29.6344
29.5111
29.3876
29.2638
29.1398
29.0155
28.8911
28.7664
28.6415
28.5164
28.391
28.2654
28.1396
28.0136
27.8873
27.7608
27.6341
27.5072
27.38
27.2526
27.125
26.9971
26.8691
26.7408
26.6123
26.4836
26.3546
26.2255
26.0961
25.9665
25.8367
25.7067
25.5765
25.4461
25.3154
25.1846
25.0535
24.9223
24.7908
24.6591
24.5272
24.3951
24.2629
24.1304
23.9977
23.8648
23.7317
23.5984
23.4649
23.3312
23.1974
23.0633
22.929
22.7946
22.6599
22.5251
22.39
22.2548
22.1194
21.9838
21.848
21.712
21.5758
21.4394
21.3029
21.1662
21.0292
20.8921
20.7548
20.6174
20.4797
20.3419
20.2039
20.0657
19.9273
19.7887
19.65
19.511
19.3719
19.2327
19.0932
18.9536
18.8138
18.6738
18.5336
18.3933
18.2528
18.1121
17.9712
17.8302
17.689
17.5476
17.4061
17.2644
17.1225
16.9804
16.8382
16.6958
16.5532
16.4105
16.2676
16.1245
15.9813
15.8379
15.6943
15.5506
15.4067
15.2626
15.1184
14.974
14.8294
14.6847
14.5398
14.3947
14.2495
14.1041
13.9586
13.8129
13.6671
13.521
13.3749
13.2285
13.082
12.9354
12.7885
12.6416
12.4944
12.3472
12.1997
12.0521
11.9044
11.7564
11.6084
11.4602
11.3118
11.1632
11.0146
10.8657
10.7167
10.5676
10.4183
10.2688
10.1192
9.96948
9.81957
9.66951
9.5193
9.36894
9.21844
9.06779
8.91699
8.76604
8.61494
8.46369
8.31229
8.16074
8.00905
7.85721
7.70522
7.55309
7.40082
7.2484
7.09584
6.94313
6.79028
6.63728
6.48414
6.33085
6.17742
6.02385
5.87013
5.71627
5.56227
5.40813
5.25385
5.09944
4.94488
4.79019
4.63534
4.48035
4.3252
4.1699
4.01446
3.85887
3.70315
3.54729
3.39129
3.23514
3.07882
2.92231
2.76559
2.60866
2.4515
2.29412
2.13652
1.97867
1.82058
1.66221
1.5035
1.34441
1.18489
1.02491
0.864401
0.703636
0.541944
0.382481
0.217436
0.0850412
-92.2882
-3237.82
-967.552
597.344
524.203
49.7233
-104.394
-23.0937
52.7663
57.6442
37.038
27.6446
30.0485
33.6485
34.2201
33.278
32.6498
32.5871
32.6465
32.5845
32.4388
32.2961
32.1784
32.0686
31.9537
31.834
31.7133
31.5933
31.4732
31.3526
31.2313
31.1096
30.9876
30.8652
30.7425
30.6195
30.4962
30.3726
30.2488
30.1246
30.0002
29.8756
29.7507
29.6256
29.5003
29.3747
29.2489
29.1229
28.9967
28.8702
28.7436
28.6168
28.4897
28.3625
28.235
28.1074
27.9795
27.8515
27.7233
27.5948
27.4662
27.3374
27.2084
27.0792
26.9498
26.8203
26.6905
26.5606
26.4304
26.3001
26.1696
26.0389
25.908
25.7769
25.6457
25.5142
25.3826
25.2508
25.1188
24.9866
24.8542
24.7216
24.5889
24.456
24.3229
24.1896
24.0561
23.9225
23.7886
23.6546
23.5204
23.386
23.2514
23.1167
22.9818
22.8467
22.7114
22.5759
22.4402
22.3044
22.1684
22.0322
21.8959
21.7593
21.6226
21.4857
21.3486
21.2114
21.074
20.9364
20.7986
20.6606
20.5225
20.3842
20.2457
20.1071
19.9682
19.8292
19.6901
19.5507
19.4112
19.2715
19.1316
18.9916
18.8514
18.711
18.5705
18.4298
18.2889
18.1478
18.0066
17.8652
17.7237
17.5819
17.44
17.298
17.1558
17.0134
16.8708
16.7281
16.5852
16.4421
16.2989
16.1555
16.012
15.8683
15.7244
15.5804
15.4362
15.2918
15.1473
15.0026
14.8577
14.7127
14.5676
14.4222
14.2768
14.1311
13.9853
13.8393
13.6932
13.5469
13.4005
13.2539
13.1072
12.9602
12.8132
12.666
12.5186
12.3711
12.2234
12.0755
11.9275
11.7794
11.6311
11.4826
11.334
11.1853
11.0364
10.8873
10.7381
10.5887
10.4392
10.2895
10.1397
9.98973
9.83961
9.68934
9.53893
9.38838
9.23767
9.08682
8.93581
8.78465
8.63334
8.48188
8.33027
8.17853
8.02664
7.87462
7.72245
7.57015
7.41769
7.26509
7.11232
6.9594
6.80634
6.65312
6.49978
6.3463
6.1927
6.03897
5.8851
5.73108
5.5769
5.42255
5.26804
5.11338
4.95857
4.80364
4.64859
4.49342
4.33813
4.18269
4.02709
3.8713
3.71532
3.55915
3.40281
3.2463
3.08966
2.93289
2.77597
2.61888
2.46159
2.30405
2.14623
1.98811
1.82969
1.67097
1.51198
1.35273
1.19321
1.03343
0.873275
0.712925
0.551478
0.391764
0.22493
0.0891796
-92.4288
-3238.1
-967.788
597.171
524.051
49.5638
-104.56
-23.2572
52.6094
57.4924
36.8888
27.4969
29.9024
33.5042
34.0773
33.1364
32.5091
32.4472
32.5074
32.4462
32.3012
32.1591
32.0421
31.933
31.8189
31.7
31.5802
31.461
31.3419
31.2222
31.102
30.9813
30.8604
30.7392
30.6176
30.4958
30.3737
30.2513
30.1287
30.0058
29.8827
29.7593
29.6357
29.5118
29.3877
29.2634
29.1389
29.0141
28.8891
28.7639
28.6385
28.5129
28.387
28.2609
28.1347
28.0082
27.8814
27.7545
27.6274
27.5
27.3725
27.2447
27.1167
26.9885
26.8601
26.7315
26.6027
26.4737
26.3445
26.2151
26.0854
25.9556
25.8256
25.6953
25.5649
25.4343
25.3035
25.1724
25.0412
24.9098
24.7781
24.6463
24.5143
24.3821
24.2497
24.1171
23.9843
23.8513
23.7181
23.5847
23.4511
23.3174
23.1834
23.0493
22.915
22.7804
22.6457
22.5108
22.3758
22.2405
22.105
21.9694
21.8336
21.6975
21.5613
21.425
21.2884
21.1517
21.0147
20.8776
20.7403
20.6028
20.4652
20.3273
20.1893
20.0511
19.9128
19.7742
19.6355
19.4966
19.3575
19.2182
19.0788
18.9392
18.7994
18.6594
18.5193
18.379
18.2385
18.0978
17.957
17.816
17.6748
17.5335
17.392
17.2503
17.1084
16.9664
16.8242
16.6818
16.5393
16.3966
16.2537
16.1107
15.9675
15.8241
15.6806
15.5369
15.393
15.249
15.1048
14.9604
14.8159
14.6712
14.5264
14.3814
14.2362
14.0909
13.9454
13.7997
13.6539
13.5079
13.3618
13.2155
13.069
12.9224
12.7756
12.6287
12.4816
12.3344
12.187
12.0394
11.8917
11.7438
11.5958
11.4476
11.2993
11.1508
11.0021
10.8533
10.7044
10.5553
10.406
10.2566
10.107
9.95732
9.80745
9.65744
9.50727
9.35697
9.20651
9.0559
8.90514
8.75423
8.60316
8.45193
8.30056
8.14904
7.99737
7.84557
7.69363
7.54155
7.38932
7.23695
7.08442
6.93173
6.77888
6.62588
6.47273
6.31944
6.16602
6.01247
5.8588
5.70498
5.55102
5.3969
5.2426
5.08813
4.9335
4.77871
4.62378
4.46872
4.31355
4.15826
4.00283
3.84724
3.69147
3.53548
3.37928
3.22288
3.06628
2.90953
2.75263
2.5956
2.43842
2.28105
2.12347
1.96562
1.80746
1.64898
1.4902
1.33115
1.17186
1.01241
0.852773
0.693236
0.533134
0.375549
0.212914
0.0829149
-92.5375
-3238.32
-967.97
597.039
523.937
49.4488
-104.673
-23.3613
52.5189
57.4148
36.8224
27.4411
29.8574
33.47
34.0535
33.1224
32.5043
32.4511
32.5194
32.4656
32.3276
32.192
32.0808
31.9771
31.8679
31.7534
31.6376
31.522
31.4061
31.2893
31.1716
31.0532
30.9343
30.8148
30.6948
30.5743
30.4533
30.3319
30.21
30.0878
29.9652
29.8423
29.719
29.5954
29.4714
29.3472
29.2226
29.0978
28.9727
28.8474
28.7217
28.5958
28.4697
28.3433
28.2167
28.0898
27.9627
27.8354
27.7079
27.5801
27.4521
27.3239
27.1954
27.0668
26.9379
26.8088
26.6795
26.55
26.4203
26.2904
26.1603
26.0299
25.8994
25.7687
25.6377
25.5066
25.3753
25.2437
25.112
24.9801
24.848
24.7157
24.5832
24.4505
24.3176
24.1845
24.0512
23.9177
23.7841
23.6502
23.5162
23.3819
23.2475
23.1129
22.9781
22.8431
22.708
22.5726
22.4371
22.3014
22.1655
22.0294
21.8931
21.7567
21.62
21.4832
21.3462
21.2091
21.0717
20.9342
20.7965
20.6586
20.5205
20.3822
20.2438
20.1052
19.9664
19.8275
19.6884
19.5491
19.4096
19.2699
19.1301
18.9901
18.8499
18.7096
18.5691
18.4284
18.2875
18.1465
18.0053
17.8639
17.7224
17.5807
17.4388
17.2968
17.1546
17.0122
16.8696
16.7269
16.584
16.441
16.2978
16.1544
16.0109
15.8672
15.7233
15.5793
15.4351
15.2907
15.1462
15.0015
14.8567
14.7117
14.5665
14.4212
14.2757
14.1301
13.9842
13.8383
13.6922
13.5459
13.3994
13.2528
13.1061
12.9592
12.8121
12.6649
12.5175
12.37
12.2223
12.0745
11.9265
11.7783
11.63
11.4815
11.3329
11.1842
11.0352
10.8862
10.737
10.5876
10.4381
10.2884
10.1386
9.98859
9.83846
9.68819
9.53776
9.3872
9.23648
9.08562
8.9346
8.78344
8.63213
8.48066
8.32905
8.1773
8.0254
7.87335
7.72116
7.56883
7.41635
7.26372
7.11095
6.95803
6.80497
6.65175
6.49839
6.34488
6.19123
6.03744
5.8835
5.72941
5.57519
5.42082
5.2663
5.11164
4.95682
4.80183
4.6467
4.4914
4.33595
4.18035
4.0246
3.86871
3.71267
3.55647
3.40009
3.24353
3.08677
2.92981
2.77265
2.61531
2.45779
2.30009
2.14222
1.98416
1.82589
1.6674
1.50865
1.34966
1.1904
1.03092
0.871145
0.711319
0.550548
0.391599
0.22537
0.0896902
-92.6184
-3238.48
-968.107
596.939
523.85
49.3599
-104.764
-23.4491
52.4372
57.3383
36.7493
27.3705
29.7893
33.4042
33.9897
33.06
32.443
32.3904
32.4592
32.4056
32.2676
32.1317
32.0201
31.9158
31.806
31.6908
31.5742
31.4578
31.341
31.2233
31.1048
30.9855
30.8657
30.7454
30.6246
30.5033
30.3816
30.2595
30.1369
30.0141
29.8909
29.7674
29.6436
29.5195
29.3951
29.2704
29.1455
29.0204
28.895
28.7693
28.6435
28.5174
28.3911
28.2645
28.1378
28.0108
27.8837
27.7563
27.6287
27.5009
27.373
27.2448
27.1164
26.9878
26.859
26.7301
26.6009
26.4716
26.342
26.2123
26.0823
25.9522
25.8219
25.6914
25.5607
25.4298
25.2987
25.1674
25.036
24.9043
24.7725
24.6405
24.5082
24.3758
24.2433
24.1105
23.9775
23.8444
23.7111
23.5775
23.4438
23.3099
23.1759
23.0416
22.9072
22.7726
22.6378
22.5028
22.3676
22.2323
22.0967
21.961
21.8251
21.689
21.5528
21.4163
21.2797
21.1429
21.0059
20.8688
20.7314
20.5939
20.4562
20.3184
20.1803
20.0421
19.9037
19.7651
19.6264
19.4875
19.3483
19.2091
19.0696
18.93
18.7902
18.6502
18.5101
18.3698
18.2293
18.0886
17.9478
17.8068
17.6656
17.5243
17.3828
17.2411
17.0992
16.9572
16.815
16.6727
16.5302
16.3875
16.2446
16.1016
15.9584
15.8151
15.6715
15.5279
15.384
15.24
15.0958
14.9515
14.807
14.6623
14.5175
14.3725
14.2273
14.082
13.9365
13.7909
13.6451
13.4991
13.353
13.2068
13.0603
12.9137
12.767
12.6201
12.473
12.3258
12.1784
12.0309
11.8832
11.7353
11.5873
11.4392
11.2909
11.1424
10.9938
10.845
10.6961
10.547
10.3978
10.2484
10.0988
9.94915
9.79931
9.64932
9.49919
9.3489
9.19846
9.04786
8.89711
8.74621
8.59517
8.44397
8.29263
8.14115
7.98952
7.83775
7.68583
7.53375
7.38152
7.22913
7.0766
6.92391
6.77108
6.61812
6.46502
6.31178
6.15839
6.00485
5.85116
5.69729
5.54326
5.38908
5.23475
5.08028
4.92568
4.77094
4.61607
4.46104
4.30584
4.15045
3.99488
3.83912
3.68319
3.5271
3.37087
3.2145
3.05799
2.90131
2.74445
2.58737
2.43007
2.27253
2.11476
1.9568
1.79866
1.64036
1.48192
1.32334
1.16459
1.0057
0.846585
0.687561
0.528035
0.371199
0.209837
0.0814348
-92.6742
-3238.59
-968.203
596.869
523.79
49.2981
-104.828
-23.5101
52.3817
57.2881
36.7034
27.3285
29.7516
33.3711
33.9612
33.036
32.4232
32.3749
32.4479
32.3984
32.2643
32.1322
32.0243
31.9236
31.8171
31.7052
31.5917
31.4782
31.3643
31.2494
31.1334
31.0167
30.8992
30.7812
30.6625
30.5433
30.4235
30.3032
30.1825
30.0613
29.9397
29.8177
29.6953
29.5726
29.4495
29.3261
29.2023
29.0782
28.9539
28.8292
28.7042
28.579
28.4535
28.3277
28.2016
28.0753
27.9488
27.822
27.6949
27.5676
27.4401
27.3123
27.1843
27.0561
26.9276
26.7989
26.67
26.5408
26.4115
26.2819
26.1521
26.0221
25.8919
25.7614
25.6307
25.4999
25.3688
25.2375
25.106
24.9743
24.8424
24.7103
24.578
24.4455
24.3128
24.1799
24.0468
23.9135
23.78
23.6463
23.5124
23.3783
23.244
23.1095
22.9749
22.84
22.7049
22.5697
22.4343
22.2987
22.1628
22.0269
21.8907
21.7543
21.6178
21.481
21.3441
21.207
21.0697
20.9322
20.7946
20.6568
20.5187
20.3805
20.2422
20.1036
19.9649
19.826
19.6869
19.5476
19.4082
19.2686
19.1288
18.9888
18.8487
18.7084
18.5679
18.4272
18.2864
18.1454
18.0042
17.8629
17.7214
17.5797
17.4378
17.2958
17.1536
17.0113
16.8687
16.726
16.5832
16.4401
16.2969
16.1536
16.0101
15.8664
15.7225
15.5785
15.4343
15.2899
15.1454
15.0008
14.8559
14.7109
14.5658
14.4205
14.275
14.1293
13.9835
13.8376
13.6915
13.5452
13.3987
13.2522
13.1054
12.9585
12.8114
12.6642
12.5168
12.3693
12.2216
12.0738
11.9258
11.7776
11.6293
11.4809
11.3323
11.1835
11.0346
10.8855
10.7363
10.5869
10.4374
10.2877
10.1379
9.98789
9.83777
9.6875
9.53708
9.38652
9.2358
9.08493
8.9339
8.78273
8.6314
8.47993
8.32831
8.17655
8.02465
7.87262
7.72043
7.5681
7.41561
7.26297
7.11017
6.95722
6.80412
6.65088
6.49751
6.344
6.19036
6.03657
5.88264
5.72854
5.57428
5.41985
5.26526
5.11051
4.95562
4.8006
4.64545
4.49017
4.33474
4.17914
4.02337
3.86739
3.71122
3.55486
3.39833
3.24164
3.08482
2.92787
2.77078
2.61352
2.45607
2.2984
2.14049
1.98234
1.82397
1.66542
1.50673
1.34791
1.18898
1.02995
0.870684
0.71136
0.551
0.392291
0.22603
0.0900665
-92.7066
-3238.65
-968.26
596.827
523.755
49.2621
-104.866
-23.5469
52.348
57.2573
36.6743
27.3009
29.7254
33.3464
33.9377
33.0136
32.4016
32.3539
32.4272
32.3779
32.2437
32.1114
32.0031
31.9018
31.7946
31.6818
31.5673
31.4528
31.3378
31.2216
31.1043
30.9862
30.8673
30.7478
30.6277
30.507
30.3857
30.2639
30.1417
30.0191
29.896
29.7726
29.6488
29.5246
29.4002
29.2754
29.1504
29.0251
28.8995
28.7737
28.6476
28.5213
28.3948
28.268
28.141
28.0138
27.8864
27.7588
27.631
27.503
27.3747
27.2463
27.1177
26.9889
26.8599
26.7307
26.6013
26.4718
26.342
26.2121
26.082
25.9517
25.8212
25.6905
25.5596
25.4286
25.2973
25.1659
25.0343
24.9025
24.7706
24.6384
24.5061
24.3736
24.2409
24.108
23.9749
23.8417
23.7083
23.5746
23.4409
23.3069
23.1727
23.0384
22.9039
22.7692
22.6343
22.4993
22.3641
22.2287
22.0931
21.9573
21.8214
21.6852
21.5489
21.4125
21.2758
21.139
21.002
20.8648
20.7274
20.5899
20.4521
20.3142
20.1762
20.0379
19.8995
19.7609
19.6221
19.4832
19.3441
19.2048
19.0653
18.9257
18.7859
18.6459
18.5058
18.3654
18.2249
18.0843
17.9434
17.8024
17.6613
17.5199
17.3784
17.2367
17.0949
16.9528
16.8107
16.6683
16.5258
16.3831
16.2402
16.0972
15.954
15.8107
15.6672
15.5235
15.3796
15.2356
15.0915
14.9471
14.8026
14.658
14.5131
14.3682
14.223
14.0777
13.9322
13.7866
13.6408
13.4949
13.3488
13.2025
13.0561
12.9095
12.7628
12.6159
12.4688
12.3216
12.1742
12.0267
11.879
11.7312
11.5832
11.435
11.2867
11.1383
10.9897
10.8409
10.692
10.5429
10.3937
10.2443
10.0948
9.94511
9.79528
9.64531
9.49518
9.3449
9.19447
9.04389
8.89315
8.74227
8.59123
8.44005
8.28872
8.13724
7.98561
7.83384
7.68192
7.52985
7.37763
7.22526
7.07274
6.92008
6.76726
6.6143
6.46119
6.30793
6.15452
6.00097
5.84726
5.69341
5.53941
5.38526
5.23095
5.07648
4.92186
4.76708
4.61214
4.45704
4.30179
4.14639
3.99083
3.83511
3.67923
3.52316
3.36691
3.21049
3.05388
2.89709
2.74014
2.58302
2.42574
2.26829
2.11066
1.95284
1.79483
1.63662
1.47823
1.31968
1.16098
1.00219
0.843309
0.684647
0.525628
0.3694
0.208754
0.0809524
-92.7172
-3238.68
-968.279
596.813
523.744
49.2504
-104.879
-23.5593
52.3367
57.2471
36.6649
27.292
29.7173
33.3392
33.9315
33.0083
32.3974
32.3507
32.4253
32.3771
32.2443
32.1133
32.0065
31.9067
31.8011
31.6899
31.5771
31.4643
31.351
31.2366
31.1211
31.0048
30.8879
30.7702
30.6519
30.5331
30.4136
30.2937
30.1733
30.0524
29.9311
29.8094
29.6873
29.5648
29.442
29.3188
29.1953
29.0715
28.9473
28.8229
28.6981
28.5731
28.4478
28.3222
28.1964
28.0702
27.9439
27.8172
27.6903
27.5632
27.4358
27.3082
27.1803
27.0522
26.9239
26.7953
26.6665
26.5375
26.4083
26.2788
26.1491
26.0192
25.8891
25.7587
25.6281
25.4974
25.3664
25.2352
25.1038
24.9721
24.8403
24.7083
24.576
24.4436
24.3109
24.1781
24.045
23.9118
23.7783
23.6447
23.5109
23.3768
23.2426
23.1081
22.9735
22.8387
22.7037
22.5685
22.4331
22.2975
22.1617
22.0258
21.8896
21.7533
21.6168
21.4801
21.3432
21.2061
21.0688
20.9314
20.7937
20.6559
20.5179
20.3798
20.2414
20.1029
19.9642
19.8253
19.6862
19.547
19.4076
19.268
19.1282
18.9882
18.8481
18.7078
18.5673
18.4267
18.2859
18.1449
18.0037
17.8624
17.7209
17.5792
17.4373
17.2953
17.1531
17.0108
16.8683
16.7256
16.5827
16.4397
16.2965
16.1532
16.0096
15.8659
15.7221
15.5781
15.4339
15.2896
15.145
15.0004
14.8555
14.7106
14.5654
14.4201
14.2746
14.129
13.9832
13.8372
13.6911
13.5448
13.3984
13.2518
13.1051
12.9582
12.8111
12.6639
12.5165
12.369
12.2213
12.0734
11.9255
11.7773
11.629
11.4805
11.3319
11.1832
11.0343
10.8852
10.736
10.5866
10.4371
10.2874
10.1376
9.98759
9.83747
9.6872
9.53677
9.3862
9.23547
9.0846
8.93357
8.7824
8.63108
8.47962
8.32802
8.17626
8.02436
7.87231
7.72011
7.56775
7.41525
7.26259
7.1098
6.95687
6.8038
6.65058
6.49723
6.34372
6.19005
6.03622
5.88223
5.72809
5.5738
5.41937
5.26482
5.11012
4.95529
4.80029
4.64513
4.48979
4.33426
4.17856
4.0227
3.86668
3.71053
3.55423
3.3978
3.2412
3.08443
2.92746
2.77027
2.61287
2.45528
2.2975
2.13957
1.98149
1.82329
1.66494
1.50645
1.34777
1.1889
1.02983
0.870468
0.711038
0.550615
0.391931
0.225794
0.0899993
-92.7066
-3238.65
-968.26
596.827
523.755
49.2621
-104.866
-23.5469
52.348
57.2573
36.6743
27.3009
29.7254
33.3464
33.9377
33.0136
32.4016
32.3539
32.4272
32.3779
32.2437
32.1114
32.0031
31.9018
31.7946
31.6818
31.5673
31.4528
31.3378
31.2216
31.1043
30.9862
30.8673
30.7478
30.6277
30.507
30.3857
30.2639
30.1417
30.0191
29.896
29.7726
29.6488
29.5246
29.4002
29.2754
29.1504
29.0251
28.8995
28.7737
28.6476
28.5213
28.3948
28.268
28.141
28.0138
27.8864
27.7588
27.631
27.503
27.3747
27.2463
27.1177
26.9889
26.8599
26.7307
26.6013
26.4718
26.342
26.2121
26.082
25.9517
25.8212
25.6905
25.5596
25.4286
25.2973
25.1659
25.0343
24.9025
24.7706
24.6384
24.5061
24.3736
24.2409
24.108
23.9749
23.8417
23.7083
23.5746
23.4409
23.3069
23.1727
23.0384
22.9039
22.7692
22.6343
22.4993
22.3641
22.2287
22.0931
21.9573
21.8214
21.6852
21.5489
21.4125
21.2758
21.139
21.002
20.8648
20.7274
20.5899
20.4521
20.3142
20.1762
20.0379
19.8995
19.7609
19.6221
19.4832
19.3441
19.2048
19.0653
18.9257
18.7859
18.6459
18.5058
18.3654
18.2249
18.0843
17.9434
17.8024
17.6613
17.5199
17.3784
17.2367
17.0949
16.9528
16.8107
16.6683
16.5258
16.3831
16.2402
16.0972
15.954
15.8107
15.6672
15.5235
15.3796
15.2356
15.0915
14.9471
14.8026
14.658
14.5131
14.3682
14.223
14.0777
13.9322
13.7866
13.6408
13.4949
13.3488
13.2025
13.0561
12.9095
12.7628
12.6159
12.4688
12.3216
12.1742
12.0267
11.879
11.7312
11.5832
11.435
11.2867
11.1383
10.9897
10.8409
10.692
10.5429
10.3937
10.2443
10.0948
9.94512
9.7953
9.64532
9.49519
9.34491
9.19447
9.04388
8.89314
8.74225
8.59122
8.44004
8.28872
8.13725
7.98563
7.83386
7.68194
7.52986
7.37763
7.22524
7.07272
6.92005
6.76724
6.61429
6.4612
6.30796
6.15457
6.00101
5.84729
5.69341
5.53938
5.3852
5.23088
5.07642
4.92183
4.76709
4.6122
4.45714
4.30189
4.14646
3.99084
3.83506
3.67911
3.52302
3.3668
3.21043
3.05391
2.89721
2.74031
2.5832
2.42586
2.26831
2.11056
1.95265
1.7946
1.63643
1.47813
1.31971
1.16115
1.00245
0.843574
0.684845
0.525705
0.369353
0.208646
0.0808927
-92.6742
-3238.59
-968.203
596.869
523.79
49.2981
-104.828
-23.5101
52.3817
57.2881
36.7034
27.3285
29.7516
33.3711
33.9612
33.036
32.4232
32.3749
32.4479
32.3984
32.2643
32.1322
32.0243
31.9236
31.8171
31.7052
31.5917
31.4782
31.3643
31.2494
31.1334
31.0167
30.8992
30.7812
30.6625
30.5433
30.4235
30.3032
30.1825
30.0613
29.9397
29.8177
29.6953
29.5726
29.4495
29.3261
29.2023
29.0782
28.9539
28.8292
28.7042
28.579
28.4535
28.3277
28.2016
28.0753
27.9488
27.822
27.6949
27.5676
27.4401
27.3123
27.1843
27.0561
26.9276
26.7989
26.67
26.5408
26.4115
26.2819
26.1521
26.0221
25.8919
25.7614
25.6307
25.4999
25.3688
25.2375
25.106
24.9743
24.8424
24.7103
24.578
24.4455
24.3128
24.1799
24.0468
23.9135
23.78
23.6463
23.5124
23.3783
23.244
23.1095
22.9749
22.84
22.7049
22.5697
22.4343
22.2987
22.1628
22.0269
21.8907
21.7543
21.6178
21.481
21.3441
21.207
21.0697
20.9322
20.7946
20.6568
20.5187
20.3805
20.2422
20.1036
19.9649
19.826
19.6869
19.5476
19.4082
19.2686
19.1288
18.9888
18.8487
18.7084
18.5679
18.4272
18.2864
18.1454
18.0042
17.8629
17.7214
17.5797
17.4378
17.2958
17.1536
17.0113
16.8687
16.726
16.5832
16.4401
16.2969
16.1536
16.0101
15.8664
15.7225
15.5785
15.4343
15.2899
15.1454
15.0008
14.8559
14.7109
14.5658
14.4205
14.275
14.1293
13.9835
13.8376
13.6915
13.5452
13.3987
13.2522
13.1054
12.9585