/*--------------------------------*- C++ -*----------------------------------*\
| =========                 |                                                 |
| \\      /  F ield         | OpenFOAM: The Open Source CFD Toolbox           |
|  \\    /   O peration     | Version:  2406                                  |
|   \\  /    A nd           | Website:  www.openfoam.com                      |
|    \\/     M anipulation  |                                                 |
\*---------------------------------------------------------------------------*/
FoamFile
{
    version     2.0;
    format      ascii;
    arch        "LSB;label=32;scalar=64";
    class       surfaceScalarField;
    location    "0.4";
    object      phi;
}
// * * * * * * * * * * * * * * * * * * * * * * * * * * * * * * * * * * * * * //

dimensions      [0 3 -1 0 0 0 0];

oriented        oriented;

internalField   nonuniform List<scalar> 
12225
(
0.41453
8.39396e-07
0.414525
5.09468e-06
0.414518
6.76447e-06
0.414513
5.12215e-06
0.414509
4.11306e-06
0.414504
4.84845e-06
0.414499
4.8311e-06
0.414495
4.67876e-06
0.41449
5.01264e-06
0.414485
4.99362e-06
0.414479
5.52597e-06
0.414473
5.984e-06
0.414467
5.88632e-06
0.414462
5.26509e-06
0.414458
4.48958e-06
0.414453
4.21382e-06
0.414449
4.47764e-06
0.414444
4.57642e-06
0.41444
4.43505e-06
0.414435
4.54611e-06
0.414431
4.77271e-06
0.414426
4.79848e-06
0.414421
4.88066e-06
0.414416
5.20832e-06
0.41441
5.19806e-06
0.414406
4.82526e-06
0.414401
4.87422e-06
0.414395
5.4546e-06
0.414389
6.12602e-06
0.414383
6.67787e-06
0.414376
6.72593e-06
0.41437
6.09107e-06
0.414364
5.25803e-06
0.41436
4.78707e-06
0.414355
4.84887e-06
0.41435
5.04957e-06
0.414345
5.15708e-06
0.414339
5.52857e-06
0.414333
6.15259e-06
0.414327
6.39067e-06
0.414321
5.96045e-06
0.414315
5.33731e-06
0.41431
5.10923e-06
0.414305
5.38461e-06
0.414299
5.81234e-06
0.414293
6.00363e-06
0.414287
5.76681e-06
0.414282
5.29448e-06
0.414277
4.96235e-06
0.414272
5.00153e-06
0.414267
5.29879e-06
0.414261
5.65178e-06
0.414255
6.02043e-06
0.414249
6.36513e-06
0.414242
6.4561e-06
0.414236
6.096e-06
0.414231
5.48352e-06
0.414226
5.01471e-06
0.414221
4.89365e-06
0.414216
4.9314e-06
0.414211
4.90827e-06
0.414206
4.83746e-06
0.414201
4.77862e-06
0.414197
4.63036e-06
0.414192
4.2615e-06
0.414189
3.7289e-06
0.414185
3.24259e-06
0.414182
2.95115e-06
0.41418
2.8048e-06
0.414177
2.66684e-06
0.414174
2.45546e-06
0.414172
2.17231e-06
0.41417
1.88873e-06
0.414169
1.69249e-06
0.414167
1.59866e-06
0.414166
1.51416e-06
0.414164
1.3369e-06
0.414163
1.08552e-06
0.414162
8.8528e-07
0.414161
8.18932e-07
0.414161
8.28532e-07
0.41416
7.81973e-07
0.414159
6.28837e-07
0.414159
4.60676e-07
0.414158
4.09715e-07
0.414158
5.05844e-07
0.414157
6.28174e-07
0.414157
6.21336e-07
0.414156
4.61221e-07
0.414156
2.78362e-07
0.414156
2.20279e-07
0.414155
3.06571e-07
0.414155
4.20139e-07
0.414154
4.27333e-07
0.414154
3.11055e-07
0.414154
1.75688e-07
0.414154
1.19683e-07
0.414154
1.4686e-07
0.414154
1.91703e-07
0.414153
2.20416e-07
0.414153
2.21332e-07
0.414153
2.0877e-07
0.414153
1.86572e-07
0.414153
1.40853e-07
0.414152
8.32482e-08
0.414152
2.29331e-08
0.414152
8.14653e-09
0.414152
4.46133e-08
0.414152
1.01767e-07
0.414152
1.22048e-07
0.414152
8.1588e-08
0.414152
1.62205e-08
0.414152
-6.45617e-08
0.414152
-1.19255e-07
0.414152
-1.19176e-07
0.414152
-6.39509e-08
0.414152
1.782e-08
0.414152
4.65649e-08
0.414152
-3.29045e-08
0.414153
-2.07084e-07
0.414153
-3.90341e-07
0.414153
-4.92069e-07
0.414154
-4.89921e-07
0.414154
-4.44271e-07
0.414155
-4.39827e-07
0.414155
-5.09214e-07
0.414156
-6.09807e-07
0.414157
-6.69841e-07
0.414157
-6.54927e-07
0.414158
-5.92134e-07
0.414158
-5.41934e-07
0.414159
-5.45424e-07
0.41416
-5.90086e-07
0.41416
-6.22373e-07
0.414161
-5.92315e-07
0.414161
-4.96993e-07
0.414162
-3.85238e-07
0.414162
-3.23263e-07
0.414162
-3.48953e-07
0.414163
-4.49476e-07
0.414163
-5.81836e-07
0.414164
-7.1535e-07
0.414165
-8.41731e-07
0.414166
-9.7272e-07
0.414167
-1.1237e-06
0.414168
-1.29713e-06
0.41417
-1.4865e-06
0.414171
-1.67458e-06
0.414173
-1.83781e-06
0.414175
-1.94372e-06
0.414177
-1.95859e-06
0.414179
-1.86485e-06
0.414181
-1.68076e-06
0.414182
-1.45867e-06
0.414183
-1.26355e-06
0.414185
-1.13654e-06
0.414186
-1.07372e-06
0.414187
-1.03025e-06
0.414188
-9.44999e-07
0.414188
-7.89944e-07
0.414189
-5.81059e-07
0.414189
-3.69922e-07
0.41419
-2.14256e-07
0.41419
-1.37409e-07
0.41419
-1.31018e-07
0.41419
-1.93154e-07
0.41419
-2.84506e-07
0.414191
-3.58652e-07
0.414191
-3.80224e-07
0.414191
-3.39915e-07
0.414192
-2.60959e-07
0.414192
-1.82208e-07
0.414192
-1.28818e-07
0.414192
-8.48483e-08
0.414192
-8.6672e-08
0.414192
-1.48753e-07
0.414193
-2.42954e-07
0.414193
-3.14066e-07
0.414193
-2.9653e-07
0.414193
-1.5794e-07
0.414193
8.31594e-08
0.414193
3.37418e-07
0.414192
5.47156e-07
0.414192
6.79312e-07
0.414191
7.22417e-07
0.41419
6.80846e-07
0.41419
5.81635e-07
0.414189
4.63779e-07
0.414189
3.74242e-07
0.414189
3.49789e-07
0.414188
3.92854e-07
0.414188
4.71496e-07
0.414187
5.39065e-07
0.414187
5.58407e-07
0.414186
5.20601e-07
0.414186
4.52567e-07
0.414185
3.87046e-07
0.414185
3.4325e-07
0.414185
3.01842e-07
0.414184
2.45209e-07
0.414184
1.75346e-07
0.414184
1.31537e-07
0.414184
1.62868e-07
0.414184
2.63259e-07
0.414183
3.69497e-07
0.414183
4.08742e-07
0.414182
3.64435e-07
0.414182
2.8311e-07
0.414182
2.2159e-07
0.414182
2.01463e-07
0.414182
1.89483e-07
0.414181
1.39819e-07
0.414181
7.70396e-08
0.414181
3.06664e-08
0.414181
4.70206e-08
0.414181
1.12e-07
0.414181
1.79176e-07
0.414181
2.14342e-07
0.414181
2.17274e-07
0.41418
2.06509e-07
0.41418
1.8733e-07
0.41418
1.49742e-07
0.41418
9.2661e-08
0.41418
2.56601e-08
0.41418
-3.61593e-08
0.41418
-8.0115e-08
0.41418
-1.011e-07
0.41418
-1.18884e-07
0.41418
-1.29667e-07
0.41418
-1.11596e-07
0.41418
-5.38237e-08
0.41418
3.76336e-08
0.41418
1.17776e-07
0.41418
1.75447e-07
0.41418
1.85315e-07
0.41418
1.60211e-07
0.41418
1.23155e-07
0.41418
9.05995e-08
0.41418
5.65534e-08
0.41418
-5.93185e-09
0.41418
-8.72038e-08
0.41418
-1.63181e-07
0.41418
-2.13452e-07
0.41418
-2.36537e-07
0.41418
-2.40313e-07
0.414181
-2.30316e-07
0.414181
-2.11048e-07
0.414181
-1.7346e-07
0.414181
-1.94751e-07
-1.00282e-07
0.414533
6.12404e-07
0.414537
1.12437e-06
0.414542
1.73888e-06
0.414545
2.30495e-06
0.414547
2.20553e-06
0.414549
2.21293e-06
0.414552
2.5235e-06
0.414553
2.81528e-06
0.414555
3.09064e-06
0.414557
3.0952e-06
0.41456
2.51709e-06
0.414564
2.05116e-06
0.414568
2.11468e-06
0.414571
2.30461e-06
0.414573
2.23026e-06
0.414576
1.81884e-06
0.414579
1.4989e-06
0.414581
1.66417e-06
0.414584
1.88473e-06
0.414587
1.80587e-06
0.41459
1.9262e-06
0.414592
2.42981e-06
0.414594
2.82704e-06
0.414596
3.13318e-06
0.414598
3.5156e-06
0.414599
3.72891e-06
0.4146
3.33486e-06
0.414603
2.50583e-06
0.414608
1.6951e-06
0.414613
1.24021e-06
0.414618
1.47428e-06
0.414623
1.80999e-06
0.414626
1.79776e-06
0.414629
1.72749e-06
0.414632
1.98872e-06
0.414635
2.50499e-06
0.414637
2.83415e-06
0.41464
2.83315e-06
0.414643
2.89885e-06
0.414646
3.30257e-06
0.414648
3.63953e-06
0.41465
3.41093e-06
0.414653
2.71607e-06
0.414656
2.10625e-06
0.41466
1.77251e-06
0.414664
1.64476e-06
0.414668
1.71132e-06
0.414672
1.93486e-06
0.414675
2.15911e-06
0.414677
2.27713e-06
0.41468
2.37623e-06
0.414683
2.48963e-06
0.414687
2.48835e-06
0.414691
2.37414e-06
0.414695
2.41119e-06
0.414698
2.75929e-06
0.414701
3.14251e-06
0.414702
3.20445e-06
0.414704
2.89234e-06
0.414707
2.43014e-06
0.41471
1.9969e-06
0.414713
1.65558e-06
0.414716
1.5268e-06
0.414719
1.73263e-06
0.414721
2.17217e-06
0.414722
2.5245e-06
0.414723
2.5518e-06
0.414724
2.33968e-06
0.414724
2.16439e-06
0.414725
2.17565e-06
0.414725
2.28743e-06
0.414725
2.3313e-06
0.414725
2.24158e-06
0.414724
2.10109e-06
0.414724
2.02525e-06
0.414723
2.03219e-06
0.414722
2.05373e-06
0.414722
2.0545e-06
0.41472
2.08524e-06
0.414719
2.20002e-06
0.414717
2.36416e-06
0.414716
2.48344e-06
0.414714
2.51189e-06
0.414712
2.49243e-06
0.41471
2.49213e-06
0.414708
2.53165e-06
0.414706
2.58164e-06
0.414704
2.60542e-06
0.414702
2.59727e-06
0.414699
2.58478e-06
0.414697
2.59831e-06
0.414695
2.63441e-06
0.414692
2.64456e-06
0.41469
2.5778e-06
0.414688
2.4464e-06
0.414686
2.32559e-06
0.414684
2.27808e-06
0.414682
2.29123e-06
0.41468
2.29168e-06
0.414678
2.23527e-06
0.414676
2.14861e-06
0.414674
2.09529e-06
0.414672
2.1055e-06
0.41467
2.14799e-06
0.414668
2.17238e-06
0.414666
2.1663e-06
0.414663
2.16734e-06
0.414661
2.2024e-06
0.414659
2.256e-06
0.414657
2.28495e-06
0.414655
2.27726e-06
0.414652
2.27436e-06
0.41465
2.32222e-06
0.414648
2.42066e-06
0.414645
2.50193e-06
0.414642
2.4945e-06
0.41464
2.39456e-06
0.414638
2.2502e-06
0.414636
2.113e-06
0.414633
2.00614e-06
0.414631
1.92199e-06
0.414629
1.84741e-06
0.414626
1.77805e-06
0.414624
1.70797e-06
0.414622
1.62109e-06
0.41462
1.50621e-06
0.414618
1.37984e-06
0.414616
1.28418e-06
0.414614
1.25271e-06
0.414613
1.28145e-06
0.414611
1.32894e-06
0.414609
1.34818e-06
0.414607
1.32234e-06
0.414605
1.27542e-06
0.414603
1.25103e-06
0.414601
1.26917e-06
0.4146
1.30962e-06
0.414598
1.30861e-06
0.414596
1.20394e-06
0.414595
9.77803e-07
0.414594
6.72045e-07
0.414593
3.55085e-07
0.414592
9.05061e-08
0.414591
-1.27403e-07
0.41459
-3.27749e-07
0.414589
-5.34603e-07
0.414589
-7.33254e-07
0.414588
-8.77102e-07
0.414587
-9.24901e-07
0.414586
-8.709e-07
0.414585
-7.46293e-07
0.414583
-6.003e-07
0.414582
-4.75466e-07
0.414581
-3.90016e-07
0.41458
-3.4487e-07
0.414579
-3.37725e-07
0.414579
-3.57992e-07
0.414578
-3.81032e-07
0.414577
-3.72158e-07
0.414577
-3.16857e-07
0.414577
-2.2276e-07
0.414576
-1.26411e-07
0.414576
-5.88062e-08
0.414576
-4.90447e-08
0.414576
-1.0126e-07
0.414576
-1.80199e-07
0.414576
-2.60305e-07
0.414576
-3.22897e-07
0.414576
-3.50496e-07
0.414576
-3.39954e-07
0.414576
-3.15152e-07
0.414576
-3.1695e-07
0.414576
-3.69677e-07
0.414577
-4.57561e-07
0.414577
-5.51141e-07
0.414578
-6.26519e-07
0.414578
-6.76676e-07
0.414579
-7.00916e-07
0.414579
-6.86353e-07
0.414579
-6.21485e-07
0.41458
-5.08482e-07
0.414581
-3.7972e-07
0.414582
-2.82641e-07
0.414582
-2.40062e-07
0.414583
-2.30919e-07
0.414584
-2.20668e-07
0.414585
-1.96886e-07
0.414586
-1.77273e-07
0.414586
-1.7347e-07
0.414587
-1.73697e-07
0.414587
-1.53962e-07
0.414588
-1.02273e-07
0.414588
-3.06936e-08
0.414589
3.6517e-08
0.414589
5.70468e-08
0.41459
2.74002e-08
0.41459
-5.04388e-08
0.414591
-1.26306e-07
0.414591
-1.87204e-07
0.414592
-2.15617e-07
0.414592
-2.30268e-07
0.414593
-2.55514e-07
0.414593
-2.87384e-07
0.414594
-2.96157e-07
0.414594
-2.64683e-07
0.414595
-2.0308e-07
0.414595
-1.57511e-07
0.414596
-1.5286e-07
0.414596
-1.81566e-07
0.414597
-1.93813e-07
0.414597
-1.69257e-07
0.414597
-1.28361e-07
0.414597
-9.15758e-08
0.414597
-6.94883e-08
0.414598
-3.63403e-08
0.414598
4.2365e-08
0.414598
1.60484e-07
0.414598
2.91902e-07
0.414597
4.12304e-07
0.414597
5.20205e-07
0.414597
6.29158e-07
0.414596
7.43268e-07
0.414595
8.47804e-07
0.414594
9.22365e-07
0.414593
9.66348e-07
0.414592
1.00577e-06
0.414591
1.06695e-06
0.41459
1.14784e-06
0.414588
1.23288e-06
0.414587
1.31527e-06
0.414586
1.40407e-06
0.414584
1.51411e-06
0.414583
1.6424e-06
0.414581
1.77139e-06
0.414579
1.87087e-06
0.414578
1.92404e-06
0.414576
1.93447e-06
0.414574
1.91926e-06
0.414572
1.8921e-06
0.41457
1.85421e-06
0.414568
1.80274e-06
0.414566
1.73649e-06
0.414565
1.66357e-06
0.414563
1.59351e-06
0.414561
1.52964e-06
0.414559
1.46513e-06
0.414558
1.40003e-06
0.414556
1.31691e-06
0.414555
1.26639e-06
1.09082e-06
0.414533
7.1225e-07
0.414533
1.63344e-06
0.414532
1.91604e-06
0.414532
2.34565e-06
0.414533
1.47552e-06
0.414534
1.52165e-06
0.414535
1.78162e-06
0.414536
1.41429e-06
0.414538
1.53992e-06
0.414539
1.91956e-06
0.414539
2.34701e-06
0.414538
2.71228e-06
0.414537
3.01202e-06
0.414537
3.03865e-06
0.414536
3.07747e-06
0.414534
3.22234e-06
0.414533
3.0708e-06
0.414532
2.85709e-06
0.414531
2.88212e-06
0.41453
2.82656e-06
0.414529
2.51681e-06
0.414529
2.15817e-06
0.41453
1.78414e-06
0.414532
1.64544e-06
0.414533
1.80406e-06
0.414535
2.03593e-06
0.414536
2.42579e-06
0.414536
2.72224e-06
0.414535
2.57867e-06
0.414534
2.13242e-06
0.414534
1.87838e-06
0.414533
2.12263e-06
0.414533
2.46085e-06
0.414532
2.37547e-06
0.414532
2.16816e-06
0.414532
2.20822e-06
0.414533
2.26654e-06
0.414534
2.0181e-06
0.414535
1.5956e-06
0.414537
1.3925e-06
0.414539
1.62736e-06
0.41454
2.1429e-06
0.41454
2.58084e-06
0.41454
2.72552e-06
0.414539
2.6057e-06
0.414538
2.38365e-06
0.414537
2.22476e-06
0.414537
2.1963e-06
0.414537
2.2222e-06
0.414537
2.19984e-06
0.414537
2.15376e-06
0.414538
2.12766e-06
0.414538
2.03486e-06
0.414539
1.79025e-06
0.41454
1.54715e-06
0.414541
1.57164e-06
0.414542
1.89049e-06
0.414543
2.26849e-06
0.414543
2.51727e-06
0.414543
2.6601e-06
0.414542
2.76072e-06
0.414541
2.77056e-06
0.41454
2.64787e-06
0.41454
2.48176e-06
0.414539
2.39194e-06
0.414539
2.37485e-06
0.41454
2.33359e-06
0.41454
2.23e-06
0.41454
2.12208e-06
0.41454
2.06864e-06
0.41454
2.07428e-06
0.41454
2.11857e-06
0.41454
2.17558e-06
0.41454
2.20962e-06
0.41454
2.18656e-06
0.41454
2.09937e-06
0.41454
1.97112e-06
0.41454
1.83372e-06
0.414541
1.70943e-06
0.414541
1.59732e-06
0.414542
1.47799e-06
0.414543
1.34754e-06
0.414545
1.23858e-06
0.414546
1.18651e-06
0.414547
1.17405e-06
0.414549
1.13811e-06
0.41455
1.04869e-06
0.414552
9.58269e-07
0.414553
9.48006e-07
0.414555
1.03466e-06
0.414556
1.15731e-06
0.414558
1.25341e-06
0.414559
1.32174e-06
0.41456
1.40628e-06
0.414561
1.53915e-06
0.414562
1.71113e-06
0.414562
1.88751e-06
0.414563
2.03304e-06
0.414563
2.11979e-06
0.414563
2.13324e-06
0.414563
2.077e-06
0.414563
1.97533e-06
0.414563
1.8642e-06
0.414564
1.76863e-06
0.414564
1.68839e-06
0.414565
1.60953e-06
0.414565
1.52668e-06
0.414566
1.44681e-06
0.414567
1.37511e-06
0.414568
1.30626e-06
0.414569
1.24229e-06
0.41457
1.21456e-06
0.414571
1.26712e-06
0.414572
1.4047e-06
0.414573
1.56023e-06
0.414574
1.6321e-06
0.414575
1.56957e-06
0.414576
1.42339e-06
0.414576
1.30659e-06
0.414577
1.29891e-06
0.414578
1.38234e-06
0.414578
1.46065e-06
0.414578
1.43972e-06
0.414579
1.29323e-06
0.414579
1.06448e-06
0.41458
8.21933e-07
0.414581
6.1122e-07
0.414582
4.39703e-07
0.414583
2.82988e-07
0.414584
1.19106e-07
0.414585
-5.33739e-08
0.414587
-2.0946e-07
0.414588
-3.105e-07
0.41459
-3.24029e-07
0.414591
-2.294e-07
0.414593
-5.24459e-08
0.414594
1.95908e-07
0.414595
4.68447e-07
0.414595
7.21825e-07
0.414595
9.2027e-07
0.414595
1.05041e-06
0.414594
1.1253e-06
0.414593
1.17307e-06
0.414592
1.2019e-06
0.41459
1.20187e-06
0.414588
1.155e-06
0.414587
1.0664e-06
0.414585
9.62134e-07
0.414583
8.71749e-07
0.414581
8.2334e-07
0.41458
8.19576e-07
0.414578
8.26105e-07
0.414577
7.92444e-07
0.414576
6.87628e-07
0.414575
5.22699e-07
0.414574
3.42457e-07
0.414574
1.95423e-07
0.414573
1.06647e-07
0.414573
8.86057e-08
0.414572
1.00565e-07
0.414572
1.44307e-07
0.414572
1.8179e-07
0.414572
1.90754e-07
0.414571
1.41992e-07
0.414571
3.63117e-08
0.414571
-8.08222e-08
0.414571
-1.80667e-07
0.414571
-2.44899e-07
0.414571
-2.74673e-07
0.414571
-2.80147e-07
0.414571
-2.79198e-07
0.414571
-3.00809e-07
0.414571
-3.73357e-07
0.414571
-4.98637e-07
0.414571
-6.41047e-07
0.414571
-7.4852e-07
0.414571
-7.89251e-07
0.414571
-7.71027e-07
0.414571
-7.22197e-07
0.414571
-6.59094e-07
0.414571
-5.78283e-07
0.414571
-4.80795e-07
0.414572
-3.92331e-07
0.414572
-3.47951e-07
0.414572
-3.57904e-07
0.414572
-3.94419e-07
0.414572
-4.14672e-07
0.414572
-3.95956e-07
0.414573
-3.45333e-07
0.414573
-2.83749e-07
0.414573
-2.24782e-07
0.414573
-1.68926e-07
0.414573
-1.13503e-07
0.414573
-6.20481e-08
0.414573
-3.17055e-08
0.414573
-3.95937e-08
0.414573
-9.41507e-08
0.414573
-1.85914e-07
0.414573
-2.89818e-07
0.414574
-3.68155e-07
0.414574
-3.99731e-07
0.414574
-3.97193e-07
0.414574
-3.8878e-07
0.414574
-3.87507e-07
0.414574
-3.80999e-07
0.414574
-3.47776e-07
0.414574
-2.9059e-07
0.414575
-2.38309e-07
0.414575
-2.20278e-07
0.414575
-2.25811e-07
0.414575
-2.23931e-07
0.414575
-1.853e-07
0.414575
-1.13304e-07
0.414575
-1.73226e-08
0.414575
6.70277e-08
0.414574
1.75123e-07
0.414574
3.19008e-07
0.414574
4.98514e-07
0.414574
6.9139e-07
0.414573
8.73464e-07
0.414573
1.03814e-06
0.414573
1.19193e-06
0.414572
1.33598e-06
0.414572
1.45958e-06
0.414571
1.55366e-06
0.41457
1.6274e-06
0.41457
1.70768e-06
0.414569
1.8178e-06
0.414568
1.95965e-06
0.414567
2.11706e-06
0.414567
2.27298e-06
0.414566
2.42374e-06
0.414565
2.57446e-06
0.414564
2.72359e-06
0.414563
2.85398e-06
0.414562
2.94087e-06
0.414561
2.96951e-06
0.41456
2.94545e-06
0.414559
2.88821e-06
0.414558
2.81784e-06
0.414557
2.74586e-06
0.414556
2.67466e-06
0.414555
2.60487e-06
0.414554
2.53794e-06
0.414553
2.47305e-06
0.414552
2.40047e-06
0.414551
2.31499e-06
0.41455
2.18724e-06
0.41455
2.08659e-06
1.76706e-06
0.414532
-6.1669e-07
0.414534
-1.84802e-07
0.414535
3.15646e-07
0.414536
1.48841e-06
0.414536
2.00877e-06
0.414535
1.88439e-06
0.414536
1.58106e-06
0.414535
1.6162e-06
0.414535
1.81871e-06
0.414535
1.87382e-06
0.414536
1.85646e-06
0.414537
1.46519e-06
0.414539
1.33777e-06
0.41454
1.70618e-06
0.414541
2.06243e-06
0.414542
2.09579e-06
0.414543
1.96484e-06
0.414544
1.95771e-06
0.414545
2.14758e-06
0.414545
2.18786e-06
0.414546
2.01706e-06
0.414546
2.11997e-06
0.414545
2.21004e-06
0.414545
1.75801e-06
0.414546
1.36483e-06
0.414547
1.16793e-06
0.414548
1.02155e-06
0.414549
1.44765e-06
0.41455
2.18062e-06
0.414549
2.43244e-06
0.414549
2.36958e-06
0.414549
2.4026e-06
0.414549
2.56073e-06
0.414548
2.59732e-06
0.414548
2.32013e-06
0.414548
2.00174e-06
0.414549
2.07564e-06
0.414548
2.35781e-06
0.414548
2.26034e-06
0.414547
1.74866e-06
0.414548
1.34749e-06
0.414548
1.32185e-06
0.414549
1.47253e-06
0.414551
1.58171e-06
0.414551
1.71678e-06
0.414552
1.89945e-06
0.414552
2.01566e-06
0.414552
2.05574e-06
0.414552
2.08271e-06
0.414553
2.04887e-06
0.414553
1.90543e-06
0.414553
1.78515e-06
0.414553
1.83277e-06
0.414553
1.9366e-06
0.414553
1.88027e-06
0.414553
1.67724e-06
0.414553
1.52953e-06
0.414554
1.52061e-06
0.414555
1.54793e-06
0.414556
1.56755e-06
0.414557
1.68636e-06
0.414558
1.93645e-06
0.414558
2.14258e-06
0.414559
2.11929e-06
0.414559
1.9098e-06
0.41456
1.73814e-06
0.41456
1.75762e-06
0.414561
1.92541e-06
0.414561
2.09022e-06
0.414561
2.13797e-06
0.414561
2.07774e-06
0.414561
2.01041e-06
0.414561
2.01113e-06
0.414561
2.05363e-06
0.414561
2.06159e-06
0.414561
2.01318e-06
0.414561
1.95763e-06
0.414561
1.93298e-06
0.414561
1.91351e-06
0.414561
1.85141e-06
0.414561
1.74608e-06
0.41456
1.65427e-06
0.41456
1.63678e-06
0.414559
1.70363e-06
0.414559
1.80124e-06
0.414558
1.85491e-06
0.414557
1.8394e-06
0.414556
1.80693e-06
0.414555
1.83186e-06
0.414555
1.92136e-06
0.414554
1.99539e-06
0.414553
1.96967e-06
0.414552
1.84712e-06
0.414552
1.7138e-06
0.414552
1.65068e-06
0.414552
1.66163e-06
0.414552
1.6897e-06
0.414553
1.68756e-06
0.414553
1.65878e-06
0.414554
1.63814e-06
0.414554
1.64523e-06
0.414554
1.66741e-06
0.414555
1.68542e-06
0.414555
1.70197e-06
0.414555
1.73723e-06
0.414554
1.80027e-06
0.414554
1.87335e-06
0.414554
1.92868e-06
0.414553
1.95649e-06
0.414552
1.97264e-06
0.414552
2.00142e-06
0.414551
2.05661e-06
0.41455
2.1349e-06
0.414549
2.21548e-06
0.414548
2.26118e-06
0.414548
2.22985e-06
0.414547
2.10579e-06
0.414547
1.93074e-06
0.414546
1.79545e-06
0.414546
1.78292e-06
0.414545
1.90557e-06
0.414545
2.0907e-06
0.414544
2.23358e-06
0.414543
2.27968e-06
0.414542
2.26042e-06
0.41454
2.25591e-06
0.414538
2.32314e-06
0.414536
2.45079e-06
0.414534
2.5681e-06
0.414532
2.59743e-06
0.414529
2.50516e-06
0.414527
2.31989e-06
0.414524
2.10878e-06
0.414522
1.93094e-06
0.41452
1.80143e-06
0.414518
1.68672e-06
0.414517
1.54553e-06
0.414516
1.35139e-06
0.414515
1.10581e-06
0.414516
8.30232e-07
0.414516
5.44489e-07
0.414517
2.5899e-07
0.414518
-1.89296e-08
0.41452
-3.03936e-07
0.414521
-5.96718e-07
0.414523
-9.04744e-07
0.414526
-1.2304e-06
0.414528
-1.55319e-06
0.414531
-1.82414e-06
0.414534
-2.00167e-06
0.414537
-2.07833e-06
0.41454
-2.08507e-06
0.414543
-2.07857e-06
0.414545
-2.1077e-06
0.414548
-2.18026e-06
0.414551
-2.25624e-06
0.414553
-2.27196e-06
0.414555
-2.17616e-06
0.414557
-1.94985e-06
0.414559
-1.63161e-06
0.414561
-1.29896e-06
0.414562
-1.03322e-06
0.414563
-8.75285e-07
0.414564
-8.33918e-07
0.414565
-8.80465e-07
0.414566
-9.57755e-07
0.414566
-1.01326e-06
0.414567
-1.01888e-06
0.414568
-9.8122e-07
0.414569
-9.27385e-07
0.414569
-8.82568e-07
0.41457
-8.62025e-07
0.41457
-8.75255e-07
0.414571
-9.25585e-07
0.414571
-9.99253e-07
0.414571
-1.05882e-06
0.414572
-1.05942e-06
0.414572
-9.81247e-07
0.414572
-8.46922e-07
0.414572
-7.03437e-07
0.414572
-5.86425e-07
0.414572
-5.02566e-07
0.414572
-4.43894e-07
0.414572
-4.10183e-07
0.414572
-4.10686e-07
0.414572
-4.4532e-07
0.414572
-4.91386e-07
0.414572
-5.13951e-07
0.414573
-4.88595e-07
0.414573
-4.15614e-07
0.414573
-3.16537e-07
0.414573
-2.1962e-07
0.414573
-1.46996e-07
0.414573
-1.09904e-07
0.414573
-1.04407e-07
0.414573
-1.27777e-07
0.414573
-1.75386e-07
0.414573
-2.47174e-07
0.414573
-3.37306e-07
0.414573
-4.2475e-07
0.414573
-4.79415e-07
0.414574
-4.85335e-07
0.414574
-4.53783e-07
0.414574
-4.13574e-07
0.414574
-3.84459e-07
0.414574
-3.61233e-07
0.414574
-3.2702e-07
0.414574
-2.7904e-07
0.414574
-2.36964e-07
0.414574
-2.17271e-07
0.414574
-2.12677e-07
0.414574
-1.90623e-07
0.414574
-1.27147e-07
0.414574
-8.70856e-09
0.414574
1.36513e-07
0.414574
3.0217e-07
0.414573
4.91516e-07
0.414573
7.14455e-07
0.414573
9.66252e-07
0.414572
1.2224e-06
0.414572
1.45608e-06
0.414572
1.65768e-06
0.414571
1.83525e-06
0.414571
1.9985e-06
0.41457
2.14711e-06
0.414569
2.27711e-06
0.414569
2.396e-06
0.414568
2.52509e-06
0.414567
2.68514e-06
0.414566
2.88006e-06
0.414566
3.09318e-06
0.414565
3.29927e-06
0.414564
3.4805e-06
0.414563
3.6315e-06
0.414562
3.7517e-06
0.414561
3.83534e-06
0.41456
3.872e-06
0.414559
3.85624e-06
0.414558
3.79571e-06
0.414558
3.7097e-06
0.414557
3.61852e-06
0.414556
3.53296e-06
0.414555
3.45376e-06
0.414554
3.37732e-06
0.414553
3.29942e-06
0.414552
3.21132e-06
0.414552
3.10751e-06
0.414551
2.9451e-06
0.41455
2.82019e-06
2.33615e-06
0.414533
-2.47889e-08
0.414532
2.37595e-07
0.414532
5.38335e-07
0.414532
1.02725e-06
0.414533
1.20889e-06
0.414533
1.63661e-06
0.414533
1.84642e-06
0.414533
1.8481e-06
0.414533
1.64783e-06
0.414534
1.34074e-06
0.414534
1.30973e-06
0.414534
1.35732e-06
0.414534
1.25802e-06
0.414535
1.05398e-06
0.414536
8.75386e-07
0.414537
1.20878e-06
0.414537
1.69055e-06
0.414538
1.66941e-06
0.414538
1.4174e-06
0.414539
1.61701e-06
0.414539
1.86804e-06
0.414539
1.73708e-06
0.41454
1.76004e-06
0.41454
2.05363e-06
0.414539
2.28878e-06
0.414537
2.40953e-06
0.414536
2.13849e-06
0.414536
1.68021e-06
0.414537
1.6635e-06
0.414537
1.81034e-06
0.414538
1.62289e-06
0.414539
1.35855e-06
0.41454
1.45572e-06
0.414541
1.71133e-06
0.414542
1.63391e-06
0.414542
1.32047e-06
0.414543
1.24e-06
0.414544
1.54639e-06
0.414544
1.92738e-06
0.414544
2.14124e-06
0.414543
2.16843e-06
0.414542
2.09255e-06
0.414542
1.97347e-06
0.414542
1.86489e-06
0.414541
1.83191e-06
0.414542
1.84878e-06
0.414542
1.81625e-06
0.414542
1.74665e-06
0.414542
1.70876e-06
0.414543
1.68645e-06
0.414543
1.62623e-06
0.414543
1.61204e-06
0.414543
1.7699e-06
0.414543
2.02942e-06
0.414543
2.14766e-06
0.414543
2.00742e-06
0.414542
1.75124e-06
0.414542
1.52771e-06
0.414543
1.31149e-06
0.414543
1.07789e-06
0.414544
9.51876e-07
0.414545
1.04748e-06
0.414546
1.25933e-06
0.414546
1.36705e-06
0.414547
1.31296e-06
0.414547
1.26069e-06
0.414548
1.34663e-06
0.414548
1.52005e-06
0.414549
1.62751e-06
0.414549
1.58947e-06
0.41455
1.45051e-06
0.414551
1.30633e-06
0.414551
1.21855e-06
0.414552
1.1865e-06
0.414553
1.18376e-06
0.414554
1.20748e-06
0.414555
1.27936e-06
0.414555
1.39839e-06
0.414556
1.52046e-06
0.414556
1.60623e-06
0.414556
1.66797e-06
0.414556
1.74461e-06
0.414556
1.8413e-06
0.414555
1.91521e-06
0.414555
1.92143e-06
0.414555
1.85687e-06
0.414555
1.75619e-06
0.414555
1.66126e-06
0.414556
1.59678e-06
0.414556
1.55552e-06
0.414557
1.50033e-06
0.414557
1.39175e-06
0.414558
1.22441e-06
0.414558
1.03892e-06
0.414559
8.89476e-07
0.41456
7.97136e-07
0.414561
7.42315e-07
0.414562
6.98046e-07
0.414563
6.63137e-07
0.414564
6.61582e-07
0.414565
7.11542e-07
0.414566
8.03542e-07
0.414567
9.13523e-07
0.414567
1.02881e-06
0.414568
1.15258e-06
0.414568
1.27941e-06
0.414569
1.37489e-06
0.414569
1.39473e-06
0.41457
1.32894e-06
0.414571
1.22397e-06
0.414572
1.15047e-06
0.414572
1.14083e-06
0.414573
1.16021e-06
0.414575
1.1372e-06
0.414576
1.02265e-06
0.414577
8.2335e-07
0.414579
5.9193e-07
0.41458
3.92514e-07
0.414582
2.69159e-07
0.414583
2.28978e-07
0.414585
2.45197e-07
0.414587
2.73443e-07
0.414589
2.67385e-07
0.414591
2.21703e-07
0.414593
1.81508e-07
0.414595
2.15637e-07
0.414597
3.70797e-07
0.414599
6.35883e-07
0.4146
9.48873e-07
0.414602
1.2373e-06
0.414603
1.46055e-06
0.414603
1.62773e-06
0.414604
1.78248e-06
0.414604
1.9641e-06
0.414603
2.172e-06
0.414603
2.35924e-06
0.414602
2.46192e-06
0.414601
2.44423e-06
0.414599
2.30003e-06
0.414598
2.06173e-06
0.414597
1.78135e-06
0.414596
1.49206e-06
0.414595
1.19654e-06
0.414593
8.74876e-07
0.414592
5.21663e-07
0.414591
1.49769e-07
0.41459
-1.95323e-07
0.414589
-4.76812e-07
0.414588
-6.65989e-07
0.414587
-7.64217e-07
0.414585
-7.91656e-07
0.414584
-7.82526e-07
0.414583
-7.79021e-07
0.414581
-8.10845e-07
0.41458
-8.7845e-07
0.414579
-9.50272e-07
0.414578
-9.75358e-07
0.414576
-9.09582e-07
0.414575
-7.42788e-07
0.414574
-5.15213e-07
0.414573
-3.00185e-07
0.414572
-1.62494e-07
0.414571
-1.27579e-07
0.414571
-1.8953e-07
0.41457
-3.09594e-07
0.41457
-4.36859e-07
0.414569
-5.24974e-07
0.414569
-5.49766e-07
0.414568
-5.23065e-07
0.414568
-4.87511e-07
0.414567
-4.89775e-07
0.414567
-5.52651e-07
0.414567
-6.67628e-07
0.414567
-8.09568e-07
0.414567
-9.53822e-07
0.414567
-1.07738e-06
0.414567
-1.15254e-06
0.414567
-1.15422e-06
0.414567
-1.0809e-06
0.414567
-9.65122e-07
0.414568
-8.56484e-07
0.414568
-7.89922e-07
0.414568
-7.69032e-07
0.414569
-7.76661e-07
0.414569
-7.95868e-07
0.41457
-8.18278e-07
0.41457
-8.36218e-07
0.41457
-8.34561e-07
0.41457
-7.95162e-07
0.414571
-7.09917e-07
0.414571
-5.89362e-07
0.414571
-4.59221e-07
0.414571
-3.4952e-07
0.414572
-2.83415e-07
0.414572
-2.68609e-07
0.414572
-2.96897e-07
0.414572
-3.47871e-07
0.414572
-4.03892e-07
0.414572
-4.5862e-07
0.414573
-5.10905e-07
0.414573
-5.52404e-07
0.414573
-5.65488e-07
0.414573
-5.37615e-07
0.414573
-4.7756e-07
0.414573
-4.12517e-07
0.414573
-3.65427e-07
0.414573
-3.36638e-07
0.414573
-3.09646e-07
0.414573
-2.72587e-07
0.414573
-2.30651e-07
0.414573
-1.92098e-07
0.414573
-1.52958e-07
0.414573
-8.98609e-08
0.414573
2.5064e-08
0.414573
1.96814e-07
0.414573
4.1445e-07
0.414572
6.63253e-07
0.414572
9.37427e-07
0.414572
1.2356e-06
0.414572
1.5471e-06
0.414571
1.84841e-06
0.414571
2.11634e-06
0.41457
2.34367e-06
0.41457
2.54059e-06
0.414569
2.7222e-06
0.414569
2.89716e-06
0.414568
3.06832e-06
0.414567
3.24095e-06
0.414566
3.42651e-06
0.414566
3.63606e-06
0.414565
3.86828e-06
0.414564
4.1046e-06
0.414563
4.31762e-06
0.414562
4.48539e-06
0.414562
4.59916e-06
0.414561
4.66039e-06
0.41456
4.67364e-06
0.414559
4.64331e-06
0.414558
4.57617e-06
0.414558
4.48483e-06
0.414557
4.38619e-06
0.414556
4.29428e-06
0.414555
4.21375e-06
0.414555
4.13979e-06
0.414554
4.06239e-06
0.414553
3.96726e-06
0.414552
3.84527e-06
0.414552
3.64491e-06
0.414551
3.49211e-06
2.8348e-06
0.414535
6.11974e-07
0.414534
1.01248e-06
0.414534
5.94024e-07
0.414534
4.46474e-07
0.414535
8.59932e-07
0.414535
1.11042e-06
0.414536
1.39639e-06
0.414536
1.15115e-06
0.414537
1.23268e-06
0.414537
1.55971e-06
0.414536
1.87543e-06
0.414535
2.14985e-06
0.414534
2.24953e-06
0.414533
2.34213e-06
0.414532
2.25155e-06
0.414531
1.8334e-06
0.414531
1.45125e-06
0.414532
1.22733e-06
0.414532
1.18757e-06
0.414532
1.33199e-06
0.414533
1.29908e-06
0.414533
1.2304e-06
0.414534
1.20552e-06
0.414535
1.21561e-06
0.414535
1.39414e-06
0.414536
1.56571e-06
0.414537
1.58698e-06
0.414537
1.55026e-06
0.414537
1.52489e-06
0.414537
1.55094e-06
0.414537
1.58711e-06
0.414537
1.46486e-06
0.414537
1.29789e-06
0.414538
1.42963e-06
0.414538
1.74171e-06
0.414537
1.81686e-06
0.414537
1.54452e-06
0.414537
1.26754e-06
0.414538
1.18825e-06
0.414539
1.23375e-06
0.41454
1.22634e-06
0.414541
1.1832e-06
0.414541
1.20746e-06
0.414542
1.27195e-06
0.414542
1.32318e-06
0.414543
1.38969e-06
0.414543
1.47944e-06
0.414544
1.50665e-06
0.414544
1.44501e-06
0.414544
1.40179e-06
0.414544
1.44085e-06
0.414544
1.47278e-06
0.414545
1.42889e-06
0.414545
1.39051e-06
0.414546
1.46149e-06
0.414546
1.61697e-06
0.414546
1.75557e-06
0.414546
1.83017e-06
0.414546
1.85773e-06
0.414545
1.85398e-06
0.414544
1.80412e-06
0.414543
1.69384e-06
0.414543
1.53825e-06
0.414543
1.38465e-06
0.414543
1.29248e-06
0.414543
1.29349e-06
0.414543
1.33921e-06
0.414543
1.346e-06
0.414544
1.29124e-06
0.414544
1.23898e-06
0.414544
1.25057e-06
0.414544
1.31117e-06
0.414544
1.37088e-06
0.414544
1.4134e-06
0.414543
1.45312e-06
0.414543
1.48358e-06
0.414543
1.46446e-06
0.414543
1.36082e-06
0.414543
1.18093e-06
0.414544
9.79725e-07
0.414545
8.25964e-07
0.414546
7.50982e-07
0.414547
7.20297e-07
0.414548
6.68733e-07
0.41455
5.73674e-07
0.414551
4.83896e-07
0.414552
4.67718e-07
0.414553
5.43246e-07
0.414554
6.73177e-07
0.414555
8.15837e-07
0.414556
9.59934e-07
0.414556
1.10992e-06
0.414556
1.25808e-06
0.414555
1.38481e-06
0.414555
1.48023e-06
0.414554
1.55292e-06
0.414553
1.61418e-06
0.414552
1.658e-06
0.414551
1.66098e-06
0.41455
1.60331e-06
0.41455
1.48976e-06
0.414549
1.35173e-06
0.414549
1.23061e-06
0.414549
1.15724e-06
0.414549
1.14035e-06
0.414549
1.16431e-06
0.414549
1.19487e-06
0.414549
1.19748e-06
0.414549
1.16867e-06
0.414549
1.15103e-06
0.414549
1.20629e-06
0.414549
1.36078e-06
0.414549
1.56773e-06
0.414548
1.73051e-06
0.414547
1.77496e-06
0.414546
1.70892e-06
0.414545
1.61596e-06
0.414544
1.58769e-06
0.414543
1.65415e-06
0.414541
1.7679e-06
0.41454
1.84731e-06
0.414538
1.83675e-06
0.414537
1.73646e-06
0.414535
1.59594e-06
0.414534
1.47946e-06
0.414533
1.42792e-06
0.414532
1.43768e-06
0.414531
1.46495e-06
0.41453
1.45435e-06
0.41453
1.37287e-06
0.41453
1.22753e-06
0.414531
1.05675e-06
0.414532
9.02836e-07
0.414533
7.86412e-07
0.414534
6.96673e-07
0.414536