/*--------------------------------*- C++ -*----------------------------------*\
| =========                 |                                                 |
| \\      /  F ield         | OpenFOAM: The Open Source CFD Toolbox           |
|  \\    /   O peration     | Version:  2406                                  |
|   \\  /    A nd           | Website:  www.openfoam.com                      |
|    \\/     M anipulation  |                                                 |
\*---------------------------------------------------------------------------*/
FoamFile
{
    version     2.0;
    format      ascii;
    arch        "LSB;label=32;scalar=64";
    class       surfaceScalarField;
    location    "0.4";
    object      phi;
}
// * * * * * * * * * * * * * * * * * * * * * * * * * * * * * * * * * * * * * //

dimensions      [0 3 -1 0 0 0 0];

oriented        oriented;

internalField   nonuniform List<scalar> 
12225
(
5.08735e-05
5.16936e-09
5.08563e-05
1.72146e-08
5.08353e-05
2.09552e-08
5.08162e-05
1.9134e-08
5.07974e-05
1.87848e-08
5.07767e-05
2.07117e-08
5.07541e-05
2.25787e-08
5.07306e-05
2.34889e-08
5.07068e-05
2.38572e-08
5.06826e-05
2.42276e-08
5.06579e-05
2.46842e-08
5.06328e-05
2.50972e-08
5.06074e-05
2.54047e-08
5.05817e-05
2.56358e-08
5.05559e-05
2.58308e-08
5.05299e-05
2.60032e-08
5.05038e-05
2.61514e-08
5.04775e-05
2.62748e-08
5.04511e-05
2.63776e-08
5.04246e-05
2.64646e-08
5.03981e-05
2.65389e-08
5.03715e-05
2.66021e-08
5.03448e-05
2.66558e-08
5.03181e-05
2.67012e-08
5.02914e-05
2.67397e-08
5.02646e-05
2.67723e-08
5.02378e-05
2.67999e-08
5.0211e-05
2.6823e-08
5.01842e-05
2.68424e-08
5.01573e-05
2.68585e-08
5.01304e-05
2.68717e-08
5.01035e-05
2.68825e-08
5.00767e-05
2.68912e-08
5.00498e-05
2.68979e-08
5.00229e-05
2.69031e-08
4.99959e-05
2.69068e-08
4.9969e-05
2.69092e-08
4.99421e-05
2.69106e-08
4.99152e-05
2.69109e-08
4.98883e-05
2.69105e-08
4.98614e-05
2.69093e-08
4.98345e-05
2.69074e-08
4.98076e-05
2.6905e-08
4.97807e-05
2.6902e-08
4.97538e-05
2.68986e-08
4.97269e-05
2.68948e-08
4.97e-05
2.68906e-08
4.96731e-05
2.68861e-08
4.96462e-05
2.68813e-08
4.96194e-05
2.68763e-08
4.95925e-05
2.68711e-08
4.95656e-05
2.68657e-08
4.95388e-05
2.68601e-08
4.95119e-05
2.68543e-08
4.94851e-05
2.68484e-08
4.94582e-05
2.68424e-08
4.94314e-05
2.68363e-08
4.94045e-05
2.68301e-08
4.93777e-05
2.68238e-08
4.93509e-05
2.68174e-08
4.93241e-05
2.6811e-08
4.92973e-05
2.68045e-08
4.92705e-05
2.67979e-08
4.92437e-05
2.67913e-08
4.92169e-05
2.67847e-08
4.91901e-05
2.6778e-08
4.91634e-05
2.67712e-08
4.91366e-05
2.67645e-08
4.91098e-05
2.67577e-08
4.90831e-05
2.67509e-08
4.90563e-05
2.6744e-08
4.90296e-05
2.67372e-08
4.90029e-05
2.67303e-08
4.89762e-05
2.67234e-08
4.89494e-05
2.67165e-08
4.89227e-05
2.67095e-08
4.8896e-05
2.67026e-08
4.88693e-05
2.66956e-08
4.88426e-05
2.66887e-08
4.8816e-05
2.66817e-08
4.87893e-05
2.66747e-08
4.87626e-05
2.66677e-08
4.8736e-05
2.66607e-08
4.87093e-05
2.66537e-08
4.86827e-05
2.66467e-08
4.8656e-05
2.66396e-08
4.86294e-05
2.66326e-08
4.86028e-05
2.66255e-08
4.85761e-05
2.66185e-08
4.85495e-05
2.66114e-08
4.85229e-05
2.66044e-08
4.84963e-05
2.65973e-08
4.84697e-05
2.65903e-08
4.84432e-05
2.65832e-08
4.84166e-05
2.65761e-08
4.839e-05
2.6569e-08
4.83635e-05
2.65619e-08
4.83369e-05
2.65548e-08
4.83103e-05
2.65478e-08
4.82838e-05
2.65407e-08
4.82573e-05
2.65336e-08
4.82307e-05
2.65264e-08
4.82042e-05
2.65193e-08
4.81777e-05
2.65122e-08
4.81512e-05
2.65051e-08
4.81247e-05
2.6498e-08
4.80982e-05
2.64909e-08
4.80717e-05
2.64837e-08
4.80453e-05
2.64766e-08
4.80188e-05
2.64695e-08
4.79923e-05
2.64623e-08
4.79659e-05
2.64552e-08
4.79394e-05
2.64481e-08
4.7913e-05
2.64409e-08
4.78866e-05
2.64338e-08
4.78601e-05
2.64266e-08
4.78337e-05
2.64195e-08
4.78073e-05
2.64123e-08
4.77809e-05
2.64051e-08
4.77545e-05
2.6398e-08
4.77281e-05
2.63908e-08
4.77017e-05
2.63836e-08
4.76753e-05
2.63765e-08
4.7649e-05
2.63693e-08
4.76226e-05
2.63621e-08
4.75963e-05
2.63549e-08
4.75699e-05
2.63477e-08
4.75436e-05
2.63405e-08
4.75172e-05
2.63333e-08
4.74909e-05
2.63261e-08
4.74646e-05
2.63189e-08
4.74383e-05
2.63117e-08
4.7412e-05
2.63045e-08
4.73857e-05
2.62973e-08
4.73594e-05
2.62901e-08
4.73331e-05
2.62829e-08
4.73068e-05
2.62757e-08
4.72806e-05
2.62684e-08
4.72543e-05
2.62612e-08
4.7228e-05
2.6254e-08
4.72018e-05
2.62467e-08
4.71756e-05
2.62395e-08
4.71493e-05
2.62323e-08
4.71231e-05
2.6225e-08
4.70969e-05
2.62178e-08
4.70707e-05
2.62105e-08
4.70445e-05
2.62033e-08
4.70183e-05
2.6196e-08
4.69921e-05
2.61887e-08
4.69659e-05
2.61815e-08
4.69397e-05
2.61742e-08
4.69136e-05
2.61669e-08
4.68874e-05
2.61596e-08
4.68612e-05
2.61523e-08
4.68351e-05
2.61451e-08
4.6809e-05
2.61378e-08
4.67828e-05
2.61305e-08
4.67567e-05
2.61232e-08
4.67306e-05
2.61159e-08
4.67045e-05
2.61086e-08
4.66784e-05
2.61013e-08
4.66523e-05
2.60939e-08
4.66262e-05
2.60866e-08
4.66001e-05
2.60793e-08
4.65741e-05
2.6072e-08
4.6548e-05
2.60646e-08
4.65219e-05
2.60573e-08
4.64959e-05
2.605e-08
4.64698e-05
2.60426e-08
4.64438e-05
2.60353e-08
4.64178e-05
2.6028e-08
4.63918e-05
2.60206e-08
4.63657e-05
2.60132e-08
4.63397e-05
2.60059e-08
4.63137e-05
2.59985e-08
4.62877e-05
2.59911e-08
4.62618e-05
2.59837e-08
4.62358e-05
2.59764e-08
4.62098e-05
2.5969e-08
4.61839e-05
2.59616e-08
4.61579e-05
2.59542e-08
4.6132e-05
2.59469e-08
4.6106e-05
2.59395e-08
4.60801e-05
2.5932e-08
4.60542e-05
2.59246e-08
4.60282e-05
2.59172e-08
4.60023e-05
2.59098e-08
4.59764e-05
2.59024e-08
4.59505e-05
2.58949e-08
4.59246e-05
2.58875e-08
4.58988e-05
2.58801e-08
4.58729e-05
2.58727e-08
4.5847e-05
2.58653e-08
4.58212e-05
2.58579e-08
4.57953e-05
2.58505e-08
4.57695e-05
2.5843e-08
4.57436e-05
2.58355e-08
4.57178e-05
2.58281e-08
4.5692e-05
2.58206e-08
4.56662e-05
2.58132e-08
4.56404e-05
2.58057e-08
4.56146e-05
2.57983e-08
4.55888e-05
2.57909e-08
4.5563e-05
2.57836e-08
4.55372e-05
2.57762e-08
4.55115e-05
2.57688e-08
4.54857e-05
2.57614e-08
4.54599e-05
2.57539e-08
4.54342e-05
2.57465e-08
4.54085e-05
2.57391e-08
4.53827e-05
2.57317e-08
4.5357e-05
2.57243e-08
4.53313e-05
2.57171e-08
4.53056e-05
2.57098e-08
4.52799e-05
2.57027e-08
4.52542e-05
2.56955e-08
4.52285e-05
2.56884e-08
4.52028e-05
2.56813e-08
4.51771e-05
2.56742e-08
4.51515e-05
2.56672e-08
4.51258e-05
2.56602e-08
4.51001e-05
2.56533e-08
4.50745e-05
2.56466e-08
4.50489e-05
2.56402e-08
4.50232e-05
2.56339e-08
4.49976e-05
2.56279e-08
4.4972e-05
2.56222e-08
4.49464e-05
2.56167e-08
4.49207e-05
2.56114e-08
4.48951e-05
2.56065e-08
4.48695e-05
2.5602e-08
4.48439e-05
2.55982e-08
4.48183e-05
2.55951e-08
4.47928e-05
2.55932e-08
4.47672e-05
2.55927e-08
4.47416e-05
2.55938e-08
4.4716e-05
2.55971e-08
4.46904e-05
2.56031e-08
4.46648e-05
2.56124e-08
4.46391e-05
2.56261e-08
4.46135e-05
2.56457e-08
4.45878e-05
2.56735e-08
4.45621e-05
2.5713e-08
4.45363e-05
2.57676e-08
4.45105e-05
2.58491e-08
4.44845e-05
2.5952e-08
4.44584e-05
2.61432e-08
4.44321e-05
2.62732e-08
4.44053e-05
2.68459e-08
2.61962e-08
5.09089e-05
-4.27337e-10
5.09242e-05
1.86465e-09
5.09401e-05
5.11562e-09
5.09515e-05
7.7041e-09
5.09618e-05
8.50351e-09
5.09739e-05
8.6309e-09
5.09873e-05
9.14957e-09
5.10009e-05
9.87484e-09
5.10143e-05
1.04475e-08
5.10277e-05
1.08092e-08
5.10413e-05
1.10821e-08
5.10551e-05
1.13408e-08
5.10689e-05
1.15813e-08
5.10828e-05
1.17863e-08
5.10966e-05
1.19573e-08
5.11105e-05
1.2105e-08
5.11244e-05
1.22367e-08
5.11384e-05
1.23548e-08
5.11523e-05
1.24603e-08
5.11662e-05
1.25549e-08
5.11801e-05
1.26406e-08
5.1194e-05
1.27188e-08
5.12078e-05
1.27907e-08
5.12217e-05
1.28572e-08
5.12355e-05
1.29189e-08
5.12493e-05
1.29765e-08
5.12631e-05
1.30306e-08
5.12768e-05
1.30817e-08
5.12905e-05
1.31302e-08
5.13042e-05
1.31763e-08
5.13179e-05
1.32205e-08
5.13315e-05
1.32629e-08
5.13451e-05
1.33037e-08
5.13586e-05
1.33432e-08
5.13721e-05
1.33816e-08
5.13856e-05
1.34188e-08
5.13991e-05
1.34552e-08
5.14125e-05
1.34907e-08
5.14259e-05
1.35255e-08
5.14392e-05
1.35597e-08
5.14526e-05
1.35933e-08
5.14658e-05
1.36264e-08
5.14791e-05
1.3659e-08
5.14923e-05
1.36912e-08
5.15055e-05
1.37231e-08
5.15186e-05
1.37546e-08
5.15317e-05
1.37859e-08
5.15448e-05
1.38169e-08
5.15578e-05
1.38476e-08
5.15708e-05
1.38781e-08
5.15838e-05
1.39084e-08
5.15967e-05
1.39386e-08
5.16096e-05
1.39685e-08
5.16224e-05
1.39983e-08
5.16353e-05
1.4028e-08
5.16481e-05
1.40576e-08
5.16608e-05
1.4087e-08
5.16735e-05
1.41163e-08
5.16862e-05
1.41455e-08
5.16988e-05
1.41746e-08
5.17114e-05
1.42036e-08
5.1724e-05
1.42325e-08
5.17366e-05
1.42613e-08
5.17491e-05
1.42901e-08
5.17615e-05
1.43188e-08
5.1774e-05
1.43474e-08
5.17863e-05
1.43759e-08
5.17987e-05
1.44043e-08
5.1811e-05
1.44327e-08
5.18233e-05
1.4461e-08
5.18356e-05
1.44893e-08
5.18478e-05
1.45175e-08
5.186e-05
1.45456e-08
5.18721e-05
1.45737e-08
5.18842e-05
1.46017e-08
5.18963e-05
1.46296e-08
5.19084e-05
1.46575e-08
5.19204e-05
1.46853e-08
5.19324e-05
1.47131e-08
5.19443e-05
1.47408e-08
5.19562e-05
1.47685e-08
5.19681e-05
1.47961e-08
5.19799e-05
1.48236e-08
5.19917e-05
1.48511e-08
5.20035e-05
1.48786e-08
5.20152e-05
1.4906e-08
5.20269e-05
1.49333e-08
5.20386e-05
1.49606e-08
5.20502e-05
1.49878e-08
5.20618e-05
1.5015e-08
5.20734e-05
1.50421e-08
5.20849e-05
1.50692e-08
5.20964e-05
1.50962e-08
5.21079e-05
1.51231e-08
5.21193e-05
1.515e-08
5.21307e-05
1.51769e-08
5.2142e-05
1.52037e-08
5.21534e-05
1.52305e-08
5.21646e-05
1.52572e-08
5.21759e-05
1.52838e-08
5.21871e-05
1.53104e-08
5.21983e-05
1.5337e-08
5.22095e-05
1.53634e-08
5.22206e-05
1.53899e-08
5.22317e-05
1.54163e-08
5.22427e-05
1.54426e-08
5.22538e-05
1.54689e-08
5.22647e-05
1.54951e-08
5.22757e-05
1.55213e-08
5.22866e-05
1.55475e-08
5.22975e-05
1.55735e-08
5.23084e-05
1.55996e-08
5.23192e-05
1.56256e-08
5.233e-05
1.56515e-08
5.23407e-05
1.56774e-08
5.23515e-05
1.57032e-08
5.23621e-05
1.5729e-08
5.23728e-05
1.57547e-08
5.23834e-05
1.57804e-08
5.2394e-05
1.5806e-08
5.24046e-05
1.58316e-08
5.24151e-05
1.58571e-08
5.24256e-05
1.58826e-08
5.24361e-05
1.5908e-08
5.24465e-05
1.59334e-08
5.24569e-05
1.59587e-08
5.24673e-05
1.5984e-08
5.24776e-05
1.60092e-08
5.24879e-05
1.60344e-08
5.24981e-05
1.60595e-08
5.25084e-05
1.60846e-08
5.25186e-05
1.61096e-08
5.25288e-05
1.61346e-08
5.25389e-05
1.61595e-08
5.2549e-05
1.61844e-08
5.25591e-05
1.62092e-08
5.25691e-05
1.6234e-08
5.25791e-05
1.62588e-08
5.25891e-05
1.62834e-08
5.2599e-05
1.63081e-08
5.2609e-05
1.63327e-08
5.26188e-05
1.63572e-08
5.26287e-05
1.63817e-08
5.26385e-05
1.64061e-08
5.26483e-05
1.64305e-08
5.26581e-05
1.64549e-08
5.26678e-05
1.64792e-08
5.26775e-05
1.65034e-08
5.26871e-05
1.65276e-08
5.26968e-05
1.65517e-08
5.27064e-05
1.65758e-08
5.27159e-05
1.65999e-08
5.27255e-05
1.66239e-08
5.2735e-05
1.66479e-08
5.27444e-05
1.66718e-08
5.27539e-05
1.66956e-08
5.27633e-05
1.67194e-08
5.27727e-05
1.67432e-08
5.2782e-05
1.67669e-08
5.27913e-05
1.67906e-08
5.28006e-05
1.68142e-08
5.28099e-05
1.68378e-08
5.28191e-05
1.68613e-08
5.28283e-05
1.68848e-08
5.28375e-05
1.69082e-08
5.28466e-05
1.69316e-08
5.28557e-05
1.6955e-08
5.28648e-05
1.69783e-08
5.28738e-05
1.70015e-08
5.28828e-05
1.70247e-08
5.28918e-05
1.70479e-08
5.29008e-05
1.7071e-08
5.29097e-05
1.7094e-08
5.29186e-05
1.7117e-08
5.29274e-05
1.714e-08
5.29363e-05
1.71629e-08
5.29451e-05
1.71858e-08
5.29538e-05
1.72086e-08
5.29626e-05
1.72314e-08
5.29713e-05
1.72541e-08
5.29799e-05
1.72768e-08
5.29886e-05
1.72995e-08
5.29972e-05
1.73221e-08
5.30058e-05
1.73446e-08
5.30144e-05
1.73671e-08
5.30229e-05
1.73896e-08
5.30314e-05
1.7412e-08
5.30398e-05
1.74344e-08
5.30483e-05
1.74567e-08
5.30567e-05
1.7479e-08
5.30651e-05
1.75012e-08
5.30734e-05
1.75234e-08
5.30817e-05
1.75456e-08
5.309e-05
1.75677e-08
5.30983e-05
1.75898e-08
5.31065e-05
1.76118e-08
5.31147e-05
1.76338e-08
5.31229e-05
1.76558e-08
5.3131e-05
1.76777e-08
5.31392e-05
1.76996e-08
5.31472e-05
1.77214e-08
5.31553e-05
1.77432e-08
5.31633e-05
1.77649e-08
5.31713e-05
1.77866e-08
5.31793e-05
1.78083e-08
5.31872e-05
1.78299e-08
5.31951e-05
1.78516e-08
5.3203e-05
1.78732e-08
5.32109e-05
1.78948e-08
5.32187e-05
1.79163e-08
5.32265e-05
1.79379e-08
5.32342e-05
1.79594e-08
5.3242e-05
1.79808e-08
5.32497e-05
1.80022e-08
5.32574e-05
1.80237e-08
5.3265e-05
1.80451e-08
5.32726e-05
1.80666e-08
5.32802e-05
1.80881e-08
5.32878e-05
1.81097e-08
5.32953e-05
1.81313e-08
5.33028e-05
1.81529e-08
5.33103e-05
1.81746e-08
5.33178e-05
1.81963e-08
5.33252e-05
1.82181e-08
5.33326e-05
1.82399e-08
5.334e-05
1.82619e-08
5.33473e-05
1.82842e-08
5.33546e-05
1.83067e-08
5.33619e-05
1.83295e-08
5.33691e-05
1.83527e-08
5.33764e-05
1.83764e-08
5.33836e-05
1.84005e-08
5.33907e-05
1.84252e-08
5.33979e-05
1.84505e-08
5.3405e-05
1.84768e-08
5.34121e-05
1.85041e-08
5.34191e-05
1.85328e-08
5.34262e-05
1.85634e-08
5.34332e-05
1.85962e-08
5.34402e-05
1.86317e-08
5.34472e-05
1.86705e-08
5.34541e-05
1.87133e-08
5.34611e-05
1.87607e-08
5.3468e-05
1.88131e-08
5.3475e-05
1.88717e-08
5.3482e-05
1.89335e-08
5.34892e-05
1.90028e-08
5.34964e-05
1.90628e-08
5.35041e-05
1.91267e-08
1.9355e-08
5.09029e-05
6.46161e-10
5.0902e-05
2.69702e-09
5.09029e-05
4.2711e-09
5.09053e-05
5.28068e-09
5.09078e-05
6.03659e-09
5.09097e-05
6.70129e-09
5.09115e-05
7.35745e-09
5.09134e-05
7.96898e-09
5.09154e-05
8.47656e-09
5.09173e-05
8.87876e-09
5.09192e-05
9.21536e-09
5.0921e-05
9.51649e-09
5.09228e-05
9.78673e-09
5.09246e-05
1.00226e-08
5.09263e-05
1.02264e-08
5.0928e-05
1.04046e-08
5.09297e-05
1.05627e-08
5.09313e-05
1.07037e-08
5.09329e-05
1.08293e-08
5.09346e-05
1.09414e-08
5.09362e-05
1.10419e-08
5.09377e-05
1.11325e-08
5.09393e-05
1.12145e-08
5.09409e-05
1.12891e-08
5.09424e-05
1.1357e-08
5.0944e-05
1.14192e-08
5.09456e-05
1.14764e-08
5.09471e-05
1.15292e-08
5.09487e-05
1.15782e-08
5.09502e-05
1.16238e-08
5.09518e-05
1.16663e-08
5.09533e-05
1.17063e-08
5.09549e-05
1.1744e-08
5.09565e-05
1.17796e-08
5.0958e-05
1.18134e-08
5.09596e-05
1.18456e-08
5.09612e-05
1.18764e-08
5.09628e-05
1.19059e-08
5.09643e-05
1.19344e-08
5.09659e-05
1.19618e-08
5.09676e-05
1.19883e-08
5.09692e-05
1.20141e-08
5.09708e-05
1.20391e-08
5.09724e-05
1.20636e-08
5.0974e-05
1.20874e-08
5.09757e-05
1.21108e-08
5.09773e-05
1.21337e-08
5.0979e-05
1.21562e-08
5.09807e-05
1.21783e-08
5.09823e-05
1.22001e-08
5.0984e-05
1.22216e-08
5.09857e-05
1.22428e-08
5.09874e-05
1.22638e-08
5.09892e-05
1.22846e-08
5.09909e-05
1.23051e-08
5.09926e-05
1.23255e-08
5.09943e-05
1.23456e-08
5.09961e-05
1.23657e-08
5.09979e-05
1.23856e-08
5.09996e-05
1.24053e-08
5.10014e-05
1.24249e-08
5.10032e-05
1.24444e-08
5.1005e-05
1.24638e-08
5.10068e-05
1.24831e-08
5.10086e-05
1.25023e-08
5.10104e-05
1.25213e-08
5.10123e-05
1.25404e-08
5.10141e-05
1.25593e-08
5.1016e-05
1.25781e-08
5.10178e-05
1.25969e-08
5.10197e-05
1.26156e-08
5.10216e-05
1.26342e-08
5.10235e-05
1.26528e-08
5.10254e-05
1.26712e-08
5.10273e-05
1.26897e-08
5.10292e-05
1.2708e-08
5.10312e-05
1.27263e-08
5.10331e-05
1.27446e-08
5.1035e-05
1.27628e-08
5.1037e-05
1.27809e-08
5.1039e-05
1.2799e-08
5.1041e-05
1.2817e-08
5.10429e-05
1.2835e-08
5.10449e-05
1.28529e-08
5.1047e-05
1.28708e-08
5.1049e-05
1.28886e-08
5.1051e-05
1.29064e-08
5.1053e-05
1.29241e-08
5.10551e-05
1.29418e-08
5.10571e-05
1.29595e-08
5.10592e-05
1.2977e-08
5.10613e-05
1.29946e-08
5.10634e-05
1.30121e-08
5.10655e-05
1.30295e-08
5.10676e-05
1.30469e-08
5.10697e-05
1.30643e-08
5.10718e-05
1.30816e-08
5.10739e-05
1.30989e-08
5.10761e-05
1.31161e-08
5.10782e-05
1.31333e-08
5.10804e-05
1.31504e-08
5.10825e-05
1.31675e-08
5.10847e-05
1.31846e-08
5.10869e-05
1.32016e-08
5.10891e-05
1.32186e-08
5.10913e-05
1.32355e-08
5.10935e-05
1.32524e-08
5.10958e-05
1.32693e-08
5.1098e-05
1.32861e-08
5.11002e-05
1.33028e-08
5.11025e-05
1.33196e-08
5.11048e-05
1.33363e-08
5.1107e-05
1.33529e-08
5.11093e-05
1.33695e-08
5.11116e-05
1.33861e-08
5.11139e-05
1.34026e-08
5.11162e-05
1.34191e-08
5.11185e-05
1.34356e-08
5.11209e-05
1.3452e-08
5.11232e-05
1.34684e-08
5.11255e-05
1.34847e-08
5.11279e-05
1.3501e-08
5.11303e-05
1.35173e-08
5.11326e-05
1.35335e-08
5.1135e-05
1.35497e-08
5.11374e-05
1.35658e-08
5.11398e-05
1.35819e-08
5.11422e-05
1.3598e-08
5.11446e-05
1.3614e-08
5.11471e-05
1.363e-08
5.11495e-05
1.3646e-08
5.1152e-05
1.36619e-08
5.11544e-05
1.36778e-08
5.11569e-05
1.36937e-08
5.11594e-05
1.37095e-08
5.11618e-05
1.37253e-08
5.11643e-05
1.37411e-08
5.11668e-05
1.37568e-08
5.11694e-05
1.37725e-08
5.11719e-05
1.37881e-08
5.11744e-05
1.38037e-08
5.11769e-05
1.38193e-08
5.11795e-05
1.38348e-08
5.1182e-05
1.38503e-08
5.11846e-05
1.38658e-08
5.11872e-05
1.38813e-08
5.11898e-05
1.38967e-08
5.11924e-05
1.3912e-08
5.1195e-05
1.39274e-08
5.11976e-05
1.39427e-08
5.12002e-05
1.39579e-08
5.12028e-05
1.39732e-08
5.12054e-05
1.39884e-08
5.12081e-05
1.40036e-08
5.12107e-05
1.40187e-08
5.12134e-05
1.40338e-08
5.12161e-05
1.40489e-08
5.12188e-05
1.40639e-08
5.12214e-05
1.40789e-08
5.12241e-05
1.40939e-08
5.12268e-05
1.41089e-08
5.12296e-05
1.41238e-08
5.12323e-05
1.41387e-08
5.1235e-05
1.41535e-08
5.12377e-05
1.41683e-08
5.12405e-05
1.41831e-08
5.12433e-05
1.41979e-08
5.1246e-05
1.42126e-08
5.12488e-05
1.42273e-08
5.12516e-05
1.4242e-08
5.12544e-05
1.42566e-08
5.12572e-05
1.42712e-08
5.126e-05
1.42858e-08
5.12628e-05
1.43003e-08
5.12656e-05
1.43148e-08
5.12685e-05
1.43293e-08
5.12713e-05
1.43438e-08
5.12741e-05
1.43582e-08
5.1277e-05
1.43726e-08
5.12799e-05
1.4387e-08
5.12827e-05
1.44013e-08
5.12856e-05
1.44156e-08
5.12885e-05
1.44299e-08
5.12914e-05
1.44441e-08
5.12943e-05
1.44584e-08
5.12972e-05
1.44726e-08
5.13002e-05
1.44868e-08
5.13031e-05
1.45009e-08
5.1306e-05
1.4515e-08
5.1309e-05
1.45291e-08
5.1312e-05
1.45432e-08
5.13149e-05
1.45572e-08
5.13179e-05
1.45712e-08
5.13209e-05
1.45852e-08
5.13239e-05
1.45992e-08
5.13269e-05
1.46131e-08
5.13299e-05
1.4627e-08
5.13329e-05
1.46409e-08
5.13359e-05
1.46548e-08
5.13389e-05
1.46687e-08
5.1342e-05
1.46825e-08
5.1345e-05
1.46964e-08
5.13481e-05
1.47102e-08
5.13511e-05
1.47239e-08
5.13542e-05
1.47377e-08
5.13573e-05
1.47514e-08
5.13604e-05
1.47651e-08
5.13635e-05
1.47788e-08
5.13666e-05
1.47925e-08
5.13697e-05
1.48063e-08
5.13728e-05
1.48201e-08
5.13759e-05
1.48338e-08
5.13791e-05
1.48476e-08
5.13822e-05
1.48614e-08
5.13854e-05
1.48751e-08
5.13885e-05
1.48888e-08
5.13917e-05
1.49026e-08
5.13948e-05
1.49164e-08
5.1398e-05
1.49302e-08
5.14012e-05
1.49442e-08
5.14044e-05
1.49583e-08
5.14076e-05
1.49725e-08
5.14108e-05
1.49869e-08
5.1414e-05
1.50013e-08
5.14173e-05
1.50158e-08
5.14205e-05
1.50304e-08
5.14237e-05
1.50452e-08
5.1427e-05
1.50602e-08
5.14302e-05
1.50755e-08
5.14335e-05
1.50911e-08
5.14368e-05
1.51073e-08
5.144e-05
1.5124e-08
5.14433e-05
1.51414e-08
5.14466e-05
1.51594e-08
5.14499e-05
1.51782e-08
5.14532e-05
1.51978e-08
5.14565e-05
1.52184e-08
5.14599e-05
1.52401e-08
5.14632e-05
1.52632e-08
5.14665e-05
1.52879e-08
5.14699e-05
1.53146e-08
5.14733e-05
1.53434e-08
5.14766e-05
1.53742e-08
5.14801e-05
1.5407e-08
5.14835e-05
1.54407e-08
5.14869e-05
1.54752e-08
5.14904e-05
1.55038e-08
5.1494e-05
1.55369e-08
5.14976e-05
1.55262e-08
1.5576e-08
5.09076e-05
2.1065e-10
5.09089e-05
1.37177e-09
5.09105e-05
2.69102e-09
5.0912e-05
3.79811e-09
5.09134e-05
4.63528e-09
5.09148e-05
5.31096e-09
5.09162e-05
5.91436e-09
5.09177e-05
6.47268e-09
5.09192e-05
6.974e-09
5.09207e-05
7.40783e-09
5.09221e-05
7.78141e-09
5.09235e-05
8.10875e-09
5.09249e-05
8.39875e-09
5.09263e-05
8.6549e-09
5.09276e-05
8.87999e-09
5.0929e-05
9.07802e-09
5.09303e-05
9.25315e-09
5.09316e-05
9.40864e-09
5.09329e-05
9.54695e-09
5.09341e-05
9.67018e-09
5.09354e-05
9.78028e-09
5.09366e-05
9.87899e-09
5.09379e-05
9.96779e-09
5.09391e-05
1.00479e-08
5.09404e-05
1.01205e-08
5.09416e-05
1.01865e-08
5.09428e-05
1.02466e-08
5.09441e-05
1.03017e-08
5.09453e-05
1.03524e-08
5.09465e-05
1.03991e-08
5.09477e-05
1.04425e-08
5.0949e-05
1.04828e-08
5.09502e-05
1.05204e-08
5.09514e-05
1.05558e-08
5.09526e-05
1.0589e-08
5.09539e-05
1.06205e-08
5.09551e-05
1.06503e-08
5.09563e-05
1.06788e-08
5.09575e-05
1.0706e-08
5.09588e-05
1.0732e-08
5.096e-05
1.07571e-08
5.09612e-05
1.07814e-08
5.09625e-05
1.08048e-08
5.09637e-05
1.08276e-08
5.09649e-05
1.08497e-08
5.09662e-05
1.08714e-08
5.09674e-05
1.08925e-08
5.09687e-05
1.09132e-08
5.09699e-05
1.09335e-08
5.09712e-05
1.09535e-08
5.09724e-05
1.09731e-08
5.09737e-05
1.09925e-08
5.09749e-05
1.10117e-08
5.09762e-05
1.10306e-08
5.09774e-05
1.10493e-08
5.09787e-05
1.10678e-08
5.09799e-05
1.10861e-08
5.09812e-05
1.11043e-08
5.09825e-05
1.11223e-08
5.09837e-05
1.11403e-08
5.0985e-05
1.11581e-08
5.09863e-05
1.11757e-08
5.09875e-05
1.11933e-08
5.09888e-05
1.12108e-08
5.09901e-05
1.12282e-08
5.09914e-05
1.12455e-08
5.09926e-05
1.12628e-08
5.09939e-05
1.12799e-08
5.09952e-05
1.1297e-08
5.09965e-05
1.1314e-08
5.09978e-05
1.1331e-08
5.0999e-05
1.13479e-08
5.10003e-05
1.13647e-08
5.10016e-05
1.13815e-08
5.10029e-05
1.13982e-08
5.10042e-05
1.14149e-08
5.10055e-05
1.14315e-08
5.10068e-05
1.14481e-08
5.10081e-05
1.14646e-08
5.10094e-05
1.1481e-08
5.10107e-05
1.14975e-08
5.1012e-05
1.15138e-08
5.10133e-05
1.15301e-08
5.10146e-05
1.15464e-08
5.10159e-05
1.15627e-08
5.10172e-05
1.15788e-08
5.10185e-05
1.1595e-08
5.10199e-05
1.16111e-08
5.10212e-05
1.16271e-08
5.10225e-05
1.16432e-08
5.10238e-05
1.16591e-08
5.10251e-05
1.16751e-08
5.10264e-05
1.16909e-08
5.10278e-05
1.17068e-08
5.10291e-05
1.17226e-08
5.10304e-05
1.17383e-08
5.10317e-05
1.17541e-08
5.10331e-05
1.17697e-08
5.10344e-05
1.17854e-08
5.10357e-05
1.1801e-08
5.10371e-05
1.18165e-08
5.10384e-05
1.18321e-08
5.10397e-05
1.18475e-08
5.10411e-05
1.1863e-08
5.10424e-05
1.18784e-08
5.10438e-05
1.18937e-08
5.10451e-05
1.1909e-08
5.10465e-05
1.19243e-08
5.10478e-05
1.19396e-08
5.10491e-05
1.19548e-08
5.10505e-05
1.19699e-08
5.10518e-05
1.1985e-08
5.10532e-05
1.20001e-08
5.10546e-05
1.20152e-08
5.10559e-05
1.20302e-08
5.10573e-05
1.20451e-08
5.10586e-05
1.20601e-08
5.106e-05
1.2075e-08
5.10613e-05
1.20898e-08
5.10627e-05
1.21046e-08
5.10641e-05
1.21194e-08
5.10654e-05
1.21341e-08
5.10668e-05
1.21489e-08
5.10682e-05
1.21635e-08
5.10696e-05
1.21781e-08
5.10709e-05
1.21927e-08
5.10723e-05
1.22073e-08
5.10737e-05
1.22218e-08
5.10751e-05
1.22363e-08
5.10764e-05
1.22507e-08
5.10778e-05
1.22651e-08
5.10792e-05
1.22795e-08
5.10806e-05
1.22938e-08
5.1082e-05
1.23081e-08
5.10834e-05
1.23224e-08
5.10847e-05
1.23366e-08
5.10861e-05
1.23508e-08
5.10875e-05
1.23649e-08
5.10889e-05
1.23791e-08
5.10903e-05
1.23931e-08
5.10917e-05
1.24072e-08
5.10931e-05
1.24212e-08
5.10945e-05
1.24352e-08
5.10959e-05
1.24491e-08
5.10973e-05
1.2463e-08
5.10987e-05
1.24769e-08
5.11001e-05
1.24907e-08
5.11015e-05
1.25045e-08
5.11029e-05
1.25183e-08
5.11043e-05
1.2532e-08
5.11058e-05
1.25457e-08
5.11072e-05
1.25594e-08
5.11086e-05
1.2573e-08
5.111e-05
1.25866e-08
5.11114e-05
1.26001e-08
5.11128e-05
1.26137e-08
5.11143e-05
1.26272e-08
5.11157e-05
1.26406e-08
5.11171e-05
1.2654e-08
5.11185e-05
1.26674e-08
5.112e-05
1.26808e-08
5.11214e-05
1.26941e-08
5.11228e-05
1.27074e-08
5.11243e-05
1.27207e-08
5.11257e-05
1.27339e-08
5.11271e-05
1.27471e-08
5.11286e-05
1.27602e-08
5.113e-05
1.27734e-08
5.11315e-05
1.27865e-08
5.11329e-05
1.27995e-08
5.11343e-05
1.28126e-08
5.11358e-05
1.28256e-08
5.11372e-05
1.28385e-08
5.11387e-05
1.28514e-08
5.11401e-05
1.28643e-08
5.11416e-05
1.28772e-08
5.1143e-05
1.28901e-08
5.11445e-05
1.29029e-08
5.1146e-05
1.29157e-08
5.11474e-05
1.29284e-08
5.11489e-05
1.29411e-08
5.11503e-05
1.29538e-08
5.11518e-05
1.29665e-08
5.11533e-05
1.29791e-08
5.11547e-05
1.29917e-08
5.11562e-05
1.30042e-08
5.11577e-05
1.30168e-08
5.11591e-05
1.30293e-08
5.11606e-05
1.30418e-08
5.11621e-05
1.30542e-08
5.11636e-05
1.30667e-08
5.1165e-05
1.30791e-08
5.11665e-05
1.30915e-08
5.1168e-05
1.31038e-08
5.11695e-05
1.31161e-08
5.1171e-05
1.31284e-08
5.11725e-05
1.31406e-08
5.11739e-05
1.31529e-08
5.11754e-05
1.31651e-08
5.11769e-05
1.31773e-08
5.11784e-05
1.31895e-08
5.11799e-05
1.32017e-08
5.11814e-05
1.32138e-08
5.11829e-05
1.3226e-08
5.11844e-05
1.32381e-08
5.11859e-05
1.32502e-08
5.11874e-05
1.32623e-08
5.11889e-05
1.32743e-08
5.11904e-05
1.32864e-08
5.11919e-05
1.32984e-08
5.11934e-05
1.33105e-08
5.11949e-05
1.33225e-08
5.11965e-05
1.33347e-08
5.1198e-05
1.33468e-08
5.11995e-05
1.3359e-08
5.1201e-05
1.33712e-08
5.12025e-05
1.33834e-08
5.12041e-05
1.33956e-08
5.12056e-05
1.34078e-08
5.12071e-05
1.342e-08
5.12086e-05
1.34324e-08
5.12101e-05
1.34449e-08
5.12117e-05
1.34575e-08
5.12132e-05
1.34704e-08
5.12147e-05
1.34833e-08
5.12163e-05
1.34965e-08
5.12178e-05
1.35099e-08
5.12193e-05
1.35234e-08
5.12209e-05
1.35371e-08
5.12224e-05
1.3551e-08
5.1224e-05
1.35653e-08
5.12255e-05
1.35801e-08
5.12271e-05
1.35954e-08
5.12286e-05
1.36113e-08
5.12302e-05
1.3628e-08
5.12317e-05
1.36454e-08
5.12333e-05
1.36635e-08
5.12348e-05
1.36825e-08
5.12364e-05
1.37022e-08
5.12379e-05
1.37227e-08
5.12395e-05
1.37441e-08
5.12411e-05
1.37662e-08
5.12427e-05
1.3789e-08
5.12443e-05
1.38122e-08
5.12459e-05
1.38352e-08
5.12475e-05
1.38576e-08
5.12491e-05
1.38773e-08
5.12508e-05
1.3896e-08
5.12524e-05
1.3906e-08
1.39167e-08
5.09091e-05
2.29197e-10
5.09092e-05
1.28837e-09
5.09095e-05
2.34974e-09
5.09102e-05
3.1432e-09
5.0911e-05
3.76319e-09
5.0912e-05
4.32087e-09
5.09131e-05
4.85243e-09
5.09142e-05
5.34859e-09
5.09154e-05
5.79425e-09
5.09166e-05
6.18586e-09
5.09179e-05
6.53033e-09
5.09191e-05
6.83679e-09
5.09204e-05
7.11106e-09
5.09217e-05
7.35598e-09
5.0923e-05
7.57385e-09
5.09243e-05
7.76762e-09
5.09257e-05
7.94041e-09
5.0927e-05
8.09492e-09
5.09283e-05
8.23329e-09
5.09296e-05
8.35735e-09
5.09309e-05
8.46878e-09
5.09322e-05
8.5691e-09
5.09335e-05
8.65963e-09
5.09348e-05
8.74155e-09
5.09361e-05
8.81585e-09
5.09374e-05
8.88344e-09
5.09387e-05
8.94511e-09
5.094e-05
9.00154e-09
5.09413e-05
9.05336e-09
5.09426e-05
9.10109e-09
5.09439e-05
9.14521e-09
5.09452e-05
9.18613e-09
5.09465e-05
9.22423e-09
5.09478e-05
9.25983e-09
5.09491e-05
9.29321e-09
5.09504e-05
9.32463e-09
5.09517e-05
9.3543e-09
5.0953e-05
9.38243e-09
5.09543e-05
9.40919e-09
5.09556e-05
9.43472e-09
5.09569e-05
9.45917e-09
5.09582e-05
9.48266e-09
5.09595e-05
9.50529e-09
5.09608e-05
9.52715e-09
5.09621e-05
9.54832e-09
5.09634e-05
9.56889e-09
5.09647e-05
9.58891e-09
5.0966e-05
9.60845e-09
5.09673e-05
9.62755e-09
5.09686e-05
9.64625e-09
5.09699e-05
9.6646e-09
5.09712e-05
9.68263e-09
5.09726e-05
9.70037e-09
5.09739e-05
9.71786e-09
5.09752e-05
9.73511e-09
5.09765e-05
9.75215e-09
5.09778e-05
9.76899e-09
5.09791e-05
9.78565e-09
5.09805e-05
9.80216e-09
5.09818e-05
9.81851e-09
5.09831e-05
9.83473e-09
5.09844e-05
9.85082e-09
5.09858e-05
9.8668e-09
5.09871e-05
9.88266e-09
5.09884e-05
9.89843e-09
5.09897e-05
9.9141e-09
5.09911e-05
9.92968e-09
5.09924e-05
9.94518e-09
5.09937e-05
9.9606e-09
5.09951e-05
9.97595e-09
5.09964e-05
9.99122e-09
5.09978e-05
1.00064e-08
5.09991e-05
1.00216e-08
5.10005e-05
1.00367e-08
5.10018e-05
1.00517e-08
5.10031e-05
1.00666e-08
5.10045e-05
1.00816e-08
5.10059e-05
1.00964e-08
5.10072e-05
1.01112e-08
5.10086e-05
1.0126e-08
5.10099e-05
1.01407e-08
5.10113e-05
1.01553e-08
5.10126e-05
1.01699e-08
5.1014e-05
1.01845e-08
5.10154e-05
1.0199e-08
5.10167e-05
1.02135e-08
5.10181e-05
1.02279e-08
5.10195e-05
1.02423e-08
5.10208e-05
1.02566e-08
5.10222e-05
1.02709e-08
5.10236e-05
1.02852e-08
5.1025e-05
1.02994e-08
5.10263e-05
1.03136e-08
5.10277e-05
1.03277e-08
5.10291e-05
1.03418e-08
5.10305e-05
1.03559e-08
5.10319e-05
1.03699e-08
5.10332e-05
1.03839e-08
5.10346e-05
1.03978e-08
5.1036e-05
1.04117e-08
5.10374e-05
1.04256e-08
5.10388e-05
1.04394e-08
5.10402e-05
1.04532e-08
5.10416e-05
1.0467e-08
5.1043e-05
1.04807e-08
5.10444e-05
1.04944e-08
5.10458e-05
1.0508e-08
5.10472e-05
1.05216e-08
5.10486e-05
1.05352e-08
5.105e-05
1.05487e-08
5.10514e-05
1.05622e-08
5.10528e-05
1.05757e-08
5.10542e-05
1.05891e-08
5.10556e-05
1.06025e-08
5.10571e-05
1.06159e-08
5.10585e-05
1.06292e-08
5.10599e-05
1.06425e-08
5.10613e-05
1.06557e-08
5.10627e-05
1.06689e-08
5.10642e-05
1.06821e-08
5.10656e-05
1.06953e-08
5.1067e-05
1.07084e-08
5.10684e-05
1.07215e-08
5.10699e-05
1.07345e-08
5.10713e-05
1.07475e-08
5.10727e-05
1.07605e-08
5.10742e-05
1.07735e-08
5.10756e-05
1.07864e-08
5.1077e-05
1.07993e-08
5.10785e-05
1.08121e-08
5.10799e-05
1.0825e-08
5.10814e-05
1.08377e-08
5.10828e-05
1.08505e-08
5.10842e-05
1.08632e-08
5.10857e-05
1.08759e-08
5.10871e-05
1.08886e-08
5.10886e-05
1.09012e-08
5.109e-05
1.09138e-08
5.10915e-05
1.09263e-08
5.10929e-05
1.09389e-08
5.10944e-05
1.09514e-08
5.10959e-05
1.09638e-08
5.10973e-05
1.09763e-08
5.10988e-05
1.09887e-08
5.11002e-05
1.10011e-08
5.11017e-05
1.10134e-08
5.11032e-05
1.10257e-08
5.11046e-05
1.1038e-08
5.11061e-05
1.10502e-08
5.11076e-05
1.10625e-08
5.1109e-05
1.10747e-08
5.11105e-05
1.10868e-08
5.1112e-05
1.1099e-08
5.11135e-05
1.11111e-08
5.11149e-05
1.11231e-08
5.11164e-05
1.11352e-08
5.11179e-05
1.11472e-08
5.11194e-05
1.11592e-08
5.11209e-05
1.11711e-08
5.11223e-05
1.1183e-08
5.11238e-05
1.11949e-08
5.11253e-05
1.12068e-08
5.11268e-05
1.12186e-08
5.11283e-05
1.12304e-08
5.11298e-05
1.12422e-08
5.11313e-05
1.1254e-08
5.11328e-05
1.12657e-08
5.11343e-05
1.12774e-08
5.11358e-05
1.1289e-08
5.11373e-05
1.13007e-08
5.11388e-05
1.13123e-08
5.11403e-05
1.13239e-08
5.11418e-05
1.13354e-08
5.11433e-05
1.1347e-08
5.11448e-05
1.13585e-08
5.11463e-05
1.13699e-08
5.11478e-05
1.13814e-08
5.11493e-05
1.13928e-08
5.11508e-05
1.14042e-08
5.11523e-05
1.14155e-08
5.11539e-05
1.14269e-08
5.11554e-05
1.14382e-08
5.11569e-05
1.14495e-08
5.11584e-05
1.14607e-08
5.11599e-05
1.1472e-08
5.11614e-05
1.14832e-08
5.1163e-05
1.14944e-08
5.11645e-05
1.15055e-08
5.1166e-05
1.15166e-08
5.11675e-05
1.15277e-08
5.11691e-05
1.15388e-08
5.11706e-05
1.15499e-08
5.11721e-05
1.15609e-08
5.11737e-05
1.15719e-08
5.11752e-05
1.1583e-08
5.11767e-05
1.15939e-08
5.11783e-05
1.16049e-08
5.11798e-05
1.16158e-08
5.11813e-05
1.16267e-08
5.11829e-05
1.16376e-08
5.11844e-05
1.16485e-08
5.1186e-05
1.16593e-08
5.11875e-05
1.16702e-08
5.11891e-05
1.1681e-08
5.11906e-05
1.16919e-08
5.11921e-05
1.17027e-08
5.11937e-05
1.17136e-08
5.11952e-05
1.17244e-08
5.11968e-05
1.17352e-08
5.11983e-05
1.1746e-08
5.11999e-05
1.17568e-08
5.12015e-05
1.17676e-08
5.1203e-05
1.17784e-08
5.12046e-05
1.17893e-08
5.12061e-05
1.18002e-08
5.12077e-05
1.18111e-08
5.12092e-05
1.18222e-08
5.12108e-05
1.18332e-08
5.12124e-05
1.18444e-08
5.12139e-05
1.18555e-08
5.12155e-05
1.18667e-08
5.12171e-05
1.1878e-08
5.12186e-05
1.18893e-08
5.12202e-05
1.19008e-08