/*--------------------------------*- C++ -*----------------------------------*\
| =========                 |                                                 |
| \\      /  F ield         | OpenFOAM: The Open Source CFD Toolbox           |
|  \\    /   O peration     | Version:  2406                                  |
|   \\  /    A nd           | Website:  www.openfoam.com                      |
|    \\/     M anipulation  |                                                 |
\*---------------------------------------------------------------------------*/
FoamFile
{
    version     2.0;
    format      ascii;
    arch        "LSB;label=32;scalar=64";
    class       volVectorField;
    location    "0.4";
    object      U;
}
// * * * * * * * * * * * * * * * * * * * * * * * * * * * * * * * * * * * * * //

dimensions      [0 1 -1 0 0 0 0];

internalField   nonuniform List<vector> 
6250
(
(40.4877 4.66846e-05 0)
(68.98 0.000382304 0)
(59.5123 0.000631798 0)
(49.3111 0.000647634 0)
(48.603 0.000601614 0)
(51.356 0.000580421 0)
(52.589 0.000562807 0)
(52.2409 0.00061137 0)
(51.7453 0.000652877 0)
(51.659 0.000631187 0)
(51.7719 0.000692222 0)
(51.8398 0.000822124 0)
(51.8317 0.000921934 0)
(51.8078 0.000933224 0)
(51.8006 0.000869911 0)
(51.8044 0.00080513 0)
(51.8075 0.000792545 0)
(51.807 0.000800979 0)
(51.8054 0.000780361 0)
(51.8044 0.000746053 0)
(51.804 0.000726397 0)
(51.8035 0.000703608 0)
(51.803 0.000685358 0)
(51.8023 0.000704496 0)
(51.8016 0.000736845 0)
(51.801 0.000755553 0)
(51.8004 0.00078457 0)
(51.7998 0.000860926 0)
(51.799 0.000988444 0)
(51.7983 0.00113471 0)
(51.7974 0.00122788 0)
(51.7965 0.00119805 0)
(51.7959 0.00106044 0)
(51.7953 0.000908174 0)
(51.7947 0.00081758 0)
(51.794 0.000779444 0)
(51.7934 0.000752174 0)
(51.7928 0.000748359 0)
(51.7921 0.000800198 0)
(51.7912 0.000877044 0)
(51.7904 0.000913473 0)
(51.7897 0.000903035 0)
(51.7891 0.000906722 0)
(51.7885 0.000971714 0)
(51.7877 0.00107833 0)
(51.787 0.00116713 0)
(51.7862 0.00119042 0)
(51.7855 0.00113605 0)
(51.7849 0.00103617 0)
(51.7843 0.000946313 0)
(51.7837 0.000902479 0)
(51.783 0.000901228 0)
(51.7822 0.00092325 0)
(51.7815 0.00095851 0)
(51.7807 0.00099353 0)
(51.7799 0.000999325 0)
(51.7791 0.000960352 0)
(51.7785 0.000908826 0)
(51.7779 0.00089465 0)
(51.7773 0.000930574 0)
(51.7766 0.000984571 0)
(51.776 0.00101994 0)
(51.7754 0.00102334 0)
(51.7749 0.000991047 0)
(51.7743 0.00091441 0)
(51.7738 0.000796781 0)
(51.7734 0.000669439 0)
(51.773 0.000571193 0)
(51.7726 0.000516244 0)
(51.7723 0.000486684 0)
(51.7719 0.000453894 0)
(51.7717 0.00040487 0)
(51.7714 0.000348087 0)
(51.7712 0.000299352 0)
(51.771 0.000263557 0)
(51.7708 0.000228665 0)
(51.7706 0.000178217 0)
(51.7705 0.000109649 0)
(51.7703 3.8418e-05 0)
(51.7702 -1.71907e-05 0)
(51.7701 -5.38884e-05 0)
(51.77 -8.36805e-05 0)
(51.7699 -0.000118316 0)
(51.7699 -0.000156384 0)
(51.7698 -0.000185918 0)
(51.7698 -0.000199434 0)
(51.7697 -0.000203999 0)
(51.7696 -0.000214495 0)
(51.7695 -0.000237793 0)
(51.7695 -0.000265198 0)
(51.7695 -0.000281893 0)
(51.7694 -0.000282075 0)
(51.7694 -0.000272898 0)
(51.7693 -0.000263894 0)
(51.7693 -0.000256905 0)
(51.7693 -0.000248929 0)
(51.7692 -0.000240622 0)
(51.7692 -0.000235707 0)
(51.7692 -0.000233769 0)
(51.7692 -0.000230928 0)
(51.7691 -0.000223892 0)
(51.7691 -0.000216144 0)
(51.7691 -0.00021733 0)
(51.7691 -0.00023343 0)
(51.7691 -0.00025941 0)
(51.7691 -0.000283908 0)
(51.7691 -0.000300623 0)
(51.7691 -0.000312013 0)
(51.769 -0.000326168 0)
(51.769 -0.000348611 0)
(51.769 -0.000378266 0)
(51.769 -0.000409647 0)
(51.769 -0.000436999 0)
(51.769 -0.000457385 0)
(51.769 -0.000467905 0)
(51.769 -0.000466203 0)
(51.769 -0.000455934 0)
(51.769 -0.000447386 0)
(51.769 -0.000451481 0)
(51.7691 -0.000471863 0)
(51.7691 -0.000502115 0)
(51.7692 -0.000531061 0)
(51.7692 -0.000552371 0)
(51.7693 -0.000569644 0)
(51.7693 -0.000591664 0)
(51.7694 -0.000622394 0)
(51.7695 -0.000655808 0)
(51.7695 -0.000680182 0)
(51.7696 -0.000686825 0)
(51.7697 -0.000675131 0)
(51.7698 -0.000650159 0)
(51.7698 -0.000616026 0)
(51.7699 -0.000571584 0)
(51.77 -0.0005115 0)
(51.7701 -0.000431097 0)
(51.7701 -0.000331003 0)
(51.7702 -0.000218246 0)
(51.7702 -0.000103673 0)
(51.7703 2.7111e-06 0)
(51.7703 9.52362e-05 0)
(51.7704 0.000173054 0)
(51.7705 0.000237209 0)
(51.7706 0.000287733 0)
(51.7707 0.00032291 0)
(51.7708 0.00034013 0)
(51.771 0.000338271 0)
(51.7711 0.000319621 0)
(51.7713 0.000288599 0)
(51.7715 0.000249991 0)
(51.7718 0.000208086 0)
(51.772 0.00016733 0)
(51.7723 0.000132447 0)
(51.7725 0.000106983 0)
(51.7727 9.13169e-05 0)
(51.7729 8.25402e-05 0)
(51.773 7.65656e-05 0)
(51.7732 7.06582e-05 0)
(51.7733 6.47354e-05 0)
(51.7734 6.04447e-05 0)
(51.7735 5.8853e-05 0)
(51.7736 5.94602e-05 0)
(51.7737 6.11849e-05 0)
(51.7737 6.37283e-05 0)
(51.7737 6.58099e-05 0)
(51.7737 6.3522e-05 0)
(51.7738 5.41154e-05 0)
(51.7738 3.81239e-05 0)
(51.7738 1.89996e-05 0)
(51.7739 1.44072e-06 0)
(51.7739 -1.12345e-05 0)
(51.7739 -1.86035e-05 0)
(51.774 -2.19465e-05 0)
(51.774 -2.36661e-05 0)
(51.774 -2.81119e-05 0)
(51.774 -3.78879e-05 0)
(51.774 -5.23527e-05 0)
(51.7741 -6.72426e-05 0)
(51.7741 -7.61858e-05 0)
(51.7741 -7.47954e-05 0)
(51.7742 -6.22211e-05 0)
(51.7742 -4.11737e-05 0)
(51.7741 -1.46251e-05 0)
(51.7741 1.52414e-05 0)
(51.774 4.51389e-05 0)
(51.7739 6.92257e-05 0)
(51.7738 8.14964e-05 0)
(51.7738 8.0495e-05 0)
(51.7737 7.18034e-05 0)
(51.7736 6.45017e-05 0)
(51.7736 6.46502e-05 0)
(51.7735 7.20812e-05 0)
(51.7735 8.2331e-05 0)
(51.7734 9.05403e-05 0)
(51.7734 9.39138e-05 0)
(51.7733 9.18327e-05 0)
(51.7732 8.59894e-05 0)
(51.7732 7.96754e-05 0)
(51.7731 7.61589e-05 0)
(51.7731 7.58326e-05 0)
(51.7731 7.56024e-05 0)
(51.773 7.22504e-05 0)
(51.773 6.70211e-05 0)
(51.773 6.5171e-05 0)
(51.773 7.07512e-05 0)
(51.7729 8.14675e-05 0)
(51.7729 8.99439e-05 0)
(51.7728 8.97124e-05 0)
(51.7728 8.09763e-05 0)
(51.7728 6.96138e-05 0)
(51.7727 6.09456e-05 0)
(51.7727 5.56308e-05 0)
(51.7727 5.0882e-05 0)
(51.7727 4.38731e-05 0)
(51.7727 3.63243e-05 0)
(51.7727 3.11456e-05 0)
(51.7727 2.9102e-05 0)
(51.7726 2.81464e-05 0)
(51.7726 2.55665e-05 0)
(51.7726 2.00938e-05 0)
(51.7726 1.18299e-05 0)
(51.7725 1.1774e-06 0)
(51.7725 -1.17328e-05 0)
(51.7725 -2.67468e-05 0)
(51.7725 -4.28417e-05 0)
(51.7725 -5.77528e-05 0)
(51.7725 -6.99368e-05 0)
(51.7725 -8.05174e-05 0)
(51.7725 -9.06117e-05 0)
(51.7725 -9.95014e-05 0)
(51.7725 -0.000105775 0)
(51.7726 -0.000108975 0)
(51.7726 -0.000110713 0)
(51.7726 -0.000112349 0)
(51.7725 -0.000114867 0)
(51.7725 -0.000118679 0)
(51.7725 -0.000123714 0)
(51.7725 -0.000129512 0)
(51.7725 -0.000135546 0)
(51.7724 -0.000140774 0)
(51.7724 -0.000144633 0)
(51.7724 -0.00014787 0)
(51.7725 -0.000150646 0)
(51.7725 -0.000152701 0)
(51.7725 -0.000153211 0)
(51.7725 -0.000151182 0)
(51.7726 -0.000145564 0)
(51.7726 -0.000137023 0)
(51.7726 -0.000125414 0)
(51.7726 -0.000119451 0)
(51.7727 -0.000106536 0)
(40.4881 7.56448e-05 0)
(68.9804 0.000363173 0)
(59.5144 0.000586246 0)
(49.3147 0.000529112 0)
(48.6075 0.000431558 0)
(51.361 0.000504486 0)
(52.5952 0.000527845 0)
(52.2477 0.000530284 0)
(51.7532 0.000580147 0)
(51.6676 0.000587689 0)
(51.7814 0.000585044 0)
(51.8505 0.000565647 0)
(51.8437 0.000534547 0)
(51.821 0.000467865 0)
(51.8147 0.000372609 0)
(51.8192 0.00029396 0)
(51.8232 0.000271493 0)
(51.8237 0.000296486 0)
(51.823 0.000317959 0)
(51.8228 0.000327941 0)
(51.8234 0.000363698 0)
(51.8239 0.000418933 0)
(51.8242 0.000466303 0)
(51.8244 0.000528023 0)
(51.8247 0.000569494 0)
(51.8248 0.000561757 0)
(51.8249 0.000522092 0)
(51.8252 0.000463618 0)
(51.8256 0.000396927 0)
(51.8263 0.000365817 0)
(51.827 0.000379071 0)
(51.8276 0.000376108 0)
(51.8281 0.000330356 0)
(51.8285 0.000303372 0)
(51.8289 0.000362729 0)
(51.8292 0.000480076 0)
(51.8295 0.000570917 0)
(51.8297 0.000616375 0)
(51.8302 0.000657801 0)
(51.8306 0.000693677 0)
(51.8309 0.000666331 0)
(51.8311 0.000549453 0)
(51.8314 0.000398828 0)
(51.8318 0.000292174 0)
(51.8322 0.00025306 0)
(51.8328 0.000253391 0)
(51.8333 0.000264959 0)
(51.8338 0.00027884 0)
(51.8341 0.000297889 0)
(51.8345 0.000332109 0)
(51.8348 0.000388062 0)
(51.8352 0.000454456 0)
(51.8356 0.000509793 0)
(51.8361 0.000546223 0)
(51.8366 0.000568312 0)
(51.8371 0.000568741 0)
(51.8375 0.000529584 0)
(51.8377 0.00045263 0)
(51.8379 0.000365692 0)
(51.8382 0.000293095 0)
(51.8385 0.000237423 0)
(51.8389 0.00019715 0)
(51.8393 0.000183338 0)
(51.8397 0.000202836 0)
(51.8401 0.000236233 0)
(51.8403 0.00025213 0)
(51.8403 0.000240506 0)
(51.8404 0.000218886 0)
(51.8405 0.000208774 0)
(51.8406 0.000213918 0)
(51.8406 0.000220721 0)
(51.8406 0.000214759 0)
(51.8406 0.000195457 0)
(51.8405 0.000176862 0)
(51.8405 0.000173631 0)
(51.8404 0.000185938 0)
(51.8404 0.000201454 0)
(51.8403 0.000212468 0)
(51.8401 0.000225278 0)
(51.84 0.000249164 0)
(51.8398 0.000280512 0)
(51.8396 0.000304452 0)
(51.8394 0.000311737 0)
(51.8391 0.000309368 0)
(51.8388 0.000313368 0)
(51.8386 0.000332127 0)
(51.8383 0.000358031 0)
(51.8381 0.000375278 0)
(51.8378 0.000375572 0)
(51.8376 0.000366329 0)
(51.8373 0.000362188 0)
(51.837 0.000368291 0)
(51.8367 0.000373869 0)
(51.8364 0.000364509 0)
(51.8361 0.000338824 0)
(51.8359 0.000309997 0)
(51.8356 0.000291585 0)
(51.8353 0.000285436 0)
(51.8351 0.000283916 0)
(51.8348 0.000279582 0)
(51.8346 0.000273551 0)
(51.8343 0.000271907 0)
(51.8341 0.000276481 0)
(51.8338 0.000282934 0)
(51.8336 0.000287355 0)
(51.8333 0.00029194 0)
(51.8331 0.000302968 0)
(51.8328 0.000324608 0)
(51.8325 0.000353204 0)
(51.8322 0.000380354 0)
(51.832 0.000400555 0)
(51.8317 0.000414883 0)
(51.8314 0.000427513 0)
(51.8311 0.000439398 0)
(51.8308 0.000448738 0)
(51.8304 0.000454161 0)
(51.8301 0.000455108 0)
(51.8299 0.000451217 0)
(51.8296 0.000442132 0)
(51.8293 0.000429249 0)
(51.829 0.000417965 0)
(51.8287 0.000416446 0)
(51.8284 0.000429693 0)
(51.8282 0.000454282 0)
(51.8279 0.000480123 0)
(51.8277 0.000498541 0)
(51.8274 0.0005085 0)
(51.8272 0.000514929 0)
(51.8269 0.000521434 0)
(51.8267 0.000524632 0)
(51.8265 0.000515292 0)
(51.8262 0.000484915 0)
(51.826 0.000431778 0)
(51.8257 0.000361671 0)
(51.8255 0.000283351 0)
(51.8253 0.000202179 0)
(51.8251 0.000117599 0)
(51.8249 2.47933e-05 0)
(51.8247 -8.01442e-05 0)
(51.8245 -0.000195307 0)
(51.8243 -0.000312104 0)
(51.8241 -0.000419152 0)
(51.824 -0.000507823 0)
(51.8239 -0.000575531 0)
(51.8238 -0.000625811 0)
(51.8237 -0.000663703 0)
(51.8236 -0.000691136 0)
(51.8235 -0.000706162 0)
(51.8234 -0.000705293 0)
(51.8233 -0.000686218 0)
(51.8232 -0.000649346 0)
(51.823 -0.000598033 0)
(51.8228 -0.000537954 0)
(51.8227 -0.000476403 0)
(51.8226 -0.00042069 0)
(51.8225 -0.000375445 0)
(51.8224 -0.000340921 0)
(51.8223 -0.0003127 0)
(51.8222 -0.000283624 0)
(51.8221 -0.000249146 0)
(51.8221 -0.000209708 0)
(51.822 -0.000170585 0)
(51.822 -0.000137773 0)
(51.822 -0.000114548 0)
(51.822 -0.000101343 0)
(51.822 -9.62462e-05 0)
(51.822 -9.56063e-05 0)
(51.822 -9.42761e-05 0)
(51.822 -8.7268e-05 0)
(51.822 -7.24801e-05 0)
(51.822 -5.20097e-05 0)
(51.822 -3.01626e-05 0)
(51.822 -1.08056e-05 0)
(51.8221 3.3079e-06 0)
(51.8221 1.14057e-05 0)
(51.8222 1.34144e-05 0)
(51.8223 1.06589e-05 0)
(51.8223 7.7727e-06 0)
(51.8223 1.13355e-05 0)
(51.8224 2.58549e-05 0)
(51.8225 4.89157e-05 0)
(51.8225 7.24621e-05 0)
(51.8226 8.88075e-05 0)
(51.8227 9.53289e-05 0)
(51.8229 9.35646e-05 0)
(51.823 8.56988e-05 0)
(51.8231 7.30391e-05 0)
(51.8232 5.75477e-05 0)
(51.8233 4.2883e-05 0)
(51.8233 3.31459e-05 0)
(51.8234 3.04675e-05 0)
(51.8235 3.35863e-05 0)
(51.8235 3.86756e-05 0)
(51.8236 4.14098e-05 0)
(51.8237 3.92003e-05 0)
(51.8237 3.16342e-05 0)
(51.8238 2.07388e-05 0)
(51.8238 9.29595e-06 0)
(51.8239 -1.7836e-07 0)
(51.8239 -7.48984e-06 0)
(51.824 -1.37022e-05 0)
(51.824 -1.86321e-05 0)
(51.8241 -2.00988e-05 0)
(51.8242 -1.60396e-05 0)
(51.8242 -7.77706e-06 0)
(51.8243 -2.59168e-07 0)
(51.8244 1.73534e-06 0)
(51.8244 -2.15761e-06 0)
(51.8245 -7.81436e-06 0)
(51.8245 -1.12963e-05 0)
(51.8246 -1.22371e-05 0)
(51.8246 -1.31219e-05 0)
(51.8247 -1.59293e-05 0)
(51.8247 -1.77842e-05 0)
(51.8247 -1.47864e-05 0)
(51.8247 -5.30676e-06 0)
(51.8247 8.06707e-06 0)
(51.8247 2.10468e-05 0)
(51.8247 3.16513e-05 0)
(51.8247 4.07713e-05 0)
(51.8246 4.95123e-05 0)
(51.8245 5.68304e-05 0)
(51.8245 6.04307e-05 0)
(51.8244 5.99456e-05 0)
(51.8242 5.83629e-05 0)
(51.8241 5.90725e-05 0)
(51.824 6.23465e-05 0)
(51.8238 6.67626e-05 0)
(51.8236 7.20158e-05 0)
(51.8235 7.96657e-05 0)
(51.8233 9.17291e-05 0)
(51.8231 0.000108087 0)
(51.8229 0.000126307 0)
(51.8227 0.000142328 0)
(51.8225 0.000153074 0)
(51.8223 0.000158085 0)
(51.8221 0.000158847 0)
(51.8219 0.000156667 0)
(51.8216 0.000151996 0)
(51.8214 0.000144665 0)
(51.8212 0.000134662 0)
(51.8209 0.000123443 0)
(51.8207 0.000112634 0)
(51.8204 0.000103119 0)
(51.8202 9.51329e-05 0)
(51.82 8.87454e-05 0)
(51.8198 8.42268e-05 0)
(51.8196 8.11756e-05 0)
(51.8194 7.61262e-05 0)
(51.8192 7.44785e-05 0)
(40.4879 8.97549e-05 0)
(68.9805 0.00018599 0)
(59.5137 0.0001804 0)
(49.3132 0.000212742 0)
(48.6058 0.000132023 0)
(51.3594 0.000146189 0)
(52.593 0.000169491 0)
(52.2456 0.000129602 0)
(51.7509 0.000154435 0)
(51.6654 0.000207322 0)
(51.779 0.000187002 0)
(51.8476 0.000125219 0)
(51.8401 0.000117181 0)
(51.8169 0.000136315 0)
(51.8102 0.000162086 0)
(51.8143 0.000176722 0)
(51.8177 0.000159394 0)
(51.8177 0.000155961 0)
(51.8166 0.000184359 0)
(51.8159 0.000201043 0)
(51.816 0.000206039 0)
(51.8161 0.000234965 0)
(51.8163 0.000247243 0)
(51.8164 0.00024748 0)
(51.8166 0.000259904 0)
(51.8168 0.000273326 0)
(51.817 0.000280608 0)
(51.8171 0.000257225 0)
(51.8169 0.000167475 0)
(51.8168 5.00799e-05 0)
(51.8167 -3.78625e-06 0)
(51.8167 3.37196e-05 0)
(51.8166 9.78359e-05 0)
(51.8165 0.000124807 0)
(51.8165 0.000127244 0)
(51.8165 0.000144833 0)
(51.8166 0.000163891 0)
(51.8166 0.00014711 0)
(51.8167 0.000108591 0)
(51.817 0.000106745 0)
(51.8173 0.000168516 0)
(51.8175 0.000251971 0)
(51.8175 0.000300371 0)
(51.8175 0.000297154 0)
(51.8174 0.000256124 0)
(51.8173 0.000198246 0)
(51.8172 0.00015559 0)
(51.8172 0.000156965 0)
(51.8171 0.000190336 0)
(51.8171 0.000216829 0)
(51.8172 0.000219142 0)
(51.8172 0.000205364 0)
(51.8173 0.000175565 0)
(51.8173 0.000125592 0)
(51.8174 8.37879e-05 0)
(51.8175 9.86648e-05 0)
(51.8177 0.000177749 0)
(51.8178 0.000267435 0)
(51.8179 0.000311938 0)
(51.8179 0.000304139 0)
(51.8179 0.000269959 0)
(51.8177 0.000230798 0)
(51.8176 0.000198989 0)
(51.8175 0.000192028 0)
(51.8174 0.000222515 0)
(51.8174 0.000274866 0)
(51.8174 0.000312877 0)
(51.8175 0.000315646 0)
(51.8175 0.000294946 0)
(51.8175 0.000277195 0)
(51.8175 0.000276762 0)
(51.8175 0.00028747 0)
(51.8176 0.000294599 0)
(51.8175 0.000290116 0)
(51.8175 0.000277003 0)
(51.8175 0.000262827 0)
(51.8175 0.000252515 0)
(51.8175 0.000247764 0)
(51.8176 0.000249408 0)
(51.8176 0.000256513 0)
(51.8177 0.000264797 0)
(51.8178 0.000269704 0)
(51.818 0.000271345 0)
(51.8182 0.000273194 0)
(51.8183 0.000275423 0)
(51.8185 0.000273691 0)
(51.8187 0.000265613 0)
(51.8189 0.000255166 0)
(51.8191 0.00024902 0)
(51.8193 0.000250248 0)
(51.8195 0.000257142 0)
(51.8196 0.000265853 0)
(51.8198 0.000272083 0)
(51.82 0.000271845 0)
(51.8201 0.00026458 0)
(51.8202 0.000256313 0)
(51.8203 0.000255967 0)
(51.8203 0.000265324 0)
(51.8203 0.000274882 0)
(51.8203 0.000273402 0)
(51.8204 0.000259128 0)
(51.8204 0.000242028 0)
(51.8204 0.000234179 0)
(51.8204 0.00023777 0)
(51.8205 0.000243678 0)
(51.8205 0.000241654 0)
(51.8206 0.00023021 0)
(51.8207 0.000214816 0)
(51.8208 0.000199843 0)
(51.8209 0.0001843 0)
(51.8211 0.000166716 0)
(51.8212 0.000151268 0)
(51.8213 0.000145555 0)
(51.8214 0.000152037 0)
(51.8216 0.000161837 0)
(51.8217 0.000160659 0)
(51.8218 0.000141926 0)
(51.8219 0.000112418 0)
(51.822 8.52989e-05 0)
(51.8221 6.79892e-05 0)
(51.8222 5.63862e-05 0)
(51.8222 3.95331e-05 0)
(51.8223 9.32409e-06 0)
(51.8223 -3.37494e-05 0)
(51.8224 -8.25856e-05 0)
(51.8225 -0.00012899 0)
(51.8225 -0.000167164 0)
(51.8226 -0.000193878 0)
(51.8228 -0.000207102 0)
(51.8229 -0.000205436 0)
(51.823 -0.000188328 0)
(51.8232 -0.000156049 0)
(51.8234 -0.000109054 0)
(51.8236 -4.75235e-05 0)
(51.8238 2.78292e-05 0)
(51.824 0.000114449 0)
(51.8242 0.000206268 0)
(51.8243 0.000295018 0)
(51.8244 0.000372739 0)
(51.8244 0.000434191 0)
(51.8244 0.000478294 0)
(51.8243 0.000507475 0)
(51.8242 0.000525626 0)
(51.824 0.000535428 0)
(51.8239 0.000537128 0)
(51.8237 0.000530062 0)
(51.8234 0.000515578 0)
(51.8232 0.00049746 0)
(51.823 0.000479975 0)
(51.8228 0.000466111 0)
(51.8225 0.000455462 0)
(51.8224 0.000443539 0)
(51.8222 0.000424329 0)
(51.8221 0.000394237 0)
(51.8219 0.000354459 0)
(51.8218 0.000310115 0)
(51.8218 0.000267084 0)
(51.8217 0.000229211 0)
(51.8216 0.000197528 0)
(51.8216 0.000173292 0)
(51.8215 0.000156905 0)
(51.8215 0.00014511 0)
(51.8215 0.00013104 0)
(51.8214 0.000110133 0)
(51.8214 8.39682e-05 0)
(51.8214 5.67442e-05 0)
(51.8214 3.22199e-05 0)
(51.8214 1.20826e-05 0)
(51.8214 -4.10462e-06 0)
(51.8213 -1.82365e-05 0)
(51.8213 -3.352e-05 0)
(51.8213 -5.39218e-05 0)
(51.8213 -8.13431e-05 0)
(51.8214 -0.000112479 0)
(51.8214 -0.000141132 0)
(51.8214 -0.000162547 0)
(51.8214 -0.000176168 0)
(51.8214 -0.000183947 0)
(51.8214 -0.000186111 0)
(51.8214 -0.000180809 0)
(51.8214 -0.000167587 0)
(51.8214 -0.000151059 0)
(51.8214 -0.000138555 0)
(51.8215 -0.000133723 0)
(51.8215 -0.000133226 0)
(51.8215 -0.000130152 0)
(51.8215 -0.000120481 0)
(51.8215 -0.000106138 0)
(51.8216 -9.19099e-05 0)
(51.8216 -8.02596e-05 0)
(51.8216 -6.99503e-05 0)
(51.8216 -5.89372e-05 0)
(51.8216 -4.71986e-05 0)
(51.8216 -3.67293e-05 0)
(51.8216 -2.9378e-05 0)
(51.8216 -2.6736e-05 0)
(51.8217 -2.97675e-05 0)
(51.8217 -3.81966e-05 0)
(51.8217 -4.88087e-05 0)
(51.8217 -5.67496e-05 0)
(51.8217 -5.8826e-05 0)
(51.8217 -5.62083e-05 0)
(51.8217 -5.29005e-05 0)
(51.8217 -5.1576e-05 0)
(51.8218 -5.11314e-05 0)
(51.8218 -4.88799e-05 0)
(51.8218 -4.39566e-05 0)
(51.8218 -3.85117e-05 0)
(51.8218 -3.48946e-05 0)
(51.8218 -3.29414e-05 0)
(51.8218 -3.02288e-05 0)
(51.8218 -2.49027e-05 0)
(51.8218 -1.69598e-05 0)
(51.8218 -7.7571e-06 0)
(51.8218 2.98989e-06 0)
(51.8218 1.65363e-05 0)
(51.8218 3.37426e-05 0)
(51.8218 5.32433e-05 0)
(51.8217 7.27371e-05 0)
(51.8217 9.12141e-05 0)
(51.8217 0.000109295 0)
(51.8216 0.000127408 0)
(51.8215 0.000144565 0)
(51.8215 0.000159231 0)
(51.8214 0.000171021 0)
(51.8213 0.000181605 0)
(51.8212 0.00019374 0)
(51.8212 0.000208493 0)
(51.8211 0.000224723 0)
(51.821 0.000241102 0)
(51.8209 0.000257706 0)
(51.8208 0.000275632 0)
(51.8207 0.000294357 0)
(51.8205 0.000311414 0)
(51.8204 0.000323951 0)
(51.8203 0.000330681 0)
(51.8202 0.000332244 0)
(51.82 0.000330071 0)
(51.8199 0.00032496 0)
(51.8198 0.00031744 0)
(51.8197 0.000308796 0)
(51.8195 0.000300488 0)
(51.8194 0.000293577 0)
(51.8193 0.000287788 0)
(51.8192 0.000281693 0)
(51.8191 0.000273146 0)
(51.819 0.000262109 0)
(51.8188 0.000246239 0)
(51.8188 0.000234669 0)
(51.8186 0.000202614 0)
(40.4876 -5.22422e-07 0)
(68.9805 6.35843e-05 0)
(59.5139 0.000118986 0)
(49.3137 0.000287972 0)
(48.6063 0.000297677 0)
(51.3595 0.000250455 0)
(52.5933 0.000245751 0)
(52.2456 0.000246923 0)
(51.7507 0.000260306 0)
(51.665 0.000268069 0)
(51.7785 0.0002994 0)
(51.8472 0.000346985 0)
(51.8401 0.000414895 0)
(51.8173 0.000485142 0)
(51.8107 0.000539637 0)
(51.8151 0.00057391 0)
(51.8189 0.000553171 0)
(51.8191 0.00050761 0)
(51.8182 0.000481271 0)
(51.8179 0.000447621 0)
(51.818 0.000379727 0)
(51.8183 0.00032127 0)
(51.8183 0.000282002 0)
(51.8181 0.000235716 0)
(51.8182 0.000217096 0)
(51.8182 0.000222336 0)
(51.8184 0.000248783 0)
(51.8187 0.000334043 0)
(51.8187 0.000442626 0)
(51.8187 0.000494544 0)
(51.8186 0.000491251 0)
(51.8186 0.000490189 0)
(51.8186 0.00049911 0)
(51.8186 0.000477101 0)
(51.8185 0.000416202 0)
(51.8185 0.000363626 0)
(51.8186 0.000352569 0)
(51.8186 0.00035508 0)
(51.8185 0.000323371 0)
(51.8184 0.000260055 0)
(51.8184 0.000219693 0)
(51.8185 0.000238934 0)
(51.8186 0.000295848 0)
(51.8188 0.000352812 0)
(51.8189 0.0003919 0)
(51.819 0.000406881 0)
(51.819 0.000398645 0)
(51.819 0.00038005 0)
(51.8191 0.000362741 0)
(51.8191 0.000344805 0)
(51.8191 0.000325536 0)
(51.8191 0.000315303 0)
(51.8192 0.000315618 0)
(51.8192 0.000308672 0)
(51.8191 0.000284562 0)
(51.8191 0.00026319 0)
(51.8191 0.000269849 0)
(51.8192 0.000302785 0)
(51.8193 0.000341726 0)
(51.8194 0.000378873 0)
(51.8196 0.000419722 0)
(51.8197 0.000457879 0)
(51.8198 0.000471151 0)
(51.8198 0.000446832 0)
(51.8199 0.000397706 0)
(51.8199 0.000348172 0)
(51.82 0.00031348 0)
(51.8201 0.000295807 0)
(51.8201 0.000290265 0)
(51.8201 0.00028948 0)
(51.8201 0.000288599 0)
(51.8201 0.000289941 0)
(51.8201 0.00029874 0)
(51.8201 0.000312889 0)
(51.8201 0.000321241 0)
(51.8202 0.000313783 0)
(51.8202 0.000290344 0)
(51.8202 0.000258027 0)
(51.8201 0.000222987 0)
(51.8201 0.000186448 0)
(51.8201 0.0001476 0)
(51.8201 0.000108922 0)
(51.82 7.74496e-05 0)
(51.82 5.90064e-05 0)
(51.8199 5.08298e-05 0)
(51.8198 4.28734e-05 0)
(51.8197 2.89582e-05 0)
(51.8196 1.51069e-05 0)
(51.8195 1.34442e-05 0)
(51.8194 2.79209e-05 0)
(51.8193 4.97943e-05 0)
(51.8192 6.85578e-05 0)
(51.8191 8.42227e-05 0)
(51.819 0.000106097 0)
(51.819 0.000140813 0)
(51.819 0.000184211 0)
(51.819 0.000225136 0)
(51.8191 0.000254976 0)
(51.8191 0.000272178 0)
(51.8192 0.000279118 0)
(51.8192 0.000276764 0)
(51.8193 0.000264025 0)
(51.8193 0.000241691 0)
(51.8193 0.000214986 0)
(51.8193 0.000191073 0)
(51.8193 0.000174276 0)
(51.8193 0.000164164 0)
(51.8192 0.000157784 0)
(51.8192 0.000153211 0)
(51.8191 0.000150711 0)
(51.819 0.000152162 0)
(51.8189 0.000160432 0)
(51.8188 0.000178128 0)
(51.8187 0.0002047 0)
(51.8186 0.000233537 0)
(51.8185 0.000254086 0)
(51.8184 0.000259647 0)
(51.8184 0.000254223 0)
(51.8183 0.000251165 0)
(51.8182 0.000263422 0)
(51.8182 0.000293121 0)
(51.8181 0.00032939 0)
(51.818 0.00035658 0)
(51.8179 0.000365371 0)
(51.8178 0.000357622 0)
(51.8176 0.00034202 0)
(51.8174 0.00032548 0)
(51.8172 0.000307562 0)
(51.8169 0.000281493 0)
(51.8166 0.000239921 0)
(51.8163 0.000180794 0)
(51.816 0.000109486 0)
(51.8157 3.6238e-05 0)
(51.8154 -2.89215e-05 0)
(51.8151 -8.0573e-05 0)
(51.8149 -0.000118712 0)
(51.8147 -0.000147222 0)
(51.8145 -0.000170011 0)
(51.8144 -0.00018883 0)
(51.8144 -0.000203418 0)
(51.8145 -0.000212841 0)
(51.8145 -0.000217385 0)
(51.8147 -0.000219054 0)
(51.8148 -0.000220803 0)
(51.8151 -0.00022544 0)
(51.8153 -0.000234266 0)
(51.8156 -0.000246268 0)
(51.8159 -0.000258309 0)
(51.8162 -0.000266025 0)
(51.8165 -0.000266062 0)
(51.8169 -0.000258281 0)
(51.8173 -0.000246705 0)
(51.8176 -0.000237613 0)
(51.818 -0.000235159 0)
(51.8183 -0.000238056 0)
(51.8187 -0.000240455 0)
(51.819 -0.000235648 0)
(51.8193 -0.000219956 0)
(51.8196 -0.000194736 0)
(51.8198 -0.00016381 0)
(51.82 -0.000132427 0)
(51.8201 -0.000105584 0)
(51.8203 -8.72192e-05 0)
(51.8204 -7.92601e-05 0)
(51.8205 -7.98961e-05 0)
(51.8207 -8.36169e-05 0)
(51.8208 -8.40482e-05 0)
(51.8209 -7.7704e-05 0)
(51.8209 -6.49059e-05 0)
(51.821 -4.82206e-05 0)
(51.8211 -3.10492e-05 0)
(51.8212 -1.73192e-05 0)
(51.8213 -1.07505e-05 0)
(51.8213 -1.25651e-05 0)
(51.8214 -1.95198e-05 0)
(51.8214 -2.47619e-05 0)
(51.8214 -2.24803e-05 0)
(51.8215 -1.2403e-05 0)
(51.8215 6.28955e-07 0)
(51.8215 1.14463e-05 0)
(51.8215 1.88972e-05 0)
(51.8215 2.50556e-05 0)
(51.8215 3.07977e-05 0)
(51.8215 3.35738e-05 0)
(51.8215 3.02137e-05 0)
(51.8215 2.09858e-05 0)
(51.8215 1.01777e-05 0)
(51.8215 2.89793e-06 0)
(51.8216 1.72018e-06 0)
(51.8216 5.8614e-06 0)
(51.8216 1.26717e-05 0)
(51.8216 1.93999e-05 0)
(51.8216 2.39088e-05 0)
(51.8216 2.4893e-05 0)
(51.8216 2.17376e-05 0)
(51.8216 1.49963e-05 0)
(51.8216 5.42622e-06 0)
(51.8217 -5.95538e-06 0)
(51.8217 -1.82434e-05 0)
(51.8217 -2.96676e-05 0)
(51.8217 -3.80439e-05 0)
(51.8217 -4.20535e-05 0)
(51.8217 -4.22173e-05 0)
(51.8217 -4.02389e-05 0)
(51.8217 -3.73327e-05 0)
(51.8217 -3.35567e-05 0)
(51.8217 -2.90415e-05 0)
(51.8217 -2.50273e-05 0)
(51.8217 -2.31065e-05 0)
(51.8217 -2.31102e-05 0)
(51.8217 -2.2552e-05 0)
(51.8217 -1.84446e-05 0)
(51.8217 -9.57757e-06 0)
(51.8217 2.33557e-06 0)
(51.8217 1.60776e-05 0)
(51.8217 3.17884e-05 0)
(51.8217 5.12241e-05 0)
(51.8217 7.52234e-05 0)
(51.8216 0.000101826 0)
(51.8216 0.000127554 0)
(51.8215 0.000150305 0)
(51.8215 0.000170476 0)
(51.8214 0.000189234 0)
(51.8214 0.000206327 0)
(51.8213 0.000220392 0)
(51.8212 0.000231404 0)
(51.8211 0.000241916 0)
(51.821 0.000255268 0)
(51.8209 0.000272979 0)
(51.8209 0.000293897 0)
(51.8208 0.000315557 0)
(51.8206 0.000336208 0)
(51.8205 0.000355465 0)
(51.8204 0.000373336 0)
(51.8203 0.000388711 0)
(51.8202 0.000399406 0)
(51.8201 0.000403712 0)
(51.82 0.000401812 0)
(51.8199 0.000395551 0)
(51.8197 0.000387086 0)
(51.8196 0.000377782 0)
(51.8195 0.000368112 0)
(51.8194 0.000358443 0)
(51.8193 0.000349229 0)
(51.8192 0.000340462 0)
(51.8191 0.000330941 0)
(51.819 0.000319775 0)
(51.8189 0.000302543 0)
(51.8188 0.000289327 0)
(51.8187 0.000240066 0)
(40.488 -3.73548e-05 0)
(68.9804 -5.04803e-05 0)
(59.5136 -2.55493e-05 0)
(49.3132 6.65351e-05 0)
(48.6058 0.000135272 0)
(51.3593 0.000199264 0)
(52.593 0.000206765 0)
(52.2452 0.000199312 0)
(51.7504 0.000200974 0)
(51.6648 0.000186554 0)
(51.7784 0.0001814 0)
(51.847 0.000135581 0)
(51.8396 6.49208e-05 0)
(51.8166 2.4997e-05 0)
(51.8101 7.42729e-07 0)
(51.8146 1.2645e-05 0)
(51.8182 5.00897e-05 0)
(51.8183 8.01733e-05 0)
(51.8174 0.000107752 0)
(51.8171 0.000144202 0)
(51.8172 0.000166585 0)
(51.8174 0.000173085 0)
(51.8176 0.000187477 0)
(51.8175 0.000184208 0)
(51.8174 0.000170465 0)
(51.8173 0.000143365 0)
(51.817 8.01045e-05 0)
(51.817 3.56747e-05 0)
(51.8171 5.88309e-05 0)
(51.8171 0.000102646 0)
(51.8172 0.000116105 0)
(51.8173 0.00011665 0)
(51.8175 0.000145588 0)
(51.8176 0.000192272 0)
(51.8176 0.000201085 0)
(51.8177 0.000166703 0)
(51.8179 0.000152655 0)
(51.818 0.000190536 0)
(51.8181 0.000232467 0)
(51.818 0.000226409 0)
(51.8179 0.000182453 0)
(51.8178 0.000137072 0)
(51.8178 9.88271e-05 0)
(51.8177 6.75563e-05 0)
(51.8177 6.00555e-05 0)
(51.8177 8.22964e-05 0)
(51.8177 0.000111977 0)
(51.8177 0.000129875 0)
(51.8178 0.000139502 0)
(51.8178 0.000144867 0)
(51.8179 0.000141179 0)
(51.8179 0.000136965 0)
(51.8179 0.000154097 0)
(51.8179 0.000191313 0)
(51.8179 0.000213894 0)
(51.8178 0.000194957 0)
(51.8178 0.00014587 0)
(51.8178 9.39021e-05 0)
(51.8178 5.0188e-05 0)
(51.8178 1.55669e-05 0)
(51.8179 9.13044e-07 0)
(51.818 1.8293e-05 0)
(51.8181 5.6754e-05 0)
(51.8183 8.70417e-05 0)
(51.8183 9.42671e-05 0)
(51.8184 9.34937e-05 0)
(51.8185 0.000108931 0)
(51.8185 0.000145576 0)
(51.8186 0.000185345 0)
(51.8186 0.000206247 0)
(51.8187 0.00020163 0)
(51.8188 0.000182948 0)
(51.8189 0.000166564 0)
(51.819 0.000159168 0)
(51.8191 0.000156966 0)
(51.8192 0.00015695 0)
(51.8193 0.000163367 0)
(51.8194 0.000181028 0)
(51.8194 0.000206817 0)
(51.8195 0.000232238 0)
(51.8195 0.000252959 0)
(51.8195 0.000272586 0)
(51.8195 0.000297237 0)
(51.8194 0.000328287 0)
(51.8194 0.000360442 0)
(51.8194 0.000385978 0)
(51.8194 0.000401368 0)
(51.8194 0.000410444 0)
(51.8194 0.000419621 0)
(51.8195 0.000428563 0)
(51.8195 0.000427016 0)
(51.8196 0.000403555 0)
(51.8197 0.000357889 0)
(51.8198 0.000302782 0)
(51.8198 0.000253035 0)
(51.8199 0.000213923 0)
(51.8201 0.000181243 0)
(51.8202 0.00015096 0)
(51.8203 0.000126332 0)
(51.8204 0.000115127 0)
(51.8206 0.000121391 0)
(51.8207 0.000141496 0)
(51.8208 0.000168169 0)
(51.8209 0.000197052 0)
(51.8209 0.000228161 0)
(51.821 0.000261393 0)
(51.8211 0.000292566 0)
(51.8211 0.000315502 0)
(51.8212 0.000327724 0)
(51.8213 0.00033295 0)
(51.8214 0.000337265 0)
(51.8215 0.000342974 0)
(51.8216 0.000346585 0)
(51.8217 0.000342048 0)
(51.8219 0.000325311 0)
(51.8221 0.000296505 0)
(51.8222 0.000259642 0)
(51.8224 0.000221574 0)
(51.8226 0.000190696 0)
(51.8228 0.000173973 0)
(51.823 0.000172786 0)
(51.8232 0.00018146 0)
(51.8235 0.000191108 0)
(51.8237 0.000196881 0)
(51.824 0.000202383 0)
(51.8242 0.000217077 0)
(51.8245 0.000248582 0)
(51.8247 0.000296319 0)
(51.8249 0.000351267 0)
(51.8251 0.000401674 0)
(51.8253 0.000439972 0)
(51.8254 0.000466003 0)
(51.8255 0.000484977 0)
(51.8255 0.000502006 0)
(51.8254 0.000517526 0)
(51.8254 0.000526414 0)
(51.8253 0.000521823 0)
(51.8252 0.000499646 0)
(51.825 0.000459346 0)
(51.8249 0.00040435 0)
(51.8247 0.000341037 0)
(51.8245 0.000274889 0)
(51.8244 0.000208161 0)
(51.8242 0.000140581 0)
(51.8241 7.12621e-05 0)
(51.824 8.08397e-07 0)
(51.8238 -6.84455e-05 0)
(51.8237 -0.000131916 0)
(51.8236 -0.000184281 0)
(51.8234 -0.000222252 0)
(51.8232 -0.000245828 0)
(51.8231 -0.000258618 0)
(51.8229 -0.00026701 0)
(51.8228 -0.000276835 0)
(51.8226 -0.000289723 0)
(51.8225 -0.000301664 0)
(51.8223 -0.000305032 0)
(51.8221 -0.000292898 0)
(51.822 -0.00026275 0)
(51.8218 -0.000220143 0)
(51.8217 -0.000176393 0)
(51.8216 -0.000142601 0)
(51.8215 -0.000124763 0)
(51.8214 -0.000123167 0)
(51.8213 -0.000133932 0)
(51.8212 -0.000150461 0)
(51.8212 -0.000166059 0)
(51.8211 -0.000176652 0)
(51.8211 -0.000182316 0)
(51.821 -0.000186164 0)
(51.8209 -0.000191366 0)
(51.8209 -0.000199249 0)
(51.8209 -0.000209605 0)
(51.8209 -0.000221665 0)
(51.8208 -0.000233822 0)
(51.8208 -0.000242441 0)
(51.8208 -0.000242465 0)
(51.8209 -0.000230793 0)
(51.8209 -0.000209427 0)
(51.8209 -0.00018474 0)
(51.8209 -0.00016316 0)
(51.821 -0.000147445 0)
(51.821 -0.000136827 0)
(51.8211 -0.000129852 0)
(51.8211 -0.000126164 0)
(51.8212 -0.000125556 0)
(51.8212 -0.000126182 0)
(51.8213 -0.000124641 0)
(51.8213 -0.0001181 0)
(51.8213 -0.00010619 0)
(51.8214 -9.08657e-05 0)
(51.8214 -7.49242e-05 0)
(51.8214 -6.09709e-05 0)
(51.8214 -5.11918e-05 0)
(51.8215 -4.71321e-05 0)
(51.8215 -4.86301e-05 0)
(51.8215 -5.39067e-05 0)
(51.8215 -6.08018e-05 0)
(51.8216 -6.79941e-05 0)
(51.8216 -7.46376e-05 0)
(51.8216 -7.93833e-05 0)
(51.8216 -8.04498e-05 0)
(51.8216 -7.70384e-05 0)
(51.8216 -7.04389e-05 0)
(51.8216 -6.31724e-05 0)
(51.8216 -5.68549e-05 0)
(51.8216 -5.11996e-05 0)
(51.8216 -4.52348e-05 0)
(51.8216 -3.92246e-05 0)