/*--------------------------------*- C++ -*----------------------------------*\
| =========                 |                                                 |
| \\      /  F ield         | OpenFOAM: The Open Source CFD Toolbox           |
|  \\    /   O peration     | Version:  2406                                  |
|   \\  /    A nd           | Website:  www.openfoam.com                      |
|    \\/     M anipulation  |                                                 |
\*---------------------------------------------------------------------------*/
FoamFile
{
    version     2.0;
    format      ascii;
    arch        "LSB;label=32;scalar=64";
    class       surfaceScalarField;
    location    "0.1";
    object      phi;
}
// * * * * * * * * * * * * * * * * * * * * * * * * * * * * * * * * * * * * * //

dimensions      [0 3 -1 0 0 0 0];

oriented        oriented;

internalField   nonuniform List<scalar> 
220
(
1.02417e-05
-3.67094e-08
1.02647e-05
-2.29383e-08
1.02534e-05
1.12689e-08
1.02567e-05
-3.34982e-09
1.02617e-05
-5.00365e-09
1.02582e-05
3.50256e-09
1.02546e-05
3.59688e-09
1.02561e-05
-1.50407e-09
1.02596e-05
-3.49767e-09
1.02601e-05
-4.82401e-10
1.02567e-05
3.39037e-09
1.02541e-05
2.62544e-09
1.02561e-05
-2.01152e-09
1.02605e-05
-4.41217e-09
1.02614e-05
-9.11002e-10
1.02576e-05
3.8082e-09
1.02545e-05
3.13275e-09
1.02553e-05
-7.77661e-10
1.02579e-05
-2.65925e-09
1.02615e-05
-3.61479e-09
1.02591e-05
2.44964e-09
1.02593e-05
-2.20101e-10
1.02498e-05
9.49204e-09
1.02661e-05
-1.63035e-08
-4.0031e-08
2.04701e-05
-2.75681e-08
2.04642e-05
-1.69997e-08
2.04676e-05
7.82545e-09
2.04698e-05
-5.50494e-09
2.04733e-05
-8.49345e-09
2.04707e-05
6.07618e-09
2.04671e-05
7.1545e-09
2.04672e-05
-1.59316e-09
2.04705e-05
-6.79291e-09
2.04725e-05
-2.46236e-09
2.04699e-05
5.95757e-09
2.0466e-05
6.60869e-09
2.04659e-05
-1.96814e-09
2.047e-05
-8.54532e-09
2.0473e-05
-3.86802e-09
2.04712e-05
5.55327e-09
2.04677e-05
6.69513e-09
2.04663e-05
6.27837e-10
2.04692e-05
-5.58603e-09
2.04739e-05
-8.26102e-09
2.04701e-05
6.22947e-09
2.04661e-05
3.77051e-09
2.04709e-05
4.68613e-09
2.04705e-05
-1.59463e-08
-3.36892e-08
2.35147e-05
2.9131e-08
2.34767e-05
2.10661e-08
2.34904e-05
-5.88994e-09
2.34863e-05
-1.39101e-09
2.34837e-05
-5.94676e-09
2.34853e-05
4.45115e-09
2.34862e-05
6.33729e-09
2.34843e-05
2.8286e-10
2.34833e-05
-5.80026e-09
2.3485e-05
-4.20552e-09
2.34867e-05
4.23349e-09
2.34857e-05
7.69523e-09
2.34828e-05
8.84816e-10
2.34816e-05
-7.28929e-09
2.34837e-05
-6.00272e-09
2.34868e-05
2.38912e-09
2.3487e-05
6.54626e-09
2.34843e-05
3.31727e-09
2.3484e-05
-5.2341e-09
2.34848e-05
-9.08154e-09
2.34832e-05
7.81125e-09
2.34773e-05
9.66511e-09
2.34932e-05
-1.12325e-08
2.34674e-05
9.84233e-09
3.40373e-08
2.04701e-05
3.72338e-08
2.04664e-05
2.47508e-08
2.04707e-05
-1.02229e-08
2.0469e-05
3.26992e-10
2.04649e-05
-1.79177e-09
2.04678e-05
1.47227e-09
2.04717e-05
2.52595e-09
2.04711e-05
8.39705e-10
2.04676e-05
-2.27645e-09
2.0466e-05
-2.62116e-09
2.0469e-05
1.23083e-09
2.04728e-05
3.91495e-09
2.04721e-05
1.55241e-09
2.04676e-05
-2.82078e-09
2.04652e-05
-3.52667e-09
2.04677e-05
-1.37361e-10
2.04714e-05
2.8498e-09
2.04721e-05
2.57847e-09
2.0469e-05
-2.13219e-09
2.04646e-05
-4.64365e-09
2.04683e-05
4.13101e-09
2.04713e-05
6.64252e-09
2.0473e-05
-1.29424e-08
2.04693e-05
1.35802e-08
4.0566e-08
1.02416e-05
1.02664e-05
1.02561e-05
1.02565e-05
1.02547e-05
1.02562e-05
1.02587e-05
1.02595e-05
1.02572e-05
1.02546e-05
1.02559e-05
1.02598e-05
1.02613e-05
1.02585e-05
1.0255e-05
1.02548e-05
1.02577e-05
1.02603e-05
1.02581e-05
1.02535e-05
1.02576e-05
1.02643e-05
1.02513e-05
1.02649e-05
)
;

boundaryField
{
    inlet
    {
        type            calculated;
        value           nonuniform List<scalar> 5(-1.0205e-05 -2.04793e-05 -2.35714e-05 -2.04782e-05 -1.02044e-05);
    }
    outlet
    {
        type            calculated;
        value           nonuniform List<scalar> 5(1.03062e-05 2.04642e-05 2.33997e-05 2.04627e-05 1.03055e-05);
    }
    walls
    {
        type            calculated;
        value           uniform 0;
    }
    frontAndBack
    {
        type            empty;
    }
}


// ************************************************************************* //
