/*--------------------------------*- C++ -*----------------------------------*\
| =========                 |                                                 |
| \\      /  F ield         | OpenFOAM: The Open Source CFD Toolbox           |
|  \\    /   O peration     | Version:  2406                                  |
|   \\  /    A nd           | Website:  www.openfoam.com                      |
|    \\/     M anipulation  |                                                 |
\*---------------------------------------------------------------------------*/
FoamFile
{
    version     2.0;
    format      ascii;
    arch        "LSB;label=32;scalar=64";
    class       volVectorField;
    location    "0.1";
    object      U;
}
// * * * * * * * * * * * * * * * * * * * * * * * * * * * * * * * * * * * * * //

dimensions      [0 1 -1 0 0 0 0];

internalField   nonuniform List<vector> 
125
(
(0.05126 -7.86279e-05 0)
(0.0509819 -4.97927e-05 0)
(0.0514705 1.84869e-05 0)
(0.0512456 -3.83077e-06 0)
(0.0512877 -7.13055e-06 0)
(0.0512989 5.04507e-06 0)
(0.0512904 4.87764e-06 0)
(0.0512759 -2.68739e-06 0)
(0.0512831 -5.03024e-06 0)
(0.0512993 9.21006e-08 0)
(0.0512969 5.2237e-06 0)
(0.0512799 3.05741e-06 0)
(0.0512728 -3.912e-06 0)
(0.0512871 -6.51978e-06 0)
(0.0513038 -2.77444e-07 0)
(0.0513009 6.48612e-06 0)
(0.0512872 4.41853e-06 0)
(0.0512729 -1.80918e-06 0)
(0.0512674 -3.98147e-06 0)
(0.0513105 -5.08401e-06 0)
(0.0513045 2.99519e-06 0)
(0.0513378 -1.93724e-06 0)
(0.0510818 1.62891e-05 0)
(0.0515681 -3.56948e-05 0)
(0.0512974 -8.5029e-05 0)
(0.102833 -0.000130968 0)
(0.101525 -8.57097e-05 0)
(0.102754 2.76496e-05 0)
(0.102295 -1.23727e-05 0)
(0.102326 -1.95198e-05 0)
(0.10235 1.36193e-05 0)
(0.102372 1.52266e-05 0)
(0.102339 -5.1223e-06 0)
(0.102323 -1.48054e-05 0)
(0.102351 -3.18764e-06 0)
(0.10237 1.38989e-05 0)
(0.102355 1.222e-05 0)
(0.102326 -7.28389e-06 0)
(0.102322 -1.88805e-05 0)
(0.102346 -5.27356e-06 0)
(0.10237 1.49833e-05 0)
(0.102374 1.40657e-05 0)
(0.102334 -1.50644e-06 0)
(0.102294 -1.21593e-05 0)
(0.102388 -1.70224e-05 0)
(0.10237 1.14503e-05 0)
(0.102428 3.14407e-06 0)
(0.101868 2.39704e-05 0)
(0.103146 -6.71398e-05 0)
(0.101924 -0.000149523 0)
(0.118328 2.59545e-06 0)
(0.116465 5.55546e-06 0)
(0.117918 2.44948e-06 0)
(0.117383 -9.50473e-06 0)
(0.117384 -2.05497e-05 0)
(0.117407 1.47046e-05 0)
(0.117464 1.93309e-05 0)
(0.117434 -1.55308e-06 0)
(0.117393 -1.79719e-05 0)
(0.117409 -9.60893e-06 0)
(0.117444 1.45183e-05 0)
(0.117452 2.05887e-05 0)
(0.117421 -1.37942e-06 0)
(0.117389 -2.265e-05 0)
(0.117395 -1.4165e-05 0)
(0.117434 1.1226e-05 0)
(0.117468 1.90037e-05 0)
(0.117432 5.50314e-06 0)
(0.117368 -1.54113e-05 0)
(0.117457 -2.46473e-05 0)
(0.117429 1.98288e-05 0)
(0.117516 1.9141e-05 0)
(0.11686 -8.28774e-06 0)
(0.118383 -8.448e-06 0)
(0.116641 8.15486e-08 0)
(0.102828 0.000133877 0)
(0.10153 9.41644e-05 0)
(0.102772 -2.3706e-05 0)
(0.102305 -2.67116e-07 0)
(0.1023 -9.92e-06 0)
(0.102317 7.86228e-06 0)
(0.102378 1.21794e-05 0)
(0.102366 2.48617e-06 0)
(0.102327 -1.08524e-05 0)
(0.102322 -1.03794e-05 0)
(0.102347 6.69283e-06 0)
(0.102372 1.69485e-05 0)
(0.102365 5.12986e-06 0)
(0.102333 -1.33628e-05 0)
(0.102315 -1.45718e-05 0)
(0.102336 1.18854e-06 0)
(0.102375 1.2745e-05 0)
(0.102364 9.32683e-06 0)
(0.102312 -9.5697e-06 0)
(0.102359 -1.86981e-05 0)
(0.102337 1.72406e-05 0)
(0.102443 2.26295e-05 0)
(0.101893 -3.66325e-05 0)
(0.103146 5.46464e-05 0)
(0.101915 0.000150884 0)
(0.051257 7.85871e-05 0)
(0.0509858 5.16793e-05 0)
(0.0514847 -1.75e-05 0)
(0.0512548 8.17571e-07 0)
(0.0512663 -1.66572e-06 0)
(0.0512718 1.68881e-06 0)
(0.0512966 3.12545e-06 0)
(0.0512992 1.5215e-06 0)
(0.0512866 -2.79444e-06 0)
(0.0512755 -4.08879e-06 0)
(0.0512772 1.04448e-06 0)
(0.0512939 5.739e-06 0)
(0.0513055 3.07073e-06 0)
(0.0512966 -3.3692e-06 0)
(0.0512783 -5.57393e-06 0)
(0.0512734 -1.41656e-06 0)
(0.0512888 3.61498e-06 0)
(0.0512984 4.23197e-06 0)
(0.0512835 -2.33418e-06 0)
(0.0512861 -5.91986e-06 0)
(0.051276 5.94074e-06 0)
(0.0513506 8.38993e-06 0)
(0.0511022 -2.05482e-05 0)
(0.0515675 3.23901e-05 0)
(0.0512911 8.66488e-05 0)
)
;

boundaryField
{
    inlet
    {
        type            zeroGradient;
    }
    outlet
    {
        type            zeroGradient;
    }
    walls
    {
        type            noSlip;
    }
    frontAndBack
    {
        type            empty;
    }
}


// ************************************************************************* //
