/*--------------------------------*- C++ -*----------------------------------*\
| =========                 |                                                 |
| \\      /  F ield         | OpenFOAM: The Open Source CFD Toolbox           |
|  \\    /   O peration     | Version:  2406                                  |
|   \\  /    A nd           | Website:  www.openfoam.com                      |
|    \\/     M anipulation  |                                                 |
\*---------------------------------------------------------------------------*/
FoamFile
{
    version     2.0;
    format      ascii;
    arch        "LSB;label=32;scalar=64";
    class       surfaceScalarField;
    location    "0.85";
    object      alphaPhi0.air;
}
// * * * * * * * * * * * * * * * * * * * * * * * * * * * * * * * * * * * * * //

dimensions      [0 3 -1 0 0 0 0];

oriented        oriented;

internalField   nonuniform List<scalar> 
12225
(
0.50251
2.43261e-06
0.502504
6.15893e-06
0.502497
6.57075e-06
0.502492
4.8456e-06
0.502488
4.52091e-06
0.502483
5.05644e-06
0.502477
5.51998e-06
0.502472
5.59865e-06
0.502466
5.36656e-06
0.502461
5.55688e-06
0.502455
5.40299e-06
0.50245
5.17329e-06
0.502445
5.43035e-06
0.502439
5.69941e-06
0.502433
5.81353e-06
0.502427
5.72663e-06
0.502422
5.38127e-06
0.502417
5.16934e-06
0.502411
5.33882e-06
0.502406
5.65532e-06
0.5024
5.87429e-06
0.502394
5.82348e-06
0.502389
5.44387e-06
0.502384
5.00139e-06
0.502379
4.83386e-06
0.502374
5.09967e-06
0.502368
5.24367e-06
0.502363
5.16593e-06
0.502358
5.24077e-06
0.502353
5.45004e-06
0.502347
5.87997e-06
0.502341
6.15209e-06
0.502335
6.05551e-06
0.502329
5.93703e-06
0.502323
5.77423e-06
0.502317
5.54188e-06
0.502312
5.44775e-06
0.502306
5.43216e-06
0.502301
5.41051e-06
0.502295
5.51846e-06
0.50229
5.69933e-06
0.502284
5.69429e-06
0.502279
5.50774e-06
0.502273
5.38757e-06
0.502268
5.48867e-06
0.502262
5.63738e-06
0.502257
5.48264e-06
0.502251
5.09974e-06
0.502247
4.90553e-06
0.502242
4.96885e-06
0.502237
5.02683e-06
0.502232
5.0398e-06
0.502226
5.11934e-06
0.502221
5.20014e-06
0.502216
5.15464e-06
0.502211
5.07853e-06
0.502206
5.1694e-06
0.5022
5.39213e-06
0.502195
5.55433e-06
0.502189
5.61416e-06
0.502184
5.62812e-06
0.502178
5.58633e-06
0.502173
5.50418e-06
0.502167
5.44886e-06
0.502162
5.44746e-06
0.502156
5.48982e-06
0.502151
5.51467e-06
0.502145
5.38111e-06
0.50214
5.09336e-06
0.502135
4.92708e-06
0.50213
5.03205e-06
0.502125
5.16148e-06
0.50212
5.06168e-06
0.502115
4.82137e-06
0.50211
4.68382e-06
0.502106
4.72213e-06
0.502101
4.80347e-06
0.502096
4.79597e-06
0.502091
4.72616e-06
0.502087
4.69354e-06
0.502082
4.70917e-06
0.502077
4.77042e-06
0.502072
4.89117e-06
0.502067
5.01505e-06
0.502062
5.04209e-06
0.502057
4.98715e-06
0.502052
4.99319e-06
0.502047
5.16084e-06
0.502042
5.40199e-06
0.502036
5.53376e-06
0.502031
5.548e-06
0.502025
5.6099e-06
0.502019
5.7827e-06
0.502013
5.91686e-06
0.502007
5.8898e-06
0.502002
5.79412e-06
0.501996
5.78522e-06
0.50199
5.89368e-06
0.501984
6.06456e-06
0.501978
6.25655e-06
0.501971
6.42046e-06
0.501965
6.45474e-06
0.501959
6.30099e-06
0.501952
6.07483e-06
0.501946
6.00888e-06
0.50194
6.20355e-06
0.501934
6.50347e-06
0.501927
6.65536e-06
0.501921
6.54827e-06
0.501914
6.26358e-06
0.501908
5.97475e-06
0.501902
5.82656e-06
0.501897
5.83758e-06
0.501891
5.9152e-06
0.501885
5.97769e-06
0.501879
5.99245e-06
0.501873
5.91926e-06
0.501867
5.75788e-06
0.501861
5.60505e-06
0.501856
5.54552e-06
0.50185
5.55322e-06
0.501845
5.57766e-06
0.501839
5.57537e-06
0.501834
5.47563e-06
0.501828
5.24325e-06
0.501823
5.00339e-06
0.501819
4.96599e-06
0.501813
5.14273e-06
0.501808
5.32308e-06
0.501803
5.32913e-06
0.501798
5.20421e-06
0.501792
5.07415e-06
0.501787
4.99543e-06
0.501783
4.92439e-06
0.501778
4.83186e-06
0.501773
4.75223e-06
0.501768
4.74699e-06
0.501763
4.8331e-06
0.501758
4.93251e-06
0.501754
4.92716e-06
0.501749
4.79809e-06
0.501744
4.67903e-06
0.501739
4.70881e-06
0.501734
4.86463e-06
0.501729
4.98434e-06
0.501725
4.93609e-06
0.50172
4.71816e-06
0.501715
4.44827e-06
0.501711
4.27532e-06
0.501707
4.29045e-06
0.501702
4.44771e-06
0.501698
4.59889e-06
0.501693
4.63012e-06
0.501689
4.5665e-06
0.501684
4.51977e-06
0.501679
4.53761e-06
0.501675
4.54685e-06
0.501671
4.44649e-06
0.501666
4.25034e-06
0.501662
4.10459e-06
0.501658
4.15898e-06
0.501654
4.40425e-06
0.501649
4.67478e-06
0.501644
4.81588e-06
0.501639
4.82256e-06
0.501634
4.78014e-06
0.50163
4.72287e-06
0.501625
4.62762e-06
0.501621
4.52657e-06
0.501616
4.51771e-06
0.501611
4.63682e-06
0.501607
4.81224e-06
0.501602
4.96052e-06
0.501597
5.08299e-06
0.501591
5.20089e-06
0.501586
5.27369e-06
0.501581
5.25442e-06
0.501576
5.18294e-06
0.501571
5.14265e-06
0.501565
5.14643e-06
0.50156
5.13532e-06
0.501555
5.10763e-06
0.50155
5.14489e-06
0.501545
5.27818e-06
0.501539
5.41711e-06
0.501534
5.46148e-06
0.501528
5.43291e-06
0.501523
5.40619e-06
0.501518
5.36068e-06
0.501512
5.21923e-06
0.501507
5.01312e-06
0.501503
4.89475e-06
0.501498
4.95068e-06
0.501492
5.08256e-06
0.501487
5.1225e-06
0.501482
5.02995e-06
0.501477
4.90855e-06
0.501473
4.8651e-06
0.501468
4.88735e-06
0.501463
4.89425e-06
0.501458
4.84069e-06
0.501453
4.71317e-06
0.501449
4.49006e-06
0.501445
4.19136e-06
0.501441
3.93077e-06
0.501437
3.82592e-06
0.501433
3.8595e-06
0.501429
3.91144e-06
0.501425
3.90671e-06
0.501421
3.85992e-06
0.501417
3.80089e-06
0.501414
3.72361e-06
0.50141
3.6065e-06
0.501407
3.43467e-06
0.501403
3.20615e-06
0.501401
2.93856e-06
0.501398
2.67765e-06
0.501395
2.46373e-06
0.501393
2.28969e-06
0.501391
2.11374e-06
0.501389
1.91605e-06
0.501387
1.72258e-06
0.501386
1.56249e-06
0.501384
1.42266e-06
0.501383
1.27254e-06
0.501382
1.13471e-06
0.501381
1.04458e-06
0.50138
9.6649e-07
0.501379
8.65423e-07
0.501378
7.74337e-07
0.501378
7.49182e-07
0.501377
7.81016e-07
0.501376
7.80282e-07
0.501375
6.90362e-07
0.501375
5.82354e-07
0.501374
5.27171e-07
0.501374
5.00575e-07
0.501373
4.29208e-07
0.501373
2.88517e-07
0.501373
2.60752e-07
0.501372
4.03116e-07
0.501372
5.7318e-07
0.501371
6.25819e-07
0.501371
5.70934e-07
0.50137
4.87556e-07
0.50137
4.22067e-07
0.501369
3.52555e-07
0.501369
2.72317e-07
0.501369
1.60606e-07
2.75197e-07
0.502517
-5.00852e-07
0.502522
1.07947e-06
0.502526
2.16067e-06
0.502529
1.97359e-06
0.502532
1.5633e-06
0.502536
1.68865e-06
0.502539
2.20917e-06
0.502542
2.22526e-06
0.502545
2.56112e-06
0.502548
2.8642e-06
0.50255
2.90271e-06
0.502553
2.60593e-06
0.502556
2.09762e-06
0.50256
1.96649e-06
0.502563
2.33157e-06
0.502566
2.81765e-06
0.502569
2.92768e-06
0.502571
2.73205e-06
0.502574
2.64161e-06
0.502577
2.55473e-06
0.50258
2.32169e-06
0.502584
2.12033e-06
0.502588
2.13974e-06
0.50259
2.29262e-06
0.502593
2.09608e-06
0.502596
2.02151e-06
0.502599
2.46572e-06
0.502601
2.78937e-06
0.502603
3.01401e-06
0.502606
3.17958e-06
0.502608
3.18953e-06
0.502611
3.10221e-06
0.502615
2.87651e-06
0.502618
2.66589e-06
0.502621
2.49613e-06
0.502624
2.38393e-06
0.502627
2.37135e-06
0.50263
2.34179e-06
0.502634
2.24339e-06
0.502637
2.1855e-06
0.50264
2.21086e-06
0.502644
2.21523e-06
0.502647
2.18615e-06
0.502651
2.11061e-06
0.502654
1.98592e-06
0.502658
2.07467e-06
0.502661
2.43348e-06
0.502663
2.62342e-06
0.502666
2.52885e-06
0.502668
2.5114e-06
0.50267
2.65568e-06
0.502673
2.70693e-06
0.502675
2.60899e-06
0.502678
2.52015e-06
0.502681
2.46614e-06
0.502683
2.34626e-06
0.502686
2.19763e-06
0.502689
2.18365e-06
0.502693
2.36434e-06
0.502696
2.6502e-06
0.502698
2.88613e-06
0.502701
2.89737e-06
0.502704
2.6545e-06
0.502707
2.38185e-06
0.50271
2.30191e-06
0.502713
2.40935e-06
0.502716
2.56988e-06
0.502719
2.62964e-06
0.502722
2.43981e-06
0.502724
2.08655e-06
0.502728
1.90287e-06
0.502731
2.02177e-06
0.502734
2.18691e-06
0.502736
2.1583e-06
0.502739
2.0391e-06
0.502741
2.08233e-06
0.502744
2.30249e-06
0.502746
2.43898e-06
0.502749
2.35001e-06
0.502751
2.22008e-06
0.502754
2.26455e-06
0.502756
2.46639e-06
0.502758
2.72569e-06
0.50276
2.98477e-06
0.502762
3.13013e-06
0.502764
3.00328e-06
0.502766
2.62992e-06
0.502769
2.31709e-06
0.502772
2.38259e-06
0.502775
2.73619e-06
0.502778
2.98118e-06
0.50278
2.93532e-06
0.502783
2.79566e-06
0.502786
2.77505e-06
0.50279
2.79719e-06
0.502793
2.70478e-06
0.502796
2.52307e-06
0.502799
2.40907e-06
0.502803
2.45263e-06
0.502807
2.60662e-06
0.50281
2.75773e-06
0.502814
2.8155e-06
0.502817
2.72797e-06
0.502821
2.49363e-06
0.502825
2.2258e-06
0.502829
2.11316e-06
0.502833
2.23147e-06
0.502837
2.44306e-06
0.502841
2.55746e-06
0.502845
2.52509e-06
0.502849
2.43375e-06
0.502852
2.40503e-06
0.502855
2.48871e-06
0.502859
2.59593e-06
0.502862
2.59487e-06
0.502866
2.47866e-06
0.502869
2.33748e-06
0.502873
2.23743e-06
0.502876
2.23275e-06
0.502879
2.37054e-06
0.502882
2.55526e-06
0.502885
2.59183e-06
0.502888
2.45022e-06
0.502892
2.29663e-06
0.502895
2.23101e-06
0.502897
2.19096e-06
0.5029
2.1573e-06
0.502903
2.24715e-06
0.502906
2.49022e-06
0.502909
2.71731e-06
0.502911
2.75344e-06
0.502913
2.61276e-06
0.502916
2.46572e-06
0.502919
2.44345e-06
0.502921
2.5209e-06
0.502923
2.56115e-06
0.502925
2.46919e-06
0.502928
2.32841e-06
0.50293
2.3187e-06
0.502933
2.47775e-06
0.502935
2.62019e-06
0.502937
2.58526e-06
0.502939
2.44413e-06
0.502942
2.4089e-06
0.502944
2.55834e-06
0.502946
2.77389e-06
0.502948
2.85761e-06
0.50295
2.68109e-06
0.502952
2.31081e-06
0.502954
2.00403e-06
0.502957
2.01965e-06
0.502959
2.35703e-06
0.502961
2.72648e-06
0.502963
2.83302e-06
0.502964
2.66224e-06
0.502967
2.44774e-06
0.502969
2.38438e-06
0.502971
2.43424e-06
0.502973
2.41639e-06
0.502974
2.2582e-06
0.502976
2.10836e-06
0.502979
2.18069e-06
0.502981
2.49937e-06
0.502983
2.8453e-06
0.502985
2.98683e-06
0.502987
2.90226e-06
0.502989
2.72776e-06
0.502991
2.54843e-06
0.502993
2.35026e-06
0.502995
2.16684e-06
0.502998
2.11323e-06
0.503
2.25371e-06
0.503003
2.49067e-06
0.503005
2.68282e-06
0.503007
2.8061e-06
0.50301
2.89757e-06
0.503012
2.92594e-06
0.503015
2.81938e-06
0.503017
2.60873e-06
0.50302
2.4383e-06
0.503023
2.40106e-06
0.503025
2.43382e-06
0.503028
2.43738e-06
0.503031
2.41647e-06
0.503034
2.43514e-06
0.503037
2.4913e-06
0.50304
2.5167e-06
0.503043
2.51447e-06
0.503045
2.54637e-06
0.503048
2.59274e-06
0.50305
2.53733e-06
0.503053
2.33505e-06
0.503056
2.12275e-06
0.503059
2.08411e-06
0.503062
2.23787e-06
0.503064
2.4123e-06
0.503067
2.43717e-06
0.503069
2.31658e-06
0.503072
2.18342e-06
0.503075
2.13462e-06
0.503077
2.18823e-06
0.50308
2.33461e-06
0.503082
2.52211e-06
0.503083
2.62044e-06
0.503085
2.53502e-06
0.503086
2.35256e-06
0.503088
2.25081e-06
0.50309
2.27216e-06
0.503091
2.29347e-06
0.503093
2.21895e-06
0.503094
2.11342e-06
0.503096
2.11533e-06
0.503097
2.27783e-06
0.503098
2.51531e-06
0.503099
2.69215e-06
0.503099
2.73911e-06
0.503099
2.69264e-06
0.503099
2.6442e-06
0.503098
2.64962e-06
0.503098
2.68827e-06
0.503097
2.70632e-06
0.503096
2.69052e-06
0.503095
2.67881e-06
0.503094
2.68738e-06
0.503092
2.6659e-06
0.503091
2.58089e-06
0.503089
2.49257e-06
0.503088
2.47218e-06
0.503086
2.49292e-06
0.503085
2.47275e-06
0.503083
2.40779e-06
0.503081
2.3822e-06
0.50308
2.43447e-06
0.503078
2.48661e-06
0.503076
2.46829e-06
0.503074
2.44821e-06
0.503072
2.53825e-06
0.50307
2.68263e-06
0.503067
2.67408e-06
0.503065
2.45901e-06
0.503063
2.22434e-06
0.503062
2.15057e-06
0.50306
2.20939e-06
0.503059
2.26661e-06
0.503057
2.27645e-06
0.503055
2.29393e-06
0.503053
2.37677e-06
0.503051
2.46571e-06
0.503048
2.64428e-06
2.46557e-06
0.502515
-3.23191e-07
0.502516
-2.4531e-07
0.502517
1.06743e-06
0.502517
1.88411e-06
0.502517
2.1761e-06
0.502516
2.30436e-06
0.502516
2.15675e-06
0.502516
2.04297e-06
0.502517
1.77654e-06
0.502519
1.55254e-06
0.502519
1.97358e-06
0.50252
2.36462e-06
0.502519
2.34739e-06
0.502519
2.31492e-06
0.502519
2.244e-06
0.50252
2.06795e-06
0.502521
1.92761e-06
0.502522
1.7982e-06
0.502523
1.67998e-06
0.502524
1.66234e-06
0.502524
1.84393e-06
0.502524
2.27382e-06
0.502524
2.63687e-06
0.502523
2.56579e-06
0.502523
2.39239e-06
0.502523
2.22567e-06
0.502523
2.02816e-06
0.502524
2.01698e-06
0.502525
1.97806e-06
0.502526
1.83565e-06
0.502528
1.92911e-06
0.502529
2.05245e-06
0.50253
1.90279e-06
0.50253
1.96427e-06
0.502531
2.26293e-06
0.502531
2.30178e-06
0.502531
2.26773e-06
0.502531
2.49619e-06
0.50253
2.70327e-06
0.50253
2.6048e-06
0.50253
2.4297e-06
0.502529
2.43234e-06
0.502529
2.59477e-06
0.502528
2.73606e-06
0.502528
2.58842e-06
0.502527
2.25571e-06
0.502528
2.14534e-06
0.502528
2.24096e-06
0.502528
2.24848e-06
0.502529
2.21788e-06
0.502529
2.30621e-06
0.502529
2.38312e-06
0.50253
2.30661e-06
0.50253
2.20715e-06
0.50253
2.23686e-06
0.50253
2.31872e-06
0.50253
2.32235e-06
0.50253
2.25883e-06
0.50253
2.16756e-06
0.502531
2.01567e-06
0.502532
1.8094e-06
0.502533
1.61413e-06
0.502534
1.49068e-06
0.502535
1.54722e-06
0.502536
1.84273e-06
0.502536
2.22076e-06
0.502536
2.49918e-06
0.502536
2.68368e-06
0.502536
2.80403e-06
0.502535
2.81578e-06
0.502534
2.7957e-06
0.502533
2.91218e-06
0.502532
3.14948e-06
0.502531
3.30781e-06
0.50253
3.26788e-06
0.502529
3.11692e-06
0.502528
2.98735e-06
0.502528
2.84052e-06
0.502527
2.55805e-06
0.502527
2.22285e-06
0.502528
2.0558e-06
0.502528
2.07334e-06
0.502529
2.09761e-06
0.50253
2.04522e-06
0.502531
1.98672e-06
0.502532
1.94293e-06
0.502533
1.7982e-06
0.502533
1.50444e-06
0.502535
1.28022e-06
0.502536
1.38528e-06
0.502537
1.75597e-06
0.502538
2.06981e-06
0.502539
2.13835e-06
0.502539
2.03995e-06
0.50254
1.90427e-06
0.502541
1.79703e-06
0.502542
1.77887e-06
0.502542
1.89992e-06
0.502543
2.11021e-06
0.502543
2.25694e-06
0.502544
2.22411e-06
0.502544
2.07056e-06
0.502545
1.97634e-06
0.502546
2.04632e-06
0.502546
2.2159e-06
0.502545
2.3619e-06
0.502545
2.41793e-06
0.502545
2.3575e-06
0.502546
2.20263e-06
0.502546
2.05602e-06
0.502546
2.02401e-06
0.502547
2.12536e-06
0.502547
2.29624e-06
0.502547
2.41424e-06
0.502547
2.35842e-06
0.502548
2.15726e-06
0.502548
1.99217e-06
0.502548
1.9907e-06
0.502548
2.13333e-06
0.502548
2.3771e-06
0.502548
2.66278e-06
0.502548
2.82636e-06
0.502548
2.73512e-06
0.502548
2.5023e-06
0.502547
2.37472e-06
0.502547
2.42782e-06
0.502547
2.5458e-06
0.502546
2.64205e-06
0.502546
2.72003e-06
0.502546
2.768e-06
0.502546
2.71894e-06
0.502546
2.5558e-06
0.502546
2.36831e-06
0.502546
2.28268e-06
0.502547
2.35906e-06
0.502547
2.52561e-06
0.502546
2.60657e-06
0.502546
2.49084e-06
0.502546
2.29157e-06
0.502547
2.2619e-06
0.502547
2.49529e-06
0.502546
2.81772e-06
0.502546
2.98845e-06
0.502545
2.93244e-06
0.502545
2.7393e-06
0.502545
2.53916e-06
0.502546
2.41131e-06
0.502546
2.33464e-06
0.502546
2.21635e-06
0.502546
2.02925e-06
0.502546
1.90832e-06
0.502547
2.03054e-06
0.502547
2.37888e-06
0.502547
2.69081e-06
0.502547
2.69103e-06
0.502547
2.35498e-06
0.502548
1.92451e-06
0.502549
1.67689e-06
0.502549
1.69177e-06
0.50255
1.83261e-06
0.50255
1.94249e-06
0.50255
2.01458e-06
0.50255
2.14528e-06
0.502551
2.34163e-06
0.502551
2.46033e-06
0.502552
2.37571e-06
0.502552
2.142e-06
0.502553
1.91777e-06
0.502554
1.78277e-06
0.502554
1.71699e-06
0.502555
1.71977e-06
0.502555
1.84287e-06
0.502555
2.06692e-06
0.502556
2.26343e-06
0.502556
2.33145e-06
0.502557
2.29744e-06
0.502558
2.23584e-06
0.502558
2.14818e-06
0.502559
1.99401e-06
0.502559
1.80858e-06
0.50256
1.70098e-06
0.502561
1.72282e-06
0.502561
1.81395e-06
0.502562
1.89983e-06
0.502562
1.98277e-06
0.502563
2.0783e-06
0.502563
2.13462e-06
0.502564
2.10835e-06
0.502564
2.067e-06
0.502565
2.11628e-06
0.502565
2.2455e-06
0.502565
2.32187e-06
0.502565
2.25633e-06
0.502565
2.12232e-06
0.502565
2.07841e-06
0.502565
2.19459e-06
0.502565
2.39126e-06
0.502565
2.55175e-06
0.502564
2.63318e-06
0.502564
2.6453e-06
0.502564
2.60078e-06
0.502563
2.5425e-06
0.502563
2.54736e-06
0.502563
2.61609e-06
0.502563
2.62556e-06
0.502563
2.48599e-06
0.502563
2.27891e-06
0.502563
2.15597e-06
0.502563
2.14857e-06
0.502563
2.15017e-06
0.502563
2.0674e-06
0.502564
1.92746e-06
0.502564
1.83997e-06
0.502565
1.88158e-06
0.502565
2.02885e-06
0.502566
2.1785e-06
0.502566
2.23827e-06
0.502567
2.20189e-06
0.502567
2.13544e-06
0.502568
2.09911e-06
0.502569
2.08723e-06
0.502569
2.05623e-06
0.50257
2.00706e-06
0.502571
1.99423e-06
0.502571
2.03231e-06
0.502572
2.06337e-06
0.502572
2.0524e-06
0.502573
2.05023e-06
0.502573
2.11471e-06
0.502573
2.214e-06
0.502573
2.26794e-06
0.502573
2.26396e-06
0.502574
2.2684e-06
0.502574
2.31079e-06
0.502574
2.32065e-06
0.502574
2.24381e-06
0.502575
2.17052e-06
0.502575
2.2273e-06
0.502575
2.36641e-06
0.502575
2.41642e-06
0.502575
2.31747e-06
0.502575
2.18109e-06
0.502575
2.11584e-06
0.502575
2.10309e-06
0.502576
2.07438e-06
0.502576
2.01801e-06
0.502576
1.98207e-06
0.502577
1.99104e-06
0.502577
2.04906e-06
2.10299e-06
0.502516
2.72649e-07
0.502515
8.1188e-07
0.502514
1.66385e-06
0.502514
2.26973e-06
0.502514
1.95115e-06
0.502515
1.27496e-06
0.502516
9.29528e-07
0.502517
1.26404e-06
0.502517
1.63297e-06
0.502517
2.04722e-06
0.502516
2.1838e-06
0.502517
2.08424e-06
0.502517
1.75521e-06
0.502518
1.44041e-06
0.502519
1.48702e-06
0.502519
1.98786e-06
0.502518
2.54961e-06
0.502518
2.7005e-06
0.502517
2.44364e-06
0.502516
2.2518e-06
0.502516
2.21691e-06
0.502516
1.95845e-06
0.502517
1.96671e-06
0.502517
2.43901e-06
0.502517
2.76466e-06
0.502516
2.70932e-06
0.502516
2.39924e-06
0.502516
1.98487e-06
0.502516
1.69677e-06
0.502516
1.66656e-06
0.502516
1.67152e-06
0.502517
1.77782e-06
0.502517
2.03434e-06
0.502516
2.23147e-06
0.502516
2.31272e-06
0.502516
2.29441e-06
0.502516
2.17246e-06
0.502517
2.01445e-06
0.502518
1.85293e-06
0.502519
1.71704e-06
0.502519
1.68171e-06
0.50252
1.69777e-06
0.502521
1.74857e-06
0.502522
1.97699e-06
0.502522
2.18751e-06
0.502522
2.01448e-06
0.502523
1.67302e-06
0.502523
1.57747e-06
0.502524
1.65869e-06
0.502525
1.69775e-06
0.502525
1.73687e-06
0.502526
1.83663e-06
0.502526
1.8989e-06
0.502526
1.864e-06
0.502527
1.81828e-06
0.502527
1.84e-06
0.502528
1.92671e-06
0.502528
2.07828e-06
0.502528
2.26132e-06
0.502528
2.33878e-06
0.502527
2.25419e-06
0.502527
2.12856e-06
0.502526
2.06072e-06
0.502525
2.04871e-06
0.502525
2.05643e-06
0.502526
1.9772e-06
0.502526
1.72626e-06
0.502527
1.46105e-06
0.502529
1.41778e-06
0.50253
1.53807e-06
0.502531
1.58626e-06
0.502533
1.51932e-06
0.502534
1.48443e-06
0.502536
1.56595e-06
0.502538
1.67542e-06
0.502539
1.69429e-06
0.502541
1.65441e-06
0.502542
1.66685e-06
0.502543
1.73826e-06
0.502543
1.84062e-06
0.502543
2.03699e-06
0.502543
2.32073e-06
0.502542
2.5035e-06
0.502542
2.44053e-06
0.502542
2.24649e-06
0.502541
2.16918e-06
0.502541
2.26504e-06
0.50254
2.32965e-06
0.502539
2.22207e-06
0.502538
2.09727e-06
0.502538
2.16441e-06
0.502538
2.36171e-06
0.502537
2.45427e-06
0.502537
2.33974e-06
0.502537
2.11269e-06
0.502537
1.93139e-06
0.502537
1.91554e-06
0.502536
2.0959e-06
0.502536
2.3725e-06
0.502536
2.54316e-06
0.502536
2.44523e-06
0.502536
2.12136e-06
0.502536
1.82956e-06
0.502536
1.82224e-06
0.502536
2.08955e-06
0.502536
2.39273e-06
0.502536
2.52027e-06
0.502536
2.42413e-06
0.502536
2.19813e-06
0.502536
2.01062e-06
0.502536
1.98145e-06
0.502536
2.08014e-06
0.502536
2.18622e-06
0.502536
2.19668e-06
0.502537
2.04704e-06
0.502537
1.76353e-06
0.502538
1.5232e-06
0.502538
1.49755e-06
0.502539
1.65007e-06
0.502539
1.82851e-06
0.50254
1.95968e-06
0.502541
2.00765e-06
0.502541
1.90329e-06
0.502542
1.67532e-06
0.502543
1.52119e-06
0.502544
1.599e-06
0.502545
1.82897e-06
0.502545
2.01665e-06
0.502546
2.06961e-06
0.502547
2.02541e-06
0.502547
1.93736e-06
0.502548
1.82804e-06
0.502549
1.71411e-06
0.50255
1.6229e-06
0.50255
1.6008e-06
0.502551
1.69526e-06
0.502552
1.87385e-06
0.502552
1.99025e-06
0.502553
1.92869e-06
0.502553
1.77594e-06
0.502554
1.74718e-06
0.502555
1.94243e-06
0.502556
2.24894e-06
0.502556
2.46473e-06
0.502556
2.44891e-06
0.502557
2.19478e-06
0.502557
1.84677e-06
0.502558
1.61589e-06
0.502559
1.60539e-06
0.502559
1.72677e-06
0.502559
1.83317e-06
0.502559
1.90123e-06
0.502559
2.02251e-06
0.50256
2.22795e-06
0.50256
2.39044e-06
0.50256
2.33572e-06
0.50256
2.03625e-06
0.50256
1.67706e-06
0.50256
1.51356e-06
0.50256
1.65271e-06
0.50256
1.97507e-06
0.50256
2.2752e-06
0.50256
2.45261e-06
0.50256
2.53116e-06
0.50256
2.52793e-06
0.50256
2.3992e-06
0.50256
2.1487e-06
0.50256
1.89796e-06
0.50256
1.78161e-06
0.502559
1.8137e-06
0.502559
1.92642e-06
0.502559
2.08955e-06
0.502559
2.30678e-06
0.502559
2.51778e-06
0.502558
2.60918e-06
0.502558
2.53916e-06
0.502558
2.38878e-06
0.502558
2.25451e-06
0.502558
2.14545e-06
0.502557
2.02899e-06
0.502557
1.92869e-06
0.502557
1.90818e-06
0.502557
1.97383e-06
0.502557
2.06216e-06
0.502556
2.14206e-06
0.502556
2.23919e-06
0.502556
2.33896e-06
0.502556
2.35333e-06
0.502556
2.2389e-06
0.502556
2.08176e-06
0.502556
2.00751e-06
0.502556
2.03323e-06
0.502556
2.05451e-06
0.502557
1.9777e-06
0.502557
1.82707e-06
0.502557
1.70457e-06
0.502558
1.67696e-06
0.502559
1.73583e-06
0.50256
1.85422e-06
0.50256
2.00457e-06
0.502561
2.11546e-06
0.502561
2.10949e-06
0.502562
2.01727e-06
0.502562
1.95751e-06
0.502563
1.96795e-06
0.502564
1.95239e-06
0.502564
1.8321e-06
0.502565
1.66745e-06
0.502565
1.58207e-06
0.502566
1.62448e-06
0.502566
1.73786e-06
0.502566
1.8318e-06
0.502566
1.86042e-06
0.502566
1.85027e-06
0.502566
1.86914e-06
0.502566
1.95596e-06
0.502567
2.0802e-06
0.502567
2.17243e-06
0.502567
2.19539e-06
0.502566
2.17656e-06
0.502566
2.15884e-06
0.502566
2.13665e-06
0.502566
2.08165e-06
0.502566
2.01682e-06
0.502566
1.99882e-06
0.502566
2.02808e-06
0.502566
2.04265e-06
0.502566
2.01583e-06
0.502566
1.99646e-06
0.502567
2.02549e-06
0.502567
2.0679e-06
0.502567
2.06994e-06
0.502567
2.05207e-06
0.502567
2.08643e-06
0.502568
2.16704e-06
0.502568
2.17814e-06
0.502568
2.05905e-06
0.502568
1.9155e-06
0.502569
1.87779e-06
0.502569
1.92582e-06
0.502569
1.94311e-06
0.50257
1.89329e-06
0.50257
1.84319e-06
0.50257
1.84248e-06
0.502571
1.87345e-06
0.502571
1.90048e-06
0.502571
1.91163e-06
0.502571
1.91153e-06
0.502571
1.92333e-06
1.92727e-06
0.502516
1.62541e-07
0.502516
1.53373e-07
0.502518
-3.06895e-07
0.50252
9.10459e-08
0.502521
1.58717e-06
0.50252
2.44361e-06
0.502518
2.57445e-06
0.502517
1.79217e-06
0.502518
1.18081e-06
0.502519
1.09846e-06
0.502519
1.43881e-06
0.50252
1.93321e-06
0.502519
2.32356e-06
0.502518
2.26357e-06
0.502518
1.86253e-06
0.502519
1.34646e-06
0.50252
1.05296e-06
0.502522
1.16394e-06
0.502522
1.51927e-06
0.502523
1.44936e-06
0.502524
1.20678e-06
0.502525
1.25638e-06
0.502526
1.27851e-06
0.502527
1.28031e-06
0.502528
1.58556e-06
0.502529
1.85239e-06
0.502529
1.98948e-06
0.502529
2.18939e-06
0.502529
2.10088e-06
0.502529
1.73542e-06
0.502529
1.51257e-06
0.502529
1.63928e-06
0.502529
1.81025e-06
0.50253
1.71526e-06
0.50253
1.68544e-06
0.502531
1.87879e-06
0.502531
1.91793e-06
0.502531
1.71207e-06
0.502532
1.55137e-06
0.502532
1.52511e-06
0.502532
1.53298e-06
0.502532
1.50129e-06
0.502532
1.5123e-06
0.502533
1.78108e-06
0.502532
2.24103e-06
0.502532
2.43346e-06
0.502531
2.26218e-06
0.502531
2.13236e-06
0.50253
2.1629e-06
0.50253
2.10758e-06
0.50253
1.96534e-06
0.50253
1.98519e-06
0.502529
2.17852e-06
0.502529
2.29939e-06
0.502528
2.22221e-06
0.502528
2.04593e-06
0.502528
1.88444e-06
0.502529
1.79015e-06
0.502529
1.79123e-06
0.50253
1.84531e-06
0.50253
1.90296e-06
0.50253
2.01163e-06
0.50253
2.17022e-06
0.50253
2.24386e-06
0.50253
2.16331e-06
0.50253
1.9758e-06
0.50253
1.72042e-06
0.50253
1.50032e-06
0.50253
1.50756e-06
0.502529
1.74732e-06
0.502529
1.95724e-06
0.502529
1.93041e-06
0.502528
1.74494e-06
0.502528
1.62216e-06
0.502528
1.64562e-06
0.502528
1.68793e-06
0.502528
1.64906e-06
0.502528
1.61882e-06
0.502528
1.68308e-06
0.502528
1.77249e-06
0.502529
1.83113e-06
0.502529
1.9093e-06
0.50253
2.0065e-06
0.50253
2.00606e-06
0.50253
1.83072e-06
0.502531
1.59195e-06
0.502532
1.49539e-06
0.502532
1.58048e-06
0.502533
1.68799e-06
0.502533
1.71755e-06
0.502534
1.73133e-06
0.502534
1.76112e-06
0.502535
1.71275e-06
0.502536
1.54077e-06
0.502537
1.358e-06
0.502537
1.31148e-06
0.502538
1.42749e-06
0.502538
1.60873e-06
0.502539
1.73059e-06
0.50254
1.72058e-06
0.502541
1.5779e-06
0.502541
1.36342e-06
0.502542
1.20009e-06
0.502543
1.22574e-06
0.502543
1.43936e-06
0.502544
1.66681e-06
0.502545
1.745e-06
0.502546
1.67041e-06
0.502546
1.55827e-06
0.502547
1.54252e-06
0.502547
1.68491e-06
0.502547
1.89965e-06
0.502547
2.02397e-06
0.502547
1.98877e-06
0.502548
1.83748e-06
0.502548
1.64089e-06
0.502548
1.51609e-06
0.502548
1.60041e-06
0.502548
1.86686e-06
0.502547
2.09909e-06
0.502547
2.14318e-06
0.502547
2.04092e-06
0.502547
1.88434e-06
0.502547
1.71431e-06
0.502547
1.60985e-06
0.502547
1.68557e-06
0.502547
1.92678e-06
0.502547
2.15856e-06
0.502546
2.22036e-06
0.502546
2.10664e-06
0.502546
1.92692e-06
0.502546
1.7905e-06
0.502546
1.74249e-06
0.502546
1.74407e-06
0.502546
1.71468e-06
0.502546
1.64182e-06
0.502546
1.61141e-06
0.502547
1.67991e-06
0.502547
1.77754e-06
0.502547
1.80724e-06
0.502547
1.78623e-06
0.502547
1.8055e-06
0.502547
1.90258e-06
0.502548
2.02494e-06
0.502548
2.07712e-06
0.502548
1.96936e-06
0.502549
1.6931e-06
0.502549
1.38863e-06
0.502549
1.27109e-06
0.502549
1.43197e-06
0.502549
1.73712e-06
0.502549
1.96204e-06
0.502549
1.99698e-06
0.50255
1.90255e-06
0.50255
1.7886e-06
0.502551
1.68669e-06
0.502551
1.54997e-06
0.502552
1.3627e-06
0.502552
1.21949e-06
0.502552
1.26281e-06
0.502553
1.52729e-06
0.502553
1.87295e-06
0.502554
2.10956e-06
0.502554
2.16281e-06
0.502554
2.07893e-06
0.502555
1.904e-06
0.502555
1.64911e-06
0.502556
1.37595e-06
0.502557
1.21675e-06
0.502557
1.25178e-06
0.502558
1.42462e-06
0.502558
1.62442e-06
0.502559
1.80314e-06
0.502559
1.95745e-06
0.50256
2.04404e-06
0.50256
1.99313e-06
0.502561
1.80828e-06
0.502562
1.58697e-06
0.502562
1.42247e-06
0.502563
1.32905e-06
0.502564
1.28575e-06
0.502564
1.30873e-06
0.502565
1.41646e-06
0.502565
1.5616e-06
0.502566
1.67527e-06
0.502566
1.76268e-06
0.502567
1.88055e-06
0.502567
2.02124e-06
0.502567
2.0983e-06
0.502567
2.05909e-06
0.502567
1.96407e-06
0.502567
1.92253e-06
0.502567
1.97305e-06
0.502567
2.05819e-06
0.502567
2.1061e-06
0.502567
2.10986e-06
0.502566
2.10806e-06
0.502566
2.11866e-06
0.502566
2.14713e-06
0.502565
2.22409e-06
0.502565
2.35298e-06
0.502565
2.44584e-06
0.502564
2.40681e-06
0.502564
2.26876e-06
0.502564
2.15192e-06
0.502564
2.10015e-06
0.502563
2.04326e-06
0.502563
1.92008e-06
0.502563
1.76284e-06
0.502563
1.65652e-06
0.502563
1.65682e-06
0.502563
1.75219e-06
0.502563
1.8777e-06
0.502563
1.96578e-06
0.502563
1.99772e-06
0.502563
2.00671e-06
0.502563
2.02916e-06
0.502563
2.05653e-06
0.502563
2.04866e-06
0.502563
1.99408e-06
0.502564
1.93109e-06
0.502564
1.88829e-06
0.502564
1.83712e-06
0.502564
1.74512e-06
0.502565
1.64489e-06
0.502565
1.5942e-06
0.502566
1.58691e-06
0.502566
1.56783e-06
0.502567
1.52581e-06
0.502567
1.51006e-06
0.502568
1.54829e-06
0.502568
1.59521e-06
0.502568
1.59507e-06
0.502569
1.58159e-06
0.50257
1.64308e-06
0.50257
1.77174e-06
0.50257
1.84972e-06
0.50257
1.81416e-06
0.50257
1.74319e-06
0.502571
1.73128e-06
0.502571
1.76055e-06
0.502571
1.7627e-06
0.502571
1.73248e-06
0.502571
1.71315e-06
0.502571
1.72737e-06
0.502571
1.76589e-06
0.502571
1.81135e-06
0.502572
1.84175e-06
0.502572
1.87295e-06
1.84141e-06
0.502515
-2.58923e-10
0.502514
7.9505e-07
0.502512
1.64325e-06
0.502511
8.76287e-07
0.502513
5.67172e-08
0.502515
2.0796e-07
0.502517
5.72504e-07
0.502518
1.44549e-06
0.502517
1.77315e-06
0.502517
1.42135e-06
0.502517
1.12633e-06
0.502518
1.17814e-06
0.502519
1.33777e-06
0.50252
1.45402e-06
0.50252
1.503e-06
0.50252
1.6847e-06
0.502519
1.86077e-06
0.502518
1.69683e-06
0.502518
1.58037e-06
0.502518
1.95683e-06
0.502517
2.28423e-06
0.502516
2.05515e-06
0.502515
1.60384e-06
0.502515
1.29587e-06
0.502516
1.13337e-06
0.502516
1.24395e-06
0.502517
1.6008e-06
0.502517
1.84905e-06
0.502517
2.03887e-06
0.502517
2.17966e-06
0.502516
1.96536e-06
0.502516
1.56183e-06
0.502517
1.41827e-06
0.502517
1.4268e-06
0.502517
1.34432e-06
0.502518
1.24727e-06
0.502519
1.24466e-06
0.502519
1.42156e-06
0.502519
1.70261e-06
0.502519
1.80252e-06
0.502518
1.68186e-06
0.502518
1.53816e-06
0.502519
1.37399e-06
0.502519
1.14044e-06
0.50252
1.06481e-06
0.502522
1.21417e-06
0.502523
1.36638e-06
0.502523
1.43661e-06
0.502524
1.44682e-06
0.502525
1.33832e-06
0.502526
1.14543e-06
0.502526
1.05209e-06
0.502528
1.12388e-06
0.502529
1.20709e-06
0.50253
1.20996e-06
0.50253
1.2227e-06
0.502531
1.28345e-06
0.502532
1.29004e-06
0.502532
1.22342e-06
0.502533
1.17249e-06
0.502533
1.19077e-06
0.502534
1.28613e-06
0.502535
1.4146e-06
0.502536
1.45664e-06
0.502537
1.3952e-06
0.502537
1.40037e-06
0.502537
1.55326e-06
0.502537
1.72451e-06
0.502537
1.82254e-06
0.502537
1.88569e-06
0.502537
1.92954e-06
0.502537
1.90051e-06
0.502537
1.77527e-06
0.502537
1.63235e-06
0.502537
1.5893e-06
0.502537
1.6426e-06
0.502537
1.67746e-06
0.502537
1.67363e-06
0.502537
1.6959e-06
0.502537
1.69606e-06
0.502537
1.56916e-06
0.502537
1.37064e-06
0.502538
1.27344e-06
0.502539
1.33346e-06
0.502539
1.40848e-06
0.50254
1.35228e-06
0.50254
1.23971e-06
0.50254
1.27238e-06
0.50254
1.48892e-06
0.50254
1.72896e-06
0.50254
1.85156e-06
0.50254
1.83295e-06
0.50254
1.70039e-06
0.50254
1.52677e-06
0.50254
1.45496e-06
0.50254
1.59531e-06
0.502539
1.88479e-06
0.502539
2.10961e-06
0.502538
2.08968e-06
0.502538
1.84267e-06
0.502538
1.5641e-06
0.502538
1.43443e-06
0.502538
1.4807e-06
0.502538
1.62744e-06
0.502537
1.76499e-06
0.502537
1.77467e-06
0.502537
1.60983e-06
0.502538
1.36585e-06
0.502538
1.19739e-06
0.502538
1.19415e-06
0.502539
1.34543e-06
0.502539
1.53111e-06
0.502539
1.57554e-06
0.50254
1.42425e-06
0.502541
1.20942e-06
0.502541
1.08005e-06
0.502542
1.08876e-06
0.502542
1.25317e-06
0.502542
1.53775e-06
0.502543
1.77159e-06
0.502543
1.77791e-06
0.502543
1.58922e-06
0.502544
1.39419e-06
0.502544
1.3023e-06
0.502545
1.30368e-06
0.502545
1.3886e-06
0.502545
1.5521e-06
0.502546
1.72616e-06
0.502546
1.79916e-06
0.502547
1.72623e-06
0.502547
1.56764e-06
0.502547
1.42745e-06
0.502548
1.39438e-06
0.502548
1.486e-06
0.502548
1.60929e-06
0.502548
1.63536e-06
0.502548
1.55061e-06
0.502548
1.48153e-06
0.502549
1.53572e-06
0.502549
1.69138e-06
0.502549
1.86166e-06
0.502548
1.98235e-06
0.502548
2.01716e-06
0.502548
1.95698e-06
0.502549
1.83819e-06
0.502549
1.70575e-06
0.502549
1.55574e-06
0.502549
1.37937e-06
0.502549
1.25092e-06
0.502549
1.29873e-06