/*--------------------------------*- C++ -*----------------------------------*\
| =========                 |                                                 |
| \\      /  F ield         | OpenFOAM: The Open Source CFD Toolbox           |
|  \\    /   O peration     | Version:  2406                                  |
|   \\  /    A nd           | Website:  www.openfoam.com                      |
|    \\/     M anipulation  |                                                 |
\*---------------------------------------------------------------------------*/
FoamFile
{
    version     2.0;
    format      ascii;
    arch        "LSB;label=32;scalar=64";
    class       volScalarField;
    location    "0.85";
    object      p;
}
// * * * * * * * * * * * * * * * * * * * * * * * * * * * * * * * * * * * * * //

dimensions      [1 -1 -2 0 0 0 0];

internalField   nonuniform List<scalar> 
6250
(
183.456
-2941.65
-842.279
681.036
641.666
189.108
32.4063
105.727
178.901
184.574
164.524
154.569
156.075
158.99
159.039
157.585
156.408
155.773
155.264
154.644
153.944
153.249
152.574
151.908
151.236
150.563
149.9
149.23
148.552
147.884
147.218
146.542
145.865
145.198
144.533
143.863
143.191
142.519
141.85
141.18
140.506
139.831
139.161
138.492
137.822
137.152
136.481
135.806
135.134
134.466
133.796
133.126
132.455
131.783
131.11
130.439
129.769
129.102
128.433
127.76
127.087
126.415
125.741
125.069
124.4
123.729
123.054
122.381
121.713
121.044
120.37
119.695
119.02
118.348
117.68
117.011
116.34
115.665
114.99
114.318
113.648
112.978
112.307
111.634
110.963
110.293
109.623
108.95
108.276
107.605
106.936
106.265
105.592
104.92
104.248
103.576
102.904
102.234
101.565
100.896
100.225
99.5523
98.8779
98.205
97.536
96.8698
96.2028
95.5324
94.8584
94.183
93.51
92.8418
92.1774
91.5129
90.8443
90.1715
89.4973
88.8246
88.1543
87.4868
86.8209
86.1544
85.4858
84.8159
84.1455
83.4741
82.8016
82.1301
81.4627
80.8005
80.14
79.4753
78.8037
78.1281
77.4531
76.7814
76.1128
75.4462
74.7815
74.1191
73.457
72.7911
72.1194
71.4445
70.7703
70.0982
69.4268
68.7561
68.0886
67.4261
66.7665
66.1053
65.4387
64.7664
64.0908
63.4151
62.7409
62.068
61.3967
60.7283
60.0633
59.4001
58.7365
58.0708
57.4018
56.7299
56.0568
55.3836
54.7104
54.0369
53.3637
52.6923
52.0236
51.357
50.6914
50.0247
49.355
48.6822
48.008
47.3346
46.6617
45.9873
45.3092
44.629
43.9507
43.2773
42.6074
41.9371
41.265
40.5935
39.9261
39.2621
38.5981
37.9315
37.2629
36.5938
35.9235
35.2503
34.574
33.897
33.2215
32.5468
31.87
31.1898
30.5085
29.8295
29.1537
28.4791
27.8039
27.1287
26.4551
25.7828
25.1107
24.4386
23.7674
23.0977
22.4291
21.7605
21.0912
20.4217
19.7525
19.0837
18.4156
17.7479
17.0802
16.4118
15.7426
15.0731
14.4038
13.7351
13.0673
12.3998
11.7311
11.0605
10.3894
9.71971
9.05143
8.38242
7.71104
7.03833
6.36677
5.69803
5.03056
4.36096
3.68803
3.01445
2.34349
1.67496
1.00637
0.335312
183.437
-2941.71
-842.306
681.049
641.674
189.097
32.3892
105.722
178.902
184.584
164.534
154.579
156.074
158.982
159.037
157.583
156.403
155.767
155.26
154.644
153.943
153.243
152.57
151.911
151.244
150.564
149.891
149.229
148.557
147.88
147.214
146.547
145.872
145.198
144.528
143.858
143.188
142.518
141.846
141.176
140.508
139.837
139.165
138.493
137.819
137.149
136.482
135.811
135.136
134.465
133.796
133.125
132.455
131.784
131.113
130.439
129.765
129.096
128.43
127.761
127.087
126.414
125.742
125.07
124.4
123.731
123.057
122.382
121.712
121.044
120.371
119.695
119.021
118.349
117.68
117.011
116.339
115.665
114.992
114.319
113.648
112.977
112.306
111.635
110.963
110.293
109.622
108.949
108.273
107.599
106.932
106.267
105.596
104.92
104.244
103.573
102.903
102.235
101.567
100.895
100.221
99.5475
98.8753
98.2057
97.5383
96.8711
96.2021
95.5305
94.8571
94.1837
93.5117
92.8428
92.1773
91.5134
90.8468
90.1743
89.4979
88.8224
88.1511
87.4851
86.8229
86.1599
85.4913
84.8171
84.142
83.4703
82.8018
82.1343
81.4666
80.8006
80.1375
79.4744
78.8063
78.1317
77.4541
76.7792
76.11
75.4453
74.7824
74.1201
73.4581
72.7939
72.1235
71.4462
70.7669
70.0921
69.4237
68.7589
68.0945
67.4301
66.7666
66.1034
65.4383
64.7682
64.0925
63.4143
62.7381
62.0661
61.3972
60.7301
60.0643
59.3997
58.7355
58.0706
57.4031
56.7316
56.0568
55.3814
54.7077
54.0355
53.3641
52.6933
52.0235
51.3547
50.6873
50.0214
49.3556
48.687
48.0132
47.3355
46.6577
45.9824
45.3083
44.6318
43.9523
43.2739
42.601
41.9336
41.2672
40.5989
39.9298
39.2625
38.5969
37.9306
37.2623
36.593
35.924
35.2539
34.5799
33.9015
33.2213
32.5429
31.8672
31.1916
30.5135
29.8336
29.1547
28.4786
27.804
27.1292
26.455
25.7826
25.112
24.4418
23.7709
23.1001
22.4304
21.762
21.0941
20.4258
19.7571
19.0877
18.4182
17.7492
17.0811
16.4136
15.7456
15.0771
14.4081
13.738
13.0674
12.3978
11.7299
11.0621
10.3921
9.72037
9.04963
8.38145
7.71411
7.04407
6.37041
5.69624
5.02545
4.35805
3.69013
3.01891
2.34614
1.67484
1.00635
0.33443
183.438
-2941.71
-842.31
681.047
641.674
189.1
32.3948
105.725
178.905
184.588
164.529
154.574
156.078
158.989
159.045
157.588
156.406
155.768
155.256
154.639
153.945
153.247
152.572
151.911
151.243
150.568
149.891
149.222
148.558
147.883
147.21
146.544
145.874
145.202
144.53
143.86
143.192
142.521
141.847
141.174
140.506
139.836
139.166
138.495
137.823
137.149
136.481
135.811
135.137
134.465
133.795
133.124
132.454
131.784
131.113
130.442
129.77
129.098
128.43
127.759
127.085
126.413
125.744
125.073
124.399
123.728
123.058
122.385
121.713
121.041
120.368
119.694
119.023
118.353
117.682
117.009
116.335
115.662
114.991
114.32
113.649
112.977
112.306
111.635
110.964
110.292
109.62
108.949
108.277
107.603
106.933
106.265
105.596
104.922
104.245
103.572
102.902
102.236
101.569
100.898
100.223
99.5471
98.8746
98.206
97.5399
96.8733
96.2036
95.53
94.8551
94.1822
93.5127
92.8458
92.1795
91.5127
90.8438
90.1716
89.497
88.8232
88.1527
87.4856
86.8213
86.158
85.4918
84.8195
84.1426
83.4665
82.7963
82.1322
81.4703
80.8063
80.1397
79.4716
78.8017
78.129
77.4539
76.7793
76.1096
75.4458
74.7848
74.1223
73.457
72.7901
72.1211
71.4477
70.7699
70.0923
69.42
68.7548
68.0939
67.4333
66.7706
66.1049
65.4365
64.7654
64.0912
63.4145
62.7378
62.0644
61.3954
60.7297
60.0659
59.4022
58.7371
58.0704
57.402
56.7315
56.0579
55.382
54.7064
54.033
53.3623
52.6936
52.0263
51.3589
50.6906
50.0217
49.3531
48.6846
48.0141
47.3393
46.6607
45.9813
45.3044
44.63
43.9552
43.2787
42.6028
41.931
41.2637
40.5977
39.9308
39.2636
38.5977
37.9322
37.2646
36.5936
35.9211
35.2492
34.5777
33.9038
33.2257
32.5451
31.8651
31.1873
30.5102
29.8323
29.154
28.4774
27.8028
27.129
26.4552
25.782
25.1102
24.4398
23.7698
23.0998
22.4299
21.7603
21.0911
20.4223
19.754
19.0859
18.4173
17.7482
17.0789
16.4102
15.7417
15.0734
14.4055
13.7374
13.068
12.3979
11.7285
11.0605
10.3921
9.7217
9.04964
8.378
7.70859
7.04078
6.37184
5.69999
5.02686
4.35562
3.68681
3.01788
2.34691
1.6751
1.00432
0.334708
183.431
-2941.71
-842.305
681.047
641.678
189.095
32.3824
105.716
178.896
184.581
164.529
154.575
156.073
158.977
159.037
157.587
156.408
155.775
155.264
154.641
153.943
153.247
152.569
151.905
151.24
150.57
149.895
149.222
148.555
147.883
147.213
146.546
145.875
145.202
144.529
143.856
143.187
142.519
141.847
141.174
140.504
139.835
139.163
138.493
137.823
137.151
136.48
135.81
135.137
134.463
133.794
133.125
132.455
131.782
131.11
130.441
129.771
129.099
128.426
127.756
127.084
126.413
125.746
125.075
124.399
123.724
123.055
122.385
121.713
121.041
120.368
119.695
119.023
118.353
117.681
117.008
116.335
115.663
114.992
114.321
113.649
112.977
112.305
111.636
110.965
110.292
109.618
108.946
108.277
107.607
106.936
106.264
105.593
104.919
104.245
103.573
102.904
102.236
101.567
100.895
100.221
99.546
98.8745
98.2069
97.5408
96.8734
96.2026
95.5282
94.8527
94.1801
93.5125
92.8482
92.1831
91.5143
90.842
90.1678
89.4936
88.822
88.1544
87.489
86.8235
86.1572
85.4895
84.8189
84.1445
83.4687
82.7961
82.13
81.4693
80.8084
80.143
79.4728
78.7999
78.1262
77.4525
76.7798
76.1103
75.446
74.786
74.1255
73.4599
72.7895
72.1169
71.4436
70.7694
70.0948
69.4227
68.7557
68.0938
67.434
66.7725
66.1069
65.4366
64.7634
64.0888
63.4134
62.7382
62.0653
61.396
60.7302
60.0665
59.4034
58.7387
58.0712
57.4012
56.7297
56.0569
55.3824
54.7072
54.0331
53.3611
52.6916
52.0244
51.3588
50.6927
50.0244
49.3539
48.6826
48.0113
47.3387
46.6628
45.9833
45.3032
44.626
43.9521
43.2789
42.605
41.932
41.2624
40.5961
39.9306
39.2641
38.5973
37.9313
37.2652
36.5964
35.9239
35.2492
34.5747
33.9006
33.2253
32.5472
31.8672
31.1877
30.5099
29.8328
29.1554
28.4783
27.8029
27.1291
26.456
25.783
25.1107
24.4398
23.77
23.1007
22.4313
21.7619
21.0927
20.4236
19.7548
19.0866
18.4187
17.7504
17.0817
16.413
15.7441
15.0749
14.406
13.738
13.0699
12.4004
11.7298
11.0599
10.3914
9.72325
9.05351
8.38167
7.70942
7.03898
6.37044
5.70135
5.02985
4.35719
3.68598
3.0166
2.3471
1.67636
1.00539
0.335299
183.424
-2941.72
-842.317
681.037
641.679
189.105
32.3897
105.718
178.899
184.587
164.533
154.581
156.084
158.985
159.04
157.585
156.403
155.771
155.262
154.64
153.942
153.248
152.573
151.906
151.237
150.573
149.9
149.222
148.552
147.884
147.212
146.543
145.873
145.204
144.533
143.859
143.188
142.519
141.849
141.178
140.508
139.839
139.163
138.489
137.822
137.153
136.482
135.81
135.138
134.465
133.796
133.127
132.456
131.784
131.111
130.441
129.772
129.099
128.425
127.756
127.087
126.416
125.744
125.074
124.401
123.726
123.054
122.385
121.714
121.042
120.37
119.697
119.024
118.351
117.679
117.008
116.336
115.664
114.992
114.32
113.649
112.977
112.306
111.635
110.965
110.293
109.618
108.945
108.276
107.609
106.939
106.265
105.59
104.917
104.245
103.575
102.907
102.238
101.566
100.893
100.219
99.546
98.8762
98.2094
97.5428
96.8738
96.2018
95.5276
94.8532
94.1814
93.5137
92.8493
92.1845
91.5155
90.842
90.1663
89.4915
88.8202
88.1542
87.4914
86.8275
86.1595
85.488
84.8153
84.1425
83.4701
82.7991
82.1315
81.4683
80.8072
80.1434
79.4739
78.7997
78.1243
77.4506
76.7799
76.1119
75.4468
74.7853
74.125
73.4614
72.7913
72.1163
71.4404
70.7663
70.0944
69.4248
68.7583
68.095
67.4339
66.7723
66.1073
65.4372
64.7627
64.0866
63.4111
62.7371
62.0654
61.3968
60.731
60.067
59.4038
58.7396
58.0725
57.4016
56.7284
56.0545
55.3805
54.7066
54.0337
53.3622
52.6923
52.0241
51.3576
50.6923
50.0261
49.357
48.6847
48.0106
47.3364
46.6618
45.9851
45.3058
44.6264
43.9499
43.2769
42.6054
41.934
41.2637
40.5961
39.9306
39.2651
38.5982
37.9307
37.2634
36.5958
35.9258
35.2522
34.576
33.8995
33.2234
32.5466
31.8679
31.1881
30.509
29.8315
29.1549
28.4784
27.8025
27.1282
26.4553
25.7831
25.1111
24.4397
23.7692
23.0995
22.4303
21.7613
21.0925
20.4235
19.7543
19.0852
18.4167
17.7485
17.0802
16.4119
15.7435
15.0746
14.4051
13.7359
13.0677
12.3996
11.7301
11.0595
10.389
9.71986
9.05145
8.38209
7.71077
7.0386
6.36777
5.69875
5.02952
4.35842
3.6864
3.0154
2.34553
1.67552
1.00497
0.334907
183.423
-2941.71
-842.313
681.033
641.674
189.099
32.3919
105.716
178.893
184.58
164.524
154.569
156.077
158.983
159.038
157.585
156.399
155.769
155.265
154.639
153.941
153.25
152.577
151.91
151.235
150.567
149.901
149.225
148.55
147.882
147.213
146.542
145.871
145.201
144.532
143.862
143.188
142.515
141.845
141.176
140.506
139.836
139.163
138.49
137.822
137.153
136.48
135.806
135.136
134.466
133.795
133.123
132.452
131.783
131.113
130.441
129.769
129.097
128.425
127.755
127.088
126.416
125.743
125.072
124.401
123.727
123.053
122.383
121.712
121.042
120.37
119.697
119.023
118.349
117.678
117.007
116.337
115.665
114.992
114.32
113.649
112.978
112.307
111.635
110.962
110.291
109.62
108.947
108.277
107.609
106.939
106.265
105.589
104.916
104.245
103.576
102.908
102.238
101.565
100.89
100.217
99.5456
98.8776
98.2112
97.5436
96.8726
96.1987
95.5246
94.8524
94.183
93.516
92.8502
92.1836
91.5136
90.8398
90.1646
89.4908
88.8201
88.1537
87.4911
86.8285
86.1615
85.4889
84.8134
84.139
83.4681
82.8004
82.1345
81.4701
80.8066
80.1417
79.4728
78.7993
78.1234
77.4491
76.7792
76.1135
75.4495
74.7864
74.1237
73.4596
72.791
72.1169
71.4399
70.7643
70.0927
69.4252
68.7609
68.0983
67.4359
66.7723
66.1062
65.4362
64.7621
64.0856
63.4096
62.736
62.0653
61.3979
60.7328
60.0688
59.4045
58.7395
58.0725
57.4022
56.7287
56.0537
55.3788
54.7048
54.0324
53.3622
52.6935
52.0256
51.3582
50.6915
50.0251
49.3574
48.6866
48.0122
47.3357
46.6592
45.9832
45.3063
44.628
43.95
43.275
42.6034
41.9336
41.2642
40.596
39.9299
39.2651
38.5995
37.932
37.2631
36.5938
35.9241
35.2524
34.5776
33.9003
33.2225
32.545
31.8673
31.1885
30.5094
29.8313
29.1546
28.4786
27.803
27.1282
26.4549
25.7829
25.1114
24.4404
23.7699
23.1
22.4305
21.7612
21.0924
20.4239
19.7554
19.0865
18.4178
17.7492
17.0806
16.412
15.7438
15.0757
14.4069
13.7373
13.068
12.3997
11.7314
11.062
10.3913
9.72038
9.05054
8.38177
7.71251
7.04144
6.36933
5.69819
5.02855
4.35883
3.6879
3.01654
2.34589
1.67579
1.00536
0.335489
183.407
-2941.73
-842.313
681.037
641.674
189.099
32.3903
105.717
178.894
184.584
164.527
154.573
156.082
158.986
159.038
157.59
156.408
155.768
155.263
154.643
153.939
153.242
152.572
151.91
151.236
150.566
149.903
149.23
148.553
147.884
147.214
146.54
145.868
145.199
144.531
143.863
143.191
142.519
141.85
141.179
140.505
139.832
139.162
138.493
137.824
137.155
136.481
135.808
135.138
134.468
133.796
133.123
132.452
131.785
131.116
130.442
129.769
129.099
128.428
127.756
127.086
126.416
125.743
125.071
124.401
123.728
123.054
122.384
121.714
121.044
120.371
119.696
119.022
118.35
117.679
117.009
116.338
115.665
114.992
114.319
113.649
112.979
112.308
111.635
110.961
110.289
109.62
108.951
108.28
107.608
106.936
106.263
105.588
104.916
104.247
103.578
102.909
102.237
101.563
100.888
100.216
99.5466
98.8798
98.2133
97.5447
96.8723
96.1974
95.5229
94.852
94.185
93.5196
92.8532
92.1843
91.5122
90.8374
90.1627
89.4909
88.8224
88.1564
87.4922
86.8282
86.1614
85.4899
84.8144
84.1387
83.4669
82.8003
82.1366
81.4731
80.8081
80.1409
79.4709
78.7981
78.1233
77.4491
76.779
76.114
75.4519
74.7893
74.1246
73.4577
72.7883
72.1155
71.4401
70.7649
70.093
69.4257
68.7622
68.1004
67.438
66.7732
66.1053
65.4344
64.7604
64.0845
63.4089
62.7355
62.0653
61.3984
60.7341
60.0706
59.4061
58.7397
58.0716
57.4012
56.7281
56.0533
55.3782
54.7039
54.0313
53.361
52.6931
52.0267
51.3601
50.6928
50.0249
49.3565
48.6866
48.0139
47.3376
46.6594
45.9815
45.3047
44.6282
43.9514
43.2757
42.6029
41.9331
41.2648
40.597
39.93
39.2645
38.5996
37.9335
37.265
36.5946
35.9232
35.2512
34.5776
33.9015
33.2234
32.5449
31.8667
31.1885
30.5098
29.8313
29.1542
28.4784
27.8033
27.1288
26.4551
25.7826
25.1112
24.4404
23.77
23.1001
22.4307
21.7613
21.092
20.4232
19.7548
19.0862
18.4176
17.7491
17.0806
16.4117
15.7428
15.0746
14.4065
13.7376
13.0678
12.3982
11.7294
11.0608
10.3916
9.72108
9.04996
8.3796
7.71035
7.04091
6.37003
5.69831
5.02734
4.35736
3.68723
3.01635
2.34544
1.67503
1.00481
0.33498
183.416
-2941.73
-842.326
681.029
641.669
189.096
32.3911
105.722
178.894
184.584
164.531
154.572
156.075
158.983
159.038
157.586
156.403
155.769
155.264
154.644
153.944
153.244
152.572
151.912
151.239
150.56
149.892
149.226
148.557
147.885
147.214
146.543
145.875
145.204
144.53
143.858
143.187
142.517
141.849
141.18
140.506
139.832
139.163
138.492
137.82
137.15
136.481
135.81
135.138
134.466
133.793
133.122
132.452
131.783
131.113
130.441
129.768
129.099
128.43
127.756
127.083
126.415
125.745
125.072
124.399
123.726
123.053
122.384
121.715
121.043
120.368
119.693
119.02
118.35
117.681
117.01
116.337
115.663
114.991
114.32
113.65
112.979
112.308
111.635
110.961
110.289
109.62
108.952
108.282
107.608
106.934
106.26
105.588
104.918
104.249
103.58
102.909
102.235
101.561
100.887
100.216
99.5481
98.8816
98.2139
97.5435
96.8704
96.1958
95.5221
94.8517
94.1854
93.5207
92.8542
92.184
91.5106
90.835
90.1601
89.4891
88.8228
88.1587
87.4942
86.8278
86.159
85.4874
84.8135
84.1391
83.4671
82.7999
82.1366
81.4739
80.8088
80.1402
79.4686
78.7955
78.1221
77.4495
76.7795
76.1139
75.452
74.7905
74.1258
73.4571
72.7856
72.1125
71.4385
70.765
70.0942
69.4271
68.7635
68.1017
67.4393
66.7739
66.1048
65.4325
64.7581
64.0827
63.4079
62.7354
62.0659
61.3993
60.7351
60.0719
59.4076
58.7408
58.0713
57.3999
56.7266
56.052
55.3773
54.7036
54.0312
53.3607
52.6925
52.0263
51.3609
50.6946
50.0264
49.3566
48.6855
48.0131
47.3382
46.6605
45.9815
45.3032
44.6267
43.9512
43.2762
42.6028
41.9323
41.2643
40.5975
39.9307
39.2642
38.5983
37.9326
37.2654
36.5957
35.9237
35.2504
34.5763
33.9009
33.2235
32.5447
31.8659
31.1877
30.5096
29.8315
29.1539
28.4778
27.8029
27.1288
26.4553
25.7827
25.1111
24.4402
23.7699
23.1
22.4306
21.7615
21.0924
20.4234
19.7547
19.0862
18.4176
17.7491
17.0809
16.4124
15.7434
15.0745
14.4062
13.7381
13.0691
12.3993
11.7295
11.0602
10.3914
9.72221
9.05181
8.38066
7.71007
7.04047
6.3707
5.69975
5.02826
4.3574
3.68723
3.01691
2.3462
1.67561
1.00521
0.335282
183.423
-2941.73
-842.322
681.036
641.673
189.09
32.3825
105.719
178.892
184.577
164.525
154.572
156.082
158.985
159.035
157.589
156.406
155.764
155.261
154.645
153.946
153.242
152.57
151.913
151.243
150.564
149.893
149.228
148.558
147.883
147.21
146.541
145.874
145.204
144.531
143.859
143.189
142.517
141.845
141.177
140.509
139.838
139.166
138.494
137.82
137.149
136.481
135.811
135.139
134.466
133.794
133.125
132.455
131.783
131.112
130.443
129.771
129.1
128.429
127.755
127.083
126.415
125.747
125.073
124.398
123.725
123.055
122.386
121.717
121.043
120.366
119.692
119.022
118.353
117.684
117.011
116.336
115.662
114.991
114.322
113.652
112.979
112.306
111.633
110.961
110.291
109.622
108.953
108.281
107.606
106.931
106.258
105.588
104.92
104.252
103.582
102.908
102.232
101.558
100.886
100.217
99.5508
98.884
98.2146
97.5421
96.868
96.1943
95.5228
94.8539
94.1875
93.522
92.8545
92.1834
91.5095
90.8345
90.1604
89.4897
88.8237
88.1605
87.4966
86.8293
86.1585
85.4854
84.8122
84.14
83.4696
82.8022
82.1378
81.4745
80.8094
80.1404
79.4679
78.7939
78.121
77.4504
76.782
76.1162
75.4529
74.7907
74.1262
73.4573
72.7847
72.1105
71.4369
70.7651
70.096
69.4298
68.7659
68.1032
67.44
66.7742
66.1045
65.4313
64.7563
64.0811
63.407
62.7355
62.067
61.401
60.7364
60.0727
59.4084
58.7416
58.0717
57.3993
56.7254
56.0505
55.3759
54.7025
54.0311
53.3612
52.693
52.0263
51.3608
50.6952
50.028
49.3581
48.6859
48.0122
47.3375
46.661
45.9825
45.3034
44.6258
43.9503
43.2764
42.6036
41.9325
41.264
40.5975
39.9317
39.2655
38.5989
37.9321
37.2649
36.5961
35.9248
35.2512
34.5761
33.9004
33.2237
32.5454
31.8663
31.1876
30.5095
29.8319
29.1545
28.478
27.8029
27.1289
26.4557
25.7832
25.1115
24.4406
23.7701
23.1001
22.4305
21.7615
21.0926
20.4237
19.7549
19.0864
18.4176
17.7489
17.0804
16.4123
15.7438
15.0747
14.4057
13.7372
13.0687
12.3997
11.73
11.0598
10.3901
9.72105
9.05175
8.38132
7.7101
7.03932
6.36938
5.69933
5.02844
4.35725
3.68652
3.01618
2.34574
1.67523
1.00471
0.335058
183.43
-2941.72
-842.326
681.032
641.67
189.097
32.3864
105.722
178.894
184.583
164.533
154.566
156.071
158.988
159.04
157.584
156.403
155.77
155.263
154.641
153.944
153.246
152.572
151.91
151.243
150.568
149.892
149.222
148.555
147.885
147.214
146.542
145.871
145.201
144.531
143.86
143.19
142.519
141.845
141.175
140.507
139.836
139.164
138.493
137.822
137.15
136.479
135.808
135.138
134.467
133.794
133.123
132.452
131.78
131.111
130.444
129.773
129.099
128.425
127.755
127.085
126.416
125.746
125.071
124.396
123.725
123.057
122.387
121.714
121.039
120.364
119.692
119.024
118.355
117.683
117.009
116.333
115.66
114.991
114.323
113.653
112.979
112.304
111.63
110.961
110.294
109.624
108.953
108.279
107.603
106.929
106.258
105.59
104.923
104.254
103.582
102.906
102.23
101.556
100.886
100.219
99.5528
98.8853
98.2145
97.5406
96.8655
96.1922
95.5223
94.8553
94.1893
93.5228
92.8539
92.1814
91.5069
90.8329
90.1607
89.491
88.8246
88.1604
87.496
86.8287
86.1574
85.4836
84.81
84.1389
83.4705
82.8041
82.1389
81.474
80.8077
80.1387
79.4665
78.7924
78.1193
77.4495
76.7831
76.1183
75.4542
74.79
74.1244
73.4556
72.7833
72.109
71.4354
70.7643
70.0965
69.4315
68.7682
68.1049
67.4403
66.7734
66.1031
65.4296
64.7544
64.0794
63.4059
62.7351
62.0676
61.4026
60.7383
60.0739
59.4086
58.7413
58.0712
57.3985
56.7243
56.0493
55.3746
54.7012
54.0301
53.3613
52.6938
52.0273
51.3611
50.695
50.0281
49.3591
48.6871
48.0124
47.3364
46.6599
45.9823
45.3038
44.6257
43.9494
43.2756
42.6037
41.933
41.2639
40.5968
39.9312
39.2658
38.5996
37.9323
37.2642
36.5952
35.9246
35.2515
34.5762
33.8997
33.2227
32.5449
31.8662
31.1872
30.5088
29.8313
29.1543
28.478
27.8026
27.1285
26.4554
25.783
25.1113
24.4404
23.7701
23.1001
22.4304
21.7612
21.0924
20.4235
19.7548
19.0863
18.4178
17.749
17.0802
16.4119
15.7438
15.0753
14.4062
13.737
13.0682
12.3995
11.7305
11.0608
10.3905
9.72055
9.05117
8.38169
7.71122
7.04008
6.36928
5.69906
5.02873
4.3579
3.687
3.01642
2.34601
1.67562
1.0052
0.335231
183.42
-2941.73
-842.322
681.031
641.674
189.097
32.3765
105.716
178.899
184.58
164.529
154.572
156.076
158.983
159.04
157.59
156.404
155.766
155.26
154.642
153.943
153.242
152.567
151.906
151.244
150.573
149.896
149.224
148.555
147.885
147.214
146.542
145.871
145.202
144.532
143.858
143.187
142.52
141.851
141.179
140.507
139.834
139.162
138.493
137.823
137.15
136.478
135.809
135.141
134.471
133.796
133.122
132.451
131.782
131.114
130.445
129.773
129.097
128.425
127.757
127.088
126.417
125.744
125.07
124.397
123.728
123.06
122.387
121.712
121.037
120.364
119.696
119.028
118.357
117.682
117.006
116.332
115.662
114.994
114.325
113.653
112.978
112.303
111.63
110.962
110.296
109.627
108.953
108.276
107.601
106.928
106.259
105.593
104.926
104.255
103.58
102.904
102.228
101.556
100.888
100.221
99.5546
98.8855
98.2134
97.5391
96.8645
96.1919
95.5229
94.8567
94.1909
93.5236
92.8536
92.1806
91.5057
90.8321
90.1615
89.4936
88.8275
88.1619
87.4957
86.8275
86.1565
85.4834
84.8102
84.1394
83.4718
82.8065
82.1414
81.4753
80.8071
80.137
79.4653
78.7924
78.12
77.4504
76.7844
76.1207
75.4568
74.7912
74.1236
73.4538
72.7816
72.1082
71.4356
70.7653
70.0981
69.4336
68.7706
68.107
67.4413
66.773
66.1018
65.428
64.753
64.0785
63.4059
62.7357
62.0686
61.4039
60.7401
60.0756
59.4095
58.7414
58.0707
57.3976
56.7231
56.0484
55.3739
54.7007
54.0295
53.3608
52.6942
52.0284
51.3624
50.6957
50.0281
49.3591
48.6878
48.0135
47.3368
46.6592
45.9816
45.3038
44.626
43.9494
43.2752
42.6034
41.9335
41.2648
40.5973
39.9311
39.2657
38.6001
37.9333
37.2648
36.5951
35.9241
35.2515
34.5767
33.9001
33.2226
32.5448
31.8665
31.1877
30.5091
29.8313
29.1545
28.4784
27.8031
27.1289
26.4558
25.7835
25.1118
24.4406
23.7703
23.1004
22.4308
21.7615
21.0927
20.4239
19.755
19.0863
18.4179
17.7494
17.0806
16.4118
15.7434
15.0752
14.4066
13.7374
13.0681
12.3989
11.73
11.0609
10.3912
9.72084
9.05063
8.38089
7.71101
7.04036
6.36929
5.69855
5.02817
4.35765
3.68689
3.01619
2.34565
1.67526
1.00486
0.335017
183.426
-2941.73
-842.325
681.032
641.67
189.102
32.3874
105.712
178.89
184.585
164.538
154.57
156.069
158.982
159.04
157.588
156.4
155.768
155.266
154.645
153.945
153.248
152.574
151.907
151.237
150.567
149.897
149.226
148.554
147.88
147.21
146.543
145.874
145.203
144.532
143.858
143.185
142.518
141.849
141.177
140.505
139.836
139.166
138.494
137.82
137.147
136.477
135.81
135.141
134.469
133.794
133.12
132.451
131.785
131.115
130.442
129.769
129.096
128.426
127.759
127.089
126.415
125.74
125.068
124.399
123.73
123.059
122.385
121.708
121.035
120.366
119.699
119.03
118.355
117.678
117.002
116.331
115.664
114.997
114.326
113.651
112.975
112.301
111.631
110.964
110.298
109.627
108.951
108.273
107.598
106.928
106.261
105.595
104.927
104.254
103.577
102.901
102.227
101.557
100.89
100.224
99.5558
98.8847
98.2112
97.5369
96.8635
96.1923
95.5239
94.8576
94.1912
93.5227
92.8519
92.1791
91.505
90.8318
90.1618
89.4947
88.8289
88.1626
87.4947
86.8249
86.1538
85.4819
84.81
84.14
83.4726
82.8072
82.142
81.4752
80.8059
80.1345
79.4624
78.7908
78.1201
77.4513
76.7853
76.1213
75.4573
74.7913
74.1225
73.4514
72.7789
72.1063
71.4348
70.7657
70.0993
69.4351
68.7719
68.108
67.4416
66.7721
66.1
65.4259
64.751
64.077
63.4053
62.7363
62.0696
61.405
60.7412
60.0766
59.41
58.7412
58.0699
57.3964
56.7216
56.0467
55.3727
54.7002
54.0293
53.3606
52.6939
52.0286
51.3633
50.6968
50.0286
49.3588
48.6873
48.0136
47.3372
46.6591
45.9808
45.303
44.6259
43.9497
43.275
42.6029
41.9331
41.2649
40.5977
39.9311
39.2652
38.5995
37.9331
37.2651
36.5951
35.9235
35.2507
34.5762
33.8999
33.2222
32.544
31.8658
31.1873
30.5089
29.8309
29.154
28.4781
27.803
27.1288
26.4556
25.7833
25.1116
24.4405
23.77
23.1001
22.4306
21.7613
21.0924
20.4238
19.755
19.086
18.4174
17.7492
17.0808
16.412
15.7432
15.0748
14.4063
13.7376
13.0685
12.399
11.7296
11.0604
10.3912
9.72138
9.05096
8.38063
7.71066
7.04051
6.36976
5.69882
5.02815
4.35768
3.68711
3.01649
2.34591
1.6755
1.00504
0.335289
183.429
-2941.73
-842.335
681.031
641.676
189.096
32.3788
105.72
178.898
184.571
164.526
154.58
156.082
158.98
159.033
157.59
156.409
155.769
155.259
154.639
153.944
153.249
152.572
151.904
151.234
150.567
149.899
149.227
148.555
147.883
147.213
146.545
145.873
145.199
144.531
143.864
143.193
142.518
141.843
141.171
140.504
139.84
139.17
138.493
137.817
137.147
136.482
135.814
135.141
134.465
133.792
133.122
132.455
131.787
131.113
130.438
129.767
129.099
128.431
127.761
127.087
126.412
125.739
125.07
124.402
123.732
123.058
122.382
121.707
121.037
120.37
119.702
119.03
118.353
117.675
117.002
116.334
115.668
115
114.326
113.648
112.972
112.301
111.634
110.968
110.299
109.626
108.948
108.271
107.598
106.93
106.264
105.597
104.927
104.253
103.575
102.9
102.227
101.559
100.892
100.226
99.5563
98.8839
98.2094
97.5351
96.863
96.1934
95.5258
94.8591
94.1917
93.5219
92.8502
92.1777
91.5053
90.8336
90.1639
89.4966
88.8302
88.1633
87.4944
86.8236
86.1521
85.481
84.8109
84.1421
83.475
82.8089
82.1429
81.4754
80.8056
80.1335
79.461
78.79
78.1211
77.4538
76.788
76.1233
75.4584
74.7917
74.1221
73.4501
72.7774
72.1053
71.4349
70.7671
70.1016
69.4376
68.7739
68.1093
67.4421
66.7717
66.0988
65.4245
64.7498
64.0763
63.4054
62.7373
62.0713
61.4067
60.7427
60.0778
59.4107
58.7412
58.0695
57.3957
56.7207
56.0455
55.3716
54.6996
54.0295
53.3612
52.6945
52.0289
51.3637
50.6977
50.0297
49.3594
48.6872
48.0133
47.3374
46.6595
45.9807
45.3025
44.6255
43.9499
43.2756
42.6032
41.933
41.2649
40.5981
39.9319
39.2658
38.5996
37.933
37.2653
36.5957
35.9239
35.2505
34.5759
33.9
33.2226
32.5442
31.8658
31.1874
30.5092
29.8313
29.1543
28.4784
27.8035
27.1294
26.4561
25.7837
25.1121
24.441
23.7703
23.1004
22.431
21.7617
21.0926
20.424
19.7554
19.0866
18.4176
17.7491
17.0808
16.4124
15.7436
15.0748
14.4061
13.7374
13.0685
12.3993
11.7298
11.0602
10.3909
9.72147
9.05135
8.38073
7.71025
7.04004
6.36964
5.69887
5.02806
4.35743
3.68687
3.01626
2.34571
1.67528
1.0049
0.335039
183.424
-2941.71
-842.31
681.024
641.661
189.108
32.3965
105.712
178.888
184.579
164.532
154.576
156.075
158.979
159.038
157.592
156.402
155.76
155.258
154.645
153.948
153.246
152.571
151.911
151.245
150.571
149.894
149.219
148.552
147.887
147.217
146.541
145.867
145.196
144.531
143.866
143.193
142.515
141.842
141.175
140.509
139.84
139.166
138.489
137.817
137.151
136.485
135.813
135.136
134.461
133.794
133.127
132.457
131.784
131.109
130.436
129.768
129.102
128.432
127.758
127.083
126.41
125.74
125.073
124.404
123.731
123.054
122.379
121.707
121.04
120.373
119.702
119.026
118.348
117.672
117.002
116.337
115.67
115
114.324
113.646
112.97
112.301
111.636
110.97
110.299
109.623
108.946
108.27
107.598
106.932
106.266
105.598
104.925
104.25
103.573
102.899
102.229
101.561
100.894
100.226
99.5552
98.882
98.2078
97.5343
96.8632
96.1945
95.527
94.8595
94.191
93.5206
92.8483
92.176
91.5049
90.8349
90.166
89.498
88.8304
88.1622
87.4927
86.8217
86.1501
85.4795
84.8106
84.1433
83.4767
82.8101
82.1425
81.4737
80.8033
80.1316
79.4595
78.7889
78.1207
77.4549
76.7898
76.1246
75.4584
74.7905
74.1201
73.448
72.7753
72.1036
71.4343
70.7675
70.1029
69.4393
68.7752
68.1096
67.4415
66.7704
66.0969
65.4223
64.7482
64.0755
63.4051
62.7377
62.0723
61.4079
60.7436
60.0783
59.4108
58.7406
58.0682
57.3943
56.7194
56.0444
55.3705
54.6986
54.029
53.3613
52.695
52.0294
51.3639
50.6978
50.0302
49.36
48.6874
48.0128
47.3367
46.6592
45.9807
45.3022
44.6249
43.9494
43.2757
42.6036
41.9332
41.2648
40.5979
39.9319
39.2661
38.5997
37.9326
37.2647
36.5953
35.9238
35.2501
34.5752
33.8993
33.2221
32.5439
31.8653
31.1869
30.5088
29.8311
29.1541
28.4781
27.8033
27.1293
26.4561
25.7835
25.1118
24.4408
23.7702
23.1003
22.4309
21.7617
21.0925
20.4236
19.755
19.0865
18.4177
17.7489
17.0804
16.4121
15.7436
15.0749
14.4061
13.7371
13.0682
12.3993
11.73
11.0603
10.3906
9.7211
9.05141
8.3811
7.71043
7.03989
6.36951
5.69899
5.02829
4.35761
3.68703
3.01646
2.3459
1.67547
1.00505
0.335219
183.426
-2941.73
-842.331
681.039
641.676
189.093
32.3799
105.719
178.906
184.584
164.52
154.564
156.079
158.992
159.042
157.587
156.402
155.769
155.266
154.644
153.939
153.239
152.568
151.91
151.242
150.566
149.893
149.224
148.559
147.89
147.213
146.537
145.869
145.205
144.535
143.862
143.186
142.512
141.846
141.181
140.511
139.835
139.16
138.49
137.824
137.155
136.482
135.807
135.133
134.465
133.8
133.131
132.456
131.779
131.107
130.439
129.773
129.105
128.431
127.754
127.08
126.411
125.744
125.076
124.405
123.728
123.051
122.379
121.711
121.045
120.376
119.701
119.022
118.345
117.673
117.006
116.341
115.673
114.998
114.321
113.644
112.971
112.303
111.638
110.971
110.297
109.621
108.944
108.27
107.601
106.935
106.268
105.597
104.923
104.247
103.572
102.9
102.231
101.564
100.896
100.226
99.5534
98.8798
98.2066
97.5347
96.8648
96.1965
95.5285
94.8597
94.1899
93.5191
92.8473
92.1757
91.5055
90.8367
90.1685
89.5001
88.8311
88.1614
87.4911
86.8203
86.1495
85.4797
84.8116
84.145
83.4789
82.812
82.1433
81.4729
80.8016
80.1302
79.4593
78.7896
78.1222
77.4569
76.7923
76.1268
75.4595
74.7902
74.119
73.4466
72.7743
72.1035
71.4349
70.7689
70.105
69.4416
68.7771
68.1106
67.4414
66.7697
66.0957
65.4211
64.7474
64.0754
63.4058
62.7388
62.0739
61.4097
60.745
60.0791
59.4112
58.7406
58.0676
57.3932
56.7183
56.0436
55.3701
54.6984
54.0289
53.3616
52.6958
52.0303
51.3646
50.6981
50.0303
49.3604
48.6879
48.0129
47.3364
46.6589
45.9808
45.3025
44.625
43.9493