/*--------------------------------*- C++ -*----------------------------------*\
| =========                 |                                                 |
| \\      /  F ield         | OpenFOAM: The Open Source CFD Toolbox           |
|  \\    /   O peration     | Version:  2406                                  |
|   \\  /    A nd           | Website:  www.openfoam.com                      |
|    \\/     M anipulation  |                                                 |
\*---------------------------------------------------------------------------*/
FoamFile
{
    version     2.0;
    format      ascii;
    arch        "LSB;label=32;scalar=64";
    class       surfaceScalarField;
    location    "0.85";
    object      phi;
}
// * * * * * * * * * * * * * * * * * * * * * * * * * * * * * * * * * * * * * //

dimensions      [0 3 -1 0 0 0 0];

oriented        oriented;

internalField   nonuniform List<scalar> 
12225
(
0.502572
1.24129e-06
0.502566
6.058e-06
0.502559
6.96225e-06
0.502554
5.01438e-06
0.502549
4.49926e-06
0.502544
5.32781e-06
0.502538
6.12224e-06
0.502532
5.8643e-06
0.502527
5.33245e-06
0.502522
4.8864e-06
0.502517
4.80036e-06
0.502512
4.64725e-06
0.502507
5.26947e-06
0.502501
5.73863e-06
0.502496
5.67687e-06
0.50249
5.72199e-06
0.502484
5.77174e-06
0.502478
5.77131e-06
0.502473
5.69441e-06
0.502467
5.56486e-06
0.502461
5.7565e-06
0.502455
6.06653e-06
0.502449
5.88489e-06
0.502444
5.22687e-06
0.502439
4.59186e-06
0.502435
4.7889e-06
0.502429
5.4327e-06
0.502424
5.27797e-06
0.502419
5.03935e-06
0.502414
5.41807e-06
0.502408
5.71119e-06
0.502402
5.62753e-06
0.502397
5.57934e-06
0.502391
5.85259e-06
0.502385
6.12514e-06
0.502379
6.04512e-06
0.502373
5.74804e-06
0.502367
5.56337e-06
0.502362
5.61093e-06
0.502356
5.67509e-06
0.50235
5.54097e-06
0.502345
5.35038e-06
0.50234
5.31334e-06
0.502334
5.39542e-06
0.502329
5.54969e-06
0.502323
5.64924e-06
0.502318
5.45074e-06
0.502313
5.10794e-06
0.502308
4.96265e-06
0.502303
4.9867e-06
0.502298
5.0232e-06
0.502293
5.06465e-06
0.502287
5.08858e-06
0.502282
5.06268e-06
0.502277
5.02876e-06
0.502272
5.10102e-06
0.502267
5.33104e-06
0.502261
5.52628e-06
0.502256
5.51899e-06
0.50225
5.50188e-06
0.502245
5.63062e-06
0.502239
5.67301e-06
0.502234
5.51337e-06
0.502228
5.38684e-06
0.502223
5.38002e-06
0.502217
5.35673e-06
0.502212
5.3413e-06
0.502207
5.38444e-06
0.502201
5.34111e-06
0.502196
5.18163e-06
0.502191
5.09334e-06
0.502186
5.09553e-06
0.502181
5.03215e-06
0.502176
4.87535e-06
0.502171
4.75817e-06
0.502167
4.7694e-06
0.502162
4.84458e-06
0.502157
4.83709e-06
0.502152
4.71348e-06
0.502148
4.61003e-06
0.502143
4.62948e-06
0.502138
4.73425e-06
0.502133
4.84474e-06
0.502128
4.93728e-06
0.502123
5.01631e-06
0.502118
5.05107e-06
0.502113
5.0231e-06
0.502108
5.05646e-06
0.502103
5.30382e-06
0.502097
5.62969e-06
0.502092
5.70721e-06
0.502086
5.50793e-06
0.502081
5.40976e-06
0.502075
5.65761e-06
0.502069
6.01353e-06
0.502063
6.12207e-06
0.502057
5.94747e-06
0.502051
5.73132e-06
0.502046
5.72338e-06
0.50204
6.00383e-06
0.502033
6.41962e-06
0.502026
6.67158e-06
0.50202
6.58019e-06
0.502014
6.25495e-06
0.502008
5.98201e-06
0.502002
5.97623e-06
0.501995
6.22916e-06
0.501989
6.53074e-06
0.501982
6.63867e-06
0.501976
6.47456e-06
0.50197
6.17341e-06
0.501964
5.942e-06
0.501958
5.85661e-06
0.501952
5.8358e-06
0.501946
5.81577e-06
0.50194
5.83863e-06
0.501934
5.91771e-06
0.501928
5.96646e-06
0.501923
5.91618e-06
0.501917
5.77196e-06
0.501911
5.55312e-06
0.501906
5.32938e-06
0.501901
5.24581e-06
0.501895
5.37097e-06
0.50189
5.5418e-06
0.501884
5.49975e-06
0.501879
5.20759e-06
0.501874
4.91617e-06
0.501869
4.89728e-06
0.501864
5.13867e-06
0.501859
5.35612e-06
0.501853
5.29903e-06
0.501848
5.03333e-06
0.501844
4.82364e-06
0.501839
4.82698e-06
0.501834
4.94319e-06
0.501829
4.97606e-06
0.501824
4.88614e-06
0.501819
4.80762e-06
0.501814
4.8135e-06
0.50181
4.78777e-06
0.501805
4.63207e-06
0.5018
4.49766e-06
0.501796
4.63685e-06
0.501791
5.03037e-06
0.501785
5.31765e-06
0.50178
5.16449e-06
0.501776
4.63751e-06
0.501771
4.13694e-06
0.501767
4.00539e-06
0.501763
4.23532e-06
0.501759
4.53874e-06
0.501754
4.64816e-06
0.501749
4.55676e-06
0.501745
4.47674e-06
0.50174
4.55858e-06
0.501736
4.69881e-06
0.501731
4.67329e-06
0.501727
4.42595e-06
0.501722
4.14035e-06
0.501718
4.04786e-06
0.501714
4.21236e-06
0.50171
4.4959e-06
0.501705
4.69408e-06
0.5017
4.72485e-06
0.501696
4.68832e-06
0.501691
4.71416e-06
0.501686
4.78353e-06
0.501681
4.77816e-06
0.501677
4.67093e-06
0.501672
4.57261e-06
0.501668
4.60117e-06
0.501663
4.77335e-06
0.501658
5.03343e-06
0.501652
5.28135e-06
0.501647
5.38216e-06
0.501642
5.25616e-06
0.501637
5.00357e-06
0.501632
4.86342e-06
0.501627
4.98308e-06
0.501622
5.24183e-06
0.501616
5.36991e-06
0.501611
5.25818e-06
0.501606
5.09752e-06
0.501601
5.16614e-06
0.501595
5.48283e-06
0.50159
5.76092e-06
0.501584
5.72389e-06
0.501578
5.40129e-06
0.501573
5.06598e-06
0.501568
4.92337e-06
0.501564
4.94232e-06
0.501559
4.98985e-06
0.501553
5.0214e-06
0.501548
5.07103e-06
0.501543
5.1094e-06
0.501538
5.0262e-06
0.501533
4.79888e-06
0.501529
4.58524e-06
0.501524
4.58577e-06
0.50152
4.80803e-06
0.501515
5.0024e-06
0.50151
4.88798e-06
0.501505
4.45128e-06
0.501501
3.97876e-06
0.501497
3.76389e-06
0.501494
3.81998e-06
0.50149
3.93267e-06
0.501486
3.94472e-06
0.501482
3.88679e-06
0.501478
3.8436e-06
0.501474
3.80631e-06
0.50147
3.70006e-06
0.501467
3.4985e-06
0.501464
3.2568e-06
0.501461
3.03695e-06
0.501458
2.85002e-06
0.501455
2.66162e-06
0.501453
2.43844e-06
0.501451
2.18228e-06
0.501449
1.92504e-06
0.501447
1.71884e-06
0.501445
1.60134e-06
0.501444
1.53713e-06
0.501442
1.43574e-06
0.501441
1.26299e-06
0.50144
1.07017e-06
0.501439
9.04869e-07
0.501438
7.82054e-07
0.501438
7.2721e-07
0.501437
7.70248e-07
0.501436
8.52934e-07
0.501435
8.46949e-07
0.501434
7.08044e-07
0.501434
5.63216e-07
0.501433
5.51286e-07
0.501433
6.29916e-07
0.501432
5.96018e-07
0.501432
3.41921e-07
0.501432
7.13455e-08
0.501432
1.09066e-07
0.501431
4.58391e-07
0.50143
7.94754e-07
0.501429
8.06588e-07
0.501429
5.25947e-07
0.501429
2.66264e-07
0.501428
2.26499e-07
0.501428
3.18774e-07
0.501428
2.95974e-07
3.45765e-07
0.502578
-2.10035e-07
0.502583
9.57047e-07
0.502588
2.43585e-06
0.50259
2.68751e-06
0.502592
2.03767e-06
0.502596
1.57233e-06
0.502601
1.79091e-06
0.502604
2.30137e-06
0.502607
2.49828e-06
0.502609
2.59017e-06
0.502611
3.01615e-06
0.502613
2.93437e-06
0.502616
2.24015e-06
0.50262
1.92078e-06
0.502623
2.03489e-06
0.502627
2.4082e-06
0.50263
2.64082e-06
0.502633
2.66579e-06
0.502636
2.78626e-06
0.502638
2.81296e-06
0.502642
2.39871e-06
0.502646
2.08741e-06
0.50265
2.14613e-06
0.502652
2.33268e-06
0.502655
2.27411e-06
0.502658
1.85356e-06
0.502661
2.22173e-06
0.502663
2.94375e-06
0.502665
2.96771e-06
0.502668
2.96466e-06
0.50267
3.34851e-06
0.502672
3.49579e-06
0.502675
3.06247e-06
0.502678
2.63042e-06
0.502682
2.47245e-06
0.502685
2.34427e-06
0.502689
2.23431e-06
0.502692
2.22157e-06
0.502695
2.30195e-06
0.502699
2.42696e-06
0.502702
2.4598e-06
0.502705
2.32573e-06
0.502708
2.15584e-06
0.502711
2.00288e-06
0.502715
1.90559e-06
0.502719
2.06548e-06
0.502722
2.39508e-06
0.502724
2.51064e-06
0.502727
2.44605e-06
0.502729
2.49145e-06
0.502732
2.63543e-06
0.502734
2.71354e-06
0.502736
2.69201e-06
0.502739
2.63318e-06
0.502741
2.51725e-06
0.502744
2.26483e-06
0.502748
2.01872e-06
0.502751
2.04686e-06
0.502754
2.31863e-06
0.502757
2.62979e-06
0.50276
2.90597e-06
0.502762
2.99811e-06
0.502765
2.74508e-06
0.502768
2.42057e-06
0.502771
2.40409e-06
0.502774
2.54212e-06
0.502777
2.51724e-06
0.50278
2.42561e-06
0.502783
2.4171e-06
0.502786
2.3646e-06
0.502788
2.20634e-06
0.502791
2.06933e-06
0.502794
1.99683e-06
0.502797
1.94332e-06
0.5028
1.94401e-06
0.502803
2.08319e-06
0.502805
2.33931e-06
0.502808
2.52091e-06
0.50281
2.45446e-06
0.502812
2.24409e-06
0.502815
2.16576e-06
0.502817
2.31146e-06
0.50282
2.54225e-06
0.502822
2.7376e-06
0.502824
2.91349e-06
0.502826
3.06211e-06
0.502828
3.01279e-06
0.50283
2.65715e-06
0.502833
2.28583e-06
0.502837
2.32857e-06
0.50284
2.73709e-06
0.502842
3.02214e-06
0.502844
2.94329e-06
0.502847
2.77438e-06
0.502851
2.77399e-06
0.502854
2.82851e-06
0.502857
2.73782e-06
0.50286
2.52451e-06
0.502864
2.36271e-06
0.502867
2.39233e-06
0.502871
2.61355e-06
0.502875
2.86349e-06
0.502879
2.92258e-06
0.502882
2.70345e-06
0.502886
2.33803e-06
0.50289
2.07632e-06
0.502894
2.09614e-06
0.502898
2.36099e-06
0.502902
2.63642e-06
0.502906
2.68444e-06
0.502909
2.4775e-06
0.502913
2.2358e-06
0.502917
2.22402e-06
0.50292
2.4598e-06
0.502923
2.69388e-06
0.502926
2.71719e-06
0.50293
2.55201e-06
0.502933
2.33134e-06
0.502937
2.18506e-06
0.502941
2.23258e-06
0.502944
2.45062e-06
0.502946
2.59587e-06
0.502949
2.48005e-06
0.502952
2.24971e-06
0.502956
2.19771e-06
0.502959
2.35949e-06
0.502962
2.47734e-06
0.502964
2.37252e-06
0.502967
2.17991e-06
0.50297
2.17836e-06
0.502973
2.44138e-06
0.502975
2.73938e-06
0.502978
2.81704e-06
0.50298
2.67436e-06
0.502982
2.52442e-06
0.502984
2.50906e-06
0.502987
2.52778e-06
0.502989
2.41232e-06
0.502992
2.22062e-06
0.502995
2.21223e-06
0.502997
2.47245e-06
0.502999
2.73187e-06
0.503001
2.69038e-06
0.503003
2.43079e-06
0.503005
2.32672e-06
0.503008
2.57764e-06
0.50301
2.94973e-06
0.503012
3.01703e-06
0.503014
2.61999e-06
0.503015
2.03912e-06
0.503018
1.74234e-06
0.503021
1.96002e-06
0.503023
2.47901e-06
0.503024
2.85552e-06
0.503026
2.85064e-06
0.503028
2.62786e-06
0.50303
2.49411e-06
0.503032
2.52861e-06
0.503034
2.54912e-06
0.503036
2.39174e-06
0.503038
2.12388e-06
0.50304
1.98511e-06
0.503042
2.15325e-06
0.503045
2.54898e-06
0.503046
2.88645e-06
0.503048
2.95461e-06
0.50305
2.81606e-06
0.503052
2.66901e-06
0.503054
2.58188e-06
0.503057
2.48165e-06
0.503059
2.33691e-06
0.503061
2.22679e-06
0.503064
2.21745e-06
0.503066
2.30857e-06
0.503069
2.50378e-06
0.503072
2.79236e-06
0.503074
3.04541e-06
0.503076
3.05319e-06
0.503078
2.75679e-06
0.503081
2.3864e-06
0.503084
2.26651e-06
0.503087
2.45626e-06
0.503089
2.67235e-06
0.503092
2.62368e-06
0.503094
2.36502e-06
0.503098
2.22088e-06
0.503101
2.36974e-06
0.503104
2.6476e-06
0.503107
2.77614e-06
0.503109
2.67959e-06
0.503112
2.49642e-06
0.503114
2.34382e-06
0.503117
2.20932e-06
0.50312
2.07499e-06
0.503123
2.0402e-06
0.503126
2.20381e-06
0.503128
2.47566e-06
0.503131
2.60457e-06
0.503133
2.43741e-06
0.503135
2.09762e-06
0.503138
1.89191e-06
0.503141
2.02991e-06
0.503144
2.4169e-06
0.503145
2.72666e-06
0.503147
2.72024e-06
0.503148
2.48182e-06
0.503149
2.28745e-06
0.503151
2.27104e-06
0.503153
2.31677e-06
0.503154
2.27384e-06
0.503156
2.16183e-06
0.503158
2.11668e-06
0.503159
2.21255e-06
0.50316
2.39074e-06
0.503161
2.54367e-06
0.503161
2.61992e-06
0.503162
2.64256e-06
0.503162
2.66048e-06
0.503161
2.69961e-06
0.503161
2.74493e-06
0.50316
2.75074e-06
0.503159
2.69219e-06
0.503158
2.61795e-06
0.503157
2.60646e-06
0.503156
2.65528e-06
0.503154
2.68214e-06
0.503153
2.64661e-06
0.503151
2.58517e-06
0.503149
2.5183e-06
0.503148
2.4242e-06
0.503146
2.33371e-06
0.503145
2.33777e-06
0.503143
2.44533e-06
0.503141
2.51893e-06
0.503139
2.44441e-06
0.503137
2.32355e-06
0.503136
2.38481e-06
0.503134
2.66746e-06
0.503131
2.88902e-06
0.503128
2.7463e-06
0.503126
2.31747e-06
0.503125
2.00009e-06
0.503123
2.05805e-06
0.503122
2.33015e-06
0.50312
2.46875e-06
0.503118
2.36827e-06
0.503116
2.25231e-06
0.503114
2.28682e-06
0.503112
2.55249e-06
2.45673e-06
0.502574
2.38317e-07
0.502575
-3.22906e-07
0.502578
1.6407e-07
0.502579
1.10847e-06
0.50258
1.54483e-06
0.502579
2.20079e-06
0.502578
2.46751e-06
0.502578
2.31442e-06
0.502579
2.26107e-06
0.502579
2.09788e-06
0.50258
1.9822e-06
0.502581
2.17326e-06
0.502581
2.48387e-06
0.50258
2.66411e-06
0.502579
2.40841e-06
0.50258
2.06926e-06
0.502581
1.85859e-06
0.502582
1.64477e-06
0.502583
1.43854e-06
0.502584
1.57857e-06
0.502585
1.88609e-06
0.502585
2.00854e-06
0.502585
2.344e-06
0.502584
2.66957e-06
0.502584
2.68189e-06
0.502583
2.36392e-06
0.502584
1.90344e-06
0.502585
1.86056e-06
0.502586
2.06756e-06
0.502587
1.91811e-06
0.502588
1.71154e-06
0.50259
1.82956e-06
0.502591
1.8852e-06
0.502592
1.84087e-06
0.502592
2.05593e-06
0.502592
2.37018e-06
0.502592
2.50765e-06
0.502592
2.50446e-06
0.502592
2.49014e-06
0.502591
2.51993e-06
0.502591
2.54717e-06
0.502591
2.54119e-06
0.502591
2.6129e-06
0.50259
2.74193e-06
0.502589
2.63952e-06
0.502589
2.3405e-06
0.502589
2.18253e-06
0.502589
2.19167e-06
0.50259
2.22102e-06
0.50259
2.25507e-06
0.50259
2.27709e-06
0.502591
2.2693e-06
0.502591
2.28154e-06
0.502591
2.35374e-06
0.502592
2.42405e-06
0.502591
2.34938e-06
0.502591
2.1671e-06
0.502591
2.14917e-06
0.502591
2.30992e-06
0.502592
2.30307e-06
0.502592
2.03648e-06
0.502594
1.74787e-06
0.502595
1.50891e-06
0.502596
1.35653e-06
0.502597
1.53657e-06
0.502597
2.0288e-06
0.502597
2.42158e-06
0.502597
2.55405e-06
0.502597
2.63475e-06
0.502597
2.74068e-06
0.502596
2.78962e-06
0.502595
2.83145e-06
0.502594
2.96061e-06
0.502593
3.13992e-06
0.502592
3.25698e-06
0.502591
3.24831e-06
0.50259
3.14869e-06
0.502589
3.00676e-06
0.502589
2.78212e-06
0.502589
2.45957e-06
0.502589
2.18133e-06
0.502589
2.08243e-06
0.50259
2.10237e-06
0.50259
2.0785e-06
0.502591
1.98466e-06
0.502592
1.96231e-06
0.502593
2.03268e-06
0.502594
1.93089e-06
0.502595
1.50206e-06
0.502596
1.09681e-06
0.502597
1.19781e-06
0.502599
1.7469e-06
0.502599
2.21723e-06
0.5026
2.28068e-06
0.502601
2.0562e-06
0.502602
1.80164e-06
0.502603
1.68154e-06
0.502604
1.76615e-06
0.502604
2.00708e-06
0.502604
2.24261e-06
0.502604
2.32866e-06
0.502605
2.24535e-06
0.502606
2.07871e-06
0.502607
1.95668e-06
0.502607
1.97471e-06
0.502607
2.12758e-06
0.502607
2.32236e-06
0.502607
2.45012e-06
0.502607
2.44791e-06
0.502607
2.31746e-06
0.502607
2.10995e-06
0.502608
1.9273e-06
0.502608
1.91424e-06
0.502608
2.12874e-06
0.502609
2.40971e-06
0.502609
2.51872e-06
0.502609
2.40174e-06
0.502609
2.18225e-06
0.502609
1.99345e-06
0.50261
1.96995e-06
0.50261
2.2252e-06
0.50261
2.65076e-06
0.502609
2.90309e-06
0.502609
2.76957e-06
0.502609
2.44127e-06
0.502609
2.28834e-06
0.502609
2.44361e-06
0.502608
2.69899e-06
0.502608
2.77923e-06
0.502607
2.6539e-06
0.502607
2.51601e-06
0.502607
2.51332e-06
0.502608
2.58603e-06
0.502608
2.58787e-06
0.502608
2.50016e-06
0.502608
2.45062e-06
0.502608
2.50647e-06
0.502608
2.53133e-06
0.502608
2.36463e-06
0.502608
2.12476e-06
0.502608
2.14472e-06
0.502608
2.55024e-06
0.502608
3.04334e-06
0.502607
3.21349e-06
0.502606
2.9728e-06
0.502606
2.60208e-06
0.502607
2.40318e-06
0.502608
2.39615e-06
0.502608
2.36716e-06
0.502608
2.15463e-06
0.502608
1.85908e-06
0.502608
1.7685e-06
0.502608
2.05654e-06
0.502609
2.54941e-06
0.502609
2.84789e-06
0.502608
2.71388e-06
0.502609
2.28678e-06
0.502609
1.89575e-06
0.50261
1.73443e-06
0.502611
1.75683e-06
0.502611
1.8123e-06
0.502611
1.82986e-06
0.502611
1.88672e-06
0.502612
2.089e-06
0.502612
2.38016e-06
0.502613
2.53803e-06
0.502613
2.419e-06
0.502614
2.12791e-06
0.502615
1.88022e-06
0.502615
1.77651e-06
0.502616
1.7873e-06
0.502616
1.87481e-06
0.502616
2.00421e-06
0.502617
2.09902e-06
0.502617
2.10671e-06
0.502618
2.0898e-06
0.502619
2.15377e-06
0.502619
2.27169e-06
0.50262
2.26564e-06
0.50262
2.02283e-06
0.502621
1.68919e-06
0.502622
1.55807e-06
0.502623
1.74327e-06
0.502623
2.03308e-06
0.502623
2.13961e-06
0.502624
2.02941e-06
0.502624
1.91765e-06
0.502625
1.96821e-06
0.502625
2.11654e-06
0.502626
2.20863e-06
0.502626
2.21642e-06
0.502626
2.22755e-06
0.502626
2.26508e-06
0.502626
2.23504e-06
0.502626
2.09271e-06
0.502626
1.97113e-06
0.502627
2.05941e-06
0.502627
2.37324e-06
0.502627
2.70678e-06
0.502626
2.82236e-06
0.502625
2.67685e-06
0.502625
2.46459e-06
0.502625
2.42232e-06
0.502625
2.5768e-06
0.502625
2.71833e-06
0.502625
2.65364e-06
0.502624
2.4302e-06
0.502624
2.24739e-06
0.502625
2.19958e-06
0.502625
2.19733e-06
0.502625
2.1246e-06
0.502625
1.98551e-06
0.502625
1.88034e-06
0.502626
1.8855e-06
0.502626
1.98491e-06
0.502627
2.09995e-06
0.502627
2.16257e-06
0.502628
2.1589e-06
0.502628
2.12762e-06
0.502629
2.12131e-06
0.50263
2.14713e-06
0.50263
2.14817e-06
0.502631
2.07877e-06
0.502631
1.98477e-06
0.502632
1.94788e-06
0.502633
1.97496e-06
0.502633
2.01609e-06
0.502634
2.06231e-06
0.502634
2.13579e-06
0.502634
2.20446e-06
0.502635
2.20997e-06
0.502635
2.18025e-06
0.502635
2.21711e-06
0.502635
2.33977e-06
0.502635
2.41293e-06
0.502635
2.30474e-06
0.502635
2.09757e-06
0.502636
2.04392e-06
0.502637
2.25663e-06
0.502637
2.52516e-06
0.502637
2.54377e-06
0.502636
2.28197e-06
0.502636
2.01939e-06
0.502637
1.99332e-06
0.502637
2.12821e-06
0.502637
2.18393e-06
0.502637
2.08838e-06
0.502638
1.97585e-06
0.502638
1.98925e-06
2.07758e-06
0.502578
3.83537e-07
0.502577
9.02961e-07
0.502575
1.45507e-06
0.502574
2.05356e-06
0.502574
1.9496e-06
0.502575
1.5575e-06
0.502576
1.4486e-06
0.502576
1.47161e-06
0.502577
1.43251e-06
0.502578
1.41133e-06
0.502578
1.70244e-06
0.502579
1.806e-06
0.502579
1.61095e-06
0.502581
1.51345e-06
0.502581
1.62863e-06
0.502581
2.023e-06
0.502581
2.47912e-06
0.50258
2.65218e-06
0.502579
2.58364e-06
0.502578
2.37971e-06
0.502577
2.30366e-06
0.502577
2.09172e-06
0.502578
1.79671e-06
0.502578
2.15224e-06
0.502578
2.68483e-06
0.502578
2.626e-06
0.502578
2.34346e-06
0.502577
2.26791e-06
0.502577
2.13588e-06
0.502577
1.8421e-06
0.502577
1.72321e-06
0.502577
1.83797e-06
0.502577
2.00873e-06
0.502577
2.08043e-06
0.502577
2.10267e-06
0.502577
2.16836e-06
0.502577
2.2306e-06
0.502578
2.19917e-06
0.502578
1.9973e-06
0.502579
1.70473e-06
0.50258
1.51973e-06
0.502581
1.50821e-06
0.502582
1.6975e-06
0.502583
2.06069e-06
0.502583
2.25194e-06
0.502583
2.06603e-06
0.502584
1.82237e-06
0.502584
1.74204e-06
0.502585
1.69126e-06
0.502585
1.61044e-06
0.502586
1.60167e-06
0.502587
1.70562e-06
0.502587
1.81717e-06
0.502588
1.82614e-06
0.502588
1.79886e-06
0.502589
1.82921e-06
0.502589
1.88517e-06
0.502589
2.00875e-06
0.502589
2.24796e-06
0.502589
2.37153e-06
0.502589
2.23194e-06
0.502589
2.10055e-06
0.502588
2.13502e-06
0.502587
2.11952e-06
0.502587
2.00733e-06
0.502587
1.97894e-06
0.502587
1.96292e-06
0.502588
1.78554e-06
0.502589
1.5613e-06
0.50259
1.45489e-06
0.502592
1.41985e-06
0.502593
1.40393e-06
0.502595
1.45796e-06
0.502596
1.59854e-06
0.502598
1.7394e-06
0.502599
1.76328e-06
0.502601
1.66427e-06
0.502602
1.58718e-06
0.502603
1.63584e-06
0.502604
1.7557e-06
0.502604
1.88764e-06
0.502604
2.06362e-06
0.502604
2.29041e-06
0.502604
2.45258e-06
0.502603
2.41801e-06
0.502603
2.25958e-06
0.502603
2.22276e-06
0.502602
2.34681e-06
0.502601
2.35277e-06
0.5026
2.10678e-06
0.5026
1.91566e-06
0.502599
2.09131e-06
0.502599
2.46844e-06
0.502599
2.62983e-06
0.502598
2.41947e-06
0.502598
2.02886e-06
0.502598
1.75549e-06
0.502598
1.80848e-06
0.502598
2.17134e-06
0.502598
2.57252e-06
0.502597
2.69423e-06
0.502597
2.44708e-06
0.502597
2.02468e-06
0.502597
1.73804e-06
0.502597
1.78528e-06
0.502597
2.1094e-06
0.502597
2.45616e-06
0.502597
2.58051e-06
0.502597
2.43113e-06
0.502597
2.16656e-06
0.502598
1.98468e-06
0.502598
1.94518e-06
0.502597
1.9943e-06
0.502597
2.08328e-06
0.502598
2.15004e-06
0.502598
2.09335e-06
0.502599
1.9099e-06
0.502599
1.73125e-06
0.502599
1.63331e-06
0.5026
1.57984e-06
0.5026
1.59294e-06
0.502601
1.75164e-06
0.502602
1.98066e-06
0.502603
2.04853e-06
0.502604
1.85046e-06
0.502604
1.57258e-06
0.502605
1.49911e-06
0.502606
1.70936e-06
0.502607
1.9995e-06
0.502608
2.11444e-06
0.502608
2.0085e-06
0.502609
1.84832e-06
0.50261
1.78887e-06
0.50261
1.80828e-06
0.502611
1.7839e-06
0.502612
1.69651e-06
0.502613
1.67921e-06
0.502613
1.80748e-06
0.502614
1.93234e-06
0.502614
1.86389e-06
0.502615
1.67971e-06
0.502615
1.68344e-06
0.502616
2.0273e-06
0.502617
2.49314e-06
0.502617
2.70031e-06
0.502618
2.4788e-06
0.502618
2.00566e-06
0.502619
1.61107e-06
0.50262
1.49115e-06
0.50262
1.58856e-06
0.50262
1.71451e-06
0.50262
1.77463e-06
0.50262
1.86334e-06
0.502621
2.10261e-06
0.502621
2.41725e-06
0.502621
2.55965e-06
0.502621
2.37316e-06
0.502621
1.96347e-06
0.502621
1.59941e-06
0.502622
1.49543e-06
0.502622
1.67081e-06
0.502622
1.9659e-06
0.502621
2.2033e-06
0.502621
2.34619e-06
0.502621
2.46114e-06
0.502621
2.54311e-06
0.502621
2.48765e-06
0.502621
2.25965e-06
0.502621
1.98176e-06
0.502621
1.80564e-06
0.502621
1.78606e-06
0.502621
1.91179e-06
0.502621
2.15425e-06
0.50262
2.42314e-06
0.50262
2.56558e-06
0.502619
2.49962e-06
0.502619
2.32406e-06
0.502619
2.22246e-06
0.502619
2.24849e-06
0.502619
2.26201e-06
0.502619
2.1173e-06
0.502618
1.88038e-06
0.502618
1.78211e-06
0.502618
1.93922e-06
0.502618
2.20829e-06
0.502618
2.35927e-06
0.502618
2.33325e-06
0.502617
2.25225e-06
0.502617
2.21805e-06
0.502617
2.19405e-06
0.502617
2.11027e-06
0.502617
2.00561e-06
0.502618
1.9802e-06
0.502618
2.03206e-06
0.502618
2.02726e-06
0.502618
1.8665e-06
0.502619
1.63258e-06
0.502619
1.52431e-06
0.50262
1.65819e-06
0.502621
1.9468e-06
0.502622
2.16843e-06
0.502622
2.17499e-06
0.502623
2.03744e-06
0.502623
1.94889e-06
0.502624
1.98527e-06
0.502625
2.02848e-06
0.502625
1.94752e-06
0.502625
1.77433e-06
0.502626
1.64549e-06
0.502627
1.63319e-06
0.502627
1.69537e-06
0.502627
1.75726e-06
0.502627
1.78731e-06
0.502627
1.8043e-06
0.502628
1.84288e-06
0.502628
1.92044e-06
0.502628
2.02464e-06
0.502628
2.11514e-06
0.502628
2.15205e-06
0.502628
2.14233e-06
0.502628
2.13752e-06
0.502628
2.15906e-06
0.502628
2.16166e-06
0.502628
2.11047e-06
0.502628
2.04393e-06
0.502628
2.0092e-06
0.502628
1.992e-06
0.502628
1.97156e-06
0.502628
1.98116e-06
0.502628
2.04077e-06
0.502628
2.08609e-06
0.502628
2.04818e-06
0.502628
1.97735e-06
0.502629
2.00587e-06
0.502629
2.16416e-06
0.502629
2.29321e-06
0.502629
2.2112e-06
0.502629
1.95635e-06
0.50263
1.77559e-06
0.50263
1.83615e-06
0.502631
2.01771e-06
0.502631
2.06732e-06
0.502631
1.92072e-06
0.502631
1.76117e-06
0.502632
1.76238e-06
0.502632
1.88151e-06
0.502632
1.96014e-06
0.502632
1.94165e-06
0.502632
1.90911e-06
1.90681e-06
0.502578
7.67286e-08
0.502579
1.53594e-07
0.50258
4.36859e-07
0.502581
7.07632e-07
0.502582
1.13158e-06
0.502582
1.61906e-06
0.502582
1.62831e-06
0.502582
1.79689e-06
0.502581
1.82648e-06
0.502581
1.69305e-06
0.502581
1.7819e-06
0.502581
2.10753e-06
0.50258
2.26862e-06
0.502579
2.11027e-06
0.502579
1.86493e-06
0.50258
1.53038e-06
0.502581
1.47135e-06
0.502582
1.39057e-06
0.502583
1.35472e-06
0.502584
1.51776e-06
0.502585
1.44339e-06
0.502586
1.29995e-06
0.502586
1.1114e-06
0.502588
9.27561e-07
0.502589
1.3419e-06
0.50259
1.90505e-06
0.50259
1.85706e-06
0.502591
1.82343e-06
0.502591
2.08787e-06
0.50259
2.06748e-06
0.50259
1.77183e-06
0.502591
1.6434e-06
0.502591
1.79421e-06
0.502591
1.87743e-06
0.502591
1.71841e-06
0.502592
1.58682e-06
0.502592
1.68484e-06
0.502593
1.86603e-06
0.502593
1.85223e-06
0.502593
1.64689e-06
0.502593
1.53889e-06
0.502593
1.53017e-06
0.502593
1.46629e-06
0.502594
1.51841e-06
0.502594
1.81562e-06
0.502594
2.13761e-06
0.502594
2.32756e-06
0.502593
2.3797e-06
0.502592
2.26138e-06
0.502592
2.06526e-06
0.502592
1.99332e-06
0.502591
2.10682e-06
0.502591
2.24122e-06
0.50259
2.20773e-06
0.50259
2.08112e-06
0.50259
2.06371e-06
0.50259
2.07496e-06
0.50259
1.947e-06
0.50259
1.81316e-06
0.502591
1.79881e-06
0.502591
1.79884e-06
0.502591
1.85523e-06
0.502591
2.09598e-06
0.502591
2.30885e-06
0.502591
2.24094e-06
0.502591
2.03384e-06
0.502591
1.87975e-06
0.502591
1.72975e-06
0.502591
1.58875e-06
0.502591
1.58865e-06
0.502591
1.71835e-06
0.50259
1.83452e-06
0.50259
1.85734e-06
0.50259
1.81042e-06
0.50259
1.75355e-06
0.50259
1.69743e-06
0.50259
1.61296e-06
0.50259
1.55156e-06
0.50259
1.60711e-06
0.50259
1.74109e-06
0.50259
1.82207e-06
0.50259
1.82243e-06
0.50259
1.85193e-06
0.502591
1.97911e-06
0.502591
2.06349e-06
0.502592
1.89942e-06
0.502592
1.56686e-06
0.502593
1.39411e-06
0.502594
1.50051e-06
0.502595
1.66649e-06
0.502595
1.72379e-06
0.502595
1.75253e-06
0.502596
1.80491e-06
0.502597
1.75764e-06
0.502598
1.54868e-06
0.502598
1.31547e-06
0.502599
1.23285e-06
0.502599
1.36553e-06
0.5026
1.64431e-06
0.5026
1.88108e-06
0.502601
1.87881e-06
0.502602
1.60907e-06
0.502603
1.25022e-06
0.502604
1.05117e-06
0.502604
1.14788e-06
0.502605
1.46882e-06
0.502605
1.78976e-06
0.502606
1.89537e-06
0.502607
1.73716e-06
0.502608
1.48555e-06
0.502608
1.3997e-06
0.502608
1.57558e-06
0.502609
1.85954e-06
0.502609
2.04928e-06
0.502609
2.06771e-06
0.502609
1.9241e-06
0.502609
1.69964e-06
0.502609
1.5801e-06
0.502609
1.68951e-06
0.502609
1.90043e-06
0.502609
1.99057e-06
0.502608
1.93444e-06
0.502608
1.88087e-06
0.502609
1.89967e-06
0.502609
1.9076e-06
0.502608
1.83104e-06
0.502608
1.73607e-06
0.502608
1.76373e-06
0.502608
1.94301e-06
0.502608
2.1267e-06
0.502608
2.14821e-06
0.502608
2.00463e-06
0.502608
1.85176e-06
0.502608
1.81542e-06
0.502608
1.83749e-06
0.502608
1.76202e-06
0.502608
1.57643e-06
0.502608
1.46867e-06
0.502608
1.57747e-06
0.502608
1.78565e-06
0.502608
1.87659e-06
0.502608
1.82447e-06
0.502608
1.81082e-06
0.502609
1.96327e-06
0.502609
2.17311e-06
0.50261
2.19883e-06
0.50261
1.91954e-06
0.50261
1.46995e-06
0.50261
1.14235e-06
0.502611
1.15132e-06
0.502611
1.45705e-06
0.502611
1.81122e-06
0.502611
1.99704e-06
0.502611
2.00819e-06
0.502611
1.96578e-06
0.502612
1.91846e-06
0.502612
1.80228e-06
0.502613
1.5697e-06
0.502613
1.28856e-06
0.502614
1.11853e-06
0.502614
1.19837e-06
0.502614
1.51326e-06
0.502615
1.87394e-06
0.502615
2.08139e-06
0.502615
2.1024e-06
0.502616
2.02786e-06
0.502617
1.90689e-06
0.502617
1.72421e-06
0.502618
1.51244e-06
0.502618
1.36604e-06
0.502618
1.33616e-06
0.502619
1.40156e-06
0.50262
1.54486e-06
0.50262
1.76353e-06
0.502621
1.98712e-06
0.502621
2.0679e-06
0.502622
1.91821e-06
0.502622
1.6338e-06
0.502623
1.4234e-06
0.502624
1.39609e-06
0.502625
1.45339e-06
0.502625
1.43748e-06
0.502625
1.34744e-06
0.502626
1.33767e-06
0.502627
1.50311e-06
0.502627
1.74958e-06
0.502628
1.91761e-06
0.502628
1.96748e-06
0.502628
1.98492e-06
0.502628
2.02494e-06
0.502629
2.03556e-06
0.502629
1.96407e-06
0.502629
1.87407e-06
0.502629
1.89013e-06
0.502629
2.03435e-06
0.502628
2.18359e-06
0.502628
2.20509e-06
0.502627
2.1005e-06
0.502627
2.00835e-06
0.502627
2.07009e-06
0.502627
2.27865e-06
0.502626
2.46783e-06
0.502626
2.48393e-06
0.502626
2.35274e-06
0.502625
2.22517e-06
0.502625
2.1768e-06
0.502625
2.13879e-06
0.502625
2.02842e-06
0.502625
1.86494e-06
0.502624
1.73294e-06
0.502624
1.68706e-06
0.502625
1.72031e-06
0.502625
1.79212e-06
0.502624
1.86473e-06
0.502624
1.92067e-06
0.502624
1.96463e-06
0.502624
2.01282e-06
0.502624
2.06535e-06
0.502624
2.08796e-06
0.502625
2.04514e-06
0.502625
1.95899e-06
0.502625
1.89264e-06
0.502625
1.86165e-06
0.502626
1.8193e-06
0.502626
1.74559e-06
0.502626
1.67794e-06
0.502627
1.631e-06
0.502627
1.57135e-06
0.502627
1.50191e-06
0.502628
1.48768e-06
0.502629
1.55366e-06
0.502629
1.61909e-06
0.502629
1.59179e-06
0.50263
1.50757e-06
0.502631
1.51363e-06
0.502631
1.68219e-06
0.502631
1.88553e-06
0.502631
1.92499e-06
0.502631
1.77726e-06
0.502632
1.63453e-06
0.502632
1.66302e-06
0.502632
1.79943e-06
0.502632
1.85642e-06
0.502632
1.77461e-06
0.502632
1.67809e-06
0.502633
1.68755e-06
0.502633
1.77611e-06
0.502633
1.84057e-06
0.502633
1.8779e-06
1.8518e-06
0.502575
7.4825e-07
0.502574
1.18318e-06
0.502573
1.06932e-06
0.502573
7.79435e-07
0.502573
7.81335e-07
0.502574
7.9723e-07
0.502575
8.66808e-07
0.502576
1.07579e-06
0.502576
1.29293e-06
0.502577
1.17038e-06
0.502577
1.08545e-06
0.502578
1.12236e-06
0.502579
1.24389e-06
0.50258
1.44213e-06
0.50258
1.67245e-06
0.50258
1.48508e-06
0.502581
1.28537e-06
0.50258
1.58107e-06
0.50258
1.60725e-06
0.50258
1.55238e-06
0.502579
2.0138e-06
0.502578
2.41951e-06
0.502577
2.23395e-06
0.502576
1.71334e-06
0.502576
1.28878e-06
0.502577
1.28435e-06
0.502578
1.40534e-06
0.502578
1.44755e-06
0.502578
1.62508e-06
0.502579
1.88808e-06
0.502578
1.96576e-06
0.502578
1.86494e-06
0.502578
1.75721e-06
0.502578
1.64859e-06
0.502579
1.49761e-06
0.502579
1.33596e-06
0.502579
1.20658e-06
0.50258
1.20425e-06
0.502581
1.3605e-06
0.502581
1.57414e-06
0.50258
1.83587e-06
0.50258
1.97761e-06
0.50258
1.72183e-06
0.50258
1.25593e-06
0.502581
1.04612e-06
0.502582
1.12088e-06
0.502583
1.23296e-06
0.502584
1.30303e-06
0.502585
1.33883e-06
0.502585
1.32958e-06
0.502586
1.28109e-06
0.502587
1.22673e-06
0.502588
1.20964e-06
0.502589
1.19455e-06
0.50259
1.15938e-06
0.502591
1.21077e-06
0.502592
1.31621e-06
0.502592
1.25483e-06
0.502593
1.09529e-06
0.502594
1.10939e-06
0.502594
1.24071e-06
0.502595
1.28943e-06
0.502596
1.33364e-06
0.502597
1.44352e-06
0.502597
1.46813e-06
0.502598
1.40553e-06
0.502598
1.43317e-06
0.502599
1.55126e-06
0.502598
1.6553e-06
0.502598
1.76562e-06
0.502598
1.91247e-06
0.502598
2.0134e-06
0.502598
1.97296e-06
0.502598
1.79397e-06
0.502598
1.60168e-06
0.502598
1.5354e-06
0.502598
1.58764e-06
0.502598
1.65947e-06
0.502598
1.71133e-06
0.502598
1.7294e-06
0.502598
1.65994e-06
0.502598
1.4831e-06
0.502599
1.29984e-06
0.5026
1.28141e-06
0.5026
1.44751e-06
0.502601
1.54462e-06
0.502601
1.35619e-06
0.502601
1.07535e-06
0.502602
1.09059e-06
0.502602
1.4572e-06
0.502602
1.85747e-06
0.502601
2.02003e-06
0.502601
1.91996e-06
0.502601
1.65781e-06
0.502602
1.39944e-06
0.502602
1.35021e-06
0.502601
1.58366e-06
0.502601
1.94381e-06
0.5026
2.18967e-06
0.5026
2.17664e-06
0.5026
1.92053e-06
0.5026
1.57876e-06
0.5026
1.35381e-06
0.502599
1.36019e-06
0.502599
1.55198e-06
0.502599
1.76787e-06
0.502599
1.84775e-06
0.502599
1.72896e-06
0.502599
1.45944e-06
0.502599
1.17181e-06
0.5026
1.04479e-06
0.5026
1.17289e-06
0.502601
1.43282e-06
0.502601
1.59571e-06
0.502601
1.56837e-06
0.502602
1.40894e-06
0.502602
1.2028e-06
0.502603
1.0731e-06
0.502604
1.16976e-06
0.502604
1.47427e-06
0.502604
1.73703e-06
0.502604
1.74105e-06
0.502605
1.54133e-06
0.502605
1.36248e-06
0.502606
1.34231e-06
0.502606
1.43104e-06
0.502606
1.50051e-06
0.502607
1.51403e-06
0.502607
1.53849e-06
0.502608
1.61717e-06
0.502608
1.69228e-06
0.502608
1.67514e-06
0.502609
1.57443e-06
0.502609
1.50993e-06
0.502609
1.56386e-06
0.502609
1.64442e-06
0.502609
1.58564e-06
0.502609
1.39817e-06
0.50261
1.30344e-06
0.50261
1.4686e-06
0.50261
1.80077e-06
0.50261
2.06191e-06
0.50261
2.12163e-06
0.502609
2.03822e-06
0.50261
1.9299e-06
0.50261
1.83111e-06
0.50261
1.68409e-06
0.50261
1.44399e-06
0.50261
1.17931e-06
0.50261
1.06564e-06
0.502611
1.24136e-06