/*--------------------------------*- C++ -*----------------------------------*\
| =========                 |                                                 |
| \\      /  F ield         | OpenFOAM: The Open Source CFD Toolbox           |
|  \\    /   O peration     | Version:  2406                                  |
|   \\  /    A nd           | Website:  www.openfoam.com                      |
|    \\/     M anipulation  |                                                 |
\*---------------------------------------------------------------------------*/
FoamFile
{
    version     2.0;
    format      ascii;
    arch        "LSB;label=32;scalar=64";
    class       volVectorField;
    location    "0.85";
    object      U;
}
// * * * * * * * * * * * * * * * * * * * * * * * * * * * * * * * * * * * * * //

dimensions      [0 1 -1 0 0 0 0];

internalField   nonuniform List<vector> 
6250
(
(49.5566 7.5126e-05 0)
(83.9405 0.000525071 0)
(72.0887 0.000739879 0)
(59.6649 0.000715065 0)
(58.8999 0.00069219 0)
(62.2871 0.000788835 0)
(63.7753 0.000896041 0)
(63.3375 0.00090146 0)
(62.7315 0.000850147 0)
(62.6293 0.000784997 0)
(62.7688 0.000742405 0)
(62.8516 0.000684899 0)
(62.8418 0.000714232 0)
(62.8127 0.000794866 0)
(62.8038 0.000853109 0)
(62.8085 0.000880436 0)
(62.8122 0.000873645 0)
(62.8116 0.000846863 0)
(62.8096 0.000813973 0)
(62.8084 0.000793997 0)
(62.8079 0.000822088 0)
(62.8073 0.000883657 0)
(62.8065 0.000910912 0)
(62.8058 0.000863952 0)
(62.8052 0.000780796 0)
(62.8047 0.000752941 0)
(62.804 0.000773805 0)
(62.8033 0.000745037 0)
(62.8027 0.000691666 0)
(62.8021 0.00068591 0)
(62.8013 0.000713633 0)
(62.8006 0.000741139 0)
(62.7999 0.000784814 0)
(62.7993 0.000865521 0)
(62.7985 0.000939463 0)
(62.7977 0.000962274 0)
(62.797 0.000946358 0)
(62.7963 0.000928708 0)
(62.7956 0.00093619 0)
(62.7949 0.000967396 0)
(62.7941 0.00100004 0)
(62.7935 0.00102118 0)
(62.7928 0.00102944 0)
(62.7921 0.00102304 0)
(62.7914 0.00101546 0)
(62.7908 0.00101726 0)
(62.79 0.00100566 0)
(62.7894 0.000968369 0)
(62.7888 0.000934594 0)
(62.7882 0.000925362 0)
(62.7875 0.000928576 0)
(62.7869 0.000931137 0)
(62.7863 0.000934903 0)
(62.7856 0.000942095 0)
(62.785 0.000946304 0)
(62.7844 0.000944823 0)
(62.7837 0.000945142 0)
(62.783 0.000944268 0)
(62.7823 0.000925149 0)
(62.7816 0.000886951 0)
(62.781 0.000845679 0)
(62.7802 0.000808832 0)
(62.7795 0.000785764 0)
(62.7789 0.000798025 0)
(62.7782 0.000846645 0)
(62.7775 0.00090668 0)
(62.7768 0.000965871 0)
(62.7762 0.00102405 0)
(62.7755 0.0010668 0)
(62.7748 0.00108543 0)
(62.7742 0.00109804 0)
(62.7736 0.00111876 0)
(62.7729 0.00113481 0)
(62.7723 0.00113244 0)
(62.7717 0.00111731 0)
(62.7711 0.001098 0)
(62.7705 0.00106753 0)
(62.7699 0.00101345 0)
(62.7693 0.00094243 0)
(62.7687 0.000878532 0)
(62.7682 0.000833947 0)
(62.7676 0.000798916 0)
(62.767 0.000763023 0)
(62.7664 0.000728165 0)
(62.7657 0.00069821 0)
(62.7651 0.000672323 0)
(62.7645 0.00065545 0)
(62.7639 0.000663203 0)
(62.7632 0.000700076 0)
(62.7625 0.000738302 0)
(62.7618 0.000743781 0)
(62.7611 0.000727315 0)
(62.7604 0.000738388 0)
(62.7598 0.000796912 0)
(62.759 0.000861435 0)
(62.7582 0.000882244 0)
(62.7575 0.000861619 0)
(62.7568 0.000841949 0)
(62.7561 0.000854238 0)
(62.7553 0.000896072 0)
(62.7546 0.00094505 0)
(62.7537 0.000979269 0)
(62.7529 0.000990291 0)
(62.7521 0.000986962 0)
(62.7513 0.000989877 0)
(62.7506 0.00101693 0)
(62.7498 0.00106706 0)
(62.749 0.00111761 0)
(62.7482 0.00114133 0)
(62.7474 0.00112836 0)
(62.7466 0.00109388 0)
(62.7458 0.00106444 0)
(62.7451 0.00105537 0)
(62.7444 0.00106138 0)
(62.7436 0.0010708 0)
(62.7429 0.00108164 0)
(62.7422 0.00109699 0)
(62.7414 0.00111432 0)
(62.7407 0.00112774 0)
(62.74 0.00113213 0)
(62.7392 0.00112312 0)
(62.7386 0.00110613 0)
(62.7379 0.00110211 0)
(62.7373 0.00112425 0)
(62.7366 0.0011507 0)
(62.7359 0.00114376 0)
(62.7352 0.00109779 0)
(62.7346 0.00104983 0)
(62.734 0.00103693 0)
(62.7333 0.00105474 0)
(62.7327 0.00106646 0)
(62.732 0.00104667 0)
(62.7313 0.0010057 0)
(62.7307 0.000971471 0)
(62.7301 0.000957057 0)
(62.7295 0.000952618 0)
(62.7289 0.000945053 0)
(62.7283 0.000935709 0)
(62.7277 0.000932954 0)
(62.7271 0.000932795 0)
(62.7265 0.000920357 0)
(62.7259 0.000895488 0)
(62.7253 0.000883457 0)
(62.7248 0.00090635 0)
(62.7242 0.00094833 0)
(62.7235 0.000963364 0)
(62.7228 0.000922037 0)
(62.7222 0.000844436 0)
(62.7217 0.000782708 0)
(62.7212 0.000772131 0)
(62.7207 0.000800842 0)
(62.7201 0.000826229 0)
(62.7195 0.000818403 0)
(62.719 0.000786846 0)
(62.7184 0.000764398 0)
(62.7178 0.000766869 0)
(62.7173 0.00077416 0)
(62.7167 0.000756088 0)
(62.7161 0.000711233 0)
(62.7156 0.000670932 0)
(62.7151 0.000665558 0)
(62.7146 0.000693921 0)
(62.714 0.000726764 0)
(62.7134 0.000736015 0)
(62.7128 0.000720261 0)
(62.7122 0.000702581 0)
(62.7117 0.000702662 0)
(62.7111 0.000714904 0)
(62.7105 0.00071983 0)
(62.7099 0.000712154 0)
(62.7093 0.000705734 0)
(62.7087 0.000712144 0)
(62.7081 0.000728279 0)
(62.7075 0.00074639 0)
(62.7069 0.00076271 0)
(62.7062 0.000771368 0)
(62.7055 0.000763097 0)
(62.7049 0.000740428 0)
(62.7043 0.000725542 0)
(62.7037 0.000739251 0)
(62.7031 0.000773568 0)
(62.7024 0.000797692 0)
(62.7017 0.000795878 0)
(62.7011 0.000789644 0)
(62.7004 0.000811718 0)
(62.6998 0.000863595 0)
(62.6991 0.00091164 0)
(62.6983 0.000925711 0)
(62.6976 0.000909684 0)
(62.697 0.000889628 0)
(62.6964 0.000883508 0)
(62.6958 0.000891987 0)
(62.6951 0.000911234 0)
(62.6945 0.000940045 0)
(62.6939 0.00097174 0)
(62.6932 0.000990667 0)
(62.6926 0.00098689 0)
(62.692 0.000970893 0)
(62.6914 0.000965989 0)
(62.6908 0.000984431 0)
(62.6903 0.00101345 0)
(62.6896 0.00102417 0)
(62.689 0.000994415 0)
(62.6884 0.000928642 0)
(62.6879 0.000858219 0)
(62.6874 0.000815804 0)
(62.6869 0.000805456 0)
(62.6865 0.000803467 0)
(62.686 0.000790612 0)
(62.6855 0.000773335 0)
(62.685 0.000765789 0)
(62.6845 0.000761299 0)
(62.684 0.000735938 0)
(62.6836 0.000678442 0)
(62.6832 0.000605355 0)
(62.6828 0.000543456 0)
(62.6824 0.000502152 0)
(62.6821 0.000468216 0)
(62.6817 0.000424336 0)
(62.6814 0.000365947 0)
(62.6812 0.000302256 0)
(62.681 0.000246994 0)
(62.6808 0.000207542 0)
(62.6806 0.000179424 0)
(62.6804 0.000152367 0)
(62.6802 0.000122493 0)
(62.6801 9.40891e-05 0)
(62.6799 6.89627e-05 0)
(62.6798 4.25788e-05 0)
(62.6797 1.51059e-05 0)
(62.6797 -2.82654e-06 0)
(62.6796 -3.92447e-06 0)
(62.6794 9.48079e-07 0)
(62.6793 -5.29172e-06 0)
(62.6793 -2.19139e-05 0)
(62.6792 -3.31852e-05 0)
(62.6791 -3.49797e-05 0)
(62.679 -4.49179e-05 0)
(62.679 -7.38032e-05 0)
(62.679 -9.96421e-05 0)
(62.679 -9.04724e-05 0)
(62.6789 -4.43642e-05 0)
(62.6788 7.77702e-07 0)
(62.6787 7.26233e-06 0)
(62.6786 -2.25841e-05 0)
(62.6786 -5.62815e-05 0)
(62.6786 -7.4044e-05 0)
(62.6785 -8.30122e-05 0)
(62.6785 -0.000106567 0)
(62.6784 -0.000127789 0)
(49.557 3.41654e-05 0)
(83.9416 0.000458078 0)
(72.0919 0.000719332 0)
(59.6689 0.000651457 0)
(58.9052 0.000495483 0)
(62.2929 0.000438827 0)
(63.7826 0.000470163 0)
(63.3458 0.000479561 0)
(62.7412 0.000478353 0)
(62.6398 0.000494683 0)
(62.7802 0.000554386 0)
(62.8637 0.000559011 0)
(62.8547 0.000545724 0)
(62.8269 0.000524552 0)
(62.8192 0.000501619 0)
(62.825 0.000515192 0)
(62.8298 0.000543386 0)
(62.8303 0.00057304 0)
(62.8295 0.000604163 0)
(62.8293 0.00061387 0)
(62.8298 0.000594631 0)
(62.8305 0.000568489 0)
(62.831 0.000528881 0)
(62.8314 0.000471638 0)
(62.8317 0.000415273 0)
(62.8319 0.000417184 0)
(62.8325 0.000521177 0)
(62.8328 0.000595493 0)
(62.833 0.000598422 0)
(62.8333 0.000622376 0)
(62.8337 0.000674408 0)
(62.8339 0.000688465 0)
(62.8341 0.000641189 0)
(62.8345 0.000592663 0)
(62.835 0.000559099 0)
(62.8354 0.000511504 0)
(62.8359 0.000465325 0)
(62.8363 0.000443351 0)
(62.8367 0.00043831 0)
(62.8371 0.000430055 0)
(62.8375 0.000404203 0)
(62.8379 0.00036848 0)
(62.8383 0.000341354 0)
(62.8387 0.000322902 0)
(62.8391 0.00031788 0)
(62.8396 0.000341663 0)
(62.8401 0.000366767 0)
(62.8404 0.000355619 0)
(62.8407 0.000329186 0)
(62.841 0.000322543 0)
(62.8413 0.000330895 0)
(62.8416 0.000335832 0)
(62.8419 0.000334644 0)
(62.8422 0.000332585 0)
(62.8425 0.000327576 0)
(62.8428 0.000319228 0)
(62.8432 0.000327243 0)
(62.8437 0.000367774 0)
(62.8441 0.000426723 0)
(62.8444 0.000490157 0)
(62.8448 0.000556101 0)
(62.8451 0.000597207 0)
(62.8455 0.000583212 0)
(62.8458 0.00053734 0)
(62.8462 0.0004966 0)
(62.8466 0.00045346 0)
(62.8469 0.000395961 0)
(62.8473 0.000340417 0)
(62.8477 0.000290279 0)
(62.848 0.000232279 0)
(62.8484 0.000176307 0)
(62.8487 0.000140863 0)
(62.8491 0.00011804 0)
(62.8495 9.47408e-05 0)
(62.8499 8.3165e-05 0)
(62.8502 0.000104896 0)
(62.8505 0.000157331 0)
(62.8508 0.000210621 0)
(62.8511 0.000243751 0)
(62.8514 0.00027136 0)
(62.8517 0.000318156 0)
(62.852 0.000383076 0)
(62.8523 0.000448091 0)
(62.8526 0.000504825 0)
(62.8529 0.000553984 0)
(62.8531 0.000587646 0)
(62.8533 0.000591888 0)
(62.8536 0.000575922 0)
(62.8539 0.00057767 0)
(62.8544 0.00061504 0)
(62.8548 0.000651389 0)
(62.8551 0.000644593 0)
(62.8554 0.000611453 0)
(62.8557 0.000601517 0)
(62.8561 0.000622491 0)
(62.8565 0.000635352 0)
(62.8569 0.000615602 0)
(62.8573 0.000581555 0)
(62.8577 0.000565481 0)
(62.8582 0.00058226 0)
(62.8586 0.000620562 0)
(62.8591 0.000649707 0)
(62.8596 0.000640035 0)
(62.86 0.00058651 0)
(62.8605 0.000515527 0)
(62.861 0.000467181 0)
(62.8615 0.000464526 0)
(62.862 0.000494571 0)
(62.8625 0.000520012 0)
(62.863 0.000511314 0)
(62.8634 0.000470325 0)
(62.8639 0.000426261 0)
(62.8644 0.00040651 0)
(62.8648 0.000409666 0)
(62.8652 0.000413302 0)
(62.8656 0.000404241 0)
(62.866 0.000385716 0)
(62.8664 0.000361636 0)
(62.8669 0.000335021 0)
(62.8674 0.000313301 0)
(62.8678 0.000295924 0)
(62.8681 0.000270662 0)
(62.8685 0.000238241 0)
(62.8688 0.000220716 0)
(62.8693 0.000228621 0)
(62.8697 0.000239528 0)
(62.87 0.000227129 0)
(62.8704 0.000199139 0)
(62.8707 0.000190108 0)
(62.871 0.000219102 0)
(62.8714 0.000265662 0)
(62.8718 0.00029294 0)
(62.8721 0.000287715 0)
(62.8723 0.000270174 0)
(62.8726 0.000266008 0)
(62.8729 0.000276663 0)
(62.8732 0.000282225 0)
(62.8735 0.000271884 0)
(62.8738 0.000261745 0)
(62.8742 0.000272277 0)
(62.8745 0.000294647 0)
(62.8747 0.000298699 0)
(62.8749 0.000276912 0)
(62.8752 0.000260895 0)
(62.8755 0.000283275 0)
(62.8759 0.000334091 0)
(62.8762 0.000367262 0)
(62.8764 0.000348927 0)
(62.8766 0.000292709 0)
(62.8768 0.000247048 0)
(62.8771 0.00025064 0)
(62.8774 0.00029914 0)
(62.8777 0.000352442 0)
(62.878 0.000375063 0)
(62.8781 0.00036965 0)
(62.8784 0.000367023 0)
(62.8786 0.000384657 0)
(62.8789 0.000405818 0)
(62.8792 0.00040368 0)
(62.8794 0.000375868 0)
(62.8796 0.000348237 0)
(62.8799 0.000349659 0)
(62.8802 0.00038601 0)
(62.8805 0.000435025 0)
(62.8807 0.000466933 0)
(62.8809 0.000472768 0)
(62.8811 0.00046792 0)
(62.8814 0.000466319 0)
(62.8817 0.000463059 0)
(62.8819 0.000449725 0)
(62.8822 0.000434114 0)
(62.8825 0.000431972 0)
(62.8828 0.000448048 0)
(62.8831 0.000476614 0)
(62.8835 0.000512163 0)
(62.8838 0.000546855 0)
(62.8841 0.000563713 0)
(62.8844 0.000548887 0)
(62.8846 0.000513218 0)
(62.8849 0.000489012 0)
(62.8853 0.000496526 0)
(62.8857 0.000519209 0)
(62.886 0.00052254 0)
(62.8863 0.000496952 0)
(62.8866 0.000469849 0)
(62.887 0.000469558 0)
(62.8874 0.000488638 0)
(62.8879 0.000493963 0)
(62.8882 0.000467039 0)
(62.8885 0.000421057 0)
(62.8888 0.000378616 0)
(62.8891 0.000346493 0)
(62.8894 0.000318977 0)
(62.8898 0.000296803 0)
(62.8902 0.000288819 0)
(62.8906 0.000294031 0)
(62.8909 0.000293766 0)
(62.8912 0.000269748 0)
(62.8915 0.000226331 0)
(62.8917 0.000189265 0)
(62.8921 0.00018228 0)
(62.8925 0.000204747 0)
(62.8928 0.000230118 0)
(62.8931 0.000229323 0)
(62.8932 0.000200404 0)
(62.8934 0.000171437 0)
(62.8936 0.000168668 0)
(62.8938 0.000187349 0)
(62.894 0.00020245 0)
(62.8942 0.000202164 0)
(62.8944 0.000198302 0)
(62.8946 0.000205589 0)
(62.8948 0.000223231 0)
(62.895 0.000239686 0)
(62.8951 0.000247325 0)
(62.8952 0.00024773 0)
(62.8952 0.000245784 0)
(62.8952 0.000243987 0)
(62.8952 0.000242632 0)
(62.8951 0.000240869 0)
(62.8951 0.000237217 0)
(62.8949 0.00023259 0)
(62.8948 0.000231634 0)
(62.8947 0.000236167 0)
(62.8945 0.000239412 0)
(62.8944 0.000233679 0)
(62.8942 0.000221345 0)
(62.894 0.000210312 0)
(62.8938 0.00020208 0)
(62.8935 0.000194279 0)
(62.8933 0.000191146 0)
(62.8932 0.000198773 0)
(62.893 0.000209788 0)
(62.8928 0.000207392 0)
(62.8925 0.00018957 0)
(62.8923 0.000177007 0)
(62.8921 0.000187668 0)
(62.8919 0.000208261 0)
(62.8916 0.000206074 0)
(62.8912 0.000171434 0)
(62.8909 0.000133886 0)
(62.8907 0.000130589 0)
(62.8905 0.00016038 0)
(62.8904 0.000185642 0)
(62.8901 0.000180012 0)
(62.8899 0.000157682 0)
(62.8896 0.000150969 0)
(62.8893 0.000167808 0)
(62.8891 0.00019166 0)
(62.8887 0.000204246 0)
(49.5566 4.86071e-06 0)
(83.9408 -3.69909e-05 0)
(72.0909 -9.08124e-06 0)
(59.6676 3.30623e-06 0)
(58.9036 9.34379e-07 0)
(62.2911 5.64637e-05 0)
(63.7802 0.000142298 0)
(63.3427 0.000205101 0)
(62.7378 0.000207369 0)
(62.6361 0.000155256 0)
(62.7763 0.000117322 0)
(62.8599 0.000105994 0)
(62.8506 9.7818e-05 0)
(62.8222 0.000114198 0)
(62.814 0.000130182 0)
(62.8193 0.00014289 0)
(62.8238 0.000126378 0)
(62.824 7.61064e-05 0)
(62.8229 4.01038e-05 0)
(62.8226 4.23195e-05 0)
(62.8229 3.71772e-05 0)
(62.8231 2.51827e-05 0)
(62.8232 5.76434e-05 0)
(62.8231 0.00011797 0)
(62.823 0.000137716 0)
(62.8229 8.43856e-05 0)
(62.8229 6.4912e-05 0)
(62.8231 0.000112824 0)
(62.8231 0.000154057 0)
(62.8232 0.000163808 0)
(62.8234 0.000167545 0)
(62.8237 0.000165627 0)
(62.8238 0.000125388 0)
(62.8239 8.25228e-05 0)
(62.824 8.68924e-05 0)
(62.8241 0.000114842 0)
(62.824 0.000136765 0)
(62.824 0.000152033 0)
(62.8239 0.000167603 0)
(62.8239 0.000184567 0)
(62.8239 0.000191984 0)
(62.8239 0.00018633 0)
(62.8239 0.000190826 0)
(62.8238 0.000210054 0)
(62.8237 0.000214378 0)
(62.8236 0.000209492 0)
(62.8236 0.00022599 0)
(62.8237 0.000255731 0)
(62.8237 0.000278959 0)
(62.8237 0.000298712 0)
(62.8238 0.000318357 0)
(62.8238 0.000330912 0)
(62.8239 0.000331879 0)
(62.8239 0.000325543 0)
(62.8239 0.000312406 0)
(62.8239 0.000280096 0)
(62.8239 0.000231512 0)
(62.8239 0.000196675 0)
(62.8239 0.000186205 0)
(62.8239 0.000179163 0)
(62.824 0.000167548 0)
(62.8241 0.00015222 0)
(62.8243 0.000120971 0)
(62.8244 9.00015e-05 0)
(62.8246 0.000106525 0)
(62.8247 0.000169837 0)
(62.8247 0.000229253 0)
(62.8247 0.00026748 0)
(62.8247 0.000304687 0)
(62.8246 0.000340798 0)
(62.8245 0.000362289 0)
(62.8245 0.000375117 0)
(62.8244 0.000390016 0)
(62.8242 0.000402648 0)
(62.8241 0.000405282 0)
(62.8239 0.000401457 0)
(62.8238 0.00039972 0)
(62.8237 0.000392592 0)
(62.8237 0.000357171 0)
(62.8236 0.00029158 0)
(62.8236 0.000228472 0)
(62.8236 0.000195536 0)
(62.8237 0.00018577 0)
(62.8237 0.00017925 0)
(62.8238 0.000174012 0)
(62.824 0.000176473 0)
(62.8241 0.00016855 0)
(62.8242 0.000118783 0)
(62.8243 4.15445e-05 0)
(62.8244 4.92845e-06 0)
(62.8246 4.69093e-05 0)
(62.8248 0.000118176 0)
(62.8249 0.000145924 0)
(62.825 0.000121852 0)
(62.825 8.94948e-05 0)
(62.8251 7.47616e-05 0)
(62.8253 6.89078e-05 0)
(62.8254 6.14182e-05 0)
(62.8255 5.6147e-05 0)
(62.8255 6.05035e-05 0)
(62.8255 7.43307e-05 0)
(62.8256 8.84826e-05 0)
(62.8257 9.29708e-05 0)
(62.8258 8.67455e-05 0)
(62.8259 7.77691e-05 0)
(62.8259 7.62564e-05 0)
(62.8258 8.85586e-05 0)
(62.8258 0.000112283 0)
(62.8258 0.000136222 0)
(62.8259 0.000148006 0)
(62.8259 0.000144198 0)
(62.826 0.000137125 0)
(62.826 0.000149028 0)
(62.826 0.000188392 0)
(62.8261 0.000234485 0)
(62.8261 0.00025885 0)
(62.8261 0.000255316 0)
(62.8261 0.000237218 0)
(62.8262 0.000222793 0)
(62.8262 0.000234447 0)
(62.8262 0.000284354 0)
(62.8263 0.000346465 0)
(62.8262 0.000371955 0)
(62.8261 0.00034804 0)
(62.8261 0.00031676 0)
(62.8261 0.000321539 0)
(62.8261 0.000355701 0)
(62.8261 0.000378325 0)
(62.826 0.000368886 0)
(62.8259 0.000348552 0)
(62.8259 0.000347562 0)
(62.8259 0.000366526 0)
(62.826 0.000380301 0)
(62.826 0.000373054 0)
(62.826 0.000356787 0)
(62.826 0.0003512 0)
(62.826 0.000352711 0)
(62.826 0.000337435 0)
(62.826 0.000300521 0)
(62.826 0.000276089 0)
(62.826 0.000298774 0)
(62.826 0.000353319 0)
(62.826 0.000385915 0)
(62.8259 0.000367181 0)
(62.8258 0.000325285 0)
(62.8258 0.000309658 0)
(62.8258 0.000332744 0)
(62.8259 0.000356977 0)
(62.826 0.000337063 0)
(62.826 0.000270551 0)
(62.826 0.000205525 0)
(62.826 0.000196775 0)
(62.826 0.00025112 0)
(62.8261 0.000317194 0)
(62.8261 0.00033516 0)
(62.8261 0.000295461 0)
(62.8261 0.000240943 0)
(62.8261 0.000213908 0)
(62.8262 0.000214511 0)
(62.8263 0.000213128 0)
(62.8264 0.000191241 0)
(62.8264 0.000163359 0)
(62.8264 0.000161349 0)
(62.8265 0.000198021 0)
(62.8265 0.000247455 0)
(62.8266 0.000268569 0)
(62.8266 0.000248456 0)
(62.8267 0.000211134 0)
(62.8268 0.000182855 0)
(62.8269 0.000165581 0)
(62.8269 0.000150742 0)
(62.827 0.000140063 0)
(62.827 0.000139229 0)
(62.8271 0.000144296 0)
(62.8271 0.000149189 0)
(62.8271 0.000158601 0)
(62.8273 0.000178054 0)
(62.8274 0.000194248 0)
(62.8275 0.000182338 0)
(62.8275 0.000139622 0)
(62.8275 9.97036e-05 0)
(62.8276 9.9054e-05 0)
(62.8278 0.000132931 0)
(62.8279 0.000159812 0)
(62.8279 0.000152779 0)
(62.8279 0.000130846 0)
(62.828 0.000130746 0)
(62.828 0.000160877 0)
(62.8281 0.000197848 0)
(62.8282 0.000221503 0)
(62.8283 0.000234657 0)
(62.8283 0.000245923 0)
(62.8283 0.000250379 0)
(62.8283 0.000240759 0)
(62.8282 0.000229647 0)
(62.8282 0.000242985 0)
(62.8283 0.000287875 0)
(62.8284 0.00033858 0)
(62.8284 0.000360817 0)
(62.8283 0.000345666 0)
(62.8282 0.000317516 0)
(62.8281 0.000312245 0)
(62.8281 0.000345364 0)
(62.8281 0.000395612 0)
(62.8281 0.000423114 0)
(62.8281 0.000410061 0)
(62.8281 0.000378627 0)
(62.8281 0.000361696 0)
(62.8281 0.000363269 0)
(62.8281 0.000359584 0)
(62.8281 0.000335416 0)
(62.8281 0.000305619 0)
(62.8281 0.000297256 0)
(62.8282 0.000318892 0)
(62.8282 0.000353182 0)
(62.8283 0.00037638 0)
(62.8284 0.000380235 0)
(62.8284 0.000374405 0)
(62.8285 0.000372677 0)
(62.8286 0.00038 0)
(62.8287 0.000389365 0)
(62.8287 0.000389719 0)
(62.8288 0.000379564 0)
(62.8289 0.000370008 0)
(62.8289 0.000369761 0)
(62.829 0.000373453 0)
(62.8291 0.00037279 0)
(62.8292 0.000371278 0)
(62.8293 0.000376471 0)
(62.8293 0.000384421 0)
(62.8293 0.000385235 0)
(62.8293 0.00038072 0)
(62.8294 0.000383573 0)
(62.8294 0.000396129 0)
(62.8294 0.000402643 0)
(62.8294 0.000393103 0)
(62.8294 0.00038529 0)
(62.8295 0.000406322 0)
(62.8296 0.000450301 0)
(62.8296 0.000474114 0)
(62.8296 0.00044856 0)
(62.8296 0.000397018 0)
(62.8295 0.000369312 0)
(62.8296 0.000382479 0)
(62.8296 0.000406723 0)
(62.8297 0.0004092 0)
(62.8297 0.00039552 0)
(62.8297 0.000388726 0)
(62.8297 0.00041127 0)
(62.8298 0.000415614 0)
(49.5571 3.85851e-05 0)
(83.9415 2.81399e-05 0)
(72.0907 0.000115315 0)
(59.6672 0.000286561 0)
(58.9029 0.000371339 0)
(62.2903 0.000366609 0)
(63.7798 0.000299897 0)
(63.3425 0.000259441 0)
(62.7376 0.000272098 0)
(62.636 0.000317382 0)
(62.7761 0.00038957 0)
(62.8596 0.000418369 0)
(62.8503 0.00039381 0)
(62.8222 0.000365762 0)
(62.8143 0.000341954 0)
(62.8196 0.00034683 0)
(62.824 0.000381549 0)
(62.8239 0.000405555 0)
(62.8226 0.000400697 0)
(62.8219 0.000391843 0)
(62.8221 0.000406584 0)
(62.8222 0.000425305 0)
(62.8222 0.000456328 0)
(62.8223 0.000507256 0)
(62.8223 0.000530978 0)
(62.8223 0.000482999 0)
(62.8222 0.000397279 0)
(62.8222 0.000350617 0)
(62.8221 0.000327712 0)
(62.8221 0.000287781 0)
(62.8222 0.000271751 0)
(62.8222 0.000301339 0)
(62.8222 0.00033763 0)
(62.8221 0.000363227 0)
(62.8221 0.000399162 0)
(62.8221 0.000433769 0)
(62.8222 0.000441928 0)
(62.8222 0.000431941 0)
(62.8222 0.000423023 0)
(62.8223 0.000421513 0)
(62.8224 0.000422053 0)
(62.8226 0.000418622 0)
(62.8227 0.000425289 0)
(62.8228 0.000444331 0)
(62.8229 0.000430934 0)
(62.8229 0.000367172 0)
(62.8229 0.000303736 0)
(62.823 0.000274403 0)
(62.823 0.000261922 0)
(62.8231 0.000250725 0)
(62.8232 0.000243982 0)
(62.8233 0.000244677 0)
(62.8233 0.000247099 0)
(62.8234 0.000248259 0)
(62.8235 0.000256442 0)
(62.8236 0.000273048 0)
(62.8236 0.000291601 0)
(62.8236 0.000320965 0)
(62.8236 0.000360257 0)
(62.8236 0.000371039 0)
(62.8236 0.000333991 0)
(62.8236 0.000285608 0)
(62.8236 0.00025689 0)
(62.8234 0.000247143 0)
(62.8233 0.000265404 0)
(62.8233 0.000313974 0)
(62.8234 0.000354308 0)
(62.8234 0.000357951 0)
(62.8236 0.000345886 0)
(62.8237 0.000340637 0)
(62.8239 0.000337099 0)
(62.824 0.0003343 0)
(62.8242 0.000346264 0)
(62.8244 0.000376665 0)
(62.8246 0.000407511 0)
(62.8248 0.000415791 0)
(62.825 0.000398723 0)
(62.8252 0.00037394 0)
(62.8253 0.000352448 0)
(62.8255 0.000332639 0)
(62.8255 0.000320184 0)
(62.8255 0.000325485 0)
(62.8255 0.000341319 0)
(62.8255 0.000344838 0)
(62.8254 0.000327636 0)
(62.8254 0.000312867 0)
(62.8253 0.000324204 0)
(62.8253 0.000341185 0)
(62.8253 0.000321147 0)
(62.8251 0.000271375 0)
(62.825 0.000254393 0)
(62.8249 0.000305082 0)
(62.8249 0.000382603 0)
(62.8249 0.000424059 0)
(62.8248 0.000411886 0)
(62.8248 0.000373945 0)
(62.8248 0.000349007 0)
(62.8248 0.000362824 0)
(62.8248 0.000412817 0)
(62.8247 0.000466756 0)
(62.8247 0.000487645 0)
(62.8246 0.000464246 0)
(62.8246 0.000418901 0)
(62.8247 0.00038907 0)
(62.8247 0.000397821 0)
(62.8247 0.000436792 0)
(62.8247 0.000475477 0)
(62.8247 0.000485873 0)
(62.8246 0.000461203 0)
(62.8247 0.000416851 0)
(62.8247 0.000374619 0)
(62.8247 0.000347282 0)
(62.8247 0.000339331 0)
(62.8247 0.000349841 0)
(62.8247 0.000364462 0)
(62.8247 0.000361083 0)
(62.8248 0.000335378 0)
(62.8249 0.000304046 0)
(62.8249 0.000280186 0)
(62.825 0.000268274 0)
(62.825 0.000278256 0)
(62.8251 0.000313635 0)
(62.8252 0.000348836 0)
(62.8253 0.000348214 0)
(62.8254 0.000309993 0)
(62.8255 0.000271468 0)
(62.8256 0.00026681 0)
(62.8257 0.000291801 0)
(62.8258 0.000314268 0)
(62.8259 0.000311926 0)
(62.826 0.000292584 0)
(62.826 0.000277718 0)
(62.8261 0.000275302 0)
(62.8262 0.000275153 0)
(62.8263 0.000268478 0)
(62.8264 0.000264001 0)
(62.8265 0.000275851 0)
(62.8266 0.000296695 0)
(62.8267 0.000299257 0)
(62.8267 0.000274747 0)
(62.8268 0.000255498 0)
(62.8269 0.000281561 0)
(62.827 0.000349859 0)
(62.8271 0.000411277 0)
(62.8272 0.000418538 0)
(62.8272 0.000369407 0)
(62.8272 0.00030338 0)
(62.8273 0.000262058 0)
(62.8274 0.000255074 0)
(62.8275 0.000261082 0)
(62.8275 0.000258368 0)
(62.8275 0.000252455 0)
(62.8275 0.00026936 0)
(62.8276 0.000318904 0)
(62.8276 0.000372056 0)
(62.8277 0.000385104 0)
(62.8277 0.000344333 0)
(62.8277 0.000278937 0)
(62.8277 0.000232449 0)
(62.8277 0.000227712 0)
(62.8277 0.000255343 0)
(62.8277 0.00028883 0)
(62.8277 0.000311247 0)
(62.8277 0.000327248 0)
(62.8276 0.00034615 0)
(62.8276 0.000360348 0)
(62.8276 0.000353126 0)
(62.8276 0.000324715 0)
(62.8276 0.000295386 0)
(62.8276 0.000282436 0)
(62.8276 0.000287494 0)
(62.8276 0.000306304 0)
(62.8276 0.000335208 0)
(62.8276 0.000363985 0)
(62.8275 0.000376864 0)
(62.8274 0.000369492 0)
(62.8274 0.000357093 0)
(62.8274 0.000356528 0)
(62.8274 0.000363235 0)
(62.8274 0.000355746 0)
(62.8274 0.000326011 0)
(62.8273 0.000296131 0)
(62.8273 0.000295219 0)
(62.8273 0.000323843 0)
(62.8273 0.00035318 0)
(62.8273 0.000359722 0)
(62.8272 0.000348435 0)
(62.8272 0.000337594 0)
(62.8271 0.00033252 0)
(62.8271 0.000324806 0)
(62.8271 0.00031206 0)
(62.8272 0.000304566 0)
(62.8272 0.0003084 0)
(62.8272 0.000311648 0)
(62.8273 0.00029754 0)
(62.8273 0.000268548 0)
(62.8273 0.000248326 0)
(62.8274 0.0002579 0)
(62.8275 0.000294165 0)
(62.8276 0.000331441 0)
(62.8277 0.000342524 0)
(62.8277 0.000322057 0)
(62.8278 0.000291628 0)
(62.8278 0.000276923 0)
(62.8279 0.000278799 0)
(62.828 0.000274748 0)
(62.8281 0.00025024 0)
(62.8281 0.000217632 0)
(62.8282 0.00019897 0)
(62.8283 0.000199635 0)
(62.8284 0.000205917 0)
(62.8284 0.000202904 0)
(62.8284 0.000188621 0)
(62.8284 0.000172639 0)
(62.8284 0.000165689 0)
(62.8285 0.00017122 0)
(62.8285 0.000183791 0)
(62.8285 0.000193635 0)
(62.8285 0.000194486 0)
(62.8285 0.000188935 0)
(62.8285 0.000184233 0)
(62.8285 0.000182025 0)
(62.8285 0.000177502 0)
(62.8285 0.000170426 0)
(62.8284 0.000168239 0)
(62.8284 0.000174011 0)
(62.8284 0.000181003 0)
(62.8284 0.000184396 0)
(62.8285 0.000188314 0)
(62.8285 0.000195341 0)
(62.8285 0.000199197 0)
(62.8285 0.000195576 0)
(62.8285 0.000193002 0)
(62.8286 0.000202699 0)
(62.8286 0.000218487 0)
(62.8286 0.000217516 0)
(62.8286 0.000188425 0)
(62.8286 0.000152145 0)
(62.8286 0.000142146 0)
(62.8287 0.000163895 0)
(62.8288 0.000186777 0)
(62.8289 0.000181424 0)
(62.8289 0.000154335 0)
(62.8289 0.000135072 0)
(62.8289 0.000137142 0)
(62.829 0.000145327 0)
(62.829 0.000140803 0)
(62.829 0.000125196 0)
(62.829 0.000113071 0)
(62.829 0.000111267 0)
(49.557 3.08111e-05 0)
(83.9416 7.72853e-05 0)
(72.0911 9.37294e-05 0)
(59.668 0.000127494 0)
(58.904 0.000153997 0)
(62.2913 0.000156226 0)
(63.7806 0.000159297 0)
(63.3432 0.000174864 0)
(62.7382 0.000130781 0)
(62.6364 8.91319e-05 0)
(62.7765 0.000101504 0)
(62.86 0.000147025 0)
(62.8505 0.000170685 0)
(62.8221 0.000160024 0)
(62.814 0.000145851 0)
(62.8192 0.000145623 0)
(62.8239 0.000175257 0)
(62.824 0.00019775 0)
(62.823 0.000200597 0)
(62.8225 0.000196461 0)
(62.8229 0.000173433 0)
(62.8232 0.000116881 0)
(62.8233 4.70699e-05 0)
(62.8233 4.54942e-05 0)
(62.8236 0.00012992 0)
(62.8237 0.000211817 0)
(62.8237 0.000226627 0)
(62.8238 0.00022342 0)
(62.8239 0.000222147 0)
(62.8238 0.000190894 0)
(62.8238 0.000155308 0)
(62.8238 0.000151543 0)
(62.8238 0.000175612 0)
(62.8239 0.00018561 0)
(62.8239 0.000169001 0)
(62.824 0.000151748 0)
(62.824 0.000151816 0)
(62.8241 0.000154317 0)
(62.8241 0.00012233 0)
(62.8241 5.99739e-05 0)
(62.8241 1.77102e-05 0)
(62.8241 1.25049e-05 0)
(62.8241 2.8562e-05 0)
(62.8242 6.95617e-05 0)
(62.8243 0.000127272 0)
(62.8243 0.000167631 0)
(62.8242 0.000182632 0)
(62.8242 0.000185433 0)
(62.8241 0.000178963 0)
(62.824 0.000170337 0)
(62.824 0.000175892 0)
(62.8239 0.000200309 0)
(62.8239 0.000225585 0)
(62.8238 0.000228806 0)
(62.8238 0.000215175 0)
(62.8238 0.000206061 0)
(62.8237 0.000201938 0)
(62.8237 0.000199796 0)
(62.8237 0.000212776 0)
(62.8238 0.00023445 0)
(62.8239 0.000242779 0)
(62.8239 0.000249606 0)
(62.8239 0.000272243 0)
(62.8239 0.00028278 0)
(62.8239 0.00025502 0)
(62.8239 0.000207569 0)
(62.8239 0.000158368 0)
(62.8239 0.000104241 0)
(62.8239 5.69929e-05 0)
(62.8239 3.65038e-05 0)
(62.8239 3.5856e-05 0)
(62.8238 3.3951e-05 0)
(62.8237 2.54621e-05 0)
(62.8237 1.96779e-05 0)
(62.8237 2.20786e-05 0)
(62.8237 2.4652e-05 0)
(62.8237 2.05205e-05 0)
(62.8237 2.32866e-05 0)
(62.8237 5.06493e-05 0)
(62.8237 9.671e-05 0)
(62.8237 0.000143029 0)
(62.8237 0.000184741 0)
(62.8238 0.000227674 0)
(62.8238 0.000266222 0)
(62.8239 0.000279249 0)
(62.8239 0.000259458 0)
(62.824 0.000235679 0)
(62.8241 0.000239002 0)
(62.8242 0.000256783 0)
(62.8243 0.000255227 0)
(62.8243 0.000236472 0)
(62.8244 0.000231488 0)
(62.8244 0.000242964 0)
(62.8245 0.000238198 0)
(62.8246 0.000198752 0)
(62.8247 0.000144268 0)
(62.8248 0.000108279 0)
(62.8249 0.000110584 0)
(62.8249 0.000145637 0)
(62.825 0.000184169 0)
(62.8251 0.000192619 0)
(62.8252 0.000159339 0)
(62.8253 0.000103924 0)
(62.8254 6.31038e-05 0)
(62.8255 6.40393e-05 0)
(62.8256 0.000103881 0)
(62.8256 0.000152755 0)
(62.8257 0.000177652 0)
(62.8258 0.000167285 0)
(62.8259 0.000140039 0)
(62.826 0.00012648 0)
(62.8261 0.000139156 0)
(62.8261 0.000164537 0)
(62.8261 0.000184104 0)
(62.8261 0.000188167 0)
(62.8261 0.000172482 0)
(62.8261 0.000143998 0)
(62.8262 0.000124708 0)
(62.8262 0.000127242 0)
(62.8261 0.000136827 0)
(62.8261 0.000136525 0)
(62.826 0.000133638 0)
(62.826 0.0001416 0)
(62.8261 0.00015235 0)
(62.8261 0.000147501 0)
(62.826 0.000128616 0)
(62.826 0.000120038 0)
(62.826 0.000140332 0)
(62.826 0.0001789 0)
(62.826 0.000206462 0)
(62.826 0.000206245 0)
(62.826 0.000189068 0)
(62.826 0.000177075 0)
(62.826 0.000177343 0)
(62.826 0.000176243 0)
(62.8259 0.000161761 0)
(62.8259 0.000145046 0)
(62.826 0.000147762 0)
(62.826 0.000169072 0)
(62.8261 0.000182636 0)
(62.826 0.000172585 0)
(62.826 0.000157372 0)
(62.826 0.00016708 0)
(62.8261 0.00020497 0)
(62.8261 0.000240753 0)
(62.8262 0.000240217 0)
(62.8262 0.000197962 0)
(62.8262 0.000142735 0)
(62.8263 0.000112963 0)
(62.8263 0.000124925 0)
(62.8264 0.000161422 0)
(62.8264 0.000191954 0)
(62.8263 0.000204425 0)
(62.8263 0.00021207 0)
(62.8264 0.000228136 0)
(62.8264 0.000243752 0)
(62.8265 0.000238412 0)
(62.8266 0.000206218 0)
(62.8266 0.000165214 0)
(62.8267 0.000143661 0)
(62.8267 0.000157976 0)
(62.8268 0.000199046 0)
(62.8268 0.000240408 0)
(62.8269 0.000263606 0)
(62.8269 0.000271243 0)
(62.827 0.000271517 0)
(62.827 0.000261034 0)
(62.8271 0.00023408 0)
(62.8272 0.000199902 0)
(62.8272 0.000176613 0)
(62.8273 0.000172073 0)
(62.8273 0.000182384 0)
(62.8274 0.000204194 0)
(62.8275 0.000234967 0)
(62.8276 0.00026245 0)
(62.8276 0.000267819 0)
(62.8277 0.000245799 0)
(62.8277 0.000214836 0)
(62.8278 0.000199034 0)
(62.8279 0.000201139 0)
(62.828 0.000201733 0)
(62.8281 0.000187695 0)
(62.8281 0.000171905 0)
(62.8282 0.000176316 0)
(62.8283 0.000202155 0)
(62.8284 0.000228718 0)
(62.8285 0.000239751 0)
(62.8285 0.00023909 0)
(62.8285 0.000237402 0)
(62.8286 0.000234031 0)
(62.8286 0.000221011 0)
(62.8286 0.0002007 0)
(62.8286 0.000188057 0)
(62.8286 0.00019168 0)
(62.8286 0.000200445 0)
(62.8286 0.000195605 0)
(62.8285 0.000172652 0)
(62.8284 0.000146642 0)
(62.8284 0.000138246 0)
(62.8284 0.000155988 0)
(62.8284 0.00018809 0)
(62.8283 0.000211376 0)
(62.8283 0.000213448 0)
(62.8282 0.000205441 0)
(62.8282 0.00020656 0)
(62.8282 0.000218658 0)
(62.8281 0.000225789 0)
(62.8281 0.000217824 0)
(62.8281 0.000203709 0)
(62.8281 0.000199351 0)
(62.8281 0.000210499 0)
(62.8281 0.000230617 0)
(62.8281 0.000250518 0)
(62.8281 0.000266223 0)
(62.8281 0.000279133 0)
(62.828 0.000292091 0)
(62.828 0.000306142 0)
(62.828 0.000319112 0)
(62.8281 0.000326684 0)
(62.8281 0.000327343 0)
(62.8281 0.000325909 0)
(62.8281 0.000327439 0)
(62.8281 0.00032843 0)
(62.8282 0.000321599 0)
(62.8282 0.000308566 0)
(62.8283 0.000298042 0)