/*--------------------------------*- C++ -*----------------------------------*\
| =========                 |                                                 |
| \\      /  F ield         | OpenFOAM: The Open Source CFD Toolbox           |
|  \\    /   O peration     | Version:  2406                                  |
|   \\  /    A nd           | Website:  www.openfoam.com                      |
|    \\/     M anipulation  |                                                 |
\*---------------------------------------------------------------------------*/
FoamFile
{
    version     2.0;
    format      ascii;
    arch        "LSB;label=32;scalar=64";
    class       surfaceScalarField;
    location    "0.1";
    object      phi;
}
// * * * * * * * * * * * * * * * * * * * * * * * * * * * * * * * * * * * * * //

dimensions      [0 3 -1 0 0 0 0];

oriented        oriented;

internalField   nonuniform List<scalar> 
4335
(
2.94618e-05
-6.76561e-09
2.94673e-05
-5.42296e-09
2.94714e-05
-4.10301e-09
2.94748e-05
-3.41052e-09
2.9478e-05
-3.18251e-09
2.94812e-05
-3.18367e-09
2.94845e-05
-3.30688e-09
2.94879e-05
-3.45605e-09
2.94915e-05
-3.60648e-09
2.94952e-05
-3.66375e-09
2.94989e-05
-3.70343e-09
2.95025e-05
-3.65534e-09
2.95061e-05
-3.51372e-09
2.95094e-05
-3.33999e-09
2.95125e-05
-3.08077e-09
2.95153e-05
-2.7643e-09
2.95177e-05
-2.43109e-09
2.95198e-05
-2.08498e-09
2.95216e-05
-1.73756e-09
2.95231e-05
-1.42422e-09
2.95242e-05
-1.15311e-09
2.95251e-05
-9.03298e-10
2.95258e-05
-6.80817e-10
2.95263e-05
-5.08453e-10
2.95266e-05
-3.74792e-10
2.95269e-05
-2.54185e-10
2.95271e-05
-1.5332e-10
2.95272e-05
-9.22833e-11
2.95272e-05
-6.46079e-11
2.95272e-05
-4.26231e-11
2.95272e-05
-1.66403e-11
2.95272e-05
4.11854e-12
2.95272e-05
1.44701e-11
2.95271e-05
2.13855e-11
2.95271e-05
3.52487e-11
2.95271e-05
5.6486e-11
2.9527e-05
7.49756e-11
2.95269e-05
8.36722e-11
2.95268e-05
8.76108e-11
2.95267e-05
9.74731e-11
2.95266e-05
1.15833e-10
2.95265e-05
1.33126e-10
2.95264e-05
1.38422e-10
2.95262e-05
1.30435e-10
2.95261e-05
1.15585e-10
2.9526e-05
9.83116e-11
2.9526e-05
7.61088e-11
2.95259e-05
4.40656e-11
2.95259e-05
3.33151e-12
2.9526e-05
-4.14582e-11
2.95261e-05
-8.62111e-11
2.95262e-05
-1.32433e-10
2.95264e-05
-1.84231e-10
2.95266e-05
-2.42533e-10
2.95269e-05
-3.03349e-10
2.95273e-05
-3.61218e-10
2.95277e-05
-4.13184e-10
2.95282e-05
-4.59178e-10
2.95287e-05
-4.99337e-10
2.95292e-05
-5.31819e-10
2.95297e-05
-5.53564e-10
2.95303e-05
-5.62604e-10
2.95308e-05
-5.58654e-10
2.95313e-05
-5.41362e-10
2.95319e-05
-5.09215e-10
2.95323e-05
-4.6126e-10
2.95327e-05
-3.99429e-10
2.95331e-05
-3.28146e-10
2.95333e-05
-2.51778e-10
2.95335e-05
-1.73273e-10
2.95336e-05
-9.4979e-11
2.95336e-05
-1.89759e-11
2.95336e-05
5.14966e-11
2.95335e-05
1.14528e-10
2.95333e-05
1.66224e-10
2.95331e-05
2.02762e-10
2.95329e-05
2.23022e-10
2.95326e-05
2.29695e-10
2.95324e-05
2.26058e-10
2.95322e-05
2.12373e-10
2.9532e-05
1.87093e-10
2.95319e-05
1.51112e-10
2.95318e-05
1.08447e-10
2.95317e-05
6.22947e-11
2.95317e-05
1.23986e-11
2.95317e-05
-4.23491e-11
2.95318e-05
-1.00872e-10
2.9532e-05
-1.59052e-10
2.95322e-05
-2.1204e-10
2.95324e-05
-2.55287e-10
2.95327e-05
-2.85207e-10
2.9533e-05
-3.00279e-10
2.95333e-05
-3.00494e-10
2.95336e-05
-2.84563e-10
2.95339e-05
-2.49015e-10
2.95341e-05
-1.91548e-10
2.95342e-05
-1.12843e-10
2.95342e-05
-2.01492e-11
2.95341e-05
8.68739e-11
2.95339e-05
2.03677e-10
2.95336e-05
3.2414e-10
2.95331e-05
4.41545e-10
2.95326e-05
5.5137e-10
2.95319e-05
6.48881e-10
2.95312e-05
7.27049e-10
2.95304e-05
7.81738e-10
2.95296e-05
8.16247e-10
2.95288e-05
8.34301e-10
2.95279e-05
8.30447e-10
2.95271e-05
7.954e-10
2.95264e-05
7.30529e-10
2.95257e-05
6.48383e-10
2.95252e-05
5.57793e-10
2.95247e-05
4.57641e-10
2.95244e-05
3.48233e-10
2.95241e-05
2.39451e-10
2.9524e-05
1.42186e-10
2.95239e-05
5.82182e-11
2.95239e-05
-1.40097e-11
2.9524e-05
-7.61857e-11
2.95241e-05
-1.26611e-10
2.95243e-05
-1.65876e-10
2.95245e-05
-1.94363e-10
2.95247e-05
-2.10417e-10
2.95249e-05
-2.13285e-10
2.95251e-05
-2.04985e-10
2.95253e-05
-1.87679e-10
2.95255e-05
-1.62817e-10
2.95256e-05
-1.34594e-10
2.95258e-05
-1.0971e-10
2.95258e-05
-9.07732e-11
2.95259e-05
-7.35473e-11
2.9526e-05
-5.37053e-11
2.9526e-05
-3.27568e-11
2.9526e-05
-1.38626e-11
2.9526e-05
4.84265e-12
2.9526e-05
2.55161e-11
2.95259e-05
4.10855e-11
2.95259e-05
4.26151e-11
2.95259e-05
3.48617e-11
2.95258e-05
2.86052e-11
2.95258e-05
2.65636e-11
2.95258e-05
1.6951e-11
2.95258e-05
-7.11764e-12
2.95258e-05
-4.47918e-11
2.95259e-05
-1.11489e-10
2.95262e-05
-2.29459e-10
2.95266e-05
-4.22926e-10
2.95273e-05
-7.32954e-10
-1.20455e-09
7.75614e-05
-1.51486e-08
7.75694e-05
-1.34475e-08
7.75773e-05
-1.19809e-08
7.75851e-05
-1.11603e-08
7.75928e-05
-1.09452e-08
7.76007e-05
-1.10652e-08
7.76088e-05
-1.14096e-08
7.76172e-05
-1.18199e-08
7.76258e-05
-1.21886e-08
7.76345e-05
-1.24231e-08
7.76432e-05
-1.24442e-08
7.76518e-05
-1.22461e-08
7.76601e-05
-1.17937e-08
7.76678e-05
-1.11102e-08
7.7675e-05
-1.0236e-08
7.76815e-05
-9.23098e-09
7.76871e-05
-8.1347e-09
7.76921e-05
-6.99641e-09
7.76962e-05
-5.89035e-09
7.76996e-05
-4.86097e-09
7.77024e-05
-3.91798e-09
7.77045e-05
-3.07358e-09
7.77062e-05
-2.34547e-09
7.77074e-05
-1.74013e-09
7.77083e-05
-1.24733e-09
7.77089e-05
-8.55232e-10
7.77093e-05
-5.61486e-10
7.77096e-05
-3.57249e-10
7.77097e-05
-2.13812e-10
7.77097e-05
-1.00382e-10
7.77097e-05
-8.51789e-12
7.77097e-05
5.91066e-11
7.77096e-05
1.08666e-10
7.77095e-05
1.5386e-10
7.77093e-05
2.00745e-10
7.77092e-05
2.46339e-10
7.77089e-05
2.89909e-10
7.77087e-05
3.36079e-10
7.77084e-05
3.86013e-10
7.77081e-05
4.3291e-10
7.77078e-05
4.67511e-10
7.77075e-05
4.83485e-10
7.77072e-05
4.77291e-10
7.77069e-05
4.47317e-10
7.77066e-05
3.94847e-10
7.77064e-05
3.2306e-10
7.77062e-05
2.3276e-10
7.77061e-05
1.20588e-10
7.77062e-05
-1.51079e-11
7.77063e-05
-1.73251e-10
7.77066e-05
-3.46835e-10
7.7707e-05
-5.30685e-10
7.77075e-05
-7.23145e-10
7.77082e-05
-9.23074e-10
7.7709e-05
-1.12597e-09
7.771e-05
-1.32371e-09
7.77111e-05
-1.5072e-09
7.77123e-05
-1.66895e-09
7.77136e-05
-1.8035e-09
7.77149e-05
-1.9058e-09
7.77163e-05
-1.96936e-09
7.77177e-05
-1.98669e-09
7.77191e-05
-1.95191e-09
7.77204e-05
-1.86319e-09
7.77216e-05
-1.72283e-09
7.77227e-05
-1.53635e-09
7.77236e-05
-1.31198e-09
7.77243e-05
-1.0602e-09
7.77249e-05
-7.92131e-10
7.77252e-05
-5.18001e-10
7.77254e-05
-2.47403e-10
7.77254e-05
9.2167e-12
7.77252e-05
2.42033e-10
7.77249e-05
4.43328e-10
7.77244e-05
6.07159e-10
7.77239e-05
7.27385e-10
7.77233e-05
7.98093e-10
7.77227e-05
8.17751e-10
7.77221e-05
7.91512e-10
7.77216e-05
7.27388e-10
7.77212e-05
6.30715e-10
7.77208e-05
5.03955e-10
7.77206e-05
3.51186e-10
7.77205e-05
1.79714e-10
7.77205e-05
-1.68467e-12
7.77206e-05
-1.87666e-10
7.77209e-05
-3.73236e-10
7.77213e-05
-5.52507e-10
7.77218e-05
-7.17626e-10
7.77224e-05
-8.58418e-10
7.77231e-05
-9.62061e-10
7.77238e-05
-1.01536e-09
7.77246e-05
-1.00916e-09
7.77252e-05
-9.3973e-10
7.77258e-05
-8.0555e-10
7.77262e-05
-6.05545e-10
7.77264e-05
-3.41769e-10
7.77265e-05
-2.46562e-11
7.77262e-05
3.35899e-10
7.77257e-05
7.26321e-10
7.77249e-05
1.13091e-09
7.77238e-05
1.5304e-09
7.77224e-05
1.90633e-09
7.77208e-05
2.24321e-09
7.7719e-05
2.52366e-09
7.77171e-05
2.72735e-09
7.77151e-05
2.84158e-09
7.7713e-05
2.86925e-09
7.7711e-05
2.81933e-09
7.77091e-05
2.69301e-09
7.77073e-05
2.48814e-09
7.77057e-05
2.21508e-09
7.77044e-05
1.89733e-09
7.77033e-05
1.55541e-09
7.77024e-05
1.19962e-09
7.77019e-05
8.40397e-10
7.77015e-05
4.95705e-10
7.77014e-05
1.83607e-10
7.77014e-05
-8.54166e-11
7.77017e-05
-3.0774e-10
7.7702e-05
-4.80037e-10
7.77025e-05
-6.02122e-10
7.7703e-05
-6.78582e-10
7.77035e-05
-7.1614e-10
7.7704e-05
-7.21435e-10
7.77045e-05
-7.01561e-10
7.7705e-05
-6.6252e-10
7.77054e-05
-6.05919e-10
7.77058e-05
-5.31581e-10
7.77061e-05
-4.45056e-10
7.77064e-05
-3.57747e-10
7.77066e-05
-2.7728e-10
7.77068e-05
-2.02752e-10
7.77069e-05
-1.32737e-10
7.77069e-05
-7.22998e-11
7.7707e-05
-2.61631e-11
7.77069e-05
1.57114e-11
7.77069e-05
5.98536e-11
7.77068e-05
9.80568e-11
7.77068e-05
1.12445e-10
7.77067e-05
9.92097e-11
7.77067e-05
6.67217e-11
7.77067e-05
1.28077e-11
7.77067e-05
-8.09335e-11
7.77069e-05
-2.38256e-10
7.77073e-05
-4.86734e-10
7.77079e-05
-8.59892e-10
7.77089e-05
-1.3929e-09
7.77102e-05
-2.07197e-09
-2.8239e-09
0.00011601
-2.14817e-08
0.000116017
-1.99513e-08
0.000116024
-1.92348e-08
0.000116032
-1.90658e-08
0.00011604
-1.92568e-08
0.000116049
-1.97706e-08
0.000116058
-2.04398e-08
0.000116067
-2.12235e-08
0.000116077
-2.18232e-08
0.000116087
-2.21812e-08
0.000116097
-2.22368e-08
0.000116106
-2.18348e-08
0.000116115
-2.10143e-08
0.000116124
-1.98275e-08
0.000116132
-1.83001e-08
0.000116139
-1.65123e-08
0.000116146
-1.45881e-08
0.000116152
-1.26186e-08
0.000116156
-1.06753e-08
0.00011616
-8.82191e-09
0.000116163
-7.11625e-09
0.000116166
-5.60452e-09
0.000116168
-4.29997e-09
0.000116169
-3.19661e-09
0.00011617
-2.29445e-09
0.000116171
-1.58885e-09
0.000116172
-1.05413e-09
0.000116172
-6.52772e-10
0.000116172
-3.51048e-10
0.000116172
-1.22596e-10
0.000116172
4.73493e-11
0.000116172
1.7606e-10
0.000116172
2.80436e-10
0.000116172
3.74878e-10
0.000116171
4.63772e-10
0.000116171
5.47494e-10
0.000116171
6.3215e-10
0.00011617
7.25435e-10
0.00011617
8.23214e-10
0.00011617
9.07709e-10
0.000116169
9.61247e-10
0.000116169
9.7745e-10
0.000116168
9.5758e-10
0.000116168
9.00668e-10
0.000116167
8.01329e-10
0.000116167
6.55586e-10
0.000116167
4.64693e-10
0.000116167
2.32531e-10
0.000116167
-3.86937e-11
0.000116167
-3.4858e-10
0.000116167
-6.93275e-10
0.000116168
-1.06411e-09
0.000116168
-1.44985e-09
0.000116169
-1.84029e-09
0.00011617
-2.22725e-09
0.000116172
-2.60223e-09
0.000116173
-2.95325e-09
0.000116175
-3.26419e-09
0.000116176
-3.51762e-09
0.000116178
-3.69843e-09
0.00011618
-3.79478e-09
0.000116182
-3.79735e-09
0.000116184
-3.69971e-09
0.000116185
-3.50089e-09
0.000116187
-3.20689e-09
0.000116188
-2.82946e-09
0.000116189
-2.38402e-09
0.00011619
-1.88872e-09
0.00011619
-1.36388e-09
0.000116191
-8.30556e-10
0.000116191
-3.09125e-10
0.000116191
1.80585e-10
0.00011619
6.19611e-10
0.00011619
9.9175e-10
0.000116189
1.28604e-09
0.000116188
1.49584e-09
0.000116187
1.61597e-09
0.000116187
1.64306e-09
0.000116186
1.57976e-09
0.000116185
1.43672e-09
0.000116185
1.22854e-09
0.000116184
9.67947e-10
0.000116184
6.65036e-10
0.000116184
3.30373e-10
0.000116184
-2.30158e-11
0.000116184
-3.82391e-10
0.000116184
-7.35423e-10
0.000116185
-1.0698e-09
0.000116185
-1.37228e-09
0.000116186
-1.62841e-09
0.000116187
-1.82119e-09
0.000116188
-1.93024e-09
0.000116189
-1.9354e-09
0.00011619
-1.82251e-09
0.000116191
-1.58529e-09
0.000116191
-1.22284e-09
0.000116192
-7.39598e-10
0.000116192
-1.48865e-10
0.000116191
5.2793e-10
0.000116191
1.26362e-09
0.00011619
2.02784e-09
0.000116189
2.78537e-09
0.000116187
3.49883e-09
0.000116185
4.13607e-09
0.000116183
4.67112e-09
0.000116181
5.07711e-09
0.000116178
5.32624e-09
0.000116176
5.40312e-09
0.000116173
5.31305e-09
0.000116171
5.07139e-09
0.000116169
4.6904e-09
0.000116167
4.18415e-09
0.000116165
3.58117e-09
0.000116164
2.92123e-09
0.000116163
2.23986e-09
0.000116162
1.56305e-09
0.000116161
9.14769e-10
0.000116161
3.20143e-10
0.000116161
-2.00709e-10
0.000116162
-6.36259e-10
0.000116162
-9.80102e-10
0.000116163
-1.22967e-09
0.000116164
-1.38853e-09
0.000116164
-1.46609e-09
0.000116165
-1.4742e-09
0.000116166
-1.42616e-09
0.000116167
-1.33702e-09
0.000116167
-1.21999e-09
0.000116168
-1.0823e-09
0.000116168
-9.28286e-10
0.000116169
-7.65997e-10
0.000116169
-6.05837e-10
0.000116169
-4.52988e-10
0.000116169
-3.073e-10
0.000116169
-1.72973e-10
0.000116169
-6.09333e-11
0.000116169
2.52423e-11
0.000116169
9.41861e-11
0.000116169
1.51735e-10
0.000116169
1.87583e-10
0.000116169
1.85003e-10
0.000116169
1.34088e-10
0.000116169
2.75839e-11
0.000116169
-1.5626e-10
0.000116169
-4.48421e-10
0.00011617
-8.79776e-10
0.00011617
-1.49358e-09
0.000116171
-2.31502e-09
0.000116173
-3.27817e-09
-4.15365e-09
0.000145885
-2.41795e-08
0.000145888
-2.28056e-08
0.000145892
-2.28558e-08
0.000145896
-2.35208e-08
0.000145901
-2.43129e-08
0.000145907
-2.52593e-08
0.000145913
-2.63083e-08
0.000145919
-2.73033e-08
0.000145925
-2.81594e-08
0.000145932
-2.86421e-08
0.000145938
-2.8662e-08
0.000145944
-2.81723e-08
0.000145951
-2.71756e-08
0.000145956
-2.56792e-08
0.000145962
-2.37451e-08
0.000145967
-2.14914e-08
0.000145971
-1.90439e-08
0.000145975
-1.65047e-08
0.000145978
-1.39793e-08
0.000145981
-1.15705e-08
0.000145983
-9.35544e-09
0.000145985
-7.38416e-09
0.000145987
-5.67654e-09
0.000145988
-4.23069e-09
0.000145988
-3.04209e-09
0.000145989
-2.09903e-09
0.000145989
-1.36859e-09
0.000145989
-8.07168e-10
0.000145989
-3.79646e-10
0.000145989
-5.93047e-11
0.000145989
1.79726e-10
0.000145989
3.64543e-10
0.000145989
5.17705e-10
0.000145988
6.56161e-10
0.000145988
7.91181e-10
0.000145988
9.28433e-10
0.000145987
1.06909e-09
0.000145987
1.21019e-09
0.000145986
1.34257e-09
0.000145986
1.45082e-09
0.000145985
1.51904e-09
0.000145985
1.53807e-09
0.000145984
1.50555e-09
0.000145983
1.41899e-09
0.000145983
1.27081e-09
0.000145983
1.05188e-09
0.000145982
7.59043e-10
0.000145982
3.97231e-10
0.000145982
-2.52475e-11
0.000145982
-5.01686e-10
0.000145983
-1.02521e-09
0.000145983
-1.58484e-09
0.000145984
-2.1648e-09
0.000145985
-2.7483e-09
0.000145986
-3.32087e-09
0.000145987
-3.86948e-09
0.000145989
-4.37813e-09
0.00014599
-4.82468e-09
0.000145992
-5.1824e-09
0.000145993
-5.42559e-09
0.000145995
-5.53474e-09
0.000145997
-5.49811e-09
0.000145998
-5.31108e-09
0.000146
-4.97629e-09
0.000146001
-4.50437e-09
0.000146002
-3.91329e-09
0.000146003
-3.22622e-09
0.000146004
-2.47019e-09
0.000146004
-1.67587e-09
0.000146004
-8.76297e-10
0.000146004
-1.03734e-10
0.000146004
6.12559e-10
0.000146003
1.2463e-09
0.000146002
1.77409e-09
0.000146001
2.17796e-09
0.000146
2.44817e-09
0.000145999
2.5823e-09
0.000145998
2.58214e-09
0.000145997
2.45339e-09
0.000145997
2.20849e-09
0.000145996
1.8673e-09
0.000145996
1.45273e-09
0.000145995
9.85464e-10
0.000145995
4.82964e-10
0.000145995
-3.88383e-11
0.000145995
-5.64499e-10
0.000145996
-1.07899e-09
0.000145996
-1.56613e-09
0.000145997
-2.00724e-09
0.000145998
-2.38187e-09
0.000145998
-2.66869e-09
0.000145999
-2.8444e-09
0.000146
-2.88347e-09
0.000146001
-2.76266e-09
0.000146002
-2.46703e-09
0.000146003
-1.9916e-09
0.000146003
-1.34027e-09
0.000146004
-5.27392e-10
0.000146004
4.20149e-10
0.000146004
1.46468e-09
0.000146003
2.56262e-09
0.000146002
3.66475e-09
0.000146001
4.71552e-09
0.000146
5.66013e-09
0.000145998
6.45502e-09
0.000145996
7.06757e-09
0.000145994
7.46751e-09
0.000145991
7.62815e-09
0.000145989
7.54033e-09
0.000145987
7.21842e-09
0.000145985
6.68869e-09
0.000145983
5.9783e-09
0.000145982
5.12049e-09
0.000145981
4.16261e-09
0.00014598
3.1596e-09
0.000145979
2.16055e-09
0.000145979
1.20515e-09
0.000145979
3.27899e-10
0.000145979
-4.42163e-10
0.000145979
-1.08591e-09
0.00014598
-1.59475e-09
0.000145981
-1.96765e-09
0.000145982
-2.20984e-09
0.000145982
-2.33244e-09
0.000145983
-2.35001e-09
0.000145984
-2.27843e-09
0.000145985
-2.13582e-09
0.000145986
-1.94312e-09
0.000145986
-1.71983e-09
0.000145987
-1.47933e-09
0.000145987
-1.23038e-09
0.000145988
-9.82136e-10
0.000145988
-7.44082e-10
0.000145988
-5.21013e-10
0.000145988
-3.13119e-10
0.000145988
-1.24382e-10
0.000145988
3.48754e-11
0.000145988
1.57862e-10
0.000145988
2.47182e-10
0.000145988
3.03754e-10
0.000145988
3.15373e-10
0.000145988
2.62174e-10
0.000145988
1.2723e-10
0.000145988
-1.08988e-10
0.000145988
-4.73893e-10
0.000145988
-1.0063e-09
0.000145988
-1.74115e-09
0.000145988
-2.68788e-09
0.000145989
-3.76992e-09
-4.66563e-09
0.000168115
-2.23779e-08
0.000168114
-2.11992e-08
0.000168112
-2.16701e-08
0.000168112
-2.27926e-08
0.000168111
-2.39455e-08
0.000168111
-2.50688e-08
0.000168111
-2.62628e-08
0.000168111
-2.73264e-08
0.000168111
-2.81824e-08
0.000168111
-2.86717e-08
0.000168111
-2.87017e-08
0.000168111
-2.82444e-08
0.000168111
-2.72531e-08
0.000168111
-2.57503e-08
0.000168111
-2.38425e-08
0.000168111
-2.1626e-08
0.000168112
-1.91832e-08
0.000168112
-1.66281e-08
0.000168112
-1.40917e-08
0.000168112
-1.16753e-08
0.000168112
-9.43912e-09
0.000168112
-7.43085e-09
0.000168112
-5.68568e-09
0.000168112
-4.20633e-09
0.000168112
-2.97731e-09
0.000168112
-1.98449e-09
0.000168112
-1.20589e-09
0.000168112
-6.04914e-10
0.000168112
-1.44579e-10
0.000168111
2.0427e-10
0.000168111
4.68803e-10
0.000168111
6.77851e-10
0.00016811
8.57688e-10
0.00016811
1.02822e-09
0.00016811
1.20175e-09
0.000168109
1.38145e-09
0.000168109
1.56175e-09
0.000168108
1.73272e-09
0.000168108
1.88412e-09
0.000168107
2.0052e-09
0.000168107
2.0833e-09
0.000168106
2.10554e-09
0.000168105
2.06199e-09
0.000168105
1.94544e-09
0.000168104
1.74819e-09
0.000168104
1.46135e-09
0.000168104
1.07939e-09
0.000168104
6.05087e-10
0.000168103
4.9423e-11
0.000168103
-5.73209e-10
0.000168104
-1.24848e-09
0.000168104
-1.96187e-09
0.000168105
-2.69703e-09
0.000168105
-3.43546e-09
0.000168106
-4.15721e-09
0.000168107
-4.84098e-09
0.000168108
-5.46297e-09
0.000168109
-5.99571e-09
0.000168111
-6.4085e-09
0.000168112
-6.67101e-09
0.000168113
-6.75881e-09
0.000168114
-6.65747e-09
0.000168115
-6.36339e-09
0.000168116
-5.88292e-09
0.000168117
-5.2317e-09
0.000168117
-4.43409e-09
0.000168118
-3.52156e-09
0.000168118
-2.53061e-09
0.000168118
-1.50172e-09
0.000168117
-4.78314e-10
0.000168117
4.96459e-10
0.000168116
1.38408e-09
0.000168115
2.15268e-09
0.000168114
2.7759e-09
0.000168113
3.23255e-09
0.000168112
3.50977e-09
0.000168111
3.60607e-09
0.00016811
3.53013e-09
0.000168109
3.29682e-09
0.000168108
2.92553e-09
0.000168108
2.44111e-09
0.000168107
1.87293e-09
0.000168107
1.25042e-09
0.000168107
5.98942e-10
0.000168107
-6.15164e-11
0.000168107
-7.14439e-10
0.000168107
-1.34648e-09
0.000168108
-1.94443e-09
0.000168108
-2.49164e-09
0.000168109
-2.96635e-09
0.00016811
-3.34368e-09
0.00016811
-3.59722e-09
0.000168111
-3.69871e-09
0.000168112
-3.61938e-09
0.000168113
-3.33579e-09
0.000168114
-2.8356e-09
0.000168114
-2.11883e-09
0.000168115
-1.19799e-09
0.000168116
-9.96748e-11
0.000168116
1.13366e-09
0.000168116
2.4501e-09
0.000168116
3.79227e-09
0.000168116
5.09613e-09
0.000168115
6.29157e-09
0.000168114
7.31334e-09
0.000168113
8.11272e-09
0.000168112
8.65577e-09
0.000168111
8.9148e-09
0.000168109
8.87142e-09
0.000168108
8.52944e-09
0.000168107
7.91713e-09
0.000168106
7.07484e-09
0.000168105
6.04646e-09
0.000168104
4.8837e-09
0.000168103
3.64878e-09
0.000168103
2.40571e-09
0.000168103
1.21009e-09
0.000168103
1.0786e-10
0.000168104
-8.62906e-10
0.000168104
-1.67486e-09
0.000168105
-2.31428e-09
0.000168106
-2.77932e-09
0.000168107
-3.07659e-09
0.000168108
-3.22013e-09
0.000168109
-3.22991e-09
0.000168109
-3.12746e-09
0.00016811
-2.93329e-09
0.000168111
-2.66946e-09
0.000168112
-2.36064e-09
0.000168112
-2.02831e-09
0.000168113
-1.68566e-09
0.000168113
-1.34224e-09
0.000168113
-1.01143e-09
0.000168113
-7.06227e-10
0.000168113
-4.28049e-10
0.000168114
-1.71661e-10
0.000168113
5.81623e-11
0.000168113
2.46381e-10
0.000168113
3.86101e-10
0.000168113
4.78597e-10
0.000168113
5.19747e-10
0.000168113
4.93835e-10
0.000168112
3.80759e-10
0.000168112
1.63715e-10
0.000168112
-1.79976e-10
0.000168111
-6.84767e-10
0.000168111
-1.37508e-09
0.000168111
-2.24019e-09
0.00016811
-3.21299e-09
-3.98326e-09
0.000183447
-1.63656e-08
0.000183442
-1.54985e-08
0.000183436
-1.59602e-08
0.00018343
-1.69824e-08
0.000183424
-1.79029e-08
0.000183418
-1.88308e-08
0.000183411
-1.97175e-08
0.000183404
-2.05135e-08
0.000183397
-2.11208e-08
0.00018339
-2.14524e-08
0.000183383
-2.14411e-08
0.000183376
-2.10724e-08
0.000183369
-2.03086e-08
0.000183362
-1.91729e-08
0.000183356
-1.77487e-08
0.000183351
-1.60821e-08
0.000183346
-1.42325e-08
0.000183341
-1.23076e-08
0.000183338
-1.04065e-08
0.000183334
-8.58918e-09
0.000183332
-6.89586e-09
0.00018333
-5.36739e-09
0.000183328
-4.03385e-09
0.000183327
-2.89692e-09
0.000183326
-1.94319e-09
0.000183325
-1.16405e-09
0.000183324
-5.47992e-10
0.000183324
-6.7558e-11
0.000183323
3.0893e-10
0.000183323
6.04496e-10
0.000183322
8.38497e-10
0.000183322
1.03643e-09
0.000183322
1.22435e-09
0.000183321
1.4167e-09
0.000183321
1.61474e-09
0.00018332
1.81407e-09
0.00018332
2.00937e-09
0.000183319
2.19349e-09
0.000183319
2.35654e-09
0.000183318
2.48687e-09
0.000183318
2.57169e-09
0.000183317
2.59659e-09
0.000183317
2.54622e-09
0.000183317
2.40688e-09
0.000183316
2.16858e-09
0.000183316
1.82523e-09
0.000183315
1.37472e-09
0.000183315
8.20906e-10
0.000183315
1.75206e-10
0.000183315
-5.44808e-10
0.000183315
-1.31952e-09
0.000183315
-2.13035e-09
0.000183316
-2.95973e-09
0.000183316
-3.78867e-09
0.000183316
-4.59417e-09
0.000183317
-5.34822e-09
0.000183317
-6.01909e-09
0.000183318
-6.5737e-09
0.000183319
-6.97954e-09
0.000183319
-7.2066e-09
0.00018332
-7.23072e-09
0.00018332
-7.03761e-09
0.00018332
-6.62519e-09
0.00018332
-6.00316e-09
0.00018332
-5.19162e-09
0.00018332
-4.22042e-09
0.00018332
-3.12832e-09
0.000183319
-1.96073e-09
0.000183318
-7.66908e-10
0.000183318
4.02207e-10
0.000183317
1.49611e-09
0.000183315
2.46924e-09
0.000183314
3.28493e-09
0.000183313
3.91638e-09
0.000183312
4.34483e-09
0.000183311
4.55959e-09
0.00018331
4.56118e-09
0.000183309
4.36358e-09
0.000183308
3.99149e-09
0.000183308
3.4753e-09
0.000183308
2.8481e-09
0.000183307
2.14467e-09
0.000183307
1.39917e-09
0.000183307
6.40912e-10
0.000183307
-1.08078e-10
0.000183307
-8.32482e-10
0.000183307
-1.5224e-09
0.000183308
-2.17083e-09
0.000183308
-2.76924e-09
0.000183308
-3.30268e-09
0.000183309
-3.74862e-09
0.000183309
-4.07962e-09
0.00018331
-4.26539e-09
0.00018331
-4.27379e-09
0.000183311
-4.0746e-09
0.000183312
-3.64652e-09
0.000183313
-2.98195e-09
0.000183314
-2.08748e-09
0.000183315
-9.84811e-10
0.000183315
2.86387e-10
0.000183316
1.67085e-09
0.000183317
3.1057e-09
0.000183317
4.52461e-09
0.000183318
5.8554e-09
0.000183318
7.02215e-09
0.000183318
7.95833e-09
0.000183318
8.61776e-09
0.000183318
8.97127e-09
0.000183318
8.99935e-09
0.000183318
8.69687e-09
0.000183318
8.08342e-09
0.000183318
7.20186e-09
0.000183318
6.10627e-09
0.000183318
4.85535e-09
0.000183318
3.51419e-09
0.000183318
2.15232e-09
0.000183318
8.35162e-10
0.000183319
-3.825e-10
0.00018332
-1.45735e-09
0.00018332
-2.35783e-09
0.000183321
-3.06549e-09
0.000183322
-3.57456e-09
0.000183323
-3.88975e-09
0.000183323
-4.0254e-09
0.000183324
-4.00476e-09
0.000183325
-3.85539e-09
0.000183326
-3.60332e-09
0.000183326
-3.27248e-09
0.000183327
-2.88777e-09
0.000183327
-2.47361e-09
0.000183328
-2.04829e-09
0.000183328
-1.62317e-09
0.000183328
-1.20987e-09
0.000183328
-8.22956e-10
0.000183328
-4.71162e-10
0.000183328
-1.53108e-10
0.000183328
1.31742e-10
0.000183328
3.75839e-10
0.000183328
5.71104e-10
0.000183327
7.14843e-10
0.000183327
8.06354e-10
0.000183327
8.36156e-10
0.000183326
7.90047e-10
0.000183326
6.62432e-10
0.000183325
4.32766e-10
0.000183325
9.38893e-11
0.000183324
-3.68877e-10
0.000183322
-9.532e-10
0.000183321
-1.62095e-09
-2.13956e-09
0.000192426
-7.2997e-09
0.000192418
-6.95312e-09
0.000192409
-7.07807e-09
0.0001924
-7.44848e-09
0.000192389
-7.7226e-09
0.000192379
-8.01389e-09
0.000192367
-8.25014e-09
0.000192355
-8.45876e-09
0.000192343
-8.57763e-09
0.00019233
-8.60616e-09
0.000192317
-8.51519e-09
0.000192304
-8.27046e-09
0.000192292
-7.87381e-09
0.00019228
-7.34975e-09
0.000192269
-6.72307e-09
0.000192259
-6.00133e-09
0.00019225
-5.21769e-09
0.000192242
-4.41832e-09
0.000192235
-3.62813e-09
0.000192229
-2.8649e-09
0.000192225
-2.15179e-09
0.000192221
-1.50665e-09
0.000192218
-9.37554e-10
0.000192215
-4.46368e-10
0.000192213
-3.23098e-11
0.000192212
3.06884e-10
0.000192211
5.79659e-10
0.00019221
8.02859e-10
0.000192209
9.9214e-10
0.000192209
1.15503e-09
0.000192208
1.2999e-09
0.000192208
1.44484e-09
0.000192207
1.6076e-09
0.000192207
1.79024e-09
0.000192207
1.98121e-09
0.000192206
2.17066e-09
0.000192206
2.35666e-09
0.000192206
2.53704e-09
0.000192205
2.70131e-09
0.000192205
2.83278e-09
0.000192205
2.91493e-09
0.000192204
2.93306e-09
0.000192204
2.87183e-09
0.000192204
2.71524e-09
0.000192203
2.45071e-09
0.000192203
2.07288e-09
0.000192203
1.58383e-09
0.000192203
9.91637e-10
0.000192202
3.09525e-10
0.000192202
-4.4489e-10
0.000192202
-1.25169e-09
0.000192202
-2.09102e-09
0.000192202
-2.94338e-09
0.000192202
-3.78758e-09
0.000192202
-4.59808e-09
0.000192202
-5.34363e-09
0.000192202
-5.98889e-09
0.000192202
-6.49813e-09
0.000192202
-6.83889e-09
0.000192202
-6.98396e-09
0.000192201
-6.91281e-09
0.000192201
-6.61387e-09
0.000192201
-6.08714e-09
0.0001922
-5.34497e-09
0.000192199
-4.41116e-09
0.000192198
-3.32013e-09
0.000192197
-2.11634e-09
0.000192196
-8.52261e-10
0.000192195
4.15904e-10
0.000192194
1.63246e-09
0.000192192
2.74481e-09
0.000192191
3.70553e-09
0.00019219
4.4759e-09
0.000192189
5.02923e-09
0.000192188
5.35135e-09
0.000192187
5.43881e-09
0.000192186
5.29874e-09
0.000192186
4.95075e-09
0.000192185
4.42694e-09
0.000192185
3.76759e-09
0.000192185
3.01533e-09
0.000192185
2.21125e-09
0.000192185
1.3922e-09
0.000192185
5.87544e-10
0.000192185
-1.83468e-10
0.000192185
-9.10988e-10
0.000192185
-1.59189e-09
0.000192185
-2.22681e-09
0.000192185
-2.81672e-09
0.000192185
-3.35744e-09
0.000192185
-3.83495e-09
0.000192185
-4.22538e-09
0.000192186
-4.49839e-09
0.000192186
-4.62011e-09
0.000192186
-4.55591e-09
0.000192187
-4.27634e-09
0.000192188
-3.76407e-09
0.000192189
-3.01672e-09
0.00019219
-2.04699e-09
0.000192191
-8.85027e-10
0.000192192
4.19275e-10
0.000192194
1.80157e-09
0.000192195
3.19314e-09
0.000192196
4.5245e-09
0.000192198
5.72249e-09
0.000192199
6.71412e-09
0.0001922
7.44015e-09
0.000192201
7.86365e-09
0.000192202
7.96536e-09
0.000192203
7.73826e-09
0.000192204
7.19305e-09
0.000192205
6.36483e-09
0.000192206
5.30833e-09
0.000192206
4.08672e-09
0.000192207
2.76678e-09
0.000192208
1.41799e-09
0.000192209
1.08341e-10
0.000192209
-1.10273e-09
0.00019221
-2.16968e-09
0.000192211
-3.05974e-09
0.000192211
-3.75263e-09
0.000192212
-4.24067e-09
0.000192213
-4.52787e-09
0.000192213
-4.62775e-09
0.000192214
-4.56177e-09
0.000192214
-4.35788e-09
0.000192215
-4.04638e-09
0.000192215
-3.655e-09
0.000192216
-3.20824e-09
0.000192216
-2.73002e-09
0.000192216
-2.24261e-09
0.000192216
-1.76131e-09
0.000192216
-1.29417e-09
0.000192216
-8.50093e-10
0.000192216
-4.41915e-10
0.000192216
-7.75423e-11
0.000192216
2.44816e-10
0.000192216
5.2856e-10
0.000192216
7.70784e-10
0.000192215
9.65618e-10
0.000192215
1.11374e-09
0.000192215
1.21784e-09
0.000192214
1.2797e-09
0.000192214
1.29405e-09
0.000192213
1.26e-09
0.000192212
1.17413e-09
0.00019221
1.04021e-09
0.000192208
8.70323e-10
0.000192206
6.71308e-10
5.20556e-10
0.000195383
2.85591e-09
0.000195373
2.69325e-09
0.000195363
2.97228e-09
0.000195352
3.50335e-09
0.000195341
4.018e-09
0.000195328
4.55728e-09
0.000195315
5.08123e-09
0.000195301
5.57906e-09
0.000195286
6.0374e-09
0.000195271
6.38757e-09
0.000195256
6.61176e-09
0.000195241
6.71108e-09
0.000195226
6.66527e-09
0.000195213
6.47228e-09
0.0001952
6.16614e-09
0.000195188
5.77633e-09
0.000195177
5.31579e-09
0.000195168
4.81164e-09
0.00019516
4.307e-09
0.000195153
3.82756e-09
0.000195148
3.37893e-09
0.000195143
2.97226e-09
0.00019514
2.62319e-09
0.000195137
2.33362e-09
0.000195135
2.09542e-09
0.000195133
1.90655e-09
0.000195132
1.77178e-09
0.000195131
1.69109e-09
0.00019513
1.65533e-09
0.00019513
1.65477e-09
0.000195129
1.68867e-09
0.000195129
1.76327e-09
0.000195129
1.87975e-09
0.000195129
2.02698e-09
0.000195128
2.18851e-09
0.000195128
2.35461e-09
0.000195128
2.52405e-09
0.000195128
2.69413e-09
0.000195128
2.85193e-09
0.000195128
2.97661e-09
0.000195127
3.04805e-09
0.000195127
3.05166e-09
0.000195127
2.97583e-09
0.000195127
2.80804e-09
0.000195127
2.53601e-09
0.000195127
2.15329e-09
0.000195127
1.66324e-09
0.000195127
1.07793e-09
0.000195127
4.13681e-10
0.000195126
-3.12568e-10
0.000195126
-1.08425e-09
0.000195126
-1.88407e-09
0.000195126
-2.69175e-09
0.000195125
-3.48252e-09
0.000195125
-4.2272e-09
0.000195125
-4.89339e-09
0.000195124
-5.4473e-09
0.000195123
-5.85618e-09
0.000195123
-6.09119e-09
0.000195122
-6.1294e-09
0.000195121
-5.95467e-09
0.00019512
-5.55882e-09
0.000195119
-4.94378e-09
0.000195118
-4.12377e-09
0.000195116
-3.12559e-09
0.000195115
-1.9874e-09
0.000195114
-7.57189e-10
0.000195112
5.0935e-10
0.000195111
1.75304e-09
0.00019511
2.91677e-09
0.000195108
3.94942e-09
0.000195107
4.807e-09
0.000195106
5.45376e-09
0.000195105
5.86527e-09
0.000195105
6.03157e-09
0.000195104
5.95706e-09
0.000195104
5.65828e-09
0.000195104
5.16245e-09
0.000195104
4.50736e-09
0.000195104
3.73909e-09
0.000195104
2.90649e-09
0.000195104
2.05513e-09
0.000195104
1.22294e-09
0.000195104
4.37133e-10
0.000195104
-2.88164e-10
0.000195104
-9.51355e-10
0.000195104
-1.55937e-09
0.000195104
-2.12269e-09
0.000195104
-2.65167e-09
0.000195104
-3.15234e-09
0.000195104
-3.62093e-09
0.000195103
-4.04063e-09
0.000195103
-4.38369e-09
0.000195103
-4.61595e-09
0.000195104
-4.70048e-09
0.000195104
-4.60203e-09
0.000195104
-4.29415e-09
0.000195105
-3.76508e-09
0.000195106
-3.01856e-09
0.000195107
-2.07349e-09
0.000195109
-9.6705e-10
0.00019511
2.44615e-10
0.000195112
1.49377e-09
0.000195114
2.71235e-09
0.000195116
3.83395e-09
0.000195118
4.79118e-09
0.000195119
5.52094e-09
0.000195121
5.97711e-09
0.000195123
6.13622e-09
0.000195125
5.99222e-09
0.000195127
5.55301e-09
0.000195128
4.84487e-09
0.000195129
3.91476e-09
0.000195131
2.82312e-09
0.000195132
1.63461e-09
0.000195133
4.14346e-10
0.000195134
-7.73813e-10
0.000195135
-1.87225e-09
0.000195135
-2.83502e-09
0.000195136
-3.62918e-09
0.000195136
-4.23443e-09
0.000195137
-4.64335e-09
0.000195137
-4.86077e-09
0.000195137
-4.90026e-09
0.000195138
-4.78106e-09
0.000195138
-4.52806e-09
0.000195138
-4.17109e-09
0.000195138
-3.73969e-09
0.000195138
-3.25808e-09
0.000195138
-2.74688e-09
0.000195138
-2.22786e-09
0.000195138
-1.72103e-09
0.000195138
-1.23615e-09
0.000195138
-7.75511e-10
0.000195138
-3.46898e-10
0.000195138
3.78212e-11
0.000195137
3.76946e-10
0.000195137
6.78956e-10
0.000195137
9.47029e-10
0.000195137
1.1787e-09
0.000195137
1.37806e-09
0.000195136
1.55601e-09
0.000195136
1.72723e-09
0.000195135
1.88996e-09
0.000195134
2.06276e-09
0.000195133
2.26994e-09