/*--------------------------------*- C++ -*----------------------------------*\
| =========                 |                                                 |
| \\      /  F ield         | OpenFOAM: The Open Source CFD Toolbox           |
|  \\    /   O peration     | Version:  2406                                  |
|   \\  /    A nd           | Website:  www.openfoam.com                      |
|    \\/     M anipulation  |                                                 |
\*---------------------------------------------------------------------------*/
FoamFile
{
    version     2.0;
    format      ascii;
    arch        "LSB;label=32;scalar=64";
    class       surfaceScalarField;
    location    "0.2";
    object      phi;
}
// * * * * * * * * * * * * * * * * * * * * * * * * * * * * * * * * * * * * * //

dimensions      [0 3 -1 0 0 0 0];

oriented        oriented;

internalField   nonuniform List<scalar> 
4335
(
1.82635e-05
5.78398e-12
1.82635e-05
-7.76049e-12
1.82635e-05
-9.24204e-12
1.82635e-05
-8.8564e-12
1.82635e-05
-7.40113e-12
1.82635e-05
-2.20388e-11
1.82635e-05
-6.40338e-12
1.82636e-05
1.47888e-12
1.82636e-05
-8.36931e-12
1.82636e-05
-1.618e-11
1.82636e-05
-8.77607e-12
1.82636e-05
6.67577e-12
1.82636e-05
1.55465e-11
1.82636e-05
1.16898e-11
1.82636e-05
1.06755e-12
1.82636e-05
-6.11038e-12
1.82636e-05
-5.85256e-12
1.82636e-05
-9.57801e-13
1.82637e-05
3.05807e-12
1.82637e-05
3.18972e-12
1.82637e-05
8.31358e-13
1.82637e-05
-3.69198e-13
1.82637e-05
3.69787e-14
1.82637e-05
6.6508e-13
1.82637e-05
1.77334e-13
1.82637e-05
-3.39451e-12
1.82637e-05
-8.31255e-12
1.82637e-05
-1.01936e-11
1.82637e-05
-1.01362e-11
1.82637e-05
-1.13108e-11
1.82637e-05
-1.27466e-11
1.82637e-05
-1.34739e-11
1.82637e-05
-1.49242e-11
1.82637e-05
-1.61737e-11
1.82637e-05
-1.43305e-11
1.82638e-05
-9.66483e-12
1.82638e-05
-4.31959e-12
1.82638e-05
-5.20726e-13
1.82638e-05
-2.12826e-13
1.82638e-05
-1.85809e-12
1.82638e-05
-2.00699e-12
1.82638e-05
4.82021e-13
1.82638e-05
4.30205e-12
1.82638e-05
7.11816e-12
1.82638e-05
6.64872e-12
1.82638e-05
4.05922e-12
1.82638e-05
3.08367e-12
1.82638e-05
4.7514e-12
1.82638e-05
6.69265e-12
1.82638e-05
5.94787e-12
1.82638e-05
2.68367e-12
1.82638e-05
-6.57771e-13
1.82638e-05
-1.85705e-12
1.82638e-05
-2.70323e-13
1.82638e-05
1.57066e-12
1.82638e-05
9.93761e-13
1.82638e-05
-1.42358e-12
1.82638e-05
-2.35966e-12
1.82638e-05
2.76393e-13
1.82638e-05
4.67596e-12
1.82638e-05
7.15914e-12
1.82638e-05
6.4955e-12
1.82638e-05
5.93242e-12
1.82638e-05
9.12989e-12
1.82638e-05
1.51931e-11
1.82638e-05
1.97583e-11
1.82637e-05
1.94763e-11
1.82637e-05
1.52006e-11
1.82637e-05
1.09556e-11
1.82637e-05
1.00909e-11
1.82637e-05
1.1644e-11
1.82637e-05
1.17872e-11
1.82637e-05
7.99825e-12
1.82637e-05
2.02203e-12
1.82637e-05
-1.99257e-12
1.82637e-05
-1.80407e-12
1.82637e-05
4.36509e-13
1.82637e-05
9.40421e-13
1.82637e-05
-2.17111e-12
1.82637e-05
-6.44399e-12
1.82637e-05
-8.33762e-12
1.82637e-05
-6.65903e-12
1.82637e-05
-4.14864e-12
1.82637e-05
-4.23889e-12
1.82637e-05
-7.19997e-12
1.82637e-05
-1.02122e-11
1.82637e-05
-1.02029e-11
1.82638e-05
-7.15138e-12
1.82638e-05
-3.80437e-12
1.82638e-05
-2.57015e-12
1.82638e-05
-2.46525e-12
1.82638e-05
-5.72084e-13
1.82638e-05
4.09938e-12
1.82638e-05
8.91116e-12
1.82638e-05
1.01007e-11
1.82638e-05
7.05489e-12
1.82638e-05
3.18077e-12
1.82637e-05
2.81935e-12
1.82637e-05
6.47399e-12
1.82637e-05
1.01585e-11
1.82637e-05
9.23223e-12
1.82637e-05
3.7035e-12
1.82637e-05
-1.39878e-12
1.82637e-05
-2.23266e-12
1.82637e-05
7.90851e-13
1.82637e-05
3.19773e-12
1.82637e-05
1.41526e-12
1.82637e-05
-3.71506e-12
1.82637e-05
-8.29411e-12
1.82637e-05
-9.45013e-12
1.82637e-05
-8.53818e-12
1.82637e-05
-8.47395e-12
1.82637e-05
-1.06228e-11
1.82637e-05
-1.34398e-11
1.82637e-05
-1.39928e-11
1.82638e-05
-1.08689e-11
1.82638e-05
-6.52832e-12
1.82638e-05
-4.95571e-12
1.82638e-05
-6.77492e-12
1.82638e-05
-8.2941e-12
1.82638e-05
-6.2431e-12
1.82638e-05
-1.08207e-12
1.82638e-05
3.93119e-12
1.82638e-05
5.86332e-12
1.82638e-05
4.88117e-12
1.82638e-05
3.68957e-12
1.82638e-05
4.66817e-12
1.82638e-05
7.237e-12
1.82638e-05
8.9052e-12
1.82637e-05
7.77835e-12
1.82637e-05
4.53715e-12
1.82637e-05
2.64783e-12
1.82637e-05
3.89247e-12
1.82637e-05
6.00931e-12
1.82637e-05
5.60659e-12
1.82637e-05
2.73827e-12
1.82637e-05
2.47738e-13
1.82637e-05
-1.5317e-12
1.82637e-05
-3.73274e-12
1.82637e-05
-6.54213e-12
1.82637e-05
-9.43742e-12
1.82637e-05
-1.0539e-11
1.82637e-05
-9.63955e-12
1.82637e-05
-8.30155e-12
1.82637e-05
-8.36819e-12
1.82637e-05
-9.64003e-12
1.82637e-05
-8.90966e-12
1.82637e-05
-5.73387e-12
1.82637e-05
3.74704e-13
-4.19033e-12
4.93662e-05
1.25449e-11
4.93662e-05
4.987e-12
4.93662e-05
-1.39464e-11
4.93662e-05
-3.50464e-11
4.93662e-05
-3.79329e-11
4.93663e-05
-3.86282e-11
4.93663e-05
-4.48963e-11
4.93663e-05
-4.65626e-11
4.93663e-05
-3.90249e-11
4.93663e-05
-3.11626e-11
4.93663e-05
-2.60833e-11
4.93664e-05
-2.35505e-11
4.93664e-05
-2.42496e-11
4.93664e-05
-2.37413e-11
4.93664e-05
-1.69794e-11
4.93664e-05
-8.99723e-12
4.93664e-05
-7.17575e-12
4.93664e-05
-1.16954e-11
4.93664e-05
-1.30423e-11
4.93664e-05
-6.52138e-12
4.93664e-05
1.22088e-12
4.93664e-05
4.4392e-12
4.93664e-05
1.50938e-12
4.93664e-05
-5.59387e-12
4.93664e-05
-9.66245e-12
4.93664e-05
-8.59081e-12
4.93664e-05
-6.87941e-12
4.93664e-05
-5.73302e-12
4.93664e-05
-5.56538e-12
4.93665e-05
-8.65518e-12
4.93665e-05
-1.34772e-11
4.93665e-05
-1.56217e-11
4.93665e-05
-1.48826e-11
4.93665e-05
-1.37004e-11
4.93666e-05
-1.20775e-11
4.93666e-05
-9.8526e-12
4.93666e-05
-8.03132e-12
4.93666e-05
-7.08259e-12
4.93666e-05
-8.11604e-12
4.93666e-05
-1.15699e-11
4.93666e-05
-1.49654e-11
4.93666e-05
-1.56893e-11
4.93666e-05
-1.32212e-11
4.93666e-05
-8.87746e-12
4.93667e-05
-6.21194e-12
4.93667e-05
-8.19993e-12
4.93667e-05
-1.26198e-11
4.93667e-05
-1.43023e-11
4.93667e-05
-1.15335e-11
4.93667e-05
-6.89037e-12
4.93667e-05
-3.86851e-12
4.93667e-05
-4.25933e-12
4.93667e-05
-6.97935e-12
4.93667e-05
-8.66386e-12
4.93667e-05
-7.19612e-12
4.93667e-05
-3.33765e-12
4.93667e-05
-3.39816e-13
4.93667e-05
6.48477e-13
4.93667e-05
1.72151e-12
4.93667e-05
5.82976e-12
4.93667e-05
1.30161e-11
4.93667e-05
1.99338e-11
4.93666e-05
2.39976e-11
4.93666e-05
2.6681e-11
4.93666e-05
3.10523e-11
4.93666e-05
3.74876e-11
4.93665e-05
4.26481e-11
4.93665e-05
4.23978e-11
4.93665e-05
3.60411e-11
4.93665e-05
2.76287e-11
4.93665e-05
2.20793e-11
4.93664e-05
2.01621e-11
4.93664e-05
1.80048e-11
4.93664e-05
1.13442e-11
4.93664e-05
4.16359e-13
4.93665e-05
-1.0384e-11
4.93665e-05
-1.68837e-11
4.93665e-05
-1.8819e-11
4.93665e-05
-1.99956e-11
4.93665e-05
-2.39927e-11
4.93665e-05
-3.03532e-11
4.93665e-05
-3.52774e-11
4.93666e-05
-3.57956e-11
4.93666e-05
-3.27956e-11
4.93666e-05
-2.98697e-11
4.93666e-05
-2.89725e-11
4.93667e-05
-2.78931e-11
4.93667e-05
-2.30108e-11
4.93667e-05
-1.40638e-11
4.93667e-05
-4.56163e-12
4.93667e-05
1.35495e-12
4.93667e-05
3.80646e-12
4.93667e-05
5.92883e-12
4.93667e-05
1.05899e-11
4.93667e-05
1.6856e-11
4.93667e-05
2.10248e-11
4.93666e-05
2.10687e-11
4.93666e-05
1.94064e-11
4.93666e-05
2.05534e-11
4.93666e-05
2.61765e-11
4.93666e-05
3.22272e-11
4.93665e-05
3.23971e-11
4.93665e-05
2.51116e-11
4.93665e-05
1.53364e-11
4.93665e-05
9.60136e-12
4.93665e-05
9.18092e-12
4.93665e-05
9.49571e-12
4.93665e-05
5.23029e-12
4.93665e-05
-4.28675e-12
4.93665e-05
-1.4582e-11
4.93665e-05
-2.1058e-11
4.93665e-05
-2.3245e-11
4.93665e-05
-2.41866e-11
4.93666e-05
-2.71188e-11
4.93666e-05
-3.1938e-11
4.93666e-05
-3.48925e-11
4.93666e-05
-3.27481e-11
4.93667e-05
-2.70141e-11
4.93667e-05
-2.19356e-11
4.93667e-05
-1.8853e-11
4.93667e-05
-1.52792e-11
4.93667e-05
-8.47597e-12
4.93667e-05
1.50486e-12
4.93667e-05
1.14614e-11
4.93667e-05
1.78356e-11
4.93667e-05
2.01447e-11
4.93667e-05
2.10548e-11
4.93666e-05
2.30422e-11
4.93666e-05
2.64086e-11
4.93666e-05
2.96374e-11
4.93666e-05
3.06801e-11
4.93666e-05
2.91523e-11
4.93665e-05
2.6783e-11
4.93665e-05
2.49993e-11
4.93665e-05
2.296e-11
4.93665e-05
1.91745e-11
4.93665e-05
1.38793e-11
4.93665e-05
7.53167e-12
4.93665e-05
3.25755e-13
4.93665e-05
-6.73416e-12
4.93665e-05
-1.32516e-11
4.93665e-05
-1.85769e-11
4.93665e-05
-2.1135e-11
4.93665e-05
-2.11561e-11
4.93665e-05
-2.02568e-11
4.93666e-05
-2.07153e-11
4.93666e-05
-1.95929e-11
4.93666e-05
-1.55844e-11
4.93666e-05
-1.19211e-11
-1.39055e-11
7.52573e-05
-2.36487e-12
7.52573e-05
4.77227e-12
7.52572e-05
-3.07762e-12
7.52572e-05
1.40093e-13
7.52572e-05
-1.56562e-11
7.52572e-05
-1.78371e-11
7.52572e-05
-1.77016e-11
7.52572e-05
-2.49952e-11
7.52572e-05
-2.48963e-11
7.52572e-05
-1.10839e-11
7.52572e-05
-1.35031e-12
7.52572e-05
-1.97594e-12
7.52572e-05
-8.87894e-12
7.52572e-05
-1.55602e-11
7.52572e-05
-1.52214e-11
7.52572e-05
-1.04448e-11
7.52572e-05
-5.90764e-12
7.52572e-05
-5.59605e-12
7.52572e-05
-7.86955e-12
7.52572e-05
-7.58204e-12
7.52572e-05
-5.99359e-12
7.52572e-05
-7.03501e-12
7.52572e-05
-1.10773e-11
7.52572e-05
-1.75579e-11
7.52572e-05
-2.24045e-11
7.52572e-05
-2.32564e-11
7.52572e-05
-2.49732e-11
7.52572e-05
-2.93141e-11
7.52572e-05
-3.2495e-11
7.52572e-05
-3.45678e-11
7.52573e-05
-3.7448e-11
7.52573e-05
-3.87626e-11
7.52573e-05
-3.58944e-11
7.52573e-05
-3.03169e-11
7.52573e-05
-2.43587e-11
7.52574e-05
-1.98212e-11
7.52574e-05
-1.82321e-11
7.52574e-05
-1.80959e-11
7.52574e-05
-1.6975e-11
7.52574e-05
-1.48395e-11
7.52574e-05
-1.27634e-11
7.52574e-05
-1.21696e-11
7.52575e-05
-1.3982e-11
7.52575e-05
-1.59509e-11
7.52575e-05
-1.54827e-11
7.52575e-05
-1.42285e-11
7.52575e-05
-1.50954e-11
7.52575e-05
-1.71528e-11
7.52575e-05
-1.74668e-11
7.52575e-05
-1.51661e-11
7.52575e-05
-1.15639e-11
7.52575e-05
-8.66736e-12
7.52575e-05
-7.66559e-12
7.52575e-05
-7.46017e-12
7.52575e-05
-5.59437e-12
7.52575e-05
9.75376e-14
7.52575e-05
8.45784e-12
7.52575e-05
1.63729e-11
7.52575e-05
2.16474e-11
7.52575e-05
2.60179e-11
7.52575e-05
3.34248e-11
7.52574e-05
4.52755e-11
7.52574e-05
5.83985e-11
7.52574e-05
6.80339e-11
7.52574e-05
7.22055e-11
7.52573e-05
7.26201e-11
7.52573e-05
7.21714e-11
7.52573e-05
7.14052e-11
7.52572e-05
6.77232e-11
7.52572e-05
5.84284e-11
7.52572e-05
4.44329e-11
7.52572e-05
2.95354e-11
7.52572e-05
1.68236e-11
7.52572e-05
5.33486e-12
7.52572e-05
-7.10254e-12
7.52572e-05
-2.23035e-11
7.52572e-05
-3.80968e-11
7.52572e-05
-5.06203e-11
7.52573e-05
-5.77594e-11
7.52573e-05
-6.10406e-11
7.52573e-05
-6.36072e-11
7.52574e-05
-6.67408e-11
7.52574e-05
-6.84889e-11
7.52574e-05
-6.57595e-11
7.52575e-05
-5.81476e-11
7.52575e-05
-4.87524e-11
7.52575e-05
-4.09562e-11
7.52575e-05
-3.472e-11
7.52576e-05
-2.68243e-11
7.52576e-05
-1.51158e-11
7.52576e-05
-1.38682e-12
7.52576e-05
1.01523e-11
7.52576e-05
1.70403e-11
7.52576e-05
2.11339e-11
7.52575e-05
2.68688e-11
7.52575e-05
3.62856e-11
7.52575e-05
4.69307e-11
7.52575e-05
5.40995e-11
7.52574e-05
5.50518e-11
7.52574e-05
5.14801e-11
7.52574e-05
4.77506e-11
7.52574e-05
4.57296e-11
7.52573e-05
4.34012e-11
7.52573e-05
3.79198e-11
7.52573e-05
2.89802e-11
7.52573e-05
1.91845e-11
7.52573e-05
1.07946e-11
7.52572e-05
3.16276e-12
7.52573e-05
-6.34117e-12
7.52573e-05
-1.91825e-11
7.52573e-05
-3.33684e-11
7.52573e-05
-4.57578e-11
7.52573e-05
-5.3876e-11
7.52574e-05
-5.77387e-11
7.52574e-05
-5.98046e-11
7.52574e-05
-6.20517e-11
7.52575e-05
-6.28272e-11
7.52575e-05
-5.85918e-11
7.52575e-05
-4.84184e-11
7.52576e-05
-3.50268e-11
7.52576e-05
-2.21413e-11
7.52576e-05
-1.14185e-11
7.52576e-05
-1.08793e-12
7.52576e-05
1.13137e-11
7.52576e-05
2.52463e-11
7.52575e-05
3.7758e-11
7.52575e-05
4.64676e-11
7.52575e-05
5.13349e-11
7.52575e-05
5.41743e-11
7.52574e-05
5.68543e-11
7.52574e-05
5.91148e-11
7.52574e-05
5.87859e-11
7.52573e-05
5.46502e-11
7.52573e-05
4.78186e-11
7.52573e-05
3.99377e-11
7.52573e-05
3.1039e-11
7.52573e-05
2.05672e-11
7.52573e-05
8.59614e-12
7.52573e-05
-4.18603e-12
7.52573e-05
-1.59937e-11
7.52573e-05
-2.54582e-11
7.52573e-05
-3.25358e-11
7.52573e-05
-3.66701e-11
7.52573e-05
-4.00852e-11
7.52573e-05
-4.33163e-11
7.52573e-05
-4.43284e-11
7.52574e-05
-4.01883e-11
7.52574e-05
-3.42635e-11
7.52574e-05
-3.45374e-11
-3.84482e-11
9.6135e-05
5.73148e-11
9.6135e-05
3.78991e-11
9.6135e-05
2.69223e-11
9.61349e-05
1.46621e-11
9.61349e-05
2.02858e-12
9.61348e-05
-1.01786e-11
9.61348e-05
-9.04679e-12
9.61348e-05
6.13354e-12
9.61348e-05
2.96608e-12
9.61347e-05
-7.24097e-12
9.61347e-05
-9.11435e-12
9.61347e-05
-3.95957e-12
9.61347e-05
2.11804e-12
9.61346e-05
5.90148e-12
9.61346e-05
3.11313e-12
9.61346e-05
-1.72727e-13
9.61346e-05
4.92494e-13
9.61346e-05
9.29205e-13
9.61346e-05
-1.06653e-12
9.61346e-05
-3.73646e-12
9.61346e-05
-6.57891e-12
9.61346e-05
-8.52224e-12
9.61346e-05
-8.09095e-12
9.61346e-05
-8.40614e-12
9.61346e-05
-1.18162e-11
9.61346e-05
-1.48333e-11
9.61346e-05
-1.74084e-11
9.61346e-05
-2.20691e-11
9.61346e-05
-2.63888e-11
9.61346e-05
-2.75299e-11
9.61346e-05
-2.71258e-11
9.61347e-05
-2.69134e-11
9.61347e-05
-2.72178e-11
9.61347e-05
-2.88817e-11
9.61347e-05
-3.14602e-11
9.61347e-05
-3.34451e-11
9.61347e-05
-3.50362e-11
9.61347e-05
-3.65383e-11
9.61348e-05
-3.71057e-11
9.61348e-05
-3.6954e-11
9.61348e-05
-3.64967e-11
9.61348e-05
-3.58151e-11
9.61348e-05
-3.61912e-11
9.61348e-05
-3.76663e-11
9.61348e-05
-3.70707e-11
9.61349e-05
-3.28225e-11
9.61349e-05
-2.78736e-11
9.61349e-05
-2.57351e-11
9.61349e-05
-2.65374e-11
9.61349e-05
-2.77162e-11
9.61349e-05
-2.64081e-11
9.61349e-05
-2.14377e-11
9.61349e-05
-1.40973e-11
9.61349e-05
-6.66428e-12
9.61349e-05
-3.14984e-13
9.61349e-05
5.47893e-12
9.61349e-05
1.27039e-11
9.61349e-05
2.26795e-11
9.61349e-05
3.4754e-11
9.61349e-05
4.71181e-11
9.61348e-05
5.89234e-11
9.61348e-05
7.08384e-11
9.61348e-05
8.31052e-11
9.61347e-05
9.44552e-11
9.61347e-05
1.02628e-10
9.61347e-05
1.06146e-10
9.61346e-05
1.05632e-10
9.61346e-05
1.03088e-10
9.61346e-05
9.91691e-11
9.61345e-05
9.18926e-11
9.61345e-05
7.87402e-11
9.61345e-05
5.95121e-11
9.61345e-05
3.68081e-11
9.61345e-05
1.38068e-11
9.61345e-05
-7.22522e-12
9.61345e-05
-2.70357e-11
9.61346e-05
-4.71514e-11
9.61346e-05
-6.77498e-11
9.61346e-05
-8.66931e-11
9.61347e-05
-1.00944e-10
9.61347e-05
-1.0882e-10
9.61347e-05
-1.11057e-10
9.61348e-05
-1.09551e-10
9.61348e-05
-1.05107e-10
9.61349e-05
-9.70781e-11
9.61349e-05
-8.52226e-11
9.61349e-05
-7.09656e-11
9.61349e-05
-5.66145e-11
9.6135e-05
-4.36045e-11
9.6135e-05
-3.12118e-11
9.6135e-05
-1.7449e-11
9.6135e-05
-1.4263e-12
9.6135e-05
1.52457e-11
9.61349e-05
3.01702e-11
9.61349e-05
4.24465e-11
9.61349e-05
5.33121e-11
9.61349e-05
6.40056e-11
9.61349e-05
7.39651e-11
9.61348e-05
8.11485e-11
9.61348e-05
8.38671e-11
9.61348e-05
8.23573e-11
9.61347e-05
7.81992e-11
9.61347e-05
7.24723e-11
9.61347e-05
6.47191e-11
9.61347e-05
5.36517e-11
9.61346e-05
3.85963e-11
9.61346e-05
2.10199e-11
9.61346e-05
3.91582e-12
9.61346e-05
-1.1487e-11
9.61346e-05
-2.6505e-11
9.61346e-05
-4.27593e-11
9.61347e-05
-6.01338e-11
9.61347e-05
-7.65189e-11
9.61347e-05
-8.86441e-11
9.61348e-05
-9.46621e-11
9.61348e-05
-9.51272e-11
9.61348e-05
-9.16287e-11
9.61349e-05
-8.45118e-11
9.61349e-05
-7.31397e-11
9.61349e-05
-5.73926e-11
9.6135e-05
-3.87063e-11
9.6135e-05
-2.01411e-11
9.6135e-05
-3.17661e-12
9.6135e-05
1.42587e-11
9.6135e-05
3.4265e-11
9.61349e-05
5.5129e-11
9.61349e-05
7.26497e-11
9.61349e-05
8.40528e-11
9.61349e-05
8.97114e-11
9.61348e-05
9.20275e-11
9.61348e-05
9.26551e-11
9.61347e-05
9.11652e-11
9.61347e-05
8.66228e-11
9.61347e-05
7.84757e-11
9.61347e-05
6.65734e-11
9.61346e-05
5.13426e-11
9.61346e-05
3.38048e-11
9.61346e-05
1.66047e-11
9.61346e-05
1.25763e-12
9.61346e-05
-1.19609e-11
9.61346e-05
-2.44039e-11
9.61346e-05
-3.7836e-11
9.61346e-05
-4.91232e-11
9.61347e-05
-5.63199e-11
9.61347e-05
-6.13612e-11
9.61347e-05
-6.3774e-11
9.61347e-05
-6.53767e-11
9.61347e-05
-6.59909e-11
9.61348e-05
-6.82012e-11
-6.80447e-11
0.000112175
8.28334e-11
0.000112175
7.43631e-11
0.000112175
6.85405e-11
0.000112175
4.99007e-11
0.000112175
5.54022e-11
0.000112175
5.95514e-11
0.000112175
5.46568e-11
0.000112175
5.7211e-11
0.000112175
5.61823e-11
0.000112175
5.02664e-11
0.000112175
4.91821e-11
0.000112175
4.8681e-11
0.000112175
4.42244e-11
0.000112175
4.01408e-11
0.000112174
3.1748e-11
0.000112174
1.99554e-11
0.000112174
1.31869e-11
0.000112174
1.24124e-11
0.000112174
1.25353e-11
0.000112174
1.08073e-11
0.000112174
6.7735e-12
0.000112174
5.89795e-13
0.000112174
-4.40821e-12
0.000112174
-7.85861e-12
0.000112174
-1.40116e-11
0.000112174
-2.11683e-11
0.000112174
-2.53796e-11
0.000112174
-2.81102e-11
0.000112174
-3.10928e-11
0.000112174
-3.30806e-11
0.000112174
-3.3719e-11
0.000112174
-3.41057e-11
0.000112174
-3.53747e-11
0.000112174
-3.8661e-11
0.000112174
-4.26882e-11
0.000112174
-4.46103e-11
0.000112174
-4.45003e-11
0.000112174
-4.46224e-11
0.000112174
-4.56366e-11
0.000112175
-4.75601e-11
0.000112175
-4.98671e-11
0.000112175
-5.00267e-11
0.000112175
-4.7167e-11
0.000112175
-4.43829e-11
0.000112175
-4.39356e-11
0.000112175
-4.43514e-11
0.000112175
-4.3526e-11
0.000112175
-4.13363e-11
0.000112175
-3.8961e-11
0.000112175
-3.67956e-11
0.000112175
-3.35108e-11
0.000112175
-2.73734e-11
0.000112175
-1.8578e-11
0.000112175
-8.42353e-12
0.000112175
1.96593e-12
0.000112175
1.255e-11
0.000112175
2.40753e-11
0.000112175
3.76371e-11
0.000112175
5.34988e-11
0.000112175
7.03944e-11
0.000112175
8.6527e-11
0.000112175
1.00947e-10
0.000112175
1.13614e-10
0.000112174
1.24518e-10
0.000112174
1.32923e-10
0.000112174
1.37258e-10
0.000112174
1.36017e-10
0.000112174
1.29118e-10
0.000112174
1.17851e-10
0.000112174
1.03182e-10
0.000112174
8.50519e-11
0.000112174
6.30685e-11
0.000112174
3.75677e-11
0.000112174
1.00249e-11
0.000112174
-1.80184e-11
0.000112174
-4.53449e-11
0.000112174
-7.12329e-11
0.000112174
-9.50119e-11
0.000112174
-1.15725e-10
0.000112174
-1.31878e-10
0.000112174
-1.41783e-10
0.000112174
-1.44464e-10
0.000112175
-1.40767e-10
0.000112175
-1.32829e-10
0.000112175
-1.22381e-10
0.000112175
-1.09936e-10
0.000112175
-9.54391e-11
0.000112175
-7.88522e-11
0.000112175
-6.03271e-11
0.000112175
-4.05258e-11
0.000112175
-1.99548e-11
0.000112175
1.04107e-12
0.000112175
2.19241e-11
0.000112175
4.13789e-11
0.000112175
5.80565e-11
0.000112175
7.17287e-11
0.000112175
8.34059e-11
0.000112175
9.39044e-11
0.000112175
1.02369e-10
0.000112175
1.06974e-10
0.000112175
1.06829e-10
0.000112175
1.02517e-10
0.000112174
9.49862e-11
0.000112174
8.46358e-11
0.000112174
7.14404e-11
0.000112174
5.51954e-11
0.000112174
3.55007e-11
0.000112174
1.29542e-11
0.000112174
-1.10957e-11
0.000112174
-3.55412e-11
0.000112174
-5.96576e-11
0.000112174
-8.22603e-11
0.000112174
-1.01634e-10
0.000112174
-1.15526e-10
0.000112175
-1.22583e-10
0.000112175
-1.23228e-10
0.000112175
-1.18733e-10
0.000112175
-1.09818e-10
0.000112175
-9.68439e-11
0.000112175
-8.00908e-11
0.000112175
-5.90411e-11
0.000112175
-3.37936e-11
0.000112175
-6.41692e-12
0.000112175
2.06868e-11
0.000112175
4.65445e-11
0.000112175
7.04721e-11
0.000112175
9.11166e-11
0.000112175
1.0706e-10
0.000112175
1.17768e-10
0.000112175
1.23811e-10
0.000112175
1.25535e-10
0.000112175
1.21737e-10
0.000112174
1.11825e-10
0.000112174
9.7478e-11
0.000112174
8.07255e-11
0.000112174
6.26522e-11
0.000112174
4.33557e-11
0.000112174
2.3458e-11
0.000112174
4.04581e-12
0.000112174
-1.48593e-11
0.000112174
-3.241e-11
0.000112174
-4.92777e-11
0.000112174
-6.39367e-11
0.000112174
-7.34339e-11
0.000112174
-8.15101e-11
0.000112174
-8.62565e-11
0.000112174
-9.2245e-11
0.000112174
-9.41402e-11
0.000112175
-9.5082e-11
-9.38879e-11
0.000123523
9.48773e-11
0.000123523
8.91903e-11
0.000123523
9.40421e-11
0.000123523
1.00263e-10
0.000123523
1.15791e-10
0.000123523
1.28555e-10
0.000123523
1.28454e-10
0.000123522
1.28034e-10
0.000123522
1.24112e-10
0.000123522
1.15463e-10
0.000123522
1.08802e-10
0.000123522
1.00482e-10
0.000123522
8.68509e-11
0.000123522
7.38117e-11
0.000123522
6.3272e-11
0.000123522
5.20313e-11
0.000123522
4.23762e-11
0.000123522
3.43846e-11
0.000123522
2.54937e-11
0.000123522
1.74353e-11
0.000123522
1.16592e-11
0.000123522
3.79789e-12
0.000123522
-5.6344e-12
0.000123522
-1.33955e-11
0.000123522
-1.98866e-11
0.000123522
-2.58233e-11
0.000123522
-2.9437e-11
0.000123522
-3.16649e-11
0.000123522
-3.39592e-11
0.000123522
-3.5787e-11
0.000123522
-3.76619e-11
0.000123522
-4.00543e-11
0.000123522
-4.18429e-11
0.000123522
-4.2872e-11
0.000123522
-4.46587e-11
0.000123522
-4.67767e-11
0.000123522
-4.84992e-11
0.000123522
-5.08749e-11
0.000123522
-5.38294e-11
0.000123522
-5.60346e-11
0.000123522
-5.76206e-11
0.000123522
-5.86471e-11
0.000123522
-5.8225e-11
0.000123522
-5.68474e-11
0.000123522
-5.62177e-11
0.000123522
-5.66872e-11
0.000123522
-5.67196e-11
0.000123522
-5.447e-11
0.000123522
-4.93881e-11
0.000123522
-4.27429e-11
0.000123522
-3.60037e-11
0.000123522
-2.86064e-11
0.000123522
-1.92447e-11
0.000123522
-7.61871e-12
0.000123522
5.77621e-12
0.000123522
2.04612e-11
0.000123522
3.61711e-11
0.000123522
5.32447e-11
0.000123522
7.20546e-11
0.000123522
9.18085e-11
0.000123522
1.10568e-10
0.000123522
1.26545e-10
0.000123522
1.39427e-10
0.000123522
1.49807e-10
0.000123522
1.57867e-10
0.000123522
1.62462e-10
0.000123522
1.61593e-10
0.000123522
1.53965e-10
0.000123522
1.40387e-10
0.000123522
1.22768e-10
0.000123522
1.01941e-10
0.000123522
7.73611e-11
0.000123522
4.83037e-11
0.000123522
1.50677e-11
0.000123522
-1.99135e-11
0.000123522
-5.42283e-11
0.000123522
-8.626e-11
0.000123522
-1.15138e-10
0.000123522
-1.39893e-10
0.000123522
-1.59053e-10
0.000123522
-1.71098e-10
0.000123522
-1.75399e-10
0.000123522
-1.73087e-10
0.000123522
-1.66285e-10
0.000123522
-1.56077e-10
0.000123522
-1.4192e-10
0.000123522
-1.22747e-10
0.000123522
-9.90542e-11
0.000123522
-7.29172e-11
0.000123522
-4.66659e-11
0.000123522
-2.14448e-11
0.000123522
2.91953e-12
0.000123522
2.70164e-11
0.000123522
5.03854e-11
0.000123522
7.12419e-11
0.000123522
8.78212e-11
0.000123522
1.00225e-10
0.000123522
1.10385e-10
0.000123522
1.19603e-10
0.000123522
1.26485e-10
0.000123522
1.28309e-10
0.000123522
1.24082e-10
0.000123522
1.14804e-10
0.000123522
1.02028e-10
0.000123522
8.65438e-11
0.000123522
6.7783e-11
0.000123522
4.45955e-11
0.000123522
1.66899e-11
0.000123522
-1.37864e-11
0.000123522
-4.36017e-11
0.000123522
-7.0395e-11
0.000123522
-9.3485e-11
0.000123522
-1.13194e-10
0.000123522
-1.29269e-10
0.000123522
-1.39928e-10
0.000123522
-1.43594e-10
0.000123522
-1.40214e-10
0.000123522
-1.30628e-10
0.000123522
-1.1572e-10
0.000123522
-9.61697e-11
0.000123522
-7.1793e-11
0.000123522
-4.22906e-11
0.000123522
-9.58426e-12
0.000123522
2.26844e-11
0.000123522
5.2675e-11
0.000123522
8.01069e-11
0.000123522
1.05088e-10
0.000123522
1.26402e-10
0.000123522
1.41622e-10
0.000123522
1.49332e-10
0.000123522
1.50542e-10
0.000123522
1.46416e-10
0.000123522
1.37003e-10
0.000123522
1.22721e-10
0.000123522
1.04748e-10
0.000123522
8.42332e-11
0.000123522
6.22548e-11
0.000123522
3.95468e-11
0.000123522
1.60249e-11
0.000123522
-9.46908e-12
0.000123522
-3.36928e-11
0.000123522
-5.35663e-11
0.000123522
-7.16528e-11
0.000123522
-8.74476e-11
0.000123522
-9.93719e-11
0.000123522
-1.06543e-10
0.000123522
-1.10035e-10
0.000123522
-1.1574e-10
0.000123522
-1.14962e-10
-1.10632e-10
0.000130287
1.14592e-10
0.000130287
1.17801e-10
0.000130287
1.32794e-10
0.000130287
1.63007e-10
0.000130287
1.75662e-10
0.000130286
1.84768e-10
0.000130286
1.85406e-10
0.000130286
1.8526e-10
0.000130286
1.87052e-10
0.000130286
1.8363e-10
0.000130286
1.74513e-10
0.000130286
1.6351e-10
0.000130286
1.46682e-10
0.000130286
1.28503e-10
0.000130286
1.16125e-10
0.000130286
1.04046e-10
0.000130286
9.07544e-11
0.000130286
7.92726e-11
0.000130286
6.74928e-11
0.000130286
5.48759e-11
0.000130286
4.37551e-11
0.000130286
3.34755e-11
0.000130286
2.3363e-11
0.000130286
1.55785e-11
0.000130286
9.84528e-12
0.000130286
3.65031e-12
0.000130286
-3.07624e-12
0.000130286
-1.04097e-11
0.000130286
-1.89989e-11
0.000130286
-2.68211e-11
0.000130286
-3.2932e-11
0.000130286
-3.84601e-11
0.000130286
-4.28782e-11
0.000130286
-4.57275e-11
0.000130286
-4.92763e-11
0.000130286
-5.43917e-11
0.000130286
-5.87318e-11
0.000130286
-6.13026e-11
0.000130286
-6.30522e-11
0.000130286
-6.41831e-11
0.000130286
-6.49488e-11
0.000130286
-6.60873e-11
0.000130286
-6.70693e-11
0.000130286
-6.6783e-11
0.000130286
-6.50741e-11
0.000130286
-6.29456e-11
0.000130286
-6.14406e-11
0.000130286
-6.02338e-11
0.000130286
-5.7431e-11
0.000130286
-5.20195e-11
0.000130286
-4.48045e-11
0.000130286
-3.66225e-11
0.000130286
-2.63477e-11
0.000130286
-1.25713e-11
0.000130286
4.70581e-12
0.000130286
2.4648e-11
0.000130286
4.50777e-11
0.000130286
6.43519e-11
0.000130286
8.24846e-11
0.000130286
1.00956e-10
0.000130286
1.2053e-10
0.000130286
1.39775e-10
0.000130286
1.55946e-10
0.000130286
1.67084e-10
0.000130286
1.7322e-10
0.000130286
1.7559e-10
0.000130286
1.74572e-10
0.000130286
1.68786e-10
0.000130286
1.56398e-10
0.000130286
1.37116e-10
0.000130286
1.12103e-10
0.000130286
8.27526e-11
0.000130286
4.99495e-11
0.000130286
1.40667e-11
0.000130286
-2.41403e-11
0.000130286
-6.25359e-11
0.000130286
-9.82432e-11
0.000130286
-1.28908e-10
0.000130286
-1.53655e-10
0.000130286
-1.73021e-10
0.000130286
-1.87377e-10
0.000130286
-1.95652e-10
0.000130286
-1.96264e-10
0.000130286
-1.89177e-10
0.000130286
-1.76104e-10
0.000130286
-1.58839e-10
0.000130286
-1.38133e-10
0.000130286
-1.13793e-10
0.000130286
-8.60511e-11
0.000130286
-5.61447e-11
0.000130286
-2.64831e-11
0.000130286
7.9618e-13
0.000130286
2.53023e-11
0.000130286
4.85182e-11
0.000130286
7.16518e-11
0.000130286
9.37323e-11
0.000130286
1.11944e-10
0.000130286
1.24406e-10
0.000130286
1.31775e-10
0.000130286
1.3553e-10
0.000130286
1.35915e-10
0.000130286
1.32348e-10
0.000130286
1.24239e-10
0.000130286
1.11236e-10
0.000130286
9.35073e-11
0.000130286
7.19653e-11
0.000130286
4.72983e-11
0.000130286
1.94458e-11
0.000130286
-1.11149e-11
0.000130286
-4.24164e-11
0.000130286
-7.18621e-11
0.000130286
-9.73187e-11
0.000130286
-1.18374e-10
0.000130286
-1.35462e-10
0.000130286
-1.4804e-10
0.000130286
-1.54564e-10
0.000130286
-1.53619e-10
0.000130286
-1.44402e-10
0.000130286
-1.2711e-10
0.000130286
-1.03894e-10
0.000130286
-7.75237e-11
0.000130286
-4.85428e-11
0.000130286
-1.63529e-11
0.000130286
1.79847e-11
0.000130286
5.20735e-11
0.000130286
8.3636e-11
0.000130286
1.11335e-10
0.000130286
1.34684e-10
0.000130286
1.52656e-10
0.000130286
1.63278e-10
0.000130286
1.65745e-10
0.000130286
1.61125e-10
0.000130286
1.50665e-10
0.000130286
1.35829e-10
0.000130286
1.17574e-10
0.000130286
9.58309e-11
0.000130286
7.02828e-11
0.000130286
4.26952e-11
0.000130286
1.63232e-11
0.000130286
-9.42695e-12
0.000130286
-3.56075e-11
0.000130286
-5.75164e-11
0.000130286
-7.63981e-11
0.000130286
-9.36214e-11
0.000130286
-1.05218e-10
0.000130286
-1.16495e-10
0.000130286
-1.21657e-10
0.000130286
-1.26696e-10
0.000130286
-1.27641e-10
-1.2112e-10
0.000132534
1.40235e-10
0.000132534
1.54857e-10
0.000132534
1.7125e-10
0.000132534
1.99126e-10
0.000132534
2.1967e-10
0.000132534
2.34657e-10
0.000132534
2.46465e-10
0.000132534
2.45404e-10
0.000132534
2.45249e-10
0.000132533
2.42027e-10
0.000132533
2.30263e-10
0.000132533
2.16052e-10
0.000132533
1.98213e-10
0.000132533
1.76362e-10
0.000132533
1.58897e-10
0.000132533
1.44118e-10
0.000132533
1.26691e-10
0.000132533
1.09249e-10
0.000132533
9.29939e-11
0.000132533
7.69428e-11
0.000132533
6.31908e-11
0.000132533
5.25141e-11
0.000132533
4.24558e-11
0.000132533
3.20772e-11
0.000132533
2.15626e-11
0.000132533
1.01473e-11
0.000132533
-9.6018e-13
0.000132533
-1.04159e-11
0.000132533
-1.87379e-11
0.000132533
-2.55598e-11
0.000132533
-3.01832e-11
0.000132533
-3.52318e-11
0.000132533
-4.12265e-11
0.000132533
-4.56646e-11
0.000132533
-4.8665e-11
0.000132533
-5.2829e-11
0.000132533
-5.78426e-11
0.000132533
-6.13222e-11
0.000132533
-6.29769e-11
0.000132533
-6.40481e-11
0.000132533
-6.54967e-11
0.000132533
-6.76333e-11
0.000132533
-6.98456e-11
0.000132533
-7.12104e-11
0.000132533
-7.11171e-11
0.000132533
-6.92111e-11
0.000132533
-6.62202e-11
0.000132533
-6.3627e-11
0.000132533
-6.12472e-11
0.000132533
-5.67321e-11
0.000132533
-4.82284e-11
0.000132533
-3.59374e-11
0.000132533
-2.08278e-11
0.000132533
-3.68169e-12
0.000132533
1.44262e-11
0.000132533
3.33358e-11
0.000132533
5.26325e-11
0.000132533
7.15974e-11
0.000132533
8.96036e-11
0.000132533
1.06619e-10
0.000132533
1.23044e-10
0.000132533
1.38762e-10
0.000132533
1.52535e-10
0.000132533
1.6255e-10
0.000132533
1.67602e-10
0.000132533
1.67936e-10
0.000132533
1.64523e-10
0.000132533
1.57476e-10
0.000132533
1.45671e-10
0.000132533
1.27882e-10
0.000132533
1.03846e-10
0.000132533
7.46496e-11
0.000132533
4.20386e-11
0.000132533
7.7597e-12
0.000132533
-2.69519e-11
0.000132533
-6.14166e-11
0.000132533
-9.48811e-11
0.000132533
-1.25755e-10
0.000132533
-1.51971e-10
0.000132533
-1.72178e-10
0.000132533
-1.86366e-10
0.000132533
-1.94856e-10
0.000132533
-1.97045e-10
0.000132533
-1.91818e-10
0.000132533
-1.79206e-10
0.000132533
-1.60589e-10
0.000132533
-1.37724e-10
0.000132533
-1.12133e-10
0.000132533
-8.49884e-11
0.000132533
-5.68252e-11
0.000132533
-2.79922e-11
0.000132533
7.73003e-13
0.000132533
2.78815e-11
0.000132533
5.23281e-11
0.000132533
7.44841e-11
0.000132533
9.48462e-11
0.000132533
1.12386e-10
0.000132533
1.24904e-10
0.000132533
1.31704e-10
0.000132533
1.34238e-10
0.000132533
1.34001e-10
0.000132533
1.31082e-10
0.000132533
1.24524e-10
0.000132533
1.13109e-10
0.000132533
9.58812e-11
0.000132533
7.32066e-11
0.000132533
4.70207e-11
0.000132533
1.92973e-11
0.000132533
-9.24143e-12
0.000132533
-3.83404e-11
0.000132533
-6.73975e-11
0.000132533
-9.44715e-11
0.000132533
-1.17261e-10
0.000132533
-1.34731e-10
0.000132533
-1.4658e-10
0.000132533
-1.52273e-10
0.000132533
-1.51286e-10
0.000132533
-1.43261e-10
0.000132533
-1.27817e-10
0.000132533
-1.05606e-10
0.000132533
-7.90121e-11
0.000132533
-4.99462e-11
0.000132533
-1.8519e-11
0.000132533
1.50661e-11
0.000132533
4.9418e-11
0.000132533
8.23698e-11
0.000132533
1.1126e-10
0.000132533
1.33998e-10
0.000132533
1.50035e-10
0.000132533
1.59561e-10
0.000132533
1.62755e-10
0.000132533
1.60296e-10
0.000132533
1.52068e-10
0.000132533
1.37378e-10
0.000132533
1.17207e-10
0.000132533
9.38552e-11
0.000132533
6.87339e-11
0.000132533
4.18291e-11
0.000132533
1.52156e-11
0.000132533
-8.94775e-12
0.000132533
-3.31599e-11
0.000132533
-5.6272e-11
0.000132533
-7.73361e-11
0.000132533