/*--------------------------------*- C++ -*----------------------------------*\
| =========                 |                                                 |
| \\      /  F ield         | OpenFOAM: The Open Source CFD Toolbox           |
|  \\    /   O peration     | Version:  2406                                  |
|   \\  /    A nd           | Website:  www.openfoam.com                      |
|    \\/     M anipulation  |                                                 |
\*---------------------------------------------------------------------------*/
FoamFile
{
    version     2.0;
    format      ascii;
    arch        "LSB;label=32;scalar=64";
    class       volVectorField;
    location    "0.2";
    object      U;
}
// * * * * * * * * * * * * * * * * * * * * * * * * * * * * * * * * * * * * * //

dimensions      [0 1 -1 0 0 0 0];

internalField   nonuniform List<vector> 
2250
(
(0.273952 4.3563e-08 0)
(0.273952 -6.84481e-08 0)
(0.273952 -7.27848e-08 0)
(0.273952 -9.44584e-08 0)
(0.273953 -9.37423e-08 0)
(0.273953 -1.91088e-07 0)
(0.273953 -7.55375e-08 0)
(0.273953 -8.40007e-09 0)
(0.273954 -7.98095e-08 0)
(0.273954 -1.46189e-07 0)
(0.273954 -1.01217e-07 0)
(0.273954 2.59791e-08 0)
(0.273955 1.09009e-07 0)
(0.273955 9.41979e-08 0)
(0.273955 1.65071e-08 0)
(0.273955 -5.07682e-08 0)
(0.273955 -5.82278e-08 0)
(0.273955 -1.68848e-08 0)
(0.273955 2.51585e-08 0)
(0.273955 3.78693e-08 0)
(0.273955 2.12001e-08 0)
(0.273955 4.8626e-09 0)
(0.273955 4.31952e-09 0)
(0.273955 1.20637e-08 0)
(0.273955 1.21151e-08 0)
(0.273955 -1.18301e-08 0)
(0.273955 -4.55175e-08 0)
(0.273955 -5.98182e-08 0)
(0.273955 -6.1027e-08 0)
(0.273955 -6.90806e-08 0)
(0.273955 -8.11851e-08 0)
(0.273955 -9.04567e-08 0)
(0.273956 -1.03532e-07 0)
(0.273956 -1.12796e-07 0)
(0.273956 -1.01292e-07 0)
(0.273956 -6.82463e-08 0)
(0.273956 -2.67881e-08 0)
(0.273957 4.1471e-09 0)
(0.273957 8.26208e-09 0)
(0.273957 -3.90634e-09 0)
(0.273957 -3.50262e-09 0)
(0.273957 1.84636e-08 0)
(0.273957 4.78139e-08 0)
(0.273957 6.41793e-08 0)
(0.273957 5.53442e-08 0)
(0.273957 3.2421e-08 0)
(0.273957 2.56404e-08 0)
(0.273957 4.45786e-08 0)
(0.273957 6.39374e-08 0)
(0.273957 6.0147e-08 0)
(0.273957 3.24421e-08 0)
(0.273957 -2.38758e-10 0)
(0.273957 -1.39499e-08 0)
(0.273957 -5.07118e-09 0)
(0.273957 6.25314e-09 0)
(0.273957 -9.64267e-10 0)
(0.273957 -2.34191e-08 0)
(0.273957 -3.50485e-08 0)
(0.273957 -1.83626e-08 0)
(0.273957 1.19984e-08 0)
(0.273957 2.74772e-08 0)
(0.273957 2.02331e-08 0)
(0.273957 1.54063e-08 0)
(0.273957 4.01256e-08 0)
(0.273957 8.86135e-08 0)
(0.273956 1.27045e-07 0)
(0.273956 1.27355e-07 0)
(0.273956 9.53458e-08 0)
(0.273956 6.45738e-08 0)
(0.273956 6.26583e-08 0)
(0.273956 8.22216e-08 0)
(0.273955 8.98852e-08 0)
(0.273955 6.43703e-08 0)
(0.273955 2.02575e-08 0)
(0.273955 -6.55344e-09 0)
(0.273955 2.35482e-09 0)
(0.273955 3.12618e-08 0)
(0.273955 4.39342e-08 0)
(0.273955 2.32361e-08 0)
(0.273955 -1.22123e-08 0)
(0.273955 -2.98744e-08 0)
(0.273955 -1.97982e-08 0)
(0.273956 -2.06494e-09 0)
(0.273956 -5.15246e-09 0)
(0.273956 -3.46261e-08 0)
(0.273956 -6.52713e-08 0)
(0.273956 -6.95458e-08 0)
(0.273956 -4.89953e-08 0)
(0.273956 -2.88624e-08 0)
(0.273956 -2.52522e-08 0)
(0.273957 -2.94464e-08 0)
(0.273957 -1.79784e-08 0)
(0.273957 1.61122e-08 0)
(0.273957 5.19052e-08 0)
(0.273957 5.91822e-08 0)
(0.273957 3.25827e-08 0)
(0.273956 2.60785e-10 0)
(0.273956 -2.49541e-09 0)
(0.273956 2.84695e-08 0)
(0.273956 6.00798e-08 0)
(0.273956 5.30263e-08 0)
(0.273956 5.21087e-09 0)
(0.273956 -4.27694e-08 0)
(0.273956 -4.77702e-08 0)
(0.273955 -1.52922e-08 0)
(0.273955 1.24165e-08 0)
(0.273955 5.26476e-09 0)
(0.273955 -3.03204e-08 0)
(0.273955 -6.06772e-08 0)
(0.273955 -6.39593e-08 0)
(0.273955 -4.97419e-08 0)
(0.273955 -4.23373e-08 0)
(0.273956 -5.45792e-08 0)
(0.273956 -7.41186e-08 0)
(0.273956 -7.57327e-08 0)
(0.273956 -4.87109e-08 0)
(0.273956 -1.31895e-08 0)
(0.273957 -1.36556e-09 0)
(0.273957 -1.8777e-08 0)
(0.273957 -3.68249e-08 0)
(0.273957 -2.8687e-08 0)
(0.273957 3.83567e-09 0)
(0.273957 3.49178e-08 0)
(0.273957 4.05606e-08 0)
(0.273957 2.3059e-08 0)
(0.273957 7.60094e-09 0)
(0.273957 1.37226e-08 0)
(0.273956 3.49725e-08 0)
(0.273956 4.81103e-08 0)
(0.273956 3.6248e-08 0)
(0.273956 7.94969e-09 0)
(0.273956 -9.22777e-09 0)
(0.273956 1.34447e-09 0)
(0.273956 2.22244e-08 0)
(0.273956 2.58171e-08 0)
(0.273956 1.26269e-08 0)
(0.273956 7.49281e-10 0)
(0.273956 -7.3955e-09 0)
(0.273956 -2.03825e-08 0)
(0.273956 -4.00745e-08 0)
(0.273956 -6.07177e-08 0)
(0.273956 -6.75223e-08 0)
(0.273956 -5.84763e-08 0)
(0.273956 -4.57881e-08 0)
(0.273956 -4.51509e-08 0)
(0.273956 -5.65496e-08 0)
(0.273956 -5.01853e-08 0)
(0.273956 -2.07398e-08 0)
(0.273956 2.60566e-08 0)
(0.273956 -7.60773e-09 0)
(0.740494 1.31897e-07 0)
(0.740493 -6.19354e-08 0)
(0.740493 -2.27107e-07 0)
(0.740493 -3.6653e-07 0)
(0.740494 -4.00439e-07 0)
(0.740494 -5.20466e-07 0)
(0.740494 -4.31648e-07 0)
(0.740494 -3.6602e-07 0)
(0.740495 -3.93502e-07 0)
(0.740495 -3.93882e-07 0)
(0.740495 -2.92587e-07 0)
(0.740495 -1.40474e-07 0)
(0.740496 -6.16951e-08 0)
(0.740496 -8.05187e-08 0)
(0.740496 -1.14619e-07 0)
(0.740496 -1.14018e-07 0)
(0.740496 -1.04171e-07 0)
(0.740496 -1.01278e-07 0)
(0.740496 -7.20145e-08 0)
(0.740496 -1.19484e-08 0)
(0.740496 3.05155e-08 0)
(0.740497 4.34601e-08 0)
(0.740497 2.19985e-08 0)
(0.740497 -2.47584e-08 0)
(0.740497 -5.52296e-08 0)
(0.740496 -7.73889e-08 0)
(0.740496 -1.06561e-07 0)
(0.740497 -1.1336e-07 0)
(0.740497 -1.11258e-07 0)
(0.740497 -1.45079e-07 0)
(0.740497 -1.94869e-07 0)
(0.740497 -2.18579e-07 0)
(0.740498 -2.28096e-07 0)
(0.740498 -2.29062e-07 0)
(0.740498 -1.98768e-07 0)
(0.740499 -1.403e-07 0)
(0.740499 -7.85562e-08 0)
(0.740499 -3.57434e-08 0)
(0.740499 -3.77605e-08 0)
(0.740499 -7.61369e-08 0)
(0.740499 -1.00683e-07 0)
(0.740499 -8.3387e-08 0)
(0.7405 -3.28678e-08 0)
(0.7405 2.19026e-08 0)
(0.7405 3.62425e-08 0)
(0.7405 -4.60685e-09 0)
(0.7405 -4.912e-08 0)
(0.7405 -4.52603e-08 0)
(0.7405 -6.4205e-09 0)
(0.7405 2.26435e-08 0)
(0.7405 1.54432e-08 0)
(0.7405 -2.32736e-08 0)
(0.740501 -6.07187e-08 0)
(0.740501 -6.69753e-08 0)
(0.740501 -4.58966e-08 0)
(0.740501 -2.80418e-08 0)
(0.740501 -3.24817e-08 0)
(0.740501 -4.05744e-08 0)
(0.740501 -1.67343e-08 0)
(0.7405 4.675e-08 0)
(0.7405 1.17295e-07 0)
(0.7405 1.60057e-07 0)
(0.7405 1.83439e-07 0)
(0.740499 2.28389e-07 0)
(0.740499 3.12065e-07 0)
(0.740499 4.015e-07 0)
(0.740498 4.41685e-07 0)
(0.740498 4.0629e-07 0)
(0.740498 3.24314e-07 0)
(0.740497 2.56751e-07 0)
(0.740497 2.35833e-07 0)
(0.740497 2.33556e-07 0)
(0.740497 1.96472e-07 0)
(0.740497 1.04873e-07 0)
(0.740497 -2.90873e-09 0)
(0.740497 -7.26135e-08 0)
(0.740497 -8.69545e-08 0)
(0.740497 -8.21836e-08 0)
(0.740497 -1.06683e-07 0)
(0.740497 -1.68634e-07 0)
(0.740498 -2.30936e-07 0)
(0.740498 -2.55372e-07 0)
(0.740498 -2.40309e-07 0)
(0.740499 -2.21509e-07 0)
(0.740499 -2.31975e-07 0)
(0.740499 -2.60261e-07 0)
(0.7405 -2.60232e-07 0)
(0.7405 -2.04646e-07 0)
(0.7405 -1.17306e-07 0)
(0.7405 -4.41856e-08 0)
(0.7405 -5.31776e-09 0)
(0.740501 2.14955e-08 0)
(0.740501 6.94157e-08 0)
(0.7405 1.3877e-07 0)
(0.7405 1.89787e-07 0)
(0.7405 1.87811e-07 0)
(0.7405 1.47377e-07 0)
(0.7405 1.24348e-07 0)
(0.740499 1.59467e-07 0)
(0.740499 2.33439e-07 0)
(0.740499 2.73555e-07 0)
(0.740498 2.27035e-07 0)
(0.740498 1.21965e-07 0)
(0.740498 4.26169e-08 0)
(0.740497 3.4571e-08 0)
(0.740497 6.36592e-08 0)
(0.740497 6.26846e-08 0)
(0.740497 -2.88246e-09 0)
(0.740497 -1.0391e-07 0)
(0.740497 -1.82526e-07 0)
(0.740497 -2.13178e-07 0)
(0.740497 -2.16926e-07 0)
(0.740498 -2.30939e-07 0)
(0.740498 -2.69692e-07 0)
(0.740499 -3.06767e-07 0)
(0.740499 -3.00009e-07 0)
(0.740499 -2.45171e-07 0)
(0.7405 -1.89256e-07 0)
(0.7405 -1.70999e-07 0)
(0.7405 -1.69036e-07 0)
(0.740501 -1.36044e-07 0)
(0.740501 -5.32871e-08 0)
(0.740501 5.30603e-08 0)
(0.740501 1.3313e-07 0)
(0.7405 1.59813e-07 0)
(0.7405 1.54606e-07 0)
(0.7405 1.59254e-07 0)
(0.7405 1.89749e-07 0)
(0.740499 2.27134e-07 0)
(0.740499 2.39991e-07 0)
(0.740499 2.18151e-07 0)
(0.740499 1.88211e-07 0)
(0.740498 1.82723e-07 0)
(0.740498 1.92456e-07 0)
(0.740498 1.8033e-07 0)
(0.740498 1.37886e-07 0)
(0.740497 8.78963e-08 0)
(0.740497 3.55632e-08 0)
(0.740497 -2.90657e-08 0)
(0.740497 -9.95407e-08 0)
(0.740497 -1.67367e-07 0)
(0.740497 -2.10962e-07 0)
(0.740498 -2.16272e-07 0)
(0.740498 -2.0027e-07 0)
(0.740498 -1.90731e-07 0)
(0.740498 -2.03586e-07 0)
(0.740498 -1.88237e-07 0)
(0.740499 -1.27061e-07 0)
(0.740499 -4.81772e-08 0)
(0.740499 -9.48551e-08 0)
(1.12886 3.10846e-08 0)
(1.12886 4.51023e-08 0)
(1.12886 -2.05858e-07 0)
(1.12886 -3.49078e-07 0)
(1.12886 -4.87867e-07 0)
(1.12886 -5.14489e-07 0)
(1.12886 -5.6368e-07 0)
(1.12886 -6.26645e-07 0)
(1.12886 -5.61217e-07 0)
(1.12886 -3.90572e-07 0)
(1.12886 -2.60307e-07 0)
(1.12886 -2.3214e-07 0)
(1.12886 -2.85716e-07 0)
(1.12886 -3.33094e-07 0)
(1.12886 -2.78161e-07 0)
(1.12886 -1.75275e-07 0)
(1.12886 -1.18938e-07 0)
(1.12886 -1.47484e-07 0)
(1.12886 -1.77744e-07 0)
(1.12886 -1.28154e-07 0)
(1.12886 -5.50094e-08 0)
(1.12886 -3.19981e-08 0)
(1.12886 -7.67929e-08 0)
(1.12886 -1.73101e-07 0)
(1.12886 -2.37742e-07 0)
(1.12886 -2.35923e-07 0)
(1.12886 -2.35327e-07 0)
(1.12886 -2.60113e-07 0)
(1.12886 -2.8473e-07 0)
(1.12886 -3.27063e-07 0)
(1.12886 -3.89604e-07 0)
(1.12886 -4.18831e-07 0)
(1.12886 -3.92854e-07 0)
(1.12886 -3.40551e-07 0)
(1.12886 -2.79752e-07 0)
(1.12886 -2.23692e-07 0)
(1.12886 -1.92895e-07 0)
(1.12886 -1.81048e-07 0)
(1.12886 -1.7873e-07 0)
(1.12886 -1.88767e-07 0)
(1.12886 -2.00015e-07 0)
(1.12886 -2.02531e-07 0)
(1.12886 -1.97709e-07 0)
(1.12886 -1.77579e-07 0)
(1.12886 -1.5049e-07 0)
(1.12886 -1.53848e-07 0)
(1.12886 -1.95303e-07 0)
(1.12886 -2.27863e-07 0)
(1.12886 -2.11924e-07 0)
(1.12886 -1.59398e-07 0)
(1.12886 -1.07607e-07 0)
(1.12886 -8.77181e-08 0)
(1.12886 -1.0211e-07 0)
(1.12886 -1.17109e-07 0)
(1.12886 -9.55401e-08 0)
(1.12886 -2.99638e-08 0)
(1.12886 5.17045e-08 0)
(1.12886 1.14954e-07 0)
(1.12886 1.58146e-07 0)
(1.12886 2.18219e-07 0)
(1.12886 3.25867e-07 0)
(1.12886 4.66737e-07 0)
(1.12886 5.96767e-07 0)
(1.12886 6.89855e-07 0)
(1.12886 7.54111e-07 0)
(1.12886 8.06085e-07 0)
(1.12886 8.4313e-07 0)
(1.12886 8.37711e-07 0)
(1.12886 7.63334e-07 0)
(1.12886 6.29219e-07 0)
(1.12886 4.81027e-07 0)
(1.12886 3.56693e-07 0)
(1.12886 2.50021e-07 0)
(1.12886 1.2586e-07 0)
(1.12886 -4.09932e-08 0)
(1.12886 -2.30089e-07 0)
(1.12886 -3.92273e-07 0)
(1.12886 -4.95132e-07 0)
(1.12886 -5.51521e-07 0)
(1.12886 -6.01018e-07 0)
(1.12886 -6.65207e-07 0)
(1.12886 -7.26269e-07 0)
(1.12886 -7.46319e-07 0)
(1.12886 -7.06801e-07 0)
(1.12886 -6.30795e-07 0)
(1.12886 -5.57141e-07 0)
(1.12886 -4.95899e-07 0)
(1.12886 -4.18393e-07 0)
(1.12886 -2.95657e-07 0)
(1.12886 -1.39259e-07 0)
(1.12886 7.45949e-09 0)
(1.12886 1.0849e-07 0)
(1.12886 1.70585e-07 0)
(1.12886 2.30782e-07 0)
(1.12886 3.17104e-07 0)
(1.12886 4.1714e-07 0)
(1.12886 4.95817e-07 0)
(1.12886 5.34008e-07 0)
(1.12886 5.4518e-07 0)
(1.12886 5.57469e-07 0)
(1.12886 5.75632e-07 0)
(1.12886 5.65257e-07 0)
(1.12886 4.95114e-07 0)
(1.12886 3.80003e-07 0)
(1.12886 2.6852e-07 0)
(1.12886 1.9237e-07 0)
(1.12886 1.34758e-07 0)
(1.12886 5.01081e-08 0)
(1.12886 -8.90796e-08 0)
(1.12886 -2.59673e-07 0)
(1.12886 -4.11194e-07 0)
(1.12886 -5.14724e-07 0)
(1.12886 -5.74282e-07 0)
(1.12886 -6.17285e-07 0)
(1.12886 -6.6427e-07 0)
(1.12886 -7.01951e-07 0)
(1.12886 -6.91733e-07 0)
(1.12886 -6.16832e-07 0)
(1.12886 -5.02614e-07 0)
(1.12886 -3.80549e-07 0)
(1.12886 -2.60516e-07 0)
(1.12886 -1.34392e-07 0)
(1.12886 1.20512e-08 0)
(1.12886 1.75115e-07 0)
(1.12886 3.2399e-07 0)
(1.12886 4.30603e-07 0)
(1.12886 4.94834e-07 0)
(1.12886 5.37158e-07 0)
(1.12886 5.77641e-07 0)
(1.12886 6.19998e-07 0)
(1.12886 6.45312e-07 0)
(1.12886 6.33289e-07 0)
(1.12886 5.87794e-07 0)
(1.12886 5.26916e-07 0)
(1.12886 4.55314e-07 0)
(1.12886 3.62132e-07 0)
(1.12886 2.45733e-07 0)
(1.12886 1.10824e-07 0)
(1.12886 -3.76461e-08 0)
(1.12886 -1.78532e-07 0)
(1.12886 -2.97892e-07 0)
(1.12886 -3.89681e-07 0)
(1.12886 -4.37589e-07 0)
(1.12886 -4.60354e-07 0)
(1.12886 -4.73431e-07 0)
(1.12886 -4.78728e-07 0)
(1.12886 -4.36343e-07 0)
(1.12886 -3.56533e-07 0)
(1.12886 -3.23126e-07 0)
(1.12886 -3.70721e-07 0)
(1.44203 3.72096e-07 0)
(1.44203 2.72717e-07 0)
(1.44202 1.3446e-07 0)
(1.44202 4.60048e-08 0)
(1.44202 -1.75673e-07 0)
(1.44202 -2.96879e-07 0)
(1.44202 -2.93342e-07 0)
(1.44202 -2.47713e-07 0)
(1.44202 -2.63304e-07 0)
(1.44202 -2.23553e-07 0)
(1.44202 -1.51951e-07 0)
(1.44202 -1.14585e-07 0)
(1.44202 -1.18391e-07 0)
(1.44202 -1.37906e-07 0)
(1.44202 -1.55692e-07 0)
(1.44202 -1.35858e-07 0)
(1.44202 -8.51512e-08 0)
(1.44202 -7.21149e-08 0)
(1.44202 -1.03655e-07 0)
(1.44202 -1.23946e-07 0)
(1.44202 -1.31037e-07 0)
(1.44202 -1.46127e-07 0)
(1.44202 -1.66356e-07 0)
(1.44202 -2.13192e-07 0)
(1.44202 -2.71311e-07 0)
(1.44202 -2.96275e-07 0)
(1.44202 -3.2612e-07 0)
(1.44202 -3.93944e-07 0)
(1.44202 -4.52482e-07 0)
(1.44202 -4.78381e-07 0)
(1.44202 -4.95803e-07 0)
(1.44202 -5.01456e-07 0)
(1.44202 -4.81177e-07 0)
(1.44202 -4.51998e-07 0)
(1.44202 -4.26092e-07 0)
(1.44202 -4.05951e-07 0)
(1.44202 -4.05595e-07 0)
(1.44202 -4.16006e-07 0)
(1.44202 -4.11884e-07 0)
(1.44202 -3.93971e-07 0)
(1.44202 -3.74157e-07 0)
(1.44202 -3.65262e-07 0)
(1.44202 -3.83813e-07 0)
(1.44202 -4.11324e-07 0)
(1.44202 -4.02456e-07 0)
(1.44202 -3.57258e-07 0)
(1.44202 -3.21787e-07 0)
(1.44202 -3.18754e-07 0)
(1.44202 -3.27836e-07 0)
(1.44202 -3.2104e-07 0)
(1.44202 -2.8405e-07 0)
(1.44202 -2.23236e-07 0)
(1.44202 -1.59563e-07 0)
(1.44202 -1.03023e-07 0)
(1.44202 -4.21018e-08 0)
(1.44202 4.25658e-08 0)
(1.44202 1.60527e-07 0)
(1.44202 2.95646e-07 0)
(1.44202 4.24394e-07 0)
(1.44202 5.46648e-07 0)
(1.44202 6.88118e-07 0)
(1.44202 8.6632e-07 0)
(1.44202 1.05862e-06 0)
(1.44202 1.21725e-06 0)
(1.44202 1.30856e-06 0)
(1.44202 1.33511e-06 0)
(1.44202 1.32593e-06 0)
(1.44202 1.30198e-06 0)
(1.44202 1.24763e-06 0)
(1.44202 1.12474e-06 0)
(1.44202 9.19048e-07 0)
(1.44202 6.59255e-07 0)
(1.44202 3.90748e-07 0)
(1.44202 1.38924e-07 0)
(1.44202 -1.07611e-07 0)
(1.44202 -3.67222e-07 0)
(1.44202 -6.35864e-07 0)
(1.44202 -8.84559e-07 0)
(1.44202 -1.08008e-06 0)
(1.44202 -1.21082e-06 0)
(1.44202 -1.28835e-06 0)
(1.44202 -1.32841e-06 0)
(1.44202 -1.33048e-06 0)
(1.44202 -1.27598e-06 0)
(1.44202 -1.15575e-06 0)
(1.44202 -9.92589e-07 0)
(1.44202 -8.25901e-07 0)
(1.44202 -6.74329e-07 0)
(1.44202 -5.22224e-07 0)
(1.44202 -3.44574e-07 0)
(1.44202 -1.39182e-07 0)
(1.44202 6.65157e-08 0)
(1.44202 2.40732e-07 0)
(1.44202 3.8023e-07 0)
(1.44202 5.13416e-07 0)
(1.44202 6.67174e-07 0)
(1.44202 8.32426e-07 0)
(1.44202 9.66443e-07 0)
(1.44202 1.02945e-06 0)
(1.44202 1.02089e-06 0)
(1.44202 9.79148e-07 0)
(1.44202 9.33625e-07 0)
(1.44202 8.75916e-07 0)
(1.44202 7.76862e-07 0)
(1.44202 6.2307e-07 0)
(1.44202 4.31312e-07 0)
(1.44202 2.32552e-07 0)
(1.44202 4.55907e-08 0)
(1.44202 -1.41003e-07 0)
(1.44202 -3.49132e-07 0)
(1.44202 -5.77735e-07 0)
(1.44202 -8.02415e-07 0)
(1.44202 -9.865e-07 0)
(1.44202 -1.10425e-06 0)
(1.44202 -1.1621e-06 0)
(1.44202 -1.18157e-06 0)
(1.44202 -1.16181e-06 0)
(1.44202 -1.07635e-06 0)
(1.44202 -9.12012e-07 0)
(1.44202 -6.89393e-07 0)
(1.44202 -4.49386e-07 0)
(1.44202 -2.28757e-07 0)
(1.44202 -2.5421e-08 0)
(1.44202 1.9657e-07 0)
(1.44202 4.51734e-07 0)
(1.44202 7.04578e-07 0)
(1.44202 9.01928e-07 0)
(1.44202 1.02008e-06 0)
(1.44202 1.0782e-06 0)
(1.44202 1.11309e-06 0)
(1.44202 1.13582e-06 0)
(1.44202 1.12381e-06 0)
(1.44202 1.05864e-06 0)
(1.44202 9.44807e-07 0)
(1.44202 7.94789e-07 0)
(1.44202 6.12243e-07 0)
(1.44202 3.99988e-07 0)
(1.44202 1.78222e-07 0)
(1.44202 -3.349e-08 0)
(1.44202 -2.2126e-07 0)
(1.44202 -3.84884e-07 0)
(1.44202 -5.38488e-07 0)
(1.44202 -6.54344e-07 0)
(1.44202 -7.33881e-07 0)
(1.44202 -7.95946e-07 0)
(1.44202 -8.16716e-07 0)
(1.44202 -7.89723e-07 0)
(1.44202 -7.49329e-07 0)
(1.44202 -7.65454e-07 0)
(1.44202 -7.95858e-07 0)
(1.68263 1.05588e-06 0)
(1.68263 8.08271e-07 0)
(1.68263 6.9433e-07 0)
(1.68262 4.57583e-07 0)
(1.68262 3.87641e-07 0)
(1.68262 3.00144e-07 0)
(1.68262 2.72795e-07 0)
(1.68262 4.08897e-07 0)
(1.68262 3.73135e-07 0)
(1.68262 2.40976e-07 0)
(1.68262 2.17677e-07 0)
(1.68262 2.56987e-07 0)
(1.68262 2.72431e-07 0)
(1.68262 2.76534e-07 0)
(1.68262 1.95784e-07 0)
(1.68262 8.83612e-08 0)
(1.68262 4.94069e-08 0)
(1.68262 5.51032e-08 0)
(1.68262 5.21822e-08 0)
(1.68262 2.97054e-08 0)
(1.68262 -2.19184e-08 0)
(1.68262 -8.80411e-08 0)
(1.68262 -1.20586e-07 0)
(1.68262 -1.45378e-07 0)
(1.68262 -2.1452e-07 0)
(1.68262 -2.90516e-07 0)
(1.68262 -3.42673e-07 0)
(1.68262 -3.97931e-07 0)
(1.68262 -4.49661e-07 0)
(1.68262 -4.68597e-07 0)
(1.68262 -4.65411e-07 0)
(1.68262 -4.62073e-07 0)
(1.68262 -4.71381e-07 0)
(1.68262 -5.09177e-07 0)
(1.68262 -5.61347e-07 0)
(1.68262 -5.93592e-07 0)
(1.68262 -6.06996e-07 0)
(1.68262 -6.20437e-07 0)
(1.68262 -6.32992e-07 0)
(1.68262 -6.46605e-07 0)
(1.68262 -6.59894e-07 0)
(1.68262 -6.55349e-07 0)
(1.68262 -6.37729e-07 0)
(1.68262 -6.3042e-07 0)
(1.68262 -6.24486e-07 0)
(1.68262 -5.95017e-07 0)
(1.68262 -5.476e-07 0)
(1.68262 -5.09199e-07 0)
(1.68262 -4.93222e-07 0)
(1.68262 -4.85349e-07 0)
(1.68262 -4.52504e-07 0)
(1.68262 -3.69694e-07 0)
(1.68262 -2.46742e-07 0)
(1.68262 -1.133e-07 0)
(1.68262 1.32611e-08 0)
(1.68262 1.36102e-07 0)
(1.68262 2.7742e-07 0)
(1.68262 4.56695e-07 0)
(1.68262 6.70358e-07 0)
(1.68262 8.93172e-07 0)
(1.68262 1.1042e-06 0)
(1.68262 1.30211e-06 0)
(1.68262 1.48973e-06 0)
(1.68262 1.65764e-06 0)
(1.68262 1.78199e-06 0)
(1.68262 1.83871e-06 0)
(1.68262 1.82193e-06 0)
(1.68262 1.74846e-06 0)
(1.68261 1.63473e-06 0)
(1.68261 1.47261e-06 0)
(1.68261 1.2396e-06 0)
(1.68261 9.28414e-07 0)
(1.68261 5.62032e-07 0)
(1.68261 1.7865e-07 0)
(1.68261 -1.92344e-07 0)
(1.68261 -5.47537e-07 0)
(1.68261 -8.95571e-07 0)
(1.68261 -1.23315e-06 0)
(1.68262 -1.53577e-06 0)
(1.68262 -1.76752e-06 0)
(1.68262 -1.90176e-06 0)
(1.68262 -1.93669e-06 0)
(1.68262 -1.89444e-06 0)
(1.68262 -1.79864e-06 0)
(1.68262 -1.6573e-06 0)
(1.68262 -1.47157e-06 0)
(1.68262 -1.25249e-06 0)
(1.68262 -1.01914e-06 0)
(1.68262 -7.84281e-07 0)
(1.68262 -5.45209e-07 0)
(1.68262 -2.88003e-07 0)
(1.68262 -6.98194e-09 0)
(1.68262 2.7878e-07 0)
(1.68262 5.40454e-07 0)
(1.68262 7.6056e-07 0)
(1.68262 9.47248e-07 0)
(1.68262 1.11912e-06 0)
(1.68262 1.27877e-06 0)
(1.68262 1.40215e-06 0)
(1.68262 1.45936e-06 0)
(1.68262 1.44468e-06 0)
(1.68262 1.37767e-06 0)
(1.68262 1.2768e-06 0)
(1.68262 1.14053e-06 0)
(1.68262 9.55632e-07 0)
(1.68262 7.14658e-07 0)
(1.68262 4.28079e-07 0)
(1.68262 1.25264e-07 0)
(1.68262 -1.72729e-07 0)
(1.68262 -4.69649e-07 0)
(1.68262 -7.74425e-07 0)
(1.68262 -1.07915e-06 0)
(1.68262 -1.35411e-06 0)
(1.68262 -1.55412e-06 0)
(1.68262 -1.65279e-06 0)
(1.68262 -1.65892e-06 0)
(1.68262 -1.59685e-06 0)
(1.68262 -1.47519e-06 0)
(1.68262 -1.29014e-06 0)
(1.68262 -1.04197e-06 0)
(1.68262 -7.38435e-07 0)
(1.68262 -4.0448e-07 0)
(1.68262 -6.79485e-08 0)
(1.68262 2.68747e-07 0)
(1.68262 6.15163e-07 0)
(1.68262 9.54883e-07 0)
(1.68262 1.24626e-06 0)
(1.68262 1.45526e-06 0)
(1.68262 1.57882e-06 0)
(1.68262 1.6407e-06 0)
(1.68262 1.65796e-06 0)
(1.68262 1.61777e-06 0)
(1.68262 1.507e-06 0)
(1.68262 1.33414e-06 0)
(1.68262 1.11456e-06 0)
(1.68262 8.60494e-07 0)
(1.68262 5.79952e-07 0)
(1.68262 2.96558e-07 0)
(1.68262 3.21597e-08 0)
(1.68262 -2.10203e-07 0)
(1.68262 -4.35372e-07 0)
(1.68262 -6.63232e-07 0)
(1.68262 -8.59642e-07 0)
(1.68262 -9.84959e-07 0)
(1.68262 -1.08303e-06 0)
(1.68262 -1.13747e-06 0)
(1.68262 -1.19137e-06 0)
(1.68262 -1.20935e-06 0)
(1.68262 -1.23818e-06 0)
(1.68262 -1.22511e-06 0)
(1.85284 1.32879e-06 0)
(1.85284 1.25181e-06 0)
(1.85284 1.24637e-06 0)
(1.85284 1.13245e-06 0)
(1.85284 1.27977e-06 0)
(1.85284 1.40195e-06 0)
(1.85284 1.35958e-06 0)
(1.85284 1.37248e-06 0)
(1.85284 1.3287e-06 0)
(1.85284 1.21195e-06 0)
(1.85283 1.1457e-06 0)
(1.85283 1.07515e-06 0)
(1.85283 9.42889e-07 0)
(1.85283 8.208e-07 0)
(1.85283 6.83285e-07 0)
(1.85283 5.12045e-07 0)
(1.85283 3.89622e-07 0)
(1.85283 3.26963e-07 0)
(1.85283 2.67594e-07 0)
(1.85283 2.00447e-07 0)
(1.85283 1.20657e-07 0)
(1.85283 1.09177e-08 0)
(1.85283 -9.69558e-08 0)
(1.85283 -1.81234e-07 0)
(1.85283 -2.77868e-07 0)
(1.85283 -3.77731e-07 0)
(1.85283 -4.36362e-07 0)
(1.85283 -4.71081e-07 0)
(1.85283 -5.0633e-07 0)
(1.85283 -5.3093e-07 0)
(1.85283 -5.47012e-07 0)
(1.85283 -5.6536e-07 0)
(1.85283 -5.862e-07 0)
(1.85283 -6.18205e-07 0)
(1.85283 -6.62823e-07 0)
(1.85283 -6.94649e-07 0)
(1.85283 -7.08886e-07 0)
(1.85283 -7.29974e-07 0)
(1.85283 -7.62043e-07 0)
(1.85283 -7.95696e-07 0)
(1.85283 -8.27404e-07 0)
(1.85283 -8.37374e-07 0)
(1.85283 -8.12369e-07 0)
(1.85283 -7.80251e-07 0)
(1.85283 -7.71479e-07 0)
(1.85283 -7.77693e-07 0)
(1.85283 -7.7094e-07 0)
(1.85283 -7.35575e-07 0)
(1.85283 -6.76671e-07 0)
(1.85283 -6.08268e-07 0)
(1.85283 -5.32523e-07 0)
(1.85283 -4.31259e-07 0)
(1.85283 -2.9353e-07 0)
(1.85283 -1.2653e-07 0)
(1.85283 5.72404e-08 0)
(1.85283 2.51908e-07 0)
(1.85283 4.59763e-07 0)
(1.85283 6.93195e-07 0)
(1.85283 9.58672e-07 0)
(1.85283 1.24019e-06 0)
(1.85283 1.50732e-06 0)
(1.85283 1.73747e-06 0)
(1.85283 1.92835e-06 0)
(1.85283 2.0869e-06 0)
(1.85283 2.2111e-06 0)
(1.85283 2.27994e-06 0)
(1.85283 2.26455e-06 0)
(1.85283 2.15309e-06 0)
(1.85283 1.96269e-06 0)
(1.85283 1.7178e-06 0)
(1.85283 1.4252e-06 0)
(1.85283 1.07551e-06 0)
(1.85283 6.62171e-07 0)
(1.85283 1.97957e-07 0)
(1.85283 -2.84999e-07 0)
(1.85283 -7.56504e-07 0)
(1.85283 -1.19866e-06 0)
(1.85283 -1.60063e-06 0)
(1.85283 -1.94855e-06 0)
(1.85283 -2.21942e-06 0)
(1.85283 -2.38737e-06 0)
(1.85283 -2.43902e-06 0)
(1.85283 -2.39029e-06 0)
(1.85283 -2.27631e-06 0)
(1.85283 -2.12039e-06 0)
(1.85283 -1.92083e-06 0)
(1.85283 -1.66585e-06 0)
(1.85283 -1.35804e-06 0)
(1.85283 -1.01649e-06 0)
(1.85283 -6.66478e-07 0)
(1.85283 -3.20391e-07 0)
(1.85283 2.44193e-08 0)
(1.85283 3.69286e-07 0)
(1.85283 7.00249e-07 0)
(1.85283 9.91188e-07 0)
(1.85283 1.22383e-06 0)
(1.85283 1.40571e-06 0)
(1.85283 1.56068e-06 0)
(1.85283 1.69581e-06 0)
(1.85283 1.78685e-06 0)
(1.85283 1.80273e-06 0)
(1.85283 1.73713e-06 0)
(1.85283 1.60599e-06 0)
(1.85283 1.4277e-06 0)
(1.85283 1.20939e-06 0)
(1.85283 9.43936e-07 0)
(1.85283 6.18247e-07 0)
(1.85283 2.33468e-07 0)
(1.85283 -1.82901e-07 0)
(1.85283 -5.97728e-07 0)
(1.85283 -9.86106e-07 0)
(1.85283 -1.33434e-06 0)
(1.85283 -1.63342e-06 0)
(1.85283 -1.86471e-06 0)
(1.85283 -2.00247e-06 0)
(1.85283 -2.03584e-06 0)
(1.85283 -1.97428e-06 0)
(1.85283 -1.83217e-06 0)
(1.85283 -1.62078e-06 0)
(1.85283 -1.34662e-06 0)
(1.85283 -1.00225e-06 0)
(1.85283 -5.84602e-07 0)
(1.85283 -1.25352e-07 0)
(1.85283 3.29987e-07 0)
(1.85283 7.55465e-07 0)
(1.85283 1.1448e-06 0)
(1.85283 1.49189e-06 0)
(1.85283 1.7782e-06 0)
(1.85283 1.97883e-06 0)
(1.85283 2.08451e-06 0)
(1.85283 2.1057e-06 0)
(1.85283 2.04435e-06 0)
(1.85283 1.89746e-06 0)
(1.85283 1.68e-06 0)
(1.85283 1.41503e-06 0)
(1.85283 1.11975e-06 0)
(1.85283 8.04909e-07 0)
(1.85283 4.81084e-07 0)
(1.85283 1.53986e-07 0)
(1.85283 -1.84103e-07 0)
(1.85283 -5.02875e-07 0)
(1.85283 -7.82961e-07 0)
(1.85283 -1.03218e-06 0)
(1.85283 -1.22542e-06 0)
(1.85283 -1.3754e-06 0)
(1.85283 -1.46714e-06 0)
(1.85283 -1.54387e-06 0)
(1.85283 -1.60024e-06 0)
(1.85283 -1.60345e-06 0)
(1.85283 -1.56118e-06 0)
(1.9543 1.60372e-06 0)
(1.9543 1.58552e-06 0)
(1.9543 1.72425e-06 0)
(1.9543 2.00185e-06 0)
(1.9543 2.21638e-06 0)
(1.9543 2.38218e-06 0)
(1.9543 2.38667e-06 0)
(1.9543 2.38144e-06 0)
(1.95429 2.36144e-06 0)
(1.95429 2.26887e-06 0)
(1.95429 2.15098e-06 0)
(1.95429 2.00196e-06 0)
(1.95429 1.7705e-06 0)
(1.95429 1.53513e-06 0)
(1.95429 1.36391e-06 0)
(1.95429 1.1892e-06 0)
(1.95429 1.01431e-06 0)
(1.95429 8.61653e-07 0)
(1.95429 7.00451e-07 0)
(1.95429 5.42327e-07 0)
(1.95429 4.11264e-07 0)
(1.95429 2.76991e-07 0)
(1.95429 1.29186e-07 0)
(1.95429 9.26192e-09 0)
(1.95429 -8.44946e-08 0)
(1.95429 -1.75871e-07 0)
(1.95429 -2.52561e-07 0)
(1.95429 -3.23956e-07 0)
(1.95429 -4.06532e-07 0)
(1.95429 -4.81154e-07 0)
(1.95429 -5.44229e-07 0)
(1.95429 -6.05293e-07 0)
(1.95429 -6.50954e-07 0)
(1.95429 -6.79029e-07 0)
(1.95429 -7.19473e-07 0)
(1.95429 -7.75244e-07 0)
(1.95429 -8.22883e-07 0)
(1.95429 -8.61869e-07 0)
(1.95429 -8.97803e-07 0)
(1.95429 -9.23304e-07 0)
(1.95429 -9.42576e-07 0)
(1.95429 -9.60283e-07 0)
(1.95429 -9.635e-07 0)
(1.95429 -9.47855e-07 0)
(1.95429 -9.27445e-07 0)
(1.95429 -9.14578e-07 0)
(1.95429 -9.05687e-07 0)
(1.95429 -8.82628e-07 0)
(1.95429 -8.24961e-07 0)
(1.95429 -7.33572e-07 0)
(1.95429 -6.26058e-07 0)
(1.95429 -5.06182e-07 0)
(1.95429 -3.56235e-07 0)
(1.95429 -1.62166e-07 0)
(1.95429 7.52649e-08 0)
(1.95429 3.4427e-07 0)
(1.95429 6.23895e-07 0)
(1.95429 9.0248e-07 0)
(1.95429 1.18343e-06 0)
(1.95429 1.47379e-06 0)
(1.95429 1.7659e-06 0)
(1.95429 2.03515e-06 0)
(1.95429 2.25712e-06 0)
(1.95429 2.42068e-06 0)
(1.95429 2.52841e-06 0)
(1.95429 2.58291e-06 0)
(1.95429 2.57216e-06 0)
(1.95429 2.47356e-06 0)
(1.95429 2.27678e-06 0)
(1.95429 1.99425e-06 0)
(1.95429 1.64365e-06 0)
(1.95429 1.23327e-06 0)
(1.95429 7.6329e-07 0)
(1.95429 2.37411e-07 0)
(1.95429 -3.23041e-07 0)
(1.95429 -8.82148e-07 0)
(1.95429 -1.40358e-06 0)
(1.95429 -1.86094e-06 0)
(1.95429 -2.23985e-06 0)
(1.95429 -2.53479e-06 0)
(1.95429 -2.73859e-06 0)
(1.95429 -2.83792e-06 0)
(1.95429 -2.82724e-06 0)
(1.95429 -2.72141e-06 0)
(1.95429 -2.54346e-06 0)
(1.95429 -2.30517e-06 0)
(1.95429 -2.00375e-06 0)
(1.95429 -1.6389e-06 0)
(1.95429 -1.22666e-06 0)
(1.95429 -7.94887e-07 0)
(1.95429 -3.72619e-07 0)
(1.95429 2.34195e-08 0)
(1.95429 3.95378e-07 0)
(1.95429 7.52328e-07 0)
(1.95429 1.09109e-06 0)
(1.95429 1.39047e-06 0)
(1.95429 1.62724e-06 0)
(1.95429 1.80003e-06 0)
(1.95429 1.92526e-06 0)
(1.95429 2.00647e-06 0)
(1.95429 2.02545e-06 0)
(1.95429 1.96782e-06 0)
(1.95429 1.83449e-06 0)
(1.95429 1.63558e-06 0)
(1.95429 1.38098e-06 0)
(1.95429 1.0745e-06 0)
(1.95429 7.1186e-07 0)
(1.95429 2.8867e-07 0)
(1.95429 -1.77556e-07 0)
(1.95429 -6.47372e-07 0)
(1.95429 -1.08047e-06 0)
(1.95429 -1.45309e-06 0)
(1.95429 -1.76466e-06 0)
(1.95429 -2.01858e-06 0)
(1.95429 -2.19829e-06 0)
(1.95429 -2.27911e-06 0)
(1.95429 -2.24817e-06 0)
(1.95429 -2.10535e-06 0)
(1.95429 -1.86012e-06 0)
(1.95429 -1.53502e-06 0)
(1.95429 -1.14948e-06 0)
(1.95429 -7.04503e-07 0)
(1.95429 -2.09911e-07 0)
(1.95429 3.00874e-07 0)
(1.95429 7.92374e-07 0)
(1.95429 1.2433e-06 0)
(1.95429 1.64457e-06 0)
(1.95429 1.98549e-06 0)
(1.95429 2.24076e-06 0)
(1.95429 2.38327e-06 0)
(1.95429 2.41296e-06 0)
(1.95429 2.34678e-06 0)
(1.95429 2.19578e-06 0)
(1.95429 1.97518e-06 0)
(1.95429 1.7011e-06 0)
(1.95429 1.38105e-06 0)
(1.95429 1.02043e-06 0)
(1.95429 6.38177e-07 0)
(1.95429 2.57899e-07 0)
(1.95429 -1.3607e-07 0)
(1.95429 -5.24062e-07 0)
(1.95429 -8.47663e-07 0)
(1.95429 -1.13081e-06 0)
(1.95429 -1.38282e-06 0)
(1.95429 -1.56371e-06 0)
(1.95429 -1.70468e-06 0)
(1.95429 -1.77356e-06 0)
(1.95429 -1.85854e-06 0)
(1.95429 -1.85686e-06 0)
(1.95429 -1.77554e-06 0)
(1.98801 1.94097e-06 0)
(1.98801 2.07507e-06 0)
(1.98801 2.30042e-06 0)
(1.98801 2.75342e-06 0)
(1.98801 3.01953e-06 0)
(1.988 3.21325e-06 0)
(1.988 3.31423e-06 0)
(1.988 3.30389e-06 0)
(1.988 3.31383e-06 0)
(1.988 3.26157e-06 0)
(1.988 3.10601e-06 0)
(1.988 2.91944e-06 0)
(1.988 2.65645e-06 0)
(1.988 2.34918e-06 0)
(1.988 2.11796e-06 0)
(1.988 1.90964e-06 0)
(1.988 1.67284e-06 0)
(1.988 1.44777e-06 0)
(1.988 1.22798e-06 0)
(1.988 1.00664e-06 0)
(1.988 8.18532e-07 0)
(1.988 6.60808e-07 0)
(1.988 5.06828e-07 0)
(1.988 3.68157e-07 0)
(1.988 2.47391e-07 0)
(1.988 1.17153e-07 0)
(1.988 -1.87904e-08 0)
(1.988 -1.49158e-07 0)
(1.988 -2.80903e-07 0)
(1.988 -3.95197e-07 0)
(1.988 -4.80722e-07 0)
(1.988 -5.65127e-07 0)
(1.988 -6.46656e-07 0)
(1.988 -7.02913e-07 0)
(1.988 -7.53012e-07 0)
(1.988 -8.2383e-07 0)
(1.988 -8.95848e-07 0)
(1.988 -9.43623e-07 0)
(1.988 -9.69863e-07 0)
(1.988 -9.84053e-07 0)
(1.988 -9.96881e-07 0)
(1.988 -1.01921e-06 0)
(1.988 -1.04296e-06 0)
(1.988 -1.05144e-06 0)
(1.988 -1.03817e-06 0)
(1.988 -1.00838e-06 0)
(1.988 -9.75911e-07 0)
(1.988 -9.49223e-07 0)
(1.988 -9.118e-07 0)
(1.988 -8.37397e-07 0)
(1.988 -7.1748e-07 0)
(1.988 -5.59804e-07 0)
(1.988 -3.64627e-07 0)
(1.988 -1.2956e-07 0)
(1.988 1.41911e-07 0)
(1.988 4.40002e-07 0)
(1.988 7.45708e-07 0)
(1.988 1.03937e-06 0)
(1.988 1.31512e-06 0)
(1.988 1.5847e-06 0)
(1.988 1.85872e-06 0)
(1.988 2.12676e-06 0)
(1.988 2.35841e-06 0)
(1.988 2.52366e-06 0)
(1.988 2.61197e-06 0)
(1.988 2.63434e-06 0)
(1.988 2.60231e-06 0)
(1.988 2.5073e-06 0)
(1.988 2.32561e-06 0)
(1.988 2.04339e-06 0)
(1.988 1.66685e-06 0)
(1.988 1.21646e-06 0)
(1.988 7.14057e-07 0)
(1.988 1.76421e-07 0)
(1.988 -3.8211e-07 0)
(1.988 -9.40731e-07 0)
(1.988 -1.47217e-06 0)
(1.988 -1.94587e-06 0)
(1.988 -2.33801e-06 0)
(1.988 -2.64138e-06 0)
(1.988 -2.85965e-06 0)
(1.988 -2.98897e-06 0)
(1.988 -3.01301e-06 0)
(1.988 -2.92127e-06 0)
(1.988 -2.72563e-06 0)
(1.988 -2.45113e-06 0)
(1.988 -2.11871e-06 0)
(1.988 -1.73853e-06 0)
(1.988 -1.31994e-06 0)
(1.988 -8.75442e-07 0)
(1.988 -4.25363e-07 0)
(1.988 5.82415e-09 0)
(1.988 4.02641e-07 0)
(1.988 7.67624e-07 0)
(1.988 1.11388e-06 0)
(1.988 1.44017e-06 0)
(1.988 1.71794e-06 0)
(1.988 1.91366e-06 0)
(1.988 2.02389e-06 0)
(1.988 2.0708e-06 0)
(1.988 2.07008e-06 0)
(1.988 2.01982e-06 0)
(1.988 1.90808e-06 0)
(1.988 1.72195e-06 0)
(1.988 1.45523e-06 0)
(1.988 1.11776e-06 0)
(1.988 7.29368e-07 0)
(1.988 3.05375e-07 0)
(1.988 -1.45619e-07 0)
(1.988 -6.07414e-07 0)
(1.988 -1.05671e-06 0)
(1.988 -1.46114e-06 0)
(1.988 -1.79829e-06 0)
(1.988 -2.06328e-06 0)
(1.988 -2.251e-06 0)
(1.988 -2.34652e-06 0)
(1.988 -2.33467e-06 0)
(1.988 -2.20543e-06 0)
(1.988 -1.95672e-06 0)
(1.988 -1.60987e-06 0)
(1.988 -1.20463e-06 0)
(1.988 -7.61175e-07 0)
(1.988 -2.76728e-07 0)
(1.988 2.40679e-07 0)
(1.988 7.64505e-07 0)
(1.988 1.26065e-06 0)
(1.988 1.69607e-06 0)
(1.988 2.04994e-06 0)
(1.988 2.31104e-06 0)
(1.988 2.46667e-06 0)
(1.988 2.51191e-06 0)
(1.988 2.45958e-06 0)
(1.988 2.3185e-06 0)
(1.988 2.09506e-06 0)
(1.988 1.80385e-06 0)
(1.988 1.46127e-06 0)
(1.988 1.07496e-06 0)
(1.988 6.57604e-07 0)
(1.988 2.49868e-07 0)
(1.988 -1.34898e-07 0)
(1.988 -5.20202e-07 0)
(1.988 -8.63911e-07 0)