/*--------------------------------*- C++ -*----------------------------------*\
| =========                 |                                                 |
| \\      /  F ield         | OpenFOAM: The Open Source CFD Toolbox           |
|  \\    /   O peration     | Version:  2406                                  |
|   \\  /    A nd           | Website:  www.openfoam.com                      |
|    \\/     M anipulation  |                                                 |
\*---------------------------------------------------------------------------*/
FoamFile
{
    version     2.0;
    format      ascii;
    arch        "LSB;label=32;scalar=64";
    class       surfaceScalarField;
    location    "0.6";
    object      alphaPhi0.air;
}
// * * * * * * * * * * * * * * * * * * * * * * * * * * * * * * * * * * * * * //

dimensions      [0 3 -1 0 0 0 0];

oriented        oriented;

internalField   nonuniform List<scalar> 
12225
(
0.477129
1.40274e-06
0.477124
5.37644e-06
0.477117
6.31734e-06
0.477113
4.46329e-06
0.477109
3.60151e-06
0.477105
4.31017e-06
0.4771
4.82225e-06
0.477095
5.22597e-06
0.47709
5.33024e-06
0.477085
4.71295e-06
0.47708
4.52552e-06
0.477076
4.89584e-06
0.47707
5.27007e-06
0.477065
5.63447e-06
0.477059
6.07203e-06
0.477052
6.36479e-06
0.477046
6.5309e-06
0.477039
6.49746e-06
0.477033
6.60193e-06
0.477025
7.13861e-06
0.477018
7.60172e-06
0.47701
7.82126e-06
0.477002
7.90115e-06
0.476995
7.47896e-06
0.476988
6.61493e-06
0.476982
5.93911e-06
0.476977
5.60263e-06
0.476971
5.31894e-06
0.476966
5.08834e-06
0.476961
5.06578e-06
0.476956
5.18138e-06
0.476951
5.29402e-06
0.476945
5.48126e-06
0.476939
5.7755e-06
0.476933
5.88889e-06
0.476928
5.86293e-06
0.476922
6.03294e-06
0.476915
6.2682e-06
0.476909
6.22851e-06
0.476903
5.90413e-06
0.476898
5.53726e-06
0.476892
5.32845e-06
0.476887
5.26067e-06
0.476882
5.15756e-06
0.476877
4.95229e-06
0.476872
4.75147e-06
0.476867
4.65697e-06
0.476863
4.75225e-06
0.476858
5.0637e-06
0.476852
5.41674e-06
0.476847
5.43429e-06
0.476842
5.01895e-06
0.476837
4.58237e-06
0.476833
4.53271e-06
0.476828
4.79874e-06
0.476823
5.05287e-06
0.476818
5.17646e-06
0.476812
5.24554e-06
0.476807
5.25545e-06
0.476802
5.13605e-06
0.476797
4.96479e-06
0.476792
4.88971e-06
0.476787
4.88863e-06
0.476782
4.78983e-06
0.476778
4.55552e-06
0.476774
4.36452e-06
0.476769
4.35124e-06
0.476765
4.41848e-06
0.47676
4.37759e-06
0.476756
4.19389e-06
0.476752
4.02807e-06
0.476748
4.02023e-06
0.476744
4.10849e-06
0.47674
4.13706e-06
0.476736
4.0909e-06
0.476732
4.1131e-06
0.476727
4.28592e-06
0.476723
4.51367e-06
0.476718
4.62263e-06
0.476714
4.55338e-06
0.476709
4.41245e-06
0.476705
4.39893e-06
0.4767
4.62743e-06
0.476695
4.98789e-06
0.47669
5.17269e-06
0.476685
5.01967e-06
0.47668
4.75429e-06
0.476676
4.76021e-06
0.476671
5.09125e-06
0.476665
5.39193e-06
0.47666
5.35136e-06
0.476655
5.09646e-06
0.47665
4.99476e-06
0.476645
5.16898e-06
0.476639
5.41282e-06
0.476634
5.52266e-06
0.476628
5.50465e-06
0.476623
5.47277e-06
0.476617
5.46142e-06
0.476612
5.43625e-06
0.476606
5.4022e-06
0.476601
5.40884e-06
0.476595
5.4514e-06
0.47659
5.46671e-06
0.476585
5.42855e-06
0.476579
5.38625e-06
0.476574
5.36072e-06
0.476568
5.30239e-06
0.476563
5.20026e-06
0.476558
5.15153e-06
0.476553
5.21691e-06
0.476548
5.28428e-06
0.476542
5.20814e-06
0.476537
5.04168e-06
0.476532
4.96814e-06
0.476527
5.01942e-06
0.476522
5.02748e-06
0.476517
4.8897e-06
0.476513
4.72051e-06
0.476508
4.66612e-06
0.476503
4.68726e-06
0.476499
4.62835e-06
0.476494
4.43546e-06
0.47649
4.20173e-06
0.476486
4.02782e-06
0.476482
3.91523e-06
0.476478
3.7889e-06
0.476475
3.58164e-06
0.476472
3.2999e-06
0.476468
3.02439e-06
0.476466
2.83305e-06
0.476463
2.71512e-06
0.47646
2.58386e-06
0.476458
2.38993e-06
0.476456
2.17464e-06
0.476454
1.97178e-06
0.476452
1.74386e-06
0.476451
1.46346e-06
0.476449
1.21701e-06
0.476448
1.16397e-06
0.476447
1.26455e-06
0.476446
1.28212e-06
0.476445
1.08055e-06
0.476444
7.69751e-07
0.476443
5.71437e-07
0.476443
5.26784e-07
0.476442
4.87705e-07
0.476442
3.82686e-07
0.476442
3.41893e-07
0.476441
5.08986e-07
0.47644
7.75173e-07
0.476439
8.84185e-07
0.476439
6.84357e-07
0.476438
3.15248e-07
0.476438
4.52878e-08
0.476438
-3.2347e-08
0.476438
1.13448e-07
0.476438
3.56518e-07
0.476437
5.15849e-07
0.476437
5.62264e-07
0.476436
5.56477e-07
0.476436
5.19163e-07
0.476435
4.20016e-07
0.476435
2.66039e-07
0.476435
1.21836e-07
0.476435
7.81156e-08
0.476435
7.94202e-08
0.476435
8.09929e-08
0.476435
1.39863e-07
0.476434
3.02193e-07
0.476434
4.41963e-07
0.476433
4.0316e-07
0.476433
2.27183e-07
0.476433
4.46871e-08
0.476433
-3.75782e-08
0.476433
1.04396e-08
0.476433
7.48364e-08
0.476433
9.42344e-08
0.476433
1.12895e-07
0.476433
1.82409e-07
0.476432
2.88656e-07
0.476432
3.65963e-07
0.476432
3.42922e-07
0.476431
2.33681e-07
0.476431
1.17179e-07
0.476431
1.48919e-10
0.476431
-4.03398e-08
0.476431
-8.99075e-09
0.476431
8.5003e-08
0.476431
1.11809e-07
0.476431
5.49446e-08
0.476431
-1.04794e-08
0.476431
-2.38112e-09
0.476431
7.27362e-08
0.476431
1.12088e-07
0.476431
1.07796e-07
0.476431
1.0722e-07
0.476431
9.96959e-08
0.476431
3.8233e-08
0.476431
-7.08913e-08
0.476431
-1.30839e-07
0.476431
-6.11518e-08
0.476431
9.52384e-08
0.476431
1.7908e-07
0.47643
1.35116e-07
0.47643
2.77681e-08
0.476431
-5.31794e-08
0.476431
-5.6707e-08
0.476431
-2.41756e-08
0.476431
-1.02854e-08
0.476431
-1.79648e-08
0.476431
-4.25367e-08
0.476431
-6.04062e-08
0.476431
-9.10837e-08
0.476431
-1.05967e-07
0.476431
-6.7828e-08
0.476431
3.7533e-08
0.476431
9.18836e-08
0.476431
2.67529e-08
0.476431
-1.63287e-07
0.476431
-2.67525e-07
0.476431
-2.06399e-07
0.476431
-3.66048e-08
0.476431
-1.73561e-09
0.476432
-2.06464e-07
0.476432
-4.36702e-07
0.476433
-4.70396e-07
0.476433
-3.07729e-07
0.476433
-4.8342e-08
0.476433
1.10929e-07
0.476433
1.03154e-07
0.476433
-5.17519e-08
0.476433
-1.97529e-07
0.476433
-2.75895e-07
0.476434
-2.36511e-07
0.476434
-9.41421e-08
0.476434
-2.576e-08
0.476434
-1.19681e-07
0.476434
-3.03659e-07
0.476435
-4.48471e-07
0.476435
-4.72038e-07
0.476435
-3.94657e-07
0.476436
-3.44998e-07
0.476436
-4.0214e-07
0.476437
-5.21028e-07
0.476437
-5.6999e-07
0.476438
-4.98596e-07
0.476438
-3.53416e-07
0.476438
-3.42219e-07
-2.97422e-07
0.477133
6.40624e-08
0.477138
2.06841e-07
0.477143
1.10114e-06
0.477145
1.89265e-06
0.477147
1.85177e-06
0.477149
2.2798e-06
0.477151
2.81513e-06
0.477154
2.87729e-06
0.477156
2.97599e-06
0.477158
2.73012e-06
0.47716
2.47784e-06
0.477162
2.39167e-06
0.477165
2.59824e-06
0.477168
2.76276e-06
0.477171
2.68679e-06
0.477175
2.70835e-06
0.477178
3.3141e-06
0.477181
3.65661e-06
0.477185
2.92227e-06
0.47719
2.29131e-06
0.477195
2.2569e-06
0.477201
1.97297e-06
0.477207
1.62202e-06
0.477213
1.8139e-06
0.477217
2.12293e-06
0.477221
1.99645e-06
0.477225
1.86292e-06
0.477228
2.04446e-06
0.477231
2.30482e-06
0.477234
2.42714e-06
0.477236
2.55298e-06
0.477239
2.74695e-06
0.477242
2.71972e-06
0.477245
2.57106e-06
0.477248
2.55062e-06
0.477252
2.39106e-06
0.477256
1.98019e-06
0.47726
1.67504e-06
0.477265
1.64679e-06
0.477269
1.72592e-06
0.477273
1.76718e-06
0.477276
1.81788e-06
0.47728
1.93276e-06
0.477283
2.18088e-06
0.477285
2.62893e-06
0.477287
3.12204e-06
0.477288
3.26683e-06
0.47729
2.90518e-06
0.477292
2.45298e-06
0.477295
2.40802e-06
0.477298
2.74625e-06
0.4773
3.00795e-06
0.477302
2.99859e-06
0.477303
2.90908e-06
0.477305
2.85247e-06
0.477308
2.71593e-06
0.47731
2.50577e-06
0.477313
2.44593e-06
0.477316
2.61081e-06
0.477318
2.77235e-06
0.47732
2.73461e-06
0.477323
2.61524e-06
0.477325
2.60766e-06
0.477327
2.65013e-06
0.477329
2.53821e-06
0.477331
2.28127e-06
0.477333
2.11994e-06
0.477336
2.20674e-06
0.477338
2.43483e-06
0.477339
2.58311e-06
0.477341
2.55267e-06
0.477342
2.42423e-06
0.477344
2.32033e-06
0.477346
2.27983e-06
0.477348
2.2726e-06
0.47735
2.27705e-06
0.477351
2.29318e-06
0.477354
2.32831e-06
0.477356
2.41212e-06
0.477358
2.54563e-06
0.47736
2.64098e-06
0.477361
2.57198e-06
0.477364
2.36374e-06
0.477366
2.25073e-06
0.477369
2.41415e-06
0.477372
2.70807e-06
0.477374
2.81416e-06
0.477376
2.64725e-06
0.477378
2.44075e-06
0.477381
2.41071e-06
0.477384
2.50732e-06
0.477387
2.56173e-06
0.477389
2.54494e-06
0.477392
2.53371e-06
0.477395
2.52128e-06
0.477398
2.43889e-06
0.477401
2.31894e-06
0.477404
2.28446e-06
0.477407
2.36963e-06
0.47741
2.44192e-06
0.477413
2.36383e-06
0.477416
2.18182e-06
0.47742
2.08238e-06
0.477423
2.15301e-06
0.477426
2.30277e-06
0.477429
2.41486e-06
0.477432
2.49182e-06
0.477435
2.56817e-06
0.477437
2.60719e-06
0.47744
2.58616e-06
0.477443
2.60243e-06
0.477445
2.7298e-06
0.477447
2.83782e-06
0.47745
2.74306e-06
0.477452
2.51527e-06
0.477455
2.42903e-06
0.477457
2.57475e-06
0.477459
2.71923e-06
0.477462
2.63393e-06
0.477464
2.38979e-06
0.477466
2.22396e-06
0.477469
2.23877e-06
0.477471
2.34579e-06
0.477473
2.42648e-06
0.477474
2.43392e-06
0.477476
2.37544e-06
0.477477
2.28375e-06
0.477479
2.20189e-06
0.47748
2.15746e-06
0.477481
2.15945e-06
0.477481
2.22162e-06
0.477482
2.34073e-06
0.477482
2.43571e-06
0.477482
2.38969e-06
0.477482
2.21191e-06
0.477482
2.07615e-06
0.477481
2.12081e-06
0.47748
2.25888e-06
0.477479
2.28637e-06
0.477478
2.18346e-06
0.477477
2.1299e-06
0.477476
2.20997e-06
0.477475
2.27065e-06
0.477474
2.15264e-06
0.477473
1.96543e-06
0.477471
1.96197e-06
0.477469
2.1839e-06
0.477467
2.40423e-06
0.477465
2.42655e-06
0.477463
2.30412e-06
0.477462
2.21627e-06
0.477461
2.24617e-06
0.477459
2.31944e-06
0.477457
2.33138e-06
0.477455
2.26163e-06
0.477453
2.17702e-06
0.477451
2.19198e-06
0.477449
2.32905e-06
0.477447
2.47846e-06
0.477445
2.52214e-06
0.477443
2.45985e-06
0.477441
2.37277e-06
0.477439
2.29612e-06
0.477437
2.20469e-06
0.477435
2.1196e-06
0.477433
2.13515e-06
0.477431
2.27261e-06
0.477428
2.41497e-06
0.477426
2.43575e-06
0.477424
2.37221e-06
0.477422
2.34486e-06
0.47742
2.38395e-06
0.477418
2.39711e-06
0.477416
2.30717e-06
0.477414
2.18629e-06
0.477411
2.16406e-06
0.477409
2.24973e-06
0.477407
2.36557e-06
0.477405
2.44309e-06
0.477402
2.46082e-06
0.4774
2.42325e-06
0.477398
2.33847e-06
0.477396
2.24276e-06
0.477394
2.17919e-06
0.477392
2.14927e-06
0.47739
2.1067e-06
0.477388
2.06431e-06
0.477386
2.05941e-06
0.477384
2.12939e-06
0.477382
2.22249e-06
0.47738
2.25684e-06
0.477378
2.21659e-06
0.477375
2.1557e-06
0.477373
2.10779e-06
0.477371
2.05869e-06
0.477369
2.0165e-06
0.477368
2.04257e-06
0.477365
2.17693e-06
0.477363
2.35363e-06
0.477361
2.44556e-06
0.477358
2.39376e-06
0.477356
2.27162e-06
0.477354
2.21187e-06
0.477352
2.25535e-06
0.477349
2.33056e-06
0.477347
2.34832e-06
0.477345
2.29742e-06
0.477342
2.24995e-06
0.47734
2.27363e-06
0.477338
2.36708e-06
0.477335
2.47273e-06
0.477333
2.54937e-06
0.47733
2.60356e-06
0.477327
2.62098e-06
0.477325
2.56614e-06
0.477322
2.45317e-06
0.47732
2.38851e-06
0.477317
2.4388e-06
0.477315
2.52294e-06
0.477312
2.46579e-06
0.47731
2.24323e-06
0.477308
2.03679e-06
0.477305
2.06557e-06
0.477303
2.27917e-06
0.4773
2.4239e-06
0.477298
2.34111e-06
0.477295
2.11547e-06
0.477293
1.94917e-06
0.477291
1.97756e-06
0.477289
2.15886e-06
0.477287
2.35202e-06
0.477284
2.43594e-06
0.477281
2.38269e-06
0.477279
2.22191e-06
0.477277
2.05929e-06
0.477275
2.01503e-06
0.477272
2.07733e-06
0.47727
2.13869e-06
0.477268
2.09679e-06
0.477265
1.93603e-06
0.477263
1.75261e-06
0.477261
1.67128e-06
0.477259
1.71227e-06
0.477257
1.77348e-06
0.477255
1.74072e-06
0.477252
1.60984e-06
0.47725
1.48839e-06
0.477249
1.42575e-06
0.477247
1.54793e-06
1.31561e-06
0.477134
-1.50752e-07
0.477132
2.03613e-06
0.47713
3.14179e-06
0.47713
2.20834e-06
0.47713
1.67089e-06
0.477131
9.78269e-07
0.477133
8.29527e-07
0.477135
1.07596e-06
0.477137
1.26908e-06
0.477137
1.90628e-06
0.477138
2.30141e-06
0.477137
2.51622e-06
0.477138
2.50112e-06
0.477138
2.1184e-06
0.477139
1.74986e-06
0.477141
1.25382e-06
0.477143
1.00363e-06
0.477145
1.75899e-06
0.477145
2.50553e-06
0.477145
2.41788e-06
0.477145
2.01584e-06
0.477145
1.94465e-06
0.477145
1.9397e-06
0.477145
1.82505e-06
0.477145
1.92526e-06
0.477145
2.07902e-06
0.477145
2.31919e-06
0.477144
2.48657e-06
0.477144
2.41146e-06
0.477144
2.43506e-06
0.477144
2.6361e-06
0.477144
2.81715e-06
0.477144
2.89158e-06
0.477143
2.88519e-06
0.477143
2.96601e-06
0.477142
3.14234e-06
0.477141
3.13202e-06
0.47714
2.85071e-06
0.477139
2.60921e-06
0.477138
2.57005e-06
0.477137
2.50499e-06
0.477137
2.26177e-06
0.477137
1.96817e-06
0.477137
1.75031e-06
0.477138
1.63462e-06
0.47714
1.69818e-06
0.477141
1.93083e-06
0.477142
2.08068e-06
0.477142
1.91701e-06
0.477143
1.62723e-06
0.477144
1.59187e-06
0.477146
1.83686e-06
0.477147
2.06562e-06
0.477147
2.14012e-06
0.477148
2.16682e-06
0.477148
2.17883e-06
0.477149
2.07479e-06
0.477149
1.8879e-06
0.47715
1.82171e-06
0.477151
1.95767e-06
0.477152
2.12873e-06
0.477152
2.19318e-06
0.477152
2.24504e-06
0.477153
2.42486e-06
0.477153
2.65846e-06
0.477152
2.74127e-06
0.477152
2.61708e-06
0.477151
2.45266e-06
0.477151
2.43713e-06
0.477151
2.56369e-06
0.477151
2.64498e-06
0.477151
2.53753e-06
0.477151
2.30335e-06
0.477151
2.12566e-06
0.477152
2.1039e-06
0.477152
2.17466e-06
0.477152
2.2056e-06
0.477152
2.12211e-06
0.477152
1.9835e-06
0.477153
1.93405e-06
0.477154
2.0347e-06
0.477154
2.13724e-06
0.477154
2.03377e-06
0.477155
1.75195e-06
0.477156
1.5764e-06
0.477157
1.69607e-06
0.477158
1.94028e-06
0.477158
1.99698e-06
0.477159
1.82273e-06
0.47716
1.67172e-06
0.47716
1.73057e-06
0.477161
1.90552e-06
0.477162
2.02599e-06
0.477162
2.07957e-06
0.477162
2.14414e-06
0.477163
2.21222e-06
0.477163
2.20799e-06
0.477163
2.1389e-06
0.477163
2.1199e-06
0.477163
2.21987e-06
0.477163
2.35768e-06
0.477163
2.402e-06
0.477163
2.33444e-06
0.477163
2.24499e-06
0.477163
2.19204e-06
0.477163
2.15766e-06
0.477163
2.14992e-06
0.477164
2.21933e-06
0.477164
2.32998e-06
0.477164
2.33718e-06
0.477165
2.18732e-06
0.477165
2.03285e-06
0.477166
2.01983e-06
0.477167
2.07367e-06
0.477167
2.03545e-06
0.477168
1.93594e-06
0.477169
1.94585e-06
0.477169
2.08964e-06
0.47717
2.19738e-06
0.47717
2.1614e-06
0.47717
2.0839e-06
0.47717
2.11943e-06
0.47717
2.28258e-06
0.47717
2.46744e-06
0.47717
2.57691e-06
0.47717
2.58495e-06
0.47717
2.52841e-06
0.477169
2.47871e-06
0.477169
2.48786e-06
0.477169
2.54089e-06
0.477168
2.59185e-06
0.477168
2.64179e-06
0.477168
2.71567e-06
0.477167
2.76649e-06
0.477167
2.69964e-06
0.477166
2.52625e-06
0.477166
2.40771e-06
0.477166
2.46349e-06
0.477165
2.59032e-06
0.477165
2.59282e-06
0.477165
2.45285e-06
0.477165
2.34012e-06
0.477165
2.34857e-06
0.477164
2.36415e-06
0.477164
2.27221e-06
0.477164
2.16593e-06
0.477164
2.22223e-06
0.477164
2.43661e-06
0.477164
2.60965e-06
0.477163
2.58611e-06
0.477163
2.40778e-06
0.477163
2.2253e-06
0.477163
2.1345e-06
0.477163
2.12506e-06
0.477164
2.13297e-06
0.477164
2.11335e-06
0.477164
2.09115e-06
0.477164
2.12268e-06
0.477164
2.19778e-06
0.477165
2.22494e-06
0.477165
2.14634e-06
0.477165
2.01965e-06
0.477166
1.93994e-06
0.477166
1.91765e-06
0.477166
1.90346e-06
0.477166
1.90523e-06
0.477167
1.99655e-06
0.477167
2.18243e-06
0.477167
2.33464e-06
0.477167
2.33213e-06
0.477167
2.20293e-06
0.477167
2.07881e-06
0.477168
2.0308e-06
0.477168
2.01765e-06
0.477168
1.99909e-06
0.477168
2.00994e-06
0.477169
2.08829e-06
0.477169
2.2068e-06
0.477169
2.30635e-06
0.477169
2.36037e-06
0.477169
2.3714e-06
0.477169
2.33166e-06
0.477169
2.24033e-06
0.477169
2.14561e-06
0.477169
2.11521e-06
0.477169
2.15716e-06
0.477169
2.22313e-06
0.477169
2.26232e-06
0.477169
2.27222e-06
0.477168
2.26824e-06
0.477169
2.24495e-06
0.477169
2.1947e-06
0.477169
2.13688e-06
0.477169
2.09762e-06
0.477169
2.06108e-06
0.477169
1.98643e-06
0.477169
1.87874e-06
0.477169
1.81078e-06
0.47717
1.83834e-06
0.47717
1.91742e-06
0.477171
1.93193e-06
0.477171
1.81155e-06
0.477172
1.60275e-06
0.477173
1.41315e-06
0.477174
1.3121e-06
0.477175
1.2869e-06
0.477176
1.28013e-06
0.477177
1.25898e-06
0.477178
1.24122e-06
0.477179
1.25883e-06
0.47718
1.31079e-06
0.477181
1.37257e-06
0.477182
1.44465e-06
0.477183
1.54173e-06
0.477184
1.63013e-06
0.477185
1.63732e-06
0.477186
1.55868e-06
0.477187
1.50735e-06
0.477188
1.59393e-06
0.477188
1.75908e-06
0.477189
1.81691e-06
0.477189
1.6791e-06
0.47719
1.48405e-06
0.477191
1.4344e-06
0.477192
1.56252e-06
0.477192
1.71456e-06
0.477193
1.73643e-06
0.477193
1.61123e-06
0.477193
1.43407e-06
0.477194
1.30467e-06
0.477195
1.27102e-06
0.477196
1.32858e-06
0.477197
1.42023e-06
0.477198
1.45083e-06
0.477199
1.36645e-06
0.4772
1.21661e-06
0.477201
1.10547e-06
0.477202
1.09548e-06
0.477203
1.14953e-06
0.477203
1.16301e-06
0.477204
1.06617e-06
0.477205
8.99753e-07
0.477206
7.73555e-07
0.477207
7.49269e-07
0.477208
7.7425e-07
0.477209
7.53346e-07
0.47721
6.4882e-07
0.47721
5.23548e-07
0.477212
3.53644e-07
3.62996e-07
0.477136
9.3796e-08
0.477137
2.89957e-07
0.47714
9.89728e-07
0.47714
2.08382e-06
0.47714
1.77724e-06
0.477139
1.62866e-06
0.477138
2.14486e-06
0.477136
2.81332e-06
0.477134
3.19406e-06
0.477133
2.65314e-06
0.477134
1.71006e-06
0.477135
1.47008e-06
0.477135
2.09831e-06
0.477135
2.68698e-06
0.477134
2.849e-06
0.477132
2.66972e-06
0.477131
2.04667e-06
0.477131
1.62424e-06
0.477132
1.52361e-06
0.477133
1.69706e-06
0.477133
2.0832e-06
0.477133
2.33763e-06
0.477132
2.35054e-06
0.477132
2.30103e-06
0.477131
2.55762e-06
0.47713
2.61795e-06
0.47713
2.33871e-06
0.477131
2.05896e-06
0.477131
1.85024e-06
0.477132
1.58052e-06
0.477134
1.25567e-06
0.477135
1.14033e-06
0.477137
1.08132e-06
0.477139
9.2394e-07
0.477141
9.70393e-07
0.477143
1.33016e-06
0.477144
1.68653e-06
0.477145
1.87288e-06
0.477146
2.0647e-06
0.477146
2.3012e-06
0.477146
2.43336e-06
0.477146
2.48129e-06
0.477145
2.5386e-06
0.477145
2.48425e-06
0.477144
2.16869e-06
0.477144
1.77516e-06
0.477144
1.66502e-06
0.477145
1.87974e-06
0.477144
2.05227e-06
0.477144
1.95619e-06
0.477144
1.78129e-06
0.477144
1.73606e-06
0.477144
1.74555e-06
0.477145
1.7092e-06
0.477145
1.75004e-06
0.477145
1.9769e-06
0.477145
2.23895e-06
0.477145
2.33651e-06
0.477144
2.31235e-06
0.477144
2.34469e-06
0.477144
2.43209e-06
0.477143
2.41817e-06
0.477143
2.28474e-06
0.477144
2.20258e-06
0.477144
2.26523e-06
0.477144
2.35139e-06
0.477145
2.29897e-06
0.477145
2.11549e-06
0.477146
1.94781e-06
0.477146
1.89157e-06
0.477147
1.89466e-06
0.477148
1.85512e-06
0.477148
1.76579e-06
0.477149
1.71233e-06
0.477149
1.74236e-06
0.477149
1.81338e-06
0.47715
1.86718e-06
0.47715
1.87945e-06
0.47715
1.84358e-06
0.47715
1.78177e-06
0.47715
1.77474e-06
0.477151
1.86976e-06
0.477151
1.98274e-06
0.477151
1.97399e-06
0.47715
1.84963e-06
0.47715
1.78216e-06
0.47715
1.87443e-06
0.47715
2.00592e-06
0.47715
2.01356e-06
0.47715
1.93788e-06
0.47715
1.94263e-06
0.477149
2.04803e-06
0.477149
2.10766e-06
0.477149
2.04107e-06
0.47715
1.94704e-06
0.47715
1.94057e-06
0.47715
1.98022e-06
0.47715
1.93713e-06
0.477151
1.78585e-06
0.477151
1.64852e-06
0.477152
1.64371e-06
0.477153
1.74978e-06
0.477153
1.85587e-06
0.477153
1.89765e-06
0.477154
1.88158e-06
0.477154
1.82129e-06
0.477154
1.75037e-06
0.477155
1.76473e-06
0.477155
1.9279e-06
0.477155
2.12347e-06
0.477156
2.1398e-06
0.477156
1.95689e-06
0.477156
1.79951e-06
0.477156
1.83969e-06
0.477156
1.97899e-06
0.477156
2.02376e-06
0.477156
1.95756e-06
0.477156
1.90467e-06
0.477156
1.91108e-06
0.477157
1.91127e-06
0.477157
1.87332e-06
0.477157
1.84574e-06
0.477158
1.85941e-06
0.477158
1.87575e-06
0.477159
1.84491e-06
0.47716
1.76022e-06
0.477161
1.65359e-06
0.477162
1.57784e-06
0.477162
1.58193e-06
0.477163
1.65701e-06
0.477164
1.72506e-06
0.477165
1.73114e-06
0.477166
1.72027e-06
0.477167
1.76603e-06
0.477168
1.84258e-06
0.477169
1.849e-06
0.477169
1.77736e-06
0.47717
1.75149e-06
0.477171
1.843e-06
0.477171
1.93935e-06
0.477172
1.88997e-06
0.477173
1.73537e-06
0.477173
1.66274e-06
0.477174
1.7455e-06
0.477174
1.85987e-06
0.477175
1.88746e-06
0.477175
1.88239e-06
0.477175
1.9636e-06
0.477176
2.12319e-06
0.477176
2.23022e-06
0.477176
2.19016e-06
0.477177
2.03599e-06
0.477177
1.88015e-06
0.477177
1.81976e-06
0.477177
1.86955e-06
0.477178
1.95777e-06
0.477178
2.00168e-06
0.477178
1.99169e-06
0.477178
1.97241e-06
0.477178
1.94695e-06
0.477179
1.86217e-06
0.477179
1.70919e-06
0.477179
1.57884e-06
0.47718
1.565e-06
0.47718
1.64935e-06
0.47718
1.74126e-06
0.47718
1.80811e-06
0.477181
1.88926e-06
0.477181
1.98651e-06
0.477181
2.02038e-06
0.477181
1.93117e-06
0.477182
1.77418e-06
0.477182
1.65942e-06
0.477183
1.62964e-06
0.477183
1.65161e-06
0.477183
1.69946e-06
0.477184
1.78139e-06
0.477184
1.8839e-06
0.477184
1.94923e-06
0.477185
1.9365e-06
0.477185
1.86801e-06
0.477186
1.7874e-06
0.477186
1.71345e-06
0.477187
1.65654e-06
0.477187
1.64394e-06
0.477188
1.69488e-06
0.477188
1.78989e-06
0.477188
1.88094e-06
0.477189
1.94569e-06
0.477189
1.98998e-06
0.477189
2.00306e-06
0.47719
1.95901e-06
0.47719
1.87032e-06
0.47719
1.81042e-06
0.47719
1.84448e-06
0.47719
1.94626e-06
0.47719
2.02102e-06
0.47719
2.0154e-06
0.47719
1.97128e-06
0.47719
1.96044e-06
0.47719
1.99101e-06
0.47719
2.00273e-06
0.477189
1.94459e-06
0.477189
1.83079e-06
0.477188
1.72412e-06
0.477188
1.67868e-06
0.477188
1.69961e-06
0.477187
1.75197e-06
0.477187
1.80362e-06
0.477186
1.84968e-06
0.477185
1.88897e-06
0.477185
1.90015e-06
0.477184
1.87413e-06
0.477184
1.85375e-06
0.477184
1.88902e-06
0.477183
1.94861e-06
0.477183
1.93169e-06
0.477183
1.80633e-06
0.477183
1.68563e-06
0.477183
1.70358e-06
0.477183
1.83784e-06
0.477183
1.92411e-06
0.477182
1.85601e-06
0.477182
1.70773e-06
0.477182
1.62948e-06
0.477182
1.67877e-06
0.477182
1.78943e-06
0.477182
1.8733e-06
0.477181
1.89486e-06
0.477181
1.86049e-06
0.47718
1.79166e-06
0.47718
1.73238e-06
0.477179
1.73455e-06
0.477179
1.80275e-06
0.477178
1.87661e-06
0.477178
1.88959e-06
0.477177
1.83384e-06
0.477176
1.76682e-06
0.477176
1.75698e-06
0.477175
1.81415e-06
0.477174
1.87595e-06
0.477173
1.87525e-06
0.477172
1.81899e-06
0.477171
1.78207e-06
0.47717
1.82003e-06
0.477169
1.90513e-06
0.477168
1.98523e-06
0.477166
2.00121e-06
0.477164
2.11272e-06
1.85177e-06
0.477131
8.57299e-07
0.477131
5.43319e-07
0.477132
1.38456e-07
0.477133
6.04351e-07
0.477133
1.73889e-06
0.477133
1.73052e-06
0.477135
5.34868e-07
0.477137
8.15813e-09
0.47714
3.50519e-07
0.477142
1.21282e-06
0.477142
1.80758e-06
0.477142
1.47517e-06
0.477143
7.53247e-07
0.477145
7.27201e-07
0.477146
1.51052e-06
0.477147
2.15499e-06
0.477147
1.94261e-06
0.477147
1.73405e-06
0.477146
2.03708e-06
0.477146
1.91283e-06
0.477146
1.56193e-06
0.477147
1.80196e-06
0.477147
2.14539e-06
0.477147
2.0326e-06
0.477148
1.88646e-06
0.477149
2.04652e-06
0.477149
2.34703e-06
0.477148
2.57558e-06
0.477147
2.65645e-06
0.477146
2.6894e-06
0.477145
2.63912e-06
0.477143
2.55371e-06
0.477142
2.50105e-06
0.477141
2.36417e-06
0.47714
2.05292e-06
0.477139
1.75556e-06
0.477139
1.70937e-06
0.477139
1.82793e-06
0.477139
1.88125e-06
0.47714
1.84106e-06
0.47714
1.8333e-06
0.477141
1.923e-06
0.477141
2.08254e-06
0.477142
2.26024e-06
0.477141
2.34796e-06
0.477141
2.22149e-06
0.477141
1.97277e-06
0.477141
1.88735e-06
0.477141
2.04682e-06
0.47714
2.19593e-06
0.47714
2.15139e-06
0.47714
2.03105e-06
0.47714
1.96802e-06
0.477139
1.89332e-06
0.477139
1.73264e-06
0.47714
1.59071e-06
0.47714
1.58476e-06
0.477141
1.644e-06
0.477142
1.61548e-06
0.477143
1.49457e-06
0.477144
1.39715e-06
0.477145
1.36974e-06
0.477146
1.35145e-06
0.477147
1.30626e-06
0.477148
1.28274e-06
0.477149
1.34518e-06
0.477149
1.49339e-06
0.47715
1.65931e-06
0.47715
1.76359e-06
0.47715
1.79343e-06
0.47715
1.80914e-06
0.47715
1.8706e-06
0.47715
1.97602e-06
0.47715
2.07216e-06
0.477149
2.09721e-06
0.477149
2.02899e-06
0.477149
1.92455e-06
0.477149
1.87477e-06
0.477149
1.88123e-06
0.477149
1.84027e-06
0.477149
1.70626e-06
0.477149
1.59453e-06
0.47715
1.63763e-06
0.47715
1.77778e-06
0.47715
1.82165e-06
0.47715
1.70208e-06
0.47715
1.5621e-06
0.477151
1.53891e-06
0.477151
1.58897e-06
0.477151
1.60732e-06
0.477152
1.60248e-06
0.477152
1.64268e-06
0.477153
1.70515e-06
0.477153
1.7004e-06
0.477153
1.62508e-06
0.477154
1.58358e-06
0.477154
1.64381e-06
0.477154
1.74487e-06
0.477154
1.7812e-06
0.477154
1.74088e-06
0.477154
1.70693e-06
0.477154
1.72921e-06
0.477154
1.7632e-06
0.477154
1.76308e-06
0.477154
1.76293e-06
0.477154
1.80322e-06
0.477154
1.84264e-06
0.477154
1.82994e-06
0.477154
1.81099e-06
0.477155
1.84628e-06
0.477155
1.8655e-06
0.477155
1.75206e-06
0.477155
1.55626e-06
0.477156
1.47314e-06
0.477156
1.57098e-06
0.477156
1.6851e-06
0.477157
1.64243e-06
0.477157
1.47044e-06
0.477158
1.31482e-06
0.477158
1.24904e-06
0.477159
1.24673e-06
0.47716
1.27029e-06
0.47716
1.29856e-06
0.477161
1.30125e-06
0.477161
1.2512e-06
0.477162
1.15595e-06
0.477163
1.04972e-06
0.477163
9.72281e-07
0.477164
9.71057e-07
0.477164
1.07283e-06
0.477165
1.22295e-06
0.477165
1.30656e-06
0.477166
1.27427e-06
0.477166
1.21608e-06
0.477167
1.25166e-06
0.477167
1.36839e-06
0.477168
1.4546e-06
0.477168
1.47763e-06
0.477168
1.52785e-06
0.477169
1.65294e-06
0.477169
1.74903e-06
0.477169
1.70829e-06
0.477169
1.60155e-06
0.477169
1.60438e-06
0.477169
1.76643e-06
0.477169
1.95838e-06
0.477169
2.05268e-06
0.477169
2.05796e-06
0.477169
2.04887e-06
0.477169
2.04402e-06
0.477169
2.00152e-06
0.477169
1.89241e-06
0.477169
1.74353e-06
0.47717
1.62608e-06
0.47717
1.60805e-06
0.47717
1.69218e-06
0.47717
1.79854e-06
0.47717
1.83961e-06
0.477171
1.8062e-06
0.477171
1.74572e-06
0.477171
1.67407e-06
0.477171
1.56955e-06
0.477171
1.45745e-06
0.477171
1.43034e-06
0.477172
1.541e-06
0.477172
1.72155e-06
0.477172
1.85896e-06
0.477171
1.9176e-06
0.477172
1.94009e-06
0.477172
1.94397e-06
0.477172
1.88689e-06
0.477172
1.75181e-06
0.477172
1.60488e-06
0.477172
1.53138e-06
0.477172
1.5471e-06
0.477172
1.60709e-06
0.477172
1.67516e-06
0.477172
1.73675e-06
0.477172
1.7605e-06
0.477173
1.70692e-06
0.477173
1.58334e-06
0.477173
1.44468e-06
0.477174
1.33553e-06
0.477174
1.26213e-06
0.477175
1.22164e-06
0.477175
1.22955e-06
0.477175
1.2919e-06
0.477176
1.3713e-06
0.477177
1.42113e-06
0.477177
1.43337e-06
0.477178
1.42969e-06
0.477178
1.41532e-06
0.477179
1.37147e-06
0.477179
1.30631e-06
0.47718
1.28021e-06
0.47718
1.34884e-06
0.477181
1.49093e-06
0.477181
1.62052e-06
0.477182
1.67417e-06
0.477182
1.6645e-06
0.477182
1.64423e-06
0.477183
1.63972e-06
0.477183
1.6342e-06
0.477183
1.60093e-06
0.477183
1.53957e-06
0.477184
1.48085e-06
0.477184
1.45701e-06
0.477184
1.46854e-06
0.477184
1.48953e-06
0.477185
1.50535e-06
0.477185
1.5231e-06
0.477185
1.53331e-06
0.477186
1.494e-06
0.477186
1.38968e-06
0.477187
1.28388e-06
0.477188
1.25892e-06
0.477188
1.29681e-06
0.477189
1.2843e-06
0.477189
1.16172e-06
0.47719
1.01602e-06
0.477191
9.8157e-07
0.477192
1.06926e-06
0.477192
1.15764e-06
0.477193
1.14338e-06
0.477193
1.04655e-06
0.477194
9.54484e-07
0.477195
9.17756e-07
0.477196
9.2664e-07
0.477197
9.53398e-07
0.477198
9.7155e-07
0.477199
9.4695e-07
0.4772
8.60358e-07
0.477201
7.42452e-07
0.477202
6.54859e-07
0.477203
6.25358e-07
0.477204
6.20159e-07
0.477205
5.79293e-07
0.477207
4.75619e-07
0.477208
3.43433e-07
0.47721
2.50076e-07
0.477211
2.27378e-07
0.477213
2.39103e-07
0.477215
2.29722e-07
0.477216
1.94358e-07
0.477218
1.84375e-07
0.47722
2.38286e-07
0.477221
3.44633e-07
0.477223
4.59129e-07
0.477224
5.41098e-07
7.42331e-07
0.477133
2.90773e-07
0.477134
3.52924e-07
0.477133
3.49346e-07
0.477133
5.61662e-07
0.477135
5.90854e-07
0.477135
1.34298e-06
0.477134
1.76187e-06
0.477132
1.77048e-06
0.477131
1.67346e-06
0.47713
1.72345e-06
0.47713
1.67301e-06
0.47713
1.84063e-06
0.477129
2.04321e-06
0.477128
1.6577e-06
0.477128
9.93688e-07
0.477129
1.05188e-06
0.47713
1.66646e-06
0.47713
1.62677e-06
0.47713
1.33908e-06
0.477131
1.26894e-06
0.477131
1.14468e-06
0.477132
1.0374e-06
0.477133
1.0003e-06
0.477134
1.0487e-06
0.477135
1.19932e-06
0.477136
1.39975e-06
0.477137
1.4204e-06
0.477138
1.40591e-06
0.477139
1.6781e-06
0.477139
1.95153e-06
0.47714
1.89831e-06
0.477141
1.80325e-06
0.477142
1.93804e-06
0.477142
2.07823e-06
0.477142
1.93805e-06
0.477142
1.63992e-06
0.477142
1.4569e-06
0.477143
1.37492e-06
0.477143
1.2603e-06
0.477144
1.15237e-06
0.477145
1.10032e-06
0.477146
1.0057e-06
0.477147
8.59226e-07
0.477148
8.7702e-07
0.477149
1.17153e-06
0.47715
1.47084e-06
0.477151
1.5e-06
0.477151
1.39347e-06
0.477152
1.42259e-06
0.477152
1.52127e-06
0.477153
1.5002e-06
0.477154
1.45534e-06
0.477154
1.60125e-06
0.477154
1.85735e-06
0.477154
1.9601e-06
0.477154
1.88804e-06
0.477153
1.86821e-06
0.477153
1.97424e-06
0.477153
2.01005e-06
0.477152
1.85759e-06
0.477152
1.68846e-06
0.477152
1.70947e-06
0.477151
1.86251e-06
0.47715
1.92449e-06
0.47715
1.81066e-06
0.47715
1.65408e-06
0.47715
1.60642e-06
0.47715
1.65114e-06
0.47715
1.64219e-06
0.47715
1.50072e-06
0.47715
1.31728e-06
0.477151
1.23295e-06
0.477152
1.27071e-06
0.477153
1.33201e-06
0.477153
1.32102e-06
0.477154
1.22016e-06
0.477155
1.08855e-06
0.477156
1.03044e-06
0.477157
1.09926e-06
0.477157
1.21944e-06
0.477158
1.25168e-06
0.477158
1.16915e-06
0.477159
1.10731e-06
0.477159
1.18156e-06
0.47716
1.31675e-06
0.47716
1.35145e-06
0.47716
1.27552e-06
0.477161
1.23412e-06
0.477161
1.29896e-06
0.477161
1.37389e-06
0.477161
1.35994e-06
0.477162
1.29821e-06
0.477162
1.28128e-06
0.477163
1.30403e-06
0.477163
1.29074e-06
0.477163
1.22704e-06
0.477164
1.18865e-06
0.477164
1.24085e-06
0.477165
1.35618e-06
0.477165
1.45774e-06
0.477165
1.51264e-06
0.477165
1.53695e-06
0.477166
1.52838e-06
0.477166
1.47052e-06
0.477166
1.41148e-06
0.477167
1.44687e-06
0.477167
1.57668e-06
0.477167
1.66431e-06
0.477167
1.61468e-06
0.477168
1.50729e-06
0.477168
1.46855e-06
0.477168
1.49304e-06
0.477168
1.4984e-06
0.477168
1.49923e-06
0.477168
1.58022e-06
0.477168
1.72121e-06
0.477168
1.78881e-06
0.477168
1.7194e-06
0.477167
1.60389e-06
0.477167
1.56178e-06
0.477167
1.6131e-06
0.477166
1.69799e-06
0.477166
1.75383e-06
0.477165
1.7468e-06
0.477165
1.67823e-06
0.477165
1.58839e-06
0.477164
1.52441e-06
0.477164
1.49441e-06
0.477163
1.48445e-06
0.477163
1.50715e-06
0.477162
1.58137e-06
0.477162
1.6623e-06
0.477162
1.65592e-06
0.477161
1.54439e-06
0.477161
1.43908e-06
0.477161
1.44821e-06
0.477161
1.53257e-06
0.477161
1.5648e-06
0.477161
1.51267e-06
0.477161
1.46763e-06
0.477161
1.482e-06
0.477161
1.48353e-06
0.477162
1.40534e-06
0.477162
1.3198e-06
0.477162
1.35501e-06
0.477163
1.51879e-06
0.477163
1.68732e-06
0.477163
1.75098e-06
0.477164