/*--------------------------------*- C++ -*----------------------------------*\
| =========                 |                                                 |
| \\      /  F ield         | OpenFOAM: The Open Source CFD Toolbox           |
|  \\    /   O peration     | Version:  2406                                  |
|   \\  /    A nd           | Website:  www.openfoam.com                      |
|    \\/     M anipulation  |                                                 |
\*---------------------------------------------------------------------------*/
FoamFile
{
    version     2.0;
    format      ascii;
    arch        "LSB;label=32;scalar=64";
    class       volScalarField;
    location    "0.6";
    object      p_rgh;
}
// * * * * * * * * * * * * * * * * * * * * * * * * * * * * * * * * * * * * * //

dimensions      [1 -1 -2 0 0 0 0];

internalField   nonuniform List<scalar> 
6250
(
657.851
-2162.63
-273.009
1098.08
1060.63
650.792
507.704
571.886
635.829
638.938
618.891
607.973
607.38
608.028
606.1
602.824
599.79
597.252
594.831
592.306
589.711
587.116
584.537
581.969
579.402
576.827
574.255
571.69
569.122
566.548
563.973
561.4
558.828
556.254
553.684
551.116
548.544
545.971
543.399
540.826
538.251
535.679
533.109
530.539
527.968
525.397
522.827
520.257
517.686
515.112
512.539
509.969
507.401
504.834
502.265
499.693
497.118
494.547
491.981
489.415
486.843
484.268
481.698
479.133
476.565
473.994
471.424
468.856
466.289
463.719
461.15
458.582
456.014
453.444
450.876
448.31
445.746
443.179
440.606
438.034
435.468
432.906
430.342
427.772
425.199
422.629
420.064
417.502
414.937
412.367
409.796
407.225
404.659
402.097
399.532
396.964
394.394
391.825
389.258
386.691
384.124
381.557
378.988
376.42
373.854
371.287
368.717
366.146
363.576
361.01
358.447
355.881
353.311
350.738
348.166
345.599
343.032
340.464
337.893
335.323
332.752
330.183
327.613
325.044
322.476
319.906
317.335
314.763
312.19
309.62
307.05
304.482
301.913
299.342
296.768
294.192
291.616
289.045
286.478
283.913
281.345
278.773
276.198
273.622
271.048
268.473
265.899
263.327
260.759
258.194
255.628
253.057
250.479
247.9
245.322
242.749
240.179
237.612
235.045
232.476
229.904
227.331
224.758
222.183
219.607
217.031
214.458
211.89
209.324
206.757
204.188
201.616
199.043
196.47
193.897
191.324
188.751
186.18
183.61
181.044
178.479
175.913
173.343
170.769
168.195
165.624
163.055
160.486
157.915
155.344
152.775
150.211
147.649
145.086
142.519
139.949
137.379
134.81
132.241
129.673
127.105
124.538
121.971
119.405
116.84
114.277
111.714
109.15
106.583
104.015
101.446
98.8763
96.3062
93.7357
91.1652
88.5952
86.0257
83.4568
80.8891
78.3235
75.7595
73.1962
70.6322
68.0668
65.5007
62.935
60.3695
57.8035
55.2354
52.6643
50.0914
47.5183
44.9463
42.3748
39.8034
37.2315
34.6593
32.0876
29.5173
26.9487
24.3813
21.8144
19.2478
16.6813
14.1151
11.5491
8.98306
6.417
3.85043
1.28358
657.837
-2162.68
-273.039
1098.09
1060.64
650.794
507.687
571.867
635.825
638.943
618.895
607.97
607.369
608.019
606.095
602.825
599.793
597.253
594.832
592.301
589.699
587.109
584.54
581.973
579.409
576.838
574.259
571.685
569.114
566.543
563.973
561.402
558.831
556.258
553.683
551.111
548.54
545.967
543.396
540.828
538.257
535.682
533.11
530.541
527.97
525.397
522.824
520.255
517.685
515.113
512.541
509.972
507.403
504.832
502.26
499.691
497.121
494.548
491.978
489.414
486.848
484.274
481.698
479.128
476.565
474
471.428
468.856
466.287
463.72
461.151
458.581
456.014
453.448
450.88
448.309
445.74
443.173
440.607
438.04
435.472
432.904
430.336
427.768
425.2
422.632
420.066
417.499
414.931
412.364
409.798
407.23
404.661
402.093
399.527
396.962
394.396
391.828
389.259
386.689
384.121
381.555
378.99
376.424
373.855
371.285
368.715
366.146
363.578
361.011
358.446
355.881
353.313
350.741
348.167
345.596
343.03
340.465
337.898
335.326
332.753
330.182
327.614
325.047
322.479
319.909
317.337
314.764
312.192
309.622
307.054
304.486
301.916
299.344
296.769
294.194
291.62
289.048
286.48
283.915
281.349
278.778
276.202
273.623
271.045
268.471
265.901
263.333
260.765
258.196
255.626
253.054
250.479
247.903
245.326
242.75
240.178
237.61
235.044
232.478
229.907
227.333
224.756
222.18
219.606
217.033
214.46
211.89
209.323
206.756
204.188
201.618
199.045
196.471
193.895
191.322
188.751
186.182
183.613
181.044
178.476
175.91
173.343
170.774
168.201
165.625
163.05
160.48
157.914
155.348
152.78
150.212
147.646
145.082
142.518
139.951
137.382
134.812
132.241
129.671
127.103
124.536
121.971
119.407
116.842
114.278
111.713
109.149
106.584
104.017
101.447
98.877
96.3059
93.7346
91.1636
88.5936
86.0249
83.4573
80.8903
78.3239
75.7585
73.1945
70.6316
68.0688
65.5044
62.9378
60.3697
57.8012
55.2328
52.664
50.0936
47.521
44.9471
42.3734
39.8009
37.2296
34.6591
32.0889
29.5187
26.9492
24.3807
21.8134
19.2469
16.6811
14.1155
11.5498
8.98379
6.41732
3.85121
1.28294
657.83
-2162.69
-273.031
1098.1
1060.64
650.8
507.7
571.868
635.82
638.932
618.89
607.971
607.373
608.025
606.1
602.825
599.792
597.25
594.833
592.311
589.709
587.113
584.543
581.975
579.406
576.838
574.261
571.688
569.119
566.547
563.972
561.398
558.828
556.259
553.686
551.113
548.543
545.97
543.398
540.827
538.256
535.683
533.11
530.539
527.969
525.398
522.825
520.253
517.683
515.113
512.542
509.973
507.404
504.831
502.258
499.689
497.123
494.553
491.979
489.409
486.843
484.275
481.703
479.13
476.562
473.996
471.427
468.855
466.286
463.72
461.151
458.58
456.011
453.446
450.882
448.313
445.74
443.17
440.605
438.042
435.476
432.906
430.334
427.766
425.2
422.635
420.069
417.5
414.93
412.362
409.797
407.232
404.665
402.095
399.526
396.96
394.395
391.829
389.261
386.69
384.121
381.554
378.99
376.425
373.856
371.284
368.714
366.146
363.581
361.015
358.446
355.877
353.308
350.739
348.169
345.6
343.031
340.464
337.895
335.324
332.752
330.182
327.614
325.047
322.478
319.908
317.335
314.761
312.189
309.62
307.053
304.485
301.915
299.341
296.766
294.191
291.618
289.047
286.479
283.912
281.345
278.776
276.201
273.623
271.043
268.467
265.897
263.331
260.766
258.198
255.626
253.052
250.476
247.899
245.324
242.75
240.179
237.61
235.043
232.477
229.907
227.334
224.756
222.179
219.603
217.031
214.46
211.891
209.323
206.756
204.188
201.618
199.045
196.47
193.894
191.32
188.749
186.181
183.614
181.047
178.479
175.91
173.341
170.772
168.201
165.627
163.052
160.479
157.91
155.345
152.781
150.215
147.649
145.083
142.517
139.95
137.381
134.811
132.241
129.672
127.102
124.535
121.97
119.406
116.843
114.279
111.714
109.149
106.583
104.016
101.447
98.8768
96.3061
93.735
91.1638
88.5932
86.024
83.4565
80.8904
78.325
75.7598
73.1949
70.6307
68.0671
65.5033
62.9381
60.3711
57.8025
55.2329
52.6628
50.0921
47.5204
44.9478
42.3746
39.8016
37.2293
34.6581
32.0878
29.5183
26.9493
24.3812
21.814
19.2473
16.681
14.1151
11.5494
8.98346
6.41725
3.85023
1.28366
657.823
-2162.7
-273.052
1098.09
1060.64
650.794
507.694
571.874
635.831
638.946
618.896
607.966
607.363
608.019
606.1
602.826
599.794
597.248
594.826
592.304
589.701
587.106
584.538
581.971
579.401
576.834
574.26
571.687
569.115
566.545
563.973
561.398
558.826
556.258
553.685
551.111
548.541
545.971
543.397
540.824
538.254
535.684
533.111
530.537
527.966
525.397
522.828
520.257
517.685
515.113
512.541
509.97
507.402
504.834
502.261
499.689
497.121
494.555
491.983
489.408
486.838
484.273
481.706
479.135
476.563
473.993
471.425
468.856
466.288
463.72
461.152
458.582
456.012
453.445
450.88
448.313
445.743
443.171
440.603
438.039
435.475
432.906
430.335
427.765
425.198
422.633
420.068
417.501
414.932
412.363
409.795
407.229
404.663
402.096
399.528
396.96
394.394
391.827
389.259
386.69
384.122
381.554
378.988
376.423
373.855
371.285
368.714
366.146
363.581
361.016
358.448
355.877
353.306
350.737
348.17
345.603
343.034
340.464
337.893
335.322
332.752
330.183
327.616
325.049
322.48
319.908
317.334
314.761
312.19
309.621
307.055
304.488
301.918
299.343
296.766
294.19
291.618
289.05
286.483
283.916
281.347
278.775
276.2
273.623
271.046
268.47
265.899
263.332
260.767
258.2
255.629
253.054
250.476
247.898
245.322
242.751
240.182
237.614
235.046
232.476
229.906
227.333
224.757
222.179
219.603
217.03
214.461
211.894
209.326
206.758
204.188
201.617
199.044
196.469
193.895
191.321
188.749
186.18
183.613
181.048
178.482
175.913
173.341
170.769
168.197
165.626
163.054
160.482
157.911
155.343
152.779
150.216
147.651
145.085
142.517
139.949
137.38
134.81
132.241
129.672
127.104
124.536
121.97
119.405
116.842
114.28
111.715
109.15
106.583
104.016
101.447
98.8766
96.3059
93.7351
91.1643
88.5938
86.0241
83.4559
80.8894
78.3246
75.7604
73.1962
70.6317
68.067
65.5024
62.9375
60.3715
57.8038
55.2341
52.663
50.0913
47.5194
44.9473
42.375
39.8023
37.2298
34.658
32.0873
29.5178
26.9491
24.3811
21.814
19.2475
16.6813
14.1153
11.5495
8.98357
6.41729
3.85122
1.28314
657.827
-2162.69
-273.044
1098.08
1060.63
650.798
507.697
571.868
635.82
638.94
618.9
607.976
607.371
608.018
606.094
602.821
599.797
597.253
594.826
592.311
589.711
587.109
584.539
581.978
579.409
576.835
574.259
571.687
569.117
566.546
563.974
561.401
558.829
556.258
553.686
551.113
548.542
545.971
543.399
540.826
538.256
535.686
533.113
530.539
527.966
525.395
522.827
520.257
517.685
515.112
512.54
509.969
507.401
504.834
502.264
499.691
497.119
494.551
491.982
489.41
486.839
484.272
481.706
479.136
476.562
473.99
471.423
468.857
466.289
463.719
461.151
458.583
456.014
453.445
450.877
448.31
445.743
443.175
440.606
438.039
435.472
432.905
430.337
427.768
425.2
422.633
420.066
417.5
414.934
412.366
409.797
407.229
404.662
402.095
399.529
396.963
394.395
391.827
389.258
386.69
384.123
381.556
378.989
376.422
373.854
371.286
368.716
366.148
363.581
361.014
358.447
355.877
353.306
350.736
348.17
345.604
343.036
340.465
337.892
335.321
332.751
330.184
327.618
325.05
322.48
319.906
317.332
314.759
312.189
309.621
307.055
304.487
301.917
299.342
296.766
294.189
291.616
289.048
286.483
283.917
281.347
278.773
276.196
273.619
271.044
268.471
265.9
263.333
260.766
258.198
255.627
253.052
250.475
247.897
245.322
242.749
240.181
237.614
235.047
232.477
229.904
227.33
224.754
222.179
219.603
217.031
214.461
211.894
209.327
206.759
204.188
201.616
199.042
196.467
193.893
191.321
188.75
186.181
183.613
181.047
178.481
175.914
173.343
170.77
168.195
165.623
163.052
160.482
157.912
155.344
152.779
150.215
147.651
145.085
142.518
139.95
137.38
134.81
132.239
129.67
127.102
124.536
121.97
119.406
116.842
114.279
111.715
109.15
106.584
104.016
101.447
98.8765
96.3053
93.7342
91.1636
88.5937
86.0246
83.4563
80.8893
78.3238
75.7597
73.1961
70.6324
68.068
65.5029
62.937
60.3706
57.8032
55.2342
52.6636
50.0918
47.5192
44.9465
42.374
39.8018
37.2298
34.6583
32.0875
29.5177
26.949
24.381
21.8138
19.2474
16.6813
14.1154
11.5496
8.98351
6.4172
3.85008
1.2839
657.827
-2162.69
-273.043
1098.08
1060.63
650.791
507.693
571.869
635.82
638.934
618.895
607.974
607.37
608.023
606.103
602.822
599.792
597.253
594.827
592.306
589.708
587.11
584.537
581.973
579.405
576.833
574.261
571.688
569.115
566.541
563.971
561.401
558.828
556.256
553.685
551.113
548.539
545.967
543.397
540.825
538.253
535.682
533.112
530.539
527.967
525.396
522.827
520.257
517.684
515.112
512.541
509.971
507.4
504.831
502.263
499.694
497.121
494.549
491.98
489.412
486.843
484.273
481.704
479.133
476.562
473.991
471.424
468.858
466.29
463.719
461.149
458.581
456.015
453.447
450.878
448.309
445.742
443.175
440.607
438.039
435.47
432.903
430.336
427.769
425.201
422.633
420.065
417.498
414.932
412.366
409.798
407.229
404.661
402.094
399.529
396.963
394.395
391.826
389.257
386.689
384.122
381.556
378.989
376.421
373.852
371.285
368.718
366.15
363.582
361.012
358.443
355.875
353.306
350.738
348.171
345.604
343.035
340.464
337.891
335.32
332.751
330.185
327.619
325.051
322.479
319.905
317.33
314.758
312.189
309.623
307.057
304.488
301.917
299.342
296.766
294.191
291.618
289.049
286.483
283.917
281.348
278.774
276.197
273.619
271.044
268.472
265.903
263.336
260.768
258.199
255.626
253.051
250.474
247.898
245.323
242.751
240.182
237.615
235.048
232.478
229.904
227.329
224.753
222.178
219.604
217.033
214.463
211.896
209.328
206.76
204.189
201.616
199.041
196.466
193.892
191.32
188.751
186.183
183.616
181.049
178.481
175.913
173.343
170.771
168.196
165.622
163.05
160.48
157.913
155.346
152.781
150.216
147.651
145.086
142.519
139.95
137.38
134.81
132.239
129.67
127.101
124.535
121.971
119.406
116.843
114.279
111.715
109.151
106.584
104.016
101.447
98.8769
96.3057
93.7343
91.1633
88.5933
86.0246
83.4569
80.8901
78.3242
75.7595
73.1956
70.6322
68.0684
65.5036
62.9377
60.3706
57.8027
55.2337
52.6635
50.0921
47.5197
44.9468
42.3739
39.8014
37.2296
34.6583
32.0876
29.5178
26.9491
24.3813
21.8141
19.2475
16.6814
14.1155
11.5496
8.98356
6.41725
3.85056
1.28352
657.814
-2162.7
-273.036
1098.09
1060.64
650.792
507.689
571.87
635.823
638.934
618.891
607.974
607.369
608.017
606.097
602.82
599.792
597.254
594.826
592.303
589.709
587.113
584.539
581.975
579.406
576.834
574.26
571.689
569.118
566.545
563.973
561.403
558.83
556.256
553.685
551.115
548.542
545.969
543.398
540.828
538.256
535.684
533.111
530.538
527.966
525.396
522.827
520.256
517.684
515.113
512.545
509.975
507.401
504.828
502.26
499.694
497.123
494.548
491.977
489.412
486.846
484.275
481.701
479.13
476.562
473.994
471.426
468.858
466.29
463.72
461.149
458.58
456.013
453.447
450.88
448.311
445.742
443.174
440.606
438.039
435.471
432.904
430.337
427.769
425.201
422.634
420.066
417.499
414.932
412.365
409.798
407.231
404.663
402.096
399.529
396.962
394.394
391.827
389.259
386.691
384.123
381.556
378.989
376.42
373.852
371.285
368.719
366.152
363.583
361.012
358.441
355.873
353.306
350.741
348.174
345.606
343.035
340.462
337.89
335.32
332.753
330.187
327.621
325.051
322.479
319.904
317.329
314.757
312.189
309.623
307.058
304.489
301.916
299.34
296.764
294.19
291.619
289.051
286.483
283.916
281.346
278.772
276.196
273.618
271.043
268.472
265.903
263.336
260.768
258.198
255.624
253.048
250.471
247.896
245.323
242.753
240.183
237.615
235.046
232.476
229.903
227.327
224.751
222.176
219.604
217.033
214.465
211.897
209.329
206.759
204.188
201.614
199.04
196.465
193.891
191.319
188.75
186.183
183.618
181.051
178.482
175.912
173.341
170.769
168.196
165.622
163.049
160.479
157.912
155.346
152.782
150.217
147.652
145.086
142.518
139.949
137.379
134.809
132.239
129.669
127.101
124.534
121.97
119.406
116.843
114.279
111.716
109.151
106.584
104.016
101.447
98.8765
96.3057
93.7344
91.1632
88.5929
86.0239
83.4564
80.8901
78.3247
75.7599
73.1956
70.6317
68.0679
65.5036
62.9381
60.3711
57.8028
55.2334
52.663
50.0916
47.5195
44.9469
42.374
39.8013
37.2292
34.658
32.0875
29.5178
26.949
24.3812
21.8141
19.2476
16.6814
14.1155
11.5496
8.98352
6.41722
3.8505
1.28357
657.813
-2162.71
-273.059
1098.08
1060.64
650.798
507.697
571.869
635.82
638.933
618.891
607.973
607.369
608.02
606.105
602.824
599.788
597.255
594.832
592.301
589.704
587.112
584.537
581.973
579.408
576.835
574.259
571.687
569.117
566.544
563.971
561.4
558.829
556.255
553.684
551.115
548.542
545.967
543.394
540.825
538.256
535.684
533.111
530.539
527.968
525.397
522.825
520.254
517.683
515.113
512.543
509.973
507.401
504.83
502.26
499.693
497.123
494.55
491.978
489.411
486.844
484.274
481.701
479.13
476.563
473.996
471.426
468.856
466.288
463.72
461.15
458.579
456.011
453.446
450.881
448.313
445.742
443.172
440.604
438.038
435.473
432.906
430.337
427.768
425.2
422.633
420.066
417.499
414.932
412.364
409.797
407.231
404.664
402.096
399.528
396.96
394.393
391.826
389.26
386.693
384.124
381.554
378.986
376.419
373.853
371.286
368.72
366.152
363.583
361.011
358.44
355.871
353.306
350.742
348.176
345.606
343.033
340.46
337.888
335.319
332.754
330.189
327.622
325.051
322.477
319.902
317.328
314.757
312.19
309.624
307.058
304.489
301.916
299.34
296.763
294.19
291.62
289.052
286.485
283.916
281.345
278.771
276.195
273.619
271.045
268.474
265.905
263.338
260.769
258.198
255.624
253.048
250.471
247.896
245.324
242.754
240.186
237.617
235.047
232.475
229.902
227.327
224.751
222.176
219.604
217.035
214.467
211.899
209.33
206.76
204.187
201.613
199.038
196.464
193.891
191.32
188.751
186.184
183.618
181.052
178.484
175.914
173.341
170.768
168.194
165.622
163.05
160.479
157.912
155.346
152.782
150.218
147.653
145.087
142.519
139.95
137.379
134.808
132.238
129.669
127.101
124.535
121.97
119.406
116.843
114.28
111.716
109.151
106.585
104.016
101.447
98.8764
96.3055
93.7345
91.1637
88.5934
86.0241
83.4563
80.8899
78.3247
75.7603
73.1962
70.6321
68.0679
65.5033
62.9379
60.3713
57.8031
55.2336
52.663
50.0914
47.5192
44.9467
42.374
39.8014
37.2292
34.658
32.0876
29.5179
26.9492
24.3813
21.8143
19.2477
16.6816
14.1156
11.5496
8.98355
6.41726
3.85037
1.28374
657.811
-2162.71
-273.052
1098.08
1060.63
650.785
507.686
571.869
635.829
638.942
618.889
607.97
607.373
608.018
606.096
602.823
599.791
597.252
594.832
592.304
589.704
587.114
584.54
581.972
579.406
576.836
574.261
571.687
569.116
566.545
563.972
561.399
558.827
556.256
553.687
551.116
548.543
545.969
543.397
540.825
538.253
535.682
533.111
530.541
527.97
525.397
522.825
520.256
517.688
515.116
512.542
509.969
507.4
504.832
502.262
499.691
497.121
494.551
491.981
489.411
486.841
484.272
481.702
479.133
476.564
473.996
471.427
468.857
466.288
463.719
461.15
458.581
456.013
453.447
450.881
448.313
445.742
443.171
440.604
438.039
435.474
432.906
430.338
427.768
425.2
422.633
420.066
417.499
414.932
412.364
409.798
407.232
404.665
402.096
399.527
396.959
394.393
391.827
389.262
386.695
384.125
381.554
378.984
376.418
373.853
371.289
368.722
366.152
363.581
361.01
358.44
355.873
353.308
350.743
348.177
345.606
343.032
340.459
337.888
335.32
332.755
330.19
327.622
325.051
322.476
319.9
317.327
314.758
312.191
309.625
307.058
304.488
301.915
299.339
296.764
294.19
291.62
289.053
286.486
283.916
281.344
278.769
276.193
273.618
271.046
268.475
265.906
263.338
260.768
258.196
255.622
253.046
250.471
247.896
245.324
242.754
240.186
237.617
235.047
232.474
229.899
227.325
224.75
222.176
219.605
217.036
214.468
211.9
209.331
206.76
204.186
201.612
199.036
196.462
193.89
191.32
188.752
186.185
183.619
181.052
178.485
175.914
173.341
170.767
168.192
165.62
163.049
160.479
157.912
155.347
152.783
150.219
147.654
145.087
142.519
139.95
137.379
134.808
132.237
129.668
127.101
124.534
121.97
119.406
116.843
114.28
111.716
109.151
106.584
104.016
101.447
98.8763
96.3051
93.734
91.1634
88.5934
86.0243
83.4564
80.8897
78.3244
75.76
73.1962
70.6324
68.0681
65.5032
62.9376
60.3709
57.8029
55.2335
52.6629
50.0913
47.519
44.9464
42.3738
39.8013
37.2292
34.6578
32.0874
29.518
26.9493
24.3814
21.8143
19.2477
16.6816
14.1156
11.5497
8.98353
6.41719
3.85046
1.28368
657.814
-2162.72
-273.061
1098.08
1060.64
650.794
507.685
571.861
635.818
638.936
618.889
607.969
607.37
608.018
606.099
602.826
599.792
597.252
594.832
592.306
589.707
587.113
584.536
581.968
579.405
576.837
574.262
571.687
569.117
566.547
563.973
561.399
558.828
556.258
553.686
551.113
548.54
545.97
543.398
540.826
538.254
535.683
533.113
530.54
527.967
525.393
522.822
520.254
517.686
515.115
512.542
509.969
507.4
504.832
502.262
499.69
497.119
494.551
491.981
489.41
486.84
484.272
481.704
479.134
476.563
473.993
471.425
468.857
466.288
463.718
461.148
458.581
456.014
453.448
450.879
448.31
445.74
443.172
440.605
438.04
435.473
432.905
430.336
427.768
425.201
422.634
420.065
417.497
414.93
412.364
409.799
407.233
404.664
402.094
399.525
396.958
394.393
391.829
389.263
386.695
384.124
381.552
378.983
376.417
373.854
371.29
368.723
366.152
363.579
361.008
358.439
355.874
353.309
350.744
348.176
345.604
343.031
340.458
337.888
335.321
332.756
330.191
327.622
325.049
322.474
319.9
317.327
314.759
312.193
309.627
307.058
304.487
301.913
299.338
296.764
294.191
291.622
289.053
286.486
283.916
281.343
278.768
276.193
273.618
271.047
268.477
265.908
263.339
260.768
258.195
255.62
253.045
250.471
247.897
245.326
242.756
240.187
237.618
235.047
232.473
229.898
227.323
224.749
222.177
219.606
217.038
214.47
211.901
209.331
206.759
204.186
201.611
199.035
196.461
193.889
191.32
188.753
186.187
183.621
181.054
178.485
175.914
173.341
170.767
168.192
165.619
163.048
160.479
157.913
155.348
152.784
150.22
147.655
145.088
142.519
139.949
137.379
134.808
132.237
129.668
127.1
124.534
121.97
119.406
116.843
114.28
111.716
109.151
106.585
104.017
101.447
98.8766
96.3054
93.7341
91.1633
88.5934
86.0245
83.4567
80.8901
78.3246
75.76
73.1961
70.6324
68.0684
65.5035
62.9377
60.3708
57.8027
55.2333
52.6628
50.0913
47.519
44.9463
42.3736
39.8012
37.2293
34.6579
32.0875
29.5181
26.9495
24.3816
21.8144
19.2478
16.6817
14.1157
11.5498
8.98366
6.41726
3.85024
1.28389
657.814
-2162.71
-273.062
1098.07
1060.63
650.793
507.687
571.866
635.825
638.942
618.891
607.969
607.374
608.018
606.095
602.825
599.79
597.246
594.829
592.307
589.707
587.113
584.541
581.974
579.402
576.831
574.26
571.689
569.117
566.544
563.972
561.4
558.828
556.257
553.685
551.113
548.542
545.97
543.396
540.824
538.254
535.685
533.114
530.541
527.968
525.397
522.826
520.254
517.684
515.114
512.543
509.972
507.401
504.833
502.263
499.692
497.12
494.55
491.98
489.411
486.842
484.273
481.705
479.134
476.562
473.992
471.425
468.859
466.289
463.718
461.148
458.581
456.016
453.448
450.879
448.308
445.74
443.174
440.608
438.041
435.472
432.903
430.335
427.769
425.203
422.635
420.065
417.496
414.929
412.365
409.801
407.235
404.664
402.093
399.523
396.958
394.395
391.832
389.265
386.695
384.122
381.551
378.983
376.418
373.855
371.291
368.723
366.152
363.578
361.007
358.44
355.876
353.311
350.745
348.175
345.603
343.029
340.458
337.889
335.323
332.758
330.191
327.621
325.048
322.474
319.9
317.329
314.76
312.194
309.627
307.058
304.486
301.911
299.337
296.764
294.193
291.624
289.055
286.485
283.914
281.341
278.767
276.192
273.619
271.048
268.478
265.909
263.339
260.767
258.194
255.619
253.043
250.47
247.898
245.327
242.758
240.188
237.617
235.046
232.472
229.897
227.322
224.748
222.177
219.607
217.039
214.471
211.902
209.331
206.758
204.184
201.609
199.034
196.46
193.889
191.32
188.754
186.188
183.622
181.055
178.485
175.913
173.34
170.765
168.191
165.618
163.047
160.479
157.913
155.349
152.785
150.22
147.655
145.088
142.519
139.949
137.378
134.807
132.236
129.667
127.1
124.534
121.97
119.406
116.843
114.28
111.716
109.151
106.585
104.016
101.447
98.8764
96.3054
93.7342
91.1633
88.5932
86.0243
83.4566
80.8901
78.3247
75.7602
73.1961
70.6323
68.0682
65.5035
62.9377
60.3707
57.8025
55.2331
52.6625
50.0911
47.5189
44.9462
42.3735
39.8011
37.2293
34.658
32.0876
29.5181
26.9495
24.3818
21.8146
19.248
16.6817
14.1158
11.5498
8.98377
6.41739
3.85062
1.28349
657.814
-2162.71
-273.053
1098.08
1060.63
650.794
507.691
571.864
635.813
638.937
618.897
607.967
607.367
608.021
606.097
602.826
599.794
597.251
594.83
592.304
589.704
587.111
584.542
581.975
579.402
576.83
574.26
571.69
569.117
566.546
563.974
561.401
558.827
556.254
553.684
551.115
548.545
545.971
543.397
540.824
538.254
535.683
533.11
530.538
527.967
525.397
522.826
520.254
517.683
515.113
512.542
509.97
507.399
504.83
502.263
499.693
497.12
494.548
491.979
489.411
486.843
484.273
481.702
479.131
476.561
473.993
471.425
468.858
466.289
463.719
461.15
458.582
456.015
453.446
450.877
448.308
445.742
443.176
440.609
438.039
435.469
432.901
430.336
427.771
425.204
422.635
420.063
417.494
414.929
412.366
409.802
407.234
404.663
402.091
399.522
396.958
394.396
391.834
389.266
386.693
384.12
381.549
378.983
376.42
373.857
371.291
368.722
366.15
363.577
361.007
358.441
355.877
353.312
350.745
348.174
345.601
343.028
340.458
337.89
335.324
332.758
330.19
327.619
325.046
322.473
319.901
317.33
314.762
312.195
309.626
307.056
304.484
301.91
299.336
296.764
294.194
291.625
289.056
286.485
283.913
281.34
278.766
276.192
273.62
271.049
268.48
265.91
263.339
260.766
258.193
255.618
253.043
250.47
247.898
245.329
242.759
240.189
237.618
235.045
232.47
229.896
227.321
224.748
222.177
219.609
217.041
214.473
211.903
209.332
206.758
204.183
201.607
199.033
196.46
193.89
191.321
188.755
186.19
183.624
181.056
178.486
175.913
173.339
170.764
168.19
165.618
163.047
160.479
157.914
155.35
152.786
150.221
147.656
145.089
142.519
139.949
137.377
134.806
132.236
129.667
127.099
124.534
121.97
119.406
116.844
114.28
111.717
109.152
106.585
104.016
101.447
98.8763
96.3054
93.7343
91.1635
88.5934
86.0244
83.4566
80.8902
78.3249
75.7604
73.1964
70.6324
68.0682
65.5034
62.9375
60.3705
57.8024
55.2329
52.6623
50.0908
47.5187
44.9462
42.3734
39.801
37.2292
34.6582
32.0878
29.5183
26.9496
24.3818
21.8147
19.2481
16.6819
14.1159
11.5499
8.98386
6.41747
3.85074
1.28359
657.809
-2162.71
-273.056
1098.07
1060.63
650.791
507.685
571.867
635.822
638.934
618.895
607.974
607.371
608.02
606.094
602.824
599.794
597.248
594.825
592.305
589.709
587.11
584.538
581.977
579.409
576.834
574.258
571.685
569.115
566.546
563.974
561.401
558.827
556.255
553.684
551.114
548.543
545.971
543.398
540.826
538.254
535.683
533.112
530.541
527.968
525.396
522.825
520.256
517.686
515.115
512.543
509.971
507.4
504.832
502.263
499.693
497.121
494.549
491.98
489.413
486.844
484.273
481.701
479.131
476.563
473.995
471.426
468.857
466.288
463.72
461.153
458.584
456.013
453.444
450.876
448.311
445.746
443.179
440.608
438.036
435.466
432.901
430.338
427.774
425.205
422.633
420.062
417.494
414.93
412.369
409.804
407.234
404.661
402.09
399.523
396.96
394.398
391.834
389.265
386.692
384.119
381.549
378.984
376.422
373.858
371.291
368.72
366.148
363.577
361.009
358.443
355.878
353.313
350.744
348.172
345.6
343.028
340.459
337.891
335.325
332.758
330.189
327.618
325.045
322.473
319.902
317.333
314.764
312.196
309.626
307.054
304.482
301.909
299.336
296.765
294.195
291.626
289.056
286.485
283.912
281.338
278.765
276.192
273.621
271.05
268.481
265.911
263.339
260.765
258.191
255.616
253.043
250.47
247.899
245.329
242.76
240.19
237.618
235.044
232.469
229.894
227.32
224.748
222.178
219.61
217.042
214.473
211.903
209.331
206.757
204.182
201.606
199.031
196.459
193.89
191.322
188.756
186.191
183.624
181.056
178.486
175.913
173.338
170.763
168.189
165.617
163.047
160.479
157.914
155.35
152.787
150.222
147.656
145.089
142.519
139.948
137.377
134.806
132.235
129.666
127.099
124.533
121.969
119.406
116.844
114.28
111.717
109.151
106.585
104.016
101.447
98.8763
96.3053
93.7342
91.1635
88.5935
86.0245
83.4567
80.8902
78.3249
75.7605
73.1965
70.6325
68.0682
65.5033
62.9374
60.3703
57.8021
55.2328
52.6622
50.0906
47.5185
44.946
42.3735
39.801
37.2292
34.6582
32.088
29.5185
26.9498
24.382
21.8148
19.2483
16.6821
14.1161
11.55
8.98389
6.4175
3.85057
1.28372
657.813
-2162.7
-273.055
1098.07
1060.63
650.793
507.691
571.866
635.816
638.933
618.894
607.968
607.366
608.022
606.097
602.822
599.795
597.256
594.831
592.304
589.707
587.11
584.537
581.974
579.407
576.834
574.26
571.687
569.116
566.544
563.971
561.4
558.829
556.257
553.684
551.112
548.542
545.971
543.398
540.823
538.251
535.682
533.114
530.542
527.967
525.394
522.824
520.256
517.685
515.112
512.539
509.97
507.402
504.833
502.261
499.689
497.12
494.551
491.982
489.412
486.841
484.27
481.701
479.133
476.564
473.994
471.424
468.855
466.288
463.722
461.154
458.583
456.011
453.441
450.876
448.314
445.748
443.178
440.605
438.032
435.465
432.902
430.341
427.775
425.204
422.631
420.059
417.494
414.932
412.37
409.803
407.232
404.659
402.088
399.523
396.962
394.399
391.833
389.262
386.69
384.118
381.551
378.986
376.423
373.858
371.289
368.718
366.147
363.577
361.01
358.445
355.879
353.312
350.742
348.17
345.599
343.029
340.46
337.893
335.325
332.757
330.187
327.616
325.045
322.474
319.904
317.335
314.766
312.196
309.625
307.052
304.48
301.908
299.337
296.767
294.197
291.627
289.056
286.484
283.911
281.337
278.764
276.192
273.622
271.052
268.482
265.911
263.338
260.764
258.189
255.615
253.042
250.471
247.901
245.331
242.761
240.19
237.618
235.043
232.467
229.893
227.319
224.748
222.179
219.611
217.044
214.475
211.904
209.331
206.757
204.181
201.605
199.031
196.459
193.89
191.324
188.758
186.193
183.626
181.057
178.485
175.912
173.337
170.762
168.188
165.616
163.047
160.48
157.915
155.351
152.788
150.223
147.657
145.089
142.519
139.948
137.377
134.805
132.235
129.666
127.099
124.534
121.97
119.407
116.844
114.281
111.717
109.151
106.585
104.016
101.447
98.8764
96.3053
93.7342
91.1635
88.5935
86.0246
83.4569
80.8905
78.3251
75.7606
73.1966
70.6326
68.0682
65.5031
62.9372
60.3701
57.8018
55.2324
52.662
50.0905
47.5182
44.9458
42.3734
39.8011
37.2293
34.6582
32.088
29.5187
26.95
24.3821
21.8149
19.2484
16.6822
14.1162
11.5502
8.98397
6.41753
3.85065
1.28361
657.813
-2162.71
-273.057
1098.07
1060.64
650.79
507.683
571.868
635.824
638.933
618.891
607.971
607.37
608.023
606.096
602.819
599.792
597.256
594.828
592.298
589.704
587.115
584.54
581.972
579.403
576.833
574.262
571.688
569.114
566.544
563.975
561.403
558.828
556.254
553.683
551.114
548.543
545.97
543.396
540.824
538.254
535.684
533.113
530.541
527.968
525.397
522.828
520.258
517.685
515.112
512.541
509.973
507.404
504.833
502.26
499.689
497.122
494.554
491.983
489.41
486.838
484.271
481.704
479.136
476.565
473.992
471.422
468.856
466.291
463.724
461.154
458.581
456.009
453.442
450.879
448.317
445.75
443.177
440.602
438.031
435.466
432.905
430.343
427.776
425.203
422.629
420.059
417.495
414.934
412.371
409.803
407.231
404.658
402.09
399.526
396.964
394.4
391.832
389.26
386.689
384.12
381.554
378.989
376.424
373.857
371.287
368.717
366.147
363.579
361.013
358.447
355.879
353.31
350.74
348.169
345.599
343.03
340.462
337.894
335.325
332.756
330.185
327.615
325.045
322.475
319.906
317.337
314.766
312.195
309.623
307.05
304.478
301.907
299.337
296.768
294.199
291.628
289.056
286.483
283.909
281.336
278.763
276.193
273.623
271.053
268.483
265.911
263.337
260.763
258.188
255.614
253.041
250.471
247.902
245.332
242.762
240.19
237.617
235.042
232.466
229.891
227.319
224.748
222.18
219.612
217.044
214.475
211.904
209.33
206.755
204.179
201.604
199.03
196.459
193.89
191.324
188.759
186.194
183.626
181.057
178.485
175.911
173.336
170.761
168.187
165.616