/*--------------------------------*- C++ -*----------------------------------*\
| =========                 |                                                 |
| \\      /  F ield         | OpenFOAM: The Open Source CFD Toolbox           |
|  \\    /   O peration     | Version:  2406                                  |
|   \\  /    A nd           | Website:  www.openfoam.com                      |
|    \\/     M anipulation  |                                                 |
\*---------------------------------------------------------------------------*/
FoamFile
{
    version     2.0;
    format      ascii;
    arch        "LSB;label=32;scalar=64";
    class       surfaceScalarField;
    location    "0.6";
    object      phi;
}
// * * * * * * * * * * * * * * * * * * * * * * * * * * * * * * * * * * * * * //

dimensions      [0 3 -1 0 0 0 0];

oriented        oriented;

internalField   nonuniform List<scalar> 
12225
(
0.477377
8.92136e-07
0.477372
5.28399e-06
0.477365
6.39921e-06
0.477361
4.3157e-06
0.477358
3.10108e-06
0.477354
3.75811e-06
0.477349
5.39248e-06
0.477343
6.10159e-06
0.477337
5.80561e-06
0.477332
4.82348e-06
0.477328
4.48653e-06
0.477323
5.00177e-06
0.477317
5.58452e-06
0.477311
5.83779e-06
0.477305
5.94194e-06
0.477299
5.94995e-06
0.477293
6.1821e-06
0.477287
6.46174e-06
0.47728
6.51026e-06
0.477273
6.89404e-06
0.477266
7.47881e-06
0.477258
7.61342e-06
0.477251
7.39688e-06
0.477244
7.23392e-06
0.477237
6.65912e-06
0.477231
5.95703e-06
0.477225
5.84879e-06
0.477219
5.90645e-06
0.477213
5.82274e-06
0.477208
5.512e-06
0.477203
5.1861e-06
0.477198
5.10286e-06
0.477192
5.09823e-06
0.477187
5.2431e-06
0.477182
5.65476e-06
0.477176
5.99275e-06
0.477169
6.14872e-06
0.477163
6.26718e-06
0.477157
6.23604e-06
0.477151
5.90867e-06
0.477146
5.52348e-06
0.47714
5.35993e-06
0.477135
5.31422e-06
0.47713
5.14419e-06
0.477125
4.94472e-06
0.47712
4.93597e-06
0.477115
5.03321e-06
0.47711
5.04161e-06
0.477105
4.98129e-06
0.4771
5.01638e-06
0.477095
5.07905e-06
0.47709
4.96466e-06
0.477085
4.79012e-06
0.47708
4.8417e-06
0.477075
5.04947e-06
0.47707
5.07328e-06
0.477065
4.94765e-06
0.47706
5.02422e-06
0.477055
5.27502e-06
0.477049
5.25742e-06
0.477045
4.89617e-06
0.47704
4.68781e-06
0.477035
4.91158e-06
0.47703
5.13445e-06
0.477025
4.87734e-06
0.477021
4.36118e-06
0.477016
4.15383e-06
0.477012
4.33452e-06
0.477008
4.47485e-06
0.477003
4.33612e-06
0.476999
4.14055e-06
0.476995
4.10612e-06
0.476991
4.10724e-06
0.476987
3.9832e-06
0.476983
3.89128e-06
0.476979
4.08243e-06
0.476974
4.46353e-06
0.47697
4.6713e-06
0.476965
4.5359e-06
0.476961
4.29201e-06
0.476957
4.26665e-06
0.476952
4.51019e-06
0.476947
4.80911e-06
0.476942
4.96199e-06
0.476938
4.92943e-06
0.476933
4.81506e-06
0.476928
4.79439e-06
0.476923
4.96826e-06
0.476918
5.22951e-06
0.476912
5.32158e-06
0.476907
5.14195e-06
0.476902
4.91772e-06
0.476897
4.96918e-06
0.476892
5.28853e-06
0.476887
5.55316e-06
0.476881
5.54013e-06
0.476876
5.35543e-06
0.47687
5.26361e-06
0.476865
5.37333e-06
0.476859
5.55753e-06
0.476854
5.62244e-06
0.476848
5.50757e-06
0.476843
5.33081e-06
0.476838
5.26879e-06
0.476832
5.37214e-06
0.476827
5.51328e-06
0.476821
5.51515e-06
0.476816
5.34568e-06
0.476811
5.15504e-06
0.476806
5.1127e-06
0.4768
5.20827e-06
0.476795
5.26569e-06
0.47679
5.1718e-06
0.476785
5.03447e-06
0.47678
5.02716e-06
0.476775
5.12316e-06
0.47677
5.11491e-06
0.476765
4.90958e-06
0.47676
4.67106e-06
0.476756
4.6034e-06
0.476751
4.68905e-06
0.476746
4.72429e-06
0.476742
4.57547e-06
0.476737
4.29943e-06
0.476733
4.04025e-06
0.476729
3.88456e-06
0.476726
3.80943e-06
0.476722
3.71829e-06
0.476718
3.52116e-06
0.476715
3.21406e-06
0.476712
2.89355e-06
0.47671
2.67074e-06
0.476707
2.55931e-06
0.476704
2.46999e-06
0.476702
2.31524e-06
0.4767
2.09099e-06
0.476698
1.85595e-06
0.476697
1.64164e-06
0.476695
1.42732e-06
0.476694
1.22389e-06
0.476693
1.06326e-06
0.476692
9.69279e-07
0.476691
9.74683e-07
0.47669
1.03366e-06
0.476689
1.03191e-06
0.476688
8.67795e-07
0.476687
5.28639e-07
0.476687
1.96904e-07
0.476687
9.52934e-08
0.476687
3.18095e-07
0.476686
6.79499e-07
0.476685
8.87532e-07
0.476684
7.865e-07
0.476684
5.23984e-07
0.476684
2.52122e-07
0.476684
8.35536e-08
0.476684
1.28154e-07
0.476683
2.97726e-07
0.476683
3.93233e-07
0.476682
3.60641e-07
0.476682
3.34295e-07
0.476682
4.28818e-07
0.476681
5.68199e-07
0.476681
5.69096e-07
0.47668
3.80837e-07
0.47668
1.41688e-07
0.47668
1.24413e-08
0.47668
3.28682e-08
0.47668
1.17438e-07
0.47668
1.94449e-07
0.476679
2.52721e-07
0.476679
2.63564e-07
0.476679
2.64022e-07
0.476679
2.42246e-07
0.476678
1.90183e-07
0.476678
1.52605e-07
0.476678
8.50546e-08
0.476678
-4.77789e-09
0.476678
-3.26424e-08
0.476678
1.04758e-07
0.476678
3.22713e-07
0.476677
4.38544e-07
0.476677
3.19525e-07
0.476677
7.97647e-08
0.476677
-2.4656e-08
0.476677
5.70057e-08
0.476677
2.37332e-07
0.476676
3.02418e-07
0.476676
1.85294e-07
0.476676
-5.45024e-08
0.476676
-1.74243e-07
0.476677
-1.02059e-07
0.476676
8.23018e-08
0.476676
1.95219e-07
0.476676
1.44505e-07
0.476676
3.8603e-09
0.476676
-4.98016e-08
0.476676
5.76901e-09
0.476676
1.04048e-07
0.476676
1.35214e-07
0.476676
1.08285e-07
0.476676
4.88859e-08
0.476676
1.16332e-08
0.476676
-9.04417e-09
0.476676
-1.49737e-08
0.476676
3.09064e-08
0.476676
4.45686e-08
0.476676
1.06897e-08
0.476676
-6.25221e-08
0.476676
-1.03561e-07
0.476676
-9.54538e-08
0.476676
-6.67049e-08
0.476676
-3.4198e-08
0.476676
-1.66155e-08
0.476676
-3.42818e-09
0.476676
1.33874e-08
0.476676
3.58506e-08
0.476676
3.8406e-08
0.476676
2.36912e-08
0.476676
-3.93167e-08
0.476676
-9.99082e-08
0.476676
-1.30205e-07
0.476676
-1.2679e-07
0.476677
-1.33236e-07
0.476677
-2.31941e-07
0.476677
-3.79197e-07
0.476678
-4.16868e-07
0.476678
-3.44276e-07
0.476678
-1.94675e-07
0.476678
-4.58873e-08
0.476678
-3.80596e-08
0.476678
-8.67172e-08
0.476678
-1.38998e-07
0.476679
-1.57401e-07
0.476679
-1.38016e-07
0.476679
-8.37202e-08
0.476679
-6.29865e-08
0.476679
-1.10322e-07
0.476679
-2.20569e-07
0.476679
-3.33425e-07
0.47668
-3.94312e-07
0.47668
-3.82749e-07
0.476681
-3.43685e-07
0.476681
-3.53264e-07
0.476681
-4.40677e-07
0.476682
-5.40043e-07
0.476683
-5.66029e-07
0.476683
-4.79362e-07
0.476683
-4.3264e-07
-2.97859e-07
0.477381
2.76347e-07
0.477385
1.23009e-06
0.47739
2.06356e-06
0.477392
2.2832e-06
0.477392
2.44523e-06
0.477395
1.59619e-06
0.477398
1.42917e-06
0.477402
2.28459e-06
0.477405
3.09434e-06
0.477406
3.45607e-06
0.477408
2.93402e-06
0.47741
2.51546e-06
0.477413
2.48863e-06
0.477417
2.55759e-06
0.47742
2.6259e-06
0.477423
2.72583e-06
0.477427
2.9347e-06
0.47743
3.40557e-06
0.477433
3.2382e-06
0.477437
2.61841e-06
0.477442
2.2975e-06
0.477448
2.34569e-06
0.477453
2.10133e-06
0.477458
1.93467e-06
0.477463
2.20906e-06
0.477467
2.03038e-06
0.477471
1.75446e-06
0.477475
1.7039e-06
0.477479
1.77991e-06
0.477482
2.00941e-06
0.477485
2.37117e-06
0.477488
2.7732e-06
0.47749
2.93001e-06
0.477492
2.71474e-06
0.477495
2.53051e-06
0.477499
2.52457e-06
0.477503
2.34938e-06
0.477507
1.98028e-06
0.477511
1.78634e-06
0.477515
1.81832e-06
0.477519
1.7804e-06
0.477523
1.65836e-06
0.477527
1.7022e-06
0.47753
1.97695e-06
0.477532
2.32231e-06
0.477535
2.65251e-06
0.477537
2.94471e-06
0.477539
3.05911e-06
0.477541
2.90785e-06
0.477543
2.66172e-06
0.477546
2.63131e-06
0.477548
2.78962e-06
0.47755
2.88188e-06
0.477552
2.89191e-06
0.477554
2.95345e-06
0.477556
2.91781e-06
0.477558
2.58692e-06
0.477561
2.25411e-06
0.477564
2.40798e-06
0.477566
2.91348e-06
0.477568
3.08728e-06
0.47757
2.69843e-06
0.477573
2.30145e-06
0.477575
2.37853e-06
0.477578
2.66546e-06
0.477579
2.65354e-06
0.477581
2.35781e-06
0.477583
2.1839e-06
0.477585
2.28603e-06
0.477587
2.44957e-06
0.477589
2.5112e-06
0.477591
2.53069e-06
0.477592
2.53001e-06
0.477594
2.39425e-06
0.477595
2.13939e-06
0.477597
2.02718e-06
0.4776
2.22477e-06
0.477602
2.52333e-06
0.477604
2.59461e-06
0.477606
2.4231e-06
0.477608
2.30186e-06
0.47761
2.40524e-06
0.477612
2.57999e-06
0.477614
2.60688e-06
0.477617
2.50147e-06
0.477619
2.43453e-06
0.477621
2.47019e-06
0.477624
2.55529e-06
0.477626
2.64664e-06
0.477629
2.70232e-06
0.477632
2.64341e-06
0.477634
2.4518e-06
0.477637
2.29343e-06
0.47764
2.3559e-06
0.477643
2.57321e-06
0.477645
2.6801e-06
0.477648
2.54051e-06
0.477651
2.30283e-06
0.477654
2.20367e-06
0.477658
2.29892e-06
0.477661
2.43055e-06
0.477664
2.41685e-06
0.477667
2.24777e-06
0.47767
2.08845e-06
0.477674
2.10657e-06
0.477677
2.30079e-06
0.47768
2.50845e-06
0.477683
2.56628e-06
0.477685
2.4694e-06
0.477688
2.38542e-06
0.477691
2.50015e-06
0.477693
2.79669e-06
0.477695
3.00976e-06
0.477697
2.89358e-06
0.4777
2.54087e-06
0.477703
2.31364e-06
0.477705
2.41856e-06
0.477708
2.67159e-06
0.47771
2.75801e-06
0.477712
2.59882e-06
0.477714
2.36771e-06
0.477716
2.23691e-06
0.477719
2.23135e-06
0.477721
2.29349e-06
0.477722
2.36775e-06
0.477724
2.41256e-06
0.477725
2.40473e-06
0.477727
2.35449e-06
0.477728
2.28632e-06
0.477729
2.21063e-06
0.47773
2.14592e-06
0.47773
2.14772e-06
0.47773
2.25305e-06
0.477731
2.39443e-06
0.47773
2.43438e-06
0.47773
2.31502e-06
0.47773
2.13781e-06
0.477729
2.05517e-06
0.477729
2.1026e-06
0.477728
2.19839e-06
0.477727
2.26108e-06
0.477725
2.26197e-06
0.477724
2.20776e-06
0.477723
2.12342e-06
0.477722
2.07635e-06
0.477721
2.13127e-06
0.477719
2.23538e-06
0.477717
2.26189e-06
0.477715
2.17052e-06
0.477713
2.08214e-06
0.477712
2.13536e-06
0.47771
2.32228e-06
0.477708
2.50212e-06
0.477706
2.54444e-06
0.477704
2.40235e-06
0.477702
2.16211e-06
0.4777
2.02103e-06
0.477699
2.11384e-06
0.477697
2.36242e-06
0.477694
2.5386e-06
0.477692
2.51174e-06
0.47769
2.38329e-06
0.477688
2.33126e-06
0.477687
2.37344e-06
0.477685
2.3729e-06
0.477683
2.25613e-06
0.47768
2.12994e-06
0.477678
2.13164e-06
0.477676
2.24171e-06
0.477674
2.34824e-06
0.477672
2.39404e-06
0.47767
2.40418e-06
0.477668
2.40348e-06
0.477666
2.36745e-06
0.477663
2.31182e-06
0.477661
2.31098e-06
0.477659
2.357e-06
0.477657
2.36117e-06
0.477654
2.27384e-06
0.477652
2.18551e-06
0.47765
2.2274e-06
0.477648
2.39253e-06
0.477646
2.51524e-06
0.477644
2.44277e-06
0.477642
2.20289e-06
0.47764
1.97129e-06
0.477638
1.94623e-06
0.477636
2.13176e-06
0.477634
2.33922e-06
0.477632
2.36172e-06
0.477629
2.18846e-06
0.477627
1.99159e-06
0.477625
1.95855e-06
0.477623
2.08195e-06
0.477621
2.19481e-06
0.477619
2.17684e-06
0.477617
2.08928e-06
0.477615
2.06782e-06
0.477613
2.16258e-06
0.477611
2.30299e-06
0.477608
2.40956e-06
0.477606
2.44217e-06
0.477604
2.40901e-06
0.477601
2.32976e-06
0.477599
2.23952e-06
0.477597
2.19525e-06
0.477595
2.21096e-06
0.477592
2.25891e-06
0.47759
2.29673e-06
0.477588
2.33177e-06
0.477585
2.3871e-06
0.477583
2.46102e-06
0.47758
2.53492e-06
0.477577
2.58672e-06
0.477575
2.60322e-06
0.477572
2.57852e-06
0.47757
2.53245e-06
0.477567
2.50021e-06
0.477565
2.48243e-06
0.477562
2.42532e-06
0.47756
2.30783e-06
0.477558
2.18298e-06
0.477555
2.15468e-06
0.477553
2.23764e-06
0.47755
2.31551e-06
0.477548
2.27003e-06
0.477545
2.12397e-06
0.477543
1.99912e-06
0.477541
2.00465e-06
0.477539
2.14098e-06
0.477536
2.28649e-06
0.477534
2.35502e-06
0.477531
2.32869e-06
0.477529
2.24542e-06
0.477527
2.15825e-06
0.477524
2.12357e-06
0.477522
2.14174e-06
0.47752
2.16399e-06
0.477518
2.13145e-06
0.477515
2.0197e-06
0.477513
1.8617e-06
0.477511
1.73571e-06
0.477509
1.70298e-06
0.477507
1.74326e-06
0.477504
1.76631e-06
0.477502
1.70256e-06
0.4775
1.59045e-06
0.477498
1.48194e-06
0.477496
1.56118e-06
1.34286e-06
0.47738
2.35657e-07
0.47738
1.23607e-06
0.477379
2.75317e-06
0.477379
2.66278e-06
0.47738
1.75382e-06
0.477379
1.89404e-06
0.477379
1.51592e-06
0.47738
9.32193e-07
0.477383
8.012e-07
0.477385
1.03456e-06
0.477387
1.6277e-06
0.477387
2.21281e-06
0.477387
2.68571e-06
0.477387
2.56489e-06
0.477387
2.12692e-06
0.477388
1.67185e-06
0.47739
1.15004e-06
0.477392
1.44763e-06
0.477393
2.16699e-06
0.477393
2.44694e-06
0.477393
2.356e-06
0.477393
2.13336e-06
0.477393
2.00459e-06
0.477393
1.8642e-06
0.477394
1.94445e-06
0.477394
2.08789e-06
0.477393
2.1114e-06
0.477393
2.31743e-06
0.477392
2.55271e-06
0.477391
2.57161e-06
0.477391
2.51594e-06
0.477391
2.66665e-06
0.477391
2.8927e-06
0.477391
2.89504e-06
0.477391
2.82951e-06
0.47739
2.93767e-06
0.47739
3.00245e-06
0.477389
2.85212e-06
0.477388
2.72753e-06
0.477387
2.75887e-06
0.477386
2.6933e-06
0.477385
2.4072e-06
0.477385
2.15001e-06
0.477385
2.0709e-06
0.477385
1.98191e-06
0.477386
1.77662e-06
0.477387
1.64513e-06
0.477389
1.7254e-06
0.47739
1.83373e-06
0.477391
1.78925e-06
0.477392
1.7477e-06
0.477392
1.87734e-06
0.477393
2.00337e-06
0.477394
1.96423e-06
0.477395
1.96775e-06
0.477396
2.16816e-06
0.477396
2.26246e-06
0.477397
1.98879e-06
0.477397
1.69003e-06
0.477398
1.8446e-06
0.477399
2.26055e-06
0.4774
2.34255e-06
0.4774
2.04285e-06
0.4774
1.94609e-06
0.477401
2.35878e-06
0.4774
2.85406e-06
0.4774
2.91642e-06
0.477399
2.62732e-06
0.477399
2.42835e-06
0.477399
2.47585e-06
0.477399
2.55619e-06
0.477399
2.51037e-06
0.477399
2.41975e-06
0.477399
2.37142e-06
0.477399
2.30107e-06
0.477399
2.15752e-06
0.477399
2.03962e-06
0.4774
2.04529e-06
0.4774
2.10981e-06
0.4774
2.1085e-06
0.477401
2.04583e-06
0.477401
2.00923e-06
0.477402
1.99589e-06
0.477402
1.92511e-06
0.477403
1.81178e-06
0.477404
1.77116e-06
0.477404
1.82082e-06
0.477405
1.83439e-06
0.477406
1.75208e-06
0.477407
1.70293e-06
0.477408
1.79846e-06
0.477408
1.93889e-06
0.477409
1.97086e-06
0.477409
1.92061e-06
0.47741
1.94478e-06
0.47741
2.09371e-06
0.477411
2.24814e-06
0.477411
2.2837e-06
0.477411
2.21065e-06
0.477411
2.14545e-06
0.477411
2.18406e-06
0.477411
2.30906e-06
0.477411
2.40948e-06
0.477411
2.3922e-06
0.477411
2.27338e-06
0.477411
2.15464e-06
0.477411
2.1227e-06
0.477411
2.17503e-06
0.477412
2.23119e-06
0.477412
2.21957e-06
0.477412
2.16723e-06
0.477413
2.17721e-06
0.477414
2.2618e-06
0.477414
2.27068e-06
0.477415
2.07678e-06
0.477415
1.80152e-06
0.477416
1.71781e-06
0.477417
1.91666e-06
0.477417
2.19368e-06
0.477417
2.30198e-06
0.477418
2.21481e-06
0.477418
2.09095e-06
0.477418
2.07447e-06
0.477418
2.19454e-06
0.477418
2.39397e-06
0.477418
2.57897e-06
0.477418
2.66676e-06
0.477417
2.64376e-06
0.477417
2.57522e-06
0.477417
2.53078e-06
0.477416
2.51982e-06
0.477416
2.52555e-06
0.477416
2.56542e-06
0.477415
2.66197e-06
0.477415
2.7643e-06
0.477415
2.7629e-06
0.477414
2.61787e-06
0.477414
2.42997e-06
0.477413
2.33953e-06
0.477413
2.38816e-06
0.477413
2.50573e-06
0.477413
2.59399e-06
0.477412
2.58425e-06
0.477412
2.44904e-06
0.477412
2.24295e-06
0.477412
2.10816e-06
0.477412
2.15319e-06
0.477412
2.33083e-06
0.477412
2.47835e-06
0.477411
2.49333e-06
0.477411
2.41787e-06
0.477411
2.34517e-06
0.477411
2.31648e-06
0.477411
2.31311e-06
0.477411
2.28049e-06
0.477411
2.16882e-06
0.477411
2.00529e-06
0.477412
1.91538e-06
0.477412
2.00553e-06
0.477412
2.20913e-06
0.477412
2.32416e-06
0.477413
2.23819e-06
0.477413
2.05305e-06
0.477413
1.94346e-06
0.477414
1.94723e-06
0.477414
1.96419e-06
0.477414
1.93964e-06
0.477414
1.94343e-06
0.477415
2.04155e-06
0.477415
2.1842e-06
0.477415
2.26767e-06
0.477415
2.25985e-06
0.477415
2.20237e-06
0.477415
2.12306e-06
0.477416
2.03213e-06
0.477416
1.98531e-06
0.477416
2.04851e-06
0.477417
2.19303e-06
0.477417
2.2902e-06
0.477416
2.25616e-06
0.477417
2.15866e-06
0.477417
2.13654e-06
0.477417
2.23706e-06
0.477417
2.36394e-06
0.477417
2.3849e-06
0.477417
2.26541e-06
0.477417
2.11792e-06
0.477417
2.09197e-06
0.477417
2.2213e-06
0.477417
2.37895e-06
0.477416
2.39724e-06
0.477416
2.2408e-06
0.477416
2.04271e-06
0.477416
1.95602e-06
0.477416
1.99497e-06
0.477417
2.04878e-06
0.477417
2.03132e-06
0.477417
1.96629e-06
0.477417
1.91936e-06
0.477417
1.90563e-06
0.477418
1.89083e-06
0.477418
1.84624e-06
0.477419
1.76697e-06
0.47742
1.64564e-06
0.477421
1.4806e-06
0.477421
1.31434e-06
0.477422
1.21104e-06
0.477424
1.19235e-06
0.477425
1.21862e-06
0.477426
1.24947e-06
0.477427
1.28532e-06
0.477428
1.34054e-06
0.477429
1.41242e-06
0.47743
1.48845e-06
0.477431
1.55669e-06
0.477432
1.59922e-06
0.477433
1.60331e-06
0.477434
1.59227e-06
0.477435
1.61478e-06
0.477436
1.67724e-06
0.477436
1.71652e-06
0.477437
1.66803e-06
0.477437
1.56173e-06
0.477438
1.50403e-06
0.477439
1.5538e-06
0.477439
1.64912e-06
0.47744
1.68207e-06
0.47744
1.60926e-06
0.477441
1.48315e-06
0.477442
1.38621e-06
0.477442
1.35279e-06
0.477443
1.37211e-06
0.477444
1.41116e-06
0.477445
1.42535e-06
0.477446
1.37897e-06
0.477447
1.28487e-06
0.477448
1.19568e-06
0.477449
1.15652e-06
0.47745
1.16802e-06
0.477451
1.18288e-06
0.477451
1.13894e-06
0.477452
1.01593e-06
0.477453
8.66821e-07
0.477454
7.74379e-07
0.477455
7.61907e-07
0.477456
7.69817e-07
0.477457
7.21655e-07
0.477457
6.26216e-07
0.477459
4.46492e-07
4.3743e-07
0.477381
-2.10175e-07
0.477383
-4.3683e-07
0.477386
1.57073e-07
0.477386
1.85127e-06
0.477386
2.39623e-06
0.477386
1.70933e-06
0.477386
1.71213e-06
0.477384
2.42028e-06
0.477382
3.10294e-06
0.47738
2.87098e-06
0.47738
2.09561e-06
0.477381
1.44424e-06
0.477382
1.54132e-06
0.477382
2.32475e-06
0.477381
2.94624e-06
0.47738
3.04703e-06
0.477378
2.35674e-06
0.477378
1.80141e-06
0.477379
1.80252e-06
0.477379
1.53068e-06
0.47738
1.5481e-06
0.47738
2.06942e-06
0.47738
2.37927e-06
0.47738
2.17499e-06
0.477379
2.14084e-06
0.477379
2.52215e-06
0.477378
2.63404e-06
0.477378
2.3988e-06
0.477379
2.06174e-06
0.47738
1.84262e-06
0.477381
1.57049e-06
0.477382
1.19651e-06
0.477384
1.0391e-06
0.477386
1.06716e-06
0.477387
1.03215e-06
0.477389
1.08594e-06
0.477391
1.39677e-06
0.477392
1.72879e-06
0.477393
1.91741e-06
0.477394
2.0887e-06
0.477394
2.29627e-06
0.477394
2.40621e-06
0.477394
2.39449e-06
0.477393
2.38201e-06
0.477393
2.36113e-06
0.477393
2.20095e-06
0.477392
1.93742e-06
0.477392
1.81916e-06
0.477392
1.91636e-06
0.477392
1.99911e-06
0.477392
1.92607e-06
0.477392
1.8343e-06
0.477392
1.7976e-06
0.477392
1.68403e-06
0.477393
1.54187e-06
0.477393
1.66904e-06
0.477393
2.09371e-06
0.477393
2.40634e-06
0.477392
2.34542e-06
0.477392
2.19545e-06
0.477392
2.28979e-06
0.477392
2.476e-06
0.477391
2.42993e-06
0.477391
2.22973e-06
0.477391
2.20814e-06
0.477392
2.38182e-06
0.477392
2.43143e-06
0.477393
2.22574e-06
0.477393
2.00831e-06
0.477394
1.97976e-06
0.477394
1.9997e-06
0.477395
1.86741e-06
0.477395
1.67917e-06
0.477396
1.68122e-06
0.477397
1.86657e-06
0.477397
1.96544e-06
0.477397
1.83696e-06
0.477397
1.66069e-06
0.477398
1.67181e-06
0.477398
1.84917e-06
0.477398
1.98856e-06
0.477398
1.97501e-06
0.477398
1.87361e-06
0.477398
1.79215e-06
0.477398
1.78429e-06
0.477398
1.86394e-06
0.477398
1.99407e-06
0.477398
2.05321e-06
0.477398
1.94704e-06
0.477398
1.79014e-06
0.477398
1.80579e-06
0.477398
2.02216e-06
0.477397
2.20821e-06
0.477397
2.1611e-06
0.477397
1.95751e-06
0.477397
1.83121e-06
0.477398
1.88602e-06
0.477398
2.00681e-06
0.477398
2.01062e-06
0.477398
1.84337e-06
0.477399
1.63601e-06
0.4774
1.57761e-06
0.4774
1.7249e-06
0.477401
1.93853e-06
0.477401
2.01628e-06
0.477401
1.88635e-06
0.477402
1.67855e-06
0.477402
1.60797e-06
0.477403
1.77024e-06
0.477403
2.03575e-06
0.477403
2.17221e-06
0.477403
2.10005e-06
0.477403
1.95926e-06
0.477404
1.90324e-06
0.477404
1.91194e-06
0.477404
1.88513e-06
0.477404
1.83654e-06
0.477404
1.865e-06
0.477404
1.97202e-06
0.477404
2.03612e-06
0.477405
1.97586e-06
0.477405
1.84596e-06
0.477405
1.75303e-06
0.477406
1.7455e-06
0.477406
1.80154e-06
0.477407
1.86523e-06
0.477408
1.87252e-06
0.477409
1.79147e-06
0.477409
1.66609e-06
0.47741
1.58787e-06
0.477411
1.60071e-06
0.477412
1.65908e-06
0.477413
1.69815e-06
0.477414
1.71804e-06
0.477415
1.76285e-06
0.477416
1.8317e-06
0.477417
1.86658e-06
0.477417
1.83422e-06
0.477418
1.77347e-06
0.477418
1.74517e-06
0.477419
1.7682e-06
0.47742
1.82881e-06
0.477421
1.90241e-06
0.477421
1.93533e-06
0.477422
1.87133e-06
0.477422
1.7371e-06
0.477422
1.66132e-06
0.477423
1.75344e-06
0.477423
1.97476e-06
0.477424
2.17952e-06
0.477424
2.25763e-06
0.477424
2.19669e-06
0.477424
2.05556e-06
0.477425
1.9281e-06
0.477425
1.88972e-06
0.477425
1.9287e-06
0.477425
1.95148e-06
0.477425
1.90108e-06
0.477426
1.84602e-06
0.477426
1.88542e-06
0.477426
1.98664e-06
0.477427
2.0005e-06
0.477427
1.85344e-06
0.477427
1.6542e-06
0.477427
1.56391e-06
0.477428
1.61158e-06
0.477428
1.69991e-06
0.477428
1.75675e-06
0.477428
1.80248e-06
0.477429
1.86714e-06
0.477429
1.92061e-06
0.477429
1.92431e-06
0.47743
1.89034e-06
0.47743
1.84335e-06
0.47743
1.77369e-06
0.477431
1.6811e-06
0.477431
1.63316e-06
0.477431
1.70657e-06
0.477432
1.86615e-06
0.477432
1.96945e-06
0.477432
1.91434e-06
0.477433
1.74727e-06
0.477433
1.61723e-06
0.477434
1.6336e-06
0.477435
1.76844e-06
0.477435
1.88992e-06
0.477435
1.89591e-06
0.477436
1.81201e-06
0.477436
1.76499e-06
0.477437
1.84185e-06
0.477437
1.97935e-06
0.477437
2.03055e-06
0.477437
1.93404e-06
0.477438
1.78597e-06
0.477438
1.73096e-06
0.477438
1.80901e-06
0.477438
1.94121e-06
0.477438
2.04072e-06
0.477438
2.08621e-06
0.477438
2.09194e-06
0.477438
2.06114e-06
0.477437
1.99788e-06
0.477437
1.92991e-06
0.477437
1.87908e-06
0.477437
1.82879e-06
0.477436
1.75739e-06
0.477436
1.6881e-06
0.477435
1.66942e-06
0.477435
1.71273e-06
0.477434
1.78291e-06
0.477434
1.84459e-06
0.477433
1.88687e-06
0.477433
1.90882e-06
0.477432
1.91333e-06
0.477432
1.91414e-06
0.477432
1.91972e-06
0.477431
1.90967e-06
0.477431
1.85905e-06
0.477431
1.78968e-06
0.477431
1.76188e-06
0.477431
1.7977e-06
0.47743
1.84127e-06
0.47743
1.81926e-06
0.47743
1.73686e-06
0.47743
1.6714e-06
0.47743
1.68415e-06
0.47743
1.7549e-06
0.47743
1.81927e-06
0.477429
1.84029e-06
0.477429
1.8289e-06
0.477428
1.80472e-06
0.477428
1.78138e-06
0.477427
1.77866e-06
0.477427
1.80808e-06
0.477427
1.84925e-06
0.477426
1.86774e-06
0.477425
1.84881e-06
0.477425
1.80784e-06
0.477424
1.77949e-06
0.477424
1.79231e-06
0.477423
1.83852e-06
0.477422
1.87161e-06
0.477421
1.85326e-06
0.47742
1.80507e-06
0.477419
1.79104e-06
0.477418
1.83741e-06
0.477417
1.9236e-06
0.477415
1.97449e-06
0.477414
2.12287e-06
1.89335e-06
0.477381
2.30942e-07
0.47738
5.66468e-07
0.47738
2.15577e-07
0.477382
2.37486e-07
0.477383
1.25692e-06
0.477383
1.86173e-06
0.477383
1.46158e-06
0.477384
8.27351e-07
0.477387
7.99751e-07
0.477388
1.33647e-06
0.477389
1.78933e-06
0.477388
1.59498e-06
0.477389
1.04301e-06
0.477391
5.75984e-07
0.477393
6.27859e-07
0.477394
1.52741e-06
0.477395
2.13345e-06
0.477395
1.83222e-06
0.477395
1.77387e-06
0.477394
2.00581e-06
0.477394
1.7652e-06
0.477395
1.55298e-06
0.477395
1.85352e-06
0.477395
2.10041e-06
0.477395
2.05729e-06
0.477396
2.00658e-06
0.477396
2.02121e-06
0.477397
2.21364e-06
0.477396
2.54799e-06
0.477395
2.80919e-06
0.477394
2.79839e-06
0.477392
2.58662e-06
0.477391
2.48839e-06
0.47739
2.47767e-06
0.477388
2.27126e-06
0.477387
1.95311e-06
0.477387
1.84257e-06
0.477387
1.89426e-06
0.477387
1.87326e-06
0.477387
1.81704e-06
0.477388
1.8741e-06
0.477388
1.97959e-06
0.477388
2.0131e-06
0.477389
2.04724e-06
0.477389
2.16159e-06
0.477389
2.21819e-06
0.477389
2.08486e-06
0.477389
1.9288e-06
0.477389
1.97704e-06
0.477389
2.10889e-06
0.477388
2.07359e-06
0.477388
1.97459e-06
0.477388
2.06387e-06
0.477387
2.1931e-06
0.477387
2.00294e-06
0.477387
1.5972e-06
0.477388
1.46495e-06
0.477388
1.70017e-06
0.477389
1.82912e-06
0.47739
1.56333e-06
0.477391
1.23305e-06
0.477392
1.24397e-06
0.477393
1.48066e-06
0.477393
1.55656e-06
0.477394
1.39685e-06
0.477395
1.25755e-06
0.477397
1.30168e-06
0.477397
1.4472e-06
0.477398
1.59143e-06
0.477398
1.74111e-06
0.477398
1.88502e-06
0.477398
1.93936e-06
0.477398
1.89688e-06
0.477398
1.89357e-06
0.477397
2.01666e-06
0.477397
2.1427e-06
0.477397
2.09575e-06
0.477397
1.90774e-06
0.477397
1.78215e-06
0.477397
1.81108e-06
0.477397
1.86771e-06
0.477397
1.81266e-06
0.477397
1.68912e-06
0.477397
1.62621e-06
0.477397
1.64669e-06
0.477398
1.67683e-06
0.477398
1.68832e-06
0.477398
1.69796e-06
0.477399
1.67139e-06
0.477399
1.57602e-06
0.477399
1.48809e-06
0.4774
1.52348e-06
0.4774
1.66108e-06
0.477401
1.7488e-06
0.477401
1.70379e-06
0.477401
1.60651e-06
0.477401
1.5826e-06
0.477402
1.65999e-06
0.477402
1.75953e-06
0.477402
1.79024e-06
0.477402
1.7395e-06
0.477402
1.68237e-06
0.477402
1.70129e-06
0.477402
1.79427e-06
0.477402
1.8722e-06
0.477402
1.84803e-06
0.477402
1.72881e-06
0.477402
1.62906e-06
0.477402
1.6817e-06
0.477402
1.88686e-06
0.477402
2.05743e-06
0.477403
1.99123e-06
0.477403
1.70942e-06
0.477403
1.45427e-06
0.477404
1.41237e-06
0.477404
1.52641e-06
0.477404
1.61934e-06
0.477405
1.60691e-06
0.477405
1.52267e-06
0.477406
1.40899e-06
0.477406
1.28343e-06
0.477407
1.18324e-06
0.477408
1.15606e-06
0.477408
1.20201e-06
0.477409
1.26894e-06
0.477409
1.30308e-06
0.47741
1.276e-06
0.47741
1.18094e-06
0.477411
1.04903e-06
0.477412
9.61314e-07
0.477412
9.94558e-07
0.477413
1.13538e-06
0.477413
1.27578e-06
0.477414
1.32135e-06
0.477414
1.28734e-06
0.477415
1.26243e-06
0.477415
1.30237e-06
0.477416
1.39243e-06
0.477416
1.49687e-06
0.477416
1.59445e-06
0.477416
1.66137e-06
0.477416
1.68218e-06
0.477417
1.68645e-06
0.477417
1.72196e-06
0.477417
1.78578e-06
0.477417
1.82323e-06
0.477417
1.81845e-06
0.477417
1.83352e-06
0.477417
1.921e-06
0.477417
2.04893e-06
0.477417
2.13625e-06
0.477417
2.12061e-06
0.477417
1.98628e-06
0.477417
1.77626e-06
0.477417
1.5967e-06
0.477418
1.55726e-06
0.477418
1.65763e-06
0.477418
1.77331e-06
0.477418
1.79774e-06
0.477418
1.75746e-06
0.477419
1.74197e-06
0.477419
1.75619e-06
0.477419
1.71624e-06
0.477419
1.59188e-06
0.477419
1.47681e-06
0.477419
1.48034e-06
0.477419
1.59899e-06
0.477419
1.7396e-06
0.477419
1.83827e-06
0.477419
1.89582e-06
0.477419
1.91439e-06
0.477419
1.87587e-06
0.47742
1.79464e-06
0.47742
1.72903e-06
0.47742
1.70733e-06
0.47742
1.6852e-06
0.47742
1.62158e-06
0.47742
1.55673e-06
0.47742
1.56168e-06
0.47742
1.63208e-06
0.477421
1.67639e-06
0.477421
1.60935e-06
0.477421
1.44165e-06
0.477421
1.27693e-06
0.477422
1.22265e-06
0.477423
1.29891e-06
0.477423
1.41866e-06
0.477423
1.46354e-06
0.477424
1.4016e-06
0.477424
1.31451e-06
0.477425
1.29576e-06
0.477426
1.34265e-06
0.477426
1.37127e-06
0.477427
1.33263e-06
0.477427
1.27639e-06
0.477428
1.28558e-06
0.477428
1.38056e-06
0.477429
1.51316e-06
0.477429
1.63324e-06
0.47743
1.72044e-06
0.47743
1.75963e-06
0.47743
1.73428e-06
0.47743
1.65961e-06
0.477431
1.58482e-06
0.477431
1.54121e-06
0.477431
1.51385e-06
0.477431
1.481e-06
0.477432
1.45356e-06
0.477432
1.45404e-06
0.477432
1.47891e-06
0.477433
1.50571e-06
0.477433
1.52014e-06
0.477433
1.51397e-06
0.477434
1.47582e-06
0.477434
1.40899e-06
0.477435
1.34419e-06
0.477435
1.30405e-06
0.477436
1.2667e-06
0.477437
1.19666e-06
0.477437
1.10491e-06
0.477438
1.04935e-06
0.477439
1.06305e-06
0.477439
1.10412e-06
0.47744
1.10484e-06
0.477441
1.04881e-06
0.477441
9.82442e-07
0.477442
9.5235e-07
0.477443
9.57794e-07
0.477444
9.69671e-07
0.477445
9.70421e-07
0.477446
9.51175e-07
0.477447
9.00706e-07
0.477448
8.23429e-07
0.477449
7.48032e-07
0.47745
6.97578e-07
0.477451
6.65306e-07
0.477452
6.24513e-07
0.477453
5.52316e-07
0.477455
4.4671e-07
0.477456
3.35085e-07
0.477458
2.58677e-07
0.477459
2.33564e-07
0.477461
2.3028e-07
0.477463
2.12242e-07
0.477464
1.88002e-07
0.477466
1.97112e-07
0.477468
2.5953e-07
0.477469
3.57953e-07
0.477471
4.29892e-07
6.68762e-07
0.47738
7.43621e-07
0.47738
1.09479e-06
0.477379
2.87287e-07
0.47738
-3.78535e-08
0.477381
1.94042e-07
0.477382
9.31323e-07
0.477381
1.7746e-06
0.477381
1.58257e-06
0.47738
1.21659e-06
0.47738
1.3957e-06
0.47738
1.80488e-06
0.47738
1.90324e-06
0.477379
2.0153e-06
0.477377
2.05104e-06
0.477376
1.58454e-06
0.477377
1.19833e-06
0.477378
1.35878e-06
0.477378
1.56087e-06
0.477378
1.56415e-06
0.477379
1.56017e-06
0.477379
1.3754e-06
0.477379
1.15232e-06
0.47738
1.10687e-06
0.477381
1.10441e-06
0.477382
1.20726e-06
0.477383
1.31692e-06
0.477383
1.39607e-06
0.477384
1.37768e-06
0.477385
1.33348e-06
0.477387
1.5005e-06
0.477388
1.75716e-06
0.477388
1.86238e-06
0.477389
1.9008e-06
0.477389
2.04423e-06
0.47739
2.09169e-06
0.47739
1.8573e-06
0.47739
1.56113e-06
0.47739
1.438e-06
0.477391
1.37714e-06
0.477391
1.22224e-06
0.477392
1.05592e-06
0.477393
1.00319e-06
0.477394
1.02291e-06
0.477395
1.03551e-06
0.477396
1.10152e-06
0.477397
1.28411e-06
0.477398
1.47332e-06
0.477398
1.53488e-06
0.477399
1.49306e-06
0.477399
1.41095e-06
0.4774
1.28554e-06
0.477401
1.21217e-06
0.477402
1.39742e-06
0.477402
1.80364e-06
0.477402
2.04942e-06
0.477402
1.93537e-06
0.477401
1.77485e-06
0.477401
1.90113e-06
0.477401
2.11703e-06
0.4774
2.0211e-06
0.4774
1.68826e-06
0.4774
1.58284e-06
0.477399
1.84037e-06
0.477399
2.0703e-06
0.477398
1.9483e-06
0.477398
1.65217e-06
0.477398
1.53492e-06
0.477397
1.62443e-06
0.477397
1.67232e-06
0.477397
1.56276e-06
0.477398
1.43332e-06
0.477398
1.40626e-06
0.477399
1.40833e-06
0.4774
1.32667e-06
0.4774
1.20092e-06
0.477401
1.14691e-06
0.477402
1.17446e-06
0.477403
1.19752e-06
0.477404
1.17645e-06
0.477404
1.15289e-06
0.477405
1.1512e-06
0.477406
1.14475e-06
0.477406
1.13634e-06
0.477407
1.17608e-06
0.477407
1.25709e-06
0.477407
1.28633e-06
0.477408
1.24009e-06
0.477408
1.22769e-06
0.477409
1.32193e-06
0.477409
1.42733e-06
0.477409
1.40566e-06
0.477409
1.2794e-06
0.47741
1.19455e-06
0.47741
1.22506e-06
0.477411
1.30835e-06
0.477411
1.34615e-06
0.477411
1.30609e-06
0.477411
1.23427e-06
0.477412
1.20878e-06
0.477413
1.27669e-06
0.477413
1.41297e-06
0.477413
1.54041e-06
0.477413
1.59277e-06
0.477413
1.5613e-06
0.477414
1.49242e-06
0.477414
1.44628e-06
0.477414
1.44645e-06
0.477415
1.47028e-06
0.477415
1.50589e-06
0.477415
1.57664e-06
0.477415
1.66867e-06
0.477416
1.684e-06
0.477416
1.55052e-06
0.477416
1.36674e-06
0.477416
1.32834e-06
0.477416
1.49922e-06
0.477416
1.73449e-06
0.477416
1.85156e-06
0.477415
1.80615e-06
0.477415
1.67756e-06
0.477415
1.56157e-06
0.477415
1.51972e-06
0.477414
1.57108e-06
0.477414
1.67855e-06
0.477413
1.76354e-06
0.477413
1.77039e-06
0.477412
1.70822e-06
0.477412
1.61772e-06
0.477411
1.52553e-06
0.477411
1.45198e-06
0.47741
1.43605e-06
0.47741
1.50625e-06
0.47741
1.62133e-06
0.477409
1.68282e-06
0.477409
1.63145e-06
0.477409
1.51021e-06
0.477409
1.41365e-06
0.477409
1.39464e-06
0.477409
1.44401e-06
0.477409
1.52651e-06
0.477409
1.5922e-06
0.477409
1.5838e-06
0.477409
1.48718e-06
0.47741
1.37181e-06
0.47741
1.33336e-06
0.47741
1.39091e-06
0.477411
1.48489e-06
0.477411
1.56371e-06
0.477411
1.62061e-06
0.477412
1.65694e-06