/*--------------------------------*- C++ -*----------------------------------*\
| =========                 |                                                 |
| \\      /  F ield         | OpenFOAM: The Open Source CFD Toolbox           |
|  \\    /   O peration     | Version:  2406                                  |
|   \\  /    A nd           | Website:  www.openfoam.com                      |
|    \\/     M anipulation  |                                                 |
\*---------------------------------------------------------------------------*/
FoamFile
{
    version     2.0;
    format      ascii;
    arch        "LSB;label=32;scalar=64";
    class       volVectorField;
    location    "0.6";
    object      U;
}
// * * * * * * * * * * * * * * * * * * * * * * * * * * * * * * * * * * * * * //

dimensions      [0 1 -1 0 0 0 0];

internalField   nonuniform List<vector> 
6250
(
(47.0645 4.75062e-05 0)
(79.7228 0.000437832 0)
(68.4706 0.00067484 0)
(56.6751 0.000684051 0)
(55.9501 0.000613603 0)
(59.1662 0.000631163 0)
(60.5786 0.000730115 0)
(60.1619 0.000773639 0)
(59.5868 0.00071545 0)
(59.49 0.000599402 0)
(59.6226 0.000560463 0)
(59.7012 0.000615672 0)
(59.6915 0.000687173 0)
(59.6639 0.000735469 0)
(59.6556 0.000784669 0)
(59.6599 0.000835057 0)
(59.6633 0.000879056 0)
(59.6626 0.000879148 0)
(59.6605 0.000835514 0)
(59.6593 0.000855966 0)
(59.6585 0.000967046 0)
(59.6578 0.0010855 0)
(59.6568 0.00116101 0)
(59.6559 0.00120569 0)
(59.655 0.00119278 0)
(59.6542 0.00113507 0)
(59.6535 0.00110221 0)
(59.6528 0.0010929 0)
(59.652 0.00107866 0)
(59.6513 0.00104944 0)
(59.6506 0.00102317 0)
(59.65 0.00100678 0)
(59.6494 0.000988096 0)
(59.6487 0.000985075 0)
(59.6481 0.00101703 0)
(59.6473 0.00105836 0)
(59.6466 0.0010926 0)
(59.6458 0.00113875 0)
(59.645 0.00119171 0)
(59.6442 0.0012092 0)
(59.6435 0.00117273 0)
(59.6429 0.00110797 0)
(59.6422 0.00103637 0)
(59.6415 0.000957096 0)
(59.6409 0.000875868 0)
(59.6403 0.000808401 0)
(59.6397 0.000760255 0)
(59.639 0.000731379 0)
(59.6384 0.000733793 0)
(59.6378 0.000773522 0)
(59.6371 0.000820665 0)
(59.6365 0.000830938 0)
(59.6359 0.000803708 0)
(59.6353 0.000782143 0)
(59.6347 0.000785941 0)
(59.634 0.000789935 0)
(59.6334 0.000778468 0)
(59.6328 0.000771166 0)
(59.6322 0.000775724 0)
(59.6315 0.000765075 0)
(59.6308 0.000730366 0)
(59.6303 0.000712694 0)
(59.6297 0.000743601 0)
(59.6291 0.00078922 0)
(59.6284 0.000796474 0)
(59.6278 0.000770513 0)
(59.6273 0.000760766 0)
(59.6268 0.00078263 0)
(59.6262 0.000798828 0)
(59.6257 0.000781346 0)
(59.6251 0.00075122 0)
(59.6246 0.000741009 0)
(59.6241 0.000747587 0)
(59.6236 0.000745172 0)
(59.6231 0.000728807 0)
(59.6226 0.00071991 0)
(59.6221 0.00073243 0)
(59.6215 0.000753528 0)
(59.6209 0.000762067 0)
(59.6204 0.000752144 0)
(59.6199 0.000734103 0)
(59.6193 0.000721975 0)
(59.6187 0.000724698 0)
(59.6181 0.00074131 0)
(59.6175 0.000759183 0)
(59.6169 0.000762274 0)
(59.6163 0.000748443 0)
(59.6157 0.000736884 0)
(59.615 0.000746919 0)
(59.6144 0.000772231 0)
(59.6137 0.000789072 0)
(59.6131 0.000789379 0)
(59.6125 0.000790088 0)
(59.6119 0.000808384 0)
(59.6112 0.000841241 0)
(59.6105 0.000874891 0)
(59.6098 0.000903297 0)
(59.6091 0.000927798 0)
(59.6085 0.000946972 0)
(59.6078 0.000957455 0)
(59.6071 0.000962431 0)
(59.6064 0.00097124 0)
(59.6057 0.000988227 0)
(59.605 0.00100486 0)
(59.6044 0.00100654 0)
(59.6037 0.00098715 0)
(59.603 0.000954801 0)
(59.6023 0.000923718 0)
(59.6017 0.000903968 0)
(59.601 0.000897965 0)
(59.6004 0.000899468 0)
(59.5997 0.000894007 0)
(59.5991 0.000870316 0)
(59.5984 0.000837045 0)
(59.5978 0.000818372 0)
(59.5972 0.000824756 0)
(59.5965 0.000837787 0)
(59.5959 0.000835093 0)
(59.5953 0.000821629 0)
(59.5947 0.000820935 0)
(59.5942 0.000839799 0)
(59.5936 0.000857972 0)
(59.593 0.000853773 0)
(59.5924 0.000827752 0)
(59.5919 0.000797601 0)
(59.5914 0.000778249 0)
(59.5909 0.00077019 0)
(59.5905 0.000761065 0)
(59.59 0.000735957 0)
(59.5896 0.000690359 0)
(59.5892 0.000634906 0)
(59.5889 0.000584935 0)
(59.5885 0.000546187 0)
(59.5882 0.000513972 0)
(59.5879 0.000483601 0)
(59.5876 0.000454213 0)
(59.5874 0.000421244 0)
(59.5872 0.000375646 0)
(59.587 0.000317691 0)
(59.5868 0.000263109 0)
(59.5867 0.00022983 0)
(59.5865 0.000219202 0)
(59.5864 0.000214039 0)
(59.5863 0.000199762 0)
(59.5862 0.000175474 0)
(59.586 0.000142289 0)
(59.5859 9.79506e-05 0)
(59.5859 4.76632e-05 0)
(59.5859 1.09262e-05 0)
(59.5859 3.59967e-06 0)
(59.5858 2.02372e-05 0)
(59.5857 3.73004e-05 0)
(59.5856 3.30562e-05 0)
(59.5855 8.7103e-08 0)
(59.5855 -4.97202e-05 0)
(59.5855 -9.31543e-05 0)
(59.5855 -0.000113711 0)
(59.5854 -0.000113237 0)
(59.5854 -0.000106788 0)
(59.5853 -0.000105323 0)
(59.5853 -0.000105426 0)
(59.5852 -9.83973e-05 0)
(59.5852 -8.6192e-05 0)
(59.5851 -8.1316e-05 0)
(59.585 -9.1076e-05 0)
(59.585 -0.000108678 0)
(59.585 -0.00012502 0)
(59.585 -0.000139088 0)
(59.585 -0.00014951 0)
(59.585 -0.000149154 0)
(59.5849 -0.000135352 0)
(59.5849 -0.000118346 0)
(59.5849 -0.000116747 0)
(59.5848 -0.000132599 0)
(59.5848 -0.00014911 0)
(59.5848 -0.000154942 0)
(59.5848 -0.000153531 0)
(59.5848 -0.000155328 0)
(59.5848 -0.00016172 0)
(59.5848 -0.000163867 0)
(59.5848 -0.000154106 0)
(59.5847 -0.000137133 0)
(59.5846 -0.000123225 0)
(59.5846 -0.000119512 0)
(59.5846 -0.000125851 0)
(59.5846 -0.000132898 0)
(59.5846 -0.000137526 0)
(59.5846 -0.000142038 0)
(59.5845 -0.00015084 0)
(59.5845 -0.000167385 0)
(59.5845 -0.000188789 0)
(59.5846 -0.00020588 0)
(59.5846 -0.000213217 0)
(59.5846 -0.000214354 0)
(59.5845 -0.000216565 0)
(59.5845 -0.000220835 0)
(59.5845 -0.000226968 0)
(59.5845 -0.000237724 0)
(59.5845 -0.000258211 0)
(59.5845 -0.000287985 0)
(59.5845 -0.000318228 0)
(59.5845 -0.000335585 0)
(59.5845 -0.000338366 0)
(59.5845 -0.000336403 0)
(59.5845 -0.000339123 0)
(59.5845 -0.000348922 0)
(59.5845 -0.000360777 0)
(59.5845 -0.000371294 0)
(59.5845 -0.000378886 0)
(59.5845 -0.0003854 0)
(59.5845 -0.000393778 0)
(59.5845 -0.000404859 0)
(59.5845 -0.000416184 0)
(59.5845 -0.000422672 0)
(59.5845 -0.000420292 0)
(59.5845 -0.000409069 0)
(59.5845 -0.000393397 0)
(59.5845 -0.000380729 0)
(59.5845 -0.00037842 0)
(59.5845 -0.000386133 0)
(59.5845 -0.000393932 0)
(59.5845 -0.000387573 0)
(59.5845 -0.000368298 0)
(59.5846 -0.000358171 0)
(59.5846 -0.000373392 0)
(59.5846 -0.000407534 0)
(59.5847 -0.000436494 0)
(59.5847 -0.000435643 0)
(59.5848 -0.000407964 0)
(59.5848 -0.000383756 0)
(59.5848 -0.000386063 0)
(59.5848 -0.000414066 0)
(59.5848 -0.000449533 0)
(59.5848 -0.000472738 0)
(59.5848 -0.000473295 0)
(59.5848 -0.000460306 0)
(59.5848 -0.000452926 0)
(59.5849 -0.000464282 0)
(59.5849 -0.000493133 0)
(59.5849 -0.00052627 0)
(59.585 -0.000548197 0)
(59.585 -0.000554423 0)
(59.5851 -0.000554489 0)
(59.5851 -0.000562157 0)
(59.5851 -0.000580935 0)
(59.5852 -0.000598998 0)
(59.5853 -0.000603818 0)
(59.5854 -0.000588044 0)
(59.5854 -0.000576693 0)
(59.5855 -0.000551963 0)
(47.065 5.88899e-05 0)
(79.7234 0.000389095 0)
(68.4731 0.000542294 0)
(56.6786 0.000449593 0)
(55.9545 0.000323296 0)
(59.1707 0.000317317 0)
(60.5842 0.000461562 0)
(60.1686 0.000607899 0)
(59.595 0.000700481 0)
(59.499 0.000682881 0)
(59.6322 0.000613512 0)
(59.7116 0.000596763 0)
(59.703 0.000604788 0)
(59.6765 0.000613834 0)
(59.6693 0.000629915 0)
(59.6748 0.000652088 0)
(59.6793 0.000705921 0)
(59.6799 0.000778754 0)
(59.679 0.000761026 0)
(59.679 0.000700463 0)
(59.6798 0.000686814 0)
(59.6807 0.000682988 0)
(59.6813 0.000639462 0)
(59.682 0.000605418 0)
(59.6826 0.000569081 0)
(59.683 0.00048758 0)
(59.6836 0.000419626 0)
(59.6841 0.000370184 0)
(59.6846 0.00032405 0)
(59.6851 0.000283175 0)
(59.6855 0.000271733 0)
(59.6858 0.000293232 0)
(59.6861 0.000309339 0)
(59.6863 0.000318924 0)
(59.6867 0.000355355 0)
(59.6871 0.00039227 0)
(59.6876 0.000384005 0)
(59.6881 0.000347667 0)
(59.6887 0.000320275 0)
(59.6892 0.000299641 0)
(59.6897 0.000276281 0)
(59.6901 0.000271021 0)
(59.6906 0.0003016 0)
(59.691 0.000352904 0)
(59.6914 0.000407588 0)
(59.6917 0.000462823 0)
(59.692 0.000504895 0)
(59.6922 0.000509253 0)
(59.6925 0.000478939 0)
(59.6927 0.000452989 0)
(59.6931 0.000453804 0)
(59.6934 0.000456639 0)
(59.6936 0.000441097 0)
(59.6938 0.000432918 0)
(59.6941 0.000452025 0)
(59.6944 0.000468012 0)
(59.6946 0.00045783 0)
(59.6949 0.000460031 0)
(59.6953 0.000511042 0)
(59.6957 0.000567959 0)
(59.6959 0.00056296 0)
(59.6961 0.000507706 0)
(59.6964 0.000471639 0)
(59.6968 0.00047046 0)
(59.6971 0.000449888 0)
(59.6973 0.00038372 0)
(59.6975 0.000319386 0)
(59.6978 0.000304397 0)
(59.6981 0.000320313 0)
(59.6983 0.000321848 0)
(59.6985 0.000303912 0)
(59.6987 0.000292197 0)
(59.6989 0.000290933 0)
(59.6991 0.000281254 0)
(59.6993 0.00026531 0)
(59.6995 0.000273212 0)
(59.6998 0.000316492 0)
(59.7001 0.000362818 0)
(59.7004 0.000375419 0)
(59.7006 0.000360486 0)
(59.7008 0.000355708 0)
(59.7011 0.000380777 0)
(59.7013 0.000419185 0)
(59.7016 0.000446419 0)
(59.7019 0.000457389 0)
(59.7023 0.000461653 0)
(59.7025 0.000467509 0)
(59.7028 0.000479619 0)
(59.7031 0.00049847 0)
(59.7035 0.000512779 0)
(59.7038 0.000505319 0)
(59.7041 0.000478487 0)
(59.7044 0.000459886 0)
(59.7048 0.000468586 0)
(59.7051 0.000487051 0)
(59.7055 0.000482187 0)
(59.7059 0.000447957 0)
(59.7062 0.000411594 0)
(59.7066 0.00039927 0)
(59.707 0.000407572 0)
(59.7074 0.000411152 0)
(59.7078 0.000392298 0)
(59.7082 0.000359755 0)
(59.7086 0.000339554 0)
(59.709 0.000348806 0)
(59.7094 0.000379292 0)
(59.7098 0.000406246 0)
(59.7101 0.000411136 0)
(59.7105 0.000397462 0)
(59.7108 0.000387698 0)
(59.7112 0.000402169 0)
(59.7115 0.000435625 0)
(59.7118 0.000458802 0)
(59.712 0.000451251 0)
(59.7123 0.000427164 0)
(59.7127 0.000416286 0)
(59.713 0.000423546 0)
(59.7133 0.000424711 0)
(59.7136 0.000402338 0)
(59.7138 0.000367592 0)
(59.7141 0.00034026 0)
(59.7144 0.000322979 0)
(59.7147 0.000305163 0)
(59.715 0.000281936 0)
(59.7152 0.000258167 0)
(59.7154 0.000238782 0)
(59.7156 0.000223361 0)
(59.7157 0.000208165 0)
(59.7159 0.000189104 0)
(59.7161 0.000165505 0)
(59.7162 0.000144022 0)
(59.7162 0.000134829 0)
(59.7163 0.000139611 0)
(59.7163 0.000146202 0)
(59.7163 0.000140193 0)
(59.7163 0.000120712 0)
(59.7163 9.94212e-05 0)
(59.7162 8.52813e-05 0)
(59.7162 7.73456e-05 0)
(59.716 7.1891e-05 0)
(59.7159 7.03436e-05 0)
(59.7157 7.49679e-05 0)
(59.7156 8.06108e-05 0)
(59.7154 8.13838e-05 0)
(59.7153 7.93467e-05 0)
(59.7152 7.768e-05 0)
(59.715 7.30489e-05 0)
(59.7148 6.30083e-05 0)
(59.7145 5.83126e-05 0)
(59.7142 7.46675e-05 0)
(59.714 0.000113298 0)
(59.7139 0.000155462 0)
(59.7137 0.000178523 0)
(59.7134 0.000172569 0)
(59.7132 0.000147241 0)
(59.7129 0.000125444 0)
(59.7127 0.000127786 0)
(59.7124 0.000156765 0)
(59.7122 0.000193208 0)
(59.7119 0.000213876 0)
(59.7117 0.000214999 0)
(59.7114 0.000212423 0)
(59.7112 0.00021626 0)
(59.711 0.000215538 0)
(59.7107 0.000195898 0)
(59.7105 0.000164822 0)
(59.7102 0.000145365 0)
(59.7099 0.00014882 0)
(59.7097 0.000165937 0)
(59.7094 0.000182118 0)
(59.7091 0.000192657 0)
(59.7089 0.000200178 0)
(59.7086 0.000202068 0)
(59.7083 0.000196252 0)
(59.7081 0.000188422 0)
(59.7078 0.000184292 0)
(59.7075 0.000182701 0)
(59.7072 0.00017775 0)
(59.7069 0.000171524 0)
(59.7066 0.000175264 0)
(59.7064 0.000193677 0)
(59.7062 0.000212537 0)
(59.7059 0.000212209 0)
(59.7056 0.000188703 0)
(59.7053 0.000158855 0)
(59.7051 0.000147056 0)
(59.7048 0.000159546 0)
(59.7046 0.000182342 0)
(59.7044 0.000195454 0)
(59.7041 0.000190308 0)
(59.7038 0.000178479 0)
(59.7035 0.000181228 0)
(59.7033 0.00020531 0)
(59.703 0.000234531 0)
(59.7028 0.000247798 0)
(59.7025 0.000244123 0)
(59.7022 0.000241234 0)
(59.702 0.000255086 0)
(59.7017 0.000283075 0)
(59.7015 0.000310433 0)
(59.7012 0.000327 0)
(59.7009 0.000335693 0)
(59.7006 0.000341567 0)
(59.7003 0.000346285 0)
(59.7 0.000351287 0)
(59.6997 0.000357773 0)
(59.6995 0.000364844 0)
(59.6992 0.000368469 0)
(59.6989 0.00036936 0)
(59.6986 0.000372846 0)
(59.6983 0.000382169 0)
(59.698 0.000394236 0)
(59.6977 0.000403423 0)
(59.6973 0.000407507 0)
(59.697 0.000407159 0)
(59.6967 0.000403542 0)
(59.6964 0.000399036 0)
(59.6961 0.00039618 0)
(59.6958 0.000392291 0)
(59.6955 0.000380259 0)
(59.6951 0.000358187 0)
(59.6949 0.000338605 0)
(59.6946 0.000335225 0)
(59.6943 0.00034444 0)
(59.694 0.00035019 0)
(59.6936 0.000341112 0)
(59.6933 0.000324105 0)
(59.693 0.000320672 0)
(59.6927 0.000340954 0)
(59.6925 0.000372605 0)
(59.6922 0.00039949 0)
(59.6919 0.000413974 0)
(59.6916 0.000417025 0)
(59.6913 0.000414481 0)
(59.691 0.000415752 0)
(59.6907 0.000425428 0)
(59.6904 0.000440475 0)
(59.6901 0.000452913 0)
(59.6898 0.000455578 0)
(59.6895 0.000448766 0)
(59.6893 0.000441904 0)
(59.689 0.000445267 0)
(59.6887 0.000460129 0)
(59.6885 0.000476273 0)
(59.6882 0.000481649 0)
(59.6879 0.000475122 0)
(59.6876 0.000468265 0)
(59.6874 0.000467191 0)
(59.6872 0.000481177 0)
(59.6868 0.000464974 0)
(47.0646 3.54823e-05 0)
(79.7233 9.89138e-05 0)
(68.4722 0.000196295 0)
(56.6769 0.000205047 0)
(55.9526 0.000159966 0)
(59.1692 9.05223e-05 0)
(60.5819 1.58287e-05 0)
(60.1661 -1.21476e-05 0)
(59.592 -4.50069e-06 0)
(59.4963 4.22181e-05 0)
(59.6296 6.85167e-05 0)
(59.7089 0.000101389 0)
(59.6999 0.000144159 0)
(59.6729 0.000135257 0)
(59.6653 7.69561e-05 0)
(59.6705 9.68851e-06 0)
(59.6748 -3.02849e-05 0)
(59.6753 4.58264e-05 0)
(59.6743 0.000136532 0)
(59.6738 0.000136218 0)
(59.674 8.9539e-05 0)
(59.6742 2.81642e-05 0)
(59.6743 -4.23503e-05 0)
(59.6741 -8.18251e-05 0)
(59.6743 -5.52405e-05 0)
(59.6742 -2.41055e-05 0)
(59.6742 9.42303e-06 0)
(59.6742 7.80439e-05 0)
(59.674 0.000165924 0)
(59.6739 0.000239778 0)
(59.6739 0.00029902 0)
(59.6739 0.00036454 0)
(59.6739 0.000406796 0)
(59.6739 0.000385943 0)
(59.6739 0.000339914 0)
(59.6739 0.000312756 0)
(59.6738 0.000278494 0)
(59.6737 0.00021525 0)
(59.6736 0.000158996 0)
(59.6735 0.000139446 0)
(59.6733 0.000134857 0)
(59.6732 0.000121987 0)
(59.6731 0.00011546 0)
(59.6731 0.00012852 0)
(59.6731 0.000150351 0)
(59.6732 0.000176581 0)
(59.6733 0.000214664 0)
(59.6735 0.000251972 0)
(59.6737 0.000255238 0)
(59.6738 0.000223951 0)
(59.6739 0.000204947 0)
(59.674 0.000226064 0)
(59.6741 0.00025743 0)
(59.6742 0.000266951 0)
(59.6743 0.000263489 0)
(59.6745 0.000252957 0)
(59.6745 0.000210961 0)
(59.6745 0.000139893 0)
(59.6746 9.83673e-05 0)
(59.6747 0.00012273 0)
(59.6749 0.000163015 0)
(59.6749 0.000153481 0)
(59.6749 0.000114033 0)
(59.675 0.000118658 0)
(59.6751 0.000181417 0)
(59.6751 0.000238198 0)
(59.675 0.000242505 0)
(59.6749 0.000223203 0)
(59.6749 0.000231049 0)
(59.6749 0.000269704 0)
(59.6749 0.000305319 0)
(59.6749 0.000317547 0)
(59.6749 0.000312577 0)
(59.6749 0.000299793 0)
(59.6749 0.000282889 0)
(59.6749 0.000270115 0)
(59.6749 0.000269816 0)
(59.6749 0.000273943 0)
(59.675 0.000265021 0)
(59.6751 0.000244163 0)
(59.6751 0.000233673 0)
(59.6751 0.000243009 0)
(59.6752 0.000249263 0)
(59.6753 0.000227217 0)
(59.6753 0.000187369 0)
(59.6754 0.000164581 0)
(59.6755 0.000172408 0)
(59.6756 0.000187928 0)
(59.6757 0.000186256 0)
(59.6758 0.000169767 0)
(59.676 0.00015442 0)
(59.676 0.000146768 0)
(59.6761 0.000147125 0)
(59.6761 0.000158713 0)
(59.6762 0.000179246 0)
(59.6763 0.000193771 0)
(59.6763 0.000189518 0)
(59.6763 0.000174293 0)
(59.6763 0.000169687 0)
(59.6763 0.000186 0)
(59.6764 0.000209882 0)
(59.6764 0.000218441 0)
(59.6764 0.000203822 0)
(59.6764 0.000182204 0)
(59.6763 0.000176743 0)
(59.6763 0.000193695 0)
(59.6764 0.000218771 0)
(59.6764 0.000233982 0)
(59.6765 0.000232641 0)
(59.6765 0.000221801 0)
(59.6765 0.000217268 0)
(59.6765 0.000231312 0)
(59.6767 0.000255391 0)
(59.6767 0.000261203 0)
(59.6768 0.000232919 0)
(59.6769 0.000194069 0)
(59.6769 0.000185122 0)
(59.677 0.000214642 0)
(59.6771 0.000249681 0)
(59.6772 0.000257578 0)
(59.6772 0.000241195 0)
(59.6772 0.00022734 0)
(59.6772 0.000234961 0)
(59.6773 0.000262911 0)
(59.6773 0.000298184 0)
(59.6772 0.000326166 0)
(59.6772 0.000338157 0)
(59.6772 0.000336833 0)
(59.6771 0.00033295 0)
(59.6771 0.000334191 0)
(59.6771 0.000340781 0)
(59.677 0.000352627 0)
(59.677 0.000372478 0)
(59.6769 0.000396534 0)
(59.6769 0.000409559 0)
(59.6769 0.000400291 0)
(59.6768 0.000380051 0)
(59.6767 0.000374155 0)
(59.6767 0.000392638 0)
(59.6767 0.00042023 0)
(59.6766 0.000436951 0)
(59.6766 0.000438797 0)
(59.6766 0.000433509 0)
(59.6765 0.000424804 0)
(59.6765 0.00041371 0)
(59.6765 0.000408725 0)
(59.6765 0.000418681 0)
(59.6765 0.000437967 0)
(59.6765 0.000449971 0)
(59.6764 0.000446719 0)
(59.6764 0.000434621 0)
(59.6763 0.000423277 0)
(59.6764 0.000416109 0)
(59.6764 0.000412041 0)
(59.6764 0.000406135 0)
(59.6764 0.000392876 0)
(59.6764 0.000376034 0)
(59.6764 0.000369824 0)
(59.6765 0.000382436 0)
(59.6765 0.000401595 0)
(59.6766 0.000406204 0)
(59.6766 0.000391895 0)
(59.6766 0.000375 0)
(59.6766 0.000369135 0)
(59.6767 0.000369107 0)
(59.6767 0.000364552 0)
(59.6768 0.000360739 0)
(59.6768 0.000371775 0)
(59.6768 0.000395571 0)
(59.6768 0.000412035 0)
(59.6769 0.000408762 0)
(59.6769 0.000395098 0)
(59.6769 0.000387821 0)
(59.6769 0.000388038 0)
(59.6769 0.000386054 0)
(59.677 0.000381188 0)
(59.677 0.000380635 0)
(59.6771 0.000386225 0)
(59.6771 0.000391409 0)
(59.6771 0.000392471 0)
(59.6771 0.000392706 0)
(59.6771 0.00039506 0)
(59.6771 0.000394834 0)
(59.6772 0.000386265 0)
(59.6771 0.000371105 0)
(59.6771 0.000356164 0)
(59.6771 0.00035027 0)
(59.6771 0.000355427 0)
(59.6771 0.000363989 0)
(59.6771 0.000364392 0)
(59.6771 0.000350698 0)
(59.677 0.000328488 0)
(59.677 0.000310327 0)
(59.677 0.000302183 0)
(59.677 0.000296937 0)
(59.6771 0.000283309 0)
(59.6771 0.000262846 0)
(59.6771 0.00024938 0)
(59.6771 0.000253125 0)
(59.6771 0.000268581 0)
(59.6772 0.000280524 0)
(59.6773 0.00027667 0)
(59.6774 0.000257006 0)
(59.6774 0.00023025 0)
(59.6775 0.000206973 0)
(59.6776 0.000194759 0)
(59.6777 0.000192964 0)
(59.6779 0.00019501 0)
(59.678 0.000195111 0)
(59.6781 0.000195479 0)
(59.6783 0.000202082 0)
(59.6784 0.000215865 0)
(59.6786 0.000231901 0)
(59.6787 0.000244499 0)
(59.6788 0.000249691 0)
(59.679 0.00024491 0)
(59.6791 0.000232219 0)
(59.6792 0.000221473 0)
(59.6793 0.000222992 0)
(59.6794 0.000233314 0)
(59.6795 0.000235658 0)
(59.6796 0.000217967 0)
(59.6796 0.000191109 0)
(59.6797 0.000180186 0)
(59.6798 0.000194146 0)
(59.6799 0.000216319 0)
(59.68 0.000222766 0)
(59.68 0.000203649 0)
(59.6801 0.000171706 0)
(59.6801 0.000148989 0)
(59.6802 0.000146088 0)
(59.6804 0.000157689 0)
(59.6805 0.00016904 0)
(59.6806 0.000165736 0)
(59.6807 0.00014274 0)
(59.6808 0.000110084 0)
(59.6809 8.3618e-05 0)
(59.681 7.11342e-05 0)
(59.6812 6.70013e-05 0)
(59.6813 5.80274e-05 0)
(59.6814 3.46316e-05 0)
(59.6815 2.84464e-07 0)
(59.6815 -3.07169e-05 0)
(59.6817 -4.68646e-05 0)
(59.6818 -5.15887e-05 0)
(59.6819 -5.8627e-05 0)
(59.682 -7.59348e-05 0)
(59.6821 -9.67823e-05 0)
(59.6822 -0.000114097 0)
(59.6824 -0.00011199 0)
(47.0646 -8.06063e-06 0)
(79.7236 3.22194e-05 0)
(68.4727 0.000201376 0)
(56.6782 0.0003596 0)
(55.9534 0.000389442 0)
(59.1699 0.000330797 0)
(60.5829 0.000290194 0)
(60.1668 0.000332741 0)
(59.5923 0.000375362 0)
(59.4959 0.000370976 0)
(59.6288 0.000341769 0)
(59.708 0.000326977 0)
(59.6992 0.000384312 0)
(59.6724 0.000453624 0)
(59.6647 0.000484257 0)
(59.6697 0.000456978 0)
(59.6735 0.000340784 0)
(59.6736 0.000269179 0)
(59.6725 0.00028879 0)
(59.672 0.00030334 0)
(59.6723 0.00032955 0)
(59.6726 0.000391011 0)
(59.6726 0.000449203 0)
(59.6724 0.000455786 0)
(59.6725 0.000465336 0)
(59.6724 0.000494109 0)
(59.6723 0.000494444 0)
(59.6723 0.000476337 0)
(59.6723 0.000442735 0)
(59.6724 0.000396539 0)
(59.6725 0.000341315 0)
(59.6726 0.000302219 0)
(59.6729 0.000296992 0)
(59.6731 0.000300124 0)
(59.6733 0.000307064 0)
(59.6736 0.00034662 0)
(59.6738 0.000412782 0)
(59.6739 0.000467456 0)
(59.6741 0.000499099 0)
(59.6742 0.000519072 0)
(59.6742 0.000518351 0)
(59.6743 0.000481706 0)
(59.6742 0.000425579 0)
(59.6742 0.000374549 0)
(59.6742 0.000323018 0)
(59.6741 0.000260493 0)
(59.6741 0.000210246 0)
(59.674 0.00020323 0)
(59.674 0.00022629 0)
(59.674 0.000236637 0)
(59.674 0.00022707 0)
(59.674 0.000226542 0)
(59.674 0.000239943 0)
(59.674 0.000246703 0)
(59.674 0.000255631 0)
(59.6741 0.000296199 0)
(59.6742 0.000352656 0)
(59.6742 0.000372218 0)
(59.6741 0.000350137 0)
(59.674 0.000343572 0)
(59.674 0.000381146 0)
(59.674 0.000418732 0)
(59.6739 0.000416211 0)
(59.6739 0.000404388 0)
(59.6739 0.000431249 0)
(59.6739 0.000479916 0)
(59.674 0.000491064 0)
(59.674 0.000448632 0)
(59.6741 0.00039593 0)
(59.6742 0.000369512 0)
(59.6742 0.000357729 0)
(59.6743 0.000334856 0)
(59.6744 0.000303819 0)
(59.6745 0.000284242 0)
(59.6746 0.000277438 0)
(59.6746 0.000267742 0)
(59.6746 0.000251433 0)
(59.6746 0.000242622 0)
(59.6747 0.000249302 0)
(59.6748 0.000260603 0)
(59.6748 0.000263174 0)
(59.6748 0.000257639 0)
(59.6748 0.000251253 0)
(59.6748 0.000245106 0)
(59.6748 0.000239205 0)
(59.6748 0.000240718 0)
(59.6748 0.000253101 0)
(59.6748 0.000264475 0)
(59.6747 0.000262885 0)
(59.6747 0.000257998 0)
(59.6747 0.000269739 0)
(59.6747 0.000296724 0)
(59.6747 0.000315504 0)
(59.6746 0.000314231 0)
(59.6746 0.000309239 0)
(59.6746 0.000321643 0)
(59.6747 0.000349313 0)
(59.6747 0.000369811 0)
(59.6748 0.000366388 0)
(59.6748 0.000346281 0)
(59.6748 0.000333975 0)
(59.6749 0.000346824 0)
(59.675 0.000376965 0)
(59.6751 0.000397951 0)
(59.6751 0.000389118 0)
(59.6752 0.00035328 0)
(59.6752 0.000313695 0)
(59.6753 0.00029585 0)
(59.6754 0.000307064 0)
(59.6754 0.000329453 0)
(59.6754 0.00033731 0)
(59.6754 0.000323965 0)
(59.6754 0.000304858 0)
(59.6755 0.000292351 0)
(59.6755 0.000280728 0)
(59.6755 0.000263894 0)
(59.6755 0.000253879 0)
(59.6755 0.000266443 0)
(59.6755 0.000295626 0)
(59.6755 0.000317767 0)
(59.6756 0.000318922 0)
(59.6756 0.000307013 0)
(59.6756 0.000298328 0)
(59.6757 0.000302112 0)
(59.6757 0.000317774 0)
(59.6758 0.000337719 0)
(59.6759 0.000351072 0)
(59.676 0.000351112 0)
(59.6761 0.000341308 0)
(59.6762 0.000330625 0)
(59.6764 0.000323185 0)
(59.6765 0.000317108 0)
(59.6766 0.000312884 0)
(59.6767 0.000315384 0)
(59.6768 0.000323792 0)
(59.6769 0.000325842 0)
(59.677 0.000309726 0)
(59.6771 0.000279716 0)
(59.6772 0.00025263 0)
(59.6773 0.000239387 0)
(59.6773 0.000236678 0)
(59.6774 0.000235982 0)
(59.6775 0.000232144 0)
(59.6776 0.00022122 0)
(59.6777 0.000200353 0)
(59.6777 0.000175735 0)
(59.6778 0.000162323 0)
(59.6778 0.000168805 0)
(59.6779 0.000187272 0)
(59.678 0.000202371 0)
(59.678 0.000205826 0)
(59.678 0.000199002 0)
(59.678 0.000187419 0)
(59.6781 0.000177379 0)
(59.6781 0.000172318 0)
(59.6782 0.000168373 0)
(59.6782 0.000158762 0)
(59.6782 0.000146096 0)
(59.6782 0.000143483 0)
(59.6782 0.000156864 0)
(59.6783 0.000172281 0)
(59.6783 0.000170295 0)
(59.6783 0.000150857 0)
(59.6783 0.000133491 0)
(59.6784 0.000131683 0)
(59.6784 0.000137731 0)
(59.6785 0.000138131 0)
(59.6785 0.000134065 0)
(59.6785 0.000137158 0)
(59.6786 0.000150317 0)
(59.6786 0.00016293 0)
(59.6787 0.000165345 0)
(59.6787 0.000159265 0)
(59.6787 0.000150769 0)
(59.6788 0.000142601 0)
(59.6788 0.000137965 0)
(59.6788 0.000142946 0)
(59.6789 0.000158603 0)
(59.679 0.000174482 0)
(59.679 0.000177905 0)
(59.679 0.000169352 0)
(59.6791 0.000162872 0)
(59.6791 0.000170342 0)
(59.6792 0.000189255 0)
(59.6793 0.000206256 0)
(59.6794 0.000210223 0)
(59.6794 0.000202976 0)
(59.6794 0.000197576 0)
(59.6795 0.000205875 0)
(59.6796 0.000225361 0)
(59.6796 0.000239311 0)
(59.6797 0.000233372 0)
(59.6797 0.000212874 0)
(59.6797 0.000198856 0)
(59.6797 0.000205818 0)
(59.6797 0.000226808 0)
(59.6798 0.000242735 0)
(59.6798 0.000242588 0)
(59.6797 0.000230807 0)
(59.6797 0.000217265 0)
(59.6797 0.00020663 0)
(59.6797 0.000197702 0)
(59.6797 0.000187795 0)
(59.6796 0.00017384 0)
(59.6796 0.000153838 0)
(59.6796 0.000131404 0)
(59.6795 0.000115232 0)
(59.6794 0.000110912 0)
(59.6794 0.000114804 0)
(59.6793 0.000119326 0)
(59.6792 0.000121351 0)
(59.6792 0.000122765 0)
(59.6791 0.000126095 0)
(59.679 0.000133226 0)
(59.679 0.000145683 0)
(59.679 0.00016128 0)
(59.6789 0.000172482 0)
(59.6789 0.000174016 0)
(59.6789 0.000171762 0)
(59.6788 0.000177832 0)
(59.6788 0.000195098 0)
(59.6788 0.000211258 0)
(59.6788 0.00021271 0)
(59.6788 0.00020059 0)
(59.6787 0.000188981 0)
(59.6787 0.000189148 0)
(59.6787 0.000199131 0)
(59.6787 0.000208578 0)
(59.6787 0.000210396 0)
(59.6786 0.000204422 0)
(59.6786 0.000193821 0)
(59.6785 0.000184545 0)
(59.6785 0.000183588 0)
(59.6784 0.00019298 0)
(59.6784 0.000206609 0)
(59.6783 0.000216203 0)
(59.6782 0.000218802 0)
(59.6781 0.000218599 0)
(59.6781 0.000222588 0)
(59.678 0.000233605 0)
(59.6779 0.000246634 0)
(59.6778 0.000253078 0)
(59.6777 0.000250096 0)
(59.6776 0.000244627 0)
(59.6774 0.000245567 0)
(59.6773 0.000252911 0)
(59.6772 0.000258921 0)
(59.677 0.000254861 0)
(59.6768 0.000247941 0)
(59.6765 0.000206651 0)
(47.065 2.38521e-06 0)
(79.7233 3.87467e-06 0)
(68.472 -1.57294e-05 0)
(56.6773 5.46544e-05 0)
(55.9531 0.000148981 0)
(59.1695 0.000165554 0)
(60.5824 0.000146321 0)
(60.1665 0.000140454 0)
(59.5926 0.000216835 0)
(59.4968 0.000274889 0)
(59.6299 0.000250327 0)
(59.709 0.000168071 0)
(59.7 0.000105386 0)
(59.6733 0.000107414 0)
(59.666 0.000166157 0)
(59.6714 0.000268258 0)
(59.6756 0.00029752 0)
(59.6756 0.000247177 0)
(59.6746 0.000226074 0)
(59.674 0.000214485 0)
(59.674 0.000192671 0)
(59.6743 0.000195435 0)
(59.6745 0.000219041 0)
(59.6744 0.000206775 0)
(59.6744 0.000183464 0)
(59.6744 0.000185649 0)
(59.6745 0.000173117 0)
(59.6746 0.00014619 0)
(59.6746 0.000120854 0)
(59.6745 0.000104044 0)
(59.6743 7.17219e-05 0)
(59.6741 2.24569e-05 0)
(59.674 5.16264e-07 0)
(59.6738 2.78288e-06 0)
(59.6736 -9.74507e-06 0)
(59.6735 -3.06959e-05 0)
(59.6734 -2.56385e-05 0)
(59.6734 8.51626e-07 0)
(59.6733 2.39937e-05 0)
(59.6734 4.95504e-05 0)
(59.6734 9.26211e-05 0)
(59.6735 0.000144385 0)
(59.6735 0.00019339 0)
(59.6736 0.000243037 0)
(59.6736 0.000285913 0)
(59.6736 0.000296012 0)
(59.6736 0.000268615 0)
(59.6736 0.000240693 0)
(59.6736 0.000243354 0)
(59.6736 0.000256164 0)
(59.6735 0.000245462 0)
(59.6735 0.000220164 0)
(59.6735 0.000204286 0)
(59.6735 0.000186156 0)
(59.6734 0.000148002 0)
(59.6733 0.000119237 0)
(59.6734 0.000141801 0)
(59.6735 0.000197529 0)
(59.6736 0.000226601 0)
(59.6736 0.000212228 0)
(59.6737 0.000193621 0)
(59.6739 0.000193837 0)
(59.6741 0.000187569 0)
(59.6741 0.000153458 0)
(59.6742 0.000113258 0)
(59.6743 9.67549e-05 0)
(59.6745 9.9804e-05 0)
(59.6746 0.00010166 0)
(59.6747 0.00010132 0)
(59.6747 0.000110995 0)
(59.6748 0.000126808 0)
(59.6748 0.000132568 0)
(59.6747 0.000129902 0)
(59.6747 0.000140173 0)
(59.6747 0.000170827 0)
(59.6747 0.00019965 0)
(59.6746 0.000204288 0)
(59.6746 0.00019339 0)
(59.6746 0.000193034 0)
(59.6746 0.000210211 0)
(59.6746 0.000226618 0)
(59.6746 0.00022787 0)
(59.6746 0.000222149 0)
(59.6747 0.000224104 0)
(59.6747 0.000234086 0)
(59.6747 0.000243064 0)
(59.6747 0.000247092 0)
(59.6748 0.000245563 0)
(59.6748 0.000235208 0)
(59.6748 0.000218828 0)
(59.6749 0.000211213 0)
(59.6749 0.00022135 0)
(59.675 0.000234638 0)
(59.6751 0.00022738 0)
(59.6751 0.000196422 0)
(59.6751 0.000162676 0)
(59.6751 0.000145727 0)
(59.6752 0.000143512 0)
(59.6752 0.000138218 0)
(59.6753 0.000117503 0)
(59.6752 8.8142e-05 0)
(59.6752 6.95533e-05 0)
(59.6752 7.42945e-05 0)
(59.6752 9.60109e-05 0)
(59.6753 0.000116766 0)
(59.6753 0.000123748 0)
(59.6753 0.00011915 0)
(59.6753 0.000118374 0)
(59.6753 0.000137735 0)
(59.6753 0.000176498 0)
(59.6753 0.000211329 0)
(59.6753 0.000218022 0)
(59.6753 0.000199858 0)
(59.6754 0.000184028 0)
(59.6754 0.000188327 0)
(59.6755 0.000203583 0)
(59.6755 0.000212219 0)
(59.6755 0.000210244 0)
(59.6756 0.000203067 0)
(59.6757 0.000191457 0)
(59.6757 0.000173137 0)
(59.6758 0.000152143 0)
(59.6759 0.000136567 0)
(59.676 0.000128974 0)
(59.676 0.000124813 0)
(59.6761 0.000118008 0)
(59.6762 0.000104298 0)
(59.6763 8.29472e-05 0)
(59.6763 6.02164e-05 0)
(59.6764 4.80789e-05 0)
(59.6765 5.34469e-05 0)
(59.6766 6.93862e-05 0)
(59.6766 8.22292e-05 0)
(59.6767 8.7492e-05 0)
(59.6767 9.32441e-05 0)
(59.6768 0.000106582 0)
(59.6769 0.000123572 0)
(59.6769 0.000137063 0)
(59.677 0.000148283 0)
(59.677 0.000163173 0)
(59.677 0.000181115 0)
(59.677 0.000195792 0)
(59.6771 0.000205636 0)
(59.6771 0.00021481 0)
(59.6771 0.00022425 0)
(59.6771 0.000230894 0)
(59.6771 0.000236737 0)
(59.6771 0.000249892 0)
(59.6771 0.000273622 0)
(59.6771 0.000300494 0)
(59.6771 0.000319517 0)
(59.6771 0.000324248 0)
(59.6771 0.000314235 0)
(59.6771 0.000295743 0)
(59.6772 0.000281779 0)
(59.6772 0.00028307 0)
(59.6773 0.000296048 0)
(59.6773 0.000306484 0)
(59.6773 0.000307391 0)
(59.6773 0.000305899 0)
(59.6773 0.000308548 0)
(59.6774 0.00030816 0)
(59.6774 0.000293917 0)
(59.6774 0.000270081 0)
(59.6774 0.000254366 0)
(59.6774 0.000257156 0)
(59.6774 0.000271096 0)
(59.6774 0.000284038 0)
(59.6774 0.000293762 0)
(59.6774 0.000303973 0)
(59.6774 0.000312313 0)
(59.6774 0.000311776 0)
(59.6774 0.00030224 0)
(59.6774 0.000291398 0)
(59.6775 0.00028374 0)
(59.6775 0.000276887 0)
(59.6775 0.000270328 0)
(59.6775 0.00026971 0)
(59.6775 0.00027782 0)
(59.6775 0.000286814 0)
(59.6776 0.000284913 0)
(59.6776 0.000269037 0)
(59.6776 0.000247709 0)
(59.6776 0.000232934 0)
(59.6777 0.000231088 0)
(59.6778 0.000239115 0)
(59.6779 0.000247395 0)
(59.6779 0.000248131 0)
(59.6779 0.000243056 0)
(59.678 0.000241281 0)
(59.6781 0.000247717 0)
(59.6782 0.000255579 0)
(59.6782 0.0002537 0)
(59.6783 0.000240845 0)
(59.6784 0.000228789 0)
(59.6784 0.00022994 0)
(59.6785 0.000245062 0)
(59.6786 0.000265009 0)
(59.6786 0.000281322 0)
(59.6787 0.000291479 0)
(59.6787 0.000296207 0)
(59.6787 0.000297097 0)
(59.6788 0.000297146 0)
(59.6788 0.000298994 0)
(59.6789 0.000301564 0)
(59.6789 0.000301911 0)
(59.6789 0.000301007 0)
(59.6789 0.000303999 0)
(59.679 0.000313501 0)
(59.679 0.000326192 0)
(59.679 0.000337087 0)
(59.6791 0.000343489 0)
(59.6791 0.000343665 0)
(59.6792 0.00033639 0)
(59.6792 0.000324388 0)
(59.6793 0.000313863 0)
(59.6794 0.000306721 0)
(59.6795 0.000296586 0)
(59.6795 0.000277506 0)