/*--------------------------------*- C++ -*----------------------------------*\
| =========                 |                                                 |
| \\      /  F ield         | OpenFOAM: The Open Source CFD Toolbox           |
|  \\    /   O peration     | Version:  2406                                  |
|   \\  /    A nd           | Website:  www.openfoam.com                      |
|    \\/     M anipulation  |                                                 |
\*---------------------------------------------------------------------------*/
FoamFile
{
    version     2.0;
    format      ascii;
    arch        "LSB;label=32;scalar=64";
    class       surfaceScalarField;
    location    "0.4";
    object      phi;
}
// * * * * * * * * * * * * * * * * * * * * * * * * * * * * * * * * * * * * * //

dimensions      [0 3 -1 0 0 0 0];

oriented        oriented;

internalField   nonuniform List<scalar> 
1192
(
5.87097e-06
-1.61202e-12
5.87097e-06
-2.41273e-12
5.87097e-06
-2.16759e-12
5.87097e-06
-8.80699e-13
5.87097e-06
9.02306e-13
5.87097e-06
2.35778e-12
5.87097e-06
2.71345e-12
5.87098e-06
1.58732e-12
5.87098e-06
-4.15025e-13
5.87098e-06
-1.97291e-12
5.87097e-06
-2.2353e-12
5.87097e-06
-1.2445e-12
5.87097e-06
2.6143e-13
5.87097e-06
1.3035e-12
5.87097e-06
1.57657e-12
5.87098e-06
1.21031e-12
5.87098e-06
5.72913e-13
5.87098e-06
-8.42903e-14
5.87098e-06
-6.50071e-13
5.87098e-06
-1.10089e-12
5.87098e-06
-1.2795e-12
5.87098e-06
-9.96776e-13
5.87098e-06
-2.24705e-13
5.87098e-06
8.19916e-13
5.87098e-06
1.51505e-12
5.87098e-06
1.47488e-12
5.87098e-06
6.71807e-13
5.87098e-06
-4.73418e-13
5.87098e-06
-1.23893e-12
5.87098e-06
-1.26103e-12
5.87098e-06
-6.4096e-13
5.87098e-06
1.87079e-13
5.87098e-06
7.11566e-13
5.87098e-06
8.31479e-13
5.87098e-06
6.64014e-13
5.87098e-06
4.0014e-13
5.87098e-06
1.22763e-13
5.87098e-06
-1.76169e-13
5.87098e-06
-4.28001e-13
5.87098e-06
-4.86476e-13
5.87098e-06
-2.42052e-13
5.87098e-06
2.25835e-13
5.87098e-06
5.7598e-13
5.87098e-06
5.38999e-13
5.87098e-06
5.51992e-14
5.87098e-06
-5.50597e-13
5.87098e-06
-8.79185e-13
5.87098e-06
-7.26939e-13
5.87098e-06
-1.93509e-13
5.87098e-06
4.28811e-13
5.87098e-06
8.3331e-13
5.87098e-06
9.13499e-13
5.87098e-06
6.63261e-13
5.87098e-06
1.41487e-13
5.87098e-06
-5.43997e-13
5.87098e-06
-1.07769e-12
5.87098e-06
-1.17473e-12
5.87098e-06
-6.83633e-13
5.87098e-06
2.06701e-13
5.87098e-06
9.19397e-13
5.87098e-06
1.03763e-12
5.87098e-06
5.23667e-13
5.87098e-06
-2.50882e-13
5.87098e-06
-7.05156e-13
5.87098e-06
-6.97692e-13
5.87098e-06
-4.13526e-13
5.87098e-06
-1.57042e-13
5.87098e-06
-3.86433e-15
5.87098e-06
1.82592e-13
5.87097e-06
4.49959e-13
5.87097e-06
5.5842e-13
5.87098e-06
1.8758e-13
5.87098e-06
-5.83532e-13
5.87098e-06
-1.09425e-12
5.87097e-06
-7.18764e-13
5.87097e-06
6.36906e-13
5.87097e-06
2.14673e-12
5.87097e-06
2.93695e-12
5.87097e-06
2.8265e-12
2.26735e-12
1.46394e-05
-1.47515e-12
1.46394e-05
-1.99575e-12
1.46394e-05
-1.57822e-12
1.46394e-05
-9.98176e-13
1.46394e-05
-2.33746e-13
1.46394e-05
9.28004e-13
1.46394e-05
2.12316e-12
1.46394e-05
2.40625e-12
1.46394e-05
1.49094e-12
1.46394e-05
-8.36629e-14
1.46394e-05
-1.30008e-12
1.46394e-05
-1.51618e-12
1.46394e-05
-8.31141e-13
1.46394e-05
1.25844e-13
1.46394e-05
8.04199e-13
1.46394e-05
9.89763e-13
1.46394e-05
8.44993e-13
1.46394e-05
5.95357e-13
1.46394e-05
3.33018e-13
1.46394e-05
-3.27862e-14
1.46394e-05
-4.48672e-13
1.46394e-05
-7.85844e-13
1.46394e-05
-7.67937e-13
1.46394e-05
-2.59823e-13
1.46394e-05
5.37711e-13
1.46394e-05
1.18513e-12
1.46394e-05
1.25768e-12
1.46394e-05
6.95596e-13
1.46394e-05
-1.39351e-13
1.46394e-05
-7.23062e-13
1.46394e-05
-7.5884e-13
1.46394e-05
-3.49214e-13
1.46394e-05
1.37022e-13
1.46394e-05
4.32927e-13
1.46394e-05
4.71552e-13
1.46394e-05
3.90743e-13
1.46394e-05
2.92124e-13
1.46394e-05
1.54653e-13
1.46394e-05
-7.44536e-14
1.46394e-05
-3.33266e-13
1.46394e-05
-4.30956e-13
1.46394e-05
-2.27488e-13
1.46394e-05
1.91656e-13
1.46394e-05
5.3872e-13
1.46394e-05
5.36259e-13
1.46394e-05
1.52897e-13
1.46394e-05
-3.62172e-13
1.46394e-05
-6.83167e-13
1.46394e-05
-6.44278e-13
1.46394e-05
-3.27903e-13
1.46394e-05
6.37536e-14
1.46394e-05
3.77027e-13
1.46394e-05
5.41515e-13
1.46394e-05
5.05332e-13
1.46394e-05
2.14936e-13
1.46394e-05
-2.89696e-13
1.46394e-05
-7.99752e-13
1.46394e-05
-9.80616e-13
1.46394e-05
-6.45635e-13
1.46394e-05
3.7044e-14
1.46394e-05
6.21353e-13
1.46394e-05
7.14742e-13
1.46394e-05
3.15469e-13
1.46394e-05
-2.1088e-13
1.46394e-05
-4.89219e-13
1.46394e-05
-4.43004e-13
1.46394e-05
-2.91154e-13
1.46394e-05
-2.28351e-13
1.46394e-05
-1.87422e-13
1.46394e-05
4.32559e-14
1.46394e-05
4.73735e-13
1.46394e-05
7.54291e-13
1.46394e-05
5.28372e-13
1.46394e-05
-9.73905e-14
1.46394e-05
-3.68752e-13
1.46394e-05
4.15335e-13
1.46394e-05
2.16985e-12
1.46394e-05
4.01813e-12
1.46394e-05
4.79073e-12
4.05145e-12
2.0465e-05
5.13996e-13
2.0465e-05
7.5131e-13
2.0465e-05
1.297e-12
2.0465e-05
1.07746e-12
2.0465e-05
3.70337e-13
2.0465e-05
2.13281e-13
2.0465e-05
8.95527e-13
2.0465e-05
1.89698e-12
2.0465e-05
2.16836e-12
2.0465e-05
1.46144e-12
2.0465e-05
1.89082e-13
2.0465e-05
-8.56462e-13
2.0465e-05
-1.15996e-12
2.0465e-05
-7.95151e-13
2.0465e-05
-1.83822e-13
2.0465e-05
2.86745e-13
2.0465e-05
5.25911e-13
2.0465e-05
6.20855e-13
2.0465e-05
6.68621e-13
2.0465e-05
6.18295e-13
2.0465e-05
3.57872e-13
2.0465e-05
-1.31307e-13
2.0465e-05
-6.36745e-13
2.0465e-05
-8.22588e-13
2.0465e-05
-4.88829e-13
2.0465e-05
2.26924e-13
2.0465e-05
9.08209e-13
2.0465e-05
1.10971e-12
2.0465e-05
7.39182e-13
2.0465e-05
8.88118e-14
2.0465e-05
-4.26025e-13
2.0465e-05
-5.34445e-13
2.0465e-05
-3.20304e-13
2.0465e-05
-3.37657e-14
2.0465e-05
1.40475e-13
2.0465e-05
2.08342e-13
2.0465e-05
2.57402e-13
2.0465e-05
2.98951e-13
2.0465e-05
2.36613e-13
2.0465e-05
2.68999e-15
2.0465e-05
-3.0678e-13
2.0465e-05
-4.55785e-13
2.0465e-05
-2.83274e-13
2.0465e-05
1.3512e-13
2.0465e-05
5.09179e-13
2.0465e-05
5.67354e-13
2.0465e-05
2.67667e-13
2.0465e-05
-1.85527e-13
2.0465e-05
-5.17937e-13
2.0465e-05
-5.93958e-13
2.0465e-05
-4.50682e-13
2.0465e-05
-1.89615e-13
2.0465e-05
1.17759e-13
2.0465e-05
4.10002e-13
2.0465e-05
5.63197e-13
2.0465e-05
4.25707e-13
2.0465e-05
-3.04054e-14
2.0465e-05
-5.87559e-13
2.0465e-05
-8.6949e-13
2.0465e-05
-6.55751e-13
2.0465e-05
-8.31157e-14
2.0465e-05
4.34113e-13
2.0465e-05
5.51509e-13
2.0465e-05
2.82597e-13
2.0465e-05
-6.81411e-14
2.0465e-05
-2.3252e-13
2.0465e-05
-2.20469e-13
2.0465e-05
-2.26018e-13
2.0465e-05
-3.25803e-13
2.0465e-05
-3.17248e-13
2.0465e-05
5.33841e-14
2.0465e-05
7.24936e-13
2.0465e-05
1.21715e-12
2.0465e-05
1.13656e-12
2.0465e-05
7.07885e-13
2.0465e-05
7.70432e-13
2.0465e-05
1.87944e-12
2.0465e-05
3.60421e-12
2.0465e-05
4.61075e-12
4.09941e-12
2.33714e-05
3.06474e-12
2.33714e-05
3.96224e-12
2.33714e-05
4.61254e-12
2.33714e-05
3.88314e-12
2.33714e-05
2.15088e-12
2.33714e-05
4.94927e-13
2.33714e-05
-1.35818e-13
2.33714e-05
3.87131e-13
2.33714e-05
1.3662e-12
2.33714e-05
1.80734e-12
2.33714e-05
1.37195e-12
2.33714e-05
3.65892e-13
2.33714e-05
-5.51065e-13
2.33714e-05
-9.45227e-13
2.33714e-05
-8.23825e-13
2.33714e-05
-4.70593e-13
2.33714e-05
-1.31726e-13
2.33714e-05
1.3861e-13
2.33714e-05
4.02564e-13
2.33714e-05
6.67349e-13
2.33714e-05
7.96624e-13
2.33714e-05
6.07658e-13
2.33714e-05
7.14839e-14
2.33714e-05
-5.67149e-13
2.33714e-05
-9.18054e-13
2.33714e-05
-7.12558e-13
2.33714e-05
-4.37302e-14
2.33714e-05
6.64103e-13
2.33714e-05
9.77738e-13
2.33714e-05
7.56333e-13
2.33714e-05
2.29287e-13
2.33714e-05
-2.33757e-13
2.33714e-05
-4.03604e-13
2.33714e-05
-3.27647e-13
2.33714e-05
-1.82175e-13
2.33714e-05
-6.97578e-14
2.33714e-05
4.0748e-14
2.33714e-05
2.01382e-13
2.33714e-05
3.50429e-13
2.33714e-05
3.35606e-13
2.33714e-05
8.04618e-14
2.33714e-05
-2.8579e-13
2.33714e-05
-4.93716e-13
2.33714e-05
-3.548e-13
2.33714e-05
6.2239e-14
2.33714e-05
4.71635e-13
2.33714e-05
5.99808e-13
2.33714e-05
3.85105e-13
2.33714e-05
-7.52904e-15
2.33714e-05
-3.55394e-13
2.33714e-05
-5.35651e-13
2.33714e-05
-5.38026e-13
2.33714e-05
-3.79113e-13
2.33714e-05
-6.36062e-14
2.33714e-05
3.44875e-13
2.33714e-05
6.54168e-13
2.33714e-05
6.26467e-13
2.33714e-05
1.93621e-13
2.33714e-05
-4.08018e-13
2.33714e-05
-7.76197e-13
2.33714e-05
-6.55286e-13
2.33714e-05
-1.68042e-13
2.33714e-05
2.98842e-13
2.33714e-05
4.41276e-13
2.33714e-05
2.8181e-13
2.33714e-05
7.72899e-14
2.33714e-05
4.75012e-15
2.33714e-05
-1.77559e-14
2.33714e-05
-1.67817e-13
2.33714e-05
-4.02367e-13
2.33714e-05
-3.88009e-13
2.33714e-05
1.45718e-13
2.33714e-05
1.06372e-12
2.33714e-05
1.73869e-12
2.33714e-05
1.69459e-12
2.33714e-05
1.35654e-12
2.33714e-05
1.42173e-12
2.33714e-05
2.06083e-12
2.33714e-05
2.64188e-12
2.59105e-12
2.33714e-05
4.77184e-12
2.33714e-05
5.78883e-12
2.33714e-05
6.15551e-12
2.33714e-05
5.40348e-12
2.33714e-05
3.7331e-12
2.33714e-05
1.60772e-12
2.33714e-05
-1.62188e-13
2.33714e-05
-8.12655e-13
2.33714e-05
-3.0877e-13
2.33714e-05
6.50614e-13
2.33714e-05
1.24164e-12
2.33714e-05
1.09517e-12
2.33714e-05
4.43256e-13
2.33714e-05
-2.30875e-13
2.33714e-05
-6.0187e-13
2.33714e-05
-6.5898e-13
2.33714e-05
-5.65643e-13
2.33714e-05
-4.36128e-13
2.33714e-05
-2.44436e-13
2.33714e-05
7.83414e-14
2.33714e-05
4.9465e-13
2.33714e-05
7.98209e-13
2.33714e-05
7.43158e-13
2.33714e-05
2.64367e-13
2.33714e-05
-4.11223e-13
2.33714e-05
-8.64774e-13
2.33714e-05
-7.97918e-13
2.33714e-05
-2.62727e-13
2.33714e-05
3.76785e-13
2.33714e-05
7.23496e-13
2.33714e-05
6.3401e-13
2.33714e-05
2.80347e-13
2.33714e-05
-6.24699e-14
2.33714e-05
-2.20587e-13
2.33714e-05
-2.41845e-13
2.33714e-05
-2.26454e-13
2.33714e-05
-1.95153e-13
2.33714e-05
-7.83675e-14
2.33714e-05
1.51371e-13
2.33714e-05
3.77368e-13
2.33714e-05
4.06179e-13
2.33714e-05
1.52339e-13
2.33714e-05
-2.43824e-13
2.33714e-05
-4.97863e-13
2.33714e-05
-4.14386e-13
2.33714e-05
-4.28742e-14
2.33714e-05
3.63668e-13
2.33714e-05
5.55207e-13
2.33714e-05
4.62166e-13
2.33714e-05
1.88501e-13
2.33714e-05
-1.19055e-13
2.33714e-05
-3.71919e-13
2.33714e-05
-5.22672e-13
2.33714e-05
-5.0019e-13
2.33714e-05
-2.34898e-13
2.33714e-05
2.21658e-13
2.33714e-05
6.3323e-13
2.33714e-05
7.10097e-13
2.33714e-05
3.54573e-13
2.33714e-05
-2.11683e-13
2.33714e-05
-5.91605e-13
2.33714e-05
-5.48598e-13
2.33714e-05
-1.90696e-13
2.33714e-05
1.61195e-13
2.33714e-05
2.77409e-13
2.33714e-05
2.18876e-13
2.33714e-05
1.82643e-13
2.33714e-05
2.26081e-13
2.33714e-05
1.8293e-13
2.33714e-05
-9.76768e-14
2.33714e-05
-4.47702e-13
2.33714e-05
-4.29071e-13
2.33714e-05
2.16698e-13
2.33714e-05
1.21419e-12
2.33714e-05
1.87231e-12
2.33714e-05
1.72092e-12
2.33714e-05
1.14433e-12
2.33714e-05
5.71876e-13
2.33714e-05
2.70773e-13
5.08698e-13
2.0465e-05
4.67286e-12
2.0465e-05
5.27754e-12
2.0465e-05
5.06204e-12
2.0465e-05
4.5269e-12
2.0465e-05
3.77745e-12
2.0465e-05
2.38889e-12
2.0465e-05
5.404e-13
2.0465e-05
-9.53106e-13
2.0465e-05
-1.4409e-12
2.0465e-05
-8.91653e-13
2.0465e-05
9.23813e-14
2.0465e-05
8.05844e-13
2.0465e-05
9.34399e-13
2.0465e-05
6.02005e-13
2.0465e-05
1.39778e-13
2.0465e-05
-2.25227e-13
2.0465e-05
-4.69689e-13
2.0465e-05
-6.42841e-13
2.0465e-05
-7.27048e-13
2.0465e-05
-6.12729e-13
2.0465e-05
-2.18962e-13
2.0465e-05
3.58225e-13
2.0465e-05
8.32638e-13
2.0465e-05
8.91946e-13
2.0465e-05
4.40313e-13
2.0465e-05
-2.7881e-13
2.0465e-05
-8.21661e-13
2.0465e-05
-8.7638e-13
2.0465e-05
-4.5656e-13
2.0465e-05
1.16607e-13
2.0465e-05
4.89997e-13
2.0465e-05
5.30127e-13
2.0465e-05
3.43047e-13
2.0465e-05
1.25025e-13
2.0465e-05
-3.41198e-14
2.0465e-05
-1.50604e-13
2.0465e-05
-2.59485e-13
2.0465e-05
-2.96135e-13
2.0465e-05
-1.61575e-13
2.0465e-05
1.35324e-13
2.0465e-05
4.20096e-13
2.0465e-05
4.65588e-13
2.0465e-05
1.87005e-13
2.0465e-05
-2.45561e-13
2.0465e-05
-5.42519e-13
2.0465e-05
-4.96823e-13
2.0465e-05
-1.48259e-13
2.0465e-05
2.74152e-13
2.0465e-05
5.48375e-13
2.0465e-05
5.82373e-13
2.0465e-05
4.13369e-13
2.0465e-05
1.16176e-13
2.0465e-05
-2.41744e-13
2.0465e-05
-5.52155e-13
2.0465e-05
-6.49892e-13
2.0465e-05
-4.07393e-13
2.0465e-05
1.07896e-13
2.0465e-05
6.09813e-13
2.0465e-05
7.68376e-13
2.0465e-05
4.72957e-13
2.0465e-05
-4.41469e-14
2.0465e-05
-4.21581e-13
2.0465e-05
-4.46859e-13
2.0465e-05
-2.18986e-13
2.0465e-05
8.10195e-15
2.0465e-05
1.1062e-13
2.0465e-05
1.68462e-13
2.0465e-05
2.99283e-13
2.0465e-05
4.21722e-13
2.0465e-05
2.98936e-13
2.0465e-05
-1.43622e-13
2.0465e-05
-5.90305e-13
2.0465e-05
-5.35898e-13
2.0465e-05
1.84523e-13
2.0465e-05
1.11781e-12
2.0465e-05
1.53021e-12
2.0465e-05
1.03041e-12
2.0465e-05
-1.52143e-13
2.0465e-05
-1.15518e-12
-9.37426e-13
1.46394e-05
2.58973e-12
1.46394e-05
2.6496e-12
1.46394e-05
2.20315e-12
1.46394e-05
2.17193e-12
1.46394e-05
2.61269e-12
1.46394e-05
2.40563e-12
1.46394e-05
1.33192e-12
1.46394e-05
-2.91987e-13
1.46394e-05
-1.52209e-12
1.46394e-05
-1.78587e-12
1.46394e-05
-1.10161e-12
1.46394e-05
-3.64864e-14
1.46394e-05
7.93267e-13
1.46394e-05
1.05739e-12
1.46394e-05
8.64588e-13
1.46394e-05
4.43054e-13
1.46394e-05
-2.67239e-14
1.46394e-05
-4.77738e-13
1.46394e-05
-8.49337e-13
1.46394e-05
-1.01882e-12
1.46394e-05
-8.3494e-13
1.46394e-05
-2.70448e-13
1.46394e-05
4.87459e-13
1.46394e-05
1.03392e-12
1.46394e-05
1.04979e-12
1.46394e-05
4.97085e-13
1.46394e-05
-3.21349e-13
1.46394e-05
-8.96989e-13
1.46394e-05
-9.54757e-13
1.46394e-05
-5.33519e-13
1.46394e-05
4.2796e-14
1.46394e-05
4.63792e-13
1.46394e-05
5.82419e-13
1.46394e-05
4.86736e-13
1.46394e-05
3.03082e-13
1.46394e-05
9.69461e-14
1.46394e-05
-1.32913e-13
1.46394e-05
-3.17002e-13
1.46394e-05
-3.52812e-13
1.46394e-05
-1.55463e-13
1.46394e-05
2.02781e-13
1.46394e-05
4.78726e-13
1.46394e-05
4.5084e-13
1.46394e-05
9.28937e-14
1.46394e-05
-3.86534e-13
1.46394e-05
-6.66054e-13
1.46394e-05
-5.7028e-13
1.46394e-05
-1.66688e-13
1.46394e-05
3.19782e-13
1.46394e-05
6.5786e-13
1.46394e-05
7.38402e-13
1.46394e-05
5.54238e-13
1.46394e-05
1.59556e-13
1.46394e-05
-3.42744e-13
1.46394e-05
-7.5398e-13
1.46394e-05
-8.49209e-13
1.46394e-05
-5.15036e-13
1.46394e-05
1.02653e-13
1.46394e-05
6.57263e-13
1.46394e-05
7.97711e-13
1.46394e-05
4.83169e-13
1.46394e-05
-2.61816e-14
1.46394e-05
-3.95716e-13
1.46394e-05
-4.46944e-13
1.46394e-05
-2.99237e-13
1.46394e-05
-1.30067e-13
1.46394e-05
7.2156e-15
1.46394e-05
1.83859e-13
1.46394e-05
4.00638e-13
1.46394e-05
4.67191e-13
1.46394e-05
1.70385e-13
1.46394e-05
-4.23162e-13
1.46394e-05
-8.41208e-13
1.46394e-05
-6.25581e-13
1.46394e-05
1.79848e-13
1.46394e-05
9.88093e-13
1.46394e-05
1.06851e-12
1.46394e-05
2.20288e-13
1.46394e-05
-8.52421e-13
-9.34769e-13
5.87096e-06
5.87097e-06
5.87097e-06
5.87097e-06
5.87097e-06
5.87097e-06
5.87097e-06
5.87097e-06
5.87098e-06
5.87098e-06
5.87098e-06
5.87098e-06
5.87097e-06
5.87097e-06
5.87097e-06
5.87097e-06
5.87098e-06
5.87098e-06
5.87098e-06
5.87098e-06
5.87098e-06
5.87098e-06
5.87098e-06
5.87098e-06
5.87098e-06
5.87098e-06
5.87098e-06
5.87098e-06
5.87098e-06
5.87098e-06
5.87098e-06
5.87098e-06
5.87098e-06
5.87098e-06
5.87098e-06
5.87098e-06
5.87098e-06
5.87098e-06
5.87098e-06
5.87098e-06
5.87098e-06
5.87098e-06
5.87098e-06
5.87098e-06
5.87098e-06
5.87098e-06
5.87098e-06
5.87098e-06
5.87098e-06
5.87098e-06
5.87098e-06
5.87098e-06
5.87098e-06
5.87098e-06
5.87098e-06
5.87098e-06
5.87098e-06
5.87098e-06
5.87098e-06
5.87098e-06
5.87098e-06
5.87098e-06
5.87098e-06
5.87098e-06
5.87098e-06
5.87098e-06
5.87098e-06
5.87098e-06
5.87098e-06
5.87097e-06
5.87097e-06
5.87098e-06
5.87098e-06
5.87098e-06
5.87098e-06
5.87098e-06
5.87097e-06
5.87097e-06
5.87097e-06
)
;

boundaryField
{
    inlet
    {
        type            calculated;
        value           nonuniform List<scalar> 8(-5.87097e-06 -1.46394e-05 -2.0465e-05 -2.33714e-05 -2.33714e-05 -2.0465e-05 -1.46393e-05 -5.87096e-06);
    }
    outlet
    {
        type            calculated;
        value           nonuniform List<scalar> 8(5.87097e-06 1.46394e-05 2.0465e-05 2.33714e-05 2.33714e-05 2.0465e-05 1.46394e-05 5.87097e-06);
    }
    walls
    {
        type            calculated;
        value           uniform 0;
    }
    frontAndBack
    {
        type            empty;
    }
}


// ************************************************************************* //
