/*--------------------------------*- C++ -*----------------------------------*\
| =========                 |                                                 |
| \\      /  F ield         | OpenFOAM: The Open Source CFD Toolbox           |
|  \\    /   O peration     | Version:  2406                                  |
|   \\  /    A nd           | Website:  www.openfoam.com                      |
|    \\/     M anipulation  |                                                 |
\*---------------------------------------------------------------------------*/
FoamFile
{
    version     2.0;
    format      ascii;
    arch        "LSB;label=32;scalar=64";
    class       volVectorField;
    location    "0.4";
    object      U;
}
// * * * * * * * * * * * * * * * * * * * * * * * * * * * * * * * * * * * * * //

dimensions      [0 1 -1 0 0 0 0];

internalField   nonuniform List<vector> 
640
(
(0.0469677 -8.00442e-09 0)
(0.0469678 -1.1164e-08 0)
(0.0469678 -9.54758e-09 0)
(0.0469678 -4.33869e-09 0)
(0.0469678 2.25049e-09 0)
(0.0469678 8.0531e-09 0)
(0.0469678 9.72063e-09 0)
(0.0469678 5.7037e-09 0)
(0.0469678 -1.62382e-09 0)
(0.0469678 -7.4773e-09 0)
(0.0469678 -8.40314e-09 0)
(0.0469678 -4.5714e-09 0)
(0.0469678 9.27501e-10 0)
(0.0469678 4.8844e-09 0)
(0.0469678 5.84012e-09 0)
(0.0469678 4.39611e-09 0)
(0.0469678 1.9956e-09 0)
(0.0469678 -3.62915e-10 0)
(0.0469678 -2.38791e-09 0)
(0.0469678 -3.98047e-09 0)
(0.0469678 -4.64175e-09 0)
(0.0469678 -3.63495e-09 0)
(0.0469678 -7.67421e-10 0)
(0.0469678 2.90654e-09 0)
(0.0469678 5.56162e-09 0)
(0.0469678 5.45575e-09 0)
(0.0469678 2.43003e-09 0)
(0.0469678 -1.76704e-09 0)
(0.0469678 -4.65325e-09 0)
(0.0469678 -4.71048e-09 0)
(0.0469678 -2.32635e-09 0)
(0.0469678 7.01714e-10 0)
(0.0469678 2.70402e-09 0)
(0.0469678 3.09559e-09 0)
(0.0469678 2.41415e-09 0)
(0.0469678 1.41497e-09 0)
(0.0469678 4.05046e-10 0)
(0.0469678 -6.49658e-10 0)
(0.0469678 -1.573e-09 0)
(0.0469678 -1.80277e-09 0)
(0.0469678 -8.83205e-10 0)
(0.0469678 8.2644e-10 0)
(0.0469678 2.18812e-09 0)
(0.0469678 2.06196e-09 0)
(0.0469678 3.27466e-10 0)
(0.0469678 -1.9359e-09 0)
(0.0469678 -3.21533e-09 0)
(0.0469678 -2.66628e-09 0)
(0.0469678 -6.85126e-10 0)
(0.0469678 1.56075e-09 0)
(0.0469678 3.05776e-09 0)
(0.0469678 3.34293e-09 0)
(0.0469678 2.41836e-09 0)
(0.0469678 5.05558e-10 0)
(0.0469678 -1.9053e-09 0)
(0.0469678 -3.92461e-09 0)
(0.0469678 -4.33193e-09 0)
(0.0469678 -2.51549e-09 0)
(0.0469678 7.22676e-10 0)
(0.0469678 3.44883e-09 0)
(0.0469678 3.89805e-09 0)
(0.0469678 1.9178e-09 0)
(0.0469678 -8.9695e-10 0)
(0.0469678 -2.66451e-09 0)
(0.0469678 -2.60997e-09 0)
(0.0469678 -1.49646e-09 0)
(0.0469678 -5.12308e-10 0)
(0.0469678 1.18367e-11 0)
(0.0469678 6.45201e-10 0)
(0.0469678 1.6261e-09 0)
(0.0469678 2.06417e-09 0)
(0.0469678 7.27763e-10 0)
(0.0469678 -2.15596e-09 0)
(0.0469678 -4.24539e-09 0)
(0.0469678 -2.87877e-09 0)
(0.0469678 1.92098e-09 0)
(0.0469678 7.34379e-09 0)
(0.0469678 1.07929e-08 0)
(0.0469678 1.16672e-08 0)
(0.0469677 9.66378e-09 0)
(0.117115 -1.59842e-08 0)
(0.117115 -2.15542e-08 0)
(0.117115 -1.81542e-08 0)
(0.117115 -9.84498e-09 0)
(0.117115 7.7401e-10 0)
(0.117115 1.23029e-08 0)
(0.117115 1.90358e-08 0)
(0.117115 1.59942e-08 0)
(0.117115 4.33597e-09 0)
(0.117115 -8.46718e-09 0)
(0.117115 -1.4555e-08 0)
(0.117115 -1.13039e-08 0)
(0.117115 -2.46528e-09 0)
(0.117115 5.90562e-09 0)
(0.117115 9.79906e-09 0)
(0.117115 9.02264e-09 0)
(0.117115 5.76869e-09 0)
(0.117115 2.08449e-09 0)
(0.117115 -1.33419e-09 0)
(0.117115 -4.52276e-09 0)
(0.117115 -7.00267e-09 0)
(0.117115 -7.25607e-09 0)
(0.117115 -4.00631e-09 0)
(0.117115 2.12266e-09 0)
(0.117115 8.335e-09 0)
(0.117115 1.08847e-08 0)
(0.117115 7.87262e-09 0)
(0.117115 9.6057e-10 0)
(0.117115 -5.65048e-09 0)
(0.117115 -8.16563e-09 0)
(0.117115 -5.737e-09 0)
(0.117115 -7.38176e-10 0)
(0.117115 3.52741e-09 0)
(0.117115 5.19971e-09 0)
(0.117115 4.64921e-09 0)
(0.117115 3.2169e-09 0)
(0.117115 1.6749e-09 0)
(0.117115 -7.07439e-11 0)
(0.117115 -2.03801e-09 0)
(0.117115 -3.35095e-09 0)
(0.117115 -2.74796e-09 0)
(0.117115 -5.25574e-11 0)
(0.117115 3.14987e-09 0)
(0.117115 4.43735e-09 0)
(0.117115 2.53674e-09 0)
(0.117115 -1.50904e-09 0)
(0.117115 -5.04345e-09 0)
(0.117115 -5.77002e-09 0)
(0.117115 -3.43889e-09 0)
(0.117115 3.41735e-10 0)
(0.117115 3.62942e-09 0)
(0.117115 5.25637e-09 0)
(0.117115 4.90725e-09 0)
(0.117115 2.63067e-09 0)
(0.117115 -1.22733e-09 0)
(0.117115 -5.53449e-09 0)
(0.117115 -8.07323e-09 0)
(0.117115 -6.82454e-09 0)
(0.117115 -1.90618e-09 0)
(0.117115 3.89222e-09 0)
(0.117115 6.81222e-09 0)
(0.117115 5.06103e-09 0)
(0.117115 3.54143e-10 0)
(0.117115 -3.76817e-09 0)
(0.117115 -4.90475e-09 0)
(0.117115 -3.52398e-09 0)
(0.117115 -1.79356e-09 0)
(0.117115 -9.19591e-10 0)
(0.117115 -5.2915e-11 0)
(0.117115 1.94804e-09 0)
(0.117115 4.14528e-09 0)
(0.117115 3.78819e-09 0)
(0.117115 -3.5209e-10 0)
(0.117115 -5.13932e-09 0)
(0.117115 -4.80037e-09 0)
(0.117115 3.64275e-09 0)
(0.117115 1.69605e-08 0)
(0.117115 2.84872e-08 0)
(0.117115 3.27378e-08 0)
(0.117115 2.76413e-08 0)
(0.16372 -6.80471e-09 0)
(0.16372 -8.20078e-09 0)
(0.16372 -3.78406e-09 0)
(0.16372 -1.51663e-09 0)
(0.16372 -4.13019e-10 0)
(0.16372 4.37849e-09 0)
(0.16372 1.20806e-08 0)
(0.16372 1.6936e-08 0)
(0.16372 1.44381e-08 0)
(0.16372 5.3345e-09 0)
(0.16372 -4.5749e-09 0)
(0.16372 -9.43641e-09 0)
(0.16372 -7.75655e-09 0)
(0.16372 -2.35414e-09 0)
(0.16372 2.73138e-09 0)
(0.16372 5.26965e-09 0)
(0.16372 5.4973e-09 0)
(0.16372 4.80736e-09 0)
(0.16372 3.88529e-09 0)
(0.16372 2.34911e-09 0)
(0.16372 -3.63848e-10 0)
(0.16372 -3.61029e-09 0)
(0.16372 -5.48569e-09 0)
(0.16372 -4.14986e-09 0)
(0.16372 4.13657e-10 0)
(0.16372 5.83565e-09 0)
(0.16372 8.69916e-09 0)
(0.16372 7.16021e-09 0)
(0.16372 2.29792e-09 0)
(0.16372 -2.64149e-09 0)
(0.16372 -4.70982e-09 0)
(0.16372 -3.43111e-09 0)
(0.16372 -5.6726e-10 0)
(0.16372 1.69841e-09 0)
(0.16372 2.49802e-09 0)
(0.16372 2.39386e-09 0)
(0.16372 2.1647e-09 0)
(0.16372 1.77054e-09 0)
(0.16372 5.90707e-10 0)
(0.16372 -1.38085e-09 0)
(0.16372 -2.97406e-09 0)
(0.16372 -2.72333e-09 0)
(0.16372 -3.27208e-10 0)
(0.16372 2.71446e-09 0)
(0.16372 4.16215e-09 0)
(0.16372 2.81261e-09 0)
(0.16372 -4.73118e-10 0)
(0.16372 -3.52999e-09 0)
(0.16372 -4.64762e-09 0)
(0.16372 -3.64944e-09 0)
(0.16372 -1.50433e-09 0)
(0.16372 7.61758e-10 0)
(0.16372 2.59718e-09 0)
(0.16372 3.56723e-09 0)
(0.16372 2.99223e-09 0)
(0.16372 3.97035e-10 0)
(0.16372 -3.44962e-09 0)
(0.16372 -6.32047e-09 0)
(0.16372 -6.04106e-09 0)
(0.16372 -2.40054e-09 0)
(0.16372 2.21432e-09 0)
(0.16372 4.57362e-09 0)
(0.16372 3.37151e-09 0)
(0.16372 1.52379e-10 0)
(0.16372 -2.34276e-09 0)
(0.16372 -2.74357e-09 0)
(0.16372 -2.01187e-09 0)
(0.16372 -1.78857e-09 0)
(0.16372 -2.08033e-09 0)
(0.16372 -1.12204e-09 0)
(0.16372 2.12096e-09 0)
(0.16372 5.85325e-09 0)
(0.16372 6.80555e-09 0)
(0.16372 4.06551e-09 0)
(0.16372 1.51549e-09 0)
(0.16372 5.33639e-09 0)
(0.16372 1.769e-08 0)
(0.16372 3.29371e-08 0)
(0.16372 4.06261e-08 0)
(0.16372 3.56378e-08 0)
(0.186971 1.41545e-08 0)
(0.186971 1.87923e-08 0)
(0.186971 2.40572e-08 0)
(0.186971 2.02328e-08 0)
(0.186971 1.03733e-08 0)
(0.186971 3.03986e-09 0)
(0.186971 3.37311e-09 0)
(0.186971 9.21359e-09 0)
(0.186971 1.42049e-08 0)
(0.186971 1.31946e-08 0)
(0.186971 6.24983e-09 0)
(0.186971 -2.0251e-09 0)
(0.186971 -6.90356e-09 0)
(0.186971 -6.96834e-09 0)
(0.186971 -3.97902e-09 0)
(0.186971 -6.35312e-10 0)
(0.186971 1.62321e-09 0)
(0.186971 3.03461e-09 0)
(0.186971 4.26453e-09 0)
(0.186971 5.13213e-09 0)
(0.186971 4.61264e-09 0)
(0.186971 1.89386e-09 0)
(0.186971 -2.28558e-09 0)
(0.186971 -5.5933e-09 0)
(0.186971 -5.64249e-09 0)
(0.186971 -1.88696e-09 0)
(0.186971 3.51142e-09 0)
(0.186971 7.15955e-09 0)
(0.186971 6.89599e-09 0)
(0.186971 3.31064e-09 0)
(0.186971 -8.6598e-10 0)
(0.186971 -3.11977e-09 0)
(0.186971 -2.91082e-09 0)
(0.186971 -1.43186e-09 0)
(0.186971 -1.41781e-10 0)
(0.186971 5.6624e-10 0)
(0.186971 1.19242e-09 0)
(0.186971 1.99814e-09 0)
(0.186971 2.34618e-09 0)
(0.186971 1.33378e-09 0)
(0.186971 -9.39371e-10 0)
(0.186971 -3.01455e-09 0)
(0.186971 -3.14936e-09 0)
(0.186971 -8.97384e-10 0)
(0.186971 2.29334e-09 0)
(0.186971 4.17465e-09 0)
(0.186971 3.46921e-09 0)
(0.186971 7.75541e-10 0)
(0.186971 -2.13936e-09 0)
(0.186971 -3.82183e-09 0)
(0.186971 -3.95351e-09 0)
(0.186971 -2.90758e-09 0)
(0.186971 -1.03456e-09 0)
(0.186971 1.40296e-09 0)
(0.186971 3.65108e-09 0)
(0.186971 4.33782e-09 0)
(0.186971 2.37318e-09 0)
(0.186971 -1.60789e-09 0)
(0.186971 -5.16508e-09 0)
(0.186971 -5.76779e-09 0)
(0.186971 -2.93921e-09 0)
(0.186971 1.12135e-09 0)
(0.186971 3.45337e-09 0)
(0.186971 2.91423e-09 0)
(0.186971 8.2686e-10 0)
(0.186971 -6.4914e-10 0)
(0.186971 -8.48112e-10 0)
(0.186971 -9.46294e-10 0)
(0.186971 -1.97622e-09 0)
(0.186971 -2.89858e-09 0)
(0.186971 -1.30672e-09 0)
(0.186971 3.55968e-09 0)
(0.186971 9.0699e-09 0)
(0.186971 1.14519e-08 0)
(0.186971 1.01182e-08 0)
(0.186971 9.23537e-09 0)
(0.186971 1.42032e-08 0)
(0.186971 2.44409e-08 0)
(0.186971 3.11798e-08 0)
(0.186971 2.88926e-08 0)
(0.186971 3.42924e-08 0)
(0.186971 4.23123e-08 0)
(0.186971 4.64635e-08 0)
(0.186971 3.99581e-08 0)
(0.186971 2.53553e-08 0)
(0.186971 9.3156e-09 0)
(0.186971 -7.10638e-10 0)
(0.186971 -1.31565e-09 0)
(0.186971 4.42137e-09 0)
(0.186971 1.00288e-08 0)
(0.186971 1.04952e-08 0)
(0.186971 5.72779e-09 0)
(0.186971 -6.21655e-10 0)
(0.186971 -4.86966e-09 0)
(0.186971 -5.77609e-09 0)
(0.186971 -4.50101e-09 0)
(0.186971 -2.73413e-09 0)
(0.186971 -1.15611e-09 0)
(0.186971 6.30834e-10 0)
(0.186971 2.94933e-09 0)
(0.186971 5.10813e-09 0)
(0.186971 5.53705e-09 0)
(0.186971 3.15185e-09 0)
(0.186971 -1.34399e-09 0)
(0.186971 -5.41693e-09 0)
(0.186971 -6.34393e-09 0)
(0.186971 -3.33608e-09 0)
(0.186971 1.68442e-09 0)
(0.186971 5.47815e-09 0)
(0.186971 5.90157e-09 0)
(0.186971 3.344e-09 0)
(0.186971 6.0074e-11 0)
(0.186971 -1.94033e-09 0)
(0.186971 -2.2259e-09 0)
(0.186971 -1.68269e-09 0)
(0.186971 -1.1507e-09 0)
(0.186971 -5.84964e-10 0)
(0.186971 5.19012e-10 0)
(0.186971 2.03036e-09 0)
(0.186971 2.86101e-09 0)
(0.186971 1.92896e-09 0)
(0.186971 -5.76742e-10 0)
(0.186971 -2.99539e-09 0)
(0.186971 -3.42667e-09 0)
(0.186971 -1.38931e-09 0)
(0.186971 1.76087e-09 0)
(0.186971 3.88294e-09 0)
(0.186971 3.74912e-09 0)
(0.186971 1.77253e-09 0)
(0.186971 -7.1344e-10 0)
(0.186971 -2.63218e-09 0)
(0.186971 -3.61228e-09 0)
(0.186971 -3.54889e-09 0)
(0.186971 -2.17745e-09 0)
(0.186971 5.2137e-10 0)
(0.186971 3.57401e-09 0)
(0.186971 5.07573e-09 0)
(0.186971 3.60033e-09 0)
(0.186971 -2.72666e-10 0)
(0.186971 -4.00733e-09 0)
(0.186971 -4.9951e-09 0)
(0.186971 -2.80145e-09 0)
(0.186971 5.36218e-10 0)
(0.186971 2.48999e-09 0)
(0.186971 2.27275e-09 0)
(0.186971 1.17747e-09 0)
(0.186971 7.38606e-10 0)
(0.186971 8.49196e-10 0)
(0.186971 8.59388e-11 0)
(0.186971 -1.98203e-09 0)
(0.186971 -3.3077e-09 0)
(0.186971 -1.01162e-09 0)
(0.186971 5.15299e-09 0)
(0.186971 1.16837e-08 0)
(0.186971 1.43997e-08 0)
(0.186971 1.27136e-08 0)
(0.186971 1.03656e-08 0)
(0.186971 1.062e-08 0)
(0.186971 1.16935e-08 0)
(0.186971 1.23724e-08 0)
(0.16372 4.17557e-08 0)
(0.16372 4.85198e-08 0)
(0.16372 4.87986e-08 0)
(0.16372 4.27807e-08 0)
(0.16372 3.20091e-08 0)
(0.16372 1.68988e-08 0)
(0.16372 1.85658e-09 0)
(0.16372 -7.0402e-09 0)
(0.16372 -7.05831e-09 0)
(0.16372 -9.90854e-10 0)
(0.16372 5.33142e-09 0)
(0.16372 7.56975e-09 0)
(0.16372 5.41499e-09 0)
(0.16372 1.34597e-09 0)
(0.16372 -1.98056e-09 0)
(0.16372 -3.62942e-09 0)
(0.16372 -4.16988e-09 0)
(0.16372 -4.33825e-09 0)
(0.16372 -3.9353e-09 0)
(0.16372 -2.20967e-09 0)
(0.16372 1.02743e-09 0)
(0.16372 4.56895e-09 0)
(0.16372 6.25781e-09 0)
(0.16372 4.57197e-09 0)
(0.16372 5.03176e-11 0)
(0.16372 -4.65308e-09 0)
(0.16372 -6.56104e-09 0)
(0.16372 -4.6115e-09 0)
(0.16372 -3.30272e-10 0)
(0.16372 3.37053e-09 0)
(0.16372 4.47856e-09 0)
(0.16372 3.17791e-09 0)
(0.16372 1.0665e-09 0)
(0.16372 -4.43331e-10 0)
(0.16372 -1.11909e-09 0)
(0.16372 -1.50566e-09 0)
(0.16372 -1.80693e-09 0)
(0.16372 -1.49074e-09 0)
(0.16372 -2.87439e-11 0)
(0.16372 2.0826e-09 0)
(0.16372 3.34873e-09 0)
(0.16372 2.51456e-09 0)
(0.16372 -1.93193e-10 0)
(0.16372 -2.97949e-09 0)
(0.16372 -3.84429e-09 0)
(0.16372 -2.16449e-09 0)
(0.16372 8.68591e-10 0)
(0.16372 3.33924e-09 0)
(0.16372 4.06068e-09 0)
(0.16372 3.09788e-09 0)
(0.16372 1.1972e-09 0)
(0.16372 -9.93154e-10 0)
(0.16372 -3.01378e-09 0)
(0.16372 -4.17046e-09 0)
(0.16372 -3.50674e-09 0)
(0.16372 -7.048e-10 0)
(0.16372 3.02905e-09 0)
(0.16372 5.34514e-09 0)
(0.16372 4.54329e-09 0)
(0.16372 1.06703e-09 0)
(0.16372 -2.57083e-09 0)
(0.16372 -3.87973e-09 0)
(0.16372 -2.50893e-09 0)
(0.16372 -1.6463e-10 0)
(0.16372 1.22465e-09 0)
(0.16372 1.36277e-09 0)
(0.16372 1.42628e-09 0)
(0.16372 2.13985e-09 0)
(0.16372 2.48657e-09 0)
(0.16372 8.78925e-10 0)
(0.16372 -2.32778e-09 0)
(0.16372 -4.08144e-09 0)
(0.16372 -1.27476e-09 0)
(0.16372 5.49618e-09 0)
(0.16372 1.16319e-08 0)
(0.16372 1.26598e-08 0)
(0.16372 7.83569e-09 0)
(0.16372 2.70272e-10 0)
(0.16372 -5.42668e-09 0)
(0.16372 -3.6812e-09 0)
(0.117115 3.1763e-08 0)
(0.117115 3.43057e-08 0)
(0.117115 3.10545e-08 0)
(0.117115 2.79572e-08 0)
(0.117115 2.53687e-08 0)
(0.117115 1.87709e-08 0)
(0.117115 6.91193e-09 0)
(0.117115 -5.58459e-09 0)
(0.117115 -1.24695e-08 0)
(0.117115 -1.10594e-08 0)
(0.117115 -4.02549e-09 0)
(0.117115 3.33599e-09 0)
(0.117115 7.0994e-09 0)
(0.117115 6.75909e-09 0)
(0.117115 4.03311e-09 0)
(0.117115 8.21896e-10 0)
(0.117115 -2.08249e-09 0)
(0.117115 -4.60592e-09 0)
(0.117115 -6.4642e-09 0)
(0.117115 -6.68642e-09 0)
(0.117115 -4.30656e-09 0)
(0.117115 4.04863e-10 0)
(0.117115 5.42889e-09 0)
(0.117115 7.89097e-09 0)
(0.117115 6.04192e-09 0)
(0.117115 7.94223e-10 0)
(0.117115 -4.76033e-09 0)
(0.117115 -7.34635e-09 0)
(0.117115 -5.78622e-09 0)
(0.117115 -1.64875e-09 0)
(0.117115 2.28757e-09 0)
(0.117115 4.07898e-09 0)
(0.117115 3.74583e-09 0)
(0.117115 2.42793e-09 0)
(0.117115 1.04799e-09 0)
(0.117115 -2.63249e-10 0)
(0.117115 -1.59711e-09 0)
(0.117115 -2.50473e-09 0)
(0.117115 -2.08454e-09 0)
(0.117115 -3.57142e-11 0)
(0.117115 2.61341e-09 0)
(0.117115 3.93802e-09 0)
(0.117115 2.65674e-09 0)
(0.117115 -6.62495e-10 0)
(0.117115 -3.84119e-09 0)
(0.117115 -4.77947e-09 0)
(0.117115 -2.92953e-09 0)
(0.117115 4.95679e-10 0)
(0.117115 3.59504e-09 0)
(0.117115 5.09339e-09 0)
(0.117115 4.70938e-09 0)
(0.117115 2.7291e-09 0)
(0.117115 -3.66849e-10 0)
(0.117115 -3.68844e-09 0)
(0.117115 -5.76362e-09 0)
(0.117115 -5.12437e-09 0)
(0.117115 -1.58864e-09 0)
(0.117115 3.05209e-09 0)
(0.117115 5.90205e-09 0)
(0.117115 5.20175e-09 0)
(0.117115 1.70144e-09 0)
(0.117115 -1.95588e-09 0)
(0.117115 -3.47245e-09 0)
(0.117115 -2.70089e-09 0)
(0.117115 -1.12989e-09 0)
(0.117115 -4.01695e-11 0)
(0.117115 7.42528e-10 0)
(0.117115 2.00969e-09 0)
(0.117115 3.41416e-09 0)
(0.117115 3.15763e-09 0)
(0.117115 3.27255e-11 0)
(0.117115 -4.29954e-09 0)
(0.117115 -5.86705e-09 0)
(0.117115 -2.09256e-09 0)
(0.117115 4.91188e-09 0)
(0.117115 9.42978e-09 0)
(0.117115 7.16153e-09 0)
(0.117115 -1.47262e-09 0)
(0.117115 -1.03948e-08 0)
(0.117115 -9.87999e-09 0)
(0.0469677 1.1268e-08 0)
(0.0469677 1.12438e-08 0)
(0.0469678 8.90852e-09 0)
(0.0469678 8.09108e-09 0)
(0.0469678 8.77534e-09 0)
(0.0469678 8.23348e-09 0)
(0.0469678 4.41005e-09 0)
(0.0469678 -1.34307e-09 0)
(0.0469678 -5.86288e-09 0)
(0.0469678 -6.70155e-09 0)
(0.0469678 -4.00987e-09 0)
(0.0469678 1.17717e-11 0)
(0.0469678 2.95676e-09 0)
(0.0469678 3.8929e-09 0)
(0.0469678 3.15701e-09 0)
(0.0469678 1.63627e-09 0)
(0.0469678 -6.95108e-11 0)
(0.0469678 -1.69255e-09 0)
(0.0469678 -3.07356e-09 0)
(0.0469678 -3.74637e-09 0)
(0.0469678 -3.11123e-09 0)
(0.0469678 -1.01832e-09 0)
(0.0469678 1.79155e-09 0)
(0.0469678 3.86011e-09 0)
(0.0469678 3.91832e-09 0)
(0.0469678 1.84187e-09 0)
(0.0469678 -1.18613e-09 0)
(0.0469678 -3.37229e-09 0)
(0.0469678 -3.54955e-09 0)
(0.0469678 -1.93827e-09 0)
(0.0469678 2.53328e-10 0)
(0.0469678 1.73679e-09 0)
(0.0469678 2.12828e-09 0)
(0.0469678 1.7485e-09 0)
(0.0469678 1.08568e-09 0)
(0.0469678 3.50892e-10 0)
(0.0469678 -4.52809e-10 0)
(0.0469678 -1.16033e-09 0)
(0.0469678 -1.30871e-09 0)
(0.0469678 -5.68746e-10 0)
(0.0469678 7.92846e-10 0)
(0.0469678 1.86238e-09 0)
(0.0469678 1.7527e-09 0)
(0.0469678 3.65681e-10 0)
(0.0469678 -1.43919e-09 0)
(0.0469678 -2.49586e-09 0)
(0.0469678 -2.13594e-09 0)
(0.0469678 -6.16978e-10 0)
(0.0469678 1.17582e-09 0)
(0.0469678 2.41933e-09 0)
(0.0469678 2.72176e-09 0)
(0.0469678 2.0633e-09 0)
(0.0469678 6.05746e-10 0)
(0.0469678 -1.25115e-09 0)
(0.0469678 -2.80205e-09 0)
(0.0469678 -3.17216e-09 0)
(0.0469678 -1.91721e-09 0)
(0.0469678 4.41402e-10 0)
(0.0469678 2.47422e-09 0)
(0.0469678 2.96893e-09 0)
(0.0469678 1.73989e-09 0)
(0.0469678 -2.08662e-10 0)
(0.0469678 -1.50681e-09 0)
(0.0469678 -1.65541e-09 0)
(0.0469678 -1.078e-09 0)
(0.0469678 -4.68405e-10 0)
(0.0469678 8.93976e-12 0)
(0.0469678 6.68063e-10 0)
(0.0469678 1.51985e-09 0)
(0.0469678 1.79913e-09 0)
(0.0469678 6.42913e-10 0)
(0.0469678 -1.65001e-09 0)
(0.0469678 -3.33036e-09 0)
(0.0469678 -2.5938e-09 0)
(0.0469678 4.59074e-10 0)
(0.0469678 3.32398e-09 0)
(0.0469678 3.33381e-09 0)
(0.0469678 -1.90808e-10 0)
(0.0469678 -4.60092e-09 0)
(0.0469678 -4.80793e-09 0)
)
;

boundaryField
{
    inlet
    {
        type            zeroGradient;
    }
    outlet
    {
        type            zeroGradient;
    }
    walls
    {
        type            noSlip;
    }
    frontAndBack
    {
        type            empty;
    }
}


// ************************************************************************* //
