/*--------------------------------*- C++ -*----------------------------------*\
| =========                 |                                                 |
| \\      /  F ield         | OpenFOAM: The Open Source CFD Toolbox           |
|  \\    /   O peration     | Version:  2406                                  |
|   \\  /    A nd           | Website:  www.openfoam.com                      |
|    \\/     M anipulation  |                                                 |
\*---------------------------------------------------------------------------*/
FoamFile
{
    version     2.0;
    format      ascii;
    arch        "LSB;label=32;scalar=64";
    class       volScalarField;
    location    "1083";
    object      alphat;
}
// * * * * * * * * * * * * * * * * * * * * * * * * * * * * * * * * * * * * * //

dimensions      [0 2 -1 0 0 0 0];

internalField   nonuniform List<scalar> 
5619
(
4.56993e-05
4.57133e-05
4.57192e-05
4.57568e-05
4.58154e-05
4.58949e-05
4.59933e-05
4.61094e-05
4.62423e-05
4.63913e-05
4.65562e-05
4.67369e-05
4.69337e-05
4.71469e-05
4.73771e-05
4.76246e-05
4.789e-05
4.81738e-05
4.8476e-05
4.87965e-05
4.9134e-05
4.94858e-05
4.98478e-05
5.0214e-05
5.05781e-05
5.09348e-05
5.12828e-05
5.16272e-05
5.19805e-05
5.23616e-05
5.27923e-05
5.32912e-05
5.38694e-05
5.45273e-05
5.52553e-05
5.60358e-05
5.68472e-05
5.76664e-05
5.84715e-05
5.92425e-05
5.99619e-05
6.06154e-05
6.11908e-05
6.16789e-05
6.20724e-05
6.23665e-05
6.2558e-05
6.26458e-05
6.26302e-05
6.25131e-05
6.22977e-05
6.19879e-05
6.15888e-05
6.11059e-05
6.05453e-05
5.99128e-05
5.92298e-05
5.85142e-05
5.77751e-05
5.70205e-05
5.6257e-05
5.54909e-05
5.47273e-05
5.39705e-05
5.32243e-05
5.24917e-05
5.17749e-05
5.10758e-05
5.03957e-05
4.97357e-05
4.90962e-05
4.84776e-05
4.78799e-05
4.73029e-05
4.67463e-05
4.62097e-05
4.56925e-05
4.51939e-05
4.47134e-05
4.42502e-05
4.38034e-05
4.33723e-05
4.2956e-05
4.25538e-05
4.21648e-05
4.17882e-05
4.14232e-05
4.10691e-05
4.07251e-05
4.03905e-05
4.00644e-05
3.97464e-05
3.94356e-05
3.91314e-05
3.88331e-05
3.85403e-05
3.82522e-05
3.79683e-05
3.76881e-05
3.74109e-05
3.71367e-05
3.68369e-05
3.65112e-05
3.61595e-05
3.57826e-05
3.53818e-05
3.49593e-05
3.4518e-05
3.40615e-05
3.35941e-05
3.31204e-05
3.26455e-05
3.21745e-05
3.17124e-05
3.12638e-05
3.08326e-05
3.04222e-05
3.00352e-05
2.96732e-05
2.93373e-05
2.90278e-05
2.87444e-05
2.84863e-05
2.82524e-05
2.80415e-05
2.7852e-05
2.76823e-05
2.75308e-05
2.73961e-05
2.72637e-05
2.7133e-05
2.70033e-05
2.6874e-05
2.67444e-05
2.66141e-05
2.64825e-05
2.63493e-05
2.62139e-05
2.6076e-05
2.59353e-05
2.57914e-05
2.56441e-05
2.54933e-05
2.53388e-05
2.51806e-05
2.50187e-05
2.48532e-05
2.46843e-05
2.45123e-05
2.43377e-05
2.41609e-05
2.39827e-05
2.38039e-05
2.36252e-05
2.34479e-05
2.3273e-05
2.31019e-05
2.29358e-05
2.27762e-05
2.26245e-05
2.24821e-05
2.23503e-05
2.22303e-05
2.21231e-05
2.20296e-05
2.19502e-05
2.18852e-05
2.18344e-05
2.17975e-05
2.17737e-05
2.1762e-05
2.17614e-05
2.17708e-05
2.17889e-05
2.18148e-05
2.18481e-05
2.18907e-05
2.19475e-05
2.20294e-05
2.21558e-05
2.23559e-05
2.26663e-05
2.31177e-05
2.37046e-05
2.43128e-05
2.45255e-05
2.30393e-05
0.000138505
0.00013825
0.000138055
0.000137892
0.000137862
0.000137937
0.000138105
0.000138343
0.000138631
0.000138949
0.000139277
0.000139598
0.000139892
0.000140143
0.00014033
0.000140433
0.000140429
0.000140295
0.000140007
0.000139543
0.000138878
0.000137986
0.000136826
0.000135333
0.000133412
0.000130936
0.000127765
0.000123777
0.000118907
0.000113183
0.000106745
9.98281e-05
9.27243e-05
8.57267e-05
7.90826e-05
7.29659e-05
6.74724e-05
6.26315e-05
5.84253e-05
5.48072e-05
5.17175e-05
4.90933e-05
4.68748e-05
4.50082e-05
4.34466e-05
4.21503e-05
4.10855e-05
4.02234e-05
3.95389e-05
3.90095e-05
3.8614e-05
3.83311e-05
3.81387e-05
3.80135e-05
3.78814e-05
3.76959e-05
3.74932e-05
3.73006e-05
3.71072e-05
3.69043e-05
3.66857e-05
3.64473e-05
3.61869e-05
3.59041e-05
3.56001e-05
3.52773e-05
3.49389e-05
3.45891e-05
3.42321e-05
3.38723e-05
3.35141e-05
3.31614e-05
3.28178e-05
3.24863e-05
3.21696e-05
3.18697e-05
3.15879e-05
3.13253e-05
3.10824e-05
3.08596e-05
3.06565e-05
3.0473e-05
3.03085e-05
3.01623e-05
3.00336e-05
2.99216e-05
2.98254e-05
2.97443e-05
2.96773e-05
2.96238e-05
2.95828e-05
2.95539e-05
2.95362e-05
2.95292e-05
2.95325e-05
2.95455e-05
2.9568e-05
2.95995e-05
2.96399e-05
2.96887e-05
2.9746e-05
2.98189e-05
2.99102e-05
3.00236e-05
3.01626e-05
3.03307e-05
3.05315e-05
3.07679e-05
3.10419e-05
3.13548e-05
3.17062e-05
3.20945e-05
3.25164e-05
3.29671e-05
3.34405e-05
3.39299e-05
3.44278e-05
3.49268e-05
3.54198e-05
3.59003e-05
3.6363e-05
3.68033e-05
3.72181e-05
3.76051e-05
3.79632e-05
3.82919e-05
3.85916e-05
3.88631e-05
3.91079e-05
3.93518e-05
3.95961e-05
3.9842e-05
4.00905e-05
4.03428e-05
4.05999e-05
4.08629e-05
4.11329e-05
4.14108e-05
4.16977e-05
4.19946e-05
4.23022e-05
4.26215e-05
4.29531e-05
4.32976e-05
4.36554e-05
4.40269e-05
4.44121e-05
4.48107e-05
4.52223e-05
4.5646e-05
4.60804e-05
4.65239e-05
4.69741e-05
4.74282e-05
4.78828e-05
4.83337e-05
4.87764e-05
4.92054e-05
4.9615e-05
4.99988e-05
5.03502e-05
5.06623e-05
5.0928e-05
5.11405e-05
5.12927e-05
5.1378e-05
5.13895e-05
5.13199e-05
5.11612e-05
5.09037e-05
5.05346e-05
5.00365e-05
4.94168e-05
4.86809e-05
4.7784e-05
4.66692e-05
4.5265e-05
4.34886e-05
4.12613e-05
3.85421e-05
3.53842e-05
3.2005e-05
2.88365e-05
2.65327e-05
2.60331e-05
2.91792e-05
4.27104e-05
0.000227646
0.000225995
0.000224342
0.000222766
0.000221354
0.000220041
0.000218774
0.000217486
0.00021611
0.000214584
0.00021285
0.000210858
0.000208561
0.00020592
0.000202899
0.000199465
0.000195582
0.000191213
0.000186316
0.000180848
0.000174773
0.000168075
0.00016077
0.000152927
0.000144674
0.0001362
0.00012775
0.000119597
0.00011202
0.000105266
9.95295e-05
9.49317e-05
9.15238e-05
8.92976e-05
8.82044e-05
8.81752e-05
8.91373e-05
9.10251e-05
9.37853e-05
9.7378e-05
0.000101775
0.000106957
0.000112908
0.000119609
0.000127033
0.000135138
0.000143858
0.000153095
0.000162711
0.000172524
0.000182304
0.000191776
0.000200454
0.00020772
0.00021449
0.00022076
0.000226513
0.000231708
0.000236269
0.000240136
0.000243256
0.000245592
0.000247123
0.000247841
0.000247754
0.000246886
0.000245274
0.000242968
0.000240025
0.000236511
0.000232498
0.000228059
0.000223268
0.000218197
0.000212916
0.000207488
0.000201974
0.000196424
0.000190887
0.0001854
0.000179997
0.000174706
0.000169547
0.000164536
0.000159686
0.000155003
0.000150493
0.000146157
0.000141994
0.000138002
0.000134176
0.000130512
0.000127004
0.000123644
0.000120428
0.000117347
0.000114395
0.000111566
0.000108853
0.000106248
0.000103745
0.000101095
9.8312e-05
9.54264e-05
9.24736e-05
8.94959e-05
8.65399e-05
8.36543e-05
8.08864e-05
7.82794e-05
7.5869e-05
7.36816e-05
7.17328e-05
7.00278e-05
6.8562e-05
6.73229e-05
6.62922e-05
6.54482e-05
6.47673e-05
6.42259e-05
6.38016e-05
6.34737e-05
6.32241e-05
6.3037e-05
6.28992e-05
6.27998e-05
6.27301e-05
6.26822e-05
6.26511e-05
6.26305e-05
6.26192e-05
6.2617e-05
6.26235e-05
6.26387e-05
6.26627e-05
6.26954e-05
6.27374e-05
6.27889e-05
6.28504e-05
6.29226e-05
6.30058e-05
6.31009e-05
6.32084e-05
6.3329e-05
6.3463e-05
6.36111e-05
6.37733e-05
6.39496e-05
6.41398e-05
6.43431e-05
6.45581e-05
6.4783e-05
6.50152e-05
6.52512e-05
6.54865e-05
6.57157e-05
6.59321e-05
6.61279e-05
6.62941e-05
6.64207e-05
6.64966e-05
6.65099e-05
6.64482e-05
6.62987e-05
6.60487e-05
6.56856e-05
6.51979e-05
6.45746e-05
6.38062e-05
6.28848e-05
6.18046e-05
6.0565e-05
5.92352e-05
5.78173e-05
5.63221e-05
5.47772e-05
5.32363e-05
5.17915e-05
5.05896e-05
4.98498e-05
4.98836e-05
5.11202e-05
5.41721e-05
6.00493e-05
7.08367e-05
9.19077e-05
0.000143291
0.00031991
0.000314121
0.000308384
0.000302882
0.000297653
0.000292575
0.000287537
0.000282417
0.000277105
0.000271505
0.000265542
0.000259155
0.000252305
0.000244973
0.000237167
0.000228928
0.000220341
0.000211535
0.000202692
0.000194034
0.000185819
0.000178321
0.000171815
0.000166554
0.000162759
0.000160605
0.000160219
0.000161675
0.000164998
0.000170172
0.000177148
0.000185861
0.000196237
0.000208208
0.000221716
0.000236712
0.000253159
0.000271015
0.000290232
0.000310744
0.000332453
0.000355225
0.000378882
0.000403197
0.000427896
0.000452666
0.000477165
0.000501038
0.000523941
0.000545555
0.000565617
0.0005837
0.000599845
0.000614784
0.000628628
0.000641314
0.000652773
0.000662931
0.000671722
0.000679094
0.000685005
0.000689434
0.000692372
0.000693827
0.000693823
0.000692398
0.000689603
0.000685505
0.000680179
0.000673708
0.000666184
0.000657703
0.000648365
0.00063827
0.000627518
0.000616206
0.000604427
0.000592271
0.000579822
0.000567155
0.000554343
0.000541447
0.000528524
0.000515624
0.000502788
0.000490054
0.000477451
0.000465004
0.000452733
0.000440651
0.000428771
0.0004171
0.000405641
0.000394398
0.000383369
0.000372553
0.000361946
0.000351546
0.000341351
0.00033134
0.000321484
0.000310859
0.000299439
0.000287294
0.000274523
0.000261267
0.0002477
0.000234027
0.000220473
0.000207265
0.000194619
0.000182721
0.000171715
0.000161697
0.000152709
0.000144749
0.000137778
0.000131729
0.000126518
0.000122054
0.000118246
0.000115006
0.000112254
0.000109919
0.000107936
0.000106252
0.000104822
0.000103603
0.000102562
0.000101577
0.000100637
9.97358e-05
9.8868e-05
9.80287e-05
9.72142e-05
9.64211e-05
9.5647e-05
9.48898e-05
9.41481e-05
9.34212e-05
9.27086e-05
9.20103e-05
9.13268e-05
9.06589e-05
9.00078e-05
8.93748e-05
8.87615e-05
8.81695e-05
8.76004e-05
8.70558e-05
8.6537e-05
8.60448e-05
8.55798e-05
8.51415e-05
8.47293e-05
8.43411e-05
8.39745e-05
8.36258e-05
8.3291e-05
8.29652e-05
8.26435e-05
8.23212e-05
8.19944e-05
8.16608e-05
8.13204e-05
8.09764e-05
8.06362e-05
8.03122e-05
8.00224e-05
7.97916e-05
7.96521e-05
7.96929e-05
8.00226e-05
8.07136e-05
8.18654e-05
8.36077e-05
8.61064e-05
8.95697e-05
9.42547e-05
0.000100475
0.000108622
0.000119227
0.000133139
0.000151977
0.000179251
0.000223395
0.000309453
0.000418373
0.000402477
0.000387475
0.000373689
0.000361128
0.000349589
0.000338868
0.000328766
0.000319129
0.00030987
0.00030097
0.000292477
0.000284502
0.000277206
0.000270786
0.00026546
0.000261454
0.000258979
0.000258228
0.000259356
0.000262481
0.000267678
0.000274977
0.000284368
0.000295804
0.000309205
0.000324464
0.000341458
0.000360054
0.00038012
0.00040153
0.000424164
0.000447907
0.000472643
0.000498244
0.000524561
0.000551422
0.000578628
0.000605957
0.000633169
0.000660018
0.000686261
0.000711676
0.000736068
0.00075928
0.000781199
0.000801755
0.000820921
0.000838702
0.00085513
0.000870256
0.000884186
0.000897418
0.000910009
0.000921953
0.000933219
0.000943769
0.000953558
0.000962536
0.000970653
0.000977856
0.000984096
0.000989331
0.00099352
0.000996634
0.000998653
0.000999563
0.000999366
0.000998069
0.000995692
0.000992265
0.000987823
0.000982412
0.000976082
0.000968889
0.00096089
0.000952147
0.000942722
0.000932676
0.00092207
0.000910964
0.000899412
0.000887468
0.000875182
0.000862599
0.00084976
0.000836703
0.00082346
0.000810061
0.00079653
0.000782888
0.000769154
0.000755341
0.000741462
0.000727524
0.000713535
0.000699496
0.000685415
0.000671302
0.000657119
0.000642782
0.000627044
0.000609721
0.000590799
0.000570308
0.000548348
0.000525089
0.00050078
0.000475742
0.00045036
0.000425061
0.000400282
0.000376438
0.000353888
0.000332913
0.0003137
0.000296341
0.000280845
0.000267149
0.000255146
0.000244693
0.000235636
0.000227818
0.000221085
0.000215295
0.000210321
0.000206052
0.00020238
0.000199214
0.000196202
0.000193306
0.000190509
0.000187795
0.00018515
0.000182564
0.000180025
0.000177526
0.000175061
0.000172626
0.000170217
0.000167833
0.000165473
0.00016314
0.000160834
0.000158562
0.000156327
0.000154136
0.000151996
0.000149915
0.000147903
0.000145968
0.000144122
0.000142374
0.000140736
0.000139217
0.000137831
0.000136586
0.000135495
0.000134569
0.00013382
0.00013326
0.000132904
0.000132765
0.000132861
0.00013321
0.000133836
0.00013476
0.000136013
0.000137624
0.000139628
0.000142067
0.000145056
0.000148837
0.000153431
0.000158929
0.00016544
0.000173096
0.000182053
0.000192512
0.000204744
0.00021915
0.00023638
0.000257531
0.00028452
0.000320754
0.000372205
0.000448375
0.000596585
0.000559006
0.000523923
0.000492546
0.000465446
0.00044266
0.000424034
0.000409255
0.000397968
0.000389841
0.000384598
0.000382019
0.000381933
0.000384198
0.000388684
0.000395261
0.000403791
0.000414128
0.00042612
0.00043961
0.000454448
0.000470488
0.000487595
0.000505642
0.000524509
0.000544081
0.000564245
0.00058489
0.0006059
0.000627155
0.00064853
0.00066989
0.000691095
0.000711995
0.000732444
0.000752296
0.000771421
0.000789708
0.000807074
0.000823469
0.000838873
0.000853299
0.000866787
0.000879395
0.000891195
0.000902263
0.000912674
0.000922494
0.000931779
0.000940571
0.000948998
0.000957539
0.000966262
0.00097518
0.000984289
0.00099357
0.001003
0.00101253
0.00102211
0.00103169
0.00104119
0.00105055
0.00105969
0.00106853
0.00107699
0.001085
0.00109247
0.00109935
0.00110556
0.00111106
0.00111579
0.00111973
0.00112284
0.00112511
0.00112652
0.00112708
0.00112679
0.00112567
0.00112373
0.001121
0.00111751
0.00111329
0.00110836
0.00110277
0.00109654
0.00108971
0.00108231
0.00107436
0.00106591
0.00105697
0.00104757
0.00103772
0.00102745
0.00101677
0.0010057
0.000994243
0.00098241
0.000970208
0.000957658
0.000944712
0.000931238
0.000916155
0.000899155
0.000880098
0.000858881
0.000835468
0.0008099
0.000782319
0.000752976
0.00072224
0.000690586
0.000658567
0.000626776
0.000595795
0.000566149
0.000538262
0.000512442
0.000488867
0.000467603
0.000448618
0.000431812
0.000417035
0.000404112
0.000392856
0.000383082
0.000374614
0.000367294
0.000360954
0.000355443
0.000350195
0.000345128
0.000340214
0.000335425
0.000330739
0.000326136
0.0003216
0.000317118
0.000312679
0.000308276
0.000303904
0.000299561
0.000295247
0.000290965
0.000286721
0.000282523
0.000278381
0.00027431
0.000270323
0.000266439
0.000262676
0.000259055
0.000255599
0.000252329
0.000249271
0.000246447
0.000243882
0.000241599
0.000239623
0.000237976
0.00023668
0.000235757
0.000235228
0.000235114
0.000235434
0.000236208
0.000237455
0.000239194
0.000241445
0.000244228
0.000247568
0.000251494
0.000256043
0.000261438
0.000267732
0.000274932
0.000283102
0.000292337
0.000302767
0.000314578
0.000328035
0.000343516
0.000361563
0.000382928
0.000408608
0.000439731
0.000476896
0.000517956
0.00101229
0.000947462
0.000883382
0.000822285
0.000766261
0.000716756
0.000674845
0.000640995
0.000615099
0.000596589
0.000584611
0.000578182
0.000576323
0.000578136
0.000582843
0.000589795
0.000598471
0.000608454
0.000619418
0.000631108
0.000643319
0.000655889
0.00066868
0.000681572
0.000694455
0.000707227
0.000719787
0.00073204
0.000743892
0.000755255
0.000766048
0.000776203
0.000785662
0.000794389
0.000802363
0.000809588
0.000816084
0.000821893
0.00082707
0.000831682
0.000835802
0.000839504
0.000842858
0.000845931
0.000848779
0.000851451
0.000853986
0.000856413
0.000858752
0.000861015
0.000863441
0.000866295
0.000869608
0.0008734
0.000877691
0.000882494
0.000887821
0.000893679
0.00090007
0.000906993
0.000914435
0.000922382
0.000930808
0.000939681
0.000948957
0.000958589
0.000968516
0.000978676
0.000988996
0.000999401
0.00100981
0.00102016
0.00103035
0.00104031
0.00104998
0.00105928
0.00106815
0.00107653
0.00108439
0.00109167
0.00109834
0.00110438
0.00110976
0.00111446
0.00111849
0.00112182
0.00112446
0.00112641
0.00112767
0.00112824
0.00112813
0.00112734
0.00112587
0.00112374
0.00112093
0.00111746
0.00111332
0.00110851
0.00110305
0.00109687
0.00108986
0.00108152
0.00107147
0.00105944
0.00104513
0.00102828
0.00100867
0.000986172
0.000960773
0.000932635
0.0009021
0.000869698
0.000836112
0.00080212
0.000768518
0.000736037
0.000705279
0.000676681
0.000650505
0.000626858
0.000605725
0.000586999
0.000570516
0.000556084
0.000543495
0.000532547
0.000523055
0.000514811
0.000507608
0.000500763
0.000494154
0.000487738
0.000481478
0.000475345
0.000469315
0.000463368
0.000457486
0.000451656
0.000445868
0.000440117
0.0004344
0.000428719
0.000423077
0.000417482
0.000411948
0.000406487
0.000401119
0.000395864
0.000390747
0.000385792
0.000381028
0.000376484
0.00037219
0.000368176
0.000364471
0.000361104
0.000358101
0.000355488
0.000353288
0.000351519
0.0003502
0.000349346
0.000348968
0.000349077
0.000349681
0.000350788
0.000352405
0.000354539
0.000357197
0.000360389
0.00036413
0.000368439
0.000373341
0.000379014
0.000385439
0.000392643
0.000400686
0.000409649
0.000419639
0.000430785
0.000443238
0.00045715
0.000472631
0.000489646
0.000507806
0.000525994
0.00054195
0.00161179
0.00153138
0.00144817
0.00136327
0.00127848
0.00119556
0.0011165
0.0010432
0.000977301
0.000919961
0.000871751
0.000832635
0.000802056
0.000779093
0.000762629
0.000751509
0.000744638
0.000741052
0.000739934
0.000740619
0.000742574
0.00074538
0.000748709
0.000752307
0.000755976
0.000759564
0.000762952
0.00076605
0.000768794
0.000771137
0.000773052
0.000774528
0.000775567
0.000776186
0.000776411
0.000776276
0.000775824
0.000775099
0.000774147
0.000773015
0.000771746
0.000770379
0.00076895
0.000767491
0.000766025
0.000764574
0.000763155
0.000761778
0.000760453
0.000759182
0.00075796
0.000756767
0.000755603
0.000754476
0.000753402
0.000752403
0.000751509
0.000750758
0.000750192
0.00074986
0.000749816
0.000750117
0.000750819
0.000751981
0.000753657
0.000755899
0.00075875
0.000762248
0.00076642
0.000771284
0.000776846
0.000783102
0.000790034
0.000797615
0.000805809
0.00081457
0.000823844
0.000833571
0.000843688
0.000854127
0.00086482
0.000875699
0.000886696
0.000897747
0.000908789
0.000919762
0.000930612
0.000941287
0.000951739
0.000961923
0.000971799
0.000981329
0.000990476
0.000999206
0.00100749
0.00101528
0.00102257
0.0010293
0.00103547
0.00104099
0.00104582
0.00105046
0.00105463
0.00105797
0.00106004
0.00106031
0.00105817
0.001053
0.00104418
0.00103126
0.00101396
0.000992339
0.000966786
0.000938052
0.000907153
0.00087524
0.000843436
0.00081271
0.000783786
0.000757131
0.000732976
0.000711368
0.000692227
0.000675396
0.000660673
0.000647846
0.000636713
0.000627038
0.000618568
0.000610545
0.000602815
0.000595319
0.000588012
0.000580861
0.000573837
0.000566917
0.000560082
0.000553316
0.00054661
0.000539956
0.000533354
0.000526804
0.000520314
0.000513894
0.000507558
0.000501324
0.000495214
0.000489254
0.00048347
0.000477893
0.000472554
0.000467485
0.000462719
0.000458287
0.000454218
0.000450539
0.000447273
0.000444439
0.000442052
0.000440121
0.000438652
0.000437645
0.000437098
0.000437006
0.00043736
0.000438151
0.000439371
0.000441011
0.000443062
0.000445522
0.000448386
0.000451656
0.000455336
0.000459435
0.000464052
0.000469155
0.00047475
0.000480847
0.000487453
0.000494565
0.000502157
0.000510165
0.000518457
0.000526804
0.000534847
0.000542095
0.000548049
0.00219837
0.002115
0.00202804
0.0019374
0.00184371
0.00174771
0.00165043
0.00155313
0.00145728
0.00136451
0.0012765
0.00119484
0.00112085
0.00105541
0.000998951
0.000951391
0.000912238
0.000880688
0.000855761
0.000836419
0.000821655
0.000810557
0.000802334
0.000796328
0.000792005
0.000788943
0.000786813
0.000785362
0.000784401
0.000783788
0.00078342
0.000783221
0.000783138
0.000783133
0.000783181
0.000783261
0.000783361
0.000783467
0.000783568
0.000783653
0.000783706
0.000783712
0.000783653
0.00078351
0.000783263
0.000782888
0.000782366
0.000781675
0.000780794
0.000779706
0.00077833
0.000776439
0.000773999
0.000770988
0.000767392
0.000763205
0.000758428
0.000753073
0.00074716
0.000740719
0.000733794
0.000726438
0.000718713
0.000710696
0.00070247
0.000694129
0.000685771
0.000677502
0.000669428
0.000661657
0.000654295
0.000647443
0.000641195
0.000635639
0.000630849
0.000626892
0.00062382
0.000621674
0.000620482
0.00062026
0.000621013
0.000622735
0.000625412
0.00062902
0.000633531
0.00063891
0.000645117
0.000652112
0.00065985
0.000668288
0.000677382
0.000687086
0.000697358
0.000708156
0.000719438
0.000731163
0.00074329
0.00075578
0.000768601
0.000781677
0.000795027
0.000810035
0.000826775
0.000845226
0.000865213
0.000886381
0.000908136
0.00092961
0.000949652
0.000966875
0.000979779
0.000986961
0.000987371
0.000980561
0.000966838
0.000947236
0.00092332
0.000896867
0.000869558
0.00084275
0.000817393
0.000794049
0.000772973
0.000754206
0.000737656
0.000723161
0.000710537
0.000699547
0.000689909
0.000680804
0.00067205
0.000663573
0.000655321
0.000647256
0.000639347
0.000631567
0.000623897
0.000616321
0.000608828
0.000601413
0.000594073
0.000586813
0.000579641
0.000572569
0.000565615
0.000558799
0.000552147
0.000545685
0.000539445
0.000533459
0.000527761
0.000522383
0.000517357
0.000512714
0.00050848
0.000504677
0.000501322
0.000498424
0.000495988
0.00049401
0.000492483
0.000491391
0.000490715
0.000490432
0.000490518
0.000490948
0.000491697
0.000492742
0.000494063
0.000495643
0.000497466
0.000499522
0.000501801
0.000504295
0.000507
0.000509948
0.000513109
0.000516466
0.000519997
0.000523675
0.000527461
0.000531305
0.000535143
0.000538904
0.000542518
0.000545949
0.000549234
0.00276904
0.00269778
0.00262409
0.00254691
0.00246592
0.00238106
0.0022924
0.00220012
0.00210452
0.00200607
0.00190547
0.0018037
0.00170199
0.00160184
0.00150488
0.00141277
0.001327
0.00124878
0.00117891
0.00111777
0.00106531
0.00102114
0.000984623
0.000954959
0.000931281
0.00091273
0.000898498
0.000887863
0.000880195
0.000874961
0.000871715
0.000870091
0.000869785
0.000870548
0.000872173
0.000874485
0.000877336
0.000880596
0.000884149
0.000887891
0.000891726
0.000895566
0.000899325
0.000902926
0.000906294
0.000909359
0.000912056
0.000914325
0.000916111
0.000917366
0.000918196
0.000918479
0.000918157
0.000917188
0.000915532
0.000913142
0.000909971
0.000905968
0.000901081
0.000895261
0.000888463
0.000880646
0.000871779
0.000861842
0.000850829
0.000838749
0.000825628
0.000811513
0.000796469
0.000780583
0.000763958
0.000746718
0.000729
0.000710954
0.00069274
0.000674521
0.000656464
0.000638728
0.00062147
0.000604834
0.000588952
0.000573939
0.000559896
0.000546905
0.000535032
0.000524328
0.000514825
0.000506547
0.000499502
0.000493692
0.00048911
0.000485744
0.000483579
0.000482599
0.000482788
0.000484132
0.000486618
0.000490239
0.000494996
0.000500869
0.000507884
0.000516996
0.000528653
0.000543382
0.000561728
0.000584216
0.000611273
0.000643111
0.000679579
0.000719971
0.000762859
0.000806009
0.000846481
0.000881025
0.000906715
0.000921676
0.000925568
0.000919599
0.000906058
0.000887622
0.000866742
0.000845307
0.000824573
0.000805263
0.000787716
0.000772032
0.000758178
0.000746002
0.000735251
0.000725083
0.000715299
0.000705813
0.000696571
0.000687533
0.000678669
0.000669954
0.000661368
0.000652897
0.000644532
0.000636268
0.000628106
0.000620053
0.000612119
0.00060432
0.000596676
0.000589211
0.000581954
0.000574935
0.000568187
0.000561745
0.000555643
0.000549915
0.000544591
0.0005397
0.000535263
0.000531297
0.000527812
0.00052481
0.000522284
0.00052022
0.000518597
0.000517388
0.000516559
0.000516075
0.000515899
0.000515996
0.00051633
0.000516871
0.000517591
0.000518469
0.000519485
0.000520626
0.00052188
0.00052324
0.000524699
0.000526252
0.000527908
0.000529655
0.000531486
0.000533395
0.000535379
0.000537435
0.000539568
0.000541792
0.000544135
0.000546649
0.000549414
0.00331381
0.00326394
0.00321341
0.00316068
0.00310485
0.00304561
0.00298269
0.0029159
0.00284505
0.00276997
0.00269058
0.00260681
0.00251871
0.00242647
0.00233045
0.00223123
0.00212967
0.0020269
0.00192429
0.00182336
0.00172567
0.0016327
0.00154573
0.00146574
0.00139339
0.00132897
0.00127249
0.00122366
0.00118204
0.00114704
0.00111801
0.00109428
0.0010752
0.00106015
0.00104859
0.00104
0.00103392
0.00102997
0.00102778
0.00102705
0.00102749
0.00102887
0.00103096
0.00103356
0.00103651
0.00103965
0.00104285
0.00104597
0.00104892
0.0010516
0.00105392
0.00105627
0.0010586
0.0010609
0.00106317
0.00106538
0.00106751
0.0010695
0.00107129
0.0010728
0.00107393
0.00107456
0.00107458
0.00107382
0.00107215
0.00106939
0.00106538
0.00105996
0.00105298
0.00104428
0.00103376
0.00102131
0.00100688
0.000990419
0.000971956
0.000951543
0.000929279
0.000905306
0.000879807
0.000853
0.000825131
0.000796469
0.000767296
0.000737896
0.000708553
0.000679535
0.000651094
0.000623455
0.000596817
0.000571345
0.000547174
0.000524411
0.000503129
0.00048338
0.000465191
0.000448574
0.000433526
0.000420035
0.000408092
0.000397659
0.000388685
0.000380536
0.000373629
0.000368586
0.000366145
0.000367171
0.000372647
0.000383663
0.000401383
0.00042696
0.000461367
0.000505094
0.000557697
0.000617252
0.000679992
0.000740507
0.000792846
0.000832242
0.000856595
0.000866793
0.000865807
0.000857294
0.000844514
0.000829865
0.000814883
0.000800461
0.000787068
0.000774879
0.000763845
0.00075326
0.000742957
0.000732862
0.000722934
0.000713149
0.00070349
0.000693941
0.000684494
0.000675142
0.000665885
0.000656725
0.000647671
0.000638735
0.000629936
0.000621297
0.000612844
0.000604607
0.000596621
0.000588922
0.000581547
0.000574534
0.00056792
0.000561739
0.000556022
0.000550795
0.000546076
0.000541878
0.000538202
0.000535044
0.000532389
0.000530213
0.000528485
0.000527168
0.000526219
0.000525596
0.000525253
0.000525148
0.000525243
0.000525502
0.000525896
0.000526404
0.000527006
0.000527691
0.000528451
0.000529282
0.000530181
0.00053115
0.000532193
0.000533316
0.000534524
0.000535828
0.00053724
0.000538776
0.000540459
0.000542321
0.0005444
0.000546749
0.000549434
0.00377135
0.00374551
0.00372057
0.00369509
0.00366783
0.00363846
0.00360669
0.00357222
0.00353475
0.00349397
0.00344957
0.00340126
0.00334875
0.00329181
0.00323025
0.00316392
0.00309277
0.00301681
0.00293616
0.00285104
0.00276183
0.00266909
0.00257353
0.00247603
0.0023776
0.00227933
0.00218229
0.00208752
0.00199591
0.00190821
0.00182499
0.00174666
0.00167345
0.00160546
0.00154269
0.00148509
0.00143254
0.00138489
0.00134199
0.00130368
0.00126977
0.00124006
0.00121434
0.00119235
0.00117383
0.00115848
0.00114596
0.00113596
0.00112812
0.00112212
0.00111764
0.00111451
0.00111248
0.00111126
0.00111082
0.00111122
0.00111253
0.00111483
0.00111817
0.00112261
0.00112815
0.00113481
0.00114255
0.00115132
0.00116102
0.00117153
0.00118268
0.00119427
0.00120604
0.00121771
0.00122894
0.00123936
0.00124859
0.00125621
0.00126178
0.00126487
0.00126507
0.00126201
0.00125535
0.00124483
0.00123026
0.00121156
0.00118873
0.0011619
0.0011313
0.00109723
0.00106013
0.00102046
0.000978764
0.000935594
0.000891517
0.000847082
0.000802801
0.000759141
0.000716503
0.000675226
0.00063558
0.000597773
0.000561963
0.000528215
0.00049644
0.000463992
0.000431282
0.000399101
0.000368385
0.000340158
0.000315484
0.000295426
0.00028103
0.000273354
0.000273533
0.000282866
0.000302868
0.000335156
0.000381015
0.000440481
0.000511036
0.000586677
0.000658648
0.000718391
0.000760985
0.000786416
0.000798088
0.00080039
0.00079706
0.000790697
0.000782925
0.000774682
0.000766461
0.000758108
0.000749584
0.000740881
0.000732011
0.000722997
0.000713858
0.000704616
0.000695288
0.000685897
0.000676462
0.00066701
0.000657569
0.00064817
0.00063885
0.000629648
0.000620608
0.000611775
0.000603199
0.000594927
0.000587008
0.00057949
0.000572417
0.000565828
0.000559757
0.00055423
0.000549266
0.000544872
0.000541047
0.000537779
0.000535046
0.000532816
0.000531051
0.000529706
0.000528732
0.000528079
0.000527698
0.000527542
0.00052757
0.000527747
0.000528042
0.000528435
0.000528907
0.00052945
0.000530056
0.000530724
0.000531457
0.000532257
0.000533131
0.000534088
0.000535139
0.000536297
0.000537578
0.000539004
0.0005406
0.000542397
0.000544433
0.000546759
0.000549436
0.00407957
0.00407643
0.00407496
0.00407443
0.00407339
0.00407169
0.00406905
0.00406525
0.00406003
0.00405312
0.00404422
0.004033
0.00401915
0.00400233
0.00398221
0.00395846
0.00393076
0.00389883
0.00386243
0.00382137
0.00377555
0.00372493
0.00366955
0.00360955
0.00354512
0.00347656
0.00340417
0.00332833
0.0032494
0.00316776
0.00308374
0.00299764
0.00290969
0.00282004
0.0027288
0.00263601
0.00254175
0.00244607
0.00234916
0.00225127
0.00215288
0.00205464
0.00195741
0.00186222
0.00177025
0.00168268
0.00160064
0.00152514
0.00145693
0.00139648
0.00134395
0.00129917
0.00126219
0.0012327
0.00120656
0.00118318
0.00116241
0.00114403
0.00112805
0.00111452
0.00110351
0.00109513
0.00108948
0.00108667
0.00108683
0.00109004
0.00109639
0.00110594
0.00111874
0.00113477
0.00115402
0.00117638
0.00120172
0.0012298
0.0012603
0.00129282
0.00132682
0.00136165
0.00139653
0.00143058
0.00146278
0.00149206
0.00151728
0.0015373
0.00155107
0.00155763
0.00155621
0.00154631
0.00152768
0.00150041
0.00146488
0.00142177
0.001372
0.00131666
0.00125695
0.00119406
0.00112919
0.00106339
0.00099763
0.000932644
0.00086859
0.000800721
0.000729529
0.000656381
0.000583072
0.000511672
0.000444325
0.00038302
0.000329366
0.000284464
0.0002489
0.000222891
0.000206532
0.000200107
0.000204391
0.000220857
0.000251603
0.000298619
0.000361961
0.000437239
0.000514756
0.000583008
0.000634631
0.000668969
0.000689705
0.000701308
0.000707211
0.0007096
0.000709859
0.000708938
0.000707013
0.000704181
0.000700529
0.000696137
0.000691077
0.000685415
0.000679208
0.000672516
0.000665392
0.000657896
0.000650086
0.000642027
0.000633786
0.000625435
0.000617048
0.000608702
0.000600478
0.000592451
0.000584699
0.000577292
0.000570296
0.000563767
0.000557754
0.000552293
0.000547407
0.00054311
0.000539399
0.00053626
0.000533669
0.000531589
0.000529976
0.000528782
0.000527951
0.000527432
0.000527171
0.000527122
0.000527241
0.000527494
0.000527852
0.000528295
0.000528806
0.000529378
0.000530007
0.000530691
0.000531435
0.000532243
0.000533123
0.000534083
0.000535136
0.000536295
0.000537578
0.000539004
0.0005406
0.000542396
0.000544433
0.000546759
0.000549436
0.00420027
0.00421658
0.00423438
0.00425412
0.00427424
0.0042948
0.00431562
0.00433657
0.0043575
0.00437821
0.00439851
0.00441816
0.00443691
0.0044545
0.00447064
0.00448503
0.00449738
0.00450738
0.00451473
0.00451913
0.0045203
0.00451798
0.00451193
0.00450194
0.00448783
0.00446946
0.00444675
0.00441966
0.0043882
0.0043524
0.00431237
0.00426822
0.0042201
0.00416816
0.00411254
0.00405336
0.0039907
0.00392452
0.00385465
0.00378068
0.00370197
0.0036177
0.00352687
0.00342845
0.00332142
0.00320501
0.0030788
0.002943
0.00279858
0.00264734
0.00249195
0.00233573
0.0021824
0.00203561