/*--------------------------------*- C++ -*----------------------------------*\
| =========                 |                                                 |
| \\      /  F ield         | OpenFOAM: The Open Source CFD Toolbox           |
|  \\    /   O peration     | Version:  2406                                  |
|   \\  /    A nd           | Website:  www.openfoam.com                      |
|    \\/     M anipulation  |                                                 |
\*---------------------------------------------------------------------------*/
FoamFile
{
    version     2.0;
    format      ascii;
    arch        "LSB;label=32;scalar=64";
    class       volScalarField;
    location    "1083";
    object      nut;
}
// * * * * * * * * * * * * * * * * * * * * * * * * * * * * * * * * * * * * * //

dimensions      [0 2 -1 0 0 0 0];

internalField   nonuniform List<scalar> 
5619
(
3.88385e-05
3.88513e-05
3.88572e-05
3.88901e-05
3.89409e-05
3.90095e-05
3.90942e-05
3.9194e-05
3.9308e-05
3.94357e-05
3.95769e-05
3.97316e-05
3.98999e-05
4.00823e-05
4.02789e-05
4.04904e-05
4.0717e-05
4.09592e-05
4.12171e-05
4.14904e-05
4.1778e-05
4.20779e-05
4.23862e-05
4.2698e-05
4.30079e-05
4.33113e-05
4.36071e-05
4.38997e-05
4.41997e-05
4.45232e-05
4.48886e-05
4.53119e-05
4.58024e-05
4.63605e-05
4.69779e-05
4.76399e-05
4.83281e-05
4.90231e-05
4.9706e-05
5.036e-05
5.09703e-05
5.15246e-05
5.20128e-05
5.24268e-05
5.27606e-05
5.30099e-05
5.31723e-05
5.32465e-05
5.32331e-05
5.31334e-05
5.29502e-05
5.26869e-05
5.23477e-05
5.19373e-05
5.14609e-05
5.09235e-05
5.03431e-05
4.9735e-05
4.9107e-05
4.84658e-05
4.7817e-05
4.7166e-05
4.65171e-05
4.5874e-05
4.52399e-05
4.46172e-05
4.40081e-05
4.34139e-05
4.2836e-05
4.2275e-05
4.17315e-05
4.12058e-05
4.06978e-05
4.02074e-05
3.97344e-05
3.92783e-05
3.88386e-05
3.84149e-05
3.80065e-05
3.76128e-05
3.7233e-05
3.68666e-05
3.65128e-05
3.61709e-05
3.58402e-05
3.55201e-05
3.52099e-05
3.49089e-05
3.46165e-05
3.4332e-05
3.40549e-05
3.37846e-05
3.35204e-05
3.32618e-05
3.30083e-05
3.27594e-05
3.25145e-05
3.22732e-05
3.2035e-05
3.17994e-05
3.15663e-05
3.13115e-05
3.10347e-05
3.07357e-05
3.04153e-05
3.00747e-05
2.97156e-05
2.93405e-05
2.89524e-05
2.85551e-05
2.81525e-05
2.77488e-05
2.73485e-05
2.69557e-05
2.65744e-05
2.62079e-05
2.5859e-05
2.553e-05
2.52224e-05
2.49368e-05
2.46737e-05
2.44328e-05
2.42134e-05
2.40147e-05
2.38354e-05
2.36743e-05
2.353e-05
2.34012e-05
2.32867e-05
2.31742e-05
2.30632e-05
2.29529e-05
2.2843e-05
2.27328e-05
2.26221e-05
2.25102e-05
2.2397e-05
2.22819e-05
2.21647e-05
2.2045e-05
2.19227e-05
2.17976e-05
2.16694e-05
2.15381e-05
2.14036e-05
2.12659e-05
2.11252e-05
2.09817e-05
2.08355e-05
2.06871e-05
2.05368e-05
2.03854e-05
2.02333e-05
2.00815e-05
1.99307e-05
1.97821e-05
1.96366e-05
1.94955e-05
1.93598e-05
1.92308e-05
1.91098e-05
1.89977e-05
1.88957e-05
1.88047e-05
1.87252e-05
1.86577e-05
1.86024e-05
1.85593e-05
1.85279e-05
1.85076e-05
1.84977e-05
1.84972e-05
1.85052e-05
1.85206e-05
1.85426e-05
1.85709e-05
1.86071e-05
1.86554e-05
1.8725e-05
1.88324e-05
1.90025e-05
1.92663e-05
1.96501e-05
2.01489e-05
2.06659e-05
2.08467e-05
1.95834e-05
0.000117771
0.000117556
0.000117389
0.000117251
0.000117227
0.000117291
0.000117434
0.000117637
0.000117883
0.000118153
0.000118432
0.000118703
0.000118953
0.000119164
0.000119321
0.000119406
0.0001194
0.000119283
0.000119035
0.000118636
0.000118068
0.000117307
0.000116318
0.000115047
0.000113411
0.000111304
0.000108606
0.000105215
0.000101073
9.62064e-05
9.07331e-05
8.48535e-05
7.88156e-05
7.28682e-05
6.72212e-05
6.20225e-05
5.73532e-05
5.32384e-05
4.96628e-05
4.65871e-05
4.39604e-05
4.17293e-05
3.9843e-05
3.82557e-05
3.69278e-05
3.58253e-05
3.49196e-05
3.41861e-05
3.36037e-05
3.3153e-05
3.28162e-05
3.25751e-05
3.24109e-05
3.23038e-05
3.21909e-05
3.20327e-05
3.18601e-05
3.16962e-05
3.15316e-05
3.13591e-05
3.11733e-05
3.09707e-05
3.07495e-05
3.05093e-05
3.02512e-05
2.99771e-05
2.96899e-05
2.93929e-05
2.90899e-05
2.87846e-05
2.84805e-05
2.81812e-05
2.78896e-05
2.76083e-05
2.73395e-05
2.70849e-05
2.68458e-05
2.6623e-05
2.64169e-05
2.62277e-05
2.60555e-05
2.58997e-05
2.57601e-05
2.5636e-05
2.55268e-05
2.54318e-05
2.53502e-05
2.52814e-05
2.52246e-05
2.51792e-05
2.51445e-05
2.51199e-05
2.5105e-05
2.50991e-05
2.5102e-05
2.51131e-05
2.51322e-05
2.51591e-05
2.51935e-05
2.5235e-05
2.52837e-05
2.53457e-05
2.54233e-05
2.55197e-05
2.56379e-05
2.57808e-05
2.59515e-05
2.61524e-05
2.63854e-05
2.66513e-05
2.69501e-05
2.72801e-05
2.76387e-05
2.80218e-05
2.84242e-05
2.88402e-05
2.92634e-05
2.96876e-05
3.01066e-05
3.05151e-05
3.09083e-05
3.12826e-05
3.16352e-05
3.19642e-05
3.22685e-05
3.25479e-05
3.28027e-05
3.30335e-05
3.32415e-05
3.34489e-05
3.36565e-05
3.38655e-05
3.40768e-05
3.42912e-05
3.45097e-05
3.47333e-05
3.49628e-05
3.5199e-05
3.54429e-05
3.56953e-05
3.59568e-05
3.62281e-05
3.651e-05
3.68028e-05
3.7107e-05
3.74227e-05
3.77501e-05
3.8089e-05
3.84388e-05
3.8799e-05
3.91682e-05
3.95452e-05
3.99279e-05
4.03139e-05
4.07003e-05
4.10836e-05
4.14598e-05
4.18245e-05
4.21727e-05
4.24989e-05
4.27976e-05
4.30629e-05
4.32888e-05
4.34694e-05
4.35988e-05
4.36713e-05
4.3681e-05
4.36219e-05
4.3487e-05
4.32682e-05
4.29544e-05
4.2531e-05
4.20043e-05
4.13788e-05
4.06164e-05
3.96689e-05
3.84753e-05
3.69653e-05
3.50721e-05
3.27608e-05
3.00766e-05
2.72042e-05
2.4511e-05
2.25528e-05
2.21282e-05
2.48023e-05
3.63038e-05
0.000193656
0.000192248
0.000190834
0.000189488
0.000188281
0.000187159
0.000186076
0.000184974
0.000183797
0.000182492
0.00018101
0.000179308
0.000177347
0.000175092
0.000172515
0.000169585
0.000166275
0.000162552
0.000158381
0.000153724
0.000148553
0.000142853
0.000136639
0.000129969
0.000122951
0.000115748
0.000108567
0.000101641
9.52052e-05
8.94707e-05
8.46007e-05
8.06987e-05
7.78079e-05
7.5921e-05
7.49964e-05
7.49754e-05
7.57963e-05
7.74032e-05
7.97508e-05
8.28052e-05
8.65427e-05
9.09463e-05
9.60024e-05
0.000101695
0.000108002
0.000114887
0.000122293
0.000130138
0.000138305
0.000146639
0.000154944
0.000162987
0.000170354
0.000176522
0.000182271
0.000187596
0.000192483
0.000196894
0.000200768
0.000204052
0.000206702
0.000208686
0.000209986
0.000210595
0.000210521
0.000209784
0.000208415
0.000206456
0.000203956
0.000200971
0.000197563
0.000193792
0.000189723
0.000185416
0.00018093
0.00017632
0.000171636
0.000166922
0.000162218
0.000157557
0.000152968
0.000148473
0.00014409
0.000139834
0.000135713
0.000131735
0.000127903
0.000124219
0.000120683
0.000117291
0.00011404
0.000110927
0.000107945
0.000105091
0.000102358
9.97399e-05
9.72315e-05
9.48271e-05
9.25219e-05
9.03079e-05
8.81804e-05
8.59284e-05
8.35633e-05
8.11109e-05
7.86014e-05
7.60706e-05
7.35582e-05
7.11056e-05
6.87531e-05
6.65372e-05
6.44885e-05
6.26293e-05
6.09729e-05
5.95237e-05
5.82778e-05
5.72245e-05
5.63485e-05
5.56311e-05
5.50523e-05
5.45921e-05
5.42314e-05
5.39527e-05
5.37405e-05
5.35815e-05
5.34644e-05
5.33799e-05
5.33206e-05
5.32799e-05
5.32535e-05
5.3236e-05
5.32263e-05
5.32244e-05
5.323e-05
5.32429e-05
5.32632e-05
5.32911e-05
5.33268e-05
5.33705e-05
5.34229e-05
5.34841e-05
5.35549e-05
5.36357e-05
5.37271e-05
5.38296e-05
5.39435e-05
5.40693e-05
5.42072e-05
5.43571e-05
5.45188e-05
5.46915e-05
5.48743e-05
5.50655e-05
5.52629e-05
5.54635e-05
5.56635e-05
5.58583e-05
5.60422e-05
5.62086e-05
5.63499e-05
5.64576e-05
5.65221e-05
5.65334e-05
5.6481e-05
5.63539e-05
5.61413e-05
5.58328e-05
5.54182e-05
5.48884e-05
5.42353e-05
5.3452e-05
5.25339e-05
5.14802e-05
5.03499e-05
4.91447e-05
4.78738e-05
4.65606e-05
4.52509e-05
4.40228e-05
4.30011e-05
4.23723e-05
4.24011e-05
4.34522e-05
4.60463e-05
5.10419e-05
6.02112e-05
7.81215e-05
0.000121797
0.000272231
0.000267288
0.00026239
0.00025769
0.000253223
0.000248886
0.000244583
0.000240211
0.000235676
0.000230897
0.000225809
0.000220361
0.000214521
0.00020827
0.000201618
0.000194599
0.000187286
0.000179789
0.000172263
0.000164898
0.000157913
0.000151541
0.000146016
0.000141551
0.000138336
0.000136518
0.000136205
0.000137457
0.000140297
0.00014471
0.000150655
0.000158075
0.000166908
0.000177094
0.000188584
0.000201337
0.00021532
0.000230498
0.00024683
0.00026426
0.000282705
0.00030205
0.000322146
0.000342798
0.000363776
0.000384813
0.000405619
0.000425894
0.000445343
0.000463699
0.000480737
0.00049609
0.000509803
0.000522494
0.000534255
0.000545032
0.000554766
0.000563396
0.000570864
0.000577126
0.000582148
0.000585909
0.000588405
0.00058964
0.000589635
0.000588423
0.000586048
0.000582565
0.000578039
0.00057254
0.000566147
0.000558941
0.000551007
0.00054243
0.000533294
0.000523682
0.000513675
0.000503347
0.000492769
0.000482007
0.00047112
0.000460163
0.000449184
0.000438223
0.000427317
0.000416497
0.000405789
0.000395212
0.000384785
0.000374519
0.000364424
0.000354506
0.00034477
0.000335215
0.000325843
0.000316652
0.000307638
0.000298799
0.000290136
0.000281627
0.000273251
0.000264222
0.000254516
0.000244194
0.00023334
0.000222073
0.000210542
0.000198921
0.0001874
0.000176174
0.000165426
0.000155313
0.000145958
0.000137443
0.000129803
0.000123038
0.000117112
0.000111971
0.000107541
0.000103747
0.00010051
9.77561e-05
9.5417e-05
9.34316e-05
9.17463e-05
9.03151e-05
8.90991e-05
8.80629e-05
8.71782e-05
8.63411e-05
8.55419e-05
8.4776e-05
8.40383e-05
8.33249e-05
8.26325e-05
8.19584e-05
8.13003e-05
8.06567e-05
8.00263e-05
7.94084e-05
7.88026e-05
7.8209e-05
7.7628e-05
7.70603e-05
7.65068e-05
7.59688e-05
7.54474e-05
7.49442e-05
7.44605e-05
7.39976e-05
7.35566e-05
7.31382e-05
7.27429e-05
7.23704e-05
7.20199e-05
7.169e-05
7.13783e-05
7.1082e-05
7.07974e-05
7.05205e-05
7.0247e-05
6.99731e-05
6.96953e-05
6.94117e-05
6.91223e-05
6.883e-05
6.85408e-05
6.82653e-05
6.8019e-05
6.78229e-05
6.77043e-05
6.7739e-05
6.80192e-05
6.86065e-05
6.95856e-05
7.10666e-05
7.31904e-05
7.61343e-05
8.01165e-05
8.54038e-05
9.23288e-05
0.000101343
0.000113168
0.000129181
0.000152363
0.000189886
0.000263035
0.000356094
0.000342536
0.000329735
0.000317965
0.000307238
0.000297383
0.000288227
0.000279599
0.000271372
0.000263468
0.000255872
0.000248626
0.000241823
0.000235602
0.00023013
0.000225593
0.000222182
0.00022008
0.000219447
0.000220416
0.000223087
0.000227523
0.000233749
0.000241755
0.000251501
0.000262918
0.000275914
0.000290383
0.000306212
0.000323287
0.0003415
0.000360749
0.000380936
0.000401963
0.000423719
0.000446079
0.000468898
0.000492006
0.000515216
0.000538324
0.000561122
0.000583406
0.000604985
0.000625696
0.000645406
0.000664019
0.000681475
0.000697751
0.000712852
0.000726805
0.000739653
0.000751489
0.000762732
0.000773431
0.000783579
0.000793152
0.000802116
0.000810434
0.000818063
0.000824959
0.000831079
0.000836382
0.000840829
0.000844388
0.000847034
0.000848748
0.000849522
0.000849354
0.000848251
0.000846232
0.000843319
0.000839545
0.000834947
0.000829568
0.000823456
0.000816659
0.00080923
0.000801222
0.000792686
0.000783674
0.000774237
0.000764422
0.000754273
0.000743834
0.000733142
0.000722232
0.000711137
0.000699885
0.000688499
0.000677001
0.000665409
0.000653739
0.000642001
0.000630207
0.000618363
0.000606475
0.000594545
0.000582578
0.000570584
0.000558531
0.000546346
0.000532972
0.000518249
0.000502167
0.000484752
0.000466087
0.000446319
0.000425657
0.000404376
0.000382803
0.0003613
0.000340239
0.000319972
0.000300806
0.000282977
0.000266647
0.000251892
0.00023872
0.000227079
0.000216876
0.000207991
0.000200293
0.000193647
0.000187924
0.000183003
0.000178775
0.000175146
0.000172025
0.000169334
0.000166773
0.000164312
0.000161934
0.000159627
0.000157379
0.000155181
0.000153022
0.000150899
0.000148803
0.000146733
0.000144686
0.000142659
0.000140653
0.00013867
0.00013671
0.000134778
0.000132879
0.000131016
0.000129197
0.000127428
0.000125718
0.000124073
0.000122504
0.000121018
0.000119626
0.000118335
0.000117156
0.000116098
0.000115171
0.000114384
0.000113747
0.000113271
0.000112968
0.00011285
0.000112932
0.000113229
0.00011376
0.000114546
0.000115611
0.00011698
0.000118684
0.000120757
0.000123298
0.000126511
0.000130416
0.000135089
0.000140624
0.000147132
0.000154745
0.000163635
0.000174032
0.000186278
0.000200923
0.000218902
0.000241842
0.000272641
0.000316374
0.000381118
0.000507729
0.000475741
0.000445855
0.000419101
0.000395975
0.000376518
0.000360603
0.000347969
0.000338316
0.000331361
0.000326867
0.00032465
0.000324561
0.000326479
0.000330293
0.000335892
0.000343156
0.000351961
0.000362177
0.000373669
0.000386307
0.000399969
0.000414537
0.000429901
0.00044596
0.000462616
0.00047977
0.000497329
0.000515192
0.000533259
0.000551422
0.000569569
0.000587579
0.000605327
0.000622689
0.000639543
0.000655777
0.000671301
0.000686042
0.00069996
0.000713037
0.000725286
0.000736739
0.000747446
0.000757468
0.00076687
0.000775714
0.000784057
0.000791946
0.000799417
0.00080658
0.000813842
0.000821259
0.00082884
0.000836583
0.000844473
0.000852485
0.000860585
0.00086873
0.00087687
0.000884949
0.000892905
0.000900672
0.000908185
0.000915375
0.000922178
0.00092853
0.000934373
0.000939654
0.000944327
0.000948352
0.000951698
0.000954342
0.000956269
0.00095747
0.000957945
0.0009577
0.000956747
0.000955101
0.000952783
0.000949816
0.000946226
0.000942041
0.000937288
0.000931996
0.000926192
0.000919904
0.000913156
0.000905972
0.000898375
0.000890384
0.000882018
0.000873291
0.000864218
0.000854809
0.000845073
0.000835017
0.000824648
0.000813983
0.000802981
0.00079153
0.000778712
0.000764264
0.000748067
0.000730035
0.000710136
0.000688406
0.000664963
0.000640023
0.000613899
0.000586994
0.000559779
0.000532758
0.000506425
0.000481227
0.000457524
0.000435577
0.000415539
0.000397465
0.000381328
0.000367043
0.000354483
0.000343498
0.000333931
0.000325623
0.000318425
0.000312203
0.000306814
0.00030213
0.000297669
0.000293362
0.000289185
0.000285114
0.000281131
0.000277218
0.000273362
0.000269553
0.00026578
0.000262037
0.000258321
0.000254629
0.000250962
0.000247322
0.000243715
0.000240146
0.000236626
0.000233165
0.000229776
0.000226474
0.000223276
0.000220198
0.00021726
0.000214481
0.000211881
0.000209481
0.0002073
0.00020536
0.00020368
0.00020228
0.000201178
0.000200394
0.000199944
0.000199847
0.000200119
0.000200777
0.000201837
0.000203315
0.000205228
0.000207594
0.000210433
0.00021377
0.000217636
0.000222223
0.000227572
0.000233692
0.000240637
0.000248487
0.000257352
0.000267391
0.00027883
0.000291989
0.000307329
0.000325489
0.000347317
0.000373771
0.000405362
0.000440263
0.00086116
0.000806122
0.000751679
0.000699719
0.000652028
0.000609848
0.000574109
0.00054522
0.0005231
0.000507277
0.000497024
0.000491508
0.000489895
0.000491417
0.000495409
0.00050132
0.000508701
0.000517197
0.000526528
0.000536477
0.000546869
0.000557563
0.000568443
0.000579406
0.000590358
0.000601212
0.000611884
0.000622291
0.000632354
0.000642
0.00065116
0.000659777
0.000667802
0.000675206
0.000681971
0.000688101
0.000693613
0.000698544
0.00070294
0.000706857
0.000710357
0.000713503
0.000716355
0.000718967
0.00072139
0.000723663
0.00072582
0.000727885
0.000729875
0.0007318
0.000733867
0.000736298
0.000739118
0.000742346
0.000745996
0.000750081
0.000754612
0.000759593
0.000765028
0.000770914
0.000777241
0.000783998
0.000791161
0.000798703
0.000806589
0.000814775
0.000823214
0.000831849
0.000840621
0.000849466
0.000858317
0.000867106
0.000875769
0.000884238
0.000892453
0.000900357
0.000907895
0.000915023
0.000921698
0.000927885
0.000933556
0.000938686
0.000943259
0.00094726
0.00095068
0.000953514
0.00095576
0.000957417
0.000958488
0.000958974
0.000958879
0.000958208
0.000956963
0.000955148
0.000952766
0.000949816
0.000946297
0.000942211
0.000937567
0.000932318
0.000926363
0.000919273
0.000910735
0.00090051
0.00088835
0.00087403
0.000857363
0.000838237
0.00081665
0.000792733
0.00076678
0.00073924
0.000710693
0.0006818
0.000653239
0.000625631
0.000599488
0.00057518
0.000552931
0.000532832
0.000514869
0.000498952
0.000484942
0.000472674
0.000461974
0.000452668
0.0004446
0.000437593
0.00043147
0.000425652
0.000420034
0.00041458
0.000409259
0.000404047
0.000398921
0.000393866
0.000388866
0.00038391
0.000378991
0.000374102
0.000369243
0.000364413
0.000359617
0.000354862
0.000350158
0.000345516
0.000340953
0.000336486
0.000332136
0.000327925
0.000323875
0.000320013
0.000316363
0.00031295
0.000309801
0.000306939
0.000304387
0.000302166
0.000300295
0.000298792
0.000297671
0.000296944
0.000296623
0.000296715
0.000297229
0.00029817
0.000299545
0.000301358
0.000303617
0.000306331
0.000309511
0.000313173
0.00031734
0.000322162
0.000327623
0.000333746
0.000340583
0.000348202
0.000356693
0.000366168
0.000376752
0.000388578
0.000401737
0.000416199
0.000431635
0.000447095
0.000460657
0.00137084
0.00130271
0.00123214
0.00116008
0.00108805
0.00101756
0.000950288
0.000887878
0.000831727
0.000782837
0.000741706
0.000708314
0.000682196
0.000662571
0.000648491
0.000638972
0.000633082
0.000629997
0.000629019
0.000629581
0.000631226
0.000633598
0.000636416
0.000639464
0.000642572
0.000645611
0.000648481
0.000651105
0.000653427
0.00065541
0.000657029
0.000658277
0.000659155
0.000659677
0.000659865
0.00065975
0.000659365
0.00065875
0.000657944
0.000656985
0.000655909
0.000654751
0.00065354
0.000652303
0.000651061
0.000649831
0.000648628
0.00064746
0.000646336
0.000645258
0.00064422
0.000643208
0.00064222
0.000641263
0.000640351
0.000639504
0.000638746
0.000638108
0.000637629
0.000637349
0.000637314
0.000637572
0.000638171
0.000639161
0.000640588
0.000642496
0.000644922
0.000647897
0.000651446
0.000655582
0.000660312
0.00066563
0.000671524
0.000677969
0.000684935
0.000692383
0.000700266
0.000708534
0.000717133
0.000726006
0.000735095
0.000744342
0.000753689
0.000763082
0.000772467
0.000781793
0.000791015
0.000800088
0.000808971
0.000817627
0.000826021
0.000834121
0.000841895
0.000849315
0.000856353
0.000862981
0.00086917
0.000874896
0.000880139
0.000884832
0.000888938
0.000892884
0.000896423
0.000899265
0.000901027
0.000901256
0.000899439
0.000895039
0.00088755
0.000876566
0.000861865
0.000843485
0.000821765
0.000797342
0.000771079
0.000743953
0.000716921
0.000690804
0.000666219
0.000643563
0.000623032
0.000604665
0.000588396
0.000574089
0.000561575
0.000550672
0.000541209
0.000532986
0.000525786
0.000518967
0.000512396
0.000506024
0.000499813
0.000493735
0.000487765
0.000481883
0.000476073
0.000470322
0.000464621
0.000458966
0.000453353
0.000447786
0.00044227
0.000436812
0.000431426
0.000426127
0.000420934
0.000415867
0.000410951
0.00040621
0.000401672
0.000397363
0.000393312
0.000389545
0.000386086
0.000382959
0.000380183
0.000377774
0.000375744
0.000374103
0.000372854
0.000371999
0.000371534
0.000371455
0.000371756
0.000372429
0.000373466
0.000374859
0.000376603
0.000378693
0.000381128
0.000383908
0.000387036
0.000390519
0.000394445
0.000398782
0.000403538
0.00040872
0.000414335
0.00042038
0.000426833
0.00043364
0.000440688
0.000447784
0.00045462
0.00046078
0.000465842
0.00186949
0.00179892
0.00172526
0.00164843
0.00156895
0.00148745
0.0014048
0.00132209
0.00124056
0.00116161
0.00108667
0.00101709
0.000954012
0.000898205
0.000850031
0.000809436
0.000776005
0.000749057
0.000727762
0.000711233
0.000698614
0.000689125
0.000682093
0.000676956
0.000673256
0.000670634
0.000668808
0.000667564
0.000666738
0.000666211
0.000665893
0.000665721
0.000665648
0.000665642
0.000665681
0.000665749
0.000665834
0.000665924
0.00066601
0.000666081
0.000666126
0.00066613
0.000666079
0.000665957
0.000665745
0.000665425
0.00066498
0.000664391
0.000663641
0.000662715
0.000661542
0.000659932
0.000657854
0.000655292
0.000652234
0.000648673
0.000644612
0.000640059
0.000635033
0.000629559
0.000623673
0.000617421
0.000610856
0.000604043
0.000597053
0.000589965
0.000582863
0.000575837
0.000568977
0.000562375
0.00055612
0.000550299
0.000544992
0.000540272
0.000536204
0.000532843
0.000530234
0.000528413
0.000527402
0.000527215
0.000527857
0.000529323
0.000531599
0.000534668
0.000538503
0.000543075
0.000548352
0.000554298
0.000560876
0.000568048
0.000575777
0.000584026
0.000592757
0.000601935
0.000611524
0.00062149
0.000631797
0.000642413
0.00065331
0.000664424
0.000675772
0.000688528
0.000702756
0.000718439
0.000735428
0.00075342
0.000771912
0.000790165
0.0008072
0.00082184
0.000832809
0.000838913
0.000839262
0.000833475
0.000821811
0.00080515
0.000784822
0.000762337
0.000739125
0.000716338
0.000694785
0.000674943
0.000657029
0.000641078
0.00062701
0.00061469
0.000603959
0.000594618
0.000586426
0.000578686
0.000571246
0.000564041
0.000557026
0.000550171
0.000543448
0.000536835
0.000530316
0.000523876
0.000517507
0.000511204
0.000504965
0.000498794
0.000492697
0.000486686
0.000480775
0.000474981
0.000469326
0.000463834
0.00045853
0.000453442
0.000448598
0.000444026
0.000439755
0.000435808
0.000432209
0.000428976
0.000426124
0.000423661
0.00042159
0.000419909
0.000418611
0.000417682
0.000417108
0.000416867
0.000416941
0.000417306
0.000417942
0.000418831
0.000419954
0.000421296
0.000422846
0.000424594
0.000426531
0.000428651
0.00043095
0.000433456
0.000436143
0.000438996
0.000441998
0.000445124
0.000448342
0.000451609
0.000454872
0.000458068
0.00046114
0.000464056
0.000466849
0.00235442
0.00229421
0.00223191
0.00216661
0.00209802
0.0020261
0.0019509
0.00187258
0.0017914
0.00170776
0.00162224
0.00153569
0.00144914
0.00136389
0.00128131
0.00120283
0.00112973
0.00106303
0.00100343
0.000951256
0.00090648
0.000868775
0.000837595
0.00081226
0.000792035
0.000776185
0.000764023
0.000754932
0.000748373
0.000743892
0.000741109
0.000739709
0.000739433
0.000740069
0.00074144
0.000743396
0.000745811
0.000748574
0.000751587
0.00075476
0.000758012
0.000761268
0.000764456
0.00076751
0.000770365
0.000772964
0.00077525
0.000777173
0.000778686
0.000779747
0.000780453
0.00078069
0.000780413
0.000779587
0.000778176
0.000776142
0.000773445
0.000770039
0.000765883
0.000760934
0.000755153
0.000748506
0.000740968
0.00073252
0.000723157
0.000712888
0.000701735
0.000689737
0.00067695
0.000663447
0.000649317
0.000634664
0.000619605
0.000604268
0.000588788
0.000573305
0.000557959
0.000542887
0.00052822
0.000514083
0.000500585
0.000487827
0.000475893
0.000464854
0.000454764
0.000445667
0.000437592
0.000430557
0.000424571
0.000419634
0.00041574
0.00041288
0.00041104
0.000410208
0.00041037
0.000411512
0.000413625
0.000416703
0.000420747
0.000425739
0.000431702
0.000439448
0.000449355
0.000461875
0.000477469
0.000496583
0.000519581
0.000546643
0.00057764
0.000611973
0.000648427
0.000685104
0.000719506
0.000748868
0.000770705
0.000783422
0.000786731
0.000781659
0.00077015
0.000754479
0.000736732
0.000718513
0.000700889
0.000684475
0.000669561
0.00065623
0.000644454
0.000634104
0.000624966
0.000616323
0.000608007
0.000599944
0.000592088
0.000584406
0.000576872
0.000569464
0.000562166
0.000554966
0.000547855
0.000540831
0.000533893
0.000527048
0.000520304
0.000513674
0.000507177
0.000500832
0.000494663
0.000488696
0.000482961
0.000477485
0.000472298
0.000467429
0.000462903
0.000458745
0.000454974
0.000451603
0.000448641
0.000446089
0.000443942
0.000442188
0.000440808
0.00043978
0.000439075
0.000438664
0.000438514
0.000438596
0.000438881
0.00043934
0.000439953
0.000440699
0.000441562
0.000442532
0.000443598
0.000444754
0.000445994
0.000447315
0.000448722
0.000450207
0.000451763
0.000453386
0.000455072
0.00045682
0.000458633
0.000460523
0.000462515
0.000464652
0.000467002
0.0028172
0.00277522
0.00273267
0.00268822
0.00264109
0.00259102
0.0025378
0.00248124
0.0024212
0.00235753
0.00229016
0.00221903
0.0021442
0.00206581
0.00198418
0.00189979
0.00181339
0.00172592
0.00163856
0.00155259
0.00146935
0.00139011
0.00131596
0.00124775
0.00118602
0.00113105
0.00108284
0.00104116
0.00100562
0.000975724
0.000950923
0.000930648
0.000914342
0.000901485
0.000891596
0.000884243
0.000879042
0.00087565
0.000873765
0.000873122
0.000873483
0.000874638
0.000876401
0.000878606
0.000881105
0.000883766
0.000886473
0.000889123
0.000891624
0.000893896
0.000895868
0.000897864
0.000899846
0.000901804
0.000903731
0.000905612
0.000907418
0.000909109
0.000910629
0.00091191
0.000912869
0.000913408
0.000913416
0.000912771
0.000911343
0.000908993
0.000905582
0.000900971
0.00089503
0.000887637
0.000878688
0.000868103
0.000855827
0.000841835
0.000826138
0.000808785
0.000789859
0.000769481
0.000747807
0.000725021
0.000701333
0.000676972
0.000652175
0.000627188
0.000602248
0.000577585
0.000553412
0.000529921
0.00050728
0.00048563
0.000465088
0.00044574
0.000427652
0.000410866
0.000395407
0.000381284
0.000368493
0.000357027
0.000346876
0.000338009
0.000330381
0.000323455
0.000317584
0.000313297
0.000311223
0.000312095
0.000316749
0.000326113
0.000341175
0.000362915
0.000392159
0.000429327
0.000474039
0.00052466
0.000577989
0.000629427
0.000673915
0.000707402
0.000728104
0.000736773
0.000735936
0.0007287
0.000717838
0.000705386
0.000692652
0.000680393
0.00066901
0.000658649
0.00064927
0.000640273
0.000631516
0.000622935
0.000614497
0.00060618
0.000597969
0.000589853
0.000581823
0.000573874
0.000566005
0.000558219
0.000550523
0.000542928
0.000535449
0.000528105
0.000520919
0.000513918
0.00050713
0.000500585
0.000494317
0.000488355
0.000482733
0.000477479
0.00047262
0.000468176
0.000464165
0.000460596
0.000457472
0.000454788
0.000452531
0.000450681
0.000449212
0.000448093
0.000447286
0.000446757
0.000446465
0.000446376
0.000446456
0.000446676
0.000447012
0.000447443
0.000447955
0.000448538
0.000449184
0.000449889
0.000450654
0.000451478
0.000452364
0.000453318
0.000454346
0.000455454
0.000456654
0.00045796
0.00045939
0.000460972
0.00046274
0.000464736
0.000467019
0.00320577
0.00318426
0.00316349
0.00314224
0.00311944
0.00309483
0.00306813
0.00303911
0.00300752
0.00297308
0.00293553
0.00289463
0.00285013
0.00280183
0.00274958
0.00269326
0.00263281
0.00256824
0.00249966
0.00242727
0.00235137
0.00227244
0.00219109
0.00210807
0.00202424
0.0019405
0.0018578
0.001777
0.00169888
0.00162407
0.00155308
0.00148624
0.00142376
0.00136574
0.00131218
0.00126303
0.00121819
0.00117756
0.00114098
0.00110833
0.00107943
0.00105413
0.00103223
0.00101353
0.000997771
0.000984712
0.000974074
0.000965571
0.000958915
0.00095382
0.000950016
0.000947365
0.000945639
0.000944606
0.000944239
0.000944589
0.000945715
0.000947677
0.000950527
0.000954302
0.000959021
0.000964684
0.000971267
0.000978722
0.00098697
0.000995903
0.00100538
0.00101523
0.00102523
0.00103514
0.00104468
0.00105354
0.00106138
0.00106784
0.00107256
0.00107519
0.00107535
0.00107274
0.00106708
0.00105813
0.00104574
0.00102983
0.00101043
0.000987619
0.000961599
0.000932644
0.000901104
0.000867386
0.000831942
0.000795248
0.000757783
0.000720014
0.000682376
0.000645265
0.000609024
0.00057394
0.000540241
0.000508106
0.000477667
0.000448983
0.000421974
0.000394394
0.00036659
0.000339237
0.000313128
0.000289134
0.000268161
0.000251112
0.000238876
0.000232351
0.000232502
0.000240435
0.000257436
0.00028488
0.000323859
0.000374404
0.000434375
0.000498669
0.000559845
0.000610628
0.000646834
0.000668451
0.000678373
0.000680331
0.000677501
0.000672093
0.000665487
0.00065848
0.000651493
0.000644393
0.000637148
0.00062975
0.000622212
0.00061455
0.000606782
0.000598926
0.000590998
0.000583015
0.000574995
0.000566961
0.000558936
0.000550947
0.000543025
0.000535203
0.000527519
0.000520011
0.000512721
0.000505689
0.000498958
0.000492568
0.000486555
0.000480955
0.000475794
0.000471096
0.000466877
0.000463142
0.000459891
0.000457113
0.000454789
0.000452894
0.000451394
0.00045025
0.000449422
0.000448867
0.000448543
0.000448411
0.000448435
0.000448585
0.000448836
0.000449169
0.000449571
0.000450032
0.000450548
0.000451116
0.000451738
0.000452418
0.000453161
0.000453975
0.000454868
0.000455852
0.000456942
0.000458154
0.00045951
0.000461037
0.000462768
0.000464745
0.00046702
0.00346742
0.00346521
0.00346441
0.00346439
0.00346391
0.00346283
0.00346094
0.00345803
0.00345389
0.00344828
0.00344096
0.00343164
0.00342006
0.00340592
0.00338895
0.00336887
0.00334541
0.00331833
0.00328743
0.00325255
0.00321359
0.00317052
0.00312339
0.0030723
0.00301744
0.00295902
0.00289734
0.0028327
0.00276541
0.0026958
0.00262414
0.00255069
0.00247564
0.00239914
0.00232127
0.00224209
0.00216165
0.00208002
0.00199734
0.00191387
0.00183
0.00174629
0.00166348
0.00158245
0.00150419
0.00142971
0.00135996
0.00129579
0.00123785
0.00118651
0.00114191
0.00110389
0.00107251
0.00104749
0.00102531
0.00100548
0.00098786
0.000972278
0.000958734
0.000947267
0.000937944
0.000930845
0.000926068
0.00092371
0.000923863
0.000926611
0.000932025
0.000940157
0.00095104
0.000964679
0.000981043
0.00100006
0.00102159
0.00104546
0.00107139
0.00109903
0.00112792
0.00115752
0.00118716
0.0012161
0.00124346
0.00126834
0.00128976
0.00130677
0.00131847
0.00132403
0.00132282
0.0013144
0.00129856
0.00127537
0.00124517
0.00120853
0.00116622
0.00111918
0.00106842
0.00101497
0.00095982
0.000903892
0.000847995
0.000792756
0.00073831
0.00068062
0.000620107
0.00055793
0.000495616
0.000434925
0.00037768
0.000325569
0.000279963
0.000241796
0.000211566
0.000189458
0.000175552
0.000170091
0.000173731
0.000187726
0.000213859
0.000253821
0.000307661
0.000371646
0.000437536
0.000495551
0.000539431
0.00056862
0.000586246
0.000596109
0.000601128
0.000603158
0.000603379
0.000602597
0.000600961
0.000598554
0.00059545
0.000591717
0.000587417
0.000582604
0.000577329
0.00057164
0.000565585
0.000559213
0.000552575
0.000545725
0.00053872
0.000531621
0.000524492
0.000517399
0.000510408
0.000503585
0.000496996
0.0004907
0.000484753
0.000479203
0.000474092
0.00046945
0.000465297
0.000461644
0.000458489
0.000455822
0.000453619
0.000451851
0.00045048
0.000449464
0.000448759
0.000448317
0.000448096
0.000448054
0.000448155
0.00044837
0.000448675
0.00044905
0.000449485
0.000449972
0.000450506
0.000451088
0.00045172
0.000452407
0.000453154
0.000453971
0.000454866
0.000455851
0.000456941
0.000458153
0.00045951
0.000461037
0.000462768
0.000464745
0.00046702
0.00356974
0.00358405
0.00359962
0.00361682
0.00363433
0.00365219
0.00367025
0.0036884
0.00370651
0.00372441
0.00374193
0.00375888
0.00377503
0.00379018
0.00380406
0.00381644
0.00382705
0.00383564
0.00384195
0.00384573
0.00384674
0.00384475
0.00383957
0.00383101
0.00381892
0.00380319
0.00378374
0.00376054
0.00373359
0.00370294
0.00366866
0.00363086
0.00358966
0.00354519
0.00349758
0.00344694
0.00339333
0.00333672