/*--------------------------------*- C++ -*----------------------------------*\
| =========                 |                                                 |
| \\      /  F ield         | OpenFOAM: The Open Source CFD Toolbox           |
|  \\    /   O peration     | Version:  2406                                  |
|   \\  /    A nd           | Website:  www.openfoam.com                      |
|    \\/     M anipulation  |                                                 |
\*---------------------------------------------------------------------------*/
FoamFile
{
    version     2.0;
    format      ascii;
    arch        "LSB;label=32;scalar=64";
    class       volScalarField;
    location    "1083";
    object      p;
}
// * * * * * * * * * * * * * * * * * * * * * * * * * * * * * * * * * * * * * //

dimensions      [0 2 -2 0 0 0 0];

internalField   nonuniform List<scalar> 
5619
(
-0.00275144
0.00306812
0.00398303
0.00474712
0.00444498
0.0033123
0.00129027
-0.00166006
-0.00558729
-0.0105506
-0.0166131
-0.0238473
-0.0323331
-0.0421615
-0.053434
-0.0662645
-0.0807791
-0.0971156
-0.115422
-0.135854
-0.158572
-0.183735
-0.211493
-0.241984
-0.275319
-0.311577
-0.350784
-0.392911
-0.437852
-0.485421
-0.535343
-0.587258
-0.640723
-0.69522
-0.750169
-0.804935
-0.858841
-0.911185
-0.961248
-1.00832
-1.05171
-1.09078
-1.12491
-1.15357
-1.17632
-1.19277
-1.20265
-1.20578
-1.20207
-1.19153
-1.1743
-1.15058
-1.12065
-1.08487
-1.04364
-0.997462
-0.946886
-0.892448
-0.834675
-0.774106
-0.71127
-0.646675
-0.580804
-0.514102
-0.446979
-0.379802
-0.312898
-0.246549
-0.181002
-0.116459
-0.0530905
0.00896978
0.0696172
0.128775
0.186392
0.242436
0.296896
0.349775
0.401092
0.450877
0.499166
0.546008
0.591454
0.635563
0.678395
0.720015
0.760487
0.799881
0.838262
0.875699
0.912259
0.948009
0.983016
1.01734
1.05105
1.08422
1.11691
1.14906
1.18076
1.21322
1.24784
1.28526
1.32571
1.369
1.41497
1.4633
1.51363
1.56548
1.61831
1.67152
1.72447
1.77656
1.82719
1.87584
1.92207
1.96553
2.00601
2.04335
2.07753
2.10857
2.1366
2.16176
2.18422
2.20422
2.22195
2.23758
2.25132
2.26383
2.27574
2.28734
2.29878
2.31009
2.32134
2.33256
2.3438
2.35509
2.36646
2.37794
2.38955
2.40131
2.41324
2.42533
2.43759
2.45002
2.4626
2.47531
2.48814
2.50105
2.514
2.52695
2.53984
2.55262
2.56523
2.57761
2.58968
2.60138
2.61263
2.62338
2.63356
2.64312
2.652
2.66019
2.66764
2.67436
2.68034
2.6856
2.69018
2.69413
2.69748
2.70032
2.70271
2.70471
2.70641
2.70786
2.70914
2.71031
2.7114
2.71248
2.71358
2.71473
2.71597
2.71733
2.71887
2.72064
2.7226
2.7247
2.73536
-0.00275173
0.00306862
0.00398468
0.00475035
0.00444955
0.00331826
0.00129771
-0.00165098
-0.00557637
-0.0105375
-0.0165976
-0.0238288
-0.0323113
-0.0421356
-0.0534033
-0.0662282
-0.0807361
-0.097065
-0.115363
-0.135785
-0.158492
-0.183642
-0.211387
-0.241862
-0.275179
-0.311414
-0.350597
-0.392696
-0.43761
-0.485153
-0.535055
-0.586958
-0.64042
-0.694925
-0.749891
-0.804681
-0.858616
-0.910991
-0.961087
-1.00819
-1.05162
-1.09071
-1.12486
-1.15355
-1.17632
-1.1928
-1.2027
-1.20584
-1.20215
-1.19163
-1.17441
-1.1507
-1.12078
-1.08502
-1.04387
-0.997777
-0.947257
-0.892851
-0.835107
-0.774567
-0.711759
-0.647192
-0.581348
-0.514671
-0.447571
-0.380415
-0.313529
-0.247198
-0.181665
-0.117134
-0.0537752
0.0082772
0.0689187
0.128073
0.185687
0.241729
0.296189
0.34907
0.40039
0.450177
0.49847
0.545315
0.590766
0.634879
0.677716
0.71934
0.759818
0.799216
0.837602
0.875044
0.911608
0.947363
0.982373
1.0167
1.05041
1.08358
1.11626
1.14839
1.18004
1.21252
1.24721
1.28466
1.32514
1.36845
1.41443
1.46278
1.51313
1.565
1.61785
1.67107
1.72405
1.77616
1.82681
1.87547
1.92172
1.96521
2.0057
2.04306
2.07725
2.10832
2.13635
2.16152
2.184
2.204
2.22174
2.23736
2.25108
2.26359
2.27552
2.28713
2.29857
2.3099
2.32115
2.33238
2.34362
2.35491
2.36629
2.37777
2.38939
2.40116
2.41309
2.42519
2.43746
2.44989
2.46248
2.4752
2.48804
2.50095
2.51391
2.52686
2.53976
2.55255
2.56517
2.57755
2.58963
2.60133
2.6126
2.62335
2.63353
2.6431
2.65199
2.66017
2.66763
2.67435
2.68034
2.6856
2.69019
2.69413
2.69749
2.70032
2.70271
2.70472
2.70642
2.70787
2.70915
2.71032
2.71142
2.7125
2.7136
2.71475
2.71598
2.71733
2.71884
2.72053
2.72223
2.72333
2.72784
-0.00275516
0.00307342
0.00399278
0.00476026
0.00446173
0.00333285
0.00131508
-0.00163044
-0.00555217
-0.0105092
-0.0165645
-0.0237903
-0.0322667
-0.0420841
-0.053344
-0.06616
-0.0806576
-0.0969741
-0.115257
-0.135662
-0.158347
-0.183473
-0.211189
-0.241632
-0.274915
-0.311115
-0.350262
-0.392327
-0.437209
-0.484727
-0.534612
-0.58651
-0.639981
-0.694511
-0.749517
-0.804363
-0.858369
-0.910828
-0.961021
-1.00823
-1.05178
-1.091
-1.12531
-1.15416
-1.1771
-1.19376
-1.20387
-1.20723
-1.20376
-1.19348
-1.17652
-1.15307
-1.12343
-1.08795
-1.04703
-1.00117
-0.950884
-0.896712
-0.839189
-0.778852
-0.716229
-0.651828
-0.586127
-0.519571
-0.452569
-0.385489
-0.318655
-0.252354
-0.18683
-0.12229
-0.0589026
0.00319439
0.0638951
0.123121
0.180818
0.236953
0.291513
0.3445
0.395931
0.445833
0.494243
0.541208
0.586778
0.631011
0.673967
0.71571
0.756305
0.795819
0.834319
0.871873
0.908548
0.94441
0.979527
1.01396
1.04777
1.08104
1.11382
1.14604
1.17777
1.21034
1.24515
1.28272
1.3233
1.36673
1.41284
1.46131
1.51179
1.56378
1.61676
1.6701
1.7232
1.77542
1.82618
1.87495
1.92129
1.96486
2.00542
2.04285
2.0771
2.10822
2.1363
2.16151
2.18402
2.20405
2.22181
2.23746
2.25119
2.26372
2.27566
2.28729
2.29875
2.31009
2.32135
2.33259
2.34384
2.35514
2.36652
2.37802
2.38964
2.40141
2.41335
2.42545
2.43772
2.45015
2.46274
2.47546
2.4883
2.50121
2.51416
2.52711
2.54001
2.55279
2.5654
2.57777
2.58984
2.60153
2.61278
2.62352
2.63369
2.64324
2.65212
2.66029
2.66774
2.67444
2.68041
2.68567
2.69024
2.69418
2.69753
2.70036
2.70274
2.70475
2.70644
2.70789
2.70917
2.71034
2.71144
2.71252
2.71362
2.71477
2.71602
2.71739
2.71894
2.72076
2.72281
2.72486
2.72992
-0.00276157
0.00308807
0.00401481
0.00478318
0.00448802
0.00336261
0.00134917
-0.00159125
-0.00550689
-0.0104566
-0.0165033
-0.0237186
-0.0321825
-0.041985
-0.0532275
-0.0660235
-0.0804987
-0.096791
-0.115049
-0.135428
-0.15809
-0.183194
-0.210893
-0.241323
-0.274596
-0.31079
-0.349933
-0.391994
-0.43687
-0.484378
-0.53425
-0.586132
-0.639589
-0.694108
-0.749114
-0.803974
-0.858011
-0.910523
-0.960794
-1.00811
-1.05179
-1.09119
-1.1257
-1.15479
-1.17801
-1.195
-1.20546
-1.20922
-1.20618
-1.19635
-1.17986
-1.15693
-1.12782
-1.09288
-1.05252
-1.00721
-0.957456
-0.903786
-0.846739
-0.786849
-0.724641
-0.660619
-0.59526
-0.529009
-0.462271
-0.395414
-0.328765
-0.262611
-0.197195
-0.132728
-0.0693807
-0.00729204
0.0534295
0.112703
0.170472
0.226701
0.281374
0.334492
0.386068
0.436129
0.484709
0.531852
0.577609
0.622035
0.665189
0.707133
0.747933
0.787653
0.826361
0.864123
0.901006
0.937076
0.972398
1.00704
1.04105
1.07452
1.1075
1.13993
1.17185
1.20462
1.23967
1.27749
1.31836
1.36209
1.40851
1.45732
1.50814
1.56048
1.6138
1.66749
1.72092
1.77347
1.82452
1.87357
1.92017
1.96397
2.00474
2.04234
2.07675
2.108
2.1362
2.1615
2.1841
2.2042
2.22202
2.23771
2.25149
2.26405
2.27602
2.28767
2.29916
2.31052
2.32181
2.33307
2.34434
2.35566
2.36707
2.37858
2.39022
2.40201
2.41396
2.42608
2.43836
2.45081
2.4634
2.47613
2.48897
2.50188
2.51483
2.52777
2.54066
2.55343
2.56602
2.57837
2.59042
2.60208
2.6133
2.624
2.63414
2.64365
2.65248
2.66062
2.66802
2.67469
2.68062
2.68585
2.69039
2.69429
2.69762
2.70043
2.70279
2.70478
2.70647
2.70791
2.70918
2.71034
2.71144
2.71252
2.71361
2.71476
2.716
2.71734
2.71885
2.72055
2.72239
2.72428
2.72933
-0.00276738
0.00312516
0.00406496
0.00483269
0.00454248
0.00342239
0.00141605
-0.00151592
-0.00542165
-0.0103601
-0.0163942
-0.023596
-0.0320453
-0.0418327
-0.0530592
-0.0658382
-0.0802947
-0.0965656
-0.114798
-0.135146
-0.157768
-0.182823
-0.210461
-0.240819
-0.27401
-0.310112
-0.349157
-0.391118
-0.435898
-0.483322
-0.53313
-0.584974
-0.638427
-0.692982
-0.748068
-0.803055
-0.85727
-0.910012
-0.960568
-1.00823
-1.0523
-1.09215
-1.12717
-1.15682
-1.18066
-1.1983
-1.20947
-1.21396
-1.21167
-1.20261
-1.1869
-1.16476
-1.13642
-1.10223
-1.0626
-1.01799
-0.968897
-0.915841
-0.859356
-0.799974
-0.738218
-0.674593
-0.609576
-0.543612
-0.47711
-0.410439
-0.34393
-0.277871
-0.212511
-0.148062
-0.0846979
-0.0225614
0.0382364
0.0976119
0.155506
0.211881
0.266719
0.320018
0.37179
0.42206
0.470861
0.518236
0.564234
0.608908
0.652317
0.694522
0.735588
0.775579
0.814561
0.852601
0.889765
0.926119
0.961727
0.996653
1.03096
1.06471
1.09798
1.13071
1.16293
1.19599
1.23136
1.26955
1.3108
1.35496
1.40183
1.45113
1.50245
1.55533
1.60919
1.66343
1.71741
1.77048
1.82205
1.87157
1.91861
1.96282
2.00395
2.04188
2.07657
2.10807
2.13648
2.16197
2.18472
2.20496
2.22289
2.23869
2.25255
2.26517
2.2772
2.2889
2.30044
2.31184
2.32317
2.33447
2.34577
2.35713
2.36856
2.38009
2.39175
2.40356
2.41552
2.42764
2.43993
2.45237
2.46496
2.47768
2.4905
2.50338
2.51631
2.52921
2.54206
2.55478
2.56732
2.57961
2.59159
2.60318
2.61432
2.62495
2.635
2.64443
2.65318
2.66123
2.66855
2.67514
2.681
2.68616
2.69064
2.69449
2.69777
2.70055
2.70288
2.70484
2.70651
2.70794
2.70921
2.71036
2.71146
2.71254
2.71363
2.71479
2.71604
2.7174
2.71894
2.72069
2.72258
2.7245
2.72908
-0.00274732
0.00321685
0.00417391
0.00493338
0.00464347
0.00352342
0.00151941
-0.00140865
-0.00530852
-0.0102389
-0.0162624
-0.0234501
-0.0318811
-0.0416446
-0.0528408
-0.0655816
-0.0799913
-0.0962061
-0.114373
-0.134646
-0.157185
-0.18215
-0.209693
-0.239953
-0.273045
-0.309049
-0.348
-0.389874
-0.434578
-0.481944
-0.531719
-0.583564
-0.637062
-0.691717
-0.746964
-0.802182
-0.856704
-0.909831
-0.960851
-1.00906
-1.05376
-1.09432
-1.13012
-1.16063
-1.1854
-1.20404
-1.21625
-1.22183
-1.22066
-1.21274
-1.1982
-1.17722
-1.15004
-1.11697
-1.07842
-1.03482
-0.986665
-0.934461
-0.878739
-0.820029
-0.758851
-0.695711
-0.631088
-0.565431
-0.499153
-0.43263
-0.366198
-0.30015
-0.234743
-0.170195
-0.106686
-0.0443643
0.0166533
0.0762784
0.134447
0.191119
0.246271
0.299899
0.352013
0.402634
0.451795
0.499535
0.545903
0.590951
0.634738
0.677323
0.71877
0.759143
0.798508
0.836932
0.87448
0.911219
0.947213
0.982526
1.01722
1.05136
1.08503
1.11816
1.15077
1.18423
1.22005
1.25873
1.30053
1.34528
1.3928
1.44278
1.49482
1.54845
1.60308
1.6581
1.71286
1.76669
1.81899
1.86921
1.9169
1.9617
2.00337
2.04178
2.07689
2.10875
2.13748
2.16323
2.18621
2.20663
2.22472
2.24066
2.25463
2.26734
2.27944
2.29121
2.30281
2.31428
2.32566
2.33701
2.34837
2.35976
2.37123
2.3828
2.39449
2.40632
2.41829
2.43043
2.44272
2.45516
2.46774
2.48043
2.49322
2.50607
2.51894
2.53179
2.54455
2.55719
2.56963
2.58181
2.59367
2.60513
2.61613
2.62662
2.63652
2.64579
2.65439
2.66229
2.66946
2.67591
2.68165
2.68669
2.69107
2.69483
2.69803
2.70074
2.70302
2.70495
2.70658
2.70799
2.70924
2.71038
2.71147
2.71254
2.71363
2.71478
2.71602
2.71738
2.7189
2.72064
2.72252
2.72455
2.72874
-0.00265434
0.00337878
0.00436568
0.00511332
0.00482267
0.00369904
0.00169363
-0.00123338
-0.00512785
-0.0100474
-0.0160536
-0.0232174
-0.0316171
-0.0413419
-0.052491
-0.0651759
-0.0795199
-0.0956583
-0.113737
-0.13391
-0.156336
-0.181175
-0.208581
-0.238695
-0.271636
-0.307489
-0.346295
-0.38804
-0.432642
-0.479942
-0.529702
-0.581599
-0.635227
-0.690103
-0.745676
-0.801331
-0.856409
-0.910216
-0.962044
-1.01119
-1.05696
-1.09871
-1.13583
-1.16778
-1.1941
-1.21439
-1.22835
-1.23576
-1.23645
-1.23042
-1.2178
-1.19874
-1.17344
-1.1422
-1.10538
-1.0634
-1.01673
-0.96587
-0.911328
-0.853629
-0.793291
-0.730818
-0.666694
-0.601375
-0.535282
-0.468802
-0.402283
-0.336032
-0.270319
-0.205375
-0.141392
-0.0785321
-0.0169215
0.0433405
0.102182
0.159552
0.215424
0.269786
0.322643
0.374013
0.423924
0.472414
0.519529
0.56532
0.609844
0.65316
0.69533
0.73642
0.776494
0.81562
0.853863
0.89129
0.927967
0.963957
0.999322
1.03413
1.06846
1.10225
1.13552
1.16965
1.20618
1.24564
1.28828
1.33393
1.38241
1.43341
1.48651
1.54123
1.59697
1.65311
1.70896
1.76387
1.8172
1.8684
1.91699
1.96261
2.00501
2.04407
2.07975
2.1121
2.14124
2.16734
2.19061
2.21128
2.22957
2.24567
2.25978
2.2726
2.28479
2.29664
2.30831
2.31983
2.33127
2.34266
2.35404
2.36546
2.37694
2.38852
2.4002
2.41201
2.42396
2.43606
2.44829
2.46067
2.47316
2.48576
2.49844
2.51115
2.52388
2.53656
2.54914
2.56158
2.5738
2.58575
2.59736
2.60857
2.6193
2.62951
2.63913
2.64813
2.65645
2.66408
2.67101
2.67722
2.68274
2.68758
2.69178
2.69539
2.69846
2.70107
2.70326
2.70512
2.7067
2.70807
2.70929
2.71042
2.71149
2.71256
2.71365
2.7148
2.71605
2.71741
2.71894
2.72067
2.72254
2.72463
2.7284
-0.00243233
0.00356713
0.00460245
0.00534078
0.00506318
0.00394951
0.00195611
-0.000958934
-0.00483987
-0.0097427
-0.0157268
-0.0228606
-0.0312208
-0.0408947
-0.0519801
-0.0645874
-0.0788387
-0.0948681
-0.11282
-0.132849
-0.155112
-0.179772
-0.206984
-0.236892
-0.269619
-0.30526
-0.343864
-0.385428
-0.429886
-0.477096
-0.526838
-0.578812
-0.632633
-0.687839
-0.743895
-0.800204
-0.856116
-0.910949
-0.964
-1.01457
-1.06197
-1.10555
-1.14471
-1.1789
-1.20765
-1.23056
-1.24731
-1.25766
-1.26142
-1.25855
-1.24916
-1.23335
-1.21125
-1.18312
-1.14926
-1.11006
-1.06595
-1.01739
-0.964878
-0.908921
-0.850027
-0.788698
-0.725421
-0.660659
-0.594847
-0.52839
-0.461653
-0.394968
-0.328627
-0.262883
-0.197955
-0.134023
-0.0712391
-0.00972019
0.0504427
0.109184
0.166461
0.222249
0.276544
0.329354
0.3807
0.430615
0.479138
0.526318
0.572209
0.616869
0.660359
0.702744
0.744088
0.784459
0.823924
0.86255
0.900404
0.937552
0.974056
1.00999
1.04543
1.08031
1.11465
1.14989
1.18759
1.22831
1.2723
1.3194
1.3694
1.42199
1.47673
1.53312
1.59055
1.64837
1.70588
1.76239
1.81725
1.86988
1.91979
1.9666
2.01007
2.05006
2.08654
2.11956
2.14926
2.17583
2.19948
2.22045
2.23899
2.25529
2.26955
2.28248
2.29476
2.30669
2.31842
2.32999
2.34146
2.35287
2.36426
2.37567
2.38714
2.39867
2.41031
2.42205
2.43391
2.4459
2.45801
2.47023
2.48255
2.49495
2.5074
2.51986
2.5323
2.54467
2.55692
2.56899
2.58082
2.59236
2.60353
2.61428
2.62455
2.63428
2.64343
2.65195
2.65981
2.667
2.6735
2.67933
2.68448
2.689
2.69292
2.69628
2.69915
2.70158
2.70364
2.70538
2.70688
2.7082
2.70937
2.71047
2.71153
2.71258
2.71367
2.71481
2.71605
2.71742
2.71895
2.72067
2.72254
2.7247
2.72805
-0.00200705
0.00372807
0.00482636
0.00554576
0.00529094
0.00420161
0.00224261
-0.000632018
-0.00446657
-0.00931823
-0.0152467
-0.0223199
-0.0306126
-0.0402089
-0.0512027
-0.0636998
-0.0778181
-0.0936879
-0.111452
-0.131262
-0.153277
-0.177661
-0.204572
-0.234159
-0.266555
-0.301863
-0.340148
-0.381423
-0.425643
-0.472692
-0.52238
-0.574436
-0.628507
-0.684164
-0.740901
-0.798148
-0.855282
-0.911639
-0.966533
-1.01928
-1.06919
-1.11564
-1.15801
-1.19575
-1.22839
-1.25549
-1.27673
-1.29184
-1.30064
-1.30298
-1.29888
-1.28837
-1.27153
-1.24851
-1.21959
-1.18507
-1.14533
-1.10079
-1.05188
-0.99909
-0.94289
-0.883768
-0.822208
-0.758675
-0.693621
-0.627466
-0.560606
-0.493402
-0.426179
-0.359228
-0.292805
-0.227129
-0.162385
-0.0987279
-0.0362801
0.0248621
0.0846282
0.14297
0.199861
0.255289
0.30926
0.361794
0.412918
0.462673
0.511105
0.558266
0.604214
0.649011
0.692721
0.735409
0.777143
0.81799
0.85802
0.897297
0.935888
0.973869
1.01131
1.04815
1.08441
1.12163
1.16145
1.20439
1.25075
1.30032
1.35289
1.40809
1.46548
1.52451
1.58455
1.64489
1.70484
1.76367
1.82071
1.87537
1.92714
1.97564
2.02061
2.06191
2.0995
2.13347
2.16395
2.19115
2.2153
2.23667
2.25552
2.27206
2.28652
2.29957
2.31193
2.32393
2.3357
2.34729
2.35876
2.37015
2.38149
2.39284
2.4042
2.41562
2.42711
2.43867
2.45033
2.46208
2.47392
2.48583
2.4978
2.50982
2.52184
2.53383
2.54576
2.55758
2.56923
2.58067
2.59184
2.60267
2.61312
2.62312
2.63263
2.6416
2.64999
2.65777
2.66491
2.67141
2.67726
2.68248
2.68709
2.69112
2.69461
2.69761
2.70017
2.70234
2.7042
2.70578
2.70716
2.70839
2.7095
2.71055
2.71158
2.71262
2.71369
2.71484
2.71608
2.71744
2.71897
2.72068
2.72255
2.72476
2.72771
-0.0012928
0.00384788
0.00502734
0.00571284
0.00548605
0.00442578
0.00251019
-0.000310258
-0.00407637
-0.00884341
-0.014669
-0.0216202
-0.0297718
-0.0392086
-0.0500253
-0.0623272
-0.0762305
-0.0918621
-0.109359
-0.128868
-0.150543
-0.174543
-0.201027
-0.23015
-0.262051
-0.296849
-0.33463
-0.375436
-0.419256
-0.466016
-0.515568
-0.567691
-0.622084
-0.678364
-0.736074
-0.794683
-0.8536
-0.912187
-0.969776
-1.02569
-1.07925
-1.12983
-1.17682
-1.21965
-1.25785
-1.29099
-1.31873
-1.34081
-1.35708
-1.36741
-1.37157
-1.36944
-1.361
-1.34632
-1.32551
-1.29878
-1.26641
-1.2287
-1.18606
-1.13888
-1.08761
-1.0327
-0.974616
-0.913815
-0.850751
-0.785865
-0.719577
-0.652285
-0.584357
-0.516132
-0.447918
-0.379987
-0.312579
-0.245901
-0.180129
-0.115407
-0.051851
0.0104478
0.0714236
0.131032
0.189247
0.246061
0.30148
0.355524
0.408221
0.459612
0.509743
0.558667
0.606442
0.653129
0.698793
0.743499
0.787315
0.830309
0.872545
0.914106
0.955067
0.995334
1.03494
1.07567
1.11926
1.16617
1.21675
1.27072
1.32782
1.38764
1.44965
1.51324
1.57769
1.64224
1.70613
1.76859
1.82894
1.88657
1.94098
1.99182
2.03882
2.08188
2.12097
2.15618
2.18768
2.2157
2.24049
2.26236
2.28158
2.29839
2.31304
2.32621
2.33864
2.35066
2.36243
2.37399
2.38538
2.39667
2.40788
2.41905
2.43021
2.44138
2.45259
2.46382
2.47511
2.48643
2.4978
2.50918
2.52058
2.53195
2.54327
2.55451
2.56562
2.57656
2.58728
2.59773
2.60787
2.61763
2.62697
2.63585
2.64422
2.65206
2.65933
2.66601
2.6721
2.67761
2.68253
2.68689
2.69073
2.69406
2.69695
2.69944
2.70156
2.70339
2.70496
2.70633
2.70754
2.70864
2.70967
2.71066
2.71165
2.71266
2.71372
2.71486
2.71609
2.71745
2.71898
2.72069
2.72256
2.7248
2.72741
-0.000251951
0.00394283
0.00522526
0.0058599
0.00566518
0.00463534
0.00276545
-6.60267e-07
-0.00370071
-0.00838802
-0.0141159
-0.0209458
-0.0289453
-0.0381909
-0.0487697
-0.0607802
-0.0743339
-0.0895558
-0.106583
-0.125567
-0.146665
-0.170044
-0.195871
-0.22431
-0.255517
-0.289628
-0.326752
-0.366962
-0.410284
-0.456689
-0.506081
-0.558297
-0.613093
-0.67015
-0.72907
-0.78938
-0.85054
-0.911956
-0.973
-1.03303
-1.09142
-1.14754
-1.20083
-1.25072
-1.29674
-1.33842
-1.3754
-1.40737
-1.43411
-1.45556
-1.4715
-1.48143
-1.48505
-1.48232
-1.47327
-1.4581
-1.43699
-1.41014
-1.37779
-1.34021
-1.29773
-1.25069
-1.19949
-1.14454
-1.08626
-1.02508
-0.961427
-0.895728
-0.828389
-0.759799
-0.690325
-0.62031
-0.550067
-0.479881
-0.410003
-0.340655
-0.272027
-0.204279
-0.137543
-0.0719233
-0.00749895
0.0556734
0.117558
0.178136
0.237407
0.295382
0.352086
0.407552
0.461822
0.514946
0.566977
0.617975
0.668001
0.717118
0.765389
0.812899
0.859725
0.90573
0.95095
0.997593
1.04756
1.10123
1.15898
1.22046
1.28534
1.35308
1.42306
1.49449
1.56654
1.6383
1.70887
1.7774
1.84314
1.90547
1.96392
2.01815
2.06798
2.11337
2.15438
2.19114
2.22389
2.25287
2.27841
2.30081
2.32041
2.33749
2.35231
2.36553
2.37794
2.3899
2.40156
2.41296
2.42415
2.43519
2.4461
2.45692
2.46768
2.47839
2.48907
2.49973
2.51037
2.52098
2.53156
2.54208
2.55254
2.5629
2.57312
2.58319
2.59305
2.60267
2.612
2.621
2.62963
2.63784
2.64561
2.65289
2.65967
2.66593
2.67165
2.67685
2.68152
2.68568
2.68936
2.69259
2.6954
2.69784
2.69995
2.70177
2.70334
2.70472
2.70593
2.70702
2.70802
2.70897
2.70988
2.7108
2.71174
2.71271
2.71376
2.71488
2.71611
2.71747
2.719
2.7207
2.72257
2.72483
2.7272
0.00104454
0.00401554
0.00542569
0.00599438
0.00583475
0.0048358
0.00301452
0.000306764
-0.00332166
-0.00792323
-0.0135491
-0.0202583
-0.0281157
-0.0371937
-0.047573
-0.0593435
-0.0726054
-0.0874697
-0.104059
-0.12251
-0.142969
-0.165596
-0.19056
-0.218035
-0.248195
-0.281206
-0.317219
-0.35636
-0.398716
-0.444332
-0.493193
-0.545223
-0.600271
-0.65811
-0.718431
-0.780842
-0.84487
-0.909966
-0.975525
-1.04092
-1.1055
-1.16865
-1.22976
-1.28823
-1.34355
-1.39524
-1.44289
-1.48619
-1.5249
-1.55891
-1.58854
-1.61361
-1.63319
-1.647
-1.65501
-1.65697
-1.65259
-1.64183
-1.62489
-1.60198
-1.57335
-1.53926
-1.49999
-1.45587
-1.4072
-1.35436
-1.29771
-1.23764
-1.17454
-1.10882
-1.04086
-0.97105
-0.899758
-0.827341
-0.754131
-0.68044
-0.606554
-0.532732
-0.459207
-0.38618
-0.313827
-0.242292
-0.171695
-0.102128
-0.0336606
0.0336615
0.099812
0.164782
0.22858
0.291225
0.352748
0.413191
0.4726
0.531027
0.588526
0.645181
0.701066
0.756001
0.809993
0.865805
0.925664
0.989909
1.05897
1.13239
1.20971
1.29026
1.37321
1.45756
1.54222
1.62606
1.70793
1.78676
1.86164
1.93184
1.99687
2.05647
2.11058
2.15931
2.20288
2.24158
2.27576
2.30578
2.33205
2.35493
2.37481
2.39201
2.40685
2.41998
2.43218
2.44389
2.45522
2.46623
2.47698
2.48751
2.49784
2.50802
2.51806
2.52799
2.5378
2.54751
2.55711
2.5666
2.57596
2.58518
2.59423
2.60309
2.61172
2.6201
2.62819
2.63595
2.64335
2.65036
2.65695
2.66309
2.66876
2.67396
2.67867
2.6829
2.68666
2.68997
2.69286
2.69536
2.69751
2.69936
2.70093
2.70229
2.70347
2.7045
2.70542
2.70626
2.70706
2.70782
2.70858
2.70934
2.71013
2.71096
2.71183
2.71277
2.71379
2.7149
2.71612
2.71748
2.719
2.7207
2.72257
2.72484
2.72708
0.00244328
0.00406591
0.00562744
0.0061214
0.00599775
0.0050266
0.00325055
0.000596164
-0.00296664
-0.00748903
-0.0130186
-0.0196108
-0.0273257
-0.036231
-0.0464024
-0.057925
-0.0708943
-0.0854172
-0.101613
-0.119612
-0.139559
-0.161609
-0.185928
-0.21269
-0.242073
-0.274256
-0.309411
-0.347695
-0.389241
-0.434149
-0.482472
-0.534207
-0.589287
-0.647569
-0.708828
-0.772751
-0.838944
-0.906916
-0.976116
-1.04597
-1.11593
-1.18544
-1.254
-1.32114
-1.38638
-1.44928
-1.50941
-1.56634
-1.61964
-1.66878
-1.71317
-1.75367
-1.79211
-1.8249
-1.84965
-1.86862
-1.88244
-1.89103
-1.89431
-1.89192
-1.88353
-1.86907
-1.84859
-1.82225
-1.79023
-1.75276
-1.7101
-1.66253
-1.61036
-1.55391
-1.49353
-1.42959
-1.36245
-1.2925
-1.22009
-1.1456
-1.06937
-0.991727
-0.913002
-0.833492
-0.753479
-0.673223
-0.592964
-0.51292
-0.433282
-0.354216
-0.275863
-0.198335
-0.121715
-0.0460654
0.0285797
0.102205
0.174813
0.24642
0.317053
0.386773
0.455649
0.523467
0.590167
0.659005
0.732792
0.812094
0.897343
0.987977
1.08338
1.18265
1.28471
1.38825
1.49187
1.59408
1.6934
1.78848
1.87809
1.96127
2.03736
2.10599
2.16717
2.22118
2.26855
2.30989
2.34581
2.37693
2.4038
2.42695
2.44684
2.46389
2.47845
2.49115
2.50282
2.51391
2.52455
2.53479
2.54469
2.55428
2.56361
2.57269
2.58154
2.59019
2.59863
2.60687
2.61491
2.62273
2.63032
2.63766
2.64473
2.6515
2.65796
2.66406
2.6698
2.67513
2.68004
2.68452
2.68854
2.6921
2.6952
2.69786
2.70009
2.70191
2.70337
2.70449
2.70534
2.70595
2.70639
2.70669
2.7069
2.70707
2.70723
2.7074
2.70762
2.7079
2.70824
2.70866
2.70916
2.70973
2.71039
2.71112
2.71193
2.71283
2.71382
2.71492
2.71613
2.71749
2.71901
2.72071
2.72257
2.72484
2.72708
0.00377491
0.0041033
0.00583211
0.00625259
0.00616531
0.00521943
0.00348508
0.000878875
-0.00262531
-0.00707814
-0.0125248
-0.0190183
-0.0266155
-0.0353802
-0.0453833
-0.0567044
-0.0694327
-0.083668
-0.0995227
-0.117122
-0.136606
-0.158128
-0.181857
-0.207973
-0.236668
-0.268139
-0.302586
-0.340201
-0.38116
-0.425616
-0.473685
-0.525437
-0.580886
-0.639976
-0.702579
-0.768468
-0.837336
-0.908741
-0.982137
-1.05695
-1.13258
-1.20843
-1.28392
-1.35847
-1.43149
-1.50246
-1.57088
-1.63632
-1.69844
-1.75697
-1.8117
-1.8622
-1.90777
-1.95246
-1.9998
-2.04746
-2.08861
-2.12023
-2.14476
-2.16315
-2.17597
-2.18331
-2.18522
-2.18152
-2.17201
-2.1566
-2.13531
-2.10819
-2.07537
-2.03697
-1.99318
-1.94419
-1.89023
-1.83157
-1.7685
-1.70132
-1.63036
-1.55596
-1.47844
-1.39816
-1.31542
-1.23055
-1.14387
-1.05566
-0.966223
-0.875838
-0.78479
-0.693354
-0.601802
-0.510386
-0.419336
-0.328845
-0.239063
-0.150097
-0.0620178
0.0251582
0.111449
0.196606
0.280468
0.366528
0.458493
0.557538
0.664044
0.777324
0.896541
1.02053
1.14786
1.27687
1.40571
1.5325
1.65537
1.77259
1.88266
1.98437
2.07686
2.15961
2.23244
2.29553
2.34945
2.39511
2.43363
2.46609
2.49348
2.51658
2.53608
2.55252
2.56636
2.57817
2.58879
2.59875
2.60816
2.61707
2.62554
2.63361
2.64131
2.64868
2.65572
2.66246
2.6689
2.67504
2.68087
2.68639
2.69158
2.69643
2.70092
2.70503
2.70874
2.71203
2.7149
2.71732
2.71929
2.7208
2.72187
2.72251
2.72273
2.72258
2.72209
2.72132
2.72031
2.71913
2.71784
2.7165
2.71517
2.7139
2.71274
2.71172
2.71088
2.71021
2.70975
2.70947
2.70938
2.70947
2.70971
2.71011
2.71063
2.71127
2.71202
2.71288
2.71385
2.71493
2.71614
2.71748
2.719
2.7207
2.72257
2.72483
2.7272
0.00491571
0.00414646
0.00604431
0.00640198
0.00635071
0.00542851
0.00373241
0.00116953
-0.00228244
-0.00667389
-0.0120479
-0.0184555
-0.0259511
-0.0345956
-0.0444571
-0.0556115
-0.0681446
-0.0821531
-0.0977458
-0.115045
-0.134189
-0.155331
-0.17864
-0.204302
-0.232515
-0.263488
-0.297436
-0.334572
-0.375097
-0.419192
-0.467005
-0.518638
-0.574141
-0.63349
-0.696597
-0.763271
-0.833258
-0.906141
-0.98139
-1.05847
-1.13692
-1.21626
-1.29609
-1.37606
-1.45577
-1.53486
-1.61295
-1.68956
-1.76415
-1.83604
-1.90449
-1.9686
-2.02733
-2.07994
-2.12514
-2.16285
-2.20001
-2.24143
-2.28626
-2.33164
-2.3716
-2.40445
-2.43131
-2.4526
-2.46855
-2.4792
-2.48451
-2.48422
-2.47808
-2.46585
-2.4474
-2.42267
-2.39168
-2.35453
-2.31136
-2.26231
-2.20757
-2.14732
-2.08177
-2.01115
-1.93569
-1.85567
-1.77137
-1.6831
-1.59116
-1.49585
-1.39745
-1.29622
-1.19247
-1.0865
-0.978691
-0.869504
-0.759475
-0.649167
-0.539101
-0.429661
-0.321074
-0.21372
-0.107916
-0.00013852
0.114469
0.237954
0.370608
0.511526
0.659545
0.813113
0.970362
1.12919
1.28735
1.44258
1.59269
1.73567
1.86977
1.99358
2.10605
2.20658
2.29496
2.37131
2.43602
2.48972
2.53342
2.56858
2.59686
2.61974
2.6384
2.65368
2.66623
2.67657
2.68556
2.69377
2.7013
2.70822
2.71459
2.72046
2.72586
2.73084
2.7354
2.73957
2.74336
2.74677
2.7498
2.75244
2.7547
2.75655
2.758
2.75902
2.75961
2.75976
2.75946
2.75872
2.75754
2.75593
2.75392
2.75154
2.74883
2.74586
2.74267
2.73934
2.73593
2.73253
2.72921
2.72603
2.72306
2.72035
2.71794
2.71585
2.71409
2.71268
2.71161
2.71085
2.71038
2.71017
2.7102
2.71043
2.71084
2.7114
2.7121
2.71293
2.71387
2.71494
2.71614
2.71748
2.71899
2.7207
2.72256
2.72481
2.72741
0.00581371
0.00421658
0.00626941
0.00658135
0.00656525
0.00566685
0.00400684
0.00148425
-0.00191995
-0.00625607
-0.0115655
-0.0178979
-0.0253058
-0.0338479
-0.04359
-0.0546053
-0.0669771
-0.0807992
-0.0961781
-0.113235
-0.132105
-0.152944
-0.175922
-0.201228
-0.229069
-0.259663
-0.293237
-0.330021
-0.370234
-0.414079
-0.46173
-0.513313
-0.568907
-0.628512
-0.692077
-0.759421
-0.830341
-0.904396
-0.980976
-1.05949
-1.13942
-1.22023
-1.30143
-1.38265
-1.46337
-1.54325
-1.62202
-1.69945
-1.77541
-1.84986
-1.92281
-1.99436
-2.06461
-2.13347
-2.20029
-2.26392
-2.32327
-2.37638
-2.42039
-2.45639
-2.49039
-2.52526
-2.56117
-2.59692
-2.62906
-2.65666
-2.68048
-2.70074
-2.71745
-2.7305
-2.73959
-2.74428
-2.74407
-2.73846
-2.72696
-2.70908
-2.68442
-2.65264
-2.61355
-2.56705
-2.51314
-2.4519
-2.38349
-2.30808
-2.22591
-2.13722
-2.04224
-1.94124
-1.83452
-1.72234
-1.60497
-1.48261
-1.35551
-1.22409
-1.08923
-0.952352
-0.815062
-0.678939
-0.545012
-0.409907
-0.267387
-0.114367
0.0493148
0.222373
0.403133
0.58948
0.778982
0.969043
1.15704
1.34046
1.51702
1.68474
1.84195
1.98733
2.11987
2.23889
2.34401
2.43523
2.51298
2.57793
2.63084
2.6725
2.70414
2.72772
2.74543
2.75903
2.76966
2.77789
2.7846
2.79042
2.79542
2.79971
2.80336
2.80642
2.80896
2.81101
2.81261
2.81377
2.81451
2.81485
2.81479
2.81432
2.81345
2.81217
2.81048
2.80837
2.80583
2.80287
2.79948
2.79567
2.79147
2.7869
2.78199
2.77681
2.7714
2.76584
2.76021
2.7546
2.74908
2.74373
2.73865
2.7339
2.72954
2.72562
2.72216
2.71918
2.71669
2.71467
2.7131
2.71194
2.71117
2.71073
2.71058
2.71068
2.711
2.7115
2.71216
2.71296
2.71389
2.71494
2.71613
2.71747
2.71898
2.72069
2.72256
2.72476
2.72771
0.00647809
0.00432821
0.00651006
0.00679573
0.00681356
0.00594044
0.00431572
0.00183228
-0.00152625
-0.00581011
-0.0110594
-0.0173225
-0.0246506
-0.0331008
-0.042737
-0.0536307
-0.065863
-0.0795258
-0.0947239
-0.111577
-0.13022
-0.150807
-0.17351
-0.198522
-0.226053
-0.256326
-0.289577
-0.326044
-0.36596
-0.40954
-0.45697
-0.508391
-0.563897
-0.623497
-0.687172
-0.754736
-0.826056
-0.90067
-0.977893
-1.05711
-1.13786
-1.21958
-1.30182
-1.38431
-1.46645
-1.54791
-1.62846
-1.70775
-1.78551
-1.86142
-1.9352
-2.00669
-2.07576
-2.14237
-2.20663
-2.26887
-2.3296
-2.389
-2.44691
-2.5032
-2.5574
-2.60808
-2.65282
-2.69166
-2.72802
-2.76344
-2.79774
-2.82974
-2.85757
-2.88099
-2.90023
-2.91546
-2.92697
-2.93521
-2.94067
-2.94358
-2.94395
-2.94146
-2.93535
-2.92455
-2.90774
-2.88356
-2.85081
-2.80864
-2.75657
-2.69424
-2.62149
-2.53822
-2.44444
-2.34023
-2.22584
-2.10165
-1.96808
-1.82541
-1.67366
-1.51277
-1.3438
-1.17065
-0.998655
-0.827146
-0.649006
-0.459544
-0.258913
-0.0489891
0.16767
0.388203
0.609519
0.82866
1.04289
1.24984
1.44753
1.63436
1.80908
1.9708
2.11887
2.2529
2.37263
2.47792
2.56874
2.64538
2.70856
2.75933
2.79857
2.82691
2.84576
2.85787
2.86601
2.87144
2.87519
2.87799
2.87989
2.88102
2.8815
2.88141
2.88083
2.8798
2.87838
2.87658
2.87442
2.87191
2.86904
2.86582
2.86222
2.85825
2.85387
2.84909
2.84389
2.83827
2.83224
2.82582
2.81904
2.81194
2.80457
2.79701
2.78933
2.78162
2.77397
2.76648
2.75924
2.75234
2.74586
2.73987
2.73443
2.72957
2.72531
2.72166
2.71861
2.71613
2.71419
2.71275
2.71175
2.71113
2.71086
2.71087
2.71112
2.71157
2.7122
2.71298
2.71389
2.71494
2.71612
2.71745
2.71896
2.72068
2.72255
2.7247
2.72805
0.00695164
0.00448375
0.00676383
0.00704159
0.00709203
0.00624647
0.00465731
0.00221336
-0.00109974
-0.00533205
-0.0105226
-0.0167188
-0.0239706
-0.0323337
-0.0418706
-0.0526511
-0.0647547
-0.0782715
-0.0933048
-0.109972
-0.128409
-0.148768
-0.171222
-0.195964
-0.223206
-0.253177
-0.286116
-0.322269
-0.361874
-0.405155
-0.452308
-0.503483
-0.558784
-0.618225
-0.681815
-0.749357
-0.820802
-0.895657
-0.973133
-1.0526
-1.13365
-1.21568
-1.29825
-1.38118
-1.46374
-1.54564
-1.62674
-1.70667
-1.78524
-1.86214
-1.93703
-2.00992
-2.08086
-2.1497
-2.21633
-2.28064
-2.34253
-2.40181
-2.4584
-2.51249
-2.56437
-2.61411
-2.66164
-2.70714
-2.75082
-2.79231
-2.83053
-2.86609
-2.90081
-2.93506
-2.96795
-2.99801
-3.02478
-3.04871
-3.06928
-3.08568
-3.09778
-3.10548
-3.10882
-3.10793
-3.10313
-3.09494
-3.0837
-3.06941
-3.05219
-3.0305
-3.00155
-2.96182
-2.9081
-2.83841
-2.75207
-2.64882
-2.52808
-2.38955
-2.23368
-2.06134
-1.87208
-1.66537
-1.44703
-1.2253
-1.00068
-0.76509
-0.520041
-0.267779
-0.0125196
0.242178
0.492531
0.73562
0.969062