/*--------------------------------*- C++ -*----------------------------------*\
| =========                 |                                                 |
| \\      /  F ield         | OpenFOAM: The Open Source CFD Toolbox           |
|  \\    /   O peration     | Version:  2406                                  |
|   \\  /    A nd           | Website:  www.openfoam.com                      |
|    \\/     M anipulation  |                                                 |
\*---------------------------------------------------------------------------*/
FoamFile
{
    version     2.0;
    format      ascii;
    arch        "LSB;label=32;scalar=64";
    class       surfaceScalarField;
    location    "1083";
    object      phi;
}
// * * * * * * * * * * * * * * * * * * * * * * * * * * * * * * * * * * * * * //

dimensions      [0 3 -1 0 0 0 0];

oriented        oriented;

internalField   nonuniform List<scalar> 
10988
(
-6.20818e-05
5.77527e-08
-6.20681e-05
-1.37269e-08
-6.20805e-05
1.23737e-08
-6.21284e-05
4.79237e-08
-6.22019e-05
7.34516e-08
-6.22988e-05
9.69103e-08
-6.24167e-05
1.17899e-07
-6.25543e-05
1.37663e-07
-6.27111e-05
1.56714e-07
-6.28867e-05
1.75648e-07
-6.30816e-05
1.9492e-07
-6.32966e-05
2.14982e-07
-6.35329e-05
2.36273e-07
-6.37921e-05
2.5919e-07
-6.40762e-05
2.84123e-07
-6.43877e-05
3.11474e-07
-6.47293e-05
3.41621e-07
-6.51042e-05
3.74924e-07
-6.5516e-05
4.11718e-07
-6.59682e-05
4.52234e-07
-6.64647e-05
4.96529e-07
-6.70092e-05
5.4448e-07
-6.7605e-05
5.95839e-07
-6.82554e-05
6.50358e-07
-6.89634e-05
7.07987e-07
-6.97325e-05
7.69073e-07
-7.05669e-05
8.34456e-07
-7.14722e-05
9.0531e-07
-7.24549e-05
9.82715e-07
-7.35219e-05
1.067e-06
-7.4679e-05
1.15709e-06
-7.59292e-05
1.25018e-06
-7.72711e-05
1.34188e-06
-7.86979e-05
1.42686e-06
-8.01978e-05
1.49987e-06
-8.17543e-05
1.55649e-06
-8.3348e-05
1.59372e-06
-8.49581e-05
1.61005e-06
-8.65634e-05
1.6053e-06
-8.81436e-05
1.58027e-06
-8.96801e-05
1.53644e-06
-9.11557e-05
1.47567e-06
-9.25557e-05
1.40001e-06
-9.38673e-05
1.31158e-06
-9.50798e-05
1.21248e-06
-9.61846e-05
1.10475e-06
-9.71749e-05
9.90337e-07
-9.8046e-05
8.71123e-07
-9.87949e-05
7.48903e-07
-9.94204e-05
6.25436e-07
-9.99227e-05
5.0237e-07
-0.000100304
3.81123e-07
-0.000100567
2.62853e-07
-0.000100716
1.48882e-07
-0.000100756
4.02437e-08
-0.00010069
-6.62342e-08
-0.000100518
-1.71728e-07
-0.000100246
-2.71533e-07
-9.98837e-05
-3.62672e-07
-9.94389e-05
-4.44742e-07
-9.89212e-05
-5.17731e-07
-9.83394e-05
-5.81827e-07
-9.7702e-05
-6.37345e-07
-9.70173e-05
-6.84705e-07
-9.62929e-05
-7.24399e-07
-9.55359e-05
-7.56969e-07
-9.4753e-05
-7.82992e-07
-9.39499e-05
-8.03065e-07
-9.31321e-05
-8.17783e-07
-9.23044e-05
-8.27732e-07
-9.14709e-05
-8.33476e-07
-9.06353e-05
-8.35556e-07
-8.98009e-05
-8.34484e-07
-8.89701e-05
-8.30733e-07
-8.81454e-05
-8.24743e-07
-8.73285e-05
-8.16913e-07
-8.65209e-05
-8.07608e-07
-8.57237e-05
-7.97153e-07
-8.49379e-05
-7.85841e-07
-8.41639e-05
-7.73933e-07
-8.34023e-05
-7.6166e-07
-8.2653e-05
-7.49224e-07
-8.19162e-05
-7.36805e-07
-8.11917e-05
-7.24555e-07
-8.04791e-05
-7.1261e-07
-7.9778e-05
-7.01083e-07
-7.90879e-05
-6.90076e-07
-7.84082e-05
-6.79673e-07
-7.77383e-05
-6.69948e-07
-7.70773e-05
-6.60964e-07
-7.64246e-05
-6.52773e-07
-7.57791e-05
-6.45422e-07
-7.51402e-05
-6.38949e-07
-7.45068e-05
-6.33389e-07
-7.3878e-05
-6.28775e-07
-7.32529e-05
-6.25145e-07
-7.26304e-05
-6.22539e-07
-7.20094e-05
-6.20975e-07
-7.13888e-05
-6.20586e-07
-7.07668e-05
-6.21952e-07
-7.00776e-05
-6.8921e-07
-6.93189e-05
-7.58762e-07
-6.84887e-05
-8.30136e-07
-6.75867e-05
-9.02052e-07
-6.66137e-05
-9.72987e-07
-6.55726e-05
-1.04109e-06
-6.44683e-05
-1.10428e-06
-6.3308e-05
-1.16036e-06
-6.21008e-05
-1.20714e-06
-6.08582e-05
-1.24262e-06
-5.9593e-05
-1.26516e-06
-5.83194e-05
-1.27363e-06
-5.70519e-05
-1.26753e-06
-5.58048e-05
-1.24709e-06
-5.45916e-05
-1.21317e-06
-5.34243e-05
-1.16728e-06
-5.2313e-05
-1.11134e-06
-5.12654e-05
-1.0476e-06
-5.02871e-05
-9.78363e-07
-4.93811e-05
-9.05912e-07
-4.85488e-05
-8.3231e-07
-4.77895e-05
-7.59342e-07
-4.7101e-05
-6.88461e-07
-4.64802e-05
-6.20789e-07
-4.59231e-05
-5.5713e-07
-4.54251e-05
-4.97976e-07
-4.49815e-05
-4.43655e-07
-4.45869e-05
-3.94585e-07
-4.41981e-05
-3.88835e-07
-4.38133e-05
-3.84762e-07
-4.34308e-05
-3.82524e-07
-4.30487e-05
-3.82034e-07
-4.26655e-05
-3.83216e-07
-4.22796e-05
-3.85977e-07
-4.18893e-05
-3.90224e-07
-4.14935e-05
-3.95856e-07
-4.10907e-05
-4.0277e-07
-4.06798e-05
-4.10853e-07
-4.02599e-05
-4.19986e-07
-3.98298e-05
-4.30034e-07
-3.9389e-05
-4.40852e-07
-3.89367e-05
-4.52276e-07
-3.84726e-05
-4.64123e-07
-3.79964e-05
-4.76187e-07
-3.75082e-05
-4.8824e-07
-3.70081e-05
-5.00026e-07
-3.64969e-05
-5.11266e-07
-3.59752e-05
-5.2165e-07
-3.54444e-05
-5.30846e-07
-3.49059e-05
-5.38497e-07
-3.43616e-05
-5.44229e-07
-3.3814e-05
-5.47654e-07
-3.32656e-05
-5.48385e-07
-3.27196e-05
-5.46039e-07
-3.21793e-05
-5.40262e-07
-3.16486e-05
-5.30738e-07
-3.11313e-05
-5.17212e-07
-3.06318e-05
-4.99512e-07
-3.01543e-05
-4.77568e-07
-2.97028e-05
-4.51432e-07
-2.92815e-05
-4.21292e-07
-2.88941e-05
-3.87482e-07
-2.85436e-05
-3.50479e-07
-2.82327e-05
-3.10893e-07
-2.79632e-05
-2.69436e-07
-2.77364e-05
-2.26886e-07
-2.75523e-05
-1.84034e-07
-2.74107e-05
-1.41618e-07
-2.73104e-05
-1.0026e-07
-2.72501e-05
-6.03954e-08
-2.72279e-05
-2.21833e-08
-2.72413e-05
1.34182e-08
-2.72862e-05
4.49048e-08
-2.73598e-05
7.3603e-08
-2.74619e-05
1.02149e-07
-2.75943e-05
1.3237e-07
-2.77614e-05
1.67078e-07
-2.79721e-05
2.1067e-07
-2.8242e-05
2.69943e-07
-2.8597e-05
3.54984e-07
-2.90766e-05
4.79642e-07
-2.97374e-05
6.60819e-07
-3.06538e-05
9.16384e-07
-3.19162e-05
1.26237e-06
-3.36136e-05
1.69741e-06
-3.58577e-05
2.24409e-06
4.14231e-06
-9.56287e-05
1.23617e-07
-9.56323e-05
-1.01814e-08
-9.56662e-05
4.62933e-08
-9.57545e-05
1.36246e-07
-9.58828e-05
2.01706e-07
-9.60492e-05
2.63307e-07
-9.62511e-05
3.19822e-07
-9.64878e-05
3.74364e-07
-9.67593e-05
4.28233e-07
-9.70666e-05
4.82922e-07
-9.74113e-05
5.3968e-07
-9.77961e-05
5.99728e-07
-9.82241e-05
6.64268e-07
-9.86994e-05
7.34459e-07
-9.92266e-05
8.11423e-07
-9.98114e-05
8.96248e-07
-0.00010046
9.89954e-07
-0.000101178
1.09344e-06
-0.000101974
1.20748e-06
-0.000102854
1.33265e-06
-0.000103827
1.46931e-06
-0.0001049
1.61762e-06
-0.000106082
1.77752e-06
-0.000107381
1.94883e-06
-0.000108804
2.13114e-06
-0.000110358
2.32372e-06
-0.000112049
2.5252e-06
-0.000113877
2.73317e-06
-0.000115838
2.9437e-06
-0.000117922
3.15108e-06
-0.000120113
3.34788e-06
-0.000122388
3.52547e-06
-0.000124721
3.67506e-06
-0.000127083
3.78872e-06
-0.000129444
3.86043e-06
-0.000131774
3.88656e-06
-0.000134046
3.86593e-06
-0.000136235
3.79953e-06
-0.00013832
3.68996e-06
-0.000140281
3.54095e-06
-0.000142101
3.35687e-06
-0.000143768
3.14238e-06
-0.00014527
2.90221e-06
-0.0001466
2.64101e-06
-0.00014775
2.36327e-06
-0.000148719
2.07327e-06
-0.000149504
1.77506e-06
-0.000150105
1.47248e-06
-0.000150525
1.16916e-06
-0.000150768
8.68663e-07
-0.00015084
5.74263e-07
-0.000150748
2.88736e-07
-0.000150499
1.43833e-08
-0.000150101
-2.49152e-07
-0.000149561
-5.00087e-07
-0.000148892
-7.34864e-07
-0.000148112
-9.52042e-07
-0.000147233
-1.15029e-06
-0.000146267
-1.32881e-06
-0.000145225
-1.48747e-06
-0.000144116
-1.62652e-06
-0.000142951
-1.74654e-06
-0.00014174
-1.84833e-06
-0.000140492
-1.93288e-06
-0.000139215
-2.00131e-06
-0.000137917
-2.05485e-06
-0.000136605
-2.09475e-06
-0.000135286
-2.12232e-06
-0.000133965
-2.13886e-06
-0.000132647
-2.14564e-06
-0.000131337
-2.14388e-06
-0.000130037
-2.13476e-06
-0.000128753
-2.11937e-06
-0.000127485
-2.09874e-06
-0.000126235
-2.07382e-06
-0.000125007
-2.04545e-06
-0.0001238
-2.01443e-06
-0.000122616
-1.98145e-06
-0.000121455
-1.94715e-06
-0.000120316
-1.91207e-06
-0.000119201
-1.87671e-06
-0.000118109
-1.84149e-06
-0.000117039
-1.80678e-06
-0.000115991
-1.77292e-06
-0.000114963
-1.74018e-06
-0.000113955
-1.70879e-06
-0.000112967
-1.67896e-06
-0.000111995
-1.65085e-06
-0.000111041
-1.62463e-06
-0.000110101
-1.60039e-06
-0.000109176
-1.57826e-06
-0.000108263
-1.5583e-06
-0.000107361
-1.54059e-06
-0.00010647
-1.52518e-06
-0.000105586
-1.51214e-06
-0.00010471
-1.50149e-06
-0.000103839
-1.4933e-06
-0.000102972
-1.4876e-06
-0.000102109
-1.4845e-06
-0.000101246
-1.48414e-06
-0.000100295
-1.64084e-06
-9.92494e-05
-1.80406e-06
-9.8108e-05
-1.97152e-06
-9.68699e-05
-2.14018e-06
-9.55366e-05
-2.30624e-06
-9.41124e-05
-2.46528e-06
-9.26043e-05
-2.6124e-06
-9.10223e-05
-2.74241e-06
-8.93792e-05
-2.85024e-06
-8.76905e-05
-2.93127e-06
-8.59739e-05
-2.98174e-06
-8.42484e-05
-2.99913e-06
-8.25336e-05
-2.9824e-06
-8.08485e-05
-2.93215e-06
-7.92112e-05
-2.85054e-06
-7.76373e-05
-2.74112e-06
-7.61402e-05
-2.60849e-06
-7.47299e-05
-2.45788e-06
-7.34135e-05
-2.29471e-06
-7.21952e-05
-2.12426e-06
-7.10762e-05
-1.95134e-06
-7.00554e-05
-1.78006e-06
-6.91301e-05
-1.61378e-06
-6.82958e-05
-1.45506e-06
-6.75473e-05
-1.30571e-06
-6.68784e-05
-1.16686e-06
-6.62829e-05
-1.03915e-06
-6.57547e-05
-9.22752e-07
-6.52356e-05
-9.0794e-07
-6.47226e-05
-8.9776e-07
-6.42132e-05
-8.91994e-07
-6.37048e-05
-8.90403e-07
-6.31953e-05
-8.92747e-07
-6.26824e-05
-8.98791e-07
-6.21644e-05
-9.08301e-07
-6.16392e-05
-9.21035e-07
-6.11052e-05
-9.36745e-07
-6.05609e-05
-9.55165e-07
-6.00049e-05
-9.76011e-07
-5.94359e-05
-9.9897e-07
-5.88531e-05
-1.0237e-06
-5.82556e-05
-1.04981e-06
-5.76428e-05
-1.07687e-06
-5.70146e-05
-1.10441e-06
-5.63709e-05
-1.13189e-06
-5.57122e-05
-1.15872e-06
-5.50393e-05
-1.18424e-06
-5.43532e-05
-1.20772e-06
-5.36556e-05
-1.22841e-06
-5.29487e-05
-1.24546e-06
-5.22349e-05
-1.25801e-06
-5.15174e-05
-1.26516e-06
-5.07997e-05
-1.266e-06
-5.00861e-05
-1.25965e-06
-4.93811e-05
-1.24527e-06
-4.86897e-05
-1.22213e-06
-4.80173e-05
-1.18964e-06
-4.73694e-05
-1.14739e-06
-4.67518e-05
-1.09519e-06
-4.61701e-05
-1.03316e-06
-4.56296e-05
-9.61702e-07
-4.51356e-05
-8.81563e-07
-4.46922e-05
-7.93812e-07
-4.43033e-05
-6.99815e-07
-4.39716e-05
-6.0117e-07
-4.36988e-05
-4.99615e-07
-4.3486e-05
-3.96907e-07
-4.33329e-05
-2.94676e-07
-4.32389e-05
-1.9427e-07
-4.32027e-05
-9.66162e-08
-4.32228e-05
-2.01538e-09
-4.3295e-05
8.55837e-08
-4.34159e-05
1.65814e-07
-4.35867e-05
2.44346e-07
-4.38088e-05
3.24317e-07
-4.40862e-05
4.09701e-07
-4.44248e-05
5.05693e-07
-4.48333e-05
6.19176e-07
-4.53224e-05
7.59054e-07
-4.59037e-05
9.36343e-07
-4.65877e-05
1.16358e-06
-4.738e-05
1.45316e-06
-4.82786e-05
1.81498e-06
-4.927e-05
2.25373e-06
-5.03162e-05
2.74359e-06
-5.13566e-05
3.28455e-06
5.21916e-06
-0.000135926
2.24544e-07
-0.000135974
3.73433e-08
-0.00013607
1.42034e-07
-0.000136244
3.10523e-07
-0.000136481
4.38677e-07
-0.00013678
5.62128e-07
-0.000137138
6.78679e-07
-0.000137558
7.93739e-07
-0.000138039
9.09652e-07
-0.000138585
1.02911e-06
-0.0001392
1.15444e-06
-0.000139888
1.2879e-06
-0.000140656
1.43169e-06
-0.000141509
1.58801e-06
-0.000142457
1.75901e-06
-0.000143507
1.94683e-06
-0.000144671
2.1535e-06
-0.000145958
2.38071e-06
-0.00014738
2.6296e-06
-0.000148948
2.90037e-06
-0.000150671
3.19199e-06
-0.000152555
3.50182e-06
-0.000154603
3.8255e-06
-0.000156811
4.15709e-06
-0.000159169
4.48936e-06
-0.00016166
4.81431e-06
-0.000164259
5.1238e-06
-0.000166936
5.41008e-06
-0.000169658
5.66611e-06
-0.000172393
5.8856e-06
-0.000175108
6.06297e-06
-0.000177775
6.19314e-06
-0.000180372
6.27163e-06
-0.000182878
6.29473e-06
-0.000185277
6.25989e-06
-0.000187557
6.16604e-06
-0.000189705
6.01377e-06
-0.00019171
5.80521e-06
-0.000193564
5.54392e-06
-0.000195258
5.23445e-06
-0.000196783
4.8821e-06
-0.000198133
4.49257e-06
-0.000199303
4.07175e-06
-0.000200287
3.62555e-06
-0.000201084
3.1598e-06
-0.000201691
2.68014e-06
-0.000202108
2.19206e-06
-0.000202336
1.70079e-06
-0.000202378
1.21142e-06
-0.000202239
7.29014e-07
-0.000201923
2.58354e-07
-0.000201437
-1.97064e-07
-0.000200788
-6.34454e-07
-0.000199987
-1.05014e-06
-0.000199046
-1.44067e-06
-0.000197977
-1.80385e-06
-0.000196792
-2.13789e-06
-0.0001955
-2.44139e-06
-0.000194116
-2.7135e-06
-0.000192649
-2.95401e-06
-0.000191112
-3.16333e-06
-0.000189517
-3.34232e-06
-0.000187873
-3.49225e-06
-0.000186191
-3.61465e-06
-0.000184481
-3.71132e-06
-0.000182752
-3.78419e-06
-0.000181011
-3.83532e-06
-0.000179267
-3.86678e-06
-0.000177525
-3.88067e-06
-0.000175791
-3.87905e-06
-0.000174071
-3.86389e-06
-0.000172369
-3.83711e-06
-0.000170688
-3.80048e-06
-0.000169031
-3.75566e-06
-0.000167401
-3.7042e-06
-0.000165799
-3.6475e-06
-0.000164226
-3.58683e-06
-0.000162684
-3.52334e-06
-0.000161173
-3.45805e-06
-0.000159694
-3.39188e-06
-0.000158245
-3.32562e-06
-0.000156826
-3.25998e-06
-0.000155437
-3.19558e-06
-0.000154077
-3.13293e-06
-0.000152745
-3.0725e-06
-0.000151439
-3.01467e-06
-0.000150158
-2.95977e-06
-0.000148901
-2.90809e-06
-0.000147666
-2.85984e-06
-0.000146451
-2.81524e-06
-0.000145255
-2.77443e-06
-0.000144076
-2.73754e-06
-0.000142912
-2.70468e-06
-0.000141761
-2.67594e-06
-0.000140622
-2.65137e-06
-0.000139492
-2.63103e-06
-0.00013837
-2.61497e-06
-0.000137255
-2.60322e-06
-0.000136143
-2.59576e-06
-0.000135035
-2.59262e-06
-0.000133812
-2.86361e-06
-0.00013247
-3.14608e-06
-0.000131006
-3.43569e-06
-0.000129419
-3.72706e-06
-0.000127712
-4.01349e-06
-0.00012589
-4.28722e-06
-0.000123963
-4.53969e-06
-0.000121943
-4.76194e-06
-0.000119848
-4.9452e-06
-0.000117698
-5.08158e-06
-0.000115515
-5.1647e-06
-0.000113324
-5.19039e-06
-0.000111149
-5.15705e-06
-0.000109015
-5.06591e-06
-0.000106945
-4.92093e-06
-0.000104958
-4.72839e-06
-0.00010307
-4.49632e-06
-0.000101294
-4.23383e-06
-9.96382e-05
-3.95031e-06
-9.81076e-05
-3.65483e-06
-9.67034e-05
-3.35562e-06
-9.54237e-05
-3.05971e-06
-9.42647e-05
-2.7728e-06
-9.32206e-05
-2.49919e-06
-9.22844e-05
-2.24189e-06
-9.14485e-05
-2.00279e-06
-9.07048e-05
-1.78278e-06
-9.00456e-05
-1.58201e-06
-8.9398e-05
-1.55551e-06
-8.87585e-05
-1.53724e-06
-8.81239e-05
-1.52664e-06
-8.7491e-05
-1.52326e-06
-8.68572e-05
-1.52663e-06
-8.62196e-05
-1.53634e-06
-8.55759e-05
-1.55197e-06
-8.49239e-05
-1.57309e-06
-8.42614e-05
-1.59927e-06
-8.35865e-05
-1.63004e-06
-8.28976e-05
-1.66491e-06
-8.21932e-05
-1.70333e-06
-8.14722e-05
-1.74472e-06
-8.07336e-05
-1.7884e-06
-7.99768e-05
-1.83364e-06
-7.92017e-05
-1.8796e-06
-7.84082e-05
-1.92538e-06
-7.75969e-05
-1.96995e-06
-7.6769e-05
-2.01219e-06
-7.59258e-05
-2.05087e-06
-7.50696e-05
-2.08467e-06
-7.42029e-05
-2.11218e-06
-7.3329e-05
-2.13191e-06
-7.24518e-05
-2.14232e-06
-7.15759e-05
-2.14189e-06
-7.07064e-05
-2.12911e-06
-6.98491e-05
-2.10257e-06
-6.90103e-05
-2.06101e-06
-6.81965e-05
-2.00342e-06
-6.74148e-05
-1.92911e-06
-6.66722e-05
-1.83776e-06
-6.59758e-05
-1.72954e-06
-6.53324e-05
-1.60512e-06
-6.47482e-05
-1.46576e-06
-6.42288e-05
-1.31324e-06
-6.37787e-05
-1.14987e-06
-6.34015e-05
-9.78348e-07
-6.30995e-05
-8.0164e-07
-6.28736e-05
-6.22771e-07
-6.27237e-05
-4.44608e-07
-6.26484e-05
-2.69624e-07
-6.26453e-05
-9.9714e-08
-6.27093e-05
6.20436e-08
-6.28357e-05
2.11966e-07
-6.30218e-05
3.51918e-07
-6.32643e-05
4.86841e-07
-6.35599e-05
6.19906e-07
-6.3905e-05
7.5486e-07
-6.42955e-05
8.96098e-07
-6.47252e-05
1.0489e-06
-6.51858e-05
1.21967e-06
-6.56658e-05
1.41633e-06
-6.61506e-05
1.64842e-06
-6.6624e-05
1.92649e-06
-6.70695e-05
2.2605e-06
-6.74721e-05
2.65631e-06
-6.78124e-05
3.08391e-06
-6.80684e-05
3.54053e-06
5.38086e-06
-0.000187317
4.10501e-07
-0.000187486
2.07022e-07
-0.000187729
3.85281e-07
-0.000188083
6.64231e-07
-0.000188534
8.89088e-07
-0.000189082
1.11106e-06
-0.00018973
1.32627e-06
-0.000190478
1.54212e-06
-0.000191331
1.76174e-06
-0.00019229
1.9889e-06
-0.000193363
2.22681e-06
-0.000194553
2.47833e-06
-0.000195867
2.74578e-06
-0.00019731
3.03087e-06
-0.000198886
3.33452e-06
-0.000200596
3.65681e-06
-0.000202439
3.99692e-06
-0.000204411
4.35317e-06
-0.000206505
4.72306e-06
-0.000208708
5.10334e-06
-0.000211006
5.49014e-06
-0.000213383
5.87899e-06
-0.000215823
6.26489e-06
-0.000218308
6.64239e-06
-0.000220824
7.00575e-06
-0.000223359
7.34906e-06
-0.000225902
7.66637e-06
-0.000228443
7.95181e-06
-0.000230977
8.19951e-06
-0.000233495
8.40351e-06
-0.000235989
8.55769e-06
-0.000238452
8.65578e-06
-0.000240872
8.69169e-06
-0.000243237
8.66001e-06
-0.000245534
8.55662e-06
-0.000247747
8.37919e-06
-0.000249861
8.12744e-06
-0.000251859
7.80319e-06
-0.000253725
7.41007e-06
-0.000255444
6.95324e-06
-0.000257001
6.43896e-06
-0.000258382
5.87423e-06
-0.000259577
5.26651e-06
-0.000260575
4.62348e-06
-0.000261368
3.95289e-06
-0.00026195
3.26241e-06
-0.000262318
2.55959e-06
-0.000262469
1.85175e-06
-0.000262404
1.14613e-06
-0.000262125
4.50078e-07
-0.000261637
-2.29515e-07
-0.000260947
-8.87305e-07
-0.000260063
-1.51816e-06
-0.000258996
-2.11679e-06
-0.000257758
-2.6789e-06
-0.000256361
-3.20109e-06
-0.000254818
-3.68056e-06
-0.000253144
-4.11525e-06
-0.000251354
-4.50398e-06
-0.000249461
-4.84649e-06
-0.000247481
-5.14329e-06
-0.000245428
-5.39562e-06
-0.000243315
-5.60527e-06
-0.000241155
-5.77448e-06
-0.000238961
-5.90585e-06
-0.000236743
-6.00224e-06
-0.000234511
-6.06665e-06
-0.000232276
-6.10218e-06
-0.000230045
-6.11192e-06
-0.000227825
-6.09892e-06
-0.000225622
-6.06612e-06
-0.000223443
-6.01634e-06
-0.000221291
-5.95223e-06
-0.000219171
-5.87626e-06
-0.000217084
-5.79071e-06
-0.000215034
-5.69766e-06
-0.000213022
-5.59902e-06
-0.000211049
-5.49648e-06
-0.000209115
-5.39157e-06
-0.000207222
-5.28563e-06
-0.000205367
-5.17987e-06
-0.000203552
-5.07532e-06
-0.000201775
-4.97291e-06
-0.000200034
-4.8734e-06
-0.000198329
-4.77749e-06
-0.000196658
-4.68574e-06
-0.000195019
-4.59865e-06
-0.000193411
-4.51663e-06
-0.000191831
-4.44003e-06
-0.000190277
-4.36913e-06
-0.000188747
-4.30416e-06
-0.000187239
-4.24531e-06
-0.000185751
-4.19273e-06
-0.00018428
-4.14653e-06
-0.000182825
-4.10681e-06
-0.000181382
-4.07362e-06
-0.00017995
-4.04701e-06
-0.000178527
-4.02701e-06
-0.000177109
-4.01358e-06
-0.000175695
-4.00668e-06
-0.000174135
-4.42333e-06
-0.000172424
-4.85725e-06
-0.000170558
-5.30165e-06
-0.000168537
-5.74812e-06
-0.000166364
-6.18623e-06
-0.000164047
-6.60394e-06
-0.000161599
-6.98797e-06
-0.000159037
-7.32451e-06
-0.000156382
-7.60012e-06
-0.00015366
-7.80275e-06
-0.000150902
-7.92282e-06
-0.000148139
-7.95418e-06
-0.000145401
-7.89474e-06
-0.00014272
-7.74679e-06
-0.000140124
-7.51675e-06
-0.000137638
-7.21463e-06
-0.000135281
-6.85301e-06
-0.000133069
-6.44602e-06
-0.000131011
-6.00815e-06
-0.000129113
-5.55326e-06
-0.000127375
-5.09387e-06
-0.000125794
-4.64061e-06
-0.000124364
-4.20201e-06
-0.000123079
-3.78447e-06
-0.000121929
-3.39242e-06
-0.000120903
-3.02858e-06
-0.000119991
-2.69417e-06
-0.000119184
-2.38932e-06
-0.000118392
-2.34802e-06
-0.00011761
-2.31924e-06
-0.000116834
-2.30205e-06
-0.000116062
-2.29575e-06
-0.000115289
-2.29962e-06
-0.000114512
-2.31302e-06
-0.000113729
-2.33528e-06
-0.000112936
-2.36575e-06
-0.000112132
-2.40374e-06
-0.000111313
-2.44855e-06
-0.000110479
-2.4994e-06
-0.000109626
-2.55546e-06
-0.000108755
-2.6158e-06
-0.000107864
-2.67943e-06
-0.000106953
-2.7452e-06
-0.000106021
-2.81186e-06
-0.000105068
-2.87802e-06
-0.000104096
-2.94215e-06
-0.000103105
-3.00256e-06
-0.000102099
-3.05741e-06
-0.000101079
-3.10474e-06
-0.000100048
-3.14244e-06
-9.9012e-05
-3.16832e-06
-9.79742e-05
-3.18016e-06
-9.69404e-05
-3.17569e-06
-9.59167e-05
-3.15276e-06
-9.49099e-05
-3.10935e-06
-9.39272e-05
-3.04371e-06
-9.29762e-05
-2.95444e-06
-9.20647e-05
-2.84063e-06
-9.12005e-05
-2.70198e-06
-9.03911e-05
-2.5389e-06
-8.96437e-05
-2.35257e-06
-8.89644e-05
-2.14503e-06
-8.83585e-05
-1.91914e-06
-8.78298e-05
-1.67853e-06
-8.73807e-05
-1.42744e-06
-8.70118e-05
-1.17053e-06
-8.6722e-05
-9.12628e-07
-8.65082e-05
-6.58358e-07
-8.6366e-05
-4.11874e-07
-8.62891e-05
-1.76586e-07
-8.62715e-05
4.44252e-08
-8.63072e-05
2.47699e-07
-8.63889e-05
4.33641e-07
-8.65084e-05
6.06293e-07
-8.66574e-05
7.68875e-07
-8.68278e-05
9.25305e-07
-8.7012e-05
1.08025e-06
-8.72024e-05
1.2393e-06
-8.73919e-05
1.40922e-06
-8.75738e-05
1.59824e-06
-8.77417e-05
1.81625e-06
-8.78892e-05
2.07401e-06
-8.80102e-05
2.38157e-06
-8.80988e-05
2.74488e-06
-8.81457e-05
3.1308e-06
-8.81361e-05
3.53092e-06
5.18899e-06
-0.000251924
7.79927e-07
-0.000252381
6.63943e-07
-0.000252917
9.20929e-07
-0.000253576
1.32323e-06
-0.00025435
1.66373e-06
-0.000255247
2.0079e-06
-0.000256268
2.34678e-06
-0.000257412
2.68628e-06
-0.000258677
3.0269e-06
-0.000260059
3.37035e-06
-0.00026155
3.71801e-06
-0.000263143
4.07116e-06
-0.000264828
4.43079e-06
-0.000266595
4.79775e-06
-0.000268433
5.17271e-06
-0.000270332
5.55627e-06
-0.000272284
5.94888e-06
-0.000274282
6.35083e-06
-0.000276321
6.76207e-06
-0.000278399
7.18198e-06
-0.000280518
7.60919e-06
-0.000282681
8.04125e-06
-0.00028489
8.47454e-06
-0.000287152
8.90413e-06
-0.00028947
9.32392e-06
-0.000291848
9.7268e-06
-0.000294287
1.01048e-05
-0.000296784
1.04495e-05
-0.000299336
1.07518e-05
-0.000301935
1.10023e-05
-0.000304569
1.11913e-05
-0.000307222
1.13093e-05
-0.000309878
1.1347e-05
-0.000312514
1.12967e-05
-0.00031511
1.11523e-05
-0.000317641
1.091e-05
-0.000320082
1.0569e-05
-0.00032241
1.0131e-05
-0.0003246
9.60011e-06
-0.00032663
8.98258e-06
-0.000328477
8.28619e-06
-0.000330123
7.51986e-06
-0.000331549
6.69331e-06
-0.000332742
5.81668e-06
-0.00033369
4.90034e-06
-0.000334382
3.95472e-06
-0.000334813
2.99014e-06
-0.000334978
2.01672e-06
-0.000334876
1.04447e-06
-0.00033451
8.38914e-08
-0.000333884
-8.55526e-07
-0.000333005
-1.76583e-06
-0.000331884
-2.6395e-06
-0.000330532
-3.4692e-06
-0.000328962
-4.2486e-06
-0.000327191
-4.97248e-06
-0.000325234
-5.63672e-06
-0.000323111
-6.23841e-06
-0.000320839
-6.77585e-06
-0.000318437
-7.24858e-06
-0.000315923
-7.65723e-06
-0.000313316
-8.00341e-06
-0.000310631
-8.28957e-06
-0.000307887
-8.5188e-06
-0.000305098
-8.69473e-06
-0.000302279
-8.82136e-06
-0.000299443
-8.90293e-06
-0.000296601
-8.9438e-06
-0.000293765
-8.94835e-06
-0.000290943
-8.92092e-06
-0.000288143
-8.86567e-06
-0.000285373
-8.78661e-06
-0.000282637
-8.6875e-06
-0.000279942
-8.57185e-06
-0.00027729
-8.44291e-06
-0.000274684
-8.30362e-06
-0.000272126
-8.15667e-06
-0.000269618
-8.0045e-06
-0.00026716
-7.84923e-06
-0.000264753
-7.69281e-06
-0.000262396
-7.5369e-06
-0.000260089
-7.38298e-06
-0.000257829
-7.23235e-06
-0.000255616
-7.0861e-06
-0.000253449
-6.9452e-06
-0.000251324
-6.81046e-06
-0.00024924
-6.68257e-06
-0.000247195
-6.56211e-06
-0.000245185
-6.44956e-06
-0.000243209
-6.34532e-06
-0.000241263
-6.24972e-06
-0.000239346
-6.16301e-06
-0.000237453
-6.08539e-06
-0.000235582
-6.01703e-06
-0.000233731
-5.95803e-06
-0.000231896
-5.90847e-06
-0.000230075
-5.86839e-06
-0.000228264
-5.83782e-06
-0.000226461
-5.81671e-06
-0.000224663
-5.80501e-06
-0.000222679
-6.40665e-06
-0.000220504
-7.03271e-06
-0.000218132
-7.67343e-06
-0.000215564
-8.31643e-06
-0.000212804
-8.94653e-06
-0.000209861
-9.54619e-06
-0.000206753
-1.00961e-05
-0.000203502
-1.05762e-05
-0.000200135
-1.09669e-05
-0.000196686
-1.12511e-05
-0.000193194
-1.14149e-05
-0.000189699
-1.14498e-05
-0.00018624
-1.13532e-05
-0.000182858
-1.11288e-05
-0.000179588
-1.07865e-05
-0.000176462
-1.03412e-05
-0.000173503
-9.8115e-06
-0.000170731
-9.21814e-06
-0.000168157
-8.58217e-06
-0.000165787
-7.92362e-06
-0.00016362
-7.26044e-06
-0.000161653
-6.60775e-06
-0.000159878
-5.97758e-06
-0.000158283
-5.37889e-06
-0.000156858
-4.81776e-06
-0.000155589
-4.29786e-06
-0.000154462
-3.82073e-06
-0.000153465
-3.38641e-06
-0.000152487
-3.32591e-06
-0.000151523
-3.28326e-06
-0.000150568
-3.25707e-06
-0.000149617
-3.24627e-06
-0.000148667
-3.24986e-06
-0.000147713
-3.26685e-06
-0.000146752
-3.29629e-06
-0.000145781
-3.33721e-06
-0.000144796
-3.38864e-06
-0.000143795
-3.44952e-06
-0.000142776
-3.51874e-06
-0.000141736
-3.5951e-06
-0.000140675
-3.67728e-06
-0.00013959
-3.76382e-06
-0.000138482
-3.85312e-06
-0.000137351
-3.94339e-06
-0.000136196
-4.03267e-06
-0.00013502
-4.1188e-06
-0.000133823
-4.19942e-06
-0.000132608
-4.27199e-06
-0.000131379
-4.33377e-06
-0.00013014
-4.3819e-06
-0.000128894
-4.41341e-06
-0.000127649
-4.42525e-06
-0.000126411
-4.41447e-06
-0.000125185
-4.37819e-06
-0.000123981
-4.31383e-06
-0.000122805
-4.21918e-06
-0.000121667
-4.09258e-06
-0.000120575
-3.93306e-06
-0.000119536
-3.7405e-06
-0.000118559
-3.51577e-06
-0.000117651
-3.26082e-06
-0.000116817
-2.97872e-06
-0.000116063
-2.67367e-06
-0.000115391
-2.35084e-06
-0.000114802
-2.01624e-06
-0.000114296
-1.67638e-06
-0.000113871
-1.33791e-06
-0.000113522
-1.00725e-06
-0.000113243
-6.90115e-07
-0.000113029
-3.91205e-07
-0.00011287
-1.13973e-07
-0.000112762
1.38993e-07
-0.000112695
3.6697e-07
-0.000112661
5.72528e-07
-0.000112652
7.59689e-07
-0.00011266
9.33034e-07
-0.000112678
1.09801e-06
-0.000112699
1.26098e-06
-0.000112719
1.42931e-06
-0.000112733
1.61164e-06
-0.000112734
1.81786e-06
-0.000112719
2.05834e-06
-0.00011268
2.34261e-06
-0.000112611
2.67659e-06
-0.000112506
3.02538e-06
-0.000112351
3.37581e-06
4.81165e-06
-0.000328956
1.4928e-06
-0.000329979
1.68741e-06
-0.000331013
1.95493e-06
-0.000332094
2.40358e-06
-0.000333209
2.77951e-06
-0.000334371
3.16939e-06
-0.000335584
3.55963e-06
-0.000336851
3.95399e-06
-0.000338174
4.34918e-06
-0.000339548
4.74449e-06
-0.00034097
5.14021e-06
-0.000342437
5.53789e-06
-0.000343946
5.93984e-06
-0.000345497
6.34878e-06
-0.000347092
6.76761e-06
-0.000348735
7.19908e-06
-0.000350431
7.64567e-06
-0.00035219
8.1093e-06
-0.000354019
8.59113e-06
-0.000355928
9.09123e-06
-0.000357927
9.60834e-06
-0.000360026
1.01396e-05
-0.000362231
1.06803e-05
-0.000364551
1.12241e-05
-0.00036699
1.17626e-05
-0.000369549
1.2286e-05
-0.000372227
1.27831e-05
-0.00037502
1.32416e-05
-0.000377916
1.36486e-05
-0.000380905
1.39904e-05
-0.000383967
1.42533e-05
-0.000387081
1.44236e-05
-0.000390223
1.44889e-05
-0.000393364
1.44384e-05
-0.000396476
1.4264e-05
-0.000399527
1.39604e-05
-0.000402483
1.35259e-05
-0.000405315
1.29624e-05
-0.000407989
1.22746e-05
-0.000410477
1.14702e-05
-0.00041275
1.05589e-05
-0.000414782
9.55215e-06
-0.000416551
8.4625e-06
-0.000418038
7.30321e-06
-0.000419225
6.08802e-06
-0.000420101
4.83078e-06
-0.000420656
3.54529e-06
-0.000420885
2.2451e-06
-0.000420784
9.43576e-07
-0.000420355
-3.45336e-07
-0.000419601
-1.60885e-06
-0.000418531
-2.83586e-06
-0.000417155
-4.01557e-06
-0.000415487
-5.13768e-06
-0.000413542
-6.19308e-06
-0.000411341
-7.17417e-06
-0.000408902
-8.07498e-06
-0.00040625
-8.89123e-06
-0.000403405
-9.62039e-06
-0.000400392
-1.02616e-05
-0.000397234
-1.08154e-05
-0.000393953
-1.12838e-05
-0.000390573
-1.16701e-05
-0.000387114
-1.19782e-05
-0.000383595
-1.22131e-05
-0.000380036
-1.23802e-05
-0.000376454
-1.24852e-05
-0.000372864
-1.25342e-05
-0.000369279
-1.25332e-05
-0.000365712
-1.24881e-05
-0.000362173
-1.24047e-05
-0.000358671
-1.22887e-05
-0.000355213
-1.21451e-05
-0.000351806
-1.19789e-05
-0.000348454
-1.17946e-05
-0.000345162
-1.15963e-05
-0.000341931
-1.13877e-05
-0.000338763
-1.11721e-05
-0.00033566
-1.09526e-05
-0.000332621
-1.07317e-05
-0.000329646
-1.05119e-05
-0.000326734
-1.02951e-05
-0.000323883
-1.0083e-05
-0.000321092
-9.87731e-06
-0.000318358
-9.67921e-06
-0.000315678
-9.48983e-06
-0.000313051
-9.31012e-06
-0.000310472
-9.14085e-06
-0.000307939
-8.98269e-06
-0.000305448
-8.83617e-06
-0.000302996
-8.70172e-06
-0.000300579
-8.57969e-06
-0.000298194
-8.47034e-06
-0.000295838
-8.37389e-06
-0.000293505
-8.29046e-06
-0.000291193
-8.22016e-06
-0.000288899
-8.16303e-06
-0.000286618
-8.11908e-06
-0.000284346
-8.08826e-06
-0.000282081
-8.07053e-06
-0.000279582
-8.90528e-06
-0.000276841
-9.7734e-06
-0.000273853
-1.06613e-05
-0.000270618
-1.15517e-05
-0.000267141
-1.24233e-05
-0.000263436
-1.32517e-05
-0.000259522
-1.40099e-05
-0.000255428
-1.46699e-05
-0.00025119
-1.52048e-05
-0.000246851
-1.55903e-05
-0.000242459
-1.58075e-05
-0.000238064
-1.58448e-05
-0.000233718
-1.56988e-05
-0.000229472
-1.53753e-05
-0.000225369
-1.48886e-05
-0.000221451
-1.42598e-05
-0.000217747
-1.35155e-05
-0.00021428
-1.26848e-05
-0.000211065
-1.17972e-05
-0.000208108
-1.08806e-05
-0.000205409
-9.95988e-06
-0.000202961
-9.05573e-06
-0.000200754
-8.18458e-06
-0.000198774
-7.35849e-06
-0.000197006
-6.58557e-06
-0.000195434
-5.87053e-06
-0.000194039
-5.2153e-06
-0.000192806
-4.61966e-06
-0.000191597
-4.53452e-06
-0.000190407
-4.47395e-06
-0.000189228
-4.43588e-06
-0.000188055
-4.41879e-06
-0.000186884
-4.42124e-06
-0.000185709
-4.44188e-06
-0.000184526
-4.47936e-06
-0.000183331
-4.53234e-06
-0.00018212
-4.59942e-06
-0.00018089
-4.67915e-06
-0.000179639
-4.76999e-06
-0.000178364
-4.87026e-06
-0.000177063
-4.97814e-06
-0.000175735
-5.09163e-06
-0.00017438
-5.20853e-06
-0.000172997
-5.3264e-06
-0.000171587
-5.44258e-06
-0.000170151
-5.55415e-06
-0.000168693
-5.65795e-06
-0.000167214
-5.75057e-06
-0.00016572
-5.82841e-06
-0.000164214
-5.88768e-06
-0.000162703
-5.92449e-06
-0.000161193
-5.93495e-06
-0.000159692
-5.91523e-06
-0.000158209
-5.86176e-06
-0.000156751
-5.77131e-06
-0.000155329
-5.64126e-06
-0.000153952
-5.46973e-06
-0.000152629
-5.25578e-06
-0.00015137
-4.99962e-06
-0.000150183
-4.70277e-06
-0.000149076
-4.36812e-06
-0.000148055
-4.00006e-06
-0.000147124
-3.60431e-06
-0.000146287
-3.18789e-06
-0.000145544
-2.75875e-06
-0.000144895
-2.32544e-06
-0.000144337
-1.89665e-06
-0.000143863
-1.48066e-06
-0.000143468
-1.08485e-06
-0.000143144
-7.15241e-07
-0.000142882
-3.76183e-07
-0.000142673
-7.01559e-08
-0.000142508
2.02103e-07
-0.000142378
4.42494e-07
-0.000142274
6.5538e-07
-0.000142187
8.46188e-07
-0.00014211
1.02125e-06
-0.000142037
1.18779e-06
-0.000141962
1.35384e-06
-0.000141878
1.52843e-06
-0.000141782
1.72146e-06
-0.000141667
1.94289e-06
-0.000141526
2.2017e-06
-0.000141353
2.50374e-06
-0.00014114
2.81223e-06
-0.000140878
3.11448e-06
4.29787e-06
-0.000412827
2.62399e-06
-0.000414583
3.44374e-06
-0.000416288
3.65911e-06
-0.000417945
4.06135e-06
-0.000419519
4.35278e-06
-0.000421008
4.65914e-06
-0.000422422
4.97311e-06
-0.000423775
5.30713e-06
-0.000425087
5.66159e-06
-0.00042638
6.03729e-06
-0.000427674
6.43392e-06
-0.000428988
6.85151e-06
-0.000430338
7.29061e-06
-0.000431742
7.75235e-06
-0.000433213
8.23834e-06
-0.000434764
8.75049e-06
-0.000436409
9.29068e-06
-0.00043816
9.86035e-06
-0.000440029
1.04602e-05
-0.000442028
1.10899e-05
-0.000444167
1.17472e-05
-0.000446455
1.24283e-05
-0.000448902
1.3127e-05
-0.000451513