/*--------------------------------*- C++ -*----------------------------------*\
| =========                 |                                                 |
| \\      /  F ield         | OpenFOAM: The Open Source CFD Toolbox           |
|  \\    /   O peration     | Version:  2406                                  |
|   \\  /    A nd           | Website:  www.openfoam.com                      |
|    \\/     M anipulation  |                                                 |
\*---------------------------------------------------------------------------*/
FoamFile
{
    version     2.0;
    format      ascii;
    arch        "LSB;label=32;scalar=64";
    class       volScalarField;
    location    "1083";
    object      T;
}
// * * * * * * * * * * * * * * * * * * * * * * * * * * * * * * * * * * * * * //

dimensions      [0 0 0 1 0 0 0];

internalField   nonuniform List<scalar> 
5619
(
293.635
293.475
293.425
293.368
293.332
293.296
293.273
293.249
293.233
293.217
293.206
293.195
293.187
293.179
293.174
293.169
293.166
293.162
293.16
293.158
293.156
293.155
293.154
293.153
293.152
293.152
293.151
293.151
293.151
293.15
293.15
293.15
293.15
293.15
293.15
293.15
293.15
293.15
293.15
293.15
293.15
293.15
293.15
293.15
293.15
293.15
293.15
293.15
293.15
293.15
293.15
293.15
293.15
293.15
293.15
293.15
293.15
293.15
293.15
293.15
293.15
293.15
293.15
293.15
293.15
293.15
293.15
293.15
293.15
293.15
293.15
293.15
293.15
293.15
293.15
293.15
293.15
293.15
293.15
293.15
293.15
293.15
293.15
293.15
293.15
293.15
293.15
293.15
293.15
293.15
293.15
293.15
293.15
293.15
293.15
293.15
293.15
293.15
293.15
293.15
293.15
293.15
293.15
293.15
293.15
293.15
293.15
293.15
293.15
293.15
293.15
293.15
293.15
293.15
293.15
293.15
293.15
293.15
293.15
293.15
293.15
293.15
293.15
293.15
293.15
293.15
293.15
293.15
293.15
293.15
293.15
293.15
293.15
293.15
293.15
293.15
293.15
293.15
293.15
293.15
293.15
293.15
293.15
293.15
293.15
293.15
293.15
293.15
293.15
293.15
293.15
293.15
293.15
293.15
293.15
293.15
293.15
293.15
293.15
293.15
293.15
293.15
293.15
293.15
293.15
293.15
293.15
293.15
293.15
293.15
293.15
293.15
293.15
293.15
293.15
293.15
293.15
293.15
293.15
293.15
293.15
293.15
293.15
293.15
293.15
293.15
293.15
293.745
293.553
293.491
293.421
293.377
293.334
293.305
293.277
293.257
293.237
293.224
293.21
293.2
293.191
293.184
293.177
293.173
293.168
293.165
293.162
293.16
293.158
293.156
293.155
293.154
293.153
293.153
293.152
293.152
293.151
293.151
293.151
293.151
293.15
293.15
293.15
293.15
293.15
293.15
293.15
293.15
293.15
293.15
293.15
293.15
293.15
293.15
293.15
293.15
293.15
293.15
293.15
293.15
293.15
293.15
293.15
293.15
293.15
293.15
293.15
293.15
293.15
293.15
293.15
293.15
293.15
293.15
293.15
293.15
293.15
293.15
293.15
293.15
293.15
293.15
293.15
293.15
293.15
293.15
293.15
293.15
293.15
293.15
293.15
293.15
293.15
293.15
293.15
293.15
293.15
293.15
293.15
293.15
293.15
293.15
293.15
293.15
293.15
293.15
293.15
293.15
293.15
293.15
293.15
293.15
293.15
293.15
293.15
293.15
293.15
293.15
293.15
293.15
293.15
293.15
293.15
293.15
293.15
293.15
293.15
293.15
293.15
293.15
293.15
293.15
293.15
293.15
293.15
293.15
293.15
293.15
293.15
293.15
293.15
293.15
293.15
293.15
293.15
293.15
293.15
293.15
293.15
293.15
293.15
293.15
293.15
293.15
293.15
293.15
293.15
293.15
293.15
293.15
293.15
293.15
293.15
293.15
293.15
293.15
293.15
293.15
293.15
293.15
293.15
293.15
293.15
293.15
293.15
293.15
293.15
293.15
293.15
293.15
293.15
293.15
293.15
293.15
293.15
293.15
293.15
293.15
293.15
293.15
293.15
293.15
293.15
293.15
293.943
293.696
293.615
293.521
293.462
293.403
293.365
293.327
293.301
293.276
293.258
293.24
293.227
293.214
293.204
293.195
293.189
293.182
293.177
293.173
293.17
293.166
293.164
293.162
293.16
293.158
293.157
293.156
293.155
293.154
293.154
293.153
293.153
293.152
293.152
293.152
293.151
293.151
293.151
293.151
293.151
293.15
293.15
293.15
293.15
293.15
293.15
293.15
293.15
293.15
293.15
293.15
293.15
293.15
293.15
293.15
293.15
293.15
293.15
293.15
293.15
293.15
293.15
293.15
293.15
293.15
293.15
293.15
293.15
293.15
293.15
293.15
293.15
293.15
293.15
293.15
293.15
293.15
293.15
293.15
293.15
293.15
293.15
293.15
293.15
293.15
293.15
293.15
293.15
293.15
293.15
293.15
293.15
293.15
293.15
293.15
293.15
293.15
293.15
293.15
293.15
293.15
293.15
293.15
293.15
293.15
293.15
293.15
293.15
293.15
293.15
293.15
293.15
293.15
293.15
293.15
293.15
293.15
293.15
293.15
293.15
293.15
293.15
293.15
293.15
293.15
293.15
293.15
293.15
293.15
293.15
293.15
293.15
293.15
293.15
293.15
293.15
293.15
293.15
293.15
293.15
293.15
293.15
293.15
293.15
293.15
293.15
293.15
293.15
293.15
293.15
293.15
293.15
293.15
293.15
293.15
293.15
293.15
293.15
293.15
293.15
293.15
293.15
293.15
293.15
293.15
293.15
293.15
293.15
293.15
293.15
293.15
293.15
293.15
293.15
293.15
293.15
293.15
293.15
293.15
293.15
293.15
293.15
293.15
293.15
293.15
293.15
294.312
293.972
293.854
293.718
293.629
293.543
293.486
293.431
293.393
293.356
293.329
293.304
293.285
293.266
293.252
293.239
293.228
293.219
293.211
293.204
293.198
293.193
293.188
293.184
293.181
293.178
293.175
293.172
293.17
293.168
293.166
293.164
293.162
293.161
293.159
293.158
293.157
293.156
293.155
293.154
293.153
293.152
293.152
293.152
293.151
293.151
293.151
293.15
293.15
293.15
293.15
293.15
293.15
293.15
293.15
293.15
293.15
293.15
293.15
293.15
293.15
293.15
293.15
293.15
293.15
293.15
293.15
293.15
293.15
293.15
293.15
293.15
293.15
293.15
293.15
293.15
293.15
293.15
293.15
293.15
293.15
293.15
293.15
293.15
293.15
293.15
293.15
293.15
293.15
293.15
293.15
293.15
293.15
293.15
293.15
293.15
293.15
293.15
293.15
293.15
293.15
293.15
293.15
293.15
293.15
293.15
293.15
293.15
293.15
293.15
293.15
293.15
293.15
293.15
293.15
293.15
293.15
293.15
293.15
293.15
293.15
293.15
293.15
293.15
293.15
293.15
293.15
293.15
293.15
293.15
293.15
293.15
293.15
293.15
293.15
293.15
293.15
293.15
293.15
293.15
293.15
293.15
293.15
293.15
293.15
293.15
293.15
293.15
293.15
293.15
293.15
293.15
293.15
293.15
293.15
293.15
293.15
293.15
293.15
293.15
293.15
293.15
293.15
293.15
293.15
293.15
293.15
293.15
293.15
293.15
293.15
293.15
293.15
293.15
293.15
293.15
293.15
293.15
293.15
293.15
293.15
293.15
293.15
293.15
293.15
293.15
293.15
295.008
294.525
294.346
294.136
293.985
293.847
293.75
293.66
293.597
293.537
293.494
293.453
293.423
293.394
293.371
293.349
293.332
293.315
293.302
293.288
293.277
293.266
293.257
293.248
293.239
293.232
293.225
293.218
293.212
293.206
293.2
293.195
293.19
293.185
293.181
293.177
293.173
293.17
293.167
293.164
293.162
293.16
293.158
293.156
293.155
293.154
293.153
293.152
293.152
293.151
293.151
293.151
293.15
293.15
293.15
293.15
293.15
293.15
293.15
293.15
293.15
293.15
293.15
293.15
293.15
293.15
293.15
293.15
293.15
293.15
293.15
293.15
293.15
293.15
293.15
293.15
293.15
293.15
293.15
293.15
293.15
293.15
293.15
293.15
293.15
293.15
293.15
293.15
293.15
293.15
293.15
293.15
293.15
293.15
293.15
293.15
293.15
293.15
293.15
293.15
293.15
293.15
293.15
293.15
293.15
293.15
293.15
293.15
293.15
293.15
293.15
293.15
293.15
293.15
293.15
293.15
293.15
293.15
293.15
293.15
293.15
293.15
293.15
293.15
293.15
293.15
293.15
293.15
293.15
293.15
293.15
293.15
293.15
293.15
293.15
293.15
293.15
293.15
293.15
293.15
293.15
293.15
293.15
293.15
293.15
293.15
293.15
293.15
293.15
293.15
293.15
293.15
293.15
293.15
293.15
293.15
293.15
293.15
293.15
293.15
293.15
293.15
293.15
293.15
293.15
293.15
293.15
293.15
293.15
293.15
293.15
293.15
293.15
293.15
293.15
293.15
293.15
293.15
293.15
293.15
293.15
293.15
293.15
293.15
293.15
293.15
293.15
296.237
295.597
295.339
295.026
294.767
294.536
294.352
294.191
294.066
293.956
293.872
293.796
293.737
293.683
293.639
293.598
293.563
293.53
293.502
293.475
293.452
293.43
293.41
293.391
293.375
293.359
293.344
293.33
293.316
293.302
293.29
293.278
293.266
293.255
293.245
293.235
293.226
293.218
293.21
293.202
293.195
293.189
293.183
293.178
293.173
293.169
293.165
293.162
293.159
293.157
293.156
293.154
293.153
293.152
293.152
293.151
293.151
293.151
293.15
293.15
293.15
293.15
293.15
293.15
293.15
293.15
293.15
293.15
293.15
293.15
293.15
293.15
293.15
293.15
293.15
293.15
293.15
293.15
293.15
293.15
293.15
293.15
293.15
293.15
293.15
293.15
293.15
293.15
293.15
293.15
293.15
293.15
293.15
293.15
293.15
293.15
293.15
293.15
293.15
293.15
293.15
293.15
293.15
293.15
293.15
293.15
293.15
293.15
293.15
293.15
293.15
293.15
293.15
293.15
293.15
293.15
293.15
293.15
293.15
293.15
293.15
293.15
293.15
293.15
293.15
293.15
293.15
293.15
293.15
293.15
293.15
293.15
293.15
293.15
293.15
293.15
293.15
293.15
293.15
293.15
293.15
293.15
293.15
293.15
293.15
293.15
293.15
293.15
293.15
293.15
293.15
293.15
293.15
293.15
293.15
293.15
293.15
293.15
293.15
293.15
293.15
293.15
293.15
293.15
293.15
293.15
293.15
293.15
293.15
293.15
293.15
293.15
293.15
293.15
293.15
293.15
293.15
293.15
293.15
293.15
293.15
293.15
293.15
293.15
293.15
293.15
293.15
297.968
297.272
296.971
296.589
296.225
295.883
295.576
295.297
295.056
294.846
294.67
294.517
294.391
294.282
294.191
294.111
294.043
293.981
293.927
293.878
293.836
293.796
293.761
293.729
293.701
293.676
293.649
293.622
293.597
293.572
293.548
293.525
293.503
293.481
293.46
293.44
293.42
293.401
293.381
293.362
293.344
293.325
293.307
293.29
293.273
293.257
293.241
293.227
293.214
293.203
293.192
293.184
293.177
293.171
293.166
293.162
293.159
293.156
293.155
293.153
293.152
293.152
293.151
293.151
293.15
293.15
293.15
293.15
293.15
293.15
293.15
293.15
293.15
293.15
293.15
293.15
293.15
293.15
293.15
293.15
293.15
293.15
293.15
293.15
293.15
293.15
293.15
293.15
293.15
293.15
293.15
293.15
293.15
293.15
293.15
293.15
293.15
293.15
293.15
293.15
293.15
293.15
293.15
293.15
293.15
293.15
293.15
293.15
293.15
293.15
293.15
293.15
293.15
293.15
293.15
293.15
293.15
293.15
293.15
293.15
293.15
293.15
293.15
293.15
293.15
293.15
293.15
293.15
293.15
293.15
293.15
293.15
293.15
293.15
293.15
293.15
293.15
293.15
293.15
293.15
293.15
293.15
293.15
293.15
293.15
293.15
293.15
293.15
293.15
293.15
293.15
293.15
293.15
293.15
293.15
293.15
293.15
293.15
293.15
293.15
293.15
293.15
293.15
293.15
293.15
293.15
293.15
293.15
293.15
293.15
293.15
293.15
293.15
293.15
293.15
293.15
293.15
293.15
293.15
293.15
293.15
293.15
293.15
293.15
293.15
293.15
293.15
299.985
299.374
299.099
298.733
298.361
297.988
297.618
297.256
296.909
296.583
296.286
296.017
295.782
295.576
295.4
295.248
295.12
295.009
294.915
294.836
294.771
294.711
294.653
294.604
294.568
294.554
294.509
294.466
294.422
294.394
294.363
294.334
294.307
294.281
294.254
294.228
294.201
294.174
294.144
294.112
294.076
294.039
293.995
293.95
293.899
293.846
293.789
293.732
293.672
293.613
293.555
293.5
293.449
293.402
293.359
293.321
293.288
293.259
293.235
293.215
293.198
293.185
293.175
293.168
293.162
293.158
293.156
293.154
293.153
293.152
293.152
293.151
293.151
293.151
293.15
293.15
293.15
293.15
293.15
293.15
293.15
293.15
293.15
293.15
293.15
293.15
293.15
293.15
293.15
293.15
293.15
293.15
293.15
293.15
293.15
293.15
293.15
293.15
293.15
293.15
293.15
293.15
293.15
293.15
293.15
293.15
293.15
293.15
293.15
293.15
293.15
293.15
293.15
293.15
293.15
293.15
293.15
293.15
293.15
293.15
293.15
293.15
293.15
293.15
293.15
293.15
293.15
293.15
293.15
293.15
293.15
293.15
293.15
293.15
293.15
293.15
293.15
293.15
293.15
293.15
293.15
293.15
293.15
293.15
293.15
293.15
293.15
293.15
293.15
293.15
293.15
293.15
293.15
293.15
293.15
293.15
293.15
293.15
293.15
293.15
293.15
293.15
293.15
293.15
293.15
293.15
293.15
293.15
293.15
293.15
293.15
293.15
293.15
293.15
293.15
293.15
293.15
293.15
293.15
293.15
293.15
293.15
293.15
293.15
293.15
293.15
293.15
302.236
301.811
301.621
301.363
301.092
300.809
300.512
300.204
299.886
299.562
299.239
298.922
298.615
298.326
298.063
297.825
297.618
297.439
297.295
297.257
297.17
297.144
296.997
296.857
296.809
296.779
296.774
296.771
296.758
296.781
296.815
296.852
296.893
296.937
296.984
297.034
297.088
297.143
297.197
297.247
297.29
297.333
297.365
297.374
297.373
297.339
297.277
297.216
297.109
297.006
296.86
296.707
296.518
296.317
296.088
295.848
295.591
295.331
295.065
294.803
294.548
294.303
294.077
293.872
293.694
293.543
293.424
293.337
293.284
293.26
293.235
293.216
293.199
293.187
293.177
293.169
293.163
293.159
293.156
293.154
293.152
293.151
293.151
293.15
293.15
293.15
293.15
293.15
293.15
293.15
293.15
293.15
293.15
293.15
293.15
293.15
293.15
293.15
293.15
293.15
293.15
293.15
293.15
293.15
293.15
293.15
293.15
293.15
293.15
293.15
293.15
293.15
293.15
293.15
293.15
293.15
293.15
293.15
293.15
293.15
293.15
293.15
293.15
293.15
293.15
293.15
293.15
293.15
293.15
293.15
293.15
293.15
293.15
293.15
293.15
293.15
293.15
293.15
293.15
293.15
293.15
293.15
293.15
293.15
293.15
293.15
293.15
293.15
293.15
293.15
293.15
293.15
293.15
293.15
293.15
293.15
293.15
293.15
293.15
293.15
293.15
293.15
293.15
293.15
293.15
293.15
293.15
293.15
293.15
293.15
293.15
293.15
293.15
293.15
293.15
293.15
293.15
293.15
293.15
293.15
293.15
293.15
293.15
293.15
293.15
293.15
293.15
304.66
304.471
304.393
304.286
304.175
304.058
303.933
303.799
303.657
303.504
303.343
303.175
303.001
302.826
302.652
302.483
302.325
302.183
302.063
301.977
301.925
301.915
301.848
301.847
301.859
301.951
302.083
302.247
302.441
302.664
302.908
303.169
303.444
303.728
304.021
304.321
304.625
304.93
305.23
305.52
305.799
306.058
306.292
306.491
306.653
306.791
306.921
307.017
307.064
307.07
307.004
306.891
306.756
306.539
306.327
306.029
305.732
305.358
304.976
304.529
304.067
303.555
303.026
302.462
301.886
301.288
300.687
300.077
299.458
298.836
298.23
297.645
297.082
296.548
296.041
295.564
295.118
294.702
294.318
294.001
293.73
293.519
293.358
293.252
293.203
293.184
293.177
293.17
293.165
293.161
293.158
293.156
293.154
293.153
293.152
293.151
293.151
293.15
293.15
293.15
293.15
293.15
293.15
293.15
293.15
293.15
293.15
293.15
293.15
293.15
293.15
293.15
293.15
293.15
293.15
293.15
293.15
293.15
293.15
293.15
293.15
293.15
293.15
293.15
293.15
293.15
293.15
293.15
293.15
293.15
293.15
293.15
293.15
293.15
293.15
293.15
293.15
293.15
293.15
293.15
293.15
293.15
293.15
293.15
293.15
293.15
293.15
293.15
293.15
293.15
293.15
293.15
293.15
293.15
293.15
293.15
293.15
293.15
293.15
293.15
293.15
293.15
293.15
293.15
293.15
293.15
293.15
293.15
293.15
293.15
293.15
293.15
293.15
293.15
293.15
293.15
293.15
293.15
293.15
293.15
293.15
293.15
293.15
293.15
293.15
293.15
293.15
307.085
307.113
307.146
307.184
307.227
307.272
307.32
307.368
307.417
307.466
307.516
307.567
307.619
307.674
307.735
307.802
307.876
307.958
308.051
308.16
308.282
308.422
308.577
308.758
308.968
309.209
309.477
309.775
310.1
310.452
310.826
311.219
311.63
312.055
312.49
312.933
313.379
313.825
314.265
314.695
315.109
315.503
315.866
316.194
316.473
316.705
316.879
316.959
317.164
317.349
317.529
317.585
317.592
317.615
317.525
317.448
317.31
317.173
316.964
316.764
316.489
316.215
315.87
315.511
315.086
314.634
314.12
313.573
312.979
312.36
311.7
311.019
310.302
309.57
308.808
308.039
307.248
306.456
305.647
304.828
303.989
303.146
302.295
301.451
300.612
299.79
299.027
298.335
297.688
297.072
296.496
295.953
295.448
294.976
294.54
294.136
293.806
293.538
293.342
293.231
293.178
293.17
293.164
293.159
293.155
293.152
293.151
293.15
293.15
293.15
293.15
293.15
293.15
293.15
293.15
293.15
293.15
293.15
293.15
293.15
293.15
293.15
293.15
293.15
293.15
293.15
293.15
293.15
293.15
293.15
293.15
293.15
293.15
293.15
293.15
293.15
293.15
293.15
293.15
293.15
293.15
293.15
293.15
293.15
293.15
293.15
293.15
293.15
293.15
293.15
293.15
293.15
293.15
293.15
293.15
293.15
293.15
293.15
293.15
293.15
293.15
293.15
293.15
293.15
293.15
293.15
293.15
293.15
293.15
293.15
293.15
293.15
293.15
293.15
293.15
293.15
293.15
293.15
293.15
293.15
293.15
293.15
293.15
293.15
293.15
293.15
293.15
309.317
309.527
309.642
309.79
309.947
310.112
310.285
310.465
310.651
310.844
311.045
311.253
311.469
311.696
311.933
312.182
312.443
312.715
313.001
313.299
313.61
313.934
314.27
314.62
314.981
315.354
315.74
316.139
316.55
316.973
317.403
317.832
318.253
318.661
319.053
319.42
319.759
320.065
320.338
320.575
320.779
320.951
321.093
321.21
321.312
321.403
321.482
321.553
321.617
321.676
321.727
321.766
321.796
321.818
321.833
321.844
321.85
321.824
321.808
321.77
321.736
321.678
321.624
321.544
321.468
321.364
321.265
321.135
321.012
320.852
320.7
320.503
320.317
320.079
319.851
319.567
319.289
318.952
318.615
318.217
317.809
317.338
316.848
316.291
315.703
315.045
314.346
313.578
312.779
311.935
311.074
310.174
309.264
308.318
307.369
306.383
305.386
304.338
303.279
302.185
301.031
299.749
298.537
297.363
296.241
295.137
294.153
293.48
293.207
293.172
293.161
293.153
293.151
293.15
293.15
293.15
293.15
293.15
293.15
293.15
293.15
293.15
293.15
293.15
293.15
293.15
293.15
293.15
293.15
293.15
293.15
293.15
293.15
293.15
293.15
293.15
293.15
293.15
293.15
293.15
293.15
293.15
293.15
293.15
293.15
293.15
293.15
293.15
293.15
293.15
293.15
293.15
293.15
293.15
293.15
293.15
293.15
293.15
293.15
293.15
293.15
293.15
293.15
293.15
293.15
293.15
293.15
293.15
293.15
293.15
293.15
293.15
293.15
293.15
293.15
293.15
293.15
293.15
293.15
293.15
293.15
293.15
293.15
293.15
293.15
293.15
293.15
311.238
311.579
311.744
311.964
312.194
312.432
312.678
312.932
313.193
313.461
313.737
314.021
314.313
314.614
314.925
315.246
315.577
315.917
316.267
316.626
316.993
317.368
317.748
318.133
318.52
318.902
319.276
319.638
319.983
320.301
320.586
320.85
321.084
321.292
321.474
321.629
321.761
321.872
321.964
322.046
322.119
322.185
322.244
322.3
322.352
322.4
322.444
322.486
322.526
322.562
322.595
322.625
322.651
322.676
322.698
322.718
322.736
322.752
322.767
322.78
322.793
322.805
322.816
322.827
322.837
322.842
322.842
322.835
322.822
322.81
322.79
322.771
322.744
322.718
322.682
322.648
322.603
322.559
322.502
322.448
322.379
322.314
322.23
322.15
322.047
321.949
321.822
321.701
321.542
321.39
321.188
320.995
320.734
320.485
320.147
319.822
319.379
318.952
318.372
317.807
317.011
316.109
314.87
313.39
311.557
309.489
307.1
304.469
301.504
298.369
296.423
294.443
293.492
293.2
293.166
293.154
293.151
293.15
293.15
293.15
293.15
293.15
293.15
293.15
293.15
293.15
293.15
293.15
293.15
293.15
293.15
293.15
293.15
293.15
293.15
293.15
293.15
293.15
293.15
293.15
293.15
293.15
293.15
293.15
293.15
293.15
293.15
293.15
293.15
293.15
293.15
293.15
293.15
293.15
293.15
293.15
293.15
293.15
293.15
293.15
293.15
293.15
293.15
293.15
293.15
293.15
293.15
293.15
293.15
293.15
293.15
293.15
293.15
293.15
293.15
293.15
293.15
293.15
293.15
293.15
293.15
293.15
293.15
293.15
293.15
293.15
293.15
312.8
313.222
313.418
313.679
313.947
314.221
314.501
314.786
315.076
315.371
315.67
315.974
316.281
316.593
316.91
317.231
317.555
317.883
318.212
318.542
318.869
319.192
319.507
319.811
320.097
320.367
320.615
320.841
321.041
321.214
321.362
321.488
321.591
321.673
321.74
321.794
321.839
321.88
321.919
321.947
321.967
321.98
321.986
321.991
321.991
321.991
321.987
321.978
321.987
322.007
322.029
322.061
322.1
322.147
322.201
322.261
322.325
322.393
322.463
322.534
322.605
322.675
322.742
322.806
322.867
322.921
322.967
323.001
323.021
323.031
323.043
323.051
323.058
323.063
323.068
323.072
323.075
323.078
323.079
323.077
323.075
323.07
323.065
323.058
323.051
323.042
323.033
323.022
323.011
322.998
322.986
322.97
322.955
322.934
322.916
322.887
322.862
322.817
322.782
322.713
322.652
322.515
322.39
322.084
321.79
321.163
320.505
319.317
317.748
315.356
312.15
308.276
303.982
299.294
295.923
294.066
293.256
293.179
293.157
293.151
293.15
293.15
293.15
293.15
293.15
293.15
293.15
293.15
293.15
293.15
293.15
293.15
293.15
293.15
293.15
293.15
293.15
293.15
293.15
293.15
293.15
293.15
293.15
293.15
293.15
293.15
293.15
293.15
293.15
293.15
293.15
293.15
293.15
293.15
293.15
293.15
293.15
293.15
293.15
293.15
293.15
293.15
293.15
293.15
293.15
293.15
293.15
293.15
293.15
293.15
293.15
293.15
293.15
293.15
293.15
293.15
293.15
293.15
293.15
293.15
293.15
293.15
293.15
293.15
293.15
293.15
293.15
314.012
314.479
314.692
314.972
315.257
315.544
315.833
316.125
316.418
316.712
317.006
317.3
317.594
317.887
318.179
318.469
318.756
319.04
319.319
319.59
319.851
320.101
320.336
320.551
320.748
320.926
321.082
321.217
321.331
321.424
321.499
321.559
321.607
321.647
321.678
321.695
321.702
321.697
321.682
321.663
321.631
321.599
321.559
321.516
321.467
321.413
321.356
321.296
321.236
321.175
321.113
321.051
320.991
320.934
320.882
320.842
320.819
320.811
320.806
320.851
320.904
320.974
321.061
321.164
321.283
321.419
321.572
321.742
321.924
322.11
322.288
322.446
322.595
322.731
322.854
322.963
323.04
323.084
323.103
323.113
323.122
323.128
323.132
323.135
323.136
323.137
323.138
323.138
323.139
323.138
323.137
323.137
323.135
323.134
323.132
323.131
323.128
323.126
323.123
323.12
323.115
323.11
323.099
323.09
323.068
323.048
322.996
322.936
322.791
322.569
322.067
321.202
319.556
316.778
312.506
307.096
301.343
296.232
294.086
293.254
293.172
293.153
293.15
293.15
293.15
293.15
293.15
293.15
293.15
293.15
293.15
293.15
293.15
293.15
293.15
293.15
293.15
293.15
293.15
293.15
293.15
293.15
293.15
293.15
293.15
293.15
293.15
293.15
293.15
293.15
293.15
293.15
293.15
293.15
293.15
293.15
293.15
293.15
293.15
293.15
293.15
293.15
293.15
293.15
293.15
293.15
293.15
293.15
293.15
293.15
293.15
293.15
293.15
293.15
293.15
293.15
293.15
293.15
293.15
293.15
293.15
293.15
293.15
293.15
293.15
293.15
293.15
314.919
315.41
315.629
315.916
316.204
316.492
316.779
317.064
317.348
317.629
317.907
318.181
318.451
318.716
318.975
319.228
319.474
319.712
319.94
320.157
320.361
320.55
320.722
320.875
321.012
321.131
321.232
321.315
321.382
321.436
321.481
321.515
321.537
321.548
321.551
321.542
321.524
321.5
321.466
321.425
321.376
321.323
321.264
321.2
321.131
321.057
320.98
320.899
320.816
320.731
320.644
320.559
320.475
320.395
320.319
320.247
320.178
320.113
320.05
319.99
319.931
319.876
319.828
319.788
319.764
319.757
319.757
319.797
319.855
319.943
320.063
320.219
320.401
320.606
320.83
321.072
321.34
321.63
321.931
322.22
322.451
322.669
322.851
323.006
323.082
323.115
323.129
323.139
323.144
323.147
323.148
323.148
323.148
323.148
323.149
323.149
323.148
323.148
323.148
323.148
323.148
323.147
323.147
323.146
323.145
323.144
323.142
323.139
323.135
323.126
323.113
323.086
323.035
322.882
322.422
321.023
318.331
313.573
306.87
299.694
295.198
293.433
293.196
293.156
293.151
293.15
293.15
293.15
293.15
293.15
293.15
293.15
293.15
293.15
293.15
293.15
293.15
293.15
293.15
293.15
293.15
293.15
293.15
293.15
293.15
293.15
293.15
293.15
293.15
293.15
293.15
293.15
293.15
293.15
293.15
293.15
293.15
293.15
293.15
293.15
293.15
293.15
293.15
293.15
293.15
293.15
293.15
293.15
293.15
293.15
293.15
293.15
293.15
293.15
293.15
293.15
293.15
293.15
293.15
293.15
293.15
293.15
293.15
293.15
293.15
293.15
293.15
315.581
316.082
316.303
316.59
316.876
317.158
317.436
317.711
317.982
318.247
318.506
318.759
319.005
319.243
319.472
319.692
319.903
320.102
320.29
320.465
320.626
320.771
320.901
321.015
321.113
321.196
321.264
321.32
321.365
321.4
321.424
321.439
321.446
321.442
321.432
321.414
321.387
321.353
321.311
321.263
321.209
321.15
321.086
321.018
320.946
320.87
320.791
320.709
320.626
320.541
320.456
320.372
320.289
320.207
320.127
320.048
319.971
319.894
319.818
319.743
319.668
319.595
319.525
319.457
319.394
319.335
319.281
319.233
319.191
319.155
319.125
319.105
319.099
319.1
319.111
319.15
319.219
319.329
319.488
319.705
319.984
320.303
320.654
321.035
321.457
321.906
322.318
322.622
322.899
323.052
323.114
323.135
323.145
323.148
323.149
323.15
323.15
323.15
323.15
323.15
323.15
323.15
323.15
323.15
323.15
323.15
323.15
323.149
323.149
323.149
323.148
323.148
323.146
323.142
323.132
323.106
323.044
322.73
321.198
317.569
311.294
303.323
296.129
293.676
293.21
293.156
293.151
293.15
293.15
293.15
293.15
293.15
293.15
293.15
293.15
293.15
293.15
293.15
293.15
293.15
293.15
293.15
293.15
293.15
293.15
293.15
293.15
293.15
293.15
293.15
293.15
293.15
293.15
293.15
293.15
293.15
293.15
293.15
293.15
293.15
293.15
293.15
293.15
293.15
293.15
293.15
293.15
293.15
293.15
293.15
293.15
293.15
293.15
293.15
293.15
293.15
293.15
293.15
293.15
293.15
293.15
293.15
293.15
293.15
293.15
293.15
293.15
316.057
316.562
316.782
317.067
317.347
317.622
317.891
318.155
318.412
318.662
318.904
319.138
319.363
319.578
319.783
319.977
320.16
320.331
320.489
320.634
320.765
320.881
320.983
321.071
321.145
321.206
321.257
321.297
321.328
321.349
321.362
321.368
321.365
321.356
321.34
321.317
321.287
321.25
321.206
321.156
321.102
321.044
320.982
320.916
320.847
320.775
320.7
320.624
320.546
320.467
320.388
320.31
320.231
320.153
320.076
320
319.924
319.849
319.774
319.7
319.626
319.552
319.48
319.408
319.338
319.27
319.203
319.139
319.077
319.017
318.959
318.905
318.854
318.806
318.762
318.725
318.694
318.674
318.666
318.669
318.682
318.712
318.769
318.869
319.03
319.281
319.644
320.117
320.656
321.258
321.922
322.516
322.894
323.084
323.129
323.144
323.149
323.15
323.15
323.15
323.15
323.15
323.15
323.15
323.15
323.15
323.15
323.15
323.15
323.15
323.15
323.15
323.15
323.15
323.149
323.149
323.148
323.141
323.117
323.037
322.554
319.391
313.306
304.365
296.073
293.497
293.201
293.157
293.151
293.15
293.15
293.15
293.15
293.15
293.15
293.15
293.15
293.15
293.15
293.15
293.15
293.15
293.15
293.15
293.15
293.15
293.15
293.15
293.15
293.15
293.15
293.15
293.15
293.15
293.15
293.15
293.15
293.15
293.15
293.15
293.15
293.15
293.15
293.15
293.15
293.15
293.15
293.15
293.15
293.15
293.15
293.15
293.15
293.15
293.15
293.15
293.15
293.15
293.15
293.15
293.15
293.15
293.15
293.15
293.15
293.15
293.15
316.402
316.907
317.123
317.405
317.679
317.946
318.207
318.46
318.705
318.942
319.17
319.388
319.596
319.794
319.98
320.155
320.318
320.468
320.605
320.729
320.839
320.936
321.02
321.091
321.15
321.198
321.237
321.268
321.29
321.303
321.309
321.308
321.301
321.289
321.271
321.247
321.215
321.177
321.134
321.086
321.033
320.978
320.918
320.856
320.792
320.724
320.655
320.584
320.512
320.439
320.366
320.293
320.219
320.146
320.074
320.002
319.93
319.859
319.788
319.717
319.647
319.577
319.508
319.439
319.371
319.303
319.237
319.171
319.106
319.043
318.98
318.918
318.858
318.799
318.742
318.687
318.635
318.587
318.543
318.503
318.468
318.439
318.417
318.403
318.403
318.419
318.453
318.515
318.628
318.838
319.214
319.816
320.614
321.524
322.501
322.952
323.116
323.144
323.149
323.15
323.15
323.15
323.15
323.15
323.15
323.15
323.15
323.15
323.15
323.15
323.15
323.15
323.15
323.15
323.15
323.15
323.15
323.15
323.149
323.148
323.139
323.074
322.697
319.774
312.093
301.295
295.083
293.432
293.196
293.158
293.151
293.15
293.15
293.15
293.15
293.15
293.15
293.15
293.15
293.15
293.15
293.15
293.15
293.15
293.15
293.15
293.15
293.15
293.15
293.15
293.15
293.15
293.15
293.15
293.15
293.15
293.15
293.15
293.15
293.15
293.15
293.15
293.15
293.15
293.15
293.15
293.15
293.15
293.15
293.15
293.15
293.15
293.15
293.15
293.15
293.15
293.15
293.15
293.15
293.15
293.15
293.15
293.15
293.15
293.15
293.15
293.15
316.655
317.158
317.372
317.649
317.917
318.178
318.43
318.675
318.91
319.136
319.352
319.558
319.754
319.938
320.11
320.27
320.418
320.553
320.675
320.784
320.88
320.964
321.035
321.095
321.145
321.185
321.217
321.241
321.257
321.266
321.266
321.262
321.254
321.241
321.222
321.197
321.165
321.127
321.085
321.039
320.989
320.935
320.879
320.821
320.76
320.697
320.632
320.566
320.498
320.43
320.361
320.292
320.222
320.154
320.086
320.018
319.95
319.883
319.817
319.75
319.684
319.619
319.553
319.488
319.423
319.359
319.295
319.232
319.169
319.107
319.046
318.985
318.925
318.865
318.806
318.749
318.692
318.638
318.585
318.533
318.485
318.438
318.395
318.357
318.324
318.298
318.28
318.269
318.269
318.284
318.325
318.408
318.583
319.026
319.877
321.1
322.448
323.035
323.133
323.147
323.15
323.15
323.15
323.15
323.15
323.15
323.15
323.15
323.15
323.15
323.15
323.15
323.15
323.15
323.15
323.15
323.15
323.15
323.15
323.15
323.15
323.149
323.14
323.051
322.345
317.011
306.436
297.134
294.024
293.317
293.181
293.156
293.152
293.151
293.15
293.15
293.15
293.15
293.15
293.15
293.15
293.15
293.15
293.15
293.15
293.15
293.15
293.15
293.15
293.15
293.15
293.15
293.15
293.15
293.15
293.15
293.15
293.15
293.15
293.15
293.15
293.15
293.15
293.15
293.15
293.15
293.15
293.15
293.15
293.15
293.15
293.15
293.15
293.15
293.15
293.15
293.15
293.15
293.15
293.15
293.15
293.15
293.15
293.15
293.15
293.15
293.15
316.85
317.349
317.559
317.832
318.095
318.35
318.595
318.832
319.059
319.276
319.483
319.679
319.864
320.038
320.199
320.348
320.485
320.609
320.72
320.818
320.905
320.979
321.042
321.094
321.138
321.173
321.2
321.219
321.232
321.239
321.235
321.229
321.22
321.206
321.187
321.162
321.131
321.094
321.053
321.008
320.96
320.909
320.856
320.8
320.742
320.682
320.62
320.558
320.493
320.429
320.363
320.297
320.232
320.167
320.102
320.038
319.974
319.91
319.847
319.784
319.721
319.659
319.597
319.535
319.474
319.413
319.353
319.293
319.233
319.174
319.116
319.057
318.999
318.942
318.885
318.828
318.772
318.717
318.663
318.61
318.558
318.508
318.46
318.414
318.371
318.331
318.294
318.262
318.236
318.217
318.207
318.206
318.222
318.28
318.42
318.876
320.096
321.84
322.967
323.136
323.149
323.15
323.15
323.15
323.15
323.15
323.15
323.15
323.15
323.15
323.15
323.15
323.15
323.15
323.15
323.15
323.15
323.15
323.15
323.15
323.15
323.15
323.15
323.147
323.109
322.609
318.076
306.209
297.289
294.252
293.425
293.223
293.175
293.161
293.155
293.152
293.151
293.15
293.15
293.15
293.15
293.15
293.15
293.15
293.15
293.15
293.15
293.15
293.15
293.15
293.15
293.15
293.15
293.15
293.15
293.15
293.15
293.15
293.15
293.15
293.15
293.15
293.15
293.15
293.15
293.15
293.15
293.15
293.15
293.15
293.15
293.15
293.15
293.15
293.15
293.15
293.15
293.15
293.15
293.15
293.15