/*--------------------------------*- C++ -*----------------------------------*\
| =========                 |                                                 |
| \\      /  F ield         | OpenFOAM: The Open Source CFD Toolbox           |
|  \\    /   O peration     | Version:  2406                                  |
|   \\  /    A nd           | Website:  www.openfoam.com                      |
|    \\/     M anipulation  |                                                 |
\*---------------------------------------------------------------------------*/
FoamFile
{
    version     2.0;
    format      ascii;
    arch        "LSB;label=32;scalar=64";
    class       volVectorField;
    location    "1083";
    object      U;
}
// * * * * * * * * * * * * * * * * * * * * * * * * * * * * * * * * * * * * * //

dimensions      [0 1 -1 0 0 0 0];

internalField   nonuniform List<vector> 
5619
(
(1.55116 -2.23478e-05 0)
(1.55214 9.0858e-06 0)
(1.55151 -1.4723e-06 0)
(1.55245 -1.4617e-05 0)
(1.55395 -2.50177e-05 0)
(1.55609 -3.51911e-05 0)
(1.55878 -4.49895e-05 0)
(1.56198 -5.48705e-05 0)
(1.56565 -6.50258e-05 0)
(1.5698 -7.57177e-05 0)
(1.57442 -8.71764e-05 0)
(1.57954 -9.96782e-05 0)
(1.58516 -0.000113541 0)
(1.59134 -0.000129138 0)
(1.59811 -0.000146942 0)
(1.60553 -0.000167575 0)
(1.61366 -0.00019182 0)
(1.62259 -0.000220626 0)
(1.63239 -0.000255029 0)
(1.64315 -0.00029595 0)
(1.65497 -0.000343879 0)
(1.66795 -0.000398527 0)
(1.68217 -0.00045854 0)
(1.69771 -0.000521461 0)
(1.71466 -0.000584124 0)
(1.73308 -0.000643525 0)
(1.75308 -0.00069808 0)
(1.77477 -0.000748864 0)
(1.79831 -0.000800317 0)
(1.82387 -0.000859852 0)
(1.85161 -0.000936239 0)
(1.88167 -0.00103716 0)
(1.91408 -0.00116684 0)
(1.94872 -0.00132482 0)
(1.98538 -0.00150621 0)
(2.02369 -0.00170318 0)
(2.06318 -0.00190675 0)
(2.10336 -0.00210826 0)
(2.14369 -0.00230023 0)
(2.18364 -0.00247665 0)
(2.22272 -0.0026328 0)
(2.26049 -0.00276508 0)
(2.29654 -0.00287074 0)
(2.33053 -0.00294768 0)
(2.36217 -0.00299429 0)
(2.39121 -0.00300941 0)
(2.41747 -0.00299225 0)
(2.44079 -0.00294242 0)
(2.46109 -0.00285993 0)
(2.4783 -0.0027454 0)
(2.49243 -0.00259994 0)
(2.50349 -0.00242527 0)
(2.51154 -0.0022242 0)
(2.51669 -0.00199884 0)
(2.51904 -0.00174024 0)
(2.51875 -0.00142086 0)
(2.51579 -0.00103822 0)
(2.51022 -0.000626234 0)
(2.50226 -0.000206516 0)
(2.49213 0.000214925 0)
(2.48006 0.000633869 0)
(2.46628 0.00104688 0)
(2.451 0.00145106 0)
(2.43443 0.00184401 0)
(2.41678 0.00222379 0)
(2.39823 0.00258884 0)
(2.37895 0.00293802 0)
(2.35909 0.00327055 0)
(2.3388 0.00358593 0)
(2.3182 0.00388391 0)
(2.29741 0.00416448 0)
(2.27652 0.00442783 0)
(2.25563 0.00467433 0)
(2.23479 0.00490446 0)
(2.21408 0.00511881 0)
(2.19355 0.00531804 0)
(2.17323 0.00550284 0)
(2.15315 0.00567397 0)
(2.13336 0.00583218 0)
(2.11385 0.00597823 0)
(2.09464 0.0061129 0)
(2.07575 0.00623695 0)
(2.05717 0.00635112 0)
(2.03889 0.00645609 0)
(2.02092 0.00655253 0)
(2.00325 0.00664107 0)
(1.98585 0.00672229 0)
(1.96873 0.00679675 0)
(1.95186 0.00686498 0)
(1.93522 0.00692746 0)
(1.91879 0.00698465 0)
(1.90256 0.007037 0)
(1.8865 0.00708494 0)
(1.8706 0.00712894 0)
(1.85482 0.00716951 0)
(1.83914 0.00720737 0)
(1.82354 0.00724342 0)
(1.80801 0.00727869 0)
(1.79257 0.00731694 0)
(1.77684 0.00736593 0)
(1.76058 0.00740462 0)
(1.74244 0.00742176 0)
(1.72258 0.00743011 0)
(1.70092 0.00742936 0)
(1.67747 0.00741974 0)
(1.65228 0.00740015 0)
(1.62545 0.00736923 0)
(1.59713 0.00732557 0)
(1.56752 0.00726788 0)
(1.53688 0.00719522 0)
(1.50551 0.00710714 0)
(1.47376 0.00700375 0)
(1.44198 0.00688581 0)
(1.41054 0.00675472 0)
(1.37978 0.00661245 0)
(1.35002 0.00646141 0)
(1.32154 0.00630432 0)
(1.29456 0.00614401 0)
(1.26925 0.00598328 0)
(1.24571 0.00582477 0)
(1.22399 0.00567082 0)
(1.20411 0.00552346 0)
(1.18603 0.0053844 0)
(1.16968 0.00525516 0)
(1.15496 0.00513715 0)
(1.1418 0.00503156 0)
(1.13009 0.00494115 0)
(1.11951 0.00487178 0)
(1.10979 0.00481055 0)
(1.1001 0.00474132 0)
(1.09051 0.00467044 0)
(1.08095 0.00459796 0)
(1.07139 0.00452414 0)
(1.06177 0.00444884 0)
(1.05206 0.0043718 0)
(1.04223 0.00429271 0)
(1.03225 0.00421122 0)
(1.02207 0.004127 0)
(1.01168 0.00403969 0)
(1.00105 0.00394895 0)
(0.990159 0.00385444 0)
(0.978988 0.00375585 0)
(0.967524 0.00365287 0)
(0.955761 0.00354523 0)
(0.943695 0.00343268 0)
(0.93133 0.00331504 0)
(0.918676 0.00319215 0)
(0.905751 0.00306393 0)
(0.892579 0.00293038 0)
(0.879195 0.00279157 0)
(0.865643 0.0026477 0)
(0.851975 0.00249907 0)
(0.838255 0.00234611 0)
(0.824554 0.00218941 0)
(0.810955 0.0020297 0)
(0.797547 0.00186789 0)
(0.784428 0.00170503 0)
(0.7717 0.00154234 0)
(0.75947 0.00138119 0)
(0.747844 0.00122303 0)
(0.736926 0.00106942 0)
(0.72681 0.0009219 0)
(0.717585 0.000781988 0)
(0.709323 0.000651075 0)
(0.702079 0.000530364 0)
(0.69589 0.000420799 0)
(0.690774 0.000323007 0)
(0.686727 0.000237263 0)
(0.68373 0.000163462 0)
(0.68175 0.000101045 0)
(0.680742 4.87582e-05 0)
(0.680672 6.72893e-06 0)
(0.681442 -2.3213e-05 0)
(0.68294 -4.32394e-05 0)
(0.685144 -5.69285e-05 0)
(0.688071 -6.52308e-05 0)
(0.691789 -6.88105e-05 0)
(0.696457 -6.75704e-05 0)
(0.702366 -5.90632e-05 0)
(0.710016 -3.38685e-05 0)
(0.720207 3.68292e-05 0)
(0.734134 0.000233191 0)
(0.753445 0.000768921 0)
(0.78021 0.00221551 0)
(0.816923 0.00618178 0)
(0.866431 0.0176118 0)
(0.926668 0.0544988 0)
(1.82294 -5.30134e-05 0)
(1.82411 1.04036e-05 0)
(1.82382 -1.52989e-05 0)
(1.82517 -5.88514e-05 0)
(1.82721 -9.32462e-05 0)
(1.83003 -0.000128325 0)
(1.83354 -0.000163241 0)
(1.83772 -0.000199602 0)
(1.84256 -0.000238194 0)
(1.84806 -0.000280066 0)
(1.85426 -0.000326263 0)
(1.86119 -0.000377969 0)
(1.86892 -0.000436486 0)
(1.8775 -0.000503178 0)
(1.88702 -0.000579445 0)
(1.89759 -0.000666688 0)
(1.9093 -0.000766229 0)
(1.92229 -0.000879318 0)
(1.93668 -0.0010072 0)
(1.95261 -0.00115129 0)
(1.97022 -0.00131343 0)
(1.98967 -0.00149641 0)
(2.01111 -0.00170446 0)
(2.03469 -0.0019437 0)
(2.06058 -0.00222227 0)
(2.08892 -0.00254976 0)
(2.11983 -0.00293586 0)
(2.15336 -0.00338817 0)
(2.1895 -0.00390956 0)
(2.22811 -0.00449578 0)
(2.26895 -0.00513423 0)
(2.31164 -0.0058046 0)
(2.35571 -0.00648113 0)
(2.40062 -0.007136 0)
(2.4458 -0.00774272 0)
(2.49067 -0.0082785 0)
(2.5347 -0.0087254 0)
(2.57738 -0.00907043 0)
(2.61826 -0.00930486 0)
(2.65694 -0.00942342 0)
(2.6931 -0.00942345 0)
(2.72644 -0.00930419 0)
(2.75674 -0.0090664 0)
(2.78382 -0.00871197 0)
(2.80753 -0.00824381 0)
(2.82779 -0.00766573 0)
(2.84454 -0.0069825 0)
(2.85779 -0.00619989 0)
(2.86756 -0.00532491 0)
(2.8739 -0.00436624 0)
(2.8769 -0.00333391 0)
(2.8767 -0.00223839 0)
(2.87344 -0.00108816 0)
(2.86729 0.000116643 0)
(2.85832 0.0013627 0)
(2.84673 0.00264473 0)
(2.83286 0.00396157 0)
(2.817 0.00528925 0)
(2.79937 0.00660709 0)
(2.78018 0.00790425 0)
(2.75963 0.00917206 0)
(2.73791 0.0104032 0)
(2.71522 0.0115917 0)
(2.69173 0.0127325 0)
(2.66762 0.0138219 0)
(2.64303 0.0148568 0)
(2.61811 0.0158357 0)
(2.593 0.0167573 0)
(2.56779 0.0176217 0)
(2.5426 0.0184293 0)
(2.51751 0.0191812 0)
(2.49261 0.0198789 0)
(2.46794 0.0205244 0)
(2.44358 0.02112 0)
(2.41956 0.0216679 0)
(2.39592 0.0221708 0)
(2.37269 0.0226313 0)
(2.34987 0.023052 0)
(2.3275 0.0234354 0)
(2.30556 0.0237841 0)
(2.28407 0.0241003 0)
(2.26301 0.0243866 0)
(2.24239 0.024645 0)
(2.22218 0.0248776 0)
(2.20238 0.0250862 0)
(2.18297 0.0252726 0)
(2.16392 0.0254385 0)
(2.14523 0.0255853 0)
(2.12686 0.0257144 0)
(2.1088 0.0258269 0)
(2.09101 0.025924 0)
(2.07348 0.0260066 0)
(2.05617 0.0260757 0)
(2.03907 0.0261321 0)
(2.02214 0.0261767 0)
(2.00536 0.0262105 0)
(1.98869 0.0262346 0)
(1.97214 0.0262502 0)
(1.95571 0.0262614 0)
(1.93905 0.0262772 0)
(1.92189 0.026279 0)
(1.90281 0.0262486 0)
(1.88196 0.0261919 0)
(1.85925 0.0261063 0)
(1.83472 0.0259891 0)
(1.80842 0.0258364 0)
(1.78044 0.0256443 0)
(1.75095 0.0254092 0)
(1.72018 0.0251283 0)
(1.68839 0.0248 0)
(1.6559 0.0244246 0)
(1.62306 0.024004 0)
(1.59024 0.0235422 0)
(1.55781 0.0230449 0)
(1.52612 0.0225194 0)
(1.4955 0.0219739 0)
(1.46622 0.0214175 0)
(1.4385 0.0208588 0)
(1.41251 0.0203062 0)
(1.38836 0.0197673 0)
(1.36608 0.0192483 0)
(1.3457 0.0187543 0)
(1.32715 0.0182892 0)
(1.31039 0.0178558 0)
(1.2953 0.017456 0)
(1.28181 0.017091 0)
(1.26982 0.0167633 0)
(1.25899 0.0164779 0)
(1.24908 0.0162226 0)
(1.23922 0.0159612 0)
(1.22948 0.0156968 0)
(1.21977 0.0154289 0)
(1.21006 0.0151571 0)
(1.20031 0.0148803 0)
(1.19048 0.0145976 0)
(1.18052 0.0143078 0)
(1.17042 0.0140098 0)
(1.16013 0.0137025 0)
(1.14964 0.0133848 0)
(1.1389 0.0130556 0)
(1.12791 0.0127139 0)
(1.11665 0.0123588 0)
(1.1051 0.0119895 0)
(1.09326 0.0116051 0)
(1.08112 0.0112052 0)
(1.06869 0.0107893 0)
(1.05598 0.0103572 0)
(1.043 0.00990877 0)
(1.02979 0.00944439 0)
(1.01638 0.00896462 0)
(1.00281 0.0084704 0)
(0.989147 0.00796304 0)
(0.975442 0.00744433 0)
(0.961773 0.00691648 0)
(0.948224 0.0063822 0)
(0.934887 0.00584468 0)
(0.921862 0.00530758 0)
(0.909253 0.00477498 0)
(0.897168 0.00425129 0)
(0.885718 0.00374118 0)
(0.875007 0.0032494 0)
(0.865136 0.00278061 0)
(0.856195 0.00233918 0)
(0.848263 0.00192897 0)
(0.8414 0.00155311 0)
(0.83565 0.00121379 0)
(0.831038 0.000912084 0)
(0.827571 0.000647855 0)
(0.825241 0.000419653 0)
(0.824025 0.00022464 0)
(0.823896 5.90169e-05 0)
(0.824831 -7.46897e-05 0)
(0.82668 -0.000178881 0)
(0.829474 -0.000266072 0)
(0.833225 -0.000345214 0)
(0.837982 -0.000423985 0)
(0.843841 -0.000511404 0)
(0.850942 -0.000619042 0)
(0.859473 -0.000763031 0)
(0.869657 -0.000968185 0)
(0.881716 -0.0012774 0)
(0.895819 -0.00177434 0)
(0.912013 -0.00263961 0)
(0.930145 -0.0042866 0)
(0.949846 -0.00766949 0)
(0.970489 -0.014968 0)
(0.988465 -0.0293062 0)
(1.99107 -9.92928e-05 0)
(1.99272 1.60718e-06 0)
(1.99316 -4.94586e-05 0)
(1.99531 -0.000138513 0)
(1.99829 -0.000211943 0)
(2.00222 -0.000288286 0)
(2.00703 -0.000366142 0)
(2.01272 -0.000448736 0)
(2.0193 -0.000537733 0)
(2.02681 -0.000635267 0)
(2.03529 -0.000743504 0)
(2.04481 -0.000864907 0)
(2.05544 -0.00100235 0)
(2.06728 -0.00115925 0)
(2.08043 -0.00133976 0)
(2.09502 -0.00154892 0)
(2.11119 -0.00179278 0)
(2.12908 -0.00207829 0)
(2.14888 -0.00241306 0)
(2.17072 -0.00280479 0)
(2.19478 -0.00326052 0)
(2.22117 -0.00378566 0)
(2.24996 -0.00438313 0)
(2.28114 -0.00505273 0)
(2.31463 -0.00579096 0)
(2.35022 -0.00659118 0)
(2.3876 -0.00744418 0)
(2.42637 -0.0083388 0)
(2.46605 -0.00926212 0)
(2.50616 -0.0101993 0)
(2.54622 -0.0111327 0)
(2.58577 -0.012042 0)
(2.62444 -0.0129036 0)
(2.66191 -0.0136921 0)
(2.69793 -0.0143819 0)
(2.73229 -0.0149495 0)
(2.76479 -0.0153744 0)
(2.79529 -0.0156401 0)
(2.82364 -0.0157343 0)
(2.84969 -0.0156485 0)
(2.87333 -0.0153771 0)
(2.89445 -0.0149172 0)
(2.91297 -0.014268 0)
(2.9288 -0.0134305 0)
(2.94189 -0.0124073 0)
(2.9522 -0.0112029 0)
(2.95974 -0.00982318 0)
(2.96449 -0.008276 0)
(2.96649 -0.00657132 0)
(2.96578 -0.004722 0)
(2.96245 -0.00274295 0)
(2.95657 -0.000646492 0)
(2.94826 0.00155621 0)
(2.9376 0.00385248 0)
(2.92482 0.00622008 0)
(2.91007 0.00862616 0)
(2.89352 0.0110493 0)
(2.87534 0.0134725 0)
(2.8557 0.0158777 0)
(2.83477 0.018247 0)
(2.81273 0.0205648 0)
(2.78974 0.0228175 0)
(2.76597 0.0249938 0)
(2.74156 0.0270843 0)
(2.71668 0.0290815 0)
(2.69144 0.0309799 0)
(2.66599 0.0327756 0)
(2.64042 0.0344665 0)
(2.61485 0.0360519 0)
(2.58936 0.0375321 0)
(2.56403 0.038909 0)
(2.53893 0.040185 0)
(2.51412 0.0413635 0)
(2.48964 0.0424482 0)
(2.46553 0.0434434 0)
(2.44183 0.0443538 0)
(2.41856 0.0451841 0)
(2.39572 0.0459391 0)
(2.37334 0.0466237 0)
(2.35142 0.0472425 0)
(2.32995 0.0478001 0)
(2.30893 0.048301 0)
(2.28835 0.0487494 0)
(2.2682 0.0491491 0)
(2.24847 0.049504 0)
(2.22913 0.0498173 0)
(2.21017 0.0500923 0)
(2.19157 0.0503318 0)
(2.1733 0.0505385 0)
(2.15534 0.0507146 0)
(2.13767 0.0508624 0)
(2.12026 0.0509838 0)
(2.10309 0.0510804 0)
(2.08612 0.0511537 0)
(2.06934 0.051205 0)
(2.05271 0.0512355 0)
(2.0362 0.0512464 0)
(2.01982 0.0512384 0)
(2.00357 0.0512118 0)
(1.98712 0.051169 0)
(1.97016 0.0511077 0)
(1.95133 0.0510108 0)
(1.93077 0.0508692 0)
(1.9084 0.0506757 0)
(1.88425 0.050421 0)
(1.85837 0.0500964 0)
(1.83088 0.0496938 0)
(1.80194 0.0492062 0)
(1.77177 0.0486288 0)
(1.74064 0.0479593 0)
(1.70886 0.0471988 0)
(1.67679 0.0463519 0)
(1.64479 0.0454272 0)
(1.6132 0.0444363 0)
(1.58239 0.0433939 0)
(1.55266 0.0423165 0)
(1.52426 0.0412213 0)
(1.49743 0.0401257 0)
(1.47229 0.0390458 0)
(1.44896 0.037996 0)
(1.42747 0.0369883 0)
(1.40781 0.0360322 0)
(1.38996 0.0351347 0)
(1.37383 0.0343003 0)
(1.35933 0.0335311 0)
(1.34636 0.0328275 0)
(1.33485 0.0321881 0)
(1.32447 0.0316107 0)
(1.31496 0.0310914 0)
(1.30551 0.0305741 0)
(1.29618 0.0300554 0)
(1.28689 0.0295332 0)
(1.2776 0.0290051 0)
(1.26829 0.0284688 0)
(1.25889 0.0279219 0)
(1.2494 0.0273622 0)
(1.23976 0.0267872 0)
(1.22995 0.0261949 0)
(1.21996 0.025583 0)
(1.20974 0.0249495 0)
(1.19929 0.0242924 0)
(1.18858 0.0236097 0)
(1.17762 0.0228998 0)
(1.16638 0.0221613 0)
(1.15488 0.021393 0)
(1.14311 0.0205938 0)
(1.13108 0.0197634 0)
(1.11882 0.0189017 0)
(1.10635 0.0180092 0)
(1.09371 0.0170869 0)
(1.08094 0.0161367 0)
(1.06809 0.015161 0)
(1.05522 0.0141634 0)
(1.04241 0.013148 0)
(1.02974 0.0121201 0)
(1.01729 0.0110858 0)
(1.00516 0.0100521 0)
(0.993451 0.00902688 0)
(0.982265 0.00801855 0)
(0.971707 0.00703603 0)
(0.961879 0.00608838 0)
(0.952877 0.00518446 0)
(0.944789 0.00433259 0)
(0.937688 0.00354009 0)
(0.931635 0.00281289 0)
(0.926672 0.00215518 0)
(0.922823 0.00156911 0)
(0.920092 0.00105464 0)
(0.918467 0.000609611 0)
(0.917921 0.000230059 0)
(0.918412 -8.69946e-05 0)
(0.91983 -0.000340691 0)
(0.922147 -0.000542354 0)
(0.925314 -0.000709361 0)
(0.929282 -0.000850309 0)
(0.934003 -0.000973002 0)
(0.939423 -0.00108371 0)
(0.945468 -0.00118683 0)
(0.952037 -0.00128355 0)
(0.958983 -0.0013689 0)
(0.966113 -0.00142507 0)
(0.973194 -0.00140796 0)
(0.979978 -0.0012236 0)
(0.986223 -0.000695672 0)
(0.991737 0.000445748 0)
(0.996402 0.00209067 0)
(0.998422 0.000152523 0)
(2.12823 -0.00017709 0)
(2.13105 -5.3029e-05 0)
(2.13282 -0.000147442 0)
(2.13635 -0.000306486 0)
(2.14088 -0.00044449 0)
(2.14656 -0.000590854 0)
(2.15334 -0.000743831 0)
(2.16126 -0.000909178 0)
(2.17034 -0.00109054 0)
(2.18061 -0.00129264 0)
(2.19213 -0.00152062 0)
(2.20497 -0.00178021 0)
(2.21918 -0.00207765 0)
(2.23482 -0.00241958 0)
(2.25195 -0.0028128 0)
(2.27061 -0.00326402 0)
(2.29081 -0.00377954 0)
(2.3125 -0.0043649 0)
(2.33563 -0.00502448 0)
(2.36008 -0.00576114 0)
(2.3857 -0.0065758 0)
(2.41232 -0.00746699 0)
(2.43974 -0.00843052 0)
(2.46778 -0.00945925 0)
(2.49626 -0.0105431 0)
(2.52501 -0.0116694 0)
(2.5539 -0.0128231 0)
(2.58283 -0.0139875 0)
(2.61171 -0.0151447 0)
(2.64045 -0.0162756 0)
(2.66898 -0.0173597 0)
(2.6972 -0.0183748 0)
(2.725 -0.019297 0)
(2.75225 -0.0201008 0)
(2.77881 -0.0207601 0)
(2.8045 -0.0212497 0)
(2.82916 -0.021546 0)
(2.8526 -0.0216284 0)
(2.87463 -0.0214799 0)
(2.89508 -0.0210869 0)
(2.91376 -0.0204391 0)
(2.93053 -0.0195299 0)
(2.94523 -0.0183553 0)
(2.95775 -0.0169145 0)
(2.96797 -0.0152093 0)
(2.97583 -0.0132442 0)
(2.98127 -0.0110268 0)
(2.98424 -0.0085672 0)
(2.98475 -0.00587936 0)
(2.98281 -0.00298204 0)
(2.97846 0.000102904 0)
(2.97176 0.00335734 0)
(2.96281 0.0067579 0)
(2.95171 0.0102758 0)
(2.93859 0.0138834 0)
(2.92359 0.0175568 0)
(2.90685 0.0212662 0)
(2.88853 0.0249795 0)
(2.86881 0.0286671 0)
(2.84784 0.0323023 0)
(2.82579 0.0358615 0)
(2.80283 0.0393239 0)
(2.77911 0.042672 0)
(2.75478 0.0458912 0)
(2.72999 0.0489697 0)
(2.70488 0.0518988 0)
(2.67955 0.0546723 0)
(2.65413 0.0572865 0)
(2.62871 0.0597397 0)
(2.60338 0.0620325 0)
(2.57822 0.0641668 0)
(2.55329 0.066146 0)
(2.52865 0.0679748 0)
(2.50434 0.0696586 0)
(2.48041 0.0712034 0)
(2.45687 0.072616 0)
(2.43377 0.0739032 0)
(2.4111 0.0750721 0)
(2.38888 0.0761299 0)
(2.36711 0.0770835 0)
(2.34579 0.07794 0)
(2.32492 0.0787058 0)
(2.30449 0.0793874 0)
(2.28448 0.0799909 0)
(2.26489 0.0805219 0)
(2.24569 0.0809857 0)
(2.22687 0.0813872 0)
(2.2084 0.081731 0)
(2.19027 0.0820213 0)
(2.17245 0.0822616 0)
(2.15491 0.0824556 0)
(2.13764 0.0826061 0)
(2.12061 0.0827159 0)
(2.10378 0.0827873 0)
(2.08715 0.0828225 0)
(2.07067 0.0828232 0)
(2.05432 0.0827912 0)
(2.03809 0.0827277 0)
(2.022 0.0826327 0)
(2.00573 0.0825063 0)
(1.98894 0.0823501 0)
(1.9703 0.0821388 0)
(1.94997 0.0818552 0)
(1.92786 0.0814871 0)
(1.904 0.0810186 0)
(1.87846 0.0804353 0)
(1.85135 0.0797237 0)
(1.82285 0.0788728 0)
(1.79316 0.0778754 0)
(1.76258 0.0767286 0)
(1.7314 0.0754353 0)
(1.69999 0.0740045 0)
(1.6687 0.072451 0)
(1.63789 0.0707951 0)
(1.60788 0.0690614 0)
(1.57899 0.0672772 0)
(1.55146 0.0654709 0)
(1.5255 0.0636701 0)
(1.50123 0.0619005 0)
(1.47876 0.0601848 0)
(1.4581 0.0585415 0)
(1.43924 0.0569852 0)
(1.42215 0.0555262 0)
(1.40673 0.0541708 0)
(1.39289 0.0529222 0)
(1.38054 0.0517802 0)
(1.36958 0.0507415 0)
(1.35972 0.049801 0)
(1.35069 0.0489549 0)
(1.34172 0.048115 0)
(1.33287 0.0472746 0)
(1.32407 0.0464301 0)
(1.31528 0.0455772 0)
(1.30647 0.0447122 0)
(1.2976 0.0438311 0)
(1.28863 0.0429304 0)
(1.27955 0.0420064 0)
(1.27032 0.0410555 0)
(1.26092 0.0400743 0)
(1.25132 0.0390596 0)
(1.24152 0.0380084 0)
(1.23149 0.0369177 0)
(1.22124 0.0357851 0)
(1.21074 0.0346083 0)
(1.20002 0.0333855 0)
(1.18906 0.0321155 0)
(1.17789 0.0307976 0)
(1.16653 0.0294319 0)
(1.15499 0.0280193 0)
(1.14332 0.0265615 0)
(1.13156 0.0250616 0)
(1.11975 0.0235235 0)
(1.10795 0.0219527 0)
(1.09624 0.020356 0)
(1.08467 0.0187414 0)
(1.07335 0.0171186 0)
(1.06234 0.0154985 0)
(1.05173 0.0138934 0)
(1.04163 0.0123163 0)
(1.0321 0.0107813 0)
(1.02324 0.0093023 0)
(1.01513 0.00789328 0)
(1.00783 0.00656724 0)
(1.00138 0.00533573 0)
(0.995837 0.00420822 0)
(0.991204 0.00319152 0)
(0.987481 0.00228934 0)
(0.984644 0.00150211 0)
(0.98265 0.000826939 0)
(0.981436 0.000258198 0)
(0.980925 -0.000209289 0)
(0.981057 -0.000581619 0)
(0.981756 -0.000874964 0)
(0.98293 -0.00110852 0)
(0.984484 -0.0012961 0)
(0.986326 -0.00145025 0)
(0.988366 -0.00158263 0)
(0.990517 -0.0017048 0)
(0.992696 -0.00182922 0)
(0.994824 -0.00197102 0)
(0.996828 -0.00215017 0)
(0.998634 -0.0023933 0)
(1.00017 -0.0027328 0)
(1.00137 -0.00319094 0)
(1.00217 -0.00368568 0)
(1.00262 -0.00388164 0)
(1.00123 -0.00420157 0)
(2.24697 -0.000322767 0)
(2.25204 -0.000219627 0)
(2.25592 -0.00038076 0)
(2.26136 -0.000641342 0)
(2.26771 -0.000882712 0)
(2.27516 -0.00114471 0)
(2.28371 -0.00142433 0)
(2.29337 -0.00172872 0)
(2.30412 -0.00206191 0)
(2.31594 -0.00242897 0)
(2.32877 -0.0028348 0)
(2.34255 -0.00328425 0)
(2.3572 -0.00378193 0)
(2.37263 -0.00433211 0)
(2.38874 -0.0049387 0)
(2.40545 -0.0056051 0)
(2.42266 -0.00633429 0)
(2.4403 -0.00712876 0)
(2.45833 -0.0079905 0)
(2.47671 -0.00892099 0)
(2.49545 -0.00992103 0)
(2.51455 -0.0109905 0)
(2.53406 -0.012128 0)
(2.55401 -0.0133307 0)
(2.57445 -0.0145936 0)
(2.59541 -0.0159097 0)
(2.61691 -0.0172692 0)
(2.63895 -0.0186591 0)
(2.66151 -0.0200624 0)
(2.68453 -0.0214577 0)
(2.70792 -0.022818 0)
(2.73157 -0.0241112 0)
(2.75532 -0.0253005 0)
(2.779 -0.0263462 0)
(2.80242 -0.0272076 0)
(2.82538 -0.0278454 0)
(2.84765 -0.0282233 0)
(2.86901 -0.0283096 0)
(2.88925 -0.0280774 0)
(2.90816 -0.0275052 0)
(2.92554 -0.0265762 0)
(2.94119 -0.0252786 0)
(2.95497 -0.0236045 0)
(2.96672 -0.0215504 0)
(2.97633 -0.0191166 0)
(2.98369 -0.0163074 0)
(2.98874 -0.0131312 0)
(2.99143 -0.00960026 0)
(2.99174 -0.00573229 0)
(2.98967 -0.00155282 0)
(2.98525 0.00290981 0)
(2.97853 0.00762563 0)
(2.9696 0.0125627 0)
(2.95855 0.01768 0)
(2.94548 0.0229347 0)
(2.93055 0.0282829 0)
(2.91388 0.0336808 0)
(2.89564 0.0390854 0)
(2.87598 0.0444552 0)
(2.85508 0.0497516 0)
(2.8331 0.05494 0)
(2.8102 0.0599897 0)
(2.78653 0.0648746 0)
(2.76226 0.0695729 0)
(2.73752 0.0740672 0)
(2.71245 0.0783443 0)
(2.68717 0.0823949 0)
(2.66179 0.0862134 0)
(2.63641 0.0897974 0)
(2.61112 0.0931475 0)
(2.58599 0.0962666 0)
(2.5611 0.0991595 0)
(2.5365 0.101833 0)
(2.51223 0.104295 0)
(2.48834 0.106554 0)
(2.46485 0.108619 0)
(2.44178 0.110502 0)
(2.41915 0.112211 0)
(2.39696 0.113757 0)
(2.37523 0.115151 0)
(2.35395 0.116401 0)
(2.33311 0.117518 0)
(2.31271 0.118511 0)
(2.29274 0.119388 0)
(2.27317 0.120157 0)
(2.254 0.120826 0)
(2.23521 0.121403 0)
(2.21676 0.121893 0)
(2.19865 0.122303 0)
(2.18085 0.122638 0)
(2.16334 0.122903 0)
(2.14609 0.123101 0)
(2.12907 0.123238 0)
(2.11226 0.123317 0)
(2.09564 0.123339 0)
(2.07918 0.123308 0)
(2.06285 0.123225 0)
(2.04664 0.123093 0)
(2.03056 0.122911 0)
(2.01432 0.12268 0)
(1.99754 0.122399 0)
(1.97894 0.122034 0)
(1.95863 0.121561 0)
(1.93656 0.120959 0)
(1.91275 0.120205 0)
(1.88727 0.119277 0)
(1.86024 0.118153 0)
(1.83182 0.116817 0)
(1.80224 0.115258 0)
(1.77179 0.113471 0)
(1.74078 0.111462 0)
(1.70956 0.109243 0)
(1.67849 0.10684 0)
(1.64794 0.104284 0)
(1.61823 0.101614 0)
(1.58967 0.0988729 0)
(1.56251 0.0961038 0)
(1.53693 0.09335 0)
(1.51307 0.0906506 0)
(1.49101 0.0880397 0)
(1.47077 0.085545 0)
(1.45233 0.0831876 0)
(1.43563 0.0809821 0)
(1.4206 0.0789369 0)
(1.40713 0.0770555 0)
(1.39512 0.0753369 0)
(1.38447 0.0737758 0)
(1.37491 0.0723646 0)
(1.36615 0.0710938 0)
(1.35746 0.0698341 0)
(1.3489 0.0685748 0)
(1.34039 0.0673105 0)
(1.3319 0.0660349 0)
(1.32339 0.0647425 0)
(1.31484 0.0634277 0)
(1.30621 0.0620849 0)
(1.29747 0.0607088 0)
(1.2886 0.0592944 0)
(1.27957 0.0578368 0)
(1.27037 0.0563312 0)
(1.26099 0.0547733 0)
(1.2514 0.0531591 0)
(1.2416 0.0514852 0)
(1.23159 0.0497485 0)
(1.22137 0.0479468 0)
(1.21095 0.0460786 0)
(1.20034 0.0441432 0)
(1.18956 0.0421413 0)
(1.17864 0.0400747 0)
(1.1676 0.0379464 0)
(1.15649 0.0357614 0)
(1.14536 0.0335261 0)
(1.13425 0.031249 0)
(1.12323 0.0289402 0)
(1.11237 0.0266123 0)
(1.10173 0.0242794 0)
(1.09138 0.0219577 0)
(1.08141 0.019665 0)
(1.07189 0.0174201 0)
(1.06288 0.0152428 0)
(1.05446 0.013153 0)
(1.04668 0.0111701 0)
(1.0396 0.009312 0)
(1.03323 0.00759435 0)
(1.02762 0.0060298 0)
(1.02274 0.00462712 0)
(1.01861 0.00339077 0)
(1.01517 0.0023205 0)
(1.0124 0.00141144 0)
(1.01022 0.000654339 0)
(1.00858 3.72084e-05 0)
(1.00741 -0.000451677 0)
(1.00665 -0.000829378 0)
(1.00623 -0.00111781 0)
(1.00606 -0.00133578 0)
(1.00607 -0.00149971 0)
(1.0062 -0.0016239 0)
(1.00639 -0.00172057 0)
(1.00659 -0.00179971 0)
(1.00674 -0.00186913 0)
(1.00682 -0.00193418 0)
(1.00677 -0.00199764 0)
(1.00653 -0.00206222 0)
(1.00605 -0.00213977 0)
(1.0053 -0.00224527 0)
(1.00433 -0.00245287 0)
(1.0019 -0.00352961 0)
(2.33892 -0.000639331 0)
(2.34746 -0.00067063 0)
(2.35431 -0.000888333 0)
(2.36196 -0.00124152 0)
(2.36974 -0.00157972 0)
(2.37784 -0.00195371 0)
(2.38629 -0.00235575 0)
(2.39512 -0.00278993 0)
(2.40434 -0.00325603 0)
(2.41395 -0.00375581 0)
(2.42391 -0.00429177 0)
(2.4342 -0.00486744 0)
(2.4448 -0.00548712 0)
(2.4557 -0.00615594 0)
(2.4669 -0.00687986 0)
(2.47842 -0.00766569 0)
(2.49029 -0.008521 0)
(2.50258 -0.00945392 0)
(2.51534 -0.0104727 0)
(2.52863 -0.0115849 0)
(2.54253 -0.0127971 0)
(2.5571 -0.0141132 0)
(2.57241 -0.0155344 0)
(2.58851 -0.0170579 0)
(2.60545 -0.0186764 0)
(2.62324 -0.0203782 0)
(2.6419 -0.0221465 0)
(2.66139 -0.0239596 0)
(2.68166 -0.0257909 0)
(2.70265 -0.027608 0)
(2.72423 -0.0293732 0)
(2.74627 -0.0310434 0)
(2.76861 -0.0325707 0)
(2.79104 -0.0339044 0)
(2.81338 -0.0349923 0)
(2.83539 -0.0357837 0)
(2.85686 -0.0362308 0)
(2.87754 -0.0362904 0)
(2.89722 -0.035925 0)
(2.91568 -0.0351032 0)
(2.9327 -0.0337998 0)
(2.9481 -0.0319953 0)
(2.9617 -0.0296764 0)
(2.97335 -0.0268355 0)
(2.98293 -0.0234707 0)
(2.99032 -0.0195861 0)
(2.99546 -0.0151917 0)
(2.99828 -0.0103038 0)
(2.99876 -0.00494612 0)
(2.99689 0.000845696 0)
(2.99269 0.0070322 0)
(2.9862 0.0135748 0)
(2.97749 0.0204271 0)
(2.96664 0.0275347 0)
(2.95376 0.0348392 0)
(2.93897 0.0422796 0)
(2.92242 0.0497942 0)
(2.90426 0.0573219 0)
(2.88465 0.0648046 0)
(2.86375 0.0721883 0)
(2.84174 0.079424 0)
(2.81877 0.0864685 0)
(2.79501 0.0932843 0)
(2.77061 0.0998406 0)
(2.74572 0.106112 0)
(2.72048 0.112081 0)
(2.69502 0.117732 0)
(2.66944 0.123059 0)
(2.64385 0.128057 0)
(2.61835 0.132728 0)
(2.59302 0.137075 0)
(2.56792 0.141105 0)
(2.54311 0.144828 0)
(2.51864 0.148254 0)
(2.49455 0.151396 0)
(2.47086 0.154268 0)
(2.44761 0.156883 0)
(2.42481 0.159256 0)
(2.40246 0.161401 0)
(2.38057 0.163332 0)
(2.35914 0.165062 0)
(2.33817 0.166606 0)
(2.31763 0.167975 0)
(2.29753 0.169181 0)
(2.27784 0.170236 0)
(2.25855 0.17115 0)
(2.23965 0.171934 0)
(2.2211 0.172595 0)
(2.20289 0.173143 0)
(2.18499 0.173584 0)
(2.16738 0.173926 0)
(2.15003 0.174174 0)
(2.13293 0.174334 0)
(2.11603 0.17441 0)
(2.09933 0.174406 0)
(2.08278 0.174326 0)
(2.06637 0.174172 0)
(2.05007 0.173946 0)
(2.03391 0.173649 0)
(2.01761 0.173281 0)
(2.00073 0.172841 0)
(1.98204 0.172276 0)
(1.96163 0.171557 0)
(1.93945 0.170651 0)
(1.91553 0.169525 0)
(1.88993 0.168147 0)
(1.86277 0.166486 0)
(1.83422 0.164519 0)
(1.80452 0.162228 0)
(1.77395 0.159609 0)
(1.74282 0.156668 0)
(1.7115 0.153426 0)
(1.68035 0.149918 0)
(1.64973 0.146192 0)
(1.61999 0.142305 0)
(1.59142 0.138318 0)
(1.56427 0.134297 0)
(1.53874 0.130304 0)
(1.51496 0.126396 0)
(1.49299 0.122621 0)
(1.47286 0.119021 0)
(1.45454 0.115624 0)
(1.43798 0.11245 0)
(1.42308 0.109511 0)
(1.40975 0.106812 0)
(1.39787 0.10435 0)
(1.38735 0.102117 0)
(1.37791 0.100103 0)
(1.36927 0.0982867 0)
(1.36071 0.0964913 0)
(1.35227 0.0946992 0)
(1.3439 0.0929016 0)
(1.33555 0.09109 0)
(1.32719 0.0892564 0)
(1.31878 0.087393 0)
(1.31031 0.0854921 0)
(1.30174 0.0835463 0)
(1.29304 0.0815485 0)
(1.2842 0.0794921 0)
(1.27519 0.0773707 0)
(1.26601 0.0751783 0)
(1.25664 0.0729099 0)
(1.24707 0.0705608 0)
(1.23731 0.0681272 0)
(1.22735 0.0656065 0)
(1.21721 0.0629971 0)
(1.20689 0.0602988 0)
(1.19641 0.0575129 0)
(1.18581 0.0546427 0)
(1.17511 0.0516933 0)
(1.16435 0.0486721 0)
(1.15358 0.0455887 0)
(1.14284 0.0424556 0)
(1.13219 0.0392874 0)
(1.1217 0.0361019 0)
(1.11143 0.0329189 0)
(1.10145 0.0297607 0)
(1.09182 0.0266517 0)
(1.08262 0.0236175 0)
(1.0739 0.0206844 0)
(1.06573 0.0178787 0)
(1.05814 0.0152254 0)
(1.0512 0.0127476 0)
(1.04491 0.0104648 0)
(1.03929 0.00839246 0)
(1.03435 0.00654075 0)
(1.03007 0.00491408 0)
(1.02642 0.00351079 0)
(1.02335 0.00232334 0)
(1.02081 0.00133875 0)
(1.01874 0.000539413 0)
(1.01709 -9.48189e-05 0)
(1.01577 -0.000585197 0)
(1.01474 -0.000956775 0)
(1.01393 -0.00123471 0)
(1.01326 -0.00144126 0)
(1.01269 -0.00159619 0)
(1.01217 -0.00171692 0)
(1.01165 -0.0018188 0)
(1.01109 -0.00191533 0)
(1.01046 -0.0020179 0)
(1.00971 -0.00213421 0)
(1.00881 -0.0022655 0)
(1.00769 -0.00240237 0)
(1.00634 -0.00249526 0)
(1.00478 -0.00253642 0)
(1.00202 -0.00326433 0)
(2.38625 -0.00120799 0)
(2.39774 -0.00155799 0)
(2.40738 -0.00178968 0)
(2.41729 -0.00216955 0)
(2.42664 -0.0025182 0)
(2.43552 -0.00290782 0)
(2.44392 -0.0033328 0)
(2.45191 -0.00380088 0)
(2.45961 -0.00431268 0)
(2.46713 -0.00487019 0)
(2.47459 -0.005476 0)
(2.48212 -0.00613435 0)
(2.48981 -0.00685116 0)
(2.49777 -0.00763387 0)
(2.50607 -0.00849117 0)
(2.51481 -0.00943264 0)
(2.52404 -0.0104683 0)
(2.53386 -0.0116083 0)
(2.54432 -0.0128626 0)
(2.5555 -0.0142402 0)
(2.56747 -0.0157487 0)
(2.58028 -0.0173938 0)
(2.59398 -0.0191775 0)
(2.60861 -0.0210982 0)
(2.62421 -0.023149 0)
(2.64079 -0.0253172 0)
(2.65834 -0.0275834 0)
(2.67684 -0.0299209 0)
(2.69621 -0.0322955 0)
(2.71639 -0.0346643 0)
(2.73726 -0.0369766 0)
(2.75867 -0.0391741 0)
(2.78047 -0.0411924 0)
(2.80246 -0.042963 0)
(2.82444 -0.0444161 0)
(2.84619 -0.0454829 0)
(2.86748 -0.0460986 0)
(2.88808 -0.0462041 0)
(2.90776 -0.0457478 0)
(2.92629 -0.0446858 0)
(2.94346 -0.0429826 0)
(2.95908 -0.0406109 0)
(2.97298 -0.0375515 0)
(2.98498 -0.0337929 0)
(2.99497 -0.0293315 0)
(3.00283 -0.0241712 0)
(3.00847 -0.0183234 0)
(3.01184 -0.0118072 0)
(3.0129 -0.00465001 0)
(3.01162 0.0031088 0)
(3.008 0.0114221 0)
(3.00206 0.0202375 0)
(2.99385 0.0294909 0)
(2.98344 0.0391076 0)
(2.97092 0.0490064 0)
(2.95643 0.0591033 0)
(2.94008 0.0693132 0)
(2.92202 0.0795523 0)
(2.90242 0.0897403 0)
(2.88144 0.0998021 0)
(2.85925 0.109669 0)
(2.83602 0.11928 0)
(2.8119 0.128583 0)
(2.78708 0.137532 0)
(2.76169 0.146093 0)
(2.7359 0.154237 0)
(2.70982 0.161946 0)
(2.6836 0.169209 0)
(2.65734 0.176018 0)
(2.63114 0.182376 0)
(2.6051 0.188288 0)
(2.57929 0.193763 0)
(2.55378 0.198815 0)
(2.52861 0.20346 0)
(2.50384 0.207714 0)
(2.4795 0.211598 0)
(2.45561 0.21513 0)
(2.43219 0.218331 0)
(2.40925 0.221221 0)
(2.3868 0.223819 0)
(2.36484 0.226144 0)
(2.34335 0.228215 0)
(2.32233 0.230049 0)
(2.30177 0.231662 0)
(2.28165 0.233069 0)
(2.26196 0.234286 0)
(2.24266 0.235324 0)
(2.22374 0.236197 0)
(2.20518 0.236915 0)
(2.18695 0.237488 0)
(2.16902 0.237925 0)
(2.15138 0.238235 0)
(2.13398 0.238423 0)
(2.11681 0.238497 0)
(2.09984 0.238461 0)
(2.08304 0.238319 0)
(2.06638 0.238076 0)
(2.04985 0.237733 0)
(2.03346 0.237293 0)
(2.01693 0.236755 0)
(1.99982 0.236114 0)
(1.98089 0.235298 0)
(1.96022 0.234266 0)
(1.93777 0.232973 0)
(1.91357 0.231375 0)
(1.88768 0.229426 0)
(1.86024 0.227086 0)
(1.8314 0.22432 0)
(1.80142 0.221104 0)
(1.77056 0.217429 0)
(1.73917 0.213306 0)
(1.70759 0.208761 0)
(1.67619 0.203844 0)
(1.64536 0.198621 0)
(1.61542 0.193173 0)
(1.58669 0.187588 0)
(1.55942 0.181959 0)
(1.5338 0.176375 0)
(1.50996 0.170916 0)
(1.48797 0.165651 0)
(1.46784 0.160634 0)
(1.44955 0.155908 0)
(1.43303 0.151499 0)
(1.41819 0.147421 0)
(1.40492 0.14368 0)
(1.39311 0.140271 0)
(1.38266 0.137183 0)
(1.3733 0.134399 0)
(1.36472 0.131887 0)
(1.35624 0.129407 0)
(1.34788 0.126936 0)
(1.3396 0.124459 0)
(1.33134 0.121965 0)
(1.32308 0.119442 0)
(1.31479 0.116881 0)
(1.30644 0.114271 0)
(1.29799 0.111603 0)
(1.28943 0.108865 0)
(1.28073 0.106051 0)
(1.27188 0.103151 0)
(1.26287 0.100157 0)
(1.25368 0.097064 0)
(1.24431 0.0938652 0)
(1.23476 0.0905562 0)
(1.22503 0.0871341 0)
(1.21512 0.0835974 0)
(1.20506 0.0799466 0)
(1.19486 0.0761844 0)
(1.18454 0.0723158 0)
(1.17414 0.0683487 0)
(1.1637 0.0642938 0)
(1.15326 0.0601652 0)
(1.14286 0.05598 0)
(1.13257 0.051759 0)
(1.12244 0.0475261 0)
(1.11254 0.0433085 0)
(1.10292 0.039136 0)
(1.09365 0.0350407 0)
(1.08479 0.0310562 0)
(1.07641 0.0272167 0)
(1.06855 0.0235556 0)
(1.06125 0.0201045 0)
(1.05456 0.0168919 0)
(1.04848 0.0139415 0)
(1.04304 0.0112714 0)
(1.03823 0.0088928 0)