/*--------------------------------*- C++ -*----------------------------------*\
| =========                 |                                                 |
| \\      /  F ield         | OpenFOAM: The Open Source CFD Toolbox           |
|  \\    /   O peration     | Version:  2406                                  |
|   \\  /    A nd           | Website:  www.openfoam.com                      |
|    \\/     M anipulation  |                                                 |
\*---------------------------------------------------------------------------*/
FoamFile
{
    version     2.0;
    format      ascii;
    arch        "LSB;label=32;scalar=64";
    class       volScalarField;
    location    "0.05";
    object      alpha.glycerin;
}
// * * * * * * * * * * * * * * * * * * * * * * * * * * * * * * * * * * * * * //

dimensions      [0 0 0 0 0 0 0];

internalField   nonuniform List<scalar> 
6250
(
6.19333e-55
3.1102e-54
4.83422e-53
3.41418e-52
1.98478e-51
8.99986e-51
3.26549e-50
9.4752e-50
2.21384e-49
4.3813e-49
8.73159e-49
2.29866e-48
8.26951e-48
2.91384e-47
1.60125e-46
2.14221e-45
3.23506e-44
2.97262e-43
1.81199e-42
8.99726e-42
2.57156e-41
9.42428e-41
9.48217e-41
1.0577e-14
1.93779e-13
3.71569e-13
-7.26055e-13
-1.1161e-10
-4.3144e-11
0.19388
0.859122
0.99723
0.999255
0.999571
0.999774
0.999847
0.999874
0.999898
0.999916
0.999932
0.999949
0.999989
0.999998
0.999999
0.999999
0.999995
0.99999
1
1.00001
1.00002
1.00003
1.00003
1.00003
1.00002
1.00001
0.999995
0.99996
0.999974
0.999996
1.00001
1.00002
1.00001
1
0.999985
0.99998
0.999992
1.00001
1.00002
1.00003
1.00003
1.00003
1.00002
1.00002
1.00001
1.00001
1.00002
1.00002
1.00002
1.00002
1.00002
1.00002
1.00001
1.00001
1
0.999998
1
1
1.00001
1.00002
1.00002
1.00002
1.00002
1.00002
1.00001
1.00001
1
0.99997
0.999962
0.999962
0.999962
0.999962
0.999982
0.999994
0.99999
0.999989
0.999991
0.999991
0.999984
0.999974
0.999973
0.999973
0.999973
0.99998
0.999988
0.999978
0.999973
0.999973
0.999973
0.999973
0.999983
0.999995
0.999998
0.999999
1
0.999999
0.999998
0.999998
0.999981
0.999961
0.999961
0.999961
0.999961
0.999961
0.999968
0.99999
0.99999
0.99999
0.999996
0.999988
0.999977
0.999977
0.999998
1
1
1.00001
1.00001
1.00001
1.00001
1.00001
1.00001
1
1
0.999999
0.999991
0.999985
0.999992
0.999996
0.999998
1
1
1.00001
1.00001
1.00001
1.00001
1.00001
1.00001
1.00001
1.00001
1
1
0.999998
0.999995
0.999995
0.999995
0.999995
0.999996
0.999997
0.999998
0.999999
0.999999
0.999999
0.999999
0.999999
0.999998
0.999997
0.999996
0.999992
0.999991
0.999991
0.999991
0.999991
0.999991
0.999994
0.999996
0.999997
0.999998
0.999999
1
1
1
1
1
0.999999
0.999998
0.999997
0.999996
0.999994
0.999991
0.99999
0.99999
0.99999
0.99999
0.99999
0.999995
0.999998
0.999999
1
1
1
1
1
1
1
1
1
1
1
0.999999
0.999995
0.999994
0.999994
0.999994
0.999998
0.999999
0.999988
0.999983
0.999983
0.999983
0.999983
0.999985
0.999985
0.999985
0.999981
0.999981
0.999981
0.999981
0.999989
0.999994
0.999996
0.999996
1.53069e-55
6.00743e-55
9.28803e-54
5.02038e-53
2.63691e-52
1.0996e-51
3.86349e-51
1.11678e-50
2.65004e-50
5.01722e-50
7.19795e-50
8.25982e-50
9.23309e-50
3.22804e-49
2.05619e-47
8.41891e-46
1.53291e-44
1.67128e-43
1.16662e-42
8.21932e-42
3.18341e-41
7.56879e-40
1.03827e-40
2.35237e-15
2.06664e-14
2.37487e-14
1.69846e-10
7.56615e-11
2.81649e-06
0.00847619
0.0198523
0.0129222
0.0653127
0.441972
0.901634
0.975617
0.979151
0.987462
0.995267
0.998724
0.999421
0.999672
0.999835
0.999915
0.999958
0.999995
0.999994
0.999983
0.999917
0.999922
0.999989
1
1
1
1
0.999999
0.999961
0.999954
0.999955
0.999979
1
1
1.00001
1.00001
1.00001
1.00001
1.00001
1.00001
1
0.999998
0.999994
0.999992
0.999982
0.999982
0.999982
0.999984
1
1.00001
1.00001
1.00002
1.00002
1.00002
1.00001
1
0.999945
0.999925
0.999925
0.999925
0.999972
1
1
1.00001
1.00001
1.00001
1.00001
1.00001
1.00001
1
1
1
1
1.00001
1.00001
1.00002
1.00003
1.00004
1.00005
1.00005
1.00005
1.00004
1.00004
1.00003
1.00003
1.00003
1.00003
1.00003
1.00003
1.00003
1.00003
1.00003
1.00003
1.00004
1.00004
1.00005
1.00006
1.00006
1.00007
1.00007
1.00006
1.00006
1.00005
1.00005
1.00004
1.00003
1.00003
1.00002
1.00001
1.00001
1
1
0.999975
0.999956
0.999956
0.999956
0.999956
0.999956
0.999961
0.999998
1
1
1
1
0.999983
0.999978
0.999978
0.999978
0.999978
0.99998
1
1
1.00001
1.00001
1.00002
1.00002
1.00003
1.00003
1.00002
1.00002
1.00002
1.00001
1.00001
1
1
1
1
1.00001
1.00001
1.00001
1.00002
1.00002
1.00002
1.00002
1.00002
1.00002
1.00002
1.00002
1.00002
1.00001
1.00001
1.00001
1.00001
1.00001
1.00001
1.00001
1.00002
1.00002
1.00002
1.00002
1.00002
1.00002
1.00002
1.00002
1.00002
1.00001
1.00001
1.00001
1.00001
1
1
1
1
0.999997
0.999996
0.999999
1
1
1
1.00001
1.00001
1.00001
1.00001
1.00002
1.00002
1.00002
1.00002
1.00002
1.00001
1.00001
1.00001
1.00001
1
1
1
0.999999
0.999997
0.999997
0.999996
0.999993
0.999993
0.999993
0.999979
0.999973
0.999974
0.999985
0.999985
0.999985
0.999978
0.999976
0.999992
0.999996
3.37705e-58
5.83151e-56
4.07155e-55
1.96594e-54
6.54227e-54
1.71719e-53
4.11775e-53
9.21363e-53
1.71897e-52
3.20416e-52
7.34723e-52
1.50825e-51
1.57717e-51
7.68858e-50
1.06041e-47
4.97121e-46
1.52478e-44
2.93619e-43
3.44414e-42
5.4802e-41
6.43933e-39
3.40081e-38
2.35638e-40
6.57672e-16
4.39581e-15
4.58063e-11
2.27372e-10
1.80521e-07
2.87895e-07
5.96384e-06
4.71697e-05
0.00214846
0.00421581
0.00584045
0.0123827
0.0304335
0.186165
0.66672
0.968856
0.988156
0.993152
0.997232
0.998666
0.999434
0.999769
0.999941
0.999988
0.999885
0.999874
0.999958
0.999989
0.999998
1
1
0.999997
0.999996
1
1
1.00001
1.00001
1.00002
1.00002
1.00001
1.00001
1
1
0.999998
0.999996
0.999999
1
1.00001
1.00001
1.00001
1.00001
1.00001
1
1
1
1.00001
1.00002
1.00003
1.00004
1.00004
1.00004
1.00003
1.00003
1.00002
1.00002
1.00002
1.00002
1.00002
1.00001
1.00001
1.00001
1.00001
1.00001
1.00001
1.00001
1
0.999993
0.999947
0.999944
0.999944
0.999944
0.999944
0.999979
1
0.999999
0.999997
0.999996
0.999996
0.999998
0.999998
0.999973
0.999963
0.999962
0.999961
0.999961
0.999961
0.999961
0.999961
0.999978
0.999997
0.999998
0.999999
1
1
1
1
0.999999
0.999979
0.999963
0.999962
0.999961
0.999961
0.999961
0.999961
0.99999
1
1
0.999999
0.999984
0.999956
0.999967
0.999996
0.999999
1
1
1
1
1
1
1
1
0.999993
0.999978
0.999978
0.999982
0.999998
1
1
1.00001
1.00001
1.00002
1.00002
1.00002
1.00002
1.00002
1.00001
1.00001
1
1
0.999997
0.999995
0.999995
0.999995
0.999996
1
1
1
1
1
1
1
1
1
1
1
0.999993
0.999989
0.999989
0.999989
0.999989
0.999989
0.999992
1
1
1
1
1
1
1
1
1
1
1
0.999999
0.999997
0.999987
0.999987
0.999986
0.999986
0.999986
0.999986
0.999987
0.999987
0.999995
1
1
1
1
1.00001
1.00001
1.00001
1.00001
1.00001
1.00001
1.00001
1.00001
1
1
0.999995
0.999993
0.999993
0.999995
0.999999
0.999993
0.999974
0.999974
0.999974
0.999973
0.999973
0.999973
0.999973
0.999973
0.999974
0.999973
0.999973
0.999974
0.999985
1.08337e-60
1.45632e-59
1.16697e-58
7.72575e-58
3.25683e-57
1.75552e-56
9.51627e-56
-8.33223e-56
-7.58615e-55
4.38581e-55
6.0629e-55
9.9854e-54
-9.92828e-53
-2.32576e-51
9.29875e-51
1.02763e-48
6.94436e-47
1.08653e-44
4.80058e-43
9.0933e-42
4.63965e-40
1.29917e-38
7.52366e-39
3.48395e-17
4.05952e-16
1.81569e-10
8.10986e-09
1.82181e-07
1.17293e-06
3.89871e-06
5.29001e-05
0.000155787
0.000379181
0.00103457
0.00335948
0.0105054
0.0240277
0.0618664
0.232617
0.732422
0.984291
0.992934
0.995835
0.998139
0.999164
0.999636
0.999815
0.999842
0.999889
0.99995
0.999977
0.999991
0.999998
0.99999
0.999976
0.999977
0.999979
0.999985
0.999994
0.999996
1
1
1.00001
1.00001
1.00001
1
0.999996
0.999991
0.999991
0.999994
1
1.00001
1.00001
1.00001
1.00001
1.00001
1.00001
1
1
1
1
1
0.999999
0.999997
0.999986
0.999985
0.999985
0.999985
0.999985
0.999995
1
1
1
1.00001
1.00001
1.00001
1.00002
1.00002
1.00001
1.00001
1
1
1
1
1.00001
1.00001
1.00001
1.00002
1.00002
1.00002
1.00002
1.00001
1.00001
1.00001
1.00001
1.00001
1.00001
1.00001
1
1
1.00001
1.00001
1.00001
1.00002
1.00002
1.00003
1.00003
1.00004
1.00004
1.00003
1.00003
1.00003
1.00002
1.00002
1.00001
1.00001
1.00001
1
1
1
0.999997
0.999973
0.999961
0.999964
0.999964
0.999964
0.999964
0.999972
0.999996
1
1
1
1
1
0.999987
0.999979
0.999978
0.999979
0.999987
1
1
1.00001
1.00001
1.00001
1.00002
1.00002
1.00002
1.00002
1.00001
1.00001
1.00001
1.00001
1
1
1
1
1
1.00001
1.00001
1.00001
1.00001
1.00001
1.00002
1.00001
1.00001
1.00001
1.00001
1.00001
1.00001
1.00001
1
1
1
1.00001
1.00001
1.00001
1.00001
1.00001
1.00001
1.00001
1.00001
1.00001
1.00001
1.00001
1.00001
1.00001
1
1
1
0.999999
0.999999
0.999998
0.999993
0.999987
0.999996
1
1
1
1
1.00001
1.00001
1.00001
1.00001
1.00001
1.00001
1.00001
1.00001
1.00001
1.00001
1.00001
1.00001
1
1
1
0.999999
0.999999
0.999998
0.999994
0.999984
0.999989
0.99999
0.99999
0.99999
0.999978
0.999973
0.999973
0.999973
0.999974
0.999983
0.999987
3.57613e-63
4.60025e-63
2.85446e-61
4.99741e-60
4.37042e-59
2.78861e-58
2.28348e-57
7.85749e-57
1.57921e-56
4.13892e-56
6.7685e-56
3.8875e-53
-7.93144e-51
-1.35057e-49
-6.01816e-49
-1.42556e-48
-4.87569e-65
3.06211e-47
9.16767e-45
3.08384e-43
2.30721e-41
1.1597e-39
8.82858e-40
8.02008e-19
1.92899e-17
1.45513e-10
5.2302e-09
8.35853e-08
7.09587e-07
3.52264e-06
1.42259e-05
5.41635e-05
0.00017929
0.000526761
0.00180461
0.00469582
0.0125927
0.0292524
0.0899973
0.330419
0.835036
0.967456
0.982569
0.991963
0.996254
0.998239
0.999147
0.999543
0.999748
0.999878
0.999948
0.999977
0.999988
0.999981
0.999979
0.999986
0.999987
0.99999
0.999977
0.999965
0.999965
0.999965
0.999965
0.999966
0.999991
1
1
1
1
1
1
1
1
1
1
1
1
1.00001
1.00001
1.00002
1.00002
1.00003
1.00003
1.00003
1.00002
1.00002
1.00002
1.00001
1
1
0.999999
0.999998
0.999999
1
1
1
1
1
1
0.999985
0.999974
0.999974
0.999974
0.999974
0.99999
1
1
1
1
1
1
1
1
1
0.999999
0.999993
0.999984
0.999983
0.999983
0.999983
0.999983
0.99999
0.999999
1
1
1
1
1
1
1
1
1
1
1
1
1
1
1
1
1
1
0.999998
0.999973
0.999964
0.999964
0.999964
0.999979
0.999996
0.999998
0.999998
0.999999
1
1
0.999999
0.999987
0.99998
0.999979
0.99998
0.999988
1
1
1
1.00001
1.00001
1.00002
1.00002
1.00002
1.00001
1.00001
1.00001
1.00001
1
1
0.999999
0.999999
0.999999
1
1
1
1.00001
1.00001
1.00001
1.00001
1.00001
1.00001
1
1
1
1
0.999998
0.999996
0.999996
0.999996
0.999997
1
1
1
1
1.00001
1.00001
1.00001
1.00001
1.00001
1
1
1
1
1
0.999999
0.999993
0.999991
0.999991
0.999991
0.999989
0.999991
0.999993
0.999998
1
1
1
1
1.00001
1.00001
1.00001
1.00001
1.00001
1.00001
1.00001
1.00001
1.00001
1
1
1
1
0.999998
0.999989
0.999989
0.999989
0.999991
0.999991
0.99999
0.999975
0.999975
0.999974
0.999974
0.999974
0.999974
0.999974
0.999981
0.999987
1.24276e-66
3.72108e-66
6.70037e-64
-1.06197e-61
-3.76238e-61
1.73297e-60
1.02636e-59
-3.87754e-63
-7.57163e-63
3.75174e-59
4.2128e-58
1.17671e-54
-2.66455e-49
-3.83543e-48
-1.72605e-47
-4.18438e-47
-4.99341e-47
2.21372e-49
7.42316e-47
2.23838e-45
-4.09403e-59
3.87646e-42
6.86322e-41
5.70774e-21
3.00969e-20
1.07506e-10
3.40786e-09
4.92732e-08
4.36281e-07
2.74016e-06
1.09938e-05
4.20993e-05
0.000138782
0.000402946
0.00137661
0.00338326
0.0102233
0.0228068
0.0734993
0.230696
0.703803
0.935543
0.966061
0.982665
0.990948
0.995203
0.99749
0.998721
0.999347
0.999666
0.99984
0.999926
0.999959
0.999965
0.999971
0.99998
0.999986
0.999992
0.999999
1
1
1
1
0.999998
0.999999
0.999992
0.999991
0.999991
0.999991
0.999991
0.999991
0.999999
1
1
1
1
1
0.999997
0.999994
0.999994
0.999994
1
1
1
1
1
1
1
0.999994
0.999996
1
1
1
1.00001
1.00001
1.00001
1.00001
1.00001
1.00001
1
1
0.999978
0.999986
1
1
1
1
1.00001
1.00001
1.00001
1.00001
1.00001
1.00001
1
1
1
0.999998
0.999985
0.999997
1
1
1
1.00001
1.00001
1.00001
1.00002
1.00002
1.00002
1.00002
1.00002
1.00002
1.00002
1.00001
1.00001
1.00001
1.00001
1
1
1
1
0.999998
0.999978
0.999966
0.999965
0.999965
0.999965
0.999965
0.999977
0.999997
0.999998
0.999999
0.999999
0.999999
0.999998
0.999985
0.999981
0.99998
0.999981
0.999989
1
1
1.00001
1.00001
1.00001
1.00002
1.00002
1.00002
1.00002
1.00001
1.00001
1.00001
1
1
1
1
1
1
1.00001
1.00001
1.00001
1.00001
1.00001
1.00001
1.00001
1.00001
1.00001
1.00001
1.00001
1
1
1
1
1
1
1
1
1.00001
1.00001
1.00001
1.00001
1.00001
1.00001
1.00001
1.00001
1.00001
1
1
1
1
0.999999
0.999999
0.999992
0.999991
0.999991
0.999992
0.999998
1
1
1
1
1.00001
1.00001
1.00001
1.00001
1.00001
1.00001
1.00001
1.00001
1.00001
1.00001
1.00001
1
1
1
0.999999
0.999999
0.999998
0.999997
0.999994
0.999991
0.999986
0.999982
0.999975
0.999975
0.999974
0.999974
0.999974
0.999974
0.999979
0.999986
-2.23478e-73
1.34071e-69
-5.76107e-64
-5.82377e-64
1.95891e-63
2.04699e-62
-2.44869e-65
-5.92234e-59
-9.85062e-58
-2.73962e-57
-4.64026e-57
-3.19846e-72
-6.33991e-48
-6.66771e-47
-2.75222e-46
-6.97207e-46
-1.29572e-45
-4.20603e-43
-2.19356e-42
-4.05514e-42
-1.74393e-42
2.632e-41
5.9575e-41
2.33921e-21
1.23645e-20
8.68404e-11
2.73802e-09
3.99936e-08
3.70705e-07
2.47533e-06
1.13663e-05
4.07071e-05
0.000137839
0.000387273
0.00132502
0.00315231
0.00951207
0.0224341
0.0712387
0.205148
0.649853
0.929749
0.962735
0.980145
0.989359
0.994263
0.996895
0.998311
0.999074
0.999493
0.999721
0.999852
0.999919
0.999951
0.999967
0.999977
0.99998
0.999986
0.999992
0.999981
0.999987
1
1
1
1.00001
1.00001
1.00001
1.00001
1.00001
1.00001
1.00001
1
1.00001
1.00001
1.00001
1.00001
1.00001
1.00001
1.00001
1.00001
1.00002
1.00002
1.00002
1.00002
1.00002
1.00001
1
1
0.999994
0.999993
0.999993
0.999996
1
1
1
1
1
1
0.999999
0.999983
0.999979
0.999979
0.999979
0.999996
1
1
1
1
1
1
1
1
1
1
1
0.999995
0.999989
0.999987
0.999989
0.999992
0.999997
1
1
1
1
1.00001
1.00001
1.00001
1.00001
1.00001
1.00001
1.00001
1.00001
1.00001
1.00001
1.00001
1.00001
1.00001
1
1
1
0.999984
0.999967
0.999966
0.999965
0.999965
0.999966
0.999991
0.999997
0.999998
0.999998
0.999998
0.999998
0.999996
0.999982
0.999981
0.999981
0.999981
0.999991
1
1
1.00001
1.00001
1.00001
1.00001
1.00002
1.00001
1.00001
1.00001
1.00001
1.00001
1
1
1
1
1
1
1.00001
1.00001
1.00001
1.00001
1.00001
1.00001
1.00001
1.00001
1.00001
1
1
1
1
0.999997
0.999997
0.999997
1
1
1
1
1.00001
1.00001
1.00001
1.00001
1.00001
1.00001
1.00001
1
1
1
1
0.999999
0.999999
0.999994
0.999992
0.999992
0.999992
0.999992
0.999995
0.999999
1
1
1
1.00001
1.00001
1.00001
1.00001
1.00001
1.00001
1.00001
1.00001
1.00001
1.00001
1.00001
1
1
1
0.999999
0.999998
0.999996
0.999994
0.999992
0.99999
0.999985
0.999969
0.999972
0.999979
0.999975
0.999974
0.999974
0.999974
0.99998
0.999985
-1.08898e-69
5.81796e-84
-1.56967e-65
0
0
-6.10057e-78
0
-3.09096e-56
-1.11038e-55
-2.19541e-55
-3.0989e-55
-3.28606e-55
-9.24528e-47
-4.71132e-46
-1.25696e-45
-2.20149e-45
-2.97771e-45
-1.8794e-40
-1.01508e-39
-8.41479e-40
2.92763e-39
7.27825e-38
3.64349e-38
2.64868e-22
5.37264e-21
7.77833e-11
2.51991e-09
3.77741e-08
3.60331e-07
2.4833e-06
1.18624e-05
4.3325e-05
0.000142058
0.000416436
0.00135822
0.00333178
0.00976314
0.0230059
0.0726074
0.205449
0.647268
0.928629
0.961953
0.979642
0.989033
0.994055
0.996779
0.998247
0.99903
0.999461
0.999706
0.999849
0.999921
0.999944
0.999967
0.999978
0.999983
0.999987
0.999981
0.999972
0.999972
0.999972
0.999972
0.999979
0.999995
1
1
0.999994
0.999991
0.999992
0.999992
0.999997
1
1
1
1
0.999999
0.999999
1
1
1.00001
1.00001
1.00001
1.00001
1.00001
1
1
1
1
1.00001
1.00001
1.00001
1.00001
1.00001
1.00001
1.00001
1.00001
1.00001
1.00001
1.00001
1
0.999998
0.999985
0.999997
1
1
1
1
1.00001
1.00001
1.00001
1.00001
1
1
1
0.999996
0.999989
0.999997
1
1
1
1
1.00001
1.00001
1.00001
1.00001
1.00001
1.00001
1.00001
1.00001
1.00001
1.00001
1.00001
1.00001
1.00001
1.00001
1.00001
1
1
1
0.999995
0.999969
0.999967
0.999966
0.999966
0.999966
0.999966
0.99999
0.999996
0.999997
0.999998
0.999998
0.999998
0.999989
0.999982
0.999982
0.999981
0.999982
0.999996
1
1
1.00001
1.00001
1.00001
1.00001
1.00002
1.00001
1.00001
1.00001
1.00001
1.00001
1
1
1
1
1
1.00001
1.00001
1.00001
1.00001
1.00001
1.00001
1.00001
1.00001
1.00001
1.00001
1.00001
1
1
1
0.999999
0.999997
0.999999
1
1
1
1
1.00001
1.00001
1.00001
1.00001
1.00001
1.00001
1.00001
1
1
1
1
0.999999
0.999999
0.999997
0.999993
0.999993
0.999992
0.999993
0.999996
1
1
1
1
1.00001
1.00001
1.00001
1.00001
1.00001
1.00001
1.00001
1.00001
1.00001
1.00001
1.00001
1
1
1
1
0.999998
0.999987
0.999984
0.999984
0.999984
0.999984
0.999985
0.999985
0.999985
0.999978
0.999975
0.999974
0.999975
0.999976
0.999985
-8.40043e-72
-4.69463e-67
-6.17979e-64
-1.01198e-60
-5.02798e-60
-2.99305e-59
-8.43518e-59
-4.61558e-55
-1.46588e-54
-2.5777e-54
-3.27196e-54
-3.27232e-54
-5.77924e-46
-2.22919e-45
-4.29437e-45
-4.21486e-45
-3.24427e-45
-7.09662e-39
-3.3354e-38
-7.32327e-38
-9.19719e-38
2.51329e-38
2.20534e-37
5.03568e-23
1.18208e-21
7.43705e-11
2.46756e-09
3.76964e-08
3.65623e-07
2.56329e-06
1.24341e-05
4.66554e-05
0.000147535
0.000454361
0.001411
0.00360408
0.0102621
0.0236694
0.0745997
0.214058
0.664283
0.929515
0.962302
0.97976
0.989075
0.994076
0.996781
0.998244
0.999038
0.999473
0.99971
0.99984
0.99991
0.999952
0.999972
0.999979
0.999987
0.999991
0.999993
0.999994
0.999995
0.999984
0.999973
0.999983
0.999999
0.999996
0.999991
0.999991
0.999991
0.999998
1
1
1
1.00001
1.00001
1.00001
1.00001
1.00001
1.00001
1.00001
1.00001
1.00001
1.00001
1.00001
1
1
1
0.999998
0.999997
0.99999
0.999989
0.999988
0.999988
0.999988
0.999988
0.999993
1
1
1
1
0.999994
0.999982
0.999981
0.999981
0.999981
0.999981
0.999992
1
1
1
1
1
1
1
0.999994
0.999992
0.999991
0.999994
0.999999
1
1
1
1
1
1.00001
1.00001
1.00001
1.00001
1.00001
1.00001
1.00002
1.00002
1.00001
1.00001
1.00001
1.00001
1.00001
1
1
1
0.99999
0.999969
0.999968
0.999967
0.999966
0.999966
0.999974
0.999995
0.999996
0.999997
0.999997
0.999998
0.999996
0.999983
0.999983
0.999982
0.999982
0.999983
0.999998
1
1
1.00001
1.00001
1.00001
1.00001
1.00001
1.00001
1.00001
1.00001
1.00001
1.00001
1
1
1
1
1
1.00001
1.00001
1.00001
1.00001
1.00001
1.00001
1.00001
1.00001
1.00001
1.00001
1
1
1
0.999999
0.999997
0.999997
0.999997
1
1
1
1
1.00001
1.00001
1.00001
1.00001
1.00001
1.00001
1.00001
1
1
1
1
0.999999
0.999999
0.999998
0.999994
0.999993
0.999993
0.999993
0.999996
1
1
1
1
1.00001
1.00001
1.00001
1.00001
1.00001
1.00001
1.00001
1.00001
1.00001
1.00001
1.00001
1
1
1
1
0.999994
0.999985
0.999984
0.999984
0.999984
0.999985
0.999985
0.999985
0.999982
0.999976
0.999975
0.999975
0.999975
0.999983
0.999986
-3.11989e-74
-5.38253e-63
-2.94744e-61
-2.42199e-60
-8.57957e-60
-2.69736e-59
-6.30886e-59
-8.73619e-55
-5.74592e-54
-1.12296e-53
-1.35341e-53
-7.34749e-54
-7.31353e-48
-1.81356e-47
-2.56672e-47
-1.97846e-47
-1.52451e-47
-1.9159e-38
-5.21328e-38
3.20828e-37
1.14688e-36
1.08878e-35
2.5964e-35
1.31684e-23
2.67178e-22
7.18036e-11
2.44279e-09
3.79379e-08
3.72461e-07
2.63981e-06
1.29333e-05
4.93139e-05
0.000152892
0.00048462
0.00146342
0.00383266
0.0107373
0.0245879
0.0758028
0.223992
0.68184
0.930791
0.96294
0.980079
0.989235
0.994155
0.996817
0.998262
0.999044
0.99947
0.999704
0.999833
0.999902
0.999939
0.999959
0.999971
0.999978
0.999983
0.99999
0.999998
1
1
1
1
1
1
1
1
1
0.999998
0.999999
1
1
1
1.00001
1.00001
1.00001
1.00001
1.00001
1.00001
1.00001
1.00001
1.00001
1.00001
1.00001
1.00001
1.00001
1.00001
1.00001
1.00001
1.00001
1.00001
1.00001
1.00001
1.00001
1.00001
1.00001
1.00001
1.00001
1.00001
1
1
0.999992
0.999995
1
1
1
1
1.00001
1.00001
1.00001
1
1
1
0.999994
0.999996
1
1
1
1
1
1.00001
1.00001
1.00001
1.00001
1.00001
1.00001
1.00001
1.00001
1.00001
1.00001
1.00001
1.00001
1.00001
1.00001
1.00001
1
1
0.999999
0.999997
0.999978
0.999969
0.999968
0.999967
0.999967
0.999967
0.999975
0.999994
0.999996
0.999996
0.999997
0.999997
0.999987
0.999983
0.999983
0.999983
0.999982
0.99999
1
1
1
1.00001
1.00001
1.00001
1.00001
1.00001
1.00001
1.00001
1.00001
1.00001
1.00001
1
1
1
1
1.00001
1.00001
1.00001
1.00001
1.00001
1.00001
1.00001
1.00001
1.00001
1.00001
1.00001
1
1
1
0.999999
0.999997
0.999997
0.999998
1
1
1
1
1.00001
1.00001
1.00001
1.00001
1.00001
1.00001
1
1
1
1
1
0.999999
0.999999
0.999998
0.999995
0.999994
0.999994
0.999994
0.999996
1
1
1
1.00001
1.00001
1.00001
1.00001
1.00001
1.00001
1.00001
1.00001
1.00001
1.00001
1.00001
1.00001
1
1
1
0.999999
0.999992
0.999985
0.999984
0.999984
0.999984
0.999985
0.999985
0.999985
0.999982
0.999977
0.999976
0.999975
0.999976
0.999986
0.999986
-8.37567e-66
-1.87786e-60
-1.09154e-59
-2.04332e-58
-2.0499e-57
-6.63049e-56
-3.7943e-55
-5.82939e-54
-4.01294e-53
-8.3444e-53
-3.26787e-51
1.74712e-48
2.07417e-46
1.46855e-44
2.0737e-43
2.18943e-40
6.83046e-39
6.88973e-38
2.59342e-36
2.27158e-35
4.0556e-35
4.02222e-33
1.1007e-32
5.7323e-24
9.16075e-23
7.03475e-11
2.43235e-09
3.8155e-08
3.77246e-07
2.68973e-06
1.32472e-05
5.089e-05
0.000156386
0.000502452
0.00149725
0.00397128
0.0110383
0.0251656
0.075959
0.230369
0.693904
0.931632
0.963351
0.980259
0.989302
0.994169
0.996803
0.998235
0.999018
0.999452
0.999694
0.999831
0.999907
0.999947
0.999972
0.999986
0.999993
0.999996
0.999997
0.999998
1
1
0.999987
0.999984
0.999984
0.999984
0.999984
0.999988
0.999999
1
1
1
1
1
1
1
1
1
1.00001
1.00001
1.00001
1.00001
1.00001
1.00001
1.00001
1.00001
1.00001
1.00001
1
1
0.999997
0.99999
0.99999
0.99999
0.999994
1
1
1
1
1
0.999998
0.999979
0.999977
0.999977
0.999977
0.999981
0.999999
1
1
1
1
1
1
0.999997
0.999995
0.999995
0.999996
1
1
1
1
1
1.00001
1.00001
1.00001
1.00001
1.00001
1.00001
1.00002
1.00002
1.00002
1.00001
1.00001
1.00001
1.00001
1
1
1
0.999999
0.999996
0.999973
0.99997
0.999969
0.999968
0.999967
0.999968
0.999983
0.999994
0.999995
0.999996
0.999996
0.999996
0.999984
0.999984
0.999983
0.999983
0.999983
0.999997
1
1
1
1.00001
1.00001
1.00001
1.00001
1.00001
1.00001
1.00001
1.00001
1.00001
1.00001
1
1
1
1
1.00001
1.00001
1.00001
1.00001
1.00001
1.00001
1.00001
1.00001
1.00001
1.00001
1.00001
1
1
1
0.999998
0.999997
0.999997
0.999998
1
1
1
1
1.00001
1.00001
1.00001
1.00001
1.00001
1
1
1
1
1
1
0.999999
0.999999
0.999998
0.999995
0.999995
0.999994
0.999995
0.999997
1
1
1
1.00001
1.00001
1.00001
1.00001
1.00001
1.00001
1.00001
1.00001
1.00001
1.00001
1.00001
1
1
1
1
1
0.999992
0.999985
0.999984
0.999984
0.999985
0.999985
0.999985
0.999985
0.999985
0.99998
0.999976
0.999976
0.999976
0.99998
0.999987
-5.28358e-64
-7.62332e-61
-7.97095e-58
-8.35382e-57
-7.4807e-56
-2.20013e-54
-1.47658e-53
-3.38e-53
4.5364e-52
-6.26742e-49
-8.07388e-49
1.03525e-45
3.06314e-43
7.8221e-42
1.275e-40
2.45768e-38
5.58473e-37
3.68044e-35
1.20793e-33
2.62669e-32
2.13867e-31
1.29701e-30
1.73334e-29
1.67024e-24
2.58898e-23
6.98207e-11
2.42082e-09
3.80713e-08
3.77248e-07
2.69428e-06
1.33047e-05
5.10927e-05
0.000157247
0.000504755
0.00150469
0.00399253
0.0110969
0.0252539
0.0759851
0.231684
0.696456
0.931816
0.963445
0.980317
0.989342
0.994196
0.996828
0.998261
0.99904
0.999465
0.999702
0.999835
0.999908
0.999947
0.999969
0.999986
0.999993
0.999997
0.999999
1
1
1
1
1
1
1
1
1
1
1
1
1
1
1.00001
1.00001
1.00001
1.00001
1.00001
1.00001
1.00001
1.00001
1.00001
1.00001
1.00001
1.00001
1.00001
1.00001
1.00001
1
1
1
1
1
1
1
1.00001
1.00001
1.00001
1
1
0.999998
0.999982
0.999983
0.999996
1
1
1
1
1
1.00001
1
1
1
1
0.999995
1
1
1
1
1
1
1
1.00001
1.00001
1.00001
1.00001
1.00001
1.00001
1.00001
1.00001
1.00001
1.00001
1.00001
1.00001
1.00001
1
1
1
0.999999
0.999993
0.999972
0.99997
0.999969
0.999969
0.999968
0.999969
0.999975
0.999993
0.999994
0.999995
0.999996
0.999987
0.999984
0.999984
0.999984
0.999985
0.999997
1
1
1
1
1.00001
1.00001
1.00001
1.00001
1.00001
1.00001
1.00001
1.00001
1.00001
1.00001
1.00001
1
1.00001
1.00001
1.00001
1.00001
1.00001
1.00001
1.00001
1.00001
1.00001
1.00001
1.00001
1.00001
1.00001
1
1
1
0.999999
0.999997
0.999997
1
1
1
1
1
1.00001
1.00001
1.00001
1.00001
1
1
1
1
1
1
1
0.999999
0.999999
0.999998
0.999996
0.999995
0.999995
0.999995
0.999998
1
1
1
1.00001
1.00001
1.00001
1.00001
1.00001
1.00001
1.00001
1.00001
1.00001
1.00001
1.00001
1
1
1
1
0.999999
0.999988
0.999985
0.999984
0.999984
0.999985
0.999985
0.999985
0.999986
0.999985
0.999978
0.999977
0.999976
0.999977
0.999979
0.999987
-3.56912e-61
-6.99536e-60
-7.34896e-58
-2.79527e-57
-4.2001e-55
-2.05439e-53
-4.3338e-52
-7.71539e-52
-7.48364e-52
-2.29762e-51
4.76351e-48
5.21084e-43
4.76605e-41
1.12488e-39
2.77602e-38
1.08256e-36
3.7288e-35
4.46955e-33
1.43038e-31
3.31686e-30
3.65872e-29
1.86788e-28
3.09066e-27
3.71618e-25
5.81632e-24
7.00974e-11
2.40135e-09
3.75706e-08
3.71377e-07
2.64649e-06
1.30789e-05
4.97677e-05
0.000155259
0.000490014
0.00148381
0.00388583
0.0108945
0.0248092
0.0758947
0.227371
0.68857
0.93123
0.963124
0.980126
0.989226
0.994134
0.996792
0.998234
0.999024
0.999462
0.999705
0.999837
0.999909
0.999951
0.999972
0.999983
0.999991
0.999995
0.999997
0.999999
0.999992
0.999974
0.999974
0.999974
0.999974
0.999974
0.999983
0.999999
0.999999
0.999992
0.999992
0.999992
0.999992
0.999995
1
1
1
1
1.00001
1.00001
1.00001
1.00001
1.00001
1.00002
1.00002
1.00001
1.00001
1.00001
1.00001
1
1
0.999999
0.999999
1
1
1
1.00001
1
1
1
0.999989
0.999982
0.999982
0.999982
0.999985
1
1
1
1
1
1
1
1
0.999999
0.999996
0.999997
0.999999
1
1
1
1
1
1.00001
1.00001
1.00001
1.00001
1.00001
1.00001
1.00001
1.00001
1.00001
1.00001
1.00001
1.00001
1
1
1
1
0.999999
0.999993
0.999973
0.999971
0.99997
0.999969
0.999969
0.999969
0.99997
0.999977
0.999993
0.999994
0.999994
0.999994
0.999995
0.999984
0.999984
0.999993
0.999999
1
1
1
1
1.00001
1.00001
1.00001
1.00001
1.00001
1.00001
1.00001
1.00001
1.00001
1.00001
1.00001
1.00001
1.00001
1.00001
1.00001
1.00001
1.00001
1.00001
1.00001
1.00001
1.00001
1.00001
1.00001
1.00001
1.00001
1
1
1
1
0.999997
0.999999
1
1
1
1
1
1.00001
1.00001
1.00001
1
1
1
1
1
1
1
1
0.999999
0.999998
0.999998
0.999998
0.999996
0.999995
0.999996
0.999999
1
1
1
1.00001
1.00001
1.00001
1.00001
1.00001
1.00001
1.00001
1.00001
1.00001
1.00001
1.00001
1
1
1
0.999999
0.999998
0.999988
0.999985
0.999984
0.999984
0.999985
0.999985
0.999986
0.999986
0.999986
0.999983
0.999977
0.999977
0.999977
0.999984
0.999988
-7.28808e-71
9.93587e-76
2.17818e-73
-1.39404e-71
1.78437e-69
0
9.82343e-54
4.29754e-51
7.40043e-48
8.24134e-46
3.59891e-45
1.24171e-40
6.7047e-39
1.30664e-37
1.56489e-36
3.03303e-35
4.46213e-33
2.90897e-31
1.81926e-30
3.31686e-30
1.04679e-28
6.95526e-27
1.34775e-25
6.77052e-25
2.96053e-24
7.02168e-11
2.36212e-09
3.66036e-08
3.59737e-07
2.54924e-06
1.26012e-05
4.70005e-05
0.000150903
0.000459513
0.00143869
0.00366372
0.0104617
0.0238978
0.0750867
0.21775
0.671298
0.929894
0.962417
0.979763
0.989044
0.994035
0.996736
0.998208
0.999012
0.999452
0.999695
0.999831
0.999907
0.999949
0.999971
0.999982
0.999988
0.999992
0.999995
0.999997
0.999997
0.999999
1
1
1
1
1
1
1
0.999997
1
1
1
1
1
1
0.999997
0.999997
0.999997
1
1
1
1.00001
1.00001
1.00001
1
1
1
0.999999
0.999995
0.999995
0.999995
0.999996
1
1
1
1
1
1
0.999999
0.999984
0.999983
0.999982
0.999989
1
1
1
1
1
1
1
1
1
1
1
1
1
1
1
1
1
1
1.00001
1.00001
1.00001
1.00001
1.00001
1.00001
1.00001
1.00001
1.00001
1.00001
1.00001
1.00001
1
1
1
1
0.999999
0.999996
0.999977
0.999971
0.999977
0.999978
0.999978
0.999976
0.999971
0.999973
0.999976
0.999991
0.999994
0.999995
0.999996
0.999993
0.999986
0.99999
0.999999
1
1
1
1
1.00001
1.00001
1.00001
1.00001
1.00001
1.00001
1.00001
1.00001
1.00001
1.00001
1.00001
1.00001
1.00001
1.00001
1.00001
1.00001
1.00001
1.00001
1.00001
1.00001
1.00001
1.00001
1.00001
1.00001
1
1
1
1
0.999999
0.999998
0.999999
1
1
1
1
1
1
1
1
1
1
1
1
1
1
1
0.999999
0.999998
0.999998
0.999998
0.999999
1
0.999997
0.999998
1
1
1
1
1.00001
1.00001
1.00001
1.00001
1.00001
1.00001
1.00001
1.00001
1.00001
1.00001
1.00001
1
1
0.999999
0.999998
0.999997
0.999987
0.999984
0.999984
0.999984
0.999984
0.999986
0.999986
0.999986
0.999986
0.999979
0.999977
0.999977
0.999977
0.999978
0.999988
-1.00683e-67
4.35711e-60
2.20398e-57
1.64799e-55
1.65655e-53
1.3666e-50
1.10969e-46
4.25439e-45
5.8716e-44
4.09583e-43
1.35136e-42
1.21825e-38
6.18893e-37
1.04436e-35
9.72859e-35
1.17154e-33
2.87621e-31
2.12247e-29
1.99509e-28
3.27607e-26
6.12288e-25
1.29544e-24
2.1824e-24
9.28202e-25
6.84304e-24
6.91216e-11
2.28888e-09
3.51373e-08
3.43124e-07
2.41339e-06
1.19442e-05
4.31084e-05
0.000145175
0.000416142
0.00137749
0.00334561
0.00985383
0.0230755
0.0730096
0.205006
0.64524
0.927875
0.961342
0.979186
0.988738
0.993882
0.99666
0.998162
0.998987
0.999442
0.999691
0.999829
0.999908
0.999951
0.999966
0.999981
0.999989
0.999992
0.999996
0.999987
0.999983
0.999983
0.999983
0.999983
0.999983
0.999986
0.999998
0.999991
0.99999
0.99999
0.999992
1
1
1
1
1
1
1.00001
1.00001
1.00001
1.00001
1.00002
1.00002
1.00002
1.00002
1.00001
1.00001
1.00001
1.00001
1.00001
1
1
1
1
1
1
1
1
1
1
0.999997
0.999984
0.999983
0.999984
0.999994
1
1
1
1
1
1
1
1
1
1
1
0.999998
0.999998
0.999999
1
1
1
1
1.00001
1.00001
1.00001
1.00001
1.00001
1.00001
1.00001
1.00001
1.00001
1.00001
1.00001
1
1
1
1
1
0.999998
0.999995
0.999972
0.999972
0.999976
0.999973
0.999973
0.999973
0.999973
0.999973
0.999977
0.999994
0.999996
0.999997
0.999998
0.999995
0.999991
0.999993
0.999999
1
1
1
1
1.00001
1.00001
1.00001
1.00001
1.00001
1.00001
1.00001
1.00001
1.00001
1.00001
1.00001
1.00001
1.00001
1.00001
1.00001
1.00001
1.00001
1.00001
1.00001
1.00001
1.00001
1.00001
1.00001
1.00001
1
1
1
1
1
1
1
1
1
1
1
1
1
1
1
1
1
1
1
1
0.999999
0.999998
0.999998
0.999998
0.999999
1
1
0.999999
0.999999
1
1
1
1
1.00001
1.00001
1.00001
1.00001
1.00001
1.00001
1.00001
1.00001
1.00001
1.00001
1.00001
1
1
0.999998
0.999998
0.999991
0.999985
0.999984
0.999984
0.999984
0.999984
0.999986
0.999986
0.999986
0.999982
0.999978
0.999977
0.999977
0.999977
0.999985
0.999989
-8.07976e-59
1.21395e-55
6.32951e-53
4.19897e-51
1.60433e-49
4.18898e-47
5.38888e-44
1.35094e-42
1.45205e-41
8.73864e-41
3.80839e-40
7.41985e-37
3.55488e-35
5.53562e-34
8.78191e-34
1.18591e-33
2.0615e-29
3.13087e-27
2.90813e-25
3.74804e-24
1.68532e-23
5.46232e-23
1.4153e-22
2.56482e-23
1.81105e-23
6.96532e-11
2.2486e-09
3.39387e-08
3.27344e-07
2.27814e-06
1.10704e-05
3.98493e-05
0.00013392
0.000378528
0.00128118
0.00301643
0.00909525
0.0212391
0.0704729
0.190437
0.613647
0.925507
0.960079
0.978515
0.988378
0.993684
0.996552
0.998107
0.998953
0.999417
0.999675
0.999818
0.999898
0.999942
0.999966
0.999979
0.999989
0.999996
0.999999
1
1
1
1
1.00001
1.00001
1.00001
1.00001
1.00001
1.00001
1.00001
1.00001
1.00001
1.00001
1.00001
1.00001
1
1
1
1
1
1.00001
1.00001
1.00001