/*--------------------------------*- C++ -*----------------------------------*\
| =========                 |                                                 |
| \\      /  F ield         | OpenFOAM: The Open Source CFD Toolbox           |
|  \\    /   O peration     | Version:  2406                                  |
|   \\  /    A nd           | Website:  www.openfoam.com                      |
|    \\/     M anipulation  |                                                 |
\*---------------------------------------------------------------------------*/
FoamFile
{
    version     2.0;
    format      ascii;
    arch        "LSB;label=32;scalar=64";
    class       surfaceScalarField;
    location    "0.05";
    object      alphaPhi0.glycerin;
}
// * * * * * * * * * * * * * * * * * * * * * * * * * * * * * * * * * * * * * //

dimensions      [0 3 -1 0 0 0 0];

oriented        oriented;

internalField   nonuniform List<scalar> 
12225
(
1.64473e-61
1.54126e-63
9.07965e-61
3.03549e-62
1.12734e-59
3.93364e-61
7.62804e-59
2.36492e-60
4.07796e-58
1.22812e-59
1.68993e-57
5.306e-59
5.53192e-57
1.74535e-58
1.43654e-56
4.30123e-58
3.02303e-56
8.12511e-58
5.6531e-56
1.24596e-57
1.15401e-55
1.81576e-57
3.29872e-55
3.20625e-57
1.23282e-54
6.93295e-57
4.48778e-54
1.40234e-56
2.69765e-53
5.64234e-56
3.81508e-52
8.99516e-55
5.64881e-51
2.00552e-53
4.92535e-50
2.5796e-52
2.84305e-49
1.99606e-51
1.27073e-48
1.1646e-50
3.4588e-48
3.80845e-50
9.05498e-48
1.54562e-49
1.45153e-47
2.14812e-49
1.73405e-21
2.52024e-23
1.46012e-20
4.81053e-22
2.73994e-20
1.11498e-21
-4.95539e-20
-3.86587e-21
-5.947e-18
-1.67295e-18
-1.58164e-18
-7.17491e-19
2.296e-08
-2.28854e-11
3.73087e-08
1.21337e-10
3.78072e-08
-3.07519e-10
3.64911e-08
1.36106e-09
3.6147e-08
3.67057e-10
3.66469e-08
-4.83419e-10
3.70288e-08
-3.74385e-10
3.73718e-08
-3.3887e-10
3.79904e-08
-6.15703e-10
3.89099e-08
-9.18213e-10
3.99511e-08
-1.04124e-09
4.09747e-08
-1.02282e-09
4.19132e-08
-9.37547e-10
4.27366e-08
-8.22997e-10
4.34385e-08
-7.01669e-10
4.40267e-08
-5.89288e-10
4.45183e-08
-4.91193e-10
4.49283e-08
-4.08375e-10
4.5269e-08
-3.39818e-10
4.55517e-08
-2.83099e-10
4.57885e-08
-2.36352e-10
4.59878e-08
-1.98035e-10
4.61553e-08
-1.66778e-10
4.62963e-08
-1.41051e-10
4.64158e-08
-1.19835e-10
4.6517e-08
-1.02035e-10
4.66026e-08
-8.70414e-11
4.66749e-08
-7.40883e-11
4.67404e-08
-6.32755e-11
4.67959e-08
-5.44485e-11
4.68444e-08
-4.70628e-11
4.68856e-08
-4.10288e-11
4.69202e-08
-3.5733e-11
4.69498e-08
-3.08756e-11
4.6976e-08
-2.63902e-11
4.69993e-08
-2.23234e-11
4.702e-08
-1.89982e-11
4.70375e-08
-1.64712e-11
4.70524e-08
-1.46179e-11
4.70656e-08
-1.31596e-11
4.70777e-08
-1.1851e-11
4.70887e-08
-1.06007e-11
4.70982e-08
-9.32837e-12
4.71061e-08
-8.20498e-12
4.71124e-08
-7.00975e-12
4.71182e-08
-6.20117e-12
4.71237e-08
-5.25844e-12
4.71293e-08
-4.3295e-12
4.71348e-08
-3.48509e-12
4.71399e-08
-2.77746e-12
4.71442e-08
-2.3466e-12
4.71474e-08
-2.14001e-12
4.71499e-08
-2.09221e-12
4.71519e-08
-2.15888e-12
4.71538e-08
-2.22144e-12
4.71558e-08
-2.20749e-12
4.71576e-08
-1.8133e-12
4.71594e-08
-1.89944e-12
4.71609e-08
-1.76166e-12
4.71621e-08
-1.72894e-12
4.71629e-08
-1.78321e-12
4.71636e-08
-1.77331e-12
4.71641e-08
-1.69267e-12
4.71646e-08
-1.56465e-12
4.71651e-08
-1.32765e-12
4.71657e-08
-1.19727e-12
4.71657e-08
-1.08634e-12
4.71648e-08
-9.44584e-13
4.71652e-08
-8.12405e-13
4.71655e-08
-6.75436e-13
4.71658e-08
-6.23541e-13
4.7166e-08
-2.9793e-13
4.71678e-08
-1.60484e-13
4.71677e-08
-1.01287e-14
4.71678e-08
-9.41116e-15
4.71681e-08
-1.93763e-14
4.71684e-08
2.07378e-14
4.71681e-08
1.76487e-13
4.71673e-08
4.29216e-14
4.71672e-08
-2.11139e-14
4.71672e-08
-3.73515e-14
4.71674e-08
-1.02534e-13
4.71675e-08
-4.63898e-14
4.71682e-08
8.45395e-14
4.7168e-08
1.3872e-13
4.71678e-08
1.68319e-13
4.71678e-08
1.72577e-13
4.71676e-08
1.93092e-13
4.71674e-08
1.67491e-13
4.71672e-08
2.00874e-13
4.7168e-08
2.0919e-13
4.7168e-08
1.56572e-13
4.71681e-08
8.22479e-14
4.71683e-08
1.4727e-14
4.71687e-08
-3.12886e-14
4.7169e-08
-4.50016e-14
4.71693e-08
4.96475e-14
4.71691e-08
1.68388e-13
4.7168e-08
-7.20349e-14
4.71682e-08
-3.53338e-14
4.71681e-08
1.67134e-13
4.71678e-08
2.68862e-13
4.71674e-08
2.75676e-13
4.71672e-08
2.46565e-13
4.71683e-08
2.28032e-13
4.71684e-08
2.07718e-13
4.71683e-08
1.57176e-13
4.71683e-08
9.53832e-14
4.71682e-08
7.48114e-14
4.71684e-08
8.18118e-16
4.71681e-08
-1.14733e-14
4.71687e-08
1.18913e-13
4.71688e-08
2.30508e-13
4.7169e-08
1.35335e-13
4.7169e-08
2.01331e-13
4.71688e-08
3.17178e-13
4.71687e-08
2.24364e-13
4.71686e-08
2.13541e-13
4.71684e-08
1.5757e-13
4.71683e-08
5.85861e-14
4.71683e-08
4.80056e-15
4.71683e-08
2.02029e-15
4.71684e-08
-1.90825e-14
4.71682e-08
-1.79702e-14
4.71679e-08
6.10789e-14
4.71688e-08
1.04118e-13
4.71691e-08
1.17089e-13
4.71692e-08
1.78847e-13
4.71691e-08
2.42941e-13
4.71691e-08
2.55854e-13
4.71691e-08
2.59513e-13
4.71689e-08
2.67865e-13
4.71687e-08
2.64944e-13
4.71684e-08
2.49854e-13
4.7168e-08
2.09496e-13
4.71676e-08
1.71934e-13
4.71672e-08
1.05211e-13
4.71669e-08
6.42569e-14
4.71667e-08
3.52237e-14
4.71666e-08
1.42539e-14
4.71666e-08
-5.41432e-16
4.71666e-08
-9.90877e-15
4.7167e-08
-9.44282e-15
4.71674e-08
-1.77771e-14
4.71677e-08
3.90497e-14
4.71681e-08
6.43237e-14
4.71684e-08
8.56832e-14
4.71686e-08
1.03705e-13
4.71688e-08
1.21696e-13
4.71688e-08
1.35838e-13
4.71688e-08
1.46314e-13
4.71687e-08
1.61088e-13
4.71686e-08
1.87712e-13
4.71684e-08
1.63001e-13
4.71682e-08
1.50154e-13
4.7168e-08
1.43242e-13
4.71678e-08
1.19297e-13
4.71677e-08
9.65246e-14
4.71676e-08
1.14549e-13
4.71676e-08
1.26893e-13
4.71676e-08
1.14744e-13
4.71677e-08
8.49896e-14
4.71678e-08
1.19774e-13
4.7168e-08
1.2461e-13
4.7168e-08
1.11767e-13
4.7168e-08
1.00211e-13
4.7168e-08
1.04828e-13
4.7168e-08
1.10386e-13
4.71679e-08
1.36321e-13
4.71677e-08
1.62469e-13
4.71676e-08
1.38804e-13
4.71674e-08
1.3798e-13
4.71672e-08
1.46949e-13
4.71669e-08
1.53587e-13
4.71667e-08
1.59321e-13
4.71666e-08
1.68173e-13
4.71664e-08
1.70153e-13
4.71662e-08
1.7055e-13
4.71662e-08
1.83596e-13
4.71662e-08
2.01129e-13
4.71663e-08
2.28078e-13
4.71663e-08
2.40654e-13
4.71663e-08
2.35571e-13
4.71665e-08
2.91985e-13
4.71666e-08
3.26677e-13
4.71665e-08
3.65756e-13
4.71662e-08
4.12361e-13
4.71658e-08
4.6453e-13
4.71655e-08
5.27067e-13
4.7165e-08
6.02253e-13
4.71644e-08
6.92249e-13
4.71637e-08
7.98823e-13
4.71627e-08
9.28322e-13
4.71616e-08
1.07613e-12
4.71604e-08
1.22144e-12
4.71589e-08
1.41595e-12
4.71571e-08
1.6464e-12
4.71551e-08
1.92433e-12
4.71526e-08
2.25155e-12
4.71498e-08
2.65037e-12
4.71467e-08
3.13707e-12
4.71431e-08
3.72132e-12
4.71387e-08
4.44776e-12
4.71335e-08
5.37386e-12
4.7127e-08
6.46758e-12
4.71189e-08
7.86573e-12
4.71094e-08
9.73928e-12
4.70974e-08
1.21623e-11
4.70823e-08
1.52983e-11
4.70631e-08
1.94453e-11
4.70386e-08
2.4822e-11
4.70069e-08
3.19057e-11
4.69657e-08
4.13451e-11
4.69121e-08
5.35933e-11
4.68427e-08
6.95331e-11
4.67529e-08
8.99748e-11
4.66384e-08
1.1545e-10
4.64917e-08
1.46758e-10
4.63086e-08
1.82992e-10
4.60898e-08
2.18861e-10
2.27592e-10
4.05076e-62
4.81991e-65
2.29267e-61
7.21664e-64
2.72228e-60
1.19973e-62
1.54915e-59
6.68104e-62
7.7077e-59
3.11721e-61
3.10984e-58
1.53449e-60
1.02658e-57
6.16855e-60
2.74193e-57
1.64331e-59
5.85591e-57
2.97471e-59
9.53533e-57
3.84423e-59
1.18126e-56
3.20061e-59
1.3088e-56
1.5815e-59
1.5614e-56
6.53445e-60
7.68082e-56
8.71426e-59
5.3875e-54
8.52385e-57
2.21284e-52
4.33292e-55
4.03885e-51
1.57879e-53
4.35421e-50
2.81336e-52
3.00939e-49
2.74282e-51
2.00081e-48
2.51593e-50
7.9584e-48
1.47602e-49
1.03355e-46
3.54861e-48
1.07458e-46
2.19394e-48
5.64289e-22
7.08613e-24
3.50038e-21
1.32871e-22
6.62775e-21
3.25338e-22
3.68927e-17
7.33132e-18
1.643e-17
1.24097e-18
1.0729e-10
2.62342e-12
1.02552e-09
3.97419e-11
1.32112e-09
2.51565e-12
2.39568e-09
-2.88374e-11
2.27395e-08
-3.10814e-10
7.16599e-08
-1.18942e-09
8.68426e-08
-1.22935e-09
8.7848e-08
-4.21977e-10
8.93467e-08
-6.85966e-10
9.20077e-08
-2.3663e-09
9.46249e-08
-3.05877e-09
9.68448e-08
-3.15167e-09
9.88565e-08
-2.99786e-09
1.00629e-07
-2.68923e-09
1.02131e-07
-2.31356e-09
1.03382e-07
-1.94624e-09
1.04416e-07
-1.62139e-09
1.05271e-07
-1.34622e-09
1.0598e-07
-1.11722e-09
1.06563e-07
-9.28567e-10
1.07055e-07
-7.7445e-10
1.07472e-07
-6.48805e-10
1.0782e-07
-5.4568e-10
1.08113e-07
-4.60505e-10
1.08362e-07
-3.90036e-10
1.08575e-07
-3.31761e-10
1.08757e-07
-2.83416e-10
1.0891e-07
-2.42863e-10
1.09042e-07
-2.0846e-10
1.09157e-07
-1.794e-10
1.09255e-07
-1.5431e-10
1.09346e-07
-1.33139e-10
1.09421e-07
-1.15326e-10
1.09486e-07
-1.00127e-10
1.09544e-07
-8.7167e-11
1.09594e-07
-7.60398e-11
1.09637e-07
-6.64343e-11
1.09674e-07
-5.80495e-11
1.09706e-07
-5.06333e-11
1.09734e-07
-4.40369e-11
1.09759e-07
-3.82182e-11
1.09781e-07
-3.32545e-11
1.09801e-07
-2.91539e-11
1.09819e-07
-2.58797e-11
1.09832e-07
-2.32053e-11
1.09845e-07
-2.10817e-11
1.09856e-07
-1.87476e-11
1.09866e-07
-1.66656e-11
1.09877e-07
-1.47731e-11
1.09886e-07
-1.3026e-11
1.09893e-07
-1.15411e-11
1.099e-07
-1.02375e-11
1.09905e-07
-9.03055e-12
1.09909e-07
-7.92686e-12
1.09911e-07
-6.79339e-12
1.09911e-07
-5.90754e-12
1.0991e-07
-4.93521e-12
1.09914e-07
-4.36776e-12
1.09916e-07
-3.21205e-12
1.09922e-07
-2.54766e-12
1.09928e-07
-2.17544e-12
1.09928e-07
-2.00327e-12
1.0993e-07
-1.88042e-12
1.09932e-07
-1.75257e-12
1.09934e-07
-1.58852e-12
1.09936e-07
-1.45e-12
1.09937e-07
-1.2515e-12
1.09937e-07
-1.10516e-12
1.09938e-07
-9.81757e-13
1.09937e-07
-8.8501e-13
1.09937e-07
-8.31825e-13
1.09937e-07
-7.19366e-13
1.09938e-07
-6.5689e-13
1.0994e-07
-2.47014e-13
1.09941e-07
-1.04181e-13
1.09942e-07
-1.59924e-13
1.09944e-07
-2.18697e-13
1.09944e-07
-3.17746e-13
1.09945e-07
-5.7508e-13
1.09945e-07
-4.25517e-13
1.09945e-07
-3.93757e-13
1.09944e-07
-3.98676e-13
1.09944e-07
-4.5453e-13
1.09944e-07
-4.32961e-13
1.09944e-07
-3.12992e-13
1.09944e-07
-2.14607e-13
1.09943e-07
-1.48576e-13
1.09943e-07
-2.92316e-13
1.09943e-07
-2.95861e-13
1.09943e-07
-3.13072e-13
1.09943e-07
-3.07922e-13
1.09943e-07
-2.03451e-13
1.09943e-07
-2.04715e-13
1.09944e-07
-2.99154e-13
1.09945e-07
-4.18585e-13
1.09946e-07
-3.9367e-13
1.09947e-07
-3.76004e-13
1.09948e-07
-3.77078e-13
1.09949e-07
-4.28874e-13
1.09948e-07
-2.46521e-13
1.09948e-07
-2.17835e-13
1.09947e-07
-9.47169e-14
1.09946e-07
4.16573e-15
1.09945e-07
2.5971e-13
1.09945e-07
1.62563e-13
1.09944e-07
2.22265e-13
1.09943e-07
3.36595e-13
1.09943e-07
2.11851e-13
1.09942e-07
1.48872e-13
1.09942e-07
1.36234e-13
1.09941e-07
8.06041e-14
1.0994e-07
3.63813e-14
1.09937e-07
3.22456e-14
1.09937e-07
2.56764e-14
1.09937e-07
-3.72675e-14
1.09936e-07
8.93072e-14
1.09936e-07
-4.07724e-14
1.09936e-07
3.47581e-14
1.09939e-07
-6.19354e-15
1.0994e-07
-1.30241e-13
1.0994e-07
-2.33494e-13
1.0994e-07
-2.60213e-13
1.09941e-07
-3.30636e-13
1.0994e-07
-3.52021e-13
1.09939e-07
-2.98698e-13
1.09939e-07
-2.36849e-13
1.09939e-07
-1.40131e-13
1.09939e-07
-1.07293e-13
1.0994e-07
-3.39719e-14
1.09941e-07
1.30918e-14
1.09941e-07
1.26275e-14
1.09942e-07
3.69655e-16
1.09942e-07
-3.25137e-15
1.09942e-07
-1.46752e-14
1.09942e-07
-3.94016e-14
1.09942e-07
-8.01946e-14
1.09942e-07
-1.38107e-13
1.09942e-07
-1.74151e-13
1.09941e-07
-1.77687e-13
1.09941e-07
-1.86169e-13
1.0994e-07
-1.88902e-13
1.0994e-07
-1.84846e-13
1.0994e-07
-1.73027e-13
1.0994e-07
-1.55106e-13
1.0994e-07
-1.09927e-13
1.09941e-07
-9.24081e-14
1.09941e-07
-4.85795e-14
1.09942e-07
-4.16905e-14
1.09942e-07
-2.66919e-14
1.09943e-07
-1.69827e-14
1.09943e-07
-8.09281e-15
1.09943e-07
-1.79338e-14
1.09943e-07
-3.90596e-14
1.09943e-07
-7.094e-14
1.09943e-07
-6.1892e-14
1.09943e-07
-5.63851e-14
1.09943e-07
-6.17804e-14
1.09943e-07
-7.10574e-14
1.09942e-07
-1.03975e-13
1.09942e-07
-1.15584e-13
1.09942e-07
-1.16059e-13
1.09942e-07
-4.70867e-14
1.09942e-07
-6.83214e-14
1.09942e-07
-1.1384e-13
1.09942e-07
-5.04192e-14
1.09942e-07
-2.48667e-14
1.09942e-07
-1.95633e-14
1.09942e-07
-2.45276e-14
1.09942e-07
-1.14913e-15
1.09942e-07
2.59423e-16
1.09942e-07
-4.69158e-15
1.09942e-07
3.48041e-14
1.09941e-07
7.45743e-14
1.09941e-07
1.13062e-13
1.09941e-07
1.49932e-13
1.0994e-07
1.86568e-13
1.0994e-07
2.17759e-13
1.09939e-07
2.45659e-13
1.09939e-07
2.903e-13
1.09939e-07
3.31636e-13
1.09938e-07
3.91979e-13
1.09938e-07
4.78415e-13
1.09938e-07
5.37375e-13
1.09937e-07
6.55082e-13
1.09937e-07
7.25388e-13
1.09937e-07
8.73656e-13
1.09937e-07
1.03634e-12
1.09936e-07
1.19496e-12
1.09936e-07
1.36172e-12
1.09935e-07
1.56711e-12
1.09934e-07
1.83223e-12
1.09933e-07
2.13442e-12
1.09931e-07
2.48319e-12
1.09929e-07
2.88305e-12
1.09927e-07
3.34664e-12
1.09924e-07
3.89648e-12
1.0992e-07
4.54104e-12
1.09916e-07
5.32373e-12
1.09912e-07
6.24421e-12
1.09906e-07
7.3312e-12
1.099e-07
8.6266e-12
1.09893e-07
1.01799e-11
1.09884e-07
1.20581e-11
1.09874e-07
1.43607e-11
1.09862e-07
1.7241e-11
1.09848e-07
2.06859e-11
1.09831e-07
2.49918e-11
1.0981e-07
3.04167e-11
1.09785e-07
3.72441e-11
1.09755e-07
4.59441e-11
1.09717e-07
5.69635e-11
1.09671e-07
7.08732e-11
1.09614e-07
8.85391e-11
1.09545e-07
1.10813e-10
1.09461e-07
1.38538e-10
1.09358e-07
1.72682e-10
1.09234e-07
2.13893e-10
1.09088e-07
2.62265e-10
1.08917e-07
3.1671e-10
1.08729e-07
3.72104e-10
1.08534e-07
4.14678e-10
4.1878e-10
1.248e-64
1.11711e-67
1.5249e-62
5.56489e-65
1.15186e-61
7.5247e-64
5.51333e-61
4.69636e-63
1.97127e-60
2.1216e-62
6.2953e-60
8.10325e-62
1.83512e-59
2.57941e-61
4.48613e-59
6.14388e-61
8.87983e-59
1.13102e-60
1.69733e-58
1.41383e-60
2.89656e-58
6.08038e-61
3.40639e-58
5.27501e-61
3.35252e-58
8.28191e-60
2.04859e-56
2.33135e-58
2.86033e-54
9.86746e-57
1.35928e-52
4.48882e-55
4.19723e-51
2.47461e-53
8.14471e-50
7.06417e-52
9.62967e-49
1.11675e-50
1.50854e-47
2.20339e-49
1.01113e-45
3.66992e-47
5.269e-45
2.45522e-46
5.22919e-45
6.47227e-47
1.53504e-22
2.44987e-24
1.14548e-21
4.62799e-23
2.32331e-17
1.70973e-18
1.51296e-16
1.13701e-17
1.67238e-13
1.26626e-14
3.29901e-12
1.34713e-13
4.44948e-11
1.77703e-12
8.74891e-11
-2.88717e-14
3.98446e-10
-9.20141e-12
5.7121e-10
-2.07785e-11
1.0406e-09
-4.51106e-11
3.20385e-09
-1.25763e-10
1.53063e-08
-3.56697e-10
7.53729e-08
-6.64458e-10
1.29842e-07
-1.06072e-09
1.33994e-07
-2.55003e-09
1.36217e-07
-4.28165e-09
1.38507e-07
-4.52138e-09
1.40221e-07
-4.18815e-09
1.41649e-07
-3.64154e-09
1.42827e-07
-3.07623e-09
1.43796e-07
-2.56959e-09
1.44594e-07
-2.14017e-09
1.45258e-07
-1.7832e-09
1.45815e-07
-1.48876e-09
1.46298e-07
-1.24746e-09
1.46706e-07
-1.04973e-09
1.47049e-07
-8.87213e-10
1.47341e-07
-7.52931e-10
1.47591e-07
-6.41095e-10
1.47807e-07
-5.47364e-10
1.47994e-07
-4.68615e-10
1.48157e-07
-4.02604e-10
1.48298e-07
-3.47144e-10
1.48419e-07
-3.00364e-10
1.48525e-07
-2.60384e-10
1.48616e-07
-2.25825e-10
1.48697e-07
-1.95883e-10
1.48767e-07
-1.70032e-10
1.48829e-07
-1.47815e-10
1.48882e-07
-1.28828e-10
1.48929e-07
-1.12586e-10
1.48969e-07
-9.85333e-11
1.49005e-07
-8.62911e-11
1.49037e-07
-7.55758e-11
1.49065e-07
-6.62565e-11
1.4909e-07
-5.81311e-11
1.49112e-07
-5.10482e-11
1.49132e-07
-4.48379e-11
1.49149e-07
-3.93404e-11
1.49163e-07
-3.43811e-11
1.49175e-07
-2.99404e-11
1.49186e-07
-2.60377e-11
1.49195e-07
-2.27245e-11
1.49204e-07
-2.0048e-11
1.49213e-07
-1.77884e-11
1.49221e-07
-1.59956e-11
1.49228e-07
-1.43333e-11
1.49234e-07
-1.29327e-11
1.4924e-07
-1.15142e-11
1.49243e-07
-1.00143e-11
1.49246e-07
-8.82659e-12
1.49248e-07
-7.67482e-12
1.4925e-07
-6.67262e-12
1.49251e-07
-5.80113e-12
1.49253e-07
-5.10218e-12
1.49254e-07
-4.61254e-12
1.49256e-07
-4.136e-12
1.49257e-07
-3.64382e-12
1.49258e-07
-3.20748e-12
1.4926e-07
-2.83321e-12
1.4926e-07
-2.51266e-12
1.49261e-07
-2.24441e-12
1.49261e-07
-1.96879e-12
1.49261e-07
-1.77258e-12
1.49261e-07
-1.56017e-12
1.49255e-07
-1.37653e-12
1.49255e-07
-1.183e-12
1.49256e-07
-9.38775e-13
1.49257e-07
-6.29536e-13
1.49257e-07
-3.93294e-13
1.49262e-07
-3.44791e-13
1.49266e-07
-3.7175e-13
1.49265e-07
-4.34239e-13
1.49264e-07
-4.86724e-13
1.49264e-07
-4.87423e-13
1.49264e-07
-4.71799e-13
1.49264e-07
-3.69748e-13
1.49264e-07
-3.09906e-13
1.49262e-07
-3.24051e-13
1.4926e-07
-2.63246e-13
1.4926e-07
-2.35876e-13
1.4926e-07
-1.43063e-13
1.4926e-07
-1.57936e-13
1.4926e-07
-2.16446e-13
1.4926e-07
-2.52468e-13
1.49259e-07
-1.95624e-13
1.49262e-07
-1.14725e-13
1.49265e-07
-1.00991e-13
1.49265e-07
-1.246e-13
1.49266e-07
-1.70801e-13
1.49266e-07
-1.82101e-13
1.49267e-07
-1.74588e-13
1.49267e-07
-1.07419e-13
1.49266e-07
7.00074e-14
1.49266e-07
3.69118e-14
1.49264e-07
-5.21716e-14
1.4926e-07
-8.62377e-14
1.4926e-07
-9.37335e-14
1.4926e-07
8.54414e-14
1.4926e-07
1.42272e-13
1.49261e-07
8.81055e-14
1.49261e-07
1.86979e-13
1.49265e-07
2.31179e-13
1.49267e-07
2.24322e-13
1.49267e-07
1.84739e-13
1.49267e-07
1.38112e-13
1.49267e-07
1.04946e-13
1.49264e-07
1.35466e-13
1.49263e-07
2.51673e-13
1.49266e-07
1.14054e-13
1.49266e-07
8.5895e-14
1.49266e-07
1.85893e-13
1.49266e-07
9.21343e-14
1.49267e-07
5.24895e-14
1.49267e-07
-4.88511e-14
1.49267e-07
-1.38971e-13
1.49267e-07
-1.51722e-13
1.49267e-07
-1.55653e-13
1.49267e-07
-1.1947e-13
1.49267e-07
-8.47375e-14
1.49265e-07
-4.38432e-14
1.49265e-07
5.83197e-14
1.49265e-07
1.28133e-13
1.49267e-07
1.63368e-13
1.49267e-07
1.6515e-13
1.49267e-07
1.44307e-13
1.49267e-07
1.26735e-13
1.49268e-07
1.06231e-13
1.49268e-07
7.56915e-14
1.49268e-07
3.63223e-14
1.49268e-07
-2.77922e-15
1.49267e-07
-3.53223e-14
1.49267e-07
-5.46809e-14
1.49267e-07
-6.00153e-14
1.49266e-07
-5.61424e-14
1.49266e-07
-4.24935e-14
1.49265e-07
-1.94658e-14
1.49265e-07
1.13839e-14
1.49265e-07
3.60361e-14
1.49266e-07
4.45867e-14
1.49266e-07
7.78525e-14
1.49266e-07
1.2354e-13
1.49267e-07
1.45845e-13
1.49267e-07
1.49741e-13
1.49267e-07
1.40865e-13
1.49267e-07
1.26281e-13
1.49267e-07
1.01345e-13
1.49267e-07
7.31292e-14
1.49267e-07
7.02104e-14
1.49267e-07
6.51302e-14
1.49267e-07
5.57845e-14
1.49266e-07
4.66467e-14
1.49266e-07
4.98357e-14
1.49266e-07
2.39264e-14
1.49265e-07
8.57901e-15
1.49265e-07
-1.40128e-16
1.49265e-07
2.21146e-14
1.49265e-07
3.40672e-14
1.49265e-07
5.05575e-14
1.49265e-07
1.00326e-13
1.49266e-07
1.37894e-13
1.49266e-07
1.58189e-13
1.49266e-07
1.60214e-13
1.49266e-07
1.69427e-13
1.49266e-07
1.8982e-13
1.49266e-07
2.19546e-13
1.49265e-07
2.67537e-13
1.49265e-07
3.22108e-13
1.49265e-07
3.83079e-13
1.49264e-07
4.48923e-13
1.49264e-07
5.22387e-13
1.49264e-07
6.00838e-13
1.49263e-07
6.66178e-13
1.49262e-07
7.39572e-13
1.49262e-07
8.46706e-13
1.49262e-07
9.54321e-13
1.49261e-07
1.13037e-12
1.49261e-07
1.27767e-12
1.49261e-07
1.44634e-12
1.4926e-07
1.69772e-12
1.4926e-07
1.97341e-12
1.4926e-07
2.28593e-12
1.49259e-07
2.63003e-12
1.49258e-07
3.02564e-12
1.49257e-07
3.49306e-12
1.49255e-07
4.04185e-12
1.49253e-07
4.67822e-12
1.49251e-07
5.41734e-12
1.49248e-07
6.28139e-12
1.49245e-07
7.30116e-12
1.49241e-07
8.50117e-12
1.49236e-07
9.9032e-12
1.4923e-07
1.15608e-11
1.49224e-07
1.35267e-11
1.49217e-07
1.58583e-11
1.49208e-07
1.8639e-11
1.49198e-07
2.19751e-11
1.49185e-07
2.60086e-11
1.49172e-07
3.08615e-11
1.49156e-07
3.68477e-11
1.49137e-07
4.4117e-11
1.49114e-07
5.29963e-11
1.49086e-07
6.39397e-11
1.49055e-07
7.74368e-11
1.49018e-07
9.41331e-11
1.48974e-07
1.14815e-10
1.48923e-07
1.40113e-10
1.48863e-07
1.70758e-10
1.48794e-07
2.07548e-10
1.48716e-07
2.50955e-10
1.4863e-07
3.00942e-10
1.48535e-07
3.56459e-10
1.48437e-07
4.14954e-10
1.4834e-07
4.70017e-10
1.48246e-07
5.08288e-10
5.1052e-10
3.95745e-67
2.59555e-70
5.79616e-65
2.5701e-67
8.25269e-64
6.17201e-66
5.619e-63
5.41759e-65
2.72671e-62
3.16792e-64
1.10627e-61
1.50411e-63
3.82396e-61
5.66687e-63
1.14663e-60
1.53032e-62
2.69156e-60
2.69976e-62
4.79294e-60
3.01374e-62
7.38914e-60
3.10458e-62
1.06273e-59
1.52798e-61
-1.70917e-59
-3.8653e-61
-3.99065e-58
-6.8878e-60
9.01251e-57
1.55704e-58
5.23776e-55
8.17248e-57
3.51562e-53
3.4141e-55
3.28541e-51
1.3439e-53
1.37699e-49
5.01394e-52
2.67995e-48
1.13682e-50
1.28442e-46
4.64417e-49
2.14433e-45
4.51001e-47
3.14446e-45
9.29774e-47
9.5441e-24
2.05932e-25
1.67587e-22
6.41902e-24
1.04076e-16
4.79504e-18
4.64118e-15
2.41314e-16
9.91265e-14
5.23348e-15
7.17573e-13
3.37021e-14
5.47547e-12
1.61578e-13
1.85054e-11
1.81438e-13
5.30703e-11
-3.07291e-13
1.52248e-10
-3.16855e-12
4.51377e-10
-1.05948e-11
1.45748e-09
-3.14263e-11
4.22113e-09
-7.26262e-11
8.99481e-09
-1.36126e-10
3.19107e-08
-2.23321e-10
1.09549e-07
-7.82596e-10
1.63954e-07
-3.10041e-09
1.65472e-07
-4.44709e-09
1.66339e-07
-4.5899e-09
1.67235e-07
-4.18801e-09
1.67941e-07
-3.63108e-09
1.68515e-07
-3.0849e-09
1.69001e-07
-2.60432e-09
1.69422e-07
-2.19583e-09
1.69791e-07
-1.85404e-09
1.70118e-07
-1.56976e-09
1.70406e-07
-1.33329e-09
1.70658e-07
-1.13648e-09
1.70878e-07
-9.72097e-10
1.7107e-07
-8.33945e-10
1.71238e-07
-7.17127e-10
1.71387e-07
-6.18131e-10
1.71518e-07
-5.34011e-10
1.71633e-07
-4.62441e-10
1.71737e-07
-4.014e-10
1.71827e-07
-3.49119e-10
1.71906e-07
-3.04045e-10
1.71976e-07
-2.65251e-10
1.72037e-07
-2.31543e-10
1.7209e-07
-2.0253e-10
1.72138e-07
-1.77089e-10
1.72179e-07
-1.54849e-10
1.72216e-07
-1.35439e-10
1.72247e-07
-1.18573e-10
1.72276e-07
-1.03993e-10
1.72301e-07
-9.12976e-11
1.72324e-07
-8.03335e-11
1.72344e-07
-7.07832e-11
1.72363e-07
-6.23811e-11
1.72379e-07
-5.49481e-11
1.72393e-07
-4.83544e-11
1.72404e-07
-4.24829e-11
1.72414e-07
-3.73397e-11
1.72423e-07
-3.28108e-11
1.7243e-07
-2.8862e-11
1.72437e-07
-2.54529e-11
1.72443e-07
-2.23572e-11
1.72448e-07
-1.97487e-11
1.72453e-07
-1.73115e-11
1.72457e-07
-1.5343e-11
1.72459e-07
-1.35588e-11
1.72462e-07
-1.19096e-11
1.72465e-07
-1.0513e-11
1.72467e-07
-9.22568e-12
1.72469e-07
-8.05591e-12
1.72472e-07
-7.11286e-12
1.72475e-07
-6.30056e-12
1.72476e-07
-5.57274e-12
1.72478e-07
-4.90968e-12
1.7248e-07
-4.33567e-12
1.72482e-07
-3.84862e-12
1.72484e-07
-3.45047e-12
1.72485e-07
-3.16399e-12
1.72486e-07
-2.89192e-12
1.72487e-07
-2.54958e-12
1.72487e-07
-2.2581e-12
1.72487e-07
-1.94805e-12
1.72487e-07
-1.61678e-12
1.72487e-07
-1.43008e-12
1.72488e-07
-1.09898e-12
1.72489e-07
-9.03909e-13
1.72489e-07
-8.09296e-13
1.7249e-07
-8.15982e-13
1.7249e-07
-8.25152e-13
1.7249e-07
-8.58385e-13
1.72491e-07
-8.56804e-13
1.72491e-07
-8.07379e-13
1.72491e-07
-7.19844e-13
1.72491e-07
-6.36697e-13
1.72491e-07
-5.77285e-13
1.72491e-07
-5.2505e-13
1.72491e-07
-4.73766e-13
1.7249e-07
-4.20502e-13
1.7249e-07
-4.0446e-13
1.72489e-07
-4.00322e-13
1.72489e-07
-3.0231e-13
1.72488e-07
-3.1691e-13
1.72489e-07
-2.92812e-13
1.7249e-07
-2.83581e-13
1.72491e-07
-2.74071e-13
1.72492e-07
-2.55393e-13
1.72493e-07
-2.5381e-13
1.72495e-07
-2.27588e-13
1.72495e-07
-1.97978e-13
1.72496e-07
-1.97211e-13
1.72496e-07
-8.18578e-14
1.72495e-07
-7.74968e-14
1.72494e-07
-9.24266e-14
1.72494e-07
-5.73798e-14
1.72493e-07
2.02511e-14
1.72492e-07
7.7085e-14
1.72491e-07
1.05829e-13
1.72491e-07
1.28237e-13
1.72491e-07
1.51205e-13
1.7249e-07
1.41858e-13
1.7249e-07
9.84052e-14
1.7249e-07
4.47719e-14
1.72487e-07
7.55527e-15
1.72485e-07
1.49606e-14
1.72484e-07
3.3523e-14
1.72484e-07
2.23164e-14
1.72484e-07
-6.84098e-15
1.72484e-07
-3.47959e-14
1.72484e-07
-3.5285e-14
1.72489e-07
-9.16738e-14
1.7249e-07
-1.54069e-13
1.7249e-07
-2.00882e-13
1.7249e-07
-2.18803e-13
1.7249e-07
-2.2101e-13
1.7249e-07
-1.97148e-13
1.72489e-07
-1.75146e-13
1.72488e-07
-1.31749e-13
1.72488e-07
-6.95761e-14
1.72488e-07
-3.41487e-15
1.72488e-07
4.68878e-14
1.7249e-07
6.23225e-14
1.7249e-07
5.12088e-14
1.7249e-07
3.69995e-14
1.72491e-07
1.68142e-14
1.72491e-07
-1.11368e-14
1.72491e-07
-4.48555e-14
1.72491e-07
-8.10027e-14
1.72491e-07
-1.21776e-13
1.72491e-07
-1.19702e-13
1.72491e-07
-1.18934e-13
1.7249e-07
-1.1089e-13
1.7249e-07
-9.45292e-14
1.7249e-07
-7.02977e-14
1.7249e-07
-4.13369e-14
1.7249e-07
-9.10924e-15
1.7249e-07
3.65766e-14
1.7249e-07
4.82337e-14
1.72491e-07
7.35037e-14
1.72491e-07
8.83236e-14
1.72491e-07
8.8145e-14
1.72492e-07
7.62775e-14
1.72492e-07
5.46131e-14
1.72492e-07
2.26753e-14
1.72492e-07
-2.05541e-14
1.72492e-07
-3.08464e-14
1.72492e-07
-3.69094e-14
1.72492e-07
-4.40225e-14
1.72492e-07
-5.02971e-14
1.72491e-07
-5.38398e-14
1.72491e-07
-5.72081e-14
1.72491e-07
-5.96875e-14
1.72491e-07
-4.36876e-14
1.7249e-07
-1.53529e-14
1.7249e-07
1.38426e-14
1.7249e-07
3.57669e-14
1.7249e-07
6.08692e-14
1.72491e-07
9.8381e-14
1.72491e-07
1.25281e-13
1.72491e-07
1.48431e-13
1.72491e-07
1.7178e-13
1.72491e-07
2.00553e-13
1.7249e-07
2.39393e-13
1.7249e-07
3.0094e-13
1.7249e-07
3.7967e-13
1.72489e-07
4.6588e-13
1.72489e-07
5.59621e-13
1.72489e-07
6.61746e-13
1.72488e-07
7.70514e-13
1.72488e-07
8.85312e-13
1.72487e-07
1.01665e-12
1.72487e-07
1.1715e-12
1.72486e-07
1.35418e-12
1.72486e-07
1.56047e-12
1.72485e-07
1.79656e-12
1.72484e-07
2.10895e-12
1.72485e-07
2.44326e-12
1.72485e-07
2.82647e-12
1.72484e-07
3.26873e-12
1.72483e-07
3.77135e-12
1.72482e-07
4.35257e-12
1.72481e-07
5.0293e-12
1.72479e-07
5.81506e-12
1.72477e-07
6.72583e-12
1.72475e-07
7.78327e-12
1.72472e-07
9.01665e-12
1.72469e-07
1.04602e-11
1.72466e-07
1.21447e-11
1.72461e-07
1.41294e-11
1.72456e-07
1.6462e-11
1.7245e-07
1.91938e-11
1.72443e-07
2.24134e-11
1.72436e-07
2.6224e-11
1.72427e-07
3.07513e-11
1.72416e-07
3.61451e-11
1.72404e-07
4.25868e-11
1.72391e-07
5.03028e-11
1.72375e-07
5.95767e-11
1.72358e-07
7.07097e-11
1.72337e-07
8.41858e-11
1.72312e-07
1.00376e-10
1.72288e-07
1.19898e-10
1.7226e-07
1.43299e-10
1.72229e-07
1.71156e-10
1.72196e-07
2.03963e-10
1.7216e-07
2.4213e-10
1.72125e-07
2.85556e-10
1.72092e-07
3.33715e-10
1.72064e-07
3.85033e-10
1.72042e-07
4.36765e-10
1.72029e-07
4.83257e-10
1.72024e-07
5.14291e-10
5.16607e-10
1.33598e-69
8.7911e-73
2.58992e-67
1.06116e-69
6.48887e-66
4.55461e-68
6.15641e-65
5.85344e-67
3.85634e-64
4.52099e-66
1.93124e-63
2.67672e-65
7.98378e-63
1.2315e-64
2.4451e-62
3.88453e-64
5.31225e-62
7.32034e-64
8.88631e-62
8.41632e-64
1.30167e-61
8.16142e-64
6.9303e-60
1.67724e-61
-1.38142e-57
-3.15475e-59
-2.35089e-56
-4.18045e-58
-1.04673e-55
-1.56063e-57
-2.47719e-55
-3.57519e-57
9.24095e-56
1.28144e-57
2.00221e-53
1.53809e-55
2.54593e-51
1.53367e-53
8.17724e-50
6.75002e-52
5.8307e-48
7.2015e-50
2.17149e-46
3.23593e-48
4.25418e-46
1.00078e-47
3.82244e-25
9.7034e-27
1.03128e-23
3.43962e-25
8.54789e-17
3.19209e-18
3.00568e-15
1.13464e-16
4.55308e-14
1.69304e-15
3.66666e-13
1.21787e-14
2.03705e-12
4.77038e-14
7.92053e-12
8.18908e-14
2.78448e-11
-3.83852e-14
9.28979e-11
-8.99618e-13
2.77032e-10
-3.37476e-12
8.78609e-10
-1.05322e-11
2.41983e-09
-2.48024e-11
6.33874e-09
-5.81589e-11
1.49775e-08
-1.12407e-10
5.68365e-08
-3.55858e-10
1.52072e-07
-1.5715e-09
1.7958e-07
-3.58462e-09
1.81296e-07
-3.96309e-09
1.82533e-07
-3.81561e-09
1.83067e-07
-3.45805e-09
1.83339e-07
-3.04125e-09
1.83516e-07
-2.63973e-09
1.83662e-07
-2.27764e-09
1.838e-07
-1.96165e-09
1.83933e-07
-1.68952e-09
1.84063e-07
-1.45641e-09
1.84187e-07
-1.25702e-09
1.84305e-07
-1.08657e-09
1.84413e-07
-9.40896e-10
1.84511e-07
-8.16287e-10
1.84602e-07
-7.09475e-10
1.84684e-07
-6.17578e-10
1.8476e-07
-5.38101e-10
1.84826e-07
-4.69267e-10
1.84887e-07
-4.09609e-10
1.84941e-07
-3.57952e-10
1.8499e-07
-3.13333e-10
1.85034e-07
-2.74864e-10
1.85073e-07
-2.41117e-10
1.8511e-07
-2.11733e-10
1.85143e-07
-1.85971e-10
1.85171e-07
-1.63305e-10
1.85196e-07
-1.43337e-10
1.85218e-07
-1.25806e-10
1.85238e-07
-1.10379e-10
1.85255e-07
-9.68916e-11
1.85271e-07
-8.50752e-11
1.85285e-07
-7.47477e-11
1.85297e-07
-6.57859e-11
1.85307e-07
-5.79865e-11
1.85316e-07
-5.11723e-11
1.85324e-07
-4.51915e-11
1.85332e-07
-3.99075e-11
1.8534e-07
-3.52073e-11
1.85346e-07
-3.10065e-11
1.85353e-07
-2.73018e-11
1.85358e-07
-2.40707e-11
1.85362e-07
-2.13502e-11
1.85366e-07
-1.87897e-11
1.85369e-07
-1.66537e-11
1.85371e-07
-1.46943e-11
1.85372e-07
-1.29151e-11
1.85373e-07
-1.13068e-11
1.85374e-07
-9.87259e-12
1.85375e-07
-8.61565e-12
1.85376e-07
-7.5615e-12
1.85377e-07
-6.68189e-12
1.85379e-07
-5.95491e-12
1.8538e-07
-5.34545e-12
1.85381e-07
-4.83009e-12
1.85382e-07
-4.37485e-12
1.85383e-07
-3.88142e-12
1.85384e-07
-3.51618e-12
1.85384e-07
-3.09932e-12
1.85384e-07
-2.6747e-12
1.85382e-07
-2.29759e-12
1.85382e-07
-1.99117e-12
1.85382e-07
-1.82993e-12
1.85383e-07
-1.51674e-12
1.85384e-07
-1.34381e-12
1.85386e-07
-1.24847e-12
1.85386e-07
-1.19155e-12
1.85387e-07
-1.14862e-12
1.85387e-07
-1.0836e-12
1.85387e-07
-9.92002e-13
1.85388e-07
-8.70072e-13
1.85388e-07
-7.53856e-13
1.85388e-07
-6.58778e-13
1.85388e-07
-5.78066e-13
1.85388e-07
-5.30216e-13
1.85387e-07
-5.03619e-13
1.85385e-07
-4.86673e-13
1.85384e-07
-5.35883e-13
1.85384e-07
-4.29985e-13
1.85384e-07
-3.94605e-13
1.85384e-07
-3.33513e-13
1.85385e-07
-3.17555e-13
1.85388e-07
-2.65064e-13
1.85388e-07
-2.41598e-13
1.85388e-07
-2.31105e-13
1.85389e-07
-2.14589e-13
1.8539e-07
-2.03271e-13
1.8539e-07
-1.75553e-13
1.8539e-07
-1.93703e-13
1.8539e-07
-1.88766e-13
1.85389e-07
-1.67197e-13
1.85389e-07
-1.34626e-13
1.85388e-07
-9.82421e-14
1.85388e-07
-4.17236e-14
1.85388e-07
1.80829e-14
1.85388e-07
6.34639e-14
1.85389e-07
9.69145e-14
1.85389e-07
1.12226e-13
1.85389e-07
1.08976e-13
1.85389e-07
9.08755e-14
1.8539e-07
6.41261e-14
1.8539e-07
3.77205e-14
1.85386e-07
2.19337e-14
1.85384e-07
2.15344e-14
1.85384e-07
1.57474e-14
1.85383e-07
1.45995e-14
1.85385e-07
-1.22331e-15
1.85389e-07
-2.92341e-14
1.85389e-07
-6.16793e-14
1.85389e-07
-1.00925e-13
1.85389e-07
-1.28448e-13
1.85389e-07
-1.41005e-13
1.85389e-07
-1.38846e-13
1.85389e-07
-1.29113e-13
1.85389e-07
-1.11427e-13
1.85388e-07
-7.68594e-14
1.85387e-07
-2.6878e-14
1.85387e-07
2.2141e-14
1.85388e-07
6.78319e-14
1.8539e-07
8.28721e-14
1.8539e-07
7.98187e-14
1.8539e-07
6.86733e-14
1.8539e-07
5.05848e-14
1.8539e-07
2.62537e-14
1.8539e-07
-3.11393e-15
1.8539e-07
-3.19973e-14
1.8539e-07
-5.18985e-14
1.8539e-07
-5.70086e-14
1.8539e-07
-5.05596e-14
1.85389e-07
-3.8012e-14
1.85389e-07
-1.9283e-14
1.85389e-07
5.84699e-15
1.85389e-07
3.48817e-14
1.85389e-07
6.20861e-14
1.85389e-07
7.23815e-14
1.85389e-07
1.19466e-13
1.85389e-07
1.38122e-13
1.8539e-07
1.43691e-13
1.8539e-07
1.37483e-13
1.8539e-07
1.20915e-13
1.8539e-07
9.73291e-14
1.8539e-07
7.34957e-14
1.8539e-07
5.68078e-14
1.8539e-07
2.60648e-14
1.8539e-07
4.8854e-15
1.8539e-07
-6.85572e-15
1.8539e-07
-1.19099e-14
1.85389e-07
-1.20915e-14
1.85389e-07
-7.24257e-15
1.85389e-07
2.39216e-15
1.85388e-07
1.17456e-14
1.85388e-07
2.63036e-14
1.85388e-07
4.79871e-14
1.85388e-07
7.86236e-14
1.85389e-07
1.13286e-13
1.85389e-07
1.42369e-13
1.85389e-07
1.73824e-13
1.85389e-07
2.0841e-13
1.85389e-07
2.48336e-13
1.85389e-07