/*--------------------------------*- C++ -*----------------------------------*\
| =========                 |                                                 |
| \\      /  F ield         | OpenFOAM: The Open Source CFD Toolbox           |
|  \\    /   O peration     | Version:  2406                                  |
|   \\  /    A nd           | Website:  www.openfoam.com                      |
|    \\/     M anipulation  |                                                 |
\*---------------------------------------------------------------------------*/
FoamFile
{
    version     2.0;
    format      ascii;
    arch        "LSB;label=32;scalar=64";
    class       volScalarField;
    location    "0.05";
    object      p;
}
// * * * * * * * * * * * * * * * * * * * * * * * * * * * * * * * * * * * * * //

dimensions      [1 -1 -2 0 0 0 0];

internalField   nonuniform List<scalar> 
6250
(
4999.94
4999.91
4999.93
4999.94
4999.93
4999.93
4999.93
4999.93
4999.93
4999.93
4999.93
4999.93
4999.93
4999.93
4999.94
4999.94
4999.94
4999.94
4999.94
4999.94
4999.95
4999.95
4999.95
4999.95
4999.96
4999.96
4999.96
4999.97
4999.97
5001.84
5037.12
5036.17
4995.94
4973
4962.96
4954.31
4945.26
4937.78
4931.32
4924.29
4915.89
4906.12
4895.16
4883.11
4870.13
4856.35
4841.9
4826.9
4811.46
4795.64
4779.49
4763.09
4746.48
4729.69
4712.75
4695.69
4678.51
4661.24
4643.9
4626.48
4609.01
4591.49
4573.93
4556.33
4538.69
4521.02
4503.33
4485.62
4467.91
4450.17
4432.42
4414.65
4396.87
4379.08
4361.29
4343.49
4325.7
4307.89
4290.07
4272.25
4254.41
4236.58
4218.76
4200.94
4183.11
4165.28
4147.44
4129.59
4111.74
4093.89
4076.04
4058.19
4040.34
4022.49
4004.64
3986.78
3968.92
3951.05
3933.18
3915.31
3897.45
3879.58
3861.72
3843.86
3825.99
3808.13
3790.26
3772.39
3754.52
3736.65
3718.79
3700.93
3683.07
3665.21
3647.36
3629.5
3611.65
3593.79
3575.94
3558.09
3540.23
3522.38
3504.53
3486.68
3468.84
3450.99
3433.14
3415.3
3397.46
3379.61
3361.77
3343.92
3326.08
3308.23
3290.39
3272.55
3254.71
3236.88
3219.05
3201.23
3183.41
3165.59
3147.77
3129.96
3112.14
3094.33
3076.51
3058.7
3040.88
3023.07
3005.26
2987.46
2969.65
2951.85
2934.05
2916.25
2898.45
2880.65
2862.85
2845.05
2827.25
2809.45
2791.65
2773.85
2756.04
2738.23
2720.42
2702.6
2684.78
2666.96
2649.13
2631.3
2613.47
2595.64
2577.81
2559.98
2542.16
2524.33
2506.5
2488.67
2470.85
2453.02
2435.2
2417.37
2399.54
2381.71
2363.87
2346.04
2328.2
2310.36
2292.51
2274.66
2256.82
2238.97
2221.11
2203.26
2185.41
2167.55
2149.7
2131.84
2113.98
2096.12
2078.26
2060.39
2042.52
2024.66
2006.79
1988.91
1971.04
1953.17
1935.29
1917.42
1899.55
1881.68
1863.81
1845.94
1828.07
1810.21
1792.34
1774.48
1756.63
1738.77
1720.91
1703.06
1685.21
1667.36
1649.51
1631.66
1613.82
1595.97
1578.13
1560.29
1542.45
1524.62
1506.78
1488.95
1471.13
1453.3
1435.49
1417.68
1399.89
1382.11
1364.36
1346.64
1328.96
1311.36
1293.83
1276.36
1259.13
1243.27
4999.93
4999.9
4999.92
4999.94
4999.93
4999.93
4999.93
4999.93
4999.93
4999.93
4999.93
4999.93
4999.93
4999.93
4999.94
4999.94
4999.94
4999.94
4999.94
4999.94
4999.94
4999.95
4999.95
4999.95
4999.95
4999.96
4999.96
4999.97
4999.97
5000.69
5000.5
4998.84
4995.16
4984.51
4989.27
4965.6
4939.55
4929.58
4925.64
4920.94
4913.83
4904.89
4894.37
4882.55
4869.7
4856.01
4841.62
4826.66
4811.25
4795.47
4779.36
4762.98
4746.38
4729.6
4712.67
4695.62
4678.46
4661.2
4643.86
4626.44
4608.97
4591.45
4573.88
4556.28
4538.65
4520.99
4503.31
4485.61
4467.9
4450.16
4432.39
4414.61
4396.83
4379.04
4361.25
4343.46
4325.67
4307.87
4290.06
4272.24
4254.41
4236.59
4218.77
4200.95
4183.13
4165.3
4147.46
4129.61
4111.75
4093.9
4076.05
4058.21
4040.36
4022.5
4004.64
3986.78
3968.91
3951.04
3933.17
3915.3
3897.44
3879.58
3861.72
3843.85
3825.99
3808.12
3790.25
3772.38
3754.51
3736.65
3718.78
3700.92
3683.07
3665.21
3647.35
3629.5
3611.64
3593.79
3575.93
3558.08
3540.23
3522.38
3504.53
3486.68
3468.83
3450.99
3433.14
3415.29
3397.44
3379.6
3361.75
3343.9
3326.06
3308.21
3290.37
3272.53
3254.7
3236.87
3219.04
3201.22
3183.4
3165.59
3147.77
3129.96
3112.14
3094.33
3076.51
3058.7
3040.88
3023.07
3005.26
2987.45
2969.65
2951.85
2934.05
2916.25
2898.45
2880.65
2862.85
2845.06
2827.26
2809.46
2791.66
2773.85
2756.04
2738.23
2720.42
2702.6
2684.78
2666.96
2649.13
2631.3
2613.47
2595.64
2577.81
2559.98
2542.16
2524.33
2506.5
2488.68
2470.85
2453.03
2435.2
2417.38
2399.55
2381.71
2363.88
2346.04
2328.2
2310.36
2292.51
2274.67
2256.82
2238.97
2221.12
2203.27
2185.41
2167.56
2149.7
2131.85
2113.99
2096.12
2078.26
2060.4
2042.53
2024.66
2006.79
1988.92
1971.04
1953.17
1935.29
1917.42
1899.55
1881.68
1863.81
1845.94
1828.07
1810.21
1792.35
1774.49
1756.63
1738.77
1720.92
1703.07
1685.22
1667.37
1649.52
1631.67
1613.83
1595.99
1578.15
1560.31
1542.47
1524.64
1506.81
1488.99
1471.17
1453.35
1435.55
1417.75
1399.97
1382.2
1364.45
1346.73
1329.05
1311.41
1293.78
1276.09
1258.58
1243.02
4999.93
4999.9
4999.92
4999.94
4999.93
4999.93
4999.93
4999.93
4999.93
4999.93
4999.93
4999.93
4999.93
4999.93
4999.93
4999.94
4999.94
4999.94
4999.94
4999.94
4999.94
4999.94
4999.94
4999.95
4999.95
4999.95
4999.95
4999.96
4999.96
4999.97
4999.93
4999.79
4999.65
4998.88
4996.44
4991.76
4978.63
4959.88
4946.88
4931.05
4920.14
4910.23
4898.93
4886.25
4872.67
4858.41
4843.58
4828.25
4812.55
4796.5
4780.2
4763.67
4746.97
4730.1
4713.09
4695.96
4678.73
4661.42
4644.04
4626.61
4609.12
4591.58
4574
4556.38
4538.73
4521.06
4503.37
4485.66
4467.94
4450.2
4432.44
4414.67
4396.88
4379.09
4361.29
4343.49
4325.69
4307.87
4290.05
4272.23
4254.41
4236.59
4218.77
4200.94
4183.11
4165.28
4147.44
4129.59
4111.75
4093.91
4076.06
4058.21
4040.36
4022.51
4004.64
3986.78
3968.91
3951.04
3933.18
3915.31
3897.45
3879.59
3861.73
3843.86
3825.99
3808.12
3790.25
3772.38
3754.51
3736.64
3718.78
3700.92
3683.07
3665.21
3647.36
3629.5
3611.64
3593.79
3575.93
3558.08
3540.23
3522.38
3504.53
3486.68
3468.84
3450.99
3433.14
3415.29
3397.45
3379.6
3361.75
3343.91
3326.06
3308.22
3290.38
3272.54
3254.71
3236.87
3219.05
3201.22
3183.4
3165.59
3147.78
3129.96
3112.14
3094.33
3076.51
3058.7
3040.88
3023.07
3005.26
2987.45
2969.65
2951.84
2934.04
2916.24
2898.45
2880.65
2862.85
2845.06
2827.26
2809.46
2791.66
2773.85
2756.05
2738.24
2720.42
2702.6
2684.78
2666.96
2649.13
2631.3
2613.47
2595.64
2577.81
2559.98
2542.16
2524.33
2506.5
2488.68
2470.85
2453.03
2435.2
2417.38
2399.55
2381.71
2363.88
2346.04
2328.2
2310.36
2292.51
2274.67
2256.82
2238.97
2221.12
2203.26
2185.41
2167.56
2149.7
2131.84
2113.98
2096.12
2078.26
2060.4
2042.53
2024.66
2006.79
1988.91
1971.04
1953.17
1935.29
1917.42
1899.55
1881.68
1863.81
1845.94
1828.07
1810.21
1792.35
1774.49
1756.63
1738.77
1720.92
1703.07
1685.22
1667.37
1649.52
1631.68
1613.83
1595.99
1578.15
1560.31
1542.48
1524.65
1506.82
1489
1471.18
1453.37
1435.56
1417.76
1399.98
1382.21
1364.45
1346.7
1328.99
1311.3
1293.58
1275.7
1257.97
1242.76
4999.93
4999.89
4999.92
4999.93
4999.93
4999.93
4999.93
4999.93
4999.93
4999.93
4999.93
4999.93
4999.93
4999.93
4999.93
4999.93
4999.94
4999.94
4999.94
4999.94
4999.94
4999.94
4999.94
4999.94
4999.94
4999.94
4999.94
4999.94
4999.93
4999.92
4999.91
4999.9
4999.86
4999.71
4999.34
4998.67
4997.35
4993.27
4979.59
4953.19
4935.47
4921.84
4908
4893.56
4878.61
4863.23
4847.5
4831.47
4815.19
4798.68
4782
4765.16
4748.21
4731.14
4713.96
4696.69
4679.35
4661.95
4644.49
4626.99
4609.44
4591.85
4574.24
4556.59
4538.92
4521.23
4503.51
4485.78
4468.03
4450.27
4432.5
4414.71
4396.92
4379.13
4361.33
4343.52
4325.71
4307.9
4290.08
4272.26
4254.44
4236.61
4218.78
4200.95
4183.12
4165.28
4147.44
4129.6
4111.76
4093.91
4076.06
4058.21
4040.36
4022.49
4004.63
3986.77
3968.9
3951.04
3933.17
3915.31
3897.45
3879.59
3861.72
3843.85
3825.98
3808.11
3790.24
3772.37
3754.51
3736.64
3718.78
3700.92
3683.06
3665.2
3647.35
3629.49
3611.63
3593.78
3575.92
3558.07
3540.22
3522.38
3504.53
3486.68
3468.83
3450.99
3433.14
3415.29
3397.44
3379.59
3361.75
3343.9
3326.05
3308.21
3290.37
3272.54
3254.7
3236.88
3219.05
3201.23
3183.41
3165.59
3147.78
3129.96
3112.14
3094.33
3076.51
3058.7
3040.88
3023.07
3005.26
2987.45
2969.65
2951.84
2934.04
2916.24
2898.45
2880.65
2862.85
2845.06
2827.26
2809.46
2791.66
2773.85
2756.05
2738.24
2720.42
2702.61
2684.78
2666.96
2649.13
2631.3
2613.47
2595.64
2577.81
2559.98
2542.16
2524.33
2506.5
2488.68
2470.86
2453.03
2435.21
2417.38
2399.55
2381.72
2363.88
2346.04
2328.2
2310.36
2292.51
2274.67
2256.82
2238.97
2221.12
2203.26
2185.41
2167.56
2149.7
2131.84
2113.99
2096.12
2078.26
2060.4
2042.53
2024.66
2006.79
1988.91
1971.04
1953.17
1935.29
1917.42
1899.55
1881.68
1863.8
1845.94
1828.07
1810.21
1792.35
1774.49
1756.63
1738.77
1720.92
1703.07
1685.22
1667.37
1649.52
1631.68
1613.83
1595.99
1578.15
1560.31
1542.47
1524.64
1506.81
1488.98
1471.16
1453.34
1435.53
1417.72
1399.92
1382.13
1364.34
1346.57
1328.8
1311.06
1293.25
1275.22
1257.38
1242.52
4999.92
4999.89
4999.92
4999.93
4999.93
4999.93
4999.93
4999.93
4999.93
4999.93
4999.93
4999.93
4999.93
4999.93
4999.93
4999.93
4999.93
4999.93
4999.93
4999.93
4999.94
4999.94
4999.94
4999.94
4999.93
4999.93
4999.93
4999.93
4999.93
4999.92
4999.92
4999.91
4999.89
4999.84
4999.72
4999.48
4998.87
4997.31
4992.89
4981.16
4959.82
4939.31
4921.07
4903.72
4886.68
4869.68
4852.69
4835.69
4818.64
4801.55
4784.39
4767.17
4749.88
4732.54
4715.14
4697.7
4680.22
4662.7
4645.14
4627.54
4609.91
4592.25
4574.58
4556.89
4539.18
4521.46
4503.71
4485.96
4468.19
4450.41
4432.62
4414.82
4397.01
4379.2
4361.39
4343.58
4325.76
4307.94
4290.12
4272.29
4254.46
4236.62
4218.79
4200.96
4183.12
4165.29
4147.45
4129.61
4111.76
4093.92
4076.06
4058.21
4040.35
4022.49
4004.63
3986.76
3968.9
3951.04
3933.18
3915.32
3897.45
3879.59
3861.72
3843.85
3825.98
3808.11
3790.24
3772.37
3754.51
3736.65
3718.78
3700.92
3683.06
3665.2
3647.34
3629.48
3611.63
3593.77
3575.92
3558.07
3540.23
3522.38
3504.54
3486.69
3468.84
3450.99
3433.14
3415.3
3397.45
3379.6
3361.75
3343.9
3326.06
3308.21
3290.38
3272.54
3254.71
3236.88
3219.06
3201.24
3183.42
3165.6
3147.78
3129.96
3112.15
3094.33
3076.51
3058.7
3040.88
3023.07
3005.26
2987.45
2969.64
2951.84
2934.04
2916.24
2898.44
2880.65
2862.85
2845.05
2827.26
2809.46
2791.66
2773.85
2756.05
2738.24
2720.42
2702.61
2684.78
2666.96
2649.13
2631.3
2613.47
2595.64
2577.81
2559.99
2542.16
2524.33
2506.51
2488.68
2470.86
2453.03
2435.21
2417.38
2399.55
2381.72
2363.88
2346.04
2328.2
2310.36
2292.51
2274.67
2256.82
2238.97
2221.12
2203.26
2185.41
2167.56
2149.7
2131.84
2113.98
2096.12
2078.26
2060.39
2042.53
2024.66
2006.78
1988.91
1971.04
1953.16
1935.29
1917.42
1899.54
1881.67
1863.8
1845.93
1828.07
1810.2
1792.34
1774.48
1756.63
1738.77
1720.92
1703.07
1685.22
1667.37
1649.52
1631.67
1613.82
1595.98
1578.14
1560.3
1542.46
1524.62
1506.78
1488.95
1471.12
1453.29
1435.47
1417.65
1399.83
1382.01
1364.2
1346.39
1328.59
1310.79
1292.92
1274.79
1256.87
1242.32
4999.92
4999.89
4999.92
4999.93
4999.93
4999.93
4999.93
4999.93
4999.93
4999.93
4999.93
4999.93
4999.93
4999.93
4999.93
4999.93
4999.93
4999.93
4999.93
4999.93
4999.93
4999.93
4999.93
4999.93
4999.93
4999.93
4999.93
4999.93
4999.92
4999.92
4999.91
4999.91
4999.9
4999.88
4999.82
4999.68
4999.34
4998.64
4996.61
4989.99
4972.65
4951.49
4931.23
4912.2
4893.84
4875.73
4857.78
4839.96
4822.25
4804.6
4786.98
4769.37
4751.76
4734.13
4716.5
4698.87
4681.22
4663.56
4645.88
4628.18
4610.46
4592.73
4575
4557.25
4539.49
4521.73
4503.94
4486.15
4468.36
4450.56
4432.75
4414.94
4397.13
4379.3
4361.48
4343.65
4325.82
4307.99
4290.16
4272.32
4254.49
4236.65
4218.81
4200.98
4183.14
4165.3
4147.46
4129.62
4111.77
4093.92
4076.06
4058.2
4040.34
4022.48
4004.62
3986.76
3968.9
3951.04
3933.18
3915.32
3897.45
3879.59
3861.71
3843.84
3825.97
3808.11
3790.24
3772.37
3754.51
3736.65
3718.78
3700.92
3683.06
3665.19
3647.33
3629.47
3611.62
3593.77
3575.92
3558.07
3540.23
3522.38
3504.54
3486.69
3468.84
3450.99
3433.15
3415.3
3397.45
3379.6
3361.75
3343.9
3326.06
3308.22
3290.38
3272.54
3254.71
3236.89
3219.06
3201.24
3183.42
3165.6
3147.79
3129.97
3112.15
3094.33
3076.51
3058.7
3040.88
3023.07
3005.26
2987.45
2969.64
2951.84
2934.04
2916.24
2898.44
2880.65
2862.85
2845.05
2827.25
2809.46
2791.66
2773.85
2756.05
2738.24
2720.42
2702.6
2684.78
2666.96
2649.13
2631.3
2613.47
2595.64
2577.81
2559.99
2542.16
2524.33
2506.51
2488.69
2470.86
2453.04
2435.21
2417.38
2399.55
2381.72
2363.88
2346.04
2328.2
2310.36
2292.51
2274.66
2256.82
2238.97
2221.11
2203.26
2185.41
2167.56
2149.7
2131.84
2113.98
2096.12
2078.26
2060.39
2042.53
2024.65
2006.78
1988.91
1971.04
1953.16
1935.29
1917.41
1899.54
1881.67
1863.8
1845.93
1828.07
1810.2
1792.34
1774.48
1756.62
1738.77
1720.91
1703.06
1685.21
1667.36
1649.51
1631.66
1613.81
1595.97
1578.12
1560.28
1542.43
1524.59
1506.75
1488.91
1471.07
1453.23
1435.4
1417.56
1399.73
1381.89
1364.05
1346.22
1328.38
1310.55
1292.63
1274.44
1256.48
1242.16
4999.92
4999.89
4999.92
4999.93
4999.93
4999.93
4999.93
4999.93
4999.93
4999.93
4999.93
4999.93
4999.93
4999.93
4999.93
4999.93
4999.93
4999.93
4999.93
4999.93
4999.93
4999.93
4999.93
4999.93
4999.93
4999.93
4999.92
4999.92
4999.92
4999.92
4999.91
4999.91
4999.9
4999.89
4999.86
4999.77
4999.55
4999.04
4997.61
4992.9
4979.12
4958.93
4938.25
4918.51
4899.46
4880.7
4862.15
4843.78
4825.57
4807.47
4789.46
4771.52
4753.62
4735.75
4717.9
4700.08
4682.27
4664.46
4646.66
4628.86
4611.06
4593.25
4575.45
4557.65
4539.85
4522.03
4504.21
4486.39
4468.56
4450.73
4432.9
4415.07
4397.24
4379.41
4361.57
4343.73
4325.89
4308.05
4290.21
4272.37
4254.53
4236.69
4218.85
4201.01
4183.17
4165.32
4147.47
4129.62
4111.77
4093.92
4076.06
4058.21
4040.35
4022.49
4004.63
3986.77
3968.9
3951.04
3933.18
3915.31
3897.45
3879.58
3861.71
3843.84
3825.97
3808.11
3790.24
3772.37
3754.51
3736.64
3718.78
3700.91
3683.05
3665.19
3647.33
3629.47
3611.62
3593.77
3575.92
3558.08
3540.23
3522.39
3504.54
3486.7
3468.85
3451
3433.15
3415.3
3397.45
3379.6
3361.75
3343.91
3326.06
3308.22
3290.38
3272.55
3254.72
3236.89
3219.07
3201.25
3183.43
3165.61
3147.79
3129.97
3112.15
3094.33
3076.52
3058.7
3040.88
3023.07
3005.26
2987.45
2969.64
2951.84
2934.04
2916.24
2898.44
2880.64
2862.85
2845.05
2827.25
2809.45
2791.65
2773.85
2756.04
2738.24
2720.42
2702.6
2684.78
2666.96
2649.13
2631.3
2613.47
2595.64
2577.82
2559.99
2542.16
2524.34
2506.51
2488.69
2470.87
2453.04
2435.21
2417.39
2399.55
2381.72
2363.88
2346.04
2328.2
2310.36
2292.51
2274.66
2256.81
2238.96
2221.11
2203.26
2185.41
2167.55
2149.7
2131.84
2113.98
2096.12
2078.26
2060.39
2042.52
2024.65
2006.78
1988.91
1971.03
1953.16
1935.28
1917.41
1899.54
1881.67
1863.8
1845.93
1828.06
1810.2
1792.34
1774.48
1756.62
1738.77
1720.91
1703.06
1685.21
1667.35
1649.5
1631.65
1613.8
1595.95
1578.1
1560.25
1542.4
1524.56
1506.71
1488.86
1471.01
1453.17
1435.32
1417.47
1399.62
1381.77
1363.92
1346.06
1328.2
1310.35
1292.4
1274.17
1256.18
1242.03
4999.92
4999.89
4999.92
4999.93
4999.93
4999.93
4999.93
4999.93
4999.93
4999.93
4999.93
4999.93
4999.93
4999.93
4999.93
4999.93
4999.93
4999.93
4999.93
4999.93
4999.93
4999.93
4999.93
4999.93
4999.93
4999.92
4999.92
4999.92
4999.92
4999.92
4999.91
4999.91
4999.91
4999.9
4999.87
4999.8
4999.62
4999.16
4997.89
4993.69
4981.83
4962.99
4942.56
4922.75
4903.48
4884.43
4865.55
4846.86
4828.33
4809.94
4791.65
4773.44
4755.31
4737.23
4719.21
4701.23
4683.28
4665.36
4647.45
4629.55
4611.66
4593.77
4575.9
4558.04
4540.18
4522.33
4504.47
4486.62
4468.76
4450.91
4433.07
4415.22
4397.37
4379.52
4361.66
4343.81
4325.96
4308.1
4290.26
4272.41
4254.57
4236.72
4218.88
4201.03
4183.18
4165.33
4147.48
4129.63
4111.77
4093.92
4076.07
4058.21
4040.36
4022.49
4004.63
3986.77
3968.9
3951.04
3933.17
3915.31
3897.44
3879.58
3861.71
3843.84
3825.97
3808.1
3790.24
3772.37
3754.5
3736.63
3718.77
3700.9
3683.04
3665.18
3647.32
3629.47
3611.62
3593.77
3575.92
3558.08
3540.23
3522.39
3504.55
3486.7
3468.85
3451
3433.15
3415.3
3397.45
3379.61
3361.76
3343.91
3326.07
3308.23
3290.39
3272.56
3254.73
3236.9
3219.08
3201.25
3183.43
3165.61
3147.79
3129.97
3112.16
3094.34
3076.52
3058.7
3040.89
3023.07
3005.26
2987.45
2969.64
2951.84
2934.04
2916.24
2898.44
2880.64
2862.85
2845.05
2827.25
2809.45
2791.65
2773.85
2756.04
2738.23
2720.42
2702.6
2684.78
2666.96
2649.13
2631.3
2613.47
2595.65
2577.82
2559.99
2542.16
2524.34
2506.52
2488.69
2470.87
2453.04
2435.22
2417.39
2399.56
2381.72
2363.88
2346.04
2328.2
2310.36
2292.51
2274.66
2256.81
2238.96
2221.11
2203.26
2185.41
2167.55
2149.7
2131.84
2113.98
2096.12
2078.26
2060.39
2042.52
2024.65
2006.78
1988.9
1971.03
1953.16
1935.28
1917.41
1899.54
1881.66
1863.79
1845.93
1828.06
1810.2
1792.34
1774.48
1756.62
1738.76
1720.91
1703.05
1685.2
1667.35
1649.49
1631.64
1613.79
1595.93
1578.08
1560.23
1542.38
1524.52
1506.67
1488.82
1470.96
1453.11
1435.25
1417.39
1399.53
1381.67
1363.8
1345.93
1328.05
1310.19
1292.22
1273.96
1255.96
1241.93
4999.92
4999.89
4999.91
4999.93
4999.93
4999.92
4999.92
4999.93
4999.93
4999.93
4999.93
4999.93
4999.93
4999.93
4999.93
4999.93
4999.93
4999.93
4999.93
4999.93
4999.93
4999.93
4999.93
4999.92
4999.92
4999.92
4999.92
4999.92
4999.92
4999.92
4999.91
4999.91
4999.91
4999.9
4999.87
4999.81
4999.63
4999.19
4997.95
4993.91
4983.05
4965.11
4945.12
4925.47
4906.2
4887.07
4868.05
4849.2
4830.49
4811.91
4793.44
4775.06
4756.76
4738.53
4720.37
4702.25
4684.19
4666.15
4648.15
4630.17
4612.2
4594.26
4576.33
4558.42
4540.51
4522.62
4504.72
4486.84
4468.96
4451.08
4433.22
4415.35
4397.49
4379.62
4361.76
4343.89
4326.03
4308.17
4290.32
4272.47
4254.62
4236.77
4218.91
4201.06
4183.2
4165.35
4147.49
4129.64
4111.79
4093.93
4076.08
4058.22
4040.36
4022.5
4004.63
3986.77
3968.9
3951.03
3933.17
3915.31
3897.44
3879.58
3861.71
3843.84
3825.97
3808.1
3790.23
3772.36
3754.49
3736.63
3718.76
3700.9
3683.04
3665.18
3647.32
3629.47
3611.62
3593.77
3575.93
3558.08
3540.24
3522.4
3504.55
3486.7
3468.86
3451.01
3433.16
3415.31
3397.46
3379.61
3361.76
3343.91
3326.07
3308.23
3290.39
3272.56
3254.73
3236.9
3219.08
3201.26
3183.44
3165.62
3147.8
3129.98
3112.16
3094.34
3076.52
3058.7
3040.89
3023.07
3005.26
2987.45
2969.65
2951.84
2934.04
2916.24
2898.44
2880.64
2862.84
2845.05
2827.25
2809.45
2791.65
2773.85
2756.04
2738.23
2720.42
2702.6
2684.78
2666.96
2649.13
2631.3
2613.47
2595.65
2577.82
2559.99
2542.17
2524.34
2506.52
2488.69
2470.87
2453.04
2435.22
2417.39
2399.55
2381.72
2363.88
2346.04
2328.2
2310.36
2292.51
2274.66
2256.81
2238.96
2221.11
2203.26
2185.41
2167.55
2149.7
2131.84
2113.98
2096.12
2078.25
2060.39
2042.52
2024.65
2006.77
1988.9
1971.03
1953.15
1935.28
1917.4
1899.53
1881.66
1863.79
1845.92
1828.06
1810.2
1792.33
1774.47
1756.62
1738.76
1720.9
1703.05
1685.19
1667.34
1649.48
1631.63
1613.77
1595.92
1578.06
1560.21
1542.35
1524.49
1506.64
1488.78
1470.92
1453.05
1435.19
1417.32
1399.45
1381.58
1363.7
1345.82
1327.94
1310.06
1292.09
1273.82
1255.8
1241.85
4999.92
4999.88
4999.91
4999.93
4999.93
4999.92
4999.92
4999.92
4999.93
4999.93
4999.93
4999.93
4999.93
4999.93
4999.93
4999.93
4999.93
4999.93
4999.93
4999.93
4999.93
4999.92
4999.92
4999.92
4999.92
4999.92
4999.92
4999.92
4999.92
4999.92
4999.91
4999.91
4999.91
4999.9
4999.87
4999.81
4999.64
4999.19
4997.95
4993.97
4983.63
4966.25
4946.63
4927.17
4907.99
4888.87
4869.83
4850.9
4832.09
4813.4
4794.82
4776.33
4757.92
4739.59
4721.31
4703.09
4684.93
4666.81
4648.73
4630.69
4612.66
4594.67
4576.69
4558.73
4540.79
4522.86
4504.94
4487.03
4469.13
4451.24
4433.35
4415.47
4397.59
4379.71
4361.83
4343.96
4326.08
4308.22
4290.36
4272.5
4254.65
4236.79
4218.94
4201.08
4183.22
4165.36
4147.5
4129.65
4111.8
4093.95
4076.09
4058.23
4040.37
4022.5
4004.63
3986.76
3968.89
3951.03
3933.17
3915.3
3897.44
3879.58
3861.71
3843.84
3825.97
3808.09
3790.22
3772.35
3754.48
3736.62
3718.75
3700.89
3683.03
3665.18
3647.32
3629.47
3611.62
3593.77
3575.93
3558.08
3540.24
3522.4
3504.55
3486.71
3468.86
3451.01
3433.16
3415.31
3397.46
3379.61
3361.76
3343.92
3326.08
3308.23
3290.4
3272.56
3254.73
3236.91
3219.08
3201.26
3183.44
3165.62
3147.8
3129.98
3112.16
3094.34
3076.52
3058.71
3040.89
3023.08
3005.27
2987.46
2969.65
2951.84
2934.04
2916.24
2898.44
2880.64
2862.84
2845.05
2827.25
2809.45
2791.65
2773.85
2756.04
2738.23
2720.42
2702.6
2684.78
2666.96
2649.13
2631.3
2613.48
2595.65
2577.82
2559.99
2542.17
2524.34
2506.52
2488.7
2470.87
2453.04
2435.22
2417.39
2399.55
2381.72
2363.88
2346.04
2328.2
2310.35
2292.51
2274.66
2256.81
2238.96
2221.11
2203.26
2185.4
2167.55
2149.69
2131.84
2113.98
2096.11
2078.25
2060.38
2042.51
2024.64
2006.77
1988.9
1971.02
1953.15
1935.28
1917.4
1899.53
1881.66
1863.79
1845.92
1828.06
1810.19
1792.33
1774.47
1756.61
1738.76
1720.9
1703.04
1685.19
1667.33
1649.47
1631.62
1613.76
1595.91
1578.05
1560.19
1542.33
1524.47
1506.61
1488.74
1470.88
1453.01
1435.14
1417.27
1399.39
1381.51
1363.63
1345.74
1327.85
1309.97
1292
1273.72
1255.7
1241.8
4999.92
4999.88
4999.91
4999.93
4999.93
4999.92
4999.92
4999.92
4999.93
4999.93
4999.93
4999.93
4999.93
4999.93
4999.93
4999.93
4999.93
4999.93
4999.93
4999.92
4999.92
4999.92
4999.92
4999.92
4999.92
4999.92
4999.92
4999.92
4999.92
4999.92
4999.91
4999.91
4999.91
4999.9
4999.87
4999.81
4999.63
4999.19
4997.95
4994
4983.95
4966.91
4947.54
4928.24
4909.15
4890.08
4871.04
4852.09
4833.23
4814.47
4795.81
4777.24
4758.76
4740.35
4722.01
4703.72
4685.5
4667.32
4649.19
4631.1
4613.03
4594.99
4576.97
4558.98
4541.01
4523.05
4505.11
4487.19
4469.27
4451.36
4433.46
4415.56
4397.67
4379.78
4361.89
4344.01
4326.14
4308.27
4290.4
4272.54
4254.68
4236.82
4218.96
4201.1
4183.24
4165.38
4147.52
4129.67
4111.81
4093.96
4076.1
4058.24
4040.37
4022.5
4004.63
3986.76
3968.89
3951.03
3933.17
3915.31
3897.44
3879.58
3861.71
3843.83
3825.96
3808.09
3790.21
3772.34
3754.48
3736.61
3718.75
3700.89
3683.04
3665.18
3647.33
3629.47
3611.62
3593.78
3575.93
3558.09
3540.24
3522.4
3504.56
3486.71
3468.86
3451.01
3433.16
3415.31
3397.46
3379.61
3361.77
3343.92
3326.08
3308.24
3290.4
3272.57
3254.74
3236.91
3219.08
3201.26
3183.44
3165.62
3147.8
3129.98
3112.16
3094.35
3076.53
3058.71
3040.9
3023.08
3005.27
2987.46
2969.65
2951.84
2934.04
2916.24
2898.44
2880.64
2862.84
2845.04
2827.25
2809.45
2791.65
2773.84
2756.04
2738.23
2720.42
2702.6
2684.78
2666.96
2649.13
2631.3
2613.48
2595.65
2577.82
2560
2542.17
2524.35
2506.52
2488.7
2470.87
2453.04
2435.22
2417.39
2399.55
2381.72
2363.88
2346.04
2328.2
2310.35
2292.51
2274.66
2256.81
2238.96
2221.11
2203.26
2185.4
2167.55
2149.69
2131.83
2113.98
2096.11
2078.25
2060.38
2042.51
2024.64
2006.77
1988.89
1971.02
1953.15
1935.27
1917.4
1899.53
1881.66
1863.79
1845.92
1828.06
1810.19
1792.33
1774.47
1756.61
1738.75
1720.9
1703.04
1685.18
1667.33
1649.47
1631.61
1613.75
1595.9
1578.04
1560.17
1542.31
1524.45
1506.59
1488.72
1470.85
1452.98
1435.11
1417.23
1399.35
1381.47
1363.58
1345.69
1327.8
1309.91
1291.93
1273.65
1255.63
1241.76
4999.92
4999.88
4999.91
4999.93
4999.93
4999.92
4999.92
4999.92
4999.92
4999.92
4999.93
4999.93
4999.93
4999.93
4999.93
4999.93
4999.93
4999.92
4999.92
4999.92
4999.92
4999.92
4999.92
4999.92
4999.92
4999.92
4999.92
4999.92
4999.92
4999.92
4999.91
4999.91
4999.91
4999.9
4999.87
4999.81
4999.64
4999.19
4997.97
4994.06
4984.19
4967.34
4948.1
4928.9
4909.86
4890.81
4871.78
4852.81
4833.92
4815.13
4796.43
4777.83
4759.3
4740.85
4722.46
4704.13
4685.86
4667.65
4649.49
4631.36
4613.27
4595.2
4577.16
4559.14
4541.15
4523.18
4505.23
4487.3
4469.37
4451.45
4433.54
4415.63
4397.73
4379.83
4361.94
4344.05
4326.17
4308.29
4290.42
4272.56
4254.7
4236.84
4218.97
4201.11
4183.25
4165.39
4147.53
4129.68
4111.82
4093.97
4076.11
4058.24
4040.37
4022.5
4004.63
3986.76
3968.9
3951.03
3933.17
3915.31
3897.44
3879.57
3861.7
3843.83
3825.95
3808.08
3790.21
3772.34
3754.47
3736.61
3718.75
3700.9
3683.04
3665.18
3647.33
3629.48
3611.63
3593.78
3575.93
3558.09
3540.24
3522.4
3504.56
3486.71
3468.86
3451.01
3433.16
3415.31
3397.46
3379.62
3361.77
3343.92
3326.08
3308.24
3290.4
3272.57
3254.74
3236.91
3219.09
3201.26
3183.44
3165.62
3147.8
3129.98
3112.17
3094.35
3076.53
3058.71
3040.9
3023.08
3005.27
2987.46
2969.65
2951.85
2934.04
2916.24
2898.44
2880.64
2862.84
2845.04
2827.25
2809.45
2791.65
2773.84
2756.04
2738.23
2720.42
2702.6
2684.78
2666.96
2649.13
2631.31
2613.48
2595.65
2577.83
2560
2542.17
2524.35
2506.52
2488.7
2470.87
2453.04
2435.21
2417.38
2399.55
2381.71
2363.88
2346.04
2328.2
2310.35
2292.51
2274.66
2256.81
2238.96
2221.11
2203.26
2185.4
2167.55
2149.69
2131.83
2113.97
2096.11
2078.25
2060.38
2042.51
2024.64
2006.76
1988.89
1971.02
1953.14
1935.27
1917.4
1899.53
1881.66
1863.79
1845.92
1828.06
1810.19
1792.33
1774.47
1756.61
1738.75
1720.9
1703.04
1685.18
1667.32
1649.47
1631.61
1613.75
1595.89
1578.03
1560.17
1542.3
1524.44
1506.57
1488.7
1470.83
1452.96
1435.09
1417.21
1399.33
1381.44
1363.55
1345.65
1327.76
1309.88
1291.9
1273.61
1255.59
1241.74
4999.92
4999.88
4999.91
4999.93
4999.93
4999.92
4999.92
4999.92
4999.92
4999.92
4999.92
4999.92
4999.93
4999.93
4999.93
4999.92
4999.92
4999.92
4999.92
4999.92
4999.92
4999.92
4999.92
4999.92
4999.92
4999.92
4999.92
4999.92
4999.92
4999.92
4999.91
4999.91
4999.91
4999.9
4999.87
4999.81
4999.64
4999.21
4998
4994.16
4984.39
4967.64
4948.44
4929.24
4910.2
4891.14
4872.1
4853.12
4834.23
4815.43
4796.71
4778.08
4759.53
4741.05
4722.64
4704.3
4686.02
4667.8
4649.62
4631.48
4613.36
4595.29
4577.24
4559.22
4541.22
4523.25
4505.29
4487.35
4469.41
4451.48
4433.56
4415.65
4397.75
4379.85
4361.96
4344.07
4326.19
4308.32
4290.45
4272.58
4254.72
4236.85
4218.99
4201.12
4183.26
4165.4
4147.54
4129.68
4111.83
4093.97
4076.11
4058.24
4040.38
4022.51
4004.64
3986.77
3968.9
3951.04
3933.17
3915.31
3897.44
3879.57
3861.7
3843.82
3825.95
3808.07
3790.21
3772.34
3754.48
3736.62
3718.76
3700.9
3683.05
3665.19
3647.33
3629.48
3611.63
3593.78
3575.93
3558.09
3540.24
3522.4
3504.55
3486.71
3468.86
3451.01
3433.16
3415.31
3397.46
3379.62
3361.77
3343.92
3326.08
3308.24
3290.41
3272.57
3254.74
3236.91
3219.09
3201.26
3183.44
3165.62
3147.8
3129.99
3112.17
3094.35
3076.53
3058.72
3040.9
3023.09
3005.27
2987.46
2969.65
2951.85
2934.04
2916.24
2898.44
2880.64
2862.84
2845.04
2827.25
2809.45
2791.65
2773.84
2756.04
2738.23
2720.42
2702.6
2684.78
2666.96
2649.13
2631.31
2613.48
2595.66
2577.83
2560
2542.17
2524.35
2506.52
2488.7
2470.87
2453.04
2435.21
2417.38
2399.55
2381.71
2363.87
2346.04
2328.19
2310.35
2292.51
2274.66
2256.81
2238.96
2221.11
2203.26
2185.4
2167.55
2149.69
2131.83
2113.97
2096.11
2078.24
2060.38
2042.5
2024.63
2006.76
1988.89
1971.01
1953.14
1935.27
1917.4
1899.52
1881.65
1863.79
1845.92
1828.06
1810.19
1792.33
1774.47
1756.61
1738.76
1720.9
1703.04
1685.18
1667.32
1649.47
1631.61
1613.75
1595.89
1578.03
1560.17
1542.3
1524.44
1506.57
1488.7
1470.83
1452.96
1435.08
1417.2
1399.32
1381.43
1363.54
1345.64
1327.75
1309.87
1291.89
1273.6
1255.58
1241.74
4999.92
4999.88
4999.91
4999.93
4999.93
4999.92
4999.92
4999.92
4999.92
4999.92
4999.92
4999.92
4999.93
4999.93
4999.93
4999.92
4999.92
4999.92
4999.92
4999.92
4999.92
4999.92
4999.92
4999.92
4999.92
4999.92
4999.92
4999.92
4999.92
4999.91
4999.91
4999.91
4999.91
4999.9
4999.88
4999.81
4999.65
4999.22
4998.05
4994.29
4984.59
4967.85
4948.57
4929.29
4910.21
4891.13
4872.06
4853.06
4834.16
4815.34
4796.62
4777.99
4759.44
4740.98
4722.58
4704.24
4685.97
4667.74
4649.57
4631.43
4613.33
4595.26
4577.21
4559.19
4541.21
4523.24
4505.28
4487.34
4469.4
4451.47
4433.55
4415.64
4397.74
4379.85
4361.96
4344.08
4326.2
4308.32
4290.45
4272.58
4254.71
4236.85
4218.98
4201.12
4183.26
4165.4
4147.54
4129.68
4111.83
4093.97
4076.11
4058.25
4040.38
4022.51
4004.64
3986.77
3968.9
3951.04
3933.17
3915.31
3897.44
3879.57
3861.69
3843.82
3825.95
3808.08
3790.21
3772.34
3754.48
3736.62
3718.77
3700.91
3683.05
3665.19
3647.34
3629.48
3611.63
3593.78
3575.93
3558.09
3540.24
3522.39
3504.55
3486.7
3468.85
3451.01
3433.16
3415.31
3397.46
3379.61
3361.77
3343.92
3326.08
3308.24
3290.41
3272.57
3254.74
3236.91
3219.09
3201.27
3183.44
3165.63
3147.81
3129.99
3112.17
3094.35
3076.53
3058.72
3040.9
3023.09
3005.27
2987.46
2969.65
2951.85
2934.05
2916.24
2898.44
2880.64
2862.84
2845.05
2827.25
2809.45
2791.65
2773.84
2756.04
2738.23
2720.42
2702.6
2684.78
2666.96
2649.14
2631.31
2613.49
2595.66
2577.83
2560
2542.18
2524.35
2506.52
2488.7
2470.87
2453.04
2435.21
2417.38
2399.54
2381.71
2363.87
2346.03
2328.19
2310.35
2292.51
2274.66
2256.81
2238.96
2221.11
2203.26
2185.4
2167.55
2149.69
2131.83
2113.97
2096.11
2078.24
2060.37
2042.5
2024.63
2006.76
1988.88
1971.01
1953.14
1935.27
1917.39
1899.52
1881.65
1863.79
1845.92
1828.06
1810.19
1792.33
1774.47
1756.62
1738.76
1720.9
1703.04
1685.19
1667.33
1649.47
1631.61
1613.75
1595.89
1578.03
1560.17
1542.31
1524.44
1506.58
1488.71
1470.84
1452.97
1435.09
1417.21
1399.33
1381.44
1363.55
1345.66
1327.76
1309.88
1291.9
1273.62
1255.6
1241.74
4999.92
4999.88
4999.91
4999.93
4999.93
4999.92
4999.92
4999.92
4999.92
4999.92
4999.92
4999.93
4999.93
4999.93
4999.93
4999.93
4999.93
4999.92
4999.92
4999.92
4999.92
4999.92
4999.92
4999.92
4999.92
4999.92
4999.92
4999.92
4999.92
4999.91
4999.91
4999.91
4999.91
4999.9
4999.88
4999.82
4999.66
4999.25
4998.11
4994.45
4984.77
4967.92
4948.46
4929.04
4909.85
4890.71
4871.6
4852.59
4833.68
4814.88
4796.18
4777.57
4759.05
4740.61
4722.24
4703.94
4685.69
4667.5
4649.35
4631.23
4613.15
4595.1
4577.08
4559.08
4541.1
4523.15
4505.2
4487.26
4469.33
4451.41
4433.5
4415.6
4397.71
4379.83
4361.95
4344.06
4326.18
4308.31
4290.44
4272.57
4254.7
4236.84
4218.98
4201.12
4183.25
4165.39
4147.54
4129.68
4111.83
4093.97
4076.11
4058.25
4040.38
4022.51
4004.64
3986.77
3968.91
3951.04
3933.17
3915.31
3897.44
3879.57
3861.69
3843.82
3825.95
3808.08
3790.22
3772.35
3754.49
3736.63
3718.78
3700.92
3683.06
3665.2
3647.34
3629.48
3611.63
3593.78
3575.93
3558.08
3540.23
3522.39
3504.54
3486.7
3468.85
3451
3433.15
3415.3
3397.46
3379.61
3361.77
3343.92
3326.08
3308.24
3290.41
3272.58
3254.74
3236.92
3219.09
3201.27
3183.45
3165.62
3147.8
3129.99
3112.17
3094.35
3076.53
3058.71
3040.9
3023.09
3005.27
2987.46
2969.66
2951.85
2934.05
2916.25
2898.44
2880.64
2862.85
2845.05
2827.25
2809.45
2791.65
2773.84
2756.04
2738.23
2720.42
2702.6
2684.78
2666.96
2649.14
2631.32
2613.49
2595.66
2577.83
2560.01
2542.18
2524.35
2506.52
2488.7