/*--------------------------------*- C++ -*----------------------------------*\
| =========                 |                                                 |
| \\      /  F ield         | OpenFOAM: The Open Source CFD Toolbox           |
|  \\    /   O peration     | Version:  2406                                  |
|   \\  /    A nd           | Website:  www.openfoam.com                      |
|    \\/     M anipulation  |                                                 |
\*---------------------------------------------------------------------------*/
FoamFile
{
    version     2.0;
    format      ascii;
    arch        "LSB;label=32;scalar=64";
    class       surfaceScalarField;
    location    "0.05";
    object      phi;
}
// * * * * * * * * * * * * * * * * * * * * * * * * * * * * * * * * * * * * * //

dimensions      [0 3 -1 0 0 0 0];

oriented        oriented;

internalField   nonuniform List<scalar> 
12225
(
1.51609e-07
3.35472e-09
1.43093e-07
8.52886e-09
1.34733e-07
8.34795e-09
1.27986e-07
6.73905e-09
1.21965e-07
6.01597e-09
1.16236e-07
5.7381e-09
1.10985e-07
5.2523e-09
1.0643e-07
4.55391e-09
1.02634e-07
3.81421e-09
9.95728e-08
3.08956e-09
9.72199e-08
2.37491e-09
9.55303e-08
1.7e-09
9.44066e-08
1.13438e-09
9.36867e-08
7.41911e-10
9.31573e-08
5.52894e-10
9.26077e-08
5.58389e-10
9.18854e-08
7.19382e-10
9.09154e-08
9.72503e-10
8.96739e-08
1.25693e-09
8.81578e-08
1.53325e-09
8.63588e-08
1.80139e-09
8.42465e-08
2.09556e-09
8.1762e-08
2.46171e-09
7.88348e-08
2.91539e-09
7.54523e-08
3.38189e-09
7.14258e-08
4.0203e-09
6.53709e-08
6.03915e-09
5.1788e-08
1.35642e-08
3.46412e-08
1.71387e-08
3.51982e-08
-5.60059e-10
3.53214e-08
-1.24012e-10
3.78896e-08
-2.56713e-09
3.62862e-08
1.60426e-09
3.57028e-08
5.83212e-10
3.63529e-08
-6.50842e-10
3.69911e-08
-6.39387e-10
3.73439e-08
-3.53276e-10
3.78469e-08
-5.01545e-10
3.87085e-08
-8.61621e-10
3.98012e-08
-1.09242e-09
4.09328e-08
-1.13117e-09
4.20024e-08
-1.07024e-09
4.29679e-08
-9.65615e-10
4.38078e-08
-8.40124e-10
4.45217e-08
-7.13488e-10
4.51216e-08
-5.98742e-10
4.5621e-08
-4.99609e-10
4.60349e-08
-4.15795e-10
4.6381e-08
-3.45921e-10
4.6671e-08
-2.88259e-10
4.69132e-08
-2.41565e-10
4.71154e-08
-2.03397e-10
4.72856e-08
-1.71478e-10
4.74303e-08
-1.44755e-10
4.75535e-08
-1.22664e-10
4.76584e-08
-1.04498e-10
4.77477e-08
-8.92747e-11
4.78242e-08
-7.64802e-11
4.78898e-08
-6.56484e-11
4.79458e-08
-5.63619e-11
4.79938e-08
-4.84789e-11
4.80354e-08
-4.16829e-11
4.80721e-08
-3.5776e-11
4.81045e-08
-3.06867e-11
4.81326e-08
-2.64916e-11
4.81561e-08
-2.30503e-11
4.81757e-08
-2.03288e-11
4.81925e-08
-1.80288e-11
4.82078e-08
-1.58275e-11
4.82219e-08
-1.36235e-11
4.82347e-08
-1.15061e-11
4.82458e-08
-9.58676e-12
4.8255e-08
-8.06263e-12
4.82625e-08
-6.80028e-12
4.82691e-08
-6.00406e-12
4.82752e-08
-5.31109e-12
4.8281e-08
-4.70805e-12
4.82864e-08
-4.21807e-12
4.8291e-08
-3.83802e-12
4.82948e-08
-3.59379e-12
4.82977e-08
-3.48205e-12
4.83001e-08
-3.43957e-12
4.83024e-08
-3.38515e-12
4.83048e-08
-3.30393e-12
4.83073e-08
-3.07449e-12
4.83099e-08
-2.75748e-12
4.8312e-08
-2.13624e-12
4.83139e-08
-2.04026e-12
4.83152e-08
-1.70984e-12
4.83163e-08
-1.62083e-12
4.83174e-08
-1.59267e-12
4.83186e-08
-1.47617e-12
4.83199e-08
-1.32111e-12
4.83213e-08
-1.11683e-12
4.83227e-08
-8.70312e-13
4.8324e-08
-6.95731e-13
4.83251e-08
-4.89218e-13
4.83258e-08
-3.01592e-13
4.83262e-08
-1.60649e-13
4.83264e-08
-1.68482e-13
4.83265e-08
5.91827e-15
4.83265e-08
8.75541e-14
4.83267e-08
1.39941e-13
4.8327e-08
8.8984e-14
4.83274e-08
8.79558e-15
4.83279e-08
-2.58684e-14
4.83281e-08
6.00963e-14
4.83282e-08
1.04898e-13
4.83283e-08
2.7204e-14
4.83282e-08
5.05477e-14
4.83281e-08
2.50781e-14
4.83282e-08
-1.9818e-14
4.83281e-08
1.36544e-13
4.83282e-08
8.94866e-14
4.83284e-08
1.19431e-13
4.83285e-08
1.35795e-13
4.83286e-08
1.61787e-13
4.83286e-08
1.49162e-13
4.83286e-08
1.68065e-13
4.83284e-08
2.36697e-13
4.83282e-08
2.55542e-13
4.8328e-08
2.08346e-13
4.8328e-08
1.54632e-13
4.8328e-08
1.20069e-13
4.83282e-08
9.77605e-14
4.83284e-08
1.41454e-13
4.83286e-08
3.02364e-13
4.83289e-08
1.93907e-13
4.83294e-08
9.49498e-14
4.83296e-08
3.41161e-13
4.83296e-08
5.80087e-13
4.83293e-08
6.66489e-13
4.8329e-08
7.24313e-13
4.83285e-08
7.75532e-13
4.83279e-08
7.85465e-13
4.83272e-08
7.34452e-13
4.83267e-08
6.39494e-13
4.83262e-08
5.48779e-13
4.83259e-08
3.6335e-13
4.83258e-08
2.47966e-13
4.83256e-08
3.11358e-13
4.83255e-08
2.61569e-13
4.83254e-08
1.85781e-13
4.83254e-08
1.40844e-13
4.83252e-08
1.76913e-13
4.83251e-08
1.80302e-13
4.83249e-08
1.38552e-13
4.83246e-08
1.13911e-13
4.83244e-08
2.12519e-14
4.83242e-08
-1.60142e-14
4.8324e-08
-4.04109e-14
4.83238e-08
-6.66542e-14
4.83237e-08
-9.78337e-14
4.83236e-08
-8.94602e-14
4.83236e-08
-3.63557e-14
4.83236e-08
-8.45513e-14
4.83238e-08
-8.0094e-14
4.83239e-08
-5.69644e-14
4.83241e-08
-6.97874e-14
4.83243e-08
-1.04284e-13
4.83246e-08
-1.19371e-13
4.83248e-08
-1.31958e-13
4.83251e-08
-1.41439e-13
4.83253e-08
-1.61375e-13
4.83255e-08
-1.66764e-13
4.83258e-08
-1.93697e-13
4.8326e-08
-1.96066e-13
4.83263e-08
-1.71709e-13
4.83264e-08
-1.39288e-13
4.83266e-08
-1.03795e-13
4.83267e-08
-7.70681e-14
4.83268e-08
-5.20164e-14
4.83269e-08
-4.20326e-14
4.83269e-08
-1.26852e-14
4.83269e-08
1.74397e-14
4.83269e-08
1.58877e-14
4.83268e-08
-3.77204e-16
4.83268e-08
-2.36545e-14
4.83268e-08
-4.70784e-14
4.83269e-08
-7.26818e-14
4.8327e-08
-9.25757e-14
4.8327e-08
-9.17558e-14
4.83272e-08
-9.6208e-14
4.83273e-08
-1.2564e-13
4.83275e-08
-1.27115e-13
4.83277e-08
-1.38546e-13
4.83279e-08
-1.49943e-13
4.8328e-08
-1.21108e-13
4.83281e-08
-7.12536e-14
4.83282e-08
-5.74076e-14
4.83283e-08
-8.59997e-14
4.83283e-08
-3.74385e-14
4.83282e-08
-1.83816e-14
4.83282e-08
-2.09672e-14
4.83282e-08
-4.6311e-14
4.83281e-08
-5.72502e-14
4.83281e-08
-6.34219e-14
4.83281e-08
-7.00307e-14
4.8328e-08
-3.95859e-14
4.8328e-08
-5.97263e-14
4.8328e-08
-7.98276e-14
4.83281e-08
-6.98945e-14
4.83281e-08
-5.09373e-14
4.83282e-08
-2.7956e-14
4.83283e-08
2.21391e-15
4.83284e-08
3.23446e-14
4.83284e-08
5.26671e-14
4.83284e-08
9.09006e-14
4.83283e-08
1.36333e-13
4.83282e-08
1.95411e-13
4.8328e-08
2.39987e-13
4.83278e-08
2.58472e-13
4.83274e-08
3.15624e-13
4.8327e-08
3.8368e-13
4.83265e-08
4.29862e-13
4.83259e-08
4.82993e-13
4.83252e-08
5.3429e-13
4.83245e-08
5.88885e-13
4.83236e-08
6.53033e-13
4.83226e-08
7.27971e-13
4.83216e-08
8.17859e-13
4.83204e-08
9.28103e-13
4.83191e-08
1.06754e-12
4.83176e-08
1.22118e-12
4.8316e-08
1.39572e-12
4.83142e-08
1.62221e-12
4.83121e-08
1.90405e-12
4.83098e-08
2.23808e-12
4.8307e-08
2.64442e-12
4.83038e-08
3.14685e-12
4.83e-08
3.75315e-12
4.82955e-08
4.50454e-12
4.82901e-08
5.45229e-12
4.82836e-08
6.5833e-12
4.82757e-08
8.00828e-12
4.82659e-08
9.9098e-12
4.82536e-08
1.23872e-11
4.82382e-08
1.5547e-11
4.82187e-08
1.9738e-11
4.81937e-08
2.51417e-11
4.81616e-08
3.22676e-11
4.81201e-08
4.16828e-11
4.80663e-08
5.39107e-11
4.79967e-08
6.98008e-11
4.79067e-08
9.00863e-11
4.77914e-08
1.15402e-10
4.76451e-08
1.46441e-10
4.74628e-08
1.824e-10
4.72447e-08
2.18075e-10
2.26969e-10
1.72117e-07
7.5667e-10
1.76746e-07
3.88831e-09
1.78804e-07
6.28983e-09
1.78403e-07
7.15025e-09
1.76991e-07
7.42728e-09
1.74993e-07
7.74548e-09
1.72293e-07
7.97231e-09
1.68993e-07
7.87951e-09
1.65433e-07
7.40393e-09
1.6197e-07
6.57735e-09
1.5889e-07
5.48076e-09
1.56368e-07
4.25265e-09
1.54461e-07
3.0746e-09
1.53104e-07
2.12471e-09
1.52143e-07
1.53196e-09
1.51371e-07
1.34565e-09
1.50579e-07
1.53117e-09
1.49573e-07
1.99712e-09
1.48198e-07
2.64126e-09
1.46329e-07
3.39711e-09
1.43854e-07
4.26716e-09
1.40602e-07
5.33675e-09
1.36284e-07
6.7615e-09
1.30481e-07
8.69044e-09
1.227e-07
1.11373e-08
1.12326e-07
1.43737e-08
9.86898e-08
1.96481e-08
8.64535e-08
2.57746e-08
8.82871e-08
1.52842e-08
7.21165e-08
1.56453e-08
6.14107e-08
1.06069e-08
6.16258e-08
-2.79577e-09
7.00399e-08
-6.8088e-09
8.06236e-08
-9.9967e-09
8.77834e-08
-7.80803e-09
9.08331e-08
-3.68827e-09
9.15357e-08
-1.05776e-09
9.31162e-08
-2.08274e-09
9.53286e-08
-3.07375e-09
9.76275e-08
-3.39149e-09
9.98298e-08
-3.33307e-09
1.0187e-07
-3.10998e-09
1.03662e-07
-2.75836e-09
1.05184e-07
-2.36325e-09
1.06458e-07
-1.98697e-09
1.07517e-07
-1.65705e-09
1.08397e-07
-1.37779e-09
1.09125e-07
-1.14515e-09
1.09731e-07
-9.53085e-10
1.10239e-07
-7.95654e-10
1.10666e-07
-6.66929e-10
1.11025e-07
-5.61516e-10
1.11329e-07
-4.74916e-10
1.11587e-07
-4.03186e-10
1.11806e-07
-3.43185e-10
1.11994e-07
-2.92629e-10
1.12156e-07
-2.49981e-10
1.12296e-07
-2.14453e-10
1.12416e-07
-1.84589e-10
1.12519e-07
-1.59573e-10
1.12608e-07
-1.38335e-10
1.12685e-07
-1.19866e-10
1.12752e-07
-1.03856e-10
1.12811e-07
-8.99122e-11
1.12863e-07
-7.79172e-11
1.12907e-07
-6.76604e-11
1.12945e-07
-5.90154e-11
1.12979e-07
-5.15495e-11
1.13009e-07
-4.52322e-11
1.13035e-07
-3.98805e-11
1.13058e-07
-3.53201e-11
1.13078e-07
-3.1383e-11
1.13094e-07
-2.78756e-11
1.13109e-07
-2.47374e-11
1.13122e-07
-2.15332e-11
1.13133e-07
-1.85562e-11
1.13144e-07
-1.59327e-11
1.13154e-07
-1.36848e-11
1.13162e-07
-1.18663e-11
1.13169e-07
-1.04252e-11
1.13175e-07
-9.23198e-12
1.1318e-07
-8.24477e-12
1.13184e-07
-7.23957e-12
1.13189e-07
-6.42575e-12
1.13193e-07
-5.71218e-12
1.13197e-07
-5.01362e-12
1.13201e-07
-4.65929e-12
1.13203e-07
-3.69564e-12
1.13205e-07
-3.23722e-12
1.13206e-07
-3.11331e-12
1.13207e-07
-2.99205e-12
1.13209e-07
-2.79957e-12
1.1321e-07
-2.54629e-12
1.13212e-07
-2.28472e-12
1.13214e-07
-2.06606e-12
1.13215e-07
-1.87476e-12
1.13216e-07
-1.73769e-12
1.13216e-07
-1.62697e-12
1.13216e-07
-1.54953e-12
1.13217e-07
-1.4874e-12
1.13217e-07
-1.41309e-12
1.13218e-07
-1.00946e-12
1.13218e-07
-8.27752e-13
1.13219e-07
-6.05423e-13
1.13219e-07
-6.79057e-13
1.1322e-07
-6.66473e-13
1.1322e-07
-8.11471e-13
1.1322e-07
-8.42902e-13
1.1322e-07
-6.42664e-13
1.1322e-07
-5.69136e-13
1.1322e-07
-5.2397e-13
1.1322e-07
-5.65575e-13
1.13221e-07
-4.48685e-13
1.13221e-07
-2.45804e-13
1.13221e-07
-1.98027e-13
1.13221e-07
-1.31612e-13
1.13221e-07
-1.9873e-13
1.13221e-07
-1.7981e-13
1.13221e-07
-1.89335e-13
1.13221e-07
-1.02456e-13
1.13221e-07
-5.37097e-15
1.13221e-07
-8.43429e-14
1.13221e-07
-2.8202e-13
1.13221e-07
-4.4468e-13
1.13221e-07
-4.79255e-13
1.13221e-07
-5.47208e-13
1.13222e-07
-7.22898e-13
1.13222e-07
-6.3285e-13
1.13222e-07
-6.77611e-13
1.13222e-07
-5.50798e-13
1.13222e-07
-4.35184e-13
1.13222e-07
-2.78686e-13
1.13222e-07
-9.9435e-14
1.13221e-07
-8.76496e-14
1.13221e-07
-1.98893e-14
1.1322e-07
1.14539e-13
1.1322e-07
-4.98414e-15
1.13219e-07
-1.24638e-14
1.13219e-07
-3.58197e-14
1.13219e-07
-5.07077e-14
1.13219e-07
-1.96118e-14
1.13219e-07
9.9008e-15
1.13219e-07
-9.63711e-15
1.13219e-07
1.14302e-13
1.13219e-07
1.06947e-13
1.13219e-07
1.50446e-13
1.13219e-07
2.47523e-13
1.13219e-07
1.71847e-13
1.13218e-07
7.95724e-14
1.13218e-07
3.33821e-14
1.13218e-07
-1.873e-14
1.13218e-07
-7.07515e-14
1.13217e-07
-9.63142e-14
1.13217e-07
-3.65024e-14
1.13217e-07
9.79863e-15
1.13218e-07
4.26143e-14
1.13218e-07
6.45843e-14
1.13218e-07
1.10325e-13
1.13218e-07
8.30639e-14
1.13218e-07
3.46962e-14
1.13219e-07
7.30368e-15
1.13219e-07
-1.28375e-14
1.13219e-07
-3.74942e-14
1.13219e-07
-6.89553e-14
1.13219e-07
-1.17321e-13
1.1322e-07
-1.44895e-13
1.1322e-07
-1.25304e-13
1.1322e-07
-9.97316e-14
1.1322e-07
-7.55091e-14
1.1322e-07
-4.97813e-14
1.1322e-07
-2.43172e-14
1.13221e-07
-1.16871e-15
1.13221e-07
2.94205e-14
1.13221e-07
5.20213e-14
1.13221e-07
8.33269e-14
1.13221e-07
6.93829e-14
1.13221e-07
6.02403e-14
1.13221e-07
4.21713e-14
1.13221e-07
2.42813e-14
1.13221e-07
9.92562e-15
1.13221e-07
-2.12644e-14
1.13221e-07
-5.67754e-14
1.13221e-07
-7.52644e-14
1.13221e-07
-4.49394e-14
1.13221e-07
-2.52722e-14
1.13222e-07
-7.3969e-15
1.13222e-07
-2.38511e-14
1.13222e-07
-1.68611e-14
1.13222e-07
-1.03062e-14
1.13222e-07
3.81933e-14
1.13222e-07
1.08802e-13
1.13222e-07
3.45122e-14
1.13222e-07
5.78519e-14
1.13222e-07
1.07215e-13
1.13222e-07
1.14366e-13
1.13222e-07
1.01101e-13
1.13222e-07
9.32338e-14
1.13221e-07
1.1406e-13
1.13221e-07
8.38336e-14
1.13221e-07
1.10866e-13
1.13221e-07
1.52974e-13
1.13221e-07
1.99712e-13
1.13221e-07
2.49522e-13
1.13221e-07
3.01881e-13
1.13221e-07
3.49144e-13
1.13221e-07
3.8902e-13
1.13221e-07
4.4511e-13
1.13221e-07
4.93352e-13
1.13221e-07
5.55979e-13
1.13221e-07
6.43793e-13
1.1322e-07
7.27098e-13
1.1322e-07
8.38661e-13
1.13219e-07
9.41648e-13
1.13219e-07
1.03474e-12
1.13218e-07
1.23806e-12
1.13217e-07
1.39696e-12
1.13215e-07
1.56717e-12
1.13214e-07
1.75134e-12
1.13212e-07
1.99257e-12
1.1321e-07
2.28842e-12
1.13208e-07
2.62621e-12
1.13206e-07
3.02185e-12
1.13203e-07
3.48151e-12
1.132e-07
4.02919e-12
1.13196e-07
4.68144e-12
1.13192e-07
5.46742e-12
1.13188e-07
6.4106e-12
1.13182e-07
7.52698e-12
1.13176e-07
8.85914e-12
1.13169e-07
1.04596e-11
1.1316e-07
1.23921e-11
1.1315e-07
1.47518e-11
1.13138e-07
1.76852e-11
1.13124e-07
2.12417e-11
1.13106e-07
2.56722e-11
1.13086e-07
3.12114e-11
1.1306e-07
3.81869e-11
1.13029e-07
4.7025e-11
1.12991e-07
5.81726e-11
1.12944e-07
7.22478e-11
1.12887e-07
9.00561e-11
1.12816e-07
1.12455e-10
1.1273e-07
1.40303e-10
1.12626e-07
1.74475e-10
1.12501e-07
2.15595e-10
1.12352e-07
2.63787e-10
1.12181e-07
3.18018e-10
1.1199e-07
3.73148e-10
1.11793e-07
4.15689e-10
4.20183e-10
1.73119e-07
5.30544e-10
1.74625e-07
2.39907e-09
1.76874e-07
4.02736e-09
1.7887e-07
5.13726e-09
1.80255e-07
6.03972e-09
1.81042e-07
6.97835e-09
1.81183e-07
7.84973e-09
1.80664e-07
8.40651e-09
1.79615e-07
8.47111e-09
1.78231e-07
7.99287e-09
1.76707e-07
7.04085e-09
1.75191e-07
5.79236e-09
1.73787e-07
4.49402e-09
1.72548e-07
3.38769e-09
1.71461e-07
2.65179e-09
1.70476e-07
2.36275e-09
1.69521e-07
2.51426e-09
1.68502e-07
3.04255e-09
1.67298e-07
3.86724e-09
1.65776e-07
4.92888e-09
1.63816e-07
6.22349e-09
1.61319e-07
7.82877e-09
1.58163e-07
9.91434e-09
1.54134e-07
1.27034e-08
1.48881e-07
1.63648e-08
1.42071e-07
2.116e-08
1.3386e-07
2.78388e-08
1.23102e-07
3.65061e-08
9.89042e-08
3.95173e-08
9.31394e-08
2.13943e-08
9.38858e-08
9.85623e-09
9.82445e-08
-7.16567e-09
1.00896e-07
-9.46524e-09
1.03707e-07
-1.28106e-08
1.1208e-07
-1.61811e-08
1.22584e-07
-1.41893e-08
1.32567e-07
-1.10407e-08
1.37149e-07
-6.66434e-09
1.38889e-07
-4.81257e-09
1.4019e-07
-4.6935e-09
1.41765e-07
-4.90827e-09
1.43476e-07
-4.82107e-09
1.45069e-07
-4.34978e-09
1.4646e-07
-3.75427e-09
1.47639e-07
-3.16681e-09
1.48629e-07
-2.64781e-09
1.49459e-07
-2.20809e-09
1.50157e-07
-1.84229e-09
1.50746e-07
-1.54113e-09
1.51244e-07
-1.29378e-09
1.51666e-07
-1.09003e-09
1.52025e-07
-9.21853e-10
1.52333e-07
-7.82575e-10
1.52598e-07
-6.66603e-10
1.52826e-07
-5.69632e-10
1.53022e-07
-4.88142e-10
1.53191e-07
-4.19624e-10
1.53336e-07
-3.61482e-10
1.53463e-07
-3.11992e-10
1.53574e-07
-2.69675e-10
1.53671e-07
-2.33529e-10
1.53756e-07
-2.02786e-10
1.5383e-07
-1.76427e-10
1.53894e-07
-1.53858e-10
1.5395e-07
-1.34288e-10
1.53998e-07
-1.17163e-10
1.5404e-07
-1.02103e-10
1.54077e-07
-8.89099e-11
1.5411e-07
-7.74212e-11
1.5414e-07
-6.75558e-11
1.54166e-07
-5.90857e-11
1.54188e-07
-5.18063e-11
1.54208e-07
-4.55021e-11
1.54224e-07
-3.99812e-11
1.54239e-07
-3.51049e-11
1.54252e-07
-3.08159e-11
1.54264e-07
-2.71306e-11
1.54274e-07
-2.39432e-11
1.54283e-07
-2.12243e-11
1.5429e-07
-1.88606e-11
1.54297e-07
-1.67375e-11
1.54303e-07
-1.49298e-11
1.54308e-07
-1.33245e-11
1.54313e-07
-1.16226e-11
1.54317e-07
-1.01967e-11
1.54321e-07
-8.9611e-12
1.54324e-07
-7.9686e-12
1.54326e-07
-6.92506e-12
1.54328e-07
-6.18019e-12
1.5433e-07
-5.4808e-12
1.54332e-07
-4.88615e-12
1.54334e-07
-4.26674e-12
1.54336e-07
-3.69239e-12
1.54338e-07
-3.19001e-12
1.54339e-07
-2.79042e-12
1.5434e-07
-2.48247e-12
1.54341e-07
-2.24124e-12
1.54341e-07
-2.06894e-12
1.54342e-07
-1.93688e-12
1.54342e-07
-1.82674e-12
1.54343e-07
-1.74942e-12
1.54344e-07
-1.5865e-12
1.54345e-07
-1.22648e-12
1.54346e-07
-1.02399e-12
1.54347e-07
-7.66094e-13
1.54347e-07
-7.13392e-13
1.54347e-07
-6.70482e-13
1.54347e-07
-6.75837e-13
1.54346e-07
-6.45739e-13
1.54346e-07
-6.33986e-13
1.54346e-07
-5.72112e-13
1.54346e-07
-4.43605e-13
1.54347e-07
-4.29504e-13
1.54347e-07
-4.07612e-13
1.54348e-07
-3.1038e-13
1.54348e-07
-2.11223e-13
1.54348e-07
-8.92441e-14
1.54348e-07
-3.41146e-14
1.54348e-07
-3.5656e-14
1.54348e-07
-3.49557e-14
1.54348e-07
5.6065e-14
1.54347e-07
1.05745e-13
1.54347e-07
7.73427e-14
1.54347e-07
-1.20437e-14
1.54347e-07
-9.09452e-14
1.54348e-07
-1.36533e-13
1.54348e-07
-1.41706e-13
1.54348e-07
-6.22026e-14
1.54348e-07
1.73429e-13
1.54348e-07
5.53996e-14
1.54349e-07
-9.99019e-15
1.54349e-07
3.84835e-14
1.54349e-07
8.78652e-14
1.54348e-07
2.14222e-13
1.54348e-07
2.39527e-13
1.54348e-07
1.46454e-13
1.54347e-07
2.57814e-13
1.54347e-07
2.35453e-13
1.54346e-07
1.66024e-13
1.54346e-07
8.43505e-14
1.54347e-07
6.72243e-15
1.54347e-07
-1.77668e-14
1.54347e-07
1.50949e-13
1.54347e-07
1.72822e-13
1.54347e-07
1.09648e-13
1.54347e-07
1.28531e-13
1.54346e-07
1.76974e-13
1.54346e-07
1.4326e-13
1.54346e-07
7.83953e-14
1.54345e-07
-3.61504e-14
1.54345e-07
-8.11871e-14
1.54345e-07
-1.07026e-13
1.54344e-07
-1.07108e-13
1.54344e-07
-8.82713e-14
1.54344e-07
-7.1228e-14
1.54345e-07
-2.00996e-14
1.54345e-07
2.73137e-14
1.54345e-07
5.39065e-14
1.54345e-07
5.57629e-14
1.54346e-07
2.28154e-14
1.54346e-07
-8.39306e-15
1.54346e-07
-3.09206e-14
1.54346e-07
-5.83682e-14
1.54346e-07
-9.00315e-14
1.54347e-07
-1.20161e-13
1.54347e-07
-1.3885e-13
1.54347e-07
-1.42004e-13
1.54347e-07
-1.32558e-13
1.54347e-07
-1.14314e-13
1.54347e-07
-9.10466e-14
1.54347e-07
-6.42866e-14
1.54347e-07
-3.66531e-14
1.54347e-07
-1.70641e-14
1.54348e-07
-1.6877e-14
1.54348e-07
-2.5765e-14
1.54348e-07
8.12888e-15
1.54348e-07
1.40059e-14
1.54348e-07
8.34909e-15
1.54348e-07
-1.5076e-14
1.54348e-07
-4.34977e-14
1.54348e-07
-7.04807e-14
1.54348e-07
-9.57309e-14
1.54348e-07
-1.10375e-13
1.54348e-07
-9.07741e-14
1.54348e-07
-8.01047e-14
1.54349e-07
-6.99582e-14
1.54349e-07
-4.16657e-14
1.54349e-07
-4.72287e-14
1.54349e-07
-5.99975e-14
1.54349e-07
-4.34658e-14
1.54349e-07
-3.30759e-14
1.54349e-07
-1.28581e-14
1.54349e-07
6.80241e-15
1.54349e-07
4.17932e-14
1.54349e-07
8.59643e-14
1.54349e-07
1.221e-13
1.54348e-07
1.28375e-13
1.54348e-07
1.29431e-13
1.54348e-07
1.48649e-13
1.54348e-07
1.84069e-13
1.54348e-07
2.32001e-13
1.54348e-07
2.90412e-13
1.54348e-07
3.59374e-13
1.54348e-07
4.36562e-13
1.54348e-07
5.24299e-13
1.54348e-07
6.20128e-13
1.54348e-07
7.04162e-13
1.54348e-07
7.89283e-13
1.54348e-07
8.92218e-13
1.54347e-07
1.03467e-12
1.54347e-07
1.21052e-12
1.54346e-07
1.38374e-12
1.54346e-07
1.58876e-12
1.54345e-07
1.78867e-12
1.54344e-07
2.09327e-12
1.54342e-07
2.42347e-12
1.54341e-07
2.76069e-12
1.54339e-07
3.15202e-12
1.54337e-07
3.60926e-12
1.54335e-07
4.15405e-12
1.54332e-07
4.793e-12
1.54329e-07
5.53924e-12
1.54326e-07
6.41465e-12
1.54322e-07
7.44793e-12
1.54318e-07
8.67562e-12
1.54313e-07
1.01157e-11
1.54307e-07
1.18154e-11
1.54301e-07
1.3839e-11
1.54293e-07
1.62452e-11
1.54285e-07
1.91138e-11
1.54275e-07
2.25552e-11
1.54263e-07
2.67098e-11
1.54249e-07
3.17301e-11
1.54232e-07
3.78634e-11
1.54213e-07
4.53569e-11
1.5419e-07
5.45226e-11
1.54163e-07
6.57234e-11
1.5413e-07
7.95436e-11
1.54092e-07
9.6545e-11
1.54047e-07
1.17563e-10
1.53994e-07
1.43225e-10
1.53933e-07
1.7436e-10
1.53862e-07
2.11502e-10
1.53781e-07
2.55252e-10
1.53692e-07
3.05514e-10
1.53595e-07
3.6119e-10
1.53493e-07
4.19784e-10
1.53391e-07
4.74892e-10
1.53294e-07
5.13298e-10
5.15645e-10
1.75375e-07
4.09106e-10
1.75947e-07
1.81832e-09
1.76877e-07
3.0802e-09
1.77911e-07
4.10156e-09
1.78865e-07
5.08612e-09
1.79697e-07
6.14372e-09
1.80356e-07
7.18027e-09
1.80788e-07
7.98086e-09
1.80963e-07
8.32927e-09
1.80878e-07
8.11135e-09
1.80575e-07
7.36666e-09
1.8011e-07
6.27464e-09
1.79547e-07
5.08811e-09
1.78932e-07
4.05105e-09
1.78292e-07
3.34169e-09
1.77634e-07
3.05148e-09
1.76969e-07
3.19404e-09
1.76302e-07
3.72822e-09
1.75612e-07
4.5886e-09
1.7485e-07
5.71865e-09
1.73976e-07
7.09892e-09
1.73016e-07
8.76309e-09
1.72109e-07
1.08004e-08
1.7148e-07
1.33238e-08
1.7145e-07
1.63814e-08
1.72642e-07
1.99536e-08
1.76353e-07
2.41469e-08
1.84017e-07
2.8757e-08
1.92843e-07
3.06682e-08
1.87734e-07
2.64904e-08
1.8296e-07
1.46494e-08
1.75128e-07
6.3466e-10
1.75098e-07
-9.44445e-09
1.77053e-07
-1.47744e-08
1.7645e-07
-1.55819e-08
1.75329e-07
-1.30635e-08
1.72249e-07
-7.96484e-09
1.70588e-07
-5.00479e-09
1.70293e-07
-4.51633e-09
1.70675e-07
-5.07611e-09
1.71263e-07
-5.4958e-09
1.71985e-07
-5.5444e-09
1.72757e-07
-5.12101e-09
1.73491e-07
-4.48769e-09
1.74157e-07
-3.8322e-09
1.74745e-07
-3.23759e-09
1.75262e-07
-2.72654e-09
1.75718e-07
-2.29647e-09
1.76118e-07
-1.93923e-09
1.76469e-07
-1.64291e-09
1.76774e-07
-1.3965e-09
1.77041e-07
-1.19064e-09
1.77276e-07
-1.01786e-09
1.77483e-07
-8.72405e-10
1.77665e-07
-7.49926e-10
1.77825e-07
-6.46597e-10
1.77964e-07
-5.58965e-10
1.78085e-07
-4.8424e-10
1.78193e-07
-4.20026e-10
1.78287e-07
-3.64648e-10
1.7837e-07
-3.16796e-10
1.78443e-07
-2.75762e-10
1.78507e-07
-2.40329e-10
1.78564e-07
-2.09927e-10
1.78615e-07
-1.83564e-10
1.78659e-07
-1.60698e-10
1.78697e-07
-1.40837e-10
1.78731e-07
-1.23514e-10
1.7876e-07
-1.08369e-10
1.78787e-07
-9.50021e-11
1.7881e-07
-8.33501e-11
1.7883e-07
-7.30797e-11
1.78848e-07
-6.4056e-11
1.78863e-07
-5.61374e-11
1.78877e-07
-4.92003e-11
1.78889e-07
-4.31338e-11
1.789e-07
-3.78712e-11
1.78909e-07
-3.32811e-11
1.78918e-07
-2.92721e-11
1.78925e-07
-2.57528e-11
1.78931e-07
-2.27068e-11
1.78937e-07
-2.00004e-11
1.78942e-07
-1.75632e-11
1.78946e-07
-1.56063e-11
1.7895e-07
-1.38285e-11
1.78953e-07
-1.22726e-11
1.78956e-07
-1.07915e-11
1.78958e-07
-9.52936e-12
1.78961e-07
-8.3611e-12
1.78963e-07
-7.34107e-12
1.78965e-07
-6.4632e-12
1.78967e-07
-5.68689e-12
1.78968e-07
-5.03459e-12
1.7897e-07
-4.50467e-12
1.78971e-07
-4.08381e-12
1.78972e-07
-3.78695e-12
1.78973e-07
-3.52819e-12
1.78973e-07
-3.22933e-12
1.78974e-07
-2.93661e-12
1.78974e-07
-2.66658e-12
1.78975e-07
-2.35546e-12
1.78976e-07
-2.1017e-12
1.78977e-07
-1.7847e-12
1.78978e-07
-1.5239e-12
1.78979e-07
-1.32616e-12
1.78979e-07
-1.21922e-12
1.78979e-07
-1.16856e-12
1.78979e-07
-1.1362e-12
1.78978e-07
-1.11637e-12
1.78978e-07
-1.03035e-12
1.78979e-07
-9.19089e-13
1.78979e-07
-8.00903e-13
1.78979e-07
-6.92976e-13
1.7898e-07
-6.226e-13
1.7898e-07
-5.18067e-13
1.7898e-07
-4.19095e-13
1.7898e-07
-3.15718e-13
1.7898e-07
-2.7096e-13
1.7898e-07
-2.13458e-13
1.78979e-07
-1.16786e-13
1.78979e-07
-1.8091e-13
1.78979e-07
-2.30438e-13
1.78979e-07
-3.19695e-13
1.78979e-07
-4.13358e-13
1.78979e-07
-4.57802e-13
1.7898e-07
-5.06903e-13
1.7898e-07
-5.24479e-13
1.78981e-07
-5.09321e-13
1.78981e-07
-4.96146e-13
1.78981e-07
-3.77235e-13
1.78981e-07
-3.55119e-13
1.78981e-07
-2.99958e-13
1.78981e-07
-2.11257e-13
1.7898e-07
-1.12037e-13
1.7898e-07
-4.66573e-14
1.78979e-07
-5.60516e-15
1.78979e-07
3.67025e-14
1.78978e-07
6.63733e-14
1.78978e-07
5.30254e-14
1.78978e-07
2.13781e-14
1.78978e-07
-4.99644e-15
1.78979e-07
1.23841e-14
1.78979e-07
8.94747e-14
1.78979e-07
1.39886e-13
1.78979e-07
1.46455e-13
1.78979e-07
1.55196e-13
1.78979e-07
1.50939e-13
1.78978e-07
1.39312e-13
1.78978e-07
8.74724e-14
1.78978e-07
2.64286e-14
1.78977e-07
-1.54608e-14
1.78977e-07
-3.67083e-14
1.78977e-07
-4.24836e-14
1.78977e-07
-3.70739e-14
1.78977e-07
-2.87208e-14
1.78977e-07
7.47924e-15
1.78977e-07
3.93836e-14
1.78977e-07
7.87828e-14
1.78978e-07
8.99718e-14
1.78978e-07
6.99203e-14
1.78978e-07
4.25634e-14
1.78978e-07
1.77126e-14
1.78979e-07
-9.64098e-15
1.78979e-07
-3.86842e-14
1.78979e-07
-6.75353e-14
1.78979e-07
-1.00672e-13
1.78979e-07
-1.02441e-13
1.78979e-07
-8.77504e-14
1.78979e-07
-7.44824e-14
1.78979e-07
-5.70786e-14
1.7898e-07
-3.73428e-14
1.7898e-07
-1.73427e-14
1.7898e-07
6.38394e-17
1.7898e-07
1.4949e-14
1.7898e-07
3.87228e-14
1.7898e-07
3.03776e-14
1.7898e-07
3.42778e-14
1.7898e-07
2.59005e-14
1.7898e-07
7.95118e-15
1.7898e-07
-1.38883e-14
1.7898e-07
-3.76791e-14
1.7898e-07
-6.54456e-14
1.7898e-07
-7.8661e-14
1.7898e-07
-6.56835e-14
1.78981e-07
-5.01949e-14
1.78981e-07
-3.4977e-14
1.78981e-07
-2.15798e-14
1.78981e-07
-1.28732e-14
1.78981e-07
-8.66129e-15
1.78981e-07
3.84465e-15
1.78981e-07
3.18875e-14
1.78981e-07
6.82942e-14
1.78981e-07
9.53832e-14
1.78981e-07
1.21509e-13
1.78981e-07
1.60131e-13
1.78981e-07
1.97538e-13
1.78981e-07
2.27973e-13
1.7898e-07
2.56689e-13
1.7898e-07
2.90539e-13
1.7898e-07
3.32797e-13
1.7898e-07
3.92225e-13
1.7898e-07
4.77818e-13
1.7898e-07
5.7118e-13
1.7898e-07
6.71929e-13
1.7898e-07
7.80997e-13
1.7898e-07
8.97495e-13
1.7898e-07
1.01999e-12
1.7898e-07
1.15668e-12
1.7898e-07
1.31725e-12
1.78979e-07
1.50993e-12
1.78979e-07
1.72737e-12
1.78979e-07
1.98385e-12
1.78978e-07
2.27548e-12
1.78977e-07
2.63493e-12
1.78976e-07
3.01061e-12
1.78975e-07
3.46083e-12
1.78973e-07
3.97306e-12
1.78971e-07
4.55208e-12
1.78969e-07
5.22948e-12
1.78967e-07
6.02029e-12
1.78965e-07
6.94373e-12
1.78962e-07
8.02126e-12
1.78959e-07
9.28144e-12
1.78955e-07
1.07595e-11
1.78951e-07
1.24924e-11
1.78946e-07
1.45268e-11
1.78941e-07
1.69364e-11
1.78935e-07
1.97631e-11
1.78928e-07
2.30951e-11
1.7892e-07
2.70367e-11
1.78911e-07
3.17195e-11
1.78901e-07
3.73012e-11
1.78889e-07
4.39724e-11
1.78875e-07
5.19582e-11
1.78859e-07
6.15384e-11
1.78841e-07
7.30502e-11
1.7882e-07
8.69385e-11
1.78796e-07
1.03581e-10
1.78769e-07
1.23654e-10
1.7874e-07
1.47645e-10
1.78707e-07
1.76152e-10
1.78672e-07
2.09631e-10
1.78635e-07
2.4854e-10
1.78598e-07
2.92673e-10
1.78562e-07
3.41544e-10
1.7853e-07
3.93555e-10
1.78504e-07
4.45825e-10
1.78487e-07
4.92752e-10
1.78476e-07
5.24124e-10
5.26503e-10
1.77154e-07
3.33833e-10
1.77463e-07
1.50986e-09
1.77948e-07
2.59356e-09
1.78514e-07
3.52102e-09
1.79102e-07
4.47999e-09
1.79697e-07
5.55093e-09
1.80259e-07
6.62536e-09
1.80756e-07
7.49159e-09
1.81158e-07
7.93917e-09
1.81434e-07
7.84901e-09
1.8158e-07
7.24148e-09
1.81612e-07
6.27132e-09
1.81559e-07
5.17466e-09
1.81451e-07
4.19364e-09
1.81309e-07
3.51307e-09
1.81148e-07
3.22994e-09
1.80995e-07
3.35705e-09
1.80877e-07
3.85265e-09
1.80814e-07
4.65441e-09
1.80826e-07
5.70555e-09
1.80942e-07
6.97023e-09
1.8123e-07
8.44168e-09
1.81842e-07
1.01461e-08
1.83028e-07
1.21172e-08
1.85065e-07
1.43273e-08
1.8832e-07
1.6676e-08
1.93334e-07
1.90874e-08
2.00719e-07
2.13635e-08
2.09073e-07
2.22949e-08
2.1618e-07
1.93953e-08
2.19065e-07
1.18043e-08
2.17406e-07
2.27825e-09
2.13343e-07
-5.41033e-09
2.07609e-07
-9.06155e-09
2.01369e-07
-9.35335e-09
1.96107e-07
-7.79918e-09
1.94269e-07
-6.12153e-09
1.94048e-07
-4.7835e-09
1.93701e-07
-4.17125e-09
1.92825e-07
-4.20028e-09
1.92011e-07
-4.68161e-09
1.91405e-07
-4.93755e-09
1.91037e-07
-4.75402e-09
1.90851e-07
-4.30168e-09
1.90799e-07
-3.77991e-09
1.90835e-07
-3.27271e-09
1.90925e-07
-2.81668e-09
1.91046e-07
-2.41885e-09
1.91184e-07
-2.07725e-09
1.91327e-07
-1.78582e-09
1.91469e-07
-1.53769e-09
1.91605e-07
-1.32635e-09
1.91733e-07
-1.14598e-09
1.91851e-07
-9.91673e-10
1.9196e-07
-8.59431e-10
1.92059e-07
-7.4603e-10
1.92149e-07
-6.48515e-10
1.92231e-07
-5.64565e-10
1.92305e-07
-4.92152e-10
1.92371e-07
-4.29534e-10
1.92429e-07
-3.75482e-10
1.92481e-07
-3.2838e-10
1.92527e-07
-2.87462e-10
1.92569e-07
-2.51585e-10
1.92606e-07
-2.20343e-10
1.92639e-07
-1.93045e-10
1.92668e-07
-1.69195e-10
1.92694e-07
-1.48396e-10
1.92717e-07
-1.30229e-10
1.92737e-07
-1.14369e-10
1.92756e-07
-1.00541e-10
1.92772e-07
-8.84613e-11
1.92786e-07
-7.78895e-11
1.92798e-07
-6.85903e-11
1.92808e-07
-6.03754e-11
1.92818e-07
-5.31048e-11
1.92826e-07
-4.66749e-11
1.92834e-07
-4.10141e-11
1.92841e-07
-3.6005e-11
1.92847e-07
-3.16175e-11
1.92852e-07
-2.79008e-11
1.92856e-07
-2.46561e-11
1.9286e-07
-2.19062e-11
1.92864e-07
-1.94387e-11
1.92867e-07
-1.72874e-11
1.9287e-07
-1.53134e-11
1.92872e-07
-1.35068e-11
1.92874e-07
-1.18559e-11
1.92876e-07
-1.03546e-11
1.92878e-07
-9.07553e-12
1.9288e-07
-7.96935e-12
1.92882e-07
-7.05974e-12
1.92883e-07
-6.29371e-12
1.92885e-07
-5.67805e-12
1.92886e-07
-5.16607e-12
1.92886e-07
-4.68874e-12
1.92887e-07
-4.27167e-12
1.92887e-07
-3.88426e-12
1.92888e-07
-3.45456e-12
1.92889e-07
-3.02819e-12
1.9289e-07
-2.63379e-12
1.92891e-07
-2.42264e-12
1.92891e-07
-2.06168e-12
1.92892e-07
-1.77793e-12
1.92892e-07
-1.61292e-12
1.92893e-07
-1.48592e-12
1.92892e-07
-1.41937e-12
1.92892e-07
-1.3609e-12
1.92892e-07
-1.2852e-12
1.92892e-07
-1.17683e-12
1.92892e-07
-1.04772e-12
1.92893e-07
-9.21791e-13
1.92893e-07
-7.92628e-13
1.92893e-07
-6.65157e-13
1.92894e-07
-5.61715e-13
1.92894e-07
-4.75738e-13
1.92894e-07
-3.9734e-13
1.92893e-07
-4.04634e-13
1.92893e-07
-2.22461e-13
1.92893e-07
-1.97634e-13
1.92893e-07
-1.93904e-13
1.92893e-07
-2.18276e-13
1.92893e-07
-2.31359e-13
1.92893e-07
-2.58393e-13
1.92893e-07
-3.02192e-13
1.92894e-07
-3.14533e-13
1.92894e-07
-3.13651e-13
1.92895e-07
-2.90396e-13
1.92895e-07
-2.74854e-13
1.92895e-07
-2.63879e-13
1.92895e-07
-2.12585e-13
1.92895e-07
-1.74444e-13
1.92894e-07
-1.31759e-13
1.92894e-07
-8.58676e-14
1.92893e-07
-4.83914e-14
1.92893e-07
-2.16658e-14
1.92892e-07
-7.48454e-15
1.92892e-07
-9.54374e-15
1.92892e-07
-1.74938e-14
1.92892e-07
-2.8367e-14
1.92892e-07
-3.51907e-14
1.92892e-07
-2.94868e-14
1.92893e-07
-5.46549e-17
1.92893e-07
4.4624e-14
1.92893e-07
6.82878e-14
1.92893e-07
9.08774e-14
1.92893e-07
8.78414e-14
1.92892e-07
7.4843e-14
1.92892e-07
4.25699e-14
1.92892e-07
8.86929e-15
1.92891e-07
-1.66698e-14
1.92891e-07
-3.51767e-14
1.92891e-07
-3.90481e-14
1.92891e-07
-3.84073e-14
1.92891e-07
-2.68177e-14
1.92891e-07
-3.07057e-15
1.92891e-07
1.85437e-14
1.92891e-07
5.38704e-14
1.92891e-07
6.59329e-14
1.92892e-07
5.54146e-14
1.92892e-07
3.49717e-14
1.92892e-07
1.35176e-14
1.92892e-07
-1.06207e-14
1.92893e-07
-3.59223e-14
1.92893e-07
-6.05553e-14
1.92893e-07
-7.67749e-14
1.92893e-07
-8.16897e-14
1.92893e-07
-7.42686e-14
1.92893e-07
-6.25992e-14
1.92893e-07
-4.91601e-14
1.92893e-07
-3.38736e-14
1.92893e-07
-1.75475e-14
1.92893e-07
-3.93387e-15
1.92893e-07
-2.90694e-15
1.92893e-07
-4.25776e-15
1.92893e-07
1.81708e-14
1.92893e-07
1.47061e-14
1.92893e-07
2.72028e-15
1.92893e-07
-1.50322e-14
1.92893e-07
-3.51099e-14
1.92894e-07
-5.22808e-14
1.92894e-07
-5.72577e-14
1.92894e-07
-5.64631e-14
1.92894e-07
-6.85807e-14
1.92894e-07
-6.36635e-14
1.92894e-07
-5.34132e-14
1.92895e-07
-4.12395e-14
1.92895e-07
-2.90913e-14
1.92895e-07
-1.45462e-14
1.92895e-07
-4.77106e-16
1.92895e-07
1.89772e-14
1.92895e-07
3.76185e-14
1.92895e-07
7.71715e-14
1.92895e-07
1.18558e-13
1.92895e-07
1.61667e-13
1.92894e-07