/*--------------------------------*- C++ -*----------------------------------*\
| =========                 |                                                 |
| \\      /  F ield         | OpenFOAM: The Open Source CFD Toolbox           |
|  \\    /   O peration     | Version:  2406                                  |
|   \\  /    A nd           | Website:  www.openfoam.com                      |
|    \\/     M anipulation  |                                                 |
\*---------------------------------------------------------------------------*/
FoamFile
{
    version     2.0;
    format      ascii;
    arch        "LSB;label=32;scalar=64";
    class       volVectorField;
    location    "0.05";
    object      U;
}
// * * * * * * * * * * * * * * * * * * * * * * * * * * * * * * * * * * * * * //

dimensions      [0 1 -1 0 0 0 0];

internalField   nonuniform List<vector> 
6250
(
(0.187914 0.0053122 0)
(0.242415 0.0152662 0)
(0.183541 0.0150731 0)
(0.153906 0.0115424 0)
(0.151604 0.00906773 0)
(0.149812 0.00759272 0)
(0.142942 0.0061236 0)
(0.135703 0.00454459 0)
(0.130233 0.00314576 0)
(0.126111 0.00207097 0)
(0.12282 0.00129571 0)
(0.120307 0.000780047 0)
(0.118581 0.000513558 0)
(0.117486 0.000478678 0)
(0.116758 0.000628275 0)
(0.116123 0.000892989 0)
(0.115354 0.00119965 0)
(0.114308 0.00149007 0)
(0.112923 0.00173341 0)
(0.111195 0.0019273 0)
(0.109129 0.00208424 0)
(0.1067 0.00220321 0)
(0.103835 0.00223538 0)
(0.100443 0.00206872 0)
(0.0966378 0.00156113 0)
(0.0923412 0.00113528 0)
(0.0912245 0.00365303 0)
(0.0832454 0.0308275 0)
(0.0425326 0.0717121 0)
(0.0439028 0.0356113 0)
(0.0431799 0.0163278 0)
(0.0451143 0.00700144 0)
(0.0460602 0.00334328 0)
(0.0451256 0.000220324 0)
(0.0451835 -0.00156097 0)
(0.0458532 -0.0012646 0)
(0.0464512 -0.000398174 0)
(0.0469608 -0.000177154 0)
(0.0477985 -0.000332091 0)
(0.0490418 -0.000524341 0)
(0.0504598 -0.000613459 0)
(0.0518568 -0.000637743 0)
(0.0531388 -0.000608595 0)
(0.0542683 -0.00054382 0)
(0.0552381 -0.000472053 0)
(0.056055 -0.000401055 0)
(0.0567382 -0.00033752 0)
(0.057305 -0.000281614 0)
(0.0577763 -0.000234018 0)
(0.058171 -0.000194394 0)
(0.0585013 -0.000162453 0)
(0.058777 -0.000136506 0)
(0.0590083 -0.000114682 0)
(0.0592038 -9.62371e-05 0)
(0.0593701 -8.11367e-05 0)
(0.0595118 -6.89078e-05 0)
(0.0596325 -5.84121e-05 0)
(0.0597356 -4.94791e-05 0)
(0.0598239 -4.22091e-05 0)
(0.0598995 -3.61838e-05 0)
(0.0599641 -3.11264e-05 0)
(0.0600197 -2.67567e-05 0)
(0.0600685 -2.28061e-05 0)
(0.0601116 -1.92171e-05 0)
(0.0601493 -1.62755e-05 0)
(0.0601814 -1.40413e-05 0)
(0.0602082 -1.25005e-05 0)
(0.0602308 -1.1202e-05 0)
(0.0602508 -9.75198e-06 0)
(0.060269 -8.11719e-06 0)
(0.0602858 -6.49425e-06 0)
(0.0603006 -5.11242e-06 0)
(0.0603132 -4.1315e-06 0)
(0.0603237 -3.4194e-06 0)
(0.0603326 -3.02352e-06 0)
(0.0603405 -2.64808e-06 0)
(0.0603479 -2.2632e-06 0)
(0.0603548 -1.99622e-06 0)
(0.0603609 -1.92287e-06 0)
(0.0603661 -2.06235e-06 0)
(0.0603703 -2.316e-06 0)
(0.0603737 -2.54901e-06 0)
(0.0603767 -2.56991e-06 0)
(0.0603797 -2.45382e-06 0)
(0.0603827 -2.08646e-06 0)
(0.0603858 -1.75241e-06 0)
(0.0603887 -1.14802e-06 0)
(0.0603911 -1.205e-06 0)
(0.0603932 -1.02821e-06 0)
(0.0603948 -9.94612e-07 0)
(0.0603961 -9.75438e-07 0)
(0.0603975 -8.64499e-07 0)
(0.0603991 -6.84795e-07 0)
(0.0604008 -4.84339e-07 0)
(0.0604025 -3.40499e-07 0)
(0.0604042 -4.21224e-07 0)
(0.0604057 -3.21892e-07 0)
(0.0604068 -1.57776e-08 0)
(0.0604075 1.49381e-07 0)
(0.0604079 1.76763e-07 0)
(0.0604081 4.58125e-07 0)
(0.0604082 6.32345e-07 0)
(0.0604083 4.89593e-07 0)
(0.0604085 2.67604e-07 0)
(0.060409 1.14851e-07 0)
(0.0604095 4.89748e-08 0)
(0.06041 5.22016e-08 0)
(0.0604102 2.98289e-08 0)
(0.0604103 -3.71895e-08 0)
(0.0604103 6.40329e-08 0)
(0.0604102 9.87959e-08 0)
(0.0604102 1.32648e-07 0)
(0.0604102 3.5734e-07 0)
(0.0604102 1.89574e-07 0)
(0.0604104 1.03192e-07 0)
(0.0604106 1.47554e-07 0)
(0.0604107 2.19192e-07 0)
(0.0604108 2.36503e-07 0)
(0.0604108 3.41807e-07 0)
(0.0604106 5.18031e-07 0)
(0.0604104 5.14234e-07 0)
(0.0604101 3.84209e-07 0)
(0.06041 2.7731e-07 0)
(0.06041 2.15627e-07 0)
(0.0604101 1.70944e-07 0)
(0.0604103 2.07175e-07 0)
(0.0604106 2.2087e-07 0)
(0.0604109 -4.07276e-08 0)
(0.0604115 -9.69946e-08 0)
(0.0604119 3.63315e-07 0)
(0.060412 7.21373e-07 0)
(0.0604119 9.21399e-07 0)
(0.0604115 1.09434e-06 0)
(0.0604109 1.31417e-06 0)
(0.0604102 1.30166e-06 0)
(0.0604094 1.10075e-06 0)
(0.0604087 9.36838e-07 0)
(0.060408 7.11362e-07 0)
(0.0604075 3.83819e-07 0)
(0.0604073 3.51214e-07 0)
(0.0604071 6.61349e-07 0)
(0.0604069 6.29192e-07 0)
(0.0604068 3.74112e-07 0)
(0.0604067 2.82353e-07 0)
(0.0604066 2.58252e-07 0)
(0.0604065 2.20565e-07 0)
(0.0604062 8.86569e-08 0)
(0.0604059 2.27309e-08 0)
(0.0604056 -4.96964e-08 0)
(0.0604054 -6.49763e-08 0)
(0.0604051 -6.15858e-08 0)
(0.0604049 -4.65939e-08 0)
(0.0604047 -9.10982e-08 0)
(0.0604046 -1.02603e-07 0)
(0.0604045 3.63936e-08 0)
(0.0604045 3.60912e-08 0)
(0.0604046 -8.28178e-09 0)
(0.0604048 -4.72708e-08 0)
(0.060405 -8.99509e-08 0)
(0.0604053 -1.30081e-07 0)
(0.0604056 -1.7252e-07 0)
(0.0604059 -2.14453e-07 0)
(0.0604062 -2.49584e-07 0)
(0.0604065 -2.82842e-07 0)
(0.0604068 -2.91548e-07 0)
(0.0604071 -3.10553e-07 0)
(0.0604074 -2.89858e-07 0)
(0.0604077 -2.28221e-07 0)
(0.0604079 -1.46749e-07 0)
(0.0604081 -6.64914e-08 0)
(0.0604083 -1.20657e-08 0)
(0.0604084 3.6834e-08 0)
(0.0604085 7.2614e-08 0)
(0.0604086 1.01164e-07 0)
(0.0604086 1.32791e-07 0)
(0.0604086 1.08903e-07 0)
(0.0604085 6.00019e-08 0)
(0.0604085 -3.43726e-10 0)
(0.0604085 -5.34593e-08 0)
(0.0604086 -1.00926e-07 0)
(0.0604087 -1.28386e-07 0)
(0.0604088 -1.26829e-07 0)
(0.0604089 -1.28066e-07 0)
(0.060409 -1.59073e-07 0)
(0.0604092 -1.67557e-07 0)
(0.0604095 -1.9036e-07 0)
(0.0604097 -1.86411e-07 0)
(0.0604099 -1.08519e-07 0)
(0.0604101 -2.98454e-08 0)
(0.0604102 -7.60255e-09 0)
(0.0604103 -3.24236e-08 0)
(0.0604103 3.43806e-08 0)
(0.0604103 7.25529e-08 0)
(0.0604103 4.20896e-08 0)
(0.0604102 -2.07586e-08 0)
(0.0604102 -5.90792e-08 0)
(0.0604101 -8.3471e-08 0)
(0.0604101 -9.9737e-08 0)
(0.06041 -7.9484e-08 0)
(0.06041 -1.1292e-07 0)
(0.06041 -1.518e-07 0)
(0.0604101 -1.51545e-07 0)
(0.0604101 -1.329e-07 0)
(0.0604102 -9.87307e-08 0)
(0.0604103 -5.2235e-08 0)
(0.0604104 -2.07506e-08 0)
(0.0604105 -7.06107e-09 0)
(0.0604105 4.63573e-08 0)
(0.0604105 1.23814e-07 0)
(0.0604103 2.03441e-07 0)
(0.0604101 2.46754e-07 0)
(0.0604099 2.65807e-07 0)
(0.0604095 3.31452e-07 0)
(0.0604091 3.94491e-07 0)
(0.0604085 3.83881e-07 0)
(0.0604078 3.63254e-07 0)
(0.060407 3.52122e-07 0)
(0.0604061 3.4922e-07 0)
(0.060405 3.5066e-07 0)
(0.0604039 3.51896e-07 0)
(0.0604026 3.57774e-07 0)
(0.0604013 3.76627e-07 0)
(0.0603997 4.13577e-07 0)
(0.060398 4.51363e-07 0)
(0.0603961 4.86128e-07 0)
(0.060394 5.59373e-07 0)
(0.0603915 6.70588e-07 0)
(0.0603888 8.02207e-07 0)
(0.0603856 9.89314e-07 0)
(0.0603819 1.24906e-06 0)
(0.0603776 1.55169e-06 0)
(0.0603724 1.9248e-06 0)
(0.0603663 2.36973e-06 0)
(0.0603589 2.77929e-06 0)
(0.06035 3.39319e-06 0)
(0.0603391 4.43832e-06 0)
(0.0603255 5.85645e-06 0)
(0.0603085 7.67538e-06 0)
(0.0602869 1.02103e-05 0)
(0.0602595 1.36185e-05 0)
(0.0602244 1.83504e-05 0)
(0.060179 2.49882e-05 0)
(0.0601203 3.41953e-05 0)
(0.0600441 4.70937e-05 0)
(0.0599457 6.47033e-05 0)
(0.0598208 8.79224e-05 0)
(0.0596598 0.000117697 0)
(0.0594347 0.000156609 0)
(0.0591227 0.000212493 0)
(0.0589446 0.00024738 0)
(0.203547 0.00471252 0)
(0.282468 0.0170118 0)
(0.23611 0.0225008 0)
(0.21277 0.0223937 0)
(0.21667 0.0212561 0)
(0.221246 0.0206383 0)
(0.218712 0.0198517 0)
(0.213557 0.0183708 0)
(0.20875 0.016247 0)
(0.204444 0.0136747 0)
(0.200423 0.0108234 0)
(0.196879 0.00792802 0)
(0.194088 0.00532232 0)
(0.19208 0.00334032 0)
(0.190689 0.00220365 0)
(0.189666 0.00195662 0)
(0.188744 0.00246338 0)
(0.187665 0.00346636 0)
(0.186211 0.00469331 0)
(0.184214 0.00597264 0)
(0.181538 0.00731046 0)
(0.17802 0.0088964 0)
(0.173392 0.0110225 0)
(0.167184 0.0138561 0)
(0.158882 0.0171112 0)
(0.14767 0.0213824 0)
(0.130722 0.0302543 0)
(0.121257 0.0419703 0)
(0.111087 0.0142157 0)
(0.0990313 -0.00690991 0)
(0.078882 -0.00244002 0)
(0.0709819 -0.00564465 0)
(0.0834195 0.00787095 0)
(0.0962576 0.00446367 0)
(0.105044 7.61826e-06 0)
(0.111471 -0.00190732 0)
(0.114257 -0.0026668 0)
(0.115642 -0.00418627 0)
(0.117868 -0.00546387 0)
(0.120571 -0.00572644 0)
(0.12343 -0.00551233 0)
(0.126121 -0.00507864 0)
(0.128526 -0.00450833 0)
(0.130603 -0.00388402 0)
(0.13234 -0.00327514 0)
(0.13379 -0.00273822 0)
(0.134992 -0.00227906 0)
(0.135989 -0.0018944 0)
(0.136816 -0.00157513 0)
(0.137507 -0.00131231 0)
(0.138086 -0.00109822 0)
(0.138574 -0.000923404 0)
(0.138986 -0.000779155 0)
(0.139335 -0.000659346 0)
(0.139631 -0.000559518 0)
(0.139883 -0.000476177 0)
(0.1401 -0.000406259 0)
(0.140288 -0.000348012 0)
(0.14045 -0.00029903 0)
(0.140589 -0.000257731 0)
(0.140708 -0.000222664 0)
(0.140811 -0.000192182 0)
(0.140901 -0.000165678 0)
(0.14098 -0.000142796 0)
(0.141048 -0.000123467 0)
(0.141108 -0.000107218 0)
(0.141159 -9.38279e-05 0)
(0.141204 -8.23689e-05 0)
(0.141243 -7.23864e-05 0)
(0.141278 -6.34791e-05 0)
(0.141309 -5.55619e-05 0)
(0.141336 -4.85713e-05 0)
(0.141358 -4.25235e-05 0)
(0.141378 -3.72067e-05 0)
(0.141395 -3.2444e-05 0)
(0.14141 -2.8102e-05 0)
(0.141424 -2.43679e-05 0)
(0.141436 -2.12386e-05 0)
(0.141448 -1.86969e-05 0)
(0.141457 -1.67191e-05 0)
(0.141465 -1.51729e-05 0)
(0.141472 -1.39779e-05 0)
(0.141478 -1.28364e-05 0)
(0.141484 -1.19868e-05 0)
(0.141489 -1.10212e-05 0)
(0.141494 -9.71604e-06 0)
(0.141499 -8.41671e-06 0)
(0.141503 -6.91494e-06 0)
(0.141505 -5.79522e-06 0)
(0.141507 -5.60667e-06 0)
(0.141508 -5.47673e-06 0)
(0.14151 -5.07701e-06 0)
(0.141512 -4.57407e-06 0)
(0.141514 -4.02273e-06 0)
(0.141516 -3.46036e-06 0)
(0.141518 -3.00869e-06 0)
(0.141519 -2.61459e-06 0)
(0.14152 -2.31067e-06 0)
(0.14152 -2.02634e-06 0)
(0.141521 -1.87936e-06 0)
(0.141521 -1.52413e-06 0)
(0.141522 -9.13693e-07 0)
(0.141522 -5.58031e-07 0)
(0.141523 -3.91332e-07 0)
(0.141524 -7.20447e-07 0)
(0.141524 -8.74164e-07 0)
(0.141525 -9.60907e-07 0)
(0.141525 -9.4148e-07 0)
(0.141525 -8.14234e-07 0)
(0.141525 -7.35726e-07 0)
(0.141525 -7.28401e-07 0)
(0.141525 -8.04943e-07 0)
(0.141525 -3.96937e-07 0)
(0.141526 -8.50323e-08 0)
(0.141526 4.25095e-08 0)
(0.141526 1.10309e-07 0)
(0.141527 3.36203e-09 0)
(0.141527 -1.90411e-08 0)
(0.141527 -3.54406e-08 0)
(0.141527 1.38088e-07 0)
(0.141526 2.81018e-07 0)
(0.141526 1.14265e-07 0)
(0.141526 -1.95194e-07 0)
(0.141526 -4.42852e-07 0)
(0.141526 -5.02901e-07 0)
(0.141526 -5.12329e-07 0)
(0.141527 -5.07278e-07 0)
(0.141527 -5.46193e-07 0)
(0.141528 -7.46233e-07 0)
(0.141528 -2.84066e-07 0)
(0.141528 2.53419e-07 0)
(0.141528 5.79716e-07 0)
(0.141528 8.38837e-07 0)
(0.141527 8.51151e-07 0)
(0.141526 9.28203e-07 0)
(0.141526 1.02871e-06 0)
(0.141525 7.21822e-07 0)
(0.141524 5.69813e-07 0)
(0.141524 3.25573e-07 0)
(0.141524 9.31629e-08 0)
(0.141524 1.39721e-07 0)
(0.141524 1.84835e-07 0)
(0.141524 1.71587e-07 0)
(0.141524 2.41213e-07 0)
(0.141524 3.35609e-07 0)
(0.141524 4.94575e-07 0)
(0.141524 6.82524e-07 0)
(0.141524 5.47458e-07 0)
(0.141523 1.90994e-07 0)
(0.141523 2.42375e-08 0)
(0.141522 -1.10463e-07 0)
(0.141522 -2.8046e-07 0)
(0.141522 -3.6073e-07 0)
(0.141522 -2.12588e-07 0)
(0.141522 -7.51368e-08 0)
(0.141522 -1.0808e-07 0)
(0.141522 -6.79227e-08 0)
(0.141522 7.52459e-08 0)
(0.141523 4.99257e-08 0)
(0.141523 -6.75426e-08 0)
(0.141523 -1.05596e-07 0)
(0.141524 -1.32721e-07 0)
(0.141524 -1.65391e-07 0)
(0.141524 -2.28416e-07 0)
(0.141524 -3.03222e-07 0)
(0.141524 -3.81721e-07 0)
(0.141525 -3.76732e-07 0)
(0.141525 -3.27054e-07 0)
(0.141525 -2.69928e-07 0)
(0.141525 -2.05539e-07 0)
(0.141525 -1.49926e-07 0)
(0.141526 -9.80881e-08 0)
(0.141526 -4.99172e-08 0)
(0.141526 2.27242e-08 0)
(0.141526 1.02875e-07 0)
(0.141526 9.05634e-08 0)
(0.141526 5.5758e-08 0)
(0.141526 9.04329e-09 0)
(0.141526 -3.5461e-08 0)
(0.141526 -7.84871e-08 0)
(0.141526 -1.33713e-07 0)
(0.141526 -1.71229e-07 0)
(0.141526 -1.95634e-07 0)
(0.141527 -1.9341e-07 0)
(0.141527 -1.71118e-07 0)
(0.141527 -1.66797e-07 0)
(0.141527 -2.0192e-07 0)
(0.141527 -1.58866e-07 0)
(0.141527 -7.40287e-08 0)
(0.141528 5.55151e-09 0)
(0.141528 5.40496e-08 0)
(0.141527 1.73639e-08 0)
(0.141527 6.24036e-08 0)
(0.141527 1.19143e-07 0)
(0.141527 8.61636e-08 0)
(0.141527 5.2314e-08 0)
(0.141527 3.96228e-08 0)
(0.141527 5.91666e-08 0)
(0.141527 6.14229e-08 0)
(0.141527 6.51724e-08 0)
(0.141527 8.54188e-08 0)
(0.141526 1.50251e-07 0)
(0.141526 2.30143e-07 0)
(0.141526 3.14059e-07 0)
(0.141527 3.96133e-07 0)
(0.141527 4.75136e-07 0)
(0.141527 5.66484e-07 0)
(0.141526 6.70534e-07 0)
(0.141526 7.92606e-07 0)
(0.141526 9.51792e-07 0)
(0.141526 1.09143e-06 0)
(0.141525 1.23114e-06 0)
(0.141525 1.42153e-06 0)
(0.141524 1.60798e-06 0)
(0.141523 1.90313e-06 0)
(0.141522 2.15061e-06 0)
(0.14152 2.39646e-06 0)
(0.141518 2.66974e-06 0)
(0.141516 3.01841e-06 0)
(0.141514 3.43656e-06 0)
(0.141512 3.91693e-06 0)
(0.141509 4.48202e-06 0)
(0.141506 5.14854e-06 0)
(0.141502 5.92703e-06 0)
(0.141498 6.84945e-06 0)
(0.141493 7.98959e-06 0)
(0.141488 9.37804e-06 0)
(0.141482 1.10284e-05 0)
(0.141474 1.30064e-05 0)
(0.141466 1.54063e-05 0)
(0.141456 1.83204e-05 0)
(0.141445 2.1924e-05 0)
(0.141431 2.64447e-05 0)
(0.141415 3.19673e-05 0)
(0.141395 3.89062e-05 0)
(0.141371 4.78192e-05 0)
(0.141342 5.92974e-05 0)
(0.141307 7.40497e-05 0)
(0.141265 9.31336e-05 0)
(0.141212 0.000117696 0)
(0.141148 0.000149669 0)
(0.141069 0.000191187 0)
(0.140971 0.000244343 0)
(0.140853 0.000311771 0)
(0.140711 0.000395874 0)
(0.140544 0.000498464 0)
(0.140345 0.000619644 0)
(0.140082 0.000749323 0)
(0.139724 0.000855592 0)
(0.139727 0.000869835 0)
(0.205266 0.00152854 0)
(0.283042 0.00670818 0)
(0.233617 0.0109471 0)
(0.211067 0.0137377 0)
(0.218521 0.0160499 0)
(0.227079 0.0183389 0)
(0.228197 0.0202229 0)
(0.226498 0.0211671 0)
(0.22499 0.0208685 0)
(0.223609 0.0192879 0)
(0.221894 0.0166317 0)
(0.219943 0.0133428 0)
(0.218068 0.0100101 0)
(0.216411 0.00720828 0)
(0.214968 0.00535407 0)
(0.213685 0.00463211 0)
(0.212495 0.00500226 0)
(0.211294 0.00626929 0)
(0.209943 0.00818821 0)
(0.208276 0.0105786 0)
(0.206134 0.013427 0)
(0.203387 0.0169573 0)
(0.199904 0.0216358 0)
(0.195499 0.02802 0)
(0.189863 0.0364486 0)
(0.182707 0.0476431 0)
(0.172495 0.0641245 0)
(0.160302 0.0849513 0)
(0.14018 0.0719866 0)
(0.124424 0.0257956 0)
(0.106359 0.0195002 0)
(0.126025 -0.012373 0)
(0.124745 -0.0217229 0)
(0.124779 -0.023277 0)
(0.131076 -0.0190179 0)
(0.146862 -0.00824934 0)
(0.161854 -0.00137947 0)
(0.168789 -0.00502843 0)
(0.172297 -0.00920303 0)
(0.174565 -0.0111258 0)
(0.176361 -0.0111881 0)
(0.178287 -0.0104598 0)
(0.180372 -0.00924203 0)
(0.182256 -0.0078994 0)
(0.183872 -0.00663905 0)
(0.185215 -0.00553019 0)
(0.186346 -0.0045965 0)
(0.187294 -0.00382123 0)
(0.188093 -0.00318376 0)
(0.188767 -0.00266213 0)
(0.189338 -0.00223471 0)
(0.189823 -0.00188357 0)
(0.190237 -0.00159422 0)
(0.190594 -0.0013543 0)
(0.1909 -0.00115408 0)
(0.191164 -0.000985908 0)
(0.19139 -0.000844533 0)
(0.191585 -0.000725594 0)
(0.191755 -0.000625002 0)
(0.191903 -0.000539749 0)
(0.192032 -0.00046725 0)
(0.192145 -0.000405151 0)
(0.192244 -0.000351749 0)
(0.19233 -0.000305658 0)
(0.192404 -0.000265785 0)
(0.192469 -0.000231204 0)
(0.192525 -0.000201339 0)
(0.192575 -0.000175446 0)
(0.192618 -0.000153214 0)
(0.192657 -0.000134269 0)
(0.192692 -0.000118029 0)
(0.192722 -0.000104009 0)
(0.192748 -9.17496e-05 0)
(0.192771 -8.09192e-05 0)
(0.19279 -7.085e-05 0)
(0.192808 -6.17776e-05 0)
(0.192823 -5.38591e-05 0)
(0.192837 -4.7015e-05 0)
(0.192849 -4.12708e-05 0)
(0.192859 -3.64477e-05 0)
(0.192867 -3.22985e-05 0)
(0.192875 -2.8812e-05 0)
(0.192882 -2.56038e-05 0)
(0.192888 -2.24776e-05 0)
(0.192894 -1.99042e-05 0)
(0.192899 -1.76417e-05 0)
(0.192903 -1.60301e-05 0)
(0.192906 -1.35952e-05 0)
(0.192909 -1.20944e-05 0)
(0.192912 -1.10045e-05 0)
(0.192914 -1.01302e-05 0)
(0.192917 -9.18026e-06 0)
(0.192919 -8.20159e-06 0)
(0.192921 -7.26065e-06 0)
(0.192923 -6.46705e-06 0)
(0.192925 -5.77224e-06 0)
(0.192926 -5.21892e-06 0)
(0.192926 -4.80025e-06 0)
(0.192927 -4.51808e-06 0)
(0.192927 -4.3868e-06 0)
(0.192928 -4.1471e-06 0)
(0.192929 -3.37433e-06 0)
(0.19293 -2.62011e-06 0)
(0.192932 -2.0663e-06 0)
(0.192933 -1.75916e-06 0)
(0.192934 -1.68067e-06 0)
(0.192934 -1.86195e-06 0)
(0.192934 -1.95054e-06 0)
(0.192933 -1.62592e-06 0)
(0.192933 -1.4588e-06 0)
(0.192933 -1.29795e-06 0)
(0.192933 -1.21519e-06 0)
(0.192933 -1.11804e-06 0)
(0.192934 -8.89353e-07 0)
(0.192934 -6.73834e-07 0)
(0.192935 -4.55146e-07 0)
(0.192935 -3.92595e-07 0)
(0.192935 -3.29072e-07 0)
(0.192935 -3.47514e-07 0)
(0.192935 -2.25261e-07 0)
(0.192935 6.14156e-08 0)
(0.192934 7.12323e-08 0)
(0.192934 -2.47764e-07 0)
(0.192934 -6.21545e-07 0)
(0.192934 -7.94705e-07 0)
(0.192935 -9.6312e-07 0)
(0.192935 -1.13457e-06 0)
(0.192935 -9.0379e-07 0)
(0.192936 -6.38805e-07 0)
(0.192936 -6.66148e-07 0)
(0.192936 -6.35883e-07 0)
(0.192936 -3.52227e-07 0)
(0.192936 1.56546e-09 0)
(0.192935 2.04895e-07 0)
(0.192935 3.45478e-07 0)
(0.192935 4.1947e-07 0)
(0.192934 4.65224e-07 0)
(0.192934 4.53176e-07 0)
(0.192933 2.91535e-07 0)
(0.192933 1.58065e-07 0)
(0.192933 8.02677e-08 0)
(0.192933 9.75749e-09 0)
(0.192933 1.92705e-07 0)
(0.192933 4.57428e-07 0)
(0.192933 3.59659e-07 0)
(0.192933 3.3554e-07 0)
(0.192933 4.41327e-07 0)
(0.192933 2.84178e-07 0)
(0.192932 1.32772e-07 0)
(0.192932 -5.56278e-08 0)
(0.192931 -1.70533e-07 0)
(0.192931 -2.44678e-07 0)
(0.192931 -2.66346e-07 0)
(0.19293 -1.8724e-07 0)
(0.19293 -1.31153e-07 0)
(0.192931 -1.18868e-08 0)
(0.192931 1.02639e-07 0)
(0.192931 1.94205e-07 0)
(0.192932 1.43331e-07 0)
(0.192932 2.76199e-08 0)
(0.192932 -4.67292e-08 0)
(0.192932 -9.82746e-08 0)
(0.192933 -1.61433e-07 0)
(0.192933 -2.41111e-07 0)
(0.192933 -3.33391e-07 0)
(0.192933 -3.88197e-07 0)
(0.192933 -3.60608e-07 0)
(0.192934 -3.11722e-07 0)
(0.192934 -2.5528e-07 0)
(0.192934 -1.92244e-07 0)
(0.192934 -1.24871e-07 0)
(0.192934 -5.84866e-08 0)
(0.192934 -3.03129e-09 0)
(0.192934 2.56752e-08 0)
(0.192934 4.90434e-08 0)
(0.192935 7.51448e-08 0)
(0.192935 7.8269e-08 0)
(0.192935 5.00404e-08 0)
(0.192935 -3.58638e-09 0)
(0.192935 -5.64814e-08 0)
(0.192935 -1.33501e-07 0)
(0.192935 -2.09633e-07 0)
(0.192935 -2.47573e-07 0)
(0.192935 -1.78599e-07 0)
(0.192935 -1.28545e-07 0)
(0.192936 -8.65311e-08 0)
(0.192936 -7.48961e-08 0)
(0.192936 -9.46711e-08 0)
(0.192936 -1.14377e-07 0)
(0.192936 -2.80741e-08 0)
(0.192936 7.33213e-08 0)
(0.192936 7.81082e-09 0)
(0.192936 5.3978e-08 0)
(0.192936 1.69534e-07 0)
(0.192936 2.55173e-07 0)
(0.192936 2.81604e-07 0)
(0.192936 2.62372e-07 0)
(0.192935 2.7959e-07 0)
(0.192935 2.65771e-07 0)
(0.192935 3.4591e-07 0)
(0.192935 4.70053e-07 0)
(0.192935 6.15227e-07 0)
(0.192935 7.72042e-07 0)
(0.192935 9.38561e-07 0)
(0.192935 1.11017e-06 0)
(0.192935 1.27623e-06 0)
(0.192935 1.43725e-06 0)
(0.192935 1.58045e-06 0)
(0.192935 1.7799e-06 0)
(0.192934 2.08091e-06 0)
(0.192934 2.415e-06 0)
(0.192933 2.76573e-06 0)
(0.192933 3.13857e-06 0)
(0.192932 3.48806e-06 0)
(0.19293 4.11374e-06 0)
(0.192929 4.73907e-06 0)
(0.192927 5.37433e-06 0)
(0.192925 6.06278e-06 0)
(0.192923 6.91032e-06 0)
(0.19292 7.95081e-06 0)
(0.192917 9.1602e-06 0)
(0.192914 1.05748e-05 0)
(0.19291 1.22326e-05 0)
(0.192905 1.41995e-05 0)
(0.1929 1.65446e-05 0)
(0.192894 1.93235e-05 0)
(0.192888 2.26267e-05 0)
(0.19288 2.65516e-05 0)
(0.192872 3.12312e-05 0)
(0.192862 3.68348e-05 0)
(0.19285 4.35921e-05 0)
(0.192836 5.18165e-05 0)
(0.19282 6.19078e-05 0)
(0.192802 7.42504e-05 0)
(0.192779 8.94848e-05 0)
(0.192753 0.000108322 0)
(0.192722 0.000131714 0)
(0.192685 0.000161042 0)
(0.192641 0.000197707 0)
(0.19259 0.000243596 0)
(0.192529 0.000300672 0)
(0.192457 0.000371177 0)
(0.192375 0.000457072 0)
(0.19228 0.000560333 0)
(0.192173 0.00068168 0)
(0.192062 0.000819605 0)
(0.191937 0.000969084 0)
(0.191763 0.00111427 0)
(0.191491 0.00121983 0)
(0.191745 0.00122884 0)
(0.207197 0.00116717 0)
(0.286467 0.00510349 0)
(0.235067 0.00854409 0)
(0.210213 0.0112117 0)
(0.216664 0.0136808 0)
(0.225164 0.0162846 0)
(0.226735 0.0187813 0)
(0.22598 0.0206209 0)
(0.225855 0.0212838 0)
(0.226096 0.020519 0)
(0.226006 0.0184472 0)
(0.225505 0.0155264 0)
(0.224815 0.0123989 0)
(0.224062 0.0096865 0)
(0.22327 0.00783818 0)
(0.222453 0.00707463 0)
(0.221629 0.00741486 0)
(0.220807 0.00874322 0)
(0.219972 0.0108911 0)
(0.21908 0.0137211 0)
(0.21807 0.0172045 0)
(0.216924 0.0214814 0)
(0.215738 0.0268911 0)
(0.214739 0.033895 0)
(0.214276 0.0428304 0)
(0.214916 0.0540117 0)
(0.217759 0.0684793 0)
(0.224374 0.0869081 0)
(0.235013 0.0997153 0)
(0.241051 0.0990256 0)
(0.237637 0.0480244 0)
(0.223061 -0.0167014 0)
(0.216152 -0.0391962 0)
(0.220555 -0.0564494 0)
(0.221059 -0.0613882 0)
(0.221465 -0.0517243 0)
(0.216143 -0.035206 0)
(0.211937 -0.0182516 0)
(0.212037 -0.0114616 0)
(0.212655 -0.011794 0)
(0.213621 -0.0133464 0)
(0.214522 -0.0136191 0)
(0.215472 -0.0124717 0)
(0.21642 -0.0108284 0)
(0.217298 -0.00915106 0)
(0.218085 -0.00766966 0)
(0.218773 -0.00640887 0)
(0.219379 -0.00535955 0)
(0.219912 -0.00449536 0)
(0.22038 -0.00378453 0)
(0.220788 -0.0031979 0)
(0.221144 -0.00271189 0)
(0.221457 -0.00230755 0)
(0.221732 -0.00196976 0)
(0.221975 -0.00168688 0)
(0.222187 -0.0014491 0)
(0.222373 -0.00124845 0)
(0.222535 -0.00107789 0)
(0.222678 -0.000932025 0)
(0.222803 -0.000806898 0)
(0.222913 -0.000699523 0)
(0.22301 -0.000607977 0)
(0.223096 -0.000529347 0)
(0.223172 -0.000462034 0)
(0.223239 -0.000403641 0)
(0.223298 -0.00035275 0)
(0.223349 -0.000308246 0)
(0.223394 -0.00026932 0)
(0.223433 -0.000235349 0)
(0.223468 -0.000205768 0)
(0.223499 -0.000180212 0)
(0.223526 -0.000157983 0)
(0.223549 -0.000138603 0)
(0.22357 -0.000121617 0)
(0.223588 -0.000106651 0)
(0.223604 -9.3503e-05 0)
(0.223618 -8.21396e-05 0)
(0.223631 -7.22555e-05 0)
(0.223642 -6.37627e-05 0)
(0.223652 -5.63741e-05 0)
(0.22366 -4.99131e-05 0)
(0.223668 -4.42836e-05 0)
(0.223674 -3.9166e-05 0)
(0.22368 -3.4515e-05 0)
(0.223685 -3.03054e-05 0)
(0.22369 -2.6651e-05 0)
(0.223693 -2.34047e-05 0)
(0.223697 -2.0449e-05 0)
(0.223699 -1.80111e-05 0)
(0.223702 -1.58745e-05 0)
(0.223705 -1.40558e-05 0)
(0.223707 -1.23386e-05 0)
(0.223709 -1.08215e-05 0)
(0.223711 -9.54977e-06 0)
(0.223713 -8.53504e-06 0)
(0.223714 -7.77778e-06 0)
(0.223715 -7.15775e-06 0)
(0.223716 -6.56167e-06 0)
(0.223717 -6.03818e-06 0)
(0.223718 -5.55179e-06 0)
(0.223719 -5.14924e-06 0)
(0.22372 -4.70514e-06 0)
(0.223721 -3.91698e-06 0)
(0.223722 -3.31483e-06 0)
(0.223723 -2.74456e-06 0)
(0.223723 -2.47255e-06 0)
(0.223723 -2.2879e-06 0)
(0.223723 -2.1924e-06 0)
(0.223723 -2.13038e-06 0)
(0.223723 -2.01164e-06 0)
(0.223723 -1.80018e-06 0)
(0.223723 -1.50596e-06 0)
(0.223724 -1.3498e-06 0)
(0.223724 -1.26158e-06 0)
(0.223725 -1.04069e-06 0)
(0.223725 -7.88015e-07 0)
(0.223725 -4.81509e-07 0)
(0.223725 -3.40763e-07 0)
(0.223725 -2.67677e-07 0)
(0.223725 -1.48243e-07 0)
(0.223724 -1.26474e-07 0)
(0.223724 -1.18145e-07 0)
(0.223724 -2.35546e-07 0)
(0.223724 -4.36878e-07 0)
(0.223724 -5.97286e-07 0)
(0.223724 -7.235e-07 0)
(0.223725 -7.6639e-07 0)
(0.223725 -6.22109e-07 0)
(0.223726 -3.38101e-07 0)
(0.223727 -3.45215e-07 0)
(0.223727 -4.5879e-07 0)
(0.223726 -3.873e-07 0)
(0.223726 -2.46714e-07 0)
(0.223725 3.60898e-08 0)
(0.223725 1.56977e-07 0)
(0.223724 1.20732e-07 0)
(0.223724 3.09278e-07 0)
(0.223723 3.46803e-07 0)
(0.223723 2.85031e-07 0)
(0.223723 1.54906e-07 0)
(0.223723 2.03014e-08 0)
(0.223723 4.69537e-08 0)
(0.223723 3.54103e-07 0)
(0.223724 4.26819e-07 0)
(0.223724 3.25081e-07 0)
(0.223724 3.78588e-07 0)
(0.223723 4.50878e-07 0)
(0.223723 4.29984e-07 0)
(0.223723 2.83675e-07 0)
(0.223722 2.98635e-08 0)
(0.223722 -9.8601e-08 0)
(0.223721 -1.57378e-07 0)
(0.223721 -1.64762e-07 0)
(0.223721 -1.39222e-07 0)
(0.223721 -9.66877e-08 0)
(0.223721 1.43845e-08 0)
(0.223721 1.08203e-07 0)
(0.223722 1.86082e-07 0)
(0.223722 2.12195e-07 0)
(0.223722 1.55198e-07 0)
(0.223723 7.19649e-08 0)
(0.223723 8.2341e-09 0)
(0.223723 -6.28705e-08 0)
(0.223723 -1.38222e-07 0)
(0.223723 -2.1336e-07 0)
(0.223724 -2.7952e-07 0)
(0.223724 -2.89917e-07 0)
(0.223724 -2.64093e-07 0)
(0.223724 -2.26685e-07 0)
(0.223724 -1.75772e-07 0)
(0.223724 -1.15957e-07 0)
(0.223724 -5.65185e-08 0)
(0.223725 -7.35015e-09 0)
(0.223725 7.45028e-09 0)
(0.223725 2.77926e-08 0)
(0.223725 5.91139e-08 0)
(0.223725 7.72209e-08 0)
(0.223725 6.30989e-08 0)
(0.223725 1.47987e-08 0)
(0.223725 -5.10128e-08 0)
(0.223725 -1.19166e-07 0)
(0.223725 -1.88789e-07 0)
(0.223725 -2.25354e-07 0)
(0.223725 -1.85896e-07 0)
(0.223726 -1.51861e-07 0)
(0.223726 -1.15827e-07 0)
(0.223726 -6.50292e-08 0)
(0.223726 -5.53522e-08 0)
(0.223726 -7.43729e-08 0)
(0.223727 -4.88336e-08 0)
(0.223727 -3.93162e-09 0)
(0.223726 6.55266e-08 0)
(0.223726 1.28429e-07 0)
(0.223726 2.05691e-07 0)
(0.223726 3.07874e-07 0)
(0.223726 4.06673e-07 0)
(0.223726 4.63035e-07 0)
(0.223726 5.007e-07 0)
(0.223725 5.6139e-07 0)
(0.223725 6.56943e-07 0)
(0.223725 7.89844e-07 0)
(0.223725 9.68651e-07 0)
(0.223725 1.17291e-06 0)
(0.223725 1.39857e-06 0)
(0.223725 1.64835e-06 0)
(0.223725 1.91754e-06 0)
(0.223725 2.18272e-06 0)
(0.223725 2.46895e-06 0)
(0.223725 2.79871e-06 0)
(0.223725 3.21664e-06 0)
(0.223724 3.70164e-06 0)
(0.223724 4.24528e-06 0)
(0.223723 4.86475e-06 0)
(0.223722 5.58708e-06 0)
(0.223721 6.45846e-06 0)
(0.223719 7.43059e-06 0)
(0.223717 8.50206e-06 0)
(0.223715 9.741e-06 0)
(0.223713 1.11859e-05 0)
(0.223711 1.28758e-05 0)
(0.223708 1.48548e-05 0)
(0.223704 1.71675e-05 0)
(0.2237 1.98796e-05 0)
(0.223696 2.30721e-05 0)
(0.223691 2.6836e-05 0)
(0.223686 3.12587e-05 0)
(0.22368 3.64916e-05 0)
(0.223673 4.26795e-05 0)
(0.223665 5.00123e-05 0)
(0.223656 5.87305e-05 0)
(0.223645 6.91485e-05 0)
(0.223633 8.1646e-05 0)
(0.223619 9.66947e-05 0)
(0.223603 0.000114906 0)
(0.223584 0.000136994 0)
(0.223563 0.000163802 0)
(0.223539 0.000196371 0)
(0.223511 0.000235983 0)
(0.223479 0.000284271 0)
(0.223444 0.000343012 0)
(0.223405 0.00041376 0)
(0.223363 0.00049818 0)
(0.223317 0.000597467 0)
(0.22327 0.000712098 0)
(0.223225 0.000841085 0)
(0.223188 0.000980683 0)
(0.223152 0.00112351 0)
(0.22307 0.00125398 0)
(0.22288 0.00134247 0)
(0.223342 0.00134841 0)
(0.208662 0.000932192 0)
(0.289294 0.00411591 0)
(0.237159 0.0069863 0)
(0.211176 0.0093874 0)
(0.216997 0.0118174 0)
(0.225245 0.0145019 0)
(0.226658 0.0171737 0)
(0.225858 0.0192963 0)
(0.225904 0.0203344 0)
(0.226531 0.019991 0)
(0.226968 0.0183372 0)
(0.227064 0.0157913 0)
(0.227005 0.0129671 0)
(0.226892 0.0104737 0)
(0.226736 0.00876486 0)
(0.226542 0.0080752 0)
(0.226341 0.00843777 0)
(0.226169 0.00975135 0)
(0.226054 0.0118633 0)
(0.226019 0.0146421 0)
(0.226093 0.0180245 0)
(0.226324 0.0220393 0)
(0.226849 0.0268181 0)
(0.227912 0.0325283 0)
(0.22984 0.039173 0)
(0.233018 0.0465272 0)
(0.237962 0.0544368 0)
(0.245512 0.0622952 0)
(0.256011 0.0659538 0)
(0.266826 0.0560142 0)
(0.274907 0.0320964 0)
(0.275463 0.00465748 0)
(0.270714 -0.0180459 0)
(0.263103 -0.0312724 0)
(0.25442 -0.0333048 0)
(0.247009 -0.0283179 0)
(0.243617 -0.0206803 0)
(0.243168 -0.0145906 0)
(0.242119 -0.0120877 0)
(0.240471 -0.0121078 0)
(0.23989 -0.0130599 0)
(0.23951 -0.0135516 0)
(0.239 -0.0128171 0)
(0.238651 -0.0114039 0)
(0.238495 -0.00986909 0)
(0.238501 -0.00842296 0)
(0.238588 -0.00715942 0)
(0.238726 -0.00607927 0)
(0.238891 -0.00516985 0)
(0.239069 -0.00440685 0)
(0.239249 -0.00376623 0)
(0.239424 -0.00322693 0)
(0.239589 -0.00277123 0)
(0.239743 -0.002385 0)
(0.239885 -0.00205721 0)
(0.240015 -0.0017787 0)
(0.240133 -0.00154117 0)
(0.240241 -0.00133795 0)
(0.240338 -0.00116317 0)
(0.240425 -0.00101231 0)
(0.240502 -0.000882001 0)
(0.240571 -0.000769288 0)
(0.240632 -0.000671656 0)
(0.240687 -0.000586992 0)
(0.240736 -0.000513549 0)
(0.240779 -0.000449721 0)
(0.240818 -0.000394176 0)
(0.240852 -0.00034571 0)
(0.240883 -0.000303336 0)
(0.24091 -0.000266112 0)
(0.240934 -0.000233633 0)
(0.240955 -0.000205161 0)
(0.240974 -0.000180198 0)
(0.24099 -0.000158286 0)
(0.241004 -0.000139001 0)
(0.241016 -0.000122048 0)
(0.241028 -0.000107183 0)
(0.241038 -9.41681e-05 0)
(0.241047 -8.27153e-05 0)
(0.241055 -7.27044e-05 0)
(0.241062 -6.41055e-05 0)
(0.241068 -5.65579e-05 0)
(0.241073 -4.99856e-05 0)
(0.241078 -4.43528e-05 0)
(0.241082 -3.94046e-05 0)
(0.241085 -3.49313e-05 0)
(0.241089 -3.08076e-05 0)
(0.241092 -2.71334e-05 0)
(0.241094 -2.37995e-05 0)
(0.241097 -2.09051e-05 0)
(0.241099 -1.83808e-05 0)
(0.241101 -1.62214e-05 0)
(0.241103 -1.43947e-05 0)
(0.241105 -1.29023e-05 0)
(0.241106 -1.16825e-05 0)
(0.241107 -1.06886e-05 0)
(0.241108 -9.82038e-06 0)
(0.241109 -8.97398e-06 0)
(0.241109 -8.06687e-06 0)
(0.24111 -7.20382e-06 0)
(0.241111 -6.32881e-06 0)
(0.241113 -5.73957e-06 0)
(0.241114 -4.90829e-06 0)
(0.241115 -4.19274e-06 0)
(0.241115 -3.70873e-06 0)
(0.241116 -3.40207e-06 0)
(0.241116 -3.24082e-06 0)
(0.241116 -3.12282e-06 0)
(0.241115 -3.0051e-06 0)
(0.241115 -2.7779e-06 0)
(0.241115 -2.49051e-06 0)
(0.241116 -2.1887e-06 0)
(0.241116 -1.90873e-06 0)
(0.241117 -1.66032e-06 0)
(0.241117 -1.40858e-06 0)
(0.241117 -1.17213e-06 0)
(0.241117 -9.40032e-07 0)
(0.241117 -8.57071e-07 0)
(0.241117 -5.41118e-07 0)
(0.241116 -3.70184e-07 0)
(0.241116 -4.4084e-07 0)
(0.241116 -5.54148e-07 0)
(0.241116 -7.00409e-07 0)
(0.241116 -8.67577e-07 0)
(0.241116 -9.83025e-07 0)
(0.241117 -1.06382e-06 0)
(0.241117 -1.10584e-06 0)
(0.241118 -1.0745e-06 0)
(0.241119 -1.03904e-06 0)
(0.241119 -8.72234e-07 0)
(0.241119 -7.51655e-07 0)
(0.241119 -6.15578e-07 0)
(0.241118 -4.34515e-07 0)
(0.241117 -2.42978e-07 0)
(0.241117 -1.01099e-07 0)
(0.241116 -9.52464e-09 0)
(0.241115 6.921e-08 0)
(0.241115 1.05379e-07 0)
(0.241115 8.14715e-08 0)
(0.241115 2.95094e-08 0)
(0.241115 -3.79202e-09 0)
(0.241115 3.28661e-09 0)
(0.241116 1.18416e-07 0)
(0.241116 2.29177e-07 0)
(0.241116 2.74993e-07 0)
(0.241116 3.16134e-07 0)
(0.241116 2.9429e-07 0)
(0.241116 2.36811e-07 0)
(0.241115 1.21533e-07 0)
(0.241115 2.04944e-08 0)
(0.241114 -5.30806e-08 0)
(0.241114 -1.00692e-07 0)
(0.241113 -1.14629e-07 0)
(0.241113 -1.09696e-07 0)
(0.241113 -8.97183e-08 0)