/*--------------------------------*- C++ -*----------------------------------*\
| =========                 |                                                 |
| \\      /  F ield         | OpenFOAM: The Open Source CFD Toolbox           |
|  \\    /   O peration     | Version:  2406                                  |
|   \\  /    A nd           | Website:  www.openfoam.com                      |
|    \\/     M anipulation  |                                                 |
\*---------------------------------------------------------------------------*/
FoamFile
{
    version     2.0;
    format      ascii;
    arch        "LSB;label=32;scalar=64";
    class       surfaceScalarField;
    location    "1.2";
    object      alphaPhi0.air;
}
// * * * * * * * * * * * * * * * * * * * * * * * * * * * * * * * * * * * * * //

dimensions      [0 3 -1 0 0 0 0];

oriented        oriented;

internalField   nonuniform List<scalar> 
12225
(
0.509918
2.12617e-06
0.509912
6.13779e-06
0.509904
7.31115e-06
0.509899
5.73382e-06
0.509894
4.81587e-06
0.509889
4.76675e-06
0.509884
4.82253e-06
0.509879
5.35708e-06
0.509873
5.51984e-06
0.509868
5.12025e-06
0.509863
5.18377e-06
0.509857
5.6662e-06
0.509851
6.36069e-06
0.509845
6.43851e-06
0.509838
6.36698e-06
0.509832
6.6495e-06
0.509825
6.49657e-06
0.509819
6.11975e-06
0.509813
5.79482e-06
0.509808
5.4759e-06
0.509803
4.86308e-06
0.509798
4.28536e-06
0.509794
4.29352e-06
0.509789
4.83895e-06
0.509784
5.35478e-06
0.509779
5.39087e-06
0.509773
5.24185e-06
0.509768
5.39285e-06
0.509762
5.56633e-06
0.509757
5.43545e-06
0.509751
5.65046e-06
0.509745
6.00139e-06
0.50974
5.66404e-06
0.509735
4.93903e-06
0.50973
4.49814e-06
0.509726
4.64895e-06
0.509721
5.0096e-06
0.509715
5.20994e-06
0.50971
5.38066e-06
0.509704
5.66431e-06
0.509698
5.99962e-06
0.509692
6.11253e-06
0.509686
5.90232e-06
0.509681
5.55546e-06
0.509675
5.23666e-06
0.50967
5.14883e-06
0.509665
5.33088e-06
0.509659
5.67266e-06
0.509653
5.87573e-06
0.509648
5.62154e-06
0.509643
5.2925e-06
0.509637
5.23868e-06
0.509632
5.16072e-06
0.509627
4.99466e-06
0.509622
5.0309e-06
0.509617
5.39472e-06
0.509611
5.8636e-06
0.509605
6.08997e-06
0.509599
5.92118e-06
0.509594
5.27941e-06
0.509589
4.4607e-06
0.509585
4.14544e-06
0.50958
4.5212e-06
0.509575
5.15852e-06
0.50957
5.74634e-06
0.509563
6.05403e-06
0.509558
5.96668e-06
0.509552
5.60669e-06
0.509547
5.24703e-06
0.509541
5.1667e-06
0.509536
5.39871e-06
0.50953
5.74409e-06
0.509524
6.03574e-06
0.509518
6.09135e-06
0.509512
5.75323e-06
0.509507
5.20185e-06
0.509502
4.84378e-06
0.509498
4.80176e-06
0.509493
4.95926e-06
0.509487
5.29682e-06
0.509482
5.66176e-06
0.509476
5.79418e-06
0.50947
5.68902e-06
0.509465
5.43893e-06
0.50946
5.12168e-06
0.509455
4.89889e-06
0.50945
4.83213e-06
0.509445
4.93878e-06
0.50944
5.26986e-06
0.509434
5.65836e-06
0.509428
5.85048e-06
0.509422
5.83169e-06
0.509417
5.68638e-06
0.509411
5.45304e-06
0.509406
5.20691e-06
0.509401
5.05504e-06
0.509396
5.04085e-06
0.509391
5.09122e-06
0.509386
5.1465e-06
0.50938
5.26893e-06
0.509375
5.4785e-06
0.509369
5.62105e-06
0.509364
5.60853e-06
0.509358
5.56735e-06
0.509353
5.57655e-06
0.509347
5.57035e-06
0.509341
5.53788e-06
0.509336
5.5143e-06
0.50933
5.47532e-06
0.509325
5.374e-06
0.50932
5.22452e-06
0.509315
5.10576e-06
0.50931
5.05649e-06
0.509305
5.08647e-06
0.509299
5.24845e-06
0.509294
5.49547e-06
0.509288
5.62307e-06
0.509283
5.54544e-06
0.509277
5.40697e-06
0.509272
5.31065e-06
0.509267
5.22399e-06
0.509262
5.17593e-06
0.509256
5.2243e-06
0.509251
5.29185e-06
0.509246
5.30299e-06
0.50924
5.31228e-06
0.509235
5.39454e-06
0.50923
5.52644e-06
0.509224
5.62689e-06
0.509218
5.68314e-06
0.509212
5.73793e-06
0.509207
5.76418e-06
0.509201
5.69891e-06
0.509195
5.58645e-06
0.50919
5.53915e-06
0.509184
5.53066e-06
0.509179
5.47572e-06
0.509173
5.46082e-06
0.509168
5.58468e-06
0.509162
5.76737e-06
0.509156
5.88596e-06
0.50915
5.87801e-06
0.509145
5.73897e-06
0.509139
5.49081e-06
0.509134
5.26149e-06
0.509129
5.26948e-06
0.509123
5.48802e-06
0.509117
5.70737e-06
0.509112
5.84477e-06
0.509106
5.835e-06
0.5091
5.59943e-06
0.509095
5.22252e-06
0.50909
4.92757e-06
0.509085
4.9527e-06
0.50908
5.32949e-06
0.509074
5.874e-06
0.509067
6.35334e-06
0.509061
6.5253e-06
0.509055
6.26326e-06
0.509049
5.7213e-06
0.509044
5.23509e-06
0.509039
4.99693e-06
0.509034
4.91445e-06
0.509029
4.92968e-06
0.509024
5.14545e-06
0.509018
5.48652e-06
0.509012
5.73208e-06
0.509007
5.82991e-06
0.509001
5.8159e-06
0.508995
5.70035e-06
0.50899
5.58926e-06
0.508984
5.58819e-06
0.508978
5.58673e-06
0.508973
5.41741e-06
0.508968
5.09044e-06
0.508963
4.74281e-06
0.508959
4.5649e-06
0.508954
4.68723e-06
0.508949
5.05851e-06
0.508943
5.51974e-06
0.508937
5.83458e-06
0.508932
5.7737e-06
0.508926
5.38244e-06
0.508921
4.98044e-06
0.508917
4.80522e-06
0.508912
4.81308e-06
0.508907
4.87213e-06
0.508902
4.95919e-06
0.508897
5.0604e-06
0.508892
5.16032e-06
0.508886
5.29047e-06
0.508881
5.38567e-06
0.508876
5.32322e-06
0.508871
5.14319e-06
0.508866
4.99973e-06
0.508861
5.00472e-06
0.508855
5.13632e-06
0.50885
5.23898e-06
0.508845
5.18971e-06
0.50884
5.01117e-06
0.508835
4.82746e-06
0.50883
4.7982e-06
0.508825
5.00536e-06
0.50882
5.34212e-06
0.508814
5.59033e-06
0.508809
5.61018e-06
0.508803
5.40588e-06
0.508798
5.08551e-06
0.508793
4.83053e-06
0.508789
4.82195e-06
0.508784
5.07156e-06
0.508778
5.37691e-06
0.508773
5.59142e-06
0.508767
5.80106e-06
0.508761
6.03359e-06
0.508755
6.10216e-06
0.508749
5.91185e-06
0.508743
5.63582e-06
0.508738
5.51667e-06
0.508732
5.62689e-06
0.508726
5.84999e-06
0.50872
6.02455e-06
0.508714
6.03145e-06
0.508708
5.84495e-06
0.508703
5.56894e-06
0.508697
5.38456e-06
0.508692
5.46534e-06
0.508686
5.80412e-06
0.50868
6.19086e-06
0.508673
6.42486e-06
0.508667
6.38054e-06
0.508661
6.02045e-06
0.508655
5.54963e-06
0.50865
5.30331e-06
0.508645
5.40813e-06
0.508639
5.7045e-06
0.508633
5.90684e-06
0.508627
5.92637e-06
0.508621
5.91659e-06
0.508615
5.91127e-06
0.50861
5.7728e-06
0.508604
5.54961e-06
0.508599
5.48642e-06
0.508593
5.69587e-06
0.508587
5.93861e-06
0.508581
5.92734e-06
0.508575
5.7534e-06
0.50857
5.52687e-06
0.508564
5.75569e-06
5.23004e-06
0.509924
-1.72352e-07
0.509929
5.75041e-07
0.509935
1.4035e-06
0.509939
1.86849e-06
0.509942
2.47425e-06
0.509943
3.09985e-06
0.509945
3.06013e-06
0.509948
2.01384e-06
0.509952
1.62787e-06
0.509955
2.08742e-06
0.509958
2.7409e-06
0.50996
2.97306e-06
0.509964
2.63475e-06
0.509968
2.38424e-06
0.509973
2.03197e-06
0.509977
1.74342e-06
0.509982
2.219e-06
0.509986
2.30203e-06
0.509989
1.93496e-06
0.509993
2.31855e-06
0.509994
2.92789e-06
0.509996
2.87419e-06
0.509998
2.27475e-06
0.510001
1.71072e-06
0.510005
1.61516e-06
0.510008
2.3386e-06
0.51001
3.38338e-06
0.510012
3.45715e-06
0.510014
2.89808e-06
0.510017
2.37231e-06
0.510021
2.07928e-06
0.510024
2.45667e-06
0.510027
2.70578e-06
0.51003
2.33125e-06
0.510032
2.17993e-06
0.510034
2.56842e-06
0.510037
2.83226e-06
0.510039
2.58525e-06
0.510042
2.26286e-06
0.510046
2.17738e-06
0.51005
2.30239e-06
0.510053
2.47097e-06
0.510057
2.54403e-06
0.510059
2.69455e-06
0.510062
3.06647e-06
0.510063
3.33637e-06
0.510066
3.04385e-06
0.510069
2.33298e-06
0.510073
2.00943e-06
0.510076
2.26373e-06
0.510079
2.73501e-06
0.510081
3.22866e-06
0.510083
3.25743e-06
0.510085
2.60559e-06
0.510088
1.84057e-06
0.510092
1.6936e-06
0.510096
2.27165e-06
0.510099
2.85663e-06
0.510102
3.14163e-06
0.510104
3.30344e-06
0.510105
3.14071e-06
0.510106
2.66114e-06
0.510109
2.27675e-06
0.510112
2.0979e-06
0.510115
2.10488e-06
0.510119
2.26346e-06
0.510123
2.34262e-06
0.510126
2.1951e-06
0.510129
1.97058e-06
0.510133
2.04655e-06
0.510135
2.57271e-06
0.510138
3.11678e-06
0.510141
3.23027e-06
0.510144
2.99055e-06
0.510147
2.65998e-06
0.51015
2.33063e-06
0.510153
2.12913e-06
0.510155
2.1222e-06
0.510158
2.04956e-06
0.510162
1.88418e-06
0.510165
1.93711e-06
0.510169
2.24429e-06
0.510172
2.59079e-06
0.510175
2.76918e-06
0.510177
2.64585e-06
0.51018
2.36602e-06
0.510182
2.18146e-06
0.510185
2.12652e-06
0.510188
2.21341e-06
0.510191
2.47672e-06
0.510194
2.72655e-06
0.510198
2.7768e-06
0.510201
2.68945e-06
0.510203
2.57884e-06
0.510206
2.43283e-06
0.510209
2.28784e-06
0.510212
2.28307e-06
0.510214
2.38439e-06
0.510217
2.40869e-06
0.51022
2.35569e-06
0.510223
2.41458e-06
0.510226
2.62245e-06
0.510229
2.76223e-06
0.510232
2.7338e-06
0.510235
2.66278e-06
0.510238
2.6164e-06
0.510241
2.57905e-06
0.510244
2.55607e-06
0.510247
2.52769e-06
0.510249
2.44435e-06
0.510252
2.30611e-06
0.510255
2.23378e-06
0.510258
2.33031e-06
0.510261
2.5018e-06
0.510263
2.65045e-06
0.510266
2.8274e-06
0.510268
2.98361e-06
0.510271
2.92154e-06
0.510274
2.65205e-06
0.510277
2.41109e-06
0.51028
2.29948e-06
0.510283
2.28753e-06
0.510285
2.4228e-06
0.510288
2.66219e-06
0.51029
2.82254e-06
0.510293
2.82092e-06
0.510296
2.73976e-06
0.510298
2.68826e-06
0.510301
2.6433e-06
0.510305
2.51436e-06
0.510308
2.3407e-06
0.510312
2.22667e-06
0.510315
2.15641e-06
0.510319
2.07072e-06
0.510322
2.09513e-06
0.510325
2.37947e-06
0.510328
2.75604e-06
0.51033
2.96101e-06
0.510333
2.96538e-06
0.510336
2.81977e-06
0.510339
2.58624e-06
0.510343
2.41543e-06
0.510346
2.428e-06
0.510349
2.54986e-06
0.510352
2.5718e-06
0.510354
2.50882e-06
0.510357
2.51601e-06
0.510361
2.54959e-06
0.510364
2.5553e-06
0.510367
2.60021e-06
0.51037
2.67851e-06
0.510373
2.69309e-06
0.510375
2.55363e-06
0.510378
2.32059e-06
0.510381
2.13579e-06
0.510385
2.07192e-06
0.510389
2.2315e-06
0.510393
2.63339e-06
0.510396
3.02796e-06
0.510398
3.13043e-06
0.510401
2.92411e-06
0.510403
2.65244e-06
0.510406
2.44845e-06
0.510408
2.24518e-06
0.510411
2.10088e-06
0.510415
2.13725e-06
0.510418
2.28064e-06
0.510421
2.40993e-06
0.510425
2.47692e-06
0.510428
2.41094e-06
0.510431
2.21018e-06
0.510435
2.07992e-06
0.510438
2.19645e-06
0.510441
2.4946e-06
0.510444
2.7916e-06
0.510445
2.90814e-06
0.510447
2.75984e-06
0.510449
2.44252e-06
0.510452
2.09451e-06
0.510456
1.87744e-06
0.51046
1.98359e-06
0.510463
2.3707e-06
0.510466
2.70693e-06
0.510468
2.79414e-06
0.51047
2.7515e-06
0.510472
2.70659e-06
0.510475
2.61121e-06
0.510477
2.47014e-06
0.51048
2.36379e-06
0.510483
2.27658e-06
0.510486
2.22635e-06
0.510489
2.31576e-06
0.510492
2.49653e-06
0.510494
2.58417e-06
0.510497
2.50304e-06
0.510499
2.36873e-06
0.510502
2.34672e-06
0.510505
2.49162e-06
0.510507
2.72406e-06
0.510509
2.91219e-06
0.510511
2.92541e-06
0.510513
2.72139e-06
0.510516
2.42421e-06
0.510519
2.22786e-06
0.510522
2.22304e-06
0.510526
2.39501e-06
0.510528
2.66379e-06
0.510531
2.8517e-06
0.510533
2.78705e-06
0.510535
2.54276e-06
0.510538
2.37611e-06
0.510541
2.37341e-06
0.510544
2.37838e-06
0.510547
2.34291e-06
0.510551
2.43523e-06
0.510554
2.70124e-06
0.510557
2.93251e-06
0.51056
2.91594e-06
0.510563
2.65262e-06
0.510566
2.33281e-06
0.51057
2.14745e-06
0.510574
2.17314e-06
0.510577
2.39123e-06
0.510581
2.7131e-06
0.510583
2.9579e-06
0.510586
2.92758e-06
0.510588
2.66879e-06
0.510592
2.41606e-06
0.510596
2.30232e-06
0.5106
2.39505e-06
0.510603
2.74402e-06
0.510606
3.11361e-06
0.510609
3.14155e-06
0.510611
2.81221e-06
0.510614
2.4374e-06
0.510618
2.26563e-06
0.510621
2.25976e-06
0.510625
2.24851e-06
0.510629
2.25485e-06
0.510632
2.44401e-06
0.510635
2.70485e-06
0.510638
2.69118e-06
0.510641
2.35846e-06
0.510645
2.07491e-06
0.510648
2.14555e-06
0.510652
2.44006e-06
0.510655
2.71873e-06
0.510658
2.8699e-06
0.510661
2.82659e-06
2.84352e-06
0.509922
4.56845e-07
0.509921
1.77857e-06
0.50992
1.8642e-06
0.50992
1.6651e-06
0.509921
1.5019e-06
0.509923
1.12578e-06
0.509925
1.75582e-06
0.509924
2.77693e-06
0.509923
2.92664e-06
0.509922
2.51912e-06
0.509923
1.87866e-06
0.509924
1.85159e-06
0.509924
2.27581e-06
0.509924
2.50159e-06
0.509924
2.62206e-06
0.509923
2.21398e-06
0.509924
1.81342e-06
0.509924
1.71956e-06
0.509925
1.54285e-06
0.509925
1.5089e-06
0.509927
1.73144e-06
0.509927
2.25882e-06
0.509927
2.66954e-06
0.509926
2.61957e-06
0.509925
2.56661e-06
0.509925
2.15299e-06
0.509927
1.53075e-06
0.509929
1.59055e-06
0.50993
2.25173e-06
0.509929
2.90091e-06
0.509928
2.73109e-06
0.509929
2.13603e-06
0.509929
2.10513e-06
0.509929
2.57878e-06
0.509928
2.75737e-06
0.509928
2.56199e-06
0.509929
2.46035e-06
0.509929
2.49321e-06
0.509929
2.56301e-06
0.509928
2.61848e-06
0.509928
2.29052e-06
0.509929
1.61066e-06
0.50993
1.24974e-06
0.509932
1.53413e-06
0.509932
2.0887e-06
0.509933
2.46304e-06
0.509934
2.40197e-06
0.509934
1.92682e-06
0.509935
1.59189e-06
0.509935
1.72911e-06
0.509936
1.97199e-06
0.509937
2.19314e-06
0.509938
2.36611e-06
0.509938
2.2939e-06
0.509938
2.01744e-06
0.509938
1.83665e-06
0.509938
2.05788e-06
0.509939
2.38886e-06
0.50994
2.36559e-06
0.509941
2.14752e-06
0.509942
1.99979e-06
0.509942
2.09387e-06
0.509942
2.5804e-06
0.509941
3.12231e-06
0.50994
3.18885e-06
0.50994
2.69035e-06
0.50994
2.07408e-06
0.50994
1.85757e-06
0.50994
2.03051e-06
0.50994
2.29908e-06
0.50994
2.52098e-06
0.50994
2.61043e-06
0.509941
2.48319e-06
0.509942
2.24303e-06
0.509942
2.09367e-06
0.509943
2.03977e-06
0.509943
2.03855e-06
0.509943
2.23093e-06
0.509942
2.5271e-06
0.509941
2.65269e-06
0.509941
2.63985e-06
0.50994
2.6151e-06
0.50994
2.55909e-06
0.509941
2.45793e-06
0.509941
2.26286e-06
0.509941
2.0123e-06
0.509942
1.93009e-06
0.509942
2.06434e-06
0.509942
2.25682e-06
0.509942
2.44561e-06
0.509942
2.5826e-06
0.509942
2.57722e-06
0.509942
2.46036e-06
0.509943
2.37013e-06
0.509943
2.30609e-06
0.509943
2.16316e-06
0.509943
2.06011e-06
0.509943
2.20335e-06
0.509943
2.49137e-06
0.509943
2.63678e-06
0.509943
2.57064e-06
0.509943
2.45738e-06
0.509943
2.38866e-06
0.509944
2.34279e-06
0.509944
2.35301e-06
0.509944
2.41158e-06
0.509944
2.41009e-06
0.509945
2.28244e-06
0.509945
2.07001e-06
0.509946
1.86449e-06
0.509946
1.72296e-06
0.509947
1.73772e-06
0.509947
2.01467e-06
0.509947
2.40022e-06
0.509947
2.57754e-06
0.509948
2.46619e-06
0.509948
2.25332e-06
0.509949
2.06483e-06
0.50995
1.92807e-06
0.50995
1.92826e-06
0.509951
2.07304e-06
0.509951
2.1751e-06
0.509951
2.13804e-06
0.509952
2.04885e-06
0.509952
1.9549e-06
0.509953
1.84858e-06
0.509954
1.77817e-06
0.509955
1.87485e-06
0.509956
2.17113e-06
0.509956
2.46933e-06
0.509955
2.57189e-06
0.509955
2.51888e-06
0.509955
2.42965e-06
0.509955
2.2822e-06
0.509955
2.08334e-06
0.509955
2.02319e-06
0.509956
2.18372e-06
0.509956
2.41523e-06
0.509957
2.58557e-06
0.509957
2.62559e-06
0.509957
2.46886e-06
0.509957
2.13185e-06
0.509958
1.84544e-06
0.509958
1.87907e-06
0.509959
2.14691e-06
0.509959
2.40101e-06
0.509959
2.57681e-06
0.509959
2.60464e-06
0.509959
2.40488e-06
0.509959
2.08552e-06
0.50996
1.83533e-06
0.509961
1.76077e-06
0.509962
1.84118e-06
0.509962
2.02619e-06
0.509962
2.27108e-06
0.509962
2.43523e-06
0.509962
2.4382e-06
0.509962
2.39463e-06
0.509962
2.41665e-06
0.509963
2.44411e-06
0.509964
2.34233e-06
0.509964
2.16742e-06
0.509965
2.08115e-06
0.509965
2.03168e-06
0.509965
1.94567e-06
0.509965
1.9474e-06
0.509965
2.09842e-06
0.509965
2.33092e-06
0.509965
2.6213e-06
0.509965
2.89271e-06
0.509964
2.92717e-06
0.509963
2.65494e-06
0.509963
2.28651e-06
0.509964
2.04837e-06
0.509965
2.06457e-06
0.509965
2.29654e-06
0.509965
2.54942e-06
0.509965
2.69484e-06
0.509965
2.68946e-06
0.509964
2.50813e-06
0.509964
2.28022e-06
0.509964
2.22462e-06
0.509964
2.33703e-06
0.509964
2.43723e-06
0.509965
2.48677e-06
0.509965
2.55942e-06
0.509965
2.58474e-06
0.509965
2.47004e-06
0.509965
2.29062e-06
0.509965
2.11237e-06
0.509965
1.9393e-06
0.509966
1.85719e-06
0.509966
1.9425e-06
0.509967
2.13529e-06
0.509967
2.3013e-06
0.509967
2.35366e-06
0.509967
2.31444e-06
0.509967
2.26445e-06
0.509968
2.26775e-06
0.509968
2.35648e-06
0.509969
2.4981e-06
0.509969
2.57917e-06
0.509969
2.5122e-06
0.509969
2.32549e-06
0.509969
2.09844e-06
0.509969
1.91206e-06
0.50997
1.88056e-06
0.509971
2.05246e-06
0.509971
2.27835e-06
0.509972
2.36548e-06
0.509972
2.34302e-06
0.509972
2.36968e-06
0.509972
2.40697e-06
0.509972
2.29148e-06
0.509972
2.07385e-06
0.509973
1.97191e-06
0.509974
2.07686e-06
0.509974
2.28515e-06
0.509974
2.44679e-06
0.509974
2.49459e-06
0.509974
2.43181e-06
0.509974
2.29256e-06
0.509974
2.16005e-06
0.509975
2.15171e-06
0.509975
2.34453e-06
0.509976
2.62357e-06
0.509975
2.78153e-06
0.509975
2.75822e-06
0.509975
2.57141e-06
0.509975
2.2597e-06
0.509976
2.04728e-06
0.509977
2.1326e-06
0.509977
2.38612e-06
0.509978
2.53951e-06
0.509978
2.48907e-06
0.509978
2.3616e-06
0.509978
2.30557e-06
0.509978
2.24121e-06
0.509978
2.05973e-06
0.509978
1.93647e-06
0.509979
2.09147e-06
0.509979
2.41434e-06
0.509979
2.54439e-06
0.509979
2.3648e-06
0.509979
2.14217e-06
0.509979
2.04266e-06
0.50998
2.00586e-06
0.509981
2.03763e-06
0.509981
2.12319e-06
2.23747e-06
0.509924
-3.21919e-07
0.509925
1.3447e-07
0.509926
7.5768e-07
0.509927
1.30406e-06
0.509927
1.45565e-06
0.509926
1.5424e-06
0.509926
1.76386e-06
0.509927
1.96313e-06
0.509928
1.86297e-06
0.509929
1.75583e-06
0.509929
1.81421e-06
0.509929
1.92085e-06
0.509929
2.08284e-06
0.509929
2.15538e-06
0.50993
2.40485e-06
0.509929
2.65052e-06
0.509928
2.58516e-06
0.509928
2.59906e-06
0.509927
2.39787e-06
0.509926
2.0813e-06
0.509926
2.08212e-06
0.509926
2.18922e-06
0.509926
2.30734e-06
0.509927
2.20795e-06
0.509927
1.8475e-06
0.509928
1.76475e-06
0.509928
1.61128e-06
0.509928
1.32614e-06
0.509929
1.21297e-06
0.509931
1.33724e-06
0.509932
1.49591e-06
0.509932
1.81433e-06
0.509932
2.45461e-06
0.509931
2.81398e-06
0.509932
2.45366e-06
0.509932
1.96956e-06
0.509933
2.0491e-06
0.509933
2.47597e-06
0.509933
2.56573e-06
0.509933
2.24583e-06
0.509933
2.01525e-06
0.509933
2.06359e-06
0.509932
2.22908e-06
0.509931
2.36625e-06
0.509931
2.28065e-06
0.509931
1.97772e-06
0.509932
1.7558e-06
0.509932
1.77805e-06
0.509932
2.19262e-06
0.509931
2.79498e-06
0.50993
2.6838e-06
0.50993
1.79643e-06
0.509932
1.12027e-06
0.509933
1.27383e-06
0.509933
1.93285e-06
0.509932
2.41133e-06
0.509932
2.56104e-06
0.509931
2.4695e-06
0.509932
2.03132e-06
0.509932
1.55542e-06
0.509933
1.35962e-06
0.509934
1.35311e-06
0.509935
1.63048e-06
0.509936
2.16848e-06
0.509936
2.55012e-06
0.509937
2.41902e-06
0.509937
1.85876e-06
0.509937
1.41453e-06
0.509938
1.49466e-06
0.509938
1.95474e-06
0.509938
2.41527e-06
0.509938
2.59356e-06
0.509938
2.35558e-06
0.509939
1.87989e-06
0.509939
1.60997e-06
0.50994
1.6436e-06
0.50994
1.67454e-06
0.509941
1.714e-06
0.509941
1.95271e-06
0.509941
2.28764e-06
0.509942
2.54582e-06
0.509942
2.62101e-06
0.509942
2.45055e-06
0.509942
2.15011e-06
0.509942
1.84213e-06
0.509943
1.58047e-06
0.509943
1.52476e-06
0.509944
1.72569e-06
0.509944
2.02079e-06
0.509944
2.28237e-06
0.509944
2.41113e-06
0.509944
2.29878e-06
0.509945
1.97375e-06
0.509946
1.68778e-06
0.509946
1.66652e-06
0.509947
1.77808e-06
0.509947
1.79809e-06
0.509947
1.79904e-06
0.509948
1.92109e-06
0.509948
2.08134e-06
0.509949
2.13662e-06
0.509949
2.11071e-06
0.50995
2.0674e-06
0.50995
1.99376e-06
0.50995
1.92626e-06
0.509951
1.91715e-06
0.509951
1.91403e-06
0.509952
1.84771e-06
0.509952
1.76035e-06
0.509952
1.77111e-06
0.509952
1.88177e-06
0.509952
1.98194e-06
0.509952
2.11647e-06
0.509952
2.38158e-06
0.509952
2.63312e-06
0.509951
2.66825e-06
0.509951
2.51322e-06
0.509951
2.28998e-06
0.509951
2.04785e-06
0.509951
1.90864e-06
0.509951
2.02217e-06
0.509951
2.27146e-06
0.50995
2.39583e-06
0.50995
2.32819e-06
0.50995
2.14913e-06
0.50995
1.91733e-06
0.50995
1.64789e-06
0.509951
1.41719e-06
0.509951
1.38375e-06
0.509952
1.56974e-06
0.509953
1.77494e-06
0.509954
1.85495e-06
0.509954
1.89073e-06
0.509955
1.93344e-06
0.509955
1.90884e-06
0.509955
1.8703e-06
0.509955
1.92036e-06
0.509956
1.99452e-06
0.509956
2.0273e-06
0.509957
2.0692e-06
0.509957
2.1399e-06
0.509957
2.12369e-06
0.509957
1.958e-06
0.509957
1.83704e-06
0.509957
1.91606e-06
0.509957
2.11476e-06
0.509958
2.35815e-06
0.509958
2.5498e-06
0.509958
2.51451e-06
0.509957
2.22994e-06
0.509957
1.88032e-06
0.509958
1.67615e-06
0.509958
1.67859e-06
0.509958
1.8339e-06
0.509958
2.13876e-06
0.509958
2.5214e-06
0.509958
2.77539e-06
0.509957
2.79643e-06
0.509957
2.66657e-06
0.509957
2.4734e-06
0.509957
2.17614e-06
0.509957
1.79336e-06
0.509958
1.54178e-06
0.509959
1.5227e-06
0.509959
1.61311e-06
0.509959
1.73963e-06
0.509959
1.86791e-06
0.50996
1.89966e-06
0.50996
1.86044e-06
0.509961
1.92465e-06
0.509962
2.11912e-06
0.509963
2.27347e-06
0.509963
2.2595e-06
0.509963
2.05695e-06
0.509963
1.77446e-06
0.509964
1.60221e-06
0.509965
1.60581e-06
0.509966
1.75124e-06
0.509966
1.99408e-06
0.509967
2.20015e-06
0.509967
2.26713e-06
0.509966
2.29624e-06
0.509966
2.37727e-06
0.509966
2.38915e-06
0.509967
2.24416e-06
0.509967
2.08807e-06
0.509968
2.03565e-06
0.509968
2.0177e-06
0.509968
2.00295e-06
0.509969
1.98816e-06
0.509969
1.8985e-06
0.509969
1.73912e-06
0.509969
1.62357e-06
0.50997
1.6398e-06
0.50997
1.78949e-06
0.50997
1.99366e-06
0.509971
2.15534e-06
0.509971
2.20985e-06
0.509971
2.13438e-06
0.509971
1.98993e-06
0.509972
1.90064e-06
0.509972
1.91703e-06
0.509973
1.98123e-06
0.509973
2.04134e-06
0.509973
2.0705e-06
0.509973
2.01705e-06
0.509973
1.89331e-06
0.509973
1.83656e-06
0.509974
1.93003e-06
0.509974
2.04707e-06
0.509974
2.05644e-06
0.509975
2.05531e-06
0.509975
2.15487e-06
0.509975
2.24284e-06
0.509975
2.17429e-06
0.509975
1.98398e-06
0.509975
1.81268e-06
0.509976
1.74409e-06
0.509976
1.75645e-06
0.509977
1.82022e-06
0.509977
1.93903e-06
0.509978
2.06304e-06
0.509978
2.08296e-06
0.509978
1.96093e-06
0.509978
1.82646e-06
0.509979
1.817e-06
0.50998
1.91018e-06
0.509981
2.0718e-06
0.509981
2.26242e-06
0.509981
2.29974e-06
0.509981
2.11665e-06
0.509981
1.91787e-06
0.509982
1.86979e-06
0.509982
1.92801e-06
0.509983
1.96403e-06
0.509983
1.96041e-06
0.509984
2.04425e-06
0.509984
2.22271e-06
0.509983
2.28223e-06
0.509983
2.10468e-06
0.509983
1.9047e-06
0.509984
1.95674e-06
0.509984
2.18557e-06
0.509984
2.31527e-06
0.509984
2.32661e-06
0.509984
2.34916e-06
0.509983
2.34288e-06
0.509983
2.26606e-06
0.509983
2.21878e-06
2.18902e-06
0.509922
-3.69456e-08
0.509921
1.04041e-06
0.50992
2.07194e-06
0.509919
1.99164e-06
0.509919
1.73138e-06
0.509919
1.65549e-06
0.50992
9.03888e-07
0.509921
1.00973e-06
0.509921
1.58504e-06
0.509921
1.8487e-06
0.509921
1.65836e-06
0.509922
1.15428e-06
0.509923
9.09433e-07
0.509924
1.1131e-06
0.509925
1.23104e-06
0.509926
1.32297e-06
0.509927
1.59416e-06
0.509928
1.82487e-06
0.509929
1.77891e-06
0.509929
1.41208e-06
0.50993
1.16165e-06
0.509931
1.39427e-06
0.509932
1.67957e-06
0.509932
1.87791e-06
0.509932
2.15006e-06
0.509931
2.36924e-06
0.50993
2.58647e-06
0.509929
2.6564e-06
0.509928
2.02783e-06
0.509928
1.40344e-06
0.509928
1.40912e-06
0.509929
1.24751e-06
0.50993
8.36167e-07
0.509932
9.11992e-07
0.509933
1.22134e-06
0.509934
1.59122e-06
0.509934
2.13274e-06
0.509934
2.28391e-06
0.509935
1.85753e-06
0.509935
1.42673e-06
0.509936
1.4494e-06
0.509936
1.8809e-06
0.509936
2.40457e-06
0.509936
2.59988e-06
0.509936
2.1275e-06
0.509937
1.35508e-06
0.509937
1.19184e-06
0.509937
1.66399e-06
0.509937
2.1425e-06
0.509938
2.51027e-06
0.509938
2.55655e-06
0.509937
2.04842e-06
0.509937
1.46841e-06
0.509937
1.36869e-06
0.509937
1.82671e-06
0.509937
2.32288e-06
0.509937
2.3739e-06
0.509938
2.10338e-06
0.509938
1.5898e-06
0.509939
1.11392e-06
0.509939
1.23158e-06
0.509938
1.72096e-06
0.509938
2.01458e-06
0.509938
2.00558e-06
0.509939
1.81498e-06
0.50994
1.57753e-06
0.50994
1.42859e-06
0.50994
1.47127e-06
0.50994
1.70054e-06
0.50994
1.98395e-06
0.50994
2.1308e-06
0.509941
2.10751e-06
0.509941
2.00395e-06
0.509941
1.77115e-06
0.509941
1.5119e-06
0.509941
1.47108e-06
0.509942
1.51315e-06
0.509942
1.50683e-06
0.509942
1.65381e-06
0.509942
1.96254e-06
0.509943
2.22997e-06
0.509943
2.31166e-06
0.509943
2.07484e-06
0.509944
1.63792e-06
0.509944
1.32297e-06
0.509945
1.21513e-06
0.509945
1.31798e-06
0.509945
1.61089e-06
0.509945
1.84748e-06
0.509946
1.88742e-06
0.509946
1.86499e-06
0.509947
1.87406e-06
0.509947
1.81126e-06
0.509947
1.61211e-06
0.509947
1.47334e-06
0.509947
1.54962e-06
0.509947
1.71849e-06
0.509947
1.88724e-06
0.509947
2.08834e-06
0.509947
2.24526e-06
0.509947
2.20228e-06
0.509947
2.0023e-06
0.509947
1.84436e-06
0.509947
1.80403e-06
0.509948
1.84851e-06
0.509947
1.93688e-06
0.509947
1.98303e-06
0.509947
1.88045e-06
0.509948
1.6103e-06
0.509948
1.35028e-06
0.509948
1.34417e-06
0.509949
1.58605e-06
0.509949
1.90388e-06
0.509949
2.19602e-06
0.50995
2.34363e-06
0.50995
2.20967e-06
0.509951
1.89457e-06
0.509951
1.66293e-06
0.509952
1.59392e-06
0.509952
1.61047e-06
0.509952
1.73102e-06
0.509953
1.93324e-06
0.509953
2.04082e-06
0.509953
1.95653e-06
0.509954
1.78742e-06
0.509954
1.70487e-06
0.509954
1.7609e-06
0.509953
1.85681e-06
0.509953
1.91276e-06
0.509953
1.9333e-06
0.509952
1.88527e-06
0.509953
1.71671e-06
0.509953
1.56471e-06
0.509953
1.60838e-06
0.509953
1.76722e-06
0.509953
1.91014e-06
0.509953
2.04469e-06
0.509953
2.12235e-06
0.509953
2.04459e-06
0.509953
1.83496e-06
0.509954
1.66136e-06
0.509954
1.62925e-06
0.509955
1.65294e-06
0.509955
1.70388e-06
0.509955
1.81039e-06
0.509955
1.85592e-06
0.509956
1.80495e-06
0.509956
1.7677e-06
0.509957
1.74677e-06
0.509958
1.65317e-06
0.509958
1.4721e-06
0.509958
1.32306e-06
0.509959
1.32435e-06
0.509959
1.4519e-06
0.50996
1.67585e-06
0.50996
1.98617e-06
0.509961
2.25607e-06
0.509961
2.32045e-06
0.509962
2.17503e-06
0.509962
1.97506e-06
0.509963
1.79265e-06
0.509963
1.58245e-06
0.509963
1.42151e-06
0.509963
1.42147e-06
0.509963
1.52097e-06
0.509963
1.65333e-06
0.509963
1.83634e-06
0.509963
1.98877e-06
0.509963
1.98497e-06
0.509963
1.87775e-06
0.509963
1.80085e-06
0.509964
1.78968e-06
0.509964
1.83292e-06
0.509964
1.86751e-06
0.509964
1.80473e-06
0.509964
1.67657e-06
0.509964
1.55272e-06
0.509965
1.47082e-06
0.509965
1.50514e-06
0.509966
1.63936e-06
0.509966
1.71774e-06
0.509967
1.70063e-06
0.509968
1.74077e-06
0.509968
1.88094e-06
0.509968
1.94786e-06
0.509969
1.86948e-06
0.509969
1.73856e-06
0.509969
1.57558e-06
0.50997
1.4199e-06
0.50997
1.3935e-06
0.509971
1.49047e-06
0.509971
1.59628e-06
0.509971
1.65801e-06
0.509971
1.69565e-06
0.509971
1.74638e-06
0.509971
1.8305e-06
0.509971
1.94754e-06
0.509971
2.08168e-06
0.509971
2.17814e-06
0.509971
2.17429e-06
0.509971
2.0922e-06
0.509971
2.00287e-06
0.509971
1.91626e-06
0.509971
1.83915e-06
0.509971
1.82217e-06
0.509972
1.84509e-06
0.509972
1.82091e-06
0.509972
1.75711e-06
0.509972
1.7632e-06
0.509972
1.84308e-06
0.509972
1.85657e-06
0.509973
1.78241e-06
0.509973
1.76149e-06
0.509973
1.83848e-06
0.509974
1.919e-06
0.509974
1.92128e-06
0.509974
1.85697e-06
0.509974
1.80058e-06
0.509974
1.78074e-06
0.509974
1.7705e-06
0.509974
1.77954e-06
0.509974
1.86235e-06
0.509974
2.01462e-06
0.509974
2.12141e-06
0.509974
2.12482e-06
0.509973
2.09831e-06
0.509973
2.05056e-06
0.509973
1.978e-06
0.509974
2.00117e-06
0.509974
2.10582e-06
0.509974
2.10402e-06
0.509974
1.96878e-06
0.509974
1.84113e-06
0.509974
1.80026e-06
0.509974
1.77186e-06
0.509974
1.62748e-06
0.509975
1.44068e-06
0.509976
1.44418e-06
0.509976
1.63222e-06
0.509977
1.7345e-06
0.509977
1.62528e-06
0.509978
1.48223e-06
0.509978
1.49667e-06
0.509979
1.58508e-06
0.50998
1.61387e-06
0.50998
1.6406e-06
0.509981
1.68639e-06
0.509982
1.69709e-06
0.509982
1.66948e-06
1.71361e-06
0.509922
5.51353e-07
0.509923
1.49199e-07
0.509925
2.14489e-07
0.509926
6.62923e-07
0.509927
5.7189e-07
0.509928
9.72517e-07
0.509927
1.38608e-06
0.509927
1.47083e-06
0.509927
1.43323e-06
0.509928
1.2615e-06
0.509928
1.75647e-06
0.509927
2.20035e-06
0.509926
1.79972e-06
0.509925
1.46949e-06
0.509925
1.53329e-06
0.509924
1.91609e-06
0.509924
1.64217e-06
0.509925
1.19127e-06
0.509925
1.44609e-06
0.509925
2.16744e-06
0.509923
2.37047e-06
0.509923
1.65323e-06
0.509924
1.00064e-06
0.509925
7.02316e-07
0.509926
1.23247e-06
0.509927
1.71532e-06
0.509928
1.37133e-06
0.50993
7.12215e-07
0.509931
8.15939e-07
0.509931
1.81178e-06
0.509929
2.71674e-06
0.509928
2.75192e-06
0.509927
1.77819e-06
0.509927
9.66001e-07
0.509927
1.09576e-06
0.509927
1.65729e-06
0.509927
2.11398e-06
0.509927
2.07634e-06
0.509927
1.46065e-06
0.509928
8.04954e-07
0.509929
8.73232e-07
0.509929
1.62049e-06
0.509929
2.18145e-06
0.50993
2.00582e-06
0.50993
1.31774e-06
0.509931
7.64339e-07
0.509931
1.04238e-06
0.509931
1.95651e-06
0.509931
2.30199e-06
0.509932
1.7518e-06
0.509933
1.03697e-06
0.509934
5.98169e-07
0.509935
7.3712e-07
0.509935
1.36148e-06
0.509935
2.00615e-06
0.509935
2.23805e-06
0.509936
1.86651e-06
0.509936
1.30085e-06
0.509937
1.02865e-06
0.509937
1.08143e-06
0.509937
1.46215e-06
0.509937
1.97923e-06
0.509936
2.20206e-06
0.509936
1.99127e-06
0.509937
1.57427e-06
0.509937
1.19726e-06
0.509937
9.52655e-07
0.509938
9.70858e-07
0.509938
1.28577e-06
0.509939
1.71111e-06
0.509939
1.98306e-06
0.509939
1.97652e-06
0.509939
1.84545e-06
0.509939
1.68645e-06
0.509939
1.47195e-06
0.509939
1.37585e-06
0.509939
1.45642e-06
0.509939
1.5403e-06
0.509939
1.66154e-06
0.509939
1.87543e-06
0.50994
1.99926e-06
0.50994
1.92989e-06
0.50994
1.6675e-06
0.509941
1.29548e-06
0.509941
1.09983e-06
0.509941
1.16749e-06
0.509941
1.34828e-06
0.509941
1.61334e-06
0.509941
1.87796e-06
0.509941
1.96152e-06
0.509941
1.86196e-06
0.509941
1.72991e-06
0.509941
1.6285e-06
0.509941
1.47894e-06
0.509942
1.32067e-06
0.509942
1.31981e-06
0.509942
1.43084e-06
0.509942
1.48361e-06
0.509943
1.49027e-06
0.509944
1.5416e-06
0.509944
1.56965e-06
0.509945
1.4996e-06
0.509945
1.43869e-06
0.509946
1.48239e-06
0.509946
1.57054e-06
0.509946
1.60305e-06
0.509947
1.54974e-06
0.509947
1.43982e-06
0.509947
1.31775e-06
0.509947
1.27414e-06
0.509947
1.42087e-06
0.509947
1.68821e-06
0.509947
1.8602e-06
0.509948
1.89162e-06
0.509948
1.86038e-06
0.509949
1.72943e-06
0.509949
1.45972e-06
0.509949
1.2087e-06
0.50995
1.12922e-06
0.50995
1.16745e-06
0.509951
1.24427e-06
0.509951
1.36467e-06
0.509952
1.4767e-06
0.509952
1.47819e-06
0.509953
1.35881e-06
0.509953
1.23512e-06
0.509954
1.23444e-06
0.509954
1.34793e-06
0.509955
1.49706e-06
0.509955
1.67205e-06
0.509955
1.84179e-06
0.509955
1.84599e-06
0.509955
1.65371e-06
0.509955
1.51252e-06
0.509955
1.56544e-06
0.509955
1.70386e-06
0.509956
1.83279e-06
0.509956
1.8942e-06
0.509956
1.82215e-06
0.509956
1.61712e-06
0.509957
1.41171e-06
0.509957
1.36366e-06
0.509957
1.41997e-06
0.509957
1.48599e-06
0.509957
1.6325e-06
0.509957
1.81027e-06
0.509957
1.84088e-06
0.509958
1.70343e-06
0.509958
1.4841e-06