/*--------------------------------*- C++ -*----------------------------------*\
| =========                 |                                                 |
| \\      /  F ield         | OpenFOAM: The Open Source CFD Toolbox           |
|  \\    /   O peration     | Version:  2406                                  |
|   \\  /    A nd           | Website:  www.openfoam.com                      |
|    \\/     M anipulation  |                                                 |
\*---------------------------------------------------------------------------*/
FoamFile
{
    version     2.0;
    format      ascii;
    arch        "LSB;label=32;scalar=64";
    class       surfaceScalarField;
    location    "1.2";
    object      phi;
}
// * * * * * * * * * * * * * * * * * * * * * * * * * * * * * * * * * * * * * //

dimensions      [0 3 -1 0 0 0 0];

oriented        oriented;

internalField   nonuniform List<scalar> 
12225
(
0.509927
1.29328e-06
0.509921
6.18648e-06
0.509913
7.51819e-06
0.509907
5.74829e-06
0.509902
4.89376e-06
0.509897
4.91843e-06
0.509892
5.12101e-06
0.509887
5.53149e-06
0.509881
5.69914e-06
0.509876
5.00448e-06
0.509871
4.92975e-06
0.509866
5.2149e-06
0.50986
5.77124e-06
0.509854
6.13756e-06
0.509848
6.28649e-06
0.509841
6.57928e-06
0.509835
6.36513e-06
0.509829
6.14082e-06
0.509822
6.27147e-06
0.509816
6.08413e-06
0.509811
5.48008e-06
0.509806
4.7664e-06
0.509802
4.21933e-06
0.509798
4.32247e-06
0.509792
5.05859e-06
0.509787
5.38551e-06
0.509782
5.15504e-06
0.509777
5.15387e-06
0.509771
5.58899e-06
0.509765
5.80092e-06
0.50976
5.6167e-06
0.509754
5.67709e-06
0.509748
5.66168e-06
0.509743
5.30734e-06
0.509738
5.03722e-06
0.509733
4.8247e-06
0.509729
4.7312e-06
0.509724
4.94045e-06
0.509718
5.19069e-06
0.509713
5.41847e-06
0.509707
5.70026e-06
0.509701
6.04335e-06
0.509695
6.24701e-06
0.509689
5.86895e-06
0.509684
5.19525e-06
0.509679
5.0192e-06
0.509674
5.33231e-06
0.509668
5.6297e-06
0.509662
5.71128e-06
0.509657
5.54781e-06
0.509651
5.3033e-06
0.509646
5.27723e-06
0.509641
5.34331e-06
0.509635
5.27479e-06
0.50963
5.16768e-06
0.509625
5.19926e-06
0.50962
5.57733e-06
0.509613
6.06325e-06
0.509607
6.08418e-06
0.509602
5.46328e-06
0.509597
4.61492e-06
0.509593
4.136e-06
0.509589
4.33757e-06
0.509584
5.00278e-06
0.509578
5.6634e-06
0.509572
5.97861e-06
0.509566
5.95473e-06
0.509561
5.69482e-06
0.509555
5.38193e-06
0.50955
5.21877e-06
0.509545
5.28726e-06
0.509539
5.52528e-06
0.509533
5.80949e-06
0.509527
6.0803e-06
0.509521
6.11362e-06
0.509515
5.70347e-06
0.50951
5.09762e-06
0.509506
4.66231e-06
0.509501
4.58446e-06
0.509496
4.91019e-06
0.509491
5.46054e-06
0.509485
5.90302e-06
0.509479
5.98734e-06
0.509473
5.74036e-06
0.509468
5.33407e-06
0.509463
4.9388e-06
0.509458
4.7313e-06
0.509453
4.78847e-06
0.509448
5.03931e-06
0.509443
5.38331e-06
0.509437
5.71078e-06
0.509431
5.8985e-06
0.509425
5.92625e-06
0.50942
5.77382e-06
0.509414
5.42617e-06
0.509409
5.09174e-06
0.509404
4.92756e-06
0.509399
4.89688e-06
0.509394
5.01403e-06
0.509389
5.21991e-06
0.509384
5.37864e-06
0.509378
5.47308e-06
0.509373
5.55704e-06
0.509367
5.63973e-06
0.509361
5.68886e-06
0.509356
5.71899e-06
0.50935
5.70866e-06
0.509344
5.59731e-06
0.509339
5.42049e-06
0.509334
5.22913e-06
0.509328
5.07957e-06
0.509323
5.06668e-06
0.509318
5.16837e-06
0.509313
5.24996e-06
0.509308
5.29176e-06
0.509302
5.37174e-06
0.509297
5.43852e-06
0.509291
5.42521e-06
0.509286
5.43233e-06
0.509281
5.4689e-06
0.509275
5.4019e-06
0.50927
5.27522e-06
0.509265
5.24593e-06
0.509259
5.28143e-06
0.509254
5.27519e-06
0.509249
5.25368e-06
0.509244
5.273e-06
0.509238
5.33613e-06
0.509233
5.45265e-06
0.509227
5.61457e-06
0.509221
5.78484e-06
0.509215
5.93308e-06
0.509209
5.96573e-06
0.509204
5.80915e-06
0.509198
5.57527e-06
0.509193
5.37137e-06
0.509188
5.22124e-06
0.509182
5.22635e-06
0.509177
5.41834e-06
0.509171
5.69586e-06
0.509165
5.97148e-06
0.509159
6.11671e-06
0.509153
6.02985e-06
0.509147
5.75693e-06
0.509142
5.41293e-06
0.509137
5.15854e-06
0.509132
5.13258e-06
0.509126
5.33738e-06
0.509121
5.64316e-06
0.509115
5.84107e-06
0.509109
5.8014e-06
0.509103
5.5418e-06
0.509098
5.17664e-06
0.509093
5.00269e-06
0.509088
5.21664e-06
0.509082
5.62845e-06
0.509076
6.02047e-06
0.50907
6.28917e-06
0.509064
6.26878e-06
0.509058
5.93912e-06
0.509052
5.54513e-06
0.509047
5.2688e-06
0.509042
5.04314e-06
0.509037
4.86212e-06
0.509032
4.92995e-06
0.509027
5.27082e-06
0.509021
5.64414e-06
0.509015
5.8906e-06
0.509009
5.95447e-06
0.509004
5.80086e-06
0.508998
5.5562e-06
0.508993
5.42922e-06
0.508987
5.46321e-06
0.508982
5.50658e-06
0.508976
5.37178e-06
0.508971
5.03141e-06
0.508967
4.69103e-06
0.508962
4.60586e-06
0.508957
4.86854e-06
0.508952
5.36508e-06
0.508946
5.80201e-06
0.50894
5.88247e-06
0.508935
5.56441e-06
0.508929
5.06875e-06
0.508925
4.68007e-06
0.50892
4.56459e-06
0.508916
4.69841e-06
0.508911
4.93956e-06
0.508905
5.13958e-06
0.5089
5.29396e-06
0.508895
5.46302e-06
0.508889
5.52467e-06
0.508884
5.36763e-06
0.508879
5.13036e-06
0.508874
4.95034e-06
0.508869
4.88995e-06
0.508864
5.02354e-06
0.508859
5.24135e-06
0.508853
5.32016e-06
0.508848
5.20623e-06
0.508843
4.95678e-06
0.508838
4.69451e-06
0.508834
4.67888e-06
0.508829
5.03187e-06
0.508823
5.48096e-06
0.508818
5.66173e-06
0.508812
5.53703e-06
0.508807
5.28576e-06
0.508802
5.01491e-06
0.508797
4.84174e-06
0.508792
4.91645e-06
0.508787
5.16702e-06
0.508781
5.37343e-06
0.508776
5.54027e-06
0.50877
5.81445e-06
0.508764
6.12168e-06
0.508758
6.21301e-06
0.508752
6.01091e-06
0.508746
5.73835e-06
0.50874
5.66714e-06
0.508735
5.77042e-06
0.508729
5.8526e-06
0.508723
5.86668e-06
0.508717
5.84075e-06
0.508711
5.72415e-06
0.508706
5.49822e-06
0.5087
5.36152e-06
0.508695
5.56557e-06
0.508689
6.06561e-06
0.508682
6.50383e-06
0.508676
6.53234e-06
0.50867
6.1442e-06
0.508664
5.68179e-06
0.508658
5.39364e-06
0.508653
5.2944e-06
0.508648
5.40691e-06
0.508642
5.67054e-06
0.508636
5.88052e-06
0.50863
5.96168e-06
0.508624
5.95632e-06
0.508618
5.84251e-06
0.508613
5.66027e-06
0.508607
5.57103e-06
0.508602
5.6982e-06
0.508596
5.95647e-06
0.50859
6.07251e-06
0.508584
5.96923e-06
0.508578
5.66406e-06
0.508572
5.76627e-06
5.19282e-06
0.509932
1.54124e-07
0.509938
7.43395e-07
0.509944
1.38886e-06
0.509948
1.94986e-06
0.50995
2.52173e-06
0.509952
2.88103e-06
0.509954
2.9774e-06
0.509958
2.31617e-06
0.509961
1.70637e-06
0.509965
1.80184e-06
0.509967
2.28187e-06
0.50997
2.87556e-06
0.509972
3.34438e-06
0.509975
3.03247e-06
0.509979
2.07131e-06
0.509984
1.60472e-06
0.509989
2.08708e-06
0.509993
2.26314e-06
0.509997
1.77475e-06
0.510001
1.97591e-06
0.510004
2.67883e-06
0.510006
2.94789e-06
0.510007
2.64602e-06
0.51001
2.06822e-06
0.510013
1.68762e-06
0.510016
1.95942e-06
0.510019
2.96973e-06
0.51002
3.52519e-06
0.510023
3.15093e-06
0.510026
2.67332e-06
0.510029
2.19271e-06
0.510033
2.14951e-06
0.510036
2.68161e-06
0.510038
2.54815e-06
0.510041
2.02552e-06
0.510044
2.20866e-06
0.510046
2.69855e-06
0.510048
2.90517e-06
0.510051
2.70859e-06
0.510054
2.27755e-06
0.510057
2.05612e-06
0.510061
2.19203e-06
0.510065
2.48678e-06
0.510068
2.66295e-06
0.510071
2.74152e-06
0.510073
2.9958e-06
0.510075
3.22187e-06
0.510078
2.95309e-06
0.510081
2.39754e-06
0.510084
2.20956e-06
0.510087
2.45376e-06
0.510089
2.8469e-06
0.510092
3.08812e-06
0.510094
2.85535e-06
0.510097
2.26996e-06
0.5101
1.79625e-06
0.510104
1.89338e-06
0.510108
2.49199e-06
0.510111
3.14307e-06
0.510113
3.52242e-06
0.510114
3.39353e-06
0.510115
2.83261e-06
0.510117
2.22759e-06
0.51012
1.92857e-06
0.510124
2.03668e-06
0.510128
2.3012e-06
0.510131
2.48965e-06
0.510134
2.46332e-06
0.510137
2.21464e-06
0.510141
1.99967e-06
0.510144
2.12656e-06
0.510147
2.55734e-06
0.51015
2.88744e-06
0.510153
2.9587e-06
0.510156
2.95503e-06
0.510159
2.86628e-06
0.510161
2.63508e-06
0.510164
2.36734e-06
0.510166
2.06915e-06
0.510169
1.76651e-06
0.510173
1.6572e-06
0.510177
1.8782e-06
0.510181
2.30267e-06
0.510184
2.67321e-06
0.510186
2.84221e-06
0.510189
2.7575e-06
0.510191
2.49878e-06
0.510193
2.22338e-06
0.510196
2.05291e-06
0.5102
2.09696e-06
0.510203
2.36397e-06
0.510206
2.65365e-06
0.510209
2.79204e-06
0.510212
2.7962e-06
0.510215
2.63737e-06
0.510218
2.38321e-06
0.51022
2.29067e-06
0.510223
2.36802e-06
0.510226
2.44293e-06
0.510228
2.46412e-06
0.510231
2.42888e-06
0.510234
2.37818e-06
0.510237
2.38608e-06
0.510241
2.49095e-06
0.510244
2.63639e-06
0.510247
2.76499e-06
0.510249
2.85794e-06
0.510252
2.83154e-06
0.510255
2.65777e-06
0.510258
2.41842e-06
0.510261
2.18744e-06
0.510264
2.08791e-06
0.510267
2.24563e-06
0.510269
2.53763e-06
0.510272
2.72716e-06
0.510274
2.81046e-06
0.510277
2.8701e-06
0.51028
2.79527e-06
0.510283
2.58777e-06
0.510286
2.4667e-06
0.510288
2.47542e-06
0.510291
2.47589e-06
0.510294
2.48462e-06
0.510297
2.58041e-06
0.510299
2.68436e-06
0.510302
2.71663e-06
0.510304
2.7175e-06
0.510307
2.71988e-06
0.51031
2.69588e-06
0.510313
2.60891e-06
0.510316
2.4488e-06
0.51032
2.29842e-06
0.510323
2.22754e-06
0.510327
2.15176e-06
0.510331
2.08204e-06
0.510334
2.1905e-06
0.510337
2.4711e-06
0.510339
2.76526e-06
0.510341
2.95514e-06
0.510344
2.93551e-06
0.510347
2.73613e-06
0.510351
2.53309e-06
0.510355
2.44364e-06
0.510358
2.47534e-06
0.510361
2.53691e-06
0.510363
2.52722e-06
0.510366
2.47891e-06
0.510369
2.47017e-06
0.510372
2.5347e-06
0.510375
2.64676e-06
0.510378
2.75132e-06
0.510381
2.81432e-06
0.510383
2.71253e-06
0.510386
2.40053e-06
0.510389
2.1154e-06
0.510393
2.00213e-06
0.510397
2.03392e-06
0.510401
2.29327e-06
0.510404
2.73319e-06
0.510407
3.04491e-06
0.51041
3.06941e-06
0.510412
2.97521e-06
0.510414
2.87418e-06
0.510416
2.62175e-06
0.510419
2.23869e-06
0.510422
1.98742e-06
0.510426
1.96112e-06
0.51043
2.08978e-06
0.510434
2.31705e-06
0.510437
2.49097e-06
0.51044
2.44433e-06
0.510443
2.24331e-06
0.510446
2.13666e-06
0.51045
2.2909e-06
0.510452
2.64375e-06
0.510454
2.94121e-06
0.510456
2.9583e-06
0.510458
2.68075e-06
0.510461
2.25429e-06
0.510464
1.89083e-06
0.510468
1.81354e-06
0.510472
2.09154e-06
0.510475
2.51708e-06
0.510477
2.82237e-06
0.510479
2.88329e-06
0.510481
2.75828e-06
0.510483
2.57319e-06
0.510486
2.43948e-06
0.510488
2.36312e-06
0.510491
2.27742e-06
0.510495
2.25279e-06
0.510498
2.38208e-06
0.5105
2.55094e-06
0.510503
2.63953e-06
0.510505
2.61901e-06
0.510508
2.45258e-06
0.510511
2.254e-06
0.510514
2.23848e-06
0.510516
2.43224e-06
0.510519
2.73492e-06
0.510521
3.00731e-06
0.510523
3.00704e-06
0.510525
2.65572e-06
0.510527
2.25974e-06
0.510531
2.13751e-06
0.510534
2.26269e-06
0.510537
2.46421e-06
0.51054
2.676e-06
0.510542
2.80388e-06
0.510544
2.71855e-06
0.510546
2.5415e-06
0.510549
2.50879e-06
0.510552
2.5495e-06
0.510555
2.447e-06
0.510559
2.28484e-06
0.510562
2.34112e-06
0.510566
2.64406e-06
0.510569
2.90026e-06
0.510572
2.85406e-06
0.510575
2.60513e-06
0.510578
2.40672e-06
0.510582
2.30757e-06
0.510585
2.28559e-06
0.510589
2.43323e-06
0.510592
2.76353e-06
0.510594
2.99665e-06
0.510597
2.85455e-06
0.5106
2.45533e-06
0.510604
2.15377e-06
0.510608
2.2027e-06
0.510612
2.58037e-06
0.510615
2.96611e-06
0.510618
3.12594e-06
0.51062
3.06767e-06
0.510623
2.81712e-06
0.510626
2.47489e-06
0.510629
2.25063e-06
0.510633
2.19607e-06
0.510636
2.22498e-06
0.51064
2.35849e-06
0.510643
2.58213e-06
0.510646
2.68197e-06
0.510649
2.49465e-06
0.510653
2.1659e-06
0.510657
2.02932e-06
0.510661
2.20684e-06
0.510664
2.55555e-06
0.510667
2.8539e-06
0.51067
2.90185e-06
2.89884e-06
0.509929
7.1551e-08
0.509929
1.12842e-06
0.509929
1.67296e-06
0.509929
1.54557e-06
0.50993
1.17372e-06
0.509932
1.11973e-06
0.509933
1.86249e-06
0.509933
2.65897e-06
0.509931
3.26538e-06
0.50993
3.0288e-06
0.50993
2.2784e-06
0.509931
1.58866e-06
0.509933
1.48396e-06
0.509934
2.2025e-06
0.509933
3.00171e-06
0.509932
2.87003e-06
0.509932
2.19781e-06
0.509932
1.76997e-06
0.509933
1.31373e-06
0.509933
1.15419e-06
0.509935
1.54555e-06
0.509935
2.07135e-06
0.509936
2.60458e-06
0.509935
2.76256e-06
0.509934
2.66222e-06
0.509933
2.39467e-06
0.509935
1.59775e-06
0.509937
1.27117e-06
0.509938
1.89574e-06
0.509938
2.70639e-06
0.509938
2.92258e-06
0.509937
2.32968e-06
0.509938
1.97706e-06
0.509938
2.28369e-06
0.509938
2.7147e-06
0.509937
2.92879e-06
0.509937
2.71383e-06
0.509937
2.36966e-06
0.509938
2.39246e-06
0.509937
2.67285e-06
0.509937
2.61694e-06
0.509937
1.95433e-06
0.509938
1.40755e-06
0.509939
1.4923e-06
0.50994
1.80529e-06
0.509941
2.04521e-06
0.509942
2.21908e-06
0.509943
2.21429e-06
0.509943
1.95921e-06
0.509944
1.73251e-06
0.509945
1.77387e-06
0.509945
2.01012e-06
0.509946
2.30791e-06
0.509947
2.43391e-06
0.509947
2.25982e-06
0.509946
1.90783e-06
0.509947
1.77836e-06
0.509947
2.07335e-06
0.509948
2.39117e-06
0.509949
2.36246e-06
0.50995
2.07718e-06
0.509951
1.95966e-06
0.509951
2.29662e-06
0.50995
2.84014e-06
0.509949
3.1585e-06
0.509948
2.9243e-06
0.509949
2.32743e-06
0.509949
1.95922e-06
0.509949
2.01779e-06
0.509949
2.24404e-06
0.509949
2.41046e-06
0.509949
2.53535e-06
0.509949
2.57482e-06
0.50995
2.41477e-06
0.50995
2.19851e-06
0.509951
2.04469e-06
0.509952
1.95878e-06
0.509952
2.06817e-06
0.509952
2.36548e-06
0.509951
2.62378e-06
0.50995
2.68968e-06
0.509949
2.64499e-06
0.509949
2.5912e-06
0.509949
2.50198e-06
0.50995
2.35926e-06
0.50995
2.16337e-06
0.509951
1.99629e-06
0.509951
1.99837e-06
0.509951
2.14802e-06
0.509951
2.33358e-06
0.50995
2.51035e-06
0.50995
2.61046e-06
0.509951
2.56732e-06
0.509951
2.4769e-06
0.509951
2.36438e-06
0.509951
2.14718e-06
0.509952
1.98707e-06
0.509952
2.07048e-06
0.509952
2.32787e-06
0.509952
2.58515e-06
0.509952
2.69113e-06
0.509952
2.59629e-06
0.509952
2.40874e-06
0.509952
2.30097e-06
0.509952
2.31614e-06
0.509952
2.36543e-06
0.509953
2.40967e-06
0.509953
2.39652e-06
0.509954
2.26011e-06
0.509954
2.05046e-06
0.509954
1.82407e-06
0.509955
1.66872e-06
0.509955
1.79076e-06
0.509956
2.19784e-06
0.509956
2.55056e-06
0.509956
2.58647e-06
0.509957
2.41195e-06
0.509957
2.16362e-06
0.509958
1.90507e-06
0.509959
1.81263e-06
0.509959
1.97835e-06
0.509959
2.20822e-06
0.509959
2.29561e-06
0.50996
2.23857e-06
0.50996
2.07141e-06
0.509961
1.82839e-06
0.509962
1.64898e-06
0.509963
1.69421e-06
0.509964
1.99067e-06
0.509964
2.38864e-06
0.509964
2.62525e-06
0.509964
2.59531e-06
0.509964
2.44803e-06
0.509964
2.27429e-06
0.509964
2.0681e-06
0.509964
1.95204e-06
0.509964
2.02272e-06
0.509965
2.24555e-06
0.509965
2.56252e-06
0.509965
2.7921e-06
0.509965
2.73652e-06
0.509965
2.40969e-06
0.509966
1.98934e-06
0.509967
1.7437e-06
0.509967
1.8348e-06
0.509968
2.13719e-06
0.509968
2.43062e-06
0.509968
2.57734e-06
0.509968
2.54612e-06
0.509968
2.37565e-06
0.509969
2.12582e-06
0.509969
1.94195e-06
0.50997
1.89794e-06
0.509971
1.90135e-06
0.509971
1.97905e-06
0.509971
2.16922e-06
0.50997
2.30197e-06
0.50997
2.32431e-06
0.509971
2.38565e-06
0.509971
2.47617e-06
0.509972
2.4291e-06
0.509973
2.28016e-06
0.509973
2.23739e-06
0.509974
2.25887e-06
0.509974
2.16028e-06
0.509974
2.0046e-06
0.509974
1.93186e-06
0.509974
1.96679e-06
0.509974
2.1727e-06
0.509974
2.55527e-06
0.509973
2.89115e-06
0.509973
2.92247e-06
0.509972
2.6439e-06
0.509972
2.28019e-06
0.509973
2.09735e-06
0.509974
2.20067e-06
0.509974
2.45624e-06
0.509974
2.67525e-06
0.509974
2.7438e-06
0.509973
2.61915e-06
0.509972
2.38e-06
0.509972
2.18857e-06
0.509973
2.14107e-06
0.509973
2.23441e-06
0.509974
2.41146e-06
0.509974
2.59479e-06
0.509974
2.6864e-06
0.509973
2.64952e-06
0.509973
2.51371e-06
0.509973
2.26462e-06
0.509974
1.97231e-06
0.509974
1.83359e-06
0.509975
1.87483e-06
0.509975
2.00425e-06
0.509976
2.20595e-06
0.509976
2.37732e-06
0.509976
2.39203e-06
0.509976
2.30577e-06
0.509976
2.20655e-06
0.509977
2.15828e-06
0.509977
2.28539e-06
0.509978
2.54487e-06
0.509978
2.65572e-06
0.509978
2.49263e-06
0.509977
2.23954e-06
0.509978
2.04961e-06
0.509978
1.92516e-06
0.509979
1.92477e-06
0.50998
2.09401e-06
0.50998
2.25625e-06
0.50998
2.26527e-06
0.509981
2.27813e-06
0.509981
2.42476e-06
0.509981
2.51596e-06
0.509981
2.36396e-06
0.509981
2.09646e-06
0.509981
1.98877e-06
0.509982
2.12482e-06
0.509983
2.30736e-06
0.509983
2.37822e-06
0.509983
2.40303e-06
0.509983
2.41145e-06
0.509983
2.31241e-06
0.509983
2.13939e-06
0.509984
2.13103e-06
0.509984
2.41728e-06
0.509984
2.77897e-06
0.509984
2.90362e-06
0.509983
2.70505e-06
0.509983
2.35569e-06
0.509984
2.12476e-06
0.509985
2.08455e-06
0.509986
2.14964e-06
0.509986
2.31335e-06
0.509987
2.49639e-06
0.509987
2.5324e-06
0.509986
2.44553e-06
0.509986
2.33129e-06
0.509986
2.1605e-06
0.509987
1.98581e-06
0.509987
1.99507e-06
0.509988
2.23858e-06
0.509988
2.50114e-06
0.509987
2.5236e-06
0.509987
2.32477e-06
0.509987
2.10853e-06
0.509988
1.97829e-06
0.509989
2.00201e-06
0.509989
2.08826e-06
2.22267e-06
0.509932
-1.4811e-07
0.509933
2.80971e-07
0.509934
9.64651e-07
0.509934
1.15704e-06
0.509934
1.54629e-06
0.509934
1.5219e-06
0.509934
1.24846e-06
0.509935
1.50238e-06
0.509937
1.9727e-06
0.509937
2.18843e-06
0.509938
1.86946e-06
0.509938
1.60502e-06
0.509937
1.93301e-06
0.509938
2.00347e-06
0.509939
1.80555e-06
0.509939
2.14585e-06
0.509939
2.60338e-06
0.509938
3.08671e-06
0.509936
3.21632e-06
0.509935
2.47044e-06
0.509934
1.7808e-06
0.509935
1.84306e-06
0.509935
2.09878e-06
0.509936
2.23839e-06
0.509936
2.03715e-06
0.509937
1.93248e-06
0.509936
2.01584e-06
0.509936
1.6939e-06
0.509936
1.20462e-06
0.509938
1.11788e-06
0.50994
1.42956e-06
0.50994
1.63916e-06
0.50994
2.07019e-06
0.50994
2.64993e-06
0.50994
2.51314e-06
0.509941
2.01869e-06
0.509942
1.94725e-06
0.509942
2.23972e-06
0.509942
2.47479e-06
0.509942
2.38122e-06
0.509942
2.18739e-06
0.509942
2.06598e-06
0.509942
2.12482e-06
0.509941
2.46004e-06
0.50994
2.54022e-06
0.50994
2.12354e-06
0.50994
1.72686e-06
0.509941
1.69924e-06
0.509941
2.01707e-06
0.50994
2.4859e-06
0.509939
2.67053e-06
0.509939
2.27303e-06
0.50994
1.59879e-06
0.509941
1.24246e-06
0.509941
1.53523e-06
0.509941
2.09233e-06
0.509941
2.45585e-06
0.50994
2.54759e-06
0.50994
2.31688e-06
0.509941
1.89989e-06
0.509941
1.53379e-06
0.509942
1.28789e-06
0.509943
1.34374e-06
0.509944
1.74916e-06
0.509945
2.30923e-06
0.509945
2.61421e-06
0.509945
2.33555e-06
0.509945
1.72935e-06
0.509946
1.38211e-06
0.509947
1.53631e-06
0.509947
1.97164e-06
0.509947
2.40286e-06
0.509947
2.60066e-06
0.509947
2.37158e-06
0.509948
1.95089e-06
0.509948
1.68674e-06
0.509948
1.55055e-06
0.509949
1.52019e-06
0.509949
1.70057e-06
0.50995
2.06158e-06
0.50995
2.40787e-06
0.50995
2.57766e-06
0.50995
2.56417e-06
0.509951
2.40704e-06
0.509951
2.15711e-06
0.509951
1.85732e-06
0.509951
1.56854e-06
0.509952
1.4596e-06
0.509953
1.64447e-06
0.509953
2.02476e-06
0.509953
2.40194e-06
0.509953
2.54937e-06
0.509953
2.30876e-06
0.509954
1.89228e-06
0.509955
1.67584e-06
0.509955
1.68545e-06
0.509955
1.76068e-06
0.509955
1.83229e-06
0.509956
1.86495e-06
0.509957
1.8861e-06
0.509957
1.94222e-06
0.509958
2.00924e-06
0.509958
2.04438e-06
0.509959
2.07542e-06
0.509959
2.13042e-06
0.509959
2.12797e-06
0.509959
2.01171e-06
0.50996
1.81905e-06
0.509961
1.63765e-06
0.509961
1.62834e-06
0.509961
1.82294e-06
0.509961
2.01267e-06
0.50996
2.10155e-06
0.50996
2.24734e-06
0.50996
2.46819e-06
0.50996
2.57872e-06
0.50996
2.54459e-06
0.50996
2.42926e-06
0.50996
2.20541e-06
0.509959
1.97973e-06
0.509959
1.97954e-06
0.50996
2.19227e-06
0.509959
2.38071e-06
0.509959
2.41856e-06
0.509959
2.32441e-06
0.509959
2.10855e-06
0.509959
1.79707e-06
0.509959
1.49204e-06
0.509959
1.3425e-06
0.50996
1.45411e-06
0.509961
1.71756e-06
0.509962
1.87702e-06
0.509963
1.89072e-06
0.509963
1.86356e-06
0.509963
1.81127e-06
0.509963
1.7897e-06
0.509964
1.84794e-06
0.509964
1.90774e-06
0.509964
1.96777e-06
0.509965
2.08283e-06
0.509966
2.20595e-06
0.509966
2.24938e-06
0.509966
2.12913e-06
0.509966
1.88249e-06
0.509966
1.72384e-06
0.509966
1.8146e-06
0.509966
2.12208e-06
0.509966
2.45687e-06
0.509966
2.62229e-06
0.509966
2.53644e-06
0.509966
2.22499e-06
0.509966
1.87807e-06
0.509966
1.71193e-06
0.509967
1.69243e-06
0.509967
1.77749e-06
0.509967
2.06084e-06
0.509967
2.44062e-06
0.509966
2.68874e-06
0.509966
2.78701e-06
0.509966
2.80285e-06
0.509965
2.6249e-06
0.509966
2.17773e-06
0.509966
1.71844e-06
0.509967
1.50774e-06
0.509967
1.50163e-06
0.509968
1.61107e-06
0.509968
1.7837e-06
0.509968
1.85746e-06
0.509969
1.77954e-06
0.509969
1.73735e-06
0.50997
1.89762e-06
0.509971
2.18892e-06
0.509971
2.38766e-06
0.509971
2.334e-06
0.509971
2.06171e-06
0.509972
1.76658e-06
0.509973
1.61569e-06
0.509974
1.65726e-06
0.509975
1.83862e-06
0.509975
2.0399e-06
0.509975
2.17679e-06
0.509975
2.26368e-06
0.509975
2.32861e-06
0.509975
2.33779e-06
0.509975
2.2561e-06
0.509976
2.13666e-06
0.509976
2.04562e-06
0.509977
2.01801e-06
0.509977
2.09087e-06
0.509977
2.15895e-06
0.509977
2.05916e-06
0.509977
1.86433e-06
0.509977
1.70859e-06
0.509978
1.60676e-06
0.509978
1.62409e-06
0.509979
1.79561e-06
0.509979
2.00582e-06
0.509979
2.16633e-06
0.509979
2.21849e-06
0.50998
2.08533e-06
0.50998
1.88085e-06
0.509981
1.84284e-06
0.509981
1.96026e-06
0.509982
2.03191e-06
0.509982
2.03168e-06
0.509982
2.03671e-06
0.509982
1.99654e-06
0.509982
1.90585e-06
0.509982
1.92081e-06
0.509982
2.04725e-06
0.509983
2.07039e-06
0.509983
1.96449e-06
0.509983
1.9579e-06
0.509984
2.12113e-06
0.509984
2.25804e-06
0.509984
2.19545e-06
0.509984
1.99598e-06
0.509984
1.85912e-06
0.509984
1.8257e-06
0.509985
1.78816e-06
0.509986
1.77746e-06
0.509986
1.90661e-06
0.509986
2.08934e-06
0.509986
2.09694e-06
0.509987
1.89874e-06
0.509987
1.7319e-06
0.509988
1.7762e-06
0.509989
1.98581e-06
0.50999
2.191e-06
0.50999
2.2453e-06
0.50999
2.18857e-06
0.50999
2.11556e-06
0.50999
1.99683e-06
0.50999
1.87979e-06
0.509991
1.86181e-06
0.509992
1.89196e-06
0.509992
1.95433e-06
0.509992
2.10788e-06
0.509992
2.26014e-06
0.509992
2.2304e-06
0.509992
2.03873e-06
0.509992
1.92061e-06
0.509993
2.02167e-06
0.509993
2.21306e-06
0.509993
2.33092e-06
0.509993
2.37512e-06
0.509992
2.35162e-06
0.509992
2.30509e-06
0.509992
2.29079e-06
2.22617e-06
0.509931
1.46652e-08
0.509931
2.70274e-07
0.50993
1.44014e-06
0.50993
2.04337e-06
0.509929
1.86314e-06
0.509929
1.72662e-06
0.509929
1.35522e-06
0.509929
1.10551e-06
0.509931
8.3833e-07
0.509931
1.48426e-06
0.509931
2.43592e-06
0.50993
2.10729e-06
0.509931
1.1111e-06
0.509932
9.82625e-07
0.509932
1.35146e-06
0.509933
1.47354e-06
0.509934
1.41002e-06
0.509936
1.30583e-06
0.509938
1.58022e-06
0.509938
1.91436e-06
0.509938
1.57384e-06
0.509939
1.38586e-06
0.50994
1.48588e-06
0.50994
1.54561e-06
0.509941
1.76343e-06
0.50994
2.03366e-06
0.50994
2.35757e-06
0.509939
2.69423e-06
0.509938
2.46545e-06
0.509937
1.79341e-06
0.509937
1.66292e-06
0.509937
1.62139e-06
0.509938
1.07779e-06
0.50994
8.84706e-07
0.509941
1.02843e-06
0.509942
1.17793e-06
0.509942
1.7637e-06
0.509942
2.28441e-06
0.509943
2.08503e-06
0.509943
1.54325e-06
0.509944
1.45062e-06
0.509944
1.85309e-06
0.509944
2.11493e-06
0.509945
2.19503e-06
0.509945
2.22589e-06
0.509945
1.91374e-06
0.509945
1.50106e-06
0.509946
1.43763e-06
0.509946
1.66806e-06
0.509946
2.08364e-06
0.509947
2.48454e-06
0.509946
2.50478e-06
0.509946
2.07171e-06
0.509946
1.48637e-06
0.509946
1.36128e-06
0.509946
1.88209e-06
0.509946
2.38928e-06
0.509946
2.40021e-06
0.509947
1.92115e-06
0.509947
1.28954e-06
0.509948
1.09171e-06
0.509947
1.45174e-06
0.509947
1.92792e-06
0.509947
2.08127e-06
0.509947
1.89904e-06
0.509948
1.65518e-06
0.509949
1.50736e-06
0.509949
1.47843e-06
0.509949
1.56395e-06
0.509949
1.76395e-06
0.509949
1.96224e-06
0.509949
2.06327e-06
0.509949
2.13198e-06
0.50995
2.04478e-06
0.50995
1.7292e-06
0.50995
1.49673e-06
0.50995
1.46499e-06
0.50995
1.47876e-06
0.50995
1.5393e-06
0.509951
1.71917e-06
0.509951
1.9857e-06
0.509952
2.23039e-06
0.509952
2.29062e-06
0.509952
2.04593e-06
0.509953
1.62492e-06
0.509953
1.29317e-06
0.509954
1.19346e-06
0.509954
1.34692e-06
0.509954
1.63992e-06
0.509954
1.85072e-06
0.509954
1.93387e-06
0.509955
1.98469e-06
0.509955
1.91826e-06
0.509956
1.67025e-06
0.509956
1.45938e-06
0.509956
1.45165e-06
0.509956
1.61351e-06
0.509956
1.86773e-06
0.509956
2.07609e-06
0.509956
2.12526e-06
0.509956
2.05168e-06
0.509956
1.95773e-06
0.509956
1.89234e-06
0.509956
1.87666e-06
0.509956
1.94059e-06
0.509956
2.03187e-06
0.509956
2.05696e-06
0.509956
1.95608e-06
0.509956
1.67786e-06
0.509956
1.3449e-06
0.509957
1.2614e-06
0.509957
1.49997e-06
0.509958
1.8467e-06
0.509958
2.15082e-06
0.509958
2.32644e-06
0.509958
2.22759e-06
0.509959
1.92379e-06
0.50996
1.70796e-06
0.50996
1.65975e-06
0.50996
1.65843e-06
0.509961
1.72495e-06
0.509961
1.90136e-06
0.509961
2.04479e-06
0.509962
2.00957e-06
0.509962
1.84764e-06
0.509963
1.70589e-06
0.509963
1.69126e-06
0.509962
1.79822e-06
0.509962
1.9107e-06
0.509961
1.96155e-06
0.509961
1.95401e-06
0.509961
1.82129e-06
0.509961
1.61291e-06
0.509962
1.52097e-06
0.509962
1.56837e-06
0.509962
1.70572e-06
0.509962
1.93778e-06
0.509962
2.13882e-06
0.509962
2.17442e-06
0.509962
2.05418e-06
0.509962
1.84308e-06
0.509963
1.66122e-06
0.509963
1.59593e-06
0.509963
1.61253e-06
0.509963
1.66203e-06
0.509964
1.71891e-06
0.509964
1.7812e-06
0.509965
1.84987e-06
0.509965
1.89437e-06
0.509966
1.87951e-06
0.509966
1.72117e-06
0.509967
1.43647e-06
0.509967
1.26048e-06
0.509968
1.28591e-06
0.509968
1.40593e-06
0.509969
1.63548e-06
0.509969
1.96732e-06
0.509969
2.19271e-06
0.50997
2.20606e-06
0.509971
2.15551e-06
0.509971
2.11599e-06
0.509971
1.9543e-06
0.509971
1.68023e-06
0.509971
1.48532e-06
0.509972
1.4018e-06
0.509972
1.39393e-06
0.509972
1.53809e-06
0.509972
1.79091e-06
0.509972
1.94954e-06
0.509972
1.92853e-06
0.509972
1.82752e-06
0.509972
1.78091e-06
0.509973
1.8427e-06
0.509973
1.9489e-06
0.509973
1.98151e-06
0.509973
1.88797e-06
0.509973
1.70385e-06
0.509973
1.5321e-06
0.509974
1.4795e-06
0.509974
1.54218e-06
0.509975
1.62103e-06
0.509975
1.65511e-06
0.509976
1.68192e-06
0.509976
1.75886e-06
0.509977
1.86027e-06
0.509977
1.91832e-06
0.509977
1.86839e-06
0.509978
1.67759e-06
0.509978
1.48797e-06
0.509979
1.46067e-06
0.509979
1.52058e-06
0.50998
1.58045e-06
0.50998
1.65062e-06
0.50998
1.67368e-06
0.50998
1.64895e-06
0.50998
1.67947e-06
0.50998
1.77433e-06
0.50998
1.91744e-06
0.50998
2.11849e-06
0.50998
2.24324e-06
0.50998
2.16121e-06
0.50998
2.00938e-06
0.50998
1.95693e-06
0.50998
1.93048e-06
0.50998
1.85241e-06
0.50998
1.81253e-06
0.50998
1.82016e-06
0.509981
1.76782e-06
0.509981
1.71895e-06
0.509981
1.81907e-06
0.509981
1.95456e-06
0.509981
1.92339e-06
0.509981
1.79036e-06
0.509982
1.74786e-06
0.509982
1.83694e-06
0.509982
1.92471e-06
0.509982
1.88763e-06
0.509983
1.80459e-06
0.509983
1.80592e-06
0.509983
1.83119e-06
0.509983
1.78546e-06
0.509983
1.75579e-06
0.509983
1.87482e-06
0.509983
2.07554e-06
0.509983
2.16421e-06
0.509982
2.10156e-06
0.509982
2.00209e-06
0.509982
1.9695e-06
0.509982
2.02797e-06
0.509982
2.07389e-06
0.509983
2.04207e-06
0.509983
2.00891e-06
0.509983
1.96144e-06
0.509983
1.86517e-06
0.509983
1.8039e-06
0.509983
1.73993e-06
0.509983
1.58058e-06
0.509984
1.45486e-06
0.509985
1.51683e-06
0.509985
1.66779e-06
0.509986
1.70544e-06
0.509986
1.59612e-06
0.509986
1.4886e-06
0.509987
1.49424e-06
0.509988
1.5724e-06
0.509989
1.65463e-06
0.509989
1.68359e-06
0.50999
1.66065e-06
0.509991
1.64056e-06
1.70448e-06
0.509931
5.70691e-07
0.50993
9.27781e-07
0.509931
4.28831e-07
0.509933
3.71593e-07
0.509934
8.92317e-07
0.509935
1.15086e-06
0.509935
1.16931e-06
0.509935
1.30005e-06
0.509934
1.75818e-06
0.509934
1.27418e-06
0.509935
1.0749e-06
0.509936
1.78915e-06
0.509935
1.96312e-06
0.509934
1.78685e-06
0.509934
1.62438e-06
0.509934
1.3637e-06
0.509934
1.35058e-06
0.509934
1.35742e-06
0.509934
1.32583e-06
0.509934
1.86257e-06
0.509933
2.30055e-06
0.509933
1.92932e-06
0.509933
1.43914e-06
0.509933
1.19741e-06
0.509934
1.26126e-06
0.509934
1.45775e-06
0.509935
1.4299e-06
0.509937
1.0236e-06
0.509939
6.92889e-07
0.509939
1.06831e-06
0.509939
1.9846e-06
0.509938
2.76623e-06
0.509937
2.3966e-06
0.509936
1.48402e-06
0.509936
1.14313e-06
0.509936
1.2959e-06
0.509936
1.76287e-06
0.509936
2.10815e-06
0.509936
1.86448e-06
0.509936
1.27161e-06
0.509937
9.45426e-07
0.509938
1.25009e-06
0.509938
1.7813e-06
0.509938
1.94427e-06
0.509939
1.7882e-06
0.509939
1.37577e-06
0.50994
1.00674e-06
0.50994
1.23214e-06
0.50994
1.79049e-06
0.50994
2.0493e-06
0.50994
1.72376e-06
0.509942
9.89609e-07
0.509943
5.82114e-07
0.509944
8.8028e-07
0.509944
1.51978e-06
0.509944
2.0257e-06
0.509944
2.02148e-06
0.509945
1.61283e-06
0.509946
1.28262e-06
0.509946
1.2222e-06
0.509945
1.38368e-06
0.509945
1.65167e-06
0.509945
1.88568e-06
0.509945
1.95774e-06
0.509945
1.81738e-06
0.509945
1.55066e-06
0.509946
1.2245e-06
0.509946
9.77093e-07
0.509947
1.01456e-06
0.509947
1.38597e-06
0.509947
1.81552e-06
0.509947
1.96215e-06
0.509948
1.87797e-06
0.509948
1.76416e-06
0.509948
1.59651e-06
0.509948
1.44553e-06
0.509948
1.45057e-06
0.509948
1.53319e-06
0.509948
1.6205e-06
0.509948
1.74579e-06
0.509948
1.86524e-06
0.509948
1.89227e-06
0.509949
1.81228e-06
0.509949
1.62256e-06
0.50995
1.366e-06
0.50995
1.17303e-06
0.50995
1.13758e-06
0.50995
1.30916e-06
0.50995
1.67411e-06
0.50995
1.99685e-06
0.50995
2.03056e-06
0.50995
1.86566e-06
0.50995
1.66806e-06
0.50995
1.46885e-06
0.50995
1.35743e-06
0.50995
1.3807e-06
0.50995
1.44282e-06
0.509951
1.49816e-06
0.509951
1.53963e-06
0.509952
1.51894e-06
0.509953
1.44276e-06
0.509953
1.38952e-06
0.509954
1.4089e-06
0.509954
1.49693e-06
0.509954
1.6251e-06
0.509955
1.69057e-06
0.509955
1.60892e-06
0.509956
1.4578e-06
0.509956
1.32271e-06
0.509956
1.22739e-06
0.509956
1.29587e-06
0.509956
1.56883e-06
0.509956
1.82919e-06
0.509956
1.93548e-06
0.509957
1.9478e-06
0.509957
1.8364e-06
0.509957
1.53484e-06
0.509958
1.2423e-06
0.509958
1.17675e-06
0.509959
1.26029e-06
0.509959
1.34422e-06
0.50996
1.40857e-06
0.50996
1.44774e-06
0.509961
1.41974e-06
0.509961
1.32973e-06
0.509962
1.23421e-06
0.509962
1.19765e-06
0.509963
1.2751e-06
0.509963
1.43702e-06
0.509964
1.61606e-06
0.509964
1.7956e-06
0.509964
1.85405e-06
0.509964
1.688e-06
0.509964
1.47476e-06
0.509964
1.40648e-06
0.509964
1.50126e-06
0.509964
1.73365e-06
0.509964
1.95816e-06
0.509965
2.00283e-06
0.509965
1.8676e-06
0.509965
1.6271e-06
0.509965
1.39462e-06
0.509966
1.28701e-06
0.509966
1.31351e-06
0.509966
1.44379e-06
0.509966
1.6375e-06
0.509966
1.81009e-06
0.509966
1.86162e-06
0.509966
1.74413e-06
0.509967
1.55034e-06
0.509967
1.35017e-06
0.509967