/*--------------------------------*- C++ -*----------------------------------*\
| =========                 |                                                 |
| \\      /  F ield         | OpenFOAM: The Open Source CFD Toolbox           |
|  \\    /   O peration     | Version:  2406                                  |
|   \\  /    A nd           | Website:  www.openfoam.com                      |
|    \\/     M anipulation  |                                                 |
\*---------------------------------------------------------------------------*/
FoamFile
{
    version     2.0;
    format      ascii;
    arch        "LSB;label=32;scalar=64";
    class       volVectorField;
    location    "1.2";
    object      U;
}
// * * * * * * * * * * * * * * * * * * * * * * * * * * * * * * * * * * * * * //

dimensions      [0 1 -1 0 0 0 0];

internalField   nonuniform List<vector> 
6250
(
(50.4705 7.41803e-05 0)
(85.2851 0.000507481 0)
(73.1082 0.000794248 0)
(60.4887 0.000858442 0)
(59.7552 0.000830024 0)
(63.2109 0.00078407 0)
(64.7153 0.000737967 0)
(64.2634 0.000748257 0)
(63.6472 0.000816618 0)
(63.5452 0.000820076 0)
(63.6879 0.000785718 0)
(63.7717 0.000758634 0)
(63.7613 0.000811739 0)
(63.7316 0.000914532 0)
(63.7228 0.0010069 0)
(63.7275 0.00108337 0)
(63.731 0.00109604 0)
(63.7304 0.00105955 0)
(63.7284 0.00103427 0)
(63.7271 0.00100536 0)
(63.7265 0.000927148 0)
(63.7261 0.000805646 0)
(63.7255 0.000704682 0)
(63.725 0.000696263 0)
(63.7244 0.000786774 0)
(63.7237 0.000864499 0)
(63.723 0.000857284 0)
(63.7224 0.000815915 0)
(63.7218 0.000820069 0)
(63.721 0.00086137 0)
(63.7203 0.000898009 0)
(63.7196 0.000940839 0)
(63.7189 0.000956633 0)
(63.7182 0.000906264 0)
(63.7176 0.000826787 0)
(63.717 0.000762565 0)
(63.7164 0.000740577 0)
(63.7158 0.000773024 0)
(63.7151 0.000844467 0)
(63.7145 0.000925188 0)
(63.7138 0.000990131 0)
(63.713 0.00102473 0)
(63.7123 0.0010079 0)
(63.7115 0.000922018 0)
(63.7108 0.000805376 0)
(63.7102 0.00073319 0)
(63.7096 0.000735922 0)
(63.7088 0.00079266 0)
(63.7081 0.000871476 0)
(63.7074 0.00092775 0)
(63.7067 0.000932473 0)
(63.7061 0.000908766 0)
(63.7054 0.000882152 0)
(63.7047 0.000862893 0)
(63.7041 0.000861618 0)
(63.7035 0.000883261 0)
(63.7028 0.000924004 0)
(63.7021 0.000957174 0)
(63.7013 0.000951886 0)
(63.7005 0.00089855 0)
(63.6999 0.000818327 0)
(63.6994 0.000767751 0)
(63.6989 0.000791839 0)
(63.6983 0.000888146 0)
(63.6976 0.00100924 0)
(63.6969 0.00109652 0)
(63.6962 0.00111955 0)
(63.6954 0.00107798 0)
(63.6947 0.00100082 0)
(63.6941 0.000934345 0)
(63.6934 0.000904066 0)
(63.6927 0.000901781 0)
(63.692 0.00091473 0)
(63.6913 0.000944561 0)
(63.6905 0.000975385 0)
(63.6898 0.000974498 0)
(63.6891 0.000943683 0)
(63.6885 0.000914193 0)
(63.6879 0.000910092 0)
(63.6873 0.000940015 0)
(63.6867 0.00099306 0)
(63.686 0.00103696 0)
(63.6852 0.00103991 0)
(63.6845 0.000997888 0)
(63.6838 0.000933223 0)
(63.6832 0.00087524 0)
(63.6826 0.000845153 0)
(63.682 0.000847797 0)
(63.6814 0.000877232 0)
(63.6807 0.000922663 0)
(63.68 0.00096599 0)
(63.6793 0.000990872 0)
(63.6785 0.00099887 0)
(63.6778 0.00099695 0)
(63.6771 0.000983879 0)
(63.6764 0.000967288 0)
(63.6758 0.000956364 0)
(63.6752 0.000948672 0)
(63.6746 0.000948016 0)
(63.674 0.000962435 0)
(63.6733 0.000987132 0)
(63.6726 0.0010076 0)
(63.6719 0.00101314 0)
(63.6712 0.00100343 0)
(63.6705 0.000985902 0)
(63.6698 0.000971482 0)
(63.6691 0.00096423 0)
(63.6684 0.000959941 0)
(63.6677 0.000956717 0)
(63.667 0.000951772 0)
(63.6664 0.000940038 0)
(63.6657 0.000922598 0)
(63.6651 0.000901522 0)
(63.6645 0.000875157 0)
(63.6638 0.000852496 0)
(63.6631 0.000849858 0)
(63.6625 0.000863241 0)
(63.6618 0.000875532 0)
(63.6611 0.000886387 0)
(63.6604 0.000901294 0)
(63.6597 0.000912287 0)
(63.6591 0.000915222 0)
(63.6584 0.000916378 0)
(63.6578 0.000912821 0)
(63.6571 0.000896634 0)
(63.6564 0.000874221 0)
(63.6558 0.00086171 0)
(63.6551 0.000870215 0)
(63.6544 0.000901757 0)
(63.6537 0.000951518 0)
(63.653 0.00101113 0)
(63.6523 0.00106852 0)
(63.6516 0.0011036 0)
(63.6508 0.0011013 0)
(63.6501 0.00106978 0)
(63.6494 0.00102271 0)
(63.6488 0.00096583 0)
(63.6481 0.000916143 0)
(63.6475 0.00089727 0)
(63.6468 0.000916448 0)
(63.646 0.00096225 0)
(63.6453 0.0010096 0)
(63.6445 0.00103258 0)
(63.6438 0.00102156 0)
(63.6431 0.000987045 0)
(63.6424 0.000953536 0)
(63.6418 0.000942094 0)
(63.6411 0.000955063 0)
(63.6404 0.00098094 0)
(63.6397 0.00100303 0)
(63.639 0.00100512 0)
(63.6383 0.000977393 0)
(63.6376 0.000926687 0)
(63.637 0.000886371 0)
(63.6364 0.000891343 0)
(63.6357 0.00094152 0)
(63.6349 0.00101115 0)
(63.6342 0.00106867 0)
(63.6334 0.00108098 0)
(63.6326 0.0010376 0)
(63.6319 0.000968049 0)
(63.6312 0.000910974 0)
(63.6306 0.000878046 0)
(63.6299 0.000868023 0)
(63.6293 0.000891819 0)
(63.6287 0.000950963 0)
(63.628 0.00102085 0)
(63.6273 0.00107676 0)
(63.6266 0.00110867 0)
(63.6258 0.00111581 0)
(63.6251 0.00110955 0)
(63.6244 0.00110685 0)
(63.6238 0.00110901 0)
(63.6231 0.00109695 0)
(63.6224 0.0010513 0)
(63.6217 0.00097602 0)
(63.6211 0.000903153 0)
(63.6205 0.000871141 0)
(63.62 0.00089755 0)
(63.6193 0.000969461 0)
(63.6186 0.0010469 0)
(63.6179 0.00107963 0)
(63.6171 0.00104212 0)
(63.6165 0.000956812 0)
(63.6159 0.000873464 0)
(63.6153 0.0008268 0)
(63.6147 0.00082034 0)
(63.6141 0.000840609 0)
(63.6135 0.000870154 0)
(63.6128 0.000897822 0)
(63.6122 0.000921992 0)
(63.6115 0.000934563 0)
(63.6108 0.000924876 0)
(63.6101 0.00090269 0)
(63.6095 0.000888998 0)
(63.6089 0.000896221 0)
(63.6083 0.000923852 0)
(63.6077 0.000953321 0)
(63.607 0.000959521 0)
(63.6063 0.000936116 0)
(63.6057 0.000895844 0)
(63.6051 0.000859743 0)
(63.6045 0.000855384 0)
(63.6039 0.000897504 0)
(63.6033 0.000962486 0)
(63.6025 0.001007 0)
(63.6018 0.00100941 0)
(63.6012 0.000976705 0)
(63.6005 0.000928122 0)
(63.5999 0.000889734 0)
(63.5993 0.000884918 0)
(63.5987 0.000909567 0)
(63.598 0.000937798 0)
(63.5973 0.000961984 0)
(63.5966 0.000996008 0)
(63.5959 0.00103766 0)
(63.5951 0.00106129 0)
(63.5943 0.00105297 0)
(63.5936 0.00103563 0)
(63.5929 0.00104475 0)
(63.5922 0.00108314 0)
(63.5914 0.00112224 0)
(63.5907 0.00114063 0)
(63.59 0.00113349 0)
(63.5893 0.00109926 0)
(63.5886 0.0010465 0)
(63.5879 0.00100721 0)
(63.5872 0.00101634 0)
(63.5865 0.00107283 0)
(63.5857 0.00113784 0)
(63.5849 0.00116466 0)
(63.584 0.00113171 0)
(63.5833 0.00106375 0)
(63.5827 0.00100583 0)
(63.582 0.000982745 0)
(63.5813 0.000996463 0)
(63.5806 0.00103078 0)
(63.5799 0.00105942 0)
(63.5792 0.00106904 0)
(63.5784 0.00105919 0)
(63.5777 0.0010269 0)
(63.5769 0.000979366 0)
(63.5763 0.000948093 0)
(63.5756 0.000962895 0)
(63.5748 0.00101171 0)
(63.5741 0.00104322 0)
(63.5733 0.00102781 0)
(63.5726 0.000969273 0)
(63.572 0.000939185 0)
(63.5709 0.000896253 0)
(50.4711 6.73397e-05 0)
(85.286 0.000406558 0)
(73.1114 0.000602307 0)
(60.4933 0.00058817 0)
(59.7611 0.00053698 0)
(63.2172 0.000544735 0)
(64.7226 0.000563295 0)
(64.2714 0.000523746 0)
(63.6569 0.000457867 0)
(63.5558 0.000393111 0)
(63.6994 0.00041675 0)
(63.7843 0.00050803 0)
(63.7747 0.000604264 0)
(63.7462 0.000617111 0)
(63.7385 0.000543728 0)
(63.7446 0.000502738 0)
(63.7498 0.00052946 0)
(63.7502 0.000550282 0)
(63.7495 0.00052709 0)
(63.7496 0.000517341 0)
(63.7502 0.00051402 0)
(63.7507 0.000470573 0)
(63.7509 0.000399819 0)
(63.751 0.000348758 0)
(63.7514 0.000357169 0)
(63.7519 0.000397105 0)
(63.7522 0.000457678 0)
(63.7524 0.000525002 0)
(63.7526 0.00055261 0)
(63.753 0.000517222 0)
(63.7534 0.00043901 0)
(63.7539 0.000434498 0)
(63.7544 0.000501498 0)
(63.7546 0.000500726 0)
(63.755 0.000443984 0)
(63.7554 0.000419862 0)
(63.7557 0.000434644 0)
(63.7559 0.0004498 0)
(63.7562 0.000435704 0)
(63.7565 0.000407295 0)
(63.7569 0.000405585 0)
(63.7574 0.000455906 0)
(63.7579 0.000530582 0)
(63.7584 0.000558615 0)
(63.7587 0.000539177 0)
(63.759 0.000543516 0)
(63.7592 0.000574105 0)
(63.7595 0.000569466 0)
(63.7599 0.000524917 0)
(63.7604 0.000482159 0)
(63.7607 0.000462317 0)
(63.761 0.000471833 0)
(63.7613 0.000480926 0)
(63.7616 0.000446957 0)
(63.7619 0.000384296 0)
(63.7623 0.000352681 0)
(63.7628 0.000401079 0)
(63.7633 0.000497618 0)
(63.7637 0.000561221 0)
(63.764 0.000548905 0)
(63.7642 0.000464863 0)
(63.7643 0.000359173 0)
(63.7645 0.000288219 0)
(63.7648 0.000272936 0)
(63.7653 0.000300747 0)
(63.7657 0.000340951 0)
(63.7662 0.000373001 0)
(63.7666 0.000381912 0)
(63.767 0.000362492 0)
(63.7674 0.000346892 0)
(63.7678 0.000376132 0)
(63.7682 0.000446024 0)
(63.7685 0.000511639 0)
(63.7689 0.000548172 0)
(63.7693 0.000548987 0)
(63.7697 0.000497895 0)
(63.77 0.000410861 0)
(63.7703 0.00033009 0)
(63.7706 0.000277347 0)
(63.7709 0.000261146 0)
(63.7714 0.000289426 0)
(63.7719 0.000352642 0)
(63.7724 0.000415688 0)
(63.7728 0.00044822 0)
(63.7732 0.000444238 0)
(63.7734 0.000415401 0)
(63.7737 0.000383663 0)
(63.774 0.000364404 0)
(63.7743 0.000362693 0)
(63.7747 0.000383091 0)
(63.7752 0.000419588 0)
(63.7756 0.000448235 0)
(63.776 0.000453964 0)
(63.7764 0.000436568 0)
(63.7767 0.000391919 0)
(63.777 0.000338268 0)
(63.7774 0.000310025 0)
(63.7777 0.00030866 0)
(63.778 0.000316702 0)
(63.7784 0.000324742 0)
(63.7787 0.000330828 0)
(63.7791 0.000339734 0)
(63.7795 0.000358493 0)
(63.7799 0.000387744 0)
(63.7803 0.000418164 0)
(63.7806 0.000441887 0)
(63.781 0.000453222 0)
(63.7814 0.000443105 0)
(63.7817 0.00041477 0)
(63.7821 0.000383038 0)
(63.7824 0.00036097 0)
(63.7828 0.000363947 0)
(63.7832 0.00039707 0)
(63.7835 0.000435523 0)
(63.7838 0.000455513 0)
(63.7841 0.000467583 0)
(63.7845 0.000481365 0)
(63.7848 0.000482027 0)
(63.7851 0.000468086 0)
(63.7855 0.000454509 0)
(63.7859 0.000438329 0)
(63.7862 0.000414593 0)
(63.7866 0.000401018 0)
(63.7869 0.000409436 0)
(63.7873 0.000427468 0)
(63.7876 0.000442643 0)
(63.7879 0.00045331 0)
(63.7882 0.000457796 0)
(63.7885 0.00045088 0)
(63.7889 0.000428883 0)
(63.7893 0.000398035 0)
(63.7897 0.000374987 0)
(63.7902 0.000363724 0)
(63.7907 0.000350928 0)
(63.7911 0.000341489 0)
(63.7915 0.000353508 0)
(63.7919 0.000383243 0)
(63.7922 0.00041928 0)
(63.7925 0.000454309 0)
(63.7928 0.000475262 0)
(63.7932 0.000477882 0)
(63.7937 0.00046914 0)
(63.7941 0.000454004 0)
(63.7946 0.000433726 0)
(63.7949 0.000405264 0)
(63.7953 0.000373949 0)
(63.7956 0.000358096 0)
(63.7959 0.000368674 0)
(63.7963 0.000400138 0)
(63.7967 0.000434722 0)
(63.7971 0.000454767 0)
(63.7975 0.000451209 0)
(63.7978 0.000421047 0)
(63.7981 0.000383243 0)
(63.7984 0.000370776 0)
(63.7989 0.000387817 0)
(63.7993 0.000420498 0)
(63.7999 0.000464034 0)
(63.8004 0.000501359 0)
(63.8007 0.000504694 0)
(63.8011 0.000475745 0)
(63.8014 0.000443516 0)
(63.8017 0.000415882 0)
(63.8019 0.000377879 0)
(63.8022 0.000340185 0)
(63.8026 0.000328334 0)
(63.803 0.000338295 0)
(63.8035 0.00035211 0)
(63.804 0.000358484 0)
(63.8044 0.00034345 0)
(63.8048 0.00030411 0)
(63.8052 0.000265523 0)
(63.8056 0.000258714 0)
(63.806 0.000288252 0)
(63.8064 0.000327648 0)
(63.8067 0.000343835 0)
(63.8069 0.000327305 0)
(63.8071 0.000296708 0)
(63.8074 0.000276516 0)
(63.8078 0.000282666 0)
(63.8083 0.000316981 0)
(63.8088 0.000360259 0)
(63.8092 0.000385766 0)
(63.8095 0.00038449 0)
(63.8098 0.000370542 0)
(63.81 0.000361277 0)
(63.8102 0.000362228 0)
(63.8105 0.000372483 0)
(63.8109 0.000385391 0)
(63.8112 0.000393642 0)
(63.8116 0.000403861 0)
(63.812 0.000417283 0)
(63.8124 0.000417443 0)
(63.8127 0.000399993 0)
(63.813 0.000373665 0)
(63.8133 0.000345205 0)
(63.8136 0.000329746 0)
(63.814 0.000337948 0)
(63.8144 0.000358177 0)
(63.8147 0.000375495 0)
(63.815 0.00037973 0)
(63.8152 0.000360513 0)
(63.8154 0.000328681 0)
(63.8157 0.000318218 0)
(63.8161 0.000339975 0)
(63.8166 0.000367335 0)
(63.817 0.000379873 0)
(63.8173 0.000379848 0)
(63.8176 0.000367989 0)
(63.8179 0.00034734 0)
(63.8181 0.000341054 0)
(63.8185 0.000362696 0)
(63.8188 0.000387708 0)
(63.8192 0.000394412 0)
(63.8196 0.000400354 0)
(63.8201 0.000425675 0)
(63.8205 0.000454384 0)
(63.821 0.000452432 0)
(63.8213 0.000413023 0)
(63.8217 0.000367367 0)
(63.8221 0.00034123 0)
(63.8225 0.000330071 0)
(63.823 0.000329028 0)
(63.8234 0.00034541 0)
(63.8238 0.000370607 0)
(63.8241 0.000376003 0)
(63.8244 0.000352806 0)
(63.8248 0.000331438 0)
(63.8252 0.000343153 0)
(63.8258 0.000387102 0)
(63.8263 0.000434808 0)
(63.8267 0.00045227 0)
(63.8271 0.000434798 0)
(63.8274 0.000403864 0)
(63.8277 0.000373059 0)
(63.828 0.000354913 0)
(63.8284 0.000361923 0)
(63.8289 0.000384647 0)
(63.8293 0.000409434 0)
(63.8298 0.000436493 0)
(63.8302 0.000457995 0)
(63.8306 0.000454087 0)
(63.831 0.00042497 0)
(63.8314 0.00040286 0)
(63.8319 0.000415589 0)
(63.8324 0.000448788 0)
(63.8328 0.000477481 0)
(63.8332 0.000483425 0)
(63.8335 0.000497512 0)
(63.834 0.000464749 0)
(50.4706 1.70861e-05 0)
(85.2855 6.95806e-05 0)
(73.1099 4.94582e-05 0)
(60.491 1.80571e-05 0)
(59.7584 2.84438e-05 0)
(63.2147 7.77465e-05 0)
(64.7201 0.000162761 0)
(64.2688 0.000186763 0)
(63.6534 0.00016964 0)
(63.5517 0.000165467 0)
(63.6949 0.000176111 0)
(63.7795 0.000180689 0)
(63.7699 0.000171846 0)
(63.7414 0.000135556 0)
(63.7332 7.49019e-05 0)
(63.7384 4.8039e-06 0)
(63.7428 -3.27116e-05 0)
(63.7429 -4.60046e-05 0)
(63.7417 -8.62935e-05 0)
(63.7412 -5.98475e-05 0)
(63.7416 5.91785e-05 0)
(63.7419 0.00017689 0)
(63.7421 0.000234521 0)
(63.7419 0.000216264 0)
(63.7418 0.000180033 0)
(63.7417 0.000186068 0)
(63.7416 0.000221332 0)
(63.742 0.000258391 0)
(63.7423 0.00027442 0)
(63.7423 0.000278072 0)
(63.7423 0.000229557 0)
(63.7421 0.000142121 0)
(63.7422 0.000100953 0)
(63.7424 8.17965e-05 0)
(63.7422 8.93762e-05 0)
(63.7421 0.000166012 0)
(63.7421 0.000247266 0)
(63.7421 0.000269887 0)
(63.7422 0.000244054 0)
(63.7422 0.000208555 0)
(63.7421 0.000171034 0)
(63.7421 0.000116201 0)
(63.7422 7.78952e-05 0)
(63.7424 8.40477e-05 0)
(63.7425 0.000120756 0)
(63.7426 0.000181118 0)
(63.7427 0.000229027 0)
(63.7428 0.00020634 0)
(63.7429 0.000124354 0)
(63.7429 6.83968e-05 0)
(63.743 8.88474e-05 0)
(63.7431 0.000172913 0)
(63.7432 0.000271526 0)
(63.7433 0.000308109 0)
(63.7433 0.00025261 0)
(63.7433 0.000153662 0)
(63.7433 0.000104476 0)
(63.7433 0.000144397 0)
(63.7434 0.000217997 0)
(63.7435 0.000270583 0)
(63.7437 0.000283417 0)
(63.7439 0.000274864 0)
(63.7439 0.000280554 0)
(63.7438 0.000300575 0)
(63.7437 0.000309362 0)
(63.7435 0.00028039 0)
(63.7435 0.000226308 0)
(63.7436 0.000192316 0)
(63.7437 0.000189225 0)
(63.7436 0.000196358 0)
(63.7436 0.00020744 0)
(63.7436 0.000227952 0)
(63.7436 0.000236909 0)
(63.7436 0.000216918 0)
(63.7437 0.000192468 0)
(63.7439 0.000178831 0)
(63.7439 0.000174925 0)
(63.744 0.000188685 0)
(63.744 0.000211387 0)
(63.7439 0.000216766 0)
(63.7438 0.000199053 0)
(63.7437 0.000184153 0)
(63.7436 0.000190654 0)
(63.7436 0.000211029 0)
(63.7437 0.000226791 0)
(63.7437 0.000221118 0)
(63.7438 0.000199368 0)
(63.7439 0.000181773 0)
(63.7439 0.000177157 0)
(63.7438 0.000188414 0)
(63.7438 0.000217555 0)
(63.7438 0.000249361 0)
(63.7438 0.00026518 0)
(63.7439 0.000268703 0)
(63.7439 0.000259232 0)
(63.7439 0.000234206 0)
(63.7439 0.000221767 0)
(63.744 0.000242652 0)
(63.744 0.000280872 0)
(63.744 0.000308664 0)
(63.744 0.00030911 0)
(63.744 0.000286333 0)
(63.7439 0.00026035 0)
(63.744 0.000250033 0)
(63.744 0.000255193 0)
(63.744 0.000264235 0)
(63.7441 0.000271197 0)
(63.7441 0.000266763 0)
(63.7442 0.000243284 0)
(63.7442 0.000206144 0)
(63.7443 0.000163353 0)
(63.7443 0.000132753 0)
(63.7444 0.000144222 0)
(63.7445 0.000197158 0)
(63.7445 0.000246217 0)
(63.7445 0.000260663 0)
(63.7445 0.000249364 0)
(63.7446 0.000221459 0)
(63.7447 0.000185661 0)
(63.7448 0.000169223 0)
(63.7449 0.00018379 0)
(63.7449 0.000206708 0)
(63.7449 0.000220782 0)
(63.745 0.000229444 0)
(63.745 0.000232044 0)
(63.7451 0.000224642 0)
(63.7452 0.000216146 0)
(63.7454 0.000221326 0)
(63.7455 0.000244415 0)
(63.7455 0.00026929 0)
(63.7455 0.000269884 0)
(63.7455 0.000242898 0)
(63.7455 0.000209604 0)
(63.7455 0.000178756 0)
(63.7454 0.000153449 0)
(63.7455 0.000154861 0)
(63.7455 0.000191077 0)
(63.7455 0.000243988 0)
(63.7456 0.00029054 0)
(63.7457 0.000304938 0)
(63.7457 0.000275332 0)
(63.7457 0.000219758 0)
(63.7457 0.000170693 0)
(63.7458 0.000158265 0)
(63.7459 0.000186696 0)
(63.746 0.0002295 0)
(63.746 0.000260329 0)
(63.746 0.000268496 0)
(63.7459 0.000256501 0)
(63.746 0.000233852 0)
(63.746 0.000213522 0)
(63.7461 0.000210415 0)
(63.7462 0.000218218 0)
(63.7463 0.000215256 0)
(63.7464 0.000201699 0)
(63.7464 0.00018364 0)
(63.7463 0.000158248 0)
(63.7463 0.000143626 0)
(63.7463 0.000164345 0)
(63.7464 0.000207302 0)
(63.7464 0.000238173 0)
(63.7465 0.00025195 0)
(63.7466 0.000263664 0)
(63.7467 0.000263646 0)
(63.7467 0.000238806 0)
(63.7467 0.000208065 0)
(63.7467 0.000192384 0)
(63.7467 0.000197447 0)
(63.7467 0.000228666 0)
(63.7468 0.000277012 0)
(63.7467 0.000310151 0)
(63.7466 0.000304915 0)
(63.7466 0.000274193 0)
(63.7465 0.000254673 0)
(63.7466 0.000273233 0)
(63.7467 0.000322308 0)
(63.7467 0.000367142 0)
(63.7468 0.000376966 0)
(63.7467 0.000341542 0)
(63.7467 0.000273192 0)
(63.7466 0.000207223 0)
(63.7465 0.000180396 0)
(63.7465 0.000200185 0)
(63.7466 0.000242086 0)
(63.7467 0.000277637 0)
(63.7467 0.000294522 0)
(63.7467 0.000290398 0)
(63.7467 0.00027 0)
(63.7467 0.000242034 0)
(63.7467 0.000208826 0)
(63.7467 0.000181718 0)
(63.7467 0.000181424 0)
(63.7468 0.000205571 0)
(63.7469 0.000236476 0)
(63.747 0.000261775 0)
(63.747 0.000267737 0)
(63.747 0.00025453 0)
(63.747 0.000244583 0)
(63.747 0.000253215 0)
(63.747 0.000281719 0)
(63.7471 0.000325566 0)
(63.7472 0.000359824 0)
(63.7472 0.000351075 0)
(63.7472 0.000303517 0)
(63.7472 0.000255217 0)
(63.7472 0.000228926 0)
(63.7472 0.000226395 0)
(63.7473 0.000249552 0)
(63.7474 0.000285852 0)
(63.7475 0.000301965 0)
(63.7475 0.000287785 0)
(63.7476 0.000273506 0)
(63.7476 0.000274707 0)
(63.7476 0.000267613 0)
(63.7476 0.000239373 0)
(63.7476 0.000215859 0)
(63.7476 0.000227435 0)
(63.7477 0.000266981 0)
(63.7478 0.00029568 0)
(63.7479 0.000294373 0)
(63.7479 0.00027887 0)
(63.7479 0.000261645 0)
(63.7479 0.000243246 0)
(63.7479 0.000239441 0)
(63.7479 0.000272905 0)
(63.748 0.000331683 0)
(63.7481 0.000368392 0)
(63.748 0.000352382 0)
(63.748 0.000296731 0)
(63.7479 0.000240235 0)
(63.7479 0.000220325 0)
(63.748 0.000240833 0)
(63.7481 0.000275975 0)
(63.7483 0.000304054 0)
(63.7483 0.00030663 0)
(63.7483 0.000275861 0)
(63.7483 0.000231717 0)
(63.7483 0.000192209 0)
(63.7483 0.000158389 0)
(63.7483 0.000143031 0)
(63.7484 0.000165297 0)
(63.7485 0.000210021 0)
(63.7485 0.00022979 0)
(63.7485 0.000198899 0)
(63.7484 0.000147986 0)
(63.7484 0.000123497 0)
(63.7484 0.000137893 0)
(63.7485 0.000178022 0)
(63.7486 0.000206024 0)
(63.7488 0.000218391 0)
(50.4709 -7.89434e-06 0)
(85.286 8.25673e-05 0)
(73.1106 0.000183663 0)
(60.4916 0.000218331 0)
(59.7592 0.000232494 0)
(63.2148 0.000225419 0)
(64.7203 0.000256321 0)
(64.2689 0.000354117 0)
(63.6538 0.000466245 0)
(63.5526 0.000480507 0)
(63.6958 0.000370544 0)
(63.7805 0.000258895 0)
(63.7706 0.000295687 0)
(63.7417 0.000424426 0)
(63.7337 0.000535228 0)
(63.7393 0.000590165 0)
(63.7438 0.000577458 0)
(63.7438 0.000546333 0)
(63.7423 0.000487875 0)
(63.7414 0.000401748 0)
(63.7416 0.000354545 0)
(63.7418 0.000373349 0)
(63.7419 0.000412992 0)
(63.7419 0.000419868 0)
(63.742 0.000388446 0)
(63.7421 0.000343616 0)
(63.7421 0.000254291 0)
(63.742 0.000154476 0)
(63.742 0.000139461 0)
(63.7421 0.000241878 0)
(63.7424 0.000373075 0)
(63.7425 0.000418276 0)
(63.7425 0.000450297 0)
(63.7426 0.000521631 0)
(63.7424 0.000542106 0)
(63.7425 0.000486176 0)
(63.7428 0.000403314 0)
(63.7427 0.000353961 0)
(63.7427 0.000367808 0)
(63.7427 0.00041087 0)
(63.7428 0.000425052 0)
(63.7428 0.000373203 0)
(63.7427 0.000313199 0)
(63.7427 0.000317356 0)
(63.7425 0.000341474 0)
(63.7424 0.000336535 0)
(63.7425 0.00032351 0)
(63.7426 0.000323166 0)
(63.7426 0.000336547 0)
(63.7426 0.000366241 0)
(63.7424 0.000379967 0)
(63.7423 0.000338828 0)
(63.7424 0.000274013 0)
(63.7425 0.000243232 0)
(63.7427 0.000268568 0)
(63.7427 0.000317379 0)
(63.7426 0.00035684 0)
(63.7425 0.000385692 0)
(63.7425 0.000379905 0)
(63.7426 0.000332572 0)
(63.7426 0.000273359 0)
(63.7427 0.00023805 0)
(63.7428 0.00026125 0)
(63.7429 0.00033909 0)
(63.7431 0.000424655 0)
(63.7431 0.000452873 0)
(63.7431 0.00039855 0)
(63.7431 0.000318305 0)
(63.7432 0.000282749 0)
(63.7433 0.00030382 0)
(63.7434 0.000347178 0)
(63.7434 0.000387997 0)
(63.7434 0.000407531 0)
(63.7434 0.000386745 0)
(63.7434 0.000352179 0)
(63.7435 0.000336247 0)
(63.7435 0.000333105 0)
(63.7436 0.000342716 0)
(63.7437 0.000375941 0)
(63.7437 0.000422599 0)
(63.7438 0.000455629 0)
(63.7438 0.000461664 0)
(63.7438 0.000445302 0)
(63.7438 0.00041488 0)
(63.7438 0.000379981 0)
(63.7439 0.000343269 0)
(63.7439 0.000312023 0)
(63.744 0.000304953 0)
(63.744 0.000326044 0)
(63.7441 0.000360221 0)
(63.7441 0.000391542 0)
(63.7441 0.000401513 0)
(63.7441 0.000376133 0)
(63.7442 0.000338402 0)
(63.7443 0.000319692 0)
(63.7444 0.000312152 0)
(63.7444 0.000303243 0)
(63.7444 0.000298535 0)
(63.7444 0.000302652 0)
(63.7445 0.000316148 0)
(63.7446 0.00033256 0)
(63.7447 0.00034034 0)
(63.7448 0.000335014 0)
(63.7448 0.00032615 0)
(63.7448 0.000322659 0)
(63.7448 0.000320857 0)
(63.7449 0.000318041 0)
(63.745 0.000312504 0)
(63.745 0.000303621 0)
(63.7451 0.000302456 0)
(63.7451 0.000311867 0)
(63.7451 0.000317359 0)
(63.745 0.000321025 0)
(63.745 0.000340562 0)
(63.745 0.000365156 0)
(63.745 0.00036787 0)
(63.745 0.00035096 0)
(63.745 0.000327362 0)
(63.745 0.000298375 0)
(63.7449 0.000279159 0)
(63.7449 0.000291498 0)
(63.7449 0.000323336 0)
(63.7449 0.000341292 0)
(63.7449 0.000331807 0)
(63.7449 0.000301339 0)
(63.7449 0.000259632 0)
(63.7448 0.000220312 0)
(63.7448 0.000200777 0)
(63.7449 0.000217246 0)
(63.745 0.000272517 0)
(63.7451 0.000339509 0)
(63.7452 0.000384451 0)
(63.7453 0.000404268 0)
(63.7454 0.000405632 0)
(63.7454 0.000385296 0)
(63.7454 0.000355437 0)
(63.7454 0.000333772 0)
(63.7454 0.000323305 0)
(63.7455 0.000328053 0)
(63.7456 0.000346763 0)
(63.7457 0.000363603 0)
(63.7457 0.000362721 0)
(63.7457 0.000336671 0)
(63.7457 0.000299904 0)
(63.7457 0.000282288 0)
(63.7457 0.000296407 0)
(63.7458 0.000332525 0)
(63.7458 0.000369306 0)
(63.7458 0.000385342 0)
(63.7458 0.000370165 0)
(63.7458 0.000326804 0)
(63.7458 0.000279958 0)
(63.7458 0.000254526 0)
(63.7458 0.000249951 0)
(63.7458 0.000270418 0)
(63.7459 0.000324512 0)
(63.7459 0.000387235 0)
(63.7458 0.000425889 0)
(63.7458 0.000438785 0)
(63.7457 0.000433568 0)
(63.7457 0.000401632 0)
(63.7457 0.000345099 0)
(63.7457 0.000297565 0)
(63.7458 0.000279177 0)
(63.7459 0.000276047 0)
(63.746 0.000280865 0)
(63.746 0.000294448 0)
(63.746 0.000305965 0)
(63.746 0.000314986 0)
(63.7461 0.000338123 0)
(63.7462 0.000377047 0)
(63.7464 0.000407476 0)
(63.7464 0.000402649 0)
(63.7464 0.000357846 0)
(63.7464 0.000296681 0)
(63.7464 0.000252912 0)
(63.7465 0.00024456 0)
(63.7466 0.000269435 0)
(63.7468 0.000312622 0)
(63.7469 0.000351074 0)
(63.7469 0.000369606 0)
(63.7469 0.000372258 0)
(63.7469 0.000369474 0)
(63.7469 0.000364056 0)
(63.7469 0.000356198 0)
(63.7469 0.000352476 0)
(63.747 0.000354993 0)
(63.7471 0.000358769 0)
(63.7471 0.000361596 0)
(63.7472 0.00035325 0)
(63.7472 0.00032524 0)
(63.7471 0.000294085 0)
(63.7472 0.000275707 0)
(63.7472 0.000270778 0)
(63.7473 0.00028338 0)
(63.7473 0.000308421 0)
(63.7474 0.000326652 0)
(63.7474 0.000328985 0)
(63.7474 0.00031403 0)
(63.7474 0.000283949 0)
(63.7474 0.000260505 0)
(63.7475 0.000265141 0)
(63.7476 0.000283593 0)
(63.7477 0.000289768 0)
(63.7477 0.000284687 0)
(63.7478 0.00027799 0)
(63.7478 0.000266051 0)
(63.7477 0.000254946 0)
(63.7478 0.000262832 0)
(63.7478 0.000282565 0)
(63.7478 0.000288139 0)
(63.7478 0.000283533 0)
(63.7479 0.000293579 0)
(63.748 0.00031441 0)
(63.748 0.000318416 0)
(63.748 0.000295603 0)
(63.748 0.000267696 0)
(63.748 0.000261186 0)
(63.748 0.000273309 0)
(63.7481 0.000286794 0)
(63.7482 0.000303036 0)
(63.7483 0.00032594 0)
(63.7483 0.000336589 0)
(63.7483 0.000316008 0)
(63.7483 0.000280744 0)
(63.7484 0.000267623 0)
(63.7485 0.000287355 0)
(63.7486 0.000320126 0)
(63.7487 0.000341184 0)
(63.7487 0.000337525 0)
(63.7487 0.000319925 0)
(63.7487 0.000304105 0)
(63.7487 0.000292525 0)
(63.7488 0.000293817 0)
(63.7488 0.000312859 0)
(63.7489 0.000335229 0)
(63.749 0.000355322 0)
(63.7491 0.0003757 0)
(63.7491 0.000381725 0)
(63.749 0.000361073 0)
(63.749 0.000334095 0)
(63.749 0.000335238 0)
(63.7491 0.000368998 0)
(63.7491 0.000402294 0)
(63.7491 0.000410393 0)
(63.7491 0.000398882 0)
(63.7491 0.000377164 0)
(63.749 0.00035822 0)
(63.749 0.000347609 0)
(63.749 0.000346724 0)
(50.4709 -1.20545e-05 0)
(85.2857 -1.66972e-07 0)
(73.1103 0.000117994 0)
(60.4911 0.000186383 0)
(59.7585 0.000203327 0)
(63.2144 0.000169499 0)
(64.7197 0.000108641 0)
(64.2682 8.02215e-05 0)
(63.653 6.54729e-05 0)
(63.5519 0.000117112 0)
(63.6951 0.000190957 0)
(63.7795 0.000173871 0)
(63.7696 9.79119e-05 0)
(63.7411 4.90424e-05 0)
(63.7329 3.27787e-05 0)
(63.7384 4.92572e-05 0)
(63.743 9.00109e-05 0)
(63.7433 0.000159728 0)
(63.7423 0.000229766 0)
(63.7419 0.000220657 0)
(63.7421 0.000131134 0)
(63.7424 8.64358e-05 0)
(63.7425 0.000118305 0)
(63.7425 0.000167106 0)
(63.7426 0.000178124 0)
(63.7425 0.000177441 0)
(63.7425 0.000206403 0)
(63.7425 0.00024569 0)
(63.7423 0.000230746 0)
(63.7421 0.000148155 0)
(63.7422 8.06167e-05 0)
(63.7421 3.34076e-05 0)
(63.7421 2.04899e-05 0)
(63.7424 8.32483e-05 0)
(63.7426 0.000124797 0)
(63.7427 0.000110556 0)
(63.7428 0.000131467 0)
(63.7428 0.000190659 0)
(63.7427 0.00021371 0)
(63.7429 0.000179018 0)
(63.743 0.000151158 0)
(63.7431 0.000168335 0)
(63.743 0.000205073 0)
(63.743 0.000249648 0)
(63.7431 0.000263992 0)
(63.7431 0.00021254 0)
(63.7432 0.00014771 0)
(63.7432 0.000128675 0)
(63.7432 0.000156917 0)
(63.7433 0.000221069 0)
(63.7433 0.000281363 0)
(63.7433 0.000273141 0)
(63.7433 0.00019517 0)
(63.7432 0.000113361 0)
(63.7432 0.000105526 0)
(63.7433 0.000175692 0)
(63.7433 0.000244667 0)
(63.7433 0.000261099 0)
(63.7433 0.000214502 0)
(63.7434 0.000136189 0)
(63.7435 8.95977e-05 0)
(63.7435 9.44821e-05 0)
(63.7434 0.000126203 0)
(63.7433 0.000154314 0)
(63.7433 0.000169177 0)
(63.7434 0.000170499 0)
(63.7436 0.000149951 0)
(63.7436 0.000119723 0)
(63.7436 0.000110086 0)
(63.7436 0.00013583 0)
(63.7436 0.000177068 0)
(63.7436 0.000210935 0)
(63.7437 0.000228476 0)
(63.7437 0.000205871 0)
(63.7437 0.000147575 0)
(63.7438 9.84983e-05 0)
(63.7438 7.22782e-05 0)
(63.7438 5.74007e-05 0)
(63.7438 5.97099e-05 0)
(63.7438 8.96185e-05 0)
(63.7439 0.000137977 0)
(63.7439 0.000183735 0)
(63.744 0.000206504 0)
(63.744 0.000193264 0)
(63.7441 0.000154358 0)
(63.7441 0.000111752 0)
(63.7442 8.32628e-05 0)
(63.7442 8.65364e-05 0)
(63.7442 0.000122094 0)
(63.7442 0.000166798 0)
(63.7443 0.000202348 0)
(63.7444 0.000219638 0)
(63.7444 0.000200674 0)
(63.7444 0.000150557 0)
(63.7445 0.000112252 0)
(63.7445 0.000108998 0)
(63.7445 0.000129832 0)
(63.7445 0.000157762 0)
(63.7445 0.000176279 0)
(63.7445 0.000178487 0)
(63.7445 0.000172178 0)
(63.7445 0.00016898 0)
(63.7445 0.00017375 0)
(63.7445 0.000186645 0)
(63.7445 0.000203938 0)
(63.7445 0.000212112 0)
(63.7445 0.000201943 0)
(63.7445 0.000175308 0)
(63.7445 0.000137653 0)
(63.7445 0.000110599 0)
(63.7446 0.000120462 0)
(63.7447 0.000159548 0)
(63.7447 0.000201818 0)
(63.7447 0.000242677 0)
(63.7447 0.000278841 0)
(63.7448 0.000289305 0)
(63.7448 0.000274308 0)
(63.7449 0.00025806 0)
(63.745 0.000245255 0)
(63.745 0.000230772 0)
(63.7451 0.000229059 0)
(63.7451 0.000248728 0)
(63.7451 0.000270549 0)
(63.7452 0.000274611 0)
(63.7453 0.000260899 0)
(63.7453 0.000238083 0)
(63.7454 0.000212534 0)
(63.7453 0.000185573 0)
(63.7453 0.00015643 0)
(63.7452 0.000131981 0)
(63.7452 0.000113211 0)
(63.7451 8.6404e-05 0)
(63.7452 5.74426e-05 0)
(63.7452 4.966e-05 0)
(63.7452 6.36804e-05 0)
(63.7453 9.14225e-05 0)
(63.7453 0.000130751 0)
(63.7452 0.000167383 0)
(63.7452 0.000189329 0)
(63.7452 0.000198054 0)
(63.7452 0.000196823 0)
(63.7453 0.000191208 0)
(63.7454 0.000183097 0)
(63.7454 0.000172851 0)
(63.7454 0.00016981 0)
(63.7454 0.00018103 0)
(63.7455 0.000205023 0)
(63.7455 0.000233938 0)
(63.7456 0.000256152 0)
(63.7457 0.000261761 0)
(63.7458 0.000241662 0)
(63.7458 0.000205923 0)
(63.7459 0.000183686 0)
(63.746 0.000179498 0)
(63.746 0.000182408 0)
(63.746 0.000200019 0)
(63.7461 0.000231136 0)
(63.7461 0.000252387 0)
(63.7462 0.000255165 0)
(63.7463 0.000252639 0)
(63.7464 0.000242633 0)
(63.7464 0.000207114 0)
(63.7464 0.000157382 0)
(63.7464 0.000123923 0)
(63.7464 0.000110951 0)
(63.7465 0.000111834 0)
(63.7465 0.000127814 0)
(63.7465 0.000145763 0)
(63.7465 0.000145503 0)
(63.7465 0.000130796 0)
(63.7465 0.000123957 0)
(63.7465 0.000139109 0)
(63.7466 0.000171308 0)
(63.7466 0.000201343 0)
(63.7467 0.000211377 0)
(63.7467 0.000199337 0)
(63.7466 0.000175441 0)
(63.7466 0.000154594 0)
(63.7467 0.000150218 0)
(63.7467 0.000161434 0)
(63.7468 0.000174798 0)
(63.7469 0.00018292 0)
(63.7469 0.000190617 0)
(63.747 0.000200588 0)
(63.7471 0.000204954 0)
(63.7471 0.000199042 0)
(63.7471 0.000185202 0)
(63.7472 0.000167746 0)
(63.7472 0.000160167 0)
(63.7473 0.000167418 0)
(63.7474 0.000171679 0)
(63.7474 0.000164927 0)
(63.7475 0.000154551 0)
(63.7475 0.00014237 0)
(63.7474 0.000136449 0)
(63.7475 0.000148199 0)
(63.7475 0.000172957 0)
(63.7475 0.000202744 0)
(63.7476 0.000230678 0)
(63.7475 0.000239297 0)
(63.7475 0.000223979 0)
(63.7475 0.00020994 0)
(63.7475 0.000213826 0)
(63.7475 0.000222024 0)
(63.7475 0.000224814 0)
(63.7475 0.000227966 0)
(63.7475 0.000226791 0)
(63.7476 0.00021436 0)
(63.7476 0.00020794 0)
(63.7476 0.00022247 0)
(63.7476 0.000237336 0)
(63.7476 0.000232107 0)
(63.7476 0.000222726 0)
(63.7477 0.000230657 0)
(63.7477 0.00024936 0)
(63.7478 0.000254372 0)
(63.7478 0.000234655 0)
(63.7478 0.000207761 0)
(63.7478 0.00019048 0)
(63.7478 0.000176013 0)
(63.7478 0.000161023 0)
(63.7478 0.000161431 0)
(63.7478 0.000184025 0)
(63.7479 0.000206712 0)
(63.7479 0.0002064 0)
(63.7478 0.000190603 0)
(63.7478 0.00018044 0)