/*--------------------------------*- C++ -*----------------------------------*\
| =========                 |                                                 |
| \\      /  F ield         | OpenFOAM: The Open Source CFD Toolbox           |
|  \\    /   O peration     | Version:  2406                                  |
|   \\  /    A nd           | Website:  www.openfoam.com                      |
|    \\/     M anipulation  |                                                 |
\*---------------------------------------------------------------------------*/
FoamFile
{
    version     2.0;
    format      ascii;
    arch        "LSB;label=32;scalar=64";
    class       volScalarField;
    location    "300";
    object      alphat;
}
// * * * * * * * * * * * * * * * * * * * * * * * * * * * * * * * * * * * * * //

dimensions      [0 2 -1 0 0 0 0];

internalField   nonuniform List<scalar> 
5619
(
5.6274e-05
5.79908e-05
5.99046e-05
6.20451e-05
6.44147e-05
6.703e-05
6.9901e-05
7.30356e-05
7.64382e-05
8.01098e-05
8.40482e-05
8.82471e-05
9.26936e-05
9.73645e-05
0.000102221
0.000107206
0.000112237
0.000117215
0.000122022
0.000126538
0.000130652
0.00013428
0.00013738
0.000139958
0.000142071
0.000143818
0.000145326
0.000146724
0.000148129
0.000149624
0.000151263
0.000153063
0.000155025
0.000157135
0.000159377
0.000161734
0.000164192
0.000166738
0.000169361
0.000172054
0.000174807
0.000177614
0.000180466
0.000183354
0.00018627
0.000189202
0.00019214
0.000195072
0.000197985
0.000200866
0.000203703
0.000206481
0.000209189
0.000211816
0.000214352
0.00021679
0.000219127
0.000221359
0.000223489
0.000225522
0.000227467
0.000229335
0.000231142
0.000232907
0.000234653
0.000236408
0.000238203
0.000240022
0.000241842
0.000243662
0.000245483
0.000247307
0.000249137
0.000250974
0.00025282
0.000254677
0.000256547
0.000258432
0.000260333
0.000262251
0.000264189
0.000266147
0.000268124
0.000270117
0.000272124
0.000274137
0.000276149
0.000278146
0.000280114
0.000282033
0.000283878
0.000285621
0.000287228
0.000288659
0.00028987
0.000290811
0.000291427
0.000291662
0.000291457
0.000290749
0.000289476
0.000287405
0.000284262
0.000279788
0.000273765
0.000266052
0.000256616
0.000245572
0.000233341
0.000220432
0.000206796
0.000193696
0.000180822
0.0001683
0.000156069
0.000144267
0.000133464
0.000123096
0.000112907
0.000102689
9.21934e-05
8.10589e-05
6.87795e-05
5.66117e-05
6.12625e-05
6.85998e-05
7.4613e-05
7.92034e-05
8.26316e-05
8.52909e-05
8.72209e-05
8.84376e-05
8.89392e-05
8.87043e-05
8.76893e-05
8.58235e-05
8.30055e-05
7.91016e-05
7.39573e-05
6.7436e-05
5.95195e-05
5.05353e-05
4.05971e-05
3.08815e-05
2.28391e-05
1.81317e-05
1.66236e-05
1.63241e-05
1.62244e-05
1.62592e-05
1.64386e-05
1.67411e-05
1.70974e-05
1.74836e-05
1.78826e-05
1.82813e-05
1.8669e-05
1.90383e-05
1.93835e-05
1.97011e-05
1.99893e-05
2.02476e-05
2.04768e-05
2.06783e-05
2.08543e-05
2.10073e-05
2.11399e-05
2.12546e-05
2.13543e-05
2.14414e-05
2.15181e-05
2.15864e-05
2.16482e-05
2.17052e-05
2.17592e-05
2.18123e-05
2.18683e-05
2.1934e-05
2.20215e-05
2.21513e-05
2.23535e-05
2.26651e-05
2.31172e-05
2.37044e-05
2.43128e-05
2.45255e-05
2.30393e-05
0.000261128
0.000281484
0.000305233
0.000330601
0.000357657
0.000386273
0.000416362
0.000447798
0.000480432
0.000514091
0.000548596
0.000583791
0.000619576
0.000655933
0.000692932
0.000730708
0.000769396
0.00080905
0.000849538
0.000890453
0.000931056
0.000970302
0.00100697
0.00103993
0.00106839
0.00109212
0.00111155
0.00112763
0.00114168
0.00115501
0.00116875
0.00118362
0.0012
0.00121793
0.00123731
0.00125795
0.00127965
0.0013022
0.00132546
0.0013493
0.00137363
0.00139837
0.00142349
0.00144893
0.00147467
0.0015007
0.001527
0.00155354
0.00158031
0.00160728
0.00163443
0.0016617
0.00168904
0.00171638
0.00174365
0.00177073
0.00179755
0.00182398
0.00184991
0.00187522
0.0018998
0.00192355
0.00194636
0.00196814
0.00198881
0.00200831
0.00202659
0.00204563
0.00206562
0.00208607
0.00210701
0.00212848
0.00215054
0.00217326
0.00219667
0.00222081
0.00224572
0.00227142
0.00229796
0.00232538
0.00235375
0.00238313
0.0024136
0.00244524
0.00247814
0.00251237
0.00254796
0.00258495
0.0026233
0.00266292
0.00270366
0.00274528
0.00278741
0.00282958
0.00287117
0.0029114
0.00294933
0.00298384
0.0030137
0.00303747
0.00305371
0.00306075
0.00305456
0.00303093
0.00298616
0.0029177
0.00282469
0.00270803
0.00256988
0.00241647
0.00222859
0.00203046
0.00184042
0.00166327
0.00149794
0.00133584
0.00117345
0.00102333
0.000885834
0.000759793
0.000643727
0.000537004
0.000442774
0.000383028
0.000389109
0.00044818
0.000526324
0.000607253
0.000683908
0.000755574
0.000819483
0.00087393
0.000917945
0.000951096
0.000973342
0.000984916
0.000986192
0.000977466
0.000958487
0.000927447
0.000878937
0.000800106
0.000676111
0.000514789
0.00033172
0.000169469
7.85444e-05
5.30876e-05
4.89458e-05
4.80194e-05
4.76e-05
4.73345e-05
4.72921e-05
4.75013e-05
4.78341e-05
4.82386e-05
4.86781e-05
4.91264e-05
4.95619e-05
4.99669e-05
5.03267e-05
5.06303e-05
5.087e-05
5.10409e-05
5.11411e-05
5.11701e-05
5.11281e-05
5.10151e-05
5.08303e-05
5.05705e-05
5.02292e-05
4.97951e-05
4.92502e-05
4.85679e-05
4.77094e-05
4.66214e-05
4.52353e-05
4.34707e-05
4.12509e-05
3.85362e-05
3.5381e-05
3.20033e-05
2.88356e-05
2.65322e-05
2.60329e-05
2.91791e-05
4.27103e-05
0.000701678
0.000758673
0.00082291
0.000890239
0.000960815
0.00103445
0.00111109
0.00119059
0.00127278
0.00135744
0.00144435
0.00153334
0.00162441
0.00171771
0.00181358
0.00191247
0.0020147
0.00212024
0.00222848
0.00233791
0.00244604
0.00254954
0.00264461
0.00272775
0.00279658
0.00285048
0.00289076
0.00292039
0.00294332
0.00296356
0.00298441
0.00300802
0.00303543
0.00306686
0.00310203
0.00314046
0.00318165
0.00322514
0.00327059
0.00331774
0.00336641
0.00341651
0.00346797
0.00352076
0.00357489
0.00363034
0.00368712
0.00374521
0.00380456
0.0038651
0.00392671
0.00398924
0.00405246
0.00411612
0.00417991
0.00424348
0.00430642
0.00436834
0.00442881
0.00448742
0.0045438
0.00459762
0.00464864
0.00469674
0.0047419
0.00478429
0.00482422
0.0048622
0.00490147
0.0049408
0.00498003
0.00501936
0.00505905
0.00509936
0.00514053
0.0051828
0.00522636
0.00527141
0.00531813
0.00536668
0.00541721
0.00546989
0.00552482
0.00558213
0.00564187
0.00570409
0.00576875
0.00583573
0.00590481
0.00597566
0.00604778
0.00612049
0.00619293
0.00626397
0.00633224
0.00639607
0.00645348
0.00650217
0.00653958
0.0065628
0.00656868
0.00655143
0.00650318
0.00641617
0.00628407
0.00610331
0.005874
0.00560026
0.00528979
0.00495229
0.004597
0.00421684
0.00383942
0.00348019
0.00313862
0.00280776
0.0024736
0.00216288
0.00187577
0.0016117
0.001371
0.00115782
0.000987262
0.000897545
0.000921266
0.00103521
0.00118428
0.00133904
0.00148678
0.0016259
0.00175107
0.00185922
0.00194868
0.00201859
0.00206855
0.00209835
0.00210771
0.00209587
0.00206079
0.00199776
0.00189704
0.00174126
0.00150796
0.00118074
0.000785425
0.000413696
0.000169361
8.09431e-05
6.74803e-05
6.67982e-05
6.69881e-05
6.68412e-05
6.67534e-05
6.67189e-05
6.6711e-05
6.67228e-05
6.67465e-05
6.67717e-05
6.67848e-05
6.67701e-05
6.67115e-05
6.65939e-05
6.64043e-05
6.61319e-05
6.57681e-05
6.53067e-05
6.47424e-05
6.40714e-05
6.32903e-05
6.23957e-05
6.13849e-05
6.02563e-05
5.90112e-05
5.76561e-05
5.62069e-05
5.46955e-05
5.31787e-05
5.17512e-05
5.05618e-05
4.98312e-05
4.98716e-05
5.11128e-05
5.41677e-05
6.00469e-05
7.08354e-05
9.1907e-05
0.000143291
0.00134292
0.00143767
0.00154349
0.00165384
0.00176915
0.00188936
0.00201456
0.00214473
0.00227977
0.0024195
0.00256374
0.00271243
0.0028657
0.00302394
0.00318775
0.00335771
0.00353404
0.00371623
0.00390251
0.00408955
0.00427235
0.00444451
0.00459913
0.00473018
0.00483392
0.00490992
0.00496122
0.00499364
0.00501449
0.00503096
0.00504882
0.0050717
0.00510134
0.00513804
0.00518133
0.00523043
0.0052845
0.00534281
0.00540483
0.00547015
0.00553851
0.00560976
0.0056838
0.00576058
0.00584008
0.00592227
0.0060071
0.00609448
0.00618429
0.00627634
0.00637037
0.00646605
0.00656299
0.00666073
0.00675873
0.00685644
0.00695325
0.00704854
0.00714173
0.00723225
0.00731962
0.00740343
0.00748338
0.00755932
0.00763123
0.00769921
0.00776352
0.00782453
0.00788269
0.00794061
0.0079971
0.00805227
0.00810645
0.00816005
0.00821342
0.00826696
0.00832098
0.0083758
0.00843171
0.00848894
0.0085477
0.00860814
0.00867037
0.00873443
0.00880031
0.00886792
0.00893704
0.00900738
0.00907849
0.00914976
0.00922041
0.00928942
0.00935555
0.00941728
0.00947278
0.00951991
0.00955618
0.00957878
0.00958468
0.00957053
0.00953158
0.00945811
0.00934085
0.00917132
0.0089435
0.00865536
0.00830997
0.00791573
0.00748542
0.00703383
0.00657497
0.00611332
0.00564525
0.00518626
0.0047356
0.00428582
0.00382134
0.00337717
0.00296008
0.00257571
0.00223213
0.00194484
0.00174416
0.00167317
0.00174371
0.0019098
0.00211493
0.00232097
0.00251342
0.00269198
0.00285107
0.00298719
0.00309825
0.00318291
0.00324014
0.00326889
0.00326766
0.0032341
0.00316429
0.00305156
0.00288507
0.0026487
0.00232257
0.00189038
0.00135787
0.000786896
0.000336627
0.000124794
7.99553e-05
7.66778e-05
7.67839e-05
7.66886e-05
7.65416e-05
7.63291e-05
7.60987e-05
7.58955e-05
7.57519e-05
7.56838e-05
7.56925e-05
7.57692e-05
7.58984e-05
7.60617e-05
7.62413e-05
7.64226e-05
7.65955e-05
7.67568e-05
7.69101e-05
7.70668e-05
7.72467e-05
7.74784e-05
7.78009e-05
7.82657e-05
7.89393e-05
7.99072e-05
8.12783e-05
8.31909e-05
8.58189e-05
8.93777e-05
9.41312e-05
0.000100399
0.000108578
0.000119202
0.000133126
0.000151971
0.000179248
0.000223393
0.000309452
0.00211016
0.00223958
0.00238414
0.00253525
0.00269364
0.00285942
0.00303285
0.00321406
0.00340299
0.00359951
0.00380345
0.00401476
0.00423358
0.00446025
0.00469525
0.00493882
0.00519056
0.00544888
0.00571046
0.00596988
0.00621961
0.00645056
0.0066534
0.00682042
0.00694747
0.00703508
0.00708843
0.00711629
0.00712909
0.00713685
0.00714748
0.00716583
0.00719411
0.00723266
0.00728078
0.00733737
0.00740127
0.00747148
0.0075472
0.00762786
0.00771305
0.0078025
0.00789601
0.00799344
0.00809467
0.00819956
0.00830795
0.00841965
0.00853439
0.00865186
0.00877165
0.00889331
0.00901629
0.00914002
0.00926385
0.00938713
0.00950917
0.00962933
0.00974697
0.0098615
0.0099724
0.0100792
0.0101816
0.0102794
0.0103722
0.0104601
0.010543
0.010621
0.0106941
0.010764
0.0108302
0.0108932
0.010953
0.0110102
0.0110651
0.0111182
0.0111696
0.0112199
0.0112692
0.0113178
0.011366
0.0114137
0.0114612
0.0115084
0.0115552
0.0116015
0.0116469
0.011691
0.0117332
0.0117728
0.0118089
0.0118402
0.0118654
0.0118827
0.0118901
0.0118853
0.0118656
0.0118282
0.0117702
0.0116884
0.0115761
0.0114204
0.0112133
0.0109484
0.0106232
0.01024
0.0098074
0.00933976
0.00885558
0.00837372
0.00790829
0.00746335
0.00703151
0.00659701
0.00615085
0.00568135
0.00517023
0.00465669
0.00416358
0.00371042
0.00331976
0.00302152
0.00285211
0.00283618
0.00295489
0.00315324
0.00337798
0.00359348
0.00379087
0.00397172
0.00413092
0.00426484
0.0043708
0.00444663
0.00449032
0.00449965
0.00447179
0.0044032
0.0042888
0.00412133
0.00389062
0.0035832
0.00318271
0.0026736
0.00205113
0.00134446
0.00066301
0.00022763
0.000102424
8.80788e-05
8.65887e-05
8.63267e-05
8.65175e-05
8.70272e-05
8.78603e-05
8.90541e-05
9.06388e-05
9.26211e-05
9.49815e-05
9.76769e-05
0.000100648
0.000103829
0.000107155
0.000110572
0.000114042
0.000117548
0.000121094
0.000124705
0.000128424
0.000132312
0.000136446
0.000140915
0.000145826
0.000151295
0.000157456
0.000164455
0.000172459
0.000181656
0.000192275
0.000204607
0.000219076
0.000236341
0.000257512
0.000284511
0.00032075
0.000372203
0.000448374
0.00293918
0.00310094
0.00328214
0.00347257
0.00367314
0.00388416
0.00410609
0.00433912
0.00458326
0.00483831
0.00510401
0.00538005
0.00566623
0.0059624
0.00626826
0.00658311
0.00690533
0.00723192
0.00755794
0.00787628
0.00817768
0.00845152
0.00868726
0.00887667
0.00901592
0.00910682
0.00915658
0.00917636
0.00917902
0.00917681
0.0091794
0.00919248
0.00921853
0.00925784
0.0093095
0.00937208
0.00944408
0.00952418
0.00961131
0.00970464
0.00980354
0.00990754
0.0100163
0.0101294
0.0102467
0.0103678
0.0104925
0.0106205
0.0107512
0.0108843
0.0110194
0.0111558
0.011293
0.0114304
0.0115672
0.0117029
0.0118368
0.0119682
0.0120965
0.0122212
0.0123416
0.0124575
0.0125682
0.0126736
0.0127731
0.0128667
0.012954
0.0130349
0.0131094
0.0131772
0.0132389
0.0132951
0.0133461
0.0133921
0.0134336
0.0134707
0.0135037
0.013533
0.0135588
0.0135813
0.0136006
0.0136168
0.01363
0.0136402
0.0136472
0.0136508
0.0136506
0.0136463
0.0136371
0.0136223
0.0136007
0.013571
0.0135318
0.0134809
0.0134164
0.0133357
0.0132362
0.013115
0.0129695
0.0127972
0.0125888
0.0123285
0.0120117
0.011637
0.0112078
0.0107337
0.0102312
0.00972307
0.00923546
0.00879253
0.00840874
0.00808239
0.00779482
0.00751659
0.00721685
0.00687054
0.00645943
0.00598712
0.00552203
0.0050971
0.00474767
0.00450826
0.00440219
0.00442689
0.00454973
0.00472545
0.00491527
0.00509331
0.00525414
0.00539976
0.0055261
0.00562961
0.00570695
0.0057548
0.00576972
0.00574797
0.00568524
0.00557639
0.00541485
0.00519185
0.00489795
0.00452269
0.00405218
0.00347206
0.00277335
0.00196816
0.00113006
0.000457879
0.000166758
0.000124798
0.000118598
0.000117688
0.000119097
0.000122155
0.000126559
0.00013213
0.000138709
0.000146112
0.000154121
0.000162499
0.000171013
0.00017946
0.000187686
0.000195597
0.000203152
0.000210361
0.00021727
0.000223953
0.000230501
0.000237017
0.000243611
0.000250398
0.000257498
0.000265033
0.000273134
0.000281941
0.00029161
0.000302328
0.000314322
0.000327892
0.00034344
0.000361524
0.000382909
0.000408599
0.000439727
0.000476895
0.000517956
0.00377829
0.00397117
0.00418796
0.00441709
0.00465963
0.00491608
0.00518703
0.00547275
0.00577319
0.00608801
0.00641656
0.006758
0.00711129
0.00747513
0.00784784
0.0082271
0.00860967
0.008991
0.00936495
0.00972358
0.0100572
0.0103552
0.0106071
0.0108051
0.0109462
0.0110333
0.0110753
0.0110849
0.0110766
0.0110641
0.0110587
0.0110664
0.0110898
0.0111291
0.011183
0.0112498
0.0113277
0.011415
0.0115104
0.0116126
0.0117208
0.0118342
0.0119522
0.0120742
0.0121999
0.0123287
0.0124602
0.012594
0.0127295
0.0128663
0.0130038
0.0131415
0.0132787
0.0134149
0.0135494
0.0136817
0.013811
0.0139369
0.0140587
0.0141759
0.0142879
0.0143943
0.0144946
0.0145884
0.0146754
0.0147553
0.0148279
0.014893
0.0149504
0.0149992
0.0150407
0.0150755
0.015104
0.0151264
0.015143
0.015154
0.0151596
0.01516
0.0151554
0.0151459
0.0151317
0.0151127
0.0150888
0.0150601
0.0150262
0.0149868
0.0149414
0.0148894
0.0148299
0.0147618
0.0146838
0.0145941
0.0144907
0.0143715
0.0142336
0.0140745
0.013891
0.0136804
0.0134402
0.0131686
0.012853
0.0124747
0.0120333
0.0115332
0.0109847
0.0104051
0.00981926
0.00925929
0.00876231
0.0083637
0.00808587
0.00792649
0.00785473
0.00782071
0.00777302
0.00767259
0.00749745
0.00724108
0.00694231
0.00665748
0.00642647
0.00627829
0.00622185
0.00624638
0.00632761
0.0064382
0.00655544
0.00666369
0.00675931
0.00684337
0.00691292
0.00696468
0.00699487
0.00699918
0.00697274
0.00691012
0.0068052
0.00665101
0.00643939
0.00616062
0.00580269
0.00535726
0.0048133
0.0041582
0.00338298
0.00249391
0.00154529
0.000709429
0.000259555
0.000194945
0.000197358
0.000195857
0.000198454
0.000204706
0.000213603
0.00022429
0.000236035
0.000248204
0.000260283
0.000271893
0.0002828
0.000292895
0.000302165
0.000310662
0.000318473
0.000325709
0.000332485
0.000338921
0.000345133
0.000351236
0.000357342
0.000363559
0.000369994
0.000376755
0.000383949
0.000391689
0.000400095
0.000409296
0.000419436
0.000430673
0.000443179
0.000457121
0.000472618
0.00048964
0.000507804
0.000525994
0.00054195
0.00458472
0.00480782
0.00505926
0.00532641
0.00561032
0.00591172
0.00623129
0.00656931
0.0069256
0.00729947
0.00768965
0.00809437
0.00851123
0.00893721
0.00936857
0.00980083
0.0102287
0.0106462
0.0110465
0.0114219
0.011764
0.0120636
0.0123118
0.0125021
0.0126327
0.0127078
0.0127373
0.0127349
0.0127145
0.0126919
0.0126782
0.0126809
0.0127013
0.0127395
0.0127941
0.0128631
0.0129445
0.013036
0.0131361
0.0132431
0.0133558
0.0134732
0.0135943
0.0137185
0.0138449
0.0139729
0.014102
0.0142315
0.014361
0.0144898
0.0146174
0.0147432
0.0148667
0.0149874
0.0151047
0.0152181
0.015327
0.015431
0.0155296
0.0156224
0.0157089
0.0157888
0.015862
0.0159281
0.0159872
0.0160392
0.0160841
0.0161222
0.0161534
0.0161786
0.0161985
0.0162137
0.0162245
0.016231
0.0162335
0.016232
0.0162266
0.0162173
0.016204
0.0161865
0.0161647
0.0161383
0.0161068
0.0160698
0.0160265
0.0159761
0.0159177
0.01585
0.0157716
0.0156805
0.0155749
0.0154523
0.01531
0.0151449
0.014954
0.0147338
0.0144811
0.0141929
0.0138672
0.0135026
0.0130834
0.0125877
0.0120182
0.0113838
0.0106997
0.00998657
0.00927247
0.00859452
0.00799983
0.00754123
0.00726442
0.00718806
0.0072875
0.00749777
0.00773864
0.00794373
0.00807498
0.00812114
0.00808967
0.00801267
0.00793503
0.00788257
0.00786501
0.00787841
0.00791342
0.00795858
0.0080039
0.00804215
0.00807091
0.00808976
0.00809656
0.00808828
0.00806095
0.00800973
0.00792893
0.00781202
0.00765152
0.0074388
0.00716377
0.00681586
0.00638793
0.00586939
0.0052496
0.00451895
0.0036725
0.00272066
0.00171916
0.000833644
0.000339075
0.000285891
0.000326382
0.000329466
0.000329725
0.00033364
0.000340543
0.000349132
0.000358359
0.00036752
0.000376219
0.000384288
0.000391698
0.000398493
0.000404744
0.000410525
0.000415912
0.000420974
0.00042578
0.000430397
0.000434894
0.000439338
0.000443796
0.000448332
0.000453013
0.000457898
0.000463048
0.000468519
0.00047436
0.000480617
0.000487323
0.000494495
0.000502122
0.000510148
0.00051845
0.000526801
0.000534846
0.000542094
0.000548049
0.00531977
0.0055715
0.00585566
0.00615872
0.00648168
0.00682544
0.00719075
0.00757782
0.00798623
0.00841477
0.00886137
0.00932297
0.0097954
0.0102734
0.0107506
0.0112197
0.0116731
0.0121032
0.012503
0.0128663
0.0131873
0.0134603
0.0136798
0.0138418
0.0139466
0.0139996
0.0140102
0.0139901
0.0139594
0.013931
0.0139138
0.0139122
0.0139306
0.0139681
0.0140233
0.0140939
0.0141775
0.0142719
0.0143749
0.0144846
0.0145993
0.0147176
0.0148382
0.01496
0.0150821
0.0152035
0.0153235
0.0154412
0.015556
0.0156674
0.0157747
0.0158775
0.0159755
0.0160682
0.0161555
0.0162373
0.0163134
0.0163839
0.016449
0.0165089
0.0165639
0.0166144
0.0166607
0.0167033
0.0167427
0.0167793
0.0168136
0.0168459
0.0168768
0.0169071
0.0169373
0.0169674
0.0169973
0.0170267
0.0170552
0.0170823
0.0171075
0.0171303
0.0171498
0.0171655
0.0171765
0.0171819
0.0171806
0.0171715
0.0171534
0.0171247
0.0170839
0.017029
0.016958
0.0168685
0.0167579
0.0166232
0.0164613
0.0162689
0.0160424
0.0157785
0.015474
0.0151263
0.0147338
0.014296
0.0137943
0.0132037
0.0125281
0.0117776
0.0109665
0.0101123
0.00923761
0.00837541
0.00757387
0.00689725
0.00641744
0.00619446
0.00624961
0.00654446
0.00698644
0.00746605
0.00789862
0.00824171
0.00848783
0.00864941
0.00874551
0.00880109
0.00883551
0.00885925
0.00887626
0.00888625
0.00888758
0.00887875
0.00885821
0.00882396
0.00877399
0.00870532
0.00861413
0.00849583
0.00834507
0.00815562
0.00792034
0.00763119
0.00727943
0.006856
0.00635205
0.00575919
0.00507031
0.00428144
0.00339669
0.00244107
0.00149188
0.000727698
0.000373821
0.000408108
0.000479959
0.000486503
0.000477776
0.000469674
0.000464484
0.000461874
0.000461143
0.000461694
0.000463103
0.000465088
0.000467453
0.00047006
0.000472807
0.000475619
0.000478444
0.00048125
0.000484023
0.000486761
0.000489474
0.00049218
0.000494901
0.000497663
0.00050049
0.000503408
0.000506439
0.000509598
0.000512899
0.000516345
0.000519931
0.000523641
0.000527444
0.000531297
0.00053514
0.000538902
0.000542517
0.000545948
0.000549234
0.00594504
0.0062224
0.00653544
0.00686997
0.00722683
0.00760709
0.00801148
0.00844011
0.00889223
0.00936608
0.00985861
0.0103653
0.0108801
0.011395
0.0119006
0.0123864
0.0128417
0.0132573
0.013626
0.013944
0.0142099
0.0144237
0.0145855
0.0146958
0.0147574
0.0147765
0.0147606
0.0147296
0.0146959
0.0146686
0.0146539
0.0146558
0.014676
0.0147162
0.0147749
0.0148497
0.014938
0.0150372
0.0151448
0.0152583
0.0153757
0.0154951
0.0156146
0.0157328
0.0158482
0.0159596
0.0160661
0.0161667
0.0162609
0.0163482
0.0164284
0.0165017
0.0165683
0.0166289
0.0166843
0.0167355
0.0167837
0.0168301
0.0168759
0.0169222
0.0169702
0.0170207
0.0170744
0.0171316
0.0171926
0.0172575
0.0173259
0.0173976
0.017472
0.0175484
0.0176265
0.0177058
0.0177862
0.017867
0.0179472
0.0180258
0.0181018
0.0181741
0.0182415
0.0183027
0.0183566
0.0184017
0.0184367
0.0184599
0.0184698
0.0184644
0.0184419
0.0184001
0.0183369
0.0182497
0.0181359
0.0179929
0.0178176
0.0176073
0.0173589
0.0170698
0.0167376
0.0163605
0.0159377
0.0154692
0.0149352
0.0143083
0.0135906
0.0127874
0.0119055
0.0109524
0.00993954
0.00888927
0.00784201
0.00685955
0.006021
0.00541056
0.00509928
0.00512352
0.005462
0.00602342
0.00667087
0.0072794
0.00777867
0.00815279
0.00841675
0.00859498
0.0087099
0.00877827
0.00881129
0.00881653
0.00879852
0.00876014
0.00870242
0.00862331
0.00852201
0.00839647
0.00824349
0.0080588
0.00783731
0.00757338
0.0072611
0.00689458
0.00646823
0.00597691
0.00541627
0.00478334
0.004078
0.00330631
0.00248814
0.00167338
0.000966838
0.000523142
0.00043565
0.000560047
0.00062378
0.000618674
0.000594878
0.000570653
0.000550673
0.000535626
0.000524929
0.000517685
0.000513042
0.000510299
0.000508916
0.000508488
0.000508717
0.00050939
0.000510353
0.000511501
0.000512764
0.000514097
0.000515474
0.000516883
0.00051832
0.000519787
0.000521291
0.000522839
0.000524438
0.000526095
0.000527816
0.000529603
0.000531458
0.000533381
0.000535372
0.000537432
0.000539567
0.000541791
0.000544135
0.000546649
0.000549413
0.00642227
0.00672077
0.00705686
0.00741595
0.00779868
0.00820617
0.00863909
0.00909739
0.00958
0.0100846
0.0106073
0.0111421
0.0116809
0.0122133
0.0127265
0.0132066
0.0136394
0.0140132
0.014321
0.0145616
0.0147395
0.0148629
0.0149396
0.0149762
0.0149791
0.0149555
0.0149245
0.0148943
0.0148698
0.0148548
0.014853
0.0148672
0.0148993
0.0149496
0.0150178
0.0151023
0.0152002
0.0153084
0.0154241
0.0155443
0.0156666
0.0157884
0.0159078
0.0160229
0.0161323
0.0162349
0.0163299
0.016417
0.0164963
0.0165682
0.0166337
0.0166938
0.0167501
0.0168041
0.0168574
0.0169115
0.016968
0.0170279
0.0170924
0.017162
0.0172373
0.0173184
0.0174055
0.0174982
0.0175963
0.0176993
0.0178068
0.0179181
0.0180325
0.018149
0.0182669
0.0183851
0.0185024
0.0186182
0.0187318
0.0188427
0.01895
0.0190526
0.0191491
0.0192384
0.0193189
0.0193892
0.0194476
0.0194925
0.0195222
0.0195348
0.0195283
0.0195009
0.0194505
0.0193751
0.0192725
0.0191408
0.0189779
0.0187818
0.0185506
0.0182829
0.0179771
0.0176325
0.0172484
0.016825
0.0163431
0.0157751
0.0151165
0.0143624
0.0135064
0.012542
0.0114671
0.0102918
0.00904511
0.00777928
0.00656774
0.00549603
0.0046476
0.00409054
0.00387123
0.00400931
0.00447559
0.00515864
0.00588223
0.00649556
0.00693965
0.00722969
0.00740613
0.00750473
0.00754897
0.00755213
0.00752114
0.00746155
0.00737561
0.00726022
0.00711471
0.00693779
0.00672804
0.00648412
0.00620486
0.00588908
0.00553545
0.00514231
0.00470778
0.00423011
0.00370866
0.00314564
0.0025494
0.00194012
0.00135809
0.000869447
0.000553144
0.000464682
0.000577765
0.0006968
0.00071995
0.000693809
0.000655999
0.000620617
0.000591801
0.000569964
0.000554133
0.000543001
0.000535369
0.000530274
0.000526988
0.000524979
0.000523861
0.000523361
0.000523286
0.000523501
0.000523914
0.000524462
0.000525104
0.000525814
0.000526577
0.000527386
0.000528239
0.000529138
0.000530087
0.000531091
0.000532159
0.000533297
0.000534514
0.000535823
0.000537237
0.000538775
0.000540459
0.00054232
0.000544399
0.000546748
0.000549434
0.00671661
0.00703083
0.00738296
0.00775834
0.00815731
0.00858089
0.00902955
0.00950304
0.01
0.0105176
0.0110512
0.0115939
0.0121357
0.0126641
0.0131634
0.0136162
0.0140049
0.0143153
0.0145396
0.0146795
0.0147462
0.0147574
0.014731
0.0146799
0.0146182
0.0145679
0.0145367
0.0145221
0.014521
0.0145319
0.0145552
0.0145924
0.014645
0.0147138
0.0147984
0.0148972
0.0150079
0.0151276
0.0152533
0.0153822
0.0155118
0.0156399
0.0157648
0.0158853
0.0160006
0.0161105
0.016215
0.0163147
0.0164103
0.0165027
0.016593
0.0166821
0.0167711
0.0168605
0.016951
0.0170427
0.0171359
0.0172303
0.0173257
0.0174219
0.0175187
0.0176158
0.0177132
0.0178109
0.0179091
0.018008
0.0181078
0.018209
0.0183117
0.0184162
0.0185225
0.0186302
0.0187392
0.0188486
0.0189574
0.0190646
0.0191689
0.0192704
0.0193687
0.0194629
0.0195519
0.0196346
0.0197095
0.0197752
0.0198302
0.0198729
0.0199017
0.0199152
0.0199118
0.01989
0.0198484
0.0197857
0.0197004
0.0195914
0.0194574
0.0192972
0.0191094
0.0188929
0.018646
0.0183672
0.018041
0.0176413
0.0171539
0.0165614
0.0158429
0.0149779
0.0139504
0.0127569
0.0114124
0.009956
0.00845157
0.00698197
0.00563611
0.0044927
0.00360866
0.0030191
0.00274804
0.00281799
0.00322781
0.00387793
0.00454688
0.00504137
0.00532335
0.00545025
0.00548275
0.00545708
0.00539154
0.00529694
0.00517722
0.00503103
0.00486125
0.00466962
0.00445689
0.00422293
0.003967
0.00368795
0.00338463
0.00305643
0.00270402
0.00233046
0.00194281
0.00155403
0.00118464
0.000862575
0.000619082
0.000482212
0.000473893
0.000587318
0.000716205
0.000761492
0.000743639
0.00070351
0.000661714
0.000625719
0.000597332
0.000576042
0.000560554
0.000549506
0.000541745
0.000536374
0.000532723
0.000530302
0.000528759
0.00052784
0.000527365
0.000527206
0.000527274
0.000527504
0.000527853
0.000528293
0.000528804
0.000529377
0.000530006
0.00053069
0.000531434
0.000532242
0.000533122
0.000534082
0.000535135
0.000536295
0.000537577
0.000539004
0.0005406
0.000542396
0.000544433
0.000546759
0.000549436
0.00680034
0.00712456
0.00748563
0.00786927
0.00827537
0.00870462
0.00915713
0.0096323
0.0101284
0.0106422
0.0111686
0.0116997
0.0122248
0.0127295
0.0131963
0.0136048
0.013935
0.0141698
0.0143007
0.0143315
0.0142805
0.0141752
0.0140445
0.013909
0.0138029
0.0137444
0.0137281
0.0137419
0.0137751
0.0138211
0.0138772
0.0139432
0.0140203
0.0141094
0.0142108
0.0143237
0.0144466
0.0145774
0.0147143
0.0148555
0.0149992
0.0151445
0.0152904
0.0154365
0.0155828
0.0157292
0.0158759
0.016023
0.0161705
0.0163185
0.0164667
0.0166146
0.0167615
0.0169066
0.0170486
0.0171866
0.0173193
0.0174454
0.0175638
0.0176737
0.0177742
0.0178648
0.0179454
0.0180163
0.0180778
0.0181309
0.0181769
0.0182172
0.0182534
0.0182875
0.0183213
0.0183566
0.018395
0.0184377
0.0184857
0.0185396
0.0185992
0.0186626
0.018729
0.0187991
0.0188732
0.0189513
0.0190328
0.0191173
0.0192039
0.0192919
0.0193805
0.019469
0.0195565
0.0196423
0.0197255
0.019805
0.0198796
0.0199477
0.0200074
0.0200561
0.0200908
0.0201078
0.0201029
0.0200708
0.0200027
0.0198778
0.0196722
0.0193568
0.0188985
0.0182636
0.0174225
0.0163558
0.0150619
0.0135632
0.0119101
0.0101793
0.00846204
0.00684629
0.00539952
0.00416369
0.00316296
0.00241499
0.00193728
0.00175057
0.00187685
0.00228309
0.00277566
0.00311207
0.00323956
0.00323801
0.00317776
0.00308773
0.00297496
0.00284156
0.00269259
0.00253025
0.00235558
0.00216945
0.00197293
0.00176779
0.00155677
0.00134397
0.0011351
0.000937524
0.000760023
0.000612119
0.000503377
0.000443356
0.000442446
0.000508058
0.000621481
0.000719939
0.000756068
0.000741883
0.000706535
0.000667912
0.000633486
0.000605477
0.000583812
0.000567546
0.000555552
0.000546815
0.000540516
0.000536025
0.000532867
0.000530692
0.000529241
0.000528327
0.000527808
0.000527586
0.000527584
0.000527748
0.00052804
0.000528432
0.000528905
0.000529448
0.000530054
0.000530723
0.000531456
0.000532256
0.00053313
0.000534087
0.000535138
0.000536296
0.000537578
0.000539004
0.0005406
0.000542396
0.000544433
0.000546759
0.000549436
0.006656
0.00698384
0.00734674
0.00773133
0.00813696
0.00856385
0.00901154
0.00947892
0.00996376
0.0104624
0.0109692
0.0114758
0.0119709
0.0124393
0.0128623
0.0132182
0.0134848
0.0136435
0.0136849
0.0136148
0.0134573
0.0132494
0.0130293
0.012833
0.0127066
0.0126556
0.012664
0.0127116
0.0127812
0.012862
0.0129486
0.0130395
0.0131358
0.013239
0.0133509
0.0134727
0.0136049
0.0137472
0.013899
0.0140598
0.014229
0.014406
0.0145902
0.0147813
0.0149786
0.0151814
0.015389
0.0156003
0.0158143
0.0160294
0.0162441
0.0164567
0.0166653
0.0168679
0.0170625
0.0172471
0.0174197
0.0175786
0.0177219
0.0178484
0.0179567
0.0180459
0.0181153
0.0181646
0.0181939
0.0182036
0.0181947
0.0181685
0.018127
0.0180724
0.0180077
0.0179361
0.0178612
0.0177868
0.0177168
0.017655
0.0176049
0.0175695
0.01755
0.017545
0.0175541
0.0175785
0.0176201
0.0176803
0.0177607
0.0178622
0.0179861
0.0181334
0.0183048
0.0185011
0.0187227
0.0189693
0.01924
0.0195328
0.0198445
0.0201706
0.0205049
0.0208398
0.0211664
0.0214744
0.0217641
0.0220254
0.022225
0.0223228
0.022273
0.0220283
0.0215436
0.0207825
0.0197248
0.0183744
0.0167668
0.0149721
0.0130872
0.0112149
0.00943688
0.00779488
0.00629448
0.00492572
0.00368735
0.00260218
0.00171636
0.00107851
0.00070868
0.000594066
0.000713039
0.000946036
0.00107594
0.00108185
0.00104073
0.000984976
0.000922122
0.000855104
0.000785965
0.000716628
0.00064909
0.000585481
0.000528094
0.0004794
0.000442093
0.000419186
0.000414128
0.000430695
0.00047186
0.000536258
0.000612877
0.000680185
0.000717854
0.000721723
0.00070261
0.00067389
0.000644254
0.000617725
0.000595612
0.000577924
0.000564125
0.000553532
0.000545488
0.000539437
0.000534927
0.000531606
0.000529201
0.000527504
0.000526355
0.000525635
0.000525251
0.000525133
0.000525226
0.000525489
0.000525887
0.000526398
0.000527003
0.000527689
0.00052845
0.00052928
0.00053018
0.000531149
0.000532192
0.000533315
0.000534524
0.000535828
0.00053724
0.000538776
0.000540459
0.00054232
0.000544399
0.000546748
0.000549434
0.00628059
0.00660384
0.00696011
0.00733757
0.00773513
0.00815259
0.00858895
0.00904253
0.0095106
0.00998898
0.0104716
0.0109497
0.0114115
0.0118416
0.0122207
0.0125266
0.0127363
0.01283
0.0127979
0.0126466
0.0124041
0.0121147
0.0118254
0.0115932
0.0114607
0.0114237
0.0114577
0.0115355
0.0116349
0.0117415
0.0118483
0.0119533
0.0120579
0.0121653
0.012281
0.0124083
0.0125491
0.0127048
0.0128758
0.0130624
0.013264
0.0134799
0.0137092
0.0139505
0.0142024
0.0144633
0.0147313
0.0150046
0.015281
0.0155584
0.0158344
0.0161065
0.0163723
0.0166292
0.0168747
0.0171064
0.017322
0.0175194
0.0176965
0.0178516
0.0179833
0.0180902
0.0181715
0.0182265
0.0182548
0.0182565
0.018232