/*--------------------------------*- C++ -*----------------------------------*\
| =========                 |                                                 |
| \\      /  F ield         | OpenFOAM: The Open Source CFD Toolbox           |
|  \\    /   O peration     | Version:  2406                                  |
|   \\  /    A nd           | Website:  www.openfoam.com                      |
|    \\/     M anipulation  |                                                 |
\*---------------------------------------------------------------------------*/
FoamFile
{
    version     2.0;
    format      ascii;
    arch        "LSB;label=32;scalar=64";
    class       volScalarField;
    location    "300";
    object      epsilon;
}
// * * * * * * * * * * * * * * * * * * * * * * * * * * * * * * * * * * * * * //

dimensions      [0 2 -3 0 0 0 0];

internalField   nonuniform List<scalar> 
5619
(
3.8702
4.23185
4.66092
5.1741
5.785
6.5136
7.38212
8.41626
9.64506
11.1012
12.8208
14.8434
17.2098
19.9588
23.121
26.7095
30.709
35.0654
39.679
44.4062
49.0724
53.4961
57.5215
61.0497
64.0592
66.6085
68.8218
70.8601
72.8888
75.0493
77.4439
80.1333
83.1444
86.4829
90.1437
94.1182
98.3987
102.98
107.857
113.03
118.496
124.251
130.293
136.614
143.203
150.045
157.12
164.402
171.861
179.46
187.157
194.909
202.668
210.386
218.017
225.521
232.861
240.012
246.958
253.696
260.238
266.609
272.853
279.029
285.215
291.51
298.038
304.762
311.595
318.527
325.565
332.716
339.989
347.393
354.938
362.631
370.484
378.506
386.709
395.104
403.703
412.516
421.547
430.796
440.254
449.901
459.703
469.608
479.541
489.406
499.076
508.393
517.168
525.172
532.142
537.782
541.769
543.766
543.429
540.412
534.388
524.229
508.649
486.612
457.593
421.783
380.223
334.83
288.712
242.919
201.975
166.042
135.204
109.14
87.1692
68.8487
54.5711
42.9216
33.2645
25.2062
18.4617
12.8209
8.15465
4.6994
4.98699
6.90433
8.94558
10.7921
12.3476
13.6732
14.7199
15.4482
15.8273
15.8344
15.4535
14.6758
13.5018
11.9479
10.0596
7.93197
5.73254
3.70644
2.08169
0.986054
0.408417
0.179672
0.111127
0.093982
0.0894244
0.088819
0.091145
0.0961387
0.102766
0.110401
0.11875
0.127547
0.136545
0.145518
0.15427
0.162636
0.170489
0.177743
0.184349
0.190289
0.195576
0.200242
0.204335
0.207915
0.211044
0.213789
0.216212
0.218373
0.220327
0.222126
0.223824
0.225494
0.227254
0.22932
0.232085
0.236218
0.242748
0.253042
0.268489
0.289472
0.312337
0.320609
0.265784
1.14695
1.2633
1.40381
1.57358
1.77825
2.02466
2.32064
2.67512
3.09816
3.60089
4.19543
4.89447
5.71051
6.65422
7.73213
8.94347
10.2769
11.7081
13.1992
14.7016
16.1619
17.5302
18.7694
19.863
20.8183
21.6649
22.448
23.2199
24.0296
24.9167
25.9078
27.0175
28.2522
29.613
31.0991
32.7094
34.443
36.2998
38.2795
40.382
42.6065
44.9513
47.4133
49.9876
52.6674
55.4433
58.3038
61.2343
64.2182
67.2367
70.2693
73.2945
76.291
79.2383
82.1181
84.9154
87.6193
90.2244
92.7309
95.1455
97.4813
99.7572
101.998
104.234
106.497
108.825
111.254
113.744
116.279
118.866
121.509
124.214
126.985
129.822
132.728
135.703
138.744
141.849
145.017
148.242
151.519
154.842
158.204
161.593
164.997
168.403
171.791
175.14
178.424
181.612
184.667
187.546
190.198
192.563
194.571
196.143
197.189
197.609
197.306
196.163
194.048
190.615
185.517
178.444
169.187
157.726
144.293
129.367
113.643
98.304
82.4
68.8473
57.3163
47.608
39.4683
32.7563
27.3135
22.7521
18.8466
15.4344
12.3849
9.59365
6.9988
4.86534
4.49072
5.23913
6.04132
6.66212
7.12743
7.48002
7.72007
7.84222
7.8388
7.70072
7.4181
6.98127
6.38283
5.62228
4.71423
3.69998
2.65797
1.70165
0.936349
0.431584
0.170332
0.0695264
0.0425095
0.0397038
0.0425971
0.0466615
0.0508262
0.054631
0.0581291
0.0612945
0.0641369
0.0666644
0.0688865
0.0708219
0.0724962
0.0739394
0.0751828
0.0762557
0.0771848
0.0779929
0.0786982
0.079315
0.0798545
0.080324
0.0807268
0.0810609
0.081318
0.0814802
0.0815165
0.0813771
0.0809871
0.0802396
0.0789921
0.077072
0.0743037
0.0705711
0.0659215
0.060679
0.0554695
0.0510172
0.0475961
0.0440459
0.03571
0.612286
0.692751
0.789668
0.90658
1.04756
1.21748
1.42193
1.66735
1.96093
2.31061
2.72485
3.21221
3.78053
4.43572
5.17997
6.00983
6.91445
7.87491
8.86508
9.85438
10.8121
11.7125
12.539
13.2874
13.9668
14.5977
15.2089
15.832
16.4968
17.2271
18.0393
18.943
19.9428
21.0403
22.2361
23.5302
24.9227
26.4137
28.003
29.6901
31.4737
33.3513
35.3191
37.3717
39.5021
41.7011
43.9579
46.2597
48.5921
50.9393
53.285
55.6123
57.905
60.148
62.328
64.4345
66.4599
68.4002
70.2553
72.0287
73.7276
75.3622
76.9453
78.4915
80.0158
81.5328
83.0554
84.5928
86.1352
87.6906
89.2663
90.8693
92.5054
94.1791
95.8938
97.6518
99.4536
101.299
103.186
105.112
107.074
109.066
111.084
113.121
115.171
117.226
119.278
121.315
123.327
125.3
127.215
129.052
130.783
132.374
133.785
134.962
135.842
136.35
136.402
135.898
134.71
132.589
129.289
124.576
118.289
110.403
101.073
90.6413
79.6279
68.7882
58.3287
48.5187
40.3938
33.7482
28.3186
23.9106
20.3738
17.4268
14.9114
12.6913
10.6483
8.69006
6.78449
5.16316
4.47898
4.59924
4.90845
5.19368
5.4342
5.63786
5.79921
5.90895
5.95537
5.92512
5.80397
5.57771
5.23372
4.76403
4.1705
3.47174
2.70895
1.94499
1.25092
0.689632
0.309093
0.111612
0.0405059
0.0268494
0.0280904
0.0311649
0.0339586
0.0361102
0.0375754
0.0384303
0.0387981
0.0387912
0.038509
0.0380369
0.0374449
0.0367881
0.0361068
0.035428
0.0347677
0.0341327
0.0335225
0.0329318
0.0323513
0.0317691
0.0311708
0.0305403
0.0298599
0.0291105
0.0282715
0.0273218
0.0262408
0.0250108
0.0236217
0.0220766
0.0204004
0.0186483
0.0169103
0.015305
0.0139542
0.0129306
0.0121634
0.0112656
0.00912522
0.443032
0.5119
0.595025
0.69544
0.816759
0.963313
1.14012
1.35295
1.60825
1.91309
2.27487
2.70087
3.19744
3.7689
4.41603
5.13468
5.91479
6.7403
7.59049
8.44247
9.27437
10.0685
10.8136
11.5067
12.1537
12.7686
13.3722
13.9886
14.6416
15.3521
16.1355
17.0017
17.9561
19.0013
20.1383
21.3675
22.6889
24.1021
25.6065
27.2008
28.8828
30.6493
32.4958
34.4163
36.4035
38.4483
40.5403
42.6677
44.8174
46.9758
49.1287
51.2619
53.3619
55.4162
57.4135
59.3447
61.2025
62.9819
64.6804
66.2976
67.8352
69.2967
70.6873
72.0133
73.2817
74.5002
75.677
76.8204
77.9383
79.0335
80.1145
81.1892
82.2651
83.3488
84.4461
85.5619
86.6999
87.8626
89.0517
90.2674
91.5094
92.7762
94.0659
95.3757
96.702
98.0408
99.387
100.734
102.075
103.398
104.691
105.937
107.113
108.19
109.132
109.892
110.415
110.633
110.474
109.855
108.66
106.676
103.706
99.5697
94.1575
87.4764
79.6849
71.0988
62.1713
53.4481
45.3272
37.9668
31.4918
26.3238
22.1866
18.8902
16.2874
14.1523
12.3499
10.7568
9.26909
7.81762
6.41322
5.24018
4.5928
4.42286
4.4666
4.57415
4.69349
4.81557
4.93216
5.0343
5.11112
5.14949
5.13419
5.04852
4.87539
4.59957
4.21135
3.71172
3.11754
2.46343
1.7974
1.17196
0.638838
0.257369
0.0737065
0.0232394
0.0183948
0.0196763
0.0209481
0.0218211
0.0220929
0.0218569
0.0212509
0.0204048
0.0194269
0.0183996
0.0173809
0.0164087
0.0155043
0.0146773
0.0139284
0.013253
0.0126429
0.0120885
0.0115794
0.0111056
0.0106576
0.010227
0.00980649
0.00939026
0.00897392
0.00855489
0.0081327
0.00770936
0.00728972
0.00688185
0.006497
0.00614908
0.005853
0.00562107
0.00545639
0.00534044
0.00521053
0.00492332
0.0042058
0.376293
0.440863
0.51918
0.614062
0.729016
0.86827
1.03674
1.24005
1.4845
1.77692
2.12437
2.53363
3.01042
3.5583
4.17751
4.86384
5.60811
6.39645
7.21172
8.03556
8.85061
9.64229
10.4
11.1185
11.7987
12.4492
13.0855
13.728
14.3991
15.1198
15.9072
16.7728
17.7234
18.7621
19.8901
21.1076
22.4142
23.8086
25.2895
26.8547
28.5011
30.2248
32.0207
33.8826
35.803
37.7732
39.7835
41.8231
43.8805
45.944
48.0015
50.0411
52.0515
54.0221
55.9434
57.807
59.6059
61.3346
62.9887
64.5654
66.0631
67.4813
68.8206
70.0827
71.2701
72.3864
73.4361
74.4245
75.3579
76.2415
77.0832
77.89
78.669
79.4271
80.1709
80.9062
81.6381
82.371
83.1082
83.8524
84.6052
85.3675
86.1392
86.9194
87.7062
88.4969
89.2871
90.0713
90.8416
91.5877
92.2957
92.9477
93.5208
93.9861
94.308
94.4441
94.3449
93.9552
93.2182
92.0749
90.4276
88.0945
84.9511
80.8898
75.8641
69.9228
63.2322
56.075
48.8214
41.8693
35.5314
29.9623
25.1885
21.1571
17.937
15.3924
13.384
11.7564
10.3954
9.19972
8.09365
7.04324
6.08339
5.3235
4.8599
4.65302
4.5928
4.59799
4.62808
4.67381
4.73003
4.79142
4.85102
4.8993
4.92377
4.90876
4.83615
4.68679
4.44292
4.09211
3.63251
3.07662
2.45178
1.79644
1.15659
0.593672
0.198229
0.0384679
0.0129782
0.0116518
0.0118211
0.0118399
0.0115592
0.0110258
0.0103257
0.00954482
0.00875219
0.00799526
0.00730232
0.00668684
0.0061518
0.00569363
0.00530503
0.00497708
0.0047006
0.00446689
0.00426817
0.00409772
0.00394995
0.00382034
0.00370531
0.00360221
0.00350918
0.00342513
0.00334973
0.00328329
0.00322681
0.00318182
0.00315022
0.0031339
0.00313403
0.0031498
0.00317629
0.00320107
0.00319959
0.0031323
0.00295543
0.350405
0.414196
0.491968
0.586456
0.701223
0.84058
1.00953
1.21381
1.45979
1.75431
2.10434
2.51643
2.99591
3.54589
4.16621
4.85262
5.59647
6.38534
7.20431
8.03767
8.87028
9.68838
10.4802
11.237
11.9557
12.6403
13.3031
13.963
14.6424
15.3636
16.1456
17.0011
17.9375
18.9583
20.0644
21.2553
22.5298
23.886
25.3214
26.833
28.4169
30.0686
31.7827
33.5527
35.3714
37.2306
39.1215
41.0347
42.9605
44.8888
46.8099
48.7143
50.593
52.4377
54.2408
55.996
57.6976
59.341
60.9225
62.4392
63.8893
65.2713
66.5848
67.8298
69.0071
70.1178
71.164
72.1483
73.0739
73.945
74.7672
75.5447
76.2821
76.9839
77.6546
78.2983
78.9186
79.5188
80.1016
80.6689
81.2223
81.7623
82.2888
82.8007
83.2956
83.7699
84.2184
84.6334
85.0049
85.3197
85.5606
85.706
85.7294
85.5993
85.279
84.7279
83.9032
82.7623
81.2686
79.3931
77.0572
74.1161
70.5379
66.3075
61.4481
56.0409
50.2392
44.2686
38.4044
32.9234
28.0389
23.8541
20.3637
17.4901
15.137
13.2039
11.6037
10.3223
9.24581
8.31117
7.4799
6.74566
6.13248
5.67599
5.38496
5.22453
5.14343
5.10098
5.07272
5.05522
5.04914
5.05419
5.0681
5.08581
5.09895
5.0955
5.05959
4.9719
4.81047
4.55192
4.18366
3.7022
3.11698
2.45137
1.74133
1.04241
0.455084
0.113961
0.0182955
0.00819225
0.00715516
0.00662051
0.00611091
0.00558611
0.00505785
0.00455129
0.00408802
0.00368098
0.00333473
0.00304757
0.00281407
0.00262703
0.00247892
0.00236267
0.00227215
0.0022022
0.00214867
0.0021083
0.00207856
0.00205757
0.00204393
0.00203671
0.0020353
0.00203941
0.002049
0.00206426
0.00208557
0.00211343
0.00214833
0.00219068
0.00224047
0.00229703
0.00235849
0.00242149
0.00248144
0.00253544
0.00259216
0.344229
0.409128
0.488601
0.58537
0.703122
0.846332
1.02018
1.23057
1.48402
1.78744
2.14776
2.57128
3.06291
3.62513
4.25706
4.95378
5.70629
6.5023
7.32754
8.16727
9.00713
9.83341
10.6332
11.3957
12.1155
12.7947
13.4447
14.084
14.7355
15.4222
16.1623
16.9687
17.8486
18.8052
19.8387
20.9481
22.1314
23.3857
24.7078
26.094
27.54
29.0408
30.5907
32.1837
33.813
35.4711
37.1506
38.8436
40.5423
42.2391
43.9267
45.5984
47.2484
48.8714
50.4634
52.0211
53.542
55.0249
56.4689
57.8742
59.2413
60.5715
61.8661
63.127
64.3561
65.5554
66.7272
67.8736
68.9963
70.1002
71.1839
72.2472
73.2901
74.3126
75.3145
76.2953
77.2539
78.1891
79.0992
79.982
80.8346
81.6536
82.4345
83.1717
83.8584
84.4857
85.0424
85.5148
85.8856
86.1335
86.2327
86.1528
85.8585
85.3104
84.4667
83.2854
81.7282
79.7655
77.3832
74.587
71.3184
67.4705
63.1202
58.3546
53.2606
47.9318
42.4883
37.0948
31.956
27.283
23.2393
19.8976
17.2294
15.133
13.4781
12.1405
11.0206
10.0478
9.17964
8.4095
7.74231
7.19702
6.77218
6.4629
6.25084
6.10755
6.00458
5.92069
5.84106
5.76606
5.70089
5.64914
5.6119
5.58703
5.56864
5.5466
5.50634
5.42881
5.29095
5.0668
4.72939
4.27141
3.69177
3.0043
2.23763
1.44211
0.715639
0.220185
0.03613
0.00838119
0.00542284
0.00442646
0.00377491
0.0032827
0.00288884
0.00256791
0.00230744
0.00209891
0.00193482
0.00180799
0.00171172
0.00164002
0.0015878
0.00155092
0.00152609
0.00151079
0.00150309
0.00150162
0.00150536
0.00151363
0.001526
0.00154223
0.00156224
0.0015861
0.001614
0.00164622
0.00168316
0.00172528
0.00177313
0.00182731
0.00188848
0.00195738
0.00203495
0.00212268
0.00222341
0.0023431
0.0024938
0.347362
0.414105
0.496098
0.596079
0.717852
0.86605
1.04601
1.26376
1.52591
1.83933
2.21074
2.646
3.14922
3.72173
4.3611
5.06063
5.80947
6.59372
7.39808
8.20752
9.00816
9.78722
10.5328
11.2354
11.8902
12.5008
13.0786
13.6428
14.2187
14.8262
15.479
16.186
16.9544
17.7872
18.6845
19.6449
20.6661
21.745
22.8781
24.0618
25.2916
26.5632
27.8714
29.2111
30.5769
31.963
33.3641
34.7748
36.1903
37.6063
39.0194
40.427
41.8275
43.2204
44.6064
45.987
47.3647
48.7431
50.126
51.518
52.9237
54.3483
55.7964
57.2728
58.7818
60.3274
61.9129
63.5411
65.2138
66.9262
68.6724
70.4472
72.2452
74.0602
75.8858
77.7147
79.5391
81.3505
83.1397
84.8967
86.6104
88.2687
89.8581
91.3633
92.7669
94.0489
95.1862
96.152
96.9153
97.4405
97.6872
97.6101
97.1607
96.2882
94.9432
93.0819
90.6724
87.7017
84.1843
80.1678
75.6095
70.4383
64.8515
59.0356
53.1214
47.1875
41.3056
35.5914
30.2222
25.4074
21.3253
18.0639
15.5966
13.8037
12.5218
11.5895
10.8716
10.2664
9.70244
9.151
8.63237
8.17799
7.80209
7.51011
7.2815
7.09558
6.93575
6.79126
6.65149
6.51802
6.39885
6.29928
6.22112
6.16196
6.11474
6.06733
6.00246
5.898
5.72758
5.46497
5.09111
4.59398
3.97353
3.2436
2.43288
1.59225
0.818573
0.271853
0.0495653
0.010127
0.00520319
0.00373818
0.00293568
0.00242516
0.00208014
0.0018377
0.00166364
0.00153761
0.00144659
0.00138161
0.00133625
0.00130577
0.00128665
0.00127629
0.00127275
0.00127464
0.00128096
0.00129102
0.0013044
0.00132083
0.00134021
0.00136257
0.00138803
0.00141682
0.00144925
0.00148573
0.00152677
0.00157302
0.00162524
0.0016844
0.00175174
0.00182882
0.00191776
0.00202148
0.0021441
0.00229154
0.00247204
0.352706
0.420953
0.50494
0.607392
0.73216
0.883943
1.06811
1.29067
1.5581
1.87702
2.25362
2.69291
3.19764
3.76723
4.39667
5.07611
5.7913
6.52512
7.26006
7.98059
8.67441
9.33235
9.94741
10.5151
11.0353
11.5138
11.9648
12.414
12.8776
13.3689
13.8977
14.4697
15.0866
15.7534
16.4712
17.2392
18.0559
18.9192
19.8267
20.7758
21.7638
22.7877
23.8449
24.9326
26.0482
27.1898
28.3555
29.5445
30.7566
31.9927
33.2548
34.546
35.8706
37.2341
38.6426
40.1035
41.6244
43.213
44.8774
46.6247
48.462
50.3949
52.4282
54.5654
56.8088
59.1593
61.6166
64.1792
66.845
69.6122
72.4658
75.3937
78.3831
81.4201
84.4901
87.5777
90.6667
93.7399
96.7785
99.7625
102.67
105.477
108.159
110.685
113.025
115.144
117.003
118.559
119.766
120.571
120.92
120.754
120.014
118.643
116.59
113.82
110.314
106.085
101.182
95.6984
89.5921
82.8131
75.6623
68.3929
61.1437
53.9573
46.8605
39.9466
33.4044
27.4815
22.4096
18.3307
15.2585
13.0854
11.6283
10.6848
10.0741
9.6552
9.32907
9.03419
8.7409
8.44634
8.16282
7.90025
7.66073
7.44451
7.24965
7.07503
6.91395
6.76818
6.64488
6.54608
6.46844
6.40332
6.33715
6.25233
6.12864
5.94506
5.68208
5.32429
4.86302
4.2977
3.63681
2.89866
2.11386
1.33471
0.655275
0.209144
0.0413068
0.0105846
0.00541824
0.00364886
0.00271403
0.00215682
0.00180968
0.00158638
0.00143923
0.00134088
0.00127505
0.00123162
0.00120403
0.00118793
0.00118031
0.00117911
0.00118289
0.00119064
0.00120169
0.00121562
0.00123219
0.0012513
0.00127299
0.00129739
0.0013247
0.00135523
0.00138938
0.00142763
0.00147058
0.00151899
0.00157374
0.00163599
0.00170713
0.00178897
0.00188379
0.00199458
0.00212524
0.00228091
0.0024683
0.354759
0.423179
0.507378
0.609993
0.734785
0.886349
1.06988
1.29113
1.55617
1.87101
2.24097
2.66973
3.15822
3.70327
4.29657
4.92422
5.56761
6.20574
6.81876
7.39156
7.91577
8.38932
8.81412
9.19442
9.53658
9.85134
10.1672
10.4921
10.8332
11.1972
11.59
12.0167
12.4808
12.9811
13.5217
14.1043
14.7297
15.3979
16.1092
16.8636
17.6614
18.5032
19.3901
20.3236
21.3059
22.3399
23.4297
24.5802
25.7972
27.0882
28.4612
29.9256
31.4916
33.1696
34.9706
36.905
38.9827
41.2126
43.6018
46.1557
48.8776
51.7688
54.8281
58.0524
61.4365
64.9737
68.6555
72.4723
76.4131
80.467
84.6342
88.9125
93.2902
97.736
102.224
106.729
111.225
115.684
120.076
124.368
128.525
132.508
136.275
139.782
142.98
145.817
148.241
150.193
151.615
152.448
152.63
152.103
150.815
148.719
145.783
141.995
137.366
131.943
125.808
119.083
111.705
103.605
95.0971
86.4137
77.6502
68.8146
59.9295
51.118
42.6191
34.737
27.7612
21.8977
17.2338
13.7336
11.2593
9.60927
8.56253
7.91841
7.51943
7.25663
7.06334
6.90417
6.76433
6.63976
6.53018
6.43309
6.34653
6.26953
6.1999
6.13732
6.07979
6.02014
5.94789
5.85116
5.71823
5.53883
5.30493
5.01104
4.65418
4.23376
3.75169
3.21274
2.62559
2.00521
1.37892
0.798432
0.348274
0.102567
0.0249693
0.00929166
0.00529218
0.00357702
0.00262592
0.00205881
0.00171234
0.00149627
0.00135899
0.00127084
0.00121437
0.00117902
0.00115817
0.00114754
0.00114431
0.00114659
0.00115313
0.00116308
0.0011759
0.00119126
0.00120903
0.00122916
0.00125174
0.00127695
0.00130503
0.00133632
0.00137125
0.00141034
0.00145422
0.00150367
0.00155962
0.00162324
0.00169595
0.00177956
0.00187633
0.00198917
0.00212182
0.00227919
0.00246778
0.349965
0.416563
0.498355
0.597765
0.718299
0.864234
1.04035
1.25185
1.50413
1.80228
2.15045
2.55076
3.00211
3.49869
4.0289
4.57498
5.11427
5.62241
6.07823
6.46865
6.79156
7.05481
7.27193
7.45784
7.62535
7.81018
8.01322
8.23366
8.4717
8.72873
9.00775
9.31304
9.64927
10.021
10.4294
10.8773
11.3689
11.9078
12.4972
13.1409
13.8431
14.6084
15.4427
16.3524
17.3449
18.4289
19.614
20.9108
22.3309
23.8867
25.5911
27.4569
29.4969
31.7227
34.1448
36.7719
39.6105
42.6645
45.9356
49.423
53.1235
57.0322
61.1424
65.4463
69.9352
74.5995
79.4289
84.4124
89.538
94.7923
100.16
105.625
111.174
116.81
122.526
128.283
134.042
139.765
145.409
150.93
156.276
161.393
166.221
170.697
174.756
178.329
181.35
183.75
185.467
186.439
186.614
185.948
184.407
181.975
178.649
174.449
169.418
163.622
157.155
150.131
142.445
133.951
124.85
115.244
105.141
94.5365
83.5065
72.2629
61.1391
50.5203
40.76
32.1217
24.7611
18.7376
14.0326
10.5587
8.1607
6.62459
5.71203
5.20741
4.94798
4.82688
4.78037
4.77227
4.7814
4.7937
4.79838
4.78863
4.75863
4.70512
4.62587
4.51929
4.38494
4.22323
4.03477
3.81973
3.57747
3.30635
3.00412
2.66852
2.29838
1.89548
1.46783
1.035
0.633952
0.316289
0.121527
0.0383674
0.0138936
0.00718229
0.00459698
0.00323675
0.00242773
0.00193305
0.00162754
0.0014363
0.00131502
0.00123771
0.00118887
0.001159
0.00114215
0.00113444
0.00113334
0.0011372
0.00114488
0.00115568
0.00116913
0.00118499
0.00120314
0.0012236
0.00124647
0.00127193
0.00130027
0.00133181
0.00136701
0.00140638
0.00145056
0.00150034
0.00155665
0.00162065
0.00169378
0.00177782
0.00187503
0.00198828
0.00212129
0.00227893
0.00246771
0.337508
0.40024
0.476953
0.569725
0.681647
0.816472
0.978337
1.17168
1.40097
1.67022
1.98228
2.3378
2.73394
3.16286
3.61063
4.05697
4.47677
4.84405
5.13787
5.34868
5.48185
5.55609
5.59673
5.62741
5.68754
5.78527
5.91285
6.06395
6.23403
6.42133
6.62726
6.85567
7.11175
7.40113
7.72913
8.1015
8.52245
8.99784
9.53423
10.1385
10.8181
11.5816
12.4384
13.399
14.4749
15.6788
17.024
18.5246
20.1948
22.049
24.1007
26.3623
28.8444
31.5556
34.5014
37.6848
41.1055
44.7603
48.6437
52.748
57.0642
61.5828
66.2942
71.1894
76.2606
81.5013
86.9059
92.4699
98.1887
104.057
110.069
116.213
122.479
128.845
135.289
141.806
148.379
154.982
161.58
168.123
174.559
180.826
186.854
192.571
197.901
202.764
207.084
210.787
213.805
216.077
217.553
218.195
217.979
216.894
214.944
212.148
208.535
204.148
199.037
193.256
186.657
178.996
170.267
160.395
149.292
136.956
123.544
109.4
95.0026
80.8764
67.4812
55.1414
44.032
34.2241
25.7583
18.695
13.1051
9.00439
6.2798
4.66737
3.8226
3.4327
3.2768
3.22379
3.2052
3.18898
3.16197
3.11927
3.05914
2.98262
2.89246
2.78997
2.6751
2.54667
2.40259
2.24021
2.05677
1.84996
1.61894
1.3656
1.09626
0.823298
0.565587
0.345795
0.182955
0.0827713
0.033665
0.014519
0.00777405
0.00499775
0.00353047
0.00264176
0.00208329
0.00173046
0.00150614
0.00136205
0.0012688
0.00120855
0.0011703
0.0011471
0.00113446
0.00112941
0.00112999
0.00113488
0.00114319
0.00115435
0.00116801
0.00118398
0.0012022
0.0012227
0.00124559
0.00127109
0.00129945
0.00133103
0.00136626
0.00140568
0.00144992
0.00149976
0.00155614
0.00162022
0.00169342
0.00177754
0.00187481
0.00198812
0.00212119
0.00227888
0.00246769
0.319322
0.37677
0.446553
0.530305
0.630587
0.750486
0.893348
1.0627
1.26197
1.49404
1.76058
2.06103
2.39143
2.74297
3.10094
3.44458
3.7487
3.98797
4.1435
4.21002
4.20013
4.14223
4.07225
4.02311
4.03032
4.08273
4.17006
4.28369
4.4173
4.56803
4.73657
4.92642
5.1428
5.3918
5.67985
6.01366
6.40032
6.84745
7.36256
7.95422
8.63193
9.40614
10.2883
11.2909
12.4274
13.7119
15.159
16.7834
18.5997
20.6213
22.8603
25.3269
28.0284
30.9691
34.1496
37.5671
41.2148
45.0826
49.1573
53.4238
57.8655
62.4655
67.2078
72.0787
77.0673
82.1666
87.3739
92.6911
98.1244
103.683
109.379
115.225
121.233
127.409
133.757
140.273
146.941
153.734
160.653
167.714
174.901
182.177
189.493
196.787
203.993
211.038
217.848
224.349
230.469
236.136
241.284
245.851
249.777
253.004
255.475
257.133
257.915
257.757
256.59
254.342
250.844
245.781
238.887
229.864
218.492
204.743
188.857
171.362
153.003
134.601
116.889
100.359
85.1963
71.3027
58.4327
46.3869
35.1909
25.1611
16.7941
10.5072
6.37705
4.05485
2.93446
2.45282
2.24931
2.1433
2.06221
1.9807
1.8918
1.79373
1.68813
1.57467
1.45275
1.32198
1.18254
1.03545
0.882935
0.72857
0.577376
0.435497
0.309441
0.204865
0.125154
0.0703165
0.0368512
0.0189023
0.010295
0.00633092
0.00435711
0.00322275
0.00250281
0.00202993
0.00171765
0.0015109
0.0013732
0.00128098
0.00121924
0.00117838
0.00115217
0.00113645
0.00112843
0.00112621
0.00112846
0.00113431
0.00114313
0.00115455
0.00116831
0.0011843
0.00120249
0.00122294
0.00124578
0.00127123
0.00129956
0.00133111
0.00136632
0.00140572
0.00144995
0.00149977
0.00155615
0.00162022
0.00169342
0.00177754
0.00187481
0.00198812
0.00212119
0.00227888
0.00246769
0.298921
0.350679
0.413002
0.487061
0.57485
0.678739
0.801242
0.944944
1.11224
1.30493
1.52368
1.76708
2.03067
2.30566
2.57806
2.82856
3.03418
3.17246
3.22805
3.20011
3.1067
2.98199
2.86567
2.80241
2.7942
2.83046
2.90099
2.99723
3.11323
3.24639
3.39725
3.56891
3.76618
3.99483
4.26124
4.5735
4.93887
5.36458
5.85885
6.43075
7.0902
7.84804
8.71608
9.70699
10.8342
12.1118
13.5541
15.175
16.9882
19.0057
21.2381
23.6932
26.3758
29.2869
32.4236
35.7787
39.3403
43.0926
47.0157
51.0866
55.2796
59.5679
63.9242
68.3229
72.7411
77.161
81.5712
85.969
90.3614
94.7662
99.2123
103.739
108.394
113.229
118.3
123.658
129.348
135.404
141.802
148.471
155.492
162.947
170.875
179.29
188.181
197.524
207.283
217.413
227.858
238.551
249.413
260.351
271.251
281.977
292.364
302.218
311.309
319.375
326.126
331.25
334.588
335.802
334.197
329.056
319.81
306.221
288.521
267.477
244.308
220.478
197.417
176.228
157.486
141.149
126.611
112.891
98.9001
83.7818
67.2549
49.9172
33.3068
19.4301
9.73555
4.2666
1.84447
0.993611
0.723745
0.622559
0.563892
0.512472
0.460392
0.40716
0.353681
0.301055
0.250431
0.20296
0.159731
0.121669
0.0894293
0.0633052
0.0431686
0.0284787
0.0183895
0.0118613
0.00784188
0.00543997
0.00399953
0.00309925
0.00250239
0.00208853
0.00179608
0.00158879
0.00144196
0.00133795
0.00126431
0.00121242
0.00117633
0.00115191
0.00113625
0.00112728
0.00112355
0.00112399
0.00112787
0.00113466
0.00114401
0.00115568
0.00116954
0.00118554
0.0012037
0.0012241
0.00124687
0.00127225
0.00130051
0.00133199
0.00136713
0.00140646
0.00145062
0.00150037
0.00155667
0.00162067
0.00169379
0.00177783
0.00187503
0.00198828
0.00212129
0.00227893
0.00246771
0.279842
0.32644
0.382002
0.447294
0.523791
0.613198
0.717267
0.837717
0.976008
1.13302
1.30857
1.50069
1.7048
1.91278
2.11218
2.28636
2.41596
2.48281
2.47601
2.39885
2.27273
2.13393
2.02238
1.96961
1.96623
2.0021
2.06801
2.15667
2.26346
2.38662
2.52691
2.68716
2.87162
3.08545
3.33616
3.62941
3.97182
4.37063
4.83369
5.3696
5.98767
6.69809
7.51189
8.44089
9.49762
10.6951
12.0464
13.5645
15.2616
17.1484
19.234
21.5244
24.0228
26.7283
29.6357
32.7353
36.0124
39.448
43.0182
46.6953
50.448
54.2424
58.0427
61.8127
65.5172
69.1235
72.6035
75.9358
79.1081
82.1195
84.9832
87.7289
90.4053
93.0818
95.85
98.8227
102.131
105.917
110.327
115.498
121.353
127.823
135.056
143.175
152.287
162.482
173.835
186.403
200.221
215.299
231.618
249.114
267.681
287.153
307.305
327.837
348.375
368.456
387.532
404.961
420.673
434.43
444.827
450.286
449.326
440.914
424.817
401.817
373.686
342.889
312.094
283.661
259.24
239.55
224.352
212.581
202.568
192.288
179.595
162.491
139.564
110.679
77.8701
45.8853
21.0019
6.94704
1.62519
0.309993
0.0875337
0.0500683
0.0397625
0.033352
0.0278951
0.0230879
0.0189159
0.0153673
0.0124098
0.00999391
0.00805862
0.00653595
0.00535571
0.00445027
0.00373611
0.00316186
0.00270688
0.00234927
0.00206786
0.00184584
0.00167043
0.0015323
0.0014244
0.00134095
0.00127704
0.00122861
0.00119241
0.00116587
0.00114702
0.00113433
0.00112661
0.00112299
0.0011228
0.00112555
0.00113091
0.00113862
0.00114852
0.0011605
0.00117451
0.00119056
0.0012087
0.00122902
0.0012517
0.00127695
0.00130505
0.00133635
0.00137129
0.00141038
0.00145426
0.0015037
0.00155964
0.00162325
0.00169596
0.00177956
0.00187634
0.00198917
0.00212182
0.00227919
0.00246778
0.264791
0.307327
0.357567
0.415978
0.483623
0.561673
0.651259
0.753397
0.868793
0.997575
1.1389
1.29043
1.44765
1.6032
1.74639
1.86343
1.93886
1.95903
1.91748
1.8209
1.69219
1.56628
1.47866
1.44515
1.45415
1.49598
1.56249
1.64785
1.74881
1.86448
1.996
2.1461
2.31868
2.51928
2.75296
3.02494
3.34126
3.70846
4.13355
4.62409
5.18833
5.83521
6.57446
7.41651
8.3724
9.45362
10.6718
12.0383
13.5639
15.2581
17.1286
19.1804
21.4157
23.8329
26.426
29.1848
32.094
35.1338
38.2799
41.5036
44.7724
48.05
51.2978
54.4755
57.5426
60.46
63.1913
65.704
67.9728
69.9814
71.7239
73.2057
74.4459
75.479
76.3573
77.1532
77.9638
78.916
80.1744
81.9506
84.5111
88.0907
92.6765
98.4329
105.532
114.163
124.531
136.848
151.328
168.168
187.526
209.481
234.014
260.986
290.127
321.031
353.18
385.967
418.722
450.677
482.229
513.669
542.98
567.463
584.086
590.106
583.82
565.188
536.053
499.821
460.669
422.652
388.979
361.614
341.192
327.162
318.082
311.922
306.283
298.482
285.561
264.377
232.036
187.077
131.717
74.43
29.3759
6.74197
0.857371
0.0731852
0.013314
0.00757412
0.00616778
0.00535478
0.00469556
0.00413569
0.00366424
0.00327004
0.00294037
0.00266306
0.00242762
0.0022256
0.00205052
0.00189784
0.00176452
0.00164851
0.0015484
0.0014623
0.00138915
0.00132813
0.00127821
0.00123815
0.0012066
0.00118226
0.00116396
0.00115073
0.0011417
0.00113623
0.00113378
0.00113396
0.0011365
0.00114119
0.0011479
0.00115656
0.00116709
0.0011795
0.00119377
0.00120995
0.00122811
0.00124836
0.00127088
0.00129589
0.00132366
0.00135455
0.00138896
0.00142738
0.00147045
0.00151891
0.00157371
0.00163597
0.00170712
0.00178896
0.00188379
0.00199458
0.00212525
0.00228091
0.0024683
0.255789
0.295576
0.342192
0.395925
0.457544
0.527839
0.607496
0.697015
0.796547
0.905665
1.02305
1.14607
1.27029
1.38901
1.49297
1.57074
1.61011
1.60121
1.54121
1.43935
1.3189
1.2122
1.14865
1.13365
1.15555
1.20476
1.2738
1.3579
1.45482
1.5644
1.68811
1.82874
1.9901
2.17697
2.39334
2.64416
2.93486
3.27114
3.65904
4.10503
4.61613
5.19992
5.86463
6.6191
7.47271
8.43521
9.51653
10.7264
12.0741
13.5677
15.2139
17.0171
18.979
21.0981
23.3688
25.7817
28.3228
30.9738
33.7123
36.5116
39.3409
42.1648
44.945
47.639
50.2071
52.6145
54.8304
56.8063
58.5071
59.9221
61.0444
61.8741
62.4208
62.7043
62.7554
62.6173
62.3461
62.0132
61.7082
61.5447
61.6698
62.2802
63.5911
65.7453
68.9422
73.4365
79.5586
87.7381
98.5295
112.632
130.884
153.838
181.777
214.908
252.962
295.075
339.786
385.293
430.151
473.594
517.379
563.386
610.243
654.939
693.102
719.916
731.372
725.5
703.135
667.824
624.823
579.743
537.357
500.986
472.434
451.99
438.839
431.5
428.159
426.781
424.946
419.426
405.619
377.275
327.469
252.441
159.124
71.172
17.81
1.66285
0.0647831
0.00751763
0.00402466
0.00338853
0.00306825
0.00280978
0.00258334
0.00238391
0.00220816
0.00205308
0.00191621
0.00179562
0.00168985
0.00159767
0.00151802
0.00144988
0.00139228
0.00134416
0.00130451
0.00127234
0.00124666
0.00122659
0.00121121
0.00119976
0.00119165
0.00118639
0.0011836
0.00118297
0.00118428
0.00118738
0.00119219
0.00119866
0.00120676
0.0012165
0.00122786
0.00124086
0.00125554
0.00127193
0.00129013
0.00131026
0.0013325
0.00135706
0.00138424
0.00141435
0.00144766
0.00148474
0.00152618
0.00157267
0.00162504
0.0016843
0.00175169
0.0018288
0.00191775
0.00202148
0.0021441
0.00229154
0.00247204
0.254919
0.293337
0.338067
0.389316
0.447675
0.513688
0.587752
0.670021
0.760264
0.857665
0.960552
1.06606
1.16977
1.26535
1.34449
1.39734
1.4139
1.38694
1.31615
1.2125
1.09944
1.00733
0.960856
0.959847
0.992473
1.0486
1.12084
1.205
1.29947
1.40459
1.52211
1.65491
1.80677
1.98152
2.1831
2.41619
2.6857
2.99665
3.35429
3.76413
4.23209
4.76453
5.36829
6.05073
6.81962
7.68307
8.6493
9.72647
10.9223
12.2436
13.6961
15.2836
17.0076
18.8669
20.8571
22.9701
25.1943
27.5144
29.9118
32.364
34.8429
37.3147
39.7502
42.0863
44.2755
46.2976
48.1254
49.7296
51.0857
52.1781
52.9986
53.5459
53.8267
53.8554
53.6545
53.2547
52.6949
52.0225
51.2948
50.5807
49.9649
49.555
49.4926
49.8966
50.904
52.696
55.5211
59.7305
65.8314
74.5631
86.9943
104.62
129.417
163.716
209.611
267.713
334.969
402.98
464.573
515.697
561.26
608.272
659.316
712.826
764.03
806.618
834.466
843.249
831.93
803.258
762.741
716.835
671.095
629.412
594.728
568.124
549.551
538.091
532.593
532.064
535.634
542.077
548.748
549.86
534.337
485.069
385.223
239.815
98.6183
19.4485
1.16017
0.0260932
0.00442601
0.00308634
0.00275427
0.0025344
0.00235194
0.00219684
0.00206421
0.00195015
0.0018516
0.00176619
0.00169209
0.00162785
0.00157234
0.00152466
0.00148404
0.00144986
0.00142157
0.00139867
0.00138067
0.00136709
0.00135775
0.00135159
0.00134785
0.00134623
0.00134651
0.00134849
0.00135206
0.00135713
0.00136363
0.00137152
0.00138078
0.00139137
0.00140327
0.00141648
0.001431
0.00144689
0.00146423
0.00148317
0.0015039
0.00152669
0.00155185
0.00157926
0.00160962
0.0016435
0.00168152
0.00172433
0.0017726
0.00182703
0.00188833
0.00195731
0.00203492
0.00212267
0.0022234
0.0023431
0.0024938
0.265452
0.303998
0.348673
0.399677
0.457509
0.522579
0.595106
0.675031
0.761866
0.854513
0.951015
1.04827
1.1417
1.22508
1.29045
1.32874
1.33115
1.29192
1.2123
1.10448
0.99258
0.906613
0.869018
0.876867
0.917623