/*--------------------------------*- C++ -*----------------------------------*\
| =========                 |                                                 |
| \\      /  F ield         | OpenFOAM: The Open Source CFD Toolbox           |
|  \\    /   O peration     | Version:  2406                                  |
|   \\  /    A nd           | Website:  www.openfoam.com                      |
|    \\/     M anipulation  |                                                 |
\*---------------------------------------------------------------------------*/
FoamFile
{
    version     2.0;
    format      ascii;
    arch        "LSB;label=32;scalar=64";
    class       volScalarField;
    location    "300";
    object      k;
}
// * * * * * * * * * * * * * * * * * * * * * * * * * * * * * * * * * * * * * //

dimensions      [0 2 -2 0 0 0 0];

internalField   nonuniform List<scalar> 
5619
(
0.0453574
0.0481496
0.0513611
0.0550758
0.0593408
0.0642349
0.0698348
0.0762214
0.0834762
0.0916817
0.100919
0.111265
0.122784
0.135511
0.149435
0.164467
0.180421
0.196993
0.213766
0.230241
0.245883
0.260207
0.272855
0.283667
0.292714
0.30028
0.306808
0.312812
0.318785
0.325125
0.3321
0.339847
0.34841
0.357769
0.367878
0.378688
0.390149
0.402223
0.414876
0.428081
0.441812
0.456041
0.470738
0.48587
0.501393
0.51726
0.533413
0.549785
0.566304
0.582886
0.599446
0.615894
0.63214
0.648098
0.663689
0.678847
0.693518
0.707671
0.721293
0.734395
0.747016
0.75922
0.771096
0.782765
0.794376
0.806114
0.818204
0.830557
0.843017
0.855567
0.868216
0.880977
0.893866
0.906896
0.920082
0.933436
0.946972
0.960707
0.974654
0.98883
1.00325
1.01792
1.03284
1.04801
1.06341
1.07899
1.09469
1.11043
1.12608
1.1415
1.15648
1.17079
1.18414
1.1962
1.20659
1.21487
1.22058
1.22322
1.2223
1.2173
1.2077
1.19172
1.16725
1.13245
1.08604
1.02764
0.957986
0.879163
0.7953
0.709418
0.626481
0.549607
0.479145
0.415281
0.357349
0.305331
0.26143
0.22262
0.187636
0.15569
0.126144
0.098416
0.0720866
0.0497395
0.0538291
0.066995
0.0794719
0.0898779
0.0981423
0.104872
0.109984
0.113399
0.115045
0.114847
0.112721
0.108569
0.102285
0.0937776
0.0830265
0.0702052
0.0558763
0.0412409
0.0275714
0.0165063
0.00916889
0.00549135
0.00417758
0.0038145
0.00371141
0.00370443
0.00377399
0.00391126
0.00408575
0.00428123
0.00448928
0.00470282
0.00491585
0.00512342
0.00532157
0.00550736
0.00567877
0.00583469
0.00597479
0.00609932
0.00620907
0.00630515
0.00638886
0.00646166
0.00652504
0.00658045
0.00662926
0.00667272
0.00671199
0.00674811
0.00678221
0.00681573
0.00685102
0.00689239
0.00694763
0.00702984
0.00715878
0.00735975
0.00765631
0.00805019
0.00846871
0.00861757
0.00760479
0.0532199
0.0579905
0.0636573
0.0701409
0.0775528
0.0859961
0.0955823
0.106421
0.118619
0.132274
0.147476
0.164303
0.182812
0.203027
0.224922
0.248387
0.2732
0.299003
0.325297
0.35145
0.376752
0.400493
0.422077
0.441144
0.457656
0.471923
0.484549
0.496312
0.508012
0.520337
0.533775
0.548604
0.56493
0.582743
0.601977
0.622544
0.644357
0.667338
0.691419
0.716538
0.742639
0.769661
0.797541
0.826207
0.855579
0.885562
0.916049
0.946922
0.978046
1.00928
1.04047
1.07147
1.10211
1.13226
1.16177
1.19053
1.21846
1.24551
1.27164
1.29687
1.32128
1.34496
1.36804
1.39069
1.4131
1.43548
1.45804
1.48126
1.50503
1.52925
1.55396
1.5792
1.60503
1.63147
1.65855
1.68628
1.71466
1.7437
1.7734
1.80375
1.83474
1.86638
1.89864
1.9315
1.96493
1.99887
2.03323
2.0679
2.10271
2.13746
2.17185
2.20555
2.23809
2.26893
2.2974
2.32269
2.34388
2.35989
2.36963
2.37178
2.36492
2.34618
2.31175
2.25789
2.18161
2.08148
1.95822
1.81487
1.65648
1.49296
1.31228
1.14473
0.994303
0.861401
0.74421
0.639702
0.547434
0.466432
0.394745
0.330544
0.272157
0.218288
0.168745
0.130925
0.127231
0.148048
0.172625
0.194872
0.213974
0.230441
0.243841
0.253827
0.260116
0.262462
0.260627
0.25436
0.243382
0.227389
0.206106
0.179421
0.147657
0.112032
0.0758172
0.0444684
0.022057
0.00990089
0.00536127
0.00441175
0.00442789
0.00459638
0.00477824
0.0049412
0.00509633
0.00524561
0.00538511
0.00551363
0.00563035
0.0057351
0.00582804
0.00590956
0.0059802
0.00604057
0.00609133
0.00613313
0.00616657
0.00619221
0.00621046
0.00622163
0.00622575
0.00622254
0.00621123
0.00619043
0.00615778
0.00610971
0.00604091
0.00594399
0.00580926
0.00562518
0.00538036
0.005068
0.0046934
0.00428258
0.0038867
0.00357547
0.00342086
0.00348399
0.00379533
0.0637394
0.0704987
0.0783912
0.0873628
0.0975617
0.109132
0.122228
0.137006
0.153616
0.172198
0.192879
0.21576
0.240903
0.268316
0.297919
0.329512
0.362748
0.397112
0.431928
0.46639
0.499625
0.530794
0.55921
0.584472
0.606567
0.6259
0.643237
0.659555
0.675871
0.693063
0.711766
0.732341
0.754927
0.779517
0.806029
0.834348
0.86436
0.895959
0.929049
0.963541
0.999351
1.03639
1.07456
1.11375
1.15385
1.19472
1.2362
1.27812
1.3203
1.36254
1.40463
1.44636
1.48753
1.52793
1.56737
1.60571
1.64279
1.67852
1.71286
1.74577
1.77728
1.80748
1.83647
1.8644
1.89146
1.91784
1.94376
1.96943
1.99537
2.02142
2.04764
2.07416
2.10107
2.1285
2.15652
2.1852
2.21461
2.24476
2.27568
2.30738
2.33985
2.37307
2.40703
2.44167
2.47696
2.51281
2.54912
2.58578
2.6226
2.65936
2.69577
2.73145
2.76592
2.79857
2.82864
2.85521
2.87714
2.89313
2.9017
2.90111
2.88927
2.86216
2.81528
2.74424
2.64568
2.51817
2.36295
2.18422
1.98904
1.78813
1.58592
1.38497
1.20562
1.049
0.912357
0.792625
0.686432
0.59332
0.51074
0.436313
0.368053
0.304902
0.248155
0.206315
0.195036
0.210047
0.232593
0.254772
0.274851
0.292948
0.30849
0.321001
0.330039
0.335158
0.335884
0.331704
0.322066
0.306393
0.284159
0.255027
0.219087
0.177188
0.131398
0.0854033
0.0459411
0.0196384
0.00751807
0.00441291
0.00422176
0.00443478
0.00463583
0.0047741
0.0048672
0.0049213
0.00494483
0.00494511
0.0049282
0.00489899
0.00486127
0.00481793
0.00477097
0.00472165
0.00467066
0.00461817
0.00456397
0.00450754
0.00444818
0.00438496
0.00431683
0.00424256
0.00416086
0.00407033
0.00396955
0.00385722
0.00373231
0.00359445
0.00344442
0.00328486
0.00312119
0.00296251
0.00282222
0.00271813
0.00267184
0.00270796
0.0028526
0.00312708
0.00351414
0.0750012
0.0834182
0.0931902
0.104289
0.116897
0.131196
0.147384
0.165657
0.186208
0.209216
0.234835
0.263185
0.294325
0.328236
0.364782
0.40368
0.444474
0.486528
0.52904
0.571089
0.611693
0.649913
0.684963
0.716355
0.744022
0.768377
0.790261
0.810805
0.831215
0.852573
0.875684
0.901023
0.928786
0.958981
0.991515
1.02625
1.06304
1.10175
1.14226
1.18443
1.22816
1.27332
1.31978
1.3674
1.41603
1.46549
1.5156
1.56615
1.61693
1.6677
1.71823
1.76828
1.81761
1.86601
1.91326
1.95918
2.0036
2.04638
2.08744
2.12672
2.16418
2.19984
2.23376
2.26603
2.29675
2.32607
2.35416
2.3812
2.40742
2.43322
2.45855
2.48357
2.50844
2.53331
2.55834
2.58365
2.60934
2.63551
2.66222
2.6895
2.71739
2.74588
2.77497
2.80462
2.83476
2.86534
2.89623
2.9273
2.95836
2.98917
3.01939
3.04862
3.07633
3.10184
3.12434
3.14281
3.15604
3.16262
3.161
3.14942
3.12542
3.08427
3.02151
2.93299
2.81581
2.66929
2.49562
2.30013
2.09109
1.87903
1.67267
1.47578
1.29132
1.13134
0.992201
0.870599
0.762888
0.668069
0.583778
0.507665
0.438064
0.374867
0.321035
0.284171
0.271877
0.279656
0.296223
0.314428
0.331712
0.347966
0.362614
0.375169
0.385134
0.391948
0.394969
0.393459
0.386602
0.373528
0.353397
0.32553
0.289626
0.246012
0.195893
0.141654
0.0875361
0.0414741
0.0142449
0.00496539
0.00369938
0.00377399
0.00389754
0.00397549
0.00399642
0.00396973
0.00390876
0.00382545
0.00372952
0.00362826
0.00352683
0.00342864
0.0033357
0.00324898
0.00316867
0.00309443
0.00302563
0.00296149
0.00290119
0.00284395
0.0027891
0.00273614
0.00268476
0.00263491
0.00258682
0.00254108
0.0024987
0.00246122
0.00243078
0.00241025
0.00240334
0.00241469
0.0024499
0.00251559
0.00261922
0.00276858
0.00297
0.00322294
0.00350598
0.0866442
0.0966213
0.108189
0.121337
0.13628
0.153241
0.172457
0.194165
0.218598
0.245967
0.27645
0.310171
0.347179
0.387411
0.430669
0.476585
0.524606
0.574001
0.623882
0.673256
0.721071
0.766297
0.80803
0.845642
0.878944
0.90829
0.934557
0.958997
0.983012
1.00791
1.03469
1.06396
1.09599
1.1308
1.16829
1.2083
1.25064
1.29515
1.34164
1.38998
1.43999
1.49152
1.54442
1.59851
1.65359
1.70949
1.76598
1.82285
1.87985
1.93676
1.99333
2.04932
2.10449
2.15863
2.21151
2.26296
2.31279
2.36086
2.40704
2.45125
2.49342
2.5335
2.57148
2.60738
2.64123
2.6731
2.70308
2.73128
2.75783
2.78305
2.80702
2.82991
2.85189
2.87313
2.89381
2.91408
2.93407
2.9539
2.97368
2.99347
3.01333
3.0333
3.05337
3.07353
3.09373
3.11389
3.13389
3.15359
3.17275
3.1911
3.20826
3.22377
3.23702
3.24728
3.25367
3.25514
3.25047
3.23834
3.21734
3.18604
3.14177
3.07955
2.996
2.8882
2.7546
2.59587
2.41538
2.21931
2.01613
1.81537
1.62504
1.44951
1.28978
1.14467
1.01734
0.905277
0.804705
0.715192
0.635343
0.563631
0.499469
0.444017
0.400681
0.373887
0.364958
0.369266
0.380061
0.392505
0.404691
0.416474
0.427453
0.437276
0.445531
0.451695
0.455098
0.454897
0.450097
0.439597
0.422243
0.396953
0.362945
0.319935
0.268346
0.209495
0.146039
0.0835161
0.0330783
0.00845286
0.00347023
0.00310987
0.00311064
0.00310964
0.00307671
0.00301441
0.00293169
0.0028383
0.00274238
0.00264987
0.00256457
0.00248858
0.00242274
0.00236697
0.00232066
0.00228289
0.00225267
0.00222903
0.00221111
0.00219822
0.00218987
0.00218575
0.00218575
0.00218997
0.00219872
0.00221249
0.00223203
0.00225832
0.0022926
0.00233646
0.00239179
0.0024609
0.00254647
0.00265155
0.00277937
0.00293282
0.00311328
0.00331826
0.00353768
0.09868
0.110206
0.123574
0.138787
0.15609
0.175746
0.198033
0.223228
0.251599
0.283385
0.318775
0.357888
0.400737
0.447204
0.497003
0.549662
0.604524
0.660763
0.717423
0.77346
0.827776
0.879267
0.926909
0.969926
1.008
1.04143
1.07111
1.09844
1.12499
1.15229
1.18154
1.21345
1.24834
1.28626
1.32708
1.37061
1.41662
1.46491
1.51526
1.56747
1.62134
1.67668
1.7333
1.79099
1.84955
1.90876
1.9684
2.02825
2.08806
2.14761
2.20668
2.26503
2.32246
2.37878
2.43378
2.48732
2.53923
2.5894
2.63772
2.68408
2.72843
2.7707
2.81086
2.84889
2.88479
2.91856
2.95023
2.97985
3.00749
3.0332
3.05719
3.0796
3.10057
3.12021
3.13867
3.15604
3.17245
3.18799
3.20274
3.21676
3.23009
3.24277
3.25479
3.26613
3.27671
3.28645
3.29519
3.30273
3.3088
3.31303
3.31497
3.31404
3.30953
3.3006
3.28629
3.26552
3.23713
3.19994
3.15292
3.09515
3.02391
2.93435
2.82513
2.69556
2.54619
2.37926
2.19915
2.01233
1.82673
1.6504
1.48954
1.34698
1.22208
1.11194
1.01323
0.922853
0.838196
0.760561
0.690748
0.628703
0.575217
0.532065
0.501293
0.483813
0.478016
0.480126
0.4861
0.492971
0.499457
0.505579
0.511245
0.516335
0.520622
0.523723
0.525059
0.523839
0.51904
0.509425
0.49355
0.46978
0.437024
0.39447
0.34184
0.27963
0.209433
0.135168
0.0665122
0.0207416
0.00518438
0.00310044
0.00283576
0.00272035
0.0026308
0.00254835
0.00246868
0.0023929
0.00232341
0.00226229
0.0022108
0.00216935
0.00213763
0.0021149
0.00210017
0.00209236
0.0020905
0.00209372
0.00210134
0.0021129
0.00212808
0.00214678
0.00216903
0.002195
0.00222503
0.00225954
0.00229915
0.00234456
0.00239668
0.00245655
0.00252539
0.00260462
0.00269578
0.00280053
0.00292047
0.00305688
0.0032102
0.00337929
0.00356095
0.110898
0.123956
0.139119
0.156395
0.176058
0.198412
0.223771
0.25245
0.284745
0.32091
0.361134
0.405508
0.453985
0.506352
0.562194
0.620893
0.681644
0.743496
0.805407
0.866294
0.925045
0.980537
1.0317
1.0777
1.11816
1.15341
1.18441
1.21268
1.23995
1.26788
1.29777
1.33038
1.36606
1.40483
1.44657
1.49104
1.538
1.58717
1.63832
1.6912
1.74557
1.80122
1.85792
1.91544
1.97357
2.03207
2.09072
2.14931
2.20762
2.26545
2.3226
2.3789
2.43419
2.48833
2.5412
2.5927
2.64275
2.69129
2.73828
2.78369
2.82749
2.8697
2.91031
2.94933
2.98679
3.02271
3.05712
3.09004
3.12152
3.15155
3.18024
3.20764
3.23379
3.25871
3.28243
3.30495
3.32629
3.34642
3.36534
3.383
3.39938
3.41439
3.42795
3.43992
3.45015
3.45843
3.46447
3.46792
3.46836
3.46523
3.45787
3.44548
3.42715
3.40183
3.36837
3.32562
3.27244
3.20788
3.1313
3.04252
2.93875
2.81551
2.67413
2.51678
2.34623
2.16607
1.98109
1.79768
1.62343
1.46594
1.33067
1.21934
1.12955
1.05614
0.99336
0.936249
0.881287
0.826437
0.773065
0.724266
0.682542
0.650343
0.628051
0.614877
0.608785
0.607159
0.607609
0.608411
0.608699
0.608575
0.608214
0.607703
0.606973
0.605749
0.603511
0.599473
0.592567
0.581449
0.564519
0.539958
0.505784
0.461272
0.405724
0.339224
0.262873
0.179813
0.0983749
0.0362581
0.00902334
0.00395304
0.00319051
0.00287285
0.002672
0.00253118
0.00242532
0.00234244
0.00227687
0.0022257
0.00218717
0.00215985
0.00214235
0.00213329
0.00213133
0.00213528
0.00214412
0.00215706
0.00217352
0.00219313
0.0022157
0.00224118
0.00226968
0.00230138
0.00233661
0.00237575
0.00241929
0.0024678
0.00252195
0.0025825
0.00265029
0.00272627
0.00281148
0.00290698
0.00301384
0.00313306
0.00326547
0.00341172
0.00357272
0.122723
0.137226
0.154088
0.173317
0.195215
0.220118
0.248374
0.280323
0.316277
0.356495
0.40114
0.450246
0.503666
0.561039
0.621758
0.684982
0.74968
0.81471
0.878916
0.941192
1.0005
1.05584
1.10628
1.15111
1.1901
1.22369
1.25297
1.27951
1.30522
1.33173
1.36016
1.3912
1.42517
1.46212
1.50192
1.54434
1.58909
1.63592
1.68453
1.73467
1.78608
1.83852
1.89175
1.94556
1.99972
2.05401
2.10825
2.16226
2.21586
2.26892
2.32133
2.373
2.42386
2.47389
2.52307
2.57143
2.619
2.66585
2.71204
2.75765
2.80277
2.84748
2.89186
2.936
2.97996
3.02381
3.06761
3.11139
3.15516
3.19883
3.24232
3.28553
3.32832
3.37057
3.41214
3.45286
3.49258
3.5311
3.56823
3.60377
3.63747
3.66907
3.69827
3.72474
3.74807
3.76782
3.78345
3.79432
3.7997
3.79873
3.79042
3.77367
3.74723
3.70981
3.66006
3.59673
3.51878
3.4255
3.3168
3.19331
3.05211
2.88898
2.70809
2.51426
2.3119
2.10491
1.89765
1.6961
1.50834
1.34339
1.20865
1.10711
1.03613
0.988715
0.956468
0.931937
0.909648
0.886103
0.859383
0.830363
0.802431
0.778365
0.759417
0.745742
0.735984
0.728647
0.72248
0.71664
0.710492
0.704123
0.697899
0.692017
0.686441
0.680858
0.674642
0.666836
0.656153
0.640996
0.619485
0.589803
0.550576
0.500677
0.439571
0.367495
0.285737
0.197609
0.111324
0.0439689
0.0121693
0.00530574
0.00402763
0.00342179
0.00303303
0.00277278
0.0025938
0.00246768
0.00237784
0.0023142
0.00227034
0.00224183
0.00222539
0.00221846
0.00221905
0.00222556
0.00223679
0.00225185
0.00227012
0.00229122
0.00231496
0.00234128
0.00237026
0.00240209
0.00243701
0.00247537
0.00251756
0.00256404
0.00261536
0.00267212
0.00273499
0.00280474
0.00288222
0.00296839
0.00306435
0.00317137
0.00329098
0.00342523
0.00357706
0.133215
0.148949
0.167255
0.188142
0.211926
0.238971
0.26964
0.30429
0.343233
0.386705
0.434822
0.487523
0.544517
0.605231
0.668789
0.734034
0.799614
0.864125
0.926269
0.984981
1.03945
1.08904
1.13327
1.17182
1.20479
1.23281
1.25709
1.27955
1.30186
1.32524
1.35051
1.37813
1.40832
1.44121
1.47674
1.51472
1.55491
1.59704
1.64088
1.68617
1.73268
1.7802
1.82852
1.87746
1.92686
1.97656
2.02645
2.07645
2.12649
2.17656
2.22667
2.27688
2.32727
2.37797
2.42911
2.48086
2.53339
2.58688
2.64147
2.69733
2.75456
2.81326
2.87348
2.93525
2.99855
3.06334
3.12954
3.19706
3.26581
3.33575
3.4065
3.47775
3.54917
3.6204
3.69111
3.76092
3.82947
3.89637
3.96122
4.02359
4.08302
4.13899
4.19098
4.23836
4.28048
4.3166
4.34586
4.36736
4.38005
4.38279
4.37431
4.35326
4.31823
4.26779
4.2006
4.1155
4.0117
3.88896
3.74778
3.58961
3.4111
3.20793
2.98628
2.75237
2.51082
2.26465
2.01697
1.77323
1.54227
1.3355
1.16407
1.03522
0.949361
0.89998
0.876545
0.868346
0.86692
0.866617
0.864195
0.858247
0.84868
0.836772
0.82413
0.811801
0.800128
0.789162
0.778781
0.768908
0.759153
0.74956
0.740476
0.731924
0.723577
0.714762
0.704485
0.69149
0.674346
0.651557
0.621689
0.583517
0.536177
0.479238
0.412805
0.337667
0.255702
0.171035
0.0926665
0.036236
0.0119307
0.00649441
0.00498237
0.00410088
0.00350204
0.00309463
0.00281869
0.00263149
0.00250439
0.00241869
0.00236213
0.00232648
0.00230609
0.00229696
0.00229622
0.00230181
0.00231228
0.00232658
0.00234402
0.00236418
0.00238682
0.00241186
0.00243936
0.00246946
0.00250237
0.0025384
0.00257789
0.00262127
0.00266901
0.00272167
0.0027799
0.00284443
0.00291615
0.00299611
0.00308559
0.00318617
0.00329989
0.0034294
0.00357821
0.141243
0.157834
0.177134
0.199147
0.224194
0.252647
0.284873
0.321223
0.361989
0.407365
0.457391
0.511886
0.570374
0.632024
0.69563
0.759647
0.822328
0.881949
0.937076
0.986778
1.03068
1.06884
1.10153
1.12914
1.15224
1.17175
1.18974
1.20738
1.22554
1.24493
1.26609
1.28942
1.31516
1.34326
1.37382
1.40678
1.442
1.47933
1.51859
1.55962
1.60227
1.6464
1.69191
1.73872
1.78678
1.83606
1.88658
1.93838
1.99157
2.04626
2.10262
2.16084
2.22112
2.2837
2.34879
2.41659
2.48728
2.56097
2.63776
2.71766
2.80064
2.88659
2.97536
3.06674
3.1605
3.25635
3.35398
3.45308
3.55329
3.65429
3.75602
3.85843
3.9612
4.06364
4.16516
4.2652
4.36319
4.45856
4.55069
4.63894
4.72261
4.80094
4.87312
4.9383
4.99553
5.04384
5.08215
5.10936
5.12428
5.12567
5.11226
5.08277
5.03595
4.97066
4.88593
4.78109
4.65591
4.51076
4.34674
4.16577
3.96385
3.73591
3.48781
3.22456
2.94897
2.66227
2.36642
2.06656
1.7722
1.49651
1.25381
1.05625
0.910423
0.815263
0.762489
0.739731
0.734659
0.737741
0.7429
0.746924
0.748561
0.747725
0.74492
0.740807
0.73594
0.730559
0.724774
0.718678
0.712193
0.705217
0.697604
0.688851
0.678221
0.664855
0.647879
0.62648
0.599964
0.567777
0.529516
0.484926
0.433924
0.376651
0.313595
0.245884
0.175965
0.109005
0.0543372
0.0219307
0.0102681
0.00709755
0.00559887
0.00456927
0.00383564
0.00332604
0.0029802
0.00274823
0.00259353
0.00249122
0.00242476
0.00238316
0.00235903
0.00234736
0.0023447
0.00234866
0.00235761
0.00237044
0.0023864
0.00240506
0.00242616
0.00244961
0.00247543
0.00250376
0.00253479
0.0025688
0.00260613
0.00264718
0.00269244
0.00274246
0.0027979
0.00285955
0.00292835
0.00300543
0.00309219
0.00319036
0.00330214
0.00343031
0.00357842
0.145813
0.162752
0.182429
0.204836
0.230281
0.259128
0.29173
0.328409
0.369421
0.414901
0.464799
0.518803
0.576246
0.636039
0.696634
0.756089
0.812246
0.863053
0.906965
0.943282
0.972267
0.994938
1.01263
1.02668
1.0382
1.04989
1.06241
1.07592
1.09056
1.10654
1.12414
1.14371
1.16556
1.18992
1.21681
1.24626
1.27831
1.31298
1.35021
1.38997
1.43226
1.47705
1.52439
1.57432
1.62693
1.68233
1.74065
1.80206
1.86673
1.93487
2.00667
2.08229
2.16189
2.24558
2.33342
2.42541
2.52147
2.62148
2.72525
2.83254
2.94307
3.05656
3.17269
3.29115
3.41163
3.53382
3.65741
3.78211
3.90759
4.03351
4.15951
4.28517
4.4102
4.53463
4.6583
4.78046
4.90035
5.01724
5.13035
5.23882
5.34175
5.43815
5.52698
5.60712
5.67744
5.73675
5.78386
5.81759
5.83678
5.84032
5.82717
5.79643
5.74731
5.67925
5.59192
5.4853
5.35977
5.21612
5.05559
4.87989
4.68439
4.46259
4.21707
3.94885
3.65725
3.34136
3.00233
2.64545
2.28082
1.92251
1.58659
1.2885
1.04047
0.849338
0.715208
0.631459
0.586541
0.567292
0.562391
0.56414
0.568255
0.572733
0.576754
0.579966
0.582105
0.582845
0.581791
0.57875
0.573448
0.565563
0.554936
0.541426
0.524953
0.505493
0.483039
0.457559
0.428962
0.39709
0.361738
0.322708
0.279911
0.233548
0.184435
0.134551
0.0876922
0.0494436
0.0246876
0.0130743
0.00884981
0.00691447
0.00558901
0.00459449
0.00386737
0.00335712
0.00300929
0.00277564
0.00261987
0.00251694
0.00245008
0.00240809
0.00238347
0.00237114
0.00236766
0.00237067
0.00237858
0.00239031
0.00240517
0.00242271
0.0024427
0.00246505
0.00248978
0.00251702
0.00254695
0.00257985
0.00261606
0.00265597
0.00270008
0.00274895
0.00280326
0.00286381
0.00293157
0.00300771
0.00309367
0.0031912
0.00330253
0.00343042
0.00357843
0.146442
0.163174
0.18255
0.204544
0.229436
0.257561
0.289236
0.324741
0.364278
0.407919
0.455528
0.506677
0.560546
0.615838
0.670736
0.722975
0.770056
0.809655
0.840157
0.861152
0.873649
0.879797
0.882189
0.88307
0.885961
0.892112
0.901031
0.912106
0.924858
0.939083
0.954871
0.972516
0.992388
1.01484
1.04014
1.06852
1.10005
1.13486
1.17309
1.21482
1.26017
1.30927
1.36226
1.41929
1.48053
1.54615
1.61634
1.69124
1.771
1.85572
1.94542
2.04009
2.13963
2.24385
2.3525
2.46523
2.58165
2.70132
2.82378
2.94857
3.07525
3.20343
3.33279
3.46305
3.59402
3.72559
3.85767
3.99023
4.12323
4.25664
4.39035
4.52423
4.65801
4.79135
4.92373
5.05501
5.18483
5.31284
5.43842
5.56079
5.67903
5.79212
5.89894
5.99831
6.08901
6.16983
6.23954
6.29701
6.34117
6.37107
6.38588
6.38496
6.3678
6.33411
6.28375
6.21675
6.13332
6.03378
5.91854
5.788
5.63738
5.45877
5.24972
5.00618
4.72354
4.39854
4.0314
3.62733
3.19686
2.75479
2.31833
1.90472
1.52918
1.20349
0.935385
0.728356
0.581172
0.487277
0.435207
0.411202
0.403019
0.402172
0.403726
0.4051
0.40502
0.402928
0.398681
0.392366
0.384019
0.373652
0.361544
0.347845
0.332578
0.315665
0.29695
0.276231
0.253299
0.227998
0.20031
0.170476
0.139155
0.107589
0.0776811
0.0517909
0.0320404
0.0192687
0.0124091
0.00912001
0.00730548
0.00599731
0.0049665
0.00417507
0.00359594
0.0031883
0.00290784
0.002717
0.00258806
0.00250178
0.00244514
0.00240928
0.00238819
0.00237773
0.00237508
0.00237828
0.002386
0.00239732
0.00241167
0.00242866
0.0024481
0.00246992
0.00249415
0.00252091
0.0025504
0.00258287
0.00261867
0.00265819
0.00270193
0.00275045
0.00280443
0.00286468
0.00293218
0.00300811
0.00309389
0.0031913
0.00330255
0.00343042
0.00357843
0.14333
0.159371
0.177862
0.198747
0.222267
0.248709
0.278334
0.311368
0.347952
0.388091
0.431583
0.477921
0.526196
0.575002
0.622385
0.665911
0.702896
0.730869
0.748218
0.754845
0.752499
0.74449
0.734782
0.72688
0.724899
0.728199
0.735624
0.746036
0.758556
0.772725
0.788491
0.806099
0.825938
0.848433
0.873976
0.902905
0.935509
0.972047
1.0127
1.05768
1.10715
1.16134
1.22043
1.28462
1.3541
1.42902
1.50952
1.59567
1.68749
1.78492
1.8878
1.99589
2.10885
2.22622
2.34747
2.47199
2.59909
2.72808
2.85824
2.98887
3.11933
3.24905
3.37758
3.50457
3.62985
3.75335
3.8752
3.99564
4.11502
4.23378
4.3524
4.47137
4.59111
4.71196
4.83412
4.95759
5.08213
5.20704
5.33231
5.45837
5.58503
5.71177
5.83781
5.96227
6.08416
6.20248
6.3162
6.42436
6.526
6.62022
6.70615
6.78294
6.84974
6.90563
6.94962
6.98057
6.99718
6.99795
6.98114
6.94483
6.88505
6.79373
6.66281
6.48288
6.24492
5.94253
5.57412
5.14443
4.66483
4.15214
3.62625
3.1069
2.61059
2.14873
1.7278
1.35184
1.0258
0.756977
0.552546
0.413962
0.332801
0.292313
0.274352
0.265807
0.259771
0.253481
0.246246
0.237791
0.228006
0.216867
0.204675
0.191497
0.177338
0.162209
0.146163
0.12933
0.111946
0.0943783
0.0771357
0.0608478
0.0461989
0.0338115
0.0240942
0.0171063
0.0125098
0.00966816
0.00787561
0.00659922
0.00557777
0.00473856
0.00407154
0.00356522
0.00319524
0.0029314
0.0027457
0.00261597
0.00252605
0.00246455
0.00242351
0.00239735
0.00238218
0.00237522
0.00237454
0.00237876
0.00238692
0.00239837
0.00241267
0.00242953
0.00244881
0.00247048
0.00249457
0.00252122
0.00255062
0.00258302
0.00261877
0.00265826
0.00270197
0.00275047
0.00280444
0.00286469
0.00293219
0.00300811
0.00309389
0.0031913
0.00330256
0.00343042
0.00357843
0.137198
0.15223
0.169456
0.188794
0.210432
0.234597
0.261486
0.291256
0.323983
0.359613
0.397889
0.438267
0.479817
0.521128
0.560258
0.594787
0.62205
0.639615
0.645986
0.641382
0.628189
0.610663
0.593682
0.582795
0.579252
0.581982
0.589494
0.60038
0.613597
0.628578
0.645194
0.663634
0.684267
0.70753
0.733858
0.763772
0.79762
0.835661
0.878157
0.925355
0.977494
1.0348
1.09749
1.16576
1.23978
1.31967
1.40553
1.49735
1.59507
1.69852
1.80744
1.92144
2.04003
2.16261
2.28847
2.41682
2.54679
2.67749
2.80796
2.93728
3.06454
3.18891
3.30964
3.42609
3.5378
3.64449
3.74609
3.8428
3.93507
4.02361
4.1094
4.19361
4.27759
4.36277
4.45055
4.54225
4.63897
4.74158
4.84964
4.96169
5.07902
5.20303
5.3345
5.47371
5.62065
5.77508
5.93667
6.10501
6.27957
6.45976
6.64479
6.83364
7.02493
7.21684
7.40701
7.59239
7.76927
7.93316
8.07895
8.20094
8.29727
8.3617
8.37898
8.33209
8.20462
7.98383
7.66371
7.24741
6.7481
6.18776
5.59407
4.99563
4.41666
3.87226
3.36581
2.89009
2.43232
1.98169
1.53718
1.11295
0.737982
0.445518
0.253603
0.151687
0.108373
0.0919456
0.084098
0.0783532
0.0731652
0.0678583
0.0622325
0.0563623
0.050374
0.0443993
0.0385713
0.0330227
0.0278797
0.0232514
0.0192189
0.0158236
0.0130593
0.0108723
0.00917484
0.00785767
0.00681061
0.00594728
0.00521436
0.00458792
0.00406137
0.00363221
0.00329398
0.00303491
0.00284049
0.00269652
0.00259091
0.00251418
0.00245916
0.00242055
0.00239443
0.00237792
0.00236889
0.00236577
0.00236743
0.00237305
0.00238203
0.00239395
0.00240853
0.00242559
0.00244504
0.00246688
0.00249117
0.00251804
0.00254768
0.00258036
0.0026164
0.0026562
0.00270022
0.00274903
0.0028033
0.00286383
0.00293158
0.00300772
0.00309367
0.0031912
0.00330253
0.00343042
0.00357844
0.128952
0.142825
0.158627
0.176255
0.195845
0.217558
0.241526
0.267837
0.2965
0.327405
0.360255
0.394495
0.429219
0.463087
0.494278
0.520541
0.539407
0.548659
0.547048
0.535121
0.515761
0.493893
0.475101
0.464406
0.461539
0.465128
0.473521
0.485251
0.499272
0.515019
0.532342
0.551394
0.572509
0.596105
0.622827
0.653023
0.687041
0.725203
0.767806
0.815119
0.867392
0.924858
0.987729
1.0562
1.13042
1.21051
1.29653
1.38847
1.48623
1.58961
1.69831
1.81189
1.92981
2.05141
2.17589
2.30239
2.42995
2.55754
2.6841
2.80855
2.92982
3.04686
3.15869
3.26441
3.36323
3.45453
3.53786
3.61301
3.68001
3.73922
3.79132
3.83736
3.8788
3.91747
3.95562
3.99582
4.0409
4.09379
4.15736
4.23417
4.32284
4.42193
4.53362
4.65969
4.80177
4.96129
5.13949
5.33751
5.55629
5.7966
6.05892
6.3433
6.6492
6.9753
7.31923
7.67737
8.04455
8.41393
8.7768
9.12269
9.45348
9.7675
10.0396
10.2401
10.3381
10.3065
10.1276
9.7976
9.329
8.74971
8.09889
7.42052
6.75584
6.13601
5.57635
5.07425
4.61158
4.16079
3.69233
3.18156
2.61557
2.00095
1.37273
0.799596
0.369014
0.130565
0.0426637
0.0219121
0.0183068
0.0171268
0.0160214
0.0148167
0.0135805
0.0123685
0.0112109
0.0101244
0.0091196
0.00820369
0.00738082
0.00665197
0.00601473
0.00546352
0.00498568
0.00456648
0.00419675
0.00386985
0.00358193
0.00333202
0.00311928
0.00294195
0.0027972
0.0026812
0.00258967
0.00251844
0.00246378
0.00242255
0.00239216
0.00237054
0.00235604
0.00234738
0.0023436
0.00234396
0.00234791
0.00235504
0.00236506
0.00237775
0.00239296
0.0024106
0.00243064
0.00245311
0.00247809
0.00250572
0.0025362
0.00256978
0.00260678
0.0026476
0.00269269
0.00274261
0.00279799
0.0028596
0.00292837
0.00300544
0.00309219
0.00319037
0.00330215
0.00343031
0.00357842
0.119408
0.132088
0.146455
0.162397
0.180006
0.199389
0.220615
0.243714
0.268639
0.29523
0.323164
0.351887
0.380539
0.407885
0.432276
0.451701
0.463982
0.467219
0.460479
0.444617
0.422826
0.400325
0.382842
0.373973
0.372808
0.377784
0.387192
0.399604
0.414055
0.430033
0.447408
0.466326
0.4871
0.510288
0.53633
0.565582
0.598412
0.635157
0.676118
0.721563
0.771732
0.82685
0.887118
0.952718
1.0238
1.10049
1.18283
1.27082
1.36439
1.46333
1.56737
1.67609
1.78896
1.90532
2.02439
2.14529
2.26704
2.3886
2.50886
2.6267
2.74097
2.85054
2.95428
3.05114
3.14017
3.22052
3.29153
3.35268
3.40372
3.44466
3.47578
3.49766
3.51122
3.51769
3.51871
3.5163
3.5129
3.51142
3.51529
3.52849
3.55563
3.60034
3.66194
3.74264
3.84445
3.96953
4.1202
4.29901
4.50869
4.75212
5.03215
5.35132
5.71164
6.11425
6.55914
7.04478
7.56778
8.12232
8.69941
9.28619
9.89169
10.5235
11.1468
11.7153
12.1762
12.4781
12.5807
12.4633
12.1299
11.6095
10.9502
10.2105
9.44962
8.71759
8.04795
7.45297
6.92409
6.43719
5.96021
5.45997
4.90674
4.27704
3.55722
2.75108
1.89495
1.07776
0.443726
0.111873
0.020765
0.0085002
0.0074766
0.00714669
0.00675603
0.00631069
0.00585944
0.00543552
0.00505225
0.00471136
0.00440956
0.00414183
0.00390302
0.00368856
0.00349476
0.00331904
0.00315991
0.00301673
0.00288938
0.00277686
0.00267871
0.00259469
0.00252418
0.00246633
0.00241969
0.00238274
0.00235403
0.00233226
0.00231633
0.00230533
0.00229852
0.00229539
0.00229552
0.00229865
0.00230457
0.00231315
0.0023243
0.00233795
0.00235406
0.00237263
0.00239366
0.00241724
0.00244347
0.00247251
0.00250457
0.00253992
0.00257889
0.00262192
0.00266941
0.00272191
0.00278003
0.0028445
0.00291619
0.00299613
0.0030856
0.00318618
0.00329989
0.0034294
0.00357821
0.109201
0.120705
0.133687
0.14804
0.163824
0.181105
0.199911
0.220225
0.241959
0.264923
0.288779
0.312985
0.336738
0.358911
0.378033
0.392333
0.399932
0.399246
0.38963
0.372158
0.35015
0.328806
0.313585
0.306861
0.30746
0.313689
0.323825
0.336514
0.350884
0.366492
0.383246
0.401307
0.421008
0.442904
0.46732
0.494644
0.525248
0.559463
0.597576
0.639837
0.68647
0.737677
0.793643
0.854534
0.920493
0.991631
1.06801
1.14965
1.23649
1.32836
1.42504
1.52616
1.63124
1.73968
1.85077
1.96369
2.0775
2.1912
2.30375
2.41403
2.52092
2.62321
2.71972
2.80926
2.8908
2.96353
3.02682
3.07971
3.12172
3.15292
3.17356
3.18403
3.18499
3.17735
3.16227
3.14117
3.11576
3.08802
3.06025
3.03511
3.01574
3.00591
3.0092
3.0278
3.06444
3.12212
3.20435
3.31545
3.46085
3.64736
3.88332
4.17457
4.52542
4.94105
5.42426
5.97515
6.59108
7.26712
7.99704
8.77103
9.61062
10.5377
11.513
12.4764
13.3531
14.0656
14.5463
14.7508
14.6672
14.318
13.7536
13.0409
12.2504
11.4458
10.677
9.97189
9.33558
8.75421
8.20254
7.6516
7.07356
6.44293
5.73511
4.92571
3.99598
2.95204
1.86162
0.889788
0.257837
0.032441
0.00583016
0.00478955
0.00460724
0.00440521
0.00418106
0.00395823
0.00374963
0.00355879
0.00338529
0.00322775
0.00308492
0.00295585
0.00283987
0.00273649
0.00264523
0.00256559
0.00249695
0.00243852
0.00238943
0.00234873
0.00231528
0.00228775
0.00226564
0.00224828
0.00223499
0.0022252
0.00221844
0.00221434
0.00221268
0.00221333
0.00221622
0.00222135
0.00222875
0.00223845
0.0022505
0.00226493
0.00228181
0.00230118
0.00232313
0.00234778
0.00237529
0.00240585
0.00243972
0.00247723
0.00251882
0.00256488
0.0026159
0.00267245
0.00273518
0.00280485
0.00288228
0.00296842
0.00306437
0.00317137
0.00329098
0.00342523
0.00357706
0.0987937
0.109149
0.120803
0.133665
0.147773
0.163167
0.17985
0.197777
0.216838
0.236829
0.257413
0.278075
0.298069
0.316376
0.331684
0.342437
0.34701
0.344072
0.33318
0.315498
0.294296
0.274581
0.261419
0.25644
0.258349
0.26536
0.275754
0.288253
0.302072
0.316836
0.332488
0.349212
0.367365
0.387403
0.409649
0.434494
0.462304
0.493395
0.528034
0.56645
0.608842
0.655389
0.706253
0.761581
0.8215
0.886113
0.955487
1.02964
1.10854
1.19206
1.28002
1.37211
1.46794
1.56698
1.66862
1.77212
1.87665
1.98131
2.08518
2.18725
2.28641
2.38144
2.47129
2.5541
2.62863
2.69448
2.75111
2.79797
2.83469
2.86117
2.87748
2.88393
2.88101