/*--------------------------------*- C++ -*----------------------------------*\
| =========                 |                                                 |
| \\      /  F ield         | OpenFOAM: The Open Source CFD Toolbox           |
|  \\    /   O peration     | Version:  2406                                  |
|   \\  /    A nd           | Website:  www.openfoam.com                      |
|    \\/     M anipulation  |                                                 |
\*---------------------------------------------------------------------------*/
FoamFile
{
    version     2.0;
    format      ascii;
    arch        "LSB;label=32;scalar=64";
    class       volScalarField;
    location    "300";
    object      nut;
}
// * * * * * * * * * * * * * * * * * * * * * * * * * * * * * * * * * * * * * //

dimensions      [0 2 -1 0 0 0 0];

internalField   nonuniform List<scalar> 
5619
(
4.78415e-05
4.93058e-05
5.09377e-05
5.27629e-05
5.4783e-05
5.70117e-05
5.94574e-05
6.21265e-05
6.50224e-05
6.81459e-05
7.14949e-05
7.50637e-05
7.88408e-05
8.28056e-05
8.69242e-05
9.11459e-05
9.54006e-05
9.96012e-05
0.000103648
0.000107439
0.000110882
0.000113909
0.000116486
0.000118625
0.000120378
0.000121833
0.000123098
0.000124282
0.000125481
0.000126764
0.000128172
0.000129717
0.000131398
0.000133204
0.000135119
0.00013713
0.000139224
0.000141392
0.000143625
0.000145915
0.000148257
0.000150643
0.000153066
0.00015552
0.000157997
0.000160487
0.000162982
0.000165471
0.000167944
0.00017039
0.000172797
0.000175155
0.000177454
0.000179683
0.000181837
0.000183908
0.000185893
0.00018779
0.000189602
0.000191333
0.000192989
0.000194582
0.000196124
0.000197631
0.000199123
0.000200624
0.000202159
0.000203714
0.00020527
0.000206825
0.000208382
0.000209942
0.000211506
0.000213077
0.000214656
0.000216245
0.000217845
0.000219458
0.000221085
0.000222728
0.000224387
0.000226062
0.000227754
0.000229459
0.000231174
0.000232895
0.000234611
0.000236314
0.00023799
0.00023962
0.000241186
0.00024266
0.000244015
0.000245216
0.000246225
0.000246998
0.00024749
0.000247652
0.000247433
0.000246781
0.000245644
0.000243819
0.000241074
0.000237189
0.000231982
0.000225337
0.000217232
0.000207757
0.000197169
0.00018646
0.000174888
0.00016373
0.000152822
0.000142214
0.000131845
0.000121868
0.000112717
0.000103919
9.52559e-05
8.65476e-05
7.75717e-05
6.79916e-05
5.73517e-05
4.73808e-05
5.22924e-05
5.85068e-05
6.3542e-05
6.7366e-05
7.02056e-05
7.23927e-05
7.39597e-05
7.49175e-05
7.52611e-05
7.49686e-05
7.39982e-05
7.22854e-05
6.97393e-05
6.62445e-05
6.16731e-05
5.59242e-05
4.90175e-05
4.12993e-05
3.28659e-05
2.48681e-05
1.85256e-05
1.5105e-05
1.41343e-05
1.39339e-05
1.38632e-05
1.39053e-05
1.40641e-05
1.43212e-05
1.46197e-05
1.4942e-05
1.52743e-05
1.56059e-05
1.59281e-05
1.62347e-05
1.65212e-05
1.67847e-05
1.70237e-05
1.72379e-05
1.7428e-05
1.75951e-05
1.77411e-05
1.78681e-05
1.79782e-05
1.80736e-05
1.81566e-05
1.82292e-05
1.82933e-05
1.83506e-05
1.84025e-05
1.84505e-05
1.8496e-05
1.85409e-05
1.85884e-05
1.86441e-05
1.87184e-05
1.88287e-05
1.90005e-05
1.92654e-05
1.96496e-05
2.01487e-05
2.06658e-05
2.08467e-05
1.95834e-05
0.000222253
0.000239579
0.000259796
0.000281382
0.0003044
0.000328737
0.000354316
0.000381026
0.000408738
0.000437301
0.000466564
0.000496395
0.000526714
0.000557512
0.000588855
0.00062086
0.000653643
0.000687242
0.000721531
0.000756141
0.000790422
0.000823466
0.000854234
0.000881777
0.000905471
0.000925184
0.000941325
0.000954756
0.000966595
0.00097796
0.000989758
0.00100257
0.00101667
0.00103208
0.00104871
0.00106638
0.00108491
0.00110416
0.00112398
0.00114428
0.00116499
0.00118604
0.00120739
0.00122902
0.00125089
0.00127301
0.00129534
0.00131788
0.00134061
0.00136351
0.00138656
0.00140971
0.00143291
0.00145612
0.00147925
0.00150224
0.00152499
0.00154742
0.00156943
0.00159093
0.00161181
0.00163199
0.00165139
0.00166992
0.00168753
0.00170415
0.00171976
0.0017361
0.0017532
0.0017707
0.0017886
0.00180696
0.00182582
0.00184523
0.00186524
0.00188587
0.00190716
0.00192912
0.00195181
0.00197526
0.00199952
0.00202466
0.00205075
0.00207784
0.00210601
0.00213531
0.00216578
0.00219742
0.00223022
0.00226408
0.00229887
0.00233436
0.00237024
0.0024061
0.00244139
0.00247544
0.00250744
0.00253641
0.00256131
0.00258091
0.00259397
0.00259902
0.00259263
0.00257126
0.0025318
0.00247219
0.00239178
0.00229145
0.00217305
0.00204065
0.00188092
0.00171303
0.00155239
0.00140273
0.00126295
0.00112436
0.000987479
0.00086059
0.000744121
0.000637105
0.000538258
0.000447012
0.000366171
0.000317086
0.000324426
0.000376522
0.000443936
0.000513015
0.000578138
0.00063894
0.000693162
0.000739399
0.000776833
0.000805089
0.000824115
0.000834076
0.000835226
0.00082769
0.000810989
0.000783053
0.000738246
0.000663825
0.00055251
0.000412363
0.000257062
0.000126894
6.08544e-05
4.41198e-05
4.14244e-05
4.07489e-05
4.04288e-05
4.02223e-05
4.02128e-05
4.0403e-05
4.06934e-05
4.10415e-05
4.1417e-05
4.17981e-05
4.21669e-05
4.25085e-05
4.2811e-05
4.30652e-05
4.32648e-05
4.34061e-05
4.34876e-05
4.35089e-05
4.34702e-05
4.33716e-05
4.32124e-05
4.29899e-05
4.26984e-05
4.23284e-05
4.18645e-05
4.1284e-05
4.05538e-05
3.96288e-05
3.84504e-05
3.69504e-05
3.50635e-05
3.27559e-05
3.00739e-05
2.72028e-05
2.45103e-05
2.25524e-05
2.2128e-05
2.48022e-05
3.63038e-05
0.000597178
0.000645694
0.000700378
0.000757686
0.00081775
0.000880409
0.000945599
0.0010132
0.00108306
0.00115498
0.00122877
0.00130431
0.00138158
0.00146074
0.0015421
0.00162601
0.00171275
0.00180229
0.00189401
0.0019866
0.00207788
0.00216493
0.00224455
0.00231381
0.00237085
0.00241529
0.00244843
0.00247291
0.00249213
0.00250944
0.00252754
0.00254812
0.00257197
0.00259921
0.00262957
0.00266263
0.00269797
0.0027352
0.00277405
0.0028143
0.00285582
0.00289852
0.00294235
0.0029873
0.00303336
0.00308054
0.00312883
0.00317821
0.00322866
0.0032801
0.00333243
0.00338553
0.0034392
0.00349323
0.00354736
0.00360127
0.00365465
0.00370715
0.00375842
0.0038081
0.0038559
0.00390154
0.00394483
0.00398566
0.00402404
0.0040601
0.00409412
0.00412657
0.00416014
0.00419376
0.00422731
0.00426097
0.00429495
0.00432947
0.00436474
0.00440095
0.00443828
0.00447689
0.00451694
0.00455855
0.00460188
0.00464703
0.00469412
0.00474322
0.00479441
0.00484769
0.00490302
0.0049603
0.00501933
0.0050798
0.00514127
0.00520315
0.00526469
0.0053249
0.0053826
0.00543634
0.00548443
0.00552489
0.00555554
0.0055739
0.00557725
0.00556059
0.00551725
0.00544068
0.00532565
0.00516927
0.00497184
0.00473706
0.00447162
0.00418338
0.00388082
0.00355807
0.00323854
0.00293458
0.00264545
0.00236476
0.00208145
0.00181804
0.00157443
0.00135
0.00114494
0.00096281
0.000816908
0.000741975
0.000764351
0.000863351
0.000991953
0.00112479
0.00125113
0.00136996
0.00147691
0.00156944
0.00164613
0.00170626
0.00174942
0.00177537
0.0017837
0.00177348
0.00174252
0.00168604
0.00159468
0.00145275
0.0012422
0.000951862
0.000614549
0.000310988
0.000125585
6.52769e-05
5.71046e-05
5.67964e-05
5.69569e-05
5.68063e-05
5.67411e-05
5.6719e-05
5.67197e-05
5.67364e-05
5.6762e-05
5.67872e-05
5.68002e-05
5.6788e-05
5.6737e-05
5.66348e-05
5.64707e-05
5.62357e-05
5.5923e-05
5.55273e-05
5.50445e-05
5.44714e-05
5.38051e-05
5.30427e-05
5.21819e-05
5.12214e-05
5.01622e-05
4.90096e-05
4.77773e-05
4.64922e-05
4.52026e-05
4.39891e-05
4.29779e-05
4.23568e-05
4.2391e-05
4.3446e-05
4.60426e-05
5.10399e-05
6.02101e-05
7.8121e-05
0.000121797
0.00114273
0.00122343
0.00131355
0.00140754
0.00150575
0.00160811
0.0017147
0.00182549
0.00194037
0.00205918
0.00218179
0.00230813
0.00243834
0.00257277
0.00271192
0.00285629
0.00300605
0.00316067
0.00331857
0.0034768
0.00363099
0.00377563
0.00390487
0.00401372
0.00409927
0.00416148
0.00420321
0.00422963
0.00424697
0.00426125
0.00427716
0.00429757
0.00432377
0.00435592
0.00439358
0.00443604
0.00448261
0.0045327
0.00458585
0.00464173
0.00470014
0.00476096
0.00482411
0.00488956
0.00495729
0.00502728
0.00509948
0.00517383
0.00525021
0.00532848
0.0054084
0.0054897
0.00557204
0.00565503
0.00573823
0.00582115
0.00590329
0.00598412
0.00606316
0.00613993
0.00621403
0.00628512
0.00635295
0.00641741
0.00647848
0.00653626
0.00659096
0.00664291
0.0066926
0.00674207
0.00679034
0.00683752
0.00688391
0.00692982
0.00697557
0.00702148
0.00706783
0.00711488
0.00716287
0.00721199
0.0072624
0.00731425
0.00736761
0.00742252
0.00747895
0.00753681
0.00759591
0.00765598
0.00771663
0.00777732
0.00783736
0.00789587
0.00795177
0.00800375
0.00805022
0.00808934
0.008119
0.00813678
0.0081401
0.00812613
0.00809076
0.00802566
0.00792299
0.00777566
0.00757871
0.00733065
0.00703432
0.00669707
0.00632989
0.00594532
0.00555526
0.00516277
0.00476554
0.00437606
0.00399347
0.00361113
0.00321598
0.00283829
0.00248356
0.00215631
0.00186329
0.00161779
0.00144634
0.00138693
0.00144848
0.00159143
0.00176808
0.00194525
0.00210994
0.00226291
0.00239935
0.00251627
0.00261186
0.00268495
0.00273461
0.0027598
0.00275906
0.00273006
0.00266899
0.0025695
0.00242162
0.00221113
0.00192149
0.00154095
0.00107951
0.000601507
0.000247773
9.54826e-05
6.69587e-05
6.51479e-05
6.52649e-05
6.51851e-05
6.50625e-05
6.48898e-05
6.4706e-05
6.4547e-05
6.44383e-05
6.43917e-05
6.44076e-05
6.44781e-05
6.459e-05
6.4728e-05
6.48774e-05
6.50262e-05
6.51668e-05
6.52967e-05
6.54197e-05
6.55458e-05
6.5692e-05
6.58829e-05
6.61517e-05
6.65422e-05
6.7111e-05
6.79306e-05
6.90935e-05
7.07173e-05
7.29495e-05
7.59734e-05
8.0013e-05
8.53402e-05
9.22915e-05
0.000101322
0.000113157
0.000129175
0.000152361
0.000189884
0.000263034
0.00179554
0.00190583
0.00202904
0.00215784
0.00229283
0.0024341
0.00258187
0.00273619
0.00289704
0.00306428
0.00323776
0.00341745
0.00360348
0.00379616
0.00399589
0.00420285
0.00441665
0.00463584
0.00485746
0.00507676
0.00528719
0.00548096
0.00565019
0.00578856
0.00589293
0.00596416
0.00600707
0.00602933
0.00603984
0.00604697
0.00605713
0.00607415
0.00609967
0.00613383
0.00617598
0.00622515
0.00628038
0.00634083
0.00640584
0.00647496
0.00654785
0.00662429
0.00670413
0.00678725
0.00687355
0.00696293
0.00705525
0.00715035
0.007248
0.00734794
0.00744983
0.00755327
0.00765781
0.00776295
0.00786816
0.00797287
0.00807652
0.00817855
0.00827843
0.00837567
0.00846982
0.00856054
0.00864751
0.00873052
0.00880943
0.00888416
0.00895469
0.00902108
0.00908343
0.00914306
0.00919968
0.00925347
0.00930471
0.00935372
0.00940082
0.00944631
0.00949051
0.00953367
0.00957604
0.00961781
0.00965916
0.00970018
0.00974092
0.00978137
0.00982145
0.00986098
0.00989971
0.00993724
0.00997309
0.0100066
0.0100369
0.0100631
0.0100838
0.0100976
0.0101028
0.0100973
0.010079
0.0100454
0.00999391
0.00992207
0.00982402
0.00968874
0.00950951
0.00928118
0.00900171
0.00867341
0.00830374
0.00790511
0.00749323
0.00708399
0.00668899
0.00631115
0.00594388
0.00557371
0.00519306
0.0047918
0.00435442
0.00391574
0.00349478
0.00310783
0.00277405
0.00251923
0.00237517
0.00236334
0.00246661
0.00263746
0.00283056
0.00301553
0.00318485
0.00334
0.00347661
0.00359161
0.00368269
0.003748
0.00378577
0.00379399
0.00377012
0.00371088
0.00361159
0.00346557
0.00326376
0.00299428
0.00264332
0.00219876
0.00165958
0.00105739
0.000496778
0.000167167
8.35108e-05
7.47024e-05
7.36686e-05
7.35043e-05
7.37033e-05
7.41712e-05
7.49138e-05
7.59611e-05
7.73361e-05
7.90421e-05
8.10604e-05
8.3354e-05
8.58725e-05
8.85604e-05
9.13644e-05
9.42406e-05
9.71593e-05
0.000100108
0.000103091
0.000106131
0.000109266
0.000112549
0.000116043
0.000119826
0.000123987
0.000128626
0.000133855
0.000139799
0.000146598
0.000154413
0.000163436
0.000173918
0.000186215
0.000200891
0.000218885
0.000241834
0.000272637
0.000316372
0.000381118
0.0025011
0.00263903
0.00279358
0.00295599
0.00312705
0.003307
0.00349619
0.00369479
0.00390276
0.00411993
0.00434606
0.00458091
0.0048243
0.00507609
0.00533603
0.00560348
0.00587698
0.00615388
0.00642985
0.00669867
0.00695234
0.00718178
0.00737815
0.00753473
0.00764875
0.00772224
0.00776176
0.00777706
0.00777909
0.00777809
0.00778184
0.00779483
0.0078189
0.00785413
0.00789966
0.00795426
0.00801667
0.00808579
0.00816073
0.00824081
0.00832553
0.00841449
0.00850741
0.00860401
0.00870408
0.00880738
0.00891365
0.00902263
0.00913398
0.00924735
0.0093623
0.00947839
0.00959511
0.00971194
0.00982832
0.00994369
0.0100575
0.0101692
0.0102783
0.0103843
0.0104867
0.0105852
0.0106794
0.010769
0.0108537
0.0109333
0.0110076
0.0110766
0.0111401
0.0111979
0.0112506
0.0112987
0.0113423
0.0113818
0.0114174
0.0114492
0.0114777
0.0115029
0.0115251
0.0115444
0.0115611
0.011575
0.0115864
0.0115951
0.011601
0.011604
0.0116037
0.0115997
0.0115915
0.0115783
0.0115592
0.0115331
0.0114986
0.011454
0.0113976
0.0113272
0.0112404
0.0111351
0.0110089
0.0108599
0.0106799
0.0104557
0.0101835
0.00986231
0.00949541
0.00909118
0.00866384
0.00823276
0.00782008
0.00744587
0.00712173
0.00684545
0.00660065
0.00636223
0.0061041
0.00580504
0.00544927
0.00504352
0.00464448
0.00428028
0.00398116
0.00377701
0.00368799
0.00371155
0.00381895
0.00397105
0.00413467
0.00428777
0.00442586
0.00455072
0.0046589
0.00474737
0.00481329
0.00485384
0.00486607
0.00484675
0.00479214
0.00469765
0.00455741
0.00436352
0.00410863
0.00378278
0.00337407
0.00287079
0.00226699
0.00157744
0.000874891
0.000339756
0.000132218
0.000105605
0.000101149
0.0001006
0.000101932
0.000104629
0.000108445
0.000113229
0.000118845
0.000125134
0.000131911
0.000138978
0.000146141
0.000153235
0.000160136
0.000166768
0.000173104
0.000179152
0.000184955
0.000190575
0.000196091
0.000201588
0.00020716
0.000212904
0.000218919
0.00022531
0.000232185
0.000239664
0.000247878
0.000256984
0.000267177
0.00027871
0.000291925
0.000307296
0.000325473
0.000347309
0.000373768
0.000405361
0.000440262
0.00321546
0.00338003
0.00356504
0.00376058
0.00396756
0.00418636
0.00441747
0.00466109
0.00491715
0.00518532
0.00546506
0.00575562
0.00605609
0.00636536
0.00668197
0.0070039
0.00732831
0.00765125
0.00796738
0.00826983
0.0085503
0.00879966
0.00900922
0.00917263
0.00928781
0.00935787
0.00939072
0.00939745
0.00939039
0.00938111
0.00937852
0.00938747
0.00940972
0.00944528
0.00949307
0.00955161
0.00961934
0.00969487
0.00977702
0.00986485
0.00995762
0.0100547
0.0101556
0.01026
0.0103673
0.0104772
0.0105894
0.0107034
0.0108189
0.0109354
0.0110526
0.0111698
0.0112866
0.0114026
0.0115171
0.0116297
0.0117398
0.0118469
0.0119506
0.0120503
0.0121457
0.0122362
0.0123216
0.0124015
0.0124756
0.0125437
0.0126056
0.0126611
0.0127101
0.0127518
0.0127873
0.0128172
0.0128417
0.0128609
0.0128752
0.0128847
0.0128897
0.0128901
0.0128863
0.0128782
0.012866
0.0128497
0.0128293
0.0128045
0.0127753
0.0127414
0.0127022
0.0126573
0.0126058
0.0125468
0.0124792
0.0124015
0.0123119
0.0122086
0.0120892
0.0119514
0.0117927
0.0116108
0.0114037
0.0111698
0.0108985
0.010574
0.0101962
0.00976921
0.00930206
0.00880973
0.00831347
0.00784067
0.00742266
0.00708892
0.00685744
0.00672506
0.00666469
0.00663379
0.00658912
0.00649813
0.00634268
0.00611777
0.00585933
0.00561396
0.0054154
0.00528901
0.00524209
0.00526492
0.0053362
0.00543226
0.0055336
0.00562685
0.00570895
0.00578084
0.00583999
0.00588359
0.00590842
0.0059108
0.0058866
0.00583115
0.00573924
0.00560482
0.00542084
0.0051788
0.00486819
0.00448317
0.004013
0.00344725
0.00277936
0.00201785
0.00121707
0.00053736
0.000202819
0.000167803
0.000168942
0.000167807
0.000170219
0.000175654
0.000183256
0.000192309
0.000202202
0.000212413
0.000222519
0.000232217
0.000241319
0.000249743
0.000257482
0.000264582
0.000271118
0.00027718
0.000282867
0.000288278
0.00029351
0.00029866
0.00030382
0.000309081
0.000314534
0.000320268
0.000326375
0.000332947
0.000340088
0.000347906
0.000356523
0.000366074
0.000376703
0.000388553
0.000401725
0.000416194
0.000431633
0.000447095
0.000460657
0.0039022
0.00409266
0.00430736
0.00453547
0.00477787
0.00503515
0.00530786
0.0055962
0.00589998
0.00621856
0.00655085
0.00689529
0.00724979
0.00761174
0.00797791
0.00834443
0.00870678
0.00905978
0.00939762
0.00971376
0.0100009
0.0102513
0.0104574
0.0106143
0.0107206
0.0107807
0.0108033
0.0108001
0.0107832
0.0107657
0.0107567
0.0107618
0.0107819
0.0108169
0.0108657
0.0109264
0.0109973
0.0110766
0.0111629
0.011255
0.0113518
0.0114524
0.0115561
0.0116623
0.0117703
0.0118796
0.0119897
0.0121002
0.0122106
0.0123203
0.012429
0.0125362
0.0126414
0.0127442
0.0128441
0.0129407
0.0130334
0.013122
0.013206
0.013285
0.0133588
0.013427
0.0134894
0.0135458
0.0135963
0.0136407
0.0136792
0.0137119
0.0137387
0.0137604
0.0137776
0.0137908
0.0138002
0.0138059
0.0138081
0.013807
0.0138024
0.0137944
0.0137829
0.0137678
0.013749
0.0137261
0.0136988
0.0136666
0.013629
0.0135853
0.0135346
0.0134757
0.0134075
0.0133284
0.0132367
0.0131303
0.0130069
0.0128639
0.0126986
0.0125082
0.01229
0.0120416
0.0117611
0.0114479
0.0110884
0.0106641
0.0101777
0.00963717
0.00905547
0.00845053
0.00784629
0.00727446
0.0067751
0.00639276
0.00616525
0.00610682
0.00619492
0.00637366
0.00657529
0.00674453
0.00685011
0.00688324
0.0068507
0.00678125
0.00671317
0.00666749
0.00665261
0.00666458
0.00669512
0.00673426
0.00677331
0.00680604
0.00683033
0.00684579
0.00685055
0.00684202
0.00681679
0.00677074
0.00669902
0.00659604
0.00645541
0.00626972
0.00603022
0.00572885
0.00535876
0.00491098
0.00437646
0.00374731
0.00302032
0.00220722
0.00136258
0.00064003
0.000268905
0.00025018
0.00028059
0.000281895
0.000282024
0.000285321
0.000291086
0.000298226
0.000305878
0.000313471
0.000320685
0.000327387
0.000333554
0.00033922
0.000344441
0.000349279
0.000353793
0.000358041
0.00036208
0.000365967
0.000369759
0.000373511
0.00037728
0.000381121
0.000385087
0.000389231
0.000393603
0.000398248
0.000403211
0.000408528
0.000414227
0.000420322
0.000426804
0.000433626
0.000440682
0.000447781
0.000454619
0.00046078
0.000465842
0.00452832
0.00474334
0.00498609
0.00524499
0.00552086
0.00581443
0.0061263
0.00645661
0.00680495
0.00717023
0.00755064
0.00794348
0.00834516
0.0087511
0.00915581
0.00955308
0.00993638
0.0102993
0.010636
0.0109412
0.01121
0.0114378
0.0116198
0.011753
0.0118381
0.01188
0.0118869
0.0118698
0.011845
0.0118232
0.0118112
0.0118131
0.0118318
0.0118665
0.0119159
0.0119782
0.0120513
0.0121332
0.0122221
0.0123165
0.012415
0.0125164
0.0126197
0.0127239
0.0128281
0.0129317
0.013034
0.0131344
0.0132322
0.013327
0.0134184
0.0135059
0.0135893
0.0136683
0.0137426
0.0138123
0.0138772
0.0139373
0.0139929
0.0140441
0.0140911
0.0141343
0.0141741
0.0142107
0.0142446
0.0142761
0.0143056
0.0143334
0.01436
0.0143861
0.0144121
0.0144379
0.0144635
0.0144886
0.0145128
0.0145357
0.014557
0.014576
0.0145922
0.0146051
0.0146137
0.0146175
0.0146154
0.0146066
0.0145899
0.0145641
0.0145277
0.0144792
0.0144168
0.0143384
0.0142417
0.0141244
0.0139837
0.0138168
0.0136208
0.0133928
0.0131302
0.0128309
0.0124936
0.0121181
0.0116886
0.0111839
0.0106077
0.00996888
0.00927947
0.00855448
0.00781334
0.00708427
0.00640858
0.00584099
0.00544213
0.00526175
0.00531611
0.00557084
0.00594666
0.00635128
0.0067142
0.0070006
0.0072049
0.00733799
0.00741607
0.00746084
0.00748848
0.00750759
0.00752128
0.00752903
0.00752932
0.00752078
0.00750196
0.00747107
0.00742638
0.00736534
0.00728471
0.00718059
0.00704843
0.00688292
0.00667797
0.00642675
0.00612183
0.00575557
0.0053205
0.0048096
0.00421708
0.00354017
0.00278378
0.00197254
0.00117941
0.000565036
0.000310136
0.00035863
0.000412341
0.0004148
0.000406696
0.000399619
0.000395127
0.000392861
0.000392209
0.000392656
0.000393841
0.000395518
0.000397518
0.000399722
0.000402042
0.000404416
0.000406799
0.000409166
0.000411505
0.000413815
0.000416106
0.000418393
0.000420696
0.000423035
0.000425432
0.000427907
0.000430479
0.000433163
0.000435967
0.000438895
0.000441942
0.000445095
0.000448328
0.000451603
0.000454869
0.000458067
0.00046114
0.000464056
0.000466849
0.00506106
0.00529807
0.0055656
0.0058515
0.00615646
0.00648134
0.00682672
0.00719263
0.00757839
0.0079824
0.00840201
0.00883327
0.00927084
0.00970788
0.0101363
0.010547
0.0109311
0.0112807
0.0115901
0.0118562
0.0120781
0.0122559
0.0123896
0.0124799
0.0125295
0.0125435
0.0125298
0.0125045
0.0124779
0.0124572
0.0124477
0.0124523
0.0124726
0.0125098
0.0125623
0.0126282
0.0127052
0.0127912
0.012884
0.0129817
0.0130824
0.0131845
0.0132867
0.0133876
0.0134861
0.0135811
0.0136718
0.0137574
0.0138376
0.0139118
0.0139801
0.0140425
0.0140992
0.0141508
0.0141981
0.0142418
0.014283
0.0143226
0.0143618
0.0144015
0.0144426
0.0144858
0.0145317
0.0145807
0.0146328
0.0146881
0.0147465
0.0148076
0.0148709
0.0149358
0.0150022
0.0150696
0.0151377
0.0152061
0.015274
0.0153404
0.0154045
0.0154653
0.0155218
0.015573
0.0156178
0.015655
0.0156834
0.0157017
0.0157084
0.015702
0.0156809
0.0156432
0.0155871
0.0155104
0.0154109
0.0152864
0.0151343
0.0149522
0.0147377
0.0144885
0.0142027
0.0138789
0.0135164
0.0131155
0.0126591
0.0121243
0.0115128
0.0108293
0.0100795
0.00926971
0.00840978
0.00751905
0.00663233
0.00580243
0.00509647
0.00458542
0.00432861
0.00435567
0.00464727
0.00512507
0.00567299
0.00618603
0.00660569
0.00691927
0.00713982
0.00728811
0.00738307
0.00743875
0.00746453
0.00746679
0.00744924
0.0074144
0.00736296
0.00729306
0.00720396
0.00709393
0.0069602
0.00679915
0.00660645
0.00637733
0.00610678
0.00578989
0.00542197
0.00499882
0.00451693
0.00397415
0.00337096
0.00271358
0.00202095
0.00133937
0.000762985
0.000422028
0.000380026
0.00048794
0.000533101
0.000525309
0.00050424
0.000483595
0.000466815
0.000454294
0.000445459
0.000439518
0.000435741
0.000433537
0.000432453
0.000432152
0.000432389
0.000432986
0.000433818
0.000434801
0.000435875
0.000437006
0.000438173
0.000439367
0.000440584
0.000441828
0.000443104
0.000444418
0.000445775
0.000447183
0.000448645
0.000450163
0.00045174
0.000453374
0.000455066
0.000456817
0.000458632
0.000460523
0.000462515
0.000464652
0.000467001
0.00546776
0.0057229
0.0060102
0.00631719
0.00664436
0.00699263
0.00736252
0.00775391
0.00816583
0.00859622
0.00904159
0.00949682
0.00995481
0.0104065
0.0108409
0.011246
0.01161
0.0119233
0.01218
0.0123797
0.0125269
0.0126284
0.012691
0.0127203
0.0127216
0.012702
0.0126772
0.0126535
0.0126349
0.0126248
0.0126261
0.012641
0.0126711
0.0127165
0.012777
0.012851
0.012936
0.0130295
0.013129
0.0132322
0.0133368
0.013441
0.0135429
0.0136411
0.0137344
0.0138218
0.0139027
0.0139768
0.0140443
0.0141056
0.0141613
0.0142126
0.0142605
0.0143064
0.0143517
0.0143978
0.0144458
0.0144967
0.0145514
0.0146105
0.0146743
0.0147431
0.0148169
0.0148954
0.0149786
0.0150659
0.0151569
0.0152512
0.015348
0.0154467
0.0155465
0.0156464
0.0157455
0.0158434
0.0159393
0.0160329
0.0161233
0.0162097
0.0162908
0.0163657
0.016433
0.0164915
0.0165399
0.0165766
0.0166003
0.0166093
0.016602
0.0165768
0.0165319
0.0164657
0.0163763
0.016262
0.016121
0.0159519
0.015753
0.015523
0.0152608
0.0149657
0.0146372
0.0142755
0.0138645
0.0133804
0.0128196
0.0121777
0.0114494
0.0106289
0.0097149
0.00871617
0.00765779
0.00658438
0.00555826
0.00465168
0.00393485
0.00346488
0.00328071
0.00339876
0.00379413
0.00437216
0.00498344
0.00550041
0.00587356
0.00611618
0.0062627
0.00634341
0.0063781
0.00637791
0.00634866
0.00629526
0.00621941
0.00611834
0.00599149
0.00583781
0.00565613
0.00544539
0.00520463
0.00493291
0.00462919
0.00429213
0.00392026
0.0035123
0.00306803
0.00258985
0.00208572
0.00157426
0.00109171
0.000695632
0.000451365
0.000400973
0.000507337
0.000599097
0.000611561
0.00058696
0.000554462
0.000524725
0.000500773
0.000482751
0.000469752
0.000460649
0.000454432
0.0004503
0.00044765
0.000446043
0.000445163
0.000444785
0.000444752
0.000444955
0.000445318
0.000445791
0.00044634
0.000446945
0.000447594
0.000448281
0.000449005
0.000449769
0.000450575
0.000451428
0.000452335
0.000453302
0.000454337
0.00045545
0.000456652
0.000457958
0.00045939
0.000460972
0.000462739
0.000464736
0.000467019
0.00571864
0.00598723
0.00628827
0.00660922
0.00695033
0.00731243
0.00769588
0.00810039
0.00852471
0.00896635
0.00942121
0.00988317
0.0103437
0.0107918
0.011214
0.0115954
0.0119213
0.0121796
0.0123646
0.0124783
0.0125311
0.0125383
0.012515
0.0124716
0.0124207
0.012381
0.0123573
0.0123474
0.0123488
0.0123602
0.0123822
0.0124161
0.0124632
0.0125239
0.0125978
0.0126836
0.0127792
0.0128823
0.0129902
0.0131007
0.0132115
0.013321
0.0134276
0.0135304
0.0136288
0.0137225
0.0138116
0.0138965
0.0139779
0.0140565
0.0141332
0.0142089
0.0142843
0.01436
0.0144366
0.0145141
0.0145928
0.0146724
0.0147529
0.014834
0.0149155
0.0149973
0.0150793
0.0151616
0.0152442
0.0153274
0.0154115
0.0154967
0.0155832
0.0156713
0.0157608
0.0158517
0.0159435
0.0160357
0.0161275
0.0162178
0.0163057
0.0163913
0.0164741
0.0165534
0.0166283
0.0166977
0.0167605
0.0168155
0.0168612
0.0168965
0.01692
0.0169304
0.0169264
0.0169067
0.0168702
0.0168156
0.016742
0.0166481
0.0165331
0.0163958
0.0162351
0.0160501
0.0158393
0.0156015
0.0153233
0.0149827
0.0145675
0.0140626
0.0134506
0.0127139
0.0118395
0.0108244
0.00968175
0.00844498
0.00716821
0.00592145
0.0047796
0.00380884
0.00305708
0.0025539
0.00231959
0.00237323
0.00271448
0.00326047
0.00382415
0.00424062
0.00447679
0.00458142
0.00460618
0.0045819
0.00452413
0.00444194
0.0043386
0.00421287
0.00406722
0.00390314
0.00372124
0.00352146
0.00330317
0.00306548
0.00280753
0.00252896
0.00223057
0.00191533
0.00158974
0.00126538
0.000960226
0.000698121
0.000505004
0.000403707
0.000411667
0.00051558
0.000617864
0.00064771
0.000628797
0.000593849
0.000558621
0.000528688
0.000505264
0.000487784
0.000475112
0.000466098
0.000459783
0.000455425
0.000452472
0.000450522
0.000449287
0.00044856
0.000448194
0.000448084
0.000448158
0.000448364
0.000448668
0.000449045
0.000449482
0.00044997
0.000450505
0.000451087
0.000451719
0.000452406
0.000453154
0.00045397
0.000454865
0.000455851
0.000456941
0.000458153
0.00045951
0.000461037
0.000462768
0.000464745
0.00046702
0.0057901
0.00606719
0.00637582
0.00670379
0.00705096
0.00741791
0.00780468
0.00821069
0.00863438
0.00907291
0.00952171
0.00997399
0.0104203
0.0108483
0.0112426
0.0115861
0.0118616
0.0120551
0.01216
0.0121807
0.0121336
0.0120428
0.0119323
0.0118197
0.0117343
0.0116894
0.0116792
0.0116935
0.0117236
0.0117642
0.0118133
0.011871
0.0119382
0.0120156
0.0121033
0.0122008
0.0123066
0.0124191
0.0125366
0.0126575
0.0127806
0.0129048
0.0130294
0.0131542
0.0132789
0.0134037
0.0135285
0.0136537
0.0137791
0.0139048
0.0140305
0.0141558
0.0142802
0.0144029
0.014523
0.0146395
0.0147514
0.0148576
0.0149573
0.0150495
0.0151337
0.0152096
0.0152769
0.0153358
0.0153868
0.0154307
0.0154686
0.0155016
0.0155313
0.0155593
0.0155871
0.0156162
0.015648
0.0156837
0.0157239
0.0157692
0.0158194
0.0158728
0.0159289
0.0159882
0.016051
0.0161172
0.0161864
0.0162581
0.0163316
0.0164064
0.0164817
0.0165568
0.0166312
0.0167042
0.0167749
0.0168425
0.0169059
0.0169637
0.0170144
0.0170556
0.0170849
0.0170991
0.0170944
0.0170667
0.017008
0.0169009
0.016725
0.0164554
0.0160642
0.015523
0.0148068
0.0138996
0.0128001
0.0115276
0.0101248
0.00865643
0.00719945
0.00582776
0.00459805
0.00354566
0.00269112
0.00204965
0.00163614
0.00146783
0.00156312
0.00189655
0.0023085
0.00259246
0.00270007
0.00269806
0.00264637
0.00256931
0.0024732
0.00235979
0.00223341
0.00209593
0.0019483
0.00179129
0.00162594
0.00145382
0.00127741
0.00110031
0.000927459
0.00076515
0.000620767
0.000502229
0.000417468
0.00037454
0.000382198
0.000445056
0.000542231
0.000619101
0.000642636
0.000627059
0.000596118
0.000563554
0.000534953
0.000511867
0.000494098
0.0004808
0.000471017
0.000463907
0.000458791
0.000455153
0.000452602
0.000450852
0.000449691
0.000448966
0.000448562
0.000448399
0.000448415
0.000448567
0.000448822
0.00044916
0.000449565
0.000450028
0.000450545
0.000451114
0.000451737
0.000452417
0.00045316
0.000453974
0.000454867
0.000455852
0.000456941
0.000458153
0.00045951
0.000461037
0.000462768
0.000464745
0.00046702
0.00566735
0.00594745
0.00625753
0.00658618
0.00693284
0.00729767
0.00768023
0.00807953
0.00849359
0.00891917
0.00935132
0.0097828
0.0102036
0.0106007
0.0109578
0.0112564
0.0114776
0.011606
0.0116345
0.0115694
0.0114321
0.0112548
0.0110694
0.0109079
0.0108074
0.0107698
0.0107809
0.0108237
0.0108842
0.0109537
0.011028
0.0111062
0.011189
0.011278
0.0113745
0.0114795
0.0115933
0.0117157
0.0118461
0.0119839
0.0121287
0.0122799
0.0124372
0.0126002
0.0127683
0.012941
0.0131175
0.0132972
0.0134789
0.0136615
0.0138437
0.014024
0.0142007
0.0143722
0.0145369
0.0146929
0.0148386
0.0149725
0.0150932
0.0151994
0.0152901
0.0153644
0.0154219
0.0154623
0.0154856
0.0154924
0.0154833
0.0154596
0.0154229
0.0153752
0.0153191
0.0152573
0.0151928
0.0151289
0.015069
0.0150163
0.0149736
0.0149436
0.0149272
0.0149232
0.0149311
0.0149524
0.0149882
0.0150401
0.0151092
0.0151963
0.0153026
0.0154287
0.0155754
0.0157433
0.0159326
0.0161431
0.016374
0.0166235
0.016889
0.0171664
0.0174507
0.0177351
0.0180122
0.0182732
0.0185184
0.0187391
0.018907
0.0189881
0.0189438
0.018734
0.0183207
0.0176735
0.0167752
0.0156295
0.0142664
0.0127453
0.0111478
0.00956082
0.00805282
0.00665897
0.00538376
0.00421856
0.00316203
0.00223327
0.00147164
0.000919388
0.000594552
0.000485352
0.00057308
0.000765752
0.000879485
0.000887514
0.00085439
0.000808682
0.000757094
0.00070219
0.00064572
0.000589316
0.000534666
0.000483567
0.000437953
0.00039991
0.000371725
0.000355968
0.000355561
0.000373566
0.000411974
0.000468487
0.000532346
0.00058517
0.000611837
0.000611248
0.000593242
0.000568519
0.000543702
0.000521758
0.00050359
0.000489116
0.000477854
0.000469226
0.000462686
0.000457776
0.000454125
0.000451444
0.000449509
0.000448151
0.000447238
0.000446674
0.000446383
0.000446308
0.000446406
0.000446641
0.000446989
0.000447428
0.000447946
0.000448532
0.00044918
0.000449887
0.000450652
0.000451476
0.000452363
0.000453317
0.000454345
0.000455454
0.000456654
0.000457959
0.00045939
0.000460972
0.000462739
0.000464736
0.000467019
0.00534792
0.00562402
0.00592832
0.00625074
0.00659035
0.00694694
0.00731965
0.007707
0.0081066
0.00851478
0.0089262
0.0093333
0.0097258
0.0100903
0.0104101
0.0106662
0.0108389
0.010912
0.0108778
0.0107434
0.010534
0.0102879
0.010045
0.00985503
0.00975046
0.00972527
0.00975821
0.00982634
0.00991159
0.0100025
0.0100933
0.0101829
0.0102726
0.010365
0.0104648
0.0105746
0.0106959
0.0108298
0.0109766
0.0111363
0.0113088
0.0114932
0.0116888
0.0118944
0.0121089
0.0123309
0.0125589
0.0127912
0.0130261
0.0132617
0.013496
0.013727