/*--------------------------------*- C++ -*----------------------------------*\
| =========                 |                                                 |
| \\      /  F ield         | OpenFOAM: The Open Source CFD Toolbox           |
|  \\    /   O peration     | Version:  2406                                  |
|   \\  /    A nd           | Website:  www.openfoam.com                      |
|    \\/     M anipulation  |                                                 |
\*---------------------------------------------------------------------------*/
FoamFile
{
    version     2.0;
    format      ascii;
    arch        "LSB;label=32;scalar=64";
    class       surfaceScalarField;
    location    "300";
    object      phi;
}
// * * * * * * * * * * * * * * * * * * * * * * * * * * * * * * * * * * * * * //

dimensions      [0 3 -1 0 0 0 0];

oriented        oriented;

internalField   nonuniform List<scalar> 
10988
(
-7.52349e-05
7.90953e-07
-7.66374e-05
1.40255e-06
-7.81773e-05
1.53989e-06
-7.98931e-05
1.71581e-06
-8.18113e-05
1.91815e-06
-8.39702e-05
2.15885e-06
-8.64081e-05
2.43793e-06
-8.91644e-05
2.75625e-06
-9.2278e-05
3.1136e-06
-9.57868e-05
3.50882e-06
-9.97253e-05
3.93848e-06
-0.000104119
4.39413e-06
-0.000108979
4.85998e-06
-0.00011429
5.31048e-06
-0.00012
5.70975e-06
-0.000126014
6.01396e-06
-0.00013219
6.17624e-06
-0.000138345
6.15482e-06
-0.000144267
5.92218e-06
-0.000149741
5.47443e-06
-0.000154579
4.83757e-06
-0.000158646
4.0676e-06
-0.000161889
3.24247e-06
-0.000164334
2.44555e-06
-0.000166083
1.74864e-06
-0.000167285
1.20193e-06
-0.000168114
8.28724e-07
-0.000168739
6.24941e-07
-0.000169303
5.64464e-07
-0.000169911
6.07913e-07
-0.000170624
7.12897e-07
-0.000171467
8.43257e-07
-0.000172442
9.74504e-07
-0.000173536
1.09444e-06
-0.000174736
1.19974e-06
-0.000176028
1.29181e-06
-0.000177401
1.37383e-06
-0.00017885
1.44906e-06
-0.000180371
1.52006e-06
-0.000181959
1.58842e-06
-0.000183614
1.65488e-06
-0.000185333
1.71947e-06
-0.000187115
1.78171e-06
-0.000188956
1.84073e-06
-0.000190851
1.89532e-06
-0.000192795
1.94409e-06
-0.00019478
1.98538e-06
-0.000196798
2.01752e-06
-0.000198837
2.03875e-06
-0.000200884
2.04732e-06
-0.000202926
2.04166e-06
-0.000204946
2.02036e-06
-0.000206928
1.98222e-06
-0.000208854
1.92637e-06
-0.000210707
1.85229e-06
-0.000212466
1.7598e-06
-0.000214116
1.64916e-06
-0.000215637
1.52105e-06
-0.000217013
1.37656e-06
-0.00021823
1.21715e-06
-0.000219275
1.04469e-06
-0.000220136
8.61378e-07
-0.000220806
6.69703e-07
-0.000221279
4.72392e-07
-0.000221551
2.72325e-07
-0.000221623
7.23236e-08
-0.000221497
-1.25688e-07
-0.000221177
-3.20916e-07
-0.000220662
-5.141e-07
-0.000219957
-7.05772e-07
-0.000219063
-8.93653e-07
-0.000217988
-1.07506e-06
-0.000216739
-1.24856e-06
-0.000215326
-1.41327e-06
-0.000213757
-1.56876e-06
-0.000212042
-1.71502e-06
-0.00021019
-1.85244e-06
-0.000208208
-1.98189e-06
-0.000206103
-2.10469e-06
-0.000203881
-2.22264e-06
-0.000201543
-2.338e-06
-0.000199089
-2.4535e-06
-0.000196517
-2.57222e-06
-0.000193819
-2.69753e-06
-0.000190986
-2.83299e-06
-0.000188004
-2.98219e-06
-0.000184856
-3.1487e-06
-0.00018152
-3.3359e-06
-0.000177973
-3.54683e-06
-0.000174189
-3.78407e-06
-0.000170139
-4.04952e-06
-0.000165795
-4.34424e-06
-0.000161127
-4.66827e-06
-0.000156107
-5.02038e-06
-0.000150709
-5.39785e-06
-0.000144912
-5.79629e-06
-0.000138702
-6.21031e-06
-0.000132068
-6.63457e-06
-0.000125006
-7.06131e-06
-0.00011751
-7.49573e-06
-0.000108742
-8.76852e-06
-9.85417e-05
-1.02002e-05
-8.68573e-05
-1.16844e-05
-7.37661e-05
-1.30913e-05
-5.94844e-05
-1.42817e-05
-4.43608e-05
-1.51236e-05
-2.88495e-05
-1.55112e-05
-1.34505e-05
-1.53991e-05
1.54699e-06
-1.49976e-05
1.48965e-05
-1.33495e-05
2.55088e-05
-1.06123e-05
3.37191e-05
-8.21038e-06
3.96086e-05
-5.88936e-06
4.32804e-05
-3.67172e-06
4.48398e-05
-1.55923e-06
4.44065e-05
4.33586e-07
4.22079e-05
2.19859e-06
3.85252e-05
3.68257e-06
3.35807e-05
4.94437e-06
2.75673e-05
6.01321e-06
2.06425e-05
6.92479e-06
1.29051e-05
7.73749e-06
4.28821e-06
8.61684e-06
-4.84655e-06
9.13451e-06
-1.26291e-05
7.78267e-06
-1.83329e-05
5.70393e-06
-2.25266e-05
4.19376e-06
-2.54694e-05
2.94278e-06
-2.76622e-05
2.19271e-06
-2.92243e-05
1.56211e-06
-3.02749e-05
1.0506e-06
-3.09262e-05
6.51333e-07
-3.12827e-05
3.56478e-07
-3.14407e-05
1.5802e-07
-3.14886e-05
4.77289e-08
-3.15048e-05
1.61149e-08
-3.15543e-05
4.95338e-08
-3.16793e-05
1.25113e-07
-3.18825e-05
2.03259e-07
-3.21017e-05
2.19172e-07
-3.2181e-05
7.92419e-08
-3.18669e-05
-3.14156e-07
-3.08841e-05
-9.82759e-07
-2.90579e-05
-1.82613e-06
-2.64385e-05
-2.61943e-06
-2.33942e-05
-3.04441e-06
-2.05032e-05
-2.89111e-06
-1.82637e-05
-2.23958e-06
-1.68637e-05
-1.39992e-06
-1.62055e-05
-6.58079e-07
-1.61e-05
-1.05411e-07
-1.63822e-05
2.82179e-07
-1.69149e-05
5.32735e-07
-1.76049e-05
6.90108e-07
-1.83931e-05
7.88299e-07
-1.92327e-05
8.39419e-07
-2.00861e-05
8.53135e-07
-2.09234e-05
8.37247e-07
-2.17223e-05
7.98722e-07
-2.24666e-05
7.44232e-07
-2.31466e-05
6.79846e-07
-2.37573e-05
6.10589e-07
-2.4298e-05
5.40674e-07
-2.47714e-05
4.73402e-07
-2.51822e-05
4.10871e-07
-2.55365e-05
3.54408e-07
-2.58416e-05
3.04971e-07
-2.61045e-05
2.62968e-07
-2.63328e-05
2.28276e-07
-2.65334e-05
2.00642e-07
-2.67132e-05
1.79838e-07
-2.68787e-05
1.65579e-07
-2.70362e-05
1.576e-07
-2.71919e-05
1.55838e-07
-2.73524e-05
1.60567e-07
-2.7525e-05
1.7265e-07
-2.7719e-05
1.93978e-07
-2.7947e-05
2.28064e-07
-2.82278e-05
2.80821e-07
-2.85892e-05
3.61525e-07
-2.90726e-05
4.83393e-07
-2.97355e-05
6.62861e-07
-3.0653e-05
9.17441e-07
-3.19159e-05
1.26289e-06
-3.36135e-05
1.69764e-06
-3.58577e-05
2.24419e-06
4.14236e-06
-0.000109088
1.60926e-06
-0.000110592
2.90626e-06
-0.000112274
3.222e-06
-0.000114217
3.65902e-06
-0.000116452
4.15317e-06
-0.000119033
4.7398e-06
-0.000122011
5.41534e-06
-0.000125436
6.18132e-06
-0.000129359
7.03631e-06
-0.000133827
7.97744e-06
-0.000138886
8.99718e-06
-0.00014457
1.0078e-05
-0.000150896
1.11858e-05
-0.00015785
1.22646e-05
-0.000165374
1.32339e-05
-0.000173352
1.39926e-05
-0.000181606
1.44298e-05
-0.000189895
1.44435e-05
-0.000197935
1.39622e-05
-0.000205428
1.2968e-05
-0.000212104
1.15131e-05
-0.000217758
9.72215e-06
-0.00022229
7.7749e-06
-0.000225713
5.86842e-06
-0.000228141
4.17678e-06
-0.000229765
2.82569e-06
-0.000230815
1.87855e-06
-0.000231524
1.33378e-06
-0.000232095
1.13566e-06
-0.000232682
1.19428e-06
-0.000233379
1.40982e-06
-0.00023423
1.69516e-06
-0.000235246
1.98963e-06
-0.000236412
2.26144e-06
-0.000237713
2.5005e-06
-0.00023913
2.70882e-06
-0.00024065
2.89333e-06
-0.000242262
3.06148e-06
-0.000243961
3.21931e-06
-0.000245744
3.37071e-06
-0.000247606
3.5176e-06
-0.000249547
3.66035e-06
-0.000251564
3.79813e-06
-0.000253652
3.92926e-06
-0.000255808
4.05142e-06
-0.000258026
4.16182e-06
-0.000260298
4.25728e-06
-0.000262615
4.33446e-06
-0.000264966
4.38994e-06
-0.000267339
4.42036e-06
-0.00026972
4.42261e-06
-0.000272093
4.39391e-06
-0.000274443
4.33193e-06
-0.000276751
4.23486e-06
-0.000279
4.1015e-06
-0.000281172
3.93127e-06
-0.000283247
3.72426e-06
-0.000285207
3.48123e-06
-0.000287034
3.20355e-06
-0.00028871
2.89323e-06
-0.000290218
2.55288e-06
-0.000291543
2.18567e-06
-0.000292668
1.7953e-06
-0.000293582
1.38594e-06
-0.000294271
9.62134e-07
-0.000294728
5.28586e-07
-0.000294943
8.99415e-08
-0.000294917
-3.46889e-07
-0.000294652
-7.79826e-07
-0.000294145
-1.21243e-06
-0.000293397
-1.64203e-06
-0.000292409
-2.063e-06
-0.000291185
-2.4719e-06
-0.000289732
-2.86636e-06
-0.000288056
-3.24483e-06
-0.000286164
-3.60653e-06
-0.000284065
-3.95144e-06
-0.000281767
-4.28048e-06
-0.000279276
-4.59549e-06
-0.000276599
-4.8994e-06
-0.000273741
-5.19616e-06
-0.000270704
-5.49077e-06
-0.000267487
-5.78917e-06
-0.000264087
-6.0981e-06
-0.000260495
-6.4249e-06
-0.000256699
-6.77735e-06
-0.000252685
-7.16339e-06
-0.00024843
-7.59083e-06
-0.00024391
-8.06708e-06
-0.000239095
-8.59877e-06
-0.000233953
-9.19147e-06
-0.000228448
-9.84922e-06
-0.000222542
-1.05741e-05
-0.000216197
-1.13659e-05
-0.000209373
-1.22212e-05
-0.000202036
-1.31337e-05
-0.000194153
-1.40933e-05
-0.000185701
-1.50872e-05
-0.000176661
-1.61009e-05
-0.000167035
-1.71221e-05
-0.000155744
-2.00596e-05
-0.000142664
-2.32802e-05
-0.000127761
-2.65871e-05
-0.000111131
-2.97207e-05
-9.3026e-05
-3.2387e-05
-7.38542e-05
-3.42955e-05
-5.41619e-05
-3.52034e-05
-3.45954e-05
-3.49655e-05
-1.59451e-05
-3.36479e-05
1.4022e-06
-3.06968e-05
1.65035e-05
-2.57136e-05
2.839e-05
-2.0097e-05
3.72287e-05
-1.47281e-05
4.31736e-05
-9.61688e-06
4.63847e-05
-4.77061e-06
4.70514e-05
-2.33273e-07
4.5451e-05
3.79899e-06
4.19336e-05
7.2002e-06
3.68313e-05
1.00469e-05
3.04682e-05
1.23764e-05
2.31731e-05
1.422e-05
1.52964e-05
1.56143e-05
7.34856e-06
1.6565e-05
-2.54948e-07
1.67381e-05
-7.09005e-06
1.46178e-05
-1.2617e-05
1.1231e-05
-1.6762e-05
8.33884e-06
-1.97739e-05
5.9547e-06
-2.21329e-05
4.55169e-06
-2.39295e-05
3.35869e-06
-2.52652e-05
2.38623e-06
-2.62398e-05
1.62595e-06
-2.69482e-05
1.06495e-06
-2.74798e-05
6.89687e-07
-2.79189e-05
4.86991e-07
-2.83459e-05
4.43175e-07
-2.88368e-05
5.40447e-07
-2.94615e-05
7.49768e-07
-3.02774e-05
1.01917e-06
-3.13163e-05
1.25818e-06
-3.256e-05
1.32296e-06
-3.38917e-05
1.01747e-06
-3.50121e-05
1.37608e-07
-3.5444e-05
-1.39416e-06
-3.47531e-05
-3.31025e-06
-3.28859e-05
-4.91153e-06
-3.03912e-05
-5.38571e-06
-2.81548e-05
-4.47596e-06
-2.67245e-05
-2.83011e-06
-2.61416e-05
-1.24098e-06
-2.62314e-05
-1.57839e-08
-2.68019e-05
8.52417e-07
-2.76936e-05
1.42416e-06
-2.87963e-05
1.79241e-06
-3.00227e-05
2.01432e-06
-3.13057e-05
2.12226e-06
-3.2593e-05
2.14027e-06
-3.38441e-05
2.08819e-06
-3.50293e-05
1.98376e-06
-3.61284e-05
1.84317e-06
-3.71294e-05
1.68076e-06
-3.80275e-05
1.50862e-06
-3.88233e-05
1.33659e-06
-3.95219e-05
1.17208e-06
-4.01311e-05
1.02012e-06
-4.06607e-05
8.84024e-07
-4.11216e-05
7.65816e-07
-4.15248e-05
6.66264e-07
-4.18817e-05
5.85241e-07
-4.22033e-05
5.22312e-07
-4.25003e-05
4.76986e-07
-4.27832e-05
4.48731e-07
-4.30626e-05
4.37178e-07
-4.3349e-05
4.42399e-07
-4.36535e-05
4.65104e-07
-4.39877e-05
5.069e-07
-4.43644e-05
5.70729e-07
-4.47975e-05
6.61288e-07
-4.5302e-05
7.85391e-07
-4.58926e-05
9.52176e-07
-4.65819e-05
1.17268e-06
-4.73772e-05
1.45813e-06
-4.82774e-05
1.81757e-06
-4.92695e-05
2.255e-06
-5.0316e-05
2.74417e-06
-5.13566e-05
3.28482e-06
5.21928e-06
-0.000146488
2.51765e-06
-0.000148181
4.59953e-06
-0.000150111
5.1516e-06
-0.000152395
5.94346e-06
-0.000155071
6.82843e-06
-0.000158205
7.874e-06
-0.00016186
9.07057e-06
-0.000166099
1.04203e-05
-0.000170983
1.19197e-05
-0.000176569
1.35636e-05
-0.000182911
1.53396e-05
-0.000190053
1.72198e-05
-0.000198016
1.91492e-05
-0.000206787
2.10356e-05
-0.000216297
2.27441e-05
-0.000226407
2.41024e-05
-0.000236895
2.49178e-05
-0.00024746
2.50079e-05
-0.000257737
2.42399e-05
-0.000267341
2.25717e-05
-0.000275912
2.00834e-05
-0.000283174
1.69843e-05
-0.000288983
1.35844e-05
-0.000293345
1.02297e-05
-0.000296398
7.23044e-06
-0.000298386
4.81385e-06
-0.000299607
3.0986e-06
-0.000300362
2.08873e-06
-0.000300917
1.69119e-06
-0.000301473
1.75043e-06
-0.000302155
2.09175e-06
-0.000303022
2.56168e-06
-0.000304085
3.05253e-06
-0.00030533
3.50683e-06
-0.000306735
3.90534e-06
-0.000308276
4.2506e-06
-0.000309937
4.55421e-06
-0.000311705
4.82907e-06
-0.000313571
5.08575e-06
-0.000315532
5.33126e-06
-0.000317583
5.56922e-06
-0.000319724
5.80059e-06
-0.00032195
6.02435e-06
-0.000324259
6.23812e-06
-0.000326646
6.43842e-06
-0.000329105
6.62109e-06
-0.000331629
6.78143e-06
-0.000334209
6.91442e-06
-0.000336834
7.01495e-06
-0.000339492
7.07804e-06
-0.000342168
7.09903e-06
-0.000344848
7.07376e-06
-0.000347515
6.99872e-06
-0.000350151
6.87114e-06
-0.000352738
6.68909e-06
-0.000355259
6.45149e-06
-0.000357692
6.15814e-06
-0.000360021
5.80968e-06
-0.000362225
5.40755e-06
-0.000364286
4.95397e-06
-0.000366185
4.45192e-06
-0.000367904
3.9051e-06
-0.000369427
3.31789e-06
-0.000370736
2.69533e-06
-0.000371817
2.0431e-06
-0.000372656
1.36742e-06
-0.000373241
6.7494e-07
-0.00037356
-2.77038e-08
-0.000373609
-7.30933e-07
-0.000373386
-1.43468e-06
-0.000372889
-2.13957e-06
-0.000372114
-2.83831e-06
-0.000371059
-3.52595e-06
-0.000369727
-4.19889e-06
-0.000368117
-4.85445e-06
-0.000366233
-5.49087e-06
-0.000364077
-6.10737e-06
-0.000361653
-6.70439e-06
-0.000358965
-7.28372e-06
-0.000356016
-7.84868e-06
-0.000352808
-8.4042e-06
-0.000349341
-8.95682e-06
-0.000345616
-9.51468e-06
-0.000341627
-1.00873e-05
-0.000337366
-1.06856e-05
-0.000332822
-1.13213e-05
-0.000327979
-1.20069e-05
-0.000322815
-1.2755e-05
-0.000317304
-1.35781e-05
-0.000311414
-1.4488e-05
-0.000305111
-1.54952e-05
-0.000298351
-1.66083e-05
-0.000291092
-1.78331e-05
-0.000283286
-1.9172e-05
-0.000274884
-2.06233e-05
-0.000265838
-2.21798e-05
-0.000256103
-2.38283e-05
-0.000245642
-2.55488e-05
-0.000234428
-2.73148e-05
-0.000222458
-2.90914e-05
-0.000208423
-3.40944e-05
-0.000192199
-3.95045e-05
-0.000173773
-4.50135e-05
-0.000153278
-5.02157e-05
-0.000131022
-5.46431e-05
-0.000107497
-5.78204e-05
-8.33663e-05
-5.93338e-05
-5.94297e-05
-5.89021e-05
-3.66429e-05
-5.64348e-05
-1.56107e-05
-5.1729e-05
3.38035e-06
-4.47046e-05
1.92606e-05
-3.59772e-05
3.13565e-05
-2.6824e-05
3.98633e-05
-1.81236e-05
4.49828e-05
-9.89005e-06
4.69898e-05
-2.24037e-06
4.62142e-05
4.57457e-06
4.31006e-05
1.03138e-05
3.81338e-05
1.50138e-05
3.1803e-05
1.87071e-05
2.46212e-05
2.14018e-05
1.71514e-05
2.3084e-05
1.00754e-05
2.3641e-05
4.02574e-06
2.27877e-05
-1.28454e-06
1.9928e-05
-5.89219e-06
1.58385e-05
-9.49746e-06
1.1944e-05
-1.22459e-05
8.7031e-06
-1.45369e-05
6.84269e-06
-1.6426e-05
5.2479e-06
-1.79792e-05
3.9394e-06
-1.92675e-05
2.91421e-06
-2.0364e-05
2.16147e-06
-2.13428e-05
1.66844e-06
-2.22785e-05
1.42269e-06
-2.32468e-05
1.4115e-06
-2.43248e-05
1.61842e-06
-2.55906e-05
2.01561e-06
-2.71224e-05
2.55094e-06
-2.89936e-05
3.12941e-06
-3.12614e-05
3.59087e-06
-3.39357e-05
3.69181e-06
-3.69089e-05
3.11085e-06
-3.98177e-05
1.51466e-06
-4.19363e-05
-1.19167e-06
-4.25296e-05
-4.3182e-06
-4.16309e-05
-6.28436e-06
-4.02082e-05
-5.89861e-06
-3.92582e-05
-3.78026e-06
-3.90878e-05
-1.41145e-06
-3.95937e-05
4.90015e-07
-4.05966e-05
1.85531e-06
-4.19467e-05
2.77421e-06
-4.3525e-05
3.37066e-06
-4.52283e-05
3.71758e-06
-4.69758e-05
3.86968e-06
-4.87045e-05
3.86885e-06
-5.03671e-05
3.75067e-06
-5.193e-05
3.54652e-06
-5.33714e-05
3.28444e-06
-5.46797e-05
2.98896e-06
-5.58517e-05
2.68058e-06
-5.68906e-05
2.37558e-06
-5.78045e-05
2.08606e-06
-5.86049e-05
1.82043e-06
-5.93049e-05
1.58406e-06
-5.99189e-05
1.3799e-06
-6.04615e-05
1.20889e-06
-6.09468e-05
1.07066e-06
-6.13887e-05
9.6428e-07
-6.18e-05
8.8848e-07
-6.21929e-05
8.41818e-07
-6.25785e-05
8.2291e-07
-6.29666e-05
8.3065e-07
-6.33657e-05
8.64291e-07
-6.37823e-05
9.23567e-07
-6.42205e-05
1.00895e-06
-6.4681e-05
1.12192e-06
-6.51608e-05
1.26526e-06
-6.56522e-05
1.44367e-06
-6.61437e-05
1.66408e-06
-6.66206e-05
1.93503e-06
-6.7068e-05
2.26493e-06
-6.74714e-05
2.65849e-06
-6.78122e-05
3.08493e-06
-6.80683e-05
3.54099e-06
5.38106e-06
-0.000191173
3.57223e-06
-0.000193148
6.57446e-06
-0.000195429
7.43193e-06
-0.000198166
8.68128e-06
-0.000201405
1.00667e-05
-0.000205227
1.1696e-05
-0.000209707
1.35512e-05
-0.000214922
1.56348e-05
-0.000220942
1.79402e-05
-0.000227838
2.04591e-05
-0.000235671
2.31732e-05
-0.000244493
2.60417e-05
-0.000254329
2.89847e-05
-0.00026516
3.18663e-05
-0.000276901
3.44852e-05
-0.000289379
3.65806e-05
-0.000302318
3.7857e-05
-0.00031534
3.80297e-05
-0.000327986
3.68863e-05
-0.000339766
3.43517e-05
-0.000350224
3.0541e-05
-0.000359012
2.57725e-05
-0.000365954
2.05258e-05
-0.000371064
1.53399e-05
-0.000374533
1.06995e-05
-0.000376679
6.9593e-06
-0.000377884
4.3036e-06
-0.000378532
2.73726e-06
-0.000378954
2.11326e-06
-0.000379391
2.18755e-06
-0.000379988
2.68864e-06
-0.000380808
3.38116e-06
-0.000381857
4.10202e-06
-0.000383115
4.76491e-06
-0.000384551
5.34147e-06
-0.000386137
5.83623e-06
-0.00038785
6.26731e-06
-0.000389676
6.65481e-06
-0.000391605
7.01512e-06
-0.000393633
7.3592e-06
-0.000395757
7.69295e-06
-0.000397974
8.01816e-06
-0.000400284
8.33371e-06
-0.000402682
8.63647e-06
-0.000405165
8.92182e-06
-0.000407728
9.18414e-06
-0.000410364
9.41704e-06
-0.000413063
9.61372e-06
-0.000415816
9.76727e-06
-0.000418608
9.87091e-06
-0.000421428
9.91835e-06
-0.000424258
9.90396e-06
-0.000427082
9.82299e-06
-0.000429883
9.67171e-06
-0.000432641
9.44751e-06
-0.000435338
9.14892e-06
-0.000437956
8.77558e-06
-0.000440474
8.32822e-06
-0.000442875
7.80854e-06
-0.00044514
7.21922e-06
-0.000447252
6.56375e-06
-0.000449194
5.84647e-06
-0.000450948
5.07239e-06
-0.0004525
4.24722e-06
-0.000453834
3.37723e-06
-0.000454936
2.4692e-06
-0.000455791
1.53027e-06
-0.000456387
5.67903e-07
-0.000456709
-4.09017e-07
-0.000456749
-1.39391e-06
-0.000456506
-2.38284e-06
-0.000455974
-3.37067e-06
-0.000455147
-4.35296e-06
-0.000454019
-5.3263e-06
-0.000452586
-6.28786e-06
-0.000450841
-7.23558e-06
-0.00044878
-8.16834e-06
-0.000446398
-9.08625e-06
-0.000443691
-9.99094e-06
-0.000440654
-1.08858e-05
-0.000437282
-1.17763e-05
-0.000433569
-1.26697e-05
-0.000429508
-1.35757e-05
-0.000425089
-1.45056e-05
-0.000420302
-1.54731e-05
-0.00041513
-1.64932e-05
-0.000409555
-1.75821e-05
-0.000403553
-1.87571e-05
-0.000397095
-2.00356e-05
-0.000390149
-2.14345e-05
-0.000382674
-2.29697e-05
-0.000374628
-2.46547e-05
-0.000365961
-2.65e-05
-0.000356622
-2.85113e-05
-0.000346556
-3.06885e-05
-0.000335712
-3.30237e-05
-0.000324041
-3.54996e-05
-0.000311503
-3.80874e-05
-0.000298072
-4.07448e-05
-0.000283752
-4.34123e-05
-0.000266971
-5.0875e-05
-0.000247587
-5.88885e-05
-0.000225605
-6.69951e-05
-0.000201212
-7.46093e-05
-0.000174794
-8.10608e-05
-0.000146948
-8.56664e-05
-0.000118458
-8.7824e-05
-9.02492e-05
-8.71109e-05
-6.33317e-05
-8.33523e-05
-3.85055e-05
-7.65552e-05
-1.62315e-05
-6.69788e-05
3.06291e-06
-5.52716e-05
1.85765e-05
-4.23377e-05
2.99122e-05
-2.94592e-05
3.73287e-05
-1.73065e-05
4.11637e-05
-6.07523e-06
4.17772e-05
3.961e-06
3.973e-05
1.2361e-05
3.56644e-05
1.90794e-05
3.02371e-05
2.41345e-05
2.41308e-05
2.75082e-05
1.80544e-05
2.91605e-05
1.26892e-05
2.90062e-05
8.4756e-06
2.70014e-05
5.09043e-06
2.33132e-05
2.13577e-06
1.87932e-05
-3.54242e-07
1.4434e-05
-2.40592e-06
1.07547e-05
-4.26444e-06
8.7012e-06
-5.94866e-06
6.93211e-06
-7.48677e-06
5.47753e-06
-8.91758e-06
4.34504e-06
-1.02894e-05
3.53326e-06
-1.16585e-05
3.03757e-06
-1.30882e-05
2.85242e-06
-1.46478e-05
2.97111e-06
-1.64124e-05
3.38307e-06
-1.84622e-05
4.06544e-06
-2.08824e-05
4.97119e-06
-2.37649e-05
6.01186e-06
-2.72061e-05
7.03203e-06
-3.12923e-05
7.77805e-06
-3.60596e-05
7.87817e-06
-4.14068e-05
6.86189e-06
-4.68963e-05
4.29778e-06
-5.14809e-05
2.66446e-07
-5.40692e-05
-3.69607e-06
-5.48985e-05
-5.06922e-06
-5.53601e-05
-3.31867e-06
-5.62259e-05
-5.458e-07
-5.75411e-05
1.80507e-06
-5.92126e-05
3.52679e-06
-6.11701e-05
4.7317e-06
-6.33094e-05
5.50994e-06
-6.55333e-05
5.94132e-06
-6.77595e-05
6.09572e-06
-6.99229e-05
6.0321e-06
-7.1975e-05
5.80264e-06
-7.38825e-05
5.4538e-06
-7.56249e-05
5.02675e-06
-7.7193e-05
4.55698e-06
-7.85863e-05
4.07383e-06
-7.9811e-05
3.60026e-06
-8.08782e-05
3.15321e-06
-8.1802e-05
2.74423e-06
-8.25983e-05
2.38038e-06
-8.32833e-05
2.06498e-06
-8.3873e-05
1.79867e-06
-8.43826e-05
1.58038e-06
-8.48262e-05
1.40796e-06
-8.52162e-05
1.27867e-06
-8.55637e-05
1.18946e-06
-8.58779e-05
1.13732e-06
-8.61665e-05
1.11936e-06
-8.64352e-05
1.13303e-06
-8.66878e-05
1.17628e-06
-8.69267e-05
1.24785e-06
-8.71522e-05
1.34755e-06
-8.73635e-05
1.47666e-06
-8.75584e-05
1.63861e-06
-8.77336e-05
1.83934e-06
-8.78853e-05
2.0866e-06
-8.80085e-05
2.38812e-06
-8.80981e-05
2.74812e-06
-8.81454e-05
3.13232e-06
-8.8136e-05
3.53161e-06
5.18928e-06
-0.000244352
4.80305e-06
-0.000246653
8.87507e-06
-0.000249339
1.0118e-05
-0.000252594
1.19362e-05
-0.000256469
1.39415e-05
-0.000261061
1.62888e-05
-0.00026646
1.89494e-05
-0.000272751
2.19259e-05
-0.000280018
2.52071e-05
-0.000288339
2.87807e-05
-0.000297786
3.26204e-05
-0.000308415
3.66698e-05
-0.000320247
4.08175e-05
-0.000333255
4.4874e-05
-0.000347326
4.85564e-05
-0.000362241
5.14952e-05
-0.000377652
5.32678e-05
-0.000393085
5.34632e-05
-0.00040797
5.17717e-05
-0.000421701
4.80819e-05
-0.00043372
4.25603e-05
-0.00044362
3.56726e-05
-0.000451216
2.81215e-05
-0.00045657
2.06941e-05
-0.000459961
1.40909e-05
-0.000461817
8.81488e-06
-0.000462628
5.11504e-06
-0.000462869
2.97762e-06
-0.000462926
2.17018e-06
-0.000463064
2.3255e-06
-0.000463424
3.04872e-06
-0.000464053
4.01034e-06
-0.000464941
4.98999e-06
-0.000466051
5.87529e-06
-0.000467343
6.63292e-06
-0.00046878
7.27341e-06
-0.000470337
7.82463e-06
-0.000471999
8.31614e-06
-0.000473755
8.77166e-06
-0.000475603
9.20699e-06
-0.000477541
9.63062e-06
-0.000479568
1.00453e-05
-0.000481684
1.04499e-05
-0.000483888
1.08402e-05
-0.000486176
1.12104e-05
-0.000488545
1.1553e-05
-0.000490988
1.18597e-05
-0.000493496
1.21217e-05
-0.000496058
1.23298e-05
-0.000498662
1.24753e-05
-0.000501294
1.255e-05
-0.000503937
1.25467e-05
-0.000506573
1.24593e-05
-0.000509185
1.22834e-05
-0.000511753
1.20158e-05
-0.000514259
1.16549e-05
-0.000516684
1.12008e-05
-0.000519011
1.06548e-05
-0.000521221
1.00196e-05
-0.000523301
9.29888e-06
-0.000525235
8.49749e-06
-0.000527009
7.62089e-06
-0.000528612
6.67519e-06
-0.000530032
5.66697e-06
-0.000531258
4.60308e-06
-0.000532279
3.4906e-06
-0.000533085
2.33673e-06
-0.000533666
1.14841e-06
-0.000534006
-6.90064e-08
-0.000534096
-1.30404e-06
-0.000533932
-2.54621e-06
-0.00053351
-3.79278e-06
-0.000532821
-5.04213e-06
-0.000531854
-6.29286e-06
-0.000530599
-7.54376e-06
-0.00052904
-8.79396e-06
-0.000527165
-1.00433e-05
-0.000524959
-1.12927e-05
-0.000522405
-1.25445e-05
-0.000519488
-1.38026e-05
-0.000516192
-1.5073e-05
-0.000512498
-1.63639e-05
-0.000508388
-1.76857e-05
-0.000503842
-1.90512e-05
-0.00049884
-2.04757e-05
-0.000493357
-2.19762e-05
-0.000487367
-2.3572e-05
-0.00048084
-2.52835e-05
-0.000473744
-2.71318e-05
-0.00046604
-2.91382e-05
-0.000457687
-3.13229e-05
-0.000448638
-3.37035e-05
-0.000438844
-3.62941e-05
-0.000428252
-3.91032e-05
-0.00041681
-4.21313e-05
-0.000404465
-4.53686e-05
-0.000391172
-4.87919e-05
-0.000376898
-5.23615e-05
-0.000361626
-5.60172e-05
-0.000345366
-5.96727e-05
-0.000326343
-6.9898e-05
-0.000304396
-8.08346e-05
-0.000279548
-9.18436e-05
-0.000252032
-0.000102126
-0.000222313
-0.00011078
-0.000191081
-0.000116898
-0.000159215
-0.00011969
-0.000127717
-0.000118609
-9.76158e-05
-0.000113454
-6.97844e-05
-0.000104387
-4.48211e-05
-9.1942e-05
-2.31022e-05
-7.69905e-05
-4.86167e-06
-6.05782e-05
9.43646e-06
-4.37573e-05
1.97033e-05
-2.75734e-05
2.62078e-05
-1.25796e-05
2.93004e-05
8.68379e-07
2.96127e-05
1.20486e-05
2.79176e-05
2.07745e-05
2.49869e-05
2.70652e-05
2.15859e-05
3.09091e-05
1.84053e-05
3.23411e-05
1.59236e-05
3.1488e-05
1.42448e-05
2.86801e-05
1.30284e-05
2.45296e-05
1.19424e-05
1.98792e-05
1.09014e-05
1.5475e-05
9.89736e-06
1.17588e-05
8.82667e-06
9.77188e-06
7.6836e-06
8.07516e-06
6.45819e-06
6.70293e-06
5.12959e-06
5.67363e-06
3.6649e-06
4.99795e-06
2.01976e-06
4.68271e-06
1.39785e-07
4.73238e-06
-2.03774e-06
5.14863e-06
-4.58254e-06
5.92788e-06
-7.5718e-06
7.05473e-06
-1.10923e-05
8.49174e-06
-1.52452e-05
1.01647e-05
-2.01473e-05
1.19342e-05
-2.59198e-05
1.35505e-05
-3.2671e-05
1.46293e-05
-4.04473e-05
1.46383e-05
-4.9111e-05
1.29615e-05
-5.80471e-05
9.20266e-06
-6.57607e-05
4.01761e-06
-7.09304e-05
1.00662e-07
-7.42093e-05
-3.96512e-08
-7.69572e-05
2.20221e-06
-7.96627e-05
4.51054e-06
-8.24107e-05
6.2748e-06
-8.52016e-05
7.52234e-06
-8.79947e-05
8.30269e-06
-9.07363e-05
8.68279e-06
-9.33739e-05
8.73321e-06
-9.58632e-05
8.52131e-06
-9.81713e-05
8.11069e-06
-0.000100277
7.55959e-06
-0.00010217
6.91993e-06
-0.00010385
6.23631e-06
-0.000105321
5.54529e-06
-0.000106596
4.87513e-06
-0.00010769
4.24633e-06
-0.000108618
3.67256e-06
-0.000109399
3.1617e-06
-0.000110051
2.71697e-06
-0.000110591
2.33845e-06
-0.000111034
2.02409e-06
-0.000111397
1.77039e-06
-0.000111691
1.5731e-06
-0.000111929
1.42769e-06
-0.000112121
1.32959e-06
-0.000112276
1.27431e-06
-0.000112401
1.25771e-06
-0.000112501
1.27626e-06
-0.00011258
1.32728e-06
-0.000112641
1.40913e-06
-0.000112686
1.52168e-06
-0.000112715
1.66697e-06
-0.000112725
1.84957e-06
-0.000112714
2.07569e-06
-0.000112678
2.35167e-06
-0.000112611
2.68109e-06
-0.000112506
3.02751e-06
-0.000112351
3.37678e-06
4.81206e-06
-0.000305742
6.20507e-06
-0.000308345
1.14789e-05
-0.000311422
1.3194e-05
-0.000315178
1.5693e-05
-0.000319674
1.84375e-05
-0.00032502
2.16347e-05
-0.000331313
2.52424e-05
-0.00033865
2.92624e-05
-0.000347121
3.36781e-05
-0.000356812
3.84716e-05
-0.000367798
4.36065e-05
-0.000380134
4.90057e-05
-0.000393835
5.45188e-05
-0.000408851
5.989e-05
-0.000425032
6.47369e-05
-0.000442095
6.85581e-05
-0.000459605
7.07782e-05
-0.000476978
7.08363e-05
-0.000493517
6.83113e-05
-0.000508496
6.30606e-05
-0.000521269
5.53331e-05
-0.000531395
4.57985e-05
-0.000538727
3.54535e-05
-0.00054343
2.53972e-05
-0.000545924
1.65848e-05
-0.000546784
9.6748e-06
-0.000546629
4.9605e-06
-0.000546021
2.36926e-06
-0.000545382
1.53165e-06
-0.000544963
1.90635e-06
-0.000544861
2.94603e-06
-0.000545076
4.22571e-06
-0.000545565
5.47869e-06
-0.000546268
6.57806e-06
-0.00054713
7.49493e-06
-0.000548109
8.2528e-06
-0.000549178
8.89395e-06
-0.000550322
9.4602e-06
-0.000551535
9.98415e-06
-0.000552815
1.04871e-05
-0.000554165
1.09803e-05
-0.000555587
1.14674e-05
-0.000557084
1.19469e-05
-0.000558657
1.24134e-05
-0.000560305
1.2859e-05
-0.000562027
1.32743e-05
-0.000563815
1.36482e-05
-0.000565663
1.39694e-05
-0.000567559
1.42263e-05
-0.000569491
1.44075e-05
-0.000571444
1.45028e-05
-0.000573401
1.45031e-05
-0.000575342
1.44012e-05
-0.000577251
1.41916e-05
-0.000579106
1.3871e-05
-0.000580889
1.34383e-05
-0.000582583
1.28943e-05
-0.00058417
1.22417e-05
-0.000585635
1.14851e-05
-0.000586966
1.06302e-05
-0.000588153
9.68401e-06
-0.000589186
8.65422e-06
-0.00059006
7.54906e-06
-0.00059077
6.37693e-06
-0.000591313
5.14618e-06
-0.000591687
3.86494e-06
-0.000591892
2.54104e-06
-0.000591925
1.18159e-06
-0.000591786
-2.08362e-07
-0.000591473
-1.61645e-06
-0.000590986
-3.03329e-06
-0.000590319
-4.45956e-06
-0.000589465
-5.89675e-06
-0.000588411
-7.34656e-06
-0.000587144
-8.81081e-06
-0.000585646
-1.02916e-05
-0.000583898
-1.17915e-05
-0.000581876
-1.33142e-05
-0.000579557
-1.48642e-05
-0.000576911
-1.64478e-05
-0.000573912
-1.80727e-05
-0.000570527
-1.97488e-05
-0.000566724
-2.1488e-05
-0.000562471
-2.33045e-05
-0.000557732
-2.52147e-05
-0.000552471
-2.72375e-05
-0.000546649
-2.93935e-05
-0.000540228
-3.17051e-05
-0.000533164
-3.41957e-05
-0.000525413
-3.68886e-05
-0.00051693
-3.98063e-05
-0.000507664
-4.29689e-05
-0.000497567
-4.63918e-05
-0.000486586
-5.00839e-05
-0.000474673
-5.40444e-05
-0.000461782
-5.82595e-05
-0.000447875
-6.26985e-05
-0.000432928
-6.7309e-05
-0.000416933
-7.2012e-05
-0.000399911
-7.66948e-05
-0.000380008
-8.98006e-05
-0.000357062
-0.000103781
-0.000331105
-0.000117801
-0.000302402
-0.000130828
-0.000271461
-0.000141721
-0.000239004
-0.000149355
-0.00020592
-0.000152775
-0.00017318
-0.000151348
-0.00014175
-0.000144884
-0.000112458
-0.000133679
-8.59054e-05
-0.000118495
-6.24527e-05
-0.000100443
-4.22543e-05
-8.07767e-05
-2.53255e-05
-6.06861e-05
-1.17247e-05
-4.11742e-05
-1.32867e-06
-2.29756e-05
6.18291e-06
-6.64317e-06
1.11542e-05
7.07734e-06
1.41855e-05
1.77432e-05
1.60392e-05
2.52115e-05
1.74093e-05
2.95389e-05
1.87781e-05
3.09722e-05
2.03116e-05
2.99544e-05
2.1885e-05
2.71067e-05
2.32299e-05
2.31847e-05
2.41715e-05
1.89375e-05
2.46927e-05
1.49538e-05
2.48553e-05
1.15963e-05
2.4709e-05
9.91824e-06
2.42461e-05
8.53804e-06
2.34564e-05
7.49266e-06
2.23206e-05
6.8095e-06
2.08077e-05
6.51084e-06
1.88747e-05
6.61579e-06
1.64665e-05
7.14057e-06
1.3518e-05
8.09714e-06
9.95615e-06
9.48971e-06
5.70204e-06
1.13088e-05
6.71521e-07
1.35223e-05
-5.22555e-06
1.60619e-05
-1.20884e-05
1.87971e-05
-2.00157e-05
2.14779e-05
-2.90978e-05
2.37114e-05
-3.93982e-05
2.49387e-05
-5.08875e-05
2.44509e-05
-6.3258e-05
2.15732e-05
-7.55384e-05
1.62981e-05
-8.59308e-05
1.04931e-05
-9.35372e-05
7.56686e-06
-9.93785e-05
8.04364e-06
-0.000104358
9.48991e-06
-0.000108779
1.06964e-05
-0.000112764
1.15068e-05
-0.00011639
1.19289e-05
-0.000119701
1.19936e-05
-0.000122718
1.17511e-05
-0.000125456
1.12592e-05
-0.000127924
1.0578e-05
-0.00013013
9.76576e-06
-0.000132086
8.87611e-06
-0.000133805
7.95553e-06
-0.000135302
7.04231e-06
-0.000136593
6.16606e-06
-0.000137695
5.34812e-06
-0.000138625
4.6026e-06
-0.000139401
3.93739e-06
-0.000140039
3.35544e-06
-0.000140557
2.85626e-06
-0.00014097
2.43703e-06
-0.000141293
2.09321e-06
-0.000141539
1.81935e-06
-0.000141721
1.6097e-06
-0.00014185
1.45828e-06
-0.000141934
1.35906e-06
-0.000141983
1.30639e-06
-0.000142002
1.29533e-06
-0.000141996
1.32167e-06
-0.000141969
1.38219e-06
-0.000141923
1.47522e-06
-0.000141857
1.60127e-06
-0.000141771
1.76331e-06
-0.000141661
1.96586e-06
-0.000141523
2.21375e-06
-0.000141352
2.50976e-06
-0.000141139
2.81507e-06
-0.000140878
3.11579e-06
4.29842e-06
-0.000373335
7.72079e-06
-0.000376122
1.42659e-05
-0.000379461
1.65332e-05
-0.000383575
1.98066e-05
-0.000388526
2.3389e-05
-0.000394433
2.75413e-05
-0.000401396
3.22054e-05
-0.000409515
3.73817e-05
-0.000418884
4.30467e-05
-0.000429588
4.91753e-05
-0.000441699
5.57179e-05
-0.000455265
6.25715e-05
-0.000470284
6.95373e-05
-0.000486673
7.62794e-05
-0.000504233
8.22972e-05
-0.00052261
8.6935e-05
-0.000541272
8.94401e-05
-0.000559517
8.90819e-05
-0.000576528
8.53217e-05
-0.00059147
7.80027e-05
-0.00060364
6.75032e-05
-0.000612613
5.47716e-05
-0.000618344
4.11838e-05
-0.000621165
2.82182e-05
-0.000621691
1.71108e-05
-0.000620676
8.65972e-06
-0.000618872
3.1568e-06
-0.000616914
4.10923e-07
-0.000615225
-1.57287e-07
-0.000613976
6.57382e-07
-0.000613159
2.12918e-06
-0.000612698
3.76433e-06
-0.000612498
5.27921e-06
-0.000612474
6.55433e-06
-0.000612558
7.57871e-06
-0.000612703
8.39798e-06
-0.000612884
9.07449e-06
-0.000613089
9.66539e-06
-0.000613318
1.02136e-05
-0.000613578
1.07463e-05
-0.000613875
1.12777e-05
-0.00061422
1.1812e-05
-0.000614619
1.23468e-05
-0.000615081
1.2875e-05
-0.000615608
1.33863e-05
-0.000616202