/*--------------------------------*- C++ -*----------------------------------*\
| =========                 |                                                 |
| \\      /  F ield         | OpenFOAM: The Open Source CFD Toolbox           |
|  \\    /   O peration     | Version:  2406                                  |
|   \\  /    A nd           | Website:  www.openfoam.com                      |
|    \\/     M anipulation  |                                                 |
\*---------------------------------------------------------------------------*/
FoamFile
{
    version     2.0;
    format      ascii;
    arch        "LSB;label=32;scalar=64";
    class       volScalarField;
    location    "300";
    object      T;
}
// * * * * * * * * * * * * * * * * * * * * * * * * * * * * * * * * * * * * * //

dimensions      [0 0 0 1 0 0 0];

internalField   nonuniform List<scalar> 
5619
(
300
300
300
300
300
300
300
300
300
300
300
300
300
300
300
300
300
300
300
300
300
300
300
300
300
300
300
300
300
300
300
300
300
300
300
300
300
300
300
300
300
300
300
300
299.999
299.999
299.999
299.999
299.996
299.994
299.993
299.993
299.99
299.98
299.973
299.971
299.968
299.949
299.922
299.911
299.907
299.879
299.826
299.801
299.793
299.761
299.659
299.599
299.585
299.557
299.426
299.34
299.317
299.289
299.138
299.002
298.977
298.933
298.768
298.66
298.594
298.57
298.438
298.285
298.254
298.212
298.065
297.947
297.932
297.846
297.672
297.631
297.589
297.493
297.436
297.409
297.356
297.303
297.283
297.257
297.235
297.225
297.216
297.217
297.242
297.261
297.287
297.32
297.358
297.401
297.446
297.493
297.541
297.588
297.634
297.68
297.724
297.768
297.811
297.854
297.9
297.942
298.021
298.5
299.39
299.56
299.595
299.592
299.621
299.61
299.62
299.559
299.277
298.95
298.578
298.079
297.498
296.843
296.133
295.391
294.661
294.017
293.52
293.267
293.17
293.152
293.15
293.15
293.15
293.15
293.15
293.15
293.15
293.15
293.15
293.15
293.15
293.15
293.15
293.15
293.15
293.15
293.15
293.15
293.15
293.15
293.15
293.15
293.15
293.15
293.15
293.15
293.15
293.15
293.15
293.15
293.15
293.15
293.15
293.15
293.15
293.15
293.15
293.15
293.15
293.15
293.15
300
300
300
300
300
300
300
300
300
300
300
300
300
300
300
300
300
300
300
300
300
300
300
300
300
300
300
300
300
300
300
300
300
300
300
300
300
300
300
300
300
300
300
300
299.999
299.999
299.999
299.998
299.996
299.994
299.993
299.992
299.987
299.98
299.974
299.97
299.961
299.942
299.923
299.911
299.896
299.862
299.825
299.8
299.767
299.711
299.65
299.6
299.555
299.491
299.413
299.347
299.287
299.205
299.106
299.019
298.95
298.863
298.759
298.665
298.581
298.497
298.399
298.304
298.225
298.139
298.046
297.959
297.885
297.8
297.714
297.643
297.578
297.512
297.453
297.4
297.351
297.306
297.269
297.237
297.212
297.194
297.186
297.184
297.199
297.223
297.257
297.3
297.35
297.405
297.464
297.523
297.581
297.637
297.691
297.742
297.788
297.832
297.873
297.914
297.955
297.999
298.101
298.453
299.129
299.396
299.497
299.542
299.57
299.577
299.564
299.503
299.386
299.22
298.991
298.683
298.285
297.791
297.203
296.534
295.81
295.067
294.353
293.709
293.308
293.174
293.152
293.15
293.15
293.15
293.15
293.15
293.15
293.15
293.15
293.15
293.15
293.15
293.15
293.15
293.15
293.15
293.15
293.15
293.15
293.15
293.15
293.15
293.15
293.15
293.15
293.15
293.15
293.15
293.15
293.15
293.15
293.15
293.15
293.15
293.15
293.15
293.15
293.15
293.15
293.15
293.15
300
300
300
300
300
300
300
300
300
300
300
300
300
300
300
300
300
300
300
300
300
300
300
300
300
300
300
300
300
300
300
300
300
300
300
300
300
300
300
300
300
300
300
299.999
299.999
299.999
299.999
299.998
299.996
299.994
299.993
299.99
299.985
299.978
299.973
299.967
299.954
299.937
299.921
299.906
299.884
299.853
299.821
299.791
299.753
299.704
299.653
299.604
299.551
299.489
299.424
299.36
299.291
299.214
299.134
299.057
298.98
298.897
298.81
298.725
298.64
298.554
298.466
298.379
298.294
298.209
298.125
298.044
297.964
297.884
297.806
297.731
297.658
297.587
297.519
297.455
297.394
297.338
297.288
297.243
297.202
297.171
297.153
297.145
297.152
297.179
297.219
297.272
297.335
297.404
297.476
297.548
297.618
297.684
297.746
297.802
297.854
297.901
297.946
297.99
298.037
298.099
298.222
298.489
298.892
299.181
299.341
299.433
299.493
299.533
299.551
299.545
299.502
299.425
299.3
299.113
298.849
298.494
298.035
297.466
296.794
296.035
295.216
294.379
293.638
293.268
293.163
293.151
293.15
293.15
293.15
293.15
293.15
293.15
293.15
293.15
293.15
293.15
293.15
293.15
293.15
293.15
293.15
293.15
293.15
293.15
293.15
293.15
293.15
293.15
293.15
293.15
293.15
293.15
293.15
293.15
293.15
293.15
293.15
293.15
293.15
293.15
293.15
293.15
293.15
293.15
293.15
300
300
300
300
300
300
300
300
300
300
300
300
300
300
300
300
300
300
300
300
300
300
300
300
300
300
300
300
300
300
300
300
300
300
300
300
300
300
300
300
300
300
300
299.999
299.999
299.999
299.998
299.997
299.995
299.994
299.992
299.988
299.983
299.976
299.97
299.962
299.949
299.934
299.918
299.901
299.878
299.85
299.821
299.789
299.752
299.71
299.666
299.62
299.57
299.516
299.46
299.402
299.339
299.273
299.206
299.138
299.069
298.999
298.927
298.854
298.779
298.702
298.624
298.545
298.464
298.382
298.299
298.214
298.129
298.043
297.957
297.87
297.784
297.699
297.615
297.533
297.454
297.379
297.309
297.246
297.186
297.136
297.102
297.085
297.085
297.112
297.161
297.227
297.308
297.396
297.486
297.577
297.663
297.741
297.813
297.877
297.934
297.987
298.038
298.09
298.15
298.233
298.367
298.578
298.833
299.049
299.21
299.324
299.407
299.469
299.512
299.536
299.537
299.513
299.454
299.351
299.189
298.95
298.618
298.173
297.605
296.908
296.093
295.189
294.26
293.519
293.216
293.155
293.15
293.15
293.15
293.15
293.15
293.15
293.15
293.15
293.15
293.15
293.15
293.15
293.15
293.15
293.15
293.15
293.15
293.15
293.15
293.15
293.15
293.15
293.15
293.15
293.15
293.15
293.15
293.15
293.15
293.15
293.15
293.15
293.15
293.15
293.15
293.15
293.15
293.15
293.15
300
300
300
300
300
300
300
300
300
300
300
300
300
300
300
300
300
300
300
300
300
300
300
300
300
300
300
300
300
300
300
300
300
300
300
300
300
300
300
300
300
300
299.999
299.999
299.999
299.998
299.997
299.996
299.994
299.992
299.99
299.986
299.98
299.974
299.967
299.958
299.946
299.932
299.917
299.899
299.878
299.854
299.828
299.8
299.768
299.734
299.697
299.66
299.62
299.579
299.536
299.491
299.444
299.395
299.343
299.29
299.235
299.177
299.116
299.052
298.986
298.916
298.843
298.767
298.687
298.603
298.517
298.427
298.333
298.237
298.138
298.037
297.935
297.831
297.727
297.623
297.521
297.422
297.328
297.241
297.158
297.083
297.025
296.992
296.983
297.008
297.067
297.153
297.26
297.378
297.496
297.613
297.721
297.817
297.9
297.973
298.038
298.098
298.157
298.221
298.297
298.396
298.529
298.695
298.872
299.032
299.162
299.264
299.346
299.412
299.464
299.502
299.524
299.527
299.507
299.456
299.362
299.211
298.984
298.658
298.211
297.623
296.881
295.993
295
294.008
293.37
293.176
293.151
293.15
293.15
293.15
293.15
293.15
293.15
293.15
293.15
293.15
293.15
293.15
293.15
293.15
293.15
293.15
293.15
293.15
293.15
293.15
293.15
293.15
293.15
293.15
293.15
293.15
293.15
293.15
293.15
293.15
293.15
293.15
293.15
293.15
293.15
293.15
293.15
293.15
293.15
300
300
300
300
300
300
300
300
300
300
300
300
300
300
300
300
300
300
300
300
300
300
300
300
300
300
300
300
300
300
300
300
300
300
300
300
300
300
300
300
300
300
299.999
299.999
299.999
299.998
299.997
299.995
299.993
299.991
299.988
299.984
299.979
299.973
299.966
299.957
299.946
299.934
299.921
299.906
299.889
299.87
299.851
299.83
299.809
299.785
299.761
299.736
299.709
299.681
299.651
299.62
299.586
299.55
299.512
299.472
299.428
299.381
299.33
299.276
299.217
299.154
299.086
299.012
298.934
298.85
298.761
298.666
298.565
298.46
298.349
298.234
298.114
297.991
297.865
297.737
297.609
297.482
297.358
297.239
297.125
297.016
296.924
296.863
296.838
296.85
296.917
297.027
297.171
297.336
297.501
297.656
297.796
297.914
298.014
298.098
298.171
298.239
298.307
298.38
298.466
298.568
298.686
298.814
298.941
299.058
299.158
299.241
299.31
299.37
299.42
299.46
299.489
299.504
299.502
299.479
299.424
299.327
299.171
298.936
298.595
298.12
297.481
296.666
295.686
294.608
293.654
293.237
293.156
293.15
293.15
293.15
293.15
293.15
293.15
293.15
293.15
293.15
293.15
293.15
293.15
293.15
293.15
293.15
293.15
293.15
293.15
293.15
293.15
293.15
293.15
293.15
293.15
293.15
293.15
293.15
293.15
293.15
293.15
293.15
293.15
293.15
293.15
293.15
293.15
293.15
293.15
300
300
300
300
300
300
300
300
300
300
300
300
300
300
300
300
300
300
300
300
300
300
300
300
300
300
300
300
300
300
300
300
300
300
300
300
300
300
300
300
300
299.999
299.999
299.999
299.998
299.997
299.996
299.995
299.993
299.99
299.987
299.983
299.979
299.974
299.967
299.96
299.952
299.944
299.935
299.925
299.914
299.903
299.891
299.879
299.865
299.852
299.837
299.822
299.805
299.788
299.768
299.748
299.725
299.701
299.674
299.644
299.611
299.574
299.533
299.488
299.438
299.383
299.322
299.255
299.181
299.101
299.013
298.918
298.815
298.705
298.587
298.462
298.33
298.191
298.046
297.897
297.744
297.588
297.432
297.278
297.121
296.968
296.827
296.713
296.65
296.636
296.691
296.815
296.998
297.224
297.468
297.683
297.87
298.027
298.15
298.247
298.329
298.403
298.476
298.552
298.635
298.724
298.819
298.915
299.007
299.091
299.166
299.23
299.286
299.336
299.38
299.416
299.445
299.463
299.468
299.455
299.418
299.346
299.228
299.046
298.778
298.394
297.86
297.143
296.227
295.155
294.044
293.364
293.172
293.151
293.15
293.15
293.15
293.15
293.15
293.15
293.15
293.15
293.15
293.15
293.15
293.15
293.15
293.15
293.15
293.15
293.15
293.15
293.15
293.15
293.15
293.15
293.15
293.15
293.15
293.15
293.15
293.15
293.15
293.15
293.15
293.15
293.15
293.15
293.15
293.15
293.15
300
300
300
300
300
300
300
300
300
300
300
300
300
300
300
300
300
300
300
300
300
300
300
300
300
300
300
300
300
300
300
300
300
300
300
300
300
300
300
300
299.999
299.999
299.999
299.998
299.998
299.997
299.996
299.994
299.993
299.991
299.988
299.985
299.982
299.978
299.974
299.97
299.965
299.96
299.955
299.949
299.944
299.937
299.931
299.925
299.917
299.91
299.902
299.893
299.884
299.873
299.861
299.848
299.834
299.817
299.798
299.777
299.753
299.725
299.693
299.658
299.617
299.572
299.52
299.462
299.397
299.324
299.244
299.155
299.057
298.949
298.832
298.705
298.568
298.422
298.266
298.101
297.928
297.749
297.565
297.378
297.182
296.978
296.78
296.604
296.461
296.39
296.387
296.494
296.688
296.962
297.285
297.62
297.895
298.098
298.257
298.384
298.484
298.568
298.643
298.715
298.787
298.86
298.933
299.004
299.071
299.134
299.189
299.238
299.282
299.321
299.355
299.384
299.406
299.419
299.419
299.403
299.363
299.292
299.176
298.999
298.737
298.363
297.84
297.135
296.226
295.159
294.048
293.369
293.174
293.151
293.15
293.15
293.15
293.15
293.15
293.15
293.15
293.15
293.15
293.15
293.15
293.15
293.15
293.15
293.15
293.15
293.15
293.15
293.15
293.15
293.15
293.15
293.15
293.15
293.15
293.15
293.15
293.15
293.15
293.15
293.15
293.15
293.15
293.15
293.15
293.15
293.15
300
300
300
300
300
300
300
300
300
300
300
300
300
300
300
300
300
300
300
300
300
300
300
300
300
300
300
300
300
300
300
300
300
300
300
300
300
300
300
300
299.999
299.999
299.999
299.998
299.998
299.997
299.996
299.995
299.994
299.992
299.991
299.989
299.987
299.985
299.983
299.98
299.978
299.975
299.973
299.97
299.967
299.964
299.96
299.957
299.953
299.949
299.944
299.939
299.933
299.926
299.918
299.909
299.899
299.887
299.873
299.857
299.839
299.817
299.792
299.764
299.731
299.694
299.651
299.602
299.547
299.484
299.413
299.334
299.245
299.146
299.036
298.915
298.782
298.638
298.481
298.312
298.132
297.94
297.739
297.53
297.306
297.063
296.814
296.574
296.367
296.197
296.1
296.086
296.232
296.487
296.833
297.241
297.663
298.021
298.276
298.443
298.568
298.67
298.758
298.836
298.907
298.974
299.037
299.095
299.149
299.197
299.239
299.275
299.305
299.33
299.35
299.362
299.367
299.36
299.338
299.297
299.231
299.13
298.982
298.77
298.471
298.058
297.499
296.769
295.864
294.833
293.811
293.299
293.167
293.151
293.15
293.15
293.15
293.15
293.15
293.15
293.15
293.15
293.15
293.15
293.15
293.15
293.15
293.15
293.15
293.15
293.15
293.15
293.15
293.15
293.15
293.15
293.15
293.15
293.15
293.15
293.15
293.15
293.15
293.15
293.15
293.15
293.15
293.15
293.15
293.15
293.15
300
300
300
300
300
300
300
300
300
300
300
300
300
300
300
300
300
300
300
300
300
300
300
300
300
300
300
300
300
300
300
300
300
300
300
300
300
300
300
300
299.999
299.999
299.999
299.998
299.998
299.998
299.997
299.996
299.995
299.995
299.994
299.993
299.992
299.991
299.989
299.988
299.987
299.986
299.984
299.983
299.981
299.979
299.977
299.975
299.972
299.969
299.966
299.962
299.957
299.951
299.945
299.938
299.929
299.919
299.908
299.894
299.878
299.86
299.839
299.815
299.787
299.755
299.718
299.676
299.628
299.573
299.51
299.439
299.36
299.27
299.17
299.059
298.936
298.801
298.653
298.492
298.319
298.133
297.934
297.724
297.493
297.237
296.961
296.675
296.394
296.145
295.953
295.821
295.767
295.841
296.107
296.483
296.923
297.379
297.82
298.175
298.429
298.609
298.734
298.833
298.916
298.989
299.052
299.107
299.154
299.192
299.222
299.242
299.253
299.255
299.247
299.228
299.195
299.146
299.076
298.978
298.845
298.667
298.429
298.115
297.702
297.165
296.482
295.665
294.764
293.9
293.373
293.189
293.154
293.15
293.15
293.15
293.15
293.15
293.15
293.15
293.15
293.15
293.15
293.15
293.15
293.15
293.15
293.15
293.15
293.15
293.15
293.15
293.15
293.15
293.15
293.15
293.15
293.15
293.15
293.15
293.15
293.15
293.15
293.15
293.15
293.15
293.15
293.15
293.15
293.15
293.15
300
300
300
300
300
300
300
300
300
300
300
300
300
300
300
300
300
300
300
300
300
300
300
300
300
300
300
300
300
300
300
300
300
300
300
300
300
300
300
300
299.999
299.999
299.999
299.999
299.999
299.998
299.998
299.998
299.997
299.997
299.996
299.996
299.995
299.994
299.994
299.993
299.992
299.991
299.99
299.989
299.988
299.986
299.985
299.983
299.98
299.978
299.974
299.971
299.966
299.961
299.955
299.949
299.941
299.932
299.921
299.909
299.895
299.878
299.859
299.838
299.813
299.784
299.752
299.714
299.672
299.624
299.569
299.508
299.438
299.361
299.274
299.177
299.07
298.952
298.823
298.681
298.527
298.36
298.18
297.988
297.774
297.531
297.264
296.976
296.672
296.355
296.041
295.768
295.582
295.474
295.425
295.525
295.803
296.209
296.665
297.098
297.482
297.819
298.092
298.296
298.451
298.571
298.664
298.732
298.779
298.806
298.813
298.805
298.782
298.742
298.684
298.603
298.496
298.359
298.184
297.962
297.683
297.334
296.908
296.407
295.841
295.231
294.603
293.996
293.485
293.237
293.162
293.151
293.15
293.15
293.15
293.15
293.15
293.15
293.15
293.15
293.15
293.15
293.15
293.15
293.15
293.15
293.15
293.15
293.15
293.15
293.15
293.15
293.15
293.15
293.15
293.15
293.15
293.15
293.15
293.15
293.15
293.15
293.15
293.15
293.15
293.15
293.15
293.15
293.15
293.15
293.15
300
300
300
300
300
300
300
300
300
300
300
300
300
300
300
300
300
300
300
300
300
300
300
300
300
300
300
300
300
300
300
300
300
300
300
300
300
300
300
300
300
300
299.999
299.999
299.999
299.999
299.999
299.998
299.998
299.998
299.998
299.997
299.997
299.997
299.996
299.996
299.995
299.994
299.993
299.992
299.991
299.99
299.989
299.987
299.985
299.982
299.979
299.976
299.972
299.967
299.962
299.956
299.949
299.941
299.932
299.921
299.909
299.895
299.879
299.861
299.84
299.817
299.79
299.759
299.725
299.686
299.642
299.592
299.536
299.474
299.404
299.327
299.241
299.145
299.04
298.925
298.799
298.662
298.513
298.353
298.174
297.968
297.737
297.48
297.199
296.892
296.56
296.207
295.836
295.489
295.234
295.099
295.031
295.002
295.173
295.449
295.798
296.173
296.508
296.764
296.961
297.113
297.228
297.291
297.307
297.289
297.256
297.195
297.101
296.97
296.805
296.607
296.377
296.116
295.828
295.516
295.181
294.831
294.468
294.103
293.766
293.47
293.267
293.179
293.157
293.151
293.15
293.15
293.15
293.15
293.15
293.15
293.15
293.15
293.15
293.15
293.15
293.15
293.15
293.15
293.15
293.15
293.15
293.15
293.15
293.15
293.15
293.15
293.15
293.15
293.15
293.15
293.15
293.15
293.15
293.15
293.15
293.15
293.15
293.15
293.15
293.15
293.15
293.15
293.15
293.15
293.15
300
300
300
300
300
300
300
300
300
300
300
300
300
300
300
300
300
300
300
300
300
300
300
300
300
300
300
300
300
300
300
300
300
300
300
300
300
300
300
300
300
300
300
300
299.999
299.999
299.999
299.999
299.999
299.999
299.999
299.998
299.998
299.998
299.998
299.997
299.997
299.996
299.996
299.995
299.994
299.993
299.992
299.99
299.989
299.987
299.984
299.982
299.979
299.975
299.971
299.967
299.961
299.955
299.949
299.941
299.932
299.922
299.911
299.898
299.884
299.867
299.848
299.827
299.803
299.776
299.745
299.71
299.67
299.626
299.576
299.521
299.459
299.39
299.313
299.229
299.136
299.035
298.924
298.804
298.669
298.511
298.331
298.128
297.899
297.643
297.356
297.038
296.686
296.3
295.879
295.428
295.014
294.711
294.519
294.429
294.366
294.328
294.409
294.506
294.613
294.676
294.694
294.697
294.68
294.574
294.503
294.418
294.325
294.22
294.104
293.983
293.857
293.729
293.597
293.468
293.352
293.259
293.2
293.173
293.16
293.154
293.151
293.15
293.15
293.15
293.15
293.15
293.15
293.15
293.15
293.15
293.15
293.15
293.15
293.15
293.15
293.15
293.15
293.15
293.15
293.15
293.15
293.15
293.15
293.15
293.15
293.15
293.15
293.15
293.15
293.15
293.15
293.15
293.15
293.15
293.15
293.15
293.15
293.15
293.15
293.15
293.15
293.15
293.15
293.15
293.15
300
300
300
300
300
300
300
300
300
300
300
300
300
300
300
300
300
300
300
300
300
300
300
300
300
300
300
300
300
300
300
300
300
300
300
300
300
300
300
300
300
300
300
300
300
300
300
299.999
299.999
299.999
299.999
299.999
299.999
299.999
299.998
299.998
299.998
299.998
299.997
299.997
299.996
299.995
299.995
299.994
299.993
299.992
299.99
299.989
299.987
299.985
299.983
299.98
299.977
299.974
299.97
299.966
299.962
299.957
299.951
299.944
299.937
299.928
299.918
299.907
299.894
299.879
299.862
299.842
299.82
299.794
299.764
299.731
299.693
299.65
299.602
299.548
299.488
299.422
299.349
299.269
299.177
299.069
298.943
298.798
298.632
298.443
298.228
297.987
297.716
297.415
297.08
296.711
296.304
295.854
295.365
294.855
294.4
294.039
293.742
293.549
293.458
293.407
293.366
293.332
293.313
293.286
293.265
293.245
293.227
293.211
293.197
293.185
293.174
293.166
293.16
293.155
293.153
293.151
293.15
293.15
293.15
293.15
293.15
293.15
293.15
293.15
293.15
293.15
293.15
293.15
293.15
293.15
293.15
293.15
293.15
293.15
293.15
293.15
293.15
293.15
293.15
293.15
293.15
293.15
293.15
293.15
293.15
293.15
293.15
293.15
293.15
293.15
293.15
293.15
293.15
293.15
293.15
293.15
293.15
293.15
293.15
293.15
293.15
293.15
293.15
293.15
293.15
300
300
300
300
300
300
300
300
300
300
300
300
300
300
300
300
300
300
300
300
300
300
300
300
300
300
300
300
300
300
300
300
300
300
300
300
300
300
300
300
300
300
300
300
300
300
300
300
300
300
300
299.999
299.999
299.999
299.999
299.999
299.999
299.999
299.998
299.998
299.998
299.997
299.997
299.997
299.996
299.995
299.995
299.994
299.993
299.992
299.992
299.99
299.989
299.988
299.987
299.986
299.984
299.983
299.981
299.979
299.976
299.974
299.971
299.967
299.963
299.958
299.951
299.944
299.935
299.924
299.911
299.895
299.876
299.854
299.828
299.798
299.764
299.725
299.681
299.631
299.574
299.505
299.423
299.327
299.216
299.089
298.945
298.784
298.605
298.41
298.198
297.966
297.71
297.423
297.097
296.727
296.309
295.846
295.342
294.806
294.261
293.763
293.4
293.239
293.167
293.158
293.154
293.154
293.153
293.152
293.151
293.151
293.15
293.15
293.15
293.15
293.15
293.15
293.15
293.15
293.15
293.15
293.15
293.15
293.15
293.15
293.15
293.15
293.15
293.15
293.15
293.15
293.15
293.15
293.15
293.15
293.15
293.15
293.15
293.15
293.15
293.15
293.15
293.15
293.15
293.15
293.15
293.15
293.15
293.15
293.15
293.15
293.15
293.15
293.15
293.15
293.15
293.15
293.15
293.15
293.15
293.15
293.15
293.15
293.15
293.15
293.15
300
300
300
300
300
300
300
300
300
300
300
300
300
300
300
300
300
300
300
300
300
300
300
300
300
300
300
300
300
300
300
300
300
300
300
300
300
300
300
300
300
300
300
300
300
300
300
300
300
300
300
300
300
300
299.999
299.999
299.999
299.999
299.999
299.999
299.999
299.999
299.998
299.998
299.998
299.998
299.998
299.997
299.997
299.997
299.997
299.996
299.996
299.996
299.995
299.995
299.995
299.994
299.994
299.993
299.993
299.992
299.991
299.99
299.989
299.988
299.986
299.984
299.981
299.977
299.972
299.966
299.958
299.949
299.937
299.922
299.905
299.884
299.859
299.831
299.797
299.754
299.703
299.641
299.568
299.482
299.384
299.275
299.156
299.029
298.899
298.767
298.632
298.489
298.328
298.134
297.89
297.58
297.195
296.731
296.192
295.591
294.948
294.305
293.715
293.335
293.188
293.154
293.15
293.15
293.15
293.15
293.15
293.15
293.15
293.15
293.15
293.15
293.15
293.15
293.15
293.15
293.15
293.15
293.15
293.15
293.15
293.15
293.15
293.15
293.15
293.15
293.15
293.15
293.15
293.15
293.15
293.15
293.15
293.15
293.15
293.15
293.15
293.15
293.15
293.15
293.15
293.15
293.15
293.15
293.15
293.15
293.15
293.15
293.15
293.15
293.15
293.15
293.15
293.15
293.15
293.15
293.15
293.15
293.15
293.15
293.15
300
300
300
300
300
300
300
300
300
300
300
300
300
300
300
300
300
300
300
300
300
300
300
300
300
300
300
300
300
300
300
300
300
300
300
300
300
300
300
300
300
300
300
300
300
300
300
300
300
300
300
300
300
300
300
300
300
300
300
299.999
299.999
299.999
299.999
299.999
299.999
299.999
299.999
299.999
299.999
299.999
299.999
299.999
299.999
299.998
299.998
299.998
299.998
299.998
299.998
299.998
299.998
299.998
299.998
299.997
299.997
299.997
299.996
299.996
299.995
299.994
299.992
299.991
299.988
299.984
299.979
299.973
299.965
299.955
299.942
299.926
299.907
299.882
299.851
299.812
299.764
299.706
299.638
299.561
299.477
299.39
299.304
299.225
299.155
299.097
299.045
298.986
298.905
298.782
298.593
298.316
297.932
297.427
296.804
296.075
295.274
294.477
293.771
293.339
293.181
293.152
293.15
293.15
293.15
293.15
293.15
293.15
293.15
293.15
293.15
293.15
293.15
293.15
293.15
293.15
293.15
293.15
293.15
293.15
293.15
293.15
293.15
293.15
293.15
293.15
293.15
293.15
293.15
293.15
293.15
293.15
293.15
293.15
293.15
293.15
293.15
293.15
293.15
293.15
293.15
293.15
293.15
293.15
293.15
293.15
293.15
293.15
293.15
293.15
293.15
293.15
293.15
293.15
293.15
293.15
293.15
293.15
293.15
300
300
300
300
300
300
300
300
300
300
300
300
300
300
300
300
300
300
300
300
300
300
300
300
300
300
300
300
300
300
300
300
300
300
300
300
300
300
300
300
300
300
300
300
300
300
300
300
300
300
300
300
300
300
300
300
300
300
300
300
300
300
300
300
300
300
300
300
299.999
299.999
299.999
299.999
299.999
299.999
299.999
299.999
299.999
299.999
299.999
299.999
299.999
299.999
299.999
299.999
299.999
299.999
299.999
299.999
299.999
299.998
299.998
299.998
299.997
299.996
299.995
299.993
299.99
299.985
299.979
299.972
299.962
299.948
299.93
299.906
299.875
299.835
299.785
299.728
299.665
299.599
299.537
299.482
299.442
299.419
299.412
299.415
299.419
299.414
299.38
299.296
299.138
298.868
298.447
297.848
297.061
296.112
295.097
294.162
293.49
293.208
293.153
293.15
293.15
293.15
293.15
293.15
293.15
293.15
293.15
293.15
293.15
293.15
293.15
293.15
293.15
293.15
293.15
293.15
293.15
293.15
293.15
293.15
293.15
293.15
293.15
293.15
293.15
293.15
293.15
293.15
293.15
293.15
293.15
293.15
293.15
293.15
293.15
293.15
293.15
293.15
293.15
293.15
293.15
293.15
293.15
293.15
293.15
293.15
293.15
293.15
293.15
293.15
293.15
293.15
293.15
293.15
293.15
300
300
300
300
300
300
300
300
300
300
300
300
300
300
300
300
300
300
300
300
300
300
300
300
300
300
300
300
300
300
300
300
300
300
300
300
300
300
300
300
300
300
300
300
300
300
300
300
300
300
300
300
300
300
300
300
300
300
300
300
300
300
300
300
300
300
300
300
300
300
300
300
300
300
300
300
300
300
300
300
300
300
300
300
300
300
300
300
300
300
300
300
300
300.001
300.003
300.007
300.012
300.019
300.024
300.028
300.028
300.023
300.01
299.988
299.958
299.922
299.879
299.831
299.78
299.727
299.677
299.635
299.607
299.597
299.604
299.625
299.654
299.683
299.706
299.716
299.705
299.65
299.51
299.209
298.669
297.816
296.639
295.307
294.067
293.375
293.171
293.15
293.15
293.15
293.15
293.15
293.15
293.15
293.15
293.15
293.15
293.15
293.15
293.15
293.15
293.15
293.15
293.15
293.15
293.15
293.15
293.15
293.15
293.15
293.15
293.15
293.15
293.15
293.15
293.15
293.15
293.15
293.15
293.15
293.15
293.15
293.15
293.15
293.15
293.15
293.15
293.15
293.15
293.15
293.15
293.15
293.15
293.15
293.15
293.15
293.15
293.15
293.15
293.15
293.15
293.15
293.15
300
300
300
300
300
300
300
300
300
300
300
300
300
300
300
300
300
300
300
300
300
300
300
300
300
300
300
300
300
300
300
300
300
300
300
300
300
300
300
300
300
300
300
300
300
300
300
300
300
300
300
300
300
300
300
300
300
300
300
300
300
300
300
300
300
300
300
300
300
300
300
300
300
300
300
300
300
300
300
300
300
300
300
300
300
300
300
300
300
300
300
300
300.001
300.003
300.008
300.02
300.046
300.087
300.128
300.159
300.174
300.168
300.142
300.099
300.048
299.998
299.949
299.902
299.855
299.809
299.767
299.732
299.71
299.704
299.714
299.738
299.771
299.808
299.846
299.883
299.919
299.949
299.967
299.943
299.782
299.305
298.265
296.585
294.662
293.527
293.187
293.151
293.15
293.15
293.15
293.15
293.15
293.15
293.15
293.15
293.15
293.15
293.15
293.15
293.15
293.15
293.15
293.15
293.15
293.15
293.15
293.15
293.15
293.15
293.15
293.15
293.15
293.15
293.15
293.15
293.15
293.15
293.15
293.15
293.15
293.15
293.15
293.15
293.15
293.15
293.15
293.15
293.15
293.15
293.15
293.15
293.15
293.15
293.15
293.15
293.15
293.15
293.15
293.15
293.15
293.15
293.15
300
300
300
300
300
300
300
300
300
300
300
300
300
300
300
300
300
300
300
300
300
300
300
300
300
300
300
300
300
300
300
300
300
300
300
300
300
300
300
300
300
300
300
300
300
300
300
300
300
300
300
300
300
300
300
300
300
300
300
300
300
300
300
300
300
300
300
300
300
300
300
300
300
300
300
300
300
300
300
300
300
300
300
300
300
300
300
300
300
300
300
300
300.001
300.003
300.009
300.028
300.08
300.204
300.394
300.516
300.548
300.477
300.361
300.246
300.148
300.07
300.007
299.955
299.908
299.865
299.827
299.797
299.778
299.773
299.783
299.805
299.836
299.873
299.912
299.957
300.008
300.071
300.147
300.231
300.294
300.255
299.756
298.015
295.084
293.558
293.179
293.15
293.15
293.15
293.15
293.15
293.15
293.15
293.15
293.15
293.15
293.15
293.15
293.15
293.15
293.15
293.15
293.15
293.15
293.15
293.15
293.15
293.15
293.15
293.15
293.15
293.15
293.15
293.15
293.15
293.15
293.15
293.15
293.15
293.15
293.15
293.15
293.15
293.15
293.15
293.15
293.15
293.15
293.15
293.15
293.15
293.15
293.15
293.15
293.15
293.15
293.15
293.15
293.15
293.15
293.15
293.15
300
300
300
300
300
300
300
300
300
300
300
300
300
300
300
300
300
300
300
300
300
300
300
300
300
300
300
300
300
300
300
300
300
300
300
300
300
300
300
300
300
300
300
300
300
300
300
300
300
300
300
300
300
300
300
300
300
300
300
300
300
300
300
300
300
300
300
300
300
300
300
300
300
300
300
300
300
300
300
300
300
300
300
300
300
300
300
300
300
300
300
300
300.001
300.002
300.007
300.025
300.087
300.295
300.827
301.366
301.199
300.895
300.618
300.406
300.251
300.139
300.058
299.997
299.947
299.906
299.87
299.843
299.825
299.821
299.829
299.849
299.878
299.912
299.951
299.997
300.055
300.132
300.237
300.378
300.552
300.714
300.726
299.535
295.225
293.453
293.162
293.15
293.15
293.15
293.15
293.15
293.15
293.15
293.15
293.15
293.15
293.15
293.15
293.15
293.15
293.15
293.15
293.15
293.15
293.15
293.15
293.15
293.15
293.15
293.15
293.15
293.15
293.15
293.15
293.15
293.15
293.15
293.15
293.15
293.15
293.15
293.15
293.15
293.15
293.15
293.15
293.15
293.15
293.15
293.15
293.15
293.15
293.15
293.15
293.15
293.15
293.15
293.15
293.15
293.15
293.15
293.15
300
300
300
300
300
300
300
300
300
300
300
300
300
300
300
300
300
300
300
300
300
300
300
300
300
300
300
300
300
300
300
300
300
300
300
300
300
300
300
300
300
300
300
300
300
300
300
300
300
300
300
300
300
300
300
300
300
300
300
300
300
300
300
300
300
300
300
300
300
300
300
300
300
300
300
300
300
300
300
300
300
300
300
300
300
300
300
300
300
300
300
300
300
300.001
300.003
300.013
300.059
300.269
301.114
302.538
301.896
301.303
300.87
300.567
300.355
300.209
300.107
300.034
299.98
299.937
299.903
299.876
299.86
299.855
299.862
299.881
299.907
299.94
299.979
300.027
300.091
300.18
300.304
300.479
300.715
301.012
301.274
300.877
294.936
293.308
293.153
293.15
293.15
293.15
293.15
293.15
293.15
293.15
293.15
293.15
293.15
293.15
293.15
293.15
293.15
293.15
293.15
293.15
293.15
293.15
293.15
293.15
293.15
293.15
293.15
293.15
293.15
293.15
293.15
293.15
293.15
293.15
293.15
293.15
293.15
293.15
293.15
293.15
293.15
293.15
293.15
293.15
293.15
293.15
293.15
293.15
293.15
293.15
293.15
293.15
293.15
293.15
293.15
293.15
293.15
293.15
293.15
300
300
300
300
300
300
300
300
300
300
300
300
300
300
300
300
300
300
300
300
300
300
300
300
300
300
300
300
300
300
300
300
300
300
300
300
300
300
300
300
300
300
300
300
300
300
300
300
300
300
300
300
300
300
300
300
300
300
300
300
300
300
300
300
300
300
300
300
300
300
300
300
300
300
300
300
300
300
300
300
300
300
300
300
300
300
300
300
300
300
300
300
300
300
300
300.002
300.011
300.078
301.066
303.524
302.467
301.669
301.116
300.732
300.466
300.284
300.159
300.072
300.01
299.964
299.928
299.902
299.885
299.88
299.887
299.904
299.93
299.962
300.003
300.055
300.127
300.227
300.371
300.573
300.852
301.225
301.681
301.926
294.576
293.2
293.151
293.15
293.15
293.15
293.15
293.15
293.15
293.15
293.15
293.15
293.15
293.15
293.15
293.15
293.15
293.15
293.15
293.15
293.15
293.15
293.15
293.15
293.15
293.15
293.15
293.15
293.15
293.15
293.15
293.15
293.15
293.15
293.15
293.15
293.15
293.15
293.15
293.15
293.15
293.15
293.15
293.15
293.15
293.15
293.15
293.15
293.15
293.15
293.15
293.15
293.15
293.15
293.15
293.15
293.15
293.15
293.15
323.15
323.15
323.15
323.15