/*--------------------------------*- C++ -*----------------------------------*\
| =========                 |                                                 |
| \\      /  F ield         | OpenFOAM: The Open Source CFD Toolbox           |
|  \\    /   O peration     | Version:  2406                                  |
|   \\  /    A nd           | Website:  www.openfoam.com                      |
|    \\/     M anipulation  |                                                 |
\*---------------------------------------------------------------------------*/
FoamFile
{
    version     2.0;
    format      ascii;
    arch        "LSB;label=32;scalar=64";
    class       volVectorField;
    location    "300";
    object      U;
}
// * * * * * * * * * * * * * * * * * * * * * * * * * * * * * * * * * * * * * //

dimensions      [0 1 -1 0 0 0 0];

internalField   nonuniform List<vector> 
5619
(
(1.86196 -0.000293092 0)
(1.89782 -0.000515807 0)
(1.93357 -0.000593887 0)
(1.97429 -0.000691486 0)
(2.01936 -0.000811191 0)
(2.07003 -0.000959891 0)
(2.12716 -0.0011415 0)
(2.19176 -0.00135998 0)
(2.26478 -0.00161893 0)
(2.34722 -0.00192124 0)
(2.44 -0.00226808 0)
(2.5439 -0.00265666 0)
(2.65945 -0.00307815 0)
(2.78666 -0.00351517 0)
(2.92476 -0.00394036 0)
(3.07198 -0.00431718 0)
(3.22535 -0.00460264 0)
(3.38077 -0.00475326 0)
(3.53317 -0.00473278 0)
(3.67704 -0.00452148 0)
(3.80714 -0.00412439 0)
(3.91925 -0.00357551 0)
(4.01092 -0.00293486 0)
(4.08181 -0.00227633 0)
(4.13361 -0.00167252 0)
(4.16961 -0.00118351 0)
(4.194 -0.000848028 0)
(4.21124 -0.000678402 0)
(4.22535 -0.000662138 0)
(4.23949 -0.000768016 0)
(4.25572 -0.000955754 0)
(4.27507 -0.00118703 0)
(4.2978 -0.00143364 0)
(4.32372 -0.00168046 0)
(4.35245 -0.00192282 0)
(4.38364 -0.00216224 0)
(4.41699 -0.00240296 0)
(4.45229 -0.00264984 0)
(4.4894 -0.00290704 0)
(4.52825 -0.00317747 0)
(4.56878 -0.00346268 0)
(4.61096 -0.0037629 0)
(4.65472 -0.00407711 0)
(4.70001 -0.00440302 0)
(4.74673 -0.00473705 0)
(4.79476 -0.00507431 0)
(4.84392 -0.00540845 0)
(4.89401 -0.00573183 0)
(4.94478 -0.00603549 0)
(4.99594 -0.0063092 0)
(5.04715 -0.00654184 0)
(5.09803 -0.0067216 0)
(5.14819 -0.00683616 0)
(5.19717 -0.0068732 0)
(5.24454 -0.00682079 0)
(5.28983 -0.00666783 0)
(5.33259 -0.00640474 0)
(5.37236 -0.00602397 0)
(5.40871 -0.00552036 0)
(5.44127 -0.00489167 0)
(5.46966 -0.00413892 0)
(5.49359 -0.00326671 0)
(5.51283 -0.00228335 0)
(5.52718 -0.0012005 0)
(5.53655 -3.2461e-05 0)
(5.54089 0.00120635 0)
(5.54026 0.00250757 0)
(5.53471 0.00387504 0)
(5.52431 0.00531908 0)
(5.50909 0.00684022 0)
(5.4891 0.00841907 0)
(5.46449 0.0100348 0)
(5.43542 0.0116743 0)
(5.40212 0.0133272 0)
(5.36482 0.0149865 0)
(5.32374 0.0166481 0)
(5.27911 0.0183121 0)
(5.23115 0.0199835 0)
(5.18004 0.0216727 0)
(5.12594 0.0233964 0)
(5.06893 0.025178 0)
(5.00905 0.0270481 0)
(4.94626 0.0290433 0)
(4.88044 0.031206 0)
(4.81138 0.0335827 0)
(4.73878 0.0362225 0)
(4.66226 0.0391749 0)
(4.58133 0.0424883 0)
(4.49545 0.0462061 0)
(4.40397 0.0503643 0)
(4.30621 0.0549873 0)
(4.20146 0.0600844 0)
(4.08896 0.0656457 0)
(3.96798 0.0716387 0)
(3.83787 0.078005 0)
(3.69802 0.0846618 0)
(3.54789 0.0915216 0)
(3.38738 0.0985135 0)
(3.217 0.105596 0)
(3.03362 0.11312 0)
(2.83121 0.121916 0)
(2.59398 0.13178 0)
(2.31985 0.141257 0)
(2.00896 0.14924 0)
(1.66514 0.154945 0)
(1.29561 0.157934 0)
(0.910444 0.158168 0)
(0.520894 0.156337 0)
(0.150995 0.155385 0)
(-0.231276 0.132756 0)
(-0.519012 0.0967244 0)
(-0.754811 0.070085 0)
(-0.930789 0.0486041 0)
(-1.04976 0.0302232 0)
(-1.11448 0.0139367 0)
(-1.12858 -0.000980457 0)
(-1.09398 -0.0145355 0)
(-1.01929 -0.026616 0)
(-0.910796 -0.0379805 0)
(-0.773472 -0.0492305 0)
(-0.61171 -0.0610946 0)
(-0.429281 -0.0748725 0)
(-0.232319 -0.0941481 0)
(-0.00147991 -0.115621 0)
(0.246456 -0.100736 0)
(0.392315 -0.0739822 0)
(0.517241 -0.056931 0)
(0.604805 -0.0422121 0)
(0.668284 -0.0301593 0)
(0.714449 -0.0203173 0)
(0.746354 -0.0125463 0)
(0.766939 -0.00669639 0)
(0.778897 -0.00261339 0)
(0.784751 -0.000120347 0)
(0.786813 0.000992951 0)
(0.787186 0.000989266 0)
(0.787701 0.000224591 0)
(0.789773 -0.000797498 0)
(0.794085 -0.00137628 0)
(0.800048 -0.000619156 0)
(0.805079 0.0023951 0)
(0.803862 0.00806913 0)
(0.78886 0.0154807 0)
(0.754036 0.0226049 0)
(0.697027 0.0270667 0)
(0.622999 0.026932 0)
(0.54521 0.0224119 0)
(0.479154 0.0156397 0)
(0.433759 0.00902868 0)
(0.409276 0.00412585 0)
(0.400946 0.000960273 0)
(0.404355 -0.000978023 0)
(0.415335 -0.00204227 0)
(0.431075 -0.00256697 0)
(0.449903 -0.00279349 0)
(0.470518 -0.00281139 0)
(0.491881 -0.00268931 0)
(0.513158 -0.00247751 0)
(0.533703 -0.00221451 0)
(0.55304 -0.0019307 0)
(0.570856 -0.00164861 0)
(0.58697 -0.00138293 0)
(0.601324 -0.00114288 0)
(0.613947 -0.000933302 0)
(0.624938 -0.000754839 0)
(0.634438 -0.000605999 0)
(0.642617 -0.000484611 0)
(0.649656 -0.000387558 0)
(0.655739 -0.000311057 0)
(0.661048 -0.000251597 0)
(0.665756 -0.000206154 0)
(0.670029 -0.00017191 0)
(0.674026 -0.000146287 0)
(0.677903 -0.00012709 0)
(0.681818 -0.000112473 0)
(0.685939 -0.000100884 0)
(0.690467 -9.09338e-05 0)
(0.695665 -8.08434e-05 0)
(0.701909 -6.67507e-05 0)
(0.709763 -3.81297e-05 0)
(0.720073 3.45921e-05 0)
(0.734068 0.000232087 0)
(0.753414 0.000768401 0)
(0.780197 0.00221528 0)
(0.816918 0.00618169 0)
(0.866429 0.0176118 0)
(0.926668 0.0544988 0)
(2.06538 -0.000771471 0)
(2.09434 -0.00144107 0)
(2.12355 -0.00166291 0)
(2.15815 -0.00195884 0)
(2.19762 -0.00230947 0)
(2.24324 -0.00273887 0)
(2.29591 -0.00325439 0)
(2.35663 -0.00386638 0)
(2.42635 -0.0045843 0)
(2.50603 -0.00541718 0)
(2.59656 -0.00637099 0)
(2.69873 -0.00744377 0)
(2.81309 -0.00861909 0)
(2.93975 -0.00985859 0)
(3.0781 -0.0110958 0)
(3.22654 -0.0122351 0)
(3.38229 -0.0131567 0)
(3.54131 -0.0137303 0)
(3.69849 -0.0138379 0)
(3.84813 -0.0134004 0)
(3.98459 -0.0124064 0)
(4.10312 -0.0109297 0)
(4.20071 -0.00912639 0)
(4.27647 -0.00720527 0)
(4.33172 -0.00538386 0)
(4.36949 -0.00385291 0)
(4.39397 -0.0027468 0)
(4.40975 -0.00212405 0)
(4.42113 -0.00196617 0)
(4.43158 -0.00219254 0)
(4.44348 -0.00268798 0)
(4.4581 -0.00333628 0)
(4.47589 -0.00404683 0)
(4.49675 -0.00476638 0)
(4.52034 -0.00547442 0)
(4.54631 -0.00617107 0)
(4.57434 -0.00686675 0)
(4.60422 -0.00757489 0)
(4.63581 -0.0083078 0)
(4.669 -0.00907457 0)
(4.70375 -0.00988068 0)
(4.74002 -0.0107281 0)
(4.77776 -0.0116153 0)
(4.8169 -0.0125378 0)
(4.85739 -0.0134879 0)
(4.89912 -0.0144547 0)
(4.94196 -0.0154239 0)
(4.98576 -0.0163782 0)
(5.03032 -0.017297 0)
(5.07543 -0.0181569 0)
(5.12083 -0.0189322 0)
(5.16625 -0.0195953 0)
(5.21138 -0.020117 0)
(5.25589 -0.0204676 0)
(5.29945 -0.0206172 0)
(5.34171 -0.0205368 0)
(5.38232 -0.0201988 0)
(5.42091 -0.0195784 0)
(5.45714 -0.0186535 0)
(5.49066 -0.0174065 0)
(5.52114 -0.0158244 0)
(5.54826 -0.0139002 0)
(5.57173 -0.0116339 0)
(5.59128 -0.00903236 0)
(5.60666 -0.00611032 0)
(5.61767 -0.00288789 0)
(5.62415 0.000614879 0)
(5.626 0.00436726 0)
(5.62325 0.00838009 0)
(5.61594 0.0126882 0)
(5.60401 0.0172615 0)
(5.58747 0.022044 0)
(5.5664 0.0269964 0)
(5.54088 0.0320851 0)
(5.51104 0.0372813 0)
(5.47701 0.0425616 0)
(5.43895 0.0479101 0)
(5.397 0.053321 0)
(5.35131 0.0588015 0)
(5.30203 0.0643744 0)
(5.24924 0.0700806 0)
(5.19303 0.0759804 0)
(5.13341 0.0821535 0)
(5.07033 0.0886978 0)
(5.0037 0.095727 0)
(4.93333 0.103367 0)
(4.85894 0.111751 0)
(4.78018 0.121013 0)
(4.69663 0.131278 0)
(4.60775 0.142657 0)
(4.51295 0.155233 0)
(4.41158 0.169052 0)
(4.30293 0.184111 0)
(4.18626 0.200342 0)
(4.06082 0.217605 0)
(3.92591 0.235678 0)
(3.78082 0.25426 0)
(3.62505 0.273007 0)
(3.45883 0.291549 0)
(3.28013 0.309723 0)
(3.08085 0.328267 0)
(2.84824 0.346941 0)
(2.58086 0.362937 0)
(2.27913 0.37374 0)
(1.9464 0.377438 0)
(1.58903 0.372892 0)
(1.21624 0.359848 0)
(0.839215 0.339045 0)
(0.473571 0.313597 0)
(0.129841 0.272914 0)
(-0.188266 0.213468 0)
(-0.443237 0.159778 0)
(-0.639795 0.112921 0)
(-0.780028 0.0706712 0)
(-0.86641 0.0314727 0)
(-0.902986 -0.00559388 0)
(-0.892824 -0.0394797 0)
(-0.842661 -0.0699039 0)
(-0.759522 -0.0983105 0)
(-0.649297 -0.125505 0)
(-0.518074 -0.15216 0)
(-0.372515 -0.179121 0)
(-0.219661 -0.20767 0)
(-0.0720951 -0.232621 0)
(0.080806 -0.221263 0)
(0.1923 -0.183457 0)
(0.284601 -0.149934 0)
(0.351422 -0.117881 0)
(0.402422 -0.0892014 0)
(0.441574 -0.0643968 0)
(0.47095 -0.0440204 0)
(0.492523 -0.0280874 0)
(0.508139 -0.0163902 0)
(0.519557 -0.0085932 0)
(0.528436 -0.00427381 0)
(0.536348 -0.00292924 0)
(0.54479 -0.00393592 0)
(0.555174 -0.00645683 0)
(0.568756 -0.00930132 0)
(0.586467 -0.0107807 0)
(0.608559 -0.00868751 0)
(0.633991 -0.000760761 0)
(0.659385 0.0138379 0)
(0.676546 0.0327551 0)
(0.675276 0.0501291 0)
(0.649544 0.058793 0)
(0.603755 0.0546379 0)
(0.554857 0.0405552 0)
(0.51888 0.0238632 0)
(0.500445 0.0102776 0)
(0.496797 0.00111312 0)
(0.504197 -0.00454469 0)
(0.518773 -0.00764832 0)
(0.538324 -0.00916193 0)
(0.560916 -0.00970893 0)
(0.585135 -0.00960604 0)
(0.609856 -0.0090769 0)
(0.634206 -0.0082845 0)
(0.657526 -0.0073525 0)
(0.679348 -0.00637491 0)
(0.699375 -0.00541942 0)
(0.717456 -0.00453046 0)
(0.733558 -0.00373461 0)
(0.747744 -0.00304409 0)
(0.760144 -0.00245974 0)
(0.770929 -0.00197601 0)
(0.780301 -0.00158425 0)
(0.78847 -0.00127336 0)
(0.795653 -0.00103128 0)
(0.802062 -0.000847017 0)
(0.807904 -0.00071112 0)
(0.813382 -0.000615446 0)
(0.818695 -0.000553357 0)
(0.824044 -0.000520113 0)
(0.829633 -0.00051299 0)
(0.835677 -0.000531539 0)
(0.842408 -0.000578192 0)
(0.850081 -0.000659189 0)
(0.858975 -0.000786359 0)
(0.869381 -0.000981217 0)
(0.88157 -0.00128434 0)
(0.895746 -0.00177786 0)
(0.91198 -0.0026413 0)
(0.930131 -0.00428737 0)
(0.949841 -0.00766981 0)
(0.970488 -0.0149682 0)
(0.988465 -0.0293062 0)
(2.13401 -0.00125717 0)
(2.15889 -0.00238802 0)
(2.18425 -0.00278337 0)
(2.21516 -0.00333388 0)
(2.25114 -0.00398347 0)
(2.29342 -0.00478136 0)
(2.34285 -0.00573908 0)
(2.40038 -0.00687554 0)
(2.46691 -0.00820766 0)
(2.5433 -0.00975224 0)
(2.63041 -0.0115214 0)
(2.72896 -0.0135146 0)
(2.83949 -0.0157063 0)
(2.96213 -0.0180321 0)
(3.09634 -0.0203755 0)
(3.24068 -0.0225638 0)
(3.39253 -0.0243749 0)
(3.54804 -0.025561 0)
(3.70224 -0.0258891 0)
(3.84945 -0.0251941 0)
(3.98401 -0.0234339 0)
(4.10104 -0.0207271 0)
(4.19732 -0.0173528 0)
(4.2718 -0.0136973 0)
(4.32562 -0.0101732 0)
(4.36172 -0.00714977 0)
(4.38422 -0.00489621 0)
(4.3977 -0.00354161 0)
(4.40647 -0.00306827 0)
(4.41402 -0.00333595 0)
(4.42275 -0.00413257 0)
(4.43396 -0.00523789 0)
(4.44809 -0.00647561 0)
(4.46505 -0.00773809 0)
(4.48453 -0.00898018 0)
(4.50618 -0.010198 0)
(4.52968 -0.0114089 0)
(4.55482 -0.0126372 0)
(4.58146 -0.0139061 0)
(4.6095 -0.0152331 0)
(4.6389 -0.0166295 0)
(4.66961 -0.0181 0)
(4.70161 -0.0196436 0)
(4.73484 -0.021254 0)
(4.76926 -0.0229195 0)
(4.80479 -0.0246234 0)
(4.84133 -0.0263436 0)
(4.87876 -0.0280527 0)
(4.91694 -0.0297185 0)
(4.95569 -0.0313038 0)
(4.99484 -0.0327678 0)
(5.03415 -0.0340661 0)
(5.07339 -0.035152 0)
(5.11233 -0.0359768 0)
(5.15068 -0.0364912 0)
(5.18819 -0.0366458 0)
(5.22458 -0.0363925 0)
(5.25957 -0.0356849 0)
(5.29287 -0.0344794 0)
(5.32422 -0.0327363 0)
(5.35333 -0.0304207 0)
(5.37994 -0.027504 0)
(5.40379 -0.0239655 0)
(5.42463 -0.0197933 0)
(5.44224 -0.0149862 0)
(5.45639 -0.00955533 0)
(5.46689 -0.00352625 0)
(5.47362 0.00304754 0)
(5.47634 0.0101172 0)
(5.47512 0.0177421 0)
(5.46989 0.0259353 0)
(5.46061 0.0346188 0)
(5.44724 0.0437343 0)
(5.42978 0.0532309 0)
(5.40824 0.063062 0)
(5.38266 0.0731859 0)
(5.35307 0.0835695 0)
(5.31952 0.0941922 0)
(5.28206 0.105052 0)
(5.24076 0.11617 0)
(5.19565 0.127594 0)
(5.14676 0.139405 0)
(5.09408 0.151717 0)
(5.03757 0.164675 0)
(4.97716 0.178458 0)
(4.91269 0.193269 0)
(4.84397 0.209332 0)
(4.77071 0.226881 0)
(4.69258 0.246146 0)
(4.60916 0.26734 0)
(4.51993 0.290643 0)
(4.42435 0.316182 0)
(4.32177 0.344008 0)
(4.21152 0.374077 0)
(4.09289 0.406229 0)
(3.96516 0.440164 0)
(3.82761 0.475435 0)
(3.67962 0.511444 0)
(3.5212 0.547463 0)
(3.35096 0.582659 0)
(3.16021 0.616978 0)
(2.93821 0.64935 0)
(2.68371 0.675732 0)
(2.3975 0.692291 0)
(2.0828 0.695903 0)
(1.74552 0.684531 0)
(1.39421 0.657481 0)
(1.03959 0.615538 0)
(0.695198 0.561049 0)
(0.37342 0.492644 0)
(0.0796128 0.408573 0)
(-0.181106 0.315824 0)
(-0.384343 0.23013 0)
(-0.534464 0.152341 0)
(-0.633494 0.0800496 0)
(-0.684815 0.0121508 0)
(-0.69307 -0.0505182 0)
(-0.662893 -0.107206 0)
(-0.602455 -0.15935 0)
(-0.518366 -0.207773 0)
(-0.417849 -0.252756 0)
(-0.308808 -0.294051 0)
(-0.199285 -0.329517 0)
(-0.101982 -0.35126 0)
(-0.0174456 -0.336794 0)
(0.0554316 -0.289993 0)
(0.115288 -0.238378 0)
(0.160781 -0.189826 0)
(0.197807 -0.146856 0)
(0.228216 -0.109655 0)
(0.253181 -0.0790951 0)
(0.273749 -0.0552479 0)
(0.290967 -0.0378235 0)
(0.305917 -0.0263418 0)
(0.319691 -0.0202089 0)
(0.333392 -0.0187392 0)
(0.348142 -0.0211183 0)
(0.365084 -0.0263039 0)
(0.385377 -0.0328648 0)
(0.410158 -0.0387908 0)
(0.440452 -0.0413485 0)
(0.476889 -0.0371427 0)
(0.518997 -0.0226177 0)
(0.564023 0.00426183 0)
(0.604299 0.0396204 0)
(0.625526 0.06977 0)
(0.621014 0.0794325 0)
(0.599424 0.0647427 0)
(0.579568 0.0386858 0)
(0.571409 0.0151852 0)
(0.574692 -0.00118265 0)
(0.586466 -0.01133 0)
(0.604221 -0.0169079 0)
(0.626159 -0.0196041 0)
(0.650559 -0.020403 0)
(0.676112 -0.0199472 0)
(0.701774 -0.0186838 0)
(0.726748 -0.0169405 0)
(0.750453 -0.014962 0)
(0.772492 -0.0129291 0)
(0.79263 -0.0109688 0)
(0.810766 -0.00916363 0)
(0.82691 -0.00755983 0)
(0.841152 -0.00617614 0)
(0.85364 -0.00501154 0)
(0.86456 -0.00405302 0)
(0.874116 -0.00328064 0)
(0.882523 -0.0026706 0)
(0.889992 -0.0021985 0)
(0.89673 -0.00184185 0)
(0.90293 -0.00158074 0)
(0.908779 -0.00139765 0)
(0.914444 -0.00127769 0)
(0.920082 -0.00120861 0)
(0.925828 -0.00118043 0)
(0.931792 -0.00118503 0)
(0.938053 -0.00121571 0)
(0.94465 -0.00126636 0)
(0.951566 -0.00132985 0)
(0.958724 -0.00139482 0)
(0.965977 -0.00143894 0)
(0.973127 -0.00141503 0)
(0.979947 -0.00122703 0)
(0.98621 -0.000697257 0)
(0.991732 0.000445059 0)
(0.996401 0.00209037 0)
(0.998422 0.000152399 0)
(2.16212 -0.00184027 0)
(2.18455 -0.00352938 0)
(2.20757 -0.00415306 0)
(2.23613 -0.00504383 0)
(2.26975 -0.00609016 0)
(2.30962 -0.00737433 0)
(2.35652 -0.00891218 0)
(2.41134 -0.0107332 0)
(2.47491 -0.0128631 0)
(2.54804 -0.0153277 0)
(2.63149 -0.0181464 0)
(2.72594 -0.0213198 0)
(2.83186 -0.0248111 0)
(2.94937 -0.028523 0)
(3.07793 -0.0322765 0)
(3.21617 -0.0358012 0)
(3.36156 -0.0387439 0)
(3.51037 -0.0407047 0)
(3.65774 -0.0413007 0)
(3.79812 -0.0402524 0)
(3.9259 -0.0374756 0)
(4.0363 -0.0331472 0)
(4.12619 -0.027708 0)
(4.19463 -0.0217798 0)
(4.24286 -0.0160329 0)
(4.27391 -0.0110708 0)
(4.29195 -0.00733613 0)
(4.30152 -0.00504452 0)
(4.30681 -0.00417156 0)
(4.31115 -0.00449138 0)
(4.31673 -0.0056608 0)
(4.32468 -0.00732415 0)
(4.33531 -0.00919724 0)
(4.34848 -0.0111055 0)
(4.36387 -0.0129743 0)
(4.3811 -0.0147958 0)
(4.39989 -0.0165968 0)
(4.42003 -0.0184159 0)
(4.44138 -0.02029 0)
(4.46388 -0.0222475 0)
(4.48748 -0.024307 0)
(4.51215 -0.0264769 0)
(4.53788 -0.0287573 0)
(4.56465 -0.0311403 0)
(4.59241 -0.0336104 0)
(4.62111 -0.0361448 0)
(4.65068 -0.0387135 0)
(4.68103 -0.0412789 0)
(4.71205 -0.0437968 0)
(4.74361 -0.0462164 0)
(4.77556 -0.0484814 0)
(4.80773 -0.0505313 0)
(4.83992 -0.0523016 0)
(4.87196 -0.0537254 0)
(4.90362 -0.0547347 0)
(4.93471 -0.0552612 0)
(4.96499 -0.0552369 0)
(4.99425 -0.0545958 0)
(5.02229 -0.0532742 0)
(5.04889 -0.0512118 0)
(5.07384 -0.0483534 0)
(5.09695 -0.0446498 0)
(5.11803 -0.0400597 0)
(5.1369 -0.034551 0)
(5.15337 -0.0281023 0)
(5.16729 -0.0207044 0)
(5.17848 -0.0123599 0)
(5.18679 -0.00308464 0)
(5.19211 0.00705243 0)
(5.19417 0.0180471 0)
(5.19307 0.0299311 0)
(5.18871 0.0426554 0)
(5.18103 0.0561695 0)
(5.16996 0.0704278 0)
(5.15544 0.0853843 0)
(5.13742 0.100995 0)
(5.11582 0.117221 0)
(5.0906 0.134037 0)
(5.0617 0.151435 0)
(5.02908 0.169436 0)
(4.99267 0.188092 0)
(4.95243 0.207495 0)
(4.90827 0.227783 0)
(4.8601 0.249139 0)
(4.80781 0.27179 0)
(4.75124 0.296007 0)
(4.69021 0.322096 0)
(4.62446 0.350384 0)
(4.55371 0.381206 0)
(4.4776 0.414888 0)
(4.39572 0.451717 0)
(4.3076 0.491918 0)
(4.2127 0.535619 0)
(4.11045 0.582817 0)
(4.00025 0.633344 0)
(3.88148 0.686821 0)
(3.75354 0.742627 0)
(3.61589 0.799866 0)
(3.46856 0.857349 0)
(3.31061 0.913528 0)
(3.1335 0.967859 0)
(2.92762 1.01791 0)
(2.69185 1.05787 0)
(2.42721 1.0824 0)
(2.13698 1.08711 0)
(1.82682 1.06901 0)
(1.50464 1.02692 0)
(1.18027 0.961617 0)
(0.865082 0.875598 0)
(0.569934 0.770746 0)
(0.301916 0.649754 0)
(0.0650127 0.518589 0)
(-0.135691 0.384822 0)
(-0.286841 0.262205 0)
(-0.392774 0.149051 0)
(-0.455681 0.0435788 0)
(-0.480536 -0.0537491 0)
(-0.470527 -0.140958 0)
(-0.434357 -0.219006 0)
(-0.378868 -0.288569 0)
(-0.311584 -0.349086 0)
(-0.240449 -0.398547 0)
(-0.173244 -0.432109 0)
(-0.118022 -0.441696 0)
(-0.0755846 -0.418039 0)
(-0.0401016 -0.368273 0)
(-0.00921373 -0.309431 0)
(0.0160257 -0.252615 0)
(0.038447 -0.201696 0)
(0.0585089 -0.156978 0)
(0.0767262 -0.119729 0)
(0.0934981 -0.0903561 0)
(0.109299 -0.0687923 0)
(0.124732 -0.054681 0)
(0.140482 -0.0474703 0)
(0.157309 -0.0464508 0)
(0.176034 -0.0507352 0)
(0.197543 -0.0591659 0)
(0.222782 -0.0701551 0)
(0.252761 -0.0814901 0)
(0.288562 -0.0901332 0)
(0.331285 -0.0921089 0)
(0.38177 -0.0827457 0)
(0.439936 -0.0575645 0)
(0.503433 -0.0148443 0)
(0.5649 0.0372135 0)
(0.607284 0.0723965 0)
(0.623244 0.0703208 0)
(0.626641 0.0423883 0)
(0.633161 0.0125082 0)
(0.646101 -0.00923064 0)
(0.663135 -0.0227788 0)
(0.684157 -0.0303652 0)
(0.70778 -0.0338596 0)
(0.732861 -0.0345335 0)
(0.758369 -0.0333327 0)
(0.783469 -0.030942 0)
(0.807524 -0.0278717 0)
(0.830077 -0.0245001 0)
(0.850832 -0.0211012 0)
(0.869628 -0.0178643 0)
(0.886418 -0.0149085 0)
(0.901242 -0.0122974 0)
(0.914204 -0.0100529 0)
(0.925453 -0.0081685 0)
(0.935163 -0.00661912 0)
(0.943518 -0.00536928 0)
(0.950703 -0.00437891 0)
(0.956899 -0.00360823 0)
(0.962269 -0.00302043 0)
(0.966967 -0.00258259 0)
(0.971124 -0.002266 0)
(0.974857 -0.00204634 0)
(0.978262 -0.00190354 0)
(0.981414 -0.00182138 0)
(0.984367 -0.00178723 0)
(0.987156 -0.00179208 0)
(0.989795 -0.00183071 0)
(0.992281 -0.00190224 0)
(0.994595 -0.00201169 0)
(0.996706 -0.0021718 0)
(0.998573 -0.00240425 0)
(1.00014 -0.00273808 0)
(1.00135 -0.00319337 0)
(1.00217 -0.00368673 0)
(1.00262 -0.00388209 0)
(1.00123 -0.00420175 0)
(2.17155 -0.00252436 0)
(2.19203 -0.00487095 0)
(2.21317 -0.00578347 0)
(2.23973 -0.00710303 0)
(2.27123 -0.00864811 0)
(2.30879 -0.0105413 0)
(2.35312 -0.012803 0)
(2.40504 -0.0154753 0)
(2.4653 -0.0185937 0)
(2.53463 -0.0221949 0)
(2.61371 -0.0263062 0)
(2.70314 -0.0309293 0)
(2.80331 -0.0360126 0)
(2.91425 -0.0414179 0)
(3.03542 -0.0468878 0)
(3.1654 -0.0520295 0)
(3.30169 -0.0563248 0)
(3.44061 -0.0591808 0)
(3.5774 -0.0600242 0)
(3.70664 -0.0584315 0)
(3.82291 -0.0542707 0)
(3.92169 -0.0478021 0)
(4.00017 -0.0396866 0)
(4.05781 -0.0308576 0)
(4.09623 -0.0223189 0)
(4.11875 -0.0149673 0)
(4.12964 -0.00945093 0)
(4.13341 -0.00607373 0)
(4.13402 -0.00477749 0)
(4.13445 -0.00520549 0)
(4.13646 -0.00683658 0)
(4.14083 -0.00914625 0)
(4.14764 -0.0117257 0)
(4.15664 -0.0143283 0)
(4.16743 -0.0168514 0)
(4.17967 -0.0192876 0)
(4.19308 -0.0216784 0)
(4.20746 -0.0240816 0)
(4.22273 -0.0265515 0)
(4.23882 -0.0291306 0)
(4.25571 -0.0318464 0)
(4.27341 -0.0347127 0)
(4.29191 -0.0377309 0)
(4.31119 -0.0408919 0)
(4.33125 -0.0441767 0)
(4.35206 -0.0475564 0)
(4.37355 -0.0509926 0)
(4.39567 -0.0544369 0)
(4.41834 -0.0578323 0)
(4.44144 -0.0611136 0)
(4.46485 -0.0642082 0)
(4.48844 -0.0670382 0)
(4.51205 -0.0695209 0)
(4.53553 -0.0715712 0)
(4.55871 -0.0731025 0)
(4.58142 -0.0740284 0)
(4.60348 -0.0742635 0)
(4.62475 -0.0737246 0)
(4.64506 -0.0723317 0)
(4.66426 -0.070009 0)
(4.68223 -0.0666853 0)
(4.69883 -0.0622954 0)
(4.71395 -0.0567811 0)
(4.72749 -0.0500915 0)
(4.73935 -0.042185 0)
(4.74942 -0.0330295 0)
(4.75763 -0.0226048 0)
(4.76385 -0.0108994 0)
(4.76806 0.00208934 0)
(4.76997 0.0163148 0)
(4.76968 0.0317362 0)
(4.7671 0.0483509 0)
(4.76218 0.0661559 0)
(4.75484 0.0851446 0)
(4.74496 0.105305 0)
(4.73245 0.126621 0)
(4.71717 0.149079 0)
(4.699 0.172675 0)
(4.6778 0.19742 0)
(4.65343 0.223352 0)
(4.62574 0.250542 0)
(4.59459 0.279101 0)
(4.5598 0.309191 0)
(4.52121 0.341024 0)
(4.47864 0.374868 0)
(4.43188 0.411044 0)
(4.38072 0.449919 0)
(4.32491 0.491893 0)
(4.26416 0.537386 0)
(4.19816 0.586812 0)
(4.12655 0.640549 0)
(4.04894 0.698899 0)
(3.9649 0.76205 0)
(3.87397 0.830019 0)
(3.77567 0.902595 0)
(3.66953 0.97928 0)
(3.55508 1.05922 0)
(3.43196 1.14112 0)
(3.30025 1.22324 0)
(3.15934 1.3032 0)
(3.0015 1.38006 0)
(2.8183 1.44986 0)
(2.60878 1.50445 0)
(2.37403 1.53664 0)
(2.11722 1.54063 0)
(1.84359 1.5126 0)
(1.56023 1.45113 0)
(1.27567 1.3574 0)
(0.999213 1.23504 0)
(0.73963 1.08905 0)
(0.503544 0.925652 0)
(0.295083 0.75245 0)
(0.116549 0.577019 0)
(-0.0296322 0.405591 0)
(-0.138733 0.246662 0)
(-0.212552 0.100142 0)
(-0.255209 -0.0347899 0)
(-0.268702 -0.154347 0)
(-0.260993 -0.258567 0)
(-0.23883 -0.347444 0)
(-0.208975 -0.419184 0)
(-0.178133 -0.470402 0)
(-0.151843 -0.496202 0)
(-0.13329 -0.492483 0)
(-0.121098 -0.459828 0)
(-0.11131 -0.407215 0)
(-0.101956 -0.347086 0)
(-0.0932509 -0.289368 0)
(-0.0837772 -0.237664 0)
(-0.0738915 -0.192123 0)
(-0.0633547 -0.154176 0)
(-0.0519969 -0.124515 0)
(-0.039592 -0.103337 0)
(-0.0257912 -0.0904788 0)
(-0.010147 -0.085505 0)
(0.00787141 -0.0877498 0)
(0.0288561 -0.0963308 0)
(0.0534367 -0.110047 0)
(0.0823732 -0.12727 0)
(0.116501 -0.145794 0)
(0.156788 -0.162599 0)
(0.204321 -0.173545 0)
(0.260188 -0.173314 0)
(0.325217 -0.155982 0)
(0.399351 -0.116683 0)
(0.480125 -0.0563035 0)
(0.558936 0.00866704 0)
(0.618046 0.040988 0)
(0.65154 0.0261383 0)
(0.67571 -0.00391624 0)
(0.699659 -0.0271545 0)
(0.723945 -0.0416779 0)
(0.748779 -0.0497115 0)
(0.77384 -0.0528562 0)
(0.798681 -0.0525221 0)
(0.8228 -0.0498501 0)
(0.845757 -0.0457186 0)
(0.86721 -0.0408002 0)
(0.88692 -0.0355952 0)
(0.904754 -0.0304631 0)
(0.920665 -0.0256461 0)
(0.934682 -0.0212917 0)
(0.946885 -0.0174722 0)
(0.957395 -0.0142051 0)
(0.966358 -0.0114707 0)
(0.97393 -0.00922533 0)
(0.980272 -0.00741263 0)
(0.98554 -0.00597231 0)
(0.989884 -0.0048458 0)
(0.993441 -0.00397897 0)
(0.996336 -0.00332362 0)
(0.998682 -0.00283817 0)
(1.00058 -0.00248739 0)
(1.0021 -0.00224188 0)
(1.00333 -0.0020775 0)
(1.00432 -0.00197494 0)
(1.00511 -0.00191897 0)
(1.00574 -0.0018978 0)
(1.00621 -0.00190244 0)
(1.00653 -0.00192634 0)
(1.00671 -0.00196465 0)
(1.00671 -0.00201312 0)
(1.00651 -0.00206973 0)
(1.00604 -0.00214324 0)
(1.0053 -0.0022468 0)
(1.00433 -0.00245353 0)
(1.0019 -0.00352987 0)
(2.16853 -0.00331921 0)
(2.18701 -0.00642073 0)
(2.20618 -0.00768723 0)
(2.23056 -0.00952602 0)
(2.25965 -0.0116737 0)
(2.29448 -0.0142989 0)
(2.33568 -0.0174269 0)
(2.38398 -0.0211134 0)
(2.44004 -0.0254052 0)
(2.50449 -0.0303502 0)
(2.57792 -0.0359842 0)
(2.66082 -0.0423079 0)
(2.75347 -0.0492491 0)
(2.85583 -0.0566171 0)
(2.96724 -0.0640564 0)
(3.08622 -0.0710224 0)
(3.21027 -0.076793 0)
(3.33571 -0.0805386 0)
(3.45789 -0.0814554 0)
(3.57155 -0.0789538 0)
(3.67159 -0.0728626 0)
(3.75391 -0.0635764 0)
(3.81629 -0.0520614 0)
(3.85881 -0.0396625 0)
(3.88369 -0.0278016 0)
(3.89466 -0.0177209 0)
(3.89617 -0.0102854 0)
(3.89259 -0.00585613 0)
(3.88755 -0.00427809 0)
(3.88348 -0.004986 0)
(3.88154 -0.00721996 0)
(3.88197 -0.0102604 0)
(3.88456 -0.0135721 0)
(3.88889 -0.0168472 0)
(3.89454 -0.019968 0)
(3.90115 -0.0229388 0)
(3.90848 -0.0258249 0)
(3.91637 -0.0287097 0)
(3.92477 -0.0316699 0)
(3.93364 -0.0347644 0)
(3.943 -0.0380313 0)
(3.95286 -0.0414902 0)
(3.96325 -0.0451444 0)
(3.97418 -0.0489834 0)
(3.98565 -0.0529836 0)
(3.99766 -0.0571088 0)
(4.01017 -0.0613107 0)
(4.02313 -0.0655285 0)
(4.03649 -0.0696904 0)
(4.05015 -0.0737145 0)
(4.06402 -0.0775102 0)
(4.07798 -0.0809806 0)
(4.0919 -0.0840242 0)
(4.10565 -0.0865374 0)
(4.11909 -0.0884163 0)
(4.13209 -0.0895591 0)
(4.14452 -0.0898671 0)
(4.15624 -0.0892468 0)
(4.16715 -0.08761 0)
(4.17714 -0.0848752 0)
(4.18613 -0.0809676 0)
(4.19407 -0.0758193 0)
(4.20088 -0.0693686 0)
(4.20654 -0.0615603 0)
(4.21102 -0.0523446 0)
(4.2143 -0.0416774 0)
(4.21637 -0.0295203 0)
(4.21724 -0.015834 0)
(4.21687 -0.000564786 0)
(4.21527 0.016227 0)
(4.21244 0.0344644 0)
(4.20835 0.0541907 0)
(4.20296 0.0754666 0)
(4.1962 0.0983497 0)
(4.18797 0.122893 0)
(4.17817 0.149144 0)
(4.16666 0.177155 0)
(4.15328 0.206982 0)
(4.13788 0.238697 0)
(4.12026 0.272393 0)
(4.10022 0.308194 0)
(4.07755 0.346261 0)
(4.05202 0.3868 0)
(4.0234 0.430069 0)
(3.99144 0.476378 0)
(3.9559 0.526093 0)
(3.9165 0.579628 0)
(3.87296 0.637434 0)
(3.82501 0.699985 0)
(3.77232 0.767744 0)
(3.71458 0.841138 0)
(3.65144 0.920502 0)
(3.58254 1.00603 0)
(3.50753 1.0977 0)
(3.42604 1.19522 0)
(3.33773 1.2979 0)
(3.24229 1.40459 0)
(3.13947 1.51357 0)
(3.02939 1.62246 0)
(2.9117 1.72808 0)
(2.77992 1.8292 0)
(2.62706 1.92028 0)
(2.45235 1.99044 0)
(2.25684 2.03027 0)
(2.04334 2.03249 0)
(1.81631 1.99254 0)
(1.5816 1.90912 0)
(1.34595 1.78434 0)
(1.11639 1.62348 0)
(0.899432 1.43425 0)
(0.700226 1.22598 0)
(0.52215 1.00849 0)
(0.36691 0.790719 0)
(0.234818 0.579825 0)
(0.126303 0.380075 0)
(0.0413579 0.193612 0)
(-0.0217759 0.0214356 0)
(-0.0660705 -0.129101 0)
(-0.0930199 -0.256131 0)
(-0.109139 -0.359365 0)
(-0.119496 -0.436761 0)
(-0.128542 -0.485676 0)
(-0.138713 -0.504242 0)
(-0.150093 -0.493473 0)
(-0.160926 -0.458605 0)
(-0.169298 -0.40844 0)
(-0.17455 -0.352636 0)
(-0.177291 -0.299505 0)
(-0.177129 -0.25242 0)
(-0.174949 -0.211558 0)
(-0.170521 -0.178336 0)
(-0.163694 -0.153598 0)
(-0.154302 -0.137737 0)
(-0.142084 -0.130771 0)
(-0.126685 -0.132389 0)
(-0.107675 -0.141975 0)
(-0.0845549 -0.158602 0)
(-0.0567799 -0.180999 0)
(-0.0237716 -0.207487 0)
(0.0151095 -0.2359 0)
(0.0605422 -0.263213 0)
(0.113125 -0.285067 0)
(0.173711 -0.29594 0)
(0.242847 -0.289194 0)
(0.320774 -0.25822 0)
(0.406765 -0.199738 0)
(0.497305 -0.122005 0)
(0.581946 -0.0550019 0)
(0.645871 -0.0333194 0)
(0.690124 -0.046127 0)
(0.727247 -0.0622978 0)
(0.760544 -0.0725037 0)
(0.790259 -0.0770839 0)
(0.81725 -0.0772092 0)
(0.841888 -0.0740467 0)
(0.864379 -0.0686661 0)
(0.884838 -0.0619563 0)
(0.903334 -0.0546274 0)
(0.919933 -0.0472176 0)
(0.934708 -0.0401113 0)
(0.947747 -0.0335613 0)
(0.959149 -0.0277118 0)
(0.969027 -0.0226229 0)
(0.977497 -0.0182932 0)
(0.984683 -0.0146805 0)
(0.99071 -0.0117178 0)
(0.995701 -0.0093258 0)
(0.999777 -0.00742319 0)
(1.00305 -0.00593222 0)
(1.00564 -0.0047815 0)
(1.00764 -0.00390786 0)
(1.00913 -0.00325708 0)
(1.01022 -0.00278319 0)
(1.01096 -0.00244763 0)
(1.01142 -0.00221897 0)
(1.01165 -0.00207233 0)
(1.01168 -0.00198841 0)
(1.01156 -0.00195279 0)
(1.01129 -0.00195568 0)
(1.01089 -0.00199167 0)
(1.01035 -0.00205864 0)
(1.00966 -0.00215497 0)
(1.00878 -0.00227561 0)
(1.00768 -0.00240707 0)
(1.00634 -0.00249733 0)
(1.00478 -0.00253731 0)
(1.00202 -0.00326469 0)
(2.15509 -0.00420636 0)
(2.17118 -0.0081343 0)
(2.18796 -0.00981903 0)
(2.2096 -0.0122604 0)
(2.23559 -0.0151058 0)
(2.26685 -0.0185737 0)
(2.30392 -0.0226935 0)
(2.34741 -0.0275356 0)
(2.39787 -0.0331581 0)
(2.45582 -0.0396207 0)
(2.52175 -0.046966 0)
(2.59601 -0.0551896 0)
(2.67879 -0.0641904 0)
(2.7699 -0.0737096 0)
(2.86859 -0.0832696 0)
(2.97332 -0.09214 0)
(3.08153 -0.0993528 0)
(3.18963 -0.103797 0)
(3.29311 -0.104404 0)
(3.38699 -0.100407 0)
(3.46659 -0.0916312 0)
(3.52841 -0.0786861 0)
(3.57099 -0.0629645 0)
(3.59522 -0.0463456 0)
(3.60402 -0.0307566 0)
(3.60157 -0.0178171 0)
(3.59242 -0.00858191 0)
(3.58074 -0.00339422 0)
(3.56972 -0.00190132 0)
(3.56113 -0.0032028 0)
(3.5552 -0.00621426 0)
(3.55161 -0.0100325 0)
(3.54981 -0.0140256 0)
(3.54927 -0.0178476 0)
(3.54952 -0.0213913 0)
(3.55023 -0.0246928 0)
(3.55119 -0.0278541 0)
(3.55231 -0.0309926 0)
(3.55356 -0.0342118 0)
(3.55497 -0.0375897 0)
(3.55656 -0.0411766 0)
(3.55841 -0.0449983 0)
(3.56055 -0.0490598 0)
(3.56304 -0.0533481 0)
(3.5659 -0.0578341 0)
(3.56914 -0.0624726 0)
(3.57277 -0.0672029 0)
(3.57677 -0.0719492 0)
(3.58108 -0.0766223 0)
(3.58566 -0.0811207 0)
(3.59043 -0.0853332 0)
(3.5953 -0.0891415 0)
(3.60017 -0.0924232 0)
(3.60493 -0.0950553 0)
(3.60946 -0.0969165 0)
(3.61365 -0.0978906 0)
(3.6174 -0.0978685 0)
(3.62061 -0.0967504 0)
(3.62317 -0.0944464 0)
(3.62502 -0.0908779 0)
(3.6261 -0.0859769 0)
(3.62637 -0.0796861 0)
(3.6258 -0.0719572 0)
(3.6244 -0.0627505 0)
(3.62217 -0.052033 0)
(3.61915 -0.0397775 0)
(3.61538 -0.0259611 0)
(3.61096 -0.0105625 0)
(3.60584 0.00642145 0)
(3.60031 0.0249495 0)
(3.59425 0.0450491 0)
(3.58768 0.0668214 0)
(3.5806 0.0903765 0)
(3.57295 0.115832 0)
(3.5647 0.14331 0)
(3.55576 0.172944 0)
(3.54604 0.204874 0)
(3.53543 0.239258 0)
(3.52377 0.276271 0)
(3.5109 0.31611 0)
(3.49662 0.359002 0)
(3.48072 0.405206 0)
(3.46296 0.455022 0)
(3.4431 0.50879 0)
(3.42087 0.566898 0)
(3.39601 0.629775 0)
(3.36822 0.697892 0)
(3.33723 0.771742 0)
(3.30273 0.851831 0)
(3.26444 0.938641 0)
(3.22206 1.03259 0)
(3.1753 1.134 0)
(3.12386 1.243 0)
(3.06747 1.35947 0)
(3.00587 1.48293 0)
(2.93883 1.61245 0)
(2.86616 1.74654 0)
(2.78772 1.88298 0)
(2.70367 2.01875 0)
(2.61381 2.14986 0)
(2.51334 2.27489 0)
(2.39687 2.38677 0)
(2.26394 2.47187 0)
(2.11539 2.51859 0)
(1.95337 2.51829 0)
(1.7811 2.46611 0)
(1.60258 2.36135 0)
(1.42218 2.20747 0)
(1.24425 2.01161 0)
(1.07279 1.78379 0)
(0.911121 1.53574 0)
(0.761627 1.27941 0)
(0.625633 1.02524 0)
(0.503441 0.780865 0)
(0.394684 0.551133 0)
(0.298442 0.338456 0)
(0.213396 0.144371 0)
(0.137765 -0.0288807 0)
(0.0723994 -0.175533 0)
(0.0164302 -0.290842 0)
(-0.0327979 -0.372841 0)
(-0.0767555 -0.421768 0)
(-0.116169 -0.440055 0)
(-0.150624 -0.431995 0)
(-0.179277 -0.404056 0)
(-0.201622 -0.363986 0)
(-0.21791 -0.319619 0)
(-0.229197 -0.277965 0)
(-0.235749 -0.242361 0)
(-0.238845 -0.213201 0)
(-0.238208 -0.191784 0)
(-0.23365 -0.178965 0)
(-0.225007 -0.175206 0)
(-0.212046 -0.1806 0)
(-0.194474 -0.194879 0)
(-0.171955 -0.217423 0)
(-0.144121 -0.247237 0)
(-0.110602 -0.282925 0)
(-0.0710388 -0.322627 0)
(-0.0251082 -0.363941 0)
(0.027518 -0.403736 0)
(0.0867002 -0.437273 0)
(0.152345 -0.458587 0)
(0.224469 -0.460838 0)