/*--------------------------------*- C++ -*----------------------------------*\
| =========                 |                                                 |
| \\      /  F ield         | OpenFOAM: The Open Source CFD Toolbox           |
|  \\    /   O peration     | Version:  2406                                  |
|   \\  /    A nd           | Website:  www.openfoam.com                      |
|    \\/     M anipulation  |                                                 |
\*---------------------------------------------------------------------------*/
FoamFile
{
    version     2.0;
    format      ascii;
    arch        "LSB;label=32;scalar=64";
    class       volScalarField;
    location    "200";
    object      alphat;
}
// * * * * * * * * * * * * * * * * * * * * * * * * * * * * * * * * * * * * * //

dimensions      [0 2 -1 0 0 0 0];

internalField   nonuniform List<scalar> 
5619
(
6.87052e-05
7.06987e-05
7.28009e-05
7.49693e-05
7.71867e-05
7.94558e-05
8.17884e-05
8.42111e-05
8.67647e-05
8.95023e-05
9.24841e-05
9.57702e-05
9.94124e-05
0.000103448
0.000107893
0.000112745
0.00011798
0.000123556
0.000129425
0.000135533
0.000141831
0.000148274
0.000154817
0.000161409
0.000167988
0.000174477
0.000180797
0.00018687
0.000192636
0.00019806
0.000203134
0.000207869
0.000212288
0.000216416
0.000220271
0.000223866
0.00022721
0.000230319
0.000233217
0.00023594
0.000238534
0.000241055
0.000243558
0.000246092
0.000248691
0.000251375
0.000254147
0.000257005
0.000259937
0.000262927
0.000265957
0.000269005
0.000272049
0.000275063
0.000278022
0.0002809
0.00028367
0.000286307
0.000288787
0.000291086
0.000293183
0.000295062
0.000296707
0.00029811
0.000299267
0.000300181
0.000300864
0.000301335
0.00030162
0.000301753
0.000301778
0.000301741
0.000301695
0.000301697
0.000301804
0.000301961
0.000302173
0.000302433
0.000302734
0.000303064
0.000303404
0.000303735
0.000304034
0.000304279
0.000304447
0.000304516
0.000304469
0.000304295
0.000303987
0.000303549
0.00030299
0.000302333
0.000301607
0.000300849
0.000300099
0.000299402
0.000298797
0.000298316
0.000297977
0.000297786
0.000297723
0.000297756
0.000297836
0.000297892
0.000297835
0.000297548
0.000296891
0.000295693
0.000293767
0.000290906
0.000286907
0.000281582
0.000274791
0.000266482
0.000256743
0.000245864
0.000234352
0.000222894
0.000212248
0.000203092
0.000195895
0.000190833
0.000187765
0.000186306
0.000185924
0.000186121
0.000186705
0.000186862
0.000186328
0.000185345
0.000183955
0.000182174
0.000179985
0.000177376
0.000174341
0.000170871
0.000166954
0.000162577
0.000157717
0.000152342
0.00014691
0.000141158
0.000135022
0.000128448
0.000121388
0.000113788
0.000105586
9.67107e-05
8.70781e-05
7.66161e-05
6.48423e-05
5.34194e-05
4.09175e-05
2.86378e-05
1.79194e-05
1.17315e-05
1.06565e-05
1.14686e-05
1.25777e-05
1.37546e-05
1.49077e-05
1.59827e-05
1.69533e-05
1.78094e-05
1.85512e-05
1.91843e-05
1.97177e-05
2.0162e-05
2.05285e-05
2.08282e-05
2.10714e-05
2.12676e-05
2.14258e-05
2.15538e-05
2.16588e-05
2.17476e-05
2.18278e-05
2.19096e-05
2.20073e-05
2.21434e-05
2.23493e-05
2.2663e-05
2.31162e-05
2.3704e-05
2.43126e-05
2.45255e-05
2.30393e-05
0.000420047
0.000445003
0.000472579
0.000500324
0.00052808
0.000555669
0.000583062
0.000610345
0.000637754
0.000665659
0.000694532
0.000724886
0.000757209
0.000791899
0.000829228
0.000869306
0.000912071
0.00095727
0.00100447
0.0010531
0.00110252
0.00115207
0.00120117
0.00124931
0.00129601
0.0013408
0.00138319
0.00142272
0.00145909
0.0014923
0.00152276
0.00155126
0.00157886
0.00160664
0.00163541
0.00166552
0.00169678
0.00172861
0.00176017
0.00179065
0.00181936
0.00184601
0.00187067
0.00189386
0.0019163
0.00193863
0.00196128
0.00198458
0.00200873
0.00203381
0.00205984
0.00208682
0.0021147
0.00214339
0.00217276
0.00220266
0.00223293
0.00226339
0.00229385
0.00232411
0.00235395
0.00238313
0.00241139
0.00243848
0.00246412
0.00248801
0.00250986
0.00252939
0.00254634
0.00256049
0.00257167
0.00257976
0.00258476
0.00258671
0.00258576
0.00258525
0.00258699
0.00259049
0.00259607
0.00260405
0.00261468
0.002628
0.0026439
0.0026621
0.00268217
0.00270353
0.00272549
0.0027473
0.00276818
0.00278737
0.00280424
0.00281829
0.00282928
0.00283722
0.00284243
0.00284553
0.0028474
0.00284911
0.00285179
0.00285652
0.00286417
0.00287609
0.00289277
0.00291408
0.00293933
0.00296719
0.00299576
0.00302251
0.00304444
0.00305815
0.00306002
0.00304652
0.0030146
0.00296228
0.00288941
0.00279831
0.00269417
0.00258444
0.00247755
0.00238135
0.0023019
0.00224269
0.00220409
0.00218353
0.00217606
0.00217525
0.00217417
0.00216846
0.00215694
0.00213938
0.00211617
0.00208768
0.00205399
0.00201518
0.00197134
0.00192258
0.001869
0.00181065
0.00174738
0.00167796
0.00159396
0.00150797
0.00142007
0.00133077
0.00124059
0.00115005
0.00105969
0.000970125
0.000882183
0.000796681
0.000718205
0.00062178
0.000493429
0.000320412
0.000166236
8.18975e-05
6.04948e-05
5.41357e-05
5.17504e-05
5.02879e-05
4.94867e-05
4.91361e-05
4.90748e-05
4.9189e-05
4.93904e-05
4.96114e-05
4.98029e-05
4.99305e-05
4.99717e-05
4.99111e-05
4.9737e-05
4.94378e-05
4.89982e-05
4.83953e-05
4.75948e-05
4.65478e-05
4.51896e-05
4.34435e-05
4.12353e-05
3.85276e-05
3.53763e-05
3.20009e-05
2.88345e-05
2.65317e-05
2.60327e-05
2.9179e-05
4.27102e-05
0.00114499
0.00120759
0.00127616
0.00134451
0.00141211
0.00147848
0.0015435
0.00160729
0.00167041
0.00173378
0.00179865
0.00186645
0.00193864
0.00201647
0.00210088
0.00219236
0.0022909
0.00239595
0.00250647
0.00262105
0.00273817
0.00285635
0.00297435
0.00309109
0.00320552
0.00331644
0.00342237
0.00352169
0.00361288
0.00369503
0.00376809
0.00383307
0.00389186
0.00394673
0.00399975
0.00405222
0.00410446
0.00415588
0.0042054
0.00425185
0.00429435
0.00433262
0.00436717
0.00439906
0.00443017
0.004462
0.00449563
0.00453185
0.00457117
0.00461374
0.00465964
0.0047089
0.00476146
0.00481715
0.00487573
0.00493692
0.00500039
0.00506579
0.00513273
0.00520076
0.00526942
0.00533819
0.00540653
0.00547384
0.00553951
0.00560291
0.00566339
0.00572033
0.00577313
0.00582126
0.00586429
0.00590194
0.00593409
0.00596082
0.00598251
0.00599984
0.0060146
0.00603038
0.00604653
0.00606351
0.00608196
0.00610236
0.00612503
0.00615006
0.00617731
0.00620639
0.00623668
0.00626739
0.00629761
0.00632637
0.00635274
0.00637591
0.00639532
0.0064107
0.0064222
0.00643034
0.00643605
0.00644059
0.00644547
0.00645219
0.00646227
0.0064779
0.00650043
0.00652996
0.00656512
0.00660303
0.00663938
0.00666868
0.00668463
0.00668052
0.00664977
0.00658658
0.00648667
0.00634821
0.00617287
0.00596661
0.00573992
0.00550672
0.00528211
0.00508004
0.00491132
0.00478226
0.00469363
0.00464087
0.00461529
0.00460597
0.00460193
0.00459478
0.0045791
0.00455303
0.00451591
0.00446763
0.00440806
0.00433707
0.00425459
0.00416056
0.00405492
0.00393753
0.00380791
0.00366451
0.00350236
0.00333082
0.00315079
0.00296336
0.00276974
0.00257126
0.00236942
0.00216585
0.00196215
0.00175894
0.00155593
0.00131742
0.00100832
0.000626996
0.000287058
0.000117588
8.41533e-05
7.71063e-05
7.31381e-05
7.01293e-05
6.79523e-05
6.64288e-05
6.53793e-05
6.46535e-05
6.41245e-05
6.36888e-05
6.32654e-05
6.27933e-05
6.22293e-05
6.15445e-05
6.07214e-05
5.97516e-05
5.86353e-05
5.73811e-05
5.60087e-05
5.45543e-05
5.30793e-05
5.16822e-05
5.05147e-05
4.97997e-05
4.98512e-05
5.11002e-05
5.41604e-05
6.00429e-05
7.08334e-05
9.1906e-05
0.00014329
0.00211341
0.002214
0.00232381
0.00243252
0.00253904
0.00264239
0.00274221
0.00283869
0.00293278
0.00302618
0.00312133
0.00322103
0.00332815
0.00344519
0.00357397
0.00371541
0.00386945
0.004035
0.00421017
0.00439247
0.00457929
0.0047682
0.00495716
0.00514435
0.00532792
0.00550559
0.0056745
0.0058314
0.00597314
0.00609733
0.00620298
0.00629085
0.00636331
0.00642381
0.00647607
0.00652325
0.00656741
0.00660943
0.00664933
0.00668668
0.00672112
0.0067528
0.00678237
0.00681016
0.00683878
0.00687013
0.00690548
0.00694584
0.00699219
0.00704429
0.00710204
0.00716545
0.00723439
0.00730851
0.00738739
0.0074706
0.00755766
0.00764803
0.00774113
0.00783634
0.00793297
0.00803031
0.00812764
0.00822418
0.00831915
0.00841179
0.00850133
0.00858705
0.00866828
0.00874442
0.00881495
0.00887948
0.0089377
0.00898946
0.00903473
0.00907362
0.00910639
0.00913386
0.00915863
0.0091808
0.00920112
0.00922041
0.00923951
0.00925912
0.00927983
0.00930199
0.00932577
0.00935107
0.00937755
0.00940471
0.00943188
0.00945832
0.00948332
0.00950625
0.00952671
0.00954453
0.00955987
0.00957319
0.00958528
0.00959706
0.00960973
0.00962466
0.0096428
0.00966408
0.00968667
0.00970669
0.00971838
0.00971458
0.00968746
0.00962928
0.00953332
0.00939475
0.00921149
0.00898499
0.00872077
0.00842864
0.00812222
0.00781741
0.00753035
0.00727549
0.0070639
0.00690189
0.00678986
0.00672239
0.0066895
0.00667871
0.00667746
0.00667525
0.0066648
0.00664325
0.00660896
0.00656076
0.00649779
0.00641933
0.00632481
0.00621366
0.00608535
0.00593931
0.00577482
0.00559089
0.00538613
0.00516038
0.00491665
0.00465551
0.00437797
0.00408543
0.00377957
0.00346213
0.00313411
0.00279344
0.00242966
0.00200458
0.00148709
0.000893553
0.000374883
0.000134636
9.46273e-05
8.72675e-05
8.23269e-05
7.83481e-05
7.53623e-05
7.3275e-05
7.19486e-05
7.12473e-05
7.1043e-05
7.12189e-05
7.16722e-05
7.23185e-05
7.30949e-05
7.39629e-05
7.49109e-05
7.59555e-05
7.71423e-05
7.8547e-05
8.02772e-05
8.24756e-05
8.53239e-05
8.90471e-05
9.39189e-05
0.000100268
0.000108501
0.000119159
0.000133103
0.000151959
0.000179243
0.000223391
0.000309451
0.00321959
0.00335649
0.00350516
0.00365129
0.0037929
0.00392846
0.00405736
0.00417993
0.00429777
0.0044138
0.00453203
0.00465709
0.00479356
0.0049453
0.00511496
0.00530372
0.00551117
0.0057355
0.00597373
0.00622221
0.00647719
0.0067352
0.00699325
0.00724861
0.00749834
0.00773883
0.00796564
0.00817368
0.0083579
0.00851415
0.00864002
0.00873548
0.00880292
0.00884679
0.00887278
0.00888677
0.00889392
0.00889808
0.00890174
0.00890628
0.0089125
0.00891958
0.00892604
0.00893712
0.00895446
0.00897866
0.00900977
0.00904755
0.0090915
0.00914217
0.00919992
0.00926478
0.00933677
0.00941504
0.00949895
0.009588
0.00968163
0.00977922
0.00988012
0.00998365
0.0100891
0.0101956
0.0103026
0.0104091
0.0105145
0.0106179
0.0107186
0.0108158
0.0109089
0.010997
0.0110797
0.0111562
0.0112262
0.011289
0.0113443
0.0113919
0.0114315
0.0114631
0.0114874
0.0115059
0.0115196
0.0115297
0.0115375
0.0115442
0.0115511
0.0115592
0.0115694
0.0115825
0.0115987
0.0116181
0.0116405
0.0116653
0.0116919
0.0117193
0.0117469
0.0117737
0.0117991
0.0118226
0.0118441
0.0118635
0.0118812
0.0118966
0.0119085
0.0119157
0.011915
0.0119018
0.0118694
0.0118099
0.0117155
0.0115793
0.0113967
0.0111666
0.0108919
0.0105803
0.0102431
0.00989469
0.00954988
0.00922245
0.00892402
0.0086646
0.0084524
0.00829211
0.00818414
0.00812337
0.0081001
0.00810125
0.00811405
0.00812786
0.00813564
0.00813469
0.00812265
0.00809747
0.00805742
0.00800095
0.00792669
0.00783335
0.00771973
0.00758462
0.00742687
0.00724537
0.00703914
0.00680542
0.00654215
0.00624921
0.00592663
0.00557456
0.00519332
0.00478292
0.00434186
0.00386363
0.00332933
0.00269991
0.00195869
0.00113675
0.000441672
0.00014061
9.56917e-05
8.87455e-05
8.45484e-05
8.17786e-05
8.05385e-05
8.0837e-05
8.2608e-05
8.57285e-05
9.00196e-05
9.52526e-05
0.000101171
0.000107521
0.000114091
0.000120732
0.000127372
0.000134016
0.000140734
0.000147651
0.000154929
0.000162761
0.000171363
0.000180974
0.000191866
0.000204373
0.000218947
0.000236274
0.000257478
0.000284495
0.000320743
0.0003722
0.000448373
0.0043914
0.00456277
0.00474744
0.00492738
0.00509959
0.00526196
0.00541369
0.0055555
0.00568998
0.00582162
0.00595644
0.00610119
0.00626227
0.00644488
0.00665231
0.00688573
0.00714419
0.00742492
0.00772381
0.00803607
0.0083568
0.0086815
0.00900618
0.00932706
0.00963999
0.00993997
0.0102209
0.0104758
0.0106975
0.0108798
0.011018
0.0111104
0.0111583
0.0111661
0.0111412
0.0110924
0.0110289
0.0109593
0.0108904
0.0108271
0.0107711
0.0107194
0.0106803
0.010656
0.0106457
0.010648
0.0106611
0.0106835
0.0107142
0.0107525
0.0107978
0.0108495
0.0109068
0.0109701
0.0110389
0.0111129
0.0111916
0.0112743
0.0113605
0.0114495
0.0115408
0.0116335
0.0117271
0.011821
0.0119143
0.0120065
0.0120967
0.0121844
0.0122688
0.0123492
0.0124249
0.0124952
0.0125594
0.012617
0.0126673
0.0127099
0.0127444
0.0127706
0.0127888
0.0128005
0.0128069
0.0128094
0.0128092
0.0128079
0.0128069
0.0128077
0.0128115
0.0128193
0.0128316
0.0128487
0.0128707
0.012897
0.0129271
0.0129601
0.0129949
0.0130306
0.013066
0.0131002
0.0131324
0.0131617
0.0131884
0.0132093
0.0132203
0.013217
0.013194
0.0131442
0.0130595
0.0129313
0.012752
0.0125164
0.0122232
0.0118768
0.0114878
0.0110731
0.0106541
0.0102532
0.00988845
0.00956911
0.00929616
0.00906875
0.00888833
0.00875493
0.0086706
0.00863276
0.00863392
0.00866294
0.00870751
0.0087563
0.00880331
0.00884669
0.00888333
0.00891032
0.008925
0.00892488
0.00890763
0.00887105
0.00881304
0.00873159
0.0086248
0.00849102
0.00832884
0.00813021
0.00789312
0.00761525
0.0072941
0.00692701
0.00651105
0.00604253
0.0055153
0.00491695
0.00422137
0.00339
0.00242191
0.00136831
0.000499541
0.000146723
9.86495e-05
9.39202e-05
9.35054e-05
9.59168e-05
0.00010122
0.000109417
0.000120305
0.000133413
0.000148022
0.000163292
0.000178443
0.000192903
0.000206357
0.000218726
0.000230096
0.000240659
0.000250656
0.000260354
0.000270024
0.000279935
0.000290359
0.000301574
0.000313884
0.000327647
0.000343308
0.000361456
0.000382877
0.000408584
0.000439721
0.000476893
0.000517955
0.00557067
0.00577436
0.0059918
0.00620166
0.0063998
0.00658358
0.00675218
0.00690687
0.0070515
0.00719243
0.0073379
0.00749684
0.00767754
0.00788642
0.00812727
0.00840111
0.00870631
0.00903911
0.00939431
0.00976599
0.0101482
0.0105356
0.010923
0.0113057
0.0116784
0.0120345
0.0123666
0.0126657
0.0129225
0.013128
0.0132749
0.0133582
0.0133763
0.0133321
0.0132325
0.0130882
0.0129127
0.0127206
0.0125257
0.0123387
0.0121604
0.0120085
0.0118888
0.0118004
0.0117395
0.0117008
0.0116795
0.0116717
0.0116745
0.0116858
0.0117043
0.011729
0.0117593
0.0117949
0.0118353
0.0118801
0.0119289
0.0119814
0.012037
0.0120953
0.0121559
0.0122184
0.0122822
0.0123468
0.0124118
0.0124765
0.0125404
0.0126029
0.0126633
0.012721
0.0127754
0.0128258
0.0128716
0.0129124
0.0129478
0.0129776
0.0130018
0.0130207
0.0130347
0.0130447
0.0130519
0.0130573
0.0130625
0.0130687
0.0130775
0.01309
0.0131074
0.0131303
0.0131591
0.0131937
0.0132338
0.0132785
0.0133272
0.0133786
0.0134318
0.0134856
0.0135389
0.0135909
0.0136404
0.0136865
0.0137295
0.0137646
0.0137839
0.0137789
0.0137396
0.0136554
0.0135151
0.013308
0.0130259
0.0126649
0.0122269
0.0117218
0.0111691
0.0105981
0.010046
0.00955257
0.00914919
0.00884246
0.00861781
0.00845184
0.0083308
0.00824992
0.00820987
0.00821129
0.00825108
0.00832153
0.00841193
0.00851118
0.00861536
0.00872377
0.00883231
0.00893696
0.00903397
0.00911983
0.00919129
0.00924535
0.00927914
0.0092899
0.00927506
0.00923142
0.00915188
0.00903218
0.00886733
0.00865162
0.00837876
0.00804186
0.00763332
0.00714412
0.006562
0.00586762
0.00502775
0.00401155
0.00283146
0.00156724
0.000550931
0.000162169
0.00011798
0.000119033
0.000126988
0.000140157
0.00015815
0.0001801
0.000204494
0.000229427
0.000253148
0.000274524
0.000293154
0.000309165
0.000322944
0.000334939
0.000345574
0.000355225
0.000364221
0.000372852
0.000381381
0.000390049
0.000399081
0.000408691
0.000419088
0.000430482
0.000443079
0.000457071
0.000472595
0.00048963
0.000507801
0.000525993
0.00054195
0.00670336
0.00693678
0.00718355
0.00741947
0.00763922
0.00783975
0.00802024
0.00818259
0.00833192
0.00847641
0.00862641
0.00879299
0.00898623
0.00921376
0.00947997
0.0097858
0.010129
0.0105051
0.0109078
0.0113302
0.0117655
0.0122074
0.0126499
0.0130871
0.0135125
0.0139186
0.0142964
0.0146353
0.0149241
0.015151
0.0153054
0.0153782
0.0153638
0.0152605
0.0150721
0.0148083
0.0144842
0.0141196
0.0137361
0.0133466
0.0129871
0.0126805
0.0124347
0.0122475
0.0121109
0.0120146
0.0119488
0.0119052
0.0118777
0.0118619
0.011855
0.0118552
0.0118613
0.0118726
0.0118885
0.0119087
0.0119327
0.01196
0.0119903
0.0120233
0.0120584
0.0120952
0.0121332
0.0121719
0.0122108
0.0122495
0.0122873
0.0123239
0.0123588
0.0123916
0.012422
0.0124498
0.0124748
0.0124972
0.0125172
0.0125351
0.0125515
0.0125672
0.0125831
0.0126003
0.0126198
0.012643
0.012671
0.0127049
0.0127456
0.0127939
0.01285
0.0129142
0.0129861
0.0130651
0.0131501
0.0132402
0.0133338
0.0134296
0.0135262
0.0136221
0.0137162
0.0138068
0.0138927
0.0139719
0.0140451
0.0141052
0.0141399
0.0141357
0.0140783
0.0139529
0.0137448
0.0134414
0.0130332
0.0125161
0.0118939
0.0111807
0.0104039
0.00960605
0.00884443
0.00818578
0.00769617
0.00739285
0.00722909
0.00715343
0.00713048
0.00714254
0.00718417
0.00725506
0.00735409
0.00747674
0.00761568
0.00776305
0.00792005
0.00808829
0.0082636
0.00844147
0.00861735
0.00878702
0.00894668
0.00909297
0.00922285
0.00933342
0.00942088
0.00947916
0.009503
0.00948578
0.0094193
0.00929385
0.00909828
0.00882017
0.00844576
0.00795929
0.00734138
0.00656622
0.00559422
0.0044253
0.00307258
0.00165669
0.000567848
0.000190743
0.000171067
0.000184226
0.00020566
0.000233365
0.000264906
0.000297067
0.000326727
0.000351906
0.000372175
0.000388213
0.00040108
0.000411729
0.000420847
0.000428888
0.000436154
0.000442864
0.000449197
0.000455309
0.000461345
0.000467435
0.000473696
0.000480226
0.000487103
0.000494377
0.000502062
0.000510119
0.000518437
0.000526796
0.000534844
0.000542094
0.000548049
0.0077348
0.00799516
0.00826811
0.00852694
0.00876534
0.00897985
0.0091696
0.00933689
0.0094877
0.00963148
0.00978015
0.00994647
0.0101421
0.0103762
0.0106538
0.0109765
0.011342
0.0117451
0.0121791
0.0126363
0.0131093
0.0135907
0.0140737
0.0145514
0.0150164
0.0154599
0.0158721
0.0162413
0.0165549
0.0167993
0.0169612
0.0170281
0.0169899
0.0168398
0.0165759
0.0162024
0.0157303
0.0151781
0.0145642
0.0139337
0.0133441
0.0128311
0.0124135
0.0120934
0.0118615
0.0117019
0.0115974
0.0115327
0.0114958
0.011478
0.0114735
0.0114785
0.0114903
0.0115073
0.0115281
0.0115515
0.0115765
0.0116022
0.0116277
0.0116525
0.0116759
0.0116976
0.0117175
0.0117351
0.0117507
0.0117642
0.011776
0.0117865
0.0117962
0.0118059
0.0118164
0.0118286
0.0118433
0.0118616
0.0118845
0.011913
0.0119479
0.01199
0.0120402
0.0120991
0.0121671
0.0122446
0.0123317
0.0124285
0.0125347
0.0126501
0.0127741
0.0129061
0.0130453
0.0131908
0.0133413
0.0134957
0.0136524
0.0138099
0.0139663
0.0141198
0.0142682
0.0144089
0.0145391
0.0146552
0.014757
0.0148335
0.0148671
0.0148403
0.0147363
0.0145386
0.0142314
0.013801
0.0132367
0.0125335
0.0116949
0.0107376
0.00969604
0.00862732
0.00761145
0.00674297
0.0061546
0.00585954
0.00579278
0.00586722
0.00601293
0.00618869
0.00637595
0.0065683
0.00676284
0.00695639
0.00714561
0.00732875
0.00751511
0.0077106
0.00791341
0.00812081
0.00832954
0.00853624
0.00873772
0.00893102
0.00911328
0.00928015
0.00942496
0.00954247
0.0096263
0.0096684
0.00965858
0.00958423
0.00943038
0.00917977
0.00881278
0.00830637
0.00763149
0.00676528
0.00569554
0.00441459
0.00296122
0.00151559
0.0005115
0.000242312
0.000276943
0.000307039
0.000338967
0.000372045
0.000402386
0.000426931
0.00044468
0.000456586
0.00046452
0.000470235
0.00047491
0.000479162
0.000483242
0.000487216
0.000491083
0.000494832
0.00049847
0.000502021
0.000505523
0.000509019
0.000512548
0.000516142
0.00051982
0.000523583
0.000527416
0.000531285
0.000535135
0.000538901
0.000542517
0.000545948
0.000549234
0.00860827
0.00889296
0.00918973
0.00946991
0.00972648
0.00995568
0.0101564
0.0103309
0.0104851
0.0106286
0.0107737
0.0109337
0.0111214
0.011347
0.0116174
0.0119351
0.0122989
0.0127042
0.0131443
0.0136115
0.0140977
0.014595
0.0150956
0.0155917
0.0160749
0.016536
0.0169644
0.0173483
0.0176749
0.0179302
0.0181001
0.0181709
0.0181302
0.0179681
0.0176777
0.0172559
0.0167035
0.0160243
0.0152306
0.0143961
0.0135829
0.0128458
0.0122253
0.0117419
0.0113946
0.0111657
0.0110293
0.010959
0.0109326
0.0109333
0.0109497
0.010974
0.0110014
0.0110288
0.0110546
0.0110777
0.0110979
0.011115
0.0111292
0.011141
0.0111512
0.0111621
0.0111754
0.0111922
0.0112137
0.0112408
0.0112741
0.0113142
0.0113616
0.0114167
0.0114798
0.0115511
0.0116309
0.0117193
0.0118164
0.0119222
0.0120369
0.0121603
0.0122925
0.0124332
0.0125824
0.0127399
0.0129052
0.0130778
0.0132567
0.0134411
0.0136302
0.013823
0.0140186
0.014216
0.0144139
0.0146111
0.0148062
0.0149975
0.0151831
0.0153607
0.0155276
0.0156807
0.015816
0.015929
0.0160175
0.0160661
0.016054
0.0159621
0.0157732
0.015471
0.0150398
0.0144641
0.01373
0.0128283
0.0117603
0.0105447
0.00922615
0.00788243
0.00662627
0.00559329
0.00491697
0.00467937
0.00480285
0.00514654
0.00557633
0.0060063
0.00639741
0.00673905
0.00703318
0.0072861
0.00750565
0.00770025
0.00788694
0.00807583
0.00826754
0.00846157
0.00865642
0.00884959
0.00903747
0.00921512
0.00937531
0.00951149
0.00961938
0.00969435
0.00973095
0.00972206
0.00965795
0.00952535
0.00930907
0.00899212
0.00855333
0.00796924
0.00721599
0.00627258
0.00512825
0.00379981
0.00237831
0.00111722
0.000412476
0.000345822
0.000436965
0.000474096
0.000498494
0.000515668
0.000525209
0.000528016
0.000526359
0.00052276
0.000519093
0.000516341
0.000514797
0.000514365
0.000514798
0.000515827
0.000517226
0.000518832
0.00052054
0.000522292
0.000524066
0.000525857
0.000527671
0.00052952
0.000531414
0.000533359
0.000535361
0.000537428
0.000539565
0.000541791
0.000544135
0.000546649
0.000549414
0.00926367
0.00956987
0.00988844
0.0101896
0.0104662
0.0107145
0.0109331
0.0111238
0.0112917
0.0114451
0.0115946
0.0117525
0.0119305
0.0121395
0.0123873
0.0126787
0.0130147
0.0133927
0.0138076
0.0142527
0.0147204
0.0152026
0.0156911
0.0161775
0.0166528
0.0171075
0.0175314
0.0179132
0.0182411
0.0185027
0.0186852
0.0187764
0.018765
0.0186411
0.018396
0.0180209
0.0175027
0.0168028
0.0159648
0.0150385
0.0140796
0.0131506
0.012315
0.0116241
0.0111038
0.0107493
0.0105326
0.010416
0.0103644
0.0103512
0.0103588
0.0103771
0.010401
0.0104283
0.0104587
0.0104933
0.0105355
0.0105871
0.010649
0.0107214
0.0108041
0.010896
0.0109966
0.0111055
0.0112223
0.0113469
0.0114789
0.011618
0.0117639
0.0119164
0.0120752
0.0122402
0.012411
0.0125876
0.0127697
0.012957
0.0131494
0.0133465
0.0135481
0.0137538
0.0139632
0.0141761
0.014392
0.0146099
0.014829
0.0150481
0.0152663
0.0154825
0.0156956
0.0159043
0.0161075
0.0163038
0.0164916
0.0166691
0.0168346
0.0169859
0.0171203
0.0172352
0.0173269
0.0173914
0.0174248
0.0174103
0.0173284
0.0171617
0.0168938
0.0165071
0.0159814
0.0152934
0.0144196
0.0133418
0.012057
0.0105886
0.00899894
0.00739699
0.00593536
0.00478522
0.0040919
0.00393258
0.00427408
0.00494558
0.00571265
0.00640813
0.00697179
0.00740963
0.00774986
0.0080198
0.0082431
0.00843531
0.00861457
0.00879066
0.00896118
0.00912246
0.00926983
0.00939769
0.00949972
0.00957034
0.00960702
0.0096088
0.00957566
0.00950777
0.00940425
0.00926146
0.00907161
0.00882212
0.00849614
0.00807379
0.00753377
0.00685542
0.00602189
0.00502573
0.00388155
0.00265269
0.00149606
0.000674473
0.000385501
0.000513414
0.000613733
0.000634365
0.000632829
0.000621573
0.000605049
0.000586899
0.000569954
0.000555826
0.000545024
0.000537348
0.000532275
0.000529207
0.000527592
0.000526977
0.00052702
0.000527477
0.000528184
0.000529044
0.00053
0.000531027
0.000532116
0.000533271
0.000534501
0.000535816
0.000537234
0.000538774
0.000540459
0.00054232
0.0005444
0.000546749
0.000549434
0.00963603
0.00995858
0.0102946
0.0106146
0.0109119
0.0111834
0.011428
0.0116473
0.0118454
0.0120284
0.0122041
0.0123811
0.0125682
0.0127737
0.013005
0.0132676
0.013565
0.0138976
0.0142636
0.0146593
0.0150792
0.0155169
0.0159651
0.016416
0.016861
0.0172914
0.0176979
0.0180713
0.0184018
0.0186797
0.018895
0.0190379
0.0190991
0.0190688
0.0189355
0.0186812
0.0182546
0.0176372
0.0168518
0.0159248
0.0148923
0.0138064
0.0127385
0.0117733
0.0109861
0.0104149
0.0100493
0.00984607
0.00975538
0.00973667
0.00976284
0.0098179
0.00989502
0.00999107
0.0101038
0.0102306
0.0103686
0.0105163
0.0106724
0.0108364
0.0110074
0.0111848
0.0113683
0.0115574
0.0117517
0.0119511
0.0121551
0.0123635
0.0125762
0.0127927
0.0130128
0.0132363
0.0134629
0.0136921
0.0139238
0.0141573
0.0143922
0.014628
0.0148639
0.0150992
0.015333
0.0155646
0.0157943
0.0160218
0.0162466
0.0164677
0.0166842
0.0168951
0.0170992
0.0172953
0.0174821
0.0176583
0.0178224
0.017973
0.0181086
0.0182277
0.0183285
0.018409
0.0184673
0.0185008
0.018506
0.0184693
0.0183752
0.0182079
0.0179483
0.0175714
0.0170439
0.0163264
0.0153789
0.014171
0.0126972
0.0109922
0.00914582
0.00730696
0.00566493
0.00440099
0.00363731
0.00343061
0.00378603
0.00459817
0.00559683
0.00649947
0.00718728
0.00768033
0.00803895
0.00831234
0.00852997
0.00870678
0.00885551
0.00897962
0.00907196
0.00912438
0.00913475
0.00910483
0.00904019
0.00894813
0.00883552
0.00870666
0.00856187
0.00839721
0.00820506
0.00797498
0.00769457
0.00735013
0.00692727
0.00641194
0.00579199
0.00505999
0.00421821
0.0032878
0.00232414
0.00143413
0.000768621
0.000449269
0.000499948
0.000694045
0.00075283
0.000741981
0.000711918
0.000676718
0.000642332
0.000612105
0.000587497
0.000568596
0.000554744
0.000545008
0.000538457
0.00053427
0.000531781
0.000530469
0.000529947
0.00052994
0.000530262
0.000530796
0.000531471
0.000532252
0.000533122
0.000534081
0.000535134
0.000536295
0.000537578
0.000539004
0.0005406
0.000542397
0.000544433
0.000546759
0.000549436
0.00966453
0.00999332
0.010337
0.0106676
0.0109797
0.0112713
0.0115425
0.0117954
0.0120339
0.0122629
0.0124875
0.0127124
0.0129418
0.0131795
0.0134294
0.0136949
0.0139788
0.0142833
0.0146095
0.014957
0.0153246
0.0157094
0.0161077
0.0165142
0.0169233
0.0173285
0.0177231
0.0181005
0.0184534
0.0187743
0.0190544
0.0192835
0.0194497
0.0195385
0.0195286
0.019372
0.0190363
0.0185062
0.0177789
0.0168595
0.0157638
0.0145267
0.0132158
0.0119492
0.0108688
0.010076
0.00958427
0.00933732
0.00925929
0.00928803
0.00938254
0.00951845
0.00968038
0.00985935
0.0100504
0.0102503
0.0104572
0.0106697
0.0108868
0.0111078
0.011332
0.0115587
0.0117876
0.012018
0.0122494
0.0124815
0.0127137
0.0129457
0.0131771
0.0134078
0.0136376
0.0138663
0.0140938
0.0143201
0.0145451
0.0147687
0.0149907
0.015211
0.015429
0.0156443
0.015856
0.0160632
0.0162652
0.0164625
0.0166563
0.016847
0.0170348
0.0172193
0.0174004
0.0175776
0.0177505
0.0179189
0.0180824
0.0182407
0.0183934
0.0185398
0.0186792
0.0188104
0.0189315
0.0190401
0.0191364
0.0192135
0.0192558
0.019242
0.0191422
0.0189151
0.0185084
0.0178622
0.0169183
0.0156351
0.0140074
0.0120865
0.00999415
0.0079168
0.00606442
0.00460114
0.00360113
0.00307807
0.00305133
0.00355743
0.00452216
0.00562594
0.0065202
0.00710696
0.00746142
0.00767191
0.00779118
0.00784588
0.00785183
0.0078162
0.00774917
0.00766548
0.00757366
0.00747677
0.00737351
0.00725995
0.00713086
0.00698053
0.00680301
0.00659209
0.00634129
0.00604387
0.0056931
0.00528272
0.00480777
0.00426609
0.00366079
0.00300401
0.00232222
0.00166134
0.00108681
0.000669294
0.000459119
0.000485299
0.000692485
0.000819448
0.000823997
0.000785834
0.000738116
0.000691577
0.000650646
0.000617033
0.000590782
0.000571058
0.000556716
0.000546616
0.000539753
0.00053529
0.00053256
0.000531046
0.000530362
0.00053023
0.000530459
0.000530926
0.000531555
0.000532304
0.000533154
0.000534099
0.000535145
0.0005363
0.00053758
0.000539005
0.000540601
0.000542397
0.000544433
0.000546759
0.000549436
0.00932149
0.00964222
0.0099792
0.0103064
0.0106198
0.010919
0.0112055
0.0114825
0.0117546
0.0120265
0.0123023
0.0125843
0.0128733
0.0131692
0.0134718
0.0137806
0.0140957
0.0144173
0.0147462
0.0150835
0.0154301
0.015787
0.0161543
0.0165311
0.0169154
0.0173043
0.017694
0.0180794
0.0184541
0.0188093
0.0191338
0.0194138
0.0196334
0.0197732
0.0198062
0.0197078
0.0194461
0.0189908
0.0183156
0.0174074
0.0162633
0.0149045
0.0134104
0.0119307
0.0106584
0.00973719
0.00919035
0.00894419
0.00889963
0.00897746
0.00912673
0.00931764
0.00953317
0.00976365
0.0100036
0.0102496
0.0104998
0.0107525
0.0110068
0.0112617
0.0115162
0.0117695
0.0120206
0.0122685
0.0125122
0.0127507
0.0129828
0.0132075
0.0134239
0.0136311
0.0138285
0.0140157
0.0141926
0.0143592
0.0145161
0.014664
0.014804
0.0149373
0.0150652
0.0151892
0.0153107
0.0154309
0.0155506
0.0156693
0.0157848
0.0159
0.0160183
0.0161425
0.0162749
0.0164177
0.0165734
0.0167449
0.0169351
0.0171471
0.0173837
0.017647
0.0179376
0.0182543
0.0185933
0.0189478
0.0193235
0.0197222
0.0201172
0.0204694
0.0207265
0.020825
0.0206913
0.0202467
0.0194161
0.0181458
0.0164289
0.0143311
0.0120034
0.00966437
0.00753831
0.00577154
0.00439729
0.00338377
0.00270713
0.00238911
0.00250299
0.00312497
0.0041197
0.0050394
0.00558406
0.0058179
0.00589056
0.0058918
0.00586184
0.00581559
0.0057561
0.00568154
0.00559142
0.00548409
0.00535759
0.00520981
0.00503863
0.00484192
0.00461753
0.00436348
0.00407802
0.00376004
0.00340951
0.00302826
0.00262104
0.00219678
0.00176999
0.00136148
0.000997436
0.000705739
0.000510444
0.00043105
0.000491019
0.000676664
0.000832774
0.000865927
0.000833306
0.000782178
0.000729987
0.000682907
0.000643221
0.000611317
0.000586567
0.000567925
0.000554269
0.00054456
0.000537898
0.000533531
0.000530851
0.000529377
0.000528744
0.000528684
0.000529009
0.000529592
0.000530355
0.00053125
0.000532252
0.000533351
0.000534544
0.000535838
0.000537245
0.000538778
0.000540461
0.000542321
0.0005444
0.000546749
0.000549434
0.00863922
0.0089391
0.00925632
0.00956682
0.00986794
0.0101603
0.0104464
0.0107299
0.0110157
0.0113088
0.0116136
0.0119332
0.0122672
0.012611
0.0129627
0.0133192
0.0136781
0.0140373
0.0143952
0.0147514
0.0151061
0.0154604
0.0158155
0.0161723
0.0165309
0.0168902
0.0172475
0.0175988
0.0179378
0.0182564
0.0185445
0.0187924
0.0190025
0.0191593
0.0192379
0.0192078
0.0190301
0.0186599
0.0180479
0.0171819
0.0160526
0.0146804
0.0131485
0.0116237
0.0103178
0.0093839
0.00884176
0.00861045
0.00858608
0.00868733
0.00886223
0.0090802
0.00932363
0.00958228
0.00985005
0.0101232
0.0103992
0.0106764
0.0109533
0.0112288
0.0115018
0.011771
0.0120354
0.0122935
0.012544
0.0127851
0.0130154
0.0132328
0.0134355
0.0136217
0.0137894
0.0139369
0.0140627
0.0141657
0.0142452
0.0143013
0.0143346
0.0143466
0.0143399
0.0143176
0.0142838
0.0142431
0.0142005
0.0141614
0.0141312
0.0141097
0.0140948