/*--------------------------------*- C++ -*----------------------------------*\
| =========                 |                                                 |
| \\      /  F ield         | OpenFOAM: The Open Source CFD Toolbox           |
|  \\    /   O peration     | Version:  2406                                  |
|   \\  /    A nd           | Website:  www.openfoam.com                      |
|    \\/     M anipulation  |                                                 |
\*---------------------------------------------------------------------------*/
FoamFile
{
    version     2.0;
    format      ascii;
    arch        "LSB;label=32;scalar=64";
    class       volScalarField;
    location    "200";
    object      epsilon;
}
// * * * * * * * * * * * * * * * * * * * * * * * * * * * * * * * * * * * * * //

dimensions      [0 2 -3 0 0 0 0];

internalField   nonuniform List<scalar> 
5619
(
7.38805
8.07554
8.84933
9.70032
10.6263
11.6304
12.7188
13.9044
15.2095
16.6687
18.331
20.2594
22.5298
25.2273
28.4423
32.2647
36.7785
42.0568
48.16
55.1365
63.0255
71.8589
81.6562
92.4129
104.083
116.564
129.696
143.274
157.08
170.918
184.643
198.167
211.447
224.459
237.171
249.536
261.5
273.018
284.08
294.728
305.058
315.226
325.421
335.839
346.648
357.966
369.862
382.36
395.454
409.104
423.249
437.805
452.669
467.718
482.812
497.798
512.512
526.779
540.425
553.273
565.154
575.912
585.415
593.559
600.279
605.555
609.419
611.957
613.314
613.686
613.317
612.493
611.531
610.764
610.542
610.762
611.361
612.297
613.532
614.996
616.589
618.19
619.658
620.846
621.606
621.796
621.295
620.01
617.89
614.934
611.197
606.795
601.901
596.738
591.559
586.629
582.2
578.481
575.615
573.646
572.505
571.963
571.785
571.632
571.041
569.403
565.962
559.831
550.045
535.642
515.79
489.949
458.063
420.759
379.481
336.463
294.433
256.067
223.406
197.523
178.523
165.783
158.204
154.457
153.143
152.986
153.336
153.008
151.124
148.235
144.514
139.986
134.676
128.619
121.868
114.495
106.581
98.2144
89.483
80.4644
71.8969
63.5776
55.4717
47.6146
40.0725
32.9257
26.262
20.1756
14.7625
10.119
6.21705
3.48546
1.61117
0.57494
0.147404
0.0394591
0.0261634
0.0313786
0.0413808
0.0544544
0.0698395
0.0866321
0.103949
0.121021
0.137238
0.15217
0.165556
0.177285
0.18736
0.19587
0.202956
0.208795
0.213576
0.217491
0.220729
0.223486
0.225992
0.228553
0.231634
0.235963
0.242608
0.252969
0.268453
0.289455
0.31233
0.320606
0.265784
2.21424
2.44766
2.70874
2.99697
3.31269
3.65767
4.03516
4.45106
4.91492
5.4409
6.04817
6.76094
7.60768
8.62001
9.83103
11.2734
12.9775
14.9698
17.2726
19.9043
22.8796
26.2088
29.8944
33.9249
38.2683
42.8688
47.6488
52.5187
57.391
62.1961
66.8914
71.4636
75.9219
80.2867
84.5803
88.8217
93.0269
97.2128
101.402
105.625
109.924
114.348
118.946
123.761
128.826
134.156
139.758
145.622
151.731
158.056
164.56
171.196
177.91
184.639
191.313
197.858
204.194
210.238
215.906
221.119
225.799
229.876
233.294
236.008
237.993
239.242
239.774
239.626
238.865
237.574
235.863
233.854
231.685
229.5
227.443
225.445
223.523
221.72
220.062
218.564
217.233
216.065
215.049
214.165
213.391
212.699
212.06
211.447
210.835
210.205
209.547
208.863
208.164
207.472
206.817
206.232
205.749
205.394
205.179
205.101
205.137
205.259
205.421
205.533
205.465
205.035
204.013
202.125
199.06
194.497
188.141
179.776
169.338
156.992
143.184
128.646
114.302
101.079
89.7038
80.5751
73.7605
69.068
66.1399
64.5415
63.8245
63.5773
63.494
63.2583
62.6431
61.663
60.3404
58.6932
56.7384
54.497
51.9937
49.2548
46.3087
43.1853
39.9186
36.5664
33.2973
30.0473
26.8183
23.6147
20.447
17.3318
14.2936
11.3667
8.59669
6.04266
3.70632
1.93642
0.852886
0.297995
0.0851038
0.0412
0.0429503
0.0484289
0.0542448
0.0590953
0.0632464
0.0667621
0.0696977
0.0721261
0.0741239
0.0757653
0.0771156
0.0782273
0.0791385
0.079874
0.080446
0.0808528
0.0810759
0.0810765
0.080789
0.0801145
0.0789169
0.0770293
0.0742808
0.0705596
0.0659162
0.0606768
0.0554688
0.051017
0.0475961
0.0440461
0.03571
1.29658
1.4555
1.6336
1.83122
2.04924
2.28957
2.5553
2.8515
3.18592
3.56962
4.01721
4.54683
5.17963
5.93899
6.84937
7.93512
9.21922
10.7226
12.4637
14.4593
16.7236
19.2677
22.0956
25.1999
28.5571
32.1251
35.8452
39.6497
43.4714
47.2556
50.9675
54.5958
58.1505
61.6568
65.1475
68.6562
72.2128
75.8416
79.5619
83.3907
87.344
91.4382
95.69
100.117
104.733
109.547
114.552
119.739
125.089
130.573
136.158
141.805
147.468
153.096
158.634
164.022
169.198
174.102
178.672
182.849
186.58
189.818
192.523
194.665
196.226
197.198
197.587
197.41
196.696
195.485
193.828
191.782
189.411
186.784
183.971
181.038
178.045
175.043
172.092
169.25
166.567
164.082
161.829
159.827
158.087
156.607
155.377
154.376
153.576
152.947
152.454
152.063
151.744
151.473
151.233
151.014
150.815
150.642
150.507
150.419
150.388
150.441
150.59
150.802
151.001
151.064
150.825
150.072
148.558
146.018
142.19
136.866
129.936
121.457
111.704
101.179
90.5603
80.5554
71.7429
64.4658
58.8244
54.7265
51.9533
50.2254
49.2496
48.7466
48.4679
48.1925
47.7325
47.031
46.0901
44.9202
43.5274
41.9254
40.1325
38.1694
36.058
33.8221
31.4881
29.0911
26.6869
24.2951
21.916
19.5477
17.1887
14.8389
12.5022
10.1905
7.92853
5.75807
3.71884
2.02393
0.937889
0.338155
0.0962893
0.0463679
0.0464119
0.0495188
0.050352
0.0494315
0.0476822
0.0455859
0.0434114
0.041311
0.0393624
0.0375964
0.036014
0.0345974
0.0333179
0.0321412
0.0310307
0.0299486
0.0288573
0.0277203
0.0265037
0.0251784
0.0237243
0.0221365
0.0204335
0.0186655
0.0169187
0.0153088
0.0139558
0.0129313
0.0121637
0.0112657
0.00912524
1.00211
1.13581
1.2864
1.45456
1.64153
1.84954
2.08197
2.34398
2.64311
2.98974
3.39736
3.88251
4.4644
5.16432
6.00472
7.00832
8.19711
9.59181
11.2117
13.0747
15.1972
17.5926
20.2683
23.2217
26.4358
29.8774
33.4978
37.2377
41.0352
44.8351
48.5966
52.2985
55.941
59.5425
63.1342
66.7515
70.427
74.1849
78.04
81.9992
86.0642
90.2355
94.5188
98.9326
103.492
108.202
113.053
118.032
123.118
128.284
133.502
138.739
143.958
149.118
154.171
159.072
163.771
168.222
172.376
176.189
179.621
182.633
185.195
187.281
188.87
189.951
190.517
190.568
190.114
189.167
187.75
185.892
183.627
180.998
178.057
174.861
171.477
167.975
164.428
160.912
157.5
154.256
151.239
148.492
146.05
143.932
142.141
140.672
139.502
138.603
137.938
137.464
137.138
136.919
136.77
136.661
136.574
136.497
136.434
136.392
136.386
136.465
136.67
137.001
137.406
137.781
137.969
137.766
136.935
135.217
132.361
128.155
122.47
115.312
106.863
97.5106
87.815
78.409
69.8477
62.5008
56.5408
51.9734
48.6746
46.4467
45.0599
44.2734
43.8414
43.5332
43.1428
42.5989
41.8812
40.973
39.8699
38.5763
37.103
35.4645
33.6785
31.765
29.7466
27.6498
25.5074
23.3576
21.2062
19.0548
16.903
14.7492
12.5931
10.4393
8.30315
6.21624
4.22095
2.44488
1.20321
0.451887
0.119985
0.0458091
0.0410958
0.0407355
0.0382023
0.0344753
0.0305256
0.0268152
0.0235328
0.0207274
0.0183777
0.0164314
0.0148262
0.0135006
0.0123984
0.0114715
0.0106797
0.00998978
0.00937543
0.00881626
0.00829744
0.00780946
0.00734806
0.00691428
0.00651411
0.00615764
0.00585704
0.00562289
0.00545717
0.00534076
0.00521066
0.00492338
0.00420581
0.879084
1.00185
1.14088
1.29712
1.47213
1.66856
1.89022
2.14269
2.43378
2.77401
3.17675
3.65829
4.2375
4.93536
5.77431
6.77735
7.96735
9.36643
10.9957
12.8755
15.0246
17.4592
20.1903
23.2196
26.5357
30.1113
33.903
37.854
41.9
45.977
50.0295
54.0177
57.9227
61.7468
65.5109
69.2466
72.9863
76.7559
80.57
84.433
88.3406
92.2877
96.3058
100.429
104.669
109.026
113.484
118.024
122.622
127.253
131.891
136.504
141.063
145.538
149.899
154.111
158.139
161.95
165.511
168.788
171.753
174.376
176.633
178.502
179.964
181.002
181.606
181.766
181.48
180.749
179.578
177.981
175.979
173.597
170.875
167.856
164.597
161.16
157.618
154.052
150.536
147.146
143.949
141.003
138.356
136.041
134.076
132.465
131.2
130.257
129.608
129.215
129.034
129.022
129.137
129.341
129.602
129.897
130.216
130.551
130.913
131.358
131.918
132.592
133.325
134.009
134.481
134.537
133.945
132.47
129.892
126.041
120.822
114.243
106.442
97.7105
88.5004
79.3595
70.8077
63.2103
56.7988
51.6793
47.8055
45.0474
43.2294
42.1621
41.5937
41.279
40.9919
40.6458
40.1956
39.607
38.8573
37.9334
36.8297
35.5466
34.0899
32.4695
30.7001
28.8012
26.8003
24.7284
22.6024
20.436
18.2403
16.0242
13.7952
11.5633
9.3445
7.16399
5.0493
3.08327
1.59168
0.610404
0.14731
0.0397049
0.0304583
0.0279671
0.0244901
0.0206407
0.0170458
0.0139696
0.0114671
0.00949475
0.0079713
0.00680919
0.00592862
0.0052627
0.00475809
0.00437367
0.00407841
0.00384926
0.0036693
0.00352639
0.00341196
0.00332035
0.0032481
0.00319358
0.00315644
0.00313706
0.00313556
0.00315052
0.00317661
0.00320121
0.00319964
0.00313232
0.00295543
0.820218
0.93739
1.07073
1.22142
1.39128
1.5834
1.80209
2.05343
2.34573
2.68989
3.0996
3.59139
4.18438
4.89993
5.76102
6.79159
8.01575
9.4573
11.1394
13.0843
15.3133
17.8451
20.6932
23.8623
27.3438
31.1126
35.125
39.3202
43.6235
47.9534
52.2295
56.3826
60.3628
64.146
67.7348
71.1536
74.4389
77.627
80.7467
83.8126
86.8327
89.8814
93.0116
96.244
99.5803
103.007
106.5
110.035
113.584
117.121
120.62
124.06
127.417
130.669
133.792
136.768
139.575
142.196
144.611
146.803
148.756
150.456
151.887
153.039
153.899
154.459
154.712
154.65
154.272
153.577
152.569
151.257
149.657
147.789
145.684
143.381
140.925
138.375
135.781
133.194
130.672
128.27
126.044
124.039
122.295
120.839
119.687
118.844
118.302
118.047
118.054
118.296
118.739
119.351
120.097
120.948
121.875
122.857
123.876
124.922
126.009
127.195
128.465
129.764
130.993
132
132.596
132.563
131.685
129.765
126.655
122.283
116.663
109.898
102.172
93.7401
84.9699
76.3001
68.1933
60.8586
54.501
49.3337
45.2853
42.2739
40.186
38.8693
38.1373
37.7796
37.5759
37.4375
37.3065
37.1326
36.8739
36.4957
35.9708
35.2778
34.4007
33.3286
32.0558
30.5835
28.9209
27.0791
25.0786
22.9415
20.691
18.3509
15.9459
13.5024
11.049
8.61374
6.21077
3.91998
2.08044
0.80183
0.177536
0.0334789
0.0208243
0.0176306
0.0145338
0.0116235
0.00914326
0.00716919
0.0056711
0.00457213
0.00378505
0.00323044
0.00284371
0.00257587
0.00239144
0.00226551
0.00218088
0.00212583
0.00209241
0.00207532
0.00207109
0.0020775
0.00209328
0.00211777
0.0021507
0.00219192
0.0022411
0.00229733
0.00235863
0.00242156
0.00248146
0.00253545
0.00259216
0.784917
0.897848
1.02682
1.17317
1.33892
1.52752
1.7437
1.99397
2.28709
2.63434
3.04979
3.55025
4.15515
4.88622
5.76688
6.82166
8.07542
9.55289
11.2783
13.2751
15.5657
18.1695
21.1005
24.363
27.9469
31.8238
35.9434
40.2333
44.6009
48.9389
53.1342
57.0791
60.6848
63.8934
66.6861
69.0833
71.1359
72.9112
74.4774
75.8778
77.2957
78.8098
80.4536
82.2335
84.1316
86.1161
88.1505
90.1985
92.2275
94.2098
96.1233
97.9507
99.6782
101.294
102.788
104.154
105.385
106.479
107.43
108.239
108.904
109.425
109.803
110.041
110.142
110.107
109.942
109.653
109.245
108.727
108.109
107.404
106.628
105.797
104.934
104.06
103.201
102.385
101.638
100.99
100.469
100.104
99.918
99.9323
100.161
100.613
101.287
102.177
103.269
104.543
105.978
107.547
109.228
110.997
112.834
114.724
116.651
118.606
120.578
122.555
124.572
126.684
128.798
130.772
132.419
133.513
133.814
133.084
131.12
127.777
123.001
116.849
109.507
101.275
92.5029
83.5267
74.7562
66.4705
59.2458
52.9674
47.5513
42.9792
39.2492
36.3483
34.2291
32.8048
31.9531
31.5216
31.3318
31.3152
31.4207
31.596
31.7906
31.9584
32.058
32.0538
31.9145
31.6107
31.1112
30.3908
29.441
28.2467
26.7971
25.0876
23.1232
20.9201
18.5071
15.9246
13.2207
10.4409
7.60279
4.87307
2.60867
0.997985
0.208357
0.0295172
0.0144079
0.0112173
0.00876298
0.00675399
0.00518613
0.00402063
0.00318917
0.00261488
0.00222778
0.00197171
0.00180519
0.00169927
0.00163436
0.00159752
0.00158024
0.00157702
0.00158432
0.00159992
0.0016225
0.00165135
0.00168617
0.001727
0.00177409
0.00182782
0.00188874
0.00195751
0.00203501
0.00212271
0.00222342
0.0023431
0.0024938
0.752404
0.860111
0.983332
1.12344
1.28252
1.4642
1.67337
1.91676
2.20328
2.54434
2.95404
3.44919
4.04914
4.77541
5.65118
6.70054
7.94791
9.41744
11.1327
13.1165
15.3897
17.9701
20.8683
24.0842
27.6014
31.3827
35.3663
39.4642
43.5632
47.5298
51.2189
54.4873
57.2114
59.305
60.7352
61.5295
61.7706
61.5824
61.0945
60.6047
60.2436
60.0775
60.1333
60.4005
60.8431
61.4138
62.0638
62.7492
63.4339
64.0913
64.7033
65.2592
65.7536
66.1848
66.5542
66.8648
67.1212
67.3291
67.4948
67.6253
67.7279
67.8102
67.8804
67.9468
68.018
68.1027
68.2098
68.3481
68.5268
68.7554
69.0436
69.4018
69.8407
70.3717
71.0066
71.7576
72.6372
73.6579
74.8321
76.1717
77.6879
79.3903
81.2869
83.3829
85.6805
88.1775
90.8672
93.7374
96.7707
99.9447
103.234
106.608
110.041
113.502
116.966
120.409
123.808
127.139
130.373
133.472
136.473
139.385
142.018
144.145
145.504
145.821
144.831
142.303
138.067
132.036
124.245
114.879
104.313
93.0932
81.8427
71.0271
61.3031
53.4305
46.995
41.6646
37.24
33.5935
30.6481
28.3515
26.6492
25.4687
24.7208
24.3063
24.1134
24.1147
24.2883
24.6009
25.0115
25.4755
25.9496
26.3952
26.7787
27.0676
27.2391
27.2831
27.1623
26.8317
26.2399
25.3336
24.0647
22.3996
20.3287
17.8712
15.0734
12.0052
8.70078
5.60272
2.97431
1.10862
0.219165
0.0266337
0.0108002
0.00777894
0.00581914
0.00439761
0.00337887
0.00266706
0.00218283
0.0018612
0.00165215
0.00151944
0.00143805
0.00139121
0.00136784
0.0013607
0.00136506
0.00137793
0.00139744
0.00142252
0.00145266
0.00148773
0.00152793
0.00157366
0.00162559
0.00168459
0.00175183
0.00182886
0.00191778
0.00202149
0.0021441
0.00229154
0.00247204
0.712062
0.812421
0.92722
1.05766
1.20573
1.37493
1.57001
1.79745
2.06584
2.38614
2.77191
3.23924
3.80661
4.49446
5.32459
6.31945
7.50143
8.89234
10.5131
12.3833
14.52
16.9358
19.635
22.6097
25.8342
29.2608
32.8164
36.4007
39.8874
43.1282
45.9626
48.2322
49.8008
50.5766
50.5338
49.7257
48.2851
46.4076
44.4276
42.5926
40.9899
39.684
38.7007
38.0231
37.6078
37.3998
37.3437
37.3919
37.5083
37.6683
37.8574
38.0693
38.303
38.5613
38.8493
39.1731
39.5395
39.9565
40.4321
40.9745
41.5909
42.2879
43.0714
43.9471
44.9203
45.9961
47.1794
48.4749
49.8874
51.422
53.0839
54.8789
56.8133
58.894
61.1285
63.525
66.0919
68.8378
71.7711
74.8999
78.231
81.7696
85.5199
89.4843
93.6632
98.0543
102.652
107.446
112.421
117.558
122.829
128.203
133.64
139.096
144.518
149.846
155.01
159.926
164.493
168.584
172.174
175.133
177.159
177.993
177.407
175.193
171.166
165.169
157.093
146.902
134.688
120.739
105.612
90.1327
75.2782
61.6089
50.4866
41.9899
35.6052
30.8386
27.274
24.5984
22.6046
21.1604
20.1681
19.5364
19.1752
19.0056
18.968
19.066
19.3021
19.6662
20.136
20.6813
21.2698
21.8726
22.4669
23.0391
23.5757
24.0414
24.395
24.585
24.5451
24.1955
23.4497
22.2285
20.4773
18.1745
15.3171
12.0851
8.73121
5.53753
2.83593
0.992038
0.18126
0.0225781
0.00907805
0.00619068
0.00449664
0.00337296
0.00262074
0.00211974
0.00178954
0.00157485
0.0014379
0.00135325
0.00130401
0.00127898
0.00127071
0.00127427
0.0012864
0.00130506
0.001329
0.00135759
0.00139065
0.0014283
0.00147092
0.00151915
0.00157382
0.00163602
0.00170714
0.00178897
0.00188379
0.00199458
0.00212524
0.00228091
0.0024683
0.662001
0.753088
0.857115
0.974889
1.10813
1.25995
1.43455
1.63769
1.87702
2.16233
2.50576
2.92175
3.4269
4.03948
4.77885
5.66462
6.71598
7.95109
9.38664
11.0373
12.9143
15.0233
17.3609
19.9104
22.638
25.4886
28.3842
31.2227
33.88
36.2147
38.0775
39.3258
39.8437
39.5652
38.497
36.734
34.462
31.9541
29.5567
27.3444
25.3964
23.7837
22.5404
21.6615
21.1108
20.8355
20.7803
20.8978
21.1532
21.525
22.0023
22.5827
23.2691
24.0684
24.9893
26.0414
27.2336
28.5753
30.0762
31.7466
33.5956
35.6246
37.8338
40.2224
42.7886
45.5306
48.4466
51.5355
54.797
58.2323
61.844
65.6361
69.6143
73.7859
78.1595
82.7453
87.5541
92.5982
97.8903
103.444
109.274
115.361
121.685
128.228
134.976
141.909
149.006
156.242
163.586
171.001
178.446
185.871
193.215
200.41
207.371
213.998
220.17
225.739
230.525
234.303
236.929
238.067
237.362
234.641
229.848
222.971
213.984
202.819
189.385
173.632
155.652
135.825
114.931
94.1519
74.8659
58.2005
44.4906
34.5905
27.7844
23.2966
20.4223
18.6174
17.524
16.9207
16.6614
16.6359
16.757
16.9631
17.2338
17.5904
18.0393
18.5749
19.1815
19.8369
20.5168
21.1916
21.8098
22.329
22.721
22.9718
23.0744
23.0144
22.7561
22.2324
21.3696
20.0896
18.3287
16.0714
13.3676
10.3585
7.26869
4.39233
2.0798
0.648805
0.109633
0.0179176
0.00835426
0.00558018
0.00398449
0.0029744
0.00232654
0.00190912
0.00164013
0.00146782
0.0013593
0.00129351
0.00125684
0.00124029
0.00123787
0.00124557
0.00126072
0.00128164
0.00130735
0.00133739
0.0013717
0.0014105
0.00145426
0.00150366
0.0015596
0.00162322
0.00169594
0.00177955
0.00187633
0.00198917
0.00212182
0.00227919
0.00246779
0.607936
0.689283
0.78201
0.886377
1.00379
1.13675
1.28866
1.4642
1.66954
1.91264
2.20338
2.55359
2.97692
3.48847
4.10419
4.84016
5.71179
6.73315
7.91634
9.27076
10.8017
12.5083
14.3802
16.3947
18.5136
20.6809
22.8228
24.8478
26.6501
28.115
29.1278
29.5866
29.4197
28.6054
27.1899
25.2988
23.1286
21.0144
19.0067
17.1557
15.5276
14.1882
13.1847
12.535
12.2254
12.2196
12.473
12.9461
13.6115
14.4555
15.4762
16.6806
18.0817
19.6958
21.5418
23.6389
25.9985
28.6278
31.53
34.7047
38.1498
41.8694
45.8661
50.1418
54.6979
59.5359
64.6573
70.0642
75.7592
81.7461
88.0293
94.6143
101.508
108.716
116.248
124.111
132.314
140.864
149.769
159.034
168.663
178.64
188.888
199.347
209.957
220.658
231.383
242.055
252.593
262.906
272.894
282.453
291.469
299.823
307.388
314.027
319.592
323.919
326.819
328.07
327.445
324.502
319.026
311.048
300.709
288.129
273.313
256.143
236.427
214.024
189.025
161.972
134.005
106.782
82.0774
61.2226
44.8108
32.8504
24.9055
20.1362
17.5387
16.2842
15.8356
15.8767
16.2155
16.7261
17.3219
17.9517
18.6169
19.3487
20.1305
20.9198
21.6468
22.2114
22.5245
22.5516
22.3335
21.9458
21.4699
20.966
20.4553
19.915
19.2858
18.4856
17.4287
16.0442
14.2932
12.1865
9.79563
7.2607
4.79013
2.64784
1.10552
0.300712
0.0536407
0.0142016
0.00783412
0.00526702
0.00374568
0.00279553
0.00219802
0.00181978
0.0015791
0.0014262
0.00133056
0.00127318
0.00124195
0.00122892
0.0012288
0.00123801
0.0012542
0.00127585
0.00130211
0.0013326
0.00136729
0.00140644
0.00145055
0.0015003
0.00155662
0.00162063
0.00169377
0.00177782
0.00187503
0.00198828
0.00212129
0.00227894
0.00246771
0.559597
0.632766
0.71612
0.809398
0.913727
1.03103
1.16386
1.31571
1.49112
1.69589
1.93722
2.22374
2.56542
2.97346
3.45975
4.03638
4.71485
5.50539
6.41622
7.4526
8.61551
9.89973
11.2915
12.7661
14.2865
15.8027
17.2527
18.5644
19.6598
20.4604
20.8943
20.9064
20.4699
19.5986
18.3586
16.8646
15.3507
13.8892
12.5022
11.2236
10.1023
9.19552
8.55743
8.22488
8.2094
8.49864
9.06674
9.88771
10.9446
12.2327
13.7571
15.5307
17.5732
19.9022
22.5314
25.473
28.7453
32.3662
36.3522
40.7187
45.4804
50.6508
56.2425
62.2668
68.7341
75.6538
83.0345
90.8842
99.2101
108.019
117.315
127.106
137.393
148.18
159.466
171.25
183.526
196.283
209.507
223.175
237.259
251.758
266.608
281.712
296.971
312.275
327.501
342.508
357.138
371.222
384.575
397.006
408.321
418.325
426.831
433.661
438.654
441.662
442.55
441.188
437.386
430.79
421.369
409.207
394.366
376.794
356.321
332.705
305.708
275.226
241.51
205.441
168.683
133.465
101.911
75.3521
54.22
38.453
27.69
21.1666
17.751
16.3098
16.0181
16.3705
17.0675
17.9196
18.7911
19.5737
20.2012
20.6314
20.7941
20.6436
20.2281
19.6464
18.999
18.3601
17.7716
17.2432
16.7589
16.2856
15.7789
15.1884
14.4623
13.5531
12.4245
11.0592
9.46741
7.69522
5.83047
4.00559
2.39057
1.16117
0.42129
0.109064
0.0266293
0.011287
0.00703463
0.00483975
0.00348456
0.00263381
0.00209864
0.00175947
0.00154298
0.00140487
0.00131816
0.00126607
0.00123791
0.0012266
0.0012274
0.00123707
0.00125346
0.0012752
0.00130148
0.00133197
0.00136667
0.00140584
0.00144997
0.00149977
0.00155614
0.00162022
0.00169342
0.00177754
0.00187482
0.00198813
0.00212119
0.00227888
0.00246769
0.525577
0.593751
0.671552
0.758398
0.855269
0.963668
1.08553
1.22334
1.38025
1.56013
1.76765
2.00837
2.28866
2.6157
2.9972
3.44112
3.95513
4.54604
5.21909
5.97706
6.81904
7.73881
8.72316
9.75049
10.7903
11.8035
12.7447
13.5646
14.2136
14.6463
14.8256
14.7279
14.3482
13.7042
12.8519
11.906
10.9192
9.93109
8.97558
8.09054
7.32133
6.7202
6.34439
6.23744
6.42253
6.89984
7.65364
8.66567
9.92556
11.4338
13.1996
15.2381
17.5663
20.2069
23.1849
26.527
30.26
34.4107
39.0056
44.0703
49.6292
55.7052
62.3199
69.4925
77.2406
85.5794
94.5223
104.08
114.262
125.076
136.526
148.616
161.348
174.722
188.734
203.378
218.643
234.509
250.95
267.928
285.39
303.269
321.582
340.316
359.401
378.74
398.207
417.652
436.902
455.761
474.016
491.442
507.804
522.862
536.373
548.091
557.768
565.162
570.037
572.167
571.431
567.574
560.197
548.767
532.667
511.381
484.661
452.584
415.461
373.77
328.282
280.394
232.346
186.881
146.288
111.548
82.5134
58.88
40.729
28.1765
20.6892
16.9361
15.415
15.0093
15.0544
15.1959
15.2618
15.185
14.9647
14.6369
14.2737
13.9474
13.6592
13.399
13.1508
12.897
12.6193
12.2994
11.9185
11.4582
10.9007
10.2302
9.43483
8.50899
7.45712
6.29756
5.067
3.82377
2.64763
1.6316
0.859596
0.37
0.127241
0.0389451
0.0152046
0.00875552
0.0059301
0.00422767
0.00313662
0.00243796
0.00198958
0.00169951
0.00151068
0.00138808
0.00130998
0.0012626
0.0012369
0.00122678
0.00122808
0.00123788
0.00125422
0.00127583
0.00130197
0.00133234
0.00136693
0.00140602
0.00145009
0.00149985
0.00155619
0.00162025
0.00169344
0.00177755
0.00187482
0.00198813
0.00212119
0.00227888
0.00246769
0.509611
0.576527
0.653171
0.738938
0.834815
0.942133
1.0625
1.19783
1.35033
1.52249
1.71716
1.93756
2.18721
2.46998
2.78998
3.15148
3.55871
4.01552
4.52492
5.08849
5.7054
6.37127
7.07693
7.80766
8.5431
9.25819
9.92492
10.5145
10.9994
11.3549
11.5597
11.5957
11.4482
11.1206
10.622
9.97054
9.20668
8.38349
7.5591
6.78759
6.12488
5.62714
5.33955
5.30089
5.53375
6.04046
6.80841
7.82274
9.07642
10.5729
12.324
14.3475
16.665
19.3013
22.2835
25.6406
29.4024
33.5989
38.2599
43.4144
49.0903
55.3134
62.107
69.4911
77.482
86.0915
95.3268
105.19
115.678
126.785
138.501
150.814
163.712
177.185
191.225
205.828
220.994
236.727
253.032
269.914
287.374
305.405
323.984
343.068
362.602
382.828
403.861
425.727
448.401
471.844
496.005
520.833
546.26
572.182
598.434
624.745
650.698
675.705
698.995
719.64
737.376
751.845
760.962
762.112
752.753
731.234
697.433
652.793
599.686
540.569
477.627
413.134
349.965
291.343
239.561
194.759
155.232
119.194
86.3866
58.2892
36.9372
23.2121
15.9093
12.6116
11.262
10.6951
10.403
10.202
10.0376
9.89552
9.75526
9.59439
9.40448
9.17791
8.90895
8.59316
8.22692
7.80735
7.33222
6.80034
6.21201
5.56999
4.88067
4.15547
3.4123
2.67647
1.98031
1.3603
0.850612
0.473497
0.229974
0.097393
0.0384359
0.0169968
0.00972462
0.00661036
0.00478155
0.00357396
0.00276897
0.00223447
0.00187835
0.0016396
0.00147921
0.0013723
0.0013028
0.00126004
0.00123673
0.00122778
0.00122955
0.00123947
0.00125576
0.00127724
0.00130323
0.00133345
0.0013679
0.00140687
0.00145084
0.00150049
0.00155674
0.00162071
0.00169382
0.00177785
0.00187504
0.00198828
0.00212129
0.00227894
0.00246771
0.510033
0.578873
0.658023
0.747129
0.847299
0.959929
1.08661
1.22907
1.38915
1.5687
1.76953
1.99332
2.2418
2.51681
2.81979
3.15218
3.51546
3.91106
4.34035
4.80438
5.30347
5.83648
6.40004
6.98796
7.59125
8.19858
8.79715
9.37312
9.91124
10.3934
10.7953
11.0817
11.2025
11.1047
10.7599
10.1728
9.38989
8.49011
7.56834
6.69618
5.94367
5.37104
5.02316
4.92904
5.09956
5.52793
6.19753
7.09407
8.21288
9.55905
11.1446
12.9863
15.1042
17.521
20.2618
23.353
26.8219
30.6964
35.004
39.7715
45.0238
50.7834
57.069
63.8941
71.2658
79.1825
87.6326
96.5929
106.027
115.885
126.107
136.621
147.355
158.237
169.208
180.232
191.306
202.466
213.795
225.421
237.504
250.227
263.779
278.346
294.093
310.708
328.104
347.12
368.347
392.261
419.298
449.905
484.55
523.687
567.678
616.662
670.4
728.109
788.329
848.899
909.336
969.488
1024.02
1065.71
1086.84
1081.51
1047.94
989.406
912.849
826.002
735.166
645.028
559.831
483.809
419.824
367.446
322.732
280.078
234.653
184.379
131.377
82.0258
44.0175
21.2492
11.1265
7.62228
6.50952
6.08982
5.8486
5.64776
5.45118
5.24088
5.00531
4.74282
4.45399
4.14324
3.8171
3.47814
3.12846
2.77068
2.40843
2.04674
1.69221
1.35308
1.03881
0.759215
0.523023
0.336048
0.19946
0.108962
0.0555451
0.0278288
0.0150627
0.00944118
0.00667302
0.00499284
0.00383741
0.00302398
0.00245479
0.00205778
0.00178039
0.0015864
0.00145142
0.00135894
0.00129762
0.00125947
0.00123874
0.00123119
0.00123369
0.00124395
0.00126035
0.00128181
0.0013077
0.00133776
0.00137201
0.00141074
0.00145443
0.00150379
0.0015597
0.00162329
0.00169598
0.00177958
0.00187635
0.00198918
0.00212183
0.0022792
0.00246778
0.521868
0.594527
0.678313
0.773258
0.880659
1.00211
1.13937
1.29432
1.46885
1.66476
1.88364
2.12673
2.39483
2.68808
3.00705
3.35115
3.71984
4.11269
4.5297
4.97164
5.44005
5.93714
6.4653
7.0266
7.62239
8.25296
8.91678
9.60862
10.3165
11.0181
11.6683
12.1895
12.5019
12.526
12.2123
11.5615
10.6321
9.53011
8.37563
7.27339
6.31572
5.57214
5.08545
4.87354
4.93233
5.24162
5.77618
6.51759
7.45941
8.6053
9.96529
11.5534
13.3863
15.4829
17.8641
20.5517
23.5686
26.9377
30.6819
34.8225
39.3794
44.3693
49.8053
55.6944
62.0367
68.8223
76.0294
83.6223
91.5501
99.7437
108.116
116.557
124.953
133.174
141.089
148.566
155.487
161.761
167.337
172.23
176.541
180.489
184.44
188.922
194.631
202.413
212.994
225.621
240.471
258.309
280.141
307.231
341.098
383.505
436.375
501.549
580.265
672.696
777.269
890.463
1012.14
1144.31
1279.51
1404.85
1503.04
1557.06
1556.44
1501.94
1405.24
1283.42
1152.13
1022.55
902.676
799.19
716.959
656.761
614.214
581.179
548.065
505.215
443.946
358.911
253.127
143.963
59.817
16.9904
4.1975
1.93279
1.55025
1.42925
1.34505
1.2664
1.19018
1.11679
1.04679
0.975479
0.896198
0.809865
0.718319
0.624546
0.531426
0.441147
0.355923
0.277921
0.209078
0.15087
0.104082
0.0686394
0.0435667
0.0271243
0.0171332
0.0114112
0.00816894
0.00620732
0.00487884
0.00390288
0.00317006
0.00262364
0.00221989
0.001923
0.00170555
0.0015474
0.00143396
0.00135459
0.00130137
0.00126833
0.00125088
0.00124547
0.00124938
0.00126055
0.0012775
0.00129924
0.00132518
0.00135509
0.00138902
0.00142726
0.00147031
0.00151883
0.00157367
0.00163596
0.00170712
0.00178897
0.00188379
0.00199459
0.00212525
0.00228091
0.0024683
0.54025
0.617346
0.706384
0.807781
0.923028
1.05395
1.20254
1.37095
1.56131
1.77568
2.01587
2.28329
2.57874
2.90228
3.25287
3.62965
4.03071
4.45422
4.89907
5.36556
5.85598
6.37497
6.92938
7.52773
8.17928
8.89246
9.67237
10.5164
11.4088
12.3121
13.1503
13.8368
14.2655
14.3396
14
13.2485
12.154
10.8394
9.44512
8.10668
6.93483
6.00863
5.37025
5.02847
4.96599
5.15037
5.54798
6.13527
6.90211
7.84877
8.98183
10.3116
11.8509
13.6145
15.6189
17.8813
20.4198
23.2526
26.3972
29.8702
33.6863
37.8577
42.3932
47.2966
52.5647
58.1837
64.1279
70.3578
76.8346
83.5129
90.3246
97.0408
103.591
109.869
115.755
121.124
125.855
129.843
133.005
135.293
136.703
137.279
137.128
136.421
135.415
134.5
134.284
135.769
139.426
145.795
155.63
170.087
191.026
221.441
266.034
331.549
422.376
543.296
692.77
859.384
1036.63
1230.63
1443.34
1664.69
1869.83
2027.25
2110.13
2106.73
2025.31
1889.91
1728.01
1559.52
1396.58
1249.69
1129.8
1043.87
990.417
960.862
944.311
929.307
903.515
852.561
759.697
609.798
404.187
188.087
47.0848
4.86155
0.445016
0.199245
0.173545
0.161745
0.15118
0.141063
0.13143
0.122306
0.113703
0.105644
0.0981502
0.0899664
0.0803713
0.0698902
0.0592286
0.0488952
0.0393323
0.0308886
0.0237874
0.0181053
0.0137734
0.0106032
0.00833805
0.00671323
0.00550795
0.00457205
0.00382246
0.0032189
0.00273805
0.00236008
0.00206628
0.00184016
0.00166818
0.00153953
0.00144558
0.00137941
0.00133544
0.00130907
0.00129656
0.00129487
0.00130157
0.00131479
0.00133318
0.00135582
0.0013822
0.00141215
0.00144573
0.00148327
0.00152523
0.00157212
0.00162474
0.00168414
0.00175161
0.00182876
0.00191774
0.00202147
0.0021441
0.00229154
0.00247204
0.563646
0.645097
0.739158
0.84655
0.968923
1.10828
1.26683
1.44693
1.65101
1.88142
2.14026
2.42925
2.74949
3.10126
3.48379
3.89511
4.33318
4.7952
5.27915
5.78472
6.31433
6.87374
7.47227
8.12223
8.83746
9.63075
10.5097
11.4705
12.491
13.5148
14.4673
15.2436
15.7251
15.8067
15.4273
14.5929
13.3808
11.9225
10.371
8.87479
7.55577
6.49864
5.74482
5.29683
5.12882
5.20138
5.47669
5.92838
6.54318
7.3176
8.25422
9.35931
10.6417
12.1124
13.7835
15.6684
17.7811
20.1355
22.7452
25.6231
28.7809
32.2288
35.9756
40.0281
44.3896
49.0565
53.9986
59.0778
64.2956
69.6129
74.9605
80.2363
85.3479
90.2004
94.6951
98.7326
102.219
105.072
107.226
108.643
109.311
109.254
108.528
107.231
105.497
103.515
101.541
99.9471
99.3068
100.039
102.712
108.168
117.779
133.958
161.219
208.243
291.288
436.151
661.948
928.443
1159.69
1361.93
1583.79
1836.89
2097.79
2328.99
2493.98
2568.8
2549.3
2450.68
2297.48
2120.28
1938.89
1763.03
1601.62
1470.61
1384.05
1336.91
1318.61
1318.09
1325.04
1327.77
1308.97
1240.08
1078.67
784.302
388.016
84.5412
4.68508
0.177646
0.0489703
0.0381559
0.0346303
0.0319205
0.0294789
0.0272557
0.0252269
0.0233678
0.0216555
0.0200675
0.0185892
0.0171837
0.0156601
0.0140824
0.0125151
0.0110151
0.00962842
0.00838447
0.00729405
0.00635091
0.00553748
0.00483258
0.00421843
0.00368384
0.00322292
0.00283159
0.00250492
0.00223661
0.00201976
0.00184761
0.00171389
0.00161291
0.00153953
0.0014891
0.00145748
0.00144096
0.00143634
0.0014409
0.00145239
0.0014691
0.00148979
0.00151371
0.00154049
0.00157011
0.00160277
0.00163888
0.0016788
0.00172274
0.0017717
0.00182655
0.00188809
0.00195719
0.00203487
0.00212265
0.00222339
0.0023431
0.0024938
0.59616
0.682075
0.781137
0.894271
1.02324
1.17015
1.33735
1.52736
1.74278
1.98616
2.25983
2.56568
2.905
3.27822
3.68474
4.12279
4.58958
5.08232
5.59806
6.13587
6.69784
7.28985
7.92195
8.60785
9.36324
10.2026
11.1343
12.1535
13.233
14.3162
15.3209
16.1333
16.6284
16.6978
16.2813
15.3902
14.1099
12.5805
10.96
9.39679
8.0157
6.90081
6.08954
5.57862
5.33763
5.32565
5.50563
5.85169
6.34917
6.99168
7.7781
8.71098
9.79554
11.039
12.4504
14.0394
15.8166
17.7927
19.9784
22.3842
25.0206
27.8993
31.0347
34.4473
38.1578
42.0058
46.0105
50.1325
54.3438
58.6058
62.8648
67.0528
71.0965
74.9198
78.4454
81.5973
84.305
86.5077
88.1585
89.2292
89.7134
89.6294
89.0221
87.9642
86.5582
84.9398
83.2877
81.8425