/*--------------------------------*- C++ -*----------------------------------*\
| =========                 |                                                 |
| \\      /  F ield         | OpenFOAM: The Open Source CFD Toolbox           |
|  \\    /   O peration     | Version:  2406                                  |
|   \\  /    A nd           | Website:  www.openfoam.com                      |
|    \\/     M anipulation  |                                                 |
\*---------------------------------------------------------------------------*/
FoamFile
{
    version     2.0;
    format      ascii;
    arch        "LSB;label=32;scalar=64";
    class       volScalarField;
    location    "200";
    object      k;
}
// * * * * * * * * * * * * * * * * * * * * * * * * * * * * * * * * * * * * * //

dimensions      [0 2 -2 0 0 0 0];

internalField   nonuniform List<scalar> 
5619
(
0.0690544
0.0732213
0.0777639
0.0826039
0.08771
0.093087
0.0987571
0.104777
0.111245
0.118306
0.126149
0.134997
0.145091
0.156669
0.169941
0.185075
0.202177
0.22129
0.242397
0.265442
0.290345
0.317014
0.345332
0.375131
0.406154
0.438041
0.47034
0.502561
0.534242
0.565028
0.594701
0.623177
0.650461
0.676584
0.701562
0.725374
0.747989
0.7694
0.789666
0.808932
0.827437
0.845502
0.863488
0.881743
0.900543
0.920064
0.940387
0.961526
0.983435
1.00602
1.02917
1.05272
1.07651
1.10032
1.12395
1.14717
1.16975
1.19144
1.212
1.23122
1.24886
1.26474
1.27871
1.29063
1.30046
1.30818
1.31387
1.31768
1.3198
1.32055
1.32027
1.31937
1.31831
1.31758
1.31768
1.31834
1.31952
1.32117
1.32322
1.32558
1.32809
1.33058
1.33286
1.33471
1.33592
1.3363
1.33569
1.33395
1.33103
1.32692
1.32171
1.31558
1.30876
1.30158
1.29439
1.2876
1.28154
1.27652
1.27273
1.27025
1.26894
1.26849
1.26852
1.26852
1.26776
1.26532
1.26004
1.25057
1.2354
1.21296
1.18181
1.14077
1.08927
1.02764
0.957477
0.881786
0.804849
0.731552
0.666389
0.612602
0.571735
0.543644
0.526731
0.518449
0.515788
0.515984
0.517615
0.517327
0.513515
0.507345
0.499138
0.488939
0.476746
0.46257
0.446451
0.428454
0.40866
0.387155
0.364015
0.339373
0.315031
0.290415
0.265343
0.239806
0.213889
0.18773
0.161511
0.135476
0.109938
0.0853374
0.0614756
0.0417679
0.0248011
0.0123622
0.00494106
0.0020802
0.00162606
0.00184913
0.00222323
0.0026658
0.00314154
0.00362144
0.00408427
0.00451567
0.00490687
0.00525354
0.00555473
0.00581197
0.00602844
0.00620828
0.00635608
0.00647661
0.0065745
0.00665414
0.00671969
0.00677532
0.0068257
0.00687707
0.00693868
0.00702481
0.00715607
0.00735835
0.00765563
0.00804988
0.00846858
0.00861753
0.00760478
0.0931894
0.100822
0.10927
0.11823
0.127671
0.137587
0.148016
0.159056
0.170879
0.183739
0.197969
0.213953
0.232104
0.252819
0.276451
0.303272
0.333454
0.36705
0.404008
0.444182
0.487366
0.533295
0.581639
0.631961
0.683678
0.736046
0.788201
0.839265
0.8885
0.935443
0.980001
1.02243
1.06325
1.10303
1.14228
1.1813
1.22019
1.25887
1.29723
1.33517
1.37272
1.41005
1.4475
1.48548
1.52443
1.56463
1.60625
1.64933
1.69381
1.73955
1.78634
1.83394
1.88205
1.93031
1.97834
2.02573
2.07203
2.1168
2.15957
2.19988
2.2373
2.27139
2.30177
2.32813
2.35019
2.36778
2.38083
2.38938
2.39359
2.39378
2.39038
2.38397
2.37523
2.36495
2.35397
2.3437
2.33474
2.32715
2.3212
2.31711
2.315
2.31486
2.31658
2.31991
2.32454
2.33007
2.33603
2.34196
2.3474
2.35195
2.35532
2.35732
2.35795
2.35736
2.35589
2.35399
2.35223
2.35118
2.3514
2.35325
2.35697
2.36295
2.37109
2.38078
2.39092
2.39987
2.40541
2.40483
2.39493
2.37225
2.33332
2.27513
2.19568
2.09477
1.97479
1.84113
1.70193
1.56672
1.4444
1.34156
1.2616
1.20475
1.16862
1.14899
1.14067
1.13829
1.13724
1.13368
1.12522
1.11195
1.09411
1.07192
1.0455
1.01503
0.98071
0.942759
0.901403
0.856875
0.809389
0.759096
0.706151
0.652572
0.598382
0.543655
0.488509
0.433084
0.377548
0.322125
0.267103
0.212765
0.158238
0.106364
0.062783
0.0297781
0.0113948
0.00556454
0.00491807
0.00495996
0.00513872
0.00529125
0.005433
0.00556395
0.00568257
0.00578815
0.0058802
0.00595847
0.00602302
0.00607406
0.00611181
0.00613636
0.00614748
0.00614439
0.00612541
0.00608759
0.00602629
0.00593468
0.00580357
0.00562187
0.00537852
0.00506702
0.0046929
0.00428233
0.00388658
0.00357543
0.00342084
0.00348399
0.00379533
0.117774
0.128122
0.139502
0.151563
0.164272
0.177633
0.191713
0.206657
0.222712
0.240234
0.259677
0.281569
0.30646
0.334883
0.367305
0.404085
0.445453
0.491495
0.542167
0.597321
0.656729
0.720093
0.78701
0.85692
0.929045
1.00236
1.07566
1.14766
1.2172
1.28346
1.34606
1.40517
1.46133
1.51537
1.56814
1.62033
1.67237
1.72444
1.77652
1.82853
1.88042
1.93227
1.9843
2.03691
2.0906
2.14573
2.20247
2.26089
2.32092
2.38235
2.44493
2.50837
2.57231
2.63632
2.69993
2.76266
2.82399
2.88338
2.94029
2.99419
3.04457
3.09093
3.13281
3.16982
3.2016
3.2279
3.24853
3.2634
3.27253
3.27605
3.2742
3.26733
3.25593
3.24058
3.22197
3.20087
3.17842
3.15582
3.13348
3.11204
3.09214
3.07432
3.05896
3.04633
3.03653
3.02948
3.02498
3.02267
3.02211
3.0228
3.02419
3.02581
3.02725
3.02822
3.02862
3.02849
3.02804
3.02763
3.02772
3.02877
3.0312
3.0358
3.04296
3.05235
3.06282
3.07242
3.07841
3.07729
3.06501
3.03719
2.98947
2.91809
2.82057
2.69661
2.54894
2.38388
2.211
2.04157
1.88621
1.75287
1.64596
1.56635
1.51183
1.47811
1.45973
1.45091
1.44624
1.44113
1.43191
1.41742
1.39757
1.37245
1.3421
1.30664
1.2663
1.22133
1.17202
1.11865
1.06154
1.00101
0.9374
0.872342
0.805934
0.738249
0.669338
0.599242
0.528007
0.455719
0.382528
0.30857
0.23322
0.158233
0.094082
0.0443674
0.0159111
0.00707083
0.0060369
0.00598652
0.00588598
0.00571491
0.00552783
0.00534572
0.00517636
0.00502213
0.00488254
0.00475572
0.00463915
0.00453001
0.00442542
0.00432255
0.00421868
0.0041112
0.0039977
0.00387599
0.00374436
0.00360183
0.00344868
0.00328713
0.00312227
0.00296294
0.00282235
0.00271813
0.00267181
0.00270794
0.00285258
0.00312708
0.00351413
0.140743
0.153328
0.167128
0.181772
0.197225
0.213511
0.230723
0.249058
0.268834
0.290497
0.314612
0.341824
0.372807
0.408209
0.448596
0.494413
0.545949
0.60333
0.666531
0.735409
0.80973
0.889169
0.973277
1.06141
1.15265
1.24576
1.33925
1.43149
1.5209
1.60622
1.68668
1.76211
1.83292
1.9
1.96442
2.02723
2.08927
2.15102
2.21267
2.27425
2.3357
2.39704
2.45839
2.52014
2.5829
2.64705
2.71274
2.78002
2.84889
2.91899
2.9901
3.06192
3.13411
3.20623
3.2778
3.34833
3.41731
3.48421
3.54851
3.60967
3.66718
3.72054
3.7693
3.81302
3.85131
3.88385
3.91037
3.93064
3.94454
3.95202
3.95309
3.94789
3.93665
3.91972
3.89755
3.87077
3.8401
3.80655
3.77137
3.73548
3.69989
3.66558
3.63345
3.60428
3.57865
3.55697
3.5394
3.52592
3.51627
3.51004
3.50668
3.50557
3.50605
3.5075
3.5094
3.51135
3.51313
3.51472
3.51629
3.51811
3.52058
3.52458
3.5308
3.53917
3.54867
3.55718
3.56159
3.55794
3.54172
3.50814
3.45268
3.37158
3.26253
3.12541
2.963
2.78146
2.59014
2.40027
2.22276
2.06618
1.93604
1.83456
1.76083
1.71152
1.68174
1.6658
1.65765
1.6517
1.64313
1.63024
1.6124
1.58914
1.56019
1.5255
1.48516
1.4393
1.38814
1.33196
1.27107
1.20587
1.13685
1.06498
0.990591
0.913797
0.834657
0.753189
0.669382
0.583238
0.494804
0.404084
0.310456
0.214496
0.129415
0.0612685
0.0203278
0.00753748
0.0060323
0.00577941
0.00544113
0.00504571
0.00465865
0.0043068
0.00399878
0.00373507
0.00351225
0.00332533
0.00316883
0.00303742
0.00292631
0.00283138
0.00274926
0.00267737
0.00261384
0.0025576
0.00250832
0.00246649
0.00243345
0.00241146
0.00240379
0.00241479
0.00244988
0.00251554
0.00261918
0.00276855
0.00296999
0.00322294
0.00350598
0.162762
0.177365
0.193357
0.210354
0.228321
0.247303
0.267435
0.288966
0.312288
0.337937
0.366581
0.398977
0.435909
0.478131
0.526305
0.580954
0.64243
0.710903
0.786377
0.868718
0.957685
1.05294
1.15398
1.26009
1.37023
1.48298
1.59657
1.70897
1.81813
1.92222
2.01986
2.11033
2.19364
2.27049
2.34208
2.40981
2.475
2.53866
2.60144
2.66366
2.72543
2.78654
2.84751
2.90962
2.97335
3.03877
3.10575
3.17403
3.24323
3.31329
3.38397
3.45501
3.52608
3.59677
3.66669
3.73544
3.80257
3.86766
3.93025
3.98989
4.04614
4.09856
4.14673
4.19026
4.22875
4.26185
4.28925
4.31066
4.32584
4.33459
4.33681
4.33243
4.32151
4.3042
4.2808
4.25173
4.21759
4.17913
4.13741
4.09371
4.04925
4.00528
3.963
3.92353
3.88784
3.85667
3.83054
3.80972
3.79422
3.7838
3.77803
3.77631
3.77794
3.78217
3.78825
3.7955
3.80337
3.81146
3.81956
3.82759
3.83576
3.84478
3.85495
3.86592
3.87641
3.88398
3.88516
3.87569
3.85097
3.80651
3.73845
3.64415
3.52262
3.37492
3.20433
3.01657
2.81971
2.62338
2.43712
2.26859
2.1237
2.00628
1.91697
1.85396
1.81367
1.79138
1.78082
1.77572
1.77052
1.76307
1.75212
1.73668
1.71604
1.68969
1.65731
1.61869
1.57375
1.52251
1.46507
1.4017
1.33287
1.25894
1.18015
1.09681
1.00914
0.917328
0.821478
0.721681
0.617998
0.510296
0.397536
0.279582
0.170883
0.0803965
0.0245083
0.0071948
0.0052321
0.00483469
0.00441897
0.00399201
0.00360166
0.00326754
0.00299331
0.00277504
0.00260563
0.00247714
0.00238195
0.00231331
0.00226554
0.00223415
0.00221572
0.00220781
0.0022088
0.00221781
0.00223456
0.00225932
0.00229285
0.00233638
0.00239161
0.00246073
0.00254634
0.00265147
0.00277933
0.0029328
0.00311327
0.00331825
0.00353768
0.183656
0.20007
0.218032
0.237149
0.257386
0.278818
0.301622
0.326108
0.352742
0.382152
0.415106
0.452463
0.49511
0.543895
0.599566
0.662716
0.733751
0.812881
0.900132
0.995382
1.09839
1.20877
1.326
1.44926
1.57736
1.70865
1.84103
1.97202
2.09893
2.21918
2.33052
2.43135
2.52094
2.59951
2.66815
2.72862
2.78293
2.83299
2.88037
2.92614
2.97065
3.01522
3.06189
3.11131
3.16347
3.21799
3.27433
3.33194
3.39032
3.44908
3.50783
3.56621
3.62393
3.68076
3.73642
3.79065
3.84315
3.89361
3.94176
3.98728
4.02989
4.06929
4.10521
4.13736
4.16548
4.1893
4.20858
4.22307
4.23257
4.23692
4.23597
4.22968
4.21808
4.20129
4.17959
4.15338
4.12325
4.08994
4.05434
4.01742
3.98026
3.94398
3.90967
3.87837
3.85099
3.82823
3.8106
3.79837
3.79158
3.79003
3.79337
3.80107
3.81253
3.82708
3.84403
3.86271
3.88255
3.90304
3.92378
3.94448
3.96537
3.98691
4.00818
4.0276
4.04272
4.05008
4.04547
4.02427
3.98204
3.91509
3.82114
3.69982
3.55299
3.38468
3.20052
3.00701
2.81138
2.62074
2.44204
2.27861
2.13471
2.01567
1.92188
1.85286
1.80671
1.77993
1.76771
1.76443
1.76448
1.76566
1.76632
1.76498
1.76038
1.75142
1.73721
1.71696
1.69003
1.65588
1.61409
1.56441
1.50677
1.44057
1.36603
1.28336
1.19282
1.09468
0.989241
0.876812
0.757602
0.631389
0.496531
0.353276
0.217287
0.101163
0.0286659
0.00676953
0.00440319
0.0039569
0.00358648
0.00324973
0.00296163
0.00272695
0.00254311
0.00240429
0.00230373
0.00223478
0.00219131
0.00216792
0.00216008
0.0021642
0.00217763
0.00219857
0.00222592
0.00225919
0.00229833
0.00234371
0.00239596
0.00245601
0.00252502
0.00260438
0.00269564
0.00280045
0.00292044
0.00305687
0.00321019
0.00337929
0.00356095
0.202379
0.220297
0.239886
0.26075
0.282853
0.306304
0.331321
0.358275
0.387704
0.420324
0.456991
0.498657
0.546299
0.600843
0.6631
0.733713
0.81312
0.901549
0.999037
1.10546
1.22055
1.34389
1.47487
1.61251
1.75544
1.90169
2.04875
2.19356
2.3327
2.46264
2.58003
2.68211
2.76705
2.83423
2.8844
2.9196
2.94273
2.95713
2.96602
2.97167
2.97807
2.98888
3.00542
3.02773
3.05504
3.08618
3.11993
3.15524
3.19121
3.22718
3.26266
3.2973
3.33085
3.36311
3.39393
3.42316
3.4507
3.47644
3.5003
3.52219
3.54206
3.55984
3.57547
3.58892
3.60012
3.60905
3.61567
3.61996
3.62192
3.62157
3.61899
3.61427
3.60759
3.59917
3.58931
3.5784
3.56689
3.55528
3.54417
3.53421
3.52606
3.5204
3.51786
3.519
3.52425
3.53392
3.54811
3.56677
3.58967
3.61642
3.64654
3.67949
3.7147
3.75162
3.78976
3.82868
3.86799
3.90736
3.94647
3.98498
4.02349
4.06212
4.09816
4.12803
4.14726
4.15068
4.13288
4.08866
4.01374
3.90544
3.76334
3.58995
3.39112
3.17579
2.95465
2.73804
2.53572
2.35152
2.19241
2.05348
1.93204
1.8281
1.74286
1.67745
1.6318
1.60431
1.59194
1.59046
1.59535
1.60494
1.61763
1.63175
1.64567
1.65788
1.66701
1.67185
1.67132
1.66437
1.64992
1.62691
1.59441
1.55151
1.49733
1.43104
1.35198
1.25975
1.15424
1.03562
0.904094
0.759441
0.599515
0.428416
0.263023
0.120763
0.032622
0.00669818
0.00401522
0.00356106
0.00325161
0.00299905
0.00279112
0.00262172
0.00248704
0.0023843
0.0023108
0.0022631
0.00223712
0.00222855
0.00223344
0.00224853
0.0022714
0.00230043
0.00233468
0.00237372
0.00241755
0.00246647
0.00252101
0.00258188
0.0026499
0.00272605
0.00281135
0.00290691
0.00301381
0.00313305
0.00326547
0.00341172
0.00357272
0.217376
0.236339
0.257045
0.27909
0.302437
0.327222
0.353701
0.382293
0.413597
0.448394
0.487614
0.53228
0.583431
0.642048
0.708979
0.78488
0.870191
0.965126
1.0697
1.18376
1.30699
1.43889
1.5787
1.72524
1.87685
2.0312
2.18531
2.33552
2.47765
2.60724
2.71981
2.81137
2.87883
2.92056
2.93674
2.9295
2.90276
2.86171
2.81173
2.76102
2.7165
2.68173
2.65802
2.64483
2.64051
2.64297
2.65017
2.66033
2.67208
2.68444
2.69674
2.70862
2.71985
2.73033
2.74005
2.74903
2.75731
2.76497
2.7721
2.77878
2.78511
2.7912
2.79715
2.80308
2.80911
2.81535
2.82195
2.82902
2.83672
2.84519
2.8546
2.86514
2.87702
2.89046
2.90573
2.92309
2.94282
2.96524
2.99064
3.01933
3.05159
3.08768
3.12781
3.17211
3.22065
3.27339
3.33016
3.39068
3.45453
3.52119
3.59003
3.66041
3.73164
3.80306
3.87407
3.94411
4.01265
4.07913
4.1429
4.20314
4.2605
4.31408
4.35901
4.38976
4.40017
4.38383
4.33458
4.24706
4.11734
3.94361
3.72701
3.4726
3.19024
2.89471
2.60397
2.33437
2.10443
1.92732
1.7889
1.67669
1.58341
1.50568
1.44268
1.3946
1.36136
1.34192
1.33423
1.33565
1.34362
1.35775
1.37723
1.40082
1.42704
1.45429
1.48101
1.50582
1.52751
1.54491
1.55703
1.56308
1.56154
1.55053
1.52786
1.49108
1.43772
1.3655
1.27267
1.15806
1.02105
0.861329
0.676285
0.482236
0.292339
0.130716
0.0339343
0.00691674
0.00419229
0.00369309
0.00337413
0.00312313
0.00291505
0.00274091
0.00259904
0.00248959
0.00241144
0.00236135
0.00233468
0.00232641
0.00233205
0.00234797
0.00237149
0.00240084
0.00243495
0.00247333
0.00251588
0.00256281
0.00261452
0.00267158
0.00273467
0.00280456
0.00288212
0.00296835
0.00306433
0.00317136
0.00329097
0.00342523
0.00357706
0.227168
0.246603
0.267784
0.290297
0.314098
0.339339
0.366296
0.395411
0.427315
0.462818
0.502883
0.548562
0.600924
0.660967
0.729542
0.807296
0.894636
0.991735
1.09855
1.21487
1.34028
1.47415
1.61552
1.76296
1.91447
2.06739
2.21832
2.36315
2.49717
2.61527
2.71221
2.78311
2.824
2.83243
2.8081
2.75321
2.67263
2.57345
2.46645
2.36289
2.26973
2.19155
2.13038
2.08579
2.05567
2.03714
2.02723
2.02341
2.0237
2.02675
2.03168
2.03801
2.0455
2.05408
2.06375
2.07457
2.08663
2.10003
2.11491
2.13139
2.14958
2.16959
2.19149
2.21535
2.24125
2.26925
2.29941
2.3318
2.36652
2.40363
2.44325
2.4855
2.53051
2.57844
2.62946
2.68373
2.74144
2.80276
2.86785
2.93684
3.00985
3.08692
3.16806
3.25326
3.34242
3.4354
3.53199
3.63188
3.73468
3.8399
3.94695
4.05513
4.16366
4.27161
4.378
4.48168
4.58135
4.67547
4.76221
4.83929
4.90636
4.95985
4.9926
4.99815
4.9705
4.90402
4.79353
4.63455
4.42378
4.15987
3.84472
3.4852
3.09498
2.69524
2.31299
1.97045
1.7063
1.52103
1.395
1.30829
1.2466
1.20166
1.16953
1.14861
1.13782
1.13566
1.14015
1.14936
1.16253
1.18038
1.20299
1.22991
1.26026
1.29283
1.32637
1.35975
1.39201
1.42238
1.44993
1.47314
1.49028
1.49914
1.49692
1.4802
1.44513
1.38779
1.30467
1.19278
1.04898
0.876755
0.683205
0.478433
0.279868
0.118048
0.0292671
0.00720197
0.00489029
0.00425049
0.00380438
0.00344985
0.00316055
0.00292629
0.00274297
0.00260675
0.00251204
0.00245176
0.00241861
0.00240595
0.00240833
0.00242157
0.00244269
0.00246969
0.00250137
0.00253711
0.00257674
0.00262039
0.00266841
0.00272129
0.00277967
0.0028443
0.00291608
0.00299608
0.00308558
0.00318617
0.00329989
0.0034294
0.00357821
0.231084
0.25041
0.271434
0.29371
0.31719
0.342023
0.368477
0.396983
0.428152
0.462766
0.501755
0.546137
0.59695
0.655167
0.721617
0.796917
0.88144
0.975309
1.07842
1.19048
1.31094
1.43901
1.5735
1.71276
1.85451
1.99584
2.13316
2.26223
2.37823
2.47597
2.55018
2.5959
2.60907
2.58724
2.53026
2.44084
2.32492
2.19163
2.05455
1.92154
1.79972
1.69522
1.6118
1.55039
1.50942
1.48574
1.47564
1.47573
1.48335
1.49664
1.51445
1.53611
1.56131
1.58995
1.62203
1.6576
1.6967
1.73937
1.78564
1.83556
1.88918
1.94641
2.00711
2.07113
2.1383
2.20848
2.28155
2.35741
2.43601
2.51735
2.60145
2.68837
2.77821
2.87109
2.96716
3.06657
3.16949
3.27609
3.38654
3.501
3.61965
3.74208
3.86788
3.99666
4.12807
4.26169
4.39712
4.53384
4.67131
4.8089
4.94587
5.08139
5.21448
5.344
5.4686
5.58668
5.69628
5.79505
5.88009
5.94784
5.9961
6.01783
6.00464
5.95078
5.8523
5.70597
5.50849
5.25616
4.94529
4.57361
4.14266
3.66094
3.14695
2.63049
2.1499
1.74291
1.43175
1.23527
1.12476
1.06795
1.04152
1.03212
1.03323
1.04175
1.05574
1.07343
1.09315
1.11376
1.1359
1.16102
1.18939
1.2208
1.25458
1.28982
1.32542
1.36005
1.39149
1.41794
1.43821
1.45151
1.45722
1.45434
1.44102
1.41412
1.37016
1.30522
1.21541
1.09803
0.952328
0.780979
0.590886
0.394741
0.214353
0.0817894
0.0204936
0.00768316
0.00588612
0.00500706
0.00433639
0.00380881
0.00339821
0.00308565
0.00285511
0.00269159
0.00258112
0.00251129
0.00247182
0.00245454
0.00245323
0.00246333
0.00248164
0.00250603
0.0025352
0.00256848
0.00260562
0.00264673
0.0026921
0.00274223
0.00279777
0.00285948
0.00292831
0.00300541
0.00309218
0.00319036
0.00330214
0.00343031
0.00357842
0.229731
0.248525
0.268953
0.290515
0.313164
0.337032
0.362353
0.389508
0.419029
0.451602
0.488037
0.529232
0.576109
0.629551
0.690324
0.759013
0.835971
0.921308
1.01489
1.11635
1.22507
1.3401
1.46009
1.58322
1.70708
1.82873
1.94464
2.05083
2.14289
2.21622
2.26625
2.28882
2.28077
2.24053
2.16886
2.06937
1.94849
1.8184
1.68472
1.553
1.42975
1.32166
1.23436
1.17117
1.13236
1.11557
1.11695
1.13251
1.15894
1.19391
1.236
1.28445
1.33893
1.3993
1.46557
1.53784
1.61606
1.7
1.78933
1.88365
1.98254
2.08575
2.19306
2.3043
2.41932
2.53797
2.66016
2.78581
2.91488
3.04733
3.18317
3.32243
3.46512
3.6113
3.76102
3.91432
4.07126
4.23184
4.39608
4.56394
4.73534
4.90999
5.08672
5.26457
5.44268
5.62015
5.79605
5.96937
6.13902
6.30382
6.46251
6.61375
6.75609
6.88799
7.00777
7.1136
7.20343
7.27494
7.32538
7.35147
7.34977
7.31163
7.2304
7.10258
6.9262
6.6989
6.41661
6.07333
5.66224
5.17831
4.62239
4.00607
3.35587
2.71368
2.13061
1.65394
1.3122
1.10571
1.00659
0.974485
0.977155
0.996581
1.02446
1.05703
1.09216
1.12819
1.16379
1.19831
1.23302
1.26958
1.30724
1.34433
1.37825
1.40547
1.42277
1.42869
1.42427
1.41177
1.39376
1.3722
1.34775
1.31944
1.28476
1.24006
1.18125
1.10439
1.00644
0.885957
0.743876
0.584453
0.416574
0.255489
0.123633
0.0432648
0.0139678
0.00832878
0.00674527
0.00561887
0.00473095
0.00404956
0.00354223
0.00317424
0.00291403
0.00273508
0.00261626
0.00254138
0.00249832
0.00247814
0.00247432
0.00248219
0.0024985
0.00252109
0.00254862
0.00258038
0.00261611
0.00265587
0.00269996
0.00274886
0.0028032
0.00286377
0.00293155
0.00300771
0.00309367
0.0031912
0.00330253
0.00343043
0.00357844
0.224804
0.242919
0.262622
0.283366
0.305111
0.327965
0.352117
0.377871
0.405648
0.435978
0.469484
0.506851
0.548796
0.596019
0.649154
0.708713
0.775033
0.848244
0.928251
1.01471
1.107
1.20415
1.30479
1.40708
1.50872
1.60694
1.6986
1.7803
1.84846
1.89949
1.93003
1.93726
1.91927
1.87567
1.80806
1.72012
1.62065
1.51385
1.4027
1.29099
1.18386
1.08753
1.00846
0.951968
0.920742
0.91425
0.929379
0.961977
1.00825
1.0654
1.13163
1.20589
1.28785
1.37721
1.47361
1.57663
1.68604
1.80171
1.92347
2.0512
2.18474
2.32397
2.46875
2.61896
2.77447
2.93516
3.10092
3.27164
3.44721
3.62754
3.81251
4.00201
4.19592
4.3941
4.59638
4.80255
5.01234
5.22545
5.44148
5.65994
5.88026
6.10229
6.32526
6.54801
6.76936
6.988
7.20252
7.41134
7.61277
7.80498
7.98603
8.15395
8.30671
8.4423
8.55875
8.65415
8.72667
8.77452
8.79592
8.78893
8.75068
8.67409
8.55489
8.38993
8.17511
7.90392
7.56705
7.15324
6.65142
6.05447
5.36465
4.60002
3.79901
3.01859
2.32237
1.76189
1.36187
1.11721
0.998163
0.962284
0.971719
1.003
1.04465
1.09126
1.13967
1.18723
1.23138
1.26954
1.30052
1.32326
1.33503
1.33379
1.32082
1.29938
1.2731
1.24503
1.2171
1.19001
1.16328
1.13551
1.10466
1.06826
1.02365
0.968191
0.899575
0.816121
0.717224
0.603891
0.479429
0.350326
0.227115
0.124073
0.0546773
0.02141
0.0112626
0.00861525
0.00706992
0.0058187
0.00483534
0.00409841
0.00356447
0.00318647
0.00292391
0.00274522
0.00262695
0.00255215
0.00250862
0.00248757
0.00248268
0.00248943
0.00250468
0.0025263
0.002553
0.00258404
0.00261914
0.00265836
0.00270198
0.00275045
0.00280443
0.00286468
0.00293219
0.00300811
0.00309389
0.00319131
0.00330256
0.00343042
0.00357843
0.218198
0.235738
0.254868
0.275014
0.296157
0.318383
0.341848
0.366781
0.393491
0.422344
0.453754
0.488161
0.526018
0.56777
0.613837
0.664578
0.720255
0.781
0.84678
0.917359
0.992248
1.07064
1.15136
1.23281
1.31303
1.38973
1.46043
1.52252
1.57344
1.61075
1.63225
1.63616
1.62134
1.58753
1.53616
1.47144
1.3956
1.311
1.22032
1.12702
1.03565
0.951848
0.882174
0.832751
0.807903
0.808749
0.833033
0.876606
0.935318
1.00604
1.08674
1.17622
1.27363
1.37856
1.49083
1.61037
1.73712
1.87103
2.01206
2.16012
2.31514
2.47697
2.64546
2.82044
3.0017
3.18902
3.38215
3.58085
3.78487
3.99395
4.20785
4.42633
4.64915
4.8761
5.10691
5.34131
5.57897
5.8195
6.06238
6.30698
6.55249
6.79795
7.04339
7.28879
7.53368
7.7772
8.0182
8.25533
8.48702
8.71159
8.92726
9.1322
9.32453
9.50239
9.66385
9.80691
9.92949
10.0293
10.104
10.151
10.1691
10.154
10.0976
9.98888
9.81386
9.55637
9.20024
8.73108
8.13813
7.41718
6.57613
5.64253
4.66843
3.72527
2.88483
2.1954
1.67212
1.30759
1.08408
0.97413
0.940988
0.94919
0.974484
1.0036
1.0296
1.04869
1.05891
1.05978
1.05233
1.03829
1.0209
1.00371
0.987334
0.9716
0.955854
0.939194
0.920625
0.899111
0.873589
0.842979
0.806202
0.762231
0.710165
0.649354
0.579591
0.501368
0.416228
0.327175
0.239038
0.158471
0.0929144
0.0478641
0.0233762
0.0134061
0.0100011
0.00822978
0.00678426
0.00559252
0.00466857
0.00398456
0.00349213
0.00314382
0.00290099
0.00273454
0.00262338
0.00255236
0.00251058
0.0024901
0.00248517
0.00249158
0.0025064
0.00252762
0.00255395
0.0025847
0.0026196
0.00265866
0.00270217
0.00275057
0.0028045
0.00286472
0.00293221
0.00300812
0.0030939
0.00319131
0.00330256
0.00343042
0.00357843
0.211025
0.228199
0.247
0.266874
0.287823
0.309934
0.333342
0.35823
0.384823
0.413364
0.444098
0.477256
0.513047
0.551657
0.593256
0.637992
0.685978
0.737275
0.791869
0.849636
0.910295
0.973342
1.03799
1.10316
1.16747
1.22936
1.28715
1.33914
1.38368
1.41914
1.44391
1.45636
1.45479
1.43831
1.40617
1.35807
1.29525
1.22024
1.13663
1.0487
0.961613
0.881321
0.813906
0.76555
0.741188
0.742819
0.768749
0.81486
0.876766
0.951101
1.03569
1.12927
1.23109
1.34077
1.45815
1.58314
1.71573
1.85587
2.00351
2.15857
2.32089
2.49028
2.66646
2.84911
3.03781
3.23207
3.43135
3.63503
3.84248
4.05304
4.26608
4.48101
4.69733
4.91465
5.13269
5.35132
5.57056
5.79053
6.01141
6.23344
6.45682
6.68167
6.90789
7.13486
7.36152
7.59103
7.82525
8.06494
8.31042
8.56189
8.81964
9.0841
9.35572
9.63477
9.92098
10.2131
10.5085
10.8025
11.0884
11.3573
11.6094
11.8423
12.0318
12.1446
12.1439
11.9957
11.6754
11.1711
10.4826
9.61898
8.60111
7.46961
6.29103
5.15062
4.12581
3.25617
2.53827
1.95146
1.48584
1.14605
0.933062
0.825944
0.785052
0.773261
0.769342
0.765316
0.759501
0.752199
0.744201
0.735965
0.726933
0.716146
0.703271
0.687925
0.669772
0.648513
0.623876
0.59561
0.563491
0.527338
0.487043
0.442628
0.394324
0.342675
0.288664
0.233834
0.18036
0.130967
0.0885762
0.0555988
0.0330317
0.0198645
0.0133965
0.0104578
0.00874733
0.00734139
0.00612206
0.00512773
0.00436096
0.00379003
0.0033734
0.00307346
0.0028603
0.00271146
0.00261041
0.00254496
0.00250608
0.002487
0.00248265
0.00248926
0.00250411
0.00252532
0.00255169
0.00258253
0.00261757
0.00265683
0.00270057
0.00274923
0.00280342
0.0028639
0.00293162
0.00300774
0.00309368
0.00319121
0.00330253
0.00343043
0.00357844
0.203254
0.22019
0.238799
0.258587
0.279577
0.301866
0.325588
0.350907
0.378005
0.40706
0.438225
0.471618
0.507274
0.545172
0.585263
0.627488
0.671782
0.71808
0.766319
0.81643
0.868311
0.921781
0.976522
1.03205
1.0877
1.1427
1.19619
1.24722
1.29474
1.3374
1.37347
1.40053
1.4156
1.41469
1.39475
1.35427
1.29408
1.21731
1.12902
1.03478
0.940905
0.854134
0.781117
0.72801
0.699463
0.697138
0.719097
0.761175
0.819084
0.889568
0.970503
1.0606
1.15909
1.26555
1.37975
1.50154
1.63085
1.7676
1.91168
2.06295
2.22121
2.38618
2.55746
2.73458
2.91689
3.10361
3.29379
3.48632
3.6799
3.87312
4.06444
4.25235
4.43538
4.61227
4.78207
4.9443
5.09906
5.24711
5.38989
5.52946
5.66833
5.80924
5.95499
6.10827
6.27155
6.44095
6.61499
6.80263
7.01045
7.2438
7.50762
7.80713
8.14801
8.53621
8.97723
9.4751
10.0308
10.6406
11.2942
11.9741
12.6827
13.4251
14.1479
14.7757
15.2229
15.4114
15.2902
14.8458
14.0985
13.0888
11.8682
10.5017
9.07872
7.70691
6.48039
5.4388
4.55629
3.77164
3.03102
2.31685
1.65803
1.11806
0.754106
0.567106
0.496224
0.472532
0.460991
0.451201
0.441208
0.430445
0.418831
0.405833
0.390817
0.373639
0.354293
0.333037
0.310306
0.286279
0.261087
0.234893
0.207932
0.180542
0.153192
0.126493
0.10119
0.0781044
0.0580406
0.0416347
0.0291892
0.0205496
0.0150988
0.011906
0.00999233
0.00861363
0.00741103
0.00632212
0.0053854
0.00462471
0.00403123
0.00357922
0.00324017
0.00298909
0.0028059
0.00267505
0.00258458
0.00252525
0.00248984
0.00247271
0.00246948
0.00247681
0.00249223
0.002514
0.00254099
0.00257254
0.0026084
0.00264856
0.00269327
0.00274295
0.00279817
0.0028597
0.00292843
0.00300547
0.00309221
0.00319037
0.00330215
0.00343031
0.00357842
0.194119
0.210749
0.229075
0.24868
0.269606
0.291963
0.315896
0.34157
0.369156
0.398814
0.430668
0.464786
0.501155
0.539669
0.580089
0.622182
0.665731
0.710538
0.756451
0.803384
0.85133
0.900339
0.95048
1.00179
1.05425
1.10776
1.1621
1.21683
1.27113
1.32354
1.37167
1.41188
1.43933
1.44873
1.43567
1.3978
1.33562
1.25268
1.15484
1.04938
0.944167
0.847157
0.765699
0.705932
0.671806
0.663991
0.679849
0.715063
0.765542
0.828276
0.901293
0.983354
1.07369
1.17181
1.27742
1.39033
1.51039
1.63746
1.7714
1.912
2.05901
2.21209
2.37082
2.53463
2.7028
2.87444
3.04843
3.22348
3.39807
3.57045
3.73868
3.90062
4.05419
4.19732
4.32803
4.44458
4.54564
4.63044
4.69899
4.75232
4.79272
4.82398
4.8515
4.88226
4.92453
4.98741
5.07784
5.18654
5.31411
5.46719
5.65475
5.88818
6.18132
6.55051
7.01432
7.59254
8.30324
9.15903
10.1615
11.2958
12.5787
14.0383
15.5933
17.1096
18.4196
19.3566
19.7967
19.6895
19.0634
18.0009
16.6052
14.9873
13.2752
11.6153
10.1405
8.91942
7.93206
7.09325
6.29921
5.45994
4.5154
3.45159
2.32758
1.30063
0.579884
0.24646
0.158829
0.142632
0.136321
0.130616
0.124687
0.118628
0.11258
0.106636
0.100859
0.0949283
0.088352
0.08117
0.0735096
0.0656018
0.057678
0.0499155
0.0424967
0.0356066
0.0294174
0.0240685
0.0196438
0.0161524
0.0135193
0.0115915
0.0101657
0.00903387
0.00803664
0.00709679
0.00621186
0.00541432
0.00473148
0.00416996
0.00372045
0.00336702
0.00309318
0.00288422
0.00272782
0.00261381
0.00253385
0.00248104
0.00244969
0.00243516
0.0024337
0.00244238
0.00245901
0.00248202
0.00251038
0.0025435
0.00258114
0.00262332
0.00267027
0.0027224
0.00278031
0.00284466
0.00291627
0.00299617
0.00308562
0.00318618
0.0032999
0.0034294
0.00357821
0.182853
0.198925
0.216675
0.235755
0.256221
0.278195
0.30183
0.327294
0.354765
0.384405
0.416339
0.450635
0.48728
0.526166
0.567064
0.609559
0.653293
0.697977
0.743368
0.789319
0.835827
0.883046
0.931267
0.980873
1.03227
1.08582
1.1417
1.19971
1.25905
1.31787
1.37343
1.42135
1.45589
1.4711
1.46195
1.42563
1.36237
1.27565
1.1717
1.05886
0.946027
0.842076
0.7549
0.690502
0.652024
0.639125
0.648603
0.676175
0.718063
0.771557
0.83487
0.906845
0.986727
1.07402
1.16839
1.2696
1.37746
1.4918
1.61242
1.73912
1.8716
2.00952
2.15246
2.29984
2.45096
2.60488
2.76045
2.91629
3.07114
3.22367
3.37213
3.5123
3.64299
3.76251
3.86908
3.96098
4.0367
4.09513
4.13564
4.15824
4.16367
4.15354
4.13035
4.09766
4.06018
4.02417
3.99796
3.99279
4.0121
4.05944
4.13853
4.25492
4.41846
4.64667
4.96899
5.42979
6.06872
6.93927
8.0778
9.48666
11.2085
13.3102
15.7096
18.2289
20.6192
22.6126
23.9824
24.5971
24.4488
23.637
22.3092
20.6069
18.6753
16.6935
14.8622
13.3275
12.1167
11.1492
10.3045
9.46587
8.53675
7.44064
6.12147
4.56257
2.85068
1.28654
0.3336
0.0582946
0.0315901
0.0294766
0.0283211
0.0271318
0.0259324
0.0247613
0.0236358
0.0225607
0.0215377
0.0205694
0.0196579
0.0186976
0.0176204
0.0164636
0.015286
0.0141262
0.0130171
0.0119828
0.0110359
0.0101756
0.00938782
0.00864944
0.00793588
0.00723048
0.00653174
0.00585427
0.00522152
0.00465446
0.0041641
0.0037513
0.00341069
0.00313438
0.00291404
0.00274176
0.00261032
0.00251323
0.00244468
0.00239952
0.00237331
0.00236224
0.00236321
0.00237372
0.00239193
0.00241649
0.00244656
0.00248168
0.0025217
0.00256671
0.00261699
0.00267308
0.00273555
0.00280505
0.00288239
0.00296848
0.00306439
0.00317138
0.00329098
0.00342523
0.00357706
0.169232
0.184409
0.201194
0.219295
0.238776
0.259762
0.282404
0.306872
0.333343
0.361983
0.392925
0.426247
0.461953
0.499954
0.540049
0.581915
0.625003
0.668945
0.713449
0.758307
0.803466
0.849077
0.895498
0.94325
0.992947
1.04517
1.10028
1.15819
1.218
1.27814
1.33564
1.38574
1.4226
1.44018
1.43344
1.39949
1.33845
1.2536
1.15101
1.03898
0.926623
0.823036
0.736112
0.671426
0.631353
0.614925
0.618865
0.639271
0.67284
0.717201
0.770756
0.832433
0.901506
0.977479
1.06
1.14883
1.24374
1.34456
1.45108
1.56309
1.68033
1.8025
1.92926
2.06018
2.1947
2.33203
2.47078
2.6075
2.74204
2.8734
3.00001
3.11991
3.23137
3.33274
3.42246
3.49904
3.56121
3.608
3.63883
3.65359
3.65272
3.63723
3.60874
3.56945
3.52219
3.4704
3.41834
3.37129
3.3368
3.31947
3.32395
3.35527
3.41996
3.5286
3.70119
3.97722
4.43264
5.19468
6.3968
8.03239
10.0533
12.5102
15.3824
18.5041
21.6011
24.37
26.5417
27.9339
28.4832
28.2396
27.3087
25.8523
24.0386
22.0163
19.9564
18.0828
16.5704
15.3769
14.3805
13.4501
12.4778
11.3815
10.0922
8.5386
6.6476
4.40721
2.08519
0.483196
0.0445114
0.0166825
0.0157066
0.0151725
0.0145652
0.0139442
0.0133543
0.0128073
0.0123012
0.0118309
0.0113911
0.0109765
0.0105819
0.0102
0.00980477
0.0094001
0.00898683
0.00856425
0.00813109
0.0076855
0.00722558
0.00675064
0.00626294
0.00576918
0.00528066
0.00481136
0.00437448
0.00397947
0.0036311
0.00333025
0.00307538
0.00286362
0.00269139
0.00255474
0.0024495
0.0023715
0.00231664
0.00228112
0.0022615
0.00225479
0.00225851
0.00227072
0.00228997
0.00231529
0.00234611