/*--------------------------------*- C++ -*----------------------------------*\
| =========                 |                                                 |
| \\      /  F ield         | OpenFOAM: The Open Source CFD Toolbox           |
|  \\    /   O peration     | Version:  2406                                  |
|   \\  /    A nd           | Website:  www.openfoam.com                      |
|    \\/     M anipulation  |                                                 |
\*---------------------------------------------------------------------------*/
FoamFile
{
    version     2.0;
    format      ascii;
    arch        "LSB;label=32;scalar=64";
    class       volScalarField;
    location    "200";
    object      nut;
}
// * * * * * * * * * * * * * * * * * * * * * * * * * * * * * * * * * * * * * //

dimensions      [0 2 -1 0 0 0 0];

internalField   nonuniform List<scalar> 
5619
(
5.80892e-05
5.97511e-05
6.15019e-05
6.33078e-05
6.51569e-05
6.70543e-05
6.90134e-05
7.10599e-05
7.32306e-05
7.55711e-05
7.81312e-05
8.0959e-05
8.40948e-05
8.75661e-05
9.13848e-05
9.55455e-05
0.000100026
0.000104793
0.000109802
0.000115012
0.00012038
0.000125869
0.00013144
0.000137049
0.000142641
0.000148152
0.000153511
0.000158654
0.00016353
0.000168111
0.000172388
0.000176374
0.000180087
0.000183548
0.000186773
0.000189772
0.000192558
0.000195145
0.000197555
0.000199823
0.00020199
0.000204103
0.00020621
0.000208351
0.000210554
0.000212832
0.000215187
0.000217616
0.000220109
0.000222651
0.000225227
0.000227819
0.000230407
0.000232969
0.000235483
0.000237929
0.000240283
0.000242525
0.000244633
0.000246588
0.000248373
0.000249972
0.000251374
0.000252571
0.000253561
0.000254346
0.000254938
0.000255351
0.00025561
0.000255744
0.000255788
0.000255785
0.000255778
0.000255814
0.000255944
0.000256108
0.000256317
0.000256565
0.000256846
0.000257148
0.000257456
0.000257754
0.000258023
0.000258243
0.000258397
0.000258466
0.000258437
0.0002583
0.000258051
0.000257694
0.000257239
0.000256704
0.000256115
0.000255504
0.000254905
0.000254353
0.000253882
0.000253516
0.000253271
0.000253147
0.000253129
0.00025319
0.000253284
0.00025335
0.000253309
0.00025306
0.000252479
0.000251422
0.000249723
0.000247209
0.000243704
0.000239049
0.000233124
0.000225888
0.000217425
0.000207985
0.000198009
0.000188096
0.000178897
0.000170994
0.000164793
0.000160447
0.000157835
0.00015662
0.000156346
0.000156626
0.000157258
0.00015742
0.000157042
0.000156278
0.000155158
0.000153698
0.000151889
0.000149724
0.000147197
0.0001443
0.000141022
0.000137353
0.000133273
0.000128823
0.000124233
0.000119393
0.000114232
0.000108699
0.000102748
9.63329e-05
8.93966e-05
8.18732e-05
7.36854e-05
6.47715e-05
5.47096e-05
4.50471e-05
3.43591e-05
2.39228e-05
1.49064e-05
9.86977e-06
9.09543e-06
9.80718e-06
1.07501e-05
1.17453e-05
1.27182e-05
1.36246e-05
1.44428e-05
1.51645e-05
1.57898e-05
1.63237e-05
1.67735e-05
1.71482e-05
1.74572e-05
1.77099e-05
1.79151e-05
1.80808e-05
1.82144e-05
1.83225e-05
1.84112e-05
1.84863e-05
1.85543e-05
1.86236e-05
1.87065e-05
1.88221e-05
1.8997e-05
1.92636e-05
1.96488e-05
2.01484e-05
2.06657e-05
2.08466e-05
1.95834e-05
0.000352981
0.000373768
0.000396716
0.000419775
0.000442839
0.000465793
0.000488653
0.000511539
0.000534689
0.00055844
0.000583193
0.00060936
0.000637315
0.000667349
0.000699646
0.000734265
0.000771122
0.000809985
0.000850477
0.00089211
0.00093434
0.00097663
0.0010185
0.00105951
0.00109928
0.0011374
0.00117345
0.00120706
0.00123798
0.00126624
0.00129219
0.00131652
0.00134012
0.00136387
0.0013884
0.00141398
0.00144041
0.00146718
0.00149359
0.00151897
0.00154281
0.00156489
0.00158536
0.00160469
0.00162351
0.00164232
0.00166148
0.00168125
0.00170176
0.00172307
0.0017452
0.00176815
0.00179186
0.00181624
0.0018412
0.00186661
0.00189232
0.00191819
0.00194407
0.00196977
0.00199512
0.0020199
0.00204392
0.00206695
0.00208874
0.00210905
0.00212764
0.00214426
0.0021587
0.00217076
0.0021803
0.00218725
0.00219157
0.00219334
0.00219267
0.00219284
0.00219482
0.0021983
0.00220354
0.00221083
0.00222032
0.00223207
0.00224594
0.00226171
0.00227899
0.00229728
0.002316
0.00233452
0.0023522
0.00236841
0.00238264
0.00239451
0.00240383
0.00241065
0.00241527
0.00241823
0.00242028
0.00242231
0.00242527
0.00243003
0.00243729
0.00244822
0.00246317
0.00248198
0.00250401
0.00252807
0.00255249
0.00257508
0.00259324
0.00260405
0.00260441
0.00259134
0.00256227
0.00251559
0.00245127
0.00237146
0.00228072
0.00218556
0.00209319
0.00201031
0.00194205
0.0018913
0.00185835
0.00184091
0.00183474
0.0018342
0.00183323
0.00182854
0.00181906
0.00180463
0.0017855
0.00176188
0.00173385
0.00170148
0.00166484
0.00162403
0.00157913
0.00153018
0.001477
0.00141825
0.00134781
0.00127554
0.00120162
0.00112644
0.00105041
0.000973961
0.000897522
0.000821596
0.000746908
0.000674237
0.000608021
0.00052581
0.000415945
0.00026781
0.000137311
6.764e-05
5.06833e-05
4.57188e-05
4.38122e-05
4.26389e-05
4.20036e-05
4.17329e-05
4.16978e-05
4.18052e-05
4.19825e-05
4.21737e-05
4.23379e-05
4.24465e-05
4.24809e-05
4.24286e-05
4.22797e-05
4.20247e-05
4.16505e-05
4.11376e-05
4.04567e-05
3.95664e-05
3.84117e-05
3.69273e-05
3.50503e-05
3.27486e-05
3.00699e-05
2.72007e-05
2.45092e-05
2.25519e-05
2.21277e-05
2.48021e-05
3.63037e-05
0.00096281
0.00101504
0.00107216
0.00112899
0.00118515
0.00124033
0.00129451
0.00134794
0.00140118
0.00145508
0.00151073
0.00156929
0.00163189
0.00169948
0.00177274
0.00185198
0.0019371
0.0020276
0.00212257
0.00222081
0.00232105
0.00242209
0.00252288
0.00262255
0.00272021
0.00281481
0.0029051
0.00298969
0.00306733
0.00313726
0.00319949
0.00325491
0.0033051
0.00335195
0.00339713
0.00344166
0.00348573
0.00352884
0.00357007
0.00360851
0.0036435
0.00367493
0.00370331
0.00372973
0.00375577
0.00378263
0.00381119
0.00384206
0.00387566
0.00391202
0.00395124
0.00399333
0.00403822
0.00408576
0.00413573
0.00418791
0.00424201
0.00429775
0.00435479
0.00441275
0.00447125
0.00452984
0.00458805
0.00464539
0.00470132
0.00475532
0.00480682
0.00485529
0.00490023
0.00494118
0.0049778
0.00500983
0.00503718
0.00505996
0.0050785
0.00509341
0.00510664
0.00512062
0.00513492
0.00514995
0.00516623
0.00518415
0.00520397
0.00522573
0.00524931
0.00527434
0.00530031
0.00532655
0.00535229
0.00537673
0.0053991
0.00541878
0.00543533
0.00544857
0.00545866
0.0054661
0.00547168
0.00547648
0.00548176
0.00548874
0.00549867
0.00551341
0.005534
0.00556037
0.00559122
0.00562398
0.00565485
0.00567909
0.00569127
0.00568566
0.00565669
0.00559947
0.00551048
0.00538836
0.00523475
0.005055
0.00485829
0.0046567
0.00446317
0.00428956
0.00414501
0.0040348
0.00395946
0.003915
0.00389389
0.00388668
0.00388392
0.00387856
0.00386599
0.00384462
0.003814
0.00377395
0.00372433
0.00366504
0.00359602
0.0035172
0.00342853
0.00332988
0.00322084
0.00310001
0.00296343
0.00281901
0.00266736
0.0025093
0.00234579
0.00217794
0.00200695
0.00183417
0.00166103
0.00148824
0.00131633
0.00111337
0.000849384
0.000523909
0.000236628
9.70435e-05
7.06709e-05
6.51361e-05
6.19246e-05
5.94645e-05
5.76761e-05
5.6419e-05
5.55506e-05
5.49482e-05
5.45071e-05
5.41413e-05
5.37833e-05
5.33823e-05
5.29022e-05
5.23191e-05
5.16183e-05
5.0793e-05
4.98433e-05
4.87765e-05
4.76092e-05
4.63725e-05
4.51184e-05
4.39306e-05
4.2938e-05
4.233e-05
4.23736e-05
4.34351e-05
4.60362e-05
5.10363e-05
6.02081e-05
7.81198e-05
0.000121796
0.00177903
0.00186287
0.0019542
0.0020444
0.00213265
0.00221828
0.00230118
0.00238172
0.00246091
0.00254035
0.00262212
0.00270855
0.00280187
0.00290398
0.0030162
0.00313913
0.00327255
0.00341547
0.00356625
0.00372278
0.00388291
0.00404464
0.00420628
0.00436631
0.00452316
0.00467485
0.00481893
0.00495262
0.00507326
0.00517887
0.00526869
0.00534341
0.00540507
0.00545659
0.00550104
0.00554101
0.00557818
0.00561326
0.00564625
0.00567689
0.00570499
0.00573081
0.00575477
0.00577764
0.0058016
0.00582817
0.00585837
0.00589302
0.00593298
0.00597773
0.00602733
0.00608178
0.00614093
0.00620443
0.00627197
0.00634316
0.00641762
0.00649487
0.00657443
0.00665576
0.0067383
0.00682143
0.00690453
0.00698693
0.007068
0.00714705
0.00722345
0.00729657
0.00736585
0.00743078
0.00749092
0.00754594
0.00759558
0.00763973
0.00767836
0.00771158
0.00773962
0.00776354
0.00778511
0.00780452
0.00782239
0.00783943
0.00785631
0.00787364
0.00789186
0.00791127
0.00793199
0.0079539
0.00797673
0.00800004
0.00802329
0.00804586
0.00806719
0.00808679
0.00810435
0.00811979
0.00813326
0.00814519
0.00815623
0.00816717
0.00817899
0.00819286
0.00820945
0.00822854
0.00824835
0.0082654
0.00827463
0.00826985
0.00824433
0.00819152
0.00810578
0.00798314
0.00782204
0.007624
0.00739398
0.00714063
0.00687573
0.00661297
0.00636612
0.00614745
0.00596633
0.00582807
0.0057329
0.00567609
0.005649
0.00564085
0.00564086
0.00564004
0.0056322
0.00561495
0.00558691
0.00554712
0.0054948
0.00542936
0.0053503
0.00525713
0.0051494
0.00502662
0.00488817
0.00473314
0.0045602
0.00437014
0.00416456
0.00394401
0.00370933
0.00346163
0.00320227
0.00293268
0.00265379
0.00236406
0.0020551
0.00169365
0.00125276
0.000747631
0.000309951
0.00011162
7.96913e-05
7.37968e-05
6.9748e-05
6.64629e-05
6.39881e-05
6.22545e-05
6.11538e-05
6.0575e-05
6.04121e-05
6.05673e-05
6.09548e-05
6.15035e-05
6.21609e-05
6.2895e-05
6.36967e-05
6.45807e-05
6.55858e-05
6.67764e-05
6.82441e-05
7.01103e-05
7.25295e-05
7.5693e-05
7.98329e-05
8.52291e-05
9.22259e-05
0.000101285
0.000113137
0.000129165
0.000152356
0.000189882
0.000263034
0.00271218
0.00282603
0.00294934
0.00307017
0.00318702
0.00329884
0.0034054
0.00350735
0.00360637
0.00370515
0.00380715
0.00391615
0.00403575
0.00416885
0.00431735
0.00448194
0.00466208
0.00485612
0.0050615
0.00527516
0.00549397
0.00571508
0.00593603
0.00615449
0.00636796
0.00657331
0.00676672
0.00694382
0.00710035
0.00723284
0.00733938
0.00742003
0.00747694
0.00751393
0.00753585
0.00754762
0.00755355
0.00755683
0.00755953
0.00756287
0.00756752
0.00757234
0.00757742
0.00758681
0.00760175
0.0076227
0.00764964
0.00768231
0.00772022
0.00776412
0.00781414
0.00787034
0.00793256
0.00799999
0.00807221
0.00814877
0.0082292
0.00831299
0.00839956
0.00848833
0.00857869
0.00866999
0.00876157
0.00885278
0.00894295
0.00903141
0.00911751
0.00920062
0.00928012
0.00935544
0.00942604
0.00949141
0.0095511
0.00960471
0.00965193
0.00969252
0.00972635
0.00975344
0.00977448
0.00979062
0.00980282
0.00981205
0.00981937
0.00982581
0.0098324
0.00984002
0.00984943
0.00986113
0.00987541
0.00989228
0.00991152
0.00993269
0.00995521
0.0099784
0.0100016
0.0100241
0.0100454
0.0100652
0.0100834
0.0100998
0.0101149
0.0101282
0.0101385
0.0101445
0.0101436
0.0101313
0.0101018
0.0100485
0.00996452
0.00984417
0.00968373
0.00948248
0.00924334
0.00897306
0.00868173
0.00838163
0.00808549
0.00780486
0.00754944
0.00732767
0.00714644
0.00700986
0.00691821
0.00686712
0.00684824
0.0068501
0.00686204
0.00687485
0.00688252
0.00688282
0.00687372
0.00685349
0.00682064
0.00677387
0.006712
0.00663395
0.00653868
0.00642518
0.00629248
0.00613966
0.00596598
0.0057684
0.0055458
0.00529796
0.00502476
0.00472625
0.00440256
0.00405369
0.00367841
0.00327138
0.00281685
0.00228165
0.00165114
0.000953015
0.000366977
0.000117337
8.08888e-05
7.522e-05
7.17619e-05
6.94865e-05
6.84902e-05
6.87863e-05
7.03223e-05
7.29955e-05
7.66545e-05
8.11052e-05
8.61303e-05
9.15166e-05
9.70851e-05
0.000102712
0.000108338
0.000113969
0.000119666
0.000125534
0.000131711
0.000138361
0.000145668
0.000153834
0.00016309
0.000173719
0.000186105
0.000200833
0.000218856
0.00024182
0.000272631
0.00031637
0.000381117
0.00370102
0.00384315
0.00399581
0.00414402
0.00428545
0.00441869
0.00454353
0.00466106
0.00477395
0.00488631
0.00500329
0.00513034
0.00527247
0.00543355
0.00561588
0.00582005
0.00604499
0.00628824
0.00654628
0.00681509
0.00709059
0.00736908
0.00764722
0.00792181
0.00818927
0.00844529
0.00868458
0.00890119
0.00908907
0.00924291
0.00935904
0.00943609
0.0094754
0.00948101
0.00945916
0.00941743
0.0093637
0.00930507
0.00924728
0.0091944
0.00914664
0.00910358
0.00907162
0.00905221
0.00904474
0.00904788
0.00906018
0.00908042
0.00910768
0.00914145
0.00918118
0.00922628
0.00927627
0.00933137
0.00939127
0.00945556
0.00952375
0.00959537
0.00966988
0.00974676
0.00982544
0.00990539
0.00998601
0.0100667
0.010147
0.0102261
0.0103036
0.0103788
0.0104512
0.01052
0.0105848
0.0106449
0.0106998
0.0107489
0.0107919
0.0108282
0.0108575
0.0108798
0.0108954
0.0109056
0.0109115
0.010914
0.0109145
0.010914
0.0109138
0.0109151
0.0109189
0.010926
0.0109368
0.0109515
0.0109701
0.0109922
0.0110173
0.0110447
0.0110734
0.0111027
0.0111317
0.0111596
0.0111857
0.0112094
0.0112308
0.0112472
0.0112552
0.0112507
0.011229
0.011184
0.0111084
0.010995
0.0108372
0.0106309
0.0103754
0.0100748
0.00973862
0.00938183
0.00902303
0.00868134
0.00837178
0.00810151
0.0078706
0.00767822
0.00752516
0.00741205
0.00734069
0.00730893
0.00731042
0.00733569
0.00737423
0.00741638
0.00745703
0.00749464
0.00752658
0.00755036
0.00756372
0.00756453
0.00755082
0.00752072
0.00747244
0.00740426
0.00731461
0.0072021
0.00706517
0.0068973
0.00669667
0.00646126
0.00618884
0.00587704
0.0055233
0.00512442
0.00467522
0.00416529
0.00357264
0.00286541
0.00204247
0.00114869
0.000416567
0.000123194
8.37928e-05
7.99255e-05
7.96529e-05
8.17715e-05
8.63382e-05
9.33523e-05
0.000102637
0.000113788
0.000126193
0.00013914
0.000151973
0.000164213
0.000175599
0.000186067
0.000195694
0.000204641
0.000213115
0.000221341
0.000229547
0.000237962
0.000246816
0.000256344
0.000266805
0.000278501
0.000291813
0.000307238
0.000325445
0.000347297
0.000373763
0.000405359
0.000440262
0.00469624
0.0048647
0.00504382
0.00521594
0.00537787
0.00552789
0.00566591
0.00579369
0.00591509
0.00603585
0.00616294
0.0063036
0.00646422
0.00664953
0.00686214
0.0071024
0.00736863
0.0076575
0.00796457
0.00828489
0.00861355
0.00894598
0.00927801
0.00960549
0.00992384
0.0102275
0.01051
0.0107636
0.0109804
0.011153
0.0112751
0.0113428
0.0113552
0.011315
0.0112284
0.0111049
0.0109561
0.0107942
0.0106308
0.0104744
0.0103266
0.0102018
0.0101043
0.010033
0.00998431
0.00995404
0.00993822
0.00993361
0.00993786
0.00994932
0.00996686
0.00998971
0.0100173
0.0100495
0.0100857
0.0101256
0.010169
0.0102153
0.0102642
0.0103154
0.0103684
0.0104229
0.0104784
0.0105345
0.0105907
0.0106466
0.0107017
0.0107555
0.0108073
0.0108568
0.0109032
0.0109462
0.0109851
0.0110197
0.0110497
0.0110749
0.0110952
0.0111111
0.0111229
0.0111314
0.0111376
0.0111424
0.011147
0.0111526
0.0111603
0.0111713
0.0111862
0.0112058
0.0112301
0.0112591
0.0112925
0.0113297
0.0113699
0.0114122
0.0114558
0.0114997
0.0115431
0.0115852
0.011625
0.0116618
0.0116957
0.0117226
0.0117358
0.0117277
0.01169
0.0116133
0.011488
0.0113052
0.0110579
0.0107431
0.0103629
0.00992647
0.00945118
0.00896282
0.00849373
0.00807786
0.00774101
0.00748707
0.00730176
0.00716496
0.00706499
0.00699814
0.00696527
0.00696717
0.00700132
0.0070613
0.00713809
0.00722236
0.00731083
0.00740296
0.00749527
0.00758439
0.0076671
0.00774041
0.00780157
0.007848
0.00787724
0.00788697
0.00787498
0.00783838
0.00777122
0.00766984
0.00752994
0.00734659
0.00711435
0.0068273
0.00647888
0.00606138
0.00556438
0.00497154
0.0042547
0.00338978
0.00238676
0.00131519
0.00045968
0.000136799
0.000100707
0.000101745
0.00010859
0.000119853
0.000135194
0.000153859
0.000174554
0.000195666
0.000215722
0.000233781
0.000249516
0.000263044
0.00027469
0.000284835
0.000293837
0.000302012
0.000309637
0.000316957
0.000324196
0.000331556
0.000339227
0.000347392
0.000356228
0.000365911
0.000376617
0.000388511
0.000401705
0.000416186
0.00043163
0.000447094
0.000460657
0.00565214
0.00584465
0.00604727
0.00623997
0.00641872
0.00658156
0.00672858
0.00686224
0.00698758
0.00711192
0.007244
0.00739273
0.00756587
0.00776903
0.00800516
0.00827445
0.00857469
0.0089018
0.00925051
0.00961507
0.00998978
0.0103693
0.0107486
0.0111227
0.0114861
0.011832
0.0121529
0.0124396
0.0126825
0.0128718
0.0129984
0.0130551
0.0130374
0.0129444
0.0127801
0.012553
0.0122767
0.0119684
0.0116463
0.0113207
0.0110243
0.0107736
0.0105741
0.0104231
0.0103135
0.0102368
0.0101848
0.010151
0.0101303
0.0101193
0.0101157
0.010118
0.0101254
0.0101371
0.0101528
0.010172
0.0101942
0.0102193
0.0102468
0.0102764
0.0103076
0.0103402
0.0103736
0.0104074
0.0104413
0.0104748
0.0105074
0.0105387
0.0105685
0.0105964
0.0106221
0.0106454
0.0106664
0.0106851
0.0107017
0.0107166
0.0107303
0.0107434
0.0107568
0.0107713
0.010788
0.0108079
0.0108318
0.0108608
0.0108955
0.0109365
0.0109841
0.0110383
0.0110988
0.011165
0.0112362
0.0113112
0.0113891
0.0114685
0.0115483
0.0116274
0.0117046
0.0117788
0.0118485
0.0119124
0.0119707
0.0120172
0.0120413
0.0120317
0.0119759
0.0118613
0.0116755
0.0114079
0.0110506
0.0106008
0.0100621
0.00944737
0.00878115
0.00810094
0.0074565
0.00690489
0.00650173
0.00625689
0.00612864
0.00607272
0.00605927
0.00607372
0.00611194
0.00617395
0.00625898
0.00636335
0.00648102
0.00660555
0.00673813
0.00688023
0.00702841
0.00717889
0.00732786
0.00747172
0.00760724
0.00773152
0.00784195
0.00793599
0.00801026
0.00805959
0.00807945
0.00806412
0.00800661
0.00789859
0.00773054
0.00749184
0.00717075
0.00675388
0.0062248
0.00556174
0.0047309
0.00373562
0.00258602
0.00138713
0.000472876
0.000161664
0.000146458
0.000157798
0.000176078
0.000199621
0.000226341
0.000253512
0.000278514
0.000299711
0.00031677
0.000330278
0.000341131
0.000350125
0.000357835
0.00036464
0.000370793
0.000376479
0.000381849
0.000387034
0.000392158
0.000397329
0.000402647
0.000408195
0.000414039
0.000420221
0.000426753
0.000433602
0.000440672
0.000447777
0.000454617
0.00046078
0.000465842
0.00652259
0.00673684
0.00696032
0.00717102
0.00736415
0.00753755
0.0076914
0.00782861
0.00795505
0.00807917
0.00821102
0.00836086
0.00853775
0.00874831
0.00899616
0.00928173
0.00960266
0.00995445
0.0103313
0.0107267
0.0111345
0.0115485
0.0119628
0.0123717
0.0127687
0.0131462
0.0134958
0.0138075
0.0140703
0.0142729
0.014404
0.0144533
0.0144124
0.0142762
0.0140438
0.0137196
0.013314
0.0128436
0.0123235
0.0117976
0.0113113
0.0108925
0.0105545
0.0102976
0.0101128
0.0099865
0.00990451
0.00985446
0.00982673
0.00981447
0.00981301
0.00981929
0.00983125
0.00984744
0.0098667
0.00988806
0.00991063
0.00993362
0.00995634
0.00997824
0.0099989
0.010018
0.0100353
0.0100508
0.0100642
0.0100759
0.0100861
0.0100951
0.0101035
0.0101118
0.0101208
0.0101313
0.010144
0.0101598
0.0101796
0.0102041
0.0102341
0.0102704
0.0103135
0.0103639
0.0104221
0.0104882
0.0105624
0.0106447
0.0107348
0.0108326
0.0109374
0.0110488
0.0111661
0.0112884
0.0114147
0.011544
0.011675
0.0118063
0.0119364
0.0120637
0.0121863
0.012302
0.0124083
0.0125023
0.0125833
0.0126419
0.0126629
0.0126316
0.0125335
0.0123546
0.0120819
0.0117038
0.0112117
0.0106016
0.00987743
0.00905424
0.00816293
0.00725364
0.0063962
0.00567192
0.00519009
0.00495873
0.00491901
0.00499523
0.00512803
0.00528322
0.00544594
0.00561132
0.00577732
0.00594151
0.00610136
0.00625565
0.00641249
0.00657701
0.00674779
0.00692262
0.00709881
0.00727352
0.00744402
0.00760777
0.0077622
0.00790333
0.00802547
0.00812407
0.00819364
0.00822727
0.00821623
0.00814981
0.00801526
0.00779794
0.00748117
0.00704529
0.00646548
0.00572462
0.00481139
0.00372023
0.00248573
0.00126425
0.000425304
0.000206756
0.000237094
0.000262653
0.000289682
0.000317564
0.000343039
0.000363577
0.000378394
0.000388332
0.000394972
0.00039978
0.000403731
0.000407335
0.000410797
0.000414168
0.000417448
0.000420629
0.000423715
0.000426729
0.000429702
0.000432671
0.000435669
0.000438722
0.000441847
0.000445046
0.000448304
0.000451592
0.000454865
0.000458065
0.00046114
0.000464056
0.000466849
0.00725978
0.00749374
0.00773629
0.0079639
0.00817125
0.00835599
0.00851818
0.00866075
0.00878962
0.00891341
0.00904245
0.00918759
0.00935873
0.00956359
0.00980692
0.0100902
0.0104116
0.0107671
0.0111509
0.0115564
0.0119767
0.0124052
0.0128353
0.0132603
0.013673
0.0140653
0.0144283
0.0147518
0.0150247
0.0152353
0.0153715
0.015422
0.0153764
0.0152266
0.0149674
0.0145966
0.0141162
0.0135286
0.0128534
0.0121527
0.0114784
0.0108747
0.0103729
0.00998696
0.0097131
0.00953504
0.00943086
0.00937902
0.00936168
0.00936562
0.00938173
0.00940398
0.00942849
0.00945282
0.00947553
0.00949591
0.00951368
0.00952876
0.00954131
0.00955176
0.00956106
0.00957105
0.00958307
0.00959818
0.00961727
0.0096411
0.00967026
0.00970524
0.00974643
0.00979414
0.00984863
0.00991009
0.00997869
0.0100545
0.0101377
0.0102283
0.0103263
0.0104316
0.0105442
0.010664
0.0107909
0.0109247
0.011065
0.0112112
0.0113626
0.0115185
0.0116781
0.0118407
0.0120054
0.0121712
0.0123373
0.0125025
0.0126655
0.012825
0.0129792
0.0131262
0.0132638
0.013389
0.0134987
0.0135889
0.0136573
0.0136906
0.0136711
0.0135827
0.0134108
0.0131417
0.0127622
0.0122595
0.0116219
0.0108425
0.00992307
0.00888069
0.00775504
0.00661435
0.00555644
0.00469747
0.00414677
0.00397016
0.0040979
0.0044061
0.00478046
0.00514974
0.00548284
0.00577229
0.00602062
0.00623364
0.00641815
0.0065815
0.00673815
0.00689674
0.00705783
0.00722106
0.00738515
0.00754795
0.00770625
0.00785571
0.00799006
0.00810382
0.00819328
0.0082544
0.00828248
0.00827137
0.00821273
0.00809521
0.00790653
0.007632
0.00725366
0.00675171
0.00610607
0.00529935
0.00432308
0.00319279
0.00198828
0.000927946
0.000344777
0.000296512
0.000373243
0.000404352
0.000424742
0.000438956
0.000446716
0.000448851
0.000447309
0.00044421
0.000441106
0.0004388
0.000437521
0.00043718
0.000437566
0.000438451
0.000439645
0.000441012
0.000442464
0.000443952
0.000445459
0.00044698
0.000448522
0.000450093
0.000451702
0.000453355
0.000455057
0.000456813
0.000458631
0.000460522
0.000462515
0.000464652
0.000467002
0.00781309
0.00806467
0.00832498
0.00856961
0.00879318
0.00899333
0.00916996
0.00932557
0.00946531
0.00959669
0.00972881
0.00987151
0.0100342
0.0102252
0.0104501
0.0107123
0.0110117
0.0113458
0.01171
0.0120985
0.0125047
0.0129217
0.0133426
0.01376
0.0141664
0.0145536
0.0149126
0.015234
0.0155076
0.0157228
0.015869
0.0159357
0.0159136
0.0157942
0.0155703
0.0152341
0.0147736
0.0141613
0.0134398
0.0126526
0.0118483
0.0110804
0.0104006
0.00984815
0.00943939
0.00916591
0.00900205
0.00891643
0.00888095
0.00887472
0.00888419
0.00890158
0.00892311
0.00894725
0.00897379
0.00900409
0.00904086
0.00908558
0.00913903
0.00920144
0.00927245
0.00935124
0.0094374
0.00953064
0.00963068
0.00973726
0.00985011
0.00996898
0.0100936
0.0102239
0.0103594
0.0105002
0.0106458
0.0107963
0.0109514
0.0111108
0.0112744
0.011442
0.0116132
0.0117878
0.0119654
0.0121458
0.0123286
0.0125129
0.0126981
0.012883
0.013067
0.0132491
0.0134282
0.0136035
0.0137737
0.0139377
0.0140942
0.0142417
0.0143786
0.0145029
0.0146125
0.014705
0.0147773
0.014826
0.0148475
0.014827
0.0147483
0.0145965
0.0143577
0.0140172
0.0135579
0.0129603
0.0122045
0.0112761
0.0101732
0.00891745
0.00756367
0.00620673
0.00497767
0.00402135
0.00345829
0.00334955
0.0036614
0.00424439
0.00489974
0.00548911
0.00596477
0.00633372
0.00662042
0.00684882
0.00703721
0.00719907
0.00734977
0.00749736
0.00764007
0.00777488
0.00789783
0.0080041
0.00808834
0.00814589
0.00817464
0.00817374
0.0081431
0.00808283
0.00799207
0.00786762
0.00770278
0.00748679
0.00720539
0.0068418
0.00637803
0.00579679
0.00508406
0.00423413
0.00326046
0.00221869
0.00124436
0.000560224
0.000327344
0.00043961
0.000522699
0.00053948
0.000537786
0.00052795
0.000513763
0.000498315
0.000483974
0.000472066
0.000462988
0.000456553
0.00045231
0.000449751
0.00044841
0.000447908
0.000447956
0.000448351
0.000448955
0.000449687
0.0004505
0.000451373
0.000452299
0.000453281
0.000454325
0.000455444
0.000456649
0.000457958
0.00045939
0.000460972
0.000462739
0.000464736
0.000467019
0.00812782
0.00839308
0.00866801
0.00892843
0.00916945
0.00938917
0.00958769
0.00976719
0.00993182
0.0100873
0.0102401
0.0103973
0.0105659
0.0107523
0.0109621
0.0111993
0.0114661
0.0117624
0.0120863
0.0124342
0.0128013
0.0131819
0.0135698
0.0139581
0.0143395
0.0147064
0.0150511
0.0153656
0.0156416
0.0158709
0.0160451
0.0161561
0.0161958
0.0161559
0.016026
0.01579
0.015399
0.0148502
0.014164
0.0133647
0.012486
0.0115757
0.0106959
0.00991648
0.0092941
0.00885163
0.00857387
0.00842319
0.00835943
0.00835114
0.00837766
0.00842693
0.0084942
0.00857713
0.00867395
0.00878253
0.00890045
0.00902649
0.00915977
0.00929961
0.00944539
0.00959662
0.00975289
0.00991387
0.0100793
0.0102488
0.0104223
0.0105995
0.0107801
0.010964
0.0111509
0.0113405
0.0115327
0.0117272
0.0119235
0.0121214
0.0123205
0.0125201
0.0127198
0.0129188
0.0131164
0.013312
0.013506
0.013698
0.0138875
0.0140738
0.014256
0.0144333
0.0146047
0.014769
0.0149253
0.0150724
0.0152089
0.0153338
0.0154457
0.0155432
0.0156249
0.0156892
0.0157341
0.0157576
0.0157566
0.015719
0.0156318
0.0154816
0.0152521
0.0149219
0.0144629
0.0138416
0.0130246
0.0119869
0.0107248
0.00926992
0.0077004
0.00614447
0.00476302
0.00370768
0.00307861
0.00292134
0.00323833
0.00393728
0.00478741
0.00555135
0.00613162
0.00654699
0.00684899
0.00707919
0.00726232
0.00741081
0.00753523
0.00763837
0.00771413
0.00775586
0.00776204
0.00773444
0.00767787
0.00759846
0.00750183
0.00739138
0.00726714
0.00712561
0.00696023
0.00676214
0.00652085
0.00622481
0.00586191
0.00542037
0.00489013
0.00426519
0.00354804
0.00275753
0.00194192
0.00119316
0.000638667
0.000378265
0.000428706
0.000591832
0.000639486
0.000629609
0.000603876
0.000573968
0.000544872
0.000519375
0.000498667
0.000482792
0.000471173
0.000463017
0.000457533
0.000454034
0.000451957
0.000450867
0.000450437
0.00045044
0.000450718
0.000451174
0.000451749
0.000452413
0.000453154
0.000453969
0.000454864
0.00045585
0.000456941
0.000458154
0.00045951
0.000461037
0.000462768
0.000464745
0.00046702
0.00815278
0.00842363
0.00870549
0.00897544
0.00922959
0.00946706
0.00968873
0.00989714
0.0100961
0.01029
0.010483
0.0106788
0.0108808
0.0110917
0.0113144
0.0115514
0.0118047
0.0120757
0.0123648
0.0126716
0.0129945
0.0133308
0.013677
0.0140284
0.01438
0.0147263
0.0150616
0.0153802
0.0156761
0.015943
0.0161735
0.0163589
0.016489
0.0165514
0.0165253
0.0163668
0.0160537
0.0155758
0.0149322
0.0141296
0.013185
0.0121338
0.0110398
0.0100061
0.00914649
0.0085316
0.00816016
0.00798084
0.00793242
0.00796676
0.00805258
0.00817132
0.00831089
0.00846434
0.00862769
0.00879845
0.00897497
0.0091561
0.00934104
0.00952914
0.00971982
0.00991258
0.0101069
0.0103024
0.0104986
0.0106951
0.0108917
0.0110878
0.0112834
0.0114782
0.0116721
0.0118649
0.0120567
0.0122473
0.0124368
0.0126251
0.012812
0.0129973
0.0131808
0.0133619
0.01354
0.0137142
0.013884
0.0140498
0.0142127
0.014373
0.0145307
0.0146858
0.0148378
0.0149865
0.0151317
0.0152729
0.0154099
0.0155425
0.0156702
0.0157926
0.015909
0.0160182
0.0161187
0.0162083
0.0162872
0.0163491
0.0163808
0.016364
0.0162729
0.0160725
0.0157182
0.0151593
0.014347
0.013247
0.011856
0.0102193
0.0084421
0.00668331
0.00512005
0.00388875
0.00304966
0.00261347
0.00259692
0.00303102
0.00385183
0.0047878
0.00554433
0.00603949
0.00633751
0.00651348
0.00661229
0.00665666
0.0066601
0.0066288
0.0065716
0.00650075
0.00642309
0.00634084
0.00625278
0.00615551
0.00604465
0.00591542
0.0057628
0.00558159
0.0053663
0.00511129
0.0048109
0.00445992
0.00405429
0.00359239
0.00307719
0.00251949
0.00194232
0.00138524
0.000903886
0.000557264
0.000386512
0.000415333
0.000592057
0.000696205
0.00069853
0.00066582
0.000625387
0.000586108
0.000551649
0.000523403
0.000501374
0.000484838
0.000472823
0.000464367
0.000458624
0.000454893
0.000452614
0.000451353
0.000450788
0.000450685
0.000450885
0.000451284
0.00045182
0.000452458
0.00045318
0.000453984
0.000454873
0.000455855
0.000456943
0.000458155
0.00045951
0.000461037
0.000462768
0.000464745
0.00046702
0.00786453
0.00812928
0.00840636
0.00867455
0.00893108
0.00917632
0.0094122
0.00964208
0.00987019
0.0101007
0.0103369
0.0105801
0.010831
0.0110889
0.0113534
0.0116241
0.0119006
0.0121832
0.012472
0.0127679
0.0130714
0.0133828
0.013702
0.014028
0.0143587
0.0146917
0.0150235
0.0153499
0.0156655
0.0159629
0.0162323
0.0164621
0.0166381
0.0167426
0.0167538
0.0166481
0.0164
0.0159849
0.015382
0.0145824
0.0135877
0.0124229
0.0111657
0.00995041
0.00893468
0.00822125
0.00781207
0.00763924
0.00762246
0.00770021
0.00783347
0.00799943
0.00818491
0.00838236
0.00858741
0.00879742
0.00901068
0.009226
0.00944244
0.00965917
0.00987541
0.0100904
0.0103032
0.0105131
0.0107192
0.0109206
0.0111162
0.0113054
0.0114872
0.011661
0.0118263
0.0119827
0.0121301
0.0122688
0.012399
0.0125216
0.0126375
0.0127477
0.0128534
0.012956
0.0130567
0.0131564
0.0132559
0.0133546
0.0134508
0.0135469
0.013646
0.0137504
0.0138619
0.0139825
0.0141143
0.0142596
0.0144211
0.0146013
0.0148025
0.0150265
0.0152736
0.0155429
0.0158308
0.0161316
0.0164502
0.0167877
0.0171213
0.0174177
0.0176323
0.0177107
0.0175906
0.0172053
0.0164915
0.0154046
0.01394
0.0121548
0.010178
0.00819514
0.00639505
0.00489957
0.00373538
0.00287545
0.00230005
0.00202797
0.00212129
0.00264502
0.00348648
0.00426701
0.00473004
0.00492879
0.00499044
0.0049914
0.00496582
0.00492627
0.0048752
0.00481092
0.00473318
0.00464067
0.00453179
0.00440481
0.00425795
0.00408943
0.00389745
0.00368036
0.00343673
0.00316568
0.00286728
0.00254324
0.00219776
0.00183863
0.00147839
0.00113483
0.000830128
0.000587565
0.000426998
0.000364647
0.000420229
0.0005791
0.000708143
0.000733794
0.000705454
0.000662131
0.000618143
0.000578565
0.000545258
0.000518512
0.000497778
0.000482169
0.000470739
0.000462615
0.000457043
0.000453394
0.000451158
0.000449932
0.00044941
0.000449369
0.000449651
0.00045015
0.0004508
0.000451562
0.000452414
0.000453348
0.000454362
0.000455463
0.000456658
0.000457962
0.000459391
0.000460973
0.00046274
0.000464736
0.000467019
0.00728992
0.00753797
0.0077995
0.00805492
0.00830251
0.00854342
0.00878025
0.00901678
0.00925742
0.00950647
0.00976739
0.0100426
0.0103307
0.0106282
0.0109327
0.011242
0.0115536
0.0118657
0.0121769
0.0124866
0.0127948
0.0131023
0.0134098
0.013718
0.0140264
0.0143341
0.0146386
0.0149364
0.0152222
0.0154886
0.015727
0.0159302
0.0160995
0.0162202
0.0162715
0.0162261
0.016051
0.0157085
0.0151582
0.0143916
0.0134054
0.0122246
0.010932
0.00967731
0.00863455
0.00791257
0.00750929
0.00735049
0.00735197
0.00745051
0.00760627
0.00779576
0.00800535
0.00822703
0.00845596
0.0086891
0.00892445
0.00916054
0.00939622
0.00963047
0.00986232
0.0100908