/*--------------------------------*- C++ -*----------------------------------*\
| =========                 |                                                 |
| \\      /  F ield         | OpenFOAM: The Open Source CFD Toolbox           |
|  \\    /   O peration     | Version:  2406                                  |
|   \\  /    A nd           | Website:  www.openfoam.com                      |
|    \\/     M anipulation  |                                                 |
\*---------------------------------------------------------------------------*/
FoamFile
{
    version     2.0;
    format      ascii;
    arch        "LSB;label=32;scalar=64";
    class       volScalarField;
    location    "200";
    object      p;
}
// * * * * * * * * * * * * * * * * * * * * * * * * * * * * * * * * * * * * * //

dimensions      [0 2 -2 0 0 0 0];

internalField   nonuniform List<scalar> 
5619
(
-0.0070878
-0.00550072
-0.0109755
-0.0164413
-0.0239594
-0.0329282
-0.043883
-0.0570095
-0.0728111
-0.0918196
-0.114762
-0.142503
-0.176094
-0.216761
-0.265897
-0.324996
-0.395548
-0.478901
-0.576111
-0.687902
-0.814696
-0.956773
-1.11438
-1.28778
-1.47712
-1.68223
-1.90234
-2.13572
-2.3795
-2.62946
-2.8799
-3.12378
-3.35296
-3.55895
-3.73396
-3.87219
-3.97106
-4.03168
-4.05826
-4.05735
-4.03747
-4.00794
-3.97684
-3.94965
-3.92938
-3.91741
-3.91427
-3.91998
-3.93416
-3.95607
-3.98489
-4.0197
-4.05938
-4.10283
-4.14908
-4.1973
-4.24677
-4.29683
-4.34697
-4.39676
-4.44588
-4.49409
-4.54126
-4.58731
-4.63224
-4.67604
-4.71874
-4.76028
-4.80054
-4.83929
-4.87612
-4.91049
-4.94165
-4.96876
-4.99086
-5.00681
-5.01477
-5.0123
-4.99693
-4.9665
-4.91924
-4.85371
-4.76899
-4.6648
-4.5416
-4.40063
-4.24394
-4.0743
-3.89507
-3.70995
-3.52278
-3.33725
-3.15661
-2.98347
-2.81965
-2.66579
-2.5211
-2.38577
-2.26046
-2.12001
-1.92322
-1.64476
-1.27936
-0.823472
-0.278783
0.347326
1.04008
1.7761
2.5232
3.24177
3.88831
4.42095
4.80661
5.02817
5.0892
5.01432
4.84328
4.62042
4.3839
4.15962
3.96055
3.78943
3.64214
3.51095
3.38699
3.2624
3.14024
3.01954
2.89368
2.76296
2.62973
2.49536
2.36177
2.23071
2.10379
1.98262
1.86886
1.76422
1.67039
1.58928
1.52222
1.46984
1.43276
1.4113
1.40494
1.4123
1.43107
1.45795
1.48864
1.51934
1.54197
1.55886
1.57574
1.58853
1.59154
1.58859
1.5845
1.57843
1.56838
1.55429
1.53666
1.51659
1.49534
1.47416
1.45404
1.43571
1.4196
1.40588
1.39455
1.38546
1.37841
1.37312
1.36933
1.36677
1.36519
1.36439
1.36418
1.36441
1.36498
1.36582
1.36688
1.36814
1.36962
1.37136
1.37332
1.37541
1.38607
-0.00699105
-0.00534318
-0.0107879
-0.016212
-0.0236842
-0.0325984
-0.0434881
-0.0565347
-0.0722356
-0.0911131
-0.113882
-0.141391
-0.174678
-0.214953
-0.263597
-0.322101
-0.391957
-0.47452
-0.570849
-0.681664
-0.807374
-0.948231
-1.10446
-1.27631
-1.46395
-1.66729
-1.88563
-2.11737
-2.35978
-2.60874
-2.8587
-3.10266
-3.33256
-3.53988
-3.7168
-3.8574
-3.95896
-4.02241
-4.05172
-4.05326
-4.03536
-4.00724
-3.97693
-3.94998
-3.92952
-3.91706
-3.9132
-3.91807
-3.93131
-3.95223
-3.98004
-4.01382
-4.05249
-4.09493
-4.14017
-4.1874
-4.23587
-4.28494
-4.33409
-4.38291
-4.43108
-4.47841
-4.52478
-4.57018
-4.61465
-4.65828
-4.70117
-4.74338
-4.78491
-4.82565
-4.86534
-4.90354
-4.93962
-4.97275
-5.00232
-5.02775
-5.04705
-5.05748
-5.05681
-5.04303
-5.01432
-4.96908
-4.9061
-4.82469
-4.72474
-4.60685
-4.47231
-4.32309
-4.1618
-3.99148
-3.81548
-3.63724
-3.46009
-3.287
-3.1205
-2.96232
-2.81303
-2.67422
-2.55045
-2.41799
-2.22602
-1.94929
-1.58764
-1.13934
-0.606341
0.00454712
0.679627
1.39703
2.12644
2.83055
3.4684
4.0007
4.39647
4.63964
4.73321
4.69909
4.57262
4.39302
4.19399
3.9986
3.81888
3.6582
3.51412
3.38142
3.25413
3.12757
3.00103
2.87464
2.75009
2.62744
2.50448
2.38082
2.2586
2.13956
2.02517
1.91677
1.8158
1.72371
1.64196
1.57207
1.51554
1.47284
1.44398
1.42915
1.42773
1.43827
1.45837
1.48476
1.51312
1.5397
1.55661
1.56685
1.57821
1.5884
1.59132
1.58893
1.58501
1.57895
1.56887
1.55469
1.53698
1.51682
1.49551
1.47427
1.45412
1.43577
1.41964
1.40591
1.39457
1.38548
1.37842
1.37313
1.36934
1.36678
1.3652
1.3644
1.36419
1.36442
1.365
1.36583
1.36689
1.36814
1.36959
1.37125
1.37294
1.37404
1.37855
-0.00672878
-0.00492961
-0.0103065
-0.0156418
-0.0230181
-0.0318206
-0.0425795
-0.0554675
-0.0709701
-0.0895923
-0.112027
-0.139095
-0.171809
-0.211351
-0.259087
-0.316502
-0.385096
-0.466243
-0.56102
-0.670156
-0.794038
-0.932881
-1.08687
-1.25622
-1.44114
-1.64161
-1.85708
-2.08613
-2.32625
-2.57354
-2.82263
-3.06668
-3.29771
-3.50724
-3.68735
-3.83198
-3.93811
-4.00635
-4.04033
-4.04605
-4.03154
-4.00583
-3.97694
-3.9505
-3.92986
-3.91672
-3.91187
-3.91556
-3.92752
-3.94713
-3.97365
-4.00623
-4.04377
-4.08516
-4.12946
-4.17586
-4.2236
-4.27204
-4.32064
-4.36899
-4.41678
-4.4638
-4.50996
-4.55523
-4.59967
-4.64342
-4.6866
-4.72937
-4.77183
-4.81399
-4.85575
-4.89687
-4.93688
-4.97507
-5.01043
-5.04218
-5.07128
-5.09549
-5.11056
-5.11508
-5.10765
-5.08659
-5.05048
-4.9982
-4.92902
-4.84272
-4.73965
-4.62075
-4.48758
-4.34222
-4.18723
-4.0255
-3.8601
-3.69415
-3.53069
-3.37245
-3.22137
-3.08045
-2.95764
-2.83258
-2.64678
-2.36899
-2.00644
-1.56131
-1.03692
-0.440099
0.216507
0.912828
1.62093
2.30636
2.93136
3.45984
3.86344
4.12739
4.25404
4.26237
4.18299
4.04982
3.89181
3.72891
3.57211
3.42567
3.28914
3.16015
3.03565
2.91308
2.79083
2.66452
2.5394
2.42239
2.31142
2.20392
2.09865
1.99733
1.90139
1.81178
1.72955
1.65578
1.59156
1.53798
1.49604
1.46619
1.44849
1.44277
1.44823
1.46334
1.48573
1.51221
1.53871
1.56157
1.57433
1.57868
1.58422
1.59158
1.59408
1.59094
1.58609
1.57936
1.56887
1.55442
1.53655
1.51633
1.49502
1.47383
1.45375
1.43547
1.41941
1.40574
1.39445
1.3854
1.37836
1.3731
1.36932
1.36677
1.36521
1.36441
1.3642
1.36444
1.36502
1.36586
1.36693
1.3682
1.3697
1.37149
1.37352
1.37557
1.38062
-0.00633845
-0.00440339
-0.00969605
-0.0149291
-0.0221948
-0.0308708
-0.0414829
-0.0541951
-0.0694793
-0.0878213
-0.109889
-0.136474
-0.168556
-0.207291
-0.254024
-0.310236
-0.377439
-0.457033
-0.550131
-0.657475
-0.779445
-0.916216
-1.06791
-1.23473
-1.41688
-1.61442
-1.82694
-2.05325
-2.29106
-2.53673
-2.78512
-3.0296
-3.26231
-3.47478
-3.65899
-3.80863
-3.92035
-3.99437
-4.0339
-4.04452
-4.034
-4.01123
-3.98423
-3.9587
-3.93823
-3.92479
-3.91934
-3.92233
-3.93366
-3.95262
-3.97849
-4.01053
-4.04764
-4.08867
-4.1327
-4.17897
-4.2267
-4.27521
-4.32395
-4.3725
-4.42053
-4.46782
-4.51425
-4.55981
-4.60456
-4.64864
-4.69224
-4.73555
-4.77878
-4.82207
-4.8655
-4.90904
-4.95251
-4.99555
-5.03757
-5.0776
-5.11477
-5.1506
-5.18242
-5.20582
-5.2201
-5.22366
-5.2148
-5.19198
-5.15391
-5.09964
-5.02872
-4.94122
-4.83785
-4.71991
-4.5893
-4.44839
-4.29999
-4.14716
-3.99308
-3.8409
-3.69324
-3.55351
-3.4299
-3.30591
-3.12117
-2.84045
-2.47371
-2.0259
-1.50176
-0.90862
-0.258747
0.428946
1.12832
1.80708
2.42977
2.96227
3.37735
3.66002
3.81088
3.84603
3.79316
3.68415
3.54664
3.39993
3.25566
3.11977
2.99307
2.87497
2.76324
2.65431
2.54241
2.41956
2.29594
2.18554
2.08446
1.98848
1.89766
1.81311
1.73536
1.6648
1.60198
1.54748
1.50187
1.46571
1.43938
1.42363
1.41898
1.42462
1.4394
1.46161
1.48888
1.51819
1.54599
1.56904
1.58373
1.58928
1.59407
1.60049
1.60145
1.59562
1.58789
1.57932
1.56785
1.55287
1.53479
1.51459
1.49343
1.47247
1.45263
1.43458
1.41873
1.40523
1.39407
1.38513
1.37817
1.37297
1.36923
1.36671
1.36517
1.36439
1.36419
1.36443
1.36501
1.36585
1.3669
1.36815
1.3696
1.37127
1.3731
1.37498
1.38004
-0.00580763
-0.00383915
-0.00903732
-0.0141735
-0.0213315
-0.0298866
-0.0403588
-0.0529028
-0.0679761
-0.0860437
-0.107747
-0.133849
-0.165298
-0.203224
-0.248959
-0.303981
-0.369823
-0.447919
-0.539418
-0.645089
-0.765309
-0.90023
-1.04994
-1.21461
-1.39449
-1.58972
-1.80004
-2.02445
-2.26089
-2.50594
-2.75468
-3.00063
-3.23603
-3.45235
-3.6414
-3.79652
-3.91397
-3.99358
-4.03819
-4.05309
-4.04575
-4.02445
-3.99823
-3.97379
-3.954
-3.94077
-3.93511
-3.93731
-3.9475
-3.9657
-3.99132
-4.02355
-4.0613
-4.10312
-4.148
-4.19524
-4.2441
-4.29393
-4.34417
-4.39437
-4.44421
-4.49343
-4.54189
-4.58955
-4.63643
-4.68265
-4.72836
-4.77377
-4.81907
-4.86449
-4.91019
-4.95627
-5.00272
-5.0494
-5.09602
-5.14205
-5.18671
-5.22909
-5.26825
-5.30289
-5.33129
-5.35164
-5.36208
-5.36076
-5.34599
-5.31633
-5.27073
-5.20865
-5.13009
-5.03568
-4.92668
-4.80488
-4.6726
-4.5325
-4.38746
-4.24037
-4.09375
-3.95045
-3.81653
-3.68057
-3.49222
-3.21621
-2.85731
-2.41862
-1.90405
-1.32079
-0.681103
-0.00365498
0.686109
1.35703
1.97491
2.50658
2.92485
3.21348
3.37071
3.41
3.35797
3.24756
3.10803
2.9587
2.81263
2.67847
2.55563
2.44454
2.34384
2.24993
2.15539
2.05201
1.94867
1.85706
1.77456
1.69938
1.63121
1.56993
1.51553
1.46815
1.42799
1.3953
1.37028
1.35298
1.34343
1.3434
1.35348
1.37228
1.39854
1.43052
1.46592
1.50198
1.53563
1.56424
1.58598
1.59772
1.6062
1.61418
1.61301
1.6031
1.59053
1.57845
1.56497
1.54902
1.53067
1.51063
1.48991
1.46949
1.45022
1.4327
1.41729
1.40416
1.3933
1.38458
1.37779
1.37271
1.36906
1.3666
1.3651
1.36435
1.36417
1.36443
1.36502
1.36587
1.36694
1.36821
1.36969
1.37142
1.37329
1.37521
1.37978
-0.00510959
-0.00329497
-0.00838799
-0.0134457
-0.0205089
-0.0289604
-0.0393105
-0.0517037
-0.0665798
-0.0843809
-0.105721
-0.131334
-0.162142
-0.199257
-0.244004
-0.297872
-0.362423
-0.439129
-0.529174
-0.633353
-0.75205
-0.885407
-1.03351
-1.19655
-1.37485
-1.56864
-1.77784
-2.00163
-2.23813
-2.48412
-2.73485
-2.98395
-3.22364
-3.44528
-3.64029
-3.80156
-3.92483
-4.00961
-4.05857
-4.07641
-4.06855
-4.04645
-4.02161
-3.99815
-3.97905
-3.9663
-3.96103
-3.96381
-3.97477
-3.99365
-4.01972
-4.05194
-4.08956
-4.13212
-4.17868
-4.22807
-4.27941
-4.33199
-4.3852
-4.43853
-4.49159
-4.54408
-4.5958
-4.64662
-4.69655
-4.74563
-4.79401
-4.84189
-4.8895
-4.93711
-4.98495
-5.03318
-5.08184
-5.13074
-5.17942
-5.22699
-5.272
-5.31304
-5.35131
-5.38721
-5.41863
-5.44389
-5.46137
-5.4694
-5.46638
-5.45089
-5.42176
-5.37817
-5.31969
-5.24639
-5.15879
-5.0579
-4.94512
-4.82219
-4.69101
-4.55348
-4.41121
-4.26577
-4.12006
-3.96766
-3.77415
-3.50937
-3.1697
-2.75366
-2.26265
-1.7028
-1.08616
-0.43139
0.236282
0.886339
1.48541
2.00085
2.40514
2.68041
2.82229
2.84159
2.76522
2.63158
2.47747
2.32056
2.1735
2.03705
1.9083
1.79349
1.69383
1.60732
1.53059
1.45896
1.39449
1.34127
1.29655
1.25875
1.22707
1.201
1.18033
1.16499
1.15507
1.15064
1.15162
1.15743
1.1719
1.19616
1.22741
1.26524
1.30868
1.35618
1.4057
1.45479
1.50088
1.54192
1.57645
1.59902
1.61515
1.62686
1.62482
1.61033
1.5918
1.57499
1.55864
1.54138
1.52284
1.50335
1.48355
1.4642
1.44599
1.42942
1.41482
1.40234
1.39198
1.38364
1.37713
1.37225
1.36876
1.3664
1.36497
1.36427
1.36412
1.3644
1.365
1.36585
1.36692
1.36819
1.36966
1.37136
1.37324
1.37525
1.37945
-0.00421775
-0.00282426
-0.00780042
-0.0128122
-0.0198042
-0.0281815
-0.0384385
-0.0507077
-0.0654072
-0.0829534
-0.103932
-0.129052
-0.159216
-0.195531
-0.239331
-0.292131
-0.35553
-0.431038
-0.519875
-0.622853
-0.740373
-0.872591
-1.01964
-1.18178
-1.35944
-1.55301
-1.76254
-1.98736
-2.22575
-2.47465
-2.72938
-2.98363
-3.2295
-3.45805
-3.66018
-3.82809
-3.957
-4.04634
-4.09826
-4.11231
-4.09996
-4.07858
-4.05453
-4.03193
-4.01377
-4.00184
-3.9973
-4.00079
-4.01257
-4.03248
-4.06
-4.09431
-4.13452
-4.17971
-4.22884
-4.28097
-4.33531
-4.39115
-4.44788
-4.50495
-4.5619
-4.61832
-4.67388
-4.72829
-4.78134
-4.83289
-4.88285
-4.93119
-4.97792
-5.02307
-5.06668
-5.10877
-5.14933
-5.1883
-5.22552
-5.26077
-5.29369
-5.32378
-5.35053
-5.37325
-5.39112
-5.40328
-5.40885
-5.40693
-5.39667
-5.3773
-5.34816
-5.30874
-5.25871
-5.19794
-5.12651
-5.04468
-4.9529
-4.85172
-4.74175
-4.6235
-4.49729
-4.36319
-4.22137
-4.06858
-3.88495
-3.64721
-3.34527
-2.9735
-2.53095
-2.02257
-1.45992
-0.861352
-0.251493
0.340174
0.881572
1.34118
1.69187
1.91545
2.00609
1.97192
1.84603
1.69386
1.53141
1.35661
1.18267
1.02117
0.880543
0.765039
0.675152
0.609149
0.564008
0.53614
0.521516
0.517586
0.521636
0.532593
0.549555
0.571825
0.598941
0.630635
0.66676
0.707092
0.751721
0.803915
0.863094
0.925871
0.992614
1.06318
1.1367
1.21183
1.2868
1.35944
1.42753
1.48968
1.54323
1.58089
1.6087
1.62695
1.62618
1.60884
1.58573
1.56493
1.54612
1.52797
1.50981
1.49152
1.47337
1.4558
1.43928
1.42421
1.41087
1.3994
1.38983
1.38209
1.37605
1.3715
1.36825
1.36607
1.36476
1.36414
1.36404
1.36436
1.36498
1.36585
1.36694
1.36821
1.36969
1.37139
1.37326
1.37534
1.37911
-0.00312909
-0.00247095
-0.0073166
-0.0123263
-0.0192787
-0.0276199
-0.0378208
-0.0500002
-0.0645499
-0.081859
-0.102487
-0.127122
-0.156662
-0.19222
-0.23516
-0.287037
-0.349495
-0.424084
-0.512049
-0.614222
-0.731027
-0.862673
-1.00938
-1.17153
-1.34968
-1.54437
-1.75575
-1.98326
-2.22525
-2.47872
-2.73905
-2.99988
-3.25316
-3.48954
-3.6993
-3.87386
-4.0081
-4.10118
-4.14765
-4.15352
-4.13984
-4.11872
-4.09516
-4.07352
-4.05634
-4.04532
-4.04163
-4.04601
-4.05878
-4.07982
-4.10861
-4.14439
-4.18625
-4.23329
-4.28457
-4.33919
-4.3963
-4.45509
-4.51485
-4.57491
-4.63469
-4.69369
-4.75144
-4.80757
-4.86173
-4.91364
-4.96305
-5.00974
-5.05352
-5.09419
-5.13158
-5.16548
-5.19566
-5.22187
-5.24385
-5.2613
-5.27393
-5.28147
-5.28374
-5.28052
-5.27161
-5.25683
-5.23603
-5.20909
-5.17595
-5.13659
-5.09107
-5.03944
-4.98183
-4.91836
-4.84914
-4.77428
-4.69384
-4.60777
-4.51594
-4.41798
-4.31331
-4.20105
-4.08
-3.94753
-3.792
-3.59656
-3.34939
-3.04355
-2.67743
-2.25553
-1.78897
-1.29523
-0.797439
-0.322937
0.0987439
0.438655
0.672058
0.783136
0.765917
0.635529
0.460654
0.264657
0.0452665
-0.166929
-0.354617
-0.510949
-0.634006
-0.724465
-0.784439
-0.816602
-0.823308
-0.806119
-0.772602
-0.729563
-0.678366
-0.618765
-0.550871
-0.474711
-0.390188
-0.297168
-0.195432
-0.0849551
0.0328395
0.155055
0.28027
0.408417
0.53881
0.670288
0.801337
0.930148
1.05462
1.17249
1.28165
1.38093
1.4612
1.52085
1.56778
1.59742
1.60178
1.58573
1.56253
1.54151
1.52294
1.50583
1.48953
1.47367
1.45821
1.44333
1.4293
1.41641
1.40489
1.39491
1.38652
1.3797
1.37435
1.37032
1.36745
1.36554
1.36442
1.36392
1.36391
1.36428
1.36494
1.36583
1.36693
1.36821
1.36969
1.37139
1.37326
1.37541
1.37875
-0.00188958
-0.00225871
-0.00695891
-0.0120142
-0.0189602
-0.0273056
-0.0374897
-0.0496174
-0.064052
-0.0811564
-0.101468
-0.125662
-0.154642
-0.189544
-0.231774
-0.282936
-0.344726
-0.418728
-0.506212
-0.608031
-0.724655
-0.85637
-1.00351
-1.1666
-1.3463
-1.54323
-1.75756
-1.98871
-2.23501
-2.49343
-2.75933
-3.02632
-3.28622
-3.52939
-3.74558
-3.92559
-4.06399
-4.15427
-4.19175
-4.19402
-4.18155
-4.16063
-4.13761
-4.11646
-4.0996
-4.08872
-4.085
-4.08921
-4.10169
-4.12234
-4.15068
-4.186
-4.22742
-4.27402
-4.32493
-4.37931
-4.4364
-4.49552
-4.55605
-4.6174
-4.67902
-4.74012
-4.79993
-4.85769
-4.91271
-4.96431
-5.01187
-5.05482
-5.09268
-5.125
-5.1514
-5.17158
-5.18529
-5.19232
-5.19255
-5.18589
-5.17232
-5.15188
-5.12465
-5.0908
-5.05056
-5.0042
-4.95209
-4.89459
-4.83217
-4.76531
-4.69452
-4.62032
-4.54321
-4.46365
-4.38204
-4.29868
-4.21378
-4.12739
-4.03941
-3.9495
-3.85709
-3.7614
-3.66142
-3.55385
-3.43023
-3.27983
-3.0938
-2.86734
-2.60014
-2.29708
-1.96853
-1.63017
-1.3023
-1.00871
-0.774873
-0.62543
-0.58035
-0.650345
-0.838425
-1.09918
-1.39148
-1.69399
-1.9699
-2.19925
-2.37858
-2.51147
-2.60329
-2.65919
-2.68329
-2.67832
-2.64483
-2.58105
-2.49798
-2.40751
-2.30933
-2.2015
-2.08291
-1.95239
-1.80853
-1.64962
-1.47424
-1.28875
-1.09661
-0.894847
-0.684291
-0.466475
-0.243569
-0.0184716
0.205702
0.425127
0.634894
0.830673
1.00632
1.15649
1.28254
1.38643
1.46592
1.51581
1.5324
1.52546
1.51059
1.49641
1.4834
1.47121
1.45954
1.44812
1.43688
1.42588
1.41531
1.40541
1.39642
1.3885
1.38176
1.37624
1.37188
1.3686
1.36627
1.36476
1.36391
1.3636
1.36372
1.36417
1.36488
1.36581
1.36692
1.36822
1.36971
1.3714
1.37326
1.37547
1.37841
-0.000607267
-0.00218035
-0.00672211
-0.0118625
-0.0188277
-0.0272094
-0.0374097
-0.0495223
-0.0638846
-0.0808389
-0.100907
-0.124762
-0.153317
-0.187738
-0.229474
-0.280181
-0.341597
-0.415341
-0.502708
-0.604586
-0.721505
-0.853845
-1.00205
-1.16672
-1.34856
-1.54812
-1.76545
-1.9998
-2.24934
-2.51093
-2.77989
-3.04983
-3.31262
-3.55863
-3.77746
-3.95961
-4.098
-4.1799
-4.21389
-4.22186
-4.21201
-4.19254
-4.16992
-4.1484
-4.13076
-4.1189
-4.1141
-4.11713
-4.12827
-4.14741
-4.17411
-4.20774
-4.24758
-4.29295
-4.34329
-4.39807
-4.45623
-4.51677
-4.57865
-4.6408
-4.70227
-4.76251
-4.82101
-4.8771
-4.93011
-4.97935
-5.02409
-5.06363
-5.09726
-5.1243
-5.1441
-5.15605
-5.1596
-5.15429
-5.1397
-5.11554
-5.0816
-5.03777
-4.98404
-4.92049
-4.84778
-4.76714
-4.67937
-4.58502
-4.48491
-4.37995
-4.27111
-4.15941
-4.04587
-3.93148
-3.8172
-3.70385
-3.59218
-3.48274
-3.37594
-3.27195
-3.17072
-3.07208
-2.9759
-2.87774
-2.77104
-2.65207
-2.51744
-2.36647
-2.20138
-2.02767
-1.85455
-1.69505
-1.5658
-1.48627
-1.47723
-1.55794
-1.74191
-2.0314
-2.41574
-2.85966
-3.31318
-3.73093
-4.08472
-4.3624
-4.56994
-4.71877
-4.81871
-4.87638
-4.89551
-4.87739
-4.82009
-4.71841
-4.58837
-4.44893
-4.29837
-4.13314
-3.9509
-3.74882
-3.5207
-3.27417
-3.02433
-2.76463
-2.4871
-2.1937
-1.88624
-1.56738
-1.24102
-0.913163
-0.589999
-0.273548
0.032138
0.319092
0.580767
0.811578
1.00854
1.16874
1.28905
1.36626
1.40414
1.41792
1.42255
1.4242
1.42365
1.42153
1.41819
1.41386
1.40872
1.40301
1.397
1.39098
1.38524
1.38
1.37542
1.37159
1.36855
1.36626
1.36467
1.36369
1.36322
1.36317
1.36346
1.36402
1.3648
1.36577
1.36691
1.36822
1.36971
1.37141
1.37327
1.37551
1.37811
0.000564699
-0.00219443
-0.00657187
-0.0118151
-0.0188082
-0.0272383
-0.0374692
-0.04959
-0.0639211
-0.0807963
-0.100734
-0.124412
-0.152755
-0.186951
-0.228479
-0.279025
-0.340354
-0.414109
-0.501616
-0.60381
-0.721293
-0.854526
-1.00401
-1.17033
-1.35409
-1.55561
-1.77466
-2.01021
-2.26015
-2.5212
-2.78867
-3.05634
-3.31635
-3.55945
-3.77568
-3.9556
-4.08607
-4.166
-4.2088
-4.22419
-4.21952
-4.20296
-4.18106
-4.15892
-4.14019
-4.12725
-4.12144
-4.12331
-4.13289
-4.14995
-4.17411
-4.20495
-4.2417
-4.28343
-4.32923
-4.37803
-4.42964
-4.48415
-4.54141
-4.60113
-4.66262
-4.72505
-4.78764
-4.84954
-4.90976
-4.96729
-5.021
-5.06975
-5.11235
-5.1476
-5.17432
-5.19139
-5.19774
-5.19242
-5.17458
-5.14355
-5.09881
-5.04003
-4.9671
-4.88003
-4.77891
-4.6653
-4.54087
-4.40628
-4.26267
-4.11132
-3.95369
-3.79135
-3.62594
-3.45912
-3.29255
-3.12782
-2.96641
-2.80964
-2.65861
-2.5142
-2.37698
-2.24747
-2.12622
-2.00734
-1.88859
-1.77541
-1.66904
-1.57187
-1.48729
-1.42011
-1.37745
-1.36946
-1.40965
-1.51447
-1.7015
-1.98605
-2.37598
-2.86557
-3.43111
-4.02909
-4.60827
-5.13296
-5.57592
-5.93113
-6.20774
-6.4194
-6.57624
-6.68294
-6.74029
-6.74702
-6.69865
-6.58819
-6.43606
-6.26559
-6.07337
-5.85346
-5.59886
-5.32329
-5.05153
-4.77459
-4.47308
-4.1448
-3.79159
-3.41489
-3.01751
-2.60372
-2.17918
-1.75072
-1.32648
-0.914679
-0.522802
-0.15813
0.172927
0.464683
0.712422
0.912463
1.06288
1.16593
1.23168
1.27517
1.30679
1.33026
1.34714
1.35902
1.36703
1.372
1.37461
1.37542
1.37492
1.37354
1.37168
1.36963
1.36763
1.36586
1.36442
1.36336
1.36267
1.36235
1.36235
1.36262
1.36312
1.36382
1.36469
1.36571
1.36688
1.36821
1.36972
1.37141
1.37327
1.37553
1.3779
0.0014743
-0.00223809
-0.00645819
-0.0117937
-0.0188022
-0.0272655
-0.0375127
-0.0496365
-0.0639525
-0.0808022
-0.100717
-0.12439
-0.152761
-0.187028
-0.228678
-0.279389
-0.340923
-0.414924
-0.502738
-0.605346
-0.723413
-0.857445
-1.00792
-1.17532
-1.35999
-1.56193
-1.78053
-2.01438
-2.26115
-2.51751
-2.77892
-3.03956
-3.29214
-3.52816
-3.7383
-3.91162
-4.04041
-4.12796
-4.18139
-4.20588
-4.20843
-4.19628
-4.17591
-4.15322
-4.13298
-4.11842
-4.11112
-4.11137
-4.11876
-4.13271
-4.15272
-4.17781
-4.20718
-4.24098
-4.27945
-4.3225
-4.37026
-4.4226
-4.47948
-4.54079
-4.60639
-4.67585
-4.74858
-4.8239
-4.90089
-4.97847
-5.05538
-5.13018
-5.20128
-5.26696
-5.32545
-5.37489
-5.41347
-5.43942
-5.45107
-5.44693
-5.42569
-5.38631
-5.32803
-5.25043
-5.15301
-5.03473
-4.89621
-4.73904
-4.56415
-4.37302
-4.16756
-3.95
-3.72285
-3.48878
-3.25059
-3.01108
-2.77295
-2.53871
-2.31056
-2.0903
-1.87928
-1.67863
-1.48881
-1.3022
-1.12485
-0.973195
-0.849022
-0.754005
-0.68972
-0.658345
-0.664311
-0.715811
-0.825646
-1.01081
-1.29029
-1.68065
-2.18954
-2.80826
-3.50674
-4.23569
-4.94071
-5.5802
-6.13246
-6.59212
-6.96446
-7.2592
-7.48331
-7.63863
-7.7238
-7.736
-7.66938
-7.5195
-7.31257
-7.07441
-6.80157
-6.51585
-6.24384
-5.9665
-5.66136
-5.32815
-4.96982
-4.58759
-4.18364
-3.76114
-3.32434
-2.87843
-2.4293
-1.98335
-1.54723
-1.12765
-0.731232
-0.364377
-0.0330357
0.257633
0.503972
0.704618
0.861073
0.978736
1.06711
1.13602
1.19079
1.23373
1.26708
1.29275
1.31228
1.32693
1.33769
1.34542
1.35078
1.35438
1.35668
1.35809
1.35892
1.35941
1.35975
1.36005
1.36039
1.36082
1.36134
1.36198
1.36273
1.36359
1.36456
1.36564
1.36685
1.3682
1.36971
1.37141
1.37327
1.37554
1.37778
0.00202234
-0.00225506
-0.00634104
-0.0117366
-0.0187337
-0.0271957
-0.037422
-0.0495135
-0.0637908
-0.080616
-0.100547
-0.124309
-0.152855
-0.187396
-0.229414
-0.280561
-0.342562
-0.417035
-0.505318
-0.608406
-0.726987
-0.86156
-1.01251
-1.18013
-1.36444
-1.56507
-1.78105
-2.01067
-2.2515
-2.50032
-2.75307
-3.00464
-3.24868
-3.47773
-3.68243
-3.8544
-3.99011
-4.08879
-4.15304
-4.18793
-4.19895
-4.19166
-4.17243
-4.14811
-4.12485
-4.10709
-4.09675
-4.09361
-4.09658
-4.10462
-4.11698
-4.13337
-4.15419
-4.17998
-4.21128
-4.24891
-4.29328
-4.34493
-4.40441
-4.47215
-4.54849
-4.63353
-4.72721
-4.82921
-4.93895
-5.05559
-5.17797
-5.30466
-5.43395
-5.56384
-5.69209
-5.81624
-5.93364
-6.04151
-6.13702
-6.21732
-6.27966
-6.32147
-6.34045
-6.33472
-6.30305
-6.24401
-6.1542
-6.03096
-5.87571
-5.6896
-5.4736
-5.22949
-4.96004
-4.66875
-4.3597
-4.03729
-3.70608
-3.37053
-3.03471
-2.70212
-2.3755
-2.05701
-1.74716
-1.4365
-1.13573
-0.867414
-0.631688
-0.428446
-0.257545
-0.119703
-0.0187661
0.0362759
0.030105
-0.0586381
-0.254915
-0.582101
-1.05388
-1.66424
-2.3801
-3.14457
-3.89465
-4.58189
-5.1807
-5.68335
-6.08978
-6.3999
-6.61399
-6.73738
-6.77966
-6.74985
-6.65331
-6.49898
-6.31006
-6.11065
-5.91616
-5.70808
-5.46471
-5.19253
-4.89478
-4.57409
-4.23369
-3.87702
-3.50765
-3.12931
-2.74582
-2.36117
-1.97957
-1.60542
-1.24332
-0.898022
-0.574164
-0.276044
-0.00719644
0.229978
0.434335
0.606007
0.747114
0.862328
0.957362
1.03649
1.10193
1.15546
1.19901
1.23419
1.26239
1.28484
1.30256
1.31642
1.32717
1.33542
1.34171
1.34647
1.35008
1.35283
1.35495
1.35664
1.35802
1.35922
1.3603
1.36132
1.36232
1.36335
1.36442
1.36557
1.36681
1.36818
1.3697
1.37141
1.37327
1.37554
1.37778
0.00219151
-0.00222522
-0.00621617
-0.011637
-0.0186022
-0.0270342
-0.037209
-0.0492351
-0.0634404
-0.0802064
-0.100114
-0.123923
-0.152625
-0.187442
-0.229851
-0.281476
-0.34401
-0.419034
-0.507859
-0.611461
-0.730505
-0.86542
-1.01645
-1.18364
-1.36673
-1.56498
-1.77713
-2.00131
-2.23513
-2.47577
-2.7198
-2.96303
-3.20049
-3.42548
-3.63056
-3.80809
-3.95247
-4.06068
-4.13405
-4.17667
-4.19301
-4.18829
-4.16899
-4.14229
-4.11519
-4.09297
-4.07789
-4.06957
-4.06661
-4.06795
-4.07326
-4.08293
-4.09748
-4.11749
-4.14385
-4.17761
-4.21987
-4.2718
-4.33457
-4.40928
-4.49693
-4.59836
-4.71422
-4.84494
-4.99067
-5.15128
-5.32634
-5.51509
-5.71643
-5.92891
-6.15073
-6.37972
-6.61339
-6.84889
-7.08301
-7.31222
-7.53266
-7.74016
-7.93034
-8.09871
-8.24072
-8.35193
-8.43115
-8.48086
-8.48208
-8.41658
-8.28954
-8.10324
-7.85979
-7.56233
-7.21535
-6.82451
-6.39634
-5.93795
-5.45664
-4.95949
-4.453
-3.9431
-3.43413
-2.91787
-2.3905
-1.863
-1.34119
-0.83172
-0.34173
0.120391
0.543485
0.912393
1.20698
1.40167
1.46645
1.37146
1.09647
0.644786
0.0548046
-0.602472
-1.2446
-1.80455
-2.24776
-2.57599
-2.8193
-3.01279
-3.16774
-3.26993
-3.3115
-3.3088
-3.2855
-3.25701
-3.22387
-3.1774
-3.10737
-3.01174
-2.89452
-2.75833
-2.60526
-2.4372
-2.25598
-2.0633
-1.86091
-1.65071
-1.43479
-1.21542
-0.995038
-0.776252
-0.561726
-0.354096
-0.155859
0.0306916
0.203496
0.360783
0.501399
0.625433
0.734339
0.829998
0.913988
0.987307
1.05069
1.10506
1.15136
1.19047
1.22325
1.25052
1.27303
1.29147
1.30646
1.31854
1.32821
1.33589
1.34196
1.34673
1.35048
1.35344
1.3558
1.35771
1.3593
1.36068
1.36193
1.36311
1.36429
1.36549
1.36677
1.36815
1.36969
1.3714
1.37327
1.37553
1.3779
0.00203996
-0.00217421
-0.00611595
-0.0115417
-0.0184731
-0.0268685
-0.0369846
-0.0489335
-0.0630432
-0.0797075
-0.0995448
-0.123357
-0.152105
-0.187029
-0.229642
-0.281552
-0.344422
-0.419816
-0.509027
-0.613005
-0.732369
-0.867457
-1.01836
-1.18489
-1.3665
-1.56218
-1.77047
-1.98939
-2.2167
-2.44994
-2.68628
-2.92389
-3.15863
-3.3833
-3.59069
-3.77384
-3.92624
-4.04224
-4.12342
-4.17293
-4.19268
-4.18869
-4.16769
-4.13764
-4.10648
-4.08005
-4.06064
-4.04773
-4.0398
-4.03575
-4.0352
-4.03845
-4.04622
-4.05959
-4.07984
-4.10844
-4.14697
-4.19705
-4.26036
-4.33856
-4.43325
-4.54598
-4.67818
-4.83112
-5.00596
-5.20366
-5.42496
-5.67033
-5.93997
-6.23372
-6.55098
-6.8907
-7.25138
-7.6309
-8.02648
-8.43464
-8.85122
-9.27139
-9.68968
-10.1001
-10.496
-10.8709
-11.2169
-11.5234
-11.8044
-12.0812
-12.2865
-12.3622
-12.3169
-12.1526
-11.8724
-11.4819
-10.9889
-10.4032
-9.73631
-9.00108
-8.21177
-7.38303
-6.53107
-5.6606
-4.73369
-3.73001
-2.67877
-1.61251
-0.565441
0.427722
1.33372
2.12262
2.76839
3.24731
3.53555
3.61096
3.45843
3.08609
2.54122
1.91139
1.30195
0.802305
0.464345
0.300768
0.288648
0.365981
0.436969
0.41742
0.300938
0.155773
0.0290049
-0.0861695
-0.189993
-0.275467
-0.345334
-0.401417
-0.44455
-0.475187
-0.492383
-0.49402
-0.479944
-0.451351
-0.409348
-0.35518
-0.290163
-0.215686
-0.133226
-0.0443698
0.0491931
0.145678
0.243239
0.340049
0.434471
0.525289
0.611863
0.69393
0.771202
0.843388
0.91032
0.971773
1.02758
1.07774
1.12234
1.16161
1.19584
1.22538
1.25065
1.27205
1.28999
1.3049
1.31715
1.32713
1.33517
1.34159
1.34669
1.35071
1.35389
1.35641
1.35845
1.36013
1.36159
1.36291
1.36417
1.36542
1.36672
1.36812
1.36967
1.37139
1.37326
1.3755
1.37811
0.00167236
-0.00215039
-0.00608206
-0.0115106
-0.0184237
-0.0267982
-0.0368772
-0.048773
-0.062811
-0.0793888
-0.0991257
-0.122824
-0.15154
-0.186488
-0.229064
-0.280955
-0.343842
-0.419271
-0.508534
-0.61257
-0.731966
-0.866993
-1.01762
-1.18345
-1.36374
-1.55728
-1.76245
-1.9772
-2.19935
-2.42682
-2.65954
-2.89474
-3.12661
-3.35041
-3.5598
-3.7475
-3.90608
-4.02927
-4.11684
-4.17058
-4.19242
-4.18843
-4.16593
-4.13347
-4.0993
-4.06912
-4.04509
-4.02675
-4.01283
-4.00243
-3.99533
-3.99191
-3.99301
-3.9998
-4.01372
-4.03641
-4.06964
-4.11529
-4.17531
-4.25167
-4.34634
-4.46129
-4.59846
-4.75976
-4.94706
-5.16227
-5.40719
-5.68367
-5.99363
-6.33874
-6.72037
-7.13864
-7.59409
-8.08618
-8.61338
-9.17286
-9.76022
-10.3692
-10.9915
-11.6165
-12.2317
-12.8222
-13.3719
-13.8638
-14.2794
-14.5947
-14.8695
-15.1287
-15.2892
-15.3172
-15.211
-14.9646
-14.5753
-14.0428
-13.3663
-12.5425
-11.5883
-10.51
-9.32189
-8.04472
-6.62682
-5.03653
-3.34277
-1.62087
0.0492621
1.59123
2.94148
4.05504
4.90726
5.49082
5.80224
5.83819
5.5906
5.07168
4.34471
3.52698
2.75279
2.1243
1.68098
1.40373
1.24279
1.15883
1.15307
1.23299
1.32835
1.32689
1.21647
1.07757
0.95296
0.845419
0.751676
0.670792
0.602399
0.546452
0.500825
0.462204
0.42971
0.403786
0.385453
0.375709
0.374466
0.381391
0.396009
0.417745
0.445939
0.479869
0.518793
0.561988
0.608767
0.658427
0.710183
0.763173
0.816607
0.869788
0.921949
0.972284
1.02012
1.06493
1.10634
1.14412
1.17814
1.20841
1.23502
1.25813
1.27795
1.29476
1.30882
1.32046
1.32996
1.33762
1.34374
1.34859
1.35239
1.35539
1.35777
1.3597
1.36132
1.36275
1.36407
1.36536
1.36669
1.3681
1.36965
1.37138
1.37325
1.37546
1.37841
0.00120471
-0.00219718
-0.00614973
-0.0115958
-0.01852
-0.0269074
-0.0369914
-0.0488821
-0.0628986
-0.0794351
-0.0991039
-0.122703
-0.151283
-0.186102
-0.228575
-0.280261
-0.342862
-0.418003
-0.506973
-0.610713
-0.729815
-0.864526
-1.01475
-1.17999
-1.35938
-1.55157
-1.7549
-1.96721
-2.18636
-2.41232
-2.64359
-2.87582
-3.10553
-3.32812
-3.53745
-3.72629
-3.88707
-4.01378
-4.10418
-4.15869
-4.18041
-4.17546
-4.15162
-4.1177
-4.08173
-4.04897
-4.02138
-3.99865
-3.97984
-3.96425
-3.95174
-3.94267
-3.9379
-3.93862
-3.94629
-3.96262
-3.98942
-4.02864
-4.08226
-4.15228
-4.24067
-4.34934
-4.48013
-4.63475
-4.81482
-5.02235
-5.25921
-5.5262
-5.82539
-6.15831
-6.52263
-6.9193
-7.35189
-7.81925
-8.32001
-8.85217
-9.41272
-9.99745
-10.6007
-11.215
-11.8311
-12.4372
-13.0189
-13.5593
-14.0384
-14.4324
-14.7104
-14.8862
-14.9841
-14.9842
-14.8708
-14.6357
-14.2722
-13.777
-13.1508
-12.4227
-11.6008
-10.6547
-9.5329
-8.17379
-6.5355
-4.64598
-2.60869
-0.535892
1.44718
3.22403
4.70231
5.81861
6.53442
6.82387
6.66533
6.21399
5.52813
4.67335
3.71863
2.73343
1.84201
1.2199
0.928439
0.920777
1.07613
1.25384
1.34466
1.31389
1.24076
1.24491
1.27687
1.24074
1.17727
1.11329
1.05138
0.993846
0.939893
0.889861
0.844159
0.803135
0.767178
0.736769
0.71098
0.688802
0.670697
0.657401
0.649397
0.646849
0.649876
0.658495
0.672612
0.692015
0.716366
0.745214
0.778034
0.81425
0.8532
0.894082
0.936011
0.978129
1.01965
1.05988
1.09823
1.1342
1.16744
1.19769
1.22484
1.24885
1.26978
1.28777
1.30302
1.31576
1.32626
1.33479
1.34163
1.34705
1.35131
1.35465
1.35728
1.35939
1.36112
1.36262
1.36399
1.36531
1.36665
1.36807
1.36962
1.37136
1.37324
1.3754
1.37875
0.000730274
-0.00233466
-0.0063292
-0.011814
-0.018781
-0.0272185
-0.0373536
-0.0492935
-0.0633497
-0.0799088
-0.0995711
-0.123124
-0.151599
-0.186241
-0.228491
-0.279906
-0.342103
-0.41673
-0.505157
-0.608333
-0.726884
-0.861087
-1.01086
-1.1757
-1.35469
-1.54648
-1.74933
-1.96094
-2.1802
-2.40635
-2.63653
-2.86745
-3.09558
-3.31621
-3.52329
-3.70982
-3.86863
-3.99398
-4.08263
-4.1346
-4.15395
-4.14712
-4.12225
-4.08806
-4.05198
-4.01856
-3.98936
-3.96415
-3.94223
-3.92308
-3.90663
-3.89327
-3.88383
-3.87949
-3.88173
-3.89222
-3.91283
-3.94549
-3.99221
-4.05498
-4.13575
-4.23632
-4.35839
-4.50343
-4.67294
-4.86811
-5.08692
-5.33136
-5.60632
-5.91069
-6.24344
-6.60446
-6.99222
-7.40421
-7.83731
-8.28761
-8.75032
-9.21974
-9.68925
-10.1513
-10.5977
-11.0193
-11.4065
-11.7494
-12.038
-12.2625
-12.4126
-12.4714
-12.4498
-12.3644
-12.205
-11.963
-11.6321
-11.205
-10.6742
-10.0399
-9.30385
-8.48909
-7.58065
-6.436
-5.01991
-3.33292
-1.46083
0.423409
2.14239
3.5646
4.61116
5.25202
5.48082
5.325
4.87739
4.13385
3.20813
2.01961
0.549768
-1.00056
-2.25016
-3.02052
-3.16837