/*--------------------------------*- C++ -*----------------------------------*\
| =========                 |                                                 |
| \\      /  F ield         | OpenFOAM: The Open Source CFD Toolbox           |
|  \\    /   O peration     | Version:  2406                                  |
|   \\  /    A nd           | Website:  www.openfoam.com                      |
|    \\/     M anipulation  |                                                 |
\*---------------------------------------------------------------------------*/
FoamFile
{
    version     2.0;
    format      ascii;
    arch        "LSB;label=32;scalar=64";
    class       surfaceScalarField;
    location    "200";
    object      phi;
}
// * * * * * * * * * * * * * * * * * * * * * * * * * * * * * * * * * * * * * //

dimensions      [0 3 -1 0 0 0 0];

oriented        oriented;

internalField   nonuniform List<scalar> 
10988
(
-8.63501e-05
6.81059e-07
-8.76019e-05
1.25179e-06
-8.8902e-05
1.30001e-06
-9.0257e-05
1.35502e-06
-9.16664e-05
1.40937e-06
-9.31408e-05
1.47431e-06
-9.46963e-05
1.55543e-06
-9.63567e-05
1.66047e-06
-9.81563e-05
1.79954e-06
-0.00010014
1.98389e-06
-0.000102364
2.22429e-06
-0.000104893
2.5283e-06
-0.000107791
2.89767e-06
-0.000111117
3.32612e-06
-0.000114915
3.79886e-06
-0.00011921
4.29452e-06
-0.000124
4.7896e-06
-0.000129265
5.26501e-06
-0.000134976
5.71183e-06
-0.00014111
6.13364e-06
-0.000147653
6.54328e-06
-0.000154608
6.9549e-06
-0.000161983
7.37452e-06
-0.000169776
7.79335e-06
-0.000177963
8.18699e-06
-0.000186483
8.5202e-06
-0.000195238
8.75478e-06
-0.000204095
8.85718e-06
-0.000212899
8.80368e-06
-0.000221482
8.58273e-06
-0.000229676
8.19485e-06
-0.000237328
7.65129e-06
-0.0002443
6.97244e-06
-0.000250487
6.1866e-06
-0.000255816
5.3293e-06
-0.000260259
4.44273e-06
-0.000263833
3.57364e-06
-0.000266601
2.76836e-06
-0.000268666
2.06526e-06
-0.000270158
1.49204e-06
-0.000271225
1.06677e-06
-0.000272019
7.9431e-07
-0.000272679
6.60215e-07
-0.000273313
6.33424e-07
-0.000273991
6.78076e-07
-0.000274755
7.64036e-07
-0.000275625
8.70379e-07
-0.000276609
9.83806e-07
-0.000277705
1.09566e-06
-0.000278905
1.20019e-06
-0.0002802
1.29434e-06
-0.000281576
1.37688e-06
-0.000283023
1.44702e-06
-0.000284528
1.50447e-06
-0.000286078
1.54982e-06
-0.000287662
1.58406e-06
-0.00028927
1.60805e-06
-0.000290892
1.62237e-06
-0.00029252
1.62732e-06
-0.000294143
1.62295e-06
-0.000295751
1.60895e-06
-0.000297336
1.58478e-06
-0.000298886
1.54959e-06
-0.000300388
1.50222e-06
-0.00030183
1.44129e-06
-0.000303195
1.36523e-06
-0.000304467
1.2723e-06
-0.000305628
1.16075e-06
-0.000306657
1.02892e-06
-0.000307532
8.75372e-07
-0.000308231
6.99069e-07
-0.000308731
4.99651e-07
-0.000309008
2.77608e-07
-0.000309043
3.4604e-08
-0.000308818
-2.24848e-07
-0.000308321
-4.96756e-07
-0.000307538
-7.82548e-07
-0.000306453
-1.08591e-06
-0.000305044
-1.40807e-06
-0.000303297
-1.74706e-06
-0.000301198
-2.09915e-06
-0.000298738
-2.46006e-06
-0.000295914
-2.82455e-06
-0.000292727
-3.18617e-06
-0.00028919
-3.5373e-06
-0.000285321
-3.86925e-06
-0.000281148
-4.17261e-06
-0.000276711
-4.43777e-06
-0.000272055
-4.65558e-06
-0.000267237
-4.81818e-06
-0.000262317
-4.91983e-06
-0.000257359
-4.95771e-06
-0.000252427
-4.93262e-06
-0.000247577
-4.84948e-06
-0.00024286
-4.71739e-06
-0.00023831
-4.5494e-06
-0.000233948
-4.36231e-06
-0.000229772
-4.17622e-06
-0.000225759
-4.01252e-06
-0.000221858
-3.90187e-06
-0.000217583
-4.27451e-06
-0.000212806
-4.77685e-06
-0.000207393
-5.41334e-06
-0.000201206
-6.18654e-06
-0.000194109
-7.0977e-06
-0.00018597
-8.13914e-06
-0.000176681
-9.28866e-06
-0.000166176
-1.05047e-05
-0.000154452
-1.17239e-05
-0.000141591
-1.28611e-05
-0.000127778
-1.38135e-05
-0.00011331
-1.44677e-05
-9.85986e-05
-1.47119e-05
-8.41407e-05
-1.4458e-05
-7.04714e-05
-1.36692e-05
-5.80828e-05
-1.23887e-05
-4.73282e-05
-1.07546e-05
-3.83476e-05
-8.98059e-06
-3.10482e-05
-7.29956e-06
-2.51453e-05
-5.90313e-06
-2.02447e-05
-4.90064e-06
-1.59331e-05
-4.31149e-06
-1.18633e-05
-4.06985e-06
-7.80783e-06
-4.05541e-06
-3.6884e-06
-4.11956e-06
4.24391e-07
-4.11313e-06
4.31539e-06
-3.89144e-06
7.72902e-06
-3.41389e-06
1.08817e-05
-3.1528e-06
1.37821e-05
-2.90044e-06
1.64505e-05
-2.66839e-06
1.88932e-05
-2.44277e-06
2.11076e-05
-2.21445e-06
2.30823e-05
-1.97479e-06
2.47998e-05
-1.71758e-06
2.62372e-05
-1.43754e-06
2.73669e-05
-1.12982e-06
2.81561e-05
-7.89239e-07
2.85657e-05
-4.09354e-07
2.85427e-05
2.31306e-08
2.80399e-05
5.02709e-07
2.70252e-05
1.01463e-06
2.54662e-05
1.559e-06
2.33378e-05
2.12836e-06
2.06277e-05
2.71013e-06
1.73436e-05
3.28412e-06
1.35247e-05
3.81889e-06
9.26001e-06
4.26475e-06
4.72629e-06
4.53386e-06
2.46325e-07
4.47997e-06
-3.31581e-06
3.56205e-06
-5.13924e-06
1.82349e-06
-5.28371e-06
1.44998e-07
-4.04081e-06
-1.24206e-06
-2.32727e-06
-1.71277e-06
-1.67769e-06
-6.49099e-07
-2.66389e-06
9.86735e-07
-4.61741e-06
1.9542e-06
-6.95282e-06
2.33588e-06
-9.44789e-06
2.49542e-06
-1.19337e-05
2.48598e-06
-1.42956e-05
2.36191e-06
-1.64623e-05
2.16673e-06
-1.83951e-05
1.93289e-06
-2.00799e-05
1.68491e-06
-2.15205e-05
1.44043e-06
-2.27324e-05
1.21159e-06
-2.3738e-05
1.00554e-06
-2.45634e-05
8.25386e-07
-2.52353e-05
6.71953e-07
-2.578e-05
5.44822e-07
-2.62225e-05
4.42575e-07
-2.65856e-05
3.63204e-07
-2.68904e-05
3.04775e-07
-2.71561e-05
2.65725e-07
-2.7401e-05
2.44971e-07
-2.76432e-05
2.4224e-07
-2.79023e-05
2.59142e-07
-2.82024e-05
3.00035e-07
-2.85754e-05
3.72978e-07
-2.90654e-05
4.89994e-07
-2.97319e-05
6.66522e-07
-3.06513e-05
9.19358e-07
-3.19151e-05
1.26382e-06
-3.36132e-05
1.69808e-06
-3.58576e-05
2.24443e-06
4.14243e-06
-0.000122183
1.44348e-06
-0.000123618
2.68709e-06
-0.000125119
2.80125e-06
-0.000126715
2.95061e-06
-0.000128397
3.09107e-06
-0.000130177
3.25476e-06
-0.000132073
3.45136e-06
-0.000134112
3.69899e-06
-0.000136332
4.02021e-06
-0.00013879
4.44155e-06
-0.000141555
4.98925e-06
-0.00014471
5.68322e-06
-0.000148343
6.53059e-06
-0.000152537
7.52026e-06
-0.000157358
8.62052e-06
-0.000162846
9.78209e-06
-0.000169004
1.09476e-05
-0.000175806
1.20667e-05
-0.000183205
1.31116e-05
-0.000191156
1.40848e-05
-0.000199628
1.50153e-05
-0.000208614
1.59405e-05
-0.000218123
1.6884e-05
-0.000228167
1.78367e-05
-0.000238732
1.8752e-05
-0.000249766
1.95541e-05
-0.000261166
2.01551e-05
-0.000272782
2.04727e-05
-0.000284421
2.0443e-05
-0.000295864
2.00264e-05
-0.000306879
1.92097e-05
-0.000317234
1.80054e-05
-0.000326711
1.645e-05
-0.000335129
1.4604e-05
-0.000342351
1.25511e-05
-0.000348304
1.0396e-05
-0.000352988
8.25778e-06
-0.000356476
6.25617e-06
-0.000358902
4.49188e-06
-0.000360449
3.03871e-06
-0.000361328
1.94564e-06
-0.000361762
1.22871e-06
-0.000361958
8.56077e-07
-0.000362077
7.52624e-07
-0.000362229
8.2922e-07
-0.000362475
1.01052e-06
-0.000362849
1.2441e-06
-0.000363362
1.49671e-06
-0.000364013
1.74697e-06
-0.000364794
1.98119e-06
-0.000365692
2.19204e-06
-0.000366691
2.37624e-06
-0.000367776
2.53212e-06
-0.000368931
2.65942e-06
-0.000370141
2.75996e-06
-0.000371394
2.8367e-06
-0.000372678
2.89234e-06
-0.000373985
2.92916e-06
-0.000375307
2.949e-06
-0.000376637
2.9531e-06
-0.00037797
2.94217e-06
-0.000379302
2.9164e-06
-0.000380628
2.87539e-06
-0.000381944
2.81818e-06
-0.000383246
2.74325e-06
-0.000384529
2.64845e-06
-0.000385787
2.53096e-06
-0.000387014
2.38735e-06
-0.000388198
2.21353e-06
-0.000389328
2.00485e-06
-0.000390385
1.75629e-06
-0.000391348
1.46279e-06
-0.00039219
1.11966e-06
-0.000392879
7.23269e-07
-0.000393375
2.71461e-07
-0.000393638
-2.33839e-07
-0.000393637
-7.83991e-07
-0.000393342
-1.38017e-06
-0.00039272
-2.0304e-06
-0.000391734
-2.73333e-06
-0.00039035
-3.48264e-06
-0.00038854
-4.27001e-06
-0.00038628
-5.08481e-06
-0.000383552
-5.91377e-06
-0.000380348
-6.74104e-06
-0.000376669
-7.5484e-06
-0.000372526
-8.31586e-06
-0.000367941
-9.02249e-06
-0.000362949
-9.64763e-06
-0.000357595
-1.01722e-05
-0.000351935
-1.05804e-05
-0.000346031
-1.0861e-05
-0.000339955
-1.10093e-05
-0.000333776
-1.10281e-05
-0.000327565
-1.09285e-05
-0.000321384
-1.07302e-05
-0.000315284
-1.04615e-05
-0.000309302
-1.01586e-05
-0.000303451
-9.86389e-06
-0.000297725
-9.62799e-06
-0.0002915
-1.04992e-05
-0.000284694
-1.15829e-05
-0.000277175
-1.29323e-05
-0.000268781
-1.45805e-05
-0.000259335
-1.65437e-05
-0.000248664
-1.88102e-05
-0.000236622
-2.1331e-05
-0.000223115
-2.40118e-05
-0.00020813
-2.6709e-05
-0.00019176
-2.92312e-05
-0.000174226
-3.13473e-05
-0.000155889
-3.28044e-05
-0.000137243
-3.33574e-05
-0.000118886
-3.28156e-05
-0.000101451
-3.11036e-05
-8.55193e-05
-2.83209e-05
-7.15046e-05
-2.47693e-05
-5.95808e-05
-2.09043e-05
-4.96658e-05
-1.72145e-05
-4.14741e-05
-1.4095e-05
-3.46072e-05
-1.17678e-05
-2.8649e-05
-1.02698e-05
-2.3251e-05
-9.46811e-06
-1.81804e-05
-9.12606e-06
-1.3334e-05
-8.96594e-06
-8.71682e-06
-8.73008e-06
-4.39315e-06
-8.21493e-06
-4.31869e-07
-7.37511e-06
3.48521e-06
-7.06987e-06
7.26194e-06
-6.67721e-06
1.08526e-05
-6.25905e-06
1.42359e-05
-5.82605e-06
1.7386e-05
-5.36449e-06
2.02756e-05
-4.86424e-06
2.28745e-05
-4.31619e-06
2.51482e-05
-3.71098e-06
2.70578e-05
-3.03928e-06
2.85599e-05
-2.29133e-06
2.96064e-05
-1.45609e-06
3.0149e-05
-5.19552e-07
3.01306e-05
5.21057e-07
2.94953e-05
1.64977e-06
2.82018e-05
2.85236e-06
2.62191e-05
4.11094e-06
2.35337e-05
5.39551e-06
2.01588e-05
6.659e-06
1.61483e-05
7.8293e-06
1.16171e-05
8.79569e-06
6.77524e-06
9.37547e-06
1.96958e-06
9.28558e-06
-2.25751e-06
7.78939e-06
-5.19837e-06
4.76446e-06
-6.5209e-06
1.46721e-06
-6.36508e-06
-1.39843e-06
-5.65863e-06
-2.41975e-06
-6.0322e-06
-2.75872e-07
-8.03386e-06
2.9885e-06
-1.1017e-05
4.93765e-06
-1.44758e-05
5.79501e-06
-1.80812e-05
6.10074e-06
-2.16246e-05
6.02942e-06
-2.49649e-05
5.70237e-06
-2.80149e-05
5.21685e-06
-3.07294e-05
4.64729e-06
-3.30949e-05
4.05e-06
-3.51201e-05
3.46536e-06
-3.68291e-05
2.92045e-06
-3.82547e-05
2.43113e-06
-3.9434e-05
2.00475e-06
-4.04052e-05
1.64329e-06
-4.12058e-05
1.34557e-06
-4.18714e-05
1.1083e-06
-4.24353e-05
9.27177e-07
-4.29284e-05
7.97853e-07
-4.3379e-05
7.16469e-07
-4.38138e-05
6.79881e-07
-4.42577e-05
6.86201e-07
-4.47344e-05
7.35739e-07
-4.5266e-05
8.3163e-07
-4.5873e-05
9.79854e-07
-4.65716e-05
1.18867e-06
-4.73721e-05
1.467e-06
-4.8275e-05
1.82224e-06
-4.92684e-05
2.2573e-06
-5.03155e-05
2.74525e-06
-5.13564e-05
3.28533e-06
5.21947e-06
-0.000161616
2.33699e-06
-0.000163306
4.37708e-06
-0.000165077
4.57243e-06
-0.000166975
4.84836e-06
-0.000168985
5.10172e-06
-0.000171124
5.39348e-06
-0.00017341
5.73741e-06
-0.000175876
6.16494e-06
-0.00017857
6.7141e-06
-0.000181559
7.43102e-06
-0.000184932
8.36203e-06
-0.000188792
9.54366e-06
-0.000193253
1.09913e-05
-0.000198422
1.26895e-05
-0.000204388
1.45865e-05
-0.000211204
1.6598e-05
-0.000218879
1.86223e-05
-0.000227378
2.05659e-05
-0.000236638
2.23717e-05
-0.00024659
2.40366e-05
-0.000257182
2.56072e-05
-0.000268394
2.71522e-05
-0.000280232
2.87221e-05
-0.00029271
3.0315e-05
-0.000305822
3.18635e-05
-0.000319514
3.32464e-05
-0.000333675
3.43161e-05
-0.000348131
3.49287e-05
-0.000362653
3.49659e-05
-0.000376974
3.43468e-05
-0.000390796
3.30321e-05
-0.000403816
3.10253e-05
-0.00041574
2.8374e-05
-0.000426308
2.51718e-05
-0.000435317
2.156e-05
-0.000442645
1.77243e-05
-0.00044827
1.38829e-05
-0.000452272
1.02585e-05
-0.000454822
7.04175e-06
-0.000456158
4.37471e-06
-0.000456566
2.35374e-06
-0.000456353
1.0155e-06
-0.000455806
3.08495e-07
-0.000455147
9.43741e-08
-0.000454524
2.05639e-07
-0.000454018
5.05129e-07
-0.000453673
8.98638e-07
-0.000453502
1.3258e-06
-0.000453504
1.74904e-06
-0.000453669
2.14616e-06
-0.000453982
2.50469e-06
-0.000454423
2.81794e-06
-0.000454974
3.08286e-06
-0.000455614
3.29936e-06
-0.000456325
3.47127e-06
-0.000457093
3.60427e-06
-0.000457904
3.70373e-06
-0.00045875
3.77448e-06
-0.000459621
3.82058e-06
-0.000460513
3.84527e-06
-0.000461422
3.851e-06
-0.000462345
3.83942e-06
-0.000463281
3.81136e-06
-0.00046423
3.76687e-06
-0.000465192
3.70509e-06
-0.000466167
3.62419e-06
-0.000467158
3.52123e-06
-0.000468162
3.39204e-06
-0.00046918
3.23106e-06
-0.000470206
3.03137e-06
-0.000471234
2.78463e-06
-0.000472253
2.48135e-06
-0.000473245
2.11127e-06
-0.000474185
1.66396e-06
-0.000475044
1.12984e-06
-0.000475779
5.01063e-07
-0.000476336
-2.26381e-07
-0.000476669
-1.0472e-06
-0.000476737
-1.96247e-06
-0.000476494
-2.97662e-06
-0.000475892
-4.08431e-06
-0.000474886
-5.27625e-06
-0.000473432
-6.53895e-06
-0.000471491
-7.85427e-06
-0.000469033
-9.19951e-06
-0.000466033
-1.05479e-05
-0.00046248
-1.18693e-05
-0.00045837
-1.31315e-05
-0.000453716
-1.43019e-05
-0.00044854
-1.53488e-05
-0.000442876
-1.62442e-05
-0.000436771
-1.69656e-05
-0.000430282
-1.74982e-05
-0.000423473
-1.78373e-05
-0.000416412
-1.79897e-05
-0.000409167
-1.79746e-05
-0.000401805
-1.78241e-05
-0.000394381
-1.75826e-05
-0.000386939
-1.73052e-05
-0.000379514
-1.70533e-05
-0.000371355
-1.86583e-05
-0.000362418
-2.05201e-05
-0.000352589
-2.27614e-05
-0.000341696
-2.54735e-05
-0.000329531
-2.87082e-05
-0.000315881
-3.24602e-05
-0.00030056
-3.66525e-05
-0.000283445
-4.11266e-05
-0.000264515
-4.56386e-05
-0.000243883
-4.98635e-05
-0.000221819
-5.3411e-05
-0.000198768
-5.58556e-05
-0.000175337
-5.67883e-05
-0.000152259
-5.58936e-05
-0.000130313
-5.30498e-05
-0.000110207
-4.84266e-05
-9.24516e-05
-4.25252e-05
-7.72645e-05
-3.60916e-05
-6.45675e-05
-2.99115e-05
-5.40561e-05
-2.46063e-05
-4.53057e-05
-2.05183e-05
-3.78727e-05
-1.77028e-05
-3.13805e-05
-1.59603e-05
-2.55557e-05
-1.49509e-05
-2.02255e-05
-1.42962e-05
-1.52927e-05
-1.36629e-05
-1.0686e-05
-1.28217e-05
-6.36808e-06
-1.1693e-05
-1.94441e-06
-1.14936e-05
2.49913e-06
-1.11207e-05
6.86645e-06
-1.06264e-05
1.10781e-05
-1.00377e-05
1.50756e-05
-9.36212e-06
1.88076e-05
-8.59624e-06
2.22235e-05
-7.73221e-06
2.52726e-05
-6.76012e-06
2.7902e-05
-5.66865e-06
3.00562e-05
-4.44546e-06
3.16776e-05
-3.07751e-06
3.27101e-05
-1.55207e-06
3.30928e-05
1.38394e-07
3.27618e-05
1.98077e-06
3.16637e-05
3.95042e-06
2.97595e-05
6.01506e-06
2.7031e-05
8.12388e-06
2.34916e-05
1.01983e-05
1.92009e-05
1.212e-05
1.42848e-05
1.37119e-05
8.95968e-06
1.47007e-05
3.56912e-06
1.46762e-05
-1.5298e-06
1.28884e-05
-5.78514e-06
9.01983e-06
-8.6714e-06
4.3534e-06
-1.01894e-05
1.19483e-07
-1.12927e-05
-1.31635e-06
-1.33902e-05
1.82185e-06
-1.67566e-05
6.35488e-06
-2.10002e-05
9.18124e-06
-2.56867e-05
1.04816e-05
-3.04533e-05
1.08676e-05
-3.50667e-05
1.0643e-05
-3.93743e-05
1.00101e-05
-4.32841e-05
9.12652e-06
-4.67516e-05
8.11454e-06
-4.97684e-05
7.06643e-06
-5.23514e-05
6.04814e-06
-5.45344e-05
5.10336e-06
-5.63608e-05
4.25751e-06
-5.78782e-05
3.5223e-06
-5.91352e-05
2.90038e-06
-6.01783e-05
2.38886e-06
-6.10512e-05
1.98136e-06
-6.17937e-05
1.66969e-06
-6.2441e-05
1.44514e-06
-6.30234e-05
1.29897e-06
-6.35661e-05
1.22267e-06
-6.40883e-05
1.20852e-06
-6.46032e-05
1.25051e-06
-6.51167e-05
1.3451e-06
-6.56283e-05
1.49141e-06
-6.61312e-05
1.69159e-06
-6.66144e-05
1.95022e-06
-6.70651e-05
2.27292e-06
-6.74702e-05
2.66242e-06
-6.78116e-05
3.08676e-06
-6.80681e-05
3.54183e-06
5.38138e-06
-0.000208031
3.37499e-06
-0.000209988
6.33412e-06
-0.000212038
6.62247e-06
-0.000214241
7.05181e-06
-0.00021658
7.44047e-06
-0.000219073
7.88624e-06
-0.000221743
8.40776e-06
-0.000224632
9.05342e-06
-0.000227798
9.88075e-06
-0.000231328
1.09605e-05
-0.00023533
1.23641e-05
-0.000239935
1.41489e-05
-0.000245284
1.63402e-05
-0.000251512
1.89171e-05
-0.000258728
2.18028e-05
-0.000266999
2.48694e-05
-0.000276336
2.79591e-05
-0.000286694
3.09234e-05
-0.000297988
3.36663e-05
-0.000310126
3.61744e-05
-0.000323032
3.85137e-05
-0.00033667
4.07899e-05
-0.000351036
4.30879e-05
-0.000366139
4.54175e-05
-0.000381965
4.76903e-05
-0.000398453
4.97344e-05
-0.000415471
5.13334e-05
-0.000432813
5.2271e-05
-0.00045021
5.23632e-05
-0.00046734
5.14763e-05
-0.000483842
4.95347e-05
-0.000499341
4.65238e-05
-0.000513463
4.2496e-05
-0.000525869
3.75782e-05
-0.000536287
3.19777e-05
-0.000544544
2.59811e-05
-0.000550595
1.99346e-05
-0.000554536
1.41992e-05
-0.000556582
9.08765e-06
-0.000557044
4.83677e-06
-0.000556303
1.61213e-06
-0.000554772
-5.15e-07
-0.00055285
-1.61356e-06
-0.000550832
-1.92348e-06
-0.000548891
-1.73593e-06
-0.00054712
-1.26515e-06
-0.000545566
-6.55196e-07
-0.000544238
-2.52634e-09
-0.000543127
6.38411e-07
-0.000542224
1.24318e-06
-0.000541512
1.79193e-06
-0.000540964
2.2704e-06
-0.000540555
2.67386e-06
-0.00054026
3.00398e-06
-0.000540056
3.26816e-06
-0.000539928
3.47538e-06
-0.000539858
3.63417e-06
-0.000539836
3.75239e-06
-0.000539852
3.83688e-06
-0.0005399
3.89346e-06
-0.000539976
3.92689e-06
-0.000540078
3.94084e-06
-0.000540204
3.938e-06
-0.000540357
3.92002e-06
-0.00054054
3.88746e-06
-0.000540755
3.83967e-06
-0.000541008
3.77462e-06
-0.000541305
3.68864e-06
-0.00054165
3.5763e-06
-0.000542049
3.43012e-06
-0.000542505
3.24045e-06
-0.000543019
2.99544e-06
-0.000543589
2.68117e-06
-0.000544207
2.282e-06
-0.000544858
1.78124e-06
-0.000545519
1.16213e-06
-0.000546155
4.09467e-07
-0.000546715
-4.86989e-07
-0.000547151
-1.52702e-06
-0.000547418
-2.70913e-06
-0.000547469
-4.03355e-06
-0.00054725
-5.49491e-06
-0.000546708
-7.0816e-06
-0.000545787
-8.77531e-06
-0.000544435
-1.0551e-05
-0.000542606
-1.23775e-05
-0.000540256
-1.42183e-05
-0.000537355
-1.60329e-05
-0.000533878
-1.77786e-05
-0.000529814
-1.94128e-05
-0.000525163
-2.08956e-05
-0.000519936
-2.21922e-05
-0.000514158
-2.32759e-05
-0.000507865
-2.4131e-05
-0.000501099
-2.47552e-05
-0.000493912
-2.51613e-05
-0.000486358
-2.53783e-05
-0.00047849
-2.54513e-05
-0.000470355
-2.54401e-05
-0.000461995
-2.54131e-05
-0.000452546
-2.81073e-05
-0.000441933
-3.11327e-05
-0.000430032
-3.46632e-05
-0.000416656
-3.8849e-05
-0.00040158
-4.37843e-05
-0.000384565
-4.94751e-05
-0.000365403
-5.58149e-05
-0.00034396
-6.25692e-05
-0.000320226
-6.93728e-05
-0.000294351
-7.57386e-05
-0.00026668
-8.1082e-05
-0.000237769
-8.47668e-05
-0.000208377
-8.61797e-05
-0.000179426
-8.48452e-05
-0.000151902
-8.05739e-05
-0.000126715
-7.36134e-05
-0.000104523
-6.47171e-05
-8.56073e-05
-5.50071e-05
-6.98741e-05
-4.56448e-05
-5.69612e-05
-3.75192e-05
-4.63695e-05
-3.111e-05
-3.75688e-05
-2.65036e-05
-3.00996e-05
-2.34296e-05
-2.35956e-05
-2.1455e-05
-1.77817e-05
-2.01101e-05
-1.24646e-05
-1.898e-05
-7.52528e-06
-1.7761e-05
-2.92454e-06
-1.62938e-05
1.76312e-06
-1.61812e-05
6.47236e-06
-1.58299e-05
1.1127e-05
-1.52809e-05
1.56489e-05
-1.45596e-05
1.99648e-05
-1.3678e-05
2.40071e-05
-1.26386e-05
2.7712e-05
-1.1437e-05
3.10167e-05
-1.00648e-05
3.38584e-05
-8.51033e-06
3.61734e-05
-6.76039e-06
3.7897e-05
-4.80118e-06
3.89655e-05
-2.6206e-06
3.9318e-05
-2.14085e-07
3.88909e-05
2.40789e-06
3.76219e-05
5.21945e-06
3.54596e-05
8.17738e-06
3.23743e-05
1.12092e-05
2.8369e-05
1.42036e-05
2.34936e-05
1.69954e-05
1.78618e-05
1.93437e-05
1.16644e-05
2.08981e-05
5.18275e-06
2.11578e-05
-1.32511e-06
1.93962e-05
-7.45833e-06
1.5153e-05
-1.27114e-05
9.6064e-06
-1.70179e-05
4.42584e-06
-2.10886e-05
2.75421e-06
-2.56753e-05
6.40838e-06
-3.07766e-05
1.14559e-05
-3.64036e-05
1.48079e-05
-4.23066e-05
1.63844e-05
-4.81744e-05
1.67352e-05
-5.37776e-05
1.6246e-05
-5.89638e-05
1.51961e-05
-6.36414e-05
1.38039e-05
-6.77684e-05
1.22413e-05
-7.1341e-05
1.06387e-05
-7.43825e-05
9.08955e-06
-7.69346e-05
7.65552e-06
-7.90492e-05
6.37214e-06
-8.07823e-05
5.25541e-06
-8.21897e-05
4.30797e-06
-8.33249e-05
3.52418e-06
-8.42368e-05
2.89332e-06
-8.49692e-05
2.4021e-06
-8.55602e-05
2.03613e-06
-8.60418e-05
1.7807e-06
-8.64402e-05
1.62119e-06
-8.67758e-05
1.54412e-06
-8.70634e-05
1.53809e-06
-8.73131e-05
1.59478e-06
-8.75309e-05
1.70915e-06
-8.77193e-05
1.87995e-06
-8.78781e-05
2.10901e-06
-8.8005e-05
2.39991e-06
-8.80965e-05
2.75396e-06
-8.81448e-05
3.13505e-06
-8.81358e-05
3.53286e-06
5.18977e-06
-0.000261744
4.52614e-06
-0.000263894
8.48441e-06
-0.000266142
8.87013e-06
-0.00026856
9.47039e-06
-0.000271128
1.00082e-05
-0.000273868
1.06261e-05
-0.000276809
1.13493e-05
-0.000280004
1.22477e-05
-0.000283526
1.34034e-05
-0.000287484
1.49179e-05
-0.000292012
1.68928e-05
-0.000297273
1.94095e-05
-0.000303437
2.2504e-05
-0.000310665
2.61457e-05
-0.000319088
3.02255e-05
-0.000328779
3.45608e-05
-0.000339746
3.89259e-05
-0.000351929
4.31059e-05
-0.000365221
4.69581e-05
-0.000379502
5.04555e-05
-0.000394672
5.36842e-05
-0.000410672
5.67901e-05
-0.000427479
5.98945e-05
-0.00044508
6.30186e-05
-0.00046344
6.60501e-05
-0.000482467
6.87613e-05
-0.000501995
7.08612e-05
-0.000521779
7.20551e-05
-0.000541503
7.20876e-05
-0.000560794
7.07672e-05
-0.000579235
6.7976e-05
-0.000596387
6.36758e-05
-0.000611811
5.79194e-05
-0.000625099
5.08661e-05
-0.000635918
4.27966e-05
-0.000644053
3.41159e-05
-0.000649446
2.53279e-05
-0.000652215
1.69676e-05
-0.00065263
9.503e-06
-0.000651086
3.29274e-06
-0.000648094
-1.38018e-06
-0.000644283
-4.32586e-06
-0.000640152
-5.74457e-06
-0.000635967
-6.10787e-06
-0.000631902
-5.80071e-06
-0.000628064
-5.1034e-06
-0.000624513
-4.20581e-06
-0.000621282
-3.23335e-06
-0.000618374
-2.27039e-06
-0.000615758
-1.37258e-06
-0.000613393
-5.73115e-07
-0.000611232
1.09239e-07
-0.000609234
6.76223e-07
-0.000607374
1.14382e-06
-0.000605629
1.52371e-06
-0.000603979
1.82513e-06
-0.000602404
2.0593e-06
-0.000600889
2.23737e-06
-0.000599422
2.36954e-06
-0.000597993
2.46476e-06
-0.000596597
2.5307e-06
-0.00059523
2.57371e-06
-0.00059389
2.59891e-06
-0.000592581
2.61024e-06
-0.000591303
2.6104e-06
-0.000590064
2.60079e-06
-0.000588871
2.58134e-06
-0.000587733
2.55027e-06
-0.00058666
2.50386e-06
-0.000585666
2.43616e-06
-0.000584765
2.33871e-06
-0.000583969
2.20042e-06
-0.000583296
2.00737e-06
-0.000582757
1.74299e-06
-0.000582364
1.38838e-06
-0.000582124
9.23008e-07
-0.000582041
3.25935e-07
-0.000582107
-4.20989e-07
-0.000582306
-1.32788e-06
-0.000582613
-2.40239e-06
-0.000582993
-3.65287e-06
-0.000583405
-5.08294e-06
-0.000583797
-6.6896e-06
-0.00058411
-8.46225e-06
-0.000584279
-1.03822e-05
-0.000584234
-1.24225e-05
-0.000583904
-1.45487e-05
-0.000583217
-1.67198e-05
-0.000582105
-1.88902e-05
-0.000580507
-2.10115e-05
-0.000578366
-2.30358e-05
-0.00057564
-2.49184e-05
-0.000572294
-2.66216e-05
-0.000568307
-2.81182e-05
-0.000563668
-2.93946e-05
-0.000558375
-3.04538e-05
-0.000552436
-3.13175e-05
-0.000545861
-3.20269e-05
-0.000538659
-3.26422e-05
-0.000530835
-3.32369e-05
-0.000521491
-3.74515e-05
-0.000510422
-4.22014e-05
-0.00049741
-4.76749e-05
-0.000482212
-5.40471e-05
-0.000464568
-6.1429e-05
-0.000444225
-6.98177e-05
-0.000420981
-7.9059e-05
-0.000394726
-8.88241e-05
-0.000365494
-9.8605e-05
-0.000333505
-0.000107727
-0.000299206
-0.000115381
-0.000263293
-0.00012068
-0.000226711
-0.000122762
-0.000190622
-0.000120934
-0.000156306
-0.00011489
-0.00012498
-0.00010494
-9.75347e-05
-9.2162e-05
-7.434e-05
-7.82018e-05
-5.52403e-05
-6.47445e-05
-3.97578e-05
-5.30017e-05
-2.72603e-05
-4.36074e-05
-1.70413e-05
-3.67226e-05
-8.51156e-06
-3.19593e-05
-1.19428e-06
-2.87723e-05
5.26137e-06
-2.65658e-05
1.10836e-05
-2.48023e-05
1.6393e-05
-2.30704e-05
2.12154e-05
-2.11162e-05
2.5988e-05
-2.09538e-05
3.06421e-05
-2.0484e-05
3.51028e-05
-1.97417e-05
3.92965e-05
-1.87533e-05
4.31547e-05
-1.75362e-05
4.66143e-05
-1.60982e-05
4.96172e-05
-1.444e-05
5.21086e-05
-1.25563e-05
5.40359e-05
-1.04378e-05
5.53478e-05
-8.07228e-06
5.59925e-05
-5.44592e-06
5.59176e-05
-2.54581e-06
5.50696e-05
6.3394e-07
5.33934e-05
4.08401e-06
5.08274e-05
7.78554e-06
4.73184e-05
1.16864e-05
4.2831e-05
1.56966e-05
3.73579e-05
1.96767e-05
3.09321e-05
2.3421e-05
2.36383e-05
2.66375e-05
1.56175e-05
2.89189e-05
7.06286e-06
2.97126e-05
-1.85016e-06
2.83092e-05
-1.08725e-05
2.41753e-05
-1.96141e-05
1.8348e-05
-2.79228e-05
1.27342e-05
-3.58892e-05
1.07202e-05
-4.3449e-05
1.3968e-05
-5.06408e-05
1.86478e-05
-5.77158e-05
2.18832e-05
-6.46908e-05
2.33597e-05
-7.14084e-05
2.34529e-05
-7.77067e-05
2.25439e-05
-8.34654e-05
2.09544e-05
-8.86122e-05
1.89505e-05
-9.31183e-05
1.67473e-05
-9.69907e-05
1.45109e-05
-0.000100263
1.23612e-05
-0.000102984
1.03768e-05
-0.000105214
8.60198e-06
-0.000107014
7.05607e-06
-0.000108447
5.74088e-06
-0.00010957
4.64745e-06
-0.000110437
3.76043e-06
-0.000111097
3.0612e-06
-0.00011159
2.52955e-06
-0.000111954
2.14455e-06
-0.000112218
1.88545e-06
-0.000112407
1.73294e-06
-0.000112539
1.67013e-06
-0.000112628
1.68366e-06
-0.000112682
1.76386e-06
-0.000112708
1.90544e-06
-0.000112705
2.10659e-06
-0.000112673
2.36798e-06
-0.000112609
2.68921e-06
-0.000112505
3.03134e-06
-0.000112351
3.37854e-06
4.81276e-06
-0.000321387
5.7036e-06
-0.00032355
1.0647e-05
-0.0003258
1.11205e-05
-0.000328221
1.1891e-05
-0.000330787
1.25747e-05
-0.000333527
1.33659e-05
-0.000336477
1.42988e-05
-0.000339699
1.54704e-05
-0.00034329
1.6994e-05
-0.00034738
1.90079e-05
-0.000352136
2.16492e-05
-0.000357752
2.50253e-05
-0.000364428
2.91803e-05
-0.00037235
3.40676e-05
-0.00038166
3.95351e-05
-0.000392432
4.53336e-05
-0.000404664
5.1158e-05
-0.000418277
5.6718e-05
-0.000433138
6.18195e-05
-0.000449102
6.64194e-05
-0.00046604
7.06221e-05
-0.00048386
7.46104e-05
-0.000502502
7.85368e-05
-0.000521911
8.24272e-05
-0.000542001
8.61398e-05
-0.000562628
8.93883e-05
-0.000583575
9.1808e-05
-0.000604549
9.30291e-05
-0.000625191
9.27306e-05
-0.000645093
9.06685e-05
-0.000663804
8.66875e-05
-0.000680857
8.07288e-05
-0.000695785
7.28472e-05
-0.000708154
6.32351e-05
-0.000717607
5.22498e-05
-0.000723915
4.04237e-05
-0.000727024
2.84368e-05
-0.000727079
1.70218e-05
-0.000724397
6.82185e-06
-0.000719475
-1.62963e-06
-0.000713177
-7.67808e-06
-0.000706277
-1.12265e-05
-0.000699139
-1.28821e-05
-0.000692009
-1.32378e-05
-0.000685052
-1.27582e-05
-0.000678376
-1.17791e-05
-0.000672049
-1.0532e-05
-0.000666106
-9.17621e-06
-0.000660553
-7.82414e-06
-0.000655371
-6.5538e-06
-0.000650532
-5.41241e-06
-0.000646001
-4.42159e-06
-0.000641738
-3.58711e-06
-0.000637691
-2.9026e-06
-0.000633816
-2.35176e-06
-0.000630075
-1.91545e-06
-0.000626441
-1.5752e-06
-0.00062289
-1.31391e-06
-0.000619404
-1.11629e-06
-0.00061597
-9.68992e-07
-0.000612579
-8.60561e-07
-0.000609224
-7.8126e-07
-0.000605902
-7.22887e-07
-0.000602613
-6.7859e-07
-0.00059936
-6.4279e-07
-0.000596148
-6.11202e-07
-0.000592985
-5.80938e-07
-0.000589884
-5.50676e-07
-0.00058686
-5.20856e-07
-0.00058393
-4.93881e-07
-0.000581117
-4.74282e-07
-0.000578447
-4.68855e-07
-0.000575953
-4.86744e-07
-0.000573671
-5.3946e-07
-0.000571641
-6.40841e-07
-0.000569912
-8.06933e-07
-0.00056853
-1.05579e-06
-0.000567543
-1.40785e-06
-0.000566984
-1.88657e-06
-0.000566872
-2.51478e-06
-0.000567212
-3.31233e-06
-0.000567999
-4.29646e-06
-0.000569208
-5.48008e-06
-0.000570801
-6.87004e-06
-0.000572717
-8.46574e-06
-0.000574882
-1.02579e-05
-0.000577202
-1.22281e-05
-0.000579573
-1.43486e-05
-0.00058188
-1.65837e-05
-0.000584
-1.88909e-05
-0.000585812
-2.12243e-05
-0.000587193
-2.35372e-05
-0.000588028
-2.57865e-05
-0.000588209
-2.79372e-05
-0.000587638
-2.99665e-05
-0.000586223
-3.18681e-05
-0.000583885
-3.36554e-05
-0.000580549
-3.53639e-05
-0.000576139
-3.70518e-05
-0.000570579
-3.87968e-05
-0.000563044
-4.4987e-05
-0.000553109
-5.21364e-05
-0.00054038
-6.04037e-05
-0.000524493
-6.99338e-05
-0.000505125
-8.07974e-05
-0.000482011
-9.29318e-05
-0.000454976
-0.000106093
-0.000423972
-0.000119828
-0.000389112
-0.000133465
-0.000350714
-0.000146125
-0.000309338
-0.000156757
-0.000265818
-0.000164201
-0.000221282
-0.000167297
-0.000177151
-0.000165065
-0.000135062
-0.000156978
-9.66724e-05
-0.00014333
-6.32392e-05
-0.000125595
-3.52807e-05
-0.00010616
-1.24812e-05
-8.7544e-05
5.84158e-06
-7.13245e-05
2.04533e-05
-5.82193e-05
3.21741e-05
-4.84435e-05
4.1774e-05
-4.15593e-05
4.98833e-05
-3.68816e-05
5.69623e-05
-3.36447e-05
6.32944e-05
-3.11344e-05
6.90071e-05
-2.87831e-05
7.41057e-05
-2.62148e-05
7.90185e-05
-2.58667e-05
8.36313e-05
-2.50967e-05
8.78292e-05
-2.39396e-05
9.15039e-05
-2.24279e-05
9.45571e-05
-2.05894e-05
9.69044e-05
-1.84455e-05
9.84764e-05
-1.6012e-05
9.9219e-05
-1.32988e-05
9.90918e-05
-1.03105e-05
9.80648e-05
-7.04534e-06
9.61118e-05
-3.49296e-06
9.3205e-05
3.61069e-07
8.93157e-05
4.52318e-06
8.44131e-05
8.9866e-06
7.84769e-05
1.37217e-05
7.14951e-05
1.86683e-05
6.34691e-05
2.37226e-05
5.44213e-05
2.87245e-05
4.44016e-05
3.34408e-05
3.34922e-05
3.7547e-05
2.18056e-05
4.06055e-05
9.47359e-06
4.20447e-05
-3.38553e-06
4.11683e-05
-1.66314e-05
3.74211e-05
-2.99362e-05
3.16526e-05
-4.29454e-05
2.57433e-05
-5.51559e-05
2.29305e-05
-6.60017e-05
2.48135e-05
-7.55139e-05
2.81597e-05
-8.40864e-05
3.04552e-05
-9.19816e-05
3.12544e-05
-9.92685e-05
3.07394e-05
-0.000105932
2.92078e-05
-0.000111943
2.69648e-05
-0.000117281
2.42882e-05
-0.000121948
2.14142e-05
-0.000125966
1.85295e-05
-0.000129375
1.57699e-05
-0.000132223
1.32246e-05
-0.000134565
1.09439e-05
-0.000136458
8.94942e-06
-0.000137961
7.24347e-06
-0.000139129
5.81561e-06
-0.000140017
4.64773e-06
-0.000140673
3.71733e-06
-0.000141143
2.99926e-06
-0.000141465
2.46687e-06
-0.000141673
2.09344e-06
-0.000141794
1.85378e-06
-0.000141849
1.72511e-06
-0.000141853
1.6885e-06
-0.000141819
1.72915e-06
-0.00014175
1.83719e-06
-0.000141651
2.00682e-06
-0.000141518
2.23544e-06
-0.000141349
2.5206e-06
-0.000141138
2.82023e-06
-0.000140878
3.11817e-06
4.29937e-06
-0.000383919
6.75524e-06
-0.000385791
1.25197e-05
-0.000387721
1.30496e-05
-0.000389789
1.39595e-05
-0.000391972
1.47577e-05
-0.0003943
1.56933e-05
-0.000396815
1.68137e-05
-0.000399593
1.82488e-05
-0.000402749
2.01499e-05
-0.000406439
2.26987e-05
-0.000410862
2.6072e-05
-0.00041624
3.04029e-05
-0.000422798
3.57389e-05
-0.000430739
4.20081e-05
-0.000440207
4.90033e-05
-0.000451271
5.63976e-05
-0.000463911
6.37977e-05
-0.000478026
7.08338e-05
-0.000493464
7.72575e-05
-0.000510051
8.30064e-05
-0.000527625
8.8196e-05
-0.000546048
9.30332e-05
-0.000565198
9.76869e-05
-0.000584946
0.000102175
-0.000605128
0.000106322
-0.000625524
0.000109784
-0.000645853
0.000112137
-0.000665775
0.000112951
-0.000684907
0.000111862
-0.000702834
0.000108596
-0.000719127
0.00010298
-0.000733354
9.49555e-05
-0.000745098
8.45913e-05
-0.000753983
7.21206e-05
-0.000759709
5.79753e-05
-0.000762092
4.2807e-05
-0.000761118
2.74629e-05
-0.000756957
1.28601e-05
-0.000749941
-1.93842e-07
-0.000741057
-1.05136e-05
-0.000731342
-1.73934e-05
-0.000721226
-2.1343e-05
-0.000710961
-2.31467e-05