/*--------------------------------*- C++ -*----------------------------------*\
| =========                 |                                                 |
| \\      /  F ield         | OpenFOAM: The Open Source CFD Toolbox           |
|  \\    /   O peration     | Version:  2406                                  |
|   \\  /    A nd           | Website:  www.openfoam.com                      |
|    \\/     M anipulation  |                                                 |
\*---------------------------------------------------------------------------*/
FoamFile
{
    version     2.0;
    format      ascii;
    arch        "LSB;label=32;scalar=64";
    class       volVectorField;
    location    "200";
    object      U;
}
// * * * * * * * * * * * * * * * * * * * * * * * * * * * * * * * * * * * * * //

dimensions      [0 1 -1 0 0 0 0];

internalField   nonuniform List<vector> 
5619
(
(2.1421 -0.000246841 0)
(2.17406 -0.000455924 0)
(2.20545 -0.000499467 0)
(2.23879 -0.000547954 0)
(2.27324 -0.000600767 0)
(2.3092 -0.000662402 0)
(2.34692 -0.00073672 0)
(2.38692 -0.000828943 0)
(2.42988 -0.000946851 0)
(2.4768 -0.00110008 0)
(2.52895 -0.0012996 0)
(2.58786 -0.00155572 0)
(2.65518 -0.00187592 0)
(2.73252 -0.00226244 0)
(2.82123 -0.00271078 0)
(2.92219 -0.00321016 0)
(3.03568 -0.00374639 0)
(3.1614 -0.00430712 0)
(3.29868 -0.00488697 0)
(3.44676 -0.00549038 0)
(3.60514 -0.00612944 0)
(3.7737 -0.00681694 0)
(3.95265 -0.00755689 0)
(4.14219 -0.00833672 0)
(4.34209 -0.00912456 0)
(4.55134 -0.00987267 0)
(4.76795 -0.0105252 0)
(4.98899 -0.0110269 0)
(5.2108 -0.0113315 0)
(5.42926 -0.0114062 0)
(5.64011 -0.0112347 0)
(5.83926 -0.0108166 0)
(6.02301 -0.0101658 0)
(6.18828 -0.00930908 0)
(6.33278 -0.00828575 0)
(6.4552 -0.00714895 0)
(6.55537 -0.00596542 0)
(6.63433 -0.00481023 0)
(6.6942 -0.00375576 0)
(6.73795 -0.00286651 0)
(6.7691 -0.00219834 0)
(6.79153 -0.00178698 0)
(6.80899 -0.00163088 0)
(6.82463 -0.00169199 0)
(6.84068 -0.00191551 0)
(6.85851 -0.00225044 0)
(6.87883 -0.00265904 0)
(6.90197 -0.00311562 0)
(6.92796 -0.00360128 0)
(6.95669 -0.00410098 0)
(6.98792 -0.00460531 0)
(7.02136 -0.00510884 0)
(7.05672 -0.00560616 0)
(7.09367 -0.00609244 0)
(7.13191 -0.00656491 0)
(7.17114 -0.00702194 0)
(7.2111 -0.0074608 0)
(7.25154 -0.00787673 0)
(7.29221 -0.0082629 0)
(7.3329 -0.00860977 0)
(7.37337 -0.00890451 0)
(7.41336 -0.00913093 0)
(7.45263 -0.0092689 0)
(7.49087 -0.00929407 0)
(7.52777 -0.0091786 0)
(7.56297 -0.00889161 0)
(7.59608 -0.00839998 0)
(7.62664 -0.00767052 0)
(7.65418 -0.0066725 0)
(7.67816 -0.00538019 0)
(7.69803 -0.00377629 0)
(7.7132 -0.00185553 0)
(7.7231 0.000372401 0)
(7.72718 0.00287901 0)
(7.72494 0.0056083 0)
(7.71606 0.00853819 0)
(7.70022 0.0117236 0)
(7.67704 0.0152152 0)
(7.64603 0.019014 0)
(7.60674 0.0230967 0)
(7.55878 0.0274281 0)
(7.50188 0.0319619 0)
(7.43587 0.0366337 0)
(7.36073 0.0413572 0)
(7.27662 0.0460221 0)
(7.18391 0.0504954 0)
(7.08319 0.0546265 0)
(6.97529 0.0582556 0)
(6.86129 0.0612265 0)
(6.74248 0.0634022 0)
(6.62033 0.064682 0)
(6.49642 0.0650177 0)
(6.37235 0.0644272 0)
(6.24968 0.0630022 0)
(6.12977 0.0609076 0)
(6.01371 0.0583747 0)
(5.90214 0.055694 0)
(5.79544 0.0532008 0)
(5.69378 0.051261 0)
(5.59485 0.0503999 0)
(5.49298 0.0511462 0)
(5.38053 0.0534491 0)
(5.25373 0.0568748 0)
(5.10936 0.061198 0)
(4.94392 0.0663089 0)
(4.75403 0.0721001 0)
(4.53663 0.0784197 0)
(4.28947 0.0850416 0)
(4.01159 0.0916511 0)
(3.70389 0.09784 0)
(3.36963 0.103107 0)
(3.01481 0.106864 0)
(2.64833 0.108466 0)
(2.28165 0.107305 0)
(1.92794 0.102969 0)
(1.60042 0.0954597 0)
(1.31005 0.0853953 0)
(1.06329 0.0740229 0)
(0.860735 0.0629668 0)
(0.697433 0.0538592 0)
(0.564494 0.0479785 0)
(0.451374 0.0460691 0)
(0.348132 0.0481771 0)
(0.247316 0.0537092 0)
(0.144973 0.0614393 0)
(0.0428523 0.0694306 0)
(-0.0615187 0.0723801 0)
(-0.151739 0.0672035 0)
(-0.234704 0.0594836 0)
(-0.310508 0.0526289 0)
(-0.380009 0.046758 0)
(-0.443962 0.0413349 0)
(-0.502287 0.0361109 0)
(-0.554765 0.0309567 0)
(-0.60104 0.0258149 0)
(-0.64061 0.0206554 0)
(-0.672838 0.0154653 0)
(-0.696975 0.0102354 0)
(-0.712102 0.00494225 0)
(-0.717279 -0.000559394 0)
(-0.710719 -0.0061475 0)
(-0.691756 -0.0115569 0)
(-0.659591 -0.0167583 0)
(-0.613426 -0.0216916 0)
(-0.552768 -0.0262736 0)
(-0.47752 -0.0303953 0)
(-0.388191 -0.0339044 0)
(-0.286325 -0.0365632 0)
(-0.174588 -0.0378879 0)
(-0.060927 -0.0369795 0)
(0.0527103 -0.0273894 0)
(0.116894 -0.0120012 0)
(0.138894 0.000177336 0)
(0.121749 0.00858636 0)
(0.0794379 0.0107536 0)
(0.0386012 0.00446193 0)
(0.0447663 -0.00362552 0)
(0.0894447 -0.00706877 0)
(0.144602 -0.00759655 0)
(0.2062 -0.00736274 0)
(0.269183 -0.00669559 0)
(0.330153 -0.00583603 0)
(0.3869 -0.00493037 0)
(0.438115 -0.00406146 0)
(0.483196 -0.00327576 0)
(0.522056 -0.00259493 0)
(0.55497 -0.00202444 0)
(0.582439 -0.00155886 0)
(0.605082 -0.00118672 0)
(0.62357 -0.000894789 0)
(0.638572 -0.000669967 0)
(0.650728 -0.000499836 0)
(0.660635 -0.000373113 0)
(0.668843 -0.0002802 0)
(0.67585 -0.000213166 0)
(0.682122 -0.000165338 0)
(0.688101 -0.00013091 0)
(0.694248 -0.0001047 0)
(0.701093 -8.03568e-05 0)
(0.709312 -4.55787e-05 0)
(0.719835 3.06685e-05 0)
(0.733948 0.000230104 0)
(0.753357 0.000767459 0)
(0.780172 0.00221487 0)
(0.816908 0.00618151 0)
(0.866426 0.0176117 0)
(0.926667 0.0544987 0)
(2.31589 -0.00068468 0)
(2.34365 -0.00131998 0)
(2.37103 -0.00143611 0)
(2.40075 -0.00157454 0)
(2.43189 -0.00171916 0)
(2.46484 -0.00188709 0)
(2.49976 -0.0020873 0)
(2.5371 -0.00233463 0)
(2.57745 -0.00264933 0)
(2.62171 -0.003057 0)
(2.67108 -0.00358654 0)
(2.72703 -0.00426583 0)
(2.79123 -0.00511622 0)
(2.86537 -0.00614651 0)
(2.95095 -0.00734822 0)
(3.04901 -0.00869505 0)
(3.15998 -0.0101484 0)
(3.28362 -0.01167 0)
(3.41916 -0.0132368 0)
(3.56563 -0.0148527 0)
(3.72222 -0.0165483 0)
(3.88856 -0.018366 0)
(4.06474 -0.0203354 0)
(4.25106 -0.0224486 0)
(4.4476 -0.0246471 0)
(4.65384 -0.0268237 0)
(4.8683 -0.0288391 0)
(5.08856 -0.0305421 0)
(5.31131 -0.0317892 0)
(5.53256 -0.0324585 0)
(5.74795 -0.0324581 0)
(5.95295 -0.0317316 0)
(6.14322 -0.0302631 0)
(6.31486 -0.0280827 0)
(6.46476 -0.0252747 0)
(6.59083 -0.0219839 0)
(6.69236 -0.0184147 0)
(6.77002 -0.0148115 0)
(6.82587 -0.0114191 0)
(6.863 -0.00846117 0)
(6.88521 -0.00613583 0)
(6.89679 -0.00458195 0)
(6.90196 -0.00382229 0)
(6.90435 -0.00375471 0)
(6.90654 -0.00421042 0)
(6.9101 -0.00502375 0)
(6.91589 -0.00606781 0)
(6.9243 -0.00725473 0)
(6.9354 -0.00852087 0)
(6.94908 -0.00981676 0)
(6.96514 -0.0111102 0)
(6.98328 -0.0123813 0)
(7.00322 -0.0136131 0)
(7.02463 -0.0147913 0)
(7.04724 -0.0159099 0)
(7.07077 -0.0169689 0)
(7.09501 -0.0179676 0)
(7.11975 -0.0189037 0)
(7.14484 -0.0197727 0)
(7.17016 -0.0205668 0)
(7.19558 -0.0212743 0)
(7.22101 -0.0218788 0)
(7.24638 -0.0223583 0)
(7.27159 -0.0226839 0)
(7.29658 -0.0228192 0)
(7.32126 -0.0227188 0)
(7.34554 -0.0223268 0)
(7.36928 -0.0215769 0)
(7.39234 -0.0203915 0)
(7.41448 -0.0186827 0)
(7.43544 -0.0163549 0)
(7.45484 -0.0133095 0)
(7.47222 -0.00945282 0)
(7.487 -0.00470868 0)
(7.49854 0.000957177 0)
(7.50602 0.00753181 0)
(7.50866 0.0149963 0)
(7.50604 0.0234711 0)
(7.49752 0.0331171 0)
(7.48239 0.0439535 0)
(7.46 0.0559203 0)
(7.42972 0.0689217 0)
(7.39106 0.082809 0)
(7.3436 0.0973691 0)
(7.2871 0.112318 0)
(7.22147 0.127302 0)
(7.14683 0.141904 0)
(7.06348 0.15566 0)
(6.97197 0.168085 0)
(6.87307 0.178708 0)
(6.76773 0.18711 0)
(6.65711 0.192973 0)
(6.5425 0.196117 0)
(6.42525 0.196541 0)
(6.30673 0.194443 0)
(6.18823 0.190227 0)
(6.07083 0.184497 0)
(5.95541 0.178038 0)
(5.84294 0.17178 0)
(5.73237 0.166898 0)
(5.61823 0.16476 0)
(5.49445 0.166152 0)
(5.35841 0.17076 0)
(5.20734 0.178177 0)
(5.03792 0.188051 0)
(4.84674 0.199961 0)
(4.63069 0.213352 0)
(4.3874 0.227501 0)
(4.11575 0.241501 0)
(3.81643 0.254263 0)
(3.49238 0.264535 0)
(3.1491 0.270936 0)
(2.79477 0.272055 0)
(2.43992 0.266654 0)
(2.09657 0.254025 0)
(1.77666 0.234431 0)
(1.49007 0.209466 0)
(1.24265 0.181982 0)
(1.03524 0.155474 0)
(0.864076 0.133281 0)
(0.722267 0.117895 0)
(0.601678 0.11062 0)
(0.494704 0.111276 0)
(0.395653 0.118302 0)
(0.301328 0.128853 0)
(0.210985 0.139123 0)
(0.125189 0.143979 0)
(0.0463162 0.140746 0)
(-0.0299169 0.13213 0)
(-0.103715 0.121845 0)
(-0.174009 0.111387 0)
(-0.240727 0.100871 0)
(-0.303231 0.0900502 0)
(-0.361008 0.0787731 0)
(-0.413519 0.0670163 0)
(-0.460158 0.0548017 0)
(-0.500222 0.0421768 0)
(-0.532925 0.0291958 0)
(-0.557389 0.015892 0)
(-0.572667 0.00222061 0)
(-0.577907 -0.0115229 0)
(-0.571688 -0.0248227 0)
(-0.553312 -0.0374461 0)
(-0.522 -0.0491327 0)
(-0.4773 -0.0595584 0)
(-0.419169 -0.0683247 0)
(-0.348176 -0.0749268 0)
(-0.265857 -0.0786854 0)
(-0.174957 -0.078506 0)
(-0.0814644 -0.072819 0)
(0.00959098 -0.0558763 0)
(0.079748 -0.029216 0)
(0.119317 -0.00512 0)
(0.128244 0.0124989 0)
(0.113917 0.0170814 0)
(0.102656 0.00456036 0)
(0.128233 -0.0117041 0)
(0.179704 -0.0194515 0)
(0.243253 -0.0214598 0)
(0.311827 -0.0212024 0)
(0.380735 -0.0196062 0)
(0.446768 -0.0173167 0)
(0.507842 -0.014777 0)
(0.562773 -0.0122663 0)
(0.611059 -0.00995236 0)
(0.6527 -0.00792145 0)
(0.688048 -0.00620437 0)
(0.717667 -0.00479505 0)
(0.742242 -0.00366631 0)
(0.762502 -0.00278223 0)
(0.779172 -0.00210531 0)
(0.792951 -0.00159961 0)
(0.804497 -0.00123289 0)
(0.814418 -0.000978119 0)
(0.82328 -0.000813821 0)
(0.831603 -0.000723829 0)
(0.839876 -0.000697429 0)
(0.848561 -0.000730576 0)
(0.858096 -0.000827462 0)
(0.868893 -0.001004 0)
(0.88131 -0.00129651 0)
(0.895615 -0.00178409 0)
(0.911918 -0.00264431 0)
(0.930104 -0.00428872 0)
(0.94983 -0.00767039 0)
(0.970484 -0.0149684 0)
(0.988464 -0.0293063 0)
(2.35573 -0.00114942 0)
(2.38085 -0.00224531 0)
(2.40555 -0.00245095 0)
(2.43263 -0.0027101 0)
(2.46117 -0.00297666 0)
(2.49152 -0.00328526 0)
(2.52382 -0.00364957 0)
(2.55847 -0.00409598 0)
(2.59604 -0.00465995 0)
(2.63735 -0.00538795 0)
(2.68355 -0.0063336 0)
(2.73607 -0.00755054 0)
(2.79653 -0.00908223 0)
(2.86661 -0.0109505 0)
(2.94781 -0.0131455 0)
(3.04121 -0.0156223 0)
(3.14731 -0.0183087 0)
(3.2659 -0.0211267 0)
(3.39619 -0.0240221 0)
(3.5371 -0.0269903 0)
(3.68768 -0.0300818 0)
(3.84738 -0.0333798 0)
(4.01613 -0.0369556 0)
(4.19418 -0.0408193 0)
(4.38169 -0.0448884 0)
(4.57831 -0.0489859 0)
(4.78287 -0.0528639 0)
(4.99328 -0.0562397 0)
(5.20655 -0.0588304 0)
(5.419 -0.0603785 0)
(5.62643 -0.0606705 0)
(5.82439 -0.0595524 0)
(6.00839 -0.0569458 0)
(6.17431 -0.0528686 0)
(6.31863 -0.0474569 0)
(6.43889 -0.0409809 0)
(6.53398 -0.0338426 0)
(6.60432 -0.0265339 0)
(6.6518 -0.0195558 0)
(6.6795 -0.0133696 0)
(6.69132 -0.00838705 0)
(6.69174 -0.00490486 0)
(6.68526 -0.00299349 0)
(6.67578 -0.00245724 0)
(6.66599 -0.00295413 0)
(6.65748 -0.00415502 0)
(6.65113 -0.00580803 0)
(6.6473 -0.00773784 0)
(6.64606 -0.00982058 0)
(6.64731 -0.0119623 0)
(6.65085 -0.0140982 0)
(6.65643 -0.0161879 0)
(6.66376 -0.0182007 0)
(6.67254 -0.0201125 0)
(6.68249 -0.021917 0)
(6.69337 -0.0236206 0)
(6.70497 -0.0252303 0)
(6.71714 -0.0267516 0)
(6.72974 -0.0281876 0)
(6.74268 -0.0295377 0)
(6.75588 -0.0307968 0)
(6.76931 -0.0319545 0)
(6.78294 -0.0329932 0)
(6.79675 -0.0338873 0)
(6.81074 -0.0346007 0)
(6.82493 -0.0350844 0)
(6.83934 -0.0352734 0)
(6.85396 -0.0350835 0)
(6.86878 -0.0344075 0)
(6.88378 -0.0331124 0)
(6.89887 -0.0310374 0)
(6.91392 -0.0279947 0)
(6.92873 -0.0237735 0)
(6.943 -0.0181488 0)
(6.95632 -0.0108949 0)
(6.96817 -0.00183594 0)
(6.97794 0.00907664 0)
(6.98459 0.0218879 0)
(6.98772 0.0368212 0)
(6.98664 0.0540571 0)
(6.98066 0.0736056 0)
(6.96908 0.0953828 0)
(6.95124 0.119209 0)
(6.92654 0.144788 0)
(6.89444 0.171699 0)
(6.85455 0.199396 0)
(6.80658 0.227213 0)
(6.75044 0.254392 0)
(6.68618 0.280111 0)
(6.61404 0.303534 0)
(6.53445 0.323871 0)
(6.44801 0.34044 0)
(6.35548 0.352741 0)
(6.25776 0.36052 0)
(6.15582 0.363819 0)
(6.0507 0.363012 0)
(5.94336 0.358811 0)
(5.83472 0.352253 0)
(5.72595 0.344636 0)
(5.61682 0.337453 0)
(5.50208 0.332453 0)
(5.37705 0.331735 0)
(5.23996 0.336254 0)
(5.0887 0.346134 0)
(4.92041 0.361035 0)
(4.7319 0.38021 0)
(4.52015 0.402541 0)
(4.28282 0.426568 0)
(4.01876 0.450517 0)
(3.72856 0.472323 0)
(3.41496 0.489672 0)
(3.08319 0.500077 0)
(2.74096 0.501066 0)
(2.39824 0.49055 0)
(2.06633 0.467425 0)
(1.75652 0.432308 0)
(1.47811 0.388082 0)
(1.23662 0.339668 0)
(1.03302 0.292894 0)
(0.864207 0.25313 0)
(0.724531 0.224222 0)
(0.607329 0.208028 0)
(0.506369 0.204038 0)
(0.416833 0.209737 0)
(0.335516 0.221088 0)
(0.260526 0.233208 0)
(0.190733 0.241283 0)
(0.125848 0.242205 0)
(0.0609785 0.236 0)
(-0.00442297 0.224994 0)
(-0.0694583 0.210907 0)
(-0.132536 0.194769 0)
(-0.192959 0.176889 0)
(-0.24985 0.157466 0)
(-0.302441 0.136683 0)
(-0.350013 0.114719 0)
(-0.39181 0.0917657 0)
(-0.427035 0.0680179 0)
(-0.454854 0.0436661 0)
(-0.474415 0.0188992 0)
(-0.484942 -0.00600887 0)
(-0.485397 -0.0304505 0)
(-0.474944 -0.0537925 0)
(-0.452888 -0.0754602 0)
(-0.418778 -0.0948109 0)
(-0.372545 -0.11108 0)
(-0.314669 -0.123322 0)
(-0.246449 -0.130315 0)
(-0.170233 -0.130314 0)
(-0.0903936 -0.120891 0)
(-0.0115596 -0.0969839 0)
(0.0595715 -0.0594725 0)
(0.111717 -0.0218676 0)
(0.142356 0.00767254 0)
(0.156119 0.0162979 0)
(0.176645 -0.0028794 0)
(0.217447 -0.0278634 0)
(0.275486 -0.0403422 0)
(0.342719 -0.0437057 0)
(0.413054 -0.042602 0)
(0.4824 -0.0390685 0)
(0.548082 -0.0343264 0)
(0.608383 -0.0291935 0)
(0.662372 -0.0241873 0)
(0.709715 -0.0196128 0)
(0.750515 -0.0156216 0)
(0.785176 -0.0122612 0)
(0.814288 -0.00951168 0)
(0.838534 -0.00731578 0)
(0.858625 -0.00560031 0)
(0.875265 -0.00428938 0)
(0.889115 -0.00331081 0)
(0.900789 -0.00259989 0)
(0.910835 -0.00210101 0)
(0.919734 -0.00176759 0)
(0.927894 -0.00156093 0)
(0.935638 -0.00144918 0)
(0.943206 -0.00140648 0)
(0.950736 -0.00141087 0)
(0.958266 -0.00143994 0)
(0.965736 -0.00146317 0)
(0.973005 -0.00142751 0)
(0.97989 -0.00123315 0)
(0.986184 -0.000700069 0)
(0.991722 0.000443838 0)
(0.996397 0.00208986 0)
(0.998421 0.000152222 0)
(2.3538 -0.00172906 0)
(2.37646 -0.00339169 0)
(2.39857 -0.0037077 0)
(2.42295 -0.00412165 0)
(2.44867 -0.00454303 0)
(2.47609 -0.00503028 0)
(2.50532 -0.00560291 0)
(2.53676 -0.00630274 0)
(2.57095 -0.00718519 0)
(2.6087 -0.00832404 0)
(2.65111 -0.00980503 0)
(2.69957 -0.0117151 0)
(2.75566 -0.014126 0)
(2.82101 -0.0170764 0)
(2.89705 -0.0205542 0)
(2.98485 -0.02449 0)
(3.08488 -0.0287668 0)
(3.19692 -0.0332525 0)
(3.32018 -0.0378482 0)
(3.45356 -0.0425321 0)
(3.59601 -0.0473743 0)
(3.74688 -0.0525064 0)
(3.90597 -0.0580517 0)
(4.0734 -0.0640461 0)
(4.24924 -0.0703832 0)
(4.43315 -0.0768051 0)
(4.62406 -0.0829359 0)
(4.82005 -0.0883354 0)
(5.0184 -0.0925504 0)
(5.21572 -0.0951546 0)
(5.40807 -0.0957763 0)
(5.59122 -0.0941251 0)
(5.76084 -0.0900242 0)
(5.91277 -0.0834528 0)
(6.04344 -0.074592 0)
(6.1502 -0.0638606 0)
(6.23175 -0.0519148 0)
(6.28837 -0.0395784 0)
(6.32188 -0.0277034 0)
(6.33534 -0.0170841 0)
(6.33275 -0.00842709 0)
(6.31875 -0.00224738 0)
(6.29812 0.00127915 0)
(6.27512 0.00247138 0)
(6.25225 0.00197164 0)
(6.23094 0.000350358 0)
(6.21194 -0.00197118 0)
(6.19555 -0.00468642 0)
(6.18168 -0.0075947 0)
(6.17023 -0.0105916 0)
(6.16109 -0.0135909 0)
(6.15398 -0.0165104 0)
(6.14859 -0.0192959 0)
(6.14464 -0.0219083 0)
(6.14185 -0.0243368 0)
(6.14 -0.026594 0)
(6.1389 -0.0286975 0)
(6.1384 -0.0306649 0)
(6.13838 -0.0325118 0)
(6.13876 -0.0342507 0)
(6.13947 -0.03589 0)
(6.14048 -0.0374329 0)
(6.14177 -0.0388764 0)
(6.14335 -0.0402093 0)
(6.14524 -0.0414097 0)
(6.14749 -0.0424417 0)
(6.15013 -0.0432508 0)
(6.15324 -0.0437586 0)
(6.15686 -0.043857 0)
(6.16108 -0.0434012 0)
(6.16592 -0.0422045 0)
(6.17143 -0.0400338 0)
(6.1776 -0.0366077 0)
(6.18438 -0.0315999 0)
(6.19165 -0.0246454 0)
(6.19919 -0.0153487 0)
(6.20666 -0.00331639 0)
(6.2137 0.0116924 0)
(6.21943 0.0298495 0)
(6.22358 0.0513853 0)
(6.22556 0.0764565 0)
(6.22478 0.105101 0)
(6.22063 0.137213 0)
(6.21249 0.172518 0)
(6.19974 0.210552 0)
(6.1818 0.250666 0)
(6.15818 0.292023 0)
(6.12843 0.33363 0)
(6.09224 0.374375 0)
(6.0494 0.413081 0)
(5.99985 0.448581 0)
(5.94364 0.479801 0)
(5.88098 0.505851 0)
(5.81222 0.526115 0)
(5.73782 0.540333 0)
(5.65832 0.548661 0)
(5.57431 0.551702 0)
(5.48641 0.550505 0)
(5.39552 0.546502 0)
(5.30166 0.54135 0)
(5.19994 0.537059 0)
(5.08602 0.536786 0)
(4.95832 0.542971 0)
(4.81506 0.556805 0)
(4.65384 0.57841 0)
(4.47195 0.606947 0)
(4.26674 0.640776 0)
(4.03618 0.677598 0)
(3.77936 0.714575 0)
(3.49701 0.748414 0)
(3.19187 0.77545 0)
(2.86903 0.79177 0)
(2.536 0.793497 0)
(2.20241 0.777364 0)
(1.87936 0.741634 0)
(1.578 0.687252 0)
(1.30766 0.618684 0)
(1.07387 0.543483 0)
(0.877566 0.470399 0)
(0.715853 0.407205 0)
(0.583549 0.359293 0)
(0.474568 0.329214 0)
(0.383092 0.316163 0)
(0.304424 0.316915 0)
(0.234958 0.326633 0)
(0.172021 0.339756 0)
(0.113877 0.350902 0)
(0.0601318 0.355869 0)
(0.00664287 0.35257 0)
(-0.0471353 0.342159 0)
(-0.10058 0.32602 0)
(-0.153007 0.305152 0)
(-0.203522 0.280357 0)
(-0.251271 0.25226 0)
(-0.295516 0.221378 0)
(-0.335551 0.188182 0)
(-0.370663 0.153123 0)
(-0.40013 0.116631 0)
(-0.423221 0.0791301 0)
(-0.439202 0.041054 0)
(-0.447337 0.00291381 0)
(-0.447017 -0.0345277 0)
(-0.437409 -0.0704064 0)
(-0.417873 -0.103844 0)
(-0.387927 -0.133843 0)
(-0.347384 -0.159234 0)
(-0.296512 -0.17861 0)
(-0.236202 -0.190214 0)
(-0.16813 -0.191743 0)
(-0.0950944 -0.180185 0)
(-0.0204422 -0.151095 0)
(0.0536432 -0.104415 0)
(0.118303 -0.054169 0)
(0.171473 -0.0133252 0)
(0.216321 -0.00114922 0)
(0.266349 -0.0254793 0)
(0.319907 -0.0546113 0)
(0.38178 -0.0694707 0)
(0.44851 -0.0728291 0)
(0.516232 -0.0698328 0)
(0.581909 -0.0634174 0)
(0.643472 -0.0553907 0)
(0.699591 -0.0469377 0)
(0.749558 -0.0388079 0)
(0.793156 -0.0314369 0)
(0.830532 -0.0250346 0)
(0.862085 -0.0196563 0)
(0.888367 -0.0152592 0)
(0.910004 -0.0117463 0)
(0.927639 -0.00899768 0)
(0.941899 -0.00689046 0)
(0.953366 -0.00530867 0)
(0.962569 -0.00414888 0)
(0.969972 -0.00332227 0)
(0.975972 -0.00275437 0)
(0.980898 -0.00238389 0)
(0.985014 -0.00216202 0)
(0.988517 -0.00205219 0)
(0.991546 -0.00202995 0)
(0.994189 -0.00208254 0)
(0.996491 -0.00220963 0)
(0.998464 -0.00242359 0)
(1.00009 -0.00274749 0)
(1.00133 -0.00319765 0)
(1.00216 -0.00368857 0)
(1.00261 -0.00388284 0)
(1.00123 -0.00420202 0)
(2.32738 -0.002394 0)
(2.34707 -0.00469887 0)
(2.36606 -0.00513917 0)
(2.38709 -0.00573276 0)
(2.40925 -0.00633272 0)
(2.4329 -0.00702727 0)
(2.45816 -0.00784326 0)
(2.4854 -0.00884215 0)
(2.51515 -0.0101046 0)
(2.54824 -0.0117386 0)
(2.58574 -0.01387 0)
(2.62899 -0.0166264 0)
(2.67953 -0.020114 0)
(2.73889 -0.0243905 0)
(2.80842 -0.02944 0)
(2.88908 -0.0351613 0)
(2.98126 -0.0413807 0)
(3.08471 -0.0478982 0)
(3.19863 -0.0545574 0)
(3.32191 -0.0613118 0)
(3.45352 -0.0682504 0)
(3.59271 -0.0755578 0)
(3.73914 -0.0834164 0)
(3.89274 -0.0918905 0)
(4.05337 -0.100846 0)
(4.22053 -0.109931 0)
(4.3931 -0.118622 0)
(4.56925 -0.126296 0)
(4.74645 -0.132297 0)
(4.9216 -0.135996 0)
(5.09114 -0.136822 0)
(5.25121 -0.134307 0)
(5.39781 -0.128132 0)
(5.52707 -0.118209 0)
(5.6356 -0.104754 0)
(5.72081 -0.0883608 0)
(5.78142 -0.0700104 0)
(5.81767 -0.0509631 0)
(5.83136 -0.0325389 0)
(5.82552 -0.0159574 0)
(5.80413 -0.00232491 0)
(5.77231 0.00734732 0)
(5.7362 0.0127977 0)
(5.69861 0.0148306 0)
(5.66146 0.0144617 0)
(5.62597 0.0124997 0)
(5.59286 0.00953479 0)
(5.56249 0.00599932 0)
(5.53508 0.00219023 0)
(5.51048 -0.00170529 0)
(5.4883 -0.00553081 0)
(5.46819 -0.009149 0)
(5.44967 -0.0124916 0)
(5.43247 -0.0155627 0)
(5.41641 -0.0183803 0)
(5.40129 -0.0209544 0)
(5.38691 -0.0233037 0)
(5.37314 -0.0254537 0)
(5.35984 -0.027431 0)
(5.34692 -0.0292619 0)
(5.33431 -0.0309698 0)
(5.32197 -0.0325748 0)
(5.30988 -0.0340919 0)
(5.29805 -0.0355298 0)
(5.28648 -0.0368882 0)
(5.27522 -0.0381546 0)
(5.26434 -0.0392996 0)
(5.2539 -0.0402705 0)
(5.24399 -0.0409845 0)
(5.23472 -0.0413192 0)
(5.22622 -0.0411038 0)
(5.2186 -0.0401085 0)
(5.21199 -0.0380364 0)
(5.20653 -0.0345179 0)
(5.20234 -0.0291103 0)
(5.19949 -0.0213076 0)
(5.19804 -0.0105585 0)
(5.19797 0.00367862 0)
(5.19919 0.0217557 0)
(5.20151 0.0439474 0)
(5.20466 0.0705795 0)
(5.2083 0.101883 0)
(5.21201 0.137931 0)
(5.21531 0.178601 0)
(5.21762 0.223549 0)
(5.21834 0.272186 0)
(5.21684 0.323686 0)
(5.21247 0.376994 0)
(5.2046 0.430868 0)
(5.19265 0.483932 0)
(5.17608 0.534755 0)
(5.15445 0.581943 0)
(5.12741 0.624247 0)
(5.09471 0.660673 0)
(5.0562 0.69059 0)
(5.01184 0.713822 0)
(4.96164 0.730707 0)
(4.90569 0.742122 0)
(4.84431 0.749449 0)
(4.77727 0.754403 0)
(4.70048 0.759351 0)
(4.60954 0.768098 0)
(4.50228 0.783862 0)
(4.37664 0.808694 0)
(4.23036 0.843241 0)
(4.06109 0.886732 0)
(3.86675 0.937123 0)
(3.64585 0.991314 0)
(3.398 1.04536 0)
(3.12426 1.09464 0)
(2.82755 1.13395 0)
(2.5129 1.15771 0)
(2.18764 1.16032 0)
(1.86124 1.13698 0)
(1.54479 1.08497 0)
(1.24986 1.00547 0)
(0.986362 0.90498 0)
(0.760163 0.794679 0)
(0.57205 0.687219 0)
(0.418789 0.593238 0)
(0.295141 0.519798 0)
(0.195026 0.470124 0)
(0.112343 0.443073 0)
(0.0423738 0.434936 0)
(-0.0186073 0.440263 0)
(-0.0731486 0.452646 0)
(-0.12272 0.465408 0)
(-0.167675 0.472651 0)
(-0.211072 0.470356 0)
(-0.253393 0.458906 0)
(-0.29429 0.439428 0)
(-0.333134 0.413028 0)
(-0.369266 0.380715 0)
(-0.402094 0.343377 0)
(-0.431078 0.301828 0)
(-0.455719 0.256826 0)
(-0.475538 0.209091 0)
(-0.490075 0.159311 0)
(-0.498871 0.108156 0)
(-0.501458 0.0563092 0)
(-0.49733 0.00461173 0)
(-0.486157 -0.0460914 0)
(-0.467216 -0.0948419 0)
(-0.440064 -0.1405 0)
(-0.404274 -0.181705 0)
(-0.359632 -0.216867 0)
(-0.30623 -0.24411 0)
(-0.244576 -0.261199 0)
(-0.175666 -0.265425 0)
(-0.10106 -0.253536 0)
(-0.0227937 -0.221795 0)
(0.0589914 -0.169695 0)
(0.138041 -0.110759 0)
(0.21357 -0.0614041 0)
(0.287291 -0.044926 0)
(0.357722 -0.0662259 0)
(0.421441 -0.0930049 0)
(0.48489 -0.106588 0)
(0.548084 -0.108044 0)
(0.609645 -0.10198 0)
(0.668028 -0.0917694 0)
(0.721977 -0.0796827 0)
(0.770657 -0.0672374 0)
(0.813649 -0.0554029 0)
(0.850886 -0.0447411 0)
(0.882575 -0.0355155 0)
(0.909111 -0.0277828 0)
(0.930998 -0.021468 0)
(0.948787 -0.0164242 0)
(0.963035 -0.0124749 0)
(0.974278 -0.00944084 0)
(0.983017 -0.00715431 0)
(0.989705 -0.0054666 0)
(0.994745 -0.00424985 0)
(0.998484 -0.00339645 0)
(1.00122 -0.00281731 0)
(1.00318 -0.00244052 0)
(1.00458 -0.00220971 0)
(1.00554 -0.00208224 0)
(1.00616 -0.00202615 0)
(1.00651 -0.00201801 0)
(1.00661 -0.00204047 0)
(1.00646 -0.0020831 0)
(1.00602 -0.00214939 0)
(1.00529 -0.00224948 0)
(1.00433 -0.00245463 0)
(1.0019 -0.00353027 0)
(2.28138 -0.00310724 0)
(2.29736 -0.00608155 0)
(2.31248 -0.00664834 0)
(2.3293 -0.00743166 0)
(2.34697 -0.00821887 0)
(2.36583 -0.00913338 0)
(2.38599 -0.0102116 0)
(2.40782 -0.0115395 0)
(2.43186 -0.0132295 0)
(2.45891 -0.0154316 0)
(2.49004 -0.0183197 0)
(2.52656 -0.022069 0)
(2.5699 -0.0268239 0)
(2.6215 -0.0326607 0)
(2.68256 -0.0395541 0)
(2.75391 -0.0473614 0)
(2.83582 -0.0558396 0)
(2.92798 -0.0647084 0)
(3.02957 -0.0737436 0)
(3.13955 -0.082868 0)
(3.25687 -0.0921859 0)
(3.38074 -0.101931 0)
(3.51065 -0.112339 0)
(3.64624 -0.12349 0)
(3.78708 -0.135209 0)
(3.93239 -0.147034 0)
(4.08092 -0.158278 0)
(4.23083 -0.168117 0)
(4.3798 -0.175683 0)
(4.52506 -0.180124 0)
(4.66352 -0.180655 0)
(4.7919 -0.176602 0)
(4.90681 -0.167484 0)
(5.00497 -0.153115 0)
(5.08347 -0.13374 0)
(5.14012 -0.110148 0)
(5.17383 -0.0837025 0)
(5.1849 -0.0561953 0)
(5.17506 -0.0294845 0)
(5.14711 -0.0052897 0)
(5.10518 0.0142403 0)
(5.05753 0.0274518 0)
(5.00703 0.0348741 0)
(4.95586 0.0379815 0)
(4.90543 0.0380218 0)
(4.85669 0.035967 0)
(4.81026 0.0325404 0)
(4.7665 0.0282768 0)
(4.72552 0.0235996 0)
(4.6873 0.0188608 0)
(4.65164 0.0143177 0)
(4.61828 0.0101377 0)
(4.58703 0.00639975 0)
(4.55751 0.00310051 0)
(4.52934 0.000218224 0)
(4.50225 -0.00226663 0)
(4.47602 -0.00438777 0)
(4.45045 -0.00618768 0)
(4.4254 -0.00771158 0)
(4.40077 -0.00900442 0)
(4.37646 -0.0101091 0)
(4.35244 -0.0110655 0)
(4.32865 -0.0119097 0)
(4.30509 -0.0126734 0)
(4.28178 -0.0133822 0)
(4.25873 -0.0140532 0)
(4.236 -0.014691 0)
(4.21366 -0.0152825 0)
(4.1918 -0.0157909 0)
(4.17054 -0.0161478 0)
(4.15003 -0.0162448 0)
(4.13043 -0.0159252 0)
(4.11197 -0.0149744 0)
(4.09486 -0.0131122 0)
(4.07941 -0.00998759 0)
(4.06591 -0.00517728 0)
(4.05471 0.00180788 0)
(4.04614 0.0115053 0)
(4.0406 0.0244743 0)
(4.03815 0.0412908 0)
(4.03894 0.0625193 0)
(4.04296 0.0886627 0)
(4.0501 0.12011 0)
(4.06015 0.157088 0)
(4.07276 0.199609 0)
(4.08744 0.247434 0)
(4.10359 0.30005 0)
(4.12051 0.356656 0)
(4.13739 0.416188 0)
(4.1534 0.477356 0)
(4.16764 0.538715 0)
(4.17925 0.598763 0)
(4.18736 0.656052 0)
(4.19118 0.70932 0)
(4.18998 0.757623 0)
(4.18307 0.80046 0)
(4.16984 0.83787 0)
(4.14975 0.870491 0)
(4.12237 0.899564 0)
(4.08706 0.926809 0)
(4.04072 0.955204 0)
(3.97885 0.988622 0)
(3.89844 1.02969 0)
(3.79677 1.08031 0)
(3.6714 1.14111 0)
(3.52022 1.21117 0)
(3.34164 1.28805 0)
(3.13484 1.36799 0)
(2.89999 1.44611 0)
(2.6386 1.51659 0)
(2.35371 1.57276 0)
(2.05024 1.60729 0)
(1.7351 1.61256 0)
(1.41736 1.58161 0)
(1.10801 1.50999 0)
(0.819252 1.39855 0)
(0.562217 1.25642 0)
(0.343407 1.10027 0)
(0.163495 0.948 0)
(0.0183028 0.813474 0)
(-0.0981584 0.705825 0)
(-0.190328 0.631328 0)
(-0.265244 0.587429 0)
(-0.327521 0.569131 0)
(-0.381058 0.569302 0)
(-0.428554 0.579606 0)
(-0.471423 0.591549 0)
(-0.509896 0.597248 0)
(-0.545992 0.59089 0)
(-0.580164 0.572615 0)
(-0.611775 0.543797 0)
(-0.640024 0.505921 0)
(-0.664159 0.460459 0)
(-0.683524 0.408809 0)
(-0.697569 0.352271 0)
(-0.705856 0.292033 0)
(-0.708052 0.229166 0)
(-0.703921 0.164633 0)
(-0.693278 0.0993018 0)
(-0.675825 0.0339936 0)
(-0.65173 -0.0306898 0)
(-0.620273 -0.0937226 0)
(-0.581576 -0.154099 0)
(-0.535453 -0.210508 0)
(-0.481847 -0.261366 0)
(-0.420839 -0.304795 0)
(-0.352676 -0.338598 0)
(-0.277825 -0.360231 0)
(-0.196978 -0.366783 0)
(-0.111087 -0.354992 0)
(-0.0213357 -0.321615 0)
(0.0730243 -0.266059 0)
(0.167199 -0.200893 0)
(0.261191 -0.143657 0)
(0.353643 -0.117704 0)
(0.437008 -0.127995 0)
(0.507156 -0.145181 0)
(0.57071 -0.152098 0)
(0.629201 -0.148391 0)
(0.683269 -0.137427 0)
(0.732972 -0.122339 0)
(0.778089 -0.10551 0)
(0.818429 -0.0886234 0)
(0.85394 -0.0727796 0)
(0.884721 -0.0586149 0)
(0.911007 -0.0464133 0)
(0.933119 -0.0362107 0)
(0.951436 -0.027886 0)
(0.966361 -0.0212348 0)
(0.978309 -0.016021 0)
(0.987686 -0.0120084 0)
(0.994886 -0.00897786 0)
(1.00028 -0.00673537 0)
(1.0042 -0.00511373 0)
(1.00694 -0.00397173 0)
(1.00876 -0.00319261 0)
(1.00989 -0.00268254 0)
(1.01048 -0.00236839 0)
(1.01066 -0.00219566 0)
(1.01054 -0.00212516 0)
(1.01016 -0.00213015 0)
(1.00956 -0.00219169 0)
(1.00874 -0.00229361 0)
(1.00766 -0.00241539 0)
(1.00633 -0.00250098 0)
(1.00478 -0.00253883 0)
(1.00202 -0.00326525 0)
(2.21888 -0.00379609 0)
(2.23039 -0.00738543 0)
(2.24087 -0.00806222 0)
(2.25263 -0.00902105 0)
(2.26487 -0.00997904 0)
(2.2779 -0.0110987 0)
(2.29182 -0.0124289 0)
(2.30701 -0.0140857 0)
(2.32398 -0.0162203 0)
(2.34353 -0.0190335 0)
(2.36668 -0.0227545 0)
(2.39468 -0.0276115 0)
(2.42887 -0.0337877 0)
(2.47052 -0.0413739 0)
(2.5207 -0.0503262 0)
(2.58006 -0.0604481 0)
(2.64873 -0.0714157 0)
(2.72636 -0.0828584 0)
(2.81216 -0.0944779 0)
(2.90513 -0.106159 0)
(3.00427 -0.118013 0)
(3.1087 -0.130304 0)
(3.2177 -0.143296 0)
(3.33057 -0.157061 0)
(3.44652 -0.171354 0)
(3.56445 -0.185588 0)
(3.68291 -0.198904 0)
(3.8001 -0.210284 0)
(3.9139 -0.218652 0)
(4.02198 -0.222952 0)
(4.12187 -0.222198 0)
(4.21106 -0.215531 0)
(4.28706 -0.202311 0)
(4.34753 -0.182265 0)
(4.39042 -0.155658 0)
(4.41428 -0.123474 0)
(4.41844 -0.0874768 0)
(4.40339 -0.0499964 0)
(4.37066 -0.0133923 0)
(4.32226 0.0191836 0)
(4.26777 0.0440057 0)
(4.20994 0.0603688 0)
(4.15059 0.0699914 0)
(4.091 0.074533 0)
(4.0321 0.0753841 0)
(3.97467 0.0736422 0)
(3.91932 0.0701403 0)
(3.86647 0.0655314 0)
(3.81639 0.0603516 0)
(3.76914 0.0550408 0)
(3.72465 0.0499318 0)
(3.68275 0.0452486 0)
(3.64321 0.0411352 0)
(3.60577 0.0376761 0)
(3.57018 0.0348855 0)
(3.53618 0.0327237 0)
(3.50355 0.0311329 0)
(3.47209 0.0300499 0)
(3.44164 0.02941 0)
(3.41204 0.0291489 0)
(3.38318 0.0292027 0)
(3.35495 0.0295082 0)
(3.32727 0.0300024 0)
(3.30009 0.0306218 0)
(3.27337 0.0313027 0)
(3.24709 0.0319831 0)
(3.22125 0.032605 0)
(3.19591 0.033118 0)
(3.17114 0.0334843 0)
(3.14703 0.0336838 0)
(3.12373 0.0337203 0)
(3.10141 0.033627 0)
(3.08029 0.0334728 0)
(3.06061 0.0333699 0)
(3.04266 0.0334809 0)
(3.02676 0.0340302 0)
(3.01324 0.0353204 0)
(3.00246 0.037765 0)
(2.99477 0.0419252 0)
(2.99052 0.0484515 0)
(2.99002 0.0580292 0)
(2.99352 0.0713816 0)
(3.00118 0.0892381 0)
(3.01309 0.112283 0)
(3.02918 0.141094 0)
(3.04927 0.176077 0)
(3.07301 0.217401 0)
(3.09989 0.264951 0)
(3.12927 0.318303 0)
(3.16035 0.376722 0)
(3.19223 0.439204 0)
(3.22389 0.50455 0)
(3.25426 0.571474 0)
(3.28223 0.63874 0)
(3.30665 0.705314 0)
(3.32639 0.770515 0)
(3.34034 0.834151 0)
(3.34739 0.896616 0)
(3.3465 0.958936 0)
(3.33659 1.02271 0)
(3.31544 1.0918 0)
(3.27859 1.16953 0)
(3.22234 1.25626 0)
(3.14345 1.35234 0)
(3.03928 1.45734 0)
(2.9079 1.56961 0)
(2.74816 1.68616 0)
(2.55981 1.80268 0)
(2.34355 1.9137 0)
(2.10117 2.01263 0)
(1.83569 2.0917 0)
(1.55159 2.14201 0)
(1.25502 2.15374 0)
(0.954119 2.11709 0)
(0.659168 2.02441 0)
(0.382751 1.87474 0)
(0.137451 1.68016 0)
(-0.0721293 1.46328 0)
(-0.243532 1.25454 0)
(-0.381789 1.07274 0)
(-0.492273 0.926038 0)
(-0.579392 0.818443 0)
(-0.647872 0.749507 0)
(-0.702362 0.714527 0)
(-0.747041 0.705497 0)
(-0.785198 0.712112 0)
(-0.818981 0.722989 0)
(-0.849355 0.726951 0)
(-0.877747 0.715311 0)
(-0.904768 0.687469 0)
(-0.929646 0.644861 0)
(-0.95137 0.58942 0)
(-0.968913 0.523357 0)
(-0.98127 0.448998 0)
(-0.987507 0.368653 0)
(-0.986792 0.284501 0)
(-0.978429 0.1985 0)
(-0.961836 0.112267 0)
(-0.936496 0.0269309 0)
(-0.902215 -0.0568037 0)
(-0.858432 -0.137668 0)
(-0.805495 -0.214717 0)
(-0.743562 -0.286788 0)
(-0.673044 -0.352546 0)
(-0.594562 -0.410411 0)
(-0.508904 -0.458519 0)
(-0.416999 -0.494703 0)
(-0.319888 -0.516495 0)
(-0.218645 -0.521141 0)
(-0.114491 -0.505708 0)
(-0.00830658 -0.467471 0)
(0.100011 -0.40596 0)
(0.206945 -0.332186 0)
(0.312561 -0.263174 0)
(0.414043 -0.220855 0)
(0.502549 -0.211583 0)