/*--------------------------------*- C++ -*----------------------------------*\
| =========                 |                                                 |
| \\      /  F ield         | OpenFOAM: The Open Source CFD Toolbox           |
|  \\    /   O peration     | Version:  2406                                  |
|   \\  /    A nd           | Website:  www.openfoam.com                      |
|    \\/     M anipulation  |                                                 |
\*---------------------------------------------------------------------------*/
FoamFile
{
    version     2.0;
    format      ascii;
    arch        "LSB;label=32;scalar=64";
    class       surfaceScalarField;
    location    "0.3";
    object      alphaPhi0.glycerin;
}
// * * * * * * * * * * * * * * * * * * * * * * * * * * * * * * * * * * * * * //

dimensions      [0 3 -1 0 0 0 0];

oriented        oriented;

internalField   nonuniform List<scalar> 
12225
(
0
0
0
0
0
0
0
0
0
0
0
0
0
0
0
0
0
0
0
0
0
0
0
0
0
0
0
0
0
0
0
0
0
0
0
0
0
0
0
0
0
0
0
0
0
0
0
0
0
0
0
0
0
0
0
0
0
0
0
0
0
0
0
0
0
0
0
0
0
0
0
0
0
0
0
0
0
0
0
0
0
0
0
0
0
0
0
0
0
0
0
0
0
0
0
0
0
0
0
0
0
0
0
0
0
0
0
0
0
0
0
0
0
0
0
0
0
0
0
0
0
0
0
0
0
0
0
0
0
0
0
0
0
0
0
0
0
0
0
0
0
0
0
0
0
0
0
0
0
0
0
0
0
0
0
0
0
0
0
0
0
0
0
0
0
0
0
0
0
0
0
0
0
0
0
0
0
0
0
0
0
0
0
0
0
0
0
0
0
0
0
0
0
0
0
0
0
0
0
0
0
0
0
0
0
0
0
0
0
0
0
0
0
0
0
0
0
0
0
0
0
0
0
0
0
0
0
0
0
0
0
0
0
0
0
0
0
0
0
0
0
0
0
0
0
0
0
0
0
0
0
0
0
0
0
0
0
0
0
0
0
0
0
0
0
0
0
0
0
0
0
0
0
0
0
0
0
0
0
0
0
0
0
0
0
0
0
0
0
0
0
0
0
0
0
0
0
0
0
0
0
0
0
0
0
0
0
0
-4.94066e-324
0
-2.26704e-308
-2.37084e-310
-8.82016e-293
-1.03777e-294
-1.33358e-263
-1.76953e-265
-1.42426e-246
-2.13613e-248
-2.60573e-231
-4.42719e-233
-2.01855e-212
-3.89338e-214
-2.56666e-200
-5.63196e-202
-2.31039e-188
-5.7795e-190
-3.05239e-176
-8.7232e-178
-7.35468e-164
-2.40643e-165
-2.60004e-151
-9.76212e-153
-7.96997e-139
-3.4421e-140
-8.81286e-127
-4.3896e-128
-4.70844e-115
-2.71344e-116
-1.1945e-103
-7.99597e-105
-9.2623e-93
-7.23637e-94
-1.02868e-82
-9.43655e-84
-1.15468e-73
-1.25343e-74
-1.40936e-65
-1.82924e-66
-1.20709e-51
-1.90028e-52
-2.39454e-43
-4.66795e-44
-3.18925e-37
-7.94849e-38
-6.7752e-32
-2.27811e-32
-1.57274e-27
-7.93996e-28
-4.83132e-24
-4.90071e-24
1.26136e-21
-4.20501e-21
8.51635e-21
-1.1061e-20
8.42715e-21
-2.50513e-21
5.7904e-21
3.14519e-22
6.91131e-22
1.39022e-21
-1.43473e-20
2.27184e-21
-1.27699e-20
-1.3188e-20
2.11735e-07
5.76965e-08
2.91719e-07
6.36104e-08
2.46602e-07
4.51879e-08
1.98339e-07
4.83339e-08
1.74677e-07
2.35186e-08
1.6337e-07
1.1807e-08
1.52713e-07
1.06566e-08
1.47184e-07
5.5203e-09
1.4774e-07
-5.56114e-10
1.48267e-07
-5.26899e-10
1.45455e-07
2.8162e-09
1.41325e-07
4.13024e-09
1.38822e-07
2.50317e-09
1.38048e-07
7.63723e-10
1.38259e-07
-2.3706e-10
1.38909e-07
-6.58164e-10
1.39646e-07
-7.31205e-10
1.41027e-07
-1.35155e-09
1.43445e-07
-2.41767e-09
1.46277e-07
-2.83174e-09
1.48412e-07
-2.13536e-09
1.49511e-07
-1.10666e-09
1.50439e-07
-9.29269e-10
1.52881e-07
-2.4351e-09
1.57257e-07
-4.3758e-09
1.63687e-07
-6.43061e-09
1.71848e-07
-8.1588e-09
1.80463e-07
-8.61169e-09
1.87773e-07
-7.30741e-09
1.92645e-07
-4.8698e-09
1.94381e-07
-2.08801e-09
1.93591e-07
7.67245e-10
1.90291e-07
3.27663e-09
1.84318e-07
6.37261e-09
1.75076e-07
9.24182e-09
1.66679e-07
8.39685e-09
1.62957e-07
3.7223e-09
1.64509e-07
-1.47091e-09
1.6893e-07
-4.32008e-09
1.74591e-07
-5.65381e-09
1.77932e-07
-4.24585e-09
1.78052e-07
-2.91161e-10
1.75196e-07
2.83955e-09
1.72475e-07
3.44316e-09
1.69445e-07
2.50978e-09
1.66272e-07
2.88719e-09
1.61303e-07
4.23483e-09
1.56352e-07
5.42884e-09
1.50474e-07
6.64014e-09
1.41849e-07
8.62565e-09
1.31456e-07
1.03922e-08
1.21626e-07
9.83088e-09
1.13695e-07
7.29448e-09
1.09032e-07
4.3191e-09
1.05576e-07
2.31974e-09
1.01864e-07
2.53546e-09
1.00761e-07
2.84657e-09
9.96508e-08
1.75407e-09
9.99092e-08
-2.57697e-10
1.01499e-07
-1.58889e-09
1.01598e-07
-1.60057e-09
1.01581e-07
-5.64494e-10
4.43605e-10
0
0
0
0
0
0
0
0
0
0
0
0
0
0
0
0
0
0
0
0
0
0
0
0
0
0
0
0
0
0
0
0
0
0
0
0
0
0
0
0
0
0
0
0
0
0
0
0
0
0
0
0
0
0
0
0
0
0
0
0
0
0
0
0
0
0
0
0
0
0
0
0
0
0
0
0
0
0
0
0
0
0
0
0
0
0
0
0
0
0
0
0
0
0
0
0
0
0
0
0
0
0
0
0
0
0
0
0
0
0
0
0
0
0
0
0
0
0
0
0
0
0
0
0
0
0
0
0
0
0
0
0
0
0
0
0
0
0
0
0
0
0
0
0
0
0
0
0
0
0
0
0
0
0
0
0
0
0
0
0
0
0
0
0
0
0
0
0
0
0
0
0
0
0
0
0
0
0
0
0
0
0
0
0
0
0
0
0
0
0
0
0
0
0
0
0
0
0
0
0
0
0
0
0
0
0
0
0
0
0
0
0
0
0
0
0
0
0
0
0
0
0
0
0
0
0
0
0
0
0
0
0
0
0
0
0
0
0
0
0
0
0
0
0
0
0
0
0
0
0
0
0
0
0
0
0
0
0
0
0
0
0
0
0
0
0
0
0
0
0
0
0
0
0
0
0
0
0
0
0
0
0
0
0
0
0
0
0
0
0
0
0
0
0
0
0
0
0
0
0
0
0
0
0
0
0
0
0
0
0
-8.55619e-310
-7.07742e-312
-3.64095e-294
-3.39191e-296
-6.02259e-265
-6.32932e-267
-7.03726e-248
-8.35546e-250
-1.40847e-232
-1.89186e-234
-1.1933e-213
-1.81545e-215
-1.65891e-201
-2.86148e-203
-1.63197e-189
-3.19431e-191
-2.35545e-177
-5.23495e-179
-6.19829e-165
-1.56483e-166
-2.39271e-152
-6.86324e-154
-8.00932e-140
-2.61014e-141
-9.67487e-128
-3.58121e-129
-5.65276e-116
-2.3755e-117
-1.5713e-104
-7.49129e-106
-1.33886e-93
-7.23474e-95
-1.64088e-83
-1.00381e-84
-2.04495e-74
-1.41433e-75
-2.79556e-66
-2.18257e-67
-2.71614e-52
-2.3898e-53
-6.23023e-44
-6.16682e-45
-9.88985e-38
-1.09918e-38
-2.63776e-32
-3.28429e-33
-8.53901e-28
-1.18697e-28
-4.88855e-24
-7.51914e-25
-3.80779e-21
-6.34112e-22
-1.30213e-20
-2.28638e-21
-1.34394e-20
-2.51738e-21
-1.11728e-20
-2.39028e-21
-8.02765e-21
-2.20078e-21
-4.43838e-21
-1.77916e-21
-8.57166e-21
-1.09398e-20
9.22365e-08
3.1783e-09
1.61869e-07
-1.13274e-09
3.30782e-07
1.26887e-08
5.66477e-07
7.37152e-08
5.39224e-07
5.07783e-08
4.93873e-07
5.7158e-08
4.42437e-07
6.20928e-08
4.14571e-07
3.33861e-08
4.08025e-07
5.99021e-09
3.99881e-07
7.61743e-09
3.7887e-07
2.38268e-08
3.62713e-07
2.02871e-08
3.54148e-07
1.10685e-08
3.50615e-07
4.29661e-09
3.49877e-07
-1.91458e-10
3.49101e-07
-1.07322e-09
3.4983e-07
-1.08824e-09
3.56007e-07
-5.26285e-09
3.66979e-07
-1.23021e-08
3.80107e-07
-1.59596e-08
3.93155e-07
-1.51827e-08
4.03835e-07
-1.18529e-08
4.12396e-07
-9.49943e-09
4.24815e-07
-1.48532e-08
4.41241e-07
-2.0808e-08
4.59957e-07
-2.51628e-08
4.79582e-07
-2.85517e-08
4.98701e-07
-2.95715e-08
5.16645e-07
-2.60396e-08
5.31107e-07
-1.84411e-08
5.40637e-07
-1.04352e-08
5.44342e-07
-2.93669e-09
5.42625e-07
4.9931e-09
5.31426e-07
1.75714e-08
5.08471e-07
3.21969e-08
4.61241e-07
2.79932e-08
4.48846e-07
1.40396e-08
4.45097e-07
1.70476e-10
4.77807e-07
-9.15756e-09
4.84544e-07
-1.23839e-08
4.90591e-07
-9.49881e-09
4.88076e-07
2.23436e-09
4.74407e-07
1.65189e-08
4.61999e-07
1.58614e-08
4.52193e-07
1.23256e-08
4.1988e-07
1.39274e-08
4.04013e-07
1.79688e-08
3.87737e-07
1.95605e-08
3.8951e-07
2.09497e-08
3.71343e-07
2.67935e-08
3.45591e-07
3.61437e-08
3.22103e-07
3.33194e-08
3.03716e-07
2.56812e-08
2.89767e-07
1.82685e-08
2.48771e-07
1.06034e-08
2.51188e-07
1.04195e-08
2.53234e-07
1.08895e-08
2.49405e-07
9.38542e-09
2.43725e-07
5.4232e-09
2.40512e-07
1.62471e-09
2.38899e-07
1.35403e-11
2.34268e-07
1.01017e-09
2.97027e-09
0
0
0
0
0
0
0
0
0
0
0
0
0
0
0
0
0
0
0
0
0
0
0
0
0
0
0
0
0
0
0
0
0
0
0
0
0
0
0
0
0
0
0
0
0
0
0
0
0
0
0
0
0
0
0
0
0
0
0
0
0
0
0
0
0
0
0
0
0
0
0
0
0
0
0
0
0
0
0
0
0
0
0
0
0
0
0
0
0
0
0
0
0
0
0
0
0
0
0
0
0
0
0
0
0
0
0
0
0
0
0
0
0
0
0
0
0
0
0
0
0
0
0
0
0
0
0
0
0
0
0
0
0
0
0
0
0
0
0
0
0
0
0
0
0
0
0
0
0
0
0
0
0
0
0
0
0
0
0
0
0
0
0
0
0
0
0
0
0
0
0
0
0
0
0
0
0
0
0
0
0
0
0
0
0
0
0
0
0
0
0
0
0
0
0
0
0
0
0
0
0
0
0
0
0
0
0
0
0
0
0
0
0
0
0
0
0
0
0
0
0
0
0
0
0
0
0
0
0
0
0
0
0
0
0
0
0
0
0
0
0
0
0
0
0
0
0
0
0
0
0
0
0
0
0
0
0
0
0
0
0
0
0
0
0
0
0
0
0
0
0
0
0
0
0
0
0
0
0
0
0
0
0
0
0
0
0
0
0
0
0
0
0
0
0
0
0
0
0
0
0
0
0
0
0
0
0
0
-0
0
-2.8732e-311
-2.44172e-313
-1.3284e-295
-1.26505e-297
-2.38466e-266
-2.54666e-268
-3.01961e-249
-3.61856e-251
-6.53833e-234
-8.79652e-236
-5.9815e-215
-9.03827e-217
-8.95992e-203
-1.52101e-204
-9.47604e-191
-1.8075e-192
-1.46684e-178
-3.14392e-180
-4.12956e-166
-9.94476e-168
-1.70128e-153
-4.60221e-155
-6.06296e-141
-1.84168e-142
-7.77946e-129
-2.65202e-130
-4.81809e-117
-1.84199e-118
-1.41704e-105
-6.0698e-107
-1.27548e-94
-6.11435e-96
-1.64916e-84
-8.83546e-86
-2.16612e-75
-1.29489e-76
-3.11881e-67
-2.07642e-68
-3.19029e-53
-2.36066e-54
-7.70377e-45
-6.32129e-46
-1.2875e-38
-1.16877e-39
-3.6151e-33
-3.62223e-34
-1.23065e-28
-1.35835e-29
-7.36081e-25
-8.94329e-26
-5.79063e-22
-7.75715e-23
-2.54728e-21
-3.79402e-22
-4.41686e-21
-7.43797e-22
-5.79944e-21
-1.1365e-21
-6.57638e-21
-1.5834e-21
-6.47542e-21
-2.06592e-21
-1.42658e-20
-4.1098e-21
2.89954e-09
2.78721e-10
1.74623e-09
2.01485e-11
1.42985e-08
1.42116e-10
1.28035e-07
3.69797e-09
1.95678e-07
-2.51619e-09
3.08274e-07
4.03755e-09
5.72086e-07
2.44386e-08
4.5993e-07
3.82181e-08
1.65112e-07
-8.8495e-10
1.79392e-07
-1.89068e-09
3.9853e-07
4.13693e-09
5.33471e-07
2.97434e-08
5.06146e-07
2.0999e-08
4.58013e-07
1.38466e-08
2.63846e-07
6.45096e-09
1.00103e-07
5.72322e-10
1.63228e-07
-1.86122e-11
2.737e-07
-1.59532e-11
3.57132e-07
-6.6293e-14
3.59803e-07
-1.00776e-14
3.84123e-07
-3.0719e-13
4.57967e-07
-7.8186e-13
5.52947e-07
-3.39504e-15
6.44122e-07
-3.91388e-14
6.8528e-07
-3.51406e-08
7.0976e-07
-4.96719e-08
7.3256e-07
-5.13417e-08
7.15128e-07
-5.99307e-08
7.3135e-07
-5.18797e-08
8.04272e-07
-4.52077e-08
8.52267e-07
-3.52657e-08
8.67132e-07
-1.77974e-08
7.41678e-07
7.95405e-10
5.74286e-07
1.20423e-08
5.36292e-07
3.24029e-08
7.92777e-07
5.07063e-08
7.86131e-07
2.27879e-08
8.0237e-07
-1.39647e-08
8.16087e-07
-1.53723e-08
6.99283e-07
-6.1489e-09
2.58965e-07
-7.25367e-10
4.49232e-07
5.13411e-09
6.56915e-07
1.87133e-08
7.94856e-07
2.58693e-08
7.62355e-07
2.04908e-08
7.22369e-07
3.18845e-08
6.80595e-07
4.60919e-08
6.40976e-07
4.54529e-08
5.43585e-07
3.46105e-08
4.64838e-07
2.48999e-08
5.30218e-07
5.11168e-08
4.99004e-07
6.4534e-08
4.55031e-07
4.49451e-08
3.88697e-07
2.84907e-08
4.15997e-07
1.57827e-08
4.0704e-07
2.98938e-08
3.82829e-07
2.58795e-08
3.65994e-07
1.92927e-08
3.6264e-07
1.24918e-08
3.73777e-07
7.6201e-09
3.58162e-07
1.56292e-08
3.4049e-07
1.86842e-08
9.56771e-09
0
0
0
0
0
0
0
0
0
0
0
0
0
0
0
0
0
0
0
0
0
0
0
0
0
0
0
0
0
0
0
0
0
0
0
0
0
0
0
0
0
0
0
0
0
0
0
0
0
0
0
0
0
0
0
0
0
0
0
0
0
0
0
0
0
0
0
0
0
0
0
0
0
0
0
0
0
0
0
0
0
0
0
0
0
0
0
0
0
0
0
0
0
0
0
0
0
0
0
0
0
0
0
0
0
0
0
0
0
0
0
0
0
0
0
0
0
0
0
0
0
0
0
0
0
0
0
0
0
0
0
0
0
0
0
0
0
0
0
0
0
0
0
0
0
0
0
0
0
0
0
0
0
0
0
0
0
0
0
0
0
0
0
0
0
0
0
0
0
0
0
0
0
0
0
0
0
0
0
0
0
0
0
0
0
0
0
0
0
0
0
0
0
0
0
0
0
0
0
0
0
0
0
0
0
0
0
0
0
0
0
0
0
0
0
0
0
0
0
0
0
0
0
0
0
0
0
0
0
0
0
0
0
0
0
0
0
0
0
0
0
0
0
0
0
0
0
0
0
0
0
0
0
0
0
0
0
0
0
0
0
0
0
0
0
0
0
0
0
0
0
0
0
0
0
0
0
0
0
0
0
0
0
0
0
0
0
0
0
0
0
0
0
0
0
0
0
0
0
0
0
0
0
0
0
0
0
0
-0
0
-1.03369e-312
-9.3832e-315
-5.1657e-297
-5.24298e-299
-1.00026e-267
-1.13532e-269
-1.36311e-250
-1.73023e-252
-3.1684e-235
-4.49718e-237
-3.10307e-216
-4.92398e-218
-4.96173e-204
-8.7987e-206
-5.58448e-192
-1.10612e-193
-9.1707e-180
-2.02754e-181
-2.73029e-167
-6.73232e-169
-1.18573e-154
-3.25766e-156
-4.4407e-142
-1.35782e-143
-5.97004e-130
-2.029e-131
-3.86323e-118
-1.45729e-119
-1.18414e-106
-4.95004e-108
-1.10831e-95
-5.12577e-97
-1.4873e-85
-7.59687e-87
-2.02446e-76
-1.14005e-77
-3.01743e-68
-1.87023e-69
-3.19322e-54
-2.17493e-55
-7.97607e-46
-5.96195e-47
-1.37931e-39
-1.13043e-40
-4.01081e-34
-3.60303e-35
-1.41612e-29
-1.39526e-30
-8.81147e-26
-9.53953e-27
-7.15287e-23
-8.53636e-24
-4.06605e-22
-5.37443e-23
-1.02044e-21
-1.50448e-22
-1.88029e-21
-3.12076e-22
-2.9579e-21
-5.60101e-22
-4.18887e-21
-9.11282e-22
-7.66022e-21
-6.83523e-22
2.61041e-10
1.7654e-11
2.69684e-10
1.1529e-11
3.77537e-10
3.45982e-11
3.64694e-09
4.33951e-10
1.2281e-09
-9.83167e-11
5.19168e-09
7.93307e-11
4.99272e-08
2.58528e-09
7.35811e-08
-1.98999e-09
4.04981e-08
-5.86492e-10
1.31444e-08
-1.5146e-10
1.59411e-08
-1.78792e-11
2.93641e-08
-1.01144e-10
1.76584e-08
-1.50555e-10
4.46384e-09
-7.81626e-11
4.61775e-10
-1.08375e-10
3.54149e-11
-1.00126e-12
1.61199e-11
3.75287e-13
1.21171e-13
4.05124e-16
1.89938e-14
-7.09951e-15
1.73631e-14
-5.15966e-14
1.79677e-14
-3.50862e-13
2.283e-14
-8.13467e-13
2.58752e-14
-1.70151e-14
2.6046e-13
-2.8522e-13
5.95715e-07
-1.11227e-11
7.8805e-07
-7.53718e-12
7.16206e-07
-3.64456e-12
4.09875e-07
-1.2535e-12
4.77144e-07
-5.63677e-14
7.69717e-07
-6.79962e-13
1.02077e-06
-2.07021e-12
1.04918e-06
-2.35577e-12
8.79119e-07
-4.52511e-12
8.17938e-07
-1.38284e-13
1.11056e-06
6.21224e-08
1.16998e-06
9.03694e-08
1.16907e-06
2.72208e-08
7.69889e-07
-4.34472e-08
3.66213e-07
-6.85818e-08
3.92436e-07
-3.43232e-08
3.87744e-07
2.01496e-09
7.01485e-07
1.00226e-08
1.13853e-06
2.5212e-08
1.03576e-06
2.29655e-08
4.83654e-07
7.54386e-09
3.58508e-07
1.54014e-08
3.66107e-07
2.23024e-08
2.01723e-07
2.38662e-08
2.01809e-07
1.29804e-08
3.37482e-07
1.25938e-08
8.39797e-07
6.67512e-08
8.55436e-07
8.15669e-08
8.15871e-07
9.48908e-08
4.72447e-07
5.92774e-08
2.37526e-07
1.40338e-08
1.93939e-07
5.62372e-09
3.43137e-07
4.46868e-09
4.23783e-07
1.9611e-09
2.22512e-07
6.59881e-09
3.777e-08
-2.02353e-09
7.40629e-08
3.78209e-09
2.14874e-07
-2.1858e-09
1.65363e-08
0
0
0
0
0
0
0
0
0
0
0
0
0
0
0
0
0
0
0
0
0
0
0
0
0
0
0
0
0
0
0
0
0
0
0
0
0
0
0
0
0
0
0
0
0
0
0
0
0
0
0
0
0
0
0
0
0
0
0
0
0
0
0
0
0
0
0
0
0
0
0
0
0
0
0
0
0
0
0
0
0
0
0
0
0
0
0
0
0
0
0
0
0
0
0
0
0
0
0
0
0
0
0
0
0
0
0
0
0
0
0
0
0
0
0
0
0
0
0
0
0
0
0
0
0
0
0
0
0
0
0
0
0
0
0
0
0
0
0
0
0
0
0
0
0
0
0
0
0
0
0
0
0
0
0
0
0
0
0
0
0
0
0
0
0
0
0
0
0
0
0
0
0
0
0
0
0
0
0
0
0
0
0
0
0
0
0
0
0
0
0
0
0
0
0
0
0
0
0
0
0
0
0
0
0
0
0
0
0
0
0
0
0
0
0
0
0
0
0
0
0
0
0
0
0
0
0
0
0
0
0
0
0
0
0
0
0
0
0
0
0
0
0
0
0
0
0
0
0
0
0
0
0
0
0
0
0
0
0
0
0
0
0
0
0
0
0
0
0
0
0
0
0
0
0
0
0
0
0
0
0
0
0
0
0
0
0
0
0
0
0
0
0
0
0
0
0
0
0
0
0
0
0
0
0
0
0
0
0
0
-3.94732e-314
-3.60009e-316
-2.12504e-298
-2.16387e-300
-4.42151e-269
-5.0259e-271
-6.45661e-252
-8.19042e-254
-1.60339e-236
-2.26897e-238
-1.67242e-217
-2.63877e-219
-2.83858e-205
-4.99062e-207
-3.37967e-193
-6.61611e-195
-5.85046e-181
-1.27414e-182
-1.82955e-168
-4.42831e-170
-8.31614e-156
-2.23458e-157
-3.24838e-143
-9.67776e-145
-4.5394e-131
-1.49739e-132
-3.04354e-119
-1.1099e-120
-9.6371e-108
-3.87884e-109
-9.29321e-97
-4.12101e-98
-1.28195e-86
-6.25151e-88
-1.79049e-77
-9.58354e-79
-2.73507e-69
-1.6037e-70
-2.96491e-55
-1.90085e-56
-7.58871e-47
-5.31052e-48
-1.34655e-40
-1.02702e-41
-4.02799e-35
-3.34465e-36
-1.46892e-30
-1.32705e-31
-9.49599e-27
-9.33295e-28
-7.95792e-24
-8.51362e-25
-5.64793e-23
-6.58552e-24
-1.86978e-22
-2.38136e-23
-4.45306e-22
-6.20961e-23
-8.85383e-22
-1.3548e-22
-1.55998e-21
-2.62266e-22
-2.13101e-21
-1.22811e-22
1.66557e-11
9.93005e-13
2.72674e-11
9.09215e-13
5.94317e-11
2.44875e-12
4.67611e-10
2.57972e-11
3.62327e-10
6.5603e-12
4.26551e-10
1.5424e-11
2.79525e-09
2.19886e-10
8.80365e-10
-7.6018e-11
3.09457e-10
-5.00811e-11
1.99369e-10
-4.427e-11
2.23349e-10
-4.27609e-11
1.37026e-10
-1.56779e-11
1.16163e-11
-2.57426e-11
-6.05846e-11
-6.11112e-12
-1.3516e-10
2.7628e-12
-4.05386e-13
-2.96755e-12
-5.99606e-13
-5.01441e-15
-1.1864e-12
8.18127e-14
-2.07643e-11
3.79346e-13
-2.00895e-11
2.18888e-13
-1.80605e-11
-1.46452e-12
-3.33594e-12
-3.17836e-12
-2.48122e-12
-8.82246e-13
-3.82239e-13
-1.40448e-12
1.07218e-13
-1.17195e-11
3.44377e-13
-7.89796e-12
3.92882e-13
-3.80047e-12
3.82711e-13
-1.31732e-12
3.6327e-13
-1.10912e-13
3.59265e-13
-7.47161e-13
3.82751e-13
-2.12908e-12
4.14523e-13
-2.39106e-12
5.37121e-13
-4.65884e-12
1.3777e-12
-1.01401e-12
5.64536e-07
9.98702e-09
1.73627e-06
6.98196e-08
1.67628e-06
3.93858e-08
1.49682e-06
-2.84267e-08
1.48111e-06
-2.35739e-08
1.47688e-06
2.43021e-08
1.45317e-06
3.45044e-08
1.44899e-06
2.30702e-08
1.4676e-06
1.53377e-08
9.449e-07
9.46423e-09
1.237e-07
5.75878e-10
1.38942e-07
-2.81678e-12
6.04316e-07
5.42209e-08
7.25627e-07
8.34661e-08
2.95065e-07
6.42874e-08
2.19619e-07
3.12055e-08
2.08488e-07
2.06358e-08
2.42123e-07
-9.31577e-09
6.11377e-07
1.28702e-08
9.33166e-07
4.04811e-08
9.27119e-07
5.69399e-08
9.13386e-07
5.66991e-08
2.14639e-07
2.38841e-08
-9.33765e-09
-1.38382e-11
4.05355e-09
-1.72472e-08
2.93023e-09
-4.9012e-09
3.07156e-09
6.65997e-11
3.0205e-09
-2.20289e-11
-1.84006e-09
0
0
0
0
0
0
0
0
0
0
0
0
0
0
0
0
0
0
0
0
0
0
0
0
0
0
0
0
0
0
0
0
0
0
0
0
0
0
0
0
0
0
0
0
0
0
0
0
0
0
0
0
0
0
0
0
0
0
0
0
0
0
0
0
0
0
0
0
0
0
0
0
0
0
0
0
0
0
0
0
0
0
0
0
0
0
0
0
0
0
0
0
0
0
0
0
0
0
0
0
0
0
0
0
0
0
0
0
0
0
0
0
0
0
0
0
0
0
0
0
0
0
0
0
0
0
0
0
0
0
0
0
0
0
0
0
0
0
0
0
0
0
0
0
0
0
0
0
0
0
0
0
0
0
0
0
0
0
0
0
0
0
0
0
0
0
0
0
0
0
0
0
0
0
0
0
0
0
0
0
0
0
0
0
0
0
0
0
0
0
0
0
0
0
0
0
0
0
0
0
0
0
0
0
0
0
0
0
0
0
0
0
0
0
0
0
0
0
0
0
0
0
0
0
0
0
0
0
0
0
0
0
0
0
0
0
0
0
0
0
0
0
0
0
0
0
0
0
0
0
0
0
0
0
0
0
0
0
0
0
0
0
0
0
0
0
0
0
0
0
0
0
0
0
0
0
0
0
0
0
0
0
0
0
0
0
0
0
0
0
0
0
0
0
0
0
0
0
0
0
0
0
0
0
0
0
0
0
-0
0
-1.50716e-315
-1.30913e-317
-8.7167e-300
-8.44363e-302
-1.94292e-270
-2.09789e-272
-3.03024e-253
-3.64517e-255
-8.01162e-238
-1.07297e-239
-8.86741e-219
-1.32119e-220
-1.59163e-206
-2.63598e-208
-1.99706e-194
-3.67296e-196
-3.6304e-182
-7.40717e-184
-1.18805e-169
-2.68603e-171
-5.63164e-157
-1.40915e-158
-2.28635e-144
-6.32322e-146
-3.31009e-132
-1.0104e-133
-2.29229e-120
-7.71145e-122
-7.47619e-109
-2.76741e-110
-7.40725e-98
-3.01207e-99
-1.04757e-87
-4.67162e-89
-1.49743e-78
-7.3105e-80
-2.33806e-70
-1.24738e-71
-2.58883e-56
-1.50666e-57
-6.76791e-48
-4.28905e-49
-1.22753e-41
-8.45618e-43
-3.75961e-36
-2.81049e-37
-1.40752e-31
-1.13994e-32
-9.37717e-28
-8.21505e-29
-8.02297e-25
-7.59192e-26
-6.85733e-24
-6.99904e-25
-2.81749e-23
-3.09719e-24
-8.21469e-23
-9.70772e-24
-1.96253e-22
-2.48617e-23
-4.09823e-22
-5.54476e-23
-4.80713e-22
-5.69507e-23
9.52324e-13
4.04244e-14
1.81349e-12
4.8731e-14
4.13787e-12
1.25121e-13
2.84033e-11
1.39841e-12
3.42287e-11
7.51622e-13
4.84743e-11
1.16738e-12
2.55684e-10
1.28293e-11
1.78696e-10
9.65704e-13
1.36807e-10
-8.0671e-12
9.18755e-11
-1.52175e-12
5.25325e-11
-3.46817e-12
3.86494e-11
-1.83807e-12
1.41722e-11
-1.32548e-12
8.64374e-12
-4.28817e-13
1.14633e-11
-3.08312e-14
2.10157e-11
-1.26582e-13
2.59826e-11
2.20454e-12
1.1672e-11
6.79841e-13
1.19453e-11
2.75268e-14
9.12669e-11
1.18782e-12
8.70845e-11
3.80951e-12
2.99655e-11
1.78312e-12
1.75244e-11
1.41533e-13
7.10622e-11
6.703e-14
8.26301e-11
-4.70503e-13
7.81782e-11
-6.94541e-14
7.66958e-11
1.25298e-12
2.75241e-11
1.82228e-12
2.72262e-11
1.29493e-13
9.17641e-11
3.0321e-12
8.81765e-11
5.87196e-12
8.30452e-11
7.14988e-12
7.22018e-11
3.46572e-12
7.12508e-11
-8.28986e-14
9.9557e-09
1.03165e-10
2.2742e-07
5.42819e-09
2.66348e-07
-2.12497e-09
1.4651e-07
-2.2479e-09
3.24508e-08
-7.98621e-10
5.71026e-08
-1.3136e-10
1.02291e-06
3.25871e-10
7.20934e-07
6.2683e-09
1.04899e-07
-5.46703e-10
-1.07815e-11
-4.33776e-11
5.41375e-10
-5.56165e-12
1.45019e-10
-1.18962e-10
1.25557e-07
-2.61031e-10
1.25757e-06
2.30921e-08
1.21643e-06
1.1302e-07
1.13127e-06
1.13051e-07
1.10155e-06
4.48312e-08
1.08241e-06
5.40697e-08
1.04807e-06
9.06368e-08
5.53829e-07
4.30144e-08
3.64077e-07
1.46816e-08
2.35147e-07
3.0787e-09
4.38805e-07
1.86779e-09
4.8042e-07
-2.23382e-09
5.24176e-07
-1.11222e-08
-7.31154e-09
-1.60141e-08
7.97759e-10
-6.86588e-09
2.22547e-09
9.44968e-11
5.71541e-11
0
0
0
0
0
0
0
0
0
0
0
0
0
0
0
0
0
0
0
0
0
0
0
0
0
0
0
0
0
0
0
0
0
0
0
0
0
0
0
0
0
0
0
0
0
0
0
0
0
0
0
0
0
0
0
0
0
0
0
0
0
0
0
0
0
0
0
0
0
0
0
0
0
0
0
0
0
0
0
0
0
0
0
0
0
0
0
0
0
0
0
0
0
0
0
0
0
0
0
0
0
0
0
0
0
0
0
0
0
0
0
0
0
0
0
0
0
0
0
0
0
0
0
0
0
0
0
0
0
0
0
0
0
0
0
0
0
0
0
0
0
0
0
0
0
0
0
0
0
0
0
0
0
0
0
0
0
0
0
0
0
0
0
0
0
0
0
0
0
0
0
0
0
0
0
0
0
0
0
0
0
0
0
0
0
0
0
0
0
0
0
0
0
0
0
0
0
0
0
0
0
0
0
0
0
0
0
0
0
0
0
0
0
0
0
0
0
0
0
0
0
0
0
0
0
0
0
0
0
0
0
0
0
0
0
0
0
0
0
0
0
0
0
0
0
0
0
0
0
0
0
0
0
0
0
0
0
0
0
0
0
0
0
0
0
0
0
0
0
0
0
0
0
0
0
0
0
0
0
0
0
0
0
0
0
0
0
0
0
0
0
0
0
0
0
0
0
0
0
0
0
0
0
0
0
0
0
0
0
0
-5.47451e-317
-4.29541e-319
-3.39385e-301
-2.96822e-303
-8.08378e-272
-7.87505e-274
-1.34294e-254
-1.45607e-256
-3.76932e-239
-4.54457e-241
-4.41375e-220
-5.9118e-222
-8.35212e-208
-1.24146e-209
-1.10092e-195
-1.81393e-197
-2.09505e-183
-3.82178e-185
-7.15223e-171
-1.44262e-172
-3.52486e-158
-7.85053e-160
-1.483e-145
-3.64182e-147
-2.21824e-133
-5.99714e-135
-1.58265e-121
-4.70326e-123
-5.30453e-110
-1.72992e-111
-5.38912e-99
-1.92544e-100
-7.8009e-89
-3.04815e-90
-1.1397e-79
-4.86181e-81
-1.81703e-71
-8.44707e-73
-2.05339e-57
-1.0384e-58
-5.47909e-49
-3.00853e-50
-1.01494e-42
-6.03989e-44
-3.17849e-37
-2.0461e-38
-1.2189e-32
-8.47092e-34
-8.3383e-29
-6.24282e-30
-7.24198e-26
-5.82766e-27
-7.27407e-25
-6.27469e-26
-3.57165e-24
-3.29214e-25
-1.23096e-23
-1.2077e-24
-3.42246e-23
-3.55648e-24
-8.20516e-23
-8.97665e-24
-1.26507e-22
-1.44433e-23
3.92137e-14
1.20717e-15
8.64554e-14
1.49085e-15
2.07421e-13
4.20276e-15
1.56313e-12
4.85231e-14
2.28186e-12
3.2968e-14
3.40311e-12
4.67152e-14
1.57788e-11
4.59658e-13
1.66229e-11
1.22788e-13
8.69664e-12
-1.42283e-13
7.39678e-12
-1.6042e-13
4.1699e-12
-1.67338e-13
2.43173e-12
-1.0209e-13
1.1468e-12
-6.44134e-14
8.6115e-13
-2.1384e-14
8.48377e-13
-1.55228e-14
7.2779e-13
-4.81334e-15
2.60249e-12
2.29547e-15
2.19972e-12
-1.60224e-14
2.1214e-12
2.02057e-14
4.67025e-12
2.04965e-14
1.34191e-11
4.06927e-14
1.54016e-11
-1.40642e-14
1.36162e-11
6.97065e-14
1.40549e-11
-2.53254e-14
1.57122e-11
-6.92921e-15
1.75168e-11
1.91873e-14
1.98827e-11
2.67341e-14
2.05518e-11
-9.34999e-15
1.8961e-11
2.47045e-13
2.13741e-11
3.59992e-14
2.71207e-11
1.39976e-13
4.23313e-11
4.05589e-13
4.21822e-11
2.59384e-13
4.15694e-11
5.3754e-13
1.38026e-10
7.31408e-12
5.21184e-09
3.72982e-10
3.07876e-09
7.69921e-12
1.01814e-09
-1.89668e-10
2.91075e-10
-7.58961e-11
1.32681e-10
1.49021e-13
6.50191e-09
7.22275e-10
7.33684e-09
1.60257e-10
3.03255e-10
-3.25953e-10
3.77118e-11
-1.07014e-12
2.62227e-11
-2.33553e-11
7.76474e-09
-3.88466e-11
1.65923e-08
-2.97443e-10
2.91025e-08
-6.71016e-11
1.43086e-07
-8.67405e-14
1.49225e-06
1.0141e-08
1.00958e-06
2.80246e-08
6.90739e-07
-4.34899e-09
1.70643e-06
2.27151e-08
1.16369e-06
9.27706e-08
7.13654e-07
6.21426e-08
1.63667e-07
3.22534e-09
1.40258e-07
-2.31769e-08
1.48113e-07
-5.83821e-08
1.26919e-07
-9.11291e-08
4.57207e-08
-3.89098e-08
1.886e-09
-2.84118e-09
8.23401e-10
-5.73827e-11
2.29409e-10
0
0
0
0
0
0
0
0
0
0
0
0
0
0
0
0
0
0
0
0
0
0
0
0
0
0
0
0
0
0
0
0
0
0
0
0
0
0
0
0
0
0
0
0
0
0
0
0
0
0
0
0
0
0
0
0
0
0
0
0
0
0
0
0
0
0
0
0
0
0
0
0
0
0
0
0
0
0
0
0
0
0
0
0
0
0
0
0
0
0
0
0
0
0
0
0
0
0
0
0
0
0
0
0
0
0
0
0
0
0
0
0
0
0
0
0
0
0
0
0
0
0
0
0
0
0
0
0
0
0
0
0
0
0
0
0
0
0
0
0
0
0
0
0
0
0
0
0
0
0
0
0
0
0
0
0
0
0
0
0
0
0
0
0
0
0
0
0
0
0
0
0
0
0
0
0
0
0
0
0
0
0
0
0
0
0
0
0
0
0
0
0
0
0
0
0
0
0
0
0
0
0
0
0
0
0
0
0
0
0
0
0
0
0
0
0
0
0
0
0
0
0
0
0
0
0
0
0
0
0
0
0
0
0
0
0
0
0
0
0
0
0
0
0
0
0
0
0
0
0
0
0
0
0
0
0
0
0
0
0
0
0
0
0
0
0
0
0
0
0
0
0
0
0
0
0
0
0
0
0
0
0
0
0
0
0
0
0
0
0
0
0
0
0
0
0
0
0
0
0
0
0
0
0
0
0
0
0
-0
0
-1.79966e-318
-1.19762e-320
-1.19423e-302
-8.86199e-305
-3.03484e-273
-2.50931e-275
-5.36076e-256
-4.93362e-258
-1.59428e-240
-1.63133e-242
-1.97102e-221
-2.23969e-223
-3.92372e-209
-4.94505e-211
-5.42139e-197
-7.56801e-199
-1.0776e-184
-1.66389e-186
-3.82911e-172
-6.53014e-174
-1.95762e-159
-3.68173e-161
-8.51668e-147
-1.7636e-148
-1.31334e-134
-2.98951e-136
-9.63394e-123
-2.40647e-124
-3.31173e-111
-9.06193e-113
-3.44349e-100
-1.03031e-101
-5.09266e-90
-1.66306e-91
-7.59163e-81
-2.70062e-82
-1.23388e-72
-4.77215e-74
-1.42093e-58
-5.96291e-60
-3.86407e-50
-1.7558e-51
-7.29905e-44
-3.5835e-45
-2.33348e-38
-1.23505e-39
-9.14873e-34
-5.2077e-35
-6.41099e-30
-3.91469e-31
-5.63383e-27
-3.67985e-28
-6.54002e-26
-4.55482e-27
-3.74782e-25
-2.77294e-26
-1.49404e-24
-1.16933e-25
-4.74299e-24
-3.90715e-25
-1.28227e-23
-1.10522e-24
-2.53784e-23
-2.27295e-24
1.17584e-15
3.10092e-17
2.62263e-15
4.4288e-17
6.72578e-15
1.0123e-16
5.39275e-14
1.33404e-15
8.58655e-14
1.04395e-15
1.31217e-13
1.38227e-15
5.78389e-13
1.26457e-14
6.95271e-13
5.97012e-15
5.52854e-13
2.3191e-16
3.98074e-13
-5.78202e-15
2.36742e-13
-5.89033e-15
1.43362e-13
-3.71072e-15
8.46237e-14
-1.63635e-15
6.71828e-14
-3.11859e-16
5.14792e-14
-1.73555e-16
4.62502e-14
-1.63398e-16
4.88624e-14
-5.51157e-16
3.34753e-14
-3.81008e-16
5.16258e-14
-1.94646e-16
7.27013e-14
-6.38809e-16
1.13467e-13
1.37245e-16
9.92887e-14
2.50035e-16
1.84613e-13
1.58195e-17
1.59475e-13
-1.60303e-16
1.52558e-13
2.2037e-17
1.71565e-13
2.45803e-16
1.97743e-13
6.43746e-16
1.87276e-13
1.15071e-15
4.4048e-13
1.24666e-15
4.74918e-13
1.78298e-15
6.10336e-13
3.49508e-15
1.00827e-12
1.00374e-14
1.25155e-12
1.66757e-14
1.75862e-12
2.39323e-14
8.8442e-12
2.31275e-13
3.68073e-10
1.37121e-11
3.68237e-10
4.47209e-12
1.83115e-10
-4.46869e-12
1.11576e-10
-4.46351e-12
1.02836e-10
-2.88579e-14
8.05889e-10
2.08083e-11
9.45822e-10
2.0078e-11
6.68206e-10
-1.56912e-11
6.57147e-10
3.39288e-11
4.6795e-10
3.01431e-11
3.80753e-10
-1.94879e-11
8.44555e-11
-2.84074e-12
1.71083e-11
-4.80433e-13
1.59669e-11
8.83927e-13
2.59987e-08
2.19568e-09
6.54549e-08
3.4272e-09
5.96483e-08
-1.123e-09
9.42115e-08
-6.9585e-10
2.21424e-07
-6.21735e-10
5.89383e-07
-2.2484e-09
6.24665e-07
-5.18348e-10
6.27294e-07
-9.99667e-11
5.81312e-07
-2.78112e-11
4.94439e-07
-6.64653e-12
4.76685e-09
-3.2961e-12
6.78676e-10
-9.34498e-13
6.95862e-10
-1.91359e-11
2.66372e-10
0
0
0
0
0
0
0
0
0
0
0
0
0
0
0
0
0
0
0
0
0
0
0
0
0
0
0
0
0
0
0
0
0
0
0
0
0
0
0
0
0
0
0
0
0
0
0
0
0
0
0
0
0
0
0
0
0
0
0
0
0
0
0
0
0
0
0
0
0
0
0
0
0
0
0
0
0
0
0
0
0
0
0
0
0
0
0
0
0
0
0
0
0
0
0
0
0
0
0
0
0
0
0
0
0
0
0
0
0
0
0
0
0
0
0
0
0
0
0
0
0
0
0
0
0
0
0
0
0
0
0
0
0
0
0
0
0
0
0
0
0
0
0
0
0
0
0
0
0
0
0
0
0
0
0
0
0
0
0
0
0
0
0
0
0
0
0
0
0
0
0
0
0
0
0
0
0
0
0
0
0
0
0
0
0
0
0
0
0
0
0
0
0
0
0
0
0
0
0
0
0
0
0
0
0
0
0
0
0
0
0
0
0
0
0
0
0
0
0
0
0
0
0
0
0
0
0
0
0
0
0
0
0
0
0
0
0
0
0
0
0
0
0
0
0
0
0
0
0
0
0
0
0
0
0
0
0
0
0
0
0
0
0
0
0
0
0
0
0
0
0
0
0
0
0
0
0
0
0
0
0
0
0
0
0
0
0
0
0
0
0
0
0
0
0
0
0
0
0
0
0
0
0
0
0
0
0
0
0
0
-5.04194e-320
-2.61855e-322
-3.58069e-304
-2.06711e-306
-9.70427e-275
-6.25513e-277
-1.82158e-257
-1.30921e-259
-5.73577e-242
-4.59022e-244
-7.48029e-223
-6.65591e-225
-1.565e-210
-1.54595e-212
-2.26419e-198
-2.47917e-200
-4.69538e-186
-5.68955e-188
-1.73455e-173
-2.32212e-175
-9.188e-161
-1.35664e-162
-4.12827e-148
-6.71104e-150
-6.5551e-136
-1.17109e-137
-4.93769e-124
-9.67638e-126
-1.73873e-112
-3.73048e-114
-1.84804e-101
-4.33244e-103
-2.78888e-91
-7.12944e-93
-4.2364e-82
-1.17848e-83
-7.00965e-74
-2.1173e-75
-8.21365e-60
-2.6879e-61
-2.27256e-51
-8.03847e-53
-4.36922e-45
-1.66642e-46
-1.42283e-39
-5.83627e-41
-5.68864e-35
-2.50266e-36
-4.07127e-31
-1.91533e-32
-3.60686e-28
-1.80867e-29
-4.7741e-27
-2.54267e-28
-3.13868e-26
-1.76844e-27
-1.42537e-25
-8.45832e-27
-5.10302e-25
-3.17332e-26
-1.54019e-24
-9.9798e-26
-3.62365e-24
-2.43091e-25
3.03973e-17
6.11912e-19
7.36168e-17
1.08157e-18
1.72454e-16
2.44193e-18
1.47605e-15
3.05535e-17
2.48949e-15
3.06076e-17
3.83409e-15
3.71667e-17
1.62006e-14
2.82406e-16
2.19774e-14
1.98867e-16
2.21699e-14
4.00148e-17
1.64634e-14
-8.96435e-17
1.06096e-14
-3.1554e-17
7.01204e-15
6.55801e-18
5.51558e-15
2.49471e-17
4.99244e-15
3.40833e-17
4.2886e-15
6.03915e-17
3.46459e-15
5.49127e-17
2.60057e-15
2.80744e-17
2.50248e-15
2.58667e-17
2.58439e-15
2.28214e-17
1.768e-15
1.71342e-17
1.88847e-15
1.50432e-17
2.11918e-15
1.33824e-17
2.09786e-15
1.23035e-17
1.87252e-15
1.21469e-17
1.84702e-15
1.17068e-17
2.0447e-15
1.1181e-17
2.65678e-15
1.04897e-17
3.79106e-15
8.90421e-18
5.03311e-15
4.8349e-18
6.82066e-15
1.31565e-18
1.03215e-14
-1.43218e-17
2.02228e-14
3.13362e-17
3.6594e-14
3.52488e-16
6.00274e-14
5.11411e-16
2.86218e-13
5.21632e-15
1.37404e-11
3.54671e-13
1.79999e-11
2.59415e-13
1.31861e-11
2.80277e-14
8.83318e-12
-1.13084e-13
8.49695e-12
-3.02675e-14
2.86477e-11
6.97865e-13
4.77732e-11
9.67668e-13
3.19681e-11
1.02136e-13
6.59231e-11
1.90079e-13
1.01028e-10
4.81084e-13
8.74679e-11
-2.81439e-14
8.11724e-11
5.15094e-12
7.78621e-11
2.76627e-12
7.71499e-11
1.68366e-12
2.17837e-09
8.48987e-11
5.38657e-09
2.41306e-10
4.21356e-09
5.21529e-11
3.51084e-09
8.18854e-12
2.89859e-09
-9.70774e-12
6.75047e-10
-5.79084e-11
1.43068e-10
-8.00013e-12
3.43889e-11
-2.32667e-12
6.41378e-12
-1.15742e-13
2.55804e-12
-2.88691e-12
1.59146e-12
-2.41349e-12
1.62938e-12
-1.06853e-12
7.4771e-11
2.18263e-11
7.62412e-10
0
0
0
0
0
0
0
0
0
0
0
0
0
0
0
0
0
0
0
0
0
0
0
0
0
0
0
0
0
0
0
0
0
0
0
0
0
0
0
0
0
0
0
0
0
0
0
0
0
0
0
0
0
0
0
0
0
0
0
0
0
0
0
0
0
0
0
0
0
0
0
0
0
0
0
0
0
0
0
0
0
0
0
0
0
0
0
0
0
0
0
0
0
0
0
0
0
0
0
0
0
0
0
0
0
0
0
0
0
0
0
0
0
0
0
0
0
0
0
0
0
0
0
0
0
0
0
0
0
0
0
0
0
0
0
0
0
0
0
0
0
0
0
0
0
0
0
0
0
0
0
0
0
0
0
0
0
0
0
0
0
0
0
0
0
0
0
0
0
0
0
0
0
0
0
0
0
0
0
0
0
0
0
0
0
0
0
0
0
0
0
0
0
0
0
0
0
0
0
0
0
0
0
0
0
0
0
0
0
0
0
0
0
0
0
0
0
0
0
0
0
0
0
0
0
0
0
0
0
0
0
0
0
0
0
0
0
0
0
0
0
0
0
0
0
0
0
0
0
0
0
0
0
0
0
0
0
0
0
0
0
0
0
0
0
0
0
0
0
0
0
0
0
0
0
0
0
0
0
0
0
0
0
0
0
0
0
0
0
0
0
0
0
0
0
0
0
0
0
0
0
0
0
0
0
0
0
0
-0
0
-1.10671e-321
-4.94066e-324
-8.41544e-306
-3.25826e-308
-2.43591e-276
-1.0595e-278
-4.86484e-259
-2.37248e-261
-1.6235e-243
-8.86011e-246
-2.23524e-224
-1.36245e-226
-4.91786e-212
-3.3414e-214
-7.45349e-200
-5.63395e-202
-1.61312e-187
-1.3538e-189
-6.19652e-175
-5.76231e-177
-3.40118e-162
-3.49746e-164
-1.57831e-149
-1.79098e-151
-2.58039e-137
-3.22442e-139
-1.99571e-125
-2.74032e-127
-7.19757e-114
-1.08364e-115
-7.81805e-103
-1.28774e-104
-1.2035e-92
-2.16385e-94
-1.86212e-83
-3.64607e-85
-3.13494e-75
-6.66875e-77
-3.73505e-61
-8.61059e-63
-1.05047e-52
-2.61771e-54
-2.05318e-46
-5.5156e-48
-6.80053e-41
-1.9638e-42
-2.76761e-36
-8.56506e-38
-2.01845e-32
-6.67266e-34
-1.79769e-29
-6.32593e-31
-2.68465e-28
-1.00176e-29
-1.99904e-27
-7.8766e-29
-1.02228e-26
-4.23377e-28
-4.08759e-26
-1.77033e-27
-1.3664e-25
-6.15416e-27
-3.67893e-25
-1.71259e-26
6.03531e-19
8.38048e-21
1.66755e-18
1.7759e-20
4.06906e-18
4.12357e-20
3.41565e-17
4.67655e-19
6.41693e-17
5.96487e-19
1.00573e-16
7.6528e-19
3.78471e-16
4.54718e-18
5.73181e-16
4.25291e-18
6.11719e-16
1.17842e-18
5.21129e-16
9.44728e-19
4.88402e-16
1.44401e-18
4.89615e-16
2.90853e-18
5.15717e-16
2.59351e-18
5.48428e-16
2.35696e-18
5.71084e-16
2.71151e-18
5.6905e-16
3.0178e-18
5.61084e-16
3.85471e-18
5.8335e-16
3.93666e-18
6.35888e-16
3.84149e-18
6.59776e-16
7.585e-18
6.64319e-16
8.05904e-18
6.59633e-16
7.46043e-18
6.46859e-16
7.14311e-18
6.19634e-16
7.01815e-18
5.82824e-16
6.78716e-18
5.4819e-16
6.45094e-18
5.32367e-16
6.18715e-18
5.26256e-16
6.14668e-18