/*--------------------------------*- C++ -*----------------------------------*\
| =========                 |                                                 |
| \\      /  F ield         | OpenFOAM: The Open Source CFD Toolbox           |
|  \\    /   O peration     | Version:  2406                                  |
|   \\  /    A nd           | Website:  www.openfoam.com                      |
|    \\/     M anipulation  |                                                 |
\*---------------------------------------------------------------------------*/
FoamFile
{
    version     2.0;
    format      ascii;
    arch        "LSB;label=32;scalar=64";
    class       volScalarField;
    location    "0.3";
    object      alpha.glycerin;
}
// * * * * * * * * * * * * * * * * * * * * * * * * * * * * * * * * * * * * * //

dimensions      [0 0 0 0 0 0 0];

internalField   nonuniform List<scalar> 
6250
(
4.94757e-320
4.94856e-320
4.94955e-320
4.95054e-320
4.95153e-320
4.95251e-320
4.9535e-320
4.95449e-320
4.95647e-320
4.95647e-320
4.95844e-320
4.95943e-320
4.96042e-320
4.9624e-320
4.96338e-320
4.96437e-320
4.96635e-320
4.96734e-320
4.96832e-320
4.9703e-320
4.97129e-320
4.97228e-320
4.97425e-320
4.97524e-320
-4.97623e-320
-4.97821e-320
-4.97919e-320
-4.98018e-320
-4.98216e-320
-4.98315e-320
-4.98413e-320
-4.98611e-320
-4.9871e-320
-4.98809e-320
-4.99006e-320
-4.99105e-320
-4.99204e-320
-4.99402e-320
-4.995e-320
-4.99599e-320
-4.99797e-320
-4.99994e-320
-4.99994e-320
-5.00192e-320
-5.0039e-320
-5.0039e-320
-5.00587e-320
-5.00785e-320
-5.00884e-320
-5.00983e-320
-5.0118e-320
-5.01279e-320
-5.01378e-320
-5.01575e-320
-5.01674e-320
-5.01773e-320
-5.01971e-320
-5.0207e-320
-5.02168e-320
-5.02366e-320
-5.02465e-320
-5.02564e-320
-5.02761e-320
-5.02959e-320
-5.02959e-320
-5.03156e-320
-5.03354e-320
-5.03354e-320
-5.03552e-320
-5.03749e-320
-5.03848e-320
-5.03947e-320
-5.04145e-320
-5.04243e-320
-5.04342e-320
-5.0454e-320
-5.04639e-320
-5.04737e-320
-5.04935e-320
-5.05034e-320
-5.05133e-320
-5.0533e-320
-5.05429e-320
-5.05528e-320
-5.05726e-320
-5.05824e-320
-5.05923e-320
-5.06121e-320
-5.06318e-320
-5.06318e-320
-5.06516e-320
-5.06714e-320
-5.06714e-320
-5.06911e-320
-5.07109e-320
-5.07109e-320
-5.07307e-320
-5.07504e-320
-5.07603e-320
-5.07702e-320
-5.07899e-320
-5.07998e-320
-5.08097e-320
-5.08295e-320
-5.08394e-320
-5.08492e-320
-5.0869e-320
-5.08789e-320
-5.08888e-320
-5.09085e-320
-5.09184e-320
-5.09283e-320
-5.0948e-320
-5.09579e-320
-5.09678e-320
-5.09876e-320
-5.09975e-320
-5.10073e-320
-5.10271e-320
-5.10469e-320
-5.10567e-320
-5.10666e-320
-5.10864e-320
-5.10963e-320
-5.11062e-320
-5.11259e-320
-5.11457e-320
-5.11556e-320
-5.11654e-320
-5.11852e-320
-5.1205e-320
-5.12247e-320
-5.12445e-320
-5.12544e-320
-5.12741e-320
-5.12939e-320
-5.13137e-320
-5.13334e-320
-5.13532e-320
-5.13828e-320
-5.14026e-320
-5.14224e-320
-5.14619e-320
-5.14816e-320
-1.03032e-319
-1.03102e-319
-1.03181e-319
-1.0326e-319
-1.03349e-319
-1.03438e-319
-1.03556e-319
-1.03675e-319
-1.03793e-319
-1.03942e-319
-2.08199e-319
-1.31801e-303
-5.18821e-288
-7.94848e-259
-8.61626e-242
-1.60316e-226
-1.26586e-207
-1.6449e-195
-1.5177e-183
-2.06242e-171
-5.13197e-159
-1.88238e-146
-6.01933e-134
-6.98744e-122
-3.94831e-110
-1.06872e-98
-8.93436e-88
-1.08328e-77
-1.34796e-68
-1.85883e-60
-1.84269e-46
-4.36796e-38
-7.26752e-32
-2.06303e-26
-7.20663e-22
-4.45944e-18
-3.53557e-15
-1.19054e-14
-8.22815e-15
-6.29133e-15
-5.27243e-15
-9.49061e-15
-1.7171e-14
0.173345
0.927504
0.997482
0.997482
0.997043
0.998998
0.999975
0.99997
0.999946
0.999946
0.999952
0.999975
0.999975
0.999974
0.999834
0.999663
0.999686
0.99989
0.999964
0.999964
0.999964
0.99991
0.999899
0.99995
0.999951
0.99995
0.999945
0.999945
0.999945
0.999944
0.998578
0.997732
0.997732
0.999561
0.999967
0.999967
0.999967
0.999871
0.999925
0.999964
0.999045
0.99396
0.993923
0.994705
0.996379
0.996069
0.989895
0.989214
0.996505
0.997533
0.997533
0.997533
0.996781
0.99488
0.992672
0.968386
0.969338
0.992713
0.993215
0.993215
0.978525
0.973018
0.976295
4.9456e-320
4.94461e-320
4.94362e-320
4.94263e-320
4.94263e-320
4.94263e-320
4.94066e-320
4.94066e-320
4.93967e-320
4.93868e-320
4.93868e-320
4.93769e-320
4.9367e-320
4.9367e-320
4.93572e-320
4.93473e-320
4.93473e-320
4.93374e-320
4.93275e-320
4.93275e-320
4.93176e-320
4.93078e-320
4.93078e-320
4.93078e-320
-4.9288e-320
-4.9288e-320
-4.9288e-320
-4.92682e-320
-4.92682e-320
-4.92682e-320
-4.92583e-320
-4.92485e-320
-4.92485e-320
-4.92386e-320
-4.92287e-320
-4.92287e-320
-4.92188e-320
-4.92089e-320
-4.92089e-320
-4.92089e-320
-4.91991e-320
-4.91892e-320
-4.91892e-320
-4.91793e-320
-4.91694e-320
-4.91694e-320
-4.91694e-320
-4.91595e-320
-4.91497e-320
-4.91497e-320
-4.91398e-320
-4.91299e-320
-4.91299e-320
-4.91299e-320
-4.912e-320
-4.91101e-320
-4.91101e-320
-4.91101e-320
-4.91002e-320
-4.90904e-320
-4.90904e-320
-4.90904e-320
-4.90805e-320
-4.90706e-320
-4.90706e-320
-4.90706e-320
-4.90607e-320
-4.90508e-320
-4.90508e-320
-4.90508e-320
-4.9041e-320
-4.90311e-320
-4.90311e-320
-4.90311e-320
-4.90212e-320
-4.90212e-320
-4.90113e-320
-4.90113e-320
-4.90113e-320
-4.90014e-320
-4.89915e-320
-4.89915e-320
-4.89915e-320
-4.89817e-320
-4.89817e-320
-4.89718e-320
-4.89718e-320
-4.89718e-320
-4.89619e-320
-4.8952e-320
-4.8952e-320
-4.8952e-320
-4.8952e-320
-4.89421e-320
-4.89323e-320
-4.89323e-320
-4.89323e-320
-4.89323e-320
-4.89224e-320
-4.89125e-320
-4.89125e-320
-4.89125e-320
-4.89125e-320
-4.89026e-320
-4.89026e-320
-4.88927e-320
-4.88927e-320
-4.88927e-320
-4.88927e-320
-4.88829e-320
-4.8873e-320
-4.8873e-320
-4.8873e-320
-4.8873e-320
-4.8873e-320
-4.88631e-320
-4.88532e-320
-4.88532e-320
-4.88532e-320
-4.88532e-320
-4.88433e-320
-4.88433e-320
-4.88334e-320
-4.88334e-320
-4.88334e-320
-4.88334e-320
-4.88236e-320
-4.88236e-320
-4.88137e-320
-4.88137e-320
-4.88137e-320
-4.88137e-320
-4.88137e-320
-4.88038e-320
-4.87939e-320
-4.87939e-320
-4.87939e-320
-4.87939e-320
-4.87939e-320
-4.8784e-320
-4.87742e-320
-4.87742e-320
-4.87742e-320
-4.87742e-320
-4.87643e-320
-4.87643e-320
-4.87544e-320
-4.87544e-320
-4.87544e-320
-4.87544e-320
-4.87445e-320
-4.87346e-320
-4.87346e-320
-4.87346e-320
-9.74693e-320
-3.59287e-305
-1.53028e-289
-2.53416e-260
-2.96534e-243
-5.94549e-228
-5.04831e-209
-7.03721e-197
-6.94623e-185
-1.00672e-172
-2.66267e-160
-1.0343e-147
-3.4888e-135
-4.25389e-123
-2.51392e-111
-7.08534e-100
-6.13921e-89
-7.67773e-79
-9.80359e-70
-1.37975e-61
-1.38786e-47
-3.3174e-39
-5.52931e-33
-1.56193e-27
-5.40647e-23
-3.33893e-19
-2.80593e-16
-1.05573e-15
-1.26257e-15
-1.30373e-15
-1.35576e-15
-1.43374e-15
-5.04992e-15
0.0430427
0.0730844
0.170968
0.75386
0.999968
0.999975
0.999975
0.999975
0.999975
0.999975
0.999975
0.999975
0.999975
0.999975
0.998934
0.994802
0.993905
0.995985
0.999579
0.999964
0.999964
0.999926
0.999943
0.999951
0.999951
0.999951
0.99957
0.996588
0.99501
0.996311
0.999351
0.999952
0.999952
0.999967
0.999967
0.95752
0.936274
0.9363
0.975891
0.999964
0.99951
0.999954
0.999954
0.999954
0.999954
0.963743
0.944429
0.944453
0.980632
0.997533
0.997533
0.997533
0.997533
0.997533
0.938952
0.893705
0.918478
0.990856
0.993215
0.993215
0.993215
0.989628
0.978956
4.94659e-320
4.94659e-320
4.94659e-320
4.94659e-320
4.9456e-320
4.9456e-320
4.9456e-320
4.9456e-320
4.94461e-320
4.94461e-320
4.94461e-320
4.94461e-320
4.94461e-320
4.94461e-320
4.94461e-320
4.94461e-320
4.94461e-320
4.94461e-320
4.94461e-320
4.94461e-320
4.94461e-320
4.94461e-320
4.94362e-320
4.94362e-320
-4.94362e-320
-4.94362e-320
-4.94362e-320
-4.94362e-320
-4.94263e-320
-4.94263e-320
-4.94263e-320
-4.94263e-320
-4.94263e-320
-4.94263e-320
-4.94263e-320
-4.94263e-320
-4.94263e-320
-4.94263e-320
-4.94263e-320
-4.94263e-320
-4.94263e-320
-4.94263e-320
-4.94164e-320
-4.94164e-320
-4.94164e-320
-4.94164e-320
-4.94164e-320
-4.94066e-320
-4.94066e-320
-4.94066e-320
-4.94066e-320
-4.94066e-320
-4.94066e-320
-4.94066e-320
-4.94066e-320
-4.94066e-320
-4.94066e-320
-4.94066e-320
-4.94066e-320
-4.93967e-320
-4.93967e-320
-4.93967e-320
-4.93967e-320
-4.93868e-320
-4.93868e-320
-4.93868e-320
-4.93868e-320
-4.93868e-320
-4.93868e-320
-4.93868e-320
-4.93868e-320
-4.93868e-320
-4.93868e-320
-4.93868e-320
-4.93868e-320
-4.93769e-320
-4.93769e-320
-4.93769e-320
-4.9367e-320
-4.9367e-320
-4.9367e-320
-4.9367e-320
-4.9367e-320
-4.9367e-320
-4.9367e-320
-4.9367e-320
-4.9367e-320
-4.9367e-320
-4.93572e-320
-4.93572e-320
-4.93572e-320
-4.93572e-320
-4.93473e-320
-4.93473e-320
-4.93473e-320
-4.93473e-320
-4.93473e-320
-4.93473e-320
-4.93473e-320
-4.93473e-320
-4.93473e-320
-4.93374e-320
-4.93374e-320
-4.93374e-320
-4.93275e-320
-4.93275e-320
-4.93275e-320
-4.93275e-320
-4.93275e-320
-4.93275e-320
-4.93275e-320
-4.93275e-320
-4.93275e-320
-4.93176e-320
-4.93176e-320
-4.93176e-320
-4.93078e-320
-4.93078e-320
-4.93078e-320
-4.93078e-320
-4.93078e-320
-4.93078e-320
-4.93078e-320
-4.93078e-320
-4.92979e-320
-4.92979e-320
-4.9288e-320
-4.9288e-320
-4.9288e-320
-4.9288e-320
-4.9288e-320
-4.9288e-320
-4.9288e-320
-4.9288e-320
-4.92781e-320
-4.92781e-320
-4.92682e-320
-4.92682e-320
-4.92682e-320
-4.92682e-320
-4.92682e-320
-4.92682e-320
-4.92583e-320
-4.92485e-320
-4.92485e-320
-4.92485e-320
-4.92485e-320
-4.92386e-320
-4.92287e-320
-4.92287e-320
-4.92287e-320
-4.92188e-320
-4.92089e-320
-4.92089e-320
-9.83784e-320
-1.25541e-306
-5.80338e-291
-1.04154e-261
-1.31845e-244
-2.85359e-229
-2.60906e-210
-3.90529e-198
-4.12632e-186
-6.37976e-174
-1.79349e-161
-7.37604e-149
-2.62341e-136
-3.35853e-124
-2.07493e-112
-6.08679e-101
-5.46474e-90
-7.04946e-80
-9.24276e-71
-1.32964e-62
-1.36085e-48
-3.29453e-40
-5.53527e-34
-1.56818e-28
-5.41217e-24
-3.30332e-20
-2.67544e-17
-1.22922e-16
-2.27176e-16
-3.25999e-16
-4.20325e-16
-5.05798e-16
-7.71893e-16
-1.72668e-07
6.02143e-06
1.18737e-05
0.0638407
0.103467
0.147907
0.487487
0.805512
0.540966
0.182888
0.379817
0.879033
0.988211
0.979394
0.828479
0.423975
0.294208
0.391623
0.595321
0.689342
0.690693
0.72594
0.821647
0.931009
0.992929
0.999951
0.999879
0.970485
0.906871
0.934658
0.99361
0.999949
0.991174
0.664209
0.644966
0.869006
0.989851
0.989851
0.989423
0.976625
0.629505
0.389722
0.530093
0.914483
0.991676
0.979121
0.973198
0.973135
0.934133
0.739392
0.842099
0.997533
0.917578
0.812937
0.84755
0.893846
0.907841
0.893967
0.907798
0.972602
0.993215
0.993212
0.847831
4.94659e-320
4.94659e-320
4.9456e-320
4.9456e-320
4.9456e-320
4.9456e-320
4.9456e-320
4.94461e-320
4.94461e-320
4.94461e-320
4.94461e-320
4.94461e-320
4.94461e-320
4.94461e-320
4.94461e-320
4.94461e-320
4.94461e-320
4.94461e-320
4.94461e-320
4.94461e-320
4.94461e-320
4.94461e-320
4.94461e-320
4.94461e-320
-4.94461e-320
-4.94461e-320
-4.94461e-320
-4.94362e-320
-4.94362e-320
-4.94362e-320
-4.94362e-320
-4.94362e-320
-4.94362e-320
-4.94362e-320
-4.94362e-320
-4.94263e-320
-4.94263e-320
-4.94263e-320
-4.94263e-320
-4.94263e-320
-4.94263e-320
-4.94263e-320
-4.94263e-320
-4.94263e-320
-4.94263e-320
-4.94263e-320
-4.94263e-320
-4.94263e-320
-4.94263e-320
-4.94263e-320
-4.94263e-320
-4.94263e-320
-4.94263e-320
-4.94263e-320
-4.94263e-320
-4.94263e-320
-4.94164e-320
-4.94164e-320
-4.94164e-320
-4.94164e-320
-4.94164e-320
-4.94164e-320
-4.94164e-320
-4.94066e-320
-4.94066e-320
-4.94066e-320
-4.94066e-320
-4.94066e-320
-4.94066e-320
-4.94066e-320
-4.94066e-320
-4.94066e-320
-4.94066e-320
-4.94066e-320
-4.94066e-320
-4.94066e-320
-4.94066e-320
-4.94066e-320
-4.94066e-320
-4.94066e-320
-4.94066e-320
-4.94066e-320
-4.94066e-320
-4.94066e-320
-4.93967e-320
-4.93967e-320
-4.93967e-320
-4.93967e-320
-4.93967e-320
-4.93967e-320
-4.93868e-320
-4.93868e-320
-4.93868e-320
-4.93868e-320
-4.93868e-320
-4.93868e-320
-4.93868e-320
-4.93868e-320
-4.93868e-320
-4.93868e-320
-4.93868e-320
-4.93868e-320
-4.93868e-320
-4.93868e-320
-4.93868e-320
-4.93868e-320
-4.93868e-320
-4.93868e-320
-4.93769e-320
-4.93769e-320
-4.93769e-320
-4.93769e-320
-4.93769e-320
-4.93769e-320
-4.9367e-320
-4.9367e-320
-4.9367e-320
-4.9367e-320
-4.9367e-320
-4.9367e-320
-4.9367e-320
-4.9367e-320
-4.9367e-320
-4.9367e-320
-4.9367e-320
-4.9367e-320
-4.9367e-320
-4.9367e-320
-4.9367e-320
-4.93572e-320
-4.93572e-320
-4.93572e-320
-4.93572e-320
-4.93572e-320
-4.93473e-320
-4.93473e-320
-4.93473e-320
-4.93473e-320
-4.93473e-320
-4.93473e-320
-4.93473e-320
-4.93473e-320
-4.93473e-320
-4.93473e-320
-4.93473e-320
-4.93374e-320
-4.93374e-320
-4.93374e-320
-4.93275e-320
-4.93275e-320
-4.93275e-320
-4.93275e-320
-4.93275e-320
-4.93176e-320
-9.86254e-320
-4.57041e-308
-2.28515e-292
-4.42719e-263
-6.03642e-246
-1.40385e-230
-1.37561e-211
-2.20057e-199
-2.47769e-187
-4.06979e-175
-1.21171e-162
-5.26119e-150
-1.96929e-137
-2.64486e-125
-1.70885e-113
-5.2263e-102
-4.87704e-91
-6.51947e-81
-8.83145e-72
-1.30874e-63
-1.37581e-49
-3.41137e-41
-5.85413e-35
-1.68957e-29
-5.92663e-25
-3.67099e-21
-2.97614e-18
-1.69741e-17
-4.30022e-17
-8.0554e-17
-1.29772e-16
-1.89756e-16
-6.36223e-17
-3.7229e-08
4.27999e-07
7.60071e-07
1.14157e-05
7.30739e-06
9.8977e-06
0.0169171
0.057326
0.0461388
0.0120993
0.0146216
0.0419447
0.0347568
0.0158281
0.00354864
0.000192782
8.50424e-08
4.05358e-08
4.01304e-08
4.02412e-08
4.01472e-08
4.05653e-08
4.10187e-08
4.10187e-08
0.333463
0.86939
0.898446
0.693669
0.430561
0.535467
0.809699
0.948549
0.890817
0.562353
0.68756
0.97344
0.989599
0.920368
0.384901
0.305102
0.305102
0.312783
0.699383
0.913496
0.681855
0.374187
0.423542
0.360446
0.17733
0.156646
0.601938
0.993583
0.995005
0.915413
0.314925
0.266185
0.283015
0.613928
0.530798
0.1857
0.0767532
0.196184
0.685347
4.94659e-320
4.94659e-320
4.94659e-320
4.94659e-320
4.94659e-320
4.9456e-320
4.9456e-320
4.9456e-320
4.9456e-320
4.9456e-320
4.94461e-320
4.94461e-320
4.94461e-320
4.94461e-320
4.94461e-320
4.94461e-320
4.94461e-320
4.94461e-320
4.94461e-320
4.94461e-320
4.94461e-320
4.94461e-320
4.94461e-320
4.94461e-320
-4.94461e-320
-4.94461e-320
-4.94461e-320
-4.94461e-320
-4.94461e-320
-4.94461e-320
-4.94362e-320
-4.94362e-320
-4.94362e-320
-4.94362e-320
-4.94362e-320
-4.94362e-320
-4.94362e-320
-4.94263e-320
-4.94263e-320
-4.94263e-320
-4.94263e-320
-4.94263e-320
-4.94263e-320
-4.94263e-320
-4.94263e-320
-4.94263e-320
-4.94263e-320
-4.94263e-320
-4.94263e-320
-4.94263e-320
-4.94263e-320
-4.94263e-320
-4.94263e-320
-4.94263e-320
-4.94263e-320
-4.94263e-320
-4.94263e-320
-4.94263e-320
-4.94164e-320
-4.94164e-320
-4.94164e-320
-4.94164e-320
-4.94164e-320
-4.94164e-320
-4.94164e-320
-4.94066e-320
-4.94066e-320
-4.94066e-320
-4.94066e-320
-4.94066e-320
-4.94066e-320
-4.94066e-320
-4.94066e-320
-4.94066e-320
-4.94066e-320
-4.94066e-320
-4.94066e-320
-4.94066e-320
-4.94066e-320
-4.94066e-320
-4.94066e-320
-4.94066e-320
-4.94066e-320
-4.94066e-320
-4.93967e-320
-4.93967e-320
-4.93967e-320
-4.93967e-320
-4.93967e-320
-4.93967e-320
-4.93868e-320
-4.93868e-320
-4.93868e-320
-4.93868e-320
-4.93868e-320
-4.93868e-320
-4.93868e-320
-4.93868e-320
-4.93868e-320
-4.93868e-320
-4.93868e-320
-4.93868e-320
-4.93868e-320
-4.93868e-320
-4.93868e-320
-4.93868e-320
-4.93868e-320
-4.93868e-320
-4.93769e-320
-4.93769e-320
-4.93769e-320
-4.93769e-320
-4.93769e-320
-4.9367e-320
-4.9367e-320
-4.9367e-320
-4.9367e-320
-4.9367e-320
-4.9367e-320
-4.9367e-320
-4.9367e-320
-4.9367e-320
-4.9367e-320
-4.9367e-320
-4.9367e-320
-4.9367e-320
-4.9367e-320
-4.93572e-320
-4.93572e-320
-4.93572e-320
-4.93572e-320
-4.93473e-320
-4.93473e-320
-4.93473e-320
-4.93473e-320
-4.93473e-320
-4.93473e-320
-4.93473e-320
-4.93473e-320
-4.93374e-320
-4.93374e-320
-4.93374e-320
-4.93275e-320
-4.93275e-320
-4.93275e-320
-4.93275e-320
-4.93176e-320
-4.93078e-320
-4.93078e-320
-4.93078e-320
-4.92979e-320
-4.9288e-320
-4.9288e-320
-4.92781e-320
-9.85365e-320
-1.73802e-309
-9.35736e-294
-1.9471e-264
-2.84348e-247
-7.0616e-232
-7.36571e-213
-1.25014e-200
-1.48832e-188
-2.57599e-176
-8.05355e-164
-3.65933e-151
-1.42862e-138
-1.99495e-126
-1.33625e-114
-4.22571e-103
-4.06814e-92
-5.59981e-82
-7.80002e-73
-1.18743e-64
-1.28177e-50
-3.2637e-42
-5.75493e-36
-1.70871e-30
-6.17731e-26
-3.95379e-22
-3.27657e-19
-2.29714e-18
-7.50537e-18
-1.76263e-17
-3.45122e-17
-5.98311e-17
-1.60904e-17
-6.39968e-09
-1.79252e-08
2.02417e-08
6.91219e-07
5.98469e-07
7.56212e-07
6.27487e-06
5.72276e-06
1.45209e-05
4.02119e-06
1.52203e-06
1.18446e-06
6.20228e-07
2.55774e-07
9.52696e-05
8.30149e-05
1.30296e-07
9.84664e-08
2.44512e-06
7.15132e-06
7.16111e-06
5.29743e-06
4.10011e-08
9.38979e-07
4.37413e-07
4.00521e-07
3.83256e-07
3.78628e-07
3.78628e-07
3.78413e-07
3.80883e-07
3.90391e-07
4.03676e-07
4.17661e-07
0.0456074
0.651896
0.951389
0.899166
0.837149
0.852401
0.858402
0.858454
0.858417
0.814372
0.214401
4.10164e-05
0.329913
0.410348
0.313608
0.13272
0.132635
0.132635
0.167747
0.6428
0.686545
0.686355
0.491333
0.0350174
0.0100825
0.00173882
0.00161473
0.00159308
0.0223549
-4.94659e-320
-4.94659e-320
-4.94659e-320
-4.9456e-320
-4.9456e-320
-4.9456e-320
-4.9456e-320
-4.9456e-320
-4.9456e-320
-4.9456e-320
-4.94461e-320
-4.94461e-320
-4.94461e-320
-4.94461e-320
-4.94461e-320
-4.94461e-320
-4.94461e-320
-4.94461e-320
-4.94461e-320
4.94461e-320
4.94461e-320
4.94461e-320
4.94461e-320
4.94461e-320
-4.94461e-320
-4.94461e-320
-4.94461e-320
-4.94461e-320
-4.94461e-320
-4.94461e-320
-4.94461e-320
-4.94362e-320
-4.94362e-320
-4.94362e-320
-4.94362e-320
-4.94362e-320
-4.94362e-320
-4.94362e-320
-4.94263e-320
-4.94263e-320
-4.94263e-320
-4.94263e-320
-4.94263e-320
-4.94263e-320
-4.94263e-320
-4.94263e-320
-4.94263e-320
-4.94263e-320
-4.94263e-320
-4.94263e-320
-4.94263e-320
-4.94263e-320
-4.94263e-320
-4.94263e-320
-4.94263e-320
-4.94263e-320
-4.94263e-320
-4.94263e-320
-4.94263e-320
-4.94164e-320
-4.94164e-320
-4.94164e-320
-4.94164e-320
-4.94164e-320
-4.94164e-320
-4.94164e-320
-4.94066e-320
-4.94066e-320
-4.94066e-320
-4.94066e-320
-4.94066e-320
-4.94066e-320
-4.94066e-320
-4.94066e-320
-4.94066e-320
-4.94066e-320
-4.94066e-320
-4.94066e-320
-4.94066e-320
-4.94066e-320
-4.94066e-320
-4.94066e-320
-4.94066e-320
-4.94066e-320
-4.94066e-320
-4.93967e-320
-4.93967e-320
-4.93967e-320
-4.93967e-320
-4.93967e-320
-4.93967e-320
-4.93967e-320
-4.93868e-320
-4.93868e-320
-4.93868e-320
-4.93868e-320
-4.93868e-320
-4.93868e-320
-4.93868e-320
-4.93868e-320
-4.93868e-320
-4.93868e-320
-4.93868e-320
-4.93868e-320
-4.93868e-320
-4.93868e-320
-4.93868e-320
-4.93868e-320
-4.93868e-320
-4.93769e-320
-4.93769e-320
-4.93769e-320
-4.93769e-320
-4.93769e-320
-4.9367e-320
-4.9367e-320
-4.9367e-320
-4.9367e-320
-4.9367e-320
-4.9367e-320
-4.9367e-320
-4.9367e-320
-4.9367e-320
-4.9367e-320
-4.9367e-320
-4.9367e-320
-4.9367e-320
-4.93572e-320
-4.93572e-320
-4.93572e-320
-4.93473e-320
-4.93473e-320
-4.93473e-320
-4.93473e-320
-4.93473e-320
-4.93473e-320
-4.93473e-320
-4.93374e-320
-4.93374e-320
-4.93275e-320
-4.93275e-320
-4.93275e-320
-4.93275e-320
-4.93176e-320
-4.93078e-320
-4.93078e-320
-4.93078e-320
-4.92979e-320
-4.9288e-320
-4.9288e-320
-4.92682e-320
-4.92682e-320
-4.92485e-320
-4.92485e-320
-9.84574e-320
-6.60619e-311
-3.81902e-295
-8.50814e-266
-1.32619e-248
-3.50399e-233
-3.87534e-214
-6.94987e-202
-8.71148e-190
-1.58182e-177
-5.16968e-165
-2.44686e-152
-9.91668e-140
-1.43287e-127
-9.90073e-116
-3.2209e-104
-3.18209e-93
-4.48584e-83
-6.3891e-74
-9.93547e-66
-1.09512e-51
-2.84833e-43
-5.13628e-37
-1.56272e-31
-5.8059e-27
-3.83359e-23
-3.24557e-20
-2.73946e-19
-1.10876e-18
-3.17461e-18
-7.41953e-18
-1.50894e-17
-1.26407e-17
-4.8829e-11
8.7588e-10
1.87367e-09
1.53319e-08
3.58229e-08
5.09409e-08
3.23192e-07
3.66091e-07
3.59136e-06
3.30084e-06
1.18889e-07
7.52374e-08
4.48929e-08
2.12549e-08
1.64966e-08
5.02587e-07
1.36598e-06
6.02303e-07
4.99548e-08
4.44524e-06
7.13315e-06
6.29818e-06
2.77694e-07
8.24446e-07
7.9614e-06
8.28702e-06
8.25172e-06
6.47783e-06
3.78413e-07
5.92713e-06
1.281e-05
1.28082e-05
1.07076e-05
2.25104e-07
5.35713e-07
0.0386447
0.0937476
0.0747099
0.0165418
7.29331e-06
0.286007
0.499215
0.252787
0.012919
1.53151e-05
3.37841e-05
4.11521e-05
0.326062
0.430756
0.431402
0.431744
0.4338
0.433777
0.430517
0.150755
0.101336
0.181751
0.205872
0.205737
0.0501979
0.000642027
0.000577369
0.000459849
-4.94659e-320
-4.94659e-320
-4.94659e-320
-4.94659e-320
-4.9456e-320
-4.9456e-320
-4.9456e-320
-4.9456e-320
-4.9456e-320
-4.9456e-320
-4.9456e-320
-4.9456e-320
-4.94461e-320
-4.94461e-320
-4.94461e-320
-4.94461e-320
-4.94461e-320
-4.94461e-320
-4.94461e-320
4.94461e-320
4.94461e-320
4.94461e-320
4.94461e-320
4.94461e-320
-4.94461e-320
-4.94461e-320
-4.94461e-320
-4.94461e-320
-4.94461e-320
-4.94461e-320
-4.94461e-320
-4.94461e-320
-4.94461e-320
-4.94461e-320
-4.94362e-320
-4.94362e-320
-4.94362e-320
-4.94362e-320
-4.94362e-320
-4.94362e-320
-4.94362e-320
-4.94263e-320
-4.94263e-320
-4.94263e-320
-4.94263e-320
-4.94263e-320
-4.94263e-320
-4.94263e-320
-4.94263e-320
-4.94263e-320
-4.94263e-320
-4.94263e-320
-4.94263e-320
-4.94263e-320
-4.94263e-320
-4.94263e-320
-4.94263e-320
-4.94263e-320
-4.94263e-320
-4.94263e-320
-4.94263e-320
-4.94263e-320
-4.94164e-320
-4.94164e-320
-4.94164e-320
-4.94164e-320
-4.94164e-320
-4.94164e-320
-4.94066e-320
-4.94066e-320
-4.94066e-320
-4.94066e-320
-4.94066e-320
-4.94066e-320
-4.94066e-320
-4.94066e-320
-4.94066e-320
-4.94066e-320
-4.94066e-320
-4.94066e-320
-4.94066e-320
-4.94066e-320
-4.94066e-320
-4.94066e-320
-4.94066e-320
-4.94066e-320
-4.94066e-320
-4.94066e-320
-4.93967e-320
-4.93967e-320
-4.93967e-320
-4.93967e-320
-4.93967e-320
-4.93967e-320
-4.93868e-320
-4.93868e-320
-4.93868e-320
-4.93868e-320
-4.93868e-320
-4.93868e-320
-4.93868e-320
-4.93868e-320
-4.93868e-320
-4.93868e-320
-4.93868e-320
-4.93868e-320
-4.93868e-320
-4.93868e-320
-4.93868e-320
-4.93868e-320
-4.93868e-320
-4.93769e-320
-4.93769e-320
-4.93769e-320
-4.93769e-320
-4.93769e-320
-4.9367e-320
-4.9367e-320
-4.9367e-320
-4.9367e-320
-4.9367e-320
-4.9367e-320
-4.9367e-320
-4.9367e-320
-4.9367e-320
-4.9367e-320
-4.9367e-320
-4.93572e-320
-4.93572e-320
-4.93572e-320
-4.93473e-320
-4.93473e-320
-4.93473e-320
-4.93473e-320
-4.93473e-320
-4.93473e-320
-4.93374e-320
-4.93374e-320
-4.93275e-320
-4.93275e-320
-4.93275e-320
-4.93275e-320
-4.93176e-320
-4.93078e-320
-4.93078e-320
-4.92979e-320
-4.9288e-320
-4.9288e-320
-4.92682e-320
-4.92682e-320
-4.92485e-320
-4.92485e-320
-4.92287e-320
-4.92089e-320
-9.83981e-320
-2.38998e-312
-1.48031e-296
-3.5224e-267
-5.84511e-250
-1.63853e-234
-1.91597e-215
-3.61988e-203
-4.76304e-191
-9.04619e-179
-3.08141e-166
-1.51486e-153
-6.35576e-141
-9.47737e-129
-6.73856e-117
-2.24989e-105
-2.27606e-94
-3.27916e-84
-4.76594e-75
-7.55495e-67
-8.48413e-53
-2.24827e-44
-4.13326e-38
-1.28372e-32
-4.87817e-28
-3.30359e-24
-2.83718e-21
-2.81392e-20
-1.36186e-19
-4.61592e-19
-1.25859e-18
-2.949e-18
-4.41933e-18
-5.03251e-12
3.06909e-11
1.1617e-10
-8.15256e-10
1.87985e-09
2.43362e-09
1.29532e-08
1.77762e-08
1.56898e-08
4.03488e-08
3.64678e-10
4.77173e-09
5.37597e-09
2.07493e-09
9.66405e-10
6.88823e-10
5.98855e-08
6.43619e-08
4.70164e-08
7.66348e-08
2.28522e-07
4.32232e-07
3.91347e-07
3.85964e-07
4.26168e-07
4.78898e-07
5.60415e-07
6.62228e-07
6.00114e-07
6.29433e-07
7.13331e-07
1.27171e-06
1.97851e-06
1.08913e-08
5.08407e-08
1.39513e-06
6.98616e-06
5.60115e-06
2.54878e-06
1.5146e-06
0.000998862
0.00323283
0.000739056
1.82048e-05
1.53151e-05
0.000504681
0.00490254
0.00615865
5.23807e-06
0.217485
0.331061
0.100198
0.26347
0.427757
0.409098
0.121149
0.0352833
0.0353285
0.047082
0.0405431
0.0119523
0.000177259
0.000423031
-4.94659e-320
-4.94659e-320
-4.94659e-320
-4.9456e-320
-4.9456e-320
-4.9456e-320
-4.9456e-320
-4.9456e-320
-4.9456e-320
-4.9456e-320
-4.9456e-320
-4.9456e-320
-4.94461e-320
-4.94461e-320
-4.94461e-320
-4.94461e-320
-4.94461e-320
-4.94461e-320
-4.94461e-320
4.94461e-320
4.94461e-320
4.94461e-320
4.94461e-320
4.94461e-320
-4.94461e-320
-4.94461e-320
-4.94461e-320
-4.94461e-320
-4.94461e-320
-4.94461e-320
-4.94461e-320
-4.94461e-320
-4.94461e-320
-4.94461e-320
-4.94362e-320
-4.94362e-320
-4.94362e-320
-4.94362e-320
-4.94362e-320
-4.94362e-320
-4.94362e-320
-4.94362e-320
-4.94263e-320
-4.94263e-320
-4.94263e-320
-4.94263e-320
-4.94263e-320
-4.94263e-320
-4.94263e-320
-4.94263e-320
-4.94263e-320
-4.94263e-320
-4.94263e-320
-4.94263e-320
-4.94263e-320
-4.94263e-320
-4.94263e-320
-4.94263e-320
-4.94263e-320
-4.94263e-320
-4.94263e-320
-4.94263e-320
-4.94263e-320
-4.94164e-320
-4.94164e-320
-4.94164e-320
-4.94164e-320
-4.94164e-320
-4.94164e-320
-4.94066e-320
-4.94066e-320
-4.94066e-320
-4.94066e-320
-4.94066e-320
-4.94066e-320
-4.94066e-320
-4.94066e-320
-4.94066e-320
-4.94066e-320
-4.94066e-320
-4.94066e-320
-4.94066e-320
-4.94066e-320
-4.94066e-320
-4.94066e-320
-4.94066e-320
-4.94066e-320
-4.94066e-320
-4.94066e-320
-4.93967e-320
-4.93967e-320
-4.93967e-320
-4.93967e-320
-4.93967e-320
-4.93967e-320
-4.93868e-320
-4.93868e-320
-4.93868e-320
-4.93868e-320
-4.93868e-320
-4.93868e-320
-4.93868e-320
-4.93868e-320
-4.93868e-320
-4.93868e-320
-4.93868e-320
-4.93868e-320
-4.93868e-320
-4.93868e-320
-4.93868e-320
-4.93868e-320
-4.93868e-320
-4.93769e-320
-4.93769e-320
-4.93769e-320
-4.93769e-320
-4.93769e-320
-4.9367e-320
-4.9367e-320
-4.9367e-320
-4.9367e-320
-4.9367e-320
-4.9367e-320
-4.9367e-320
-4.9367e-320
-4.9367e-320
-4.9367e-320
-4.9367e-320
-4.93572e-320
-4.93572e-320
-4.93473e-320
-4.93473e-320
-4.93473e-320
-4.93473e-320
-4.93473e-320
-4.93473e-320
-4.93374e-320
-4.93275e-320
-4.93275e-320
-4.93275e-320
-4.93275e-320
-4.93176e-320
-4.93078e-320
-4.93078e-320
-4.92979e-320
-4.9288e-320
-4.9288e-320
-4.92682e-320
-4.92682e-320
-4.92485e-320
-4.92386e-320
-4.92287e-320
-4.92089e-320
-4.91892e-320
-9.83388e-320
-7.82831e-314
-5.18806e-298
-1.31653e-268
-2.32184e-251
-6.89295e-236
-8.50518e-217
-1.68947e-204
-2.32873e-192
-4.61648e-180
-1.63557e-167
-8.3346e-155
-3.61293e-142
-5.54926e-130
-4.05281e-118
-1.38645e-106
-1.43397e-95
-2.10837e-85
-3.12286e-76
-5.04012e-68
-5.75981e-54
-1.55324e-45
-2.90727e-39
-9.20218e-34
-3.56881e-29
-2.47138e-25
-2.14389e-22
-2.45384e-21
-1.38465e-20
-5.4272e-20
-1.69125e-19
-4.48013e-19
-8.67099e-19
-1.25877e-13
9.29906e-13
2.98249e-12
3.03052e-11
4.43097e-11
7.24493e-11
3.90585e-10
6.06706e-10
5.74143e-10
3.92382e-10
-1.23282e-10
1.28494e-11
1.18113e-10
3.4396e-10
1.1459e-10
9.40532e-11
6.61222e-11
6.06723e-11
1.62205e-10
3.87688e-11
3.88458e-11
4.29104e-11
7.81041e-10
4.04331e-11
3.84044e-11
4.08292e-11
5.00178e-11
6.78506e-11
1.42957e-09
8.01541e-11
1.24007e-10
3.57517e-11
5.93313e-10
-1.24862e-09
-1.52894e-09
-8.35868e-08
1.27678e-07
1.16515e-06
1.77835e-07
3.17069e-07
3.78262e-07
7.68661e-07
5.96118e-06
2.79393e-05
2.5263e-05
1.84405e-05
7.61832e-07
2.96518e-07
2.39282e-07
0.00112749
0.00809908
0.00822146
0.0107805
0.0204797
0.0515003
0.0933031
0.0932024
0.0927363
0.0925185
0.0449516
1.64527e-05
2.25433e-05
0.000420943
-4.94659e-320
-4.94659e-320
-4.9456e-320
-4.9456e-320
-4.9456e-320
-4.9456e-320
-4.9456e-320
-4.9456e-320
-4.9456e-320
-4.9456e-320
-4.9456e-320
-4.9456e-320
-4.9456e-320
-4.94461e-320
-4.94461e-320
-4.94461e-320
-4.94461e-320
-4.94461e-320
-4.94461e-320
4.94461e-320
4.94461e-320
4.94461e-320
4.94461e-320
4.94461e-320
-4.94461e-320
-4.94461e-320
-4.94461e-320
-4.94461e-320
-4.94461e-320
-4.94461e-320
-4.94461e-320
-4.94461e-320
-4.94461e-320
-4.94461e-320
-4.94461e-320
-4.94461e-320
-4.94461e-320
-4.94362e-320
-4.94362e-320
-4.94362e-320
-4.94362e-320
-4.94362e-320
-4.94362e-320
-4.94362e-320
-4.94263e-320
-4.94263e-320
-4.94263e-320
-4.94263e-320
-4.94263e-320
-4.94263e-320
-4.94263e-320
-4.94263e-320
-4.94263e-320
-4.94263e-320
-4.94263e-320
-4.94263e-320
-4.94263e-320
-4.94263e-320
-4.94263e-320
-4.94263e-320
-4.94263e-320
-4.94263e-320
-4.94263e-320
-4.94263e-320
-4.94263e-320
-4.94164e-320
-4.94164e-320
-4.94164e-320
-4.94164e-320
-4.94164e-320
-4.94164e-320
-4.94066e-320
-4.94066e-320
-4.94066e-320
-4.94066e-320
-4.94066e-320
-4.94066e-320
-4.94066e-320
-4.94066e-320
-4.94066e-320
-4.94066e-320
-4.94066e-320
-4.94066e-320
-4.94066e-320
-4.94066e-320
-4.94066e-320
-4.94066e-320
-4.94066e-320
-4.94066e-320
-4.94066e-320
-4.94066e-320
-4.93967e-320
-4.93967e-320
-4.93967e-320
-4.93967e-320
-4.93967e-320
-4.93967e-320
-4.93868e-320
-4.93868e-320
-4.93868e-320
-4.93868e-320
-4.93868e-320
-4.93868e-320
-4.93868e-320
-4.93868e-320
-4.93868e-320
-4.93868e-320
-4.93868e-320
-4.93868e-320
-4.93868e-320
-4.93868e-320
-4.93868e-320
-4.93868e-320
-4.93868e-320
-4.93769e-320
-4.93769e-320
-4.93769e-320
-4.93769e-320
-4.9367e-320
-4.9367e-320
-4.9367e-320
-4.9367e-320
-4.9367e-320
-4.9367e-320
-4.9367e-320
-4.9367e-320
-4.9367e-320
-4.9367e-320
-4.93572e-320
-4.93572e-320
-4.93473e-320
-4.93473e-320
-4.93473e-320
-4.93473e-320
-4.93473e-320
-4.93473e-320
-4.93374e-320
-4.93275e-320
-4.93275e-320
-4.93275e-320
-4.93176e-320
-4.93078e-320
-4.93078e-320
-4.92979e-320
-4.9288e-320
-4.9288e-320
-4.92682e-320
-4.92682e-320
-4.92485e-320
-4.92485e-320
-4.92287e-320
-4.92089e-320
-4.91892e-320
-4.91694e-320
-9.83191e-320
-2.18643e-315
-1.55022e-299
-4.19383e-270
-7.85661e-253
-2.46849e-237
-3.21152e-218
-6.70119e-206
-9.6667e-194
-1.99818e-181
-7.35546e-169
-3.88105e-156
-1.73635e-143
-2.74414e-131
-2.05644e-119
-7.20078e-108
-7.60659e-97
-1.14023e-86
-1.71944e-77
-2.8225e-69
-3.27885e-55
-8.98729e-47
-1.71042e-40
-5.50897e-35
-2.17649e-30
-1.53776e-26
-1.34356e-23
-1.75194e-22
-1.1334e-21
-5.05893e-21
-1.77801e-20
-5.26181e-20
-1.21243e-19
-1.09841e-20
3.91244e-14
1.27543e-13
7.90942e-13
2.49965e-12
2.91095e-12
8.81514e-12
1.7525e-11
2.53944e-11
2.35525e-11
1.60894e-11
9.06871e-12
2.53377e-11
6.81468e-11
7.75625e-11
7.41672e-11
4.66035e-11
4.14107e-11
4.7369e-11
2.28299e-11
1.56391e-11
1.55332e-11
1.51638e-11
1.37174e-11
1.37703e-11
1.31741e-11
1.22105e-11
1.09457e-11
1.22369e-11
8.45345e-12
1.02976e-11
2.27174e-12
-1.72029e-11
1.7866e-11
-1.12649e-11
-2.47734e-10
1.29688e-09
-1.01952e-08
7.68157e-09
9.60015e-09
9.53804e-09
2.3851e-08
2.52299e-08
5.40972e-07
1.67571e-06
1.25537e-06
3.85609e-06
5.45005e-07
3.43385e-08
-2.50665e-07
2.42487e-06
4.19226e-06
4.29818e-06
4.24794e-06
4.84662e-06
2.84701e-06
1.64599e-06
3.45178e-07
3.25993e-07
3.24891e-07
3.25993e-07
4.49259e-05
0.000531082
-4.94659e-320
-4.94659e-320
-4.9456e-320
-4.9456e-320
-4.9456e-320
-4.9456e-320
-4.9456e-320
-4.9456e-320
-4.9456e-320