/*--------------------------------*- C++ -*----------------------------------*\
| =========                 |                                                 |
| \\      /  F ield         | OpenFOAM: The Open Source CFD Toolbox           |
|  \\    /   O peration     | Version:  2406                                  |
|   \\  /    A nd           | Website:  www.openfoam.com                      |
|    \\/     M anipulation  |                                                 |
\*---------------------------------------------------------------------------*/
FoamFile
{
    version     2.0;
    format      ascii;
    arch        "LSB;label=32;scalar=64";
    class       volScalarField;
    location    "0.3";
    object      p;
}
// * * * * * * * * * * * * * * * * * * * * * * * * * * * * * * * * * * * * * //

dimensions      [1 -1 -2 0 0 0 0];

internalField   nonuniform List<scalar> 
6250
(
2851.59
3161.45
4149.79
4289.12
4069.15
3972.48
4001.84
4040.07
4046.56
4038.62
4034.56
4036.17
4038.82
4040.19
4040.77
4041.44
4042.37
4043.37
4044.33
4045.26
4046.18
4047.12
4048.06
4049
4049.94
4050.88
4051.82
4052.76
4053.7
4054.64
4055.58
4056.52
4057.47
4058.41
4059.35
4060.29
4061.23
4062.17
4063.12
4064.06
4065
4065.94
4066.88
4067.82
4068.75
4069.69
4070.63
4071.57
4072.51
4073.44
4074.38
4075.32
4076.25
4077.19
4078.12
4079.06
4079.99
4080.93
4081.86
4082.79
4083.73
4084.66
4085.59
4086.52
4087.45
4088.39
4089.32
4090.25
4091.17
4092.1
4093.03
4093.96
4094.88
4095.81
4096.74
4097.66
4098.59
4099.51
4100.44
4101.36
4102.28
4103.21
4104.13
4105.05
4105.97
4106.9
4107.82
4108.74
4109.66
4110.59
4111.51
4112.43
4113.35
4114.27
4115.19
4116.11
4117.03
4117.95
4118.88
4119.8
4120.72
4121.64
4122.56
4123.48
4124.4
4125.32
4126.24
4127.16
4128.09
4129.01
4129.93
4130.86
4131.78
4132.7
4133.63
4134.56
4135.48
4136.41
4137.34
4138.28
4139.21
4140.15
4141.09
4142.03
4142.98
4143.94
4144.9
4145.87
4146.85
4147.83
4148.83
4149.84
4150.87
4151.91
4152.97
4154.06
4155.16
4156.29
4157.46
4158.65
4159.89
4161.16
4162.49
4163.87
4165.31
4166.82
4168.41
4170.08
4171.85
4173.72
4175.71
4177.83
4180.1
4182.52
4185.11
4187.89
4190.88
4194.08
4197.51
4201.18
4205.09
4209.26
4213.66
4218.29
4223.11
4228.09
4233.16
4238.24
4243.24
4248.01
4252.42
4256.3
4259.47
4261.75
4262.96
4262.97
4261.67
4259.03
4255.07
4249.88
4243.22
4233.9
4228.75
4235.46
4223.02
4259.73
4215.84
3863.55
3468.04
3361.08
3278.73
3377.6
3458.66
3464.91
3476.82
3492.29
3460.27
3383.76
3306.25
3245.03
3188.27
3128.1
3066.1
3003.14
2946.9
2899.82
2856.34
2812.9
2774.38
2749.75
2744.41
2749.35
2756.89
2760.49
2751.14
2723.09
2679.77
2627.83
2571.17
2512.85
2446.9
2381.07
2342.23
2340.32
2357.68
2366.84
2357.18
2309.78
2221.26
2116.32
2023.57
1939.35
1837.21
1712.57
1577.37
1440.03
1303.21
1175.73
1074.49
1000.71
941.052
877.248
796.145
710.18
629.738
549.865
454.45
337.579
204.627
66.6085
2847.8
3156.67
4148.93
4290.02
4069.28
3971.78
4001.15
4039.74
4046.38
4038.42
4034.33
4035.97
4038.65
4040.04
4040.64
4041.32
4042.26
4043.28
4044.25
4045.18
4046.11
4047.05
4048
4048.94
4049.89
4050.83
4051.78
4052.72
4053.66
4054.61
4055.55
4056.5
4057.44
4058.38
4059.33
4060.27
4061.21
4062.16
4063.1
4064.04
4064.98
4065.93
4066.87
4067.81
4068.75
4069.69
4070.63
4071.57
4072.5
4073.44
4074.38
4075.31
4076.25
4077.19
4078.12
4079.06
4079.99
4080.93
4081.86
4082.79
4083.73
4084.66
4085.59
4086.52
4087.46
4088.39
4089.32
4090.25
4091.18
4092.1
4093.03
4093.96
4094.89
4095.81
4096.74
4097.67
4098.59
4099.52
4100.44
4101.36
4102.29
4103.21
4104.13
4105.06
4105.98
4106.9
4107.82
4108.75
4109.67
4110.59
4111.51
4112.43
4113.36
4114.28
4115.2
4116.12
4117.04
4117.96
4118.88
4119.8
4120.72
4121.64
4122.56
4123.48
4124.4
4125.32
4126.24
4127.16
4128.08
4129
4129.93
4130.85
4131.77
4132.69
4133.61
4134.54
4135.46
4136.38
4137.31
4138.24
4139.16
4140.09
4141.02
4141.96
4142.9
4143.84
4144.79
4145.74
4146.7
4147.66
4148.64
4149.62
4150.62
4151.63
4152.65
4153.69
4154.74
4155.82
4156.92
4158.04
4159.2
4160.39
4161.61
4162.88
4164.19
4165.56
4166.98
4168.47
4170.04
4171.69
4173.43
4175.27
4177.22
4179.3
4181.52
4183.89
4186.43
4189.15
4192.07
4195.2
4198.55
4202.14
4205.97
4210.04
4214.34
4218.85
4223.54
4228.35
4233.2
4238
4242.61
4246.86
4250.55
4253.46
4255.35
4256
4255.19
4252.74
4248.39
4241.83
4231.58
4216.09
4208.91
4223.33
4250.64
4285.98
4291.53
4172.3
4166.5
3790.74
3411.55
3653.31
3653.16
3519.45
3593.3
3703.55
3613.57
3395.07
3299.22
3276.25
3248.11
3199.94
3106.45
2990.87
2903.24
2845.89
2790.27
2719.04
2638.9
2582.07
2595.87
2647.49
2695.05
2728.23
2740.99
2724.27
2691.78
2669.94
2659.22
2630.24
2513.61
2326.74
2228.36
2255.46
2323.84
2407.92
2479.57
2471.34
2309.52
2077.22
1972.46
1943.36
1884.54
1794.11
1690.93
1570.62
1396.7
1208
1087.46
1014.54
949.457
886.674
829.181
758.676
687.584
600.73
500.88
382.967
237.392
75.0956
2848.66
3158.07
4149.44
4290
4069.24
3971.91
4001.36
4039.94
4046.55
4038.57
4034.48
4036.11
4038.79
4040.17
4040.76
4041.43
4042.36
4043.37
4044.34
4045.26
4046.19
4047.13
4048.07
4049.01
4049.95
4050.89
4051.83
4052.77
4053.71
4054.65
4055.59
4056.53
4057.48
4058.42
4059.36
4060.3
4061.24
4062.18
4063.12
4064.06
4065
4065.94
4066.88
4067.82
4068.76
4069.7
4070.64
4071.58
4072.51
4073.45
4074.39
4075.32
4076.26
4077.19
4078.13
4079.06
4080
4080.93
4081.86
4082.8
4083.73
4084.66
4085.59
4086.52
4087.46
4088.39
4089.32
4090.25
4091.17
4092.1
4093.03
4093.96
4094.88
4095.81
4096.74
4097.66
4098.59
4099.51
4100.44
4101.36
4102.28
4103.21
4104.13
4105.05
4105.97
4106.9
4107.82
4108.74
4109.66
4110.58
4111.51
4112.43
4113.35
4114.27
4115.19
4116.11
4117.03
4117.95
4118.87
4119.79
4120.71
4121.63
4122.55
4123.47
4124.39
4125.31
4126.23
4127.15
4128.07
4128.99
4129.91
4130.83
4131.75
4132.67
4133.59
4134.51
4135.43
4136.35
4137.27
4138.2
4139.12
4140.04
4140.97
4141.9
4142.83
4143.76
4144.7
4145.64
4146.58
4147.53
4148.49
4149.45
4150.43
4151.41
4152.4
4153.4
4154.42
4155.45
4156.5
4157.57
4158.66
4159.78
4160.92
4162.09
4163.29
4164.53
4165.8
4167.13
4168.49
4169.91
4171.39
4172.93
4174.53
4176.21
4177.95
4179.78
4181.68
4183.67
4185.74
4187.89
4190.12
4192.43
4194.8
4197.22
4199.68
4202.15
4204.63
4207.08
4209.46
4211.74
4213.86
4215.77
4217.41
4218.71
4219.59
4219.99
4219.89
4219.32
4218.43
4217.72
4218.39
4222.63
4234.4
4254.52
4278.67
4301.97
4320.77
4256.52
4118.68
3902.63
3634.77
3685.88
3369.66
3070.67
3424.22
3857.22
3707.09
3374.93
3261.47
3235.31
3147.64
3029.78
2954.88
2917.99
2897.45
2891.35
2880.36
2848.49
2809.82
2776.88
2831.74
2731.76
2669.37
2678.37
2705.52
2690.05
2615.3
2539.19
2481.29
2409.14
2340.21
2224.51
2187.39
2364.25
2631.05
2730.48
2573.72
2380.76
2273.54
2169.66
2178.63
2232.01
2097.36
1849.27
1688.75
1489.52
1191.71
978.958
956.985
994.743
1080.1
1058.61
895.785
749.757
728.222
770.024
720.953
462.579
191.317
30.6121
2847.91
3156.79
4148.64
4289.58
4068.94
3971.6
4001.03
4039.61
4046.26
4038.31
4034.23
4035.88
4038.57
4039.97
4040.57
4041.25
4042.2
4043.22
4044.19
4045.13
4046.06
4047
4047.95
4048.9
4049.84
4050.79
4051.73
4052.68
4053.62
4054.57
4055.51
4056.46
4057.4
4058.35
4059.29
4060.24
4061.18
4062.12
4063.07
4064.01
4064.95
4065.9
4066.84
4067.78
4068.72
4069.66
4070.6
4071.54
4072.48
4073.41
4074.35
4075.29
4076.23
4077.16
4078.1
4079.03
4079.97
4080.9
4081.84
4082.77
4083.7
4084.64
4085.57
4086.5
4087.43
4088.37
4089.3
4090.23
4091.16
4092.08
4093.01
4093.94
4094.87
4095.79
4096.72
4097.65
4098.57
4099.5
4100.42
4101.35
4102.27
4103.19
4104.12
4105.04
4105.96
4106.88
4107.81
4108.73
4109.65
4110.57
4111.5
4112.42
4113.34
4114.26
4115.18
4116.1
4117.02
4117.94
4118.86
4119.78
4120.7
4121.62
4122.54
4123.46
4124.38
4125.3
4126.22
4127.14
4128.06
4128.98
4129.9
4130.81
4131.73
4132.65
4133.57
4134.49
4135.4
4136.32
4137.24
4138.15
4139.07
4139.99
4140.9
4141.82
4142.74
4143.66
4144.59
4145.51
4146.44
4147.37
4148.31
4149.25
4150.2
4151.15
4152.11
4153.07
4154.05
4155.03
4156.03
4157.03
4158.05
4159.09
4160.14
4161.21
4162.3
4163.41
4164.55
4165.71
4166.9
4168.12
4169.37
4170.66
4171.98
4173.34
4174.74
4176.17
4177.64
4179.14
4180.67
4182.23
4183.79
4185.36
4186.9
4188.41
4189.86
4191.2
4192.42
4193.45
4194.26
4194.79
4194.99
4194.81
4194.2
4193.13
4191.59
4189.6
4187.25
4184.65
4182.05
4179.75
4178.09
4177.24
4176.82
4175.33
4170.36
4154.93
4124.81
4059.52
4009.98
4010.21
3907.4
3635.62
3344.19
3054.21
3049.17
3152.71
3123.78
3072.49
3021.5
2979.11
2948.84
2931.33
2924.71
2917.3
2912.47
2915
2927.52
2952.88
2988.79
3022.85
3055.65
3001.05
3051.63
3102.8
3079
3066.42
3027.69
2987.86
2944.19
2794.78
2561.13
1699.03
1485.85
1889.06
2281.97
2390.22
2366.56
2390.4
2489.02
2596.2
2654.1
2408.5
1938.94
1547.57
1443.98
1447.45
1358.03
1140.88
893.996
554.649
559.49
808.002
988.88
1075.99
1098.27
753.813
531.965
324.499
181.906
55.1058
2847.87
3156.82
4148.74
4289.67
4069.01
3971.66
4001.09
4039.69
4046.35
4038.41
4034.33
4035.98
4038.67
4040.07
4040.67
4041.35
4042.29
4043.31
4044.29
4045.22
4046.15
4047.09
4048.03
4048.98
4049.92
4050.86
4051.81
4052.75
4053.69
4054.64
4055.58
4056.52
4057.46
4058.41
4059.35
4060.29
4061.23
4062.17
4063.12
4064.06
4065
4065.94
4066.88
4067.82
4068.76
4069.7
4070.64
4071.57
4072.51
4073.45
4074.38
4075.32
4076.26
4077.19
4078.13
4079.06
4079.99
4080.93
4081.86
4082.79
4083.73
4084.66
4085.59
4086.52
4087.45
4088.38
4089.31
4090.24
4091.17
4092.1
4093.03
4093.96
4094.88
4095.81
4096.74
4097.66
4098.59
4099.51
4100.43
4101.36
4102.28
4103.21
4104.13
4105.05
4105.97
4106.9
4107.82
4108.74
4109.66
4110.58
4111.51
4112.43
4113.35
4114.27
4115.19
4116.11
4117.03
4117.95
4118.87
4119.79
4120.71
4121.63
4122.54
4123.46
4124.38
4125.3
4126.22
4127.14
4128.05
4128.97
4129.89
4130.81
4131.72
4132.64
4133.55
4134.47
4135.38
4136.29
4137.2
4138.11
4139.02
4139.93
4140.84
4141.75
4142.66
4143.57
4144.48
4145.39
4146.3
4147.21
4148.12
4149.03
4149.95
4150.87
4151.79
4152.71
4153.64
4154.57
4155.5
4156.44
4157.38
4158.33
4159.28
4160.24
4161.21
4162.18
4163.16
4164.15
4165.14
4166.14
4167.15
4168.15
4169.17
4170.18
4171.18
4172.18
4173.17
4174.14
4175.08
4175.97
4176.82
4177.59
4178.28
4178.85
4179.29
4179.55
4179.61
4179.43
4178.95
4178.14
4176.93
4175.27
4173.1
4170.37
4167
4162.95
4158.16
4152.56
4146.08
4138.57
4129.79
4119.33
4106.6
4090.58
4069.82
4041.53
4003.01
3950.33
3881.01
3791.12
3647.32
3554.48
3550.62
3515.03
3337.31
3105.77
3003.98
2980.31
2947.36
2919.39
2916
2912.61
2907.98
2902.84
2898.49
2895.39
2893.68
2897.09
2907.81
2922.21
2928.61
2961.53
3163.86
3223.19
3207.9
3191.6
3185.36
3193.21
3209.11
3220.35
3208.23
2777.72
1937.3
2256.01
3111.13
3152.71
2389.48
2316.6
2601.08
2640.22
2313.66
2048.91
1937.9
1508.83
1051.89
1028.44
1242.3
1324.39
1211.85
981.847
726.667
624.55
529.211
492.31
500.866
421.617
346.594
291.848
176.231
43.4412
2847.63
3156.42
4148.48
4289.48
4068.81
3971.45
4000.89
4039.5
4046.17
4038.23
4034.16
4035.81
4038.51
4039.92
4040.53
4041.21
4042.16
4043.18
4044.16
4045.1
4046.03
4046.98
4047.93
4048.87
4049.82
4050.77
4051.71
4052.66
4053.6
4054.55
4055.49
4056.44
4057.38
4058.33
4059.27
4060.22
4061.16
4062.11
4063.05
4063.99
4064.94
4065.88
4066.82
4067.76
4068.7
4069.64
4070.58
4071.52
4072.46
4073.4
4074.34
4075.27
4076.21
4077.15
4078.08
4079.02
4079.95
4080.89
4081.82
4082.76
4083.69
4084.62
4085.56
4086.49
4087.42
4088.35
4089.28
4090.21
4091.14
4092.07
4093
4093.93
4094.85
4095.78
4096.71
4097.63
4098.56
4099.49
4100.41
4101.33
4102.26
4103.18
4104.11
4105.03
4105.95
4106.87
4107.8
4108.72
4109.64
4110.57
4111.49
4112.41
4113.33
4114.25
4115.17
4116.09
4117.01
4117.93
4118.85
4119.77
4120.69
4121.61
4122.53
4123.45
4124.36
4125.28
4126.2
4127.12
4128.03
4128.95
4129.87
4130.78
4131.7
4132.61
4133.52
4134.43
4135.34
4136.25
4137.16
4138.06
4138.96
4139.86
4140.76
4141.66
4142.56
4143.45
4144.35
4145.24
4146.13
4147.02
4147.91
4148.8
4149.68
4150.57
4151.45
4152.33
4153.2
4154.08
4154.95
4155.82
4156.68
4157.54
4158.39
4159.24
4160.08
4160.91
4161.74
4162.55
4163.35
4164.13
4164.89
4165.63
4166.34
4167.02
4167.66
4168.25
4168.79
4169.26
4169.65
4169.96
4170.15
4170.21
4170.12
4169.86
4169.39
4168.67
4167.69
4166.38
4164.71
4162.62
4160.06
4156.96
4153.27
4148.9
4143.78
4137.8
4130.86
4122.82
4113.5
4102.67
4090.04
4075.21
4057.64
4036.57
4010.85
3979
3938.72
3887.78
3822.51
3743.38
3651.38
3559.22
3452.33
3293.78
3134.68
3046.89
3020.67
3005.62
2976.93
2951.73
2938.5
2928.37
2917.78
2911.21
2910.02
2914.55
2925.43
2942.03
2967.96
3006.4
3056.99
3112.71
3153.5
3174.78
3184.85
3192.45
3200.09
3207.74
3215.58
3219.16
3243.65
3221.25
2969.86
2609.97
2602.29
2503.17
2293.31
2111.91
2187.12
2250.11
2177.44
2115.79
2088.47
2096.57
1994.3
982.776
599.083
996.363
1223.97
1033.24
800.092
728.323
569.671
289.644
126.298
228.592
153.692
79.4353
51.5022
20.6587
2847.51
3156.26
4148.41
4289.46
4068.79
3971.42
4000.87
4039.49
4046.18
4038.25
4034.18
4035.84
4038.55
4039.96
4040.57
4041.26
4042.21
4043.24
4044.22
4045.15
4046.09
4047.03
4047.98
4048.93
4049.88
4050.82
4051.77
4052.72
4053.66
4054.61
4055.55
4056.5
4057.44
4058.38
4059.33
4060.27
4061.21
4062.16
4063.1
4064.04
4064.99
4065.93
4066.87
4067.81
4068.75
4069.69
4070.63
4071.57
4072.5
4073.44
4074.38
4075.31
4076.25
4077.19
4078.12
4079.06
4079.99
4080.92
4081.86
4082.79
4083.72
4084.66
4085.59
4086.52
4087.45
4088.38
4089.31
4090.24
4091.17
4092.1
4093.03
4093.95
4094.88
4095.81
4096.73
4097.66
4098.59
4099.51
4100.43
4101.36
4102.28
4103.21
4104.13
4105.05
4105.98
4106.9
4107.82
4108.74
4109.67
4110.59
4111.51
4112.43
4113.35
4114.27
4115.2
4116.12
4117.04
4117.95
4118.87
4119.79
4120.71
4121.63
4122.55
4123.46
4124.38
4125.3
4126.21
4127.13
4128.05
4128.96
4129.88
4130.79
4131.7
4132.61
4133.52
4134.43
4135.33
4136.23
4137.13
4138.03
4138.93
4139.82
4140.71
4141.6
4142.49
4143.37
4144.25
4145.12
4146
4146.86
4147.73
4148.59
4149.44
4150.29
4151.14
4151.97
4152.8
4153.62
4154.43
4155.23
4156.01
4156.79
4157.54
4158.28
4159
4159.7
4160.37
4161.02
4161.63
4162.2
4162.73
4163.22
4163.64
4164.01
4164.3
4164.52
4164.63
4164.65
4164.54
4164.29
4163.88
4163.29
4162.49
4161.46
4160.17
4158.57
4156.63
4154.31
4151.56
4148.32
4144.53
4140.14
4135.05
4129.2
4122.49
4114.81
4106.04
4096.01
4084.56
4071.46
4056.41
4039.06
4018.94
3995.44
3967.8
3935.17
3896.58
3851.34
3798.99
3739.34
3671.44
3592.82
3504.95
3413.85
3335.81
3275.09
3220.09
3164.12
3110.65
3065.2
3029.38
3001.45
2979.71
2964.06
2954.18
2949.28
2948.67
2952.34
2961.64
2978.05
3003.28
3041.42
3093.81
3141.5
3169.39
3182.21
3191.27
3204.85
3227.68
3262.54
3312.07
3388.29
3264.34
2847.91
2455.26
2306.56
2291.13
2221.23
1908.33
1904.73
1917.12
1932.3
1962.7
2025.45
2088.13
1933.93
1536.11
1161.2
1168.95
925.445
218.552
-350.705
-278.139
-229.552
-206.008
-71.0544
70.6159
54.2732
29.2436
4.70305
2847.39
3156.09
4148.31
4289.38
4068.7
3971.33
4000.77
4039.4
4046.08
4038.16
4034.09
4035.75
4038.46
4039.87
4040.49
4041.18
4042.13
4043.16
4044.14
4045.08
4046.01
4046.96
4047.91
4048.86
4049.81
4050.75
4051.7
4052.65
4053.59
4054.54
4055.49
4056.43
4057.38
4058.32
4059.27
4060.21
4061.16
4062.1
4063.04
4063.99
4064.93
4065.87
4066.81
4067.76
4068.7
4069.64
4070.58
4071.52
4072.46
4073.39
4074.33
4075.27
4076.21
4077.14
4078.08
4079.01
4079.95
4080.88
4081.82
4082.75
4083.68
4084.62
4085.55
4086.48
4087.41
4088.34
4089.27
4090.2
4091.13
4092.06
4092.99
4093.92
4094.85
4095.78
4096.7
4097.63
4098.55
4099.48
4100.4
4101.33
4102.25
4103.18
4104.1
4105.02
4105.95
4106.87
4107.79
4108.72
4109.64
4110.56
4111.49
4112.41
4113.33
4114.25
4115.17
4116.09
4117.01
4117.93
4118.85
4119.77
4120.69
4121.61
4122.52
4123.44
4124.36
4125.28
4126.19
4127.11
4128.02
4128.94
4129.85
4130.76
4131.67
4132.58
4133.49
4134.39
4135.29
4136.19
4137.09
4137.98
4138.87
4139.76
4140.64
4141.52
4142.39
4143.26
4144.13
4144.99
4145.85
4146.7
4147.54
4148.38
4149.2
4150.02
4150.83
4151.63
4152.41
4153.18
4153.93
4154.66
4155.38
4156.07
4156.74
4157.38
4157.99
4158.56
4159.1
4159.59
4160.03
4160.42
4160.74
4160.99
4161.17
4161.25
4161.24
4161.11
4160.86
4160.47
4159.91
4159.18
4158.25
4157.09
4155.68
4153.99
4151.98
4149.62
4146.86
4143.66
4139.98
4135.74
4130.9
4125.38
4119.1
4111.99
4103.93
4094.82
4084.54
4072.92
4059.8
4044.96
4028.15
4009.09
3987.44
3962.8
3934.75
3902.87
3866.76
3826.11
3780.72
3730.54
3675.98
3618.06
3558.91
3499.78
3440.05
3379.55
3320.77
3267.04
3219.87
3178.8
3143.36
3113.33
3088.33
3068.04
3052.39
3041.49
3035.57
3034.99
3040.1
3050.98
3066.99
3086.27
3105.16
3118.9
3125.25
3126.31
3125.36
3123.11
3116
3097.17
3049.52
2952.09
2752.03
2520.15
2378.34
2334.76
2311.38
2231.1
2121.9
2080.3
2116.81
2194.76
2307.4
2383.88
2386.85
2382.12
2225.18
1293.46
856.703
907.807
680.093
304.209
115.376
81.5687
65.059
98.633
84.809
27.5796
3.07116
-3.39926
2847.31
3155.96
4148.24
4289.35
4068.66
3971.28
4000.73
4039.37
4046.06
4038.14
4034.08
4035.75
4038.45
4039.88
4040.49
4041.19
4042.14
4043.17
4044.16
4045.1
4046.04
4046.99
4047.94
4048.89
4049.84
4050.79
4051.74
4052.68
4053.63
4054.58
4055.52
4056.47
4057.42
4058.36
4059.31
4060.25
4061.2
4062.14
4063.08
4064.03
4064.97
4065.91
4066.85
4067.8
4068.74
4069.68
4070.62
4071.56
4072.49
4073.43
4074.37
4075.31
4076.24
4077.18
4078.12
4079.05
4079.99
4080.92
4081.85
4082.79
4083.72
4084.65
4085.59
4086.52
4087.45
4088.38
4089.31
4090.24
4091.17
4092.1
4093.02
4093.95
4094.88
4095.81
4096.73
4097.66
4098.59
4099.51
4100.44
4101.36
4102.29
4103.21
4104.13
4105.06
4105.98
4106.9
4107.83
4108.75
4109.67
4110.6
4111.52
4112.44
4113.36
4114.28
4115.2
4116.12
4117.04
4117.96
4118.88
4119.8
4120.72
4121.64
4122.55
4123.47
4124.39
4125.3
4126.22
4127.14
4128.05
4128.96
4129.87
4130.79
4131.69
4132.6
4133.5
4134.4
4135.3
4136.2
4137.09
4137.98
4138.86
4139.74
4140.62
4141.49
4142.35
4143.21
4144.07
4144.92
4145.76
4146.59
4147.42
4148.23
4149.03
4149.82
4150.6
4151.36
4152.1
4152.83
4153.53
4154.21
4154.86
4155.49
4156.08
4156.63
4157.14
4157.61
4158.03
4158.38
4158.68
4158.9
4159.05
4159.1
4159.06
4158.9
4158.62
4158.21
4157.64
4156.9
4155.97
4154.83
4153.45
4151.82
4149.89
4147.64
4145.03
4142.03
4138.59
4134.66
4130.19
4125.13
4119.41
4112.97
4105.72
4097.58
4088.45
4078.22
4066.79
4053.99
4039.69
4023.71
4005.85
3985.89
3963.61
3938.74
3911.04
3880.26
3846.2
3808.7
3767.75
3723.49
3676.33
3626.82
3575.44
3522.71
3469.5
3417.65
3369.03
3324.36
3283.29
3245.44
3210.95
3180.11
3152.98
3129.49
3109.61
3093.31
3080.46
3070.82
3064.04
3059.67
3057.08
3055.48
3053.95
3051.34
3046.21
3037.29
3023.61
3003.85
2975.81
2936.52
2882.62
2812.07
2725.98
2634.53
2548.15
2466
2382.02
2295.44
2215.31
2158.06
2132.75
2123.47
2114.72
2098.79
2067.51
2024.38
1919.27
1663.65
1479.42
1466.49
1428.91
1215.5
775.579
319.844
70.0812
-11.282
-0.388932
13.2428
6.96865
-3.98957
2847.24
3155.87
4148.19
4289.31
4068.62
3971.24
4000.69
4039.32
4046.02
4038.1
4034.04
4035.7
4038.41
4039.84
4040.46
4041.15
4042.1
4043.13
4044.12
4045.06
4046
4046.95
4047.9
4048.85
4049.8
4050.75
4051.7
4052.64
4053.59
4054.54
4055.48
4056.43
4057.37
4058.32
4059.27
4060.21
4061.15
4062.1
4063.04
4063.99
4064.93
4065.87
4066.81
4067.76
4068.7
4069.64
4070.58
4071.52
4072.46
4073.39
4074.33
4075.27
4076.21
4077.14
4078.08
4079.01
4079.95
4080.88
4081.82
4082.75
4083.68
4084.62
4085.55
4086.48
4087.41
4088.34
4089.27
4090.2
4091.13
4092.06
4092.99
4093.92
4094.85
4095.77
4096.7
4097.63
4098.55
4099.48
4100.4
4101.33
4102.25
4103.18
4104.1
4105.03
4105.95
4106.87
4107.8
4108.72
4109.65
4110.57
4111.49
4112.41
4113.34
4114.26
4115.18
4116.1
4117.02
4117.94
4118.86
4119.78
4120.7
4121.62
4122.54
4123.45
4124.37
4125.29
4126.2
4127.12
4128.03
4128.94
4129.86
4130.76
4131.67
4132.58
4133.48
4134.38
4135.28
4136.17
4137.06
4137.94
4138.82
4139.7
4140.57
4141.44
4142.3
4143.15
4144
4144.84
4145.67
4146.49
4147.3
4148.1
4148.88
4149.65
4150.4
4151.13
4151.85
4152.54
4153.2
4153.84
4154.44
4155.01
4155.53
4156.02
4156.45
4156.83
4157.15
4157.4
4157.58
4157.67
4157.67
4157.57
4157.35
4157
4156.51
4155.87
4155.05
4154.03
4152.8
4151.34
4149.61
4147.59
4145.25
4142.56
4139.48
4135.97
4131.98
4127.48
4122.4
4116.69
4110.28
4103.12
4095.12
4086.19
4076.25
4065.2
4052.93
4039.32
4024.23
4007.53
3989.06
3968.66
3946.16
3921.41
3894.24
3864.52
3832.16
3797.13
3759.47
3719.32
3676.93
3632.67
3587.02
3540.71
3494.61
3449.52
3405.97
3364.24
3324.59
3287.36
3252.88
3221.38
3192.91
3167.44
3144.89
3125.13
3107.98
3093.21
3080.5
3069.49
3059.68
3050.39
3040.72
3029.57
3015.7
2998.05
2975.88
2948.59
2915.49
2875.71
2828.37
2772.43
2706.88
2630.67
2546.84
2463.02
2384.92
2313.04
2245.15
2182.6
2128.21
2080.13
2032.61
1979.68
1911.65
1814.87
1679.08
1486.14
1267.78
1065.4
857.149
617.384
378.666
196.14
92.5324
50.4048
46.2068
56.2264
89.2557
44.3542
2847.2
3155.8
4148.15
4289.29
4068.6
3971.21
4000.66
4039.3
4046
4038.08
4034.02
4035.69
4038.4
4039.83
4040.45
4041.14
4042.1
4043.13
4044.12
4045.06
4046
4046.96
4047.91
4048.86
4049.81
4050.76
4051.71
4052.66
4053.61
4054.56
4055.5
4056.45
4057.4
4058.34
4059.29
4060.24
4061.18
4062.13
4063.07
4064.02
4064.96
4065.9
4066.85
4067.79
4068.73
4069.67
4070.61
4071.55
4072.49
4073.43
4074.37
4075.3
4076.24
4077.18
4078.11
4079.05
4079.98
4080.92
4081.85
4082.79
4083.72
4084.65
4085.58
4086.52
4087.45
4088.38
4089.31
4090.24
4091.17
4092.1
4093.02
4093.95
4094.88
4095.81
4096.74
4097.66
4098.59
4099.51
4100.44
4101.37
4102.29
4103.22
4104.14
4105.06
4105.99
4106.91
4107.84
4108.76
4109.68
4110.61
4111.53
4112.45
4113.38
4114.3
4115.22
4116.14
4117.06
4117.98
4118.9
4119.82
4120.74
4121.66
4122.57
4123.49
4124.41
4125.33
4126.24
4127.16
4128.07
4128.98
4129.9
4130.8
4131.71
4132.61
4133.51
4134.41
4135.31
4136.2
4137.08
4137.97
4138.85
4139.72
4140.59
4141.45
4142.31
4143.16
4144
4144.83
4145.65
4146.47
4147.27
4148.05
4148.82
4149.58
4150.31
4151.03
4151.72
4152.38
4153.02
4153.62
4154.19
4154.72
4155.2
4155.63
4156.01
4156.33
4156.58
4156.75
4156.84
4156.84
4156.74
4156.52
4156.17
4155.68
4155.04
4154.22
4153.22
4152
4150.56
4148.85
4146.87
4144.57
4141.93
4138.92
4135.49
4131.6
4127.22
4122.29
4116.77
4110.59
4103.68
4096
4087.45
4077.96
4067.45
4055.83
4042.98
4028.81
4013.2
3996.04
3977.2
3956.56
3934
3909.42
3882.71
3853.81
3822.69
3789.36
3753.91
3716.47
3677.27
3636.65
3594.99
3552.75
3510.42
3468.44
3427.28
3387.42
3349.28
3313.19
3279.33
3247.84
3218.77
3192.11
3167.79
3145.69
3125.61
3107.29
3090.41
3074.54
3059.16
3043.66
3027.33
3009.43
2989.23
2966.02
2939.17
2908.04
2871.95
2830.17
2781.96
2726.78
2664.67
2596.82
2525.86
2454.73
2384.68
2315.15
2245.48
2176.21
2108.23
2040.77
1970.68
1893.48
1804.52
1699.43
1575.76
1431.81
1274.39
1119.25
972.939
831.293
692.822
559.686
438.501
336.585
254.531
184.426
119.723
36.9892
2847.17
3155.76
4148.13
4289.28
4068.58
3971.19
4000.64
4039.28
4045.98
4038.06
4034.01
4035.68
4038.39
4039.81
4040.44
4041.13
4042.09
4043.12
4044.11
4045.05
4045.99
4046.94
4047.89
4048.85
4049.8
4050.74
4051.69
4052.64
4053.59
4054.53
4055.48
4056.43
4057.37
4058.32
4059.26
4060.21
4061.15
4062.1
4063.04
4063.99
4064.93
4065.87
4066.82
4067.76
4068.7
4069.64
4070.58
4071.52
4072.46
4073.4
4074.33
4075.27
4076.21
4077.14
4078.08
4079.02
4079.95
4080.89
4081.82
4082.75
4083.69
4084.62
4085.55
4086.48
4087.41
4088.34
4089.27
4090.2
4091.13
4092.06
4092.99
4093.92
4094.85
4095.77
4096.7
4097.63
4098.56
4099.48
4100.41
4101.33
4102.26
4103.18
4104.11
4105.03
4105.96
4106.88
4107.81
4108.73
4109.66
4110.58
4111.51
4112.43
4113.35
4114.28
4115.2
4116.12
4117.04
4117.96
4118.88
4119.8
4120.72
4121.64
4122.56
4123.48
4124.4
4125.31
4126.23
4127.15
4128.06
4128.97
4129.89
4130.8
4131.7
4132.61
4133.51
4134.41
4135.3
4136.2
4137.08
4137.97
4138.85
4139.72
4140.59
4141.45
4142.31
4143.15
4143.99
4144.83
4145.65
4146.45
4147.25
4148.03
4148.8
4149.55
4150.27
4150.98
4151.66
4152.31
4152.93
4153.52
4154.06
4154.57
4155.03
4155.43
4155.78
4156.06
4156.27
4156.4
4156.44
4156.39
4156.22
4155.93
4155.51
4154.94
4154.2
4153.29
4152.17
4150.84
4149.26
4147.41
4145.26
4142.8
4139.97
4136.76
4133.12
4129
4124.38
4119.19
4113.38
4106.9
4099.69
4091.67
4082.78
4072.94
4062.07
4050.08
4036.87
4022.35
4006.42
3988.97
3969.89
3949.09
3926.48
3901.98
3875.52
3847.06
3816.61
3784.2
3749.93
3713.94
3676.44
3637.7
3598.04
3557.82
3517.45
3477.36
3437.97
3399.68
3362.8
3327.57
3294.19
3262.78
3233.41
3206.1
3180.77
3157.3
3135.49
3115.08
3095.72
3077.02
3058.52
3039.67
3019.92
2998.64
2975.19
2948.94
2919.28
2885.62
2847.46
2804.37
2756.09
2702.59
2644.16
2581.44
2515.28
2446.55
2376.03
2304.24
2231.54
2158.11
2083.72
2007.49
1927.77
1842.52
1749.81
1648.07
1536.39
1414.97
1285.7
1152.72
1019.19
884.621
748.261
613.571
487.556
375.624
277.22
190.064
104.456
42.3075
2847.16
3155.75
4148.12
4289.27
4068.58
3971.18
4000.63
4039.28
4045.98
4038.06
4034
4035.67
4038.39
4039.81
4040.44
4041.13
4042.09
4043.12
4044.11
4045.05
4045.99
4046.95
4047.9
4048.85
4049.81
4050.76
4051.7
4052.65
4053.6
4054.55
4055.5
4056.45
4057.39
4058.34
4059.29
4060.23
4061.18
4062.12
4063.07
4064.01
4064.96
4065.9
4066.84
4067.79
4068.73
4069.67
4070.61
4071.55
4072.49
4073.43
4074.37
4075.31
4076.24
4077.18
4078.12
4079.05
4079.99
4080.92
4081.85
4082.79
4083.72
4084.65
4085.59
4086.52
4087.45
4088.38
4089.31
4090.24
4091.17
4092.1
4093.03
4093.96
4094.88
4095.81
4096.74
4097.67
4098.59
4099.52
4100.45
4101.37
4102.3
4103.22
4104.15
4105.07
4106
4106.92
4107.85
4108.77
4109.7
4110.62
4111.55
4112.47
4113.39
4114.32
4115.24
4116.16
4117.08
4118.01
4118.93
4119.85
4120.77
4121.69
4122.61
4123.53
4124.44
4125.36
4126.28
4127.2
4128.11
4129.03
4129.94
4130.85
4131.76
4132.66
4133.56
4134.46
4135.36
4136.25
4137.14
4138.03
4138.91
4139.78
4140.65
4141.52
4142.38
4143.23
4144.07
4144.9
4145.73
4146.54
4147.33
4148.12
4148.89
4149.63
4150.36
4151.07
4151.75
4152.4
4153.02
4153.6
4154.15
4154.65
4155.1
4155.5
4155.85
4156.12
4156.32
4156.44
4156.47
4156.4
4156.21
4155.91
4155.46
4154.87
4154.11
4153.16
4152
4150.63
4149
4147.1
4144.91
4142.38
4139.49
4136.2
4132.47
4128.27
4123.55
4118.25
4112.33
4105.73
4098.38
4090.22
4081.19
4071.19
4060.15
4047.98
4034.59
4019.89
4003.77
3986.14
3966.89
3945.94
3923.2
3898.6
3872.1
3843.66
3813.29
3781.05
3747.04
3711.41
3674.37
3636.17
3597.14
3557.64
3518.03
3478.72
3440.06
3402.4
3366.02
3331.18
3298.08
3266.86
3237.57
3210.21
3184.73
3160.97
3138.73
3117.75
3097.68
3078.13
3058.63
3038.68
3017.68
2995.06
2970.2
2942.49
2911.38
2876.36
2836.97
2792.87
2743.79
2689.67
2630.62
2567.01
2499.51
2429.1
2356.95
2283.54
2209.07
2133.49
2056.44
1977.09
1894.22
1806.31
1711.84
1609.51
1498.59
1379.37
1253.3
1122.97
991.362
861.099
734.6
614.249
501.785
397.889
301.016
211.065
119.387
50.0831
2847.17
3155.76
4148.13
4289.28
4068.58
3971.19
4000.64
4039.28
4045.98
4038.06
4034.01
4035.68
4038.39
4039.81
4040.44
4041.13
4042.09
4043.12
4044.11
4045.05
4045.99
4046.94
4047.89
4048.85
4049.8
4050.74
4051.69
4052.64
4053.59
4054.53
4055.48
4056.43
4057.37
4058.32
4059.26
4060.21
4061.16
4062.1
4063.04
4063.99
4064.93
4065.88
4066.82
4067.76
4068.7
4069.64
4070.58
4071.52
4072.46
4073.4
4074.34
4075.28
4076.21
4077.15
4078.08
4079.02
4079.95
4080.89
4081.82
4082.76
4083.69
4084.62
4085.55
4086.48
4087.42
4088.35
4089.28
4090.21
4091.14
4092.07
4092.99
4093.92
4094.85
4095.78
4096.71
4097.64
4098.56
4099.49
4100.42
4101.34
4102.27
4103.2
4104.12
4105.05
4105.97
4106.9
4107.82
4108.75
4109.67
4110.6
4111.52
4112.45
4113.37
4114.3
4115.22
4116.15
4117.07
4117.99
4118.92
4119.84
4120.76
4121.68
4122.6
4123.52
4124.44
4125.36
4126.28
4127.2
4128.11
4129.03
4129.94
4130.86
4131.77
4132.67
4133.58
4134.48
4135.38
4136.28
4137.17
4138.06
4138.95
4139.83
4140.7
4141.57
4142.44
4143.29
4144.14
4144.98
4145.81
4146.63
4147.44
4148.23
4149
4149.76
4150.5
4151.22
4151.91
4152.57
4153.21
4153.81
4154.37
4154.89
4155.36
4155.78
4156.14
4156.44
4156.66
4156.81
4156.86
4156.82
4156.67
4156.39
4155.98
4155.42
4154.7
4153.79
4152.68
4151.34
4149.76
4147.91
4145.76
4143.28
4140.44
4137.21
4133.54
4129.39
4124.72
4119.48
4113.62
4107.07
4099.77
4091.66
4082.66
4072.69
4061.68
4049.52
4036.12
4021.39
4005.22
3987.49
3968.12
3946.99
3924.02
3899.13
3872.26
3843.38
3812.5
3779.68
3745.02
3708.69
3670.93
3632.01
3592.28
3552.12
3511.95
3472.19
3433.26
3395.49
3359.17
3324.52
3291.72
3260.89
3232.1
3205.33
3180.5
3157.49
3136.06
3115.96
3096.84
3078.27
3059.77
3040.8
3020.75
2998.99
2974.85
2947.66
2916.77
2881.59
2841.54
2796.16
2745.14
2688.42
2626.29
2559.44
2488.79
2415.39
2340.09
2263.86
2187.17
2110.03
2032.11
1952.48
1869.6
1781.49
1686.09
1581.75
1467.83
1345.2
1216.25
1084.36
953.664
828.248
710.145
598.572
492.234
391.42
296.183
207.194
117.376
46.8099
2847.2
3155.8
4148.15
4289.29
4068.6
3971.21
4000.66
4039.3
4046
4038.08
4034.02
4035.69
4038.4
4039.83
4040.45
4041.14
4042.1
4043.14
4044.12
4045.06
4046
4046.96
4047.91
4048.86
4049.81
4050.76
4051.71
4052.66
4053.61
4054.56
4055.5
4056.45
4057.4
4058.34
4059.29
4060.24
4061.18
4062.13
4063.07
4064.02
4064.96
4065.91
4066.85
4067.79
4068.73
4069.68
4070.62
4071.56
4072.5
4073.43
4074.37
4075.31
4076.25
4077.18
4078.12
4079.06
4079.99
4080.93
4081.86
4082.79
4083.73
4084.66
4085.59
4086.52
4087.45
4088.38
4089.31
4090.24
4091.17
4092.1
4093.03
4093.96
4094.89
4095.82
4096.75
4097.67
4098.6
4099.53
4100.45
4101.38
4102.31
4103.23
4104.16
4105.09
4106.01
4106.94
4107.86
4108.79
4109.72
4110.64
4111.57
4112.49
4113.42
4114.34
4115.27
4116.19
4117.12
4118.04
4118.96
4119.89
4120.81
4121.73
4122.65
4123.57
4124.5
4125.42
4126.34
4127.26
4128.17
4129.09
4130.01
4130.92
4131.83
4132.75
4133.65
4134.56
4135.46
4136.36
4137.26
4138.16
4139.05
4139.93
4140.82
4141.69
4142.57
4143.43
4144.29
4145.14
4145.98
4146.82
4147.64
4148.44
4149.24
4150.01
4150.77
4151.51
4152.22
4152.91
4153.57
4154.2
4154.79
4155.35
4155.86
4156.32
4156.73
4157.08
4157.36
4157.56
4157.68
4157.71
4157.63
4157.44
4157.12
4156.65
4156.03
4155.23
4154.24
4153.03
4151.58
4149.87
4147.88
4145.56
4142.89
4139.83
4136.35
4132.4
4127.94
4122.92
4117.27
4110.95
4103.89
4096.02
4087.25
4077.52
4066.73
4054.77
4041.56
4026.97
4010.88
3993.18
3973.73
3952.42
3929.12
3903.73
3876.16
3846.36
3814.33
3780.1
3743.81
3705.63
3665.88
3624.9
3583.15