/*--------------------------------*- C++ -*----------------------------------*\
| =========                 |                                                 |
| \\      /  F ield         | OpenFOAM: The Open Source CFD Toolbox           |
|  \\    /   O peration     | Version:  2406                                  |
|   \\  /    A nd           | Website:  www.openfoam.com                      |
|    \\/     M anipulation  |                                                 |
\*---------------------------------------------------------------------------*/
FoamFile
{
    version     2.0;
    format      ascii;
    arch        "LSB;label=32;scalar=64";
    class       surfaceScalarField;
    location    "0.3";
    object      phi;
}
// * * * * * * * * * * * * * * * * * * * * * * * * * * * * * * * * * * * * * //

dimensions      [0 3 -1 0 0 0 0];

oriented        oriented;

internalField   nonuniform List<scalar> 
12225
(
2.24631e-05
9.12025e-09
2.24384e-05
2.46757e-08
2.2415e-05
2.34196e-08
2.23973e-05
1.76754e-08
2.23788e-05
1.85312e-08
2.23568e-05
2.19809e-08
2.2333e-05
2.37626e-08
2.23091e-05
2.39813e-08
2.22851e-05
2.39968e-08
2.22607e-05
2.43831e-08
2.22358e-05
2.48694e-08
2.22106e-05
2.52152e-08
2.21852e-05
2.54291e-08
2.21596e-05
2.55984e-08
2.21338e-05
2.57607e-08
2.21079e-05
2.59092e-08
2.20819e-05
2.60346e-08
2.20557e-05
2.61388e-08
2.20295e-05
2.62266e-08
2.20032e-05
2.63009e-08
2.19768e-05
2.63624e-08
2.19504e-05
2.64121e-08
2.1924e-05
2.64523e-08
2.18975e-05
2.64851e-08
2.1871e-05
2.65125e-08
2.18444e-05
2.65359e-08
2.18179e-05
2.65563e-08
2.17913e-05
2.65746e-08
2.17647e-05
2.65914e-08
2.17381e-05
2.66069e-08
2.17115e-05
2.6621e-08
2.16849e-05
2.66336e-08
2.16582e-05
2.66443e-08
2.16316e-05
2.66533e-08
2.16049e-05
2.66606e-08
2.15782e-05
2.66663e-08
2.15516e-05
2.66699e-08
2.15249e-05
2.66712e-08
2.14982e-05
2.66701e-08
2.14715e-05
2.66664e-08
2.14449e-05
2.66603e-08
2.14182e-05
2.66519e-08
2.13916e-05
2.66413e-08
2.1365e-05
2.66282e-08
2.13384e-05
2.66128e-08
2.13118e-05
2.65953e-08
2.12852e-05
2.65759e-08
2.12586e-05
2.65553e-08
2.12321e-05
2.65337e-08
2.12056e-05
2.65116e-08
2.11791e-05
2.64892e-08
2.11526e-05
2.64668e-08
2.11262e-05
2.64448e-08
2.10998e-05
2.64235e-08
2.10734e-05
2.64031e-08
2.1047e-05
2.6384e-08
2.10206e-05
2.6366e-08
2.09943e-05
2.63492e-08
2.09679e-05
2.63334e-08
2.09416e-05
2.63185e-08
2.09153e-05
2.63041e-08
2.0889e-05
2.62902e-08
2.08627e-05
2.62766e-08
2.08365e-05
2.62632e-08
2.08102e-05
2.62498e-08
2.0784e-05
2.62364e-08
2.07578e-05
2.62228e-08
2.07316e-05
2.6209e-08
2.07054e-05
2.61949e-08
2.06792e-05
2.61805e-08
2.0653e-05
2.61656e-08
2.06269e-05
2.61504e-08
2.06007e-05
2.61347e-08
2.05746e-05
2.61186e-08
2.05485e-05
2.61022e-08
2.05224e-05
2.60854e-08
2.04963e-05
2.60683e-08
2.04703e-05
2.60508e-08
2.04443e-05
2.6033e-08
2.04183e-05
2.60148e-08
2.03923e-05
2.59962e-08
2.03663e-05
2.59771e-08
2.03403e-05
2.59576e-08
2.03144e-05
2.59375e-08
2.02885e-05
2.59167e-08
2.02626e-05
2.58954e-08
2.02367e-05
2.58733e-08
2.02108e-05
2.58506e-08
2.0185e-05
2.58272e-08
2.01592e-05
2.58033e-08
2.01334e-05
2.5779e-08
2.01077e-05
2.57545e-08
2.0082e-05
2.57299e-08
2.00562e-05
2.57056e-08
2.00306e-05
2.56818e-08
2.00049e-05
2.56587e-08
1.99793e-05
2.56366e-08
1.99537e-05
2.56157e-08
1.99281e-05
2.55964e-08
1.99025e-05
2.55788e-08
1.98769e-05
2.55632e-08
1.98514e-05
2.55498e-08
1.98258e-05
2.55392e-08
1.98003e-05
2.55315e-08
1.97748e-05
2.55272e-08
1.97492e-05
2.55268e-08
1.97237e-05
2.55308e-08
1.96982e-05
2.55399e-08
1.96726e-05
2.55546e-08
1.9647e-05
2.5576e-08
1.96214e-05
2.56049e-08
1.95958e-05
2.56424e-08
1.95701e-05
2.56897e-08
1.95444e-05
2.57483e-08
1.95185e-05
2.58198e-08
1.94926e-05
2.59058e-08
1.94666e-05
2.60085e-08
1.94405e-05
2.61299e-08
1.94142e-05
2.62728e-08
1.93878e-05
2.64397e-08
1.93611e-05
2.66341e-08
1.93343e-05
2.68594e-08
1.93072e-05
2.71199e-08
1.92797e-05
2.74204e-08
1.9252e-05
2.77662e-08
1.92238e-05
2.81636e-08
1.91952e-05
2.86196e-08
1.91661e-05
2.91423e-08
1.91363e-05
2.97408e-08
1.91059e-05
3.04254e-08
1.90747e-05
3.12075e-08
1.90426e-05
3.21005e-08
1.90095e-05
3.31188e-08
1.89752e-05
3.42793e-08
1.89396e-05
3.56004e-08
1.89025e-05
3.71035e-08
1.88637e-05
3.88121e-08
1.88229e-05
4.07533e-08
1.878e-05
4.29571e-08
1.87345e-05
4.5458e-08
1.86862e-05
4.82947e-08
1.86347e-05
5.15108e-08
1.85795e-05
5.51559e-08
1.85203e-05
5.9286e-08
1.84563e-05
6.39641e-08
1.8387e-05
6.92615e-08
1.83118e-05
7.52584e-08
1.82297e-05
8.20454e-08
1.814e-05
8.97238e-08
1.80416e-05
9.84075e-08
1.79334e-05
1.08224e-07
1.78141e-05
1.19314e-07
1.76822e-05
1.31835e-07
1.75363e-05
1.4596e-07
1.73744e-05
1.61878e-07
1.71946e-05
1.79794e-07
1.69947e-05
1.99928e-07
1.67721e-05
2.22513e-07
1.65244e-05
2.47792e-07
1.62483e-05
2.76009e-07
1.59409e-05
3.07404e-07
1.55987e-05
3.42202e-07
1.52181e-05
3.80594e-07
1.47954e-05
4.22719e-07
1.43268e-05
4.68638e-07
1.38085e-05
5.18301e-07
1.3237e-05
5.71503e-07
1.26091e-05
6.27837e-07
1.19223e-05
6.86825e-07
1.11746e-05
7.47729e-07
1.03651e-05
8.09454e-07
9.49456e-06
8.70573e-07
8.56526e-06
9.29301e-07
7.58178e-06
9.83482e-07
6.55115e-06
1.03064e-06
5.48311e-06
1.06804e-06
4.39005e-06
1.09305e-06
3.28645e-06
1.1036e-06
2.18537e-06
1.10108e-06
1.08728e-06
1.09809e-06
-1.01039e-07
1.18832e-06
-1.03053e-06
9.29493e-07
-1.33654e-06
3.06013e-07
-1.09641e-06
-2.40137e-07
-7.07183e-08
-1.02569e-06
1.51562e-06
-1.58634e-06
7.4668e-07
7.6894e-07
3.83101e-07
3.63579e-07
2.98316e-07
8.4785e-08
2.47512e-07
5.08042e-08
1.9899e-07
4.85226e-08
1.75266e-07
2.37234e-08
1.63416e-07
1.18507e-08
1.52721e-07
1.06948e-08
1.47129e-07
5.59153e-09
1.47662e-07
-5.32333e-10
1.48239e-07
-5.77493e-10
1.45457e-07
2.78182e-09
1.41324e-07
4.1331e-09
1.38797e-07
2.5269e-09
1.38008e-07
7.89622e-10
1.38205e-07
-1.97453e-10
1.38835e-07
-6.29814e-10
1.39538e-07
-7.03453e-10
1.40859e-07
-1.32073e-09
1.43251e-07
-2.39148e-09
1.4607e-07
-2.8191e-09
1.48209e-07
-2.13889e-09
1.49327e-07
-1.11879e-09
1.50263e-07
-9.35792e-10
1.52707e-07
-2.44376e-09
1.57093e-07
-4.38566e-09
1.63523e-07
-6.43031e-09
1.71679e-07
-8.15629e-09
1.80299e-07
-8.61947e-09
1.87633e-07
-7.3345e-09
1.92557e-07
-4.92353e-09
1.947e-07
-2.14327e-09
1.93983e-07
7.16486e-10
1.90753e-07
3.2302e-09
1.84428e-07
6.32544e-09
1.75195e-07
9.23256e-09
1.66734e-07
8.46168e-09
1.62915e-07
3.8183e-09
1.64437e-07
-1.5215e-09
1.68859e-07
-4.42201e-09
1.74561e-07
-5.7027e-09
1.78879e-07
-4.31801e-09
1.79266e-07
-3.86889e-10
1.76436e-07
2.83024e-09
1.72981e-07
3.45533e-09
1.70496e-07
2.48513e-09
1.67625e-07
2.87022e-09
1.6337e-07
4.25514e-09
1.57886e-07
5.48384e-09
1.51186e-07
6.7008e-09
1.42527e-07
8.65884e-09
1.32084e-07
1.04426e-08
1.22186e-07
9.89842e-09
1.14803e-07
7.38312e-09
1.1041e-07
4.3927e-09
1.08014e-07
2.3957e-09
1.05316e-07
2.69839e-09
1.0233e-07
2.98603e-09
1.00582e-07
1.74791e-09
1.0087e-07
-2.87734e-10
1.025e-07
-1.63027e-09
1.04135e-07
-1.63536e-09
1.04716e-07
-5.80475e-10
4.60615e-10
2.25135e-05
-1.6442e-10
2.25344e-05
3.75135e-09
2.25506e-05
7.23498e-09
2.25585e-05
9.73575e-09
2.2568e-05
9.09256e-09
2.2581e-05
8.90475e-09
2.25951e-05
9.70006e-09
2.26086e-05
1.05321e-08
2.26215e-05
1.10156e-08
2.26346e-05
1.12953e-08
2.26479e-05
1.15708e-08
2.26613e-05
1.18637e-08
2.26746e-05
1.21254e-08
2.26878e-05
1.23411e-08
2.27011e-05
1.25266e-08
2.27143e-05
1.2696e-08
2.27275e-05
1.28525e-08
2.27406e-05
1.29959e-08
2.27537e-05
1.31276e-08
2.27668e-05
1.32504e-08
2.27798e-05
1.33663e-08
2.27927e-05
1.34761e-08
2.28056e-05
1.35803e-08
2.28184e-05
1.36792e-08
2.28311e-05
1.37735e-08
2.28438e-05
1.38637e-08
2.28564e-05
1.39503e-08
2.28689e-05
1.40338e-08
2.28814e-05
1.41143e-08
2.28938e-05
1.41922e-08
2.29062e-05
1.42677e-08
2.29185e-05
1.43413e-08
2.29307e-05
1.44132e-08
2.29429e-05
1.44838e-08
2.2955e-05
1.4553e-08
2.2967e-05
1.4621e-08
2.2979e-05
1.46876e-08
2.29909e-05
1.47532e-08
2.30028e-05
1.48179e-08
2.30146e-05
1.48817e-08
2.30263e-05
1.49446e-08
2.30379e-05
1.50065e-08
2.30495e-05
1.50675e-08
2.3061e-05
1.51275e-08
2.30724e-05
1.51867e-08
2.30838e-05
1.52452e-08
2.3095e-05
1.53031e-08
2.31062e-05
1.53602e-08
2.31174e-05
1.54167e-08
2.31284e-05
1.54725e-08
2.31394e-05
1.55278e-08
2.31502e-05
1.55826e-08
2.3161e-05
1.56372e-08
2.31718e-05
1.56916e-08
2.31824e-05
1.57459e-08
2.3193e-05
1.58002e-08
2.32035e-05
1.58544e-08
2.3214e-05
1.59086e-08
2.32243e-05
1.59626e-08
2.32346e-05
1.60166e-08
2.32449e-05
1.60703e-08
2.3255e-05
1.61237e-08
2.32651e-05
1.61768e-08
2.32752e-05
1.62295e-08
2.32851e-05
1.62817e-08
2.3295e-05
1.63334e-08
2.33049e-05
1.63846e-08
2.33147e-05
1.64352e-08
2.33244e-05
1.64852e-08
2.3334e-05
1.65347e-08
2.33436e-05
1.65835e-08
2.33531e-05
1.66318e-08
2.33626e-05
1.66794e-08
2.3372e-05
1.67265e-08
2.33813e-05
1.67729e-08
2.33906e-05
1.68186e-08
2.33998e-05
1.68638e-08
2.34089e-05
1.69084e-08
2.3418e-05
1.69524e-08
2.3427e-05
1.69958e-08
2.3436e-05
1.70386e-08
2.34449e-05
1.70809e-08
2.34537e-05
1.71226e-08
2.34625e-05
1.71637e-08
2.34712e-05
1.72043e-08
2.34798e-05
1.72444e-08
2.34884e-05
1.7284e-08
2.34969e-05
1.73232e-08
2.35054e-05
1.73619e-08
2.35138e-05
1.74003e-08
2.35222e-05
1.74384e-08
2.35304e-05
1.74763e-08
2.35386e-05
1.75141e-08
2.35468e-05
1.75519e-08
2.35549e-05
1.75899e-08
2.35629e-05
1.76281e-08
2.35709e-05
1.76668e-08
2.35788e-05
1.77062e-08
2.35867e-05
1.77464e-08
2.35944e-05
1.77876e-08
2.36022e-05
1.78302e-08
2.36099e-05
1.78744e-08
2.36175e-05
1.79206e-08
2.3625e-05
1.79692e-08
2.36325e-05
1.80207e-08
2.364e-05
1.80756e-08
2.36474e-05
1.81345e-08
2.36547e-05
1.81981e-08
2.3662e-05
1.82673e-08
2.36693e-05
1.83429e-08
2.36764e-05
1.8426e-08
2.36836e-05
1.85176e-08
2.36906e-05
1.86193e-08
2.36976e-05
1.87323e-08
2.37046e-05
1.88585e-08
2.37115e-05
1.89998e-08
2.37184e-05
1.91583e-08
2.37252e-05
1.93366e-08
2.37319e-05
1.95373e-08
2.37386e-05
1.97638e-08
2.37452e-05
2.00194e-08
2.37517e-05
2.03084e-08
2.37582e-05
2.06353e-08
2.37646e-05
2.10052e-08
2.3771e-05
2.14241e-08
2.37772e-05
2.18987e-08
2.37834e-05
2.24366e-08
2.37895e-05
2.30464e-08
2.37955e-05
2.3738e-08
2.38014e-05
2.45224e-08
2.38072e-05
2.54122e-08
2.38129e-05
2.64218e-08
2.38184e-05
2.75673e-08
2.38239e-05
2.8867e-08
2.38291e-05
3.03418e-08
2.38342e-05
3.20152e-08
2.38391e-05
3.39139e-08
2.38438e-05
3.60683e-08
2.38482e-05
3.85127e-08
2.38524e-05
4.12864e-08
2.38563e-05
4.44339e-08
2.38598e-05
4.80059e-08
2.38629e-05
5.20604e-08
2.38655e-05
5.66634e-08
2.38676e-05
6.18903e-08
2.3869e-05
6.78272e-08
2.38697e-05
7.45726e-08
2.38695e-05
8.22392e-08
2.38683e-05
9.09559e-08
2.38658e-05
1.00871e-07
2.38619e-05
1.12152e-07
2.38562e-05
1.24994e-07
2.38484e-05
1.39619e-07
2.38381e-05
1.56281e-07
2.38247e-05
1.75266e-07
2.38076e-05
1.96901e-07
2.3786e-05
2.21556e-07
2.37588e-05
2.49647e-07
2.3725e-05
2.8164e-07
2.36829e-05
3.1805e-07
2.36309e-05
3.5944e-07
2.35667e-05
4.06419e-07
2.34876e-05
4.59627e-07
2.33906e-05
5.19727e-07
2.32719e-05
5.87377e-07
2.3127e-05
6.63196e-07
2.29508e-05
7.47728e-07
2.27372e-05
8.41386e-07
2.24797e-05
9.44391e-07
2.21707e-05
1.05667e-06
2.18024e-05
1.17774e-06
2.13664e-05
1.30664e-06
2.08539e-05
1.44178e-06
2.02565e-05
1.58088e-06
1.95663e-05
1.72087e-06
1.87765e-05
1.85777e-06
1.78829e-05
1.98668e-06
1.68851e-05
2.10141e-06
1.5792e-05
2.19413e-06
1.46395e-05
2.25063e-06
1.35692e-05
2.25866e-06
1.23339e-05
2.16476e-06
1.06469e-05
1.99298e-06
8.57427e-06
1.83252e-06
5.92613e-06
1.62245e-06
3.09921e-06
1.24058e-06
1.70225e-06
2.16589e-06
1.1582e-06
9.07636e-07
9.78893e-07
2.64089e-07
7.12228e-07
3.17469e-07
5.80694e-07
1.80057e-07
5.40263e-07
6.41545e-08
4.94131e-07
5.79821e-08
4.42581e-07
6.22451e-08
4.14503e-07
3.36701e-08
4.07923e-07
6.04725e-09
3.99934e-07
7.41159e-09
3.78972e-07
2.37433e-08
3.62766e-07
2.03393e-08
3.54121e-07
1.1172e-08
3.50493e-07
4.41775e-09
3.50401e-07
-1.05574e-10
3.50961e-07
-1.19005e-09
3.51638e-07
-1.37977e-09
3.56523e-07
-6.2064e-09
3.66503e-07
-1.23712e-08
3.79536e-07
-1.58525e-08
3.92557e-07
-1.51594e-08
4.0329e-07
-1.18523e-08
4.11846e-07
-9.49122e-09
4.24247e-07
-1.48446e-08
4.40687e-07
-2.08265e-08
4.59436e-07
-2.51787e-08
4.79828e-07
-2.85481e-08
5.00558e-07
-2.93504e-08
5.18642e-07
-2.54182e-08
5.31924e-07
-1.82053e-08
5.40347e-07
-1.05659e-08
5.44173e-07
-3.10943e-09
5.42641e-07
4.76159e-09
5.31646e-07
1.73203e-08
5.08793e-07
3.2086e-08
4.86401e-07
3.08536e-08
4.7496e-07
1.52588e-08
4.73115e-07
3.23675e-10
4.77841e-07
-9.14725e-09
4.84607e-07
-1.24694e-08
4.91014e-07
-1.07253e-08
4.88546e-07
2.08129e-09
4.74946e-07
1.64305e-08
4.62569e-07
1.58324e-08
4.52845e-07
1.22096e-08
4.41029e-07
1.46853e-08
4.25557e-07
1.97274e-08
4.09453e-07
2.15884e-08
3.93636e-07
2.25176e-08
3.73127e-07
2.91673e-08
3.47225e-07
3.63452e-08
3.2358e-07
3.35435e-08
3.05077e-07
2.58854e-08
2.91048e-07
1.84218e-08
2.80313e-07
1.3131e-08
2.7002e-07
1.2991e-08
2.60001e-07
1.30053e-08
2.51832e-07
9.91722e-09
2.46122e-07
5.42218e-09
2.4294e-07
1.55173e-09
2.4135e-07
-4.54495e-11
2.39765e-07
1.00503e-09
3.23763e-09
2.24971e-05
1.37692e-09
2.24969e-05
3.94359e-09
2.24992e-05
4.89369e-09
2.25035e-05
5.48427e-09
2.25063e-05
6.26694e-09
2.25081e-05
7.12942e-09
2.25099e-05
7.87264e-09
2.2512e-05
8.45324e-09
2.25141e-05
8.90877e-09
2.25161e-05
9.28527e-09
2.2518e-05
9.62535e-09
2.25199e-05
9.93862e-09
2.25219e-05
1.02166e-08
2.25237e-05
1.0457e-08
2.25256e-05
1.06669e-08
2.25274e-05
1.08539e-08
2.25293e-05
1.1022e-08
2.25311e-05
1.11733e-08
2.25329e-05
1.13101e-08
2.25347e-05
1.14352e-08
2.25365e-05
1.15509e-08
2.25384e-05
1.16585e-08
2.25402e-05
1.17589e-08
2.2542e-05
1.18528e-08
2.25438e-05
1.19406e-08
2.25457e-05
1.2023e-08
2.25475e-05
1.21004e-08
2.25494e-05
1.21731e-08
2.25513e-05
1.22415e-08
2.25532e-05
1.2306e-08
2.25551e-05
1.23673e-08
2.2557e-05
1.24259e-08
2.25589e-05
1.24819e-08
2.25608e-05
1.25356e-08
2.25628e-05
1.25872e-08
2.25648e-05
1.2637e-08
2.25668e-05
1.26853e-08
2.25688e-05
1.27322e-08
2.25709e-05
1.27778e-08
2.25729e-05
1.28222e-08
2.2575e-05
1.28654e-08
2.25771e-05
1.29075e-08
2.25792e-05
1.29487e-08
2.25814e-05
1.29892e-08
2.25835e-05
1.30289e-08
2.25857e-05
1.30681e-08
2.25879e-05
1.31066e-08
2.25901e-05
1.31444e-08
2.25923e-05
1.31818e-08
2.25946e-05
1.32186e-08
2.25969e-05
1.32551e-08
2.25992e-05
1.32912e-08
2.26015e-05
1.33271e-08
2.26038e-05
1.33627e-08
2.26061e-05
1.3398e-08
2.26085e-05
1.3433e-08
2.26109e-05
1.34678e-08
2.26133e-05
1.35024e-08
2.26157e-05
1.35368e-08
2.26182e-05
1.3571e-08
2.26206e-05
1.36049e-08
2.26231e-05
1.36384e-08
2.26256e-05
1.36715e-08
2.26282e-05
1.37042e-08
2.26307e-05
1.37364e-08
2.26333e-05
1.37682e-08
2.26358e-05
1.37994e-08
2.26385e-05
1.38301e-08
2.26411e-05
1.38602e-08
2.26437e-05
1.38898e-08
2.26464e-05
1.39188e-08
2.26491e-05
1.39472e-08
2.26518e-05
1.39751e-08
2.26545e-05
1.40024e-08
2.26572e-05
1.40291e-08
2.266e-05
1.40552e-08
2.26628e-05
1.40807e-08
2.26656e-05
1.41055e-08
2.26684e-05
1.41297e-08
2.26713e-05
1.41533e-08
2.26741e-05
1.41762e-08
2.2677e-05
1.41986e-08
2.26799e-05
1.42203e-08
2.26828e-05
1.42415e-08
2.26858e-05
1.42622e-08
2.26887e-05
1.42823e-08
2.26917e-05
1.4302e-08
2.26947e-05
1.43213e-08
2.26977e-05
1.43402e-08
2.27008e-05
1.43589e-08
2.27038e-05
1.43774e-08
2.27069e-05
1.43959e-08
2.271e-05
1.44143e-08
2.27131e-05
1.4433e-08
2.27163e-05
1.44519e-08
2.27194e-05
1.44712e-08
2.27226e-05
1.44911e-08
2.27258e-05
1.45118e-08
2.2729e-05
1.45334e-08
2.27323e-05
1.45563e-08
2.27355e-05
1.45806e-08
2.27388e-05
1.46068e-08
2.27421e-05
1.46352e-08
2.27454e-05
1.46663e-08
2.27487e-05
1.47005e-08
2.2752e-05
1.47385e-08
2.27554e-05
1.47809e-08
2.27587e-05
1.48285e-08
2.27621e-05
1.48822e-08
2.27655e-05
1.4943e-08
2.27689e-05
1.50119e-08
2.27724e-05
1.50904e-08
2.27758e-05
1.51798e-08
2.27793e-05
1.52818e-08
2.27827e-05
1.53984e-08
2.27862e-05
1.55315e-08
2.27897e-05
1.56837e-08
2.27931e-05
1.58576e-08
2.27966e-05
1.60562e-08
2.28001e-05
1.62831e-08
2.28036e-05
1.65422e-08
2.2807e-05
1.68378e-08
2.28105e-05
1.71751e-08
2.2814e-05
1.75597e-08
2.28174e-05
1.7998e-08
2.28208e-05
1.84972e-08
2.28242e-05
1.90655e-08
2.28275e-05
1.97122e-08
2.28308e-05
2.04476e-08
2.2834e-05
2.12834e-08
2.28372e-05
2.22328e-08
2.28403e-05
2.33109e-08
2.28433e-05
2.45342e-08
2.28463e-05
2.59219e-08
2.28491e-05
2.74952e-08
2.28519e-05
2.92784e-08
2.28545e-05
3.12985e-08
2.2857e-05
3.35863e-08
2.28593e-05
3.61765e-08
2.28615e-05
3.91082e-08
2.28635e-05
4.24256e-08
2.28653e-05
4.61783e-08
2.2867e-05
5.04227e-08
2.28684e-05
5.52223e-08
2.28696e-05
6.06486e-08
2.28707e-05
6.67825e-08
2.28715e-05
7.37156e-08
2.28722e-05
8.15509e-08
2.28728e-05
9.0405e-08
2.28732e-05
1.0041e-07
2.28737e-05
1.11713e-07
2.28742e-05
1.24483e-07
2.28749e-05
1.3891e-07
2.2876e-05
1.55206e-07
2.28776e-05
1.73612e-07
2.28801e-05
1.944e-07
2.28838e-05
2.17876e-07
2.28891e-05
2.44385e-07
2.28964e-05
2.74315e-07
2.29063e-05
3.08102e-07
2.29195e-05
3.46237e-07
2.29367e-05
3.89267e-07
2.29585e-05
4.37804e-07
2.29857e-05
4.92527e-07
2.30189e-05
5.54185e-07
2.30585e-05
6.2359e-07
2.31046e-05
7.01618e-07
2.31568e-05
7.89182e-07
2.3214e-05
8.87215e-07
2.32741e-05
9.96619e-07
2.33336e-05
1.1182e-06
2.33876e-05
1.25259e-06
2.34293e-05
1.40012e-06
2.34495e-05
1.56068e-06
2.34368e-05
1.7336e-06
2.3377e-05
1.91751e-06
2.32535e-05
2.11016e-06
2.30466e-05
2.30837e-06
2.27325e-05
2.50821e-06
2.22775e-05
2.70567e-06
2.16386e-05
2.89758e-06
2.07187e-05
3.08462e-06
1.94396e-05
3.27205e-06
1.77882e-05
3.48392e-06
1.56463e-05
3.76442e-06
1.28052e-05
4.0816e-06
1.01165e-05
4.85464e-06
6.92921e-06
4.09493e-06
4.12283e-06
3.07047e-06
1.71061e-06
2.7297e-06
1.22426e-06
6.66403e-07
1.14308e-06
1.45339e-07
8.96042e-07
3.05017e-07
7.28125e-07
2.30161e-07
6.6634e-07
9.54549e-08
6.75694e-07
-3.30672e-09
6.39146e-07
4.39602e-08
5.6347e-07
9.94192e-08
5.31095e-07
5.27147e-08
5.13143e-07
2.91233e-08
4.9797e-07
1.95908e-08
4.84242e-07
1.36225e-08
4.70846e-07
1.22059e-08
4.61166e-07
8.30059e-09
4.66433e-07
-1.14735e-08
4.79723e-07
-2.56608e-08
4.9966e-07
-3.57897e-08
5.27544e-07
-4.30437e-08
5.65756e-07
-5.00643e-08
6.05605e-07
-4.93405e-08
6.55697e-07
-6.49362e-08
6.84851e-07
-4.99804e-08
7.08836e-07
-4.91636e-08
7.34013e-07
-5.37253e-08
7.64781e-07
-6.01184e-08
7.98907e-07
-5.95443e-08
8.29677e-07
-4.89751e-08
8.53729e-07
-3.46175e-08
8.6913e-07
-1.85112e-08
8.73423e-07
4.69247e-10
8.6283e-07
2.79128e-08
8.32007e-07
6.29092e-08
8.0335e-07
5.95108e-08
7.94832e-07
2.37769e-08
8.10041e-07
-1.48852e-08
8.32138e-07
-3.12445e-08
8.37404e-07
-1.7736e-08
8.29589e-07
-2.90968e-09
8.11154e-07
2.05164e-08
7.92633e-07
3.49509e-08
7.79563e-07
2.8903e-08
7.68755e-07
2.30174e-08
7.42967e-07
4.04732e-08
7.02626e-07
6.00681e-08
6.68912e-07
5.53023e-08
6.40422e-07
5.10075e-08
5.95497e-07
7.40925e-08
5.53727e-07
7.81158e-08
5.21947e-07
6.53228e-08
4.96694e-07
5.11385e-08
4.78957e-07
3.61592e-08
4.67001e-07
2.50872e-08
4.4671e-07
3.3282e-08
4.22665e-07
3.70503e-08
4.0304e-07
2.95422e-08
3.89784e-07
1.86776e-08
3.81243e-07
1.00933e-08
3.62437e-07
1.87599e-08
3.44372e-07
1.90704e-08
1.55457e-08
2.25057e-05
3.23218e-10
2.25077e-05
1.968e-09
2.2509e-05
3.56025e-09
2.25099e-05
4.64292e-09
2.25108e-05
5.3456e-09
2.2512e-05
5.91223e-09
2.25134e-05
6.46805e-09
2.25149e-05
7.00653e-09
2.25163e-05
7.48408e-09
2.25177e-05
7.89183e-09
2.25191e-05
8.24621e-09
2.25204e-05
8.563e-09
2.25218e-05
8.84728e-09
2.25232e-05
9.09989e-09
2.25245e-05
9.3236e-09
2.25258e-05
9.52298e-09
2.25272e-05
9.70198e-09
2.25285e-05
9.86326e-09
2.25298e-05
1.0009e-08
2.25311e-05
1.01413e-08
2.25324e-05
1.02622e-08
2.25336e-05
1.03733e-08
2.25349e-05
1.04757e-08
2.25362e-05
1.05707e-08
2.25375e-05
1.06588e-08
2.25388e-05
1.07408e-08
2.25401e-05
1.08172e-08
2.25413e-05
1.08887e-08
2.25426e-05
1.09558e-08
2.25439e-05
1.10191e-08
2.25452e-05
1.1079e-08
2.25465e-05
1.11357e-08
2.25478e-05
1.11896e-08
2.25491e-05
1.1241e-08
2.25504e-05
1.12903e-08
2.25517e-05
1.13377e-08
2.2553e-05
1.13835e-08
2.25543e-05
1.14277e-08
2.25556e-05
1.14704e-08
2.25569e-05
1.15117e-08
2.25582e-05
1.15518e-08
2.25595e-05
1.15909e-08
2.25608e-05
1.1629e-08
2.25622e-05
1.16662e-08
2.25635e-05
1.17025e-08
2.25648e-05
1.1738e-08
2.25662e-05
1.17727e-08
2.25675e-05
1.18067e-08
2.25688e-05
1.18401e-08
2.25702e-05
1.18729e-08
2.25715e-05
1.19052e-08
2.25729e-05
1.19371e-08
2.25742e-05
1.19684e-08
2.25756e-05
1.19994e-08
2.2577e-05
1.20301e-08
2.25784e-05
1.20605e-08
2.25797e-05
1.20907e-08
2.25811e-05
1.21206e-08
2.25825e-05
1.21503e-08
2.25839e-05
1.21798e-08
2.25853e-05
1.22089e-08
2.25867e-05
1.22378e-08
2.25881e-05
1.22662e-08
2.25895e-05
1.22941e-08
2.25909e-05
1.23216e-08
2.25923e-05
1.23486e-08
2.25938e-05
1.2375e-08
2.25952e-05
1.24009e-08
2.25966e-05
1.24261e-08
2.25981e-05
1.24508e-08
2.25995e-05
1.24748e-08
2.2601e-05
1.24981e-08
2.26024e-05
1.25209e-08
2.26039e-05
1.25429e-08
2.26053e-05
1.25642e-08
2.26068e-05
1.25848e-08
2.26083e-05
1.26048e-08
2.26098e-05
1.26239e-08
2.26112e-05
1.26424e-08
2.26127e-05
1.26602e-08
2.26142e-05
1.26772e-08
2.26157e-05
1.26935e-08
2.26173e-05
1.27092e-08
2.26188e-05
1.27241e-08
2.26203e-05
1.27384e-08
2.26218e-05
1.27521e-08
2.26234e-05
1.27652e-08
2.26249e-05
1.27777e-08
2.26265e-05
1.27898e-08
2.2628e-05
1.28015e-08
2.26296e-05
1.28129e-08
2.26312e-05
1.2824e-08
2.26327e-05
1.28351e-08
2.26343e-05
1.28461e-08
2.26359e-05
1.28573e-08
2.26375e-05
1.28689e-08
2.26391e-05
1.28809e-08
2.26407e-05
1.28936e-08
2.26424e-05
1.29074e-08
2.2644e-05
1.29223e-08
2.26456e-05
1.29388e-08
2.26473e-05
1.29573e-08
2.2649e-05
1.2978e-08
2.26506e-05
1.30017e-08
2.26523e-05
1.30287e-08
2.2654e-05
1.30599e-08
2.26557e-05
1.30958e-08
2.26573e-05
1.31375e-08
2.2659e-05
1.31858e-08
2.26607e-05
1.32419e-08
2.26624e-05
1.33071e-08
2.26642e-05
1.33829e-08
2.26659e-05
1.34708e-08
2.26676e-05
1.35728e-08
2.26693e-05
1.36909e-08
2.2671e-05
1.38276e-08
2.26727e-05
1.39856e-08
2.26744e-05
1.41678e-08
2.2676e-05
1.43778e-08
2.26777e-05
1.46194e-08
2.26794e-05
1.48971e-08
2.2681e-05
1.52158e-08
2.26826e-05
1.55812e-08
2.26841e-05
1.59995e-08
2.26857e-05
1.6478e-08
2.26871e-05
1.70246e-08
2.26885e-05
1.76485e-08
2.26899e-05
1.83599e-08
2.26912e-05
1.91703e-08
2.26924e-05
2.00928e-08
2.26935e-05
2.11419e-08
2.26944e-05
2.2334e-08
2.26953e-05
2.36876e-08
2.2696e-05
2.52235e-08
2.26965e-05
2.6965e-08
2.26968e-05
2.89384e-08
2.2697e-05
3.11731e-08
2.26969e-05
3.37022e-08
2.26965e-05
3.6563e-08
2.26958e-05
3.97972e-08
2.26948e-05
4.34516e-08
2.26934e-05
4.75789e-08
2.26915e-05
5.22381e-08
2.26893e-05
5.74951e-08
2.26865e-05
6.34241e-08
2.26832e-05
7.01079e-08
2.26792e-05
7.7639e-08
2.26747e-05
8.61209e-08
2.26694e-05
9.56691e-08
2.26634e-05
1.06412e-07
2.26566e-05
1.18494e-07
2.2649e-05
1.32074e-07
2.26406e-05
1.47328e-07
2.26314e-05
1.64452e-07
2.26213e-05
1.83662e-07
2.26105e-05
2.05196e-07
2.25991e-05
2.29315e-07
2.25872e-05
2.56305e-07
2.2575e-05
2.86477e-07
2.25629e-05
3.20171e-07
2.25514e-05
3.57752e-07
2.25411e-05
3.99614e-07
2.25327e-05
4.46183e-07
2.25273e-05
4.97912e-07
2.25262e-05
5.55288e-07
2.2531e-05
6.18832e-07
2.25435e-05
6.89102e-07
2.2566e-05
7.66702e-07
2.26009e-05
8.52288e-07
2.26509e-05
9.46581e-07
2.27188e-05
1.05038e-06
2.28068e-05
1.16456e-06
2.29168e-05
1.29012e-06
2.30493e-05
1.42816e-06
2.3203e-05
1.57987e-06
2.33739e-05
1.7466e-06
2.35543e-05
1.9298e-06
2.37315e-05
2.13119e-06
2.38869e-05
2.35274e-06
2.39956e-05
2.59698e-06
2.40268e-05
2.86644e-06
2.39472e-05
3.16422e-06
2.37229e-05
3.49636e-06
2.33352e-05
3.8716e-06
2.27864e-05
4.31316e-06
2.20687e-05
4.79935e-06
2.1519e-05
5.40436e-06
1.9761e-05
5.85291e-06
1.66229e-05
6.20856e-06
1.24781e-05
6.8745e-06
8.13577e-06
5.00872e-06
4.78732e-06
3.49379e-06
2.43966e-06
2.65267e-06
1.46118e-06
1.20864e-06
1.31265e-06
2.43988e-07
1.27798e-06
3.13589e-08
1.08091e-06
2.41036e-07
8.24994e-07
3.55333e-07
7.03882e-07
1.73827e-07
6.2852e-07
1.04485e-07
5.63797e-07
8.43144e-08
5.14738e-07
6.26813e-08
5.13371e-07
1.35727e-08
5.09033e-07
1.2639e-08
4.8766e-07
9.89927e-09
4.63937e-07
-1.93753e-09
4.32947e-07
-4.80044e-09
4.21918e-07
-3.20139e-08
4.78503e-07
-1.06649e-07
6.28328e-07
-1.99165e-07
8.04445e-07
-2.41054e-07
8.05221e-07
-5.07564e-08
8.4235e-07
-8.62921e-08
8.83567e-07
-9.49421e-08
9.24617e-07
-1.01169e-07
9.70375e-07
-1.05302e-07
1.02272e-06
-1.0132e-07
1.07451e-06
-8.64045e-08
1.1313e-06
-7.5309e-08
1.20715e-06
-7.53741e-08
1.28411e-06
-4.90546e-08
1.23873e-06
1.08294e-07
1.19741e-06
1.00832e-07
1.1919e-06
2.92874e-08
1.2211e-06
-4.40841e-08
1.26461e-06
-7.47595e-08
1.2797e-06
-3.28219e-08
1.27104e-06
5.74732e-09
1.26144e-06
3.01146e-08
1.26042e-06
3.59696e-08
1.26254e-06
2.67847e-08
1.26576e-06
1.9796e-08
1.20046e-06
1.05777e-07
1.11657e-06
1.43959e-07
1.04054e-06
1.31332e-07
9.74834e-07
1.16714e-07
9.2252e-07
1.26407e-07
8.88798e-07
1.11837e-07
8.65865e-07
8.82557e-08
8.21513e-07
9.54907e-08
7.79101e-07
7.85718e-08
7.48176e-07
5.60118e-08
7.29851e-07
5.16073e-08
7.31975e-07
3.49261e-08
7.52917e-07
8.60057e-09
7.29304e-07
4.22903e-08
6.72046e-07
6.73514e-08
5.33208e-07
1.57598e-07
4.49184e-07
1.03094e-07
4.61176e-08
2.25049e-05
6.1744e-10
2.25047e-05
2.2518e-09
2.25051e-05
3.15714e-09
2.25061e-05
3.62892e-09
2.25073e-05
4.13511e-09
2.25085e-05
4.71426e-09
2.25097e-05
5.27355e-09
2.25109e-05
5.76392e-09
2.25122e-05
6.18799e-09
2.25135e-05
6.56223e-09
2.25149e-05
6.89932e-09
2.25163e-05
7.20473e-09
2.25176e-05
7.48002e-09
2.2519e-05
7.72667e-09
2.25204e-05
7.94751e-09
2.25217e-05
8.14594e-09
2.25231e-05
8.3249e-09
2.25245e-05
8.48669e-09
2.25259e-05
8.6333e-09
2.25272e-05
8.76664e-09
2.25286e-05
8.88852e-09
2.253e-05
9.00049e-09
2.25314e-05
9.10372e-09
2.25327e-05
9.19905e-09
2.25341e-05
9.28724e-09
2.25355e-05
9.36902e-09
2.25369e-05
9.44514e-09
2.25382e-05
9.51621e-09
2.25396e-05
9.58274e-09
2.2541e-05
9.64508e-09
2.25423e-05
9.70362e-09
2.25437e-05
9.75877e-09
2.25451e-05
9.81095e-09
2.25465e-05
9.86054e-09
2.25479e-05
9.90781e-09
2.25493e-05
9.95296e-09
2.25506e-05
9.99616e-09
2.2552e-05
1.00376e-08
2.25534e-05
1.00774e-08
2.25548e-05
1.01159e-08
2.25562e-05
1.01531e-08
2.25576e-05
1.01891e-08
2.2559e-05
1.02241e-08
2.25604e-05
1.02582e-08
2.25618e-05
1.02913e-08
2.25633e-05
1.03236e-08
2.25647e-05
1.03551e-08
2.25661e-05
1.0386e-08
2.25675e-05
1.04163e-08
2.25689e-05
1.0446e-08
2.25704e-05
1.04752e-08
2.25718e-05
1.05039e-08
2.25732e-05
1.05322e-08
2.25747e-05
1.056e-08
2.25761e-05
1.05875e-08
2.25776e-05
1.06145e-08
2.2579e-05
1.06412e-08
2.25805e-05
1.06675e-08
2.25819e-05
1.06935e-08
2.25834e-05
1.0719e-08
2.25849e-05
1.07442e-08
2.25863e-05
1.07688e-08
2.25878e-05
1.0793e-08
2.25893e-05
1.08166e-08
2.25908e-05
1.08397e-08
2.25922e-05
1.08622e-08
2.25937e-05
1.08841e-08
2.25952e-05
1.09054e-08
2.25967e-05
1.0926e-08
2.25982e-05
1.0946e-08
2.25997e-05
1.09653e-08
2.26013e-05
1.09839e-08
2.26028e-05
1.10018e-08
2.26043e-05
1.10189e-08
2.26058e-05
1.10353e-08
2.26074e-05
1.1051e-08
2.26089e-05
1.10659e-08
2.26105e-05
1.108e-08
2.2612e-05
1.10933e-08
2.26136e-05
1.11058e-08
2.26151e-05
1.11175e-08
2.26167e-05
1.11284e-08
2.26182e-05
1.11386e-08
2.26198e-05
1.11479e-08
2.26214e-05
1.11565e-08
2.2623e-05
1.11643e-08
2.26246e-05
1.11715e-08
2.26262e-05
1.1178e-08
2.26278e-05
1.11839e-08
2.26294e-05
1.11892e-08
2.2631e-05
1.11941e-08
2.26327e-05
1.11985e-08
2.26343e-05
1.12027e-08
2.26359e-05
1.12068e-08
2.26376e-05
1.12108e-08
2.26392e-05
1.12149e-08
2.26409e-05
1.12193e-08
2.26426e-05
1.12243e-08
2.26442e-05
1.123e-08
2.26459e-05
1.12369e-08
2.26476e-05
1.12451e-08
2.26493e-05
1.12551e-08
2.2651e-05
1.12673e-08
2.26527e-05
1.12823e-08
2.26545e-05
1.13006e-08
2.26562e-05
1.13229e-08
2.2658e-05
1.13501e-08
2.26597e-05
1.1383e-08
2.26615e-05
1.14226e-08
2.26632e-05
1.14702e-08
2.2665e-05
1.15271e-08
2.26668e-05
1.15947e-08
2.26686e-05
1.16749e-08
2.26704e-05
1.17695e-08
2.26722e-05
1.18808e-08
2.2674e-05
1.20112e-08
2.26759e-05
1.21637e-08
2.26777e-05
1.23413e-08
2.26795e-05
1.25478e-08
2.26813e-05
1.27872e-08
2.26832e-05
1.30642e-08
2.2685e-05
1.3384e-08
2.26868e-05
1.37525e-08
2.26887e-05
1.41763e-08
2.26905e-05
1.4663e-08
2.26923e-05
1.52209e-08
2.26941e-05
1.58596e-08
2.26958e-05
1.65898e-08
2.26976e-05
1.74235e-08
2.26993e-05
1.83741e-08
2.2701e-05
1.9457e-08
2.27026e-05
2.06891e-08
2.27042e-05
2.20895e-08
2.27058e-05
2.36799e-08
2.27073e-05
2.54842e-08
2.27087e-05
2.75296e-08
2.271e-05
2.98463e-08
2.27112e-05
3.24682e-08
2.27124e-05
3.54333e-08
2.27134e-05
3.87842e-08
2.27143e-05
4.25683e-08
2.2715e-05
4.68388e-08
2.27156e-05
5.16548e-08
2.2716e-05
5.70826e-08
2.27162e-05
6.31959e-08
2.27163e-05
7.00767e-08
2.27161e-05
7.78164e-08
2.27157e-05
8.65166e-08
2.27151e-05
9.62896e-08
2.27142e-05
1.0726e-07
2.27131e-05
1.19567e-07
2.27119e-05
1.33361e-07
2.27104e-05
1.4881e-07
2.27087e-05
1.661e-07
2.2707e-05
1.85431e-07
2.27051e-05
2.07024e-07
2.27033e-05
2.3112e-07
2.27016e-05
2.57979e-07
2.27002e-05
2.87882e-07
2.26993e-05
3.21131e-07
2.2699e-05
3.58049e-07
2.26996e-05
3.98979e-07
2.27015e-05
4.44282e-07
2.27051e-05
4.94339e-07
2.27108e-05
5.49542e-07
2.27194e-05
6.10299e-07
2.27314e-05
6.77028e-07
2.2748e-05
7.50156e-07
2.27702e-05
8.30122e-07
2.27994e-05
9.17378e-07
2.28373e-05
1.0124e-06
2.28862e-05
1.11572e-06
2.29484e-05
1.22794e-06
2.30268e-05
1.34976e-06
2.31245e-05
1.48212e-06
2.32449e-05
1.62619e-06
2.33912e-05
1.78355e-06
2.35661e-05
1.95626e-06
2.37718e-05
2.147e-06
2.40097e-05
2.35911e-06
2.42793e-05
2.5968e-06
2.45784e-05
2.86514e-06
2.49038e-05
3.171e-06
2.52546e-05
3.52083e-06
2.56445e-05
3.92325e-06
2.6063e-05
4.38087e-06
2.65764e-05
4.89094e-06
2.69597e-05
5.46956e-06
2.71771e-05
5.99115e-06
2.75086e-05
6.54308e-06
2.58695e-05
6.64775e-06
2.27226e-05
6.64071e-06
1.86029e-05
6.77235e-06
1.40619e-05
5.74964e-06
1.00902e-05
4.21567e-06
6.99657e-06
3.12503e-06
4.72673e-06
2.51088e-06
2.95663e-06
2.12543e-06
1.48817e-06
1.64229e-06
3.29049e-07
1.2636e-06
-6.26735e-07
1.0401e-06
-1.41656e-06
8.52509e-07
-2.04613e-06
6.43138e-07
-2.52139e-06
4.87905e-07
-2.84681e-06
3.35316e-07
-3.00972e-06
1.60971e-07
-3.04572e-06
3.11992e-08
-2.86592e-06
-2.11815e-07
-2.43312e-06
-5.39451e-07
-1.7272e-06
-9.05076e-07
-7.51668e-07
-1.21659e-06
1.96874e-07
-9.99298e-07
7.4139e-07
-6.30808e-07
9.49205e-07
-3.02757e-07
9.84823e-07
-1.36787e-07
9.58853e-07
-7.93325e-08
9.35826e-07
-7.82926e-08
9.60986e-07
-1.11564e-07
1.01081e-06
-1.25134e-07
1.20915e-06