/*--------------------------------*- C++ -*----------------------------------*\
| =========                 |                                                 |
| \\      /  F ield         | OpenFOAM: The Open Source CFD Toolbox           |
|  \\    /   O peration     | Version:  2406                                  |
|   \\  /    A nd           | Website:  www.openfoam.com                      |
|    \\/     M anipulation  |                                                 |
\*---------------------------------------------------------------------------*/
FoamFile
{
    version     2.0;
    format      ascii;
    arch        "LSB;label=32;scalar=64";
    class       volVectorField;
    location    "0.3";
    object      U;
}
// * * * * * * * * * * * * * * * * * * * * * * * * * * * * * * * * * * * * * //

dimensions      [0 1 -1 0 0 0 0];

internalField   nonuniform List<vector> 
6250
(
(37.9254 0.0132969 0)
(41.6322 0.0484774 0)
(26.9965 0.0584798 0)
(23.6947 0.0546486 0)
(27.0073 0.0534221 0)
(28.8961 0.05741 0)
(28.5511 0.0622402 0)
(27.8541 0.0651181 0)
(27.6704 0.0666746 0)
(27.7791 0.0681038 0)
(27.8461 0.069676 0)
(27.8111 0.0711379 0)
(27.7491 0.0723406 0)
(27.7067 0.073337 0)
(27.6795 0.0742184 0)
(27.6522 0.0750222 0)
(27.6202 0.075749 0)
(27.5863 0.0763961 0)
(27.5529 0.0769674 0)
(27.5202 0.0774678 0)
(27.4876 0.0779015 0)
(27.4546 0.0782736 0)
(27.4215 0.0785916 0)
(27.3884 0.0788643 0)
(27.3553 0.0791007 0)
(27.3221 0.0793079 0)
(27.289 0.0794915 0)
(27.2557 0.0796555 0)
(27.2225 0.0798027 0)
(27.1893 0.0799351 0)
(27.156 0.0800538 0)
(27.1227 0.0801596 0)
(27.0894 0.0802523 0)
(27.0561 0.0803317 0)
(27.0228 0.0803977 0)
(26.9895 0.0804504 0)
(26.9561 0.08049 0)
(26.9228 0.0805165 0)
(26.8894 0.0805295 0)
(26.8561 0.0805288 0)
(26.8228 0.0805138 0)
(26.7894 0.0804845 0)
(26.7561 0.080441 0)
(26.7228 0.0803841 0)
(26.6896 0.0803142 0)
(26.6563 0.080232 0)
(26.6231 0.0801384 0)
(26.5899 0.0800343 0)
(26.5567 0.0799208 0)
(26.5235 0.0797994 0)
(26.4904 0.0796719 0)
(26.4573 0.0795398 0)
(26.4242 0.0794049 0)
(26.3912 0.0792683 0)
(26.3582 0.079131 0)
(26.3252 0.0789938 0)
(26.2922 0.0788572 0)
(26.2593 0.0787214 0)
(26.2264 0.0785867 0)
(26.1934 0.0784529 0)
(26.1606 0.0783199 0)
(26.1277 0.0781873 0)
(26.0948 0.0780549 0)
(26.062 0.0779223 0)
(26.0292 0.0777892 0)
(25.9964 0.0776555 0)
(25.9636 0.0775208 0)
(25.9308 0.0773852 0)
(25.8981 0.0772482 0)
(25.8653 0.0771099 0)
(25.8326 0.0769701 0)
(25.7999 0.0768286 0)
(25.7672 0.0766855 0)
(25.7346 0.0765409 0)
(25.7019 0.0763948 0)
(25.6693 0.0762475 0)
(25.6367 0.0760989 0)
(25.6042 0.0759492 0)
(25.5716 0.0757982 0)
(25.5391 0.0756458 0)
(25.5066 0.075492 0)
(25.4741 0.0753365 0)
(25.4416 0.0751792 0)
(25.4092 0.0750201 0)
(25.3768 0.0748588 0)
(25.3444 0.0746953 0)
(25.312 0.0745293 0)
(25.2797 0.0743606 0)
(25.2474 0.0741892 0)
(25.2151 0.0740152 0)
(25.1829 0.0738389 0)
(25.1507 0.0736608 0)
(25.1185 0.0734816 0)
(25.0864 0.073302 0)
(25.0543 0.073123 0)
(25.0222 0.0729452 0)
(24.9901 0.0727694 0)
(24.9581 0.0725963 0)
(24.9261 0.0724264 0)
(24.8941 0.0722605 0)
(24.8621 0.072099 0)
(24.8302 0.0719427 0)
(24.7982 0.0717923 0)
(24.7663 0.0716485 0)
(24.7344 0.0715123 0)
(24.7025 0.0713844 0)
(24.6706 0.071266 0)
(24.6387 0.0711582 0)
(24.6067 0.0710621 0)
(24.5748 0.0709795 0)
(24.5428 0.0709119 0)
(24.5108 0.0708615 0)
(24.4787 0.0708308 0)
(24.4466 0.0708224 0)
(24.4143 0.0708397 0)
(24.382 0.0708862 0)
(24.3496 0.0709657 0)
(24.317 0.0710828 0)
(24.2842 0.0712422 0)
(24.2513 0.0714494 0)
(24.2181 0.0717105 0)
(24.1847 0.0720323 0)
(24.151 0.072423 0)
(24.1169 0.0728916 0)
(24.0824 0.0734486 0)
(24.0475 0.0741062 0)
(24.012 0.0748783 0)
(23.9759 0.0757812 0)
(23.9392 0.0768329 0)
(23.9016 0.0780542 0)
(23.8631 0.0794686 0)
(23.8236 0.0811026 0)
(23.7828 0.0829856 0)
(23.7408 0.085151 0)
(23.6971 0.0876359 0)
(23.6518 0.090482 0)
(23.6044 0.093736 0)
(23.5547 0.0974504 0)
(23.5025 0.101684 0)
(23.4473 0.106504 0)
(23.3888 0.111984 0)
(23.3266 0.118209 0)
(23.26 0.125275 0)
(23.1887 0.133288 0)
(23.1118 0.14237 0)
(23.0288 0.152655 0)
(22.9387 0.164295 0)
(22.8406 0.17746 0)
(22.7335 0.192339 0)
(22.6163 0.20914 0)
(22.4875 0.228095 0)
(22.3457 0.249459 0)
(22.1892 0.273509 0)
(22.0161 0.300547 0)
(21.8243 0.330892 0)
(21.6114 0.364881 0)
(21.3748 0.402865 0)
(21.1116 0.445194 0)
(20.8186 0.49221 0)
(20.4922 0.544227 0)
(20.1286 0.601509 0)
(19.7238 0.664241 0)
(19.2733 0.732487 0)
(18.7726 0.806149 0)
(18.2169 0.884903 0)
(17.6014 0.968131 0)
(16.9217 1.05484 0)
(16.1733 1.14355 0)
(15.3528 1.23218 0)
(14.457 1.3179 0)
(13.4843 1.39715 0)
(12.4342 1.46561 0)
(11.3085 1.51818 0)
(10.1113 1.54907 0)
(8.84952 1.55196 0)
(7.5336 1.52039 0)
(6.17684 1.44866 0)
(4.79843 1.3339 0)
(3.41245 1.18251 0)
(2.08421 1.04789 0)
(0.714603 1.23739 0)
(-1.0535 -0.0807557 0)
(-1.78962 -2.58156 0)
(-0.920663 -4.60157 0)
(-2.68713 -6.54723 0)
(3.04758 -7.26373 0)
(0.777876 0.96198 0)
(0.519355 0.528718 0)
(0.420278 0.193746 0)
(0.338025 0.0503021 0)
(0.274542 0.0243123 0)
(0.231079 0.00800782 0)
(0.209153 0.00177513 0)
(0.19596 0.00144212 0)
(0.186266 -0.00328531 0)
(0.183675 -0.00776548 0)
(0.184967 -0.00561229 0)
(0.18381 -0.000343345 0)
(0.17918 0.00117762 0)
(0.174694 -0.000239817 0)
(0.172619 -0.00184049 0)
(0.172414 -0.00240613 0)
(0.172959 -0.00142002 0)
(0.173755 0.000291634 0)
(0.175007 0.00126889 0)
(0.177426 0.00169722 0)
(0.180845 0.00257728 0)
(0.184057 0.00438197 0)
(0.186035 0.00637177 0)
(0.187097 0.00695168 0)
(0.188976 0.00494905 0)
(0.193132 0.00172387 0)
(0.199954 -0.00138355 0)
(0.20931 -0.00374495 0)
(0.220124 -0.00493633 0)
(0.230421 -0.00481987 0)
(0.238324 -0.00408723 0)
(0.242863 -0.00344893 0)
(0.2438 -0.00265491 0)
(0.241379 -0.000815127 0)
(0.235022 0.00313875 0)
(0.224873 0.00749169 0)
(0.212956 0.00788173 0)
(0.20485 0.00438773 0)
(0.203512 -0.000712141 0)
(0.207981 -0.0052914 0)
(0.214998 -0.00828779 0)
(0.221434 -0.00817102 0)
(0.224461 -0.00372574 0)
(0.222731 0.00143017 0)
(0.218616 0.00265738 0)
(0.214889 0.00109059 0)
(0.211424 -0.00039842 0)
(0.20707 -0.000869656 0)
(0.201027 -0.000878993 0)
(0.193611 -0.00014149 0)
(0.18393 0.00209092 0)
(0.171671 0.00457562 0)
(0.158564 0.00490098 0)
(0.147524 0.00356913 0)
(0.140354 0.0018047 0)
(0.136198 8.68403e-05 0)
(0.13318 -0.000261735 0)
(0.129611 6.6477e-05 0)
(0.126558 -0.000729896 0)
(0.12558 -0.00215312 0)
(0.126864 -0.00322442 0)
(0.129178 -0.00321467 0)
(0.130607 -0.00192375 0)
(0.130665 -0.000489103 0)
(37.9563 0.00970869 0)
(41.7427 0.0365384 0)
(27.1626 0.0466361 0)
(23.8813 0.0433185 0)
(27.2167 0.0411624 0)
(29.148 0.0438505 0)
(28.8545 0.0475216 0)
(28.2069 0.0493379 0)
(28.069 0.049796 0)
(28.223 0.0501411 0)
(28.3368 0.050719 0)
(28.35 0.0512792 0)
(28.3366 0.051645 0)
(28.3428 0.0518576 0)
(28.3643 0.0520094 0)
(28.3857 0.0521369 0)
(28.4027 0.0522361 0)
(28.4178 0.0523029 0)
(28.4336 0.0523437 0)
(28.4501 0.0523671 0)
(28.4666 0.0523784 0)
(28.4829 0.0523802 0)
(28.499 0.0523752 0)
(28.515 0.0523665 0)
(28.5309 0.0523567 0)
(28.5468 0.0523475 0)
(28.5626 0.05234 0)
(28.5783 0.0523345 0)
(28.594 0.0523314 0)
(28.6095 0.0523313 0)
(28.625 0.0523343 0)
(28.6404 0.0523401 0)
(28.6557 0.0523481 0)
(28.671 0.0523579 0)
(28.6862 0.0523695 0)
(28.7013 0.052383 0)
(28.7163 0.0523983 0)
(28.7312 0.0524151 0)
(28.7461 0.0524325 0)
(28.7609 0.0524501 0)
(28.7755 0.0524678 0)
(28.7901 0.0524856 0)
(28.8046 0.0525038 0)
(28.8191 0.0525226 0)
(28.8334 0.0525421 0)
(28.8476 0.0525622 0)
(28.8618 0.0525831 0)
(28.8758 0.0526051 0)
(28.8898 0.0526288 0)
(28.9036 0.0526547 0)
(28.9174 0.0526836 0)
(28.931 0.0527158 0)
(28.9446 0.0527519 0)
(28.958 0.0527921 0)
(28.9714 0.0528365 0)
(28.9847 0.0528853 0)
(28.9979 0.0529384 0)
(29.011 0.0529957 0)
(29.024 0.0530567 0)
(29.0369 0.053121 0)
(29.0497 0.053188 0)
(29.0625 0.0532571 0)
(29.0751 0.0533277 0)
(29.0877 0.0533995 0)
(29.1002 0.0534719 0)
(29.1126 0.0535447 0)
(29.125 0.0536176 0)
(29.1372 0.0536905 0)
(29.1494 0.0537631 0)
(29.1615 0.0538354 0)
(29.1735 0.0539072 0)
(29.1855 0.0539784 0)
(29.1973 0.054049 0)
(29.2091 0.054119 0)
(29.2208 0.0541883 0)
(29.2324 0.0542568 0)
(29.244 0.0543247 0)
(29.2554 0.0543918 0)
(29.2668 0.0544582 0)
(29.2781 0.0545238 0)
(29.2894 0.0545886 0)
(29.3005 0.0546526 0)
(29.3116 0.0547158 0)
(29.3226 0.0547782 0)
(29.3335 0.0548396 0)
(29.3444 0.0549002 0)
(29.3552 0.0549599 0)
(29.3659 0.0550188 0)
(29.3765 0.0550771 0)
(29.387 0.0551348 0)
(29.3975 0.0551924 0)
(29.4079 0.0552502 0)
(29.4182 0.0553084 0)
(29.4284 0.0553676 0)
(29.4386 0.0554281 0)
(29.4487 0.0554904 0)
(29.4587 0.0555549 0)
(29.4686 0.0556222 0)
(29.4784 0.0556927 0)
(29.4882 0.0557671 0)
(29.4979 0.0558461 0)
(29.5075 0.0559304 0)
(29.5171 0.056021 0)
(29.5266 0.0561189 0)
(29.536 0.0562252 0)
(29.5454 0.0563414 0)
(29.5546 0.056469 0)
(29.5638 0.0566096 0)
(29.573 0.0567654 0)
(29.5821 0.0569385 0)
(29.5911 0.0571318 0)
(29.6 0.057348 0)
(29.6089 0.0575907 0)
(29.6177 0.0578637 0)
(29.6264 0.0581714 0)
(29.6351 0.0585187 0)
(29.6437 0.0589112 0)
(29.6522 0.0593551 0)
(29.6607 0.0598575 0)
(29.669 0.0604264 0)
(29.6774 0.0610707 0)
(29.6856 0.0618009 0)
(29.6937 0.0626285 0)
(29.7018 0.0635669 0)
(29.7098 0.0646312 0)
(29.7176 0.0658386 0)
(29.7254 0.0672087 0)
(29.7331 0.0687636 0)
(29.7407 0.0705287 0)
(29.7481 0.0725325 0)
(29.7554 0.0748072 0)
(29.7626 0.0773894 0)
(29.7696 0.0803205 0)
(29.7765 0.0836472 0)
(29.7831 0.0874223 0)
(29.7896 0.0917058 0)
(29.7959 0.0965654 0)
(29.8019 0.102078 0)
(29.8076 0.10833 0)
(29.813 0.115422 0)
(29.818 0.123464 0)
(29.8226 0.132583 0)
(29.8267 0.142925 0)
(29.8303 0.154654 0)
(29.8333 0.167956 0)
(29.8355 0.183043 0)
(29.8369 0.200157 0)
(29.8372 0.219572 0)
(29.8364 0.2416 0)
(29.8341 0.266595 0)
(29.8302 0.294959 0)
(29.8243 0.327146 0)
(29.816 0.363673 0)
(29.8048 0.40512 0)
(29.7902 0.45214 0)
(29.7713 0.505468 0)
(29.7474 0.565918 0)
(29.7173 0.634394 0)
(29.6796 0.711882 0)
(29.6327 0.799453 0)
(29.5745 0.898245 0)
(29.5026 1.00945 0)
(29.4141 1.13427 0)
(29.3052 1.27388 0)
(29.1717 1.42938 0)
(29.0085 1.60164 0)
(28.8097 1.79128 0)
(28.5683 1.99846 0)
(28.2762 2.22272 0)
(27.9248 2.46283 0)
(27.5044 2.71656 0)
(27.0046 2.98048 0)
(26.4146 3.24978 0)
(25.7237 3.51805 0)
(24.9212 3.77722 0)
(23.998 4.01749 0)
(22.9465 4.22755 0)
(21.7653 4.39412 0)
(20.4537 4.50498 0)
(19.055 4.53493 0)
(17.5748 4.5208 0)
(16.0629 4.26902 0)
(14.4658 3.72141 0)
(12.3842 3.07336 0)
(9.20372 1.83897 0)
(6.60398 -0.0521469 0)
(1.77289 3.04716 0)
(1.67935 1.37403 0)
(1.3776 0.305887 0)
(0.968006 0.227602 0)
(0.788153 0.217916 0)
(0.703879 0.117789 0)
(0.639626 0.0644545 0)
(0.581739 0.0579529 0)
(0.53344 0.0348534 0)
(0.51244 0.00623635 0)
(0.502702 0.00386762 0)
(0.486603 0.0152539 0)
(0.463762 0.0200609 0)
(0.446675 0.0140528 0)
(0.439362 0.0069364 0)
(0.4377 0.00222814 0)
(0.437174 -0.000552377 0)
(0.437782 -0.00311348 0)
(0.441538 -0.0086416 0)
(0.451165 -0.0152297 0)
(0.465915 -0.018754 0)
(0.482336 -0.0173116 0)
(0.497144 -0.0139762 0)
(0.50923 -0.0136909 0)
(0.522339 -0.020334 0)
(0.540106 -0.0263998 0)
(0.562053 -0.0321641 0)
(0.586877 -0.0371188 0)
(0.613053 -0.0376268 0)
(0.637536 -0.030908 0)
(0.657886 -0.0189971 0)
(0.672145 -0.00553998 0)
(0.68027 0.00776299 0)
(0.683099 0.0202538 0)
(0.671889 0.0318575 0)
(0.649845 0.0383202 0)
(0.621537 0.0317008 0)
(0.598349 0.01192 0)
(0.590234 -0.00912258 0)
(0.594027 -0.0192735 0)
(0.603842 -0.0180978 0)
(0.610665 -0.00994886 0)
(0.61151 0.00269424 0)
(0.602417 0.0111931 0)
(0.587763 0.0119419 0)
(0.572952 0.00912257 0)
(0.559254 0.0136081 0)
(0.542131 0.0236668 0)
(0.522423 0.0310355 0)
(0.502797 0.037336 0)
(0.478973 0.0456089 0)
(0.450259 0.05148 0)
(0.419126 0.0468666 0)
(0.391644 0.0339056 0)
(0.371197 0.0187442 0)
(0.356708 0.0103563 0)
(0.344176 0.0134105 0)
(0.331033 0.0161694 0)
(0.319075 0.0102918 0)
(0.31049 0.00033673 0)
(0.305261 -0.00608232 0)
(0.302509 -0.00492675 0)
(0.300332 -0.00028684 0)
(0.297279 0.00332017 0)
(37.9503 -0.000332733 0)
(41.7071 -0.00159548 0)
(27.0978 -0.000500649 0)
(23.8109 0.00233617 0)
(27.1461 0.00508067 0)
(29.0674 0.00682395 0)
(28.757 0.00793921 0)
(28.0926 0.00894031 0)
(27.9405 0.00989488 0)
(28.0815 0.0107575 0)
(28.1818 0.0115289 0)
(28.1807 0.0122301 0)
(28.1529 0.0128726 0)
(28.1447 0.013465 0)
(28.152 0.0140164 0)
(28.1593 0.0145338 0)
(28.162 0.0150212 0)
(28.163 0.0154829 0)
(28.1646 0.0159241 0)
(28.1671 0.01635 0)
(28.1696 0.016764 0)
(28.1719 0.0171673 0)
(28.1741 0.0175602 0)
(28.1764 0.0179418 0)
(28.1786 0.0183114 0)
(28.1809 0.0186684 0)
(28.1833 0.0190128 0)
(28.1856 0.0193454 0)
(28.1879 0.0196674 0)
(28.1903 0.0199795 0)
(28.1926 0.0202824 0)
(28.195 0.0205766 0)
(28.1974 0.0208632 0)
(28.1998 0.0211433 0)
(28.2023 0.0214179 0)
(28.2047 0.0216877 0)
(28.2072 0.0219529 0)
(28.2098 0.0222133 0)
(28.2123 0.0224693 0)
(28.2149 0.0227215 0)
(28.2174 0.0229705 0)
(28.2201 0.0232169 0)
(28.2227 0.0234609 0)
(28.2254 0.0237023 0)
(28.228 0.0239408 0)
(28.2307 0.0241764 0)
(28.2335 0.0244092 0)
(28.2362 0.0246394 0)
(28.239 0.0248671 0)
(28.2418 0.0250921 0)
(28.2447 0.0253143 0)
(28.2475 0.0255333 0)
(28.2504 0.0257489 0)
(28.2533 0.025961 0)
(28.2562 0.0261697 0)
(28.2592 0.0263751 0)
(28.2621 0.0265772 0)
(28.2651 0.0267761 0)
(28.2681 0.0269718 0)
(28.2712 0.0271642 0)
(28.2743 0.0273534 0)
(28.2773 0.0275393 0)
(28.2805 0.0277222 0)
(28.2836 0.0279021 0)
(28.2868 0.0280792 0)
(28.29 0.0282536 0)
(28.2932 0.0284254 0)
(28.2964 0.0285948 0)
(28.2997 0.0287617 0)
(28.303 0.0289262 0)
(28.3063 0.0290885 0)
(28.3097 0.0292486 0)
(28.313 0.0294065 0)
(28.3164 0.0295623 0)
(28.3198 0.029716 0)
(28.3233 0.0298675 0)
(28.3267 0.0300169 0)
(28.3302 0.0301643 0)
(28.3338 0.0303096 0)
(28.3373 0.030453 0)
(28.3409 0.0305945 0)
(28.3444 0.0307343 0)
(28.3481 0.0308722 0)
(28.3517 0.0310084 0)
(28.3554 0.0311431 0)
(28.3591 0.0312761 0)
(28.3628 0.0314078 0)
(28.3665 0.0315382 0)
(28.3703 0.0316674 0)
(28.3741 0.0317956 0)
(28.3779 0.031923 0)
(28.3817 0.0320497 0)
(28.3856 0.0321759 0)
(28.3895 0.0323018 0)
(28.3934 0.0324275 0)
(28.3973 0.0325535 0)
(28.4013 0.0326799 0)
(28.4053 0.0328072 0)
(28.4093 0.0329359 0)
(28.4133 0.0330666 0)
(28.4173 0.0331999 0)
(28.4214 0.0333367 0)
(28.4255 0.0334777 0)
(28.4296 0.0336241 0)
(28.4338 0.033777 0)
(28.4379 0.0339377 0)
(28.4421 0.0341079 0)
(28.4463 0.0342892 0)
(28.4505 0.0344837 0)
(28.4548 0.0346937 0)
(28.459 0.0349219 0)
(28.4633 0.0351712 0)
(28.4676 0.0354449 0)
(28.4719 0.0357468 0)
(28.4762 0.0360813 0)
(28.4806 0.0364529 0)
(28.4849 0.0368674 0)
(28.4892 0.0373307 0)
(28.4936 0.03785 0)
(28.4979 0.0384332 0)
(28.5023 0.0390894 0)
(28.5066 0.0398287 0)
(28.511 0.0406628 0)
(28.5153 0.041605 0)
(28.5196 0.04267 0)
(28.5239 0.0438746 0)
(28.5281 0.045238 0)
(28.5323 0.0467817 0)
(28.5364 0.0485298 0)
(28.5405 0.05051 0)
(28.5445 0.0527533 0)
(28.5485 0.0552949 0)
(28.5523 0.0581745 0)
(28.556 0.0614372 0)
(28.5597 0.0651341 0)
(28.5631 0.069323 0)
(28.5665 0.0740696 0)
(28.5697 0.0794484 0)
(28.5727 0.0855441 0)
(28.5755 0.0924527 0)
(28.5781 0.100283 0)
(28.5805 0.109161 0)
(28.5827 0.119226 0)
(28.5846 0.130639 0)
(28.5863 0.143585 0)
(28.5877 0.158272 0)
(28.5889 0.174938 0)
(28.5899 0.193856 0)
(28.5906 0.215337 0)
(28.5912 0.239738 0)
(28.5918 0.267466 0)
(28.5923 0.298988 0)
(28.5931 0.334839 0)
(28.5941 0.375631 0)
(28.5958 0.422065 0)
(28.5983 0.474944 0)
(28.602 0.535184 0)
(28.6075 0.603826 0)
(28.6152 0.682053 0)
(28.6258 0.771199 0)
(28.6401 0.872762 0)
(28.6589 0.988406 0)
(28.683 1.11996 0)
(28.7135 1.26941 0)
(28.7511 1.43886 0)
(28.7965 1.63051 0)
(28.8502 1.84653 0)
(28.9119 2.08903 0)
(28.9808 2.35986 0)
(29.0549 2.66047 0)
(29.131 2.99157 0)
(29.2038 3.35287 0)
(29.2662 3.74275 0)
(29.308 4.15789 0)
(29.3165 4.59293 0)
(29.2758 5.04016 0)
(29.1663 5.48918 0)
(28.9654 5.92659 0)
(28.6448 6.33521 0)
(28.1708 6.69224 0)
(27.4935 6.96028 0)
(26.5493 7.09435 0)
(25.2351 7.10159 0)
(23.427 7.09938 0)
(21.1214 7.20431 0)
(18.0549 7.24527 0)
(15.3259 8.74293 0)
(9.66676 4.28825 0)
(7.64931 1.20737 0)
(2.34681 1.35504 0)
(1.70349 0.676113 0)
(1.53838 0.213814 0)
(1.22597 0.201582 0)
(0.987477 0.234024 0)
(0.877166 0.133977 0)
(0.839893 0.0324766 0)
(0.824924 0.0468164 0)
(0.743065 0.110867 0)
(0.682944 0.0843572 0)
(0.651103 0.043287 0)
(0.629604 0.0137693 0)
(0.612539 -0.00346201 0)
(0.596236 -0.00777972 0)
(0.579297 -0.00609101 0)
(0.577564 -0.0227337 0)
(0.590075 -0.0441299 0)
(0.609772 -0.0568374 0)
(0.63835 -0.0544034 0)
(0.679609 -0.041199 0)
(0.731851 -0.0297561 0)
(0.791913 -0.0483844 0)
(0.838705 -0.0784879 0)
(0.872727 -0.0997815 0)
(0.902018 -0.113143 0)
(0.935879 -0.116089 0)
(0.976021 -0.102882 0)
(1.01875 -0.0793401 0)
(1.05472 -0.0542615 0)
(1.0802 -0.0278955 0)
(1.09434 -0.00254851 0)
(1.08877 0.0467022 0)
(1.05993 0.130832 0)
(1.01944 0.133356 0)
(0.99559 0.0727837 0)
(1.00262 0.0126572 0)
(1.02442 -0.0188342 0)
(1.04422 -0.0408425 0)
(1.04553 -0.0481107 0)
(1.02505 0.00308684 0)
(1.00321 0.064088 0)
(0.985895 0.0678608 0)
(0.970686 0.0569667 0)
(0.944962 0.0664823 0)
(0.905286 0.0795885 0)
(0.858187 0.0772549 0)
(0.817133 0.0714339 0)
(0.771724 0.0903367 0)
(0.716836 0.119831 0)
(0.671539 0.11787 0)
(0.63685 0.102456 0)
(0.611045 0.0828885 0)
(0.588561 0.0625965 0)
(0.569214 0.0529605 0)
(0.542953 0.0433941 0)
(0.517661 0.0347285 0)
(0.497133 0.0302443 0)
(0.481702 0.0167804 0)
(0.462855 0.00528352 0)
(0.438872 0.00457522 0)
(0.420822 0.0110177 0)
(37.956 0.00235601 0)
(41.7241 0.0109839 0)
(27.1144 0.0172961 0)
(23.8208 0.020749 0)
(27.1516 0.0228648 0)
(29.0719 0.0246974 0)
(28.7616 0.02662 0)
(28.0968 0.0284819 0)
(27.9439 0.0300793 0)
(28.0839 0.0313887 0)
(28.1834 0.0325017 0)
(28.1816 0.03349 0)
(28.1531 0.034369 0)
(28.1444 0.0351354 0)
(28.1509 0.035797 0)
(28.1576 0.0363705 0)
(28.1597 0.0368703 0)
(28.16 0.0373061 0)
(28.161 0.0376857 0)
(28.1628 0.038017 0)
(28.1647 0.0383072 0)
(28.1663 0.0385623 0)
(28.1679 0.0387865 0)
(28.1694 0.0389832 0)
(28.171 0.0391555 0)
(28.1727 0.0393066 0)
(28.1743 0.0394394 0)
(28.1759 0.0395564 0)
(28.1775 0.0396591 0)
(28.1791 0.0397488 0)
(28.1807 0.0398268 0)
(28.1823 0.0398947 0)
(28.1839 0.0399541 0)
(28.1855 0.0400062 0)
(28.1872 0.0400519 0)
(28.1888 0.0400914 0)
(28.1904 0.0401249 0)
(28.192 0.0401532 0)
(28.1937 0.0401769 0)
(28.1953 0.0401965 0)
(28.1969 0.0402125 0)
(28.1986 0.040225 0)
(28.2002 0.040234 0)
(28.2019 0.0402397 0)
(28.2035 0.0402425 0)
(28.2052 0.0402427 0)
(28.2069 0.0402409 0)
(28.2085 0.0402374 0)
(28.2102 0.0402324 0)
(28.2119 0.0402262 0)
(28.2136 0.0402189 0)
(28.2153 0.0402111 0)
(28.217 0.0402029 0)
(28.2187 0.040195 0)
(28.2204 0.0401877 0)
(28.2221 0.0401814 0)
(28.2238 0.0401761 0)
(28.2255 0.040172 0)
(28.2273 0.0401689 0)
(28.229 0.0401668 0)
(28.2307 0.0401656 0)
(28.2325 0.040165 0)
(28.2342 0.0401648 0)
(28.236 0.0401647 0)
(28.2378 0.0401647 0)
(28.2395 0.0401644 0)
(28.2413 0.0401636 0)
(28.2431 0.0401623 0)
(28.2449 0.0401603 0)
(28.2467 0.0401575 0)
(28.2485 0.0401537 0)
(28.2503 0.040149 0)
(28.2521 0.0401432 0)
(28.2539 0.0401362 0)
(28.2557 0.040128 0)
(28.2576 0.0401186 0)
(28.2594 0.0401078 0)
(28.2613 0.0400956 0)
(28.2631 0.0400821 0)
(28.265 0.0400671 0)
(28.2669 0.0400508 0)
(28.2687 0.040033 0)
(28.2706 0.0400137 0)
(28.2725 0.0399931 0)
(28.2744 0.0399712 0)
(28.2763 0.0399481 0)
(28.2782 0.0399238 0)
(28.2802 0.0398987 0)
(28.2821 0.0398727 0)
(28.284 0.0398463 0)
(28.286 0.0398195 0)
(28.288 0.0397928 0)
(28.2899 0.0397664 0)
(28.2919 0.0397407 0)
(28.2939 0.0397161 0)
(28.2959 0.039693 0)
(28.2979 0.039672 0)
(28.2999 0.0396535 0)
(28.3019 0.0396381 0)
(28.304 0.0396265 0)
(28.306 0.0396195 0)
(28.3081 0.039618 0)
(28.3102 0.0396229 0)
(28.3122 0.0396354 0)
(28.3143 0.039657 0)
(28.3164 0.0396891 0)
(28.3185 0.0397336 0)
(28.3206 0.0397926 0)
(28.3227 0.0398684 0)
(28.3249 0.0399638 0)
(28.327 0.0400818 0)
(28.3291 0.0402259 0)
(28.3313 0.0404001 0)
(28.3334 0.0406088 0)
(28.3355 0.0408572 0)
(28.3377 0.041151 0)
(28.3398 0.0414966 0)
(28.3419 0.0419013 0)
(28.344 0.0423736 0)
(28.3461 0.0429227 0)
(28.3482 0.0435591 0)
(28.3502 0.0442949 0)
(28.3522 0.0451433 0)
(28.3542 0.0461197 0)
(28.3561 0.0472411 0)
(28.358 0.0485269 0)
(28.3598 0.0499987 0)
(28.3615 0.0516813 0)
(28.3632 0.0536022 0)
(28.3647 0.0557927 0)
(28.3662 0.0582879 0)
(28.3675 0.0611272 0)
(28.3686 0.0643553 0)
(28.3696 0.0680221 0)
(28.3703 0.0721839 0)
(28.3709 0.076904 0)
(28.3712 0.0822536 0)
(28.3712 0.0883126 0)
(28.3709 0.0951708 0)
(28.3702 0.102929 0)
(28.3692 0.111702 0)
(28.3677 0.121615 0)
(28.3657 0.132813 0)
(28.3631 0.145457 0)
(28.36 0.159725 0)
(28.3562 0.175821 0)
(28.3517 0.193972 0)
(28.3464 0.214429 0)
(28.3403 0.237478 0)
(28.3332 0.263435 0)
(28.3253 0.292653 0)
(28.3163 0.325529 0)
(28.3063 0.3625 0)
(28.2952 0.404056 0)
(28.2832 0.450738 0)
(28.2701 0.503148 0)
(28.2562 0.561951 0)
(28.2416 0.627882 0)
(28.2264 0.701755 0)
(28.2112 0.784469 0)
(28.1963 0.877015 0)
(28.1825 0.980495 0)
(28.1705 1.09613 0)
(28.1616 1.22526 0)
(28.1571 1.36942 0)
(28.1589 1.53027 0)
(28.1691 1.7097 0)
(28.1903 1.90982 0)
(28.2254 2.13294 0)
(28.2776 2.3816 0)
(28.3504 2.65852 0)
(28.4471 2.96648 0)
(28.5703 3.30827 0)
(28.7217 3.68645 0)
(28.9012 4.10307 0)
(29.1055 4.55946 0)
(29.3276 5.05579 0)
(29.5552 5.59105 0)
(29.7696 6.16279 0)
(29.9437 6.76881 0)
(30.0435 7.40662 0)
(30.0278 8.08034 0)
(29.8585 8.81942 0)
(29.4775 9.6672 0)
(28.9446 10.7112 0)
(28.0722 11.9051 0)
(27.3459 13.6347 0)
(25.8352 14.3874 0)
(23.119 13.9807 0)
(20.4537 13.4387 0)
(11.2155 4.04176 0)
(7.98644 0.609621 0)
(3.85683 0.853795 0)
(2.10397 0.756389 0)
(1.77844 0.265055 0)
(1.62392 -0.0770041 0)
(1.54102 0.0545083 0)
(1.12583 0.298132 0)
(0.928478 0.149518 0)
(0.829142 0.0761738 0)
(0.735138 0.0554186 0)
(0.665081 0.0443084 0)
(0.634623 0.0458681 0)
(0.63823 0.0385289 0)
(0.621772 -0.00697702 0)
(0.5967 -0.031936 0)
(0.560374 -0.0418586 0)
(0.52566 -0.0398869 0)
(0.548048 -0.0400909 0)
(0.647136 -0.0310068 0)
(0.958666 -0.173375 0)
(0.992472 -0.158182 0)
(1.02948 -0.134944 0)
(1.07926 -0.143343 0)
(1.12855 -0.171988 0)
(1.18107 -0.18129 0)
(1.2464 -0.15243 0)
(1.31023 -0.107584 0)
(1.37941 -0.0561949 0)
(1.45898 0.00687896 0)
(1.56845 0.0862883 0)
(1.58832 0.152863 0)
(1.52687 0.141473 0)
(1.48922 0.0323679 0)
(1.50257 -0.101781 0)
(1.54804 -0.163451 0)
(1.59719 -0.0575704 0)
(1.59979 0.0334398 0)
(1.58458 0.110539 0)
(1.57716 0.125098 0)
(1.58011 0.0899845 0)
(1.58088 0.066501 0)
(1.54454 0.123409 0)
(1.45683 0.207618 0)
(1.35642 0.206512 0)
(1.26597 0.201331 0)
(1.17237 0.299209 0)
(1.12267 0.279129 0)
(1.09327 0.201032 0)
(1.05284 0.134668 0)
(1.00945 0.0805702 0)
(0.957737 0.0575044 0)
(0.914205 0.130349 0)
(0.912186 0.170271 0)
(0.922524 0.132112 0)
(0.924889 0.0671016 0)
(0.897752 0.0271962 0)
(0.764699 0.0731666 0)
(0.593674 0.0901384 0)
(0.523047 0.0684171 0)
(37.9563 0.000915307 0)
(41.7224 0.00360213 0)
(27.1091 0.00526839 0)
(23.8151 0.00617373 0)
(27.147 0.00708346 0)
(29.0678 0.00815934 0)
(28.7573 0.00923607 0)
(28.0921 0.0101631 0)
(27.9388 0.0109222 0)
(28.0787 0.011569 0)
(28.1782 0.0121507 0)
(28.1764 0.0126811 0)
(28.1479 0.0131571 0)
(28.1391 0.0135796 0)
(28.1457 0.0139562 0)
(28.1524 0.0142959 0)
(28.1546 0.0146053 0)
(28.155 0.0148889 0)
(28.1561 0.0151507 0)
(28.158 0.0153949 0)
(28.1599 0.0156245 0)
(28.1617 0.015842 0)
(28.1634 0.0160487 0)
(28.1651 0.0162463 0)
(28.1668 0.0164363 0)
(28.1685 0.0166197 0)
(28.1702 0.0167973 0)
(28.1719 0.0169692 0)
(28.1736 0.0171356 0)
(28.1754 0.0172972 0)
(28.1771 0.0174549 0)
(28.1788 0.0176097 0)
(28.1805 0.0177618 0)
(28.1822 0.0179115 0)
(28.184 0.0180588 0)
(28.1857 0.018204 0)
(28.1874 0.0183476 0)
(28.1892 0.0184901 0)
(28.1909 0.0186318 0)
(28.1927 0.0187728 0)
(28.1944 0.018913 0)
(28.1961 0.0190525 0)
(28.1979 0.0191914 0)
(28.1997 0.0193299 0)
(28.2014 0.0194682 0)
(28.2032 0.0196063 0)
(28.205 0.0197443 0)
(28.2067 0.0198821 0)
(28.2085 0.0200195 0)
(28.2103 0.0201566 0)
(28.2121 0.0202932 0)
(28.2139 0.0204292 0)
(28.2157 0.0205646 0)
(28.2175 0.0206993 0)
(28.2193 0.0208332 0)
(28.2211 0.0209661 0)
(28.2229 0.0210979 0)
(28.2247 0.0212285 0)
(28.2265 0.0213578 0)
(28.2283 0.0214856 0)
(28.2302 0.0216119 0)
(28.232 0.0217367 0)
(28.2338 0.0218598 0)
(28.2357 0.0219813 0)
(28.2375 0.022101 0)
(28.2394 0.022219 0)
(28.2412 0.0223352 0)
(28.2431 0.0224496 0)
(28.245 0.0225622 0)
(28.2469 0.0226729 0)
(28.2487 0.0227819 0)
(28.2506 0.022889 0)
(28.2525 0.0229943 0)
(28.2544 0.0230978 0)
(28.2563 0.0231993 0)
(28.2582 0.023299 0)
(28.2602 0.0233967 0)
(28.2621 0.0234926 0)
(28.264 0.0235865 0)
(28.266 0.0236785 0)
(28.2679 0.0237687 0)
(28.2699 0.0238569 0)
(28.2718 0.0239433 0)
(28.2738 0.0240278 0)
(28.2758 0.0241106 0)
(28.2777 0.0241917 0)
(28.2797 0.0242711 0)
(28.2817 0.024349 0)
(28.2837 0.0244256 0)
(28.2857 0.0245009 0)
(28.2878 0.0245751 0)
(28.2898 0.0246485 0)
(28.2918 0.0247213 0)
(28.2939 0.0247937 0)
(28.2959 0.024866 0)
(28.298 0.0249387 0)
(28.3001 0.0250121 0)
(28.3021 0.0250868 0)
(28.3042 0.0251634 0)
(28.3063 0.0252426 0)
(28.3085 0.0253252 0)
(28.3106 0.0254122 0)
(28.3127 0.0255047 0)
(28.3149 0.0256039 0)
(28.317 0.0257114 0)
(28.3192 0.0258289 0)
(28.3213 0.0259583 0)
(28.3235 0.0261019 0)
(28.3257 0.0262622 0)
(28.3279 0.026442 0)
(28.3302 0.0266449 0)
(28.3324 0.0268744 0)
(28.3346 0.0271349 0)
(28.3369 0.0274311 0)
(28.3391 0.0277686 0)
(28.3414 0.0281534 0)
(28.3437 0.0285926 0)
(28.346 0.0290939 0)
(28.3482 0.0296665 0)
(28.3505 0.0303203 0)
(28.3528 0.0310668 0)
(28.3551 0.0319189 0)
(28.3574 0.0328913 0)
(28.3597 0.0340003 0)
(28.362 0.0352647 0)
(28.3642 0.0367052 0)
(28.3665 0.0383455 0)
(28.3687 0.0402121 0)
(28.3709 0.0423349 0)
(28.3731 0.0447474 0)
(28.3752 0.0474873 0)
(28.3773 0.0505969 0)
(28.3793 0.0541241 0)
(28.3813 0.0581222 0)
(28.3832 0.0626515 0)
(28.385 0.0677795 0)
(28.3867 0.073582 0)
(28.3883 0.0801441 0)
(28.3898 0.0875614 0)
(28.3911 0.0959406 0)
(28.3923 0.105402 0)
(28.3933 0.116079 0)
(28.3942 0.128123 0)
(28.3948 0.141701 0)
(28.3952 0.157001 0)
(28.3954 0.174233 0)
(28.3953 0.19363 0)
(28.3949 0.215454 0)
(28.3943 0.239994 0)
(28.3934 0.267573 0)
(28.3922 0.298549 0)
(28.3907 0.333317 0)
(28.389 0.372317 0)
(28.387 0.416031 0)
(28.3849 0.464988 0)
(28.3826 0.519771 0)
(28.3803 0.581012 0)
(28.3781 0.6494 0)
(28.3762 0.725679 0)
(28.3746 0.810648 0)
(28.3738 0.905157 0)
(28.3739 1.01011 0)
(28.3754 1.12644 0)
(28.3787 1.25515 0)
(28.3844 1.39724 0)
(28.3932 1.55375 0)
(28.4058 1.72573 0)
(28.4234 1.91427 0)
(28.4472 2.12048 0)
(28.4789 2.34555 0)
(28.5203 2.59079 0)
(28.5738 2.8577 0)
(28.6424 3.14814 0)
(28.7293 3.46447 0)
(28.8383 3.80973 0)
(28.9736 4.18798 0)
(29.1394 4.60451 0)
(29.3395 5.06628 0)
(29.5774 5.58234 0)
(29.8552 6.1643 0)
(30.174 6.82691 0)
(30.5314 7.58765 0)
(30.9264 8.46857 0)
(31.3495 9.48646 0)
(31.8176 10.668 0)
(32.3222 12.0038 0)
(32.8754 13.4978 0)
(33.5891 15.1278 0)
(33.8492 16.5567 0)
(34.4103 18.3471 0)
(33.3692 18.0681 0)
(30.8943 16.3777 0)
(27.2692 14.0372 0)
(20.4133 7.44967 0)
(13.7769 1.86824 0)
(9.74187 0.312607 0)
(8.37592 0.72713 0)
(4.86698 0.974148 0)
(2.19111 0.368654 0)
(1.2109 0.174699 0)
(-0.141617 0.181531 0)
(-1.38308 0.169033 0)
(-2.20801 -0.0240039 0)
(-2.92396 -0.0234377 0)
(-3.38931 -0.0132711 0)
(-3.75727 -0.0894078 0)
(-4.0039 -0.167878 0)
(-3.7291 -0.412134 0)
(-3.2048 -0.954603 0)
(-2.50001 -1.63378 0)
(-2.54902 -1.77579 0)
(0.24844 -0.295313 0)
(0.701105 -0.164718 0)
(1.06731 -0.157752 0)
(1.21739 -0.181388 0)
(1.22038 -0.206909 0)
(1.17167 -0.20351 0)
(1.18307 -0.160294 0)
(1.23451 -0.126788 0)
(1.31586 -0.123834 0)
(2.22566 -0.0420249 0)
(2.37334 0.456298 0)
(2.29086 0.366377 0)
(2.21847 0.124255 0)
(2.19854 -0.0909267 0)
(2.22436 -0.169108 0)
(2.19782 -0.0956617 0)
(2.14065 -0.00163139 0)
(2.11284 0.0430268 0)
(2.12011 0.0510348 0)
(2.13974 0.0306993 0)
(2.16666 0.0123242 0)
(2.28142 0.34708 0)
(2.30644 0.485158 0)
(2.26371 0.403552 0)
(2.18168 0.353243 0)
(2.08651 0.362363 0)
(1.97933 0.313139 0)
(1.9352 0.270972 0)
(1.8586 0.377278 0)
(1.78862 0.32658 0)
(1.74588 0.212558 0)
(1.70725 0.103154 0)
(1.69372 -0.025106 0)
(1.65907 -0.109217 0)
(1.63452 0.0843321 0)
(1.88905 0.328086 0)
(2.42194 0.980134 0)
(1.5861 0.562977 0)
(0.9484 0.185192 0)
(37.9581 0.00112051 0)
(41.7276 0.00498784 0)
(27.1152 0.00789011 0)
(23.8202 0.00971887 0)
(27.1514 0.011325 0)
(29.072 0.0129924 0)
(28.7614 0.0146216 0)
(28.096 0.0160986 0)
(27.9425 0.0174147 0)
(28.0822 0.0186082 0)
(28.1815 0.0197046 0)
(28.1795 0.0207098 0)
(28.1508 0.0216249 0)
(28.1419 0.0224548 0)
(28.1483 0.0232076 0)
(28.1548 0.0238912 0)
(28.1568 0.0245124 0)
(28.1571 0.0250774 0)
(28.1581 0.0255919 0)
(28.1598 0.0260608 0)
(28.1616 0.0264885 0)
(28.1632 0.0268792 0)
(28.1648 0.0272367 0)
(28.1664 0.0275645 0)
(28.168 0.0278653 0)
(28.1696 0.0281412 0)
(28.1712 0.028394 0)
(28.1728 0.0286258 0)
(28.1745 0.0288385 0)
(28.1761 0.0290343 0)
(28.1777 0.0292149 0)
(28.1794 0.0293814 0)
(28.181 0.0295349 0)
(28.1827 0.0296765 0)
(28.1843 0.0298071 0)
(28.186 0.0299281 0)
(28.1877 0.0300403 0)
(28.1894 0.0301444 0)
(28.191 0.0302409 0)
(28.1927 0.0303303 0)
(28.1944 0.030413 0)
(28.1961 0.0304895 0)
(28.1978 0.0305603 0)
(28.1995 0.030626 0)
(28.2013 0.0306869 0)
(28.203 0.0307432 0)
(28.2047 0.0307952 0)
(28.2064 0.0308431 0)
(28.2082 0.0308874 0)
(28.2099 0.0309282 0)
(28.2117 0.0309659 0)
(28.2134 0.0310007 0)
(28.2152 0.0310331 0)
(28.217 0.0310632 0)
(28.2187 0.0310913 0)
(28.2205 0.0311175 0)
(28.2223 0.0311422 0)
(28.2241 0.0311653 0)
(28.2259 0.0311871 0)
(28.2277 0.0312075 0)
(28.2295 0.0312265 0)
(28.2313 0.0312442 0)
(28.2332 0.0312604 0)
(28.235 0.031275 0)
(28.2368 0.031288 0)
(28.2387 0.0312994 0)
(28.2405 0.031309 0)
(28.2424 0.0313169 0)
(28.2442 0.0313229 0)
(28.2461 0.0313269 0)
(28.248 0.031329 0)
(28.2499 0.0313291 0)
(28.2517 0.0313271 0)
(28.2536 0.031323 0)
(28.2555 0.0313167 0)
(28.2574 0.0313081 0)
(28.2594 0.0312973 0)
(28.2613 0.0312842 0)
(28.2632 0.0312687 0)
(28.2651 0.031251 0)
(28.2671 0.0312309 0)
(28.269 0.0312085 0)
(28.271 0.0311837 0)
(28.2729 0.0311567 0)
(28.2749 0.0311273 0)
(28.2769 0.0310959 0)