/*--------------------------------*- C++ -*----------------------------------*\
| =========                 |                                                 |
| \\      /  F ield         | OpenFOAM: The Open Source CFD Toolbox           |
|  \\    /   O peration     | Version:  2406                                  |
|   \\  /    A nd           | Website:  www.openfoam.com                      |
|    \\/     M anipulation  |                                                 |
\*---------------------------------------------------------------------------*/
FoamFile
{
    version     2.0;
    format      ascii;
    arch        "LSB;label=32;scalar=64";
    class       surfaceScalarField;
    location    "0.8";
    object      alphaPhi0.air;
}
// * * * * * * * * * * * * * * * * * * * * * * * * * * * * * * * * * * * * * //

dimensions      [0 3 -1 0 0 0 0];

oriented        oriented;

internalField   nonuniform List<scalar> 
12225
(
0.499752
2.68916e-06
0.499746
6.57158e-06
0.499739
6.64159e-06
0.499735
4.03513e-06
0.499731
3.83471e-06
0.499727
4.66991e-06
0.499722
4.98433e-06
0.499716
5.59195e-06
0.49971
5.79901e-06
0.499705
5.696e-06
0.4997
5.00862e-06
0.499695
4.27093e-06
0.499691
4.39061e-06
0.499686
5.42966e-06
0.499679
6.23513e-06
0.499673
6.34105e-06
0.499667
6.42132e-06
0.49966
6.47017e-06
0.499654
6.1845e-06
0.499648
5.91259e-06
0.499642
5.66966e-06
0.499637
5.5227e-06
0.499631
5.76081e-06
0.499625
5.91163e-06
0.499619
5.68758e-06
0.499614
5.59543e-06
0.499608
5.86813e-06
0.499602
5.94773e-06
0.499597
5.41745e-06
0.499592
4.66799e-06
0.499588
4.32863e-06
0.499583
4.48492e-06
0.499578
4.71939e-06
0.499573
5.0897e-06
0.499568
5.60234e-06
0.499562
5.81168e-06
0.499556
5.73125e-06
0.499551
5.55213e-06
0.499545
5.17583e-06
0.499541
4.79197e-06
0.499536
4.82594e-06
0.499531
5.20868e-06
0.499525
5.54489e-06
0.499519
5.71763e-06
0.499514
5.80755e-06
0.499508
5.8975e-06
0.499502
5.99366e-06
0.499496
5.8924e-06
0.49949
5.54365e-06
0.499485
5.24753e-06
0.49948
5.09233e-06
0.499475
4.89083e-06
0.49947
4.6713e-06
0.499466
4.62291e-06
0.499461
4.75327e-06
0.499456
4.89598e-06
0.499451
4.92595e-06
0.499446
4.84324e-06
0.499442
4.74267e-06
0.499437
4.68495e-06
0.499432
4.68528e-06
0.499427
4.73943e-06
0.499423
4.77081e-06
0.499418
4.69485e-06
0.499413
4.5906e-06
0.499409
4.65083e-06
0.499404
4.91331e-06
0.499399
5.18814e-06
0.499393
5.27778e-06
0.499388
5.19906e-06
0.499383
5.16154e-06
0.499378
5.29524e-06
0.499372
5.47632e-06
0.499367
5.55741e-06
0.499361
5.58909e-06
0.499355
5.64876e-06
0.49935
5.70392e-06
0.499344
5.78815e-06
0.499338
6.01821e-06
0.499332
6.34041e-06
0.499325
6.48459e-06
0.499319
6.33604e-06
0.499313
6.14942e-06
0.499306
6.19148e-06
0.4993
6.35913e-06
0.499294
6.36348e-06
0.499287
6.19367e-06
0.499281
6.14243e-06
0.499275
6.37999e-06
0.499268
6.68051e-06
0.499262
6.66446e-06
0.499255
6.298e-06
0.499249
5.96111e-06
0.499243
5.96632e-06
0.499237
6.18225e-06
0.499231
6.26892e-06
0.499225
6.12557e-06
0.499219
5.91353e-06
0.499213
5.76516e-06
0.499207
5.68717e-06
0.499202
5.6803e-06
0.499196
5.74397e-06
0.49919
5.79198e-06
0.499185
5.69976e-06
0.499179
5.47196e-06
0.499174
5.25252e-06
0.499169
5.16676e-06
0.499163
5.21055e-06
0.499158
5.28858e-06
0.499153
5.32012e-06
0.499148
5.2761e-06
0.499142
5.18013e-06
0.499137
5.08053e-06
0.499132
5.00132e-06
0.499127
4.9517e-06
0.499122
4.96517e-06
0.499117
5.08217e-06
0.499112
5.22771e-06
0.499107
5.2229e-06
0.499102
4.97498e-06
0.499097
4.64442e-06
0.499093
4.53055e-06
0.499088
4.74883e-06
0.499083
5.0709e-06
0.499078
5.15484e-06
0.499073
4.90255e-06
0.499068
4.5446e-06
0.499064
4.38607e-06
0.499059
4.5113e-06
0.499055
4.73591e-06
0.49905
4.82783e-06
0.499045
4.71677e-06
0.499041
4.52666e-06
0.499036
4.42038e-06
0.499032
4.45072e-06
0.499027
4.51649e-06
0.499023
4.47392e-06
0.499018
4.31667e-06
0.499014
4.21663e-06
0.49901
4.33631e-06
0.499005
4.58777e-06
0.499001
4.66935e-06
0.498996
4.42416e-06
0.498992
4.08269e-06
0.498988
4.04835e-06
0.498984
4.40364e-06
0.498979
4.80084e-06
0.498974
4.85888e-06
0.498969
4.60421e-06
0.498965
4.39537e-06
0.49896
4.46662e-06
0.498956
4.68952e-06
0.498951
4.80861e-06
0.498946
4.77273e-06
0.498941
4.75388e-06
0.498937
4.89567e-06
0.498931
5.1429e-06
0.498926
5.32744e-06
0.498921
5.34271e-06
0.498916
5.20329e-06
0.498911
5.01048e-06
0.498906
4.89891e-06
0.498901
4.97125e-06
0.498895
5.1906e-06
0.49889
5.38837e-06
0.498885
5.41831e-06
0.498879
5.3308e-06
0.498874
5.30211e-06
0.498869
5.39529e-06
0.498863
5.47457e-06
0.498858
5.37546e-06
0.498853
5.12902e-06
0.498848
4.93238e-06
0.498843
4.94401e-06
0.498838
5.11276e-06
0.498832
5.26061e-06
0.498827
5.27079e-06
0.498822
5.18847e-06
0.498817
5.12929e-06
0.498812
5.12803e-06
0.498807
5.09573e-06
0.498802
4.92556e-06
0.498797
4.63707e-06
0.498793
4.3975e-06
0.498788
4.36465e-06
0.498784
4.49633e-06
0.498779
4.57186e-06
0.498775
4.44158e-06
0.498771
4.20278e-06
0.498766
4.06581e-06
0.498762
4.08442e-06
0.498758
4.08525e-06
0.498754
3.88314e-06
0.498751
3.50874e-06
0.498748
3.18091e-06
0.498745
3.08196e-06
0.498741
3.1664e-06
0.498738
3.19205e-06
0.498735
2.97188e-06
0.498733
2.574e-06
0.49873
2.25441e-06
0.498728
2.18184e-06
0.498726
2.23889e-06
0.498724
2.14616e-06
0.498722
1.78716e-06
0.498721
1.35811e-06
0.49872
1.16122e-06
0.498718
1.2768e-06
0.498717
1.48163e-06
0.498715
1.50892e-06
0.498714
1.32558e-06
0.498713
1.10336e-06
0.498712
9.84046e-07
0.498711
9.60759e-07
0.49871
9.39637e-07
0.498709
8.48998e-07
0.498708
7.04655e-07
0.498708
5.72274e-07
0.498707
4.87358e-07
0.498707
4.28448e-07
0.498707
3.3328e-07
0.498706
2.07989e-07
0.498706
4.06624e-08
0.498706
-8.1652e-08
0.498707
-6.6377e-08
0.498707
5.49829e-08
0.498706
1.276e-07
0.498706
1.18416e-07
0.498706
7.58046e-08
0.498706
1.49675e-07
0.498706
3.60657e-07
0.498705
5.32547e-07
0.498705
5.17757e-07
0.498704
3.82799e-07
0.498704
3.29964e-07
0.498703
4.74703e-07
0.498703
7.20162e-07
0.498702
8.4456e-07
0.498701
7.12833e-07
0.498701
4.23408e-07
0.498701
1.89544e-07
0.4987
1.39243e-07
0.4987
2.10097e-07
0.4987
2.33245e-07
0.4987
1.23919e-07
0.4987
-2.42249e-08
0.4987
-1.26422e-07
0.4987
-1.23415e-07
0.4987
-1.52794e-07
7.56912e-09
0.499761
-5.47348e-07
0.499767
4.89339e-07
0.499771
2.2144e-06
0.499772
2.63565e-06
0.499775
1.80133e-06
0.499777
2.18937e-06
0.499779
2.79702e-06
0.499782
2.42966e-06
0.499786
2.3179e-06
0.499789
2.2106e-06
0.499792
2.22807e-06
0.499794
2.54837e-06
0.499796
2.54691e-06
0.499799
2.327e-06
0.499803
2.34899e-06
0.499807
2.22047e-06
0.499811
2.05551e-06
0.499815
2.26338e-06
0.499819
2.44897e-06
0.499822
2.60845e-06
0.499825
2.82228e-06
0.499828
2.48769e-06
0.499832
2.19077e-06
0.499835
2.52266e-06
0.499838
2.68499e-06
0.499842
2.24907e-06
0.499845
1.9761e-06
0.499849
2.49913e-06
0.499851
3.15404e-06
0.499853
3.16976e-06
0.499854
2.67542e-06
0.499856
2.3754e-06
0.499859
2.36014e-06
0.499862
2.29746e-06
0.499865
2.29256e-06
0.499868
2.30276e-06
0.499872
2.18195e-06
0.499875
2.14405e-06
0.499878
2.16404e-06
0.499881
1.89146e-06
0.499885
1.47429e-06
0.499888
1.43002e-06
0.499892
1.82742e-06
0.499896
2.31238e-06
0.499899
2.57179e-06
0.499902
2.59573e-06
0.499905
2.71047e-06
0.499908
2.97849e-06
0.499911
2.98305e-06
0.499913
2.70642e-06
0.499916
2.61497e-06
0.499918
2.77193e-06
0.49992
2.86289e-06
0.499922
2.82398e-06
0.499923
2.83657e-06
0.499925
2.97069e-06
0.499927
3.07826e-06
0.499929
2.98908e-06
0.499931
2.71632e-06
0.499933
2.41036e-06
0.499936
2.21411e-06
0.499938
2.25726e-06
0.499941
2.57221e-06
0.499942
2.93149e-06
0.499944
3.00818e-06
0.499946
2.77276e-06
0.499948
2.50114e-06
0.499951
2.43293e-06
0.499954
2.52929e-06
0.499956
2.55923e-06
0.499959
2.40812e-06
0.499962
2.2472e-06
0.499965
2.262e-06
0.499969
2.38646e-06
0.499972
2.48101e-06
0.499975
2.52279e-06
0.499978
2.48211e-06
0.499981
2.31309e-06
0.499985
2.15972e-06
0.499989
2.27722e-06
0.499993
2.62354e-06
0.499997
2.80764e-06
0.5
2.62825e-06
0.500004
2.38806e-06
0.500008
2.44663e-06
0.500012
2.67017e-06
0.500015
2.62455e-06
0.500019
2.20021e-06
0.500024
1.79484e-06
0.500029
1.8545e-06
0.500033
2.31263e-06
0.500037
2.65033e-06
0.50004
2.55054e-06
0.500044
2.24804e-06
0.500048
2.15501e-06
0.500052
2.34109e-06
0.500055
2.57542e-06
0.500058
2.69235e-06
0.500062
2.6963e-06
0.500065
2.62168e-06
0.500068
2.51108e-06
0.500071
2.46274e-06
0.500074
2.55052e-06
0.500077
2.69329e-06
0.50008
2.73246e-06
0.500083
2.61727e-06
0.500085
2.44932e-06
0.500088
2.36762e-06
0.500091
2.42973e-06
0.500094
2.57079e-06
0.500097
2.63576e-06
0.500099
2.52564e-06
0.500102
2.3381e-06
0.500105
2.26291e-06
0.500107
2.34237e-06
0.50011
2.43962e-06
0.500112
2.48251e-06
0.500115
2.56222e-06
0.500118
2.72239e-06
0.50012
2.79819e-06
0.500122
2.60495e-06
0.500124
2.22846e-06
0.500127
2.01283e-06
0.50013
2.18619e-06
0.500132
2.60068e-06
0.500134
2.88331e-06
0.500136
2.81126e-06
0.500138
2.49725e-06
0.50014
2.24425e-06
0.500143
2.2536e-06
0.500145
2.46538e-06
0.500147
2.65569e-06
0.500149
2.6599e-06
0.500151
2.51241e-06
0.500153
2.38866e-06
0.500155
2.42058e-06
0.500157
2.55872e-06
0.500159
2.62219e-06
0.50016
2.50675e-06
0.500162
2.34326e-06
0.500164
2.38257e-06
0.500166
2.67326e-06
0.500168
2.93149e-06
0.500169
2.83867e-06
0.500171
2.44875e-06
0.500173
2.17423e-06
0.500176
2.31259e-06
0.500178
2.69834e-06
0.500179
2.90904e-06
0.500181
2.76654e-06
0.500183
2.49568e-06
0.500185
2.38973e-06
0.500188
2.46687e-06
0.50019
2.51971e-06
0.500192
2.41752e-06
0.500195
2.24828e-06
0.500198
2.17034e-06
0.500201
2.2335e-06
0.500204
2.37506e-06
0.500207
2.49983e-06
0.500209
2.52335e-06
0.500212
2.40023e-06
0.500214
2.19735e-06
0.500217
2.08614e-06
0.500221
2.18656e-06
0.500224
2.3922e-06
0.500227
2.46689e-06
0.50023
2.33397e-06
0.500233
2.16309e-06
0.500236
2.16533e-06
0.500239
2.32203e-06
0.500242
2.43133e-06
0.500244
2.37082e-06
0.500247
2.24042e-06
0.50025
2.21777e-06
0.500253
2.33706e-06
0.500256
2.46456e-06
0.500258
2.47158e-06
0.500261
2.38084e-06
0.500264
2.32385e-06
0.500267
2.39279e-06
0.500269
2.54643e-06
0.500271
2.65471e-06
0.500273
2.6415e-06
0.500275
2.58691e-06
0.500276
2.64679e-06
0.500278
2.84257e-06
0.50028
2.99152e-06
0.500281
2.9146e-06
0.500282
2.66909e-06
0.500284
2.49831e-06
0.500285
2.55268e-06
0.500287
2.72673e-06
0.500287
2.79054e-06
0.500288
2.63769e-06
0.500289
2.39237e-06
0.500289
2.28664e-06
0.50029
2.41912e-06
0.500291
2.63748e-06
0.50029
2.68824e-06
0.50029
2.4955e-06
0.50029
2.26255e-06
0.50029
2.25703e-06
0.50029
2.50542e-06
0.500289
2.74732e-06
0.500287
2.71406e-06
0.500286
2.42242e-06
0.500285
2.14717e-06
0.500285
2.10935e-06
0.500284
2.25853e-06
0.500283
2.38844e-06
0.500282
2.39162e-06
0.50028
2.33629e-06
0.500279
2.33938e-06
0.500277
2.4315e-06
0.500276
2.54529e-06
0.500274
2.59336e-06
0.500272
2.54178e-06
0.50027
2.43598e-06
0.500268
2.3627e-06
0.500266
2.36872e-06
0.500264
2.41831e-06
0.500261
2.41311e-06
0.500259
2.31797e-06
0.500257
2.21378e-06
0.500254
2.22761e-06
0.500252
2.37498e-06
0.50025
2.52045e-06
0.500247
2.50618e-06
0.500245
2.375e-06
0.500243
2.33127e-06
0.500241
2.47669e-06
0.500239
2.67696e-06
0.500237
2.70479e-06
0.500235
2.48736e-06
0.500233
2.19135e-06
0.500231
2.05164e-06
0.50023
2.14199e-06
0.500229
2.31531e-06
0.500227
2.38611e-06
0.500224
2.32365e-06
0.500222
2.25915e-06
0.50022
2.32334e-06
0.500218
2.50643e-06
0.500215
2.68678e-06
0.500213
2.75732e-06
0.50021
2.72721e-06
0.500207
2.64372e-06
0.500204
2.70183e-06
2.42348e-06
0.499759
-2.02296e-07
0.499758
1.15505e-06
0.499758
1.81408e-06
0.499759
2.15093e-06
0.499759
2.09167e-06
0.49976
1.01739e-06
0.499762
7.08124e-07
0.499763
1.34996e-06
0.499763
1.9914e-06
0.499763
2.53237e-06
0.499763
2.56582e-06
0.499763
2.40417e-06
0.499763
2.19428e-06
0.499763
2.20715e-06
0.499763
2.50974e-06
0.499763
2.4356e-06
0.499763
1.90452e-06
0.499763
1.80226e-06
0.499764
2.02401e-06
0.499764
2.09799e-06
0.499765
2.3553e-06
0.499765
2.73706e-06
0.499764
2.50573e-06
0.499765
2.15735e-06
0.499765
2.24445e-06
0.499765
2.05131e-06
0.499766
1.33087e-06
0.499768
7.95888e-07
0.49977
1.08559e-06
0.499771
1.59164e-06
0.499772
1.73471e-06
0.499773
1.83383e-06
0.499773
2.10785e-06
0.499773
2.42625e-06
0.499772
2.79735e-06
0.499771
3.16747e-06
0.49977
3.31217e-06
0.499769
3.35654e-06
0.499768
3.54585e-06
0.499766
3.6769e-06
0.499764
3.50842e-06
0.499762
3.18219e-06
0.499761
2.89183e-06
0.499761
2.70293e-06
0.499761
2.58508e-06
0.499761
2.36476e-06
0.499762
2.08786e-06
0.499762
2.04798e-06
0.499763
2.12564e-06
0.499764
1.96484e-06
0.499765
1.67293e-06
0.499766
1.52241e-06
0.499768
1.49639e-06
0.499769
1.48663e-06
0.49977
1.51492e-06
0.499772
1.63958e-06
0.499773
1.84296e-06
0.499774
2.02687e-06
0.499774
2.10197e-06
0.499775
2.05289e-06
0.499775
1.90696e-06
0.499776
1.76107e-06
0.499776
1.78695e-06
0.499777
2.01345e-06
0.499778
2.20629e-06
0.499779
2.15962e-06
0.499779
1.96828e-06
0.49978
1.89854e-06
0.49978
2.07982e-06
0.49978
2.3573e-06
0.49978
2.47038e-06
0.49978
2.39639e-06
0.49978
2.33471e-06
0.49978
2.34278e-06
0.49978
2.29776e-06
0.499781
2.20087e-06
0.499781
2.17708e-06
0.499781
2.20199e-06
0.499781
2.13275e-06
0.499781
2.01005e-06
0.499782
2.02872e-06
0.499783
2.18834e-06
0.499783
2.2531e-06
0.499783
2.14922e-06
0.499784
2.12575e-06
0.499784
2.38171e-06
0.499784
2.74672e-06
0.499783
2.86374e-06
0.499782
2.6316e-06
0.499782
2.35248e-06
0.499782
2.37054e-06
0.499782
2.63855e-06
0.499781
2.80215e-06
0.499781
2.68611e-06
0.499781
2.48279e-06
0.499781
2.41552e-06
0.499781
2.4585e-06
0.499781
2.48462e-06
0.499781
2.48481e-06
0.499781
2.51054e-06
0.499781
2.54235e-06
0.499781
2.5361e-06
0.499781
2.51695e-06
0.499781
2.5317e-06
0.499781
2.57349e-06
0.499781
2.61047e-06
0.499781
2.64113e-06
0.499781
2.67543e-06
0.499781
2.7038e-06
0.499781
2.71512e-06
0.499781
2.6797e-06
0.499781
2.54181e-06
0.499781
2.32223e-06
0.499781
2.17883e-06
0.499781
2.25131e-06
0.499781
2.44245e-06
0.499781
2.50823e-06
0.499781
2.35809e-06
0.499781
2.15276e-06
0.499782
2.07969e-06
0.499783
2.11693e-06
0.499783
2.10454e-06
0.499783
1.99709e-06
0.499783
1.92653e-06
0.499784
2.0134e-06
0.499784
2.19362e-06
0.499785
2.27732e-06
0.499785
2.15374e-06
0.499786
1.91436e-06
0.499786
1.77005e-06
0.499787
1.85324e-06
0.499787
2.09705e-06
0.499788
2.29372e-06
0.499788
2.27541e-06
0.499788
2.05946e-06
0.499789
1.83591e-06
0.499789
1.80021e-06
0.49979
1.96353e-06
0.499791
2.12921e-06
0.499791
2.10313e-06
0.499791
1.92868e-06
0.499792
1.84691e-06
0.499793
1.985e-06
0.499794
2.16467e-06
0.499794
2.11617e-06
0.499794
1.84245e-06
0.499795
1.64655e-06
0.499796
1.77348e-06
0.499797
2.10426e-06
0.499797
2.30492e-06
0.499797
2.2162e-06
0.499798
1.99425e-06
0.499798
1.88005e-06
0.499799
1.93369e-06
0.499799
2.03918e-06
0.4998
2.09525e-06
0.4998
2.10846e-06
0.4998
2.12904e-06
0.4998
2.18467e-06
0.4998
2.2864e-06
0.4998
2.42943e-06
0.4998
2.55238e-06
0.4998
2.55932e-06
0.499799
2.44986e-06
0.499799
2.37584e-06
0.499799
2.4733e-06
0.499799
2.67843e-06
0.499798
2.78595e-06
0.499798
2.68589e-06
0.499798
2.49555e-06
0.499797
2.39819e-06
0.499797
2.42439e-06
0.499797
2.4461e-06
0.499797
2.35895e-06
0.499797
2.20654e-06
0.499798
2.10843e-06
0.499798
2.10383e-06
0.499798
2.11443e-06
0.499799
2.05014e-06
0.499799
1.91299e-06
0.4998
1.79903e-06
0.4998
1.80598e-06
0.499801
1.92785e-06
0.499802
2.04521e-06
0.499802
2.05272e-06
0.499803
1.99555e-06
0.499804
2.02102e-06
0.499804
2.17652e-06
0.499805
2.32165e-06
0.499805
2.29243e-06
0.499806
2.10924e-06
0.499806
1.95981e-06
0.499807
1.99303e-06
0.499808
2.17264e-06
0.499808
2.32424e-06
0.499808
2.31153e-06
0.499808
2.17544e-06
0.499809
2.09824e-06
0.499809
2.21183e-06
0.499809
2.44017e-06
0.499809
2.56473e-06
0.499809
2.46235e-06
0.499809
2.25082e-06
0.499809
2.16621e-06
0.49981
2.29766e-06
0.49981
2.48219e-06
0.49981
2.48945e-06
0.49981
2.28194e-06
0.49981
2.03854e-06
0.49981
1.9326e-06
0.499811
1.96098e-06
0.499811
2.0047e-06
0.499811
1.98973e-06
0.499812
1.94682e-06
0.499812
1.94347e-06
0.499813
2.00494e-06
0.499813
2.09276e-06
0.499814
2.13182e-06
0.499814
2.07145e-06
0.499815
1.93285e-06
0.499815
1.79577e-06
0.499816
1.73831e-06
0.499816
1.76554e-06
0.499817
1.80327e-06
0.499817
1.79075e-06
0.499818
1.77049e-06
0.499818
1.85404e-06
0.499819
2.07687e-06
0.499819
2.30335e-06
0.499819
2.36909e-06
0.499819
2.2749e-06
0.499819
2.17881e-06
0.49982
2.21474e-06
0.49982
2.34437e-06
0.49982
2.40184e-06
0.49982
2.28358e-06
0.49982
2.06312e-06
0.49982
1.91535e-06
0.499821
1.93343e-06
0.499821
2.04757e-06
0.499821
2.12257e-06
0.499821
2.10688e-06
0.499822
2.06381e-06
0.499822
2.07724e-06
0.499823
2.16091e-06
0.499823
2.25298e-06
0.499824
2.29842e-06
0.499824
2.28328e-06
0.499824
2.28652e-06
2.22547e-06
0.499757
3.72289e-07
0.499758
5.39497e-07
0.499759
9.61001e-07
0.49976
1.2184e-06
0.49976
1.53282e-06
0.499759
2.2293e-06
0.499758
2.09324e-06
0.499757
2.00701e-06
0.499757
2.06557e-06
0.499757
2.3397e-06
0.499757
2.2948e-06
0.499758
2.03459e-06
0.499758
1.78631e-06
0.499759
1.3981e-06
0.49976
1.30603e-06
0.499761
1.76169e-06
0.499761
2.00717e-06
0.499761
1.78897e-06
0.499761
1.41344e-06
0.499762
1.43045e-06
0.499763
1.67769e-06
0.499763
1.96028e-06
0.499764
1.87045e-06
0.499765
1.70978e-06
0.499765
2.21672e-06
0.499764
2.67791e-06
0.499763
2.70002e-06
0.499761
2.33902e-06
0.49976
2.24411e-06
0.499759
2.53548e-06
0.499758
2.5165e-06
0.499758
2.16613e-06
0.499758
1.82653e-06
0.499759
1.43357e-06
0.499761
1.03728e-06
0.499763
9.40725e-07
0.499765
1.03706e-06
0.499768
1.06425e-06
0.49977
1.17125e-06
0.499772
1.48026e-06
0.499774
1.77509e-06
0.499775
1.87831e-06
0.499776
1.78622e-06
0.499777
1.64499e-06
0.499778
1.67754e-06
0.499779
1.80781e-06
0.499779
1.836e-06
0.499779
1.95947e-06
0.499779
2.34074e-06
0.499778
2.6599e-06
0.499777
2.70838e-06
0.499776
2.67472e-06
0.499775
2.67089e-06
0.499774
2.58993e-06
0.499773
2.37605e-06
0.499773
2.13567e-06
0.499772
2.01016e-06
0.499772
2.01824e-06
0.499772
2.08421e-06
0.499772
2.18636e-06
0.499772
2.30666e-06
0.499771
2.33597e-06
0.499771
2.22417e-06
0.499771
2.09351e-06
0.499771
2.06679e-06
0.499771
2.12447e-06
0.499771
2.17321e-06
0.49977
2.16388e-06
0.49977
2.15153e-06
0.499771
2.21632e-06
0.499771
2.30807e-06
0.499771
2.32657e-06
0.499771
2.30833e-06
0.499771
2.30707e-06
0.499771
2.24047e-06
0.499771
2.08584e-06
0.499771
2.02208e-06
0.499771
2.14923e-06
0.499771
2.25625e-06
0.499771
2.10856e-06
0.499771
1.82201e-06
0.499772
1.70574e-06
0.499772
1.78983e-06
0.499772
1.80929e-06
0.499773
1.6358e-06
0.499774
1.46542e-06
0.499775
1.5429e-06
0.499776
1.82043e-06
0.499777
1.99556e-06
0.499777
1.88469e-06
0.499778
1.65185e-06
0.499779
1.57989e-06
0.49978
1.70311e-06
0.499781
1.82823e-06
0.499782
1.85155e-06
0.499782
1.84241e-06
0.499783
1.84278e-06
0.499783
1.8061e-06
0.499784
1.74812e-06
0.499785
1.76974e-06
0.499786
1.89154e-06
0.499786
2.00236e-06
0.499787
2.00473e-06
0.499787
1.92421e-06
0.499788
1.85503e-06
0.499789
1.87113e-06
0.499789
1.98691e-06
0.49979
2.13909e-06
0.49979
2.20967e-06
0.499791
2.14106e-06
0.499792
1.99761e-06
0.499792
1.86709e-06
0.499793
1.77154e-06
0.499793
1.73656e-06
0.499794
1.84299e-06
0.499794
2.09455e-06
0.499794
2.30628e-06
0.499794
2.258e-06
0.499795
1.95996e-06
0.499795
1.67955e-06
0.499795
1.66401e-06
0.499796
1.89154e-06
0.499795
2.1372e-06
0.499795
2.22885e-06
0.499795
2.18606e-06
0.499795
2.1319e-06
0.499795
2.13274e-06
0.499795
2.1459e-06
0.499795
2.10377e-06
0.499795
2.01551e-06
0.499795
1.97322e-06
0.499795
2.06071e-06
0.499795
2.25336e-06
0.499795
2.4117e-06
0.499794
2.38938e-06
0.499794
2.17436e-06
0.499794
1.93577e-06
0.499794
1.8957e-06
0.499794
2.10408e-06
0.499794
2.35425e-06
0.499793
2.38677e-06
0.499793
2.18855e-06
0.499793
2.00896e-06
0.499793
2.04975e-06
0.499793
2.22338e-06
0.499792
2.28901e-06
0.499792
2.17566e-06
0.499792
2.06903e-06
0.499792
2.14885e-06
0.499791
2.34947e-06
0.499791
2.4498e-06
0.499791
2.3451e-06
0.499791
2.14403e-06
0.499791
2.01475e-06
0.499791
2.01046e-06
0.499791
2.0718e-06
0.499791
2.12682e-06
0.499791
2.13559e-06
0.499791
2.07511e-06
0.499791
1.95596e-06
0.499792
1.85328e-06
0.499792
1.84933e-06
0.499793
1.91492e-06
0.499793
1.92622e-06
0.499794
1.83235e-06
0.499795
1.73249e-06
0.499796
1.75403e-06
0.499797
1.88034e-06
0.499797
1.96411e-06
0.499798
1.92082e-06
0.499798
1.82247e-06
0.499799
1.79315e-06
0.4998
1.85827e-06
0.4998
1.92562e-06
0.4998
1.91154e-06
0.499801
1.83763e-06
0.499801
1.78766e-06
0.499801
1.8035e-06
0.499801
1.84685e-06
0.499802
1.85053e-06
0.499802
1.79932e-06
0.499802
1.76336e-06
0.499802
1.8371e-06
0.499802
2.01955e-06
0.499802
2.1797e-06
0.499801
2.19211e-06
0.499801
2.09598e-06
0.499801
2.05715e-06
0.499802
2.15935e-06
0.499802
2.29888e-06
0.499801
2.31422e-06
0.499801
2.1734e-06
0.499801
2.0032e-06
0.499801
1.95731e-06
0.499802
2.066e-06
0.499802
2.20589e-06
0.499802
2.22017e-06
0.499802
2.08519e-06
0.499802
1.949e-06
0.499802
1.97539e-06
0.499803
2.15596e-06
0.499803
2.30737e-06
0.499803
2.26649e-06
0.499803
2.06891e-06
0.499803
1.90489e-06
0.499804
1.89974e-06
0.499805
1.97997e-06
0.499805
1.98384e-06
0.499805
1.86294e-06
0.499805
1.72131e-06
0.499806
1.67595e-06
0.499806
1.73809e-06
0.499806
1.83557e-06
0.499806
1.90166e-06
0.499806
1.92002e-06
0.499806
1.9179e-06
0.499806
1.93497e-06
0.499806
1.98102e-06
0.499806
2.01861e-06
0.499806
1.9927e-06
0.499806
1.88479e-06
0.499806
1.74723e-06
0.499806
1.66843e-06
0.499807
1.68559e-06
0.499807
1.7429e-06
0.499807
1.75818e-06
0.499807
1.74307e-06
0.499807
1.80393e-06
0.499807
1.98703e-06
0.499807
2.19106e-06
0.499807
2.26515e-06
0.499807
2.16784e-06
0.499808
2.00713e-06
0.499808
1.92099e-06
0.499809
1.93546e-06
0.499809
1.95316e-06
0.499809
1.87627e-06
0.499809
1.72751e-06
0.49981
1.62797e-06
0.49981
1.66029e-06
0.49981
1.78509e-06
0.499811
1.89702e-06
0.499811
1.93541e-06
0.499811
1.92404e-06
0.499811
1.92144e-06
0.499811
1.9484e-06
0.499812
1.97303e-06
0.499812
1.96221e-06
0.499812
1.94085e-06
1.85528e-06
0.499759
2.15275e-07
0.499759
2.61899e-07
0.49976
3.91105e-07
0.49976
8.88652e-07
0.499761
1.02548e-06
0.499762
8.26127e-07
0.499763
7.65347e-07
0.499765
4.68773e-07
0.499767
3.39369e-07
0.499768
8.75349e-07
0.499769
1.73855e-06
0.499768
2.28652e-06
0.499768
2.55849e-06
0.499766
2.54218e-06
0.499765
2.43093e-06
0.499765
2.31976e-06
0.499765
2.12981e-06
0.499764
2.32811e-06
0.499763
2.53831e-06
0.499762
2.02503e-06
0.499763
1.29546e-06
0.499763
1.50371e-06
0.499763
1.95893e-06
0.499763
1.58702e-06
0.499764
1.36592e-06
0.499765
1.81208e-06
0.499765
2.27013e-06
0.499766
2.18079e-06
0.499766
1.83502e-06
0.499767
1.81339e-06
0.499767
1.97288e-06
0.499767
2.02564e-06
0.499767
2.05489e-06
0.499767
2.01149e-06
0.499766
1.81962e-06
0.499765
1.72008e-06
0.499764
1.77179e-06
0.499764
1.70921e-06
0.499763
1.54806e-06
0.499763
1.51706e-06
0.499763
1.60345e-06
0.499764
1.72405e-06
0.499764
1.81463e-06
0.499763
1.78703e-06
0.499763
1.77623e-06
0.499763
1.9183e-06
0.499763
1.97818e-06
0.499763
1.84897e-06
0.499764
1.7977e-06
0.499764
1.88853e-06
0.499765
1.93773e-06
0.499766
1.91464e-06
0.499767
1.88375e-06
0.499768
1.83687e-06
0.499768
1.76138e-06
0.499769
1.67908e-06
0.499769
1.59789e-06
0.49977
1.4902e-06
0.49977
1.36078e-06
0.499771
1.33728e-06
0.499772
1.52831e-06
0.499772
1.78149e-06
0.499773
1.8169e-06
0.499773
1.60032e-06
0.499774
1.37998e-06
0.499775
1.36342e-06
0.499775
1.50562e-06
0.499776
1.58986e-06
0.499777
1.5017e-06
0.499778
1.3725e-06
0.499778
1.35013e-06
0.499779
1.38869e-06
0.49978
1.42514e-06
0.499781
1.51654e-06
0.499782
1.66345e-06
0.499782
1.75231e-06
0.499782
1.77347e-06
0.499783
1.85623e-06
0.499783
2.00817e-06
0.499783
2.03448e-06
0.499783
1.84823e-06
0.499783
1.67814e-06
0.499783
1.76578e-06
0.499783
2.0103e-06
0.499782
2.09819e-06
0.499782
1.91331e-06
0.499782
1.67064e-06
0.499782
1.64217e-06
0.499782
1.82868e-06
0.499782
1.97015e-06
0.499782
1.89463e-06
0.499782
1.73831e-06
0.499782
1.72057e-06
0.499782
1.83753e-06
0.499781
1.93133e-06
0.499781
1.94176e-06
0.499781
1.92176e-06
0.499781
1.8962e-06
0.499781
1.85998e-06
0.499781
1.8523e-06
0.499781
1.90751e-06
0.499781
1.9671e-06
0.499781
1.9336e-06
0.499781
1.79836e-06
0.499781
1.65235e-06
0.499782
1.59466e-06
0.499782
1.66575e-06
0.499782
1.82281e-06
0.499783
1.93677e-06
0.499783
1.88736e-06
0.499783
1.70924e-06
0.499783
1.56898e-06
0.499784
1.56878e-06
0.499784
1.65891e-06
0.499784
1.76318e-06
0.499784
1.87783e-06
0.499784
1.99091e-06
0.499785
1.99733e-06
0.499785
1.7988e-06
0.499785
1.47446e-06
0.499785
1.26498e-06
0.499786
1.34285e-06
0.499786
1.63481e-06
0.499787
1.89578e-06
0.499787
1.93638e-06
0.499787
1.76885e-06
0.499788
1.56207e-06
0.499789
1.47944e-06
0.499789
1.55513e-06
0.499789
1.69661e-06
0.49979
1.78745e-06
0.49979
1.78711e-06
0.49979
1.74545e-06
0.499791
1.7299e-06
0.499792
1.74173e-06
0.499792
1.70877e-06
0.499793
1.58075e-06
0.499793
1.43142e-06
0.499794
1.41751e-06
0.499794
1.5891e-06
0.499795
1.77756e-06
0.499795
1.75941e-06
0.499796
1.52626e-06
0.499797
1.31179e-06
0.499798
1.32701e-06
0.499798
1.52506e-06
0.499799
1.68546e-06
0.499799
1.69202e-06
0.4998
1.63813e-06
0.4998
1.6583e-06
0.499801
1.75062e-06
0.499802
1.8126e-06
0.499802
1.79719e-06
0.499802
1.76529e-06
0.499802
1.79315e-06
0.499803
1.88967e-06
0.499803
2.01897e-06
0.499803
2.15218e-06
0.499803
2.25649e-06
0.499802
2.27842e-06
0.499802
2.2072e-06
0.499802
2.13145e-06
0.499801
2.15581e-06
0.499801
2.26762e-06
0.499801
2.34412e-06
0.4998
2.30478e-06
0.499799
2.21224e-06
0.499799
2.1751e-06
0.499799
2.20042e-06
0.499799
2.20008e-06
0.499798
2.11567e-06
0.499798
1.99745e-06
0.499798
1.94066e-06
0.499798
1.96703e-06
0.499798
2.00584e-06
0.499798
1.98229e-06
0.499798
1.89603e-06
0.499798
1.81085e-06
0.499798
1.78549e-06
0.499798
1.81805e-06
0.499798
1.84897e-06
0.499798
1.82909e-06
0.499798
1.79455e-06
0.499798
1.84025e-06
0.499798
1.98843e-06
0.499798
2.12376e-06
0.499798
2.11153e-06
0.499798
1.95992e-06
0.499799
1.80914e-06
0.499799
1.76536e-06
0.4998
1.79508e-06
0.4998
1.78491e-06
0.4998
1.67131e-06
0.499801
1.50712e-06
0.499801
1.41486e-06
0.499802
1.46823e-06
0.499803
1.6073e-06
0.499803
1.68985e-06
0.499804
1.64569e-06
0.499804
1.5602e-06
0.499805
1.58243e-06
0.499805
1.75261e-06
0.499805
1.9453e-06
0.499805
2.00052e-06
0.499805
1.89676e-06
0.499806
1.76214e-06
0.499806
1.71471e-06
0.499806
1.73926e-06
0.499806
1.7431e-06
0.499806
1.68914e-06
0.499806
1.62956e-06
0.499806
1.62823e-06
0.499807
1.69687e-06
0.499807
1.80062e-06
0.499807
1.88761e-06
0.499807
1.91777e-06
0.499807
1.88641e-06
0.499807
1.82313e-06
0.499807
1.76255e-06
0.499807
1.7099e-06
0.499808
1.6359e-06
0.499808
1.51909e-06
0.499808
1.39495e-06
0.499809
1.34562e-06
0.499809
1.41634e-06
0.499809
1.54401e-06
0.499809
1.62636e-06
0.499809
1.65137e-06
0.49981
1.70327e-06
0.49981
1.84447e-06
0.49981
2.02229e-06
0.49981
2.11483e-06
0.49981
2.05863e-06
0.49981
1.91162e-06
0.49981
1.79211e-06
0.499811
1.75988e-06
0.499811
1.76587e-06
0.499811
1.72758e-06
0.499811
1.63487e-06
0.499811
1.55779e-06
0.499811
1.56065e-06
0.499811
1.63453e-06
0.499811
1.71562e-06
0.499812
1.75028e-06
0.499812
1.73611e-06
0.499812
1.70461e-06
0.499812
1.66774e-06
0.499813
1.6177e-06
0.499813
1.53409e-06
1.46409e-06
0.499758
-2.241e-07
0.499758
3.98034e-07
0.499757
1.18974e-06
0.499757
1.37484e-06
0.499756
1.17057e-06
0.499756
1.09648e-06
0.499756
1.24473e-06
0.499754
1.7662e-06
0.499753
1.92975e-06
0.499752
1.51513e-06
0.499753
9.68923e-07
0.499754
7.87274e-07
0.499756
9.89597e-07
0.499758
7.8834e-07
0.49976
4.00861e-07
0.499761
7.02943e-07
0.499762
1.14029e-06
0.499764
1.09341e-06
0.499765
1.33136e-06
0.499765
1.83596e-06
0.499765
1.83498e-06
0.499764
1.59337e-06
0.499765
1.66782e-06
0.499765
1.7514e-06
0.499765
1.29687e-06
0.499766
9.20169e-07
0.499767
1.06674e-06
0.499768
1.23351e-06
0.499768
1.08475e-06
0.499769
1.09212e-06
0.49977
1.34875e-06
0.49977
1.43381e-06
0.499771
1.47516e-06
0.499771
1.67298e-06
0.499771
1.78226e-06
0.499771
1.74894e-06
0.499771
1.80468e-06
0.499771
1.89071e-06
0.499771
1.84909e-06
0.499771
1.76421e-06
0.49977
1.67525e-06
0.499771
1.61078e-06
0.499771
1.62495e-06
0.499771
1.59888e-06
0.499771
1.50562e-06
0.499772
1.54045e-06
0.499772
1.59923e-06
0.499772
1.41232e-06
0.499773
1.14891e-06
0.499774
1.12375e-06
0.499775
1.26241e-06
0.499775
1.34798e-06
0.499776
1.36132e-06
0.499776
1.42189e-06
0.499776
1.58776e-06
0.499776
1.77492e-06
0.499776
1.87299e-06
0.499775
1.8687e-06
0.499775
1.79883e-06
0.499775
1.71201e-06
0.499774
1.69256e-06
0.499774
1.768e-06
0.499774
1.84168e-06
0.499774
1.83625e-06
0.499774
1.80217e-06
0.499773
1.82378e-06
0.499773
1.90455e-06
0.499773
1.94244e-06
0.499772
1.83245e-06
0.499772
1.6374e-06
0.499772
1.5152e-06
0.499772
1.4623e-06
0.499772
1.37138e-06
0.499772
1.28906e-06
0.499772
1.33481e-06
0.499773
1.43479e-06
0.499773
1.40639e-06
0.499774
1.25546e-06
0.499774
1.17877e-06
0.499775
1.25029e-06
0.499776
1.3174e-06
0.499776
1.28435e-06
0.499777
1.27549e-06
0.499777
1.42228e-06
0.499778
1.63789e-06
0.499778
1.71353e-06
0.499778
1.57004e-06
0.499778
1.35559e-06
0.499779
1.2797e-06
0.499779
1.36586e-06
0.49978
1.45371e-06
0.49978
1.45557e-06
0.49978
1.45768e-06
0.499781
1.51998e-06
0.499781
1.55517e-06
0.499782
1.49321e-06
0.499782
1.41365e-06
0.499783
1.42547e-06
0.499783
1.52877e-06
0.499783
1.65561e-06
0.499783
1.75901e-06
0.499783
1.81166e-06
0.499784
1.78979e-06
0.499784
1.71546e-06
0.499784
1.6627e-06
0.499784
1.68224e-06
0.499783
1.75853e-06
0.499783
1.84936e-06
0.499783
1.897e-06
0.499783
1.827e-06
0.499784
1.63625e-06
0.499784
1.46066e-06
0.499784
1.46398e-06
0.499784
1.63534e-06
0.499784
1.80007e-06
0.499784
1.82194e-06
0.499784
1.726e-06
0.499784
1.61229e-06
0.499785
1.51658e-06
0.499785
1.4156e-06
0.499785
1.32918e-06
0.499785
1.33467e-06
0.499785
1.46518e-06
0.499785
1.6398e-06
0.499785
1.71937e-06
0.499786
1.6276e-06
0.499786
1.42231e-06
0.499786
1.25452e-06
0.499786
1.25218e-06
0.499786
1.42231e-06
0.499787
1.64671e-06
0.499787
1.7723e-06
0.499787
1.72878e-06
0.499787
1.58098e-06
0.499787
1.46834e-06
0.499787
1.47406e-06
0.499787
1.54668e-06
0.499787
1.57274e-06
0.499787
1.5321e-06
0.499787
1.52699e-06
0.499787
1.62263e-06
0.499787
1.72176e-06
0.499787
1.67049e-06
0.499787
1.47109e-06
0.499787
1.31182e-06
0.499787
1.35297e-06
0.499787
1.54025e-06
0.499787
1.67965e-06
0.499787
1.66245e-06
0.499787
1.55051e-06
0.499788