/*--------------------------------*- C++ -*----------------------------------*\
| =========                 |                                                 |
| \\      /  F ield         | OpenFOAM: The Open Source CFD Toolbox           |
|  \\    /   O peration     | Version:  2406                                  |
|   \\  /    A nd           | Website:  www.openfoam.com                      |
|    \\/     M anipulation  |                                                 |
\*---------------------------------------------------------------------------*/
FoamFile
{
    version     2.0;
    format      ascii;
    arch        "LSB;label=32;scalar=64";
    class       volScalarField;
    location    "0.8";
    object      p;
}
// * * * * * * * * * * * * * * * * * * * * * * * * * * * * * * * * * * * * * //

dimensions      [1 -1 -2 0 0 0 0];

internalField   nonuniform List<scalar> 
6250
(
222.889
-2862.68
-776.025
730.538
688.352
239.515
84.8484
157.66
229.831
235.094
214.985
204.94
206.235
208.897
208.732
207.076
205.683
204.834
204.113
203.283
202.378
201.475
200.588
199.709
198.829
197.947
197.066
196.185
195.303
194.42
193.538
192.656
191.774
190.895
190.014
189.13
188.249
187.369
186.487
185.601
184.718
183.839
182.962
182.081
181.197
180.313
179.431
178.55
177.671
176.791
175.91
175.026
174.138
173.254
172.377
171.501
170.619
169.734
168.851
167.971
167.089
166.206
165.324
164.444
163.564
162.682
161.8
160.918
160.037
159.156
158.274
157.393
156.511
155.63
154.747
153.864
152.983
152.104
151.223
150.341
149.457
148.573
147.693
146.815
145.935
145.052
144.167
143.284
142.404
141.525
140.644
139.761
138.877
137.996
137.116
136.235
135.352
134.47
133.59
132.711
131.829
130.945
130.062
129.181
128.302
127.421
126.539
125.657
124.773
123.89
123.008
122.128
121.25
120.37
119.487
118.605
117.722
116.839
115.956
115.075
114.195
113.315
112.433
111.55
110.667
109.786
108.905
108.024
107.142
106.259
105.377
104.495
103.614
102.734
101.853
100.97
100.085
99.2017
98.32
97.4404
96.5623
95.6842
94.8035
93.9193
93.0337
92.149
91.2654
90.3826
89.5018
88.6245
87.7485
86.8693
85.985
85.0984
84.2131
83.3297
82.4471
81.5653
80.6861
79.8092
78.9321
78.0513
77.1663
76.2797
75.3941
74.511
73.6301
72.7508
71.8726
70.9947
70.1157
69.2347
68.3513
67.4658
66.5795
65.6947
64.8132
63.9344
63.056
62.1765
61.296
60.4151
59.5337
58.651
57.7667
56.8821
55.9986
55.1169
54.2368
53.3576
52.4785
51.5987
50.7176
49.8348
48.951
48.067
47.1834
46.3004
45.4179
44.5362
43.6558
42.7768
41.8981
41.0188
40.1384
39.2572
38.3755
37.4923
36.6079
35.724
34.8422
33.9624
33.083
32.203
31.3233
30.4452
29.5685
28.691
27.8106
26.9277
26.0435
25.1586
24.2724
23.3845
22.496
21.6092
20.7247
19.8414
18.9584
18.0762
17.1965
16.3196
15.4449
14.5706
13.6955
12.8188
11.9407
11.0617
10.1819
9.30028
8.41637
7.53081
6.6441
5.75714
4.87002
3.98254
3.09538
2.20919
1.32467
0.441187
222.849
-2862.74
-776.045
730.556
688.361
239.511
84.8378
157.656
229.836
235.097
214.989
204.944
206.233
208.888
208.717
207.065
205.679
204.835
204.116
203.281
202.372
201.469
200.589
199.715
198.838
197.951
197.064
196.183
195.303
194.423
193.542
192.659
191.775
190.892
190.01
189.127
188.244
187.362
186.486
185.608
184.724
183.839
182.958
182.078
181.196
180.314
179.432
178.549
177.668
176.787
175.908
175.029
174.147
173.261
172.378
171.498
170.618
169.733
168.849
167.969
167.091
166.21
165.326
164.444
163.562
162.68
161.799
160.918
160.036
159.155
158.273
157.391
156.51
155.628
154.746
153.864
152.983
152.102
151.22
150.337
149.456
148.575
147.695
146.814
145.931
145.049
144.167
143.286
142.405
141.524
140.643
139.761
138.877
137.995
137.115
136.236
135.356
134.473
133.59
132.709
131.83
130.947
130.063
129.181
128.302
127.423
126.541
125.657
124.773
123.89
123.008
122.129
121.251
120.372
119.488
118.603
117.72
116.839
115.959
115.078
114.196
113.314
112.432
111.549
110.668
109.787
108.907
108.026
107.142
106.258
105.376
104.495
103.616
102.736
101.854
100.97
100.085
99.2006
98.3194
97.4406
96.5628
95.6851
94.806
93.9225
93.0341
92.145
91.2602
90.3805
89.5033
88.6265
87.7495
86.8704
85.9865
85.098
84.2092
83.3243
82.4439
81.5658
80.688
79.8101
78.9319
78.0515
77.167
76.2792
75.3917
74.5078
73.6284
72.7513
71.8742
70.9959
70.116
69.2346
68.3514
67.4665
66.5804
65.6944
64.8112
63.932
63.0556
62.1789
61.2995
60.4176
59.5347
58.6513
57.7671
56.8825
55.9988
55.1174
54.2381
53.3595
52.4804
51.6005
50.7198
49.8381
48.9547
48.0696
47.1842
46.3001
45.4186
44.5391
43.6602
42.7809
41.9012
41.0214
40.141
39.2598
38.3778
37.4947
36.6103
35.7253
34.8414
33.9606
33.0827
32.2057
31.3277
30.4486
29.5699
28.6918
27.8127
26.9306
26.0458
25.1602
24.2744
23.3872
22.498
21.6083
20.7211
19.838
18.9576
18.0778
17.1979
16.3191
15.4426
14.5683
13.6947
12.8197
11.9421
11.0626
10.1822
9.3014
8.41896
7.53339
6.64554
5.75709
4.86948
3.98274
3.09615
2.20977
1.32572
0.440129
222.859
-2862.73
-776.042
730.564
688.365
239.508
84.8324
157.653
229.837
235.097
214.985
204.941
206.236
208.897
208.726
207.069
205.681
204.837
204.122
203.289
202.377
201.47
200.586
199.711
198.835
197.954
197.068
196.186
195.304
194.42
193.539
192.656
191.773
190.891
190.012
189.133
188.252
187.366
186.483
185.604
184.724
183.84
182.958
182.078
181.197
180.317
179.436
178.554
177.671
176.788
175.904
175.022
174.143
173.262
172.377
171.496
170.616
169.735
168.851
167.968
167.088
166.209
165.327
164.444
163.562
162.68
161.8
160.919
160.037
159.155
158.274
157.393
156.51
155.628
154.746
153.866
152.985
152.104
151.221
150.337
149.457
148.577
147.698
146.816
145.932
145.048
144.166
143.286
142.407
141.526
140.644
139.762
138.879
137.996
137.114
136.234
135.355
134.474
133.591
132.708
131.827
130.946
130.064
129.182
128.302
127.421
126.539
125.655
124.772
123.891
123.01
122.13
121.25
120.37
119.487
118.602
117.719
116.839
115.96
115.079
114.196
113.312
112.43
111.549
110.669
109.789
108.907
108.024
107.14
106.257
105.375
104.496
103.617
102.736
101.854
100.969
100.084
99.1997
98.3188
97.4412
96.564
95.6852
94.8041
93.9202
93.0331
92.1453
91.2609
90.3817
89.5052
88.6279
87.7488
86.8685
85.9856
85.099
84.2104
83.3243
82.4437
81.5674
80.6916
79.8133
78.9322
78.0492
77.1647
76.2789
75.393
74.5092
73.6289
72.7518
71.8758
70.9984
70.118
69.2341
68.3484
67.4629
66.5789
65.6959
64.8138
63.9334
63.0553
62.1784
61.3
60.4185
59.5342
58.6491
57.7645
56.8809
55.9985
55.1174
54.2379
53.3592
52.4803
51.6003
50.7187
49.8357
48.9518
48.0675
47.1831
46.2993
45.417
44.5365
43.6574
42.7789
41.9003
41.021
40.14
39.2572
38.3736
37.4907
36.6084
35.7258
34.8424
33.9596
33.0795
32.2022
31.3261
30.4489
29.5702
28.6909
27.8112
26.9296
26.0451
25.158
24.2706
23.3838
22.4971
21.6096
20.722
19.8364
18.9543
18.0753
17.1981
16.3215
15.445
14.5689
13.6936
12.8188
11.9431
11.0649
10.1838
9.30081
8.41681
7.5317
6.64511
5.75716
4.86884
3.98117
3.09446
2.20867
1.32401
0.440901
222.863
-2862.74
-776.053
730.558
688.369
239.512
84.8363
157.652
229.837
235.1
214.984
204.937
206.23
208.89
208.722
207.069
205.677
204.827
204.113
203.285
202.375
201.469
200.585
199.71
198.832
197.951
197.068
196.187
195.303
194.419
193.538
192.658
191.776
190.892
190.008
189.129
188.25
187.366
186.481
185.601
184.722
183.84
182.958
182.079
181.197
180.314
179.431
178.549
177.67
176.791
175.908
175.024
174.143
173.263
172.38
171.496
170.614
169.735
168.854
167.971
167.088
166.207
165.326
164.444
163.563
162.682
161.8
160.918
160.036
159.154
158.273
157.392
156.51
155.627
154.746
153.865
152.985
152.103
151.22
150.336
149.455
148.575
147.696
146.815
145.932
145.048
144.166
143.286
142.405
141.524
140.641
139.76
138.879
137.998
137.115
136.232
135.352
134.473
133.593
132.709
131.826
130.944
130.064
129.183
128.302
127.421
126.54
125.656
124.773
123.892
123.012
122.131
121.249
120.367
119.486
118.603
117.721
116.84
115.96
115.079
114.196
113.312
112.429
111.549
110.67
109.79
108.907
108.024
107.14
106.257
105.376
104.497
103.618
102.737
101.854
100.969
100.084
99.2002
98.3191
97.4417
96.5652
95.686
94.8032
93.9183
93.0322
92.146
91.2618
90.3821
89.5061
88.6298
87.75
86.867
85.9824
85.097
84.2108
83.3256
82.4439
81.5666
80.6912
79.8141
78.9329
78.0483
77.1624
76.2769
75.3925
74.51
73.6299
72.752
71.8751
70.9974
70.1174
69.2341
68.348
67.4614
66.5767
65.6948
64.8148
63.9355
63.0566
62.1781
61.2991
60.418
59.5343
58.6491
57.7641
56.8805
55.9986
55.118
54.2386
53.36
52.4814
51.6016
50.7199
49.8364
48.9519
48.0673
47.1835
46.3005
45.4185
44.538
43.6587
42.7802
41.9017
41.0228
40.1427
39.2606
38.3764
37.4916
36.6079
35.7256
34.8439
33.9624
33.0816
32.2028
31.3262
30.4499
29.5721
28.6924
27.8117
26.9302
26.0468
25.1605
24.2721
23.3836
22.4965
21.6103
20.7243
19.8389
18.9555
18.0749
17.1973
16.3215
15.4464
14.5709
13.6949
12.8187
11.9422
11.0645
10.1843
9.30144
8.41682
7.53137
6.64518
5.75793
4.8698
3.98173
3.09466
2.20889
1.32427
0.441522
222.858
-2862.74
-776.063
730.544
688.364
239.514
84.8343
157.648
229.835
235.102
214.992
204.943
206.236
208.895
208.724
207.071
205.685
204.834
204.118
203.289
202.376
201.471
200.59
199.712
198.832
197.95
197.066
196.185
195.306
194.422
193.539
192.657
191.775
190.893
190.011
189.13
188.25
187.369
186.487
185.603
184.721
183.84
182.959
182.08
181.199
180.316
179.433
178.55
177.669
176.79
175.91
175.024
174.14
173.26
172.379
171.496
170.614
169.734
168.855
167.972
167.088
166.205
165.324
164.445
163.564
162.683
161.8
160.917
160.036
159.154
158.274
157.392
156.51
155.628
154.746
153.866
152.985
152.103
151.221
150.339
149.457
148.576
147.696
146.814
145.932
145.05
144.168
143.287
142.406
141.524
140.642
139.761
138.879
137.999
137.117
136.234
135.351
134.472
133.593
132.711
131.827
130.944
130.063
129.183
128.302
127.421
126.539
125.657
124.774
123.892
123.012
122.131
121.248
120.365
119.484
118.604
117.723
116.842
115.96
115.077
114.194
113.311
112.429
111.55
110.671
109.79
108.907
108.023
107.138
106.256
105.375
104.497
103.619
102.739
101.854
100.968
100.083
99.1996
98.319
97.4414
96.5649
95.6863
94.8032
93.917
93.0307
92.1458
91.2628
90.3827
89.506
88.6301
87.7511
86.8673
85.9807
85.0945
84.2101
83.3274
82.4467
81.5682
80.6914
79.8139
78.9332
78.0487
77.1621
76.276
75.3922
74.5111
73.6322
72.7544
71.8764
70.9972
70.1163
69.2332
68.348
67.4616
66.5763
65.694
64.8149
63.9373
63.0591
62.1798
61.2992
60.4172
59.5336
58.6485
57.7633
56.8795
55.9979
55.1181
54.2393
53.3607
52.4817
51.6015
50.7198
49.8362
48.9512
48.066
47.1816
46.2989
45.4176
44.5378
43.6589
42.7804
41.9013
41.0215
40.141
39.2596
38.3764
37.4915
36.6064
35.7226
34.8411
33.961
33.0815
32.2024
31.3247
30.4482
29.5713
28.6924
27.8112
26.9287
26.0452
25.1599
24.2723
23.3831
22.4943
21.6074
20.7223
19.8385
18.9559
18.0751
17.1964
16.3199
15.4451
14.5707
13.6956
12.8192
11.9419
11.0637
10.184
9.30192
8.41736
7.53113
6.64416
5.7568
4.86903
3.98115
3.09391
2.20804
1.32353
0.441123
222.855
-2862.74
-776.05
730.547
688.359
239.512
84.8337
157.649
229.833
235.094
214.987
204.941
206.233
208.892
208.718
207.065
205.683
204.834
204.113
203.286
202.377
201.469
200.586
199.712
198.833
197.95
197.066
196.182
195.303
194.423
193.54
192.656
191.773
190.892
190.01
189.126
188.245
187.367
186.486
185.603
184.72
183.84
182.958
182.077
181.196
180.314
179.433
178.551
177.669
176.789
175.91
175.026
174.141
173.259
172.38
171.499
170.615
169.733
168.853
167.972
167.088
166.205
165.325
164.446
163.565
162.682
161.798
160.916
160.036
159.156
158.274
157.392
156.51
155.628
154.747
153.866
152.984
152.102
151.22
150.339
149.457
148.576
147.694
146.813
145.931
145.05
144.168
143.286
142.404
141.523
140.642
139.761
138.878
137.997
137.116
136.234
135.352
134.47
133.59
132.71
131.827
130.944
130.063
129.182
128.301
127.419
126.538
125.657
124.776
123.893
123.012
122.13
121.247
120.365
119.483
118.604
117.725
116.844
115.96
115.076
114.192
113.31
112.43
111.551
110.672
109.791
108.907
108.021
107.137
106.255
105.376
104.499
103.62
102.739
101.855
100.968
100.082
99.1997
98.3199
97.4419
96.5646
95.6858
94.8031
93.9167
93.0299
92.1457
91.2643
90.3847
89.5066
88.6292
87.7502
86.8672
85.9806
85.0935
84.2088
83.3276
82.4486
81.5704
80.6922
79.8129
78.9315
78.0474
77.1614
76.2755
75.3918
74.5111
73.6328
72.7555
71.8774
70.9971
70.1144
69.2302
68.3455
67.4608
66.5766
65.6944
64.8149
63.9375
63.06
62.1807
61.2992
60.416
59.5318
58.647
57.7625
56.8791
55.9978
55.1184
54.2401
53.3618
52.4825
51.6018
50.7195
49.8358
48.951
48.0659
47.1815
46.2987
45.4176
44.5381
43.6598
42.7819
41.9033
41.0232
40.1418
39.2595
38.3767
37.4929
36.6082
35.7237
34.8409
33.9606
33.082
32.204
31.3262
30.4489
29.5718
28.6935
27.8129
26.9297
26.045
25.1596
24.273
23.3849
22.496
21.608
20.722
19.8383
18.9567
18.0767
17.1982
16.3211
15.4454
14.5709
13.6964
12.8207
11.9432
11.0641
10.1837
9.30173
8.41771
7.53172
6.64449
5.75683
4.8691
3.98146
3.09433
2.20842
1.32412
0.441281
222.852
-2862.74
-776.06
730.55
688.366
239.513
84.8338
157.645
229.83
235.095
214.986
204.942
206.235
208.898
208.726
207.065
205.68
204.833
204.115
203.289
202.379
201.47
200.587
199.713
198.835
197.953
197.068
196.185
195.303
194.422
193.54
192.658
191.775
190.893
190.012
189.131
188.248
187.368
186.487
185.604
184.721
183.841
182.96
182.079
181.198
180.315
179.432
178.551
177.669
176.787
175.906
175.026
174.144
173.261
172.379
171.498
170.616
169.734
168.852
167.97
167.087
166.207
165.327
164.447
163.564
162.68
161.797
160.916
160.037
159.157
158.275
157.392
156.509
155.627
154.746
153.866
152.985
152.103
151.221
150.339
149.457
148.576
147.695
146.814
145.933
145.051
144.169
143.286
142.404
141.523
140.643
139.762
138.88
137.997
137.115
136.235
135.354
134.472
133.59
132.71
131.828
130.946
130.064
129.182
128.301
127.419
126.538
125.658
124.778
123.895
123.011
122.128
121.246
120.365
119.484
118.605
117.726
116.844
115.96
115.075
114.191
113.309
112.431
111.553
110.673
109.791
108.906
108.02
107.136
106.255
105.377
104.5
103.621
102.739
101.854
100.968
100.082
99.1995
98.3205
97.4427
96.5643
95.6845
94.8019
93.9163
93.0296
92.1454
91.2649
90.3866
89.5082
88.6289
87.7483
86.8654
85.9801
85.0938
84.2092
83.328
82.4497
81.5723
80.6937
79.813
78.9303
78.046
77.1608
76.276
75.393
74.5125
73.6341
72.7566
71.8783
70.9977
70.1143
69.2289
68.3436
67.4596
66.5771
65.6962
64.8168
63.9387
63.0609
62.1817
61.3
60.416
59.5308
58.6458
57.7617
56.879
55.9981
55.119
54.2409
53.3628
52.4835
51.6024
50.7194
49.8351
48.9501
48.0651
47.181
46.2984
45.4175
44.5382
43.6598
42.7819
41.9038
41.0243
40.1427
39.2593
38.3754
37.4914
36.6075
35.7236
34.8405
33.9593
33.0804
32.203
31.3259
30.4484
29.5707
28.6924
27.8125
26.93
26.0448
25.1583
24.2712
23.3837
22.4958
21.6081
20.7216
19.8373
18.9553
18.0757
17.198
16.3214
15.4455
14.5703
13.6954
12.8201
11.9432
11.0642
10.1833
9.30093
8.41696
7.5313
6.64419
5.75631
4.86836
3.98074
3.09369
2.20775
1.32338
0.440987
222.851
-2862.74
-776.063
730.54
688.361
239.514
84.8388
157.65
229.838
235.098
214.983
204.94
206.232
208.893
208.724
207.066
205.682
204.835
204.11
203.282
202.377
201.47
200.586
199.713
198.835
197.951
197.067
196.185
195.302
194.419
193.539
192.659
191.776
190.892
190.01
189.128
188.246
187.366
186.486
185.603
184.719
183.837
182.958
182.077
181.197
180.316
179.433
178.553
177.671
176.787
175.904
175.025
174.145
173.262
172.378
171.496
170.617
169.736
168.852
167.969
167.087
166.207
165.328
164.446
163.563
162.68
161.799
160.918
160.037
159.157
158.275
157.392
156.509
155.627
154.745
153.865
152.985
152.104
151.222
150.338
149.455
148.574
147.695
146.814
145.933
145.051
144.168
143.286
142.404
141.522
140.641
139.761
138.88
137.998
137.115
136.233
135.352
134.471
133.589
132.709
131.828
130.947
130.063
129.18
128.299
127.418
126.538
125.658
124.778
123.896
123.011
122.126
121.244
120.364
119.486
118.607
117.726
116.843
115.959
115.073
114.19
113.31
112.432
111.554
110.673
109.79
108.905
108.019
107.135
106.256
105.378
104.501
103.622
102.739
101.853
100.967
100.082
99.1995
98.321
97.4436
96.5648
95.6836
94.8005
93.9157
93.0301
92.146
91.2652
90.3873
89.5094
88.6294
87.7471
86.8633
85.9787
85.094
84.2105
83.3293
82.4506
81.5729
80.6941
79.8127
78.929
78.0442
77.1594
76.2757
75.3938
74.514
73.6354
72.7569
71.8775
70.9964
70.1129
69.2274
68.3418
67.4577
66.5763
65.6968
64.8183
63.94
63.0612
62.1812
61.2991
60.4149
59.5294
58.6441
57.7602
56.8782
55.9981
55.1195
54.2415
53.3633
52.4839
51.6026
50.7192
49.8344
48.9491
48.0641
47.1802
46.2979
45.4176
44.5389
43.6607
42.7826
41.9042
41.0249
40.1438
39.2606
38.3759
37.491
36.6068
35.7235
34.841
33.9597
33.0804
32.2029
31.3264
30.4494
29.5714
28.6925
27.8124
26.9305
26.046
25.1592
24.2714
23.3834
22.4958
21.6088
20.7228
19.8384
18.956
18.076
17.1983
16.3222
15.4468
14.5715
13.6961
12.8204
11.9436
11.0649
10.1841
9.30133
8.41705
7.53139
6.64446
5.75663
4.86856
3.98089
3.09394
2.20814
1.32341
0.441531
222.855
-2862.75
-776.065
730.54
688.359
239.51
84.8332
157.648
229.834
235.096
214.984
204.941
206.232
208.89
208.725
207.07
205.68
204.834
204.118
203.288
202.377
201.471
200.586
199.712
198.834
197.95
197.066
196.185
195.303
194.42
193.538
192.657
191.778
190.895
190.011
189.128
188.248
187.367
186.487
185.606
184.724
183.841
182.959
182.076
181.195
180.315
179.433
178.551
177.67
176.788
175.906
175.026
174.145
173.261
172.377
171.496
170.617
169.736
168.852
167.97
167.089
166.208
165.327
164.444
163.562
162.68
161.8
160.919
160.037
159.156
158.274
157.392
156.51
155.627
154.745
153.865
152.985
152.104
151.222
150.338
149.456
148.575
147.695
146.815
145.934
145.051
144.168
143.287
142.405
141.523
140.641
139.761
138.881
138
137.117
136.233
135.351
134.471
133.59
132.71
131.83
130.948
130.064
129.18
128.298
127.418
126.539
125.66
124.779
123.896
123.011
122.126
121.243
120.364
119.487
118.609
117.727
116.843
115.957
115.072
114.19
113.311
112.433
111.555
110.674
109.789
108.904
108.018
107.136
106.257
105.379
104.502
103.622
102.738
101.852
100.967
100.082
99.2002
98.3214
97.444
96.5651
95.6831
94.7991
93.9146
93.0305
92.1474
91.2663
90.3876
89.5094
88.6294
87.7465
86.8619
85.9773
85.0939
84.2119
83.3315
82.4523
81.5735
80.694
79.8123
78.9284
78.0434
77.1588
76.2759
75.395
74.516
73.6376
72.7585
71.8777
70.9952
70.1113
69.2264
68.3414
67.4578
66.5766
65.6978
64.8202
63.9422
63.0628
62.1817
61.2987
60.4141
59.5286
58.6433
57.7597
56.8782
55.9988
55.1207
54.2429
53.3645
52.4847
51.6029
50.7192
49.8341
48.9485
48.0634
47.1797
46.2977
45.4176
44.5394
43.6618
42.784
41.9051
41.0251
40.1439
39.261
38.3764
37.491
36.606
35.7225
34.8404
33.9596
33.0801
32.2022
31.3256
30.4492
29.5716
28.6924
27.8117
26.9295
26.0454
25.1592
24.2714
23.383
22.495
21.6079
20.7223
19.8383
18.9562
18.076
17.1978
16.3216
15.4465
14.5716
13.6962
12.82
11.9429
11.0642
10.1837
9.30097
8.41649
7.53063
6.64373
5.75601
4.86796
3.98023
3.09334
2.20759
1.32357
0.440718
222.854
-2862.75
-776.069
730.538
688.364
239.511
84.8304
157.645
229.835
235.099
214.985
204.942
206.235
208.894
208.724
207.067
205.681
204.835
204.117
203.286
202.374
201.468
200.585
199.712
198.836
197.952
197.067
196.186
195.305
194.421
193.538
192.657
191.776
190.893
190.009
189.128
188.248
187.364
186.482
185.603
184.723
183.841
182.959
182.077
181.196
180.316
179.433
178.549
177.668
176.789
175.908
175.025
174.142
173.261
172.379
171.497
170.616
169.735
168.852
167.97
167.089
166.207
165.325
164.444
163.563
162.682
161.8
160.919
160.037
159.155
158.274
157.392
156.509
155.627
154.746
153.866
152.985
152.103
151.22
150.338
149.456
148.576
147.695
146.814
145.933
145.051
144.168
143.286
142.404
141.522
140.64
139.76
138.88
138
137.117
136.232
135.349
134.469
133.59
132.711
131.831
130.948
130.063
129.178
128.296
127.417
126.539
125.66
124.778
123.894
123.009
122.125
121.243
120.365
119.488
118.609
117.727
116.841
115.955
115.071
114.19
113.312
112.434
111.555
110.673
109.788
108.902
108.018
107.137
106.258
105.38
104.502
103.621
102.737
101.851
100.966
100.083
99.2016
98.3222
97.4438
96.5646
95.6826
94.7981
93.9134
93.0303
92.1487
91.2681
90.3883
89.5088
88.6282
87.7455
86.861
85.9766
85.0937
84.2128
83.3332
82.4539
81.5741
80.6933
79.8108
78.9269
78.0423
77.1583
76.276
75.3957
74.517
73.6386
72.7591
71.8775
70.9937
70.1088
69.224
68.34
67.4575
66.5769
65.6983
64.8209
63.943
63.0634
62.1814
61.2974
60.4122
59.5266
58.6418
57.7586
56.8777
55.9988
55.1212
54.2437
53.3651
52.4848
51.6026
50.7185
49.8331
48.9474
48.0624
47.179
46.2974
45.4176
44.5394
43.6623
42.785
41.9063
41.0259
40.1439
39.2607
38.3764
37.4913
36.606
35.7219
34.8397
33.9593
33.0803
32.2023
31.3253
30.4488
29.5718
28.6931
27.8122
26.9294
26.045
25.1592
24.2718
23.3836
22.4955
21.6082
20.7224
19.8385
18.9568
18.0769
17.1987
16.3221
15.4469
14.5722
13.697
12.8208
11.9434
11.0644
10.1838
9.30129
8.41684
7.53085
6.64383
5.75616
4.86819
3.98049
3.0936
2.20794
1.32367
0.441236
222.862
-2862.74
-776.067
730.536
688.359
239.514
84.8347
157.645
229.832
235.099
214.983
204.94
206.233
208.889
208.722
207.069
205.679
204.831
204.117
203.286
202.376
201.472
200.586
199.709
198.833
197.954
197.069
196.185
195.302
194.42
193.54
192.657
191.775
190.893
190.012
189.131
188.25
187.368
186.485
185.604
184.722
183.838
182.957
182.078
181.199
180.317
179.434
178.55
177.668
176.789
175.908
175.025
174.141
173.26
172.38
171.498
170.616
169.735
168.853
167.971
167.088
166.206
165.325
164.445
163.565
162.682
161.799
160.917
160.036
159.156
158.275
157.392
156.509
155.627
154.747
153.866
152.985
152.102
151.22
150.339
149.458
148.577
147.695
146.813
145.932
145.052
144.17
143.287
142.404
141.521
140.641
139.761
138.882
138.001
137.117
136.232
135.349
134.469
133.592
132.714
131.833
130.948
130.062
129.177
128.296
127.418
126.541
125.662
124.779
123.893
123.008
122.125
121.245
120.367
119.489
118.609
117.726
116.84
115.955
115.071
114.191
113.313
112.435
111.555
110.672
109.787
108.902
108.018
107.138
106.259
105.381
104.502
103.62
102.736
101.85
100.966
100.084
99.2035
98.3238
97.444
96.5636
95.6816
94.7977
93.9132
93.0303
92.1495
91.2697
90.3895
89.5087
88.6269
87.7441
86.8604
85.9767
85.0944
84.214
83.3348
82.4555
81.5751
80.693
79.8096
78.9255
78.0415
77.1586
76.2773
75.3976
74.5187
73.6398
72.7597
71.8776
70.9932
70.1076
69.2225
68.3392
67.4579
66.5784
65.7002
64.8225
63.9443
63.0643
62.1818
61.2971
60.4112
59.5255
58.641
57.7585
56.8782
55.9998
55.1225
54.245
53.3663
52.4856
51.6028
50.7182
49.8326
48.9468
48.0618
47.1786
46.2976
45.4183
44.5403
43.663
42.7858
41.9075
41.0271
40.1447
39.2608
38.3762
37.4912
36.6061
35.7218
34.8392
33.9587
33.0801
32.2024
31.3253
30.4484
29.5712
28.6928
27.8123
26.9294
26.0447
25.1586
24.2713
23.3834
22.4955
21.6082
20.7223
19.8383
18.9565
18.0769
17.199
16.3224
15.4468
14.5718
13.6967
12.8207
11.9431
11.064
10.1832
9.30059
8.4162
7.53023
6.64313
5.75543
4.86753
3.97989
3.09297
2.20738
1.3228
0.441244
222.857
-2862.74
-776.06
730.536
688.36
239.515
84.8339
157.641
229.829
235.101
214.986
204.938
206.237
208.896
208.721
207.067
205.682
204.832
204.116
203.287
202.379
201.473
200.587
199.708
198.832
197.954
197.069
196.184
195.302
194.421
193.539
192.657
191.776
190.895
190.012
189.126
188.244
187.366
186.487
185.605
184.722
183.838
182.957
182.078
181.196
180.314
179.433
178.552
177.67
176.788
175.907
175.025
174.142
173.259
172.378
171.497
170.616
169.735
168.853
167.97
167.087
166.206
165.326
164.446
163.565
162.682
161.798
160.916
160.036
159.156
158.275
157.393
156.51
155.628
154.746
153.865
152.983
152.102
151.221
150.34
149.459
148.576
147.693
146.811
145.932
145.052
144.171
143.287
142.402
141.519
140.64
139.762
138.883
138
137.115
136.23
135.348
134.469
133.592
132.714
131.832
130.946
130.06
129.176
128.296
127.418
126.541
125.661
124.778
123.892
123.007
122.125
121.246
120.368
119.489
118.608
117.724
116.839
115.954
115.072
114.192
113.314
112.435
111.554
110.671
109.786
108.902
108.019
107.139
106.26
105.381
104.5
103.618
102.734
101.85
100.966
100.085
99.2047
98.325
97.4442
96.5623
95.6798
94.7967
93.9134
93.0309
92.1502
91.2704
90.3902
89.5085
88.6256
87.7424
86.8593
85.9768
85.0953
84.2152
83.3358
82.4562
81.5752
80.6924
79.8082
78.9238
78.0402
77.1581
76.2779
75.399
74.5202
73.6405
72.7593
71.8763
70.9916
70.106
69.2209
68.3378
67.4573
66.5789
65.7013
64.8236
63.9447
63.0639
62.1808
61.2956
60.4094
59.5236
58.6395
57.7576
56.8781
56.0002
55.1231
54.2456
53.3667
52.4857
51.6024
50.7173
49.8314
48.9456
48.0608
47.1778
46.2971
45.4185
44.541
43.6638
42.7863
41.9078
41.0276
40.1453
39.261
38.3758
37.4906
36.6057
35.7217
34.839
33.9582
33.0795
32.2022
31.3254
30.4485
29.5709
28.6924
27.8121
26.9296
26.0449
25.1586
24.2712
23.3834
22.4956
21.6087
20.7229
19.8388
18.9569
18.0773
17.1996
16.3232
15.4476
14.5723
13.697
12.8209
11.9435
11.0643
10.1834
9.30068
8.41628
7.53035
6.64326
5.75555
4.86769
3.98014
3.09339
2.20777
1.32393
0.440988
222.85
-2862.74
-776.061
730.535
688.357
239.511
84.8366
157.649
229.83
235.094
214.985
204.941
206.234
208.891
208.72
207.07
205.682
204.832
204.117
203.287
202.376
201.47
200.59
199.712
198.831
197.95
197.068
196.188
195.305
194.419
193.535
192.656
191.776
190.896
190.014
189.129
188.245
187.365
186.485
185.604
184.723
183.842
182.96
182.078
181.196
180.314
179.433
178.552
177.67
176.787
175.907
175.027
174.144
173.26
172.377
171.498
170.617
169.735
168.853
167.97
167.088
166.208
165.327
164.446
163.564
162.682
161.799
160.917
160.036
159.155
158.274
157.393
156.512
155.629
154.746
153.863
152.982
152.103
151.223
150.342
149.459
148.574
147.691
146.811
145.933
145.054
144.172
143.287
142.402
141.519
140.641
139.764
138.884
138
137.114
136.23
135.349
134.471
133.594
132.715
131.832
130.946
130.06
129.177
128.298
127.42
126.541
125.66
124.777
123.891
123.007
122.126
121.247
120.369
119.489
118.607
117.722
116.838
115.955
115.074
114.194
113.315
112.435
111.553
110.67
109.786
108.903
108.021
107.141
106.261
105.381
104.499
103.616
102.733
101.85
100.968
100.086
99.2061
98.326
97.4445
96.5616
95.6784
94.7958
93.9138
93.0323
92.1516
91.2713
90.3905
89.5083
88.6249
87.7413
86.8585
85.977
85.0967
84.217
83.3374
82.457
81.5752
80.6918
79.8074
78.9231
78.0399
77.1586
76.2791
75.4007
74.5221
73.6419
72.7596
71.8755
70.9904
70.105
69.2206
68.338
67.458
66.5801
65.703
64.8254
63.946
63.0643
62.1803
61.2947
60.4084
59.5228
58.639
57.7578
56.8788
56.0014
55.1245
54.2469
53.3676
52.4862
51.6024
50.717
49.8308
48.945
48.0605
47.1778
46.2973
45.419
44.542
43.6651
42.7875
41.9086
41.0282
40.1458
39.2616
38.3761
37.4904
36.6054
35.7215
34.839
33.9582
33.0792
32.2018
31.3253
30.4486
29.571
28.692
27.8116
26.9292
26.0448
25.1586
24.2712
23.3832
22.4954
21.6085
20.7229
19.8391
18.9572
18.0774
17.1996
16.3233
15.4478
14.5724
13.6968
12.8205
11.943
11.0638
10.1828
9.30003
8.41554
7.5296
6.64255
5.75487
4.86706
3.9796
3.09287
2.2073
1.32318
0.4409
222.856
-2862.74
-776.059
730.539
688.354
239.512
84.8372
157.647
229.831
235.099
214.987
204.937
206.235
208.896
208.721
207.067
205.68
204.832
204.115
203.284
202.374
201.469
200.59
199.714
198.831
197.949
197.067
196.187
195.306
194.422
193.54
192.658
191.774
190.892
190.012
189.131
188.248
187.365
186.484
185.602
184.721
183.84
182.958
182.077
181.197
180.316
179.433
178.55
177.669
176.788
175.907
175.026
174.143
173.26
172.378
171.498
170.617
169.734
168.852
167.97
167.089
166.208
165.326
164.444
163.563
162.682
161.8
160.917
160.035
159.154
158.274
157.394
156.512
155.629
154.745
153.861
152.982
152.104
151.225
150.343
149.457
148.572
147.69
146.811
145.934
145.055
144.171
143.285
142.401
141.519
140.642
139.764
138.884
137.999
137.113
136.229
135.349
134.472
133.594
132.714
131.83
130.944
130.059
129.177
128.299
127.421
126.541
125.658
124.774
123.89
123.008
122.127
121.248
120.369
119.488
118.605
117.721
116.837
115.955
115.075
114.195
113.315
112.434
111.551
110.668
109.786
108.904
108.023
107.142
106.261
105.379
104.497
103.614
102.731
101.85
100.969
100.088
99.2071
98.3258
97.4436
96.5605
95.6771
94.7948
93.9138
93.0334
92.1528
91.2718
90.3901
89.5074
88.6238
87.7402
86.8577
85.977
85.0975
84.2184
83.3385
82.4572
81.5744
80.6903
79.8057
78.9218
78.0394
77.1588
76.2798
75.4015
74.5228
73.6422
72.7592
71.8741
70.9883
70.1031
69.2193
68.3377
67.4582
66.5806
65.7037
64.826
63.9462
63.0638
62.179
61.2928
60.4065
59.5212
58.638
57.7574
56.879
56.002
55.1252
54.2474
53.3677
52.4858
51.6017
50.716
49.8296
48.9438
48.0596
47.1774
46.2973
45.4192
44.5424
43.6658
42.7884
41.9093
41.0284
40.1458
39.2615
38.3761
37.4902
36.6049
35.721
34.8387
33.9581
33.079
32.2015
31.3249
30.4484
29.571
28.6921
27.8114
26.9289
26.0445
25.1585
24.2713
23.3834
22.4956
21.6086
20.7232
19.8396
18.9579
18.0781
17.2002
16.3237
15.4482
14.573
13.6973
12.8208
11.9432
11.064
10.183
9.30009
8.41555
7.5296
6.6426
5.75497
4.8672
3.97982
3.09315
2.20763
1.32324
0.441408
222.837
-2862.75
-776.055
730.545
688.36
239.507
84.833
157.652
229.833
235.093
214.985
204.941
206.237
208.895
208.72
207.07
205.683
204.833
204.115
203.287
202.378
201.469
200.585
199.713
198.836
197.952
197.067
196.183
195.302
194.421
193.539
192.657
191.775
190.893
190.011
189.13
188.248
187.367
186.488
185.606
184.722
183.839
182.957
182.077
181.198
180.316
179.432
178.55
177.67
176.79
175.908
175.024
174.143
173.261
172.38
171.498
170.616
169.734
168.853
167.972
167.09
166.207
165.325
164.444
163.564
162.684
161.801
160.916
160.034
159.154
158.275
157.396
156.513
155.627
154.743
153.861
152.983
152.106
151.226
150.342
149.455
148.57
147.69
146.813
145.936
145.055
144.17
143.284
142.401
141.521
140.643
139.765
138.884
137.999
137.113
136.23
135.351
134.473
133.595
132.713
131.828
130.944
130.061
129.18
128.301
127.422
126.54
125.657
124.773
123.89
123.01
122.13
121.25
120.369
119.486
118.603
117.72
116.838
115.957
115.077
114.196
113.315
112.433
111.55
110.668
109.787
108.906
108.025
107.143
106.261
105.378
104.495
103.613
102.731
101.85
100.971
100.09
99.2087
98.3258
97.4426
96.5594
95.6765
94.7947
93.9144
93.0347
92.1545
91.2729
90.3901
89.5065
88.6228
87.7397
86.8579
85.9777
85.0987
84.2198
83.3398
82.4579
81.5742
80.6894
79.8046
78.921
78.0395
77.1599
76.2815
75.4032
74.5239
73.6428
72.7594
71.8739
70.9876
70.1022
69.219
68.3382
67.4595
66.5822
65.7052
64.827
63.9467
63.0637
62.1784
61.2919
60.4055
59.5206
58.6379
57.7579
56.8799
56.0032
55.1264