/*--------------------------------*- C++ -*----------------------------------*\
| =========                 |                                                 |
| \\      /  F ield         | OpenFOAM: The Open Source CFD Toolbox           |
|  \\    /   O peration     | Version:  2406                                  |
|   \\  /    A nd           | Website:  www.openfoam.com                      |
|    \\/     M anipulation  |                                                 |
\*---------------------------------------------------------------------------*/
FoamFile
{
    version     2.0;
    format      ascii;
    arch        "LSB;label=32;scalar=64";
    class       surfaceScalarField;
    location    "0.8";
    object      phi;
}
// * * * * * * * * * * * * * * * * * * * * * * * * * * * * * * * * * * * * * //

dimensions      [0 3 -1 0 0 0 0];

oriented        oriented;

internalField   nonuniform List<scalar> 
12225
(
0.499833
2.39024e-06
0.499827
6.42711e-06
0.49982
6.71564e-06
0.499815
4.31163e-06
0.499812
3.83279e-06
0.499807
4.48547e-06
0.499802
5.22002e-06
0.499796
5.54686e-06
0.499791
5.32748e-06
0.499786
5.40798e-06
0.499781
4.99052e-06
0.499776
4.50671e-06
0.499772
4.5729e-06
0.499766
5.35593e-06
0.49976
6.33979e-06
0.499753
6.64561e-06
0.499747
6.50379e-06
0.49974
6.27614e-06
0.499734
5.99449e-06
0.499728
6.01176e-06
0.499722
6.11992e-06
0.499716
5.97187e-06
0.499711
5.67153e-06
0.499705
5.43916e-06
0.4997
5.24992e-06
0.499695
5.40149e-06
0.499689
5.7794e-06
0.499683
5.85296e-06
0.499677
5.65956e-06
0.499672
5.17835e-06
0.499667
4.64946e-06
0.499663
4.42379e-06
0.499659
4.47861e-06
0.499654
4.86687e-06
0.499648
5.35819e-06
0.499643
5.62594e-06
0.499637
5.82003e-06
0.499631
5.9263e-06
0.499625
5.56455e-06
0.499621
4.90372e-06
0.499616
4.63143e-06
0.499611
4.93313e-06
0.499606
5.35853e-06
0.4996
5.62037e-06
0.499594
5.71686e-06
0.499589
5.69559e-06
0.499583
5.73052e-06
0.499577
5.86496e-06
0.499571
5.89195e-06
0.499565
5.75705e-06
0.49956
5.49329e-06
0.499555
5.02587e-06
0.49955
4.52142e-06
0.499546
4.35609e-06
0.499541
4.57005e-06
0.499537
4.8268e-06
0.499532
4.91533e-06
0.499527
4.92216e-06
0.499522
4.96414e-06
0.499517
4.92633e-06
0.499512
4.71561e-06
0.499508
4.52156e-06
0.499503
4.5352e-06
0.499498
4.66012e-06
0.499494
4.73472e-06
0.499489
4.7626e-06
0.499484
4.82944e-06
0.499479
4.97035e-06
0.499474
5.13147e-06
0.499469
5.21719e-06
0.499463
5.23739e-06
0.499458
5.30474e-06
0.499453
5.44064e-06
0.499447
5.54417e-06
0.499442
5.5718e-06
0.499436
5.58477e-06
0.49943
5.63815e-06
0.499425
5.76469e-06
0.499419
5.98162e-06
0.499412
6.22392e-06
0.499406
6.3431e-06
0.4994
6.27494e-06
0.499394
6.17082e-06
0.499387
6.22434e-06
0.499381
6.40355e-06
0.499375
6.47618e-06
0.499368
6.33346e-06
0.499362
6.15238e-06
0.499356
6.17273e-06
0.499349
6.39035e-06
0.499343
6.55449e-06
0.499336
6.47674e-06
0.49933
6.27417e-06
0.499324
6.17061e-06
0.499318
6.17801e-06
0.499312
6.12469e-06
0.499306
5.97587e-06
0.4993
5.88904e-06
0.499294
5.91655e-06
0.499288
5.89661e-06
0.499282
5.74171e-06
0.499277
5.60968e-06
0.499271
5.64305e-06
0.499265
5.72012e-06
0.49926
5.64388e-06
0.499254
5.42709e-06
0.499249
5.24908e-06
0.499244
5.20408e-06
0.499239
5.23285e-06
0.499233
5.26386e-06
0.499228
5.26787e-06
0.499223
5.21117e-06
0.499218
5.08142e-06
0.499213
4.9617e-06
0.499208
4.96927e-06
0.499203
5.09011e-06
0.499198
5.18761e-06
0.499192
5.16548e-06
0.499187
5.05651e-06
0.499182
4.92806e-06
0.499178
4.81085e-06
0.499173
4.7388e-06
0.499168
4.77036e-06
0.499163
4.88955e-06
0.499158
4.97991e-06
0.499153
4.91827e-06
0.499149
4.72912e-06
0.499144
4.564e-06
0.499139
4.55573e-06
0.499135
4.65884e-06
0.49913
4.72954e-06
0.499125
4.68137e-06
0.499121
4.56782e-06
0.499116
4.47721e-06
0.499112
4.45308e-06
0.499107
4.4779e-06
0.499103
4.49489e-06
0.499098
4.45e-06
0.499094
4.35599e-06
0.49909
4.31724e-06
0.499085
4.39719e-06
0.499081
4.47829e-06
0.499076
4.39402e-06
0.499072
4.20716e-06
0.499068
4.18398e-06
0.499064
4.44018e-06
0.499059
4.74339e-06
0.499054
4.80916e-06
0.499049
4.6342e-06
0.499045
4.4588e-06
0.499041
4.42702e-06
0.499036
4.48925e-06
0.499032
4.5812e-06
0.499027
4.72855e-06
0.499022
4.94056e-06
0.499017
5.12197e-06
0.499012
5.17496e-06
0.499006
5.13217e-06
0.499001
5.10517e-06
0.498996
5.12503e-06
0.498991
5.11516e-06
0.498986
5.03161e-06
0.498981
4.97641e-06
0.498976
5.07809e-06
0.498971
5.31157e-06
0.498965
5.48973e-06
0.49896
5.47733e-06
0.498954
5.33951e-06
0.498949
5.24164e-06
0.498944
5.25913e-06
0.498939
5.31223e-06
0.498933
5.28835e-06
0.498928
5.1622e-06
0.498923
5.02871e-06
0.498918
5.0058e-06
0.498913
5.12773e-06
0.498908
5.29559e-06
0.498902
5.35766e-06
0.498897
5.25005e-06
0.498892
5.05632e-06
0.498887
4.90726e-06
0.498882
4.83582e-06
0.498877
4.76749e-06
0.498873
4.64519e-06
0.498868
4.52187e-06
0.498864
4.48045e-06
0.498859
4.49611e-06
0.498855
4.46164e-06
0.498851
4.33033e-06
0.498846
4.16965e-06
0.498842
4.0705e-06
0.498838
4.00969e-06
0.498834
3.87601e-06
0.498831
3.62484e-06
0.498827
3.34099e-06
0.498824
3.16878e-06
0.498821
3.16458e-06
0.498818
3.20198e-06
0.498815
3.09935e-06
0.498812
2.80817e-06
0.49881
2.45009e-06
0.498807
2.20502e-06
0.498805
2.12188e-06
0.498803
2.06351e-06
0.498801
1.90083e-06
0.4988
1.63896e-06
0.498798
1.37351e-06
0.498797
1.23589e-06
0.498796
1.25069e-06
0.498794
1.34663e-06
0.498793
1.42811e-06
0.498792
1.40738e-06
0.49879
1.23816e-06
0.498789
9.88892e-07
0.498789
7.9442e-07
0.498788
7.26271e-07
0.498787
7.26504e-07
0.498786
6.75914e-07
0.498786
5.37455e-07
0.498785
3.94396e-07
0.498785
3.16608e-07
0.498785
2.66775e-07
0.498785
1.52961e-07
0.498785
-4.20082e-08
0.498785
-1.3701e-07
0.498785
-4.0722e-09
0.498785
2.29047e-07
0.498784
3.40863e-07
0.498784
2.37992e-07
0.498784
9.12135e-08
0.498784
1.13484e-07
0.498784
3.22133e-07
0.498783
5.25912e-07
0.498783
5.74193e-07
0.498782
4.80458e-07
0.498782
3.91043e-07
0.498781
4.29068e-07
0.498781
5.77087e-07
0.49878
6.60584e-07
0.498779
5.83809e-07
0.498779
3.83405e-07
0.498779
1.63897e-07
0.498779
1.23523e-07
0.498779
1.81079e-07
0.498778
1.97949e-07
0.498778
1.43711e-07
0.498778
3.90673e-09
0.498778
-7.58126e-08
0.498778
-1.62614e-07
-8.17254e-09
0.499841
-6.50158e-07
0.499847
5.17584e-07
0.499852
2.03079e-06
0.499853
2.55838e-06
0.499855
2.03536e-06
0.499858
2.14835e-06
0.49986
2.56417e-06
0.499863
2.57941e-06
0.499866
2.55116e-06
0.499869
2.51614e-06
0.499871
2.60749e-06
0.499873
2.69932e-06
0.499875
2.39204e-06
0.499879
1.92897e-06
0.499883
2.03321e-06
0.499887
2.3471e-06
0.499891
2.33827e-06
0.499895
2.31274e-06
0.499899
2.17268e-06
0.499903
2.1228e-06
0.499907
2.36653e-06
0.49991
2.58623e-06
0.499913
2.63121e-06
0.499916
2.79588e-06
0.499918
2.81386e-06
0.499922
2.28721e-06
0.499925
1.95215e-06
0.499929
2.11092e-06
0.499932
2.59257e-06
0.499934
3.02861e-06
0.499936
2.96236e-06
0.499938
2.68248e-06
0.49994
2.51633e-06
0.499942
2.40649e-06
0.499945
2.36271e-06
0.499949
2.24508e-06
0.499952
2.02686e-06
0.499956
2.07987e-06
0.499959
2.37812e-06
0.499962
2.30874e-06
0.499965
1.77626e-06
0.499968
1.44664e-06
0.499972
1.6427e-06
0.499976
2.06405e-06
0.499979
2.37561e-06
0.499982
2.4664e-06
0.499985
2.48064e-06
0.499989
2.63158e-06
0.499992
2.76831e-06
0.499995
2.76362e-06
0.499997
2.84732e-06
0.499999
3.00054e-06
0.500001
2.90775e-06
0.500003
2.65628e-06
0.500005
2.6617e-06
0.500007
2.96327e-06
0.500008
3.16168e-06
0.50001
3.02777e-06
0.500012
2.77281e-06
0.500015
2.61427e-06
0.500017
2.46715e-06
0.500019
2.30306e-06
0.500021
2.34999e-06
0.500023
2.66134e-06
0.500025
2.92556e-06
0.500027
2.89041e-06
0.500029
2.65401e-06
0.500032
2.48323e-06
0.500034
2.50638e-06
0.500037
2.58308e-06
0.50004
2.50482e-06
0.500043
2.32534e-06
0.500046
2.27708e-06
0.500049
2.39215e-06
0.500052
2.48395e-06
0.500055
2.45842e-06
0.500058
2.38148e-06
0.500062
2.3168e-06
0.500066
2.29218e-06
0.500069
2.35354e-06
0.500073
2.50804e-06
0.500077
2.61641e-06
0.500081
2.5469e-06
0.500084
2.41098e-06
0.500088
2.44324e-06
0.500092
2.64557e-06
0.500096
2.72614e-06
0.500099
2.48102e-06
0.500104
2.08038e-06
0.500108
1.89163e-06
0.500112
2.08022e-06
0.500117
2.37194e-06
0.50012
2.4377e-06
0.500124
2.30696e-06
0.500128
2.26447e-06
0.500132
2.39317e-06
0.500135
2.50764e-06
0.500139
2.51104e-06
0.500142
2.54276e-06
0.500145
2.6676e-06
0.500148
2.72151e-06
0.500151
2.60254e-06
0.500155
2.4742e-06
0.500158
2.51119e-06
0.500161
2.64146e-06
0.500164
2.68613e-06
0.500166
2.61097e-06
0.500169
2.51377e-06
0.500172
2.45942e-06
0.500174
2.44836e-06
0.500177
2.47303e-06
0.50018
2.50672e-06
0.500183
2.48856e-06
0.500185
2.40235e-06
0.500188
2.33578e-06
0.50019
2.36769e-06
0.500193
2.4621e-06
0.500196
2.5383e-06
0.500198
2.59109e-06
0.500201
2.64353e-06
0.500203
2.64633e-06
0.500205
2.51344e-06
0.500207
2.3e-06
0.50021
2.19166e-06
0.500213
2.31456e-06
0.500215
2.56909e-06
0.500217
2.73062e-06
0.500219
2.67427e-06
0.500221
2.49509e-06
0.500223
2.38579e-06
0.500226
2.41929e-06
0.500228
2.50897e-06
0.50023
2.54287e-06
0.500232
2.50196e-06
0.500234
2.44392e-06
0.500236
2.43662e-06
0.500238
2.50479e-06
0.50024
2.59072e-06
0.500242
2.5715e-06
0.500243
2.42356e-06
0.500245
2.33385e-06
0.500247
2.49964e-06
0.500249
2.80811e-06
0.50025
2.92091e-06
0.500252
2.69176e-06
0.500254
2.37947e-06
0.500256
2.29895e-06
0.500259
2.46425e-06
0.500261
2.63988e-06
0.500262
2.68299e-06
0.500264
2.64858e-06
0.500266
2.61331e-06
0.500268
2.56677e-06
0.50027
2.48819e-06
0.500273
2.4132e-06
0.500276
2.37373e-06
0.500278
2.32886e-06
0.500281
2.23641e-06
0.500284
2.16009e-06
0.500287
2.21695e-06
0.50029
2.40622e-06
0.500292
2.55422e-06
0.500295
2.49526e-06
0.500298
2.28135e-06
0.500301
2.14355e-06
0.500304
2.21326e-06
0.500307
2.36285e-06
0.50031
2.38364e-06
0.500313
2.2382e-06
0.500316
2.09926e-06
0.50032
2.13657e-06
0.500322
2.32725e-06
0.500325
2.50265e-06
0.500328
2.51994e-06
0.50033
2.39253e-06
0.500333
2.25848e-06
0.500336
2.24063e-06
0.500339
2.32937e-06
0.500342
2.41037e-06
0.500345
2.40113e-06
0.500347
2.35043e-06
0.50035
2.37458e-06
0.500352
2.50724e-06
0.500354
2.65216e-06
0.500356
2.70931e-06
0.500358
2.71321e-06
0.500359
2.76737e-06
0.500361
2.87066e-06
0.500362
2.8985e-06
0.500364
2.76911e-06
0.500365
2.58033e-06
0.500367
2.5117e-06
0.500368
2.61335e-06
0.500369
2.75415e-06
0.500369
2.75848e-06
0.50037
2.58966e-06
0.500371
2.40103e-06
0.500372
2.37483e-06
0.500372
2.52089e-06
0.500372
2.66265e-06
0.500372
2.6203e-06
0.500372
2.41482e-06
0.500372
2.24936e-06
0.500372
2.27967e-06
0.500371
2.46817e-06
0.50037
2.6396e-06
0.500369
2.6418e-06
0.500368
2.47776e-06
0.500367
2.27237e-06
0.500366
2.15405e-06
0.500365
2.17846e-06
0.500364
2.30898e-06
0.500363
2.44014e-06
0.500361
2.47998e-06
0.50036
2.43195e-06
0.500358
2.39264e-06
0.500356
2.43842e-06
0.500354
2.52052e-06
0.500353
2.52301e-06
0.50035
2.42456e-06
0.500348
2.34165e-06
0.500346
2.38246e-06
0.500344
2.48548e-06
0.500341
2.47621e-06
0.500339
2.30699e-06
0.500337
2.14496e-06
0.500335
2.19156e-06
0.500333
2.43315e-06
0.50033
2.62779e-06
0.500328
2.59068e-06
0.500326
2.40431e-06
0.500324
2.29909e-06
0.500322
2.39183e-06
0.50032
2.57413e-06
0.500318
2.63256e-06
0.500316
2.47272e-06
0.500314
2.2085e-06
0.500312
2.05626e-06
0.500311
2.11291e-06
0.500309
2.27529e-06
0.500307
2.36818e-06
0.500305
2.3271e-06
0.500303
2.28274e-06
0.500301
2.35797e-06
0.500298
2.54553e-06
0.500296
2.72075e-06
0.500293
2.78423e-06
0.50029
2.72788e-06
0.500287
2.77911e-06
2.48361e-06
0.499838
-3.47871e-07
0.499838
2.94706e-07
0.499838
1.45807e-06
0.499839
1.89033e-06
0.499839
1.74834e-06
0.49984
1.14543e-06
0.499842
1.01738e-06
0.499843
1.33215e-06
0.499844
1.57682e-06
0.499845
1.78404e-06
0.499845
2.16167e-06
0.499846
2.44846e-06
0.499845
2.55951e-06
0.499845
2.54279e-06
0.499844
2.40696e-06
0.499845
2.21007e-06
0.499845
2.09216e-06
0.499845
2.32482e-06
0.499845
2.36049e-06
0.499845
2.10013e-06
0.499845
2.13692e-06
0.499845
2.45405e-06
0.499845
2.53213e-06
0.499846
2.28361e-06
0.499846
2.36805e-06
0.499846
2.38754e-06
0.499846
1.80239e-06
0.499847
1.20574e-06
0.499849
1.10457e-06
0.49985
1.37365e-06
0.499852
1.60005e-06
0.499853
1.6919e-06
0.499853
1.80452e-06
0.499854
2.07426e-06
0.499853
2.53255e-06
0.499853
2.96128e-06
0.499852
3.1095e-06
0.499851
3.14339e-06
0.49985
3.36971e-06
0.499848
3.65203e-06
0.499846
3.66693e-06
0.499844
3.42376e-06
0.499843
3.09176e-06
0.499842
2.77823e-06
0.499842
2.63063e-06
0.499842
2.61039e-06
0.499842
2.49199e-06
0.499842
2.31616e-06
0.499843
2.16052e-06
0.499844
1.89055e-06
0.499845
1.61494e-06
0.499846
1.56969e-06
0.499848
1.62289e-06
0.499849
1.54729e-06
0.49985
1.46419e-06
0.499851
1.59597e-06
0.499853
1.85592e-06
0.499854
1.96596e-06
0.499854
1.89221e-06
0.499855
1.86603e-06
0.499856
1.94509e-06
0.499856
1.96373e-06
0.499857
1.90868e-06
0.499857
1.92386e-06
0.499858
2.00933e-06
0.499859
2.04476e-06
0.49986
2.00379e-06
0.49986
1.9713e-06
0.499861
2.04979e-06
0.499861
2.23823e-06
0.499861
2.38803e-06
0.499861
2.39272e-06
0.499861
2.34764e-06
0.499861
2.36116e-06
0.499861
2.36792e-06
0.499861
2.28975e-06
0.499861
2.19037e-06
0.499862
2.14668e-06
0.499862
2.12033e-06
0.499862
2.06759e-06
0.499863
2.05471e-06
0.499863
2.13688e-06
0.499863
2.21837e-06
0.499864
2.18337e-06
0.499864
2.11263e-06
0.499864
2.19343e-06
0.499865
2.45128e-06
0.499864
2.6976e-06
0.499864
2.73656e-06
0.499863
2.60065e-06
0.499863
2.51441e-06
0.499862
2.57534e-06
0.499862
2.63858e-06
0.499862
2.56977e-06
0.499862
2.47592e-06
0.499862
2.51894e-06
0.499862
2.61765e-06
0.499861
2.5695e-06
0.499862
2.40857e-06
0.499862
2.36935e-06
0.499862
2.50909e-06
0.499862
2.63119e-06
0.499862
2.60644e-06
0.499862
2.53015e-06
0.499862
2.52241e-06
0.499862
2.56837e-06
0.499862
2.61152e-06
0.499862
2.65197e-06
0.499862
2.68778e-06
0.499862
2.67853e-06
0.499861
2.61684e-06
0.499861
2.55471e-06
0.499861
2.51517e-06
0.499861
2.45455e-06
0.499861
2.36554e-06
0.499861
2.31545e-06
0.499861
2.33533e-06
0.499862
2.34896e-06
0.499862
2.28329e-06
0.499862
2.18416e-06
0.499863
2.13791e-06
0.499863
2.13352e-06
0.499863
2.09451e-06
0.499864
2.00915e-06
0.499864
1.96544e-06
0.499865
2.03681e-06
0.499865
2.16925e-06
0.499866
2.21847e-06
0.499866
2.1155e-06
0.499866
1.95215e-06
0.499867
1.87684e-06
0.499867
1.94173e-06
0.499868
2.06804e-06
0.499868
2.14793e-06
0.499869
2.12633e-06
0.499869
2.02187e-06
0.49987
1.9182e-06
0.49987
1.92008e-06
0.499871
2.0139e-06
0.499871
2.05111e-06
0.499872
1.95544e-06
0.499872
1.87272e-06
0.499873
1.97608e-06
0.499874
2.18163e-06
0.499874
2.22229e-06
0.499875
2.0134e-06
0.499875
1.7634e-06
0.499876
1.70184e-06
0.499877
1.82827e-06
0.499877
1.99111e-06
0.499878
2.10373e-06
0.499878
2.16866e-06
0.499879
2.17863e-06
0.499879
2.10813e-06
0.49988
1.99623e-06
0.49988
1.94433e-06
0.49988
1.99683e-06
0.499881
2.0836e-06
0.499881
2.11916e-06
0.499881
2.12983e-06
0.499881
2.22793e-06
0.499881
2.44491e-06
0.499881
2.64211e-06
0.49988
2.6543e-06
0.49988
2.5028e-06
0.49988
2.38216e-06
0.49988
2.43441e-06
0.49988
2.59677e-06
0.499879
2.68963e-06
0.499879
2.62877e-06
0.499878
2.49535e-06
0.499878
2.42263e-06
0.499878
2.45696e-06
0.499878
2.51896e-06
0.499878
2.48828e-06
0.499878
2.3249e-06
0.499878
2.10967e-06
0.499879
1.96359e-06
0.499879
1.92855e-06
0.49988
1.93581e-06
0.49988
1.90644e-06
0.49988
1.85694e-06
0.499881
1.87065e-06
0.499882
1.97136e-06
0.499882
2.07457e-06
0.499883
2.09973e-06
0.499884
2.07813e-06
0.499885
2.10387e-06
0.499885
2.18684e-06
0.499886
2.22459e-06
0.499886
2.1436e-06
0.499887
2.00812e-06
0.499887
1.95643e-06
0.499888
2.06072e-06
0.499889
2.24499e-06
0.499889
2.35364e-06
0.499889
2.31058e-06
0.499889
2.19614e-06
0.499889
2.16475e-06
0.49989
2.2787e-06
0.49989
2.43146e-06
0.49989
2.47317e-06
0.49989
2.37616e-06
0.49989
2.24361e-06
0.49989
2.1961e-06
0.499891
2.26323e-06
0.499891
2.36647e-06
0.499891
2.40583e-06
0.499891
2.33531e-06
0.499891
2.17669e-06
0.499891
2.00436e-06
0.499891
1.90465e-06
0.499892
1.91443e-06
0.499892
1.98588e-06
0.499893
2.02846e-06
0.499893
2.01037e-06
0.499894
1.99355e-06
0.499894
2.03567e-06
0.499895
2.08932e-06
0.499895
2.04742e-06
0.499895
1.88877e-06
0.499896
1.7377e-06
0.499897
1.73174e-06
0.499897
1.84521e-06
0.499898
1.916e-06
0.499898
1.85076e-06
0.499898
1.75613e-06
0.499899
1.8197e-06
0.4999
2.06716e-06
0.4999
2.32352e-06
0.4999
2.40982e-06
0.4999
2.31585e-06
0.4999
2.18816e-06
0.499901
2.1694e-06
0.499901
2.25563e-06
0.499901
2.31752e-06
0.499901
2.24296e-06
0.499901
2.06383e-06
0.499901
1.9248e-06
0.499902
1.92909e-06
0.499902
2.03639e-06
0.499902
2.12201e-06
0.499902
2.12422e-06
0.499903
2.09061e-06
0.499903
2.10681e-06
0.499903
2.19034e-06
0.499904
2.28301e-06
0.499904
2.31234e-06
0.499905
2.32989e-06
2.26737e-06
0.499839
2.99696e-07
0.499839
5.37955e-07
0.499839
1.21657e-06
0.499839
1.91597e-06
0.499839
1.84834e-06
0.499839
1.86102e-06
0.499838
1.93819e-06
0.499837
2.08803e-06
0.499836
2.09766e-06
0.499836
2.10928e-06
0.499836
1.99633e-06
0.499837
1.98752e-06
0.499837
1.90983e-06
0.499838
1.62933e-06
0.499839
1.58457e-06
0.49984
1.73228e-06
0.49984
1.64255e-06
0.499841
1.50527e-06
0.499842
1.55289e-06
0.499842
1.58158e-06
0.499843
1.67644e-06
0.499843
1.67145e-06
0.499844
1.6547e-06
0.499845
1.7349e-06
0.499845
2.03393e-06
0.499845
2.42588e-06
0.499844
2.71759e-06
0.499843
2.60018e-06
0.499842
2.23376e-06
0.499841
2.24498e-06
0.49984
2.40457e-06
0.499839
2.37962e-06
0.499839
2.21345e-06
0.499839
1.78855e-06
0.49984
1.28784e-06
0.499842
1.15048e-06
0.499844
1.20226e-06
0.499846
1.02561e-06
0.499849
8.81336e-07
0.499851
1.17296e-06
0.499853
1.63629e-06
0.499855
1.85403e-06
0.499856
1.82293e-06
0.499857
1.68592e-06
0.499858
1.59697e-06
0.499859
1.64857e-06
0.49986
1.74163e-06
0.49986
1.90026e-06
0.49986
2.23187e-06
0.49986
2.50118e-06
0.499859
2.52921e-06
0.499858
2.57715e-06
0.499857
2.7669e-06
0.499855
2.80629e-06
0.499854
2.52995e-06
0.499854
2.19092e-06
0.499854
2.07339e-06
0.499853
2.10038e-06
0.499853
2.05501e-06
0.499853
2.01953e-06
0.499853
2.17547e-06
0.499852
2.38452e-06
0.499852
2.38454e-06
0.499852
2.19115e-06
0.499852
2.02052e-06
0.499852
2.01028e-06
0.499852
2.12297e-06
0.499851
2.20993e-06
0.499851
2.19771e-06
0.499851
2.1847e-06
0.499851
2.25192e-06
0.499851
2.32059e-06
0.499851
2.31787e-06
0.499852
2.28378e-06
0.499852
2.24382e-06
0.499852
2.17976e-06
0.499852
2.13235e-06
0.499852
2.15811e-06
0.499852
2.19115e-06
0.499852
2.10158e-06
0.499852
1.9076e-06
0.499852
1.79296e-06
0.499853
1.84221e-06
0.499853
1.89149e-06
0.499853
1.77053e-06
0.499854
1.55133e-06
0.499855
1.46108e-06
0.499856
1.61183e-06
0.499857
1.84477e-06
0.499858
1.91921e-06
0.499858
1.8102e-06
0.499859
1.69904e-06
0.49986
1.70174e-06
0.499861
1.73641e-06
0.499862
1.72594e-06
0.499862
1.75485e-06
0.499863
1.87807e-06
0.499864
1.95288e-06
0.499864
1.85355e-06
0.499865
1.71304e-06
0.499866
1.74094e-06
0.499866
1.91018e-06
0.499867
2.02206e-06
0.499868
1.99913e-06
0.499868
1.93534e-06
0.499869
1.91712e-06
0.499869
1.9446e-06
0.49987
2.00286e-06
0.499871
2.07705e-06
0.499871
2.11022e-06
0.499872
2.04921e-06
0.499872
1.93727e-06
0.499873
1.87534e-06
0.499874
1.89129e-06
0.499874
1.92938e-06
0.499874
1.96466e-06
0.499875
2.02401e-06
0.499875
2.08606e-06
0.499875
2.06666e-06
0.499875
1.9489e-06
0.499876
1.83768e-06
0.499876
1.84405e-06
0.499876
1.95743e-06
0.499876
2.07286e-06
0.499876
2.11791e-06
0.499876
2.12492e-06
0.499876
2.15965e-06
0.499876
2.21482e-06
0.499876
2.21349e-06
0.499876
2.11947e-06
0.499876
2.0002e-06
0.499876
1.96486e-06
0.499876
2.05124e-06
0.499875
2.20431e-06
0.499875
2.32246e-06
0.499875
2.31254e-06
0.499875
2.15993e-06
0.499875
1.99753e-06
0.499875
2.00244e-06
0.499875
2.17273e-06
0.499874
2.30389e-06
0.499874
2.25571e-06
0.499874
2.14345e-06
0.499874
2.14497e-06
0.499874
2.2356e-06
0.499873
2.25148e-06
0.499873
2.14862e-06
0.499873
2.05979e-06
0.499872
2.09274e-06
0.499872
2.20234e-06
0.499872
2.29455e-06
0.499872
2.34526e-06
0.499872
2.3613e-06
0.499871
2.31106e-06
0.499871
2.1689e-06
0.499871
2.00024e-06
0.499871
1.92366e-06
0.499871
1.9778e-06
0.499871
2.06393e-06
0.499872
2.05576e-06
0.499872
1.95399e-06
0.499872
1.8853e-06
0.499873
1.92743e-06
0.499874
1.9962e-06
0.499874
1.95577e-06
0.499875
1.79589e-06
0.499876
1.65327e-06
0.499877
1.65503e-06
0.499878
1.78425e-06
0.499878
1.92309e-06
0.499879
1.9766e-06
0.499879
1.9453e-06
0.49988
1.90311e-06
0.49988
1.91044e-06
0.499881
1.95116e-06
0.499881
1.95179e-06
0.499882
1.86634e-06
0.499882
1.73974e-06
0.499882
1.66927e-06
0.499882
1.69805e-06
0.499882
1.77489e-06
0.499882
1.8328e-06
0.499882
1.87988e-06
0.499882
1.97507e-06
0.499882
2.1132e-06
0.499882
2.20296e-06
0.499882
2.17726e-06
0.499882
2.09634e-06
0.499882
2.07801e-06
0.499882
2.15118e-06
0.499882
2.22485e-06
0.499882
2.20292e-06
0.499882
2.09364e-06
0.499882
2.00616e-06
0.499882
2.03618e-06
0.499882
2.1619e-06
0.499882
2.25825e-06
0.499882
2.21986e-06
0.499883
2.08025e-06
0.499883
1.98016e-06
0.499883
2.00854e-06
0.499884
2.11844e-06
0.499884
2.19351e-06
0.499884
2.16333e-06
0.499884
2.05471e-06
0.499884
1.945e-06
0.499885
1.88772e-06
0.499885
1.88747e-06
0.499886
1.91031e-06
0.499886
1.90808e-06
0.499886
1.85324e-06
0.499886
1.77031e-06
0.499886
1.73012e-06
0.499887
1.78269e-06
0.499887
1.88794e-06
0.499887
1.9507e-06
0.499887
1.93672e-06
0.499887
1.91401e-06
0.499887
1.95521e-06
0.499887
2.02503e-06
0.499887
2.00755e-06
0.499887
1.85812e-06
0.499887
1.68522e-06
0.499887
1.63877e-06
0.499887
1.73436e-06
0.499887
1.83423e-06
0.499887
1.82528e-06
0.499887
1.76346e-06
0.499888
1.79079e-06
0.499888
1.95639e-06
0.499888
2.15915e-06
0.499888
2.24955e-06
0.499888
2.17225e-06
0.499889
2.00836e-06
0.499889
1.88823e-06
0.499889
1.86727e-06
0.49989
1.88281e-06
0.49989
1.83981e-06
0.49989
1.73267e-06
0.49989
1.65227e-06
0.499891
1.67979e-06
0.499891
1.79512e-06
0.499891
1.90782e-06
0.499891
1.95256e-06
0.499892
1.94642e-06
0.499892
1.94726e-06
0.499892
1.97249e-06
0.499892
1.98525e-06
0.499893
1.98035e-06
1.89955e-06
0.499839
1.94122e-07
0.49984
-2.73274e-08
0.499841
-1.65429e-07
0.499842
5.12051e-07
0.499843
1.261e-06
0.499844
1.08587e-06
0.499845
8.76573e-07
0.499846
6.82983e-07
0.499847
8.91859e-07
0.499848
1.26275e-06
0.499849
1.6219e-06
0.499849
1.8306e-06
0.499849
2.18905e-06
0.499848
2.3858e-06
0.499847
2.40635e-06
0.499846
2.38835e-06
0.499846
2.16796e-06
0.499845
2.14187e-06
0.499844
2.43466e-06
0.499844
2.21395e-06
0.499844
1.5986e-06
0.499844
1.62154e-06
0.499843
1.91165e-06
0.499844
1.63054e-06
0.499844
1.39009e-06
0.499845
1.53987e-06
0.499846
1.87756e-06
0.499846
2.23506e-06
0.499846
2.14148e-06
0.499847
1.85401e-06
0.499847
1.8355e-06
0.499848
1.99124e-06
0.499848
2.09873e-06
0.499848
2.05331e-06
0.499847
1.8805e-06
0.499846
1.79746e-06
0.499846
1.8436e-06
0.499845
1.76643e-06
0.499844
1.56023e-06
0.499844
1.48376e-06
0.499844
1.54027e-06
0.499844
1.62852e-06
0.499844
1.79081e-06
0.499844
1.91669e-06
0.499844
1.88382e-06
0.499844
1.84516e-06
0.499844
1.83675e-06
0.499844
1.75736e-06
0.499844
1.75165e-06
0.499845
1.88883e-06
0.499845
1.95765e-06
0.499846
1.9103e-06
0.499847
1.9066e-06
0.499848
1.94465e-06
0.499848
1.87311e-06
0.499849
1.68747e-06
0.499849
1.56161e-06
0.49985
1.55394e-06
0.499851
1.51082e-06
0.499851
1.40645e-06
0.499852
1.43457e-06
0.499853
1.62083e-06
0.499853
1.73104e-06
0.499854
1.64371e-06
0.499854
1.49249e-06
0.499855
1.44481e-06
0.499856
1.52555e-06
0.499856
1.59976e-06
0.499857
1.52977e-06
0.499858
1.37948e-06
0.499859
1.32417e-06
0.499859
1.37767e-06
0.49986
1.42419e-06
0.499861
1.44894e-06
0.499862
1.52258e-06
0.499862
1.64216e-06
0.499863
1.75322e-06
0.499863
1.85088e-06
0.499863
1.94382e-06
0.499864
1.97399e-06
0.499864
1.88179e-06
0.499864
1.75522e-06
0.499864
1.76305e-06
0.499864
1.91429e-06
0.499863
2.02949e-06
0.499863
1.9661e-06
0.499863
1.79231e-06
0.499863
1.70538e-06
0.499863
1.78514e-06
0.499863
1.8944e-06
0.499863
1.87071e-06
0.499863
1.76143e-06
0.499862
1.74688e-06
0.499862
1.85095e-06
0.499862
1.91379e-06
0.499862
1.86985e-06
0.499862
1.84658e-06
0.499862
1.91946e-06
0.499862
1.97653e-06
0.499862
1.92857e-06
0.499862
1.86494e-06
0.499862
1.88391e-06
0.499862
1.92606e-06
0.499862
1.89021e-06
0.499862
1.79344e-06
0.499862
1.71931e-06
0.499862
1.69499e-06
0.499863
1.70365e-06
0.499863
1.74401e-06
0.499863
1.79958e-06
0.499864
1.80687e-06
0.499864
1.73483e-06
0.499864
1.65658e-06
0.499864
1.66238e-06
0.499865
1.73804e-06
0.499865
1.80436e-06
0.499865
1.83669e-06
0.499865
1.85762e-06
0.499865
1.84435e-06
0.499866
1.74132e-06
0.499866
1.56895e-06
0.499866
1.44478e-06
0.499867
1.47025e-06
0.499867
1.61983e-06
0.499867
1.76287e-06
0.499868
1.79468e-06
0.499868
1.72946e-06
0.499869
1.6578e-06
0.499869
1.63919e-06
0.49987
1.65772e-06
0.49987
1.6746e-06
0.49987
1.68022e-06
0.499871
1.68408e-06
0.499871
1.69435e-06
0.499872
1.72108e-06
0.499872
1.74605e-06
0.499873
1.70064e-06
0.499873
1.55688e-06
0.499874
1.43029e-06
0.499875
1.47635e-06
0.499875
1.66296e-06
0.499876
1.77302e-06
0.499876
1.68455e-06
0.499877
1.51395e-06
0.499878
1.43095e-06
0.499878
1.45148e-06
0.499879
1.48331e-06
0.49988
1.50369e-06
0.49988
1.56715e-06
0.499881
1.67724e-06
0.499881
1.76558e-06
0.499882
1.79676e-06
0.499882
1.81101e-06
0.499883
1.84354e-06
0.499883
1.86443e-06
0.499883
1.83707e-06
0.499883
1.80282e-06
0.499884
1.85984e-06
0.499884
2.04124e-06
0.499883
2.24521e-06
0.499883
2.33153e-06
0.499883
2.28191e-06
0.499882
2.21286e-06
0.499882
2.22472e-06
0.499882
2.28506e-06
0.499881
2.28802e-06
0.499881
2.20134e-06
0.49988
2.10165e-06
0.49988
2.07837e-06
0.49988
2.14416e-06
0.49988
2.22977e-06
0.499879
2.25092e-06
0.499879
2.18156e-06
0.499879
2.07005e-06
0.499879
1.98667e-06
0.499879
1.95005e-06
0.499879
1.91295e-06
0.499879
1.83104e-06
0.499879
1.73278e-06
0.499879
1.69543e-06
0.499879
1.75114e-06
0.499879
1.84367e-06
0.499879
1.90106e-06
0.499879
1.93105e-06
0.499879
1.99206e-06
0.499879
2.08465e-06
0.499879
2.12285e-06
0.499879
2.03902e-06
0.499879
1.87848e-06
0.49988
1.75334e-06
0.49988
1.7234e-06
0.49988
1.74501e-06
0.499881
1.73006e-06
0.499881
1.64139e-06
0.499882
1.53447e-06
0.499882
1.50142e-06
0.499883
1.57089e-06
0.499884
1.66432e-06
0.499884
1.68328e-06
0.499884
1.62213e-06
0.499885
1.56516e-06
0.499885
1.59215e-06
0.499886
1.70229e-06
0.499886
1.82542e-06
0.499886
1.89337e-06
0.499886
1.88353e-06
0.499886
1.81625e-06
0.499887
1.73695e-06
0.499887
1.69044e-06
0.499887
1.69444e-06
0.499887
1.7244e-06
0.499887
1.73328e-06
0.499887
1.71062e-06
0.499887
1.70878e-06
0.499887
1.77696e-06
0.499887
1.88052e-06
0.499887
1.92547e-06
0.499888
1.8688e-06
0.499888
1.77304e-06
0.499888
1.72641e-06
0.499888
1.7249e-06
0.499888
1.67512e-06
0.499889
1.52573e-06
0.499889
1.36096e-06
0.499889
1.32247e-06
0.49989
1.43989e-06
0.49989
1.59816e-06
0.49989
1.67955e-06
0.49989
1.68546e-06
0.49989
1.71003e-06
0.499891
1.81935e-06
0.499891
1.9751e-06
0.499891
2.07157e-06
0.499891
2.03659e-06
0.499891
1.90113e-06
0.499891
1.77066e-06
0.499891
1.71995e-06
0.499891
1.72362e-06
0.499891
1.70582e-06
0.499891
1.64013e-06
0.499892
1.57723e-06
0.499892
1.58034e-06
0.499892
1.65213e-06
0.499892
1.73255e-06
0.499892
1.76597e-06
0.499893
1.75228e-06
0.499893
1.71937e-06
0.499893
1.68032e-06
0.499894
1.61059e-06
1.5352e-06
0.499838
3.60918e-08
0.499838
4.3641e-07
0.499836
9.80889e-07
0.499836
7.72366e-07
0.499837
7.03299e-07
0.499837
1.16662e-06
0.499836
1.31542e-06
0.499835
1.67177e-06
0.499834
1.62167e-06
0.499834
1.32374e-06
0.499835
1.1778e-06
0.499836
1.10863e-06
0.499837
1.0402e-06
0.499838
8.40483e-07
0.49984
6.46982e-07
0.499842
8.3817e-07
0.499842
1.21852e-06
0.499844
1.1276e-06
0.499845
1.16966e-06
0.499845
1.60134e-06
0.499845
1.81935e-06
0.499845
1.65847e-06
0.499845
1.68267e-06
0.499845
1.74895e-06
0.499845
1.45038e-06
0.499846
1.1277e-06
0.499846
1.04473e-06
0.499848
1.10474e-06
0.499849
1.129e-06
0.499849
1.17321e-06
0.49985
1.23113e-06
0.499851
1.21192e-06
0.499851
1.29597e-06
0.499852
1.55909e-06
0.499852
1.69595e-06
0.499852
1.65243e-06
0.499852
1.73239e-06
0.499852
1.92798e-06
0.499852
1.94218e-06
0.499851
1.80725e-06
0.499851
1.70596e-06
0.499851
1.63725e-06
0.499852
1.60183e-06
0.499852
1.59554e-06
0.499852
1.57008e-06
0.499852
1.61796e-06
0.499853
1.69523e-06
0.499853
1.53664e-06
0.499853
1.26203e-06
0.499854
1.23982e-06
0.499854
1.37495e-06
0.499855
1.32859e-06
0.499856
1.15898e-06
0.499857
1.18716e-06
0.499857
1.45765e-06
0.499857
1.69365e-06
0.499857
1.7517e-06
0.499857
1.7852e-06
0.499856
1.8761e-06
0.499856
1.8941e-06
0.499855
1.79495e-06
0.499855
1.69419e-06
0.499855
1.67044e-06
0.499855
1.72624e-06
0.499855
1.82991e-06
0.499854
1.91654e-06
0.499854
1.9521e-06
0.499854
1.94298e-06
0.499853
1.861e-06
0.499853
1.70196e-06
0.499853
1.56174e-06
0.499853
1.49939e-06
0.499853
1.45203e-06
0.499853
1.38689e-06
0.499853
1.36706e-06
0.499853
1.40173e-06
0.499853
1.39613e-06
0.499854
1.30137e-06
0.499855
1.20993e-06
0.499855
1.22781e-06
0.499856
1.30534e-06
0.499856
1.32486e-06
0.499857
1.293e-06
0.499858
1.32037e-06
0.499858
1.44846e-06
0.499858
1.58037e-06
0.499859
1.59741e-06
0.499859
1.50216e-06
0.499859
1.41208e-06
0.49986
1.4035e-06
0.49986
1.41525e-06
0.499861
1.38298e-06
0.499861
1.37885e-06
0.499861
1.48295e-06
0.499862
1.59782e-06
0.499862
1.56399e-06
0.499862
1.4245e-06
0.499863
1.37897e-06
0.499863
1.48968e-06
0.499864
1.6239e-06
0.499864
1.68485e-06
0.499864
1.71425e-06
0.499864
1.7543e-06
0.499864
1.77194e-06
0.499864
1.75174e-06
0.499864
1.74013e-06
0.499864
1.76066e-06
0.499864
1.77751e-06
0.499864
1.76763e-06
0.499864
1.75533e-06
0.499864
1.74569e-06
0.499864
1.69808e-06
0.499864
1.61693e-06
0.499864
1.58067e-06
0.499865
1.63374e-06
0.499865
1.70915e-06
0.499865
1.71798e-06
0.499865
1.66179e-06
0.499865
1.59872e-06
0.499865
1.54708e-06
0.499865
1.48343e-06
0.499866
1.41135e-06
0.499866
1.38448e-06
0.499866
1.44585e-06
0.499866
1.56116e-06
0.499866
1.63225e-06
0.499866
1.59246e-06
0.499866
1.47436e-06
0.499867
1.37491e-06
0.499867
1.36251e-06
0.499867
1.4361e-06
0.499867
1.54843e-06
0.499867
1.63581e-06
0.499868
1.64459e-06
0.499868
1.5846e-06
0.499868
1.53595e-06
0.499868
1.54509e-06
0.499868
1.55297e-06
0.499868
1.50318e-06
0.499868
1.47174e-06
0.499868
1.56357e-06
0.499868
1.71969e-06
0.499868
1.76354e-06
0.499868
1.63379e-06
0.499868
1.45931e-06
0.499868
1.38025e-06
0.499868
1.39891e-06
0.499868
1.44643e-06
0.499868