/*--------------------------------*- C++ -*----------------------------------*\
| =========                 |                                                 |
| \\      /  F ield         | OpenFOAM: The Open Source CFD Toolbox           |
|  \\    /   O peration     | Version:  2406                                  |
|   \\  /    A nd           | Website:  www.openfoam.com                      |
|    \\/     M anipulation  |                                                 |
\*---------------------------------------------------------------------------*/
FoamFile
{
    version     2.0;
    format      ascii;
    arch        "LSB;label=32;scalar=64";
    class       volVectorField;
    location    "0.8";
    object      U;
}
// * * * * * * * * * * * * * * * * * * * * * * * * * * * * * * * * * * * * * //

dimensions      [0 1 -1 0 0 0 0];

internalField   nonuniform List<vector> 
6250
(
(49.3832 0.000143304 0)
(83.541 0.000579864 0)
(71.6765 0.00079318 0)
(59.3142 0.000712702 0)
(58.5765 0.0006342 0)
(61.9544 0.00065422 0)
(63.4318 0.000691044 0)
(62.9917 0.000690149 0)
(62.3888 0.000670994 0)
(62.2881 0.000691521 0)
(62.4272 0.000703333 0)
(62.5096 0.000688819 0)
(62.4996 0.000690713 0)
(62.4708 0.000773746 0)
(62.4621 0.000913593 0)
(62.4665 0.00100964 0)
(62.47 0.00104267 0)
(62.4694 0.00103915 0)
(62.4673 0.00101432 0)
(62.4661 0.000996846 0)
(62.4655 0.00098556 0)
(62.465 0.000966411 0)
(62.4642 0.000952146 0)
(62.4635 0.000949084 0)
(62.4628 0.000923108 0)
(62.4622 0.00088437 0)
(62.4615 0.000865232 0)
(62.4607 0.000847015 0)
(62.46 0.000802106 0)
(62.4593 0.000721189 0)
(62.4587 0.000642846 0)
(62.4582 0.000619511 0)
(62.4576 0.000662312 0)
(62.457 0.000757679 0)
(62.4564 0.000883743 0)
(62.4557 0.00101024 0)
(62.455 0.00112829 0)
(62.4543 0.00122627 0)
(62.4535 0.00126 0)
(62.4528 0.00122059 0)
(62.4523 0.00116879 0)
(62.4517 0.00114962 0)
(62.4511 0.00113889 0)
(62.4503 0.00110218 0)
(62.4496 0.00104132 0)
(62.4489 0.000981348 0)
(62.4482 0.000949011 0)
(62.4475 0.000939356 0)
(62.4467 0.000918785 0)
(62.446 0.000879948 0)
(62.4453 0.000835581 0)
(62.4446 0.000775161 0)
(62.444 0.000692497 0)
(62.4435 0.000619044 0)
(62.443 0.000587088 0)
(62.4424 0.000594692 0)
(62.4417 0.000622945 0)
(62.4411 0.000662825 0)
(62.4405 0.000707093 0)
(62.4399 0.00073398 0)
(62.4393 0.000726306 0)
(62.4387 0.000697002 0)
(62.4382 0.000668921 0)
(62.4376 0.000645061 0)
(62.437 0.000621325 0)
(62.4364 0.00060809 0)
(62.4358 0.000619918 0)
(62.4352 0.000658007 0)
(62.4346 0.000709738 0)
(62.4339 0.000759621 0)
(62.4333 0.000802817 0)
(62.4326 0.000845476 0)
(62.4319 0.000886203 0)
(62.4312 0.000911644 0)
(62.4305 0.000918061 0)
(62.4299 0.000918453 0)
(62.4292 0.000924546 0)
(62.4284 0.000940105 0)
(62.4277 0.00096968 0)
(62.427 0.00101318 0)
(62.4262 0.00105348 0)
(62.4254 0.00106987 0)
(62.4246 0.00106855 0)
(62.4238 0.00108119 0)
(62.423 0.001123 0)
(62.4222 0.0011713 0)
(62.4214 0.00119829 0)
(62.4206 0.00121003 0)
(62.4199 0.00123555 0)
(62.4191 0.00128203 0)
(62.4183 0.00131853 0)
(62.4174 0.00131232 0)
(62.4167 0.00127208 0)
(62.4159 0.00123757 0)
(62.4151 0.00122852 0)
(62.4143 0.00122569 0)
(62.4136 0.0012067 0)
(62.4128 0.00117649 0)
(62.4121 0.0011497 0)
(62.4114 0.00112509 0)
(62.4106 0.00109755 0)
(62.4099 0.00107821 0)
(62.4092 0.00107887 0)
(62.4085 0.00108705 0)
(62.4078 0.00107822 0)
(62.4071 0.00104843 0)
(62.4065 0.00101775 0)
(62.4058 0.00100412 0)
(62.4051 0.00100652 0)
(62.4045 0.00101178 0)
(62.4038 0.001009 0)
(62.4032 0.000996639 0)
(62.4025 0.000980664 0)
(62.4019 0.000967232 0)
(62.4013 0.000956025 0)
(62.4007 0.000942154 0)
(62.4 0.000924675 0)
(62.3994 0.000908822 0)
(62.3987 0.00089606 0)
(62.3981 0.000878285 0)
(62.3975 0.000849708 0)
(62.3969 0.000819965 0)
(62.3963 0.000806832 0)
(62.3957 0.000815143 0)
(62.3951 0.000828041 0)
(62.3945 0.00082286 0)
(62.3939 0.000793814 0)
(62.3933 0.000757533 0)
(62.3927 0.000735492 0)
(62.3921 0.000734701 0)
(62.3915 0.000744683 0)
(62.391 0.000751578 0)
(62.3904 0.000749526 0)
(62.3898 0.000739865 0)
(62.3893 0.00072502 0)
(62.3887 0.000707186 0)
(62.3881 0.000688783 0)
(62.3876 0.000670601 0)
(62.387 0.000654056 0)
(62.3865 0.000646437 0)
(62.386 0.00065369 0)
(62.3854 0.000664421 0)
(62.3848 0.000655109 0)
(62.3843 0.000622145 0)
(62.3838 0.000595757 0)
(62.3833 0.000606652 0)
(62.3827 0.000646209 0)
(62.3821 0.000675552 0)
(62.3815 0.000672976 0)
(62.3809 0.000655685 0)
(62.3804 0.000653307 0)
(62.3798 0.000673972 0)
(62.3792 0.000705188 0)
(62.3786 0.000736807 0)
(62.378 0.000770159 0)
(62.3774 0.000808051 0)
(62.3768 0.000847107 0)
(62.3761 0.000882592 0)
(62.3755 0.000913639 0)
(62.3749 0.000938946 0)
(62.3742 0.000953176 0)
(62.3736 0.000955999 0)
(62.3729 0.000961231 0)
(62.3723 0.00098626 0)
(62.3717 0.00102855 0)
(62.371 0.0010626 0)
(62.3703 0.00106777 0)
(62.3696 0.00105379 0)
(62.369 0.00104877 0)
(62.3683 0.0010637 0)
(62.3677 0.00107938 0)
(62.367 0.00107039 0)
(62.3663 0.00103495 0)
(62.3657 0.000995584 0)
(62.3651 0.000975482 0)
(62.3644 0.000977958 0)
(62.3638 0.000987024 0)
(62.3631 0.000983913 0)
(62.3625 0.00096297 0)
(62.3618 0.000934036 0)
(62.3612 0.000909972 0)
(62.3606 0.000891499 0)
(62.36 0.000866313 0)
(62.3594 0.000825478 0)
(62.3588 0.000777375 0)
(62.3583 0.000740522 0)
(62.3577 0.000722847 0)
(62.3571 0.000713583 0)
(62.3566 0.000698548 0)
(62.3561 0.000677206 0)
(62.3555 0.000658347 0)
(62.355 0.000643783 0)
(62.3545 0.000623825 0)
(62.3541 0.000590021 0)
(62.3536 0.000548528 0)
(62.3532 0.000516933 0)
(62.3528 0.000506998 0)
(62.3524 0.000511179 0)
(62.352 0.000506942 0)
(62.3517 0.000478583 0)
(62.3513 0.000434565 0)
(62.3511 0.000397437 0)
(62.3508 0.000377652 0)
(62.3505 0.00036252 0)
(62.3503 0.000331632 0)
(62.35 0.000281897 0)
(62.3499 0.000232645 0)
(62.3497 0.000204665 0)
(62.3495 0.000201792 0)
(62.3494 0.000210213 0)
(62.3492 0.000211511 0)
(62.349 0.000195245 0)
(62.3489 0.000162149 0)
(62.3487 0.00012012 0)
(62.3486 7.98039e-05 0)
(62.3485 4.87813e-05 0)
(62.3484 2.60983e-05 0)
(62.3483 5.09184e-06 0)
(62.3483 -1.72193e-05 0)
(62.3482 -3.77083e-05 0)
(62.3482 -5.55118e-05 0)
(62.3481 -7.81695e-05 0)
(62.3481 -0.000112295 0)
(62.3481 -0.000150172 0)
(62.3481 -0.00017292 0)
(62.3481 -0.000167426 0)
(62.3481 -0.000144956 0)
(62.3481 -0.00013352 0)
(62.348 -0.000144996 0)
(62.348 -0.00016175 0)
(62.348 -0.000159799 0)
(62.348 -0.000137626 0)
(62.3479 -0.000115559 0)
(62.3478 -0.000111379 0)
(62.3478 -0.000120428 0)
(62.3477 -0.000121338 0)
(62.3477 -9.95317e-05 0)
(62.3476 -6.35992e-05 0)
(62.3475 -3.84555e-05 0)
(62.3475 -4.52085e-05 0)
(62.3474 -8.07478e-05 0)
(62.3474 -0.000121073 0)
(62.3474 -0.000148847 0)
(62.3473 -0.000163053 0)
(62.3473 -0.000176865 0)
(62.3473 -0.000199955 0)
(62.3473 -0.000227037 0)
(62.3473 -0.000243001 0)
(62.3473 -0.000254894 0)
(62.3473 -0.000235967 0)
(49.3832 8.29088e-05 0)
(83.5429 0.000429561 0)
(71.6798 0.000644055 0)
(59.3188 0.000543462 0)
(58.5816 0.00041695 0)
(61.9605 0.000440937 0)
(63.4383 0.00056119 0)
(62.9996 0.000646044 0)
(62.3976 0.00065841 0)
(62.298 0.000642598 0)
(62.4382 0.000587634 0)
(62.5213 0.000512885 0)
(62.512 0.000444964 0)
(62.4842 0.000432877 0)
(62.4767 0.000485982 0)
(62.4826 0.000517653 0)
(62.4874 0.000508512 0)
(62.4882 0.000499425 0)
(62.4873 0.000474691 0)
(62.4873 0.000464369 0)
(62.488 0.000479377 0)
(62.4886 0.000479249 0)
(62.489 0.000462203 0)
(62.4894 0.000473192 0)
(62.4897 0.000489758 0)
(62.4899 0.00048872 0)
(62.4904 0.000514556 0)
(62.4909 0.000575472 0)
(62.4914 0.000640328 0)
(62.4917 0.000647756 0)
(62.4919 0.000586553 0)
(62.4921 0.000512133 0)
(62.4923 0.0004573 0)
(62.4926 0.000418933 0)
(62.493 0.000381199 0)
(62.4933 0.000319637 0)
(62.4938 0.000246924 0)
(62.4943 0.000200026 0)
(62.4948 0.000161001 0)
(62.4951 9.30279e-05 0)
(62.4954 3.42083e-05 0)
(62.4958 5.36004e-05 0)
(62.4963 0.000149313 0)
(62.4967 0.000265431 0)
(62.4972 0.000358637 0)
(62.4976 0.000415811 0)
(62.498 0.000461377 0)
(62.4984 0.00051545 0)
(62.4988 0.000550669 0)
(62.4991 0.000554758 0)
(62.4995 0.000557975 0)
(62.4998 0.000561549 0)
(62.5 0.000544205 0)
(62.5002 0.000527683 0)
(62.5005 0.000547198 0)
(62.5007 0.000587404 0)
(62.5009 0.000601492 0)
(62.5011 0.000575316 0)
(62.5014 0.000535873 0)
(62.5017 0.000501617 0)
(62.502 0.000468474 0)
(62.5022 0.000449438 0)
(62.5025 0.000471252 0)
(62.5028 0.000524326 0)
(62.503 0.000566025 0)
(62.5032 0.000573845 0)
(62.5035 0.000561849 0)
(62.5038 0.000552564 0)
(62.5041 0.000549861 0)
(62.5045 0.000536304 0)
(62.5048 0.000500414 0)
(62.5051 0.000461256 0)
(62.5055 0.000445215 0)
(62.5059 0.000449864 0)
(62.5063 0.000456344 0)
(62.5067 0.000459326 0)
(62.5071 0.000462762 0)
(62.5075 0.000466821 0)
(62.5079 0.000474661 0)
(62.5084 0.000492787 0)
(62.5089 0.000512661 0)
(62.5094 0.000509865 0)
(62.5098 0.000476532 0)
(62.5103 0.000440314 0)
(62.5108 0.000429396 0)
(62.5113 0.000429924 0)
(62.5117 0.000403717 0)
(62.5122 0.000342975 0)
(62.5127 0.000286388 0)
(62.5132 0.00027542 0)
(62.5138 0.000304072 0)
(62.5143 0.000327225 0)
(62.5148 0.000317563 0)
(62.5153 0.000295859 0)
(62.5158 0.000293949 0)
(62.5163 0.00030979 0)
(62.5167 0.00032076 0)
(62.5171 0.000324623 0)
(62.5176 0.000335968 0)
(62.518 0.00035112 0)
(62.5184 0.000350979 0)
(62.5187 0.000337446 0)
(62.5191 0.00033419 0)
(62.5195 0.000347876 0)
(62.5199 0.00035673 0)
(62.5203 0.000343763 0)
(62.5206 0.000318963 0)
(62.5209 0.000302038 0)
(62.5213 0.000300037 0)
(62.5216 0.000307264 0)
(62.522 0.000314867 0)
(62.5223 0.000315533 0)
(62.5227 0.000307769 0)
(62.523 0.00030037 0)
(62.5233 0.000305797 0)
(62.5236 0.000325737 0)
(62.524 0.000349369 0)
(62.5243 0.000368152 0)
(62.5246 0.00038283 0)
(62.5249 0.000393108 0)
(62.5252 0.00039207 0)
(62.5255 0.000379024 0)
(62.5258 0.000368859 0)
(62.5261 0.00037891 0)
(62.5264 0.000407278 0)
(62.5268 0.000432072 0)
(62.527 0.000433758 0)
(62.5273 0.000416183 0)
(62.5275 0.000401426 0)
(62.5278 0.000405205 0)
(62.5281 0.000421019 0)
(62.5284 0.000430581 0)
(62.5286 0.000424852 0)
(62.5289 0.0004113 0)
(62.5291 0.000403603 0)
(62.5294 0.000409787 0)
(62.5296 0.000427135 0)
(62.5299 0.000442346 0)
(62.5301 0.000441782 0)
(62.5303 0.000430403 0)
(62.5306 0.000432272 0)
(62.5308 0.000459008 0)
(62.5311 0.000487148 0)
(62.5312 0.000485754 0)
(62.5313 0.000460875 0)
(62.5316 0.000449491 0)
(62.5319 0.000469858 0)
(62.5322 0.000498293 0)
(62.5325 0.000503313 0)
(62.5327 0.000483461 0)
(62.5329 0.000460707 0)
(62.5331 0.000448803 0)
(62.5334 0.000443687 0)
(62.5336 0.000438488 0)
(62.5339 0.000432134 0)
(62.5343 0.000422757 0)
(62.5346 0.000404963 0)
(62.535 0.000378771 0)
(62.5354 0.000354717 0)
(62.5357 0.00034265 0)
(62.5361 0.000336862 0)
(62.5364 0.00032103 0)
(62.5367 0.000291008 0)
(62.537 0.000265221 0)
(62.5374 0.000263716 0)
(62.5378 0.000281113 0)
(62.5382 0.000290728 0)
(62.5386 0.000276426 0)
(62.539 0.000251422 0)
(62.5393 0.000240624 0)
(62.5398 0.000251854 0)
(62.5401 0.000270734 0)
(62.5405 0.000280075 0)
(62.5408 0.000277933 0)
(62.5411 0.000277079 0)
(62.5415 0.000290141 0)
(62.5418 0.000316069 0)
(62.5422 0.000340493 0)
(62.5426 0.000349453 0)
(62.5429 0.000343439 0)
(62.5433 0.000336856 0)
(62.5436 0.000342196 0)
(62.5439 0.000356545 0)
(62.5441 0.000367752 0)
(62.5444 0.000372458 0)
(62.5446 0.000380677 0)
(62.5448 0.000399274 0)
(62.545 0.000417464 0)
(62.5452 0.000417377 0)
(62.5454 0.000397633 0)
(62.5456 0.00037684 0)
(62.5458 0.000371546 0)
(62.5459 0.000377011 0)
(62.5461 0.00037365 0)
(62.5461 0.000350152 0)
(62.5462 0.000316718 0)
(62.5463 0.000294815 0)
(62.5464 0.000294105 0)
(62.5465 0.000299935 0)
(62.5465 0.000287453 0)
(62.5465 0.000249593 0)
(62.5465 0.000205943 0)
(62.5465 0.000181845 0)
(62.5465 0.000182467 0)
(62.5464 0.000189532 0)
(62.5463 0.000182708 0)
(62.5462 0.000159829 0)
(62.546 0.000135047 0)
(62.5459 0.000124012 0)
(62.5458 0.00013131 0)
(62.5457 0.00014919 0)
(62.5456 0.00016523 0)
(62.5454 0.000170931 0)
(62.5453 0.000166392 0)
(62.5451 0.000160714 0)
(62.5449 0.000164349 0)
(62.5447 0.000176915 0)
(62.5444 0.000185778 0)
(62.5442 0.000180793 0)
(62.5439 0.000167676 0)
(62.5437 0.000161765 0)
(62.5434 0.000168363 0)
(62.5432 0.000175574 0)
(62.5428 0.000169997 0)
(62.5425 0.000156108 0)
(62.5422 0.000155118 0)
(62.542 0.00017741 0)
(62.5418 0.000205123 0)
(62.5415 0.000212938 0)
(62.5411 0.000198933 0)
(62.5408 0.000186269 0)
(62.5406 0.000195782 0)
(62.5403 0.000223237 0)
(62.5401 0.000244541 0)
(62.5398 0.000241175 0)
(62.5396 0.000218107 0)
(62.5393 0.000197461 0)
(62.5391 0.000195505 0)
(62.539 0.000207292 0)
(62.5388 0.00021322 0)
(62.5385 0.000203164 0)
(62.5383 0.000188725 0)
(62.538 0.000187045 0)
(62.5377 0.000204282 0)
(62.5375 0.000228425 0)
(62.5371 0.00024232 0)
(62.5368 0.000242131 0)
(62.5364 0.000234838 0)
(62.5361 0.000231195 0)
(62.5356 0.000224479 0)
(49.3834 -6.46226e-05 0)
(83.5419 -5.63061e-05 0)
(71.6785 5.11719e-05 0)
(59.3169 0.000100496 0)
(58.5796 9.27472e-05 0)
(61.9583 4.17387e-05 0)
(63.4363 1.84721e-05 0)
(62.9973 1.61987e-05 0)
(62.395 5.23979e-06 0)
(62.2952 1.51934e-05 0)
(62.435 5.69269e-05 0)
(62.518 0.000131066 0)
(62.5085 0.000188392 0)
(62.4803 0.000195715 0)
(62.4722 0.000197375 0)
(62.4775 0.000186869 0)
(62.4818 0.000150916 0)
(62.4821 0.000145933 0)
(62.4807 0.000143618 0)
(62.4802 0.000141936 0)
(62.4804 0.000176702 0)
(62.4807 0.000214209 0)
(62.4807 0.000205057 0)
(62.4807 0.000176118 0)
(62.4808 0.000165809 0)
(62.4807 0.000121848 0)
(62.4807 3.52487e-05 0)
(62.4808 -3.30639e-05 0)
(62.481 -1.95866e-05 0)
(62.4812 4.97678e-05 0)
(62.4814 9.8601e-05 0)
(62.4815 0.000124835 0)
(62.4816 0.000160388 0)
(62.4817 0.000214372 0)
(62.4817 0.000284342 0)
(62.4817 0.000342285 0)
(62.4815 0.000360654 0)
(62.4814 0.000370265 0)
(62.4813 0.000406645 0)
(62.4811 0.000431816 0)
(62.4809 0.000400027 0)
(62.4807 0.00033816 0)
(62.4804 0.000292721 0)
(62.4803 0.000271862 0)
(62.4803 0.000265096 0)
(62.4802 0.000249786 0)
(62.4802 0.000214562 0)
(62.4802 0.000184579 0)
(62.4803 0.000165433 0)
(62.4804 0.000133325 0)
(62.4805 0.000101195 0)
(62.4807 9.48084e-05 0)
(62.4809 9.80085e-05 0)
(62.481 9.46987e-05 0)
(62.4811 0.000105229 0)
(62.4813 0.000142359 0)
(62.4815 0.000178121 0)
(62.4816 0.000179653 0)
(62.4817 0.000156326 0)
(62.4819 0.000139192 0)
(62.482 0.000130032 0)
(62.482 0.000115802 0)
(62.482 0.000110184 0)
(62.4821 0.000129428 0)
(62.4822 0.000153407 0)
(62.4823 0.000151101 0)
(62.4824 0.000122853 0)
(62.4825 9.71963e-05 0)
(62.4826 9.90052e-05 0)
(62.4826 0.000123489 0)
(62.4826 0.000142389 0)
(62.4826 0.000143424 0)
(62.4826 0.000145788 0)
(62.4826 0.000162523 0)
(62.4826 0.000177497 0)
(62.4826 0.000175607 0)
(62.4827 0.000164575 0)
(62.4827 0.000154639 0)
(62.4827 0.000143783 0)
(62.4827 0.000134051 0)
(62.4828 0.000140027 0)
(62.4829 0.000166211 0)
(62.4829 0.000192518 0)
(62.4829 0.000201809 0)
(62.483 0.000208071 0)
(62.483 0.000234396 0)
(62.4831 0.000273488 0)
(62.4831 0.000290959 0)
(62.483 0.000268945 0)
(62.4829 0.000234247 0)
(62.4828 0.000229797 0)
(62.4828 0.000261806 0)
(62.4828 0.00029288 0)
(62.4828 0.000294156 0)
(62.4827 0.000281091 0)
(62.4827 0.000281733 0)
(62.4827 0.000293122 0)
(62.4827 0.000295853 0)
(62.4827 0.000292809 0)
(62.4827 0.000300672 0)
(62.4828 0.00031393 0)
(62.4828 0.000310988 0)
(62.4827 0.000291493 0)
(62.4827 0.0002785 0)
(62.4828 0.000284613 0)
(62.4828 0.000298904 0)
(62.4828 0.000307368 0)
(62.4828 0.000307924 0)
(62.4827 0.000304945 0)
(62.4827 0.000302556 0)
(62.4827 0.000303262 0)
(62.4827 0.000304219 0)
(62.4827 0.000297155 0)
(62.4827 0.000280192 0)
(62.4827 0.000265479 0)
(62.4827 0.000264746 0)
(62.4827 0.000271081 0)
(62.4827 0.000267869 0)
(62.4827 0.000253703 0)
(62.4828 0.000243101 0)
(62.4828 0.00024136 0)
(62.4829 0.000235021 0)
(62.4829 0.000212654 0)
(62.4829 0.000184805 0)
(62.483 0.000174629 0)
(62.483 0.00019116 0)
(62.4831 0.00021766 0)
(62.4832 0.000228587 0)
(62.4832 0.000216011 0)
(62.4833 0.00019501 0)
(62.4833 0.000184783 0)
(62.4834 0.000188945 0)
(62.4835 0.000197051 0)
(62.4835 0.000199124 0)
(62.4836 0.000193821 0)
(62.4836 0.000186473 0)
(62.4837 0.000184994 0)
(62.4837 0.000192632 0)
(62.4838 0.000199078 0)
(62.4839 0.000187932 0)
(62.4839 0.000162691 0)
(62.484 0.000152432 0)
(62.4841 0.00017594 0)
(62.4842 0.000209668 0)
(62.4843 0.000211978 0)
(62.4843 0.000175251 0)
(62.4844 0.000135575 0)
(62.4845 0.00012902 0)
(62.4846 0.000154308 0)
(62.4846 0.000184454 0)
(62.4847 0.000200325 0)
(62.4848 0.000202598 0)
(62.4848 0.000199386 0)
(62.4849 0.000195803 0)
(62.4849 0.000194648 0)
(62.485 0.000197711 0)
(62.485 0.000203365 0)
(62.4851 0.0002075 0)
(62.4851 0.000211371 0)
(62.4851 0.000226143 0)
(62.4851 0.000261278 0)
(62.4851 0.000305871 0)
(62.4851 0.000331465 0)
(62.4851 0.000322062 0)
(62.485 0.000296334 0)
(62.485 0.000288788 0)
(62.485 0.000309558 0)
(62.485 0.000333326 0)
(62.4849 0.000331918 0)
(62.4849 0.000308142 0)
(62.4848 0.000289967 0)
(62.4848 0.000297032 0)
(62.4848 0.000320026 0)
(62.4848 0.000333094 0)
(62.4848 0.000320616 0)
(62.4848 0.000290437 0)
(62.4848 0.000263332 0)
(62.4848 0.000252544 0)
(62.4849 0.000253515 0)
(62.4849 0.000252351 0)
(62.485 0.000243422 0)
(62.485 0.000236675 0)
(62.4851 0.000245045 0)
(62.4852 0.000266424 0)
(62.4853 0.000284306 0)
(62.4853 0.000287573 0)
(62.4854 0.00028288 0)
(62.4855 0.000282354 0)
(62.4856 0.000284296 0)
(62.4857 0.000275771 0)
(62.4857 0.000253721 0)
(62.4858 0.000234006 0)
(62.4859 0.000235735 0)
(62.486 0.00026023 0)
(62.486 0.000288189 0)
(62.4861 0.000297955 0)
(62.4861 0.000287068 0)
(62.4861 0.000275444 0)
(62.4862 0.000285169 0)
(62.4862 0.000316089 0)
(62.4862 0.000345142 0)
(62.4863 0.00035241 0)
(62.4862 0.000343616 0)
(62.4862 0.000343288 0)
(62.4862 0.000367855 0)
(62.4863 0.000407969 0)
(62.4863 0.000437914 0)
(62.4864 0.000440441 0)
(62.4864 0.000419741 0)
(62.4863 0.00039428 0)
(62.4863 0.000380589 0)
(62.4864 0.000383311 0)
(62.4865 0.00039572 0)
(62.4865 0.00040665 0)
(62.4866 0.00040938 0)
(62.4866 0.000407382 0)
(62.4867 0.00040943 0)
(62.4867 0.000416651 0)
(62.4868 0.000418146 0)
(62.4868 0.00040443 0)
(62.4869 0.000383216 0)
(62.4869 0.000374813 0)
(62.487 0.000387889 0)
(62.4871 0.000405815 0)
(62.4872 0.000404998 0)
(62.4872 0.000384005 0)
(62.4873 0.000368609 0)
(62.4873 0.000381901 0)
(62.4874 0.000414268 0)
(62.4875 0.000433661 0)
(62.4875 0.000422864 0)
(62.4875 0.000397606 0)
(62.4875 0.000386056 0)
(62.4875 0.00039738 0)
(62.4876 0.000413037 0)
(62.4876 0.000407333 0)
(62.4876 0.000374739 0)
(62.4876 0.000336014 0)
(62.4876 0.000317726 0)
(62.4877 0.000328334 0)
(62.4877 0.000352476 0)
(62.4878 0.000369036 0)
(62.4878 0.000373596 0)
(62.4878 0.000376809 0)
(62.4878 0.000390074 0)
(62.4879 0.000411347 0)
(62.488 0.000429272 0)
(62.488 0.000431617 0)
(62.4881 0.000436079 0)
(62.4881 0.000408808 0)
(49.3836 -6.5198e-06 0)
(83.5421 6.45021e-05 0)
(71.6788 0.000204749 0)
(59.317 0.000308969 0)
(58.5797 0.000331417 0)
(61.9582 0.000309365 0)
(63.4358 0.000300887 0)
(62.9966 0.000331861 0)
(62.3941 0.000360063 0)
(62.2941 0.000399532 0)
(62.4338 0.000422163 0)
(62.5169 0.000413267 0)
(62.5074 0.000373359 0)
(62.4793 0.000312618 0)
(62.4715 0.000285112 0)
(62.4769 0.00029534 0)
(62.4812 0.000299238 0)
(62.4815 0.000316027 0)
(62.4804 0.000322038 0)
(62.4798 0.000305319 0)
(62.4801 0.000318378 0)
(62.4804 0.000364215 0)
(62.4805 0.000386815 0)
(62.4806 0.000375356 0)
(62.4806 0.000399363 0)
(62.4806 0.000431434 0)
(62.4806 0.000413737 0)
(62.4804 0.000349746 0)
(62.4803 0.000293209 0)
(62.4802 0.000296474 0)
(62.48 0.000316924 0)
(62.4799 0.000315469 0)
(62.4799 0.000299703 0)
(62.4798 0.00027798 0)
(62.4799 0.000274938 0)
(62.4802 0.000310993 0)
(62.4804 0.000355369 0)
(62.4806 0.000376333 0)
(62.4809 0.000401083 0)
(62.4813 0.000452985 0)
(62.4816 0.000498281 0)
(62.4818 0.000502948 0)
(62.482 0.000468245 0)
(62.4821 0.000413019 0)
(62.4822 0.000370847 0)
(62.4824 0.000355538 0)
(62.4825 0.000344174 0)
(62.4825 0.00033712 0)
(62.4826 0.000349442 0)
(62.4825 0.000357475 0)
(62.4824 0.00034603 0)
(62.4823 0.000341259 0)
(62.4822 0.00034835 0)
(62.482 0.000337741 0)
(62.4818 0.000304377 0)
(62.4817 0.000281512 0)
(62.4817 0.000290505 0)
(62.4817 0.000312021 0)
(62.4817 0.000324459 0)
(62.4816 0.000339133 0)
(62.4816 0.000366406 0)
(62.4816 0.000384966 0)
(62.4815 0.000378041 0)
(62.4815 0.000361435 0)
(62.4815 0.000356101 0)
(62.4815 0.000364624 0)
(62.4815 0.000378236 0)
(62.4814 0.000388493 0)
(62.4814 0.000397107 0)
(62.4814 0.00041343 0)
(62.4814 0.000433993 0)
(62.4814 0.000442483 0)
(62.4814 0.000435603 0)
(62.4814 0.000423165 0)
(62.4815 0.000405601 0)
(62.4815 0.000379862 0)
(62.4815 0.000358452 0)
(62.4815 0.000355432 0)
(62.4815 0.000361266 0)
(62.4815 0.000354239 0)
(62.4815 0.0003343 0)
(62.4815 0.000323149 0)
(62.4816 0.000327792 0)
(62.4816 0.000328701 0)
(62.4816 0.000312978 0)
(62.4817 0.000298407 0)
(62.4818 0.000311578 0)
(62.4819 0.000352089 0)
(62.4821 0.000388924 0)
(62.4821 0.000394008 0)
(62.4822 0.000373761 0)
(62.4823 0.000355733 0)
(62.4825 0.000350451 0)
(62.4826 0.000345758 0)
(62.4826 0.000337239 0)
(62.4827 0.000336835 0)
(62.4829 0.000344601 0)
(62.4829 0.000339947 0)
(62.483 0.000316245 0)
(62.4831 0.000298847 0)
(62.4832 0.000310142 0)
(62.4833 0.000337481 0)
(62.4833 0.000354004 0)
(62.4834 0.000353888 0)
(62.4835 0.000350311 0)
(62.4836 0.000352523 0)
(62.4836 0.000359916 0)
(62.4837 0.00036914 0)
(62.4838 0.000375068 0)
(62.4839 0.000371226 0)
(62.4839 0.000357836 0)
(62.484 0.000344142 0)
(62.4841 0.000336731 0)
(62.4842 0.000331689 0)
(62.4842 0.00032468 0)
(62.4843 0.000320886 0)
(62.4843 0.000325312 0)
(62.4844 0.00033 0)
(62.4844 0.00032318 0)
(62.4844 0.000307587 0)
(62.4844 0.000298666 0)
(62.4845 0.000304448 0)
(62.4845 0.00031656 0)
(62.4845 0.000322557 0)
(62.4845 0.000321383 0)
(62.4845 0.000322188 0)
(62.4845 0.000329906 0)
(62.4845 0.000336212 0)
(62.4845 0.000328803 0)
(62.4845 0.000308425 0)
(62.4844 0.000291364 0)
(62.4844 0.000293296 0)
(62.4844 0.00031411 0)
(62.4844 0.000339067 0)
(62.4844 0.000350646 0)
(62.4844 0.000339554 0)
(62.4843 0.00031314 0)
(62.4843 0.00029457 0)
(62.4843 0.000302381 0)
(62.4843 0.000326711 0)
(62.4843 0.000339004 0)
(62.4842 0.00032976 0)
(62.4842 0.0003201 0)
(62.4842 0.000328518 0)
(62.4842 0.00034273 0)
(62.4842 0.000338592 0)
(62.4842 0.00031515 0)
(62.4841 0.000295489 0)
(62.4841 0.000296429 0)
(62.484 0.00031249 0)
(62.484 0.00032883 0)
(62.484 0.000336789 0)
(62.484 0.000333773 0)
(62.4839 0.000319283 0)
(62.4839 0.000298165 0)
(62.4839 0.000282326 0)
(62.4839 0.000281695 0)
(62.4839 0.000292772 0)
(62.4839 0.000300747 0)
(62.4839 0.000296688 0)
(62.4839 0.000289917 0)
(62.484 0.000296787 0)
(62.4841 0.000317282 0)
(62.4842 0.00033109 0)
(62.4843 0.000321652 0)
(62.4843 0.000298087 0)
(62.4844 0.000285587 0)
(62.4845 0.000296643 0)
(62.4846 0.000318927 0)
(62.4847 0.000331387 0)
(62.4848 0.000325896 0)
(62.4849 0.00031131 0)
(62.4849 0.000300749 0)
(62.485 0.000297712 0)
(62.4851 0.00029409 0)
(62.4851 0.000280235 0)
(62.4852 0.00025644 0)
(62.4852 0.000233811 0)
(62.4852 0.000223405 0)
(62.4853 0.000225117 0)
(62.4853 0.000229173 0)
(62.4853 0.00022903 0)
(62.4853 0.000229233 0)
(62.4853 0.00023689 0)
(62.4853 0.000248681 0)
(62.4853 0.000253688 0)
(62.4853 0.000249775 0)
(62.4853 0.000249079 0)
(62.4853 0.000262697 0)
(62.4853 0.000284685 0)
(62.4853 0.000297681 0)
(62.4853 0.000292813 0)
(62.4852 0.00027958 0)
(62.4852 0.000275903 0)
(62.4853 0.000289981 0)
(62.4853 0.000311295 0)
(62.4853 0.000320275 0)
(62.4853 0.000308632 0)
(62.4853 0.000288731 0)
(62.4853 0.000280054 0)
(62.4854 0.000287418 0)
(62.4854 0.000296041 0)
(62.4855 0.000288162 0)
(62.4855 0.000261209 0)
(62.4855 0.000228838 0)
(62.4855 0.000206649 0)
(62.4856 0.000198785 0)
(62.4856 0.000197148 0)
(62.4857 0.000190657 0)
(62.4857 0.000174322 0)
(62.4858 0.000151637 0)
(62.4858 0.000131337 0)
(62.4858 0.000121178 0)
(62.4858 0.000121231 0)
(62.4858 0.000122987 0)
(62.4859 0.00011876 0)
(62.4859 0.000111881 0)
(62.4859 0.000112883 0)
(62.4859 0.000124206 0)
(62.4859 0.000133168 0)
(62.4859 0.000124722 0)
(62.4859 0.000100653 0)
(62.4859 8.06623e-05 0)
(62.4859 8.09312e-05 0)
(62.4859 9.54375e-05 0)
(62.4859 0.000104642 0)
(62.4859 0.000101835 0)
(62.4859 0.000102211 0)
(62.4859 0.000122394 0)
(62.486 0.000157888 0)
(62.486 0.000186297 0)
(62.486 0.000190308 0)
(62.486 0.000173967 0)
(62.4861 0.000157142 0)
(62.4861 0.000155934 0)
(62.4861 0.000168384 0)
(62.4862 0.000178797 0)
(62.4862 0.000175875 0)
(62.4863 0.000164385 0)
(62.4863 0.000157968 0)
(62.4863 0.000162818 0)
(62.4864 0.00017166 0)
(62.4864 0.000173712 0)
(62.4864 0.000166362 0)
(62.4864 0.000157024 0)
(62.4865 0.000153751 0)
(62.4865 0.00015678 0)
(62.4865 0.000160391 0)
(62.4866 0.0001641 0)
(62.4866 0.000163361 0)
(49.3834 3.36556e-05 0)
(83.5422 5.01448e-05 0)
(71.6787 5.12039e-05 0)
(59.3175 9.73939e-05 0)
(58.58 0.000112255 0)
(61.9588 0.000113119 0)
(63.4365 0.000130047 0)
(62.9977 0.000148581 0)
(62.3954 0.000156892 0)
(62.2956 0.000167834 0)
(62.4354 0.000177168 0)
(62.5184 0.000190996 0)
(62.5089 0.000209459 0)
(62.4806 0.00020535 0)
(62.4725 0.000198824 0)
(62.4778 0.00020868 0)
(62.482 0.000188973 0)
(62.4821 0.000170123 0)
(62.4808 0.000178848 0)
(62.4801 0.000155649 0)
(62.4803 0.000101014 0)
(62.4806 8.44255e-05 0)
(62.4805 0.00010757 0)
(62.4804 0.000105045 0)
(62.4805 0.000114998 0)
(62.4806 0.000169076 0)
(62.4807 0.000244667 0)
(62.4808 0.000298067 0)
(62.4808 0.000290504 0)
(62.4808 0.000274724 0)
(62.4809 0.000280238 0)
(62.4809 0.000283382 0)
(62.481 0.000265548 0)
(62.481 0.00020486 0)
(62.4809 0.000109546 0)
(62.4808 3.28809e-05 0)
(62.4808 -1.27139e-05 0)
(62.4807 -6.55591e-05 0)
(62.4806 -0.000116494 0)
(62.4805 -0.000119594 0)
(62.4805 -8.1828e-05 0)
(62.4805 -3.77474e-05 0)
(62.4806 3.88913e-06 0)
(62.4805 3.66698e-05 0)
(62.4805 6.2115e-05 0)
(62.4805 9.77018e-05 0)
(62.4804 0.000136599 0)
(62.4804 0.000168334 0)
(62.4805 0.000209195 0)
(62.4806 0.000254334 0)
(62.4806 0.000277024 0)
(62.4807 0.000284464 0)
(62.4808 0.000298856 0)
(62.4809 0.000308843 0)
(62.481 0.000290971 0)
(62.4811 0.000253403 0)
(62.4811 0.000224946 0)
(62.4812 0.000209451 0)
(62.4813 0.00018751 0)
(62.4813 0.000164945 0)
(62.4814 0.000169455 0)
(62.4815 0.000195088 0)
(62.4816 0.000203573 0)
(62.4817 0.000180206 0)
(62.4818 0.000148331 0)
(62.4818 0.00013596 0)
(62.4819 0.000147806 0)
(62.482 0.000162654 0)
(62.4821 0.000159097 0)
(62.4821 0.000143952 0)
(62.4823 0.000138057 0)
(62.4824 0.000143086 0)
(62.4825 0.000148196 0)
(62.4826 0.0001541 0)
(62.4827 0.000165782 0)
(62.4828 0.000178225 0)
(62.4828 0.000186951 0)
(62.4829 0.000197026 0)
(62.4829 0.00020871 0)
(62.4829 0.000207203 0)
(62.4829 0.000182878 0)
(62.4829 0.000153451 0)
(62.483 0.00014483 0)
(62.483 0.000153915 0)
(62.4829 0.000151601 0)
(62.4829 0.000122412 0)
(62.4828 8.56937e-05 0)
(62.4828 7.31261e-05 0)
(62.4828 9.07442e-05 0)
(62.4828 0.000111192 0)
(62.4828 0.000109049 0)
(62.4828 9.29155e-05 0)
(62.4828 8.85127e-05 0)
(62.4828 0.000100758 0)
(62.4828 0.000114026 0)
(62.4828 0.000123063 0)
(62.4828 0.000136999 0)
(62.4828 0.000153236 0)
(62.4828 0.000155722 0)
(62.4827 0.000143873 0)
(62.4827 0.000137471 0)
(62.4827 0.000146117 0)
(62.4827 0.000155702 0)
(62.4827 0.000151698 0)
(62.4827 0.000138013 0)
(62.4828 0.000126977 0)
(62.4828 0.000124848 0)
(62.4828 0.000131625 0)
(62.4829 0.000143534 0)
(62.4829 0.000151857 0)
(62.4829 0.000148844 0)
(62.483 0.000138505 0)
(62.483 0.000133897 0)
(62.483 0.000140809 0)
(62.4831 0.000152577 0)
(62.4831 0.000163453 0)
(62.4831 0.000176073 0)
(62.4831 0.000190021 0)
(62.4831 0.000194183 0)
(62.4832 0.00018037 0)
(62.4832 0.000158593 0)
(62.4832 0.00014957 0)
(62.4833 0.000163302 0)
(62.4834 0.000189478 0)
(62.4834 0.000209139 0)
(62.4835 0.000213182 0)
(62.4835 0.000208422 0)
(62.4836 0.000206301 0)
(62.4836 0.000209302 0)
(62.4837 0.000211158 0)
(62.4838 0.000207715 0)
(62.4838 0.000202421 0)
(62.4838 0.000201435 0)
(62.4839 0.000207799 0)
(62.4839 0.000219493 0)
(62.484 0.000227947 0)
(62.4841 0.000221849 0)
(62.4841 0.000202083 0)
(62.4842 0.000188909 0)
(62.4843 0.000200569 0)
(62.4844 0.000226538 0)
(62.4844 0.000237969 0)
(62.4845 0.000224705 0)
(62.4846 0.000206267 0)
(62.4847 0.000203146 0)
(62.4848 0.000212527 0)
(62.4849 0.000219647 0)
(62.4849 0.000220881 0)
(62.485 0.000224451 0)
(62.4851 0.000234622 0)
(62.4851 0.000246717 0)
(62.4852 0.000255598 0)
(62.4853 0.000259987 0)
(62.4853 0.000258127 0)
(62.4854 0.000246804 0)
(62.4854 0.000227865 0)
(62.4854 0.000211909 0)
(62.4854 0.000209978 0)
(62.4855 0.000219802 0)
(62.4854 0.000224817 0)
(62.4854 0.000212037 0)
(62.4853 0.000188446 0)
(62.4853 0.000173024 0)
(62.4853 0.000172839 0)
(62.4852 0.000174768 0)
(62.4852 0.000164008 0)
(62.4851 0.00014403 0)
(62.4851 0.000132199 0)
(62.485 0.000139207 0)
(62.485 0.00015869 0)
(62.485 0.000176149 0)
(62.4849 0.000183595 0)
(62.4849 0.000184813 0)
(62.4848 0.000188793 0)
(62.4848 0.000199333 0)
(62.4848 0.000211 0)
(62.4848 0.000215241 0)
(62.4848 0.000210379 0)
(62.4848 0.000204759 0)
(62.4848 0.000208367 0)
(62.4848 0.000221642 0)
(62.4848 0.00023571 0)
(62.4848 0.000244832 0)
(62.4848 0.000254045 0)
(62.4848 0.000269972 0)
(62.4848 0.000287237 0)
(62.4849 0.000291641 0)
(62.4849 0.000277797 0)
(62.4849 0.0002572 0)
(62.4849 0.000245497 0)
(62.485 0.000245866 0)
(62.485 0.000247808 0)
(62.4851 0.000239962 0)
(62.4851 0.000222463 0)
(62.4852 0.000207387 0)
(62.4853 0.000206445 0)
(62.4853 0.000217451 0)
(62.4854 0.000225416 0)
(62.4855 0.000219012 0)
(62.4855 0.000203874 0)
(62.4856 0.000196705 0)
(62.4856 0.000207397 0)
(62.4857 0.000229665 0)
(62.4858 0.000248603 0)
(62.4858 0.000254825 0)
(62.4858 0.000250926 0)
(62.4858 0.000246371 0)
(62.4858 0.000248318 0)
(62.4858 0.000257213 0)
(62.4859 0.000268682 0)
(62.4859 0.000277693 0)
(62.4859 0.000282629 0)
(62.4859 0.000287912 0)
(62.4859 0.000300749 0)
(62.4859 0.000321977 0)
(62.4859 0.000342033 0)
(62.4859 0.000350139 0)
(62.4859 0.000346821 0)
(62.4859 0.000343302 0)
(62.486 0.000347127 0)
(62.486 0.000351577 0)
(62.4861 0.000343726 0)
(62.4861 0.000322871 0)
(62.4861 0.000305082 0)