/*--------------------------------*- C++ -*----------------------------------*\
| =========                 |                                                 |
| \\      /  F ield         | OpenFOAM: The Open Source CFD Toolbox           |
|  \\    /   O peration     | Version:  2406                                  |
|   \\  /    A nd           | Website:  www.openfoam.com                      |
|    \\/     M anipulation  |                                                 |
\*---------------------------------------------------------------------------*/
FoamFile
{
    version     2.0;
    format      ascii;
    arch        "LSB;label=32;scalar=64";
    class       surfaceScalarField;
    location    "0.1";
    object      phi;
}
// * * * * * * * * * * * * * * * * * * * * * * * * * * * * * * * * * * * * * //

dimensions      [0 3 -1 0 0 0 0];

oriented        oriented;

internalField   nonuniform List<scalar> 
4335
(
6.5912e-06
-5.73389e-09
6.59569e-06
-4.48911e-09
6.59935e-06
-3.65784e-09
6.60265e-06
-3.29767e-09
6.60575e-06
-3.10253e-09
6.60865e-06
-2.91405e-09
6.61134e-06
-2.68497e-09
6.61374e-06
-2.40761e-09
6.61584e-06
-2.08597e-09
6.61759e-06
-1.75477e-09
6.61901e-06
-1.42069e-09
6.62012e-06
-1.10874e-09
6.62096e-06
-8.38417e-10
6.62157e-06
-6.09596e-10
6.62199e-06
-4.24225e-10
6.62227e-06
-2.82227e-10
6.62245e-06
-1.76965e-10
6.62255e-06
-1.03064e-10
6.62261e-06
-5.53776e-11
6.62263e-06
-2.53745e-11
6.62264e-06
-9.1909e-12
6.62265e-06
-5.34823e-12
6.62266e-06
-9.65678e-12
6.62268e-06
-1.91541e-11
6.62272e-06
-3.28938e-11
6.62276e-06
-4.93355e-11
6.62283e-06
-6.57958e-11
6.62291e-06
-8.14069e-11
6.62301e-06
-9.74722e-11
6.62313e-06
-1.14154e-10
6.62325e-06
-1.29128e-10
6.62339e-06
-1.40393e-10
6.62354e-06
-1.48448e-10
6.62369e-06
-1.54328e-10
6.62385e-06
-1.57138e-10
6.62401e-06
-1.55184e-10
6.62416e-06
-1.48473e-10
6.6243e-06
-1.38284e-10
6.62442e-06
-1.24506e-10
6.62452e-06
-1.04828e-10
6.6246e-06
-7.69589e-11
6.62464e-06
-4.09054e-11
6.62464e-06
1.36441e-12
6.62459e-06
4.78229e-11
6.62449e-06
9.77103e-11
6.62434e-06
1.50452e-10
6.62413e-06
2.04364e-10
6.62388e-06
2.56398e-10
6.62357e-06
3.03082e-10
6.62323e-06
3.41441e-10
6.62286e-06
3.68993e-10
6.62247e-06
3.83113e-10
6.62209e-06
3.80607e-10
6.62173e-06
3.58062e-10
6.62142e-06
3.12756e-10
6.62118e-06
2.43568e-10
6.62103e-06
1.51538e-10
6.62099e-06
3.94066e-11
6.62107e-06
-8.60063e-11
6.62129e-06
-2.17931e-10
6.62164e-06
-3.46194e-10
6.6221e-06
-4.60374e-10
6.62265e-06
-5.50874e-10
6.62326e-06
-6.10657e-10
6.6239e-06
-6.36509e-10
6.62453e-06
-6.29438e-10
6.62513e-06
-5.94099e-10
6.62567e-06
-5.37542e-10
6.62614e-06
-4.67755e-10
6.62653e-06
-3.92435e-10
6.62685e-06
-3.18127e-10
6.6271e-06
-2.49714e-10
6.62729e-06
-1.90123e-10
6.62743e-06
-1.40265e-10
6.62753e-06
-9.92544e-11
6.62759e-06
-6.4933e-11
6.62762e-06
-3.45388e-11
6.62763e-06
-5.26668e-12
6.6276e-06
2.55786e-11
6.62754e-06
6.02861e-11
6.62744e-06
1.00898e-10
6.62729e-06
1.48583e-10
6.62709e-06
2.03211e-10
6.62682e-06
2.62975e-10
6.6265e-06
3.24304e-10
6.62612e-06
3.8196e-10
6.62569e-06
4.29254e-10
6.62523e-06
4.58558e-10
6.62477e-06
4.6241e-10
6.62434e-06
4.35185e-10
6.62397e-06
3.74794e-10
6.62368e-06
2.83668e-10
6.62351e-06
1.68574e-10
6.62347e-06
3.95161e-11
6.62356e-06
-9.18442e-11
6.62378e-06
-2.13474e-10
6.62409e-06
-3.14528e-10
6.62448e-06
-3.86618e-10
6.6249e-06
-4.24982e-10
6.62533e-06
-4.28889e-10
6.62573e-06
-4.01119e-10
6.62608e-06
-3.46912e-10
6.62635e-06
-2.72892e-10
6.62653e-06
-1.86219e-10
6.62663e-06
-9.39318e-11
6.62663e-06
-2.42385e-12
6.62655e-06
8.28761e-11
6.62639e-06
1.5788e-10
6.62617e-06
2.19965e-10
6.6259e-06
2.67807e-10
6.6256e-06
3.00714e-10
6.62528e-06
3.18104e-10
6.62496e-06
3.19928e-10
6.62465e-06
3.07695e-10
6.62437e-06
2.84628e-10
6.62411e-06
2.54278e-10
6.62389e-06
2.1904e-10
6.62371e-06
1.80317e-10
6.62357e-06
1.3979e-10
6.62347e-06
9.98259e-11
6.62341e-06
6.25808e-11
6.62338e-06
2.92881e-11
6.62338e-06
4.51924e-13
6.6234e-06
-2.37234e-11
6.62344e-06
-4.31712e-11
6.6235e-06
-5.77842e-11
6.62357e-06
-6.7502e-11
6.62364e-06
-7.28715e-11
6.62372e-06
-7.53445e-11
6.6238e-06
-7.61461e-11
6.62387e-06
-7.4583e-11
6.62394e-06
-6.89432e-11
6.62399e-06
-6.00478e-11
6.62405e-06
-5.18577e-11
6.6241e-06
-4.77988e-11
6.62415e-06
-4.99963e-11
6.62422e-06
-6.33013e-11
6.62432e-06
-9.58968e-11
6.62448e-06
-1.54799e-10
6.62472e-06
-2.45297e-10
6.6251e-06
-3.74802e-10
6.62565e-06
-5.51594e-10
6.62643e-06
-7.79596e-10
6.62749e-06
-1.05774e-09
6.62887e-06
-1.38243e-09
6.63062e-06
-1.74914e-09
6.63278e-06
-2.15959e-09
6.63543e-06
-2.6546e-09
6.63885e-06
-3.41529e-09
-4.53191e-09
1.73587e-05
-1.32859e-08
1.73662e-05
-1.20258e-08
1.73738e-05
-1.12497e-08
1.73813e-05
-1.07789e-08
1.73886e-05
-1.03354e-08
1.73954e-05
-9.7829e-09
1.74018e-05
-9.04587e-09
1.74075e-05
-8.137e-09
1.74125e-05
-7.09707e-09
1.74168e-05
-5.99047e-09
1.74202e-05
-4.89969e-09
1.7423e-05
-3.87708e-09
1.74251e-05
-2.9645e-09
1.74267e-05
-2.19136e-09
1.74279e-05
-1.56387e-09
1.74286e-05
-1.07168e-09
1.74292e-05
-7.02545e-10
1.74295e-05
-4.38458e-10
1.74297e-05
-2.5894e-10
1.74298e-05
-1.47229e-10
1.74299e-05
-8.90399e-11
1.743e-05
-7.0127e-11
1.74301e-05
-7.85798e-11
1.74301e-05
-1.07042e-10
1.74303e-05
-1.49482e-10
1.74304e-05
-1.99619e-10
1.74306e-05
-2.53908e-10
1.74308e-05
-3.1169e-10
1.74311e-05
-3.70763e-10
1.74314e-05
-4.25931e-10
1.74317e-05
-4.72717e-10
1.74321e-05
-5.10074e-10
1.74325e-05
-5.38468e-10
1.74329e-05
-5.5674e-10
1.74333e-05
-5.62153e-10
1.74337e-05
-5.52934e-10
1.74341e-05
-5.29058e-10
1.74344e-05
-4.89832e-10
1.74347e-05
-4.31911e-10
1.7435e-05
-3.50889e-10
1.74352e-05
-2.44653e-10
1.74352e-05
-1.14589e-10
1.74352e-05
3.60713e-11
1.7435e-05
2.0408e-10
1.74347e-05
3.86015e-10
1.74343e-05
5.76563e-10
1.74338e-05
7.67542e-10
1.74331e-05
9.48726e-10
1.74323e-05
1.10959e-09
1.74314e-05
1.24029e-09
1.74304e-05
1.33117e-09
1.74294e-05
1.37197e-09
1.74284e-05
1.35183e-09
1.74275e-05
1.26057e-09
1.74267e-05
1.09075e-09
1.74261e-05
8.3972e-10
1.74258e-05
5.11376e-10
1.74257e-05
1.17317e-10
1.74259e-05
-3.21501e-10
1.74265e-05
-7.77573e-10
1.74274e-05
-1.21731e-09
1.74285e-05
-1.60623e-09
1.74299e-05
-1.91371e-09
1.74314e-05
-2.11777e-09
1.7433e-05
-2.20829e-09
1.74345e-05
-2.18805e-09
1.7436e-05
-2.07122e-09
1.74374e-05
-1.88016e-09
1.74385e-05
-1.64127e-09
1.74395e-05
-1.38087e-09
1.74403e-05
-1.12186e-09
1.74409e-05
-8.81339e-10
1.74414e-05
-6.69489e-10
1.74418e-05
-4.89681e-10
1.7442e-05
-3.39522e-10
1.74422e-05
-2.12476e-10
1.74422e-05
-9.96619e-11
1.74422e-05
8.54213e-12
1.74421e-05
1.21261e-10
1.74419e-05
2.46395e-10
1.74416e-05
3.89989e-10
1.74412e-05
5.55409e-10
1.74407e-05
7.42016e-10
1.744e-05
9.43658e-10
1.74392e-05
1.14768e-09
1.74382e-05
1.33516e-09
1.74372e-05
1.48265e-09
1.74361e-05
1.56521e-09
1.7435e-05
1.56035e-09
1.7434e-05
1.45231e-09
1.74331e-05
1.23606e-09
1.74325e-05
9.19898e-10
1.74321e-05
5.25755e-10
1.74321e-05
8.66473e-11
1.74323e-05
-3.57961e-10
1.74329e-05
-7.68147e-10
1.74337e-05
-1.10838e-09
1.74346e-05
-1.35163e-09
1.74357e-05
-1.48192e-09
1.74368e-05
-1.4954e-09
1.74378e-05
-1.39979e-09
1.74386e-05
-1.2122e-09
1.74393e-05
-9.55622e-10
1.74398e-05
-6.55229e-10
1.744e-05
-3.35159e-10
1.744e-05
-1.65454e-11
1.74398e-05
2.8305e-10
1.74394e-05
5.49359e-10
1.74389e-05
7.71334e-10
1.74382e-05
9.41811e-10
1.74375e-05
1.05802e-09
1.74367e-05
1.12088e-09
1.74358e-05
1.13337e-09
1.7435e-05
1.09976e-09
1.74343e-05
1.02637e-09
1.74336e-05
9.21989e-10
1.74331e-05
7.96619e-10
1.74326e-05
6.59422e-10
1.74322e-05
5.18e-10
1.74319e-05
3.78943e-10
1.74317e-05
2.47992e-10
1.74316e-05
1.29498e-10
1.74316e-05
2.60483e-11
1.74316e-05
-6.14816e-11
1.74317e-05
-1.33569e-10
1.74319e-05
-1.90994e-10
1.7432e-05
-2.33531e-10
1.74322e-05
-2.60186e-10
1.74324e-05
-2.71622e-10
1.74326e-05
-2.71755e-10
1.74328e-05
-2.65131e-10
1.7433e-05
-2.53411e-10
1.74332e-05
-2.37965e-10
1.74334e-05
-2.25748e-10
1.74335e-05
-2.28432e-10
1.74337e-05
-2.56969e-10
1.7434e-05
-3.23957e-10
1.74343e-05
-4.50961e-10
1.74349e-05
-6.65752e-10
1.74356e-05
-9.92311e-10
1.74367e-05
-1.44941e-09
1.74382e-05
-2.05507e-09
1.74402e-05
-2.82072e-09
1.74429e-05
-3.73906e-09
1.74463e-05
-4.78261e-09
1.74505e-05
-5.91081e-09
1.74554e-05
-7.07562e-09
1.74609e-05
-8.21808e-09
1.74669e-05
-9.35995e-09
-1.06343e-08
2.59798e-05
-1.9601e-08
2.59867e-05
-1.89399e-08
2.59943e-05
-1.8879e-08
2.60023e-05
-1.87343e-08
2.60102e-05
-1.82712e-08
2.60179e-05
-1.74318e-08
2.6025e-05
-1.62059e-08
2.60315e-05
-1.46258e-08
2.60372e-05
-1.28066e-08
2.60421e-05
-1.08659e-08
2.60461e-05
-8.93541e-09
2.60494e-05
-7.12412e-09
2.60519e-05
-5.50467e-09
2.60539e-05
-4.11662e-09
2.60553e-05
-2.9786e-09
2.60563e-05
-2.08214e-09
2.6057e-05
-1.40207e-09
2.60574e-05
-9.09019e-10
2.60578e-05
-5.71549e-10
2.6058e-05
-3.57941e-10
2.60581e-05
-2.39347e-10
2.60582e-05
-1.93669e-10
2.60584e-05
-2.03681e-10
2.60585e-05
-2.53749e-10
2.60587e-05
-3.30721e-10
2.60589e-05
-4.25735e-10
2.60592e-05
-5.32994e-10
2.60595e-05
-6.4646e-10
2.60599e-05
-7.58354e-10
2.60603e-05
-8.61217e-10
2.60608e-05
-9.5041e-10
2.60613e-05
-1.02356e-09
2.60619e-05
-1.0782e-09
2.60624e-05
-1.11094e-09
2.6063e-05
-1.11855e-09
2.60635e-05
-1.09849e-09
2.60641e-05
-1.04801e-09
2.60645e-05
-9.62904e-10
2.60649e-05
-8.37848e-10
2.60652e-05
-6.68333e-10
2.60655e-05
-4.52415e-10
2.60655e-05
-1.91018e-10
2.60655e-05
1.12599e-10
2.60652e-05
4.52818e-10
2.60648e-05
8.20737e-10
2.60641e-05
1.20334e-09
2.60633e-05
1.5838e-09
2.60623e-05
1.94298e-09
2.60612e-05
2.26101e-09
2.60599e-05
2.51806e-09
2.60585e-05
2.69405e-09
2.60571e-05
2.76828e-09
2.60558e-05
2.72019e-09
2.60545e-05
2.53135e-09
2.60534e-05
2.18866e-09
2.60525e-05
1.68806e-09
2.6052e-05
1.03814e-09
2.60519e-05
2.62934e-10
2.60521e-05
-5.96787e-10
2.60529e-05
-1.48622e-09
2.6054e-05
-2.34092e-09
2.60555e-05
-3.0951e-09
2.60572e-05
-3.69077e-09
2.60592e-05
-4.0862e-09
2.60613e-05
-4.26176e-09
2.60633e-05
-4.22187e-09
2.60652e-05
-3.99283e-09
2.6067e-05
-3.61717e-09
2.60685e-05
-3.14618e-09
2.60697e-05
-2.63185e-09
2.60707e-05
-2.11993e-09
2.60715e-05
-1.64479e-09
2.6072e-05
-1.22711e-09
2.60724e-05
-8.7403e-10
2.60727e-05
-5.8135e-10
2.60728e-05
-3.36691e-10
2.60728e-05
-1.22788e-10
2.60727e-05
7.96147e-11
2.60726e-05
2.893e-10
2.60723e-05
5.22621e-10
2.60719e-05
7.91623e-10
2.60713e-05
1.10223e-09
2.60706e-05
1.45212e-09
2.60698e-05
1.82857e-09
2.60687e-05
2.20691e-09
2.60675e-05
2.55099e-09
2.60661e-05
2.8163e-09
2.60648e-05
2.95596e-09
2.60634e-05
2.92846e-09
2.60621e-05
2.70573e-09
2.60611e-05
2.27981e-09
2.60603e-05
1.66697e-09
2.606e-05
9.08013e-10
2.606e-05
6.43419e-11
2.60604e-05
-7.89722e-10
2.60612e-05
-1.57769e-09
2.60623e-05
-2.23092e-09
2.60637e-05
-2.69721e-09
2.60652e-05
-2.94588e-09
2.60666e-05
-2.96935e-09
2.6068e-05
-2.78174e-09
2.60692e-05
-2.41466e-09
2.60702e-05
-1.91134e-09
2.60708e-05
-1.32003e-09
2.60712e-05
-6.88038e-10
2.60712e-05
-5.75466e-11
2.6071e-05
5.36536e-10
2.60705e-05
1.06662e-09
2.60697e-05
1.5117e-09
2.60688e-05
1.8572e-09
2.60678e-05
2.09578e-09
2.60667e-05
2.22763e-09
2.60655e-05
2.25908e-09
2.60644e-05
2.20007e-09
2.60634e-05
2.06308e-09
2.60625e-05
1.86347e-09
2.60616e-05
1.61934e-09
2.60609e-05
1.34937e-09
2.60604e-05
1.07013e-09
2.606e-05
7.95042e-10
2.60597e-05
5.34579e-10
2.60595e-05
2.96605e-10
2.60595e-05
8.64314e-11
2.60595e-05
-9.31185e-11
2.60596e-05
-2.41585e-10
2.60598e-05
-3.60262e-10
2.606e-05
-4.50802e-10
2.60602e-05
-5.13938e-10
2.60605e-05
-5.50065e-10
2.60608e-05
-5.61755e-10
2.60611e-05
-5.54923e-10
2.60614e-05
-5.36594e-10
2.60617e-05
-5.13943e-10
2.60619e-05
-4.98482e-10
2.60622e-05
-5.09087e-10
2.60625e-05
-5.68871e-10
2.60629e-05
-7.03973e-10
2.60634e-05
-9.48672e-10
2.60641e-05
-1.34619e-09
2.6065e-05
-1.94064e-09
2.60664e-05
-2.76896e-09
2.60682e-05
-3.85659e-09
2.60705e-05
-5.21179e-09
2.60736e-05
-6.81337e-09
2.60774e-05
-8.60166e-09
2.6082e-05
-1.04809e-08
2.60872e-05
-1.23086e-08
2.60929e-05
-1.38686e-08
2.60985e-05
-1.49699e-08
-1.58797e-08
3.26964e-05
-2.27193e-08
3.27001e-05
-2.26306e-08
3.27046e-05
-2.33436e-08
3.27095e-05
-2.36893e-08
3.27147e-05
-2.33948e-08
3.27197e-05
-2.24922e-08
3.27245e-05
-2.10106e-08
3.27289e-05
-1.90459e-08
3.27329e-05
-1.67398e-08
3.27363e-05
-1.4269e-08
3.27391e-05
-1.18024e-08
3.27415e-05
-9.4706e-09
3.27433e-05
-7.37158e-09
3.27448e-05
-5.56937e-09
3.27459e-05
-4.0827e-09
3.27467e-05
-2.89809e-09
3.27473e-05
-1.99257e-09
3.27477e-05
-1.33211e-09
3.2748e-05
-8.73766e-10
3.27482e-05
-5.77257e-10
3.27484e-05
-4.10171e-10
3.27486e-05
-3.45909e-10
3.27487e-05
-3.59977e-10
3.27489e-05
-4.31005e-10
3.27491e-05
-5.43521e-10
3.27494e-05
-6.8595e-10
3.27497e-05
-8.4679e-10
3.27501e-05
-1.01427e-09
3.27505e-05
-1.17818e-09
3.2751e-05
-1.33063e-09
3.27515e-05
-1.46532e-09
3.2752e-05
-1.57644e-09
3.27526e-05
-1.65827e-09
3.27532e-05
-1.70561e-09
3.27538e-05
-1.71417e-09
3.27544e-05
-1.67961e-09
3.27549e-05
-1.59646e-09
3.27554e-05
-1.45809e-09
3.27558e-05
-1.25788e-09
3.27562e-05
-9.90562e-10
3.27564e-05
-6.53149e-10
3.27564e-05
-2.45544e-10
3.27563e-05
2.28499e-10
3.2756e-05
7.60016e-10
3.27555e-05
1.33377e-09
3.27548e-05
1.9284e-09
3.27538e-05
2.51785e-09
3.27527e-05
3.07334e-09
3.27514e-05
3.56484e-09
3.27499e-05
3.96166e-09
3.27484e-05
4.23241e-09
3.27468e-05
4.3453e-09
3.27453e-05
4.26945e-09
3.27438e-05
3.97783e-09
3.27426e-05
3.45169e-09
3.27416e-05
2.68604e-09
3.27409e-05
1.69519e-09
3.27407e-05
5.16775e-10
3.27409e-05
-7.87007e-10
3.27415e-05
-2.13273e-09
3.27426e-05
-3.4234e-09
3.2744e-05
-4.56013e-09
3.27458e-05
-5.45573e-09
3.27478e-05
-6.04711e-09
3.27498e-05
-6.3041e-09
3.27518e-05
-6.23264e-09
3.27537e-05
-5.87201e-09
3.27554e-05
-5.28694e-09
3.27568e-05
-4.55637e-09
3.27579e-05
-3.76115e-09
3.27588e-05
-2.97293e-09
3.27594e-05
-2.24614e-09
3.27598e-05
-1.61386e-09
3.276e-05
-1.08789e-09
3.27601e-05
-6.61856e-10
3.276e-05
-3.16156e-10
3.27599e-05
-2.3214e-11
3.27598e-05
2.4788e-10
3.27595e-05
5.275e-10
3.27592e-05
8.42185e-10
3.27588e-05
1.21149e-09
3.27582e-05
1.6448e-09
3.27576e-05
2.13823e-09
3.27567e-05
2.67193e-09
3.27557e-05
3.20866e-09
3.27546e-05
3.69489e-09
3.27533e-05
4.06527e-09
3.2752e-05
4.2511e-09
3.27508e-05
4.19146e-09
3.27496e-05
3.84515e-09
3.27487e-05
3.20073e-09
3.27481e-05
2.28228e-09
3.27478e-05
1.14963e-09
3.2748e-05
-1.07357e-10
3.27486e-05
-1.37975e-09
3.27496e-05
-2.55405e-09
3.27509e-05
-3.52742e-09
3.27524e-05
-4.22071e-09
3.2754e-05
-4.58693e-09
3.27557e-05
-4.61409e-09
3.27572e-05
-4.32279e-09
3.27586e-05
-3.75972e-09
3.27597e-05
-2.98874e-09
3.27604e-05
-2.0815e-09
3.27608e-05
-1.1092e-09
3.27609e-05
-1.36572e-10
3.27607e-05
7.81819e-10
3.27601e-05
1.60305e-09
3.27593e-05
2.2955e-09
3.27584e-05
2.83777e-09
3.27572e-05
3.21808e-09
3.2756e-05
3.43442e-09
3.27548e-05
3.49435e-09
3.27536e-05
3.41311e-09
3.27524e-05
3.21115e-09
3.27514e-05
2.91252e-09
3.27505e-05
2.54403e-09
3.27497e-05
2.13331e-09
3.2749e-05
1.70582e-09
3.27486e-05
1.28255e-09
3.27482e-05
8.79664e-10
3.2748e-05
5.09032e-10
3.27479e-05
1.78651e-10
3.27479e-05
-1.06802e-10
3.2748e-05
-3.45226e-10
3.27482e-05
-5.36687e-10
3.27484e-05
-6.83417e-10
3.27487e-05
-7.89069e-10
3.2749e-05
-8.56855e-10
3.27494e-05
-8.89321e-10
3.27497e-05
-8.91482e-10
3.275e-05
-8.73114e-10
3.27504e-05
-8.46993e-10
3.27507e-05
-8.28339e-10
3.2751e-05
-8.39135e-10
3.27513e-05
-9.11185e-10
3.27517e-05
-1.08405e-09
3.27522e-05
-1.40229e-09
3.27527e-05
-1.91483e-09
3.27535e-05
-2.67507e-09
3.27545e-05
-3.73411e-09
3.27557e-05
-5.12473e-09
3.27574e-05
-6.8501e-09
3.27594e-05
-8.87318e-09
3.27619e-05
-1.11058e-08
3.27648e-05
-1.34008e-08
3.27681e-05
-1.55379e-08
3.27714e-05
-1.71926e-08
3.27745e-05
-1.80469e-08
-1.85311e-08
3.77117e-05
-2.14159e-08
3.77107e-05
-2.16636e-08
3.77102e-05
-2.27756e-08
3.77099e-05
-2.34406e-08
3.77099e-05
-2.33542e-08
3.771e-05
-2.25885e-08
3.77102e-05
-2.11918e-08
3.77104e-05
-1.92776e-08
3.77107e-05
-1.70126e-08
3.7711e-05
-1.4573e-08
3.77113e-05
-1.21181e-08
3.77116e-05
-9.79151e-09
3.77119e-05
-7.69258e-09
3.77122e-05
-5.87605e-09
3.77125e-05
-4.36239e-09
3.77128e-05
-3.14868e-09
3.7713e-05
-2.21516e-09
3.77132e-05
-1.5247e-09
3.77133e-05
-1.03758e-09
3.77135e-05
-7.21522e-10
3.77136e-05
-5.46955e-10
3.77138e-05
-4.84641e-10
3.77139e-05
-5.09427e-10
3.77141e-05
-6.02056e-10
3.77143e-05
-7.4688e-10
3.77145e-05
-9.28818e-10
3.77148e-05
-1.13279e-09
3.77151e-05
-1.3452e-09
3.77155e-05
-1.55474e-09
3.7716e-05
-1.75153e-09
3.77164e-05
-1.92624e-09
3.77169e-05
-2.0701e-09
3.77174e-05
-2.17511e-09
3.77179e-05
-2.23426e-09
3.77185e-05
-2.24138e-09
3.7719e-05
-2.19046e-09
3.77195e-05
-2.07471e-09
3.77199e-05
-1.88623e-09
3.77202e-05
-1.61678e-09
3.77205e-05
-1.25904e-09
3.77207e-05
-8.08179e-10
3.77207e-05
-2.63376e-10
3.77205e-05
3.70344e-10
3.77202e-05
1.08043e-09
3.77197e-05
1.84598e-09
3.7719e-05
2.63843e-09
3.77181e-05
3.42353e-09
3.7717e-05
4.16364e-09
3.77158e-05
4.81923e-09
3.77144e-05
5.3496e-09
3.77129e-05
5.7131e-09
3.77114e-05
5.86783e-09
3.77099e-05
5.77358e-09
3.77084e-05
5.39562e-09
3.77072e-05
4.71038e-09
3.77062e-05
3.71251e-09
3.77054e-05
2.42186e-09
3.77051e-05
8.88604e-10
3.77051e-05
-8.05541e-10
3.77055e-05
-2.55153e-09
3.77063e-05
-4.22298e-09
3.77074e-05
-5.69117e-09
3.77088e-05
-6.84229e-09
3.77104e-05
-7.59364e-09
3.7712e-05
-7.90529e-09
3.77135e-05
-7.78473e-09
3.77149e-05
-7.28381e-09
3.77161e-05
-6.48881e-09
3.77171e-05
-5.50564e-09
3.77178e-05
-4.44342e-09
3.77182e-05
-3.39943e-09
3.77184e-05
-2.44801e-09
3.77184e-05
-1.63474e-09
3.77183e-05
-9.76049e-10
3.77181e-05
-4.63036e-10
3.77178e-05
-6.79933e-11
3.77176e-05
2.48234e-10
3.77173e-05
5.29521e-10
3.7717e-05
8.18799e-10
3.77167e-05
1.15347e-09
3.77163e-05
1.56119e-09
3.77159e-05
2.05566e-09
3.77154e-05
2.63253e-09
3.77148e-05
3.26623e-09
3.77141e-05
3.9087e-09
3.77133e-05
4.49142e-09
3.77125e-05
4.93147e-09
3.77116e-05
5.14185e-09
3.77107e-05
5.04516e-09
3.771e-05
4.58848e-09
3.77094e-05
3.75629e-09
3.77091e-05
2.57825e-09
3.77092e-05
1.12971e-09
3.77095e-05
-4.75597e-10
3.77102e-05
-2.09949e-09
3.77113e-05
-3.59738e-09
3.77126e-05
-4.83733e-09
3.77141e-05
-5.71674e-09
3.77157e-05
-6.17377e-09
3.77173e-05
-6.1917e-09
3.77187e-05
-5.79621e-09
3.772e-05
-5.04702e-09
3.77211e-05
-4.02622e-09
3.77218e-05
-2.82604e-09
3.77222e-05
-1.53847e-09
3.77223e-05
-2.47865e-10
3.77222e-05
9.73573e-10
3.77217e-05
2.06819e-09
3.7721e-05
2.99367e-09
3.77201e-05
3.72225e-09
3.77191e-05
4.23894e-09
3.7718e-05
4.54033e-09
3.77168e-05
4.63428e-09
3.77157e-05
4.53941e-09
3.77146e-05
4.283e-09
3.77137e-05
3.89781e-09
3.77128e-05
3.41914e-09
3.7712e-05
2.88232e-09
3.77114e-05
2.31998e-09
3.77109e-05
1.75989e-09
3.77106e-05
1.22418e-09
3.77104e-05
7.29205e-10
3.77103e-05
2.85627e-10
3.77103e-05
-1.00882e-10
3.77104e-05
-4.27661e-10
3.77105e-05
-6.93539e-10
3.77107e-05
-8.99392e-10
3.7711e-05
-1.04928e-09
3.77113e-05
-1.14897e-09
3.77116e-05
-1.20314e-09
3.77119e-05
-1.21694e-09
3.77122e-05
-1.20053e-09
3.77126e-05
-1.16907e-09
3.77129e-05
-1.13952e-09
3.77132e-05
-1.13352e-09
3.77134e-05
-1.18372e-09
3.77137e-05
-1.333e-09
3.77139e-05
-1.62837e-09
3.77141e-05
-2.11804e-09
3.77143e-05
-2.85292e-09
3.77145e-05
-3.88273e-09
3.77146e-05
-5.24012e-09
3.77146e-05
-6.92585e-09
3.77147e-05
-8.89991e-09
3.77146e-05
-1.10664e-08
3.77145e-05
-1.32598e-08
3.77142e-05
-1.52474e-08
3.77137e-05
-1.66886e-08
3.77129e-05
-1.72512e-08
-1.74158e-08
4.11837e-05
-1.57049e-08
4.11781e-05
-1.59955e-08
4.11722e-05
-1.69626e-08
4.11664e-05
-1.75729e-08
4.11606e-05
-1.75968e-08
4.11551e-05
-1.70768e-08
4.115e-05
-1.60833e-08
4.11454e-05
-1.46917e-08
4.11414e-05
-1.30315e-08
4.11381e-05
-1.12304e-08
4.11354e-05
-9.4138e-09
4.11333e-05
-7.68696e-09
4.11317e-05
-6.11726e-09
4.11306e-05
-4.74468e-09
4.11298e-05
-3.59045e-09
4.11293e-05
-2.65674e-09
4.1129e-05
-1.92722e-09
4.11289e-05
-1.37807e-09
4.11288e-05
-9.88289e-10
4.11289e-05
-7.38407e-10
4.11289e-05
-6.06449e-10
4.1129e-05
-5.71689e-10
4.11291e-05
-6.1842e-10
4.11292e-05
-7.3302e-10
4.11294e-05
-9.00827e-10
4.11296e-05
-1.10694e-09
4.11298e-05
-1.3376e-09
4.113e-05
-1.57992e-09
4.11303e-05
-1.82113e-09
4.11306e-05
-2.04859e-09
4.11309e-05
-2.25054e-09
4.11313e-05
-2.41643e-09
4.11316e-05
-2.53678e-09
4.1132e-05
-2.60299e-09
4.11324e-05
-2.60744e-09
4.11327e-05
-2.54311e-09
4.1133e-05
-2.40244e-09
4.11333e-05
-2.17635e-09
4.11336e-05
-1.85469e-09
4.11337e-05
-1.42802e-09
4.11338e-05
-8.89897e-10
4.11338e-05
-2.39229e-10
4.11336e-05
5.17584e-10
4.11334e-05
1.3651e-09
4.11329e-05
2.27835e-09
4.11323e-05
3.2238e-09
4.11316e-05
4.16139e-09
4.11307e-05
5.04679e-09
4.11297e-05
5.83315e-09
4.11286e-05
6.47202e-09
4.11274e-05
6.91389e-09
4.11262e-05
7.10918e-09
4.11249e-05
7.01071e-09
4.11237e-05
6.57811e-09
4.11227e-05
5.78448e-09
4.11217e-05
4.62445e-09
4.1121e-05
3.12221e-09
4.11206e-05
1.3374e-09
4.11204e-05
-6.33495e-10
4.11205e-05
-2.66206e-09
4.11209e-05
-4.59965e-09
4.11215e-05
-6.29483e-09
4.11223e-05
-7.61356e-09
4.11231e-05
-8.45826e-09
4.1124e-05
-8.78182e-09
4.11248e-05
-8.59364e-09
4.11255e-05
-7.95654e-09
4.1126e-05
-6.97516e-09
4.11263e-05
-5.77846e-09
4.11263e-05
-4.4997e-09
4.11262e-05
-3.2581e-09
4.11259e-05
-2.14495e-09
4.11255e-05
-1.21632e-09
4.1125e-05
-4.92082e-10
4.11245e-05
3.95751e-11
4.1124e-05
4.14571e-10
4.11236e-05
6.83512e-10
4.11232e-05
9.03166e-10
4.11229e-05
1.12884e-09
4.11226e-05
1.40841e-09
4.11224e-05
1.77731e-09
4.11222e-05
2.25374e-09
4.1122e-05
2.83417e-09
4.11218e-05
3.48984e-09
4.11215e-05
4.16557e-09
4.11212e-05
4.7825e-09
4.11209e-05
5.2454e-09
4.11206e-05
5.45452e-09
4.11203e-05
5.32103e-09
4.11201e-05
4.78354e-09
4.11201e-05
3.8228e-09
4.11202e-05
2.471e-09
4.11205e-05
8.12894e-10
4.1121e-05
-1.02217e-09
4.11218e-05
-2.87616e-09
4.11228e-05
-4.58325e-09
4.1124e-05
-5.99161e-09
4.11252e-05
-6.98262e-09
4.11265e-05
-7.48409e-09
4.11278e-05
-7.4757e-09
4.1129e-05
-6.98627e-09
4.113e-05
-6.0844e-09
4.11309e-05
-4.86518e-09
4.11315e-05
-3.436e-09
4.11319e-05
-1.90406e-09
4.1132e-05
-3.67736e-10
4.11319e-05
1.08847e-09
4.11315e-05
2.39621e-09
4.1131e-05
3.5045e-09
4.11304e-05
4.37974e-09
4.11296e-05
5.00439e-09
4.11288e-05
5.37486e-09
4.11279e-05
5.50002e-09
4.1127e-05
5.4007e-09
4.11262e-05
5.10839e-09
4.11255e-05
4.66194e-09
4.11248e-05
4.10315e-09
4.11242e-05
3.47301e-09
4.11237e-05
2.80921e-09
4.11233e-05
2.1445e-09
4.1123e-05
1.50577e-09
4.11228e-05
9.13406e-10
4.11227e-05
3.80809e-10
4.11227e-05
-8.50536e-11
4.11228e-05
-4.81583e-10
4.11229e-05
-8.08122e-10
4.11231e-05
-1.06515e-09
4.11233e-05
-1.25542e-09
4.11235e-05
-1.38454e-09
4.11238e-05
-1.45892e-09
4.1124e-05
-1.48465e-09
4.11243e-05
-1.47029e-09
4.11246e-05
-1.42897e-09
4.11248e-05
-1.37653e-09
4.1125e-05
-1.33196e-09
4.11251e-05
-1.32123e-09
4.11252e-05
-1.3772e-09
4.11251e-05
-1.5372e-09
4.11248e-05
-1.84156e-09
4.11243e-05
-2.33027e-09
4.11234e-05
-3.0392e-09
4.11222e-05
-3.99166e-09
4.11204e-05
-5.18863e-09
4.11181e-05
-6.60293e-09
4.11152e-05
-8.15699e-09
4.11117e-05
-9.72452e-09
4.11076e-05
-1.1127e-08
4.1103e-05
-1.2106e-08
4.10981e-05
-1.24139e-08
-1.2418e-08
4.32241e-05
-6.75602e-09
4.32149e-05
-6.85879e-09
4.32052e-05
-7.21898e-09
4.3195e-05
-7.43604e-09
4.31849e-05
-7.42588e-09
4.3175e-05
-7.20854e-09
4.31657e-05
-6.81757e-09
4.31573e-05
-6.27825e-09
4.31499e-05
-5.64721e-09
4.31437e-05
-4.96405e-09
4.31385e-05
-4.27093e-09
4.31344e-05
-3.60309e-09
4.31313e-05
-2.98267e-09
4.3129e-05
-2.42482e-09
4.31273e-05
-1.93963e-09
4.31262e-05
-1.52919e-09
4.31255e-05
-1.19165e-09
4.3125e-05
-9.27674e-10
4.31248e-05
-7.37891e-10
4.31247e-05
-6.19803e-10
4.31246e-05
-5.69368e-10
4.31246e-05
-5.83842e-10
4.31247e-05
-6.60707e-10
4.31247e-05
-7.94043e-10
4.31248e-05
-9.74216e-10
4.31249e-05
-1.19052e-09
4.3125e-05
-1.43206e-09
4.31251e-05
-1.6866e-09
4.31252e-05
-1.94039e-09
4.31253e-05
-2.17967e-09
4.31255e-05
-2.3919e-09
4.31256e-05
-2.56575e-09
4.31258e-05
-2.69089e-09
4.31259e-05
-2.75821e-09
4.31261e-05
-2.75982e-09
4.31262e-05
-2.68816e-09
4.31264e-05
-2.53463e-09
4.31265e-05
-2.28883e-09
4.31266e-05
-1.93927e-09
4.31266e-05
-1.47539e-09
4.31266e-05
-8.89968e-10
4.31266e-05
-1.81783e-10
4.31264e-05
6.42129e-10
4.31262e-05
1.56496e-09
4.3126e-05
2.55988e-09
4.31256e-05
3.59104e-09
4.31251e-05
4.6155e-09
4.31246e-05
5.58542e-09
4.3124e-05
6.44992e-09
4.31233e-05
7.15619e-09
4.31226e-05
7.65033e-09
4.31218e-05
7.87859e-09
4.3121e-05
7.79009e-09
4.31203e-05
7.3417e-09
4.31195e-05
6.50498e-09
4.31189e-05
5.27474e-09
4.31183e-05
3.6776e-09
4.31179e-05
1.77834e-09
4.31176e-05
-3.18487e-10
4.31174e-05
-2.47377e-09
4.31173e-05
-4.52652e-09
4.31173e-05
-6.31265e-09
4.31174e-05
-7.68694e-09
4.31175e-05
-8.54381e-09
4.31175e-05
-8.83289e-09
4.31175e-05
-8.56605e-09
4.31174e-05
-7.81425e-09
4.31171e-05
-6.69508e-09
4.31167e-05
-5.35338e-09
4.31161e-05
-3.93906e-09
4.31154e-05
-2.58635e-09
4.31147e-05
-1.39804e-09
4.31139e-05
-4.36843e-10
4.31131e-05
2.75926e-10
4.31124e-05
7.5548e-10
4.31118e-05
1.04488e-09
4.31113e-05
1.2045e-09
4.31109e-05
1.30182e-09
4.31106e-05
1.4025e-09
4.31104e-05
1.56324e-09
4.31104e-05
1.82594e-09
4.31104e-05
2.21278e-09
4.31106e-05
2.72183e-09
4.31107e-05
3.32371e-09
4.31109e-05
3.96064e-09
4.31112e-05
4.54946e-09
4.31114e-05
4.98939e-09
4.31117e-05
5.17475e-09
4.3112e-05
5.01122e-09
4.31123e-05
4.4331e-09
4.31128e-05
3.41867e-09
4.31132e-05
1.99994e-09
4.31138e-05
2.64293e-10
4.31144e-05
-1.65344e-09
4.31151e-05
-3.58741e-09
4.31159e-05
-5.36285e-09
4.31167e-05
-6.81947e-09
4.31176e-05
-7.83189e-09
4.31184e-05
-8.3238e-09
4.31192e-05
-8.27361e-09
4.31199e-05
-7.71171e-09
4.31206e-05
-6.71066e-09
4.31211e-05
-5.37145e-09
4.31214e-05
-3.80869e-09
4.31217e-05
-2.13737e-09
4.31218e-05
-4.63055e-10
4.31217e-05
1.12388e-09
4.31216e-05
2.55036e-09
4.31213e-05
3.76132e-09
4.3121e-05
4.71974e-09
4.31206e-05
5.40615e-09
4.31201e-05
5.81702e-09
4.31197e-05
5.96262e-09
4.31192e-05
5.86541e-09
4.31188e-05
5.55863e-09
4.31183e-05
5.08345e-09
4.3118e-05
4.48458e-09
4.31176e-05
3.80601e-09
4.31174e-05
3.08838e-09
4.31171e-05
2.36728e-09
4.3117e-05
1.67202e-09
4.31169e-05
1.02482e-09
4.31168e-05
4.40823e-10
4.31168e-05
-7.12412e-11
4.31168e-05
-5.07993e-10
4.31169e-05
-8.69704e-10
4.3117e-05
-1.1581e-09
4.31171e-05
-1.37538e-09
4.31172e-05
-1.52556e-09
4.31174e-05
-1.61497e-09
4.31175e-05
-1.65011e-09
4.31177e-05
-1.63692e-09
4.31179e-05
-1.5831e-09
4.3118e-05
-1.49938e-09
4.31181e-05
-1.39881e-09
4.3118e-05
-1.29641e-09
4.31179e-05
-1.20808e-09
4.31175e-05
-1.15215e-09
4.31168e-05
-1.15073e-09
4.31157e-05
-1.22389e-09
4.3114e-05
-1.38838e-09
4.31117e-05
-1.65475e-09
4.31085e-05
-2.02619e-09
4.31044e-05
-2.49444e-09
4.30993e-05
-3.02907e-09
4.30931e-05
-3.5844e-09
4.30861e-05
-4.08914e-09
4.30784e-05
-4.44612e-09
4.30706e-05
-4.55542e-09
-4.55233e-09
4.38984e-05
3.44403e-09
4.38879e-05
3.60667e-09
4.38766e-05
4.03622e-09
4.38649e-05
4.35362e-09
4.3853e-05
4.4651e-09
4.38414e-05
4.37007e-09
4.38305e-05
4.087e-09
4.38206e-05
3.64426e-09
4.38118e-05
3.0928e-09
4.38044e-05
2.48416e-09
4.37982e-05
1.87226e-09
4.37933e-05
1.30444e-09
4.37896e-05
8.11445e-10
4.37867e-05
4.11563e-10
4.37847e-05
1.08292e-10
4.37832e-05
-1.04347e-10
4.37823e-05
-2.40963e-10
4.37817e-05
-3.2343e-10
4.37813e-05
-3.74384e-10
4.37811e-05
-4.14287e-10
4.3781e-05
-4.61702e-10
4.3781e-05
-5.32236e-10
4.37809e-05
-6.36374e-10
4.37809e-05
-7.78315e-10
4.37809e-05
-9.56914e-10
4.37809e-05
-1.16726e-09
4.37808e-05
-1.40112e-09
4.37808e-05
-1.64714e-09
4.37808e-05
-1.89235e-09
4.37807e-05
-2.12392e-09
4.37806e-05
-2.32968e-09
4.37806e-05
-2.49803e-09
4.37805e-05
-2.61855e-09
4.37804e-05
-2.68258e-09
4.37804e-05
-2.68273e-09
4.37803e-05
-2.61117e-09
4.37802e-05
-2.45847e-09
4.37801e-05
-2.21349e-09
4.37801e-05
-1.86459e-09
4.378e-05
-1.4013e-09
4.37799e-05
-8.16433e-10
4.37798e-05
-1.08525e-10
4.37798e-05
7.1586e-10
4.37797e-05
1.64042e-09
4.37796e-05
2.63881e-09
4.37795e-05
3.67554e-09
4.37794e-05
4.70791e-09
4.37793e-05
5.68817e-09
4.37792e-05
6.56535e-09
4.37791e-05
7.2864e-09
4.37789e-05
7.79718e-09
4.37788e-05
8.04385e-09
4.37786e-05
7.9757e-09
4.37784e-05
7.54989e-09
4.37782e-05
6.73827e-09
4.37779e-05
5.53588e-09
4.37776e-05
3.96948e-09
4.37773e-05
2.10409e-09
4.37769e-05
4.4706e-11
4.37765e-05
-2.06896e-09
4.37761e-05
-4.07497e-09
4.37756e-05
-5.80835e-09
4.3775e-05
-7.12325e-09
4.37744e-05
-7.91412e-09
4.37737e-05
-8.13183e-09
4.37729e-05
-7.79087e-09
4.3772e-05
-6.96641e-09
4.37711e-05
-5.78147e-09
4.37701e-05
-4.38712e-09
4.37691e-05
-2.93952e-09
4.37681e-05
-1.57838e-09
4.37672e-05
-4.10406e-10
4.37662e-05
5.00038e-10
4.37654e-05
1.13253e-09
4.37646e-05
1.50561e-09
4.3764e-05
1.66742e-09
4.37635e-05
1.6845e-09
4.37632e-05
1.6308e-09
4.3763e-05
1.57813e-09
4.3763e-05
1.58846e-09
4.37631e-05
1.70775e-09
4.37634e-05
1.96094e-09
4.37637e-05
2.34798e-09
4.37642e-05
2.84108e-09
4.37648e-05
3.38421e-09
4.37654e-05
3.89615e-09
4.37661e-05
4.27802e-09
4.37669e-05
4.42568e-09
4.37677e-05
4.2457e-09
4.37684e-05
3.67249e-09
4.37692e-05
2.68337e-09
4.37698e-05
1.30807e-09
4.37705e-05
-3.69634e-10
4.37711e-05
-2.2194e-09
4.37715e-05
-4.08013e-09
4.3772e-05
-5.7814e-09
4.37723e-05
-7.16668e-09
4.37726e-05
-8.11359e-09
4.37728e-05
-8.54801e-09
4.3773e-05
-8.44957e-09
4.37731e-05
-7.84885e-09
4.37732e-05
-6.81762e-09
4.37733e-05
-5.45532e-09
4.37734e-05
-3.8749e-09
4.37734e-05
-2.19012e-09
4.37735e-05
-5.05902e-10
4.37735e-05
1.08804e-09
4.37736e-05
2.51973e-09
4.37736e-05
3.73539e-09
4.37736e-05
4.6986e-09
4.37736e-05
5.38979e-09
4.37736e-05
5.80537e-09
4.37736e-05
5.95608e-09
4.37736e-05
5.86482e-09
4.37736e-05
5.5644e-09
4.37736e-05
5.09491e-09
4.37736e-05
4.5001e-09
4.37736e-05
3.82375e-09
4.37736e-05
3.1069e-09
4.37736e-05
2.38574e-09
4.37735e-05
1.68971e-09
4.37735e-05
1.04048e-09
4.37735e-05
4.52682e-10
4.37735e-05
-6.45408e-11
4.37735e-05
-5.06795e-10
4.37735e-05
-8.74024e-10
4.37735e-05
-1.16881e-09
4.37735e-05
-1.39388e-09
4.37736e-05
-1.55218e-09
4.37736e-05
-1.64871e-09
4.37736e-05
-1.68894e-09
4.37737e-05
-1.67569e-09
4.37737e-05
-1.61053e-09
4.37737e-05
-1.49726e-09
4.37736e-05
-1.34028e-09
4.37735e-05
-1.14052e-09
4.37732e-05
-8.95085e-10
4.37726e-05
-6.01688e-10
4.37717e-05
-2.59483e-10
4.37704e-05
1.36736e-10
4.37684e-05
5.94765e-10
4.37656e-05
1.11568e-09
4.37619e-05
1.68948e-09
4.37571e-05
2.30747e-09
4.37511e-05