/*--------------------------------*- C++ -*----------------------------------*\
| =========                 |                                                 |
| \\      /  F ield         | OpenFOAM: The Open Source CFD Toolbox           |
|  \\    /   O peration     | Version:  2406                                  |
|   \\  /    A nd           | Website:  www.openfoam.com                      |
|    \\/     M anipulation  |                                                 |
\*---------------------------------------------------------------------------*/
FoamFile
{
    version     2.0;
    format      ascii;
    arch        "LSB;label=32;scalar=64";
    class       volVectorField;
    location    "0.1";
    object      U;
}
// * * * * * * * * * * * * * * * * * * * * * * * * * * * * * * * * * * * * * //

dimensions      [0 1 -1 0 0 0 0];

internalField   nonuniform List<vector> 
2250
(
(0.0988168 -3.92678e-05 0)
(0.0988969 -2.80551e-05 0)
(0.0989641 -2.0271e-05 0)
(0.0990164 -1.68018e-05 0)
(0.0990635 -1.52861e-05 0)
(0.0991087 -1.41958e-05 0)
(0.0991508 -1.30394e-05 0)
(0.0991892 -1.16447e-05 0)
(0.099223 -1.00183e-05 0)
(0.0992518 -8.3667e-06 0)
(0.0992756 -6.67697e-06 0)
(0.0992945 -5.10865e-06 0)
(0.099309 -3.78012e-06 0)
(0.0993197 -2.66022e-06 0)
(0.0993273 -1.76897e-06 0)
(0.0993324 -1.10661e-06 0)
(0.0993357 -6.2443e-07 0)
(0.0993377 -2.9727e-07 0)
(0.0993388 -1.00721e-07 0)
(0.0993394 1.87403e-08 0)
(0.0993396 8.1377e-08 0)
(0.0993397 8.37186e-08 0)
(0.0993398 4.38779e-08 0)
(0.0993401 -1.39059e-08 0)
(0.0993405 -8.58324e-08 0)
(0.0993411 -1.70977e-07 0)
(0.0993419 -2.57539e-07 0)
(0.099343 -3.37467e-07 0)
(0.0993444 -4.16683e-07 0)
(0.099346 -4.99788e-07 0)
(0.0993478 -5.76707e-07 0)
(0.0993498 -6.353e-07 0)
(0.099352 -6.77141e-07 0)
(0.0993543 -7.09771e-07 0)
(0.0993566 -7.30636e-07 0)
(0.0993589 -7.30154e-07 0)
(0.0993612 -7.06716e-07 0)
(0.0993635 -6.67535e-07 0)
(0.0993654 -6.14086e-07 0)
(0.0993671 -5.34869e-07 0)
(0.0993685 -4.1614e-07 0)
(0.0993694 -2.55851e-07 0)
(0.0993697 -6.37675e-08 0)
(0.0993694 1.50048e-07 0)
(0.0993683 3.81648e-07 0)
(0.0993664 6.29781e-07 0)
(0.0993637 8.87657e-07 0)
(0.0993602 1.14087e-06 0)
(0.099356 1.37237e-06 0)
(0.0993511 1.5678e-06 0)
(0.0993457 1.71575e-06 0)
(0.09934 1.80398e-06 0)
(0.0993342 1.81637e-06 0)
(0.0993286 1.73409e-06 0)
(0.0993235 1.54057e-06 0)
(0.0993192 1.22685e-06 0)
(0.0993162 7.95302e-07 0)
(0.0993147 2.60708e-07 0)
(0.099315 -3.53935e-07 0)
(0.0993173 -1.00524e-06 0)
(0.0993216 -1.64315e-06 0)
(0.0993277 -2.21304e-06 0)
(0.0993353 -2.664e-06 0)
(0.0993441 -2.9587e-06 0)
(0.0993536 -3.08056e-06 0)
(0.0993633 -3.03571e-06 0)
(0.0993726 -2.84962e-06 0)
(0.0993812 -2.55995e-06 0)
(0.0993888 -2.2086e-06 0)
(0.0993953 -1.83519e-06 0)
(0.0994006 -1.47271e-06 0)
(0.0994049 -1.1451e-06 0)
(0.0994081 -8.66044e-07 0)
(0.0994106 -6.38797e-07 0)
(0.0994123 -4.57523e-07 0)
(0.0994135 -3.10142e-07 0)
(0.0994142 -1.81979e-07 0)
(0.0994145 -5.86609e-08 0)
(0.0994143 7.27534e-08 0)
(0.0994137 2.24881e-07 0)
(0.0994125 4.08593e-07 0)
(0.0994107 6.3182e-07 0)
(0.099408 8.96504e-07 0)
(0.0994045 1.19604e-06 0)
(0.0994001 1.51409e-06 0)
(0.0993948 1.82436e-06 0)
(0.0993887 2.09117e-06 0)
(0.0993819 2.27212e-06 0)
(0.099375 2.32458e-06 0)
(0.0993682 2.2157e-06 0)
(0.099362 1.93232e-06 0)
(0.099357 1.48629e-06 0)
(0.0993535 9.12911e-07 0)
(0.0993519 2.64269e-07 0)
(0.0993523 -3.98556e-07 0)
(0.0993547 -1.01403e-06 0)
(0.0993587 -1.52612e-06 0)
(0.0993641 -1.89199e-06 0)
(0.0993703 -2.08764e-06 0)
(0.0993768 -2.10944e-06 0)
(0.0993831 -1.97152e-06 0)
(0.0993888 -1.70092e-06 0)
(0.0993935 -1.33258e-06 0)
(0.0993969 -9.04247e-07 0)
(0.099399 -4.5173e-07 0)
(0.0993997 -5.8841e-09 0)
(0.0993991 4.08201e-07 0)
(0.0993972 7.70768e-07 0)
(0.0993944 1.06836e-06 0)
(0.0993906 1.29416e-06 0)
(0.0993863 1.44562e-06 0)
(0.0993816 1.52128e-06 0)
(0.0993768 1.52165e-06 0)
(0.099372 1.45411e-06 0)
(0.0993675 1.33457e-06 0)
(0.0993634 1.18092e-06 0)
(0.0993599 1.00504e-06 0)
(0.0993569 8.13317e-07 0)
(0.0993545 6.13799e-07 0)
(0.0993527 4.1866e-07 0)
(0.0993515 2.39274e-07 0)
(0.0993508 8.18444e-08 0)
(0.0993506 -5.18045e-08 0)
(0.0993508 -1.61488e-07 0)
(0.0993513 -2.46582e-07 0)
(0.0993521 -3.05517e-07 0)
(0.099353 -3.38369e-07 0)
(0.0993541 -3.51381e-07 0)
(0.0993552 -3.55359e-07 0)
(0.0993564 -3.5336e-07 0)
(0.0993575 -3.32536e-07 0)
(0.0993586 -2.80707e-07 0)
(0.0993595 -2.10526e-07 0)
(0.0993603 -1.48749e-07 0)
(0.0993611 -1.03698e-07 0)
(0.0993618 -7.41814e-08 0)
(0.0993627 -8.95291e-08 0)
(0.0993639 -2.00561e-07 0)
(0.0993657 -4.37118e-07 0)
(0.0993686 -8.1985e-07 0)
(0.0993731 -1.3976e-06 0)
(0.0993799 -2.22849e-06 0)
(0.0993897 -3.3407e-06 0)
(0.0994034 -4.73987e-06 0)
(0.0994216 -6.43887e-06 0)
(0.0994449 -8.48685e-06 0)
(0.0994737 -1.10544e-05 0)
(0.0995097 -1.4771e-05 0)
(0.09956 -2.12715e-05 0)
(0.0996238 -3.08721e-05 0)
(0.260308 -0.000140408 0)
(0.260426 -0.000118969 0)
(0.260551 -0.000104083 0)
(0.260665 -9.62011e-05 0)
(0.260775 -9.0864e-05 0)
(0.260881 -8.54402e-05 0)
(0.260981 -7.87054e-05 0)
(0.261072 -7.05958e-05 0)
(0.261153 -6.13138e-05 0)
(0.261222 -5.15585e-05 0)
(0.26128 -4.19061e-05 0)
(0.261327 -3.28863e-05 0)
(0.261363 -2.49242e-05 0)
(0.261391 -1.82153e-05 0)
(0.261411 -1.27982e-05 0)
(0.261425 -8.59774e-06 0)
(0.261434 -5.47758e-06 0)
(0.261441 -3.27526e-06 0)
(0.261445 -1.81184e-06 0)
(0.261447 -9.06599e-07 0)
(0.261448 -4.4226e-07 0)
(0.261449 -3.1862e-07 0)
(0.26145 -4.24638e-07 0)
(0.261451 -6.88554e-07 0)
(0.261453 -1.06992e-06 0)
(0.261455 -1.51583e-06 0)
(0.261457 -1.98137e-06 0)
(0.261461 -2.45956e-06 0)
(0.261464 -2.95147e-06 0)
(0.261469 -3.42554e-06 0)
(0.261474 -3.83242e-06 0)
(0.261479 -4.15029e-06 0)
(0.261485 -4.38992e-06 0)
(0.261491 -4.55445e-06 0)
(0.261497 -4.61825e-06 0)
(0.261503 -4.55554e-06 0)
(0.261509 -4.36804e-06 0)
(0.261514 -4.06449e-06 0)
(0.261519 -3.62314e-06 0)
(0.261523 -2.99552e-06 0)
(0.261526 -2.14833e-06 0)
(0.261528 -1.09098e-06 0)
(0.261529 1.39081e-07 0)
(0.261527 1.5071e-06 0)
(0.261524 2.988e-06 0)
(0.261519 4.54761e-06 0)
(0.261511 6.12345e-06 0)
(0.261502 7.62841e-06 0)
(0.26149 8.97083e-06 0)
(0.261477 1.00685e-05 0)
(0.261463 1.0845e-05 0)
(0.261448 1.1218e-05 0)
(0.261434 1.10946e-05 0)
(0.261419 1.03829e-05 0)
(0.261406 9.01275e-06 0)
(0.261396 6.95566e-06 0)
(0.261389 4.24104e-06 0)
(0.261385 9.65535e-07 0)
(0.261386 -2.70672e-06 0)
(0.261392 -6.53663e-06 0)
(0.261403 -1.02408e-05 0)
(0.261418 -1.35226e-05 0)
(0.261437 -1.61159e-05 0)
(0.261459 -1.78291e-05 0)
(0.261483 -1.85757e-05 0)
(0.261506 -1.83835e-05 0)
(0.261529 -1.73796e-05 0)
(0.261551 -1.57596e-05 0)
(0.26157 -1.37491e-05 0)
(0.261586 -1.15698e-05 0)
(0.261599 -9.41218e-06 0)
(0.26161 -7.41725e-06 0)
(0.261618 -5.66805e-06 0)
(0.261624 -4.18992e-06 0)
(0.261629 -2.95916e-06 0)
(0.261632 -1.91759e-06 0)
(0.261633 -9.88988e-07 0)
(0.261633 -9.30968e-08 0)
(0.261633 8.45524e-07 0)
(0.261631 1.89354e-06 0)
(0.261627 3.1038e-06 0)
(0.261622 4.50765e-06 0)
(0.261615 6.10224e-06 0)
(0.261606 7.83742e-06 0)
(0.261594 9.60787e-06 0)
(0.261581 1.12547e-05 0)
(0.261566 1.25776e-05 0)
(0.26155 1.3358e-05 0)
(0.261533 1.33934e-05 0)
(0.261517 1.2538e-05 0)
(0.261502 1.07426e-05 0)
(0.261491 8.07837e-06 0)
(0.261483 4.73737e-06 0)
(0.26148 1.00626e-06 0)
(0.261482 -2.77619e-06 0)
(0.261488 -6.26682e-06 0)
(0.261498 -9.16043e-06 0)
(0.261512 -1.12248e-05 0)
(0.261527 -1.23252e-05 0)
(0.261544 -1.24338e-05 0)
(0.261559 -1.16228e-05 0)
(0.261573 -1.00412e-05 0)
(0.261585 -7.88549e-06 0)
(0.261594 -5.36879e-06 0)
(0.261599 -2.69533e-06 0)
(0.261601 -4.38045e-08 0)
(0.2616 2.43808e-06 0)
(0.261595 4.63238e-06 0)
(0.261588 6.45149e-06 0)
(0.261579 7.84169e-06 0)
(0.261568 8.78244e-06 0)
(0.261556 9.27743e-06 0)
(0.261544 9.34611e-06 0)
(0.261531 9.02638e-06 0)
(0.26152 8.38155e-06 0)
(0.261509 7.49377e-06 0)
(0.2615 6.4437e-06 0)
(0.261492 5.29825e-06 0)
(0.261486 4.1167e-06 0)
(0.261481 2.95823e-06 0)
(0.261477 1.87562e-06 0)
(0.261475 9.05098e-07 0)
(0.261474 6.52216e-08 0)
(0.261474 -6.39169e-07 0)
(0.261475 -1.21203e-06 0)
(0.261477 -1.65733e-06 0)
(0.261479 -1.97167e-06 0)
(0.261482 -2.15263e-06 0)
(0.261485 -2.21838e-06 0)
(0.261488 -2.20581e-06 0)
(0.261491 -2.13508e-06 0)
(0.261494 -1.99633e-06 0)
(0.261496 -1.80256e-06 0)
(0.261499 -1.63458e-06 0)
(0.261502 -1.59609e-06 0)
(0.261504 -1.76605e-06 0)
(0.261508 -2.25847e-06 0)
(0.261512 -3.28354e-06 0)
(0.261518 -5.08253e-06 0)
(0.261527 -7.84961e-06 0)
(0.261541 -1.17632e-05 0)
(0.26156 -1.70183e-05 0)
(0.261586 -2.37399e-05 0)
(0.261621 -3.18912e-05 0)
(0.261666 -4.13045e-05 0)
(0.261723 -5.17583e-05 0)
(0.261791 -6.31287e-05 0)
(0.261869 -7.57087e-05 0)
(0.261965 -9.14475e-05 0)
(0.262064 -0.000111341 0)
(0.389634 -0.000254406 0)
(0.389736 -0.000238996 0)
(0.389857 -0.000231366 0)
(0.389975 -0.000225573 0)
(0.390094 -0.00021791 0)
(0.390212 -0.000206839 0)
(0.390324 -0.000191613 0)
(0.390427 -0.000172498 0)
(0.390519 -0.000150657 0)
(0.390598 -0.000127426 0)
(0.390665 -0.000104429 0)
(0.390719 -8.28932e-05 0)
(0.390762 -6.36769e-05 0)
(0.390795 -4.73003e-05 0)
(0.39082 -3.39447e-05 0)
(0.390838 -2.34629e-05 0)
(0.39085 -1.55674e-05 0)
(0.390859 -9.88286e-06 0)
(0.390864 -6.00842e-06 0)
(0.390868 -3.58155e-06 0)
(0.390871 -2.26967e-06 0)
(0.390873 -1.79081e-06 0)
(0.390874 -1.92872e-06 0)
(0.390876 -2.51273e-06 0)
(0.390879 -3.3957e-06 0)
(0.390882 -4.46312e-06 0)
(0.390886 -5.64717e-06 0)
(0.39089 -6.89872e-06 0)
(0.390896 -8.14502e-06 0)
(0.390902 -9.2968e-06 0)
(0.390909 -1.02904e-05 0)
(0.390916 -1.11e-05 0)
(0.390924 -1.17089e-05 0)
(0.390932 -1.20843e-05 0)
(0.390941 -1.21849e-05 0)
(0.390949 -1.19809e-05 0)
(0.390957 -1.14516e-05 0)
(0.390965 -1.05616e-05 0)
(0.390971 -9.24879e-06 0)
(0.390977 -7.44853e-06 0)
(0.390981 -5.12991e-06 0)
(0.390983 -2.30793e-06 0)
(0.390983 9.70751e-07 0)
(0.390981 4.64082e-06 0)
(0.390975 8.61179e-06 0)
(0.390967 1.27507e-05 0)
(0.390957 1.68773e-05 0)
(0.390943 2.07794e-05 0)
(0.390927 2.42378e-05 0)
(0.390908 2.70378e-05 0)
(0.390888 2.89643e-05 0)
(0.390867 2.97929e-05 0)
(0.390846 2.92942e-05 0)
(0.390826 2.72589e-05 0)
(0.390808 2.35353e-05 0)
(0.390793 1.80722e-05 0)
(0.390783 1.09585e-05 0)
(0.390778 2.45438e-06 0)
(0.390779 -6.99734e-06 0)
(0.390786 -1.67911e-05 0)
(0.3908 -2.6215e-05 0)
(0.39082 -3.45385e-05 0)
(0.390844 -4.11165e-05 0)
(0.390873 -4.5486e-05 0)
(0.390904 -4.74321e-05 0)
(0.390935 -4.70092e-05 0)
(0.390965 -4.4513e-05 0)
(0.390992 -4.0416e-05 0)
(0.391017 -3.5281e-05 0)
(0.391038 -2.96745e-05 0)
(0.391054 -2.40905e-05 0)
(0.391067 -1.88983e-05 0)
(0.391077 -1.43179e-05 0)
(0.391084 -1.04227e-05 0)
(0.391089 -7.16391e-06 0)
(0.391091 -4.40527e-06 0)
(0.391092 -1.95971e-06 0)
(0.391092 3.78582e-07 0)
(0.39109 2.80874e-06 0)
(0.391087 5.50328e-06 0)
(0.391082 8.59168e-06 0)
(0.391075 1.21405e-05 0)
(0.391066 1.6128e-05 0)
(0.391054 2.04162e-05 0)
(0.391039 2.47321e-05 0)
(0.391022 2.86722e-05 0)
(0.391003 3.17379e-05 0)
(0.390982 3.3402e-05 0)
(0.390961 3.3195e-05 0)
(0.390941 3.07956e-05 0)
(0.390923 2.61099e-05 0)
(0.39091 1.932e-05 0)
(0.390901 1.08883e-05 0)
(0.390898 1.50894e-06 0)
(0.390902 -7.98597e-06 0)
(0.390911 -1.67426e-05 0)
(0.390926 -2.40007e-05 0)
(0.390945 -2.91829e-05 0)
(0.390966 -3.19506e-05 0)
(0.390989 -3.22239e-05 0)
(0.39101 -3.01663e-05 0)
(0.39103 -2.61371e-05 0)
(0.391046 -2.06217e-05 0)
(0.391059 -1.4156e-05 0)
(0.391066 -7.26003e-06 0)
(0.391069 -3.92739e-07 0)
(0.391068 6.06623e-06 0)
(0.391062 1.18147e-05 0)
(0.391052 1.66215e-05 0)
(0.391039 2.03303e-05 0)
(0.391025 2.28692e-05 0)
(0.391008 2.4248e-05 0)
(0.390991 2.45354e-05 0)
(0.390974 2.38353e-05 0)
(0.390958 2.22839e-05 0)
(0.390943 2.00573e-05 0)
(0.39093 1.73613e-05 0)
(0.390919 1.43997e-05 0)
(0.390909 1.13481e-05 0)
(0.390902 8.35035e-06 0)
(0.390897 5.52298e-06 0)
(0.390894 2.95417e-06 0)
(0.390892 7.00674e-07 0)
(0.390892 -1.21251e-06 0)
(0.390893 -2.78784e-06 0)
(0.390895 -4.04103e-06 0)
(0.390898 -4.98083e-06 0)
(0.390902 -5.60423e-06 0)
(0.390906 -5.92099e-06 0)
(0.39091 -5.98177e-06 0)
(0.390914 -5.86317e-06 0)
(0.390918 -5.62614e-06 0)
(0.390923 -5.33307e-06 0)
(0.390927 -5.12401e-06 0)
(0.390931 -5.22945e-06 0)
(0.390935 -5.90628e-06 0)
(0.39094 -7.44976e-06 0)
(0.390947 -1.02864e-05 0)
(0.390955 -1.49567e-05 0)
(0.390967 -2.19794e-05 0)
(0.390984 -3.17804e-05 0)
(0.391007 -4.46954e-05 0)
(0.391038 -6.08811e-05 0)
(0.391078 -8.01388e-05 0)
(0.39113 -0.000101834 0)
(0.391193 -0.000124965 0)
(0.391267 -0.000148134 0)
(0.391349 -0.000169295 0)
(0.391441 -0.000187227 0)
(0.391533 -0.000204677 0)
(0.490416 -0.000333893 0)
(0.490466 -0.000328352 0)
(0.490533 -0.000333633 0)
(0.490605 -0.00033517 0)
(0.490681 -0.000329019 0)
(0.490759 -0.000315041 0)
(0.490833 -0.000293511 0)
(0.490903 -0.000265418 0)
(0.490965 -0.000232774 0)
(0.491021 -0.000197914 0)
(0.491067 -0.000163192 0)
(0.491106 -0.000130487 0)
(0.491138 -0.000101156 0)
(0.491162 -7.59996e-05 0)
(0.491181 -5.53171e-05 0)
(0.491196 -3.89367e-05 0)
(0.491206 -2.64633e-05 0)
(0.491213 -1.73965e-05 0)
(0.491219 -1.11501e-05 0)
(0.491222 -7.14667e-06 0)
(0.491225 -4.89882e-06 0)
(0.491227 -4.02216e-06 0)
(0.49123 -4.18335e-06 0)
(0.491232 -5.08963e-06 0)
(0.491235 -6.52028e-06 0)
(0.491239 -8.31682e-06 0)
(0.491243 -1.03421e-05 0)
(0.491248 -1.24602e-05 0)
(0.491254 -1.45401e-05 0)
(0.491261 -1.64688e-05 0)
(0.491268 -1.81607e-05 0)
(0.491276 -1.95512e-05 0)
(0.491285 -2.05799e-05 0)
(0.491294 -2.11855e-05 0)
(0.491303 -2.13116e-05 0)
(0.491312 -2.09059e-05 0)
(0.49132 -1.99077e-05 0)
(0.491328 -1.8238e-05 0)
(0.491335 -1.58076e-05 0)
(0.491341 -1.25405e-05 0)
(0.491345 -8.39694e-06 0)
(0.491347 -3.38332e-06 0)
(0.491346 2.44499e-06 0)
(0.491343 8.97585e-06 0)
(0.491337 1.60277e-05 0)
(0.491328 2.33438e-05 0)
(0.491315 3.06038e-05 0)
(0.4913 3.74483e-05 0)
(0.491281 4.3503e-05 0)
(0.49126 4.83885e-05 0)
(0.491238 5.17189e-05 0)
(0.491214 5.31005e-05 0)
(0.491191 5.21461e-05 0)
(0.491168 4.85132e-05 0)
(0.491147 4.19612e-05 0)
(0.49113 3.24213e-05 0)
(0.491117 2.00649e-05 0)
(0.49111 5.35592e-06 0)
(0.49111 -1.09337e-05 0)
(0.491116 -2.77639e-05 0)
(0.491129 -4.39225e-05 0)
(0.491148 -5.81721e-05 0)
(0.491173 -6.94218e-05 0)
(0.491201 -7.68844e-05 0)
(0.491232 -8.01861e-05 0)
(0.491263 -7.94052e-05 0)
(0.491292 -7.50333e-05 0)
(0.491319 -6.78738e-05 0)
(0.491342 -5.88997e-05 0)
(0.491361 -4.91024e-05 0)
(0.491376 -3.93559e-05 0)
(0.491387 -3.03205e-05 0)
(0.491394 -2.23954e-05 0)
(0.491399 -1.5721e-05 0)
(0.491401 -1.02191e-05 0)
(0.491401 -5.6537e-06 0)
(0.4914 -1.69389e-06 0)
(0.491398 2.02985e-06 0)
(0.491395 5.87984e-06 0)
(0.491391 1.01719e-05 0)
(0.491385 1.51387e-05 0)
(0.491378 2.08919e-05 0)
(0.491369 2.73822e-05 0)
(0.491358 3.43619e-05 0)
(0.491344 4.13629e-05 0)
(0.491328 4.77075e-05 0)
(0.491309 5.25667e-05 0)
(0.49129 5.50685e-05 0)
(0.491271 5.44405e-05 0)
(0.491252 5.01612e-05 0)
(0.491236 4.2086e-05 0)
(0.491225 3.05223e-05 0)
(0.491218 1.62332e-05 0)
(0.491217 3.64221e-07 0)
(0.491223 -1.57005e-05 0)
(0.491235 -3.05252e-05 0)
(0.491252 -4.28166e-05 0)
(0.491274 -5.15853e-05 0)
(0.491298 -5.62472e-05 0)
(0.491323 -5.6658e-05 0)
(0.491348 -5.30829e-05 0)
(0.491369 -4.61153e-05 0)
(0.491388 -3.65634e-05 0)
(0.491402 -2.53298e-05 0)
(0.491411 -1.33055e-05 0)
(0.491414 -1.29373e-06 0)
(0.491413 1.00336e-05 0)
(0.491407 2.01476e-05 0)
(0.491397 2.86543e-05 0)
(0.491383 3.52856e-05 0)
(0.491367 3.98993e-05 0)
(0.49135 4.24818e-05 0)
(0.491331 4.31365e-05 0)
(0.491313 4.20534e-05 0)
(0.491295 3.94817e-05 0)
(0.491278 3.57202e-05 0)
(0.491263 3.11079e-05 0)
(0.491251 2.5993e-05 0)
(0.49124 2.06896e-05 0)
(0.491232 1.54543e-05 0)
(0.491225 1.04859e-05 0)
(0.491221 5.93215e-06 0)
(0.491219 1.89331e-06 0)
(0.491218 -1.57513e-06 0)
(0.491219 -4.45639e-06 0)
(0.491221 -6.76291e-06 0)
(0.491225 -8.52327e-06 0)
(0.491229 -9.76717e-06 0)
(0.491233 -1.05203e-05 0)
(0.491238 -1.08252e-05 0)
(0.491243 -1.07712e-05 0)
(0.491248 -1.04876e-05 0)
(0.491253 -1.01248e-05 0)
(0.491258 -9.88996e-06 0)
(0.491263 -1.01054e-05 0)
(0.491268 -1.12035e-05 0)
(0.491273 -1.36994e-05 0)
(0.491279 -1.82131e-05 0)
(0.491286 -2.54703e-05 0)
(0.491296 -3.62393e-05 0)
(0.491309 -5.12148e-05 0)
(0.491325 -7.08553e-05 0)
(0.491347 -9.52495e-05 0)
(0.491374 -0.000123943 0)
(0.491409 -0.000155766 0)
(0.491449 -0.00018881 0)
(0.491496 -0.000220177 0)
(0.491546 -0.000245531 0)
(0.491598 -0.000260864 0)
(0.491646 -0.000271662 0)
(0.565689 -0.000350232 0)
(0.565669 -0.000351918 0)
(0.565655 -0.000367064 0)
(0.56565 -0.000375756 0)
(0.565648 -0.000373077 0)
(0.565649 -0.000359948 0)
(0.565651 -0.000337027 0)
(0.565654 -0.000306075 0)
(0.565658 -0.000269565 0)
(0.565662 -0.000230321 0)
(0.565667 -0.000190986 0)
(0.565672 -0.000153746 0)
(0.565677 -0.000120183 0)
(0.565681 -9.12576e-05 0)
(0.565686 -6.72771e-05 0)
(0.56569 -4.8109e-05 0)
(0.565693 -3.34198e-05 0)
(0.565696 -2.26337e-05 0)
(0.565699 -1.50816e-05 0)
(0.565701 -1.01831e-05 0)
(0.565703 -7.4377e-06 0)
(0.565705 -6.38848e-06 0)
(0.565707 -6.63582e-06 0)
(0.56571 -7.85932e-06 0)
(0.565713 -9.81151e-06 0)
(0.565716 -1.22795e-05 0)
(0.56572 -1.5058e-05 0)
(0.565725 -1.79553e-05 0)
(0.56573 -2.08059e-05 0)
(0.565736 -2.34697e-05 0)
(0.565743 -2.58259e-05 0)
(0.56575 -2.77657e-05 0)
(0.565757 -2.91876e-05 0)
(0.565765 -2.99995e-05 0)
(0.565773 -3.01211e-05 0)
(0.565781 -2.94742e-05 0)
(0.565788 -2.7967e-05 0)
(0.565795 -2.54895e-05 0)
(0.565801 -2.19271e-05 0)
(0.565806 -1.71831e-05 0)
(0.565809 -1.11985e-05 0)
(0.565811 -3.96881e-06 0)
(0.56581 4.43711e-06 0)
(0.565806 1.3855e-05 0)
(0.5658 2.40109e-05 0)
(0.565791 3.45268e-05 0)
(0.565779 4.49453e-05 0)
(0.565764 5.47619e-05 0)
(0.565746 6.34486e-05 0)
(0.565726 7.04627e-05 0)
(0.565705 7.52499e-05 0)
(0.565682 7.72505e-05 0)
(0.565659 7.59249e-05 0)
(0.565637 7.08038e-05 0)
(0.565616 6.15661e-05 0)
(0.565599 4.81333e-05 0)
(0.565586 3.07644e-05 0)
(0.565577 1.0126e-05 0)
(0.565575 -1.269e-05 0)
(0.565578 -3.6223e-05 0)
(0.565587 -5.87775e-05 0)
(0.565602 -7.8626e-05 0)
(0.565621 -9.42428e-05 0)
(0.565643 -0.000104521 0)
(0.565667 -0.000108927 0)
(0.565691 -0.000107562 0)
(0.565714 -0.000101112 0)
(0.565734 -9.07191e-05 0)
(0.56575 -7.77784e-05 0)
(0.565762 -6.37238e-05 0)
(0.56577 -4.98295e-05 0)
(0.565775 -3.70659e-05 0)
(0.565777 -2.60268e-05 0)
(0.565776 -1.69258e-05 0)
(0.565773 -9.65069e-06 0)
(0.56577 -3.84866e-06 0)
(0.565766 9.7878e-07 0)
(0.565762 5.39023e-06 0)
(0.565757 9.9335e-06 0)
(0.565753 1.50862e-05 0)
(0.565748 2.12003e-05 0)
(0.565742 2.84464e-05 0)
(0.565736 3.67584e-05 0)
(0.565728 4.57883e-05 0)
(0.565718 5.48855e-05 0)
(0.565707 6.312e-05 0)
(0.565694 6.93631e-05 0)
(0.565681 7.24298e-05 0)
(0.565667 7.12687e-05 0)
(0.565655 6.51652e-05 0)
(0.565645 5.3916e-05 0)
(0.565638 3.79326e-05 0)
(0.565636 1.82474e-05 0)
(0.565639 -3.58627e-06 0)
(0.565647 -2.56836e-05 0)
(0.56566 -4.60772e-05 0)
(0.565678 -6.29786e-05 0)
(0.5657 -7.50045e-05 0)
(0.565723 -8.1327e-05 0)
(0.565747 -8.17282e-05 0)
(0.565771 -7.65612e-05 0)
(0.565792 -6.66362e-05 0)
(0.565809 -5.30642e-05 0)
(0.565823 -3.70917e-05 0)
(0.565832 -1.99591e-05 0)
(0.565836 -2.79867e-06 0)
(0.565835 1.34265e-05 0)
(0.56583 2.7952e-05 0)
(0.565821 4.02158e-05 0)
(0.565809 4.98441e-05 0)
(0.565794 5.66341e-05 0)
(0.565778 6.05449e-05 0)
(0.565761 6.16932e-05 0)
(0.565744 6.03367e-05 0)
(0.565727 5.68392e-05 0)
(0.565712 5.16344e-05 0)
(0.565698 4.51951e-05 0)
(0.565686 3.79987e-05 0)
(0.565675 3.0485e-05 0)
(0.565667 2.30232e-05 0)
(0.565661 1.59035e-05 0)
(0.565657 9.33976e-06 0)
(0.565654 3.47365e-06 0)
(0.565654 -1.61543e-06 0)
(0.565654 -5.891e-06 0)
(0.565656 -9.34664e-06 0)
(0.565659 -1.2009e-05 0)
(0.565663 -1.39367e-05 0)
(0.565667 -1.51938e-05 0)
(0.565671 -1.58344e-05 0)
(0.565676 -1.59422e-05 0)
(0.565681 -1.56784e-05 0)
(0.565686 -1.52604e-05 0)
(0.565691 -1.4939e-05 0)
(0.565695 -1.50623e-05 0)
(0.5657 -1.61443e-05 0)
(0.565704 -1.88361e-05 0)
(0.565707 -2.38604e-05 0)
(0.565711 -3.19906e-05 0)
(0.565713 -4.40589e-05 0)
(0.565716 -6.08632e-05 0)
(0.565718 -8.29184e-05 0)
(0.565719 -0.000110254 0)
(0.56572 -0.000142241 0)
(0.56572 -0.000177398 0)
(0.565719 -0.000213197 0)
(0.565716 -0.000245966 0)
(0.56571 -0.000270354 0)
(0.5657 -0.000281236 0)
(0.565682 -0.000286068 0)
(0.617813 -0.000294919 0)
(0.617723 -0.000299517 0)
(0.617626 -0.000316738 0)
(0.617539 -0.000327729 0)
(0.617452 -0.000327854 0)
(0.617367 -0.000317921 0)
(0.617287 -0.000298983 0)
(0.617214 -0.000272593 0)
(0.617149 -0.000241156 0)
(0.617094 -0.000207143 0)
(0.617049 -0.00017284 0)
(0.617013 -0.000140277 0)
(0.616985 -0.000110794 0)
(0.616965 -8.5155e-05 0)
(0.616952 -6.37108e-05 0)
(0.616942 -4.64579e-05 0)
(0.616937 -3.30945e-05 0)
(0.616934 -2.31328e-05 0)
(0.616933 -1.60883e-05 0)
(0.616933 -1.1531e-05 0)
(0.616933 -9.03236e-06 0)
(0.616934 -8.19156e-06 0)
(0.616936 -8.68397e-06 0)
(0.616938 -1.0242e-05 0)
(0.61694 -1.26191e-05 0)
(0.616942 -1.55802e-05 0)
(0.616945 -1.89044e-05 0)
(0.616948 -2.23864e-05 0)
(0.616952 -2.58367e-05 0)
(0.616956 -2.90801e-05 0)
(0.616961 -3.19569e-05 0)
(0.616966 -3.43222e-05 0)
(0.616971 -3.60439e-05 0)
(0.616977 -3.70026e-05 0)
(0.616983 -3.70928e-05 0)
(0.616988 -3.6215e-05 0)
(0.616993 -3.42593e-05 0)
(0.616998 -3.10949e-05 0)
(0.617002 -2.65809e-05 0)
(0.617005 -2.05908e-05 0)
(0.617007 -1.30409e-05 0)
(0.617007 -3.91891e-06 0)
(0.617006 6.68752e-06 0)
(0.617003 1.85654e-05 0)
(0.616998 3.13657e-05 0)
(0.61699 4.4615e-05 0)
(0.61698 5.7746e-05 0)
(0.616968 7.01329e-05 0)
(0.616954 8.11165e-05 0)
(0.616938 9.00161e-05 0)
(0.61692 9.61358e-05 0)
(0.616902 9.87783e-05 0)
(0.616883 9.72773e-05 0)
(0.616865 9.1061e-05 0)
(0.616847 7.97452e-05 0)
(0.616832 6.32484e-05 0)
(0.61682 4.19063e-05 0)
(0.616811 1.65552e-05 0)
(0.616807 -1.14471e-05 0)
(0.616806 -4.02915e-05 0)
(0.61681 -6.7882e-05 0)
(0.616817 -9.20833e-05 0)
(0.616828 -0.000111006 0)
(0.616841 -0.000123274 0)
(0.616854 -0.000128222 0)
(0.616867 -0.000125975 0)
(0.616878 -0.000117401 0)
(0.616887 -0.000103948 0)
(0.616893 -8.73976e-05 0)
(0.616895 -6.95911e-05 0)
(0.616894 -5.21714e-05 0)
(0.616891 -3.63971e-05 0)
(0.616885 -2.30413e-05 0)
(0.616878 -1.23825e-05 0)
(0.616871 -4.26704e-06 0)
(0.616863 1.78207e-06 0)
(0.616856 6.44167e-06 0)
(0.61685 1.04701e-05 0)
(0.616845 1.46082e-05 0)
(0.616841 1.94995e-05 0)
(0.616838 2.56189e-05 0)
(0.616835 3.32053e-05 0)
(0.616832 4.21953e-05 0)
(0.616828 5.2172e-05 0)
(0.616825 6.23469e-05 0)
(0.616821 7.15945e-05 0)
(0.616816 7.85549e-05 0)
(0.616811 8.18028e-05 0)
(0.616807 8.007e-05 0)
(0.616803 7.2485e-05 0)
(0.616801 5.8784e-05 0)
(0.616801 3.94407e-05 0)
(0.616804 1.56792e-05 0)
(0.616811 -1.06426e-05 0)
(0.61682 -3.72604e-05 0)
(0.616834 -6.18007e-05 0)
(0.61685 -8.20941e-05 0)
(0.616868 -9.64496e-05 0)
(0.616888 -0.000103843 0)
(0.616908 -0.000103989 0)
(0.616927 -9.73026e-05 0)
(0.616944 -8.47615e-05 0)
(0.616958 -6.7717e-05 0)
(0.616969 -4.76923e-05 0)
(0.616976 -2.62087e-05 0)
(0.61698 -4.661e-06 0)
(0.61698 1.57538e-05 0)
(0.616976 3.40736e-05 0)
(0.61697 4.95848e-05 0)
(0.616961 6.18174e-05 0)
(0.61695 7.05218e-05 0)
(0.616938 7.56442e-05 0)
(0.616925 7.73129e-05 0)
(0.616912 7.58297e-05 0)
(0.616899 7.16433e-05 0)
(0.616887 6.53001e-05 0)
(0.616876 5.73875e-05 0)
(0.616867 4.84864e-05 0)
(0.616859 3.91327e-05 0)
(0.616852 2.9789e-05 0)
(0.616847 2.08304e-05 0)
(0.616844 1.25371e-05 0)
(0.616842 5.09129e-06 0)
(0.616841 -1.41039e-06 0)
(0.616841 -6.92531e-06 0)
(0.616842 -1.14378e-05 0)
(0.616844 -1.49605e-05 0)
(0.616847 -1.75496e-05 0)
(0.616851 -1.92927e-05 0)
(0.616854 -2.02723e-05 0)
(0.616858 -2.05745e-05 0)
(0.616862 -2.03485e-05 0)
(0.616866 -1.98178e-05 0)
(0.61687 -1.92411e-05 0)
(0.616874 -1.89427e-05 0)
(0.616876 -1.939e-05 0)
(0.616878 -2.11825e-05 0)
(0.616877 -2.49878e-05 0)
(0.616875 -3.15118e-05 0)
(0.616869 -4.14808e-05 0)
(0.616859 -5.55709e-05 0)
(0.616844 -7.42234e-05 0)
(0.616822 -9.74439e-05 0)
(0.616792 -0.000124677 0)
(0.616753 -0.000154517 0)
(0.616704 -0.00018459 0)
(0.616647 -0.000211553 0)
(0.616582 -0.000230579 0)
(0.616505 -0.000237148 0)
(0.616419 -0.000238233 0)
(0.64845 -0.000178118 0)
(0.648308 -0.000181404 0)
(0.648151 -0.000192413 0)
(0.648001 -0.000199578 0)
(0.647849 -0.000200162 0)
(0.647697 -0.000194554 0)
(0.647553 -0.000183633 0)
(0.647419 -0.000168247 0)
(0.6473 -0.00014989 0)
(0.647198 -0.00012994 0)
(0.647112 -0.000109771 0)
(0.647043 -9.05042e-05 0)
(0.64699 -7.28713e-05 0)
(0.646949 -5.73443e-05 0)
(0.64692 -4.41692e-05 0)
(0.6469 -3.3368e-05 0)
(0.646886 -2.47992e-05 0)
(0.646878 -1.82807e-05 0)
(0.646873 -1.36343e-05 0)
(0.64687 -1.06672e-05 0)
(0.646869 -9.16854e-06 0)
(0.646869 -8.95109e-06 0)
(0.64687 -9.86215e-06 0)
(0.646871 -1.17397e-05 0)
(0.646872 -1.43927e-05 0)
(0.646873 -1.76234e-05 0)
(0.646874 -2.12391e-05 0)
(0.646876 -2.50431e-05 0)
(0.646877 -2.88308e-05 0)
(0.646879 -3.24014e-05 0)
(0.646881 -3.55701e-05 0)
(0.646883 -3.81695e-05 0)
(0.646886 -4.00482e-05 0)
(0.646888 -4.10707e-05 0)
(0.64689 -4.11179e-05 0)
(0.646893 -4.00774e-05 0)
(0.646895 -3.78242e-05 0)
(0.646897 -3.42092e-05 0)
(0.646898 -2.90685e-05 0)
(0.646899 -2.22515e-05 0)
(0.646899 -1.36556e-05 0)
(0.646899 -3.26339e-06 0)
(0.646898 8.82289e-06 0)
(0.646895 2.23577e-05 0)
(0.646892 3.69457e-05 0)
(0.646887 5.20563e-05 0)
(0.646881 6.70541e-05 0)
(0.646873 8.12339e-05 0)
(0.646865 9.38479e-05 0)
(0.646855 0.000104122 0)
(0.646844 0.000111265 0)
(0.646833 0.000114487 0)
(0.646821 0.000113041 0)
(0.64681 0.000106289 0)
(0.646798 9.38087e-05 0)
(0.646788 7.55204e-05 0)
(0.646779 5.18116e-05 0)
(0.646771 2.3632e-05 0)
(0.646766 -7.48386e-06 0)
(0.646762 -3.9494e-05 0)
(0.64676 -7.00343e-05 0)
(0.64676 -9.66955e-05 0)
(0.646761 -0.000117344 0)
(0.646762 -0.000130427 0)
(0.646763 -0.000135197 0)
(0.646763 -0.000131811 0)
(0.646762 -0.000121285 0)
(0.646759 -0.000105309 0)
(0.646754 -8.59695e-05 0)
(0.646746 -6.54226e-05 0)
(0.646737 -4.56008e-05 0)
(0.646726 -2.79858e-05 0)
(0.646714 -1.34857e-05 0)
(0.646703 -2.41872e-06 0)
(0.646691 5.41742e-06 0)
(0.646681 1.06193e-05 0)
(0.646673 1.40293e-05 0)
(0.646666 1.65903e-05 0)
(0.646661 1.92212e-05 0)
(0.646657 2.27165e-05 0)
(0.646656 2.76639e-05 0)
(0.646656 3.43692e-05 0)
(0.646657 4.2789e-05 0)
(0.646659 5.24778e-05 0)
(0.646662 6.25731e-05 0)
(0.646665 7.18373e-05 0)
(0.646669 7.87733e-05 0)
(0.646673 8.18126e-05 0)
(0.646677 7.95555e-05 0)
(0.646682 7.10313e-05 0)
(0.646688 5.59269e-05 0)
(0.646695 3.47333e-05 0)
(0.646702 8.76601e-06 0)
(0.646711 -1.99557e-05 0)
(0.646721 -4.89564e-05 0)
(0.646732 -7.56313e-05 0)
(0.646744 -9.75925e-05 0)
(0.646757 -0.000112972 0)
(0.64677 -0.000120632 0)
(0.646782 -0.000120249 0)
(0.646794 -0.000112272 0)
(0.646804 -9.77763e-05 0)
(0.646813 -7.82592e-05 0)
(0.646819 -5.54156e-05 0)
(0.646824 -3.09448e-05 0)
(0.646826 -6.40744e-06 0)
(0.646827 1.6857e-05 0)
(0.646825 3.7766e-05 0)
(0.646822 5.55073e-05 0)
(0.646818 6.95392e-05 0)
(0.646812 7.95771e-05 0)
(0.646806 8.55655e-05 0)
(0.646799 8.76506e-05 0)
(0.646792 8.61636e-05 0)
(0.646785 8.15985e-05 0)
(0.646778 7.45656e-05 0)
(0.646772 6.57242e-05 0)
(0.646767 5.57233e-05 0)
(0.646762 4.51618e-05 0)
(0.646758 3.4564e-05 0)
(0.646756 2.43617e-05 0)
(0.646753 1.48812e-05 0)
(0.646752 6.34012e-06 0)
(0.646752 -1.14302e-06 0)
(0.646752 -7.52175e-06 0)
(0.646752 -1.27902e-05 0)
(0.646754 -1.69631e-05 0)
(0.646755 -2.00805e-05 0)
(0.646757 -2.22199e-05 0)
(0.646759 -2.34801e-05 0)
(0.646762 -2.39552e-05 0)
(0.646764 -2.37558e-05 0)
(0.646767 -2.3047e-05 0)
(0.646769 -2.20406e-05 0)
(0.646771 -2.09892e-05 0)
(0.646771 -2.02141e-05 0)
(0.64677 -2.00999e-05 0)
(0.646766 -2.10896e-05 0)
(0.646758 -2.36812e-05 0)
(0.646745 -2.8349e-05 0)
(0.646725 -3.55053e-05 0)
(0.646696 -4.54187e-05 0)
(0.646655 -5.81134e-05 0)
(0.646601 -7.33007e-05 0)
(0.646532 -9.00893e-05 0)
(0.646447 -0.000107086 0)
(0.646348 -0.000122271 0)
(0.646238 -0.000132755 0)
(0.646112 -0.000135865 0)
(0.645974 -0.000135721 0)
(0.658577 -2.5214e-05 0)
(0.658415 -2.47827e-05 0)
(0.658234 -2.42708e-05 0)
(0.658061 -2.35484e-05 0)
(0.657883 -2.26272e-05 0)
(0.657706 -2.1724e-05 0)
(0.657536 -2.09152e-05 0)
(0.657379 -2.01763e-05 0)
(0.657238 -1.9577e-05 0)
(0.657117 -1.90087e-05 0)
(0.657015 -1.83842e-05 0)
(0.656932 -1.76159e-05 0)
(0.656868 -1.66474e-05 0)
(0.656819 -1.54432e-05 0)
(0.656783 -1.40488e-05 0)
(0.656757 -1.25342e-05 0)
(0.65674 -1.10015e-05 0)
(0.656729 -9.61619e-06 0)
(0.656722 -8.55193e-06 0)
(0.656718 -7.95119e-06 0)
(0.656716 -7.92998e-06 0)
(0.656715 -8.58366e-06 0)
(0.656714 -9.96856e-06 0)
(0.656714 -1.20726e-05 0)
(0.656714 -1.48167e-05 0)
(0.656713 -1.80808e-05 0)
(0.656713 -2.17162e-05 0)
(0.656712 -2.55424e-05 0)
(0.656712 -2.93571e-05 0)
(0.656711 -3.29581e-05 0)
(0.65671 -3.61559e-05 0)
(0.656709 -3.87741e-05 0)
(0.656708 -4.06539e-05 0)
(0.656707 -4.16589e-05 0)
(0.656706 -4.16706e-05 0)
(0.656705 -4.05703e-05 0)
(0.656704 -3.822e-05 0)
(0.656702 -3.44566e-05 0)
(0.656701 -2.9105e-05 0)
(0.6567 -2.20056e-05 0)
(0.656699 -1.3048e-05 0)
(0.656698 -2.21077e-06 0)
(0.656697 1.04026e-05 0)
(0.656696 2.45395e-05 0)
(0.656695 3.97932e-05 0)
(0.656694 5.56176e-05 0)
(0.656692 7.13573e-05 0)
(0.656691 8.62805e-05 0)
(0.656689 9.96073e-05 0)
(0.656687 0.000110528 0)
(0.656685 0.000118216 0)
(0.656683 0.00012185 0)
(0.65668 0.000120653 0)
(0.656678 0.000113969 0)
(0.656674 0.000101365 0)
(0.656671 8.27659e-05 0)
(0.656666 5.85778e-05 0)
(0.656662 2.9793e-05 0)
(0.656657 -1.98769e-06 0)
(0.656651 -3.46341e-05 0)
(0.656645 -6.56794e-05 0)
(0.656637 -9.26095e-05 0)
(0.656629 -0.0001132 0)
(0.65662 -0.000125835 0)
(0.65661 -0.000129752 0)
(0.656599 -0.00012515 0)
(0.656587 -0.00011314 0)
(0.656574 -9.55566e-05 0)
(0.65656 -7.46595e-05 0)
(0.656545 -5.27861e-05 0)
(0.65653 -3.20306e-05 0)
(0.656515 -1.39964e-05 0)
(0.6565 3.41729e-07 0)
(0.656487 1.0661e-05 0)
(0.656474 1.72162e-05 0)
(0.656464 2.07016e-05 0)
(0.656456 2.2085e-05 0)
(0.65645 2.24462e-05 0)
(0.656446 2.28353e-05 0)
(0.656444 2.41588e-05 0)
(0.656445 2.70884e-05 0)
(0.656448 3.19845e-05 0)
(0.656453 3.88323e-05 0)
(0.656459 4.71955e-05 0)
(0.656467 5.62058e-05 0)
(0.656476 6.46082e-05 0)
(0.656487 7.08789e-05 0)
(0.656498 7.3416e-05 0)