/*--------------------------------*- C++ -*----------------------------------*\
| =========                 |                                                 |
| \\      /  F ield         | OpenFOAM: The Open Source CFD Toolbox           |
|  \\    /   O peration     | Version:  2406                                  |
|   \\  /    A nd           | Website:  www.openfoam.com                      |
|    \\/     M anipulation  |                                                 |
\*---------------------------------------------------------------------------*/
FoamFile
{
    version     2.0;
    format      ascii;
    arch        "LSB;label=32;scalar=64";
    class       surfaceScalarField;
    location    "1.65";
    object      alphaPhi0.air;
}
// * * * * * * * * * * * * * * * * * * * * * * * * * * * * * * * * * * * * * //

dimensions      [0 3 -1 0 0 0 0];

oriented        oriented;

internalField   nonuniform List<scalar> 
12225
(
0.511047
1.63584e-06
0.511041
5.90778e-06
0.511034
6.87084e-06
0.511029
5.10112e-06
0.511024
4.81349e-06
0.511019
5.16108e-06
0.511014
5.33016e-06
0.511008
5.57455e-06
0.511002
5.63431e-06
0.510997
5.5322e-06
0.510991
5.3985e-06
0.510986
5.11418e-06
0.510981
5.28557e-06
0.510975
5.64937e-06
0.51097
5.48218e-06
0.510965
5.30161e-06
0.510959
5.37305e-06
0.510954
5.16048e-06
0.510949
4.88439e-06
0.510944
5.11685e-06
0.510939
5.16402e-06
0.510934
4.81777e-06
0.510929
4.82738e-06
0.510924
5.11453e-06
0.510919
5.33226e-06
0.510913
5.41353e-06
0.510908
5.67021e-06
0.510902
6.11193e-06
0.510895
6.17041e-06
0.51089
5.91587e-06
0.510884
5.93529e-06
0.510877
6.17127e-06
0.510871
6.10058e-06
0.510866
5.65227e-06
0.510861
5.14418e-06
0.510856
4.74136e-06
0.510851
4.47804e-06
0.510847
4.52088e-06
0.510842
5.18559e-06
0.510836
5.9894e-06
0.510829
6.18762e-06
0.510823
6.0256e-06
0.510817
5.90434e-06
0.510812
5.76566e-06
0.510806
5.53134e-06
0.510801
5.33372e-06
0.510795
5.4384e-06
0.51079
5.70586e-06
0.510784
5.52964e-06
0.510779
5.00896e-06
0.510774
5.04165e-06
0.510769
5.44787e-06
0.510763
5.43226e-06
0.510758
5.28837e-06
0.510753
5.4092e-06
0.510747
5.57309e-06
0.510741
5.64018e-06
0.510736
5.58791e-06
0.51073
5.52748e-06
0.510725
5.49233e-06
0.510719
5.34904e-06
0.510714
5.32995e-06
0.510709
5.51343e-06
0.510703
5.5322e-06
0.510698
5.3435e-06
0.510692
5.25335e-06
0.510687
5.44987e-06
0.510681
5.62637e-06
0.510676
5.45968e-06
0.510671
5.1902e-06
0.510666
5.11235e-06
0.51066
5.26311e-06
0.510655
5.474e-06
0.510649
5.53505e-06
0.510644
5.52929e-06
0.510638
5.56043e-06
0.510633
5.51137e-06
0.510627
5.53988e-06
0.510621
5.82235e-06
0.510615
5.99457e-06
0.510609
5.95472e-06
0.510604
5.86003e-06
0.510598
5.50193e-06
0.510593
5.08561e-06
0.510588
5.11001e-06
0.510582
5.43323e-06
0.510577
5.72109e-06
0.510571
5.87103e-06
0.510565
5.79481e-06
0.510559
5.62859e-06
0.510554
5.51673e-06
0.510548
5.40794e-06
0.510543
5.44541e-06
0.510537
5.54958e-06
0.510532
5.44142e-06
0.510527
5.25657e-06
0.510522
5.22759e-06
0.510516
5.36271e-06
0.510511
5.42949e-06
0.510505
5.32476e-06
0.5105
5.22113e-06
0.510495
5.25129e-06
0.51049
5.36473e-06
0.510484
5.25578e-06
0.510479
5.02175e-06
0.510474
5.0364e-06
0.510469
5.31313e-06
0.510463
5.7313e-06
0.510457
5.90849e-06
0.510452
5.64671e-06
0.510446
5.31014e-06
0.510441
5.14131e-06
0.510436
5.21451e-06
0.510431
5.36628e-06
0.510425
5.36575e-06
0.51042
5.27325e-06
0.510415
5.26306e-06
0.510409
5.48721e-06
0.510403
5.81238e-06
0.510397
5.93304e-06
0.510392
5.7847e-06
0.510386
5.56431e-06
0.510381
5.46072e-06
0.510375
5.38285e-06
0.51037
5.35006e-06
0.510364
5.54461e-06
0.510359
5.81338e-06
0.510353
6.00267e-06
0.510347
6.04548e-06
0.510341
5.89277e-06
0.510335
5.71985e-06
0.510329
5.55659e-06
0.510324
5.37326e-06
0.510319
5.27226e-06
0.510313
5.22886e-06
0.510308
5.25287e-06
0.510303
5.28709e-06
0.510298
5.25819e-06
0.510292
5.31729e-06
0.510287
5.42527e-06
0.510281
5.50611e-06
0.510276
5.69902e-06
0.51027
5.88117e-06
0.510264
5.79488e-06
0.510258
5.59977e-06
0.510253
5.52474e-06
0.510248
5.44192e-06
0.510242
5.31967e-06
0.510237
5.20064e-06
0.510232
5.04134e-06
0.510227
5.06039e-06
0.510222
5.20743e-06
0.510216
5.20159e-06
0.510211
5.1928e-06
0.510206
5.29386e-06
0.510201
5.46737e-06
0.510195
5.66091e-06
0.510189
5.70034e-06
0.510184
5.56111e-06
0.510178
5.27657e-06
0.510173
4.99665e-06
0.510168
5.04364e-06
0.510163
5.35415e-06
0.510157
5.52468e-06
0.510152
5.53961e-06
0.510146
5.6357e-06
0.51014
5.77011e-06
0.510135
5.83968e-06
0.510129
5.85769e-06
0.510123
5.73146e-06
0.510118
5.47157e-06
0.510112
5.25285e-06
0.510107
5.15618e-06
0.510102
5.2683e-06
0.510096
5.5651e-06
0.510091
5.79476e-06
0.510085
5.84498e-06
0.510079
5.70825e-06
0.510073
5.46518e-06
0.510068
5.38656e-06
0.510063
5.48578e-06
0.510057
5.55396e-06
0.510052
5.53499e-06
0.510046
5.4852e-06
0.510041
5.4792e-06
0.510035
5.45339e-06
0.51003
5.3731e-06
0.510024
5.36307e-06
0.510019
5.37997e-06
0.510014
5.29465e-06
0.510009
5.2086e-06
0.510003
5.26325e-06
0.509998
5.31233e-06
0.509993
5.2158e-06
0.509988
5.09099e-06
0.509983
5.03481e-06
0.509978
5.08161e-06
0.509972
5.11593e-06
0.509967
5.09561e-06
0.509962
5.23462e-06
0.509957
5.4454e-06
0.509951
5.52356e-06
0.509946
5.43266e-06
0.50994
5.24513e-06
0.509935
5.28524e-06
0.50993
5.57413e-06
0.509924
5.82608e-06
0.509918
5.95196e-06
0.509912
5.7866e-06
0.509907
5.29237e-06
0.509902
4.8962e-06
0.509897
4.95039e-06
0.509892
5.1862e-06
0.509886
5.31011e-06
0.509881
5.42282e-06
0.509875
5.51103e-06
0.50987
5.51885e-06
0.509864
5.45729e-06
0.509859
5.3227e-06
0.509854
5.23143e-06
0.509849
5.13916e-06
0.509844
5.01377e-06
0.509839
5.02139e-06
0.509834
5.16059e-06
0.509828
5.3693e-06
0.509823
5.58944e-06
0.509817
5.65932e-06
0.509811
5.58336e-06
0.509806
5.49441e-06
0.5098
5.49786e-06
0.509795
5.65126e-06
0.509789
5.68998e-06
0.509784
5.39334e-06
0.509778
5.1506e-06
0.509773
5.21496e-06
0.509768
5.30734e-06
0.509763
5.32359e-06
0.509757
5.33627e-06
0.509752
5.42163e-06
0.509746
5.62642e-06
0.50974
5.78975e-06
0.509735
5.797e-06
0.509729
5.70234e-06
0.509723
5.55255e-06
0.509718
5.38086e-06
0.509713
5.3417e-06
0.509707
5.5449e-06
0.509701
5.72636e-06
0.509695
6.02688e-06
5.24205e-06
0.511052
-8.72689e-08
0.511058
3.55355e-07
0.511063
1.51619e-06
0.511066
2.8019e-06
0.511068
2.68162e-06
0.511071
2.16698e-06
0.511074
2.34534e-06
0.511076
2.79141e-06
0.511079
2.82835e-06
0.511082
2.42647e-06
0.511086
2.03284e-06
0.511089
2.13706e-06
0.511092
2.31454e-06
0.511095
2.01236e-06
0.511099
1.69662e-06
0.511102
2.04223e-06
0.511105
2.40681e-06
0.511108
2.59075e-06
0.51111
2.96762e-06
0.511112
3.27738e-06
0.511114
3.1917e-06
0.511116
2.60996e-06
0.511119
2.19687e-06
0.511121
2.28229e-06
0.511124
2.28163e-06
0.511128
2.13959e-06
0.511131
2.44447e-06
0.511134
2.58478e-06
0.511138
2.20843e-06
0.511142
2.20902e-06
0.511145
2.64588e-06
0.511149
2.89889e-06
0.511152
2.86001e-06
0.511155
2.8563e-06
0.511157
2.79942e-06
0.51116
2.13561e-06
0.511163
1.43449e-06
0.511166
1.66443e-06
0.511168
2.54177e-06
0.511171
3.00727e-06
0.511175
2.69425e-06
0.511179
2.15495e-06
0.511182
1.9636e-06
0.511186
2.10235e-06
0.511189
2.26963e-06
0.511192
2.56425e-06
0.511195
2.9901e-06
0.511197
2.90932e-06
0.511201
2.39395e-06
0.511203
2.24883e-06
0.511206
2.38238e-06
0.511209
2.36676e-06
0.511212
2.37165e-06
0.511215
2.63416e-06
0.511217
2.86431e-06
0.51122
2.77102e-06
0.511223
2.53731e-06
0.511226
2.47133e-06
0.511229
2.57886e-06
0.511232
2.7342e-06
0.511235
2.73334e-06
0.511237
2.50437e-06
0.511241
2.27479e-06
0.511244
2.1017e-06
0.511247
2.03571e-06
0.51125
2.34091e-06
0.511253
2.82706e-06
0.511256
2.87846e-06
0.511259
2.53488e-06
0.511261
2.3712e-06
0.511264
2.45852e-06
0.511267
2.55907e-06
0.51127
2.76586e-06
0.511272
3.14644e-06
0.511274
3.25294e-06
0.511277
2.7832e-06
0.51128
2.16565e-06
0.511284
1.86324e-06
0.511288
2.00708e-06
0.511291
2.41714e-06
0.511295
2.56598e-06
0.511298
2.48899e-06
0.511301
2.61257e-06
0.511303
2.70428e-06
0.511306
2.58684e-06
0.511309
2.58389e-06
0.511312
2.61718e-06
0.511315
2.56449e-06
0.511318
2.59142e-06
0.511321
2.65581e-06
0.511324
2.70792e-06
0.511327
2.65404e-06
0.51133
2.47063e-06
0.511333
2.51731e-06
0.511336
2.78732e-06
0.511338
2.92214e-06
0.51134
2.9163e-06
0.511343
2.85511e-06
0.511345
2.70136e-06
0.511348
2.47838e-06
0.511351
2.2614e-06
0.511354
2.18135e-06
0.511357
2.34606e-06
0.51136
2.44085e-06
0.511363
2.3232e-06
0.511366
2.31251e-06
0.511369
2.27824e-06
0.511372
2.26595e-06
0.511375
2.55077e-06
0.511378
2.76828e-06
0.511381
2.72754e-06
0.511384
2.51252e-06
0.511386
2.29227e-06
0.51139
2.32763e-06
0.511392
2.41455e-06
0.511395
2.44995e-06
0.511398
2.48041e-06
0.511401
2.36368e-06
0.511405
2.29149e-06
0.511408
2.47832e-06
0.511411
2.68904e-06
0.511414
2.68516e-06
0.511417
2.62482e-06
0.51142
2.65042e-06
0.511423
2.54326e-06
0.511426
2.30317e-06
0.511429
2.23071e-06
0.511433
2.42442e-06
0.511436
2.63387e-06
0.51144
2.59367e-06
0.511443
2.49436e-06
0.511446
2.48573e-06
0.511449
2.4604e-06
0.511452
2.44764e-06
0.511454
2.42671e-06
0.511457
2.424e-06
0.51146
2.49821e-06
0.511463
2.47396e-06
0.511466
2.33307e-06
0.511469
2.2544e-06
0.511472
2.24224e-06
0.511476
2.21807e-06
0.511479
2.23368e-06
0.511483
2.30494e-06
0.511486
2.34329e-06
0.511489
2.43345e-06
0.511492
2.56903e-06
0.511495
2.58087e-06
0.511498
2.48775e-06
0.5115
2.20139e-06
0.511504
1.88459e-06
0.511507
1.99629e-06
0.51151
2.32781e-06
0.511512
2.53333e-06
0.511515
2.67542e-06
0.511518
2.73763e-06
0.511521
2.71142e-06
0.511524
2.70292e-06
0.511526
2.82058e-06
0.511529
2.94841e-06
0.511531
2.81536e-06
0.511533
2.47601e-06
0.511536
2.32655e-06
0.51154
2.44789e-06
0.511542
2.61198e-06
0.511545
2.79256e-06
0.511548
2.90381e-06
0.511551
2.7646e-06
0.511554
2.65113e-06
0.511557
2.77454e-06
0.51156
2.85226e-06
0.511563
2.72346e-06
0.511565
2.4653e-06
0.511568
2.22958e-06
0.511572
2.20939e-06
0.511575
2.36576e-06
0.511578
2.5456e-06
0.511581
2.67493e-06
0.511584
2.66267e-06
0.511587
2.56969e-06
0.51159
2.54411e-06
0.511593
2.54141e-06
0.511596
2.4857e-06
0.511599
2.41334e-06
0.511602
2.42053e-06
0.511605
2.47933e-06
0.511608
2.41495e-06
0.511611
2.30968e-06
0.511614
2.3531e-06
0.511617
2.38353e-06
0.51162
2.31078e-06
0.511623
2.39878e-06
0.511626
2.64043e-06
0.511628
2.71219e-06
0.511631
2.6073e-06
0.511633
2.50595e-06
0.511636
2.55622e-06
0.511638
2.76752e-06
0.51164
2.82794e-06
0.511643
2.68625e-06
0.511646
2.67529e-06
0.511648
2.8114e-06
0.511651
2.76834e-06
0.511654
2.44358e-06
0.511657
2.20121e-06
0.51166
2.19049e-06
0.511664
2.19708e-06
0.511667
2.37451e-06
0.51167
2.85672e-06
0.511672
3.19621e-06
0.511674
3.05517e-06
0.511676
2.75986e-06
0.511679
2.66282e-06
0.511682
2.55258e-06
0.511685
2.41538e-06
0.511688
2.46701e-06
0.511691
2.53698e-06
0.511694
2.5021e-06
0.511697
2.48775e-06
0.511699
2.55327e-06
0.511702
2.60565e-06
0.511704
2.55899e-06
0.511707
2.54405e-06
0.511709
2.62696e-06
0.511712
2.69211e-06
0.511715
2.66148e-06
0.511718
2.48305e-06
0.511721
2.18721e-06
0.511725
1.9402e-06
0.511729
1.87927e-06
0.511732
2.05395e-06
0.511735
2.41237e-06
0.511738
2.70217e-06
0.511741
2.65984e-06
0.511743
2.4382e-06
0.511746
2.38542e-06
0.511749
2.44125e-06
0.511752
2.33429e-06
0.511755
2.16363e-06
0.511759
2.15238e-06
0.511762
2.27107e-06
0.511766
2.47234e-06
0.511769
2.6809e-06
0.511772
2.75978e-06
0.511774
2.70982e-06
0.511777
2.55644e-06
0.51178
2.50708e-06
0.511783
2.6578e-06
0.511786
2.83012e-06
2.9097e-06
0.511051
-1.22793e-08
0.51105
8.85977e-07
0.51105
1.98383e-06
0.51105
2.47283e-06
0.511051
1.91584e-06
0.511052
1.54186e-06
0.511052
1.90498e-06
0.511053
2.19385e-06
0.511054
2.06455e-06
0.511054
1.79426e-06
0.511054
1.75657e-06
0.511055
2.03952e-06
0.511055
2.08071e-06
0.511055
1.94747e-06
0.511054
2.15307e-06
0.511054
2.41702e-06
0.511054
2.30939e-06
0.511055
2.08018e-06
0.511055
2.19058e-06
0.511056
2.36592e-06
0.511058
1.9849e-06
0.511059
1.59843e-06
0.511059
1.84832e-06
0.511059
2.1578e-06
0.511059
2.40512e-06
0.511058
2.70574e-06
0.511058
2.54802e-06
0.511059
2.13908e-06
0.511059
2.13253e-06
0.511058
2.49626e-06
0.511058
2.83667e-06
0.511058
2.78689e-06
0.511059
2.43968e-06
0.51106
2.11247e-06
0.511061
1.68355e-06
0.511062
1.2616e-06
0.511062
1.38477e-06
0.511061
2.06161e-06
0.511061
2.61159e-06
0.511061
2.70627e-06
0.511062
2.48888e-06
0.511062
2.0559e-06
0.511062
1.65683e-06
0.511062
1.6617e-06
0.511063
2.11377e-06
0.511062
2.69794e-06
0.511063
2.9273e-06
0.511063
2.76453e-06
0.511063
2.50402e-06
0.511063
2.24598e-06
0.511063
2.10967e-06
0.511063
2.10654e-06
0.511063
2.19032e-06
0.511064
2.39945e-06
0.511064
2.51258e-06
0.511064
2.40051e-06
0.511065
2.22565e-06
0.511065
2.02164e-06
0.511066
1.93385e-06
0.511066
2.09518e-06
0.511067
2.28438e-06
0.511067
2.39857e-06
0.511067
2.37977e-06
0.511067
2.15931e-06
0.511067
2.17854e-06
0.511066
2.48974e-06
0.511067
2.55326e-06
0.511067
2.36579e-06
0.511068
2.04768e-06
0.511068
1.66391e-06
0.511069
1.65906e-06
0.51107
2.10783e-06
0.51107
2.60414e-06
0.51107
2.90157e-06
0.51107
2.83348e-06
0.511071
2.54785e-06
0.51107
2.42598e-06
0.51107
2.39654e-06
0.51107
2.33397e-06
0.51107
2.37232e-06
0.51107
2.36274e-06
0.51107
2.12367e-06
0.511071
1.85599e-06
0.511072
1.86306e-06
0.511072
2.11105e-06
0.511073
2.23798e-06
0.511073
2.17619e-06
0.511073
2.27671e-06
0.511073
2.56348e-06
0.511073
2.71855e-06
0.511073
2.66644e-06
0.511073
2.49881e-06
0.511074
2.38727e-06
0.511074
2.48656e-06
0.511074
2.73335e-06
0.511074
2.96413e-06
0.511074
2.91393e-06
0.511074
2.64453e-06
0.511074
2.48782e-06
0.511074
2.43644e-06
0.511074
2.32748e-06
0.511074
2.03775e-06
0.511075
1.8252e-06
0.511075
1.89299e-06
0.511076
1.82702e-06
0.511076
1.66539e-06
0.511077
1.74592e-06
0.511077
1.95144e-06
0.511078
2.23e-06
0.511078
2.59078e-06
0.511078
2.80046e-06
0.511078
2.62718e-06
0.511078
2.24106e-06
0.511078
1.967e-06
0.511078
1.8722e-06
0.511079
1.95936e-06
0.511079
2.10365e-06
0.51108
2.13505e-06
0.51108
2.08678e-06
0.51108
2.04344e-06
0.511081
2.06849e-06
0.511081
2.05526e-06
0.511082
1.95953e-06
0.511083
2.01302e-06
0.511083
2.2241e-06
0.511083
2.44002e-06
0.511083
2.5322e-06
0.511083
2.46216e-06
0.511083
2.47736e-06
0.511083
2.58408e-06
0.511083
2.56613e-06
0.511083
2.46549e-06
0.511083
2.34022e-06
0.511083
2.21412e-06
0.511083
2.1054e-06
0.511084
2.02807e-06
0.511084
2.03285e-06
0.511085
1.99504e-06
0.511085
1.89248e-06
0.511085
1.96729e-06
0.511086
2.18342e-06
0.511086
2.19759e-06
0.511086
2.04149e-06
0.511086
1.99277e-06
0.511086
2.00433e-06
0.511087
2.05135e-06
0.511087
2.15371e-06
0.511088
2.12471e-06
0.511088
2.06727e-06
0.511088
2.03446e-06
0.511088
1.90052e-06
0.511088
1.90886e-06
0.511089
2.11907e-06
0.511089
2.32155e-06
0.511089
2.56438e-06
0.511089
2.83385e-06
0.511089
2.9109e-06
0.511088
2.76624e-06
0.511089
2.6473e-06
0.511089
2.62348e-06
0.511089
2.55989e-06
0.511089
2.36587e-06
0.511089
2.18061e-06
0.51109
2.25106e-06
0.51109
2.4799e-06
0.51109
2.63687e-06
0.51109
2.74189e-06
0.51109
2.69031e-06
0.51109
2.42544e-06
0.511091
2.22825e-06
0.511092
2.17893e-06
0.511092
2.14474e-06
0.511093
2.09078e-06
0.511093
1.98999e-06
0.511093
1.95231e-06
0.511093
2.09899e-06
0.511094
2.31059e-06
0.511094
2.53271e-06
0.511094
2.6919e-06
0.511094
2.56428e-06
0.511094
2.22088e-06
0.511095
1.94403e-06
0.511095
1.79513e-06
0.511096
1.68757e-06
0.511097
1.6286e-06
0.511098
1.68942e-06
0.511098
1.80683e-06
0.511099
1.85814e-06
0.511099
1.90517e-06
0.511099
2.06154e-06
0.5111
2.19281e-06
0.5111
2.23746e-06
0.5111
2.33568e-06
0.5111
2.39884e-06
0.511101
2.36964e-06
0.511101
2.35705e-06
0.511101
2.40418e-06
0.511101
2.61591e-06
0.511101
2.82725e-06
0.511101
2.70812e-06
0.511101
2.40234e-06
0.511102
2.22713e-06
0.511102
2.1951e-06
0.511103
2.16118e-06
0.511103
2.24199e-06
0.511102
2.47854e-06
0.511102
2.53613e-06
0.511102
2.38217e-06
0.511103
2.37552e-06
0.511103
2.62981e-06
0.511103
2.75554e-06
0.511104
2.56216e-06
0.511104
2.39604e-06
0.511104
2.3107e-06
0.511104
2.17598e-06
0.511105
2.12799e-06
0.511105
2.14787e-06
0.511105
2.13323e-06
0.511106
2.12237e-06
0.511106
2.16596e-06
0.511107
2.2268e-06
0.511107
2.23789e-06
0.511107
2.26425e-06
0.511107
2.33886e-06
0.511108
2.38218e-06
0.511108
2.33131e-06
0.511108
2.18237e-06
0.511109
2.05418e-06
0.511108
2.03679e-06
0.511108
1.89528e-06
0.511109
1.5471e-06
0.51111
1.45237e-06
0.511111
1.73253e-06
0.511112
1.94736e-06
0.511112
2.05511e-06
0.511112
2.28514e-06
0.511112
2.60103e-06
0.511111
2.76261e-06
0.511111
2.63247e-06
0.511111
2.43432e-06
0.511111
2.3883e-06
0.511111
2.43498e-06
0.511111
2.45193e-06
0.511111
2.47565e-06
0.511111
2.5809e-06
0.511111
2.68266e-06
0.511111
2.72293e-06
0.511111
2.71687e-06
0.511111
2.74399e-06
2.68135e-06
0.511051
1.81851e-07
0.511051
7.46499e-07
0.511052
1.20874e-06
0.511053
1.35051e-06
0.511053
1.41236e-06
0.511053
1.68628e-06
0.511053
1.89088e-06
0.511054
1.78693e-06
0.511054
1.45347e-06
0.511054
1.57098e-06
0.511054
1.82643e-06
0.511055
1.79274e-06
0.511055
1.74355e-06
0.511055
1.82416e-06
0.511055
1.87519e-06
0.511056
1.67053e-06
0.511057
1.70488e-06
0.511056
2.34872e-06
0.511056
2.50983e-06
0.511056
1.96824e-06
0.511057
1.78631e-06
0.511056
1.78787e-06
0.511057
1.6634e-06
0.511057
1.83707e-06
0.511057
2.14413e-06
0.511058
2.36589e-06
0.511058
2.28164e-06
0.511058
1.7484e-06
0.511059
1.58632e-06
0.511059
2.192e-06
0.511059
2.75147e-06
0.511059
2.67046e-06
0.511059
2.31213e-06
0.51106
1.91859e-06
0.51106
1.51652e-06
0.51106
1.41854e-06
0.511059
1.6024e-06
0.51106
1.71879e-06
0.511061
1.66824e-06
0.511062
1.54286e-06
0.511063
1.45734e-06
0.511063
1.62385e-06
0.511063
1.70878e-06
0.511063
1.58961e-06
0.511064
1.8514e-06
0.511064
2.2897e-06
0.511065
2.38408e-06
0.511065
2.31571e-06
0.511065
2.41827e-06
0.511065
2.58222e-06
0.511064
2.43341e-06
0.511064
2.14016e-06
0.511064
2.15592e-06
0.511064
2.33294e-06
0.511065
2.23201e-06
0.511065
2.02362e-06
0.511065
2.12082e-06
0.511065
2.22962e-06
0.511065
1.98184e-06
0.511065
1.82133e-06
0.511066
1.9048e-06
0.511066
1.78317e-06
0.511067
1.63316e-06
0.511067
1.95679e-06
0.511067
2.45169e-06
0.511067
2.66918e-06
0.511067
2.54501e-06
0.511067
2.13714e-06
0.511067
1.74292e-06
0.511067
1.74188e-06
0.511067
1.94194e-06
0.511067
2.10612e-06
0.511067
2.2691e-06
0.511068
2.21228e-06
0.511069
1.98372e-06
0.511069
1.95433e-06
0.51107
2.15951e-06
0.51107
2.35809e-06
0.51107
2.37297e-06
0.51107
2.27128e-06
0.51107
2.08876e-06
0.51107
1.76365e-06
0.511071
1.60424e-06
0.511071
1.82426e-06
0.511071
1.9654e-06
0.511071
1.82078e-06
0.511072
1.79872e-06
0.511072
2.04399e-06
0.511072
2.37337e-06
0.511072
2.55269e-06
0.511072
2.44941e-06
0.511073
2.29069e-06
0.511073
2.24327e-06
0.511073
2.29134e-06
0.511073
2.41022e-06
0.511074
2.50303e-06
0.511074
2.50117e-06
0.511074
2.42196e-06
0.511075
2.21293e-06
0.511075
2.01586e-06
0.511075
2.06266e-06
0.511075
1.98469e-06
0.511076
1.65329e-06
0.511076
1.60355e-06
0.511076
1.70775e-06
0.511076
1.74897e-06
0.511076
1.80132e-06
0.511076
1.7383e-06
0.511076
1.81473e-06
0.511077
2.11579e-06
0.511077
2.3454e-06
0.511078
2.42308e-06
0.511078
2.26804e-06
0.511078
1.98037e-06
0.511078
1.77072e-06
0.511078
1.7176e-06
0.511078
1.82898e-06
0.511078
1.93784e-06
0.511079
1.91822e-06
0.511079
1.90744e-06
0.511079
1.99654e-06
0.511079
1.92882e-06
0.511079
1.65332e-06
0.51108
1.56148e-06
0.51108
1.70384e-06
0.511081
1.92077e-06
0.511081
2.15618e-06
0.511081
2.19501e-06
0.511082
2.04322e-06
0.511082
1.9722e-06
0.511083
2.06611e-06
0.511083
2.20831e-06
0.511083
2.25272e-06
0.511083
2.19909e-06
0.511083
2.03744e-06
0.511084
1.77423e-06
0.511084
1.60906e-06
0.511084
1.54914e-06
0.511085
1.4624e-06
0.511085
1.45852e-06
0.511086
1.668e-06
0.511086
1.87323e-06
0.511086
1.87714e-06
0.511086
1.93196e-06
0.511086
2.13811e-06
0.511086
2.22698e-06
0.511086
2.09758e-06
0.511087
1.72477e-06
0.511087
1.36705e-06
0.511088
1.44985e-06
0.511088
1.71761e-06
0.511088
1.89889e-06
0.511088
2.14379e-06
0.511088
2.36489e-06
0.511088
2.38958e-06
0.511089
2.39056e-06
0.511089
2.48896e-06
0.511089
2.49322e-06
0.51109
2.38051e-06
0.51109
2.30291e-06
0.51109
2.2457e-06
0.511091
2.07943e-06
0.511091
1.87974e-06
0.511091
1.99208e-06
0.511091
2.34778e-06
0.511091
2.51044e-06
0.511092
2.5361e-06
0.511092
2.57023e-06
0.511092
2.46778e-06
0.511092
2.28329e-06
0.511092
2.07735e-06
0.511092
1.79267e-06
0.511092
1.62101e-06
0.511093
1.69905e-06
0.511093
1.88023e-06
0.511093
2.09182e-06
0.511093
2.29089e-06
0.511093
2.42475e-06
0.511093
2.50612e-06
0.511093
2.41042e-06
0.511093
2.10518e-06
0.511094
1.80831e-06
0.511094
1.62702e-06
0.511094
1.5185e-06
0.511094
1.43724e-06
0.511094
1.42069e-06
0.511095
1.53106e-06
0.511095
1.66329e-06
0.511095
1.74777e-06
0.511095
1.93415e-06
0.511095
2.14058e-06
0.511095
2.1277e-06
0.511096
2.05134e-06
0.511096
2.08962e-06
0.511096
2.14266e-06
0.511096
2.17445e-06
0.511097
2.17496e-06
0.511097
2.18492e-06
0.511097
2.35304e-06
0.511098
2.53934e-06
0.511098
2.41871e-06
0.511098
2.05801e-06
0.511098
1.84162e-06
0.511099
1.74278e-06
0.511099
1.67423e-06
0.5111
1.90824e-06
0.5111
2.3037e-06
0.5111
2.47283e-06
0.5111
2.4303e-06
0.5111
2.43517e-06
0.5111
2.49791e-06
0.5111
2.35464e-06
0.511101
2.12035e-06
0.511101
2.05816e-06
0.511101
2.01906e-06
0.511101
1.93958e-06
0.511101
1.9452e-06
0.511102
2.01606e-06
0.511102
2.08023e-06
0.511102
2.15137e-06
0.511102
2.22076e-06
0.511102
2.20962e-06
0.511102
2.17546e-06
0.511102
2.14726e-06
0.511102
1.99913e-06
0.511103
1.74883e-06
0.511104
1.52738e-06
0.511104
1.48564e-06
0.511105
1.68448e-06
0.511105
1.85969e-06
0.511104
1.77741e-06
0.511104
1.61095e-06
0.511104
1.60133e-06
0.511105
1.72225e-06
0.511105
1.83027e-06
0.511105
1.90234e-06
0.511106
2.05612e-06
0.511106
2.26805e-06
0.511106
2.34271e-06
0.511107
2.325e-06
0.511107
2.30317e-06
0.511107
2.1704e-06
0.511107
1.95729e-06
0.511108
1.83753e-06
0.511109
2.01317e-06
0.511109
2.39228e-06
0.511109
2.57499e-06
0.511109
2.50099e-06
0.51111
2.30353e-06
2.07871e-06
0.511051
2.85311e-07
0.511051
7.80852e-07
0.511051
1.09094e-06
0.511051
1.10035e-06
0.511051
1.05886e-06
0.511052
9.64084e-07
0.511053
1.21554e-06
0.511053
1.61938e-06
0.511053
1.69805e-06
0.511053
1.62001e-06
0.511053
1.57751e-06
0.511053
1.31591e-06
0.511054
1.22777e-06
0.511054
1.50759e-06
0.511055
1.51724e-06
0.511055
1.56695e-06
0.511055
1.7106e-06
0.511056
1.58612e-06
0.511056
1.73733e-06
0.511056
1.91534e-06
0.511056
1.81704e-06
0.511056
1.91358e-06
0.511056
1.95193e-06
0.511056
1.77894e-06
0.511056
1.92074e-06
0.511057
1.92672e-06
0.511057
1.51942e-06
0.511058
1.61986e-06
0.511057
1.90349e-06
0.511058
1.83059e-06
0.511058
1.93266e-06
0.511059
2.14186e-06
0.511059
2.15471e-06
0.511059
1.73949e-06
0.51106
1.17844e-06
0.51106
1.1405e-06
0.51106
1.47665e-06
0.51106
1.7213e-06
0.51106
1.67085e-06
0.51106
1.39368e-06
0.51106
1.15305e-06
0.511061
1.09412e-06
0.511061
1.37192e-06
0.511061
1.93173e-06
0.51106
2.32685e-06
0.511061
2.13283e-06
0.511061
1.75121e-06
0.511062
1.78821e-06
0.511062
1.9839e-06
0.511063
1.99947e-06
0.511063
1.95729e-06
0.511063
2.05455e-06
0.511063
2.16659e-06
0.511064
1.90599e-06
0.511064
1.61954e-06
0.511065
1.85511e-06
0.511065
2.19758e-06
0.511064
2.29489e-06
0.511064
2.2385e-06
0.511064
1.99195e-06
0.511064
1.67336e-06
0.511065
1.48692e-06
0.511065
1.51533e-06
0.511065
1.72957e-06
0.511065
1.94327e-06
0.511066
1.9738e-06
0.511067
1.77436e-06
0.511067
1.56406e-06
0.511068
1.50682e-06
0.511068
1.54043e-06
0.511068
1.74006e-06
0.511068
2.14892e-06
0.511068
2.36227e-06
0.511068
2.00972e-06
0.511069
1.61321e-06
0.511069
1.7077e-06
0.511069
1.95564e-06
0.511069
2.03753e-06
0.51107
1.9987e-06
0.51107
1.88505e-06
0.51107
1.81237e-06
0.51107
1.71358e-06
0.51107
1.48353e-06
0.511071
1.40369e-06
0.511071
1.59645e-06
0.511071
1.72671e-06
0.511071
1.78112e-06
0.511072
1.92727e-06
0.511072
1.93122e-06
0.511073
1.78549e-06
0.511073
1.78391e-06
0.511074
1.97421e-06
0.511074
2.29738e-06
0.511073
2.60124e-06
0.511073
2.63675e-06
0.511073
2.5003e-06
0.511073
2.31129e-06
0.511074
2.04654e-06
0.511074
1.90079e-06
0.511074
1.83152e-06
0.511075
1.72753e-06
0.511075
1.6417e-06
0.511075
1.45803e-06
0.511075
1.3095e-06
0.511076
1.30856e-06
0.511076
1.37513e-06
0.511076
1.62475e-06
0.511076
1.89747e-06
0.511076
1.94965e-06
0.511076
1.83706e-06
0.511077
1.74286e-06
0.511078
1.69298e-06
0.511078
1.63941e-06
0.511079
1.6811e-06
0.511079
1.66083e-06
0.511079
1.53429e-06
0.511079
1.55767e-06
0.511079
1.67338e-06
0.51108
1.76454e-06
0.51108
1.69583e-06
0.51108
1.53357e-06
0.511081
1.60478e-06
0.51108
1.71279e-06
0.51108
1.67562e-06
0.51108
1.73089e-06
0.51108
1.86522e-06
0.511081
1.90654e-06
0.511081
1.84815e-06
0.511081
1.82395e-06
0.511081
1.88247e-06
0.511081
1.90285e-06
0.511082
1.86303e-06
0.511082
1.84548e-06
0.511083
1.83541e-06
0.511083
1.72319e-06
0.511083
1.49108e-06
0.511083
1.2816e-06
0.511084
1.23951e-06
0.511084
1.3573e-06
0.511084
1.40396e-06
0.511084
1.31005e-06
0.511085
1.31438e-06
0.511085
1.42447e-06
0.511086
1.55862e-06
0.511086
1.67978e-06
0.511087
1.63383e-06
0.511087
1.52052e-06
0.511088
1.42885e-06
0.511088
1.27995e-06
0.511088
1.25454e-06
0.511088
1.3882e-06
0.511089
1.51874e-06
0.511089
1.77207e-06
0.511089
2.17528e-06
0.511089
2.36743e-06
0.511089
2.3235e-06
0.511089
2.3895e-06
0.511089
2.44423e-06
0.511089
2.32565e-06
0.51109
2.21057e-06
0.51109
2.10856e-06
0.51109
2.09093e-06
0.511089
2.21168e-06
0.511089
2.32184e-06
0.511089
2.40365e-06
0.511089
2.38324e-06
0.511089
2.26691e-06
0.51109
2.25688e-06
0.51109
2.21962e-06
0.51109
1.95474e-06
0.511091
1.64209e-06
0.511091
1.44417e-06
0.511091
1.38655e-06
0.511091
1.49773e-06
0.511092
1.61802e-06
0.511092
1.66071e-06
0.511093
1.74598e-06
0.511093
1.7867e-06
0.511094
1.75034e-06
0.511095
1.74337e-06
0.511095
1.63467e-06
0.511096
1.43958e-06
0.511096
1.3694e-06
0.511096
1.32572e-06
0.511096
1.1776e-06
0.511097
1.09115e-06
0.511097
1.19677e-06
0.511097
1.37537e-06
0.511098
1.49383e-06
0.511098
1.6383e-06
0.511098
1.87735e-06
0.511098
2.00618e-06
0.511098
1.94743e-06
0.511098
1.91362e-06
0.511099
2.02115e-06
0.511099
2.23983e-06
0.511098
2.40707e-06
0.511098
2.32738e-06
0.511098
2.1658e-06
0.511099
2.14056e-06
0.511099
2.07564e-06
0.511099
1.90278e-06
0.511099
1.90629e-06
0.511099
1.99855e-06
0.511099
1.87185e-06
0.511099
1.78249e-06
0.511099
1.9533e-06
0.5111
2.15102e-06
0.5111
2.181e-06
0.5111
2.13497e-06
0.5111
2.14447e-06
0.511101
2.0145e-06
0.511101
1.72801e-06
0.511102
1.64656e-06
0.511102
1.73432e-06
0.511102
1.76917e-06
0.511102
1.82696e-06
0.511102
1.93363e-06
0.511102
1.95013e-06
0.511103
1.89123e-06
0.511103
1.89116e-06
0.511103
1.8946e-06
0.511104
1.84383e-06
0.511104
1.75747e-06
0.511104
1.55228e-06
0.511105
1.33535e-06
0.511105
1.25077e-06
0.511105
1.16862e-06
0.511106
1.12305e-06
0.511107
1.26444e-06
0.511107
1.4292e-06
0.511107
1.46969e-06
0.511107
1.54905e-06
0.511107
1.74926e-06
0.511107
1.86294e-06
0.511107
1.7866e-06
0.511108
1.69965e-06
0.511108
1.75843e-06
0.511109
1.86218e-06
0.511109
1.86716e-06
0.51111
1.78509e-06
0.51111
1.7009e-06
0.51111
1.68762e-06
0.51111
1.72966e-06
0.511111
1.85906e-06
0.511111
2.13522e-06
0.511111
2.40152e-06
0.511111
2.39016e-06
0.511111
2.08667e-06
1.7705e-06
0.511052
7.39013e-08
0.511052
4.83339e-07
0.511052
8.00475e-07
0.511052
1.16741e-06
0.511052
1.4918e-06
0.511051
1.68268e-06
0.511051
1.46687e-06
0.511052
9.10538e-07
0.511052
8.50416e-07
0.511053
1.07294e-06
0.511054
9.10196e-07
0.511054
9.37617e-07
0.511054
1.03966e-06
0.511055
1.12194e-06
0.511055
1.45427e-06
0.511055
1.34387e-06
0.511055
1.26903e-06
0.511055
1.56236e-06
0.511056
1.4805e-06
0.511056
1.43791e-06
0.511056
1.41546e-06
0.511057
1.38525e-06
0.511057
1.71636e-06
0.511057
1.97624e-06
0.511057
1.75522e-06
0.511058
1.44299e-06
0.511058
1.35681e-06
0.511058
1.35673e-06
0.511058
1.66396e-06
0.511058
1.97253e-06
0.511058
1.88108e-06
0.511059
1.60444e-06
0.51106
1.25291e-06
0.51106
1.11966e-06
0.51106
1.24372e-06
0.51106
1.26337e-06
0.51106
1.25612e-06
0.511061
1.25326e-06
0.511061
1.13436e-06
0.511062
1.06011e-06
0.511062
1.16661e-06
0.511061
1.32383e-06
0.511061
1.37937e-06
0.511062
1.40353e-06
0.511063
1.44582e-06
0.511063
1.62192e-06
0.511063
1.88282e-06
0.511063
2.07604e-06
0.511063
2.04169e-06
0.511063
1.81791e-06
0.511063
1.59007e-06
0.511064
1.52376e-06
0.511065
1.49644e-06
0.511065
1.39197e-06
0.511065
1.52255e-06
0.511065
1.7453e-06
0.511066
1.75677e-06
0.511066
1.81199e-06
0.511067
1.83981e-06
0.511067
1.54596e-06
0.511067
1.30446e-06
0.511067
1.46385e-06
0.511067
1.90845e-06
0.511067
2.24642e-06
0.511066
2.18975e-06
0.511067
1.76364e-06
0.511067
1.32724e-06
0.511067
1.1544e-06
0.511068
1.19259e-06
0.511068
1.36012e-06
0.511068
1.55099e-06
0.511069
1.50302e-06
0.51107
1.29388e-06
0.51107
1.37969e-06
0.51107
1.61965e-06
0.51107
1.71403e-06
0.511071
1.696e-06
0.511071
1.74842e-06
0.511071
1.76334e-06
0.511071
1.60343e-06
0.511072
1.43317e-06
0.511072
1.471e-06
0.511072
1.61526e-06
0.511072
1.56703e-06
0.511072
1.43823e-06
0.511072
1.55941e-06
0.511072
1.81355e-06
0.511072
2.01508e-06
0.511072
2.07229e-06
0.511072
1.94654e-06
0.511072
1.82496e-06
0.511072
1.80238e-06
0.511072
1.90321e-06
0.511073
2.16044e-06
0.511073
2.31523e-06
0.511073
2.26723e-06
0.511073
2.23974e-06
0.511073
2.15148e-06
0.511073
1.88341e-06
0.511073
1.59133e-06
0.511074
1.43805e-06
0.511074
1.44122e-06
0.511074
1.34528e-06
0.511074
1.21462e-06
0.511074
1.20024e-06
0.511074
1.14817e-06
0.511075
1.21072e-06
0.511075
1.49132e-06
0.511076
1.71074e-06
0.511076
1.66472e-06
0.511076
1.47165e-06
0.511076
1.36526e-06
0.511077
1.23994e-06
0.511077
1.10569e-06
0.511078
1.11681e-06
0.511078
1.12771e-06
0.511079
1.14267e-06
0.511079
1.23092e-06
0.51108
1.317e-06
0.51108
1.29846e-06
0.51108
1.16448e-06
0.511081
1.18863e-06
0.511081
1.41935e-06
0.511081
1.61966e-06
0.511081
1.7248e-06
0.511081
1.7654e-06
0.511081
1.7722e-06
0.511081
1.72857e-06
0.511082
1.69102e-06
0.511082
1.75205e-06
0.511082
1.86489e-06
0.511082
1.9284e-06
0.511082
1.7715e-06
0.511082
1.47554e-06
0.511083
1.31875e-06
0.511083
1.20648e-06
0.511083
1.01959e-06
0.511083
9.02228e-07
0.511084
8.80615e-07
0.511084
8.88129e-07
0.511085
9.65991e-07
0.511085
1.1433e-06
0.511085
1.28304e-06
0.511085
1.32309e-06
0.511086
1.32579e-06
0.511086
1.2352e-06
0.511086
1.07968e-06
0.511087
9.65492e-07
0.511087
8.93147e-07
0.511088
9.75985e-07
0.511088
1.2618e-06