/*--------------------------------*- C++ -*----------------------------------*\
| =========                 |                                                 |
| \\      /  F ield         | OpenFOAM: The Open Source CFD Toolbox           |
|  \\    /   O peration     | Version:  2406                                  |
|   \\  /    A nd           | Website:  www.openfoam.com                      |
|    \\/     M anipulation  |                                                 |
\*---------------------------------------------------------------------------*/
FoamFile
{
    version     2.0;
    format      ascii;
    arch        "LSB;label=32;scalar=64";
    class       volScalarField;
    location    "1.65";
    object      p_rgh;
}
// * * * * * * * * * * * * * * * * * * * * * * * * * * * * * * * * * * * * * //

dimensions      [1 -1 -2 0 0 0 0];

internalField   nonuniform List<scalar> 
6250
(
-2.1026
-3224.41
-1035.71
540.813
496.1
27.0955
-133.538
-56.2503
20.1841
26.5519
6.4089
-3.17636
-0.905367
2.79004
3.5289
2.70834
2.17083
2.19638
2.35675
2.40801
2.36231
2.31774
2.31215
2.30714
2.2915
2.28617
2.2815
2.26814
2.25368
2.24177
2.23137
2.22097
2.21299
2.20441
2.19094
2.18075
2.17209
2.15924
2.14951
2.14091
2.1299
2.11909
2.109
2.10123
2.09411
2.08369
2.06899
2.05756
2.04846
2.0361
2.0254
2.01485
2.00198
1.99229
1.98966
1.98592
1.97688
1.96868
1.96105
1.95451
1.94788
1.93742
1.9259
1.91767
1.9117
1.90315
1.89138
1.87651
1.85885
1.84514
1.84014
1.83452
1.82206
1.81035
1.80092
1.79242
1.78249
1.76677
1.75064
1.74113
1.73644
1.73069
1.72343
1.71124
1.6956
1.68765
1.68091
1.66787
1.65395
1.6426
1.63441
1.62808
1.62389
1.61522
1.59971
1.58353
1.5666
1.55296
1.54169
1.5298
1.52101
1.5134
1.50578
1.4963
1.48517
1.47624
1.46908
1.46378
1.45781
1.44788
1.4363
1.42756
1.42082
1.41312
1.40601
1.39632
1.38351
1.37403
1.36545
1.35578
1.34741
1.33813
1.32946
1.32098
1.3067
1.28822
1.26958
1.25365
1.24311
1.23552
1.22931
1.22358
1.21493
1.20132
1.18547
1.17233
1.16173
1.15314
1.14631
1.1393
1.13267
1.12525
1.11628
1.10419
1.08761
1.07341
1.06419
1.05604
1.04744
1.03711
1.02526
1.01234
0.997646
0.982851
0.970088
0.958225
0.946644
0.937973
0.931433
0.925171
0.919793
0.913113
0.904476
0.895307
0.885106
0.875132
0.864884
0.853482
0.842747
0.832036
0.823275
0.817699
0.809579
0.798081
0.787753
0.779009
0.767939
0.753153
0.738511
0.724511
0.710683
0.699916
0.690108
0.677697
0.665019
0.655343
0.646333
0.635225
0.625004
0.615403
0.604667
0.595803
0.586308
0.572731
0.557518
0.54264
0.529335
0.516692
0.504788
0.495413
0.486418
0.476749
0.466467
0.455095
0.443655
0.434013
0.427348
0.419909
0.410624
0.402042
0.393923
0.386988
0.37777
0.365373
0.356267
0.348193
0.335782
0.320985
0.307139
0.295177
0.286037
0.281415
0.27726
0.269715
0.260723
0.250578
0.239912
0.229715
0.219837
0.210322
0.200342
0.190212
0.177309
0.161541
0.148843
0.138187
0.126019
0.112665
0.100995
0.0939349
0.0885674
0.0823866
0.0758162
0.0673794
0.0557642
0.0442148
0.0347087
0.0246503
0.0170555
0.00215376
-2.1332
-3224.47
-1035.75
540.821
496.112
27.0914
-133.546
-56.2507
20.1842
26.5506
6.41078
-3.17804
-0.908104
2.78953
3.52885
2.71003
2.17053
2.19399
2.35455
2.40542
2.36764
2.32621
2.30859
2.30263
2.29519
2.28606
2.27587
2.26258
2.2492
2.23816
2.22838
2.22003
2.21264
2.20391
2.19417
2.18753
2.17905
2.16221
2.1468
2.1349
2.12432
2.11761
2.10991
2.10142
2.09194
2.07967
2.07033
2.06425
2.05031
2.03568
2.0284
2.01321
1.99754
1.99327
1.99133
1.98426
1.97289
1.96544
1.96182
1.95734
1.94938
1.9375
1.92797
1.92095
1.91083
1.90022
1.89015
1.87485
1.85943
1.84931
1.84016
1.83044
1.81975
1.80896
1.80032
1.79371
1.7839
1.76874
1.75281
1.73981
1.7331
1.72834
1.7222
1.713
1.69879
1.68743
1.67638
1.66449
1.65541
1.64525
1.63831
1.63304
1.62543
1.6139
1.59513
1.57715
1.56509
1.5565
1.54582
1.53296
1.52287
1.51165
1.50149
1.49447
1.48628
1.47751
1.46846
1.46118
1.45522
1.44778
1.43977
1.43095
1.42197
1.4127
1.40326
1.39423
1.3843
1.37402
1.36338
1.35393
1.34776
1.34017
1.33052
1.32136
1.30667
1.28642
1.26771
1.2523
1.24176
1.23703
1.23285
1.22451
1.21455
1.2018
1.18447
1.17133
1.16263
1.15301
1.1454
1.14008
1.13454
1.12459
1.11113
1.09982
1.08825
1.07747
1.07028
1.06183
1.04962
1.034
1.0185
1.00743
0.998009
0.98715
0.974707
0.959699
0.945047
0.935252
0.928142
0.922826
0.919965
0.913729
0.904083
0.895756
0.88664
0.877005
0.866577
0.852867
0.840992
0.831481
0.821813
0.814987
0.808472
0.799525
0.78989
0.779895
0.768754
0.754743
0.739759
0.725136
0.709142
0.69522
0.685766
0.677239
0.667399
0.658298
0.649942
0.638244
0.625698
0.615405
0.603836
0.592573
0.583187
0.572427
0.55938
0.544964
0.531738
0.518494
0.504342
0.493358
0.483872
0.474231
0.465588
0.456303
0.445266
0.433017
0.423308
0.416832
0.411532
0.406467
0.397823
0.388043
0.37911
0.367284
0.355496
0.345107
0.332819
0.318822
0.306059
0.296183
0.288423
0.283661
0.27877
0.269655
0.258634
0.246514
0.23639
0.230449
0.223221
0.21275
0.200484
0.188404
0.176907
0.163902
0.150698
0.137924
0.12547
0.112685
0.100275
0.0925475
0.0867688
0.0791387
0.0726399
0.0675643
0.0579183
0.0446194
0.0335874
0.0233446
0.0137169
0.00641197
-2.13478
-3224.46
-1035.73
540.831
496.117
27.0917
-133.545
-56.2506
20.1845
26.5543
6.41167
-3.17926
-0.907892
2.79202
3.53239
2.71295
2.17078
2.19536
2.36156
2.40743
2.35835
2.31837
2.31156
2.30754
2.29303
2.28221
2.27588
2.26679
2.25717
2.24345
2.22888
2.22184
2.21528
2.20446
2.19487
2.18332
2.16917
2.15951
2.15111
2.13927
2.12983
2.12268
2.11263
2.10169
2.09134
2.08198
2.06935
2.05785
2.05116
2.0397
2.0242
2.00873
1.99972
1.99695
1.9907
1.98297
1.97784
1.97224
1.96281
1.95272
1.94381
1.93552
1.92959
1.92149
1.91123
1.90252
1.88923
1.87241
1.86109
1.85083
1.83836
1.82978
1.82406
1.81596
1.80239
1.78767
1.77583
1.76489
1.75528
1.74681
1.73922
1.73029
1.7204
1.71136
1.69952
1.68661
1.67329
1.66272
1.6555
1.64493
1.6377
1.63336
1.6266
1.61682
1.59785
1.5774
1.56331
1.55272
1.54311
1.53276
1.52403
1.51414
1.50222
1.49276
1.48539
1.47786
1.46924
1.46302
1.45776
1.44905
1.43881
1.42917
1.42199
1.41386
1.40257
1.39236
1.38203
1.37292
1.36643
1.35847
1.35063
1.3416
1.33041
1.31996
1.30373
1.28258
1.26655
1.25498
1.24585
1.24042
1.23453
1.22378
1.21211
1.20048
1.18453
1.17054
1.16174
1.15295
1.14523
1.13985
1.13588
1.12856
1.11471
1.1001
1.08592
1.07348
1.06735
1.06224
1.05185
1.03665
1.02091
1.00834
0.996753
0.983158
0.968751
0.95637
0.947467
0.940686
0.9333
0.92524
0.918645
0.911757
0.903192
0.894458
0.884276
0.874672
0.866689
0.85539
0.843525
0.833508
0.822562
0.814138
0.808253
0.800445
0.789866
0.77845
0.768279
0.755328
0.738736
0.724176
0.710746
0.697142
0.686436
0.677532
0.666892
0.656161
0.648128
0.638013
0.624741
0.614651
0.606323
0.596218
0.584606
0.570892
0.556227
0.541964
0.529948
0.519433
0.507027
0.495118
0.484832
0.473901
0.462906
0.453587
0.445401
0.435626
0.426471
0.41952
0.41289
0.406306
0.395845
0.383735
0.376135
0.368528
0.357967
0.346114
0.332825
0.318086
0.304654
0.29605
0.290022
0.284624
0.278898
0.269983
0.259058
0.247336
0.237135
0.229668
0.222047
0.214253
0.203224
0.188907
0.176456
0.163419
0.148758
0.134845
0.122996
0.113116
0.102666
0.0945907
0.0900072
0.0833242
0.0739712
0.0656671
0.0565064
0.0449009
0.0347881
0.0247537
0.0147235
0.00571511
-2.13841
-3224.46
-1035.74
540.819
496.109
27.0935
-133.545
-56.2573
20.1825
26.5555
6.40699
-3.18452
-0.907848
2.79201
3.52765
2.70485
2.16583
2.1981
2.36175
2.40137
2.35781
2.32276
2.31176
2.30593
2.29313
2.28129
2.27437
2.26309
2.24939
2.2387
2.23073
2.22059
2.21027
2.20768
2.19958
2.18141
2.17046
2.16304
2.1505
2.13885
2.129
2.11863
2.10959
2.10099
2.09164
2.08281
2.0695
2.0579
2.05138
2.03837
2.02275
2.00834
1.99917
1.99875
1.99267
1.98247
1.97716
1.96926
1.95994
1.95467
1.94628
1.93403
1.92573
1.91998
1.91315
1.90352
1.88694
1.86921
1.8588
1.85108
1.8421
1.83317
1.82363
1.81319
1.80222
1.79127
1.77807
1.7634
1.75191
1.74341
1.73831
1.73105
1.71945
1.71076
1.70037
1.68618
1.67273
1.66234
1.656
1.64724
1.63757
1.63138
1.62467
1.61442
1.59823
1.57895
1.56202
1.55176
1.54478
1.53395
1.5246
1.51516
1.50147
1.49108
1.48402
1.47799
1.47291
1.46538
1.45524
1.44516
1.43649
1.42872
1.42242
1.41553
1.40504
1.39349
1.38172
1.37109
1.36308
1.35587
1.35117
1.34477
1.33214
1.3185
1.30256
1.28293
1.26568
1.25337
1.246
1.24139
1.23523
1.2238
1.20948
1.19785
1.18543
1.17149
1.16147
1.15438
1.14843
1.14206
1.13443
1.12534
1.11248
1.09961
1.08863
1.07711
1.06733
1.05824
1.04786
1.03702
1.02389
1.01038
0.998199
0.983679
0.968098
0.955409
0.945131
0.938039
0.933493
0.926659
0.918607
0.911742
0.904387
0.896817
0.886395
0.873037
0.862248
0.851846
0.841416
0.83412
0.825586
0.815659
0.808106
0.801346
0.791777
0.778235
0.765285
0.753334
0.737855
0.72297
0.711436
0.698636
0.686242
0.677598
0.668115
0.656585
0.647511
0.637518
0.623931
0.613206
0.605343
0.595861
0.584861
0.572447
0.558926
0.543548
0.528077
0.516626
0.506108
0.494886
0.485893
0.476409
0.463941
0.452426
0.443641
0.434579
0.426164
0.41908
0.411897
0.406299
0.398251
0.386038
0.37655
0.368437
0.35669
0.343005
0.330125
0.317316
0.305158
0.297065
0.290834
0.284498
0.278604
0.270112
0.260159
0.250173
0.239262
0.229213
0.220195
0.212272
0.202543
0.18884
0.175748
0.163731
0.1507
0.136159
0.122029
0.112075
0.102886
0.0934832
0.0880099
0.082886
0.0741412
0.0651761
0.0564809
0.0454306
0.0357328
0.0257347
0.0145304
0.00552048
-2.1395
-3224.47
-1035.75
540.818
496.112
27.0957
-133.547
-56.2602
20.1831
26.5584
6.41142
-3.18007
-0.905481
2.79022
3.5269
2.71082
2.16969
2.19463
2.36085
2.40559
2.35904
2.31998
2.3076
2.30252
2.29496
2.28601
2.27614
2.26332
2.25191
2.24144
2.22864
2.21927
2.21614
2.21136
2.19749
2.18093
2.17173
2.16411
2.15194
2.14071
2.13235
2.12192
2.11021
2.10068
2.09319
2.08545
2.07163
2.05722
2.04971
2.03821
2.02251
2.01116
2.00202
1.99492
1.98995
1.98637
1.98066
1.96942
1.95929
1.9524
1.94499
1.93603
1.9269
1.92008
1.91287
1.90157
1.8855
1.86982
1.86046
1.85251
1.84306
1.83418
1.82403
1.81258
1.80202
1.79195
1.77892
1.76488
1.75346
1.74356
1.73802
1.73284
1.72167
1.70967
1.69789
1.68541
1.67299
1.66179
1.65423
1.64665
1.6407
1.6363
1.62528
1.61068
1.59548
1.57854
1.56403
1.5536
1.54512
1.53555
1.52447
1.5122
1.50053
1.49226
1.4846
1.47879
1.47459
1.46599
1.45507
1.44487
1.43625
1.43019
1.42442
1.41601
1.40342
1.39044
1.37984
1.37165
1.36661
1.35992
1.35156
1.34394
1.33188
1.31616
1.30009
1.28328
1.26856
1.25758
1.24826
1.23987
1.23358
1.22504
1.21085
1.19739
1.18497
1.17112
1.16108
1.155
1.15011
1.14366
1.13375
1.12411
1.11338
1.10039
1.08936
1.07929
1.06861
1.0573
1.04614
1.03625
1.02456
1.01164
0.998967
0.983332
0.96748
0.955463
0.945484
0.93777
0.932508
0.926216
0.919159
0.912544
0.904622
0.896281
0.88604
0.873006
0.862597
0.852833
0.841437
0.833412
0.826053
0.816564
0.80836
0.800984
0.792356
0.780581
0.76664
0.752897
0.73662
0.720433
0.709696
0.699411
0.687113
0.677715
0.669554
0.658709
0.647551
0.636492
0.623795
0.612868
0.604788
0.595701
0.58428
0.571311
0.558252
0.544921
0.530472
0.517484
0.506184
0.494485
0.484039
0.475105
0.464422
0.452524
0.44271
0.43466
0.427899
0.421581
0.413219
0.405479
0.398466
0.387676
0.376145
0.366587
0.355012
0.341087
0.328684
0.317492
0.306859
0.299711
0.2934
0.285319
0.277752
0.26877
0.258933
0.25028
0.240567
0.230604
0.221093
0.212216
0.20323
0.190578
0.176235
0.163072
0.150351
0.136573
0.121591
0.110771
0.103525
0.0947634
0.0882509
0.0835236
0.0749733
0.0654335
0.05672
0.0456491
0.0357396
0.0277132
0.0157332
0.00453406
-2.14128
-3224.48
-1035.75
540.818
496.111
27.0924
-133.548
-56.2586
20.1792
26.5539
6.40885
-3.1834
-0.908521
2.78649
3.52283
2.70803
2.16781
2.19475
2.36096
2.40359
2.3565
2.31977
2.30752
2.29857
2.29149
2.28434
2.27374
2.2602
2.24917
2.24322
2.23392
2.22209
2.2132
2.20224
2.19027
2.18407
2.17752
2.16427
2.14982
2.1405
2.13471
2.12532
2.11181
2.0971
2.08686
2.08379
2.07519
2.05907
2.04667
2.03461
2.02077
2.01172
2.00375
1.99631
1.99225
1.98655
1.97703
1.96661
1.9591
1.95236
1.943
1.93354
1.92732
1.92246
1.91153
1.89684
1.88272
1.86892
1.86017
1.8543
1.84664
1.837
1.82451
1.81046
1.79891
1.7908
1.77795
1.76356
1.75582
1.74719
1.73805
1.7311
1.71972
1.70671
1.69552
1.68462
1.67417
1.66328
1.65297
1.64544
1.64094
1.63622
1.62579
1.60994
1.59206
1.57606
1.56463
1.55492
1.54654
1.53714
1.52307
1.50962
1.49923
1.49105
1.48577
1.48214
1.47687
1.46587
1.45309
1.44345
1.43599
1.42972
1.42274
1.41418
1.40342
1.39171
1.38065
1.3711
1.36579
1.3603
1.35235
1.34389
1.33053
1.31471
1.29991
1.28324
1.26752
1.25667
1.24961
1.24213
1.23279
1.22304
1.21052
1.19644
1.18411
1.1717
1.16072
1.15444
1.15139
1.14618
1.13534
1.12366
1.11245
1.09915
1.0873
1.07737
1.06819
1.05932
1.04876
1.03808
1.02542
1.00952
0.994907
0.980884
0.96733
0.957057
0.947403
0.937834
0.931574
0.925893
0.918702
0.912467
0.905019
0.895728
0.885836
0.872719
0.860151
0.851201
0.841818
0.832864
0.825733
0.818851
0.811119
0.801215
0.790837
0.779084
0.764194
0.750984
0.738233
0.722122
0.708646
0.698711
0.687231
0.677135
0.669668
0.659155
0.646259
0.635245
0.624635
0.613667
0.603768
0.593949
0.583304
0.571062
0.557937
0.545829
0.532385
0.517895
0.506239
0.494623
0.482072
0.472549
0.463814
0.453842
0.444701
0.435811
0.427848
0.421463
0.413305
0.404105
0.39666
0.388123
0.376868
0.365268
0.353277
0.339884
0.327538
0.317734
0.308608
0.300441
0.293191
0.28567
0.278328
0.26909
0.25837
0.249142
0.240499
0.232754
0.224618
0.213508
0.201415
0.188826
0.175463
0.162149
0.149343
0.137189
0.122737
0.109647
0.102613
0.09479
0.0864442
0.0819697
0.076186
0.0674481
0.058579
0.0474002
0.0345141
0.0248939
0.0153202
0.00493836
-2.14197
-3224.48
-1035.75
540.817
496.108
27.0888
-133.55
-56.2584
20.1809
26.5527
6.40867
-3.18112
-0.908901
2.78781
3.52603
2.70866
2.16528
2.19196
2.35884
2.404
2.36135
2.32027
2.30304
2.29842
2.29435
2.28355
2.27249
2.26309
2.25277
2.2424
2.23092
2.22119
2.21266
2.20455
2.19692
2.18895
2.17786
2.16235
2.15023
2.14297
2.13604
2.12552
2.11285
2.10218
2.09334
2.0861
2.07447
2.05587
2.04235
2.03633
2.02669
2.01478
2.0033
1.99394
1.99106
1.98695
1.97769
1.96728
1.95914
1.95208
1.94408
1.93754
1.92884
1.91748
1.9067
1.89594
1.88444
1.87247
1.86197
1.85233
1.84513
1.8379
1.82654
1.81447
1.80153
1.78854
1.77618
1.76513
1.75776
1.7487
1.73786
1.72941
1.72055
1.70854
1.69525
1.68392
1.67313
1.6616
1.65312
1.64863
1.64292
1.63405
1.62316
1.60934
1.59361
1.5786
1.56658
1.55575
1.54541
1.5358
1.52213
1.50856
1.50059
1.4951
1.48937
1.48213
1.47408
1.46355
1.45215
1.44417
1.43817
1.43283
1.42556
1.41466
1.40066
1.38782
1.3799
1.37293
1.36806
1.36332
1.35319
1.34261
1.33053
1.31368
1.29772
1.28422
1.27031
1.25822
1.25075
1.24251
1.23205
1.22337
1.21109
1.19518
1.1837
1.17459
1.16507
1.15617
1.14824
1.14286
1.13599
1.126
1.1153
1.10142
1.08724
1.0763
1.06713
1.05899
1.04941
1.03902
1.02742
1.01193
0.995398
0.979377
0.965259
0.955238
0.94684
0.938558
0.931905
0.926586
0.921113
0.91466
0.904887
0.893483
0.884035
0.872431
0.859833
0.851423
0.843002
0.83359
0.826365
0.819951
0.812043
0.801598
0.791368
0.780352
0.763877
0.7481
0.736541
0.722892
0.709186
0.69868
0.687843
0.67787
0.670357
0.660487
0.646583
0.633444
0.623492
0.614367
0.604477
0.594207
0.583152
0.570348
0.557307
0.546009
0.533368
0.518633
0.506904
0.496157
0.483018
0.471461
0.461942
0.452703
0.444388
0.436441
0.42911
0.423225
0.416203
0.405463
0.394891
0.38667
0.376019
0.363686
0.352637
0.339851
0.327043
0.318245
0.309882
0.30074
0.293636
0.286821
0.27909
0.270507
0.259977
0.24908
0.239423
0.231875
0.225372
0.215733
0.203293
0.190537
0.176724
0.161667
0.147208
0.135663
0.123245
0.109241
0.101775
0.0965012
0.0881469
0.0821006
0.0756715
0.0663084
0.0580171
0.0488723
0.0364127
0.0248515
0.0155502
0.0057615
-2.14522
-3224.48
-1035.75
540.82
496.105
27.0848
-133.546
-56.2542
20.1756
26.5477
6.40631
-3.18321
-0.908256
2.78481
3.51805
2.7056
2.16877
2.19177
2.35703
2.40247
2.35537
2.31851
2.30865
2.29946
2.28939
2.27994
2.26964
2.26011
2.25035
2.24182
2.23332
2.22387
2.21328
2.20216
2.19255
2.18632
2.17814
2.1667
2.15758
2.14491
2.13201
2.12334
2.112
2.10085
2.09381
2.08534
2.07233
2.05771
2.04577
2.03669
2.02351
2.01089
2.00419
1.99677
1.99078
1.98409
1.9731
1.9657
1.96248
1.95407
1.94281
1.93477
1.92472
1.91634
1.90885
1.89452
1.88017
1.87015
1.86318
1.8567
1.84769
1.83541
1.82306
1.81286
1.80096
1.79037
1.77905
1.76493
1.75638
1.74868
1.73831
1.72971
1.71924
1.70517
1.69262
1.68288
1.6721
1.66224
1.65617
1.65036
1.64143
1.63112
1.62111
1.60754
1.59092
1.57681
1.56819
1.55977
1.5463
1.53252
1.51931
1.508
1.50115
1.49539
1.49069
1.48448
1.47435
1.46248
1.45145
1.44315
1.43705
1.43233
1.42462
1.41282
1.40018
1.38956
1.38251
1.37412
1.3664
1.36118
1.35171
1.34064
1.32949
1.31492
1.29945
1.28424
1.26906
1.25696
1.2499
1.24322
1.23291
1.22223
1.21058
1.19562
1.18271
1.1739
1.16588
1.1577
1.14972
1.14339
1.13564
1.12436
1.11319
1.1007
1.08748
1.07628
1.06686
1.06047
1.05235
1.03988
1.02573
1.00856
0.991854
0.979214
0.967415
0.955793
0.946179
0.937803
0.930974
0.927134
0.922176
0.913754
0.90387
0.892919
0.882847
0.872249
0.859815
0.850069
0.842346
0.834268
0.8268
0.81989
0.812752
0.802644
0.790662
0.779039
0.763704
0.747232
0.734941
0.722387
0.708474
0.697705
0.688868
0.6792
0.669393
0.659144
0.646804
0.634083
0.623418
0.613241
0.60206
0.591361
0.581743
0.57168
0.559888
0.5474
0.534142
0.518767
0.505138
0.494282
0.482347
0.470996
0.461706
0.453814
0.446444
0.43754
0.428542
0.421157
0.414289
0.405504
0.39499
0.385779
0.37545
0.362876
0.351426
0.339804
0.328312
0.319079
0.309572
0.300063
0.293097
0.286375
0.278161
0.269903
0.261206
0.251754
0.242477
0.233507
0.225226
0.215457
0.202151
0.188158
0.175394
0.162426
0.147663
0.134285
0.122916
0.109286
0.100006
0.096001
0.0887404
0.0819986
0.0767941
0.0678234
0.0581404
0.0490271
0.036986
0.0241338
0.0128904
0.00398825
-2.14455
-3224.48
-1035.75
540.813
496.105
27.0866
-133.551
-56.2596
20.1785
26.5504
6.40508
-3.18451
-0.914032
2.78427
3.52541
2.70579
2.16478
2.19337
2.35526
2.39863
2.35779
2.31745
2.30153
2.29582
2.28998
2.28334
2.27221
2.26038
2.25283
2.24209
2.2291
2.22134
2.21475
2.20701
2.19838
2.18834
2.17792
2.16771
2.15723
2.14361
2.13237
2.12388
2.11642
2.10916
2.09615
2.08299
2.07031
2.05619
2.04699
2.03883
2.02567
2.01387
2.00433
1.99634
1.99249
1.98259
1.97025
1.96663
1.96349
1.95606
1.94601
1.93352
1.92185
1.91397
1.90638
1.89598
1.88201
1.86868
1.86429
1.85942
1.84824
1.8366
1.82253
1.81065
1.80163
1.79235
1.78355
1.76977
1.75365
1.74384
1.73927
1.73187
1.72019
1.70681
1.69187
1.67951
1.67104
1.66492
1.65941
1.65064
1.63934
1.62914
1.61994
1.60777
1.59289
1.57929
1.56879
1.55852
1.54444
1.53089
1.52008
1.51109
1.50469
1.49813
1.49171
1.48351
1.47177
1.46077
1.45215
1.44534
1.43951
1.43369
1.42511
1.41287
1.39931
1.38724
1.38096
1.37686
1.37019
1.36269
1.35265
1.34041
1.32822
1.3139
1.29762
1.28325
1.27132
1.25983
1.25105
1.24429
1.23337
1.2205
1.20962
1.19713
1.18496
1.17585
1.16706
1.15866
1.15006
1.14263
1.1363
1.12536
1.11223
1.10019
1.08842
1.07803
1.06913
1.06206
1.05269
1.03882
1.0245
1.00894
0.993093
0.979529
0.966386
0.954303
0.945427
0.938915
0.933374
0.928534
0.922287
0.91401
0.904629
0.89242
0.880348
0.870696
0.860425
0.850988
0.843418
0.836285
0.828646
0.819876
0.812239
0.803079
0.789968
0.777851
0.764562
0.748157
0.734624
0.722442
0.708212
0.696676
0.68886
0.67995
0.669543
0.6594
0.648142
0.635322
0.623026
0.612334
0.601602
0.59008
0.580191
0.572156
0.56193
0.548685
0.535035
0.520094
0.505336
0.493787
0.482817
0.47181
0.461525
0.45216
0.445155
0.438577
0.430849
0.422088
0.413862
0.406173
0.39561
0.384967
0.375004
0.361793
0.349511
0.33997
0.329606
0.318933
0.309419
0.301322
0.294208
0.287165
0.279195
0.270411
0.261671
0.252752
0.243899
0.234517
0.225406
0.216538
0.203586
0.187779
0.174112
0.162463
0.148804
0.133528
0.121816
0.11056
0.100363
0.0956165
0.0896996
0.0822672
0.0769451
0.0688587
0.0575296
0.0475966
0.0376738
0.0256199
0.014212
0.0049476
-2.14506
-3224.48
-1035.76
540.812
496.11
27.0903
-133.552
-56.2607
20.1777
26.5466
6.40142
-3.18406
-0.911509
2.7817
3.51889
2.70364
2.1654
2.19121
2.35112
2.39651
2.35539
2.31506
2.30342
2.29908
2.29162
2.28101
2.26597
2.25559
2.24989
2.24096
2.23453
2.22791
2.21359
2.20286
2.19667
2.1891
2.18091
2.1687
2.15492
2.14315
2.13617
2.12989
2.1159
2.10228
2.09476
2.08446
2.06975
2.05855
2.04906
2.037
2.02496
2.01367
2.00378
1.99564
1.98815
1.98078
1.97549
1.9695
1.95926
1.94967
1.94194
1.93439
1.92472
1.91432
1.90452
1.89217
1.87903
1.87044
1.86618
1.85772
1.84645
1.83601
1.82183
1.81139
1.80465
1.79366
1.78122
1.767
1.75357
1.74598
1.74113
1.73162
1.71671
1.70246
1.68954
1.67961
1.67378
1.66727
1.65896
1.64949
1.63879
1.62777
1.61622
1.60358
1.59183
1.58142
1.57057
1.55845
1.54282
1.52836
1.51975
1.51222
1.50474
1.49855
1.49245
1.48401
1.47184
1.46004
1.45158
1.44505
1.43938
1.43303
1.42275
1.41045
1.39988
1.39002
1.38284
1.37718
1.36852
1.36015
1.35123
1.33895
1.32698
1.31457
1.29871
1.28333
1.27083
1.25935
1.25003
1.24333
1.23412
1.22082
1.2088
1.19826
1.18646
1.17472
1.1651
1.15858
1.15166
1.14392
1.13701
1.12537
1.11051
1.09802
1.08705
1.07832
1.07108
1.06358
1.05353
1.03854
1.0222
1.00664
0.991852
0.97888
0.966766
0.954694
0.944625
0.938306
0.934021
0.929476
0.922736
0.912755
0.902302
0.891373
0.87993
0.870689
0.861304
0.850681
0.841852
0.835721
0.829527
0.820933
0.812888
0.803536
0.789306
0.775886
0.763177
0.747376
0.732603
0.720697
0.70943
0.698528
0.68919
0.679521
0.66843
0.657736
0.647628
0.635853
0.622217
0.610047
0.599861
0.589381
0.580302
0.572986
0.562957
0.549214
0.535168
0.520634
0.505425
0.492568
0.481299
0.471203
0.462234
0.452991
0.445249
0.43807
0.430173
0.421542
0.4124
0.405207
0.396265
0.384399
0.373602
0.361733
0.350178
0.340507
0.329383
0.317797
0.308123
0.300721
0.294051
0.287324
0.280164
0.271301
0.262491
0.254292
0.246022
0.236756
0.225254
0.213806
0.201452
0.186874
0.173467
0.162094
0.149384
0.133564
0.121337
0.112613
0.101728
0.0940576
0.0890632
0.0815939
0.0750483
0.0694526
0.0590473
0.046615
0.0364197
0.0254383
0.012838
0.00345167
-2.14361
-3224.48
-1035.76
540.813
496.105
27.0855
-133.554
-56.2586
20.1814
26.5481
6.40265
-3.18908
-0.918421
2.78377
3.52564
2.70281
2.15978
2.18946
2.35217
2.39614
2.35526
2.31442
2.29669
2.2913
2.28821
2.28091
2.26976
2.25943
2.25257
2.24381
2.2321
2.22335
2.21342
2.2049
2.20117
2.19315
2.18091
2.16739
2.15514
2.14606
2.13764
2.12714
2.11666
2.10986
2.09936
2.08349
2.06935
2.05698
2.04645
2.03867
2.02906
2.0171
2.00527
1.9945
1.98815
1.98269
1.97457
1.96663
1.95873
1.95146
1.94477
1.93385
1.92114
1.91279
1.90376
1.89213
1.88245
1.87323
1.86504
1.85643
1.84545
1.8354
1.82333
1.81321
1.80686
1.79562
1.78146
1.76791
1.75428
1.74464
1.74031
1.73267
1.71756
1.70211
1.689
1.6799
1.67613
1.6708
1.65948
1.64541
1.63447
1.62647
1.61707
1.60658
1.59569
1.58209
1.56694
1.55443
1.54305
1.53105
1.52131
1.5139
1.50808
1.5016
1.49269
1.48234
1.47051
1.4596
1.45201
1.44616
1.44074
1.43395
1.424
1.41183
1.39981
1.38913
1.38194
1.37768
1.37071
1.36126
1.35242
1.34074
1.32612
1.31178
1.29712
1.2827
1.27162
1.26302
1.25317
1.24314
1.23309
1.22037
1.2086
1.19935
1.1887
1.17719
1.16674
1.15918
1.15262
1.14404
1.13526
1.12434
1.11119
1.09912
1.08876
1.08106
1.07332
1.06302
1.0512
1.03668
1.0218
1.00835
0.993848
0.978903
0.965413
0.953886
0.945118
0.939409
0.934825
0.930304
0.924171
0.914261
0.902971
0.890687
0.8776
0.868137
0.860685
0.852447
0.844351
0.837298
0.831247
0.822422
0.812033
0.802386
0.789248
0.774916
0.762591
0.748509
0.733485
0.721179
0.709946
0.698066
0.687914
0.679277
0.6693
0.658581
0.647523
0.635705
0.622229
0.608888
0.598898
0.590403
0.581975
0.574054
0.563726
0.549164
0.534155
0.520718
0.506959
0.494112
0.482293
0.471176
0.461949
0.452639
0.443906
0.436821
0.430518
0.423353
0.413927
0.406041
0.397216
0.383885
0.371805
0.361022
0.350118
0.340205
0.329419
0.318282
0.308251
0.300736
0.294684
0.28843
0.282206
0.273674
0.263548
0.253987
0.245483
0.237196
0.225579
0.213022
0.201608
0.18875
0.174976
0.162083
0.149661
0.134493
0.120394
0.111886
0.102495
0.0932821
0.0883833
0.0825607
0.0755907
0.0696992
0.0595935
0.0466958
0.0349639
0.0245805
0.0143912
0.00461133
-2.14642
-3224.48
-1035.75
540.814
496.105
27.0848
-133.552
-56.2575
20.1771
26.5423
6.3999
-3.18398
-0.913469
2.77601
3.51537
2.69823
2.15718
2.1915
2.35611
2.39392
2.34923
2.3118
2.30074
2.29718
2.28768
2.27471
2.26445
2.25751
2.25312
2.24516
2.2334
2.22476
2.21669
2.20774
2.19831
2.18711
2.17855
2.17208
2.16328
2.14992
2.13566
2.12565
2.11665
2.1078
2.09774
2.08311
2.06823
2.05816
2.05123
2.0416
2.02895
2.01523
2.00017
1.99176
1.99074
1.98508
1.97451
1.96457
1.95551
1.94867
1.94228
1.93197
1.92187
1.913
1.90012
1.88893
1.88446
1.87599
1.86394
1.85391
1.84286
1.83355
1.82576
1.81768
1.80753
1.79193
1.7771
1.76691
1.75796
1.74868
1.73923
1.72847
1.71359
1.69871
1.68951
1.68425
1.67894
1.67013
1.65823
1.64549
1.63308
1.62247
1.61325
1.60455
1.59553
1.58331
1.56723
1.5528
1.54201
1.53157
1.52247
1.51464
1.50726
1.50094
1.49243
1.48179
1.47158
1.46186
1.45301
1.4452
1.43836
1.43141
1.42174
1.40994
1.40076
1.3931
1.38373
1.37661
1.36997
1.35973
1.35008
1.33898
1.32449
1.31132
1.29839
1.28445
1.27217
1.26191
1.25158
1.24158
1.23274
1.22168
1.20982
1.19882
1.18736
1.17702
1.16766
1.16018
1.15418
1.14485
1.13375
1.12256
1.11023
1.09888
1.08896
1.08119
1.07367
1.06338
1.05119
1.03639
1.02048
1.00644
0.992187
0.977212
0.964646
0.955122
0.947514
0.941299
0.935369
0.928876
0.921775
0.912088
0.901371
0.891109
0.879219
0.868035
0.859396
0.852042
0.844774
0.837385
0.831182
0.82283
0.811828
0.801717
0.789355
0.774139
0.759988
0.74687
0.73351
0.721221
0.710416
0.698763
0.687186
0.677837
0.668772
0.658379
0.64676
0.634659
0.62106
0.607164
0.597508
0.59067
0.583028
0.574391
0.564201
0.550569
0.534757
0.520375
0.506741
0.493211
0.480742
0.469786
0.461288
0.453215
0.44488
0.43688
0.429812
0.423552
0.414227
0.404025
0.394452
0.382389
0.371767
0.362495
0.351499
0.340082
0.328223
0.317417
0.308357
0.300776
0.294399
0.288271
0.282155
0.27423
0.26525
0.25577
0.245776
0.236845
0.225296
0.211508
0.200066
0.189012
0.176129
0.162515
0.150003
0.136365
0.120844
0.109946
0.101875
0.0934196
0.0877115
0.0821621
0.0744973
0.0670877
0.0574271
0.0459437
0.0357017
0.0257597
0.0146048
0.00440573
-2.14566
-3224.48
-1035.76
540.813
496.106
27.0884
-133.551
-56.2625
20.1707
26.5457
6.40657
-3.18742
-0.917709
2.77905
3.51612
2.69591
2.15717
2.18775
2.34799
2.39054
2.35195
2.31399
2.29583
2.28943
2.2845
2.27567
2.26902
2.26282
2.25271
2.24112
2.23315
2.22742
2.21675
2.2059
2.19935
2.1907
2.18163
2.17553
2.16446
2.1474
2.13387
2.12735
2.12155
2.11239
2.09861
2.08047
2.06833
2.06132
2.05134
2.04223
2.0292
2.01224
2.00293
1.99944
1.99248
1.98139
1.97045
1.96202
1.95794
1.95252
1.94224
1.93014
1.9187
1.91037
1.9022
1.89323
1.88453
1.87349
1.86393
1.85509
1.8432
1.83415
1.82785
1.81784
1.8067
1.7941
1.77843
1.76666
1.7591
1.74927
1.73824
1.72771
1.71338
1.69853
1.69119
1.68765
1.68088
1.67011
1.65626
1.64143
1.62989
1.62332
1.61698
1.60736
1.59524
1.58057
1.56512
1.55232
1.54208
1.53242
1.52466
1.51777
1.50967
1.50187
1.49219
1.48119
1.47162
1.46213
1.45377
1.44707
1.4402
1.43194
1.42166
1.41049
1.40058
1.39256
1.38451
1.37786
1.37108
1.36068
1.35052
1.3389
1.32397
1.31012
1.29756
1.28528
1.27376
1.26393
1.25406
1.24237
1.23122
1.22088
1.2101
1.1991
1.18871
1.18029
1.17075
1.16101
1.15369
1.14426
1.13258
1.12155
1.11107
1.10133
1.09151
1.08287
1.074
1.0615
1.04851
1.03562
1.02101
1.00726
0.993198
0.977834
0.965045
0.955346
0.947406
0.941638
0.936482
0.93049
0.924007
0.913784
0.900438
0.888742
0.877515
0.867084
0.85955
0.853637
0.84735
0.839315
0.831707
0.823752
0.812434
0.800292
0.787871
0.773433
0.759376
0.748008
0.736171
0.721957
0.709245
0.697754
0.686368
0.677262
0.668839
0.658626
0.646635
0.633919
0.62095
0.608189
0.598053
0.591143
0.584449
0.575119
0.563619
0.550451
0.535126
0.520559
0.507345
0.494121
0.481939
0.470861
0.460857
0.452071
0.444203
0.436602
0.429414
0.424293
0.416229
0.404783
0.394174
0.382407
0.370929
0.361408
0.351429
0.340488
0.328649
0.317929
0.308829
0.301175
0.295469
0.290027
0.283462
0.274792
0.26535
0.255746
0.244836
0.234792
0.224954
0.213366
0.202025
0.19142
0.179342
0.164264
0.149741
0.137009
0.121511
0.107663
0.0993337
0.0921205
0.0869861
0.0836417
0.0769053
0.0682773
0.0579041
0.0454665
0.0339769
0.0242251
0.014643
0.00504122
-2.14563
-3224.48
-1035.76
540.815
496.109
27.0864
-133.552
-56.2575
20.176
26.5454
6.4025
-3.18964
-0.918793
2.77531
3.51124
2.69438
2.15621
2.18507
2.34649
2.38876
2.34862
2.30929
2.29351
2.29105
2.28557
2.27474
2.26806
2.2599
2.2491
2.24361
2.23891
2.22843
2.21622
2.20653
2.1972
2.1898
2.18411
2.17526
2.16231
2.15007
2.13821
2.12811
2.12159
2.11017
2.09447
2.08053
2.07143
2.06299
2.05302
2.0436
2.02715
2.01056
2.0041
1.99913
1.99072
1.98153
1.9713
1.96137
1.95513
1.94822
1.93902
1.93025
1.91885
1.90935
1.90244
1.89374
1.88422
1.87215
1.86134
1.85335
1.84343
1.8358
1.82986
1.81788
1.80307
1.78997
1.77734
1.76849
1.76155
1.75171
1.73897
1.7235
1.70847
1.69852
1.69447
1.69021
1.68046
1.66793
1.65482
1.64185
1.62967
1.62004
1.61361
1.60583
1.59397
1.57988
1.56526
1.55131
1.54136
1.53515
1.5272
1.51677
1.50685
1.49991
1.49232
1.48273
1.47413
1.4638
1.45374
1.44649
1.43835
1.42872
1.41931
1.41015
1.40137
1.395
1.38746
1.37799
1.37015
1.35946
1.34704
1.3352
1.322
1.31039
1.30016
1.28858
1.27419
1.26085
1.25175
1.24188
1.23135
1.22136
1.21059
1.19941
1.18867
1.18053
1.17166
1.16116
1.15304
1.14425
1.13321
1.12187
1.11084
1.10108
1.09132
1.0815
1.07229
1.06129
1.04928
1.03636
1.02011
1.00364
0.989751
0.977308
0.966517
0.957642
0.949249
0.942814
0.93717
0.929552
0.921435
0.911946
0.899549
0.887652
0.87739
0.867761
0.859342
0.853304
0.848436
0.840187
0.830676
0.822589
0.812429
0.800297
0.787755
0.773261
0.758089
0.745872
0.735081
0.722258
0.709401
0.697696
0.686363
0.676377
0.667351
0.657524
0.645436
0.63223
0.620338
0.609154
0.598567
0.590855
0.584849
0.575623
0.563239
0.550426
0.53597
0.520963
0.506771
0.492888
0.480465
0.469866
0.460548
0.45211
0.445039
0.438145
0.430071
0.422649
0.41386
0.402331
0.391849
0.38181
0.372055
0.362936
0.352257
0.340503
0.328452
0.317643
0.308903
0.301796
0.295883
0.290365
0.283848
0.274286
0.263576
0.254468
0.244985
0.234819
0.225777
0.215554