/*--------------------------------*- C++ -*----------------------------------*\
| =========                 |                                                 |
| \\      /  F ield         | OpenFOAM: The Open Source CFD Toolbox           |
|  \\    /   O peration     | Version:  2406                                  |
|   \\  /    A nd           | Website:  www.openfoam.com                      |
|    \\/     M anipulation  |                                                 |
\*---------------------------------------------------------------------------*/
FoamFile
{
    version     2.0;
    format      ascii;
    arch        "LSB;label=32;scalar=64";
    class       surfaceScalarField;
    location    "1.65";
    object      phi;
}
// * * * * * * * * * * * * * * * * * * * * * * * * * * * * * * * * * * * * * //

dimensions      [0 3 -1 0 0 0 0];

oriented        oriented;

internalField   nonuniform List<scalar> 
12225
(
0.511047
1.68458e-06
0.511041
6.01266e-06
0.511034
7.09724e-06
0.511029
5.11327e-06
0.511025
4.50571e-06
0.51102
5.18175e-06
0.511014
5.53805e-06
0.511009
5.4176e-06
0.511003
5.48418e-06
0.510998
5.57387e-06
0.510992
5.3705e-06
0.510987
5.29316e-06
0.510981
5.38827e-06
0.510976
5.51371e-06
0.510971
5.38994e-06
0.510965
5.16125e-06
0.51096
5.28819e-06
0.510955
5.33175e-06
0.51095
5.20252e-06
0.510944
5.26558e-06
0.510939
4.94812e-06
0.510935
4.60806e-06
0.51093
5.00098e-06
0.510925
5.15854e-06
0.51092
4.94738e-06
0.510914
5.17045e-06
0.510909
5.65537e-06
0.510903
6.11183e-06
0.510896
6.28099e-06
0.51089
6.12135e-06
0.510884
6.00986e-06
0.510878
6.03515e-06
0.510872
6.07352e-06
0.510866
5.95518e-06
0.510861
5.54327e-06
0.510856
4.94675e-06
0.510851
4.40743e-06
0.510847
4.28914e-06
0.510842
4.79688e-06
0.510837
5.63275e-06
0.51083
6.15528e-06
0.510824
6.07474e-06
0.510819
5.85739e-06
0.510813
5.79508e-06
0.510807
5.82673e-06
0.510801
5.77026e-06
0.510796
5.42728e-06
0.510791
5.23673e-06
0.510785
5.43236e-06
0.51078
5.26958e-06
0.510775
4.97814e-06
0.510769
5.3675e-06
0.510764
5.62127e-06
0.510759
5.31834e-06
0.510753
5.23244e-06
0.510748
5.48143e-06
0.510742
5.77583e-06
0.510736
5.78602e-06
0.510731
5.53229e-06
0.510725
5.39217e-06
0.51072
5.38014e-06
0.510715
5.40293e-06
0.510709
5.33995e-06
0.510704
5.23721e-06
0.510699
5.32599e-06
0.510693
5.41053e-06
0.510688
5.46877e-06
0.510682
5.67993e-06
0.510676
5.5862e-06
0.510671
5.16408e-06
0.510666
5.10934e-06
0.510661
5.35647e-06
0.510655
5.48751e-06
0.51065
5.53026e-06
0.510644
5.53739e-06
0.510639
5.53559e-06
0.510633
5.51229e-06
0.510628
5.41454e-06
0.510622
5.46755e-06
0.510617
5.76141e-06
0.510611
5.97998e-06
0.510605
6.00877e-06
0.510599
5.80707e-06
0.510593
5.3815e-06
0.510588
5.1256e-06
0.510583
5.27791e-06
0.510577
5.68391e-06
0.510571
5.92335e-06
0.510566
5.77746e-06
0.51056
5.59265e-06
0.510555
5.40775e-06
0.510549
5.23302e-06
0.510544
5.31136e-06
0.510539
5.49576e-06
0.510533
5.68595e-06
0.510527
5.74517e-06
0.510522
5.48575e-06
0.510516
5.20193e-06
0.510511
5.14839e-06
0.510506
5.18055e-06
0.510501
5.17994e-06
0.510496
5.29273e-06
0.51049
5.47729e-06
0.510485
5.42588e-06
0.51048
5.1874e-06
0.510475
5.05242e-06
0.510469
5.15741e-06
0.510464
5.45511e-06
0.510458
5.73042e-06
0.510452
5.71459e-06
0.510447
5.45602e-06
0.510442
5.257e-06
0.510437
5.2186e-06
0.510431
5.28522e-06
0.510426
5.42569e-06
0.51042
5.41191e-06
0.510415
5.26213e-06
0.51041
5.32779e-06
0.510404
5.60651e-06
0.510398
5.80967e-06
0.510393
5.77399e-06
0.510387
5.61318e-06
0.510381
5.53356e-06
0.510376
5.4728e-06
0.510371
5.44024e-06
0.510365
5.57016e-06
0.510359
5.70426e-06
0.510353
5.82502e-06
0.510348
5.94803e-06
0.510342
5.83794e-06
0.510336
5.64453e-06
0.51033
5.62019e-06
0.510325
5.56202e-06
0.510319
5.43374e-06
0.510314
5.39716e-06
0.510309
5.3446e-06
0.510303
5.271e-06
0.510298
5.29347e-06
0.510293
5.3333e-06
0.510287
5.29891e-06
0.510282
5.26107e-06
0.510277
5.47985e-06
0.510271
5.90943e-06
0.510265
6.03578e-06
0.510259
5.79235e-06
0.510254
5.4883e-06
0.510248
5.20824e-06
0.510243
5.06143e-06
0.510238
5.12193e-06
0.510233
5.28775e-06
0.510227
5.45255e-06
0.510222
5.44029e-06
0.510217
5.21235e-06
0.510212
5.00757e-06
0.510207
5.02644e-06
0.510201
5.29105e-06
0.510196
5.58881e-06
0.51019
5.70331e-06
0.510184
5.69124e-06
0.510179
5.54569e-06
0.510174
5.26126e-06
0.510168
5.1334e-06
0.510163
5.25091e-06
0.510158
5.33547e-06
0.510153
5.36319e-06
0.510147
5.43603e-06
0.510142
5.56364e-06
0.510136
5.7642e-06
0.51013
5.88024e-06
0.510124
5.81392e-06
0.510118
5.72551e-06
0.510113
5.63096e-06
0.510107
5.42686e-06
0.510102
5.20512e-06
0.510097
5.19944e-06
0.510091
5.42909e-06
0.510086
5.6284e-06
0.51008
5.65728e-06
0.510075
5.56953e-06
0.510069
5.50141e-06
0.510064
5.59482e-06
0.510058
5.76204e-06
0.510052
5.7784e-06
0.510046
5.57596e-06
0.510041
5.35976e-06
0.510036
5.27255e-06
0.510031
5.22064e-06
0.510025
5.24114e-06
0.51002
5.35146e-06
0.510015
5.36901e-06
0.510009
5.33493e-06
0.510004
5.38682e-06
0.509998
5.41349e-06
0.509993
5.30104e-06
0.509988
5.13085e-06
0.509983
4.99834e-06
0.509978
4.93515e-06
0.509973
4.98269e-06
0.509968
5.12753e-06
0.509963
5.2929e-06
0.509957
5.44043e-06
0.509952
5.53505e-06
0.509946
5.49836e-06
0.509941
5.32099e-06
0.509936
5.22722e-06
0.50993
5.43444e-06
0.509924
5.7496e-06
0.509919
5.8834e-06
0.509913
5.741e-06
0.509907
5.39096e-06
0.509902
5.12163e-06
0.509897
5.09581e-06
0.509892
5.11144e-06
0.509887
5.12006e-06
0.509882
5.27122e-06
0.509876
5.46438e-06
0.509871
5.55569e-06
0.509865
5.55831e-06
0.50986
5.47869e-06
0.509854
5.33375e-06
0.509849
5.17128e-06
0.509844
5.02028e-06
0.509839
4.97057e-06
0.509834
5.06414e-06
0.509829
5.27551e-06
0.509823
5.60195e-06
0.509817
5.77804e-06
0.509812
5.60479e-06
0.509807
5.3683e-06
0.509801
5.30749e-06
0.509796
5.4568e-06
0.50979
5.66439e-06
0.509784
5.58136e-06
0.509779
5.30043e-06
0.509774
5.1991e-06
0.509769
5.2792e-06
0.509763
5.35737e-06
0.509758
5.37825e-06
0.509753
5.41427e-06
0.509747
5.51703e-06
0.509741
5.6651e-06
0.509736
5.81253e-06
0.50973
5.84333e-06
0.509724
5.6725e-06
0.509719
5.46424e-06
0.509713
5.40648e-06
0.509708
5.49863e-06
0.509702
5.61794e-06
0.509696
6.02088e-06
5.32635e-06
0.511053
-1.34608e-09
0.511058
3.28986e-07
0.511064
1.23755e-06
0.511067
2.19916e-06
0.511069
2.52534e-06
0.511072
2.40042e-06
0.511075
2.30567e-06
0.511078
2.65838e-06
0.51108
2.88984e-06
0.511083
2.60052e-06
0.511086
2.32553e-06
0.511089
2.29327e-06
0.511092
2.37012e-06
0.511096
2.15377e-06
0.511099
1.82988e-06
0.511103
1.90074e-06
0.511106
2.26908e-06
0.511109
2.40302e-06
0.511111
2.31356e-06
0.511114
2.77e-06
0.511115
3.61018e-06
0.511117
3.42254e-06
0.511119
2.38353e-06
0.511122
2.06928e-06
0.511125
2.41548e-06
0.511127
2.48486e-06
0.511131
2.50138e-06
0.511134
2.47062e-06
0.511138
2.12568e-06
0.511142
2.14865e-06
0.511146
2.55931e-06
0.511149
2.72742e-06
0.511152
2.74807e-06
0.511156
2.82606e-06
0.511158
2.71663e-06
0.511161
2.51126e-06
0.511163
2.24937e-06
0.511165
1.81014e-06
0.511168
1.85349e-06
0.511172
2.41712e-06
0.511175
2.6211e-06
0.511179
2.38537e-06
0.511183
2.11313e-06
0.511186
2.06028e-06
0.51119
2.13725e-06
0.511194
2.23583e-06
0.511196
2.7847e-06
0.511198
3.24698e-06
0.511201
2.70936e-06
0.511204
2.21361e-06
0.511207
2.42851e-06
0.511209
2.50895e-06
0.511213
2.3173e-06
0.511216
2.3541e-06
0.511218
2.68739e-06
0.511221
2.83353e-06
0.511224
2.52403e-06
0.511228
2.25754e-06
0.511231
2.42312e-06
0.511233
2.81656e-06
0.511236
3.00054e-06
0.511238
2.7895e-06
0.511241
2.48879e-06
0.511244
2.32276e-06
0.511247
2.09775e-06
0.511251
2.02156e-06
0.511254
2.47601e-06
0.511257
2.85664e-06
0.511259
2.70703e-06
0.511262
2.5107e-06
0.511265
2.48879e-06
0.511268
2.44927e-06
0.511271
2.38725e-06
0.511274
2.5289e-06
0.511276
2.96965e-06
0.511278
3.2813e-06
0.511281
3.06483e-06
0.511284
2.51435e-06
0.511287
2.0094e-06
0.511291
1.86699e-06
0.511295
2.07282e-06
0.511299
2.36812e-06
0.511302
2.6696e-06
0.511305
2.72426e-06
0.511307
2.51934e-06
0.51131
2.54382e-06
0.511313
2.74837e-06
0.511316
2.77705e-06
0.511319
2.70436e-06
0.511322
2.6767e-06
0.511325
2.67282e-06
0.511327
2.61054e-06
0.51133
2.43569e-06
0.511333
2.32503e-06
0.511337
2.5073e-06
0.511339
2.80712e-06
0.511342
3.04702e-06
0.511344
3.17313e-06
0.511346
2.97903e-06
0.511349
2.6111e-06
0.511352
2.28714e-06
0.511355
2.05938e-06
0.511358
2.18484e-06
0.511361
2.47501e-06
0.511364
2.48747e-06
0.511366
2.36865e-06
0.511369
2.26382e-06
0.511373
2.18149e-06
0.511376
2.32494e-06
0.511379
2.60628e-06
0.511382
2.76295e-06
0.511384
2.68623e-06
0.511387
2.38925e-06
0.51139
2.24823e-06
0.511393
2.35998e-06
0.511396
2.49658e-06
0.511399
2.63527e-06
0.511402
2.56588e-06
0.511405
2.30403e-06
0.511408
2.26393e-06
0.511412
2.41554e-06
0.511415
2.49471e-06
0.511418
2.53639e-06
0.511421
2.64406e-06
0.511423
2.74478e-06
0.511426
2.7017e-06
0.511429
2.51828e-06
0.511433
2.36394e-06
0.511437
2.36002e-06
0.51144
2.38706e-06
0.511443
2.4078e-06
0.511446
2.49289e-06
0.511449
2.56718e-06
0.511452
2.52333e-06
0.511455
2.41472e-06
0.511458
2.39133e-06
0.511461
2.46509e-06
0.511464
2.49635e-06
0.511467
2.43651e-06
0.51147
2.35836e-06
0.511473
2.23666e-06
0.511476
2.06434e-06
0.51148
2.06105e-06
0.511484
2.26238e-06
0.511487
2.44089e-06
0.51149
2.56374e-06
0.511493
2.61334e-06
0.511495
2.52341e-06
0.511498
2.41182e-06
0.511501
2.22984e-06
0.511504
1.95808e-06
0.511508
1.93068e-06
0.511511
2.17364e-06
0.511513
2.47411e-06
0.511516
2.76773e-06
0.511518
2.85512e-06
0.511521
2.70369e-06
0.511524
2.55761e-06
0.511527
2.55909e-06
0.51153
2.72024e-06
0.511533
2.86096e-06
0.511535
2.72643e-06
0.511538
2.51507e-06
0.511541
2.50157e-06
0.511543
2.62789e-06
0.511546
2.7906e-06
0.511549
2.86329e-06
0.511552
2.76493e-06
0.511555
2.65246e-06
0.511558
2.64837e-06
0.511561
2.70522e-06
0.511564
2.74057e-06
0.511567
2.63646e-06
0.511569
2.40712e-06
0.511572
2.28209e-06
0.511575
2.36082e-06
0.511579
2.47502e-06
0.511582
2.57918e-06
0.511585
2.68067e-06
0.511587
2.63858e-06
0.511591
2.49928e-06
0.511594
2.44905e-06
0.511597
2.49213e-06
0.5116
2.50915e-06
0.511603
2.50022e-06
0.511606
2.54425e-06
0.511609
2.50255e-06
0.511611
2.35264e-06
0.511614
2.35601e-06
0.511617
2.38588e-06
0.511621
2.22301e-06
0.511624
2.15799e-06
0.511627
2.40337e-06
0.511629
2.71159e-06
0.511632
2.81915e-06
0.511634
2.73514e-06
0.511636
2.62697e-06
0.511639
2.58962e-06
0.511641
2.59519e-06
0.511644
2.60014e-06
0.511647
2.63803e-06
0.511649
2.78407e-06
0.511652
2.93544e-06
0.511654
2.81222e-06
0.511657
2.45431e-06
0.51166
2.19983e-06
0.511664
2.12235e-06
0.511668
2.2059e-06
0.511671
2.5182e-06
0.511674
2.84634e-06
0.511676
2.99068e-06
0.511678
2.99605e-06
0.51168
2.88132e-06
0.511683
2.60323e-06
0.511685
2.39457e-06
0.511688
2.47272e-06
0.511691
2.64071e-06
0.511694
2.69806e-06
0.511697
2.67122e-06
0.5117
2.5513e-06
0.511703
2.41613e-06
0.511705
2.37765e-06
0.511708
2.42233e-06
0.51171
2.51507e-06
0.511713
2.61433e-06
0.511716
2.66761e-06
0.511719
2.62887e-06
0.511722
2.49133e-06
0.511725
2.25184e-06
0.511729
1.93725e-06
0.511732
1.83219e-06
0.511736
2.11587e-06
0.511739
2.48075e-06
0.511742
2.63533e-06
0.511744
2.60325e-06
0.511747
2.5693e-06
0.51175
2.56703e-06
0.511753
2.40347e-06
0.511756
2.17736e-06
0.511759
2.09968e-06
0.511763
2.08725e-06
0.511766
2.172e-06
0.51177
2.46977e-06
0.511773
2.77212e-06
0.511775
2.8085e-06
0.511778
2.62519e-06
0.511781
2.48109e-06
0.511784
2.51083e-06
0.511788
2.67292e-06
2.87728e-06
0.511052
1.37526e-07
0.511052
6.97341e-07
0.511051
1.48504e-06
0.511051
2.28313e-06
0.511051
2.28014e-06
0.511052
1.6122e-06
0.511053
1.68298e-06
0.511053
2.25342e-06
0.511054
2.21353e-06
0.511055
1.86081e-06
0.511055
1.86311e-06
0.511055
2.01728e-06
0.511056
1.94463e-06
0.511056
1.87412e-06
0.511056
2.16427e-06
0.511055
2.55941e-06
0.511055
2.4601e-06
0.511055
1.99096e-06
0.511056
2.17273e-06
0.511056
2.61612e-06
0.511057
2.27602e-06
0.511059
1.77103e-06
0.511059
1.82521e-06
0.511059
1.97554e-06
0.51106
2.11267e-06
0.51106
2.44942e-06
0.51106
2.57786e-06
0.51106
2.50624e-06
0.511059
2.46606e-06
0.511059
2.34102e-06
0.511059
2.32614e-06
0.511059
2.75249e-06
0.511059
2.9304e-06
0.51106
2.28074e-06
0.511061
1.76525e-06
0.511061
1.66371e-06
0.511062
1.40539e-06
0.511063
1.5089e-06
0.511062
2.06564e-06
0.511062
2.41202e-06
0.511062
2.54125e-06
0.511062
2.44535e-06
0.511062
2.05468e-06
0.511063
1.74742e-06
0.511063
1.75453e-06
0.511063
2.09934e-06
0.511063
2.53665e-06
0.511064
2.77024e-06
0.511064
2.76448e-06
0.511064
2.59655e-06
0.511064
2.37662e-06
0.511064
2.2572e-06
0.511064
2.17904e-06
0.511064
2.08234e-06
0.511065
2.26102e-06
0.511065
2.46735e-06
0.511065
2.35364e-06
0.511065
2.21921e-06
0.511066
2.06906e-06
0.511066
1.92159e-06
0.511067
2.05351e-06
0.511068
2.39403e-06
0.511068
2.56244e-06
0.511068
2.3219e-06
0.511068
2.08443e-06
0.511068
2.2662e-06
0.511067
2.58929e-06
0.511068
2.70291e-06
0.511068
2.46666e-06
0.511068
1.89943e-06
0.511069
1.49661e-06
0.51107
1.66177e-06
0.51107
2.1868e-06
0.51107
2.68654e-06
0.51107
2.76738e-06
0.511071
2.49893e-06
0.511072
2.41993e-06
0.511072
2.52143e-06
0.511071
2.54051e-06
0.511071
2.53022e-06
0.51107
2.41629e-06
0.511071
2.17605e-06
0.511071
2.00162e-06
0.511072
1.91756e-06
0.511073
1.99796e-06
0.511073
2.17695e-06
0.511073
2.19422e-06
0.511074
2.24004e-06
0.511074
2.36189e-06
0.511075
2.46258e-06
0.511075
2.66954e-06
0.511074
2.71349e-06
0.511074
2.5745e-06
0.511074
2.5302e-06
0.511074
2.51143e-06
0.511074
2.64515e-06
0.511074
2.89865e-06
0.511075
2.88423e-06
0.511075
2.66626e-06
0.511075
2.53309e-06
0.511075
2.39895e-06
0.511075
2.17759e-06
0.511075
2.03839e-06
0.511075
1.99889e-06
0.511076
1.91581e-06
0.511077
1.71019e-06
0.511077
1.52263e-06
0.511078
1.62483e-06
0.511078
2.0169e-06
0.511078
2.46562e-06
0.511078
2.74834e-06
0.511078
2.75575e-06
0.511078
2.52095e-06
0.511078
2.14792e-06
0.511079
1.85804e-06
0.51108
1.84489e-06
0.51108
2.02115e-06
0.51108
2.20614e-06
0.511081
2.28191e-06
0.511081
2.17295e-06
0.511081
1.98311e-06
0.511082
1.86819e-06
0.511082
1.86997e-06
0.511083
2.00723e-06
0.511084
2.16648e-06
0.511084
2.30009e-06
0.511084
2.47734e-06
0.511084
2.52679e-06
0.511084
2.4301e-06
0.511084
2.40549e-06
0.511084
2.42388e-06
0.511084
2.45336e-06
0.511084
2.55573e-06
0.511084
2.53083e-06
0.511084
2.29719e-06
0.511084
2.12017e-06
0.511085
2.0691e-06
0.511085
1.9551e-06
0.511086
1.74535e-06
0.511086
1.72468e-06
0.511087
2.03311e-06
0.511086
2.28428e-06
0.511086
2.24814e-06
0.511086
2.07275e-06
0.511087
1.84826e-06
0.511088
1.79678e-06
0.511088
2.06097e-06
0.511088
2.34542e-06
0.511089
2.36164e-06
0.511089
2.09835e-06
0.511089
1.79529e-06
0.511089
1.73002e-06
0.511089
1.88757e-06
0.51109
2.14597e-06
0.51109
2.44504e-06
0.51109
2.72344e-06
0.51109
2.93832e-06
0.511089
2.94184e-06
0.511089
2.73659e-06
0.511089
2.60536e-06
0.51109
2.61768e-06
0.51109
2.516e-06
0.51109
2.25592e-06
0.511091
2.06633e-06
0.511091
2.15771e-06
0.511091
2.5288e-06
0.511091
2.89514e-06
0.511091
2.96692e-06
0.511091
2.73862e-06
0.511091
2.38703e-06
0.511092
2.12552e-06
0.511092
2.06499e-06
0.511093
2.07068e-06
0.511094
1.9535e-06
0.511094
1.81686e-06
0.511094
1.9678e-06
0.511095
2.30122e-06
0.511095
2.51809e-06
0.511095
2.67992e-06
0.511095
2.72294e-06
0.511095
2.45388e-06
0.511095
2.10117e-06
0.511096
1.89243e-06
0.511096
1.73388e-06
0.511097
1.60718e-06
0.511098
1.63055e-06
0.511099
1.76323e-06
0.511099
1.84522e-06
0.5111
1.90091e-06
0.5111
2.03597e-06
0.5111
2.16288e-06
0.5111
2.19953e-06
0.5111
2.22926e-06
0.511101
2.25341e-06
0.511101
2.23426e-06
0.511102
2.29299e-06
0.511102
2.47152e-06
0.511102
2.63758e-06
0.511102
2.7366e-06
0.511102
2.73077e-06
0.511102
2.54557e-06
0.511102
2.31825e-06
0.511103
2.24664e-06
0.511103
2.2449e-06
0.511104
2.23916e-06
0.511104
2.30936e-06
0.511103
2.39023e-06
0.511103
2.40097e-06
0.511103
2.4362e-06
0.511104
2.54099e-06
0.511104
2.58448e-06
0.511104
2.53156e-06
0.511105
2.48912e-06
0.511105
2.42468e-06
0.511105
2.33047e-06
0.511105
2.31733e-06
0.511105
2.31561e-06
0.511106
2.21383e-06
0.511107
2.1028e-06
0.511107
2.07785e-06
0.511107
2.13479e-06
0.511107
2.20383e-06
0.511108
2.24555e-06
0.511108
2.30736e-06
0.511108
2.31807e-06
0.511109
2.21032e-06
0.511109
2.1147e-06
0.51111
2.08653e-06
0.51111
2.12436e-06
0.511109
2.09402e-06
0.51111
1.79902e-06
0.51111
1.547e-06
0.511111
1.62072e-06
0.511112
1.75598e-06
0.511113
1.8328e-06
0.511113
2.03745e-06
0.511113
2.41726e-06
0.511113
2.69504e-06
0.511112
2.68241e-06
0.511112
2.58285e-06
0.511112
2.52235e-06
0.511111
2.44593e-06
0.511111
2.39193e-06
0.511112
2.42357e-06
0.511112
2.49146e-06
0.511112
2.5613e-06
0.511112
2.59544e-06
0.511112
2.61504e-06
0.511112
2.6912e-06
2.68534e-06
0.511052
1.89892e-08
0.511052
5.47093e-07
0.511053
1.26713e-06
0.511053
1.65622e-06
0.511054
1.55491e-06
0.511054
1.55006e-06
0.511054
1.81028e-06
0.511054
2.00435e-06
0.511055
1.83167e-06
0.511055
1.63937e-06
0.511055
1.58369e-06
0.511055
1.60424e-06
0.511056
1.73048e-06
0.511056
1.97017e-06
0.511056
2.02653e-06
0.511057
1.68991e-06
0.511057
1.68091e-06
0.511057
2.27741e-06
0.511057
2.39313e-06
0.511058
1.98398e-06
0.511058
1.94448e-06
0.511058
2.01485e-06
0.511057
1.95996e-06
0.511057
2.01848e-06
0.511058
1.99288e-06
0.511058
2.05652e-06
0.511058
2.26484e-06
0.511059
2.09986e-06
0.511059
1.77167e-06
0.51106
1.90929e-06
0.51106
2.5057e-06
0.51106
2.65344e-06
0.51106
2.27791e-06
0.511061
2.13919e-06
0.51106
2.00127e-06
0.51106
1.61329e-06
0.51106
1.41904e-06
0.51106
1.45906e-06
0.511061
1.59871e-06
0.511062
1.64075e-06
0.511063
1.43979e-06
0.511064
1.38052e-06
0.511064
1.53245e-06
0.511064
1.57416e-06
0.511065
1.70663e-06
0.511065
2.03316e-06
0.511065
2.21989e-06
0.511065
2.31567e-06
0.511066
2.42714e-06
0.511066
2.52646e-06
0.511066
2.52288e-06
0.511066
2.17874e-06
0.511066
2.06234e-06
0.511065
2.45214e-06
0.511065
2.43854e-06
0.511066
1.95099e-06
0.511066
1.87945e-06
0.511066
2.16838e-06
0.511066
2.22907e-06
0.511066
2.17893e-06
0.511066
2.0454e-06
0.511067
1.75763e-06
0.511067
1.65979e-06
0.511068
1.81671e-06
0.511068
2.12319e-06
0.511068
2.51514e-06
0.511068
2.70669e-06
0.511068
2.48862e-06
0.511068
2.05878e-06
0.511068
1.80133e-06
0.511068
1.72205e-06
0.511068
1.7484e-06
0.511068
2.01004e-06
0.511069
2.2921e-06
0.511069
2.26241e-06
0.511069
2.07508e-06
0.51107
2.00374e-06
0.51107
2.09323e-06
0.511071
2.24209e-06
0.511071
2.32733e-06
0.511071
2.26854e-06
0.511071
1.96507e-06
0.511071
1.6736e-06
0.511072
1.77219e-06
0.511072
1.96943e-06
0.511072
1.94351e-06
0.511072
1.87826e-06
0.511072
1.97709e-06
0.511073
2.2424e-06
0.511073
2.44082e-06
0.511073
2.30579e-06
0.511074
2.08283e-06
0.511074
2.20464e-06
0.511074
2.48911e-06
0.511074
2.62665e-06
0.511074
2.61743e-06
0.511074
2.4565e-06
0.511075
2.34069e-06
0.511075
2.2239e-06
0.511076
1.98871e-06
0.511076
2.05613e-06
0.511076
2.22516e-06
0.511076
1.98212e-06
0.511077
1.71507e-06
0.511077
1.68542e-06
0.511077
1.63988e-06
0.511077
1.59551e-06
0.511077
1.61396e-06
0.511077
1.73455e-06
0.511077
2.02356e-06
0.511078
2.28151e-06
0.511078
2.34956e-06
0.511079
2.27388e-06
0.511079
2.12559e-06
0.511078
2.01865e-06
0.511078
1.94467e-06
0.511079
1.88605e-06
0.511079
1.84857e-06
0.511079
1.73052e-06
0.51108
1.71114e-06
0.51108
1.9288e-06
0.51108
2.00426e-06
0.51108
1.8463e-06
0.51108
1.80001e-06
0.51108
1.83408e-06
0.511081
1.81865e-06
0.511081
1.85709e-06
0.511082
1.90425e-06
0.511083
1.95356e-06
0.511083
2.07335e-06
0.511083
2.13587e-06
0.511084
2.11551e-06
0.511084
2.15059e-06
0.511084
2.23043e-06
0.511084
2.19771e-06
0.511084
2.00705e-06
0.511085
1.78417e-06
0.511085
1.6121e-06
0.511085
1.42685e-06
0.511086
1.32511e-06
0.511086
1.52517e-06
0.511087
1.78534e-06
0.511087
1.82251e-06
0.511087
1.86769e-06
0.511087
1.99264e-06
0.511087
2.03795e-06
0.511087
2.06133e-06
0.511087
2.00073e-06
0.511088
1.77017e-06
0.511088
1.58992e-06
0.511089
1.54218e-06
0.511089
1.58328e-06
0.511089
1.82868e-06
0.511089
2.18592e-06
0.511089
2.38784e-06
0.511089
2.43137e-06
0.51109
2.46113e-06
0.51109
2.50276e-06
0.51109
2.50038e-06
0.511091
2.40634e-06
0.511091
2.27692e-06
0.511091
2.14004e-06
0.511092
1.99558e-06
0.511092
1.99253e-06
0.511092
2.17938e-06
0.511092
2.36077e-06
0.511092
2.46146e-06
0.511093
2.54166e-06
0.511093
2.57206e-06
0.511093
2.49126e-06
0.511093
2.28046e-06
0.511093
1.97122e-06
0.511093
1.72394e-06
0.511093
1.68346e-06
0.511093
1.71602e-06
0.511094
1.77491e-06
0.511094
2.00652e-06
0.511094
2.31053e-06
0.511094
2.54662e-06
0.511094
2.65086e-06
0.511094
2.48092e-06
0.511094
2.10334e-06
0.511094
1.78567e-06
0.511094
1.60356e-06
0.511095
1.41633e-06
0.511095
1.27609e-06
0.511095
1.39234e-06
0.511096
1.61221e-06
0.511096
1.71387e-06
0.511096
1.84328e-06
0.511096
2.04021e-06
0.511096
2.13872e-06
0.511096
2.15434e-06
0.511096
2.1618e-06
0.511096
2.11954e-06
0.511097
2.02507e-06
0.511097
1.99951e-06
0.511098
2.10652e-06
0.511098
2.28579e-06
0.511098
2.47922e-06
0.511098
2.55207e-06
0.511098
2.33606e-06
0.511099
2.0175e-06
0.511099
1.86269e-06
0.511099
1.80373e-06
0.5111
1.8239e-06
0.5111
1.9714e-06
0.511101
2.12156e-06
0.511101
2.258e-06
0.511101
2.43182e-06
0.511101
2.49943e-06
0.511101
2.40183e-06
0.511101
2.3012e-06
0.511102
2.26328e-06
0.511102
2.206e-06
0.511102
2.132e-06
0.511102
2.08148e-06
0.511102
2.01923e-06
0.511102
1.94438e-06
0.511103
1.91678e-06
0.511103
1.9896e-06
0.511103
2.12552e-06
0.511103
2.22409e-06
0.511103
2.2666e-06
0.511103
2.19489e-06
0.511103
1.93726e-06
0.511104
1.63011e-06
0.511104
1.451e-06
0.511105
1.51444e-06
0.511105
1.72907e-06
0.511105
1.76626e-06
0.511105
1.62888e-06
0.511105
1.58581e-06
0.511105
1.67524e-06
0.511105
1.77602e-06
0.511106
1.82226e-06
0.511106
1.96683e-06
0.511107
2.20832e-06
0.511107
2.28113e-06
0.511107
2.26318e-06
0.511108
2.2864e-06
0.511108
2.23581e-06
0.511108
2.08602e-06
0.511109
1.92403e-06
0.511109
1.91286e-06
0.51111
2.13178e-06
0.51111
2.38293e-06
0.51111
2.42119e-06
0.51111
2.40565e-06
2.25701e-06
0.511052
9.88961e-08
0.511052
7.61722e-07
0.511052
1.15193e-06
0.511052
1.17681e-06
0.511053
1.17218e-06
0.511053
1.20657e-06
0.511053
1.2651e-06
0.511054
1.35886e-06
0.511054
1.63006e-06
0.511054
1.70372e-06
0.511054
1.69345e-06
0.511054
1.5822e-06
0.511054
1.41352e-06
0.511055
1.53094e-06
0.511055
1.63533e-06
0.511055
1.62162e-06
0.511055
1.59759e-06
0.511056
1.50089e-06
0.511057
1.72187e-06
0.511057
1.9918e-06
0.511057
1.93765e-06
0.511057
1.81802e-06
0.511057
1.85427e-06
0.511057
2.01875e-06
0.511057
2.11588e-06
0.511057
2.04758e-06
0.511058
1.81081e-06
0.511058
1.76289e-06
0.511058
1.81728e-06
0.511058
1.59081e-06
0.511059
1.54751e-06
0.51106
1.87541e-06
0.51106
2.23129e-06
0.51106
2.35085e-06
0.51106
1.90115e-06
0.51106
1.14864e-06
0.511061
9.60514e-07
0.511061
1.39104e-06
0.511061
1.70519e-06
0.511061
1.52308e-06
0.511061
1.10368e-06
0.511062
8.55479e-07
0.511062
1.04175e-06
0.511062
1.67399e-06
0.511062
2.22624e-06
0.511061
2.13994e-06
0.511062
1.71005e-06
0.511063
1.68868e-06
0.511063
2.05071e-06
0.511063
2.23715e-06
0.511064
2.1265e-06
0.511064
1.94081e-06
0.511064
1.92236e-06
0.511065
1.8659e-06
0.511065
1.68003e-06
0.511066
1.79439e-06
0.511065
2.08844e-06
0.511065
2.25694e-06
0.511065
2.28827e-06
0.511065
2.15953e-06
0.511065
1.99655e-06
0.511065
1.79058e-06
0.511065
1.46757e-06
0.511066
1.39046e-06
0.511066
1.82137e-06
0.511066
2.23947e-06
0.511067
2.16279e-06
0.511068
1.84861e-06
0.511068
1.56849e-06
0.511069
1.35455e-06
0.511069
1.35639e-06
0.511069
1.67644e-06
0.511069
2.05993e-06
0.511069
2.17168e-06
0.511069
1.99952e-06
0.51107
1.82297e-06
0.51107
1.88538e-06
0.51107
1.99836e-06
0.51107
1.87448e-06
0.511071
1.72923e-06
0.511071
1.79985e-06
0.511071
1.84167e-06
0.511071
1.71405e-06
0.511071
1.62939e-06
0.511072
1.67462e-06
0.511072
1.69846e-06
0.511072
1.62187e-06
0.511072
1.69787e-06
0.511073
1.95021e-06
0.511073
1.97679e-06
0.511074
1.84723e-06
0.511074
1.82089e-06
0.511074
1.94663e-06
0.511074
2.32504e-06
0.511074
2.70519e-06
0.511074
2.73081e-06
0.511074
2.46566e-06
0.511074
2.18475e-06
0.511075
1.98887e-06
0.511075
1.84506e-06
0.511075
1.81539e-06
0.511075
1.80597e-06
0.511076
1.67997e-06
0.511076
1.49391e-06
0.511076
1.27092e-06
0.511077
1.13896e-06
0.511077
1.29546e-06
0.511077
1.64742e-06
0.511077
1.92612e-06
0.511077
1.96015e-06
0.511077
1.84403e-06
0.511078
1.74654e-06
0.511079
1.71958e-06
0.511079
1.72634e-06
0.511079
1.67168e-06
0.51108
1.56732e-06
0.51108
1.57088e-06
0.51108
1.67195e-06
0.51108
1.73067e-06
0.51108
1.64933e-06
0.511081
1.48925e-06
0.511081
1.52894e-06
0.511081
1.7053e-06
0.511081
1.73388e-06
0.511081
1.73685e-06
0.511081
1.82573e-06
0.511081
1.8914e-06
0.511081
1.87081e-06
0.511082
1.73674e-06
0.511082
1.67242e-06
0.511082
1.844e-06
0.511082
1.9701e-06
0.511083
1.91853e-06
0.511083
1.90618e-06
0.511083
1.84921e-06
0.511084
1.63918e-06
0.511084
1.43744e-06
0.511084
1.29847e-06
0.511085
1.22196e-06
0.511085
1.18474e-06
0.511085
1.18461e-06
0.511086
1.2895e-06
0.511086
1.40631e-06
0.511086
1.50961e-06
0.511087
1.66611e-06
0.511087
1.74388e-06
0.511087
1.64347e-06
0.511088
1.42955e-06
0.511089
1.20894e-06
0.511089
1.10569e-06
0.511089
1.2009e-06
0.511089
1.46107e-06
0.51109
1.76984e-06
0.51109
2.05855e-06
0.51109
2.23113e-06
0.51109
2.22344e-06
0.51109
2.2485e-06
0.51109
2.39211e-06
0.51109
2.43787e-06
0.51109
2.36087e-06
0.511091
2.24058e-06
0.511091
2.09328e-06
0.51109
2.06214e-06
0.51109
2.18573e-06
0.51109
2.32272e-06
0.51109
2.43706e-06
0.51109
2.50259e-06
0.51109
2.43437e-06
0.51109
2.27544e-06
0.511091
2.1123e-06
0.511091
1.87125e-06
0.511092
1.51221e-06
0.511092
1.26291e-06
0.511092
1.34477e-06
0.511093
1.55459e-06
0.511093
1.66935e-06
0.511093
1.81383e-06
0.511093
1.89203e-06
0.511094
1.76117e-06
0.511095
1.69554e-06
0.511096
1.71681e-06
0.511096
1.58974e-06
0.511097
1.45181e-06
0.511097
1.39885e-06
0.511097
1.26942e-06
0.511097
1.13109e-06
0.511097
1.16795e-06
0.511098
1.29033e-06
0.511098
1.35233e-06
0.511099
1.45508e-06
0.511099
1.7131e-06
0.511099
1.96448e-06
0.511099
2.02074e-06
0.511099
1.99508e-06
0.511099
2.03098e-06
0.511099
2.07253e-06
0.511099
2.137e-06
0.511099
2.21411e-06
0.511099
2.18442e-06
0.5111
2.17802e-06
0.5111
2.25886e-06
0.5111
2.21014e-06
0.5111
2.0482e-06
0.5111
1.91569e-06
0.5111
1.78302e-06
0.5111
1.72342e-06
0.5111
1.82833e-06
0.5111
1.98811e-06
0.5111
2.09717e-06
0.511101
2.19112e-06
0.511101
2.23857e-06
0.511101
2.08706e-06
0.511102
1.84067e-06
0.511102
1.79083e-06
0.511103
1.85736e-06
0.511103
1.86351e-06
0.511103
1.88776e-06
0.511103
1.89936e-06
0.511103
1.83861e-06
0.511103
1.82072e-06
0.511103
1.85087e-06
0.511104
1.83788e-06
0.511104
1.79748e-06
0.511105
1.7827e-06
0.511105
1.73338e-06
0.511105
1.58253e-06
0.511106
1.38574e-06
0.511106
1.13184e-06
0.511107
9.17912e-07
0.511107
1.02576e-06
0.511108
1.32704e-06
0.511108
1.47871e-06
0.511108
1.52614e-06
0.511108
1.64778e-06
0.511108
1.79423e-06
0.511108
1.76883e-06
0.511108
1.68861e-06
0.511109
1.7873e-06
0.511109
1.88228e-06
0.511109
1.88666e-06
0.51111
1.90298e-06
0.51111
1.82985e-06
0.511111
1.65705e-06
0.511111
1.57199e-06
0.511111
1.62127e-06
0.511112
1.81181e-06
0.511112
2.2054e-06
0.511112
2.4585e-06
0.511112
2.29718e-06
1.93692e-06
0.511052
1.20781e-08
0.511053
3.49956e-07
0.511053
7.08338e-07
0.511053
9.75288e-07
0.511053
1.34797e-06
0.511052
1.73824e-06
0.511052
1.7069e-06
0.511052
1.23735e-06
0.511053
9.74842e-07
0.511053
1.2384e-06
0.511054
1.19862e-06
0.511054
9.79835e-07
0.511055
1.05444e-06
0.511055
1.03697e-06
0.511056
1.2032e-06
0.511056
1.36244e-06
0.511056
1.52067e-06
0.511056
1.69517e-06
0.511056
1.63186e-06
0.511056
1.46932e-06
0.511057
1.23614e-06
0.511058
1.39357e-06
0.511058
1.82841e-06
0.511058
1.87565e-06
0.511058
1.7261e-06
0.511058
1.77388e-06
0.511059
1.65698e-06
0.511059
1.34733e-06
0.511059
1.41834e-06
0.511059
1.86799e-06
0.511059
2.01749e-06
0.511059
1.77663e-06
0.511059
1.55997e-06
0.51106
1.28465e-06
0.511061
1.04226e-06
0.511061
1.00554e-06
0.511061
1.14689e-06
0.511061
1.3177e-06
0.511062
1.21452e-06
0.511062
1.02126e-06
0.511062
1.06088e-06
0.511062
1.19937e-06
0.511062
1.19471e-06
0.511062
1.09738e-06
0.511063
1.16355e-06
0.511064
1.48688e-06
0.511064
1.79176e-06
0.511064
2.04913e-06
0.511064
2.19302e-06
0.511064
1.90854e-06
0.511064
1.54524e-06
0.511065
1.49997e-06
0.511065
1.6057e-06
0.511066
1.57764e-06
0.511066
1.48075e-06
0.511066
1.55766e-06
0.511066
1.70426e-06
0.511067
1.84913e-06
0.511067
1.91803e-06
0.511068
1.7132e-06
0.511068
1.4158e-06
0.511069
1.24961e-06
0.511069
1.57497e-06
0.511068
2.23734e-06
0.511067
2.46852e-06
0.511067
2.15839e-06
0.511068
1.68749e-06
0.511068
1.25692e-06
0.511069
1.1163e-06
0.511069
1.29392e-06
0.511069
1.44922e-06
0.511069
1.44342e-06
0.51107
1.34125e-06
0.511071
1.22982e-06
0.511071
1.34885e-06
0.511071
1.67164e-06
0.511071
1.75943e-06
0.511072
1.67531e-06
0.511072
1.67793e-06
0.511072
1.61855e-06
0.511072
1.54455e-06
0.511073
1.57377e-06
0.511073
1.53656e-06
0.511073
1.49384e-06
0.511073
1.54338e-06
0.511073
1.63179e-06
0.511073
1.79169e-06
0.511073
1.98859e-06
0.511073
2.02089e-06
0.511073
1.81086e-06
0.511073
1.72222e-06
0.511073
1.89324e-06
0.511073
2.04779e-06
0.511073
2.16104e-06
0.511073
2.2198e-06
0.511074
2.20807e-06
0.511074
2.189e-06
0.511074
2.11777e-06
0.511074
2.02303e-06
0.511074
1.8832e-06
0.511074
1.73705e-06
0.511074
1.65852e-06
0.511075
1.4204e-06
0.511075
1.08698e-06
0.511075
9.8075e-07
0.511075
1.07757e-06
0.511075
1.23508e-06
0.511076
1.45092e-06
0.511076
1.64823e-06
0.511076
1.67749e-06
0.511077
1.54131e-06
0.511077
1.35813e-06
0.511077
1.20438e-06
0.511078
1.15384e-06
0.511078
1.28483e-06
0.511079
1.35221e-06
0.511079
1.18434e-06
0.51108
1.08388e-06
0.51108
1.13782e-06
0.511081
1.17564e-06
0.511081
1.20515e-06
0.511081
1.23889e-06
0.511082
1.31306e-06
0.511082
1.53868e-06
0.511082
1.74764e-06
0.511082
1.71601e-06
0.511082
1.64284e-06
0.511082
1.66033e-06
0.511082
1.65662e-06
0.511082
1.70749e-06
0.511082
1.82287e-06
0.511083
1.87958e-06
0.511083
1.86529e-06
0.511083
1.76384e-06
0.511083
1.55207e-06
0.511083
1.24099e-06
0.511084
9.11954e-07
0.511084
8.31962e-07
0.511085
1.02853e-06
0.511085
1.08976e-06
0.511085
9.4107e-07
0.511085
8.95452e-07
0.511086
9.72393e-07
0.511086
1.1307e-06
0.511086
1.33543e-06
0.511087
1.39401e-06
0.511087
1.28436e-06
0.511088
1.10872e-06
0.511088
9.29178e-07
0.511088
8.53075e-07
0.511088
9.38142e-07