/*--------------------------------*- C++ -*----------------------------------*\
| =========                 |                                                 |
| \\      /  F ield         | OpenFOAM: The Open Source CFD Toolbox           |
|  \\    /   O peration     | Version:  2406                                  |
|   \\  /    A nd           | Website:  www.openfoam.com                      |
|    \\/     M anipulation  |                                                 |
\*---------------------------------------------------------------------------*/
FoamFile
{
    version     2.0;
    format      ascii;
    arch        "LSB;label=32;scalar=64";
    class       volVectorField;
    location    "1.65";
    object      U;
}
// * * * * * * * * * * * * * * * * * * * * * * * * * * * * * * * * * * * * * //

dimensions      [0 1 -1 0 0 0 0];

internalField   nonuniform List<vector> 
6250
(
(50.5418 9.73973e-05 0)
(85.4483 0.000504274 0)
(73.2773 0.000766205 0)
(60.6321 0.000756663 0)
(59.888 0.000700937 0)
(63.3471 0.000721886 0)
(64.8564 0.000750509 0)
(64.405 0.000753781 0)
(63.7879 0.000768468 0)
(63.6852 0.000797081 0)
(63.8277 0.000817404 0)
(63.912 0.000822423 0)
(63.9014 0.000817233 0)
(63.8719 0.000831453 0)
(63.8631 0.000848013 0)
(63.8678 0.00085418 0)
(63.8717 0.00086525 0)
(63.871 0.00085833 0)
(63.8692 0.000822796 0)
(63.868 0.000789181 0)
(63.8674 0.000741355 0)
(63.8672 0.000695173 0)
(63.8667 0.000718748 0)
(63.8658 0.000771074 0)
(63.8653 0.000798294 0)
(63.8647 0.00082657 0)
(63.864 0.000870087 0)
(63.8632 0.000921757 0)
(63.8625 0.000958187 0)
(63.8617 0.000966719 0)
(63.8609 0.000969539 0)
(63.8601 0.000985052 0)
(63.8594 0.00101151 0)
(63.8586 0.00102198 0)
(63.8579 0.000980589 0)
(63.8573 0.000891859 0)
(63.8567 0.000799071 0)
(63.8561 0.000753548 0)
(63.8556 0.000785079 0)
(63.8549 0.000877156 0)
(63.8542 0.000965659 0)
(63.8534 0.00101086 0)
(63.8527 0.00103065 0)
(63.852 0.00103021 0)
(63.8512 0.00100664 0)
(63.8505 0.000968973 0)
(63.8498 0.000924638 0)
(63.8492 0.000909385 0)
(63.8485 0.000935675 0)
(63.8478 0.000938686 0)
(63.8472 0.000905714 0)
(63.8465 0.00089965 0)
(63.8458 0.000908638 0)
(63.8451 0.000895194 0)
(63.8445 0.000879245 0)
(63.8438 0.000887145 0)
(63.8431 0.000922505 0)
(63.8424 0.000951988 0)
(63.8417 0.000951947 0)
(63.841 0.00093556 0)
(63.8403 0.000912758 0)
(63.8397 0.000896359 0)
(63.839 0.000896322 0)
(63.8383 0.000911341 0)
(63.8377 0.00093498 0)
(63.837 0.000942604 0)
(63.8363 0.000928851 0)
(63.8356 0.000913912 0)
(63.8349 0.000890018 0)
(63.8342 0.000858306 0)
(63.8336 0.000851643 0)
(63.8329 0.000873641 0)
(63.8322 0.000904794 0)
(63.8316 0.000932869 0)
(63.8309 0.000950002 0)
(63.8302 0.000958106 0)
(63.8295 0.000962389 0)
(63.8288 0.000968741 0)
(63.8281 0.000988973 0)
(63.8275 0.001017 0)
(63.8267 0.00103002 0)
(63.826 0.00102635 0)
(63.8252 0.00100151 0)
(63.8245 0.000943605 0)
(63.8239 0.000884888 0)
(63.8232 0.000870765 0)
(63.8225 0.000907124 0)
(63.8218 0.000954096 0)
(63.8211 0.000973509 0)
(63.8204 0.000971879 0)
(63.8197 0.000956863 0)
(63.819 0.000933506 0)
(63.8184 0.000925458 0)
(63.8177 0.000940713 0)
(63.817 0.000965604 0)
(63.8163 0.00097485 0)
(63.8155 0.000959585 0)
(63.8149 0.000947063 0)
(63.8142 0.000955501 0)
(63.8136 0.000966894 0)
(63.813 0.000959817 0)
(63.8123 0.000944385 0)
(63.8116 0.000934299 0)
(63.8109 0.000913079 0)
(63.8103 0.000874058 0)
(63.8096 0.000840328 0)
(63.809 0.000834567 0)
(63.8084 0.00087444 0)
(63.8076 0.000950683 0)
(63.8069 0.00100961 0)
(63.8062 0.00101353 0)
(63.8056 0.000981233 0)
(63.8049 0.000947801 0)
(63.8042 0.000934208 0)
(63.8036 0.000935823 0)
(63.8029 0.000927925 0)
(63.8022 0.000907464 0)
(63.8016 0.00090739 0)
(63.8009 0.000948083 0)
(63.8002 0.00100251 0)
(63.7994 0.00102405 0)
(63.7987 0.00100386 0)
(63.798 0.000976314 0)
(63.7974 0.000958679 0)
(63.7967 0.000949478 0)
(63.796 0.0009576 0)
(63.7953 0.000983137 0)
(63.7946 0.00102122 0)
(63.7938 0.00105956 0)
(63.7931 0.00107142 0)
(63.7924 0.00106168 0)
(63.7917 0.00105265 0)
(63.7909 0.0010382 0)
(63.7903 0.00101418 0)
(63.7896 0.000990508 0)
(63.7889 0.000967106 0)
(63.7883 0.000943456 0)
(63.7876 0.000926455 0)
(63.7869 0.000922746 0)
(63.7863 0.000931174 0)
(63.7856 0.000948177 0)
(63.7849 0.000988024 0)
(63.7842 0.00104791 0)
(63.7835 0.00107783 0)
(63.7827 0.00105042 0)
(63.782 0.000993589 0)
(63.7814 0.000941035 0)
(63.7807 0.000915564 0)
(63.7801 0.000922857 0)
(63.7794 0.0009467 0)
(63.7788 0.00097401 0)
(63.7781 0.000992415 0)
(63.7774 0.000984851 0)
(63.7768 0.000956954 0)
(63.7762 0.000933028 0)
(63.7755 0.0009298 0)
(63.7748 0.000948725 0)
(63.7741 0.000978591 0)
(63.7734 0.00100405 0)
(63.7727 0.00100439 0)
(63.772 0.000972194 0)
(63.7714 0.000941781 0)
(63.7707 0.000945155 0)
(63.7701 0.000964854 0)
(63.7694 0.000973888 0)
(63.7687 0.000973348 0)
(63.768 0.000977296 0)
(63.7673 0.000994556 0)
(63.7666 0.00101465 0)
(63.7659 0.00101593 0)
(63.7652 0.000993525 0)
(63.7644 0.000959585 0)
(63.7637 0.000926605 0)
(63.7631 0.000909152 0)
(63.7625 0.000924281 0)
(63.7618 0.000965517 0)
(63.7611 0.00100393 0)
(63.7604 0.00102075 0)
(63.7597 0.00101044 0)
(63.759 0.000983113 0)
(63.7583 0.000962539 0)
(63.7576 0.000957587 0)
(63.7569 0.000956 0)
(63.7561 0.000946879 0)
(63.7555 0.00093935 0)
(63.7548 0.000941855 0)
(63.7541 0.000944643 0)
(63.7535 0.000948333 0)
(63.7528 0.000956373 0)
(63.7521 0.000954608 0)
(63.7515 0.000945279 0)
(63.7508 0.000949127 0)
(63.7501 0.00096183 0)
(63.7495 0.000960991 0)
(63.7488 0.000943841 0)
(63.7482 0.000924874 0)
(63.7476 0.000918448 0)
(63.747 0.000927852 0)
(63.7463 0.00094057 0)
(63.7457 0.000948611 0)
(63.745 0.000954904 0)
(63.7443 0.000958775 0)
(63.7436 0.000957065 0)
(63.7429 0.000952261 0)
(63.7423 0.000962491 0)
(63.7416 0.00100161 0)
(63.7409 0.00105179 0)
(63.7402 0.0010867 0)
(63.7395 0.00108609 0)
(63.7387 0.00103681 0)
(63.7381 0.000965022 0)
(63.7375 0.000914772 0)
(63.7368 0.000891845 0)
(63.7362 0.000883135 0)
(63.7356 0.000889011 0)
(63.7349 0.000904325 0)
(63.7342 0.000920189 0)
(63.7335 0.000938305 0)
(63.7328 0.000952863 0)
(63.7321 0.000951964 0)
(63.7315 0.000933635 0)
(63.7308 0.000903399 0)
(63.7302 0.000875425 0)
(63.7296 0.000865356 0)
(63.7289 0.000883079 0)
(63.7283 0.000928509 0)
(63.7275 0.000974984 0)
(63.7268 0.000995708 0)
(63.7261 0.000997224 0)
(63.7255 0.00099483 0)
(63.7248 0.000999117 0)
(63.7241 0.00100412 0)
(63.7234 0.000983519 0)
(63.7227 0.000947838 0)
(63.7221 0.000940227 0)
(63.7214 0.000967491 0)
(63.7208 0.00100015 0)
(63.7201 0.00101671 0)
(63.7194 0.00102194 0)
(63.7187 0.00102724 0)
(63.718 0.00103586 0)
(63.7173 0.00104767 0)
(63.7166 0.00105404 0)
(63.7159 0.00104115 0)
(63.7152 0.00101436 0)
(63.7145 0.000996939 0)
(63.7138 0.00100857 0)
(63.7131 0.00103716 0)
(63.7125 0.00108835 0)
(63.7114 0.00104796 0)
(50.5419 8.37012e-05 0)
(85.4495 0.000385257 0)
(73.2802 0.000586797 0)
(60.6366 0.000574007 0)
(59.8932 0.000519284 0)
(63.3531 0.000525004 0)
(64.8634 0.000546271 0)
(64.4131 0.000572963 0)
(63.797 0.000589462 0)
(63.6955 0.000567253 0)
(63.839 0.000523534 0)
(63.9243 0.000500729 0)
(63.9148 0.000504266 0)
(63.8863 0.000498939 0)
(63.8786 0.000459209 0)
(63.8845 0.000426752 0)
(63.8893 0.000443764 0)
(63.8898 0.000462934 0)
(63.889 0.000469009 0)
(63.8887 0.000516846 0)
(63.8892 0.000564507 0)
(63.8895 0.000542001 0)
(63.8898 0.000488113 0)
(63.8901 0.000454612 0)
(63.8904 0.00044731 0)
(63.8907 0.00045482 0)
(63.8911 0.000486428 0)
(63.8915 0.000531341 0)
(63.892 0.000531229 0)
(63.8926 0.000502387 0)
(63.893 0.000492388 0)
(63.8934 0.000496799 0)
(63.8939 0.000503103 0)
(63.8943 0.000499459 0)
(63.8946 0.000471048 0)
(63.895 0.000425537 0)
(63.8952 0.000371153 0)
(63.8955 0.000332978 0)
(63.8959 0.000364514 0)
(63.8962 0.000449032 0)
(63.8967 0.000492191 0)
(63.8971 0.000461486 0)
(63.8976 0.000423328 0)
(63.8981 0.000429266 0)
(63.8985 0.000451833 0)
(63.899 0.000449325 0)
(63.8994 0.000444875 0)
(63.8997 0.000452379 0)
(63.8999 0.000428345 0)
(63.9004 0.000383327 0)
(63.9007 0.000383981 0)
(63.9009 0.000432514 0)
(63.9014 0.000450011 0)
(63.9018 0.000427504 0)
(63.9021 0.000437149 0)
(63.9024 0.000470463 0)
(63.9028 0.000476497 0)
(63.9033 0.000454432 0)
(63.9037 0.000438493 0)
(63.904 0.000451431 0)
(63.9043 0.000467187 0)
(63.9046 0.000457234 0)
(63.905 0.000426126 0)
(63.9053 0.00039775 0)
(63.9057 0.000385231 0)
(63.9061 0.000394101 0)
(63.9065 0.000445179 0)
(63.9069 0.000506537 0)
(63.9073 0.000502935 0)
(63.9076 0.000452033 0)
(63.9079 0.000430303 0)
(63.9083 0.000437804 0)
(63.9086 0.000434824 0)
(63.909 0.000427709 0)
(63.9094 0.000439254 0)
(63.9097 0.000454231 0)
(63.9099 0.000437384 0)
(63.9103 0.000389381 0)
(63.9107 0.00035671 0)
(63.9112 0.000374238 0)
(63.9117 0.000416231 0)
(63.9121 0.00044912 0)
(63.9126 0.000465948 0)
(63.9129 0.000452452 0)
(63.9132 0.000427727 0)
(63.9136 0.000438346 0)
(63.9139 0.000478499 0)
(63.9143 0.000498942 0)
(63.9147 0.000480626 0)
(63.915 0.000453396 0)
(63.9155 0.000431975 0)
(63.9157 0.000413296 0)
(63.9161 0.000402984 0)
(63.9165 0.000404725 0)
(63.9168 0.000422901 0)
(63.9173 0.000432487 0)
(63.9176 0.000412745 0)
(63.9179 0.000386908 0)
(63.9181 0.000368414 0)
(63.9184 0.0003545 0)
(63.9188 0.000341606 0)
(63.9191 0.000347988 0)
(63.9196 0.000397561 0)
(63.92 0.00044585 0)
(63.9203 0.00044617 0)
(63.9206 0.000429105 0)
(63.921 0.000423452 0)
(63.9214 0.000429213 0)
(63.9218 0.000444164 0)
(63.9222 0.000441792 0)
(63.9226 0.000413523 0)
(63.9229 0.000382333 0)
(63.9232 0.000359659 0)
(63.9236 0.000364538 0)
(63.924 0.000393833 0)
(63.9244 0.000411637 0)
(63.9247 0.000412821 0)
(63.925 0.000408112 0)
(63.9254 0.000405576 0)
(63.9258 0.000414652 0)
(63.9263 0.000423897 0)
(63.9267 0.00042449 0)
(63.9271 0.000427259 0)
(63.9274 0.000429579 0)
(63.9277 0.000424252 0)
(63.9281 0.000415828 0)
(63.9285 0.000401775 0)
(63.9289 0.000392838 0)
(63.9294 0.000398747 0)
(63.9298 0.000394271 0)
(63.9302 0.000378436 0)
(63.9306 0.000375002 0)
(63.931 0.000373634 0)
(63.9313 0.000364078 0)
(63.9317 0.000359769 0)
(63.9321 0.000368669 0)
(63.9325 0.000385904 0)
(63.9328 0.000397417 0)
(63.9332 0.00039561 0)
(63.9335 0.000383209 0)
(63.9339 0.000360864 0)
(63.9343 0.000350041 0)
(63.9347 0.000376207 0)
(63.9353 0.000411794 0)
(63.9357 0.000423275 0)
(63.9361 0.00042153 0)
(63.9364 0.000412211 0)
(63.9367 0.000392408 0)
(63.9371 0.000373851 0)
(63.9374 0.000353985 0)
(63.9378 0.000332568 0)
(63.9383 0.00032779 0)
(63.9387 0.000336411 0)
(63.939 0.000351364 0)
(63.9393 0.000379567 0)
(63.9396 0.00040438 0)
(63.9399 0.000403472 0)
(63.9403 0.000384973 0)
(63.9407 0.000373348 0)
(63.9411 0.00037662 0)
(63.9414 0.000374668 0)
(63.9417 0.000361063 0)
(63.942 0.000356629 0)
(63.9424 0.000365877 0)
(63.9427 0.000380389 0)
(63.9431 0.000400593 0)
(63.9434 0.000419234 0)
(63.9437 0.000426374 0)
(63.9442 0.000426249 0)
(63.9446 0.000429393 0)
(63.9449 0.000440828 0)
(63.9453 0.000448841 0)
(63.9457 0.00043016 0)
(63.946 0.000388641 0)
(63.9464 0.000367444 0)
(63.9467 0.000383079 0)
(63.9471 0.000403083 0)
(63.9475 0.000411544 0)
(63.9479 0.000413711 0)
(63.9482 0.000411922 0)
(63.9486 0.000418651 0)
(63.949 0.0004386 0)
(63.9495 0.000451184 0)
(63.9498 0.000437453 0)
(63.9502 0.000415377 0)
(63.9506 0.00040964 0)
(63.9509 0.000403856 0)
(63.9512 0.000392094 0)
(63.9516 0.000394117 0)
(63.952 0.000392314 0)
(63.9523 0.000368938 0)
(63.9528 0.000354074 0)
(63.9532 0.000364249 0)
(63.9535 0.000374955 0)
(63.9538 0.000368574 0)
(63.9541 0.000351559 0)
(63.9544 0.000338918 0)
(63.9547 0.000339149 0)
(63.955 0.000344467 0)
(63.9553 0.00034977 0)
(63.9557 0.000365508 0)
(63.956 0.000396177 0)
(63.9563 0.00041873 0)
(63.9566 0.000399492 0)
(63.957 0.00035255 0)
(63.9573 0.000323422 0)
(63.9578 0.000318255 0)
(63.9582 0.00033041 0)
(63.9587 0.000360876 0)
(63.9591 0.000386124 0)
(63.9593 0.000393392 0)
(63.9596 0.000398256 0)
(63.9599 0.000398982 0)
(63.9601 0.000388408 0)
(63.9605 0.000387797 0)
(63.9609 0.000409821 0)
(63.9612 0.000431639 0)
(63.9616 0.000436768 0)
(63.9619 0.000426897 0)
(63.9623 0.000406299 0)
(63.9626 0.000386826 0)
(63.963 0.000377386 0)
(63.9633 0.000378974 0)
(63.9636 0.000390178 0)
(63.9639 0.000409224 0)
(63.9643 0.000432393 0)
(63.9647 0.000436348 0)
(63.9651 0.000406137 0)
(63.9655 0.000363374 0)
(63.9659 0.00033361 0)
(63.9663 0.000344808 0)
(63.9668 0.000397482 0)
(63.9672 0.000431678 0)
(63.9675 0.000416066 0)
(63.9679 0.000383208 0)
(63.9682 0.000362357 0)
(63.9685 0.000349305 0)
(63.9689 0.000326824 0)
(63.9693 0.000308049 0)
(63.9697 0.000313423 0)
(63.9701 0.000331484 0)
(63.9706 0.000354125 0)
(63.971 0.000381497 0)
(63.9714 0.000396079 0)
(63.9717 0.000385222 0)
(63.9721 0.000361234 0)
(63.9725 0.000346253 0)
(63.9728 0.000346552 0)
(63.9732 0.000377368 0)
(63.9737 0.000341935 0)
(50.5419 1.51395e-05 0)
(85.4493 -6.42169e-06 0)
(73.279 3.32939e-06 0)
(60.6347 9.04452e-05 0)
(59.891 0.000142308 0)
(63.3508 0.000107139 0)
(64.8609 8.66402e-05 0)
(64.4102 0.000133634 0)
(63.7938 0.000158717 0)
(63.692 0.000126245 0)
(63.8353 9.67924e-05 0)
(63.9202 0.000102424 0)
(63.9104 0.000111686 0)
(63.8816 8.73647e-05 0)
(63.8735 7.24391e-05 0)
(63.8788 0.000109048 0)
(63.8832 0.000150655 0)
(63.8833 0.000139393 0)
(63.8822 0.000134817 0)
(63.8815 0.000196818 0)
(63.8818 0.000250346 0)
(63.8823 0.000215677 0)
(63.8825 0.000148099 0)
(63.8824 0.00013003 0)
(63.8824 0.000154312 0)
(63.8825 0.00017911 0)
(63.8824 0.000185805 0)
(63.8825 0.000166028 0)
(63.8825 0.000131567 0)
(63.8823 0.000133104 0)
(63.8824 0.000172792 0)
(63.8824 0.000207277 0)
(63.8824 0.000206502 0)
(63.8824 0.000170275 0)
(63.8825 0.00014371 0)
(63.8826 0.000137118 0)
(63.8827 0.000114118 0)
(63.8828 0.000103178 0)
(63.8828 0.000155157 0)
(63.8828 0.000226027 0)
(63.8828 0.000247214 0)
(63.8828 0.00020769 0)
(63.8828 0.000135326 0)
(63.8828 8.66056e-05 0)
(63.8829 9.02228e-05 0)
(63.8829 0.000141037 0)
(63.8829 0.000234265 0)
(63.883 0.000294672 0)
(63.883 0.000250569 0)
(63.8829 0.000183126 0)
(63.8829 0.000171623 0)
(63.8829 0.000179312 0)
(63.883 0.000174073 0)
(63.883 0.000179173 0)
(63.883 0.000222048 0)
(63.8831 0.000250155 0)
(63.8832 0.000217123 0)
(63.8832 0.000174786 0)
(63.8831 0.000169598 0)
(63.8833 0.000200156 0)
(63.8834 0.000235193 0)
(63.8835 0.00024598 0)
(63.8835 0.000232542 0)
(63.8834 0.000192962 0)
(63.8835 0.000138496 0)
(63.8835 0.000120402 0)
(63.8834 0.000162377 0)
(63.8834 0.000207159 0)
(63.8835 0.000203714 0)
(63.8835 0.000173336 0)
(63.8836 0.000160425 0)
(63.8838 0.000175943 0)
(63.8838 0.000207341 0)
(63.8838 0.000256017 0)
(63.8838 0.00030376 0)
(63.8839 0.000313535 0)
(63.884 0.000285781 0)
(63.884 0.0002363 0)
(63.884 0.000183575 0)
(63.8839 0.000161191 0)
(63.8838 0.000164677 0)
(63.8838 0.000169881 0)
(63.8839 0.000182757 0)
(63.884 0.000189337 0)
(63.884 0.000185571 0)
(63.8841 0.000197624 0)
(63.8841 0.00020994 0)
(63.8842 0.000206358 0)
(63.8843 0.000197102 0)
(63.8843 0.000195525 0)
(63.8844 0.000211103 0)
(63.8843 0.00022385 0)
(63.8843 0.000220692 0)
(63.8843 0.000219251 0)
(63.8842 0.000240381 0)
(63.8843 0.000290467 0)
(63.8843 0.00034577 0)
(63.8843 0.000362861 0)
(63.8844 0.000325767 0)
(63.8844 0.000272451 0)
(63.8844 0.000228655 0)
(63.8843 0.000187979 0)
(63.8844 0.00017017 0)
(63.8844 0.000177728 0)
(63.8845 0.000177149 0)
(63.8845 0.000164158 0)
(63.8846 0.00015325 0)
(63.8847 0.000154178 0)
(63.8848 0.000178674 0)
(63.8848 0.000217529 0)
(63.8848 0.000248986 0)
(63.8848 0.000255562 0)
(63.8848 0.000231109 0)
(63.8848 0.000202142 0)
(63.8848 0.000194265 0)
(63.8849 0.000209957 0)
(63.885 0.000240686 0)
(63.8851 0.000252547 0)
(63.8851 0.00023001 0)
(63.885 0.000200399 0)
(63.8851 0.000183391 0)
(63.8852 0.000178783 0)
(63.8852 0.000188914 0)
(63.8854 0.000218268 0)
(63.8854 0.000249177 0)
(63.8855 0.000261356 0)
(63.8855 0.000256305 0)
(63.8855 0.000239464 0)
(63.8855 0.000223263 0)
(63.8855 0.000218551 0)
(63.8855 0.000220929 0)
(63.8855 0.000231429 0)
(63.8855 0.000247349 0)
(63.8855 0.000248316 0)
(63.8855 0.000229762 0)
(63.8855 0.000216976 0)
(63.8856 0.000223167 0)
(63.8856 0.000227921 0)
(63.8857 0.00021573 0)
(63.8858 0.000208766 0)
(63.8858 0.000219051 0)
(63.8858 0.000214576 0)
(63.8858 0.000188406 0)
(63.8858 0.000166454 0)
(63.8858 0.000155742 0)
(63.8859 0.000166348 0)
(63.886 0.000200389 0)
(63.8861 0.00023119 0)
(63.8861 0.000243944 0)
(63.8861 0.00022956 0)
(63.8861 0.000189804 0)
(63.8861 0.000164728 0)
(63.8861 0.000176051 0)
(63.8862 0.000209579 0)
(63.8862 0.000256893 0)
(63.8863 0.000303144 0)
(63.8863 0.000327871 0)
(63.8862 0.0003252 0)
(63.8862 0.000307488 0)
(63.8862 0.00030399 0)
(63.8862 0.000315205 0)
(63.8862 0.000306107 0)
(63.8862 0.000273175 0)
(63.8863 0.00024925 0)
(63.8863 0.000255252 0)
(63.8864 0.000285871 0)
(63.8864 0.00031288 0)
(63.8864 0.000306685 0)
(63.8864 0.000270198 0)
(63.8864 0.000232969 0)
(63.8864 0.000219457 0)
(63.8865 0.000229684 0)
(63.8866 0.000239685 0)
(63.8867 0.00022584 0)
(63.8867 0.000202313 0)
(63.8868 0.000203067 0)
(63.8868 0.000219603 0)
(63.8868 0.000229774 0)
(63.8868 0.00024011 0)
(63.8868 0.000241277 0)
(63.8868 0.000220557 0)
(63.8868 0.000200909 0)
(63.8869 0.000198975 0)
(63.887 0.00019872 0)
(63.8871 0.000191815 0)
(63.8872 0.000191651 0)
(63.8873 0.000192231 0)
(63.8874 0.000182913 0)
(63.8874 0.000184728 0)
(63.8875 0.000203188 0)
(63.8875 0.00021526 0)
(63.8875 0.00022487 0)
(63.8875 0.000252281 0)
(63.8876 0.000284856 0)
(63.8876 0.000298409 0)
(63.8877 0.000298125 0)
(63.8878 0.000299875 0)
(63.8878 0.0003085 0)
(63.8877 0.000321371 0)
(63.8877 0.000324364 0)
(63.8877 0.000308791 0)
(63.8877 0.000295013 0)
(63.8878 0.000297139 0)
(63.8879 0.000294195 0)
(63.888 0.000280161 0)
(63.888 0.000275533 0)
(63.8879 0.000272459 0)
(63.8879 0.000257741 0)
(63.8879 0.000253522 0)
(63.8879 0.000272887 0)
(63.8879 0.000294206 0)
(63.888 0.000301531 0)
(63.8881 0.000296824 0)
(63.8881 0.00027821 0)
(63.8881 0.000257476 0)
(63.8881 0.000257632 0)
(63.8882 0.000263464 0)
(63.8882 0.000249933 0)
(63.8883 0.000225776 0)
(63.8884 0.000205543 0)
(63.8884 0.000197381 0)
(63.8884 0.000204376 0)
(63.8884 0.000221839 0)
(63.8885 0.00024403 0)
(63.8885 0.000257906 0)
(63.8885 0.000254473 0)
(63.8886 0.000239321 0)
(63.8887 0.000219852 0)
(63.8887 0.000200177 0)
(63.8887 0.000171598 0)
(63.8886 0.000136706 0)
(63.8887 0.000134081 0)
(63.8888 0.000174831 0)
(63.8889 0.000217805 0)
(63.889 0.000237379 0)
(63.8891 0.000251896 0)
(63.8892 0.000276619 0)
(63.8892 0.00028605 0)
(63.8891 0.000268827 0)
(63.889 0.000251208 0)
(63.889 0.000240675 0)
(63.8889 0.000236926 0)
(63.8889 0.000250873 0)
(63.889 0.00027721 0)
(63.889 0.000295407 0)
(63.889 0.000298342 0)
(63.889 0.000292585 0)
(63.889 0.000295146 0)
(63.889 0.000313672 0)
(63.889 0.000339848 0)
(50.542 4.5846e-06 0)
(85.4493 7.77192e-05 0)
(73.2791 0.000204714 0)
(60.6349 0.000314741 0)
(59.8914 0.000327916 0)
(63.3511 0.000290699 0)
(64.861 0.000319374 0)
(64.4103 0.000372312 0)
(63.794 0.00035252 0)
(63.692 0.000303047 0)
(63.8352 0.000298207 0)
(63.9202 0.000326724 0)
(63.9104 0.000344268 0)
(63.8816 0.000361729 0)
(63.8734 0.000397566 0)
(63.8788 0.000415002 0)
(63.8835 0.000402286 0)
(63.8836 0.000396336 0)
(63.8822 0.000408034 0)
(63.8817 0.000398865 0)
(63.8821 0.000351383 0)
(63.8823 0.000299364 0)
(63.8822 0.000296831 0)
(63.8822 0.000330762 0)
(63.8821 0.000355458 0)
(63.8822 0.000391225 0)
(63.8823 0.000422712 0)
(63.8823 0.000402892 0)
(63.8824 0.00036148 0)
(63.8825 0.000361771 0)
(63.8825 0.00041947 0)
(63.8824 0.000476483 0)
(63.8825 0.000471298 0)
(63.8826 0.000413867 0)
(63.8825 0.000350415 0)
(63.8825 0.000299641 0)
(63.8826 0.000266815 0)
(63.8825 0.000274436 0)
(63.8826 0.000313715 0)
(63.8827 0.000337695 0)
(63.8828 0.000336781 0)
(63.8829 0.000341996 0)
(63.883 0.000349733 0)
(63.883 0.000335118 0)
(63.8831 0.000323608 0)
(63.8831 0.000352222 0)
(63.883 0.000397346 0)
(63.8832 0.00043124 0)
(63.8832 0.000451746 0)
(63.8832 0.000460104 0)
(63.8832 0.000439853 0)
(63.8832 0.000379626 0)
(63.8833 0.000336598 0)
(63.8832 0.00034863 0)
(63.8831 0.000366192 0)
(63.8832 0.000345581 0)
(63.8833 0.000323939 0)
(63.8833 0.000331063 0)
(63.8833 0.000327151 0)
(63.8833 0.000313421 0)
(63.8832 0.000315458 0)
(63.8832 0.000330923 0)
(63.8834 0.000356664 0)
(63.8835 0.000377182 0)
(63.8835 0.000404267 0)
(63.8835 0.000451746 0)
(63.8834 0.00047826 0)
(63.8834 0.000446953 0)
(63.8835 0.000374567 0)
(63.8835 0.000302172 0)
(63.8835 0.000258931 0)
(63.8835 0.000259963 0)
(63.8835 0.000306204 0)
(63.8835 0.000362654 0)
(63.8836 0.000374672 0)
(63.8837 0.0003504 0)
(63.8837 0.000349178 0)
(63.8838 0.000379736 0)
(63.8838 0.000409429 0)
(63.8838 0.000422111 0)
(63.8839 0.000406821 0)
(63.8839 0.000359335 0)
(63.8839 0.000313879 0)
(63.884 0.000306125 0)
(63.8839 0.00032623 0)
(63.884 0.000341395 0)
(63.884 0.000341579 0)
(63.884 0.000356632 0)
(63.8841 0.000398507 0)
(63.884 0.000439791 0)
(63.8841 0.00045185 0)
(63.8842 0.000425223 0)
(63.8842 0.000395957 0)
(63.8843 0.000385226 0)
(63.8842 0.00037556 0)
(63.8842 0.000372042 0)
(63.8843 0.000375578 0)
(63.8843 0.000377714 0)
(63.8844 0.000373621 0)
(63.8844 0.000365847 0)
(63.8846 0.000372045 0)
(63.8845 0.000369399 0)
(63.8845 0.00033306 0)
(63.8846 0.000297918 0)
(63.8846 0.000281415 0)
(63.8846 0.000263163 0)
(63.8846 0.00024662 0)
(63.8846 0.000251376 0)
(63.8846 0.000290801 0)
(63.8847 0.000360304 0)
(63.8847 0.000419483 0)
(63.8848 0.000434547 0)
(63.8848 0.000405657 0)
(63.8848 0.000349136 0)
(63.8848 0.000295509 0)
(63.8848 0.000268699 0)
(63.8848 0.000268815 0)
(63.8848 0.000281033 0)
(63.8849 0.000287911 0)
(63.885 0.000293544 0)
(63.885 0.000307682 0)
(63.885 0.000308377 0)
(63.885 0.000288172 0)
(63.885 0.000281629 0)
(63.885 0.000295786 0)
(63.8851 0.000315789 0)
(63.8851 0.000342045 0)
(63.8852 0.000358621 0)
(63.8853 0.000360866 0)
(63.8854 0.000368824 0)
(63.8854 0.000378759 0)
(63.8854 0.000382815 0)
(63.8855 0.000389442 0)
(63.8855 0.000388838 0)
(63.8855 0.000363461 0)
(63.8855 0.000323664 0)
(63.8856 0.000289938 0)
(63.8856 0.000262302 0)
(63.8857 0.000232382 0)
(63.8857 0.000224575 0)
(63.8858 0.000268077 0)
(63.8858 0.000324335 0)
(63.8859 0.000345085 0)
(63.8859 0.000341195 0)
(63.8859 0.000328073 0)
(63.8859 0.00031598 0)
(63.8859 0.000321514 0)
(63.8859 0.000327724 0)
(63.886 0.000311648 0)
(63.8861 0.000286342 0)
(63.8861 0.000274059 0)
(63.8861 0.000285125 0)
(63.8861 0.000317253 0)
(63.8861 0.000349895 0)
(63.8861 0.000362818 0)
(63.8861 0.000364638 0)
(63.8862 0.000373429 0)
(63.8863 0.000381402 0)
(63.8863 0.000373564 0)
(63.8863 0.000357061 0)
(63.8863 0.00034209 0)
(63.8864 0.00032134 0)
(63.8864 0.000293082 0)
(63.8865 0.000280525 0)
(63.8864 0.000300837 0)
(63.8864 0.000340255 0)
(63.8865 0.000376664 0)
(63.8866 0.000397992 0)
(63.8866 0.000396637 0)
(63.8866 0.000370339 0)
(63.8866 0.000328303 0)
(63.8866 0.000286833 0)
(63.8866 0.000263005 0)
(63.8867 0.000259454 0)
(63.8867 0.000265316 0)
(63.8867 0.000291052 0)
(63.8867 0.000340756 0)
(63.8867 0.000388294 0)
(63.8868 0.000424829 0)
(63.8868 0.000435911 0)
(63.8868 0.000393624 0)
(63.8868 0.000320596 0)
(63.8868 0.000264223 0)
(63.8868 0.000235272 0)
(63.8868 0.000221023 0)
(63.8868 0.000223709 0)
(63.8869 0.000249082 0)
(63.8869 0.000275521 0)
(63.887 0.000287316 0)
(63.887 0.000299194 0)
(63.887 0.000312764 0)
(63.887 0.000312645 0)
(63.887 0.000304123 0)
(63.887 0.000298747 0)
(63.8871 0.000294894 0)
(63.8871 0.000295539 0)
(63.8871 0.000305113 0)
(63.8872 0.000319837 0)
(63.8872 0.000338944 0)
(63.8873 0.00035721 0)
(63.8873 0.000352064 0)
(63.8873 0.000315539 0)
(63.8873 0.000275282 0)
(63.8874 0.00025217 0)
(63.8874 0.000247052 0)
(63.8875 0.000267641 0)
(63.8875 0.000306925 0)
(63.8876 0.000337996 0)
(63.8876 0.000356848 0)
(63.8876 0.000371217 0)
(63.8876 0.000371049 0)
(63.8876 0.000353074 0)
(63.8877 0.000334872 0)
(63.8877 0.00032229 0)
(63.8877 0.000308299 0)
(63.8877 0.000298708 0)
(63.8877 0.000296811 0)
(63.8878 0.000297122 0)
(63.8878 0.000303679 0)
(63.8878 0.000319085 0)
(63.8878 0.000335855 0)
(63.8879 0.000344095 0)
(63.8879 0.000342389 0)
(63.8878 0.000338852 0)
(63.8879 0.000328306 0)
(63.8879 0.000305827 0)
(63.8879 0.000287501 0)
(63.888 0.000286478 0)
(63.8881 0.000308362 0)
(63.8882 0.000329813 0)
(63.8882 0.000304796 0)
(63.8881 0.000252087 0)
(63.8882 0.000225488 0)
(63.8882 0.000228263 0)
(63.8882 0.000243974 0)
(63.8882 0.000273262 0)
(63.8882 0.000324885 0)
(63.8883 0.000375451 0)
(63.8883 0.000387182 0)
(63.8884 0.000375456 0)
(63.8884 0.000366029 0)
(63.8885 0.000354317 0)
(63.8885 0.000337517 0)
(63.8885 0.000323791 0)
(63.8886 0.000323105 0)
(63.8887 0.000339033 0)
(63.8887 0.000355244 0)
(63.8887 0.000352684 0)
(63.8888 0.000350758 0)
(63.8888 0.000341766 0)
(50.5419 6.26047e-06 0)
(85.4492 9.23125e-05 0)
(73.279 0.000161324 0)
(60.6348 0.000160254 0)
(59.8912 0.000118479 0)
(63.3509 0.000103588 0)
(64.8609 0.00012797 0)
(64.4103 0.000153462 0)
(63.794 0.000161944 0)
(63.692 0.000159533 0)
(63.8351 0.000163419 0)
(63.92 0.000151082 0)
(63.9102 0.000133807 0)
(63.8814 0.000151218 0)
(63.8733 0.000154905 0)
(63.8788 0.000113594 0)
(63.8832 9.03533e-05 0)
(63.8834 0.000120947 0)
(63.8823 0.000166112 0)
(63.8817 0.000168039 0)
(63.8819 0.000157239 0)
(63.8822 0.000173991 0)
(63.8822 0.000187165 0)
(63.8822 0.000183586 0)
(63.8821 0.000176815 0)
(63.8821 0.00018066 0)
(63.8821 0.000177855 0)
(63.8822 0.000168867 0)
(63.8822 0.000161506 0)
(63.8822 0.000149662 0)
(63.8823 0.000162748 0)
(63.8825 0.000180629 0)
(63.8825 0.000179545 0)
(63.8825 0.000178146 0)
(63.8824 0.00014443 0)
(63.8825 8.53288e-05 0)
(63.8826 7.01058e-05 0)
(63.8826 0.0001027 0)
(63.8826 0.000127823 0)
(63.8826 0.000104441 0)
(63.8826 5.10935e-05 0)
(63.8826 2.19906e-05 0)
(63.8828 3.71957e-05 0)
(63.8828 9.02832e-05 0)
(63.8827 0.000160193 0)
(63.8827 0.000191018 0)
(63.8827 0.000160061 0)
(63.8828 0.000134792 0)
(63.8829 0.000148624 0)
(63.8828 0.000173984 0)
(63.8829 0.000194221 0)
(63.883 0.000195618 0)
(63.883 0.000208427 0)
(63.883 0.000230213 0)
(63.8831 0.000208413 0)
(63.8832 0.000175559 0)
(63.8832 0.000192816 0)
(63.8832 0.000240098 0)
(63.8832 0.000251507 0)
(63.8831 0.000219896 0)
(63.8832 0.000180888 0)
(63.8831 0.000137785 0)
(63.8831 9.23769e-05 0)
(63.8832 7.40196e-05 0)
(63.8833 0.000110553 0)
(63.8833 0.000174897 0)
(63.8833 0.000211076 0)
(63.8834 0.000203405 0)
(63.8835 0.000172199 0)
(63.8835 0.000145028 0)
(63.8836 0.000137239 0)
(63.8836 0.000162246 0)
(63.8836 0.000214801 0)
(63.8836 0.000242358 0)
(63.8836 0.000213655 0)
(63.8837 0.000168243 0)
(63.8837 0.000151891 0)
(63.8837 0.0001606 0)
(63.8837 0.000165938 0)
(63.8838 0.000165004 0)
(63.8839 0.000170457 0)
(63.8839 0.000160348 0)
(63.8839 0.000130319 0)
(63.8839 0.000126756 0)
(63.8839 0.000152243 0)
(63.884 0.00015998 0)
(63.884 0.000140255 0)
(63.884 0.000132176 0)
(63.8841 0.000148466 0)
(63.8841 0.000155127 0)
(63.8842 0.000142881 0)
(63.8842 0.000140118 0)
(63.8842 0.000176957 0)
(63.8843 0.000242117 0)
(63.8843 0.000286436 0)
(63.8843 0.000284111 0)
(63.8843 0.000243424 0)
(63.8843 0.000198415 0)
(63.8843 0.000165442 0)
(63.8843 0.000140981 0)
(63.8843 0.000150485 0)
(63.8844 0.000177367 0)
(63.8844 0.000173222 0)
(63.8845 0.000153375 0)
(63.8845 0.000139888 0)
(63.8846 0.000130749 0)
(63.8846 0.000138996 0)
(63.8846 0.000160929 0)
(63.8846 0.000172945 0)
(63.8846 0.000170848 0)
(63.8846 0.000164571 0)
(63.8847 0.000164973 0)
(63.8848 0.000173806 0)
(63.8848 0.000185553 0)
(63.8849 0.000193316 0)
(63.8849 0.00018967 0)
(63.885 0.000186542 0)
(63.885 0.000191417 0)
(63.885 0.000187581 0)
(63.885 0.000175742 0)
(63.885 0.000173942 0)
(63.8851 0.000181648 0)
(63.8851 0.000181803 0)
(63.8852 0.000169782 0)
(63.8852 0.000154435 0)
(63.8852 0.000145103 0)
(63.8852 0.000148128 0)
(63.8852 0.000151134 0)
(63.8852 0.000143582 0)
(63.8852 0.00014238 0)
(63.8853 0.000153624 0)
(63.8853 0.000158604 0)
(63.8853 0.000159379 0)
(63.8854 0.000172354 0)
(63.8854 0.000183174 0)
(63.8854 0.00017505 0)
(63.8855 0.0001582 0)
(63.8855 0.000142309 0)
(63.8856 0.000125608 0)
(63.8856 0.000110453 0)
(63.8856 0.000111369 0)
(63.8857 0.000124256 0)
(63.8857 0.000129544 0)
(63.8858 0.000141944 0)
(63.8858 0.000172942 0)
(63.8858 0.000198013 0)
(63.8859 0.000202108 0)
(63.886 0.000180514 0)
(63.886 0.00013699 0)
(63.8861 0.000101838 0)
(63.8862 9.58196e-05 0)
(63.8862 0.000112472 0)
(63.8862 0.000150153 0)
(63.8862 0.000204297 0)
(63.8862 0.000242959 0)
(63.8862 0.000247236 0)
(63.8863 0.000242297 0)
(63.8863 0.000245046 0)
(63.8863 0.000243402 0)
(63.8863 0.000236837 0)
(63.8863 0.000231574 0)
(63.8863 0.000223529 0)
(63.8863 0.000215841 0)
(63.8863 0.000219537 0)
(63.8863 0.000236232 0)
(63.8863 0.000253482 0)
(63.8863 0.000259696 0)
(63.8863 0.000257805 0)
(63.8863 0.000256426 0)
(63.8863 0.000254647 0)
(63.8864 0.000241139 0)
(63.8864 0.000206372 0)
(63.8865 0.000167487 0)
(63.8865 0.000156353 0)
(63.8866 0.000163286 0)
(63.8866 0.000167925 0)
(63.8866 0.000182988 0)
(63.8866 0.000199992 0)
(63.8867 0.000205439 0)
(63.8868 0.000217019 0)
(63.887 0.000226617 0)
(63.887 0.000212088 0)
(63.8871 0.000187145 0)
(63.8871 0.000164921 0)
(63.8871 0.000133915 0)
(63.8871 0.000104909 0)
(63.8872 0.000108415 0)
(63.8872 0.000132085 0)
(63.8872 0.000145894 0)
(63.8873 0.000162953 0)
(63.8874 0.000199347 0)
(63.8874 0.000230343 0)
(63.8874 0.000233283 0)
(63.8874 0.00022237 0)
(63.8874 0.000215394 0)
(63.8874 0.000213455 0)
(63.8874 0.000219968 0)
(63.8874 0.000231178 0)
(63.8874 0.000237081 0)
(63.8874 0.000248864 0)
(63.8875 0.000264488 0)
(63.8875 0.000257598 0)
(63.8875 0.000238442 0)
(63.8875 0.000227588 0)
(63.8875 0.000210745 0)
(63.8875 0.00019033 0)
(63.8875 0.000188152 0)
(63.8875 0.000200563 0)
(63.8875 0.000218318 0)
(63.8876 0.000242186 0)
(63.8876 0.000261436 0)
(63.8876 0.000258581 0)
(63.8877 0.00024177 0)
(63.8878 0.000236107 0)
(63.8878 0.000238582 0)
(63.8878 0.000233734 0)
(63.8879 0.000224052 0)
(63.8879 0.000208769 0)
(63.8879 0.00018751 0)
(63.8879 0.000174613 0)
(63.8879 0.000179523 0)
(63.8879 0.000193991 0)
(63.888 0.000207057 0)
(63.888 0.000216247 0)
(63.8881 0.000209182 0)