/*--------------------------------*- C++ -*----------------------------------*\
| =========                 |                                                 |
| \\      /  F ield         | OpenFOAM: The Open Source CFD Toolbox           |
|  \\    /   O peration     | Version:  2406                                  |
|   \\  /    A nd           | Website:  www.openfoam.com                      |
|    \\/     M anipulation  |                                                 |
\*---------------------------------------------------------------------------*/
FoamFile
{
    version     2.0;
    format      ascii;
    arch        "LSB;label=32;scalar=64";
    class       surfaceScalarField;
    location    "0.1";
    object      phi;
}
// * * * * * * * * * * * * * * * * * * * * * * * * * * * * * * * * * * * * * //

dimensions      [0 3 -1 0 0 0 0];

oriented        oriented;

internalField   nonuniform List<scalar> 
7780
(
6.52359e-07
8.26511e-10
6.51743e-07
6.15513e-10
6.51332e-07
4.11455e-10
6.51068e-07
2.63566e-10
6.50911e-07
1.57372e-10
6.5083e-07
8.07535e-11
6.50803e-07
2.76157e-11
6.5081e-07
-7.16047e-12
6.50837e-07
-2.76862e-11
6.50875e-07
-3.81475e-11
6.50918e-07
-4.23398e-11
6.5096e-07
-4.25468e-11
6.51001e-07
-4.1235e-11
6.51041e-07
-3.98463e-11
6.5108e-07
-3.9422e-11
6.51122e-07
-4.1168e-11
6.51168e-07
-4.53509e-11
6.5122e-07
-5.20855e-11
6.51281e-07
-6.14657e-11
6.51354e-07
-7.30917e-11
6.51441e-07
-8.67333e-11
6.51543e-07
-1.0223e-10
6.51663e-07
-1.19277e-10
6.51801e-07
-1.37346e-10
6.51956e-07
-1.55837e-10
6.52131e-07
-1.74116e-10
6.52323e-07
-1.91944e-10
6.52532e-07
-2.0899e-10
6.52757e-07
-2.24658e-10
6.52996e-07
-2.38631e-10
6.53246e-07
-2.50708e-10
6.53506e-07
-2.60513e-10
6.53775e-07
-2.67967e-10
6.54048e-07
-2.733e-10
6.54325e-07
-2.76432e-10
6.54602e-07
-2.77113e-10
6.54877e-07
-2.75397e-10
6.55149e-07
-2.71428e-10
6.55414e-07
-2.65107e-10
6.5567e-07
-2.56358e-10
6.55916e-07
-2.45346e-10
6.56148e-07
-2.32192e-10
6.56364e-07
-2.16718e-10
6.56563e-07
-1.98664e-10
6.56741e-07
-1.77946e-10
6.56895e-07
-1.54544e-10
6.57023e-07
-1.28289e-10
6.57122e-07
-9.89553e-11
6.57188e-07
-6.65179e-11
6.57219e-07
-3.11191e-11
6.57212e-07
7.19856e-12
6.57163e-07
4.85295e-11
6.5707e-07
9.28186e-11
6.5693e-07
1.39581e-10
6.56742e-07
1.87953e-10
6.56505e-07
2.36897e-10
6.5622e-07
2.85287e-10
6.55888e-07
3.31832e-10
6.55513e-07
3.75005e-10
6.551e-07
4.13103e-10
6.54655e-07
4.44374e-10
6.54188e-07
4.67084e-10
6.53709e-07
4.79521e-10
6.53229e-07
4.80046e-10
6.52762e-07
4.67295e-10
6.52322e-07
4.40439e-10
6.51922e-07
3.99289e-10
6.51578e-07
3.44192e-10
6.51302e-07
2.75889e-10
6.51107e-07
1.95515e-10
6.51002e-07
1.04774e-10
6.50997e-07
5.9953e-12
6.51094e-07
-9.76456e-11
6.51297e-07
-2.028e-10
6.51603e-07
-3.05698e-10
6.52005e-07
-4.02554e-10
6.52495e-07
-4.89582e-10
6.53058e-07
-5.6313e-10
6.53678e-07
-6.19885e-10
6.54335e-07
-6.57145e-10
6.55009e-07
-6.73053e-10
6.55675e-07
-6.66758e-10
6.56314e-07
-6.38493e-10
6.56904e-07
-5.89596e-10
6.57426e-07
-5.22509e-10
6.57867e-07
-4.40743e-10
6.58216e-07
-3.48743e-10
6.58467e-07
-2.51611e-10
6.58622e-07
-1.54665e-10
6.58686e-07
-6.29158e-11
6.58666e-07
1.93851e-11
6.58578e-07
8.89464e-11
6.58434e-07
1.43567e-10
6.58252e-07
1.82055e-10
6.58048e-07
2.04265e-10
6.57836e-07
2.11129e-10
6.57632e-07
2.04637e-10
6.57444e-07
1.87689e-10
6.57279e-07
1.63813e-10
6.57142e-07
1.36831e-10
6.57031e-07
1.10545e-10
6.56942e-07
8.84822e-11
6.56869e-07
7.36543e-11
6.568e-07
6.83378e-11
6.56726e-07
7.38835e-11
6.56635e-07
9.06118e-11
6.56517e-07
1.17797e-10
6.56363e-07
1.537e-10
6.56168e-07
1.95629e-10
6.55928e-07
2.40052e-10
6.55645e-07
2.82825e-10
6.55325e-07
3.19533e-10
6.5498e-07
3.45886e-10
6.54622e-07
3.58112e-10
6.54269e-07
3.53278e-10
6.53939e-07
3.29562e-10
6.53653e-07
2.86433e-10
6.53429e-07
2.24726e-10
6.53282e-07
1.46609e-10
6.53227e-07
5.54256e-11
6.53271e-07
-4.45659e-11
6.5342e-07
-1.48531e-10
6.53671e-07
-2.51442e-10
6.54019e-07
-3.48397e-10
6.54454e-07
-4.3488e-10
6.54961e-07
-5.06988e-10
6.55523e-07
-5.61667e-10
6.5612e-07
-5.96893e-10
6.56731e-07
-6.11714e-10
6.57338e-07
-6.06149e-10
6.57919e-07
-5.81026e-10
6.58456e-07
-5.37861e-10
6.58935e-07
-4.78771e-10
6.59342e-07
-4.06352e-10
6.59666e-07
-3.23522e-10
6.59899e-07
-2.33409e-10
6.60038e-07
-1.39295e-10
6.60083e-07
-4.45371e-11
6.60036e-07
4.76127e-11
6.59902e-07
1.34218e-10
6.59689e-07
2.12807e-10
6.59408e-07
2.81398e-10
6.59069e-07
3.38488e-10
6.58686e-07
3.83065e-10
6.58271e-07
4.14659e-10
6.57838e-07
4.33355e-10
6.57398e-07
4.39716e-10
6.56964e-07
4.34621e-10
6.56545e-07
4.19138e-10
6.5615e-07
3.94494e-10
6.55788e-07
3.62088e-10
6.55464e-07
3.23404e-10
6.55184e-07
2.79848e-10
6.54952e-07
2.3271e-10
6.54768e-07
1.83257e-10
6.54635e-07
1.32753e-10
6.54553e-07
8.23521e-11
6.5452e-07
3.30767e-11
6.54534e-07
-1.40171e-11
6.54591e-07
-5.77799e-11
6.54688e-07
-9.71972e-11
6.5482e-07
-1.31568e-10
6.5498e-07
-1.60369e-10
6.55164e-07
-1.83028e-10
6.55363e-07
-1.98958e-10
6.55571e-07
-2.07794e-10
6.5578e-07
-2.0952e-10
6.55985e-07
-2.04403e-10
6.56178e-07
-1.92883e-10
6.56353e-07
-1.75561e-10
6.56506e-07
-1.53227e-10
6.56633e-07
-1.26847e-10
6.56731e-07
-9.75371e-11
6.56798e-07
-6.64968e-11
6.56833e-07
-3.48752e-11
6.56836e-07
-3.69798e-12
6.5681e-07
2.6049e-11
6.56756e-07
5.34031e-11
6.56678e-07
7.75413e-11
6.5658e-07
9.77803e-11
6.56467e-07
1.13425e-10
6.56344e-07
1.23744e-10
6.56216e-07
1.28175e-10
6.5609e-07
1.26534e-10
6.55971e-07
1.18935e-10
6.55865e-07
1.05489e-10
6.55779e-07
8.62804e-11
6.55718e-07
6.16213e-11
6.55685e-07
3.23137e-11
6.55685e-07
-1.46533e-13
6.55718e-07
-3.36042e-11
6.55784e-07
-6.54578e-11
6.55876e-07
-9.24371e-11
6.55987e-07
-1.1094e-10
6.56105e-07
-1.17726e-10
6.56215e-07
-1.09984e-10
6.563e-07
-8.59514e-11
6.56348e-07
-4.7691e-11
6.56358e-07
-9.83353e-12
4.83693e-13
1.77412e-06
2.11788e-09
1.77295e-06
1.7793e-09
1.77204e-06
1.32869e-09
1.77137e-06
9.34038e-10
1.7709e-06
6.19742e-10
1.77061e-06
3.77487e-10
1.77044e-06
1.99956e-10
1.77035e-06
7.69017e-11
1.77033e-06
-2.34405e-12
1.77034e-06
-4.89874e-11
1.77037e-06
-7.37036e-11
1.77041e-06
-8.51919e-11
1.77046e-06
-9.06347e-11
1.77052e-06
-9.52658e-11
1.77058e-06
-1.03184e-10
1.77065e-06
-1.17106e-10
1.77075e-06
-1.38862e-10
1.77086e-06
-1.69108e-10
1.77101e-06
-2.08078e-10
1.77119e-06
-2.55292e-10
1.77142e-06
-3.09872e-10
1.77168e-06
-3.70748e-10
1.772e-06
-4.36868e-10
1.77237e-06
-5.06323e-10
1.77279e-06
-5.77128e-10
1.77327e-06
-6.47649e-10
1.77379e-06
-7.16183e-10
1.77436e-06
-7.81117e-10
1.77498e-06
-8.41074e-10
1.77563e-06
-8.94703e-10
1.77632e-06
-9.40834e-10
1.77704e-06
-9.78798e-10
1.77778e-06
-1.00831e-09
1.77854e-06
-1.02909e-09
1.7793e-06
-1.04087e-09
1.78007e-06
-1.04364e-09
1.78083e-06
-1.03748e-09
1.78158e-06
-1.02235e-09
1.78232e-06
-9.98158e-10
1.78302e-06
-9.65088e-10
1.7837e-06
-9.23326e-10
1.78434e-06
-8.72716e-10
1.78494e-06
-8.1285e-10
1.78548e-06
-7.43379e-10
1.78597e-06
-6.63966e-10
1.78639e-06
-5.74106e-10
1.78673e-06
-4.73256e-10
1.787e-06
-3.61135e-10
1.78717e-06
-2.37753e-10
1.78724e-06
-1.03161e-10
1.7872e-06
4.26267e-11
1.78705e-06
1.99277e-10
1.78678e-06
3.6566e-10
1.78638e-06
5.39701e-10
1.78585e-06
7.18577e-10
1.78519e-06
8.98859e-10
1.7844e-06
1.07641e-09
1.78348e-06
1.24624e-09
1.78245e-06
1.40267e-09
1.78133e-06
1.53963e-09
1.78012e-06
1.65082e-09
1.77886e-06
1.72988e-09
1.77757e-06
1.77059e-09
1.77628e-06
1.76736e-09
1.77503e-06
1.71578e-09
1.77386e-06
1.61312e-09
1.7728e-06
1.45849e-09
1.77189e-06
1.25278e-09
1.77117e-06
9.98734e-10
1.77066e-06
7.01061e-10
1.7704e-06
3.66651e-10
1.7704e-06
4.59479e-12
1.77068e-06
-3.74066e-10
1.77123e-06
-7.56951e-10
1.77206e-06
-1.13078e-09
1.77314e-06
-1.48185e-09
1.77445e-06
-1.79651e-09
1.77594e-06
-2.06174e-09
1.77759e-06
-2.26591e-09
1.77933e-06
-2.39965e-09
1.78112e-06
-2.45654e-09
1.78288e-06
-2.43367e-09
1.78458e-06
-2.33198e-09
1.78614e-06
-2.15644e-09
1.78754e-06
-1.91607e-09
1.78872e-06
-1.62361e-09
1.78967e-06
-1.29482e-09
1.79036e-06
-9.47351e-10
1.79081e-06
-5.99435e-10
1.79101e-06
-2.68446e-10
1.791e-06
3.03411e-11
1.7908e-06
2.84732e-10
1.79046e-06
4.86265e-10
1.79001e-06
6.30537e-10
1.7895e-06
7.17251e-10
1.78896e-06
7.50045e-10
1.78843e-06
7.36091e-10
1.78793e-06
6.85464e-10
1.78748e-06
6.10286e-10
1.7871e-06
5.23711e-10
1.78677e-06
4.38871e-10
1.78649e-06
3.67914e-10
1.78624e-06
3.21178e-10
1.786e-06
3.06508e-10
1.78575e-06
3.28689e-10
1.78545e-06
3.88994e-10
1.78508e-06
4.8494e-10
1.78463e-06
6.10292e-10
1.78407e-06
7.55368e-10
1.7834e-06
9.07636e-10
1.78263e-06
1.0526e-09
1.78177e-06
1.17495e-09
1.78086e-06
1.25981e-09
1.77992e-06
1.29406e-09
1.77901e-06
1.26751e-09
1.77817e-06
1.17395e-09
1.77744e-06
1.01176e-09
1.77688e-06
7.84204e-10
1.77653e-06
4.99211e-10
1.77641e-06
1.68724e-10
1.77656e-06
-1.92221e-10
1.77698e-06
-5.66608e-10
1.77766e-06
-9.3664e-10
1.7786e-06
-1.28494e-09
1.77976e-06
-1.59562e-09
1.78111e-06
-1.85509e-09
1.7826e-06
-2.05265e-09
1.78419e-06
-2.18092e-09
1.78581e-06
-2.23596e-09
1.78742e-06
-2.21727e-09
1.78897e-06
-2.12745e-09
1.7904e-06
-1.97178e-09
1.79168e-06
-1.75771e-09
1.79277e-06
-1.49452e-09
1.79364e-06
-1.19289e-09
1.79427e-06
-8.64455e-10
1.79465e-06
-5.21322e-10
1.79478e-06
-1.7561e-10
1.79467e-06
1.61083e-10
1.79433e-06
4.78212e-10
1.79377e-06
7.66722e-10
1.79303e-06
1.0193e-09
1.79214e-06
1.23046e-09
1.79113e-06
1.39653e-09
1.79003e-06
1.51573e-09
1.78887e-06
1.58811e-09
1.7877e-06
1.6154e-09
1.78653e-06
1.60065e-09
1.7854e-06
1.54767e-09
1.78434e-06
1.4608e-09
1.78336e-06
1.34476e-09
1.78247e-06
1.20471e-09
1.78171e-06
1.04591e-09
1.78107e-06
8.7339e-10
1.78056e-06
6.9186e-10
1.78018e-06
5.05902e-10
1.77995e-06
3.19991e-10
1.77984e-06
1.38276e-10
1.77986e-06
-3.54936e-11
1.78e-06
-1.97719e-10
1.78025e-06
-3.44815e-10
1.78059e-06
-4.73468e-10
1.78101e-06
-5.80982e-10
1.7815e-06
-6.65337e-10
1.78202e-06
-7.2507e-10
1.78257e-06
-7.5927e-10
1.78313e-06
-7.67732e-10
1.78368e-06
-7.51114e-10
1.7842e-06
-7.1095e-10
1.78467e-06
-6.49536e-10
1.78509e-06
-5.69779e-10
1.78544e-06
-4.75055e-10
1.78571e-06
-3.69157e-10
1.7859e-06
-2.56217e-10
1.786e-06
-1.40438e-10
1.78603e-06
-2.57995e-11
1.78597e-06
8.39215e-11
1.78584e-06
1.85049e-10
1.78564e-06
2.74298e-10
1.78539e-06
3.491e-10
1.78509e-06
4.07373e-10
1.78477e-06
4.47094e-10
1.78443e-06
4.66492e-10
1.78409e-06
4.64615e-10
1.78377e-06
4.41323e-10
1.78348e-06
3.96787e-10
1.78323e-06
3.31687e-10
1.78305e-06
2.48019e-10
1.78293e-06
1.49201e-10
1.78289e-06
4.00113e-11
1.78293e-06
-7.27995e-11
1.78304e-06
-1.80339e-10
1.78322e-06
-2.72026e-10
1.78345e-06
-3.36331e-10
1.78369e-06
-3.62268e-10
1.78393e-06
-3.41619e-10
1.78411e-06
-2.706e-10
1.78421e-06
-1.49882e-10
1.78421e-06
-6.5759e-12
6.12853e-11
2.73041e-06
3.80322e-09
2.72883e-06
3.36336e-09
2.72747e-06
2.68306e-09
2.72637e-06
2.03281e-09
2.72551e-06
1.47902e-09
2.72486e-06
1.02939e-09
2.72438e-06
6.83833e-10
2.72402e-06
4.31033e-10
2.72376e-06
2.55741e-10
2.72358e-06
1.39775e-10
2.72344e-06
6.56182e-11
2.72333e-06
1.7815e-11
2.72326e-06
-1.67519e-11
2.72321e-06
-4.84258e-11
2.72319e-06
-8.50436e-11
2.72321e-06
-1.31848e-10
2.72326e-06
-1.92629e-10
2.72336e-06
-2.69127e-10
2.72352e-06
-3.61962e-10
2.72373e-06
-4.70592e-10
2.72402e-06
-5.93721e-10
2.72437e-06
-7.28952e-10
2.72481e-06
-8.73404e-10
2.72533e-06
-1.02438e-09
2.72593e-06
-1.1782e-09
2.72661e-06
-1.33081e-09
2.72737e-06
-1.47887e-09
2.72821e-06
-1.61922e-09
2.72912e-06
-1.74869e-09
2.73009e-06
-1.86454e-09
2.73111e-06
-1.96479e-09
2.73218e-06
-2.04799e-09
2.73329e-06
-2.11301e-09
2.73442e-06
-2.1591e-09
2.73556e-06
-2.18597e-09
2.73671e-06
-2.19353e-09
2.73786e-06
-2.18174e-09
2.73899e-06
-2.15063e-09
2.74009e-06
-2.10043e-09
2.74116e-06
-2.03138e-09
2.74218e-06
-1.94338e-09
2.74314e-06
-1.836e-09
2.74403e-06
-1.7087e-09
2.74485e-06
-1.56098e-09
2.74558e-06
-1.39208e-09
2.74621e-06
-1.201e-09
2.74672e-06
-9.86839e-10
2.74711e-06
-7.49116e-10
2.74736e-06
-4.87679e-10
2.74746e-06
-2.02528e-10
2.74739e-06
1.05942e-10
2.74716e-06
4.36349e-10
2.74674e-06
7.85856e-10
2.74612e-06
1.15012e-09
2.74532e-06
1.52342e-09
2.74432e-06
1.89867e-09
2.74313e-06
2.26716e-09
2.74176e-06
2.61852e-09
2.74022e-06
2.94102e-09
2.73854e-06
3.22205e-09
2.73674e-06
3.44861e-09
2.73486e-06
3.60762e-09
2.73295e-06
3.68658e-09
2.73104e-06
3.67439e-09
2.72919e-06
3.56232e-09
2.72746e-06
3.34484e-09
2.7259e-06
3.02e-09
2.72456e-06
2.58969e-09
2.7235e-06
2.05988e-09
2.72276e-06
1.44087e-09
2.72238e-06
7.47382e-10
2.72239e-06
-1.59008e-12
2.7228e-06
-7.83404e-10
2.72361e-06
-1.57262e-09
2.72482e-06
-2.34197e-09
2.72641e-06
-3.06331e-09
2.72832e-06
-3.70877e-09
2.73051e-06
-4.25196e-09
2.73291e-06
-4.66946e-09
2.73545e-06
-4.94243e-09
2.73806e-06
-5.058e-09
2.74063e-06
-5.01046e-09
2.7431e-06
-4.80201e-09
2.74539e-06
-4.44313e-09
2.74743e-06
-3.9524e-09
2.74916e-06
-3.35577e-09
2.75055e-06
-2.68507e-09
2.75158e-06
-1.97584e-09
2.75224e-06
-1.26472e-09
2.75256e-06
-5.86773e-10
2.75257e-06
2.69465e-11
2.7523e-06
5.51422e-10
2.75182e-06
9.69137e-10
2.75118e-06
1.27094e-09
2.75044e-06
1.45624e-09
2.74965e-06
1.53259e-09
2.74887e-06
1.51465e-09
2.74814e-06
1.42276e-09
2.74746e-06
1.28116e-09
2.74687e-06
1.11609e-09
2.74636e-06
9.53823e-10
2.74591e-06
8.18706e-10
2.7455e-06
7.31471e-10
2.74509e-06
7.07764e-10
2.74467e-06
7.56998e-10
2.74417e-06
8.81519e-10
2.74358e-06
1.07613e-09
2.74286e-06
1.32812e-09
2.742e-06
1.61784e-09
2.74099e-06
1.91995e-09
2.73984e-06
2.20526e-09
2.73857e-06
2.44303e-09
2.73722e-06
2.60353e-09
2.73586e-06
2.66064e-09
2.73453e-06
2.59422e-09
2.73331e-06
2.39208e-09
2.73227e-06
2.05128e-09
2.73148e-06
1.57863e-09
2.73099e-06
9.90328e-10
2.73085e-06
3.10668e-10
2.73108e-06
-4.29862e-10
2.73171e-06
-1.19685e-09
2.73273e-06
-1.95432e-09
2.73411e-06
-2.66714e-09
2.73582e-06
-3.30308e-09
2.7378e-06
-3.83459e-09
2.73999e-06
-4.23998e-09
2.74231e-06
-4.50414e-09
2.74469e-06
-4.61876e-09
2.74706e-06
-4.58231e-09
2.74933e-06
-4.3996e-09
2.75144e-06
-4.08109e-09
2.75333e-06
-3.64195e-09
2.75493e-06
-3.10117e-09
2.75622e-06
-2.48067e-09
2.75716e-06
-1.80438e-09
2.75774e-06
-1.09723e-09
2.75795e-06
-3.84086e-10
2.7578e-06
3.11317e-10
2.75731e-06
9.67343e-10
2.75651e-06
1.56527e-09
2.75544e-06
2.08988e-09
2.75414e-06
2.52976e-09
2.75266e-06
2.87736e-09
2.75104e-06
3.12896e-09
2.74935e-06
3.28437e-09
2.74762e-06
3.34669e-09
2.7459e-06
3.32166e-09
2.74423e-06
3.21704e-09
2.74265e-06
3.04177e-09
2.74118e-06
2.80561e-09
2.73987e-06
2.51888e-09
2.73872e-06
2.19218e-09
2.73776e-06
1.83599e-09
2.73699e-06
1.46023e-09
2.73642e-06
1.07443e-09
2.73606e-06
6.87838e-10
2.73588e-06
3.09381e-10
2.7359e-06
-5.27165e-11
2.73609e-06
-3.90953e-10
2.73645e-06
-6.98274e-10
2.73694e-06
-9.68042e-10
2.73756e-06
-1.19444e-09
2.73826e-06
-1.37294e-09
2.73904e-06
-1.50038e-09
2.73986e-06
-1.57501e-09
2.74068e-06
-1.5965e-09
2.7415e-06
-1.56615e-09
2.74228e-06
-1.48701e-09
2.74299e-06
-1.36369e-09
2.74362e-06
-1.20219e-09
2.74416e-06
-1.00953e-09
2.74458e-06
-7.93459e-10
2.74489e-06
-5.62196e-10
2.74507e-06
-3.24185e-10
2.74513e-06
-8.76671e-11
2.74508e-06
1.39595e-10
2.74491e-06
3.50335e-10
2.74465e-06
5.3787e-10
2.7443e-06
6.9644e-10
2.74389e-06
8.21425e-10
2.74343e-06
9.09208e-10
2.74293e-06
9.57018e-10
2.74244e-06
9.63035e-10
2.74195e-06
9.26639e-10
2.7415e-06
8.48528e-10
2.7411e-06
7.30905e-10
2.74077e-06
5.78064e-10
2.74052e-06
3.9683e-10
2.74036e-06
1.96802e-10
2.7403e-06
-9.0191e-12
2.74033e-06
-2.0408e-10
2.74042e-06
-3.69122e-10
2.74057e-06
-4.83071e-10
2.74073e-06
-5.25516e-10
2.74087e-06
-4.81492e-10
2.74095e-06
-3.43911e-10
2.74091e-06
-1.12161e-10
2.74073e-06
1.75261e-10
3.38654e-10
3.53701e-06
5.98257e-09
3.53493e-06
5.44812e-09
3.53303e-06
4.57511e-09
3.53137e-06
3.69327e-09
3.52995e-06
2.90387e-09
3.52874e-06
2.23374e-09
3.52774e-06
1.69241e-09
3.52689e-06
1.27429e-09
3.52619e-06
9.61639e-10
3.52559e-06
7.33512e-10
3.52509e-06
5.67429e-10
3.52467e-06
4.41945e-10
3.52431e-06
3.39208e-10
3.52402e-06
2.43853e-10
3.52379e-06
1.44639e-10
3.52362e-06
3.33006e-11
3.52353e-06
-9.67574e-11
3.52351e-06
-2.48542e-10
3.52357e-06
-4.23159e-10
3.52372e-06
-6.20996e-10
3.52397e-06
-8.39825e-10
3.52431e-06
-1.07625e-09
3.52477e-06
-1.32648e-09
3.52533e-06
-1.58553e-09
3.526e-06
-1.84759e-09
3.52677e-06
-2.10714e-09
3.52765e-06
-2.35873e-09
3.52863e-06
-2.59687e-09
3.5297e-06
-2.81673e-09
3.53085e-06
-3.01427e-09
3.53207e-06
-3.18597e-09
3.53335e-06
-3.32904e-09
3.53468e-06
-3.44171e-09
3.53604e-06
-3.52294e-09
3.53743e-06
-3.57204e-09
3.53882e-06
-3.58867e-09
3.54021e-06
-3.57288e-09
3.54159e-06
-3.52494e-09
3.54293e-06
-3.44513e-09
3.54423e-06
-3.33346e-09
3.54548e-06
-3.18972e-09
3.54666e-06
-3.01342e-09
3.54775e-06
-2.80393e-09
3.54875e-06
-2.56032e-09
3.54964e-06
-2.28143e-09
3.55041e-06
-1.96589e-09
3.55103e-06
-1.61251e-09
3.5515e-06
-1.22044e-09
3.5518e-06
-7.89276e-10
3.55192e-06
-3.19163e-10
3.55184e-06
1.88695e-10
3.55154e-06
7.31468e-10
3.55102e-06
1.30432e-09
3.55027e-06
1.90025e-09
3.54929e-06
2.50998e-09
3.54806e-06
3.12179e-09
3.54661e-06
3.72131e-09
3.54494e-06
4.29169e-09
3.54306e-06
4.81397e-09
3.54102e-06
5.26774e-09
3.53884e-06
5.63189e-09
3.53656e-06
5.8854e-09
3.53424e-06
6.00835e-09
3.53193e-06
5.98324e-09
3.52969e-06
5.79633e-09
3.5276e-06
5.4388e-09
3.52571e-06
4.90755e-09
3.5241e-06
4.20583e-09
3.52281e-06
3.3437e-09
3.52192e-06
2.33837e-09
3.52145e-06
1.21413e-09
3.52144e-06
1.83231e-12
3.52192e-06
-1.26196e-09
3.52289e-06
-2.53625e-09
3.52432e-06
-3.77708e-09
3.5262e-06
-4.93911e-09
3.52847e-06
-5.97757e-09
3.53106e-06
-6.8503e-09
3.53392e-06
-7.5201e-09
3.53693e-06
-7.95708e-09
3.54001e-06
-8.14097e-09
3.54307e-06
-8.06289e-09
3.54599e-06
-7.72673e-09
3.5487e-06
-7.1496e-09
3.55111e-06
-6.36154e-09
3.55315e-06
-5.4041e-09
3.5548e-06
-4.32802e-09
3.55601e-06
-3.18983e-09
3.55679e-06
-2.0479e-09
3.55717e-06
-9.58201e-10
3.55716e-06
2.96035e-11
3.55684e-06
8.75421e-10
3.55626e-06
1.55114e-09
3.55549e-06
2.04204e-09
3.55459e-06
2.34715e-09
3.55365e-06
2.47854e-09
3.5527e-06
2.45971e-09
3.5518e-06
2.32316e-09
3.55098e-06
2.1075e-09
3.55024e-06
1.85442e-09
3.54959e-06
1.60552e-09
3.549e-06
1.39938e-09
3.54847e-06
1.26881e-09
3.54794e-06
1.23844e-09
3.54737e-06
1.32287e-09
3.54673e-06
1.52534e-09
3.54597e-06
1.83709e-09
3.54506e-06
2.23749e-09
3.54398e-06
2.69507e-09
3.54273e-06
3.1695e-09
3.54132e-06
3.61449e-09
3.53978e-06
3.98141e-09
3.53816e-06
4.22337e-09
3.53652e-06
4.29929e-09
3.53494e-06
4.17772e-09
3.53349e-06
3.83982e-09
3.53226e-06
3.28134e-09
3.53133e-06
2.51342e-09
3.53076e-06
1.56194e-09
3.5306e-06
4.65618e-10
3.5309e-06
-7.26915e-10
3.53166e-06
-1.96081e-09
3.53289e-06
-3.17882e-09
3.53454e-06
-4.32496e-09
3.53659e-06
-5.34783e-09
3.53896e-06
-6.20334e-09
3.54157e-06
-6.85669e-09
3.54435e-06
-7.28351e-09
3.5472e-06
-7.47034e-09
3.55004e-06
-7.41436e-09
3.55276e-06
-7.12288e-09
3.55529e-06
-6.61228e-09
3.55756e-06
-5.9067e-09
3.55949e-06
-5.03659e-09
3.56105e-06
-4.03717e-09
3.56219e-06
-2.94691e-09
3.5629e-06
-1.80587e-09
3.56317e-06
-6.54028e-10
3.56301e-06
4.70482e-10
3.56245e-06
1.53284e-09
3.56151e-06
2.50278e-09
3.56024e-06
3.35556e-09
3.5587e-06
4.0725e-09
3.55694e-06
4.64124e-09
3.55501e-06
5.05554e-09
3.55298e-06
5.3149e-09
3.5509e-06
5.42383e-09
3.54883e-06
5.39102e-09
3.54682e-06
5.22853e-09
3.54491e-06
4.9507e-09
3.54314e-06
4.57333e-09
3.54155e-06
4.11298e-09
3.54016e-06
3.58656e-09
3.53898e-06
3.01092e-09
3.53804e-06
2.40237e-09
3.53734e-06
1.77644e-09
3.53688e-06
1.14802e-09
3.53665e-06
5.31544e-10
3.53666e-06
-5.92734e-11
3.53688e-06
-6.1177e-10
3.5373e-06
-1.11439e-09
3.53789e-06
-1.55662e-09
3.53862e-06
-1.92922e-09
3.53947e-06
-2.22471e-09
3.54041e-06
-2.43778e-09
3.5414e-06
-2.56543e-09
3.54241e-06
-2.60718e-09
3.54341e-06
-2.56516e-09
3.54437e-06
-2.44417e-09
3.54526e-06
-2.25147e-09
3.54605e-06
-1.99652e-09
3.54673e-06
-1.69054e-09
3.54729e-06
-1.34596e-09
3.5477e-06
-9.7586e-10
3.54797e-06
-5.93624e-10
3.54809e-06
-2.12518e-10
3.54808e-06
1.54969e-10
3.54793e-06
4.97541e-10
3.54766e-06
8.05034e-10
3.54729e-06
1.0684e-09
3.54683e-06
1.28014e-09
3.54631e-06
1.43479e-09
3.54573e-06
1.52865e-09
3.54514e-06
1.55941e-09
3.54454e-06
1.52639e-09
3.54395e-06
1.43134e-09
3.54341e-06
1.27864e-09
3.54291e-06
1.07528e-09
3.54248e-06
8.31811e-10
3.54211e-06
5.6317e-10
3.54181e-06
2.88904e-10
3.54157e-06
3.28219e-11
3.54138e-06
-1.7777e-10
3.54121e-06
-3.134e-10
3.54103e-06
-3.46061e-10
3.54081e-06
-2.54776e-10
3.54049e-06
-3.01027e-11
3.54005e-06
3.28075e-10
3.53946e-06
7.65795e-10
1.03211e-09
4.20702e-06
8.72891e-09
4.20435e-06
8.1243e-09
4.20181e-06
7.11498e-09
4.19945e-06
6.04982e-09
4.1973e-06
5.05092e-09
4.19537e-06
4.1638e-09
4.19366e-06
3.41053e-09
4.19214e-06
2.79335e-09
4.1908e-06
2.29895e-09
4.18963e-06
1.90723e-09
4.1886e-06
1.5943e-09
4.1877e-06
1.33654e-09
4.18693e-06
1.11342e-09
4.18627e-06
9.06376e-10
4.18571e-06
6.99706e-10
4.18526e-06
4.82701e-10
4.18492e-06
2.47381e-10
4.18468e-06
-1.26948e-11
4.18456e-06
-2.99667e-10
4.18455e-06
-6.13384e-10
4.18466e-06
-9.52583e-10
4.1849e-06
-1.31367e-09
4.18526e-06
-1.6911e-09
4.18576e-06
-2.07838e-09
4.18638e-06
-2.46844e-09
4.18713e-06
-2.85363e-09
4.18799e-06
-3.22606e-09
4.18898e-06
-3.57844e-09
4.19006e-06
-3.90435e-09
4.19125e-06
-4.19784e-09
4.19252e-06
-4.45373e-09
4.19386e-06
-4.66831e-09
4.19525e-06
-4.83913e-09
4.19669e-06
-4.96444e-09
4.19817e-06
-5.04305e-09
4.19965e-06
-5.07457e-09
4.20114e-06
-5.05918e-09
4.20261e-06
-4.99715e-09
4.20405e-06
-4.88857e-09
4.20546e-06
-4.73345e-09
4.2068e-06
-4.53167e-09
4.20807e-06
-4.28283e-09
4.20925e-06
-3.986e-09
4.21033e-06
-3.63985e-09
4.21129e-06
-3.24283e-09
4.21212e-06
-2.79333e-09
4.2128e-06
-2.28982e-09
4.21331e-06
-1.73105e-09
4.21363e-06
-1.11644e-09
4.21376e-06
-4.46502e-10
4.21367e-06
2.76546e-10
4.21336e-06
1.04835e-09
4.2128e-06
1.86198e-09
4.21199e-06
2.70757e-09
4.21093e-06
3.57195e-09
4.20961e-06
4.43828e-09
4.20805e-06
5.2861e-09
4.20625e-06
6.09158e-09
4.20423e-06
6.82807e-09
4.20204e-06
7.46688e-09
4.19969e-06
7.97828e-09
4.19724e-06
8.33278e-09
4.19475e-06
8.50266e-09
4.19227e-06
8.46367e-09
4.18987e-06
8.19683e-09
4.18761e-06
7.68992e-09
4.18558e-06
6.93876e-09
4.18384e-06
5.94821e-09
4.18245e-06
4.73286e-09
4.18147e-06
3.31736e-09
4.18095e-06
1.73623e-09
4.18092e-06
3.30497e-11
4.1814e-06
-1.74081e-09
4.18239e-06
-3.52784e-09
4.18388e-06
-5.26638e-09
4.18583e-06
-6.89296e-09
4.1882e-06
-8.34497e-09
4.19091e-06
-9.56367e-09
4.19389e-06
-1.04974e-08
4.19704e-06
-1.1105e-08
4.20026e-06
-1.13584e-08
4.20344e-06
-1.12457e-08
4.20649e-06
-1.07726e-08
4.2093e-06
-9.96352e-09
4.2118e-06
-8.86051e-09
4.21392e-06
-7.5217e-09
4.21561e-06
-6.01778e-09
4.21684e-06
-4.42737e-09
4.21763e-06
-2.83164e-09
4.21798e-06
-1.30854e-09
4.21794e-06
7.26514e-11
4.21756e-06
1.25599e-09
4.2169e-06
2.20231e-09
4.21605e-06
2.89118e-09
4.21508e-06
3.32135e-09
4.21405e-06
3.50981e-09
4.21302e-06
3.48945e-09
4.21204e-06
3.30574e-09
4.21113e-06
3.0126e-09
4.21032e-06
2.66813e-09
4.20959e-06
2.33015e-09
4.20894e-06
2.05207e-09
4.20833e-06
1.87914e-09
4.20772e-06
1.84515e-09
4.20708e-06
1.96976e-09
4.20634e-06
2.25677e-09
4.20549e-06
2.69325e-09
4.20448e-06
3.24988e-09
4.20329e-06
3.88253e-09
4.20192e-06
4.53508e-09
4.20039e-06
5.14342e-09
4.19873e-06
5.64044e-09
4.197e-06
5.96159e-09
4.19524e-06
6.05052e-09
4.19356e-06
5.86424e-09
4.19202e-06
5.37725e-09
4.19072e-06
4.58425e-09
4.18973e-06
3.50108e-09
4.18913e-06
2.16381e-09
4.18897e-06
6.26234e-10
4.18928e-06
-1.04419e-09
4.1901e-06
-2.7713e-09
4.19139e-06
-4.47558e-09
4.19315e-06
-6.07929e-09
4.19531e-06
-7.51101e-09
4.19782e-06
-8.70932e-09
4.20058e-06
-9.62559e-09
4.20353e-06
-1.02257e-08
4.20655e-06
-1.04905e-08
4.20955e-06
-1.04159e-08
4.21244e-06
-1.00119e-08
4.21513e-06
-9.30083e-09
4.21754e-06
-8.31619e-09
4.2196e-06
-7.10033e-09
4.22127e-06
-5.70239e-09
4.2225e-06
-4.17609e-09
4.22327e-06
-2.57736e-09
4.22358e-06
-9.61998e-10
4.22343e-06
6.16688e-10
4.22285e-06
2.11e-09
4.22188e-06
3.47554e-09
4.22056e-06
4.67845e-09
4.21894e-06
5.69225e-09
4.21708e-06
6.4992e-09
4.21504e-06
7.09019e-09
4.2129e-06
7.46412e-09
4.21069e-06
7.62693e-09
4.20849e-06
7.59033e-09
4.20635e-06
7.37063e-09
4.20431e-06
6.98762e-09
4.20242e-06
6.46335e-09
4.20071e-06
5.821e-09
4.19922e-06
5.08415e-09
4.19795e-06
4.27629e-09
4.19693e-06
3.42046e-09
4.19617e-06
2.53879e-09
4.19567e-06
1.65233e-09
4.19542e-06
7.81234e-10
4.19541e-06
-5.5179e-11
4.19564e-06
-8.38743e-10
4.19608e-06
-1.55282e-09
4.1967e-06
-2.18256e-09
4.19749e-06
-2.71507e-09
4.19841e-06
-3.13987e-09
4.19942e-06
-3.44929e-09
4.20049e-06
-3.63897e-09
4.20159e-06
-3.70814e-09
4.20269e-06
-3.65982e-09
4.20374e-06
-3.50067e-09
4.20473e-06
-3.24064e-09
4.20563e-06
-2.89266e-09
4.20641e-06
-2.47214e-09
4.20706e-06
-1.99627e-09
4.20757e-06
-1.4832e-09
4.20793e-06
-9.51309e-10
4.20813e-06
-4.18796e-10
4.20819e-06
9.71037e-11
4.20811e-06
5.80852e-10
4.20789e-06
1.01882e-09
4.20756e-06
1.39921e-09
4.20713e-06
1.71235e-09
4.20661e-06
1.9512e-09
4.20603e-06
2.11136e-09
4.2054e-06
2.19069e-09
4.20474e-06
2.18947e-09
4.20406e-06
2.11115e-09
4.20337e-06
1.96258e-09
4.20269e-06
1.75395e-09
4.20203e-06
1.49959e-09
4.20137e-06
1.21892e-09
4.20072e-06
9.36308e-10
4.20007e-06
6.80836e-10
4.19941e-06
4.85491e-10
4.19871e-06
3.8439e-10
4.19796e-06
4.0895e-10
4.19712e-06
5.81844e-10
4.19618e-06
9.11284e-10
4.19512e-06
1.39275e-09
4.19392e-06
1.95745e-09
2.31101e-09
4.75088e-06
1.20394e-08
4.7476e-06
1.14036e-08
4.74438e-06
1.03345e-08
4.74128e-06
9.15166e-09
4.73834e-06
7.98585e-09
4.73561e-06
6.89736e-09
4.7331e-06
5.92336e-09
4.73081e-06
5.07779e-09
4.72875e-06
4.35695e-09
4.72691e-06
3.74666e-09
4.72528e-06
3.22797e-09
4.72384e-06
2.77896e-09
4.72257e-06
2.37747e-09
4.72148e-06
2.00437e-09
4.72053e-06
1.64281e-09
4.71974e-06
1.27783e-09
4.71909e-06
8.9887e-10
4.71857e-06
4.98866e-10
4.7182e-06
7.288e-11
4.71797e-06
-3.80982e-10
4.71788e-06
-8.61001e-10
4.71793e-06
-1.36334e-09
4.71812e-06
-1.88258e-09
4.71845e-06
-2.41135e-09
4.71892e-06
-2.94076e-09
4.71953e-06
-3.46141e-09
4.72027e-06
-3.96402e-09
4.72113e-06
-4.43965e-09
4.72211e-06
-4.87975e-09
4.72318e-06
-5.27667e-09
4.72435e-06
-5.62427e-09
4.7256e-06
-5.91793e-09
4.72692e-06
-6.15411e-09
4.72828e-06
-6.33026e-09
4.72969e-06
-6.44502e-09
4.73111e-06
-6.49802e-09
4.73254e-06
-6.48925e-09
4.73396e-06
-6.41876e-09
4.73536e-06
-6.28668e-09
4.73672e-06
-6.09323e-09
4.73803e-06
-5.83836e-09
4.73926e-06
-5.52155e-09
4.74042e-06
-5.14169e-09
4.74148e-06
-4.69725e-09
4.74242e-06
-4.18646e-09
4.74323e-06
-3.60738e-09
4.7439e-06
-2.95808e-09
4.74441e-06
-2.23707e-09
4.74473e-06
-1.44376e-09
4.74487e-06
-5.79128e-10
4.74479e-06
3.53748e-10
4.74449e-06
1.34914e-09
4.74395e-06
2.39808e-09
4.74317e-06
3.48779e-09
4.74214e-06
4.60117e-09
4.74086e-06
5.71645e-09
4.73934e-06
6.80724e-09
4.73759e-06
7.84292e-09
4.73563e-06
8.78932e-09
4.73349e-06
9.60969e-09
4.7312e-06
1.0266e-08
4.72881e-06
1.07205e-08
4.72638e-06
1.0938e-08
4.72395e-06
1.08876e-08
4.72161e-06
1.05453e-08
4.7194e-06
9.89568e-09
4.71741e-06
8.93361e-09
4.71569e-06
7.66566e-09
4.71431e-06
6.11091e-09
4.71333e-06
4.30129e-09
4.71278e-06
2.28121e-09
4.71271e-06
1.06584e-10
4.71312e-06
-2.1568e-09
4.71403e-06
-4.43543e-09
4.71542e-06
-6.65056e-09
4.71725e-06
-8.72125e-09
4.71947e-06
-1.05678e-08
4.72202e-06
-1.21156e-08
4.72482e-06
-1.32993e-08
4.72778e-06
-1.40668e-08
4.73081e-06
-1.4383e-08
4.7338e-06
-1.42331e-08
4.73665e-06
-1.36251e-08
4.73927e-06
-1.25901e-08
4.7416e-06
-1.11821e-08
4.74355e-06
-9.47523e-09
4.74509e-06
-7.55943e-09
4.7462e-06
-5.53466e-09
4.74687e-06
-3.50404e-09
4.74713e-06
-1.56665e-09
4.74701e-06
1.89439e-10
4.74657e-06
1.69309e-09
4.74588e-06
2.89457e-09
4.74501e-06
3.76813e-09
4.74401e-06
4.31259e-09
4.74297e-06
4.54999e-09
4.74194e-06
4.52261e-09
4.74096e-06
4.28869e-09
4.74005e-06
3.91722e-09
4.73924e-06
3.48234e-09
4.73851e-06
3.05764e-09
4.73785e-06
2.71082e-09
4.73723e-06
2.49887e-09
4.73661e-06
2.46396e-09
4.73595e-06
2.63015e-09
4.73521e-06
3.00125e-09
4.73434e-06
3.55983e-09
4.73332e-06
4.26784e-09
4.73214e-06
5.06867e-09
4.73078e-06
5.89087e-09
4.72927e-06
6.65329e-09
4.72764e-06
7.27131e-09
4.72594e-06
7.66382e-09
4.72423e-06
7.76022e-09
4.72259e-06
7.50685e-09
4.72109e-06
6.87218e-09
4.71983e-06
5.8501e-09
4.71887e-06
4.46114e-09
4.71828e-06
2.75126e-09
4.71812e-06
7.88605e-10
4.71841e-06
-1.34148e-09
4.71918e-06
-3.54263e-09
4.72042e-06
-5.71416e-09
4.7221e-06
-7.75757e-09
4.72417e-06
-9.58236e-09
4.72657e-06
-1.11107e-08
4.72923e-06
-1.22806e-08
4.73205e-06
-1.30488e-08
4.73495e-06
-1.33906e-08
4.73784e-06
-1.33006e-08
4.74062e-06
-1.27911e-08
4.74321e-06
-1.18904e-08
4.74553e-06
-1.06408e-08
4.74753e-06
-9.09581e-09
4.74914e-06
-7.31787e-09
4.75034e-06
-5.37515e-09
4.7511e-06
-3.3387e-09
4.75142e-06
-1.27936e-09
4.7513e-06
7.35128e-10
4.75077e-06
2.64278e-09
4.74985e-06
4.38952e-09
4.7486e-06
5.93082e-09
4.74706e-06
7.23264e-09
4.74529e-06
8.27196e-09
4.74334e-06
9.03663e-09
4.74128e-06
9.52475e-09
4.73916e-06
9.74339e-09
4.73705e-06
9.70706e-09
4.73498e-06
9.43612e-09
4.73301e-06
8.95534e-09
4.73119e-06
8.29253e-09
4.72953e-06
7.47719e-09
4.72807e-06
6.5393e-09
4.72684e-06
5.50866e-09
4.72585e-06
4.41461e-09
4.7251e-06
3.28561e-09
4.7246e-06
2.1489e-09
4.72436e-06
1.03035e-09
4.72435e-06
-4.54192e-11
4.72456e-06
-1.05513e-09
4.72499e-06
-1.97727e-09
4.7256e-06
-2.79262e-09
4.72637e-06
-3.48466e-09
4.72727e-06
-4.03991e-09
4.72827e-06
-4.44852e-09
4.72933e-06
-4.70475e-09
4.73043e-06
-4.80751e-09
4.73153e-06
-4.76052e-09
4.7326e-06
-4.57207e-09
4.73362e-06
-4.25465e-09
4.73455e-06
-3.82438e-09
4.73538e-06
-3.30052e-09
4.73609e-06
-2.70465e-09
4.73666e-06
-2.05956e-09
4.7371e-06
-1.38817e-09
4.73739e-06
-7.12899e-10
4.73754e-06
-5.49742e-11
4.73756e-06
5.66294e-10
4.73744e-06
1.13419e-09
4.73721e-06
1.63493e-09
4.73686e-06
2.05769e-09
4.73642e-06
2.39474e-09
4.73589e-06
2.64156e-09
4.73528e-06
2.79704e-09
4.73461e-06
2.86354e-09
4.73387e-06
2.84688e-09
4.73308e-06
2.75652e-09
4.73223e-06
2.60591e-09
4.73131e-06
2.41296e-09
4.73033e-06
2.20018e-09
4.72928e-06
1.99421e-09
4.72813e-06
1.82605e-09
4.72689e-06
1.72937e-09
4.72553e-06
1.73718e-09
4.72406e-06
1.87852e-09
4.72247e-06
2.17141e-09
4.72077e-06
2.61747e-09
4.71896e-06
3.20229e-09
4.71707e-06
3.8478e-09
4.25449e-09
5.17644e-06