/*--------------------------------*- C++ -*----------------------------------*\
| =========                 |                                                 |
| \\      /  F ield         | OpenFOAM: The Open Source CFD Toolbox           |
|  \\    /   O peration     | Version:  2406                                  |
|   \\  /    A nd           | Website:  www.openfoam.com                      |
|    \\/     M anipulation  |                                                 |
\*---------------------------------------------------------------------------*/
FoamFile
{
    version     2.0;
    format      ascii;
    arch        "LSB;label=32;scalar=64";
    class       volVectorField;
    location    "0.1";
    object      U;
}
// * * * * * * * * * * * * * * * * * * * * * * * * * * * * * * * * * * * * * //

dimensions      [0 1 -1 0 0 0 0];

internalField   nonuniform List<vector> 
4000
(
(0.0130568 7.5039e-06 0)
(0.0130419 5.28355e-06 0)
(0.01303 3.26769e-06 0)
(0.0130235 1.94059e-06 0)
(0.0130194 1.06054e-06 0)
(0.0130171 4.7165e-07 0)
(0.0130161 8.19553e-08 0)
(0.013016 -1.61759e-07 0)
(0.0130164 -2.93797e-07 0)
(0.0130171 -3.52439e-07 0)
(0.0130179 -3.68499e-07 0)
(0.0130188 -3.54112e-07 0)
(0.0130196 -3.31825e-07 0)
(0.0130204 -3.10839e-07 0)
(0.0130212 -2.90087e-07 0)
(0.013022 -2.87248e-07 0)
(0.0130229 -3.03601e-07 0)
(0.0130238 -3.34012e-07 0)
(0.013025 -3.78735e-07 0)
(0.0130263 -4.39699e-07 0)
(0.0130279 -5.12578e-07 0)
(0.0130298 -5.9864e-07 0)
(0.013032 -6.95964e-07 0)
(0.0130345 -7.99196e-07 0)
(0.0130375 -9.05376e-07 0)
(0.0130408 -1.00944e-06 0)
(0.0130445 -1.10988e-06 0)
(0.0130485 -1.20641e-06 0)
(0.0130528 -1.29599e-06 0)
(0.0130575 -1.37616e-06 0)
(0.0130624 -1.44434e-06 0)
(0.0130675 -1.49807e-06 0)
(0.0130728 -1.53917e-06 0)
(0.0130782 -1.56998e-06 0)
(0.0130837 -1.5884e-06 0)
(0.0130893 -1.59286e-06 0)
(0.0130948 -1.58521e-06 0)
(0.0131003 -1.56516e-06 0)
(0.0131057 -1.52952e-06 0)
(0.0131109 -1.4787e-06 0)
(0.0131159 -1.41706e-06 0)
(0.0131207 -1.34584e-06 0)
(0.0131252 -1.26135e-06 0)
(0.0131294 -1.16093e-06 0)
(0.0131331 -1.04597e-06 0)
(0.0131365 -9.17369e-07 0)
(0.0131393 -7.71981e-07 0)
(0.0131416 -6.06354e-07 0)
(0.0131433 -4.21576e-07 0)
(0.0131443 -2.21256e-07 0)
(0.0131445 -5.57367e-09 0)
(0.013144 2.29573e-07 0)
(0.0131425 4.86912e-07 0)
(0.0131402 7.63353e-07 0)
(0.0131369 1.05166e-06 0)
(0.0131327 1.34486e-06 0)
(0.0131275 1.63743e-06 0)
(0.0131213 1.92273e-06 0)
(0.0131142 2.19083e-06 0)
(0.0131063 2.42978e-06 0)
(0.0130977 2.62854e-06 0)
(0.0130885 2.77775e-06 0)
(0.013079 2.86784e-06 0)
(0.0130693 2.88746e-06 0)
(0.0130598 2.82555e-06 0)
(0.0130507 2.67541e-06 0)
(0.0130422 2.43675e-06 0)
(0.0130347 2.11368e-06 0)
(0.0130284 1.71132e-06 0)
(0.0130237 1.23486e-06 0)
(0.0130206 6.92018e-07 0)
(0.0130195 9.59176e-08 0)
(0.0130204 -5.35074e-07 0)
(0.0130234 -1.17749e-06 0)
(0.0130285 -1.80778e-06 0)
(0.0130357 -2.40297e-06 0)
(0.0130446 -2.9403e-06 0)
(0.0130552 -3.39687e-06 0)
(0.0130671 -3.7507e-06 0)
(0.01308 -3.98332e-06 0)
(0.0130934 -4.08236e-06 0)
(0.0131069 -4.04273e-06 0)
(0.0131201 -3.8662e-06 0)
(0.0131324 -3.5607e-06 0)
(0.0131436 -3.1404e-06 0)
(0.0131533 -2.6265e-06 0)
(0.0131613 -2.04741e-06 0)
(0.0131673 -1.43685e-06 0)
(0.0131713 -8.30175e-07 0)
(0.0131735 -2.60013e-07 0)
(0.0131739 2.46634e-07 0)
(0.0131727 6.69643e-07 0)
(0.0131703 9.95314e-07 0)
(0.013167 1.21651e-06 0)
(0.0131631 1.33282e-06 0)
(0.0131588 1.35076e-06 0)
(0.0131546 1.28334e-06 0)
(0.0131507 1.14899e-06 0)
(0.0131471 9.70171e-07 0)
(0.0131441 7.71854e-07 0)
(0.0131416 5.79738e-07 0)
(0.0131397 4.18008e-07 0)
(0.0131381 3.0694e-07 0)
(0.0131367 2.61106e-07 0)
(0.0131353 2.88706e-07 0)
(0.0131337 3.91753e-07 0)
(0.0131317 5.66235e-07 0)
(0.013129 8.01687e-07 0)
(0.0131255 1.08072e-06 0)
(0.0131211 1.37968e-06 0)
(0.0131159 1.67091e-06 0)
(0.0131098 1.92571e-06 0)
(0.0131031 2.1169e-06 0)
(0.013096 2.2203e-06 0)
(0.0130888 2.21624e-06 0)
(0.0130819 2.09161e-06 0)
(0.0130757 1.84195e-06 0)
(0.0130705 1.47246e-06 0)
(0.0130667 9.97266e-07 0)
(0.0130646 4.37595e-07 0)
(0.0130645 -1.80154e-07 0)
(0.0130664 -8.25995e-07 0)
(0.0130704 -1.46787e-06 0)
(0.0130765 -2.0738e-06 0)
(0.0130844 -2.61432e-06 0)
(0.0130939 -3.06469e-06 0)
(0.0131046 -3.40611e-06 0)
(0.0131163 -3.62598e-06 0)
(0.0131285 -3.71786e-06 0)
(0.0131408 -3.68155e-06 0)
(0.0131527 -3.52314e-06 0)
(0.013164 -3.25419e-06 0)
(0.0131742 -2.88994e-06 0)
(0.0131831 -2.44707e-06 0)
(0.0131905 -1.94257e-06 0)
(0.0131961 -1.39404e-06 0)
(0.0131998 -8.20702e-07 0)
(0.0132017 -2.4351e-07 0)
(0.0132016 3.16555e-07 0)
(0.0131998 8.40902e-07 0)
(0.0131963 1.31479e-06 0)
(0.0131913 1.72711e-06 0)
(0.013185 2.06917e-06 0)
(0.0131777 2.33418e-06 0)
(0.0131697 2.51829e-06 0)
(0.0131612 2.62203e-06 0)
(0.0131524 2.65025e-06 0)
(0.0131436 2.60989e-06 0)
(0.013135 2.50781e-06 0)
(0.0131268 2.35074e-06 0)
(0.0131192 2.14703e-06 0)
(0.0131123 1.90684e-06 0)
(0.0131063 1.63998e-06 0)
(0.0131011 1.35399e-06 0)
(0.013097 1.05511e-06 0)
(0.0130938 7.50205e-07 0)
(0.0130916 4.46827e-07 0)
(0.0130905 1.5194e-07 0)
(0.0130903 -1.28263e-07 0)
(0.013091 -3.87716e-07 0)
(0.0130926 -6.20938e-07 0)
(0.0130949 -8.24028e-07 0)
(0.0130979 -9.93971e-07 0)
(0.0131013 -1.12708e-06 0)
(0.0131052 -1.21924e-06 0)
(0.0131093 -1.26799e-06 0)
(0.0131135 -1.27372e-06 0)
(0.0131177 -1.23874e-06 0)
(0.0131217 -1.16577e-06 0)
(0.0131254 -1.05798e-06 0)
(0.0131287 -9.19466e-07 0)
(0.0131315 -7.55614e-07 0)
(0.0131338 -5.73771e-07 0)
(0.0131354 -3.83732e-07 0)
(0.0131365 -1.95056e-07 0)
(0.0131368 -1.26565e-08 0)
(0.0131366 1.62821e-07 0)
(0.0131358 3.28667e-07 0)
(0.0131344 4.7661e-07 0)
(0.0131327 5.98204e-07 0)
(0.0131305 6.90466e-07 0)
(0.0131281 7.51319e-07 0)
(0.0131256 7.7381e-07 0)
(0.013123 7.5288e-07 0)
(0.0131206 6.93924e-07 0)
(0.0131183 6.05844e-07 0)
(0.0131163 4.89233e-07 0)
(0.0131148 3.38376e-07 0)
(0.0131139 1.53318e-07 0)
(0.0131135 -5.34106e-08 0)
(0.0131139 -2.63289e-07 0)
(0.0131149 -4.58777e-07 0)
(0.0131165 -6.18341e-07 0)
(0.0131186 -7.15509e-07 0)
(0.0131209 -7.2734e-07 0)
(0.0131233 -6.33429e-07 0)
(0.0131252 -4.24224e-07 0)
(0.0131267 -1.32389e-07 0)
(0.0131271 1.17224e-07 0)
(0.0131273 1.05517e-07 0)
(0.0354994 2.73972e-05 0)
(0.0354719 2.17716e-05 0)
(0.0354484 1.52672e-05 0)
(0.035433 1.00657e-05 0)
(0.0354219 6.16111e-06 0)
(0.0354145 3.27883e-06 0)
(0.0354099 1.24459e-06 0)
(0.0354075 -1.07561e-07 0)
(0.0354066 -9.26184e-07 0)
(0.0354065 -1.35971e-06 0)
(0.035407 -1.54448e-06 0)
(0.0354077 -1.58171e-06 0)
(0.0354087 -1.55031e-06 0)
(0.0354097 -1.51688e-06 0)
(0.0354109 -1.52631e-06 0)
(0.0354122 -1.60856e-06 0)
(0.0354139 -1.78141e-06 0)
(0.035416 -2.05514e-06 0)
(0.0354186 -2.42854e-06 0)
(0.0354218 -2.89e-06 0)
(0.0354259 -3.43612e-06 0)
(0.0354308 -4.05278e-06 0)
(0.0354366 -4.72957e-06 0)
(0.0354435 -5.44577e-06 0)
(0.0354514 -6.17767e-06 0)
(0.0354603 -6.90544e-06 0)
(0.0354703 -7.61403e-06 0)
(0.0354813 -8.28806e-06 0)
(0.0354932 -8.9089e-06 0)
(0.0355059 -9.46159e-06 0)
(0.0355194 -9.93677e-06 0)
(0.0355335 -1.03262e-05 0)
(0.0355482 -1.0626e-05 0)
(0.0355631 -1.08366e-05 0)
(0.0355784 -1.09564e-05 0)
(0.0355937 -1.09825e-05 0)
(0.035609 -1.09151e-05 0)
(0.0356242 -1.07546e-05 0)
(0.0356391 -1.04995e-05 0)
(0.0356535 -1.01516e-05 0)
(0.0356674 -9.71484e-06 0)
(0.0356806 -9.1891e-06 0)
(0.035693 -8.56861e-06 0)
(0.0357045 -7.84765e-06 0)
(0.0357148 -7.02276e-06 0)
(0.0357239 -6.08913e-06 0)
(0.0357316 -5.03959e-06 0)
(0.0357377 -3.86941e-06 0)
(0.0357421 -2.57962e-06 0)
(0.0357446 -1.17307e-06 0)
(0.035745 3.50844e-07 0)
(0.0357431 1.99342e-06 0)
(0.0357389 3.74738e-06 0)
(0.0357322 5.59149e-06 0)
(0.0357229 7.4936e-06 0)
(0.035711 9.41565e-06 0)
(0.0356965 1.1314e-05 0)
(0.0356794 1.31366e-05 0)
(0.0356599 1.48228e-05 0)
(0.0356383 1.63062e-05 0)
(0.0356148 1.7519e-05 0)
(0.03559 1.83933e-05 0)
(0.0355643 1.88618e-05 0)
(0.0355384 1.88619e-05 0)
(0.0355129 1.83428e-05 0)
(0.0354885 1.72727e-05 0)
(0.035466 1.56426e-05 0)
(0.0354461 1.34642e-05 0)
(0.0354296 1.07665e-05 0)
(0.0354172 7.59722e-06 0)
(0.0354094 4.02629e-06 0)
(0.0354067 1.4903e-07 0)
(0.0354095 -3.91659e-06 0)
(0.0354178 -8.03489e-06 0)
(0.0354316 -1.20615e-05 0)
(0.0354508 -1.58484e-05 0)
(0.0354748 -1.92478e-05 0)
(0.0355031 -2.21177e-05 0)
(0.0355347 -2.43303e-05 0)
(0.0355689 -2.57813e-05 0)
(0.0356044 -2.63993e-05 0)
(0.0356402 -2.61519e-05 0)
(0.0356751 -2.50485e-05 0)
(0.0357079 -2.31423e-05 0)
(0.0357377 -2.05299e-05 0)
(0.0357637 -1.73489e-05 0)
(0.0357851 -1.37717e-05 0)
(0.0358015 -9.99364e-06 0)
(0.0358129 -6.21731e-06 0)
(0.0358193 -2.63468e-06 0)
(0.0358211 5.877e-07 0)
(0.0358189 3.31904e-06 0)
(0.0358133 5.46928e-06 0)
(0.0358052 6.99136e-06 0)
(0.0357953 7.88175e-06 0)
(0.0357846 8.17958e-06 0)
(0.0357738 7.96347e-06 0)
(0.0357634 7.34479e-06 0)
(0.0357539 6.4579e-06 0)
(0.0357455 5.44865e-06 0)
(0.0357384 4.46284e-06 0)
(0.0357324 3.63569e-06 0)
(0.0357272 3.08248e-06 0)
(0.0357225 2.89053e-06 0)
(0.0357177 3.11264e-06 0)
(0.0357123 3.76279e-06 0)
(0.0357057 4.81417e-06 0)
(0.0356976 6.19939e-06 0)
(0.0356874 7.81304e-06 0)
(0.0356752 9.51734e-06 0)
(0.0356607 1.11518e-05 0)
(0.0356444 1.25465e-05 0)
(0.0356265 1.35365e-05 0)
(0.0356078 1.39765e-05 0)
(0.0355891 1.37533e-05 0)
(0.0355713 1.27966e-05 0)
(0.0355554 1.10867e-05 0)
(0.0355423 8.65785e-06 0)
(0.035533 5.59614e-06 0)
(0.0355282 2.03223e-06 0)
(0.0355285 -1.86918e-06 0)
(0.0355341 -5.92191e-06 0)
(0.0355452 -9.93135e-06 0)
(0.0355615 -1.37072e-05 0)
(0.0355826 -1.70749e-05 0)
(0.0356079 -1.98851e-05 0)
(0.0356365 -2.20208e-05 0)
(0.0356675 -2.34027e-05 0)
(0.0356999 -2.39899e-05 0)
(0.0357325 -2.37792e-05 0)
(0.0357643 -2.28009e-05 0)
(0.0357944 -2.11138e-05 0)
(0.0358217 -1.88007e-05 0)
(0.0358455 -1.59632e-05 0)
(0.0358652 -1.27163e-05 0)
(0.0358803 -9.18406e-06 0)
(0.0358904 -5.49578e-06 0)
(0.0358956 -1.78219e-06 0)
(0.0358957 1.83063e-06 0)
(0.035891 5.22825e-06 0)
(0.035882 8.31346e-06 0)
(0.0358689 1.10086e-05 0)
(0.0358524 1.32553e-05 0)
(0.0358332 1.50145e-05 0)
(0.0358119 1.6267e-05 0)
(0.0357892 1.70143e-05 0)
(0.0357658 1.72773e-05 0)
(0.0357422 1.70909e-05 0)
(0.0357191 1.64973e-05 0)
(0.0356971 1.55435e-05 0)
(0.0356765 1.4281e-05 0)
(0.0356578 1.27664e-05 0)
(0.0356412 1.10568e-05 0)
(0.0356271 9.20554e-06 0)
(0.0356156 7.26214e-06 0)
(0.0356068 5.27512e-06 0)
(0.0356006 3.29155e-06 0)
(0.0355972 1.35478e-06 0)
(0.0355964 -4.95009e-07 0)
(0.0355981 -2.21822e-06 0)
(0.035602 -3.7765e-06 0)
(0.035608 -5.13666e-06 0)
(0.0356157 -6.27212e-06 0)
(0.0356248 -7.16108e-06 0)
(0.035635 -7.78592e-06 0)
(0.0356459 -8.13572e-06 0)
(0.0356571 -8.20894e-06 0)
(0.0356682 -8.01385e-06 0)
(0.035679 -7.56742e-06 0)
(0.0356889 -6.89412e-06 0)
(0.0356979 -6.02488e-06 0)
(0.0357056 -4.99603e-06 0)
(0.0357118 -3.84919e-06 0)
(0.0357165 -2.63065e-06 0)
(0.0357194 -1.38714e-06 0)
(0.0357207 -1.61095e-07 0)
(0.0357203 1.00858e-06 0)
(0.0357184 2.08404e-06 0)
(0.035715 3.03106e-06 0)
(0.0357105 3.82205e-06 0)
(0.035705 4.43301e-06 0)
(0.0356987 4.83946e-06 0)
(0.035692 5.01993e-06 0)
(0.0356852 4.96371e-06 0)
(0.0356785 4.67098e-06 0)
(0.0356723 4.14514e-06 0)
(0.0356668 3.39265e-06 0)
(0.0356625 2.43167e-06 0)
(0.0356594 1.29622e-06 0)
(0.0356578 4.00671e-08 0)
(0.0356578 -1.25774e-06 0)
(0.0356594 -2.49441e-06 0)
(0.0356624 -3.54607e-06 0)
(0.0356666 -4.27803e-06 0)
(0.0356714 -4.56183e-06 0)
(0.0356763 -4.29668e-06 0)
(0.0356806 -3.43906e-06 0)
(0.0356837 -2.02771e-06 0)
(0.0356847 -4.6698e-07 0)
(0.0356835 1.22501e-07 0)
(0.0546311 5.67048e-05 0)
(0.054594 4.88797e-05 0)
(0.0545613 3.75237e-05 0)
(0.0545371 2.71022e-05 0)
(0.0545178 1.85361e-05 0)
(0.0545028 1.17859e-05 0)
(0.0544917 6.75116e-06 0)
(0.0544835 3.20004e-06 0)
(0.0544775 8.58351e-07 0)
(0.0544731 -5.76016e-07 0)
(0.0544699 -1.38336e-06 0)
(0.0544675 -1.80888e-06 0)
(0.0544658 -2.06116e-06 0)
(0.0544646 -2.27997e-06 0)
(0.0544639 -2.58693e-06 0)
(0.0544638 -3.06465e-06 0)
(0.0544645 -3.76137e-06 0)
(0.054466 -4.69335e-06 0)
(0.0544685 -5.87694e-06 0)
(0.0544722 -7.29738e-06 0)
(0.0544771 -8.92846e-06 0)
(0.0544835 -1.07417e-05 0)
(0.0544914 -1.26986e-05 0)
(0.054501 -1.47529e-05 0)
(0.0545122 -1.68488e-05 0)
(0.054525 -1.89337e-05 0)
(0.0545395 -2.09599e-05 0)
(0.0545555 -2.28793e-05 0)
(0.054573 -2.46479e-05 0)
(0.0545918 -2.62299e-05 0)
(0.0546118 -2.75951e-05 0)
(0.0546328 -2.87219e-05 0)
(0.0546546 -2.9598e-05 0)
(0.054677 -3.02157e-05 0)
(0.0546998 -3.05684e-05 0)
(0.0547228 -3.06536e-05 0)
(0.0547458 -3.04722e-05 0)
(0.0547686 -3.00253e-05 0)
(0.0547909 -2.93146e-05 0)
(0.0548127 -2.83442e-05 0)
(0.0548336 -2.71153e-05 0)
(0.0548534 -2.56218e-05 0)
(0.0548721 -2.38539e-05 0)
(0.0548893 -2.18031e-05 0)
(0.0549048 -1.94589e-05 0)
(0.0549184 -1.68063e-05 0)
(0.0549299 -1.38311e-05 0)
(0.0549389 -1.05266e-05 0)
(0.0549454 -6.89251e-06 0)
(0.0549489 -2.92915e-06 0)
(0.0549493 1.36183e-06 0)
(0.0549464 5.96692e-06 0)
(0.0549398 1.08497e-05 0)
(0.0549296 1.59486e-05 0)
(0.0549154 2.11818e-05 0)
(0.0548974 2.64496e-05 0)
(0.0548754 3.16306e-05 0)
(0.0548497 3.65798e-05 0)
(0.0548205 4.11315e-05 0)
(0.0547882 4.5108e-05 0)
(0.0547532 4.83262e-05 0)
(0.0547163 5.06011e-05 0)
(0.0546781 5.17538e-05 0)
(0.0546397 5.16238e-05 0)
(0.0546019 5.00846e-05 0)
(0.0545658 4.7057e-05 0)
(0.0545326 4.25139e-05 0)
(0.0545034 3.64823e-05 0)
(0.0544791 2.90441e-05 0)
(0.0544609 2.03407e-05 0)
(0.0544496 1.05758e-05 0)
(0.0544457 1.5315e-08 0)
(0.0544498 -1.10207e-05 0)
(0.0544621 -2.21717e-05 0)
(0.0544824 -3.30513e-05 0)
(0.0545105 -4.32609e-05 0)
(0.0545457 -5.24047e-05 0)
(0.054587 -6.01065e-05 0)
(0.0546333 -6.60319e-05 0)
(0.0546832 -6.99106e-05 0)
(0.054735 -7.15576e-05 0)
(0.0547872 -7.08898e-05 0)
(0.0548381 -6.79363e-05 0)
(0.054886 -6.28438e-05 0)
(0.0549295 -5.58749e-05 0)
(0.0549675 -4.73983e-05 0)
(0.0549988 -3.78682e-05 0)
(0.0550231 -2.77931e-05 0)
(0.05504 -1.7698e-05 0)
(0.0550497 -8.08455e-06 0)
(0.0550527 6.04916e-07 0)
(0.0550498 8.01579e-06 0)
(0.0550421 1.39011e-05 0)
(0.0550305 1.8132e-05 0)
(0.0550165 2.07002e-05 0)
(0.055001 2.17123e-05 0)
(0.0549852 2.13767e-05 0)
(0.0549698 1.9984e-05 0)
(0.0549556 1.78819e-05 0)
(0.054943 1.54471e-05 0)
(0.0549319 1.30563e-05 0)
(0.0549224 1.1059e-05 0)
(0.0549139 9.75308e-06 0)
(0.0549059 9.36448e-06 0)
(0.0548978 1.003e-05 0)
(0.0548888 1.17854e-05 0)
(0.0548781 1.4558e-05 0)
(0.0548651 1.81677e-05 0)
(0.0548494 2.23349e-05 0)
(0.0548306 2.66979e-05 0)
(0.0548089 3.08384e-05 0)
(0.0547845 3.43148e-05 0)
(0.0547582 3.66992e-05 0)
(0.0547308 3.76153e-05 0)
(0.0547035 3.6772e-05 0)
(0.0546777 3.3992e-05 0)
(0.0546548 2.92303e-05 0)
(0.0546362 2.25824e-05 0)
(0.0546231 1.42781e-05 0)
(0.0546165 4.6641e-06 0)
(0.0546174 -5.82436e-06 0)
(0.054626 -1.66957e-05 0)
(0.0546426 -2.74366e-05 0)
(0.0546668 -3.75456e-05 0)
(0.0546979 -4.65629e-05 0)
(0.054735 -5.40956e-05 0)
(0.054777 -5.98347e-05 0)
(0.0548225 -6.35657e-05 0)
(0.05487 -6.5173e-05 0)
(0.0549178 -6.46384e-05 0)
(0.0549646 -6.20339e-05 0)
(0.0550087 -5.75103e-05 0)
(0.0550489 -5.12844e-05 0)
(0.0550841 -4.36262e-05 0)
(0.0551132 -3.48464e-05 0)
(0.0551356 -2.52836e-05 0)
(0.0551508 -1.52905e-05 0)
(0.0551586 -5.21884e-06 0)
(0.0551592 4.59476e-06 0)
(0.0551526 1.38435e-05 0)
(0.0551396 2.22627e-05 0)
(0.0551207 2.96385e-05 0)
(0.0550968 3.58109e-05 0)
(0.0550687 4.06744e-05 0)
(0.0550376 4.41772e-05 0)
(0.0550042 4.63189e-05 0)
(0.0549697 4.71462e-05 0)
(0.054935 4.67445e-05 0)
(0.0549009 4.52253e-05 0)
(0.0548682 4.27158e-05 0)
(0.0548376 3.93534e-05 0)
(0.0548098 3.5285e-05 0)
(0.0547851 3.0662e-05 0)
(0.0547639 2.56327e-05 0)
(0.0547466 2.03364e-05 0)
(0.0547332 1.49063e-05 0)
(0.0547238 9.47237e-06 0)
(0.0547184 4.15846e-06 0)
(0.0547169 -9.21963e-07 0)
(0.0547191 -5.664e-06 0)
(0.0547247 -9.96708e-06 0)
(0.0547333 -1.37368e-05 0)
(0.0547445 -1.68922e-05 0)
(0.0547578 -1.93711e-05 0)
(0.0547728 -2.11301e-05 0)
(0.0547888 -2.21443e-05 0)
(0.0548054 -2.24088e-05 0)
(0.054822 -2.19419e-05 0)
(0.054838 -2.07869e-05 0)
(0.054853 -1.90104e-05 0)
(0.0548666 -1.66984e-05 0)
(0.0548783 -1.39506e-05 0)
(0.054888 -1.0876e-05 0)
(0.0548953 -7.59141e-06 0)
(0.0549002 -4.21789e-06 0)
(0.0549026 -8.7399e-07 0)
(0.0549027 2.32907e-06 0)
(0.0549004 5.28713e-06 0)
(0.054896 7.90502e-06 0)
(0.0548899 1.01025e-05 0)
(0.0548822 1.18156e-05 0)
(0.0548733 1.29912e-05 0)
(0.0548637 1.35847e-05 0)
(0.0548537 1.35668e-05 0)
(0.0548438 1.29273e-05 0)
(0.0548343 1.16725e-05 0)
(0.0548257 9.82831e-06 0)
(0.0548183 7.4543e-06 0)
(0.0548125 4.64972e-06 0)
(0.0548084 1.55424e-06 0)
(0.0548062 -1.64008e-06 0)
(0.0548059 -4.68343e-06 0)
(0.0548072 -7.28234e-06 0)
(0.0548097 -9.1141e-06 0)
(0.054813 -9.86587e-06 0)
(0.0548163 -9.30899e-06 0)
(0.0548186 -7.33425e-06 0)
(0.0548192 -3.94382e-06 0)
(0.0548167 2.23884e-07 0)
(0.0548109 2.42766e-06 0)
(0.0707699 9.50104e-05 0)
(0.070722 8.51879e-05 0)
(0.0706779 6.94718e-05 0)
(0.0706427 5.39928e-05 0)
(0.0706121 4.04946e-05 0)
(0.0705859 2.93271e-05 0)
(0.0705639 2.05767e-05 0)
(0.0705455 1.4044e-05 0)
(0.0705302 9.38606e-06 0)
(0.0705173 6.1914e-06 0)
(0.0705064 4.03636e-06 0)
(0.0704972 2.55055e-06 0)
(0.0704894 1.41543e-06 0)
(0.070483 3.62203e-07 0)
(0.0704777 -7.96504e-07 0)
(0.0704738 -2.18877e-06 0)
(0.0704711 -3.92671e-06 0)
(0.0704699 -6.05501e-06 0)
(0.0704703 -8.57864e-06 0)
(0.0704724 -1.15013e-05 0)
(0.0704763 -1.47868e-05 0)
(0.0704823 -1.83741e-05 0)
(0.0704902 -2.21952e-05 0)
(0.0705004 -2.61735e-05 0)
(0.0705127 -3.02169e-05 0)
(0.0705271 -3.42281e-05 0)
(0.0705437 -3.81165e-05 0)
(0.0705623 -4.17992e-05 0)
(0.0705828 -4.51994e-05 0)
(0.0706051 -4.82479e-05 0)
(0.0706288 -5.08894e-05 0)
(0.0706539 -5.30837e-05 0)
(0.0706801 -5.48028e-05 0)
(0.070707 -5.60283e-05 0)
(0.0707346 -5.67502e-05 0)
(0.0707625 -5.69646e-05 0)
(0.0707904 -5.66718e-05 0)
(0.0708181 -5.58758e-05 0)
(0.0708454 -5.45827e-05 0)
(0.0708719 -5.27948e-05 0)
(0.0708975 -5.05074e-05 0)
(0.0709218 -4.77106e-05 0)
(0.0709445 -4.43934e-05 0)
(0.0709656 -4.05421e-05 0)
(0.0709845 -3.61366e-05 0)
(0.0710011 -3.11528e-05 0)
(0.0710151 -2.55707e-05 0)
(0.0710261 -1.93784e-05 0)
(0.0710339 -1.25698e-05 0)
(0.0710382 -5.14401e-06 0)
(0.0710386 2.88542e-06 0)
(0.0710349 1.14771e-05 0)
(0.0710268 2.05544e-05 0)
(0.0710142 3.00048e-05 0)
(0.0709968 3.96817e-05 0)
(0.0709747 4.94006e-05 0)
(0.0709479 5.89346e-05 0)
(0.0709165 6.80152e-05 0)
(0.070881 7.63396e-05 0)
(0.0708416 8.35832e-05 0)
(0.0707991 8.94096e-05 0)
(0.0707543 9.34819e-05 0)
(0.070708 9.54786e-05 0)
(0.0706614 9.51165e-05 0)
(0.0706157 9.2174e-05 0)
(0.0705721 8.65099e-05 0)
(0.0705319 7.80742e-05 0)
(0.0704966 6.69168e-05 0)
(0.0704673 5.31941e-05 0)
(0.0704452 3.71761e-05 0)
(0.0704314 1.92468e-05 0)
(0.0704266 -1.01916e-07 0)
(0.0704313 -2.02861e-05 0)
(0.0704457 -4.06506e-05 0)
(0.0704698 -6.04923e-05 0)
(0.0705031 -7.90862e-05 0)
(0.0705448 -9.57143e-05 0)
(0.0705939 -0.000109699 0)
(0.0706488 -0.000120442 0)
(0.0707079 -0.000127461 0)
(0.0707693 -0.000130428 0)
(0.0708312 -0.000129197 0)
(0.0708914 -0.000123826 0)
(0.0709482 -0.000114589 0)
(0.0709997 -0.000101964 0)
(0.0710445 -8.66183e-05 0)
(0.0710816 -6.93677e-05 0)
(0.0711102 -5.11219e-05 0)
(0.0711302 -3.28202e-05 0)
(0.0711416 -1.53627e-05 0)
(0.071145 4.52637e-07 0)
(0.0711415 1.39827e-05 0)
(0.0711321 2.47773e-05 0)
(0.0711182 3.26009e-05 0)
(0.0711012 3.74376e-05 0)
(0.0710825 3.94806e-05 0)
(0.0710634 3.9106e-05 0)
(0.0710447 3.68351e-05 0)
(0.0710274 3.32892e-05 0)
(0.0710117 2.91396e-05 0)
(0.0709978 2.5057e-05 0)
(0.0709856 2.16636e-05 0)
(0.0709746 1.94894e-05 0)
(0.0709641 1.89343e-05 0)
(0.0709534 2.02379e-05 0)
(0.0709415 2.34572e-05 0)
(0.0709276 2.84559e-05 0)
(0.070911 3.49052e-05 0)
(0.0708912 4.23008e-05 0)
(0.0708679 4.9994e-05 0)
(0.0708412 5.72385e-05 0)
(0.0708116 6.32485e-05 0)
(0.0707797 6.72643e-05 0)
(0.0707468 6.86194e-05 0)
(0.0707142 6.6802e-05 0)
(0.0706835 6.1504e-05 0)
(0.0706563 5.26534e-05 0)
(0.0706343 4.04263e-05 0)
(0.0706189 2.52378e-05 0)
(0.0706114 7.71113e-06 0)
(0.0706127 -1.1371e-05 0)
(0.0706233 -3.1125e-05 0)
(0.0706432 -5.06288e-05 0)
(0.0706723 -6.89818e-05 0)
(0.0707096 -8.53577e-05 0)
(0.070754 -9.90482e-05 0)
(0.0708043 -0.000109495 0)
(0.0708587 -0.000116307 0)
(0.0709154 -0.000119271 0)
(0.0709727 -0.000118346 0)
(0.0710287 -0.000113652 0)
(0.0710817 -0.000105456 0)
(0.07113 -9.41454e-05 0)
(0.0711722 -8.02091e-05 0)
(0.0712074 -6.42115e-05 0)
(0.0712345 -4.67696e-05 0)
(0.0712531 -2.85254e-05 0)
(0.0712629 -1.01194e-05 0)
(0.0712639 7.83737e-06 0)
(0.0712565 2.47874e-05 0)
(0.0712413 4.02471e-05 0)
(0.071219 5.3822e-05 0)
(0.0711907 6.52157e-05 0)
(0.0711573 7.42332e-05 0)
(0.0711201 8.07777e-05 0)
(0.0710803 8.48439e-05 0)
(0.0710389 8.65073e-05 0)
(0.0709972 8.59116e-05 0)
(0.0709562 8.3253e-05 0)
(0.0709167 7.87632e-05 0)
(0.0708798 7.2695e-05 0)
(0.070846 6.53132e-05 0)
(0.070816 5.68891e-05 0)
(0.0707902 4.76925e-05 0)
(0.070769 3.79835e-05 0)
(0.0707525 2.80089e-05 0)
(0.0707409 1.80064e-05 0)
(0.0707342 8.205e-06 0)
(0.0707321 -1.17929e-06 0)
(0.0707344 -9.94769e-06 0)
(0.0707409 -1.79168e-05 0)
(0.0707511 -2.49175e-05 0)
(0.0707644 -3.08017e-05 0)
(0.0707805 -3.5451e-05 0)
(0.0707985 -3.87826e-05 0)
(0.070818 -4.07501e-05 0)
(0.0708381 -4.13457e-05 0)
(0.0708584 -4.06027e-05 0)
(0.0708781 -3.85981e-05 0)
(0.0708967 -3.54497e-05 0)
(0.0709136 -3.13117e-05 0)
(0.0709284 -2.63665e-05 0)
(0.0709408 -2.08145e-05 0)
(0.0709505 -1.48645e-05 0)
(0.0709574 -8.73021e-06 0)
(0.0709613 -2.62518e-06 0)
(0.0709624 3.24631e-06 0)
(0.0709607 8.69828e-06 0)
(0.0709565 1.35649e-05 0)
(0.07095 1.7699e-05 0)
(0.0709416 2.09768e-05 0)
(0.0709317 2.33054e-05 0)
(0.0709206 2.46218e-05 0)
(0.0709088 2.48852e-05 0)
(0.0708967 2.4078e-05 0)
(0.0708848 2.22177e-05 0)
(0.0708734 1.93664e-05 0)
(0.0708629 1.56371e-05 0)
(0.0708535 1.1204e-05 0)
(0.0708455 6.31244e-06 0)
(0.0708389 1.29096e-06 0)
(0.0708336 -3.45106e-06 0)
(0.0708294 -7.43939e-06 0)
(0.0708259 -1.01554e-05 0)
(0.0708226 -1.11032e-05 0)
(0.0708187 -9.9097e-06 0)
(0.0708135 -6.39471e-06 0)
(0.0708063 -5.37515e-07 0)
(0.0707948 6.72336e-06 0)
(0.0707799 1.10114e-05 0)
(0.0841781 0.000144005 0)
(0.0841175 0.000132488 0)
(0.0840599 0.000113364 0)
(0.0840114 9.36186e-05 0)
(0.0839666 7.55672e-05 0)
(0.0839257 5.99549e-05 0)
(0.0838893 4.70781e-05 0)
(0.083857 3.68932e-05 0)
(0.0838285 2.90573e-05 0)
(0.0838035 2.31345e-05 0)
(0.0837816 1.86444e-05 0)
(0.0837624 1.51102e-05 0)
(0.0837458 1.21367e-05 0)
(0.0837314 9.3817e-06 0)
(0.0837193 6.56749e-06 0)
(0.0837092 3.49961e-06 0)
(0.0837013 3.92594e-08 0)
(0.0836954 -3.90891e-06 0)
(0.0836918 -8.3769e-06 0)
(0.0836905 -1.33613e-05 0)
(0.0836915 -1.88251e-05 0)
(0.083695 -2.46933e-05 0)
(0.083701 -3.08731e-05 0)
(0.0837096 -3.7251e-05 0)
(0.0837207 -4.3693e-05 0)
(0.0837344 -5.00644e-05 0)
(0.0837506 -5.62342e-05 0)
(0.0837691 -6.2075e-05 0)
(0.0837899 -6.74718e-05 0)
(0.0838127 -7.23245e-05 0)
(0.0838372 -7.65469e-05 0)
(0.0838634 -8.00737e-05 0)
(0.0838908 -8.28627e-05 0)
(0.0839193 -8.48862e-05 0)
(0.0839485 -8.61265e-05 0)
(0.0839781 -8.65759e-05 0)
(0.0840079 -8.62369e-05 0)
(0.0840376 -8.51156e-05 0)
(0.0840668 -8.32154e-05 0)
(0.0840953 -8.05352e-05 0)
(0.0841228 -7.70712e-05 0)
(0.084149 -7.28154e-05 0)
(0.0841736 -6.77525e-05 0)
(0.0841963 -6.18594e-05 0)
(0.0842168 -5.51079e-05 0)
(0.0842348 -4.74688e-05 0)
(0.0842499 -3.89158e-05 0)
(0.0842619 -2.94277e-05 0)
(0.0842703 -1.89923e-05 0)
(0.084275 -7.61481e-06 0)
(0.0842754 4.6708e-06 0)
(0.0842715 1.77912e-05 0)
(0.0842628 3.16277e-05 0)
(0.0842492 4.60124e-05 0)
(0.0842305 6.07224e-05 0)
(0.0842067 7.54737e-05 0)
(0.0841778 8.99186e-05 0)
(0.0841441 0.00010365 0)
(0.0841058 0.000116214 0)
(0.0840635 0.000127118 0)
(0.0840179 0.000135856 0)
(0.0839697 0.000141923 0)
(0.08392 0.000144841 0)
(0.0838699 0.000144193 0)
(0.0838208 0.000139654 0)
(0.0837739 0.000131013 0)
(0.0837307 0.000118198 0)
(0.0836926 0.000101289 0)
(0.083661 8.0529e-05 0)
(0.0836371 5.63365e-05 0)
(0.0836219 2.92982e-05 0)
(0.0836162 1.58525e-07 0)
(0.0836206 -3.02038e-05 0)
(0.0836354 -6.08047e-05 0)
(0.0836603 -9.05894e-05 0)
(0.0836949 -0.000118471 0)
(0.0837384 -0.000143375 0)
(0.0837896 -0.000164294 0)
(0.083847 -0.000180338 0)
(0.0839087 -0.000190795 0)
(0.0839729 -0.000195183 0)
(0.0840374 -0.000193293 0)
(0.0841002 -0.000185219 0)
(0.0841592 -0.000171374 0)
(0.0842127 -0.000152479 0)
(0.0842592 -0.00012953 0)
(0.0842975 -0.000103742 0)
(0.0843268 -7.64654e-05 0)
(0.084347 -4.90948e-05 0)
(0.0843581 -2.29691e-05 0)
(0.084361 7.22802e-07 0)
(0.0843564 2.10204e-05 0)
(0.0843458 3.72507e-05 0)
(0.0843304 4.90617e-05 0)
(0.0843118 5.64306e-05 0)
(0.0842914 5.96467e-05 0)
(0.0842705 5.92719e-05 0)
(0.0842502 5.60835e-05 0)
(0.0842312 5.10058e-05 0)
(0.084214 4.50353e-05 0)
(0.0841987 3.9166e-05 0)
(0.084185 3.4318e-05 0)
(0.0841726 3.12721e-05 0)
(0.0841606 3.06138e-05 0)
(0.0841483 3.2688e-05 0)
(0.0841347 3.75678e-05 0)
(0.084119 4.50387e-05 0)
(0.0841005 5.46032e-05 0)
(0.0840785 6.55061e-05 0)
(0.084053 7.67836e-05 0)
(0.0840239 8.73316e-05 0)
(0.0839918 9.59923e-05 0)
(0.0839575 0.00010165 0)
(0.0839223 0.000103328 0)
(0.0838875 0.000100279 0)
(0.0838548 9.20591e-05 0)
(0.083826 7.85712e-05 0)
(0.0838027 6.00843e-05 0)
(0.0837865 3.72176e-05 0)
(0.0837787 1.08961e-05 0)
(0.0837801 -1.77192e-05 0)
(0.0837913 -4.73168e-05 0)
(0.0838125 -7.65278e-05 0)
(0.0838432 -0.000104014 0)
(0.0838827 -0.000128547 0)
(0.0839297 -0.000149073 0)
(0.0839829 -0.000164756 0)
(0.0840405 -0.000175011 0)
(0.0841006 -0.000179514 0)
(0.0841613 -0.000178195 0)
(0.0842207 -0.000171229 0)
(0.0842769 -0.000159003 0)
(0.0843282 -0.000142095 0)
(0.0843732 -0.000121232 0)
(0.0844107 -9.72567e-05 0)
(0.0844398 -7.10921e-05 0)
(0.0844599 -4.36987e-05 0)
(0.0844707 -1.60349e-05 0)
(0.0844723 1.09845e-05 0)
(0.0844649 3.65244e-05 0)
(0.0844492 5.98589e-05 0)
(0.084426 8.03927e-05 0)
(0.0843963 9.76746e-05 0)
(0.0843612 0.000111404 0)
(0.084322 0.00012143 0)
(0.0842798 0.000127736 0)
(0.084236 0.000130429 0)
(0.0841917 0.000129714 0)
(0.084148 0.000125874 0)
(0.084106 0.000119251 0)
(0.0840665 0.000110225 0)
(0.0840304 9.91942e-05 0)
(0.0839982 8.65629e-05 0)
(0.0839705 7.2734e-05 0)
(0.0839476 5.81009e-05 0)
(0.0839297 4.30402e-05 0)
(0.0839171 2.79115e-05 0)
(0.0839096 1.30594e-05 0)
(0.0839071 -1.18685e-06 0)
(0.0839094 -1.45195e-05 0)
(0.0839162 -2.66565e-05 0)
(0.083927 -3.73443e-05 0)
(0.0839412 -4.63621e-05 0)
(0.0839584 -5.3531e-05 0)
(0.0839778 -5.87214e-05 0)
(0.0839989 -6.18599e-05 0)
(0.0840208 -6.29342e-05 0)
(0.0840429 -6.1996e-05 0)
(0.0840646 -5.91605e-05 0)
(0.0840852 -5.46007e-05 0)
(0.0841041 -4.854e-05 0)
(0.084121 -4.12455e-05 0)
(0.0841354 -3.30161e-05 0)
(0.084147 -2.41659e-05 0)
(0.0841557 -1.50126e-05 0)
(0.0841613 -5.87e-06 0)
(0.0841639 2.96272e-06 0)
(0.0841637 1.12137e-05 0)
(0.0841606 1.86433e-05 0)
(0.0841551 2.50416e-05 0)
(0.0841474 3.02328e-05 0)
(0.0841378 3.40859e-05 0)
(0.0841267 3.65169e-05 0)
(0.0841145 3.74802e-05 0)
(0.0841015 3.69687e-05 0)
(0.084088 3.50293e-05 0)
(0.0840743 3.17707e-05 0)
(0.0840606 2.73646e-05 0)
(0.0840471 2.20614e-05 0)
(0.0840339 1.62095e-05 0)
(0.0840209 1.02575e-05 0)
(0.084008 4.74853e-06 0)
(0.083995 3.07355e-07 0)
(0.0839815 -2.40664e-06 0)
(0.0839671 -2.77273e-06 0)
(0.0839513 -3.28601e-07 0)
(0.0839337 5.12645e-06 0)
(0.083914 1.35725e-05 0)
(0.083889 2.37385e-05 0)
(0.083861 3.00186e-05 0)
(0.095063 0.000204821 0)
(0.0949899 0.000192245 0)
(0.0949183 0.000171089 0)
(0.0948555 0.000148262 0)
(0.0947954 0.000126385 0)
(0.0947385 0.000106536 0)
(0.0946859 8.92957e-05 0)
(0.0946379 7.48054e-05 0)
(0.0945945 6.2871e-05 0)
(0.0945556 5.3125e-05 0)
(0.0945209 4.51045e-05 0)
(0.0944902 3.8337e-05 0)
(0.0944632 3.23839e-05 0)
(0.0944397 2.68511e-05 0)
(0.0944193 2.14105e-05 0)
(0.094402 1.58037e-05 0)
(0.0943875 9.8429e-06 0)
(0.0943759 3.39531e-06 0)
(0.0943671 -3.61122e-06 0)
(0.094361 -1.11869e-05 0)
(0.0943578 -1.92962e-05 0)
(0.0943573 -2.78653e-05 0)
(0.0943598 -3.67814e-05 0)
(0.094365 -4.58988e-05 0)
(0.0943731 -5.50573e-05 0)
(0.0943839 -6.40876e-05 0)
(0.0943974 -7.28149e-05 0)
(0.0944134 -8.10728e-05 0)
(0.0944318 -8.87113e-05 0)
(0.0944524 -9.55936e-05 0)
(0.094475 -0.000101605 0)
(0.0944992 -0.000106662 0)
(0.0945249 -0.000110706 0)
(0.0945518 -0.000113692 0)
(0.0945796 -0.000115596 0)
(0.0946079 -0.00011641 0)
(0.0946365 -0.000116137 0)
(0.0946651 -0.000114778 0)
(0.0946934 -0.000112335 0)
(0.094721 -0.000108809 0)
(0.0947477 -0.000104201 0)
(0.0947733 -9.85015e-05 0)
(0.0947973 -9.16888e-05 0)
(0.0948195 -8.37335e-05 0)
(0.0948396 -7.46025e-05 0)
(0.0948572 -6.42608e-05 0)
(0.0948721 -5.26736e-05 0)
(0.0948839 -3.98119e-05 0)
(0.0948923 -2.56628e-05 0)
(0.094897 -1.0242e-05 0)
(0.0948977 6.39616e-06 0)
(0.0948939 2.41492e-05 0)
(0.0948856 4.28577e-05 0)
(0.0948725 6.22952e-05 0)
(0.0948544 8.21579e-05 0)
(0.0948313 0.000102058 0)
(0.0948033 0.000121525 0)
(0.0947705 0.000140011 0)
(0.0947332 0.000156906 0)
(0.094692 0.000171553 0)
(0.0946475 0.000183269 0)
(0.0946005 0.00019138 0)
(0.094552 0.000195254 0)
(0.0945031 0.000194339 0)
(0.0944551 0.000188201 0)
(0.0944092 0.000176564 0)
(0.0943668 0.000159334 0)
(0.0943294 0.000136624 0)
(0.0942982 0.000108772 0)
(0.0942743 7.63472e-05 0)
(0.0942588 4.01417e-05 0)
(0.0942525 1.15569e-06 0)
(0.0942559 -3.94336e-05 0)
(0.0942691 -8.03096e-05 0)
(0.0942922 -0.000120062 0)
(0.0943245 -0.000157239 0)
(0.0943653 -0.000190411 0)
(0.0944134 -0.000218239 0)
(0.0944674 -0.000239544 0)
(0.0945255 -0.000253387 0)
(0.0945859 -0.000259136 0)
(0.0946465 -0.00025652 0)
(0.0947054 -0.000245675 0)
(0.0947606 -0.000227159 0)
(0.0948104 -0.000201935 0)
(0.0948534 -0.000171333 0)
(0.0948885 -0.000136967 0)
(0.0949151 -0.000100631 0)
(0.0949328 -6.41771e-05 0)
(0.094942 -2.93833e-05 0)
(0.0949431 2.16956e-06 0)
(0.0949373 2.92042e-05 0)
(0.0949257 5.08261e-05 0)
(0.0949096 6.65697e-05 0)
(0.0948906 7.64089e-05 0)
(0.09487 8.07339e-05 0)
(0.094849 8.02982e-05 0)
(0.0948286 7.61411e-05 0)
(0.0948097 6.94959e-05 0)
(0.0947924 6.16893e-05 0)
(0.0947771 5.40412e-05 0)
(0.0947633 4.77691e-05 0)
(0.0947507 4.39011e-05 0)
(0.0947385 4.32017e-05 0)
(0.094726 4.61125e-05 0)
(0.0947121 5.27121e-05 0)
(0.0946962 6.26985e-05 0)