/*--------------------------------*- C++ -*----------------------------------*\
| =========                 |                                                 |
| \\      /  F ield         | OpenFOAM: The Open Source CFD Toolbox           |
|  \\    /   O peration     | Version:  2406                                  |
|   \\  /    A nd           | Website:  www.openfoam.com                      |
|    \\/     M anipulation  |                                                 |
\*---------------------------------------------------------------------------*/
FoamFile
{
    version     2.0;
    format      ascii;
    arch        "LSB;label=32;scalar=64";
    class       surfaceScalarField;
    location    "0.4";
    object      phi;
}
// * * * * * * * * * * * * * * * * * * * * * * * * * * * * * * * * * * * * * //

dimensions      [0 3 -1 0 0 0 0];

oriented        oriented;

internalField   nonuniform List<scalar> 
4335
(
4.22131e-05
6.89713e-11
4.2213e-05
5.55215e-11
4.2213e-05
6.79844e-11
4.2213e-05
4.78639e-11
4.22129e-05
3.19745e-11
4.22129e-05
3.32727e-11
4.22129e-05
-9.59805e-12
4.22129e-05
-3.88592e-11
4.22129e-05
-3.05848e-11
4.22129e-05
-1.09694e-11
4.22129e-05
8.18217e-12
4.22129e-05
1.0663e-11
4.22129e-05
4.81812e-12
4.22129e-05
-5.99107e-13
4.22129e-05
-3.03014e-12
4.22129e-05
-3.72762e-13
4.22129e-05
4.52885e-12
4.22128e-05
1.02621e-11
4.22128e-05
1.66327e-11
4.22128e-05
2.0694e-11
4.22128e-05
1.78519e-11
4.22128e-05
7.70217e-12
4.22128e-05
-3.0134e-12
4.22128e-05
-9.21153e-12
4.22128e-05
-9.10088e-12
4.22128e-05
-5.33396e-12
4.22129e-05
-1.90061e-12
4.22129e-05
1.7332e-12
4.22129e-05
5.13835e-12
4.22129e-05
7.55378e-12
4.22129e-05
6.71485e-12
4.22129e-05
1.54513e-12
4.22129e-05
-3.96577e-12
4.22129e-05
-2.9176e-12
4.22128e-05
6.98029e-12
4.22128e-05
1.9103e-11
4.22128e-05
2.30552e-11
4.22128e-05
1.49473e-11
4.22128e-05
1.37047e-12
4.22128e-05
-7.83301e-12
4.22128e-05
-9.87423e-12
4.22128e-05
-8.8838e-12
4.22128e-05
-1.06751e-11
4.22129e-05
-1.45574e-11
4.22129e-05
-1.55327e-11
4.22129e-05
-1.00422e-11
4.22129e-05
-5.98561e-13
4.22129e-05
5.11132e-12
4.22129e-05
1.90724e-12
4.22129e-05
-6.98205e-12
4.22129e-05
-1.19372e-11
4.22129e-05
-7.52054e-12
4.22129e-05
1.21298e-12
4.22129e-05
4.24877e-12
4.22129e-05
-1.65092e-12
4.22129e-05
-8.83818e-12
4.22128e-05
-7.82735e-12
4.22128e-05
1.39786e-12
4.22128e-05
9.03718e-12
4.22128e-05
7.68746e-12
4.22128e-05
-1.08318e-12
4.22128e-05
-7.712e-12
4.22128e-05
-4.86822e-12
4.22128e-05
4.74784e-12
4.22128e-05
1.04499e-11
4.22128e-05
5.20371e-12
4.22128e-05
-6.72847e-12
4.22128e-05
-1.34017e-11
4.22128e-05
-9.16056e-12
4.22128e-05
-3.15993e-13
4.22129e-05
2.33255e-12
4.22129e-05
-5.35577e-12
4.22129e-05
-1.46927e-11
4.22129e-05
-1.59717e-11
4.22129e-05
-7.0584e-12
4.22129e-05
3.31356e-12
4.22129e-05
5.15518e-12
4.22129e-05
-2.07861e-12
4.22129e-05
-7.60752e-12
4.22129e-05
-3.08532e-12
4.22129e-05
8.42183e-12
4.22129e-05
1.52195e-11
4.22129e-05
1.04219e-11
4.22129e-05
-4.57432e-13
4.22129e-05
-5.1494e-12
4.22129e-05
2.3553e-12
4.22129e-05
1.48236e-11
4.22129e-05
2.04453e-11
4.22129e-05
1.41448e-11
4.22128e-05
4.29337e-12
4.22128e-05
2.75466e-12
4.22128e-05
1.20248e-11
4.22128e-05
2.27328e-11
4.22128e-05
2.40345e-11
4.22128e-05
1.5403e-11
4.22128e-05
6.62675e-12
4.22127e-05
6.61381e-12
4.22127e-05
1.36326e-11
4.22127e-05
1.80816e-11
4.22127e-05
1.28657e-11
4.22127e-05
1.56915e-12
4.22127e-05
-5.72459e-12
4.22127e-05
-2.41087e-12
4.22127e-05
6.14159e-12
4.22127e-05
8.98107e-12
4.22127e-05
1.85168e-12
4.22127e-05
-8.68637e-12
4.22127e-05
-1.14118e-11
4.22126e-05
-3.80659e-12
4.22126e-05
5.41573e-12
4.22126e-05
6.63019e-12
4.22126e-05
-5.48403e-13
4.22126e-05
-7.68471e-12
4.22126e-05
-6.92451e-12
4.22126e-05
7.54289e-13
4.22126e-05
7.07141e-12
4.22127e-05
4.81174e-12
4.22127e-05
-4.38624e-12
4.22127e-05
-1.19662e-11
4.22127e-05
-1.13146e-11
4.22127e-05
-5.00829e-12
4.22127e-05
-1.82747e-12
4.22127e-05
-6.24964e-12
4.22127e-05
-1.37673e-11
4.22127e-05
-1.64551e-11
4.22127e-05
-1.19371e-11
4.22128e-05
-5.67558e-12
4.22128e-05
-3.57197e-12
4.22128e-05
-6.84492e-12
4.22128e-05
-1.04041e-11
4.22128e-05
-9.99544e-12
4.22128e-05
-5.45384e-12
4.22128e-05
-1.26289e-12
4.22128e-05
-1.98753e-12
4.22128e-05
-6.85508e-12
4.22129e-05
-1.05653e-11
4.22129e-05
-9.44537e-12
4.22129e-05
-5.50908e-12
4.22129e-05
-3.09348e-12
4.22129e-05
-3.13304e-12
4.22129e-05
-3.82093e-12
4.22129e-05
-3.35388e-12
4.22129e-05
-1.41568e-12
4.22129e-05
4.2562e-13
4.2213e-05
8.6702e-13
4.2213e-05
-1.00942e-12
4.2213e-05
-4.50294e-12
4.2213e-05
-1.006e-11
4.2213e-05
-1.92401e-11
-2.19374e-11
0.000115215
1.83911e-10
0.000115215
1.73805e-10
0.000115214
1.97243e-10
0.000115214
2.3009e-10
0.000115214
1.97059e-10
0.000115214
1.6749e-10
0.000115214
1.34851e-10
0.000115214
1.15064e-10
0.000115214
1.05663e-10
0.000115214
7.39894e-11
0.000115214
3.1481e-11
0.000115214
9.93736e-12
0.000115214
1.39218e-11
0.000115214
2.74257e-11
0.000115213
3.2264e-11
0.000115213
2.88024e-11
0.000115213
2.58113e-11
0.000115213
2.87728e-11
0.000115213
3.47871e-11
0.000115213
3.92584e-11
0.000115213
3.82158e-11
0.000115213
2.97194e-11
0.000115213
1.68921e-11
0.000115213
5.63344e-12
0.000115213
1.40438e-12
0.000115213
4.31068e-12
0.000115213
1.02557e-11
0.000115213
1.50092e-11
0.000115213
1.75415e-11
0.000115213
2.09246e-11
0.000115213
2.62787e-11
0.000115213
3.02009e-11
0.000115213
2.80166e-11
0.000115213
2.08495e-11
0.000115213
1.5885e-11
0.000115213
1.8796e-11
0.000115213
2.6765e-11
0.000115213
2.99594e-11
0.000115213
2.18957e-11
0.000115213
5.82018e-12
0.000115213
-8.56807e-12
0.000115213
-1.4721e-11
0.000115213
-1.41701e-11
0.000115213
-1.32445e-11
0.000115213
-1.58208e-11
0.000115213
-1.94671e-11
0.000115213
-1.7609e-11
0.000115213
-8.09824e-12
0.000115213
3.42834e-12
0.000115213
7.24805e-12
0.000115213
1.36976e-12
0.000115213
-7.23511e-12
0.000115213
-8.44142e-12
0.000115213
-1.5829e-12
0.000115213
3.93789e-12
0.000115213
1.03125e-12
0.000115213
-6.05913e-12
0.000115213
-8.09377e-12
0.000115213
-4.44507e-13
0.000115213
1.14195e-11
0.000115213
1.70323e-11
0.000115213
1.16821e-11
0.000115213
9.13219e-13
0.000115213
-4.9417e-12
0.000115213
-1.84584e-12
0.000115213
3.06737e-12
0.000115213
-1.08335e-12
0.000115213
-1.47843e-11
0.000115213
-2.70864e-11
0.000115213
-2.78847e-11
0.000115213
-1.77694e-11
0.000115213
-7.93294e-12
0.000115213
-7.46146e-12
0.000115213
-1.54251e-11
0.000115213
-1.98849e-11
0.000115213
-1.30875e-11
0.000115213
-7.06162e-14
0.000115213
7.7962e-12
0.000115213
3.88404e-12
0.000115213
-4.852e-12
0.000115213
-6.38568e-12
0.000115213
3.18331e-12
0.000115213
1.5482e-11
0.000115213
1.84463e-11
0.000115213
1.10605e-11
0.000115213
2.93572e-12
0.000115213
4.84553e-12
0.000115213
1.74012e-11
0.000115213
2.86849e-11
0.000115213
2.84616e-11
0.000115213
1.93941e-11
0.000115213
1.2952e-11
0.000115213
1.74888e-11
0.000115213
2.83239e-11
0.000115213
3.30719e-11
0.000115213
2.57054e-11
0.000115213
1.2217e-11
0.000115213
3.89759e-12
0.000115213
5.7046e-12
0.000115213
1.14136e-11
0.000115213
1.06535e-11
0.000115213
2.77242e-13
0.000115213
-1.06964e-11
0.000115213
-1.23818e-11
0.000115213
-3.04831e-12
0.000115213
6.76789e-12
0.000115213
7.34661e-12
0.000115213
3.57727e-13
0.000115213
-4.85755e-12
0.000115213
-1.21187e-12
0.000115213
7.76483e-12
0.000115213
1.21209e-11
0.000115213
6.8889e-12
0.000115213
-3.17645e-12
0.000115213
-8.80756e-12
0.000115213
-5.45342e-12
0.000115213
1.74056e-12
0.000115213
3.6824e-12
0.000115213
-3.03355e-12
0.000115213
-1.2336e-11
0.000115213
-1.48701e-11
0.000115213
-9.00894e-12
0.000115213
-2.49059e-12
0.000115213
-3.48275e-12
0.000115213
-1.10768e-11
0.000115213
-1.78295e-11
0.000115213
-1.73427e-11
0.000115213
-1.14474e-11
0.000115213
-5.59451e-12
0.000115213
-4.17097e-12
0.000115213
-7.48656e-12
0.000115213
-1.06065e-11
0.000115213
-1.01013e-11
0.000115213
-7.87574e-12
0.000115213
-8.12132e-12
0.000115213
-1.2217e-11
0.000115213
-1.54015e-11
0.000115213
-1.3353e-11
0.000115213
-7.57909e-12
0.000115213
-2.67892e-12
0.000115213
-1.11005e-12
0.000115213
-2.14827e-12
0.000115213
-3.28252e-12
0.000115213
-3.52826e-12
0.000115213
-3.79091e-12
0.000115213
-7.03193e-12
0.000115213
-1.61926e-11
0.000115213
-3.1758e-11
0.000115213
-5.60996e-11
-6.15092e-11
0.000176857
2.53334e-10
0.000176857
3.1583e-10
0.000176856
4.18893e-10
0.000176856
5.12988e-10
0.000176856
5.61915e-10
0.000176856
5.35459e-10
0.000176855
4.54864e-10
0.000176855
3.36156e-10
0.000176855
2.38737e-10
0.000176855
1.81919e-10
0.000176855
1.4499e-10
0.000176855
1.18968e-10
0.000176855
1.05182e-10
0.000176854
1.04971e-10
0.000176854
1.06776e-10
0.000176854
1.05091e-10
0.000176854
9.9997e-11
0.000176854
9.37396e-11
0.000176854
8.44772e-11
0.000176854
7.13767e-11
0.000176854
5.78332e-11
0.000176854
4.65298e-11
0.000176854
3.71828e-11
0.000176854
2.91533e-11
0.000176854
2.37763e-11
0.000176854
2.33585e-11
0.000176854
2.75524e-11
0.000176854
3.22031e-11
0.000176854
3.32595e-11
0.000176854
3.18602e-11
0.000176854
3.31724e-11
0.000176854
3.99177e-11
0.000176854
4.75672e-11
0.000176854
4.86436e-11
0.000176854
4.08011e-11
0.000176854
2.93235e-11
0.000176854
2.16646e-11
0.000176854
1.95e-11
0.000176854
1.73743e-11
0.000176854
9.01303e-12
0.000176854
-5.23083e-12
0.000176854
-1.8818e-11
0.000176854
-2.52505e-11
0.000176854
-2.38875e-11
0.000176854
-2.00073e-11
0.000176854
-2.0229e-11
0.000176854
-2.36563e-11
0.000176854
-2.52361e-11
0.000176854
-1.96775e-11
0.000176854
-9.97232e-12
0.000176854
-4.55732e-12
0.000176854
-8.32422e-12
0.000176854
-1.57383e-11
0.000176854
-1.71683e-11
0.000176854
-1.03167e-11
0.000176854
-1.96418e-12
0.000176854
5.1735e-13
0.000176854
-2.56202e-12
0.000176854
-3.7986e-12
0.000176854
2.84835e-12
0.000176854
1.52404e-11
0.000176854
2.41422e-11
0.000176854
2.25181e-11
0.000176854
1.24058e-11
0.000176854
3.51399e-12
0.000176854
2.76413e-12
0.000176854
6.49823e-12
0.000176854
4.65684e-12
0.000176854
-6.454e-12
0.000176854
-2.04638e-11
0.000176854
-2.60453e-11
0.000176854
-2.07167e-11
0.000176854
-1.16989e-11
0.000176854
-8.98604e-12
0.000176854
-1.44483e-11
0.000176854
-2.00309e-11
0.000176854
-1.65631e-11
0.000176854
-4.5198e-12
0.000176854
6.49858e-12
0.000176854
7.68326e-12
0.000176854
9.58893e-13
0.000176854
-2.87705e-12
0.000176854
2.767e-12
0.000176854
1.37114e-11
0.000176854
2.00413e-11
0.000176854
1.66402e-11
0.000176854
9.00628e-12
0.000176854
7.52043e-12
0.000176854
1.56476e-11
0.000176854
2.59931e-11
0.000176854
2.86878e-11
0.000176854
2.20487e-11
0.000176854
1.48218e-11
0.000176854
1.56851e-11
0.000176854
2.34197e-11
0.000176854
2.83755e-11
0.000176854
2.3114e-11
0.000176854
9.63364e-12
0.000176854
-2.0334e-12
0.000176854
-4.46051e-12
0.000176854
2.65901e-13
0.000176854
2.72322e-12
0.000176854
-2.39703e-12
0.000176854
-1.12229e-11
0.000176854
-1.38377e-11
0.000176854
-6.64474e-12
0.000176854
3.7086e-12
0.000176854
7.82921e-12
0.000176854
3.47108e-12
0.000176854
-2.43184e-12
0.000176854
-2.13946e-12
0.000176854
4.66094e-12
0.000176854
1.0885e-11
0.000176854
1.01797e-11
0.000176854
3.85593e-12
0.000176854
-1.70568e-12
0.000176854
-1.12115e-12
0.000176854
4.24901e-12
0.000176854
6.80147e-12
0.000176854
1.51269e-12
0.000176854
-7.59403e-12
0.000176854
-1.22909e-11
0.000176854
-8.987e-12
0.000176854
-2.76689e-12
0.000176854
-1.23083e-12
0.000176854
-5.55501e-12
0.000176854
-1.07932e-11
0.000176854
-1.21256e-11
0.000176854
-8.62513e-12
0.000176854
-3.87087e-12
0.000176854
-2.77749e-12
0.000176854
-6.59455e-12
0.000176854
-1.1618e-11
0.000176854
-1.34499e-11
0.000176854
-1.21249e-11
0.000176854
-1.17879e-11
0.000176854
-1.41254e-11
0.000176854
-1.58775e-11
0.000176854
-1.36133e-11
0.000176854
-8.54856e-12
0.000176854
-4.35336e-12
0.000176854
-3.29356e-12
0.000176854
-5.21736e-12
0.000176854
-8.82589e-12
0.000176854
-1.24043e-11
0.000176854
-1.7012e-11
0.000176854
-2.7481e-11
0.000176854
-4.44781e-11
0.000176854
-7.35031e-11
-8.39073e-11
0.000227199
3.43014e-10
0.000227199
4.34249e-10
0.000227199
5.46939e-10
0.000227198
6.27515e-10
0.000227198
6.92577e-10
0.000227198
6.84817e-10
0.000227198
6.4018e-10
0.000227198
5.69848e-10
0.000227197
4.81239e-10
0.000227197
4.06327e-10
0.000227197
3.53102e-10
0.000227197
3.14772e-10
0.000227197
2.8119e-10
0.000227197
2.54984e-10
0.000227196
2.34091e-10
0.000227196
2.14834e-10
0.000227196
1.92384e-10
0.000227196
1.66699e-10
0.000227196
1.39883e-10
0.000227196
1.14663e-10
0.000227196
9.52531e-11
0.000227196
8.38061e-11
0.000227196
7.8385e-11
0.000227196
7.48366e-11
0.000227196
6.9514e-11
0.000227196
6.2543e-11
0.000227196
5.7667e-11
0.000227196
5.75522e-11
0.000227196
6.01713e-11
0.000227196
6.07332e-11
0.000227196
5.76924e-11
0.000227196
5.46528e-11
0.000227196
5.49119e-11
0.000227196
5.63537e-11
0.000227196
5.35903e-11
0.000227196
4.44166e-11
0.000227196
3.26262e-11
0.000227196
2.41415e-11
0.000227196
2.14631e-11
0.000227196
1.98971e-11
0.000227196
1.39387e-11
0.000227196
1.60385e-12
0.000227196
-1.32261e-11
0.000227196
-2.4444e-11
0.000227196
-2.88073e-11
0.000227196
-2.87735e-11
0.000227196
-2.90419e-11
0.000227196
-3.16852e-11
0.000227196
-3.21652e-11
0.000227196
-2.61261e-11
0.000227196
-1.59318e-11
0.000227196
-9.88847e-12
0.000227196
-1.27261e-11
0.000227196
-1.96696e-11
0.000227196
-2.1538e-11
0.000227196
-1.4262e-11
0.000227196
-2.39224e-12
0.000227196
6.12073e-12
0.000227196
8.25426e-12
0.000227196
8.15802e-12
0.000227196
1.20104e-11
0.000227196
2.03786e-11
0.000227196
2.71037e-11
0.000227196
2.48542e-11
0.000227196
1.38334e-11
0.000227196
2.54674e-12
0.000227196
-1.11954e-12
0.000227196
1.91552e-12
0.000227196
3.27094e-12
0.000227196
-2.67137e-12
0.000227196
-1.28976e-11
0.000227196
-1.82924e-11
0.000227196
-1.48675e-11
0.000227196
-6.38671e-12
0.000227196
-1.92377e-12
0.000227196
-5.37495e-12
0.000227196
-1.13574e-11
0.000227196
-1.09872e-11
0.000227196
-1.84217e-12
0.000227196
8.5999e-12
0.000227196
1.12127e-11
0.000227196
5.48905e-12
0.000227196
-7.55273e-13
0.000227196
1.3841e-13
0.000227196
7.55392e-12
0.000227196
1.40453e-11
0.000227196
1.34839e-11
0.000227196
8.00572e-12
0.000227196
6.13427e-12
0.000227196
1.27271e-11
0.000227196
2.33679e-11
0.000227196
2.86519e-11
0.000227196
2.47313e-11
0.000227196
1.67713e-11
0.000227196
1.28068e-11
0.000227196
1.44216e-11
0.000227196
1.57037e-11
0.000227196
1.04122e-11
0.000227196
-1.17549e-12
0.000227196
-1.20482e-11
0.000227196
-1.49334e-11
0.000227196
-9.64551e-12
0.000227196
-3.93867e-12
0.000227196
-5.12433e-12
0.000227196
-1.15877e-11
0.000227196
-1.4885e-11
0.000227196
-9.78395e-12
0.000227196
2.72051e-13
0.000227196
7.1321e-12
0.000227196
6.83609e-12
0.000227196
3.25215e-12
0.000227196
3.00051e-12
0.000227196
7.8256e-12
0.000227196
1.35999e-11
0.000227196
1.45804e-11
0.000227196
9.67549e-12
0.000227196
3.01116e-12
0.000227196
1.42676e-13
0.000227196
2.24178e-12
0.000227196
3.97389e-12
0.000227196
5.83161e-13
0.000227196
-6.05064e-12
0.000227196
-9.80898e-12
0.000227196
-7.26313e-12
0.000227196
-1.83685e-12
0.000227196
1.11324e-12
0.000227196
-1.56527e-13
0.000227196
-3.34769e-12
0.000227196
-4.61283e-12
0.000227196
-2.48632e-12
0.000227196
9.66145e-13
0.000227196
1.32431e-12
0.000227196
-3.19784e-12
0.000227196
-9.57475e-12
0.000227196
-1.30474e-11
0.000227196
-1.32237e-11
0.000227196
-1.32284e-11
0.000227196
-1.50775e-11
0.000227196
-1.6335e-11
0.000227196
-1.44923e-11
0.000227196
-1.03779e-11
0.000227196
-6.94008e-12
0.000227196
-6.95283e-12
0.000227196
-1.13878e-11
0.000227196
-1.83127e-11
0.000227196
-2.53299e-11
0.000227196
-3.42451e-11
0.000227196
-4.4648e-11
0.000227196
-6.44435e-11
-7.83859e-11
0.000266294
2.78948e-10
0.000266294
3.98284e-10
0.000266294
5.14893e-10
0.000266294
5.96563e-10
0.000266294
6.84722e-10
0.000266294
7.3543e-10
0.000266294
7.46505e-10
0.000266294
7.3118e-10
0.000266294
6.83461e-10
0.000266294
6.25637e-10
0.000266293
5.68946e-10
0.000266293
5.15221e-10
0.000266293
4.5862e-10
0.000266293
4.02493e-10
0.000266293
3.50828e-10
0.000266293
3.06284e-10
0.000266292
2.6743e-10
0.000266292
2.32381e-10
0.000266292
2.00292e-10
0.000266292
1.7165e-10
0.000266292
1.49245e-10
0.000266292
1.35502e-10
0.000266292
1.29734e-10
0.000266292
1.28854e-10
0.000266292
1.28142e-10
0.000266292
1.23072e-10
0.000266292
1.13239e-10
0.000266292
1.03121e-10
0.000266292
9.72502e-11
0.000266292
9.46106e-11
0.000266292
9.00267e-11
0.000266292
8.12859e-11
0.000266292
7.21642e-11
0.000266292
6.73974e-11
0.000266292
6.66728e-11
0.000266292
6.47995e-11
0.000266292
5.74798e-11
0.000266292
4.61012e-11
0.000266292
3.44779e-11
0.000266292
2.78135e-11
0.000266292
2.50197e-11
0.000266292
2.17901e-11
0.000266292
1.47498e-11
0.000266292
4.63628e-12
0.000266292
-4.32314e-12
0.000266292
-8.28232e-12
0.000266292
-8.41474e-12
0.000266292
-1.07053e-11
0.000266292
-1.71701e-11
0.000266292
-2.28489e-11
0.000266292
-2.27871e-11
0.000266292
-1.77081e-11
0.000266292
-1.45609e-11
0.000266292
-1.85154e-11
0.000266292
-2.6644e-11
0.000266292
-3.07887e-11
0.000266292
-2.53375e-11
0.000266292
-1.3453e-11
0.000266292
-2.82742e-12
0.000266292
1.19363e-12
0.000266292
1.36126e-12
0.000266292
2.81856e-12
0.000266292
8.75291e-12
0.000266292
1.52898e-11
0.000266292
1.50321e-11
0.000266292
6.88524e-12
0.000266292
-3.10397e-12
0.000266292
-6.96154e-12
0.000266292
-3.89094e-12
0.000266292
-8.51703e-14
0.000266292
-2.27071e-12
0.000266292
-9.53244e-12
0.000266292
-1.5142e-11
0.000266292
-1.32104e-11
0.000266292
-5.75569e-12
0.000266292
1.60198e-13
0.000266292
-8.27447e-13
0.000266292
-5.87327e-12
0.000266292
-6.81393e-12
0.000266292
-2.95249e-13
0.000266292
8.77737e-12
0.000266292
1.24978e-11
0.000266292
8.97103e-12
0.000266292
3.92029e-12
0.000266292
4.52931e-12
0.000266292
1.16995e-11
0.000266292
1.89192e-11
0.000266292
1.90103e-11
0.000266292
1.25605e-11
0.000266292
7.05748e-12
0.000266292
8.67737e-12
0.000266292
1.51937e-11
0.000266292
1.87257e-11
0.000266292
1.46038e-11
0.000266292
6.27709e-12
0.000266292
7.46581e-13
0.000266292
1.20383e-12
0.000266292
4.31411e-12
0.000266292
3.90684e-12
0.000266292
-2.37151e-12
0.000266292
-1.03125e-11
0.000266292
-1.23307e-11
0.000266292
-7.18577e-12
0.000266292
-1.04479e-12
0.000266292
-5.51345e-13
0.000266292
-5.75685e-12
0.000266292
-1.017e-11
0.000266292
-8.17776e-12
0.000266292
-1.10712e-12
0.000266292
4.55267e-12
0.000266292
4.58437e-12
0.000266292
1.11079e-12
0.000266292
-4.22692e-13
0.000266292
2.918e-12
0.000266292
8.62047e-12
0.000266292
1.1672e-11
0.000266292
9.24058e-12
0.000266292
4.08217e-12
0.000266292
2.04375e-12
0.000266292
5.21408e-12
0.000266292
9.5129e-12
0.000266292
9.77282e-12
0.000266292
5.69538e-12
0.000266292
1.88924e-12
0.000266292
1.63632e-12
0.000266292
3.60246e-12
0.000266292
4.2694e-12
0.000266292
1.7169e-12
0.000266292
-3.16799e-12
0.000266292
-7.17082e-12
0.000266292
-7.42749e-12
0.000266292
-4.8051e-12
0.000266292
-3.4731e-12
0.000266292
-5.88437e-12
0.000266292
-9.72715e-12
0.000266292
-1.13974e-11
0.000266292
-1.01188e-11
0.000266292
-9.21932e-12
0.000266292
-1.07939e-11
0.000266292
-1.30393e-11
0.000266292
-1.35001e-11
0.000266292
-1.22628e-11
0.000266292
-1.15175e-11
0.000266292
-1.31798e-11
0.000266292
-1.80278e-11
0.000266292
-2.55889e-11
0.000266292
-3.56632e-11
0.000266292
-4.36962e-11
0.000266292
-5.33461e-11
-6.47459e-11
0.000294187
2.46374e-10
0.000294187
3.27375e-10
0.000294187
4.22428e-10
0.000294187
5.03064e-10
0.000294187
5.78931e-10
0.000294187
6.58977e-10
0.000294187
7.2374e-10
0.000294187
7.65666e-10
0.000294187
7.68353e-10
0.000294187
7.43267e-10
0.000294187
6.99303e-10
0.000294187
6.44434e-10
0.000294186
5.81025e-10
0.000294186
5.1302e-10
0.000294186
4.44224e-10
0.000294186
3.79595e-10
0.000294186
3.23585e-10
0.000294186
2.78248e-10
0.000294186
2.43068e-10
0.000294186
2.16045e-10
0.000294186
1.95548e-10
0.000294186
1.80295e-10
0.000294186
1.68431e-10
0.000294186
1.59142e-10
0.000294186
1.5243e-10
0.000294185
1.46024e-10
0.000294185
1.3633e-10
0.000294185
1.23176e-10
0.000294185
1.11266e-10
0.000294185
1.04891e-10
0.000294185
1.02063e-10
0.000294185
9.67283e-11
0.000294185
8.64375e-11
0.000294185
7.53151e-11
0.000294185
6.92512e-11
0.000294185
6.92252e-11
0.000294185
7.05169e-11
0.000294185
6.76005e-11
0.000294185
5.83847e-11
0.000294185
4.6419e-11
0.000294185
3.64468e-11
0.000294185
2.92943e-11
0.000294185
2.29235e-11
0.000294185
1.34831e-11
0.000294185
7.74567e-13
0.000294185
-1.06104e-11
0.000294185
-1.59848e-11
0.000294185
-1.63142e-11
0.000294185
-1.72297e-11
0.000294185
-2.22568e-11
0.000294185
-2.87101e-11
0.000294185
-3.08787e-11
0.000294185
-2.73195e-11
0.000294185
-2.25449e-11
0.000294185
-2.12864e-11
0.000294185
-2.29758e-11
0.000294185
-2.22754e-11
0.000294185
-1.4866e-11
0.000294185
-2.26972e-12
0.000294185
8.87961e-12
0.000294185
1.30613e-11
0.000294185
1.04327e-11
0.000294185
7.2442e-12
0.000294185
8.78418e-12
0.000294185
1.34724e-11
0.000294185
1.50928e-11
0.000294185
1.00674e-11
0.000294185
1.8633e-12
0.000294185
-2.78492e-12
0.000294185
-1.34175e-12
0.000294185
1.86208e-12
0.000294185
9.49477e-13
0.000294185
-5.58609e-12
0.000294185
-1.28015e-11
0.000294185
-1.42643e-11
0.000294185
-8.75897e-12
0.000294185
-2.1895e-12
0.000294185
-9.0704e-13
0.000294185
-4.58461e-12
0.000294185
-6.79383e-12
0.000294185
-3.04641e-12
0.000294185
4.22448e-12
0.000294185
8.93076e-12
0.000294185
7.90887e-12
0.000294185
4.1529e-12
0.000294185
4.09138e-12
0.000294185
1.03907e-11
0.000294185
1.82818e-11
0.000294185
2.05387e-11
0.000294185
1.52906e-11
0.000294185
7.68555e-12
0.000294185
4.4913e-12
0.000294185
6.58718e-12
0.000294185
8.41129e-12
0.000294185
5.24391e-12
0.000294185
-2.11757e-12
0.000294185
-8.26647e-12
0.000294185
-8.86103e-12
0.000294185
-5.27876e-12
0.000294185
-3.2371e-12
0.000294185
-6.93351e-12
0.000294185
-1.38046e-11
0.000294185
-1.72857e-11
0.000294185
-1.43033e-11
0.000294185
-8.28347e-12
0.000294185
-5.19199e-12
0.000294185
-6.81016e-12
0.000294185
-9.04734e-12
0.000294185
-6.854e-12
0.000294185
-3.42674e-13
0.000294185
6.02512e-12
0.000294185
7.88401e-12
0.000294185
5.41576e-12
0.000294185
2.78525e-12
0.000294185
3.60963e-12
0.000294185
7.62214e-12
0.000294185
1.07305e-11
0.000294185
9.45855e-12
0.000294185
5.31012e-12
0.000294185
3.31606e-12
0.000294185
5.88444e-12
0.000294185
1.0075e-11
0.000294185
1.12321e-11
0.000294185
8.6785e-12
0.000294185
5.15868e-12
0.000294185
3.17224e-12
0.000294185
3.15525e-12
0.000294185
3.48541e-12
0.000294185
2.14798e-12
0.000294185
-1.42942e-12
0.000294185
-4.73253e-12
0.000294185
-4.80436e-12
0.000294185
-2.11797e-12
0.000294185
-2.64368e-13
0.000294185
-1.70171e-12
0.000294185
-5.29881e-12
0.000294185
-7.48018e-12
0.000294185
-7.40021e-12
0.000294185
-7.35471e-12
0.000294185
-8.26404e-12
0.000294185
-9.16215e-12
0.000294185
-9.79936e-12
0.000294185
-1.13288e-11
0.000294185
-1.35422e-11
0.000294185
-1.62629e-11
0.000294185
-2.16384e-11
0.000294185
-2.84853e-11
0.000294185
-3.38157e-11
0.000294185
-4.07244e-11
-5.22387e-11
0.000310909
3.15e-10
0.000310909
3.09239e-10
0.000310909
3.3798e-10
0.000310909
3.99803e-10
0.000310909
4.47324e-10
0.000310909
5.26807e-10
0.000310909
6.16679e-10
0.000310909
6.92167e-10
0.000310909
7.35356e-10
0.000310909
7.45947e-10
0.000310909
7.24299e-10
0.000310909
6.76474e-10
0.000310909
6.1235e-10
0.000310909
5.42975e-10
0.000310909
4.763e-10
0.000310909
4.15582e-10
0.000310909
3.60845e-10
0.000310909
3.12256e-10
0.000310909
2.72232e-10
0.000310909
2.42761e-10
0.000310909
2.22171e-10
0.000310909
2.06771e-10
0.000310909
1.93221e-10
0.000310909
1.79877e-10
0.000310909
1.67573e-10
0.000310909
1.57396e-10
0.000310909
1.48036e-10
0.000310909
1.36804e-10
0.000310909
1.23227e-10
0.000310909
1.1062e-10
0.000310909
1.02386e-10
0.000310909
9.75048e-11
0.000310909
9.19728e-11
0.000310909
8.39993e-11
0.000310909
7.59919e-11
0.000310909
7.14629e-11
0.000310909
7.08668e-11
0.000310909
7.12334e-11
0.000310909
6.87104e-11
0.000310909
6.16166e-11
0.000310909
5.13041e-11
0.000310909
4.05114e-11
0.000310909
3.11641e-11
0.000310909
2.21031e-11
0.000310909
1.05774e-11
0.000310909
-3.58621e-12
0.000310909
-1.62712e-11
0.000310909
-2.28407e-11
0.000310909
-2.3532e-11
0.000310909
-2.35172e-11
0.000310909
-2.7084e-11
0.000310909
-3.2616e-11
0.000310909
-3.46204e-11
0.000310909
-3.01333e-11
0.000310909
-2.1485e-11
0.000310909
-1.36367e-11
0.000310909
-9.21095e-12
0.000310909
-6.56771e-12
0.000310909
-2.05405e-12
0.000310909
5.52896e-12
0.000310909
1.27041e-11
0.000310909
1.44706e-11
0.000310909
1.07404e-11
0.000310909
6.09752e-12
0.000310909
5.51013e-12
0.000310909
8.68498e-12
0.000310909
1.04619e-11
0.000310909
6.65086e-12
0.000310909
-1.40831e-12
0.000310909
-8.08146e-12
0.000310909
-9.59307e-12
0.000310909
-7.41131e-12
0.000310909
-6.258e-12
0.000310909
-9.40334e-12
0.000310909
-1.41367e-11
0.000310909
-1.49051e-11
0.000310909
-9.86817e-12
0.000310909
-3.63853e-12
0.000310909
-2.06287e-12
0.000310909
-5.62251e-12
0.000310909
-8.95899e-12
0.000310909
-6.91456e-12
0.000310909
1.93518e-13
0.000310909
7.42996e-12
0.000310909
1.01052e-11
0.000310909
8.32011e-12
0.000310909
6.72661e-12
0.000310909
9.3269e-12
0.000310909
1.42258e-11
0.000310909
1.58872e-11
0.000310909
1.14925e-11
0.000310909
4.40515e-12
0.000310909
4.07596e-13
0.000310909
1.62836e-12
0.000310909
4.20694e-12
0.000310909
3.27476e-12
0.000310909
-2.31553e-12
0.000310909
-8.53671e-12
0.000310909
-1.09605e-11
0.000310909
-8.96585e-12
0.000310909
-6.96681e-12
0.000310909
-9.44883e-12
0.000310909
-1.54716e-11
0.000310909
-1.95667e-11
0.000310909
-1.75958e-11
0.000310909
-1.16444e-11
0.000310909
-6.7774e-12
0.000310909
-5.65793e-12
0.000310909
-5.73536e-12
0.000310909
-3.53179e-12
0.000310909
2.10179e-12
0.000310909
8.60833e-12
0.000310909
1.2276e-11
0.000310909
1.16853e-11
0.000310909
9.11978e-12
0.000310909
8.48137e-12
0.000310909
1.10666e-11
0.000310909
1.38521e-11
0.000310909
1.30662e-11
0.000310909
9.21294e-12
0.000310909
6.20595e-12
0.000310909
6.28209e-12
0.000310909
7.63056e-12
0.000310909
7.48762e-12
0.000310909
4.9352e-12
0.000310909
1.03807e-12
0.000310909
-2.13496e-12
0.000310909
-2.75186e-12
0.000310909
-1.05311e-12
0.000310909
1.51392e-13
0.000310909
-8.74656e-13
0.000310909
-2.70396e-12
0.000310909
-2.72012e-12
0.000310909
-8.3016e-13
0.000310909
3.22021e-13
0.000310909
-1.26966e-12
0.000310909
-4.25231e-12
0.000310909
-5.78772e-12
0.000310909
-5.85098e-12
0.000310909
-6.32749e-12
0.000310909
-7.55453e-12
0.000310909
-9.21561e-12
0.000310909
-1.17705e-11
0.000310909
-1.35951e-11
0.000310909
-1.49699e-11
0.000310909
-1.8703e-11
0.000310909
-2.23462e-11
0.000310909
-2.62587e-11
0.000310909
-3.26446e-11
-4.14826e-11
0.000316481
2.47236e-10
0.000316481
2.07454e-10
0.000316481
1.96527e-10
0.000316481
2.56265e-10
0.000316481
3.07778e-10
0.000316481
3.91198e-10
0.000316481
4.86078e-10
0.000316482
5.66057e-10
0.000316482
6.2401e-10
0.000316482
6.54191e-10
0.000316482
6.51545e-10
0.000316482
6.2111e-10
0.000316482
5.74739e-10
0.000316482
5.22058e-10
0.000316482
4.69843e-10
0.000316482
4.22334e-10
0.000316482
3.80557e-10
0.000316481
3.43379e-10
0.000316481
3.10144e-10
0.000316481
2.81242e-10
0.000316481
2.55457e-10
0.000316481
2.30934e-10
0.000316481
2.07829e-10
0.000316481
1.86973e-10
0.000316481
1.68914e-10
0.000316481
1.548e-10
0.000316481
1.45495e-10
0.000316481
1.39349e-10
0.000316481
1.32184e-10
0.000316481
1.21151e-10
0.000316481
1.08166e-10
0.000316482
9.74452e-11
0.000316482
9.05293e-11
0.000316482
8.55526e-11
0.000316482
8.03116e-11
0.000316482
7.49661e-11
0.000316482
7.15274e-11
0.000316481
7.10883e-11
0.000316481
7.22208e-11
0.000316481
7.13334e-11
0.000316481
6.49188e-11
0.000316481
5.26106e-11
0.000316481
3.79897e-11
0.000316481
2.57151e-11
0.000316481
1.70303e-11
0.000316481
9.08696e-12
0.000316481
-5.40387e-13
0.000316481
-1.02403e-11
0.000316481
-1.63471e-11
0.000316481
-1.79709e-11
0.000316481
-1.81998e-11
0.000316481
-2.01228e-11
0.000316481
-2.28773e-11
0.000316481
-2.2128e-11
0.000316481
-1.55248e-11
0.000316481
-5.25526e-12
0.000316481
3.39565e-12
0.000316481
6.33888e-12
0.000316482
4.10243e-12
0.000316482
1.3718e-12
0.000316482
2.0638e-12
0.000316482
4.67255e-12
0.000316482
5.24521e-12
0.000316482
1.52123e-12
0.000316482
-3.96188e-12
0.000316482
-6.8336e-12
0.000316482
-6.16428e-12
0.000316482
-5.00499e-12
0.000316482
-7.21548e-12
0.000316482
-1.22531e-11
0.000316482
-1.66786e-11
0.000316482
-1.68039e-11
0.000316482
-1.28066e-11
0.000316482
-9.09509e-12
0.000316482
-9.53631e-12
0.000316482
-1.3094e-11
0.000316481
-1.43317e-11
0.000316481
-1.05041e-11
0.000316481
-4.697e-12
0.000316481
-1.59878e-12
0.000316481
-2.59886e-12
0.000316481
-4.4515e-12
0.000316481
-2.95559e-12
0.000316481
2.84045e-12
0.000316481
9.389e-12
0.000316481
1.1826e-11
0.000316481
8.99649e-12
0.000316481
4.61077e-12
0.000316481
3.07092e-12
0.000316481
4.64209e-12
0.000316481
5.4222e-12
0.000316481
2.28158e-12
0.000316481
-3.51611e-12
0.000316481
-7.8517e-12
0.000316481
-8.26572e-12
0.000316481
-6.23375e-12
0.000316481
-5.67504e-12
0.000316481
-8.74939e-12
0.000316481
-1.3602e-11
0.000316481
-1.61535e-11
0.000316481
-1.47968e-11
0.000316481
-1.22966e-11
0.000316481
-1.28316e-11
0.000316481
-1.66844e-11
0.000316481
-1.96213e-11
0.000316481
-1.78292e-11
0.000316481
-1.21655e-11
0.000316481
-6.37899e-12
0.000316481
-3.16429e-12
0.000316481
-2.0249e-12
0.000316481
-2.56387e-13
0.000316481
3.90155e-12
0.000316481
9.52315e-12
0.000316481
1.35582e-11
0.000316481
1.35601e-11
0.000316481
1.05429e-11
0.000316481
8.43744e-12
0.000316481
9.45913e-12
0.000316482
1.14844e-11
0.000316482
1.13405e-11
0.000316482
8.83686e-12
0.000316482
6.52073e-12
0.000316482
5.69158e-12
0.000316482
5.62916e-12
0.000316482
5.16707e-12
0.000316482
3.65385e-12
0.000316482
1.11507e-12
0.000316482
-1.03233e-12
0.000316482
-7.8614e-13
0.000316482
1.67669e-12
0.000316482
3.63037e-12
0.000316482
3.23322e-12
0.000316482
1.62397e-12
0.000316482
1.20128e-12
0.000316482
2.42936e-12
0.000316482
3.43064e-12
0.000316482
2.99671e-12
0.000316482
2.06486e-12
0.000316482
1.83135e-12
0.000316482
1.27603e-12
0.000316482
-7.23549e-13
0.000316482
-3.63558e-12
0.000316482
-7.93254e-12
0.000316482
-9.88171e-12
0.000316482
-1.02326e-11
0.000316482
-1.27446e-11
0.000316482
-1.43321e-11
0.000316482
-1.77553e-11
0.000316482
-2.45086e-11
-3.04527e-11