/*--------------------------------*- C++ -*----------------------------------*\
| =========                 |                                                 |
| \\      /  F ield         | OpenFOAM: The Open Source CFD Toolbox           |
|  \\    /   O peration     | Version:  2406                                  |
|   \\  /    A nd           | Website:  www.openfoam.com                      |
|    \\/     M anipulation  |                                                 |
\*---------------------------------------------------------------------------*/
FoamFile
{
    version     2.0;
    format      ascii;
    arch        "LSB;label=32;scalar=64";
    class       volVectorField;
    location    "0.4";
    object      U;
}
// * * * * * * * * * * * * * * * * * * * * * * * * * * * * * * * * * * * * * //

dimensions      [0 1 -1 0 0 0 0];

internalField   nonuniform List<vector> 
2250
(
(0.633197 4.35231e-07 0)
(0.633196 2.61028e-07 0)
(0.633195 2.82777e-07 0)
(0.633194 1.44408e-07 0)
(0.633194 2.05763e-08 0)
(0.633193 -1.44206e-08 0)
(0.633193 -2.93367e-07 0)
(0.633193 -4.02948e-07 0)
(0.633193 -3.24895e-07 0)
(0.633194 -1.82643e-07 0)
(0.633194 -4.5061e-08 0)
(0.633194 6.95504e-09 0)
(0.633194 -2.87475e-09 0)
(0.633194 -3.57981e-08 0)
(0.633194 -6.13013e-08 0)
(0.633193 -4.91742e-08 0)
(0.633193 8.36802e-09 0)
(0.633193 8.46718e-08 0)
(0.633193 1.49533e-07 0)
(0.633192 1.808e-07 0)
(0.633192 1.49644e-07 0)
(0.633192 6.09922e-08 0)
(0.633192 -3.89257e-08 0)
(0.633192 -9.7885e-08 0)
(0.633192 -1.01457e-07 0)
(0.633193 -6.76523e-08 0)
(0.633193 -1.91754e-08 0)
(0.633193 2.24928e-08 0)
(0.633193 5.16438e-08 0)
(0.633193 6.35491e-08 0)
(0.633193 4.61356e-08 0)
(0.633193 -1.82453e-09 0)
(0.633193 -4.67492e-08 0)
(0.633193 -3.63163e-08 0)
(0.633193 4.44948e-08 0)
(0.633193 1.41956e-07 0)
(0.633192 1.73235e-07 0)
(0.633192 1.06582e-07 0)
(0.633192 -6.72375e-09 0)
(0.633192 -8.8585e-08 0)
(0.633192 -1.09079e-07 0)
(0.633192 -1.04296e-07 0)
(0.633193 -1.14202e-07 0)
(0.633193 -1.39412e-07 0)
(0.633193 -1.44488e-07 0)
(0.633193 -1.03616e-07 0)
(0.633193 -3.47779e-08 0)
(0.633193 9.9275e-09 0)
(0.633193 -9.51245e-09 0)
(0.633193 -7.42954e-08 0)
(0.633193 -1.15212e-07 0)
(0.633193 -8.65648e-08 0)
(0.633193 -2.08844e-08 0)
(0.633193 5.73883e-09 0)
(0.633193 -3.35454e-08 0)
(0.633193 -8.19902e-08 0)
(0.633193 -6.9712e-08 0)
(0.633193 8.82908e-10 0)
(0.633193 6.06989e-08 0)
(0.633192 4.91514e-08 0)
(0.633192 -1.73799e-08 0)
(0.633192 -6.70297e-08 0)
(0.633192 -4.66857e-08 0)
(0.633192 2.38672e-08 0)
(0.633192 6.89625e-08 0)
(0.633192 3.34667e-08 0)
(0.633192 -5.29296e-08 0)
(0.633192 -1.04685e-07 0)
(0.633193 -7.44202e-08 0)
(0.633193 -8.25832e-09 0)
(0.633193 1.19705e-08 0)
(0.633193 -3.7901e-08 0)
(0.633193 -1.06465e-07 0)
(0.633193 -1.17266e-07 0)
(0.633193 -5.35523e-08 0)
(0.633193 2.1435e-08 0)
(0.633193 3.36448e-08 0)
(0.633193 -1.58037e-08 0)
(0.633193 -5.57731e-08 0)
(0.633193 -2.05191e-08 0)
(0.633193 6.89334e-08 0)
(0.633193 1.2638e-07 0)
(0.633193 9.72804e-08 0)
(0.633193 2.07261e-08 0)
(0.633193 -1.27101e-08 0)
(0.633193 3.99409e-08 0)
(0.633193 1.31646e-07 0)
(0.633193 1.70896e-07 0)
(0.633193 1.21846e-07 0)
(0.633193 4.34487e-08 0)
(0.633193 2.75421e-08 0)
(0.633192 9.53643e-08 0)
(0.633192 1.7657e-07 0)
(0.633192 1.88563e-07 0)
(0.633192 1.24848e-07 0)
(0.633192 5.809e-08 0)
(0.633191 5.51936e-08 0)
(0.633191 1.0604e-07 0)
(0.633191 1.39393e-07 0)
(0.633191 1.03599e-07 0)
(0.633191 2.14738e-08 0)
(0.633191 -3.12823e-08 0)
(0.63319 -1.00726e-08 0)
(0.63319 4.93596e-08 0)
(0.63319 6.81444e-08 0)
(0.63319 9.53466e-09 0)
(0.63319 -7.28617e-08 0)
(0.63319 -9.78285e-08 0)
(0.63319 -4.5286e-08 0)
(0.63319 2.40883e-08 0)
(0.63319 3.63829e-08 0)
(0.63319 -1.44016e-08 0)
(0.63319 -6.47052e-08 0)
(0.63319 -5.63483e-08 0)
(0.63319 2.45172e-09 0)
(0.63319 4.90644e-08 0)
(0.63319 3.22839e-08 0)
(0.63319 -3.75025e-08 0)
(0.63319 -9.72411e-08 0)
(0.63319 -9.69204e-08 0)
(0.63319 -5.35863e-08 0)
(0.63319 -3.06245e-08 0)
(0.633191 -6.43228e-08 0)
(0.633191 -1.2157e-07 0)
(0.633191 -1.41589e-07 0)
(0.633191 -1.07647e-07 0)
(0.633191 -5.82064e-08 0)
(0.633191 -4.03052e-08 0)
(0.633192 -5.68019e-08 0)
(0.633192 -7.75407e-08 0)
(0.633192 -7.123e-08 0)
(0.633192 -3.72073e-08 0)
(0.633192 -6.95456e-09 0)
(0.633192 -1.10995e-08 0)
(0.633192 -4.39959e-08 0)
(0.633193 -6.80017e-08 0)
(0.633193 -5.61316e-08 0)
(0.633193 -2.48779e-08 0)
(0.633193 -6.899e-09 0)
(0.633193 -1.04071e-08 0)
(0.633194 -2.05194e-08 0)
(0.633194 -1.98488e-08 0)
(0.633194 -5.16395e-09 0)
(0.633194 8.52019e-09 0)
(0.633194 1.06188e-08 0)
(0.633194 -1.06374e-09 0)
(0.633194 -2.44873e-08 0)
(0.633195 -6.65007e-08 0)
(0.633194 -1.31609e-07 0)
(0.633195 -1.49653e-07 0)
(1.72822 1.79221e-06 0)
(1.72822 1.59004e-06 0)
(1.72822 1.76666e-06 0)
(1.72822 1.67919e-06 0)
(1.72821 1.28687e-06 0)
(1.72821 1.04122e-06 0)
(1.72821 4.36905e-07 0)
(1.72821 5.86662e-08 0)
(1.72821 1.44087e-07 0)
(1.7282 1.29785e-07 0)
(1.7282 3.23463e-08 0)
(1.7282 -4.27965e-08 0)
(1.7282 -4.01478e-09 0)
(1.7282 8.05947e-08 0)
(1.7282 1.06381e-07 0)
(1.7282 9.52981e-08 0)
(1.7282 1.20785e-07 0)
(1.7282 2.16579e-07 0)
(1.7282 3.38017e-07 0)
(1.7282 4.239e-07 0)
(1.7282 4.01874e-07 0)
(1.7282 2.53952e-07 0)
(1.7282 5.68981e-08 0)
(1.7282 -8.6276e-08 0)
(1.7282 -1.22599e-07 0)
(1.7282 -6.49107e-08 0)
(1.7282 3.09786e-08 0)
(1.7282 1.13775e-07 0)
(1.7282 1.74925e-07 0)
(1.7282 2.26491e-07 0)
(1.7282 2.60195e-07 0)
(1.7282 2.39782e-07 0)
(1.7282 1.63525e-07 0)
(1.7282 1.04635e-07 0)
(1.7282 1.45618e-07 0)
(1.7282 2.77699e-07 0)
(1.7282 3.85805e-07 0)
(1.7282 3.51816e-07 0)
(1.7282 1.74079e-07 0)
(1.7282 -3.43257e-08 0)
(1.7282 -1.61624e-07 0)
(1.7282 -1.94555e-07 0)
(1.7282 -1.96094e-07 0)
(1.7282 -2.19442e-07 0)
(1.7282 -2.51771e-07 0)
(1.7282 -2.38224e-07 0)
(1.7282 -1.485e-07 0)
(1.7282 -2.40511e-08 0)
(1.7282 4.45674e-08 0)
(1.7282 3.2125e-09 0)
(1.7282 -9.61084e-08 0)
(1.7282 -1.36389e-07 0)
(1.7282 -7.27819e-08 0)
(1.7282 1.21393e-08 0)
(1.7282 1.31631e-08 0)
(1.7282 -6.52553e-08 0)
(1.7282 -1.16029e-07 0)
(1.7282 -5.65314e-08 0)
(1.7282 7.36941e-08 0)
(1.7282 1.55968e-07 0)
(1.7282 1.21688e-07 0)
(1.7282 1.44695e-08 0)
(1.7282 -5.52139e-08 0)
(1.7282 -2.44489e-08 0)
(1.7282 5.11382e-08 0)
(1.7282 4.90528e-08 0)
(1.7282 -8.00306e-08 0)
(1.7282 -2.47927e-07 0)
(1.7282 -3.15271e-07 0)
(1.7282 -2.43764e-07 0)
(1.7282 -1.32838e-07 0)
(1.7282 -1.04744e-07 0)
(1.7282 -1.7754e-07 0)
(1.7282 -2.45418e-07 0)
(1.7282 -2.04707e-07 0)
(1.7282 -6.46562e-08 0)
(1.7282 5.87683e-08 0)
(1.7282 6.35007e-08 0)
(1.7282 -1.96522e-08 0)
(1.7282 -5.95922e-08 0)
(1.7282 2.23121e-08 0)
(1.7282 1.61428e-07 0)
(1.7282 2.21952e-07 0)
(1.7282 1.55078e-07 0)
(1.7282 5.03932e-08 0)
(1.7282 4.13234e-08 0)
(1.7282 1.63257e-07 0)
(1.7282 3.10158e-07 0)
(1.7282 3.48967e-07 0)
(1.7282 2.61591e-07 0)
(1.7282 1.67156e-07 0)
(1.7282 1.89802e-07 0)
(1.7282 3.18395e-07 0)
(1.7282 4.20343e-07 0)
(1.7282 3.89293e-07 0)
(1.7282 2.55681e-07 0)
(1.7282 1.4475e-07 0)
(1.7282 1.38142e-07 0)
(1.7282 1.93735e-07 0)
(1.7282 1.99942e-07 0)
(1.7282 9.94068e-08 0)
(1.7282 -4.28239e-08 0)
(1.7282 -1.07192e-07 0)
(1.7282 -4.75184e-08 0)
(1.7282 5.1761e-08 0)
(1.7282 6.95098e-08 0)
(1.72819 -1.51e-08 0)
(1.72819 -1.02824e-07 0)
(1.72819 -8.66109e-08 0)
(1.72819 2.35784e-08 0)
(1.72819 1.11593e-07 0)
(1.72819 8.8513e-08 0)
(1.72819 -1.54211e-08 0)
(1.72819 -9.21218e-08 0)
(1.72819 -7.20737e-08 0)
(1.72819 7.78959e-09 0)
(1.72819 4.80007e-08 0)
(1.72819 -1.31511e-08 0)
(1.72819 -1.33517e-07 0)
(1.72819 -2.0559e-07 0)
(1.72819 -1.73837e-07 0)
(1.72819 -9.6998e-08 0)
(1.7282 -7.84371e-08 0)
(1.7282 -1.47191e-07 0)
(1.7282 -2.31966e-07 0)
(1.7282 -2.48214e-07 0)
(1.7282 -1.9124e-07 0)
(1.7282 -1.24106e-07 0)
(1.7282 -1.00019e-07 0)
(1.7282 -1.19525e-07 0)
(1.7282 -1.39274e-07 0)
(1.7282 -1.25161e-07 0)
(1.7282 -8.68692e-08 0)
(1.7282 -7.14144e-08 0)
(1.7282 -1.10617e-07 0)
(1.7282 -1.71424e-07 0)
(1.7282 -1.85385e-07 0)
(1.7282 -1.34607e-07 0)
(1.7282 -6.73004e-08 0)
(1.7282 -2.91285e-08 0)
(1.7282 -2.74286e-08 0)
(1.7282 -3.78392e-08 0)
(1.7282 -3.24871e-08 0)
(1.7282 -1.73884e-08 0)
(1.7282 -1.37149e-08 0)
(1.7282 -5.2967e-08 0)
(1.7282 -1.48265e-07 0)
(1.7282 -3.14624e-07 0)
(1.7282 -5.71951e-07 0)
(1.7282 -6.29399e-07 0)
(2.65285 3.45862e-06 0)
(2.65285 3.73852e-06 0)
(2.65285 4.75496e-06 0)
(2.65284 5.66222e-06 0)
(2.65284 5.63037e-06 0)
(2.65284 5.08916e-06 0)
(2.65283 4.149e-06 0)
(2.65283 3.00682e-06 0)
(2.65283 2.21408e-06 0)
(2.65282 1.56931e-06 0)
(2.65282 9.96185e-07 0)
(2.65282 6.64448e-07 0)
(2.65282 6.26225e-07 0)
(2.65282 7.75684e-07 0)
(2.65282 8.74237e-07 0)
(2.65282 8.8268e-07 0)
(2.65281 8.57112e-07 0)
(2.65281 8.46769e-07 0)
(2.65281 8.19015e-07 0)
(2.65281 7.46911e-07 0)
(2.65281 6.37171e-07 0)
(2.65281 4.9331e-07 0)
(2.65281 3.33495e-07 0)
(2.65281 1.96848e-07 0)
(2.65281 1.29461e-07 0)
(2.65281 1.56498e-07 0)
(2.65281 2.44366e-07 0)
(2.65281 3.27947e-07 0)
(2.65281 3.68898e-07 0)
(2.65281 3.90888e-07 0)
(2.65281 4.4691e-07 0)
(2.65281 5.33041e-07 0)
(2.65281 5.76391e-07 0)
(2.65281 5.23836e-07 0)
(2.65281 4.1329e-07 0)
(2.65281 3.37712e-07 0)
(2.65281 3.41017e-07 0)
(2.65281 3.63253e-07 0)
(2.65281 3.02326e-07 0)
(2.65281 1.26745e-07 0)
(2.65281 -9.13607e-08 0)
(2.65281 -2.47673e-07 0)
(2.65281 -2.99317e-07 0)
(2.65281 -2.86503e-07 0)
(2.65281 -2.78557e-07 0)
(2.65281 -3.016e-07 0)
(2.65281 -3.15795e-07 0)
(2.65281 -2.55744e-07 0)
(2.65281 -1.19084e-07 0)
(2.65281 3.91582e-10 0)
(2.65281 2.98715e-09 0)
(2.65281 -9.26324e-08 0)
(2.65281 -1.65016e-07 0)
(2.65281 -1.28274e-07 0)
(2.65281 -2.77439e-08 0)
(2.65281 2.3582e-08 0)
(2.65281 -1.38557e-08 0)
(2.65281 -6.19395e-08 0)
(2.65281 -2.12762e-08 0)
(2.65281 1.16019e-07 0)
(2.65281 2.55475e-07 0)
(2.65281 2.85914e-07 0)
(2.65281 1.878e-07 0)
(2.65281 5.53746e-08 0)
(2.65281 -1.00672e-09 0)
(2.65281 2.30102e-08 0)
(2.65281 2.05379e-08 0)
(2.65281 -9.70964e-08 0)
(2.65281 -2.85994e-07 0)
(2.65281 -4.06243e-07 0)
(2.65281 -3.76622e-07 0)
(2.65281 -2.53664e-07 0)
(2.65281 -1.69725e-07 0)
(2.65281 -1.94779e-07 0)
(2.65281 -2.69448e-07 0)
(2.65281 -2.67547e-07 0)
(2.65281 -1.39936e-07 0)
(2.65281 2.06536e-08 0)
(2.65281 8.30484e-08 0)
(2.65281 2.47504e-08 0)
(2.65281 -4.19843e-08 0)
(2.65281 -2.21488e-10 0)
(2.65281 1.40494e-07 0)
(2.65281 2.59394e-07 0)
(2.65281 2.57011e-07 0)
(2.65281 1.66306e-07 0)
(2.65281 1.15457e-07 0)
(2.65281 1.91671e-07 0)
(2.65281 3.45346e-07 0)
(2.65281 4.373e-07 0)
(2.65281 3.94565e-07 0)
(2.65281 2.9249e-07 0)
(2.65281 2.6391e-07 0)
(2.65281 3.47598e-07 0)
(2.65281 4.45799e-07 0)
(2.65281 4.32524e-07 0)
(2.65281 2.88095e-07 0)
(2.65281 1.15795e-07 0)
(2.65281 3.21076e-08 0)
(2.65281 5.3447e-08 0)
(2.65281 8.72543e-08 0)
(2.65281 3.66935e-08 0)
(2.65281 -8.90346e-08 0)
(2.65281 -1.76e-07 0)
(2.65281 -1.35245e-07 0)
(2.65281 -3.52605e-09 0)
(2.65281 9.07643e-08 0)
(2.65281 7.16639e-08 0)
(2.65281 -4.13086e-09 0)
(2.65281 -2.51688e-08 0)
(2.65281 4.57282e-08 0)
(2.65281 1.35076e-07 0)
(2.65281 1.45446e-07 0)
(2.65281 6.24124e-08 0)
(2.65281 -3.73833e-08 0)
(2.65281 -6.59708e-08 0)
(2.65281 -1.26472e-08 0)
(2.65281 4.29953e-08 0)
(2.65281 1.45193e-08 0)
(2.65281 -9.47032e-08 0)
(2.65281 -1.87857e-07 0)
(2.65281 -1.80516e-07 0)
(2.65281 -1.00251e-07 0)
(2.65281 -5.17575e-08 0)
(2.65281 -9.37544e-08 0)
(2.65281 -1.80558e-07 0)
(2.65281 -2.27552e-07 0)
(2.65281 -1.97516e-07 0)
(2.65281 -1.26173e-07 0)
(2.65281 -7.6688e-08 0)
(2.65281 -8.6232e-08 0)
(2.65281 -1.37437e-07 0)
(2.65281 -1.74747e-07 0)
(2.65281 -1.69897e-07 0)
(2.65281 -1.56938e-07 0)
(2.65281 -1.79322e-07 0)
(2.65281 -2.20271e-07 0)
(2.65281 -2.20231e-07 0)
(2.65281 -1.61391e-07 0)
(2.65281 -8.52399e-08 0)
(2.65281 -3.98339e-08 0)
(2.65281 -3.93998e-08 0)
(2.65281 -6.39814e-08 0)
(2.65281 -9.39923e-08 0)
(2.65281 -1.25664e-07 0)
(2.65281 -1.87597e-07 0)
(2.65281 -3.35415e-07 0)
(2.65281 -5.82515e-07 0)
(2.65281 -1.00072e-06 0)
(2.65281 -1.14106e-06 0)
(3.40798 4.67812e-06 0)
(3.40798 5.90342e-06 0)
(3.40798 7.57177e-06 0)
(3.40798 9.10499e-06 0)
(3.40798 9.92989e-06 0)
(3.40797 9.59515e-06 0)
(3.40797 8.50307e-06 0)
(3.40797 6.91901e-06 0)
(3.40796 5.38657e-06 0)
(3.40796 4.31695e-06 0)
(3.40796 3.59708e-06 0)
(3.40795 3.07866e-06 0)
(3.40795 2.69703e-06 0)
(3.40795 2.50999e-06 0)
(3.40795 2.40504e-06 0)
(3.40795 2.28611e-06 0)
(3.40794 2.10184e-06 0)
(3.40794 1.87264e-06 0)
(3.40794 1.60693e-06 0)
(3.40794 1.32107e-06 0)
(3.40794 1.07358e-06 0)
(3.40794 9.03192e-07 0)
(3.40794 7.99722e-07 0)
(3.40794 7.27666e-07 0)
(3.40794 6.62583e-07 0)
(3.40794 6.16741e-07 0)
(3.40794 6.13823e-07 0)
(3.40794 6.45187e-07 0)
(3.40794 6.67775e-07 0)
(3.40794 6.55087e-07 0)
(3.40794 6.38791e-07 0)
(3.40794 6.70398e-07 0)
(3.40794 7.41751e-07 0)
(3.40794 7.75415e-07 0)
(3.40794 7.05886e-07 0)
(3.40794 5.53749e-07 0)
(3.40794 4.07197e-07 0)
(3.40794 3.30843e-07 0)
(3.40794 2.95234e-07 0)
(3.40794 2.19919e-07 0)
(3.40794 5.85295e-08 0)
(3.40794 -1.51763e-07 0)
(3.40794 -3.24373e-07 0)
(3.40794 -4.01912e-07 0)
(3.40794 -4.02016e-07 0)
(3.40794 -3.89988e-07 0)
(3.40794 -4.12326e-07 0)
(3.40794 -4.40465e-07 0)
(3.40794 -4.01246e-07 0)
(3.40794 -2.74119e-07 0)
(3.40794 -1.4286e-07 0)
(3.40794 -1.13686e-07 0)
(3.40794 -1.88245e-07 0)
(3.40794 -2.56694e-07 0)
(3.40794 -2.22361e-07 0)
(3.40794 -1.0238e-07 0)
(3.40794 8.6212e-09 0)
(3.40794 4.77175e-08 0)
(3.40794 4.88564e-08 0)
(3.40794 9.31461e-08 0)
(3.40794 2.15355e-07 0)
(3.40794 3.54022e-07 0)
(3.40794 3.99026e-07 0)
(3.40794 3.04771e-07 0)
(3.40794 1.46084e-07 0)
(3.40794 4.8136e-08 0)
(3.40794 4.77026e-08 0)
(3.40794 6.19404e-08 0)
(3.40794 -8.71175e-09 0)
(3.40794 -1.61239e-07 0)
(3.40794 -2.92074e-07 0)
(3.40794 -3.05694e-07 0)
(3.40794 -2.15126e-07 0)
(3.40794 -1.32812e-07 0)
(3.40794 -1.45873e-07 0)
(3.40794 -2.24085e-07 0)
(3.40793 -2.52739e-07 0)
(3.40793 -1.5596e-07 0)
(3.40793 7.4297e-09 0)
(3.40793 1.06214e-07 0)
(3.40793 8.18583e-08 0)
(3.40793 7.15271e-09 0)
(3.40793 1.38964e-09 0)
(3.40793 9.67662e-08 0)
(3.40793 2.12379e-07 0)
(3.40793 2.45313e-07 0)
(3.40793 1.84134e-07 0)
(3.40794 1.2603e-07 0)
(3.40794 1.70304e-07 0)
(3.40794 3.03629e-07 0)
(3.40794 4.11768e-07 0)
(3.40794 4.04572e-07 0)
(3.40794 3.14629e-07 0)
(3.40794 2.53424e-07 0)
(3.40794 2.78297e-07 0)
(3.40794 3.30771e-07 0)
(3.40794 3.05941e-07 0)
(3.40794 1.66842e-07 0)
(3.40794 -1.47897e-08 0)
(3.40794 -1.23062e-07 0)
(3.40793 -1.10472e-07 0)
(3.40793 -4.48439e-08 0)
(3.40793 -3.65265e-08 0)
(3.40793 -1.12812e-07 0)
(3.40793 -1.8667e-07 0)
(3.40793 -1.60147e-07 0)
(3.40793 -3.77147e-08 0)
(3.40793 7.73663e-08 0)
(3.40793 9.828e-08 0)
(3.40793 4.59236e-08 0)
(3.40793 1.42678e-08 0)
(3.40793 5.94629e-08 0)
(3.40793 1.44048e-07 0)
(3.40793 1.8546e-07 0)
(3.40793 1.44243e-07 0)
(3.40793 6.03494e-08 0)
(3.40793 9.53814e-09 0)
(3.40793 2.66261e-08 0)
(3.40793 6.63924e-08 0)
(3.40793 4.88156e-08 0)
(3.40793 -4.34643e-08 0)
(3.40793 -1.33958e-07 0)
(3.40793 -1.41809e-07 0)
(3.40793 -7.77214e-08 0)
(3.40793 -2.33176e-08 0)
(3.40793 -3.51628e-08 0)
(3.40793 -9.04904e-08 0)
(3.40793 -1.29657e-07 0)
(3.40793 -1.17077e-07 0)
(3.40793 -6.50419e-08 0)
(3.40793 -2.58505e-08 0)
(3.40793 -4.47709e-08 0)
(3.40793 -1.13601e-07 0)
(3.40793 -1.76521e-07 0)
(3.40794 -1.95944e-07 0)
(3.40794 -1.95832e-07 0)
(3.40794 -2.17058e-07 0)
(3.40794 -2.47888e-07 0)
(3.40794 -2.41261e-07 0)
(3.40794 -1.87173e-07 0)
(3.40794 -1.19959e-07 0)
(3.40794 -8.05223e-08 0)
(3.40794 -9.24784e-08 0)
(3.40794 -1.52428e-07 0)
(3.40794 -2.32151e-07 0)
(3.40794 -3.22271e-07 0)
(3.40794 -4.728e-07 0)
(3.40794 -6.86172e-07 0)
(3.40794 -1.07442e-06 0)
(3.40794 -1.2757e-06 0)
(3.99441 4.73954e-06 0)
(3.99441 6.61275e-06 0)
(3.99441 8.38497e-06 0)
(3.99441 9.67385e-06 0)
(3.99441 1.0871e-05 0)
(3.99441 1.12231e-05 0)
(3.99441 1.09595e-05 0)
(3.99441 1.0224e-05 0)
(3.99441 9.07192e-06 0)
(3.9944 7.95458e-06 0)
(3.9944 7.02702e-06 0)
(3.9944 6.25963e-06 0)
(3.9944 5.54158e-06 0)
(3.99439 4.90828e-06 0)
(3.99439 4.3546e-06 0)
(3.99439 3.86016e-06 0)
(3.99439 3.38478e-06 0)
(3.99439 2.92841e-06 0)
(3.99438 2.50006e-06 0)
(3.99438 2.11224e-06 0)
(3.99438 1.81306e-06 0)
(3.99438 1.63785e-06 0)
(3.99438 1.56548e-06 0)
(3.99438 1.53777e-06 0)
(3.99438 1.49013e-06 0)
(3.99438 1.39081e-06 0)
(3.99438 1.26895e-06 0)
(3.99438 1.18557e-06 0)
(3.99438 1.16342e-06 0)
(3.99438 1.15516e-06 0)
(3.99438 1.102e-06 0)
(3.99438 1.01185e-06 0)
(3.99438 9.44751e-07 0)
(3.99438 9.28195e-07 0)
(3.99438 9.1798e-07 0)
(3.99438 8.4846e-07 0)
(3.99438 7.07381e-07 0)
(3.99438 5.47408e-07 0)
(3.99438 4.2955e-07 0)
(3.99438 3.57673e-07 0)
(3.99438 2.81199e-07 0)
(3.99438 1.53663e-07 0)
(3.99438 -1.90907e-08 0)
(3.99438 -1.8262e-07 0)
(3.99438 -2.79582e-07 0)
(3.99438 -3.04217e-07 0)
(3.99438 -3.04774e-07 0)
(3.99438 -3.3199e-07 0)
(3.99438 -3.74059e-07 0)
(3.99438 -3.65711e-07 0)
(3.99438 -2.78685e-07 0)
(3.99438 -1.81698e-07 0)
(3.99438 -1.722e-07 0)
(3.99438 -2.59214e-07 0)
(3.99438 -3.45198e-07 0)
(3.99438 -3.28137e-07 0)
(3.99438 -2.02599e-07 0)
(3.99438 -5.11113e-08 0)
(3.99438 4.50318e-08 0)
(3.99438 7.77162e-08 0)
(3.99438 1.03631e-07 0)
(3.99438 1.76896e-07 0)
(3.99438 2.75951e-07 0)
(3.99438 3.13678e-07 0)
(3.99438 2.32568e-07 0)
(3.99438 8.1842e-08 0)
(3.99438 -2.33313e-08 0)
(3.99438 -2.67056e-08 0)
(3.99438 1.41513e-08 0)
(3.99438 -5.98153e-10 0)
(3.99438 -9.65283e-08 0)
(3.99438 -2.0467e-07 0)
(3.99438 -2.32362e-07 0)
(3.99438 -1.62717e-07 0)
(3.99438 -7.317e-08 0)
(3.99438 -5.8052e-08 0)
(3.99438 -1.20473e-07 0)
(3.99438 -1.63598e-07 0)
(3.99438 -1.02383e-07 0)
(3.99438 3.5721e-08 0)
(3.99438 1.36395e-07 0)
(3.99438 1.26865e-07 0)
(3.99438 5.15669e-08 0)
(3.99438 1.66243e-08 0)
(3.99438 7.84031e-08 0)
(3.99438 1.88486e-07 0)
(3.99438 2.48087e-07 0)
(3.99438 2.15022e-07 0)
(3.99438 1.51479e-07 0)
(3.99438 1.55268e-07 0)
(3.99438 2.43883e-07 0)
(3.99438 3.32146e-07 0)
(3.99438 3.29014e-07 0)
(3.99438 2.35533e-07 0)
(3.99438 1.37385e-07 0)
(3.99438 1.06165e-07 0)
(3.99438 1.25301e-07 0)
(3.99438 1.15528e-07 0)
(3.99438 2.56811e-08 0)
(3.99438 -1.08113e-07 0)
(3.99438 -1.91058e-07 0)
(3.99438 -1.67855e-07 0)
(3.99438 -8.30233e-08 0)
(3.99438 -3.80247e-08 0)
(3.99438 -7.87258e-08 0)
(3.99438 -1.45291e-07 0)
(3.99438 -1.4088e-07 0)
(3.99438 -4.42904e-08 0)
(3.99438 6.76291e-08 0)
(3.99438 1.09316e-07 0)
(3.99438 7.64214e-08 0)
(3.99438 3.80482e-08 0)
(3.99438 5.58961e-08 0)
(3.99438 1.21472e-07 0)
(3.99438 1.73695e-07 0)
(3.99438 1.60542e-07 0)
(3.99438 9.07898e-08 0)
(3.99438 2.9372e-08 0)
(3.99438 3.06061e-08 0)
(3.99438 7.45749e-08 0)
(3.99438 8.88179e-08 0)
(3.99438 3.91234e-08 0)
(3.99438 -2.51965e-08 0)
(3.99438 -3.84603e-08 0)
(3.99438 8.843e-10 0)
(3.99438 3.94074e-08 0)
(3.99438 3.59164e-08 0)
(3.99438 -7.12499e-09 0)
(3.99438 -5.59905e-08 0)
(3.99438 -7.2995e-08 0)
(3.99438 -5.04317e-08 0)
(3.99438 -2.61872e-08 0)
(3.99438 -4.90827e-08 0)
(3.99438 -1.18101e-07 0)
(3.99438 -1.81023e-07 0)
(3.99438 -1.98954e-07 0)
(3.99438 -1.92235e-07 0)
(3.99438 -2.01042e-07 0)
(3.99438 -2.2225e-07 0)
(3.99438 -2.23382e-07 0)
(3.99438 -1.91993e-07 0)
(3.99438 -1.49806e-07 0)
(3.99438 -1.39676e-07 0)
(3.99438 -1.85626e-07 0)
(3.99438 -2.7219e-07 0)
(3.99438 -3.82273e-07 0)
(3.99438 -5.30233e-07 0)
(3.99438 -6.73922e-07 0)
(3.99438 -8.97027e-07 0)
(3.99438 -1.09342e-06 0)
(4.4128 4.09891e-06 0)
(4.4128 5.50912e-06 0)
(4.4128 7.26518e-06 0)
(4.4128 8.39172e-06 0)
(4.4128 9.73224e-06 0)
(4.4128 1.08196e-05 0)
(4.41281 1.15043e-05 0)
(4.41281 1.17568e-05 0)
(4.4128 1.1378e-05 0)
(4.4128 1.06525e-05 0)
(4.4128 9.79713e-06 0)
(4.4128 8.92067e-06 0)
(4.4128 7.97189e-06 0)
(4.41279 6.98462e-06 0)
(4.41279 6.03374e-06 0)
(4.41279 5.1928e-06 0)
(4.41279 4.47862e-06 0)
(4.41279 3.87915e-06 0)
(4.41279 3.37717e-06 0)
(4.41279 2.95955e-06 0)
(4.41278 2.63605e-06 0)
(4.41278 2.41584e-06 0)
(4.41278 2.27851e-06 0)
(4.41278 2.19482e-06 0)
(4.41278 2.13041e-06 0)
(4.41278 2.03427e-06 0)
(4.41278 1.8772e-06 0)
(4.41278 1.69528e-06 0)
(4.41278 1.56317e-06 0)
(4.41278 1.50685e-06 0)
(4.41278 1.46631e-06 0)
(4.41278 1.37153e-06 0)
(4.41278 1.23029e-06 0)
(4.41278 1.11316e-06 0)
(4.41278 1.06498e-06 0)
(4.41278 1.05173e-06 0)
(4.41278 9.99514e-07 0)
(4.41278 8.71497e-07 0)
(4.41278 7.03418e-07 0)
(4.41278 5.55157e-07 0)
(4.41278 4.56444e-07 0)
(4.41278 3.84203e-07 0)
(4.41278 2.8897e-07 0)
(4.41278 1.45784e-07 0)
(4.41278 -1.22488e-08 0)
(4.41278 -1.25242e-07 0)
(4.41278 -1.69752e-07 0)
(4.41278 -1.87884e-07 0)
(4.41278 -2.39087e-07 0)
(4.41278 -3.23658e-07 0)
(4.41278 -3.75145e-07 0)
(4.41278 -3.50751e-07 0)
(4.41278 -2.94193e-07 0)
(4.41278 -2.86024e-07 0)
(4.41278 -3.43523e-07 0)
(4.41278 -3.97267e-07 0)
(4.41278 -3.63329e-07 0)
(4.41278 -2.2501e-07 0)
(4.41278 -4.99007e-08 0)
(4.41278 7.09536e-08 0)
(4.41278 1.01016e-07 0)
(4.41278 8.95372e-08 0)
(4.41278 1.12279e-07 0)
(4.41278 1.80753e-07 0)
(4.41278 2.25858e-07 0)
(4.41278 1.78009e-07 0)
(4.41278 5.89606e-08 0)
(4.41278 -3.84645e-08 0)
(4.41278 -5.23243e-08 0)
(4.41278 -1.37035e-08 0)
(4.41278 -4.61985e-09 0)
(4.41278 -6.94075e-08 0)
(4.41278 -1.68863e-07 0)
(4.41278 -2.16502e-07 0)
(4.41278 -1.67253e-07 0)
(4.41278 -7.26604e-08 0)
(4.41278 -2.75761e-08 0)
(4.41278 -6.19774e-08 0)
(4.41278 -1.06891e-07 0)
(4.41278 -7.80641e-08 0)
(4.41278 2.36166e-08 0)
(4.41278 1.16559e-07 0)
(4.41278 1.3221e-07 0)
(4.41278 8.68708e-08 0)
(4.41278 6.10511e-08 0)
(4.41278 1.13777e-07 0)
(4.41278 2.18917e-07 0)
(4.41278 2.86221e-07 0)
(4.41278 2.55855e-07 0)
(4.41278 1.68225e-07 0)
(4.41278 1.17956e-07 0)
(4.41278 1.45059e-07 0)
(4.41278 1.94217e-07 0)
(4.41278 1.82752e-07 0)
(4.41278 9.38257e-08 0)
(4.41278 -7.88105e-09 0)
(4.41278 -5.06443e-08 0)
(4.41278 -2.76743e-08 0)
(4.41278 4.50444e-10 0)
(4.41278 -3.07436e-08 0)
(4.41278 -1.18643e-07 0)
(4.41278 -1.91739e-07 0)
(4.41278 -1.81531e-07 0)
(4.41278 -1.05596e-07 0)
(4.41278 -4.81637e-08 0)
(4.41278 -6.28812e-08 0)
(4.41278 -1.14143e-07 0)
(4.41278 -1.20752e-07 0)
(4.41278 -5.09546e-08 0)
(4.41278 4.33919e-08 0)
(4.41278 8.94453e-08 0)
(4.41278 7.12152e-08 0)
(4.41278 3.61687e-08 0)
(4.41278 4.01331e-08 0)
(4.41278 9.30438e-08 0)
(4.41278 1.51314e-07 0)
(4.41278 1.59417e-07 0)
(4.41278 1.08875e-07 0)
(4.41278 5.68487e-08 0)
(4.41278 6.36512e-08 0)
(4.41278 1.18066e-07 0)
(4.41278 1.5196e-07 0)
(4.41278 1.27489e-07 0)
(4.41278 7.58211e-08 0)
(4.41278 4.64947e-08 0)
(4.41278 4.98918e-08 0)
(4.41278 6.01307e-08 0)
(4.41278 4.81512e-08 0)
(4.41278 3.56613e-09 0)
(4.41278 -5.46211e-08 0)
(4.41278 -8.68507e-08 0)
(4.41278 -7.46218e-08 0)
(4.41278 -4.85873e-08 0)
(4.41278 -5.55518e-08 0)
(4.41278 -1.00116e-07 0)
(4.41278 -1.38212e-07 0)
(4.41278 -1.38937e-07 0)
(4.41278 -1.25858e-07 0)
(4.41278 -1.36094e-07 0)
(4.41278 -1.65565e-07 0)
(4.41278 -1.81938e-07 0)
(4.41278 -1.79104e-07 0)
(4.41278 -1.81241e-07 0)
(4.41278 -2.08942e-07 0)
(4.41278 -2.62954e-07 0)
(4.41278 -3.56456e-07 0)
(4.41278 -4.88173e-07 0)
(4.41278 -5.92186e-07 0)
(4.41278 -7.09837e-07 0)
(4.41278 -8.74305e-07 0)
(4.66363 4.21989e-06 0)
(4.66363 4.77016e-06 0)
(4.66363 5.72798e-06 0)
(4.66363 6.75772e-06 0)
(4.66363 7.8247e-06 0)
(4.66364 9.14238e-06 0)
(4.66364 1.03123e-05 0)
(4.66364 1.11921e-05 0)
(4.66364 1.15614e-05 0)
(4.66364 1.1472e-05 0)
(4.66364 1.0965e-05 0)
(4.66364 1.01653e-05 0)
(4.66364 9.17987e-06 0)
(4.66364 8.11786e-06 0)
(4.66364 7.06842e-06 0)
(4.66364 6.10131e-06 0)
(4.66363 5.2552e-06 0)
(4.66363 4.54365e-06 0)
(4.66363 3.97383e-06 0)
(4.66363 3.5392e-06 0)
(4.66363 3.21283e-06 0)
(4.66363 2.96096e-06 0)
(4.66363 2.74897e-06 0)
(4.66363 2.56222e-06 0)
(4.66363 2.41189e-06 0)
(4.66363 2.29082e-06 0)
(4.66363 2.15663e-06 0)
(4.66363 1.97927e-06 0)
(4.66363 1.78808e-06 0)
(4.66363 1.64655e-06 0)
(4.66363 1.57117e-06 0)
(4.66363 1.50537e-06 0)
(4.66363 1.39205e-06 0)
(4.66363 1.24379e-06 0)
(4.66363 1.12569e-06 0)
(4.66363 1.07935e-06 0)
(4.66363 1.07686e-06 0)
(4.66363 1.05148e-06 0)
(4.66363 9.58997e-07 0)
(4.66363 8.13463e-07 0)
(4.66363 6.64263e-07 0)
(4.66363 5.43636e-07 0)
(4.66363 4.37018e-07 0)
(4.66363 3.0222e-07 0)
(4.66363 1.17695e-07 0)
(4.66363 -7.92827e-08 0)
(4.66363 -2.17999e-07 0)
(4.66363 -2.68728e-07 0)
(4.66363 -2.79373e-07 0)
(4.66363 -3.22165e-07 0)
(4.66363 -4.09591e-07 0)
(4.66363 -4.80853e-07 0)
(4.66363 -4.75082e-07 0)
(4.66363 -4.02302e-07 0)
(4.66363 -3.25128e-07 0)
(4.66363 -2.8233e-07 0)
(4.66363 -2.49611e-07 0)
(4.66363 -1.75288e-07 0)
(4.66363 -4.06522e-08 0)
(4.66363 1.10106e-07 0)
(4.66363 2.01412e-07 0)
(4.66363 1.96314e-07 0)
(4.66363 1.39912e-07 0)
(4.66363 1.15208e-07 0)
(4.66363 1.52002e-07 0)
(4.66363 1.94863e-07 0)
(4.66363 1.6747e-07 0)
(4.66363 6.4356e-08 0)
(4.66363 -4.43555e-08 0)
(4.66363 -8.86297e-08 0)
(4.66363 -7.13753e-08 0)
(4.66363 -5.67405e-08 0)
(4.66363 -9.98186e-08 0)
(4.66363 -1.85195e-07 0)
(4.66363 -2.37265e-07 0)
(4.66363 -1.99222e-07 0)
(4.66363 -1.02855e-07 0)
(4.66363 -3.99261e-08 0)
(4.66363 -5.73282e-08 0)
(4.66363 -1.06389e-07 0)
(4.66363 -1.03536e-07 0)
(4.66363 -2.54417e-08 0)
(4.66363 7.2644e-08 0)
(4.66363 1.22415e-07 0)
(4.66363 1.11438e-07 0)
(4.66363 9.24651e-08 0)
(4.66363 1.26788e-07 0)
(4.66363 2.09923e-07 0)
(4.66363 2.67872e-07 0)
(4.66363 2.38283e-07 0)
(4.66363 1.43523e-07 0)
(4.66363 6.58925e-08 0)
(4.66363 5.76134e-08 0)
(4.66363 8.89601e-08 0)
(4.66363 8.84244e-08 0)
(4.66363 2.33394e-08 0)
(4.66363 -6.83661e-08 0)
(4.66363 -1.21174e-07 0)
(4.66363 -1.08932e-07 0)
(4.66363 -7.37748e-08 0)
(4.66363 -8.41777e-08 0)
(4.66363 -1.58096e-07 0)
(4.66363 -2.36977e-07 0)
(4.66363 -2.47233e-07 0)
(4.66363 -1.84601e-07 0)
(4.66363 -1.14251e-07 0)
(4.66363 -9.41134e-08 0)
(4.66363 -1.1122e-07 0)
(4.66363 -1.05073e-07 0)
(4.66363 -4.00342e-08 0)
(4.66363 5.45605e-08 0)
(4.66363 1.20928e-07 0)
(4.66363 1.31193e-07 0)
(4.66363 1.07189e-07 0)
(4.66363 9.69388e-08 0)
(4.66363 1.29128e-07 0)
(4.66363 1.80344e-07 0)
(4.66363 1.94232e-07 0)
(4.66363 1.50102e-07 0)
(4.66363 9.53937e-08 0)
(4.66363 8.73419e-08 0)
(4.66363 1.21227e-07 0)
(4.66363 1.43632e-07 0)
(4.66363 1.21882e-07 0)
(4.66363 7.17686e-08 0)
(4.66363 2.58875e-08 0)
(4.66363 2.30426e-09 0)
(4.66363 5.74833e-10 0)
(4.66363 1.30923e-09 0)
(4.66363 -1.85401e-08 0)
(4.66363 -5.40063e-08 0)
(4.66363 -7.05723e-08 0)
(4.66363 -4.7793e-08 0)
(4.66363 -1.19315e-08 0)
(4.66363 -9.98308e-09 0)
(4.66363 -4.8389e-08 0)
(4.66363 -8.54906e-08 0)
(4.66363 -9.46732e-08 0)
(4.66363 -9.29371e-08 0)
(4.66363 -1.04299e-07 0)
(4.66363 -1.23233e-07 0)
(4.66363 -1.4683e-07 0)
(4.66363 -1.8197e-07 0)
(4.66363 -2.16375e-07 0)
(4.66363 -2.51874e-07 0)
(4.66363 -3.1635e-07 0)
(4.66363 -3.92166e-07 0)
(4.66363 -4.6414e-07 0)
(4.66363 -5.65056e-07 0)
(4.66363 -7.08701e-07 0)
(4.74721 4.05806e-06 0)
(4.74721 3.90503e-06 0)
(4.74721 3.92033e-06 0)
(4.74721 4.89668e-06 0)
(4.74721 5.61471e-06 0)
(4.74722 6.81649e-06 0)
(4.74722 8.20161e-06 0)
(4.74722 9.42599e-06 0)
(4.74722 1.02677e-05 0)
(4.74722 1.0644e-05 0)
(4.74723 1.05053e-05 0)
(4.74723 9.93517e-06 0)
(4.74722 9.11753e-06 0)
(4.74722 8.21413e-06 0)
(4.74722 7.32468e-06 0)
(4.74722 6.50043e-06 0)
(4.74722 5.75162e-06 0)
(4.74722 5.0724e-06 0)
(4.74722 4.48235e-06 0)
(4.74722 4.01131e-06 0)
(4.74722 3.64429e-06 0)
(4.74722 3.33786e-06 0)
(4.74722 3.06239e-06 0)
(4.74722 2.80603e-06 0)
(4.74722 2.57788e-06 0)
(4.74722 2.39861e-06 0)
(4.74722 2.26645e-06 0)
(4.74722 2.14223e-06 0)
(4.74722 1.98276e-06 0)
(4.74722 1.79238e-06 0)
(4.74722 1.62107e-06 0)
(4.74722 1.49964e-06 0)
(4.74722 1.40574e-06 0)
(4.74722 1.30431e-06 0)
(4.74722 1.19473e-06 0)
(4.74722 1.11025e-06 0)
(4.74722 1.07756e-06 0)
(4.74722 1.08268e-06 0)
(4.74722 1.07798e-06 0)
(4.74722 1.01781e-06 0)
(4.74722 8.89125e-07 0)
(4.74722 7.1734e-07 0)
(4.74722 5.43622e-07 0)
(4.74722 3.87679e-07 0)
(4.74722 2.3113e-07 0)
(4.74722 5.13689e-08 0)
(4.74722 -1.3131e-07 0)
(4.74722 -2.6079e-07 0)
(4.74722 -3.07734e-07 0)
(4.74722 -3.10469e-07 0)
(4.74722 -3.35321e-07 0)
(4.74722 -3.98406e-07 0)
(4.74722 -4.44455e-07 0)
(4.74722 -4.10568e-07 0)
(4.74722 -2.93198e-07 0)
(4.74722 -1.52046e-07 0)
(4.74722 -5.25536e-08 0)
(4.74722 -1.19538e-08 0)
(4.74722 7.06298e-09 0)
(4.74722 5.1966e-08 0)
(4.74722 1.22612e-07 0)
(4.74722 1.66383e-07 0)
(4.74722 1.37635e-07 0)
(4.74722 6.03387e-08 0)
(4.74722 5.48875e-09 0)
(4.74722 9.5337e-09 0)
(4.74722 3.45701e-08 0)
(4.74722 1.63542e-08 0)
(4.74722 -6.31106e-08 0)
(4.74722 -1.58253e-07 0)
(4.74722 -2.04416e-07 0)
(4.74722 -1.8219e-07 0)
(4.74722 -1.37345e-07 0)
(4.74722 -1.31858e-07 0)
(4.74722 -1.76759e-07 0)
(4.74722 -2.14398e-07 0)
(4.74722 -1.85791e-07 0)
(4.74722 -1.04798e-07 0)
(4.74722 -4.39747e-08 0)
(4.74722 -4.95595e-08 0)
(4.74722 -8.89704e-08 0)
(4.74722 -9.10802e-08 0)
(4.74722 -2.24161e-08 0)
(4.74722 8.21423e-08 0)
(4.74722 1.52512e-07 0)
(4.74722 1.50255e-07 0)
(4.74722 1.08559e-07 0)
(4.74722 9.3453e-08 0)
(4.74722 1.28091e-07 0)
(4.74722 1.64216e-07 0)
(4.74722 1.40279e-07 0)
(4.74722 5.66919e-08 0)
(4.74722 -2.40158e-08 0)
(4.74722 -4.83791e-08 0)
(4.74722 -2.57654e-08 0)
(4.74722 -1.32518e-08 0)
(4.74722 -5.22011e-08 0)
(4.74722 -1.28742e-07 0)
(4.74722 -1.87517e-07 0)
(4.74722 -1.89438e-07 0)
(4.74722 -1.5741e-07 0)
(4.74722 -1.5253e-07 0)
(4.74722 -2.05457e-07 0)
(4.74722 -2.74334e-07 0)
(4.74722 -2.89377e-07 0)
(4.74722 -2.31345e-07 0)
(4.74722 -1.47952e-07 0)
(4.74722 -9.5298e-08 0)
(4.74722 -7.92002e-08 0)
(4.74722 -5.73416e-08 0)
(4.74722 5.30428e-09 0)
(4.74722 9.72755e-08 0)
(4.74722 1.74976e-07 0)
(4.74722 2.01308e-07 0)
(4.74722 1.77231e-07 0)
(4.74722 1.44538e-07 0)
(4.74722 1.46723e-07 0)
(4.74722 1.77754e-07 0)
(4.74722 1.8781e-07 0)
(4.74722 1.51414e-07 0)
(4.74722 1.02759e-07 0)
(4.74722 8.57693e-08 0)
(4.74722 9.84689e-08 0)
(4.74722 1.06021e-07 0)
(4.74722 8.57708e-08 0)
(4.74722 4.21953e-08 0)
(4.74722 -5.28542e-09 0)
(4.74722 -3.07273e-08 0)
(4.74722 -2.04167e-08 0)
(4.74722 5.97321e-09 0)
(4.74722 1.36268e-08 0)
(4.74722 -2.66191e-09 0)
(4.74722 -1.29924e-08 0)
(4.74722 4.89465e-09 0)
(4.74722 3.12075e-08 0)
(4.74722 2.96054e-08 0)
(4.74722 2.18998e-09 0)
(4.74722 -2.25855e-08 0)
(4.74722 -3.24066e-08 0)
(4.74722 -4.05737e-08 0)
(4.74722 -6.0479e-08 0)
(4.74722 -9.33142e-08 0)
(4.74722 -1.46028e-07 0)
(4.74722 -1.77555e-07 0)
(4.74722 -1.99211e-07 0)
(4.74722 -2.54109e-07 0)