/*--------------------------------*- C++ -*----------------------------------*\
| =========                 |                                                 |
| \\      /  F ield         | OpenFOAM: The Open Source CFD Toolbox           |
|  \\    /   O peration     | Version:  2406                                  |
|   \\  /    A nd           | Website:  www.openfoam.com                      |
|    \\/     M anipulation  |                                                 |
\*---------------------------------------------------------------------------*/
FoamFile
{
    version     2.0;
    format      ascii;
    arch        "LSB;label=32;scalar=64";
    class       surfaceScalarField;
    location    "0.5";
    object      alphaPhi0.air;
}
// * * * * * * * * * * * * * * * * * * * * * * * * * * * * * * * * * * * * * //

dimensions      [0 3 -1 0 0 0 0];

oriented        oriented;

internalField   nonuniform List<scalar> 
12225
(
0.453051
2.66704e-06
0.453044
7.27679e-06
0.453035
8.30306e-06
0.453029
6.42373e-06
0.453023
5.98208e-06
0.453017
6.20287e-06
0.45301
6.41152e-06
0.453005
5.76617e-06
0.453
4.4388e-06
0.452996
4.54105e-06
0.452991
4.92922e-06
0.452986
5.07055e-06
0.45298
5.41201e-06
0.452974
5.9126e-06
0.452968
6.44547e-06
0.452961
6.72651e-06
0.452955
6.57727e-06
0.452948
6.34096e-06
0.452942
6.07465e-06
0.452937
5.4557e-06
0.452932
4.91913e-06
0.452927
5.01363e-06
0.452922
5.25576e-06
0.452916
5.22646e-06
0.452911
5.29133e-06
0.452906
5.50281e-06
0.4529
5.35829e-06
0.452895
4.88681e-06
0.452891
4.56927e-06
0.452886
4.33979e-06
0.452882
4.10308e-06
0.452878
3.9914e-06
0.452874
3.99177e-06
0.45287
4.1214e-06
0.452866
4.38775e-06
0.452861
4.63471e-06
0.452856
4.66056e-06
0.452852
4.32866e-06
0.452848
3.8157e-06
0.452845
3.51939e-06
0.452841
3.59515e-06
0.452837
3.77665e-06
0.452833
3.99231e-06
0.452829
4.41456e-06
0.452824
4.93162e-06
0.452819
5.17389e-06
0.452814
5.038e-06
0.452809
4.74729e-06
0.452805
4.52703e-06
0.4528
4.48129e-06
0.452795
4.65717e-06
0.452791
4.89777e-06
0.452786
4.92102e-06
0.452781
4.70974e-06
0.452776
4.52842e-06
0.452772
4.54994e-06
0.452767
4.67094e-06
0.452762
4.80367e-06
0.452757
5.06233e-06
0.452752
5.5001e-06
0.452746
5.92099e-06
0.45274
6.08674e-06
0.452734
6.04443e-06
0.452728
6.02417e-06
0.452722
6.05692e-06
0.452716
5.95168e-06
0.45271
5.63907e-06
0.452705
5.33153e-06
0.4527
5.27367e-06
0.452694
5.43565e-06
0.452689
5.55787e-06
0.452683
5.46266e-06
0.452678
5.22446e-06
0.452673
5.06145e-06
0.452668
5.11304e-06
0.452662
5.31364e-06
0.452657
5.48099e-06
0.452651
5.50102e-06
0.452646
5.43565e-06
0.452641
5.41427e-06
0.452635
5.4564e-06
0.45263
5.44686e-06
0.452624
5.31042e-06
0.452619
5.14879e-06
0.452614
5.13557e-06
0.452609
5.26511e-06
0.452603
5.30383e-06
0.452598
5.07264e-06
0.452594
4.70114e-06
0.452589
4.48911e-06
0.452585
4.54736e-06
0.45258
4.64216e-06
0.452576
4.48097e-06
0.452571
4.05989e-06
0.452568
3.62743e-06
0.452564
3.3796e-06
0.452561
3.26909e-06
0.452558
3.12196e-06
0.452555
2.86694e-06
0.452553
2.58164e-06
0.45255
2.35495e-06
0.452548
2.17565e-06
0.452546
1.9711e-06
0.452544
1.71308e-06
0.452543
1.46314e-06
0.452542
1.31882e-06
0.45254
1.30731e-06
0.452539
1.32446e-06
0.452538
1.21507e-06
0.452537
9.456e-07
0.452536
6.65492e-07
0.452536
5.50331e-07
0.452535
6.17749e-07
0.452534
7.18002e-07
0.452534
7.10042e-07
0.452533
6.30173e-07
0.452532
5.52965e-07
0.452532
4.81408e-07
0.452532
4.00685e-07
0.452531
3.35489e-07
0.452531
2.73284e-07
0.452531
3.8167e-07
0.45253
5.01617e-07
0.45253
5.03952e-07
0.452529
4.13735e-07
0.452529
3.13487e-07
0.452528
2.81057e-07
0.452528
3.36565e-07
0.452528
3.68662e-07
0.452527
3.29891e-07
0.452527
2.50765e-07
0.452527
1.64994e-07
0.452527
1.52489e-07
0.452527
2.32035e-07
0.452526
3.24377e-07
0.452526
3.49206e-07
0.452526
2.80994e-07
0.452526
1.7677e-07
0.452525
1.13895e-07
0.452525
1.22348e-07
0.452525
1.29087e-07
0.452525
1.20834e-07
0.452525
1.51979e-07
0.452525
2.45728e-07
0.452524
3.22349e-07
0.452524
2.70551e-07
0.452524
1.15971e-07
0.452524
-1.224e-07
0.452524
-2.41876e-07
0.452524
-1.5156e-07
0.452524
9.85614e-08
0.452524
3.39661e-07
0.452524
3.75709e-07
0.452523
2.0817e-07
0.452523
-1.75455e-09
0.452524
-1.06394e-07
0.452524
-1.25027e-07
0.452524
-1.30224e-07
0.452524
-1.40653e-07
0.452524
-1.12376e-07
0.452524
1.74599e-08
0.452524
1.79749e-07
0.452524
2.27033e-07
0.452524
1.06323e-07
0.452524
-1.35823e-07
0.452524
-2.83453e-07
0.452524
-2.7379e-07
0.452524
-1.79625e-07
0.452524
-1.08661e-07
0.452525
-1.00596e-07
0.452525
-8.95386e-08
0.452525
-4.34363e-08
0.452525
8.46522e-09
0.452525
-2.59069e-08
0.452525
-2.08511e-07
0.452525
-4.54387e-07
0.452526
-6.11295e-07
0.452527
-5.96018e-07
0.452527
-4.76982e-07
0.452527
-3.40592e-07
0.452528
-2.6182e-07
0.452528
-2.41737e-07
0.452528
-2.69119e-07
0.452529
-3.4378e-07
0.452529
-4.4203e-07
0.45253
-5.34751e-07
0.45253
-5.80207e-07
0.452531
-5.88663e-07
0.452531
-5.89243e-07
0.452532
-5.91571e-07
0.452532
-5.63668e-07
0.452533
-4.82719e-07
0.452533
-3.89456e-07
0.452534
-3.60303e-07
0.452534
-4.25079e-07
0.452535
-5.48434e-07
0.452535
-6.58123e-07
0.452536
-7.27301e-07
0.452537
-7.70192e-07
0.452538
-8.05116e-07
0.452538
-8.30783e-07
0.452539
-8.38279e-07
0.45254
-8.53159e-07
0.452541
-9.11672e-07
0.452542
-1.01924e-06
0.452543
-1.13576e-06
0.452544
-1.22056e-06
0.452546
-1.28452e-06
0.452547
-1.37961e-06
0.452549
-1.52786e-06
0.45255
-1.66644e-06
0.452552
-1.68671e-06
0.452553
-1.54916e-06
0.452555
-1.33596e-06
0.452556
-1.17287e-06
0.452557
-1.10396e-06
0.452558
-1.06355e-06
0.452559
-9.59777e-07
0.45256
-7.55572e-07
0.45256
-4.9355e-07
0.452561
-2.5281e-07
0.452561
-3.91387e-08
0.452561
1.31568e-07
0.45256
2.46689e-07
0.45256
2.51104e-07
0.45256
1.37332e-07
0.45256
-2.23921e-08
0.45256
-6.70967e-08
0.45256
6.40097e-08
0.45256
2.57627e-07
0.452559
3.73764e-07
0.452559
4.0098e-07
0.452558
4.29554e-07
0.452558
5.23798e-07
0.452557
6.35313e-07
0.452557
6.36852e-07
0.452556
5.00183e-07
0.452556
3.32469e-07
0.452556
2.02564e-07
0.452555
1.84913e-07
0.452555
1.7384e-07
0.452555
1.0379e-07
0.452555
2.42153e-09
0.452555
-1.76014e-07
0.452556
-3.03908e-07
0.452556
-3.37335e-07
0.452556
-2.85931e-07
0.452556
-1.75634e-07
0.452557
-7.87751e-08
-7.4035e-08
0.45306
-7.00918e-07
0.453067
1.96817e-07
0.453074
1.73319e-06
0.453078
2.18636e-06
0.453082
1.97176e-06
0.453086
1.9357e-06
0.453091
1.89211e-06
0.453094
2.30604e-06
0.453096
2.44392e-06
0.453099
1.95522e-06
0.453102
2.08011e-06
0.453104
2.68874e-06
0.453107
2.75857e-06
0.45311
2.32844e-06
0.453115
2.14674e-06
0.453119
2.26728e-06
0.453123
2.3294e-06
0.453127
2.35706e-06
0.45313
2.95832e-06
0.453132
3.58057e-06
0.453134
3.24698e-06
0.453136
2.64187e-06
0.453139
2.65925e-06
0.453141
2.79324e-06
0.453144
2.65529e-06
0.453147
2.48567e-06
0.45315
2.60218e-06
0.453152
2.73662e-06
0.453154
2.69023e-06
0.453155
2.63263e-06
0.453157
2.54838e-06
0.453159
2.48457e-06
0.45316
2.5486e-06
0.453162
2.51411e-06
0.453164
2.21701e-06
0.453166
1.9756e-06
0.453169
2.10609e-06
0.453171
2.39701e-06
0.453172
2.49641e-06
0.453173
2.39762e-06
0.453175
2.34583e-06
0.453176
2.38754e-06
0.453178
2.3176e-06
0.45318
2.10883e-06
0.453183
2.02239e-06
0.453186
2.2527e-06
0.453188
2.69008e-06
0.45319
3.06683e-06
0.453191
3.15026e-06
0.453193
2.95806e-06
0.453195
2.70753e-06
0.453197
2.56813e-06
0.453199
2.50667e-06
0.453202
2.44804e-06
0.453204
2.46895e-06
0.453206
2.65168e-06
0.453208
2.8094e-06
0.45321
2.66517e-06
0.453212
2.26276e-06
0.453216
1.92775e-06
0.45322
1.8847e-06
0.453224
2.04766e-06
0.453228
2.19289e-06
0.453232
2.25831e-06
0.453235
2.33117e-06
0.453239
2.43369e-06
0.453242
2.48216e-06
0.453245
2.4263e-06
0.453248
2.315e-06
0.453251
2.22905e-06
0.453255
2.22502e-06
0.453258
2.31485e-06
0.45326
2.41992e-06
0.453263
2.39147e-06
0.453266
2.1758e-06
0.453269
1.93124e-06
0.453273
1.87139e-06
0.453277
2.01165e-06
0.45328
2.14492e-06
0.453283
2.11851e-06
0.453287
2.03329e-06
0.45329
2.08895e-06
0.453293
2.29425e-06
0.453296
2.43682e-06
0.453298
2.35885e-06
0.453302
2.15975e-06
0.453305
2.06754e-06
0.453308
2.14431e-06
0.45331
2.23396e-06
0.453312
2.19841e-06
0.453315
2.09311e-06
0.453317
2.07196e-06
0.45332
2.18684e-06
0.453321
2.35026e-06
0.453323
2.47019e-06
0.453323
2.54204e-06
0.453324
2.5958e-06
0.453325
2.62095e-06
0.453325
2.58641e-06
0.453325
2.50293e-06
0.453325
2.42148e-06
0.453325
2.37363e-06
0.453324
2.34436e-06
0.453324
2.30083e-06
0.453323
2.2281e-06
0.453322
2.14822e-06
0.453321
2.11726e-06
0.453321
2.17703e-06
0.453319
2.29159e-06
0.453318
2.36667e-06
0.453316
2.36717e-06
0.453314
2.38055e-06
0.453313
2.50757e-06
0.453311
2.69345e-06
0.453309
2.74309e-06
0.453307
2.55832e-06
0.453305
2.28045e-06
0.453303
2.13742e-06
0.453301
2.19428e-06
0.4533
2.31239e-06
0.453297
2.32282e-06
0.453296
2.25529e-06
0.453294
2.19863e-06
0.453292
2.18832e-06
0.45329
2.19195e-06
0.453289
2.17603e-06
0.453287
2.16707e-06
0.453285
2.20779e-06
0.453283
2.26558e-06
0.453281
2.2795e-06
0.453279
2.22457e-06
0.453277
2.12717e-06
0.453275
2.06477e-06
0.453273
2.10154e-06
0.453271
2.22589e-06
0.453269
2.3533e-06
0.453267
2.38761e-06
0.453265
2.32356e-06
0.453263
2.26721e-06
0.453261
2.32613e-06
0.453258
2.48259e-06
0.453256
2.6162e-06
0.453253
2.63024e-06
0.453251
2.55259e-06
0.453249
2.48539e-06
0.453247
2.49306e-06
0.453244
2.54146e-06
0.453242
2.55235e-06
0.453239
2.52985e-06
0.453236
2.51425e-06
0.453234
2.54852e-06
0.453231
2.63632e-06
0.453229
2.69405e-06
0.453227
2.62129e-06
0.453224
2.41242e-06
0.453222
2.18943e-06
0.45322
2.09524e-06
0.453217
2.1543e-06
0.453215
2.25942e-06
0.453213
2.30461e-06
0.45321
2.2978e-06
0.453208
2.29988e-06
0.453206
2.31647e-06
0.453204
2.28032e-06
0.453202
2.13778e-06
0.453199
1.97455e-06
0.453197
1.9347e-06
0.453195
2.07824e-06
0.453193
2.30779e-06
0.45319
2.44848e-06
0.453188
2.40611e-06
0.453185
2.24685e-06
0.453183
2.11248e-06
0.453181
2.06187e-06
0.453179
2.02443e-06
0.453176
1.93147e-06
0.453174
1.80023e-06
0.453172
1.72493e-06
0.453169
1.76051e-06
0.453167
1.86316e-06
0.453165
1.92484e-06
0.453163
1.88423e-06
0.453161
1.76206e-06
0.453159
1.61023e-06
0.453157
1.45842e-06
0.453155
1.32123e-06
0.453153
1.23493e-06
0.453152
1.23763e-06
0.45315
1.3154e-06
0.453148
1.39102e-06
0.453146
1.39769e-06
0.453144
1.33533e-06
0.453142
1.24956e-06
0.453141
1.16615e-06
0.453139
1.06168e-06
0.453138
9.06102e-07
0.453136
7.1285e-07
0.453135
5.27501e-07
0.453134
3.76006e-07
0.453133
2.50389e-07
0.453132
1.26183e-07
0.453131
2.35483e-08
0.45313
-5.39439e-08
0.45313
-1.15696e-07
0.453129
-2.07577e-07
0.453128
-3.53555e-07
0.453127
-5.1542e-07
0.453127
-6.17154e-07
0.453126
-6.29131e-07
0.453125
-6.0853e-07
0.453124
-6.39966e-07
0.453123
-7.27742e-07
0.453122
-7.75438e-07
0.453122
-6.92761e-07
0.453121
-5.08045e-07
0.45312
-3.4497e-07
0.453119
-2.86873e-07
0.453119
-2.97184e-07
0.453118
-2.86103e-07
0.453118
-2.27434e-07
0.453118
-1.86217e-07
0.453118
-2.12918e-07
0.453118
-2.72609e-07
0.453119
-2.62771e-07
0.453119
-1.80195e-07
0.45312
-1.15382e-07
0.45312
-1.76608e-07
0.45312
-3.43129e-07
0.453121
-4.64649e-07
0.453121
-4.50984e-07
0.453122
-3.6286e-07
0.453123
-3.43169e-07
0.453124
-4.55476e-07
0.453125
-6.17143e-07
0.453126
-6.77096e-07
0.453127
-5.85412e-07
0.453128
-4.67738e-07
0.453129
-4.63689e-07
0.45313
-6.14418e-07
0.453131
-7.77132e-07
0.453132
-8.1136e-07
0.453133
-7.09978e-07
0.453133
-5.64971e-07
0.453134
-4.63832e-07
0.453134
-4.42017e-07
0.453134
-4.70299e-07
0.453134
-4.82851e-07
0.453134
-4.51336e-07
0.453135
-3.93117e-07
-3.48185e-07
0.453056
-1.01545e-07
0.453056
-9.59622e-08
0.453058
2.59475e-07
0.453059
1.22255e-06
0.453059
1.803e-06
0.453059
2.15444e-06
0.453058
2.38596e-06
0.453058
2.67522e-06
0.453057
3.0426e-06
0.453056
2.82604e-06
0.453056
2.24244e-06
0.453057
1.66752e-06
0.453059
1.42903e-06
0.453059
1.75287e-06
0.453059
2.0062e-06
0.45306
1.86808e-06
0.45306
1.92758e-06
0.453061
1.80713e-06
0.453062
1.46273e-06
0.453064
1.67624e-06
0.453065
2.19939e-06
0.453066
2.22594e-06
0.453066
2.03913e-06
0.453067
1.97019e-06
0.453068
1.92498e-06
0.453068
1.97142e-06
0.453069
1.79591e-06
0.45307
1.65e-06
0.453071
1.91868e-06
0.453071
2.13356e-06
0.453072
2.18701e-06
0.453072
2.23931e-06
0.453072
2.31944e-06
0.453072
2.55619e-06
0.453072
2.70143e-06
0.453071
2.47036e-06
0.453071
2.23518e-06
0.453071
2.32901e-06
0.453071
2.45745e-06
0.453071
2.36549e-06
0.453071
2.32701e-06
0.453071
2.50016e-06
0.453071
2.57739e-06
0.453071
2.33169e-06
0.453071
1.98265e-06
0.453071
1.82279e-06
0.453072
1.86471e-06
0.453073
1.99426e-06
0.453074
2.09923e-06
0.453075
2.0627e-06
0.453076
1.86366e-06
0.453077
1.68274e-06
0.453077
1.68988e-06
0.453078
1.80868e-06
0.453079
1.88324e-06
0.453079
1.94579e-06
0.45308
2.11826e-06
0.45308
2.33981e-06
0.45308
2.43366e-06
0.45308
2.39011e-06
0.453079
2.40433e-06
0.453079
2.57743e-06
0.453078
2.74447e-06
0.453078
2.71252e-06
0.453078
2.55035e-06
0.453077
2.50041e-06
0.453077
2.65813e-06
0.453077
2.87095e-06
0.453076
2.9325e-06
0.453076
2.7899e-06
0.453075
2.57246e-06
0.453075
2.46161e-06
0.453075
2.52351e-06
0.453075
2.63313e-06
0.453074
2.60804e-06
0.453074
2.42993e-06
0.453073
2.27851e-06
0.453073
2.30313e-06
0.453073
2.4188e-06
0.453073
2.41181e-06
0.453072
2.23142e-06
0.453072
2.07202e-06
0.453073
2.12234e-06
0.453073
2.30992e-06
0.453073
2.37983e-06
0.453073
2.22103e-06
0.453073
2.01422e-06
0.453073
2.0002e-06
0.453073
2.17361e-06
0.453073
2.2964e-06
0.453073
2.1971e-06
0.453073
1.95979e-06
0.453073
1.79957e-06
0.453074
1.82083e-06
0.453074
1.9488e-06
0.453075
2.05917e-06
0.453075
2.10257e-06
0.453076
2.10285e-06
0.453076
2.0925e-06
0.453077
2.08434e-06
0.453077
2.08394e-06
0.453077
2.09551e-06
0.453077
2.12116e-06
0.453078
2.16162e-06
0.453078
2.20055e-06
0.453078
2.19388e-06
0.453078
2.11274e-06
0.453078
2.00242e-06
0.453078
1.9566e-06
0.453078
2.01378e-06
0.453079
2.11348e-06
0.453079
2.18167e-06
0.453079
2.22832e-06
0.45308
2.30448e-06
0.45308
2.37967e-06
0.45308
2.35939e-06
0.45308
2.23706e-06
0.45308
2.14768e-06
0.45308
2.23036e-06
0.45308
2.45113e-06
0.45308
2.62309e-06
0.453079
2.6187e-06
0.453079
2.47744e-06
0.453079
2.33241e-06
0.453079
2.27314e-06
0.453079
2.29117e-06
0.453079
2.33591e-06
0.453078
2.36612e-06
0.453078
2.35325e-06
0.453078
2.2886e-06
0.453078
2.19017e-06
0.453078
2.08996e-06
0.453078
2.01446e-06
0.453079
1.97802e-06
0.453079
1.98597e-06
0.453079
2.02111e-06
0.453079
2.02466e-06
0.45308
1.93138e-06
0.45308
1.74375e-06
0.453081
1.55622e-06
0.453082
1.47132e-06
0.453083
1.4901e-06
0.453084
1.50909e-06
0.453086
1.42843e-06
0.453087
1.25143e-06
0.453088
1.08055e-06
0.45309
1.02237e-06
0.453091
1.10381e-06
0.453092
1.26781e-06
0.453094
1.42752e-06
0.453095
1.53419e-06
0.453096
1.60683e-06
0.453097
1.68072e-06
0.453097
1.74309e-06
0.453098
1.74494e-06
0.453099
1.68129e-06
0.453099
1.63139e-06
0.4531
1.68444e-06
0.4531
1.82885e-06
0.4531
1.95029e-06
0.453101
1.94649e-06
0.453101
1.82167e-06
0.453102
1.66592e-06
0.453103
1.54396e-06
0.453103
1.44213e-06
0.453104
1.32747e-06
0.453105
1.22532e-06
0.453105
1.2089e-06
0.453106
1.31219e-06
0.453107
1.4638e-06
0.453108
1.52706e-06
0.453109
1.42557e-06
0.45311
1.2158e-06
0.453111
1.03091e-06
0.453112
9.60385e-07
0.453113
9.89175e-07
0.453114
1.04766e-06
0.453114
1.09546e-06
0.453115
1.14316e-06
0.453116
1.19599e-06
0.453116
1.21517e-06
0.453117
1.14632e-06
0.453118
9.80749e-07
0.453119
7.64192e-07
0.45312
5.46495e-07
0.453121
3.46031e-07
0.453122
1.75195e-07
0.453123
6.88207e-08
0.453124
6.63377e-08
0.453125
1.39582e-07
0.453127
2.22512e-07
0.453128
2.55822e-07
0.453129
2.37059e-07
0.45313
2.17672e-07
0.453131
2.33305e-07
0.453131
2.76453e-07
0.453132
3.27592e-07
0.453132
3.90195e-07
0.453132
4.82696e-07
0.453131
6.04354e-07
0.453131
7.16825e-07
0.45313
7.95359e-07
0.453129
8.44848e-07
0.453128
8.89696e-07
0.453127
9.24726e-07
0.453126
9.04681e-07
0.453124
7.92641e-07
0.453123
6.17458e-07
0.453122
4.64915e-07
0.453121
3.9567e-07
0.45312
3.80652e-07
0.453119
3.4071e-07
0.453118
2.50014e-07
0.453117
1.71709e-07
0.453116
1.81783e-07
0.453116
2.72316e-07
0.453115
3.58792e-07
0.453114
3.70656e-07
0.453114
3.23212e-07
0.453113
2.83233e-07
0.453113
2.78375e-07
0.453112
2.58973e-07
0.453112
1.68968e-07
0.453112
3.64295e-08
0.453111
-4.18092e-08
0.453111
-3.57452e-08
0.453111
-1.80616e-08
0.453111
-8.38543e-08
0.453111
-2.29813e-07
0.453111
-3.6724e-07
0.453111
-4.06773e-07
0.453111
-3.7078e-07
0.453111
-3.66874e-07
0.45311
-4.80836e-07
0.45311
-6.7042e-07
0.453111
-8.05375e-07
0.453111
-8.13491e-07
0.453111
-7.41413e-07
0.453111
-7.01958e-07
0.453111
-7.59562e-07
0.453111
-8.68268e-07
0.453112
-9.35964e-07
0.453112
-9.10988e-07
0.453112
-8.1457e-07
0.453113
-7.11094e-07
0.453113
-6.43352e-07
0.453113
-6.12879e-07
0.453113
-6.00579e-07
0.453113
-5.85876e-07
-5.56102e-07
0.453057
5.36576e-07
0.453055
1.26736e-06
0.453054
1.28908e-06
0.453055
8.29762e-07
0.453056
7.79e-07
0.453057
1.04232e-06
0.453058
1.3782e-06
0.453059
1.31015e-06
0.453061
1.07198e-06
0.453063
1.19305e-06
0.453063
1.8107e-06
0.453062
2.48771e-06
0.453061
2.5136e-06
0.453061
2.04823e-06
0.453061
1.92689e-06
0.453061
2.12377e-06
0.45306
2.39924e-06
0.45306
2.31143e-06
0.453059
1.98303e-06
0.453059
1.94503e-06
0.453059
2.11434e-06
0.453059
1.95361e-06
0.45306
1.65104e-06
0.45306
1.85185e-06
0.45306
2.01091e-06
0.45306
2.03175e-06
0.453059
2.35648e-06
0.453058
2.51461e-06
0.453058
2.41269e-06
0.453057
2.3875e-06
0.453057
2.32875e-06
0.453057
2.09405e-06
0.453058
1.86677e-06
0.453059
1.8671e-06
0.453059
2.0053e-06
0.45306
2.06589e-06
0.45306
1.97627e-06
0.45306
1.83735e-06
0.453061
1.74774e-06
0.453062
1.69429e-06
0.453063
1.65299e-06
0.453063
1.67719e-06
0.453064
1.81241e-06
0.453064
1.97629e-06
0.453064
2.03886e-06
0.453064
1.96391e-06
0.453064
1.7988e-06
0.453065
1.67275e-06
0.453065
1.66282e-06
0.453065
1.72374e-06
0.453066
1.76222e-06
0.453065
1.79487e-06
0.453065
1.91753e-06
0.453065
2.07684e-06
0.453065
2.09695e-06
0.453065
1.95041e-06
0.453065
1.80563e-06
0.453066
1.78212e-06
0.453066
1.81331e-06
0.453067
1.78671e-06
0.453067
1.72704e-06
0.453068
1.71415e-06
0.453069
1.71362e-06
0.45307
1.61642e-06
0.453072
1.44417e-06
0.453073
1.36188e-06
0.453074
1.46649e-06
0.453075
1.66515e-06
0.453076
1.81031e-06
0.453077
1.85644e-06
0.453078
1.84138e-06
0.453079
1.81038e-06
0.453079
1.80289e-06
0.45308
1.84374e-06
0.453081
1.90027e-06
0.453081
1.89604e-06
0.453082
1.80974e-06
0.453082
1.7207e-06
0.453083
1.7126e-06
0.453084
1.75799e-06
0.453084
1.75507e-06
0.453085
1.67584e-06
0.453085
1.6168e-06
0.453086
1.67078e-06
0.453086
1.78965e-06
0.453087
1.83999e-06
0.453087
1.78918e-06
0.453087
1.75758e-06
0.453087
1.85167e-06
0.453088
2.00749e-06
0.453088
2.06446e-06
0.453088
1.96762e-06
0.453088
1.82939e-06
0.453088
1.78266e-06
0.453088
1.83271e-06
0.453088
1.88326e-06
0.453088
1.86812e-06
0.453089
1.81115e-06
0.453089
1.76885e-06
0.453089
1.761e-06
0.45309
1.76744e-06
0.45309
1.76456e-06
0.45309
1.75256e-06
0.453091
1.75855e-06
0.453091
1.80803e-06
0.453091
1.87775e-06
0.453092
1.89529e-06
0.453092
1.82183e-06
0.453092
1.72793e-06
0.453092
1.73811e-06
0.453093
1.88154e-06
0.453093
2.03682e-06
0.453093
2.06439e-06
0.453093
1.95924e-06
0.453094
1.82418e-06
0.453094
1.73603e-06
0.453095
1.69516e-06
0.453095
1.69177e-06
0.453096
1.75916e-06
0.453096
1.90683e-06
0.453097
2.05107e-06
0.453098
2.08182e-06
0.453098
1.98526e-06
0.453099
1.86893e-06
0.453099
1.85173e-06
0.453099
1.95173e-06
0.4531
2.09338e-06
0.4531
2.18632e-06
0.4531
2.18777e-06
0.4531
2.11657e-06
0.4531
2.03215e-06
0.4531
1.99516e-06
0.4531
2.02342e-06
0.4531
2.08184e-06
0.4531
2.12652e-06
0.4531
2.1506e-06
0.4531
2.17127e-06
0.4531
2.18265e-06
0.453099
2.1509e-06
0.453099
2.06898e-06
0.453098
1.98715e-06
0.453098
1.9629e-06
0.453097
1.99247e-06
0.453097
2.00846e-06
0.453096
1.95035e-06
0.453095
1.83195e-06
0.453094
1.73383e-06
0.453094
1.7349e-06
0.453093
1.84625e-06
0.453093
1.99539e-06
0.453092
2.07563e-06
0.453092
2.03259e-06
0.453091
1.90549e-06
0.453091
1.77874e-06
0.453091
1.69968e-06
0.453091
1.65751e-06
0.453091
1.63924e-06
0.453091
1.67105e-06
0.453092
1.77819e-06
0.453092
1.91848e-06
0.453092
1.98883e-06
0.453091
1.91976e-06
0.453091
1.75696e-06
0.453091
1.62291e-06
0.453091
1.60236e-06
0.453091
1.67911e-06
0.45309
1.77794e-06
0.45309
1.8498e-06
0.453089
1.90654e-06
0.453088
1.9711e-06
0.453088
2.01705e-06
0.453087
1.98013e-06
0.453087
1.83179e-06
0.453086
1.63239e-06
0.453086
1.50024e-06
0.453085
1.51119e-06
0.453085
1.65256e-06
0.453084
1.84449e-06
0.453083
2.02558e-06
0.453082
2.17414e-06
0.453081
2.28206e-06
0.45308
2.32565e-06
0.453078
2.29094e-06
0.453077
2.20965e-06
0.453075
2.14235e-06
0.453074
2.12211e-06
0.453072
2.12975e-06
0.45307
2.13137e-06
0.453067
2.12157e-06
0.453065
2.11024e-06
0.453064
2.08557e-06
0.453062
1.99842e-06
0.45306
1.80739e-06
0.453059
1.52788e-06
0.453058
1.21607e-06
0.453057
9.17702e-07
0.453057
6.42077e-07
0.453057
3.827e-07
0.453057
1.48808e-07
0.453058
-2.74448e-08
0.453059
-1.70899e-07
0.45306
-3.05506e-07
0.453061
-4.5691e-07
0.453063
-6.13708e-07
0.453064
-7.42491e-07
0.453066
-8.3462e-07
0.453068
-9.28929e-07
0.45307
-1.0753e-06
0.453071
-1.26663e-06
0.453073
-1.43394e-06
0.453075
-1.51403e-06
0.453077
-1.52345e-06
0.453079
-1.54514e-06
0.453081
-1.63157e-06
0.453082
-1.73894e-06
0.453084
-1.78723e-06
0.453087
-1.75847e-06
0.453089
-1.71124e-06
0.453091
-1.70363e-06
0.453093
-1.72062e-06
0.453095
-1.69872e-06
0.453097
-1.61762e-06
0.453098
-1.53344e-06
0.4531
-1.50512e-06
0.453101
-1.51056e-06
0.453103
-1.46357e-06
0.453104
-1.31866e-06
0.453105
-1.13722e-06
0.453106
-1.02083e-06
0.453107
-1.00981e-06
0.453107
-1.04395e-06
0.453108
-1.03196e-06
0.453108
-9.53539e-07
0.453109
-8.82731e-07
0.453109
-9.0457e-07
0.453109
-1.0172e-06
0.45311
-1.13474e-06
0.45311
-1.17318e-06
0.45311
-1.12612e-06
0.453111
-1.05827e-06
0.453111
-1.02849e-06
0.453111
-1.04326e-06
0.453111
-1.06593e-06
0.453111
-1.05664e-06
0.453112
-1.0069e-06
0.453112
-9.34313e-07
0.453112
-8.62837e-07
0.453112
-8.05999e-07
0.453113
-7.70785e-07
-7.5702e-07
0.45306
-2.22314e-07
0.45306
5.43343e-07
0.45306
1.47489e-06
0.453059
2.05557e-06
0.453058
1.50352e-06
0.453059
8.29732e-07
0.453058
1.45489e-06
0.453058
2.03918e-06
0.453056
2.36178e-06
0.453055
2.39809e-06
0.453055
1.97787e-06
0.453056
1.72818e-06
0.453056
2.04167e-06
0.453056
2.25234e-06
0.453056
2.14715e-06
0.453056
1.69877e-06
0.453057
1.54198e-06
0.453058
1.90277e-06
0.453058
1.9363e-06
0.453058
1.63084e-06
0.453058
1.60335e-06
0.453059
1.87558e-06
0.453058
1.91755e-06
0.453058
1.73428e-06
0.453059
1.72612e-06
0.453059
1.70543e-06
0.45306
1.65551e-06
0.453061
1.72385e-06
0.453061
1.72547e-06
0.453062
1.6745e-06
0.453062
1.79904e-06
0.453063
1.96234e-06
0.453063
1.80911e-06
0.453063
1.51823e-06
0.453063
1.60711e-06
0.453063
1.98237e-06
0.453063
2.13066e-06
0.453063
2.00736e-06
0.453063
1.98032e-06
0.453063
2.04322e-06
0.453062
1.91601e-06
0.453062
1.64467e-06
0.453063
1.52732e-06
0.453063
1.60291e-06
0.453063
1.67084e-06
0.453064
1.66153e-06
0.453064
1.6216e-06
0.453064
1.55426e-06
0.453064
1.49398e-06
0.453064
1.54032e-06
0.453064
1.66574e-06
0.453065
1.68074e-06
0.453065
1.51626e-06
0.453066
1.33753e-06
0.453066
1.27221e-06
0.453067
1.24279e-06
0.453068
1.13835e-06
0.453069
1.02038e-06
0.453069
1.02351e-06
0.45307
1.12819e-06
0.453071
1.17213e-06
0.453071
1.07984e-06
0.453072
9.61458e-07
0.453073
9.55917e-07
0.453073
1.07013e-06
0.453073
1.19796e-06
0.453073
1.23359e-06
0.453074
1.15516e-06
0.453075
1.04977e-06
0.453076
1.03985e-06
0.453076
1.14613e-06
0.453077
1.26425e-06
0.453077
1.30518e-06
0.453078
1.32162e-06
0.453078
1.4245e-06
0.453079
1.60373e-06
0.453079
1.7218e-06
0.453079
1.69818e-06
0.453079
1.63102e-06
0.453079
1.67682e-06
0.453079
1.84392e-06
0.453078
1.97529e-06
0.453078
1.94073e-06
0.453078
1.79232e-06
0.453078
1.68603e-06
0.453078
1.6855e-06
0.453078
1.71239e-06
0.453078
1.67983e-06
0.453079
1.60272e-06
0.453079
1.54817e-06
0.45308
1.53217e-06
0.45308
1.51869e-06
0.45308
1.49612e-06
0.453081
1.49785e-06
0.453081
1.54253e-06
0.453081
1.59799e-06
0.453082
1.6232e-06
0.453082
1.62116e-06
0.453082
1.62601e-06
0.453082
1.65614e-06
0.453082
1.70232e-06
0.453082
1.74833e-06
0.453082
1.78278e-06
0.453082
1.8015e-06
0.453082
1.81369e-06
0.453082
1.83332e-06
0.453082
1.84943e-06
0.453082
1.82661e-06
0.453082
1.76505e-06
0.453082
1.74006e-06
0.453082
1.82737e-06
0.453082
1.97808e-06
0.453082
2.03183e-06
0.453082
1.88837e-06
0.453082
1.62587e-06
0.453083
1.42379e-06
0.453083
1.38418e-06
0.453083
1.45864e-06
0.453084
1.54425e-06
0.453084
1.58464e-06
0.453084
1.57321e-06
0.453085
1.51268e-06
0.453085
1.416e-06
0.453086
1.33601e-06
0.453086
1.33706e-06
0.453087
1.42979e-06
0.453088
1.55319e-06
0.453088
1.62309e-06
0.453089
1.59893e-06
0.453089
1.5051e-06
0.45309
1.40996e-06
0.453091
1.39023e-06
0.453091
1.4825e-06
0.453092
1.64688e-06
0.453092
1.79199e-06
0.453092
1.85418e-06
0.453092
1.85345e-06
0.453093
1.8595e-06
0.453093
1.90705e-06
0.453093
1.9645e-06
0.453093
1.98127e-06
0.453093
1.9441e-06
0.453093
1.87943e-06
0.453093
1.81188e-06
0.453094
1.74068e-06
0.453094
1.65649e-06
0.453094
1.56624e-06
0.453094
1.49857e-06
0.453095
1.48101e-06
0.453095
1.50431e-06
0.453096
1.50879e-06
0.453096
1.42158e-06
0.453097
1.22738e-06
0.453098
1.00006e-06
0.453099
8.47243e-07
0.453099
8.1868e-07
0.4531
8.78556e-07
0.453101
9.63801e-07
0.453102
1.04733e-06
0.453102
1.1307e-06
0.453103
1.19057e-06
0.453104
1.17179e-06
0.453105
1.0511e-06
0.453105
8.88074e-07
0.453106
7.91249e-07
0.453107
8.28558e-07
0.453108
9.63684e-07
0.453109
1.08779e-06
0.453109
1.11244e-06
0.45311
1.02652e-06
0.453112
8.73564e-07
0.453113
6.94571e-07
0.453114
4.96499e-07
0.453116
2.83853e-07
0.453117
1.03993e-07
0.453118
9.43665e-09
0.45312
5.39525e-08
0.453122
1.86477e-07
0.453123
3.37518e-07
0.453125
4.41944e-07
0.453127
4.91026e-07
0.453129
4.96885e-07
0.453131
4.70094e-07
0.453132
4.3276e-07
0.453134
4.34811e-07
0.453136
5.31595e-07
0.453137
7.3389e-07
0.453138
9.94568e-07
0.453139
1.24928e-06
0.45314
1.46449e-06
0.45314
1.63746e-06
0.45314
1.75907e-06
0.45314
1.8013e-06
0.45314
1.74668e-06
0.45314
1.61605e-06
0.453139
1.45558e-06
0.453139
1.29601e-06
0.453138
1.14015e-06
0.453137
9.82951e-07
0.453136
8.36976e-07
0.453135
7.15841e-07
0.453134
6.19864e-07
0.453133
5.23015e-07
0.453132
3.99499e-07
0.453131
2.55813e-07
0.45313
1.30233e-07
0.453129
5.10213e-08
0.453128
-1.19703e-08
0.453127
-1.01288e-07
0.453126
-2.33202e-07
0.453125
-3.60757e-07
0.453124
-4.26881e-07
0.453123
-4.34551e-07
0.453121
-4.43558e-07
0.45312
-4.99573e-07
0.453119
-5.81254e-07
0.453118
-6.30223e-07
0.453117
-6.28412e-07
0.453116
-6.22851e-07
0.453115
-6.62684e-07
0.453114
-7.32693e-07
0.453113
-7.7266e-07
0.453112
-7.54359e-07
0.453111
-7.16038e-07
0.45311
-7.13178e-07
0.45311
-7.46169e-07
0.453109
-7.56994e-07
0.453109
-7.02941e-07
0.453108
-6.1514e-07
0.453108
-5.76329e-07
0.453107
-6.40165e-07
0.453107
-7.71849e-07
0.453107
-8.86717e-07
0.453107
-9.36613e-07
0.453107
-9.56703e-07
0.453107
-1.01579e-06
0.453107
-1.13924e-06
0.453107
-1.28527e-06
0.453108
-1.39065e-06
0.453108
-1.42855e-06
0.453108
-1.42036e-06
0.453109
-1.403e-06
0.453109
-1.39405e-06
0.453109
-1.38326e-06
0.45311
-1.35412e-06
0.45311
-1.30079e-06
0.45311
-1.23141e-06
0.453111
-1.15597e-06
0.453111
-1.09538e-06
-1.01764e-06
0.453057
-4.90836e-07
0.453058
-3.95668e-07
0.453059
1.89898e-07
0.45306
7.79819e-07
0.45306
1.28535e-06
0.45306
1.4013e-06
0.45306
1.17441e-06
0.453061
1.40046e-06
0.453062
1.34024e-06
0.453063
1.08875e-06
0.453064
1.06588e-06
0.453065
1.09571e-06
0.453066
9.92731e-07
0.453067
8.7746e-07
0.453068
1.0853e-06
0.453068
1.45326e-06
0.453068
1.33271e-06
0.453069
1.35319e-06
0.45307
1.47625e-06
0.45307
1.33288e-06
0.45307
1.41372e-06
0.45307
1.67188e-06
0.45307
1.85409e-06
0.45307
1.89007e-06
0.45307
1.67206e-06
0.45307
1.41986e-06
0.453071
1.42671e-06
0.453071
1.47059e-06
0.453071
1.33826e-06
0.453072
1.32357e-06
0.453072
1.54696e-06
0.453072
1.79333e-06
0.453072
1.84359e-06
0.453072
1.62846e-06
0.453072
1.41072e-06
0.453073
1.39722e-06
0.453073
1.47647e-06
0.453074
1.49398e-06
0.453074
1.51936e-06
0.453075
1.62725e-06
0.453075
1.71148e-06
0.453075
1.68107e-06
0.453075
1.5908e-06
0.453075
1.50094e-06
0.453075
1.39969e-06
0.453076
1.30577e-06
0.453076
1.21134e-06
0.453076
1.09666e-06
0.453077
1.02845e-06
0.453077
1.15224e-06
0.453078
1.45027e-06
0.453078
1.63276e-06
0.453078
1.56077e-06
0.453077
1.4416e-06
0.453077
1.49352e-06
0.453077
1.63676e-06
0.453076
1.64985e-06
0.453076
1.54813e-06
0.453075
1.53554e-06
0.453075
1.66417e-06
0.453074
1.73191e-06
0.453074
1.59652e-06
0.453073
1.40628e-06
0.453073
1.39392e-06
0.453072
1.57556e-06
0.453072
1.74504e-06
0.453071
1.7396e-06
0.453071
1.58907e-06
0.45307
1.42846e-06
0.45307
1.36476e-06
0.45307
1.40909e-06
0.45307
1.48295e-06
0.453069
1.49539e-06
0.453069
1.43401e-06
0.453069
1.37299e-06
0.45307
1.37189e-06
0.45307
1.39018e-06
0.45307
1.34386e-06
0.453071
1.23397e-06
0.453071
1.16938e-06
0.453072
1.23343e-06
0.453072
1.35703e-06
0.453073
1.38256e-06
0.453073
1.25671e-06
0.453074
1.10412e-06
0.453075
1.08252e-06
0.453075
1.1991e-06
0.453076
1.31585e-06
0.453076
1.32497e-06
0.453076
1.25464e-06
0.453076
1.19761e-06
0.453077
1.19125e-06
0.453077
1.202e-06
0.453077
1.19825e-06
0.453078
1.19024e-06
0.453078
1.1987e-06
0.453079
1.21866e-06
0.453079
1.22872e-06
0.453079
1.21789e-06
0.45308
1.19433e-06
0.45308
1.18328e-06
0.453081
1.21736e-06
0.453081
1.30716e-06
0.453082
1.41274e-06
0.453082
1.4688e-06
0.453082
1.45473e-06
0.453083
1.41958e-06
0.453083
1.42213e-06
0.453084
1.47055e-06
0.453084
1.54429e-06
0.453084
1.64332e-06
0.453084
1.76529e-06
0.453084
1.85337e-06
0.453084
1.82809e-06
0.453084
1.6934e-06
0.453084
1.57237e-06
0.453084
1.58987e-06
0.453084
1.73617e-06
0.453083
1.87766e-06
0.453083
1.89212e-06
0.453083
1.77372e-06
0.453083
1.60526e-06
0.453083
1.47089e-06
0.453083
1.41572e-06
0.453083
1.44557e-06
0.453082
1.53135e-06
0.453082
1.61653e-06
0.453082
1.64637e-06
0.453082
1.6077e-06
0.453082
1.53319e-06
0.453082
1.47073e-06
0.453082
1.45778e-06
0.453082
1.50995e-06
0.453082
1.60694e-06
0.453082
1.68514e-06
0.453082
1.67083e-06
0.453083
1.54696e-06
0.453083
1.37999e-06
0.453084
1.26248e-06
0.453085
1.22855e-06