/*--------------------------------*- C++ -*----------------------------------*\
| =========                 |                                                 |
| \\      /  F ield         | OpenFOAM: The Open Source CFD Toolbox           |
|  \\    /   O peration     | Version:  2406                                  |
|   \\  /    A nd           | Website:  www.openfoam.com                      |
|    \\/     M anipulation  |                                                 |
\*---------------------------------------------------------------------------*/
FoamFile
{
    version     2.0;
    format      ascii;
    arch        "LSB;label=32;scalar=64";
    class       volScalarField;
    location    "0.5";
    object      alpha.glycerin;
}
// * * * * * * * * * * * * * * * * * * * * * * * * * * * * * * * * * * * * * //

dimensions      [0 0 0 0 0 0 0];

internalField   nonuniform List<scalar> 
6250
(
4.81418e-320
4.81516e-320
4.81615e-320
4.81615e-320
4.81813e-320
4.81813e-320
4.8201e-320
4.8201e-320
4.82208e-320
4.82208e-320
4.82406e-320
4.82505e-320
4.82603e-320
4.82801e-320
4.82801e-320
4.82999e-320
4.83097e-320
4.83196e-320
4.83394e-320
4.83493e-320
4.83591e-320
4.83789e-320
4.83789e-320
-4.83987e-320
4.84184e-320
4.84184e-320
-4.84382e-320
-4.84481e-320
-4.8458e-320
-4.84777e-320
-4.84876e-320
-4.84975e-320
-4.85172e-320
-4.85271e-320
-4.8537e-320
-4.85568e-320
-4.85667e-320
-4.85765e-320
-4.85963e-320
-4.85963e-320
-4.86161e-320
-4.86259e-320
-4.86358e-320
-4.86556e-320
-4.86655e-320
-4.86753e-320
-4.86951e-320
-4.8705e-320
-4.87149e-320
-4.87346e-320
-4.87445e-320
-4.87544e-320
-4.87742e-320
-4.8784e-320
-4.87939e-320
-4.88137e-320
-4.88137e-320
-4.88334e-320
-4.88532e-320
-4.88532e-320
-4.8873e-320
-4.88829e-320
-4.88927e-320
-4.89125e-320
-4.89224e-320
-4.89323e-320
-4.8952e-320
-4.89619e-320
-4.89718e-320
-4.89915e-320
-4.90014e-320
-4.90113e-320
-4.90311e-320
-4.9041e-320
-4.90508e-320
-4.90706e-320
-4.90805e-320
-4.90904e-320
-4.91101e-320
-4.91101e-320
-4.91299e-320
-4.91497e-320
-4.91497e-320
-4.91694e-320
-4.91793e-320
-4.91892e-320
-4.92089e-320
-4.92188e-320
-4.92287e-320
-4.92485e-320
-4.92583e-320
-4.92682e-320
-4.9288e-320
-4.92979e-320
-4.93078e-320
-4.93275e-320
-4.93374e-320
-4.93473e-320
-4.9367e-320
-4.93769e-320
-4.93868e-320
-4.94066e-320
-4.94066e-320
-4.94263e-320
-4.94461e-320
-4.94461e-320
-4.94659e-320
-4.94757e-320
-4.94856e-320
-4.95054e-320
-4.95153e-320
-4.95251e-320
-4.95449e-320
-4.95548e-320
-4.95647e-320
-4.95844e-320
-4.95943e-320
-4.96042e-320
-4.9624e-320
-4.96338e-320
-4.96437e-320
-4.96635e-320
-4.96734e-320
-4.96832e-320
-4.9703e-320
-4.9703e-320
-4.97228e-320
-4.97425e-320
-4.97425e-320
-4.97623e-320
-4.97722e-320
-4.97821e-320
-4.98018e-320
-4.98117e-320
-4.98216e-320
-4.98413e-320
-4.98512e-320
-4.98611e-320
-4.98809e-320
-4.98907e-320
-4.99006e-320
-4.99204e-320
-4.99303e-320
-4.99402e-320
-4.99599e-320
-4.99599e-320
-4.99797e-320
-4.99896e-320
-4.99994e-320
-5.00192e-320
-5.00291e-320
-5.0039e-320
-5.00587e-320
-5.00686e-320
-5.00785e-320
-5.00983e-320
-5.00983e-320
-5.0118e-320
-5.01378e-320
-5.01378e-320
-5.01575e-320
-5.01674e-320
-5.01773e-320
-5.01971e-320
-5.0207e-320
-5.02168e-320
-5.02366e-320
-5.02366e-320
-5.02564e-320
-5.02662e-320
-5.02761e-320
-5.02959e-320
-5.02959e-320
-5.03156e-320
-5.03255e-320
-5.03354e-320
-5.03552e-320
-5.03552e-320
-5.03749e-320
-5.03848e-320
-5.03947e-320
-5.04145e-320
-5.04145e-320
-5.04342e-320
-5.04342e-320
-5.0454e-320
-5.04639e-320
-5.04737e-320
-5.04836e-320
-5.04935e-320
-5.05034e-320
-5.05133e-320
-5.0533e-320
-5.0533e-320
-5.05528e-320
-5.05528e-320
-5.05627e-320
-5.05726e-320
-5.05824e-320
-5.05923e-320
-5.06022e-320
-5.06121e-320
-5.06121e-320
-5.06318e-320
-5.06318e-320
-5.06417e-320
-5.06516e-320
-5.06516e-320
-5.06615e-320
-5.06714e-320
-5.06714e-320
-5.06813e-320
-5.06911e-320
-5.06911e-320
-5.06911e-320
-5.06911e-320
-5.0701e-320
-5.07109e-320
-5.07109e-320
-3.07543e-315
-5.17755e-302
-1.07789e-289
-1.45191e-277
-1.82315e-265
-1.94751e-251
-1.20097e-238
-1.74684e-226
-1.22056e-214
-5.06847e-203
-1.03979e-191
-2.17897e-180
-1.30007e-169
-2.51725e-159
-5.70508e-149
-4.10779e-139
-2.39108e-130
-2.45728e-122
-1.87165e-114
-7.39436e-107
-6.2569e-100
-1.18103e-94
-2.27634e-92
-7.6906e-87
-3.0323e-82
-3.53403e-80
-2.05171e-78
-7.88725e-77
-2.26485e-75
-4.99715e-74
-8.8568e-73
4.81319e-320
4.8122e-320
4.8122e-320
4.81022e-320
4.81022e-320
4.81022e-320
4.80923e-320
4.80825e-320
4.80825e-320
4.80726e-320
4.80627e-320
4.80627e-320
4.80528e-320
4.80429e-320
4.80429e-320
4.80331e-320
4.80232e-320
4.80232e-320
4.80133e-320
4.80034e-320
4.80034e-320
4.79935e-320
4.79837e-320
-4.79837e-320
4.79738e-320
4.79639e-320
-4.79639e-320
-4.7954e-320
-4.79441e-320
-4.79441e-320
-4.79342e-320
-4.79244e-320
-4.79244e-320
-4.79244e-320
-4.79046e-320
-4.79046e-320
-4.79046e-320
-4.78947e-320
-4.78848e-320
-4.78848e-320
-4.7875e-320
-4.78651e-320
-4.78651e-320
-4.78552e-320
-4.78453e-320
-4.78453e-320
-4.78354e-320
-4.78256e-320
-4.78256e-320
-4.78256e-320
-4.78157e-320
-4.78058e-320
-4.78058e-320
-4.77959e-320
-4.7786e-320
-4.7786e-320
-4.77761e-320
-4.77663e-320
-4.77663e-320
-4.77663e-320
-4.77564e-320
-4.77465e-320
-4.77465e-320
-4.77366e-320
-4.77267e-320
-4.77267e-320
-4.77267e-320
-4.77169e-320
-4.7707e-320
-4.7707e-320
-4.76971e-320
-4.76872e-320
-4.76872e-320
-4.76872e-320
-4.76773e-320
-4.76675e-320
-4.76675e-320
-4.76675e-320
-4.76576e-320
-4.76477e-320
-4.76477e-320
-4.76378e-320
-4.76279e-320
-4.76279e-320
-4.76279e-320
-4.7618e-320
-4.76082e-320
-4.76082e-320
-4.76082e-320
-4.75983e-320
-4.75884e-320
-4.75884e-320
-4.75884e-320
-4.75785e-320
-4.75686e-320
-4.75686e-320
-4.75686e-320
-4.75588e-320
-4.75489e-320
-4.75489e-320
-4.75489e-320
-4.7539e-320
-4.75291e-320
-4.75291e-320
-4.75291e-320
-4.75192e-320
-4.75094e-320
-4.75094e-320
-4.75094e-320
-4.74995e-320
-4.74896e-320
-4.74896e-320
-4.74896e-320
-4.74797e-320
-4.74698e-320
-4.74698e-320
-4.74698e-320
-4.74599e-320
-4.74501e-320
-4.74501e-320
-4.74501e-320
-4.74402e-320
-4.74303e-320
-4.74303e-320
-4.74303e-320
-4.74303e-320
-4.74204e-320
-4.74105e-320
-4.74105e-320
-4.74105e-320
-4.74007e-320
-4.73908e-320
-4.73908e-320
-4.73908e-320
-4.73908e-320
-4.73809e-320
-4.7371e-320
-4.7371e-320
-4.7371e-320
-4.73611e-320
-4.73513e-320
-4.73513e-320
-4.73513e-320
-4.73513e-320
-4.73414e-320
-4.73315e-320
-4.73315e-320
-4.73315e-320
-4.73315e-320
-4.73216e-320
-4.73117e-320
-4.73117e-320
-4.73117e-320
-4.73117e-320
-4.73018e-320
-4.7292e-320
-4.7292e-320
-4.7292e-320
-4.7292e-320
-4.72821e-320
-4.72722e-320
-4.72722e-320
-4.72722e-320
-4.72722e-320
-4.72623e-320
-4.72524e-320
-4.72524e-320
-4.72524e-320
-4.72524e-320
-4.72524e-320
-4.72426e-320
-4.72327e-320
-4.72327e-320
-4.72327e-320
-4.72327e-320
-4.72228e-320
-4.72228e-320
-4.72129e-320
-4.72129e-320
-4.72129e-320
-4.72129e-320
-4.72129e-320
-4.7203e-320
-4.71932e-320
-4.71932e-320
-4.71932e-320
-4.71932e-320
-4.71932e-320
-4.71833e-320
-4.71833e-320
-4.71734e-320
-4.71734e-320
-4.71734e-320
-4.71734e-320
-4.71734e-320
-4.71734e-320
-4.71635e-320
-4.71635e-320
-4.71635e-320
-4.71536e-320
-4.71536e-320
-4.71536e-320
-4.71536e-320
-4.71536e-320
-4.71536e-320
-4.71536e-320
-4.71536e-320
-4.71536e-320
-4.71437e-320
-4.71437e-320
-4.71437e-320
-4.71437e-320
-4.71437e-320
-4.71339e-320
-4.71339e-320
-4.71339e-320
-4.71339e-320
-4.71339e-320
-4.71339e-320
-6.0584e-316
-1.21274e-302
-3.03062e-290
-4.94029e-278
-7.55916e-266
-9.89691e-252
-7.51747e-239
-1.35261e-226
-1.17313e-214
-6.057e-203
-1.75718e-191
-4.9665e-180
-1.51683e-169
-3.17331e-159
-1.8039e-148
-1.76701e-138
-6.82369e-130
-1.47526e-121
-2.31529e-113
-1.07047e-105
-1.00338e-98
-2.29873e-93
-7.49851e-91
-2.29932e-85
-1.29881e-80
-1.6257e-78
-1.01122e-76
-4.14144e-75
-1.26347e-73
-2.87743e-72
-5.26864e-71
4.81418e-320
4.81418e-320
4.81319e-320
4.81319e-320
4.81319e-320
4.8122e-320
4.8122e-320
4.8122e-320
4.8122e-320
4.8122e-320
4.8122e-320
4.8122e-320
4.8122e-320
4.8122e-320
4.8122e-320
4.8122e-320
4.8122e-320
4.8122e-320
4.8122e-320
4.8122e-320
4.8122e-320
4.81121e-320
4.81121e-320
-4.81121e-320
4.81121e-320
4.81121e-320
-4.81121e-320
-4.81022e-320
-4.81022e-320
-4.81022e-320
-4.81022e-320
-4.81022e-320
-4.81022e-320
-4.81022e-320
-4.81022e-320
-4.81022e-320
-4.81022e-320
-4.81022e-320
-4.81022e-320
-4.81022e-320
-4.81022e-320
-4.81022e-320
-4.81022e-320
-4.81022e-320
-4.81022e-320
-4.81022e-320
-4.81022e-320
-4.80923e-320
-4.80923e-320
-4.80923e-320
-4.80923e-320
-4.80923e-320
-4.80923e-320
-4.80825e-320
-4.80825e-320
-4.80825e-320
-4.80825e-320
-4.80825e-320
-4.80825e-320
-4.80825e-320
-4.80825e-320
-4.80825e-320
-4.80825e-320
-4.80825e-320
-4.80825e-320
-4.80825e-320
-4.80825e-320
-4.80825e-320
-4.80825e-320
-4.80825e-320
-4.80726e-320
-4.80726e-320
-4.80726e-320
-4.80726e-320
-4.80726e-320
-4.80726e-320
-4.80627e-320
-4.80627e-320
-4.80627e-320
-4.80627e-320
-4.80627e-320
-4.80627e-320
-4.80627e-320
-4.80627e-320
-4.80627e-320
-4.80627e-320
-4.80627e-320
-4.80627e-320
-4.80627e-320
-4.80627e-320
-4.80627e-320
-4.80528e-320
-4.80528e-320
-4.80528e-320
-4.80528e-320
-4.80528e-320
-4.80429e-320
-4.80429e-320
-4.80429e-320
-4.80429e-320
-4.80429e-320
-4.80429e-320
-4.80429e-320
-4.80429e-320
-4.80429e-320
-4.80429e-320
-4.80429e-320
-4.80429e-320
-4.80429e-320
-4.80429e-320
-4.80331e-320
-4.80331e-320
-4.80331e-320
-4.80331e-320
-4.80331e-320
-4.80232e-320
-4.80232e-320
-4.80232e-320
-4.80232e-320
-4.80232e-320
-4.80232e-320
-4.80232e-320
-4.80232e-320
-4.80232e-320
-4.80232e-320
-4.80232e-320
-4.80232e-320
-4.80232e-320
-4.80133e-320
-4.80133e-320
-4.80133e-320
-4.80133e-320
-4.80034e-320
-4.80034e-320
-4.80034e-320
-4.80034e-320
-4.80034e-320
-4.80034e-320
-4.80034e-320
-4.80034e-320
-4.80034e-320
-4.80034e-320
-4.80034e-320
-4.80034e-320
-4.80034e-320
-4.79935e-320
-4.79935e-320
-4.79935e-320
-4.79935e-320
-4.79837e-320
-4.79837e-320
-4.79837e-320
-4.79837e-320
-4.79837e-320
-4.79837e-320
-4.79837e-320
-4.79837e-320
-4.79837e-320
-4.79837e-320
-4.79837e-320
-4.79738e-320
-4.79738e-320
-4.79738e-320
-4.79738e-320
-4.79639e-320
-4.79639e-320
-4.79639e-320
-4.79639e-320
-4.79639e-320
-4.79639e-320
-4.79639e-320
-4.79639e-320
-4.79639e-320
-4.79639e-320
-4.79639e-320
-4.7954e-320
-4.7954e-320
-4.7954e-320
-4.7954e-320
-4.79441e-320
-4.79441e-320
-4.79441e-320
-4.79441e-320
-4.79441e-320
-4.79441e-320
-4.79441e-320
-4.79441e-320
-4.79441e-320
-4.79441e-320
-4.79441e-320
-4.79342e-320
-4.79342e-320
-4.79342e-320
-4.79244e-320
-4.79244e-320
-4.79244e-320
-4.79244e-320
-4.79244e-320
-4.79244e-320
-4.79244e-320
-4.79244e-320
-4.79244e-320
-4.79244e-320
-4.79145e-320
-4.79145e-320
-4.79145e-320
-4.79145e-320
-4.79046e-320
-4.79046e-320
-4.79046e-320
-4.79046e-320
-4.79046e-320
-4.79046e-320
-4.79046e-320
-4.79046e-320
-4.79046e-320
-4.79046e-320
-4.78947e-320
-4.78947e-320
-2.08507e-313
-4.03332e-300
-9.76683e-288
-1.54632e-275
-2.30298e-263
-2.94097e-249
-2.18328e-236
-3.84673e-224
-3.27414e-212
-1.66475e-200
-4.99487e-189
-1.37609e-177
-3.15229e-167
-1.01318e-156
-5.65296e-146
-4.28485e-136
-1.53596e-127
-3.45427e-119
-5.69859e-111
-2.68572e-103
-2.88023e-96
-5.59838e-91
-1.8647e-88
-6.84267e-83
-4.59219e-78
-5.64787e-76
-3.45305e-74
-1.39032e-72
-4.16506e-71
-9.25658e-70
-1.61738e-68
4.81319e-320
4.81319e-320
4.81319e-320
4.81319e-320
4.8122e-320
4.8122e-320
4.8122e-320
4.8122e-320
4.8122e-320
4.8122e-320
4.8122e-320
4.8122e-320
4.8122e-320
4.8122e-320
4.8122e-320
4.8122e-320
4.8122e-320
4.8122e-320
4.8122e-320
4.8122e-320
4.8122e-320
4.8122e-320
4.81121e-320
-4.81121e-320
4.81121e-320
4.81121e-320
-4.81121e-320
-4.81121e-320
-4.81121e-320
-4.81121e-320
-4.81121e-320
-4.81022e-320
-4.81022e-320
-4.81022e-320
-4.81022e-320
-4.81022e-320
-4.81022e-320
-4.81022e-320
-4.81022e-320
-4.81022e-320
-4.81022e-320
-4.81022e-320
-4.81022e-320
-4.81022e-320
-4.81022e-320
-4.81022e-320
-4.81022e-320
-4.81022e-320
-4.81022e-320
-4.81022e-320
-4.81022e-320
-4.81022e-320
-4.81022e-320
-4.81022e-320
-4.81022e-320
-4.81022e-320
-4.80923e-320
-4.80923e-320
-4.80923e-320
-4.80923e-320
-4.80923e-320
-4.80923e-320
-4.80923e-320
-4.80923e-320
-4.80825e-320
-4.80825e-320
-4.80825e-320
-4.80825e-320
-4.80825e-320
-4.80825e-320
-4.80825e-320
-4.80825e-320
-4.80825e-320
-4.80825e-320
-4.80825e-320
-4.80825e-320
-4.80825e-320
-4.80825e-320
-4.80825e-320
-4.80825e-320
-4.80825e-320
-4.80825e-320
-4.80825e-320
-4.80825e-320
-4.80825e-320
-4.80825e-320
-4.80825e-320
-4.80825e-320
-4.80726e-320
-4.80726e-320
-4.80726e-320
-4.80726e-320
-4.80726e-320
-4.80726e-320
-4.80726e-320
-4.80726e-320
-4.80627e-320
-4.80627e-320
-4.80627e-320
-4.80627e-320
-4.80627e-320
-4.80627e-320
-4.80627e-320
-4.80627e-320
-4.80627e-320
-4.80627e-320
-4.80627e-320
-4.80627e-320
-4.80627e-320
-4.80627e-320
-4.80627e-320
-4.80627e-320
-4.80627e-320
-4.80627e-320
-4.80627e-320
-4.80627e-320
-4.80627e-320
-4.80627e-320
-4.80627e-320
-4.80528e-320
-4.80528e-320
-4.80528e-320
-4.80528e-320
-4.80528e-320
-4.80528e-320
-4.80528e-320
-4.80528e-320
-4.80429e-320
-4.80429e-320
-4.80429e-320
-4.80429e-320
-4.80429e-320
-4.80429e-320
-4.80429e-320
-4.80429e-320
-4.80429e-320
-4.80429e-320
-4.80429e-320
-4.80429e-320
-4.80429e-320
-4.80429e-320
-4.80429e-320
-4.80429e-320
-4.80429e-320
-4.80429e-320
-4.80429e-320
-4.80429e-320
-4.80429e-320
-4.80429e-320
-4.80331e-320
-4.80331e-320
-4.80331e-320
-4.80331e-320
-4.80331e-320
-4.80331e-320
-4.80331e-320
-4.80232e-320
-4.80232e-320
-4.80232e-320
-4.80232e-320
-4.80232e-320
-4.80232e-320
-4.80232e-320
-4.80232e-320
-4.80232e-320
-4.80232e-320
-4.80232e-320
-4.80232e-320
-4.80232e-320
-4.80232e-320
-4.80232e-320
-4.80232e-320
-4.80232e-320
-4.80232e-320
-4.80232e-320
-4.80232e-320
-4.80232e-320
-4.80133e-320
-4.80133e-320
-4.80133e-320
-4.80133e-320
-4.80133e-320
-4.80133e-320
-4.80034e-320
-4.80034e-320
-4.80034e-320
-4.80034e-320
-4.80034e-320
-4.80034e-320
-4.80034e-320
-4.80034e-320
-4.80034e-320
-4.80034e-320
-4.80034e-320
-4.80034e-320
-4.80034e-320
-4.80034e-320
-4.80034e-320
-4.80034e-320
-4.79935e-320
-4.79935e-320
-4.79935e-320
-4.79935e-320
-4.79935e-320
-4.79837e-320
-4.79837e-320
-4.79837e-320
-4.79837e-320
-4.79837e-320
-4.79837e-320
-4.79837e-320
-4.79837e-320
-4.79837e-320
-4.79837e-320
-4.79837e-320
-4.79837e-320
-4.79738e-320
-4.79738e-320
-4.79738e-320
-1.52584e-311
-2.94575e-298
-7.14073e-286
-1.13529e-273
-1.70304e-261
-2.19686e-247
-1.65201e-234
-2.95656e-222
-2.56314e-210
-1.33112e-198
-4.26876e-187
-1.19006e-175
-2.83988e-165
-1.02944e-154
-6.15144e-144
-3.2485e-134
-1.2186e-125
-2.91785e-117
-5.08068e-109
-2.67471e-101
-3.77035e-94
-4.89817e-89
-1.6983e-86
-1.34731e-80
-7.52032e-76
-9.22621e-74
-5.62779e-72
-2.25895e-70
-6.73766e-69
-1.47237e-67
-2.48683e-66
4.81319e-320
4.81319e-320
4.81319e-320
4.81319e-320
4.81319e-320
4.8122e-320
4.8122e-320
4.8122e-320
4.8122e-320
4.8122e-320
4.8122e-320
4.8122e-320
4.8122e-320
4.8122e-320
4.8122e-320
4.8122e-320
4.8122e-320
4.8122e-320
4.8122e-320
4.8122e-320
4.8122e-320
4.8122e-320
4.8122e-320
-4.8122e-320
4.8122e-320
4.8122e-320
-4.8122e-320
-4.81121e-320
-4.81121e-320
-4.81121e-320
-4.81121e-320
-4.81121e-320
-4.81121e-320
-4.81121e-320
-4.81022e-320
-4.81022e-320
-4.81022e-320
-4.81022e-320
-4.81022e-320
-4.81022e-320
-4.81022e-320
-4.81022e-320
-4.81022e-320
-4.81022e-320
-4.81022e-320
-4.81022e-320
-4.81022e-320
-4.81022e-320
-4.81022e-320
-4.81022e-320
-4.81022e-320
-4.81022e-320
-4.81022e-320
-4.81022e-320
-4.81022e-320
-4.81022e-320
-4.81022e-320
-4.81022e-320
-4.80923e-320
-4.80923e-320
-4.80923e-320
-4.80923e-320
-4.80923e-320
-4.80923e-320
-4.80923e-320
-4.80923e-320
-4.80825e-320
-4.80825e-320
-4.80825e-320
-4.80825e-320
-4.80825e-320
-4.80825e-320
-4.80825e-320
-4.80825e-320
-4.80825e-320
-4.80825e-320
-4.80825e-320
-4.80825e-320
-4.80825e-320
-4.80825e-320
-4.80825e-320
-4.80825e-320
-4.80825e-320
-4.80825e-320
-4.80825e-320
-4.80825e-320
-4.80825e-320
-4.80825e-320
-4.80825e-320
-4.80726e-320
-4.80726e-320
-4.80726e-320
-4.80726e-320
-4.80726e-320
-4.80726e-320
-4.80726e-320
-4.80726e-320
-4.80627e-320
-4.80627e-320
-4.80627e-320
-4.80627e-320
-4.80627e-320
-4.80627e-320
-4.80627e-320
-4.80627e-320
-4.80627e-320
-4.80627e-320
-4.80627e-320
-4.80627e-320
-4.80627e-320
-4.80627e-320
-4.80627e-320
-4.80627e-320
-4.80627e-320
-4.80627e-320
-4.80627e-320
-4.80627e-320
-4.80627e-320
-4.80627e-320
-4.80528e-320
-4.80528e-320
-4.80528e-320
-4.80528e-320
-4.80528e-320
-4.80528e-320
-4.80528e-320
-4.80528e-320
-4.80429e-320
-4.80429e-320
-4.80429e-320
-4.80429e-320
-4.80429e-320
-4.80429e-320
-4.80429e-320
-4.80429e-320
-4.80429e-320
-4.80429e-320
-4.80429e-320
-4.80429e-320
-4.80429e-320
-4.80429e-320
-4.80429e-320
-4.80429e-320
-4.80429e-320
-4.80429e-320
-4.80429e-320
-4.80429e-320
-4.80429e-320
-4.80331e-320
-4.80331e-320
-4.80331e-320
-4.80331e-320
-4.80331e-320
-4.80331e-320
-4.80331e-320
-4.80232e-320
-4.80232e-320
-4.80232e-320
-4.80232e-320
-4.80232e-320
-4.80232e-320
-4.80232e-320
-4.80232e-320
-4.80232e-320
-4.80232e-320
-4.80232e-320
-4.80232e-320
-4.80232e-320
-4.80232e-320
-4.80232e-320
-4.80232e-320
-4.80232e-320
-4.80232e-320
-4.80232e-320
-4.80232e-320
-4.80133e-320
-4.80133e-320
-4.80133e-320
-4.80133e-320
-4.80133e-320
-4.80133e-320
-4.80034e-320
-4.80034e-320
-4.80034e-320
-4.80034e-320
-4.80034e-320
-4.80034e-320
-4.80034e-320
-4.80034e-320
-4.80034e-320
-4.80034e-320
-4.80034e-320
-4.80034e-320
-4.80034e-320
-4.80034e-320
-4.80034e-320
-4.80034e-320
-4.80034e-320
-4.79935e-320
-4.79935e-320
-4.79935e-320
-4.79935e-320
-4.79935e-320
-4.79837e-320
-4.79837e-320
-4.79837e-320
-4.79837e-320
-4.79837e-320
-4.79837e-320
-4.79837e-320
-4.79837e-320
-4.79837e-320
-4.79837e-320
-4.79837e-320
-4.79837e-320
-4.79738e-320
-4.79738e-320
-4.79639e-320
-4.79639e-320
-7.20793e-310
-1.39597e-296
-3.40493e-284
-5.46274e-272
-8.29245e-260
-1.08546e-245
-8.30545e-233
-1.51659e-220
-1.34524e-208
-7.1688e-197
-2.42274e-185
-6.96979e-174
-1.99687e-163
-7.37563e-153
-4.45043e-142
-1.67837e-132
-8.70359e-124
-2.59017e-115
-5.16842e-107
-2.40924e-99
-3.96593e-92
-3.17015e-87
-1.87464e-84
-2.83069e-78
-8.74659e-74
-1.0731e-71
-6.55083e-70
-2.62902e-68
-7.82919e-67
-1.68027e-65
-2.73728e-64
-4.81319e-320
-4.81319e-320
-4.81319e-320
-4.81319e-320
-4.8122e-320
-4.8122e-320
-4.8122e-320
-4.8122e-320
-4.8122e-320
-4.8122e-320
-4.8122e-320
-4.8122e-320
-4.8122e-320
-4.8122e-320
-4.8122e-320
-4.8122e-320
-4.8122e-320
-4.8122e-320
4.8122e-320
4.8122e-320
4.8122e-320
4.8122e-320
4.8122e-320
-4.8122e-320
4.8122e-320
4.8122e-320
-4.8122e-320
-4.81121e-320
-4.81121e-320
-4.81121e-320
-4.81121e-320
-4.81121e-320
-4.81121e-320
-4.81121e-320
-4.81121e-320
-4.81022e-320
-4.81022e-320
-4.81022e-320
-4.81022e-320
-4.81022e-320
-4.81022e-320
-4.81022e-320
-4.81022e-320
-4.81022e-320
-4.81022e-320
-4.81022e-320
-4.81022e-320
-4.81022e-320
-4.81022e-320
-4.81022e-320
-4.81022e-320
-4.81022e-320
-4.81022e-320
-4.81022e-320
-4.81022e-320
-4.81022e-320
-4.81022e-320
-4.81022e-320
-4.81022e-320
-4.81022e-320
-4.80923e-320
-4.80923e-320
-4.80923e-320
-4.80923e-320
-4.80923e-320
-4.80923e-320
-4.80923e-320
-4.80923e-320
-4.80825e-320
-4.80825e-320
-4.80825e-320
-4.80825e-320
-4.80825e-320
-4.80825e-320
-4.80825e-320
-4.80825e-320
-4.80825e-320
-4.80825e-320
-4.80825e-320
-4.80825e-320
-4.80825e-320
-4.80825e-320
-4.80825e-320
-4.80825e-320
-4.80825e-320
-4.80825e-320
-4.80825e-320
-4.80825e-320
-4.80825e-320
-4.80825e-320
-4.80825e-320
-4.80726e-320
-4.80726e-320
-4.80726e-320
-4.80726e-320
-4.80726e-320
-4.80726e-320
-4.80726e-320
-4.80726e-320
-4.80627e-320
-4.80627e-320
-4.80627e-320
-4.80627e-320
-4.80627e-320
-4.80627e-320
-4.80627e-320
-4.80627e-320
-4.80627e-320
-4.80627e-320
-4.80627e-320
-4.80627e-320
-4.80627e-320
-4.80627e-320
-4.80627e-320
-4.80627e-320
-4.80627e-320
-4.80627e-320
-4.80627e-320
-4.80627e-320
-4.80627e-320
-4.80627e-320
-4.80528e-320
-4.80528e-320
-4.80528e-320
-4.80528e-320
-4.80528e-320
-4.80528e-320
-4.80528e-320
-4.80429e-320
-4.80429e-320
-4.80429e-320
-4.80429e-320
-4.80429e-320
-4.80429e-320
-4.80429e-320
-4.80429e-320
-4.80429e-320
-4.80429e-320
-4.80429e-320
-4.80429e-320
-4.80429e-320
-4.80429e-320
-4.80429e-320
-4.80429e-320
-4.80429e-320
-4.80429e-320
-4.80429e-320
-4.80429e-320
-4.80429e-320
-4.80429e-320
-4.80331e-320
-4.80331e-320
-4.80331e-320
-4.80331e-320
-4.80331e-320
-4.80331e-320
-4.80331e-320
-4.80232e-320
-4.80232e-320
-4.80232e-320
-4.80232e-320
-4.80232e-320
-4.80232e-320
-4.80232e-320
-4.80232e-320
-4.80232e-320
-4.80232e-320
-4.80232e-320
-4.80232e-320
-4.80232e-320
-4.80232e-320
-4.80232e-320
-4.80232e-320
-4.80232e-320
-4.80232e-320
-4.80232e-320
-4.80232e-320
-4.80133e-320
-4.80133e-320
-4.80133e-320
-4.80133e-320
-4.80133e-320
-4.80133e-320
-4.80034e-320
-4.80034e-320
-4.80034e-320
-4.80034e-320
-4.80034e-320
-4.80034e-320
-4.80034e-320
-4.80034e-320
-4.80034e-320
-4.80034e-320
-4.80034e-320
-4.80034e-320
-4.80034e-320
-4.80034e-320
-4.80034e-320
-4.80034e-320
-4.80034e-320
-4.80034e-320
-4.79935e-320
-4.79935e-320
-4.79935e-320
-4.79935e-320
-4.79837e-320
-4.79837e-320
-4.79837e-320
-4.79837e-320
-4.79837e-320
-4.79837e-320
-4.79837e-320
-4.79837e-320
-4.79837e-320
-4.79837e-320
-4.79738e-320
-4.79738e-320
-4.79738e-320
-4.79639e-320
-2.69552e-308
-5.24086e-295
-1.28696e-282
-2.08457e-270
-3.20359e-258
-4.25711e-244
-3.31607e-231
-6.18193e-219
-5.61479e-207
-3.0733e-195
-1.08088e-183
-3.2373e-172
-9.66218e-162
-4.69384e-151
-2.82407e-140
-1.1238e-130
-8.51303e-122
-3.33374e-113
-6.70867e-105
-2.31272e-97
-3.39663e-90
-2.27649e-85
-4.72459e-82
-4.89778e-76
-8.09844e-72
-9.9423e-70
-6.08275e-68
-2.4446e-66
-7.28085e-65
-1.53214e-63
-2.39968e-62
-4.81319e-320
-4.81319e-320
-4.81319e-320
-4.81319e-320
-4.81319e-320
-4.8122e-320
-4.8122e-320
-4.8122e-320
-4.8122e-320
-4.8122e-320
-4.8122e-320
-4.8122e-320
-4.8122e-320
-4.8122e-320
-4.8122e-320
-4.8122e-320
-4.8122e-320
-4.8122e-320
4.8122e-320
4.8122e-320
4.8122e-320
4.8122e-320
4.8122e-320
-4.8122e-320
4.8122e-320
4.8122e-320
-4.8122e-320
-4.8122e-320
-4.8122e-320
-4.8122e-320
-4.81121e-320
-4.81121e-320
-4.81121e-320
-4.81121e-320
-4.81121e-320
-4.81121e-320
-4.81121e-320
-4.81121e-320
-4.81022e-320
-4.81022e-320
-4.81022e-320
-4.81022e-320
-4.81022e-320
-4.81022e-320
-4.81022e-320
-4.81022e-320
-4.81022e-320
-4.81022e-320
-4.81022e-320
-4.81022e-320
-4.81022e-320
-4.81022e-320
-4.81022e-320
-4.81022e-320
-4.81022e-320
-4.81022e-320
-4.81022e-320
-4.81022e-320
-4.81022e-320
-4.81022e-320
-4.81022e-320
-4.81022e-320
-4.80923e-320
-4.80923e-320
-4.80923e-320
-4.80923e-320
-4.80923e-320
-4.80923e-320
-4.80923e-320
-4.80923e-320
-4.80825e-320
-4.80825e-320
-4.80825e-320
-4.80825e-320
-4.80825e-320
-4.80825e-320
-4.80825e-320
-4.80825e-320
-4.80825e-320
-4.80825e-320
-4.80825e-320
-4.80825e-320
-4.80825e-320
-4.80825e-320
-4.80825e-320
-4.80825e-320
-4.80825e-320
-4.80825e-320
-4.80825e-320
-4.80825e-320
-4.80825e-320
-4.80825e-320
-4.80825e-320
-4.80726e-320
-4.80726e-320
-4.80726e-320
-4.80726e-320
-4.80726e-320
-4.80726e-320
-4.80726e-320
-4.80726e-320
-4.80627e-320
-4.80627e-320
-4.80627e-320
-4.80627e-320
-4.80627e-320
-4.80627e-320
-4.80627e-320
-4.80627e-320
-4.80627e-320
-4.80627e-320
-4.80627e-320
-4.80627e-320
-4.80627e-320
-4.80627e-320
-4.80627e-320
-4.80627e-320
-4.80627e-320
-4.80627e-320
-4.80627e-320
-4.80627e-320
-4.80627e-320
-4.80627e-320
-4.80528e-320
-4.80528e-320
-4.80528e-320
-4.80528e-320
-4.80528e-320
-4.80528e-320
-4.80528e-320
-4.80429e-320
-4.80429e-320
-4.80429e-320
-4.80429e-320
-4.80429e-320
-4.80429e-320
-4.80429e-320
-4.80429e-320
-4.80429e-320
-4.80429e-320
-4.80429e-320
-4.80429e-320
-4.80429e-320
-4.80429e-320
-4.80429e-320
-4.80429e-320
-4.80429e-320
-4.80429e-320
-4.80429e-320
-4.80429e-320
-4.80429e-320
-4.80429e-320
-4.80331e-320
-4.80331e-320
-4.80331e-320
-4.80331e-320
-4.80331e-320
-4.80331e-320
-4.80331e-320
-4.80232e-320
-4.80232e-320
-4.80232e-320
-4.80232e-320
-4.80232e-320
-4.80232e-320
-4.80232e-320
-4.80232e-320
-4.80232e-320
-4.80232e-320
-4.80232e-320
-4.80232e-320
-4.80232e-320
-4.80232e-320
-4.80232e-320
-4.80232e-320
-4.80232e-320
-4.80232e-320
-4.80232e-320
-4.80232e-320
-4.80133e-320
-4.80133e-320
-4.80133e-320
-4.80133e-320
-4.80133e-320
-4.80133e-320
-4.80133e-320
-4.80034e-320
-4.80034e-320
-4.80034e-320
-4.80034e-320
-4.80034e-320
-4.80034e-320
-4.80034e-320
-4.80034e-320
-4.80034e-320
-4.80034e-320
-4.80034e-320
-4.80034e-320
-4.80034e-320
-4.80034e-320
-4.80034e-320
-4.80034e-320
-4.79935e-320
-4.79935e-320
-4.79935e-320
-4.79935e-320
-4.79837e-320
-4.79837e-320
-4.79837e-320
-4.79837e-320
-4.79837e-320
-4.79837e-320
-4.79837e-320
-4.79837e-320
-4.79837e-320
-4.79738e-320
-4.79738e-320
-4.79738e-320
-4.79639e-320
-8.38778e-307
-1.63768e-293
-4.04974e-281
-6.62405e-269
-1.03087e-256
-1.39117e-242
-1.10369e-229
-2.10195e-217
-1.95651e-205
-1.10123e-193
-4.0089e-182
-1.248e-170
-5.6007e-160
-3.10246e-149
-1.51589e-138
-8.46748e-129
-7.28608e-120
-3.30787e-111
-6.06634e-103
-1.86673e-95
-2.12963e-88
-1.34599e-83
-1.1873e-79
-6.64553e-74
-6.24776e-70
-7.67875e-68
-4.71415e-66
-1.89969e-64
-5.66531e-63
-1.16483e-61
-1.74382e-60
-4.81319e-320
-4.81319e-320
-4.81319e-320
-4.81319e-320
-4.8122e-320
-4.8122e-320
-4.8122e-320
-4.8122e-320
-4.8122e-320
-4.8122e-320
-4.8122e-320
-4.8122e-320
-4.8122e-320
-4.8122e-320
-4.8122e-320
-4.8122e-320
-4.8122e-320
-4.8122e-320
-4.8122e-320
4.8122e-320
4.8122e-320
4.8122e-320
4.8122e-320
-4.8122e-320
4.8122e-320
4.8122e-320
-4.8122e-320
-4.8122e-320
-4.8122e-320
-4.8122e-320
-4.8122e-320
-4.81121e-320
-4.81121e-320
-4.81121e-320
-4.81121e-320
-4.81121e-320
-4.81121e-320
-4.81121e-320
-4.81121e-320
-4.81022e-320
-4.81022e-320
-4.81022e-320
-4.81022e-320
-4.81022e-320
-4.81022e-320
-4.81022e-320
-4.81022e-320
-4.81022e-320
-4.81022e-320
-4.81022e-320
-4.81022e-320
-4.81022e-320
-4.81022e-320
-4.81022e-320
-4.81022e-320
-4.81022e-320
-4.81022e-320
-4.81022e-320
-4.81022e-320
-4.81022e-320
-4.81022e-320
-4.81022e-320
-4.81022e-320
-4.80923e-320
-4.80923e-320
-4.80923e-320
-4.80923e-320
-4.80923e-320
-4.80923e-320
-4.80923e-320
-4.80923e-320
-4.80825e-320
-4.80825e-320
-4.80825e-320
-4.80825e-320
-4.80825e-320
-4.80825e-320
-4.80825e-320
-4.80825e-320
-4.80825e-320
-4.80825e-320
-4.80825e-320
-4.80825e-320
-4.80825e-320
-4.80825e-320
-4.80825e-320
-4.80825e-320
-4.80825e-320
-4.80825e-320
-4.80825e-320
-4.80825e-320
-4.80825e-320
-4.80825e-320
-4.80825e-320
-4.80726e-320
-4.80726e-320
-4.80726e-320
-4.80726e-320
-4.80726e-320
-4.80726e-320
-4.80726e-320
-4.80726e-320
-4.80627e-320
-4.80627e-320
-4.80627e-320
-4.80627e-320
-4.80627e-320
-4.80627e-320
-4.80627e-320
-4.80627e-320
-4.80627e-320
-4.80627e-320
-4.80627e-320
-4.80627e-320
-4.80627e-320
-4.80627e-320
-4.80627e-320
-4.80627e-320
-4.80627e-320
-4.80627e-320
-4.80627e-320
-4.80627e-320
-4.80627e-320
-4.80627e-320
-4.80528e-320
-4.80528e-320
-4.80528e-320
-4.80528e-320
-4.80528e-320
-4.80528e-320
-4.80528e-320
-4.80528e-320
-4.80429e-320
-4.80429e-320
-4.80429e-320
-4.80429e-320
-4.80429e-320
-4.80429e-320
-4.80429e-320
-4.80429e-320
-4.80429e-320
-4.80429e-320
-4.80429e-320
-4.80429e-320
-4.80429e-320
-4.80429e-320
-4.80429e-320
-4.80429e-320
-4.80429e-320
-4.80429e-320
-4.80429e-320
-4.80429e-320
-4.80429e-320
-4.80331e-320
-4.80331e-320
-4.80331e-320
-4.80331e-320
-4.80331e-320
-4.80331e-320
-4.80331e-320
-4.80331e-320
-4.80232e-320
-4.80232e-320
-4.80232e-320
-4.80232e-320
-4.80232e-320
-4.80232e-320
-4.80232e-320
-4.80232e-320
-4.80232e-320
-4.80232e-320
-4.80232e-320
-4.80232e-320
-4.80232e-320
-4.80232e-320
-4.80232e-320
-4.80232e-320
-4.80232e-320
-4.80232e-320
-4.80232e-320
-4.80232e-320
-4.80133e-320
-4.80133e-320
-4.80133e-320
-4.80133e-320
-4.80133e-320
-4.80133e-320
-4.80133e-320
-4.80034e-320
-4.80034e-320
-4.80034e-320
-4.80034e-320
-4.80034e-320
-4.80034e-320
-4.80034e-320
-4.80034e-320
-4.80034e-320
-4.80034e-320
-4.80034e-320
-4.80034e-320
-4.80034e-320
-4.80034e-320
-4.80034e-320
-4.79935e-320
-4.79935e-320
-4.79935e-320
-4.79837e-320
-4.79837e-320
-4.79837e-320
-4.79837e-320
-4.79837e-320
-4.79837e-320
-4.79837e-320
-4.79837e-320
-4.79837e-320
-4.79738e-320
-4.79738e-320
-4.79738e-320
-4.79639e-320
-2.25417e-305
-4.41997e-292
-1.10074e-279
-1.81834e-267
-2.86617e-255
-3.92923e-241
-3.17648e-228
-6.18432e-216
-5.905e-204
-3.42201e-192
-1.28844e-180
-4.16166e-169
-3.43013e-158
-1.6843e-147
-6.59371e-137
-4.31378e-127
-4.03886e-118
-1.79325e-109
-3.98858e-101
-1.10765e-93
-9.06855e-87
-6.18928e-82
-2.31881e-77
-7.77272e-72
-4.1462e-68
-5.10207e-66
-3.14705e-64
-1.27335e-62
-3.80774e-61
-7.62016e-60
-1.08354e-58
-4.81319e-320
-4.81319e-320
-4.81319e-320
-4.81319e-320
-4.8122e-320
-4.8122e-320
-4.8122e-320
-4.8122e-320
-4.8122e-320
-4.8122e-320
-4.8122e-320
-4.8122e-320
-4.8122e-320
-4.8122e-320
-4.8122e-320
-4.8122e-320
-4.8122e-320
-4.8122e-320
-4.8122e-320
4.8122e-320
4.8122e-320
4.8122e-320
4.8122e-320
-4.8122e-320
4.8122e-320
4.8122e-320
-4.8122e-320
-4.8122e-320
-4.8122e-320
-4.8122e-320
-4.8122e-320
-4.8122e-320
-4.8122e-320
-4.81121e-320
-4.81121e-320
-4.81121e-320
-4.81121e-320
-4.81121e-320
-4.81121e-320
-4.81121e-320
-4.81121e-320
-4.81022e-320
-4.81022e-320
-4.81022e-320
-4.81022e-320
-4.81022e-320
-4.81022e-320
-4.81022e-320
-4.81022e-320
-4.81022e-320
-4.81022e-320
-4.81022e-320
-4.81022e-320
-4.81022e-320
-4.81022e-320
-4.81022e-320
-4.81022e-320
-4.81022e-320
-4.81022e-320
-4.81022e-320
-4.81022e-320
-4.81022e-320
-4.81022e-320
-4.81022e-320
-4.81022e-320
-4.80923e-320
-4.80923e-320
-4.80923e-320
-4.80923e-320
-4.80923e-320
-4.80923e-320
-4.80923e-320
-4.80923e-320
-4.80825e-320
-4.80825e-320
-4.80825e-320
-4.80825e-320
-4.80825e-320
-4.80825e-320
-4.80825e-320
-4.80825e-320
-4.80825e-320
-4.80825e-320
-4.80825e-320
-4.80825e-320
-4.80825e-320
-4.80825e-320
-4.80825e-320
-4.80825e-320
-4.80825e-320
-4.80825e-320
-4.80825e-320
-4.80825e-320
-4.80825e-320
-4.80825e-320
-4.80825e-320
-4.80726e-320
-4.80726e-320
-4.80726e-320
-4.80726e-320
-4.80726e-320
-4.80726e-320
-4.80726e-320
-4.80726e-320
-4.80627e-320
-4.80627e-320
-4.80627e-320
-4.80627e-320
-4.80627e-320
-4.80627e-320
-4.80627e-320