/*--------------------------------*- C++ -*----------------------------------*\
| =========                 |                                                 |
| \\      /  F ield         | OpenFOAM: The Open Source CFD Toolbox           |
|  \\    /   O peration     | Version:  2406                                  |
|   \\  /    A nd           | Website:  www.openfoam.com                      |
|    \\/     M anipulation  |                                                 |
\*---------------------------------------------------------------------------*/
FoamFile
{
    version     2.0;
    format      ascii;
    arch        "LSB;label=32;scalar=64";
    class       volScalarField;
    location    "0.5";
    object      p;
}
// * * * * * * * * * * * * * * * * * * * * * * * * * * * * * * * * * * * * * //

dimensions      [1 -1 -2 0 0 0 0];

internalField   nonuniform List<scalar> 
6250
(
1146.17
-1425.88
226.011
1459.04
1437.22
1070.66
937.467
991.082
1046.55
1047.98
1028.24
1016.37
1013.76
1012.36
1008.69
1003.8
999.099
994.841
990.69
986.448
982.144
977.847
973.568
969.294
965.021
960.745
956.463
952.179
947.9
943.621
939.339
935.057
930.78
926.504
922.225
917.943
913.664
909.385
905.104
900.822
896.544
892.268
887.992
883.713
879.432
875.152
870.874
866.592
862.309
858.028
853.751
849.475
845.195
840.913
836.634
832.358
828.078
823.794
819.514
815.238
810.962
806.681
802.4
798.12
793.841
789.56
785.279
781
776.723
772.444
768.164
763.883
759.604
755.325
751.046
746.766
742.486
738.208
733.93
729.65
725.369
721.089
716.81
712.532
708.253
703.971
699.69
695.411
691.133
686.855
682.576
678.294
674.013
669.733
665.456
661.179
656.899
652.618
648.337
644.059
639.781
635.501
631.221
626.941
622.662
618.385
614.106
609.826
605.545
601.265
596.986
592.71
588.433
584.153
579.87
575.587
571.308
567.031
562.754
558.475
554.195
549.915
545.635
541.354
537.074
532.795
528.516
524.237
519.958
515.678
511.398
507.118
502.839
498.56
494.28
490
485.72
481.441
477.163
472.884
468.604
464.321
460.039
455.758
451.481
447.205
442.929
438.652
434.371
430.088
425.805
421.523
417.242
412.964
408.687
404.413
400.137
395.858
391.575
387.29
383.007
378.726
374.449
370.173
365.897
361.621
357.343
353.064
348.782
344.499
340.215
335.934
331.656
327.381
323.106
318.83
314.551
310.27
305.989
301.707
297.425
293.143
288.862
284.584
280.308
276.031
271.753
267.473
263.192
258.911
254.629
250.347
246.065
241.785
237.507
233.231
228.954
224.675
220.395
216.115
211.835
207.556
203.276
198.995
194.715
190.436
186.159
181.883
177.606
173.328
169.048
164.768
160.488
156.209
151.929
147.649
143.37
139.092
134.815
130.539
126.262
121.984
117.705
113.424
109.141
104.856
100.569
96.2825
91.9963
87.7109
83.4258
79.1412
74.858
70.5776
66.3003
62.0254
57.7511
53.4766
49.2017
44.9267
40.6518
36.3759
32.0988
27.82
23.5396
19.2586
14.9779
10.6978
6.41807
2.13924
1146.13
-1425.95
225.983
1459.05
1437.23
1070.66
937.457
991.08
1046.56
1047.99
1028.24
1016.37
1013.76
1012.36
1008.68
1003.79
999.093
994.838
990.692
986.459
982.157
977.857
973.576
969.3
965.019
960.738
956.459
952.178
947.898
943.621
939.343
935.062
930.781
926.502
922.224
917.943
913.663
909.385
905.108
900.83
896.548
892.267
887.987
883.707
879.425
875.144
870.869
866.595
862.317
858.034
853.75
849.47
845.192
840.913
836.634
832.356
828.078
823.796
819.513
815.233
810.956
806.678
802.398
798.118
793.84
789.561
785.282
781.003
776.723
772.444
768.163
763.883
759.604
755.325
751.047
746.767
742.487
738.206
733.926
729.648
725.37
721.092
716.812
712.532
708.25
703.97
699.692
695.414
691.136
686.856
682.575
678.294
674.015
669.737
665.46
661.182
656.903
652.622
648.34
644.06
639.782
635.504
631.225
626.946
622.666
618.386
614.106
609.826
605.547
601.269
596.991
592.712
588.432
584.152
579.871
575.589
571.309
567.031
562.755
558.477
554.196
549.914
545.633
541.354
537.076
532.796
528.516
524.236
519.957
515.679
511.4
507.12
502.839
498.558
494.278
490
485.722
481.444
477.164
472.884
468.603
464.321
460.039
455.758
451.48
447.205
442.93
438.654
434.373
430.089
425.803
421.52
417.241
412.965
408.69
404.415
400.137
395.858
391.575
387.291
383.006
378.724
374.447
370.173
365.9
361.624
357.345
353.063
348.78
344.497
340.215
335.934
331.656
327.38
323.106
318.831
314.553
310.272
305.988
301.705
297.423
293.142
288.863
284.585
280.308
276.031
271.754
267.474
263.192
258.91
254.628
250.346
246.066
241.786
237.507
233.229
228.953
224.676
220.398
216.117
211.835
207.553
203.273
198.995
194.716
190.437
186.159
181.882
177.605
173.329
169.05
164.77
160.488
156.208
151.928
147.649
143.37
139.092
134.815
130.539
126.262
121.984
117.704
113.424
109.141
104.858
100.572
96.2835
91.9947
87.7073
83.4225
79.1399
74.8584
70.5777
66.2989
62.023
57.7499
53.4778
49.2045
44.9294
40.6531
36.3766
32.0994
27.8209
23.5408
19.2596
14.978
10.6971
6.41731
2.1391
1146.14
-1425.94
225.984
1459.06
1437.24
1070.67
937.467
991.084
1046.56
1047.99
1028.24
1016.37
1013.76
1012.36
1008.69
1003.79
999.099
994.841
990.687
986.448
982.149
977.851
973.572
969.3
965.022
960.741
956.462
952.181
947.9
943.62
939.342
935.062
930.779
926.499
922.222
917.944
913.664
909.383
905.104
900.827
896.548
892.267
887.988
883.711
879.432
875.15
870.867
866.589
862.314
858.035
853.753
849.472
845.193
840.915
836.635
832.353
828.074
823.796
819.517
815.237
810.959
806.681
802.401
798.12
793.84
789.561
785.283
781.003
776.722
772.443
768.164
763.884
759.604
755.323
751.045
746.767
742.49
738.209
733.927
729.646
725.369
721.092
716.814
712.532
708.25
703.969
699.691
695.415
691.136
686.855
682.573
678.293
674.016
669.737
665.458
661.178
656.899
652.62
648.341
644.06
639.779
635.5
631.221
626.944
622.665
618.385
614.104
609.823
605.544
601.267
596.99
592.711
588.43
584.148
579.868
575.589
571.31
567.032
562.753
558.474
554.194
549.913
545.633
541.354
537.076
532.796
528.516
524.236
519.956
515.678
511.399
507.12
502.84
498.558
494.277
489.998
485.721
481.444
477.165
472.884
468.602
464.319
460.038
455.759
451.482
447.207
442.93
438.652
434.371
430.087
425.802
421.52
417.241
412.966
408.692
404.416
400.137
395.856
391.573
387.289
383.006
378.725
374.448
370.174
365.9
361.625
357.346
353.063
348.778
344.495
340.214
335.935
331.658
327.382
323.107
318.83
314.552
310.271
305.988
301.704
297.422
293.141
288.863
284.586
280.309
276.032
271.754
267.474
263.192
258.909
254.626
250.345
246.065
241.787
237.508
233.231
228.953
224.675
220.397
216.117
211.836
207.554
203.272
198.993
194.715
190.438
186.161
181.883
177.605
173.328
169.049
164.77
160.489
156.208
151.927
147.648
143.37
139.092
134.815
130.539
126.263
121.986
117.706
113.425
109.141
104.856
100.57
96.2835
91.9958
87.708
83.4218
79.1383
74.8577
70.5791
66.3016
62.0252
57.7502
53.4766
49.2036
44.9299
40.6545
36.3773
32.0987
27.8194
23.5394
19.2587
14.9776
10.6969
6.41714
2.139
1146.14
-1425.94
225.98
1459.04
1437.22
1070.65
937.46
991.079
1046.56
1047.98
1028.24
1016.37
1013.77
1012.36
1008.69
1003.79
999.096
994.842
990.691
986.453
982.152
977.85
973.569
969.298
965.021
960.738
956.459
952.182
947.9
943.619
939.34
935.062
930.782
926.5
922.222
917.945
913.667
909.385
905.104
900.825
896.547
892.267
887.987
883.71
879.434
875.153
870.869
866.587
862.309
858.033
853.753
849.471
845.191
840.913
836.634
832.353
828.074
823.796
819.518
815.238
810.956
806.677
802.399
798.119
793.84
789.561
785.282
781.002
776.721
772.442
768.164
763.885
759.605
755.325
751.045
746.766
742.488
738.208
733.927
729.647
725.368
721.091
716.812
712.532
708.25
703.97
699.691
695.414
691.135
686.855
682.574
678.295
674.016
669.738
665.459
661.178
656.899
652.62
648.342
644.063
639.782
635.501
631.222
626.944
622.666
618.387
614.107
609.826
605.545
601.267
596.99
592.712
588.431
584.15
579.869
575.59
571.312
567.033
562.754
558.474
554.194
549.914
545.635
541.356
537.076
532.796
528.516
524.237
519.957
515.678
511.4
507.12
502.84
498.559
494.278
489.998
485.721
481.444
477.166
472.885
468.603
464.32
460.038
455.759
451.483
447.208
442.931
438.652
434.37
430.086
425.803
421.521
417.242
412.966
408.692
404.417
400.138
395.856
391.571
387.288
383.006
378.727
374.45
370.175
365.9
361.624
357.345
353.063
348.779
344.495
340.213
335.935
331.659
327.384
323.108
318.83
314.551
310.27
305.987
301.704
297.421
293.141
288.863
284.587
280.31
276.032
271.754
267.473
263.192
258.909
254.626
250.344
246.064
241.786
237.509
233.232
228.954
224.675
220.396
216.116
211.836
207.555
203.273
198.993
194.714
190.438
186.161
181.885
177.607
173.328
169.049
164.769
160.489
156.208
151.927
147.648
143.369
139.092
134.815
130.539
126.262
121.985
117.706
113.425
109.141
104.855
100.569
96.2823
91.9957
87.709
83.4227
79.1382
74.8565
70.5778
66.3014
62.026
57.7512
53.4769
49.2031
44.9293
40.6544
36.3778
32.0995
27.8199
23.5396
19.2588
14.9779
10.6971
6.41727
2.13903
1146.13
-1425.95
225.981
1459.06
1437.23
1070.65
937.458
991.086
1046.57
1047.99
1028.23
1016.37
1013.76
1012.36
1008.69
1003.79
999.092
994.84
990.691
986.452
982.152
977.855
973.573
969.3
965.024
960.74
956.457
952.178
947.899
943.62
939.34
935.062
930.783
926.501
922.221
917.943
913.665
909.386
905.106
900.825
896.546
892.267
887.988
883.708
879.429
875.151
870.871
866.59
862.311
858.035
853.757
849.474
845.191
840.911
836.634
832.355
828.075
823.796
819.518
815.239
810.957
806.677
802.4
798.122
793.843
789.562
785.281
781.001
776.723
772.444
768.164
763.884
759.604
755.326
751.047
746.767
742.487
738.207
733.928
729.649
725.37
721.091
716.811
712.531
708.251
703.972
699.692
695.413
691.134
686.855
682.576
678.296
674.016
669.737
665.458
661.179
656.899
652.62
648.341
644.061
639.781
635.501
631.222
626.943
622.664
618.385
614.105
609.825
605.545
601.266
596.987
592.709
588.43
584.15
579.869
575.59
571.311
567.032
562.752
558.472
554.192
549.914
545.635
541.356
537.076
532.795
528.515
524.236
519.957
515.679
511.4
507.12
502.838
498.557
494.277
489.998
485.721
481.444
477.166
472.885
468.603
464.32
460.038
455.759
451.483
447.208
442.931
438.651
434.368
430.085
425.802
421.521
417.243
412.967
408.692
404.416
400.137
395.855
391.571
387.287
383.005
378.727
374.452
370.177
365.901
361.623
357.343
353.061
348.778
344.495
340.214
335.935
331.659
327.385
323.109
318.831
314.55
310.268
305.985
301.703
297.421
293.141
288.864
284.587
280.311
276.033
271.754
267.473
263.19
258.908
254.626
250.344
246.064
241.786
237.509
233.232
228.955
224.677
220.396
216.115
211.834
207.554
203.273
198.994
194.715
190.437
186.161
181.885
177.608
173.329
169.049
164.769
160.488
156.208
151.927
147.647
143.369
139.092
134.816
130.54
126.263
121.985
117.706
113.426
109.143
104.857
100.57
96.2822
91.9949
87.7086
83.4233
79.1393
74.8571
70.5776
66.3008
62.026
57.7521
53.4782
49.204
44.9295
40.6544
36.378
32.0999
27.8202
23.5394
19.2584
14.9773
10.6968
6.417
2.13893
1146.13
-1425.96
225.97
1459.05
1437.24
1070.66
937.452
991.075
1046.56
1047.98
1028.23
1016.37
1013.76
1012.36
1008.69
1003.79
999.095
994.84
990.691
986.451
982.151
977.854
973.572
969.298
965.024
960.742
956.459
952.178
947.899
943.621
939.34
935.06
930.782
926.503
922.222
917.941
913.663
909.386
905.108
900.826
896.545
892.268
887.991
883.71
879.429
875.149
870.87
866.591
862.31
858.031
853.752
849.473
845.192
840.912
836.634
832.356
828.076
823.795
819.515
815.236
810.956
806.677
802.4
798.122
793.842
789.559
785.279
781
776.723
772.445
768.164
763.883
759.603
755.325
751.047
746.768
742.487
738.207
733.927
729.649
725.37
721.09
716.811
712.531
708.251
703.972
699.692
695.412
691.133
686.855
682.576
678.297
674.016
669.736
665.457
661.179
656.9
652.621
648.341
644.061
639.781
635.502
631.223
626.944
622.665
618.385
614.105
609.826
605.547
601.267
596.987
592.708
588.43
584.151
579.872
575.592
571.312
567.031
562.751
558.472
554.193
549.915
545.637
541.358
537.077
532.795
528.514
524.235
519.958
515.681
511.402
507.121
502.838
498.556
494.276
489.999
485.722
481.445
477.166
472.885
468.603
464.32
460.039
455.76
451.484
447.208
442.931
438.651
434.368
430.084
425.802
421.522
417.245
412.969
408.693
404.416
400.136
395.854
391.57
387.287
383.006
378.728
374.453
370.178
365.902
361.624
357.342
353.059
348.776
344.495
340.215
335.937
331.661
327.385
323.109
318.831
314.55
310.267
305.984
301.702
297.421
293.142
288.865
284.588
280.312
276.034
271.754
267.472
263.189
258.907
254.625
250.344
246.065
241.786
237.509
233.233
228.956
224.677
220.397
216.116
211.834
207.553
203.273
198.994
194.716
190.438
186.162
181.885
177.608
173.33
169.05
164.769
160.488
156.207
151.927
147.647
143.368
139.091
134.815
130.539
126.263
121.985
117.706
113.425
109.142
104.857
100.57
96.2823
91.9944
87.7076
83.4226
79.1395
74.858
70.5785
66.3011
62.0259
57.7521
53.4787
49.2049
44.9302
40.6545
36.3778
32.0997
27.8202
23.5395
19.2583
14.9772
10.6967
6.41707
2.13894
1146.14
-1425.96
225.962
1459.04
1437.23
1070.66
937.451
991.072
1046.56
1047.99
1028.24
1016.37
1013.76
1012.36
1008.69
1003.79
999.094
994.838
990.691
986.453
982.15
977.852
973.57
969.296
965.023
960.745
956.462
952.18
947.901
943.622
939.339
935.058
930.781
926.503
922.224
917.943
913.663
909.385
905.107
900.826
896.544
892.265
887.989
883.711
879.431
875.15
870.872
866.594
862.313
858.032
853.751
849.472
845.193
840.914
836.634
832.355
828.077
823.797
819.516
815.236
810.957
806.679
802.402
798.122
793.841
789.559
785.28
781.002
776.725
772.445
768.165
763.883
759.603
755.324
751.046
746.768
742.489
738.208
733.928
729.648
725.369
721.09
716.812
712.532
708.252
703.972
699.692
695.413
691.134
686.855
682.576
678.297
674.017
669.736
665.456
661.178
656.9
652.622
648.342
644.061
639.781
635.501
631.222
626.943
622.665
618.385
614.105
609.825
605.546
601.266
596.986
592.707
588.429
584.151
579.872
575.592
571.311
567.029
562.749
558.471
554.193
549.915
545.637
541.357
537.076
532.794
528.514
524.235
519.958
515.681
511.401
507.12
502.837
498.555
494.275
489.998
485.722
481.445
477.167
472.885
468.602
464.32
460.039
455.761
451.484
447.207
442.929
438.649
434.367
430.084
425.802
421.522
417.246
412.97
408.694
404.416
400.135
395.852
391.569
387.287
383.007
378.73
374.454
370.179
365.902
361.623
357.341
353.058
348.775
344.494
340.215
335.938
331.662
327.386
323.109
318.83
314.548
310.265
305.982
301.7
297.42
293.142
288.866
284.589
280.312
276.034
271.754
267.472
263.189
258.905
254.623
250.343
246.065
241.787
237.51
233.233
228.956
224.677
220.397
216.116
211.834
207.552
203.272
198.993
194.716
190.439
186.163
181.886
177.608
173.33
169.05
164.769
160.488
156.207
151.926
147.647
143.368
139.091
134.815
130.539
126.263
121.986
117.707
113.425
109.142
104.857
100.57
96.2832
91.9954
87.7081
83.4225
79.1392
74.8583
70.5793
66.302
62.0264
57.7521
53.4786
49.2051
44.9307
40.655
36.3779
32.0996
27.8201
23.5394
19.2582
14.977
10.6965
6.41683
2.13889
1146.14
-1425.95
225.967
1459.04
1437.23
1070.66
937.456
991.073
1046.56
1047.99
1028.23
1016.37
1013.76
1012.36
1008.68
1003.79
999.096
994.838
990.688
986.451
982.15
977.853
973.573
969.297
965.02
960.74
956.459
952.178
947.899
943.622
939.343
935.061
930.78
926.502
922.223
917.944
913.664
909.385
905.107
900.828
896.546
892.266
887.987
883.709
879.429
875.148
870.868
866.591
862.313
858.033
853.752
849.474
845.195
840.914
836.632
832.352
828.075
823.797
819.516
815.235
810.957
806.68
802.401
798.12
793.838
789.559
785.281
781.003
776.724
772.443
768.163
763.883
759.603
755.324
751.045
746.767
742.489
738.209
733.928
729.647
725.368
721.09
716.812
712.533
708.252
703.971
699.691
695.412
691.134
686.855
682.576
678.296
674.017
669.737
665.457
661.178
656.899
652.621
648.342
644.062
639.781
635.501
631.221
626.942
622.664
618.386
614.107
609.826
605.545
601.265
596.986
592.707
588.43
584.152
579.873
575.592
571.31
567.029
562.749
558.471
554.194
549.917
545.638
541.357
537.075
532.793
528.514
524.236
519.959
515.681
511.402
507.12
502.837
498.555
494.276
489.999
485.723
481.446
477.167
472.886
468.603
464.32
460.04
455.762
451.485
447.208
442.929
438.648
434.366
430.084
425.803
421.524
417.247
412.971
408.694
404.415
400.134
395.851
391.569
387.288
383.009
378.732
374.456
370.18
365.902
361.622
357.34
353.058
348.775
344.494
340.216
335.94
331.664
327.387
323.109
318.828
314.546
310.264
305.981
301.7
297.42
293.143
288.867
284.591
280.313
276.034
271.753
267.471
263.188
258.905
254.623
250.343
246.065
241.788
237.512
233.235
228.957
224.677
220.397
216.115
211.834
207.552
203.272
198.993
194.716
190.44
186.164
181.887
177.609
173.331
169.051
164.77
160.488
156.206
151.925
147.646
143.368
139.091
134.815
130.539
126.263
121.985
117.707
113.425
109.142
104.856
100.57
96.2826
91.9954
87.7086
83.4229
79.1393
74.8582
70.5795
66.3027
62.0274
57.753
53.4792
49.2055
44.9311
40.6555
36.3783
32.0997
27.82
23.5393
19.2582
14.977
10.6964
6.41691
2.13882
1146.13
-1425.96
225.965
1459.04
1437.23
1070.66
937.454
991.066
1046.55
1047.98
1028.24
1016.37
1013.76
1012.36
1008.69
1003.79
999.097
994.839
990.693
986.457
982.152
977.852
973.574
969.299
965.022
960.741
956.46
952.178
947.897
943.619
939.343
935.064
930.783
926.501
922.221
917.943
913.665
909.385
905.105
900.826
896.547
892.268
887.989
883.71
879.432
875.152
870.87
866.589
862.309
858.032
853.753
849.474
845.195
840.914
836.634
832.355
828.076
823.797
819.516
815.236
810.958
806.681
802.401
798.119
793.839
789.56
785.283
781.004
776.724
772.443
768.163
763.883
759.604
755.324
751.046
746.768
742.489
738.209
733.928
729.647
725.368
721.091
716.813
712.533
708.252
703.971
699.691
695.412
691.134
686.856
682.576
678.296
674.017
669.738
665.458
661.178
656.899
652.62
648.342
644.063
639.782
635.501
631.22
626.941
622.664
618.386
614.108
609.827
605.545
601.264
596.984
592.707
588.43
584.152
579.873
575.591
571.309
567.028
562.748
558.471
554.195
549.917
545.638
541.356
537.073
532.792
528.514
524.237
519.96
515.682
511.401
507.119
502.836
498.555
494.276
489.999
485.723
481.446
477.166
472.885
468.602
464.32
460.04
455.762
451.485
447.208
442.928
438.647
434.365
430.084
425.804
421.525
417.248
412.971
408.694
404.414
400.133
395.85
391.568
387.288
383.01
378.734
374.458
370.18
365.901
361.62
357.338
353.056
348.775
344.495
340.217
335.941
331.665
327.388
323.108
318.827
314.544
310.262
305.979
301.699
297.42
293.144
288.868
284.592
280.314
276.034
271.752
267.47
263.186
258.904
254.622
250.343
246.065
241.788
237.512
233.235
228.957
224.677
220.396
216.114
211.833
207.552
203.272
198.993
194.716
190.44
186.164
181.888
177.61
173.331
169.051
164.77
160.488
156.206
151.925
147.645
143.367
139.091
134.815
130.539
126.263
121.985
117.706
113.425
109.142
104.857
100.57
96.2824
91.9952
87.7088
83.4236
79.14
74.8586
70.5797
66.3029
62.0278
57.7536
53.4797
49.2057
44.9312
40.6555
36.3784
32.0998
27.8199
23.5391
19.2579
14.9768
10.6963
6.41674
2.13875
1146.13
-1425.96
225.96
1459.03
1437.22
1070.66
937.461
991.081
1046.56
1047.98
1028.24
1016.37
1013.76
1012.36
1008.69
1003.79
999.093
994.838
990.69
986.452
982.149
977.85
973.572
969.299
965.022
960.741
956.461
952.182
947.898
943.616
939.339
935.063
930.784
926.501
922.219
917.942
913.666
909.386
905.105
900.826
896.547
892.266
887.985
883.707
879.431
875.153
870.872
866.59
862.311
858.033
853.754
849.473
845.191
840.911
836.634
832.357
828.077
823.796
819.516
815.236
810.957
806.679
802.399
798.12
793.841
789.561
785.281
781.002
776.723
772.444
768.164
763.883
759.603
755.324
751.046
746.768
742.489
738.208
733.927
729.647
725.369
721.091
716.812
712.532
708.252
703.972
699.692
695.412
691.133
686.855
682.576
678.297
674.017
669.737
665.457
661.177
656.898
652.62
648.343
644.063
639.781
635.5
631.219
626.941
622.664
618.387
614.108
609.827
605.545
601.263
596.984
592.707
588.431
584.153
579.872
575.59
571.308
567.027
562.749
558.472
554.196
549.918
545.637
541.355
537.073
532.792
528.514
524.237
519.961
515.682
511.401
507.118
502.836
498.556
494.277
490
485.724
481.446
477.166
472.884
468.602
464.321
460.041
455.763
451.485
447.207
442.928
438.647
434.365
430.084
425.805
421.527
417.25
412.972
408.693
404.413
400.131
395.85
391.569
387.289
383.012
378.735
374.459
370.181
365.901
361.619
357.337
353.055
348.775
344.496
340.219
335.942
331.666
327.388
323.108
318.826
314.543
310.26
305.978
301.699
297.421
293.145
288.869
284.592
280.314
276.034
271.752
267.468
263.185
258.902
254.622
250.343
246.065
241.789
237.513
233.236
228.958
224.678
220.396
216.114
211.832
207.551
203.272
198.994
194.717
190.441
186.165
181.889
177.611
173.332
169.051
164.77
160.488
156.206
151.925
147.645
143.367
139.09
134.814
130.539
126.263
121.985
117.706
113.425
109.142
104.857
100.57
96.2827
91.9953
87.7089
83.424
79.1408
74.8596
70.5805
66.3035
62.0284
57.7543
53.4805
49.2065
44.9317
40.6558
36.3786
32.0999
27.8199
23.5391
19.2579
14.9767
10.6962
6.41678
2.13871
1146.14
-1425.96
225.967
1459.04
1437.22
1070.66
937.456
991.07
1046.55
1047.98
1028.23
1016.37
1013.76
1012.36
1008.69
1003.79
999.096
994.838
990.69
986.452
982.15
977.852
973.572
969.299
965.022
960.742
956.462
952.183
947.901
943.618
939.338
935.061
930.784
926.504
922.223
917.942
913.663
909.385
905.106
900.828
896.548
892.268
887.987
883.708
879.43
875.15
870.87
866.59
862.312
858.034
853.755
849.473
845.191
840.912
836.635
832.357
828.077
823.797
819.517
815.237
810.957
806.678
802.4
798.122
793.842
789.561
785.28
781
776.722
772.444
768.165
763.884
759.603
755.324
751.046
746.768
742.488
738.208
733.928
729.649
725.37
721.091
716.811
712.532
708.252
703.973
699.693
695.412
691.132
686.854
682.577
678.299
674.019
669.737
665.456
661.176
656.898
652.622
648.344
644.063
639.781
635.498
631.218
626.941
622.665
618.388
614.108
609.827
605.544
601.263
596.984
592.707
588.431
584.152
579.872
575.589
571.307
567.027
562.75
558.473
554.196
549.917
545.636
541.354
537.072
532.793
528.515
524.238
519.96
515.681
511.4
507.118
502.836
498.556
494.278
490.001
485.724
481.445
477.165
472.883
468.602
464.321
460.042
455.764
451.486
447.207
442.927
438.646
434.365
430.085
425.806
421.528
417.251
412.972
408.693
404.412
400.13
395.849
391.569
387.291
383.014
378.737
374.459
370.181
365.9
361.618
357.336
353.054
348.775
344.497
340.22
335.944
331.667
327.388
323.107
318.824
314.541
310.258
305.977
301.698
297.421
293.146
288.87
284.593
280.315
276.034
271.751
267.467
263.184
258.901
254.621
250.343
246.066
241.79
237.514
233.237
228.958
224.678
220.396
216.114
211.832
207.551
203.271
198.994
194.718
190.442
186.166
181.89
177.612
173.333
169.052
164.77
160.487
156.205
151.924
147.645
143.366
139.09
134.814
130.538
126.263
121.985
117.706
113.425
109.142
104.857
100.57
96.2829
91.9956
87.709
83.424
79.141
74.86
70.5811
66.3041
62.0287
57.7546
53.4808
49.2068
44.9319
40.6558
36.3785
32.0997
27.8198
23.5389
19.2576
14.9765
10.696
6.41664
2.13859
1146.14
-1425.96
225.959
1459.03
1437.22
1070.65
937.453
991.075
1046.56
1047.98
1028.24
1016.37
1013.76
1012.36
1008.69
1003.79
999.096
994.84
990.689
986.452
982.154
977.854
973.57
969.295
965.022
960.742
956.458
952.177
947.901
943.621
939.338
935.057
930.781
926.505
922.225
917.942
913.662
909.384
905.106
900.826
896.545
892.267
887.99
883.712
879.431
875.149
870.869
866.59
862.311
858.031
853.752
849.473
845.194
840.914
836.634
832.355
828.077
823.797
819.516
815.236
810.957
806.679
802.401
798.122
793.841
789.56
785.279
781
776.723
772.445
768.165
763.884
759.604
755.324
751.046
746.767
742.487
738.208
733.929
729.65
725.37
721.089
716.81
712.531
708.253
703.974
699.693
695.412
691.131
686.853
682.577
678.299
674.019
669.736
665.454
661.175
656.898
652.622
648.344
644.063
639.78
635.497
631.218
626.941
622.666
618.388
614.108
609.825
605.543
601.263
596.985
592.708
588.431
584.152
579.87
575.588
571.307
567.028
562.751
558.474
554.196
549.916
545.635
541.353
537.072
532.793
528.515
524.238
519.96
515.68
511.399
507.118
502.837
498.558
494.279
490.002
485.723
481.444
477.164
472.883
468.602
464.322
460.043
455.765
451.486
447.206
442.926
438.645
434.365
430.086
425.807
421.529
417.251
412.972
408.692
404.411
400.129
395.849
391.57
387.292
383.015
378.738
374.46
370.18
365.899
361.617
357.335
353.054
348.775
344.498
340.222
335.945
331.668
327.388
323.106
318.823
314.539
310.257
305.976
301.698
297.422
293.147
288.871
284.594
280.315
276.033
271.75
267.466
263.182
258.9
254.621
250.343
246.067
241.791
237.515
233.237
228.958
224.677
220.395
216.113
211.831
207.55
203.271
198.994
194.718
190.443
186.167
181.891
177.613
173.333
169.052
164.77
160.487
156.205
151.924
147.644
143.366
139.09
134.814
130.538
126.262
121.985
117.706
113.425
109.142
104.857
100.57
96.2833
91.9962
87.7098
83.4247
79.1416
74.8608
70.582
66.3051
62.0297
57.7554
53.4815
49.2073
44.9324
40.6562
36.3787
32.0998
27.8198
23.5388
19.2576
14.9764
10.696
6.41663
2.13861
1146.13
-1425.96
225.961
1459.04
1437.23
1070.66
937.455
991.075
1046.56
1047.98
1028.23
1016.37
1013.76
1012.36
1008.68
1003.79
999.098
994.843
990.691
986.451
982.151
977.854
973.572
969.297
965.021
960.742
956.46
952.179
947.901
943.622
939.342
935.061
930.782
926.502
922.222
917.941
913.663
909.386
905.108
900.826
896.545
892.266
887.988
883.71
879.43
875.15
870.871
866.592
862.312
858.031
853.752
849.474
845.194
840.913
836.634
832.356
828.078
823.797
819.516
815.236
810.958
806.68
802.401
798.121
793.84
789.559
785.28
781.001
776.723
772.444
768.165
763.885
759.604
755.324
751.044
746.766
742.488
738.21
733.931
729.65
725.368
721.087
716.809
712.533
708.255
703.975
699.693
695.411
691.131
686.854
682.578
678.3
674.019
669.736
665.454
661.175
656.899
652.623
648.344
644.062
639.779
635.497
631.218
626.942
622.666
618.389
614.108
609.825
605.543
601.263
596.986
592.709
588.43
584.15
579.869
575.588
571.307
567.029
562.751
558.474
554.195
549.915
545.634
541.353
537.073
532.794
528.516
524.238
519.959
515.679
511.399
507.118
502.838
498.559
494.281
490.002
485.723
481.443
477.162
472.882
468.602
464.323
460.044
455.766
451.486
447.206
442.925
438.645
434.365
430.087
425.809
421.531
417.252
412.972
408.691
404.409
400.128
395.849
391.57
387.293
383.017
378.74
374.461
370.18
365.898
361.615
357.334
353.054
348.776
344.499
340.223
335.946
331.668
327.387
323.105
318.821
314.538
310.256
305.976
301.698
297.423
293.148
288.872
284.594
280.314
276.032
271.748
267.464
263.181
258.9
254.62
250.343
246.067
241.792
237.516
233.238
228.958
224.677
220.395
216.112
211.831
207.55
203.272
198.995
194.719
190.444
186.169
181.892
177.614
173.334
169.052
164.77
160.487
156.205
151.923
147.644
143.366
139.089
134.813
130.538
126.262
121.985
117.706
113.425
109.141
104.856
100.57
96.2829
91.9961
87.71
83.4251
79.142
74.861
70.5823
66.3055
62.0302
57.7558
53.4817
49.2074
44.9324
40.6561
36.3785
32.0996
27.8195
23.5386
19.2573
14.9762
10.6957
6.4165
2.1385
1146.14
-1425.95
225.969
1459.04
1437.22
1070.65
937.454
991.072
1046.56
1047.98
1028.23
1016.37
1013.76
1012.36
1008.69
1003.78
999.088
994.838
990.692
986.451
982.148
977.853
973.575
969.298
965.019
960.741
956.463
952.181
947.897
943.617
939.341
935.064
930.783
926.502
922.222
917.943
913.663
909.384
905.107
900.828
896.548
892.267
887.987
883.708
879.43
875.15
870.87
866.59
862.312
858.034
853.755
849.473
845.192
840.912
836.634
832.356
828.077
823.797
819.516
815.237
810.958
806.68
802.4
798.12
793.84
789.56
785.281
781.001
776.723
772.444
768.166
763.886
759.605
755.323
751.043
746.765
742.489
738.212
733.932
729.649
725.366
721.086
716.81
712.535
708.257
703.975
699.691
695.409
691.131
686.855
682.579
678.3
674.017
669.734
665.453
661.176
656.9
652.623
648.343
644.061
639.778
635.497
631.219
626.943
622.666
618.387
614.106
609.824
605.543
601.264
596.986
592.709
588.43
584.149
579.868
575.588
571.308
567.03
562.752
558.473
554.194
549.913
545.633
541.353
537.073
532.795
528.516
524.237
519.958
515.678
511.398
507.119
502.84
498.561
494.281
490.002
485.721
481.441
477.161
472.882
468.603
464.325
460.046
455.766
451.486
447.205
442.925
438.645
434.366
430.088
425.81
421.532
417.253
412.972
408.69
404.408
400.128
395.849
391.571
387.295
383.018
378.741
374.461
370.18
365.897
361.614
357.333
353.054
348.776
344.5
340.224
335.947
331.668
327.387
323.104
318.82
314.536
310.255
305.976
301.699
297.424
293.148
288.872
284.594
280.314
276.031
271.747
267.463
263.18
258.899
254.62
250.344
246.068
241.793
237.516
233.238
228.959
224.677
220.395
216.112
211.83
207.55
203.272
198.995
194.72
190.445
186.17
181.893
177.614
173.334
169.052
164.77
160.487
156.205
151.923
147.644
143.366
139.089
134.813
130.538
126.262
121.985
117.706
113.425
109.142
104.857
100.57
96.2834
91.9966
87.7107
83.426
79.143
74.8621
70.5833
66.3065
62.0312
57.7567
53.4825
49.208
44.9327
40.6564
36.3786
32.0996
27.8195
23.5385
19.2572
14.9761
10.6957
6.41648
2.13852
1146.13
-1425.96
225.962
1459.04
1437.22
1070.66
937.453
991.074
1046.56
1047.98
1028.23
1016.37
1013.76
1012.36
1008.69
1003.79
999.094
994.838
990.692
986.456
982.152
977.852
973.573
969.298
965.021
960.742
956.463
952.183
947.901
943.619
939.339
935.06
930.781
926.502
922.224
917.944
913.663
909.384
905.106
900.827
896.546
892.266
887.988
883.71
879.432
875.151
870.869
866.589
862.312
858.034
853.755
849.473
845.192
840.913
836.634
832.355
828.076
823.797
819.518
815.238
810.958
806.677
802.399
798.121
793.843
789.562
785.28
780.999
776.721
772.444
768.167
763.886
759.604
755.321
751.042
746.766
742.491
738.213
733.931
729.647
725.365
721.086
716.811
712.536
708.257
703.974
699.69
695.409
691.131
686.856
682.58
678.299
674.016
669.734
665.454
661.177
656.901
652.623
648.343
644.06
639.778
635.498
631.221
626.944
622.666
618.386
614.105
609.824
605.544
601.265
596.987
592.708
588.429
584.148
579.868
575.588
571.31
567.031
562.752
558.472
554.192
549.912
545.633
541.353
537.075
532.795
528.516
524.236
519.957
515.677
511.398
507.12
502.841
498.562
494.282
490.001
485.72
481.44
477.16
472.882
468.604
464.326
460.047
455.766
451.485
447.204
442.924
438.645
434.367
430.089
425.812
421.533
417.253
412.971
408.689
404.407
400.127
395.849
391.573
387.297
383.02
378.741
374.461
370.179
365.896
361.613
357.332
353.054
348.777
344.501
340.225
335.948
331.668
327.386
323.103
318.818
314.535
310.254
305.976
301.699
297.425
293.149
288.873
284.594
280.313
276.03
271.746