/*--------------------------------*- C++ -*----------------------------------*\
| =========                 |                                                 |
| \\      /  F ield         | OpenFOAM: The Open Source CFD Toolbox           |
|  \\    /   O peration     | Version:  2406                                  |
|   \\  /    A nd           | Website:  www.openfoam.com                      |
|    \\/     M anipulation  |                                                 |
\*---------------------------------------------------------------------------*/
FoamFile
{
    version     2.0;
    format      ascii;
    arch        "LSB;label=32;scalar=64";
    class       surfaceScalarField;
    location    "0.5";
    object      phi;
}
// * * * * * * * * * * * * * * * * * * * * * * * * * * * * * * * * * * * * * //

dimensions      [0 3 -1 0 0 0 0];

oriented        oriented;

internalField   nonuniform List<scalar> 
12225
(
0.453497
2.65035e-06
0.453489
7.30882e-06
0.453481
8.34946e-06
0.453475
6.30084e-06
0.453469
5.91543e-06
0.453463
6.17658e-06
0.453456
6.52047e-06
0.45345
5.98149e-06
0.453446
4.55105e-06
0.453441
4.38581e-06
0.453437
4.58933e-06
0.453432
4.84119e-06
0.453426
5.38968e-06
0.45342
5.99318e-06
0.453414
6.56139e-06
0.453407
6.90504e-06
0.4534
6.81526e-06
0.453394
6.54516e-06
0.453387
6.15903e-06
0.453382
5.47702e-06
0.453377
4.89927e-06
0.453372
4.76665e-06
0.453368
4.79413e-06
0.453363
4.92059e-06
0.453357
5.36045e-06
0.453351
5.75364e-06
0.453346
5.56591e-06
0.453341
5.06486e-06
0.453336
4.81414e-06
0.453331
4.59024e-06
0.453327
4.1893e-06
0.453323
3.91128e-06
0.453319
3.91514e-06
0.453315
4.11299e-06
0.453311
4.33967e-06
0.453307
4.49096e-06
0.453302
4.57822e-06
0.453297
4.47044e-06
0.453293
4.04678e-06
0.45329
3.54488e-06
0.453286
3.40092e-06
0.453283
3.6278e-06
0.453279
3.99161e-06
0.453274
4.42495e-06
0.45327
4.91303e-06
0.453264
5.24893e-06
0.453259
5.17781e-06
0.453254
4.72464e-06
0.45325
4.27929e-06
0.453246
4.24203e-06
0.453241
4.6481e-06
0.453236
5.06466e-06
0.453231
5.07322e-06
0.453226
4.77622e-06
0.453222
4.55413e-06
0.453217
4.53669e-06
0.453213
4.57429e-06
0.453208
4.64648e-06
0.453203
4.91201e-06
0.453198
5.35841e-06
0.453192
5.75852e-06
0.453186
5.95759e-06
0.45318
6.03638e-06
0.453174
6.11219e-06
0.453168
6.11954e-06
0.453162
5.94523e-06
0.453156
5.64828e-06
0.453151
5.42017e-06
0.453145
5.37712e-06
0.45314
5.4583e-06
0.453134
5.50967e-06
0.453129
5.45741e-06
0.453124
5.33938e-06
0.453118
5.22165e-06
0.453113
5.139e-06
0.453108
5.12241e-06
0.453103
5.21763e-06
0.453097
5.41411e-06
0.453092
5.59353e-06
0.453086
5.61769e-06
0.453081
5.47282e-06
0.453075
5.28586e-06
0.45307
5.19689e-06
0.453065
5.24159e-06
0.45306
5.34143e-06
0.453054
5.3691e-06
0.453049
5.22993e-06
0.453044
4.96067e-06
0.453039
4.72665e-06
0.453035
4.65425e-06
0.45303
4.69851e-06
0.453025
4.67651e-06
0.453021
4.46767e-06
0.453017
4.14176e-06
0.453013
3.8248e-06
0.453009
3.55664e-06
0.453006
3.31379e-06
0.453003
3.09646e-06
0.453
2.93702e-06
0.452997
2.81102e-06
0.452995
2.62482e-06
0.452992
2.32239e-06
0.45299
1.95731e-06
0.452989
1.64667e-06
0.452987
1.47492e-06
0.452986
1.44484e-06
0.452984
1.48361e-06
0.452983
1.45844e-06
0.452982
1.25493e-06
0.452981
9.18964e-07
0.45298
6.48659e-07
0.452979
5.90748e-07
0.452979
7.04773e-07
0.452978
8.02496e-07
0.452977
7.52643e-07
0.452977
6.23528e-07
0.452976
5.2707e-07
0.452976
4.7184e-07
0.452975
4.19267e-07
0.452975
3.54059e-07
0.452974
3.13561e-07
0.452974
3.92818e-07
0.452974
4.87543e-07
0.452973
4.8806e-07
0.452973
4.0367e-07
0.452972
3.15586e-07
0.452972
3.01767e-07
0.452972
3.63698e-07
0.452971
3.96186e-07
0.452971
3.45026e-07
0.452971
2.32169e-07
0.452971
1.34881e-07
0.45297
1.47e-07
0.45297
2.62484e-07
0.45297
3.7254e-07
0.452969
3.74726e-07
0.452969
2.64805e-07
0.452969
1.34708e-07
0.452969
8.09084e-08
0.452969
1.20013e-07
0.452969
1.74605e-07
0.452968
1.90167e-07
0.452968
1.88553e-07
0.452968
2.12596e-07
0.452968
2.57818e-07
0.452968
2.45404e-07
0.452967
1.41928e-07
0.452967
-3.92317e-08
0.452968
-2.09628e-07
0.452968
-1.80717e-07
0.452968
4.42153e-08
0.452967
3.33631e-07
0.452967
4.13983e-07
0.452967
2.43622e-07
0.452967
2.40642e-08
0.452967
-1.22252e-07
0.452967
-1.38626e-07
0.452967
-1.36688e-07
0.452967
-1.52263e-07
0.452967
-1.23619e-07
0.452967
2.02534e-08
0.452967
2.21917e-07
0.452967
2.98662e-07
0.452967
1.53014e-07
0.452967
-1.37449e-07
0.452967
-3.62573e-07
0.452968
-3.69358e-07
0.452968
-1.95965e-07
0.452968
-1.67178e-08
0.452968
2.12932e-08
0.452968
-5.67451e-08
0.452968
-1.27899e-07
0.452968
-8.07516e-08
0.452968
-2.15976e-09
0.452968
-6.26014e-08
0.452968
-2.97674e-07
0.452969
-5.61771e-07
0.45297
-6.56942e-07
0.45297
-5.45902e-07
0.452971
-3.41794e-07
0.452971
-2.08963e-07
0.452971
-2.0008e-07
0.452971
-2.64406e-07
0.452972
-3.33872e-07
0.452972
-4.01938e-07
0.452972
-4.88698e-07
0.452973
-5.78582e-07
0.452974
-6.24736e-07
0.452974
-6.00465e-07
0.452975
-5.35541e-07
0.452975
-4.86508e-07
0.452976
-4.75718e-07
0.452976
-4.78952e-07
0.452977
-4.5486e-07
0.452977
-4.10804e-07
0.452977
-4.14311e-07
0.452978
-5.10461e-07
0.452979
-6.83474e-07
0.45298
-8.40158e-07
0.45298
-8.8702e-07
0.452981
-8.11482e-07
0.452982
-6.99603e-07
0.452983
-6.75148e-07
0.452983
-7.90757e-07
0.452984
-9.83229e-07
0.452986
-1.13258e-06
0.452987
-1.17847e-06
0.452988
-1.1822e-06
0.452989
-1.25843e-06
0.452991
-1.44541e-06
0.452992
-1.65027e-06
0.452994
-1.73209e-06
0.452996
-1.63174e-06
0.452997
-1.42844e-06
0.452998
-1.24807e-06
0.452999
-1.14898e-06
0.453001
-1.09389e-06
0.453002
-1.02094e-06
0.453002
-8.99035e-07
0.453003
-7.27478e-07
0.453004
-5.23565e-07
0.453004
-2.8403e-07
0.453004
-3.89034e-08
0.453004
1.53363e-07
0.453004
2.1819e-07
0.453003
1.41073e-07
0.453003
1.28259e-08
0.453004
-5.52584e-08
0.453003
6.11892e-08
0.453003
2.93578e-07
0.453003
4.46154e-07
0.453002
4.4151e-07
0.453002
3.71674e-07
0.453002
3.90089e-07
0.453001
5.38445e-07
0.453
6.78555e-07
0.453
6.5585e-07
0.452999
4.52432e-07
0.452999
1.81147e-07
0.452999
3.23516e-08
0.452999
2.64093e-08
0.452999
1.0638e-07
0.452999
1.19908e-07
0.452999
-9.05793e-09
0.452999
-1.97293e-07
0.452999
-3.26965e-07
0.453
-3.3912e-07
0.453
-2.39083e-07
0.453
-1.11384e-07
-7.32733e-08
0.453506
-6.65873e-07
0.453513
1.95734e-07
0.453519
1.7943e-06
0.453524
2.26919e-06
0.453528
1.91678e-06
0.453532
1.83846e-06
0.453537
1.70328e-06
0.45354
2.2351e-06
0.453542
2.6374e-06
0.453544
2.35091e-06
0.453547
2.25471e-06
0.453549
2.58628e-06
0.453552
2.60021e-06
0.453556
2.22444e-06
0.45356
2.04549e-06
0.453565
2.11972e-06
0.453569
2.14492e-06
0.453574
2.23753e-06
0.453577
2.90596e-06
0.453579
3.61152e-06
0.45358
3.52334e-06
0.453582
3.09808e-06
0.453584
2.89673e-06
0.453586
2.62934e-06
0.453589
2.39635e-06
0.453592
2.38968e-06
0.453595
2.57334e-06
0.453598
2.60846e-06
0.4536
2.52158e-06
0.453602
2.62047e-06
0.453604
2.67849e-06
0.453605
2.5763e-06
0.453606
2.59037e-06
0.453608
2.67266e-06
0.45361
2.50261e-06
0.453612
2.14869e-06
0.453615
2.00394e-06
0.453617
2.20548e-06
0.453618
2.49509e-06
0.453619
2.53107e-06
0.45362
2.36351e-06
0.453622
2.28505e-06
0.453623
2.26856e-06
0.453626
2.06301e-06
0.453629
1.78997e-06
0.453632
1.91606e-06
0.453635
2.56969e-06
0.453636
3.22252e-06
0.453637
3.3132e-06
0.453639
2.93887e-06
0.453641
2.61058e-06
0.453643
2.56113e-06
0.453646
2.56936e-06
0.453648
2.483e-06
0.45365
2.49745e-06
0.453652
2.74644e-06
0.453654
2.93669e-06
0.453655
2.74746e-06
0.453658
2.31615e-06
0.453661
2.01529e-06
0.453665
1.95981e-06
0.453669
2.0138e-06
0.453673
2.07597e-06
0.453677
2.17908e-06
0.453681
2.32343e-06
0.453684
2.4168e-06
0.453688
2.41805e-06
0.453691
2.3933e-06
0.453694
2.38483e-06
0.453697
2.34733e-06
0.4537
2.26183e-06
0.453703
2.2189e-06
0.453706
2.30195e-06
0.453709
2.42859e-06
0.453712
2.39745e-06
0.453715
2.14835e-06
0.453718
1.8691e-06
0.453722
1.81557e-06
0.453725
2.00189e-06
0.453729
2.18746e-06
0.453732
2.19063e-06
0.453735
2.09397e-06
0.453738
2.09853e-06
0.453741
2.24015e-06
0.453744
2.36625e-06
0.453747
2.34795e-06
0.45375
2.23172e-06
0.453753
2.1416e-06
0.453756
2.12768e-06
0.453758
2.15227e-06
0.453761
2.15312e-06
0.453763
2.11477e-06
0.453766
2.0842e-06
0.453768
2.14229e-06
0.453769
2.32895e-06
0.45377
2.56365e-06
0.453771
2.6867e-06
0.453771
2.62119e-06
0.453772
2.47119e-06
0.453772
2.40839e-06
0.453772
2.47623e-06
0.453772
2.55647e-06
0.453771
2.522e-06
0.453771
2.36899e-06
0.45377
2.19095e-06
0.453769
2.08228e-06
0.453769
2.09132e-06
0.453768
2.20362e-06
0.453767
2.32891e-06
0.453766
2.36063e-06
0.453764
2.29767e-06
0.453762
2.27725e-06
0.45376
2.42869e-06
0.453759
2.68137e-06
0.453757
2.79809e-06
0.453755
2.6435e-06
0.453753
2.35031e-06
0.453751
2.16961e-06
0.453749
2.19979e-06
0.453747
2.32198e-06
0.453745
2.36958e-06
0.453743
2.31808e-06
0.453742
2.24056e-06
0.45374
2.19081e-06
0.453738
2.16475e-06
0.453736
2.14437e-06
0.453734
2.14599e-06
0.453733
2.19723e-06
0.453731
2.27356e-06
0.453729
2.31267e-06
0.453727
2.26504e-06
0.453725
2.14477e-06
0.453723
2.04218e-06
0.453721
2.05439e-06
0.453719
2.19196e-06
0.453717
2.3549e-06
0.453715
2.41234e-06
0.453713
2.33e-06
0.453711
2.21419e-06
0.453709
2.21144e-06
0.453706
2.36108e-06
0.453704
2.55875e-06
0.453702
2.65415e-06
0.453699
2.59507e-06
0.453697
2.4689e-06
0.453695
2.40892e-06
0.453692
2.46163e-06
0.45369
2.55253e-06
0.453687
2.59081e-06
0.453684
2.57277e-06
0.453682
2.55992e-06
0.45368
2.62361e-06
0.453677
2.70051e-06
0.453675
2.65698e-06
0.453672
2.45637e-06
0.45367
2.21872e-06
0.453668
2.12689e-06
0.453665
2.20457e-06
0.453663
2.31915e-06
0.453661
2.34025e-06
0.453658
2.27607e-06
0.453656
2.24034e-06
0.453654
2.28359e-06
0.453652
2.31961e-06
0.45365
2.2302e-06
0.453647
2.02873e-06
0.453645
1.87574e-06
0.453643
1.93077e-06
0.453641
2.19118e-06
0.453638
2.46814e-06
0.453636
2.54385e-06
0.453633
2.37485e-06
0.453631
2.12983e-06
0.453629
1.99834e-06
0.453627
2.00265e-06
0.453625
2.02084e-06
0.453622
1.94491e-06
0.45362
1.81457e-06
0.453617
1.76012e-06
0.453615
1.84146e-06
0.453613
1.96605e-06
0.453611
1.99155e-06
0.453609
1.87085e-06
0.453607
1.67851e-06
0.453605
1.50881e-06
0.453603
1.39131e-06
0.453601
1.30665e-06
0.453599
1.25389e-06
0.453597
1.2611e-06
0.453595
1.34252e-06
0.453593
1.44816e-06
0.453591
1.48447e-06
0.45359
1.39824e-06
0.453588
1.22346e-06
0.453586
1.04679e-06
0.453585
9.26551e-07
0.453584
8.48584e-07
0.453582
7.46411e-07
0.453581
5.72167e-07
0.45358
3.50523e-07
0.453579
1.60589e-07
0.453578
7.55676e-08
0.453577
7.65069e-08
0.453576
7.08781e-08
0.453575
-3.75769e-08
0.453574
-2.565e-07
0.453574
-4.88246e-07
0.453573
-6.17477e-07
0.453573
-6.18625e-07
0.453572
-5.82144e-07
0.453571
-6.11345e-07
0.45357
-7.15286e-07
0.453569
-7.95479e-07
0.453568
-7.51606e-07
0.453567
-5.92881e-07
0.453567
-4.22654e-07
0.453566
-3.27759e-07
0.453565
-3.00488e-07
0.453565
-2.8263e-07
0.453564
-2.46438e-07
0.453564
-2.24525e-07
0.453564
-2.53682e-07
0.453564
-3.07689e-07
0.453565
-3.02788e-07
0.453565
-2.03778e-07
0.453565
-1.1216e-07
0.453565
-1.10614e-07
0.453566
-2.6483e-07
0.453566
-4.4351e-07
0.453567
-4.76963e-07
0.453568
-3.54099e-07
0.453568
-2.33298e-07
0.453569
-2.84091e-07
0.45357
-5.0979e-07
0.453571
-7.272e-07
0.453573
-7.50516e-07
0.453574
-5.91891e-07
0.453575
-4.36589e-07
0.453575
-4.68025e-07
0.453576
-6.64894e-07
0.453577
-8.49443e-07
0.453578
-8.68284e-07
0.453579
-7.2947e-07
0.453579
-5.43375e-07
0.45358
-4.30725e-07
0.45358
-4.23442e-07
0.45358
-4.59357e-07
0.45358
-4.65288e-07
0.45358
-4.26087e-07
-3.66263e-07
0.453502
-1.06581e-07
0.453502
-1.39787e-07
0.453504
2.10129e-07
0.453505
1.3337e-06
0.453505
1.98609e-06
0.453504
2.27742e-06
0.453504
2.29585e-06
0.453503
2.48538e-06
0.453503
2.87698e-06
0.453503
2.83409e-06
0.453502
2.36028e-06
0.453503
1.73366e-06
0.453504
1.47842e-06
0.453505
1.81176e-06
0.453505
2.0632e-06
0.453505
1.94329e-06
0.453505
1.96295e-06
0.453506
1.75442e-06
0.453507
1.29072e-06
0.45351
1.34399e-06
0.453511
1.90516e-06
0.453512
2.25266e-06
0.453513
2.34974e-06
0.453513
2.2278e-06
0.453513
2.02913e-06
0.453514
2.06937e-06
0.453514
1.97531e-06
0.453515
1.78536e-06
0.453516
1.87351e-06
0.453516
2.00033e-06
0.453517
2.07446e-06
0.453517
2.10037e-06
0.453518
2.06465e-06
0.453518
2.26607e-06
0.453518
2.59997e-06
0.453518
2.60497e-06
0.453517
2.37348e-06
0.453517
2.29734e-06
0.453517
2.39635e-06
0.453518
2.4512e-06
0.453517
2.45519e-06
0.453517
2.52413e-06
0.453517
2.60448e-06
0.453516
2.48737e-06
0.453516
2.1141e-06
0.453516
1.73893e-06
0.453517
1.68902e-06
0.453518
1.98955e-06
0.453519
2.28836e-06
0.45352
2.24673e-06
0.453521
1.93246e-06
0.453522
1.70467e-06
0.453523
1.7204e-06
0.453523
1.79306e-06
0.453524
1.78617e-06
0.453525
1.83172e-06
0.453526
2.03105e-06
0.453526
2.22739e-06
0.453526
2.27115e-06
0.453526
2.26373e-06
0.453526
2.37687e-06
0.453525
2.57589e-06
0.453524
2.67921e-06
0.453524
2.62268e-06
0.453524
2.52653e-06
0.453524
2.52832e-06
0.453523
2.64306e-06
0.453523
2.79281e-06
0.453523
2.88699e-06
0.453522
2.86551e-06
0.453522
2.73451e-06
0.453521
2.5693e-06
0.453521
2.47496e-06
0.453521
2.49538e-06
0.453521
2.56636e-06
0.45352
2.57462e-06
0.45352
2.47807e-06
0.453519
2.35617e-06
0.453519
2.30759e-06
0.453519
2.32359e-06
0.453519
2.31637e-06
0.453519
2.25792e-06
0.453518
2.2152e-06
0.453518
2.23203e-06
0.453519
2.25267e-06
0.453519
2.20632e-06
0.453519
2.12629e-06
0.453519
2.10415e-06
0.453519
2.16119e-06
0.453519
2.21622e-06
0.453519
2.18573e-06
0.453519
2.0664e-06
0.453519
1.91726e-06
0.453519
1.81611e-06
0.45352
1.82926e-06
0.45352
1.96604e-06
0.453521
2.13733e-06
0.453521
2.20645e-06
0.453522
2.12545e-06
0.453522
1.99449e-06
0.453523
1.95356e-06
0.453523
2.03556e-06
0.453523
2.1599e-06
0.453524
2.2419e-06
0.453524
2.25327e-06
0.453523
2.19514e-06
0.453523
2.08744e-06
0.453524
1.99324e-06
0.453524
1.98705e-06
0.453524
2.07014e-06
0.453524
2.15703e-06
0.453524
2.18184e-06
0.453525
2.18591e-06
0.453525
2.24445e-06
0.453526
2.33032e-06
0.453526
2.33346e-06
0.453526
2.22601e-06
0.453526
2.13179e-06
0.453526
2.19448e-06
0.453526
2.40317e-06
0.453526
2.59371e-06
0.453525
2.62761e-06
0.453525
2.51605e-06
0.453525
2.37315e-06
0.453525
2.29729e-06
0.453525
2.30294e-06
0.453525
2.34538e-06
0.453524
2.37389e-06
0.453524
2.36263e-06
0.453524
2.31485e-06
0.453524
2.24688e-06
0.453524
2.16873e-06
0.453524
2.08617e-06
0.453524
2.02035e-06
0.453524
2.0041e-06
0.453525
2.04109e-06
0.453525
2.0741e-06
0.453525
2.02005e-06
0.453526
1.85235e-06
0.453526
1.6438e-06
0.453527
1.50902e-06
0.453528
1.49506e-06
0.453529
1.53457e-06
0.45353
1.50614e-06
0.453532
1.34986e-06
0.453533
1.13421e-06
0.453534
1.0039e-06
0.453536
1.04883e-06
0.453537
1.22168e-06
0.453538
1.39492e-06
0.453539
1.4853e-06
0.453541
1.52444e-06
0.453542
1.5826e-06
0.453543
1.65764e-06
0.453543
1.67854e-06
0.453544
1.62111e-06
0.453545
1.57595e-06
0.453545
1.65406e-06
0.453546
1.84642e-06
0.453546
2.01172e-06
0.453546
2.01289e-06
0.453547
1.85069e-06
0.453547
1.65047e-06
0.453548
1.52857e-06
0.453549
1.48807e-06
0.453549
1.44576e-06
0.45355
1.34907e-06
0.453551
1.24741e-06
0.453551
1.24594e-06
0.453553
1.37762e-06
0.453554
1.53181e-06
0.453554
1.54157e-06
0.453555
1.34978e-06
0.453556
1.07709e-06
0.453557
9.11052e-07
0.453558
9.32324e-07
0.453559
1.06149e-06
0.45356
1.16922e-06
0.45356
1.20814e-06
0.453561
1.2212e-06
0.453562
1.24337e-06
0.453562
1.23391e-06
0.453563
1.12504e-06
0.453564
9.091e-07
0.453565
6.55801e-07
0.453566
4.43633e-07
0.453567
2.99149e-07
0.453568
2.09452e-07
0.453569
1.4721e-07
0.45357
1.28534e-07
0.453571
1.74476e-07
0.453573
2.55424e-07
0.453574
3.08331e-07
0.453575
2.86225e-07
0.453576
2.01888e-07
0.453576
1.29154e-07
0.453577
1.42918e-07
0.453578
2.63092e-07
0.453578
4.3856e-07
0.453577
5.88376e-07
0.453577
6.68377e-07
0.453576
7.03428e-07
0.453576
7.562e-07
0.453575
8.56836e-07
0.453574
9.5919e-07
0.453573
9.73577e-07
0.453571
8.54277e-07
0.45357
6.55647e-07
0.453569
4.90477e-07
0.453568
4.24053e-07
0.453567
4.20767e-07
0.453566
3.92164e-07
0.453565
3.04608e-07
0.453564
2.16125e-07
0.453563
2.00674e-07
0.453562
2.64128e-07
0.453562
3.37884e-07
0.453561
3.6521e-07
0.45356
3.47707e-07
0.45356
3.24513e-07
0.453559
3.13323e-07
0.453559
2.84498e-07
0.453558
1.97129e-07
0.453558
6.39146e-08
0.453558
-1.93378e-08
0.453557
-1.27004e-08
0.453557
4.70878e-08
0.453557
4.30006e-08
0.453557
-1.02447e-07
0.453556
-3.06373e-07
0.453557
-4.25827e-07
0.453557
-3.97129e-07
0.453557
-3.09472e-07
0.453557
-3.25026e-07
0.453556
-5.08863e-07
0.453556
-7.55952e-07
0.453557
-8.99907e-07
0.453557
-8.69226e-07
0.453557
-7.52367e-07
0.453557
-7.01965e-07
0.453557
-7.78421e-07
0.453557
-9.10266e-07
0.453558
-9.76522e-07
0.453558
-9.21508e-07
0.453558
-7.9331e-07
0.453559
-6.75177e-07
0.453559
-6.13215e-07
0.453559
-5.95795e-07
0.453559
-5.89123e-07
-5.63746e-07
0.453502
5.68707e-07
0.453501
1.28453e-06
0.4535
1.23276e-06
0.4535
6.76385e-07
0.453502
6.33392e-07
0.453503
1.17426e-06
0.453504
1.59462e-06
0.453505
1.35855e-06
0.453507
9.3037e-07
0.453508
1.08425e-06
0.453509
1.87223e-06
0.453508
2.53863e-06
0.453507
2.44339e-06
0.453507
1.98562e-06
0.453507
1.92913e-06
0.453507
2.18412e-06
0.453506
2.49451e-06
0.453506
2.48779e-06
0.453505
2.25972e-06
0.453504
2.10008e-06
0.453504
1.97969e-06
0.453504
1.71058e-06
0.453505
1.55791e-06
0.453505
1.79892e-06
0.453506
1.83823e-06
0.453506
1.7925e-06
0.453506
2.23655e-06
0.453505
2.56974e-06
0.453504
2.47772e-06
0.453504
2.39603e-06
0.453504
2.41051e-06
0.453503
2.31922e-06
0.453503
2.0934e-06
0.453504
1.90513e-06
0.453504
1.90332e-06
0.453505
2.05071e-06
0.453505
2.09621e-06
0.453506
1.8981e-06
0.453506
1.67399e-06
0.453507
1.65407e-06
0.453508
1.70511e-06
0.453509
1.65367e-06
0.45351
1.6757e-06
0.45351
1.9424e-06
0.45351
2.20702e-06
0.45351
2.12648e-06
0.45351
1.76305e-06
0.45351
1.53196e-06
0.453511
1.60074e-06
0.453511
1.73624e-06
0.453512
1.73081e-06
0.453512
1.7117e-06
0.453511
1.87889e-06
0.453511
2.1e-06
0.453511
2.10692e-06
0.453511
1.93119e-06
0.453511
1.82925e-06
0.453511
1.86299e-06
0.453512
1.87138e-06
0.453512
1.78793e-06
0.453513
1.74054e-06
0.453514
1.78286e-06
0.453514
1.77938e-06
0.453515
1.62771e-06
0.453516
1.44316e-06
0.453518
1.40319e-06
0.453519
1.51218e-06
0.45352
1.62919e-06
0.453521
1.67381e-06
0.453522
1.70321e-06
0.453523
1.78224e-06
0.453524
1.86866e-06
0.453525
1.87537e-06
0.453525
1.80744e-06
0.453526
1.77099e-06
0.453527
1.82886e-06
0.453527
1.90712e-06
0.453528
1.8907e-06
0.453528
1.77673e-06
0.453529
1.67397e-06
0.45353
1.66032e-06
0.45353
1.70664e-06
0.453531
1.74341e-06
0.453531
1.74254e-06
0.453532
1.71978e-06
0.453532
1.69829e-06
0.453533
1.70836e-06
0.453533
1.77672e-06
0.453533
1.88249e-06
0.453533
1.95697e-06
0.453534
1.9576e-06
0.453534
1.91934e-06
0.453534
1.89949e-06
0.453534
1.896e-06
0.453534
1.86805e-06
0.453534
1.82038e-06
0.453534
1.80691e-06
0.453535
1.84369e-06
0.453535
1.87221e-06
0.453535
1.83603e-06
0.453535
1.7554e-06
0.453536
1.69581e-06
0.453536
1.69552e-06
0.453536
1.75203e-06
0.453537
1.84235e-06
0.453537
1.91662e-06
0.453537
1.90706e-06
0.453538
1.80154e-06
0.453538
1.69924e-06
0.453538
1.73243e-06
0.453538
1.91063e-06
0.453539
2.08689e-06
0.453539
2.11168e-06
0.453539
1.98703e-06
0.453539
1.83108e-06
0.45354
1.73188e-06
0.45354
1.69228e-06
0.453541
1.69649e-06
0.453541
1.76425e-06
0.453542
1.89949e-06
0.453542
2.02934e-06
0.453543
2.05646e-06
0.453544
1.96575e-06
0.453544
1.85027e-06
0.453545
1.8242e-06
0.453545
1.92013e-06
0.453545
2.07209e-06
0.453545
2.17767e-06
0.453546
2.17754e-06
0.453546
2.09449e-06
0.453546
2.00989e-06
0.453546
1.9948e-06
0.453546
2.05132e-06
0.453546
2.12086e-06
0.453546
2.15041e-06
0.453546
2.14275e-06
0.453546
2.13662e-06
0.453546
2.14823e-06
0.453545
2.14907e-06
0.453545
2.10615e-06
0.453544
2.02943e-06
0.453544
1.96693e-06
0.453544
1.95464e-06
0.453543
1.97322e-06
0.453542
1.96082e-06
0.453542
1.87997e-06
0.453541
1.77353e-06
0.45354
1.73936e-06
0.45354
1.83201e-06
0.453539
1.99147e-06
0.453538
2.08534e-06
0.453538
2.0372e-06
0.453538
1.89794e-06
0.453537
1.77592e-06
0.453537
1.71762e-06
0.453537
1.68724e-06
0.453537
1.65417e-06
0.453537
1.65572e-06
0.453537
1.74676e-06
0.453538
1.90277e-06
0.453538
2.00767e-06
0.453537
1.95597e-06
0.453537
1.76304e-06
0.453537
1.56425e-06
0.453537
1.50057e-06
0.453537
1.60251e-06
0.453537
1.77706e-06
0.453536
1.90124e-06
0.453535
1.93401e-06
0.453535
1.9304e-06
0.453534
1.95002e-06
0.453534
1.97061e-06
0.453533
1.90969e-06
0.453533
1.73615e-06
0.453532
1.54045e-06
0.453532
1.4658e-06
0.453531
1.576e-06
0.45353
1.80371e-06
0.45353
2.02278e-06
0.453529
2.16334e-06
0.453528
2.23794e-06
0.453527
2.27616e-06
0.453525
2.27489e-06
0.453524
2.21982e-06
0.453523
2.13373e-06
0.453521
2.07527e-06
0.453519
2.08756e-06
0.453517
2.15678e-06
0.453515
2.22138e-06
0.453513
2.23156e-06
0.453511
2.18057e-06
0.453509
2.08506e-06
0.453508
1.95148e-06
0.453506
1.76198e-06
0.453505
1.49448e-06
0.453504
1.15826e-06
0.453503
8.04628e-07
0.453503
5.02945e-07
0.453503
2.96622e-07
0.453504
1.71096e-07
0.453504
6.25733e-08
0.453505
-9.5909e-08
0.453506
-3.05272e-07
0.453507
-5.11416e-07
0.453509
-6.56e-07
0.453511
-7.41269e-07
0.453512
-8.33334e-07
0.453514
-9.92216e-07
0.453516
-1.20366e-06
0.453518
-1.38787e-06
0.453519
-1.47726e-06
0.453521
-1.48544e-06
0.453523
-1.48705e-06
0.453525
-1.53826e-06
0.453527
-1.62404e-06
0.453529
-1.68557e-06
0.453531
-1.69877e-06
0.453533
-1.69501e-06
0.453535
-1.70972e-06
0.453537
-1.73432e-06
0.453539
-1.72633e-06
0.453541
-1.66465e-06
0.453543
-1.58685e-06
0.453544
-1.55358e-06
0.453546
-1.57072e-06
0.453547
-1.57185e-06
0.453549
-1.46741e-06
0.45355
-1.26089e-06
0.453551
-1.07094e-06
0.453552
-1.0045e-06
0.453552
-1.0544e-06
0.453553
-1.10875e-06
0.453554
-1.06848e-06
0.453555
-9.51575e-07
0.453555
-8.73827e-07
0.453555
-9.25341e-07
0.453555
-1.07878e-06
0.453556
-1.21414e-06
0.453556
-1.23582e-06
0.453557
-1.15659e-06
0.453557
-1.06351e-06
0.453557
-1.02995e-06
0.453557
-1.05486e-06
0.453557
-1.08031e-06
0.453557
-1.05781e-06
0.453558
-9.86957e-07
0.453558
-9.03059e-07
0.453558
-8.34696e-07
0.453558
-7.89741e-07
-7.67622e-07
0.453506
-2.18214e-07
0.453506
5.85491e-07
0.453506
1.54169e-06
0.453505
2.06358e-06
0.453504
1.39865e-06
0.453504
6.6446e-07
0.453504
1.48752e-06
0.453504
2.19219e-06
0.453502
2.43959e-06
0.453501
2.32636e-06
0.453501
1.89705e-06
0.453502
1.77969e-06
0.453502
2.11351e-06
0.453502
2.21997e-06
0.453501
2.0351e-06
0.453502
1.63507e-06
0.453503
1.53338e-06
0.453504
1.85412e-06
0.453504
1.96474e-06
0.453504
1.82823e-06
0.453504
1.7625e-06
0.453504
1.83152e-06
0.453504
1.88138e-06
0.453504
1.85079e-06
0.453504
1.81951e-06
0.453504
1.61497e-06
0.453505
1.45483e-06
0.453506
1.611e-06
0.453507
1.73678e-06
0.453507
1.65843e-06
0.453508
1.70048e-06
0.453508
1.91752e-06
0.453509
1.90656e-06
0.453509
1.62058e-06
0.453509
1.54649e-06
0.45351
1.82843e-06
0.45351
2.07868e-06
0.453509
2.04758e-06
0.453509
1.95859e-06
0.453509
1.99971e-06
0.453508
2.01054e-06
0.453508
1.81593e-06
0.453508
1.56689e-06
0.453509
1.52637e-06
0.453509
1.69251e-06
0.45351
1.82698e-06
0.45351
1.75433e-06
0.45351
1.55301e-06
0.45351
1.4534e-06
0.45351
1.55678e-06
0.45351
1.7018e-06
0.45351
1.67978e-06
0.45351
1.51685e-06
0.453511
1.38705e-06
0.453512
1.32643e-06
0.453513
1.24728e-06
0.453513
1.13965e-06
0.453514
1.0926e-06
0.453515
1.13255e-06
0.453515
1.18001e-06
0.453516
1.1611e-06
0.453517
1.07722e-06
0.453517
9.7959e-07
0.453518
9.3151e-07
0.453519
9.87137e-07
0.453519
1.13596e-06
0.453519
1.26154e-06
0.453519
1.23866e-06
0.45352
1.08702e-06
0.453521
9.68086e-07
0.453522
1.01025e-06
0.453522
1.17865e-06
0.453523
1.32438e-06
0.453523
1.36116e-06
0.453524
1.35521e-06
0.453524
1.4208e-06
0.453524
1.5641e-06
0.453525
1.67529e-06
0.453525
1.68678e-06
0.453525
1.67058e-06
0.453525
1.73112e-06
0.453525
1.85766e-06
0.453524
1.93563e-06
0.453524
1.89434e-06
0.453524
1.78454e-06
0.453524
1.69836e-06
0.453524
1.67523e-06
0.453524
1.69005e-06
0.453524
1.69175e-06
0.453525
1.64167e-06
0.453525
1.54146e-06
0.453526
1.45089e-06
0.453526
1.44533e-06
0.453526
1.52655e-06
0.453527
1.6047e-06
0.453527
1.6004e-06
0.453527
1.54328e-06
0.453528
1.52896e-06
0.453528
1.59354e-06
0.453528
1.67969e-06
0.453528
1.72474e-06
0.453528
1.73051e-06
0.453528
1.73418e-06
0.453528
1.75635e-06
0.453528
1.79803e-06
0.453528
1.85077e-06
0.453528
1.88322e-06
0.453528
1.85251e-06
0.453528
1.77091e-06
0.453528
1.73598e-06
0.453528
1.83477e-06
0.453528
2.01288e-06
0.453528
2.09499e-06
0.453528
1.96709e-06
0.453528
1.70231e-06
0.453528
1.4831e-06
0.453529
1.42347e-06
0.453529
1.49082e-06
0.453529
1.58386e-06
0.453529
1.63148e-06
0.45353
1.61222e-06
0.45353
1.53103e-06
0.453531
1.41591e-06
0.453531
1.32557e-06
0.453532
1.31934e-06
0.453532
1.40803e-06
0.453533
1.53825e-06
0.453534
1.62626e-06
0.453534
1.61536e-06
0.453535
1.51365e-06
0.453535
1.3943e-06
0.453536
1.35368e-06
0.453537
1.44091e-06
0.453537
1.61298e-06
0.453537
1.76658e-06
0.453538
1.82587e-06
0.453538
1.80437e-06
0.453538
1.78056e-06
0.453539
1.81615e-06
0.453539
1.90101e-06
0.453539
1.97058e-06
0.453539
1.96918e-06
0.453539
1.89864e-06
0.453539
1.80881e-06
0.453539
1.74337e-06
0.45354
1.70005e-06
0.45354
1.64921e-06
0.45354
1.58783e-06
0.45354
1.55342e-06
0.453541
1.56727e-06
0.453541
1.57795e-06
0.453542
1.49347e-06
0.453542
1.28447e-06
0.453543
1.03611e-06
0.453544
8.7528e-07
0.453545
8.53982e-07
0.453545
9.18179e-07
0.453546
9.85466e-07
0.453547
1.03004e-06
0.453548
1.07655e-06
0.453549
1.13055e-06
0.453549
1.14437e-06
0.45355
1.06464e-06
0.453551
9.0614e-07
0.453551
7.66196e-07
0.453552
7.56268e-07
0.453553
9.00986e-07
0.453554
1.10108e-06
0.453555
1.20912e-06
0.453555
1.14818e-06
0.453556
9.60891e-07
0.453558
7.49301e-07
0.453559
5.70355e-07
0.45356
4.07667e-07
0.453562
2.41748e-07
0.453563
1.09467e-07
0.453564
8.07345e-08
0.453566
1.88128e-07
0.453568
3.5884e-07
0.453569
4.84713e-07
0.453571
5.15395e-07
0.453573
4.76077e-07
0.453575
4.19305e-07
0.453577
3.77747e-07
0.453578
3.67022e-07
0.45358
4.11218e-07
0.453582
5.46604e-07
0.453583
7.86644e-07
0.453584
1.09168e-06
0.453585
1.38502e-06
0.453586
1.59835e-06
0.453586
1.70786e-06
0.453586
1.73387e-06
0.453586
1.70962e-06
0.453586
1.65171e-06
0.453586
1.55523e-06
0.453585
1.41118e-06
0.453584
1.23366e-06
0.453584
1.0625e-06
0.453583
9.37882e-07
0.453582
8.64688e-07
0.453581
8.01481e-07
0.45358
6.94546e-07
0.453579
5.24932e-07
0.453578
3.31684e-07
0.453577
1.76274e-07
0.453576
8.20134e-08
0.453575
1.4246e-08
0.453574
-7.72242e-08
0.453573
-2.06248e-07
0.453572
-3.25962e-07
0.453571
-3.85465e-07
0.45357
-3.86868e-07
0.453568
-3.82547e-07
0.453567
-4.14762e-07
0.453566
-4.75771e-07
0.453565
-5.28852e-07
0.453564
-5.56477e-07
0.453563
-5.79426e-07
0.453561
-6.29564e-07
0.45356
-7.04422e-07
0.45356
-7.6034e-07
0.453559
-7.61377e-07
0.453558
-7.2577e-07
0.453557
-7.12334e-07
0.453556
-7.54052e-07
0.453556
-8.06242e-07
0.453555
-7.89641e-07
0.453555
-6.8699e-07
0.453554
-5.75918e-07
0.453554
-5.63077e-07
0.453553
-6.7776e-07
0.453553
-8.44013e-07
0.453553
-9.55321e-07
0.453553
-9.79469e-07
0.453553
-9.80217e-07
0.453553
-1.04389e-06
0.453553
-1.18921e-06
0.453553
-1.35199e-06
0.453554
-1.4524e-06
0.453554
-1.46517e-06
0.453554
-1.42925e-06
0.453555
-1.39797e-06
0.453555
-1.3873e-06
0.453555
-1.37594e-06
0.453556
-1.33949e-06
0.453556
-1.27728e-06
0.453556
-1.20274e-06
0.453557
-1.14069e-06
-1.05122e-06
0.453503
-5.07702e-07
0.453503
-3.83817e-07
0.453505
2.24411e-07
0.453506
8.64209e-07
0.453506
1.40929e-06
0.453505
1.36863e-06
0.453506
1.09278e-06
0.453507
1.35795e-06
0.453508
1.34291e-06
0.453509
1.09338e-06
0.45351
1.05425e-06
0.45351
1.12571e-06
0.453511
1.08579e-06
0.453513
9.63493e-07
0.453514
1.10047e-06
0.453514
1.41205e-06
0.453514
1.30859e-06
0.453515
1.29615e-06
0.453515
1.38681e-06
0.453516
1.3482e-06
0.453516
1.50134e-06
0.453516
1.66476e-06
0.453516
1.74664e-06
0.453516
1.86792e-06
0.453516
1.80341e-06
0.453516
1.55897e-06
0.453516
1.42241e-06
0.453516
1.3947e-06
0.453517
1.32025e-06
0.453517
1.32893e-06
0.453517
1.46916e-06
0.453518
1.65465e-06
0.453518
1.79402e-06
0.453518
1.72055e-06
0.453518
1.50423e-06
0.453518
1.37993e-06
0.453519
1.44988e-06
0.453519
1.56136e-06
0.45352
1.56516e-06
0.45352
1.54932e-06
0.453521
1.65596e-06
0.453521
1.79121e-06
0.45352
1.73615e-06
0.45352
1.49705e-06
0.453521
1.31212e-06
0.453521
1.31217e-06
0.453522
1.31447e-06
0.453522
1.15065e-06
0.453523
9.74551e-07
0.453523
1.07241e-06
0.453523
1.40222e-06
0.453524
1.58233e-06
0.453524
1.48558e-06
0.453524
1.39481e-06
0.453523
1.50718e-06
0.453523
1.65426e-06
0.453522
1.61612e-06
0.453522
1.49676e-06
0.453522
1.52215e-06
0.453521
1.67395e-06
0.453521
1.72429e-06
0.45352
1.58905e-06
0.45352
1.43958e-06
0.453519
1.44498e-06
0.453519
1.57837e-06
0.453518
1.68613e-06
0.453518
1.68017e-06
0.453517
1.59647e-06
0.453517
1.50543e-06
0.453516
1.44219e-06
0.453516
1.4132e-06
0.453516
1.42485e-06
0.453516
1.47326e-06
0.453515
1.51638e-06
0.453515
1.50011e-06
0.453515
1.42102e-06
0.453515
1.33175e-06
0.453516
1.27652e-06
0.453516
1.25534e-06
0.453517
1.25748e-06
0.453517
1.28542e-06
0.453518
1.32266e-06
0.453518
1.31799e-06
0.453519
1.24776e-06
0.45352
1.16204e-06
0.45352
1.13328e-06
0.453521
1.17807e-06
0.453521
1.24703e-06
0.453522
1.291e-06
0.453522
1.29657e-06
0.453522
1.26341e-06
0.453522
1.19974e-06
0.453523
1.14318e-06
0.453523
1.14433e-06
0.453523
1.20441e-06
0.453524
1.25946e-06
0.453524
1.25432e-06
0.453524
1.20568e-06
0.453525
1.16886e-06
0.453525
1.16625e-06
0.453526
1.18603e-06
0.453526
1.22815e-06
0.453527
1.30244e-06
0.453527
1.38581e-06
0.453528
1.42874e-06
0.453528
1.4186e-06
0.453528
1.40082e-06
0.453529
1.41883e-06
0.453529
1.46723e-06
0.453529
1.52761e-06
0.45353
1.61368e-06
0.45353
1.73484e-06
0.45353
1.83437e-06
0.45353
1.82489e-06
0.45353
1.70203e-06
0.45353
1.58301e-06
0.45353
1.5949e-06
0.45353
1.73974e-06
0.453529
1.89485e-06
0.453529
1.93433e-06
0.453529
1.83332e-06
0.453529
1.66153e-06
0.453529
1.51172e-06
0.453529
1.44453e-06
0.453528
1.46777e-06
0.453528
1.54317e-06
0.453528
1.61261e-06
0.453528
1.63288e-06
0.453528
1.59815e-06
0.453528
1.53324e-06
0.453528
1.47421e-06
0.453528
1.45656e-06
0.453528
1.50291e-06
0.453528
1.60093e-06
0.453528
1.69254e-06
0.453528
1.7045e-06
0.453528
1.60768e-06
0.453529
1.44753e-06
0.453529
1.30968e-06