/*--------------------------------*- C++ -*----------------------------------*\
| =========                 |                                                 |
| \\      /  F ield         | OpenFOAM: The Open Source CFD Toolbox           |
|  \\    /   O peration     | Version:  2406                                  |
|   \\  /    A nd           | Website:  www.openfoam.com                      |
|    \\/     M anipulation  |                                                 |
\*---------------------------------------------------------------------------*/
FoamFile
{
    version     2.0;
    format      ascii;
    arch        "LSB;label=32;scalar=64";
    class       volVectorField;
    location    "0.5";
    object      U;
}
// * * * * * * * * * * * * * * * * * * * * * * * * * * * * * * * * * * * * * //

dimensions      [0 1 -1 0 0 0 0];

internalField   nonuniform List<vector> 
6250
(
(44.2075 0.000152872 0)
(75.4213 0.000646499 0)
(65.1353 0.000962667 0)
(53.9704 0.000939513 0)
(53.1692 0.0008833 0)
(56.1727 0.000875147 0)
(57.5288 0.00092062 0)
(57.1528 0.000938074 0)
(56.6106 0.000840104 0)
(56.5143 0.000776533 0)
(56.6372 0.000785755 0)
(56.7121 0.00082022 0)
(56.7038 0.000856381 0)
(56.6779 0.000891314 0)
(56.6697 0.00094295 0)
(56.6735 0.00100492 0)
(56.6766 0.00104114 0)
(56.6759 0.00105155 0)
(56.674 0.0010461 0)
(56.6727 0.000996687 0)
(56.6723 0.000920964 0)
(56.6719 0.000884146 0)
(56.6713 0.000882195 0)
(56.6707 0.00087331 0)
(56.67 0.000851421 0)
(56.6693 0.00081913 0)
(56.6685 0.000765269 0)
(56.6679 0.000697122 0)
(56.6674 0.000648285 0)
(56.6667 0.000619369 0)
(56.6661 0.000591769 0)
(56.6657 0.000580833 0)
(56.6652 0.000611386 0)
(56.6647 0.000678889 0)
(56.6641 0.000755803 0)
(56.6636 0.000821075 0)
(56.6631 0.000863334 0)
(56.6624 0.000859945 0)
(56.6619 0.000793031 0)
(56.6614 0.000692608 0)
(56.661 0.000620967 0)
(56.6606 0.000609896 0)
(56.6601 0.000642171 0)
(56.6596 0.000692097 0)
(56.659 0.000746192 0)
(56.6584 0.000784117 0)
(56.6577 0.000778942 0)
(56.6571 0.000727202 0)
(56.6565 0.000661293 0)
(56.656 0.000624589 0)
(56.6555 0.000631447 0)
(56.6548 0.000654513 0)
(56.6542 0.00065796 0)
(56.6536 0.000640626 0)
(56.653 0.000632254 0)
(56.6524 0.00065056 0)
(56.6518 0.000684369 0)
(56.6513 0.000722669 0)
(56.6507 0.000776499 0)
(56.6501 0.0008584 0)
(56.6494 0.000955111 0)
(56.6486 0.00103855 0)
(56.6479 0.00109369 0)
(56.6471 0.001123 0)
(56.6463 0.00113189 0)
(56.6456 0.00112127 0)
(56.6449 0.00109399 0)
(56.6442 0.00106045 0)
(56.6435 0.0010336 0)
(56.6428 0.00101972 0)
(56.6421 0.00101549 0)
(56.6414 0.00101134 0)
(56.6408 0.000998553 0)
(56.6401 0.000977103 0)
(56.6395 0.000958882 0)
(56.6388 0.000960815 0)
(56.6382 0.000989344 0)
(56.6375 0.0010311 0)
(56.6368 0.00106173 0)
(56.6361 0.00106621 0)
(56.6354 0.00104985 0)
(56.6348 0.00102829 0)
(56.6341 0.00101094 0)
(56.6335 0.00099791 0)
(56.6328 0.000988463 0)
(56.6321 0.000983331 0)
(56.6315 0.000978849 0)
(56.6308 0.000966198 0)
(56.6302 0.000941187 0)
(56.6296 0.000911263 0)
(56.629 0.000885935 0)
(56.6285 0.000863155 0)
(56.6279 0.000830372 0)
(56.6273 0.000778147 0)
(56.6269 0.00071084 0)
(56.6264 0.00064282 0)
(56.626 0.000587005 0)
(56.6256 0.000548233 0)
(56.6252 0.000522412 0)
(56.6248 0.000499343 0)
(56.6245 0.000469368 0)
(56.6242 0.000430594 0)
(56.6239 0.000389514 0)
(56.6237 0.000353741 0)
(56.6235 0.000325805 0)
(56.6233 0.000303663 0)
(56.6231 0.000282563 0)
(56.6229 0.000254598 0)
(56.6228 0.000211386 0)
(56.6226 0.000153205 0)
(56.6225 9.50838e-05 0)
(56.6225 5.63411e-05 0)
(56.6224 4.02367e-05 0)
(56.6223 3.10829e-05 0)
(56.6222 1.50895e-05 0)
(56.6221 -3.15438e-06 0)
(56.622 -9.17971e-06 0)
(56.622 -2.57351e-07 0)
(56.6219 8.44852e-06 0)
(56.6219 2.97389e-06 0)
(56.6218 -1.03555e-05 0)
(56.6218 -1.71733e-05 0)
(56.6217 -1.43305e-05 0)
(56.6217 -1.2734e-05 0)
(56.6216 -2.4726e-05 0)
(56.6216 -4.83879e-05 0)
(56.6215 -7.03714e-05 0)
(56.6215 -8.26743e-05 0)
(56.6214 -9.0123e-05 0)
(56.6214 -0.000103635 0)
(56.6213 -0.000128098 0)
(56.6213 -0.000155937 0)
(56.6213 -0.000174712 0)
(56.6213 -0.000180594 0)
(56.6212 -0.000182026 0)
(56.6212 -0.000191834 0)
(56.6212 -0.000214859 0)
(56.6211 -0.000243329 0)
(56.6211 -0.00026621 0)
(56.6211 -0.000281765 0)
(56.6211 -0.000297371 0)
(56.6211 -0.000318309 0)
(56.621 -0.000339336 0)
(56.621 -0.000349843 0)
(56.621 -0.000347992 0)
(56.621 -0.000345064 0)
(56.6209 -0.000356389 0)
(56.6209 -0.000383131 0)
(56.6209 -0.000408722 0)
(56.621 -0.000415368 0)
(56.621 -0.000393647 0)
(56.621 -0.000357882 0)
(56.6209 -0.000333291 0)
(56.6209 -0.000333138 0)
(56.6208 -0.000347572 0)
(56.6209 -0.000355174 0)
(56.6209 -0.000349978 0)
(56.6209 -0.000341283 0)
(56.6209 -0.000338287 0)
(56.6209 -0.000337843 0)
(56.6209 -0.000331095 0)
(56.6209 -0.000317982 0)
(56.6209 -0.000311392 0)
(56.6208 -0.000324992 0)
(56.6208 -0.000356315 0)
(56.6209 -0.000387514 0)
(56.6209 -0.00040255 0)
(56.621 -0.00040178 0)
(56.621 -0.000401697 0)
(56.621 -0.000416401 0)
(56.621 -0.000441481 0)
(56.621 -0.000457493 0)
(56.621 -0.000455375 0)
(56.621 -0.000447529 0)
(56.621 -0.000454923 0)
(56.621 -0.000486861 0)
(56.6211 -0.000529465 0)
(56.6212 -0.000558204 0)
(56.6212 -0.000561341 0)
(56.6213 -0.00055102 0)
(56.6213 -0.000548685 0)
(56.6214 -0.000562926 0)
(56.6214 -0.000584527 0)
(56.6214 -0.000600579 0)
(56.6215 -0.000608417 0)
(56.6215 -0.000613718 0)
(56.6216 -0.000619112 0)
(56.6217 -0.000618926 0)
(56.6217 -0.000605464 0)
(56.6218 -0.000577486 0)
(56.6219 -0.000539853 0)
(56.6219 -0.000495764 0)
(56.622 -0.000441997 0)
(56.6221 -0.000374321 0)
(56.6221 -0.000295249 0)
(56.6222 -0.000214741 0)
(56.6222 -0.000143149 0)
(56.6223 -8.25006e-05 0)
(56.6224 -2.57926e-05 0)
(56.6225 3.54632e-05 0)
(56.6226 0.000102214 0)
(56.6227 0.000165466 0)
(56.6228 0.000212472 0)
(56.6229 0.000236542 0)
(56.623 0.000242055 0)
(56.6231 0.000240183 0)
(56.6233 0.000238979 0)
(56.6234 0.000236336 0)
(56.6236 0.000223111 0)
(56.6237 0.000194395 0)
(56.6239 0.000157208 0)
(56.6241 0.000126971 0)
(56.6244 0.000115076 0)
(56.6245 0.000118952 0)
(56.6247 0.00012514 0)
(56.6249 0.0001223 0)
(56.625 0.000110515 0)
(56.6251 9.94231e-05 0)
(56.6253 9.92527e-05 0)
(56.6254 0.000112818 0)
(56.6254 0.000135452 0)
(56.6255 0.000161287 0)
(56.6255 0.000186456 0)
(56.6255 0.000205015 0)
(56.6255 0.000206434 0)
(56.6254 0.000182887 0)
(56.6254 0.000143049 0)
(56.6254 0.000108394 0)
(56.6254 9.41491e-05 0)
(56.6254 9.67618e-05 0)
(56.6254 9.88715e-05 0)
(56.6253 8.86349e-05 0)
(56.6253 7.34731e-05 0)
(56.6252 7.12815e-05 0)
(56.6252 8.72675e-05 0)
(56.6251 0.000105189 0)
(56.625 0.00010157 0)
(56.6249 7.07122e-05 0)
(56.6249 3.46469e-05 0)
(56.6249 1.97532e-05 0)
(56.6249 3.05655e-05 0)
(56.6249 4.5027e-05 0)
(56.6248 3.96246e-05 0)
(56.6248 1.05333e-05 0)
(56.6248 -2.83899e-05 0)
(56.6249 -5.65161e-05 0)
(56.6249 -6.02436e-05 0)
(56.625 -4.36517e-05 0)
(56.625 -2.37481e-05 0)
(56.625 -1.31193e-05 0)
(44.2075 9.20932e-05 0)
(75.4234 0.000463642 0)
(65.1391 0.000763158 0)
(53.976 0.000736894 0)
(53.176 0.000640175 0)
(56.1809 0.000580707 0)
(57.5378 0.000541981 0)
(57.1638 0.000535356 0)
(56.6222 0.000452555 0)
(56.5268 0.00037847 0)
(56.6506 0.000349013 0)
(56.7263 0.000376373 0)
(56.7189 0.000437911 0)
(56.6941 0.00049151 0)
(56.6872 0.00053184 0)
(56.6925 0.000567823 0)
(56.697 0.000570171 0)
(56.6977 0.000550856 0)
(56.6971 0.000560472 0)
(56.697 0.000564807 0)
(56.6972 0.000507757 0)
(56.6977 0.000445611 0)
(56.6979 0.000426257 0)
(56.6981 0.000426201 0)
(56.6984 0.000456462 0)
(56.6989 0.000510618 0)
(56.6993 0.000546334 0)
(56.6996 0.000549822 0)
(56.6999 0.000551626 0)
(56.7002 0.000549316 0)
(56.7004 0.00050973 0)
(56.7005 0.000441601 0)
(56.7007 0.000386942 0)
(56.7009 0.000357164 0)
(56.7011 0.000321609 0)
(56.7013 0.000276002 0)
(56.7017 0.000260933 0)
(56.702 0.000284362 0)
(56.7022 0.000300569 0)
(56.7024 0.000284309 0)
(56.7025 0.000264931 0)
(56.7026 0.000273646 0)
(56.7028 0.000300046 0)
(56.703 0.000322905 0)
(56.7034 0.000351172 0)
(56.7038 0.000405302 0)
(56.7043 0.000474291 0)
(56.7045 0.000519038 0)
(56.7046 0.000519475 0)
(56.7047 0.000504084 0)
(56.7049 0.000514815 0)
(56.7052 0.000547352 0)
(56.7056 0.000556066 0)
(56.7059 0.000523577 0)
(56.7061 0.00048743 0)
(56.7064 0.000479714 0)
(56.7066 0.000480109 0)
(56.7068 0.000455575 0)
(56.7071 0.000414726 0)
(56.7074 0.000390678 0)
(56.7079 0.000390158 0)
(56.7084 0.000391867 0)
(56.7089 0.0003855 0)
(56.7094 0.000381317 0)
(56.7099 0.000383523 0)
(56.7103 0.000379811 0)
(56.7108 0.000362097 0)
(56.7111 0.00034073 0)
(56.7115 0.000330635 0)
(56.7119 0.000333322 0)
(56.7123 0.000340577 0)
(56.7127 0.000347789 0)
(56.7131 0.000354622 0)
(56.7135 0.00035549 0)
(56.7138 0.000341182 0)
(56.7141 0.000314006 0)
(56.7145 0.000293197 0)
(56.715 0.000295681 0)
(56.7154 0.000314806 0)
(56.7159 0.000327254 0)
(56.7163 0.000321374 0)
(56.7167 0.000310032 0)
(56.7171 0.000311868 0)
(56.7175 0.000327977 0)
(56.7178 0.000342982 0)
(56.7182 0.000343662 0)
(56.7186 0.000329952 0)
(56.719 0.000310593 0)
(56.7193 0.000295357 0)
(56.7196 0.000290872 0)
(56.7199 0.000297234 0)
(56.7202 0.000307098 0)
(56.7206 0.000312443 0)
(56.7209 0.000312635 0)
(56.7211 0.000312453 0)
(56.7212 0.000311861 0)
(56.7213 0.000303605 0)
(56.7214 0.000284186 0)
(56.7214 0.000260906 0)
(56.7215 0.000242542 0)
(56.7215 0.00022683 0)
(56.7215 0.000203435 0)
(56.7215 0.000168339 0)
(56.7214 0.000130086 0)
(56.7213 0.000102302 0)
(56.7212 9.39722e-05 0)
(56.7211 0.000105064 0)
(56.7211 0.000125625 0)
(56.721 0.00013922 0)
(56.7208 0.000135122 0)
(56.7206 0.000121906 0)
(56.7204 0.0001226 0)
(56.7202 0.000148612 0)
(56.7199 0.000182744 0)
(56.7197 0.000195598 0)
(56.7194 0.000176949 0)
(56.7192 0.000144834 0)
(56.719 0.000122956 0)
(56.7188 0.000116304 0)
(56.7185 0.000114309 0)
(56.7183 0.000111815 0)
(56.718 0.000113385 0)
(56.7178 0.000122531 0)
(56.7176 0.000134318 0)
(56.7174 0.000140689 0)
(56.7171 0.000142554 0)
(56.7169 0.000149554 0)
(56.7167 0.000167241 0)
(56.7165 0.000189941 0)
(56.7162 0.000205914 0)
(56.716 0.000208799 0)
(56.7157 0.000205185 0)
(56.7155 0.000209556 0)
(56.7152 0.000230821 0)
(56.715 0.000263649 0)
(56.7148 0.000291721 0)
(56.7145 0.000302027 0)
(56.7142 0.00029777 0)
(56.714 0.000295596 0)
(56.7137 0.000309264 0)
(56.7134 0.000337416 0)
(56.7132 0.000366761 0)
(56.7128 0.000385801 0)
(56.7125 0.000393998 0)
(56.7123 0.000397947 0)
(56.712 0.000401882 0)
(56.7117 0.000402376 0)
(56.7114 0.000395253 0)
(56.7111 0.000383705 0)
(56.7107 0.000377453 0)
(56.7104 0.000387827 0)
(56.7101 0.000409354 0)
(56.7098 0.000421181 0)
(56.7095 0.000406336 0)
(56.7092 0.000369662 0)
(56.7089 0.00033429 0)
(56.7086 0.000316377 0)
(56.7083 0.000314218 0)
(56.708 0.000316363 0)
(56.7077 0.000318329 0)
(56.7074 0.00032625 0)
(56.7072 0.00034435 0)
(56.7069 0.000363436 0)
(56.7067 0.000366577 0)
(56.7064 0.000348349 0)
(56.7061 0.000324067 0)
(56.7058 0.0003184 0)
(56.7055 0.000343904 0)
(56.7052 0.000388028 0)
(56.7049 0.000424022 0)
(56.7046 0.000435369 0)
(56.7043 0.000429766 0)
(56.704 0.000425934 0)
(56.7038 0.000432815 0)
(56.7035 0.000441587 0)
(56.7032 0.000436977 0)
(56.7029 0.000418681 0)
(56.7026 0.000405876 0)
(56.7023 0.000418197 0)
(56.702 0.000453963 0)
(56.7018 0.000491931 0)
(56.7015 0.000512896 0)
(56.7012 0.000515417 0)
(56.701 0.000510527 0)
(56.7007 0.000505952 0)
(56.7005 0.000499753 0)
(56.7002 0.000487696 0)
(56.7 0.00047155 0)
(56.6998 0.000456559 0)
(56.6995 0.000442542 0)
(56.6993 0.000420715 0)
(56.6991 0.000381209 0)
(56.6988 0.00032259 0)
(56.6986 0.000252179 0)
(56.6984 0.000178109 0)
(56.6982 0.00010223 0)
(56.6981 2.05503e-05 0)
(56.6979 -6.9246e-05 0)
(56.6977 -0.000161941 0)
(56.6975 -0.000246231 0)
(56.6974 -0.000312349 0)
(56.6973 -0.00035955 0)
(56.6972 -0.000396387 0)
(56.6971 -0.000433739 0)
(56.697 -0.000475678 0)
(56.6969 -0.000515713 0)
(56.6968 -0.000542584 0)
(56.6967 -0.000550873 0)
(56.6966 -0.000546615 0)
(56.6965 -0.000541831 0)
(56.6964 -0.00054262 0)
(56.6963 -0.000542142 0)
(56.6961 -0.000527418 0)
(56.6961 -0.000493366 0)
(56.696 -0.000449174 0)
(56.6959 -0.000409862 0)
(56.6958 -0.000382549 0)
(56.6957 -0.000361451 0)
(56.6956 -0.000335862 0)
(56.6956 -0.000302256 0)
(56.6955 -0.000266647 0)
(56.6955 -0.000235228 0)
(56.6955 -0.000206808 0)
(56.6955 -0.000177243 0)
(56.6956 -0.000147726 0)
(56.6956 -0.000126386 0)
(56.6957 -0.000118266 0)
(56.6957 -0.000113476 0)
(56.6957 -9.61475e-05 0)
(56.6958 -5.98976e-05 0)
(56.6959 -1.69902e-05 0)
(56.696 1.12432e-05 0)
(56.6961 1.58073e-05 0)
(56.6962 1.00151e-05 0)
(56.6963 1.49657e-05 0)
(56.6965 3.69844e-05 0)
(56.6967 5.99285e-05 0)
(56.6968 6.12394e-05 0)
(56.6969 3.6537e-05 0)
(56.697 2.85307e-06 0)
(56.6971 -1.74531e-05 0)
(56.6972 -1.63115e-05 0)
(56.6973 -3.20445e-06 0)
(56.6974 4.73665e-06 0)
(56.6974 -2.20636e-06 0)
(56.6974 -1.73448e-05 0)
(56.6975 -2.59586e-05 0)
(56.6975 -2.18143e-05 0)
(56.6975 -9.92594e-06 0)
(56.6976 -5.28514e-06 0)
(44.2077 -4.00309e-05 0)
(75.4222 -0.000118803 0)
(65.1376 -0.000136109 0)
(53.9739 -6.83171e-05 0)
(53.1732 7.17918e-06 0)
(56.1778 7.32247e-05 0)
(57.534 6.97148e-05 0)
(57.1593 0.000101864 0)
(56.6175 0.000186086 0)
(56.5217 0.000232299 0)
(56.6451 0.000222709 0)
(56.7206 0.000187546 0)
(56.7131 0.00014621 0)
(56.688 0.000130757 0)
(56.6806 0.000116647 0)
(56.6853 9.35495e-05 0)
(56.6893 7.45418e-05 0)
(56.6894 5.27301e-05 0)
(56.6884 6.32351e-05 0)
(56.6883 0.0001349 0)
(56.6887 0.000204798 0)
(56.689 0.000222805 0)
(56.6891 0.000221412 0)
(56.6891 0.000203811 0)
(56.6891 0.000179787 0)
(56.6892 0.000174302 0)
(56.6892 0.00016409 0)
(56.6893 0.000125331 0)
(56.6894 0.000100037 0)
(56.6895 0.000113466 0)
(56.6896 0.000145275 0)
(56.6896 0.000177901 0)
(56.6897 0.000215323 0)
(56.6898 0.000266682 0)
(56.6898 0.000299991 0)
(56.6897 0.000278555 0)
(56.6897 0.000234361 0)
(56.6897 0.000226082 0)
(56.6897 0.00025872 0)
(56.6897 0.000292425 0)
(56.6897 0.000305852 0)
(56.6897 0.000311491 0)
(56.6896 0.000310746 0)
(56.6896 0.000277914 0)
(56.6895 0.000211282 0)
(56.6895 0.000160827 0)
(56.6896 0.000170863 0)
(56.6897 0.000220382 0)
(56.6899 0.00024697 0)
(56.69 0.00022036 0)
(56.69 0.000171573 0)
(56.6901 0.000144978 0)
(56.6903 0.00014503 0)
(56.6904 0.000149499 0)
(56.6904 0.000155748 0)
(56.6905 0.000179482 0)
(56.6907 0.000215114 0)
(56.6908 0.000232682 0)
(56.6908 0.000218482 0)
(56.6908 0.000192533 0)
(56.6907 0.000179649 0)
(56.6907 0.000181543 0)
(56.6906 0.000187513 0)
(56.6905 0.000194688 0)
(56.6905 0.00020534 0)
(56.6905 0.000217623 0)
(56.6905 0.000229573 0)
(56.6904 0.00024277 0)
(56.6904 0.000254083 0)
(56.6903 0.000252155 0)
(56.6902 0.000231465 0)
(56.6902 0.000206897 0)
(56.6901 0.000202497 0)
(56.6901 0.000222755 0)
(56.6901 0.000243462 0)
(56.6901 0.000238298 0)
(56.69 0.000211312 0)
(56.6899 0.000192348 0)
(56.6899 0.000199901 0)
(56.6899 0.000219437 0)
(56.6899 0.000225115 0)
(56.6898 0.000214888 0)
(56.6898 0.000210681 0)
(56.6898 0.000225263 0)
(56.6898 0.000243393 0)
(56.6898 0.000242763 0)
(56.6898 0.000223327 0)
(56.6899 0.000206253 0)
(56.6899 0.000206918 0)
(56.6898 0.000217812 0)
(56.6898 0.000220213 0)
(56.6898 0.000206402 0)
(56.6899 0.000188177 0)
(56.6899 0.000186613 0)
(56.6899 0.000213288 0)
(56.69 0.000258782 0)
(56.6901 0.000298931 0)
(56.6901 0.00031566 0)
(56.6902 0.000313845 0)
(56.6902 0.000315061 0)
(56.6903 0.000333712 0)
(56.6904 0.000363074 0)
(56.6904 0.000386021 0)
(56.6904 0.000393944 0)
(56.6904 0.000390803 0)
(56.6904 0.000383835 0)
(56.6904 0.000378114 0)
(56.6904 0.000378261 0)
(56.6905 0.000386934 0)
(56.6905 0.000399609 0)
(56.6905 0.000407533 0)
(56.6905 0.000410037 0)
(56.6906 0.000418312 0)
(56.6906 0.000439568 0)
(56.6907 0.000461351 0)
(56.6907 0.00046198 0)
(56.6908 0.000437309 0)
(56.6908 0.000409555 0)
(56.6908 0.000405091 0)
(56.6908 0.000426086 0)
(56.6907 0.000448702 0)
(56.6907 0.000450417 0)
(56.6907 0.000430298 0)
(56.6906 0.000404141 0)
(56.6906 0.000386969 0)
(56.6906 0.000381016 0)
(56.6906 0.000378816 0)
(56.6906 0.000373468 0)
(56.6905 0.000363418 0)
(56.6905 0.000350527 0)
(56.6905 0.000335967 0)
(56.6905 0.00031874 0)
(56.6905 0.000299416 0)
(56.6905 0.000283627 0)
(56.6905 0.000278015 0)
(56.6906 0.000281962 0)
(56.6906 0.000284937 0)
(56.6907 0.000275326 0)
(56.6907 0.000253741 0)
(56.6907 0.000235412 0)
(56.6908 0.000235753 0)
(56.691 0.000253583 0)
(56.6911 0.000270023 0)
(56.6912 0.000265486 0)
(56.6914 0.000238974 0)
(56.6915 0.000209519 0)
(56.6917 0.00019943 0)
(56.6919 0.000213684 0)
(56.6921 0.000237524 0)
(56.6922 0.000253946 0)
(56.6924 0.00025656 0)
(56.6925 0.000253593 0)
(56.6926 0.000253414 0)
(56.6928 0.000253197 0)
(56.6929 0.000244137 0)
(56.693 0.000225749 0)
(56.693 0.000212596 0)
(56.6931 0.000218011 0)
(56.6932 0.000237926 0)
(56.6932 0.00025365 0)
(56.6933 0.000251166 0)
(56.6933 0.000233941 0)
(56.6934 0.000216186 0)
(56.6935 0.000206017 0)
(56.6936 0.000197251 0)
(56.6936 0.000179719 0)
(56.6937 0.000155171 0)
(56.6938 0.000139199 0)
(56.6939 0.000146283 0)
(56.694 0.000171249 0)
(56.6941 0.000188808 0)
(56.6943 0.000174428 0)
(56.6944 0.000129634 0)
(56.6945 8.09391e-05 0)
(56.6946 5.38493e-05 0)
(56.6947 5.06474e-05 0)
(56.6949 5.25489e-05 0)
(56.6949 4.25792e-05 0)
(56.695 2.1804e-05 0)
(56.6951 3.18878e-06 0)
(56.6952 -7.49341e-06 0)
(56.6953 -1.94243e-05 0)
(56.6954 -4.50295e-05 0)
(56.6955 -8.45917e-05 0)
(56.6956 -0.000125227 0)
(56.6957 -0.000153402 0)
(56.6958 -0.000164843 0)
(56.6959 -0.00016218 0)
(56.696 -0.000146481 0)
(56.6962 -0.000115581 0)
(56.6963 -7.01763e-05 0)
(56.6965 -1.84107e-05 0)
(56.6967 2.82811e-05 0)
(56.6968 6.476e-05 0)
(56.6969 9.64832e-05 0)
(56.697 0.000133903 0)
(56.6971 0.000182789 0)
(56.6972 0.000238796 0)
(56.6972 0.000291227 0)
(56.6972 0.000331988 0)
(56.6972 0.000361448 0)
(56.6971 0.000386388 0)
(56.697 0.000412904 0)
(56.6969 0.000439253 0)
(56.6968 0.000456089 0)
(56.6967 0.000454475 0)
(56.6965 0.000434845 0)
(56.6963 0.000408426 0)
(56.6962 0.000388496 0)
(56.696 0.00037905 0)
(56.6959 0.000371951 0)
(56.6958 0.000356676 0)
(56.6956 0.000332573 0)
(56.6955 0.000310259 0)
(56.6954 0.000300361 0)
(56.6953 0.000301615 0)
(56.6952 0.00030279 0)
(56.6951 0.000294135 0)
(56.6951 0.000274779 0)
(56.695 0.0002499 0)
(56.6949 0.00022255 0)
(56.6949 0.000190631 0)
(56.6948 0.000152973 0)
(56.6947 0.000116168 0)
(56.6947 9.12252e-05 0)
(56.6947 8.16358e-05 0)
(56.6947 7.31784e-05 0)
(56.6946 4.79064e-05 0)
(56.6946 4.38006e-06 0)
(56.6946 -3.97838e-05 0)
(56.6946 -6.5048e-05 0)
(56.6946 -7.15121e-05 0)
(56.6946 -8.05257e-05 0)
(56.6946 -0.000112021 0)
(56.6945 -0.000161058 0)
(56.6945 -0.000200605 0)
(56.6946 -0.000207373 0)
(56.6946 -0.000185787 0)
(56.6947 -0.000164981 0)
(56.6947 -0.000168752 0)
(56.6947 -0.000192748 0)
(56.6947 -0.000209961 0)
(56.6947 -0.000199484 0)
(56.6947 -0.000165164 0)
(56.6948 -0.000126804 0)
(56.6948 -0.000101758 0)
(56.6948 -9.41768e-05 0)
(56.6948 -9.55583e-05 0)
(56.6949 -9.60198e-05 0)
(56.6949 -8.73682e-05 0)
(44.2076 2.7038e-05 0)
(75.4224 0.000102845 0)
(65.1371 0.000151267 0)
(53.9732 0.000166649 0)
(53.1728 0.000195468 0)
(56.1775 0.000285089 0)
(57.534 0.000369106 0)
(57.1593 0.000384391 0)
(56.6178 0.000361274 0)
(56.5223 0.000353792 0)
(56.646 0.000378137 0)
(56.7214 0.00038761 0)
(56.7135 0.000354116 0)
(56.6882 0.000328692 0)
(56.681 0.000328311 0)
(56.6855 0.000337681 0)
(56.6895 0.000372395 0)
(56.6895 0.000381311 0)
(56.6883 0.00034011 0)
(56.6877 0.000312311 0)
(56.6878 0.000329197 0)
(56.688 0.00033975 0)
(56.6881 0.000330953 0)
(56.6883 0.000324697 0)
(56.6881 0.00030373 0)
(56.6882 0.000294371 0)
(56.6883 0.000319873 0)
(56.6881 0.000339476 0)
(56.688 0.000343561 0)
(56.688 0.000348173 0)
(56.688 0.000354947 0)
(56.6879 0.000351033 0)
(56.6879 0.000331652 0)
(56.6879 0.000331338 0)
(56.688 0.000367165 0)
(56.6881 0.000399659 0)
(56.6881 0.000395415 0)
(56.6882 0.000364391 0)
(56.6882 0.000333694 0)
(56.6884 0.0003166 0)
(56.6884 0.000308656 0)
(56.6885 0.000307561 0)
(56.6887 0.000318141 0)
(56.6888 0.000332065 0)
(56.6888 0.000326773 0)
(56.6887 0.000295892 0)
(56.6887 0.000264323 0)
(56.6887 0.000260071 0)
(56.6888 0.000278968 0)
(56.6889 0.000287734 0)
(56.6889 0.00026804 0)
(56.6889 0.000243498 0)
(56.6889 0.000245277 0)
(56.6889 0.000268079 0)
(56.6889 0.000284 0)
(56.6888 0.000286889 0)
(56.6888 0.00029379 0)
(56.6889 0.000311158 0)
(56.6889 0.000328041 0)
(56.689 0.000341864 0)
(56.689 0.000364584 0)
(56.6891 0.000398582 0)
(56.6892 0.000425265 0)
(56.6894 0.00042794 0)
(56.6895 0.000414169 0)
(56.6896 0.000406049 0)
(56.6898 0.000415521 0)
(56.6899 0.000436295 0)
(56.6901 0.000455185 0)
(56.6902 0.000463936 0)
(56.6904 0.000460546 0)
(56.6905 0.000446364 0)
(56.6905 0.000425898 0)
(56.6906 0.000407157 0)
(56.6907 0.000396531 0)
(56.6908 0.000392394 0)
(56.6909 0.000386942 0)
(56.6909 0.00037622 0)
(56.691 0.000364349 0)
(56.6911 0.000355813 0)
(56.6912 0.000348491 0)
(56.6912 0.000338453 0)
(56.6913 0.000327951 0)
(56.6914 0.000322315 0)
(56.6914 0.00032109 0)
(56.6915 0.000319032 0)
(56.6916 0.000315927 0)
(56.6916 0.0003184 0)
(56.6916 0.000329215 0)
(56.6917 0.000340475 0)
(56.6917 0.000340988 0)
(56.6917 0.000327791 0)
(56.6917 0.000307089 0)
(56.6917 0.000286755 0)
(56.6917 0.000272139 0)
(56.6917 0.000265999 0)
(56.6918 0.000266359 0)
(56.6918 0.000264736 0)
(56.6918 0.000252426 0)
(56.6919 0.000230538 0)
(56.6919 0.000209958 0)
(56.6919 0.000200002 0)
(56.692 0.000200467 0)
(56.692 0.000205386 0)
(56.6921 0.000209264 0)
(56.6921 0.000207 0)
(56.6922 0.000193736 0)
(56.6922 0.000171417 0)
(56.6922 0.000152694 0)
(56.6923 0.000150574 0)
(56.6923 0.000163149 0)
(56.6923 0.000174446 0)
(56.6923 0.000172512 0)
(56.6923 0.000161418 0)
(56.6924 0.0001525 0)
(56.6925 0.000149621 0)
(56.6925 0.000149332 0)
(56.6926 0.000152456 0)
(56.6926 0.000166331 0)
(56.6927 0.000192795 0)
(56.6928 0.000219765 0)
(56.6928 0.000230852 0)
(56.6929 0.000222052 0)
(56.693 0.000205782 0)
(56.693 0.000198744 0)
(56.6931 0.000207449 0)
(56.6931 0.000225008 0)
(56.6932 0.000239398 0)
(56.6932 0.000243455 0)
(56.6932 0.000239112 0)
(56.6932 0.000233949 0)
(56.6933 0.000233594 0)
(56.6933 0.000237182 0)
(56.6933 0.000240018 0)
(56.6933 0.00023967 0)
(56.6932 0.000238029 0)
(56.6932 0.000236635 0)
(56.6932 0.0002317 0)
(56.6932 0.000216622 0)
(56.6931 0.000190149 0)
(56.6931 0.000160034 0)
(56.693 0.000136849 0)
(56.693 0.000124107 0)
(56.6929 0.000115079 0)
(56.6929 0.000100012 0)
(56.6928 7.7299e-05 0)
(56.6927 5.74269e-05 0)
(56.6926 5.45596e-05 0)
(56.6925 7.3321e-05 0)
(56.6924 0.000103599 0)
(56.6923 0.000129121 0)
(56.6923 0.000142762 0)
(56.6922 0.000150178 0)
(56.6922 0.000159542 0)
(56.6922 0.000171549 0)
(56.6922 0.000181767 0)
(56.6922 0.000190598 0)
(56.6922 0.000204729 0)
(56.6922 0.000227609 0)
(56.6922 0.000250575 0)
(56.6922 0.000257487 0)
(56.6922 0.000240058 0)
(56.6922 0.000207376 0)
(56.6922 0.000179126 0)
(56.6922 0.000168902 0)
(56.6922 0.000174169 0)
(56.6921 0.000181649 0)
(56.692 0.000181929 0)
(56.6919 0.000178635 0)
(56.6919 0.000182475 0)
(56.6918 0.000196555 0)
(56.6918 0.000210012 0)
(56.6917 0.000208718 0)
(56.6916 0.000192011 0)
(56.6915 0.000176578 0)
(56.6915 0.00018178 0)
(56.6914 0.000211463 0)
(56.6913 0.000251965 0)
(56.6912 0.000286399 0)
(56.6911 0.000308801 0)
(56.691 0.000322823 0)
(56.6909 0.00033101 0)
(56.6908 0.000329719 0)
(56.6906 0.00031504 0)
(56.6904 0.000289913 0)
(56.6902 0.000262581 0)
(56.69 0.000238457 0)
(56.6898 0.000215549 0)
(56.6895 0.000188687 0)
(56.6893 0.000155905 0)
(56.689 0.000120012 0)
(56.6888 8.40325e-05 0)
(56.6886 4.68815e-05 0)
(56.6884 4.59719e-06 0)
(56.6882 -4.43635e-05 0)
(56.688 -9.54307e-05 0)
(56.6879 -0.000139498 0)
(56.6879 -0.00016884 0)
(56.6879 -0.000182516 0)
(56.6879 -0.00018703 0)
(56.688 -0.000191322 0)
(56.6881 -0.000199917 0)
(56.6882 -0.000210688 0)
(56.6883 -0.00021779 0)
(56.6885 -0.000218425 0)
(56.6887 -0.000216982 0)
(56.6889 -0.000221696 0)
(56.6891 -0.000236345 0)
(56.6894 -0.000255181 0)
(56.6896 -0.00026736 0)
(56.6898 -0.000266885 0)
(56.69 -0.000257906 0)
(56.6903 -0.000249625 0)
(56.6905 -0.000246376 0)
(56.6907 -0.000243972 0)
(56.691 -0.000235999 0)
(56.6912 -0.00022157 0)
(56.6915 -0.00020578 0)
(56.6917 -0.000192829 0)
(56.692 -0.000180557 0)
(56.6922 -0.000163526 0)
(56.6925 -0.000141147 0)
(56.6927 -0.00012015 0)
(56.6929 -0.000107267 0)
(56.6931 -0.000101088 0)
(56.6933 -9.18941e-05 0)
(56.6935 -7.19314e-05 0)
(56.6937 -4.69668e-05 0)
(56.6938 -3.02736e-05 0)
(56.6939 -2.86503e-05 0)
(56.694 -3.35443e-05 0)
(56.6941 -2.87991e-05 0)
(56.6942 -8.39265e-06 0)
(56.6943 1.51716e-05 0)
(56.6943 2.23097e-05 0)
(56.6944 6.09444e-06 0)
(56.6944 -2.01469e-05 0)
(56.6944 -3.51555e-05 0)
(56.6945 -2.97838e-05 0)
(56.6945 -1.38251e-05 0)
(56.6946 -5.28512e-06 0)
(56.6946 -1.39987e-05 0)
(56.6946 -3.44127e-05 0)
(56.6946 -5.22746e-05 0)
(56.6947 -5.84129e-05 0)
(56.6947 -5.49519e-05 0)
(56.6947 -4.94156e-05 0)
(56.6948 -4.67496e-05 0)
(56.6948 -4.7173e-05 0)
(56.6948 -5.16507e-05 0)
(44.2076 1.8028e-05 0)
(75.423 0.000138224 0)
(65.1381 0.000237974 0)
(53.974 0.000217295 0)
(53.173 0.000130638 0)
(56.1777 6.0824e-05 0)
(57.5342 9.29265e-05 0)
(57.1594 0.000105655 0)
(56.6174 6.37477e-05 0)
(56.5215 4.95582e-05 0)
(56.6449 6.93246e-05 0)
(56.7205 0.00011703 0)
(56.7129 0.000162243 0)
(56.6876 0.000178615 0)
(56.6803 0.000186827 0)
(56.6848 0.00018555 0)
(56.689 0.000196893 0)
(56.6893 0.000216233 0)
(56.6881 0.000202539 0)
(56.6877 0.000174315 0)
(56.6879 0.00016054 0)
(56.6881 0.000149047 0)
(56.688 0.000140144 0)
(56.688 0.00015601 0)
(56.688 0.00016738 0)
(56.6879 0.000167565 0)
(56.6881 0.000201899 0)
(56.6882 0.000256838 0)
(56.6883 0.000281332 0)
(56.6884 0.000272579 0)
(56.6885 0.000260353 0)
(56.6886 0.000245454 0)
(56.6886 0.000199274 0)
(56.6886 0.000127932 0)
(56.6887 8.40968e-05 0)
(56.6887 9.36198e-05 0)
(56.6887 0.0001203 0)
(56.6887 0.000121384 0)
(56.6887 0.000106347 0)
(56.6886 0.000107149 0)
(56.6886 0.000116029 0)
(56.6885 0.000106564 0)
(56.6885 9.3101e-05 0)
(56.6886 0.000111635 0)
(56.6886 0.000157666 0)
(56.6887 0.000190165 0)
(56.6887 0.000189408 0)
(56.6887 0.000178641 0)
(56.6887 0.000187767 0)
(56.6887 0.000214343 0)
(56.6887 0.000232904 0)
(56.6887 0.000234065 0)
(56.6887 0.000233054 0)
(56.6888 0.000238207 0)
(56.6889 0.000235497 0)
(56.689 0.000214039 0)
(56.6891 0.000185292 0)
(56.6892 0.00016479 0)
(56.6893 0.000150291 0)
(56.6894 0.000130997 0)
(56.6894 0.000105506 0)
(56.6895 7.82104e-05 0)
(56.6896 4.76421e-05 0)
(56.6897 1.26003e-05 0)
(56.6898 -1.63586e-05 0)
(56.6898 -2.6561e-05 0)
(56.6899 -2.20775e-05 0)
(56.6899 -2.01542e-05 0)
(56.69 -2.76033e-05 0)
(56.6901 -3.07158e-05 0)
(56.6901 -1.35826e-05 0)
(56.6902 1.92348e-05 0)
(56.6903 4.67294e-05 0)
(56.6904 5.69713e-05 0)
(56.6904 6.01876e-05 0)
(56.6905 7.22053e-05 0)
(56.6905 9.1202e-05 0)
(56.6906 0.000100378 0)
(56.6906 9.24656e-05 0)
(56.6906 8.11835e-05 0)
(56.6906 8.40498e-05 0)
(56.6906 0.000100876 0)
(56.6905 0.000116144 0)
(56.6905 0.000118999 0)
(56.6905 0.000113627 0)
(56.6905 0.000111183 0)
(56.6905 0.000117776 0)
(56.6905 0.000130952 0)
(56.6905 0.000143708 0)
(56.6906 0.000150074 0)
(56.6906 0.000150088 0)
(56.6907 0.000150691 0)
(56.6907 0.000158726 0)
(56.6908 0.000172147 0)
(56.6908 0.000181334 0)
(56.6909 0.000180909 0)
(56.6909 0.000176754 0)
(56.6909 0.000178111 0)
(56.691 0.000185884 0)
(56.691 0.000193158 0)
(56.691 0.000195416 0)
(56.691 0.00019527 0)
(56.691 0.000197548 0)
(56.691 0.000204578 0)
(56.691 0.000216668 0)
(56.691 0.000232054 0)
(56.691 0.00024482 0)
(56.691 0.000248557 0)
(56.691 0.000246211 0)
(56.691 0.000251779 0)
(56.691 0.000275372 0)
(56.691 0.000307399 0)
(56.691 0.000324283 0)
(56.691 0.000312151 0)
(56.691 0.000280967 0)
(56.691 0.000253184 0)
(56.6911 0.000242232 0)
(56.6911 0.000245352 0)
(56.6911 0.000253321 0)
(56.6911 0.00026029 0)
(56.6912 0.000263722 0)
(56.6913 0.000261289 0)
(56.6913 0.00025274 0)
(56.6914 0.00024342 0)
(56.6915 0.000242084 0)
(56.6915 0.000253301 0)
(56.6916 0.000272299 0)
(56.6917 0.000287574 0)
(56.6917 0.000289145 0)
(56.6918 0.000276221 0)
(56.6919 0.000258604 0)
(56.6919 0.000249779 0)
(56.692 0.000256208 0)
(56.6921 0.000272166 0)
(56.6922 0.000285618 0)
(56.6922 0.000289902 0)
(56.6922 0.000289392 0)
(56.6923 0.0002936 0)
(56.6923 0.000306789 0)
(56.6924 0.000324359 0)
(56.6924 0.000338801 0)
(56.6924 0.000347579 0)
(56.6924 0.000354565 0)
(56.6924 0.000364255 0)
(56.6924 0.000375632 0)
(56.6925 0.000382903 0)
(56.6925 0.000382519 0)
(56.6925 0.000378283 0)
(56.6925 0.000377446 0)
(56.6925 0.000380846 0)
(56.6926 0.000378811 0)
(56.6927 0.000359769 0)
(56.6927 0.000322973 0)
(56.6928 0.000280906 0)
(56.6929 0.000248038 0)
(56.693 0.000228806 0)
(56.6931 0.000218069 0)
(56.6932 0.000211256 0)
(56.6933 0.000210253 0)
(56.6934 0.00021813 0)
(56.6935 0.000230759 0)
(56.6936 0.000237239 0)
(56.6937 0.000230179 0)
(56.6938 0.000214978 0)
(56.6939 0.000207528 0)
(56.694 0.000220908 0)
(56.6941 0.000252903 0)
(56.6942 0.000286565 0)
(56.6943 0.000304146 0)
(56.6944 0.000301262 0)
(56.6945 0.000287401 0)
(56.6946 0.000273204 0)
(56.6948 0.000259202 0)
(56.695 0.000238699 0)
(56.6951 0.000210663 0)
(56.6953 0.000186288 0)
(56.6955 0.000179612 0)
(56.6957 0.00019282 0)
(56.6959 0.00021422 0)
(56.6961 0.000229583 0)
(56.6963 0.000234277 0)
(56.6965 0.000233439 0)
(56.6967 0.000233443 0)
(56.697 0.000236344 0)
(56.6972 0.000242541 0)
(56.6974 0.000255403 0)
(56.6976 0.000280094 0)
(56.6978 0.000317588 0)
(56.698 0.000360935 0)
(56.6981 0.000399207 0)
(56.6982 0.000424696 0)
(56.6982 0.000436376 0)
(56.6983 0.000437089 0)
(56.6983 0.000428645 0)
(56.6983 0.000410063 0)
(56.6982 0.000380103 0)
(56.6982 0.000340562 0)
(56.6981 0.000297281 0)
(56.698 0.000257249 0)
(56.6979 0.000223908 0)
(56.6978 0.000195034 0)
(56.6977 0.000165062 0)
(56.6976 0.000129697 0)
(56.6974 9.03226e-05 0)
(56.6973 5.31951e-05 0)
(56.6972 2.37485e-05 0)
(56.6971 1.33197e-06 0)
(56.697 -2.0266e-05 0)
(56.6968 -4.66837e-05 0)
(56.6967 -7.67524e-05 0)
(56.6965 -0.000103322 0)
(56.6964 -0.00012088 0)
(56.6963 -0.000131684 0)
(56.6961 -0.000143623 0)
(56.696 -0.000161858 0)