/*--------------------------------*- C++ -*----------------------------------*\
| =========                 |                                                 |
| \\      /  F ield         | OpenFOAM: The Open Source CFD Toolbox           |
|  \\    /   O peration     | Version:  2406                                  |
|   \\  /    A nd           | Website:  www.openfoam.com                      |
|    \\/     M anipulation  |                                                 |
\*---------------------------------------------------------------------------*/
FoamFile
{
    version     2.0;
    format      ascii;
    arch        "LSB;label=32;scalar=64";
    class       surfaceScalarField;
    location    "1.7";
    object      alphaPhi0.air;
}
// * * * * * * * * * * * * * * * * * * * * * * * * * * * * * * * * * * * * * //

dimensions      [0 3 -1 0 0 0 0];

oriented        oriented;

internalField   nonuniform List<scalar> 
12225
(
0.511071
1.62876e-06
0.511064
6.46807e-06
0.511056
8.10746e-06
0.51105
6.04164e-06
0.511045
4.43742e-06
0.511041
4.25389e-06
0.511036
5.22884e-06
0.51103
5.59212e-06
0.511026
4.77879e-06
0.511021
4.35448e-06
0.511016
4.87315e-06
0.511011
5.20402e-06
0.511006
5.21194e-06
0.511001
5.17617e-06
0.510996
5.25759e-06
0.51099
5.57889e-06
0.510984
5.73209e-06
0.510979
5.64704e-06
0.510973
5.37293e-06
0.510968
5.04462e-06
0.510963
5.04174e-06
0.510958
5.27023e-06
0.510952
5.40595e-06
0.510947
5.51576e-06
0.510941
5.61334e-06
0.510936
5.76803e-06
0.51093
6.00887e-06
0.510924
6.04664e-06
0.510918
5.88471e-06
0.510912
5.6111e-06
0.510907
5.28601e-06
0.510901
5.24619e-06
0.510896
5.41603e-06
0.510891
5.51503e-06
0.510885
5.38769e-06
0.51088
4.88581e-06
0.510876
4.55464e-06
0.510871
4.93524e-06
0.510865
5.49169e-06
0.51086
5.57429e-06
0.510854
5.38489e-06
0.510849
5.3982e-06
0.510844
5.40827e-06
0.510838
5.15593e-06
0.510833
5.03183e-06
0.510828
5.10254e-06
0.510823
5.22092e-06
0.510817
5.58025e-06
0.510812
5.89353e-06
0.510806
5.88696e-06
0.5108
5.89633e-06
0.510794
5.94519e-06
0.510788
5.84539e-06
0.510782
5.64917e-06
0.510777
5.51162e-06
0.510771
5.56503e-06
0.510766
5.61578e-06
0.51076
5.54947e-06
0.510755
5.57409e-06
0.510749
5.58606e-06
0.510743
5.45035e-06
0.510738
5.48925e-06
0.510732
5.62297e-06
0.510727
5.38704e-06
0.510722
5.12618e-06
0.510717
5.28253e-06
0.510711
5.48166e-06
0.510706
5.43868e-06
0.5107
5.39044e-06
0.510695
5.47767e-06
0.510689
5.53816e-06
0.510684
5.57453e-06
0.510678
5.68754e-06
0.510672
5.6289e-06
0.510667
5.26861e-06
0.510662
4.95419e-06
0.510657
4.99423e-06
0.510652
5.32183e-06
0.510646
5.73498e-06
0.51064
5.96729e-06
0.510634
5.83813e-06
0.510629
5.56291e-06
0.510623
5.38049e-06
0.510618
5.32288e-06
0.510613
5.30373e-06
0.510608
5.17905e-06
0.510602
5.15168e-06
0.510597
5.37293e-06
0.510591
5.60894e-06
0.510586
5.76787e-06
0.51058
5.86041e-06
0.510574
5.77095e-06
0.510569
5.41887e-06
0.510563
5.08207e-06
0.510558
5.09714e-06
0.510553
5.29644e-06
0.510548
5.45249e-06
0.510542
5.64271e-06
0.510536
5.84364e-06
0.51053
5.84652e-06
0.510525
5.6745e-06
0.510519
5.55585e-06
0.510514
5.45595e-06
0.510508
5.40274e-06
0.510503
5.42972e-06
0.510497
5.4247e-06
0.510492
5.53627e-06
0.510486
5.74489e-06
0.51048
5.7836e-06
0.510475
5.73224e-06
0.510469
5.68397e-06
0.510463
5.44536e-06
0.510458
5.08087e-06
0.510453
4.96536e-06
0.510448
5.06206e-06
0.510443
5.11559e-06
0.510438
5.22845e-06
0.510433
5.44384e-06
0.510427
5.58867e-06
0.510421
5.64879e-06
0.510416
5.66509e-06
0.51041
5.63153e-06
0.510404
5.61316e-06
0.510399
5.48108e-06
0.510394
5.08544e-06
0.510389
4.77288e-06
0.510384
4.72986e-06
0.510379
4.92994e-06
0.510374
5.40171e-06
0.510368
5.75597e-06
0.510362
5.84615e-06
0.510356
5.92689e-06
0.510351
5.93278e-06
0.510345
5.74052e-06
0.510339
5.44953e-06
0.510334
5.2305e-06
0.510329
5.07754e-06
0.510324
5.03842e-06
0.510319
5.24116e-06
0.510313
5.52264e-06
0.510308
5.72319e-06
0.510302
5.80472e-06
0.510296
5.74622e-06
0.51029
5.64991e-06
0.510285
5.69091e-06
0.510279
5.81624e-06
0.510273
5.82543e-06
0.510267
5.87384e-06
0.510261
5.96239e-06
0.510255
5.84271e-06
0.51025
5.62281e-06
0.510244
5.46965e-06
0.510239
5.37324e-06
0.510234
5.23708e-06
0.510228
5.22872e-06
0.510223
5.5011e-06
0.510217
5.64609e-06
0.510212
5.53703e-06
0.510206
5.41446e-06
0.510201
5.32053e-06
0.510196
5.24529e-06
0.510191
5.18311e-06
0.510185
5.23039e-06
0.51018
5.35576e-06
0.510175
5.38918e-06
0.510169
5.37257e-06
0.510164
5.372e-06
0.510158
5.36674e-06
0.510153
5.35319e-06
0.510148
5.37099e-06
0.510142
5.41009e-06
0.510137
5.40672e-06
0.510132
5.37565e-06
0.510126
5.36642e-06
0.510121
5.36988e-06
0.510115
5.33696e-06
0.51011
5.35167e-06
0.510105
5.48767e-06
0.510099
5.55493e-06
0.510094
5.48321e-06
0.510088
5.37122e-06
0.510083
5.23098e-06
0.510078
5.13887e-06
0.510073
5.19177e-06
0.510067
5.30526e-06
0.510062
5.36206e-06
0.510057
5.46014e-06
0.510051
5.66691e-06
0.510045
5.88769e-06
0.510039
6.02056e-06
0.510033
5.92993e-06
0.510027
5.68917e-06
0.510022
5.48861e-06
0.510017
5.29028e-06
0.510011
5.18728e-06
0.510006
5.2687e-06
0.510001
5.37835e-06
0.509995
5.55595e-06
0.509989
5.82234e-06
0.509983
5.88258e-06
0.509978
5.6839e-06
0.509972
5.47233e-06
0.509967
5.28122e-06
0.509962
5.14702e-06
0.509957
5.16515e-06
0.509951
5.23415e-06
0.509946
5.36603e-06
0.50994
5.61243e-06
0.509935
5.76254e-06
0.509929
5.66707e-06
0.509924
5.48077e-06
0.509918
5.34117e-06
0.509913
5.18409e-06
0.509908
4.99275e-06
0.509903
4.84131e-06
0.509898
4.80879e-06
0.509893
4.92237e-06
0.509888
5.0654e-06
0.509883
5.17552e-06
0.509878
5.34743e-06
0.509872
5.58504e-06
0.509867
5.70326e-06
0.509861
5.63216e-06
0.509855
5.50111e-06
0.50985
5.30449e-06
0.509845
5.07485e-06
0.50984
4.98051e-06
0.509835
5.03754e-06
0.50983
5.16564e-06
0.509825
5.32741e-06
0.509819
5.59037e-06
0.509813
5.8816e-06
0.509807
5.90837e-06
0.509802
5.6514e-06
0.509796
5.35378e-06
0.509791
5.24163e-06
0.509786
5.34325e-06
0.50978
5.44623e-06
0.509775
5.46476e-06
0.509769
5.43553e-06
0.509764
5.3537e-06
0.509759
5.336e-06
0.509753
5.419e-06
0.509748
5.44435e-06
0.509742
5.38429e-06
0.509737
5.29841e-06
0.509732
5.23106e-06
0.509727
5.13932e-06
0.509721
5.59205e-06
5.33054e-06
0.511076
-3.02678e-08
0.511082
8.06871e-07
0.511088
1.91904e-06
0.511092
2.13295e-06
0.511095
1.76773e-06
0.511097
1.82222e-06
0.5111
2.49101e-06
0.511103
2.91975e-06
0.511105
2.91182e-06
0.511106
2.8122e-06
0.511108
2.6004e-06
0.511111
2.37817e-06
0.511114
2.22963e-06
0.511117
2.22571e-06
0.51112
2.22816e-06
0.511124
2.09606e-06
0.511127
2.26305e-06
0.51113
2.5941e-06
0.511133
2.84833e-06
0.511135
2.92884e-06
0.511137
2.828e-06
0.51114
2.67451e-06
0.511143
2.25089e-06
0.511146
2.01188e-06
0.511149
2.53684e-06
0.511152
2.92635e-06
0.511156
2.66335e-06
0.511159
2.33327e-06
0.511163
2.12942e-06
0.511167
2.09664e-06
0.51117
2.23284e-06
0.511172
2.39567e-06
0.511175
2.63303e-06
0.511178
2.58469e-06
0.511181
2.4774e-06
0.511183
2.76411e-06
0.511185
2.74706e-06
0.511188
2.43477e-06
0.511191
2.49795e-06
0.511193
2.75409e-06
0.511196
2.68004e-06
0.511199
2.22251e-06
0.511203
2.03803e-06
0.511205
2.35873e-06
0.511208
2.25613e-06
0.511211
1.85539e-06
0.511215
2.00621e-06
0.511218
2.25845e-06
0.511222
2.25123e-06
0.511225
2.39839e-06
0.511228
2.59332e-06
0.511232
2.53483e-06
0.511235
2.39381e-06
0.511238
2.47392e-06
0.511241
2.76084e-06
0.511244
2.96994e-06
0.511247
2.84659e-06
0.51125
2.49787e-06
0.511253
2.35372e-06
0.511256
2.44061e-06
0.511259
2.49322e-06
0.511262
2.48441e-06
0.511265
2.37803e-06
0.511268
2.34441e-06
0.511271
2.60528e-06
0.511273
2.78955e-06
0.511276
2.68689e-06
0.511279
2.51831e-06
0.511282
2.24913e-06
0.511286
2.04672e-06
0.511289
2.15394e-06
0.511292
2.28796e-06
0.511296
2.2479e-06
0.511299
2.08369e-06
0.511302
2.01085e-06
0.511305
2.23553e-06
0.511308
2.50529e-06
0.51131
2.64836e-06
0.511313
2.70907e-06
0.511317
2.7374e-06
0.51132
2.87111e-06
0.511322
3.00333e-06
0.511325
2.87995e-06
0.511327
2.57274e-06
0.51133
2.1954e-06
0.511334
1.95786e-06
0.511337
2.20349e-06
0.511339
2.65289e-06
0.511342
2.68004e-06
0.511345
2.54775e-06
0.511349
2.65813e-06
0.511352
2.76354e-06
0.511354
2.76412e-06
0.511357
2.68004e-06
0.511359
2.51082e-06
0.511362
2.45718e-06
0.511365
2.57549e-06
0.511368
2.81554e-06
0.511371
3.04174e-06
0.511374
2.90124e-06
0.511377
2.29183e-06
0.511381
1.72684e-06
0.511385
1.67942e-06
0.511388
2.12996e-06
0.511391
2.77063e-06
0.511393
3.07353e-06
0.511396
2.85472e-06
0.511399
2.50789e-06
0.511402
2.35861e-06
0.511406
2.36185e-06
0.511409
2.28359e-06
0.511412
2.18831e-06
0.511415
2.27886e-06
0.511418
2.48622e-06
0.51142
2.76465e-06
0.511422
3.04367e-06
0.511424
2.94897e-06
0.511427
2.51808e-06
0.51143
2.25162e-06
0.511434
2.23174e-06
0.511437
2.24589e-06
0.511441
2.42169e-06
0.511443
2.6425e-06
0.511446
2.73975e-06
0.511449
2.80887e-06
0.51145
2.87392e-06
0.511452
2.91544e-06
0.511454
2.83484e-06
0.511457
2.69239e-06
0.51146
2.69997e-06
0.511463
2.78195e-06
0.511466
2.75949e-06
0.51147
2.6778e-06
0.511473
2.69397e-06
0.511475
2.67169e-06
0.511478
2.52881e-06
0.511481
2.49986e-06
0.511483
2.51582e-06
0.511486
2.49553e-06
0.511489
2.5372e-06
0.511492
2.59811e-06
0.511495
2.6301e-06
0.511498
2.59982e-06
0.511502
2.46439e-06
0.511505
2.24969e-06
0.511509
2.14727e-06
0.511512
2.25203e-06
0.511516
2.37747e-06
0.511519
2.46485e-06
0.511523
2.56482e-06
0.511526
2.57579e-06
0.511529
2.39967e-06
0.511532
2.34667e-06
0.511534
2.52324e-06
0.511537
2.601e-06
0.51154
2.72765e-06
0.511542
2.95245e-06
0.511545
2.95522e-06
0.511548
2.74381e-06
0.511551
2.49305e-06
0.511554
2.29582e-06
0.511557
2.09523e-06
0.51156
1.96874e-06
0.511563
2.10246e-06
0.511566
2.28624e-06
0.511569
2.38353e-06
0.511572
2.54851e-06
0.511575
2.64171e-06
0.511578
2.45762e-06
0.511581
2.22486e-06
0.511584
2.17113e-06
0.511587
2.21169e-06
0.51159
2.33616e-06
0.511593
2.56748e-06
0.511596
2.74793e-06
0.511598
2.7128e-06
0.511601
2.47679e-06
0.511604
2.22336e-06
0.511608
2.08854e-06
0.511611
2.0918e-06
0.511614
2.16761e-06
0.511617
2.27964e-06
0.51162
2.44381e-06
0.511623
2.5614e-06
0.511625
2.61404e-06
0.511628
2.5924e-06
0.511631
2.41369e-06
0.511635
2.23712e-06
0.511638
2.18289e-06
0.511642
2.27711e-06
0.511646
2.54226e-06
0.511649
2.72525e-06
0.511651
2.71371e-06
0.511654
2.64248e-06
0.511657
2.51929e-06
0.511659
2.43642e-06
0.511662
2.58302e-06
0.511665
2.8321e-06
0.511668
2.93253e-06
0.511671
2.87957e-06
0.511674
2.72282e-06
0.511677
2.50061e-06
0.51168
2.36802e-06
0.511682
2.39018e-06
0.511685
2.44583e-06
0.511688
2.43796e-06
0.511691
2.4786e-06
0.511694
2.68941e-06
0.511697
2.90837e-06
0.511699
2.91717e-06
0.511702
2.76202e-06
0.511705
2.62118e-06
0.511707
2.52835e-06
0.51171
2.41839e-06
0.511713
2.31449e-06
0.511715
2.31393e-06
0.511718
2.39653e-06
0.51172
2.37271e-06
0.511723
2.22981e-06
0.511726
2.20674e-06
0.51173
2.39912e-06
0.511733
2.65222e-06
0.511735
2.77135e-06
0.511738
2.67472e-06
0.511741
2.46254e-06
0.511744
2.3009e-06
0.511747
2.31108e-06
0.511749
2.47637e-06
0.511752
2.68942e-06
0.511754
2.81022e-06
0.511757
2.82196e-06
0.51176
2.85532e-06
0.511763
2.8276e-06
0.511766
2.65272e-06
0.511769
2.51544e-06
0.511772
2.54704e-06
0.511774
2.71367e-06
0.511777
2.84873e-06
0.511779
2.79011e-06
0.511782
2.61493e-06
0.511785
2.50197e-06
0.511788
2.49264e-06
0.511791
2.47101e-06
0.511794
2.43711e-06
0.511797
2.55316e-06
0.511799
2.7362e-06
0.511802
2.74637e-06
0.511804
2.59572e-06
0.511807
2.58866e-06
2.93933e-06
0.511075
2.08652e-07
0.511074
1.0711e-06
0.511075
1.54747e-06
0.511075
1.46066e-06
0.511075
1.80319e-06
0.511075
2.26766e-06
0.511075
2.13044e-06
0.511076
1.97781e-06
0.511077
2.15943e-06
0.511078
2.16966e-06
0.511078
1.99238e-06
0.511079
2.02605e-06
0.511079
2.21039e-06
0.511079
2.28389e-06
0.511079
2.21e-06
0.511079
2.01289e-06
0.511079
1.85209e-06
0.51108
2.01668e-06
0.51108
2.59203e-06
0.51108
2.71827e-06
0.511081
2.16645e-06
0.511081
2.07932e-06
0.511081
2.49805e-06
0.511081
2.50204e-06
0.511081
2.31721e-06
0.511082
2.24134e-06
0.511082
2.23966e-06
0.511082
2.27081e-06
0.511082
2.07878e-06
0.511082
2.10474e-06
0.511082
2.33281e-06
0.511082
2.14096e-06
0.511083
2.0449e-06
0.511083
2.37441e-06
0.511083
2.41782e-06
0.511084
2.1516e-06
0.511084
2.08378e-06
0.511084
2.44152e-06
0.511084
2.71095e-06
0.511084
2.43538e-06
0.511085
2.16964e-06
0.511085
2.10393e-06
0.511085
1.82399e-06
0.511086
1.53405e-06
0.511087
1.69482e-06
0.511087
2.00495e-06
0.511087
1.91007e-06
0.511087
1.82407e-06
0.511087
2.17286e-06
0.511087
2.33594e-06
0.511088
2.08885e-06
0.511088
2.02613e-06
0.511088
2.21242e-06
0.511088
2.38831e-06
0.511089
2.42375e-06
0.51109
2.2912e-06
0.51109
2.25117e-06
0.51109
2.45243e-06
0.51109
2.62067e-06
0.51109
2.49387e-06
0.51109
2.21558e-06
0.511091
2.00169e-06
0.511091
1.92635e-06
0.511091
2.01781e-06
0.511092
2.21977e-06
0.511092
2.3146e-06
0.511093
2.17081e-06
0.511093
2.03117e-06
0.511093
2.09957e-06
0.511093
2.20228e-06
0.511093
2.20641e-06
0.511093
2.04136e-06
0.511094
1.81096e-06
0.511094
1.83038e-06
0.511094
2.0657e-06
0.511094
2.1607e-06
0.511095
2.08591e-06
0.511095
2.22495e-06
0.511095
2.62225e-06
0.511095
2.80935e-06
0.511095
2.73449e-06
0.511095
2.73637e-06
0.511096
2.67842e-06
0.511096
2.36199e-06
0.511096
2.20421e-06
0.511095
2.25135e-06
0.511096
2.04353e-06
0.511096
1.94341e-06
0.511097
2.3006e-06
0.511097
2.53047e-06
0.511097
2.48725e-06
0.511097
2.52075e-06
0.511097
2.52886e-06
0.511098
2.40216e-06
0.511098
2.34038e-06
0.511098
2.35127e-06
0.511098
2.2847e-06
0.511099
2.2246e-06
0.5111
2.31382e-06
0.5111
2.40618e-06
0.5111
2.2421e-06
0.5111
2.03372e-06
0.511099
2.03195e-06
0.5111
1.99782e-06
0.5111
1.96691e-06
0.511101
2.09194e-06
0.511102
2.15839e-06
0.511102
2.14264e-06
0.511103
2.16944e-06
0.511103
2.19945e-06
0.511103
2.22012e-06
0.511103
2.24091e-06
0.511103
2.2547e-06
0.511103
2.20326e-06
0.511104
2.08949e-06
0.511105
2.10075e-06
0.511105
2.38694e-06
0.511105
2.68581e-06
0.511105
2.69141e-06
0.511104
2.55085e-06
0.511104
2.43323e-06
0.511104
2.31523e-06
0.511105
2.23445e-06
0.511105
2.19637e-06
0.511106
2.24127e-06
0.511106
2.49796e-06
0.511106
2.7935e-06
0.511106
2.77178e-06
0.511106
2.61156e-06
0.511107
2.61643e-06
0.511107
2.67874e-06
0.511107
2.80084e-06
0.511106
2.96218e-06
0.511106
2.97997e-06
0.511106
2.7717e-06
0.511106
2.41721e-06
0.511106
2.16605e-06
0.511107
2.04358e-06
0.511107
1.95962e-06
0.511108
1.89453e-06
0.511109
1.88899e-06
0.511109
2.06179e-06
0.51111
2.30766e-06
0.51111
2.39859e-06
0.51111
2.28214e-06
0.51111
2.09352e-06
0.51111
1.94665e-06
0.51111
1.86575e-06
0.511111
1.91354e-06
0.511112
2.06249e-06
0.511112
2.31612e-06
0.511112
2.51217e-06
0.511112
2.48221e-06
0.511112
2.42128e-06
0.511112
2.28001e-06
0.511113
2.02848e-06
0.511114
1.95537e-06
0.511115
2.08734e-06
0.511115
2.30711e-06
0.511115
2.52105e-06
0.511115
2.60819e-06
0.511114
2.42107e-06
0.511114
2.02152e-06
0.511115
1.73364e-06
0.511115
1.68581e-06
0.511116
1.89111e-06
0.511116
2.29469e-06
0.511116
2.61392e-06
0.511116
2.64935e-06
0.511116
2.4167e-06
0.511116
2.04387e-06
0.511116
1.68815e-06
0.511117
1.54839e-06
0.511118
1.73082e-06
0.511119
2.12916e-06
0.511119
2.55739e-06
0.511118
2.76341e-06
0.511118
2.57306e-06
0.511118
2.11658e-06
0.511118
1.6697e-06
0.511119
1.45102e-06
0.51112
1.55359e-06
0.51112
1.84908e-06
0.511121
2.08425e-06
0.511121
2.23239e-06
0.511122
2.40415e-06
0.511121
2.5422e-06
0.511121
2.59435e-06
0.511121
2.57006e-06
0.51112
2.51097e-06
0.51112
2.52477e-06
0.511121
2.58954e-06
0.511121
2.61395e-06
0.511121
2.53778e-06
0.511121
2.31134e-06
0.511121
2.08134e-06
0.511122
2.03094e-06
0.511123
2.07909e-06
0.511123
2.18207e-06
0.511124
2.39823e-06
0.511124
2.56328e-06
0.511124
2.56965e-06
0.511124
2.50448e-06
0.511124
2.35902e-06
0.511124
2.20324e-06
0.511124
2.15467e-06
0.511125
2.18341e-06
0.511125
2.2667e-06
0.511126
2.4142e-06
0.511126
2.56984e-06
0.511126
2.55748e-06
0.511126
2.35921e-06
0.511127
2.17061e-06
0.511127
1.97231e-06
0.511128
1.72143e-06
0.511129
1.61017e-06
0.511129
1.72013e-06
0.51113
1.9479e-06
0.51113
2.13196e-06
0.51113
2.16721e-06
0.51113
2.17163e-06
0.51113
2.24095e-06
0.511131
2.18788e-06
0.511132
1.96399e-06
0.511132
1.8453e-06
0.511133
1.93026e-06
0.511133
2.06983e-06
0.511133
2.21875e-06
0.511133
2.47041e-06
0.511133
2.77538e-06
0.511133
2.93735e-06
0.511133
2.93647e-06
0.511133
2.84046e-06
0.511133
2.67927e-06
0.511133
2.53005e-06
0.511133
2.40412e-06
0.511134
2.29661e-06
0.511134
2.20711e-06
0.511135
2.08999e-06
0.511136
2.06791e-06
0.511136
2.24758e-06
0.511136
2.48709e-06
0.511136
2.61239e-06
0.511136
2.61162e-06
0.511136
2.57898e-06
0.511136
2.51699e-06
0.511136
2.44385e-06
0.511136
2.4069e-06
0.511136
2.35767e-06
2.42479e-06
0.511075
5.02536e-08
0.511076
3.79619e-07
0.511077
8.17379e-07
0.511077
1.15443e-06
0.511077
1.59571e-06
0.511078
2.12256e-06
0.511078
2.00121e-06
0.511078
1.76054e-06
0.511078
1.99466e-06
0.511078
2.09525e-06
0.511078
1.95537e-06
0.511078
1.98614e-06
0.511078
2.04581e-06
0.511079
1.98179e-06
0.511079
2.22261e-06
0.511078
2.37017e-06
0.511078
2.20519e-06
0.511078
2.20154e-06
0.511078
2.00529e-06
0.511079
1.77104e-06
0.51108
1.97837e-06
0.511079
2.20426e-06
0.51108
2.22527e-06
0.51108
2.12306e-06
0.51108
1.98918e-06
0.511081
2.01298e-06
0.511081
1.84355e-06
0.511082
1.40401e-06
0.511083
1.29687e-06
0.511083
1.74545e-06
0.511083
2.33184e-06
0.511083
2.57804e-06
0.511082
2.29463e-06
0.511083
1.93347e-06
0.511083
1.73915e-06
0.511084
1.81256e-06
0.511084
1.99667e-06
0.511084
1.89615e-06
0.511085
1.84326e-06
0.511086
1.9375e-06
0.511086
1.8752e-06
0.511086
1.80919e-06
0.511086
1.73945e-06
0.511086
1.64351e-06
0.511086
1.53706e-06
0.511087
1.42515e-06
0.511087
1.56474e-06
0.511088
1.71496e-06
0.511088
1.5409e-06
0.511089
1.48775e-06
0.511089
1.78615e-06
0.511089
2.08013e-06
0.511089
2.12663e-06
0.51109
2.18894e-06
0.51109
2.35996e-06
0.51109
2.34728e-06
0.51109
2.18831e-06
0.51109
2.01238e-06
0.511091
1.89711e-06
0.511091
2.08527e-06
0.511091
2.24696e-06
0.511091
2.13584e-06
0.511091
2.1768e-06
0.511091
2.2425e-06
0.511091
1.9723e-06
0.511091
1.75018e-06
0.511092
1.80762e-06
0.511092
1.84318e-06
0.511092
1.66296e-06
0.511093
1.40831e-06
0.511094
1.48815e-06
0.511094
1.66605e-06
0.511094
1.63869e-06
0.511095
1.60385e-06
0.511095
1.60713e-06
0.511096
1.73605e-06
0.511096
2.06729e-06
0.511095
2.27206e-06
0.511096
2.35348e-06
0.511096
2.49086e-06
0.511096
2.6285e-06
0.511096
2.59736e-06
0.511097
2.22398e-06
0.511097
1.79598e-06
0.511098
1.83475e-06
0.511098
2.14519e-06
0.511098
2.23345e-06
0.511097
2.23887e-06
0.511097
2.37121e-06
0.511097
2.45446e-06
0.511097
2.46228e-06
0.511097
2.38121e-06
0.511098
2.19182e-06
0.511098
2.10548e-06
0.511098
2.17534e-06
0.511098
2.39491e-06
0.511098
2.68716e-06
0.511097
2.56592e-06
0.511098
1.95968e-06
0.511099
1.53473e-06
0.511099
1.53748e-06
0.5111
1.63292e-06
0.5111
1.80722e-06
0.5111
2.11826e-06
0.5111
2.30819e-06
0.5111
2.17908e-06
0.5111
1.91163e-06
0.5111
1.70359e-06
0.511101
1.51278e-06
0.511102
1.45263e-06
0.511102
1.63525e-06
0.511102
1.92368e-06
0.511103
2.22327e-06
0.511102
2.40667e-06
0.511102
2.38521e-06
0.511102
2.18251e-06
0.511102
1.84304e-06
0.511104
1.64066e-06
0.511104
1.81706e-06
0.511105
2.15019e-06
0.511105
2.33052e-06
0.511105
2.42099e-06
0.511105
2.48406e-06
0.511104
2.4256e-06
0.511104
2.27215e-06
0.511105
2.12928e-06
0.511105
2.18532e-06
0.511106
2.4197e-06
0.511106
2.51774e-06
0.511106
2.45425e-06
0.511106
2.41449e-06
0.511106
2.45739e-06
0.511107
2.48767e-06
0.511107
2.48143e-06
0.511108
2.49041e-06
0.511108
2.42546e-06
0.511108
2.34716e-06
0.511107
2.29112e-06
0.511107
2.11554e-06
0.511107
1.90843e-06
0.511107
1.72658e-06
0.511108
1.51598e-06
0.511109
1.39032e-06
0.51111
1.55861e-06
0.51111
1.93023e-06
0.51111
2.21773e-06
0.511109
2.33212e-06
0.511109
2.25987e-06
0.511109
1.99391e-06
0.511109
1.68628e-06
0.51111
1.60686e-06
0.511111
1.76055e-06
0.511111
2.02783e-06
0.511111
2.43957e-06
0.511111
2.65313e-06
0.51111
2.43728e-06
0.51111
2.10523e-06
0.511111
1.79434e-06
0.511111
1.54029e-06
0.511112
1.44191e-06
0.511114
1.52765e-06
0.511114
1.80499e-06
0.511114
2.04489e-06
0.511114
2.04932e-06
0.511114
1.8599e-06
0.511114
1.59556e-06
0.511115
1.45943e-06
0.511116
1.59537e-06
0.511117
1.87569e-06
0.511117
2.06285e-06
0.511117
2.11447e-06
0.511116
2.08064e-06
0.511116
1.95304e-06
0.511116
1.7894e-06
0.511116
1.70806e-06
0.511117
1.71514e-06
0.511118
1.72182e-06
0.511119
1.75479e-06
0.511119
1.78705e-06
0.511119
1.74113e-06
0.511119
1.75051e-06
0.511119
1.87392e-06
0.511119
1.92637e-06
0.511119
1.81708e-06
0.511119
1.72008e-06
0.51112
1.87633e-06
0.51112
2.20317e-06
0.51112
2.4439e-06
0.511121
2.49462e-06
0.511121
2.36073e-06
0.511121
2.1515e-06
0.511122
1.98543e-06
0.511122
1.95014e-06
0.511123
2.08189e-06
0.511123
2.24468e-06
0.511123
2.31721e-06
0.511122
2.3009e-06
0.511122
2.20101e-06
0.511122
2.00893e-06
0.511123
1.80625e-06
0.511124
1.77227e-06
0.511124
1.91674e-06
0.511125
2.07873e-06
0.511125
2.18336e-06
0.511125
2.30477e-06
0.511125
2.44691e-06
0.511124
2.43083e-06
0.511124
2.24941e-06
0.511125
2.06967e-06
0.511125
2.01595e-06
0.511126
2.08115e-06
0.511126
2.13815e-06
0.511126
2.12169e-06
0.511126
2.02583e-06
0.511126
1.84441e-06
0.511126
1.61415e-06
0.511126
1.41202e-06
0.511127
1.41897e-06
0.511127
1.69338e-06
0.511127
1.99158e-06
0.511127
2.13522e-06
0.511127
2.13282e-06
0.511128
1.99349e-06
0.511128
1.81078e-06
0.511128
1.76393e-06
0.511128
1.91404e-06
0.511128
2.14521e-06
0.511128
2.29172e-06
0.511128
2.41759e-06
0.511128
2.63215e-06
0.511128
2.68801e-06
0.511129
2.43252e-06
0.511129
2.16568e-06
0.51113
2.17047e-06
0.51113
2.32481e-06
0.51113
2.32942e-06
0.51113
2.1751e-06
0.51113
2.05622e-06
0.511131
1.97445e-06
0.511131
1.86203e-06
0.511131
1.75895e-06
0.511132
1.79114e-06
0.511133
2.01469e-06
0.511133
2.28234e-06
0.511133
2.48906e-06
0.511133
2.56948e-06
0.511133
2.47903e-06
0.511133
2.4432e-06
0.511133
2.48162e-06
2.41242e-06
0.511075
2.33718e-07
0.511075
5.72101e-07
0.511075
7.61286e-07
0.511075
1.01827e-06
0.511075
1.40638e-06
0.511076
1.60489e-06
0.511076
1.66521e-06
0.511076
1.66387e-06
0.511077
1.59281e-06
0.511077
1.62987e-06
0.511077
1.81217e-06
0.511077
1.91832e-06
0.511077
1.84035e-06
0.511078
1.63337e-06
0.511079
1.4983e-06
0.511079
1.67329e-06
0.51108
1.68635e-06
0.51108
1.46884e-06
0.511081
1.76278e-06
0.51108
2.22004e-06
0.51108
2.04529e-06
0.511081
1.70384e-06
0.511081
1.69954e-06
0.511082
1.62282e-06
0.511082
1.52605e-06
0.511082
1.70218e-06
0.511083
1.76031e-06
0.511082
1.69201e-06
0.511082
1.80046e-06
0.511082
1.88078e-06
0.511082
1.73414e-06
0.511083
1.52366e-06
0.511084
1.41804e-06
0.511085
1.53357e-06
0.511085
1.71334e-06
0.511085
1.66286e-06
0.511085
1.70635e-06
0.511085
1.99798e-06
0.511085
1.89302e-06
0.511085
1.51128e-06
0.511086
1.58406e-06
0.511086
1.8342e-06
0.511086
1.74957e-06
0.511086
1.48887e-06
0.511086
1.38187e-06
0.511086
1.45574e-06
0.511086
1.39513e-06
0.511087
1.18671e-06
0.511087
1.20894e-06
0.511087
1.29592e-06
0.511088
1.18515e-06
0.511088
1.39981e-06
0.511088
2.07452e-06
0.511088
2.5255e-06
0.511088
2.43698e-06
0.511088
2.0667e-06
0.511089
1.94321e-06
0.511088
2.08118e-06
0.511088
1.92057e-06
0.511089
1.61879e-06
0.511089
1.65438e-06
0.51109
1.77422e-06
0.51109
1.73152e-06
0.511091
1.68312e-06
0.511091
1.73758e-06
0.511091
1.78629e-06
0.511091
1.55457e-06
0.511092
1.22899e-06
0.511092
1.34823e-06
0.511092
1.60207e-06
0.511092
1.50131e-06
0.511092
1.45771e-06
0.511092
1.44321e-06
0.511093
1.18766e-06
0.511093
1.20755e-06
0.511093
1.64553e-06
0.511093
1.93188e-06
0.511094
2.09727e-06
0.511094
2.36374e-06
0.511094
2.45575e-06
0.511094
2.26983e-06
0.511095
1.97614e-06
0.511095
1.71216e-06
0.511095
1.61349e-06
0.511096
1.64664e-06
0.511096
1.78096e-06
0.511096
1.97889e-06
0.511096
2.13982e-06
0.511096
2.4406e-06
0.511096
2.72587e-06
0.511096
2.48127e-06
0.511096
2.00612e-06
0.511097
1.79062e-06
0.511097
1.7545e-06
0.511097
1.95123e-06
0.511097
2.33507e-06
0.511097
2.48641e-06
0.511098
2.27012e-06
0.511098
1.82086e-06
0.511098
1.4134e-06
0.511098
1.27306e-06
0.511099
1.3258e-06
0.511099
1.52672e-06
0.511099
1.73156e-06
0.5111
1.73397e-06
0.5111
1.66448e-06
0.511101
1.60256e-06
0.511101
1.48814e-06
0.511101
1.41752e-06
0.511101
1.40636e-06
0.511101
1.37972e-06
0.511102
1.49967e-06
0.511102
1.85134e-06
0.511102
2.06892e-06
0.511103
1.92494e-06
0.511103
1.70905e-06
0.511103
1.714e-06
0.511103
1.8545e-06
0.511103
1.85323e-06
0.511104
1.84086e-06
0.511104
1.99783e-06
0.511104
2.05582e-06
0.511105
1.95385e-06
0.511105
1.92636e-06
0.511106
1.94293e-06
0.511106
1.95294e-06
0.511106
2.11316e-06
0.511106
2.3171e-06
0.511106
2.42463e-06
0.511106
2.56666e-06
0.511106
2.64488e-06
0.511106
2.59148e-06
0.511106
2.46048e-06
0.511106
2.22811e-06
0.511106
2.08192e-06
0.511107
2.00864e-06
0.511107
1.89615e-06
0.511108
1.84063e-06
0.511108
1.8313e-06
0.511108
1.81144e-06
0.511108
1.7232e-06
0.511108
1.56024e-06
0.511108
1.40556e-06
0.511108
1.29169e-06
0.511109
1.28697e-06
0.51111
1.47662e-06
0.51111
1.77448e-06
0.51111
1.9301e-06
0.511111
1.87077e-06
0.511111
1.70798e-06
0.511111
1.59582e-06
0.511111
1.65841e-06
0.511111
1.75966e-06
0.511112
1.85267e-06
0.511112
2.01458e-06
0.511113
2.08401e-06
0.511113
2.00275e-06
0.511113
1.90474e-06
0.511112
1.82507e-06
0.511112
1.61811e-06
0.511112
1.3379e-06
0.511113
1.20226e-06
0.511114
1.18904e-06
0.511114
1.37613e-06
0.511114
1.7777e-06
0.511114
2.01512e-06
0.511114
1.89881e-06
0.511114
1.60985e-06
0.511114
1.38733e-06
0.511115
1.30796e-06
0.511116
1.31821e-06
0.511116
1.45646e-06
0.511117
1.67081e-06
0.511117
1.75468e-06
0.511117
1.67831e-06
0.511117
1.57049e-06
0.511117
1.43536e-06
0.511118
1.23618e-06
0.511118
1.09647e-06
0.511119
1.13629e-06
0.511119
1.29179e-06
0.51112
1.42995e-06
0.51112
1.59055e-06
0.51112
1.78303e-06
0.51112
1.79644e-06
0.51112
1.6863e-06
0.511121
1.74539e-06
0.511121
1.99578e-06
0.511121
2.23442e-06
0.511121
2.32456e-06
0.511121
2.28957e-06
0.511121
2.14676e-06
0.511121
1.92355e-06
0.511121
1.7909e-06
0.511122
1.83452e-06
0.511122
1.94965e-06
0.511122
2.06281e-06
0.511122
2.16947e-06
0.511122
2.18694e-06
0.511122
2.10123e-06
0.511122
2.01976e-06
0.511122
1.94449e-06
0.511122
1.84565e-06
0.511122
1.75074e-06
0.511123
1.72501e-06
0.511124
1.84292e-06
0.511124
2.00366e-06
0.511124
2.03816e-06
0.511124
1.88963e-06
0.511125
1.69337e-06
0.511125
1.62761e-06
0.511126
1.53742e-06
0.511127
1.35224e-06
0.511127
1.2879e-06
0.511128
1.29738e-06
0.511128
1.2824e-06
0.511128
1.31017e-06
0.511128
1.36016e-06
0.511129
1.48539e-06
0.511129
1.69731e-06
0.511129
1.79673e-06
0.51113
1.74002e-06
0.51113
1.63458e-06
0.51113
1.52228e-06
0.51113
1.4939e-06
0.511131
1.64234e-06
0.511131
1.93933e-06
0.511131
2.26435e-06
0.511131
2.53271e-06
0.511131
2.70071e-06
0.511131
2.68682e-06
0.511131
2.53838e-06
0.51113
2.38552e-06
0.51113
2.25077e-06
0.511131
2.12038e-06
0.511131
1.96171e-06
0.511131
1.81037e-06
0.511132
1.73711e-06
0.511132
1.70105e-06
0.511132
1.68072e-06
0.511132
1.67629e-06
0.511132
1.73348e-06
0.511132
1.94606e-06
0.511132
2.18936e-06
0.511133
2.30671e-06
0.511133
2.34318e-06
0.511133
2.31295e-06
0.511133
2.33176e-06
0.511133
2.25732e-06
2.08555e-06
0.511075
3.72148e-08
0.511076
1.47533e-07
0.511076
4.76116e-07
0.511076
1.04259e-06
0.511077
1.02481e-06
0.511077
9.88532e-07
0.511078
1.30035e-06
0.511078
1.45231e-06
0.511078
1.43772e-06
0.511078
1.59714e-06
0.511078
1.92831e-06
0.511078
1.87017e-06
0.511078
1.44409e-06
0.511079
1.31404e-06
0.511079
1.31869e-06
0.511079
1.34729e-06
0.511079
1.80702e-06
0.511078
2.20678e-06
0.511078
1.78396e-06
0.511079
1.50634e-06
0.511079
2.02816e-06
0.511079
1.9567e-06
0.511079
1.23792e-06
0.51108
9.73968e-07
0.51108
9.35047e-07
0.511081
8.21555e-07
0.511082
1.08839e-06
0.511082
1.57431e-06
0.511082
1.7895e-06
0.511082
1.58222e-06
0.511083
1.43461e-06
0.511083
1.5689e-06
0.511083
1.42738e-06
0.511083
1.23397e-06
0.511083
1.52349e-06
0.511083
1.83503e-06
0.511083
1.65055e-06
0.511084
1.26867e-06
0.511084
1.34645e-06
0.511084
1.72269e-06
0.511084
1.69448e-06
0.511084
1.4102e-06
0.511085
1.27784e-06
0.511085
1.23169e-06
0.511085
1.1889e-06
0.511086
1.09182e-06
0.511086
1.11193e-06
0.511086
1.059e-06
0.511087
6.03008e-07
0.511087
5.10038e-07
0.511088
1.0892e-06
0.511087
1.52272e-06
0.511088
1.56495e-06
0.511089
1.60772e-06
0.511089
1.90243e-06
0.511089
2.17985e-06
0.511089
1.96028e-06
0.51109
1.64492e-06
0.51109
1.64134e-06
0.51109
1.67865e-06
0.51109
1.67943e-06
0.51109
1.63121e-06
0.51109
1.48672e-06
0.511091
1.37888e-06
0.511091
1.20026e-06
0.511092
9.5935e-07
0.511092
1.00836e-06
0.511092
1.24292e-06
0.511093
1.25473e-06
0.511093
1.10312e-06
0.511093
1.09165e-06
0.511094
1.21704e-06
0.511094
1.29144e-06
0.511094
1.32961e-06
0.511094
1.3628e-06
0.511094
1.42555e-06
0.511094
1.68436e-06
0.511094
1.88118e-06
0.511095
1.90368e-06
0.511095
1.99293e-06
0.511096
1.89275e-06
0.511096
1.53114e-06
0.511096
1.40962e-06
0.511096
1.52372e-06
0.511096
1.54843e-06
0.511097
1.63782e-06
0.511097
1.9164e-06
0.511097
2.05717e-06
0.511097
2.02145e-06
0.511098
2.05613e-06
0.511098
2.03664e-06
0.511098
1.85708e-06
0.511099
1.71747e-06
0.511099
1.79124e-06
0.511098
2.03703e-06
0.511099
2.16968e-06
0.511099
2.07937e-06
0.511099
1.90283e-06
0.5111
1.63113e-06
0.5111
1.31447e-06
0.5111
1.16836e-06
0.5111
1.22866e-06
0.5111
1.38939e-06
0.5111
1.47788e-06
0.511101
1.41681e-06
0.511101
1.30435e-06
0.511101
1.20488e-06
0.511102
1.10823e-06
0.511102
9.60141e-07
0.511103
8.9372e-07
0.511103
1.09704e-06
0.511103
1.31028e-06
0.511104
1.37341e-06
0.511104
1.55682e-06
0.511104
1.82125e-06
0.511104
1.83077e-06
0.511104
1.61324e-06
0.511105
1.51121e-06
0.511105
1.65521e-06
0.511105
1.81683e-06
0.511105
1.91368e-06
0.511105
1.96217e-06
0.511105
1.96097e-06
0.511105
2.02278e-06
0.511105
2.17018e-06
0.511104
2.13765e-06
0.511105
1.94973e-06
0.511105
1.98737e-06
0.511105
2.15923e-06
0.511106
2.25222e-06
0.511106
2.39071e-06
0.511106
2.57627e-06
0.511106
2.56875e-06
0.511106
2.27072e-06
0.511106
2.03314e-06
0.511106
1.97822e-06
0.511106
1.8527e-06
0.511106
1.68636e-06
0.511106
1.51331e-06
0.511107
1.36927e-06
0.511107
1.32374e-06
0.511107
1.26563e-06
0.511108
1.17353e-06
0.511108
1.14972e-06
0.511108
1.19511e-06
0.511108
1.22001e-06
0.511109
1.212e-06
0.511109
1.24128e-06
0.51111
1.31127e-06
0.51111