/*--------------------------------*- C++ -*----------------------------------*\
| =========                 |                                                 |
| \\      /  F ield         | OpenFOAM: The Open Source CFD Toolbox           |
|  \\    /   O peration     | Version:  2406                                  |
|   \\  /    A nd           | Website:  www.openfoam.com                      |
|    \\/     M anipulation  |                                                 |
\*---------------------------------------------------------------------------*/
FoamFile
{
    version     2.0;
    format      ascii;
    arch        "LSB;label=32;scalar=64";
    class       surfaceScalarField;
    location    "1.7";
    object      phi;
}
// * * * * * * * * * * * * * * * * * * * * * * * * * * * * * * * * * * * * * //

dimensions      [0 3 -1 0 0 0 0];

oriented        oriented;

internalField   nonuniform List<scalar> 
12225
(
0.511071
1.82741e-06
0.511065
6.49824e-06
0.511057
7.77438e-06
0.511051
5.9114e-06
0.511046
4.92493e-06
0.511041
4.69794e-06
0.511037
4.96643e-06
0.511031
5.37062e-06
0.511026
5.06832e-06
0.511022
4.34392e-06
0.511017
4.52109e-06
0.511012
5.27718e-06
0.511006
5.5082e-06
0.511001
5.28715e-06
0.510996
5.16998e-06
0.510991
5.30221e-06
0.510985
5.56132e-06
0.510979
5.7511e-06
0.510974
5.63471e-06
0.510968
5.44398e-06
0.510963
5.45459e-06
0.510957
5.41026e-06
0.510952
5.15154e-06
0.510947
4.90991e-06
0.510942
5.02341e-06
0.510937
5.60398e-06
0.510931
6.04661e-06
0.510925
6.04911e-06
0.510919
6.07931e-06
0.510913
6.00475e-06
0.510907
5.5633e-06
0.510902
5.18577e-06
0.510897
5.17814e-06
0.510891
5.44946e-06
0.510886
5.63111e-06
0.51088
5.20252e-06
0.510876
4.50796e-06
0.510871
4.60881e-06
0.510866
5.31288e-06
0.51086
5.57312e-06
0.510855
5.51465e-06
0.510849
5.47096e-06
0.510844
5.15526e-06
0.510839
4.92087e-06
0.510834
5.26008e-06
0.510828
5.57599e-06
0.510823
5.382e-06
0.510818
5.29526e-06
0.510812
5.57323e-06
0.510806
5.77793e-06
0.510801
5.8629e-06
0.510795
5.95378e-06
0.510789
5.88168e-06
0.510783
5.62167e-06
0.510778
5.56083e-06
0.510772
5.79888e-06
0.510766
5.79513e-06
0.510761
5.39899e-06
0.510755
5.31458e-06
0.51075
5.65741e-06
0.510744
5.61128e-06
0.510739
5.27114e-06
0.510733
5.38277e-06
0.510728
5.59119e-06
0.510722
5.35159e-06
0.510717
5.19944e-06
0.510712
5.49471e-06
0.510706
5.60446e-06
0.510701
5.42438e-06
0.510695
5.51634e-06
0.510689
5.66885e-06
0.510684
5.5238e-06
0.510679
5.39479e-06
0.510673
5.38117e-06
0.510668
5.25445e-06
0.510663
5.14288e-06
0.510657
5.23436e-06
0.510652
5.44777e-06
0.510646
5.65914e-06
0.510641
5.7492e-06
0.510635
5.7365e-06
0.510629
5.68775e-06
0.510624
5.47075e-06
0.510619
5.2319e-06
0.510613
5.27758e-06
0.510608
5.33929e-06
0.510603
5.22687e-06
0.510597
5.237e-06
0.510592
5.35939e-06
0.510587
5.49812e-06
0.510581
5.83464e-06
0.510575
6.09726e-06
0.510569
5.85324e-06
0.510563
5.38085e-06
0.510558
5.05838e-06
0.510553
4.9126e-06
0.510548
4.99126e-06
0.510543
5.32399e-06
0.510537
5.77915e-06
0.510531
6.11233e-06
0.510525
6.2082e-06
0.510519
6.07438e-06
0.510513
5.62402e-06
0.510508
5.11287e-06
0.510503
4.94065e-06
0.510498
5.02272e-06
0.510493
5.20139e-06
0.510488
5.5241e-06
0.510482
5.88802e-06
0.510476
6.06926e-06
0.51047
6.00182e-06
0.510464
5.69888e-06
0.510459
5.29814e-06
0.510454
5.05596e-06
0.510449
5.00499e-06
0.510444
4.96858e-06
0.510439
4.93733e-06
0.510433
5.12713e-06
0.510428
5.53608e-06
0.510422
5.832e-06
0.510416
5.85928e-06
0.510411
5.71206e-06
0.510405
5.48827e-06
0.5104
5.25657e-06
0.510395
5.07234e-06
0.51039
5.03745e-06
0.510385
5.09579e-06
0.510379
5.12186e-06
0.510374
5.24982e-06
0.510369
5.42027e-06
0.510363
5.47932e-06
0.510358
5.71985e-06
0.510352
6.04604e-06
0.510346
6.01678e-06
0.51034
5.72168e-06
0.510334
5.43796e-06
0.510329
5.25974e-06
0.510324
5.127e-06
0.510319
5.06316e-06
0.510314
5.21349e-06
0.510308
5.47497e-06
0.510303
5.59634e-06
0.510297
5.60294e-06
0.510291
5.70227e-06
0.510285
5.84448e-06
0.51028
5.9183e-06
0.510274
5.91704e-06
0.510268
5.85033e-06
0.510262
5.84631e-06
0.510256
5.92438e-06
0.51025
5.92106e-06
0.510244
5.69579e-06
0.510239
5.37864e-06
0.510234
5.12404e-06
0.510229
4.94849e-06
0.510224
5.16991e-06
0.510218
5.64665e-06
0.510212
5.79546e-06
0.510207
5.63244e-06
0.510201
5.38941e-06
0.510196
5.22566e-06
0.510191
5.20052e-06
0.510186
5.28471e-06
0.51018
5.42554e-06
0.510175
5.45388e-06
0.510169
5.36583e-06
0.510164
5.22485e-06
0.510159
5.19222e-06
0.510154
5.38608e-06
0.510148
5.50746e-06
0.510143
5.42928e-06
0.510137
5.33528e-06
0.510132
5.26458e-06
0.510127
5.23703e-06
0.510121
5.35435e-06
0.510116
5.51035e-06
0.51011
5.55669e-06
0.510105
5.56924e-06
0.510099
5.48476e-06
0.510094
5.29768e-06
0.510089
5.16985e-06
0.510084
5.10675e-06
0.510079
5.12936e-06
0.510073
5.25757e-06
0.510068
5.47808e-06
0.510062
5.65937e-06
0.510057
5.62133e-06
0.510051
5.52304e-06
0.510045
5.5875e-06
0.51004
5.74137e-06
0.510034
5.73927e-06
0.510028
5.63085e-06
0.510023
5.6471e-06
0.510017
5.61398e-06
0.510012
5.48426e-06
0.510006
5.41444e-06
0.510001
5.29929e-06
0.509996
5.2632e-06
0.50999
5.48081e-06
0.509984
5.71765e-06
0.509979
5.80549e-06
0.509973
5.77463e-06
0.509967
5.56966e-06
0.509962
5.28607e-06
0.509957
5.17792e-06
0.509952
5.20834e-06
0.509946
5.21017e-06
0.509941
5.26465e-06
0.509936
5.47622e-06
0.50993
5.64838e-06
0.509924
5.60065e-06
0.509919
5.52519e-06
0.509913
5.50867e-06
0.509908
5.30344e-06
0.509903
4.92674e-06
0.509898
4.72447e-06
0.509894
4.75274e-06
0.509889
4.84256e-06
0.509884
5.00537e-06
0.509879
5.24545e-06
0.509873
5.5585e-06
0.509867
5.86271e-06
0.509861
5.86206e-06
0.509856
5.59576e-06
0.50985
5.3095e-06
0.509845
5.05602e-06
0.50984
4.94714e-06
0.509835
4.95732e-06
0.509831
4.94848e-06
0.509825
5.08513e-06
0.50982
5.53179e-06
0.509814
6.00944e-06
0.509808
6.08458e-06
0.509802
5.80382e-06
0.509796
5.48788e-06
0.509791
5.28192e-06
0.509786
5.26663e-06
0.509781
5.36326e-06
0.509775
5.41644e-06
0.50977
5.37498e-06
0.509765
5.27735e-06
0.509759
5.28965e-06
0.509754
5.35285e-06
0.509749
5.31907e-06
0.509743
5.33297e-06
0.509738
5.44936e-06
0.509732
5.56621e-06
0.509727
5.43718e-06
0.509721
5.64062e-06
5.22412e-06
0.511077
-1.53573e-07
0.511083
6.3206e-07
0.511089
1.9035e-06
0.511092
2.41616e-06
0.511095
1.9192e-06
0.511098
1.59016e-06
0.511101
2.08333e-06
0.511104
2.88845e-06
0.511106
3.21505e-06
0.511107
3.02548e-06
0.511109
2.62458e-06
0.511112
2.37542e-06
0.511115
2.43458e-06
0.511118
2.53761e-06
0.51112
2.38509e-06
0.511123
2.18406e-06
0.511127
2.20298e-06
0.51113
2.28374e-06
0.511134
2.40315e-06
0.511136
2.59992e-06
0.511139
2.78631e-06
0.511142
2.86162e-06
0.511144
2.56578e-06
0.511147
2.24263e-06
0.511149
2.62259e-06
0.511152
2.97376e-06
0.511155
2.58131e-06
0.511159
2.28901e-06
0.511163
2.24719e-06
0.511167
2.06656e-06
0.51117
2.04997e-06
0.511173
2.41074e-06
0.511176
2.84278e-06
0.511178
2.73094e-06
0.511182
2.33307e-06
0.511184
2.43386e-06
0.511186
2.64097e-06
0.511188
2.48153e-06
0.511191
2.43421e-06
0.511194
2.61467e-06
0.511197
2.5681e-06
0.5112
2.2756e-06
0.511203
2.30339e-06
0.511205
2.57884e-06
0.511208
2.29864e-06
0.511212
1.83117e-06
0.511216
1.94244e-06
0.511219
2.20432e-06
0.511222
2.25416e-06
0.511225
2.41766e-06
0.511229
2.64607e-06
0.511232
2.54059e-06
0.511236
2.32118e-06
0.511239
2.43491e-06
0.511242
2.65294e-06
0.511245
2.6942e-06
0.511248
2.73859e-06
0.51125
2.80513e-06
0.511253
2.80902e-06
0.511256
2.63403e-06
0.511259
2.29789e-06
0.511262
2.25588e-06
0.511265
2.37703e-06
0.511269
2.32879e-06
0.511271
2.528e-06
0.511274
2.73962e-06
0.511277
2.63308e-06
0.51128
2.69807e-06
0.511282
2.61169e-06
0.511286
2.09961e-06
0.51129
1.98986e-06
0.511293
2.30833e-06
0.511296
2.36057e-06
0.511299
2.21332e-06
0.511302
2.07458e-06
0.511305
2.02834e-06
0.511308
2.26416e-06
0.511311
2.61823e-06
0.511314
2.74537e-06
0.511317
2.61308e-06
0.51132
2.50426e-06
0.511323
2.67407e-06
0.511326
2.84502e-06
0.511328
2.80957e-06
0.511331
2.66384e-06
0.511334
2.46389e-06
0.511337
2.33654e-06
0.51134
2.38383e-06
0.511343
2.40331e-06
0.511346
2.3444e-06
0.511349
2.40046e-06
0.511353
2.60763e-06
0.511356
2.83041e-06
0.511358
2.99016e-06
0.51136
2.91566e-06
0.511362
2.61832e-06
0.511365
2.39566e-06
0.511368
2.36501e-06
0.511371
2.56316e-06
0.511375
2.8347e-06
0.511378
2.74398e-06
0.511382
2.2849e-06
0.511385
1.90332e-06
0.511389
1.95736e-06
0.511391
2.34872e-06
0.511394
2.70765e-06
0.511396
2.90462e-06
0.511398
2.89892e-06
0.511402
2.64959e-06
0.511405
2.36841e-06
0.511409
2.15441e-06
0.511413
2.00554e-06
0.511416
2.08258e-06
0.511419
2.37194e-06
0.511421
2.67985e-06
0.511423
2.96709e-06
0.511425
3.06172e-06
0.511427
2.82839e-06
0.51143
2.54688e-06
0.511434
2.34939e-06
0.511438
2.17432e-06
0.511441
2.20865e-06
0.511444
2.4462e-06
0.511447
2.62656e-06
0.511449
2.7241e-06
0.511451
2.81699e-06
0.511453
2.90517e-06
0.511456
2.89792e-06
0.511458
2.8018e-06
0.511461
2.86672e-06
0.511463
3.0209e-06
0.511466
2.87891e-06
0.511469
2.57616e-06
0.511473
2.49648e-06
0.511476
2.49734e-06
0.511479
2.39367e-06
0.511482
2.4723e-06
0.511484
2.70756e-06
0.511487
2.73683e-06
0.511489
2.61786e-06
0.511492
2.54933e-06
0.511495
2.53773e-06
0.511498
2.50924e-06
0.511502
2.46718e-06
0.511505
2.43418e-06
0.511509
2.35515e-06
0.511512
2.26785e-06
0.511516
2.22765e-06
0.511519
2.28458e-06
0.511523
2.4372e-06
0.511526
2.58298e-06
0.511529
2.58178e-06
0.511532
2.47241e-06
0.511535
2.48488e-06
0.511537
2.52266e-06
0.51154
2.53292e-06
0.511543
2.70118e-06
0.511546
2.90791e-06
0.511549
2.93586e-06
0.511551
2.68746e-06
0.511554
2.4048e-06
0.511557
2.30815e-06
0.51156
2.19356e-06
0.511563
2.17904e-06
0.511566
2.346e-06
0.511569
2.40785e-06
0.511572
2.36195e-06
0.511575
2.26668e-06
0.511578
2.16588e-06
0.511582
2.22458e-06
0.511585
2.32661e-06
0.511588
2.27365e-06
0.511591
2.29394e-06
0.511594
2.5288e-06
0.511596
2.70447e-06
0.511599
2.71714e-06
0.511602
2.59427e-06
0.511605
2.36804e-06
0.511608
2.19165e-06
0.511612
2.14551e-06
0.511615
2.16232e-06
0.511617
2.18963e-06
0.51162
2.30418e-06
0.511623
2.44643e-06
0.511626
2.4961e-06
0.511629
2.52301e-06
0.511632
2.48246e-06
0.511636
2.39572e-06
0.511639
2.39309e-06
0.511642
2.41954e-06
0.511645
2.43669e-06
0.511649
2.41727e-06
0.511652
2.41413e-06
0.511655
2.56561e-06
0.511658
2.71841e-06
0.51166
2.64973e-06
0.511663
2.57841e-06
0.511666
2.72525e-06
0.511668
2.82831e-06
0.511671
2.73447e-06
0.511674
2.68087e-06
0.511677
2.71205e-06
0.51168
2.64641e-06
0.511683
2.51683e-06
0.511686
2.47728e-06
0.511689
2.48991e-06
0.511691
2.49461e-06
0.511694
2.53852e-06
0.511697
2.6104e-06
0.5117
2.66514e-06
0.511703
2.65284e-06
0.511706
2.5786e-06
0.511709
2.56407e-06
0.511711
2.60145e-06
0.511714
2.538e-06
0.511716
2.48588e-06
0.511718
2.58051e-06
0.51172
2.54235e-06
0.511723
2.29533e-06
0.511726
2.19236e-06
0.51173
2.27645e-06
0.511733
2.35859e-06
0.511736
2.46974e-06
0.511739
2.59049e-06
0.511742
2.62969e-06
0.511745
2.58184e-06
0.511747
2.4701e-06
0.51175
2.40619e-06
0.511752
2.53132e-06
0.511754
2.71683e-06
0.511757
2.75149e-06
0.51176
2.72638e-06
0.511764
2.75344e-06
0.511767
2.74759e-06
0.51177
2.64032e-06
0.511772
2.51914e-06
0.511775
2.60909e-06
0.511778
2.83892e-06
0.51178
2.86594e-06
0.511783
2.72783e-06
0.511785
2.65392e-06
0.511788
2.62382e-06
0.511791
2.51837e-06
0.511794
2.36529e-06
0.511797
2.38292e-06
0.5118
2.64346e-06
0.511802
2.83766e-06
0.511805
2.73046e-06
0.511808
2.58777e-06
2.85584e-06
0.511076
1.16324e-07
0.511075
9.1559e-07
0.511076
1.73836e-06
0.511076
1.82496e-06
0.511077
1.62706e-06
0.511076
2.01822e-06
0.511076
2.31696e-06
0.511077
2.19928e-06
0.511077
2.32301e-06
0.511078
2.55198e-06
0.511078
2.3514e-06
0.511079
1.98255e-06
0.511079
1.98079e-06
0.511079
2.25927e-06
0.511079
2.4609e-06
0.511079
2.30092e-06
0.511079
1.86646e-06
0.51108
1.71796e-06
0.51108
2.13264e-06
0.51108
2.71934e-06
0.51108
2.53826e-06
0.511081
1.94422e-06
0.511082
2.05478e-06
0.511082
2.4741e-06
0.511082
2.64718e-06
0.511082
2.44158e-06
0.511083
2.09258e-06
0.511083
2.09879e-06
0.511083
2.26177e-06
0.511083
2.35013e-06
0.511082
2.4279e-06
0.511082
2.11017e-06
0.511083
1.81293e-06
0.511084
2.29721e-06
0.511084
2.61476e-06
0.511084
2.20844e-06
0.511085
1.94582e-06
0.511085
2.17052e-06
0.511085
2.44072e-06
0.511085
2.27897e-06
0.511086
2.155e-06
0.511086
2.30654e-06
0.511086
2.02237e-06
0.511087
1.69285e-06
0.511087
1.85922e-06
0.511087
1.97225e-06
0.511087
1.78508e-06
0.511088
1.67649e-06
0.511088
2.06358e-06
0.511088
2.47901e-06
0.511088
2.25521e-06
0.511089
1.97534e-06
0.511089
2.08959e-06
0.511089
2.30674e-06
0.511089
2.55158e-06
0.511089
2.50424e-06
0.51109
2.15527e-06
0.511091
2.21368e-06
0.511091
2.51834e-06
0.511091
2.47854e-06
0.511091
2.3273e-06
0.511091
2.2779e-06
0.511091
2.10819e-06
0.511092
1.84253e-06
0.511092
1.96194e-06
0.511093
2.50369e-06
0.511093
2.62996e-06
0.511093
2.18076e-06
0.511094
1.95583e-06
0.511094
2.01545e-06
0.511094
1.98078e-06
0.511094
2.03235e-06
0.511094
2.13223e-06
0.511095
1.97103e-06
0.511095
1.8677e-06
0.511095
2.08623e-06
0.511095
2.18581e-06
0.511095
2.10595e-06
0.511096
2.33934e-06
0.511096
2.66341e-06
0.511096
2.5744e-06
0.511096
2.46582e-06
0.511096
2.60866e-06
0.511096
2.57007e-06
0.511097
2.42153e-06
0.511096
2.51117e-06
0.511096
2.43112e-06
0.511097
2.05124e-06
0.511097
1.97458e-06
0.511097
2.1532e-06
0.511097
2.28807e-06
0.511098
2.54317e-06
0.511098
2.6702e-06
0.511098
2.52779e-06
0.511099
2.40384e-06
0.511099
2.24289e-06
0.511099
2.14925e-06
0.511099
2.30666e-06
0.511099
2.47186e-06
0.5111
2.50359e-06
0.5111
2.32879e-06
0.5111
1.97229e-06
0.511101
1.79528e-06
0.511101
1.89225e-06
0.511101
1.99573e-06
0.511102
2.02356e-06
0.511103
2.07671e-06
0.511103
2.16342e-06
0.511104
2.29436e-06
0.511104
2.41773e-06
0.511103
2.34194e-06
0.511103
2.1513e-06
0.511103
2.117e-06
0.511103
2.17069e-06
0.511104
2.13317e-06
0.511105
2.11523e-06
0.511106
2.25581e-06
0.511106
2.47002e-06
0.511106
2.64073e-06
0.511106
2.66888e-06
0.511105
2.51845e-06
0.511105
2.38219e-06
0.511105
2.35569e-06
0.511105
2.28893e-06
0.511106
2.21412e-06
0.511106
2.33541e-06
0.511107
2.59011e-06
0.511107
2.70032e-06
0.511107
2.62265e-06
0.511107
2.60589e-06
0.511108
2.7519e-06
0.511108
2.92866e-06
0.511107
3.02497e-06
0.511107
3.03762e-06
0.511106
2.92484e-06
0.511106
2.52551e-06
0.511106
2.04956e-06
0.511107
1.93158e-06
0.511108
2.0403e-06
0.511109
2.00553e-06
0.511109
1.90195e-06
0.51111
2.04126e-06
0.51111
2.33114e-06
0.51111
2.4375e-06
0.51111
2.35511e-06
0.51111
2.19253e-06
0.51111
2.00111e-06
0.511111
1.87488e-06
0.511111
1.89202e-06
0.511112
1.99632e-06
0.511112
2.14483e-06
0.511112
2.31096e-06
0.511112
2.3539e-06
0.511113
2.39221e-06
0.511113
2.4495e-06
0.511113
2.26697e-06
0.511114
2.03775e-06
0.511114
2.00381e-06
0.511115
2.13467e-06
0.511116
2.3764e-06
0.511115
2.58145e-06
0.511115
2.61932e-06
0.511115
2.4245e-06
0.511115
2.07414e-06
0.511116
1.72318e-06
0.511116
1.60464e-06
0.511117
1.88424e-06
0.511117
2.28767e-06
0.511117
2.50077e-06
0.511116
2.49251e-06
0.511116
2.28251e-06
0.511117
1.95482e-06
0.511117
1.70023e-06
0.511118
1.69375e-06
0.511119
1.93852e-06
0.511119
2.28419e-06
0.511119
2.49853e-06
0.511119
2.48658e-06
0.511119
2.31359e-06
0.511119
2.00174e-06
0.51112
1.74011e-06
0.51112
1.72781e-06
0.511121
1.86566e-06
0.511121
1.97514e-06
0.511121
2.03695e-06
0.511122
2.14005e-06
0.511122
2.29313e-06
0.511122
2.45939e-06
0.511122
2.52989e-06
0.511122
2.49092e-06
0.511122
2.58135e-06
0.511121
2.68618e-06
0.511121
2.61113e-06
0.511121
2.55625e-06
0.511121
2.4765e-06
0.511122
2.2526e-06
0.511122
2.09013e-06
0.511123
2.06038e-06
0.511124
2.11981e-06
0.511124
2.29311e-06
0.511124
2.45782e-06
0.511124
2.55745e-06
0.511124
2.66438e-06
0.511124
2.57595e-06
0.511125
2.25603e-06
0.511125
2.07953e-06
0.511125
2.10424e-06
0.511126
2.14087e-06
0.511126
2.23738e-06
0.511126
2.46238e-06
0.511126
2.61862e-06
0.511127
2.47537e-06
0.511127
2.21915e-06
0.511127
2.09682e-06
0.511128
1.95461e-06
0.511129
1.76362e-06
0.51113
1.74721e-06
0.51113
1.89935e-06
0.51113
2.08138e-06
0.51113
2.21984e-06
0.51113
2.2471e-06
0.511131
2.17924e-06
0.511131
2.02989e-06
0.511132
1.83432e-06
0.511133
1.81417e-06
0.511133
1.97762e-06
0.511134
2.0296e-06
0.511134
2.05091e-06
0.511134
2.37718e-06
0.511134
2.78549e-06
0.511134
2.86503e-06
0.511134
2.79327e-06
0.511134
2.81197e-06
0.511134
2.80867e-06
0.511134
2.72432e-06
0.511134
2.546e-06
0.511134
2.3151e-06
0.511135
2.18672e-06
0.511135
2.14961e-06
0.511136
2.13814e-06
0.511136
2.13604e-06
0.511137
2.19706e-06
0.511137
2.44996e-06
0.511137
2.71333e-06
0.511136
2.77336e-06
0.511136
2.69848e-06
0.511136
2.52812e-06
0.511137
2.37908e-06
0.511137
2.33613e-06
2.42148e-06
0.511076
-1.51679e-08
0.511077
3.08734e-07
0.511077
9.64641e-07
0.511078
1.50182e-06
0.511078
1.51667e-06
0.511078
1.89552e-06
0.511078
2.34953e-06
0.511078
2.05317e-06
0.511079
1.8933e-06
0.511079
2.12164e-06
0.511079
2.19995e-06
0.511079
2.21307e-06
0.511079
2.18857e-06
0.511079
2.07474e-06
0.511079
2.05632e-06
0.511079
2.05927e-06
0.511079
2.07095e-06
0.511079
2.33675e-06
0.511078
2.4442e-06
0.511079
2.06769e-06
0.51108
1.53131e-06
0.51108
1.5452e-06
0.51108
2.12639e-06
0.51108
2.34933e-06
0.511081
2.12553e-06
0.511081
2.03675e-06
0.511081
1.99391e-06
0.511082
1.8495e-06
0.511082
1.63065e-06
0.511083
1.58612e-06
0.511084
1.87177e-06
0.511084
2.25314e-06
0.511083
2.35433e-06
0.511083
2.12247e-06
0.511084
1.89151e-06
0.511084
1.82273e-06
0.511084
1.75319e-06
0.511085
1.66203e-06
0.511086
1.82125e-06
0.511086
1.93908e-06
0.511086
1.69915e-06
0.511087
1.67593e-06
0.511087
1.95823e-06
0.511087
1.90084e-06
0.511087
1.56154e-06
0.511088
1.36372e-06
0.511088
1.46261e-06
0.511088
1.73816e-06
0.511088
1.77546e-06
0.511089
1.61691e-06
0.51109
1.65298e-06
0.51109
1.83658e-06
0.51109
1.96643e-06
0.51109
2.22199e-06
0.51109
2.44429e-06
0.51109
2.39193e-06
0.51109
2.30724e-06
0.51109
2.18478e-06
0.511091
1.86233e-06
0.511092
1.86079e-06
0.511092
2.15837e-06
0.511092
2.13918e-06
0.511092
2.13605e-06
0.511091
2.2869e-06
0.511091
2.13575e-06
0.511092
1.92113e-06
0.511092
1.92646e-06
0.511093
1.96832e-06
0.511093
1.85092e-06
0.511093
1.60889e-06
0.511094
1.53588e-06
0.511094
1.59339e-06
0.511095
1.5265e-06
0.511095
1.50293e-06
0.511095
1.59858e-06
0.511096
1.69719e-06
0.511096
1.93026e-06
0.511096
2.10026e-06
0.511096
2.06584e-06
0.511097
2.18625e-06
0.511097
2.40447e-06
0.511097
2.4886e-06
0.511097
2.44932e-06
0.511097
2.25626e-06
0.511098
2.07432e-06
0.511098
2.04547e-06
0.511099
2.0486e-06
0.511099
2.07858e-06
0.511098
2.21306e-06
0.511098
2.41765e-06
0.511098
2.55494e-06
0.511098
2.60168e-06
0.511098
2.47083e-06
0.511098
2.11184e-06
0.511099
1.8517e-06
0.511099
1.96256e-06
0.511099
2.32824e-06
0.511099
2.59553e-06
0.511099
2.53693e-06
0.511099
2.23035e-06
0.5111
1.78915e-06
0.5111
1.45371e-06
0.5111
1.39439e-06
0.511101
1.55231e-06
0.511101
2.00735e-06
0.5111
2.42967e-06
0.5111
2.33576e-06
0.5111
1.97469e-06
0.511101
1.63318e-06
0.511102
1.37494e-06
0.511103
1.43912e-06
0.511103
1.77451e-06
0.511103
2.05554e-06
0.511103
2.25946e-06
0.511103
2.4206e-06
0.511103
2.40431e-06
0.511103
2.18192e-06
0.511103
1.88187e-06
0.511104
1.71953e-06
0.511105
1.82667e-06
0.511106
2.01092e-06
0.511106
2.17631e-06
0.511106
2.45097e-06
0.511105
2.69897e-06
0.511105
2.58694e-06
0.511105
2.21977e-06
0.511106
2.06857e-06
0.511106
2.22949e-06
0.511106
2.43461e-06
0.511106
2.5895e-06
0.511106
2.64075e-06
0.511107
2.51247e-06
0.511107
2.35344e-06
0.511108
2.33509e-06
0.511109
2.46642e-06
0.511109
2.54238e-06
0.511108
2.42793e-06
0.511108
2.25142e-06
0.511108
2.07232e-06
0.511108
1.95485e-06
0.511108
1.91845e-06
0.511108
1.82337e-06
0.511109
1.65164e-06
0.51111
1.54223e-06
0.51111
1.60084e-06
0.511111
1.80694e-06
0.511111
2.16697e-06
0.51111
2.49317e-06
0.511109
2.41454e-06
0.51111
1.969e-06
0.51111
1.57953e-06
0.511111
1.48336e-06
0.511112
1.60617e-06
0.511112
1.9887e-06
0.511112
2.52582e-06
0.511112
2.72478e-06
0.511111
2.45476e-06
0.511111
2.00467e-06
0.511112
1.70197e-06
0.511112
1.62519e-06
0.511113
1.58163e-06
0.511114
1.69896e-06
0.511115
1.9787e-06
0.511115
2.10904e-06
0.511114
1.98233e-06
0.511114
1.62843e-06
0.511115
1.30049e-06
0.511116
1.2825e-06
0.511117
1.52864e-06
0.511118
1.84283e-06
0.511118
2.11115e-06
0.511117
2.2241e-06
0.511117
2.15251e-06
0.511117
2.03823e-06
0.511117
1.89841e-06
0.511117
1.70323e-06
0.511118
1.57484e-06
0.511119
1.56682e-06
0.51112
1.6249e-06
0.51112
1.70533e-06
0.51112
1.82434e-06
0.51112
1.93802e-06
0.51112
2.00357e-06
0.51112
2.00542e-06
0.51112
1.83839e-06
0.51112
1.69713e-06
0.511121
1.88993e-06
0.511121
2.22721e-06
0.511121
2.4018e-06
0.511121
2.3771e-06
0.511121
2.27721e-06
0.511122
2.15493e-06
0.511123
2.02572e-06
0.511123
1.99847e-06
0.511124
2.08489e-06
0.511124
2.19374e-06
0.511123
2.25706e-06
0.511123
2.27466e-06
0.511123
2.25025e-06
0.511123
2.11973e-06
0.511124
1.94449e-06
0.511124
1.8899e-06
0.511125
2.01104e-06
0.511126
2.15964e-06
0.511126
2.20535e-06
0.511125
2.23808e-06
0.511125
2.25567e-06
0.511125
2.16203e-06
0.511125
2.03494e-06
0.511126
1.99258e-06
0.511126
2.08163e-06
0.511127
2.18864e-06
0.511127
2.16667e-06
0.511127
2.12428e-06
0.511127
2.09311e-06
0.511126
1.89854e-06
0.511127
1.64593e-06
0.511127
1.58484e-06
0.511127
1.65615e-06
0.511128
1.73954e-06
0.511128
1.87547e-06
0.511128
1.99685e-06
0.511128
1.99542e-06
0.511128
1.93597e-06
0.511128
1.83308e-06
0.511128
1.75355e-06
0.511129
1.88238e-06
0.511129
2.10002e-06
0.511129
2.3095e-06
0.511129
2.61915e-06
0.511129
2.79397e-06
0.511129
2.62508e-06
0.51113
2.33884e-06
0.51113
2.19626e-06
0.511131
2.27612e-06
0.511131
2.36379e-06
0.511131
2.23836e-06
0.511131
2.0702e-06
0.511131
2.0454e-06
0.511131
2.03506e-06
0.511131
1.89503e-06
0.511132
1.74587e-06
0.511133
1.77598e-06
0.511133
2.03924e-06
0.511134
2.41863e-06
0.511134
2.60804e-06
0.511134
2.49113e-06
0.511134
2.43289e-06
0.511134
2.49013e-06
2.43593e-06
0.511076
1.4552e-07
0.511075
7.41109e-07
0.511075
1.04996e-06
0.511076
1.01128e-06
0.511076
1.16368e-06
0.511076
1.5462e-06
0.511077
1.93968e-06
0.511077
2.02757e-06
0.511077
1.68576e-06
0.511077
1.63707e-06
0.511078
1.9846e-06
0.511078
2.10944e-06
0.511078
1.96617e-06
0.511078
1.80492e-06
0.511079
1.57672e-06
0.511079
1.64128e-06
0.511079
1.78168e-06
0.51108
1.47419e-06
0.511082
1.25949e-06
0.511082
1.46425e-06
0.511082
1.86927e-06
0.511081
2.15485e-06
0.511081
2.26936e-06
0.511081
1.92635e-06
0.511082
1.21526e-06
0.511083
1.41502e-06
0.511083
2.02466e-06
0.511083
1.83072e-06
0.511083
1.69671e-06
0.511083
1.90102e-06
0.511083
1.74195e-06
0.511083
1.54932e-06
0.511084
1.58061e-06
0.511085
1.55075e-06
0.511085
1.52262e-06
0.511085
1.54755e-06
0.511086
1.66496e-06
0.511085
1.82009e-06
0.511086
1.68202e-06
0.511086
1.44968e-06
0.511086
1.59134e-06
0.511086
1.81284e-06
0.511086
1.65075e-06
0.511087
1.44241e-06
0.511087
1.50945e-06
0.511087
1.54363e-06
0.511087
1.47603e-06
0.511087
1.40669e-06
0.511087
1.3841e-06
0.511088
1.43128e-06
0.511088
1.28818e-06
0.511089
1.15733e-06
0.511089
1.61258e-06
0.511089
2.1626e-06
0.511089
2.3409e-06
0.511089
2.39825e-06
0.511089
2.2934e-06
0.511089
2.12798e-06
0.511089
2.01758e-06
0.511089
1.68892e-06
0.51109
1.46227e-06
0.51109
1.60526e-06
0.511091
1.7893e-06
0.511091
1.82761e-06
0.511091
1.83209e-06
0.511091
1.9365e-06
0.511092
1.83141e-06
0.511092
1.36599e-06
0.511093
1.23496e-06
0.511093
1.56204e-06
0.511093
1.60217e-06
0.511093
1.45219e-06
0.511093
1.53416e-06
0.511093
1.39298e-06
0.511093
1.13367e-06
0.511094
1.38315e-06
0.511094
1.73375e-06
0.511094
1.82187e-06
0.511094
1.99197e-06
0.511094
2.21733e-06
0.511095
2.19218e-06
0.511095
1.99148e-06
0.511096
1.90221e-06
0.511096
1.97082e-06
0.511096
1.96134e-06
0.511096
1.80355e-06
0.511097
1.74003e-06
0.511097
1.78384e-06
0.511097
1.96493e-06
0.511097
2.45406e-06
0.511097
2.74842e-06
0.511097
2.52531e-06
0.511097
2.16694e-06
0.511097
1.81474e-06
0.511098
1.70289e-06
0.511098
1.93595e-06
0.511098
2.18423e-06
0.511098
2.32416e-06
0.511098
2.1631e-06
0.511099
1.74648e-06
0.511099
1.4639e-06
0.511099
1.32019e-06
0.5111
1.28364e-06
0.5111
1.42099e-06
0.5111
1.62652e-06
0.511101
1.74897e-06
0.511101
1.74536e-06
0.511102
1.68166e-06
0.511102
1.56519e-06
0.511102
1.41815e-06
0.511102
1.33324e-06
0.511102
1.40213e-06
0.511103
1.64856e-06
0.511103
1.89234e-06
0.511103
1.94815e-06
0.511104
1.88651e-06
0.511104
1.88456e-06
0.511104
1.88601e-06
0.511104
1.78838e-06
0.511104
1.78503e-06
0.511104
1.91927e-06
0.511104
1.96819e-06
0.511105
1.92155e-06
0.511106
1.89885e-06
0.511106
1.94534e-06
0.511107
2.02041e-06
0.511107
2.07942e-06
0.511107
2.22924e-06
0.511107
2.49141e-06
0.511106
2.63703e-06
0.511107
2.60772e-06
0.511106
2.62368e-06
0.511106
2.58572e-06
0.511106
2.24944e-06
0.511107
1.9963e-06
0.511107
2.04269e-06
0.511108
1.98058e-06
0.511108
1.82244e-06
0.511108
1.80312e-06
0.511108
1.84002e-06
0.511109
1.79884e-06
0.511109
1.70974e-06
0.511109
1.70107e-06
0.511109
1.61046e-06
0.511109
1.35376e-06
0.511109
1.26053e-06
0.51111
1.43924e-06
0.511111
1.67447e-06
0.511112
1.84711e-06
0.511112
1.92814e-06
0.511111
1.81827e-06
0.511111
1.65649e-06
0.511111
1.64518e-06
0.511111
1.69121e-06
0.511112
1.76387e-06
0.511113
1.88803e-06
0.511113
2.00901e-06
0.511113
2.00133e-06
0.511113
1.89989e-06
0.511113
1.89541e-06
0.511113
1.82374e-06
0.511113
1.55126e-06
0.511114
1.26268e-06
0.511115
1.15389e-06
0.511115
1.31337e-06
0.511115
1.55832e-06
0.511115
1.75562e-06
0.511114
1.81892e-06
0.511114
1.63147e-06
0.511115
1.34755e-06
0.511116
1.22046e-06
0.511116
1.33655e-06
0.511117
1.55428e-06
0.511117
1.72273e-06
0.511118
1.767e-06
0.511118
1.64961e-06
0.511118
1.47403e-06
0.511118
1.30175e-06
0.511118
1.18303e-06
0.511119
1.20519e-06
0.511119
1.28834e-06
0.51112
1.32591e-06
0.511121
1.44433e-06
0.511121
1.70518e-06
0.511121
1.80972e-06
0.511121
1.72189e-06
0.511121
1.70584e-06
0.511122
1.7985e-06
0.511122
1.99895e-06
0.511122
2.16036e-06
0.511122
2.18907e-06
0.511122
2.23044e-06
0.511122
2.1859e-06
0.511122
1.9842e-06
0.511122
1.84951e-06
0.511123
1.85054e-06
0.511123
1.90101e-06
0.511123
2.03664e-06
0.511123
2.20065e-06
0.511123
2.2605e-06
0.511123
2.28434e-06
0.511122
2.19855e-06
0.511122
1.95615e-06
0.511123
1.8213e-06
0.511123
1.75279e-06
0.511124
1.63073e-06
0.511124
1.68919e-06
0.511125
1.89027e-06
0.511125
1.90613e-06
0.511125
1.72743e-06
0.511126
1.62532e-06
0.511126
1.62596e-06
0.511127
1.55167e-06
0.511127
1.46529e-06
0.511128
1.44557e-06
0.511129
1.42172e-06
0.511129
1.41413e-06
0.511129
1.43315e-06
0.511129
1.48009e-06
0.511129
1.55135e-06
0.51113
1.56397e-06
0.51113
1.56802e-06
0.51113
1.61352e-06
0.511131
1.58827e-06
0.511131
1.47945e-06
0.511131
1.45874e-06
0.511132
1.70032e-06
0.511132
2.06873e-06
0.511132
2.3471e-06
0.511132
2.60022e-06
0.511132
2.77094e-06
0.511132
2.72256e-06
0.511131
2.56396e-06
0.511131
2.36464e-06
0.511131
2.16418e-06
0.511132
2.03424e-06
0.511132
1.94205e-06
0.511132
1.86545e-06
0.511132
1.78856e-06
0.511133
1.71805e-06
0.511133
1.71038e-06
0.511133
1.71379e-06
0.511133
1.75384e-06
0.511133
1.93053e-06
0.511133
2.11296e-06
0.511134
2.28767e-06
0.511134
2.4266e-06
0.511134
2.47141e-06
0.511134
2.44529e-06
2.26077e-06
0.511076
1.79395e-07
0.511076
2.94239e-07
0.511077
3.59467e-07
0.511077
8.26956e-07
0.511077
1.21639e-06
0.511077
1.23454e-06
0.511078
1.25075e-06
0.511078
1.51389e-06
0.511078
1.71088e-06
0.511078
1.65694e-06
0.511078
1.78359e-06
0.511079
2.08144e-06
0.511078
2.02257e-06
0.511079
1.60839e-06
0.511079
1.25602e-06
0.511079
1.16909e-06
0.51108
1.41659e-06
0.511079
1.84162e-06
0.511079
1.90019e-06
0.511079
1.56726e-06
0.511079
1.71306e-06
0.511079
2.04748e-06
0.51108
1.56028e-06
0.51108
1.14244e-06
0.511081
1.15923e-06
0.511081
8.5956e-07
0.511082
8.62007e-07
0.511083
1.50988e-06
0.511083
1.74374e-06
0.511083
1.37418e-06
0.511083
1.3228e-06
0.511083
1.6877e-06
0.511083
1.60539e-06
0.511084
1.22515e-06
0.511084
1.40849e-06
0.511084
1.78225e-06
0.511084
1.58151e-06
0.511084
1.13989e-06
0.511085
1.14139e-06
0.511085
1.49457e-06
0.511085
1.68588e-06
0.511085
1.59727e-06
0.511085
1.33201e-06
0.511085
1.181e-06
0.511086
1.24348e-06
0.511086
1.21667e-06
0.511086
1.19117e-06
0.511086
1.26528e-06
0.511087
9.23439e-07
0.511088
4.5713e-07
0.511089
6.89831e-07
0.511088
1.39696e-06
0.511088
1.67025e-06
0.511089
1.58121e-06
0.511089
1.67338e-06
0.51109
2.03502e-06
0.51109
2.10559e-06
0.51109
1.83971e-06
0.511091
1.68325e-06
0.511091
1.59878e-06
0.511091
1.58867e-06
0.511091
1.69332e-06
0.511091
1.65583e-06
0.511091
1.5231e-06
0.511091
1.34369e-06
0.511092
1.11336e-06
0.511093
1.12524e-06
0.511093
1.35452e-06
0.511093
1.29386e-06
0.511093
1.07579e-06
0.511094
1.15812e-06
0.511094
1.25316e-06
0.511094
1.19198e-06
0.511095
1.28792e-06
0.511094
1.37505e-06
0.511094
1.33608e-06
0.511095
1.50521e-06
0.511095
1.72825e-06
0.511095
1.61393e-06
0.511096
1.53485e-06
0.511096
1.73591e-06
0.511096
1.77399e-06
0.511097
1.69402e-06
0.511097
1.73992e-06
0.511097
1.6907e-06
0.511097
1.52084e-06
0.511098
1.52096e-06
0.511098
1.7339e-06
0.511098
1.95329e-06
0.511098
2.16846e-06
0.511098
2.27519e-06
0.511099
2.06464e-06
0.511099
1.79287e-06
0.511099
1.6434e-06
0.511099
1.65823e-06
0.511099
1.91948e-06
0.5111
2.12833e-06
0.5111
2.12346e-06
0.5111
1.96964e-06
0.5111
1.62211e-06
0.5111
1.20525e-06
0.511101
9.89439e-07
0.511101
1.1275e-06
0.511101
1.3367e-06
0.511101
1.38096e-06
0.511101
1.42128e-06
0.511102
1.41389e-06
0.511102
1.27965e-06
0.511103
1.14845e-06
0.511103
1.07615e-06
0.511103
1.03259e-06
0.511104
1.02812e-06
0.511104
1.09344e-06
0.511105
1.3369e-06
0.511105
1.76314e-06
0.511105
2.02471e-06
0.511105
1.8807e-06
0.511105
1.63871e-06
0.511105
1.54158e-06
0.511106
1.52586e-06
0.511106
1.70807e-06
0.511106
2.01644e-06
0.511106
2.05123e-06
0.511106
1.94875e-06
0.511105
2.07032e-06
0.511105
2.14247e-06
0.511105
2.03814e-06
0.511105
2.13193e-06
0.511106
2.30416e-06
0.511106
2.2559e-06
0.511106
2.22172e-06
0.511107
2.40438e-06
0.511107
2.59847e-06
0.511106
2.444e-06
0.511106
2.08294e-06
0.511106
1.95147e-06
0.511106
1.8788e-06
0.511107
1.72388e-06
0.511107
1.63724e-06
0.511107
1.57728e-06
0.511107
1.51312e-06
0.511108
1.41111e-06
0.511108
1.24822e-06
0.511109
1.11329e-06
0.511109
1.11681e-06
0.511109
1.24304e-06
0.511109
1.32142e-06
0.511109
1.34497e-06
0.51111
1.36851e-06
0.51111