/*--------------------------------*- C++ -*----------------------------------*\
| =========                 |                                                 |
| \\      /  F ield         | OpenFOAM: The Open Source CFD Toolbox           |
|  \\    /   O peration     | Version:  2406                                  |
|   \\  /    A nd           | Website:  www.openfoam.com                      |
|    \\/     M anipulation  |                                                 |
\*---------------------------------------------------------------------------*/
FoamFile
{
    version     2.0;
    format      ascii;
    arch        "LSB;label=32;scalar=64";
    class       volVectorField;
    location    "1.7";
    object      U;
}
// * * * * * * * * * * * * * * * * * * * * * * * * * * * * * * * * * * * * * //

dimensions      [0 1 -1 0 0 0 0];

internalField   nonuniform List<vector> 
6250
(
(50.5433 0.000102806 0)
(85.4518 0.000529148 0)
(73.2807 0.00083535 0)
(60.635 0.000883965 0)
(59.8905 0.000827785 0)
(63.3497 0.000763539 0)
(64.8592 0.000733763 0)
(64.4078 0.000748316 0)
(63.7907 0.00072466 0)
(63.6881 0.000650298 0)
(63.8308 0.000636958 0)
(63.9151 0.000708397 0)
(63.9046 0.000779462 0)
(63.875 0.000803327 0)
(63.8662 0.000804099 0)
(63.871 0.000823099 0)
(63.8748 0.000857581 0)
(63.8742 0.000877198 0)
(63.8722 0.000857992 0)
(63.871 0.000812847 0)
(63.8705 0.000791237 0)
(63.8701 0.000801413 0)
(63.8694 0.000813008 0)
(63.8687 0.000820725 0)
(63.8681 0.000840892 0)
(63.8675 0.000883398 0)
(63.8667 0.000930054 0)
(63.866 0.000962718 0)
(63.8652 0.000989945 0)
(63.8644 0.00100238 0)
(63.8637 0.000985387 0)
(63.863 0.000955547 0)
(63.8624 0.000925468 0)
(63.8617 0.00090337 0)
(63.861 0.000891268 0)
(63.8603 0.000848197 0)
(63.8597 0.000768504 0)
(63.8593 0.00074281 0)
(63.8586 0.000805934 0)
(63.8578 0.000873875 0)
(63.8572 0.000893971 0)
(63.8565 0.000887749 0)
(63.8558 0.000874837 0)
(63.8552 0.000866779 0)
(63.8546 0.000884875 0)
(63.8539 0.000913589 0)
(63.8532 0.000916664 0)
(63.8526 0.000914939 0)
(63.8519 0.000938451 0)
(63.8512 0.000968921 0)
(63.8504 0.000988662 0)
(63.8497 0.000998986 0)
(63.849 0.000994726 0)
(63.8482 0.000968297 0)
(63.8475 0.000937155 0)
(63.8468 0.000924868 0)
(63.8461 0.000916856 0)
(63.8454 0.000897651 0)
(63.8448 0.000905309 0)
(63.8441 0.000952233 0)
(63.8433 0.000973011 0)
(63.8427 0.000948765 0)
(63.842 0.000936108 0)
(63.8413 0.00094079 0)
(63.8406 0.000921999 0)
(63.84 0.000895195 0)
(63.8393 0.000902238 0)
(63.8386 0.000925924 0)
(63.8379 0.00093982 0)
(63.8372 0.000964417 0)
(63.8366 0.00099882 0)
(63.8358 0.0010068 0)
(63.8351 0.000989987 0)
(63.8345 0.000977192 0)
(63.8338 0.000968825 0)
(63.8332 0.000957822 0)
(63.8325 0.000949418 0)
(63.8318 0.000940248 0)
(63.8312 0.000931973 0)
(63.8304 0.000938593 0)
(63.8297 0.000962572 0)
(63.829 0.000986752 0)
(63.8283 0.000985563 0)
(63.8276 0.000964492 0)
(63.827 0.000950196 0)
(63.8263 0.000935559 0)
(63.8256 0.000909161 0)
(63.825 0.000891771 0)
(63.8243 0.000896263 0)
(63.8237 0.000924416 0)
(63.823 0.000978106 0)
(63.8222 0.00102257 0)
(63.8214 0.00100993 0)
(63.8208 0.000952883 0)
(63.8201 0.000900726 0)
(63.8195 0.000877171 0)
(63.8189 0.000882067 0)
(63.8183 0.000904394 0)
(63.8175 0.00092999 0)
(63.8168 0.000950794 0)
(63.816 0.000973102 0)
(63.8152 0.00100327 0)
(63.8145 0.0010186 0)
(63.8138 0.00100147 0)
(63.8132 0.000964193 0)
(63.8126 0.000919261 0)
(63.812 0.000888345 0)
(63.8113 0.000902237 0)
(63.8106 0.000957003 0)
(63.8098 0.00101636 0)
(63.8091 0.00105029 0)
(63.8083 0.00104953 0)
(63.8076 0.00102077 0)
(63.807 0.000979828 0)
(63.8064 0.000936188 0)
(63.8057 0.000888798 0)
(63.8051 0.000850082 0)
(63.8045 0.000852431 0)
(63.8039 0.000902909 0)
(63.8031 0.000961275 0)
(63.8024 0.000988063 0)
(63.8017 0.000980144 0)
(63.801 0.000959088 0)
(63.8003 0.000943697 0)
(63.7997 0.000933423 0)
(63.799 0.000921722 0)
(63.7984 0.000899956 0)
(63.7977 0.000867676 0)
(63.7971 0.000855692 0)
(63.7964 0.000876287 0)
(63.7958 0.000913252 0)
(63.7951 0.00097068 0)
(63.7943 0.00103605 0)
(63.7936 0.00106983 0)
(63.7928 0.0010582 0)
(63.7921 0.00101967 0)
(63.7915 0.000972575 0)
(63.7908 0.000916354 0)
(63.7902 0.00086632 0)
(63.7895 0.000856543 0)
(63.7889 0.000889949 0)
(63.7882 0.000934859 0)
(63.7875 0.000968319 0)
(63.7868 0.000994289 0)
(63.7861 0.00101807 0)
(63.7853 0.00104087 0)
(63.7846 0.00105892 0)
(63.7838 0.00106468 0)
(63.7831 0.00106332 0)
(63.7824 0.00105893 0)
(63.7816 0.00104771 0)
(63.7809 0.00102647 0)
(63.7802 0.00100341 0)
(63.7796 0.000977576 0)
(63.7789 0.000938769 0)
(63.7783 0.000917583 0)
(63.7777 0.000930179 0)
(63.7769 0.000946636 0)
(63.7762 0.00095578 0)
(63.7755 0.000966989 0)
(63.7748 0.000987302 0)
(63.7742 0.00100636 0)
(63.7735 0.00101465 0)
(63.7729 0.00101539 0)
(63.7722 0.00100219 0)
(63.7715 0.000976468 0)
(63.7709 0.000951587 0)
(63.7702 0.000946333 0)
(63.7695 0.000969183 0)
(63.7689 0.000996394 0)
(63.7682 0.00100386 0)
(63.7675 0.0009906 0)
(63.7668 0.000966977 0)
(63.7662 0.000945265 0)
(63.7655 0.00094061 0)
(63.7648 0.000956213 0)
(63.7641 0.000978462 0)
(63.7635 0.000998698 0)
(63.7628 0.00100555 0)
(63.7621 0.000993241 0)
(63.7614 0.000972784 0)
(63.7608 0.00095239 0)
(63.7601 0.000936901 0)
(63.7595 0.000930695 0)
(63.7588 0.000939135 0)
(63.7581 0.000956314 0)
(63.7574 0.000968864 0)
(63.7567 0.000985055 0)
(63.7561 0.00102027 0)
(63.7553 0.00106808 0)
(63.7546 0.00109659 0)
(63.7539 0.00109096 0)
(63.7532 0.00106954 0)
(63.7525 0.0010366 0)
(63.7518 0.000995642 0)
(63.7511 0.000962219 0)
(63.7504 0.000935916 0)
(63.7498 0.000922366 0)
(63.7491 0.000938708 0)
(63.7484 0.000979928 0)
(63.7477 0.00102389 0)
(63.747 0.00105126 0)
(63.7462 0.00104693 0)
(63.7456 0.0010158 0)
(63.7449 0.000981229 0)
(63.7443 0.000951025 0)
(63.7436 0.000923583 0)
(63.743 0.000910632 0)
(63.7423 0.000922088 0)
(63.7416 0.000945298 0)
(63.7409 0.000962157 0)
(63.7402 0.00097579 0)
(63.7395 0.000986106 0)
(63.7388 0.000970515 0)
(63.7382 0.00092435 0)
(63.7376 0.0008772 0)
(63.737 0.000848346 0)
(63.7364 0.00083695 0)
(63.7358 0.000850347 0)
(63.7352 0.000889474 0)
(63.7345 0.000940301 0)
(63.7338 0.00098391 0)
(63.733 0.000999162 0)
(63.7323 0.000987395 0)
(63.7316 0.000964207 0)
(63.731 0.000937137 0)
(63.7304 0.000917451 0)
(63.7297 0.000909445 0)
(63.7291 0.000907572 0)
(63.7285 0.000919098 0)
(63.7278 0.000960517 0)
(63.7271 0.00102312 0)
(63.7263 0.00106482 0)
(63.7256 0.00106346 0)
(63.7249 0.00103386 0)
(63.7242 0.000996988 0)
(63.7236 0.000970806 0)
(63.7229 0.000958029 0)
(63.7222 0.000953876 0)
(63.7216 0.000958752 0)
(63.7209 0.00097131 0)
(63.7202 0.000994412 0)
(63.7196 0.00102014 0)
(63.7189 0.00102983 0)
(63.7183 0.00102089 0)
(63.7176 0.000998513 0)
(63.7169 0.00097008 0)
(63.7161 0.000928865 0)
(63.7156 0.000922263 0)
(63.7146 0.00091243 0)
(50.5435 8.09828e-05 0)
(85.4531 0.000433922 0)
(73.2838 0.000687665 0)
(60.6397 0.00066369 0)
(59.8963 0.000521985 0)
(63.3564 0.000424698 0)
(64.8667 0.000446586 0)
(64.4163 0.000545279 0)
(63.8003 0.000574612 0)
(63.6985 0.000513219 0)
(63.8418 0.000483752 0)
(63.927 0.000516732 0)
(63.9176 0.000539045 0)
(63.8891 0.000519059 0)
(63.8813 0.000484704 0)
(63.8871 0.000477568 0)
(63.892 0.000506936 0)
(63.8925 0.000536945 0)
(63.8917 0.000536829 0)
(63.8915 0.000518048 0)
(63.892 0.000509649 0)
(63.8926 0.00051016 0)
(63.8929 0.00048007 0)
(63.8932 0.000434802 0)
(63.8935 0.000456303 0)
(63.8938 0.000517503 0)
(63.8941 0.000524396 0)
(63.8947 0.000494579 0)
(63.8951 0.000478381 0)
(63.8956 0.000458187 0)
(63.8961 0.000419735 0)
(63.8965 0.000401723 0)
(63.8968 0.000431285 0)
(63.8971 0.000465084 0)
(63.8974 0.000466687 0)
(63.8979 0.00045039 0)
(63.8982 0.000425164 0)
(63.8984 0.00042086 0)
(63.8987 0.000456339 0)
(63.8991 0.000483113 0)
(63.8995 0.000477979 0)
(63.8998 0.000450232 0)
(63.9002 0.000418802 0)
(63.9006 0.000415579 0)
(63.9008 0.000421084 0)
(63.9013 0.00040482 0)
(63.9018 0.00039098 0)
(63.9021 0.000404469 0)
(63.9025 0.000428663 0)
(63.903 0.000446623 0)
(63.9034 0.000464146 0)
(63.9038 0.000476995 0)
(63.9042 0.000476028 0)
(63.9047 0.000471075 0)
(63.905 0.000476893 0)
(63.9054 0.000495258 0)
(63.9058 0.000504739 0)
(63.9062 0.000482799 0)
(63.9064 0.000456003 0)
(63.9068 0.000439576 0)
(63.9072 0.000404732 0)
(63.9076 0.00038529 0)
(63.908 0.000410907 0)
(63.9083 0.000433024 0)
(63.9088 0.000437112 0)
(63.9091 0.000440226 0)
(63.9093 0.000446853 0)
(63.9098 0.00045382 0)
(63.9101 0.000432468 0)
(63.9105 0.000389046 0)
(63.911 0.000370345 0)
(63.9114 0.000374677 0)
(63.9118 0.000379748 0)
(63.9122 0.00038236 0)
(63.9126 0.000369616 0)
(63.913 0.000352184 0)
(63.9133 0.000365016 0)
(63.9137 0.000406538 0)
(63.914 0.000443752 0)
(63.9144 0.0004463 0)
(63.9148 0.000431242 0)
(63.9153 0.000433681 0)
(63.9156 0.000431624 0)
(63.9159 0.000413833 0)
(63.9162 0.00040573 0)
(63.9166 0.000393691 0)
(63.9169 0.000377377 0)
(63.9173 0.000392081 0)
(63.9176 0.000420927 0)
(63.918 0.000432555 0)
(63.9184 0.000449311 0)
(63.9189 0.000469763 0)
(63.9193 0.000457204 0)
(63.9196 0.000422586 0)
(63.9199 0.000392829 0)
(63.9201 0.000375359 0)
(63.9205 0.000384304 0)
(63.9208 0.000425137 0)
(63.9212 0.000485134 0)
(63.9216 0.000526094 0)
(63.922 0.000510293 0)
(63.9225 0.000448597 0)
(63.923 0.000376956 0)
(63.9234 0.000340399 0)
(63.9238 0.000361694 0)
(63.924 0.000407284 0)
(63.9243 0.000444712 0)
(63.9246 0.000464063 0)
(63.925 0.000458726 0)
(63.9254 0.000435672 0)
(63.9259 0.00040151 0)
(63.9264 0.000358284 0)
(63.9268 0.000327964 0)
(63.9272 0.000331407 0)
(63.9275 0.000362451 0)
(63.9278 0.000402858 0)
(63.928 0.000426276 0)
(63.9282 0.000424942 0)
(63.9286 0.000424094 0)
(63.929 0.000429155 0)
(63.9294 0.000429034 0)
(63.9299 0.000429956 0)
(63.9303 0.000428605 0)
(63.9307 0.000414441 0)
(63.931 0.000395744 0)
(63.9313 0.000387934 0)
(63.9315 0.0003908 0)
(63.9318 0.00039355 0)
(63.9321 0.000406968 0)
(63.9324 0.000437806 0)
(63.9328 0.000459571 0)
(63.933 0.000458278 0)
(63.9334 0.000438631 0)
(63.9339 0.000406706 0)
(63.9343 0.000368251 0)
(63.9347 0.000338942 0)
(63.9351 0.000350736 0)
(63.9354 0.000392822 0)
(63.9357 0.000427249 0)
(63.936 0.000452262 0)
(63.9363 0.000469647 0)
(63.9367 0.000463936 0)
(63.9371 0.000434275 0)
(63.9375 0.00040634 0)
(63.9379 0.000395042 0)
(63.9383 0.000394927 0)
(63.9388 0.000401545 0)
(63.9393 0.000410863 0)
(63.9397 0.000423469 0)
(63.9402 0.000433956 0)
(63.9406 0.000427761 0)
(63.941 0.000391899 0)
(63.9414 0.000347306 0)
(63.9417 0.000330595 0)
(63.942 0.000338541 0)
(63.9423 0.000381188 0)
(63.9427 0.000451934 0)
(63.9431 0.000488591 0)
(63.9434 0.000463703 0)
(63.9437 0.000393095 0)
(63.9441 0.000323619 0)
(63.9445 0.000291341 0)
(63.9448 0.000291432 0)
(63.9452 0.000324504 0)
(63.9456 0.000369027 0)
(63.946 0.000387907 0)
(63.9464 0.000374416 0)
(63.9467 0.000348051 0)
(63.9471 0.000335801 0)
(63.9475 0.000342933 0)
(63.9479 0.000354246 0)
(63.9483 0.000359444 0)
(63.9487 0.000370019 0)
(63.949 0.000392641 0)
(63.9493 0.00041134 0)
(63.9497 0.000411475 0)
(63.95 0.00039014 0)
(63.9504 0.000363993 0)
(63.9509 0.000347209 0)
(63.9512 0.000343496 0)
(63.9516 0.000353114 0)
(63.952 0.000363603 0)
(63.9524 0.000373735 0)
(63.9527 0.000385476 0)
(63.9531 0.000397186 0)
(63.9535 0.000403947 0)
(63.9539 0.000390082 0)
(63.9542 0.000369306 0)
(63.9546 0.000366961 0)
(63.955 0.000375775 0)
(63.9555 0.000372259 0)
(63.9559 0.000353146 0)
(63.9563 0.00034293 0)
(63.9567 0.000349908 0)
(63.957 0.00036264 0)
(63.9574 0.000375399 0)
(63.9577 0.00038967 0)
(63.9581 0.000413553 0)
(63.9583 0.000435891 0)
(63.9587 0.00043276 0)
(63.9591 0.000409033 0)
(63.9595 0.000382158 0)
(63.9599 0.000351855 0)
(63.9602 0.00032788 0)
(63.9606 0.000335508 0)
(63.9609 0.0003669 0)
(63.9612 0.00039434 0)
(63.9616 0.00041593 0)
(63.9619 0.000436721 0)
(63.9623 0.000439823 0)
(63.9627 0.000413748 0)
(63.963 0.000386179 0)
(63.9634 0.000383279 0)
(63.9638 0.000384516 0)
(63.9641 0.0003681 0)
(63.9644 0.000358324 0)
(63.9646 0.000372495 0)
(63.9649 0.000380584 0)
(63.9652 0.000371954 0)
(63.9656 0.000375352 0)
(63.966 0.000401074 0)
(63.9664 0.000429326 0)
(63.9669 0.000437091 0)
(63.9672 0.000424603 0)
(63.9676 0.000402437 0)
(63.9679 0.000372195 0)
(63.9682 0.000345198 0)
(63.9685 0.000336138 0)
(63.9689 0.000345301 0)
(63.9691 0.000362683 0)
(63.9694 0.000384098 0)
(63.9698 0.000409829 0)
(63.9703 0.000418346 0)
(63.9707 0.000395821 0)
(63.971 0.000360119 0)
(63.9714 0.000336058 0)
(63.9717 0.000348215 0)
(63.9721 0.000383402 0)
(63.9723 0.000397715 0)
(63.9727 0.000382041 0)
(63.973 0.000357652 0)
(63.9733 0.0003435 0)
(63.9737 0.000333018 0)
(63.9741 0.000316669 0)
(63.9744 0.000320012 0)
(63.9748 0.00035824 0)
(63.9751 0.000402395 0)
(63.9755 0.000406509 0)
(63.9758 0.000422264 0)
(63.9763 0.000427681 0)
(50.5435 4.43085e-06 0)
(85.4527 3.68931e-05 0)
(73.2826 7.01913e-05 0)
(60.6378 4.28656e-05 0)
(59.894 -9.8143e-06 0)
(63.3538 2.62018e-05 0)
(64.8637 0.000117913 0)
(64.413 0.000178099 0)
(63.7969 0.000212863 0)
(63.6949 0.000230645 0)
(63.8381 0.000199143 0)
(63.9231 0.000140074 0)
(63.9133 0.000114038 0)
(63.8845 0.000129451 0)
(63.8764 0.000142253 0)
(63.8817 0.000111454 0)
(63.8862 6.32259e-05 0)
(63.8864 5.14177e-05 0)
(63.8852 0.000101633 0)
(63.8847 0.000192086 0)
(63.8848 0.000230939 0)
(63.8852 0.000205737 0)
(63.8853 0.000170238 0)
(63.8852 0.000149801 0)
(63.8851 0.000183694 0)
(63.8852 0.000207719 0)
(63.8853 0.000163683 0)
(63.8853 0.00014067 0)
(63.8854 0.000150579 0)
(63.8854 0.000144197 0)
(63.8853 0.000140285 0)
(63.8852 0.00013826 0)
(63.8854 0.000150227 0)
(63.8855 0.000185008 0)
(63.8854 0.000192903 0)
(63.8854 0.000184311 0)
(63.8855 0.000186758 0)
(63.8856 0.000193402 0)
(63.8856 0.000205015 0)
(63.8856 0.000194693 0)
(63.8857 0.000177049 0)
(63.8857 0.000170895 0)
(63.8856 0.000157362 0)
(63.8858 0.00015774 0)
(63.8859 0.000159443 0)
(63.8859 0.000143982 0)
(63.8858 0.000139753 0)
(63.8859 0.000146783 0)
(63.886 0.000167393 0)
(63.886 0.000199224 0)
(63.886 0.000199053 0)
(63.8861 0.000161304 0)
(63.8861 0.000129013 0)
(63.8861 0.000139584 0)
(63.8862 0.000182237 0)
(63.8862 0.000200524 0)
(63.8862 0.000186957 0)
(63.8863 0.000194751 0)
(63.8863 0.000227742 0)
(63.8864 0.000233636 0)
(63.8864 0.000203395 0)
(63.8864 0.00018617 0)
(63.8864 0.000177264 0)
(63.8864 0.000149661 0)
(63.8865 0.000164676 0)
(63.8866 0.000230107 0)
(63.8865 0.000254742 0)
(63.8866 0.000228755 0)
(63.8867 0.000198698 0)
(63.8867 0.000173255 0)
(63.8867 0.000168159 0)
(63.8868 0.000189256 0)
(63.8868 0.000196655 0)
(63.8868 0.000170865 0)
(63.8869 0.000147111 0)
(63.8869 0.000160992 0)
(63.8868 0.000196639 0)
(63.8869 0.000225916 0)
(63.887 0.000254452 0)
(63.887 0.000266417 0)
(63.8869 0.000245966 0)
(63.887 0.000232807 0)
(63.887 0.000240664 0)
(63.887 0.000239468 0)
(63.8871 0.000230881 0)
(63.8871 0.000229963 0)
(63.887 0.000222941 0)
(63.8871 0.000205498 0)
(63.8871 0.000196449 0)
(63.8872 0.000191486 0)
(63.8872 0.000193775 0)
(63.8872 0.000222363 0)
(63.8872 0.000257667 0)
(63.8872 0.000279461 0)
(63.8873 0.000279376 0)
(63.8874 0.000245011 0)
(63.8874 0.00020212 0)
(63.8874 0.000186562 0)
(63.8874 0.000205776 0)
(63.8874 0.000235846 0)
(63.8875 0.00022421 0)
(63.8875 0.00016177 0)
(63.8876 0.000109119 0)
(63.8876 0.00011486 0)
(63.8876 0.000161741 0)
(63.8877 0.000207697 0)
(63.8878 0.000239074 0)
(63.8879 0.000253176 0)
(63.8879 0.000248825 0)
(63.888 0.000235963 0)
(63.8879 0.000213432 0)
(63.8879 0.000184459 0)
(63.8879 0.000179154 0)
(63.8879 0.00020473 0)
(63.888 0.000235111 0)
(63.888 0.00026361 0)
(63.8882 0.000287032 0)
(63.8882 0.000289312 0)
(63.8882 0.000272032 0)
(63.8882 0.000236216 0)
(63.8882 0.00018751 0)
(63.8881 0.00016499 0)
(63.8881 0.000179675 0)
(63.8881 0.000196965 0)
(63.8882 0.000212044 0)
(63.8883 0.000248614 0)
(63.8883 0.000302885 0)
(63.8884 0.000334678 0)
(63.8884 0.000323117 0)
(63.8884 0.000304848 0)
(63.8885 0.000301789 0)
(63.8885 0.000293501 0)
(63.8884 0.000278045 0)
(63.8884 0.000274862 0)
(63.8883 0.000273422 0)
(63.8883 0.000244869 0)
(63.8882 0.000215194 0)
(63.8884 0.000216683 0)
(63.8885 0.00022207 0)
(63.8885 0.000208383 0)
(63.8886 0.00019146 0)
(63.8887 0.000199236 0)
(63.8887 0.000228327 0)
(63.8887 0.000248199 0)
(63.8887 0.000241967 0)
(63.8888 0.000208227 0)
(63.8888 0.000164999 0)
(63.8888 0.000137538 0)
(63.8889 0.0001423 0)
(63.8889 0.000178361 0)
(63.889 0.000227205 0)
(63.889 0.00026126 0)
(63.889 0.000264878 0)
(63.8891 0.000263926 0)
(63.8891 0.000262123 0)
(63.8891 0.000242815 0)
(63.8892 0.000231467 0)
(63.8892 0.000244202 0)
(63.8894 0.000271057 0)
(63.8895 0.000291438 0)
(63.8894 0.000297355 0)
(63.8894 0.000290659 0)
(63.8894 0.000253599 0)
(63.8893 0.00020428 0)
(63.8894 0.000175652 0)
(63.8895 0.000177178 0)
(63.8896 0.000215071 0)
(63.8896 0.000258949 0)
(63.8896 0.000272118 0)
(63.8895 0.00025773 0)
(63.8895 0.000227779 0)
(63.8895 0.000189806 0)
(63.8896 0.0001713 0)
(63.8897 0.000193723 0)
(63.8898 0.00023622 0)
(63.8899 0.000272387 0)
(63.8899 0.000285192 0)
(63.8899 0.000267553 0)
(63.8899 0.00023116 0)
(63.8899 0.000190303 0)
(63.8899 0.000161931 0)
(63.89 0.000159468 0)
(63.89 0.000183938 0)
(63.8901 0.000216018 0)
(63.8901 0.000238188 0)
(63.8902 0.000256192 0)
(63.8903 0.000263246 0)
(63.8903 0.000255025 0)
(63.8902 0.00024008 0)
(63.8902 0.000225351 0)
(63.8902 0.000232042 0)
(63.8902 0.000255522 0)
(63.8901 0.000275776 0)
(63.8901 0.000297904 0)
(63.8901 0.000305115 0)
(63.8902 0.000278148 0)
(63.8903 0.000250465 0)
(63.8903 0.000253523 0)
(63.8904 0.000269326 0)
(63.8905 0.000280408 0)
(63.8905 0.000291764 0)
(63.8906 0.000302791 0)
(63.8906 0.000303916 0)
(63.8905 0.000283427 0)
(63.8905 0.000249407 0)
(63.8906 0.000225341 0)
(63.8907 0.000216003 0)
(63.8907 0.000219313 0)
(63.8908 0.000239778 0)
(63.8908 0.000272028 0)
(63.8908 0.000290494 0)
(63.8908 0.000274149 0)
(63.8908 0.0002437 0)
(63.8909 0.000225128 0)
(63.891 0.000210028 0)
(63.891 0.000203292 0)
(63.8911 0.000223411 0)
(63.8913 0.000245422 0)
(63.8913 0.000241762 0)
(63.8913 0.000228192 0)
(63.8913 0.000218292 0)
(63.8913 0.000210955 0)
(63.8913 0.000207468 0)
(63.8914 0.000207581 0)
(63.8915 0.000216914 0)
(63.8916 0.00023399 0)
(63.8917 0.000240975 0)
(63.8917 0.00024493 0)
(63.8918 0.000277282 0)
(63.8918 0.00032315 0)
(63.8917 0.000334895 0)
(63.8917 0.000320229 0)
(63.8918 0.000313523 0)
(63.8917 0.000313217 0)
(63.8917 0.00030621 0)
(63.8917 0.000290648 0)
(63.8917 0.000285014 0)
(63.8918 0.000298898 0)
(63.8919 0.000306371 0)
(63.892 0.00029764 0)
(63.892 0.000289336 0)
(63.8921 0.000290999 0)
(63.8921 0.000298159 0)
(63.8921 0.000297246 0)
(63.892 0.000292533 0)
(63.892 0.000295961 0)
(63.892 0.000293251 0)
(63.8921 0.000279288 0)
(63.8921 0.000267136 0)
(63.8922 0.000273962 0)
(50.5434 1.29103e-06 0)
(85.4528 7.04313e-05 0)
(73.2829 0.000195223 0)
(60.6381 0.000277881 0)
(59.8942 0.000304627 0)
(63.354 0.00037729 0)
(64.864 0.00042507 0)
(64.4133 0.000371692 0)
(63.797 0.000337201 0)
(63.695 0.00036111 0)
(63.8382 0.000364164 0)
(63.9231 0.000347805 0)
(63.9133 0.000360586 0)
(63.8844 0.000393279 0)
(63.8763 0.000416741 0)
(63.8818 0.000413251 0)
(63.8863 0.000387875 0)
(63.8863 0.0003892 0)
(63.8849 0.000417341 0)
(63.8844 0.00041313 0)
(63.8848 0.000341426 0)
(63.8851 0.000290356 0)
(63.8851 0.000347178 0)
(63.885 0.000417299 0)
(63.885 0.000425448 0)
(63.8852 0.000395271 0)
(63.8852 0.000358384 0)
(63.8851 0.000345557 0)
(63.8853 0.000347039 0)
(63.8854 0.000354444 0)
(63.8854 0.000389017 0)
(63.8855 0.000418277 0)
(63.8854 0.000413079 0)
(63.8853 0.000409001 0)
(63.8855 0.000396277 0)
(63.8855 0.000355838 0)
(63.8855 0.000322893 0)
(63.8856 0.000326031 0)
(63.8857 0.000362581 0)
(63.8857 0.000378181 0)
(63.8857 0.000360077 0)
(63.8859 0.000357546 0)
(63.8859 0.000346486 0)
(63.8858 0.000308992 0)
(63.8859 0.000283483 0)
(63.8859 0.000275447 0)
(63.886 0.000273503 0)
(63.886 0.00028451 0)
(63.886 0.000321173 0)
(63.8861 0.000357192 0)
(63.8862 0.000358257 0)
(63.8862 0.000352144 0)
(63.8862 0.00037053 0)
(63.8863 0.000401966 0)
(63.8863 0.000424533 0)
(63.8863 0.000409419 0)
(63.8863 0.000374942 0)
(63.8862 0.000365849 0)
(63.8863 0.000364662 0)
(63.8864 0.000364276 0)
(63.8865 0.000377513 0)
(63.8864 0.000376615 0)
(63.8865 0.000360279 0)
(63.8865 0.000345612 0)
(63.8864 0.000339509 0)
(63.8864 0.000349386 0)
(63.8865 0.000348623 0)
(63.8866 0.000328809 0)
(63.8866 0.000318388 0)
(63.8866 0.000312581 0)
(63.8867 0.000308699 0)
(63.8867 0.000318985 0)
(63.8868 0.000321139 0)
(63.8869 0.000309616 0)
(63.8869 0.000313883 0)
(63.8869 0.00033564 0)
(63.887 0.000345852 0)
(63.887 0.000331883 0)
(63.887 0.00033045 0)
(63.8871 0.000359752 0)
(63.8871 0.000382393 0)
(63.8871 0.000399576 0)
(63.8871 0.000419455 0)
(63.8872 0.000405624 0)
(63.8872 0.000375093 0)
(63.8872 0.000370811 0)
(63.8873 0.000360838 0)
(63.8874 0.000323029 0)
(63.8873 0.000308178 0)
(63.8873 0.00032781 0)
(63.8872 0.00035112 0)
(63.8872 0.000380232 0)
(63.8872 0.000394295 0)
(63.8872 0.000372151 0)
(63.8873 0.000345207 0)
(63.8874 0.000335541 0)
(63.8874 0.00035068 0)
(63.8874 0.000376685 0)
(63.8873 0.00038086 0)
(63.8873 0.000365803 0)
(63.8874 0.000340421 0)
(63.8875 0.000316824 0)
(63.8875 0.000316707 0)
(63.8876 0.0003323 0)
(63.8876 0.000348896 0)
(63.8876 0.000350296 0)
(63.8875 0.000325404 0)
(63.8875 0.00029823 0)
(63.8876 0.000288772 0)
(63.8877 0.000292604 0)
(63.8878 0.000307036 0)
(63.8879 0.000332508 0)
(63.8879 0.00035945 0)
(63.8879 0.000370295 0)
(63.8879 0.000357462 0)
(63.8878 0.000334697 0)
(63.8878 0.000318652 0)
(63.8879 0.000313628 0)
(63.888 0.000327807 0)
(63.8881 0.000358174 0)
(63.8882 0.000379604 0)
(63.8882 0.000391289 0)
(63.8882 0.000411269 0)
(63.8882 0.000423319 0)
(63.8881 0.000404731 0)
(63.8881 0.000372174 0)
(63.8882 0.000354777 0)
(63.8882 0.000349175 0)
(63.8883 0.000341565 0)
(63.8883 0.000345295 0)
(63.8883 0.000363934 0)
(63.8883 0.000381854 0)
(63.8884 0.00039885 0)
(63.8885 0.000423332 0)
(63.8886 0.000445454 0)
(63.8886 0.000427816 0)
(63.8885 0.000371851 0)
(63.8885 0.000325908 0)
(63.8885 0.000298734 0)
(63.8885 0.000276085 0)
(63.8885 0.000265441 0)
(63.8885 0.000278251 0)
(63.8885 0.000303085 0)
(63.8886 0.00031974 0)
(63.8888 0.000330796 0)
(63.8888 0.00034233 0)
(63.8889 0.000352876 0)
(63.8888 0.000354617 0)
(63.8887 0.000336198 0)
(63.8887 0.000302719 0)
(63.8887 0.000280862 0)
(63.8888 0.000288662 0)
(63.8889 0.000309046 0)
(63.889 0.000339753 0)
(63.889 0.000370333 0)
(63.889 0.000355173 0)
(63.8889 0.000302787 0)
(63.8889 0.000256058 0)
(63.8889 0.000244461 0)
(63.889 0.00027278 0)
(63.8891 0.000312437 0)
(63.8892 0.000348816 0)
(63.8893 0.000369097 0)
(63.8893 0.000354723 0)
(63.8893 0.000306824 0)
(63.8893 0.000248997 0)
(63.8893 0.000225814 0)
(63.8894 0.000250953 0)
(63.8896 0.000297168 0)
(63.8897 0.000336816 0)
(63.8897 0.000351781 0)
(63.8897 0.000333929 0)
(63.8896 0.000295926 0)
(63.8896 0.000269228 0)
(63.8896 0.000267448 0)
(63.8896 0.000283038 0)
(63.8897 0.000303259 0)
(63.8898 0.000316594 0)
(63.89 0.000319281 0)
(63.89 0.000306522 0)
(63.89 0.000288216 0)
(63.89 0.000282188 0)
(63.89 0.000287944 0)
(63.89 0.000288866 0)
(63.8899 0.000273415 0)
(63.89 0.000269409 0)
(63.8901 0.000303916 0)
(63.8901 0.000356884 0)
(63.8901 0.000389847 0)
(63.8901 0.000390594 0)
(63.8901 0.000383935 0)
(63.8902 0.000374147 0)
(63.8903 0.00035177 0)
(63.8904 0.000336184 0)
(63.8904 0.000327409 0)
(63.8905 0.000308614 0)
(63.8904 0.000287999 0)
(63.8904 0.000276752 0)
(63.8904 0.00027383 0)
(63.8904 0.000279572 0)
(63.8904 0.000294207 0)
(63.8905 0.000316726 0)
(63.8906 0.000346278 0)
(63.8907 0.00036013 0)
(63.8907 0.000343574 0)
(63.8907 0.00032486 0)
(63.8907 0.000317009 0)
(63.8907 0.000304493 0)
(63.8907 0.000293496 0)
(63.8907 0.000305851 0)
(63.8908 0.000335704 0)
(63.8908 0.000348412 0)
(63.8908 0.000337869 0)
(63.8909 0.000326915 0)
(63.8909 0.000309487 0)
(63.8908 0.00027393 0)
(63.8908 0.000241803 0)
(63.8909 0.000235785 0)
(63.8909 0.000254331 0)
(63.8909 0.000280424 0)
(63.891 0.000299599 0)
(63.891 0.000305686 0)
(63.8911 0.000294241 0)
(63.891 0.000272383 0)
(63.891 0.0002602 0)
(63.891 0.000267335 0)
(63.8911 0.000282107 0)
(63.8911 0.000293185 0)
(63.8911 0.000316484 0)
(63.8911 0.000356689 0)
(63.8911 0.000377141 0)
(63.8911 0.000366584 0)
(63.8912 0.00035133 0)
(63.8912 0.000344891 0)
(63.8913 0.000348425 0)
(63.8914 0.000344289 0)
(63.8913 0.00031452 0)
(63.8914 0.000278411 0)
(63.8914 0.000259547 0)
(63.8914 0.000257263 0)
(63.8914 0.000258138 0)
(63.8914 0.000263215 0)
(63.8915 0.000291197 0)
(63.8916 0.000336878 0)
(63.8917 0.000374948 0)
(63.8917 0.000383404 0)
(63.8917 0.000355691 0)
(63.8917 0.000327761 0)
(63.8917 0.000316369 0)
(63.8917 0.000323871 0)
(50.5435 7.79682e-06 0)
(85.4527 6.49573e-05 0)
(73.2826 0.000117936 0)
(60.6378 0.000139028 0)
(59.894 0.000136981 0)
(63.3537 0.00017205 0)
(64.8639 0.000215366 0)
(64.4132 0.000200779 0)
(63.7967 0.000169649 0)
(63.6949 0.000177465 0)
(63.8381 0.00020426 0)
(63.923 0.000214806 0)
(63.9132 0.000196685 0)
(63.8843 0.000162629 0)
(63.8762 0.00013926 0)
(63.8818 0.000156384 0)
(63.8862 0.000180353 0)
(63.8864 0.0001696 0)
(63.8853 0.000143571 0)
(63.8849 0.000131311 0)
(63.8851 0.000135855 0)
(63.8852 0.000154431 0)
(63.8852 0.000196824 0)
(63.8852 0.000196447 0)
(63.8852 0.00013941 0)
(63.8854 0.000141606 0)
(63.8854 0.000178797 0)
(63.8853 0.000149097 0)
(63.8854 0.000101512 0)
(63.8854 0.000101693 0)
(63.8853 0.000122379 0)
(63.8854 0.000137085 0)
(63.8855 0.000139468 0)
(63.8856 0.000127951 0)
(63.8856 0.000112224 0)
(63.8857 9.89985e-05 0)
(63.8857 0.000103649 0)
(63.8857 0.000123079 0)
(63.8856 0.000126625 0)
(63.8857 0.000101616 0)
(63.8858 7.96819e-05 0)
(63.8857 9.9672e-05 0)
(63.8857 0.000131927 0)
(63.8858 0.000143454 0)
(63.8859 0.000140283 0)
(63.8858 0.000125058 0)
(63.8858 0.000121857 0)
(63.8858 0.000135612 0)
(63.8859 0.000132509 0)
(63.8859 0.000111503 0)
(63.886 9.04176e-05 0)
(63.886 8.96849e-05 0)
(63.8861 0.000127801 0)
(63.8861 0.000182246 0)
(63.8861 0.000213953 0)
(63.8862 0.000210986 0)
(63.8861 0.000192571 0)
(63.8861 0.000182082 0)
(63.8862 0.000160588 0)
(63.8861 0.000132163 0)
(63.8862 0.000132368 0)
(63.8863 0.000148613 0)
(63.8863 0.00017216 0)
(63.8864 0.000195467 0)
(63.8864 0.000194383 0)
(63.8865 0.000188732 0)
(63.8864 0.000179493 0)
(63.8865 0.000144901 0)
(63.8866 0.00011436 0)
(63.8866 0.00010745 0)
(63.8866 9.99913e-05 0)
(63.8866 9.02105e-05 0)
(63.8866 8.88815e-05 0)
(63.8866 8.09679e-05 0)
(63.8866 7.44223e-05 0)
(63.8867 0.000101957 0)
(63.8867 0.000150133 0)
(63.8868 0.000178284 0)
(63.8868 0.000191215 0)
(63.8868 0.000209208 0)
(63.8868 0.000215412 0)
(63.8868 0.000205997 0)
(63.8869 0.000196449 0)
(63.887 0.000183687 0)
(63.887 0.000168782 0)
(63.887 0.00016067 0)
(63.8871 0.000165051 0)
(63.8871 0.000182249 0)
(63.8871 0.000222094 0)
(63.8872 0.000284254 0)
(63.8871 0.000315063 0)
(63.8871 0.00028794 0)
(63.8872 0.00023036 0)
(63.8872 0.000164348 0)
(63.8872 0.000132997 0)
(63.8872 0.000161456 0)
(63.8872 0.000218495 0)
(63.8872 0.000258908 0)
(63.8873 0.000242934 0)
(63.8873 0.00018184 0)
(63.8874 0.000121262 0)
(63.8874 8.50059e-05 0)
(63.8874 7.88388e-05 0)
(63.8875 0.000100735 0)
(63.8875 0.00015212 0)
(63.8875 0.000205875 0)
(63.8876 0.000219369 0)
(63.8877 0.000195219 0)
(63.8877 0.000152484 0)
(63.8877 0.000108714 0)
(63.8877 9.08506e-05 0)
(63.8877 0.000110321 0)
(63.8878 0.000152126 0)
(63.8878 0.000192722 0)
(63.8879 0.000214283 0)
(63.8879 0.000212148 0)
(63.888 0.000196965 0)
(63.888 0.000175549 0)
(63.888 0.000154917 0)
(63.888 0.000152347 0)
(63.888 0.000164318 0)
(63.888 0.000173507 0)
(63.8881 0.000183642 0)
(63.8882 0.000198962 0)
(63.8883 0.000201289 0)
(63.8883 0.00018373 0)
(63.8883 0.000178022 0)
(63.8883 0.000210891 0)
(63.8883 0.000262584 0)
(63.8883 0.000299208 0)
(63.8883 0.000304502 0)
(63.8883 0.000283434 0)
(63.8883 0.000243993 0)
(63.8882 0.000193656 0)
(63.8883 0.000170982 0)
(63.8884 0.00018538 0)
(63.8884 0.000197752 0)
(63.8885 0.000204456 0)
(63.8885 0.000215029 0)
(63.8886 0.000223606 0)
(63.8886 0.000219312 0)
(63.8886 0.000191198 0)
(63.8886 0.000150359 0)
(63.8886 0.000112117 0)
(63.8886 9.28407e-05 0)
(63.8886 0.000112257 0)
(63.8887 0.000169431 0)
(63.8888 0.000228841 0)
(63.8889 0.000244796 0)
(63.889 0.000211393 0)
(63.8889 0.000160354 0)
(63.8889 0.000128609 0)
(63.8889 0.000129451 0)
(63.8889 0.00016512 0)
(63.889 0.000228255 0)
(63.8891 0.000275848 0)
(63.8892 0.00028095 0)
(63.8892 0.000248461 0)
(63.8892 0.000201717 0)
(63.8892 0.000163313 0)
(63.8891 0.000124826 0)
(63.8891 9.91335e-05 0)
(63.8891 0.000102456 0)
(63.8893 0.000122708 0)
(63.8894 0.000147635 0)
(63.8894 0.000154705 0)
(63.8894 0.000142742 0)
(63.8893 0.000132349 0)
(63.8893 0.000128358 0)
(63.8893 0.000133471 0)
(63.8894 0.000152608 0)
(63.8895 0.000181652 0)
(63.8896 0.000204171 0)
(63.8897 0.000210465 0)
(63.8897 0.000196352 0)
(63.8897 0.000163421 0)
(63.8897 0.000131387 0)
(63.8897 0.000114686 0)
(63.8898 0.000115104 0)
(63.8898 0.000130153 0)
(63.8899 0.000154938 0)
(63.89 0.000177031 0)
(63.89 0.000193343 0)
(63.8901 0.000208155 0)
(63.8901 0.000199179 0)
(63.8901 0.000172338 0)
(63.8901 0.000167416 0)
(63.8902 0.000186824 0)
(63.8902 0.000209865 0)
(63.8903 0.000217575 0)
(63.8903 0.000209207 0)
(63.8903 0.000198487 0)
(63.8903 0.000186111 0)
(63.8902 0.000179586 0)
(63.8903 0.000193947 0)
(63.8903 0.000223838 0)
(63.8903 0.000249259 0)
(63.8904 0.000264088 0)
(63.8904 0.000267535 0)
(63.8904 0.000250092 0)
(63.8904 0.000220651 0)
(63.8903 0.000194968 0)
(63.8903 0.000181694 0)
(63.8903 0.000186207 0)
(63.8904 0.000196027 0)
(63.8904 0.000208921 0)
(63.8905 0.000232596 0)
(63.8906 0.000249736 0)
(63.8906 0.000239303 0)
(63.8906 0.000210037 0)
(63.8907 0.000193117 0)
(63.8907 0.000193348 0)
(63.8908 0.000191097 0)
(63.8909 0.000191644 0)
(63.891 0.000196318 0)
(63.891 0.000185755 0)
(63.8911 0.000165739 0)
(63.8911 0.000157358 0)
(63.8911 0.000164971 0)
(63.8911 0.000179051 0)
(63.8912 0.000191864 0)
(63.8912 0.000203828 0)
(63.8913 0.000210275 0)
(63.8913 0.000204429 0)
(63.8914 0.000186501 0)
(63.8914 0.000172391 0)