/*--------------------------------*- C++ -*----------------------------------*\
| =========                 |                                                 |
| \\      /  F ield         | OpenFOAM: The Open Source CFD Toolbox           |
|  \\    /   O peration     | Version:  2406                                  |
|   \\  /    A nd           | Website:  www.openfoam.com                      |
|    \\/     M anipulation  |                                                 |
\*---------------------------------------------------------------------------*/
FoamFile
{
    version     2.0;
    format      ascii;
    arch        "LSB;label=32;scalar=64";
    class       surfaceScalarField;
    location    "1";
    object      alphaPhi0.air;
}
// * * * * * * * * * * * * * * * * * * * * * * * * * * * * * * * * * * * * * //

dimensions      [0 3 -1 0 0 0 0];

oriented        oriented;

internalField   nonuniform List<scalar> 
12225
(
0.507388
2.11805e-06
0.50738
7.3367e-06
0.507373
7.66326e-06
0.507369
4.28626e-06
0.507365
3.93256e-06
0.50736
4.51936e-06
0.507355
5.17358e-06
0.507349
6.07483e-06
0.507342
6.64921e-06
0.507336
6.3481e-06
0.50733
6.15265e-06
0.507324
5.80389e-06
0.507319
4.96744e-06
0.507314
5.11541e-06
0.507308
5.59598e-06
0.507303
5.30573e-06
0.507298
4.70795e-06
0.507293
4.72455e-06
0.507289
4.77103e-06
0.507284
4.29904e-06
0.50728
4.53829e-06
0.507275
5.26279e-06
0.507269
5.64057e-06
0.507263
6.39871e-06
0.507255
7.47752e-06
0.507248
7.4378e-06
0.507242
6.13753e-06
0.507236
5.18206e-06
0.507231
5.22413e-06
0.507226
5.28511e-06
0.507221
4.82292e-06
0.507217
4.45654e-06
0.507212
4.8783e-06
0.507206
5.50671e-06
0.507201
5.15469e-06
0.507197
4.24174e-06
0.507193
4.22778e-06
0.507187
5.30948e-06
0.507181
6.45373e-06
0.507174
6.63192e-06
0.507168
5.84757e-06
0.507163
4.89952e-06
0.507159
4.29116e-06
0.507155
4.1472e-06
0.507151
4.38565e-06
0.507146
4.72196e-06
0.507141
5.15965e-06
0.507135
5.91323e-06
0.507128
6.70978e-06
0.507121
6.76431e-06
0.507115
6.04032e-06
0.50711
5.29779e-06
0.507105
4.8988e-06
0.5071
4.85621e-06
0.507095
5.07713e-06
0.50709
5.20682e-06
0.507085
5.10282e-06
0.50708
4.97409e-06
0.507075
5.0846e-06
0.507069
5.55631e-06
0.507063
6.15353e-06
0.507057
6.43692e-06
0.50705
6.30146e-06
0.507044
6.03139e-06
0.507039
5.77554e-06
0.507033
5.54024e-06
0.507028
5.41767e-06
0.507022
5.27569e-06
0.507017
5.04859e-06
0.507012
5.11973e-06
0.507006
5.62845e-06
0.507
6.13318e-06
0.506994
6.22834e-06
0.506988
6.01821e-06
0.506982
5.94998e-06
0.506976
6.09388e-06
0.50697
5.98041e-06
0.506965
5.43631e-06
0.50696
4.90243e-06
0.506955
4.82248e-06
0.50695
5.20643e-06
0.506944
5.7526e-06
0.506938
6.04999e-06
0.506932
5.84472e-06
0.506927
5.42286e-06
0.506921
5.3468e-06
0.506916
5.64212e-06
0.50691
5.88237e-06
0.506904
5.94942e-06
0.506898
6.05177e-06
0.506892
6.12033e-06
0.506886
5.86055e-06
0.50688
5.33886e-06
0.506876
4.86413e-06
0.506871
4.60737e-06
0.506866
4.70405e-06
0.506861
5.12432e-06
0.506856
5.47242e-06
0.50685
5.51364e-06
0.506845
5.54053e-06
0.506839
5.78304e-06
0.506833
5.95697e-06
0.506827
5.77929e-06
0.506822
5.40759e-06
0.506817
5.14004e-06
0.506812
5.0361e-06
0.506807
4.96916e-06
0.506802
4.84675e-06
0.506797
4.6994e-06
0.506792
4.69614e-06
0.506787
5.03869e-06
0.506782
5.58561e-06
0.506776
5.87683e-06
0.50677
5.76107e-06
0.506765
5.5377e-06
0.506759
5.30825e-06
0.506754
4.90965e-06
0.50675
4.51091e-06
0.506745
4.47464e-06
0.506741
4.74035e-06
0.506736
4.98672e-06
0.50673
5.13283e-06
0.506725
5.22618e-06
0.50672
5.27689e-06
0.506715
5.34966e-06
0.506709
5.48841e-06
0.506704
5.5497e-06
0.506698
5.38659e-06
0.506693
5.15087e-06
0.506688
5.11504e-06
0.506683
5.25367e-06
0.506677
5.30927e-06
0.506672
5.20921e-06
0.506667
5.07665e-06
0.506662
4.9824e-06
0.506657
4.91623e-06
0.506652
4.84882e-06
0.506648
4.74425e-06
0.506643
4.69855e-06
0.506638
4.92186e-06
0.506633
5.32566e-06
0.506627
5.52943e-06
0.506622
5.45567e-06
0.506616
5.42826e-06
0.506611
5.54737e-06
0.506605
5.54333e-06
0.5066
5.33825e-06
0.506595
5.23369e-06
0.506589
5.43908e-06
0.506583
5.82238e-06
0.506577
6.152e-06
0.506571
6.27115e-06
0.506565
6.13744e-06
0.506559
5.94283e-06
0.506553
5.98642e-06
0.506547
6.27246e-06
0.50654
6.45814e-06
0.506534
6.32994e-06
0.506528
6.05092e-06
0.506522
5.85907e-06
0.506516
5.80934e-06
0.50651
5.87871e-06
0.506504
6.04477e-06
0.506498
6.21528e-06
0.506492
6.29504e-06
0.506485
6.27962e-06
0.506479
6.15327e-06
0.506473
5.89469e-06
0.506468
5.64199e-06
0.506462
5.56501e-06
0.506456
5.57482e-06
0.506451
5.47651e-06
0.506446
5.33214e-06
0.50644
5.34314e-06
0.506435
5.48074e-06
0.506429
5.53257e-06
0.506424
5.4487e-06
0.506418
5.38262e-06
0.506413
5.4204e-06
0.506408
5.48821e-06
0.506402
5.50334e-06
0.506397
5.42659e-06
0.506391
5.24119e-06
0.506386
5.02428e-06
0.506381
4.91666e-06
0.506377
4.92208e-06
0.506372
4.92764e-06
0.506367
4.90159e-06
0.506362
4.87936e-06
0.506357
4.84679e-06
0.506352
4.8085e-06
0.506347
4.83108e-06
0.506342
4.90401e-06
0.506338
4.91514e-06
0.506333
4.81763e-06
0.506328
4.67114e-06
0.506323
4.52203e-06
0.506319
4.41201e-06
0.506315
4.44182e-06
0.50631
4.63983e-06
0.506305
4.81895e-06
0.5063
4.78001e-06
0.506296
4.59202e-06
0.506291
4.45516e-06
0.506287
4.41038e-06
0.506283
4.40058e-06
0.506278
4.42494e-06
0.506274
4.44898e-06
0.506269
4.39557e-06
0.506265
4.32867e-06
0.506261
4.39093e-06
0.506256
4.55624e-06
0.506251
4.67137e-06
0.506247
4.69835e-06
0.506242
4.71279e-06
0.506237
4.74926e-06
0.506232
4.78607e-06
0.506228
4.81376e-06
0.506223
4.82948e-06
0.506218
4.81739e-06
0.506213
4.79657e-06
0.506208
4.79529e-06
0.506204
4.7907e-06
0.506199
4.77777e-06
0.506194
4.83269e-06
0.506189
4.96808e-06
0.506184
5.05094e-06
0.506179
5.03084e-06
0.506174
5.04728e-06
0.506169
5.14977e-06
0.506163
5.18305e-06
0.506158
5.06347e-06
0.506154
4.90789e-06
0.506149
4.83378e-06
0.506144
4.85041e-06
0.506139
4.9292e-06
0.506134
5.0363e-06
0.506129
5.13336e-06
0.506124
5.22931e-06
0.506118
5.33605e-06
0.506113
5.36246e-06
0.506108
5.2192e-06
0.506103
5.02327e-06
0.506098
4.9883e-06
0.506092
5.1415e-06
0.506087
5.30284e-06
0.506082
5.35236e-06
0.506077
5.20828e-06
0.506071
5.33147e-06
4.70301e-06
0.507393
3.67977e-08
0.507399
1.24654e-06
0.507404
2.2964e-06
0.507405
2.97821e-06
0.507407
2.23773e-06
0.50741
2.15515e-06
0.507412
2.24188e-06
0.507417
1.566e-06
0.507422
2.06893e-06
0.507425
3.17185e-06
0.507428
3.27398e-06
0.50743
3.10555e-06
0.507433
2.64488e-06
0.507436
1.82128e-06
0.50744
1.80994e-06
0.507442
2.84903e-06
0.507444
3.17721e-06
0.507446
2.47793e-06
0.507448
3.11467e-06
0.507448
3.93624e-06
0.50745
2.84144e-06
0.507453
1.68634e-06
0.507457
1.79519e-06
0.507462
1.9097e-06
0.507467
1.57478e-06
0.507473
1.67216e-06
0.507477
2.53411e-06
0.507479
3.08799e-06
0.507481
2.79797e-06
0.507484
2.15505e-06
0.507487
2.08658e-06
0.507489
2.56614e-06
0.507491
2.84814e-06
0.507494
2.9624e-06
0.507496
3.15706e-06
0.507497
3.12887e-06
0.507498
2.78637e-06
0.507501
2.19062e-06
0.507506
1.41863e-06
0.507512
1.00092e-06
0.507516
1.45444e-06
0.507519
2.4557e-06
0.50752
3.03638e-06
0.507522
2.64619e-06
0.507524
2.05828e-06
0.507527
2.06854e-06
0.507529
2.46026e-06
0.507532
2.74638e-06
0.507536
2.96271e-06
0.50754
3.01202e-06
0.507543
2.61456e-06
0.507546
2.23922e-06
0.507549
2.33238e-06
0.507551
2.55146e-06
0.507554
2.64741e-06
0.507556
2.67453e-06
0.507559
2.66502e-06
0.507561
2.64696e-06
0.507564
2.55987e-06
0.507567
2.39642e-06
0.507571
2.32317e-06
0.507575
2.35161e-06
0.507579
2.30237e-06
0.507582
2.28495e-06
0.507586
2.43483e-06
0.507589
2.5202e-06
0.507592
2.53749e-06
0.507594
2.66212e-06
0.507597
2.64041e-06
0.507599
2.3759e-06
0.507603
2.34835e-06
0.507606
2.78045e-06
0.507609
3.19629e-06
0.507612
3.04329e-06
0.507616
2.46211e-06
0.507619
2.11382e-06
0.507623
2.22026e-06
0.507626
2.36587e-06
0.507629
2.27881e-06
0.507632
2.15913e-06
0.507635
2.29238e-06
0.507637
2.788e-06
0.50764
3.46021e-06
0.507642
3.7454e-06
0.507644
3.24133e-06
0.507647
2.35414e-06
0.507651
1.77516e-06
0.507656
1.59736e-06
0.50766
1.55291e-06
0.507664
1.72225e-06
0.507668
2.3228e-06
0.507671
3.09096e-06
0.507673
3.57622e-06
0.507674
3.62117e-06
0.507675
3.23282e-06
0.507677
2.63452e-06
0.50768
2.31543e-06
0.507683
2.36887e-06
0.507686
2.29228e-06
0.50769
1.87746e-06
0.507694
1.61911e-06
0.507698
1.85594e-06
0.507702
2.2972e-06
0.507705
2.63868e-06
0.507707
2.86201e-06
0.507709
3.05593e-06
0.507711
3.22976e-06
0.507712
3.26573e-06
0.507714
2.99214e-06
0.507716
2.37699e-06
0.507719
1.7776e-06
0.507723
1.70768e-06
0.507727
2.09858e-06
0.50773
2.40682e-06
0.507733
2.5169e-06
0.507736
2.71179e-06
0.507738
2.88725e-06
0.50774
2.74559e-06
0.507742
2.46646e-06
0.507744
2.38008e-06
0.507747
2.44439e-06
0.507749
2.51634e-06
0.507752
2.5494e-06
0.507755
2.44977e-06
0.507758
2.2348e-06
0.507761
2.17813e-06
0.507764
2.42486e-06
0.507767
2.70838e-06
0.50777
2.73654e-06
0.507772
2.60627e-06
0.507775
2.59494e-06
0.507777
2.73095e-06
0.50778
2.86857e-06
0.507782
2.93418e-06
0.507784
2.90998e-06
0.507786
2.83496e-06
0.507788
2.81971e-06
0.50779
2.80057e-06
0.507792
2.53774e-06
0.507795
2.15523e-06
0.507798
2.08758e-06
0.507801
2.33454e-06
0.507804
2.43816e-06
0.507807
2.32235e-06
0.507811
2.36961e-06
0.507813
2.63911e-06
0.507816
2.75184e-06
0.507819
2.52616e-06
0.507822
2.16556e-06
0.507826
1.90546e-06
0.50783
1.87418e-06
0.507834
2.10201e-06
0.507838
2.35564e-06
0.507842
2.32186e-06
0.507846
2.08802e-06
0.50785
2.06899e-06
0.507854
2.39636e-06
0.507857
2.77465e-06
0.507861
2.94958e-06
0.507864
2.93937e-06
0.507867
2.82011e-06
0.50787
2.63708e-06
0.507873
2.4817e-06
0.507877
2.39183e-06
0.507881
2.30506e-06
0.507885
2.25639e-06
0.507889
2.3537e-06
0.507892
2.46283e-06
0.507896
2.39699e-06
0.507899
2.291e-06
0.507902
2.36858e-06
0.507905
2.50396e-06
0.507908
2.44787e-06
0.507911
2.26693e-06
0.507914
2.19866e-06
0.507918
2.26498e-06
0.507921
2.30868e-06
0.507924
2.26757e-06
0.507927
2.20514e-06
0.50793
2.18162e-06
0.507934
2.25449e-06
0.507937
2.45547e-06
0.507939
2.6706e-06
0.507941
2.72117e-06
0.507944
2.63467e-06
0.507946
2.58124e-06
0.507948
2.60238e-06
0.507951
2.64831e-06
0.507953
2.71813e-06
0.507955
2.76502e-06
0.507957
2.68634e-06
0.507959
2.53535e-06
0.507962
2.47722e-06
0.507964
2.53788e-06
0.507966
2.62061e-06
0.507968
2.69734e-06
0.50797
2.75527e-06
0.507972
2.69282e-06
0.507974
2.49129e-06
0.507976
2.35166e-06
0.507978
2.43672e-06
0.507981
2.61862e-06
0.507982
2.69668e-06
0.507984
2.67638e-06
0.507986
2.63383e-06
0.507988
2.56621e-06
0.50799
2.53369e-06
0.507992
2.62585e-06
0.507993
2.72177e-06
0.507995
2.6344e-06
0.507997
2.44566e-06
0.507999
2.36772e-06
0.508001
2.41388e-06
0.508004
2.46437e-06
0.508006
2.48426e-06
0.508008
2.50004e-06
0.50801
2.51392e-06
0.508013
2.52684e-06
0.508015
2.54022e-06
0.508017
2.52475e-06
0.508019
2.48162e-06
0.508022
2.47962e-06
0.508024
2.51548e-06
0.508026
2.46385e-06
0.508029
2.30413e-06
0.508032
2.19649e-06
0.508035
2.19776e-06
0.508037
2.17251e-06
0.50804
2.11404e-06
0.508043
2.19251e-06
0.508046
2.41053e-06
0.508049
2.57793e-06
0.508051
2.62107e-06
0.508053
2.60445e-06
0.508055
2.55562e-06
0.508058
2.4871e-06
0.50806
2.45377e-06
0.508063
2.4543e-06
0.508066
2.44486e-06
0.508069
2.47637e-06
0.508071
2.60938e-06
0.508074
2.7266e-06
0.508076
2.66843e-06
0.508079
2.48958e-06
0.508082
2.37674e-06
0.508084
2.41426e-06
0.508087
2.56998e-06
0.50809
2.72743e-06
0.508092
2.76726e-06
2.79144e-06
0.50739
5.20041e-07
0.50739
1.41099e-06
0.50739
2.54643e-06
0.50739
2.52878e-06
0.50739
2.52864e-06
0.507389
2.86166e-06
0.507389
2.65043e-06
0.507389
1.85768e-06
0.50739
4.8159e-07
0.507393
3.5879e-07
0.507395
1.07762e-06
0.507397
1.46635e-06
0.507397
2.43574e-06
0.507395
3.67758e-06
0.507394
3.06944e-06
0.507395
1.49336e-06
0.507396
2.16791e-06
0.507396
3.13436e-06
0.507397
2.02369e-06
0.5074
8.33507e-07
0.507401
1.89817e-06
0.507399
3.2727e-06
0.507398
2.82088e-06
0.507399
1.58479e-06
0.507399
1.41059e-06
0.507398
2.30009e-06
0.507398
2.91646e-06
0.507398
2.463e-06
0.507399
2.10622e-06
0.507399
2.55856e-06
0.507398
3.18112e-06
0.507397
3.04893e-06
0.507398
2.1699e-06
0.507399
1.46057e-06
0.5074
1.93971e-06
0.507401
2.84186e-06
0.5074
3.07534e-06
0.5074
2.63275e-06
0.507399
2.15875e-06
0.507398
2.13368e-06
0.507397
2.42319e-06
0.507397
2.67784e-06
0.507397
2.64864e-06
0.507398
2.18504e-06
0.507398
1.7639e-06
0.507398
1.94932e-06
0.507398
2.44332e-06
0.507399
2.44176e-06
0.507399
2.03235e-06
0.507401
1.89797e-06
0.507401
1.97818e-06
0.507401
2.1167e-06
0.507401
2.45335e-06
0.507401
2.69241e-06
0.507401
2.54372e-06
0.507402
2.19552e-06
0.507402
2.01764e-06
0.507403
2.19323e-06
0.507403
2.4991e-06
0.507403
2.50813e-06
0.507403
2.21465e-06
0.507403
1.99237e-06
0.507404
1.95084e-06
0.507404
2.04616e-06
0.507404
2.29765e-06
0.507404
2.4039e-06
0.507404
2.18031e-06
0.507405
2.04046e-06
0.507405
2.1624e-06
0.507406
2.18631e-06
0.507406
2.03622e-06
0.507407
2.08892e-06
0.507407
2.51826e-06
0.507407
2.90166e-06
0.507407
2.71401e-06
0.507407
2.1115e-06
0.507408
1.68914e-06
0.507408
1.69258e-06
0.507409
1.96303e-06
0.507409
2.29648e-06
0.507408
2.51039e-06
0.507409
2.54738e-06
0.507409
2.63068e-06
0.50741
2.86223e-06
0.507411
2.88818e-06
0.507411
2.50391e-06
0.50741
2.10058e-06
0.50741
2.03376e-06
0.507409
2.09671e-06
0.507409
2.04219e-06
0.507409
2.05875e-06
0.50741
2.28908e-06
0.507411
2.57062e-06
0.507412
2.7963e-06
0.507412
2.84345e-06
0.507412
2.51283e-06
0.507413
2.04221e-06
0.507413
1.9465e-06
0.507413
2.16585e-06
0.507413
2.18898e-06
0.507412
1.98506e-06
0.507412
1.96652e-06
0.507412
2.24887e-06
0.507412
2.56991e-06
0.507413
2.69222e-06
0.507413
2.56596e-06
0.507414
2.3136e-06
0.507415
2.14948e-06
0.507416
2.1711e-06
0.507416
2.17908e-06
0.507416
1.96264e-06
0.507416
1.7595e-06
0.507416
1.89046e-06
0.507416
2.11293e-06
0.507417
2.06943e-06
0.507418
1.97165e-06
0.507418
2.07949e-06
0.507419
2.16735e-06
0.507419
2.05958e-06
0.50742
1.94676e-06
0.50742
1.92917e-06
0.507421
1.93972e-06
0.507422
2.01098e-06
0.507422
2.11159e-06
0.507422
2.05483e-06
0.507422
1.85787e-06
0.507423
1.81722e-06
0.507424
2.04625e-06
0.507424
2.27956e-06
0.507424
2.2937e-06
0.507425
2.19694e-06
0.507425
2.15649e-06
0.507426
2.17581e-06
0.507427
2.22052e-06
0.507427
2.23855e-06
0.507428
2.14724e-06
0.507429
2.05543e-06
0.50743
2.16621e-06
0.50743
2.33153e-06
0.50743
2.27343e-06
0.50743
2.16959e-06
0.50743
2.35418e-06
0.507429
2.63524e-06
0.507429
2.61134e-06
0.507429
2.38444e-06
0.507429
2.32014e-06
0.50743
2.41756e-06
0.50743
2.43067e-06
0.50743
2.28567e-06
0.50743
2.03997e-06
0.50743
1.77891e-06
0.50743
1.71628e-06
0.50743
1.98687e-06
0.50743
2.33745e-06
0.50743
2.40955e-06
0.50743
2.25292e-06
0.50743
2.18664e-06
0.507431
2.29903e-06
0.507431
2.4318e-06
0.507431
2.49112e-06
0.507432
2.46965e-06
0.507432
2.34331e-06
0.507432
2.16956e-06
0.507433
2.07094e-06
0.507433
2.02267e-06
0.507433
1.9574e-06
0.507434
2.0003e-06
0.507434
2.22297e-06
0.507434
2.40973e-06
0.507434
2.41207e-06
0.507434
2.42107e-06
0.507434
2.5861e-06
0.507433
2.734e-06
0.507433
2.69751e-06
0.507433
2.59347e-06
0.507432
2.59769e-06
0.507432
2.69408e-06
0.507431
2.77512e-06
0.507431
2.79183e-06
0.50743
2.71223e-06
0.50743
2.53653e-06
0.50743
2.39074e-06
0.50743
2.38686e-06
0.507431
2.42473e-06
0.507431
2.36115e-06
0.507431
2.23124e-06
0.507432
2.11611e-06
0.507432
2.01629e-06
0.507433
1.97268e-06
0.507434
2.03428e-06
0.507434
2.0879e-06
0.507435
1.99552e-06
0.507436
1.81753e-06
0.507436
1.68346e-06
0.507437
1.6052e-06
0.507439
1.58114e-06
0.50744
1.67701e-06
0.50744
1.8545e-06
0.507441
1.93637e-06
0.507442
1.88426e-06
0.507442
1.88523e-06
0.507443
2.03908e-06
0.507443
2.21721e-06
0.507443
2.32317e-06
0.507444
2.38561e-06
0.507444
2.36973e-06
0.507444
2.24156e-06
0.507445
2.14847e-06
0.507445
2.20403e-06
0.507446
2.2684e-06
0.507446
2.20448e-06
0.507446
2.10771e-06
0.507446
2.10515e-06
0.507447
2.17666e-06
0.507447
2.2665e-06
0.507447
2.3616e-06
0.507447
2.43302e-06
0.507447
2.45066e-06
0.507447
2.43656e-06
0.507447
2.40036e-06
0.507448
2.30937e-06
0.507448
2.2052e-06
0.507448
2.19468e-06
0.507448
2.25624e-06
0.507448
2.27072e-06
0.507448
2.27454e-06
0.507448
2.39243e-06
0.507448
2.53994e-06
0.507447
2.54338e-06
0.507447
2.46636e-06
0.507447
2.47413e-06
0.507447
2.54047e-06
0.507447
2.56319e-06
0.507447
2.5538e-06
0.507447
2.54247e-06
0.507447
2.50711e-06
0.507447
2.47191e-06
0.507447
2.47184e-06
0.507447
2.45127e-06
0.507447
2.38792e-06
0.507447
2.4061e-06
0.507448
2.57841e-06
0.507447
2.77252e-06
0.507447
2.8437e-06
0.507447
2.80088e-06
0.507446
2.71683e-06
0.507446
2.64718e-06
0.507446
2.63207e-06
0.507446
2.67356e-06
2.62472e-06
0.50739
-2.72811e-07
0.50739
1.3667e-06
0.507391
2.15444e-06
0.507392
1.46564e-06
0.507393
1.49202e-06
0.507395
1.23187e-06
0.507396
1.19914e-06
0.507396
2.20028e-06
0.507394
2.68058e-06
0.507392
1.79689e-06
0.507392
1.48152e-06
0.507391
2.37443e-06
0.507391
2.11313e-06
0.507394
7.89658e-07
0.507395
2.06351e-06
0.507393
3.37622e-06
0.507393
2.32269e-06
0.507395
1.34697e-06
0.507395
2.21669e-06
0.507392
3.02142e-06
0.507392
2.50108e-06
0.507393
1.70171e-06
0.507395
1.59676e-06
0.507394
2.49913e-06
0.507392
2.94862e-06
0.507392
2.08375e-06
0.507394
9.15952e-07
0.507396
8.32933e-07
0.507396
1.9269e-06
0.507396
2.33607e-06
0.507398
1.64528e-06
0.5074
8.45378e-07
0.507401
1.25533e-06
0.5074
2.21433e-06
0.507399
2.7623e-06
0.5074
2.39189e-06
0.507401
1.55882e-06
0.507403
1.28809e-06
0.507403
1.93631e-06
0.507402
2.64212e-06
0.507402
2.58405e-06
0.507403
1.99336e-06
0.507404
1.75919e-06
0.507404
2.03254e-06
0.507403
2.35529e-06
0.507403
2.56639e-06
0.507403
2.72135e-06
0.507402
2.48929e-06
0.507403
1.8309e-06
0.507403
1.53431e-06
0.507403
1.7963e-06
0.507403
2.09369e-06
0.507403
2.26793e-06
0.507404
2.28827e-06
0.507404
2.07743e-06
0.507405
1.77544e-06
0.507405
1.5802e-06
0.507406
1.59807e-06
0.507406
1.79101e-06
0.507407
1.89563e-06
0.507408
1.76829e-06
0.507408
1.66737e-06
0.507408
1.73149e-06
0.507408
1.79856e-06
0.507409
1.9112e-06
0.507409
2.02899e-06
0.507409
1.88156e-06
0.50741
1.68147e-06
0.50741
1.86711e-06
0.50741
2.27219e-06
0.50741
2.44033e-06
0.507409
2.33391e-06
0.507409
2.3218e-06
0.50741
2.56197e-06
0.50741
2.67104e-06
0.50741
2.32318e-06
0.50741
1.77457e-06
0.50741
1.47505e-06
0.50741
1.59526e-06
0.50741
2.04583e-06
0.50741
2.51254e-06
0.50741
2.5545e-06
0.507411
2.12485e-06
0.507412
1.67029e-06
0.507414
1.42409e-06
0.507415
1.19546e-06
0.507416
9.87278e-07
0.507417
1.11307e-06
0.507417
1.58425e-06
0.507417
2.00557e-06
0.507417
2.20853e-06
0.507417
2.29248e-06
0.507418
2.26457e-06
0.507418
2.22048e-06
0.507419
2.31493e-06
0.507419
2.32039e-06
0.507419
1.97067e-06
0.507419
1.59398e-06
0.50742
1.63164e-06
0.50742
1.92778e-06
0.50742
2.1375e-06
0.50742
2.29271e-06
0.507419
2.56054e-06
0.507419
2.89812e-06
0.507419
3.11622e-06
0.507418
3.03286e-06
0.507418
2.58938e-06
0.507418
1.97712e-06
0.507419
1.58836e-06
0.507419
1.60558e-06
0.507419
1.7526e-06
0.507419
1.79637e-06
0.507419
1.93568e-06
0.507419
2.23837e-06
0.507419
2.34913e-06
0.507419
2.18969e-06
0.507419
2.11617e-06
0.507419
2.21185e-06
0.507418
2.24961e-06
0.507418
2.20755e-06
0.507418
2.16372e-06
0.507418
2.06788e-06
0.507418
1.98291e-06
0.507418
2.07441e-06
0.507418
2.25891e-06
0.507417
2.29557e-06
0.507417
2.19337e-06
0.507417
2.1838e-06
0.507417
2.32193e-06
0.507417
2.44133e-06
0.507416
2.46195e-06
0.507416
2.44218e-06
0.507416
2.40615e-06
0.507416
2.36718e-06
0.507415
2.34661e-06
0.507415
2.22744e-06
0.507415
1.94599e-06
0.507416
1.75023e-06
0.507416
1.81158e-06
0.507417
1.87348e-06
0.507417
1.7621e-06
0.507418
1.75742e-06
0.507418
2.02454e-06
0.507419
2.22912e-06
0.507419
2.09501e-06
0.50742
1.8078e-06
0.50742
1.61705e-06
0.507421
1.52913e-06
0.507422
1.50776e-06
0.507423
1.52727e-06
0.507423
1.45998e-06
0.507423
1.28639e-06
0.507424
1.25543e-06
0.507425
1.53239e-06
0.507425
1.90963e-06
0.507426
2.12829e-06
0.507426
2.20639e-06
0.507426
2.26022e-06
0.507426
2.28101e-06
0.507426
2.25035e-06
0.507426
2.21008e-06
0.507426
2.13354e-06
0.507427
1.98612e-06
0.507427
1.87287e-06
0.507427
1.85258e-06
0.507427
1.80815e-06
0.507427
1.72774e-06
0.507428
1.77858e-06
0.507428
1.93819e-06
0.507429
1.96171e-06
0.507429
1.81579e-06
0.50743
1.71995e-06
0.507431
1.74691e-06
0.507432
1.74995e-06
0.507433
1.66241e-06
0.507434
1.58299e-06
0.507435
1.58246e-06
0.507436
1.64173e-06
0.507437
1.75483e-06
0.507438
1.90034e-06
0.507439
1.97255e-06
0.507439
1.93071e-06
0.50744
1.89807e-06
0.50744
1.95712e-06
0.50744
2.04221e-06
0.507441
2.1122e-06
0.507441
2.18204e-06
0.50744
2.19342e-06
0.50744
2.1184e-06
0.50744
2.07969e-06
0.50744
2.15124e-06
0.50744
2.22931e-06
0.507439
2.23092e-06
0.507439
2.1914e-06
0.507438
2.11787e-06
0.507438
1.9829e-06
0.507438
1.87894e-06
0.507438
1.9412e-06
0.507438
2.1109e-06
0.507437
2.20659e-06
0.507437
2.21609e-06
0.507437
2.26791e-06
0.507437
2.36781e-06
0.507436
2.44089e-06
0.507436
2.51506e-06
0.507436
2.58983e-06
0.507436
2.53244e-06
0.507436
2.33251e-06
0.507436
2.17773e-06
0.507436
2.14767e-06
0.507436
2.1308e-06
0.507436
2.07699e-06
0.507436
2.05038e-06
0.507436
2.06655e-06
0.507436
2.08769e-06
0.507436
2.11137e-06
0.507437
2.13828e-06
0.507437
2.13493e-06
0.507437
2.09804e-06
0.507438
2.04867e-06
0.507438
1.9477e-06
0.507439
1.76448e-06
0.507439
1.60008e-06
0.50744
1.55255e-06
0.507441
1.53891e-06
0.507441
1.48061e-06
0.507442
1.50015e-06
0.507443
1.67887e-06
0.507444
1.85479e-06
0.507444
1.89499e-06
0.507445
1.88597e-06
0.507446
1.90929e-06
0.507446
1.92033e-06
0.507447
1.90018e-06
0.507448
1.88137e-06
0.507448
1.85242e-06
0.507449
1.81862e-06
0.50745
1.84424e-06
0.50745
1.91075e-06
0.507451
1.90489e-06
0.507451
1.83208e-06
0.507452
1.83215e-06
0.507453
1.9456e-06
0.507453
2.07629e-06
0.507454
2.15632e-06
0.507455
2.17972e-06
0.507455
2.15005e-06
0.507456
2.10452e-06
0.507456
2.09403e-06
2.10504e-06
0.507393
-2.43019e-07
0.507394
-3.96625e-07
0.507396
9.17863e-07
0.507395
2.33987e-06
0.507394
2.28712e-06
0.507392
2.80529e-06
0.507391
2.75562e-06
0.507391
1.94808e-06
0.507391
2.31361e-06
0.50739
2.89155e-06
0.50739
1.42436e-06
0.507393
-3.76997e-07
0.507394
8.334e-07
0.507393
2.07468e-06
0.507394
1.18863e-06
0.507397
2.85254e-07
0.507398
1.25006e-06
0.507397
2.83949e-06
0.507396
3.29073e-06
0.507396
2.18412e-06
0.507398
9.7251e-07
0.507398
1.33543e-06
0.507398
2.313e-06
0.507398
2.24949e-06
0.507399
1.29902e-06
0.507401
7.24785e-07
0.5074
1.32506e-06
0.507399
2.46148e-06
0.507398
2.94101e-06
0.507398
2.16427e-06
0.507398
1.20293e-06
0.507398
1.25481e-06
0.507397
2.22905e-06
0.507397
2.62503e-06
0.507398
1.85238e-06
0.507399
8.98531e-07
0.5074
7.9117e-07
0.5074
1.56736e-06
0.507399
2.4422e-06
0.507399
2.6622e-06
0.507399
2.09614e-06
0.5074
1.25174e-06
0.507401
9.09068e-07
0.507402
1.18085e-06
0.507403
1.4544e-06
0.507404
1.37253e-06
0.507405
1.32835e-06
0.507406
1.47167e-06
0.507407
1.42844e-06
0.507407
1.43556e-06
0.507407
1.78402e-06
0.507407
2.04438e-06
0.507407
1.97581e-06
0.507408
1.79574e-06
0.507408
1.71702e-06
0.507408
1.81173e-06
0.507408
1.96571e-06
0.507407
2.02821e-06
0.507407
2.05664e-06
0.507407
2.1178e-06
0.507406
2.1077e-06
0.507406
2.07416e-06
0.507406
2.09182e-06
0.507406
1.95464e-06
0.507406
1.71765e-06
0.507406
1.68077e-06
0.507406
1.70009e-06
0.507406
1.5807e-06
0.507407
1.59759e-06
0.507407
1.95422e-06
0.507407
2.38702e-06
0.507407
2.48831e-06
0.507407
2.22204e-06
0.507408
1.94188e-06
0.507408
1.80053e-06
0.507409
1.60584e-06
0.50741
1.32185e-06
0.50741
1.15865e-06
0.50741
1.2427e-06
0.507411
1.5939e-06
0.507411
2.15448e-06
0.507411
2.58173e-06
0.507411
2.50494e-06
0.50741
2.09449e-06
0.50741
1.80191e-06
0.507409
1.68578e-06
0.507409
1.55699e-06
0.507408
1.5317e-06
0.507408
1.82729e-06
0.507408
2.25842e-06
0.507408
2.53688e-06
0.507407
2.62817e-06
0.507407
2.4824e-06
0.507407
2.10381e-06
0.507408
1.82155e-06
0.507408
1.79288e-06
0.507408
1.6614e-06
0.507409
1.25063e-06
0.50741
9.31108e-07
0.50741
9.70074e-07
0.507411
1.20268e-06
0.507412
1.4408e-06
0.507413
1.66291e-06
0.507414
1.86252e-06
0.507415
2.00379e-06
0.507416
2.04604e-06
0.507417
1.91575e-06
0.507417
1.56065e-06
0.507418
1.17945e-06
0.507418
1.13885e-06
0.507419
1.43445e-06
0.507419
1.67356e-06
0.507419
1.76192e-06
0.507419
1.9291e-06
0.507419
2.08226e-06
0.50742
1.9663e-06
0.50742
1.73847e-06
0.507421
1.65695e-06
0.507421
1.64375e-06
0.507422
1.59898e-06
0.507422
1.57544e-06
0.507423
1.51829e-06
0.507424
1.36036e-06
0.507424
1.26716e-06
0.507425
1.3961e-06
0.507426
1.60908e-06
0.507426
1.69337e-06
0.507427
1.68826e-06
0.507427
1.74884e-06
0.507428
1.86955e-06
0.507429
1.96325e-06
0.507429
2.0193e-06
0.507429
2.02402e-06
0.50743
1.96561e-06
0.50743
1.94071e-06
0.50743
1.95132e-06
0.507431
1.81348e-06
0.507431
1.56607e-06
0.507431
1.52748e-06
0.507431
1.71557e-06
0.507431
1.79325e-06
0.507431
1.70897e-06
0.507431
1.7606e-06
0.507432
1.98563e-06
0.507432
2.09218e-06
0.507432
1.96878e-06
0.507431
1.7624e-06
0.507431
1.56906e-06
0.507431
1.44443e-06
0.507431
1.4953e-06
0.507431
1.67186e-06
0.507431
1.75005e-06
0.50743
1.69963e-06
0.50743
1.74486e-06
0.50743
1.97373e-06
0.50743
2.22096e-06
0.50743
2.36611e-06
0.50743
2.44019e-06
0.50743
2.44487e-06
0.507429
2.35157e-06
0.507429
2.22493e-06
0.507429
2.11508e-06
0.507429
1.97204e-06
0.507429
1.83143e-06
0.507429
1.81624e-06
0.507429
1.87086e-06
0.507429
1.83786e-06
0.507429
1.7885e-06
0.507429
1.87943e-06
0.507429
2.00461e-06
0.507429
1.96836e-06
0.507429
1.82626e-06
0.507429
1.75404e-06
0.507429
1.75986e-06
0.507429
1.74684e-06
0.507429
1.70839e-06
0.507429
1.68955e-06
0.507429
1.67669e-06
0.507429
1.66736e-06
0.507429
1.71905e-06
0.507429
1.8111e-06
0.507429
1.83189e-06
0.507429
1.7754e-06
0.50743
1.73446e-06
0.50743
1.72047e-06
0.50743
1.70909e-06
0.507431
1.74698e-06
0.507431
1.81902e-06
0.507431
1.80895e-06
0.507432
1.70861e-06
0.507432
1.63072e-06
0.507433
1.59796e-06
0.507434
1.55312e-06
0.507434
1.51605e-06
0.507435
1.5204e-06
0.507435
1.49119e-06
0.507436
1.37975e-06
0.507437
1.30914e-06
0.507437
1.39869e-06
0.507438
1.56167e-06
0.507438
1.6656e-06
0.507439
1.73562e-06
0.50744
1.81157e-06
0.50744
1.82783e-06
0.507441
1.79714e-06
0.507442
1.82983e-06
0.507442
1.88416e-06
0.507443
1.81714e-06
0.507443
1.66567e-06
0.507444
1.58186e-06
0.507444
1.5837e-06
0.507445
1.60668e-06
0.507445
1.6536e-06
0.507446
1.74126e-06
0.507446
1.83422e-06
0.507446
1.90474e-06
0.507446
1.95067e-06
0.507446
1.94526e-06
0.507447
1.88131e-06
0.507447
1.82325e-06
0.507447
1.79808e-06
0.507447
1.72814e-06
0.507447
1.60182e-06
0.507447
1.54786e-06
0.507447
1.59938e-06
0.507447
1.62043e-06
0.507447
1.58748e-06
0.507447
1.64521e-06
0.507447
1.80609e-06
0.507447
1.92111e-06
0.507447
1.94765e-06
0.507447
1.95702e-06
0.507447
1.95674e-06
0.507447
1.92561e-06
0.507447
1.89585e-06
0.507447
1.86691e-06
0.507447
1.80339e-06
0.507447
1.76124e-06
0.507447
1.82147e-06
0.507447
1.9175e-06
0.507447
1.92903e-06
0.507447
1.87717e-06
0.507447
1.85336e-06
0.507447
1.87046e-06
0.507447
1.90457e-06
0.507447
1.94959e-06
0.507448
1.97168e-06
0.507448
1.93491e-06
0.507448
1.86826e-06
1.8219e-06
0.507385
-3.03414e-08
0.507385
-1.00853e-06
0.507386
-1.0618e-07
0.507387
1.68752e-06
0.507388
8.06339e-07
0.507392
-7.01763e-07
0.507394
2.01849e-07
0.507395
1.77411e-06
0.507396
1.13286e-06
0.507399
1.542e-07
0.507398
2.05679e-06
0.507394
3.44749e-06
0.507392
2.44172e-06
0.507394
8.86262e-07
0.507394
6.38723e-07
0.507393
1.71594e-06
0.507392
2.31749e-06
0.507393
1.40926e-06
0.507397
-4.35545e-07
0.507399
-4.41067e-07
0.507399
1.82596e-06
0.507397
3.3726e-06
0.507396
2.65082e-06
0.507398
9.39534e-07
0.507398
7.74586e-07
0.507396
2.48101e-06
0.507394
3.48346e-06
0.507394
2.46318e-06
0.507396
8.09528e-07
0.507399
-1.16489e-07
0.507399
4.56176e-07
0.507399
1.45698e-06
0.507399
1.8857e-06
0.507401
1.45225e-06
0.507402
6.45699e-07
0.507402
7.78939e-07
0.507401
1.67794e-06
0.5074
2.42786e-06
0.5074
2.37434e-06
0.507401
1.84931e-06
0.507402
1.57048e-06
0.507401
1.70956e-06
0.5074
2.09518e-06
0.507399
2.5402e-06
0.507397
2.63053e-06
0.507397
2.02474e-06
0.507397
1.21323e-06
0.507397
9.76576e-07
0.507398
1.14141e-06
0.507398
1.37212e-06
0.507398
1.71971e-06
0.507398
1.93644e-06
0.507398
1.81537e-06
0.507398
1.58598e-06
0.507398
1.53109e-06
0.507399
1.66824e-06
0.507399
1.80364e-06
0.507399
1.71404e-06
0.5074
1.4829e-06
0.5074
1.38809e-06
0.507401
1.40143e-06
0.507402
1.39396e-06
0.507402
1.43105e-06
0.507403
1.36458e-06
0.507404
1.08538e-06
0.507404
9.478e-07
0.507405
1.08479e-06
0.507405
1.16901e-06
0.507406
1.13561e-06
0.507407
1.29123e-06
0.507407
1.7674e-06
0.507407
2.22354e-06
0.507407
2.20336e-06
0.507408
1.74926e-06
0.507408
1.28501e-06
0.507409
1.0312e-06
0.507409
9.88359e-07
0.507409
1.14779e-06
0.507409
1.38689e-06
0.507409
1.54336e-06
0.507409
1.69381e-06
0.50741
1.89839e-06
0.507411
1.88144e-06
0.507411
1.50024e-06
0.507412
1.10676e-06
0.507413
1.01661e-06
0.507413
1.07934e-06
0.507414
1.12805e-06
0.507414
1.3115e-06
0.507415
1.65348e-06
0.507415
1.94307e-06
0.507416
2.14152e-06
0.507416
2.22854e-06
0.507416
2.01166e-06
0.507416
1.60848e-06
0.507417
1.44634e-06
0.507417
1.53512e-06
0.507417
1.5185e-06
0.507416
1.39565e-06
0.507416
1.4595e-06
0.507415
1.75631e-06
0.507414
2.10793e-06
0.507414
2.36025e-06
0.507413
2.41383e-06
0.507413
2.24635e-06
0.507413
1.96896e-06
0.507413
1.72335e-06
0.507413
1.47502e-06
0.507413
1.14432e-06
0.507413
9.43978e-07
0.507414
1.11006e-06
0.507414
1.3966e-06
0.507414
1.46629e-06
0.507415
1.46399e-06
0.507415
1.58577e-06
0.507416
1.65171e-06
0.507416
1.57315e-06
0.507416
1.54001e-06
0.507416
1.5784e-06
0.507416
1.57598e-06
0.507416
1.5892e-06
0.507416
1.65459e-06
0.507416
1.63211e-06
0.507415
1.50232e-06
0.507415
1.46837e-06
0.507415
1.61825e-06
0.507415
1.7794e-06
0.507415
1.81181e-06
0.507415
1.78875e-06
0.507415
1.79733e-06
0.507415
1.82027e-06
0.507415
1.85203e-06
0.507416
1.86539e-06
0.507416
1.76424e-06
0.507416
1.60519e-06
0.507417
1.56232e-06
0.507417
1.54705e-06
0.507417
1.35896e-06
0.507417
1.17024e-06
0.507418
1.27349e-06
0.507418
1.51568e-06
0.507418
1.56366e-06
0.507419
1.46417e-06
0.507419
1.44294e-06
0.50742
1.46413e-06
0.50742
1.39094e-06
0.507421
1.25216e-06
0.507421
1.08592e-06
0.507422
8.72e-07
0.507423
7.2737e-07
0.507423
8.09067e-07
0.507424
1.00966e-06