/*--------------------------------*- C++ -*----------------------------------*\
| =========                 |                                                 |
| \\      /  F ield         | OpenFOAM: The Open Source CFD Toolbox           |
|  \\    /   O peration     | Version:  2406                                  |
|   \\  /    A nd           | Website:  www.openfoam.com                      |
|    \\/     M anipulation  |                                                 |
\*---------------------------------------------------------------------------*/
FoamFile
{
    version     2.0;
    format      ascii;
    arch        "LSB;label=32;scalar=64";
    class       volScalarField;
    location    "1";
    object      p_rgh;
}
// * * * * * * * * * * * * * * * * * * * * * * * * * * * * * * * * * * * * * //

dimensions      [1 -1 -2 0 0 0 0];

internalField   nonuniform List<scalar> 
6250
(
51.2651
-3117.71
-946.334
607.542
559.051
95.1045
-62.7885
13.797
88.883
94.6815
74.4591
64.745
66.7304
70.0869
70.522
69.4406
68.6236
68.3532
68.234
68.0001
67.6766
67.3574
67.0622
66.7767
66.4834
66.185
65.8922
65.5977
65.3017
65.0103
64.7226
64.4307
64.1333
63.8373
63.545
63.2541
62.9631
62.6716
62.3789
62.0808
61.7805
61.4843
61.1915
60.8988
60.6056
60.3151
60.0278
59.7372
59.4388
59.1352
58.8348
58.5423
58.2517
57.9588
57.6645
57.37
57.0756
56.7797
56.4823
56.1861
55.8925
55.6005
55.308
55.0123
54.7155
54.4218
54.1283
53.8325
53.538
53.247
52.9545
52.654
52.3504
52.0529
51.7621
51.4745
51.1834
50.8836
50.5793
50.2771
49.9792
49.6858
49.3958
49.1051
48.8093
48.509
48.2076
47.9068
47.6088
47.3163
47.0277
46.7377
46.4421
46.1405
45.8358
45.5313
45.2315
44.9387
44.6503
44.3622
44.0728
43.7802
43.4825
43.1816
42.8796
42.5767
42.2758
41.9821
41.6954
41.4105
41.1242
40.8351
40.5402
40.239
39.9346
39.6294
39.3255
39.0272
38.7362
38.4492
38.1626
37.8761
37.5901
37.3029
37.0122
36.7163
36.4155
36.1127
35.8099
35.5068
35.2033
34.9019
34.6068
34.3181
34.0314
33.7439
33.4564
33.1692
32.881
32.5915
32.3006
32.007
31.7102
31.4113
31.1114
30.8113
30.5118
30.2137
29.9167
29.6204
29.3234
29.0263
28.7308
28.4376
28.1454
27.8533
27.562
27.2731
26.9857
26.698
26.4094
26.1219
25.8355
25.5478
25.2587
24.9697
24.6806
24.3901
24.0984
23.8065
23.5146
23.2223
22.9289
22.6342
22.3385
22.0425
21.7465
21.4509
21.1558
20.8599
20.562
20.2627
19.9642
19.668
19.3726
19.0763
18.7797
18.4839
18.188
17.891
17.5938
17.2975
17.0016
16.7053
16.4085
16.1121
15.8167
15.5215
15.2254
14.9286
14.632
14.3358
14.0399
13.7442
13.4488
13.1535
12.8576
12.5612
12.2651
11.9694
11.6732
11.3764
11.0803
10.7854
10.491
10.1957
9.89923
9.60209
9.30539
9.00953
8.71411
8.41883
8.12359
7.82813
7.5322
7.23551
6.9379
6.64022
6.34388
6.04868
5.75287
5.4561
5.15977
4.86444
4.56912
4.27296
3.97664
3.68153
3.3878
3.09397
2.79874
2.50279
2.20793
1.91442
1.62045
1.32538
1.03084
0.736849
0.444022
0.144392
51.2177
-3117.79
-946.372
607.571
559.081
95.0994
-62.8026
13.7843
88.8716
94.6747
74.4559
64.7448
66.7414
70.1054
70.5238
69.4261
68.6227
68.3646
68.2362
67.9939
67.6696
67.3521
67.0573
66.7702
66.477
66.1821
65.8972
65.6077
65.3085
65.0106
64.7187
64.43
64.1392
63.8428
63.5443
63.2504
62.9602
62.6672
62.3709
62.0743
61.7822
61.4958
61.2068
60.9078
60.6039
60.3056
60.0169
59.7294
59.4354
59.136
58.8377
58.5464
58.2566
57.9607
57.6613
57.3651
57.0746
56.7841
56.4865
56.1843
55.8857
55.5952
55.3094
55.0175
54.7158
54.4158
54.1247
53.8377
53.5468
53.2495
52.9494
52.6476
52.347
52.0532
51.7642
51.4757
51.1846
50.885
50.5781
50.2731
49.9759
49.6862
49.4005
49.1132
48.8162
48.5088
48.2
47.8976
47.6025
47.3134
47.028
46.7417
46.4491
46.1484
45.8421
45.5334
45.2273
44.9308
44.6441
44.36
44.0734
43.7824
43.4848
43.1821
42.8798
42.5796
42.2801
41.9847
41.6961
41.41
41.1214
40.8305
40.5369
40.2382
39.9356
39.6324
39.3297
39.029
38.7345
38.4472
38.1633
37.8787
37.5923
37.3034
37.011
36.7144
36.413
36.1089
35.8055
35.5049
35.2063
34.9077
34.6105
34.3183
34.0306
33.7435
33.4563
33.1699
32.8821
32.5906
32.297
32.0034
31.7089
31.4123
31.1139
30.8145
30.5144
30.2139
29.9135
29.6149
29.3182
29.0225
28.7281
28.4358
28.1447
27.8536
27.5624
27.2725
26.9853
26.6992
26.4115
26.1226
25.8347
25.5474
25.2583
24.9683
24.6792
24.3908
24.101
23.8091
23.516
23.2231
22.9302
22.6362
22.3409
22.0448
21.7477
21.4496
21.152
20.8561
20.5612
20.2653
19.9682
19.6709
19.3743
19.0774
18.7796
18.4826
18.1871
17.8917
17.5952
17.2984
17.0021
16.7063
16.41
16.1128
15.8159
15.5205
15.2255
14.9294
14.633
14.337
14.0411
13.7448
13.4486
13.1529
12.8573
12.5614
12.2654
11.97
11.6744
11.3776
11.0801
10.7832
10.4876
10.193
9.89863
9.60349
9.30768
9.01153
8.71493
8.41807
8.12163
7.82574
7.5301
7.23475
6.93918
6.64222
6.34431
6.04735
5.7515
5.45533
5.15877
4.86317
4.56885
4.27444
3.97866
3.68206
3.38624
3.09192
2.79812
2.50338
2.20804
1.91356
1.6196
1.32459
1.02934
0.735709
0.441996
0.148504
51.234
-3117.77
-946.36
607.572
559.076
95.0952
-62.7987
13.801
88.8888
94.6792
74.4471
64.7359
66.7348
70.1024
70.5351
69.4341
68.6146
68.3617
68.2422
67.9948
67.6688
67.3567
67.0637
66.7757
66.4839
66.1835
65.8924
65.6067
65.3116
65.012
64.7181
64.4269
64.1347
63.8407
63.5464
63.2539
62.963
62.6686
62.372
62.0769
61.7827
61.4901
61.1975
60.904
60.6101
60.3158
60.0222
59.7278
59.4327
59.1375
58.8414
58.5471
58.2548
57.9605
57.6637
57.3662
57.0707
56.7774
56.4837
56.1884
55.8936
55.6001
55.309
55.0167
54.7171
54.416
54.1229
53.8369
53.5482
53.2495
52.9464
52.6453
52.3481
52.058
51.7709
51.4798
51.1835
50.8809
50.5739
50.2706
49.9764
49.6884
49.4006
49.1099
48.8131
48.5085
48.202
47.9015
47.6086
47.32
47.0319
46.7405
46.4428
46.139
45.8338
45.5307
45.2307
44.936
44.6485
44.3638
44.0762
43.7839
43.485
43.1793
42.8732
42.5731
42.2777
41.9852
41.6975
41.4132
41.1265
40.8348
40.5385
40.237
39.9321
39.6283
39.3276
39.0289
38.7339
38.4454
38.162
37.8795
37.5946
37.3059
37.0132
36.7168
36.4159
36.1106
35.8036
35.4995
35.201
34.906
34.6116
34.3192
34.0309
33.7445
33.4573
33.17
32.8824
32.5925
32.2996
32.0048
31.7085
31.4107
31.1122
30.8133
30.5141
30.2146
29.9151
29.617
29.3208
29.0254
28.7299
28.4356
28.1439
27.8542
27.5646
27.2742
26.9845
26.6974
26.4109
26.1228
25.8347
25.5479
25.2604
24.971
24.6807
24.3906
24.1001
23.8085
23.5156
23.2218
22.9279
22.6337
22.3393
22.0446
21.7493
21.4524
21.154
20.8561
20.5597
20.2639
19.9672
19.6696
19.3731
19.0773
18.7805
18.4827
18.1858
17.8901
17.5944
17.2982
17.0019
16.7059
16.4101
16.1136
15.8161
15.5193
15.2236
14.9283
14.6326
14.3369
14.0413
13.7453
13.4489
13.1527
12.8571
12.5611
12.2643
11.9678
11.6725
11.3778
11.0822
10.7857
10.4889
10.1928
9.8976
9.60244
9.30689
9.01131
8.71572
8.41971
8.12326
7.82653
7.52967
7.23337
6.93812
6.64269
6.34586
6.04869
5.75255
5.45668
5.15993
4.86278
4.56672
4.27222
3.97813
3.68319
3.38755
3.09247
2.79849
2.50431
2.20881
1.9133
1.61932
1.32549
1.03034
0.735285
0.441246
0.147544
51.2338
-3117.77
-946.374
607.56
559.076
95.0973
-62.8122
13.7835
88.8833
94.69
74.4567
64.7352
66.7346
70.0959
70.5247
69.4357
68.6172
68.3554
68.2384
68.0028
67.6721
67.348
67.0568
66.7735
66.4882
66.1927
65.8885
65.5895
65.3045
65.0213
64.7266
64.4244
64.1277
63.839
63.5501
63.2542
62.9571
62.6643
62.3743
62.083
61.7866
61.488
61.1918
60.8997
60.6098
60.3178
60.0231
59.7268
59.4308
59.1365
58.8407
58.5437
58.2498
57.9586
57.6672
57.3721
57.0731
56.7749
56.4805
56.1891
55.8978
55.6021
55.3036
55.0083
54.7143
54.4194
54.1267
53.8376
53.5473
53.2485
52.9445
52.6442
52.3489
52.0595
51.7721
51.4783
51.178
50.8751
50.572
50.2729
49.9813
49.6945
49.4048
49.1089
48.8083
48.5038
48.1985
47.8991
47.608
47.3217
47.0346
46.7426
46.4437
46.1378
45.8304
45.528
45.2316
44.9396
44.6518
44.3655
44.0756
43.7811
43.4828
43.1792
42.8729
42.5715
42.2774
41.9872
41.6995
41.4143
41.1274
40.835
40.5377
40.236
39.9304
39.6253
39.3251
39.0297
38.7374
38.4487
38.164
37.8805
37.5953
37.3059
37.0117
36.7139
36.4137
36.1111
35.806
35.5005
35.1989
34.9035
34.6111
34.3198
34.0311
33.7449
33.4583
33.1704
32.8821
32.5926
32.3003
32.0056
31.709
31.4107
31.1114
30.8117
30.5124
30.2135
29.9146
29.616
29.3192
29.0243
28.7299
28.4355
28.1423
27.8516
27.563
27.2745
26.9852
26.6971
26.4106
26.1233
25.8346
25.5465
25.2591
24.9706
24.6807
24.3901
24.0993
23.8084
23.5165
23.2234
22.9293
22.6346
22.339
22.0431
21.7477
21.4521
21.1553
20.8574
20.5598
20.2633
19.9672
19.6701
19.3728
19.0767
18.7809
18.4842
18.1871
17.8907
17.5948
17.2986
17.0019
16.7051
16.4092
16.1138
15.8176
15.5207
15.2243
14.9285
14.6325
14.3365
14.0408
13.7453
13.4493
13.1532
12.8574
12.562
12.2659
11.9689
11.6721
11.3764
11.0812
10.7859
10.4901
10.1939
9.89792
9.60218
9.30623
9.01026
8.71461
8.41905
8.12337
7.82755
7.53106
7.23382
6.93701
6.64113
6.34489
6.04784
5.75128
5.45581
5.16043
4.86422
4.56764
4.27183
3.97716
3.68284
3.38785
3.09226
2.79734
2.5034
2.20888
1.91328
1.61837
1.32471
1.03045
0.735369
0.440695
0.147361
51.2217
-3117.78
-946.373
607.566
559.09
95.1004
-62.8082
13.7891
88.88
94.681
74.4644
64.7411
66.7277
70.1017
70.5344
69.4368
68.6161
68.357
68.2367
68.0027
67.6797
67.348
67.0493
66.7715
66.4877
66.1941
65.8966
65.5988
65.3062
65.0166
64.7214
64.4256
64.1353
63.8464
63.5513
63.2501
62.953
62.6639
62.3745
62.0811
61.7865
61.4932
61.2001
60.9045
60.6078
60.3124
60.0201
59.7282
59.4334
59.1377
58.8418
58.5459
58.2519
57.959
57.6655
57.3701
57.0724
56.7751
56.4815
56.1908
55.9004
55.6049
55.3027
55.0035
54.7121
54.4239
54.1337
53.8399
53.5445
53.2452
52.9432
52.6459
52.3533
52.0633
51.7739
51.4779
51.1746
50.8703
50.5697
50.2742
49.9843
49.698
49.4079
49.1092
48.8055
48.501
48.1983
47.901
47.6106
47.3242
47.036
46.7422
46.4425
46.1372
45.8294
45.5263
45.231
44.9411
44.6541
44.3678
44.0771
43.7801
43.48
43.178
42.8736
42.5715
42.2769
41.988
41.7009
41.4148
41.1274
40.8345
40.5365
40.2353
39.9311
39.6256
39.3239
39.0286
38.7382
38.4506
38.1656
37.8814
37.5959
37.3068
37.0122
36.7127
36.4104
36.1077
35.8051
35.502
35.2002
34.9033
34.6112
34.3208
34.0319
33.7452
33.4591
33.1712
32.8819
32.5918
32.2998
32.0054
31.7093
31.4115
31.1126
30.8128
30.5128
30.2136
29.9151
29.6167
29.3191
29.0237
28.7302
28.4372
28.1443
27.8523
27.5628
27.275
26.9866
26.6978
26.4106
26.124
25.836
25.5471
25.2589
24.9707
24.6815
24.391
24.0997
23.8081
23.5162
23.2234
22.9297
22.6354
22.3401
22.0436
21.7468
21.4506
21.1546
20.8579
20.5604
20.2634
19.9672
19.6707
19.3731
19.0759
18.7798
18.4837
18.1871
17.8905
17.5944
17.2986
17.0024
16.7054
16.4085
16.1126
15.8169
15.5206
15.2243
14.9285
14.6327
14.3367
14.0407
13.7449
13.4492
13.153
12.8566
12.561
12.2656
11.9695
11.6728
11.3762
11.0802
10.7848
10.4896
10.194
9.89832
9.60277
9.30698
9.01082
8.7147
8.41867
8.12262
7.8269
7.5313
7.23486
6.93779
6.64137
6.34541
6.04874
5.75158
5.45512
5.15965
4.86439
4.5686
4.27251
3.97695
3.68237
3.38811
3.0931
2.79769
2.50321
2.20927
1.91422
1.61857
1.32416
1.03041
0.735913
0.441066
0.147204
51.2204
-3117.78
-946.38
607.557
559.081
95.1021
-62.8072
13.7832
88.8803
94.6709
74.4522
64.7515
66.7359
70.0893
70.5263
69.444
68.6213
68.3557
68.2323
67.9911
67.6751
67.361
67.0627
66.7712
66.4747
66.1829
65.8979
65.6067
65.3072
65.009
64.7165
64.4272
64.1365
63.8413
63.5454
63.2528
62.962
62.6692
62.3706
62.0716
61.7795
61.4923
61.2021
60.9046
60.6059
60.3121
60.023
59.7317
59.4326
59.1319
58.8369
58.547
58.257
57.9618
57.6621
57.3636
57.0694
56.7783
56.4876
56.194
55.898
55.6011
55.301
55.0024
54.711
54.4247
54.136
53.8397
53.5402
53.2408
52.942
52.6481
52.3576
52.0656
51.7718
51.4737
51.1702
50.867
50.5693
50.2771
49.9877
49.6992
49.4074
49.1074
48.802
48.4977
48.1977
47.9031
47.6133
47.3259
47.0359
46.7395
46.4382
46.1344
45.8292
45.5272
45.2326
44.9435
44.6561
44.3688
44.0778
43.7794
43.4764
43.1737
42.8718
42.5716
42.2775
41.9899
41.7038
41.4169
41.1281
40.8344
40.5347
40.2322
39.929
39.6255
39.324
39.0282
38.7384
38.4522
38.1676
37.8829
37.5964
37.3068
37.0128
36.7135
36.4099
36.105
35.8019
35.5007
35.2003
34.9029
34.6106
34.3212
34.0326
33.7454
33.4596
33.1724
32.883
32.5922
32.2996
32.0049
31.7084
31.4105
31.1117
30.8122
30.5122
30.2127
29.9145
29.6168
29.3193
29.0229
28.7285
28.4359
28.1443
27.8526
27.562
27.2736
26.986
26.6976
26.4095
26.1229
25.836
25.5475
25.2586
24.9698
24.6808
24.3909
24.0999
23.8079
23.5156
23.2226
22.9287
22.6346
22.3401
22.0443
21.7475
21.4505
21.1539
20.8576
20.5606
20.2632
19.9666
19.6705
19.3738
19.0764
18.7796
18.4835
18.1874
17.8908
17.5943
17.2982
17.0026
16.7063
16.4092
16.1124
15.8165
15.5206
15.2244
14.9285
14.6328
14.3369
14.0409
13.7451
13.4495
13.1537
12.8572
12.5607
12.2649
11.9693
11.6734
11.3772
11.081
10.785
10.4894
10.1937
9.89794
9.60236
9.30688
9.01108
8.71511
8.41909
8.12273
7.82635
7.53056
7.23471
6.9379
6.64094
6.3448
6.04877
5.75206
5.45508
5.15877
4.86336
4.56824
4.27282
3.97715
3.68193
3.38756
3.09318
2.79784
2.50247
2.20829
1.91421
1.61891
1.32369
1.02961
0.735597
0.441105
0.147051
51.2142
-3117.79
-946.383
607.55
559.072
95.1072
-62.7925
13.779
88.8773
94.6875
74.454
64.7386
66.7348
70.1
70.5279
69.4363
68.6236
68.3594
68.2361
67.9981
67.6748
67.3578
67.0562
66.7678
66.4834
66.1922
65.8955
65.5969
65.3017
65.0146
64.7269
64.4314
64.1325
63.8358
63.5456
63.2579
62.9659
62.6692
62.3713
62.0767
61.7854
61.4933
61.1974
60.8991
60.6047
60.3152
60.026
59.7321
59.4312
59.1303
58.8375
58.5504
58.2606
57.9628
57.6594
57.3593
57.0681
56.7817
56.4929
56.1961
55.8936
55.5949
55.3007
55.0082
54.7172
54.4272
54.1356
53.838
53.5375
53.2398
52.9442
52.6519
52.3619
52.0676
51.7693
51.469
51.1671
50.8666
50.5716
50.2818
49.9922
49.7004
49.4057
49.1053
48.8002
48.4964
48.1981
47.9057
47.6168
47.3285
47.0371
46.7388
46.4353
46.1313
45.8286
45.5288
45.2351
44.9466
44.6587
44.3692
44.0772
43.779
43.4749
43.1709
42.8704
42.5726
42.279
41.9913
41.7058
41.4182
41.1281
40.834
40.5339
40.2303
39.927
39.6251
39.3252
39.0296
38.7397
38.4538
38.1695
37.8845
37.5967
37.3056
37.0109
36.7125
36.4101
36.1047
35.8002
35.4992
35.2005
34.9037
34.6109
34.3219
34.034
33.7462
33.4595
33.1725
32.8836
32.5928
32.3002
32.0054
31.7087
31.4106
31.1115
30.8123
30.5127
30.2129
29.9143
29.6171
29.3203
29.024
28.7288
28.4356
28.1443
27.8537
27.5631
27.274
26.9866
26.699
26.4106
26.1229
25.836
25.5483
25.2596
24.9703
24.6808
24.391
24.1004
23.8087
23.5164
23.2235
22.9293
22.6345
22.3396
22.0443
21.7481
21.4511
21.1539
20.8575
20.561
20.2638
19.9664
19.67
19.3738
19.0769
18.7798
18.4834
18.1874
17.8912
17.5946
17.2978
17.0017
16.706
16.4096
16.1128
15.8164
15.5205
15.2243
14.9282
14.6325
14.3369
14.041
13.7449
13.4491
13.1536
12.8576
12.5611
12.2646
11.9686
11.6728
11.377
11.0811
10.7852
10.4895
10.194
9.89808
9.60213
9.30643
9.01073
8.715
8.41941
8.12346
7.82683
7.5304
7.23458
6.93828
6.6412
6.34444
6.04843
5.75243
5.45596
5.15938
4.86329
4.56794
4.273
3.97781
3.68226
3.38724
3.0931
2.79858
2.50309
2.20806
1.91412
1.61963
1.32425
1.02948
0.73547
0.441232
0.147313
51.2127
-3117.79
-946.391
607.552
559.079
95.0931
-62.8055
13.7859
88.8801
94.6808
74.4537
64.7388
66.7274
70.0954
70.5318
69.4313
68.6158
68.3639
68.2448
68.0037
67.6657
67.3427
67.0567
66.7768
66.487
66.1844
65.8848
65.5986
65.3133
65.0207
64.7213
64.4228
64.1311
63.8429
63.551
63.2533
62.9539
62.6595
62.3709
62.0831
61.7899
61.4906
61.1913
60.8971
60.6089
60.3205
60.0253
59.7257
59.4264
59.1319
58.843
58.5541
58.2588
57.9578
57.656
57.3596
57.0712
56.7849
56.4941
56.1952
55.8902
55.5899
55.2991
55.012
54.7223
54.4279
54.1317
53.8332
53.534
53.2392
52.9467
52.6547
52.3632
52.0672
51.7658
51.464
51.164
50.8667
50.5737
50.2848
49.9951
49.7003
49.4017
49.1005
48.7974
48.4959
48.1994
47.9081
47.6189
47.3287
47.0356
46.737
46.4329
46.1285
45.8275
45.53
45.2369
44.9486
44.6606
44.3692
44.075
43.7772
43.4739
43.1691
42.8686
42.5729
42.2806
41.9926
41.707
41.4191
41.1276
40.8326
40.5329
40.229
39.9248
39.6235
39.3255
39.0311
38.7413
38.4552
38.1708
37.8859
37.5979
37.3056
37.0091
36.7097
36.4082
36.1042
35.7994
35.4977
35.1999
34.9042
34.6111
34.3219
34.0346
33.7472
33.4597
33.1724
32.8835
32.5925
32.2998
32.0051
31.7084
31.4102
31.1109
30.8116
30.5124
30.2128
29.9137
29.6159
29.3195
29.024
28.7291
28.4352
28.1433
27.8532
27.5632
27.2734
26.9855
26.6985
26.4107
26.1226
25.835
25.5475
25.2593
24.9702
24.6804
24.3903
24.0997
23.8082
23.5158
23.2231
22.9293
22.6343
22.3388
22.0433
21.7476
21.4512
21.154
20.857
20.5606
20.264
19.9666
19.6695
19.3731
19.0768
18.78
18.4833
18.187
17.8911
17.595
17.2983
17.0015
16.7054
16.4094
16.1128
15.8164
15.5204
15.2245
14.9283
14.6324
14.3368
14.0413
13.7453
13.449
13.1532
12.8575
12.5614
12.265
11.9687
11.6726
11.3768
11.0811
10.7853
10.4895
10.1939
9.89829
9.6024
9.30654
9.01065
8.71461
8.41888
8.12336
7.82717
7.53042
7.23416
6.93818
6.64152
6.34443
6.04779
5.75171
5.45573
5.15958
4.86334
4.56742
4.27225
3.97755
3.6825
3.38716
3.09249
2.79835
2.50335
2.20773
1.91313
1.61918
1.32447
1.02944
0.735052
0.440843
0.147138
51.2143
-3117.79
-946.388
607.543
559.078
95.0983
-62.8114
13.7796
88.885
94.6854
74.4474
64.7363
66.7389
70.1058
70.534
69.4273
68.6089
68.3616
68.2409
67.9964
67.6694
67.3537
67.0658
66.7809
66.4849
66.1811
65.8869
65.6036
65.3141
65.0109
64.7086
64.4198
64.1397
63.8527
63.5539
63.2519
62.9546
62.6641
62.3756
62.0829
61.785
61.4857
61.1916
60.903
60.6152
60.322
60.0207
59.7191
59.4251
59.1377
58.8504
58.5561
58.2534
57.9501
57.6536
57.3642
57.0779
56.7873
56.4901
56.1899
55.8887
55.5919
55.3028
55.0166
54.7261
54.428
54.1279
53.8298
53.5334
53.2416
52.9515
52.6583
52.3634
52.0652
51.763
51.4613
51.1637
50.8697
50.5776
50.2874
49.9965
49.7003
49.3995
49.0976
48.796
48.4969
48.202
47.9112
47.6217
47.3294
47.034
46.735
46.4318
46.1279
45.8279
45.5323
45.2399
44.951
44.6628
44.3701
44.0731
43.774
43.4722
43.1687
42.8686
42.5741
42.2832
41.9949
41.7085
41.4201
41.1271
40.8307
40.5313
40.2284
39.9243
39.6228
39.3258
39.0329
38.7437
38.4574
38.1722
37.8865
37.5984
37.3061
37.0089
36.708
36.4058
36.1029
35.7991
35.4971
35.1993
34.9049
34.6123
34.3225
34.0353
33.7484
33.4608
33.173
32.8841
32.593
32.2999
32.005
31.7084
31.4104
31.1111
30.8115
30.5124
30.2135
29.9146
29.6162
29.3193
29.024
28.7298
28.4362
28.1437
27.8534
27.5641
27.2746
26.9858
26.6986
26.4116
26.1237
25.8356
25.5477
25.2595
24.9707
24.681
24.3908
24.1002
23.8087
23.5162
23.2231
22.9297
22.6351
22.3395
22.0435
21.7474
21.4514
21.1547
20.8573
20.5604
20.2641
19.9672
19.6699
19.3731
19.0768
18.7804
18.4837
18.1871
17.8908
17.595
17.2988
17.0019
16.7053
16.4093
16.113
15.8164
15.5202
15.2244
14.9285
14.6325
14.3367
14.0412
13.7456
13.4495
13.1532
12.8571
12.5611
12.2651
11.9689
11.6728
11.3768
11.0811
10.7854
10.4895
10.1937
9.89812
9.60241
9.30674
9.01108
8.71501
8.41882
8.12312
7.82737
7.53077
7.23404
6.93791
6.64177
6.34506
6.04818
5.75165
5.45552
5.15966
4.86385
4.56794
4.27231
3.97743
3.68283
3.3877
3.0925
2.79819
2.50396
2.20858
1.9131
1.61873
1.32453
1.02981
0.735291
0.441072
0.147248
51.1926
-3117.8
-946.381
607.55
559.062
95.0902
-62.796
13.7884
88.8697
94.675
74.4576
64.7492
66.7335
70.0838
70.5205
69.4395
68.6262
68.3632
68.2341
67.9931
67.6747
67.3591
67.0575
66.7609
66.4718
66.1875
65.9016
65.6094
65.3086
65.0081
64.7169
64.4316
64.1421
63.8423
63.5395
63.2456
62.96
62.6732
62.3779
62.076
61.7764
61.4837
61.1963
60.9081
60.6145
60.3161
60.0152
59.718
59.4287
59.1429
58.8524
58.5537
58.249
57.9472
57.6554
57.3696
57.0822
56.7865
56.4832
56.1824
55.8876
55.597
55.3086
55.0189
54.7248
54.4243
54.1228
53.8265
53.5337
53.244
52.9548
52.6601
52.3612
52.0609
51.7595
51.4597
51.1641
50.8725
50.5811
50.2884
49.9947
49.6973
49.396
49.0944
48.7945
48.4978
48.2042
47.9132
47.6229
47.3293
47.0316
46.7316
46.4295
46.1271
45.828
45.5338
45.242
44.9519
44.6627
44.37
44.0717
43.771
43.4698
43.1682
42.8686
42.5746
42.2847
41.9963
41.7089
41.4202
41.1267
40.8288
40.5285
40.2265
39.9238
39.6228
39.3262
39.034
38.7455
38.4595
38.1738
37.8869
37.5976
37.3051
37.0081
36.7067
36.4034
36.1007
35.7983
35.4968
35.1988
34.9049
34.6131
34.323
34.0353
33.7486
33.4611
33.173
32.884
32.593
32.2997
32.0044
31.7076
31.4097
31.1108
30.8111
30.5116
30.2128
29.9143
29.6161
29.3188
29.0231
28.7293
28.4363
28.1436
27.8526
27.5636
27.2747
26.9857
26.6978
26.4108
26.1234
25.8354
25.5472
25.2588
24.97
24.6806
24.3904
24.0997
23.8085
23.516
23.2225
22.9287
22.6344
22.3392
22.0432
21.7469
21.4508
21.1545
20.8574
20.56
20.2634
19.9669
19.6699
19.3728
19.0763
18.78
18.4838
18.1872
17.8906
17.5944
17.2985
17.0021
16.7053
16.4089
16.1128
15.8164
15.52
15.2241
14.9284
14.6326
14.3367
14.041
13.7455
13.4496
13.1534
12.8571
12.5609
12.2648
11.9688
11.6728
11.3768
11.081
10.7854
10.4896
10.1937
9.89793
9.60213
9.30641
9.01094
8.71519
8.41888
8.12274
7.82707
7.53093
7.23412
6.9375
6.64129
6.34494
6.04828
5.75162
5.45516
5.1591
4.8635
4.56795
4.27224
3.97697
3.68244
3.38779
3.09246
2.79743
2.50333
2.20882
1.91335
1.6183
1.32402
1.0296
0.735062
0.440687
0.147067
51.2129
-3117.79
-946.389
607.544
559.075
95.1004
-62.8087
13.7754
88.8707
94.6827
74.4603
64.7384
66.7251
70.0945
70.5383
69.4452
68.6156
68.3463
68.2269
68.0008
67.6823
67.3545
67.0529
66.7706
66.4902
66.1997
65.8965
65.5921
65.296
65.0082
64.7244
64.435
64.1359
63.8339
63.5384
63.2528
62.9683
62.6749
62.3728
62.0707
61.7774
61.4916
61.205
60.9109
60.6098
60.309
60.0134
59.723
59.4352
59.1448
58.8477
58.5463
58.2455
57.9497
57.6613
57.3746
57.0831
56.7839
56.4787
56.1783
55.8881
55.6027
55.3149
55.0208
54.7221
54.4208
54.1203
53.8267
53.5369
53.2473
52.9569
52.6607
52.3593
52.0577
51.7581
51.4609
51.1669
50.8759
50.5844
50.2895
49.9928
49.6945
49.3941
49.0936
48.7953
48.5001
48.2072
47.9153
47.6235
47.3291
47.0303
46.7295
46.4286
46.1279
45.8298
45.5363
45.2453
44.954
44.6625
44.369
44.0705
43.7688
43.4678
43.1683
42.8705
42.5768
42.2874
41.9988
41.7098
41.4198
41.1262
40.8277
40.5264
40.2246
39.9232
39.6236
39.3276
39.036
38.7477
38.4616
38.1757
37.888
37.5974
37.3037
37.0068
36.706
36.4023
36.099
35.7974
35.4969
35.1989
34.905
34.614
34.3244
34.0364
33.7496
33.4622
33.1737
32.8842
32.5931
32.3
32.0048
31.7077
31.4097
31.111
30.8116
30.5119
30.2129
29.9146
29.6168
29.3196
29.0234
28.7292
28.4368
28.1447
27.8532
27.5636
27.2753
26.9868
26.6985
26.411
26.1238
25.836
25.5478
25.2592
24.9703
24.681
24.3908
24.1
23.8087
23.5166
23.2232
22.9291
22.6345
22.3395
22.0438
21.7473
21.4508
21.1546
20.858
20.5606
20.2634
19.9668
19.6703
19.3734
19.0766
18.7801
18.4839
18.1877
17.8911
17.5945
17.2984
17.0023
16.7057
16.409
16.1127
15.8165
15.5202
15.2241
14.9283
14.6327
14.337
14.0412
13.7454
13.4497
13.1536
12.8572
12.561
12.2648
11.9688
11.673
11.3771
11.0811
10.7854
10.4897
10.1939
9.8981
9.60229
9.30639
9.01084
8.71544
8.41944
8.12298
7.82692
7.53101
7.2345
6.93768
6.64121
6.34489
6.04854
5.75214
5.45565
5.15923
4.86336
4.56804
4.27265
3.9772
3.68238
3.3881
3.09326
2.79778
2.50299
2.2088
1.91388
1.6186
1.32399
1.0297
0.735311
0.440967
0.147157
51.1969
-3117.81
-946.387
607.553
559.075
95.0895
-62.8143
13.7838
88.8836
94.68
74.447
64.7361
66.7349
70.1018
70.5319
69.4299
68.6099
68.3587
68.2451
68.0081
67.6767
67.3445
67.0493
66.7721
66.4865
66.1898
65.8897
65.5949
65.3086
65.0219
64.7289
64.4292
64.1275
63.833
63.5459
63.2597
62.9662
62.6651
62.3641
62.0703
61.7835
61.497
61.2045
60.9048
60.6028
60.3058
60.0162
59.7293
59.4392
59.1431
58.8415
58.5406
58.2458
57.9558
57.6674
57.3754
57.0774
56.7771
56.476
56.1796
55.8916
55.6068
55.3175
55.0194
54.7171
54.4162
54.1187
53.828
53.5406
53.2499
52.956
52.6579
52.3557
52.0544
51.7571
51.4631
51.1703
50.8782
50.5852
50.2885
49.9893
49.6901
49.3909
49.0926
48.7961
48.5019
48.2095
47.9166
47.6228
47.3274
47.0283
46.7271
46.4268
46.1278
45.8309
45.5375
45.2468
44.9551
44.6615
44.3667
44.0688
43.7673
43.4661
43.1675
42.8713
42.5781
42.2887
42.0004
41.7103
41.4185
41.1242
40.826
40.5246
40.2227
39.9223
39.6239
39.3289
39.0376
38.7493
38.463
38.1768
37.8888
37.5973
37.3021
37.0043
36.7041
36.401
36.0975
35.7961
35.4967
35.1992
34.905
34.6142
34.3249
34.0367
33.7495
33.4624
33.174
32.8842
32.5927
32.2993
32.0041
31.7071
31.4089
31.1103
30.8112
30.5116
30.2121
29.9136
29.6163
29.3197
29.0236
28.7287
28.436
28.1446
27.8533
27.5632
27.2747
26.9867
26.6985
26.4106
26.123
25.8354
25.5473
25.2588
24.9697
24.6805
24.3905
24.0996
23.8081
23.5159
23.2227
22.9285
22.6338
22.3388
22.0434
21.7472
21.4504
21.1539
20.8576
20.5606
20.2632
19.9663
19.6697
19.3731
19.0765
18.7799
18.4835
18.1875
17.8912
17.5944
17.298
17.002
16.7057
16.409
16.1124
15.8161
15.52
15.2239
14.9281
14.6326
14.3371
14.0413
13.7453
13.4494
13.1534
12.8572
12.5609
12.2647
11.9686
11.6728
11.377
11.0811
10.7853
10.4895
10.1937
9.89798
9.60236
9.30642
9.01045
8.71496
8.41937
8.12304
7.8266
7.53056
7.23439
6.93776
6.64104
6.34453
6.0481
5.75183
5.45561
5.15925
4.86309
4.5676
4.27248
3.97717
3.68198
3.38755
3.09327
2.79808
2.50264
2.20805
1.91357
1.61854
1.32372
1.02939
0.735127
0.440707
0.147064
51.202
-3117.81
-946.391
607.55
559.067
95.0918
-62.8037
13.7869
88.8796
94.6773
74.4474
64.738
66.733
70.0948
70.5255
69.4316
68.6225
68.3677
68.2362
67.9904
67.6691
67.3535
67.0652
66.7823
66.4844
66.1828
65.8888
65.5996
65.3116
65.0181
64.7182
64.4192
64.1261
63.8402
63.5555
63.2626
62.9613
62.6587
62.3635
62.0769
61.7917
61.4992
61.2001
60.8995
60.6019
60.3101
60.022
59.7323
59.437
59.1375
58.8369
58.5397
58.2497
57.9625
57.6723
57.3754
57.0721
56.7709
56.4751
56.1842
55.897
55.6095
55.3169
55.0166
54.7134
54.4145
54.1203
53.8314
53.5443
53.252
52.9547
52.6549
52.3536
52.054
51.7583
51.4662
51.174
50.8804
50.5855
50.2876
49.9873
49.6879
49.3897
49.0934
48.7984
48.5044
48.2118
47.9179
47.6224
47.3257
47.0269
46.7265
46.4269
46.1296
45.8335
45.5394
45.248
44.9562
44.6615
44.3647
44.0667
43.7665
43.4662
43.1685
42.8736
42.5806
42.2905
42.002
41.7115
41.4182
41.1225
40.8242
40.5233
40.2219
39.922
39.6247
39.3307
39.0401
38.7519
38.4648
38.1778
37.8893
37.5976
37.3017
37.0027
36.7021
36.3999
36.0967
35.7954
35.4967
35.2
34.9058
34.6149
34.3262
34.0379
33.7505
33.4631
33.1747
32.8848
32.593
32.2993
32.0042
31.7074
31.4092
31.1103
30.8114
30.5123
30.213
29.914
29.6161
29.3198
29.0244
28.7296
28.4364
28.1451
27.8543
27.5638
27.2749
26.9871
26.6993
26.4114
26.1235
25.8356
25.5476
25.2592
24.9701
24.6807
24.3909
24.1002
23.8085
23.5161
23.223
22.9291
22.6342
22.3388
22.0434
21.7477
21.4511
21.1541
20.8575
20.5609
20.2638
19.9666
19.6699
19.3734
19.0769
18.7802
18.4836
18.1874
17.8915
17.5951
17.2983
17.0019
16.7057
16.4092
16.1127
15.8163
15.5201
15.2242
14.9283
14.6326
14.3372
14.0416
13.7457
13.4496
13.1534
12.8572
12.561
12.265
11.969
11.673
11.3772
11.0813
10.7854
10.4896
10.1937
9.89795
9.60253
9.30689
9.01085
8.715
8.41939
8.12334
7.82683
7.53052
7.23443
6.93811
6.64151
6.3449
6.04828
5.75182
5.45569
5.15959
4.86338
4.56766
4.27266
3.97768
3.68234
3.38738
3.09315
2.79866
2.50328
2.20814
1.91359
1.61881
1.32389
1.02944
0.735336
0.44095
0.147305
51.2079
-3117.81
-946.396
607.544
559.07
95.0946
-62.806
13.7779
88.8682
94.6753
74.4551
64.7481
66.7396
70.0949
70.5243
69.4304
68.6183
68.364
68.2354
67.9921
67.6735
67.3563
67.0585
66.7701
66.4761
66.1823
65.8961
65.6075
65.3129
65.0143
64.7157
64.4222
64.1332
63.8446
63.5523
63.2548
62.9556
62.6599
62.3702
62.0827
61.7913
61.4926
61.1918
60.8957
60.6055
60.3172
60.026
59.7303
59.4306
59.1313
58.8359
58.5437
58.2545
57.9646
57.6707
57.3718
57.0683
56.7681
56.4762
56.1888
55.9013
55.6094
55.3127
55.0118
54.7101
54.4143
54.1232
53.8345
53.546
53.2519
52.9517
52.6502
52.3506
52.0542
51.7607
51.4692
51.1765
50.8805
50.5831
50.2843
49.9846
49.6858
49.3889
49.0941
48.8003
48.5061
48.2119
47.9173
47.6209
47.3234
47.025
46.7253
46.4263
46.1301
45.8355
45.5412
45.248
44.9553
44.6601
44.3627
44.0642
43.7649
43.4655
43.1686
42.8751
42.583
42.292
42.0021
41.7111
41.4171
41.1202
40.8215
40.5214
40.2209
39.9217
39.6251
39.3317
39.0418
38.754
38.4668
38.1785
37.8886
37.5964
37.3005
37.0011
36.7
36.3982
36.0957
35.7944
35.4961
35.2002
34.9062
34.6151
34.3265
34.0386
33.7509
33.4631
33.1745
32.8844
32.5925
32.2985
32.0032
31.7068
31.409
31.1099
30.8104
30.5113
30.2126
29.914
29.616
29.3193
29.0241
28.7295
28.4359
28.1445
27.8543
27.5642
27.2748
26.9866
26.6988
26.411
26.1232
25.8352
25.547
25.2586
24.9697
24.6802
24.3903
24.0998
23.8081
23.5154
23.2222
22.9285
22.6339
22.3385
22.0427
21.747
21.4509
21.1539
20.857
20.5604
20.2636
19.9664
19.6695
19.373
19.0767
18.7804
18.4837
18.187
17.8909
17.5948
17.2983
17.0018
16.7054
16.409
16.1124
15.8159
15.5198
15.224
14.9284
14.6326
14.3369
14.0413
13.7455
13.4495
13.1534
12.8571
12.5608
12.2647
11.9688
11.6729
11.3771
11.0812
10.7853
10.4895
10.1937
9.89774
9.60207
9.30668
9.01086
8.71481
8.41905
8.12321
7.82681
7.53024
7.23392
6.93765
6.64128
6.3449
6.04832
5.75161
5.45527
5.15936
4.86333
4.5673
4.27206
3.97748
3.68263
3.38741
3.09263
2.79823
2.50323
2.20793
1.91318
1.61854
1.32371
1.02909
0.735008
0.441029
0.147109
51.2096
-3117.81
-946.399
607.543
559.074
95.0959
-62.8091
13.7799
88.8769
94.6859
74.4571
64.7332
66.7237
70.0939
70.5342
69.4407
68.6189
68.359
68.2348
67.9945
67.6746
67.3575
67.0592
66.77
66.4787
66.1856
65.8958
65.6034
65.3066
65.011
64.7181
64.4282
64.1382
63.8443
63.5468
63.2486
62.9542
62.6647
62.3767
62.0854
61.7885
61.4878
61.189
60.8973
60.611
60.3228
60.0275
59.7271
59.4259
59.1288
58.8381
58.5493
58.2591
57.9649
57.6664
57.3673
57.0673
56.7699
56.4795
56.1927
55.9037
55.6082
55.3083
55.0079
54.7095
54.4171
54.1281
53.8377
53.5456
53.2497
52.9495
52.6487
52.3506
52.0561
51.7638
51.4722
51.1788
50.8811
50.5814
50.2819
49.983
49.6857
49.3899
49.0958
48.8027
48.5086
48.2133
47.9172
47.6197
47.3218
47.0241
46.7259
46.4276
46.1313
45.8374
45.5435
45.249
44.9546
44.6589
44.3612
44.063
43.7649
43.4668
43.1703
42.8769
42.5854
42.2941
42.0029
41.711
41.4165
41.1191
40.8199
40.5199
40.2201
39.9222
39.6268
39.3338
39.0436
38.7558
38.4686
38.1801
37.8891
37.5957
37.2994
36.9999
36.6985
36.3969
36.0953
35.7943
35.496
35.2006
34.9072
34.616
34.3274
34.0397
33.752
33.4638
33.1748
32.8846
32.5929
32.2992
32.0033
31.7064
31.4087
31.1103
30.8111
30.5117
30.2127
29.9143
29.6164
29.3197
29.0247
28.7307
28.437
28.1448
27.8545
27.5649
27.2755
26.987
26.6992
26.4114
26.1236
25.8356
25.5474
25.259
24.9701
24.6805
24.3904
24.0998
23.8085
23.516
23.2225
22.9284
22.6339
22.3389
22.0431
21.7472
21.4512