/*--------------------------------*- C++ -*----------------------------------*\
| =========                 |                                                 |
| \\      /  F ield         | OpenFOAM: The Open Source CFD Toolbox           |
|  \\    /   O peration     | Version:  2406                                  |
|   \\  /    A nd           | Website:  www.openfoam.com                      |
|    \\/     M anipulation  |                                                 |
\*---------------------------------------------------------------------------*/
FoamFile
{
    version     2.0;
    format      ascii;
    arch        "LSB;label=32;scalar=64";
    class       surfaceScalarField;
    location    "1";
    object      phi;
}
// * * * * * * * * * * * * * * * * * * * * * * * * * * * * * * * * * * * * * //

dimensions      [0 3 -1 0 0 0 0];

oriented        oriented;

internalField   nonuniform List<scalar> 
12225
(
0.507415
2.58267e-06
0.507407
7.96621e-06
0.507398
8.41891e-06
0.507394
4.40914e-06
0.507391
3.08322e-06
0.507386
4.36079e-06
0.507381
5.32692e-06
0.507375
6.01379e-06
0.507369
6.42408e-06
0.507362
6.44576e-06
0.507356
6.48026e-06
0.507349
6.33409e-06
0.507344
5.23439e-06
0.50734
4.36794e-06
0.507335
5.00334e-06
0.507329
5.76193e-06
0.507324
5.14114e-06
0.507319
4.41639e-06
0.507315
4.49747e-06
0.50731
4.75327e-06
0.507305
5.11679e-06
0.5073
5.40036e-06
0.507294
5.4442e-06
0.507288
5.89039e-06
0.507282
6.70462e-06
0.507275
7.03214e-06
0.507268
6.3362e-06
0.507263
5.5306e-06
0.507257
5.29213e-06
0.507252
5.41068e-06
0.507247
5.33395e-06
0.507242
4.84813e-06
0.507237
4.49492e-06
0.507232
4.80507e-06
0.507227
5.17438e-06
0.507222
4.94745e-06
0.507218
4.62228e-06
0.507213
5.02269e-06
0.507207
5.98746e-06
0.5072
6.51811e-06
0.507194
5.9941e-06
0.507189
4.89141e-06
0.507185
4.08495e-06
0.507181
3.98275e-06
0.507177
4.4306e-06
0.507172
4.95844e-06
0.507167
5.33972e-06
0.507161
5.75481e-06
0.507154
6.25716e-06
0.507148
6.4717e-06
0.507142
6.1633e-06
0.507136
5.54977e-06
0.507131
5.02816e-06
0.507126
4.93371e-06
0.507121
5.23137e-06
0.507116
5.45982e-06
0.50711
5.28769e-06
0.507105
4.90181e-06
0.507101
4.77819e-06
0.507095
5.18975e-06
0.50709
5.8911e-06
0.507083
6.33099e-06
0.507077
6.21889e-06
0.507071
5.90541e-06
0.507065
5.87731e-06
0.507059
6.00132e-06
0.507053
5.84041e-06
0.507048
5.31068e-06
0.507043
4.83972e-06
0.507038
4.93789e-06
0.507033
5.5049e-06
0.507027
6.04309e-06
0.507021
6.24506e-06
0.507014
6.07438e-06
0.507009
5.85194e-06
0.507003
5.84514e-06
0.506997
5.85197e-06
0.506991
5.68256e-06
0.506986
5.46685e-06
0.50698
5.34257e-06
0.506975
5.33987e-06
0.50697
5.44748e-06
0.506964
5.54185e-06
0.506959
5.42535e-06
0.506953
5.22122e-06
0.506948
5.33114e-06
0.506942
5.7623e-06
0.506936
6.11155e-06
0.50693
6.18697e-06
0.506924
6.14002e-06
0.506918
6.05068e-06
0.506912
5.80241e-06
0.506907
5.40078e-06
0.506902
4.99741e-06
0.506897
4.71195e-06
0.506892
4.71839e-06
0.506887
5.09654e-06
0.506882
5.5193e-06
0.506876
5.60784e-06
0.506871
5.47301e-06
0.506865
5.45427e-06
0.50686
5.5775e-06
0.506854
5.6891e-06
0.506848
5.70648e-06
0.506843
5.55147e-06
0.506837
5.23321e-06
0.506832
4.95247e-06
0.506828
4.83247e-06
0.506823
4.75818e-06
0.506818
4.70256e-06
0.506813
4.87719e-06
0.506808
5.30118e-06
0.506802
5.66089e-06
0.506797
5.74154e-06
0.506791
5.61739e-06
0.506786
5.3779e-06
0.50678
5.0769e-06
0.506776
4.86108e-06
0.506771
4.82195e-06
0.506766
4.84366e-06
0.506761
4.80173e-06
0.506756
4.79218e-06
0.506751
4.90038e-06
0.506746
5.07811e-06
0.506741
5.2567e-06
0.506736
5.42217e-06
0.50673
5.56806e-06
0.506724
5.6347e-06
0.506719
5.56489e-06
0.506714
5.37047e-06
0.506708
5.13085e-06
0.506703
4.9876e-06
0.506698
5.03647e-06
0.506693
5.15326e-06
0.506688
5.14288e-06
0.506683
5.01738e-06
0.506678
4.90556e-06
0.506673
4.81157e-06
0.506669
4.73367e-06
0.506664
4.83024e-06
0.506659
5.13704e-06
0.506653
5.4125e-06
0.506648
5.46054e-06
0.506642
5.38611e-06
0.506637
5.34721e-06
0.506632
5.33813e-06
0.506626
5.31233e-06
0.506621
5.34366e-06
0.506615
5.53237e-06
0.50661
5.82192e-06
0.506604
6.08748e-06
0.506597
6.25278e-06
0.506591
6.27229e-06
0.506585
6.16268e-06
0.506579
6.05677e-06
0.506573
6.08955e-06
0.506567
6.23733e-06
0.50656
6.33753e-06
0.506554
6.25322e-06
0.506548
6.01421e-06
0.506542
5.81778e-06
0.506536
5.82514e-06
0.50653
5.97579e-06
0.506524
6.10434e-06
0.506518
6.17141e-06
0.506512
6.2226e-06
0.506506
6.20797e-06
0.5065
6.04194e-06
0.506494
5.78528e-06
0.506488
5.61148e-06
0.506483
5.57149e-06
0.506477
5.53372e-06
0.506472
5.41506e-06
0.506466
5.29982e-06
0.506461
5.27363e-06
0.506456
5.30478e-06
0.50645
5.35768e-06
0.506445
5.46468e-06
0.506439
5.60445e-06
0.506434
5.65821e-06
0.506428
5.55783e-06
0.506423
5.36919e-06
0.506418
5.19303e-06
0.506412
5.06007e-06
0.506408
4.96374e-06
0.506403
4.92129e-06
0.506398
4.95147e-06
0.506393
5.00586e-06
0.506388
4.99084e-06
0.506383
4.88117e-06
0.506378
4.76624e-06
0.506373
4.74775e-06
0.506368
4.81033e-06
0.506364
4.84429e-06
0.506359
4.80041e-06
0.506354
4.73821e-06
0.506349
4.68975e-06
0.506345
4.6137e-06
0.50634
4.52947e-06
0.506336
4.53527e-06
0.506331
4.62133e-06
0.506326
4.66001e-06
0.506322
4.60284e-06
0.506317
4.5314e-06
0.506313
4.49694e-06
0.506308
4.47586e-06
0.506304
4.46077e-06
0.506299
4.46078e-06
0.506295
4.43981e-06
0.506291
4.3697e-06
0.506286
4.31223e-06
0.506282
4.36209e-06
0.506277
4.52854e-06
0.506273
4.72809e-06
0.506268
4.86096e-06
0.506263
4.8751e-06
0.506258
4.7988e-06
0.506253
4.71765e-06
0.506249
4.68822e-06
0.506244
4.6978e-06
0.506239
4.73558e-06
0.506234
4.81068e-06
0.50623
4.89237e-06
0.506225
4.93191e-06
0.50622
4.93586e-06
0.506215
4.9272e-06
0.50621
4.89672e-06
0.506205
4.88181e-06
0.5062
4.96673e-06
0.506195
5.11495e-06
0.50619
5.18354e-06
0.506185
5.13219e-06
0.50618
5.05597e-06
0.506175
5.00745e-06
0.50617
4.94623e-06
0.506165
4.87014e-06
0.50616
4.86235e-06
0.506155
4.97885e-06
0.50615
5.16624e-06
0.506144
5.30825e-06
0.506139
5.32623e-06
0.506134
5.24598e-06
0.506129
5.16942e-06
0.506124
5.14692e-06
0.506118
5.16831e-06
0.506113
5.22021e-06
0.506108
5.31408e-06
0.506103
5.27968e-06
0.506097
5.45402e-06
4.80052e-06
0.507417
-8.91424e-07
0.507425
7.62553e-08
0.507432
1.93022e-06
0.507433
3.24466e-06
0.507433
2.80629e-06
0.507435
2.36508e-06
0.507438
2.29068e-06
0.507443
1.71543e-06
0.507448
1.45496e-06
0.507452
2.37383e-06
0.507455
3.21865e-06
0.507458
3.49512e-06
0.50746
3.34081e-06
0.507461
2.62871e-06
0.507465
1.6345e-06
0.507468
2.03328e-06
0.507471
3.08078e-06
0.507472
2.81305e-06
0.507474
2.6794e-06
0.507476
3.2072e-06
0.507478
2.91695e-06
0.507481
2.41319e-06
0.507484
2.19443e-06
0.507488
2.03001e-06
0.507493
1.63827e-06
0.507498
1.75643e-06
0.507502
2.42556e-06
0.507505
2.75447e-06
0.507508
2.5971e-06
0.507511
2.25091e-06
0.507514
2.13767e-06
0.507516
2.5252e-06
0.507518
2.93496e-06
0.50752
2.97896e-06
0.507522
2.8634e-06
0.507524
2.77012e-06
0.507526
2.68415e-06
0.507529
2.5374e-06
0.507532
2.15591e-06
0.507537
1.61286e-06
0.507542
1.45644e-06
0.507545
2.12203e-06
0.507546
2.87175e-06
0.507547
2.75315e-06
0.50755
1.91472e-06
0.507553
1.45269e-06
0.507556
1.88715e-06
0.50756
2.7022e-06
0.507563
3.24257e-06
0.507566
3.24792e-06
0.507569
2.83159e-06
0.507572
2.45453e-06
0.507575
2.37006e-06
0.507577
2.35015e-06
0.50758
2.30838e-06
0.507583
2.42961e-06
0.507586
2.73428e-06
0.507588
2.97827e-06
0.50759
2.88181e-06
0.507592
2.47123e-06
0.507596
2.13532e-06
0.5076
2.19146e-06
0.507604
2.40712e-06
0.507608
2.41596e-06
0.507611
2.35271e-06
0.507615
2.42714e-06
0.507618
2.55414e-06
0.507621
2.58919e-06
0.507623
2.46489e-06
0.507626
2.35178e-06
0.507629
2.4889e-06
0.507632
2.7991e-06
0.507635
3.04876e-06
0.507638
2.95034e-06
0.507642
2.50273e-06
0.507645
2.18745e-06
0.507649
2.29693e-06
0.507652
2.51204e-06
0.507655
2.51299e-06
0.507658
2.32803e-06
0.507661
2.16088e-06
0.507664
2.28932e-06
0.507667
2.88008e-06
0.507669
3.55818e-06
0.50767
3.63678e-06
0.507673
3.04931e-06
0.507676
2.34306e-06
0.50768
1.83539e-06
0.507685
1.47168e-06
0.50769
1.32874e-06
0.507694
1.68093e-06
0.507698
2.46513e-06
0.5077
3.28814e-06
0.507701
3.8144e-06
0.507702
3.788e-06
0.507703
3.17058e-06
0.507706
2.4753e-06
0.507709
2.21576e-06
0.507713
2.20753e-06
0.507716
2.02265e-06
0.50772
1.75334e-06
0.507724
1.72685e-06
0.507727
1.97307e-06
0.507731
2.407e-06
0.507733
2.90056e-06
0.507735
3.20508e-06
0.507737
3.23271e-06
0.507739
3.15195e-06
0.507741
2.99443e-06
0.507743
2.56457e-06
0.507746
1.97421e-06
0.507749
1.69378e-06
0.507753
1.92015e-06
0.507756
2.33836e-06
0.507759
2.64668e-06
0.507762
2.82613e-06
0.507764
2.85015e-06
0.507766
2.68602e-06
0.507769
2.50452e-06
0.507771
2.46458e-06
0.507773
2.46949e-06
0.507776
2.42812e-06
0.507778
2.39309e-06
0.507781
2.36381e-06
0.507784
2.2726e-06
0.507787
2.16816e-06
0.507791
2.21173e-06
0.507794
2.45398e-06
0.507797
2.76235e-06
0.507799
2.97347e-06
0.507801
2.99307e-06
0.507803
2.84114e-06
0.507806
2.70612e-06
0.507808
2.74563e-06
0.50781
2.84021e-06
0.507812
2.81437e-06
0.507815
2.75388e-06
0.507817
2.75726e-06
0.507819
2.63441e-06
0.507821
2.31091e-06
0.507824
2.09626e-06
0.507828
2.21615e-06
0.507831
2.44227e-06
0.507833
2.5062e-06
0.507836
2.49228e-06
0.507839
2.5617e-06
0.507842
2.63359e-06
0.507845
2.54744e-06
0.507848
2.32955e-06
0.507851
2.09733e-06
0.507856
1.93292e-06
0.50786
1.94656e-06
0.507864
2.15011e-06
0.507868
2.3352e-06
0.507872
2.31532e-06
0.507876
2.18156e-06
0.50788
2.18616e-06
0.507883
2.42908e-06
0.507887
2.76421e-06
0.50789
2.96002e-06
0.507893
2.90852e-06
0.507896
2.7294e-06
0.507899
2.5998e-06
0.507903
2.51548e-06
0.507907
2.37627e-06
0.507911
2.2373e-06
0.507915
2.25841e-06
0.507918
2.38858e-06
0.507922
2.41804e-06
0.507925
2.31644e-06
0.507928
2.2875e-06
0.507931
2.41311e-06
0.507934
2.52257e-06
0.507937
2.48388e-06
0.50794
2.37205e-06
0.507943
2.27649e-06
0.507946
2.18397e-06
0.50795
2.10432e-06
0.507953
2.11137e-06
0.507957
2.20935e-06
0.50796
2.32418e-06
0.507963
2.42622e-06
0.507965
2.54207e-06
0.507968
2.64458e-06
0.50797
2.6615e-06
0.507972
2.58918e-06
0.507975
2.51912e-06
0.507977
2.54969e-06
0.50798
2.68254e-06
0.507982
2.80157e-06
0.507984
2.78393e-06
0.507986
2.65638e-06
0.507988
2.5596e-06
0.50799
2.54853e-06
0.507993
2.55041e-06
0.507995
2.55097e-06
0.507997
2.61854e-06
0.507999
2.70816e-06
0.508001
2.67416e-06
0.508003
2.53578e-06
0.508005
2.47046e-06
0.508007
2.53255e-06
0.508009
2.6025e-06
0.508011
2.61718e-06
0.508013
2.61126e-06
0.508015
2.58481e-06
0.508016
2.53946e-06
0.508018
2.5601e-06
0.50802
2.67597e-06
0.508022
2.75208e-06
0.508023
2.6657e-06
0.508025
2.47488e-06
0.508028
2.32376e-06
0.50803
2.29269e-06
0.508032
2.37604e-06
0.508035
2.50736e-06
0.508037
2.59997e-06
0.508039
2.62388e-06
0.508041
2.61e-06
0.508043
2.56221e-06
0.508046
2.46706e-06
0.508048
2.38639e-06
0.50805
2.39188e-06
0.508053
2.43416e-06
0.508055
2.42903e-06
0.508058
2.39051e-06
0.508061
2.33843e-06
0.508063
2.22606e-06
0.508066
2.09925e-06
0.508069
2.10548e-06
0.508072
2.25558e-06
0.508075
2.40156e-06
0.508077
2.48437e-06
0.50808
2.57105e-06
0.508082
2.65615e-06
0.508084
2.64775e-06
0.508087
2.54042e-06
0.508089
2.43386e-06
0.508092
2.40628e-06
0.508095
2.4623e-06
0.508098
2.55589e-06
0.5081
2.61241e-06
0.508103
2.60411e-06
0.508105
2.55853e-06
0.508108
2.49329e-06
0.508111
2.43235e-06
0.508114
2.48135e-06
0.508116
2.64626e-06
0.508119
2.76405e-06
2.83751e-06
0.507417
1.21475e-08
0.507416
9.21589e-07
0.507416
2.17787e-06
0.507417
2.71085e-06
0.507417
2.34708e-06
0.507417
2.18028e-06
0.507417
2.88206e-06
0.507416
2.96147e-06
0.507415
1.70084e-06
0.507417
3.41035e-07
0.50742
2.38331e-07
0.507423
9.27374e-07
0.507424
1.8028e-06
0.507424
3.05796e-06
0.507422
3.37596e-06
0.507422
2.32013e-06
0.507423
2.13771e-06
0.507423
3.08786e-06
0.507423
2.59363e-06
0.507424
1.53997e-06
0.507426
1.50815e-06
0.507426
2.53722e-06
0.507425
2.75681e-06
0.507425
2.22121e-06
0.507425
1.59286e-06
0.507425
1.42923e-06
0.507425
2.31031e-06
0.507425
3.12896e-06
0.507425
2.74468e-06
0.507425
2.04529e-06
0.507425
2.16116e-06
0.507425
2.79629e-06
0.507425
2.83609e-06
0.507426
2.2074e-06
0.507427
1.84695e-06
0.507427
2.42893e-06
0.507427
3.1619e-06
0.507426
3.08799e-06
0.507426
2.34989e-06
0.507426
1.79308e-06
0.507425
1.88901e-06
0.507425
2.44846e-06
0.507425
2.93069e-06
0.507425
2.83662e-06
0.507424
2.25597e-06
0.507424
1.88136e-06
0.507424
2.05196e-06
0.507424
2.30149e-06
0.507425
2.219e-06
0.507426
1.99679e-06
0.507427
1.90024e-06
0.507428
2.06297e-06
0.507428
2.45982e-06
0.507427
2.70357e-06
0.507427
2.5246e-06
0.507427
2.15461e-06
0.507428
2.01165e-06
0.507429
2.23678e-06
0.507429
2.53093e-06
0.507429
2.47254e-06
0.507429
2.06057e-06
0.50743
1.8238e-06
0.50743
2.063e-06
0.50743
2.38518e-06
0.50743
2.4268e-06
0.50743
2.24447e-06
0.507431
2.04324e-06
0.507431
2.01697e-06
0.507432
2.12556e-06
0.507432
2.20676e-06
0.507432
2.21221e-06
0.507433
2.16697e-06
0.507433
2.23744e-06
0.507434
2.46018e-06
0.507434
2.5438e-06
0.507434
2.39832e-06
0.507434
2.25039e-06
0.507434
2.16774e-06
0.507434
2.08857e-06
0.507435
2.05396e-06
0.507435
2.05943e-06
0.507435
2.04893e-06
0.507436
2.20954e-06
0.507437
2.70656e-06
0.507437
3.15999e-06
0.507437
3.09553e-06
0.507437
2.64913e-06
0.507436
2.24925e-06
0.507436
2.00066e-06
0.507435
1.7891e-06
0.507435
1.71593e-06
0.507436
1.92868e-06
0.507437
2.32495e-06
0.507438
2.7879e-06
0.507438
3.15597e-06
0.507439
3.0609e-06
0.507439
2.46383e-06
0.507439
1.91948e-06
0.507439
1.81076e-06
0.507439
1.90016e-06
0.507439
1.94132e-06
0.507439
2.00874e-06
0.507439
2.15037e-06
0.507439
2.34461e-06
0.507439
2.61146e-06
0.507439
2.79996e-06
0.50744
2.67933e-06
0.507441
2.35814e-06
0.507442
2.16945e-06
0.507442
2.11602e-06
0.507442
1.94778e-06
0.507442
1.72294e-06
0.507442
1.7258e-06
0.507443
1.94227e-06
0.507443
2.1324e-06
0.507444
2.24455e-06
0.507444
2.29743e-06
0.507445
2.19679e-06
0.507445
1.97509e-06
0.507446
1.84798e-06
0.507447
1.85915e-06
0.507447
1.88395e-06
0.507448
1.91318e-06
0.507448
2.00331e-06
0.507448
2.09209e-06
0.507448
2.07074e-06
0.507448
1.97173e-06
0.507449
1.9273e-06
0.50745
1.99738e-06
0.507451
2.16114e-06
0.507451
2.33604e-06
0.507452
2.37615e-06
0.507452
2.255e-06
0.507453
2.16426e-06
0.507453
2.20296e-06
0.507454
2.19977e-06
0.507455
2.09011e-06
0.507455
2.08524e-06
0.507456
2.2224e-06
0.507456
2.25667e-06
0.507456
2.14607e-06
0.507456
2.15045e-06
0.507456
2.35107e-06
0.507456
2.52241e-06
0.507456
2.53173e-06
0.507456
2.4985e-06
0.507456
2.50957e-06
0.507456
2.48914e-06
0.507456
2.38885e-06
0.507456
2.23355e-06
0.507456
2.02e-06
0.507456
1.81368e-06
0.507456
1.7944e-06
0.507457
2.01563e-06
0.507457
2.27661e-06
0.507456
2.36186e-06
0.507456
2.28414e-06
0.507457
2.21761e-06
0.507457
2.2894e-06
0.507458
2.452e-06
0.507458
2.52563e-06
0.507458
2.41917e-06
0.507459
2.25373e-06
0.507459
2.16612e-06
0.507459
2.10912e-06
0.507459
1.99993e-06
0.50746
1.93945e-06
0.50746
2.062e-06
0.50746
2.27595e-06
0.50746
2.37739e-06
0.50746
2.37011e-06
0.50746
2.41847e-06
0.50746
2.54986e-06
0.50746
2.64769e-06
0.50746
2.68384e-06
0.507459
2.7244e-06
0.507459
2.76456e-06
0.507458
2.74638e-06
0.507457
2.69239e-06
0.507457
2.65657e-06
0.507457
2.61488e-06
0.507456
2.52912e-06
0.507457
2.44569e-06
0.507457
2.42613e-06
0.507457
2.43858e-06
0.507457
2.38999e-06
0.507458
2.23978e-06
0.507458
2.05372e-06
0.507459
1.95327e-06
0.50746
1.9887e-06
0.50746
2.06024e-06
0.507461
2.03449e-06
0.507462
1.92288e-06
0.507462
1.82769e-06
0.507463
1.75541e-06
0.507464
1.65564e-06
0.507465
1.59587e-06
0.507466
1.67275e-06
0.507467
1.80684e-06
0.507468
1.8642e-06
0.507468
1.88297e-06
0.507469
1.97723e-06
0.507469
2.12416e-06
0.50747
2.23905e-06
0.50747
2.32153e-06
0.50747
2.37077e-06
0.50747
2.32286e-06
0.507471
2.19761e-06
0.507471
2.13278e-06
0.507472
2.18698e-06
0.507472
2.2636e-06
0.507472
2.26677e-06
0.507472
2.20272e-06
0.507473
2.13229e-06
0.507473
2.12108e-06
0.507473
2.20128e-06
0.507473
2.32456e-06
0.507474
2.41274e-06
0.507474
2.45908e-06
0.507474
2.48559e-06
0.507474
2.45249e-06
0.507474
2.33679e-06
0.507474
2.21834e-06
0.507474
2.1658e-06
0.507475
2.15909e-06
0.507475
2.20471e-06
0.507475
2.34083e-06
0.507475
2.48781e-06
0.507474
2.52389e-06
0.507474
2.49322e-06
0.507474
2.51562e-06
0.507473
2.56223e-06
0.507473
2.53992e-06
0.507473
2.48561e-06
0.507474
2.49275e-06
0.507474
2.54337e-06
0.507474
2.55308e-06
0.507474
2.5006e-06
0.507474
2.43075e-06
0.507474
2.40015e-06
0.507474
2.44324e-06
0.507474
2.53593e-06
0.507474
2.63104e-06
0.507474
2.72665e-06
0.507473
2.80709e-06
0.507473
2.79446e-06
0.507473
2.69643e-06
0.507473
2.63794e-06
0.507473
2.68439e-06
2.66344e-06
0.507416
4.46482e-07
0.507417
7.04003e-07
0.507417
1.43539e-06
0.507418
1.65335e-06
0.507419
1.405e-06
0.50742
1.85441e-06
0.507421
1.67555e-06
0.507422
1.87257e-06
0.507421
2.62206e-06
0.507419
2.61832e-06
0.507418
1.57616e-06
0.507417
1.61021e-06
0.507417
2.03498e-06
0.507418
1.64006e-06
0.50742
1.62379e-06
0.507419
2.59399e-06
0.507419
2.25947e-06
0.507421
1.83267e-06
0.507421
2.27944e-06
0.50742
2.73468e-06
0.507419
2.21568e-06
0.50742
2.06301e-06
0.50742
2.21966e-06
0.50742
2.34074e-06
0.507419
2.60097e-06
0.507418
2.28407e-06
0.507419
1.31412e-06
0.507421
8.24652e-07
0.507423
1.43511e-06
0.507422
2.36765e-06
0.507422
2.39048e-06
0.507423
1.62711e-06
0.507425
9.93945e-07
0.507426
1.28451e-06
0.507426
2.08527e-06
0.507426
2.54925e-06
0.507427
2.18405e-06
0.507428
1.59177e-06
0.507429
1.65966e-06
0.507428
2.31077e-06
0.507428
2.6274e-06
0.507428
2.16296e-06
0.507429
1.58178e-06
0.50743
1.61645e-06
0.507431
2.14002e-06
0.50743
2.62607e-06
0.507429
2.79737e-06
0.507429
2.58517e-06
0.507429
2.11009e-06
0.507429
1.78302e-06
0.507429
1.7682e-06
0.507429
1.8706e-06
0.50743
2.03455e-06
0.50743
2.22773e-06
0.507431
2.28089e-06
0.507431
2.11248e-06
0.507431
1.82017e-06
0.507431
1.61587e-06
0.507432
1.61901e-06
0.507433
1.70541e-06
0.507434
1.6528e-06
0.507434
1.56264e-06
0.507434
1.75191e-06
0.507434
2.06811e-06
0.507435
2.12419e-06
0.507435
1.8789e-06
0.507436
1.5768e-06
0.507436
1.55761e-06
0.507436
1.88333e-06
0.507436
2.26843e-06
0.507436
2.44849e-06
0.507436
2.31941e-06
0.507436
2.10368e-06
0.507436
2.17338e-06
0.507436
2.44049e-06
0.507436
2.54464e-06
0.507436
2.4106e-06
0.507436
2.1507e-06
0.507436
1.87711e-06
0.507437
1.78795e-06
0.507437
1.98118e-06
0.507436
2.16496e-06
0.507437
2.07078e-06
0.507437
1.89686e-06
0.507439
1.82239e-06
0.50744
1.65077e-06
0.507442
1.30189e-06
0.507443
1.06961e-06
0.507444
1.19454e-06
0.507444
1.52797e-06
0.507444
1.86701e-06
0.507443
2.16959e-06
0.507443
2.32371e-06
0.507444
2.32023e-06
0.507445
2.38438e-06
0.507445
2.47212e-06
0.507445
2.24282e-06
0.507446
1.75223e-06
0.507446
1.46361e-06
0.507446
1.53636e-06
0.507446
1.79866e-06
0.507446
2.17222e-06
0.507446
2.57953e-06
0.507445
2.86221e-06
0.507445
3.02035e-06
0.507445
3.0927e-06
0.507444
2.90328e-06
0.507444
2.35442e-06
0.507445
1.77876e-06
0.507445
1.55781e-06
0.507446
1.62355e-06
0.507446
1.7355e-06
0.507446
1.89512e-06
0.507445
2.1285e-06
0.507445
2.27343e-06
0.507445
2.28175e-06
0.507445
2.29507e-06
0.507445
2.3085e-06
0.507445
2.20453e-06
0.507445
2.06377e-06
0.507444
2.01229e-06
0.507444
1.99243e-06
0.507444
1.94214e-06
0.507444
1.94916e-06
0.507444
2.0913e-06
0.507444
2.29223e-06
0.507444
2.42507e-06
0.507443
2.44991e-06
0.507443
2.39031e-06
0.507443
2.32744e-06
0.507443
2.37164e-06
0.507442
2.48451e-06
0.507442
2.48957e-06
0.507442
2.37511e-06
0.507442
2.30635e-06
0.507442
2.26165e-06
0.507442
2.07493e-06
0.507442
1.84221e-06
0.507443
1.79521e-06
0.507443
1.86537e-06
0.507443
1.84433e-06
0.507444
1.78952e-06
0.507444
1.88041e-06
0.507445
2.0509e-06
0.507445
2.09089e-06
0.507446
1.97443e-06
0.507446
1.82237e-06
0.507447
1.67967e-06
0.507448
1.55297e-06
0.507449
1.50142e-06
0.507449
1.50361e-06
0.507449
1.44336e-06
0.50745
1.33453e-06
0.507451
1.35127e-06
0.507451
1.5806e-06
0.507452
1.90502e-06
0.507452
2.15108e-06
0.507452
2.23921e-06
0.507452
2.22817e-06
0.507452
2.23581e-06
0.507452
2.26933e-06
0.507453
2.21732e-06
0.507453
2.05844e-06
0.507453
1.92632e-06
0.507453
1.89136e-06
0.507453
1.85469e-06
0.507454
1.75977e-06
0.507454
1.72822e-06
0.507454
1.84381e-06
0.507455
1.96678e-06
0.507455
1.94398e-06
0.507456
1.83166e-06
0.507457
1.75113e-06
0.507458
1.69334e-06
0.507459
1.61946e-06
0.50746
1.5842e-06
0.507461
1.63078e-06
0.507462
1.69662e-06
0.507463
1.73158e-06
0.507464
1.77847e-06
0.507465
1.86269e-06
0.507465
1.92445e-06
0.507466
1.92074e-06
0.507466
1.90246e-06
0.507467
1.9478e-06
0.507467
2.06551e-06
0.507467
2.18137e-06
0.507467
2.20683e-06
0.507467
2.14124e-06
0.507467
2.08836e-06
0.507467
2.11972e-06
0.507466
2.17577e-06
0.507466
2.1838e-06
0.507466
2.17689e-06
0.507465
2.18445e-06
0.507465
2.13316e-06
0.507464
2.00318e-06
0.507464
1.92814e-06
0.507464
1.99107e-06
0.507464
2.09403e-06
0.507464
2.14742e-06
0.507463
2.20296e-06
0.507463
2.301e-06
0.507463
2.38829e-06
0.507463
2.45275e-06
0.507463
2.53594e-06
0.507462
2.58793e-06
0.507462
2.50787e-06
0.507462
2.32173e-06
0.507462
2.15852e-06
0.507462
2.08591e-06
0.507462
2.08358e-06
0.507462
2.11133e-06
0.507462
2.12657e-06
0.507462
2.10715e-06
0.507463
2.08764e-06
0.507463
2.10115e-06
0.507463
2.11318e-06
0.507463
2.09169e-06
0.507464
2.06309e-06
0.507464
2.02637e-06
0.507465
1.92955e-06
0.507465
1.78448e-06
0.507466
1.65986e-06
0.507466
1.55405e-06
0.507467
1.45285e-06
0.507468
1.44354e-06
0.507469
1.5767e-06
0.50747
1.73405e-06
0.50747
1.80868e-06
0.507471
1.85856e-06
0.507472
1.93997e-06
0.507472
1.9826e-06
0.507473
1.93267e-06
0.507473
1.85709e-06
0.507474
1.83122e-06
0.507475
1.84837e-06
0.507475
1.87027e-06
0.507476
1.87124e-06
0.507476
1.84709e-06
0.507477
1.83468e-06
0.507478
1.86489e-06
0.507478
1.91172e-06
0.507479
1.97118e-06
0.50748
2.076e-06
0.507481
2.18071e-06
0.507481
2.19293e-06
0.507482
2.13567e-06
0.507482
2.10007e-06
2.11322e-06
0.507418
2.19841e-08
0.507419
-9.97993e-08
0.50742
6.46275e-07
0.50742
1.86013e-06
0.507419
2.33459e-06
0.507418
2.01931e-06
0.507418
1.97712e-06
0.507418
2.00599e-06
0.507418
2.23292e-06
0.507418
3.15405e-06
0.507417
2.58387e-06
0.507418
7.41426e-07
0.507419
4.13625e-07
0.507419
1.51814e-06
0.50742
1.25786e-06
0.507422
5.12771e-07
0.507423
7.43562e-07
0.507423
1.95612e-06
0.507423
2.66206e-06
0.507423
2.85937e-06
0.507423
2.19917e-06
0.507424
1.09284e-06
0.507425
1.25359e-06
0.507425
1.9731e-06
0.507425
2.31808e-06
0.507426
1.9551e-06
0.507426
1.2796e-06
0.507425
1.39033e-06
0.507424
2.14671e-06
0.507424
2.58119e-06
0.507425
1.94937e-06
0.507425
1.16518e-06
0.507425
1.41581e-06
0.507424
2.2995e-06
0.507423
2.43667e-06
0.507424
1.51914e-06
0.507426
6.04093e-07
0.507427
7.80956e-07
0.507427
1.87098e-06
0.507426
2.80594e-06
0.507426
2.76653e-06
0.507426
1.87702e-06
0.507427
1.072e-06
0.507427
1.02121e-06
0.507428
1.38285e-06
0.507429
1.48096e-06
0.507431
1.29389e-06
0.507432
1.22351e-06
0.507433
1.35576e-06
0.507433
1.60542e-06
0.507433
1.84063e-06
0.507433
1.82303e-06
0.507433
1.63182e-06
0.507434
1.59982e-06
0.507435
1.83148e-06
0.507434
2.12086e-06
0.507434
2.16649e-06
0.507434
1.92275e-06
0.507434
1.69066e-06
0.507434
1.78935e-06
0.507433
2.10651e-06
0.507433
2.27069e-06
0.507432
2.24518e-06
0.507432
2.12785e-06
0.507432
1.90516e-06
0.507432
1.65388e-06
0.507433
1.47236e-06
0.507433
1.47823e-06
0.507433
1.71354e-06
0.507433
2.00923e-06
0.507433
2.2336e-06
0.507433
2.26561e-06
0.507433
2.06563e-06
0.507434
1.91675e-06
0.507434
1.96653e-06
0.507435
1.9774e-06
0.507435
1.80087e-06
0.507436
1.53192e-06
0.507436
1.27402e-06
0.507437
1.17608e-06
0.507438
1.47392e-06
0.507438
2.05879e-06
0.507437
2.43843e-06
0.507437
2.43091e-06
0.507436
2.27862e-06
0.507436
2.08173e-06
0.507435
1.75156e-06
0.507435
1.41621e-06
0.507435
1.39082e-06
0.507435
1.71332e-06
0.507434
2.16092e-06
0.507434
2.59287e-06
0.507434
2.81383e-06
0.507433
2.60561e-06
0.507433
2.1754e-06
0.507434
1.90172e-06
0.507435
1.71284e-06
0.507435
1.36371e-06
0.507435
9.9665e-07
0.507436
8.58511e-07
0.507437
9.37833e-07
0.507438
1.2008e-06
0.507439
1.61602e-06
0.50744
1.96164e-06
0.507441
2.07581e-06
0.507442
2.0678e-06
0.507443
2.00073e-06
0.507443
1.72549e-06
0.507444
1.28403e-06
0.507444
1.04059e-06
0.507445
1.16933e-06
0.507445
1.45748e-06
0.507445
1.73195e-06
0.507445
1.99183e-06
0.507445
2.1349e-06
0.507446
2.04683e-06
0.507446
1.86746e-06
0.507447
1.76592e-06
0.507447
1.67514e-06
0.507448
1.53942e-06
0.507448
1.45265e-06
0.507449
1.43492e-06
0.507449
1.39442e-06
0.50745
1.32001e-06
0.507451
1.31304e-06
0.507452
1.43056e-06
0.507452
1.6228e-06
0.507453
1.81788e-06
0.507454
1.93648e-06
0.507454
1.92721e-06
0.507454
1.88729e-06
0.507455
1.94764e-06
0.507455
2.02907e-06
0.507456
1.98791e-06
0.507456
1.91154e-06
0.507457
1.91787e-06
0.507457
1.86825e-06
0.507457
1.66249e-06
0.507457
1.50981e-06
0.507458
1.57244e-06
0.507458
1.69813e-06
0.507458
1.73208e-06
0.507458
1.76657e-06
0.507458
1.89992e-06
0.507458
2.02734e-06
0.507458
2.0219e-06
0.507458
1.91309e-06
0.507458
1.76259e-06
0.507458
1.58764e-06
0.507458
1.4764e-06
0.507458
1.52779e-06
0.507458
1.66777e-06
0.507457
1.74309e-06
0.507457
1.74847e-06
0.507457
1.80043e-06
0.507456
1.9679e-06
0.507456
2.20916e-06
0.507456
2.40087e-06
0.507456
2.44413e-06
0.507456
2.38181e-06
0.507456
2.3207e-06
0.507456
2.25148e-06
0.507456
2.09625e-06
0.507456
1.90672e-06
0.507456
1.82685e-06
0.507456
1.85963e-06
0.507456
1.86015e-06
0.507456
1.79494e-06
0.507456
1.79329e-06
0.507456
1.89432e-06
0.507456
1.96729e-06
0.507456
1.93563e-06
0.507456
1.87246e-06
0.507455
1.82777e-06
0.507455
1.7626e-06
0.507455
1.68104e-06
0.507455
1.65308e-06
0.507455
1.68479e-06
0.507455
1.70931e-06
0.507455
1.7118e-06
0.507455
1.7404e-06
0.507456
1.79881e-06
0.507456
1.82694e-06
0.507456
1.78657e-06
0.507456
1.71335e-06
0.507456
1.68122e-06
0.507457
1.72774e-06
0.507457
1.80241e-06
0.507458
1.81414e-06
0.507458
1.75239e-06
0.507458
1.69493e-06
0.507459
1.66656e-06
0.507459
1.60711e-06
0.50746
1.51939e-06
0.507461
1.48885e-06
0.507461
1.5075e-06
0.507462
1.46907e-06
0.507462
1.38024e-06
0.507463
1.3689e-06
0.507464
1.46499e-06
0.507464
1.57205e-06
0.507465
1.65321e-06
0.507465
1.74056e-06
0.507466
1.80306e-06
0.507467
1.7984e-06
0.507467
1.78726e-06
0.507468
1.83138e-06
0.507469
1.86934e-06
0.507469
1.81847e-06
0.50747
1.70149e-06
0.50747
1.59338e-06
0.507471
1.54196e-06
0.507471
1.57013e-06
0.507472
1.66652e-06
0.507472
1.77526e-06
0.507472
1.85984e-06
0.507472
1.93011e-06
0.507473
1.96919e-06
0.507473
1.93633e-06
0.507473
1.85998e-06
0.507473
1.8025e-06
0.507473
1.75023e-06
0.507473
1.67379e-06
0.507474
1.62379e-06
0.507473
1.62401e-06
0.507473
1.60514e-06
0.507473
1.56308e-06
0.507473
1.60061e-06
0.507473
1.72544e-06
0.507473
1.82279e-06
0.507473
1.86086e-06
0.507473
1.91218e-06
0.507473
1.98317e-06
0.507473
2.0006e-06
0.507473
1.9464e-06
0.507473
1.87269e-06
0.507473
1.82118e-06
0.507473
1.809e-06
0.507473
1.8318e-06
0.507473
1.85474e-06
0.507473
1.86669e-06
0.507473
1.88957e-06
0.507473
1.90234e-06
0.507473
1.87213e-06
0.507473
1.85664e-06
0.507474
1.91472e-06
0.507474
1.98008e-06
0.507474
1.97235e-06
0.507474
1.91022e-06
1.85407e-06
0.507415
3.83083e-07
0.507414
7.97509e-07
0.507414
4.8761e-07
0.507415
1.35073e-06
0.507416
1.39391e-06
0.507417
6.03619e-07
0.507419
7.32714e-08
0.50742
1.24226e-06
0.507421
1.16485e-06
0.507424
2.45502e-07
0.507425
1.3342e-06
0.507423
3.07563e-06
0.507421
2.57774e-06
0.507421
1.37343e-06
0.507421
1.39842e-06
0.507419
1.89777e-06
0.507418
1.66187e-06
0.507419
1.31561e-06
0.507421
6.6665e-07
0.507424
-1.4364e-08
0.507425
8.12895e-07
0.507424
2.16433e-06
0.507423
2.79269e-06
0.507423
2.00859e-06
0.507424
8.32207e-07
0.507425
1.17146e-06
0.507424
2.51915e-06
0.507422
3.0721e-06
0.507422
2.10714e-06
0.507424
7.93638e-07
0.507426
1.99313e-07
0.507426
7.56567e-07
0.507426
1.81229e-06
0.507426
2.05168e-06
0.507427
1.27732e-06
0.507428
6.20607e-07
0.507428
9.03083e-07
0.507427
1.8081e-06
0.507426
2.28818e-06
0.507427
1.98363e-06
0.507428
1.56048e-06
0.507428
1.62478e-06
0.507427
2.11034e-06
0.507426
2.60725e-06
0.507424
2.69398e-06
0.507424
2.20943e-06
0.507424
1.5037e-06
0.507424
1.15654e-06
0.507424
1.20847e-06
0.507424
1.37423e-06
0.507424
1.54717e-06
0.507424
1.63685e-06
0.507424
1.61367e-06
0.507424
1.61158e-06
0.507425
1.73277e-06
0.507425
1.90402e-06
0.507425
1.91064e-06
0.507425
1.63357e-06
0.507426
1.26455e-06
0.507426
1.20719e-06
0.507427
1.54747e-06
0.507427
1.80524e-06
0.507428
1.65904e-06
0.507429
1.2707e-06
0.50743
9.23253e-07
0.507431
8.5207e-07
0.507431
1.02137e-06
0.507431
1.21488e-06
0.507432
1.33275e-06
0.507432
1.35875e-06
0.507433
1.44924e-06
0.507434
1.69221e-06
0.507434
1.84764e-06
0.507434
1.81645e-06
0.507434
1.74064e-06
0.507435
1.6188e-06
0.507435
1.40935e-06
0.507435
1.23758e-06
0.507435
1.17426e-06
0.507435
1.14008e-06
0.507436
1.22942e-06
0.507436
1.5869e-06
0.507437
1.93567e-06
0.507437
1.90873e-06
0.507438
1.60786e-06
0.507439
1.33421e-06
0.507439
1.13626e-06
0.50744
9.55267e-07
0.50744
9.40111e-07
0.507441
1.20519e-06
0.507441
1.59527e-06
0.507442
2.0026e-06
0.507442
2.37031e-06
0.507442
2.41627e-06
0.507443
2.0301e-06
0.507443
1.59196e-06
0.507443
1.39809e-06
0.507443
1.30681e-06
0.507443
1.23047e-06
0.507443
1.31314e-06
0.507442
1.55677e-06
0.507441
1.86943e-06
0.507441
2.24849e-06
0.50744
2.56033e-06
0.50744
2.55154e-06
0.507439
2.23941e-06
0.507439
1.89459e-06
0.50744
1.59566e-06
0.50744
1.23789e-06
0.50744
9.4588e-07
0.50744
9.58369e-07
0.50744
1.1966e-06
0.507441
1.41776e-06
0.507441
1.58678e-06
0.507441
1.72801e-06
0.507442
1.72644e-06
0.507442
1.58261e-06
0.507442
1.48641e-06
0.507442
1.47899e-06
0.507442
1.45408e-06
0.507443
1.42553e-06
0.507442
1.47149e-06
0.507442
1.55677e-06
0.507442
1.5975e-06
0.507442
1.60207e-06
0.507442
1.63023e-06
0.507441
1.69427e-06
0.507442
1.7927e-06
0.507442
1.91028e-06
0.507442
1.9508e-06
0.507442
1.87352e-06
0.507442
1.81439e-06
0.507442
1.84487e-06
0.507442
1.81253e-06
0.507442
1.65758e-06
0.507443
1.55933e-06
0.507443
1.55639e-06
0.507443
1.45854e-06
0.507443
1.26274e-06
0.507444
1.20095e-06
0.507444
1.33167e-06
0.507444
1.46531e-06
0.507445
1.49786e-06
0.507445
1.50553e-06
0.507446
1.52176e-06
0.507446
1.47455e-06
0.507447
1.35907e-06
0.507447
1.22992e-06
0.507448
1.06736e-06
0.507448
8.69646e-07