/*--------------------------------*- C++ -*----------------------------------*\
| =========                 |                                                 |
| \\      /  F ield         | OpenFOAM: The Open Source CFD Toolbox           |
|  \\    /   O peration     | Version:  2406                                  |
|   \\  /    A nd           | Website:  www.openfoam.com                      |
|    \\/     M anipulation  |                                                 |
\*---------------------------------------------------------------------------*/
FoamFile
{
    version     2.0;
    format      ascii;
    arch        "LSB;label=32;scalar=64";
    class       volVectorField;
    location    "1";
    object      U;
}
// * * * * * * * * * * * * * * * * * * * * * * * * * * * * * * * * * * * * * //

dimensions      [0 1 -1 0 0 0 0];

internalField   nonuniform List<vector> 
6250
(
(50.3116 0.000145556 0)
(84.9183 0.000651554 0)
(72.7296 0.000930708 0)
(60.1666 0.000774235 0)
(59.4586 0.000602748 0)
(62.9058 0.000618514 0)
(64.3999 0.000687541 0)
(63.9461 0.000793173 0)
(63.3324 0.000890017 0)
(63.2319 0.000932394 0)
(63.3739 0.000917571 0)
(63.4574 0.00087501 0)
(63.4464 0.000785151 0)
(63.4173 0.00072179 0)
(63.4087 0.000785438 0)
(63.4134 0.000876038 0)
(63.417 0.000828388 0)
(63.4166 0.000714308 0)
(63.4149 0.000681779 0)
(63.4136 0.000681867 0)
(63.4133 0.000667847 0)
(63.4128 0.000682055 0)
(63.4121 0.000743138 0)
(63.4115 0.000850517 0)
(63.4106 0.000999273 0)
(63.4097 0.00112828 0)
(63.4089 0.0011441 0)
(63.4082 0.00105994 0)
(63.4075 0.000981267 0)
(63.4068 0.0009546 0)
(63.4062 0.000940635 0)
(63.4055 0.000900211 0)
(63.4049 0.000864804 0)
(63.4044 0.00087951 0)
(63.4037 0.000896868 0)
(63.4031 0.000854617 0)
(63.4025 0.000806745 0)
(63.4019 0.000856106 0)
(63.4012 0.00100862 0)
(63.4004 0.00114945 0)
(63.3996 0.00116399 0)
(63.3989 0.001046 0)
(63.3984 0.000875736 0)
(63.3979 0.000746955 0)
(63.3974 0.000697509 0)
(63.3968 0.00069536 0)
(63.3962 0.000700678 0)
(63.3955 0.000726294 0)
(63.3947 0.000796855 0)
(63.3939 0.000881772 0)
(63.3931 0.000931064 0)
(63.3924 0.00093848 0)
(63.3917 0.000925711 0)
(63.3911 0.000916414 0)
(63.3905 0.000923845 0)
(63.3898 0.000927514 0)
(63.3891 0.000894751 0)
(63.3885 0.000832324 0)
(63.3879 0.000796036 0)
(63.3873 0.000841313 0)
(63.3866 0.000959619 0)
(63.3858 0.00107687 0)
(63.385 0.00112748 0)
(63.3842 0.00112197 0)
(63.3835 0.00111041 0)
(63.3828 0.0011022 0)
(63.382 0.00107203 0)
(63.3813 0.00100481 0)
(63.3807 0.000919832 0)
(63.3801 0.000866825 0)
(63.3795 0.000871645 0)
(63.3787 0.000907125 0)
(63.3779 0.000931014 0)
(63.3772 0.000930993 0)
(63.3764 0.000939221 0)
(63.3757 0.000981954 0)
(63.375 0.00102772 0)
(63.3742 0.00103232 0)
(63.3736 0.00100215 0)
(63.3729 0.000977088 0)
(63.3722 0.000979329 0)
(63.3716 0.000997757 0)
(63.3709 0.00100159 0)
(63.3702 0.000969317 0)
(63.3695 0.000928199 0)
(63.3689 0.000939567 0)
(63.3682 0.00101998 0)
(63.3674 0.00111866 0)
(63.3666 0.00118378 0)
(63.3659 0.00120653 0)
(63.3651 0.00119334 0)
(63.3644 0.0011383 0)
(63.3636 0.00104508 0)
(63.363 0.000940401 0)
(63.3624 0.000854183 0)
(63.3618 0.000810949 0)
(63.3612 0.000818813 0)
(63.3606 0.000848941 0)
(63.3598 0.000867158 0)
(63.3592 0.00088405 0)
(63.3585 0.000927703 0)
(63.3578 0.000984378 0)
(63.3571 0.00101136 0)
(63.3564 0.000988158 0)
(63.3557 0.000922972 0)
(63.355 0.000838276 0)
(63.3543 0.000763275 0)
(63.3538 0.000715176 0)
(63.3532 0.000692786 0)
(63.3526 0.000701716 0)
(63.352 0.000760065 0)
(63.3513 0.000857863 0)
(63.3506 0.000942968 0)
(63.3499 0.000975626 0)
(63.3492 0.000965953 0)
(63.3485 0.000937056 0)
(63.3479 0.000892131 0)
(63.3472 0.000836795 0)
(63.3467 0.000789811 0)
(63.3461 0.00075864 0)
(63.3454 0.000739004 0)
(63.3448 0.000732076 0)
(63.3442 0.000740343 0)
(63.3436 0.000759754 0)
(63.343 0.000786362 0)
(63.3423 0.00081616 0)
(63.3416 0.000837737 0)
(63.3409 0.000838872 0)
(63.3402 0.000821933 0)
(63.3395 0.000802596 0)
(63.3389 0.000793038 0)
(63.3382 0.00079491 0)
(63.3376 0.00080185 0)
(63.337 0.00080168 0)
(63.3363 0.000789231 0)
(63.3357 0.000778914 0)
(63.3351 0.000784237 0)
(63.3345 0.00079392 0)
(63.3339 0.000798766 0)
(63.3333 0.000822588 0)
(63.3327 0.000884804 0)
(63.332 0.000957228 0)
(63.3313 0.00100111 0)
(63.3306 0.00101869 0)
(63.33 0.00103339 0)
(63.3293 0.00104491 0)
(63.3286 0.00103973 0)
(63.328 0.00102862 0)
(63.3273 0.00104035 0)
(63.3266 0.00108553 0)
(63.3258 0.00114627 0)
(63.3251 0.00119451 0)
(63.3243 0.00121102 0)
(63.3235 0.00120016 0)
(63.3227 0.00118946 0)
(63.322 0.00119995 0)
(63.3212 0.00121982 0)
(63.3204 0.00121909 0)
(63.3196 0.00118404 0)
(63.3189 0.00113022 0)
(63.3181 0.00108736 0)
(63.3174 0.00107401 0)
(63.3167 0.00108344 0)
(63.3159 0.00109777 0)
(63.3151 0.00111369 0)
(63.3144 0.00113987 0)
(63.3136 0.00117033 0)
(63.3128 0.00118279 0)
(63.3121 0.00117153 0)
(63.3114 0.00115703 0)
(63.3107 0.00115288 0)
(63.31 0.001148 0)
(63.3093 0.00113299 0)
(63.3086 0.00112076 0)
(63.308 0.00112561 0)
(63.3073 0.00114058 0)
(63.3066 0.00115005 0)
(63.306 0.00115092 0)
(63.3053 0.00114886 0)
(63.3046 0.00114335 0)
(63.3039 0.00112629 0)
(63.3032 0.00109048 0)
(63.3025 0.00103605 0)
(63.3019 0.000973139 0)
(63.3013 0.000917814 0)
(63.3006 0.000880229 0)
(63.3 0.000856206 0)
(63.2994 0.000832256 0)
(63.2988 0.000798217 0)
(63.2981 0.000757134 0)
(63.2975 0.000725078 0)
(63.297 0.000716213 0)
(63.2964 0.000724639 0)
(63.2958 0.000728428 0)
(63.2951 0.000715001 0)
(63.2946 0.000692056 0)
(63.294 0.000670796 0)
(63.2934 0.000653757 0)
(63.2928 0.000644817 0)
(63.2922 0.000652595 0)
(63.2917 0.000673823 0)
(63.2911 0.000690003 0)
(63.2905 0.00069042 0)
(63.2899 0.000683627 0)
(63.2894 0.000680964 0)
(63.2888 0.000683834 0)
(63.2883 0.000689033 0)
(63.2877 0.00069194 0)
(63.2871 0.000686763 0)
(63.2866 0.00067676 0)
(63.2861 0.000678269 0)
(63.2855 0.000702717 0)
(63.285 0.000741316 0)
(63.2844 0.000775872 0)
(63.2838 0.000797662 0)
(63.2832 0.000810348 0)
(63.2826 0.000821506 0)
(63.282 0.000835598 0)
(63.2814 0.000851115 0)
(63.2808 0.000864479 0)
(63.2802 0.000876915 0)
(63.2796 0.000891861 0)
(63.279 0.000906823 0)
(63.2784 0.000918238 0)
(63.2778 0.000931976 0)
(63.2772 0.000955183 0)
(63.2765 0.000982271 0)
(63.2759 0.00100387 0)
(63.2753 0.00102058 0)
(63.2747 0.00103361 0)
(63.274 0.00103579 0)
(63.2734 0.00102481 0)
(63.2728 0.00100984 0)
(63.2721 0.000996749 0)
(63.2715 0.000982205 0)
(63.2709 0.000966879 0)
(63.2703 0.000959854 0)
(63.2697 0.000966303 0)
(63.269 0.000981952 0)
(63.2684 0.000999606 0)
(63.2677 0.00101284 0)
(63.267 0.00101686 0)
(63.2664 0.00101179 0)
(63.2658 0.00100256 0)
(63.2651 0.000995655 0)
(63.2645 0.000995841 0)
(63.2638 0.0010036 0)
(63.2631 0.00099596 0)
(63.2626 0.000997862 0)
(63.2616 0.000931234 0)
(50.3112 7.95999e-05 0)
(84.9192 0.000498385 0)
(72.7331 0.000738614 0)
(60.1716 0.000598934 0)
(59.4636 0.000428632 0)
(62.9115 0.000429621 0)
(64.4064 0.000485423 0)
(63.9537 0.00048618 0)
(63.3416 0.000521623 0)
(63.2426 0.000631386 0)
(63.3856 0.000736105 0)
(63.4704 0.000768469 0)
(63.4605 0.000665325 0)
(63.432 0.000487644 0)
(63.4242 0.00038468 0)
(63.4304 0.000435066 0)
(63.4351 0.000501397 0)
(63.4353 0.000455505 0)
(63.4344 0.000440662 0)
(63.4339 0.00053154 0)
(63.4344 0.000598374 0)
(63.435 0.000569244 0)
(63.4353 0.00050608 0)
(63.4358 0.0004845 0)
(63.4362 0.000508157 0)
(63.437 0.000544898 0)
(63.4376 0.000533728 0)
(63.4379 0.000470608 0)
(63.4382 0.000421933 0)
(63.4386 0.000405 0)
(63.4391 0.000381555 0)
(63.4394 0.000337495 0)
(63.4396 0.000308411 0)
(63.4398 0.000339263 0)
(63.4401 0.000388512 0)
(63.4404 0.000381723 0)
(63.4406 0.000341084 0)
(63.4409 0.000336169 0)
(63.4412 0.000362845 0)
(63.4418 0.000364556 0)
(63.4425 0.00033118 0)
(63.443 0.000313903 0)
(63.4432 0.000334532 0)
(63.4432 0.000358175 0)
(63.4435 0.000379522 0)
(63.4439 0.000432002 0)
(63.4444 0.000522349 0)
(63.4447 0.000623555 0)
(63.4451 0.000700139 0)
(63.4455 0.000704855 0)
(63.4459 0.000618014 0)
(63.4464 0.000496095 0)
(63.4467 0.000405566 0)
(63.447 0.000363166 0)
(63.4473 0.00036745 0)
(63.4477 0.000402644 0)
(63.4481 0.00043371 0)
(63.4484 0.000435519 0)
(63.4486 0.000412838 0)
(63.4488 0.000396077 0)
(63.4493 0.000409787 0)
(63.4498 0.000436526 0)
(63.4503 0.000428821 0)
(63.4507 0.00038488 0)
(63.4512 0.000359493 0)
(63.4516 0.000371252 0)
(63.4521 0.000389175 0)
(63.4525 0.000388102 0)
(63.4527 0.000372606 0)
(63.453 0.000383481 0)
(63.4534 0.000446927 0)
(63.4538 0.000533084 0)
(63.4542 0.000587033 0)
(63.4546 0.00056953 0)
(63.455 0.000502679 0)
(63.4554 0.00045537 0)
(63.4559 0.000447625 0)
(63.4563 0.000438951 0)
(63.4567 0.000404954 0)
(63.4571 0.000362575 0)
(63.4574 0.000338837 0)
(63.4579 0.000353916 0)
(63.4582 0.00040535 0)
(63.4585 0.000444359 0)
(63.4587 0.000423563 0)
(63.4589 0.000368131 0)
(63.4593 0.000331716 0)
(63.4598 0.000316379 0)
(63.4603 0.00029739 0)
(63.4609 0.000286744 0)
(63.4616 0.000314609 0)
(63.4621 0.000370951 0)
(63.4624 0.00041893 0)
(63.4626 0.000438545 0)
(63.4627 0.000423102 0)
(63.4628 0.00038868 0)
(63.463 0.000382071 0)
(63.4635 0.000416479 0)
(63.4639 0.000441897 0)
(63.4643 0.000428599 0)
(63.4648 0.00041218 0)
(63.4652 0.00042499 0)
(63.4657 0.000457402 0)
(63.4661 0.000493133 0)
(63.4665 0.000520629 0)
(63.4668 0.000528187 0)
(63.467 0.000521624 0)
(63.4673 0.000514399 0)
(63.4675 0.000494628 0)
(63.4677 0.000445366 0)
(63.468 0.000394141 0)
(63.4684 0.000388417 0)
(63.4689 0.000423372 0)
(63.4693 0.000453078 0)
(63.4697 0.000460983 0)
(63.4701 0.000461227 0)
(63.4704 0.000453977 0)
(63.4706 0.000436464 0)
(63.4709 0.000427015 0)
(63.4712 0.000435566 0)
(63.4715 0.000449265 0)
(63.4718 0.000462016 0)
(63.4721 0.000478375 0)
(63.4724 0.000492831 0)
(63.4728 0.000497841 0)
(63.4732 0.00050154 0)
(63.4736 0.000516776 0)
(63.474 0.000539683 0)
(63.4744 0.000553739 0)
(63.4747 0.000549317 0)
(63.475 0.000528845 0)
(63.4753 0.000504652 0)
(63.4755 0.000493466 0)
(63.4758 0.00049567 0)
(63.4761 0.000490056 0)
(63.4764 0.000467892 0)
(63.4767 0.000446282 0)
(63.477 0.000428011 0)
(63.4772 0.000392785 0)
(63.4775 0.000348589 0)
(63.4778 0.000333533 0)
(63.4783 0.00034943 0)
(63.4786 0.000356059 0)
(63.479 0.00033788 0)
(63.4794 0.000321647 0)
(63.4797 0.000323785 0)
(63.48 0.000326802 0)
(63.4804 0.000316145 0)
(63.4807 0.000301382 0)
(63.4812 0.000294551 0)
(63.4817 0.000298493 0)
(63.4822 0.000313895 0)
(63.4828 0.000332175 0)
(63.4833 0.000334427 0)
(63.4837 0.000318204 0)
(63.4842 0.00030807 0)
(63.4847 0.00032481 0)
(63.4852 0.000360559 0)
(63.4857 0.000390648 0)
(63.4861 0.00039905 0)
(63.4864 0.000392057 0)
(63.4868 0.000389403 0)
(63.4872 0.000398412 0)
(63.4876 0.00040418 0)
(63.4881 0.000394359 0)
(63.4886 0.000379496 0)
(63.4891 0.000371432 0)
(63.4896 0.000357748 0)
(63.49 0.000322972 0)
(63.4904 0.000281881 0)
(63.4908 0.000260895 0)
(63.4912 0.000257 0)
(63.4916 0.00024593 0)
(63.492 0.000222343 0)
(63.4923 0.000202609 0)
(63.4927 0.000195176 0)
(63.4931 0.000194781 0)
(63.4935 0.000200498 0)
(63.4939 0.000216819 0)
(63.4944 0.000240443 0)
(63.4948 0.000263499 0)
(63.4952 0.000285597 0)
(63.4955 0.000309562 0)
(63.4958 0.00033206 0)
(63.4961 0.000348969 0)
(63.4964 0.000364287 0)
(63.4967 0.000386287 0)
(63.497 0.00041743 0)
(63.4973 0.000449974 0)
(63.4976 0.000471039 0)
(63.4978 0.000475893 0)
(63.4981 0.000475306 0)
(63.4984 0.000481911 0)
(63.4987 0.000492858 0)
(63.4989 0.000498715 0)
(63.4992 0.00050231 0)
(63.4995 0.000510261 0)
(63.4997 0.00051388 0)
(63.5 0.000501887 0)
(63.5002 0.000484153 0)
(63.5005 0.000478022 0)
(63.5007 0.000479842 0)
(63.501 0.000474461 0)
(63.5012 0.000461163 0)
(63.5015 0.000448595 0)
(63.5017 0.000438246 0)
(63.5019 0.000430865 0)
(63.5022 0.000431598 0)
(63.5024 0.000435723 0)
(63.5026 0.000428478 0)
(63.5028 0.000407312 0)
(63.503 0.00038678 0)
(63.5033 0.000378362 0)
(63.5036 0.000379943 0)
(63.5039 0.00038372 0)
(63.5042 0.000382678 0)
(63.5045 0.000372816 0)
(63.5048 0.000356648 0)
(63.505 0.000339746 0)
(63.5053 0.000323363 0)
(63.5055 0.000308459 0)
(63.5058 0.000300884 0)
(63.5062 0.000300707 0)
(63.5065 0.000296436 0)
(63.5068 0.000281781 0)
(63.5071 0.000263882 0)
(63.5074 0.000246502 0)
(63.5077 0.000226997 0)
(63.5081 0.000213845 0)
(63.5085 0.000219547 0)
(63.5088 0.000236935 0)
(63.5092 0.000249078 0)
(63.5095 0.000254823 0)
(63.5098 0.000262111 0)
(63.5101 0.00026822 0)
(63.5104 0.000266781 0)
(63.5107 0.000263407 0)
(63.511 0.000268184 0)
(63.5113 0.000281628 0)
(63.5117 0.000296882 0)
(63.512 0.00030664 0)
(63.5124 0.00030629 0)
(63.5127 0.000297927 0)
(63.513 0.000288348 0)
(63.5133 0.000282002 0)
(63.5137 0.000283253 0)
(63.514 0.000300603 0)
(63.5144 0.000320698 0)
(63.5147 0.00034881 0)
(63.5151 0.000324509 0)
(50.3117 -4.61492e-05 0)
(84.9188 -2.3135e-05 0)
(72.7315 5.68646e-05 0)
(60.1694 0.000147066 0)
(59.4616 0.000164416 0)
(62.9093 0.000187963 0)
(64.4041 0.000252667 0)
(63.9508 0.000195197 0)
(63.3377 3.85702e-05 0)
(63.2383 -7.21911e-05 0)
(63.3813 -4.31517e-05 0)
(63.4661 3.05833e-05 0)
(63.4561 9.00535e-05 0)
(63.4276 0.000162613 0)
(63.4193 0.000172656 0)
(63.4245 0.000121759 0)
(63.4292 0.00016692 0)
(63.4294 0.000253599 0)
(63.4279 0.000250894 0)
(63.4275 0.0001802 0)
(63.4281 0.00013754 0)
(63.4283 0.000159022 0)
(63.4281 0.00017509 0)
(63.4282 0.000120551 0)
(63.4281 -7.97057e-06 0)
(63.4281 -7.40819e-05 0)
(63.4282 3.01039e-05 0)
(63.4282 0.000180556 0)
(63.4281 0.000211464 0)
(63.4281 0.000150983 0)
(63.4282 0.000161827 0)
(63.4281 0.000287319 0)
(63.4281 0.000383008 0)
(63.4281 0.000357949 0)
(63.4283 0.000302311 0)
(63.4284 0.000316466 0)
(63.4284 0.000371158 0)
(63.4283 0.000363016 0)
(63.4282 0.000242485 0)
(63.4282 8.85877e-05 0)
(63.4282 2.9455e-05 0)
(63.4281 0.000110433 0)
(63.4281 0.000236477 0)
(63.4281 0.000252634 0)
(63.4281 0.000141092 0)
(63.428 4.20758e-05 0)
(63.428 5.20246e-05 0)
(63.428 0.000115621 0)
(63.4281 0.000148065 0)
(63.4282 0.000137983 0)
(63.4284 0.000111789 0)
(63.4285 0.000110012 0)
(63.4285 0.000153048 0)
(63.4284 0.000197427 0)
(63.4284 0.000202682 0)
(63.4284 0.000192295 0)
(63.4285 0.000212323 0)
(63.4286 0.000269655 0)
(63.4286 0.000313488 0)
(63.4286 0.000290274 0)
(63.4286 0.000218948 0)
(63.4287 0.000177269 0)
(63.4287 0.00019441 0)
(63.4288 0.000224209 0)
(63.4287 0.000236263 0)
(63.4287 0.000232811 0)
(63.4288 0.000220228 0)
(63.4289 0.000214114 0)
(63.4289 0.00021545 0)
(63.4289 0.000212474 0)
(63.429 0.000203171 0)
(63.429 0.000194968 0)
(63.4291 0.000201852 0)
(63.4292 0.000208941 0)
(63.4292 0.000180848 0)
(63.4292 0.000135801 0)
(63.4292 0.000124346 0)
(63.4292 0.000150652 0)
(63.4293 0.000181339 0)
(63.4293 0.000196388 0)
(63.4294 0.000198682 0)
(63.4294 0.00021264 0)
(63.4294 0.000279638 0)
(63.4295 0.000393661 0)
(63.4296 0.000467414 0)
(63.4296 0.000434518 0)
(63.4296 0.000331111 0)
(63.4296 0.000228509 0)
(63.4295 0.000151983 0)
(63.4294 0.000105048 0)
(63.4294 0.000112423 0)
(63.4294 0.000185206 0)
(63.4295 0.000291469 0)
(63.4296 0.00038962 0)
(63.4298 0.000436217 0)
(63.4298 0.000393429 0)
(63.4298 0.00029015 0)
(63.4298 0.000208551 0)
(63.4299 0.000171507 0)
(63.4299 0.000129542 0)
(63.4299 6.55587e-05 0)
(63.4299 1.83695e-05 0)
(63.4298 1.74307e-05 0)
(63.4298 6.35313e-05 0)
(63.4299 0.00013912 0)
(63.4299 0.000205993 0)
(63.43 0.000235866 0)
(63.43 0.000243593 0)
(63.4302 0.000249443 0)
(63.4303 0.00023187 0)
(63.4303 0.000171021 0)
(63.4302 0.000109131 0)
(63.4303 0.000101202 0)
(63.4303 0.000137012 0)
(63.4303 0.0001715 0)
(63.4304 0.000191604 0)
(63.4305 0.000202048 0)
(63.4306 0.000195288 0)
(63.4306 0.000175935 0)
(63.4307 0.000163141 0)
(63.4308 0.000156495 0)
(63.4309 0.000145555 0)
(63.4309 0.000134962 0)
(63.431 0.000128061 0)
(63.431 0.000113352 0)
(63.431 8.86186e-05 0)
(63.431 7.5438e-05 0)
(63.4311 9.22031e-05 0)
(63.4312 0.000129624 0)
(63.4313 0.000164812 0)
(63.4314 0.000181711 0)
(63.4314 0.000177895 0)
(63.4315 0.00017188 0)
(63.4315 0.00018863 0)
(63.4316 0.000220567 0)
(63.4317 0.00023534 0)
(63.4318 0.000234264 0)
(63.4319 0.000248647 0)
(63.432 0.000271495 0)
(63.432 0.00026529 0)
(63.432 0.000238477 0)
(63.432 0.000236466 0)
(63.432 0.000263647 0)
(63.432 0.000282967 0)
(63.432 0.000283136 0)
(63.432 0.000289798 0)
(63.432 0.000312897 0)
(63.432 0.000330248 0)
(63.432 0.000322453 0)
(63.432 0.000289642 0)
(63.432 0.000245478 0)
(63.432 0.000217379 0)
(63.432 0.000228858 0)
(63.4321 0.000264986 0)
(63.4321 0.000283232 0)
(63.4321 0.000267549 0)
(63.432 0.000245246 0)
(63.432 0.000248792 0)
(63.4321 0.000280759 0)
(63.4322 0.000314202 0)
(63.4322 0.000319974 0)
(63.4323 0.000296662 0)
(63.4323 0.000269249 0)
(63.4324 0.000253276 0)
(63.4324 0.000237141 0)
(63.4324 0.000213219 0)
(63.4324 0.000202244 0)
(63.4325 0.000222186 0)
(63.4325 0.00025449 0)
(63.4325 0.000273408 0)
(63.4325 0.000287454 0)
(63.4325 0.000317739 0)
(63.4325 0.000355843 0)
(63.4325 0.000376399 0)
(63.4325 0.000375205 0)
(63.4324 0.000367169 0)
(63.4324 0.000359847 0)
(63.4323 0.00035088 0)
(63.4322 0.000339781 0)
(63.4321 0.000326392 0)
(63.4321 0.000308992 0)
(63.4321 0.00029345 0)
(63.4321 0.000290201 0)
(63.4321 0.000296244 0)
(63.4321 0.000293993 0)
(63.4321 0.00027209 0)
(63.4322 0.000238237 0)
(63.4322 0.000211291 0)
(63.4323 0.000204808 0)
(63.4324 0.000212846 0)
(63.4325 0.000212373 0)
(63.4326 0.00018943 0)
(63.4326 0.000157396 0)
(63.4327 0.000136417 0)
(63.4328 0.000127186 0)
(63.4329 0.000122684 0)
(63.4331 0.000127837 0)
(63.4332 0.000144213 0)
(63.4333 0.000154385 0)
(63.4334 0.000146859 0)
(63.4335 0.000138146 0)
(63.4336 0.000147237 0)
(63.4336 0.000168248 0)
(63.4337 0.00018634 0)
(63.4337 0.000197621 0)
(63.4337 0.000200727 0)
(63.4338 0.000194943 0)
(63.4338 0.000193457 0)
(63.4339 0.000211176 0)
(63.4339 0.000238047 0)
(63.434 0.000249177 0)
(63.434 0.000238428 0)
(63.4341 0.000222596 0)
(63.4341 0.00021882 0)
(63.4341 0.000231806 0)
(63.4341 0.000255377 0)
(63.4342 0.000277985 0)
(63.4342 0.000293092 0)
(63.4342 0.000304062 0)
(63.4342 0.00031253 0)
(63.4342 0.000313099 0)
(63.4342 0.000308344 0)
(63.4343 0.000311298 0)
(63.4343 0.00032361 0)
(63.4343 0.000332567 0)
(63.4343 0.000335296 0)
(63.4344 0.000339503 0)
(63.4344 0.000341902 0)
(63.4343 0.000336322 0)
(63.4342 0.000333569 0)
(63.4342 0.000344376 0)
(63.4342 0.000358653 0)
(63.4342 0.000364556 0)
(63.4342 0.000368035 0)
(63.4342 0.000375976 0)
(63.4342 0.000380297 0)
(63.4342 0.000372767 0)
(63.4342 0.000358258 0)
(63.4342 0.00034532 0)
(63.4342 0.000337998 0)
(63.4342 0.00033767 0)
(63.4342 0.000342787 0)
(63.4342 0.000350196 0)
(63.4342 0.000357842 0)
(63.4342 0.000359657 0)
(63.4341 0.000348844 0)
(63.4341 0.000334531 0)
(63.4341 0.000334949 0)
(63.4341 0.000346078 0)
(63.4341 0.000349299 0)
(50.3117 1.86665e-05 0)
(84.9185 0.000108115 0)
(72.7317 0.000305362 0)
(60.1695 0.000374344 0)
(59.4619 0.000324805 0)
(62.9095 0.000298691 0)
(64.4044 0.000288605 0)
(63.9516 0.000321657 0)
(63.3387 0.000315059 0)
(63.2388 0.000241351 0)
(63.3812 0.00015796 0)
(63.4655 0.000223498 0)
(63.4552 0.000374767 0)
(63.4265 0.000453348 0)
(63.419 0.000495686 0)
(63.4245 0.000483551 0)
(63.4285 0.000443963 0)
(63.429 0.000413892 0)
(63.4279 0.000359536 0)
(63.4272 0.000257892 0)
(63.4271 0.00021597 0)
(63.4275 0.000312556 0)
(63.4275 0.000415217 0)
(63.4276 0.000443734 0)
(63.4274 0.000445856 0)
(63.4272 0.00044348 0)
(63.4272 0.000447261 0)
(63.4275 0.000444545 0)
(63.4279 0.000430503 0)
(63.4278 0.000410827 0)
(63.4277 0.000393171 0)
(63.4278 0.000357818 0)
(63.4281 0.000285037 0)
(63.4283 0.000209182 0)
(63.4283 0.000214735 0)
(63.4282 0.00029741 0)
(63.4282 0.000357258 0)
(63.4285 0.000350007 0)
(63.4286 0.000339652 0)
(63.4286 0.000387806 0)
(63.4285 0.000458735 0)
(63.4284 0.000486549 0)
(63.4286 0.000471655 0)
(63.4288 0.000446603 0)
(63.4289 0.000425673 0)
(63.4288 0.000422057 0)
(63.4287 0.000435134 0)
(63.4286 0.000424261 0)
(63.4286 0.000371331 0)
(63.4286 0.00032903 0)
(63.4287 0.000335275 0)
(63.4286 0.000376496 0)
(63.4287 0.000434501 0)
(63.4288 0.000475964 0)
(63.4288 0.000462586 0)
(63.4288 0.000397432 0)
(63.4288 0.000323195 0)
(63.4289 0.00028493 0)
(63.429 0.000287758 0)
(63.4291 0.000292512 0)
(63.4292 0.000268403 0)
(63.4292 0.000248659 0)
(63.4292 0.000278852 0)
(63.4293 0.00033102 0)
(63.4293 0.00035455 0)
(63.4294 0.000339179 0)
(63.4294 0.000303661 0)
(63.4295 0.000286603 0)
(63.4296 0.000305739 0)
(63.4295 0.000337395 0)
(63.4295 0.000351401 0)
(63.4295 0.000337286 0)
(63.4295 0.0003291 0)
(63.4295 0.000364944 0)
(63.4296 0.000417961 0)
(63.4295 0.000439982 0)
(63.4295 0.000425307 0)
(63.4295 0.000390597 0)
(63.4295 0.000352931 0)
(63.4295 0.000334042 0)
(63.4296 0.000336557 0)
(63.4296 0.000328437 0)
(63.4295 0.000299935 0)
(63.4296 0.00028773 0)
(63.4298 0.000301032 0)
(63.4299 0.00030299 0)
(63.4301 0.000283398 0)
(63.4303 0.000275915 0)
(63.4304 0.000295293 0)
(63.4305 0.000316373 0)
(63.4305 0.000325804 0)
(63.4304 0.000333037 0)
(63.4304 0.000337772 0)
(63.4304 0.000344987 0)
(63.4305 0.000365967 0)
(63.4306 0.000371962 0)
(63.4307 0.000327899 0)
(63.4307 0.000270708 0)
(63.4307 0.000267092 0)
(63.4308 0.000319554 0)
(63.4308 0.000388739 0)
(63.4308 0.000455318 0)
(63.4308 0.000508044 0)
(63.4307 0.000535249 0)
(63.4306 0.00054124 0)
(63.4306 0.000524372 0)
(63.4306 0.000465046 0)
(63.4305 0.000371498 0)
(63.4306 0.000297513 0)
(63.4307 0.000277212 0)
(63.4307 0.000284843 0)
(63.4307 0.000292065 0)
(63.4307 0.00031007 0)
(63.4307 0.000344095 0)
(63.4306 0.000369345 0)
(63.4306 0.000375278 0)
(63.4307 0.000375289 0)
(63.4307 0.000368575 0)
(63.4306 0.000348835 0)
(63.4306 0.000331495 0)
(63.4306 0.000328393 0)
(63.4306 0.000330316 0)
(63.4305 0.000334491 0)
(63.4305 0.000351949 0)
(63.4306 0.00038123 0)
(63.4305 0.000402861 0)
(63.4305 0.000405031 0)
(63.4304 0.00039555 0)
(63.4304 0.000387246 0)
(63.4303 0.000388414 0)
(63.4303 0.000398964 0)
(63.4303 0.000402374 0)
(63.4303 0.000382744 0)
(63.4303 0.000353851 0)
(63.4303 0.000337856 0)
(63.4302 0.000323799 0)
(63.4302 0.000293687 0)
(63.4302 0.000269032 0)
(63.4303 0.000274846 0)
(63.4304 0.000290345 0)
(63.4304 0.000289857 0)
(63.4304 0.000291228 0)
(63.4305 0.000316934 0)
(63.4305 0.000347194 0)
(63.4306 0.000349768 0)
(63.4307 0.000325778 0)
(63.4307 0.000296658 0)
(63.4308 0.000272124 0)
(63.4309 0.000254832 0)
(63.431 0.000246902 0)
(63.4311 0.000237593 0)
(63.4312 0.000216208 0)
(63.4312 0.000198838 0)
(63.4313 0.00021135 0)
(63.4314 0.000251116 0)
(63.4315 0.000290143 0)
(63.4315 0.000307685 0)
(63.4315 0.000305358 0)
(63.4315 0.000299241 0)
(63.4315 0.000301573 0)
(63.4315 0.000305588 0)
(63.4316 0.000296342 0)
(63.4316 0.000277295 0)
(63.4316 0.000267923 0)
(63.4317 0.000272391 0)
(63.4317 0.000274857 0)
(63.4317 0.000272505 0)
(63.4317 0.000283375 0)
(63.4318 0.000309993 0)
(63.4318 0.00032681 0)
(63.4319 0.000318941 0)
(63.4319 0.000303423 0)
(63.432 0.000298698 0)
(63.4321 0.000301296 0)
(63.4322 0.000303426 0)
(63.4324 0.000308107 0)
(63.4325 0.000317388 0)
(63.4327 0.000326097 0)
(63.4328 0.000333272 0)
(63.4329 0.000342519 0)
(63.433 0.000349313 0)
(63.4331 0.000344441 0)
(63.4332 0.000330463 0)
(63.4332 0.00032083 0)
(63.4333 0.000323055 0)
(63.4334 0.00033121 0)
(63.4334 0.000332827 0)
(63.4334 0.000320864 0)
(63.4333 0.000303136 0)
(63.4333 0.00029656 0)
(63.4333 0.000306063 0)
(63.4333 0.000318418 0)
(63.4333 0.000323055 0)
(63.4332 0.000323261 0)
(63.4332 0.000319707 0)
(63.4331 0.000305432 0)
(63.4331 0.000286912 0)
(63.433 0.00028494 0)
(63.433 0.000303832 0)
(63.433 0.000324693 0)
(63.433 0.000336471 0)
(63.4329 0.000347554 0)
(63.4329 0.000363005 0)
(63.4329 0.000377554 0)
(63.4329 0.000390395 0)
(63.4328 0.000401171 0)
(63.4328 0.000397889 0)
(63.4328 0.000373136 0)
(63.4327 0.000341871 0)
(63.4327 0.000323691 0)
(63.4328 0.000319895 0)
(63.4328 0.000320083 0)
(63.4328 0.000317399 0)
(63.4328 0.000310334 0)
(63.4328 0.000301731 0)
(63.4328 0.000298052 0)
(63.4328 0.000300989 0)
(63.4329 0.000304361 0)
(63.4329 0.000304496 0)
(63.433 0.000302204 0)
(63.433 0.0002923 0)
(63.4331 0.00026881 0)
(63.4331 0.000240592 0)
(63.4332 0.000222186 0)
(63.4332 0.000214455 0)
(63.4333 0.000214114 0)
(63.4334 0.000227411 0)
(63.4336 0.000252741 0)
(63.4337 0.000271744 0)
(63.4337 0.000275757 0)
(63.4338 0.000276001 0)
(63.4339 0.000278353 0)
(63.434 0.000274707 0)
(63.434 0.000263624 0)
(63.4341 0.000255354 0)
(63.4342 0.000254379 0)
(63.4343 0.00025563 0)
(63.4344 0.000256085 0)
(63.4345 0.000256926 0)
(63.4345 0.000259694 0)
(63.4346 0.000266977 0)
(63.4347 0.000279516 0)
(63.4348 0.000294008 0)
(63.4348 0.000310203 0)
(63.4349 0.000329059 0)
(63.435 0.000341236 0)
(63.4351 0.000337734 0)
(63.4352 0.000326576 0)
(63.4352 0.0003233 0)
(63.4353 0.000322666 0)
(50.3116 2.80285e-05 0)
(84.919 3.87295e-05 0)
(72.7319 0.000124964 0)
(60.17 0.000191548 0)
(59.4617 0.000194658 0)
(62.9095 0.000202811 0)
(64.4042 0.000222567 0)
(63.951 0.00024591 0)
(63.3382 0.000286032 0)
(63.2386 0.000383586 0)
(63.3812 0.000309779 0)
(63.4653 0.000123082 0)
(63.4557 5.63777e-05 0)
(63.427 5.37762e-05 0)
(63.4188 4.95734e-05 0)
(63.4245 5.15114e-05 0)
(63.4292 6.72985e-05 0)
(63.4294 0.000120306 0)
(63.428 0.00024971 0)
(63.4275 0.000390276 0)
(63.4276 0.000372521 0)
(63.4279 0.000224097 0)
(63.4281 0.000106306 0)
(63.4282 0.000103838 0)
(63.4281 0.0001732 0)
(63.4282 0.000134858 0)
(63.4282 -2.97982e-05 0)
(63.4282 -0.000128391 0)
(63.4281 -2.04969e-05 0)
(63.428 0.000156925 0)
(63.428 0.000185978 0)
(63.4281 8.56603e-05 0)
(63.4282 5.10037e-05 0)
(63.428 0.000155212 0)
(63.4279 0.00027724 0)
(63.4279 0.000276387 0)
(63.4282 0.000159863 0)
(63.4284 6.65944e-05 0)
(63.4283 9.70903e-05 0)
(63.4283 0.000194703 0)
(63.4282 0.00021675 0)
(63.4283 0.000112667 0)
(63.4283 -2.63811e-06 0)
(63.4284 -3.38829e-06 0)
(63.4285 9.20575e-05 0)
(63.4286 0.000183943 0)
(63.4288 0.000227537 0)
(63.429 0.000230906 0)
(63.4291 0.000201519 0)
(63.4291 0.00016661 0)
(63.4291 0.00014584 0)
(63.4291 0.000119516 0)
(63.4291 8.79911e-05 0)
(63.4292 7.72893e-05 0)
(63.4293 9.44155e-05 0)
(63.4293 0.000120502 0)
(63.4293 0.000129851 0)
(63.4292 0.000120607 0)
(63.4292 0.000118043 0)
(63.4292 0.000139548 0)
(63.4292 0.000164742 0)
(63.4291 0.000174494 0)
(63.429 0.000185657 0)
(63.429 0.000195913 0)
(63.429 0.000183564 0)
(63.4291 0.000154767 0)
(63.4291 0.000128996 0)
(63.4291 0.000130318 0)
(63.4291 0.000168811 0)
(63.4291 0.00022213 0)
(63.4291 0.00026069 0)
(63.4292 0.000257878 0)
(63.4291 0.000220338 0)
(63.4292 0.000198744 0)
(63.4292 0.000210575 0)
(63.4293 0.000218294 0)
(63.4294 0.000196538 0)
(63.4294 0.000155034 0)
(63.4295 0.000114426 0)
(63.4296 0.00010321 0)
(63.4297 0.000143658 0)
(63.4297 0.000204641 0)
(63.4297 0.000225963 0)
(63.4296 0.00020201 0)
(63.4296 0.000167463 0)
(63.4295 0.000126891 0)
(63.4295 6.94069e-05 0)
(63.4294 2.08862e-05 0)
(63.4294 2.25858e-05 0)
(63.4294 7.29756e-05 0)
(63.4293 0.000141694 0)
(63.4293 0.000208609 0)
(63.4292 0.000248458 0)
(63.4291 0.000245161 0)
(63.4291 0.000229997 0)
(63.4292 0.000230024 0)
(63.4293 0.000214704 0)
(63.4293 0.000159788 0)
(63.4294 0.000101317 0)
(63.4295 7.58773e-05 0)
(63.4296 8.01319e-05 0)
(63.4297 0.000107048 0)
(63.4298 0.000150541 0)
(63.4299 0.000190163 0)
(63.43 0.00021731 0)
(63.4301 0.00023952 0)
(63.4303 0.00024347 0)
(63.4304 0.000204264 0)
(63.4304 0.000141147 0)
(63.4305 0.00010824 0)
(63.4306 0.000120497 0)
(63.4306 0.000146468 0)
(63.4306 0.000170227 0)
(63.4307 0.000197907 0)
(63.4307 0.000217801 0)
(63.4307 0.000214892 0)
(63.4307 0.000203084 0)
(63.4308 0.000196573 0)
(63.4309 0.000186947 0)
(63.4309 0.000173184 0)
(63.431 0.000166237 0)
(63.4311 0.000162201 0)
(63.4311 0.000150742 0)
(63.4312 0.000139748 0)
(63.4313 0.00014568 0)
(63.4314 0.000168227 0)
(63.4315 0.000192556 0)
(63.4316 0.000208397 0)
(63.4317 0.000213073 0)
(63.4317 0.000210734 0)
(63.4318 0.000215467 0)
(63.4318 0.000232661 0)
(63.4319 0.00024383 0)
(63.4319 0.00023775 0)
(63.432 0.000233241 0)
(63.4321 0.000238334 0)
(63.4321 0.000227104 0)
(63.4321 0.000192564 0)
(63.4321 0.000168779 0)
(63.4322 0.00017106 0)
(63.4322 0.000172974 0)
(63.4322 0.000161154 0)
(63.4322 0.000157719 0)
(63.4322 0.000175213 0)
(63.4323 0.000193304 0)
(63.4322 0.000192763 0)
(63.4322 0.000177898 0)
(63.4322 0.000157826 0)
(63.4322 0.000138981 0)
(63.4322 0.000134159 0)
(63.4322 0.000147179 0)
(63.4322 0.000159668 0)
(63.4322 0.000157961 0)
(63.4321 0.000155451 0)
(63.4321 0.000171316 0)
(63.4321 0.000205419 0)
(63.4321 0.000242193 0)
(63.432 0.000265824 0)
(63.432 0.00027228 0)
(63.432 0.000272308 0)
(63.432 0.000274763 0)
(63.432 0.000270664 0)
(63.432 0.000249069 0)
(63.432 0.000221013 0)
(63.432 0.000205639 0)
(63.432 0.000198981 0)
(63.432 0.000183609 0)
(63.432 0.000163762 0)
(63.432 0.000159296 0)
(63.432 0.000168429 0)
(63.432 0.000168925 0)
(63.432 0.000153581 0)
(63.432 0.000135273 0)
(63.4319 0.000120981 0)
(63.4319 0.000106744 0)
(63.4319 9.39035e-05 0)
(63.4319 8.8662e-05 0)
(63.4319 8.97777e-05 0)
(63.4319 9.31721e-05 0)
(63.4319 0.000102293 0)
(63.4319 0.000120295 0)
(63.4319 0.000139748 0)
(63.4319 0.000151202 0)
(63.432 0.000155588 0)
(63.432 0.000161801 0)
(63.432 0.000176896 0)
(63.4321 0.000199454 0)
(63.4321 0.000218623 0)
(63.4322 0.000224288 0)
(63.4322 0.000220662 0)
(63.4323 0.000219952 0)
(63.4323 0.000222767 0)
(63.4324 0.000220696 0)
(63.4325 0.000216042 0)
(63.4325 0.000217393 0)
(63.4326 0.000218659 0)
(63.4327 0.000207579 0)
(63.4328 0.000191168 0)
(63.4328 0.000186853 0)
(63.4329 0.000194325 0)
(63.433 0.000200728 0)
(63.4331 0.000204255 0)
(63.4331 0.000209637 0)
(63.4332 0.000213651 0)
(63.4333 0.000215306 0)
(63.4334 0.000223362 0)
(63.4335 0.000237643 0)
(63.4336 0.000242583 0)
(63.4336 0.00023056 0)
(63.4337 0.000212644 0)
(63.4337 0.000201345 0)
(63.4338 0.000199219 0)
(63.4339 0.000204172 0)
(63.4339 0.000212582 0)
(63.434 0.000219815 0)
(63.434 0.000225228 0)
(63.434 0.00023037 0)
(63.4341 0.000231511 0)
(63.4341 0.000225517 0)
(63.4341 0.000219111 0)
(63.4341 0.000217661 0)
(63.4342 0.000213535 0)
(63.4342 0.000200776 0)
(63.4342 0.000186768 0)
(63.4342 0.000175821 0)
(63.4342 0.000162482 0)
(63.4341 0.000151138 0)