/*--------------------------------*- C++ -*----------------------------------*\
| =========                 |                                                 |
| \\      /  F ield         | OpenFOAM: The Open Source CFD Toolbox           |
|  \\    /   O peration     | Version:  2406                                  |
|   \\  /    A nd           | Website:  www.openfoam.com                      |
|    \\/     M anipulation  |                                                 |
\*---------------------------------------------------------------------------*/
FoamFile
{
    version     2.0;
    format      ascii;
    arch        "LSB;label=32;scalar=64";
    class       surfaceScalarField;
    location    "0.05";
    object      alphaPhi0.glycerin;
}
// * * * * * * * * * * * * * * * * * * * * * * * * * * * * * * * * * * * * * //

dimensions      [0 3 -1 0 0 0 0];

oriented        oriented;

internalField   nonuniform List<scalar> 
12225
(
1.32472e-61
1.90563e-63
1.40369e-60
7.04319e-62
7.34269e-60
4.39829e-61
2.43153e-59
1.48665e-60
5.70059e-59
3.28824e-60
1.03431e-58
4.69939e-60
1.70325e-58
4.20017e-60
3.02163e-58
1.09222e-60
6.94105e-58
-8.06835e-62
2.36945e-57
-6.49775e-62
1.05271e-56
-3.76872e-62
4.48387e-56
-2.56422e-62
1.47577e-55
-9.03429e-62
4.47104e-55
-1.22473e-58
5.71273e-54
-3.68291e-56
1.82963e-52
-2.71276e-54
2.3741e-51
-7.37778e-53
1.49241e-50
-6.01489e-52
5.41342e-50
-3.20091e-51
1.12822e-49
-5.10999e-51
5.04051e-49
-3.74894e-49
5.77939e-47
-5.75081e-47
1.47038e-44
-4.0378e-45
1.15604e-43
-6.14855e-44
-1.09549e-32
2.41495e-32
-6.73864e-33
-1.35584e-33
2.26499e-09
7.04634e-11
1.84839e-08
1.09718e-09
2.0209e-08
1.53524e-09
1.93773e-08
9.68244e-10
1.89323e-08
4.82946e-10
1.89485e-08
-8.92314e-13
1.91919e-08
-2.357e-10
1.95072e-08
-3.10038e-10
1.98146e-08
-2.95419e-10
2.00776e-08
-2.56523e-10
2.02956e-08
-2.14776e-10
2.04705e-08
-1.77121e-10
2.06109e-08
-1.45048e-10
2.07248e-08
-1.17936e-10
2.0817e-08
-9.53224e-11
2.08975e-08
-7.7221e-11
2.09644e-08
-6.31825e-11
2.10182e-08
-5.22473e-11
2.10626e-08
-4.35828e-11
2.10991e-08
-3.6455e-11
2.11295e-08
-3.06342e-11
2.11555e-08
-2.59595e-11
2.11784e-08
-2.24328e-11
2.11987e-08
-1.97692e-11
2.12166e-08
-1.74574e-11
2.12325e-08
-1.54163e-11
2.12461e-08
-1.34893e-11
2.12578e-08
-1.16706e-11
2.12703e-08
-9.94006e-12
2.12803e-08
-8.45748e-12
2.12882e-08
-6.95887e-12
2.12946e-08
-5.74614e-12
2.13004e-08
-4.68837e-12
2.13055e-08
-3.92978e-12
2.13097e-08
-3.54339e-12
2.1313e-08
-3.49545e-12
2.13161e-08
-3.57295e-12
2.13189e-08
-3.71614e-12
2.13214e-08
-3.75979e-12
2.13236e-08
-3.67452e-12
2.13258e-08
-3.48783e-12
2.13278e-08
-3.19849e-12
2.13292e-08
-2.81971e-12
2.1332e-08
-2.44963e-12
2.13345e-08
-2.13715e-12
2.13368e-08
-1.96804e-12
2.13393e-08
-1.8912e-12
2.13416e-08
-1.95763e-12
2.1343e-08
-2.1251e-12
2.13444e-08
-2.15011e-12
2.13456e-08
-2.19011e-12
2.13467e-08
-2.11809e-12
2.13476e-08
-1.92314e-12
2.13484e-08
-1.68422e-12
2.1349e-08
-1.38601e-12
2.13493e-08
-1.11254e-12
2.13495e-08
-8.26704e-13
2.13499e-08
-5.90739e-13
2.13503e-08
-3.66612e-13
2.13507e-08
-1.8092e-13
2.13509e-08
-1.37336e-14
2.13511e-08
1.3484e-13
2.13511e-08
2.83074e-13
2.13509e-08
3.07604e-13
2.13507e-08
2.91158e-13
2.13504e-08
2.58281e-13
2.13501e-08
2.09386e-13
2.135e-08
1.09028e-13
2.135e-08
-6.44703e-14
2.135e-08
-1.19968e-13
2.135e-08
-1.05556e-13
2.13501e-08
-2.29685e-13
2.13502e-08
-2.8374e-13
2.13502e-08
-3.62955e-13
2.13503e-08
-4.41958e-13
2.13504e-08
-5.25813e-13
2.13506e-08
-6.06796e-13
2.13507e-08
-7.0335e-13
2.13509e-08
-7.85434e-13
2.13515e-08
-8.50286e-13
2.13521e-08
-8.58818e-13
2.13528e-08
-8.4525e-13
2.13534e-08
-8.16502e-13
2.13541e-08
-7.6971e-13
2.13546e-08
-6.86716e-13
2.13551e-08
-5.74934e-13
2.13555e-08
-5.33657e-13
2.13557e-08
-4.30743e-13
2.1356e-08
-4.3508e-13
2.13562e-08
-4.29332e-13
2.13565e-08
-4.61855e-13
2.13568e-08
-4.88436e-13
2.1357e-08
-4.82994e-13
2.13573e-08
-4.48457e-13
2.13577e-08
-3.95912e-13
2.13581e-08
-3.82909e-13
2.13583e-08
-3.64827e-13
2.13585e-08
-2.79374e-13
2.13586e-08
-2.43333e-13
2.13586e-08
-8.59935e-14
2.13587e-08
-1.56126e-13
2.13587e-08
-1.30354e-13
2.13587e-08
-1.22668e-13
2.13587e-08
-1.20229e-13
2.13587e-08
-1.26196e-13
2.13588e-08
-1.25645e-13
2.1359e-08
-2.4242e-13
2.13592e-08
-1.26396e-13
2.13593e-08
-9.43991e-14
2.13594e-08
-5.83254e-14
2.13594e-08
-2.01651e-14
2.13593e-08
2.51727e-14
2.13592e-08
8.38587e-14
2.13589e-08
1.55329e-13
2.13585e-08
2.16538e-13
2.1358e-08
2.71733e-13
2.13575e-08
2.76752e-13
2.1357e-08
2.85169e-13
2.13564e-08
2.78829e-13
2.13559e-08
2.58095e-13
2.13554e-08
2.34329e-13
2.13549e-08
2.01372e-13
2.13545e-08
1.65597e-13
2.13541e-08
1.00658e-13
2.13537e-08
3.19547e-14
2.13533e-08
-3.21116e-14
2.1353e-08
-8.19711e-14
2.13526e-08
-1.15322e-13
2.13523e-08
-1.41871e-13
2.1352e-08
-1.7807e-13
2.13517e-08
-1.80318e-13
2.13514e-08
-1.63412e-13
2.13511e-08
-1.47036e-13
2.13508e-08
-1.2402e-13
2.13505e-08
-9.82057e-14
2.13501e-08
-7.04923e-14
2.13498e-08
-4.50795e-14
2.13494e-08
-1.88366e-14
2.13491e-08
1.06793e-14
2.13487e-08
1.65312e-14
2.13483e-08
-8.43581e-16
2.13479e-08
-1.6084e-14
2.13475e-08
-3.3255e-14
2.13471e-08
-6.23672e-14
2.13468e-08
-1.15517e-13
2.13465e-08
-1.87233e-13
2.13464e-08
-2.49823e-13
2.13463e-08
-2.94062e-13
2.13462e-08
-3.40144e-13
2.13461e-08
-4.01934e-13
2.13462e-08
-4.64222e-13
2.13467e-08
-5.08785e-13
2.13472e-08
-5.48958e-13
2.13477e-08
-5.78187e-13
2.13481e-08
-6.06203e-13
2.13485e-08
-5.88549e-13
2.1349e-08
-5.99114e-13
2.13495e-08
-5.97746e-13
2.13499e-08
-5.85099e-13
2.13503e-08
-5.26847e-13
2.13506e-08
-4.94642e-13
2.1351e-08
-5.38144e-13
2.13513e-08
-4.60023e-13
2.13515e-08
-4.00734e-13
2.13516e-08
-3.66186e-13
2.13518e-08
-3.25556e-13
2.13519e-08
-3.12512e-13
2.13521e-08
-3.32436e-13
2.13523e-08
-3.34383e-13
2.13524e-08
-2.75695e-13
2.13525e-08
-1.32332e-13
2.13527e-08
-2.12667e-13
2.13528e-08
-1.87498e-13
2.1353e-08
-1.49334e-13
2.13532e-08
-1.23328e-13
2.13533e-08
-1.05011e-13
2.13534e-08
-8.02298e-14
2.13535e-08
-4.70989e-14
2.13535e-08
-1.3445e-14
2.13535e-08
2.59889e-15
2.13535e-08
2.69756e-14
2.13534e-08
5.61429e-14
2.13532e-08
7.59044e-14
2.1353e-08
9.79879e-14
2.13528e-08
1.18568e-13
2.13525e-08
1.5208e-13
2.13521e-08
1.4889e-13
2.13517e-08
1.70414e-13
2.13513e-08
2.05767e-13
2.13509e-08
2.08892e-13
2.13505e-08
2.40746e-13
2.135e-08
2.71311e-13
2.13495e-08
3.01055e-13
2.1349e-08
3.31548e-13
2.13484e-08
3.76074e-13
2.13478e-08
4.33066e-13
2.13471e-08
5.02817e-13
2.13464e-08
5.86089e-13
2.13455e-08
6.83281e-13
2.13445e-08
7.96265e-13
2.13433e-08
9.27442e-13
2.13419e-08
1.07961e-12
2.13404e-08
1.25761e-12
2.13386e-08
1.47473e-12
2.13365e-08
1.74333e-12
2.13341e-08
2.07879e-12
2.13313e-08
2.50854e-12
2.13277e-08
3.07739e-12
2.1324e-08
3.83595e-12
2.13193e-08
4.79179e-12
2.13131e-08
6.06454e-12
2.13053e-08
7.75232e-12
2.12952e-08
1.00078e-11
2.12821e-08
1.30418e-11
2.12648e-08
1.71138e-11
2.1242e-08
2.26118e-11
2.12119e-08
2.99757e-11
2.11721e-08
3.97409e-11
2.11198e-08
5.2418e-11
2.10513e-08
6.8442e-11
2.09631e-08
8.82459e-11
2.08517e-08
1.11473e-10
2.07175e-08
1.34171e-10
1.3705e-10
3.95687e-62
1.94159e-64
4.51182e-61
5.32208e-63
2.56981e-60
4.23327e-62
8.74349e-60
1.34277e-61
1.7125e-59
2.53248e-61
1.85128e-59
1.64467e-61
1.47057e-59
4.41469e-62
7.97639e-60
-4.61963e-65
3.16647e-60
-1.05958e-62
1.65729e-60
-1.42147e-62
1.37181e-60
-1.44429e-62
1.30673e-60
-2.38942e-62
1.22222e-59
-5.26071e-61
1.28497e-56
-6.69812e-59
3.28708e-54
-2.68395e-56
2.67032e-52
-2.26792e-54
7.55125e-51
-1.03666e-52
9.21823e-50
-2.0725e-51
7.12921e-49
-1.00666e-50
2.73914e-48
3.2023e-50
1.15666e-46
3.1622e-48
9.95454e-45
3.37863e-46
5.07224e-43
1.70653e-44
2.88639e-42
1.02504e-43
-7.30334e-31
-4.18796e-32
-5.63739e-30
-5.40488e-31
2.84046e-10
1.31339e-11
2.19836e-09
4.905e-11
1.42062e-08
1.2078e-10
3.88142e-08
3.513e-10
4.30696e-08
2.9824e-10
4.35991e-08
-3.21364e-10
4.42048e-08
-7.62644e-10
4.47934e-08
-8.45201e-10
4.52932e-08
-7.69079e-10
4.56994e-08
-6.5032e-10
4.60241e-08
-5.34626e-10
4.62857e-08
-4.34771e-10
4.64987e-08
-3.53344e-10
4.66723e-08
-2.88277e-10
4.6815e-08
-2.36301e-10
4.69347e-08
-1.94804e-10
4.70353e-08
-1.61311e-10
4.71187e-08
-1.34937e-10
4.71892e-08
-1.14192e-10
4.72498e-08
-9.76616e-11
4.73002e-08
-8.39921e-11
4.7343e-08
-7.26918e-11
4.738e-08
-6.28201e-11
4.74131e-08
-5.48311e-11
4.74432e-08
-4.79154e-11
4.74686e-08
-4.20062e-11
4.74932e-08
-3.68695e-11
4.75154e-08
-3.25721e-11
4.75356e-08
-2.89307e-11
4.75544e-08
-2.60127e-11
4.75692e-08
-2.34448e-11
4.75835e-08
-2.11267e-11
4.75943e-08
-1.90711e-11
4.76025e-08
-1.69502e-11
4.76096e-08
-1.49018e-11
4.76157e-08
-1.27956e-11
4.7621e-08
-1.10343e-11
4.7627e-08
-9.44169e-12
4.76329e-08
-8.19411e-12
4.76396e-08
-7.34375e-12
4.76456e-08
-6.69763e-12
4.76504e-08
-6.08777e-12
4.76547e-08
-5.46125e-12
4.76588e-08
-4.7181e-12
4.76625e-08
-4.02896e-12
4.7666e-08
-3.3198e-12
4.76692e-08
-2.50935e-12
4.76723e-08
-2.00083e-12
4.76748e-08
-1.50496e-12
4.76772e-08
-1.26314e-12
4.76795e-08
-1.02849e-12
4.76815e-08
-8.13595e-13
4.76835e-08
-7.0351e-13
4.76852e-08
-6.15038e-13
4.76867e-08
-6.47785e-13
4.76881e-08
-7.57589e-13
4.76894e-08
-8.53343e-13
4.76905e-08
-8.22211e-13
4.76913e-08
-7.31892e-13
4.7692e-08
-6.21948e-13
4.76925e-08
-5.27049e-13
4.76929e-08
-4.2522e-13
4.76932e-08
-3.49247e-13
4.76933e-08
-1.96094e-13
4.76933e-08
-3.03394e-14
4.76932e-08
6.60312e-14
4.76931e-08
1.24085e-13
4.7693e-08
1.29935e-13
4.76928e-08
2.71141e-13
4.76928e-08
2.26551e-13
4.7693e-08
9.49645e-14
4.76932e-08
1.46884e-13
4.76933e-08
1.55965e-13
4.76933e-08
2.13715e-13
4.76932e-08
1.9403e-13
4.76931e-08
1.06995e-13
4.7693e-08
8.02034e-14
4.76929e-08
2.26716e-14
4.76927e-08
-3.35144e-14
4.76927e-08
-3.59048e-14
4.76933e-08
-9.17223e-14
4.76938e-08
-1.23747e-13
4.76945e-08
-1.14247e-13
4.76953e-08
-1.39097e-13
4.76962e-08
-2.03015e-13
4.76969e-08
-6.11195e-14
4.76976e-08
-3.89992e-14
4.76983e-08
-2.33763e-13
4.76988e-08
-1.1181e-13
4.76991e-08
-1.02947e-13
4.76993e-08
-1.26967e-13
4.76994e-08
-1.16024e-13
4.76995e-08
-1.08147e-13
4.76997e-08
-8.73996e-14
4.76999e-08
4.6691e-14
4.77001e-08
1.13694e-13
4.77003e-08
1.39719e-13
4.77006e-08
8.08899e-14
4.77009e-08
1.21826e-13
4.77013e-08
6.44511e-14
4.77015e-08
1.61079e-13
4.77017e-08
1.27239e-13
4.77019e-08
9.94142e-14
4.77021e-08
6.18105e-14
4.77023e-08
3.80785e-14
4.77024e-08
1.1041e-14
4.77023e-08
8.32775e-14
4.77025e-08
-4.21453e-14
4.77026e-08
-9.65248e-15
4.77026e-08
3.25623e-14
4.77026e-08
4.79012e-14
4.77025e-08
6.737e-14
4.77024e-08
1.03488e-13
4.77023e-08
1.51869e-13
4.77021e-08
1.62829e-13
4.77019e-08
1.50051e-13
4.77015e-08
2.12197e-13
4.77011e-08
2.60239e-13
4.77006e-08
2.93211e-13
4.77e-08
2.83956e-13
4.76994e-08
2.78321e-13
4.76988e-08
2.8379e-13
4.76982e-08
2.99403e-13
4.76977e-08
2.3813e-13
4.76971e-08
2.14323e-13
4.76966e-08
1.85966e-13
4.7696e-08
1.68557e-13
4.76954e-08
1.87279e-13
4.76949e-08
2.17773e-13
4.76943e-08
2.44525e-13
4.76939e-08
2.4688e-13
4.76935e-08
2.49855e-13
4.76932e-08
3.08521e-13
4.76929e-08
3.68057e-13
4.76927e-08
4.09523e-13
4.76925e-08
4.40974e-13
4.76924e-08
4.76213e-13
4.76923e-08
5.00689e-13
4.76922e-08
4.96619e-13
4.76921e-08
5.16733e-13
4.7692e-08
5.44666e-13
4.76917e-08
5.47892e-13
4.76915e-08
5.49682e-13
4.76911e-08
5.26728e-13
4.76908e-08
4.58662e-13
4.76905e-08
3.679e-13
4.76901e-08
3.37006e-13
4.76898e-08
2.92859e-13
4.76894e-08
2.58938e-13
4.7689e-08
2.0496e-13
4.76888e-08
1.38561e-13
4.76885e-08
8.2051e-14
4.76882e-08
2.52157e-14
4.76887e-08
-6.89298e-15
4.76887e-08
-5.85008e-14
4.76888e-08
-9.20289e-14
4.76889e-08
-8.22548e-14
4.76891e-08
-1.64921e-13
4.76892e-08
-1.35311e-13
4.76894e-08
-1.53379e-13
4.76896e-08
-8.47951e-14
4.76894e-08
-8.9834e-14
4.76893e-08
-1.87922e-13
4.76892e-08
-1.67358e-13
4.7689e-08
-9.15912e-14
4.76888e-08
-4.71809e-14
4.76887e-08
-9.28481e-14
4.76887e-08
-1.45655e-13
4.76886e-08
-5.40916e-14
4.76885e-08
-5.88385e-14
4.76886e-08
-1.21765e-13
4.76886e-08
-5.47899e-14
4.76887e-08
5.86557e-15
4.76898e-08
3.89225e-14
4.76906e-08
4.09288e-14
4.76908e-08
4.65997e-14
4.76908e-08
7.08218e-14
4.76909e-08
1.07373e-13
4.76909e-08
1.66419e-13
4.76908e-08
2.14993e-13
4.76908e-08
2.36221e-13
4.76906e-08
2.62792e-13
4.76903e-08
3.05037e-13
4.76898e-08
3.43513e-13
4.76895e-08
3.97104e-13
4.76892e-08
4.42323e-13
4.76887e-08
5.32627e-13
4.76882e-08
5.94616e-13
4.76877e-08
6.50773e-13
4.76871e-08
7.03411e-13
4.76864e-08
8.27466e-13
4.7686e-08
9.30367e-13
4.76853e-08
1.0399e-12
4.76846e-08
1.16671e-12
4.76838e-08
1.32265e-12
4.76828e-08
1.51173e-12
4.76817e-08
1.73688e-12
4.76804e-08
2.0021e-12
4.76788e-08
2.31285e-12
4.7677e-08
2.67572e-12
4.76748e-08
3.09912e-12
4.76722e-08
3.59771e-12
4.76692e-08
4.1891e-12
4.76656e-08
4.90151e-12
4.76614e-08
5.76918e-12
4.76564e-08
6.8381e-12
4.76504e-08
8.17033e-12
4.76436e-08
9.85098e-12
4.76356e-08
1.1978e-11
4.76259e-08
1.46684e-11
4.76147e-08
1.81078e-11
4.76002e-08
2.25248e-11
4.7582e-08
2.8233e-11
4.75596e-08
3.56219e-11
4.75316e-08
4.52029e-11
4.74966e-08
5.75646e-11
4.74532e-08
7.33527e-11
4.73999e-08
9.31898e-11
4.7335e-08
1.17503e-10
4.72573e-08
1.46344e-10
4.71664e-08
1.79129e-10
4.70653e-08
2.12795e-10
4.69618e-08
2.37903e-10
2.37595e-10
5.86638e-64
3.25714e-66
1.95511e-62
3.88172e-64
1.08417e-61
3.29389e-63
3.26591e-61
9.15315e-63
7.26429e-61
9.22739e-63
8.75278e-61
2.48675e-63
7.80837e-61
9.91937e-64
5.67653e-61
-9.12685e-64
3.42778e-61
-2.59551e-63
3.3459e-61
-8.62735e-63
4.47313e-61
-1.062e-62
1.40942e-60
-5.73002e-61
3.01189e-58
-8.61938e-59
7.30997e-57
-1.51199e-57
1.11047e-54
6.22764e-56
1.55121e-52
4.65716e-56
9.58647e-51
-2.73307e-54
2.36172e-49
-1.12809e-52
2.71312e-48
6.64805e-51
2.18096e-47
2.56373e-49
4.80681e-46
9.77052e-48
2.52391e-44
6.24818e-46
1.4966e-42
4.3115e-44
1.10697e-41
3.74924e-43
-2.69714e-31
-5.33524e-33
3.48999e-13
1.73647e-14
5.926e-11
2.00061e-12
4.64888e-10
9.03467e-12
2.3241e-09
2.74775e-11
9.86742e-09
5.29455e-11
3.58753e-08
4.75852e-11
5.92932e-08
-3.50862e-10
6.00533e-08
-8.82716e-10
6.04054e-08
-1.04037e-09
6.07453e-08
-9.91317e-10
6.10165e-08
-8.64115e-10
6.12316e-08
-7.27182e-10
6.14086e-08
-6.03193e-10
6.15604e-08
-4.98176e-10
6.16914e-08
-4.12472e-10
6.1807e-08
-3.43253e-10
6.19036e-08
-2.87444e-10
6.19849e-08
-2.42297e-10
6.20562e-08
-2.0538e-10
6.21172e-08
-1.75256e-10
6.21725e-08
-1.50763e-10
6.22212e-08
-1.30664e-10
6.22639e-08
-1.13957e-10
6.23018e-08
-9.99838e-11
6.23352e-08
-8.75639e-11
6.23649e-08
-7.71522e-11
6.23916e-08
-6.8125e-11
6.24153e-08
-6.02549e-11
6.24361e-08
-5.33092e-11
6.24547e-08
-4.71089e-11
6.24713e-08
-4.15977e-11
6.24867e-08
-3.69755e-11
6.25037e-08
-3.30696e-11
6.25155e-08
-2.99145e-11
6.25272e-08
-2.73447e-11
6.25371e-08
-2.49702e-11
6.25456e-08
-2.26701e-11
6.25528e-08
-2.03897e-11
6.25591e-08
-1.81671e-11
6.25649e-08
-1.60761e-11
6.257e-08
-1.42153e-11
6.25744e-08
-1.26075e-11
6.25775e-08
-1.12394e-11
6.25824e-08
-1.0042e-11
6.25871e-08
-9.05473e-12
6.25915e-08
-8.12237e-12
6.25958e-08
-7.30639e-12
6.26002e-08
-6.66003e-12
6.26041e-08
-5.90079e-12
6.26081e-08
-5.20611e-12
6.2611e-08
-4.45362e-12
6.26135e-08
-3.83893e-12
6.26158e-08
-3.22418e-12
6.26176e-08
-2.66792e-12
6.26184e-08
-2.20533e-12
6.26197e-08
-1.84082e-12
6.2621e-08
-1.55277e-12
6.26219e-08
-1.30867e-12
6.26227e-08
-1.11408e-12
6.26234e-08
-9.73589e-13
6.26243e-08
-8.68531e-13
6.26253e-08
-7.73514e-13
6.26258e-08
-6.82245e-13
6.2626e-08
-5.70506e-13
6.26262e-08
-4.94223e-13
6.26261e-08
-4.98053e-13
6.2626e-08
-4.87466e-13
6.26263e-08
-4.71064e-13
6.26266e-08
-4.3198e-13
6.26271e-08
-4.39985e-13
6.26275e-08
-4.64732e-13
6.26282e-08
-4.7444e-13
6.26286e-08
-4.75381e-13
6.26289e-08
-4.61972e-13
6.26292e-08
-4.5991e-13
6.26294e-08
-4.62285e-13
6.26296e-08
-4.58057e-13
6.26297e-08
-5.09912e-13
6.26284e-08
-5.51937e-13
6.26281e-08
-5.86192e-13
6.26285e-08
-6.19055e-13
6.26288e-08
-5.68996e-13
6.26292e-08
-5.61361e-13
6.26296e-08
-5.61234e-13
6.263e-08
-5.03562e-13
6.2631e-08
-4.10919e-13
6.26315e-08
-5.01864e-13
6.2632e-08
-5.08581e-13
6.26317e-08
-4.05054e-13
6.26318e-08
-4.45686e-13
6.26319e-08
-4.73433e-13
6.2632e-08
-4.42819e-13
6.26321e-08
-4.31185e-13
6.26322e-08
-3.96222e-13
6.26323e-08
-3.26489e-13
6.26325e-08
-3.13711e-13
6.26327e-08
-2.52202e-13
6.26342e-08
-1.84881e-13
6.2635e-08
-1.21014e-13
6.2635e-08
-1.24734e-13
6.2635e-08
-1.45405e-13
6.26352e-08
-1.22251e-13
6.26354e-08
-9.26694e-14
6.26356e-08
-7.12491e-14
6.26356e-08
-5.43239e-14
6.26358e-08
-5.20897e-14
6.26359e-08
-6.20138e-14
6.26362e-08
-6.28573e-14
6.26362e-08
-3.34611e-14
6.26363e-08
-2.38952e-14
6.26364e-08
-7.36236e-15
6.26366e-08
2.96829e-14
6.26365e-08
6.39705e-14
6.26365e-08
7.94385e-14
6.26364e-08
6.97613e-14
6.26363e-08
7.75354e-14
6.26361e-08
8.56882e-14
6.26359e-08
1.25722e-13
6.26356e-08
1.44104e-13
6.26352e-08
1.42668e-13
6.26347e-08
1.42347e-13
6.26342e-08
1.15091e-13
6.26331e-08
7.21625e-14
6.26328e-08
3.22984e-14
6.26323e-08
3.11205e-14
6.26317e-08
-1.42434e-14
6.26312e-08
-4.12883e-14
6.26307e-08
-7.93467e-14
6.26302e-08
-9.59056e-14
6.26298e-08
-8.73724e-14
6.26297e-08
-6.0437e-14
6.26295e-08
-5.29254e-14
6.26291e-08
-4.48484e-14
6.26288e-08
-3.54062e-14
6.26286e-08
-1.04799e-14
6.26285e-08
2.08964e-14
6.26284e-08
4.92987e-14
6.26284e-08
6.49321e-14
6.26284e-08
7.12102e-14
6.26284e-08
8.13221e-14
6.26283e-08
8.54708e-14
6.26282e-08
1.06042e-13
6.2628e-08
1.11889e-13
6.26278e-08
8.9509e-14
6.26276e-08
6.38186e-14
6.26275e-08
4.35121e-14
6.26273e-08
2.45158e-14
6.26273e-08
-3.96086e-14
6.26266e-08
-9.9294e-14
6.26255e-08
-1.2851e-13
6.26251e-08
-1.63778e-13
6.26252e-08
-1.748e-13
6.26254e-08
-2.08992e-13
6.26258e-08
-2.37697e-13
6.26262e-08
-2.51601e-13
6.26268e-08
-2.68737e-13
6.26274e-08
-2.76533e-13
6.26277e-08
-3.4624e-13
6.26276e-08
-3.42179e-13
6.26278e-08
-3.27045e-13
6.26277e-08
-2.70551e-13
6.26276e-08
-2.97015e-13
6.26277e-08
-2.7383e-13
6.26272e-08
-2.83354e-13
6.26273e-08
-2.27432e-13
6.26273e-08
-2.24542e-13
6.26273e-08
-2.39792e-13
6.26272e-08
-1.86134e-13
6.26271e-08
-9.48203e-14
6.26272e-08
-1.33916e-13
6.26273e-08
-1.48648e-13
6.26274e-08
-1.44627e-13
6.26274e-08
-4.81764e-15
6.26276e-08
-4.15855e-15
6.26278e-08
2.32761e-14
6.2628e-08
4.24092e-14
6.26282e-08
6.09618e-14
6.26284e-08
1.0247e-13
6.26286e-08
1.42408e-13
6.26287e-08
1.83777e-13
6.26287e-08
2.3345e-13
6.26286e-08
2.95836e-13
6.26284e-08
3.46295e-13
6.26282e-08
4.04745e-13
6.26278e-08
4.67133e-13
6.26274e-08
5.40128e-13
6.26269e-08
6.16095e-13
6.26264e-08
7.05971e-13
6.26257e-08
8.07147e-13
6.26249e-08
9.16954e-13
6.26237e-08
1.07434e-12
6.26232e-08
1.20768e-12
6.26226e-08
1.39151e-12
6.26218e-08
1.59655e-12
6.26209e-08
1.83479e-12
6.26199e-08
2.11803e-12
6.26188e-08
2.45366e-12
6.26175e-08
2.84964e-12
6.2616e-08
3.31524e-12
6.26142e-08
3.86119e-12
6.26121e-08
4.50097e-12
6.26096e-08
5.25239e-12
6.26066e-08
6.13537e-12
6.26031e-08
7.18271e-12
6.25991e-08
8.43339e-12
6.25943e-08
9.93889e-12
6.25889e-08
1.1767e-11
6.25825e-08
1.40011e-11
6.25747e-08
1.67573e-11
6.25661e-08
2.01576e-11
6.25565e-08
2.4387e-11
6.2545e-08
2.96505e-11
6.25313e-08
3.62389e-11
6.2515e-08
4.44901e-11
6.24958e-08
5.48293e-11
6.24732e-08
6.7749e-11
6.2447e-08
8.37737e-11
6.24167e-08
1.03419e-10
6.23829e-08
1.27036e-10
6.23458e-08
1.54615e-10
6.23066e-08
1.85592e-10
6.22674e-08
2.18549e-10
6.22306e-08
2.49731e-10
6.21981e-08
2.70736e-10
2.70021e-10
2.3378e-66
1.44115e-68
3.8393e-64
1.2159e-65
3.64406e-63
1.62658e-64
1.23981e-62
5.04011e-64
2.21465e-62
3.32976e-64
2.75065e-62
1.15649e-63
2.48815e-62
2.53414e-64
3.96458e-62
2.61785e-63
5.79836e-62
1.23741e-63
3.00703e-62
1.82159e-61
3.52352e-61
3.15521e-62
6.83201e-59
-9.0326e-61
3.58267e-57
-2.51709e-59
7.27903e-56
-2.41685e-58
-3.36078e-54
3.67678e-54
-2.77976e-54
3.59165e-54
7.413e-54
4.50995e-55
1.56135e-50
3.52609e-53
5.37636e-49
2.09177e-51
7.73756e-48
5.9057e-50
1.67585e-46
2.16969e-48
2.00474e-45
2.87109e-47
1.48178e-42
5.01779e-44
1.89584e-41
6.5217e-43
-2.43382e-32
-7.31779e-34
2.92565e-13
8.54939e-15
2.56424e-11
5.6251e-13
2.45306e-10
3.42201e-12
1.21179e-09
9.68901e-12
4.6882e-09
1.70333e-11
2.11532e-08
-9.22455e-13
5.69069e-08
-2.22565e-10
6.72935e-08
-7.04627e-10
6.83214e-08
-8.8624e-10
6.90182e-08
-8.90532e-10
6.93531e-08
-8.18313e-10
6.95311e-08
-7.2139e-10
6.96385e-08
-6.23253e-10
6.97143e-08
-5.33211e-10
6.97784e-08
-4.54728e-10
6.98343e-08
-3.88239e-10
6.98862e-08
-3.32867e-10
6.9935e-08
-2.86827e-10
6.99796e-08
-2.48144e-10
7.00201e-08
-2.15368e-10
7.00568e-08
-1.87566e-10
7.00902e-08
-1.64064e-10
7.01202e-08
-1.44207e-10
7.01476e-08
-1.27303e-10
7.01729e-08
-1.12689e-10
7.01964e-08
-1.00017e-10
7.02178e-08
-8.90707e-11
7.02371e-08
-7.9644e-11
7.02555e-08
-7.14664e-11
7.02737e-08
-6.42141e-11
7.02897e-08
-5.76918e-11
7.03021e-08
-5.17287e-11
7.03123e-08
-4.62785e-11
7.03205e-08
-4.13503e-11
7.03297e-08
-3.70159e-11
7.0338e-08
-3.32338e-11
7.03451e-08
-2.99456e-11
7.03516e-08
-2.70363e-11
7.03576e-08
-2.44126e-11
7.03631e-08
-2.19542e-11
7.03683e-08
-1.96288e-11
7.03731e-08
-1.73895e-11
7.03775e-08
-1.53519e-11
7.03815e-08
-1.35043e-11
7.03855e-08
-1.18107e-11
7.03899e-08
-1.02901e-11
7.03951e-08
-9.05472e-12
7.03992e-08
-8.02159e-12
7.04026e-08
-7.10016e-12
7.04056e-08
-6.34873e-12
7.04084e-08
-5.69401e-12
7.04111e-08
-5.06794e-12
7.04135e-08
-4.58728e-12
7.04156e-08
-4.15305e-12
7.04174e-08
-3.73401e-12
7.04188e-08
-3.31409e-12
7.042e-08
-2.89501e-12
7.04209e-08
-2.49544e-12
7.04218e-08
-2.12854e-12
7.04227e-08
-1.80239e-12
7.04235e-08
-1.52662e-12
7.04243e-08
-1.29539e-12
7.0425e-08
-1.10233e-12
7.04256e-08
-9.4131e-13
7.04261e-08
-8.09727e-13
7.04264e-08
-6.916e-13
7.04265e-08
-5.99322e-13
7.04265e-08
-5.13149e-13
7.04266e-08
-4.26771e-13
7.04267e-08
-3.50638e-13
7.04269e-08
-2.89578e-13
7.0427e-08
-2.49508e-13
7.04272e-08
-2.21684e-13
7.04274e-08
-1.93957e-13
7.04276e-08
-1.87362e-13
7.04276e-08
-1.88963e-13
7.04276e-08
-2.04243e-13
7.04275e-08
-2.27533e-13
7.04273e-08
-2.48622e-13
7.04271e-08
-2.59332e-13
7.0427e-08
-2.65111e-13
7.0428e-08
-3.12727e-13
7.04287e-08
-2.93657e-13
7.0429e-08
-2.51978e-13
7.04295e-08
-1.95459e-13
7.04302e-08
-2.22169e-13
7.04308e-08
-2.62755e-13
7.04313e-08
-3.32209e-13
7.04316e-08
-2.35708e-13
7.04318e-08
-2.13686e-13
7.04318e-08
-2.0097e-13
7.04318e-08
-2.08194e-13
7.04318e-08
-1.89464e-13
7.04318e-08
-1.43522e-13
7.04319e-08
-1.07995e-13
7.04321e-08
-1.15597e-13
7.04324e-08
-1.01194e-13
7.04327e-08
-5.447e-14
7.04331e-08
-2.91343e-14
7.04334e-08
-4.15369e-14
7.04337e-08
-6.04088e-14
7.0434e-08
-7.67819e-14
7.04343e-08
-7.5214e-14
7.04345e-08
-6.84137e-14
7.04348e-08
-6.50586e-14
7.0435e-08
-6.6928e-14
7.04352e-08
-6.33759e-14
7.04353e-08
-4.25515e-14
7.04355e-08
-2.52225e-14
7.04356e-08
-2.28711e-14
7.04357e-08
-1.34879e-14
7.04358e-08
4.46062e-15
7.04359e-08
2.33978e-14
7.04359e-08
3.53772e-14
7.04359e-08
4.3921e-14
7.04357e-08
5.16591e-14
7.04355e-08
7.45046e-14
7.04352e-08
1.05867e-13
7.04348e-08
1.42573e-13
7.04343e-08
1.63923e-13
7.04337e-08
1.7613e-13
7.04331e-08
1.84678e-13
7.04324e-08
1.84621e-13
7.04317e-08
1.74164e-13
7.04311e-08
1.79528e-13
7.04305e-08
1.74589e-13
7.04298e-08
1.38175e-13
7.04292e-08
1.3213e-13
7.04286e-08
1.38372e-13
7.04281e-08
1.53683e-13
7.04276e-08
1.56983e-13
7.04272e-08
1.58636e-13
7.04269e-08
1.71105e-13
7.04267e-08
2.03172e-13
7.04265e-08
2.2762e-13
7.04264e-08
2.5328e-13
7.04263e-08
2.7747e-13
7.04263e-08
2.95906e-13
7.04262e-08
3.06033e-13
7.04262e-08
3.1052e-13
7.04261e-08
3.16012e-13
7.0426e-08
3.27701e-13
7.04259e-08
3.31537e-13
7.04256e-08
3.21537e-13
7.04253e-08
3.04438e-13
7.0425e-08
2.83596e-13
7.04246e-08
2.5168e-13
7.04243e-08
2.14337e-13
7.04239e-08
1.74372e-13
7.04237e-08
1.37989e-13
7.04233e-08
1.06042e-13
7.0423e-08
7.35714e-14
7.04227e-08
3.2956e-14
7.04226e-08
-3.59001e-15
7.04226e-08
-3.57724e-14
7.04227e-08
-5.65658e-14
7.04228e-08
-8.99912e-14
7.04228e-08
-7.10075e-14
7.04235e-08
-6.94348e-14
7.04237e-08
-1.37371e-13
7.04238e-08
-1.20292e-13
7.04239e-08
-9.79835e-14
7.04238e-08
-1.06902e-13
7.04234e-08
-8.21784e-14
7.04232e-08
-1.11509e-13
7.0423e-08
-1.56768e-13
7.04228e-08
-8.41922e-14
7.04227e-08
-3.55275e-14
7.04226e-08
-5.07002e-14
7.04225e-08
-5.64137e-14
7.04225e-08
-3.40946e-14
7.04224e-08
-1.28656e-15
7.04224e-08
6.67561e-15
7.04224e-08
1.07575e-13
7.04234e-08
1.06528e-13
7.04247e-08
1.54424e-13
7.04248e-08
1.93921e-13
7.04247e-08
2.33779e-13
7.04248e-08
2.85446e-13
7.04249e-08
3.44691e-13
7.04249e-08
4.05491e-13
7.04249e-08
4.72195e-13
7.04248e-08
5.48175e-13
7.04246e-08
6.3068e-13
7.04243e-08
7.24633e-13
7.04239e-08
8.22056e-13
7.04235e-08
9.32609e-13
7.04228e-08
1.05668e-12
7.0422e-08
1.20147e-12
7.04214e-08
1.36914e-12
7.04207e-08
1.55692e-12
7.042e-08
1.78641e-12
7.04192e-08
2.04249e-12
7.04187e-08
2.33834e-12
7.04179e-08
2.68282e-12
7.0417e-08
3.08684e-12
7.0416e-08
3.56013e-12
7.04149e-08
4.11344e-12
7.04135e-08
4.75902e-12
7.04119e-08
5.51172e-12
7.041e-08
6.38948e-12
7.04078e-08
7.41319e-12
7.04052e-08
8.61297e-12
7.04022e-08
1.00224e-11
7.03986e-08
1.16892e-11
7.03946e-08
1.36707e-11
7.039e-08
1.60379e-11
7.03849e-08
1.88811e-11
7.03786e-08
2.23124e-11
7.03723e-08
2.64752e-11
7.03653e-08
3.15134e-11
7.03579e-08
3.76328e-11
7.03491e-08
4.50735e-11
7.03396e-08
5.41218e-11
7.03293e-08
6.51044e-11
7.03187e-08
7.83829e-11
7.03082e-08
9.42886e-11
7.02984e-08
1.13071e-10
7.02907e-08
1.3481e-10
7.02862e-08
1.59167e-10
7.02866e-08
1.8538e-10
7.02933e-08
2.11995e-10
7.03071e-08
2.36044e-10
7.03264e-08
2.51668e-10
2.51893e-10
1.61611e-68
4.39126e-71
1.1699e-65
2.06645e-67
1.71699e-64
4.26574e-66
6.62899e-64
1.42687e-65
1.03261e-63
8.64383e-66
-2.3084e-62
-4.88456e-64
-7.56421e-62
-1.21118e-64
-3.19739e-61
9.83023e-63
-6.28993e-62
-1.87808e-61
-7.12052e-60
7.8586e-60
-1.17e-60
-4.95318e-60
2.71144e-58
-2.63646e-58
2.79908e-57
-1.8541e-57
2.76258e-56
-2.43768e-56
-2.83928e-52
1.97814e-52
-4.53461e-52
1.58092e-52
-2.8296e-52
-3.11717e-55
2.445e-52
9.89383e-55
1.34758e-50
1.62383e-52
5.11386e-49
4.88507e-51
6.64099e-48
6.48236e-50
3.9876e-47
5.34784e-49
1.99551e-42
6.17108e-44
3.38377e-41
9.28795e-43
-6.59584e-34
-1.54397e-35
3.31712e-13
5.11098e-15
1.96718e-11
2.23031e-13
2.25176e-10
1.63324e-12
1.16527e-09
4.55928e-12
4.24953e-09
6.04175e-12
1.69463e-08
-1.11056e-11
5.17456e-08
-1.39576e-10
6.83002e-08
-4.98237e-10
7.09427e-08
-6.32716e-10
7.23938e-08
-6.76859e-10
7.31192e-08
-6.55566e-10
7.34842e-08
-6.06067e-10
7.36635e-08
-5.46681e-10
7.37532e-08
-4.8649e-10
7.38013e-08
-4.29705e-10
7.38317e-08
-3.78166e-10
7.38516e-08
-3.32599e-10
7.38696e-08
-2.92956e-10
7.3887e-08
-2.58604e-10
7.39032e-08
-2.28661e-10
7.39188e-08
-2.02397e-10
7.39354e-08
-1.79361e-10
7.39521e-08
-1.59257e-10
7.39678e-08
-1.41742e-10
7.39825e-08
-1.26387e-10
7.39958e-08
-1.12869e-10
7.4008e-08
-1.00864e-10
7.40206e-08
-9.02756e-11
7.40327e-08
-8.09819e-11
7.40426e-08
-7.28701e-11
7.4052e-08
-6.59294e-11
7.40614e-08
-5.98562e-11
7.40701e-08
-5.43143e-11
7.40777e-08
-4.92523e-11
7.40841e-08
-4.45089e-11
7.40891e-08
-4.00748e-11
7.40933e-08
-3.59883e-11
7.40968e-08
-3.22571e-11
7.41004e-08
-2.89426e-11
7.41023e-08
-2.60082e-11
7.41063e-08
-2.33758e-11
7.41102e-08
-2.10515e-11
7.4114e-08
-1.89386e-11
7.41176e-08
-1.70707e-11
7.41212e-08
-1.53165e-11
7.41247e-08
-1.36599e-11
7.41278e-08
-1.2081e-11
7.41316e-08
-1.06143e-11
7.41361e-08
-9.23901e-12
7.41387e-08
-7.9947e-12
7.41401e-08
-6.92716e-12
7.41424e-08
-5.99101e-12
7.41443e-08
-5.18833e-12
7.41462e-08
-4.51676e-12
7.4148e-08
-3.97023e-12
7.41498e-08
-3.51165e-12
7.41516e-08
-3.14584e-12
7.41526e-08
-2.83539e-12
7.41534e-08
-2.57135e-12
7.41544e-08
-2.34082e-12
7.41552e-08
-2.12636e-12
7.41558e-08
-1.92758e-12
7.41563e-08
-1.74146e-12
7.41567e-08
-1.60139e-12
7.4157e-08
-1.47014e-12
7.41573e-08
-1.34154e-12
7.41576e-08
-1.23594e-12
7.41578e-08
-1.14598e-12
7.41581e-08
-1.06259e-12
7.41585e-08
-9.77e-13
7.41588e-08
-8.93329e-13
7.41591e-08
-8.15373e-13
7.41594e-08
-7.46213e-13
7.41595e-08
-6.90206e-13
7.41596e-08
-6.46038e-13
7.41597e-08
-6.1002e-13
7.41597e-08
-5.82714e-13
7.41596e-08
-5.59252e-13
7.41588e-08
-5.39066e-13
7.41583e-08
-5.17266e-13
7.41586e-08
-5.06243e-13
7.4159e-08
-5.41673e-13
7.41594e-08
-4.7452e-13
7.41598e-08
-4.27831e-13
7.41603e-08
-4.06911e-13
7.41609e-08
-4.16191e-13
7.41622e-08
-4.07564e-13
7.41629e-08
-3.59961e-13
7.41626e-08
-3.7821e-13
7.41624e-08
-3.75981e-13
7.41624e-08
-3.53572e-13
7.41624e-08
-3.28077e-13
7.41625e-08
-3.25502e-13
7.41625e-08
-2.98775e-13
7.41626e-08
-2.84644e-13
7.41632e-08
-2.56164e-13
7.41637e-08
-2.15897e-13
7.41638e-08
-1.93388e-13
7.41642e-08
-1.79375e-13
7.41645e-08
-1.67046e-13
7.41648e-08
-1.59473e-13
7.4165e-08
-1.48484e-13
7.41652e-08
-1.31802e-13
7.41654e-08
-1.17297e-13
7.41656e-08
-1.0486e-13
7.41657e-08
-9.29211e-14
7.41659e-08
-8.20262e-14
7.4166e-08
-5.31338e-14
7.41661e-08
-3.43896e-14
7.41663e-08
-1.87244e-14
7.41664e-08
-7.21585e-15
7.41666e-08
1.46737e-15
7.41667e-08
7.04396e-15
7.41667e-08
1.099e-14
7.41667e-08
1.54244e-14
7.41666e-08
2.42414e-14
7.41664e-08
3.51449e-14
7.41661e-08
3.07934e-14
7.41658e-08
2.67662e-14
7.41654e-08
2.5901e-14
7.41649e-08
2.4343e-14
7.41643e-08
1.87284e-14
7.41636e-08
1.26901e-14
7.4163e-08
6.23348e-15
7.41622e-08
-1.43827e-14
7.41616e-08
-3.08926e-14
7.4161e-08
-5.74853e-14
7.41605e-08
-4.86911e-14
7.41599e-08
-4.8774e-14
7.41595e-08
-5.21232e-14
7.41591e-08
-5.32966e-14
7.41589e-08
-4.0167e-14
7.41587e-08
-2.69456e-14
7.41585e-08
-1.49081e-14
7.41583e-08
3.2522e-15
7.41582e-08
2.23893e-14
7.41582e-08
4.05042e-14
7.41581e-08
5.64797e-14
7.41581e-08
6.92112e-14
7.41581e-08
7.79335e-14
7.4158e-08
8.31633e-14
7.41578e-08
8.04072e-14
7.41577e-08
7.50058e-14
7.41574e-08
6.54833e-14
7.41572e-08
5.14229e-14
7.41569e-08
3.46224e-14
7.41566e-08
1.43579e-14
7.41564e-08
-1.03088e-14
7.41563e-08
-3.5606e-14
7.41561e-08
-6.23477e-14
7.4156e-08
-8.63666e-14
7.41556e-08
-1.11986e-13
7.41546e-08
-1.35886e-13
7.41546e-08
-1.59831e-13
7.41548e-08
-1.68073e-13
7.41551e-08
-1.75574e-13
7.41555e-08
-1.71643e-13
7.4156e-08
-1.95335e-13
7.41564e-08
-1.88479e-13
7.41565e-08
-1.13586e-13
7.41565e-08
-1.68304e-13
7.41565e-08
-1.62486e-13
7.41565e-08
-1.55481e-13
7.41564e-08
-1.33182e-13
7.41563e-08
-1.25131e-13
7.41559e-08
-7.124e-14
7.41559e-08
-8.80916e-14
7.41558e-08
-1.14701e-13