/*--------------------------------*- C++ -*----------------------------------*\
| =========                 |                                                 |
| \\      /  F ield         | OpenFOAM: The Open Source CFD Toolbox           |
|  \\    /   O peration     | Version:  2406                                  |
|   \\  /    A nd           | Website:  www.openfoam.com                      |
|    \\/     M anipulation  |                                                 |
\*---------------------------------------------------------------------------*/
FoamFile
{
    version     2.0;
    format      ascii;
    arch        "LSB;label=32;scalar=64";
    class       volScalarField;
    location    "0.05";
    object      alpha.glycerin;
}
// * * * * * * * * * * * * * * * * * * * * * * * * * * * * * * * * * * * * * //

dimensions      [0 0 0 0 0 0 0];

internalField   nonuniform List<scalar> 
6250
(
1.85542e-54
1.62435e-53
1.07165e-52
4.17104e-52
1.17345e-51
2.45836e-51
4.30994e-51
7.43628e-51
1.53501e-50
4.60036e-50
1.89826e-49
8.06061e-49
2.74963e-48
7.71489e-48
8.35403e-47
2.57821e-45
3.351e-44
2.16635e-43
8.77055e-43
1.95046e-42
3.24097e-42
3.22345e-40
1.57639e-37
9.38517e-37
-2.36098e-25
-4.93523e-26
-1.36371e-11
0.357899
0.94248
0.995386
0.998801
0.99953
0.999698
0.999748
0.999759
0.999938
1.00004
1.00009
1.00007
1.00002
0.99997
0.999921
0.999935
0.999978
1
1.00003
1.00005
1.00005
1.00006
1.00006
1.00005
1.00002
0.999998
0.999974
0.999913
0.999947
0.999974
0.999985
0.999981
0.999982
0.999988
0.999995
1
1.00002
1.00002
1.00002
1.00002
1
0.999984
0.999959
0.999958
0.999958
0.999958
0.999973
0.999993
1
1.00001
1.00001
1.00001
1.00001
1
0.999998
0.999988
0.99998
0.999977
0.999976
0.999976
0.999977
0.999982
0.999987
0.999989
0.999989
0.999988
0.999985
0.999982
0.999982
0.999982
0.999984
0.999989
0.999993
0.999994
0.999994
0.999995
0.999994
0.999989
0.999984
0.999981
0.99998
0.99998
0.99998
0.99998
0.999981
0.999981
0.999981
0.999979
0.999975
0.999975
0.999975
0.999975
0.999975
0.999976
0.999982
0.999988
0.999991
0.999993
0.999995
0.999997
0.999996
0.999996
0.999994
0.999992
0.99999
0.999988
0.999985
0.999985
0.999985
0.999986
0.999988
0.99999
0.999993
0.999995
0.999997
0.999997
0.999997
0.999996
0.999993
0.99999
0.99999
0.99999
0.999991
0.999991
0.999991
0.999992
0.999993
0.999994
0.999995
0.999995
0.999996
0.999996
0.999997
0.999998
0.999998
0.999998
0.999999
0.999999
1
1
1
0.999999
0.999998
0.999998
0.999995
0.999991
0.999991
0.999994
0.999991
0.999987
0.999983
0.999983
0.999987
0.99999
0.99999
0.99999
0.999991
0.999992
0.999993
0.999993
0.999994
0.999994
0.999994
0.999994
0.999994
0.999995
0.999995
0.999996
0.999998
1
1
1.00001
1.00001
1.00001
1.00001
1.00001
1.00001
1.00001
1.00001
1.00001
1.00001
1.00001
1.00001
1.00001
1.00001
1
1
1
1
1
1.00001
1.00001
1.00001
1.00001
1.00001
1.00001
1.00001
1.00001
1.00001
1.00001
1.00001
1.00001
1.00001
1.00001
1.00001
1
0.999995
0.999985
0.999993
0.999999
1
1
1
1
1
1
0.999997
0.999988
0.999997
1
1.00001
1.00001
0.999998
5.22715e-55
4.02605e-54
2.58339e-53
9.52078e-53
2.47609e-52
3.65462e-52
3.31652e-52
2.12837e-52
9.71968e-53
3.69616e-53
1.94146e-53
1.91508e-53
1.68411e-52
1.54876e-49
3.92172e-47
3.11145e-45
8.39264e-44
9.56804e-43
7.47933e-42
2.83973e-41
1.40188e-39
1.20752e-37
5.99573e-36
6.01484e-35
-9.40624e-24
-3.22299e-23
0.00203847
0.0190903
0.0787552
0.440894
0.937498
0.996149
0.998348
0.998897
0.99938
0.999661
0.999851
0.999918
0.999931
0.999928
0.999889
0.999871
0.999866
0.999924
1
1.00002
1.00005
1.00006
1.00005
1.00003
1
0.999973
0.999912
0.999912
0.999912
0.999913
0.999975
1.00001
1.00003
1.00003
1.00002
1
0.99999
0.999955
0.999955
0.999955
0.999958
0.999974
0.99998
0.999987
0.999994
0.999999
1
1
1
1
0.999997
0.999997
0.999998
1
1.00001
1.00002
1.00003
1.00004
1.00005
1.00005
1.00006
1.00007
1.00007
1.00007
1.00007
1.00006
1.00006
1.00005
1.00005
1.00005
1.00005
1.00005
1.00004
1.00004
1.00003
1.00002
1.00002
1.00001
1
0.999994
0.999987
0.999996
1
1.00001
1.00001
1.00002
1.00002
1.00003
1.00003
1.00003
1.00003
1.00003
1.00003
1.00003
1.00004
1.00004
1.00004
1.00004
1.00004
1.00004
1.00004
1.00004
1.00004
1.00004
1.00004
1.00004
1.00004
1.00004
1.00004
1.00005
1.00005
1.00005
1.00006
1.00006
1.00006
1.00006
1.00006
1.00006
1.00006
1.00005
1.00005
1.00004
1.00004
1.00003
1.00003
1.00003
1.00003
1.00003
1.00003
1.00003
1.00003
1.00003
1.00003
1.00003
1.00003
1.00003
1.00003
1.00003
1.00003
1.00003
1.00003
1.00003
1.00002
1.00002
1.00002
1.00001
1.00001
1
0.999997
0.999995
0.99999
0.999986
0.999985
0.999964
0.999959
0.999958
0.999958
0.999958
0.999958
0.999958
0.999959
0.999987
0.99996
0.999958
0.999958
0.999958
0.999958
0.999958
0.999965
0.999959
0.999958
0.999958
0.999958
0.999959
0.999974
0.99999
0.999992
0.999994
0.999997
1
1
0.999999
0.999999
0.999995
0.999988
0.999988
0.999988
0.999988
0.999988
0.999988
0.999988
0.999988
0.999999
1
1
1.00001
1.00001
1.00001
1.00001
1.00001
1.00002
1.00002
1.00001
1.00001
1.00001
1
1
0.999988
0.999984
0.999984
0.999986
0.999997
1
1
1
1
0.999993
0.999988
0.999988
0.999996
1
1
1
0.999998
3.86948e-57
2.21524e-55
9.92347e-55
2.81044e-54
4.89281e-54
8.04971e-54
9.50748e-54
9.20094e-54
6.61056e-54
4.88873e-54
6.17861e-54
1.2676e-53
3.63663e-51
8.48372e-50
1.4133e-47
1.92246e-45
1.13628e-43
2.61909e-42
2.83943e-41
2.29325e-40
5.54709e-39
2.95209e-37
1.14846e-35
2.06495e-34
-1.45708e-24
1.83127e-06
0.000391406
0.00242223
0.0168682
0.0566975
0.208066
0.658366
0.983851
0.993934
0.996827
0.99859
0.99943
0.999773
0.999868
0.999859
0.99982
0.999873
0.999956
0.999986
1
1
1.00004
1.00007
1.00008
1.00007
1.00005
1.00003
1
0.999999
0.999956
0.999917
0.99992
0.99993
0.999993
1
1.00003
1.00004
1.00005
1.00005
1.00004
1.00002
1
0.999976
0.99994
0.999939
0.999939
0.999939
0.99994
0.999944
0.999964
1
1
1
0.999999
0.999998
0.999981
0.999976
0.999976
0.999976
0.999976
0.999976
0.99998
0.999995
1
1
0.999999
0.999989
0.999982
0.999982
0.999982
0.999982
0.999984
0.999998
1
1
1
1
1
0.999996
0.999977
0.999965
0.999963
0.999963
0.999963
0.999963
0.999963
0.999965
0.999967
0.999984
0.99997
0.999969
0.999969
0.999969
0.999968
0.999968
0.999968
0.999968
0.999969
0.999988
0.999998
0.999997
0.999995
0.999995
0.999995
0.999995
0.999991
0.999987
0.999987
0.999987
0.999987
0.999987
0.999989
0.999999
1
1
1.00001
1.00001
1.00001
1.00001
1.00001
1.00001
1
0.999998
0.999988
0.999988
0.999987
0.999987
0.999987
0.999988
0.999988
0.999988
0.999995
1
1
1
1
1
1
1
1
1.00001
1.00001
1
1
1
1
1
1
0.999997
0.999996
0.999985
0.999976
0.999974
0.999971
0.999967
0.999962
0.999978
0.999984
0.999984
0.999982
0.999985
0.999987
0.999987
0.999986
0.999979
0.999987
0.999988
0.999987
0.999968
0.999977
0.999997
0.999999
1
1
1
1.00001
1.00001
1.00001
1.00001
1.00002
1.00002
1.00002
1.00002
1.00001
1.00001
1.00001
1.00001
1.00001
1.00001
1
0.999997
1
1
1.00001
1.00001
1.00001
1.00001
1.00001
1.00001
1.00002
1.00002
1.00002
1.00002
1.00002
1.00002
1.00001
1.00001
1
0.999999
0.999991
0.999984
0.999986
0.999988
0.999999
1
1
1
0.999996
0.999988
0.999992
1
1
1
1
1
-1.54116e-63
-7.24059e-58
1.6317e-58
4.27847e-57
7.86259e-57
5.25988e-56
1.18355e-55
4.00205e-55
8.77327e-55
4.75889e-55
4.48827e-54
8.81658e-52
5.38615e-50
1.09774e-48
-5.10313e-47
-4.25024e-47
5.73614e-47
1.9411e-43
6.03011e-42
8.16888e-41
1.78877e-39
1.66882e-38
9.90725e-36
3.17514e-34
-2.10312e-25
1.47719e-06
0.000136893
0.00137577
0.00696542
0.0257398
0.0869089
0.32173
0.812536
0.961654
0.979472
0.990541
0.995565
0.997919
0.999019
0.999529
0.999736
0.999834
0.999902
0.999961
0.999992
1
1
1
1
0.999997
0.999993
0.999991
0.999982
0.999928
0.999916
0.999931
0.999962
0.999973
0.999988
1
1
1
1.00001
1.00001
1.00001
1.00001
1
0.999998
0.999997
0.999991
0.999981
0.999969
0.999981
0.99999
0.999997
1
1
1
1.00001
1.00001
1.00001
1.00001
1.00001
1.00002
1.00002
1.00002
1.00003
1.00003
1.00004
1.00004
1.00004
1.00003
1.00003
1.00003
1.00002
1.00002
1.00002
1.00002
1.00002
1.00002
1.00002
1.00001
1.00001
1
0.999999
0.999996
0.999985
0.999991
0.999999
1
1
1.00001
1.00001
1.00001
1.00001
1.00001
1.00001
1.00001
1.00001
1.00001
1.00001
1.00001
1.00001
1.00002
1.00002
1.00002
1.00002
1.00002
1.00002
1.00002
1.00002
1.00002
1.00002
1.00002
1.00002
1.00003
1.00003
1.00003
1.00004
1.00004
1.00004
1.00004
1.00004
1.00004
1.00004
1.00004
1.00003
1.00003
1.00002
1.00002
1.00002
1.00002
1.00001
1.00001
1.00001
1.00001
1.00001
1.00001
1.00001
1.00001
1.00001
1.00002
1.00002
1.00002
1.00002
1.00002
1.00002
1.00002
1.00002
1.00001
1.00001
1.00001
1
1
0.999997
0.999995
0.999994
0.999991
0.999977
0.999963
0.999962
0.999961
0.999961
0.999961
0.999963
0.999966
0.999966
0.999973
0.999984
0.999971
0.999968
0.999968
0.999967
0.999967
0.999967
0.99997
0.999967
0.999967
0.999967
0.999967
0.99998
0.999997
1
1
1
1
1
1
1
1
1
1
1
0.999997
0.999993
0.999993
0.999993
0.999993
0.999996
1
1
1
1.00001
1.00001
1.00001
1.00001
1.00002
1.00002
1.00002
1.00002
1.00001
1.00001
1
0.999998
0.999986
0.999985
0.999987
0.999998
1
1
1
1
0.999992
0.999986
0.999994
1
1
1
1
1
-9.80789e-62
-5.3044e-60
2.49547e-59
1.10961e-58
-1.25244e-63
-3.48991e-55
-1.1359e-54
-4.77527e-54
-9.35473e-55
-1.05576e-52
-1.73113e-53
-6.90548e-55
1.61088e-51
2.87968e-51
-4.20452e-45
-6.7341e-45
-4.21804e-45
1.30894e-45
1.59472e-43
6.21976e-42
6.18399e-41
8.17045e-41
1.1091e-35
5.08245e-34
-9.6149e-27
1.56156e-06
9.34892e-05
0.00112575
0.00632768
0.0220733
0.072608
0.246412
0.701516
0.924226
0.95805
0.977785
0.988426
0.994004
0.996895
0.998371
0.999134
0.999544
0.999766
0.999887
0.999959
0.999992
1
1
1
1
0.999997
0.999993
0.999966
0.999916
0.999914
0.999914
0.999914
0.999952
1
1.00002
1.00003
1.00003
1.00002
1.00001
0.999998
0.999959
0.999957
0.999957
0.999957
0.999957
0.999956
0.999957
0.999957
0.99996
0.999986
0.999995
0.999977
0.999977
0.999977
0.999977
0.999978
0.99998
0.999994
1
1
1.00001
1.00001
1.00001
1.00001
1.00001
1.00001
1.00001
1.00001
1.00001
1.00001
1.00002
1.00002
1.00002
1.00002
1.00002
1.00001
1.00001
1
1
0.999988
0.999976
0.999974
0.999973
0.999973
0.999973
0.999973
0.999974
0.99999
0.999999
0.999989
0.999986
0.999986
0.999986
0.999985
0.999986
0.999986
0.999995
1
1
1
1
1.00001
1.00001
1
1
1
1
1
1
1
1
1.00001
1.00001
1.00002
1.00002
1.00002
1.00003
1.00003
1.00003
1.00002
1.00002
1.00002
1.00001
1.00001
1
1
1
1
1
1
1
1
1.00001
1.00001
1.00001
1.00001
1.00001
1.00001
1.00001
1.00001
1.00001
1.00001
1.00001
1.00001
1.00001
1.00001
1.00001
1
1
1
0.999998
0.999997
0.999995
0.999972
0.999965
0.999963
0.999971
0.99998
0.99998
0.999974
0.999981
0.999982
0.999983
0.999983
0.999983
0.999979
0.999982
0.999982
0.999982
0.999975
0.999969
0.99997
0.999992
0.999999
1
1
1
1
1.00001
1.00001
1.00001
1.00001
1.00001
1.00001
1.00001
1.00001
1.00001
1.00001
1
1
0.999998
0.999993
1
1
1
1.00001
1.00001
1.00001
1.00001
1.00001
1.00002
1.00002
1.00002
1.00002
1.00002
1.00001
1.00001
1
0.999999
0.999987
0.999986
0.999987
0.999991
1
1
1
1
0.999987
0.999985
0.999995
1
1
1
1
1
-4.68859e-64
3.66037e-64
0
0
-1.12644e-64
-1.26901e-55
-2.41733e-53
-1.01926e-53
-2.09777e-68
-3.9499e-51
-2.58026e-53
1.21377e-51
1.53934e-50
-1.23586e-53
-2.30093e-43
-3.68709e-43
-2.28046e-43
2.25317e-43
1.20632e-42
3.77844e-42
5.48832e-42
3.42564e-41
1.62395e-35
8.05374e-34
-1.23602e-28
1.51961e-06
8.50069e-05
0.00102352
0.00615651
0.0217602
0.0755646
0.227411
0.647117
0.918318
0.954242
0.974508
0.985854
0.992174
0.995714
0.997668
0.998729
0.999321
0.999657
0.999819
0.9999
0.99996
0.999991
1
1.00001
1.00001
1.00002
1.00001
1.00001
1.00001
1.00001
1
0.999961
0.999952
0.999995
1
1.00001
1.00003
1.00003
1.00003
1.00002
1.00001
0.999999
0.999995
0.99999
0.999957
0.999957
0.999957
0.999971
0.999987
0.999995
0.999999
1
1
1
1
0.999995
0.999997
1
1
1.00001
1.00001
1.00002
1.00002
1.00002
1.00002
1.00002
1.00002
1.00001
1.00001
1.00001
1.00001
1.00001
1.00001
1.00001
1.00001
1.00001
1.00001
1
1
0.999999
0.999998
0.999981
0.999974
0.999979
0.999991
0.999994
0.999994
0.999995
0.999998
0.999997
0.999997
0.999997
0.999996
0.999997
0.999999
1
1
1
1.00001
1.00001
1.00001
1.00001
1.00001
1.00001
1.00001
1.00001
1.00001
1.00001
1.00001
1.00001
1.00002
1.00002
1.00003
1.00003
1.00003
1.00003
1.00004
1.00004
1.00003
1.00003
1.00003
1.00002
1.00002
1.00002
1.00001
1.00001
1.00001
1
1
1.00001
1.00001
1.00001
1.00001
1.00001
1.00001
1.00001
1.00001
1.00001
1.00001
1.00001
1.00001
1.00001
1.00001
1.00001
1.00001
1.00001
1
1
1
0.999997
0.999995
0.999995
0.999973
0.999965
0.999964
0.999963
0.999963
0.999963
0.999964
0.999966
0.999967
0.999971
0.999982
0.999983
0.999979
0.999968
0.999966
0.999968
0.999971
0.999969
0.999969
0.999968
0.999969
0.999969
0.999981
0.999999
1
1
1
1
1
1
1
1
1
1
1
1
1
0.999995
0.999994
0.999994
0.999995
1
1
1
1
1.00001
1.00001
1.00001
1.00001
1.00002
1.00002
1.00002
1.00002
1.00001
1.00001
1
0.999996
0.999986
0.999986
0.999986
0.999998
1
1
1
0.999998
0.999985
0.999985
0.999996
1
1
1
1
1
0
4.88424e-78
-2.90542e-59
-2.28638e-58
-1.16711e-57
-6.48517e-54
-3.16046e-54
0
6.71285e-67
-2.01719e-50
-6.90431e-51
1.13662e-49
1.05559e-48
-1.2563e-51
-8.7722e-42
-1.22773e-41
-9.20275e-42
-5.64531e-42
1.19706e-40
5.04483e-40
1.25322e-39
5.10736e-38
1.86297e-34
9.89931e-34
-7.57134e-31
1.43776e-06
8.44089e-05
0.00105258
0.0061825
0.0221232
0.075493
0.227433
0.641771
0.917306
0.953445
0.973961
0.985535
0.991978
0.995554
0.997563
0.998674
0.999272
0.999605
0.999795
0.99989
0.999939
0.999975
0.999994
1
1
1
0.999998
0.999987
0.999991
1
1.00001
1.00001
1
0.999997
0.999974
0.999975
0.999996
1
1
1
1
0.999997
0.999998
0.999983
0.999966
0.999983
0.999983
0.999985
0.999982
0.999972
0.999971
0.999971
0.999971
0.999971
0.999971
0.999973
0.999989
1
1
1
1.00001
1.00001
1.00002
1.00002
1.00002
1.00002
1.00002
1.00002
1.00002
1.00002
1.00002
1.00002
1.00002
1.00001
1.00001
1.00001
1
1
0.999997
0.999984
0.999979
0.999979
0.999977
0.999979
0.99998
0.999993
0.999995
0.999995
0.999994
0.999992
0.999992
0.999992
0.999992
0.999992
0.999992
0.999999
1
1
1
1.00001
1.00001
1.00001
1.00001
1.00001
1.00001
1.00001
1
1
1.00001
1.00001
1.00001
1.00002
1.00002
1.00002
1.00003
1.00003
1.00003
1.00003
1.00003
1.00003
1.00002
1.00002
1.00002
1.00001
1.00001
1.00001
1.00001
1
1
1
1
1.00001
1.00001
1.00001
1.00001
1.00001
1.00001
1.00001
1.00001
1.00001
1.00002
1.00002
1.00002
1.00001
1.00001
1.00001
1.00001
1
1
0.999999
0.999997
0.999997
0.999994
0.999976
0.999965
0.999964
0.999964
0.999976
0.999977
0.999978
0.999978
0.999979
0.999979
0.999977
0.999978
0.999979
0.999979
0.999979
0.999979
0.999972
0.999969
0.999969
0.999971
0.999991
0.999998
1
1
1
1
1
1.00001
1.00001
1.00001
1.00001
1.00001
1
1
1
1
0.999999
0.999995
0.999994
0.999998
1
1
1
1.00001
1.00001
1.00001
1.00001
1.00002
1.00002
1.00002
1.00002
1.00002
1.00001
1.00001
1
0.999995
0.999987
0.999986
0.999987
0.999997
1
1
1
0.999996
0.999985
0.999985
0.999995
1
1
1
1
1
0
-2.75342e-61
-2.53326e-58
-4.7772e-58
-4.6312e-55
-5.56465e-54
-4.39427e-54
-5.52793e-55
4.36935e-51
-9.71613e-49
-4.87513e-49
7.94714e-48
8.22792e-47
-5.179e-51
-1.52295e-40
-9.59698e-41
1.83427e-57
1.24711e-42
8.94174e-41
8.8898e-40
5.71611e-39
4.03696e-37
2.13063e-35
3.16475e-34
-8.15091e-34
1.39255e-06
8.6322e-05
0.0010761
0.00621106
0.0221941
0.0746279
0.231784
0.656046
0.918261
0.953934
0.974174
0.985611
0.992012
0.995577
0.997568
0.998664
0.999264
0.999607
0.999802
0.999895
0.999943
0.999977
0.999995
1
1
1
0.999998
0.999975
0.999942
0.999942
0.999942
0.999942
0.999947
0.999963
0.999977
0.999988
1
1
1
0.999999
0.999983
0.99997
0.999967
0.999967
0.999967
0.999967
0.99997
0.999987
0.999998
1
1
1
1
1
1
1
1
1
1
1.00001
1.00001
1.00002
1.00002
1.00002
1.00002
1.00002
1.00002
1.00002
1.00002
1.00002
1.00002
1.00002
1.00002
1.00002
1.00002
1.00001
1.00001
1.00001
1
1
0.999994
0.999979
0.999979
0.999979
0.999986
0.999993
0.999995
0.999996
0.999996
0.999996
0.999996
0.999992
0.999991
0.999992
0.999999
1
1
1
1
1.00001
1.00001
1.00001
1.00001
1.00001
1.00001
1.00001
1.00001
1.00001
1.00001
1.00001
1.00002
1.00002
1.00002
1.00003
1.00003
1.00003
1.00003
1.00003
1.00003
1.00003
1.00003
1.00002
1.00002
1.00002
1.00001
1.00001
1.00001
1
1
1.00001
1.00001
1.00001
1.00001
1.00001
1.00001
1.00001
1.00001
1.00001
1.00002
1.00002
1.00002
1.00002
1.00002
1.00001
1.00001
1.00001
1.00001
1
1
0.999999
0.999998
0.999996
0.99998
0.99997
0.999968
0.999966
0.999967
0.999971
0.999975
0.999977
0.999978
0.999979
0.999979
0.999979
0.999978
0.999976
0.999971
0.999972
0.999972
0.999972
0.999971
0.99997
0.999971
0.999979
0.999997
0.999999
1
1
1
1
1
1
1.00001
1.00001
1
1
1
1
1
0.999998
0.999996
0.999995
0.999999
1
1
1
1.00001
1.00001
1.00001
1.00001
1.00002
1.00002
1.00002
1.00002
1.00002
1.00001
1.00001
1
0.999996
0.999986
0.999985
0.999986
0.999999
1
1
1
0.999996
0.999985
0.999985
0.999994
1
1
1
1
1
-3.83941e-65
-1.41465e-60
-6.89157e-58
-9.81416e-58
-3.2913e-53
-5.58958e-53
-1.28811e-53
4.1947e-52
2.90875e-49
-1.0032e-46
-3.26776e-47
3.54941e-46
4.90774e-45
1.96857e-43
-1.19139e-43
-9.22938e-40
7.87753e-42
9.99059e-41
1.78665e-40
5.66423e-40
1.672e-36
1.53685e-36
7.40727e-36
1.71965e-34
1.8446e-34
1.38665e-06
8.89844e-05
0.00109089
0.00624147
0.0221814
0.0740314
0.236719
0.672857
0.919605
0.954699
0.9746
0.985819
0.992093
0.995631
0.997603
0.998672
0.99926
0.999618
0.999811
0.99989
0.999948
0.999985
0.999999
1
1.00001
1.00002
1.00002
1.00001
1
1
0.999994
0.999983
0.999994
1
1.00001
1.00002
1.00002
1.00001
1.00001
1
0.999997
0.999996
0.999993
0.999987
0.999967
0.999983
0.999983
0.999983
0.999969
0.999968
0.999967
0.999967
0.999967
0.999968
0.999973
0.999988
1
1
1
1
1.00001
1.00001
1.00002
1.00002
1.00002
1.00002
1.00002
1.00002
1.00001
1.00001
1.00001
1.00001
1.00001
1
1
1
1
0.999999
0.999994
0.999981
0.99998
0.999979
0.999979
0.999979
0.999979
0.99998
0.999991
0.999995
0.999996
0.999991
0.999991
0.999991
0.999991
0.999991
0.999992
0.999999
1
1
1
1
1.00001
1.00001
1.00001
1
1
1
1
1.00001
1.00001
1.00001
1.00001
1.00002
1.00002
1.00003
1.00003
1.00003
1.00003
1.00003
1.00003
1.00003
1.00002
1.00002
1.00002
1.00001
1.00001
1.00001
1
1
1
0.999999
1
1
1
1
1.00001
1.00001
1.00001
1.00001
1.00001
1.00001
1.00001
1.00001
1.00001
1.00001
1.00001
1.00001
1
1
0.999999
0.999998
0.999997
0.999989
0.999972
0.999971
0.99997
0.999969
0.99997
0.999971
0.999971
0.999976
0.999977
0.999978
0.999979
0.999978
0.999978
0.999975
0.99997
0.999972
0.999972
0.999971
0.99997
0.99997
0.99997
0.999982
0.999997
0.999999
1
1
1
1
1
1
1
1
1
1
1
1
1
0.999998
0.999996
0.999996
0.999996
1
1
1
1
1.00001
1.00001
1.00001
1.00001
1.00002
1.00002
1.00002
1.00002
1.00001
1.00001
1
0.999992
0.999985
0.999985
0.999985
0.999998
1
1.00001
1
1
0.999985
0.999985
0.999995
1
1
1
1
1
-1.44865e-62
-6.94629e-58
-1.80082e-55
-2.57258e-55
-7.18316e-55
-5.79632e-55
0
3.84946e-48
1.78322e-47
1.45828e-46
-1.91727e-46
2.87506e-44
1.69795e-42
1.09446e-39
1.96343e-38
1.25374e-38
9.20925e-39
4.83537e-38
1.07149e-36
2.97092e-36
5.73871e-35
1.12883e-33
3.59327e-33
9.77272e-33
6.63152e-32
1.39674e-06
9.13173e-05
0.00109885
0.00625658
0.0222002
0.0736973
0.2408
0.685689
0.920683
0.955303
0.974942
0.985992
0.992172
0.995661
0.997608
0.998676
0.99928
0.999634
0.999794
0.999895
0.999963
0.999994
1
1.00002
1.00003
1.00002
1.00002
1.00001
1
0.999998
1
0.999997
0.999994
0.999972
0.999969
0.99997
0.99997
0.99997
0.999989
0.999984
0.999961
0.999957
0.999955
0.999955
0.999955
0.999958
0.999973
0.999989
0.999992
0.999994
0.999995
0.999995
0.999995
0.999995
0.999989
0.999987
0.999992
1
1
1
1.00001
1.00001
1.00002
1.00002
1.00002
1.00003
1.00003
1.00003
1.00002
1.00002
1.00002
1.00002
1.00002
1.00002
1.00001
1.00001
1.00001
1
0.999999
0.999999
0.999991
0.99998
0.999979
0.999979
0.999981
0.999993
0.999994
0.999995
0.999996
0.999996
0.999996
0.999993
0.999991
0.999994
0.999999
1
1
1
1
1.00001
1.00001
1.00001
1.00001
1.00001
1.00001
1.00001
1.00001
1.00001
1.00001
1.00001
1.00002
1.00002
1.00002
1.00003
1.00003
1.00003
1.00003
1.00003
1.00003
1.00003
1.00003
1.00002
1.00002
1.00002
1.00001
1.00001
1.00001
1
1
1
1.00001
1.00001
1.00001
1.00001
1.00001
1.00001
1.00001
1.00001
1.00002
1.00002
1.00002
1.00002
1.00002
1.00001
1.00001
1.00001
1.00001
1
1
0.999999
0.999997
0.999996
0.999993
0.999978
0.999971
0.99997
0.999971
0.999977
0.999977
0.999978
0.999973
0.999973
0.999974
0.999978
0.999973
0.999972
0.999972
0.999972
0.999973
0.999972
0.99997
0.99997
0.99997
0.999988
0.999997
0.999999
1
1
1
1
1
1
1
1
1
1
1
1
1
1
0.999997
0.999996
0.999999
1
1
1
1
1.00001
1.00001
1.00001
1.00001
1.00002
1.00002
1.00002
1.00002
1.00001
1.00001
1
0.999995
0.999985
0.999984
0.999985
1
1
1.00001
1.00001
1
0.99999
0.999985
0.999995
1
1
1
1
1
-7.40687e-61
-7.74998e-57
-8.41049e-55
-1.2256e-54
-6.19179e-55
-1.36663e-65
3.53813e-50
8.07546e-47
1.07369e-45
7.69145e-45
3.05829e-44
1.48554e-42
6.08207e-40
4.05682e-38
1.02358e-36
9.54133e-36
6.92295e-35
7.72367e-34
2.06546e-32
2.16696e-31
3.08819e-31
5.72788e-30
1.64011e-29
1.60698e-29
6.63152e-32
1.41193e-06
9.26692e-05
0.00110276
0.00626609
0.0222265
0.0735718
0.243131
0.692564
0.921268
0.955626
0.9751
0.986078
0.992218
0.995671
0.997599
0.998666
0.999272
0.999627
0.99979
0.999886
0.999956
0.999992
1
1.00002
1.00003
1.00003
1.00001
1
0.999985
0.999951
0.99995
0.99995
0.99995
0.999952
0.999988
1
1.00001
1.00001
1.00001
1
1
0.999999
0.999998
0.999997
0.999992
0.999992
0.999992
0.999991
0.999985
0.999981
0.999984
0.999987
0.999988
0.999992
0.999995
0.999998
1
1
1
1.00001
1.00001
1.00001
1.00002
1.00002
1.00003
1.00003
1.00002
1.00002
1.00002
1.00002
1.00002
1.00001
1.00001
1.00001
1.00001
1.00001
1
1
0.999999
0.999999
0.999987
0.999981
0.999981
0.99998
0.999981
0.999988
0.999994
0.999995
0.999995
0.999996
0.999995
0.999993
0.999994
0.999999
1
1
1
1
1
1.00001
1.00001
1.00001
1.00001
1.00001
1.00001
1.00001
1.00001
1.00001
1.00001
1.00001
1.00002
1.00002
1.00002
1.00003
1.00003
1.00003
1.00003
1.00003
1.00003
1.00003
1.00002
1.00002
1.00002
1.00001
1.00001
1.00001
1
1
1
1
1
1
1.00001
1.00001
1.00001
1.00001
1.00001
1.00001
1.00001
1.00002
1.00002
1.00002
1.00001
1.00001
1.00001
1.00001
1.00001
1
1
0.999999
0.999998
0.999997
0.999985
0.999976
0.999973
0.999972
0.999974
0.999977
0.999978
0.999978
0.999978
0.999978
0.999978
0.999974
0.999971
0.999971
0.999971
0.999972
0.999974
0.999974
0.999972
0.999969
0.99997
0.999986
0.999997
0.999999
1
1
1
1
1
1
1
1
1
1
1
1
1
1
0.999998
0.999997
0.999999
1
1
1
1
1.00001
1.00001
1.00001
1.00001
1.00002
1.00002
1.00002
1.00002
1.00001
1.00001
1
0.999995
0.999984
0.999984
0.999984
0.999994
1
1.00001
1
1
0.999987
0.999986
0.999993
1
1
1
1
1
-1.40513e-58
-5.90449e-56
-8.24193e-54
-9.77012e-54
-5.33736e-54
-1.02563e-48
-1.26854e-46
4.89122e-45
6.71595e-44
4.06192e-43
1.51111e-42
7.82361e-41
3.44264e-38
1.80398e-36
4.64796e-35
4.47371e-34
3.37579e-33
5.19121e-32
1.851e-30
2.42735e-29
5.28695e-29
3.39458e-28
2.69448e-27
7.9874e-27
3.95068e-27
1.41852e-06
9.26619e-05
0.00110333
0.00626863
0.0222307
0.0735475
0.243203
0.692821
0.921321
0.955663
0.975097
0.986068
0.992225
0.995655
0.997582
0.998655
0.999247
0.999588
0.999794
0.999882
0.999936
0.999975
0.999996
1
1.00001
1.00002
1.00002
1.00001
1
0.999999
0.999998
0.999986
0.999951
0.999969
0.999998
1
1
1
0.999988
0.999974
0.999948
0.999949
0.999945
0.999943
0.999942
0.999942
0.999942
0.999949
0.999985
0.999989
0.99999
0.999991
0.999991
0.999991
0.999991
0.999991
0.999991
0.999997
1
1
1
1.00001
1.00001
1.00002
1.00002
1.00002
1.00002
1.00002
1.00002
1.00002
1.00002
1.00001
1.00001
1.00001
1.00001
1.00001
1
1
0.999999
0.999993
0.999983
0.999982
0.999981
0.999981
0.999981
0.999981
0.999983
0.999993
0.999995
0.999993
0.999993
0.999994
0.999993
0.999994
0.999997
1
1
1
1
1
1
1
1
1
1.00001
1.00001
1.00001
1.00001
1.00001
1.00001
1.00002
1.00002
1.00002
1.00003
1.00003
1.00003
1.00003
1.00003
1.00003
1.00003
1.00002
1.00002
1.00002
1.00001
1.00001
1.00001
1
1
1
1
1
1
1.00001
1.00001
1.00001
1.00001
1.00001
1.00001
1.00001
1.00002
1.00002
1.00001
1.00001
1.00001
1.00001
1.00001
1
1
1
0.999998
0.999998
0.999994
0.999978
0.999976
0.999976
0.999974
0.999975
0.999976
0.999977
0.999978
0.999975
0.999969
0.999975
0.999974
0.999971
0.999971
0.999971
0.999971
0.999974
0.999974
0.999965
0.999966
0.999972
0.999992
0.999997
0.999999
1
1
1
1
1
1
1
1
1
1
1
1
1
1
1
0.999998
0.999998
0.999999
1
1
1
1
1.00001
1.00001
1.00001
1.00002
1.00002
1.00002
1.00002
1.00001
1.00001
1
0.999995
0.999984
0.999984
0.999984
0.999989
1
1
1
1
0.999987
0.999986
0.999994
1
1
1
1
1
-9.68619e-60
-2.58405e-55
-8.55039e-54
-7.0691e-53
-3.65415e-49
-3.91706e-46
-8.62437e-45
4.28295e-43
4.40793e-42
2.2662e-41
7.82341e-41
7.60913e-38
1.03285e-36
5.4451e-35
1.52813e-33
1.64379e-32
1.33032e-31
1.99036e-30
7.44691e-29
9.9296e-28
3.95135e-27
1.33696e-26
1.23331e-25
1.34811e-25
1.59517e-26
1.40892e-06
9.10741e-05
0.00109911
0.00626127
0.0222116
0.0736559
0.240933
0.686178
0.920786
0.955355
0.974959
0.98602
0.992188
0.995671
0.997622
0.998685
0.999267
0.999626
0.999814
0.999891
0.999951
0.999987
1
1
1.00002
1.00002
1.00002
1.00001
1
0.999991
0.999953
0.999951
0.999952
0.999952
0.999972
1
1
1.00001
1.00001
1.00001
1
1
1
0.999998
0.999998
0.999995
0.999987
0.999966
0.999975
0.999979
0.999986
0.999989
0.999994
0.999996
0.999996
0.999999
1
1
1
1.00001
1.00001
1.00002
1.00002
1.00002
1.00003
1.00003
1.00002
1.00002
1.00002
1.00002
1.00001
1.00001
1.00001
1.00001
1.00001
1.00001
1
1
0.999999
0.999996
0.999983
0.999982
0.999982
0.999981
0.999981
0.999982
0.999991
0.999994
0.999995
0.999995
0.999995
0.999994
0.999993
0.999994
0.999997
1
1
1
1
1
1
1
1
1.00001
1.00001
1.00001
1.00001
1.00001
1.00001
1.00002
1.00002
1.00002
1.00002
1.00003
1.00003
1.00003
1.00003
1.00003
1.00003
1.00003
1.00002
1.00002
1.00002
1.00001
1.00001
1.00001
1
1
1
1
1
1
1.00001
1.00001
1.00001
1.00001
1.00001
1.00001
1.00001
1.00001
1.00001
1.00001
1.00001
1.00001
1.00001
1.00001
1
1
1
0.999998
0.999996
0.999994
0.999991
0.999978
0.999976
0.999975
0.999975
0.999975
0.999977
0.999977
0.99997
0.999969
0.999969
0.99997
0.999971
0.999971
0.999971
0.999972
0.999973
0.999971
0.999965
0.999965
0.999973
0.999995
0.999997
0.999999
1
1
1
1
1
1
1
1
1
1
1
1
1
1
1
0.999998
1
1
1
1
1
1.00001
1.00001
1.00001
1.00001
1.00002
1.00002
1.00002
1.00002
1.00001
1.00001
1
0.999996
0.999984
0.999984
0.999984
0.999986
1
1
1
0.999999
0.999986
0.999986
0.999994
1
1
1
1
1
-2.22105e-58
-6.72317e-54
-5.42941e-51
-7.1586e-49
-4.62262e-47
-4.03948e-44
-4.10552e-43
3.75142e-41
-2.45552e-39
-1.50542e-39
1.70988e-39
1.54728e-35
3.49094e-35
1.6306e-33
4.80413e-32
5.33341e-31
4.7161e-30
7.04552e-29
1.84662e-27
3.46565e-26
3.15628e-25
6.82956e-25
5.57577e-24
1.32075e-23
5.99155e-24
1.39631e-06
8.81314e-05
0.00108596
0.00623253
0.0221987
0.0739725
0.236584
0.67266
0.919682
0.954746
0.97459
0.985811
0.992124
0.995629
0.997577
0.998671
0.999273
0.9996
0.999787
0.999888
0.99994
0.999974
0.999993
1
1
1
0.999987
0.999984
0.999984
0.99999
0.99999
0.999954
0.999995
1
1.00001
1.00001
1.00001
1.00001
1
0.999997
0.999978
0.999951
0.999948
0.999948
0.999948
0.999948
0.999957
0.999989
0.999992
0.999995
0.999996
0.999996
0.999996
0.999997
0.999993
0.999992
0.999992
0.999992
0.999994
1
1
1.00001
1.00001
1.00002
1.00002
1.00002
1.00002
1.00002
1.00002
1.00002
1.00002
1.00002
1.00001
1.00001
1.00001
1.00001
1.00001
1
1
0.999999
0.999992
0.999983
0.999982
0.999982
0.999982
0.999982
0.999986
0.999994
0.999995
0.999995
0.999995
0.999995
0.999998
0.999999
1
1
1
1
1
1
1
1
1.00001
1.00001
1.00001
1.00001
1.00001
1.00001
1.00001
1.00002
1.00002
1.00002
1.00002
1.00003
1.00003
1.00003
1.00003
1.00003
1.00003
1.00003
1.00002
1.00002
1.00002
1.00001
1.00001
1.00001
1
1
1
1
1.00001
1.00001
1.00001
1.00001
1.00001
1.00001
1.00001
1.00001
1.00001
1.00001
1.00001
1.00001
1.00001
1.00001
1.00001
1.00001
1
1
1
0.999998
0.999997
0.999994
0.999993
0.99999
0.999977
0.999975
0.999975
0.999975
0.999977
0.999974
0.99997
0.99997
0.999974
0.999974
0.999972
0.999971
0.999971
0.999971
0.999973
0.999973
0.999965
0.999966
0.999978
0.999995
0.999997
0.999999
1
1
1
1
1
1
1
1
1
1
1
1
1
1
1
1
0.999999
1
1
1
1
1
1.00001
1.00001
1.00001
1.00001
1.00002
1.00002
1.00002
1.00001
1.00001
1
1
0.999985
0.999984
0.999984
0.999984
0.999999
1
1
0.999997
0.999986
0.999986
0.999995
1
1
1
1
1
-1.1692e-54
-1.46211e-50
-3.83707e-48
-6.59942e-47
4.99957e-45
-1.642e-42
1.9637e-40
3.24276e-39
2.16506e-38
6.90663e-38
2.4603e-37
9.65899e-34
4.2143e-33
3.61773e-32
1.32724e-30
1.42037e-29
1.30073e-28
1.81635e-27
3.74061e-26
8.3751e-25
9.86554e-24
1.98138e-23
1.4497e-22
3.63952e-22
6.13266e-24
1.39539e-06
8.43911e-05
0.00106417
0.0061833
0.0222506
0.0746505
0.230984
0.653422
0.918061
0.953774
0.974023
0.985494
0.991935
0.995506
0.997523
0.998651
0.999246
0.999575
0.999773
0.999881
0.999934
0.999968
0.999984
1
1
0.999999
0.999994
0.999989
0.999989
0.999944
0.999935
0.999935
0.999935
0.999936
0.99995
1
1
1.00001
1.00001
1.00001
1.00001
1
0.999999
0.999994
0.999965
0.999952
0.999959
0.999962
0.999965
0.99998
0.999987
0.999996
0.999997
0.999997
0.999999
1
1
1
1
1.00001
1.00001
1.00001
1.00002
1.00002
1.00002
1.00002
1.00002
1.00002
1.00002
1.00002
1.00001
1.00001
1.00001
1.00001
1.00001
1.00001
1
1
0.999999
0.999998
0.999987
0.999984
0.999983
0.999982
0.999982
0.999983
0.999985
0.999992
0.999994
0.999994
0.999995
0.999996
0.999997
0.999998
0.999999
1
1
1
1
1
1
1
1.00001
1.00001
1.00001
1.00001
1.00001
1.00001
1.00001
1.00002
1.00002
1.00002
1.00002
1.00003
1.00003
1.00003
1.00003
1.00003
1.00003
1.00003
1.00002
1.00002
1.00002
1.00001
1.00001
1.00001
1.00001
1
1
1
1.00001
1.00001
1.00001
1.00001
1.00001
1.00001
1.00001
1.00001
1.00001
1.00001
1.00001
1.00001
1.00001
1.00001
1.00001
1.00001
1
1
1
0.999998
0.999997
0.999996
0.999992
0.999979
0.999976
0.999975
0.999975
0.999975
0.999977
0.999977
0.999977
0.99997
0.999974
0.999974
0.999974
0.999972
0.999971
0.999972
0.999974
0.999973
0.999966
0.999967
0.999979
0.999996
0.999997
0.999999
1
1
1
1
1
1
1
1
1
1
1
1
1
1
1
1
1
1
1
1
1
1
1.00001
1.00001
1.00001
1.00001
1.00002
1.00002
1.00002
1.00001
1.00001
1.00001
1
0.999988
0.999985
0.999984
0.999991
1
1
1
1
0.999988
0.999986
0.999996
1
1
1
1
1
-4.6151e-51
-1.22208e-47
-8.35579e-46
6.77474e-45
1.79838e-42
1.1123e-40
1.929e-38
2.74559e-37
1.57794e-36
5.65988e-36
1.54529e-35
4.40855e-32
3.43837e-31