/*--------------------------------*- C++ -*----------------------------------*\
| =========                 |                                                 |
| \\      /  F ield         | OpenFOAM: The Open Source CFD Toolbox           |
|  \\    /   O peration     | Version:  2406                                  |
|   \\  /    A nd           | Website:  www.openfoam.com                      |
|    \\/     M anipulation  |                                                 |
\*---------------------------------------------------------------------------*/
FoamFile
{
    version     2.0;
    format      ascii;
    arch        "LSB;label=32;scalar=64";
    class       surfaceScalarField;
    location    "0.05";
    object      phi;
}
// * * * * * * * * * * * * * * * * * * * * * * * * * * * * * * * * * * * * * //

dimensions      [0 3 -1 0 0 0 0];

oriented        oriented;

internalField   nonuniform List<scalar> 
12225
(
5.20524e-08
1.81479e-09
4.79728e-08
4.08521e-09
4.39796e-08
3.97031e-09
4.05467e-08
3.37798e-09
3.76593e-08
2.79077e-09
3.5436e-08
2.07359e-09
3.40267e-08
1.23472e-09
3.34328e-08
4.3779e-10
3.34734e-08
-1.61843e-10
3.3933e-08
-5.34344e-10
3.45921e-08
-6.94554e-10
3.52812e-08
-7.05397e-10
3.59126e-08
-6.5139e-10
3.64786e-08
-6.15746e-10
3.70432e-08
-6.56944e-10
3.77035e-08
-7.84433e-10
3.85122e-08
-9.45112e-10
3.9411e-08
-1.04371e-09
4.02455e-08
-1.00257e-09
4.08714e-08
-8.18473e-10
4.13236e-08
-6.19347e-10
4.19261e-08
-6.72847e-10
4.30947e-08
-1.17031e-09
4.50434e-08
-1.86207e-09
4.59218e-08
-7.97106e-10
3.76872e-08
8.29617e-09
2.65196e-08
1.11823e-08
2.36645e-08
2.86665e-09
2.13604e-08
2.30098e-09
2.02145e-08
1.14267e-09
1.94258e-08
7.93254e-10
1.92552e-08
1.69443e-10
1.94144e-08
-1.63166e-10
1.97433e-08
-3.26741e-10
2.01108e-08
-3.65204e-10
2.04465e-08
-3.3844e-10
2.07351e-08
-2.91086e-10
2.09782e-08
-2.42828e-10
2.11786e-08
-1.99547e-10
2.13412e-08
-1.62903e-10
2.14723e-08
-1.32583e-10
2.15789e-08
-1.07722e-10
2.16673e-08
-8.82837e-11
2.17413e-08
-7.29619e-11
2.1803e-08
-6.08196e-11
2.18543e-08
-5.1058e-11
2.1897e-08
-4.31939e-11
2.19332e-08
-3.68783e-11
2.19646e-08
-3.1761e-11
2.19921e-08
-2.75391e-11
2.2016e-08
-2.40011e-11
2.20367e-08
-2.09272e-11
2.20548e-08
-1.82596e-11
2.20709e-08
-1.58479e-11
2.20853e-08
-1.37823e-11
2.20979e-08
-1.2241e-11
2.21087e-08
-1.10634e-11
2.21178e-08
-1.01059e-11
2.21255e-08
-9.24337e-12
2.21326e-08
-8.21427e-12
2.21393e-08
-7.07989e-12
2.21455e-08
-5.82684e-12
2.21511e-08
-4.70058e-12
2.21557e-08
-3.82386e-12
2.21594e-08
-3.06024e-12
2.21626e-08
-2.6309e-12
2.21655e-08
-2.31176e-12
2.21684e-08
-2.00429e-12
2.21711e-08
-1.74893e-12
2.21735e-08
-1.53372e-12
2.21754e-08
-1.38581e-12
2.21769e-08
-1.25706e-12
2.2178e-08
-1.13019e-12
2.2179e-08
-9.76211e-13
2.21798e-08
-8.2068e-13
2.21806e-08
-6.81607e-13
2.21811e-08
-5.53164e-13
2.21815e-08
-4.61597e-13
2.21817e-08
-3.98225e-13
2.2182e-08
-3.30682e-13
2.21824e-08
-2.48097e-13
2.21832e-08
-1.37867e-13
2.21842e-08
-1.44419e-14
2.21852e-08
1.215e-13
2.21859e-08
2.45644e-13
2.21862e-08
3.11133e-13
2.21859e-08
2.87458e-13
2.21852e-08
2.18169e-13
2.21843e-08
1.40322e-13
2.21835e-08
4.51895e-14
2.21832e-08
-6.96347e-14
2.21833e-08
-9.49192e-14
2.21839e-08
-5.30869e-14
2.21846e-08
1.02264e-14
2.21852e-08
6.20887e-14
2.21854e-08
7.5111e-14
2.21852e-08
-2.38841e-14
2.21845e-08
-7.83462e-14
2.21836e-08
-1.41843e-13
2.21827e-08
-2.34899e-13
2.21821e-08
-2.95111e-13
2.21818e-08
-2.98713e-13
2.21819e-08
-2.46658e-13
2.21823e-08
-1.77026e-13
2.21828e-08
-9.91256e-14
2.21834e-08
-8.60817e-15
2.21838e-08
6.45737e-14
2.21839e-08
1.49343e-13
2.21839e-08
1.99656e-13
2.21836e-08
2.28682e-13
2.21833e-08
2.63258e-13
2.2183e-08
2.95919e-13
2.21829e-08
3.2732e-13
2.2183e-08
3.91082e-13
2.21832e-08
4.93614e-13
2.21836e-08
5.7372e-13
2.2184e-08
6.37943e-13
2.21844e-08
6.73376e-13
2.21847e-08
6.91134e-13
2.21848e-08
6.95174e-13
2.21847e-08
6.96572e-13
2.21845e-08
6.7243e-13
2.21843e-08
5.76183e-13
2.2184e-08
4.32447e-13
2.21838e-08
3.54013e-13
2.21838e-08
2.12503e-13
2.21838e-08
2.13702e-13
2.21841e-08
8.5649e-14
2.21845e-08
-4.60569e-15
2.2185e-08
-4.55354e-14
2.21855e-08
-7.16634e-14
2.2186e-08
-8.03228e-14
2.21863e-08
-1.0276e-13
2.21863e-08
-3.16919e-14
2.21862e-08
-3.35408e-14
2.21859e-08
-4.62977e-14
2.21855e-08
-8.03355e-14
2.21851e-08
-1.25017e-13
2.21848e-08
-1.61007e-13
2.21846e-08
-1.91383e-13
2.21844e-08
-2.11983e-13
2.21844e-08
-2.29548e-13
2.21845e-08
-2.37193e-13
2.21847e-08
-2.65323e-13
2.2185e-08
-2.5926e-13
2.21853e-08
-2.36487e-13
2.21855e-08
-1.85574e-13
2.21858e-08
-1.05845e-13
2.21859e-08
-2.57743e-14
2.21859e-08
5.50699e-14
2.21858e-08
1.07994e-13
2.21855e-08
1.43126e-13
2.21852e-08
1.62484e-13
2.21848e-08
1.71074e-13
2.21844e-08
1.69599e-13
2.2184e-08
1.61196e-13
2.21838e-08
1.27457e-13
2.21837e-08
1.06603e-13
2.21836e-08
1.09631e-13
2.21838e-08
1.21478e-13
2.2184e-08
1.45994e-13
2.21842e-08
1.71178e-13
2.21845e-08
1.97326e-13
2.21848e-08
2.2558e-13
2.21852e-08
2.58559e-13
2.21854e-08
2.96256e-13
2.21857e-08
3.15029e-13
2.21859e-08
3.33277e-13
2.2186e-08
3.55638e-13
2.21861e-08
3.74736e-13
2.2186e-08
3.82112e-13
2.21859e-08
3.69975e-13
2.21857e-08
3.59504e-13
2.21855e-08
3.62337e-13
2.21852e-08
3.63851e-13
2.21849e-08
3.30081e-13
2.21846e-08
3.05668e-13
2.21843e-08
2.90439e-13
2.2184e-08
2.72347e-13
2.21838e-08
2.31944e-13
2.21835e-08
2.13685e-13
2.21834e-08
1.97146e-13
2.21832e-08
1.6139e-13
2.21831e-08
1.01884e-13
2.21831e-08
5.14447e-14
2.21831e-08
6.11834e-14
2.21833e-08
-2.8501e-15
2.21837e-08
-1.38374e-13
2.21842e-08
-1.17471e-13
2.21847e-08
-1.22432e-13
2.21853e-08
-1.10606e-13
2.2186e-08
-7.79245e-14
2.21866e-08
-7.80284e-14
2.21873e-08
-1.06371e-13
2.21879e-08
-1.03154e-13
2.21885e-08
-4.88724e-14
2.21889e-08
4.39942e-14
2.21892e-08
2.25321e-14
2.21896e-08
4.83227e-14
2.21899e-08
6.6183e-15
2.21903e-08
3.36379e-14
2.21906e-08
4.46908e-14
2.2191e-08
5.18326e-14
2.21913e-08
6.88588e-14
2.21915e-08
9.28781e-14
2.21918e-08
1.10349e-13
2.21919e-08
1.17106e-13
2.2192e-08
1.26725e-13
2.21921e-08
1.21295e-13
2.21921e-08
1.1228e-13
2.21921e-08
1.06832e-13
2.21922e-08
1.24047e-13
2.21922e-08
1.15407e-13
2.21923e-08
1.39412e-13
2.21923e-08
1.59578e-13
2.21924e-08
1.97753e-13
2.21924e-08
2.37548e-13
2.21923e-08
2.77302e-13
2.21922e-08
3.3316e-13
2.2192e-08
3.87147e-13
2.21917e-08
4.5412e-13
2.21914e-08
5.29261e-13
2.21909e-08
6.11224e-13
2.21902e-08
6.98466e-13
2.21894e-08
7.92984e-13
2.21885e-08
9.00689e-13
2.21874e-08
1.0299e-12
2.21862e-08
1.18389e-12
2.21849e-08
1.37245e-12
2.21832e-08
1.60917e-12
2.21813e-08
1.90436e-12
2.2179e-08
2.27226e-12
2.21763e-08
2.73568e-12
2.2173e-08
3.33313e-12
2.21688e-08
4.14982e-12
2.21636e-08
5.15719e-12
2.21571e-08
6.46071e-12
2.21489e-08
8.20307e-12
2.21383e-08
1.05306e-11
2.21246e-08
1.36612e-11
2.21067e-08
1.78747e-11
2.20831e-08
2.35141e-11
2.20521e-08
3.10086e-11
2.20112e-08
4.08801e-11
2.19576e-08
5.36503e-11
2.18879e-08
6.97097e-11
2.17984e-08
8.95061e-11
2.16857e-08
1.12761e-10
2.15504e-08
1.35439e-10
1.38548e-10
6.3742e-08
8.78609e-10
6.43886e-08
3.42984e-09
6.35005e-08
4.87949e-09
6.1835e-08
5.14706e-09
6.01327e-08
4.69957e-09
5.87653e-08
3.72645e-09
5.78933e-08
2.40857e-09
5.75416e-08
1.04983e-09
5.76398e-08
-9.96653e-11
5.80274e-08
-8.60286e-10
5.85787e-08
-1.21769e-09
5.91998e-08
-1.25573e-09
5.98041e-08
-1.1249e-09
6.03011e-08
-9.80807e-10
6.06481e-08
-9.2021e-10
6.08948e-08
-9.43522e-10
6.11185e-08
-9.6222e-10
6.12788e-08
-8.42932e-10
6.11711e-08
-4.92119e-10
6.04742e-08
1.58197e-10
5.89823e-08
9.66684e-10
5.67761e-08
1.53032e-09
5.41364e-08
1.51939e-09
5.11551e-08
1.01187e-09
4.76151e-08
2.53731e-09
4.60469e-08
9.79086e-09
4.94856e-08
7.71864e-09
4.5543e-08
6.80788e-09
4.43346e-08
3.50832e-09
4.4342e-08
1.13242e-09
4.46226e-08
5.15445e-10
4.49178e-08
-1.2631e-10
4.5419e-08
-6.66366e-10
4.60824e-08
-9.89014e-10
4.67218e-08
-1.00253e-09
4.72761e-08
-8.92631e-10
4.77321e-08
-7.49937e-10
4.81065e-08
-6.16134e-10
4.84129e-08
-5.02209e-10
4.86621e-08
-4.09522e-10
4.88641e-08
-3.35311e-10
4.90297e-08
-2.75669e-10
4.9168e-08
-2.27597e-10
4.9285e-08
-1.88943e-10
4.93837e-08
-1.58056e-10
4.94665e-08
-1.33301e-10
4.95362e-08
-1.13264e-10
4.95957e-08
-9.66922e-11
4.96477e-08
-8.29258e-11
4.96934e-08
-7.13986e-11
4.97333e-08
-6.19147e-11
4.97678e-08
-5.41321e-11
4.97978e-08
-4.76241e-11
4.98242e-08
-4.21203e-11
4.98475e-08
-3.71635e-11
4.9868e-08
-3.28239e-11
4.98859e-08
-2.88396e-11
4.9902e-08
-2.55605e-11
4.99165e-08
-2.25929e-11
4.993e-08
-1.99971e-11
4.9942e-08
-1.77316e-11
4.99527e-08
-1.59066e-11
4.99616e-08
-1.43275e-11
4.99691e-08
-1.31468e-11
4.99758e-08
-1.19845e-11
4.99818e-08
-1.05477e-11
4.99872e-08
-9.07927e-12
4.99923e-08
-7.72881e-12
4.9997e-08
-6.5193e-12
5.0001e-08
-5.46871e-12
5.00046e-08
-4.78007e-12
5.00078e-08
-4.2711e-12
5.00106e-08
-3.72802e-12
5.00132e-08
-3.30743e-12
5.00155e-08
-2.93699e-12
5.00172e-08
-2.60125e-12
5.00185e-08
-2.29163e-12
5.00194e-08
-2.02501e-12
5.00201e-08
-1.81228e-12
5.00208e-08
-1.67419e-12
5.00219e-08
-1.55669e-12
5.00232e-08
-1.43905e-12
5.00246e-08
-1.32162e-12
5.00259e-08
-1.22162e-12
5.00268e-08
-1.05554e-12
5.00269e-08
-8.51447e-13
5.00265e-08
-7.33472e-13
5.00258e-08
-6.62489e-13
5.00251e-08
-5.99481e-13
5.00248e-08
-4.79853e-13
5.00248e-08
-2.53244e-13
5.00254e-08
-5.36095e-15
5.00263e-08
2.1979e-13
5.00273e-08
3.77433e-13
5.00281e-08
4.64386e-13
5.00284e-08
5.40924e-13
5.00281e-08
4.55106e-13
5.00274e-08
2.58169e-13
5.00267e-08
6.36515e-14
5.0026e-08
-5.83797e-14
5.00256e-08
-1.62456e-13
5.00256e-08
-2.3248e-13
5.00259e-08
-2.36951e-13
5.00265e-08
-2.15649e-13
5.00272e-08
-1.86822e-13
5.00278e-08
-1.68787e-13
5.00281e-08
-1.20475e-13
5.00282e-08
-2.28287e-13
5.0028e-08
-3.32431e-13
5.00277e-08
-4.59969e-13
5.00274e-08
-6.19029e-13
5.00271e-08
-7.39525e-13
5.0027e-08
-8.42071e-13
5.00273e-08
-9.97407e-13
5.00276e-08
-9.60876e-13
5.00281e-08
-8.80169e-13
5.00286e-08
-8.55287e-13
5.00289e-08
-7.49553e-13
5.00291e-08
-6.35541e-13
5.00291e-08
-5.18853e-13
5.0029e-08
-4.16968e-13
5.00287e-08
-2.25573e-13
5.00283e-08
-1.9005e-13
5.00279e-08
-1.58857e-13
5.00278e-08
-2.43953e-13
5.00278e-08
-1.97082e-13
5.00283e-08
-2.47087e-13
5.00288e-08
-1.71164e-13
5.00295e-08
-1.19614e-13
5.00302e-08
-7.61598e-14
5.00308e-08
2.9565e-15
5.00312e-08
7.171e-14
5.00313e-08
9.54672e-14
5.00313e-08
3.45257e-14
5.00311e-08
7.48511e-14
5.00307e-08
1.31358e-13
5.00302e-08
1.19763e-13
5.00297e-08
1.07611e-13
5.00293e-08
1.18298e-13
5.00291e-08
1.38886e-13
5.0029e-08
1.18573e-13
5.00291e-08
9.43338e-14
5.00293e-08
6.87577e-14
5.00296e-08
1.0594e-13
5.00298e-08
1.28107e-13
5.00301e-08
1.30817e-13
5.00305e-08
1.18235e-13
5.00307e-08
1.21342e-13
5.00308e-08
1.32606e-13
5.00308e-08
1.41197e-13
5.00306e-08
7.2554e-14
5.00303e-08
2.88904e-14
5.00298e-08
-2.10133e-14
5.00292e-08
-7.83109e-14
5.00286e-08
-1.30998e-13
5.00281e-08
-1.65923e-13
5.00277e-08
-2.02249e-13
5.00274e-08
-2.44804e-13
5.00273e-08
-2.63115e-13
5.00274e-08
-2.44614e-13
5.00276e-08
-2.32293e-13
5.00279e-08
-2.19079e-13
5.00282e-08
-2.0185e-13
5.00286e-08
-1.81902e-13
5.00291e-08
-1.65928e-13
5.00295e-08
-1.51083e-13
5.00299e-08
-1.15697e-13
5.00302e-08
-7.81403e-14
5.00304e-08
-4.18383e-14
5.00305e-08
-1.70571e-14
5.00306e-08
-1.60513e-14
5.00304e-08
-3.75516e-14
5.00302e-08
-3.69218e-14
5.003e-08
-4.00526e-14
5.00297e-08
-4.9651e-14
5.00293e-08
-6.42342e-14
5.0029e-08
-7.59629e-14
5.00286e-08
-9.88086e-14
5.00283e-08
-1.27165e-13
5.00281e-08
-1.64195e-13
5.00278e-08
-1.83808e-13
5.00275e-08
-2.00944e-13
5.00273e-08
-2.36294e-13
5.00271e-08
-2.48696e-13
5.00271e-08
-3.36078e-13
5.00272e-08
-3.62897e-13
5.00273e-08
-3.22893e-13
5.00275e-08
-3.06721e-13
5.0028e-08
-4.27565e-13
5.00286e-08
-4.42475e-13
5.00293e-08
-3.3843e-13
5.00299e-08
-2.559e-13
5.00306e-08
-2.86242e-13
5.00313e-08
-3.29814e-13
5.00318e-08
-2.24164e-13
5.00323e-08
-2.09868e-13
5.00328e-08
-2.15337e-13
5.00333e-08
-2.2099e-13
5.00338e-08
-2.41458e-13
5.00341e-08
-1.43745e-13
5.00345e-08
-1.09189e-13
5.00349e-08
-1.03056e-13
5.00353e-08
-9.90645e-14
5.00356e-08
-6.88335e-14
5.00359e-08
-2.84142e-14
5.00361e-08
3.08807e-14
5.00362e-08
7.44512e-14
5.00362e-08
7.44442e-14
5.00361e-08
8.93027e-14
5.0036e-08
9.62228e-14
5.00359e-08
1.20347e-13
5.00359e-08
1.48565e-13
5.00357e-08
2.41469e-13
5.00355e-08
3.18201e-13
5.00353e-08
3.99722e-13
5.00351e-08
4.42739e-13
5.00348e-08
5.68204e-13
5.00344e-08
7.14504e-13
5.00339e-08
8.57128e-13
5.00333e-08
1.01047e-12
5.00326e-08
1.19342e-12
5.00317e-08
1.40296e-12
5.00305e-08
1.64221e-12
5.00291e-08
1.9156e-12
5.00274e-08
2.23324e-12
5.00255e-08
2.6098e-12
5.00233e-08
3.06091e-12
5.00208e-08
3.60812e-12
5.00178e-08
4.24377e-12
5.00143e-08
5.02272e-12
5.00102e-08
5.96927e-12
5.00053e-08
7.12999e-12
4.99995e-08
8.56631e-12
4.99924e-08
1.03677e-11
4.99839e-08
1.26414e-11
4.99735e-08
1.54985e-11
4.99608e-08
1.91393e-11
4.99452e-08
2.38082e-11
4.99259e-08
2.98245e-11
4.9902e-08
3.75992e-11
4.98723e-08
4.76112e-11
4.98353e-08
6.04373e-11
4.97897e-08
7.67107e-11
4.97337e-08
9.70229e-11
4.96656e-08
1.21797e-10
4.95844e-08
1.51059e-10
4.94899e-08
1.84164e-10
4.93848e-08
2.18004e-10
4.92771e-08
2.43225e-10
2.43142e-10
6.60014e-08
6.35162e-10
6.67039e-08
2.67536e-09
6.72774e-08
4.18352e-09
6.75141e-08
4.7133e-09
6.75811e-08
4.41412e-09
6.76384e-08
3.49098e-09
6.77281e-08
2.20846e-09
6.78577e-08
8.82252e-10
6.79987e-08
-2.36182e-10
6.81518e-08
-1.01091e-09
6.83204e-08
-1.41884e-09
6.85095e-08
-1.51067e-09
6.87004e-08
-1.39136e-09
6.88279e-08
-1.19205e-09
6.88036e-08
-1.01276e-09
6.85627e-08
-8.67294e-10
6.80803e-08
-6.78231e-10
6.73524e-08
-3.1658e-10
6.63757e-08
3.26948e-10
6.52612e-08
1.21703e-09
6.39833e-08
2.23737e-09
6.25461e-08
3.02249e-09
6.10046e-08
3.15165e-09
5.92197e-08
2.83855e-09
5.82277e-08
3.56834e-09
6.01903e-08
7.88152e-09
6.06154e-08
7.24846e-09
6.24613e-08
4.92057e-09
6.32037e-08
2.80255e-09
6.25923e-08
1.74164e-09
6.22971e-08
8.01877e-10
6.24367e-08
-2.63082e-10
6.28212e-08
-1.04833e-09
6.32274e-08
-1.39831e-09
6.36227e-08
-1.40013e-09
6.39762e-08
-1.24549e-09
6.42813e-08
-1.05404e-09
6.45396e-08
-8.75381e-10
6.4758e-08
-7.22512e-10
6.49441e-08
-5.9597e-10
6.51034e-08
-4.93311e-10
6.52396e-08
-4.109e-10
6.53563e-08
-3.44123e-10
6.54566e-08
-2.89808e-10
6.55432e-08
-2.45505e-10
6.56182e-08
-2.09294e-10
6.56833e-08
-1.79595e-10
6.57403e-08
-1.5502e-10
6.57903e-08
-1.3451e-10
6.58341e-08
-1.17038e-10
6.58727e-08
-1.02169e-10
6.59067e-08
-8.95874e-11
6.5937e-08
-7.89075e-11
6.59641e-08
-6.98563e-11
6.59885e-08
-6.19465e-11
6.60104e-08
-5.50311e-11
6.60301e-08
-4.88871e-11
6.60473e-08
-4.31709e-11
6.60626e-08
-3.81371e-11
6.60761e-08
-3.37059e-11
6.60882e-08
-2.98487e-11
6.6099e-08
-2.65285e-11
6.61089e-08
-2.3712e-11
6.61178e-08
-2.11127e-11
6.6126e-08
-1.87409e-11
6.61335e-08
-1.65768e-11
6.61403e-08
-1.46525e-11
6.61461e-08
-1.29741e-11
6.6151e-08
-1.16398e-11
6.61552e-08
-1.03906e-11
6.61588e-08
-9.25905e-12
6.61622e-08
-8.34176e-12
6.61655e-08
-7.2749e-12
6.61687e-08
-6.31359e-12
6.61715e-08
-5.47926e-12
6.61737e-08
-4.73963e-12
6.61753e-08
-4.07218e-12
6.61764e-08
-3.48152e-12
6.61774e-08
-2.96869e-12
6.61784e-08
-2.56548e-12
6.61799e-08
-2.25148e-12
6.61816e-08
-1.94992e-12
6.61834e-08
-1.78139e-12
6.61849e-08
-1.5973e-12
6.61858e-08
-1.44964e-12
6.6186e-08
-1.31539e-12
6.61857e-08
-1.15396e-12
6.61851e-08
-9.68513e-13
6.61846e-08
-7.69478e-13
6.61843e-08
-5.37471e-13
6.61847e-08
-3.71951e-13
6.61856e-08
-2.60736e-13
6.61868e-08
-1.90675e-13
6.61878e-08
-1.59522e-13
6.61884e-08
-1.84592e-13
6.61886e-08
-2.76467e-13
6.61882e-08
-3.3775e-13
6.61875e-08
-3.92627e-13
6.61867e-08
-4.19783e-13
6.61862e-08
-3.87124e-13
6.6186e-08
-3.06203e-13
6.61862e-08
-2.12716e-13
6.61866e-08
-1.29718e-13
6.61872e-08
-6.24367e-14
6.61878e-08
-5.00421e-15
6.61882e-08
4.18498e-14
6.61884e-08
-3.07223e-14
6.61883e-08
1.01637e-14
6.61879e-08
-1.09392e-14
6.61875e-08
-5.87387e-14
6.61872e-08
-8.76033e-14
6.61871e-08
-8.57535e-14
6.61872e-08
-7.58506e-14
6.61874e-08
-1.5849e-14
6.61878e-08
-2.4237e-14
6.61884e-08
-1.23278e-14
6.61888e-08
5.13195e-14
6.61891e-08
9.00418e-14
6.61892e-08
1.11595e-13
6.61891e-08
1.26016e-13
6.61888e-08
1.48882e-13
6.61885e-08
9.21096e-14
6.61882e-08
6.48726e-14
6.6188e-08
3.15239e-14
6.61878e-08
-1.05469e-14
6.61879e-08
-8.65485e-14
6.61883e-08
-1.54853e-13
6.61888e-08
-1.49618e-13
6.61896e-08
-1.35794e-13
6.61903e-08
-1.12254e-13
6.61909e-08
-1.195e-13
6.61914e-08
-1.41971e-13
6.61916e-08
-1.63956e-13
6.61915e-08
-1.53225e-13
6.61911e-08
-1.64943e-13
6.61907e-08
-1.81787e-13
6.61902e-08
-1.60797e-13
6.61897e-08
-1.31338e-13
6.61894e-08
-1.30929e-13
6.61892e-08
-1.39984e-13
6.61891e-08
-1.37124e-13
6.61892e-08
-1.31716e-13
6.61893e-08
-1.19448e-13
6.61896e-08
-5.72297e-14
6.619e-08
-1.02646e-14
6.61904e-08
4.12484e-14
6.61908e-08
8.92641e-14
6.6191e-08
1.15725e-13
6.61912e-08
1.37728e-13
6.61912e-08
1.51702e-13
6.61909e-08
1.81462e-13
6.61904e-08
1.68612e-13
6.61898e-08
1.4739e-13
6.61892e-08
1.24581e-13
6.61885e-08
9.70769e-14
6.6188e-08
1.02448e-13
6.61876e-08
1.16321e-13
6.61873e-08
1.25138e-13
6.61872e-08
1.22753e-13
6.61874e-08
1.2853e-13
6.61876e-08
1.44202e-13
6.6188e-08
1.61058e-13
6.61884e-08
1.70942e-13
6.61889e-08
1.75988e-13
6.61894e-08
1.81596e-13
6.61899e-08
1.87213e-13
6.61903e-08
2.04162e-13
6.61907e-08
2.27416e-13
6.6191e-08
2.36215e-13
6.61912e-08
2.39393e-13
6.61913e-08
2.37269e-13
6.61912e-08
2.33697e-13
6.6191e-08
2.06338e-13
6.61907e-08
1.84125e-13
6.61904e-08
1.59338e-13
6.61901e-08
1.32577e-13
6.61898e-08
1.29911e-13
6.61894e-08
1.25533e-13
6.61891e-08
1.01011e-13
6.61887e-08
9.26468e-14
6.61884e-08
7.68592e-14
6.6188e-08
4.51433e-14
6.61877e-08
7.04943e-15
6.61875e-08
-5.67462e-14
6.61873e-08
-6.82948e-14
6.61873e-08
-1.10648e-13
6.61874e-08
-1.20022e-13
6.61878e-08
-1.23506e-13
6.61882e-08
-1.74888e-13
6.61887e-08
-8.12929e-14
6.61893e-08
-8.56522e-14
6.61901e-08
-1.15245e-13
6.61907e-08
-5.3217e-14
6.61912e-08
4.9796e-14
6.61917e-08
2.96404e-14
6.61922e-08
-1.23825e-14
6.61926e-08
-3.351e-14
6.6193e-08
1.19272e-14
6.61933e-08
8.28712e-14
6.61937e-08
8.19548e-14
6.61941e-08
1.05697e-13
6.61945e-08
1.20162e-13
6.61949e-08
1.3041e-13
6.61952e-08
1.7632e-13
6.61955e-08
2.36592e-13
6.61956e-08
2.67054e-13
6.61957e-08
3.0347e-13
6.61957e-08
3.56062e-13
6.61956e-08
4.00653e-13
6.61954e-08
4.50806e-13
6.61953e-08
5.15379e-13
6.61951e-08
5.95855e-13
6.61949e-08
6.94662e-13
6.61947e-08
8.14719e-13
6.61945e-08
9.45798e-13
6.61941e-08
1.12396e-12
6.61937e-08
1.27822e-12
6.61932e-08
1.48254e-12
6.61927e-08
1.71208e-12
6.61919e-08
1.97624e-12
6.6191e-08
2.28355e-12
6.61899e-08
2.64259e-12
6.61884e-08
3.05849e-12
6.61867e-08
3.54224e-12
6.61848e-08
4.10959e-12
6.61825e-08
4.78057e-12
6.618e-08
5.57825e-12
6.61771e-08
6.51511e-12
6.61736e-08
7.65332e-12
6.61696e-08
9.0106e-12
6.61649e-08
1.06409e-11
6.61594e-08
1.26175e-11
6.61529e-08
1.503e-11
6.61452e-08
1.79881e-11
6.61361e-08
2.16343e-11
6.61254e-08
2.61522e-11
6.61127e-08
3.17806e-11
6.60976e-08
3.88089e-11
6.60798e-08
4.76066e-11
6.60588e-08
5.85955e-11
6.60341e-08
7.22581e-11
6.60054e-08
8.91133e-11
6.59725e-08
1.09649e-10
6.59354e-08
1.34191e-10
6.58945e-08
1.6268e-10
6.58511e-08
1.94543e-10
6.58072e-08
2.2828e-10
6.57652e-08
2.60027e-10
6.57272e-08
2.81352e-10
2.80663e-10
6.76889e-08
5.61972e-10
6.80616e-08
2.35681e-09
6.86233e-08
3.71952e-09
6.92335e-08
4.22883e-09
6.98305e-08
3.93462e-09
7.03694e-08
3.02159e-09
7.0794e-08
1.78085e-09
7.10739e-08
5.38572e-10
7.12091e-08
-4.58603e-10
7.12567e-08
-1.10343e-09
7.12779e-08
-1.41192e-09
7.12783e-08
-1.45895e-09
7.12119e-08
-1.32435e-09
7.10441e-08
-1.07445e-09
7.07902e-08
-7.60105e-10
7.04676e-08
-4.09046e-10
7.00373e-08
-2.00303e-11
6.94086e-08
4.85438e-10
6.86107e-08
1.16147e-09
6.7765e-08
2.03228e-09
6.70491e-08
2.97354e-09
6.63276e-08
3.69168e-09
6.55793e-08
3.80879e-09
6.50003e-08
3.33276e-09
6.50178e-08
3.42371e-09
6.7458e-08
5.41287e-09
6.99672e-08
4.71583e-09
7.173e-08
3.14747e-09
7.26689e-08
1.87827e-09
7.35173e-08
8.88569e-10
7.41457e-08
1.67703e-10
7.42904e-08
-4.05822e-10
7.41722e-08
-9.27744e-10
7.40276e-08
-1.2544e-09
7.39375e-08
-1.31223e-09
7.39017e-08
-1.20934e-09
7.39125e-08
-1.062e-09
7.39506e-08
-9.12519e-10
7.40033e-08
-7.77265e-10
7.40642e-08
-6.5947e-10
7.41295e-08
-5.59251e-10
7.4195e-08
-4.75319e-10
7.42579e-08
-4.05568e-10
7.43163e-08
-3.47667e-10
7.43698e-08
-2.99377e-10
7.44185e-08
-2.58839e-10
7.44631e-08
-2.24604e-10
7.45041e-08
-1.95665e-10
7.45412e-08
-1.7116e-10
7.45743e-08
-1.50333e-10
7.46036e-08
-1.32456e-10
7.46297e-08
-1.1697e-10
7.46535e-08
-1.03446e-10
7.46756e-08
-9.15629e-11
7.46961e-08
-8.10766e-11
7.4715e-08
-7.2023e-11
7.47317e-08
-6.4174e-11
7.47464e-08
-5.74311e-11
7.47591e-08
-5.15645e-11
7.47702e-08
-4.63605e-11
7.47802e-08
-4.16053e-11
7.47894e-08
-3.71777e-11
7.4798e-08
-3.30764e-11
7.4806e-08
-2.9243e-11
7.48134e-08
-2.57651e-11
7.482e-08
-2.27013e-11
7.48258e-08
-2.00308e-11
7.48309e-08
-1.77768e-11
7.48354e-08
-1.58766e-11
7.48395e-08
-1.42088e-11
7.48431e-08
-1.26041e-11
7.48464e-08
-1.10431e-11
7.48497e-08
-9.68943e-12
7.48529e-08
-8.43486e-12
7.48557e-08
-7.3293e-12
7.48579e-08
-6.47176e-12
7.48595e-08
-5.67126e-12
7.48605e-08
-5.04668e-12
7.48613e-08
-4.55968e-12
7.48623e-08
-4.08115e-12
7.48636e-08
-3.60035e-12
7.48653e-08
-3.2174e-12
7.48669e-08
-2.82382e-12
7.48684e-08
-2.50411e-12
7.48693e-08
-2.22762e-12
7.48697e-08
-1.99686e-12
7.48696e-08
-1.7632e-12
7.48692e-08
-1.50342e-12
7.48689e-08
-1.22477e-12
7.4869e-08
-9.32888e-13
7.48695e-08
-6.74674e-13
7.48702e-08
-4.92187e-13
7.48711e-08
-3.96004e-13
7.48719e-08
-3.83708e-13
7.48724e-08
-4.3076e-13
7.48724e-08
-5.12892e-13
7.48722e-08
-5.88224e-13
7.48717e-08
-6.3283e-13
7.48713e-08
-6.26747e-13
7.4871e-08
-5.62909e-13
7.48709e-08
-4.63773e-13
7.48712e-08
-3.56592e-13
7.48716e-08
-2.68724e-13
7.48721e-08
-2.15473e-13
7.48726e-08
-2.06176e-13
7.48728e-08
-2.48264e-13
7.48728e-08
-2.74853e-13
7.48726e-08
-4.27789e-13
7.48723e-08
-5.40218e-13
7.48719e-08
-6.29347e-13
7.48716e-08
-6.30416e-13
7.48715e-08
-7.18247e-13
7.48716e-08
-7.10405e-13
7.4872e-08
-7.12954e-13
7.48724e-08
-5.65007e-13
7.48728e-08
-4.45428e-13
7.48731e-08
-3.47261e-13
7.48732e-08
-2.58239e-13
7.48732e-08
-1.77222e-13
7.48729e-08
-1.02822e-13
7.48725e-08
-8.6201e-14
7.48721e-08
-1.21244e-13
7.48717e-08
-1.3637e-13
7.48715e-08
-1.29502e-13
7.48715e-08
-1.38342e-13
7.48717e-08
-1.61597e-13
7.48722e-08
-1.63971e-13
7.48728e-08
-1.43846e-13
7.48736e-08
-1.02545e-13
7.48744e-08
-6.97918e-14
7.4875e-08
-5.33369e-14
7.48754e-08
-4.50469e-14
7.48755e-08
-2.61713e-14
7.48753e-08
-2.19367e-14
7.4875e-08
-2.98263e-14
7.48745e-08
-3.67756e-14
7.4874e-08
-2.75349e-14
7.48736e-08
-1.51217e-14
7.48733e-08
-1.31535e-14
7.48731e-08
-1.59975e-14
7.48731e-08
-2.26234e-14
7.48732e-08
-3.10357e-14
7.48735e-08
-2.29459e-14
7.48738e-08
6.45548e-15
7.48743e-08
4.28274e-14
7.48748e-08
7.20686e-14
7.48752e-08
9.73159e-14
7.48754e-08
1.11737e-13
7.48755e-08
1.12336e-13
7.48753e-08
1.04797e-13
7.4875e-08
9.04617e-14
7.48744e-08
5.45674e-14
7.48738e-08
7.65341e-15
7.48731e-08
-2.49365e-14
7.48724e-08
-3.44547e-14
7.48719e-08
-5.32066e-14
7.48715e-08
-6.26137e-14
7.48713e-08
-6.32061e-14
7.48713e-08
-5.66837e-14
7.48714e-08
-4.835e-14
7.48717e-08
-3.95278e-14
7.48721e-08
-3.13531e-14
7.48725e-08
-2.51212e-14
7.4873e-08
-1.99025e-14
7.48736e-08
-1.43598e-14
7.48741e-08
-6.23367e-15
7.48746e-08
5.33847e-15
7.4875e-08
2.52698e-14
7.48753e-08
4.01602e-14
7.48755e-08
4.73113e-14
7.48755e-08
4.77637e-14
7.48755e-08
4.08145e-14
7.48753e-08
2.85857e-14
7.4875e-08
1.33587e-14
7.48747e-08
-9.11874e-16
7.48744e-08
-7.37196e-15
7.4874e-08
-1.0075e-14
7.48737e-08
-2.3127e-14
7.48733e-08
-5.09486e-14
7.4873e-08
-6.78103e-14
7.48727e-08
-9.50958e-14
7.48723e-08
-1.02993e-13
7.4872e-08
-1.35714e-13
7.48717e-08
-1.31214e-13
7.48716e-08
-2.1798e-13
7.48716e-08
-1.79233e-13
7.48717e-08
-1.71507e-13
7.4872e-08
-1.89092e-13
7.48724e-08
-1.44334e-13
7.4873e-08
-1.5816e-13
7.48736e-08
-1.69455e-13
7.48742e-08
-9.64478e-14
7.48748e-08
-4.25035e-14
7.48754e-08
-6.14417e-14
7.48759e-08
-3.46326e-14
7.48763e-08
-5.33464e-14
7.48767e-08
-5.43408e-14
7.48771e-08
-1.8652e-14
7.48775e-08
-6.88696e-15
7.4878e-08
6.87376e-14
7.48784e-08
6.16874e-14
7.48789e-08
1.11537e-13
7.48792e-08
1.65424e-13
7.48795e-08
2.16129e-13
7.48798e-08
2.66747e-13
7.48799e-08
3.23153e-13
7.48799e-08
3.83135e-13
7.48799e-08
4.46344e-13
7.48798e-08
5.16876e-13
7.48796e-08
6.07319e-13
7.48795e-08
7.07266e-13
7.48793e-08
8.22974e-13
7.48792e-08
9.62771e-13
7.4879e-08
1.1245e-12
7.48787e-08
1.31841e-12
7.48785e-08
1.53687e-12
7.48781e-08
1.77419e-12
7.48777e-08
2.08231e-12
7.48771e-08
2.41121e-12
7.48765e-08
2.78996e-12
7.48756e-08
3.22519e-12
7.48745e-08
3.72818e-12
7.48731e-08
4.31099e-12
7.48715e-08
4.99065e-12
7.48697e-08
5.78858e-12
7.48677e-08
6.72868e-12
7.48654e-08
7.83558e-12
7.48628e-08
9.14805e-12
7.48597e-08
1.06783e-11
7.48562e-08
1.2489e-11
7.48522e-08
1.46467e-11
7.48476e-08
1.7226e-11
7.48423e-08
2.03206e-11
7.48362e-08
2.4043e-11
7.48293e-08
2.85353e-11
7.48214e-08
3.39762e-11
7.48125e-08
4.06002e-11
7.48027e-08
4.86542e-11
7.47919e-08
5.84401e-11
7.47802e-08
7.02839e-11
7.47679e-08
8.45486e-11
7.47555e-08
1.01555e-10
7.47437e-08
1.21539e-10
7.47334e-08
1.44531e-10
7.4726e-08
1.70185e-10
7.4723e-08
1.97681e-10
7.47259e-08
2.25472e-10
7.47356e-08
2.50405e-10
7.47506e-08
2.6653e-10
2.66701e-10
6.94121e-08
4.94476e-10
6.9594e-08
2.0957e-09
6.99053e-08
3.32028e-09
7.03117e-08
3.77708e-09
7.07794e-08
3.49238e-09
7.12712e-08
2.61892e-09
7.17331e-08
1.42167e-09
7.212e-08
2.13188e-10
7.23978e-08
-7.54101e-10
7.25874e-08
-1.35506e-09
7.27412e-08
-1.59533e-09
7.28794e-08
-1.56575e-09
7.29662e-08
-1.37455e-09
7.29525e-08
-1.09421e-09
7.28314e-08
-7.47232e-10
7.26298e-08
-3.29089e-10
7.23559e-08
1.69199e-10
7.20409e-08
7.46276e-10
7.17224e-08
1.42413e-09
7.14661e-08
2.19756e-09
7.14704e-08
2.97916e-09
7.16029e-08
3.52982e-09
7.17526e-08
3.58383e-09
7.19965e-08
3.06615e-09
7.28685e-08
2.79047e-09
7.50069e-08
3.26609e-09
7.71429e-08
2.56271e-09
7.85901e-08
1.70402e-09
7.94823e-08
9.69529e-10
7.99861e-08
3.88303e-10
8.02071e-08
-4.93298e-11
8.02248e-08
-4.24342e-10
8.00511e-08
-7.53891e-10
7.97568e-08
-9.595e-10
7.9466e-08
-1.0216e-09
7.92372e-08
-9.81147e-10
7.90719e-08
-8.9679e-10
7.89617e-08
-8.01425e-10
7.88933e-08
-7.07879e-10
7.88549e-08
-6.21115e-10
7.88377e-08
-5.43022e-10
7.88349e-08
-4.73998e-10
7.88422e-08
-4.13797e-10
7.88561e-08
-3.61723e-10
7.88739e-08
-3.16807e-10
7.88937e-08
-2.77966e-10
7.89141e-08
-2.44251e-10
7.89345e-08
-2.14999e-10
7.89543e-08
-1.89737e-10
7.8973e-08
-1.68022e-10
7.89903e-08
-1.49218e-10
7.90063e-08
-1.32921e-10
7.90213e-08
-1.18492e-10
7.90354e-08
-1.05608e-10
7.90487e-08
-9.399e-11
7.90608e-08
-8.38581e-11
7.90718e-08
-7.49614e-11
7.90815e-08
-6.72167e-11
7.90902e-08
-6.03679e-11
7.90983e-08
-5.43199e-11
7.91059e-08
-4.87922e-11
7.9113e-08
-4.37287e-11
7.91197e-08
-3.91321e-11
7.91257e-08
-3.49927e-11
7.91309e-08
-3.13287e-11
7.91353e-08
-2.81018e-11
7.91393e-08
-2.52157e-11
7.9143e-08
-2.25667e-11
7.91463e-08
-2.00355e-11
7.91495e-08
-1.77889e-11
7.91527e-08
-1.56742e-11
7.91557e-08
-1.37581e-11
7.91585e-08
-1.20867e-11
7.9161e-08
-1.06316e-11
7.9163e-08
-9.36676e-12
7.91646e-08
-8.28136e-12
7.91658e-08
-7.43083e-12
7.91668e-08
-6.66349e-12
7.91676e-08
-5.91944e-12
7.91685e-08
-5.3015e-12
7.91699e-08
-4.77002e-12
7.91713e-08
-4.16719e-12
7.91728e-08
-3.65303e-12
7.91741e-08
-3.19808e-12
7.91751e-08
-2.81864e-12
7.91756e-08
-2.49692e-12
7.91757e-08
-2.20846e-12
7.91755e-08
-1.93726e-12
7.91753e-08
-1.67016e-12
7.91752e-08
-1.43957e-12
7.91754e-08
-1.2244e-12
7.91758e-08
-1.05959e-12
7.91764e-08
-9.58314e-13
7.91769e-08
-9.06754e-13
7.91772e-08
-8.86111e-13
7.91773e-08
-8.60297e-13
7.91772e-08
-8.30095e-13
7.91769e-08
-7.71108e-13
7.91767e-08
-6.77258e-13
7.91766e-08
-5.48237e-13
7.91767e-08
-4.09531e-13
7.91769e-08
-2.83001e-13
7.91773e-08
-1.83687e-13
7.91776e-08
-1.23404e-13
7.91778e-08
-9.74741e-14
7.91779e-08
-1.15766e-13
7.91779e-08
-1.61217e-13
7.91776e-08
-2.47373e-13
7.91773e-08
-2.82738e-13
7.91771e-08
-3.07882e-13
7.9177e-08
-3.40805e-13
7.91771e-08
-3.50099e-13
7.91774e-08
-3.13024e-13
7.91777e-08
-2.25536e-13
7.91781e-08
-1.81137e-13
7.91785e-08
-1.33402e-13
7.91788e-08
-7.30043e-14
7.91788e-08
-5.44368e-14
7.91786e-08
-4.3943e-14
7.91783e-08
-6.07084e-14
7.91779e-08
-1.08087e-13
7.91774e-08
-1.51024e-13
7.9177e-08
-1.83561e-13
7.91768e-08
-2.18409e-13
7.91768e-08
-2.41602e-13
7.9177e-08
-2.4887e-13
7.91775e-08
-2.41355e-13
7.91782e-08
-2.21018e-13
7.91789e-08
-1.90974e-13
7.91797e-08
-1.70888e-13
7.91802e-08
-1.61159e-13
7.91806e-08
-1.59631e-13
7.91807e-08
-1.48401e-13
7.91805e-08
-1.50209e-13
7.91802e-08
-1.53049e-13
7.91798e-08
-1.53122e-13
7.91793e-08
-1.48791e-13
7.91789e-08
-1.43566e-13
7.91786e-08
-1.3477e-13
7.91784e-08
-1.24131e-13
7.91783e-08
-1.05717e-13
7.91784e-08
-7.60776e-14
7.91787e-08
-3.67818e-14
7.91791e-08
-2.09451e-15
7.91795e-08
4.27813e-14
7.918e-08
8.87809e-14
7.91804e-08
1.27032e-13
7.91806e-08
1.55107e-13
7.91806e-08
1.67903e-13
7.91805e-08
1.65045e-13
7.91801e-08
1.47347e-13
7.91795e-08
1.25187e-13
7.91788e-08
9.61281e-14
7.91782e-08
8.15088e-14
7.91776e-08
7.47274e-14
7.91771e-08
7.21634e-14
7.91767e-08
7.40641e-14
7.91766e-08
7.9386e-14
7.91765e-08
8.41846e-14
7.91767e-08
8.82482e-14
7.9177e-08
9.0462e-14
7.91773e-08
9.12147e-14
7.91778e-08
9.13923e-14
7.91783e-08
9.22272e-14
7.91788e-08
9.53119e-14
7.91794e-08
1.00854e-13
7.91798e-08
1.07005e-13
7.91802e-08
1.11123e-13
7.91805e-08
1.13041e-13
7.91807e-08
1.11372e-13
7.91807e-08
1.06071e-13
7.91806e-08
9.73219e-14
7.91805e-08
8.68091e-14
7.91802e-08
7.65112e-14
7.91799e-08
6.94852e-14
7.91796e-08
6.2059e-14
7.91793e-08
5.55786e-14
7.91789e-08
3.85805e-14
7.91785e-08
1.72676e-14
7.91782e-08
7.56209e-16
7.91778e-08
-9.18559e-15
7.91774e-08
-4.03172e-14
7.91771e-08
-4.46717e-14
7.91769e-08
-8.37016e-14
7.91767e-08
-3.96511e-14
7.91768e-08
-8.1478e-14
7.9177e-08
-8.86375e-14
7.91773e-08
-6.73018e-14
7.91778e-08
-5.22684e-14
7.91784e-08
-1.90436e-14
7.91789e-08
4.68216e-14
7.91795e-08
8.16819e-14
7.91801e-08
2.11236e-14
7.91807e-08
1.82015e-14
7.91812e-08