/*--------------------------------*- C++ -*----------------------------------*\
| =========                 |                                                 |
| \\      /  F ield         | OpenFOAM: The Open Source CFD Toolbox           |
|  \\    /   O peration     | Version:  2406                                  |
|   \\  /    A nd           | Website:  www.openfoam.com                      |
|    \\/     M anipulation  |                                                 |
\*---------------------------------------------------------------------------*/
FoamFile
{
    version     2.0;
    format      ascii;
    arch        "LSB;label=32;scalar=64";
    class       volVectorField;
    location    "0.05";
    object      U;
}
// * * * * * * * * * * * * * * * * * * * * * * * * * * * * * * * * * * * * * //

dimensions      [0 1 -1 0 0 0 0];

internalField   nonuniform List<vector> 
6250
(
(0.0645483 0.00265586 0)
(0.0738011 0.0059891 0)
(0.0591855 0.00515641 0)
(0.0514149 0.0038626 0)
(0.0482389 0.00288169 0)
(0.0455777 0.00196994 0)
(0.0432648 0.00105456 0)
(0.0419874 0.00028392 0)
(0.0416902 -0.000240472 0)
(0.0420629 -0.000513735 0)
(0.0428067 -0.000594566 0)
(0.0436723 -0.000578933 0)
(0.0445007 -0.000570052 0)
(0.0452403 -0.000648397 0)
(0.0459357 -0.000851743 0)
(0.0466948 -0.00116438 0)
(0.0476188 -0.00151857 0)
(0.0487123 -0.00182538 0)
(0.0498388 -0.00203883 0)
(0.0507736 -0.00220138 0)
(0.0513912 -0.00244578 0)
(0.0519934 -0.00288681 0)
(0.052952 -0.00345783 0)
(0.0554528 -0.00365563 0)
(0.0636021 -0.00184216 0)
(0.0591758 0.0200495 0)
(0.0319432 0.0387148 0)
(0.0294396 0.0186179 0)
(0.0271044 0.0082745 0)
(0.0258816 0.00256788 0)
(0.0247697 0.000885407 0)
(0.0241214 0.000213283 0)
(0.0240974 -5.37975e-05 0)
(0.0244413 -0.000194472 0)
(0.0249043 -0.000243491 0)
(0.0253588 -0.000246484 0)
(0.02575 -0.000218816 0)
(0.0260827 -0.000187766 0)
(0.0263579 -0.000156737 0)
(0.0265831 -0.000128794 0)
(0.0267651 -0.000104606 0)
(0.0269124 -8.3996e-05 0)
(0.0270332 -6.78275e-05 0)
(0.0271338 -5.56694e-05 0)
(0.0272179 -4.63531e-05 0)
(0.027288 -3.89618e-05 0)
(0.0273463 -3.28865e-05 0)
(0.0273953 -2.79239e-05 0)
(0.0274374 -2.37264e-05 0)
(0.0274739 -2.0352e-05 0)
(0.0275059 -1.75009e-05 0)
(0.0275336 -1.51008e-05 0)
(0.0275577 -1.30519e-05 0)
(0.0275791 -1.13544e-05 0)
(0.0275982 -9.72079e-06 0)
(0.0276149 -8.57918e-06 0)
(0.0276295 -8.05288e-06 0)
(0.0276418 -7.6909e-06 0)
(0.0276523 -7.27935e-06 0)
(0.0276615 -6.47743e-06 0)
(0.0276701 -5.49065e-06 0)
(0.0276783 -4.30062e-06 0)
(0.0276856 -3.19819e-06 0)
(0.0276919 -2.39411e-06 0)
(0.0276971 -1.76354e-06 0)
(0.0277013 -1.46374e-06 0)
(0.0277051 -1.25519e-06 0)
(0.0277087 -9.81857e-07 0)
(0.0277123 -7.01723e-07 0)
(0.0277156 -4.05943e-07 0)
(0.0277182 -2.00939e-07 0)
(0.0277203 -1.54977e-07 0)
(0.0277219 -6.36239e-08 0)
(0.0277231 3.44981e-08 0)
(0.0277242 1.4401e-07 0)
(0.0277253 2.21031e-07 0)
(0.0277261 3.52017e-07 0)
(0.0277267 4.19347e-07 0)
(0.027727 4.06342e-07 0)
(0.0277273 3.70301e-07 0)
(0.0277277 3.22973e-07 0)
(0.0277284 3.06482e-07 0)
(0.0277296 3.17114e-07 0)
(0.0277308 3.98601e-07 0)
(0.027732 4.87167e-07 0)
(0.0277326 5.07719e-07 0)
(0.0277326 4.19228e-07 0)
(0.027732 2.91391e-07 0)
(0.0277309 1.54432e-07 0)
(0.0277299 -1.59728e-08 0)
(0.0277292 -1.97672e-07 0)
(0.027729 -2.72719e-07 0)
(0.0277295 -2.23488e-07 0)
(0.0277303 -1.45233e-07 0)
(0.0277311 -4.02325e-08 0)
(0.0277316 -5.33334e-09 0)
(0.0277316 -1.01489e-07 0)
(0.0277311 -1.2853e-07 0)
(0.0277301 -1.81974e-07 0)
(0.027729 -2.8106e-07 0)
(0.027728 -3.57052e-07 0)
(0.0277274 -3.62855e-07 0)
(0.0277273 -2.9801e-07 0)
(0.0277276 -2.24902e-07 0)
(0.0277282 -1.38931e-07 0)
(0.0277289 -1.0236e-09 0)
(0.0277295 1.25448e-07 0)
(0.0277298 2.65269e-07 0)
(0.0277299 3.56421e-07 0)
(0.0277297 4.2022e-07 0)
(0.0277293 4.58151e-07 0)
(0.0277289 4.87229e-07 0)
(0.0277287 5.17472e-07 0)
(0.0277287 5.51819e-07 0)
(0.0277289 6.81874e-07 0)
(0.0277293 7.79141e-07 0)
(0.0277298 8.7954e-07 0)
(0.0277303 9.37371e-07 0)
(0.0277307 9.80408e-07 0)
(0.027731 9.98353e-07 0)
(0.027731 1.03457e-06 0)
(0.0277308 1.02423e-06 0)
(0.0277305 9.05361e-07 0)
(0.0277302 7.02907e-07 0)
(0.0277299 6.00862e-07 0)
(0.0277298 4.36993e-07 0)
(0.0277298 4.49313e-07 0)
(0.0277299 2.99783e-07 0)
(0.0277304 1.91686e-07 0)
(0.027731 1.24963e-07 0)
(0.0277316 9.09788e-08 0)
(0.0277322 6.07183e-08 0)
(0.0277327 4.16376e-08 0)
(0.0277329 8.53052e-08 0)
(0.0277328 6.96322e-08 0)
(0.0277325 8.55895e-09 0)
(0.0277321 -7.61699e-08 0)
(0.0277316 -1.65727e-07 0)
(0.0277312 -2.36832e-07 0)
(0.0277309 -2.89057e-07 0)
(0.0277306 -3.21783e-07 0)
(0.0277306 -3.45495e-07 0)
(0.0277306 -3.5691e-07 0)
(0.0277308 -3.99653e-07 0)
(0.0277311 -4.10302e-07 0)
(0.0277314 -3.92608e-07 0)
(0.0277317 -3.22185e-07 0)
(0.027732 -2.23676e-07 0)
(0.0277323 -1.23626e-07 0)
(0.0277323 -3.41234e-08 0)
(0.0277323 2.85175e-08 0)
(0.0277321 6.8795e-08 0)
(0.0277317 9.97435e-08 0)
(0.0277313 1.19358e-07 0)
(0.0277308 1.30903e-07 0)
(0.0277303 1.35775e-07 0)
(0.0277299 1.11037e-07 0)
(0.0277297 9.675e-08 0)
(0.0277296 1.118e-07 0)
(0.0277296 1.34081e-07 0)
(0.0277298 1.64728e-07 0)
(0.0277301 1.90178e-07 0)
(0.0277304 2.14277e-07 0)
(0.0277308 2.43691e-07 0)
(0.0277312 2.8071e-07 0)
(0.0277316 3.22521e-07 0)
(0.027732 3.42119e-07 0)
(0.0277322 3.61775e-07 0)
(0.0277325 3.92278e-07 0)
(0.0277326 4.27448e-07 0)
(0.0277326 4.48575e-07 0)
(0.0277325 4.46196e-07 0)
(0.0277323 4.66858e-07 0)
(0.027732 5.118e-07 0)
(0.0277317 5.20214e-07 0)
(0.0277313 4.7989e-07 0)
(0.0277309 4.54234e-07 0)
(0.0277305 4.71051e-07 0)
(0.0277301 4.98454e-07 0)
(0.0277298 4.7473e-07 0)
(0.0277295 4.31088e-07 0)
(0.0277293 3.86745e-07 0)
(0.0277291 3.38981e-07 0)
(0.0277289 2.57282e-07 0)
(0.0277289 1.97622e-07 0)
(0.0277289 1.74215e-07 0)
(0.027729 7.73878e-08 0)
(0.0277294 -7.45153e-08 0)
(0.0277299 -6.28269e-08 0)
(0.0277305 -7.75036e-08 0)
(0.0277313 -7.21783e-08 0)
(0.027732 -4.43282e-08 0)
(0.0277328 -6.19535e-08 0)
(0.0277337 -1.13015e-07 0)
(0.0277345 -9.41722e-08 0)
(0.0277352 -1.55194e-08 0)
(0.0277358 9.55244e-08 0)
(0.0277363 8.34076e-08 0)
(0.0277368 9.53014e-08 0)
(0.0277372 2.96421e-08 0)
(0.0277376 4.15407e-08 0)
(0.0277381 6e-08 0)
(0.0277385 7.93578e-08 0)
(0.0277389 9.80274e-08 0)
(0.0277393 1.18019e-07 0)
(0.0277396 1.30477e-07 0)
(0.0277398 1.31199e-07 0)
(0.02774 1.30989e-07 0)
(0.0277401 1.1824e-07 0)
(0.0277401 9.64949e-08 0)
(0.0277402 7.37369e-08 0)
(0.0277402 6.05474e-08 0)
(0.0277403 2.49158e-08 0)
(0.0277403 2.36705e-08 0)
(0.0277404 4.482e-08 0)
(0.0277404 7.40934e-08 0)
(0.0277404 9.76995e-08 0)
(0.0277404 1.04364e-07 0)
(0.0277403 1.3364e-07 0)
(0.0277401 1.66472e-07 0)
(0.0277398 2.07663e-07 0)
(0.0277394 2.49654e-07 0)
(0.0277389 2.88292e-07 0)
(0.0277382 3.21351e-07 0)
(0.0277373 3.50562e-07 0)
(0.0277362 3.81253e-07 0)
(0.027735 4.22371e-07 0)
(0.0277336 4.75073e-07 0)
(0.027732 5.47767e-07 0)
(0.0277301 6.53295e-07 0)
(0.027728 7.99515e-07 0)
(0.0277254 9.81475e-07 0)
(0.0277223 1.21983e-06 0)
(0.0277185 1.54434e-06 0)
(0.0277139 2.06215e-06 0)
(0.0277081 2.68367e-06 0)
(0.0277009 3.39993e-06 0)
(0.0276918 4.42482e-06 0)
(0.0276802 5.87689e-06 0)
(0.0276653 7.96768e-06 0)
(0.0276459 1.09358e-05 0)
(0.0276204 1.51734e-05 0)
(0.0275868 2.1103e-05 0)
(0.0275424 2.94181e-05 0)
(0.0274843 4.08616e-05 0)
(0.0274094 5.5981e-05 0)
(0.0273116 7.53432e-05 0)
(0.0271713 0.00010115 0)
(0.0269732 0.000137773 0)
(0.0268771 0.000156799 0)
(0.0764561 0.00343657 0)
(0.0956223 0.0106269 0)
(0.0826639 0.0132656 0)
(0.0764277 0.0128654 0)
(0.0754339 0.0111887 0)
(0.0743861 0.00864094 0)
(0.072897 0.0054745 0)
(0.0720007 0.00228914 0)
(0.0718657 -0.000320496 0)
(0.0722253 -0.00202355 0)
(0.072855 -0.00279223 0)
(0.0736177 -0.002839 0)
(0.0743991 -0.0025316 0)
(0.0750892 -0.00225879 0)
(0.0756128 -0.00227764 0)
(0.0759851 -0.00259982 0)
(0.0762908 -0.00298509 0)
(0.0765582 -0.00306306 0)
(0.0766473 -0.00254539 0)
(0.0762097 -0.00145275 0)
(0.0748708 -0.000241737 0)
(0.0725 0.000233338 0)
(0.069469 -0.000745817 0)
(0.065495 -0.00279089 0)
(0.0591281 0.00038699 0)
(0.0607138 0.0247762 0)
(0.0624375 0.0174302 0)
(0.0585798 0.00572192 0)
(0.0545102 0.00708935 0)
(0.0549111 0.00510442 0)
(0.0553488 0.00271775 0)
(0.0559049 0.000143281 0)
(0.056512 -0.00113443 0)
(0.0571835 -0.00169503 0)
(0.0580133 -0.00174627 0)
(0.0587657 -0.00155989 0)
(0.0594064 -0.00132369 0)
(0.0599191 -0.00109048 0)
(0.0603415 -0.00088896 0)
(0.0606849 -0.000723108 0)
(0.0609642 -0.000589176 0)
(0.061192 -0.000481167 0)
(0.0613804 -0.000394905 0)
(0.0615386 -0.000325919 0)
(0.0616724 -0.000271187 0)
(0.061785 -0.000227498 0)
(0.0618797 -0.000192407 0)
(0.06196 -0.000163751 0)
(0.0620293 -0.000140326 0)
(0.0620899 -0.000120756 0)
(0.0621431 -0.000104735 0)
(0.0621894 -9.13555e-05 0)
(0.0622296 -8.00384e-05 0)
(0.0622647 -7.01462e-05 0)
(0.0622956 -6.15357e-05 0)
(0.0623229 -5.43323e-05 0)
(0.0623468 -4.80587e-05 0)
(0.0623679 -4.29596e-05 0)
(0.062387 -3.83248e-05 0)
(0.0624045 -3.3874e-05 0)
(0.0624204 -2.96401e-05 0)
(0.0624346 -2.5821e-05 0)
(0.0624467 -2.25686e-05 0)
(0.0624569 -2.01128e-05 0)
(0.0624658 -1.7809e-05 0)
(0.0624736 -1.55526e-05 0)
(0.0624808 -1.33294e-05 0)
(0.0624875 -1.12508e-05 0)
(0.0624936 -9.46773e-06 0)
(0.062499 -7.99505e-06 0)
(0.0625036 -7.11647e-06 0)
(0.0625078 -6.46338e-06 0)
(0.0625115 -5.77376e-06 0)
(0.0625149 -5.11192e-06 0)
(0.062518 -4.48414e-06 0)
(0.0625206 -3.85183e-06 0)
(0.0625225 -3.28529e-06 0)
(0.0625238 -2.83684e-06 0)
(0.0625247 -2.51131e-06 0)
(0.0625256 -2.26899e-06 0)
(0.0625267 -2.03119e-06 0)
(0.0625281 -1.7394e-06 0)
(0.0625299 -1.42704e-06 0)
(0.0625316 -1.11653e-06 0)
(0.062533 -7.56689e-07 0)
(0.0625336 -4.36379e-07 0)
(0.0625335 -3.55091e-07 0)
(0.0625327 -3.89816e-07 0)
(0.0625318 -4.41848e-07 0)
(0.0625312 -4.08069e-07 0)
(0.062531 -2.58031e-07 0)
(0.0625314 5.38974e-08 0)
(0.0625323 4.0035e-07 0)
(0.0625335 6.84514e-07 0)
(0.0625346 8.38465e-07 0)
(0.0625353 9.16071e-07 0)
(0.0625353 6.42763e-07 0)
(0.0625347 2.86903e-07 0)
(0.0625339 -7.17488e-08 0)
(0.062533 -3.65497e-07 0)
(0.0625322 -6.02316e-07 0)
(0.062532 -7.11959e-07 0)
(0.0625322 -6.72493e-07 0)
(0.0625328 -5.53998e-07 0)
(0.0625336 -4.17385e-07 0)
(0.0625344 -2.92245e-07 0)
(0.062535 -1.35515e-07 0)
(0.0625352 -1.51775e-07 0)
(0.0625352 -2.16606e-07 0)
(0.0625349 -3.54313e-07 0)
(0.0625344 -4.99653e-07 0)
(0.062534 -6.30333e-07 0)
(0.0625338 -7.25223e-07 0)
(0.0625339 -8.28876e-07 0)
(0.0625343 -6.43578e-07 0)
(0.0625348 -4.31097e-07 0)
(0.0625354 -3.05904e-07 0)
(0.062536 -1.20134e-07 0)
(0.0625363 5.20101e-08 0)
(0.0625365 2.23716e-07 0)
(0.0625364 3.61376e-07 0)
(0.062536 5.68352e-07 0)
(0.0625356 4.78104e-07 0)
(0.0625351 3.15371e-07 0)
(0.0625348 1.16733e-07 0)
(0.0625348 8.82354e-10 0)
(0.0625351 -3.73017e-08 0)
(0.0625357 -9.67577e-08 0)
(0.0625365 -1.36799e-07 0)
(0.0625374 -1.27988e-07 0)
(0.0625382 -5.37532e-08 0)
(0.0625388 1.42033e-08 0)
(0.0625391 7.08191e-09 0)
(0.0625392 1.07653e-08 0)
(0.062539 5.39873e-08 0)
(0.0625386 9.94686e-08 0)
(0.062538 3.71332e-08 0)
(0.0625374 -3.31667e-08 0)
(0.0625369 -4.81304e-08 0)
(0.0625365 -3.82193e-08 0)
(0.0625363 -5.62944e-08 0)
(0.0625363 -8.86431e-08 0)
(0.0625365 -1.13967e-07 0)
(0.0625368 -9.81639e-08 0)
(0.0625371 -6.46262e-08 0)
(0.0625375 -4.02806e-08 0)
(0.0625379 -4.53283e-09 0)
(0.0625382 9.51951e-08 0)
(0.0625384 1.97242e-07 0)
(0.0625385 2.9781e-07 0)
(0.0625384 2.61599e-07 0)
(0.0625381 2.41645e-07 0)
(0.0625375 1.98858e-07 0)
(0.0625369 1.46581e-07 0)
(0.0625362 8.66753e-08 0)
(0.0625355 3.93387e-08 0)
(0.0625349 -4.42003e-08 0)
(0.0625345 -1.12943e-07 0)
(0.0625342 -1.21589e-07 0)
(0.0625342 -7.28891e-08 0)
(0.0625343 -1.94329e-08 0)
(0.0625346 3.19866e-08 0)
(0.062535 8.78831e-08 0)
(0.0625355 1.49193e-07 0)
(0.062536 2.13254e-07 0)
(0.0625366 2.80452e-07 0)
(0.0625371 3.50482e-07 0)
(0.0625376 4.22715e-07 0)
(0.0625379 4.96886e-07 0)
(0.0625381 5.47052e-07 0)
(0.0625382 5.45439e-07 0)
(0.0625381 4.91245e-07 0)
(0.0625379 4.61909e-07 0)
(0.0625376 4.47915e-07 0)
(0.0625373 4.35987e-07 0)
(0.0625368 3.55494e-07 0)
(0.0625364 2.8251e-07 0)
(0.062536 1.88622e-07 0)
(0.0625356 6.90703e-08 0)
(0.0625352 -6.51321e-08 0)
(0.0625349 -1.08606e-07 0)
(0.0625346 -1.44327e-07 0)
(0.0625343 -2.28596e-07 0)
(0.062534 -3.11676e-07 0)
(0.0625339 -4.78943e-07 0)
(0.0625339 -4.75302e-07 0)
(0.0625341 -4.81908e-07 0)
(0.0625343 -6.55727e-07 0)
(0.0625347 -8.23281e-07 0)
(0.0625354 -8.03491e-07 0)
(0.0625362 -6.33504e-07 0)
(0.062537 -4.77243e-07 0)
(0.0625379 -5.19094e-07 0)
(0.0625387 -6.15856e-07 0)
(0.0625394 -5.22353e-07 0)
(0.0625401 -4.1572e-07 0)
(0.0625407 -2.94259e-07 0)
(0.0625413 -3.03987e-07 0)
(0.0625419 -3.05106e-07 0)
(0.0625424 -2.03013e-07 0)
(0.0625429 -9.65527e-08 0)
(0.0625434 -7.59871e-08 0)
(0.0625439 -7.26417e-08 0)
(0.0625444 -5.7293e-09 0)
(0.0625448 9.18399e-08 0)
(0.062545 1.95683e-07 0)
(0.0625452 2.6511e-07 0)
(0.0625452 2.77477e-07 0)
(0.0625452 2.84012e-07 0)
(0.0625451 2.68077e-07 0)
(0.062545 2.95434e-07 0)
(0.0625449 3.60982e-07 0)
(0.0625447 4.66668e-07 0)
(0.0625445 5.88053e-07 0)
(0.0625443 6.89084e-07 0)
(0.062544 7.76288e-07 0)
(0.0625437 9.55129e-07 0)
(0.0625432 1.18904e-06 0)
(0.0625427 1.41551e-06 0)
(0.062542 1.63912e-06 0)
(0.0625412 1.91895e-06 0)
(0.0625402 2.24106e-06 0)
(0.0625389 2.6069e-06 0)
(0.0625373 3.018e-06 0)
(0.0625354 3.48854e-06 0)
(0.0625332 4.04411e-06 0)
(0.0625306 4.71248e-06 0)
(0.0625277 5.52076e-06 0)
(0.0625243 6.47273e-06 0)
(0.0625203 7.65115e-06 0)
(0.0625156 9.09744e-06 0)
(0.06251 1.08945e-05 0)
(0.0625033 1.31405e-05 0)
(0.0624953 1.60145e-05 0)
(0.0624857 1.97576e-05 0)
(0.062474 2.44722e-05 0)
(0.0624597 3.06071e-05 0)
(0.0624422 3.86386e-05 0)
(0.0624206 4.92493e-05 0)
(0.062394 6.33062e-05 0)
(0.0623608 8.19537e-05 0)
(0.0623195 0.000106489 0)
(0.0622684 0.000138613 0)
(0.0622051 0.000180021 0)
(0.0621285 0.000232388 0)
(0.062038 0.000296683 0)
(0.0619291 0.0003729 0)
(0.0617762 0.000454811 0)
(0.0615604 0.00051978 0)
(0.0616192 0.000521486 0)
(0.0789417 0.00192292 0)
(0.0993815 0.00755264 0)
(0.0865894 0.0114315 0)
(0.0820191 0.0127492 0)
(0.0835618 0.0119829 0)
(0.0847577 0.00957603 0)
(0.0847888 0.00616455 0)
(0.084747 0.00260052 0)
(0.0848957 -0.000404627 0)
(0.0850882 -0.00246216 0)
(0.0852813 -0.00350967 0)
(0.0855075 -0.00371753 0)
(0.0857649 -0.00340812 0)
(0.0859885 -0.00295045 0)
(0.0860712 -0.00261177 0)
(0.0859203 -0.00242951 0)
(0.0854833 -0.00219177 0)
(0.0847323 -0.00153532 0)
(0.0836563 -0.000125639 0)
(0.0823268 0.00210778 0)
(0.0807935 0.00473348 0)
(0.0791364 0.00681413 0)
(0.0770588 0.00737928 0)
(0.0753004 0.00688596 0)
(0.0719867 0.00981434 0)
(0.0743012 0.0238297 0)
(0.0764621 0.0208605 0)
(0.0779248 0.0161199 0)
(0.0789231 0.00793222 0)
(0.0776649 0.00279359 0)
(0.07734 0.00192733 0)
(0.0777109 -2.84202e-05 0)
(0.0782068 -0.00207511 0)
(0.0787708 -0.00317847 0)
(0.0792913 -0.00322277 0)
(0.0797646 -0.00286983 0)
(0.0801728 -0.00240067 0)
(0.080524 -0.00197381 0)
(0.0808204 -0.00161147 0)
(0.0810718 -0.00131606 0)
(0.0812862 -0.00107931 0)
(0.0814699 -0.000890316 0)
(0.0816272 -0.000738695 0)
(0.0817621 -0.000616632 0)
(0.0818783 -0.000518259 0)
(0.0819787 -0.000438718 0)
(0.0820659 -0.000374069 0)
(0.0821419 -0.000320828 0)
(0.0822084 -0.00027667 0)
(0.0822668 -0.000239494 0)
(0.0823181 -0.00020831 0)
(0.0823632 -0.000182235 0)
(0.0824034 -0.00016021 0)
(0.0824391 -0.000141613 0)
(0.0824711 -0.000125202 0)
(0.0824999 -0.0001109 0)
(0.0825258 -9.80006e-05 0)
(0.0825489 -8.65376e-05 0)
(0.0825692 -7.63598e-05 0)
(0.0825872 -6.74737e-05 0)
(0.0826032 -5.97084e-05 0)
(0.0826174 -5.32358e-05 0)
(0.0826302 -4.76971e-05 0)
(0.0826419 -4.2974e-05 0)
(0.0826525 -3.85045e-05 0)
(0.0826624 -3.39664e-05 0)
(0.0826714 -2.96812e-05 0)
(0.0826793 -2.58967e-05 0)
(0.082686 -2.27114e-05 0)
(0.0826916 -1.98569e-05 0)
(0.0826963 -1.75757e-05 0)
(0.0827006 -1.57349e-05 0)
(0.0827049 -1.36498e-05 0)
(0.0827089 -1.18223e-05 0)
(0.0827127 -1.02743e-05 0)
(0.0827159 -8.99911e-06 0)
(0.0827183 -7.89326e-06 0)
(0.0827199 -6.93253e-06 0)
(0.0827211 -6.08656e-06 0)
(0.0827224 -5.44096e-06 0)
(0.082724 -4.86933e-06 0)
(0.082726 -4.30714e-06 0)
(0.0827282 -3.89869e-06 0)
(0.0827302 -3.527e-06 0)
(0.0827317 -3.11553e-06 0)
(0.0827324 -2.68814e-06 0)
(0.0827324 -2.3147e-06 0)
(0.0827318 -1.99047e-06 0)
(0.0827311 -1.64413e-06 0)
(0.0827306 -1.18571e-06 0)
(0.0827307 -6.70151e-07 0)
(0.0827315 -1.98836e-07 0)
(0.0827327 1.73513e-07 0)
(0.0827341 4.15295e-07 0)
(0.0827351 4.70688e-07 0)
(0.0827356 4.43791e-07 0)
(0.0827355 2.51214e-07 0)
(0.0827349 -8.35494e-08 0)
(0.0827339 -3.65171e-07 0)
(0.0827331 -4.89071e-07 0)
(0.0827326 -5.07872e-07 0)
(0.0827326 -4.82867e-07 0)
(0.082733 -3.90375e-07 0)
(0.0827336 -3.00186e-07 0)
(0.0827344 -1.95365e-07 0)
(0.082735 -1.02768e-07 0)
(0.0827354 -1.297e-07 0)
(0.0827355 -2.26649e-07 0)
(0.0827352 -3.96529e-07 0)
(0.0827347 -6.27649e-07 0)
(0.0827342 -8.81212e-07 0)
(0.0827339 -1.01931e-06 0)
(0.0827338 -1.15955e-06 0)
(0.082734 -1.27677e-06 0)
(0.0827345 -1.2853e-06 0)
(0.0827351 -1.15595e-06 0)
(0.0827358 -1.05256e-06 0)
(0.0827363 -8.67587e-07 0)
(0.0827365 -6.99188e-07 0)
(0.0827365 -5.2998e-07 0)
(0.0827362 -3.64829e-07 0)
(0.0827358 -1.80336e-07 0)
(0.0827354 -1.54778e-07 0)
(0.0827351 -1.44897e-07 0)
(0.0827348 -3.44081e-07 0)
(0.0827348 -3.93142e-07 0)
(0.0827351 -5.56722e-07 0)
(0.0827357 -4.42388e-07 0)
(0.0827365 -3.62175e-07 0)
(0.0827374 -2.63158e-07 0)
(0.0827383 -1.83324e-07 0)
(0.082739 -1.16099e-07 0)
(0.0827394 -1.42011e-07 0)
(0.0827394 -1.95875e-07 0)
(0.0827391 -1.81272e-07 0)
(0.0827386 -1.18021e-07 0)
(0.0827381 -8.98302e-08 0)
(0.0827375 -5.8733e-08 0)
(0.0827369 -4.53097e-08 0)
(0.0827366 -2.75032e-08 0)
(0.0827364 -5.82507e-08 0)
(0.0827364 -8.26727e-08 0)
(0.0827366 -1.03978e-07 0)
(0.0827369 2.68145e-08 0)
(0.0827373 1.17407e-07 0)
(0.0827378 1.86182e-07 0)
(0.0827382 2.17883e-07 0)
(0.0827386 2.4144e-07 0)
(0.0827389 2.75105e-07 0)
(0.082739 3.06945e-07 0)
(0.0827388 2.5749e-07 0)
(0.0827383 1.87917e-07 0)
(0.0827377 1.00642e-07 0)
(0.0827369 3.20067e-09 0)
(0.0827361 -8.80228e-08 0)
(0.0827354 -1.14348e-07 0)
(0.0827348 -1.34479e-07 0)
(0.0827343 -1.78826e-07 0)
(0.0827341 -2.097e-07 0)
(0.0827341 -1.81527e-07 0)
(0.0827343 -1.44602e-07 0)
(0.0827347 -1.04427e-07 0)
(0.0827352 -6.90252e-08 0)
(0.0827358 -3.76186e-08 0)
(0.0827364 -9.08765e-09 0)
(0.082737 2.17046e-08 0)
(0.0827376 9.40744e-08 0)
(0.0827382 1.7956e-07 0)
(0.0827386 2.44345e-07 0)
(0.0827389 2.84896e-07 0)
(0.0827391 2.86642e-07 0)
(0.082739 2.54447e-07 0)
(0.0827388 2.12799e-07 0)
(0.0827386 1.74157e-07 0)
(0.0827382 1.1881e-07 0)
(0.0827378 6.4317e-08 0)
(0.0827374 5.52508e-08 0)
(0.082737 3.53155e-08 0)
(0.0827366 -1.42318e-08 0)
(0.0827361 -6.95207e-08 0)
(0.0827357 -1.14676e-07 0)
(0.0827352 -1.77994e-07 0)
(0.0827348 -2.90359e-07 0)
(0.0827345 -3.96488e-07 0)
(0.0827343 -5.36505e-07 0)
(0.0827341 -6.11703e-07 0)
(0.0827342 -5.83637e-07 0)
(0.0827345 -5.7261e-07 0)
(0.082735 -7.49609e-07 0)
(0.0827356 -6.69261e-07 0)
(0.0827362 -5.47957e-07 0)
(0.0827371 -4.83885e-07 0)
(0.082738 -4.49221e-07 0)
(0.0827387 -3.68249e-07 0)
(0.0827393 -2.19687e-07 0)
(0.0827399 -2.67594e-07 0)
(0.0827405 -3.0911e-07 0)
(0.082741 -2.94705e-07 0)
(0.0827414 -2.10034e-07 0)
(0.0827419 -1.07868e-07 0)
(0.0827424 -4.11789e-08 0)
(0.0827429 -1.29845e-08 0)
(0.0827434 1.08459e-08 0)
(0.0827439 1.04784e-07 0)
(0.0827442 2.2987e-07 0)
(0.0827445 3.47643e-07 0)
(0.0827446 4.43853e-07 0)
(0.0827447 5.1172e-07 0)
(0.0827446 5.76211e-07 0)
(0.0827444 6.50992e-07 0)
(0.0827442 7.48622e-07 0)
(0.082744 8.86774e-07 0)
(0.0827438 1.12133e-06 0)
(0.0827435 1.37005e-06 0)
(0.0827433 1.63396e-06 0)
(0.0827429 1.90853e-06 0)
(0.0827424 2.26272e-06 0)
(0.0827419 2.68933e-06 0)
(0.0827412 3.1517e-06 0)
(0.0827404 3.67345e-06 0)
(0.0827394 4.28366e-06 0)
(0.0827381 4.9921e-06 0)
(0.0827365 5.80966e-06 0)
(0.0827345 6.75631e-06 0)
(0.0827323 7.86473e-06 0)
(0.0827297 9.17882e-06 0)
(0.0827267 1.07471e-05 0)
(0.0827233 1.26153e-05 0)
(0.0827193 1.48525e-05 0)
(0.0827147 1.75539e-05 0)
(0.0827093 2.08245e-05 0)
(0.0827029 2.48189e-05 0)
(0.0826955 2.97405e-05 0)
(0.0826867 3.58475e-05 0)
(0.0826763 4.34677e-05 0)
(0.082664 5.30238e-05 0)
(0.0826494 6.50857e-05 0)
(0.0826322 8.04107e-05 0)
(0.0826118 9.9885e-05 0)
(0.0825876 0.000124684 0)
(0.0825592 0.000156069 0)
(0.0825259 0.000195605 0)
(0.0824873 0.000244719 0)
(0.0824433 0.000304735 0)
(0.082395 0.000376004 0)
(0.0823457 0.000457751 0)
(0.0822916 0.000546734 0)
(0.0822009 0.000633324 0)
(0.0820442 0.000693929 0)
(0.0822841 0.000692948 0)
(0.080604 0.00146989 0)
(0.102067 0.00613952 0)
(0.0885045 0.00967279 0)
(0.0837235 0.0110317 0)
(0.0859199 0.0103731 0)
(0.0879052 0.00814078 0)
(0.08847 0.00503501 0)
(0.0887018 0.00185792 0)
(0.0889441 -0.000772443 0)
(0.0890766 -0.00255157 0)
(0.0891065 -0.00346705 0)
(0.0890996 -0.00367355 0)
(0.0890569 -0.00339759 0)
(0.0889287 -0.00287241 0)
(0.0886856 -0.0022691 0)
(0.0883347 -0.00163449 0)
(0.0878653 -0.000875897 0)
(0.0871995 0.00020461 0)
(0.0862922 0.00183625 0)
(0.0852329 0.00409421 0)
(0.0842249 0.0066149 0)
(0.0833275 0.00855856 0)
(0.0824234 0.00884011 0)
(0.0815189 0.00774601 0)
(0.0795668 0.00861281 0)
(0.0825333 0.0160663 0)
(0.0868827 0.0151642 0)
(0.08911 0.0109122 0)
(0.0905731 0.00593245 0)
(0.0916718 0.00302532 0)
(0.0924313 0.000969129 0)
(0.0924635 -0.000976442 0)
(0.0924499 -0.00257813 0)
(0.0925336 -0.00347628 0)
(0.0924693 -0.00358102 0)
(0.0923981 -0.00323266 0)
(0.0923725 -0.00278344 0)
(0.092408 -0.00234428 0)
(0.0924676 -0.00196103 0)
(0.0925408 -0.00163686 0)
(0.0926208 -0.00136859 0)
(0.0927033 -0.00114932 0)
(0.0927839 -0.000969907 0)
(0.09286 -0.000822982 0)
(0.09293 -0.000702088 0)
(0.0929939 -0.000602186 0)
(0.0930523 -0.000519115 0)
(0.0931057 -0.000449778 0)
(0.0931544 -0.000391485 0)
(0.0931981 -0.000342064 0)
(0.093237 -0.000299801 0)
(0.0932716 -0.000263711 0)
(0.0933028 -0.000232658 0)
(0.0933314 -0.000205852 0)
(0.0933579 -0.00018229 0)
(0.0933824 -0.000161852 0)
(0.0934045 -0.000143938 0)
(0.0934242 -0.000128022 0)
(0.0934414 -0.000114124 0)
(0.0934562 -0.000101869 0)
(0.0934693 -9.09882e-05 0)
(0.0934812 -8.11311e-05 0)
(0.0934923 -7.22653e-05 0)
(0.0935027 -6.39577e-05 0)
(0.0935123 -5.64118e-05 0)
(0.093521 -4.96826e-05 0)
(0.0935288 -4.38653e-05 0)
(0.0935356 -3.89313e-05 0)
(0.0935416 -3.48907e-05 0)
(0.0935469 -3.12175e-05 0)
(0.0935517 -2.77233e-05 0)
(0.0935561 -2.45311e-05 0)
(0.0935602 -2.14002e-05 0)
(0.0935643 -1.862e-05 0)
(0.093568 -1.61644e-05 0)
(0.0935711 -1.41464e-05 0)
(0.0935734 -1.22648e-05 0)
(0.093575 -1.06916e-05 0)
(0.0935762 -9.39282e-06 0)
(0.0935773 -8.24232e-06 0)
(0.0935788 -7.24421e-06 0)
(0.0935806 -6.39281e-06 0)
(0.0935827 -5.7296e-06 0)
(0.0935846 -5.13856e-06 0)
(0.0935861 -4.65285e-06 0)
(0.0935869 -4.20701e-06 0)
(0.093587 -3.71682e-06 0)
(0.0935868 -3.1247e-06 0)
(0.0935864 -2.4881e-06 0)
(0.0935862 -1.81463e-06 0)
(0.0935866 -1.28189e-06 0)
(0.0935873 -9.4899e-07 0)
(0.0935883 -7.58714e-07 0)
(0.0935893 -7.45193e-07 0)
(0.0935901 -8.34076e-07 0)
(0.0935905 -1.05144e-06 0)
(0.0935904 -1.21379e-06 0)
(0.09359 -1.31773e-06 0)
(0.0935894 -1.33468e-06 0)
(0.0935889 -1.20244e-06 0)
(0.0935887 -9.8093e-07 0)
(0.0935888 -7.37396e-07 0)
(0.0935892 -5.2778e-07 0)
(0.0935898 -3.75862e-07 0)
(0.0935904 -3.04171e-07 0)
(0.0935909 -3.05773e-07 0)
(0.093591 -4.38322e-07 0)
(0.0935909 -5.69574e-07 0)
(0.0935905 -7.37918e-07 0)
(0.0935901 -8.94687e-07 0)
(0.0935896 -9.34963e-07 0)
(0.0935893 -1.04838e-06 0)
(0.0935894 -1.00331e-06 0)
(0.0935897 -9.47518e-07 0)
(0.0935903 -7.28225e-07 0)
(0.0935908 -5.77418e-07 0)
(0.0935912 -3.63108e-07 0)
(0.0935915 -2.00822e-07 0)
(0.0935915 -5.6873e-08 0)
(0.0935913 4.86948e-08 0)
(0.0935909 9.25411e-08 0)
(0.0935904 -3.29779e-08 0)
(0.0935899 -8.16887e-08 0)
(0.0935895 -1.13402e-07 0)
(0.0935893 -1.43267e-07 0)
(0.0935895 -2.68337e-07 0)
(0.0935899 -3.49532e-07 0)
(0.0935906 -3.32279e-07 0)
(0.0935916 -2.56705e-07 0)
(0.0935925 -1.98264e-07 0)
(0.0935934 -1.88597e-07 0)
(0.093594 -2.25257e-07 0)
(0.0935943 -2.19307e-07 0)
(0.0935942 -2.17347e-07 0)
(0.0935939 -2.28435e-07 0)
(0.0935934 -2.5949e-07 0)
(0.0935928 -2.21687e-07 0)
(0.0935923 -1.64418e-07 0)
(0.0935918 -1.56561e-07 0)
(0.0935915 -1.74841e-07 0)
(0.0935914 -1.85089e-07 0)
(0.0935914 -1.93542e-07 0)
(0.0935917 -1.64823e-07 0)
(0.0935921 -5.28722e-08 0)
(0.0935926 5.65029e-08 0)
(0.0935931 1.55862e-07 0)
(0.0935937 2.50742e-07 0)
(0.0935941 2.9576e-07 0)
(0.0935943 3.29625e-07 0)
(0.0935943 3.31919e-07 0)
(0.0935939 3.63512e-07 0)
(0.0935934 3.04348e-07 0)
(0.0935927 2.26883e-07 0)
(0.0935918 1.52402e-07 0)
(0.093591 1.04994e-07 0)
(0.0935902 8.43215e-08 0)
(0.0935897 9.03788e-08 0)
(0.0935893 9.97213e-08 0)
(0.0935891 1.03803e-07 0)
(0.0935892 1.15886e-07 0)
(0.0935894 1.40954e-07 0)
(0.0935898 1.68911e-07 0)
(0.0935903 1.87191e-07 0)
(0.0935909 2.00289e-07 0)
(0.0935916 2.11967e-07 0)
(0.0935923 2.30323e-07 0)
(0.0935929 2.66207e-07 0)
(0.0935935 3.20788e-07 0)
(0.0935939 3.50072e-07 0)
(0.0935943 3.63464e-07 0)
(0.0935944 3.6341e-07 0)
(0.0935944 3.5083e-07 0)
(0.0935942 3.04119e-07 0)
(0.0935939 2.55023e-07 0)
(0.0935936 2.03828e-07 0)
(0.0935932 1.69657e-07 0)
(0.0935927 1.58745e-07 0)
(0.0935923 1.38452e-07 0)
(0.0935918 7.12037e-08 0)
(0.0935914 4.56575e-08 0)
(0.093591 -1.06286e-08 0)
(0.0935906 -6.67081e-08 0)
(0.0935902 -1.44575e-07 0)
(0.0935899 -2.28832e-07 0)
(0.0935896 -3.36413e-07 0)
(0.0935895 -3.64822e-07 0)
(0.0935896 -3.50562e-07 0)
(0.0935899 -3.71008e-07 0)
(0.0935903 -3.83699e-07 0)
(0.0935909 -3.10167e-07 0)
(0.0935916 -3.27918e-07 0)
(0.0935924 -2.65451e-07 0)
(0.0935931 -1.03341e-07 0)
(0.0935939 9.1508e-09 0)
(0.0935946 1.22773e-08 0)
(0.0935951 -8.16626e-08 0)
(0.0935956 -1.13669e-07 0)
(0.0935961 1.53442e-09 0)
(0.0935966 1.15775e-07 0)
(0.0935972 2.22039e-07 0)
(0.0935977 2.44653e-07 0)
(0.0935983 3.14998e-07 0)
(0.0935988 3.87823e-07 0)
(0.0935992 5.07603e-07 0)
(0.0935996 6.44061e-07 0)
(0.0935998 7.52029e-07 0)
(0.0935999 8.76239e-07 0)
(0.0935999 1.01991e-06 0)
(0.0935998 1.17475e-06 0)
(0.0935996 1.35193e-06 0)
(0.0935995 1.56535e-06 0)
(0.0935993 1.80545e-06 0)
(0.0935991 2.10795e-06 0)
(0.0935989 2.46016e-06 0)
(0.0935986 2.87806e-06 0)
(0.0935983 3.37497e-06 0)
(0.0935979 3.87514e-06 0)
(0.0935974 4.51944e-06 0)
(0.0935968 5.22965e-06 0)
(0.093596 6.04554e-06 0)
(0.093595 6.98786e-06 0)
(0.0935938 8.08362e-06 0)
(0.0935923 9.35473e-06 0)
(0.0935904 1.08371e-05 0)
(0.0935883 1.25788e-05 0)
(0.093586 1.46354e-05 0)
(0.0935833 1.70701e-05 0)
(0.0935802 1.99499e-05 0)
(0.0935767 2.33718e-05 0)
(0.0935726 2.74421e-05 0)
(0.0935679 3.23187e-05 0)
(0.0935626 3.81947e-05 0)
(0.0935564 4.53156e-05 0)
(0.0935493 5.3969e-05 0)
(0.0935412 6.45481e-05 0)
(0.0935319 7.75123e-05 0)
(0.0935215 9.35119e-05 0)
(0.0935099 0.000113223 0)
(0.0934969 0.000137573 0)
(0.0934828 0.000167502 0)
(0.0934677 0.000204158 0)
(0.0934521 0.000248555 0)
(0.0934366 0.000301665 0)
(0.0934222 0.000363786 0)
(0.0934115 0.000434347 0)
(0.093409 0.000511258 0)
(0.0934098 0.000590426 0)
(0.093374 0.000662656 0)
(0.0932648 0.000709978 0)
(0.0936418 0.00070926 0)
(0.0822344 0.00131292 0)
(0.104841 0.00552368 0)
(0.0905601 0.00871351 0)
(0.0850657 0.00988135 0)
(0.0870733 0.00913435 0)
(0.089058 0.00690443 0)
(0.0896311 0.00389409 0)
(0.0899183 0.000889015 0)
(0.0903058 -0.00151034 0)
(0.0906303 -0.00302837 0)
(0.0908609 -0.00368984 0)
(0.0910395 -0.0036909 0)
(0.091169 -0.00325851 0)
(0.0912093 -0.00256422 0)
(0.0911356 -0.00169457 0)
(0.0909492 -0.000666659 0)
(0.0906536 0.00054306 0)
(0.090259 0.00198848 0)
(0.0898344 0.00374963 0)
(0.0894571 0.00582835 0)
(0.0892774 0.00796013 0)
(0.0893443 0.00949378 0)
(0.0895721 0.00963299 0)
(0.0898258 0.00828095 0)
(0.0896318 0.00783251 0)
(0.0923031 0.0103684 0)
(0.095967 0.00861664 0)
(0.097814 0.00567022 0)
(0.0989816 0.00320003 0)
(0.0998694 0.00127638 0)
(0.100234 -0.000167408 0)
(0.10008 -0.00126973 0)
(0.0998194 -0.00222055 0)
(0.0997244 -0.00282734 0)
(0.0994927 -0.00296927 0)
(0.0991832 -0.00279725 0)
(0.0989268 -0.00250644 0)
(0.0987555 -0.00219714 0)
(0.098649 -0.00190549 0)
(0.0985853 -0.0016437 0)
(0.0985528 -0.00141485 0)
(0.098542 -0.00121819 0)
(0.098546 -0.00105091 0)
(0.09856 -0.000909224 0)
(0.0985805 -0.000789189 0)
(0.0986044 -0.000687023 0)
(0.0986299 -0.000599696 0)
(0.0986556 -0.00052492 0)
(0.0986808 -0.000461063 0)
(0.0987049 -0.000406389 0)
(0.0987274 -0.000359362 0)
(0.0987482 -0.000318624 0)
(0.0987675 -0.000282922 0)
(0.0987857 -0.000251338 0)
(0.0988028 -0.000223193 0)
(0.0988187 -0.000198722 0)
(0.0988332 -0.000177327 0)
(0.0988461 -0.000158775 0)
(0.0988576 -0.0001425 0)
(0.098868 -0.000128112 0)
(0.0988777 -0.000114983 0)
(0.0988869 -0.000102893 0)
(0.0988956 -9.18484e-05 0)
(0.0989035 -8.1734e-05 0)
(0.0989105 -7.27088e-05 0)
(0.0989165 -6.47407e-05 0)
(0.0989218 -5.76665e-05 0)
(0.0989265 -5.13689e-05 0)
(0.0989309 -4.56566e-05 0)
(0.098935 -4.05881e-05 0)
(0.098939 -3.58199e-05 0)
(0.0989428 -3.14113e-05 0)
(0.0989464 -2.76367e-05 0)
(0.0989497 -2.42461e-05 0)
(0.0989525 -2.13018e-05 0)
(0.0989548 -1.88255e-05 0)
(0.0989565 -1.66997e-05 0)
(0.0989579 -1.48675e-05 0)
(0.098959 -1.32482e-05 0)
(0.0989601 -1.18317e-05 0)
(0.0989615 -1.05383e-05 0)
(0.0989632 -9.30916e-06 0)
(0.0989651 -8.17063e-06 0)
(0.0989668 -7.19892e-06 0)
(0.0989683 -6.36019e-06 0)
(0.0989692 -5.65127e-06 0)
(0.0989696 -4.97301e-06 0)
(0.0989695 -4.29541e-06 0)
(0.0989693 -3.61329e-06 0)
(0.0989691 -2.96329e-06 0)
(0.0989691 -2.39173e-06 0)
(0.0989695 -1.96084e-06 0)
(0.0989701 -1.72893e-06 0)
(0.0989707 -1.63379e-06 0)
(0.0989713 -1.66412e-06 0)
(0.0989716 -1.7184e-06 0)
(0.0989716 -1.76412e-06 0)
(0.0989714 -1.73747e-06 0)
(0.0989711 -1.60806e-06 0)
(0.0989708 -1.36615e-06 0)
(0.0989708 -1.07169e-06 0)
(0.098971 -7.76776e-07 0)
(0.0989713 -5.44987e-07 0)
(0.0989718 -4.04793e-07 0)
(0.0989722 -3.54307e-07 0)
(0.0989724 -4.36015e-07 0)
(0.0989724 -5.30414e-07 0)
(0.0989722 -8.48844e-07 0)
(0.0989719 -1.03111e-06 0)
(0.0989715 -1.18812e-06 0)
(0.0989713 -1.22821e-06 0)
(0.0989713 -1.35257e-06 0)