/*--------------------------------*- C++ -*----------------------------------*\
| =========                 |                                                 |
| \\      /  F ield         | OpenFOAM: The Open Source CFD Toolbox           |
|  \\    /   O peration     | Version:  2406                                  |
|   \\  /    A nd           | Website:  www.openfoam.com                      |
|    \\/     M anipulation  |                                                 |
\*---------------------------------------------------------------------------*/
FoamFile
{
    version     2.0;
    format      ascii;
    arch        "LSB;label=32;scalar=64";
    class       surfaceScalarField;
    location    "0.1";
    object      alphaPhi0.glycerin;
}
// * * * * * * * * * * * * * * * * * * * * * * * * * * * * * * * * * * * * * //

dimensions      [0 3 -1 0 0 0 0];

oriented        oriented;

internalField   nonuniform List<scalar> 
12225
(
6.25437e-69
5.73793e-71
8.45327e-68
2.90575e-69
2.52371e-66
9.06029e-68
4.25221e-65
1.32199e-66
5.26897e-64
1.58538e-65
5.07322e-63
1.58849e-64
3.91838e-62
1.22257e-63
2.44743e-61
7.23711e-63
1.23837e-60
3.43743e-62
5.07598e-60
1.34237e-61
1.69305e-59
4.33362e-61
4.73386e-59
1.17529e-60
1.2518e-58
2.97234e-60
3.6703e-58
8.40079e-60
1.14035e-57
2.54443e-59
4.90097e-57
1.03887e-58
5.12525e-56
1.06552e-57
6.85152e-55
1.55144e-56
7.06127e-54
1.82165e-55
6.39274e-53
1.97317e-54
3.5052e-52
1.33595e-53
1.82586e-51
8.01382e-53
1.3024e-49
1.30365e-50
1.61715e-46
2.1151e-47
-4.96797e-35
-8.93184e-36
-2.32076e-34
-6.2192e-35
-1.88127e-21
-8.68699e-22
-3.50555e-21
-3.53502e-21
-1.07489e-21
-2.37331e-21
1.60162e-09
-6.88466e-12
5.93456e-09
-1.0596e-10
7.77867e-09
-4.37378e-11
9.10667e-09
-6.10666e-13
9.17925e-09
-1.61982e-11
8.94284e-09
2.45049e-10
9.53889e-09
-3.90376e-10
1.09793e-08
-1.27532e-09
1.28102e-08
-1.72411e-09
1.44739e-08
-1.57914e-09
1.58232e-08
-1.29263e-09
1.68394e-08
-9.8759e-10
1.75779e-08
-7.25305e-10
1.83345e-08
-7.49348e-10
1.94036e-08
-1.06932e-09
2.0792e-08
-1.38854e-09
2.22588e-08
-1.46547e-09
2.35707e-08
-1.31116e-09
2.4726e-08
-1.15519e-09
2.58483e-08
-1.11953e-09
2.70082e-08
-1.15567e-09
2.81834e-08
-1.17055e-09
2.9322e-08
-1.13461e-09
3.03908e-08
-1.0676e-09
3.13728e-08
-9.82384e-10
3.22575e-08
-8.86007e-10
3.30413e-08
-7.84633e-10
3.37271e-08
-6.85654e-10
3.43204e-08
-5.93322e-10
3.48323e-08
-5.10435e-10
3.52713e-08
-4.37465e-10
3.56494e-08
-3.74719e-10
3.59703e-08
-3.20834e-10
3.62448e-08
-2.74607e-10
3.64798e-08
-2.35084e-10
3.66814e-08
-2.01327e-10
3.68548e-08
-1.72867e-10
3.70042e-08
-1.48377e-10
3.7133e-08
-1.27528e-10
3.72443e-08
-1.09917e-10
3.73402e-08
-9.48043e-11
3.74229e-08
-8.17955e-11
3.74943e-08
-7.07878e-11
3.75559e-08
-6.1284e-11
3.76092e-08
-5.32099e-11
3.76527e-08
-4.62403e-11
3.76932e-08
-4.00716e-11
3.77283e-08
-3.46801e-11
3.77588e-08
-3.00207e-11
3.77857e-08
-2.59131e-11
3.78086e-08
-2.24056e-11
3.78281e-08
-1.95231e-11
3.78451e-08
-1.69978e-11
3.786e-08
-1.47635e-11
3.7873e-08
-1.2817e-11
3.78842e-08
-1.11349e-11
3.7894e-08
-9.68211e-12
3.79024e-08
-8.43994e-12
3.79089e-08
-7.35682e-12
3.79154e-08
-6.383e-12
3.79212e-08
-5.56947e-12
3.79262e-08
-4.80308e-12
3.79312e-08
-4.081e-12
3.79353e-08
-3.51277e-12
3.79385e-08
-3.0523e-12
3.79412e-08
-2.70868e-12
3.79429e-08
-2.3768e-12
3.79451e-08
-2.04555e-12
3.79471e-08
-1.72185e-12
3.79487e-08
-1.44464e-12
3.79501e-08
-1.2234e-12
3.79513e-08
-1.01533e-12
3.79534e-08
-9.02099e-13
3.79546e-08
-7.62437e-13
3.79555e-08
-7.1619e-13
3.79564e-08
-7.0283e-13
3.79572e-08
-5.46826e-13
3.7957e-08
-5.75642e-13
3.79571e-08
-5.02048e-13
3.79576e-08
-4.46518e-13
3.7958e-08
-3.25375e-13
3.79584e-08
-3.09423e-13
3.79588e-08
-2.99739e-13
3.79592e-08
-2.71403e-13
3.79596e-08
-2.49346e-13
3.79598e-08
-9.06971e-14
3.79616e-08
6.00383e-14
3.79613e-08
1.30893e-13
3.79602e-08
-2.00374e-14
3.79601e-08
-6.20987e-14
3.79603e-08
-5.44267e-14
3.79602e-08
-5.5891e-14
3.79602e-08
-7.07121e-14
3.79602e-08
-1.15435e-13
3.79603e-08
-1.75858e-13
3.79605e-08
-2.62297e-13
3.79609e-08
-3.95902e-13
3.79614e-08
-1.93055e-13
3.79623e-08
-2.13881e-13
3.79624e-08
-2.38485e-13
3.79626e-08
-2.85573e-13
3.79629e-08
-2.83607e-13
3.79632e-08
-2.57587e-13
3.79634e-08
-2.35259e-13
3.79634e-08
-2.18605e-13
3.79635e-08
-1.86733e-13
3.79637e-08
-1.42594e-13
3.79638e-08
-1.10093e-13
3.7964e-08
-1.64827e-13
3.79642e-08
-1.71923e-13
3.79643e-08
-1.64627e-13
3.79648e-08
-2.21284e-13
3.79652e-08
-2.38471e-13
3.79655e-08
-2.61487e-13
3.79658e-08
-3.03334e-13
3.79661e-08
-3.36281e-13
3.79663e-08
-3.46884e-13
3.79666e-08
-3.37597e-13
3.79667e-08
-3.35814e-13
3.79666e-08
-3.58602e-13
3.79668e-08
-3.8337e-13
3.7967e-08
-3.46196e-13
3.79671e-08
-3.23454e-13
3.79672e-08
-3.03609e-13
3.79673e-08
-3.11639e-13
3.79676e-08
-3.17954e-13
3.7968e-08
-2.73856e-13
3.79682e-08
-3.27433e-13
3.79683e-08
-2.90387e-13
3.79685e-08
-2.91407e-13
3.79687e-08
-3.01806e-13
3.79689e-08
-3.11603e-13
3.79691e-08
-3.17877e-13
3.79693e-08
-3.17539e-13
3.79696e-08
-3.17193e-13
3.79698e-08
-3.10933e-13
3.797e-08
-3.20388e-13
3.79703e-08
-3.19753e-13
3.79705e-08
-3.1042e-13
3.79707e-08
-3.13048e-13
3.79709e-08
-3.31607e-13
3.79712e-08
-3.08958e-13
3.79715e-08
-2.70643e-13
3.79716e-08
-2.96549e-13
3.79716e-08
-3.20241e-13
3.79719e-08
-3.09537e-13
3.79721e-08
-2.94241e-13
3.79725e-08
-2.63494e-13
3.79727e-08
-1.96939e-13
3.79723e-08
-2.02976e-13
3.79724e-08
-1.78879e-13
3.79724e-08
-1.38237e-13
3.79724e-08
-7.88394e-14
3.79723e-08
-3.98123e-14
3.79723e-08
-5.26535e-14
3.79722e-08
-8.37193e-14
3.79724e-08
-9.83691e-14
3.79725e-08
-8.0161e-14
3.79724e-08
-4.96042e-14
3.79723e-08
-5.24245e-14
3.79727e-08
3.92284e-14
3.79723e-08
6.75145e-14
3.79718e-08
4.76233e-14
3.79715e-08
1.94895e-14
3.79713e-08
-1.03203e-14
3.79711e-08
-1.86973e-15
3.7971e-08
2.09333e-14
3.79708e-08
1.70996e-14
3.79706e-08
3.93982e-14
3.79714e-08
-1.52609e-14
3.79713e-08
-7.66761e-14
3.79712e-08
-2.33203e-14
3.79712e-08
-9.99684e-15
3.79712e-08
-5.96332e-14
3.79713e-08
-8.75558e-14
3.79713e-08
-9.06134e-14
3.79714e-08
-8.5963e-14
3.79715e-08
-8.43962e-14
3.79715e-08
-7.67995e-14
3.79715e-08
-4.47478e-14
3.79714e-08
-1.32722e-14
3.79714e-08
-6.12529e-15
3.79713e-08
7.99974e-15
3.79712e-08
1.72006e-15
3.79711e-08
3.07109e-14
3.79709e-08
8.07289e-14
3.79707e-08
1.33905e-13
3.79704e-08
1.88584e-13
3.79699e-08
2.45548e-13
3.79695e-08
3.141e-13
3.79691e-08
4.01209e-13
3.79686e-08
5.10721e-13
3.7968e-08
6.15687e-13
3.79672e-08
7.3779e-13
3.79663e-08
8.96862e-13
3.79652e-08
1.08673e-12
3.79639e-08
1.29875e-12
3.79623e-08
1.55651e-12
3.79604e-08
1.86061e-12
3.79582e-08
2.23375e-12
3.79555e-08
2.68687e-12
3.79522e-08
3.23762e-12
3.79483e-08
3.91344e-12
3.79435e-08
4.74731e-12
3.79376e-08
5.78869e-12
3.79305e-08
7.08437e-12
3.79216e-08
8.72321e-12
3.79107e-08
1.07696e-11
3.78973e-08
1.33463e-11
3.78807e-08
1.66018e-11
3.786e-08
2.07069e-11
3.78343e-08
2.5872e-11
3.7802e-08
3.23653e-11
3.77615e-08
4.05093e-11
3.77108e-08
5.06981e-11
3.76475e-08
6.33205e-11
3.75687e-08
7.87414e-11
3.74716e-08
9.71518e-11
3.73533e-08
1.18327e-10
3.72139e-08
1.39407e-10
1.46145e-10
2.05386e-69
2.15145e-72
1.77543e-68
4.88746e-71
4.93914e-67
1.76033e-69
6.14598e-66
1.99281e-68
6.45758e-65
3.04446e-67
5.71204e-64
4.27879e-66
4.12803e-63
3.41385e-65
2.41862e-62
1.97914e-64
1.17013e-61
9.16762e-64
4.74693e-61
3.52593e-63
1.63026e-60
1.14496e-62
4.80236e-60
3.23639e-62
1.27162e-59
8.84565e-62
3.34827e-59
2.91933e-61
8.98333e-59
5.63308e-61
3.09523e-58
1.66859e-60
2.82307e-57
5.74638e-60
4.0783e-56
1.51311e-58
5.17116e-55
3.00264e-57
5.2961e-54
3.93744e-56
4.32636e-53
6.28267e-55
1.13979e-51
3.0381e-53
4.30068e-49
1.87849e-50
3.28494e-46
3.9471e-47
-6.30881e-35
-1.11692e-35
-4.32501e-34
-1.07637e-34
-9.22349e-22
-3.5357e-22
-3.59615e-21
-2.41374e-21
-1.37069e-16
-1.08232e-16
2.77607e-11
2.12845e-12
4.96958e-11
2.25231e-12
3.91662e-12
-1.62012e-14
2.58373e-12
-1.31969e-12
2.56405e-10
-6.18221e-12
2.72559e-09
-7.68264e-13
1.10255e-08
-8.41799e-14
1.89401e-08
-4.83886e-15
2.25051e-08
-7.05381e-15
2.54423e-08
-1.81596e-13
2.95748e-08
-5.57888e-13
3.57743e-08
-1.02877e-12
4.25133e-08
-2.20313e-10
4.77119e-08
-1.18619e-09
5.25361e-08
-2.52695e-09
5.68246e-08
-4.8898e-09
6.08168e-08
-5.44775e-09
6.40597e-08
-4.55398e-09
6.67918e-08
-3.88659e-09
6.94294e-08
-3.75706e-09
7.21255e-08
-3.85296e-09
7.47683e-08
-3.81335e-09
7.72336e-08
-3.60113e-09
7.94767e-08
-3.31361e-09
8.15022e-08
-3.00852e-09
8.33075e-08
-2.68983e-09
8.48927e-08
-2.36847e-09
8.6266e-08
-2.06065e-09
8.74502e-08
-1.77896e-09
8.84647e-08
-1.52823e-09
8.93332e-08
-1.30917e-09
9.00768e-08
-1.12029e-09
9.07007e-08
-9.58617e-10
9.12409e-08
-8.20388e-10
9.17059e-08
-7.02576e-10
9.21048e-08
-6.02319e-10
9.24463e-08
-5.16519e-10
9.27421e-08
-4.43631e-10
9.30049e-08
-3.81356e-10
9.32233e-08
-3.28521e-10
9.34118e-08
-2.83273e-10
9.35752e-08
-2.44517e-10
9.37164e-08
-2.11196e-10
9.38383e-08
-1.82703e-10
9.39431e-08
-1.58232e-10
9.40301e-08
-1.37116e-10
9.41093e-08
-1.18786e-10
9.41779e-08
-1.02802e-10
9.42374e-08
-8.90921e-11
9.42892e-08
-7.72189e-11
9.43402e-08
-6.70044e-11
9.43797e-08
-5.83446e-11
9.44135e-08
-5.08697e-11
9.44431e-08
-4.43681e-11
9.44691e-08
-3.86922e-11
9.44917e-08
-3.37318e-11
9.45114e-08
-2.95382e-11
9.45284e-08
-2.57227e-11
9.45432e-08
-2.26139e-11
9.45561e-08
-1.98487e-11
9.45671e-08
-1.74415e-11
9.45763e-08
-1.52496e-11
9.45854e-08
-1.33642e-11
9.45934e-08
-1.17094e-11
9.46005e-08
-1.02914e-11
9.46068e-08
-9.06106e-12
9.46125e-08
-7.98303e-12
9.46176e-08
-7.01692e-12
9.46222e-08
-6.18405e-12
9.46262e-08
-5.37551e-12
9.46295e-08
-4.66706e-12
9.46325e-08
-4.11439e-12
9.4635e-08
-3.5883e-12
9.46372e-08
-3.27654e-12
9.4639e-08
-2.90199e-12
9.46405e-08
-2.50274e-12
9.46419e-08
-2.2394e-12
9.4643e-08
-1.97615e-12
9.46441e-08
-1.86732e-12
9.4645e-08
-1.5999e-12
9.46457e-08
-1.31285e-12
9.46464e-08
-1.10131e-12
9.46469e-08
-9.42388e-13
9.46474e-08
-8.89204e-13
9.46478e-08
-7.97644e-13
9.46482e-08
-5.5241e-13
9.46486e-08
-3.55183e-13
9.46489e-08
-1.46369e-13
9.46492e-08
-2.79965e-13
9.46495e-08
-3.34687e-13
9.46499e-08
-3.31632e-13
9.46502e-08
-2.81874e-13
9.46505e-08
-1.8447e-13
9.46506e-08
-9.18571e-14
9.46508e-08
-1.62615e-13
9.46512e-08
-3.327e-13
9.46514e-08
-1.96344e-13
9.46519e-08
-2.58226e-13
9.46523e-08
-1.29907e-13
9.46528e-08
-2.3194e-13
9.46533e-08
-2.53875e-13
9.46538e-08
-2.55359e-13
9.46543e-08
-2.37576e-13
9.46547e-08
-2.23876e-13
9.46551e-08
-1.9093e-13
9.46555e-08
-1.70932e-13
9.46558e-08
-1.32303e-14
9.46559e-08
2.66567e-14
9.4656e-08
8.57479e-14
9.46562e-08
-7.13311e-14
9.46564e-08
-2.68564e-14
9.46565e-08
7.9069e-14
9.46567e-08
4.27183e-14
9.46569e-08
-1.86559e-14
9.46572e-08
-4.33128e-14
9.46574e-08
-5.70076e-14
9.46577e-08
-5.62634e-14
9.4658e-08
-2.69684e-14
9.46582e-08
5.24392e-14
9.46584e-08
6.25793e-14
9.46585e-08
3.98046e-14
9.46586e-08
9.10045e-15
9.46587e-08
7.30212e-14
9.46587e-08
1.02654e-13
9.46587e-08
1.09908e-13
9.46587e-08
4.69767e-14
9.46588e-08
-1.53086e-14
9.46588e-08
9.41197e-14
9.46588e-08
8.36955e-14
9.46588e-08
4.32734e-14
9.46589e-08
-1.90281e-15
9.46591e-08
-3.58492e-14
9.46592e-08
-6.29566e-14
9.46593e-08
-8.21621e-14
9.46595e-08
-5.15578e-14
9.46596e-08
-1.06307e-13
9.46597e-08
-1.17897e-13
9.46599e-08
-1.12464e-13
9.466e-08
-9.83503e-14
9.466e-08
-5.22174e-14
9.46601e-08
-3.93768e-14
9.46602e-08
-2.83916e-14
9.46603e-08
-8.64404e-15
9.46604e-08
3.1053e-15
9.46606e-08
-6.67466e-15
9.46608e-08
-1.06423e-14
9.46611e-08
-2.42187e-14
9.46614e-08
-1.48647e-14
9.46617e-08
3.29129e-14
9.4662e-08
3.27352e-14
9.46623e-08
9.46289e-14
9.46625e-08
1.3633e-13
9.46627e-08
1.53678e-13
9.46628e-08
2.02078e-13
9.46628e-08
2.24666e-13
9.46627e-08
2.24538e-13
9.46625e-08
2.10529e-13
9.46622e-08
1.35032e-13
9.46619e-08
1.89065e-13
9.46614e-08
2.3048e-13
9.46608e-08
3.31239e-13
9.46601e-08
4.34499e-13
9.46595e-08
3.53129e-13
9.46589e-08
3.43461e-13
9.46585e-08
3.1654e-13
9.46581e-08
3.34207e-13
9.46577e-08
3.81726e-13
9.46576e-08
3.25638e-13
9.46575e-08
3.19593e-13
9.46568e-08
2.7309e-13
9.46534e-08
2.5825e-13
9.46534e-08
2.89318e-13
9.46534e-08
2.81172e-13
9.46533e-08
3.08816e-13
9.46533e-08
3.17566e-13
9.46533e-08
3.22686e-13
9.46531e-08
3.38946e-13
9.46531e-08
3.59639e-13
9.46533e-08
3.94279e-13
9.46531e-08
3.98988e-13
9.4653e-08
4.19542e-13
9.46542e-08
5.29256e-13
9.46566e-08
5.74467e-13
9.46561e-08
6.3806e-13
9.46556e-08
7.38522e-13
9.46551e-08
8.67686e-13
9.46545e-08
1.01801e-12
9.46539e-08
1.17926e-12
9.46531e-08
1.35814e-12
9.4652e-08
1.57635e-12
9.46507e-08
1.85264e-12
9.46492e-08
2.18939e-12
9.46472e-08
2.56481e-12
9.46451e-08
3.00332e-12
9.46426e-08
3.53411e-12
9.46397e-08
4.16574e-12
9.46362e-08
4.9359e-12
9.46325e-08
5.83621e-12
9.46275e-08
6.90533e-12
9.46219e-08
8.19023e-12
9.46151e-08
9.73823e-12
9.46071e-08
1.16093e-11
9.45975e-08
1.38807e-11
9.4586e-08
1.66462e-11
9.45721e-08
2.00221e-11
9.45553e-08
2.41475e-11
9.45351e-08
2.91929e-11
9.45107e-08
3.5384e-11
9.44812e-08
4.29463e-11
9.44457e-08
5.21767e-11
9.44029e-08
6.34111e-11
9.43517e-08
7.70363e-11
9.42904e-08
9.34147e-11
9.42176e-08
1.13005e-10
9.41308e-08
1.36162e-10
9.40305e-08
1.63085e-10
9.39157e-08
1.93527e-10
9.3786e-08
2.2684e-10
9.36455e-08
2.59983e-10
9.35003e-08
2.85227e-10
2.88779e-10
2.41436e-71
2.63767e-74
1.26738e-69
5.32536e-72
2.13548e-68
1.69942e-70
2.71549e-67
2.66825e-69
1.39687e-66
1.68925e-68
8.27203e-66
1.1806e-67
5.40682e-65
8.51178e-67
3.01927e-64
4.94526e-66
1.4053e-63
2.35192e-65
5.55774e-63
9.18203e-65
1.88925e-62
3.05427e-64
5.53528e-62
9.10702e-64
1.51636e-61
1.3257e-63
5.32268e-61
1.30978e-62
1.12873e-60
8.8164e-62
5.72704e-60
4.10511e-61
1.79718e-58
1.03851e-59
5.56565e-57
2.92152e-58
1.06005e-55
9.08227e-58
1.27135e-54
1.48522e-56
1.97568e-53
3.93908e-55
8.05973e-52
2.25984e-53
1.43763e-49
5.46192e-51
2.79089e-46
2.60923e-47
-2.64232e-35
-4.31343e-36
-2.33886e-34
-4.87058e-35
-2.60791e-22
-7.12431e-23
-1.7092e-21
-6.40026e-22
-1.03628e-16
-6.01618e-17
1.83531e-12
2.92909e-13
3.67186e-12
3.78391e-13
1.77041e-11
1.52756e-12
6.94531e-12
7.46414e-13
8.31899e-13
-9.84302e-14
7.51373e-14
-1.19265e-14
1.52374e-14
-2.61636e-14
8.44246e-15
-6.63802e-15
8.70433e-15
-3.29208e-15
2.34132e-14
-1.94526e-13
6.784e-14
-5.59937e-13
1.80058e-13
-9.7009e-13
5.05358e-11
-4.28696e-12
6.30152e-09
-2.20477e-12
3.807e-08
-2.1864e-12
7.20956e-08
-3.38277e-12
8.41326e-08
-1.27085e-11
9.05695e-08
-1.65616e-09
9.74505e-08
-1.73137e-09
1.04452e-07
-4.00872e-09
1.09208e-07
-6.90803e-09
1.12643e-07
-7.00471e-09
1.15566e-07
-6.4453e-09
1.18236e-07
-5.90682e-09
1.20646e-07
-5.36848e-09
1.22768e-07
-4.79025e-09
1.24607e-07
-4.19836e-09
1.26188e-07
-3.63786e-09
1.27541e-07
-3.1293e-09
1.28695e-07
-2.68126e-09
1.29679e-07
-2.29303e-09
1.3052e-07
-1.95987e-09
1.31238e-07
-1.67591e-09
1.31852e-07
-1.43419e-09
1.32378e-07
-1.22859e-09
1.3283e-07
-1.05365e-09
1.33218e-07
-9.04642e-10
1.33553e-07
-7.77519e-10
1.33842e-07
-6.69427e-10
1.34093e-07
-5.77131e-10
1.3431e-07
-4.9819e-10
1.34498e-07
-4.30433e-10
1.34661e-07
-3.72402e-10
1.34802e-07
-3.22628e-10
1.34925e-07
-2.79851e-10
1.35031e-07
-2.42692e-10
1.35123e-07
-2.10482e-10
1.35203e-07
-1.82583e-10
1.35271e-07
-1.58431e-10
1.35331e-07
-1.3755e-10
1.35382e-07
-1.19511e-10
1.35427e-07
-1.03963e-10
1.35466e-07
-9.05496e-11
1.35494e-07
-7.89175e-11
1.35521e-07
-6.87857e-11
1.35547e-07
-5.995e-11
1.3557e-07
-5.2235e-11
1.3559e-07
-4.55478e-11
1.35607e-07
-3.9684e-11
1.3563e-07
-3.46714e-11
1.35645e-07
-3.03499e-11
1.35657e-07
-2.65623e-11
1.35667e-07
-2.32504e-11
1.35676e-07
-2.03523e-11
1.35683e-07
-1.77806e-11
1.35686e-07
-1.56221e-11
1.35692e-07
-1.37036e-11
1.35697e-07
-1.20304e-11
1.35701e-07
-1.05243e-11
1.35705e-07
-9.24212e-12
1.35709e-07
-8.08085e-12
1.35715e-07
-7.0451e-12
1.3572e-07
-6.20975e-12
1.35722e-07
-5.5075e-12
1.35724e-07
-4.9114e-12
1.35722e-07
-4.4268e-12
1.35723e-07
-3.96628e-12
1.35725e-07
-3.54914e-12
1.35726e-07
-3.10556e-12
1.35727e-07
-2.70533e-12
1.35728e-07
-2.33497e-12
1.35729e-07
-1.93041e-12
1.35733e-07
-1.53394e-12
1.35735e-07
-1.28019e-12
1.35736e-07
-1.13577e-12
1.35731e-07
-1.05417e-12
1.35731e-07
-9.7369e-13
1.35732e-07
-8.77991e-13
1.35732e-07
-7.72208e-13
1.35733e-07
-7.56085e-13
1.35733e-07
-7.09621e-13
1.35733e-07
-6.4098e-13
1.35733e-07
-5.8432e-13
1.35734e-07
-5.01268e-13
1.35736e-07
-3.21461e-13
1.35739e-07
-2.2849e-13
1.35736e-07
-3.43747e-13
1.35734e-07
-4.59445e-13
1.35734e-07
-5.16447e-13
1.35734e-07
-4.66059e-13
1.35734e-07
-4.6242e-13
1.35735e-07
-4.45735e-13
1.35735e-07
-4.10711e-13
1.35735e-07
-4.02218e-13
1.35735e-07
-4.1174e-13
1.35736e-07
-3.45151e-13
1.35736e-07
-3.41841e-13
1.35736e-07
-2.06779e-13
1.35743e-07
-1.16399e-13
1.35744e-07
-1.19408e-13
1.35741e-07
-2.26114e-13
1.35742e-07
-3.23447e-13
1.35742e-07
-3.30406e-13
1.35742e-07
-3.35597e-13
1.35743e-07
-3.54136e-13
1.35743e-07
-3.64073e-13
1.35743e-07
-3.61199e-13
1.35743e-07
-3.50439e-13
1.35744e-07
-3.36545e-13
1.35745e-07
-2.70475e-13
1.35747e-07
-1.9743e-13
1.35746e-07
-1.87115e-13
1.35746e-07
-2.1381e-13
1.35746e-07
-2.20399e-13
1.35746e-07
-2.1646e-13
1.35747e-07
-1.79537e-13
1.35747e-07
-1.83624e-13
1.35745e-07
-2.783e-13
1.35746e-07
-3.15201e-13
1.35746e-07
-3.10585e-13
1.35746e-07
-3.16061e-13
1.35746e-07
-3.24942e-13
1.35747e-07
-3.30561e-13
1.35747e-07
-3.30648e-13
1.35747e-07
-3.60007e-13
1.35747e-07
-3.2403e-13
1.35749e-07
-2.87887e-13
1.3575e-07
-2.6787e-13
1.3575e-07
-2.42635e-13
1.3575e-07
-2.34727e-13
1.3575e-07
-1.94146e-13
1.3575e-07
-1.66115e-13
1.35751e-07
-1.48183e-13
1.35751e-07
-1.32602e-13
1.35751e-07
-1.2252e-13
1.35751e-07
-1.16481e-13
1.35751e-07
-1.076e-13
1.35751e-07
-9.40413e-14
1.35751e-07
-1.31465e-13
1.3575e-07
-1.50241e-13
1.3575e-07
-1.41994e-13
1.3575e-07
-9.15846e-14
1.3575e-07
-5.24351e-14
1.3575e-07
-4.35945e-14
1.3575e-07
-2.2937e-16
1.35751e-07
6.19175e-14
1.35752e-07
1.42159e-13
1.35752e-07
1.55261e-13
1.35751e-07
3.35239e-14
1.35745e-07
3.99227e-15
1.35745e-07
6.34282e-14
1.35745e-07
3.70122e-14
1.35745e-07
1.61228e-13
1.35745e-07
1.83397e-13
1.35745e-07
2.26334e-13
1.35745e-07
2.94646e-13
1.35745e-07
2.25841e-13
1.35745e-07
2.08956e-13
1.3575e-07
3.43031e-13
1.3575e-07
2.89982e-13
1.3575e-07
2.55338e-13
1.3575e-07
2.53381e-13
1.35749e-07
2.53681e-13
1.35744e-07
2.93909e-13
1.35745e-07
3.16861e-13
1.35745e-07
4.15442e-13
1.35745e-07
4.87352e-13
1.35745e-07
5.50733e-13
1.35746e-07
6.25785e-13
1.35749e-07
6.791e-13
1.35749e-07
7.11118e-13
1.35749e-07
7.86971e-13
1.35749e-07
9.83481e-13
1.35748e-07
1.17871e-12
1.35748e-07
1.35446e-12
1.35747e-07
1.60915e-12
1.35746e-07
1.89141e-12
1.35745e-07
2.18613e-12
1.35744e-07
2.52195e-12
1.35743e-07
2.94127e-12
1.35741e-07
3.47532e-12
1.35739e-07
4.11282e-12
1.35737e-07
4.87345e-12
1.35734e-07
5.75538e-12
1.35731e-07
6.79788e-12
1.35727e-07
8.03644e-12
1.35722e-07
9.50383e-12
1.35716e-07
1.12454e-11
1.3571e-07
1.33134e-11
1.35702e-07
1.57753e-11
1.35693e-07
1.8716e-11
1.35682e-07
2.22364e-11
1.3567e-07
2.64629e-11
1.35655e-07
3.15419e-11
1.35638e-07
3.7649e-11
1.35617e-07
4.49912e-11
1.35593e-07
5.38125e-11
1.35564e-07
6.43915e-11
1.35531e-07
7.70401e-11
1.35491e-07
9.21088e-11
1.35445e-07
1.09951e-10
1.35391e-07
1.30914e-10
1.35329e-07
1.55346e-10
1.35259e-07
1.8345e-10
1.3518e-07
2.15245e-10
1.35092e-07
2.50358e-10
1.34998e-07
2.87861e-10
1.34898e-07
3.25947e-10
1.34797e-07
3.60626e-10
1.34698e-07
3.8404e-10
3.8555e-10
2.5848e-74
3.37397e-77
5.23796e-72
2.96687e-74
1.72431e-70
1.61713e-72
2.81245e-69
3.96808e-71
1.86758e-68
3.45497e-70
1.32851e-67
2.72762e-69
9.54013e-67
2.18057e-68
5.75684e-66
9.90542e-68
2.78328e-65
1.44326e-66
1.13163e-64
6.49025e-66
3.9352e-64
2.50696e-65
1.22033e-63
8.38891e-65
8.32183e-63
4.97975e-64
3.12268e-61
1.24421e-62
-1.92822e-59
-1.08242e-60
-2.24658e-58
-1.34609e-59
-8.64232e-58
-5.50678e-59
-5.83225e-58
-3.94173e-59
1.25915e-56
8.42245e-58
2.26772e-55
1.47227e-56
5.58943e-54
3.70712e-55
1.79571e-52
3.85562e-54
8.73914e-50
3.92247e-51
1.60676e-46
1.4902e-47
-8.00714e-36
-1.04857e-36
1.05449e-24
1.03942e-25
5.31797e-22
1.34625e-22
1.57352e-21
1.73253e-22
-5.8629e-17
-1.09147e-17
2.58465e-13
3.44282e-14
5.61457e-13
7.67863e-14
1.65774e-12
2.72217e-14
1.6238e-12
-2.79829e-14
6.04798e-13
4.25452e-14
1.76282e-13
1.85575e-14
1.303e-13
-5.50448e-15
8.86561e-14
-4.28549e-15
1.17966e-13
-2.15142e-15
2.80002e-12
-1.42253e-14
3.80153e-12
-5.1008e-14
3.88093e-12
-2.74255e-14
1.49845e-12
-5.80795e-14
1.04533e-12
-1.07304e-13
1.4769e-12
-5.33638e-13
2.44531e-12
-1.86422e-12
4.99113e-12
-1.01879e-11
1.51994e-09
-7.46608e-11
1.70957e-08
-3.70586e-10
8.42431e-08
-8.98766e-10
1.36686e-07
-1.57863e-09
1.41602e-07
-2.89873e-09
1.45365e-07
-6.47847e-09
1.48981e-07
-7.48554e-09
1.51309e-07
-7.11878e-09
1.53165e-07
-6.50202e-09
1.54786e-07
-5.75236e-09
1.56174e-07
-4.99488e-09
1.57355e-07
-4.29874e-09
1.58362e-07
-3.68394e-09
1.59224e-07
-3.15177e-09
1.59961e-07
-2.69619e-09
1.60593e-07
-2.30799e-09
1.61137e-07
-1.97786e-09
1.61605e-07
-1.69712e-09
1.62009e-07
-1.45814e-09
1.62348e-07
-1.25451e-09
1.62649e-07
-1.08055e-09
1.62912e-07
-9.32019e-10
1.6314e-07
-8.04741e-10
1.63338e-07
-6.95619e-10
1.6351e-07
-6.01865e-10
1.63663e-07
-5.21315e-10
1.63803e-07
-4.52038e-10
1.63917e-07
-3.92323e-10
1.64015e-07
-3.40702e-10
1.64101e-07
-2.9598e-10
1.64176e-07
-2.5722e-10
1.64242e-07
-2.23627e-10
1.64299e-07
-1.94513e-10
1.64349e-07
-1.69294e-10
1.64393e-07
-1.47452e-10
1.64431e-07
-1.28518e-10
1.64464e-07
-1.12096e-10
1.6449e-07
-9.78127e-11
1.64509e-07
-8.53196e-11
1.64532e-07
-7.43483e-11
1.64557e-07
-6.493e-11
1.64575e-07
-5.68226e-11
1.6459e-07
-4.96178e-11
1.64603e-07
-4.34464e-11
1.64614e-07
-3.8068e-11
1.64624e-07
-3.34204e-11
1.64629e-07
-2.92825e-11
1.64635e-07
-2.56204e-11
1.64645e-07
-2.24445e-11
1.64652e-07
-1.96908e-11
1.64657e-07
-1.73491e-11
1.64662e-07
-1.52235e-11
1.64666e-07
-1.33894e-11
1.6467e-07
-1.17428e-11
1.64674e-07
-1.03658e-11
1.64677e-07
-9.11344e-12
1.6468e-07
-8.08765e-12
1.64683e-07
-7.22981e-12
1.64685e-07
-6.41081e-12
1.64687e-07
-5.68674e-12
1.64688e-07
-5.03842e-12
1.6469e-07
-4.43415e-12
1.64691e-07
-3.87412e-12
1.64692e-07
-3.32974e-12
1.64693e-07
-2.82856e-12
1.64693e-07
-2.40923e-12
1.64694e-07
-2.07044e-12
1.64695e-07
-1.84154e-12
1.64695e-07
-1.68716e-12
1.64696e-07
-1.50908e-12
1.64696e-07
-1.36528e-12
1.64697e-07
-1.2396e-12
1.64697e-07
-1.13893e-12
1.64697e-07
-1.0137e-12
1.64698e-07
-8.85701e-13
1.64698e-07
-7.84339e-13
1.64698e-07
-6.47681e-13
1.64698e-07
-5.18658e-13
1.64698e-07
-4.06155e-13
1.64699e-07
-4.09475e-13
1.64699e-07
-4.7935e-13
1.64699e-07
-4.73516e-13
1.64699e-07
-4.71782e-13
1.647e-07
-4.66594e-13
1.647e-07
-4.22792e-13
1.647e-07
-3.97423e-13
1.64701e-07
-3.99438e-13
1.64701e-07
-4.43882e-13
1.64701e-07
-2.88717e-13
1.64702e-07
-1.98855e-13
1.64702e-07
-1.64473e-13
1.64703e-07
-1.40984e-13
1.64703e-07
-1.71658e-13
1.64704e-07
-2.54734e-13
1.64704e-07
-2.52479e-13
1.64704e-07
-2.33393e-13
1.64705e-07
-2.25636e-13
1.64705e-07
-2.18428e-13
1.64705e-07
-2.08014e-13
1.64705e-07
-1.91902e-13
1.64706e-07
-1.71699e-13
1.64706e-07
-1.49477e-13
1.64706e-07
-1.13726e-13
1.64706e-07
-7.29832e-14
1.64706e-07
-6.56169e-14
1.64707e-07
-7.15685e-14
1.64707e-07
-7.93772e-14
1.64707e-07
-8.56048e-14
1.64707e-07
-9.36617e-14
1.64708e-07
-1.24816e-13
1.64708e-07
-1.71371e-13
1.64708e-07
-2.11844e-13
1.64708e-07
-2.36242e-13
1.64708e-07
-2.39491e-13
1.64708e-07
-2.38132e-13
1.64708e-07
-2.33907e-13
1.64709e-07
-2.27944e-13
1.64709e-07
-2.14539e-13
1.64709e-07
-1.85005e-13
1.64709e-07
-1.50434e-13
1.64709e-07
-1.24293e-13
1.64709e-07
-1.09813e-13
1.64709e-07
-9.30079e-14
1.64709e-07
-7.12335e-14
1.64709e-07
-4.68117e-14
1.64709e-07
-2.60528e-14
1.64709e-07
-1.1117e-14
1.64709e-07
-2.8617e-16
1.64709e-07
9.63796e-15
1.64709e-07
2.12973e-14
1.64709e-07
1.4505e-14
1.6471e-07
-8.02273e-15
1.6471e-07
-2.62892e-14
1.6471e-07
-2.56266e-14
1.6471e-07
-8.24141e-15
1.6471e-07
1.90628e-14
1.6471e-07
4.76131e-14
1.6471e-07
8.69586e-14
1.64711e-07
1.30414e-13
1.64711e-07
1.4883e-13
1.64711e-07
1.42748e-13
1.64711e-07
1.25185e-13
1.6471e-07
9.76872e-14
1.6471e-07
1.1244e-13
1.6471e-07
1.53768e-13
1.6471e-07
2.04075e-13
1.64709e-07
2.55749e-13
1.64709e-07
3.04175e-13
1.64708e-07
3.15222e-13
1.64707e-07
3.74843e-13
1.64701e-07
5.05829e-13
1.64705e-07
5.21239e-13
1.64705e-07
4.89348e-13
1.64705e-07
4.71168e-13
1.64705e-07
4.59909e-13
1.64705e-07
4.75589e-13
1.64705e-07
5.14769e-13
1.64704e-07
5.74297e-13
1.647e-07
6.53304e-13
1.64699e-07
7.96559e-13
1.64699e-07
9.06689e-13
1.64699e-07
1.01488e-12
1.64699e-07
1.1351e-12
1.64701e-07
1.29249e-12
1.647e-07
1.43202e-12
1.64698e-07
1.657e-12
1.64698e-07
1.92185e-12
1.64697e-07
2.21608e-12
1.64696e-07
2.56471e-12
1.64695e-07
2.95303e-12
1.64697e-07
3.45123e-12
1.64699e-07
3.98306e-12
1.64697e-07
4.6415e-12
1.64695e-07
5.43471e-12
1.64693e-07
6.38283e-12
1.64691e-07
7.50598e-12
1.64688e-07
8.83002e-12
1.64684e-07
1.03877e-11
1.6468e-07
1.22246e-11
1.64675e-07
1.43923e-11
1.64669e-07
1.69518e-11
1.64663e-07
1.9978e-11
1.64655e-07
2.35591e-11
1.64646e-07
2.78094e-11
1.64635e-07
3.28552e-11
1.64623e-07
3.88444e-11
1.64609e-07
4.59552e-11
1.64592e-07
5.43931e-11
1.64573e-07
6.43912e-11
1.64551e-07
7.62119e-11
1.64526e-07
9.01424e-11
1.64497e-07
1.06488e-10
1.64464e-07
1.25554e-10
1.64426e-07
1.47632e-10
1.64384e-07
1.72956e-10
1.64338e-07
2.01666e-10
1.64288e-07
2.33717e-10
1.64234e-07
2.68748e-10
1.64178e-07
3.06035e-10
1.64122e-07
3.44208e-10
1.64067e-07
3.81134e-10
1.64014e-07
4.12997e-10
1.63965e-07
4.33262e-10
4.34084e-10
3.36835e-77
5.31278e-80
2.91362e-74
1.65683e-76
1.63109e-72
1.30245e-74
3.06813e-71
2.46511e-73
3.75329e-70
2.33702e-72
3.04776e-69
5.51788e-71
2.4354e-68
4.99474e-70
1.19712e-67
3.69634e-69
-2.27965e-67
-7.69383e-69
-2.83893e-65
-1.04154e-66
-2.60309e-64
-1.03697e-65
-1.34488e-63
-5.8222e-65
-1.95234e-63
-9.19144e-65
7.79077e-62
3.98427e-63
-1.07734e-57
-5.96196e-59
-1.22965e-56
-7.31573e-58
-7.24278e-56
-4.59504e-57
-2.91095e-55
-1.95365e-56
-8.57783e-55
-6.0539e-56
-1.73119e-54
-1.28196e-55
-9.48e-55
-7.38239e-56
7.31344e-54
6.80833e-55
1.19866e-50
7.10693e-52
1.13611e-46
9.7801e-48
-1.76842e-36
-1.81343e-37
1.74027e-24
9.63958e-26
1.78325e-21
1.44309e-22
2.64911e-20
2.70456e-21
-1.10411e-17
-1.34837e-18
3.26453e-14
1.74556e-15
1.05371e-13
4.35119e-15
1.28449e-13
3.30043e-15
9.86853e-14
4.10162e-16
1.26019e-13
-1.77303e-15
1.5107e-13
-2.58712e-15
8.44582e-14
1.08712e-15
7.40829e-15
1.48804e-16
3.57755e-14
-1.35922e-16
9.90065e-14
-6.78949e-16
2.3867e-13
-2.01682e-15
3.61595e-13
-4.91523e-15
6.45906e-13
-6.90441e-15
2.08431e-12
-3.04495e-14
6.4414e-12
-1.34182e-13
2.39654e-11
-5.29168e-13
8.54175e-11
-1.75639e-12
2.96199e-10
-6.11574e-12
1.0609e-09
-2.1641e-11
2.66446e-09
-6.77253e-11
1.08178e-08
-2.14864e-10
5.80473e-08
-5.1963e-10
1.53653e-07
-1.75075e-09
1.73668e-07
-5.14033e-09
1.75501e-07
-7.147e-09
1.76589e-07
-7.13638e-09
1.77617e-07
-6.54514e-09
1.78529e-07
-5.77411e-09
1.79296e-07
-5.00967e-09
1.79953e-07
-4.31614e-09
1.80523e-07
-3.70848e-09
1.81019e-07
-3.18455e-09
1.81451e-07
-2.73603e-09
1.81828e-07
-2.35298e-09
1.82157e-07
-2.02597e-09
1.82445e-07
-1.74653e-09
1.82697e-07
-1.50742e-09
1.82919e-07
-1.30253e-09
1.8311e-07
-1.12671e-09
1.83275e-07
-9.75554e-10
1.83426e-07
-8.45439e-10
1.83563e-07
-7.33056e-10
1.83685e-07
-6.36247e-10
1.83786e-07
-5.52639e-10
1.83874e-07
-4.8034e-10
1.83951e-07
-4.1773e-10
1.84019e-07
-3.63433e-10
1.84079e-07
-3.16314e-10
1.84131e-07
-2.75401e-10
1.84176e-07
-2.39873e-10
1.84217e-07
-2.09016e-10
1.84252e-07
-1.8222e-10
1.84282e-07
-1.58935e-10
1.84309e-07
-1.38693e-10
1.84332e-07
-1.2107e-10
1.84348e-07
-1.05706e-10
1.84361e-07
-9.23423e-11
1.84376e-07
-8.06971e-11
1.8439e-07
-7.04726e-11
1.84402e-07
-6.17425e-11
1.84412e-07
-5.39978e-11
1.84428e-07
-4.7271e-11
1.84438e-07
-4.13962e-11
1.84444e-07
-3.63175e-11
1.84447e-07
-3.18479e-11
1.84453e-07
-2.79312e-11
1.84458e-07
-2.45059e-11
1.84462e-07
-2.15143e-11
1.84466e-07
-1.89413e-11
1.84469e-07
-1.66738e-11
1.84472e-07
-1.47577e-11
1.84475e-07
-1.29826e-11
1.84482e-07
-1.14621e-11
1.84486e-07
-1.0149e-11
1.84488e-07
-8.99855e-12
1.84489e-07
-7.97531e-12
1.84491e-07
-7.04972e-12
1.84492e-07
-6.22617e-12
1.84493e-07
-5.47956e-12
1.84494e-07
-4.80865e-12
1.84494e-07
-4.21463e-12
1.84493e-07
-3.68705e-12
1.84494e-07
-3.26502e-12
1.84494e-07
-2.83913e-12
1.84495e-07
-2.51683e-12
1.84495e-07
-2.25793e-12
1.84496e-07
-2.03846e-12
1.84496e-07
-1.83836e-12
1.84499e-07
-1.64683e-12
1.845e-07
-1.47211e-12
1.845e-07
-1.32447e-12
1.84501e-07
-1.17899e-12
1.84501e-07
-1.04396e-12
1.84501e-07
-9.30577e-13
1.84499e-07
-8.4701e-13
1.84497e-07
-7.77463e-13
1.84497e-07
-6.83363e-13
1.84497e-07
-5.73929e-13
1.84497e-07
-5.3303e-13
1.84497e-07
-5.18828e-13
1.84498e-07
-5.42459e-13
1.84498e-07
-5.50939e-13
1.84498e-07
-5.37985e-13
1.845e-07
-4.64271e-13
1.84501e-07
-3.85221e-13
1.845e-07
-4.17425e-13
1.845e-07
-3.94522e-13
1.845e-07
-3.66746e-13
1.84501e-07
-3.59789e-13
1.84505e-07
-3.51938e-13
1.84505e-07
-3.51577e-13
1.84505e-07
-3.58705e-13
1.84505e-07
-3.57866e-13
1.84506e-07
-3.44404e-13
1.84506e-07
-3.28454e-13
1.84506e-07
-3.11034e-13
1.84507e-07
-2.91335e-13
1.84507e-07
-2.69636e-13
1.84507e-07
-2.45481e-13
1.84507e-07
-2.22116e-13
1.84508e-07
-2.10735e-13
1.84508e-07
-2.01024e-13
1.84508e-07
-1.98594e-13
1.84508e-07
-2.01512e-13
1.84509e-07
-2.08196e-13
1.84509e-07
-2.23469e-13
1.84509e-07
-2.43687e-13
1.84509e-07
-2.53673e-13
1.84509e-07
-2.72743e-13
1.84509e-07
-2.85546e-13
1.8451e-07
-2.88737e-13
1.8451e-07
-2.84299e-13
1.8451e-07
-2.73929e-13
1.8451e-07
-2.5861e-13
1.8451e-07
-2.37546e-13
1.84511e-07
-2.10936e-13
1.84511e-07
-1.83063e-13
1.84511e-07
-1.5981e-13
1.84511e-07
-1.39298e-13
1.84512e-07
-1.20181e-13
1.84512e-07
-1.00694e-13
1.84512e-07
-8.1833e-14
1.84512e-07
-6.61095e-14
1.84513e-07
-5.48409e-14
1.84513e-07
-4.73284e-14
1.84513e-07
-4.27361e-14
1.84513e-07
-4.22701e-14
1.84513e-07
-4.81008e-14
1.84513e-07
-5.68974e-14
1.84513e-07
-6.0576e-14
1.84513e-07
-5.94112e-14
1.84513e-07
-4.85256e-14
1.84512e-07
-3.06888e-14
1.84512e-07
-8.43312e-15
1.84512e-07
1.53225e-14
1.84512e-07
3.36903e-14
1.84512e-07
3.10055e-14
1.84512e-07
3.44453e-14
1.84512e-07
4.00705e-14
1.84512e-07
6.40227e-14
1.84512e-07