/*--------------------------------*- C++ -*----------------------------------*\
| =========                 |                                                 |
| \\      /  F ield         | OpenFOAM: The Open Source CFD Toolbox           |
|  \\    /   O peration     | Version:  2406                                  |
|   \\  /    A nd           | Website:  www.openfoam.com                      |
|    \\/     M anipulation  |                                                 |
\*---------------------------------------------------------------------------*/
FoamFile
{
    version     2.0;
    format      ascii;
    arch        "LSB;label=32;scalar=64";
    class       volScalarField;
    location    "0.1";
    object      alpha.glycerin;
}
// * * * * * * * * * * * * * * * * * * * * * * * * * * * * * * * * * * * * * //

dimensions      [0 0 0 0 0 0 0];

internalField   nonuniform List<scalar> 
6250
(
2.56726e-62
2.93555e-61
1.01116e-59
1.77694e-58
2.33087e-57
2.39493e-56
1.98605e-55
1.33727e-54
7.32524e-54
3.26717e-53
1.19058e-52
3.59393e-52
9.86914e-52
2.93883e-51
9.11153e-51
3.6835e-50
3.64187e-49
5.04277e-48
5.52682e-47
5.4866e-46
3.35211e-45
1.767e-44
2.64293e-42
3.70603e-39
-1.3428e-27
-7.94975e-27
-9.41253e-14
-3.51795e-13
-3.45425e-13
0.0364991
0.627148
0.85613
0.965514
0.991508
0.991789
0.991757
0.995644
0.997413
0.998354
0.999032
0.999451
0.999667
0.999808
0.999911
0.999966
0.999987
0.999995
1
1
1.00002
1.00005
1.00009
1.00011
1.0001
1.00007
1.00003
1
0.999942
0.99993
0.99993
0.999974
0.999996
0.999996
0.999998
1
1.00001
1.00002
1.00003
1.00003
1.00004
1.00003
1.00003
1.00002
1.00001
0.999979
0.999932
0.999931
0.99993
0.999939
0.999993
1
1
1.00001
1.00001
1.00001
1.00001
1
0.999994
0.999975
0.999975
0.999975
0.999976
0.999994
0.999999
1
0.999979
0.999961
0.999961
0.999961
0.999961
0.999961
0.999967
0.999989
0.999989
0.999989
0.999996
0.999993
0.999955
0.999952
0.999952
0.999952
0.999952
0.999952
0.999952
0.999952
0.999978
0.999999
0.999985
0.999968
0.999967
0.999966
0.999963
0.999963
0.999963
0.999963
0.999963
0.999963
0.99998
0.999988
0.999985
0.999985
0.999985
0.999985
0.999983
0.999979
0.999978
0.999978
0.999978
0.999978
0.999978
0.999978
0.999984
0.999988
0.99999
0.99999
0.99999
0.999992
0.999992
0.999988
0.99998
0.99998
0.99998
0.99998
0.99998
0.999981
0.999988
0.999994
0.999995
0.999996
0.999997
0.999998
0.999998
0.999998
0.999998
0.999998
0.999997
0.999997
0.999996
0.999996
0.99999
0.999989
0.999992
0.999994
0.999981
0.999978
0.999978
0.999978
0.999989
0.999984
0.999968
0.999968
0.999968
0.999968
0.999968
0.999968
0.999968
0.999976
0.999975
0.999975
0.999985
0.999991
0.999989
0.999992
0.999981
0.999979
0.999979
0.999979
0.999979
0.999992
1
1
1
1
1
1
1.00001
1.00001
1.00001
1.00001
1.00001
1.00001
1.00001
1
1
1
1
1
0.999998
0.999995
0.999995
0.999995
0.999999
1
1
1
1
1
1.00001
1.00001
1.00001
1.00001
1.00001
1.00001
1.00001
1.00001
1.00001
1.00001
1
1
1
1
1.00001
1.00001
1.00001
1.00001
1
1
1
1
1.00001
8.12932e-63
4.51782e-62
1.56976e-60
1.86231e-59
1.98335e-58
1.76939e-57
1.29972e-56
7.84479e-56
3.9575e-55
1.69003e-54
6.16219e-54
1.93437e-53
5.37861e-53
1.46185e-52
3.93648e-52
1.26726e-51
1.05796e-50
1.53319e-49
2.02216e-48
2.18033e-47
1.83295e-46
4.94242e-45
1.95741e-42
3.27028e-39
-6.92594e-28
-5.46194e-27
-1.44359e-14
-8.13133e-14
-4.80034e-09
0.000850919
0.00405744
0.000245831
0.000247041
0.00560099
0.0495345
0.244539
0.543132
0.694028
0.739501
0.76723
0.809365
0.874587
0.932046
0.972173
0.996006
0.999937
0.999993
0.999996
1
1
1
1
0.999983
0.999953
0.999946
0.999952
0.99998
0.999982
0.999973
0.999992
1.00001
0.999983
0.999896
0.999883
0.999881
0.999881
0.999881
0.999945
0.999999
0.999997
0.999996
0.999997
0.999998
1
0.999969
0.999931
0.99993
0.99993
0.99993
0.99995
0.999996
1
1
1
1
1.00001
1.00001
1.00001
1.00001
1
0.999993
0.999999
1
1.00001
1.00001
1.00002
1.00003
1.00003
1.00004
1.00004
1.00005
1.00005
1.00005
1.00004
1.00004
1.00004
1.00004
1.00004
1.00004
1.00004
1.00003
1.00003
1.00003
1.00003
1.00003
1.00003
1.00003
1.00003
1.00003
1.00003
1.00004
1.00004
1.00004
1.00004
1.00004
1.00004
1.00005
1.00005
1.00005
1.00005
1.00005
1.00006
1.00006
1.00006
1.00006
1.00006
1.00006
1.00006
1.00006
1.00005
1.00005
1.00005
1.00005
1.00005
1.00005
1.00005
1.00005
1.00005
1.00005
1.00005
1.00005
1.00005
1.00005
1.00005
1.00005
1.00005
1.00005
1.00004
1.00004
1.00004
1.00004
1.00004
1.00004
1.00004
1.00004
1.00003
1.00003
1.00003
1.00003
1.00003
1.00003
1.00002
1.00002
1.00002
1.00002
1.00003
1.00003
1.00003
1.00003
1.00003
1.00003
1.00004
1.00004
1.00004
1.00004
1.00003
1.00003
1.00003
1.00003
1.00002
1.00002
1.00001
1.00001
1
1
0.999999
0.999998
0.999998
0.999998
0.999978
0.999957
0.999957
0.999956
0.999956
0.999956
0.999956
0.999956
0.999958
0.999958
0.999958
0.999958
0.999984
0.999999
0.999999
0.999999
1
1
1
1
1
1
1
0.999995
0.999995
0.999995
0.999995
0.999996
1
1
1
1
1.00001
1.00001
1.00001
1.00001
1.00001
1.00001
1.00001
1.00001
1.00001
1.00001
1.00001
1
1
0.999984
0.999981
0.999981
0.999981
0.999991
0.999997
8.95378e-65
4.69391e-63
7.84465e-62
1.02728e-60
3.83005e-60
1.32467e-59
6.76758e-59
3.25215e-58
1.36716e-57
5.16527e-57
1.75518e-56
4.89481e-56
1.07958e-55
9.98248e-55
1.41962e-54
1.2887e-53
6.69542e-52
1.95463e-50
3.69555e-49
4.45404e-48
7.01603e-47
2.92982e-45
4.97772e-43
2.00193e-39
-1.97086e-28
-1.83736e-27
-2.18714e-15
-1.5773e-14
-1.24942e-09
-2.58338e-08
8.68154e-06
0.000442092
0.000300283
2.08631e-06
4.63657e-07
3.12128e-07
3.08477e-07
2.88165e-07
3.08481e-07
5.33832e-07
1.33437e-06
2.95984e-06
0.0144961
0.147708
0.497006
0.75137
0.842159
0.896108
0.952777
0.989219
0.997639
0.998806
0.999223
0.999613
0.999843
0.999935
0.999974
0.999988
0.999996
1
1
1
1.00001
1
1
0.999999
0.999997
1
1
1.00001
1.00002
1.00003
1.00003
1.00004
1.00004
1.00004
1.00004
1.00004
1.00003
1.00002
1.00001
1
0.999997
0.999946
0.999933
0.999932
0.999931
0.999932
0.999947
0.999992
0.999998
0.999998
0.999999
1
0.999992
0.999963
0.999962
0.999961
0.999961
0.999961
0.999961
0.999987
1
1
0.999991
0.999959
0.999958
0.999957
0.999957
0.999957
0.999957
0.999957
0.99999
1
0.999991
0.999951
0.999949
0.999949
0.999949
0.999949
0.999948
0.999948
0.999948
0.999948
0.999983
0.999996
0.99996
0.999948
0.999947
0.999946
0.999946
0.999946
0.999946
0.999946
0.999946
0.999946
0.999946
0.99996
0.999995
0.999995
0.999977
0.999977
0.999977
0.999977
0.999977
0.999977
0.999977
0.999977
0.999977
0.999988
0.999997
0.999995
0.999993
0.999993
0.999995
0.999999
0.999994
0.999986
0.999986
0.999986
0.999986
0.999985
0.999985
0.999985
0.999985
0.999988
0.999998
1
0.999999
0.999999
0.999999
0.999999
0.999999
0.999999
1
1
1
1
0.999993
0.999983
0.999982
0.999982
0.999982
0.999982
0.999983
0.999998
1
1
0.999985
0.999952
0.99995
0.99995
0.999951
0.999951
0.999951
0.999951
0.999951
0.999966
0.999995
0.999994
0.999992
0.999992
0.999977
0.999956
0.999956
0.999956
0.999956
0.999957
0.999975
0.999997
0.999998
0.999999
0.999999
1
1
1
1
1
1
1
1
1
1
1
1
1
1
1
1
1
1
1
1
1.00001
1.00001
1.00001
1.00001
1.00001
1.00002
1.00002
1.00002
1.00002
1.00002
1.00002
1.00002
1.00001
1.00001
1.00001
1.00001
1.00001
-2.0305e-69
-3.39017e-67
-5.39447e-66
6.03348e-65
-3.37113e-63
-6.09671e-63
-4.79787e-62
-2.95819e-61
-6.58334e-65
-1.45878e-63
-2.57851e-63
-2.78519e-62
2.34947e-56
1.63289e-54
-1.0618e-52
-1.24601e-51
-4.83431e-51
-3.29375e-51
4.47843e-50
7.46441e-49
1.86743e-47
5.98036e-46
2.44727e-43
9.27744e-40
-4.7666e-29
4.02848e-18
2.04785e-15
2.48172e-15
-2.42641e-10
-8.82319e-10
2.27527e-07
7.75639e-06
1.50664e-05
1.4523e-05
4.58965e-06
4.64739e-07
2.91522e-07
1.52212e-07
1.19634e-05
3.91807e-05
3.85687e-05
3.39898e-06
4.44875e-06
9.77963e-06
1.50691e-05
2.14713e-05
0.00397332
0.0305484
0.190414
0.658217
0.928802
0.969164
0.986758
0.99633
0.998805
0.999442
0.999746
0.999887
0.999937
0.999956
0.999973
0.999989
0.999999
1
1
0.999986
0.999929
0.999918
0.999916
0.999915
0.999915
0.999915
0.999942
0.999992
0.999997
0.999994
0.999993
0.999995
0.999997
1
1
1
1
1
0.99996
0.999933
0.99996
0.999996
0.999999
1
1
1
0.999995
0.999976
0.999964
0.99999
0.999999
1
1
1
1.00001
1.00001
1.00001
1.00001
1.00002
1.00002
1.00002
1.00002
1.00002
1.00002
1.00001
1.00001
1.00001
1.00001
1.00001
1.00001
1.00001
1.00001
1.00001
1.00001
1.00001
1.00001
1.00001
1.00001
1.00001
1.00001
1.00001
1.00001
1.00001
1.00001
1.00001
1.00001
1.00001
1.00002
1.00002
1.00002
1.00002
1.00002
1.00002
1.00002
1.00002
1.00002
1.00002
1.00002
1.00002
1.00002
1.00002
1.00002
1.00002
1.00002
1.00002
1.00003
1.00003
1.00003
1.00003
1.00003
1.00003
1.00003
1.00003
1.00003
1.00003
1.00003
1.00003
1.00003
1.00003
1.00003
1.00002
1.00002
1.00002
1.00002
1.00002
1.00002
1.00002
1.00002
1.00002
1.00002
1.00002
1.00002
1.00002
1.00002
1.00002
1.00002
1.00002
1.00002
1.00002
1.00002
1.00002
1.00002
1.00002
1.00002
1.00002
1.00002
1.00001
1.00001
1.00001
1
0.999988
0.999973
0.999991
0.999992
0.999992
0.999992
0.999992
0.999992
0.999976
0.999957
0.999957
0.999957
0.999958
0.999958
0.999982
0.999968
0.999963
0.999963
0.999963
0.999963
0.999963
0.999983
0.999999
0.999999
0.999999
0.999999
0.999999
0.999999
0.999999
1
1
0.999999
0.999998
0.999998
0.999998
0.999999
1
1
1
1
1
1.00001
1.00001
1.00001
1.00001
1.00001
1.00001
1.00001
1.00001
1.00001
1.00001
1.00001
1
1
-1.25997e-74
-1.79164e-69
-2.03513e-68
-5.84864e-65
7.08218e-66
-2.48016e-69
-3.42621e-68
-1.67518e-67
-1.25081e-60
-1.55208e-58
-1.41886e-57
-7.31338e-57
-1.06e-56
4.06672e-55
-5.84534e-51
-6.67753e-50
-3.93909e-49
-1.58618e-48
-4.6831e-48
-9.46513e-48
-5.18462e-48
1.23823e-47
3.56165e-44
6.02022e-40
-9.39009e-30
6.07021e-18
3.78733e-15
8.62085e-14
-4.47063e-11
-1.09189e-09
1.3456e-08
2.81177e-08
3.08221e-08
2.75394e-07
6.44535e-07
8.96967e-07
3.40915e-07
7.33757e-08
2.21562e-07
8.09836e-07
1.58742e-06
1.52556e-06
3.78654e-06
1.23254e-05
3.61834e-05
0.000146848
0.000650325
0.00283046
0.0090532
0.0263126
0.0983569
0.398893
0.894231
0.987564
0.995636
0.997835
0.998938
0.999535
0.999781
0.999882
0.999931
0.999962
0.999982
0.999994
0.999998
0.999993
0.999988
0.999988
0.999942
0.999916
0.999915
0.999963
0.999997
0.999998
0.999998
0.999998
0.999998
0.999999
1
1
1
1
1
1
0.999998
0.999961
0.999942
0.99994
0.99994
0.99994
0.99994
0.999989
0.999991
0.999983
0.999961
0.999962
0.999964
0.999963
0.999963
0.999963
0.999963
0.999964
0.999989
1
0.999999
0.999998
0.999998
0.999999
1
1
0.99999
0.999982
0.999981
0.999981
0.999981
0.999981
0.999981
0.999983
0.999995
0.999999
0.999999
0.999999
1
0.999997
0.999982
0.999971
0.99997
0.99997
0.99997
0.99997
0.99997
0.99997
0.99997
0.99998
0.999982
0.999977
0.999977
0.999977
0.999983
0.999996
0.999999
0.999996
0.999996
0.999996
0.999997
0.999997
0.999998
0.999998
0.999999
1
1
1
1
1
1
1
1
1
1
1
1.00001
1.00001
1.00001
1.00001
1.00001
1.00001
1.00001
1.00001
1.00001
1.00001
1.00001
1.00001
1.00001
1.00001
1.00001
1.00001
1.00001
1.00001
1
1
1
1
1
1
1
1
1
1
1
1
1
1
1
1
0.999995
0.999971
0.999971
0.999971
0.999971
0.999982
0.999992
0.999992
0.999992
0.999992
0.999991
0.999991
0.999991
0.999974
0.999958
0.999963
0.999972
0.999964
0.999963
0.999963
0.999963
0.999969
0.999993
0.999997
0.999997
0.999998
0.999999
1
1
1
1
1
1
1
1
1
1
1
1
1
1
1
1
1.00001
1.00001
1.00001
1.00001
1.00001
1.00002
1.00002
1.00001
1.00001
1.00001
1.00001
1.00001
1.00001
-2.70562e-70
4.28797e-86
0
0
-2.81017e-81
-1.1864e-61
-2.09479e-59
-2.13004e-58
-1.14655e-57
-7.64752e-57
-4.74344e-56
-2.16898e-55
-7.43194e-55
-1.95241e-54
-2.46532e-49
-2.81937e-48
-1.66599e-47
-6.74913e-47
-2.09774e-46
-5.30093e-46
-1.12122e-45
-1.99467e-45
0
4.96267e-40
-1.43223e-30
5.36516e-18
5.79145e-16
8.41366e-14
-5.84465e-12
5.84837e-10
7.33928e-10
1.43823e-09
1.76566e-09
1.74831e-09
1.96634e-09
1.2379e-08
1.77033e-08
2.21224e-08
4.49785e-08
5.99524e-08
1.92773e-07
4.17871e-07
1.68359e-06
5.33913e-06
1.86873e-05
6.2915e-05
0.000195112
0.000668661
0.002255
0.00786763
0.0253515
0.0760971
0.292393
0.79821
0.976269
0.988585
0.994068
0.99729
0.998762
0.999429
0.999732
0.999872
0.999943
0.999976
0.999988
0.999987
0.999988
0.999989
0.99999
0.99999
0.999991
0.999993
0.999997
1
1
1.00001
1.00001
1.00001
1.00001
1.00001
1.00001
1.00001
1.00001
1.00001
1
0.999984
0.999946
0.999964
0.999991
0.999993
0.999994
0.999994
0.999994
0.999969
0.999959
0.999966
0.999989
0.999997
0.999998
0.999999
1
1
1
1
1
1
1
1
1
1
1
0.999997
0.999987
0.999996
0.999999
1
1
1
1
1
1
1
1
0.999991
0.999977
0.999976
0.999992
0.999998
0.999999
0.999999
0.999999
0.999999
1
1
1
1
1
1
1
1
1
1
1.00001
1.00001
1.00001
1.00001
1.00001
1.00001
1.00001
1.00001
1.00001
1.00001
1.00001
1.00001
1.00001
1.00002
1.00002
1.00002
1.00002
1.00002
1.00002
1.00002
1.00002
1.00002
1.00002
1.00002
1.00002
1.00002
1.00002
1.00002
1.00002
1.00002
1.00001
1.00001
1.00001
1.00001
1.00001
1.00001
1.00001
1.00001
1.00001
1.00001
1.00001
1.00001
1.00001
1.00001
1.00001
1.00001
1.00001
1.00001
1.00001
1.00001
1.00001
1.00001
1
1
1
1
0.999989
0.999976
0.999975
0.999975
0.999975
0.999975
0.999984
0.999991
0.99998
0.999965
0.999961
0.999972
0.999963
0.999963
0.999963
0.999963
0.999963
0.999963
0.999963
0.999963
0.999965
0.999989
0.999999
0.999999
1
1
1
1
0.999999
0.999999
0.999999
0.999999
0.999999
0.999999
0.999999
1
1
1
1
1
1
1.00001
1.00001
1.00001
1.00001
1.00001
1.00001
1.00001
1.00001
1.00001
1.00001
1.00001
-8.75036e-72
-6.32317e-72
-2.84051e-65
-4.87732e-64
-4.48503e-63
-5.3833e-60
-6.31095e-59
-3.82791e-58
-1.59588e-57
-4.3471e-56
-4.22568e-55
-2.22745e-54
-8.04124e-54
-2.22764e-53
-6.88246e-48
-7.88126e-47
-4.67513e-46
-1.91229e-45
-6.02428e-45
-1.54362e-44
-3.31688e-44
-5.87707e-44
5.18356e-41
9.53265e-40
-1.64258e-31
2.03736e-18
1.8812e-16
1.6424e-14
-4.73948e-13
1.1103e-11
1.92331e-11
5.80458e-11
9.6771e-11
1.67822e-10
4.52874e-10
9.69182e-10
3.17047e-09
5.99014e-09
1.68215e-08
3.20388e-08
1.26843e-07
3.06272e-07
1.20292e-06
3.08835e-06
1.17843e-05
3.25906e-05
0.00011561
0.00036829
0.00116473
0.00381855
0.0120315
0.0398138
0.125821
0.470421
0.920509
0.964423
0.981957
0.991323
0.995957
0.99811
0.9991
0.999571
0.999799
0.999905
0.999954
0.999974
0.999983
0.999987
0.99999
0.999993
0.999994
0.999994
0.999995
0.999997
1
1
1
1.00001
1.00001
1.00001
1
1
1
0.999984
0.999965
0.999963
0.999983
0.999991
0.999992
0.999993
0.999993
0.999994
0.999993
0.999982
0.999953
0.999953
0.999952
0.999952
0.999952
0.999952
0.999952
0.999966
0.999994
1
0.999999
0.999999
1
1
1
1
0.999996
0.999988
0.999987
0.999987
0.999988
0.999988
0.999992
0.999999
1
1
1
0.999999
0.999999
0.999999
1
0.999998
0.999985
0.999974
0.999973
0.999972
0.999972
0.999972
0.999972
0.999975
0.999992
1
1
0.999999
1
1
1
1
1
1
1
1
1
1
1
1
1.00001
1.00001
1.00001
1.00001
1.00001
1.00001
1.00001
1.00001
1.00001
1.00001
1.00001
1.00001
1.00001
1.00001
1.00001
1.00001
1.00001
1.00001
1.00001
1.00001
1.00001
1.00001
1.00001
1.00001
1.00001
1.00001
1.00001
1.00001
1.00001
1.00001
1.00001
1.00001
1.00001
1.00001
1.00001
1.00001
1.00001
1.00001
1.00001
1.00001
1.00001
1.00001
1
1
1
1
1
1
0.999998
0.999983
0.999976
0.999975
0.999975
0.999978
0.999986
0.999989
0.999985
0.999984
0.999985
0.999985
0.999971
0.999957
0.999963
0.999963
0.999963
0.999963
0.999963
0.999963
0.999976
0.999996
0.999998
0.999999
0.999999
0.999999
0.999999
1
0.999999
0.999999
0.999999
0.999999
1
1
1
1
1
1
1
1
1.00001
1.00001
1.00001
1.00001
1.00001
1.00001
1.00001
1.00001
1.00001
1.00001
1.00001
1.00001
-1.13959e-73
-2.88995e-67
-2.52359e-64
-3.02423e-63
-4.04193e-61
-9.85417e-60
-8.67432e-59
-4.55889e-58
-1.71899e-57
-1.55866e-54
-1.55146e-53
-7.8834e-53
-2.73227e-52
-7.2828e-52
-7.86601e-47
-8.64765e-46
-4.91102e-45
-1.92054e-44
-5.81169e-44
-1.44759e-43
-3.07581e-43
-5.53585e-43
4.81039e-42
4.81502e-40
-1.38102e-32
3.45579e-18
1.43018e-16
3.1201e-15
-1.50367e-14
2.86744e-13
9.73083e-13
1.0431e-11
3.74176e-11
1.14401e-10
3.18062e-10
8.11317e-10
1.98787e-09
4.78663e-09
1.49352e-08
3.27896e-08
1.30119e-07
3.08904e-07
1.19403e-06
2.87385e-06
1.06947e-05
2.9943e-05
8.88539e-05
0.000301782
0.000917567
0.00307993
0.00928385
0.0276531
0.0825165
0.334151
0.839687
0.946207
0.971933
0.985403
0.992433
0.996093
0.997993
0.998994
0.999505
0.999748
0.999871
0.999934
0.999964
0.999979
0.999972
0.999937
0.999936
0.999936
0.999936
0.999936
0.999936
0.999946
0.999986
1
1
1
1
1
0.999994
0.999963
0.999963
0.999962
0.999962
0.999962
0.999962
0.999962
0.999971
0.999984
0.999993
0.999996
0.999997
0.999998
0.999999
0.999999
1
1
1
1
1
1
1
1
1
1
1
1
1
0.99999
0.999995
0.999999
1
1
1
1
1
1
1
1
1
1
1
0.999984
0.999976
0.999974
0.999979
0.999994
0.999998
0.999999
0.999999
0.999999
0.999999
1
1
1
1
1
1
1
1
1
1
1
1
1
1
1.00001
1.00001
1.00001
1.00001
1.00001
1.00001
1.00001
1.00001
1.00001
1.00001
1.00001
1.00001
1.00001
1.00001
1.00001
1.00001
1.00001
1.00001
1.00001
1.00001
1.00001
1.00001
1.00001
1.00001
1.00001
1.00001
1.00001
1.00001
1.00001
1.00001
1.00001
1.00001
1.00001
1.00001
1.00001
1.00001
1.00001
1.00001
1.00001
1.00001
1.00001
1.00001
1.00001
1.00001
1.00001
1
1
1
1
1
0.999987
0.999977
0.999976
0.999976
0.999984
0.999985
0.999986
0.999985
0.999985
0.999985
0.999985
0.999984
0.999956
0.99996
0.999963
0.999963
0.999963
0.999963
0.999963
0.999963
0.999977
0.999997
0.999998
0.999999
0.999999
0.999999
0.999999
0.999999
0.999999
0.999999
0.999999
0.999999
0.999999
1
1
1
1
1
1
1.00001
1.00001
1.00001
1.00001
1.00001
1.00001
1.00001
1.00001
1.00001
1.00001
1.00001
1.00001
-4.06561e-71
-1.42208e-66
-6.8172e-64
-7.88259e-63
-2.6405e-59
-3.11866e-58
-1.87282e-57
-7.64011e-57
-2.38605e-56
-4.24562e-53
-3.94e-52
-1.88102e-51
-6.14734e-51
-1.54202e-50
-1.9077e-47
-2.16301e-46
-1.26177e-45
-5.0394e-45
-1.53514e-44
-3.62034e-44
-6.41456e-44
-6.70212e-44
1.803e-43
4.6256e-41
-8.25435e-34
3.03218e-18
1.35506e-16
1.6233e-15
9.33262e-15
1.46431e-13
6.08138e-13
3.38723e-12
1.44905e-11
5.12198e-11
1.59843e-10
5.3794e-10
1.82606e-09
5.02257e-09
1.59548e-08
3.49371e-08
1.38178e-07
3.21685e-07
1.23891e-06
2.87276e-06
1.07246e-05
2.83548e-05
8.7003e-05
0.000273152
0.000830772
0.00289663
0.00881332
0.0259353
0.0732634
0.284075
0.780143
0.939192
0.967954
0.98318
0.991197
0.995406
0.99761
0.998757
0.99935
0.999662
0.999821
0.999901
0.999943
0.999966
0.999978
0.999986
0.99999
0.999993
0.999995
0.999997
1
1
1
1
1.00001
1
1
1
1
0.999998
0.999979
0.999984
0.999991
0.999991
0.999991
0.999991
0.999991
0.999991
0.999976
0.999951
0.99995
0.999949
0.999948
0.999948
0.999948
0.999948
0.999964
0.999993
0.999999
0.999999
0.999999
0.999999
1
1
1
0.999994
0.999986
0.999985
0.999985
0.999985
0.999985
0.999985
0.999985
0.999992
0.999999
0.999999
0.999999
1
1
1
0.999999
0.999997
0.999978
0.999972
0.999971
0.99997
0.99997
0.99997
0.99997
0.999976
0.999994
1
0.999999
0.999999
0.999999
0.999999
1
1
1
1
1
1
1
1
1
1
1.00001
1.00001
1.00001
1.00001
1.00001
1.00001
1.00001
1.00001
1.00001
1.00001
1.00001
1.00001
1.00001
1.00001
1.00001
1.00001
1.00001
1.00001
1.00001
1.00001
1.00001
1.00001
1.00001
1.00001
1.00001
1.00001
1.00001
1.00001
1.00001
1.00001
1.00001
1.00001
1.00001
1.00001
1.00001
1.00001
1.00001
1.00001
1.00001
1.00001
1.00001
1.00001
1
1
1
1
1
1
0.999994
0.999978
0.999977
0.999976
0.999976
0.999976
0.99998
0.999985
0.999985
0.999985
0.999985
0.999984
0.999976
0.999955
0.999963
0.999963
0.999963
0.999963
0.999963
0.999963
0.999963
0.999978
0.999997
0.999998
0.999998
0.999999
0.999999
0.999999
0.999999
0.999999
0.999999
0.999999
0.999999
1
1
1
1
1
1
1
1
1.00001
1.00001
1.00001
1.00001
1.00001
1.00001
1.00001
1.00001
1.00001
1.00001
1.00001
-1.44401e-68
-6.53291e-64
-1.65452e-61
-1.8838e-60
-1.66165e-59
-1.16666e-58
-6.13259e-58
-5.91287e-58
2.60592e-55
-1.64591e-54
-3.24469e-53
-8.81909e-53
6.10888e-51
1.22254e-48
1.77832e-47
1.23067e-46
9.78314e-46
6.11004e-45
3.72434e-44
1.7113e-43
1.09071e-42
6.65952e-42
4.2846e-41
6.50483e-39
-3.33082e-35
2.87491e-18
1.32774e-16
1.55183e-15
1.67439e-14
1.17862e-13
6.50152e-13
3.21692e-12
1.40977e-11
5.16171e-11
1.55732e-10
5.53548e-10
1.92947e-09
5.33474e-09
1.69805e-08
3.70269e-08
1.46159e-07
3.34675e-07
1.29001e-06
2.9186e-06
1.10057e-05
2.82498e-05
8.96813e-05
0.000267173
0.000831194
0.0027972
0.00878067
0.0256666
0.0719859
0.26867
0.755277
0.936106
0.966104
0.982088
0.990571
0.995054
0.997412
0.998651
0.999301
0.999639
0.999816
0.999907
0.99995
0.999968
0.999981
0.999987
0.999989
0.999991
0.999993
0.999957
0.999966
0.999994
0.999999
1
1
1
1
1
0.999988
0.999953
0.999951
0.99995
0.99995
0.999949
0.999949
0.999949
0.999971
0.999989
0.999984
0.999969
0.999952
0.999978
0.999992
0.999994
0.999995
0.999996
0.999996
0.999999
0.999999
0.999999
1
1
1
1
1
1
0.999998
0.999986
0.999991
0.999998
0.999999
0.999999
1
1
1
1
1
1
1
1
1
0.999988
0.999975
0.999974
0.999972
0.999987
0.999995
0.999996
0.999997
0.999998
0.999998
0.999999
0.999999
0.999999
1
1
1
1
1
1
1
1
1
1
1
1.00001
1.00001
1.00001
1.00001
1.00001
1.00001
1.00001
1.00001
1.00001
1.00001
1.00001
1.00001
1.00001
1.00001
1.00001
1.00001
1.00001
1.00001
1.00001
1.00001
1.00001
1.00001
1.00001
1.00001
1.00001
1.00001
1.00001
1.00001
1.00001
1.00001
1.00001
1.00001
1.00001
1.00001
1.00001
1.00001
1.00001
1.00001
1.00001
1.00001
1.00001
1.00001
1.00001
1.00001
1.00001
1.00001
1
1
1
1
1
1
0.999991
0.999976
0.999975
0.999973
0.999983
0.999984
0.999985
0.999984
0.999984
0.999976
0.999946
0.999963
0.999963
0.999963
0.999963
0.999963
0.999963
0.999963
0.99998
0.999996
0.999997
0.999998
0.999999
0.999999
0.999999
0.999999
0.999999
0.999999
1
1
1
1
1
1
1
1
1
1.00001
1.00001
1.00001
1.00001
1.00001
1.00001
1.00001
1.00001
1.00001
1.00001
1.00001
1.00001
-7.04434e-67
-7.07138e-63
-8.10443e-61
-9.08778e-60
-5.45096e-59
-2.28396e-58
-3.32221e-58
8.30008e-56
2.54777e-54
3.04642e-53
2.24047e-52
4.54921e-51
1.1015e-48
4.69214e-47
9.64835e-46
1.46492e-44
1.4183e-43
1.53874e-42
2.57657e-41
4.44209e-40
3.99074e-39
3.43055e-38
1.86602e-37
1.68853e-35
0
2.81872e-18
1.31629e-16
1.53317e-15
1.64729e-14
1.13648e-13
6.55798e-13
3.2769e-12
1.44736e-11
5.24125e-11
1.60329e-10
5.76599e-10
2.01486e-09
5.55994e-09
1.77035e-08
3.84889e-08
1.51793e-07
3.43298e-07
1.32484e-06
2.95804e-06
1.12196e-05
2.84913e-05
9.19272e-05
0.000267759
0.000846007
0.00279586
0.00886647
0.0256987
0.0721544
0.264523
0.747568
0.93492
0.965358
0.981629
0.990289
0.994889
0.997317
0.998592
0.999266
0.999612
0.999782
0.999879
0.99993
0.999954
0.999968
0.999977
0.999954
0.999953
0.999964
0.999956
0.999955
0.999955
0.999956
0.999957
0.99997
0.999993
1
1
0.999999
0.999998
0.999998
0.999997
0.999996
0.999996
0.999996
0.999992
0.999974
0.999974
0.999981
0.999983
0.999966
0.99997
0.999973
0.999972
0.999975
0.999992
0.999997
0.999998
0.999997
0.999997
0.999998
0.999999
0.999998
0.999999
1
1
0.999999
0.999991
0.999991
0.999992
0.999997
0.999999
0.999999
0.999999
0.999999
1
0.999999
0.999999
1
1
1
0.999993
0.999976
0.999975
0.999974
0.999976
0.999976
0.999988
0.999997
0.999998
0.999998
0.999999
0.999999
1
1
1
1
1
1
1
1
1
1
1
1
1.00001
1.00001
1.00001
1.00001
1.00001
1.00001
1.00001
1.00001
1.00001
1.00001
1.00001
1.00001
1.00001
1.00001
1.00001
1.00001
1.00001
1.00001
1.00001
1.00001
1.00001
1.00001
1.00001
1.00001
1.00001
1.00001
1.00001
1.00001
1.00001
1.00001
1.00001
1.00001
1.00001
1.00001
1.00001
1.00001
1.00001
1.00001
1.00001
1.00001
1.00001
1.00001
1.00001
1.00001
1.00001
1.00001
1
1
1
1
1
1
1
0.999986
0.999973
0.999972
0.999971
0.999972
0.999982
0.999984
0.999982
0.999974
0.999955
0.999963
0.999963
0.999963
0.999963
0.999963
0.999963
0.999963
0.999979
0.999996
0.999997
0.999998
0.999999
0.999999
0.999999
0.999999
0.999999
1
1
1
1
1
1
1
1
1
1
1.00001
1.00001
1.00001
1.00001
1.00001
1.00001
1.00001
1.00001
1.00001
1.00001
1.00001
1.00001
-1.29002e-64
-5.39384e-62
-7.59121e-60
-8.45e-59
-4.97827e-58
-5.43573e-55
-5.14798e-54
-4.27636e-54
1.49791e-52
1.82286e-51
1.23585e-50
8.05792e-49
5.32235e-47
1.13487e-45
3.41719e-44
4.75292e-43
4.81622e-42
5.0173e-41
7.77295e-40
2.21721e-38
3.92296e-37
2.74937e-36
3.17224e-35
2.15999e-34
3.71282e-36
2.79146e-18
1.30131e-16
1.51295e-15
1.63283e-14
1.11146e-13
6.51446e-13
3.27545e-12
1.45804e-11
5.25229e-11
1.62656e-10
5.8817e-10
2.05761e-09
5.67265e-09
1.80614e-08
3.91544e-08
1.54282e-07
3.4682e-07
1.33781e-06
2.9729e-06
1.12837e-05
2.85582e-05
9.23273e-05
0.00026786
0.000847461
0.00278862
0.00888028
0.025717
0.0721762
0.261804
0.742319
0.934232
0.964927
0.98136
0.990131
0.994801
0.997269
0.998564
0.999241
0.99959
0.999777
0.999875
0.999923
0.999947
0.99996
0.999971
0.999984
0.999992
0.999995
0.999997
0.999998
1
1
1
1
1
1
1
1
0.999997
0.99999
0.99993
0.999925
0.999931
0.999927
0.999926
0.999926
0.999926
0.99993
0.999982
0.999989
0.999989
0.99998
0.999972
0.99998
0.999992
0.999985
0.999983
0.999984
0.999984
0.999996
0.999999
0.999999
1
1
0.999997
0.999991
0.999991
0.99999
0.99999
0.99999
0.99999
0.99999
0.99999
0.999994
0.999998
0.999998
0.999998
1
1
0.999999
0.999999
0.999993
0.999976
0.999976
0.999976
0.999976
0.999976
0.999976
0.999983
0.999996
0.999999
0.999999
0.999999
0.999999
0.999999
0.999999
0.999999
1
1
1
1
1
1
1
1
1.00001
1.00001
1.00001
1.00001
1.00001
1.00001
1.00001
1.00001
1.00001
1.00001
1.00001
1.00001
1.00001
1.00001
1.00001
1.00001
1.00001
1.00001
1.00001
1.00001
1.00001
1.00001
1.00001
1.00001
1.00001
1.00001
1.00001
1.00001
1.00001
1.00001
1.00001
1.00001
1.00001
1.00001
1.00001
1.00001
1.00001
1.00001
1.00001
1.00001
1.00001
1.00001
1.00001
1.00001
1
1
1
1
1
1
1
0.999997
0.999976
0.999972
0.999971
0.999971
0.999971
0.999977
0.999982
0.999981
0.999975
0.999954
0.999959
0.999963
0.999963
0.999963
0.999963
0.999963
0.999963
0.999978
0.999996
0.999997
0.999998
0.999999
0.999999
0.999999
0.999999
1
1
1
1
1
1
1
1
1
1
1
1.00001
1.00001
1.00001
1.00001
1.00001
1.00001
1.00001
1.00001
1.00001
1.00001
1.00001
1.00001
-9.48953e-66
-2.27099e-61
-9.56462e-60
-1.26538e-58
0
0
5.93317e-54
9.23792e-52
1.29568e-50
1.64864e-49
8.76531e-49
1.80326e-46
3.06406e-45
4.57181e-44
7.38185e-43
9.11725e-42
1.12877e-40
2.44385e-39
2.0515e-37
2.33182e-36
2.8585e-36
2.46845e-36
2.16314e-35
1.29246e-34
5.60099e-35
2.73367e-18
1.2636e-16
1.47177e-15
1.59521e-14
1.09036e-13
6.40585e-13
3.23046e-12
1.44136e-11
5.19967e-11
1.61667e-10
5.86134e-10
2.05304e-09
5.66075e-09
1.8019e-08
3.8925e-08
1.5331e-07
3.44606e-07
1.3268e-06
2.94638e-06
1.11479e-05
2.81163e-05
9.04879e-05
0.000263109
0.000824271
0.00272223
0.00874641
0.0256483
0.0716352
0.25584
0.730991
0.933236
0.964352
0.981035
0.989953
0.994702
0.997207
0.998533
0.999235
0.999604
0.999799
0.999899
0.999938
0.999959
0.999972
0.999978
0.999981
0.999985
0.99998
0.999976
0.999976
0.999978
0.999978
0.999978
0.999979
0.999992
1
1
1
1
1
1
1
0.999988
0.999928
0.999978
0.999987
0.999988
0.999988
0.999989
0.999989
0.999989
0.999989
0.999983
0.999982
0.999982
0.999981
0.999984
0.999995
0.999999
0.999999
0.999999
1
1
1
1
1
1
1
0.999999
0.99999
0.99999
0.999992
0.999997
0.999998
0.999998
0.999997
0.999999
0.999999
0.999999
0.999999
0.999999
0.99999
0.999978
0.999977
0.999976
0.999976
0.999976
0.999976
0.99999
0.999997
0.999998
0.999998
0.999998
0.999999
0.999999
0.999999
1
1
1
1
1
1
1
1
1.00001
1.00001
1.00001
1.00001
1.00001
1.00001
1.00001
1.00001
1.00001
1.00001
1.00001
1.00001
1.00001
1.00001
1.00001
1.00001
1.00001
1.00001
1.00001
1.00001
1.00001
1.00001
1.00001
1.00001
1.00001
1.00001
1.00001
1.00001
1.00001
1.00001
1.00001
1.00001
1.00001
1.00001
1.00001
1.00001
1.00001
1.00001
1.00001
1.00001
1.00001
1.00001
1.00001
1.00001
1.00001
1.00001
1.00001
1
1
1
1
1
0.999997
0.999978
0.999972
0.999971
0.999971
0.999971
0.999978
0.99998
0.999979
0.999963
0.999959
0.999963
0.999963
0.999963
0.999962
0.999962
0.999963
0.999963
0.999974
0.999995
0.999997
0.999998
0.999998
0.999999
0.999999
0.999999
0.999999
1
1
1
1
1
1
1
1
1
1
1.00001
1.00001
1.00001
1.00001
1.00001
1.00001
1.00001
1.00001
1.00001
1.00001
1.00001
1.00001
-1.96104e-69
-3.92921e-64
1.19979e-73
-7.12929e-71
1.09646e-57
6.0798e-57
8.37419e-52
2.64316e-50
7.60818e-49
1.61837e-48
6.25349e-48
2.63272e-44
3.66506e-43
4.13055e-42
7.6303e-41
1.27885e-39
2.3535e-38
3.70288e-37
1.12871e-35
1.82708e-36
1.47271e-36
4.08531e-35
8.82657e-34
1.00994e-32
6.28268e-31
2.71655e-18
1.21744e-16
1.425e-15
1.54386e-14
1.07713e-13
6.25726e-13
3.15378e-12
1.40372e-11
5.10212e-11
1.58121e-10
5.73781e-10
2.01351e-09
5.56042e-09
1.76896e-08
3.80472e-08
1.49735e-07
3.38172e-07
1.29397e-06
2.90421e-06
1.07962e-05
2.74752e-05
8.5097e-05
0.00025688
0.000769183
0.00261052
0.00844138
0.0256238
0.0706856
0.24628
0.711472
0.9318
0.963608
0.980659
0.989754
0.994588
0.997153
0.998501
0.999217
0.999586
0.99977
0.999866
0.99992
0.999945
0.999959
0.99997
0.999947
0.999946
0.999951
0.999985
0.999994
0.999996
0.999997
0.999998
1
1
1
1
1
1
0.999999
0.999993
0.999945
0.999936
0.999932
0.999934
0.999934
0.999934
0.999957
0.999988
0.999989
0.999989
0.999989
0.999989
0.999989
0.999985
0.999981
0.999982
0.999983
0.999988
0.999997
0.999999
0.999999
1
1
1
1
1
0.999999
0.999993
0.999991
0.999991
0.999995
0.999997
0.999997
0.999996
0.999995
0.999998
0.999999
0.999999
0.999999
0.999998
0.999997
0.999985
0.999978
0.999977
0.999976
0.999976
0.999986
0.999996
0.999998
0.999998
0.999999
0.999999
0.999999
1
1
1
1
1
1
1
1
1
1.00001
1.00001
1.00001
1.00001
1.00001
1.00001
1.00001
1.00001
1.00001
1.00001
1.00001
1.00001
1.00001
1.00001
1.00001
1.00001
1.00001
1.00001
1.00001
1.00001
1.00001
1.00001
1.00001
1.00001
1.00001
1.00001
1.00001
1.00001
1.00001
1.00001
1.00001
1.00001
1.00001
1.00001
1.00001
1.00001
1.00001
1.00001
1.00001
1.00001
1.00001
1.00001
1.00001
1.00001
1.00001
1.00001
1.00001
1.00001
1
1
1
1
1
0.999998
0.999982
0.999972
0.999971
0.99997
0.999972
0.999977
0.999979
0.999977
0.99997
0.999962
0.999962
0.999962
0.999962
0.99996
0.999952
0.999958
0.999972
0.99999
0.999996
0.999997
0.999998
0.999998
0.999999
0.999999
0.999999
1
1
1
1
1
1
1
1
1
1
1
1.00001
1.00001
1.00001
1.00001
1.00001
1.00001
1.00001
1.00001
1.00001
1.00001
1.00001
1.00001
-2.26407e-67
3.27925e-61
5.92846e-58
6.36559e-55
1.32773e-53
1.22072e-50
1.94335e-48
4.5737e-48
6.57719e-48
8.55425e-47
9.40475e-46
7.36393e-42
7.57139e-41
6.84984e-40
1.15439e-38
1.69598e-37
1.67389e-36
2.5347e-37
6.79741e-36
-2.32853e-36
-3.18122e-34
1.94188e-32
3.38335e-31
3.11378e-30
1.73798e-28
2.76658e-18
1.17266e-16
1.37487e-15
1.47903e-14
1.05486e-13
6.01668e-13
3.02834e-12