/*--------------------------------*- C++ -*----------------------------------*\
| =========                 |                                                 |
| \\      /  F ield         | OpenFOAM: The Open Source CFD Toolbox           |
|  \\    /   O peration     | Version:  2406                                  |
|   \\  /    A nd           | Website:  www.openfoam.com                      |
|    \\/     M anipulation  |                                                 |
\*---------------------------------------------------------------------------*/
FoamFile
{
    version     2.0;
    format      ascii;
    arch        "LSB;label=32;scalar=64";
    class       surfaceScalarField;
    location    "0.1";
    object      phi;
}
// * * * * * * * * * * * * * * * * * * * * * * * * * * * * * * * * * * * * * //

dimensions      [0 3 -1 0 0 0 0];

oriented        oriented;

internalField   nonuniform List<scalar> 
12225
(
1.53561e-07
3.65161e-09
1.44135e-07
9.42422e-09
1.34898e-07
9.25839e-09
1.27457e-07
7.44659e-09
1.20749e-07
6.70119e-09
1.14252e-07
6.47836e-09
1.08241e-07
5.99707e-09
1.02957e-07
5.27708e-09
9.83637e-08
4.59096e-09
9.43214e-08
4.0424e-09
9.07144e-08
3.60882e-09
8.74507e-08
3.26607e-09
8.44393e-08
3.01377e-09
8.15876e-08
2.85356e-09
7.88094e-08
2.7792e-09
7.60275e-08
2.78172e-09
7.31707e-08
2.85526e-09
7.01686e-08
2.9993e-09
6.69457e-08
3.21879e-09
6.34173e-08
3.52313e-09
5.94869e-08
3.92422e-09
5.50453e-08
4.43456e-09
4.99704e-08
5.06689e-09
4.41229e-08
5.8382e-09
3.73309e-08
6.78109e-09
2.93692e-08
7.94906e-09
2.00013e-08
9.3524e-09
9.81432e-09
1.01704e-08
2.66718e-09
7.13312e-09
5.04378e-09
-2.37669e-09
5.87627e-09
-8.32193e-10
7.58907e-09
-1.7121e-09
8.72723e-09
-1.13741e-09
8.86746e-09
-1.3952e-10
8.52266e-09
3.45005e-10
8.98985e-09
-4.6745e-10
1.02681e-08
-1.2787e-09
1.20347e-08
-1.76715e-09
1.37097e-08
-1.67568e-09
1.51201e-08
-1.4115e-09
1.62565e-08
-1.1377e-09
1.71127e-08
-8.57334e-10
1.78519e-08
-7.39951e-10
1.88217e-08
-9.70393e-10
2.01393e-08
-1.31855e-09
2.16451e-08
-1.50791e-09
2.3063e-08
-1.42129e-09
2.42838e-08
-1.22376e-09
2.53977e-08
-1.11501e-09
2.65308e-08
-1.13349e-09
2.77066e-08
-1.1756e-09
2.88811e-08
-1.17455e-09
3.00058e-08
-1.12532e-09
3.10575e-08
-1.05357e-09
3.20219e-08
-9.66814e-10
3.28902e-08
-8.70852e-10
3.36598e-08
-7.71356e-10
3.43336e-08
-6.74759e-10
3.49186e-08
-5.85165e-10
3.54234e-08
-5.0448e-10
3.58576e-08
-4.33583e-10
3.62303e-08
-3.72173e-10
3.65501e-08
-3.19215e-10
3.6824e-08
-2.73589e-10
3.70586e-08
-2.34546e-10
3.72596e-08
-2.01089e-10
3.74322e-08
-1.72827e-10
3.75805e-08
-1.48468e-10
3.77081e-08
-1.27852e-10
3.78182e-08
-1.10305e-10
3.79131e-08
-9.50967e-11
3.7995e-08
-8.21218e-11
3.80658e-08
-7.10419e-11
3.81271e-08
-6.15379e-11
3.81802e-08
-5.34165e-11
3.82261e-08
-4.62763e-11
3.82658e-08
-3.99903e-11
3.83002e-08
-3.45884e-11
3.83299e-08
-2.98715e-11
3.83556e-08
-2.58237e-11
3.8378e-08
-2.24829e-11
3.83976e-08
-1.96163e-11
3.84147e-08
-1.70944e-11
3.84295e-08
-1.48772e-11
3.84425e-08
-1.2958e-11
3.84537e-08
-1.12998e-11
3.84636e-08
-9.88932e-12
3.84722e-08
-8.6737e-12
3.84797e-08
-7.57822e-12
3.84863e-08
-6.67433e-12
3.84921e-08
-5.85054e-12
3.84972e-08
-5.05928e-12
3.85016e-08
-4.39681e-12
3.85054e-08
-3.84921e-12
3.85089e-08
-3.44876e-12
3.8512e-08
-3.06835e-12
3.85146e-08
-2.69047e-12
3.8517e-08
-2.33863e-12
3.8519e-08
-2.03573e-12
3.85207e-08
-1.78832e-12
3.85222e-08
-1.53123e-12
3.85236e-08
-1.34749e-12
3.85247e-08
-1.18292e-12
3.85258e-08
-1.0651e-12
3.85268e-08
-1.00123e-12
3.85276e-08
-8.0286e-13
3.85284e-08
-7.59383e-13
3.85291e-08
-6.35087e-13
3.85298e-08
-5.77271e-13
3.85302e-08
-4.19722e-13
3.85306e-08
-3.31888e-13
3.8531e-08
-3.66512e-13
3.85314e-08
-3.29921e-13
3.85318e-08
-3.52915e-13
3.8532e-08
-2.15353e-13
3.85322e-08
-6.98713e-14
3.85322e-08
5.24992e-14
3.85323e-08
-7.05884e-14
3.85325e-08
-1.16758e-13
3.85326e-08
-8.89007e-14
3.85328e-08
-6.20642e-14
3.85329e-08
-4.16693e-14
3.8533e-08
-2.2003e-14
3.85332e-08
-1.0796e-13
3.85333e-08
-5.86005e-14
3.85335e-08
-1.97283e-13
3.85337e-08
-1.29988e-13
3.85337e-08
-4.39716e-14
3.85338e-08
-7.09636e-14
3.85339e-08
-1.35663e-13
3.8534e-08
-1.61536e-13
3.8534e-08
-1.54973e-13
3.85341e-08
-1.43306e-13
3.85341e-08
-1.38811e-13
3.85341e-08
-1.11516e-13
3.85341e-08
-6.16374e-14
3.85341e-08
-1.21158e-14
3.8534e-08
6.07189e-14
3.85341e-08
-1.0711e-13
3.85341e-08
-2.51959e-14
3.85342e-08
-5.73359e-15
3.85343e-08
-2.96578e-14
3.85344e-08
-2.95304e-14
3.85345e-08
-6.55282e-14
3.85347e-08
-9.80872e-14
3.8535e-08
-1.13866e-13
3.85352e-08
-1.12017e-13
3.85355e-08
-1.08828e-13
3.85358e-08
-1.45601e-13
3.8536e-08
-1.42744e-13
3.85364e-08
-1.55287e-13
3.85366e-08
-1.40636e-13
3.85369e-08
-1.27532e-13
3.85372e-08
-1.32287e-13
3.85375e-08
-1.52353e-13
3.85378e-08
-1.30283e-13
3.85382e-08
-1.56439e-13
3.85385e-08
-1.70599e-13
3.85388e-08
-1.52183e-13
3.85391e-08
-1.623e-13
3.85394e-08
-1.75293e-13
3.85397e-08
-1.84562e-13
3.854e-08
-1.84914e-13
3.85402e-08
-1.80849e-13
3.85404e-08
-1.73978e-13
3.85406e-08
-1.66888e-13
3.85408e-08
-1.79246e-13
3.8541e-08
-1.60419e-13
3.85411e-08
-1.632e-13
3.85413e-08
-1.76838e-13
3.85413e-08
-1.53461e-13
3.85414e-08
-1.11544e-13
3.85414e-08
-1.31673e-13
3.85415e-08
-1.61227e-13
3.85415e-08
-1.52603e-13
3.85415e-08
-1.43132e-13
3.85416e-08
-1.18788e-13
3.85415e-08
-5.91248e-14
3.85415e-08
-9.13734e-14
3.85415e-08
-9.74346e-14
3.85414e-08
-4.60312e-14
3.85413e-08
7.52875e-15
3.85412e-08
3.75399e-14
3.85411e-08
6.16348e-14
3.8541e-08
1.37416e-14
3.85409e-08
-1.42024e-14
3.85409e-08
-2.1914e-14
3.85409e-08
-1.20392e-14
3.85408e-08
2.00831e-14
3.85407e-08
6.31208e-14
3.85405e-08
1.22548e-13
3.85404e-08
1.16778e-13
3.85402e-08
8.10056e-14
3.85402e-08
5.16404e-14
3.854e-08
7.44959e-14
3.85399e-08
1.0746e-13
3.85397e-08
1.07419e-13
3.85395e-08
1.45237e-13
3.85393e-08
9.99688e-14
3.85392e-08
5.62159e-14
3.8539e-08
5.32457e-14
3.85388e-08
1.28294e-13
3.85387e-08
6.98108e-14
3.85385e-08
5.28588e-14
3.85384e-08
2.75137e-14
3.85382e-08
2.96218e-14
3.85381e-08
3.26483e-14
3.8538e-08
4.02289e-14
3.85378e-08
4.85408e-14
3.85376e-08
1.1388e-13
3.85374e-08
9.67866e-14
3.85372e-08
1.23527e-13
3.8537e-08
1.15791e-13
3.85368e-08
1.24427e-13
3.85366e-08
1.71541e-13
3.85363e-08
2.21988e-13
3.8536e-08
2.75807e-13
3.85356e-08
3.34617e-13
3.85352e-08
3.9838e-13
3.85347e-08
4.77473e-13
3.85341e-08
5.84819e-13
3.85334e-08
6.86223e-13
3.85325e-08
8.03868e-13
3.85316e-08
9.59658e-13
3.85304e-08
1.14987e-12
3.85291e-08
1.3591e-12
3.85274e-08
1.62152e-12
3.85255e-08
1.92934e-12
3.85232e-08
2.30532e-12
3.85205e-08
2.7704e-12
3.85171e-08
3.33489e-12
3.85131e-08
4.02742e-12
3.85083e-08
4.88023e-12
3.85023e-08
5.94211e-12
3.84951e-08
7.25891e-12
3.84861e-08
8.90981e-12
3.84751e-08
1.09778e-11
3.84615e-08
1.35638e-11
3.84447e-08
1.68165e-11
3.84237e-08
2.09131e-11
3.83975e-08
2.60651e-11
3.83649e-08
3.25432e-11
3.83242e-08
4.06736e-11
3.82733e-08
5.08451e-11
3.82099e-08
6.34573e-11
3.81311e-08
7.88587e-11
3.80338e-08
9.73015e-11
3.79154e-08
1.18448e-10
3.77758e-08
1.39515e-10
1.4631e-10
1.75654e-07
7.83976e-10
1.80946e-07
4.14036e-09
1.83436e-07
6.78546e-09
1.83197e-07
7.6822e-09
1.8205e-07
7.83798e-09
1.80515e-07
7.99802e-09
1.78406e-07
8.09509e-09
1.75694e-07
7.9844e-09
1.72552e-07
7.73116e-09
1.69144e-07
7.44978e-09
1.65556e-07
7.19489e-09
1.61834e-07
6.98448e-09
1.58008e-07
6.83411e-09
1.54097e-07
6.75781e-09
1.50105e-07
6.76148e-09
1.46028e-07
6.84591e-09
1.41855e-07
7.01548e-09
1.37553e-07
7.28577e-09
1.33069e-07
7.6879e-09
1.28308e-07
8.26961e-09
1.23126e-07
9.09344e-09
1.17315e-07
1.02342e-08
1.10594e-07
1.17789e-08
1.02591e-07
1.38351e-08
9.28161e-08
1.65515e-08
8.05973e-08
2.01647e-08
6.49406e-08
2.50041e-08
4.47984e-08
3.0308e-08
2.85247e-08
2.34036e-08
1.70852e-08
9.05899e-09
1.08786e-08
5.37163e-09
8.82488e-09
3.37878e-10
9.75469e-09
-2.07213e-09
1.22749e-08
-2.65887e-09
1.48509e-08
-2.22951e-09
1.89622e-08
-4.57869e-09
2.29162e-08
-5.23317e-09
2.69915e-08
-5.84254e-09
3.04918e-08
-5.17534e-09
3.40441e-08
-4.96093e-09
3.86227e-08
-5.71305e-09
4.39098e-08
-6.14203e-09
4.78494e-08
-4.67672e-09
5.15062e-08
-4.62448e-09
5.54631e-08
-5.27267e-09
5.9528e-08
-5.56943e-09
6.31089e-08
-4.99834e-09
6.6001e-08
-4.11372e-09
6.86229e-08
-3.73479e-09
7.12893e-08
-3.79988e-09
7.40222e-08
-3.91106e-09
7.66439e-08
-3.80163e-09
7.90686e-08
-3.55434e-09
8.12743e-08
-3.26188e-09
8.32657e-08
-2.95894e-09
8.50376e-08
-2.64196e-09
8.65928e-08
-2.3244e-09
8.79438e-08
-2.02245e-09
8.91094e-08
-1.74695e-09
9.01111e-08
-1.50206e-09
9.09699e-08
-1.28835e-09
9.17054e-08
-1.10401e-09
9.23352e-08
-9.45809e-10
9.28748e-08
-8.10481e-10
9.33374e-08
-6.95055e-10
9.37345e-08
-5.96636e-10
9.40751e-08
-5.12345e-10
9.43677e-08
-4.40425e-10
9.46196e-08
-3.79322e-10
9.48367e-08
-3.27106e-10
9.50242e-08
-2.82374e-10
9.51862e-08
-2.43977e-10
9.53263e-08
-2.10986e-10
9.54478e-08
-1.82797e-10
9.55529e-08
-1.58367e-10
9.56442e-08
-1.37329e-10
9.57233e-08
-1.18899e-10
9.57917e-08
-1.03004e-10
9.58512e-08
-8.93492e-11
9.59027e-08
-7.74576e-11
9.59475e-08
-6.73295e-11
9.59864e-08
-5.86385e-11
9.60204e-08
-5.11071e-11
9.605e-08
-4.45204e-11
9.60757e-08
-3.87416e-11
9.60982e-08
-3.38608e-11
9.61178e-08
-2.94848e-11
9.61349e-08
-2.57361e-11
9.61499e-08
-2.25849e-11
9.6163e-08
-1.97087e-11
9.61745e-08
-1.72374e-11
9.61845e-08
-1.50599e-11
9.61934e-08
-1.31711e-11
9.62011e-08
-1.15478e-11
9.62078e-08
-1.01589e-11
9.62136e-08
-8.93864e-12
9.62187e-08
-7.80399e-12
9.62233e-08
-6.8914e-12
9.62273e-08
-6.04073e-12
9.62307e-08
-5.228e-12
9.62339e-08
-4.61438e-12
9.62366e-08
-4.0164e-12
9.62391e-08
-3.61029e-12
9.62414e-08
-3.28016e-12
9.62433e-08
-2.85267e-12
9.62451e-08
-2.58355e-12
9.62465e-08
-2.23188e-12
9.6248e-08
-2.15728e-12
9.62491e-08
-1.89182e-12
9.62502e-08
-1.68642e-12
9.6251e-08
-1.39065e-12
9.62516e-08
-1.27133e-12
9.62521e-08
-1.16784e-12
9.62526e-08
-1.18059e-12
9.62531e-08
-9.42745e-13
9.62535e-08
-7.28262e-13
9.62538e-08
-4.44273e-13
9.62541e-08
-5.00748e-13
9.62545e-08
-5.22211e-13
9.62548e-08
-4.91981e-13
9.62552e-08
-4.15898e-13
9.62555e-08
-3.31108e-13
9.62557e-08
-1.61742e-13
9.62558e-08
-1.39068e-13
9.62561e-08
-2.60283e-13
9.62563e-08
-3.4766e-13
9.62564e-08
-1.86914e-13
9.62565e-08
-1.4737e-13
9.62566e-08
-2.03407e-13
9.62567e-08
-2.88648e-13
9.62568e-08
-3.00182e-13
9.62569e-08
-2.93238e-13
9.6257e-08
-2.7517e-13
9.62571e-08
-2.52551e-13
9.62572e-08
-2.14912e-13
9.62573e-08
-1.2367e-13
9.62573e-08
3.4387e-14
9.62575e-08
-3.15129e-14
9.62575e-08
8.2684e-14
9.62577e-08
-9.4265e-14
9.62579e-08
2.47783e-14
9.6258e-08
5.91674e-14
9.62582e-08
-3.80132e-14
9.62585e-08
-8.82449e-14
9.62587e-08
-1.29727e-13
9.6259e-08
-1.59146e-13
9.62593e-08
-1.73817e-13
9.62596e-08
-1.42019e-13
9.62598e-08
-7.92997e-14
9.626e-08
-1.33955e-13
9.62603e-08
-1.72708e-13
9.62606e-08
-1.61337e-13
9.62609e-08
-1.13736e-13
9.62612e-08
-9.69625e-14
9.62614e-08
-1.159e-13
9.62618e-08
-1.9901e-13
9.62622e-08
-1.45561e-13
9.62624e-08
-9.92949e-14
9.62627e-08
-9.21325e-14
9.6263e-08
-1.41666e-13
9.62634e-08
-1.63713e-13
9.62637e-08
-1.79003e-13
9.6264e-08
-1.84453e-13
9.62642e-08
-1.71893e-13
9.62645e-08
-1.48198e-13
9.62647e-08
-1.93462e-13
9.62649e-08
-1.65807e-13
9.62651e-08
-1.52038e-13
9.62652e-08
-1.18253e-13
9.62653e-08
-8.26694e-14
9.62653e-08
-6.76106e-14
9.62654e-08
-4.5475e-14
9.62653e-08
-2.65406e-14
9.62653e-08
-3.17106e-14
9.62652e-08
-2.9974e-14
9.62652e-08
-3.80187e-14
9.62651e-08
-4.59884e-14
9.62651e-08
-1.78282e-14
9.62651e-08
-1.21482e-14
9.62651e-08
1.82244e-14
9.6265e-08
1.02583e-13
9.6265e-08
1.01961e-13
9.6265e-08
1.28302e-13
9.62649e-08
1.8935e-13
9.62649e-08
1.75743e-13
9.62648e-08
1.76836e-13
9.62648e-08
8.96835e-14
9.62648e-08
1.45206e-13
9.62648e-08
1.45938e-13
9.62648e-08
2.37979e-13
9.62646e-08
3.95121e-13
9.62645e-08
3.27695e-13
9.62645e-08
2.7866e-13
9.62644e-08
2.69777e-13
9.62643e-08
3.08239e-13
9.62641e-08
3.84887e-13
9.6264e-08
3.44244e-13
9.62639e-08
2.94877e-13
9.62638e-08
3.19509e-13
9.62637e-08
2.85107e-13
9.62635e-08
2.88756e-13
9.62634e-08
2.89275e-13
9.62632e-08
3.29647e-13
9.6263e-08
3.30989e-13
9.62627e-08
3.37634e-13
9.62624e-08
3.48458e-13
9.62621e-08
3.68205e-13
9.62618e-08
3.97426e-13
9.62614e-08
4.34564e-13
9.62612e-08
4.00165e-13
9.62608e-08
5.08339e-13
9.62604e-08
5.79602e-13
9.62599e-08
6.32118e-13
9.62593e-08
7.17563e-13
9.62587e-08
8.4018e-13
9.6258e-08
9.9273e-13
9.62571e-08
1.16596e-12
9.62562e-08
1.35144e-12
9.62551e-08
1.56363e-12
9.62538e-08
1.83276e-12
9.62523e-08
2.1644e-12
9.62505e-08
2.54915e-12
9.62484e-08
2.98596e-12
9.6246e-08
3.51949e-12
9.6243e-08
4.15792e-12
9.62396e-08
4.94086e-12
9.62354e-08
5.86144e-12
9.62305e-08
6.95332e-12
9.62246e-08
8.26117e-12
9.62177e-08
9.84153e-12
9.62093e-08
1.17493e-11
9.61994e-08
1.4063e-11
9.61874e-08
1.6876e-11
9.61731e-08
2.03032e-11
9.61559e-08
2.44854e-11
9.61352e-08
2.95861e-11
9.61104e-08
3.583e-11
9.60804e-08
4.3446e-11
9.60445e-08
5.27219e-11
9.60013e-08
6.39953e-11
9.59497e-08
7.7649e-11
9.58881e-08
9.40795e-11
9.58151e-08
1.13694e-10
9.57291e-08
1.36867e-10
9.56289e-08
1.63801e-10
9.55136e-08
1.94286e-10
9.53834e-08
2.27553e-10
9.5241e-08
2.60727e-10
9.50945e-08
2.86012e-10
2.89668e-10
1.76504e-07
5.62274e-10
1.78119e-07
2.52656e-09
1.80701e-07
4.21469e-09
1.83117e-07
5.26056e-09
1.85002e-07
5.94114e-09
1.86438e-07
6.54588e-09
1.87431e-07
7.09185e-09
1.87904e-07
7.50799e-09
1.87834e-07
7.80238e-09
1.87251e-07
8.03518e-09
1.86195e-07
8.25439e-09
1.84697e-07
8.48574e-09
1.82787e-07
8.74595e-09
1.80499e-07
9.04605e-09
1.77869e-07
9.3887e-09
1.7494e-07
9.77123e-09
1.71754e-07
1.01952e-08
1.68355e-07
1.06777e-08
1.64773e-07
1.126e-08
1.61021e-07
1.20112e-08
1.57075e-07
1.30279e-08
1.52866e-07
1.44294e-08
1.48276e-07
1.63547e-08
1.43133e-07
1.8964e-08
1.37218e-07
2.24497e-08
1.30302e-07
2.70622e-08
1.2217e-07
3.31154e-08
1.11344e-07
4.11155e-08
8.59307e-08
4.88115e-08
6.06923e-08
3.42989e-08
4.35578e-08
2.25048e-08
3.87329e-08
5.15853e-09
3.33988e-08
3.26321e-09
2.22234e-08
8.51279e-09
1.9544e-08
4.495e-10
2.34368e-08
-8.47352e-09
2.54027e-08
-7.20514e-09
2.6841e-08
-7.28538e-09
2.91234e-08
-7.46398e-09
3.29538e-08
-8.79481e-09
3.99538e-08
-1.27158e-08
5.53199e-08
-2.15033e-08
7.00261e-08
-1.93802e-08
7.90535e-08
-1.36544e-08
8.61298e-08
-1.23535e-08
9.3116e-08
-1.25639e-08
9.95222e-08
-1.14152e-08
1.03171e-07
-7.77114e-09
1.06158e-07
-6.72786e-09
1.09393e-07
-7.03836e-09
1.12675e-07
-7.19196e-09
1.15683e-07
-6.80681e-09
1.18421e-07
-6.29097e-09
1.20984e-07
-5.82356e-09
1.23322e-07
-5.29735e-09
1.25399e-07
-4.71887e-09
1.27207e-07
-4.13395e-09
1.28767e-07
-3.58288e-09
1.30105e-07
-3.0842e-09
1.31249e-07
-2.64525e-09
1.32226e-07
-2.26492e-09
1.33061e-07
-1.93853e-09
1.33776e-07
-1.65977e-09
1.34389e-07
-1.42218e-09
1.34914e-07
-1.21982e-09
1.35365e-07
-1.04746e-09
1.35753e-07
-9.00401e-10
1.36088e-07
-7.75002e-10
1.36376e-07
-6.67947e-10
1.36626e-07
-5.7642e-10
1.36841e-07
-4.97905e-10
1.37027e-07
-4.30472e-10
1.37188e-07
-3.72659e-10
1.37328e-07
-3.23017e-10
1.37449e-07
-2.80245e-10
1.37555e-07
-2.4301e-10
1.37646e-07
-2.1078e-10
1.37726e-07
-1.82875e-10
1.37796e-07
-1.58745e-10
1.37856e-07
-1.37895e-10
1.37908e-07
-1.1989e-10
1.37954e-07
-1.04379e-10
1.37994e-07
-9.09726e-11
1.38029e-07
-7.93273e-11
1.38059e-07
-6.91604e-11
1.38085e-07
-6.03333e-11
1.38108e-07
-5.25536e-11
1.38128e-07
-4.58981e-11
1.38146e-07
-3.99658e-11
1.38161e-07
-3.49876e-11
1.38174e-07
-3.06204e-11
1.38186e-07
-2.68106e-11
1.38196e-07
-2.34975e-11
1.38205e-07
-2.05994e-11
1.38213e-07
-1.80659e-11
1.3822e-07
-1.58585e-11
1.38226e-07
-1.39511e-11
1.38232e-07
-1.22249e-11
1.38236e-07
-1.07663e-11
1.38241e-07
-9.47662e-12
1.38244e-07
-8.27204e-12
1.38247e-07
-7.26503e-12
1.3825e-07
-6.43739e-12
1.38253e-07
-5.73045e-12
1.38255e-07
-5.11985e-12
1.38257e-07
-4.62197e-12
1.38259e-07
-4.16323e-12
1.38261e-07
-3.65917e-12
1.38262e-07
-3.23844e-12
1.38263e-07
-2.8232e-12
1.38265e-07
-2.49252e-12
1.38265e-07
-2.0499e-12
1.38266e-07
-1.7556e-12
1.38266e-07
-1.51745e-12
1.38267e-07
-1.44367e-12
1.38268e-07
-1.32701e-12
1.38268e-07
-1.2105e-12
1.38269e-07
-1.01062e-12
1.38269e-07
-9.22973e-13
1.3827e-07
-8.43457e-13
1.3827e-07
-7.36589e-13
1.38271e-07
-6.14218e-13
1.38271e-07
-5.52594e-13
1.38271e-07
-3.52185e-13
1.38271e-07
-2.36098e-13
1.38271e-07
-2.30185e-13
1.38272e-07
-3.6143e-13
1.38272e-07
-4.81859e-13
1.38272e-07
-4.79703e-13
1.38272e-07
-4.72442e-13
1.38272e-07
-4.67325e-13
1.38272e-07
-4.46321e-13
1.38272e-07
-3.98124e-13
1.38272e-07
-3.83655e-13
1.38272e-07
-3.56356e-13
1.38272e-07
-2.88103e-13
1.38273e-07
-1.99975e-13
1.38273e-07
-6.22247e-14
1.38273e-07
6.52326e-14
1.38273e-07
1.67557e-14
1.38273e-07
-1.2319e-13
1.38273e-07
-1.34204e-13
1.38273e-07
-1.24669e-13
1.38274e-07
-1.39896e-13
1.38274e-07
-1.57534e-13
1.38274e-07
-1.70505e-13
1.38274e-07
-1.70566e-13
1.38275e-07
-1.78405e-13
1.38275e-07
-1.50446e-13
1.38275e-07
-8.487e-14
1.38275e-07
-6.70323e-14
1.38276e-07
-8.79942e-14
1.38276e-07
-1.2463e-13
1.38276e-07
-1.39587e-13
1.38276e-07
-1.29522e-13
1.38277e-07
-1.15601e-13
1.38277e-07
-1.68429e-13
1.38277e-07
-2.53075e-13
1.38278e-07
-2.81865e-13
1.38278e-07
-2.74842e-13
1.38278e-07
-2.87571e-13
1.38279e-07
-2.97334e-13
1.38279e-07
-3.03027e-13
1.38279e-07
-3.14794e-13
1.3828e-07
-3.26226e-13
1.3828e-07
-2.81173e-13
1.3828e-07
-2.50917e-13
1.3828e-07
-2.19979e-13
1.3828e-07
-2.14689e-13
1.3828e-07
-1.90192e-13
1.3828e-07
-1.59581e-13
1.3828e-07
-1.37856e-13
1.3828e-07
-1.2248e-13
1.3828e-07
-1.07266e-13
1.3828e-07
-9.67765e-14
1.3828e-07
-8.74469e-14
1.3828e-07
-6.90651e-14
1.38279e-07
-8.70516e-14
1.38279e-07
-1.12699e-13
1.38279e-07
-9.92733e-14
1.38279e-07
-7.47585e-14
1.38279e-07
-1.99786e-14
1.3828e-07
6.1086e-15
1.3828e-07
3.96481e-15
1.3828e-07
8.48799e-14
1.3828e-07
1.62786e-13
1.38279e-07
2.38575e-13
1.38279e-07
1.34752e-13
1.38279e-07
6.73282e-14
1.3828e-07
9.64742e-14
1.3828e-07
6.80722e-14
1.3828e-07
1.84915e-13
1.3828e-07
2.49201e-13
1.3828e-07
2.6494e-13
1.3828e-07
3.194e-13
1.3828e-07
2.93904e-13
1.3828e-07
3.85387e-13
1.38279e-07
3.62934e-13
1.38279e-07
4.18803e-13
1.38279e-07
3.56502e-13
1.38279e-07
3.47212e-13
1.38279e-07
3.52679e-13
1.38279e-07
3.86295e-13
1.38278e-07
4.2205e-13
1.38278e-07
4.70692e-13
1.38278e-07
5.63606e-13
1.38277e-07
6.40564e-13
1.38277e-07
7.16572e-13
1.38276e-07
7.71287e-13
1.38276e-07
8.49398e-13
1.38275e-07
8.578e-13
1.38275e-07
1.02448e-12
1.38274e-07
1.24692e-12
1.38273e-07
1.42946e-12
1.38272e-07
1.64977e-12
1.38271e-07
1.96384e-12
1.3827e-07
2.27245e-12
1.38269e-07
2.62888e-12
1.38267e-07
3.0319e-12
1.38266e-07
3.54393e-12
1.38264e-07
4.1879e-12
1.38261e-07
4.94656e-12
1.38258e-07
5.84504e-12
1.38255e-07
6.90033e-12
1.38251e-07
8.15822e-12
1.38246e-07
9.64902e-12
1.38241e-07
1.1421e-11
1.38234e-07
1.35286e-11
1.38227e-07
1.60367e-11
1.38217e-07
1.90293e-11
1.38207e-07
2.26112e-11
1.38194e-07
2.69064e-11
1.38179e-07
3.2062e-11
1.38161e-07
3.8254e-11
1.38139e-07
4.5688e-11
1.38114e-07
5.46041e-11
1.38085e-07
6.52791e-11
1.3805e-07
7.80216e-11
1.3801e-07
9.31779e-11
1.37962e-07
1.11109e-10
1.37908e-07
1.32162e-10
1.37845e-07
1.5667e-10
1.37774e-07
1.84852e-10
1.37694e-07
2.16734e-10
1.37606e-07
2.51939e-10
1.37511e-07
2.89522e-10
1.37411e-07
3.27684e-10
1.37309e-07
3.62428e-10
1.37209e-07
3.85918e-10
3.875e-10
1.78897e-07
4.15192e-10
1.79568e-07
1.86169e-09
1.80681e-07
3.11746e-09
1.81928e-07
4.00973e-09
1.83152e-07
4.70839e-09
1.84334e-07
5.34746e-09
1.85468e-07
5.94719e-09
1.86481e-07
6.49034e-09
1.87297e-07
6.98495e-09
1.8787e-07
7.46236e-09
1.8817e-07
7.95381e-09
1.88175e-07
8.48043e-09
1.87865e-07
9.05373e-09
1.87232e-07
9.67497e-09
1.86281e-07
1.03338e-08
1.85033e-07
1.10122e-08
1.83527e-07
1.16944e-08
1.81816e-07
1.23797e-08
1.79974e-07
1.30935e-08
1.78084e-07
1.38922e-08
1.76241e-07
1.48618e-08
1.74552e-07
1.61096e-08
1.73144e-07
1.77534e-08
1.72189e-07
1.99097e-08
1.71946e-07
2.26831e-08
1.72842e-07
2.61557e-08
1.7559e-07
3.03555e-08
1.8144e-07
3.52515e-08
1.89659e-07
4.05802e-08
1.81404e-07
4.25542e-08
1.60852e-07
4.30612e-08
1.36566e-07
2.94474e-08
1.23961e-07
1.58509e-08
1.20833e-07
1.16209e-08
1.15466e-07
5.82145e-09
1.09905e-07
-2.91094e-09
1.09476e-07
-6.77381e-09
1.08538e-07
-6.34361e-09
1.07627e-07
-6.5683e-09
1.08555e-07
-9.73427e-09
1.06518e-07
-1.07039e-08
9.5469e-08
-1.04825e-08
7.9042e-08
-2.93681e-09
8.27112e-08
-1.73208e-08
8.88011e-08
-1.84325e-08
1.00372e-07
-2.41049e-08
1.17954e-07
-2.89457e-08
1.32357e-07
-2.21492e-08
1.41825e-07
-1.61881e-08
1.46406e-07
-1.16186e-08
1.48418e-07
-9.20437e-09
1.49646e-07
-8.03455e-09
1.51138e-07
-7.78198e-09
1.52956e-07
-7.63844e-09
1.5481e-07
-7.149e-09
1.56564e-07
-6.47187e-09
1.58132e-07
-5.7013e-09
1.59494e-07
-4.9452e-09
1.60666e-07
-4.25588e-09
1.61671e-07
-3.64926e-09
1.62532e-07
-3.12487e-09
1.6327e-07
-2.67587e-09
1.63905e-07
-2.293e-09
1.64451e-07
-1.96705e-09
1.64921e-07
-1.68954e-09
1.65327e-07
-1.45304e-09
1.65679e-07
-1.25126e-09
1.65983e-07
-1.07885e-09
1.66246e-07
-9.31259e-10
1.66475e-07
-8.04791e-10
1.66673e-07
-6.96158e-10
1.66846e-07
-6.02728e-10
1.66995e-07
-5.22346e-10
1.67125e-07
-4.5312e-10
1.67238e-07
-3.93374e-10
1.67337e-07
-3.41649e-10
1.67423e-07
-2.9681e-10
1.67498e-07
-2.57943e-10
1.67563e-07
-2.2426e-10
1.6762e-07
-1.95073e-10
1.6767e-07
-1.69797e-10
1.67713e-07
-1.47901e-10
1.67751e-07
-1.28918e-10
1.67785e-07
-1.12439e-10
1.67813e-07
-9.80652e-11
1.67839e-07
-8.5488e-11
1.67861e-07
-7.45621e-11
1.6788e-07
-6.50676e-11
1.67897e-07
-5.69395e-11
1.67912e-07
-4.96555e-11
1.67924e-07
-4.35335e-11
1.67936e-07
-3.81475e-11
1.67946e-07
-3.34659e-11
1.67954e-07
-2.93069e-11
1.67962e-07
-2.5634e-11
1.67969e-07
-2.24841e-11
1.67974e-07
-1.97926e-11
1.6798e-07
-1.74225e-11
1.67984e-07
-1.52826e-11
1.67988e-07
-1.34584e-11
1.67992e-07
-1.18607e-11
1.67995e-07
-1.04715e-11
1.67998e-07
-9.25219e-12
1.68001e-07
-8.27011e-12
1.68003e-07
-7.42616e-12
1.68005e-07
-6.61403e-12
1.68007e-07
-5.91069e-12
1.68008e-07
-5.26324e-12
1.68009e-07
-4.67945e-12
1.68011e-07
-4.12095e-12
1.68012e-07
-3.60042e-12
1.68013e-07
-3.11356e-12
1.68013e-07
-2.7239e-12
1.68014e-07
-2.41257e-12
1.68015e-07
-2.20254e-12
1.68016e-07
-2.00606e-12
1.68016e-07
-1.782e-12
1.68017e-07
-1.58643e-12
1.68017e-07
-1.4103e-12
1.68018e-07
-1.26121e-12
1.68018e-07
-1.08982e-12
1.68018e-07
-9.33616e-13
1.68019e-07
-7.91187e-13
1.68019e-07
-6.29139e-13
1.68019e-07
-5.15607e-13
1.6802e-07
-4.80864e-13
1.6802e-07
-4.95677e-13
1.6802e-07
-5.37411e-13
1.6802e-07
-5.40445e-13
1.6802e-07
-5.38571e-13
1.6802e-07
-5.32618e-13
1.6802e-07
-4.73337e-13
1.6802e-07
-4.43793e-13
1.6802e-07
-4.46836e-13
1.6802e-07
-4.3704e-13
1.6802e-07
-2.62973e-13
1.6802e-07
-1.75289e-13
1.6802e-07
-8.35489e-14
1.6802e-07
-1.19972e-13
1.68021e-07
-1.31756e-13
1.68021e-07
-2.02379e-13
1.68021e-07
-1.70287e-13
1.68021e-07
-1.58933e-13
1.68021e-07
-1.58402e-13
1.68022e-07
-1.60384e-13
1.68022e-07
-1.6003e-13
1.68022e-07
-1.55816e-13
1.68022e-07
-1.45051e-13
1.68022e-07
-1.34384e-13
1.68023e-07
-1.05421e-13
1.68023e-07
-8.71787e-14
1.68023e-07
-1.01793e-13
1.68023e-07
-1.15232e-13
1.68024e-07
-1.27107e-13
1.68024e-07
-1.36564e-13
1.68024e-07
-1.52947e-13
1.68025e-07
-1.98181e-13
1.68025e-07
-2.40706e-13
1.68025e-07
-2.77394e-13
1.68026e-07
-2.86078e-13
1.68026e-07
-2.85355e-13
1.68026e-07
-2.82139e-13
1.68026e-07
-2.78856e-13
1.68027e-07
-2.70881e-13
1.68027e-07
-2.54704e-13
1.68027e-07
-2.21044e-13
1.68027e-07
-1.90782e-13
1.68027e-07
-1.78384e-13
1.68027e-07
-1.58869e-13
1.68027e-07
-1.43511e-13
1.68027e-07
-1.22811e-13
1.68027e-07
-1.02212e-13
1.68027e-07
-8.46421e-14
1.68027e-07
-7.05761e-14
1.68027e-07
-5.84904e-14
1.68027e-07
-4.1246e-14
1.68027e-07
-3.41219e-14
1.68027e-07
-4.56486e-14
1.68027e-07
-6.04452e-14
1.68027e-07
-5.96013e-14
1.68027e-07
-4.51682e-14
1.68027e-07
-1.55083e-14
1.68027e-07
1.52118e-14
1.68027e-07
5.14053e-14
1.68027e-07
1.03389e-13
1.68027e-07
1.53377e-13
1.68027e-07
1.45596e-13
1.68027e-07
1.49127e-13
1.68027e-07
1.18423e-13
1.68027e-07
1.14649e-13
1.68027e-07
1.49835e-13
1.68027e-07
2.06299e-13
1.68027e-07
2.66335e-13
1.68027e-07
3.28439e-13
1.68027e-07
3.60086e-13
1.68027e-07
3.947e-13
1.68027e-07
4.83823e-13
1.68027e-07
5.79188e-13
1.68027e-07
5.64882e-13
1.68026e-07
5.3036e-13
1.68026e-07
5.27972e-13
1.68026e-07
5.35825e-13
1.68026e-07
5.71206e-13
1.68026e-07
6.22067e-13
1.68025e-07
6.91089e-13
1.68025e-07
8.11951e-13
1.68025e-07
9.52403e-13
1.68024e-07
1.06267e-12
1.68024e-07
1.17174e-12
1.68023e-07
1.32669e-12
1.68023e-07
1.47515e-12
1.68022e-07
1.68659e-12
1.68021e-07
1.95371e-12
1.68021e-07
2.25222e-12
1.6802e-07
2.59436e-12
1.68019e-07
3.00473e-12
1.68017e-07
3.48243e-12
1.68016e-07
4.05798e-12
1.68014e-07
4.70275e-12
1.68012e-07
5.49417e-12
1.6801e-07
6.44592e-12
1.68008e-07
7.57894e-12
1.68005e-07
8.92168e-12
1.68001e-07
1.05061e-11
1.67997e-07
1.23752e-11
1.67992e-07
1.4584e-11
1.67986e-07
1.71931e-11
1.6798e-07
2.02763e-11
1.67972e-07
2.3929e-11
1.67963e-07
2.82571e-11
1.67952e-07
3.33955e-11
1.67939e-07
3.94921e-11
1.67925e-07
4.67228e-11
1.67908e-07
5.52921e-11
1.67888e-07
6.54341e-11
1.67865e-07
7.7408e-11
1.67839e-07
9.14984e-11
1.67809e-07
1.08007e-10
1.67775e-07
1.27239e-10
1.67736e-07
1.49481e-10
1.67693e-07
1.7497e-10
1.67646e-07
2.03843e-10
1.67595e-07
2.36058e-10
1.6754e-07
2.71282e-10
1.67484e-07
3.08733e-10
1.67427e-07
3.47075e-10
1.6737e-07
3.84155e-10
1.67316e-07
4.16142e-10
1.67265e-07
4.36501e-10
4.37389e-10
1.80719e-07
3.3203e-10
1.81093e-07
1.49284e-09
1.81714e-07
2.51183e-09
1.82453e-07
3.26734e-09
1.83248e-07
3.90497e-09
1.84064e-07
4.5175e-09
1.84891e-07
5.11087e-09
1.85703e-07
5.67511e-09
1.86468e-07
6.22089e-09
1.87159e-07
6.77367e-09
1.87755e-07
7.35981e-09
1.88237e-07
7.99938e-09
1.88587e-07
8.70299e-09
1.88791e-07
9.46833e-09
1.88843e-07
1.02781e-08
1.88746e-07
1.11034e-08
1.88521e-07
1.19127e-08
1.88207e-07
1.26853e-08
1.87868e-07
1.34228e-08
1.87595e-07
1.41551e-08
1.87508e-07
1.49394e-08
1.87758e-07
1.58504e-08
1.88536e-07
1.69666e-08
1.90084e-07
1.8354e-08
1.92708e-07
2.00506e-08
1.96802e-07
2.20529e-08
2.02843e-07
2.43044e-08
2.11408e-07
2.66765e-08
2.22904e-07
2.90776e-08
2.34412e-07
3.10422e-08
2.46019e-07
3.14535e-08
2.47651e-07
2.7818e-08
2.41101e-07
2.24072e-08
2.35919e-07
1.68247e-08
2.30714e-07
1.10671e-08
2.2212e-07
5.7516e-09
2.13478e-07
1.96153e-09
2.07762e-07
-5.02275e-10
2.03514e-07
-2.17884e-09
1.97831e-07
-3.9086e-09
1.9245e-07
-5.18495e-09
1.87382e-07
-5.3438e-09
1.92672e-07
-8.20783e-09
1.89886e-07
-1.45591e-08
1.91253e-07
-1.98573e-08
1.89501e-07
-2.24283e-08
1.80635e-07
-2.00823e-08
1.75294e-07
-1.67681e-08
1.73058e-07
-1.39282e-08
1.74162e-07
-1.2708e-08
1.76277e-07
-1.13124e-08
1.7781e-07
-9.5657e-09
1.78482e-07
-8.45444e-09
1.79017e-07
-8.17465e-09
1.79806e-07
-7.93616e-09
1.80732e-07
-7.39723e-09
1.81645e-07
-6.61435e-09
1.82484e-07
-5.78388e-09
1.83229e-07
-5.00095e-09
1.83883e-07
-4.30396e-09
1.84457e-07
-3.69761e-09
1.84958e-07
-3.17635e-09
1.85396e-07
-2.73049e-09
1.8578e-07
-2.34971e-09
1.86116e-07
-2.02448e-09
1.8641e-07
-1.74633e-09
1.86667e-07
-1.50814e-09
1.86892e-07
-1.30385e-09
1.8709e-07
-1.1284e-09
1.87262e-07
-9.77459e-10
1.87413e-07
-8.47306e-10
1.87545e-07
-7.35019e-10
1.87661e-07
-6.38158e-10
1.87762e-07
-5.5444e-10
1.87851e-07
-4.81986e-10
1.87928e-07
-4.19196e-10
1.87996e-07
-3.64726e-10
1.88055e-07
-3.17458e-10
1.88108e-07
-2.76421e-10
1.88153e-07
-2.4079e-10
1.88193e-07
-2.09839e-10
1.88228e-07
-1.82963e-10
1.88259e-07
-1.59597e-10
1.88285e-07
-1.39271e-10
1.88309e-07
-1.21574e-10
1.88329e-07
-1.06136e-10
1.88348e-07
-9.27608e-11
1.88364e-07
-8.10185e-11
1.88377e-07
-7.08262e-11
1.8839e-07
-6.20436e-11
1.884e-07
-5.42506e-11
1.8841e-07
-4.75076e-11
1.88418e-07
-4.16623e-11
1.88425e-07
-3.65611e-11
1.88432e-07
-3.20602e-11
1.88437e-07
-2.81207e-11
1.88442e-07
-2.47043e-11
1.88447e-07
-2.17251e-11
1.8845e-07
-1.91219e-11
1.88454e-07
-1.68509e-11
1.88457e-07
-1.49147e-11
1.8846e-07
-1.31558e-11
1.88462e-07
-1.16418e-11
1.88464e-07
-1.03368e-11
1.88466e-07
-9.20312e-12
1.88468e-07
-8.19242e-12
1.88469e-07
-7.28783e-12
1.8847e-07
-6.47816e-12
1.88471e-07
-5.74991e-12
1.88472e-07
-5.10162e-12
1.88473e-07
-4.53114e-12
1.88474e-07
-4.01093e-12
1.88475e-07
-3.60377e-12
1.88476e-07
-3.16582e-12
1.88477e-07
-2.83625e-12
1.88477e-07
-2.52993e-12
1.88478e-07
-2.28169e-12
1.88478e-07
-2.03016e-12
1.88479e-07
-1.79273e-12
1.88479e-07
-1.58166e-12
1.88479e-07
-1.39812e-12
1.8848e-07
-1.22591e-12
1.8848e-07
-1.07596e-12
1.8848e-07
-9.65737e-13
1.88481e-07
-8.83882e-13
1.88481e-07
-8.19337e-13
1.88481e-07
-7.33145e-13
1.88481e-07
-6.39728e-13
1.88481e-07
-5.99889e-13
1.88481e-07
-5.85291e-13
1.88481e-07
-6.05908e-13
1.88481e-07
-5.89997e-13
1.88481e-07
-5.3519e-13
1.88481e-07
-4.43841e-13
1.88481e-07
-3.6029e-13
1.88481e-07
-3.50303e-13
1.88481e-07
-2.95172e-13
1.88482e-07
-2.55042e-13
1.88482e-07
-2.22836e-13
1.88482e-07
-2.0044e-13
1.88482e-07
-1.78587e-13
1.88482e-07
-1.86148e-13
1.88482e-07
-1.7597e-13
1.88482e-07
-1.65646e-13
1.88483e-07
-1.58026e-13
1.88483e-07
-1.51809e-13
1.88483e-07
-1.46468e-13
1.88483e-07
-1.40257e-13
1.88483e-07
-1.32001e-13
1.88484e-07
-1.30197e-13
1.88484e-07
-1.33224e-13
1.88484e-07
-1.40588e-13
1.88485e-07
-1.5176e-13
1.88485e-07
-1.65445e-13
1.88485e-07
-1.82717e-13
1.88486e-07
-2.05451e-13
1.88486e-07
-2.31094e-13
1.88486e-07
-2.45471e-13
1.88486e-07
-2.66543e-13
1.88487e-07
-2.78668e-13
1.88487e-07
-2.82812e-13
1.88487e-07
-2.81356e-13
1.88487e-07
-2.7501e-13
1.88487e-07
-2.64142e-13
1.88488e-07
-2.47136e-13
1.88488e-07
-2.26302e-13
1.88488e-07
-2.07036e-13
1.88488e-07
-1.92391e-13
1.88488e-07
-1.76556e-13
1.88488e-07
-1.60558e-13
1.88488e-07
-1.44108e-13
1.88488e-07
-1.27977e-13
1.88488e-07
-1.13691e-13
1.88488e-07
-1.01772e-13
1.88488e-07
-9.11363e-14
1.88488e-07
-8.24728e-14
1.88488e-07
-7.80643e-14
1.88488e-07
-7.87521e-14
1.88488e-07
-7.47766e-14
1.88488e-07
-6.83964e-14
1.88487e-07
-5.30478e-14
1.88487e-07
-3.00698e-14
1.88487e-07
-2.0621e-15
1.88487e-07
2.90439e-14
1.88487e-07
5.88525e-14
1.88488e-07
6.74151e-14
1.88488e-07
7.92299e-14
1.88488e-07
8.68977e-14
1.88488e-07
1.11503e-13
1.88488e-07
1.33575e-13
1.88488e-07
1.67976e-13
1.88488e-07
2.16254e-13
1.88488e-07
2.72596e-13
1.88488e-07
3.10856e-13