/*--------------------------------*- C++ -*----------------------------------*\
| =========                 |                                                 |
| \\      /  F ield         | OpenFOAM: The Open Source CFD Toolbox           |
|  \\    /   O peration     | Version:  2406                                  |
|   \\  /    A nd           | Website:  www.openfoam.com                      |
|    \\/     M anipulation  |                                                 |
\*---------------------------------------------------------------------------*/
FoamFile
{
    version     2.0;
    format      ascii;
    arch        "LSB;label=32;scalar=64";
    class       volVectorField;
    location    "0.1";
    object      U;
}
// * * * * * * * * * * * * * * * * * * * * * * * * * * * * * * * * * * * * * //

dimensions      [0 1 -1 0 0 0 0];

internalField   nonuniform List<vector> 
6250
(
(0.191478 0.00580399 0)
(0.248549 0.0168709 0)
(0.184778 0.0167557 0)
(0.151751 0.0129541 0)
(0.149884 0.0104474 0)
(0.148189 0.00910121 0)
(0.140295 0.00769644 0)
(0.131819 0.0060634 0)
(0.125371 0.00460203 0)
(0.120226 0.00352181 0)
(0.115579 0.00277806 0)
(0.111291 0.00227994 0)
(0.107369 0.00197981 0)
(0.103727 0.00185149 0)
(0.100233 0.00186701 0)
(0.096778 0.00199875 0)
(0.0932724 0.00222586 0)
(0.089631 0.00253467 0)
(0.0857637 0.00291615 0)
(0.081571 0.00336354 0)
(0.0769397 0.00387037 0)
(0.0717418 0.00442894 0)
(0.0658336 0.00503104 0)
(0.0590573 0.00567512 0)
(0.0512357 0.00638717 0)
(0.0421271 0.00725279 0)
(0.0311683 0.00855825 0)
(0.0176657 0.0108276 0)
(0.00317282 0.0165007 0)
(0.00618939 0.0086001 0)
(0.00706274 0.00362922 0)
(0.00845509 0.00154094 0)
(0.0100888 0.000990084 0)
(0.0109259 0.000964522 0)
(0.0108538 0.000855951 0)
(0.0108909 0.000151873 0)
(0.0119397 -0.000778991 0)
(0.0138839 -0.00142439 0)
(0.0160901 -0.00149425 0)
(0.0180521 -0.00141234 0)
(0.019638 -0.00135723 0)
(0.0208769 -0.00120331 0)
(0.0218589 -0.000887315 0)
(0.022891 -0.000711155 0)
(0.0243161 -0.000704283 0)
(0.0261102 -0.000697038 0)
(0.0279742 -0.000539566 0)
(0.0296268 -0.000342835 0)
(0.0310683 -0.000274875 0)
(0.0324548 -0.000345586 0)
(0.0339005 -0.000461199 0)
(0.0353764 -0.000532721 0)
(0.0368244 -0.000562796 0)
(0.0381887 -0.000554331 0)
(0.039452 -0.000526845 0)
(0.0405981 -0.000485026 0)
(0.0416214 -0.0004368 0)
(0.0425217 -0.000385848 0)
(0.0433061 -0.000337074 0)
(0.0439845 -0.000291731 0)
(0.0445688 -0.000251632 0)
(0.0450706 -0.000216895 0)
(0.0455011 -0.000186745 0)
(0.0458702 -0.000160436 0)
(0.0461864 -0.000137685 0)
(0.0464573 -0.000118007 0)
(0.0466895 -0.000101516 0)
(0.046889 -8.70947e-05 0)
(0.0470606 -7.48491e-05 0)
(0.0472084 -6.44183e-05 0)
(0.0473359 -5.54631e-05 0)
(0.0474459 -4.7963e-05 0)
(0.0475409 -4.17295e-05 0)
(0.047623 -3.65012e-05 0)
(0.0476941 -3.20878e-05 0)
(0.0477557 -2.78335e-05 0)
(0.047809 -2.37681e-05 0)
(0.0478551 -2.02937e-05 0)
(0.047895 -1.71133e-05 0)
(0.0479294 -1.47309e-05 0)
(0.0479593 -1.3114e-05 0)
(0.0479854 -1.15541e-05 0)
(0.0480083 -1.0118e-05 0)
(0.0480282 -8.84253e-06 0)
(0.0480455 -7.73698e-06 0)
(0.0480606 -6.82718e-06 0)
(0.0480737 -6.06753e-06 0)
(0.0480851 -5.46022e-06 0)
(0.0480952 -4.75662e-06 0)
(0.048104 -4.10288e-06 0)
(0.0481117 -3.5439e-06 0)
(0.0481185 -2.92534e-06 0)
(0.0481244 -2.47674e-06 0)
(0.0481295 -2.28816e-06 0)
(0.0481341 -2.29822e-06 0)
(0.0481381 -2.21906e-06 0)
(0.0481418 -1.86225e-06 0)
(0.0481449 -1.4932e-06 0)
(0.0481476 -1.2485e-06 0)
(0.0481499 -1.05477e-06 0)
(0.0481519 -8.24529e-07 0)
(0.0481537 -5.8273e-07 0)
(0.0481552 -5.31072e-07 0)
(0.0481566 -6.16399e-07 0)
(0.0481579 -6.20698e-07 0)
(0.048159 -5.56637e-07 0)
(0.0481601 -7.64846e-07 0)
(0.0481611 -6.704e-07 0)
(0.0481619 -3.77642e-07 0)
(0.0481625 -1.30954e-07 0)
(0.0481631 -2.43489e-08 0)
(0.0481635 -9.42055e-08 0)
(0.048164 -9.53941e-08 0)
(0.0481645 -1.1214e-07 0)
(0.0481649 1.83269e-07 0)
(0.0481651 3.98714e-07 0)
(0.0481652 2.56688e-07 0)
(0.0481653 -1.85125e-07 0)
(0.0481655 -2.31492e-07 0)
(0.0481657 -1.00799e-07 0)
(0.0481659 -3.16787e-08 0)
(0.0481661 1.30867e-08 0)
(0.0481662 6.40991e-08 0)
(0.0481663 -8.31259e-09 0)
(0.0481665 3.25404e-08 0)
(0.0481667 -6.59857e-08 0)
(0.048167 9.73147e-08 0)
(0.0481671 2.53233e-07 0)
(0.0481671 9.62603e-08 0)
(0.0481672 -5.48946e-08 0)
(0.0481674 -1.00648e-07 0)
(0.0481675 -9.23557e-08 0)
(0.0481676 -9.51919e-08 0)
(0.0481676 -1.0465e-07 0)
(0.0481677 -6.61599e-08 0)
(0.0481677 4.52072e-08 0)
(0.0481677 1.3237e-07 0)
(0.0481676 2.15361e-07 0)
(0.0481676 4.81663e-08 0)
(0.0481676 1.44463e-07 0)
(0.0481677 2.27929e-07 0)
(0.0481678 2.33995e-07 0)
(0.0481679 2.03269e-07 0)
(0.0481681 1.27403e-07 0)
(0.0481683 6.86134e-08 0)
(0.0481686 4.17525e-08 0)
(0.0481689 1.52011e-08 0)
(0.0481692 -3.99361e-08 0)
(0.0481695 -1.41137e-07 0)
(0.0481699 -1.27218e-07 0)
(0.0481702 -9.79689e-08 0)
(0.0481706 -6.15748e-08 0)
(0.048171 -3.85029e-08 0)
(0.0481714 -2.26678e-08 0)
(0.0481717 1.52317e-08 0)
(0.0481721 6.37837e-08 0)
(0.0481725 1.23945e-08 0)
(0.0481729 -4.48134e-08 0)
(0.0481733 -2.89451e-08 0)
(0.0481737 -3.56788e-08 0)
(0.048174 -4.14001e-08 0)
(0.0481744 -4.35692e-08 0)
(0.0481748 -4.08924e-08 0)
(0.0481751 -2.42737e-08 0)
(0.0481754 -1.20344e-08 0)
(0.0481757 -4.68725e-09 0)
(0.0481759 -1.86409e-08 0)
(0.0481761 -1.48601e-08 0)
(0.0481763 -5.87782e-08 0)
(0.0481765 -8.58903e-08 0)
(0.0481766 -3.05001e-08 0)
(0.0481767 3.8548e-09 0)
(0.0481767 -1.18153e-07 0)
(0.0481768 -2.05459e-07 0)
(0.0481769 -1.40545e-07 0)
(0.0481769 -8.39693e-08 0)
(0.0481769 -4.27179e-09 0)
(0.0481769 -3.11185e-09 0)
(0.0481768 -2.11877e-07 0)
(0.0481769 -2.28657e-07 0)
(0.0481768 -8.34862e-08 0)
(0.0481767 5.34828e-09 0)
(0.0481766 5.52442e-08 0)
(0.0481764 9.16857e-08 0)
(0.0481763 4.25459e-08 0)
(0.0481762 5.28981e-08 0)
(0.0481761 3.22379e-08 0)
(0.0481761 3.28444e-08 0)
(0.0481761 1.16926e-07 0)
(0.0481759 1.88416e-07 0)
(0.0481758 1.94608e-07 0)
(0.0481756 1.25276e-07 0)
(0.0481754 1.49361e-08 0)
(0.0481753 -5.14864e-08 0)
(0.0481751 3.30897e-08 0)
(0.0481749 1.26435e-07 0)
(0.0481747 1.7677e-07 0)
(0.0481745 3.30187e-07 0)
(0.0481743 3.70686e-07 0)
(0.048174 2.78765e-07 0)
(0.0481739 1.89812e-07 0)
(0.0481737 2.15783e-07 0)
(0.0481734 1.35898e-07 0)
(0.0481732 9.09609e-08 0)
(0.048173 4.56963e-08 0)
(0.0481729 3.36701e-08 0)
(0.0481727 2.49799e-08 0)
(0.0481726 2.1874e-08 0)
(0.0481724 2.39059e-08 0)
(0.0481722 5.93119e-08 0)
(0.0481719 -6.94439e-09 0)
(0.0481717 -3.37479e-08 0)
(0.0481714 -4.15863e-08 0)
(0.0481712 -2.85926e-08 0)
(0.0481709 6.73215e-09 0)
(0.0481706 3.69593e-08 0)
(0.0481702 5.78348e-08 0)
(0.0481698 7.62053e-08 0)
(0.0481693 1.16442e-07 0)
(0.0481687 1.74155e-07 0)
(0.048168 2.51485e-07 0)
(0.0481672 2.91043e-07 0)
(0.0481662 3.0242e-07 0)
(0.0481651 3.46168e-07 0)
(0.0481638 4.11563e-07 0)
(0.0481622 4.72588e-07 0)
(0.0481604 5.52702e-07 0)
(0.0481582 6.48795e-07 0)
(0.0481556 7.73743e-07 0)
(0.0481525 9.34361e-07 0)
(0.0481487 1.13224e-06 0)
(0.0481442 1.38187e-06 0)
(0.0481386 1.70197e-06 0)
(0.048132 2.12473e-06 0)
(0.0481238 2.67955e-06 0)
(0.0481138 3.42716e-06 0)
(0.0481015 4.43662e-06 0)
(0.0480862 5.77794e-06 0)
(0.0480674 7.56804e-06 0)
(0.048044 9.95248e-06 0)
(0.0480149 1.31329e-05 0)
(0.0479786 1.73945e-05 0)
(0.0479332 2.31381e-05 0)
(0.0478765 3.0911e-05 0)
(0.0478058 4.13392e-05 0)
(0.0477187 5.49507e-05 0)
(0.0476101 7.22522e-05 0)
(0.0474643 9.49732e-05 0)
(0.0472666 0.000127937 0)
(0.0471411 0.000151668 0)
(0.207823 0.00503482 0)
(0.291749 0.018642 0)
(0.242849 0.0248881 0)
(0.216898 0.0247348 0)
(0.221972 0.0233621 0)
(0.228071 0.022614 0)
(0.226311 0.021773 0)
(0.22161 0.0203534 0)
(0.217394 0.0186403 0)
(0.213513 0.0170048 0)
(0.209292 0.0155839 0)
(0.204696 0.0143939 0)
(0.199929 0.0134528 0)
(0.195081 0.0127843 0)
(0.190145 0.0123943 0)
(0.185105 0.0122748 0)
(0.179952 0.0124238 0)
(0.174665 0.0128595 0)
(0.169195 0.0136258 0)
(0.163452 0.0147899 0)
(0.157291 0.016436 0)
(0.150495 0.0186589 0)
(0.142765 0.0215656 0)
(0.133701 0.0252929 0)
(0.12275 0.0300541 0)
(0.109178 0.0361969 0)
(0.0920862 0.0439238 0)
(0.0828225 0.0488581 0)
(0.0381866 0.0193359 0)
(0.0241953 -0.00518056 0)
(0.0154803 -0.00153675 0)
(0.0115812 -0.00308503 0)
(0.0110272 -0.00181738 0)
(0.0127906 -5.49229e-05 0)
(0.0167598 0.000703261 0)
(0.0217164 -0.00216007 0)
(0.0263772 -0.00488295 0)
(0.0310674 -0.00643648 0)
(0.0357193 -0.00619715 0)
(0.0402566 -0.00511745 0)
(0.0453473 -0.00379601 0)
(0.0514514 -0.00282894 0)
(0.0573954 -0.00337021 0)
(0.0621715 -0.00570555 0)
(0.0669204 -0.00823001 0)
(0.0719685 -0.00949703 0)
(0.0767857 -0.00878193 0)
(0.0808306 -0.00716322 0)
(0.0842084 -0.00607715 0)
(0.0874739 -0.00577988 0)
(0.0908377 -0.00573762 0)
(0.0942112 -0.00560154 0)
(0.0973736 -0.00530092 0)
(0.100281 -0.00494649 0)
(0.102902 -0.00452538 0)
(0.105256 -0.0040653 0)
(0.107331 -0.00359185 0)
(0.109143 -0.0031378 0)
(0.110709 -0.00271772 0)
(0.112058 -0.00234184 0)
(0.113214 -0.00201173 0)
(0.114205 -0.00172608 0)
(0.115054 -0.00147973 0)
(0.11578 -0.00126803 0)
(0.116403 -0.00108725 0)
(0.116937 -0.000932871 0)
(0.117396 -0.00080097 0)
(0.11779 -0.000688158 0)
(0.118128 -0.000592654 0)
(0.11842 -0.000511127 0)
(0.118671 -0.00044085 0)
(0.118888 -0.000380615 0)
(0.119076 -0.000329026 0)
(0.119239 -0.000285066 0)
(0.11938 -0.000247158 0)
(0.119502 -0.000214223 0)
(0.119608 -0.000185296 0)
(0.1197 -0.000160363 0)
(0.119779 -0.000138826 0)
(0.119848 -0.000120013 0)
(0.119908 -0.000104224 0)
(0.11996 -9.08622e-05 0)
(0.120006 -7.91518e-05 0)
(0.120045 -6.89006e-05 0)
(0.12008 -6.00056e-05 0)
(0.12011 -5.24517e-05 0)
(0.120136 -4.57759e-05 0)
(0.120159 -4.00534e-05 0)
(0.120179 -3.5223e-05 0)
(0.120196 -3.08812e-05 0)
(0.120211 -2.69705e-05 0)
(0.120225 -2.34372e-05 0)
(0.120236 -2.04165e-05 0)
(0.120247 -1.78054e-05 0)
(0.120256 -1.56327e-05 0)
(0.120264 -1.37399e-05 0)
(0.12027 -1.20464e-05 0)
(0.120276 -1.06247e-05 0)
(0.120282 -9.31634e-06 0)
(0.120286 -8.12482e-06 0)
(0.12029 -7.18104e-06 0)
(0.120294 -6.35875e-06 0)
(0.120297 -5.68202e-06 0)
(0.1203 -5.09561e-06 0)
(0.120303 -4.45205e-06 0)
(0.120305 -3.83861e-06 0)
(0.120307 -3.31876e-06 0)
(0.120309 -3.09295e-06 0)
(0.120311 -2.79378e-06 0)
(0.120312 -2.40627e-06 0)
(0.120313 -2.00523e-06 0)
(0.120314 -2.00568e-06 0)
(0.120315 -1.92149e-06 0)
(0.120315 -1.94214e-06 0)
(0.120316 -1.43017e-06 0)
(0.120317 -9.04327e-07 0)
(0.120317 -3.25821e-07 0)
(0.120317 -4.57753e-07 0)
(0.120318 -5.90028e-07 0)
(0.120318 -5.5883e-07 0)
(0.120319 -4.3564e-07 0)
(0.120319 -3.09439e-07 0)
(0.12032 -1.34433e-07 0)
(0.12032 -3.12208e-07 0)
(0.12032 -4.79539e-07 0)
(0.12032 -7.2676e-07 0)
(0.12032 -4.19895e-07 0)
(0.120321 -2.73177e-07 0)
(0.120321 -3.56187e-07 0)
(0.120321 -5.55016e-07 0)
(0.120321 -6.25597e-07 0)
(0.120321 -6.15452e-07 0)
(0.120321 -5.62781e-07 0)
(0.120321 -5.10558e-07 0)
(0.120321 -4.05439e-07 0)
(0.120322 -2.30633e-07 0)
(0.120322 9.63611e-10 0)
(0.120322 -4.56559e-08 0)
(0.120322 -1.19638e-07 0)
(0.120322 -1.74185e-07 0)
(0.120322 8.57006e-09 0)
(0.120322 1.83911e-08 0)
(0.120323 -1.06129e-07 0)
(0.120323 -2.28451e-07 0)
(0.120323 -3.31436e-07 0)
(0.120324 -3.95465e-07 0)
(0.120324 -4.03281e-07 0)
(0.120324 -3.52253e-07 0)
(0.120325 -3.31315e-07 0)
(0.120325 -4.27007e-07 0)
(0.120325 -5.04382e-07 0)
(0.120326 -4.59464e-07 0)
(0.120326 -3.75571e-07 0)
(0.120326 -3.69833e-07 0)
(0.120327 -4.42959e-07 0)
(0.120327 -5.1775e-07 0)
(0.120328 -4.46349e-07 0)
(0.120328 -3.74478e-07 0)
(0.120328 -3.31919e-07 0)
(0.120329 -4.05364e-07 0)
(0.120329 -4.5841e-07 0)
(0.120329 -4.96708e-07 0)
(0.12033 -5.00504e-07 0)
(0.12033 -4.84515e-07 0)
(0.12033 -4.57619e-07 0)
(0.120331 -5.23643e-07 0)
(0.120331 -5.15695e-07 0)
(0.120331 -4.62344e-07 0)
(0.120331 -4.1382e-07 0)
(0.120332 -3.82771e-07 0)
(0.120332 -3.42677e-07 0)
(0.120332 -2.58079e-07 0)
(0.120332 -2.34517e-07 0)
(0.120332 -2.72663e-07 0)
(0.120332 -2.88587e-07 0)
(0.120331 -3.02703e-07 0)
(0.120331 -2.7296e-07 0)
(0.120331 -1.16782e-07 0)
(0.120331 -6.30058e-08 0)
(0.120331 -2.36052e-08 0)
(0.120331 1.14916e-07 0)
(0.120331 1.79953e-07 0)
(0.120331 2.45769e-07 0)
(0.120331 3.20604e-07 0)
(0.120331 1.9196e-07 0)
(0.120331 9.41098e-08 0)
(0.120331 -1.65326e-09 0)
(0.120331 1.14557e-07 0)
(0.120331 2.2788e-07 0)
(0.120331 4.28014e-07 0)
(0.120331 6.87151e-07 0)
(0.120331 6.12684e-07 0)
(0.120331 4.93041e-07 0)
(0.120331 4.35359e-07 0)
(0.12033 5.01342e-07 0)
(0.12033 6.08826e-07 0)
(0.12033 5.2683e-07 0)
(0.12033 4.11289e-07 0)
(0.12033 3.01171e-07 0)
(0.12033 2.0054e-07 0)
(0.120329 2.9908e-07 0)
(0.120329 5.00097e-07 0)
(0.120329 5.09752e-07 0)
(0.120329 4.5464e-07 0)
(0.120329 3.79157e-07 0)
(0.120328 3.64014e-07 0)
(0.120328 3.68272e-07 0)
(0.120327 3.85992e-07 0)
(0.120327 4.22814e-07 0)
(0.120327 5.14919e-07 0)
(0.120326 7.31246e-07 0)
(0.120326 8.95952e-07 0)
(0.120325 8.51625e-07 0)
(0.120325 8.7025e-07 0)
(0.120324 1.04203e-06 0)
(0.120323 1.27631e-06 0)
(0.120322 1.53345e-06 0)
(0.120321 1.80827e-06 0)
(0.12032 2.10425e-06 0)
(0.120318 2.47912e-06 0)
(0.120316 2.9512e-06 0)
(0.120314 3.46273e-06 0)
(0.120312 4.06122e-06 0)
(0.120309 4.82252e-06 0)
(0.120306 5.73435e-06 0)
(0.120302 6.82615e-06 0)
(0.120297 8.13258e-06 0)
(0.120291 9.66699e-06 0)
(0.120285 1.1517e-05 0)
(0.120277 1.37887e-05 0)
(0.120267 1.65484e-05 0)
(0.120256 1.99252e-05 0)
(0.120242 2.40729e-05 0)
(0.120226 2.91946e-05 0)
(0.120207 3.55276e-05 0)
(0.120183 4.33829e-05 0)
(0.120155 5.31616e-05 0)
(0.120121 6.53108e-05 0)
(0.12008 8.0435e-05 0)
(0.120031 9.92701e-05 0)
(0.119972 0.000122684 0)
(0.119902 0.000151694 0)
(0.119818 0.000187463 0)
(0.119719 0.000231263 0)
(0.119603 0.000284316 0)
(0.119471 0.0003473 0)
(0.119318 0.000419807 0)
(0.119126 0.000496474 0)
(0.118879 0.000559316 0)
(0.118828 0.000571108 0)
(0.209579 0.00156189 0)
(0.291857 0.00695066 0)
(0.239329 0.0113772 0)
(0.214233 0.014091 0)
(0.223233 0.0160137 0)
(0.233637 0.0176945 0)
(0.235802 0.0189909 0)
(0.23493 0.019762 0)
(0.234586 0.0201345 0)
(0.234438 0.0203073 0)
(0.233609 0.0204063 0)
(0.23199 0.0205017 0)
(0.229799 0.0206509 0)
(0.227155 0.0208997 0)
(0.224077 0.0212715 0)
(0.220593 0.0217766 0)
(0.216755 0.0224353 0)
(0.212625 0.0233026 0)
(0.208255 0.0244854 0)
(0.203676 0.0261492 0)
(0.198882 0.0285142 0)
(0.193824 0.0318467 0)
(0.188387 0.0364553 0)
(0.182399 0.0427054 0)
(0.175619 0.0510647 0)
(0.167807 0.0622058 0)
(0.15809 0.0770762 0)
(0.147871 0.0962347 0)
(0.136231 0.104005 0)
(0.0946006 0.0330059 0)
(0.0423119 0.0139254 0)
(0.0571113 -0.000973426 0)
(0.053303 -0.011713 0)
(0.0296 -0.00700708 0)
(0.0213228 -0.00214665 0)
(0.0279237 -0.007569 0)
(0.0309189 -0.00925346 0)
(0.0325199 -0.0107221 0)
(0.0345729 -0.00913604 0)
(0.0382366 -0.00833538 0)
(0.0442189 -0.00954119 0)
(0.0571038 -0.0108446 0)
(0.0798141 -0.00977904 0)
(0.0948856 -0.011728 0)
(0.103856 -0.0137591 0)
(0.11196 -0.0145016 0)
(0.120236 -0.0138054 0)
(0.126891 -0.0129535 0)
(0.131065 -0.0138113 0)
(0.134925 -0.0149221 0)
(0.138939 -0.0150596 0)
(0.14279 -0.0139422 0)
(0.14638 -0.0126722 0)
(0.149689 -0.0114766 0)
(0.152761 -0.0103502 0)
(0.155524 -0.00920216 0)
(0.157955 -0.00807035 0)
(0.160052 -0.00700199 0)
(0.161856 -0.0060373 0)
(0.163398 -0.00518328 0)
(0.164717 -0.00444142 0)
(0.165843 -0.00380267 0)
(0.166806 -0.00325605 0)
(0.167631 -0.00278945 0)
(0.168337 -0.00239163 0)
(0.168944 -0.00205263 0)
(0.169466 -0.00176312 0)
(0.169915 -0.00151639 0)
(0.170303 -0.00130609 0)
(0.170637 -0.00112646 0)
(0.170926 -0.000972522 0)
(0.171175 -0.000840378 0)
(0.171391 -0.000726985 0)
(0.171578 -0.000629708 0)
(0.171741 -0.000545723 0)
(0.171882 -0.000473041 0)
(0.172005 -0.000409945 0)
(0.172111 -0.000355404 0)
(0.172204 -0.000308396 0)
(0.172285 -0.000267695 0)
(0.172355 -0.000232659 0)
(0.172416 -0.000202504 0)
(0.172469 -0.000176548 0)
(0.172515 -0.000153889 0)
(0.172556 -0.000134001 0)
(0.172591 -0.000116967 0)
(0.172622 -0.000101895 0)
(0.172649 -8.88613e-05 0)
(0.172672 -7.74109e-05 0)
(0.172692 -6.76255e-05 0)
(0.17271 -5.92314e-05 0)
(0.172726 -5.18538e-05 0)
(0.172739 -4.5436e-05 0)
(0.172751 -3.99077e-05 0)
(0.172762 -3.51924e-05 0)
(0.172771 -3.09812e-05 0)
(0.172779 -2.71506e-05 0)
(0.172786 -2.38355e-05 0)
(0.172793 -2.09268e-05 0)
(0.172798 -1.82551e-05 0)
(0.172803 -1.58794e-05 0)
(0.172807 -1.38264e-05 0)
(0.172811 -1.23192e-05 0)
(0.172814 -1.109e-05 0)
(0.172817 -9.89633e-06 0)
(0.17282 -8.92995e-06 0)
(0.172823 -7.90401e-06 0)
(0.172825 -7.18765e-06 0)
(0.172827 -6.38161e-06 0)
(0.172829 -5.60915e-06 0)
(0.17283 -4.81224e-06 0)
(0.172831 -4.0371e-06 0)
(0.172832 -3.52497e-06 0)
(0.172833 -3.34874e-06 0)
(0.172833 -3.09107e-06 0)
(0.172834 -2.65597e-06 0)
(0.172835 -2.05143e-06 0)
(0.172836 -1.83865e-06 0)
(0.172837 -1.76136e-06 0)
(0.172837 -1.64181e-06 0)
(0.172838 -1.42675e-06 0)
(0.172838 -1.16445e-06 0)
(0.172839 -8.44629e-07 0)
(0.172839 -5.13591e-07 0)
(0.172839 -5.03453e-07 0)
(0.172839 -7.98738e-07 0)
(0.172839 -8.48939e-07 0)
(0.17284 -9.03857e-07 0)
(0.17284 -9.31454e-07 0)
(0.17284 -1.01869e-06 0)
(0.17284 -1.01323e-06 0)
(0.17284 -9.70079e-07 0)
(0.17284 -8.71559e-07 0)
(0.17284 -8.25284e-07 0)
(0.17284 -7.29246e-07 0)
(0.17284 -5.07475e-07 0)
(0.172841 -1.3496e-07 0)
(0.172841 5.84611e-08 0)
(0.172841 3.11963e-07 0)
(0.172841 -7.25641e-08 0)
(0.172841 -1.37126e-07 0)
(0.172841 -1.03017e-07 0)
(0.172842 -2.16488e-07 0)
(0.172842 -3.13219e-07 0)
(0.172842 -4.01473e-07 0)
(0.172843 -4.61292e-07 0)
(0.172843 -4.75473e-07 0)
(0.172843 -4.24449e-07 0)
(0.172844 -2.72545e-07 0)
(0.172844 -2.34063e-07 0)
(0.172844 -2.85489e-07 0)
(0.172844 -3.2957e-07 0)
(0.172845 -3.08034e-07 0)
(0.172845 -2.93912e-07 0)
(0.172845 -3.04614e-07 0)
(0.172846 -3.965e-07 0)
(0.172846 -4.27665e-07 0)
(0.172846 -4.60559e-07 0)
(0.172847 -4.74453e-07 0)
(0.172847 -5.28151e-07 0)
(0.172848 -5.80075e-07 0)
(0.172848 -6.2009e-07 0)
(0.172849 -6.39798e-07 0)
(0.172849 -6.41642e-07 0)
(0.172849 -6.20934e-07 0)
(0.17285 -6.01927e-07 0)
(0.17285 -5.30199e-07 0)
(0.17285 -4.89405e-07 0)
(0.17285 -4.36032e-07 0)
(0.17285 -3.56866e-07 0)
(0.17285 -2.95201e-07 0)
(0.17285 -2.36797e-07 0)
(0.17285 -1.92618e-07 0)
(0.17285 -1.78621e-07 0)
(0.17285 -1.67673e-07 0)
(0.17285 -1.74688e-07 0)
(0.172849 -1.82447e-07 0)
(0.172849 -1.93566e-07 0)
(0.172849 -2.38471e-07 0)
(0.172849 -1.62795e-07 0)
(0.172849 3.96761e-09 0)
(0.172849 8.82583e-08 0)
(0.172849 1.64681e-07 0)
(0.172849 2.62273e-07 0)
(0.17285 3.96591e-07 0)
(0.17285 5.1423e-07 0)
(0.172849 4.56553e-07 0)
(0.172849 3.34247e-07 0)
(0.172849 1.73851e-07 0)
(0.172849 3.55246e-07 0)
(0.17285 6.11919e-07 0)
(0.17285 7.05021e-07 0)
(0.17285 7.24971e-07 0)
(0.17285 7.33077e-07 0)
(0.17285 8.46362e-07 0)
(0.17285 9.21505e-07 0)
(0.17285 1.0154e-06 0)
(0.172849 9.72891e-07 0)
(0.172849 1.04564e-06 0)
(0.172849 8.89129e-07 0)
(0.172849 8.26635e-07 0)
(0.172849 7.61924e-07 0)
(0.172848 7.99003e-07 0)
(0.172848 9.01309e-07 0)
(0.172848 1.03711e-06 0)
(0.172847 1.16733e-06 0)
(0.172847 1.27974e-06 0)
(0.172846 1.43474e-06 0)
(0.172846 1.55786e-06 0)
(0.172845 1.53529e-06 0)
(0.172845 1.56691e-06 0)
(0.172844 1.84546e-06 0)
(0.172843 2.21345e-06 0)
(0.172842 2.57738e-06 0)
(0.172841 3.00825e-06 0)
(0.17284 3.57305e-06 0)
(0.172839 4.14762e-06 0)
(0.172837 4.78981e-06 0)
(0.172835 5.54806e-06 0)
(0.172833 6.51324e-06 0)
(0.172831 7.71104e-06 0)
(0.172828 9.11481e-06 0)
(0.172825 1.07452e-05 0)
(0.172821 1.26788e-05 0)
(0.172816 1.49975e-05 0)
(0.172811 1.77834e-05 0)
(0.172805 2.10926e-05 0)
(0.172797 2.50345e-05 0)
(0.172788 2.97454e-05 0)
(0.172778 3.53987e-05 0)
(0.172766 4.22049e-05 0)
(0.172751 5.04235e-05 0)
(0.172733 6.03683e-05 0)
(0.172713 7.24182e-05 0)
(0.172689 8.70241e-05 0)
(0.17266 0.000104724 0)
(0.172626 0.000126177 0)
(0.172586 0.000152106 0)
(0.172539 0.000183364 0)
(0.172485 0.000220899 0)
(0.172421 0.000265709 0)
(0.172348 0.000318804 0)
(0.172264 0.000381063 0)
(0.17217 0.000453058 0)
(0.172065 0.000534539 0)
(0.171953 0.000623931 0)
(0.171831 0.000717685 0)
(0.171678 0.000806454 0)
(0.171467 0.000869646 0)
(0.171542 0.000876335 0)
(0.211616 0.00120733 0)
(0.295524 0.00532289 0)
(0.24092 0.00885489 0)
(0.213205 0.0112949 0)
(0.220929 0.0131158 0)
(0.230993 0.0147221 0)
(0.233194 0.0161854 0)
(0.232725 0.0174634 0)
(0.233255 0.0185795 0)
(0.234404 0.0196137 0)
(0.235174 0.0206427 0)
(0.235363 0.0217203 0)
(0.235125 0.0228799 0)
(0.234527 0.0241329 0)
(0.233543 0.0254663 0)
(0.232165 0.0268536 0)
(0.230428 0.0282797 0)
(0.228398 0.0297714 0)
(0.226157 0.0314216 0)
(0.223804 0.0334019 0)
(0.221451 0.0359599 0)
(0.219226 0.0394037 0)
(0.217275 0.0440847 0)
(0.215782 0.0503854 0)
(0.215012 0.0587196 0)
(0.21539 0.0695546 0)
(0.217681 0.0833957 0)
(0.22227 0.101227 0)
(0.231877 0.122394 0)
(0.234403 0.1286 0)
(0.226023 0.110557 0)
(0.177249 0.0374283 0)
(0.154385 0.0181114 0)
(0.155714 0.0256367 0)
(0.150094 -0.00523245 0)
(0.141954 -0.0426043 0)
(0.136241 -0.0419219 0)
(0.135019 -0.0372089 0)
(0.134786 -0.0356475 0)
(0.135908 -0.0452807 0)
(0.140073 -0.0627345 0)
(0.137283 -0.0807093 0)
(0.0921559 -0.0420496 0)
(0.100449 -0.0282163 0)
(0.107566 -0.0250948 0)
(0.116408 -0.0255158 0)
(0.13458 -0.0248314 0)
(0.158462 -0.0170693 0)
(0.173619 -0.0147584 0)
(0.180368 -0.0171204 0)
(0.18414 -0.019453 0)
(0.186331 -0.0199818 0)
(0.18818 -0.018985 0)
(0.190082 -0.0177245 0)
(0.192354 -0.0161113 0)
(0.194638 -0.0143583 0)
(0.196741 -0.0125732 0)
(0.198576 -0.010889 0)
(0.200151 -0.00936135 0)
(0.201506 -0.00802308 0)
(0.202665 -0.00686537 0)
(0.203659 -0.00587437 0)
(0.204512 -0.00502923 0)
(0.205246 -0.00430987 0)
(0.205878 -0.0036977 0)
(0.206423 -0.00317637 0)
(0.206894 -0.00273175 0)
(0.207301 -0.00235223 0)
(0.207654 -0.00202807 0)
(0.20796 -0.00175086 0)
(0.208226 -0.00151317 0)
(0.208456 -0.00130896 0)
(0.208657 -0.00113356 0)
(0.208831 -0.000982777 0)
(0.208982 -0.000852792 0)
(0.209114 -0.000739969 0)
(0.209228 -0.000642197 0)
(0.209329 -0.000557518 0)
(0.209416 -0.000484265 0)
(0.209492 -0.000420914 0)
(0.209558 -0.000366162 0)
(0.209616 -0.00031885 0)
(0.209667 -0.000277885 0)
(0.209711 -0.000242373 0)
(0.20975 -0.000211355 0)
(0.209784 -0.000184155 0)
(0.209813 -0.00016037 0)
(0.209839 -0.000139968 0)
(0.209861 -0.000122302 0)
(0.209881 -0.000106831 0)
(0.209898 -9.35959e-05 0)
(0.209913 -8.20162e-05 0)
(0.209926 -7.1927e-05 0)
(0.209938 -6.29802e-05 0)
(0.209948 -5.50325e-05 0)
(0.209957 -4.82481e-05 0)
(0.209965 -4.24948e-05 0)
(0.209972 -3.73649e-05 0)
(0.209978 -3.28195e-05 0)
(0.209983 -2.88789e-05 0)
(0.209988 -2.53706e-05 0)
(0.209992 -2.23467e-05 0)
(0.209996 -1.97451e-05 0)
(0.209999 -1.75822e-05 0)
(0.210002 -1.57337e-05 0)
(0.210005 -1.41373e-05 0)
(0.210007 -1.27187e-05 0)
(0.210009 -1.13064e-05 0)
(0.210011 -1.00245e-05 0)
(0.210013 -8.78709e-06 0)
(0.210014 -7.67234e-06 0)
(0.210015 -6.49612e-06 0)
(0.210016 -5.58024e-06 0)
(0.210017 -4.83419e-06 0)
(0.210018 -4.42519e-06 0)
(0.210019 -4.09827e-06 0)
(0.21002 -3.72827e-06 0)
(0.21002 -3.2819e-06 0)
(0.210021 -2.93906e-06 0)
(0.210022 -2.65036e-06 0)
(0.210022 -2.31007e-06 0)
(0.210023 -1.97757e-06 0)
(0.210023 -1.70311e-06 0)
(0.210024 -1.23499e-06 0)
(0.210024 -9.12041e-07 0)
(0.210024 -7.87242e-07 0)
(0.210025 -9.82195e-07 0)
(0.210025 -1.25213e-06 0)
(0.210025 -1.30529e-06 0)
(0.210025 -1.27833e-06 0)
(0.210025 -1.23922e-06 0)
(0.210025 -1.12191e-06 0)
(0.210025 -1.04208e-06 0)
(0.210025 -1.02602e-06 0)
(0.210025 -9.95663e-07 0)
(0.210025 -6.8866e-07 0)
(0.210025 -4.83509e-07 0)
(0.210025 -2.14653e-07 0)
(0.210025 -8.20884e-08 0)
(0.210026 -1.27058e-07 0)
(0.210026 -3.90151e-07 0)
(0.210026 -4.00722e-07 0)
(0.210026 -3.79369e-07 0)
(0.210027 -3.86035e-07 0)
(0.210027 -4.00793e-07 0)
(0.210027 -4.12121e-07 0)
(0.210027 -4.11481e-07 0)
(0.210028 -4.08892e-07 0)
(0.210028 -3.59628e-07 0)
(0.210028 -2.30417e-07 0)
(0.210028 -1.58571e-07 0)
(0.210029 -1.84659e-07 0)
(0.210029 -2.61019e-07 0)
(0.21003 -3.01492e-07 0)
(0.21003 -2.9833e-07 0)
(0.21003 -3.08541e-07 0)
(0.210031 -4.30981e-07 0)
(0.210031 -6.24449e-07 0)
(0.210032 -7.3204e-07 0)
(0.210032 -7.42276e-07 0)
(0.210032 -7.50441e-07 0)
(0.210033 -7.52387e-07 0)
(0.210033 -7.6077e-07 0)
(0.210033 -7.65229e-07 0)
(0.210033 -7.6081e-07 0)
(0.210034 -6.63506e-07 0)
(0.210034 -5.73734e-07 0)
(0.210034 -5.05078e-07 0)
(0.210034 -4.66358e-07 0)
(0.210034 -4.15633e-07 0)
(0.210034 -3.48304e-07 0)
(0.210034 -2.91123e-07 0)
(0.210034 -2.43514e-07 0)
(0.210034 -2.00537e-07 0)
(0.210034 -1.62314e-07 0)
(0.210034 -1.2017e-07 0)
(0.210034 -8.77397e-08 0)
(0.210034 -1.20063e-07 0)
(0.210033 -1.77478e-07 0)
(0.210033 -1.80056e-07 0)
(0.210033 -1.47947e-07 0)
(0.210033 -5.5204e-08 0)
(0.210033 1.30594e-08 0)
(0.210033 6.3915e-08 0)
(0.210033 2.3401e-07 0)
(0.210033 4.28573e-07 0)
(0.210033 5.37013e-07 0)
(0.210034 4.32944e-07 0)
(0.210034 2.99827e-07 0)
(0.210034 2.69871e-07 0)
(0.210034 2.35238e-07 0)
(0.210034 4.33918e-07 0)
(0.210034 6.20964e-07 0)
(0.210034 7.43213e-07 0)
(0.210034 8.53678e-07 0)
(0.210034 8.51615e-07 0)
(0.210034 1.02298e-06 0)
(0.210034 1.13111e-06 0)
(0.210033 1.22231e-06 0)
(0.210033 1.10401e-06 0)
(0.210033 1.09562e-06 0)
(0.210033 1.13167e-06 0)
(0.210033 1.23765e-06 0)
(0.210032 1.31323e-06 0)
(0.210032 1.41975e-06 0)
(0.210032 1.72087e-06 0)
(0.210031 2.04021e-06 0)
(0.210031 2.26488e-06 0)
(0.21003 2.44342e-06 0)
(0.21003 2.73402e-06 0)
(0.210029 2.94504e-06 0)
(0.210028 3.37891e-06 0)
(0.210027 4.01211e-06 0)
(0.210026 4.6292e-06 0)
(0.210025 5.33302e-06 0)
(0.210024 6.23704e-06 0)
(0.210023 7.25345e-06 0)
(0.210021 8.448e-06 0)
(0.210019 9.72939e-06 0)
(0.210017 1.13283e-05 0)
(0.210014 1.33293e-05 0)
(0.210011 1.57155e-05 0)
(0.210008 1.85469e-05 0)
(0.210004 2.18805e-05 0)
(0.209999 2.58285e-05 0)
(0.209993 3.05046e-05 0)
(0.209987 3.6043e-05 0)
(0.209979 4.26156e-05 0)
(0.20997 5.04289e-05 0)
(0.209959 5.97253e-05 0)
(0.209947 7.08159e-05 0)
(0.209933 8.40563e-05 0)
(0.209916 9.98646e-05 0)
(0.209896 0.000118738 0)
(0.209873 0.000141254 0)
(0.209847 0.000168064 0)
(0.209816 0.000199908 0)
(0.209781 0.000237586 0)
(0.209741 0.000281957 0)
(0.209696 0.000333869 0)
(0.209645 0.000394089 0)
(0.209588 0.00046322 0)
(0.209527 0.000541463 0)
(0.20946 0.000628363 0)
(0.209391 0.000722318 0)
(0.209323 0.000820211 0)
(0.209252 0.000916743 0)
(0.20915 0.00100176 0)
(0.208986 0.00105714 0)
(0.209182 0.00106005 0)
(0.213112 0.000939073 0)
(0.29841 0.00414925 0)
(0.243031 0.0069168 0)
(0.21409 0.00891721 0)
(0.221118 0.0105591 0)
(0.230827 0.0121193 0)
(0.232677 0.0136205 0)
(0.231864 0.0150292 0)
(0.232199 0.0163704 0)
(0.233379 0.0177132 0)
(0.234412 0.0191283 0)
(0.235087 0.0206669 0)
(0.23556 0.0223557 0)
(0.2359 0.0241895 0)
(0.236071 0.026129 0)
(0.236045 0.0281095 0)
(0.235835 0.0300673 0)
(0.235484 0.0319722 0)
(0.235056 0.0338568 0)
(0.234649 0.0358313 0)
(0.234391 0.0380786 0)
(0.234453 0.0408323 0)
(0.235047 0.044342 0)
(0.236437 0.0488365 0)
(0.238962 0.0544861 0)
(0.243036 0.0613629 0)
(0.249252 0.0693748 0)
(0.258087 0.0781831 0)
(0.270704 0.0876903 0)
(0.285593 0.0961985 0)
(0.301702 0.100228 0)
(0.309367 0.0890251 0)
(0.307142 0.0702339 0)
(0.298943 0.0505035 0)
(0.291792 0.0319964 0)
(0.283827 0.0163519 0)
(0.272796 0.00491685 0)
(0.262909 -0.00203301 0)
(0.256352 -0.00609353 0)
(0.250823 -0.0107384 0)
(0.243483 -0.00834229 0)
(0.236625 -0.00537374 0)
(0.236569 -0.028631 0)
(0.239407 -0.0747646 0)
(0.242412 -0.0839808 0)
(0.246247 -0.097552 0)
(0.22967 -0.0946021 0)
(0.220118 -0.0670559 0)
(0.214991 -0.0451226 0)
(0.214044 -0.030273 0)
(0.218479 -0.0221066 0)
(0.221266 -0.0190864 0)
(0.22247 -0.0198646 0)
(0.223482 -0.0205485 0)
(0.224295 -0.0197177 0)
(0.225334 -0.0180292 0)
(0.226485 -0.0159228 0)
(0.227603 -0.0138213 0)
(0.228599 -0.0119012 0)
(0.229469 -0.0102058 0)
(0.230235 -0.00874267 0)
(0.230903 -0.0074903 0)
(0.231488 -0.00642304 0)
(0.232 -0.00551459 0)
(0.232448 -0.00474099 0)
(0.23284 -0.00408138 0)
(0.233183 -0.00351815 0)
(0.233483 -0.00303646 0)
(0.233746 -0.00262358 0)
(0.233977 -0.00226914 0)
(0.234178 -0.00196418 0)
(0.234354 -0.00170169 0)
(0.234508 -0.00147577 0)
(0.234643 -0.00128094 0)
(0.234761 -0.00111256 0)
(0.234865 -0.000966812 0)
(0.234955 -0.000840481 0)
(0.235035 -0.000730952 0)
(0.235104 -0.000635958 0)
(0.235165 -0.000553561 0)
(0.235218 -0.000482084 0)
(0.235264 -0.000420084 0)
(0.235305 -0.00036622 0)
(0.235341 -0.000319391 0)
(0.235372 -0.000278619 0)
(0.2354 -0.000243071 0)
(0.235424 -0.000212223 0)
(0.235445 -0.000185275 0)
(0.235464 -0.000161995 0)
(0.23548 -0.000141616 0)
(0.235494 -0.000123925 0)
(0.235507 -0.000108556 0)
(0.235518 -9.5258e-05 0)
(0.235527 -8.35453e-05 0)
(0.235536 -7.31958e-05 0)
(0.235543 -6.41861e-05 0)
(0.23555 -5.63844e-05 0)
(0.235556 -4.95603e-05 0)
(0.235561 -4.3514e-05 0)
(0.235565 -3.83285e-05 0)
(0.235569 -3.38351e-05 0)
(0.235573 -2.98493e-05 0)
(0.235576 -2.63865e-05 0)
(0.235579 -2.3535e-05 0)
(0.235581 -2.10592e-05 0)
(0.235583 -1.87683e-05 0)
(0.235585 -1.67319e-05 0)
(0.235587 -1.48757e-05 0)
(0.235589 -1.3211e-05 0)
(0.23559 -1.16823e-05 0)
(0.235591 -1.03107e-05 0)
(0.235592 -9.01926e-06 0)
(0.235593 -8.00744e-06 0)
(0.235594 -7.05417e-06 0)
(0.235595 -6.3656e-06 0)
(0.235596 -5.7233e-06 0)
(0.235597 -5.13297e-06 0)
(0.235597 -4.55128e-06 0)
(0.235598 -4.03884e-06 0)
(0.235598 -3.59857e-06 0)
(0.235599 -3.16264e-06 0)
(0.235599 -2.74574e-06 0)
(0.2356 -2.39397e-06 0)
(0.2356 -2.06754e-06 0)
(0.235601 -1.83765e-06 0)
(0.235601 -1.69206e-06 0)
(0.235601 -1.57436e-06 0)
(0.235602 -1.48565e-06 0)
(0.235602 -1.41755e-06 0)
(0.235601 -1.39388e-06 0)
(0.235601 -1.42017e-06 0)
(0.235602 -1.32391e-06 0)
(0.235602 -1.21101e-06 0)
(0.235602 -1.08959e-06 0)
(0.235601 -9.78554e-07 0)
(0.235601 -7.51111e-07 0)
(0.235602 -5.74154e-07 0)
(0.235602 -4.29365e-07 0)
(0.235602 -4.38178e-07 0)
(0.235602 -4.40085e-07 0)
(0.235603 -5.2335e-07 0)
(0.235603 -4.83885e-07 0)
(0.235603 -4.46427e-07 0)
(0.235603 -4.20888e-07 0)
(0.235603 -4.05464e-07 0)
(0.235603 -3.89752e-07 0)
(0.235604 -3.69996e-07 0)
(0.235604 -3.47138e-07 0)
(0.235604 -3.24602e-07 0)
(0.235604 -2.88684e-07 0)
(0.235605 -2.71287e-07 0)
(0.235605 -3.00231e-07 0)
(0.235606 -3.32572e-07 0)
(0.235606 -3.70728e-07 0)
(0.235606 -4.11416e-07 0)