/*--------------------------------*- C++ -*----------------------------------*\
| =========                 |                                                 |
| \\      /  F ield         | OpenFOAM: The Open Source CFD Toolbox           |
|  \\    /   O peration     | Version:  2406                                  |
|   \\  /    A nd           | Website:  www.openfoam.com                      |
|    \\/     M anipulation  |                                                 |
\*---------------------------------------------------------------------------*/
FoamFile
{
    version     2.0;
    format      ascii;
    arch        "LSB;label=32;scalar=64";
    class       volScalarField;
    location    "100";
    object      alphat;
}
// * * * * * * * * * * * * * * * * * * * * * * * * * * * * * * * * * * * * * //

dimensions      [0 2 -1 0 0 0 0];

internalField   nonuniform List<scalar> 
5619
(
0.000139113
0.000142893
0.000147117
0.000151652
0.00015653
0.000161785
0.000167424
0.000173443
0.000179841
0.000186625
0.000193813
0.000201414
0.000209418
0.000217783
0.000226438
0.000235292
0.000244231
0.000253122
0.000261797
0.000270058
0.000277674
0.000284393
0.000289968
0.00029418
0.000296875
0.000297993
0.000297594
0.000295873
0.000293166
0.000289935
0.000286722
0.000284066
0.000282416
0.000282058
0.000283103
0.000285522
0.000289202
0.000294
0.000299771
0.000306386
0.000313733
0.000321716
0.000330251
0.000339264
0.000348686
0.000358452
0.000368501
0.000378774
0.000389217
0.000399778
0.000410409
0.000421066
0.000431706
0.00044229
0.000452776
0.000463124
0.000473289
0.000483225
0.000492878
0.000502187
0.000511086
0.0005195
0.00052735
0.000534553
0.000541023
0.000546677
0.000551436
0.000555232
0.000558012
0.000559748
0.000560436
0.000560104
0.000558817
0.000556561
0.000553216
0.00054891
0.000543717
0.000537726
0.000531046
0.000523804
0.000516146
0.000508234
0.000500241
0.000492348
0.000484729
0.000477546
0.000470936
0.000465003
0.000459816
0.000455401
0.000451747
0.000448811
0.000446527
0.000444809
0.000443563
0.000442694
0.00044212
0.000441768
0.000441558
0.000441411
0.000441253
0.000441137
0.000440989
0.00044071
0.000440172
0.000439234
0.000437782
0.000435772
0.000433245
0.000430322
0.00042717
0.000423935
0.000420689
0.000417404
0.000413959
0.000410173
0.000405849
0.000400815
0.000394959
0.000388237
0.000380677
0.000372354
0.000363364
0.000353792
0.000343707
0.000333179
0.000322308
0.000311269
0.000300319
0.000288748
0.000276533
0.00026365
0.000250079
0.000235803
0.000220813
0.000205116
0.000188748
0.000171794
0.000154412
0.000136869
0.000119583
0.000103164
8.8406e-05
7.61763e-05
6.71008e-05
6.11534e-05
5.75591e-05
5.52873e-05
5.36039e-05
5.21539e-05
5.07879e-05
4.94329e-05
4.80416e-05
4.65779e-05
4.50154e-05
4.33386e-05
4.1545e-05
3.96466e-05
3.76721e-05
3.56657e-05
3.3684e-05
3.17875e-05
3.00298e-05
2.84479e-05
2.70598e-05
2.5869e-05
2.48717e-05
2.40594e-05
2.3419e-05
2.29315e-05
2.25724e-05
2.2316e-05
2.21389e-05
2.20227e-05
2.1954e-05
2.19229e-05
2.19234e-05
2.19579e-05
2.20308e-05
2.21543e-05
2.2354e-05
2.26649e-05
2.31168e-05
2.37039e-05
2.43125e-05
2.45254e-05
2.30393e-05
0.00124162
0.00128016
0.00132641
0.00137534
0.00142738
0.00148296
0.00154237
0.0016056
0.00167257
0.00174324
0.00181778
0.00189641
0.00197923
0.00206597
0.00215595
0.00224817
0.00234135
0.00243399
0.00252427
0.00260997
0.00268838
0.00275643
0.00281087
0.00284864
0.00286727
0.00286521
0.00284204
0.00279859
0.00273694
0.0026606
0.0025746
0.00248526
0.00239937
0.00232294
0.0022602
0.00221314
0.00218196
0.00216569
0.00216291
0.00217213
0.00219198
0.00222133
0.00225923
0.00230486
0.00235752
0.00241655
0.00248133
0.00255124
0.00262564
0.00270392
0.00278547
0.00286971
0.00295612
0.00304425
0.00313369
0.00322416
0.00331544
0.00340732
0.00349969
0.00359247
0.00368561
0.00377895
0.0038723
0.00396537
0.00405781
0.00414912
0.00423861
0.00432535
0.00440818
0.00448576
0.00455648
0.00461863
0.00466972
0.00470503
0.0047293
0.00474227
0.00474314
0.00473113
0.00470553
0.00466584
0.00461183
0.00454369
0.00446215
0.00436852
0.00426479
0.00415353
0.00403788
0.00392125
0.00380716
0.00369887
0.00359916
0.00351014
0.00343314
0.00336871
0.00331667
0.00327554
0.00324372
0.00322078
0.00320647
0.00320064
0.00320324
0.00321448
0.00323353
0.00325916
0.00328955
0.00332218
0.00335409
0.00338256
0.003406
0.0034245
0.00343986
0.00345494
0.00347264
0.00349495
0.00352242
0.00355414
0.003588
0.00362122
0.00365092
0.00367462
0.00369072
0.00369867
0.00369885
0.00369198
0.00367848
0.00365784
0.00362863
0.00358916
0.00353768
0.00347448
0.00340041
0.00331553
0.00321962
0.00311219
0.00299246
0.00285937
0.00271158
0.00254746
0.00236512
0.00216259
0.00193816
0.00169152
0.00142585
0.00115105
0.000886113
0.00065617
0.000481195
0.000364066
0.000291755
0.000247325
0.000218303
0.000197615
0.00018161
0.000168304
0.000156422
0.000145005
0.000133294
0.000120737
0.00010705
9.2302e-05
7.69882e-05
6.20434e-05
4.87169e-05
3.82611e-05
3.14797e-05
2.84042e-05
2.83706e-05
3.03923e-05
3.35282e-05
3.70438e-05
4.03966e-05
4.32085e-05
4.52645e-05
4.6493e-05
4.69117e-05
4.65625e-05
4.54646e-05
4.36552e-05
4.13517e-05
3.85839e-05
3.5401e-05
3.20107e-05
2.88379e-05
2.65326e-05
2.60327e-05
2.91789e-05
4.27102e-05
0.00316375
0.00325134
0.0033572
0.00346887
0.0035874
0.00371396
0.00384927
0.00399326
0.00414562
0.00430629
0.00447579
0.00465497
0.0048444
0.00504379
0.00525187
0.00546654
0.00568518
0.00590459
0.00612088
0.00632905
0.00652276
0.00669441
0.00683547
0.00693728
0.00699191
0.00699313
0.00693717
0.00682333
0.00665483
0.0064397
0.00619152
0.00592854
0.00567075
0.00543576
0.00523554
0.00507547
0.00495558
0.00487277
0.00482267
0.00480093
0.00480369
0.00482775
0.00487051
0.00492985
0.00500394
0.00509119
0.00519013
0.00529935
0.00541752
0.00554334
0.0056756
0.00581315
0.00595501
0.0061003
0.0062483
0.00639846
0.00655034
0.00670362
0.00685806
0.00701353
0.00716988
0.00732682
0.00748393
0.00764064
0.00779623
0.00794971
0.00809974
0.00824469
0.00838286
0.00851259
0.00863051
0.00873175
0.00881373
0.0088786
0.00892612
0.00895495
0.00896356
0.00895056
0.0089148
0.00885551
0.00877242
0.00866585
0.00853684
0.00838716
0.00821938
0.0080368
0.00784339
0.00764365
0.00744241
0.00724458
0.00705487
0.00687746
0.0067158
0.00657234
0.00644599
0.00633716
0.00624718
0.00617589
0.00612242
0.00608527
0.00606205
0.0060555
0.00606813
0.00609629
0.00613669
0.00618537
0.00623756
0.00628858
0.00633519
0.00637684
0.00641597
0.00645719
0.00650564
0.00656539
0.0066383
0.00672362
0.00681829
0.00691746
0.00701523
0.00710544
0.00718254
0.00724224
0.00728205
0.00730118
0.00730008
0.00727972
0.00724092
0.00718396
0.00710573
0.00700537
0.006884
0.00674158
0.0065773
0.00638966
0.00617646
0.00593483
0.00566137
0.00535237
0.0050042
0.00461401
0.00418083
0.00370729
0.00320196
0.00268178
0.00217312
0.00170915
0.0013218
0.00103002
0.000831203
0.00070439
0.000623443
0.00056809
0.000526299
0.000491716
0.000460822
0.00043131
0.000401463
0.000370001
0.000336106
0.000299513
0.00026057
0.000220222
0.000179861
0.000141103
0.000105791
7.67089e-05
5.72773e-05
4.78396e-05
4.50896e-05
4.57273e-05
4.78045e-05
5.02285e-05
5.23318e-05
5.37298e-05
5.42701e-05
5.39832e-05
5.30274e-05
5.17378e-05
5.05842e-05
4.9854e-05
4.98856e-05
5.11189e-05
5.41689e-05
6.00457e-05
7.08334e-05
9.19055e-05
0.00014329
0.00538029
0.00551734
0.00568269
0.00585712
0.00604217
0.00623981
0.0064512
0.00667615
0.00691414
0.00716511
0.00743013
0.00771083
0.0080084
0.00832257
0.00865144
0.00899183
0.00933963
0.0096898
0.0100361
0.0103702
0.0106816
0.0109572
0.011182
0.0113404
0.0114174
0.0114009
0.0112832
0.0110625
0.0107449
0.010346
0.00989122
0.00941352
0.00894747
0.00852239
0.00815732
0.00786
0.00762935
0.00745918
0.00734149
0.00726843
0.00723319
0.00723021
0.00725504
0.00730412
0.00737449
0.00746364
0.00756934
0.00768952
0.00782224
0.00796565
0.00811801
0.00827767
0.00844315
0.00861315
0.0087865
0.00896231
0.00913985
0.00931838
0.00949732
0.00967624
0.00985483
0.0100326
0.0102091
0.0103836
0.0105553
0.0107235
0.0108857
0.0110392
0.0111818
0.0113104
0.0114238
0.0115225
0.0116059
0.0116732
0.0117234
0.0117553
0.0117674
0.0117587
0.0117281
0.0116751
0.0115992
0.0115003
0.0113788
0.0112352
0.0110707
0.0108866
0.010685
0.0104683
0.0102395
0.0100021
0.00976021
0.00951821
0.00928062
0.00904841
0.00882673
0.00862053
0.00843343
0.00826816
0.0081266
0.00800966
0.00791528
0.00784363
0.00779735
0.00777871
0.00778461
0.0078115
0.00785422
0.00790638
0.00796209
0.0080178
0.00807334
0.00813156
0.00819682
0.00827312
0.0083627
0.00846526
0.00857797
0.0086958
0.00881222
0.00891995
0.00901206
0.00908292
0.00912913
0.0091499
0.00914667
0.00912222
0.00907945
0.00902034
0.00894139
0.00884042
0.00871773
0.00857258
0.00840346
0.00820806
0.0079832
0.00772487
0.00742839
0.00708871
0.0067009
0.00626096
0.00576679
0.00521961
0.00462559
0.0039977
0.00335723
0.00273437
0.00216612
0.00168938
0.0013284
0.00108253
0.000926666
0.000827192
0.000757779
0.000703195
0.000655678
0.000611082
0.000566899
0.0005216
0.000474493
0.000425722
0.00037624
0.000327627
0.000281711
0.000239934
0.00020248
0.000167721
0.00013462
0.000107603
9.11957e-05
8.33136e-05
8.02191e-05
7.95851e-05
8.0185e-05
8.13893e-05
8.29258e-05
8.4756e-05
8.69828e-05
9.00581e-05
9.45003e-05
0.00010058
0.000108654
0.000119228
0.00013313
0.000151968
0.000179244
0.000223391
0.000309451
0.00766722
0.0078525
0.00807492
0.00830979
0.00855889
0.00882486
0.00910922
0.00941163
0.00973143
0.0100687
0.0104251
0.0108031
0.0112043
0.0116286
0.0120733
0.0125342
0.0130056
0.0134807
0.0139506
0.0144037
0.014825
0.0151961
0.0154953
0.0156998
0.0157881
0.0157423
0.0155513
0.0152135
0.0147391
0.0141517
0.013488
0.0127934
0.0121152
0.0114928
0.0109522
0.010504
0.0101467
0.00987166
0.00966723
0.00952203
0.00942611
0.00937134
0.0093513
0.00936091
0.00939614
0.00945365
0.00953056
0.00962429
0.00973247
0.00985281
0.00998316
0.0101214
0.0102657
0.0104143
0.0105654
0.0107178
0.0108709
0.0110237
0.0111756
0.0113256
0.0114727
0.0116162
0.0117554
0.0118895
0.0120173
0.0121374
0.0122503
0.0123564
0.0124552
0.0125463
0.0126295
0.0127046
0.0127713
0.012829
0.0128768
0.0129138
0.0129391
0.0129519
0.0129511
0.0129359
0.0129053
0.0128582
0.0127935
0.01271
0.0126065
0.0124817
0.0123344
0.0121635
0.0119684
0.0117491
0.0115062
0.0112407
0.0109535
0.010651
0.010339
0.0100236
0.00971139
0.00940938
0.00912498
0.00886546
0.00863142
0.00842606
0.00825774
0.00812687
0.00803811
0.00799413
0.00799109
0.00802011
0.00806982
0.00812994
0.00819386
0.00825934
0.0083274
0.0084005
0.00848071
0.00856869
0.00866326
0.0087614
0.00885872
0.00894994
0.00902973
0.00909357
0.00913865
0.00916446
0.00917274
0.00916655
0.009149
0.00912193
0.00908261
0.0090292
0.00896102
0.00887661
0.00877385
0.00864988
0.00850094
0.00832227
0.00810817
0.00785216
0.00754739
0.00718723
0.00676614
0.0062807
0.00573093
0.00512171
0.00446449
0.00377908
0.00309544
0.00245403
0.00190102
0.00147415
0.00118268
0.00100038
0.000885161
0.000803526
0.000737016
0.000677015
0.000619698
0.000563644
0.000508872
0.000456351
0.000407632
0.000364434
0.000328164
0.000299284
0.000276304
0.000254708
0.000229212
0.000201914
0.000180819
0.000168268
0.000161919
0.000159458
0.000159532
0.000161445
0.000164855
0.000169603
0.000175631
0.000183336
0.00019309
0.000204965
0.000219213
0.000236384
0.000257519
0.000284508
0.000320745
0.000372201
0.000448373
0.00989522
0.0101264
0.0104022
0.0106939
0.0110032
0.0113331
0.0116853
0.0120595
0.0124549
0.0128718
0.0133124
0.0137798
0.0142762
0.0148013
0.0153519
0.0159228
0.016507
0.0170958
0.0176779
0.0182389
0.0187601
0.019218
0.0195858
0.0198343
0.0199359
0.019868
0.0196167
0.0191804
0.0185721
0.0178207
0.0169699
0.0160737
0.0151886
0.0143636
0.013633
0.013013
0.0125042
0.0120968
0.0117765
0.0115284
0.0113389
0.0111969
0.0110936
0.011022
0.0109768
0.0109538
0.0109496
0.0109613
0.0109861
0.0110218
0.0110659
0.0111161
0.0111708
0.0112291
0.0112887
0.0113464
0.0114022
0.0114557
0.0115057
0.0115513
0.0115935
0.0116339
0.0116726
0.01171
0.0117466
0.0117829
0.01182
0.0118587
0.0118996
0.0119431
0.0119896
0.0120391
0.0120914
0.0121462
0.0122027
0.01226
0.0123172
0.012373
0.012426
0.0124746
0.0125169
0.0125509
0.012574
0.0125835
0.0125763
0.0125488
0.0124972
0.0124172
0.0123045
0.0121545
0.0119629
0.0117286
0.0114546
0.011143
0.0107961
0.0104173
0.0100117
0.00958735
0.00915508
0.00872878
0.00831152
0.00791324
0.00755935
0.00726063
0.00702371
0.00686978
0.00679942
0.00679779
0.00684201
0.00690946
0.00698351
0.00705514
0.00712125
0.00718199
0.00723848
0.0072915
0.00734117
0.00738702
0.00742838
0.0074646
0.00749512
0.00751954
0.00753777
0.00755068
0.00756063
0.00757098
0.00758438
0.00760128
0.00761989
0.00763887
0.00765615
0.00766945
0.00767614
0.0076731
0.00765643
0.00762108
0.00756082
0.0074684
0.00733547
0.00715297
0.0069117
0.0066032
0.00622079
0.00576078
0.0052238
0.00461641
0.00395344
0.00326143
0.00258211
0.00197117
0.00148416
0.00114728
0.000938694
0.000809571
0.000719559
0.00064742
0.000584608
0.000528679
0.00047972
0.000438638
0.0004064
0.000383578
0.000369789
0.000362784
0.000357318
0.000346024
0.000325926
0.000303604
0.000286798
0.000276975
0.000272383
0.000271308
0.000272689
0.000275948
0.000280779
0.000287032
0.000294651
0.000303908
0.000315073
0.000328213
0.000343559
0.000361559
0.000382914
0.000408596
0.000439724
0.000476894
0.000517955
0.0119589
0.0122316
0.0125552
0.0128981
0.0132612
0.013648
0.0140602
0.0144971
0.0149582
0.0154441
0.0159573
0.0165015
0.0170792
0.01769
0.0183304
0.0189944
0.019674
0.0203591
0.0210368
0.0216904
0.0222985
0.0228347
0.023268
0.023565
0.0236932
0.0236257
0.0233459
0.0228509
0.0221538
0.0212842
0.0202872
0.0192193
0.0181424
0.0171139
0.016178
0.0153603
0.0146675
0.0140922
0.0136188
0.0132294
0.0129065
0.012635
0.0124026
0.0121998
0.012019
0.0118546
0.0117023
0.0115586
0.0114208
0.0112862
0.011153
0.0110184
0.0108771
0.0107346
0.0105936
0.0104569
0.0103311
0.0102172
0.0101147
0.0100232
0.00994208
0.00987127
0.00981078
0.00976113
0.00972323
0.00969822
0.00968723
0.00969118
0.00971065
0.00974585
0.00979656
0.00986217
0.00994166
0.0100336
0.0101364
0.0102481
0.0103664
0.0104893
0.0106142
0.0107388
0.0108605
0.0109765
0.0110839
0.0111795
0.0112597
0.0113204
0.0113568
0.0113637
0.0113349
0.0112636
0.0111451
0.0109824
0.0107755
0.010523
0.0102231
0.00987521
0.00948025
0.00904242
0.00857029
0.00807779
0.00756616
0.0070482
0.00656445
0.00613897
0.00577407
0.00551337
0.0053739
0.00533986
0.00537501
0.00544155
0.00551272
0.00557481
0.00562319
0.00565768
0.00567961
0.0056906
0.0056921
0.00568548
0.00567204
0.00565308
0.00562968
0.00560206
0.0055688
0.00552722
0.00547632
0.00542101
0.00537142
0.00533834
0.00532703
0.00533667
0.00536657
0.00541516
0.00548029
0.00555925
0.00564895
0.00574403
0.00583644
0.00591908
0.00598291
0.0060171
0.00600941
0.00594691
0.00581695
0.00560817
0.00531154
0.00492133
0.00443588
0.00386159
0.00321882
0.00254834
0.00191607
0.00140108
0.00105197
0.000848854
0.000733045
0.000657922
0.000601197
0.000555759
0.000520382
0.000494934
0.000478778
0.000470173
0.000465647
0.000459929
0.000448051
0.000429481
0.000409262
0.000393069
0.000382864
0.00037773
0.000376165
0.000377036
0.000379644
0.000383597
0.000388685
0.000394813
0.000401935
0.000410251
0.000419887
0.000430863
0.000443248
0.00045714
0.000472619
0.000489638
0.000507802
0.000525993
0.00054195
0.0137587
0.0140658
0.0144291
0.0148147
0.0152224
0.0156557
0.0161159
0.0166026
0.017115
0.017654
0.0182227
0.018825
0.0194635
0.0201378
0.0208444
0.0215768
0.0223267
0.0230833
0.0238329
0.0245574
0.0252342
0.0258359
0.0263298
0.0266802
0.0268516
0.0268138
0.0265473
0.0260466
0.0253222
0.0243999
0.0233202
0.0221353
0.0209058
0.0196937
0.0185529
0.0175212
0.0166168
0.0158395
0.0151768
0.0146098
0.0141177
0.0136811
0.0132832
0.0129098
0.0125498
0.0121944
0.0118364
0.0114703
0.0110912
0.0106942
0.0102736
0.00983685
0.00939366
0.00896632
0.00856561
0.0082009
0.00788028
0.00760767
0.00738357
0.00720547
0.00706888
0.00696867
0.00690046
0.00686136
0.00684972
0.00686461
0.00690524
0.00697057
0.00705914
0.00716902
0.00729783
0.00744283
0.00760109
0.00776955
0.00794517
0.00812501
0.0083063
0.00848648
0.0086632
0.00883426
0.00899758
0.00915107
0.0092926
0.00941986
0.00953028
0.00962095
0.00968856
0.00972933
0.00973904
0.00971305
0.00965257
0.00955935
0.009432
0.0092677
0.00906339
0.00881668
0.00852677
0.00819549
0.00782843
0.00743581
0.00701636
0.00657694
0.00614549
0.0057325
0.00532799
0.00496182
0.00470528
0.00458714
0.004576
0.00462058
0.00468455
0.00475162
0.00481711
0.00487983
0.00493814
0.0049889
0.00502798
0.00505129
0.00505602
0.00504176
0.00501109
0.00496878
0.00491936
0.00486271
0.00478985
0.00469607
0.00458509
0.00446807
0.00435498
0.0042445
0.00414042
0.00404699
0.00396867
0.00391016
0.00387627
0.00387162
0.00389992
0.00396278
0.00405807
0.0041784
0.00431054
0.00443643
0.00453528
0.00458592
0.00456875
0.00446759
0.00426461
0.00394703
0.00351125
0.00297036
0.00236033
0.00175283
0.0012592
0.00097323
0.000869522
0.000837451
0.000805558
0.000763145
0.000717908
0.000675812
0.000638277
0.000604077
0.000571573
0.000540402
0.000512074
0.000488873
0.000472121
0.000461526
0.000455798
0.000453509
0.000453531
0.000455102
0.000457751
0.000461205
0.000465313
0.000470001
0.000475198
0.000481046
0.000487522
0.000494576
0.000502148
0.000510153
0.000518449
0.0005268
0.000534845
0.000542095
0.000548049
0.015222
0.0155537
0.0159472
0.016365
0.0168058
0.0172725
0.0177663
0.0182865
0.0188325
0.0194055
0.0200086
0.0206459
0.0213201
0.0220307
0.0227744
0.0235449
0.024334
0.0251311
0.0259225
0.02669
0.0274103
0.0280574
0.0285995
0.029001
0.0292257
0.0292418
0.0290279
0.028576
0.0278922
0.0269958
0.0259173
0.0246983
0.0233904
0.0220528
0.0207441
0.0195139
0.0183947
0.0174
0.0165265
0.0157599
0.0150801
0.0144655
0.0138956
0.0133523
0.0128203
0.0122872
0.0117429
0.0111791
0.0105864
0.00995141
0.00926646
0.00856451
0.00786327
0.00718427
0.00654639
0.005969
0.00547188
0.0050726
0.00478233
0.00460116
0.00451674
0.00450867
0.00455614
0.00464295
0.00475822
0.00489478
0.00504754
0.00521254
0.00538641
0.00556617
0.00574922
0.00593328
0.00611642
0.006297
0.00647365
0.0066452
0.00681068
0.00696923
0.00712006
0.00726245
0.00739565
0.00751888
0.00763131
0.00773198
0.00781982
0.00789359
0.00795186
0.007993
0.00801513
0.00801615
0.00799737
0.00795801
0.00789602
0.00780898
0.00769458
0.00755114
0.0073781
0.00717656
0.00694967
0.00670262
0.00643106
0.00613034
0.00580387
0.00544865
0.00507655
0.00474306
0.00452435
0.00444594
0.0044753
0.00456465
0.00468072
0.00480688
0.00493487
0.00505831
0.00517001
0.00526165
0.00532464
0.00535138
0.00533707
0.00528194
0.00519313
0.00508536
0.00497976
0.00489582
0.00483637
0.00478823
0.00473303
0.00466398
0.00458395
0.00448872
0.00437905
0.00425716
0.00412597
0.00398875
0.0038489
0.00371
0.00357595
0.00345134
0.00334181
0.00325383
0.00319265
0.00316149
0.00316154
0.00318916
0.00323339
0.0032751
0.0032887
0.00324574
0.00311911
0.00288226
0.00251813
0.00204616
0.00154208
0.00113572
0.000964837
0.000990338
0.00102364
0.000989955
0.000913381
0.00082727
0.000748582
0.000681632
0.000626625
0.000583295
0.00055109
0.000528728
0.000514307
0.000505781
0.000501351
0.000499631
0.000499639
0.000500736
0.000502525
0.000504762
0.000507318
0.00051012
0.00051318
0.000516483
0.000519992
0.000523663
0.00052745
0.000531297
0.000535138
0.000538902
0.000542518
0.000545949
0.000549234
0.0163445
0.0166919
0.0171077
0.0175486
0.0180122
0.0185009
0.0190156
0.0195554
0.0201197
0.0207099
0.0213291
0.0219814
0.0226693
0.0233926
0.024148
0.0249296
0.0257298
0.0265387
0.0273438
0.0281268
0.0288635
0.0295306
0.0300994
0.0305371
0.0308095
0.030886
0.0307458
0.0303799
0.0297907
0.0289896
0.0279951
0.026834
0.0255434
0.0241717
0.022775
0.0214081
0.0201158
0.0189264
0.0178515
0.016888
0.0160235
0.0152405
0.0145205
0.0138467
0.0132051
0.0125862
0.0119836
0.0113888
0.0107668
0.0100969
0.00939464
0.00867693
0.00795187
0.00722241
0.00649
0.00576545
0.00507226
0.00445505
0.00397242
0.00367065
0.00355181
0.00357144
0.00367103
0.00380666
0.00395396
0.0041017
0.00424543
0.00438384
0.00451687
0.00464463
0.00476724
0.00488487
0.00499768
0.00510581
0.00520941
0.00530862
0.00540354
0.00549422
0.00558066
0.00566279
0.00574048
0.00581349
0.0058815
0.00594409
0.00600073
0.00605076
0.00609342
0.00612781
0.00615289
0.0061675
0.0061701
0.00615929
0.00613409
0.0060935
0.00603667
0.005963
0.00587221
0.00576432
0.00563961
0.00549857
0.0053367
0.0051487
0.00494339
0.00474334
0.00458664
0.00451201
0.00452993
0.0046215
0.0047602
0.00492456
0.00510115
0.00528168
0.00545908
0.00562511
0.00576945
0.00587982
0.00594293
0.00594612
0.00588006
0.00574284
0.00554454
0.00530856
0.00507808
0.00490227
0.00481237
0.00478959
0.00479744
0.00480722
0.00480825
0.00479067
0.00474947
0.00468337
0.00459359
0.00448288
0.00435473
0.00421296
0.00406169
0.00390552
0.00374938
0.00359473
0.00344275
0.00329771
0.00316438
0.00304758
0.00295111
0.00287596
0.00281789
0.0027649
0.00269513
0.00257607
0.00236976
0.00205015
0.0016483
0.00128519
0.00109706
0.00109629
0.00114277
0.00112156
0.00102737
0.000909626
0.000804342
0.0007203
0.000655697
0.000607661
0.000573576
0.000550713
0.000536303
0.00052785
0.000523351
0.000521342
0.000520833
0.000521201
0.000522081
0.000523278
0.000524677
0.000526219
0.000527876
0.000529629
0.000531468
0.000533383
0.000535371
0.00053743
0.000539566
0.000541792
0.000544136
0.00054665
0.000549414
0.0171878
0.0175478
0.0179833
0.0184442
0.0189273
0.0194341
0.0199653
0.0205202
0.0210982
0.0217007
0.0223306
0.022992
0.0236872
0.0244163
0.0251759
0.0259607
0.0267633
0.0275747
0.0283833
0.029171
0.0299105
0.0305816
0.0311593
0.0316142
0.0319163
0.0320383
0.0319648
0.031688
0.0312077
0.0305292
0.0296606
0.0286152
0.0274157
0.0260978
0.0247085
0.0233002
0.0219214
0.0206102
0.0193902
0.0182716
0.0172536
0.0163288
0.0154867
0.0147169
0.0140117
0.0133669
0.0127783
0.0122274
0.0116644
0.0110971
0.0105262
0.00995185
0.00936427
0.00873793
0.00803402
0.00723066
0.0063174
0.00533592
0.00439482
0.00365602
0.00323235
0.00308866
0.003103
0.00317697
0.0032613
0.00333666
0.0033969
0.00344141
0.0034767
0.00350552
0.00352928
0.00354886
0.00356491
0.00357797
0.00358848
0.00359684
0.00360333
0.00360821
0.00361167
0.00361386
0.00361491
0.00361491
0.00361396
0.00361217
0.00360965
0.00360658
0.00360333
0.00360242
0.00360503
0.00361192
0.00362376
0.00364005
0.00365978
0.00368231
0.0037072
0.00373422
0.00376342
0.00379536
0.00383152
0.00387467
0.00393051
0.0040053
0.00410491
0.00423593
0.0044013
0.00459596
0.00480875
0.00503016
0.00525387
0.00547751
0.005701
0.00592368
0.00614151
0.0063455
0.00652145
0.00665076
0.00671209
0.00668379
0.0065476
0.00629572
0.00594425
0.00552509
0.00513006
0.00482623
0.00465297
0.00460383
0.00463899
0.00471214
0.00479537
0.00486838
0.0049165
0.00493181
0.00491171
0.00485741
0.00477249
0.00466193
0.00453126
0.00438556
0.00422514
0.0040524
0.00387137
0.00368623
0.00350163
0.00332266
0.00315458
0.00300162
0.00286494
0.00274025
0.00261554
0.00246607
0.00225578
0.00196197
0.00162054
0.00132401
0.00117695
0.00117796
0.00120675
0.00116866
0.00106252
0.000934556
0.000820684
0.000731067
0.000663452
0.000614029
0.000579566
0.000556906
0.000542915
0.000534845
0.000530567
0.000528587
0.000527934
0.000528022
0.000528521
0.000529253
0.000530127
0.000531102
0.000532158
0.000533294
0.000534512
0.000535821
0.000537236
0.000538774
0.000540458
0.000542321
0.0005444
0.00054675
0.000549435
0.0177311
0.0181047
0.0185586
0.0190392
0.0195416
0.0200668
0.020615
0.0211859
0.0217794
0.0223968
0.0230409
0.0237151
0.0244218
0.0251612
0.025931
0.0267263
0.0275406
0.0283654
0.0291897
0.0299933
0.0307472
0.0314356
0.0320346
0.032516
0.0328527
0.0330204
0.0330041
0.0327962
0.0323964
0.0318082
0.0310372
0.030093
0.0289938
0.0277683
0.0264553
0.0250991
0.0237426
0.0224221
0.021164
0.0199844
0.0188904
0.0178825
0.0169577
0.0161116
0.01534
0.0146392
0.0140038
0.0134208
0.0128659
0.0123232
0.0117921
0.0112658
0.0107263
0.0101385
0.00944586
0.00856914
0.00744432
0.00611428
0.00467659
0.00335848
0.00243719
0.00197488
0.00179047
0.00171531
0.00167717
0.00165391
0.00163934
0.00163125
0.00162465
0.00161948
0.00161638
0.00161598
0.00161877
0.00162514
0.00163538
0.00164969
0.00166824
0.00169115
0.00171848
0.0017503
0.00178663
0.00182751
0.00187293
0.00192293
0.00197753
0.00203675
0.00210064
0.00216893
0.00224039
0.00231441
0.00239083
0.0024698
0.00255166
0.002637
0.00272664
0.00282174
0.00292385
0.00303491
0.00315739
0.00329425
0.00345098
0.0036338
0.00384801
0.00410394
0.00441093
0.00476797
0.00515517
0.0055361
0.00587748
0.00617062
0.00643146
0.00668179
0.00693171
0.0071737
0.00738533
0.00753491
0.0075871
0.00750691
0.00726237
0.00682961
0.00627045
0.00565153
0.0050704
0.00462358
0.00436619
0.00429035
0.00434685
0.0044753
0.00463407
0.00479142
0.00492321
0.00501529
0.00506172
0.00506249
0.00502153
0.00494472
0.00483843
0.0047028
0.00454145
0.00435925
0.00416062
0.00394994
0.0037324
0.00351459
0.00330407
0.00310679
0.00292268
0.00274169
0.00254658
0.0023234
0.00206464
0.00177493
0.00148729
0.00126721
0.00116846
0.00116486
0.00116771
0.00111632
0.00101303
0.000895487
0.000792481
0.000711333
0.000649926
0.000605182
0.000574308
0.000554326
0.000542218
0.000535371
0.000531812
0.000530193
0.000529668
0.00052974
0.00053014
0.000530727
0.000531435
0.000532233
0.000533113
0.000534077
0.000535132
0.000536293
0.000537577
0.000539004
0.0005406
0.000542397
0.000544434
0.00054676
0.000549436
0.0177289
0.0181042
0.0185636
0.019051
0.0195594
0.0200882
0.0206374
0.0212069
0.0217978
0.0224118
0.023051
0.0237176
0.0244132
0.0251391
0.0258949
0.0266785
0.0274856
0.0283092
0.02914
0.0299573
0.0307373
0.031467
0.0321223
0.0326729
0.03309
0.0333448
0.0334108
0.0332734
0.0329307
0.0323882
0.0316572
0.030755
0.0297065
0.0285438
0.0273041
0.026026
0.0247449
0.02349
0.0222826
0.0211358
0.0200558
0.0190436
0.0180971
0.0172127
0.0163865
0.0156153
0.0148962
0.014225
0.0135956
0.0130022
0.0124386
0.0118936
0.0113451
0.0107542
0.0100615
0.00918634
0.00802811
0.0065893
0.00495855
0.00335012
0.00214426
0.00155299
0.00136252
0.00131627
0.00131365
0.00132917
0.00135646
0.00139332
0.00143859
0.00149177
0.00155256
0.00162069
0.00169591
0.00177792
0.00186646
0.0019612
0.00206185
0.00216809
0.00227958
0.00239603
0.00251711
0.00264255
0.00277208
0.00290546
0.00304252
0.0031831
0.00332711
0.00347449
0.00362592
0.00377864
0.00393104
0.00408205
0.00423083
0.00437658
0.00451857
0.00465621
0.00478913
0.00491731
0.00504128
0.00516225
0.00528332
0.00539283
0.00548012
0.00554732
0.00561376
0.00572076
0.00592826
0.00627441
0.00670899
0.00710771
0.00740701
0.00765268
0.00790387
0.00816544
0.00839691
0.00854049
0.0085397
0.00834568
0.00791451
0.00724441
0.00640305
0.00550214
0.0046956
0.00412636
0.0038629
0.00386491
0.00403665
0.00428357
0.00454946
0.00479337
0.00498973
0.00512812
0.00520847
0.00523479
0.00520764
0.005122
0.00497538
0.00477763
0.00454037
0.00427637
0.00400561
0.00374895
0.0035167
0.00330772
0.00311448
0.00292786
0.00273887
0.00253761
0.00231201
0.00206128
0.00179444
0.00152949
0.00129703
0.00113552
0.00106325
0.00105132
0.00104222
0.000995098
0.00091106
0.000819071
0.000739433
0.000675984
0.000627086
0.000590955
0.000565797
0.000549426
0.000539499
0.000533926
0.000531088
0.000529863
0.000529542
0.000529712
0.000530152
0.000530751
0.000531458
0.000532251
0.000533126
0.000534085
0.000535137
0.000536296
0.000537578
0.000539005
0.000540601
0.000542398
0.000544435
0.000546761
0.000549436
0.0170433
0.0174024
0.0178478
0.0183198
0.0188104
0.0193182
0.019843
0.0203852
0.0209468
0.0215296
0.0221356
0.0227661
0.023423
0.0241086
0.024825
0.0255723
0.0263476
0.0271456
0.0279582
0.0287693
0.0295585
0.0303132
0.0310084
0.0316224
0.0321277
0.0324789
0.0326319
0.0325597
0.0322562
0.0317283
0.0309935
0.0300789
0.0290193
0.0278549
0.0266279
0.0253769
0.0241345
0.0229255
0.0217675
0.0206702
0.0196371
0.0186669
0.0177558
0.0168988
0.0160898
0.0153249
0.0146027
0.0139237
0.0132886
0.0126976
0.0121473
0.0116276
0.0111159
0.0105726
0.00993784
0.00913255
0.00806127
0.00668874
0.00509176
0.00344248
0.00211996
0.00144397
0.00124982
0.00123574
0.0012756
0.00133864
0.00141768
0.00151033
0.00161543
0.00173229
0.00186038
0.00199926
0.00214851
0.00230768
0.00247631
0.00265391
0.00283992
0.00303377
0.00323481
0.00344239
0.00365581
0.00387435
0.00409728
0.00432384
0.00455327
0.00478476
0.00501749
0.00525054
0.00548589
0.00572499
0.00596572
0.00620606
0.0064445
0.00667992
0.00691158
0.00713918
0.00736285
0.00758299
0.00779993
0.00801343
0.00822739
0.00842364
0.00857086
0.00863987
0.00860861
0.00847506
0.00829425
0.00819481
0.00832821
0.00866489
0.0089516
0.00910202
0.00924946
0.00944541
0.00961994
0.0096727
0.00952209
0.00911271
0.00841748
0.00744495
0.00624569
0.00500661
0.00397782
0.00334496
0.00320266
0.0034815
0.00396414
0.00444352
0.00483993
0.00511486
0.00527102
0.00531136
0.00522711
0.0050265
0.00474014
0.00442379
0.00413302
0.00389642
0.00371177
0.00355969
0.00342069
0.00328539
0.00314913
0.00300697
0.00285271
0.00268048
0.00248633
0.00226825
0.00202654
0.00176917
0.00151104
0.00127293
0.00107987
0.00095448
0.000901964
0.000898521
0.000899177
0.000867766
0.000806865
0.000741508
0.000685312
0.000639738
0.000603687
0.000576329
0.000556747
0.000543651
0.000535531
0.000530928
0.000528626
0.000527726
0.000527633
0.000527987
0.000528593
0.000529353
0.00053022
0.000531175
0.000532211
0.000533328
0.000534531
0.000535832
0.000537242
0.000538778
0.000540461
0.000542322
0.000544401
0.00054675
0.000549435
0.015918
0.0162607
0.0166848
0.0171333
0.0175985
0.018079
0.018575
0.0190876
0.0196191
0.0201718
0.0207478
0.0213487
0.0219775
0.0226373
0.0233313
0.0240601
0.0248216
0.0256102
0.0264176
0.0272299
0.0280306
0.0288048
0.0295263
0.0301681
0.0307008
0.0310934
0.0313
0.0312511
0.0309421
0.0303842
0.0296021
0.0286319
0.0275179
0.0263095
0.0250559
0.0237984
0.0225689
0.0213893
0.0202764
0.0192365
0.0182687
0.0173678
0.0165263
0.0157347
0.0149807
0.0142572
0.0135635
0.0129027
0.0122817
0.0117083
0.0111873
0.0107155
0.0102739
0.00982231
0.00929641
0.008613
0.00767612
0.00646391
0.00501161
0.00345482
0.00212828
0.00140022
0.00119263
0.00119797