/*--------------------------------*- C++ -*----------------------------------*\
| =========                 |                                                 |
| \\      /  F ield         | OpenFOAM: The Open Source CFD Toolbox           |
|  \\    /   O peration     | Version:  2406                                  |
|   \\  /    A nd           | Website:  www.openfoam.com                      |
|    \\/     M anipulation  |                                                 |
\*---------------------------------------------------------------------------*/
FoamFile
{
    version     2.0;
    format      ascii;
    arch        "LSB;label=32;scalar=64";
    class       volScalarField;
    location    "100";
    object      epsilon;
}
// * * * * * * * * * * * * * * * * * * * * * * * * * * * * * * * * * * * * * //

dimensions      [0 2 -3 0 0 0 0];

internalField   nonuniform List<scalar> 
5619
(
62.589
67.7707
73.8822
80.8286
88.7638
97.8727
108.32
120.265
133.88
149.38
167.039
187.156
210.009
235.802
264.63
296.458
331.089
368.119
406.858
446.266
484.919
521.057
552.729
578.043
595.469
604.143
604.082
596.269
582.595
565.648
548.366
533.599
523.687
520.206
523.963
535.174
553.72
579.367
611.906
651.214
697.265
750.119
809.896
876.747
950.83
1032.29
1121.24
1217.74
1321.8
1433.37
1552.35
1678.55
1811.71
1951.48
2097.41
2248.92
2405.28
2565.56
2728.62
2893.05
3057.19
3219.03
3376.29
3526.46
3666.8
3794.47
3906.61
4000.56
4074.02
4125.28
4153.36
4158.21
4140.85
4102.64
4041.1
3958.33
3856.79
3739.26
3608.83
3468.85
3322.88
3174.52
3027.29
2884.5
2749.08
2623.48
2509.54
2408.48
2320.88
2246.73
2185.48
2136.23
2097.77
2068.69
2047.55
2032.86
2023.28
2017.68
2015.01
2014.24
2014.35
2016.53
2019.83
2022.89
2023.93
2020.85
2011.68
1995.08
1970.88
1940.1
1904.61
1866.37
1826.7
1785.74
1742.52
1695.3
1642.19
1581.69
1513.13
1436.85
1354.06
1266.58
1176.34
1085.12
994.428
905.579
819.939
739.057
664.602
591.925
521.571
454.047
389.863
329.506
273.454
222.172
176.104
135.649
101.112
72.652
50.2078
33.4406
21.7013
14.066
9.46273
6.85945
5.42883
4.61435
4.09852
3.7237
3.41763
3.14682
2.89435
2.65077
2.41083
2.17233
1.93558
1.70306
1.47883
1.2679
1.07523
0.904784
0.758755
0.637229
0.538516
0.459873
0.398239
0.350699
0.314659
0.287865
0.268355
0.254452
0.244775
0.238246
0.234065
0.231668
0.2307
0.231041
0.232865
0.236532
0.242855
0.253068
0.268488
0.289465
0.312331
0.320606
0.265784
21.5468
23.5095
25.7962
28.4102
31.4122
34.8715
38.8537
43.4243
48.6578
54.6464
61.5001
69.3362
78.2594
88.344
99.6203
112.064
125.58
139.982
154.963
170.072
184.708
198.15
209.626
218.419
223.997
226.133
224.989
221.131
215.468
209.129
203.293
199.012
197.085
198.005
201.999
209.111
219.308
232.543
248.804
268.124
290.583
316.292
345.391
378.026
414.349
454.503
498.614
546.79
599.113
655.632
716.358
781.256
850.235
923.134
999.711
1079.62
1162.41
1247.5
1334.15
1421.45
1508.32
1593.53
1675.72
1753.39
1824.99
1888.93
1943.7
1987.99
2020.75
2041.27
2049.29
2044.97
2029.09
2002.44
1965.22
1918.77
1864.59
1804.31
1739.6
1672.13
1603.52
1535.25
1468.65
1404.84
1344.73
1288.98
1238.01
1192.03
1151.05
1114.89
1083.22
1055.64
1031.65
1010.73
992.4
976.21
961.823
948.984
937.485
927.103
917.585
909.372
902.398
896.353
890.758
884.999
878.385
870.293
860.331
848.403
834.632
819.142
801.835
782.272
759.723
733.351
702.452
666.689
626.267
581.983
535.155
487.418
440.444
395.661
354.059
316.138
281.991
251.449
224.044
197.935
173.202
149.9
128.098
107.874
89.3072
72.4853
57.4933
44.4051
33.2682
24.0855
16.7981
11.2729
7.30109
4.61288
2.90757
1.89222
1.31675
0.994975
0.807053
0.686093
0.598669
0.528881
0.468966
0.414839
0.364239
0.316009
0.269773
0.225774
0.184739
0.147736
0.115943
0.0903422
0.0714207
0.0589981
0.0522946
0.0501889
0.051491
0.0551033
0.0600569
0.0654744
0.0705869
0.0748369
0.077955
0.0799181
0.0808151
0.0807117
0.0795864
0.0774729
0.0745055
0.0706588
0.0659557
0.0606909
0.0554724
0.0510172
0.0475957
0.0440451
0.03571
14.8718
16.3168
17.9973
19.9263
22.1496
24.7191
27.6859
31.1021
35.0277
39.5354
44.7102
50.6413
57.4086
65.0694
73.6482
83.128
93.4383
104.438
115.898
127.48
138.746
149.17
158.198
165.328
170.201
172.689
172.956
171.454
168.872
166.032
163.766
162.806
163.71
166.842
172.397
180.462
191.065
204.229
219.994
238.43
259.637
283.74
310.88
341.207
374.871
412.012
452.757
497.209
545.44
597.486
653.33
712.904
776.067
842.606
912.218
984.503
1058.97
1135.02
1211.95
1288.92
1364.98
1439.1
1510.17
1577.04
1638.57
1693.67
1741.31
1780.59
1810.86
1831.68
1843.05
1845.29
1838.79
1824.05
1801.72
1772.65
1737.8
1698.13
1654.61
1608.18
1559.73
1510.05
1459.84
1409.71
1360.17
1311.63
1264.45
1218.9
1175.2
1133.54
1094.05
1056.81
1021.87
989.218
958.783
930.486
904.297
880.253
858.431
838.884
821.484
806.376
793.796
783.673
775.542
768.673
762.103
754.805
745.97
735.198
722.492
708.073
692.116
674.564
655.076
633.12
608.13
579.682
547.652
512.325
474.429
435.078
395.622
357.406
321.537
288.707
259.149
232.693
208.584
185.499
163.565
142.878
123.515
105.537
88.9907
73.9146
60.3411
48.2971
37.7987
28.8428
21.3974
15.3932
10.72
7.22933
4.74401
3.07025
2.01057
1.37747
1.01089
0.793812
0.654722
0.556236
0.4803
0.417827
0.363562
0.314085
0.267193
0.221771
0.177781
0.136197
0.0987298
0.0672834
0.0432465
0.0269144
0.0173536
0.0128206
0.0114873
0.0119969
0.0135577
0.0157156
0.0181164
0.0204153
0.0223017
0.0235557
0.0240793
0.0238899
0.0231031
0.0218609
0.020316
0.0186186
0.0169017
0.0153032
0.013954
0.0129306
0.0121634
0.0112655
0.00912524
12.9553
14.2602
15.7759
17.5204
19.5357
21.8698
24.5709
27.6888
31.2803
35.4132
40.1667
45.624
51.8607
58.9332
66.869
75.6582
85.2433
95.5052
106.246
117.179
127.922
138.025
147.008
154.433
159.986
163.556
165.278
165.54
164.923
164.114
163.803
164.602
166.994
171.325
177.814
186.588
197.719
211.254
227.245
245.757
266.873
290.696
317.338
346.92
379.558
415.36
454.417
496.792
542.512
591.562
643.869
699.291
757.619
818.564
881.75
946.712
1012.9
1079.7
1146.42
1212.33
1276.64
1338.48
1396.95
1451.16
1500.27
1543.43
1580.34
1610.71
1634.41
1651.56
1662.31
1666.91
1665.72
1659.16
1647.7
1631.86
1612.2
1589.23
1563.47
1535.34
1505.2
1473.3
1439.83
1404.88
1368.48
1330.61
1291.28
1250.51
1208.36
1165.02
1120.76
1075.97
1031.17
987.018
943.961
902.439
862.933
825.975
792.107
761.802
735.116
712.165
693.039
677.711
666.095
657.297
650.095
643.129
635.251
625.81
614.697
602.187
588.669
574.4
559.392
543.406
526.028
506.778
485.228
461.12
434.483
405.713
375.573
345.091
315.352
287.263
261.381
237.836
215.951
194.702
174.226
154.651
136.089
118.627
102.327
87.2323
73.3721
60.7712
49.4526
39.4357
30.7309
23.3316
17.2058
12.2912
8.49473
5.69473
3.74452
2.47519
1.70386
1.25507
0.989526
0.818612
0.695866
0.599016
0.516723
0.442429
0.372289
0.304614
0.239646
0.179188
0.125917
0.0823729
0.0499374
0.0282672
0.0154665
0.00887655
0.00599003
0.00501294
0.00492957
0.00525555
0.00575736
0.0062915
0.00675152
0.00706436
0.00719826
0.00716477
0.00701103
0.00675612
0.00644562
0.00613042
0.00584718
0.00561962
0.00545613
0.00534043
0.00521056
0.00492331
0.00420581
12.3639
13.6356
15.1096
16.8098
18.7767
21.0579
23.7022
26.7594
30.2862
34.3497
39.0284
44.4055
50.5584
57.5469
65.404
74.1276
83.6712
93.931
104.731
115.812
126.827
137.356
146.947
155.175
161.719
166.44
169.428
171.003
171.671
172.034
172.704
174.232
177.077
181.585
188
196.473
207.087
219.88
234.876
252.093
271.561
293.316
317.402
343.867
372.753
404.094
437.904
474.172
512.85
553.844
597.002
642.098
688.834
736.829
785.632
834.743
883.55
931.38
977.498
1021.09
1061.86
1099.48
1133.55
1163.75
1189.96
1212.26
1230.48
1244.66
1255.02
1261.83
1265.41
1266.08
1264.19
1260.09
1254.13
1246.68
1238.07
1228.58
1218.43
1207.73
1196.51
1184.65
1171.92
1157.96
1142.34
1124.54
1104.01
1080.23
1052.74
1021.21
985.519
946.088
903.691
858.694
811.658
763.395
714.977
667.682
622.929
582.136
546.002
515.022
490.192
470.287
455.497
445.134
437.805
431.961
426.251
419.804
412.318
403.945
395.062
386.058
377.181
368.49
359.848
350.955
341.392
330.691
318.433
304.37
288.545
271.345
253.444
235.623
218.551
202.592
187.368
172.252
157.351
142.759
128.574
114.89
101.782
89.3095
77.5165
66.4416
56.1239
46.6091
37.9494
30.1997
23.4079
17.6051
12.7973
8.96042
6.03928
3.94638
2.55751
1.71081
1.22562
0.944223
0.763521
0.631057
0.523254
0.429387
0.344655
0.26765
0.199019
0.140343
0.0930907
0.0577727
0.0335545
0.0184537
0.00994766
0.00563925
0.00368547
0.00290553
0.00265967
0.00264597
0.00272877
0.00284233
0.00295144
0.00303791
0.00309571
0.00312802
0.00314383
0.00314271
0.00313358
0.00312759
0.00313195
0.00314924
0.00317617
0.00320107
0.0031996
0.0031323
0.00295543
12.1111
13.3724
14.8294
16.5136
18.4633
20.7263
23.3512
26.3879
29.893
33.9333
38.5873
43.9385
50.0663
57.0343
64.8809
73.6124
83.1932
93.5348
104.481
115.797
127.159
138.167
148.376
157.343
164.71
170.272
174.045
176.276
177.403
177.975
178.566
179.711
181.861
185.367
190.474
197.321
205.962
216.39
228.558
242.407
257.872
274.889
293.396
313.332
334.631
357.224
381.024
405.925
431.791
458.436
485.611
512.973
540.122
566.5
591.433
614.412
635.767
655.329
673.016
688.945
702.776
714.306
723.523
730.519
735.447
738.501
739.881
739.832
738.626
736.539
733.837
730.774
727.597
724.54
721.822
719.64
718.154
717.479
717.667
718.697
720.461
722.757
725.282
727.631
729.298
729.69
728.139
723.93
716.333
704.634
688.459
667.922
642.476
611.859
576.169
535.928
492.13
446.265
400.276
356.401
316.081
280.726
252.629
232.821
218.866
210.198
205.332
202.687
200.915
199.122
196.931
194.39
191.782
189.442
187.632
186.482
185.967
185.906
185.975
185.733
184.684
182.363
178.436
172.804
165.682
157.583
149.156
140.948
132.955
124.866
116.713
108.52
100.319
92.1494
84.055
76.0767
68.2544
60.6182
53.1963
46.0254
39.1557
32.6532
26.5963
21.0687
16.1498
11.9046
8.3782
5.59019
3.5273
2.13264
1.28901
0.826563
0.577075
0.427991
0.324776
0.245397
0.18149
0.129952
0.0894375
0.0588924
0.037045
0.0223293
0.0130372
0.00755102
0.00452809
0.00297804
0.00224307
0.00192686
0.00181291
0.00179298
0.0018152
0.00185443
0.00189847
0.0019419
0.00198313
0.00202279
0.00206266
0.00210215
0.0021433
0.00218867
0.00223978
0.00229683
0.00235845
0.00242149
0.00248144
0.00253543
0.00259217
11.6868
12.9127
14.322
15.9546
17.8449
20.0383
22.5814
25.522
28.9149
32.8247
37.327
42.5028
48.4298
55.1725
62.7733
71.246
80.5672
90.6651
101.406
112.582
123.896
134.972
145.363
154.604
162.276
168.091
171.971
174.08
174.802
174.661
174.233
174.058
174.592
176.172
179.013
183.21
188.76
195.583
203.551
212.509
222.289
232.717
243.619
254.817
266.138
277.408
288.448
299.061
309.022
318.05
325.796
331.75
335.655
338.45
340.659
342.652
343.914
344.41
344.17
343.223
341.566
339.234
336.329
332.991
329.378
325.654
321.975
318.493
315.346
312.656
310.534
309.074
308.359
308.46
309.435
311.327
314.163
317.948
322.661
328.248
334.622
341.651
349.157
356.914
364.643
372.009
378.627
384.063
387.85
389.5
388.803
384.753
376.57
363.696
345.832
323.014
295.684
264.766
231.679
198.263
165.753
135.756
110.976
93.3767
83.0784
77.8372
76.2243
76.8677
78.6556
80.8929
83.3283
86.0336
89.2247
93.1136
97.8218
103.336
109.485
115.939
122.223
127.773
132.043
134.622
135.284
133.93
130.482
125.093
118.292
111.1
104.029
97.0435
90.2987
83.8586
77.7319
71.8937
66.2988
60.8828
55.6773
50.6485
45.7403
40.9137
36.1473
31.4415
26.821
22.3355
18.0555
14.0654
10.4628
7.35044
4.79823
2.85658
1.53612
0.767158
0.388621
0.218883
0.137491
0.091207
0.0611349
0.0405487
0.0264471
0.016966
0.0107613
0.0068306
0.0044287
0.00301687
0.00222199
0.00179677
0.00158406
0.00148856
0.00145558
0.0014553
0.00147191
0.00149725
0.00152734
0.00156047
0.00159618
0.00163468
0.00167667
0.00172197
0.0017716
0.00182667
0.00188825
0.00195731
0.00203494
0.00212268
0.00222341
0.00234309
0.00249381
10.8042
11.9408
13.2394
14.7472
16.4917
18.5132
20.8529
23.5535
26.665
30.2464
34.3659
39.0965
44.5087
50.6629
57.6024
65.347
73.8858
83.1661
93.0816
103.458
114.039
124.481
134.361
143.201
150.535
155.994
159.405
160.852
160.672
159.38
157.558
155.757
154.421
153.857
154.233
155.592
157.876
160.948
164.619
168.667
172.851
176.919
180.617
183.693
185.9
187.007
186.797
185.068
181.643
176.342
169.388
162.18
155.558
149.087
142.92
137.206
131.967
127.225
122.963
119.132
115.672
112.542
109.736
107.274
105.193
103.533
102.33
101.614
101.41
101.733
102.596
104.006
105.965
108.476
111.532
115.128
119.247
123.869
128.962
134.484
140.382
146.587
153.019
159.581
166.162
172.634
178.859
184.681
189.934
194.469
197.86
199.444
198.678
195.131
188.504
178.672
165.746
150.122
132.526
113.984
95.1981
77.2461
61.9448
50.5541
43.7899
40.9358
41.1512
43.5724
47.4117
52.1829
57.7578
64.2447
71.8203
80.6054
90.5903
101.583
113.169
124.689
135.27
143.962
149.998
153.135
153.834
152.975
150.844
147.102
141.43
134.11
125.609
116.196
106.378
96.5564
87.0331
78.0243
69.6718
62.0564
55.2087
49.1132
43.7122
38.9124
34.5924
30.6128
26.8426
23.1807
19.5672
15.9776
12.4578
9.29403
6.52152
4.19212
2.37668
1.14029
0.463728
0.179859
0.0791164
0.0413865
0.0243823
0.0152429
0.0098483
0.00653295
0.00445951
0.00316336
0.0023645
0.00188318
0.00160163
0.00144344
0.0013602
0.00132203
0.00131089
0.00131609
0.00133136
0.00135318
0.00137973
0.0014102
0.00144439
0.00148253
0.00152492
0.00157204
0.00162477
0.0016842
0.00175166
0.0018288
0.00191776
0.00202148
0.0021441
0.00229153
0.00247205
9.41586
10.4033
11.5249
12.8292
14.3355
16.0762
18.0841
20.3943
23.0488
26.0972
29.5961
33.6047
38.1808
43.3757
49.2293
55.7648
62.9826
70.8508
79.2941
88.1804
97.3052
106.384
115.047
122.849
129.314
134.03
136.75
137.483
136.512
134.319
131.466
128.481
125.774
123.61
122.114
121.298
121.082
121.322
121.82
122.35
122.661
122.497
121.597
119.713
116.619
112.136
106.163
98.7185
89.9624
80.9215
72.6188
64.8109
57.6331
51.1589
45.4892
40.6823
36.7501
33.6704
31.38
29.7763
28.733
28.1284
27.8709
27.9057
28.206
28.7606
29.5654
30.6183
31.9174
33.4602
35.243
37.2611
39.5081
41.9764
44.6563
47.5359
50.601
53.8348
57.2179
60.7282
64.3409
68.0287
71.7615
75.5066
79.2278
82.8859
86.4372
89.8331
93.0193
95.9261
98.2465
99.7224
100.127
99.2658
96.9921
93.2274
87.9922
81.4387
73.8749
65.7633
57.4668
49.5613
42.9947
38.4481
36.2713
36.4648
38.7291
42.7761
48.3386
55.2837
63.6685
73.6752
85.4973
99.2338
114.794
131.796
149.464
166.557
181.406
192.175
197.483
197.281
193.384
188.857
185.994
184.401
182.104
177.748
170.998
161.926
151.063
138.99
126.273
113.411
100.805
88.7554
77.4732
67.0977
57.724
49.4467
42.298
36.1245
30.7819
26.1262
22.0169
18.3294
14.9698
11.8851
9.04842
6.46671
4.138
2.20969
0.99348
0.366587
0.122812
0.047159
0.0226425
0.0126752
0.00778213
0.00511989
0.00356559
0.00262244
0.00204468
0.0016935
0.00148378
0.00136239
0.00129635
0.00126522
0.00125626
0.00126154
0.00127615
0.00129726
0.00132333
0.00135365
0.00138807
0.00142672
0.00147003
0.00151868
0.00157359
0.00163592
0.00170711
0.00178896
0.00188379
0.00199459
0.00212525
0.0022809
0.00246831
7.73508
8.53569
9.44317
10.4981
11.7122
13.1089
14.7117
16.5467
18.6462
21.0484
23.7954
26.9304
30.4953
34.5288
39.0638
44.123
49.7145
55.8244
62.4082
69.3791
76.5861
83.8164
90.786
97.1276
102.422
106.266
108.377
108.706
107.458
105.035
101.927
98.5911
95.3791
92.5105
90.0854
88.1112
86.5271
85.2203
84.0395
82.8079
81.3338
79.4213
76.8806
73.5424
69.2788
64.0379
57.899
51.1507
44.4724
38.3322
32.7307
27.6584
23.1488
19.2164
15.8755
13.1357
10.9961
9.45882
8.5134
8.11112
8.15188
8.5091
9.07484
9.7817
10.5953
11.4992
12.4851
13.5472
14.6804
15.8797
17.1404
18.4581
19.8283
21.2463
22.7076
24.2071
25.7393
27.2983
28.8776
30.4697
32.0665
33.6587
35.2362
36.7876
38.3005
39.7615
41.1559
42.4684
43.6835
44.7744
45.6275
46.173
46.358
46.1418
45.5005
44.4338
42.9753
41.2029
39.2469
37.2894
35.5154
34.1857
33.6598
34.2395
36.1387
39.4395
44.106
50.2247
57.9705
67.6144
79.5113
94.052
111.582
132.288
156.034
182.16
209.259
234.999
256.143
268.996
270.87
262.168
247.342
232.948
223.836
219.863
218.665
217.424
214.131
207.914
198.698
186.823
172.905
157.673
141.839
126.024
110.73
96.3587
83.3018
71.5392
60.9282
51.4525
43.0724
35.7257
29.3282
23.7776
18.9628
14.7804
11.1499
8.01357
5.33105
3.07639
1.41907
0.566587
0.207728
0.0800986
0.0348094
0.0170727
0.00941328
0.00574027
0.00380221
0.00270586
0.00206427
0.00168621
0.00146562
0.0013405
0.00127385
0.00124336
0.0012354
0.00124162
0.00125701
0.00127872
0.00130526
0.001336
0.00137083
0.00140999
0.00145399
0.00150353
0.00155955
0.0016232
0.00169594
0.00177956
0.00187633
0.00198918
0.00212183
0.00227918
0.00246779
6.1592
6.78082
7.48969
8.31061
9.25042
10.3247
11.5493
12.9426
14.5278
16.3322
18.385
20.7151
23.3507
26.3183
29.6422
33.3408
37.4239
41.8877
46.7105
51.845
57.1774
62.5465
67.7619
72.555
76.603
79.5783
81.2119
81.4285
80.3548
78.2765
75.5571
72.5463
69.5192
66.6546
64.0437
61.7102
59.6277
57.7324
55.9338
54.1247
52.191
50.0213
47.5173
44.6065
41.2587
37.5082
33.4851
29.4624
25.7777
22.3829
19.2943
16.5109
14.0173
11.7689
9.79343
8.12372
6.73881
5.66574
4.959
4.66598
4.76693
5.1545
5.69829
6.30887
6.94171
7.57744
8.20834
8.83357
9.45852
10.0847
10.7127
11.3434
11.978
12.618
13.2651
13.9213
14.5886
15.2692
15.9652
16.6789
17.4126
18.1688
18.9501
19.7593
20.5998
21.4753
22.3902
23.3293
24.2835
25.2467
26.215
27.1731
28.1139
29.0404
29.9655
30.9124
31.9162
33.0239
34.2922
35.7803
37.565
39.6977
42.1855
45.0872
48.5223
52.7342
58.1886
65.414
75.0078
87.6428
104.063
125.041
151.26
183.102
220.336
261.716
304.563
344.433
375.095
389.134
381.787
355.845
322.832
292.098
268.882
254.599
247.883
245.61
244.054
240.888
234.765
225.134
212.161
196.503
179.056
160.761
142.469
124.88
108.174
92.5714
78.2832
65.4225
54.0248
44.0624
35.4554
28.0799
21.7813
16.4153
11.8949
8.15357
5.05212
2.75088
1.31283
0.551043
0.216339
0.088424
0.0396981
0.01955
0.0105019
0.00615183
0.00392165
0.00271291
0.00203545
0.00165154
0.00143536
0.00131691
0.00125636
0.00123058
0.00122593
0.00123432
0.00125106
0.00127358
0.00130061
0.00133167
0.00136674
0.00140614
0.0014504
0.00150024
0.0015566
0.00162063
0.00169378
0.00177783
0.00187503
0.00198829
0.00212129
0.00227892
0.00246772
5.0826
5.58324
6.16094
6.82523
7.58106
8.43966
9.4128
10.5144
11.7618
13.1751
14.7759
16.5855
18.6246
20.9131
23.4687
26.3047
29.4275
32.8344
36.5115
40.44
44.5198
48.5737
52.4857
56.0575
59.059
61.2582
62.4729
62.6384
61.8209
60.196
57.9993
55.4703
52.8125
50.1751
47.6523
45.2907
43.0981
41.0532
39.1138
37.2267
35.3355
33.3884
31.3459
29.1866
26.9147
24.5645
22.2027
19.9231
17.8238
15.9395
14.2476
12.7321
11.3748
10.1481
9.0152
7.91223
6.83259
5.83729
4.98236
4.38035
4.14135
4.24809
4.57212
5.01138
5.52655
6.109
6.75952
7.48127
8.27705
9.1555
10.1272
11.204
12.3986
13.7254
15.1996
16.8381
18.6592
20.6829
22.9307
25.4265
28.1965
31.2696
34.6781
38.4585
42.6521
47.3066
52.4769
58.2297
64.3444
70.7357
77.3214
84.0003
90.6482
97.1176
103.241
108.839
113.731
117.752
120.769
122.686
123.42
122.229
118.755
113.328
106.992
101.345
98.1755
99.1399
105.636
118.889
140.106
170.501
211.076
262.182
322.902
390.338
458.929
520.017
561.915
569.851
540.103
484.961
421.988
364.864
319.893
288.486
269.58
260.286
255.654
252.136
247.16
239.126
227.493
212.581
195.23
176.521
157.105
137.528
118.442
100.396
83.7232
68.6334
55.2638
43.6991
33.945
25.8783
19.1677
13.6917
9.42381
6.11938
3.65389
1.96565
0.946137
0.412557
0.171925
0.0733247
0.0331546
0.0162403
0.00880123
0.00528444
0.00346625
0.00246254
0.0018925
0.00156783
0.00138562
0.00128724
0.00123877
0.0012203
0.00121999
0.00123088
0.00124901
0.00127226
0.00129965
0.00133088
0.00136604
0.00140549
0.00144979
0.00149968
0.0015561
0.00162019
0.00169342
0.00177754
0.00187482
0.00198814
0.00212119
0.00227887
0.00246771
4.72598
5.19552
5.73822
6.35887
7.06244
7.86004
8.76389
9.7877
10.9477
12.2627
13.7536
15.443
17.3539
19.5073
21.9203
24.6037
27.5608
30.7842
34.255
37.9642
41.7398
45.4576
48.9754
52.0945
54.6185
56.3754
57.2624
57.2647
56.4439
54.9224
52.8622
50.4406
47.8264
45.1627
42.5561
40.0732
37.7432
35.5656
33.518
31.5667
29.675
27.8105
25.9502
24.0848
22.2196
20.3742
18.5793
16.8721
15.2879
13.8491
12.5629
11.4267
10.4283
9.54361
8.73146
7.92897
7.04492
6.12502
5.22863
4.49208
4.12297
4.2336
4.71215
5.41535
6.2956
7.35831
8.62523
10.1243
11.8884
13.9556
16.369
19.1764
22.4302
26.1879
30.5122
35.4713
41.1391
47.5959
54.9291
63.2339
72.6149
83.1878
95.0815
108.442
123.434
140.251
159.114
180.303
203.879
229.415
256.653
285.26
314.762
344.505
373.639
401.122
425.756
446.254
461.36
469.948
471.039
460.949
436.564
397.3
346.253
290.325
238.408
199.021
177.975
177.743
198.956
241.878
306.363
390.911
491.578
600.926
707.09
793.522
839.66
824.806
750.262
639.94
527.343
431.79
357.495
304.475
271.118
253.375
244.041
237.951
231.595
222.985
211.682
198.066
181.153
160.549
137.635
114.274
92.0358
73.3907
58.8446
47.5142
38.3721
30.6876
24.076
18.3698
13.4892
9.43999
6.25748
3.89031
2.24192
1.18482
0.57252
0.256353
0.110412
0.0478491
0.0217366
0.010861
0.00617419
0.00396149
0.00278857
0.0021133
0.00171151
0.00147294
0.00133506
0.00125994
0.00122399
0.00121241
0.00121593
0.00122893
0.00124818
0.00127199
0.00129964
0.00133096
0.00136613
0.00140557
0.00144985
0.00149972
0.00155612
0.0016202
0.00169342
0.00177755
0.00187482
0.00198814
0.00212119
0.00227887
0.00246771
5.10907
5.64167
6.24894
6.94401
7.73288
8.63021
9.65245
10.8175
12.146
13.6617
15.3924
17.3703
19.6287
22.1982
25.1034
28.3598
31.9722
35.93
40.2017
44.727
49.3534
53.9269
58.242
61.9169
64.7173
66.4984
67.2059
66.8989
65.696
63.7462
61.2209
58.3088
55.1977
52.0521
48.9997
46.118
43.4382
40.9534
38.6259
36.4029
34.2284
32.0528
29.8415
27.5815
25.2842
22.979
20.7087
18.5241
16.4761
14.6074
12.9469
11.5071
10.2826
9.24854
8.3577
7.53863
6.6931
5.81758
4.9634
4.24949
3.89272
4.06947
4.71958
5.69996
6.97102
8.56428
10.5373
12.9616
15.9219
19.517
23.8606
29.082
35.3272
42.7596
51.5602
61.9283
74.0815
88.2563
104.708
123.712
145.564
170.584
199.118
231.545
268.279
309.781
356.568
409.223
468.917
535.693
608.795
687.562
771.015
857.675
945.465
1031.67
1112.98
1185.54
1245.16
1287.53
1309.34
1301.33
1251.81
1153.26
1008.42
834.154
653.315
491.914
374.411
315.334
315.726
369.758
470.094
607.15
767.684
934.267
1083.84
1188.11
1218.4
1155.98
1003.49
807.609
628.637
482.233
363.748
280.052
233.095
212.53
204.132
198.534
190.4
176.281
154.09
127.36
102.831
83.62
69.2116
58.0671
48.9417
41.2809
34.8007
29.1953
24.1788
19.5736
15.34
11.5392
8.26797
5.60877
3.58822
2.15531
1.20855
0.62896
0.303496
0.137286
0.0598909
0.026302
0.0123228
0.00656672
0.00408612
0.00288666
0.00222064
0.00181366
0.00155565
0.00139309
0.00129458
0.00123957
0.00121387
0.00120756
0.00121385
0.00122833
0.00124838
0.00127259
0.00130042
0.00133179
0.00136694
0.00140632
0.00145053
0.00150032
0.00155665
0.00162066
0.0016938
0.00177785
0.00187505
0.00198829
0.00212129
0.00227892
0.00246772
6.08015
6.74581
7.49724
8.36046
9.34389
10.4679
11.7558
13.2331
14.9295
16.879
19.1222
21.7054
24.6782
28.0873
31.9716
36.3582
41.2581
46.6595
52.5164
58.735
65.1483
71.5344
77.5769
82.8588
86.975
89.5078
90.3311
89.7092
87.8667
85.0669
81.5896
77.7236
73.7338
69.8285
66.1617
62.8086
59.7777
57.0271
54.4552
51.9447
49.3732
46.6265
43.6194
40.3169
36.7576
33.0137
29.1875
25.4069
21.8037
18.4975
15.5778
13.0944
11.0536
9.41961
8.12058
7.05409
6.10138
5.24427
4.46252
3.82616
3.50974
3.69897
4.39119
5.47245
6.91794
8.78479
11.1674
14.1862
17.9887
22.7539
28.6954
36.0654
45.1582
56.3126
69.9138
86.3939
106.232
129.952
158.124
191.356
230.297
275.628
328.061
388.331
457.189
535.39
623.677
722.757
833.279
957.452
1095.95
1247.5
1410.72
1583.46
1762.69
1944.48
2124.11
2295.95
2452.79
2584.75
2683.69
2731.81
2693.98
2537.79
2256.67
1900.14
1514.03
1145.54
840.134
638.151
563.044
608.467
749.583
954.26
1187.98
1417.83
1606.67
1714.44
1706.92
1572.73
1339.55
1070.34
819.907
589.011
374.147
228.537
160.602
130.008
110.77
93.9327
78.1874
64.8283
55.8531
49.4922
44.1433
39.4124
35.2042
31.3934
27.8437
24.4687
21.2151
18.0423
14.9403
11.9513
9.16786
6.70296
4.64901
3.04829
1.88465
1.09545
0.596404
0.303336
0.144616
0.0657265
0.0295154
0.01381
0.00716466
0.00431343
0.00300103
0.0023157
0.0019072
0.00164193
0.00146429
0.00134674
0.00127265
0.00123043
0.00121123
0.00120821
0.0012162
0.00123161
0.00125214
0.00127661
0.00130452
0.00133586
0.00137089
0.0014101
0.00145407
0.00150359
0.0015596
0.00162323
0.00169597
0.00177958
0.00187635
0.00198918
0.00212183
0.00227917
0.0024678
7.33221
8.1573
9.08951
10.1631
11.3903
12.7978
14.4164
16.2807
18.4314
20.9153
23.7871
27.1089
30.9471
35.3666
40.4238
46.1602
52.5958
59.7194
67.4752
75.7477
84.3402
92.964
101.217
108.598
114.566
118.599
120.347
119.803
117.509
113.918
109.494
104.698
99.9213
95.4429
91.4255
87.9306
84.9454
82.3772
80.0156
77.6609
75.0908
72.0746
68.3996
63.9346
58.763
52.9786
46.7341
40.2745
33.8759
27.8267
22.3768
17.7051
13.8923
10.9163
8.66912
6.99109
5.71413
4.71808
3.92754
3.34409
3.06642
3.23288
3.86081
4.86545
6.22836
8.01034
10.313
13.2692
17.0478
21.8604
27.9704
35.7029
45.4547
57.7049
73.0239
92.0804
115.646
144.593
179.885
222.565
273.732
334.521
406.078
489.534
585.975
696.408
821.712
962.556
1119.26
1291.61
1481.04
1690.09
1919.95
2170.26
2440.08
2728.64
3035.69
3360.67
3698.99
4034.31
4349.81
4615.62
4729.1
4580.74
4176.51
3595.73
2927.7
2262.78
1690.62
1289.45
1063.12
1053.35
1224.06
1479.41
1768.49
2054.78
2285.45
2409.88
2392.02
2227.1
1953.25
1634.61
1309.08
955.978
570.809
262.163
113.764
64.7061
47.2978
39.0927
34.5652
31.8563
29.6881
27.7152
25.8098
23.9251
22.0338
20.1034
18.1032
16.0183
13.8561
11.6497
9.46064
7.37469
5.48611
3.87515
2.58788
1.62796
0.9619
0.533005
0.277472
0.136957
0.0655649
0.0316644
0.0161721
0.00906359
0.00566927
0.00393741
0.00296857
0.00236949
0.00197022
0.00169483
0.00150496
0.00137763
0.00129686
0.00125051
0.00122902
0.00122493
0.0012326
0.00124808
0.00126885
0.00129353
0.00132152
0.00135281
0.00138761
0.00142642
0.00146981
0.00151855
0.00157354
0.0016359
0.00170711
0.00178898
0.0018838
0.00199459
0.00212525
0.00228088
0.00246832
8.49703
9.46136
10.5588
11.8233
13.2718
14.9357
16.8523
19.0641
21.6219
24.5835
28.0159
31.9934
36.5965
41.9054
47.9922
54.9118
62.6931
71.3269
80.753
90.8419
101.372
112.009
122.296
131.665
139.486
145.157
148.247
148.583
146.456
142.609
137.732
132.484
127.401
122.841
118.983
115.882
113.43
111.424
109.728
108.118
106.331
104.082
101.065
96.9725
91.4725
84.5137
76.4004
67.3909
57.8132
48.1143
38.7766
30.2562
22.9021
16.9076
12.2853
8.89143
6.4896
4.83211
3.71386
3.01144
2.70058
2.8163
3.34008
4.19423
5.35634
6.8737
8.82994
11.3358
14.5328
18.5999
23.7622
30.3002
38.5611
48.9725
62.0525
78.4107
98.7602
123.919
154.793
192.367
237.684
291.84
355.984
431.337
519.234
621.137
738.602
873.12
1025.84
1197.34
1387.58
1595.38
1820.32
2083.89
2397.85
2774.01
3228.35
3777.17
4422.04
5120.28
5843.88
6591.81
7108.93
7135.79
6681.37
5885.16
4898.7
3869.36
2941.29
2179.62
1665.15
1487.36
1679.61
2081.27
2495.58
2834.23
3125.4
3323.34
3383.08
3289.41
3067.51
2770.6
2435.04
2030.82
1481.2
820.208
305.969
98.2808
48.3605
34.381
28.7824
25.6281
23.332
21.4308
19.7451
18.1691
16.6234
15.0493
13.4108
11.6991
9.93386
8.16142
6.44802
4.86841
3.49086
2.36267
1.50098
0.89158
0.495433
0.260066
0.132286
0.0682246
0.0377186
0.0231635
0.0156883
0.0113501
0.00852225
0.00651929
0.00502673
0.00389164
0.00303477
0.00240579
0.00196259
0.00166543
0.00147766
0.00136789
0.00131118
0.00128903
0.00128852
0.00130113
0.00132158
0.00134694
0.00137578
0.00140767
0.00144268
0.00148123
0.0015239
0.0015714
0.00162443
0.00168402
0.00175159
0.00182878
0.00191775
0.00202148
0.0021441
0.00229152
0.00247206
9.32088
10.3763
11.5875
12.9816
14.58
16.4168
18.533
20.9766
23.8047
27.0827
30.8848
35.2931
40.3964
46.2849
53.0411
60.7292
69.3839
78.9985
89.5102
100.781
112.574
124.533
136.17
146.886
156.016
162.926
167.15
168.497
167.067
163.494
158.712
153.539
148.64
144.438
141.129
138.712
137.065
136.098
135.623
135.402
135.172
134.641
133.501
131.423
128.065
123.069
116.047
106.97
96.2496
84.201
71.3324
58.2855
45.7613
34.4222
24.78
17.113
11.426
7.4924
4.95954
3.47367
2.76731
2.66609
3.01937
3.69131
4.6284
5.85283
7.42187
9.41418
11.9306
15.0988
19.079
24.0736
30.3287
38.1921
48.2111
60.5851
75.7256
94.2836
116.901
144.233
176.917
215.52
260.44
311.789
369.22
431.774
497.847
565.595
634.309
707.429
797.032
929.416
1124.33
1344.39
1612.59
1987.46
2540.22
3356.34
4478.42
5670.59
6782.58
8153.47
9271.78
9617.62
9249.9
8339.7
7099.69
5731.31
4407.52
3234.54
2351.71
1895.94
1963.47
2431.52
3049.45
3620.88
4031.02
4359.37
4591.33
4688.47
4641.62
4481.08
4251.58
3955.3
3488.31
2650
1420.1
413.982
99.1825
44.1704
29.9919
24.2915
21.0363
18.6885
16.7763
15.1017
13.5462
12.0301
10.5075
8.96697
7.42842
5.93593
4.54655
3.31706
2.29115
1.49037
0.910613
0.524914
0.291044
0.162037
0.09642
0.064367
0.0480843
0.0385508
0.031811
0.0263418
0.0215984
0.0173839
0.0136417
0.0103912
0.00768282
0.00555016
0.00397834
0.00289945
0.00221155
0.00180553
0.00158604
0.00148127
0.00144297
0.00144142
0.00145924
0.00148685
0.00151925
0.00155438
0.00159157
0.00163115
0.00167374
0.00172015
0.00177059
0.00182612
0.00188798
0.00195719
0.00203488
0.00212266
0.0022234
0.00234308
0.00249381
9.77567
10.8736
12.1419
13.5993
15.2698
17.1884
19.3976
21.9473
24.8976
28.317
32.2822
36.8783
42.1973
48.3332
55.3733
63.3853
72.406
82.4289
93.3885
105.141
117.44
129.915
142.067
153.285
162.9
170.282
174.97
176.777
175.833
172.601
168.036
163.086
158.49
154.718
151.974
150.268
149.575
149.764
150.644
151.992
153.563
155.101
156.335
156.984
156.75
155.313
152.32
147.376
139.994
130.1
118.011
103.996
88.6497
72.7125
57.0736
42.6585
30.2725
20.4339
13.2689
8.53713
5.77532
4.46136
4.10188
4.30283
4.85512
5.70071
6.84926
8.34042
10.2352
12.6183
15.6192
19.5059
24.1895
29.9501
37.1297
45.9619
56.729
69.813
85.6303
104.608
127.149
153.585
184.094
218.592
256.59
297.062
338.401
378.565
415.528
447.918
475.425
499.457
526.458
589.772
713.491
939.412
1380.56
2347.35
4354.77
6501.53
7547.86
9179.04
10665.6
11353.1
11158.4
10251.2
8885.2
7302.24
5679.03
4171.02
2966.44
2232.99
2088.49
2495.94
3179.85
3936.41
4647.43