/*--------------------------------*- C++ -*----------------------------------*\
| =========                 |                                                 |
| \\      /  F ield         | OpenFOAM: The Open Source CFD Toolbox           |
|  \\    /   O peration     | Version:  2406                                  |
|   \\  /    A nd           | Website:  www.openfoam.com                      |
|    \\/     M anipulation  |                                                 |
\*---------------------------------------------------------------------------*/
FoamFile
{
    version     2.0;
    format      ascii;
    arch        "LSB;label=32;scalar=64";
    class       volScalarField;
    location    "100";
    object      k;
}
// * * * * * * * * * * * * * * * * * * * * * * * * * * * * * * * * * * * * * //

dimensions      [0 2 -2 0 0 0 0];

internalField   nonuniform List<scalar> 
5619
(
0.285643
0.301259
0.319183
0.338981
0.360926
0.38533
0.412409
0.44233
0.475261
0.511445
0.551195
0.594827
0.642552
0.694391
0.75015
0.809416
0.871549
0.935632
1.0004
1.06417
1.12484
1.18001
1.22713
1.26389
1.28849
1.30007
1.29888
1.28646
1.26556
1.23998
1.21407
1.19213
1.17776
1.17336
1.18006
1.198
1.2267
1.26541
1.3134
1.37
1.43469
1.50704
1.5867
1.67336
1.76672
1.86647
1.97229
2.08381
2.20065
2.3224
2.44862
2.57883
2.71255
2.84924
2.98833
3.12918
3.27106
3.41313
3.55443
3.69387
3.83015
3.96186
4.08739
4.20506
4.31308
4.40965
4.49299
4.56152
4.61393
4.6493
4.66721
4.66787
4.65213
4.62027
4.57097
4.50563
4.4258
4.33327
4.23009
4.11857
4.00124
3.88078
3.75992
3.64135
3.52762
3.42094
3.32316
3.2356
3.15907
3.09382
3.03965
2.99591
2.96164
2.9357
2.91679
2.9036
2.89493
2.88975
2.88706
2.88584
2.88514
2.88593
2.88733
2.88801
2.88628
2.88023
2.86811
2.84891
2.82267
2.79056
2.75443
2.71612
2.67675
2.63625
2.59346
2.54644
2.49307
2.43156
2.3609
2.28102
2.19272
2.09745
1.99685
1.89248
1.78567
1.6777
1.57008
1.46477
1.36424
1.26225
1.15929
1.05586
0.952525
0.849929
0.748803
0.650019
0.554622
0.463854
0.379149
0.302098
0.23434
0.177358
0.132148
0.0988099
0.0762236
0.0621233
0.0537244
0.0485872
0.0451005
0.0424035
0.0400824
0.0379355
0.0358528
0.0337675
0.0316391
0.0294485
0.0271968
0.0249047
0.0226104
0.0203655
0.0182279
0.016252
0.0144789
0.0129305
0.0116096
0.0105054
0.00960033
0.0088737
0.00830387
0.00786834
0.00754424
0.00730956
0.00714463
0.00703311
0.00696233
0.00692317
0.00690983
0.00692128
0.00696046
0.00703483
0.00716037
0.00736009
0.00765628
0.00805011
0.00846864
0.00861753
0.00760478
0.500463
0.530868
0.566108
0.605032
0.648204
0.696228
0.749582
0.808633
0.87376
0.945461
1.02437
1.11112
1.20613
1.30946
1.42069
1.5389
1.6627
1.79006
1.91823
2.04357
2.16157
2.26706
2.35465
2.41946
2.45784
2.46817
2.4513
2.41073
2.35239
2.28403
2.21439
2.15197
2.10386
2.0749
2.06748
2.082
2.11764
2.17307
2.24695
2.33816
2.44584
2.5694
2.70843
2.8626
3.03163
3.21522
3.41303
3.62461
3.84942
4.08683
4.33608
4.59633
4.86661
5.14586
5.43291
5.72646
6.02505
6.32705
6.6306
6.93359
7.23362
7.52797
7.8136
8.08725
8.34537
8.58423
8.8
8.9889
9.14743
9.27252
9.36158
9.41301
9.42479
9.39579
9.32997
9.22953
9.09692
8.93503
8.74721
8.53724
8.30932
8.06791
7.81772
7.56353
7.31012
7.06207
6.82364
6.59859
6.39
6.20012
6.03033
5.88108
5.75197
5.64191
5.54926
5.47126
5.40601
5.35252
5.31
5.2777
5.25434
5.24082
5.23649
5.23939
5.24654
5.25405
5.25753
5.25311
5.23859
5.21403
5.18134
5.14306
5.10081
5.05418
5.00048
4.9353
4.85352
4.75054
4.62337
4.47154
4.29737
4.10572
3.90305
3.69601
3.49011
3.28891
3.09406
2.90602
2.72355
2.53711
2.34793
2.15679
1.96456
1.77217
1.58071
1.39149
1.20611
1.02656
0.855192
0.694706
0.548024
0.418111
0.307655
0.218588
0.151448
0.10474
0.0748253
0.0568012
0.0460454
0.0392695
0.0345725
0.0309788
0.0279968
0.0253575
0.0228952
0.020502
0.0181142
0.0157101
0.0133116
0.0109832
0.00882441
0.00695084
0.00546589
0.00443083
0.00384614
0.00365331
0.00375606
0.00405019
0.0044453
0.00486822
0.00526077
0.0055825
0.0058134
0.00595049
0.00599918
0.00596448
0.0058462
0.00565064
0.00539348
0.00507387
0.00469573
0.0042834
0.00388695
0.00357554
0.00342087
0.00348398
0.00379533
0.663891
0.705019
0.752467
0.804914
0.863112
0.92786
0.999812
1.07947
1.16736
1.26417
1.37075
1.48798
1.61644
1.75623
1.90685
2.06715
2.23531
2.40873
2.58383
2.75588
2.91902
3.06645
3.19108
3.28634
3.34724
3.3714
3.35966
3.31638
3.24908
3.16769
3.08343
3.00734
2.94882
2.9145
2.90794
2.93003
2.97992
3.05594
3.1563
3.27942
3.42408
3.58936
3.77462
3.97937
4.20318
4.44559
4.7061
4.98409
5.27877
5.58922
5.91432
6.25278
6.60315
6.96381
7.33295
7.70864
8.08876
8.47106
8.85306
9.23205
9.60511
9.96896
10.3201
10.655
10.9697
11.2606
11.5237
11.7551
11.9517
12.1109
12.2296
12.3056
12.3388
12.332
12.2866
12.2041
12.0867
11.9364
11.756
11.5484
11.3168
11.0645
10.7952
10.5125
10.2205
9.92298
9.62408
9.32783
9.03818
8.75885
8.49315
8.24385
8.01306
7.80202
7.60924
7.43515
7.2801
7.14394
7.02634
6.92653
6.84294
6.77825
6.73339
6.70633
6.69336
6.68915
6.68697
6.67988
6.6628
6.63385
6.59443
6.54782
6.4971
6.44336
6.38495
6.31766
6.23565
6.13262
6.0031
5.84366
5.65386
5.4367
5.19842
4.94732
4.69206
4.43983
4.19519
3.95962
3.72838
3.49095
3.24928
3.00483
2.75892
2.51275
2.26749
2.02439
1.78494
1.551
1.32485
1.10928
0.90744
0.722785
0.55876
0.418461
0.304119
0.216447
0.15397
0.112756
0.0871427
0.0714042
0.0612121
0.0539697
0.048325
0.0435845
0.039348
0.0353482
0.0313993
0.0273901
0.0232899
0.019156
0.0151284
0.0114061
0.00820082
0.00568005
0.00391776
0.00287086
0.00239279
0.00229148
0.00240444
0.00262616
0.00288856
0.00314077
0.00334429
0.00347501
0.00352397
0.00349514
0.00340258
0.00326847
0.00311531
0.00296068
0.00282178
0.00271808
0.00267185
0.00270797
0.0028526
0.00312707
0.00351414
0.808367
0.858896
0.916906
0.981086
1.05233
1.1316
1.21974
1.31734
1.42507
1.54376
1.67446
1.81825
1.97589
2.14756
2.3327
2.53
2.73735
2.9517
3.16887
3.38332
3.58813
3.77524
3.93612
4.06277
4.14891
4.19127
4.19043
4.15107
4.08162
3.99338
3.89914
3.81172
3.74235
3.69937
3.6877
3.70902
3.76273
3.84697
3.9595
4.09823
4.26141
4.4477
4.65607
4.8857
5.13591
5.40601
5.69526
6.00281
6.32762
6.66842
7.02372
7.39177
7.77061
8.15808
8.55177
8.94916
9.34756
9.74413
10.136
10.5203
10.8941
11.2541
11.597
11.9194
12.2181
12.4897
12.7318
12.9421
13.1189
13.2609
13.3685
13.4428
13.4845
13.4949
13.475
13.4261
13.3495
13.2467
13.1194
12.9689
12.7966
12.6037
12.3912
12.16
11.911
11.6449
11.363
11.0667
10.758
10.4395
10.1145
9.78725
9.46169
9.14137
8.83131
8.53564
8.25814
8.0025
7.77209
7.56961
7.39445
7.2473
7.13079
7.0451
6.9887
6.95528
6.93605
6.92091
6.90117
6.87188
6.83244
6.78553
6.73488
6.68321
6.63086
6.57555
6.51277
6.43653
6.3404
6.21861
6.06732
5.88575
5.67694
5.44747
5.20614
4.96188
4.72166
4.48904
4.25848
4.02028
3.77603
3.52717
3.27503
3.0208
2.7655
2.51008
2.25555
2.00316
1.75464
1.51223
1.27883
1.05784
0.853108
0.668569
0.507984
0.374471
0.26987
0.19382
0.142956
0.111208
0.0917163
0.0790233
0.069829
0.0624381
0.0559823
0.0499629
0.044074
0.0381569
0.0321911
0.0262848
0.020648
0.0155384
0.011191
0.00775269
0.00524918
0.00359555
0.00263479
0.00217281
0.00201313
0.00200897
0.00207641
0.00216897
0.00225849
0.00232854
0.00237259
0.00239271
0.00239747
0.00239573
0.0023977
0.00241275
0.00244934
0.00251546
0.00261919
0.00276857
0.00296999
0.00322293
0.00350598
0.943068
1.00234
1.07004
1.14504
1.2283
1.32097
1.424
1.53812
1.66409
1.80288
1.95571
2.12387
2.30829
2.50923
2.72614
2.95759
3.20128
3.45382
3.71059
3.9654
4.21049
4.43672
4.63424
4.79357
4.90701
4.97009
4.98268
4.94934
4.8789
4.78343
4.67686
4.57337
4.48583
4.42433
4.39531
4.40149
4.44265
4.51676
4.62102
4.75259
4.90896
5.08805
5.28819
5.50803
5.74641
6.00227
6.27452
6.562
6.86334
7.17697
7.50102
7.83327
8.17128
8.51225
8.85318
9.19118
9.52315
9.84569
10.1553
10.4482
10.723
10.9787
11.2132
11.4253
11.6142
11.7799
11.9222
12.0416
12.139
12.2153
12.2722
12.3109
12.333
12.3396
12.3322
12.3118
12.2798
12.2372
12.1845
12.1221
12.0494
11.9656
11.869
11.7572
11.6275
11.4767
11.3014
11.0985
10.8653
10.6001
10.3023
9.97443
9.62113
9.24685
8.85679
8.45755
8.05734
7.66591
7.29414
6.95327
6.64805
6.38324
6.16862
5.99789
5.8748
5.79561
5.74959
5.72317
5.70325
5.68049
5.65069
5.6142
5.57398
5.53351
5.49513
5.4593
5.42444
5.3871
5.34241
5.28467
5.20836
5.10935
4.98624
4.84126
4.68002
4.51011
4.33873
4.1705
4.00155
3.82491
3.64129
3.45124
3.2554
3.05438
2.84869
2.63869
2.42469
2.20709
1.98659
1.76441
1.54248
1.32352
1.11101
0.90903
0.722064
0.554712
0.411387
0.295762
0.209637
0.151362
0.115204
0.0933299
0.0791039
0.0685608
0.0597709
0.051842
0.0443704
0.0372251
0.0304477
0.0241808
0.0186022
0.0138627
0.0100396
0.00712083
0.00502054
0.00361113
0.00275129
0.00229348
0.00209006
0.00202399
0.00202512
0.00205676
0.00210008
0.00214587
0.00219067
0.00223474
0.00228068
0.00233111
0.00238967
0.00246015
0.00254623
0.00265149
0.00277935
0.00293281
0.00311328
0.00331825
0.00353768
1.06073
1.12761
1.2036
1.28789
1.38148
1.48561
1.60135
1.7295
1.8709
2.02665
2.19813
2.38675
2.59362
2.81909
3.06265
3.32285
3.59728
3.88238
4.17323
4.46327
4.7441
5.00572
5.23706
5.42711
5.5665
5.64914
5.67367
5.64405
5.56915
5.46159
5.33616
5.20823
5.09209
4.99937
4.93797
4.91162
4.92049
4.96228
5.03344
5.13014
5.24876
5.38614
5.53961
5.70695
5.88627
6.07593
6.27439
6.4801
6.6914
6.90636
7.12269
7.33754
7.54805
7.75058
7.94042
8.11392
8.27412
8.42016
8.55161
8.66925
8.77191
8.85902
8.93087
8.98836
9.03275
9.06555
9.08839
9.10305
9.1114
9.11522
9.11619
9.11586
9.11563
9.11677
9.1204
9.12745
9.13859
9.15413
9.17393
9.19727
9.22279
9.24842
9.27128
9.28773
9.29334
9.28301
9.25104
9.19137
9.09774
8.96399
8.78625
8.56513
8.298
7.98351
7.62252
7.21882
6.77977
6.31704
5.84673
5.38887
4.95542
4.5614
4.23457
3.98926
3.81108
3.70059
3.64445
3.6243
3.62203
3.62391
3.62261
3.61659
3.60797
3.60017
3.59613
3.59743
3.60398
3.61397
3.62408
3.62985
3.6262
3.60828
3.5724
3.51722
3.44471
3.36017
3.27048
3.18146
3.09263
2.99984
2.90265
2.80048
2.69284
2.57936
2.45966
2.33334
2.19992
2.05887
1.90969
1.75219
1.58672
1.41436
1.23711
1.05789
0.880487
0.709402
0.549772
0.407233
0.287538
0.195436
0.132213
0.093516
0.0709678
0.0568781
0.0467361
0.0385222
0.0314607
0.0253048
0.0200005
0.0155357
0.0118834
0.00898493
0.00675342
0.00508879
0.00389448
0.00308621
0.00258729
0.00231671
0.00219228
0.00214976
0.00215002
0.00217214
0.00220562
0.00224558
0.00229023
0.00233947
0.00239411
0.00245539
0.00252493
0.00260444
0.00269572
0.00280051
0.00292046
0.00305688
0.00321019
0.00337929
0.00356095
1.1459
1.21822
1.29992
1.39073
1.49149
1.60352
1.7279
1.86547
2.01712
2.18404
2.36769
2.56959
2.7909
3.0321
3.29274
3.57144
3.86585
4.17244
4.48626
4.80063
5.1069
5.39454
5.65156
5.86552
6.02518
6.1225
6.15445
6.12403
6.03996
5.91531
5.76568
5.60729
5.45529
5.32227
5.21704
5.14413
5.10408
5.09438
5.11075
5.14824
5.20187
5.26709
5.33989
5.41679
5.49486
5.57158
5.64471
5.71214
5.77163
5.8206
5.85603
5.87327
5.86966
5.85544
5.83613
5.81607
5.7926
5.76578
5.73588
5.70308
5.66729
5.62876
5.58834
5.54733
5.50727
5.46978
5.43645
5.40874
5.38792
5.37506
5.37103
5.37648
5.39187
5.4175
5.45346
5.49967
5.55584
5.62145
5.69566
5.77731
5.86486
5.95633
6.04927
6.14069
6.22709
6.30439
6.36796
6.41263
6.43281
6.42262
6.37953
6.29618
6.16626
5.98477
5.74849
5.45671
5.11219
4.72216
4.29918
3.86138
3.41904
2.99033
2.61434
2.32414
2.13244
2.02386
1.98331
1.98937
2.02083
2.06227
2.10609
2.15106
2.19909
2.25252
2.31258
2.37871
2.44855
2.51814
2.58247
2.63615
2.67442
2.69383
2.69234
2.66849
2.62111
2.55237
2.46918
2.38381
2.30244
2.22392
2.14935
2.07881
2.01165
1.94678
1.88274
1.81773
1.7507
1.67993
1.60336
1.51901
1.42515
1.32054
1.20464
1.07788
0.941766
0.798889
0.653163
0.509975
0.375565
0.257506
0.163776
0.0993482
0.061753
0.0419708
0.0310704
0.0240257
0.01881
0.0147239
0.011502
0.00898222
0.00703313
0.00554582
0.00443107
0.00361738
0.00304792
0.0026746
0.00245144
0.00233356
0.00228241
0.00227058
0.0022813
0.0023052
0.00233743
0.00237572
0.00241921
0.00246788
0.00252201
0.00258253
0.0026503
0.00272627
0.00281147
0.00290697
0.00301383
0.00313306
0.00326547
0.00341172
0.00357272
1.18223
1.25671
1.34035
1.43349
1.53674
1.65135
1.77832
1.91846
2.07271
2.24225
2.42856
2.63314
2.85713
3.10107
3.36463
3.64666
3.94501
4.25645
4.57632
4.89821
5.2137
5.51233
5.78175
6.00855
6.17986
6.28559
6.32086
6.28743
6.19368
6.05298
5.88138
5.69537
5.51006
5.33794
5.18797
5.06515
4.97051
4.90176
4.85439
4.82265
4.80046
4.78187
4.76137
4.734
4.69542
4.64186
4.57011
4.47726
4.36082
4.21807
4.05093
3.87774
3.71093
3.54951
3.39741
3.25831
3.13396
3.02524
2.9319
2.8527
2.78588
2.72987
2.68367
2.64694
2.61981
2.60259
2.59561
2.59908
2.61308
2.63753
2.67221
2.71676
2.77074
2.83364
2.90486
2.9837
3.06942
3.16113
3.25788
3.35855
3.46189
3.56649
3.67076
3.77293
3.87105
3.96293
4.04621
4.11832
4.1765
4.21815
4.23923
4.23318
4.19428
4.11764
3.99955
3.83787
3.6328
3.3877
3.10985
2.81089
2.49657
2.17976
1.88988
1.65174
1.48491
1.39038
1.36348
1.3902
1.45111
1.53072
1.62156
1.72212
1.83298
1.95409
2.08355
2.21722
2.34887
2.47062
2.57387
2.6509
2.69714
2.71339
2.70607
2.68336
2.64539
2.58787
2.50863
2.41263
2.30605
2.19023
2.07006
1.94967
1.83251
1.7213
1.61811
1.52439
1.44086
1.36738
1.30272
1.24449
1.18921
1.13261
1.07029
0.998368
0.913988
0.815282
0.702293
0.582616
0.459508
0.338265
0.226649
0.135185
0.0733221
0.0405524
0.0256883
0.0183293
0.0138079
0.0106053
0.0082419
0.00649048
0.00519369
0.00424151
0.00355658
0.00308005
0.00276344
0.00256526
0.00245069
0.00239225
0.00237
0.00237058
0.00238557
0.00241
0.00244113
0.00247759
0.00251884
0.00256477
0.00261571
0.00267227
0.00273504
0.00280475
0.00288222
0.00296839
0.00306435
0.00317136
0.00329098
0.00342522
0.00357707
1.16134
1.23401
1.31523
1.40581
1.50604
1.61698
1.73947
1.87425
2.02221
2.18451
2.3625
2.55753
2.77065
3.00237
3.25255
3.52031
3.80394
4.10075
4.40669
4.71611
5.02125
5.31249
5.57805
5.80448
5.97801
6.08701
6.12474
6.09156
5.99506
5.84828
5.66704
5.46719
5.26285
5.06543
4.88324
4.72133
4.58138
4.46202
4.35941
4.26813
4.1819
4.09425
3.99888
3.88993
3.76223
3.61157
3.43499
3.23128
3.00096
2.75831
2.52045
2.28822
2.06692
1.86104
1.67522
1.51333
1.37828
1.27187
1.19418
1.14299
1.1141
1.10254
1.10401
1.11558
1.13554
1.16292
1.19712
1.23766
1.28412
1.33604
1.39296
1.45443
1.51995
1.58902
1.66112
1.73573
1.81231
1.89028
1.96907
2.04806
2.12664
2.20415
2.27991
2.35321
2.42328
2.48931
2.55041
2.6056
2.65381
2.6938
2.72162
2.73379
2.72713
2.69885
2.64666
2.56911
2.46601
2.33895
2.1918
2.03098
1.86022
1.68748
1.5302
1.40336
1.31856
1.28314
1.2978
1.35702
1.45002
1.56708
1.70304
1.85615
2.02537
2.20831
2.40017
2.59316
2.77641
2.93641
3.05843
3.12958
3.14386
3.10806
3.04437
2.98317
2.94345
2.91771
2.88457
2.83098
2.75475
2.65464
2.53439
2.39866
2.25237
2.10018
1.9462
1.79391
1.64621
1.50554
1.37417
1.25458
1.1484
1.05447
0.971149
0.895925
0.825321
0.755262
0.681804
0.602016
0.513954
0.417067
0.311446
0.204712
0.119034
0.062274
0.0335254
0.0211431
0.0148844
0.0109261
0.00820077
0.00631273
0.00499938
0.00408478
0.00345614
0.00303569
0.00276475
0.00259821
0.00250258
0.00245404
0.00243621
0.00243819
0.00245297
0.00247628
0.0025057
0.00253998
0.0025786
0.00262155
0.0026691
0.00272168
0.00277988
0.00284441
0.00291614
0.00299611
0.00308558
0.00318617
0.00329989
0.00342939
0.00357822
1.09117
1.15843
1.23361
1.31743
1.40989
1.51181
1.62382
1.74653
1.88077
2.02757
2.18808
2.3634
2.55438
2.76148
2.98471
3.2235
3.47666
3.74214
4.01685
4.29617
4.57325
4.83982
5.08571
5.29861
5.46519
5.57325
5.6147
5.58846
5.50065
5.36298
5.18983
4.99552
4.79243
4.59041
4.39672
4.21613
4.05094
3.90096
3.76387
3.63567
3.51136
3.38544
3.25244
3.10734
2.94601
2.76583
2.56668
2.3522
2.13244
1.91706
1.70863
1.50927
1.32148
1.14698
0.987733
0.846358
0.726122
0.631471
0.566688
0.533155
0.527124
0.54088
0.566623
0.599028
0.635203
0.673732
0.71392
0.755392
0.797889
0.841189
0.885097
0.929441
0.974067
1.01883
1.0636
1.10824
1.15261
1.19658
1.23999
1.28267
1.32444
1.3651
1.4044
1.44211
1.47792
1.51152
1.54258
1.57073
1.59558
1.61655
1.63143
1.63895
1.63814
1.62821
1.60869
1.57948
1.54109
1.49481
1.44295
1.38893
1.33582
1.28825
1.25447
1.24263
1.25986
1.31018
1.39191
1.50236
1.63895
1.80036
1.98655
2.19764
2.43244
2.68705
2.95366
3.21955
3.46652
3.6714
3.80813
3.85306
3.79556
3.65118
3.46704
3.30632
3.21206
3.17707
3.17252
3.16852
3.14673
3.09712
3.01678
2.90689
2.77157
2.61645
2.44761
2.27087
2.09153
1.91455
1.74533
1.58468
1.432
1.28854
1.15521
1.03247
0.920092
0.816936
0.720823
0.628787
0.53756
0.4441
0.346278
0.243785
0.147857
0.0824654
0.0463993
0.0289178
0.0194332
0.0134475
0.00953928
0.00699837
0.00534812
0.00426577
0.00355481
0.00309509
0.00280655
0.00263309
0.00253548
0.00248691
0.00246949
0.0024716
0.002486
0.00250847
0.00253666
0.00256938
0.0026062
0.00264709
0.00269233
0.00274237
0.00279785
0.00285952
0.00292834
0.00300542
0.00309219
0.00319037
0.00330215
0.0034303
0.00357843
0.998823
1.05899
1.12676
1.2021
1.28485
1.37556
1.47473
1.58283
1.70058
1.82887
1.96862
2.12066
2.28565
2.46398
2.65571
2.86052
3.07757
3.30544
3.54189
3.78356
4.02416
4.25641
4.47242
4.66182
4.81301
4.91481
4.95879
4.94306
4.87197
4.75473
4.60305
4.42873
4.24215
4.05167
3.8637
3.68281
3.51173
3.35129
3.20064
3.05756
2.91897
2.78136
2.64129
2.49587
2.34326
2.18323
2.01784
1.85226
1.69279
1.53904
1.39207
1.25235
1.11924
0.990099
0.865221
0.746401
0.634123
0.533261
0.452403
0.401122
0.382929
0.390662
0.41237
0.439191
0.466679
0.492997
0.51749
0.540153
0.561621
0.582146
0.601858
0.620859
0.639243
0.657103
0.674528
0.691603
0.708405
0.725006
0.741471
0.757861
0.774231
0.790635
0.807128
0.823768
0.84062
0.857762
0.875286
0.893206
0.911526
0.930277
0.949517
0.968904
0.988259
1.00762
1.02721
1.04745
1.06896
1.09265
1.11967
1.15136
1.18978
1.23664
1.2928
1.35998
1.44015
1.53569
1.65109
1.79095
1.95994
2.16263
2.403
2.68343
3.0031
3.35601
3.72913
4.10072
4.43963
4.70605
4.85461
4.84237
4.65382
4.32882
3.97226
3.66575
3.45478
3.34532
3.3148
3.32694
3.34718
3.35245
3.32785
3.26597
3.16601
3.03199
2.87067
2.69007
2.49822
2.3024
2.1046
1.90792
1.71602
1.53185
1.35769
1.19517
1.04515
0.907418
0.780449
0.66179
0.549131
0.43999
0.329754
0.225683
0.141019
0.0825292
0.0489912
0.0314322
0.0212792
0.0146532
0.0102205
0.0073284
0.00547971
0.00430068
0.00354998
0.00307913
0.00279229
0.00262501
0.00253403
0.00249089
0.00247726
0.00248168
0.00249722
0.00251997
0.00254786
0.00257993
0.00261587
0.00265576
0.00269992
0.00274885
0.00280321
0.00286378
0.00293156
0.00300771
0.00309367
0.00319121
0.00330254
0.00343042
0.00357845
0.921703
0.976213
1.03831
1.10699
1.18205
1.26393
1.35304
1.44981
1.55488
1.669
1.79295
1.92743
2.07299
2.23001
2.39857
2.57841
2.76884
2.96867
3.17615
3.38905
3.60106
3.80393
3.99216
4.15701
4.28909
4.37937
4.42123
4.41266
4.35632
4.25864
4.12824
3.97429
3.80539
3.62905
3.4514
3.27711
3.10926
2.94936
2.79754
2.65288
2.5138
2.37846
2.24516
2.11267
1.98054
1.84927
1.7204
1.59619
1.47893
1.36938
1.26698
1.17101
1.08006
0.991447
0.901021
0.80221
0.69286
0.578206
0.465367
0.369516
0.308088
0.283552
0.281684
0.289352
0.300829
0.314346
0.32943
0.345863
0.363192
0.381514
0.401023
0.421919
0.444407
0.468689
0.494966
0.523442
0.55432
0.587808
0.624117
0.663466
0.706083
0.752209
0.802105
0.856052
0.914366
0.9774
1.04556
1.11923
1.19582
1.27437
1.3542
1.43457
1.51469
1.59371
1.67073
1.74487
1.81532
1.88145
1.94289
1.99948
2.05166
2.09382
2.12203
2.13855
2.15172
2.17497
2.22431
2.31556
2.4624
2.67581
2.96368
3.32945
3.76928
4.26898
4.80158
5.32604
5.78735
6.11844
6.24363
6.08731
5.66996
5.09555
4.50114
3.99925
3.643
3.43309
3.34327
3.33535
3.36526
3.39971
3.41335
3.39008
3.32331
3.21425
3.06924
2.89747
2.70528
2.49663
2.27798
2.05581
1.83504
1.61974
1.41372
1.2207
1.04374
0.883825
0.73723
0.602248
0.480014
0.367908
0.266608
0.180335
0.11415
0.0697049
0.0434662
0.0284302
0.019112
0.0130442
0.00913248
0.00664794
0.00506303
0.00404306
0.00338966
0.00298019
0.00273269
0.00259062
0.00251562
0.00248236
0.00247459
0.00248225
0.00249944
0.00252287
0.00255089
0.00258281
0.00261845
0.00265799
0.00270179
0.00275036
0.00280439
0.00286466
0.00293218
0.00300811
0.0030939
0.00319132
0.00330256
0.00343041
0.00357844
0.88877
0.941748
1.00225
1.06889
1.14148
1.22047
1.30633
1.39956
1.5008
1.61076
1.73024
1.86
2.00072
2.15285
2.31654
2.49151
2.67702
2.87181
3.07403
3.28205
3.48667
3.68227
3.8623
4.0178
4.14044
4.22269
4.25982
4.25081
4.19797
4.10617
3.98203
3.83323
3.66775
3.49318
3.3161
3.14158
2.97302
2.81219
2.65946
2.51425
2.37538
2.24153
2.11154
1.98466
1.86069
1.74003
1.62361
1.51264
1.40833
1.31146
1.22225
1.14024
1.06401
0.99075
0.915806
0.832316
0.730832
0.614797
0.490073
0.371966
0.287013
0.251593
0.251215
0.265728
0.286721
0.312133
0.341643
0.37533
0.413415
0.456221
0.504118
0.55749
0.616728
0.682226
0.754378
0.833577
0.920214
1.01468
1.11738
1.2287
1.34908
1.47897
1.61885
1.76929
1.93092
2.10446
2.29077
2.49104
2.70494
2.92804
3.15772
3.39132
3.62568
3.85692
4.08045
4.291
4.48281
4.65
4.78698
4.88883
4.95168
4.94947
4.85669
4.66278
4.37987
4.0482
3.7318
3.50344
3.42156
3.51626
3.79429
4.24726
4.85071
5.56064
6.31344
7.02823
7.60984
7.95334
7.94757
7.5189
6.7269
5.74927
4.81965
4.0947
3.61538
3.34715
3.23481
3.22527
3.26359
3.30831
3.33008
3.31286
3.25355
3.15576
3.01041
2.8104
2.56399
2.28858
2.0014
1.73405
1.50325
1.30774
1.13907
0.988269
0.849129
0.718247
0.593872
0.476385
0.368429
0.272805
0.1922
0.128528
0.0823175
0.0518567
0.0331977
0.02181
0.0146198
0.0100771
0.00726266
0.00551347
0.00439329
0.0036561
0.00317
0.00285706
0.00266416
0.00255273
0.00249495
0.00247137
0.00246901
0.00247965
0.00249839
0.00252258
0.00255093
0.00258296
0.00261861
0.00265811
0.00270187
0.00275041
0.00280442
0.00286467
0.00293219
0.00300812
0.0030939
0.00319132
0.00330256
0.0034304
0.00357844
0.90605
0.962146
1.02555
1.09534
1.17134
1.2541
1.34429
1.44253
1.5496
1.66632
1.79364
1.93259
2.0841
2.24886
2.42716
2.61876
2.82287
3.03802
3.26187
3.49093
3.71783
3.93636
4.13827
4.3095
4.44132
4.52655
4.56107
4.54526
4.48272
4.37889
4.24075
4.07662
3.89546
3.7059
3.51542
3.32954
3.15159
2.98301
2.82357
2.67193
2.52618
2.3843
2.24462
2.10606
1.96839
1.83214
1.69856
1.56941
1.44669
1.33223
1.22735
1.13251
1.04688
0.967984
0.89124
0.809765
0.71416
0.603711
0.483455
0.365637
0.275932
0.237659
0.241609
0.265265
0.298468
0.339048
0.387025
0.442933
0.507492
0.58153
0.665939
0.761659
0.86966
0.990925
1.12644
1.27718
1.44408
1.62808
1.83003
2.05078
2.29113
2.55183
2.83366
3.13735
3.46367
3.81344
4.1875
4.58677
5.01646
5.47482
5.95517
6.4521
6.95957
7.47025
7.97524
8.46423
8.92553
9.34628
9.71245
10.0089
10.226
10.3153
10.2066
9.83933
9.18997
8.30114
7.2766
6.2834
5.52825
5.17171
5.25452
5.72672
6.49852
7.44915
8.43637
9.31269
9.92971
10.1452
9.84643
8.99198
7.64956
6.12817
4.81811
3.8836
3.32325
3.06012
2.98883
3.02274
3.08564
3.12184
3.09848
2.98839
2.76776
2.46485
2.14964
1.8732
1.64882
1.46808
1.31652
1.18418
1.06539
0.955518
0.850144
0.745843
0.641158
0.536866
0.435478
0.340562
0.255878
0.184264
0.127089
0.0842305
0.0542785
0.0347396
0.022546
0.014968
0.0102333
0.00732489
0.00556825
0.00448487
0.00377942
0.00329874
0.00296796
0.00274558
0.00260324
0.00251901
0.00247553
0.00245948
0.00246115
0.00247403
0.00249408
0.00251907
0.00254794
0.00258036
0.00261633
0.00265613
0.00270018
0.00274901
0.0028033
0.00286383
0.0029316
0.00300774
0.00309369
0.00319122
0.00330254
0.00343041
0.00357845
0.955041
1.01679
1.08587
1.16206
1.24514
1.33584
1.43501
1.54348
1.66223
1.79232
1.93495
2.09139
2.2629
2.45046
2.6546
2.87519
3.11143
3.36158
3.62278
3.89057
4.15816
4.41779
4.65874
4.86747
5.03123
5.13677
5.17718
5.15491
5.07596
4.9487
4.78322
4.59096
4.38349
4.171
3.96217
3.76267
3.57523
3.4003
3.23611
3.0796
2.92702
2.77453
2.61884
2.45774
2.29078
2.11884
1.94413
1.77009
1.60086
1.44072
1.29338
1.16131
1.04512
0.94309
0.850871
0.761424
0.665784
0.563481
0.454427
0.346718
0.261204
0.222418
0.227899
0.256451
0.297004
0.347322
0.407795
0.479492
0.56377
0.662179
0.776422
0.908326
1.05981
1.23283
1.42939
1.65142
1.90081
2.17935
2.48868
2.83028
3.20544
3.61524
4.0605
4.54177
5.05926
5.61277
6.20159
6.82434
7.47885
8.17211
8.90413
9.66633
10.4508
11.2489
12.0519
12.8517
13.6417
14.416
15.1643
15.8635
16.4963
16.9926
17.1899
16.9117
16.0421
14.6686
12.9475
11.1012
9.42519
8.26047
7.84563
8.14307
8.97358
10.0922
11.2302
12.1589
12.6788
12.6236
11.8922
10.5082
8.67582
6.76051
5.11561
3.87271
3.03696
2.60732
2.4163
2.29339
2.15772
1.98239
1.77922
1.58029
1.4278
1.3148
1.22197
1.14034
1.06661
0.998253
0.932312
0.866023
0.797147
0.723964
0.645536
0.562176
0.475749
0.389498
0.307369
0.233136
0.169669
0.11847
0.0796102
0.0519559
0.0335241
0.0218983
0.0147414
0.01028
0.00745457
0.00568301
0.00458405
0.00388316
0.00340949
0.0030744
0.00283485
0.00266747
0.00255646
0.002489
0.00245402
0.00244218
0.00244604
0.00246024
0.00248125
0.0025071
0.00253681
0.0025701
0.00260697
0.00264775
0.00269281
0.00274268
0.00279804
0.00285962
0.0029284
0.00300547
0.00309221
0.00319038
0.00330215
0.00343029
0.00357843
1.00306
1.06988
1.14451
1.22691
1.31695
1.41549
1.52349
1.64199
1.77218
1.91536
2.07293
2.24638
2.4372
2.64661
2.87538
3.12357
3.39034
3.67384
3.97088
4.27666
4.58432
4.88495
5.16664
5.41513
5.61526
5.75196
5.81382
5.79588
5.70701
5.56037
5.37067
5.1539
4.92517
4.69695
4.47831
4.27461
4.08806
3.91779
3.7603
3.61099
3.46419
3.31378
3.15378
2.97946
2.78934
2.58341
2.36375
2.13516
1.90409
1.67821
1.46512
1.27131
1.10081
0.954285
0.828688
0.717884
0.614517
0.5138
0.413576
0.317802
0.241064
0.204134
0.2087
0.237002
0.278036
0.329433
0.391683
0.466098
0.554378
0.658539
0.780884
0.923991
1.09068
1.28398
1.50707
1.76317
2.05548
2.38702
2.76049
3.17811
3.64152
4.15167
4.70878
5.3123
5.96091
6.65248
7.38395
8.15108
8.948
9.76653
10.6062
11.4723
12.3688
13.2949
14.2525
15.2532
16.3216
17.497
18.8192
20.2906
21.889
23.4915
24.6854
25.0107
24.2693
22.608
20.2707
17.5924
15.0175
13.0493
11.8854
11.8011
12.5508
13.6007
14.6596
15.5202
15.9272
15.6819
14.6908
13.0138
10.8922
8.67493
6.61857
4.76724
3.17622
2.11992
1.64436
1.43577
1.30364
1.19912
1.11917
1.06225
1.01625
0.976075
0.938705
0.902053
0.864367
0.823852
0.778676
0.727225
0.668411
0.601977
0.528765
0.450861
0.37147
0.294473
0.223761
0.162547
0.112847
0.0752188
0.0487855
0.0315654
0.0210409
0.0147839
0.0109327
0.00837448
0.00659475
0.00535731
0.00449752
0.00388483
0.00343346
0.00309584
0.00284594
0.00266707
0.00254592
0.00247047
0.00242968
0.00241394
0.00241548
0.00242859
0.00244944
0.00247581
0.00250652
0.0025412
0.00257979
0.00262256
0.00266986
0.00272217
0.00278019
0.00284458
0.00291625
0.00299618
0.00308562
0.00318619
0.0032999
0.00342938
0.00357822
1.02029
1.08926
1.16668
1.25215
1.34572
1.44824
1.56078
1.68448
1.8207
1.97086
2.1365
2.31919
2.52051
2.74186
2.98419
3.2477
3.53163
3.83409
4.15187
4.48018
4.81213
5.13847
5.44705
5.72326
5.95102
6.11431
6.20037
6.20152
6.11874
5.96816
5.76966
5.54358
5.3084
5.07849
4.86338
4.66813
4.49343
4.3373
4.19666
4.06636
3.94024
3.81158
3.67339
3.5187
3.34009
3.13383
2.90124
2.64536
2.37216
2.09039
1.81042
1.54304
1.29762
1.08058
0.894126
0.736065
0.601216
0.483941
0.380049
0.28959
0.220478
0.186483
0.189311
0.214552
0.251937
0.298905
0.355746
0.423596
0.503994
0.598803
0.710197
0.840648
0.992927
1.17011
1.37548
1.61233
1.88395
2.19346
2.54354
2.93614
3.37236
3.85235
4.37528
4.93959
5.54315
6.18353
6.8579
7.56264
8.29271
9.04166
9.80255
10.5644
11.3152
12.1254
13.0305
14.0699
15.3126
16.8666
18.8755
21.4633
24.7281
28.4369
31.6029
33.2527
33.121
31.4742
28.6803
25.1949
21.5808
18.2482
15.8158
14.878
15.5791
17.1297
18.5519
19.4196
19.8781
19.7657
18.9402
17.3986
15.305
12.9359
10.5247
8.11889
5.67103
3.42097
1.98285
1.4585
1.29148
1.20472
1.13794
1.07819
1.024
0.975341
0.931116
0.88913
0.846675
0.801061
0.749994
0.691864
0.626013
0.552926
0.474328
0.393098
0.312977
0.238067
0.172194
0.118231
0.077505
0.0494791
0.0319524
0.0218536
0.0162385
0.0129458
0.0107306
0.00904079
0.00767909
0.00656215
0.00563224
0.0048486
0.00418973
0.00364738
0.00321737
0.00289332
0.00266404
0.00251391
0.00242515
0.00238058
0.00236591
0.00237059
0.00238761
0.00241282
0.00244392
0.00248
0.0025207
0.00256619
0.00261679
0.00267295
0.00273548
0.002805
0.00288237
0.00296848
0.00306439
0.00317138
0.00329098
0.00342521
0.00357707
0.992681
1.06011
1.13636
1.22048
1.31265
1.41372
1.52473
1.64685
1.78148
1.9301
2.09424
2.27544
2.47527
2.69519
2.93622
3.19867
3.48186
3.78402
4.10208
4.43145
4.76553
5.09533
5.40915
5.69285
5.93069
6.10695
6.2086
6.22767
6.1625
6.02258
5.83161
5.6127
5.38658
5.16878
4.969
4.79156
4.63755
4.50549
4.39139
4.28983
4.19473
4.0997
3.99823
3.88384
3.75012
3.5907
3.39894
3.17187
2.91197
2.62398
2.3166
2.00076
1.68878
1.393
1.12382
0.888174
0.688562
0.523661
0.390274
0.286291
0.213749
0.177982
0.176779
0.197019
0.228831
0.269239
0.31811
0.376181
0.444572
0.524696
0.618236
0.727177
0.853631
1.00071
1.17323
1.36987
1.59208
1.84369
2.12714
2.44389
2.79429
3.17719
3.58953
4.02583
4.47781
4.93443
5.38311
5.81335
6.22406
6.63433
7.091
7.66612
8.37042
9.02952
9.71047
10.5695
11.7545
13.4458
15.8707
19.2412
24.3055
30.7672
36.6059
40.0133
40.9595
39.7309
36.8059
32.74
28.1158
23.4596
19.6087
17.449
17.5029
19.243
21.5021
23.3419
24.2602
24.6362
24.4114
23.4571
21.7705
19.5077
16.8996
14.0973
11.0616
7.67307
4.26356
2.07207
1.4423
1.27807
1.20091
1.13801
1.07657
1.01634
0.958696
0.903316
0.848258
0.790912
0.728929
0.660839
0.58639
0.506658
0.423971
0.34165
0.263579
0.19366
0.13517
0.0900885
0.0585446
0.038703
0.0274024
0.0213269
0.0179472
0.0157638
0.0140629
0.0125661
0.0111754
0.0098525
0.00858282
0.00737256
0.00624554
0.00523381
0.00436661
0.00366269
0.0031272
0.00275086
0.00251069
0.00237444
0.00230901
0.00228778
0.00229269
0.00231305
0.00234293
0.0023796
0.00242189
0.00246968
0.00252331
0.00258335
0.00265084
0.00272659
0.00281167
0.00290709
0.00301389
0.00313308
0.00326548
0.0034117
0.00357273
0.922932
0.985612
1.057
1.13566
1.22189
1.31645
1.42033
1.53463
1.6607
1.79994
1.95381
2.12372
2.31116
2.5175
2.74377
2.99031
3.25654
3.54083
3.84036
4.15089
4.46631
4.77824
5.07589
5.34618
5.57456
5.74649
5.84971
5.87644
5.8253
5.70259
5.52814
5.32673
5.11958
4.92242
4.74475
4.59183
4.46456