/*--------------------------------*- C++ -*----------------------------------*\
| =========                 |                                                 |
| \\      /  F ield         | OpenFOAM: The Open Source CFD Toolbox           |
|  \\    /   O peration     | Version:  2406                                  |
|   \\  /    A nd           | Website:  www.openfoam.com                      |
|    \\/     M anipulation  |                                                 |
\*---------------------------------------------------------------------------*/
FoamFile
{
    version     2.0;
    format      ascii;
    arch        "LSB;label=32;scalar=64";
    class       volScalarField;
    location    "100";
    object      nut;
}
// * * * * * * * * * * * * * * * * * * * * * * * * * * * * * * * * * * * * * //

dimensions      [0 2 -1 0 0 0 0];

internalField   nonuniform List<scalar> 
5619
(
0.000117326
0.000120526
0.000124103
0.000127946
0.000132081
0.000136536
0.000141315
0.000146418
0.000151842
0.000157597
0.000163695
0.000170146
0.000176938
0.000184036
0.000191381
0.000198895
0.000206482
0.000214025
0.000221384
0.000228386
0.000234832
0.000240507
0.000245197
0.000248714
0.000250927
0.000251788
0.000251353
0.000249799
0.000247425
0.00024464
0.000241913
0.000239705
0.000238389
0.000238192
0.000239194
0.000241358
0.000244583
0.000248743
0.000253716
0.000259394
0.000265681
0.000272497
0.000279771
0.000287439
0.000295443
0.000303726
0.000312238
0.000320927
0.000329747
0.000338656
0.000347611
0.000356577
0.000365519
0.000374402
0.000383193
0.000391859
0.000400363
0.000408664
0.000416717
0.000424471
0.00043187
0.00043885
0.000445344
0.000451283
0.000456595
0.00046121
0.000465064
0.000468102
0.000470285
0.00047159
0.000472018
0.0004716
0.000470389
0.000468289
0.00046533
0.000461575
0.000457088
0.000451948
0.000446248
0.000440099
0.000433629
0.000426975
0.000420286
0.000413712
0.000407397
0.000401473
0.00039605
0.000391209
0.000386996
0.000383428
0.000380489
0.000378138
0.000376315
0.000374947
0.000373954
0.000373257
0.000372789
0.000372487
0.000372285
0.000372115
0.000371911
0.000371715
0.000371466
0.00037108
0.000370447
0.000369455
0.000368024
0.000366132
0.000363833
0.000361244
0.000358509
0.000355748
0.000353013
0.000350266
0.000347396
0.000344242
0.000340634
0.000336429
0.00033153
0.000325904
0.000319574
0.000312604
0.000305071
0.000297046
0.000288583
0.000279735
0.000270585
0.000261278
0.000252034
0.000242251
0.000231907
0.00022098
0.000209452
0.000197307
0.000184541
0.000171162
0.000157206
0.000142754
0.000127955
0.000113055
9.84386e-05
8.46585e-05
7.24236e-05
6.247e-05
5.52592e-05
5.06363e-05
4.78496e-05
4.60442e-05
4.46662e-05
4.34581e-05
4.23083e-05
4.11587e-05
3.99704e-05
3.87141e-05
3.73701e-05
3.59287e-05
3.43926e-05
3.27774e-05
3.11128e-05
2.94407e-05
2.7811e-05
2.62731e-05
2.48665e-05
2.36146e-05
2.25257e-05
2.1599e-05
2.08291e-05
2.02077e-05
1.97225e-05
1.93562e-05
1.90881e-05
1.88982e-05
1.87687e-05
1.86858e-05
1.86387e-05
1.86203e-05
1.86264e-05
1.86607e-05
1.87247e-05
1.88304e-05
1.90006e-05
1.92651e-05
1.96496e-05
2.01488e-05
2.06659e-05
2.08467e-05
1.95834e-05
0.00104617
0.00107888
0.00111811
0.00115964
0.00120384
0.00125105
0.00130151
0.00135523
0.00141213
0.00147221
0.0015356
0.00160251
0.001673
0.00174684
0.00182344
0.00190195
0.0019813
0.00206019
0.00213706
0.00220999
0.00227665
0.00233439
0.00238041
0.00241206
0.00242722
0.00242453
0.00240366
0.00236532
0.00231141
0.00224509
0.00217085
0.00209429
0.00202127
0.00195687
0.00190448
0.00186563
0.00184032
0.00182762
0.0018263
0.00183507
0.0018528
0.00187853
0.00191147
0.00195093
0.00199631
0.00204705
0.00210261
0.00216244
0.002226
0.00229274
0.00236215
0.00243372
0.00250701
0.00258163
0.00265726
0.00273365
0.00281063
0.00288805
0.00296582
0.00304389
0.0031222
0.00320064
0.00327902
0.00335711
0.00343458
0.00351099
0.00358574
0.00365798
0.00372674
0.00379085
0.0038489
0.00389953
0.0039399
0.00396779
0.00398649
0.00399557
0.00399437
0.00398221
0.00395851
0.0039229
0.00387525
0.00381581
0.00374529
0.00366492
0.00357648
0.00348226
0.00338494
0.00328743
0.00319264
0.00310322
0.00302139
0.00294877
0.00288633
0.00283439
0.00279271
0.00275977
0.00273465
0.00271706
0.00270687
0.00270399
0.0027079
0.00271832
0.0027348
0.00275629
0.00278118
0.0028073
0.00283218
0.00285371
0.00287082
0.00288395
0.00289488
0.0029062
0.00292035
0.0029389
0.00296217
0.00298922
0.00301815
0.00304652
0.00307186
0.00309205
0.00310576
0.00311257
0.00311286
0.00310732
0.00309631
0.00307942
0.00305537
0.00302266
0.00297975
0.00292683
0.00286456
0.0027929
0.00271162
0.00262023
0.00251804
0.00240409
0.00227718
0.00213588
0.00197852
0.00180339
0.00160909
0.00139569
0.00116676
0.000932232
0.000709964
0.00052179
0.00038268
0.00029184
0.000236436
0.000202288
0.000179687
0.000163311
0.000150424
0.0001395
0.000129523
0.000119712
0.000109467
9.83851e-05
8.63266e-05
7.34874e-05
6.04463e-05
4.81312e-05
3.76478e-05
2.99485e-05
2.54587e-05
2.39336e-05
2.4659e-05
2.67926e-05
2.9613e-05
3.2577e-05
3.52872e-05
3.74787e-05
3.90174e-05
3.98751e-05
4.00805e-05
3.9669e-05
3.86502e-05
3.70926e-05
3.51392e-05
3.2791e-05
3.00882e-05
2.7208e-05
2.45122e-05
2.25532e-05
2.21283e-05
2.48026e-05
3.63037e-05
0.0026673
0.00274164
0.00283145
0.00292628
0.00302699
0.00313454
0.00324953
0.00337189
0.0035014
0.00363804
0.00378228
0.00393486
0.00409622
0.00426609
0.00444339
0.00462636
0.00481276
0.00499988
0.00518437
0.00536192
0.00552709
0.00567329
0.00579317
0.00587921
0.00592455
0.00592375
0.0058735
0.00577328
0.00562606
0.00543922
0.00522502
0.00499964
0.0047804
0.00458213
0.00441452
0.00428155
0.00418282
0.00411543
0.00407558
0.00405954
0.00406409
0.00408655
0.00412475
0.0041769
0.00424147
0.00431709
0.00440251
0.0044965
0.00459791
0.00470562
0.00481858
0.0049358
0.00505645
0.00517978
0.0053052
0.00543226
0.00556062
0.00569002
0.00582028
0.00595133
0.00608303
0.00621513
0.00634726
0.00647893
0.00660951
0.00673812
0.00686356
0.00698445
0.00709934
0.00720686
0.00730351
0.00738551
0.00745175
0.00750366
0.00754078
0.00756192
0.00756581
0.00755128
0.00751743
0.00746368
0.0073899
0.0072965
0.00718448
0.00705548
0.0069118
0.00675637
0.00659264
0.00642447
0.00625594
0.00609115
0.00593395
0.00578772
0.00565516
0.00553815
0.00543506
0.00534703
0.0052748
0.00521807
0.00517601
0.00514722
0.00513014
0.00512791
0.00514045
0.00516509
0.00519906
0.00523893
0.00528065
0.00532041
0.00535592
0.00538727
0.00541706
0.00544952
0.00548912
0.00553917
0.005601
0.00567373
0.00575452
0.00583908
0.00592228
0.00599884
0.00606403
0.00611428
0.00614759
0.00616341
0.00616224
0.00614495
0.00611219
0.00606411
0.00599792
0.00591273
0.00580931
0.00568744
0.00554629
0.00538441
0.00519983
0.00499001
0.00475201
0.00448274
0.00417928
0.00383958
0.00346352
0.00305444
0.0026212
0.00217999
0.00175463
0.00137331
0.00106119
0.000830688
0.000676081
0.000578059
0.000515064
0.000471284
0.000437596
0.000409176
0.000383275
0.000358038
0.000332091
0.000304456
0.000274596
0.000242484
0.000208631
0.000174024
0.000139961
0.000107885
7.96028e-05
5.78574e-05
4.48571e-05
3.93919e-05
3.8378e-05
3.9496e-05
4.14508e-05
4.34869e-05
4.51349e-05
4.6138e-05
4.64156e-05
4.60212e-05
4.51014e-05
4.3981e-05
4.2994e-05
4.23719e-05
4.23995e-05
4.34493e-05
4.60437e-05
5.10402e-05
6.02099e-05
7.81214e-05
0.000121797
0.00453953
0.00465586
0.00479619
0.00494438
0.00510168
0.00526972
0.00544945
0.00564072
0.00584312
0.00605671
0.00628241
0.00652164
0.00677534
0.00704327
0.00732381
0.00761428
0.00791121
0.00821033
0.00850624
0.00879185
0.00905801
0.0092934
0.00948507
0.00961938
0.00968339
0.00966649
0.0095619
0.00936826
0.00909134
0.00874537
0.0083533
0.0079442
0.00754796
0.00718917
0.00688316
0.00663555
0.00644467
0.00630483
0.00620909
0.00615076
0.00612414
0.00612457
0.00614835
0.00619251
0.00625458
0.00633243
0.00642415
0.00652797
0.00664222
0.0067653
0.00689571
0.00703204
0.00717302
0.00731754
0.00746465
0.00761359
0.00776376
0.00791455
0.00806552
0.00821634
0.00836674
0.00851635
0.00866468
0.00881119
0.00895525
0.00909615
0.00923145
0.00935914
0.0094771
0.00958284
0.00967607
0.00975681
0.00982452
0.00987857
0.00991797
0.00994161
0.0099484
0.0099374
0.00990786
0.00985923
0.00979124
0.00970389
0.00959749
0.00947267
0.0093304
0.00917202
0.00899929
0.0088144
0.00861997
0.00841911
0.00821531
0.00801242
0.00781355
0.00761973
0.00743599
0.00726602
0.00711263
0.00697793
0.00686332
0.00676936
0.00669419
0.00663765
0.00660328
0.00659133
0.00659931
0.00662384
0.00666024
0.00670303
0.0067475
0.00679127
0.00683492
0.00688142
0.00693476
0.00699839
0.00707401
0.00716114
0.00725712
0.00735746
0.00745642
0.00754772
0.00762541
0.00768471
0.00772284
0.00773925
0.00773533
0.00771355
0.00767642
0.00762554
0.00755781
0.00747112
0.00736548
0.00724005
0.00709333
0.00692315
0.00672667
0.00650042
0.00624045
0.00594262
0.0056031
0.00521904
0.00478949
0.0043166
0.00380695
0.00327296
0.00273397
0.00221619
0.00175047
0.00136594
0.00107948
0.000886836
0.000765082
0.000686554
0.000630651
0.000585738
0.000545867
0.000507802
0.0004696
0.000430169
0.000389174
0.000347011
0.000304728
0.000263798
0.000225713
0.000191366
0.000160337
0.000131078
0.000104305
8.47606e-05
7.39909e-05
6.91145e-05
6.73978e-05
6.7297e-05
6.79953e-05
6.90774e-05
7.03816e-05
7.1915e-05
7.37847e-05
7.64578e-05
8.02723e-05
8.54631e-05
9.23407e-05
0.000101338
0.00011316
0.000129175
0.000152359
0.000189884
0.000263034
0.00647402
0.00663129
0.00682013
0.00701974
0.00723156
0.0074578
0.00769968
0.00795693
0.00822908
0.00851631
0.00882008
0.00914246
0.00948484
0.00984695
0.0102267
0.0106204
0.0110234
0.0114297
0.0118318
0.0122197
0.0125805
0.0128979
0.0131535
0.0133272
0.0134003
0.0133571
0.0131882
0.0128924
0.0124792
0.0119703
0.0113985
0.0108041
0.0102274
0.00970194
0.00924834
0.0088744
0.00857779
0.00835046
0.00818239
0.00806384
0.00798645
0.00794345
0.00792952
0.00794044
0.00797287
0.008024
0.00809142
0.00817295
0.00826653
0.00837023
0.00848217
0.00860058
0.00872385
0.00885043
0.00897886
0.0091082
0.00923787
0.00936716
0.00949539
0.0096219
0.00974569
0.00986627
0.00998306
0.0100954
0.0102022
0.0103022
0.0103964
0.0104848
0.0105671
0.0106427
0.0107117
0.0107737
0.0108285
0.0108754
0.0109138
0.0109429
0.0109618
0.0109699
0.0109663
0.0109502
0.0109209
0.0108773
0.0108187
0.0107438
0.0106518
0.0105415
0.010412
0.0102625
0.0100926
0.00990246
0.00969275
0.00946428
0.0092188
0.00896172
0.00869806
0.008433
0.0081721
0.00792135
0.00768692
0.00747474
0.00728512
0.00712032
0.00698638
0.00688457
0.00681936
0.00679125
0.00679573
0.00682449
0.00686787
0.00691781
0.00696969
0.00702256
0.00707796
0.00713826
0.00720525
0.00727933
0.00735924
0.00744221
0.00752425
0.00760074
0.00766701
0.00771918
0.0077549
0.00777387
0.00777781
0.00776958
0.00775202
0.00772676
0.00769137
0.00764398
0.00758374
0.00750916
0.00741818
0.00730813
0.00717563
0.00701651
0.00682592
0.00659847
0.00632866
0.00601136
0.00564259
0.00522039
0.00474587
0.00422435
0.0036667
0.00309064
0.00252208
0.00199493
0.00154653
0.00120523
0.000974583
0.000830252
0.000737594
0.000670387
0.000614483
0.000563322
0.000514096
0.000465959
0.000419234
0.000374965
0.000334553
0.000299376
0.000270347
0.000247299
0.000228046
0.000208117
0.000184851
0.000162932
0.00014782
0.000139339
0.000135262
0.000133947
0.000134487
0.000136419
0.000139519
0.00014369
0.000148905
0.00015562
0.000164013
0.000174163
0.000186305
0.000200917
0.00021889
0.000241834
0.000272635
0.000316372
0.000381118
0.00836128
0.00855756
0.00879182
0.00903984
0.00930291
0.00958362
0.00988337
0.0102018
0.0105384
0.0108937
0.0112695
0.0116684
0.0120923
0.0125408
0.0130113
0.0134994
0.0139992
0.0145032
0.015002
0.0154829
0.0159296
0.0163219
0.0166362
0.0168474
0.0169312
0.016868
0.016646
0.0162641
0.0157347
0.0150842
0.0143516
0.0135847
0.012832
0.012135
0.0115214
0.0110032
0.0105797
0.0102416
0.00997646
0.00977139
0.00961507
0.00949818
0.0094134
0.00935504
0.00931872
0.00930097
0.00929895
0.00931022
0.0093326
0.00936401
0.00940248
0.00944603
0.00949336
0.00954357
0.00959452
0.00964372
0.00969143
0.00973696
0.00977943
0.00981796
0.00985403
0.00988848
0.0099215
0.00995341
0.00998461
0.0100157
0.0100474
0.0100805
0.0101155
0.0101527
0.0101922
0.0102342
0.0102784
0.0103243
0.0103715
0.010419
0.0104661
0.0105116
0.0105543
0.0105929
0.0106257
0.0106509
0.0106663
0.0106697
0.0106581
0.0106287
0.0105782
0.0105028
0.0103991
0.0102632
0.0100919
0.00988519
0.00964566
0.00937516
0.00907591
0.00875121
0.00840607
0.00804779
0.00768617
0.00733331
0.00699205
0.00667047
0.00638821
0.00615184
0.00597256
0.0058635
0.00582171
0.00583266
0.00587671
0.0059358
0.00599752
0.00605574
0.00610888
0.00615761
0.00620304
0.00624583
0.00628595
0.0063229
0.006356
0.00638455
0.00640791
0.00642548
0.00643696
0.00644299
0.00644574
0.00644846
0.00645395
0.00646304
0.00647432
0.00648627
0.00649697
0.00650422
0.0065055
0.00649789
0.00647783
0.00644089
0.00638155
0.00629357
0.00617002
0.00600355
0.00578691
0.00551363
0.00517894
0.00478067
0.00432038
0.00380463
0.00324681
0.00266995
0.00210956
0.00161188
0.0012205
0.000952223
0.000785475
0.000680295
0.000605291
0.000544247
0.000490824
0.00044347
0.000402536
0.000368846
0.000343079
0.000325384
0.00031485
0.00030865
0.000301458
0.000287847
0.00026859
0.000250689
0.000238595
0.000231979
0.000229193
0.000228985
0.000230622
0.000233708
0.000238039
0.000243515
0.000250094
0.000258119
0.000267706
0.000278929
0.000292002
0.000307317
0.000325476
0.000347308
0.000373766
0.00040536
0.000440262
0.0101121
0.0103438
0.0106188
0.0109104
0.0112194
0.0115487
0.0118996
0.0122716
0.0126644
0.0130786
0.0135166
0.0139814
0.014475
0.0149971
0.0155447
0.0161127
0.0166945
0.0172815
0.0178627
0.0184235
0.0189452
0.0194048
0.0197755
0.0200279
0.020134
0.0200703
0.0198228
0.0193895
0.018783
0.0180302
0.0171717
0.0162575
0.015341
0.014471
0.0136838
0.0129992
0.0124213
0.0119425
0.0115489
0.0112249
0.0109558
0.0107289
0.0105341
0.0103633
0.0102106
0.0100712
0.00994167
0.00981928
0.00970175
0.009587
0.00947335
0.00935818
0.00923794
0.00911731
0.00899853
0.00888481
0.00878091
0.00868725
0.0086034
0.00852873
0.00846289
0.00840559
0.00835687
0.00831722
0.00828743
0.00826849
0.00826135
0.00826673
0.00828509
0.00831653
0.00836081
0.00841735
0.00848525
0.00856329
0.00865002
0.00874378
0.00884277
0.00894507
0.00904867
0.00915148
0.00925131
0.00934583
0.0094325
0.00950852
0.00957074
0.00961559
0.00963899
0.00963632
0.0096024
0.00953146
0.00942085
0.00927288
0.00908742
0.00886338
0.00859971
0.00829627
0.00795479
0.00757987
0.00718003
0.00676839
0.00634728
0.00592821
0.00554289
0.00520631
0.00492615
0.00473607
0.00464441
0.0046337
0.00467277
0.00473175
0.00479075
0.00484037
0.004878
0.00490419
0.00492039
0.00492805
0.00492837
0.00492235
0.0049109
0.00489492
0.00487512
0.00485141
0.00482231
0.00478515
0.00473874
0.00468699
0.00463867
0.00460335
0.00458634
0.00458684
0.00460445
0.00463794
0.00468542
0.00474443
0.00481192
0.00488437
0.00495436
0.00501486
0.0050583
0.00507569
0.00505696
0.0049916
0.00486945
0.00468154
0.00442099
0.0040838
0.00366976
0.00318439
0.00264564
0.00208916
0.00157152
0.00115792
0.000883148
0.000724313
0.000631916
0.000569596
0.000520873
0.000481182
0.000450207
0.000427988
0.000413692
0.000405243
0.00039901
0.000390367
0.000376278
0.000358317
0.00034144
0.000329241
0.000322102
0.000318834
0.000318219
0.000319422
0.000321948
0.000325519
0.000329996
0.000335317
0.000341421
0.000348585
0.000356836
0.000366201
0.000376746
0.000388564
0.000401726
0.000416193
0.000431632
0.000447094
0.000460658
0.0116427
0.0119037
0.0122126
0.0125407
0.0128879
0.0132568
0.0136489
0.0140635
0.0145003
0.0149602
0.0154459
0.0159607
0.0165066
0.0170834
0.017688
0.018315
0.0189574
0.0196061
0.0202494
0.0208716
0.0214527
0.021969
0.0223918
0.0226901
0.022833
0.0227944
0.0225577
0.0221189
0.0214882
0.0206894
0.0197588
0.018743
0.0176949
0.0166675
0.0157058
0.0148402
0.0140841
0.0134358
0.0128834
0.0124104
0.0119988
0.0116323
0.0112966
0.0109801
0.0106736
0.0103698
0.010063
0.00974846
0.0094224
0.00908057
0.00871904
0.00834454
0.00796741
0.0076057
0.00726852
0.00696397
0.00669829
0.00647426
0.00629167
0.00614788
0.00603867
0.00595954
0.00590681
0.0058781
0.00587211
0.0058881
0.00592539
0.0059831
0.00605995
0.00615425
0.00626399
0.00638685
0.00652035
0.00666195
0.00680912
0.00695943
0.00711059
0.00726048
0.00740714
0.00754873
0.00768346
0.00780956
0.00792516
0.00802822
0.0081165
0.00818744
0.00823815
0.00826535
0.00826539
0.00823447
0.00817445
0.0080864
0.00796904
0.00782012
0.00763738
0.00741935
0.00716613
0.00688029
0.00656781
0.00623855
0.00589252
0.00553584
0.00518924
0.00485698
0.00453176
0.00425015
0.00406593
0.00399198
0.00399723
0.00404116
0.0040973
0.00415461
0.00421026
0.00426352
0.00431288
0.00435549
0.00438765
0.00440583
0.00440772
0.00439321
0.00436481
0.00432705
0.00428418
0.00423624
0.00417534
0.0040974
0.00400474
0.00390628
0.0038103
0.00371561
0.00362537
0.00354312
0.00347257
0.00341763
0.00338222
0.00337013
0.00338437
0.00342626
0.00349413
0.00358209
0.00367944
0.00377141
0.00384077
0.00386988
0.00384232
0.00374408
0.00356318
0.00328703
0.00291393
0.00245653
0.00194526
0.00144241
0.00104339
0.000822896
0.000750669
0.000730595
0.000703757
0.000664078
0.000620778
0.000580347
0.000544387
0.000511841
0.000481468
0.000453384
0.000429121
0.000410304
0.000397389
0.000389597
0.000385632
0.000384295
0.000384709
0.000386297
0.000388714
0.00039176
0.000395328
0.000399334
0.000403808
0.000408826
0.00041436
0.000420373
0.00042682
0.000433629
0.000440682
0.00044778
0.000454618
0.000460779
0.000465842
0.0128915
0.0131737
0.0135085
0.0138643
0.0142398
0.0146375
0.0150584
0.015502
0.0159679
0.0164572
0.0169728
0.0175181
0.0180951
0.0187035
0.0193404
0.0200006
0.0206771
0.0213611
0.0220408
0.0227006
0.0233201
0.0238759
0.0243406
0.024683
0.0248719
0.0248798
0.0246884
0.0242913
0.0236951
0.0229172
0.0219857
0.0209379
0.0198195
0.0186819
0.0175749
0.0165393
0.0156011
0.0147695
0.0140404
0.0134003
0.0128317
0.0123159
0.0118357
0.0113758
0.0109235
0.0104686
0.0100027
0.00951904
0.00900949
0.00846182
0.00787318
0.00727096
0.00667139
0.00609299
0.00555237
0.00506646
0.00465217
0.00432396
0.00409004
0.00394871
0.00388788
0.00388944
0.00393581
0.00401373
0.00411438
0.004232
0.0043625
0.00450264
0.00464968
0.0048012
0.00495507
0.00510945
0.00526276
0.00541369
0.00556112
0.00570409
0.0058418
0.00597353
0.00609861
0.00621638
0.0063262
0.00642736
0.00651909
0.00660053
0.00667071
0.00672852
0.00677268
0.00680176
0.00681412
0.00680826
0.00678547
0.00674496
0.00668507
0.0066039
0.00649982
0.00637182
0.00621996
0.0060458
0.0058526
0.00564508
0.00541946
0.00517103
0.00490144
0.00461005
0.004314
0.00406362
0.003914
0.00387448
0.00391467
0.00399784
0.00409983
0.0042087
0.00431816
0.00442287
0.00451655
0.00459197
0.00464168
0.00465922
0.00464074
0.00458689
0.00450443
0.00440693
0.00431337
0.00424099
0.00419235
0.00415492
0.0041123
0.004058
0.00399408
0.00391685
0.00382677
0.00372561
0.00361585
0.00350024
0.0033817
0.00326325
0.00314819
0.00304032
0.00294419
0.00286484
0.00280612
0.00277017
0.00275752
0.00276509
0.0027844
0.00280085
0.00279476
0.00274444
0.00262735
0.00242087
0.00210969
0.00170686
0.00128359
0.000952091
0.000823662
0.000853127
0.000880603
0.000847658
0.000777774
0.000700513
0.000630875
0.000572631
0.000525774
0.000489748
0.000463642
0.000445951
0.000434807
0.000428391
0.000425198
0.000424108
0.000424353
0.000425419
0.000427004
0.000428938
0.000431122
0.000433531
0.00043616
0.000438986
0.000441981
0.000445108
0.000448331
0.000451603
0.000454868
0.000458067
0.00046114
0.000464056
0.000466849
0.0138536
0.0141495
0.0145036
0.0148794
0.0152748
0.0156916
0.0161307
0.0165914
0.0170735
0.0175781
0.0181082
0.018667
0.0192566
0.0198767
0.0205245
0.021195
0.0218818
0.0225767
0.0232687
0.0239429
0.0245778
0.0251519
0.0256406
0.026015
0.0262458
0.0263067
0.0261793
0.0258567
0.0253416
0.0246445
0.0237826
0.0227806
0.0216721
0.0205
0.0193128
0.0181568
0.0170688
0.016071
0.0151715
0.0143661
0.0136434
0.0129878
0.0123835
0.0118163
0.0112748
0.0107512
0.0102404
0.00973506
0.00920246
0.00862879
0.00802751
0.00741223
0.00678948
0.00616148
0.00553089
0.00490793
0.00431542
0.00379413
0.00339491
0.00315405
0.00306769
0.00309428
0.00318414
0.00330159
0.00342732
0.00355261
0.0036741
0.00379087
0.00390293
0.00401041
0.00411342
0.00421211
0.00430661
0.00439707
0.00448361
0.00456632
0.00464528
0.00472051
0.004792
0.00485965
0.00492332
0.0049828
0.00503777
0.00508786
0.00513259
0.0051714
0.00520362
0.00522851
0.00524522
0.00525279
0.00524994
0.00523585
0.00520976
0.00517094
0.00511883
0.0050531
0.00497368
0.00488074
0.00477466
0.00465606
0.00452188
0.00436916
0.00420777
0.00405881
0.0039529
0.00391717
0.00395335
0.0040446
0.00417029
0.0043144
0.00446697
0.00462157
0.00477234
0.00491218
0.00503205
0.00512127
0.00516829
0.00516225
0.00509547
0.00496716
0.00478666
0.00457645
0.00437382
0.0042235
0.0041484
0.00413184
0.00414258
0.00415574
0.00416181
0.00415217
0.00412226
0.0040707
0.0039984
0.0039076
0.00380128
0.00368275
0.00355555
0.00342363
0.00329113
0.00315922
0.0030291
0.00290424
0.00278845
0.00268543
0.00259789
0.0025261
0.00246603
0.00240748
0.00233253
0.00221502
0.00202432
0.00173866
0.00138652
0.00108024
0.000932758
0.00093961
0.000976417
0.000953282
0.000870027
0.000767898
0.00067703
0.000605246
0.000550945
0.000511303
0.000483688
0.000465487
0.000454198
0.000447677
0.000444271
0.000442802
0.000442493
0.00044288
0.00044368
0.000444729
0.000445939
0.000447264
0.000448681
0.000450178
0.000451744
0.000453375
0.000455066
0.000456817
0.000458632
0.000460523
0.000462515
0.000464651
0.000467002
0.0145779
0.0148849
0.0152562
0.0156493
0.0160614
0.016494
0.0169476
0.0174216
0.0179159
0.0184316
0.0189715
0.0195388
0.0201355
0.0207615
0.0214138
0.022088
0.0227777
0.0234755
0.0241712
0.0248506
0.0254899
0.0260691
0.026567
0.0269579
0.0272163
0.0273188
0.0272505
0.0270058
0.0265852
0.0259934
0.0252382
0.0243325
0.0232975
0.0221657
0.0209784
0.0197809
0.0186138
0.0175084
0.0164831
0.0155453
0.0146929
0.0139188
0.0132136
0.0125687
0.0119776
0.0114371
0.0109438
0.0104804
0.0100047
0.00952421
0.0090394
0.00854915
0.0080431
0.0074966
0.00687957
0.00617209
0.0053704
0.00451716
0.0037145
0.00310351
0.00276847
0.00266476
0.00268579
0.00275168
0.00282366
0.00288674
0.00293624
0.00297262
0.00300127
0.00302442
0.0030432
0.00305832
0.00307036
0.00307978
0.00308697
0.00309226
0.00309593
0.0030982
0.00309925
0.00309923
0.00309827
0.00309649
0.00309397
0.00309086
0.00308729
0.00308345
0.00307954
0.00307782
0.00307943
0.00308505
0.00309527
0.00310932
0.00312654
0.00314655
0.00316914
0.00319428
0.00322221
0.00325369
0.00329023
0.00333444
0.00339149
0.00346707
0.0035657
0.00369196
0.00384694
0.00402494
0.00421644
0.00441306
0.00460917
0.00480275
0.00499405
0.00518287
0.00536607
0.00553601
0.00568032
0.00578271
0.00582452
0.00578698
0.00565471
0.00542325
0.00510552
0.00473936
0.00439887
0.00414038
0.00399504
0.00395603
0.00398943
0.00405589
0.00413156
0.00419906
0.00424559
0.00426409
0.0042521
0.00421045
0.0041421
0.00405125
0.00394258
0.00382042
0.00368518
0.00353904
0.00338548
0.0032281
0.00307078
0.00291765
0.00277279
0.00263914
0.00251679
0.00240123
0.00228157
0.00213688
0.00193708
0.00166636
0.0013633
0.00111243
0.000998494
0.00100559
0.00102656
0.000988463
0.00089519
0.0007857
0.000689109
0.000613593
0.000557232
0.000516667
0.000488881
0.000470921
0.000459994
0.000453775
0.000450527
0.00044906
0.00044862
0.000448754
0.000449209
0.000449846
0.000450598
0.000451431
0.000452332
0.000453299
0.000454335
0.000455448
0.000456651
0.000457959
0.00045939
0.000460973
0.00046274
0.000464736
0.00046702
0.0150431
0.0153619
0.015749
0.0161589
0.0165877
0.017036
0.0175042
0.017992
0.0184996
0.0190283
0.0195805
0.0201591
0.0207659
0.0214011
0.0220626
0.0227464
0.0234468
0.0241567
0.0248665
0.0255616
0.026215
0.0268106
0.0273286
0.0277441
0.0280341
0.0281774
0.0281603
0.0279771
0.0276278
0.0271155
0.0264454
0.0256272
0.0246777
0.0236233
0.0224983
0.0213411
0.0201882
0.01907
0.018008
0.0170146
0.016095
0.0152488
0.0144729
0.0137633
0.0131165
0.0125295
0.0119976
0.0115095
0.0110443
0.0105881
0.01014
0.00969306
0.00922987
0.00871756
0.0081047
0.00732014
0.00632337
0.00515462
0.00391199
0.00280544
0.00206277
0.00170339
0.00156189
0.00150362
0.00147376
0.00145575
0.00144495
0.00143905
0.0014343
0.00143081
0.00142919
0.00142998
0.00143361
0.00144041
0.00145064
0.00146449
0.00148207
0.0015035
0.00152882
0.00155809
0.00159133
0.00162854
0.00166974
0.00171495
0.00176418
0.00181746
0.00187487
0.00193614
0.00200014
0.00206631
0.00213455
0.00220498
0.00227789
0.00235378
0.00243335
0.00251758
0.00260777
0.00270558
0.00281308
0.0029328
0.00306951
0.0032281
0.00341268
0.00363199
0.00389459
0.00420094
0.00453557
0.00486749
0.00516593
0.00542014
0.0056422
0.00585141
0.00605786
0.00625586
0.006426
0.00654049
0.00656836
0.00647899
0.00624376
0.00585238
0.00535705
0.00481857
0.00432103
0.00394519
0.00373385
0.00367696
0.00373163
0.00384658
0.00398681
0.00412563
0.00424254
0.00432549
0.00436933
0.00437398
0.00434267
0.0042804
0.00419255
0.00407907
0.00394308
0.00378872
0.00361982
0.00344032
0.00325483
0.00306892
0.00288834
0.00271668
0.00255198
0.00238416
0.00220052
0.00199074
0.00175078
0.001489
0.00123948
0.00105995
0.000989023
0.000992093
0.000991541
0.000942937
0.000852858
0.000752693
0.000665585
0.000597417
0.000546409
0.000509838
0.000485042
0.000469235
0.000459772
0.000454472
0.000451745
0.000450526
0.000450156
0.000450253
0.000450608
0.000451114
0.000451718
0.000452398
0.000453146
0.000453965
0.000454863
0.000455849
0.000456941
0.000458154
0.00045951
0.000461038
0.000462769
0.000464744
0.000467021
0.0150428
0.0153632
0.015755
0.0161707
0.0166045
0.0170557
0.0175246
0.0180113
0.0185167
0.0190424
0.0195902
0.0201621
0.0207594
0.0213832
0.0220331
0.0227073
0.0234021
0.0241115
0.0248276
0.0255363
0.0262128
0.0268453
0.027413
0.0278886
0.0282484
0.0284663
0.0285203
0.0283987
0.0280999
0.0276291
0.0269964
0.0262175
0.0253148
0.0243167
0.023256
0.0221659
0.0210766
0.0200125
0.0189912
0.0180231
0.0171126
0.0162601
0.0154633
0.0147188
0.0140234
0.0133745
0.0127696
0.0122052
0.0116762
0.0111771
0.0107021
0.0102403
0.00977051
0.00925674
0.00864496
0.00786325
0.00682342
0.00555391
0.00413405
0.00277204
0.00179819
0.00134564
0.00120536
0.00117352
0.00117523
0.00119164
0.00121791
0.00125229
0.00129387
0.00134228
0.00139728
0.00145864
0.00152615
0.00159955
0.0016786
0.00176302
0.00185253
0.00194685
0.00204568
0.00214874
0.00225576
0.00236646
0.00248063
0.00259804
0.00271853
0.00284196
0.00296822
0.00309742
0.00322987
0.00336337
0.00349657
0.0036286
0.0037587
0.00388623
0.00401058
0.00413126
0.00424798
0.00436079
0.00447018
0.00457722
0.0046848
0.00478306
0.00486267
0.00492509
0.00498622
0.00508022
0.00525724
0.0055505
0.00592013
0.00626056
0.00651249
0.00671217
0.00691221
0.00711893
0.00729764
0.00739798
0.00737088
0.00717435
0.00677031
0.00616877
0.00542824
0.00464867
0.00396443
0.00349474
0.00329063
0.00331162
0.00347361
0.00369496
0.00392801
0.00413968
0.00430945
0.00442967
0.00450063
0.00452523
0.00450245
0.00442765
0.0042988
0.00412504
0.00391702
0.00368745
0.0034562
0.00323939
0.00304317
0.00286438
0.00269529
0.00252747
0.00235311
0.00216365
0.00195232
0.00172172
0.00148296
0.00125482
0.00106521
0.000944093
0.000898345
0.000894705
0.000884975
0.000841483
0.000768872
0.000690613
0.000622934
0.000569268
0.000528424
0.000498764
0.000478479
0.000465483
0.000457704
0.000453386
0.000451212
0.000450293
0.000450076
0.000450245
0.000450627
0.00045114
0.000451741
0.000452415
0.000453158
0.000453972
0.000454867
0.000455851
0.000456942
0.000458155
0.000459511
0.000461038
0.000462769
0.000464744
0.000467021
0.0144612
0.0147679
0.0151477
0.0155501
0.0159685
0.0164017
0.0168495
0.0173127
0.0177928
0.0182917
0.0188108
0.0193515
0.0199154
0.0205045
0.0211206
0.0217636
0.0224312
0.0231188
0.0238195
0.0245219
0.025206
0.0258598
0.0264633
0.0269952
0.0274312
0.027731
0.0278592
0.0277934
0.0275288
0.0270717
0.0264379
0.0256512
0.0247423
0.0237461
0.0226989
0.0216341
0.0205793
0.0195552
0.0185764
0.0176506
0.0167797
0.0159624
0.0151952
0.0144732
0.0137916
0.013147
0.0125386
0.0119668
0.0114324
0.0109352
0.0104717
0.0100313
0.00959252
0.00911812
0.00855353
0.0078283
0.00685814
0.00563844
0.00423813
0.00283144
0.00176032
0.00124914
0.00111318
0.00111104
0.00115011
0.00120802
0.00127936
0.00136226
0.00145582
0.00155945
0.00167275
0.00179531
0.00192678
0.00206676
0.00221485
0.00237058
0.00253348
0.002703
0.00287859
0.00305964
0.00324554
0.00343566
0.00362932
0.00382589
0.00402466
0.00422494
0.00442598
0.00462697
0.00482993
0.00503578
0.00524275
0.0054492
0.00565386
0.00585585
0.00605459
0.00624992
0.00644203
0.00663136
0.00681828
0.00700261
0.00718789
0.00735908
0.0074897
0.0075552
0.00753749
0.00743484
0.0072942
0.00722342
0.00734631
0.0076338
0.00787042
0.00798246
0.00808513
0.00822545
0.00834395
0.00835454
0.00818748
0.0077966
0.00716163
0.0062951
0.00524809
0.00418507
0.00332351
0.00281485
0.00273255
0.00300941
0.00344915
0.00386923
0.00419779
0.00441804
0.00453809
0.00455946
0.0044743
0.0042933
0.00404436
0.00377661
0.00353519
0.0033405
0.00318727
0.00305721
0.00293543
0.00281454
0.00269025
0.0025578
0.00241184
0.00224801
0.00206432
0.00186109
0.00164222
0.00141779
0.0012028
0.00101522
0.000873665
0.000791161
0.000763874
0.000766625
0.000764825
0.000735355
0.000682918
0.000627112
0.000578915
0.000539985
0.000509617
0.000487003
0.000471131
0.000460714
0.00045437
0.000450838
0.000449112
0.000448473
0.000448453
0.00044878
0.000449304
0.000449953
0.00045069
0.000451501
0.00045238
0.000453328
0.000454351
0.000455456
0.000456656
0.000457962
0.000459392
0.000460974
0.00046274
0.000464735
0.00046702
0.0135012
0.0137934
0.0141547
0.0145367
0.014933
0.0153424
0.0157652
0.0162025
0.0166564
0.0171288
0.0176215
0.0181361
0.018675
0.0192411
0.019837
0.0204632
0.0211179
0.0217966
0.0224921
0.0231938
0.0238859
0.0245548
0.0251795
0.0257341
0.0261937
0.0265315
0.026705
0.0266593
0.0263909
0.0259098
0.0252377
0.024406
0.0234539
0.0224228
0.0213551
0.0202869
0.0192447
0.0182472
0.0173081
0.016432
0.0156172
0.014859
0.0141508
0.0134842