/*--------------------------------*- C++ -*----------------------------------*\
| =========                 |                                                 |
| \\      /  F ield         | OpenFOAM: The Open Source CFD Toolbox           |
|  \\    /   O peration     | Version:  2406                                  |
|   \\  /    A nd           | Website:  www.openfoam.com                      |
|    \\/     M anipulation  |                                                 |
\*---------------------------------------------------------------------------*/
FoamFile
{
    version     2.0;
    format      ascii;
    arch        "LSB;label=32;scalar=64";
    class       volScalarField;
    location    "100";
    object      p;
}
// * * * * * * * * * * * * * * * * * * * * * * * * * * * * * * * * * * * * * //

dimensions      [0 2 -2 0 0 0 0];

internalField   nonuniform List<scalar> 
5619
(
-0.112642
-0.325823
-0.55804
-0.794538
-1.04505
-1.3066
-1.58337
-1.87508
-2.18447
-2.51294
-2.8632
-3.23769
-3.63888
-4.06899
-4.53034
-5.02464
-5.55324
-6.11716
-6.71582
-7.34626
-8.00445
-8.6848
-9.37993
-10.0804
-10.7738
-11.4454
-12.0784
-12.6568
-13.1685
-13.6093
-13.9847
-14.3097
-14.6048
-14.8904
-15.1826
-15.4906
-15.817
-16.1595
-16.5129
-16.8703
-17.2243
-17.5677
-17.8934
-18.1952
-18.4673
-18.7049
-18.9042
-19.0631
-19.1807
-19.258
-19.2977
-19.3043
-19.2826
-19.2384
-19.1781
-19.1061
-19.0265
-18.9433
-18.8598
-18.7773
-18.6953
-18.6128
-18.5288
-18.4419
-18.3495
-18.2485
-18.1341
-18.0029
-17.8523
-17.6794
-17.4808
-17.2551
-17.0021
-16.7215
-16.4156
-16.0878
-15.7405
-15.3766
-15
-14.6156
-14.2296
-13.8491
-13.4821
-13.1375
-12.8241
-12.5508
-12.3261
-12.1573
-12.0505
-12.0097
-12.0369
-12.1316
-12.2907
-12.5085
-12.778
-13.0918
-13.4436
-13.8273
-14.2467
-14.7012
-15.0999
-15.3679
-15.5036
-15.4706
-15.239
-14.7916
-14.1383
-13.3187
-12.3952
-11.4367
-10.5009
-9.62322
-8.81586
-8.07384
-7.38403
-6.73311
-6.1126
-5.52082
-4.96229
-4.44615
-3.98448
-3.59158
-3.28489
-3.08606
-3.0187
-3.11208
-3.41012
-3.88039
-4.39141
-4.88776
-5.38322
-5.8731
-6.3579
-6.8369
-7.30931
-7.77391
-8.22904
-8.67246
-9.10134
-9.51226
-9.90126
-10.2642
-10.5972
-10.8971
-11.1629
-11.3959
-11.6
-11.7806
-11.9428
-12.0904
-12.2252
-12.3475
-12.4567
-12.5519
-12.6326
-12.699
-12.7522
-12.7943
-12.8274
-12.8542
-12.8768
-12.8969
-12.9155
-12.933
-12.9492
-12.9641
-12.9772
-12.9885
-12.9977
-13.0051
-13.0108
-13.0149
-13.0178
-13.0196
-13.0205
-13.0208
-13.0207
-13.0201
-13.0194
-13.0184
-13.0173
-13.016
-13.0144
-13.0126
-13.0106
-13.0085
-12.9979
-0.112052
-0.324726
-0.556783
-0.793034
-1.04325
-1.30443
-1.58079
-1.87206
-2.18094
-2.50883
-2.85841
-3.23209
-3.63236
-4.06142
-4.5216
-5.01457
-5.54168
-6.10392
-6.70072
-7.32911
-7.9851
-8.66314
-9.35598
-10.0543
-10.7461
-11.4166
-12.0494
-12.6287
-13.142
-13.5846
-13.9618
-14.288
-14.5833
-14.8682
-15.1589
-15.4648
-15.7888
-16.1287
-16.4795
-16.8342
-17.1856
-17.5264
-17.8497
-18.1492
-18.419
-18.6544
-18.8519
-19.009
-19.1251
-19.2011
-19.2397
-19.2454
-19.223
-19.1781
-19.1173
-19.045
-18.965
-18.8816
-18.798
-18.7156
-18.634
-18.5524
-18.4703
-18.3862
-18.2982
-18.2034
-18.0974
-17.9771
-17.8401
-17.6841
-17.5053
-17.3024
-17.071
-16.8106
-16.527
-16.2219
-15.8967
-15.5537
-15.1958
-14.8269
-14.4523
-14.078
-13.7114
-13.3607
-13.0347
-12.7427
-12.4936
-12.2961
-12.1579
-12.0849
-12.0811
-12.148
-12.2839
-12.484
-12.7411
-13.0457
-13.3912
-13.7731
-14.1927
-14.6537
-15.0757
-15.3819
-15.5615
-15.5747
-15.3879
-14.9812
-14.3614
-13.5659
-12.6564
-11.7026
-10.7646
-9.88124
-9.0683
-8.32387
-7.63698
-6.9957
-6.39243
-5.82599
-5.30126
-4.82743
-4.41603
-4.07967
-3.83214
-3.68931
-3.66824
-3.79085
-4.10152
-4.59875
-5.13491
-5.6292
-6.10416
-6.56056
-7.00136
-7.42811
-7.84209
-8.24423
-8.63507
-9.01456
-9.38204
-9.73598
-10.074
-10.3931
-10.6898
-10.9611
-11.2053
-11.4228
-11.6166
-11.7908
-11.9494
-12.095
-12.2287
-12.3503
-12.4592
-12.5541
-12.6346
-12.7009
-12.754
-12.7959
-12.8289
-12.8555
-12.878
-12.8979
-12.9163
-12.9336
-12.9497
-12.9645
-12.9775
-12.9887
-12.9979
-13.0053
-13.0109
-13.015
-13.0178
-13.0196
-13.0206
-13.0209
-13.0207
-13.0201
-13.0194
-13.0184
-13.0173
-13.016
-13.0145
-13.0128
-13.011
-13.0099
-13.0054
-0.110733
-0.322369
-0.554104
-0.789865
-1.03948
-1.29995
-1.57553
-1.86594
-2.17387
-2.50066
-2.84896
-3.22115
-3.61973
-4.0469
-4.50499
-4.99567
-5.52026
-6.07975
-6.67359
-7.29886
-7.95163
-8.62651
-9.31643
-10.0124
-10.7027
-11.373
-12.0074
-12.5897
-13.1073
-13.5546
-13.9359
-14.2647
-14.5606
-14.8443
-15.1323
-15.4345
-15.7544
-16.0901
-16.4366
-16.7872
-17.1347
-17.4718
-17.7915
-18.0874
-18.354
-18.5863
-18.7809
-18.9353
-19.049
-19.1228
-19.1595
-19.1635
-19.1396
-19.0935
-19.0319
-18.9591
-18.879
-18.7961
-18.7138
-18.6336
-18.5551
-18.4774
-18.4003
-18.3225
-18.2426
-18.1578
-18.0641
-17.9596
-17.8442
-17.716
-17.5657
-17.3859
-17.1827
-16.9603
-16.7167
-16.4525
-16.1692
-15.8681
-15.551
-15.2202
-14.8791
-14.5318
-14.1836
-13.8408
-13.5107
-13.2018
-12.9232
-12.6845
-12.4952
-12.3644
-12.2997
-12.3067
-12.387
-12.5322
-12.7294
-12.9794
-13.2832
-13.6305
-14.0137
-14.4347
-14.8438
-15.1842
-15.4245
-15.5016
-15.3716
-15.0155
-14.4407
-13.6843
-12.8077
-11.8805
-10.9627
-10.094
-9.29199
-8.55718
-7.88107
-7.25396
-6.67015
-6.13012
-5.64026
-5.21095
-4.85431
-4.58215
-4.40514
-4.33328
-4.37608
-4.54572
-4.87675
-5.3865
-5.9396
-6.43785
-6.9027
-7.33854
-7.74879
-8.13591
-8.50215
-8.84961
-9.18032
-9.49604
-9.79805
-10.0869
-10.3624
-10.6233
-10.8679
-11.0941
-11.3008
-11.4888
-11.6604
-11.8191
-11.9679
-12.1078
-12.2384
-12.3585
-12.4664
-12.5607
-12.6406
-12.7063
-12.7589
-12.8003
-12.8329
-12.8591
-12.8812
-12.9007
-12.9186
-12.9353
-12.9509
-12.9652
-12.9779
-12.9889
-12.998
-13.0053
-13.0109
-13.015
-13.0178
-13.0196
-13.0205
-13.0208
-13.0206
-13.0201
-13.0193
-13.0184
-13.0172
-13.0159
-13.0144
-13.0125
-13.0104
-13.0084
-13.0033
-0.109043
-0.319715
-0.551096
-0.786324
-1.03528
-1.29499
-1.56971
-1.8592
-2.16611
-2.49174
-2.83868
-3.2093
-3.60609
-4.03128
-4.48718
-4.97549
-5.49749
-6.0542
-6.64511
-7.26737
-7.91713
-8.58919
-9.27671
-9.97106
-10.6609
-11.3325
-11.97
-12.5575
-13.0817
-13.536
-13.9233
-14.2561
-14.5535
-14.8364
-15.122
-15.4209
-15.7372
-16.0694
-16.4128
-16.7607
-17.1059
-17.4411
-17.7592
-18.054
-18.3197
-18.5516
-18.7459
-18.9004
-19.0143
-19.0885
-19.1255
-19.1302
-19.1073
-19.0626
-19.0036
-18.934
-18.8571
-18.7778
-18.6997
-18.6244
-18.5508
-18.4793
-18.4104
-18.3439
-18.2806
-18.2176
-18.1454
-18.059
-17.9559
-17.8327
-17.6939
-17.5411
-17.3698
-17.1785
-16.9676
-16.7377
-16.4894
-16.2233
-15.9402
-15.6414
-15.329
-15.0058
-14.6755
-14.3433
-14.0151
-13.6983
-13.4014
-13.1337
-12.9054
-12.7268
-12.609
-12.5604
-12.5654
-12.6133
-12.7216
-12.8954
-13.1271
-13.4074
-13.7218
-14.069
-14.4326
-14.7717
-15.0577
-15.2115
-15.1424
-14.8306
-14.2963
-13.5822
-12.7522
-11.8751
-11.0069
-10.1834
-9.41946
-8.71497
-8.06268
-7.45527
-6.89005
-6.37085
-5.90745
-5.51342
-5.20312
-4.98874
-4.87839
-4.87577
-4.98107
-5.19401
-5.52806
-5.99264
-6.49457
-6.95972
-7.3972
-7.80987
-8.19877
-8.56491
-8.90944
-9.2337
-9.53925
-9.82766
-10.1003
-10.3583
-10.6018
-10.8305
-11.0433
-11.239
-11.4171
-11.5784
-11.7259
-11.8642
-11.9975
-12.1274
-12.2526
-12.3701
-12.4764
-12.5693
-12.6478
-12.7122
-12.7637
-12.8043
-12.8364
-12.8624
-12.8844
-12.9038
-12.9214
-12.9377
-12.9528
-12.9666
-12.9788
-12.9894
-12.9983
-13.0054
-13.0109
-13.015
-13.0178
-13.0196
-13.0205
-13.0208
-13.0206
-13.0201
-13.0193
-13.0184
-13.0172
-13.016
-13.0145
-13.0127
-13.0109
-13.0089
-13.0039
-0.107034
-0.317132
-0.548139
-0.782849
-1.03117
-1.29013
-1.56403
-1.85263
-2.15857
-2.48308
-2.82872
-3.19783
-3.59291
-4.01621
-4.47006
-4.95616
-5.4758
-6.03003
-6.61846
-7.2383
-7.88589
-8.55626
-9.24287
-9.93751
-10.6293
-11.3049
-11.9487
-12.5444
-13.0779
-13.5413
-13.9358
-14.273
-14.5716
-14.853
-15.1355
-15.4306
-15.7432
-16.0723
-16.4133
-16.7595
-17.1036
-17.4383
-17.7565
-18.0517
-18.3181
-18.5509
-18.7462
-18.9018
-19.0165
-19.0914
-19.1288
-19.1341
-19.1112
-19.0654
-19.0057
-18.935
-18.8579
-18.7818
-18.7131
-18.6537
-18.5968
-18.539
-18.4828
-18.4261
-18.364
-18.2952
-18.2242
-18.1503
-18.068
-17.974
-17.866
-17.7419
-17.6006
-17.4419
-17.2658
-17.0719
-16.8602
-16.6307
-16.3837
-16.1201
-15.841
-15.5487
-15.2461
-14.937
-14.6263
-14.3202
-14.0257
-13.7507
-13.5044
-13.2972
-13.1359
-13.0004
-12.8936
-12.8458
-12.8607
-12.9352
-13.0675
-13.2498
-13.4631
-13.7004
-13.9786
-14.2727
-14.521
-14.6773
-14.6497
-14.3707
-13.8777
-13.2255
-12.4765
-11.6922
-10.9185
-10.1811
-9.48845
-8.83816
-8.22404
-7.64194
-7.09328
-6.5862
-6.13479
-5.75667
-5.46959
-5.28771
-5.21837
-5.26046
-5.40459
-5.6366
-5.94748
-6.33083
-6.74126
-7.14427
-7.53874
-7.92364
-8.29696
-8.65702
-9.00246
-9.33223
-9.6456
-9.94213
-10.2216
-10.4837
-10.7282
-10.9546
-11.1621
-11.3502
-11.5186
-11.6685
-11.8026
-11.9257
-12.0434
-12.1598
-12.2757
-12.3876
-12.4904
-12.5805
-12.6561
-12.7178
-12.7672
-12.8064
-12.8377
-12.8635
-12.8855
-12.9049
-12.9227
-12.939
-12.954
-12.9677
-12.9797
-12.99
-12.9986
-13.0056
-13.011
-13.015
-13.0178
-13.0196
-13.0205
-13.0208
-13.0206
-13.0201
-13.0193
-13.0183
-13.0172
-13.0159
-13.0144
-13.0126
-13.0107
-13.0087
-13.0042
-0.104686
-0.314816
-0.545407
-0.779642
-1.02738
-1.28566
-1.55883
-1.84663
-2.15168
-2.47518
-2.81962
-3.18735
-3.58088
-4.00249
-4.45452
-4.93868
-5.45629
-6.00849
-6.59505
-7.2133
-7.85979
-8.52988
-9.21742
-9.91469
-10.6113
-11.2942
-11.9476
-12.5548
-13.1004
-13.5747
-13.9775
-14.3191
-14.6184
-14.8976
-15.1763
-15.4674
-15.7765
-16.1032
-16.4429
-16.789
-17.134
-17.4703
-17.7909
-18.0891
-18.3588
-18.5949
-18.7935
-18.9519
-19.0685
-19.1439
-19.1793
-19.1814
-19.1549
-19.109
-19.0595
-19.0025
-18.9319
-18.8572
-18.7811
-18.7053
-18.6387
-18.5837
-18.5348
-18.4893
-18.4443
-18.3969
-18.3447
-18.2846
-18.2145
-18.1326
-18.038
-17.9298
-17.807
-17.6691
-17.5153
-17.3456
-17.1595
-16.9574
-16.7395
-16.5066
-16.26
-16.0013
-15.7328
-15.4574
-15.1782
-14.8994
-14.6251
-14.3602
-14.1105
-13.8818
-13.664
-13.466
-13.3119
-13.2041
-13.1437
-13.133
-13.171
-13.2515
-13.3568
-13.4751
-13.6376
-13.8342
-13.9837
-14.0474
-13.9801
-13.7216
-13.2866
-12.7331
-12.1119
-11.4662
-10.8251
-10.2016
-9.59784
-9.01021
-8.43504
-7.87223
-7.32748
-6.81274
-6.34529
-5.94547
-5.63344
-5.42568
-5.33173
-5.35229
-5.47829
-5.69151
-5.97263
-6.30568
-6.66576
-7.03603
-7.41049
-7.78533
-8.15666
-8.52123
-8.8764
-9.22005
-9.55056
-9.86663
-10.167
-10.4506
-10.7159
-10.9618
-11.1871
-11.3906
-11.5721
-11.7321
-11.8724
-11.9964
-12.109
-12.2154
-12.319
-12.4196
-12.5132
-12.5958
-12.6653
-12.7224
-12.7685
-12.8058
-12.8363
-12.8621
-12.8845
-12.9045
-12.9228
-12.9395
-12.9548
-12.9685
-12.9805
-12.9906
-12.9991
-13.0059
-13.0112
-13.0152
-13.0179
-13.0196
-13.0205
-13.0208
-13.0206
-13.0201
-13.0193
-13.0184
-13.0172
-13.0159
-13.0144
-13.0126
-13.0107
-13.0087
-13.0045
-0.102048
-0.312977
-0.543091
-0.77693
-1.02417
-1.28191
-1.55449
-1.84165
-2.14596
-2.46861
-2.81205
-3.17864
-3.5709
-3.99113
-4.44169
-4.92432
-5.4404
-5.99118
-6.57667
-7.19434
-7.84098
-8.51236
-9.20278
-9.90505
-10.6092
-11.3023
-11.9684
-12.5896
-13.1493
-13.636
-14.0479
-14.3948
-14.6955
-14.9731
-15.2486
-15.5362
-15.8427
-16.1679
-16.5077
-16.8552
-17.203
-17.5432
-17.8684
-18.1716
-18.4466
-18.6876
-18.89
-19.0507
-19.1674
-19.2415
-19.2771
-19.288
-19.268
-19.2085
-19.1211
-19.027
-18.9425
-18.8666
-18.7989
-18.7399
-18.6888
-18.6437
-18.6021
-18.5614
-18.5193
-18.4736
-18.4228
-18.3653
-18.2996
-18.2244
-18.1387
-18.0417
-17.9328
-17.8115
-17.6777
-17.5311
-17.3718
-17.1999
-17.0158
-16.8201
-16.6134
-16.3967
-16.1711
-15.9381
-15.6991
-15.4558
-15.2099
-14.9634
-14.7177
-14.4723
-14.2372
-14.0256
-13.8402
-13.6827
-13.5559
-13.4614
-13.3989
-13.3651
-13.3491
-13.3396
-13.3635
-13.4211
-13.4473
-13.3804
-13.2278
-12.9923
-12.6494
-12.2298
-11.766
-11.2793
-10.7818
-10.2774
-9.76524
-9.24359
-8.71258
-8.17647
-7.64476
-7.13255
-6.65971
-6.24897
-5.92284
-5.69966
-5.5897
-5.59295
-5.69777
-5.87878
-6.11203
-6.38767
-6.69433
-7.02128
-7.36177
-7.71094
-8.0635
-8.41469
-8.7622
-9.10572
-9.44365
-9.77281
-10.0898
-10.3916
-10.6755
-10.9397
-11.1827
-11.4035
-11.6014
-11.7765
-11.9296
-12.0627
-12.1789
-12.2819
-12.3753
-12.4614
-12.5401
-12.6102
-12.6707
-12.7219
-12.7648
-12.8009
-12.8316
-12.8582
-12.8818
-12.9031
-12.9224
-12.94
-12.9557
-12.9696
-12.9815
-12.9915
-12.9998
-13.0064
-13.0116
-13.0154
-13.018
-13.0197
-13.0206
-13.0209
-13.0207
-13.0201
-13.0193
-13.0184
-13.0172
-13.0159
-13.0144
-13.0126
-13.0107
-13.0086
-13.0048
-0.0992836
-0.311768
-0.541326
-0.774887
-1.02176
-1.27913
-1.55129
-1.838
-2.14178
-2.4638
-2.80651
-3.17227
-3.56362
-3.98286
-4.43236
-4.91396
-5.42907
-5.97912
-6.5644
-7.18252
-7.8305
-8.50456
-9.19941
-9.90837
-10.6218
-11.3266
-12.0064
-12.6424
-13.2165
-13.7162
-14.1386
-14.4928
-14.7978
-15.077
-15.3522
-15.6388
-15.9441
-16.2689
-16.6095
-16.9592
-17.3104
-17.6552
-17.986
-18.2953
-18.5764
-18.823
-19.0301
-19.1951
-19.3169
-19.3981
-19.4232
-19.3819
-19.3099
-19.2304
-19.1432
-19.0532
-18.9659
-18.8842
-18.8106
-18.7464
-18.6911
-18.643
-18.5992
-18.5569
-18.5139
-18.4681
-18.4183
-18.3632
-18.3017
-18.2331
-18.1566
-18.0717
-17.9777
-17.8741
-17.7606
-17.6368
-17.5024
-17.3573
-17.2017
-17.0356
-16.8594
-16.6735
-16.4787
-16.2757
-16.0654
-15.8488
-15.627
-15.401
-15.1718
-14.942
-14.7166
-14.4985
-14.2887
-14.0887
-13.9
-13.7235
-13.5599
-13.4087
-13.2662
-13.1267
-13.0075
-12.9163
-12.8238
-12.6951
-12.5163
-12.3016
-12.056
-11.7767
-11.4705
-11.1404
-10.7871
-10.4105
-10.0095
-9.58409
-9.13617
-8.67112
-8.19852
-7.73261
-7.29209
-6.89891
-6.57604
-6.3441
-6.21782
-6.20358
-6.27797
-6.41704
-6.62518
-6.89182
-7.18834
-7.49866
-7.81811
-8.14162
-8.46446
-8.7832
-9.09568
-9.40086
-9.69842
-9.9883
-10.2703
-10.5438
-10.8071
-11.0574
-11.2912
-11.5044
-11.6939
-11.8624
-12.0137
-12.1476
-12.2632
-12.3602
-12.4407
-12.5093
-12.5707
-12.6261
-12.6756
-12.7202
-12.7607
-12.7966
-12.8281
-12.856
-12.881
-12.9036
-12.9238
-12.9419
-12.9579
-12.9717
-12.9834
-12.9932
-13.0011
-13.0075
-13.0123
-13.0159
-13.0184
-13.0199
-13.0207
-13.0209
-13.0207
-13.0202
-13.0194
-13.0184
-13.0172
-13.0159
-13.0144
-13.0126
-13.0107
-13.0085
-13.0052
-0.0966867
-0.311228
-0.540158
-0.773583
-1.02025
-1.27741
-1.54935
-1.8358
-2.13926
-2.46089
-2.80315
-3.16842
-3.55921
-3.97784
-4.42672
-4.90775
-5.42244
-5.97239
-6.55824
-7.1777
-7.82792
-8.50553
-9.20553
-9.92156
-10.6441
-11.3599
-12.0517
-12.7002
-13.2868
-13.7987
-14.2327
-14.5978
-14.9123
-15.1993
-15.4798
-15.7694
-16.0761
-16.4013
-16.742
-17.0923
-17.445
-17.7922
-18.1261
-18.4391
-18.7238
-18.9732
-19.1816
-19.3466
-19.4549
-19.4874
-19.4679
-19.4204
-19.347
-19.256
-19.1543
-19.0496
-18.9482
-18.855
-18.773
-18.7038
-18.6466
-18.5991
-18.5575
-18.5188
-18.4803
-18.4403
-18.3971
-18.3496
-18.2966
-18.2374
-18.1709
-18.0965
-18.0135
-17.9212
-17.8193
-17.7073
-17.5852
-17.4527
-17.31
-17.1573
-16.9948
-16.823
-16.6422
-16.4532
-16.2566
-16.0531
-15.8435
-15.6287
-15.4097
-15.187
-14.9611
-14.7331
-14.5037
-14.274
-14.0447
-13.8165
-13.59
-13.3659
-13.1436
-12.9205
-12.7068
-12.5124
-12.3329
-12.1612
-11.988
-11.8139
-11.6439
-11.4721
-11.2902
-11.0917
-10.8717
-10.6272
-10.3564
-10.0584
-9.73462
-9.38857
-9.02693
-8.65981
-8.30095
-7.96725
-7.67786
-7.4516
-7.30596
-7.24946
-7.25593
-7.33417
-7.5056
-7.74577
-8.02375
-8.32112
-8.63342
-8.95341
-9.27387
-9.58886
-9.89357
-10.1843
-10.4583
-10.7141
-10.9513
-11.1704
-11.3701
-11.5505
-11.7141
-11.8629
-11.9976
-12.1184
-12.2252
-12.3174
-12.3949
-12.4578
-12.5113
-12.559
-12.6003
-12.6391
-12.6807
-12.7245
-12.7655
-12.8012
-12.8327
-12.8608
-12.8862
-12.909
-12.9293
-12.9472
-12.9627
-12.976
-12.9871
-12.9962
-13.0035
-13.0093
-13.0136
-13.0168
-13.019
-13.0203
-13.021
-13.0211
-13.0208
-13.0202
-13.0194
-13.0184
-13.0172
-13.0159
-13.0143
-13.0126
-13.0107
-13.0085
-13.0055
-0.0946099
-0.311267
-0.53955
-0.772981
-1.01958
-1.27669
-1.54855
-1.8349
-2.13822
-2.45971
-2.8018
-3.16684
-3.55737
-3.9757
-4.42431
-4.90521
-5.41998
-5.97036
-6.55743
-7.17893
-7.83202
-8.51353
-9.21852
-9.94073
-10.6705
-11.3938
-12.093
-12.7489
-13.3436
-13.865
-14.3109
-14.69
-15.0198
-15.3212
-15.6137
-15.9114
-16.2222
-16.548
-16.8868
-17.2335
-17.5815
-17.9235
-18.2514
-18.5573
-18.8329
-19.0698
-19.26
-19.3944
-19.4645
-19.4796
-19.4537
-19.393
-19.3058
-19.201
-19.0868
-18.9703
-18.8577
-18.7547
-18.6656
-18.5926
-18.5355
-18.4912
-18.4552
-18.4236
-18.3935
-18.363
-18.3306
-18.2952
-18.2553
-18.2099
-18.158
-18.0987
-18.0314
-17.9553
-17.8699
-17.7747
-17.6692
-17.5533
-17.4266
-17.2892
-17.141
-16.9823
-16.8133
-16.6343
-16.4458
-16.2484
-16.0427
-15.8295
-15.6096
-15.3832
-15.1506
-14.913
-14.6718
-14.4275
-14.181
-13.9329
-13.684
-13.4353
-13.1871
-12.9382
-12.6942
-12.464
-12.2504
-12.0579
-11.8899
-11.7468
-11.6209
-11.5029
-11.3858
-11.2645
-11.1351
-10.9946
-10.8402
-10.6703
-10.4842
-10.2827
-10.0683
-9.8453
-9.61987
-9.39991
-9.19767
-9.02528
-8.9013
-8.81474
-8.78651
-8.85509
-9.00987
-9.23519
-9.50049
-9.78211
-10.0757
-10.3728
-10.6649
-10.9448
-11.2066
-11.4462
-11.6602
-11.8471
-12.0054
-12.1349
-12.2396
-12.3243
-12.3909
-12.4424
-12.4824
-12.5146
-12.5421
-12.5671
-12.5906
-12.6119
-12.629
-12.6458
-12.668
-12.6956
-12.7278
-12.7629
-12.7972
-12.8285
-12.8564
-12.8815
-12.9042
-12.9245
-12.9427
-12.9586
-12.9722
-12.9838
-12.9934
-13.0011
-13.0073
-13.0121
-13.0157
-13.0182
-13.0199
-13.0209
-13.0213
-13.0213
-13.0209
-13.0203
-13.0194
-13.0184
-13.0172
-13.0159
-13.0143
-13.0126
-13.0107
-13.0084
-13.0058
-0.093297
-0.311661
-0.539389
-0.772938
-1.01957
-1.27673
-1.5486
-1.83495
-2.13828
-2.4598
-2.80191
-3.16692
-3.55737
-3.97562
-4.42427
-4.90543
-5.42074
-5.97204
-6.56101
-7.18542
-7.84201
-8.52778
-9.23763
-9.96493
-10.6992
-11.4256
-12.1263
-12.7829
-13.3792
-13.9055
-14.3611
-14.7549
-15.1026
-15.4226
-15.7315
-16.0415
-16.3593
-16.687
-17.0231
-17.3633
-17.7018
-18.0313
-18.344
-18.6314
-18.8846
-19.0949
-19.2536
-19.3535
-19.4008
-19.4032
-19.364
-19.2921
-19.1964
-19.0857
-18.97
-18.853
-18.7377
-18.6314
-18.5416
-18.4744
-18.4323
-18.411
-18.4012
-18.3948
-18.3873
-18.3764
-18.3604
-18.3391
-18.3124
-18.2792
-18.2387
-18.1896
-18.131
-18.0621
-17.982
-17.8901
-17.7859
-17.6692
-17.5397
-17.3975
-17.2428
-17.0758
-16.8972
-16.7074
-16.5072
-16.2974
-16.0795
-15.8547
-15.6239
-15.3879
-15.1475
-14.903
-14.6552
-14.4051
-14.1541
-13.9033
-13.6544
-13.4092
-13.169
-12.9323
-12.7008
-12.4816
-12.279
-12.0999
-11.9485
-11.8216
-11.7132
-11.6203
-11.54
-11.4696
-11.4068
-11.3498
-11.2973
-11.2493
-11.2066
-11.1709
-11.1436
-11.1253
-11.1149
-11.1074
-11.1127
-11.1106
-11.1168
-11.1699
-11.2757
-11.4367
-11.6511
-11.9127
-12.1958
-12.4753
-12.7468
-13.0017
-13.2309
-13.4274
-13.5863
-13.7047
-13.7811
-13.8163
-13.8171
-13.7878
-13.7316
-13.6521
-13.5548
-13.4463
-13.3336
-13.2241
-13.1238
-13.0369
-12.9671
-12.9115
-12.8703
-12.8438
-12.8287
-12.8247
-12.8325
-12.8487
-12.8684
-12.8879
-12.906
-12.9229
-12.9385
-12.9529
-12.9659
-12.9775
-12.9875
-12.9959
-13.0028
-13.0084
-13.0127
-13.0161
-13.0185
-13.0202
-13.0212
-13.0218
-13.0219
-13.0216
-13.0211
-13.0204
-13.0195
-13.0184
-13.0172
-13.0159
-13.0143
-13.0126
-13.0107
-13.0084
-13.006
-0.0927285
-0.312034
-0.539434
-0.773131
-1.01984
-1.27704
-1.54892
-1.83527
-2.13865
-2.46025
-2.80241
-3.16738
-3.55771
-3.97589
-4.42465
-4.90625
-5.42235
-5.97497
-6.56678
-7.19496
-7.85556
-8.54627
-9.26154
-9.99371
-10.7312
-11.4585
-12.1571
-12.809
-13.4008
-13.9259
-14.3864
-14.7913
-15.1549
-15.4926
-15.818
-16.1409
-16.4668
-16.7975
-17.1317
-17.4657
-17.794
-18.1099
-18.4059
-18.6736
-18.9051
-19.093
-19.2317
-19.3177
-19.3521
-19.3416
-19.2933
-19.214
-19.1107
-18.9906
-18.8601
-18.7252
-18.5985
-18.4815
-18.3756
-18.2962
-18.2539
-18.2453
-18.2564
-18.2744
-18.2935
-18.3113
-18.3264
-18.3367
-18.3405
-18.3373
-18.3262
-18.3065
-18.2773
-18.2376
-18.1866
-18.1234
-18.0472
-17.9574
-17.8534
-17.7349
-17.6016
-17.4533
-17.2903
-17.1125
-16.9206
-16.715
-16.4954
-16.2628
-16.0184
-15.7635
-15.4994
-15.2276
-14.9498
-14.6681
-14.3847
-14.1018
-13.8221
-13.5489
-13.2852
-13.0272
-12.7697
-12.517
-12.2749
-12.0532
-11.8602
-11.7016
-11.5796
-11.4917
-11.4328
-11.3986
-11.3861
-11.3942
-11.4258
-11.4879
-11.5902
-11.7442
-11.9599
-12.2438
-12.5955
-12.9885
-13.4265
-13.919
-14.4311
-14.9366
-15.4193
-15.8686
-16.2821
-16.659
-16.9983
-17.2886
-17.5228
-17.6919
-17.7883
-17.8067
-17.7443
-17.5868
-17.3535
-17.077
-16.7571
-16.3972
-16.0076
-15.6067
-15.2134
-14.8422
-14.5033
-14.203
-13.9451
-13.7321
-13.5562
-13.4076
-13.2864
-13.1905
-13.1166
-13.0634
-13.0289
-13.0083
-12.9967
-12.9905
-12.9883
-12.989
-12.9918
-12.9958
-13.0002
-13.0047
-13.0088
-13.0125
-13.0155
-13.0179
-13.0198
-13.0211
-13.022
-13.0226
-13.0229
-13.0228
-13.0226
-13.0221
-13.0214
-13.0205
-13.0195
-13.0184
-13.0172
-13.0159
-13.0143
-13.0126
-13.0107
-13.0084
-13.0061
-0.0927154
-0.312023
-0.539416
-0.773195
-1.01993
-1.2771
-1.54889
-1.83516
-2.13849
-2.46008
-2.80217
-3.16694
-3.55699
-3.97494
-4.42372
-4.90569
-5.42257
-5.97664
-6.57057
-7.20095
-7.86487
-8.56057
-9.28144
-10.0192
-10.7614
-11.4909
-12.1876
-12.833
-13.4159
-13.9341
-14.3923
-14.8011
-15.1736
-15.5228
-15.8597
-16.1923
-16.525
-16.8592
-17.1938
-17.5256
-17.85
-18.1608
-18.4509
-18.7128
-18.9388
-19.1223
-19.2584
-19.3448
-19.3826
-19.3755
-19.3289
-19.2491
-19.1434
-19.0192
-18.8828
-18.7397
-18.6011
-18.4749
-18.3601
-18.2688
-18.2195
-18.2131
-18.234
-18.2648
-18.2982
-18.3323
-18.3666
-18.4003
-18.4322
-18.4612
-18.4861
-18.5056
-18.5182
-18.5225
-18.5168
-18.4996
-18.4692
-18.4241
-18.3628
-18.2839
-18.1858
-18.0676
-17.928
-17.7662
-17.5816
-17.3737
-17.1426
-16.8874
-16.6082
-16.3063
-15.9833
-15.6415
-15.2834
-14.9125
-14.5327
-14.1484
-13.7648
-13.388
-13.0243
-12.6696
-12.3128
-11.959
-11.6194
-11.3101
-11.0457
-10.8365
-10.6899
-10.6071
-10.5791
-10.5906
-10.632
-10.7037
-10.8149
-10.9857
-11.2477
-11.64
-12.2041
-12.9788
-13.9804
-15.1895
-16.5792
-18.1306
-19.7323
-21.2311
-22.4864
-23.436
-24.1057
-24.5331
-24.7821
-24.8828
-24.8261
-24.6129
-24.2435
-23.7056
-23.0465
-22.3752
-21.7025
-20.9985
-20.2817
-19.5671
-18.8496
-18.1279
-17.4209
-16.7496
-16.1286
-15.5694
-15.0809
-14.6685
-14.3266
-14.0459
-13.8174
-13.6328
-13.4857
-13.3711
-13.2839
-13.2185
-13.1692
-13.1317
-13.103
-13.0814
-13.0654
-13.0538
-13.0456
-13.0397
-13.0357
-13.0328
-13.0306
-13.029
-13.0278
-13.0268
-13.026
-13.0253
-13.0247
-13.024
-13.0233
-13.0225
-13.0216
-13.0207
-13.0196
-13.0185
-13.0172
-13.0159
-13.0143
-13.0126
-13.0107
-13.0084
-13.0061
-0.0931629
-0.311531
-0.539229
-0.772987
-1.0197
-1.27675
-1.54837
-1.83445
-2.13763
-2.45906
-2.80092
-3.16531
-3.5549
-3.97243
-4.42103
-4.90311
-5.42042
-5.97514
-6.56935
-7.20055
-7.86725
-8.56714
-9.29344
-10.0382
-10.7868
-11.5193
-12.2151
-12.8547
-13.4279
-13.935
-14.3846
-14.7885
-15.1597
-15.5103
-15.85
-16.1854
-16.5206
-16.8571
-17.1943
-17.5296
-17.8591
-18.1776
-18.4786
-18.7544
-18.9973
-19.2006
-19.3584
-19.4672
-19.526
-19.5367
-19.5031
-19.4313
-19.3282
-19.2013
-19.058
-18.905
-18.752
-18.6107
-18.4835
-18.3799
-18.3193
-18.3065
-18.3278
-18.3656
-18.4113
-18.4636
-18.5216
-18.5849
-18.6528
-18.7245
-18.7991
-18.8751
-18.951
-19.0248
-19.0945
-19.1576
-19.2113
-19.2529
-19.279
-19.2865
-19.2717
-19.2312
-19.161
-19.0576
-18.9172
-18.7363
-18.5118
-18.2401
-17.9189
-17.5488
-17.1312
-16.6669
-16.1591
-15.6125
-15.034
-14.4326
-13.8193
-13.2072
-12.6105
-12.0291
-11.4586
-10.9201
-10.4309
-10.0113
-9.67213
-9.40277
-9.20083
-9.064
-8.99579
-8.99271
-9.03397
-9.0955
-9.20424
-9.41155
-9.76172
-10.3271
-11.2004
-12.4812
-14.2513
-16.5397
-19.253
-22.2037
-25.1166
-27.6282
-29.454
-30.5857
-31.2118
-31.4649
-31.449
-31.2228
-30.766
-30.0832
-29.2597
-28.4318
-27.5938
-26.6577
-25.6286
-24.5377
-23.4047
-22.2558
-21.1229
-20.0345
-19.0156
-18.085
-17.2535
-16.5256
-15.9
-15.3715
-14.9303
-14.5649
-14.2639
-14.0172
-13.8164
-13.6547
-13.5258
-13.4233
-13.3414
-13.2753
-13.2218
-13.1785
-13.1436
-13.1159
-13.0941
-13.0772
-13.064
-13.054
-13.0463
-13.0404
-13.0359
-13.0325
-13.03
-13.028
-13.0265
-13.0252
-13.0241
-13.023
-13.0219
-13.0208
-13.0197
-13.0185
-13.0173
-13.0159
-13.0143
-13.0126
-13.0107
-13.0084
-13.006
-0.0942019
-0.310907
-0.539109
-0.772802
-1.01948
-1.27641
-1.54787
-1.83377
-2.13676
-2.45802
-2.79963
-3.16368
-3.55285
-3.96999
-4.41838
-4.90048
-5.41811
-5.97344
-6.56803
-7.19985
-7.86768
-8.56902
-9.29759
-10.0453
-10.7989
-11.5398
-12.2374
-12.8699
-13.4323
-13.9264
-14.3632
-14.756
-15.1185
-15.4627
-15.7978
-16.1303
-16.4643
-16.8017
-17.1423
-17.4838
-17.8232
-18.1562
-18.4773
-18.779
-19.0532
-19.2925
-19.4896
-19.6396
-19.7393
-19.7878
-19.7866
-19.7396
-19.6528
-19.5335
-19.3898
-19.2304
-19.0668
-18.9092
-18.7634
-18.6412
-18.5603
-18.5271
-18.5313
-18.5574
-18.5975
-18.6507
-18.7168
-18.7959
-18.888
-18.9931
-19.1107
-19.2403
-19.3811
-19.5318
-19.6908
-19.8562
-20.0252
-20.1948
-20.3613
-20.52
-20.6657
-20.7923
-20.8929
-20.9596
-20.9837
-20.9558
-20.8659
-20.7041
-20.4578
-20.112
-19.6608
-19.1031
-18.4352
-17.6614
-16.7937
-15.8524
-14.8646
-13.8634
-12.8832
-11.9379
-11.0598
-10.3113
-9.70505
-9.22979
-8.79835
-8.42828
-8.14052
-7.90753
-7.73263
-7.61455
-7.53533
-7.51909
-7.53198
-7.5737
-7.78264
-8.28366
-9.17895
-10.6284
-12.7827
-15.7073
-19.2991
-23.1945
-26.8489
-29.7145
-31.5624
-32.5327
-32.8328
-32.6301
-32.1223
-31.4638
-30.7118
-29.9546
-29.1821
-28.2851
-27.2667
-26.175
-25.0412
-23.8968
-22.7669
-21.6717
-20.6278
-19.6491
-18.7466
-17.9281
-17.1977
-16.5554
-15.9978
-15.5188
-15.1105
-14.7641
-14.471
-14.2238
-14.0162
-13.8427
-13.6983
-13.5781
-13.4776
-13.3929
-13.3215
-13.2616
-13.2116
-13.1706
-13.1372
-13.1105
-13.0894
-13.073
-13.0602
-13.0505
-13.0431
-13.0376
-13.0335
-13.0305
-13.0281
-13.0263
-13.0248
-13.0234
-13.0222
-13.021
-13.0198
-13.0186
-13.0173
-13.0159
-13.0143
-13.0126
-13.0107
-13.0084
-13.0058
-0.0959288
-0.310645
-0.539407
-0.773068
-1.01976
-1.27666
-1.54809
-1.83394
-2.13691
-2.45814
-2.79973
-3.16374
-3.55288
-3.97003
-4.41856
-4.90096
-5.41904
-5.97495
-6.56982
-7.20193
-7.87014
-8.57163
-9.30027
-10.048
-10.8014
-11.5419
-12.2438
-12.8747
-13.4244
-13.9046
-14.3264
-14.7048
-15.0545
-15.3878
-15.7145
-16.0409
-16.3705
-16.7061
-17.0488
-17.3968
-17.7473
-18.0967
-18.4393
-18.7649
-19.0657
-19.3377
-19.5738
-19.7662
-19.9095
-20.0008
-20.0396
-20.0275
-19.9688
-19.8696
-19.7371
-19.5795
-19.4057
-19.227
-19.0554
-18.906
-18.7951
-18.7304
-18.7055
-18.7087
-18.7337
-18.7798
-18.8477
-18.9381
-19.0523
-19.1912
-19.3562
-19.5484
-19.7688
-20.0185
-20.2983
-20.6088
-20.9506
-21.3235
-21.7269
-22.1591
-22.6171
-23.0964
-23.5898
-24.0875
-24.5759
-25.0375
-25.4501
-25.7878
-26.0237
-26.1312
-26.0664
-25.7716
-25.233
-24.4393
-23.3899
-22.104
-20.6235
-19.0113
-17.3461
-15.6859
-14.1579
-12.8953
-11.8935
-10.9885
-10.152
-9.51136
-9.00346
-8.58566
-8.23405
-7.88239
-7.49708
-7.29398
-7.30844
-7.40928
-7.52744
-7.74267
-8.38139
-9.52943
-11.357
-13.9629
-17.2417
-20.7928
-23.9753
-26.2059
-27.38
-27.8846
-28.0334
-27.8657
-27.4593
-26.9365
-26.374
-25.7474
-25.0427
-24.3022
-23.5394
-22.7644
-21.9861
-21.2133
-20.4548
-19.7192
-19.0144
-18.348
-17.7263
-17.154
-16.6337
-16.1662
-15.7501
-15.3825
-15.0593
-14.7758
-14.5271
-14.309
-14.1182
-13.952
-13.8077
-13.6824
-13.5734
-13.4785
-13.396
-13.3249
-13.2642
-13.2133
-13.1712
-13.137
-13.1096
-13.0881
-13.0713
-13.0585
-13.0489
-13.0417
-13.0363
-13.0324
-13.0295
-13.0272
-13.0254
-13.0238
-13.0224
-13.0211
-13.0199
-13.0186
-13.0173
-13.0159
-13.0144
-13.0126
-13.0107
-13.0084
-13.0055
-0.0981922
-0.311031
-0.540309
-0.774022
-1.02084
-1.27784
-1.54941
-1.83542
-2.13857
-2.46004
-2.80193
-3.16629
-3.55586
-3.97351
-4.42267
-4.90576
-5.42461
-5.98127
-6.57652
-7.20878
-7.87674
-8.57719
-9.30386
-10.0484
-10.7973
-11.5319
-12.2285
-12.8572
-13.3997
-13.8652
-14.2723
-14.6365
-14.9733
-15.296
-15.6143
-15.9345
-16.2634
-16.6018
-16.9457
-17.2938
-17.6447
-17.9959
-18.344
-18.6863
-19.0148
-19.3136
-19.5729
-19.7952
-19.9774
-20.1115
-20.1936
-20.2221
-20.1982
-20.1248
-20.0078
-19.855
-19.6758
-19.4811
-19.2837
-19.0994
-18.9457
-18.8346
-18.7658
-18.7321
-18.7287
-18.7544
-18.8095
-18.8951
-19.0131
-19.166
-19.3567
-19.5889
-19.8668
-20.1951
-20.5792
-21.0244
-21.5357
-22.119
-22.7803
-23.5252
-24.3591
-25.287
-26.3125
-27.4378
-28.6628
-29.9839
-31.3932
-32.8752
-34.3983
-35.9022
-37.3273
-38.6571
-39.5508
-39.7135
-39.1471
-37.8441
-35.8403
-33.2182
-30.1031
-26.5811
-23.1829
-20.2558
-17.8173
-15.6398
-13.965
-12.8115
-12.0253
-11.4767
-11.0113
-10.5021
-10.0017
-9.66375
-9.7458
-10.2243
-10.9427
-11.6968
-12.2676
-13.0744
-14.1588
-15.6026
-17.3843
-19.2701
-20.8624
-21.8155
-22.0555
-21.842
-21.6465
-21.6284
-21.5331
-21.3216
-21.0575
-20.7706
-20.4622
-20.1366
-19.795
-19.4383
-19.0677
-18.6858
-18.2962
-17.9036
-17.5128
-17.1291
-16.7577
-16.4029
-16.0683
-15.7562
-15.4676
-15.2023
-14.9587
-14.7351
-14.5298
-14.3415
-14.1699
-14.0144
-13.8745
-13.749
-13.6366
-13.5363
-13.4473
-13.3691
-13.3013
-13.2436
-13.1954
-13.1558
-13.124
-13.0988
-13.0792
-13.0643
-13.053
-13.0446
-13.0384
-13.0339
-13.0305
-13.0279
-13.0258
-13.0241
-13.0226
-13.0212
-13.02
-13.0187
-13.0174
-13.016
-13.0144
-13.0126
-13.0107
-13.0085
-13.0052
-0.100678
-0.312131
-0.541847
-0.775713
-1.02275
-1.28
-1.55188
-1.83825
-2.14183
-2.4638
-2.80629
-3.17137
-3.56181
-3.98045
-4.43073
-4.91501
-5.43508
-5.99291
-6.58896
-7.22169
-7.88949
-8.58872
-9.31271
-10.0527
-10.7947
-11.52
-12.2053
-12.8256
-13.3604
-13.8142
-14.2087
-14.5615
-14.8888
-15.2041
-15.5173
-15.8379
-16.1688
-16.5061
-16.848
-17.1938
-17.5416
-17.8885
-18.2313
-18.5665
-18.8897
-19.1973
-19.4831
-19.73
-19.9284
-20.0865
-20.2034
-20.2708
-20.2851
-20.2441
-20.149
-20.0042
-19.8184
-19.6048
-19.3795
-19.1603
-18.9649
-18.8073
-18.6926
-18.6188
-18.5823
-18.5805
-18.6125
-18.6791
-18.7821
-18.9247
-19.1115
-19.3482
-19.6412
-19.9978
-20.4265
-20.9375
-21.5463
-22.2703
-23.1252
-24.1286
-25.2991
-26.6552
-28.2136