/*--------------------------------*- C++ -*----------------------------------*\
| =========                 |                                                 |
| \\      /  F ield         | OpenFOAM: The Open Source CFD Toolbox           |
|  \\    /   O peration     | Version:  2406                                  |
|   \\  /    A nd           | Website:  www.openfoam.com                      |
|    \\/     M anipulation  |                                                 |
\*---------------------------------------------------------------------------*/
FoamFile
{
    version     2.0;
    format      ascii;
    arch        "LSB;label=32;scalar=64";
    class       surfaceScalarField;
    location    "100";
    object      phi;
}
// * * * * * * * * * * * * * * * * * * * * * * * * * * * * * * * * * * * * * //

dimensions      [0 3 -1 0 0 0 0];

oriented        oriented;

internalField   nonuniform List<scalar> 
10988
(
-0.00013341
1.12753e-06
-0.000135606
2.19635e-06
-0.000137955
2.34832e-06
-0.000140515
2.56005e-06
-0.000143324
2.80952e-06
-0.000146393
3.06839e-06
-0.000149713
3.32024e-06
-0.000153269
3.55552e-06
-0.000157056
3.7864e-06
-0.000161084
4.02812e-06
-0.000165374
4.29018e-06
-0.000169942
4.56813e-06
-0.000174792
4.85048e-06
-0.00017992
5.12749e-06
-0.000185317
5.39769e-06
-0.000190982
5.6643e-06
-0.000196914
5.93195e-06
-0.000203117
6.20364e-06
-0.000209594
6.47685e-06
-0.000216339
6.74459e-06
-0.000223337
6.99819e-06
-0.000230562
7.22434e-06
-0.000237963
7.402e-06
-0.000245465
7.50178e-06
-0.000252953
7.4874e-06
-0.000260279
7.32588e-06
-0.000267281
7.00234e-06
-0.000273817
6.5357e-06
-0.000279803
5.98615e-06
-0.000285251
5.44787e-06
-0.000290277
5.02549e-06
-0.000295079
4.80295e-06
-0.000299897
4.81759e-06
-0.000304949
5.05193e-06
-0.000310395
5.44625e-06
-0.000316319
5.92401e-06
-0.000322734
6.41569e-06
-0.000329606
6.87153e-06
-0.000336869
7.26303e-06
-0.000344447
7.57816e-06
-0.000352263
7.81521e-06
-0.00036024
7.97757e-06
-0.00036831
8.07034e-06
-0.000376409
8.09866e-06
-0.000384476
8.06728e-06
-0.000392457
7.9809e-06
-0.000400302
7.84474e-06
-0.000407967
7.66493e-06
-0.000415415
7.44853e-06
-0.000422619
7.20395e-06
-0.000429559
6.94005e-06
-0.000436226
6.66679e-06
-0.000442617
6.39119e-06
-0.000448737
6.12031e-06
-0.000454597
5.8608e-06
-0.00046021
5.61237e-06
-0.000465584
5.37423e-06
-0.000470732
5.14842e-06
-0.000475666
4.93417e-06
-0.000480391
4.72533e-06
-0.000484903
4.5121e-06
-0.000489191
4.28793e-06
-0.00049324
4.04924e-06
-0.000497031
3.79109e-06
-0.000500538
3.50719e-06
-0.000503727
3.18877e-06
-0.000506554
2.82678e-06
-0.000508973
2.41915e-06
-0.000510943
1.96967e-06
-0.000512424
1.48156e-06
-0.000513381
9.56701e-07
-0.000513787
4.06401e-07
-0.000513635
-1.52057e-07
-0.000512951
-6.84181e-07
-0.000511783
-1.1682e-06
-0.00051017
-1.6127e-06
-0.000508147
-2.02207e-06
-0.000505753
-2.39354e-06
-0.000503032
-2.72083e-06
-0.000500036
-2.99559e-06
-0.000496827
-3.20873e-06
-0.000493475
-3.35159e-06
-0.000490058
-3.41695e-06
-0.000486657
-3.4001e-06
-0.000483357
-3.29982e-06
-0.000480238
-3.11911e-06
-0.000477372
-2.86551e-06
-0.000474821
-2.55095e-06
-0.00047263
-2.19133e-06
-0.000470825
-1.80577e-06
-0.000469409
-1.41569e-06
-0.000468365
-1.04384e-06
-0.000467652
-7.13124e-07
-0.000467207
-4.4493e-07
-0.000466951
-2.55849e-07
-0.000466797
-1.53855e-07
-0.000466659
-1.38186e-07
-0.000466452
-2.0736e-07
-0.00046609
-3.6194e-07
-0.0004655
-5.89509e-07
-0.000464538
-9.6245e-07
-0.000463071
-1.4668e-06
-0.000460919
-2.1516e-06
-0.000457869
-3.04992e-06
-0.000453704
-4.16456e-06
-0.000448276
-5.42812e-06
-0.000441576
-6.70082e-06
-0.000433769
-7.80651e-06
-0.000425179
-8.59025e-06
-0.000416206
-8.97208e-06
-0.000407233
-8.97324e-06
-0.000398531
-8.70204e-06
-0.000390221
-8.31006e-06
-0.00038228
-7.94233e-06
-0.000374576
-7.70427e-06
-0.000366926
-7.65103e-06
-0.000359132
-7.79434e-06
-0.000351015
-8.11687e-06
-0.000342429
-8.58547e-06
-0.000333269
-9.1597e-06
-0.000323474
-9.79422e-06
-0.000313038
-1.04365e-05
-0.000302015
-1.10229e-05
-0.000290539
-1.14756e-05
-0.000278833
-1.17069e-05
-0.000267193
-1.16401e-05
-0.00025597
-1.12224e-05
-0.000245518
-1.04526e-05
-0.000234994
-1.05246e-05
-0.000224448
-1.05455e-05
-0.000213941
-1.05081e-05
-0.000203543
-1.03981e-05
-0.000193329
-1.02143e-05
-0.000183375
-9.95535e-06
-0.000173754
-9.62155e-06
-0.00016454
-9.21416e-06
-0.000155803
-8.73676e-06
-0.000147606
-8.19624e-06
-0.000140001
-7.60359e-06
-0.000133027
-6.97419e-06
-0.000126699
-6.32772e-06
-0.000121012
-5.68738e-06
-0.000115934
-5.07796e-06
-0.000111412
-4.52281e-06
-0.000107373
-4.03938e-06
-0.000103739
-3.63407e-06
-0.000100441
-3.29954e-06
-9.74238e-05
-3.01766e-06
-9.46561e-05
-2.76829e-06
-9.21171e-05
-2.53954e-06
-8.9783e-05
-2.33427e-06
-8.76132e-05
-2.16982e-06
-8.55422e-05
-2.07134e-06
-8.34808e-05
-2.06239e-06
-8.13257e-05
-2.15672e-06
-7.89733e-05
-2.35432e-06
-7.63339e-05
-2.64126e-06
-7.33442e-05
-2.99121e-06
-6.99774e-05
-3.36816e-06
-6.62487e-05
-3.73008e-06
-6.22162e-05
-4.03355e-06
-5.79769e-05
-4.23944e-06
-5.36584e-05
-4.31828e-06
-4.94054e-05
-4.25344e-06
-4.53634e-05
-4.04334e-06
-4.16614e-05
-3.7034e-06
-3.83963e-05
-3.26564e-06
-3.56236e-05
-2.77299e-06
-3.33561e-05
-2.26847e-06
-3.15706e-05
-1.78659e-06
-3.02185e-05
-1.35191e-06
-2.92376e-05
-9.79668e-07
-2.85622e-05
-6.74643e-07
-2.81311e-05
-4.31368e-07
-2.7893e-05
-2.38529e-07
-2.78096e-05
-8.34247e-08
-2.78558e-05
4.613e-08
-2.80087e-05
1.52432e-07
-2.82533e-05
2.44106e-07
-2.85983e-05
3.45168e-07
-2.90752e-05
4.77322e-07
-2.97361e-05
6.6131e-07
-3.06531e-05
9.16937e-07
-3.19161e-05
1.26262e-06
-3.36138e-05
1.69785e-06
-3.58575e-05
2.24395e-06
4.14239e-06
-0.000182766
2.57553e-06
-0.000185586
5.01618e-06
-0.000188569
5.33125e-06
-0.000191833
5.82403e-06
-0.000195422
6.39861e-06
-0.000199358
7.00364e-06
-0.000203626
7.58831e-06
-0.000208203
8.13292e-06
-0.000213079
8.66181e-06
-0.000218264
9.21373e-06
-0.000223786
9.81262e-06
-0.000229667
1.04489e-05
-0.000235911
1.10949e-05
-0.00024251
1.17268e-05
-0.000249451
1.23388e-05
-0.000256725
1.29386e-05
-0.00026433
1.35365e-05
-0.000272265
1.41395e-05
-0.000280531
1.47426e-05
-0.000289118
1.5332e-05
-0.00029801
1.58903e-05
-0.000307176
1.63902e-05
-0.000316562
1.67883e-05
-0.000326081
1.70205e-05
-0.000335598
1.70043e-05
-0.00034493
1.6658e-05
-0.000353863
1.59357e-05
-0.000362194
1.48664e-05
-0.000369784
1.35765e-05
-0.000376615
1.22786e-05
-0.000382808
1.12194e-05
-0.00038861
1.0605e-05
-0.000394329
1.05368e-05
-0.000400263
1.0986e-05
-0.000406637
1.18204e-05
-0.000413576
1.28627e-05
-0.000421108
1.39479e-05
-0.000429193
1.49556e-05
-0.000437745
1.58151e-05
-0.000446662
1.64954e-05
-0.000455838
1.69906e-05
-0.000465168
1.7308e-05
-0.000474557
1.74596e-05
-0.000483916
1.74578e-05
-0.000493163
1.73141e-05
-0.000502221
1.70398e-05
-0.000511024
1.66473e-05
-0.00051951
1.61509e-05
-0.000527629
1.55671e-05
-0.00053534
1.49155e-05
-0.000542617
1.42172e-05
-0.000549446
1.34956e-05
-0.000555822
1.27678e-05
-0.000561753
1.20512e-05
-0.000567254
1.13625e-05
-0.000572344
1.07024e-05
-0.000577039
1.00695e-05
-0.00058136
9.4703e-06
-0.000585332
8.90573e-06
-0.000588971
8.36446e-06
-0.000592284
7.82598e-06
-0.000595273
7.27693e-06
-0.000597936
6.71164e-06
-0.000600267
6.12263e-06
-0.000602261
5.50089e-06
-0.000603904
4.83163e-06
-0.000605175
4.09766e-06
-0.000606052
3.29566e-06
-0.000606517
2.43494e-06
-0.00060656
1.52479e-06
-0.000606173
5.70524e-07
-0.000605362
-4.0498e-07
-0.000604172
-1.34171e-06
-0.000602653
-2.20274e-06
-0.000600826
-2.99467e-06
-0.000598713
-3.72613e-06
-0.000596336
-4.39935e-06
-0.00059372
-5.01003e-06
-0.000590892
-5.54848e-06
-0.000587887
-6.00129e-06
-0.000584743
-6.35277e-06
-0.000581509
-6.58641e-06
-0.000578239
-6.68654e-06
-0.000574999
-6.64005e-06
-0.000571861
-6.43838e-06
-0.000568901
-6.07937e-06
-0.000566198
-5.56902e-06
-0.000563826
-4.92265e-06
-0.000561853
-4.16538e-06
-0.000560327
-3.33183e-06
-0.000559277
-2.46521e-06
-0.000558706
-1.61566e-06
-0.000558582
-8.3743e-07
-0.000558843
-1.83608e-07
-0.000559409
3.10671e-07
-0.000560198
6.34895e-07
-0.000561111
7.75531e-07
-0.000562024
7.05012e-07
-0.000562783
3.9766e-07
-0.000563222
-1.50396e-07
-0.000563171
-1.01357e-06
-0.000562365
-2.27317e-06
-0.000560513
-4.00324e-06
-0.000557305
-6.25781e-06
-0.00055245
-9.01923e-06
-0.000545758
-1.21204e-05
-0.000537224
-1.52339e-05
-0.000527078
-1.79523e-05
-0.000515752
-1.99171e-05
-0.000503785
-2.09386e-05
-0.000491705
-2.10538e-05
-0.000479912
-2.04951e-05
-0.000468629
-1.9593e-05
-0.000457905
-1.8665e-05
-0.000447668
-1.79411e-05
-0.000437779
-1.75394e-05
-0.00042809
-1.74831e-05
-0.000418473
-1.77342e-05
-0.000408831
-1.82279e-05
-0.000399096
-1.88942e-05
-0.000389223
-1.96668e-05
-0.000379181
-2.04783e-05
-0.000368955
-2.12494e-05
-0.000358552
-2.18778e-05
-0.00034802
-2.22386e-05
-0.000337455
-2.22055e-05
-0.000326999
-2.16782e-05
-0.000316843
-2.06089e-05
-0.000306143
-2.12251e-05
-0.000295038
-2.16512e-05
-0.000283639
-2.19078e-05
-0.000272045
-2.1992e-05
-0.000260354
-2.1906e-05
-0.000248661
-2.16481e-05
-0.000237067
-2.12154e-05
-0.000225675
-2.0606e-05
-0.000214591
-1.98218e-05
-0.000203916
-1.88711e-05
-0.00019375
-1.77709e-05
-0.000184176
-1.65479e-05
-0.000175267
-1.52374e-05
-0.000167073
-1.3881e-05
-0.000159629
-1.25218e-05
-0.000152952
-1.11996e-05
-0.000147042
-9.94833e-06
-0.000141879
-8.79681e-06
-0.000137409
-7.76948e-06
-0.000133546
-6.88103e-06
-0.000130185
-6.1296e-06
-0.000127221
-5.50325e-06
-0.000124555
-5.00027e-06
-0.000122083
-4.64311e-06
-0.000119682
-4.47229e-06
-0.000117218
-4.52672e-06
-0.000114549
-4.82528e-06
-0.000111545
-5.35719e-06
-0.000108104
-6.08167e-06
-0.000104164
-6.93214e-06
-9.97123e-05
-7.82159e-06
-9.47904e-05
-8.65291e-06
-8.94934e-05
-9.33081e-06
-8.39602e-05
-9.77306e-06
-7.83596e-05
-9.92024e-06
-7.28725e-05
-9.74259e-06
-6.76728e-05
-9.24491e-06
-6.29095e-05
-8.46783e-06
-5.86926e-05
-7.48364e-06
-5.50817e-05
-6.38513e-06
-5.20869e-05
-5.26419e-06
-4.96812e-05
-4.19204e-06
-4.78163e-05
-3.21577e-06
-4.64328e-05
-2.36229e-06
-4.5467e-05
-1.64041e-06
-4.48554e-05
-1.04333e-06
-4.45402e-05
-5.5425e-07
-4.44723e-05
-1.51808e-07
-4.46097e-05
1.82912e-07
-4.49125e-05
4.54895e-07
-4.53511e-05
6.82707e-07
-4.59111e-05
9.05748e-07
-4.65878e-05
1.15446e-06
-4.73788e-05
1.45228e-06
-4.82777e-05
1.8159e-06
-4.92697e-05
2.2545e-06
-5.03163e-05
2.74442e-06
-5.13564e-05
3.28475e-06
5.21938e-06
-0.000236184
4.36467e-06
-0.00023965
8.48248e-06
-0.000243295
8.97664e-06
-0.000247293
9.82165e-06
-0.000251695
1.08008e-05
-0.000256531
1.18387e-05
-0.000261779
1.28363e-05
-0.000267408
1.37618e-05
-0.0002734
1.46541e-05
-0.00027977
1.55839e-05
-0.000286551
1.65935e-05
-0.000293769
1.7667e-05
-0.000301428
1.87547e-05
-0.000309516
1.98145e-05
-0.000318012
2.08357e-05
-0.000326905
2.18316e-05
-0.000336189
2.28204e-05
-0.000345863
2.38135e-05
-0.000355924
2.48036e-05
-0.000366362
2.57696e-05
-0.000377156
2.66845e-05
-0.000388272
2.75058e-05
-0.000399648
2.81645e-05
-0.000411182
2.85546e-05
-0.000422712
2.85345e-05
-0.000434011
2.79569e-05
-0.000444804
2.67284e-05
-0.000454818
2.48805e-05
-0.000463858
2.26161e-05
-0.000471875
2.02959e-05
-0.000479006
1.83512e-05
-0.000485554
1.71529e-05
-0.00049191
1.68932e-05
-0.000498461
1.75363e-05
-0.0005055
1.88602e-05
-0.000513196
2.05585e-05
-0.000521591
2.23425e-05
-0.000530634
2.39988e-05
-0.000540219
2.53999e-05
-0.000550212
2.64882e-05
-0.000560473
2.72512e-05
-0.000570865
2.77002e-05
-0.00058126
2.78553e-05
-0.00059154
2.77379e-05
-0.000601594
2.73681e-05
-0.00061132
2.6766e-05
-0.000620626
2.59534e-05
-0.000629431
2.49556e-05
-0.000637666
2.3802e-05
-0.000645279
2.2528e-05
-0.000652233
2.11716e-05
-0.000658513
1.9776e-05
-0.000664117
1.83721e-05
-0.000669059
1.69926e-05
-0.000673367
1.56706e-05
-0.000677072
1.44075e-05
-0.000680203
1.32012e-05
-0.000682798
1.20649e-05
-0.000684896
1.10042e-05
-0.000686535
1.00031e-05
-0.000687737
9.02828e-06
-0.000688518
8.05782e-06
-0.000688889
7.08266e-06
-0.000688857
6.09034e-06
-0.000688426
5.0699e-06
-0.000687599
4.00519e-06
-0.00068638
2.87891e-06
-0.000684773
1.68889e-06
-0.000682779
4.40298e-07
-0.00068041
-8.43569e-07
-0.000677741
-2.09826e-06
-0.00067487
-3.2754e-06
-0.000671845
-4.36646e-06
-0.000668679
-5.3686e-06
-0.000665389
-6.28378e-06
-0.000661999
-7.11614e-06
-0.000658533
-7.86442e-06
-0.000655021
-8.52193e-06
-0.000651492
-9.0771e-06
-0.000647979
-9.51446e-06
-0.000644516
-9.8157e-06
-0.000641141
-9.96102e-06
-0.000637897
-9.93082e-06
-0.00063483
-9.70751e-06
-0.000631991
-9.27784e-06
-0.000629436
-8.63521e-06
-0.000627223
-7.78221e-06
-0.000625413
-6.73278e-06
-0.000624065
-5.51414e-06
-0.000623228
-4.16811e-06
-0.000622942
-2.75184e-06
-0.00062322
-1.33719e-06
-0.00062405
-7.76019e-09
-0.000625408
1.17407e-06
-0.00062727
2.17252e-06
-0.000629571
2.93594e-06
-0.000632188
3.39244e-06
-0.000634945
3.46192e-06
-0.000637612
3.06486e-06
-0.000639909
2.14643e-06
-0.000641677
7.54646e-07
-0.000642382
-1.56847e-06
-0.00064149
-4.895e-06
-0.000638546
-9.2016e-06
-0.000633185
-1.43802e-05
-0.000625218
-2.00875e-05
-0.000614723
-2.57292e-05
-0.000602071
-3.06039e-05
-0.000587866
-3.41225e-05
-0.00057281
-3.59952e-05
-0.000557553
-3.63113e-05
-0.000542576
-3.54729e-05
-0.000528142
-3.40269e-05
-0.000514323
-3.24848e-05
-0.000501059
-3.12046e-05
-0.000488242
-3.03569e-05
-0.000475768
-2.99566e-05
-0.000463579
-2.99232e-05
-0.000451666
-3.01409e-05
-0.000440059
-3.05006e-05
-0.000428806
-3.09196e-05
-0.000417944
-3.13391e-05
-0.000407487
-3.1707e-05
-0.000397409
-3.19555e-05
-0.00038766
-3.19878e-05
-0.00037818
-3.16851e-05
-0.00036893
-3.09289e-05
-0.000359922
-2.96162e-05
-0.000350316
-3.08318e-05
-0.000340185
-3.17822e-05
-0.000329609
-3.24836e-05
-0.000318659
-3.29423e-05
-0.000307405
-3.31605e-05
-0.000295921
-3.3132e-05
-0.000284291
-3.28455e-05
-0.000272608
-3.22887e-05
-0.000260976
-3.14538e-05
-0.000249506
-3.03417e-05
-0.00023831
-2.89662e-05
-0.000227501
-2.73567e-05
-0.000217181
-2.55571e-05
-0.00020744
-2.36221e-05
-0.000198353
-2.16092e-05
-0.000189985
-1.9569e-05
-0.000182394
-1.75395e-05
-0.000175641
-1.55497e-05
-0.000169774
-1.36371e-05
-0.000164795
-1.18612e-05
-0.00016063
-1.0295e-05
-0.000157135
-9.00032e-06
-0.000154116
-8.02025e-06
-0.000151364
-7.39535e-06
-0.000148665
-7.17247e-06
-0.000145803
-7.38878e-06
-0.000142583
-8.04652e-06
-0.000138843
-9.09898e-06
-0.000134475
-1.0452e-05
-0.000129436
-1.19727e-05
-0.000123758
-1.34998e-05
-0.00011755
-1.48614e-05
-0.000110985
-1.58954e-05
-0.000104288
-1.64706e-05
-9.77073e-05
-1.65018e-05
-9.14887e-05
-1.59623e-05
-8.58439e-05
-1.48906e-05
-8.09227e-05
-1.33897e-05
-7.67915e-05
-1.16159e-05
-7.34295e-05
-9.7487e-06
-7.0754e-05
-7.94073e-06
-6.86617e-05
-6.2841e-06
-6.70592e-05
-4.81713e-06
-6.58743e-05
-3.54628e-06
-6.50529e-05
-2.46178e-06
-6.45501e-05
-1.54666e-06
-6.43225e-05
-7.82311e-07
-6.43244e-05
-1.50383e-07
-6.45053e-05
3.63174e-07
-6.48172e-05
7.66381e-07
-6.52195e-05
1.08485e-06
-6.56744e-05
1.36133e-06
-6.61507e-05
1.63137e-06
-6.66226e-05
1.92412e-06
-6.70684e-05
2.26184e-06
-6.74718e-05
2.65766e-06
-6.78125e-05
3.08518e-06
-6.80681e-05
3.54105e-06
5.38123e-06
-0.000295073
6.4695e-06
-0.000299123
1.2532e-05
-0.000303365
1.32194e-05
-0.000308033
1.44893e-05
-0.000313183
1.59506e-05
-0.000318845
1.7501e-05
-0.00032499
1.89812e-05
-0.000331576
2.03472e-05
-0.00033858
2.1658e-05
-0.00034602
2.30242e-05
-0.000353936
2.45095e-05
-0.000362357
2.60876e-05
-0.000371282
2.76808e-05
-0.000380694
2.92258e-05
-0.000390567
3.07088e-05
-0.000400887
3.21519e-05
-0.00041165
3.35839e-05
-0.000422859
3.50219e-05
-0.000434511
3.64555e-05
-0.000446597
3.78554e-05
-0.000459096
3.9184e-05
-0.000471972
4.03815e-05
-0.000485155
4.1348e-05
-0.000498526
4.19252e-05
-0.000511886
4.1895e-05
-0.000524953
4.10234e-05
-0.000537376
3.91513e-05
-0.000548803
3.63075e-05
-0.000558975
3.27885e-05
-0.000567822
2.91423e-05
-0.000575506
2.6036e-05
-0.000582404
2.40511e-05
-0.000589005
2.34945e-05
-0.000595787
2.43184e-05
-0.000603112
2.61846e-05
-0.000611177
2.86234e-05
-0.000620026
3.11917e-05
-0.000629589
3.3562e-05
-0.000639727
3.55375e-05
-0.000650267
3.70281e-05
-0.000661028
3.80127e-05
-0.000671834
3.85067e-05
-0.000682519
3.85395e-05
-0.000692924
3.81431e-05
-0.000702903
3.73478e-05
-0.000712322
3.61844e-05
-0.000721056
3.46872e-05
-0.000728998
3.28971e-05
-0.000736058
3.08614e-05
-0.000742168
2.86381e-05
-0.000747286
2.62899e-05
-0.0007514
2.38899e-05
-0.000754516
2.14884e-05
-0.000756665
1.91408e-05
-0.000757904
1.69097e-05
-0.000758293
1.47961e-05
-0.000757885
1.27935e-05
-0.000756742
1.09214e-05
-0.000754925
9.18784e-06
-0.000752495
7.57308e-06
-0.000749504
6.03748e-06
-0.000746001
4.55503e-06
-0.000742021
3.10262e-06
-0.000737576
1.64487e-06
-0.000732654
1.49046e-07
-0.000727276
-1.37281e-06
-0.00072153
-2.8671e-06
-0.00071553
-4.31111e-06
-0.000709385
-5.70376e-06
-0.000703199
-7.02994e-06
-0.000697025
-8.27155e-06
-0.000690891
-9.40949e-06
-0.000684826
-1.04315e-05
-0.00067886
-1.13355e-05
-0.000673024
-1.21198e-05
-0.000667358
-1.2782e-05
-0.000661905
-1.33173e-05
-0.000656709
-1.37177e-05
-0.000651814
-1.39716e-05
-0.000647264
-1.40646e-05
-0.000643099
-1.39809e-05
-0.000639356
-1.37037e-05
-0.00063607
-1.32172e-05
-0.000633269
-1.25078e-05
-0.00063098
-1.15663e-05
-0.000629226
-1.03894e-05
-0.000628027
-8.98176e-06
-0.000627401
-7.35844e-06
-0.000627369
-5.5465e-06
-0.000627951
-3.5868e-06
-0.000629166
-1.53738e-06
-0.00063103
5.26694e-07
-0.000633589
2.55114e-06
-0.000636903
4.48822e-06
-0.000640983
6.25167e-06
-0.000645772
7.72446e-06
-0.00065114
8.76055e-06
-0.000656868
9.18972e-06
-0.000662634
8.83098e-06
-0.000668007
7.5193e-06
-0.000672909
5.65624e-06
-0.000676456
1.97913e-06
-0.000677674
-3.67654e-06
-0.000675762
-1.11134e-05
-0.00067029
-1.98515e-05
-0.000661172
-2.92054e-05
-0.000648713
-3.81881e-05
-0.000633573
-4.57448e-05
-0.000616614
-5.10812e-05
-0.000598711
-5.38988e-05
-0.000580573
-5.445e-05
-0.000562652
-5.33942e-05
-0.000545142
-5.15375e-05
-0.000528043
-4.9584e-05
-0.000511258
-4.79894e-05
-0.000494684
-4.69314e-05
-0.000478274
-4.63669e-05
-0.000462074
-4.61236e-05
-0.000446226
-4.59889e-05
-0.000430949
-4.57782e-05
-0.000416496
-4.53731e-05
-0.000403104
-4.47306e-05
-0.000390946
-4.38655e-05
-0.000380088
-4.28138e-05
-0.000370483
-4.15925e-05
-0.000361994
-4.01744e-05
-0.000354434
-3.84888e-05
-0.000347618
-3.64327e-05
-0.000340715
-3.77347e-05
-0.000333643
-3.88549e-05
-0.000326347
-3.97795e-05
-0.000318785
-4.05038e-05
-0.000310928
-4.10182e-05
-0.000302757
-4.13031e-05
-0.000294272
-4.13301e-05
-0.000285494
-4.10665e-05
-0.000276466
-4.0482e-05
-0.000267253
-3.95552e-05
-0.000257939
-3.82797e-05
-0.000248627
-3.66691e-05
-0.000239427
-3.47571e-05
-0.000230454
-3.2595e-05
-0.00022182
-3.02424e-05
-0.000213634
-2.77545e-05
-0.000206003
-2.51704e-05
-0.000199041
-2.25119e-05
-0.000192875
-1.98039e-05
-0.000187622
-1.71145e-05
-0.000183329
-1.45885e-05
-0.000179899
-1.24308e-05
-0.00017708
-1.08402e-05
-0.000174527
-9.94933e-06
-0.000171884
-9.81619e-06
-0.000168838
-1.0436e-05
-0.000165145
-1.17402e-05
-0.000160653
-1.3592e-05
-0.000155308
-1.57967e-05
-0.000149162
-1.81185e-05
-0.000142362
-2.02984e-05
-0.00013514
-2.20824e-05
-0.000127781
-2.32543e-05
-0.000120589
-2.36635e-05
-0.000113848
-2.32436e-05
-0.000107791
-2.20192e-05
-0.000102578
-2.0103e-05
-9.82871e-05
-1.76815e-05
-9.49111e-05
-1.49933e-05
-9.23694e-05
-1.2292e-05
-9.05266e-05
-9.78456e-06
-8.9227e-05
-7.58344e-06
-8.83293e-05
-5.71381e-06
-8.7725e-05
-4.15008e-06
-8.73387e-05
-2.84825e-06
-8.71199e-05
-1.76598e-06
-8.70314e-05
-8.7114e-07
-8.70411e-05
-1.41171e-07
-8.71201e-05
4.41285e-07
-8.72471e-05
8.92976e-07
-8.74049e-05
1.24269e-06
-8.75739e-05
1.53113e-06
-8.77385e-05
1.79656e-06
-8.78867e-05
2.07221e-06
-8.80088e-05
2.38408e-06
-8.80984e-05
2.74707e-06
-8.81458e-05
3.13258e-06
-8.81357e-05
3.53178e-06
5.18953e-06
-0.000355782
8.77501e-06
-0.000360176
1.69254e-05
-0.000364766
1.78095e-05
-0.000369844
1.95672e-05
-0.000375463
2.157e-05
-0.000381648
2.36856e-05
-0.000388353
2.5686e-05
-0.000395525
2.75191e-05
-0.00040314
2.92733e-05
-0.000411223
3.1107e-05
-0.000419817
3.31038e-05
-0.000428949
3.52197e-05
-0.000438611
3.73429e-05
-0.000448775
3.93899e-05
-0.000459416
4.13494e-05
-0.000470523
4.3259e-05
-0.000482101
4.51618e-05
-0.00049416
4.70812e-05
-0.000506707
4.90023e-05
-0.000519737
5.08859e-05
-0.000533236
5.26831e-05
-0.000547169
5.43143e-05
-0.000561462
5.56408e-05
-0.000575974
5.64375e-05
-0.000590467
5.63885e-05
-0.000604592
5.51482e-05
-0.000617915
5.24738e-05
-0.000629999
4.83917e-05
-0.000640528
4.33174e-05
-0.000649421
3.80357e-05
-0.000656891
3.35059e-05
-0.000663402
3.05624e-05
-0.000669547
2.96394e-05
-0.000675886
3.06576e-05
-0.000682825
3.31242e-05
-0.000690569
3.63674e-05
-0.00069914
3.9762e-05
-0.000708428
4.28503e-05
-0.00071825
4.53596e-05
-0.000728387
4.71649e-05
-0.00073861
4.82367e-05
-0.000748699
4.85955e-05
-0.00075844
4.82807e-05
-0.000767632
4.7335e-05
-0.000776084
4.58e-05
-0.000783619
4.37186e-05
-0.000790073
4.1141e-05
-0.000795305
3.81285e-05
-0.000799197
3.47534e-05
-0.000801667
3.11071e-05
-0.000802665
2.72881e-05
-0.000802195
2.34199e-05
-0.000800282
1.95752e-05
-0.000796978
1.58363e-05
-0.000792389
1.23206e-05
-0.000786636
9.04278e-06
-0.000779845
6.00239e-06
-0.000772128
3.20387e-06
-0.000763543
6.03232e-07
-0.00075416
-1.81029e-06
-0.000744143
-3.97887e-06
-0.000733675
-5.91298e-06
-0.000722882
-7.69046e-06
-0.000711876
-9.36091e-06
-0.00070078
-1.09475e-05
-0.000689694
-1.24587e-05
-0.000678668
-1.3893e-05
-0.000667743
-1.52356e-05
-0.00065698
-1.64665e-05
-0.000646441
-1.75684e-05
-0.000636182
-1.85309e-05
-0.000626245
-1.93457e-05
-0.000616674
-2.00031e-05
-0.000607513
-2.04967e-05
-0.00059881
-2.08223e-05
-0.000590616
-2.09758e-05
-0.000582981
-2.09524e-05
-0.000575953
-2.07451e-05
-0.000569579
-2.03455e-05
-0.000563899
-1.97438e-05
-0.00055895
-1.893e-05
-0.000554759
-1.78946e-05
-0.000551346
-1.66299e-05
-0.000548724
-1.51305e-05
-0.000546895
-1.33954e-05
-0.000545856
-1.14282e-05
-0.000545599
-9.23881e-06
-0.000546114
-6.8442e-06
-0.000547392
-4.26874e-06
-0.000549434
-1.54457e-06
-0.00055226
1.28872e-06
-0.00055594
4.20618e-06
-0.000560558
7.16971e-06
-0.000566169
1.00985e-05
-0.00057279
1.28732e-05
-0.000580391
1.53247e-05
-0.000588861
1.7231e-05
-0.000597987
1.83159e-05
-0.000607412
1.82557e-05
-0.000616596
1.67032e-05
-0.000625637
1.4698e-05
-0.000633278
9.62016e-06
-0.00063807
1.11484e-06
-0.000638697
-1.04862e-05
-0.000634504
-2.40444e-05
-0.000625593
-3.81168e-05
-0.000612636
-5.11451e-05
-0.000596674
-6.17068e-05
-0.000578832
-6.89225e-05
-0.000560053
-7.2677e-05
-0.000540943
-7.356e-05
-0.000521753
-7.25842e-05
-0.000502464
-7.08259e-05
-0.000482914
-6.91339e-05
-0.000462915
-6.79883e-05
-0.000442347
-6.74991e-05
-0.000421221
-6.74927e-05
-0.000399713
-6.76313e-05
-0.000378176
-6.75265e-05
-0.000357119
-6.68346e-05
-0.000337166
-6.53269e-05
-0.000318962
-6.29342e-05
-0.000303069
-5.9758e-05
-0.000289847
-5.60359e-05
-0.000279375
-5.20641e-05
-0.000271453
-4.80951e-05
-0.000265687
-4.42548e-05
-0.000261586
-4.05336e-05
-0.000258352
-4.09692e-05
-0.00025576
-4.14471e-05
-0.000253608
-4.19309e-05
-0.000251712
-4.24e-05
-0.0002499
-4.28305e-05
-0.000248015
-4.31877e-05
-0.000245921
-4.34244e-05
-0.000243503
-4.34836e-05
-0.000240681
-4.33047e-05
-0.000237405
-4.28306e-05
-0.000233668
-4.20167e-05
-0.0002295
-4.08378e-05
-0.000224964
-3.92929e-05
-0.000220154
-3.74051e-05
-0.000215181
-3.52156e-05
-0.000210165
-3.27715e-05
-0.000205225
-3.01104e-05
-0.000200488
-2.72502e-05
-0.000196094
-2.41981e-05
-0.000192217
-2.09915e-05
-0.000189033
-1.77736e-05
-0.000186608
-1.48555e-05
-0.000184775
-1.26738e-05
-0.000183112
-1.16131e-05
-0.0001811
-1.18287e-05
-0.000178312
-1.3224e-05
-0.000174508
-1.5544e-05
-0.000169642
-1.84569e-05
-0.000163834
-2.1604e-05
-0.000157326
-2.46269e-05
-0.000150444
-2.71817e-05
-0.000143553
-2.89753e-05
-0.000137005
-2.98029e-05
-0.000131096
-2.95729e-05
-0.000126026
-2.83128e-05
-0.000121888
-2.61563e-05
-0.000118672
-2.33185e-05
-0.000116292
-2.0062e-05
-0.000114624
-1.66635e-05
-0.000113533
-1.33846e-05
-0.000112886
-1.04321e-05
-0.000112553
-7.91588e-06
-0.000112421
-5.8458e-06
-0.000112402
-4.16941e-06
-0.000112437
-2.8134e-06
-0.000112492
-1.71124e-06
-0.000112549
-8.14514e-07
-0.000112599
-9.13622e-08
-0.00011264
4.81388e-07
-0.000112673
9.25862e-07
-0.000112701
1.27042e-06
-0.00011272
1.55102e-06
-0.000112726
1.80353e-06
-0.000112714
2.06029e-06
-0.000112678
2.34747e-06
-0.000112611
2.68003e-06
-0.000112506
3.02786e-06
-0.00011235
3.377e-06
4.81239e-06
-0.000411691
1.10388e-05
-0.000415944
2.11783e-05
-0.000420377
2.22431e-05
-0.000425332
2.45214e-05
-0.000430844
2.70816e-05
-0.000436917
2.97592e-05
-0.000443487
3.22556e-05
-0.00045049
3.45219e-05
-0.000457905
3.66881e-05
-0.000465764
3.89657e-05
-0.000474111
4.14514e-05
-0.000482963
4.40723e-05
-0.000492298
4.66778e-05
-0.000502078
4.91702e-05
-0.000512282
5.15534e-05
-0.000522914
5.38913e-05
-0.000533998
5.62455e-05
-0.000545563
5.8646e-05
-0.000557632
6.10714e-05
-0.000570216
6.34703e-05
-0.000583316
6.57827e-05
-0.000596908
6.79069e-05
-0.000610924
6.96567e-05
-0.00062521
7.07238e-05
-0.000639493
7.06709e-05
-0.000653361
6.90168e-05
-0.000666306
6.54186e-05
-0.000677819
5.99045e-05
-0.00068754
5.30388e-05
-0.000695395
4.58907e-05
-0.000701648
3.97592e-05
-0.000706845
3.57589e-05
-0.000711654
3.44487e-05
-0.000716685
3.56889e-05
-0.000722353
3.87926e-05
-0.000728839
4.28525e-05
-0.000736118
4.70415e-05
-0.000744032
5.07645e-05
-0.000752345
5.36724e-05
-0.000760787
5.5608e-05
-0.000769086
5.65359e-05
-0.000776973
5.64828e-05
-0.00078419
5.54978e-05
-0.000790489
5.36332e-05
-0.000795629
5.09396e-05
-0.000799382
4.74709e-05
-0.000801536
4.32943e-05
-0.000801904
3.84967e-05
-0.000800331
3.31798e-05
-0.000796702
2.7478e-05
-0.000790944
2.15298e-05
-0.000783073
1.55488e-05
-0.00077316
9.66284e-06
-0.000761299
3.97462e-06
-0.000747588
-1.39068e-06
-0.000732397
-6.14805e-06
-0.000716265
-1.01304e-05
-0.000699596
-1.34645e-05
-0.000682722
-1.62711e-05
-0.00066589
-1.8642e-05
-0.000649195
-2.06732e-05
-0.000632665
-2.24432e-05
-0.00061635
-2.40052e-05
-0.000600313
-2.53973e-05
-0.000584623
-2.66368e-05
-0.000569351
-2.77311e-05
-0.000554557
-2.8687e-05
-0.000540292
-2.95013e-05
-0.000526598
-3.01604e-05
-0.000513516
-3.06505e-05
-0.000501085
-3.09622e-05
-0.000489341
-3.10896e-05
-0.000478315
-3.10293e-05
-0.000468031
-3.07805e-05
-0.00045851
-3.03433e-05
-0.000449768
-2.97174e-05
-0.000441818
-2.89015e-05
-0.000434671
-2.78925e-05
-0.00042833
-2.6686e-05
-0.000422797
-2.52763e-05
-0.000418069
-2.36573e-05
-0.00041414
-2.18227e-05
-0.000411003
-1.97669e-05
-0.000408647
-1.74856e-05
-0.000407066
-1.49766e-05
-0.000406254
-1.22405e-05
-0.000406211
-9.28195e-06
-0.000406945
-6.10974e-06
-0.000408476
-2.73775e-06
-0.000410836
8.15851e-07
-0.000414086
4.53831e-06
-0.000418284
8.40407e-06
-0.00042347
1.23561e-05
-0.000429674
1.63026e-05
-0.000436908
2.01084e-05
-0.000445169
2.35859e-05
-0.000454417
2.64793e-05
-0.00046455
2.84497e-05
-0.000475357
2.90625e-05
-0.000486442
2.77892e-05
-0.000498256
2.65119e-05
-0.000509595
2.096e-05
-0.000518827
1.0347e-05
-0.000524192
-5.12066e-06
-0.000524546
-2.3689e-05
-0.000519931
-4.27316e-05
-0.000511203
-5.98728e-05
-0.000499571
-7.33382e-05
-0.00048616
-8.23336e-05
-0.000471706
-8.713e-05
-0.000456485
-8.87814e-05
-0.000440401
-8.86682e-05
-0.000423156
-8.80701e-05
-0.0004044
-8.78901e-05
-0.000383832
-8.85567e-05
-0.000361271
-9.00601e-05
-0.000336705
-9.20588e-05
-0.000310333
-9.40033e-05
-0.000282608
-9.52528e-05
-0.00025426
-9.51835e-05
-0.000226295
-9.32924e-05
-0.000199928
-8.93018e-05
-0.000176431
-8.32556e-05
-0.000156898
-7.55691e-05
-0.000141972
-6.69909e-05
-0.000131637
-5.8431e-05
-0.000125298
-5.05943e-05
-0.00012204
-4.37909e-05
-0.000120854
-4.21555e-05
-0.000121392
-4.09093e-05
-0.000123331
-3.99922e-05
-0.000126375
-3.93565e-05
-0.000130248
-3.89575e-05
-0.00013469
-3.87463e-05
-0.00013945
-3.86637e-05
-0.000144294
-3.86394e-05
-0.000149007
-3.85915e-05
-0.000153405
-3.84322e-05
-0.000157344
-3.80775e-05
-0.000160726
-3.74554e-05
-0.000163505
-3.65145e-05
-0.00016568
-3.52294e-05
-0.000167296
-3.36004e-05
-0.000168421
-3.16467e-05
-0.000169138
-2.93936e-05
-0.000169529
-2.68587e-05
-0.000169673
-2.40539e-05
-0.00016966
-2.10053e-05
-0.000169612
-1.78214e-05
-0.000169666
-1.48029e-05
-0.00016984
-1.25003e-05
-0.000169891
-1.15637e-05
-0.000169351
-1.23699e-05
-0.000167811
-1.47643e-05
-0.000165142
-1.82125e-05
-0.0001615
-2.20984e-05
-0.00015721
-2.58923e-05
-0.000152662
-2.91741e-05
-0.000148245
-3.15985e-05
-0.0001443
-3.29202e-05
-0.000141077
-3.3026e-05
-0.000138708
-3.19423e-05
-0.000137204
-2.98169e-05
-0.000136476
-2.68845e-05
-0.000136368
-2.34264e-05
-0.000136701
-1.97303e-05
-0.000137304
-1.60608e-05
-0.000138045
-1.26449e-05
-0.000138825
-9.65321e-06
-0.000139574
-7.1684e-06
-0.000140242
-5.17895e-06
-0.000140799
-3.61253e-06
-0.000141235
-2.3779e-06
-0.000141552
-1.39428e-06
-0.000141762
-6.03752e-07
-0.000141885
3.07568e-08
-0.000141939
5.34338e-07
-0.000141942
9.28997e-07
-0.00014191
1.23877e-06
-0.000141851
1.49252e-06
-0.000141767
1.72084e-06
-0.00014166
1.95215e-06
-0.000141523
2.21034e-06
-0.000141352
2.50903e-06
-0.00014114
2.81567e-06
-0.000140878
3.11602e-06
4.29883e-06
-0.000454166
1.28663e-05
-0.000457515
2.45275e-05
-0.000461003
2.57309e-05
-0.000464985
2.85036e-05
-0.000469467
3.15631e-05
-0.000474419
3.47109e-05
-0.00047975
3.75867e-05
-0.000485391
4.01622e-05
-0.000491327
4.26246e-05
-0.000497599
4.52378e-05
-0.000504246
4.80982e-05
-0.000511263
5.10896e-05
-0.000518606
5.40216e-05
-0.000526232
5.67964e-05
-0.000534132
5.9453e-05
-0.000542337
6.20965e-05
-0.000550905
6.48132e-05
-0.000559899
6.76399e-05
-0.000569373
7.05463e-05
-0.00057937
7.34667e-05
-0.000589921
7.63334e-05
-0.000601037
7.90237e-05
-0.000612678
8.12975e-05
-0.000624705
8.27507e-05
-0.000636839
8.28053e-05
-0.000648646
8.08238e-05
-0.000659576
7.63489e-05
-0.00066908
6.94084e-05
-0.00067677
6.07295e-05
-0.000682567
5.16873e-05