/*--------------------------------*- C++ -*----------------------------------*\
| =========                 |                                                 |
| \\      /  F ield         | OpenFOAM: The Open Source CFD Toolbox           |
|  \\    /   O peration     | Version:  2406                                  |
|   \\  /    A nd           | Website:  www.openfoam.com                      |
|    \\/     M anipulation  |                                                 |
\*---------------------------------------------------------------------------*/
FoamFile
{
    version     2.0;
    format      ascii;
    arch        "LSB;label=32;scalar=64";
    class       volVectorField;
    location    "100";
    object      U;
}
// * * * * * * * * * * * * * * * * * * * * * * * * * * * * * * * * * * * * * //

dimensions      [0 1 -1 0 0 0 0];

internalField   nonuniform List<vector> 
5619
(
(3.30702 -0.000458053 0)
(3.3616 -0.000903549 0)
(3.41737 -0.00101412 0)
(3.47862 -0.00116134 0)
(3.54539 -0.00133878 0)
(3.61886 -0.00153335 0)
(3.69872 -0.0017389 0)
(3.78471 -0.00195079 0)
(3.87638 -0.00217683 0)
(3.97389 -0.00242678 0)
(4.07765 -0.00270853 0)
(4.18824 -0.00302179 0)
(4.3059 -0.00336196 0)
(4.43059 -0.003725 0)
(4.56212 -0.0041123 0)
(4.70033 -0.00452876 0)
(4.84518 -0.00498081 0)
(4.99678 -0.00547434 0)
(5.15523 -0.00601001 0)
(5.32049 -0.00658359 0)
(5.49234 -0.00718743 0)
(5.67029 -0.0078051 0)
(5.85346 -0.00840687 0)
(6.04035 -0.00894677 0)
(6.22857 -0.00936434 0)
(6.4148 -0.00959809 0)
(6.59502 -0.00960678 0)
(6.76514 -0.00939364 0)
(6.92206 -0.00902136 0)
(7.06471 -0.0086081 0)
(7.19468 -0.00830057 0)
(7.31614 -0.0082335 0)
(7.43491 -0.00849053 0)
(7.55702 -0.00908399 0)
(7.68742 -0.00996177 0)
(7.82917 -0.0110351 0)
(7.98341 -0.0122107 0)
(8.14972 -0.0134125 0)
(8.32676 -0.014589 0)
(8.51269 -0.0157099 0)
(8.70552 -0.0167598 0)
(8.90333 -0.0177312 0)
(9.10431 -0.0186197 0)
(9.30679 -0.019421 0)
(9.50922 -0.0201301 0)
(9.71016 -0.020743 0)
(9.90829 -0.0212574 0)
(10.1024 -0.0216747 0)
(10.2916 -0.0220012 0)
(10.475 -0.0222491 0)
(10.6519 -0.0224357 0)
(10.8221 -0.0225848 0)
(10.9854 -0.0227154 0)
(11.1418 -0.0228492 0)
(11.2916 -0.0230084 0)
(11.435 -0.0231925 0)
(11.5724 -0.0233992 0)
(11.7039 -0.0236359 0)
(11.8299 -0.0238964 0)
(11.9507 -0.0241491 0)
(12.0663 -0.0243423 0)
(12.1765 -0.024432 0)
(12.2809 -0.0243794 0)
(12.3791 -0.0241274 0)
(12.4706 -0.023599 0)
(12.5546 -0.0226913 0)
(12.6302 -0.0212896 0)
(12.6962 -0.0193174 0)
(12.7514 -0.0167427 0)
(12.7949 -0.0135497 0)
(12.8257 -0.00973206 0)
(12.843 -0.00535072 0)
(12.8463 -0.000514174 0)
(12.8356 0.00447584 0)
(12.8123 0.00934612 0)
(12.7775 0.0141083 0)
(12.7319 0.0187718 0)
(12.6765 0.0232603 0)
(12.6123 0.0274496 0)
(12.5405 0.0311873 0)
(12.4626 0.03431 0)
(12.3801 0.0366609 0)
(12.295 0.0381077 0)
(12.2093 0.0385592 0)
(12.1249 0.0379802 0)
(12.0442 0.0364004 0)
(11.9689 0.0339148 0)
(11.9008 0.0306779 0)
(11.8412 0.0268926 0)
(11.7911 0.0227966 0)
(11.7508 0.0186512 0)
(11.7202 0.0147298 0)
(11.6985 0.0113052 0)
(11.6844 0.0086325 0)
(11.6762 0.00693606 0)
(11.6716 0.00636968 0)
(11.6684 0.00691501 0)
(11.6645 0.00845303 0)
(11.658 0.0108779 0)
(11.6476 0.0139397 0)
(11.6269 0.0174133 0)
(11.5977 0.0214421 0)
(11.5532 0.0264632 0)
(11.4891 0.0325917 0)
(11.3996 0.0396252 0)
(11.2798 0.0468573 0)
(11.1274 0.0532692 0)
(10.9445 0.0578763 0)
(10.7376 0.0600753 0)
(10.516 0.0598515 0)
(10.2903 0.0577707 0)
(10.0688 0.0547702 0)
(9.85649 0.0518688 0)
(9.65437 0.0499269 0)
(9.46025 0.0495401 0)
(9.26993 0.0510477 0)
(9.07847 0.0546024 0)
(8.88107 0.0602494 0)
(8.67362 0.0679748 0)
(8.45294 0.077715 0)
(8.21691 0.0893205 0)
(7.9646 0.102481 0)
(7.69647 0.116626 0)
(7.41478 0.130821 0)
(7.12372 0.143744 0)
(6.82985 0.153866 0)
(6.54329 0.1597 0)
(6.27136 0.160624 0)
(6.00611 0.158804 0)
(5.74268 0.155969 0)
(5.47861 0.151794 0)
(5.21657 0.146033 0)
(4.95818 0.138785 0)
(4.70537 0.130205 0)
(4.46001 0.120501 0)
(4.22397 0.109915 0)
(3.99905 0.0987254 0)
(3.78695 0.0872417 0)
(3.58913 0.0758038 0)
(3.40674 0.0647698 0)
(3.24046 0.0545028 0)
(3.09044 0.0453477 0)
(2.95621 0.0375912 0)
(2.83665 0.0313952 0)
(2.73016 0.0267159 0)
(2.6348 0.0232629 0)
(2.54866 0.0205815 0)
(2.47013 0.0182465 0)
(2.39814 0.0160232 0)
(2.33207 0.0138804 0)
(2.27145 0.0119053 0)
(2.21554 0.01022 0)
(2.16304 0.00893123 0)
(2.11196 0.00809775 0)
(2.05984 0.00771416 0)
(2.00401 0.00771431 0)
(1.94197 0.0079885 0)
(1.87177 0.00840457 0)
(1.79223 0.00882721 0)
(1.7032 0.00913534 0)
(1.60561 0.00923626 0)
(1.50145 0.00907635 0)
(1.3936 0.0086446 0)
(1.28556 0.00796566 0)
(1.18107 0.00708861 0)
(1.08368 0.00607698 0)
(0.996281 0.00500421 0)
(0.920794 0.00395197 0)
(0.858044 0.00299672 0)
(0.807828 0.00218634 0)
(0.769163 0.00153541 0)
(0.740584 0.00103685 0)
(0.720426 0.000670796 0)
(0.707064 0.000410412 0)
(0.699073 0.000228904 0)
(0.695327 0.000104038 0)
(0.695045 1.92058e-05 0)
(0.697764 -2.90324e-05 0)
(0.7028 -4.3536e-05 0)
(0.710096 -2.84649e-05 0)
(0.720172 3.79267e-05 0)
(0.734086 0.000232834 0)
(0.753411 0.000768549 0)
(0.780193 0.00221524 0)
(0.816918 0.00618149 0)
(0.866428 0.0176118 0)
(0.926667 0.0544987 0)
(3.45804 -0.00118673 0)
(3.51181 -0.00241301 0)
(3.56585 -0.0026889 0)
(3.62534 -0.00306796 0)
(3.6903 -0.00352067 0)
(3.76205 -0.00402367 0)
(3.84028 -0.0045539 0)
(3.9247 -0.00510014 0)
(4.01476 -0.00567823 0)
(4.11052 -0.00631458 0)
(4.21241 -0.0070301 0)
(4.321 -0.00782458 0)
(4.43656 -0.00868376 0)
(4.55902 -0.00959335 0)
(4.68812 -0.0105513 0)
(4.82363 -0.0115655 0)
(4.96544 -0.0126481 0)
(5.11355 -0.0138092 0)
(5.268 -0.0150474 0)
(5.4287 -0.0163512 0)
(5.59542 -0.0177022 0)
(5.76775 -0.0190664 0)
(5.94494 -0.0203842 0)
(6.12571 -0.0215605 0)
(6.30801 -0.0224624 0)
(6.48878 -0.0229421 0)
(6.66411 -0.0228859 0)
(6.82975 -0.0222798 0)
(6.98214 -0.0212657 0)
(7.11957 -0.0201504 0)
(7.24296 -0.0193463 0)
(7.35602 -0.0192566 0)
(7.46438 -0.0201493 0)
(7.57417 -0.0220812 0)
(7.69063 -0.0249057 0)
(7.81714 -0.0283536 0)
(7.95509 -0.0321337 0)
(8.10424 -0.0360028 0)
(8.26325 -0.039791 0)
(8.43028 -0.0433952 0)
(8.60326 -0.0467602 0)
(8.78017 -0.0498572 0)
(8.9591 -0.0526684 0)
(9.13828 -0.0551771 0)
(9.3161 -0.057365 0)
(9.49103 -0.0592146 0)
(9.66171 -0.060713 0)
(9.82689 -0.0618567 0)
(9.98551 -0.0626544 0)
(10.1367 -0.0631331 0)
(10.2798 -0.0633338 0)
(10.4145 -0.0633182 0)
(10.5405 -0.0631346 0)
(10.6579 -0.0628427 0)
(10.7669 -0.062511 0)
(10.8679 -0.0621443 0)
(10.9612 -0.0617401 0)
(11.0472 -0.0613327 0)
(11.1262 -0.0609275 0)
(11.1988 -0.060455 0)
(11.2652 -0.0597758 0)
(11.3254 -0.0587739 0)
(11.3793 -0.0573687 0)
(11.4271 -0.0554557 0)
(11.4684 -0.0529016 0)
(11.5033 -0.0495217 0)
(11.5312 -0.0451016 0)
(11.5519 -0.0395285 0)
(11.5648 -0.0327838 0)
(11.5698 -0.0248068 0)
(11.5666 -0.0154286 0)
(11.5552 -0.00470448 0)
(11.5358 0.00681168 0)
(11.5099 0.0184371 0)
(11.478 0.0299183 0)
(11.4404 0.0413282 0)
(11.3975 0.0526693 0)
(11.3498 0.0638074 0)
(11.2977 0.0745024 0)
(11.242 0.0844266 0)
(11.1831 0.0931858 0)
(11.1221 0.100345 0)
(11.0598 0.105459 0)
(10.9974 0.108117 0)
(10.9362 0.107987 0)
(10.8776 0.104866 0)
(10.8232 0.0987313 0)
(10.7744 0.0897664 0)
(10.7326 0.0783815 0)
(10.699 0.0652038 0)
(10.6743 0.05105 0)
(10.6589 0.0368781 0)
(10.6525 0.0237334 0)
(10.6541 0.0126969 0)
(10.6624 0.00463347 0)
(10.6756 -0.000134303 0)
(10.6924 -0.00151351 0)
(10.7104 0.00073424 0)
(10.7271 0.00682018 0)
(10.7404 0.0164506 0)
(10.7437 0.0289109 0)
(10.7367 0.0438496 0)
(10.7122 0.061803 0)
(10.6649 0.0829335 0)
(10.5886 0.106631 0)
(10.4785 0.130836 0)
(10.3324 0.152516 0)
(10.1527 0.168688 0)
(9.94575 0.177426 0)
(9.72151 0.178474 0)
(9.49059 0.173281 0)
(9.26211 0.164426 0)
(9.04205 0.154799 0)
(8.83283 0.14688 0)
(8.63393 0.142375 0)
(8.4431 0.142205 0)
(8.25743 0.146711 0)
(8.07422 0.155911 0)
(7.89132 0.16972 0)
(7.7072 0.188072 0)
(7.5208 0.210913 0)
(7.33141 0.238084 0)
(7.13853 0.269074 0)
(6.94207 0.302693 0)
(6.74237 0.336822 0)
(6.54058 0.368486 0)
(6.34025 0.394162 0)
(6.14443 0.410624 0)
(5.94251 0.418525 0)
(5.73408 0.420975 0)
(5.51867 0.41833 0)
(5.29869 0.410515 0)
(5.07592 0.397849 0)
(4.85221 0.380743 0)
(4.62944 0.359707 0)
(4.40956 0.335345 0)
(4.19458 0.308357 0)
(3.9865 0.279532 0)
(3.78727 0.249732 0)
(3.59863 0.21985 0)
(3.42212 0.19076 0)
(3.25888 0.163252 0)
(3.10971 0.137985 0)
(2.97509 0.11545 0)
(2.8552 0.095977 0)
(2.7499 0.0797197 0)
(2.65855 0.0665853 0)
(2.57976 0.0561532 0)
(2.51157 0.0477729 0)
(2.45188 0.0408693 0)
(2.39878 0.0351804 0)
(2.35036 0.0307316 0)
(2.3045 0.0276462 0)
(2.25873 0.0259725 0)
(2.21033 0.0256004 0)
(2.15667 0.0262627 0)
(2.09547 0.0275875 0)
(2.02513 0.0291593 0)
(1.94489 0.0305713 0)
(1.85506 0.0314747 0)
(1.75696 0.0316173 0)
(1.65289 0.030865 0)
(1.54586 0.0292073 0)
(1.43932 0.0267454 0)
(1.33671 0.0236723 0)
(1.24121 0.0202424 0)
(1.15533 0.0167228 0)
(1.08071 0.0133393 0)
(1.01797 0.0102582 0)
(0.966862 0.00759123 0)
(0.926587 0.00539321 0)
(0.896077 0.00366279 0)
(0.874129 0.00235398 0)
(0.859505 0.00139279 0)
(0.851032 0.000696769 0)
(0.847677 0.000189338 0)
(0.84861 -0.000190815 0)
(0.853061 -0.000474345 0)
(0.860281 -0.000703307 0)
(0.869893 -0.000946709 0)
(0.88174 -0.0012719 0)
(0.89579 -0.00177434 0)
(0.911985 -0.00264049 0)
(0.930128 -0.00428728 0)
(0.949839 -0.00767008 0)
(0.970485 -0.0149682 0)
(0.988464 -0.0293063 0)
(3.43534 -0.00210143 0)
(3.48646 -0.00427598 0)
(3.53714 -0.00474151 0)
(3.59309 -0.00542087 0)
(3.65425 -0.00623114 0)
(3.72196 -0.00713825 0)
(3.79586 -0.00809203 0)
(3.87565 -0.00907217 0)
(3.96074 -0.0101042 0)
(4.05117 -0.011239 0)
(4.14734 -0.0125166 0)
(4.24979 -0.0139383 0)
(4.35876 -0.0154771 0)
(4.47416 -0.0171058 0)
(4.59569 -0.0188188 0)
(4.7231 -0.020631 0)
(4.85624 -0.0225643 0)
(4.9951 -0.0246382 0)
(5.13969 -0.0268531 0)
(5.28989 -0.029193 0)
(5.44552 -0.0316307 0)
(5.60619 -0.0341128 0)
(5.77126 -0.0365419 0)
(5.9396 -0.0387539 0)
(6.10934 -0.0405084 0)
(6.27763 -0.0415209 0)
(6.44067 -0.0415486 0)
(6.59421 -0.0405157 0)
(6.7345 -0.0386293 0)
(6.8595 -0.0364162 0)
(6.9698 -0.0346293 0)
(7.06878 -0.0340404 0)
(7.16186 -0.035198 0)
(7.25512 -0.0382634 0)
(7.35379 -0.0430061 0)
(7.46133 -0.0489425 0)
(7.57919 -0.0555258 0)
(7.7072 -0.0622842 0)
(7.84409 -0.0688784 0)
(7.98801 -0.0750956 0)
(8.1369 -0.0808164 0)
(8.28871 -0.0859764 0)
(8.44149 -0.0905343 0)
(8.59344 -0.0944536 0)
(8.74287 -0.097696 0)
(8.88822 -0.100224 0)
(9.02807 -0.102009 0)
(9.16113 -0.103041 0)
(9.28631 -0.103332 0)
(9.40269 -0.10293 0)
(9.50963 -0.101914 0)
(9.60676 -0.100408 0)
(9.69394 -0.0985084 0)
(9.77124 -0.0963413 0)
(9.83902 -0.0940502 0)
(9.89773 -0.0916446 0)
(9.94781 -0.0891127 0)
(9.98973 -0.0865253 0)
(10.0241 -0.0839218 0)
(10.0514 -0.0812184 0)
(10.0722 -0.0782073 0)
(10.0868 -0.0747364 0)
(10.0953 -0.0707272 0)
(10.0978 -0.066065 0)
(10.0945 -0.060607 0)
(10.0853 -0.0540855 0)
(10.0703 -0.0460787 0)
(10.0497 -0.0363123 0)
(10.0233 -0.0247246 0)
(9.99134 -0.0114037 0)
(9.95398 0.00322891 0)
(9.91306 0.0186191 0)
(9.8699 0.0341781 0)
(9.82447 0.0495739 0)
(9.7771 0.0648751 0)
(9.72807 0.0801199 0)
(9.67774 0.0952095 0)
(9.6265 0.109943 0)
(9.57478 0.124006 0)
(9.52305 0.136979 0)
(9.47178 0.148344 0)
(9.4215 0.157511 0)
(9.37282 0.163844 0)
(9.32636 0.166709 0)
(9.28286 0.165529 0)
(9.24309 0.159858 0)
(9.20789 0.149455 0)
(9.17816 0.134359 0)
(9.15477 0.114956 0)
(9.13856 0.0920228 0)
(9.1302 0.0667424 0)
(9.13012 0.0407124 0)
(9.13839 0.0159208 0)
(9.15437 -0.00581886 0)
(9.178 -0.023411 0)
(9.20895 -0.0360603 0)
(9.24553 -0.0426732 0)
(9.28561 -0.0418612 0)
(9.32624 -0.0323665 0)
(9.36443 -0.0136635 0)
(9.39498 0.0138828 0)
(9.41503 0.0492048 0)
(9.4146 0.091265 0)
(9.38722 0.138769 0)
(9.32674 0.189869 0)
(9.22872 0.240621 0)
(9.09218 0.285353 0)
(8.92063 0.318656 0)
(8.72158 0.337214 0)
(8.50508 0.340806 0)
(8.28146 0.332263 0)
(8.0592 0.316386 0)
(7.8437 0.298426 0)
(7.6372 0.282804 0)
(7.43951 0.272465 0)
(7.24918 0.268865 0)
(7.06449 0.27236 0)
(6.8842 0.282696 0)
(6.70783 0.299444 0)
(6.5356 0.322279 0)
(6.36816 0.351075 0)
(6.20621 0.38581 0)
(6.05016 0.426289 0)
(5.89995 0.471732 0)
(5.75494 0.520381 0)
(5.61408 0.569355 0)
(5.47734 0.614745 0)
(5.34509 0.651708 0)
(5.20652 0.677092 0)
(5.06156 0.692187 0)
(4.90936 0.697557 0)
(4.75116 0.693569 0)
(4.58797 0.680765 0)
(4.42084 0.659745 0)
(4.25094 0.631218 0)
(4.07956 0.596044 0)
(3.90815 0.555275 0)
(3.7383 0.510167 0)
(3.57169 0.462153 0)
(3.40999 0.412785 0)
(3.25478 0.363633 0)
(3.10748 0.316146 0)
(2.96929 0.271507 0)
(2.8412 0.230518 0)
(2.7241 0.193598 0)
(2.61888 0.160924 0)
(2.52645 0.132647 0)
(2.4473 0.108921 0)
(2.38094 0.0896738 0)
(2.32563 0.0744716 0)
(2.27874 0.0627859 0)
(2.23727 0.0543131 0)
(2.19809 0.0489411 0)
(2.15801 0.0464999 0)
(2.11398 0.0465908 0)
(2.06332 0.0485766 0)
(2.00402 0.0516731 0)
(1.93495 0.0550572 0)
(1.85603 0.057953 0)
(1.7683 0.0597177 0)
(1.6739 0.0599066 0)
(1.57582 0.0583038 0)
(1.47765 0.0549224 0)
(1.3831 0.0499819 0)
(1.29562 0.0438734 0)
(1.21797 0.0371128 0)
(1.15175 0.0302758 0)
(1.09725 0.0238851 0)
(1.05354 0.0182723 0)
(1.01911 0.0135518 0)
(0.992466 0.00970887 0)
(0.972373 0.00666672 0)
(0.957942 0.00431739 0)
(0.948481 0.00254228 0)
(0.943366 0.00122691 0)
(0.941954 0.000269531 0)
(0.943543 -0.000409615 0)
(0.947353 -0.000859319 0)
(0.952764 -0.00113872 0)
(0.959194 -0.00131342 0)
(0.966134 -0.00140854 0)
(0.973168 -0.0014056 0)
(0.979953 -0.00122477 0)
(0.986208 -0.00069699 0)
(0.991731 0.00044463 0)
(0.996399 0.00209016 0)
(0.998421 0.000152256 0)
(3.33127 -0.0032777 0)
(3.37794 -0.00665253 0)
(3.42356 -0.00735043 0)
(3.47421 -0.00841765 0)
(3.52965 -0.00968615 0)
(3.59116 -0.0111104 0)
(3.65831 -0.0126027 0)
(3.73078 -0.0141322 0)
(3.80798 -0.0157373 0)
(3.88995 -0.0175015 0)
(3.97707 -0.0194886 0)
(4.06984 -0.0216997 0)
(4.16843 -0.0240892 0)
(4.2727 -0.0266121 0)
(4.38234 -0.0292588 0)
(4.49711 -0.0320527 0)
(4.61692 -0.0350284 0)
(4.74178 -0.0382149 0)
(4.87171 -0.0416129 0)
(5.00666 -0.0451992 0)
(5.14646 -0.048934 0)
(5.29082 -0.0527396 0)
(5.43919 -0.0564701 0)
(5.59058 -0.0598742 0)
(5.74325 -0.062572 0)
(5.89447 -0.0641011 0)
(6.04054 -0.0640486 0)
(6.17721 -0.0622557 0)
(6.30069 -0.0590168 0)
(6.40886 -0.0551517 0)
(6.50217 -0.0518659 0)
(6.58385 -0.0504175 0)
(6.65918 -0.0517162 0)
(6.73402 -0.0560469 0)
(6.81337 -0.063053 0)
(6.90047 -0.0719607 0)
(6.99662 -0.0818864 0)
(7.10155 -0.0920625 0)
(7.21396 -0.10193 0)
(7.33198 -0.111133 0)
(7.45357 -0.119467 0)
(7.57668 -0.126813 0)
(7.69933 -0.133096 0)
(7.81969 -0.138244 0)
(7.93603 -0.142187 0)
(8.04675 -0.144853 0)
(8.15036 -0.146189 0)
(8.24554 -0.146174 0)
(8.33115 -0.144825 0)
(8.40629 -0.142226 0)
(8.47033 -0.138505 0)
(8.52294 -0.133866 0)
(8.56412 -0.128455 0)
(8.59405 -0.122472 0)
(8.61325 -0.11619 0)
(8.62245 -0.109657 0)
(8.62229 -0.102912 0)
(8.61339 -0.0961495 0)
(8.59649 -0.0895046 0)
(8.57227 -0.0828803 0)
(8.54135 -0.0758687 0)
(8.50438 -0.0681335 0)
(8.46182 -0.0595132 0)
(8.41396 -0.0497463 0)
(8.36086 -0.0385265 0)
(8.30219 -0.0257056 0)
(8.23858 -0.0114278 0)
(8.17155 0.00421524 0)
(8.10216 0.0212767 0)
(8.03176 0.0395421 0)
(7.9615 0.0583266 0)
(7.8914 0.0770486 0)
(7.82194 0.0956079 0)
(7.75343 0.113991 0)
(7.6862 0.132066 0)
(7.62067 0.149664 0)
(7.5573 0.166572 0)
(7.4966 0.182484 0)
(7.43907 0.196994 0)
(7.38521 0.209594 0)
(7.33551 0.219688 0)
(7.2904 0.226607 0)
(7.25031 0.22964 0)
(7.21558 0.228078 0)
(7.18653 0.221271 0)
(7.16345 0.208691 0)
(7.14656 0.190018 0)
(7.1361 0.165223 0)
(7.13228 0.13466 0)
(7.13532 0.0991548 0)
(7.14549 0.0601135 0)
(7.16313 0.0195765 0)
(7.18772 -0.0204355 0)
(7.22103 -0.0583094 0)
(7.26325 -0.092363 0)
(7.31389 -0.120183 0)
(7.37215 -0.138675 0)
(7.43603 -0.14452 0)
(7.50229 -0.134484 0)
(7.56745 -0.106096 0)
(7.62757 -0.0580032 0)
(7.67779 0.00889026 0)
(7.70745 0.0910829 0)
(7.70361 0.182595 0)
(7.66139 0.277259 0)
(7.57753 0.367858 0)
(7.453 0.445393 0)
(7.29375 0.501867 0)
(7.10898 0.533109 0)
(6.90898 0.539944 0)
(6.70302 0.527688 0)
(6.49773 0.504266 0)
(6.29661 0.477839 0)
(6.10051 0.454961 0)
(5.9086 0.439739 0)
(5.71955 0.433916 0)
(5.53239 0.437494 0)
(5.34706 0.4495 0)
(5.16464 0.468662 0)
(4.98726 0.493895 0)
(4.81771 0.524562 0)
(4.65891 0.560509 0)
(4.51332 0.601846 0)
(4.38237 0.648518 0)
(4.26617 0.699734 0)
(4.16349 0.753523 0)
(4.07283 0.806509 0)
(3.99278 0.853603 0)
(3.91377 0.890043 0)
(3.83443 0.915191 0)
(3.75279 0.928785 0)
(3.66831 0.931003 0)
(3.5806 0.922211 0)
(3.48937 0.902836 0)
(3.39451 0.873406 0)
(3.29615 0.834634 0)
(3.19463 0.787504 0)
(3.09058 0.733318 0)
(2.98488 0.673699 0)
(2.87859 0.610528 0)
(2.77295 0.545823 0)
(2.66926 0.481556 0)
(2.56882 0.419436 0)
(2.47289 0.360724 0)
(2.38268 0.306147 0)
(2.29941 0.256039 0)
(2.2245 0.210699 0)
(2.15948 0.170769 0)
(2.10549 0.13721 0)
(2.06233 0.110752 0)
(2.02781 0.0913936 0)
(1.99829 0.0785651 0)
(1.96963 0.0715509 0)
(1.93795 0.0695479 0)
(1.90002 0.0715077 0)
(1.85359 0.0761205 0)
(1.7975 0.081961 0)
(1.73174 0.0876492 0)
(1.65749 0.0919691 0)
(1.57698 0.093988 0)
(1.49323 0.0931463 0)
(1.40971 0.089293 0)
(1.32985 0.0826617 0)
(1.25668 0.0738052 0)
(1.19244 0.0634955 0)
(1.13849 0.0526042 0)
(1.09521 0.0419897 0)
(1.06204 0.0323877 0)
(1.03768 0.0242551 0)
(1.02035 0.0176856 0)
(1.00829 0.012526 0)
(1.00006 0.008538 0)
(0.994649 0.00548825 0)
(0.991361 0.00318144 0)
(0.989738 0.00146434 0)
(0.989406 0.000216134 0)
(0.990005 -0.0006599 0)
(0.991238 -0.00124327 0)
(0.99293 -0.00162267 0)
(0.99485 -0.00189223 0)
(0.996789 -0.00212729 0)
(0.998594 -0.00239042 0)
(1.00015 -0.00273483 0)
(1.00135 -0.00319301 0)
(1.00217 -0.00368725 0)
(1.00262 -0.00388238 0)
(1.00123 -0.00420193 0)
(3.15674 -0.0046286 0)
(3.1969 -0.0093586 0)
(3.23544 -0.0103112 0)
(3.27866 -0.0118324 0)
(3.32609 -0.0136317 0)
(3.37888 -0.0156503 0)
(3.43647 -0.0177543 0)
(3.49853 -0.0199028 0)
(3.56449 -0.0221525 0)
(3.63445 -0.0246269 0)
(3.70876 -0.0274158 0)
(3.78784 -0.0305157 0)
(3.87176 -0.0338562 0)
(3.96031 -0.0373729 0)
(4.0532 -0.0410553 0)
(4.15027 -0.044941 0)
(4.25149 -0.0490819 0)
(4.35697 -0.0535192 0)
(4.4668 -0.0582546 0)
(4.58098 -0.0632572 0)
(4.69945 -0.0684747 0)
(4.82201 -0.0738026 0)
(4.94823 -0.0790372 0)
(5.07725 -0.0838164 0)
(5.20744 -0.0875819 0)
(5.33618 -0.089639 0)
(5.45986 -0.0893507 0)
(5.57435 -0.0864457 0)
(5.67597 -0.0813246 0)
(5.76271 -0.0751797 0)
(5.8351 -0.0697898 0)
(5.89634 -0.0670198 0)
(5.95152 -0.0682148 0)
(6.00614 -0.0737841 0)
(6.06472 -0.083184 0)
(6.13 -0.095262 0)
(6.20292 -0.108714 0)
(6.28296 -0.122412 0)
(6.36872 -0.135532 0)
(6.45832 -0.147542 0)
(6.54973 -0.158127 0)
(6.64093 -0.167097 0)
(6.72996 -0.174317 0)
(6.81499 -0.179664 0)
(6.89426 -0.183011 0)
(6.9661 -0.184238 0)
(7.029 -0.183251 0)
(7.08158 -0.180009 0)
(7.12267 -0.174529 0)
(7.15135 -0.166929 0)
(7.16701 -0.157409 0)
(7.16947 -0.146353 0)
(7.15888 -0.134075 0)
(7.13554 -0.121029 0)
(7.10019 -0.107793 0)
(7.05381 -0.0942998 0)
(6.99762 -0.0802928 0)
(6.93274 -0.0658837 0)
(6.86 -0.0510946 0)
(6.77965 -0.0358926 0)
(6.69248 -0.0205195 0)
(6.60078 -0.0050423 0)
(6.50563 0.0109505 0)
(6.40806 0.0279141 0)
(6.30902 0.0461897 0)
(6.20981 0.0657133 0)
(6.11106 0.0859833 0)
(6.01287 0.106622 0)
(5.91585 0.127436 0)
(5.82056 0.148205 0)
(5.72754 0.168838 0)
(5.63723 0.18918 0)
(5.54998 0.208897 0)
(5.46619 0.227657 0)
(5.38626 0.245161 0)
(5.31065 0.261104 0)
(5.23981 0.275133 0)
(5.17417 0.286831 0)
(5.11417 0.295715 0)
(5.0602 0.301243 0)
(5.01261 0.302828 0)
(4.97168 0.299859 0)
(4.93764 0.291736 0)
(4.91062 0.277899 0)
(4.8907 0.257877 0)
(4.87787 0.231336 0)
(4.87207 0.198133 0)
(4.87321 0.158376 0)
(4.8812 0.112477 0)
(4.89604 0.0612047 0)
(4.91786 0.00574123 0)
(4.94619 -0.0526681 0)
(4.98335 -0.112837 0)
(5.02901 -0.173117 0)
(5.08359 -0.230497 0)
(5.14725 -0.280699 0)
(5.21941 -0.318422 0)
(5.29867 -0.337438 0)
(5.38229 -0.331006 0)
(5.46688 -0.292754 0)
(5.55085 -0.217419 0)
(5.6278 -0.104607 0)
(5.6859 0.0390626 0)
(5.71205 0.200135 0)
(5.69448 0.362053 0)
(5.63437 0.510114 0)
(5.5344 0.63117 0)
(5.40268 0.715489 0)
(5.24967 0.759997 0)
(5.08491 0.768962 0)
(4.91534 0.752218 0)
(4.74461 0.722005 0)
(4.57349 0.689739 0)
(4.40088 0.663864 0)
(4.22501 0.649124 0)
(4.04437 0.646942 0)
(3.85837 0.65633 0)
(3.66779 0.674899 0)
(3.47499 0.699712 0)
(3.28383 0.727967 0)
(3.09949 0.757514 0)
(2.92782 0.7872 0)
(2.77446 0.816977 0)
(2.64374 0.847623 0)
(2.53777 0.880084 0)
(2.45589 0.91461 0)
(2.39548 0.950002 0)
(2.35303 0.983101 0)
(2.32009 1.01029 0)
(2.2945 1.03002 0)
(2.27375 1.04131 0)
(2.25606 1.04379 0)
(2.23984 1.03731 0)
(2.22364 1.02167 0)
(2.20611 0.996745 0)
(2.18613 0.96251 0)
(2.16282 0.919228 0)
(2.13557 0.867548 0)
(2.10415 0.808575 0)
(2.06865 0.743863 0)
(2.02952 0.675314 0)
(1.98748 0.605001 0)
(1.94347 0.534918 0)
(1.89853 0.466711 0)
(1.85377 0.401489 0)
(1.81025 0.339806 0)
(1.76913 0.281962 0)
(1.73186 0.228604 0)
(1.70016 0.181337 0)
(1.67541 0.142659 0)
(1.65727 0.114787 0)
(1.64278 0.0982419 0)
(1.62729 0.0917154 0)
(1.60638 0.0929719 0)
(1.57702 0.0995131 0)
(1.53802 0.108812 0)
(1.4898 0.11851 0)
(1.43408 0.126591 0)
(1.37348 0.131479 0)
(1.3112 0.132177 0)
(1.25056 0.12833 0)
(1.19451 0.120206 0)
(1.14531 0.108572 0)
(1.10428 0.0945285 0)
(1.07171 0.0793134 0)
(1.04711 0.0641315 0)
(1.02942 0.050011 0)
(1.01747 0.0376998 0)
(1.01007 0.0275792 0)
(1.00601 0.0196435 0)
(1.00419 0.0136133 0)
(1.00369 0.00910817 0)
(1.00387 0.00576731 0)
(1.00433 0.00330278 0)
(1.00486 0.00150484 0)
(1.00535 0.000222772 0)
(1.00576 -0.000657825 0)
(1.00609 -0.00123015 0)
(1.00637 -0.00158 0)
(1.0066 -0.00178727 0)
(1.00672 -0.00191267 0)
(1.00671 -0.00199697 0)
(1.0065 -0.00206604 0)
(1.00604 -0.00214293 0)
(1.0053 -0.00224748 0)
(1.00433 -0.00245394 0)
(1.0019 -0.00353013 0)
(2.91681 -0.00603856 0)
(2.94828 -0.0121479 0)
(2.97765 -0.0133552 0)
(3.01123 -0.0153691 0)
(3.04823 -0.0177343 0)
(3.08962 -0.0203754 0)
(3.13471 -0.0231073 0)
(3.18314 -0.0258832 0)
(3.23443 -0.0287865 0)
(3.28872 -0.0319873 0)
(3.34633 -0.0355979 0)
(3.40757 -0.039602 0)
(3.47238 -0.0438977 0)
(3.54049 -0.0484027 0)
(3.61166 -0.0531147 0)
(3.68582 -0.0580956 0)
(3.76308 -0.0634209 0)
(3.84367 -0.0691468 0)
(3.92779 -0.0752756 0)
(4.01556 -0.081768 0)
(4.10703 -0.088561 0)
(4.20214 -0.0955211 0)
(4.30064 -0.102374 0)
(4.4018 -0.10862 0)
(4.50419 -0.113477 0)
(4.60536 -0.115963 0)
(4.70193 -0.115167 0)
(4.79001 -0.110689 0)
(4.86622 -0.103076 0)
(4.92879 -0.09399 0)
(4.97838 -0.0859073 0)
(5.01806 -0.081402 0)
(5.05252 -0.0822912 0)
(5.08663 -0.0890668 0)
(5.1242 -0.100904 0)
(5.16735 -0.116172 0)
(5.21654 -0.133067 0)
(5.271 -0.150051 0)
(5.32925 -0.166007 0)
(5.38941 -0.180208 0)
(5.44954 -0.192209 0)
(5.5077 -0.201724 0)
(5.562 -0.208535 0)
(5.61064 -0.212431 0)
(5.65189 -0.213196 0)
(5.68405 -0.210621 0)
(5.70556 -0.204547 0)
(5.71497 -0.194905 0)
(5.71105 -0.181737 0)
(5.69283 -0.165316 0)
(5.65958 -0.146068 0)
(5.61113 -0.124671 0)
(5.54769 -0.101174 0)
(5.47012 -0.0755812 0)
(5.37926 -0.0486508 0)
(5.27504 -0.0215306 0)
(5.16275 0.00464136 0)
(5.0454 0.0299051 0)
(4.92531 0.0546855 0)
(4.8049 0.0790617 0)
(4.68558 0.102651 0)
(4.56709 0.125461 0)
(4.44996 0.14793 0)
(4.33457 0.170347 0)
(4.22139 0.192792 0)
(4.11094 0.215332 0)
(4.0037 0.238136 0)
(3.90004 0.261154 0)
(3.80032 0.284039 0)
(3.70481 0.306371 0)
(3.61381 0.327734 0)
(3.52758 0.34772 0)
(3.44636 0.365942 0)
(3.37036 0.382041 0)
(3.29972 0.395657 0)
(3.23458 0.406404 0)
(3.17504 0.413861 0)
(3.1212 0.417567 0)
(3.07309 0.417021 0)
(3.03074 0.411693 0)
(2.99415 0.401041 0)
(2.96328 0.384529 0)
(2.93809 0.361652 0)
(2.9185 0.331971 0)
(2.90445 0.295141 0)
(2.8959 0.250951 0)
(2.89282 0.199356 0)
(2.89522 0.140506 0)
(2.90324 0.0747508 0)
(2.91718 0.00261579 0)
(2.93662 -0.0753653 0)
(2.96331 -0.158678 0)
(2.99668 -0.246164 0)
(3.03719 -0.335206 0)
(3.08506 -0.42194 0)
(3.14031 -0.501096 0)
(3.20283 -0.565653 0)
(3.27221 -0.606671 0)
(3.34713 -0.613402 0)
(3.42569 -0.573892 0)
(3.5097 -0.475829 0)
(3.59437 -0.313823 0)
(3.66958 -0.096565 0)
(3.72508 0.154339 0)
(3.74446 0.405266 0)
(3.72701 0.627288 0)
(3.67741 0.800697 0)
(3.60273 0.915691 0)
(3.51208 0.973442 0)
(3.41234 0.984832 0)
(3.30689 0.966329 0)
(3.19608 0.935196 0)
(3.07823 0.905799 0)
(2.95083 0.887738 0)
(2.81145 0.885678 0)
(2.65831 0.900165 0)
(2.49066 0.928761 0)
(2.30908 0.967065 0)
(2.11581 1.00951 0)
(1.91498 1.05006 0)
(1.71277 1.08295 0)
(1.51721 1.10374 0)
(1.33743 1.11042 0)
(1.18231 1.10434 0)
(1.05855 1.09002 0)
(0.968578 1.07346 0)
(0.910052 1.05918 0)
(0.877693 1.04838 0)
(0.862027 1.03918 0)
(0.860289 1.02933 0)
(0.869711 1.01799 0)
(0.888012 1.00467 0)
(0.913177 0.988891 0)
(0.943293 0.970012 0)
(0.97654 0.947173 0)
(1.01118 0.919412 0)
(1.04558 0.885842 0)
(1.07831 0.84585 0)
(1.1082 0.799269 0)
(1.13435 0.746487 0)
(1.15628 0.688452 0)
(1.17381 0.626572 0)
(1.18714 0.562514 0)
(1.19668 0.497932 0)
(1.20302 0.434197 0)
(1.20677 0.372231 0)
(1.20849 0.312579 0)
(1.20875 0.255828 0)
(1.2083 0.203416 0)
(1.20822 0.15842 0)
(1.20935 0.12522 0)
(1.21089 0.107196 0)
(1.20982 0.104064 0)
(1.20262 0.111928 0)
(1.18732 0.12568 0)
(1.16423 0.140765 0)
(1.13527 0.153762 0)
(1.1031 0.162381 0)
(1.07059 0.165275 0)
(1.04039 0.162006 0)
(1.01466 0.15297 0)
(0.994769 0.139231 0)
(0.981188 0.122253 0)
(0.97358 0.103632 0)
(0.970995 0.0848544 0)
(0.972159 0.0671273 0)
(0.975777 0.0513118 0)
(0.98077 0.0379388 0)
(0.98633 0.0272117 0)
(0.991866 0.0189957 0)
(0.996962 0.0129058 0)
(1.00135 0.0084695 0)
(1.00488 0.00525469 0)
(1.00753 0.00292628 0)
(1.00937 0.00124845 0)
(1.01051 5.95344e-05 0)
(1.01111 -0.000757348 0)
(1.01128 -0.00129534 0)
(1.01116 -0.0016361 0)
(1.01083 -0.00185363 0)
(1.01032 -0.00200752 0)
(1.00964 -0.00213952 0)
(1.00877 -0.00227246 0)
(1.00767 -0.00240711 0)
(1.00634 -0.00249827 0)
(1.00478 -0.00253783 0)
(1.00201 -0.00326503 0)
(2.62125 -0.0073164 0)
(2.64198 -0.0146272 0)
(2.66031 -0.0160558 0)
(2.68218 -0.0185515 0)
(2.70649 -0.0214534 0)
(2.734 -0.024666 0)
(2.76385 -0.0279522 0)
(2.79573 -0.031269 0)
(2.8292 -0.0347376 0)
(2.86448 -0.0385767 0)
(2.90184 -0.0429126 0)
(2.94146 -0.0477019 0)
(2.98312 -0.0528057 0)
(3.02652 -0.0581317 0)
(3.07147 -0.063702 0)
(3.11804 -0.0696182 0)
(3.16652 -0.0759882 0)
(3.2173 -0.0828871 0)
(3.27072 -0.090318 0)
(3.32706 -0.0982344 0)
(3.38652 -0.106568 0)
(3.44928 -0.115159 0)
(3.5153 -0.123652 0)
(3.58416 -0.131388 0)
(3.65469 -0.137321 0)
(3.72484 -0.140132 0)
(3.79165 -0.138598 0)
(3.8517 -0.132182 0)
(3.902 -0.121617 0)
(3.94104 -0.109111 0)
(3.96936 -0.0979193 0)
(3.98956 -0.0913731 0)
(4.00549 -0.0917544 0)
(4.02108 -0.0995805 0)
(4.03928 -0.113661 0)
(4.0616 -0.131803 0)
(4.08816 -0.151652 0)
(4.11809 -0.171227 0)
(4.14993 -0.189102 0)
(4.18197 -0.204343 0)
(4.21241 -0.216361 0)
(4.23947 -0.224757 0)
(4.26143 -0.229195 0)
(4.27663 -0.229339 0)
(4.28338 -0.224837 0)
(4.28002 -0.215349 0)
(4.26493 -0.200618 0)
(4.23652 -0.180538 0)
(4.1933 -0.155118 0)
(4.13395 -0.12451 0)
(4.05746 -0.0884982 0)
(3.96403 -0.0476727 0)
(3.85273 -0.0044896 0)
(3.73216 0.0386487 0)
(3.60647 0.0809414 0)
(3.48103 0.120655 0)
(3.35536 0.156683 0)
(3.2307 0.189206 0)
(3.10835 0.218671 0)
(2.98944 0.245608 0)
(2.87496 0.270978 0)
(2.76554 0.295585 0)
(2.66154 0.319753 0)
(2.56315 0.343608 0)
(2.47047 0.367118 0)
(2.38356 0.390124 0)
(2.30245 0.412397 0)
(2.22721 0.433641 0)
(2.15788 0.453513 0)
(2.09445 0.471683 0)
(2.03683 0.487845 0)
(1.98491 0.501715 0)
(1.93851 0.513012 0)
(1.89744 0.521454 0)
(1.86146 0.526753 0)
(1.83034 0.528596 0)
(1.80381 0.526642 0)
(1.7816 0.520511 0)
(1.76343 0.509785 0)
(1.749 0.494009 0)
(1.73801 0.472696 0)
(1.73015 0.445338 0)
(1.72514 0.411418 0)
(1.7227 0.370425 0)
(1.72259 0.32188 0)
(1.7246 0.26536 0)
(1.72858 0.200535 0)
(1.73446 0.127211 0)
(1.74223 0.0453713 0)
(1.75173 -0.0447889 0)
(1.76357 -0.142825 0)
(1.77725 -0.24773 0)
(1.79285 -0.357513 0)
(1.81044 -0.469361 0)
(1.83014 -0.579419 0)
(1.85222 -0.68241 0)
(1.87714 -0.771207 0)
(1.90559 -0.836327 0)
(1.93807 -0.865434 0)
(1.97496 -0.843041 0)
(2.02065 -0.750407 0)
(2.07484 -0.57295 0)
(2.1355 -0.313286 0)
(2.196 0.00576204 0)
(2.25269 0.338682 0)
(2.29043 0.633885 0)
(2.31155 0.860057 0)
(2.31767 1.00662 0)
(2.31232 1.08082 0)
(2.29792 1.10168 0)
(2.27416 1.0925 0)
(2.23882 1.07466 0)
(2.1889 1.06426 0)
(2.12142 1.07127 0)
(2.03385 1.10016 0)
(1.92423 1.15101 0)
(1.7913 1.22071 0)
(1.63475 1.30354 0)
(1.45556 1.39158 0)
(1.25645 1.47488 0)
(1.04242 1.54187 0)
(0.821106 1.58053 0)
(0.60276 1.58067 0)
(0.399671 1.53758 0)
(0.224325 1.45611 0)
(0.0861118 1.35222 0)
(-0.0134048 1.24528 0)
(-0.0777268 1.15021 0)
(-0.118691 1.07011 0)
(-0.140156 1.0005 0)
(-0.144717 0.940239 0)
(-0.134676 0.888146 0)
(-0.112087 0.843055 0)
(-0.07888 0.803746 0)
(-0.0366866 0.768863 0)
(0.0128172 0.736969 0)
(0.0677676 0.706333 0)
(0.126423 0.6751 0)
(0.187092 0.641679 0)
(0.248193 0.6049 0)
(0.308368 0.564178 0)
(0.366561 0.519589 0)
(0.422066 0.471798 0)
(0.474502 0.421861 0)
(0.523726 0.370934 0)
(0.569747 0.31998 0)
(0.612492 0.269827 0)
(0.651798 0.221379 0)
(0.687437 0.176094 0)
(0.719259 0.13682 0)
(0.74735 0.108103 0)
(0.771703 0.0946917 0)
(0.791578 0.0979616 0)
(0.806021 0.113767 0)
(0.815273 0.134756 0)
(0.820764 0.154331 0)
(0.82432 0.16861 0)
(0.827535 0.175974 0)
(0.831744 0.175903 0)
(0.838093 0.168768 0)
(0.847319 0.155734 0)
(0.859598 0.138468 0)
(0.874549 0.118809 0)
(0.891388 0.0984713 0)
(0.909139 0.0788684 0)
(0.926825 0.0610387 0)
(0.943596 0.0456417 0)
(0.958802 0.0329947 0)
(0.972037 0.0231107 0)
(0.983147 0.0157315 0)
(0.992169 0.0104095 0)
(0.999242 0.00664216 0)
(1.00456 0.00398445 0)
(1.00836 0.0020998 0)
(1.01088 0.000759803 0)
(1.01239 -0.000183814 0)
(1.01312 -0.000830972 0)
(1.01327 -0.001257 0)
(1.01301 -0.00152417 0)
(1.01245 -0.00168827 0)
(1.01168 -0.00179693 0)
(1.01071 -0.00188577 0)
(1.00954 -0.0019793 0)
(1.00815 -0.00208888 0)
(1.00655 -0.00218251 0)
(1.00471 -0.00224868 0)
(1.0019 -0.00283576 0)
(2.28778 -0.00817829 0)
(2.29612 -0.016233 0)
(2.30207 -0.017806 0)
(2.31069 -0.0206934 0)
(2.3206 -0.0240068 0)
(2.33234 -0.0276257 0)
(2.34492 -0.0312685 0)
(2.35807 -0.0349091 0)
(2.37143 -0.0387179 0)
(2.38528 -0.0429593 0)