/*--------------------------------*- C++ -*----------------------------------*\
| =========                 |                                                 |
| \\      /  F ield         | OpenFOAM: The Open Source CFD Toolbox           |
|  \\    /   O peration     | Version:  2406                                  |
|   \\  /    A nd           | Website:  www.openfoam.com                      |
|    \\/     M anipulation  |                                                 |
\*---------------------------------------------------------------------------*/
FoamFile
{
    version     2.0;
    format      ascii;
    arch        "LSB;label=32;scalar=64";
    class       surfaceScalarField;
    location    "1.45";
    object      alphaPhi0.air;
}
// * * * * * * * * * * * * * * * * * * * * * * * * * * * * * * * * * * * * * //

dimensions      [0 3 -1 0 0 0 0];

oriented        oriented;

internalField   nonuniform List<scalar> 
12225
(
0.510843
1.90639e-06
0.510836
6.19629e-06
0.510829
7.6047e-06
0.510823
6.02846e-06
0.510818
5.02388e-06
0.510813
4.77252e-06
0.510808
5.16425e-06
0.510802
5.73709e-06
0.510797
5.51669e-06
0.510791
5.21504e-06
0.510786
5.40118e-06
0.51078
5.57606e-06
0.510775
5.25327e-06
0.51077
5.26411e-06
0.510764
5.67339e-06
0.510758
5.75962e-06
0.510753
5.61151e-06
0.510747
5.58413e-06
0.510742
5.57158e-06
0.510736
5.13913e-06
0.510732
4.36998e-06
0.510728
4.49116e-06
0.510722
5.36346e-06
0.510717
5.63144e-06
0.510711
5.31947e-06
0.510706
5.11129e-06
0.510701
5.30029e-06
0.510695
5.45738e-06
0.51069
5.41116e-06
0.510685
5.40375e-06
0.510679
5.53033e-06
0.510673
5.94289e-06
0.510667
6.0777e-06
0.510661
5.76544e-06
0.510656
5.59766e-06
0.51065
5.64118e-06
0.510644
5.73905e-06
0.510639
5.54611e-06
0.510634
4.93215e-06
0.510629
4.49261e-06
0.510625
4.57932e-06
0.51062
4.84641e-06
0.510615
5.13589e-06
0.510609
5.30517e-06
0.510604
5.2586e-06
0.510599
5.46676e-06
0.510593
5.66706e-06
0.510587
5.60971e-06
0.510582
5.86996e-06
0.510575
6.18441e-06
0.510569
6.17654e-06
0.510563
6.18267e-06
0.510557
6.11951e-06
0.510551
5.70516e-06
0.510546
5.37153e-06
0.51054
5.51244e-06
0.510535
5.59895e-06
0.510529
5.38926e-06
0.510524
5.38943e-06
0.510518
5.58078e-06
0.510513
5.67621e-06
0.510507
5.72962e-06
0.510501
5.613e-06
0.510496
5.45475e-06
0.51049
5.58561e-06
0.510485
5.72648e-06
0.510479
5.68539e-06
0.510473
5.52805e-06
0.510468
5.22061e-06
0.510463
5.09675e-06
0.510458
5.45379e-06
0.510452
5.84211e-06
0.510446
5.79376e-06
0.510441
5.48183e-06
0.510435
5.12614e-06
0.51043
4.88235e-06
0.510425
5.02738e-06
0.51042
5.44511e-06
0.510414
5.72215e-06
0.510409
5.59408e-06
0.510404
5.11983e-06
0.510399
4.6849e-06
0.510394
4.59323e-06
0.510389
4.95286e-06
0.510384
5.61262e-06
0.510378
6.16082e-06
0.510371
6.31458e-06
0.510365
6.0139e-06
0.51036
5.39158e-06
0.510355
4.84007e-06
0.51035
4.68653e-06
0.510345
4.92209e-06
0.51034
5.3053e-06
0.510335
5.55902e-06
0.510329
5.58708e-06
0.510323
5.52174e-06
0.510318
5.45339e-06
0.510313
5.35507e-06
0.510307
5.25807e-06
0.510302
5.22283e-06
0.510297
5.39502e-06
0.510291
5.86945e-06
0.510284
6.39566e-06
0.510278
6.66934e-06
0.510271
6.47938e-06
0.510266
5.80884e-06
0.510261
5.00486e-06
0.510256
4.40038e-06
0.510252
4.25801e-06
0.510247
4.7082e-06
0.510242
5.35926e-06
0.510236
5.84782e-06
0.51023
6.14445e-06
0.510224
6.24771e-06
0.510217
6.23887e-06
0.510211
6.11522e-06
0.510205
5.7926e-06
0.5102
5.3635e-06
0.510195
4.96358e-06
0.51019
4.67899e-06
0.510186
4.63243e-06
0.510181
4.8519e-06
0.510176
5.09071e-06
0.510171
5.06811e-06
0.510166
4.91589e-06
0.510161
4.9728e-06
0.510156
5.37572e-06
0.51015
5.94413e-06
0.510143
6.33561e-06
0.510137
6.31554e-06
0.510131
5.8323e-06
0.510126
5.18319e-06
0.510121
4.81072e-06
0.510116
4.71762e-06
0.510112
4.70609e-06
0.510107
4.75073e-06
0.510102
4.85114e-06
0.510097
5.0052e-06
0.510092
5.2013e-06
0.510086
5.47226e-06
0.510081
5.81534e-06
0.510075
6.00443e-06
0.510069
5.95211e-06
0.510063
5.79331e-06
0.510057
5.61619e-06
0.510052
5.542e-06
0.510046
5.54042e-06
0.510041
5.43583e-06
0.510035
5.24883e-06
0.51003
4.96357e-06
0.510026
4.63951e-06
0.510021
4.64893e-06
0.510016
4.97546e-06
0.510011
5.2955e-06
0.510005
5.56705e-06
0.51
5.71404e-06
0.509994
5.67028e-06
0.509988
5.62826e-06
0.509983
5.63139e-06
0.509977
5.62403e-06
0.509971
5.59201e-06
0.509966
5.4019e-06
0.509961
5.137e-06
0.509956
5.02304e-06
0.509951
5.01846e-06
0.509946
5.08737e-06
0.509941
5.27197e-06
0.509935
5.48468e-06
0.509929
5.63814e-06
0.509924
5.73839e-06
0.509918
5.86085e-06
0.509912
5.95774e-06
0.509906
5.82649e-06
0.5099
5.54723e-06
0.509895
5.34752e-06
0.50989
5.26958e-06
0.509884
5.37388e-06
0.509879
5.54893e-06
0.509873
5.46184e-06
0.509868
5.10425e-06
0.509864
4.7496e-06
0.509859
4.63979e-06
0.509854
4.88418e-06
0.509849
5.2992e-06
0.509843
5.65886e-06
0.509837
5.88006e-06
0.509831
5.83001e-06
0.509826
5.57025e-06
0.50982
5.38796e-06
0.509815
5.3558e-06
0.50981
5.40533e-06
0.509804
5.48972e-06
0.509799
5.51219e-06
0.509793
5.41543e-06
0.509788
5.19906e-06
0.509783
4.96297e-06
0.509778
4.90125e-06
0.509773
5.02867e-06
0.509768
5.22821e-06
0.509763
5.4382e-06
0.509757
5.57442e-06
0.509751
5.58424e-06
0.509746
5.50334e-06
0.509741
5.36414e-06
0.509735
5.23201e-06
0.50973
5.22637e-06
0.509725
5.4169e-06
0.509719
5.68926e-06
0.509713
5.80813e-06
0.509707
5.7056e-06
0.509702
5.55178e-06
0.509696
5.44095e-06
0.509691
5.3273e-06
0.509686
5.27268e-06
0.509681
5.32363e-06
0.509675
5.3941e-06
0.50967
5.49534e-06
0.509664
5.67919e-06
0.509658
5.85138e-06
0.509652
5.82622e-06
0.509647
5.51735e-06
0.509642
5.13878e-06
0.509637
4.98643e-06
0.509632
5.09396e-06
0.509626
5.31793e-06
0.509621
5.48887e-06
0.509615
5.58395e-06
0.509609
5.71716e-06
0.509604
5.86581e-06
0.509598
5.92308e-06
0.509592
5.80876e-06
0.509586
5.53094e-06
0.509581
5.31642e-06
0.509576
5.33326e-06
0.50957
5.49818e-06
0.509564
5.70713e-06
0.509559
5.82477e-06
0.509553
5.76631e-06
0.509547
5.62506e-06
0.509542
5.48262e-06
0.509536
5.39199e-06
0.509531
5.51012e-06
0.509525
5.86113e-06
0.509519
6.15478e-06
0.509513
6.10756e-06
0.509507
5.75176e-06
0.509502
5.40872e-06
0.509496
5.30669e-06
0.50949
5.85064e-06
5.36933e-06
0.510849
-2.42168e-07
0.510855
6.39128e-07
0.51086
1.82948e-06
0.510864
2.24334e-06
0.510867
2.08101e-06
0.51087
2.23638e-06
0.510872
2.46186e-06
0.510876
2.11325e-06
0.51088
1.83257e-06
0.510883
1.98219e-06
0.510886
2.4747e-06
0.510888
2.91671e-06
0.510891
3.00665e-06
0.510893
2.67792e-06
0.510896
2.51153e-06
0.5109
2.49159e-06
0.510903
2.14651e-06
0.510907
1.91255e-06
0.510911
1.82952e-06
0.510914
1.92877e-06
0.510916
2.64208e-06
0.510917
3.14795e-06
0.51092
2.72293e-06
0.510923
2.43865e-06
0.510925
2.80402e-06
0.510928
2.72782e-06
0.51093
2.43253e-06
0.510933
2.75554e-06
0.510936
3.07658e-06
0.510938
2.89554e-06
0.510941
2.57654e-06
0.510944
2.51109e-06
0.510948
2.64992e-06
0.510951
2.35736e-06
0.510955
2.02427e-06
0.510958
2.30965e-06
0.510961
2.57272e-06
0.510964
2.59026e-06
0.510967
2.63993e-06
0.510968
2.5775e-06
0.510971
2.47493e-06
0.510973
2.40323e-06
0.510976
2.37688e-06
0.510979
2.50386e-06
0.510981
2.48779e-06
0.510985
2.3124e-06
0.510988
2.40129e-06
0.510991
2.68848e-06
0.510994
2.75167e-06
0.510997
2.57316e-06
0.511001
2.40406e-06
0.511005
2.35907e-06
0.511009
2.58641e-06
0.511011
2.9543e-06
0.511014
2.93586e-06
0.511016
2.79886e-06
0.511019
2.86747e-06
0.511022
2.59425e-06
0.511025
2.0685e-06
0.511029
1.86097e-06
0.511033
1.9693e-06
0.511036
2.42863e-06
0.511039
2.97511e-06
0.511041
2.93369e-06
0.511044
2.50454e-06
0.511048
2.15062e-06
0.511052
2.0111e-06
0.511055
2.26574e-06
0.511057
2.57188e-06
0.51106
2.53517e-06
0.511063
2.49986e-06
0.511066
2.65033e-06
0.511069
2.73031e-06
0.511072
2.77812e-06
0.511074
2.79422e-06
0.511077
2.5336e-06
0.511079
2.31652e-06
0.511082
2.49907e-06
0.511085
2.82012e-06
0.511088
3.02911e-06
0.51109
3.00718e-06
0.511092
2.73662e-06
0.511094
2.3474e-06
0.511097
1.96882e-06
0.511101
1.73336e-06
0.511105
1.76428e-06
0.51111
2.06099e-06
0.511113
2.41415e-06
0.511116
2.58085e-06
0.511118
2.55478e-06
0.51112
2.43598e-06
0.511123
2.32409e-06
0.511126
2.42821e-06
0.511129
2.76548e-06
0.511131
2.98273e-06
0.511134
2.93573e-06
0.511137
2.79157e-06
0.511139
2.66659e-06
0.511142
2.60577e-06
0.511145
2.47684e-06
0.511148
2.07245e-06
0.511152
1.64243e-06
0.511157
1.52744e-06
0.511162
1.91336e-06
0.511166
2.63548e-06
0.511168
3.16517e-06
0.51117
3.27761e-06
0.511171
3.02553e-06
0.511173
2.45487e-06
0.511176
2.03404e-06
0.511179
2.12587e-06
0.511183
2.36018e-06
0.511186
2.41816e-06
0.51119
2.36941e-06
0.511194
2.36369e-06
0.511198
2.53466e-06
0.511201
2.74746e-06
0.511203
2.7632e-06
0.511206
2.5544e-06
0.511208
2.25183e-06
0.511211
1.98928e-06
0.511214
1.97748e-06
0.511216
2.36933e-06
0.511219
2.90619e-06
0.51122
3.15974e-06
0.511222
2.98944e-06
0.511225
2.53078e-06
0.511229
2.06311e-06
0.511233
1.90086e-06
0.511238
2.15997e-06
0.511241
2.56019e-06
0.511243
2.68058e-06
0.511246
2.48184e-06
0.511248
2.27466e-06
0.511251
2.30479e-06
0.511253
2.56681e-06
0.511255
2.86039e-06
0.511257
3.05674e-06
0.511259
3.0747e-06
0.511261
2.86511e-06
0.511265
2.70718e-06
0.511268
2.79451e-06
0.511271
2.89824e-06
0.511274
2.86322e-06
0.511277
2.62804e-06
0.51128
2.2074e-06
0.511284
1.89966e-06
0.511287
1.90625e-06
0.51129
2.20957e-06
0.511293
2.66081e-06
0.511294
2.83074e-06
0.511296
2.6238e-06
0.511299
2.42529e-06
0.511302
2.29415e-06
0.511305
2.1264e-06
0.511309
2.03451e-06
0.511313
1.99764e-06
0.511316
1.93843e-06
0.51132
1.96693e-06
0.511324
2.19955e-06
0.511327
2.64186e-06
0.511329
3.04633e-06
0.511331
3.07885e-06
0.511333
2.77462e-06
0.511336
2.36798e-06
0.511339
2.04417e-06
0.511342
1.98791e-06
0.511345
2.21804e-06
0.511349
2.53015e-06
0.511352
2.68192e-06
0.511355
2.64398e-06
0.511358
2.60681e-06
0.511361
2.60528e-06
0.511364
2.54696e-06
0.511367
2.48188e-06
0.51137
2.3751e-06
0.511373
2.22175e-06
0.511377
2.29075e-06
0.511379
2.63979e-06
0.511381
3.00249e-06
0.511383
3.1485e-06
0.511385
2.98365e-06
0.511387
2.65871e-06
0.51139
2.38165e-06
0.511393
2.25853e-06
0.511397
2.41373e-06
0.5114
2.72242e-06
0.511403
2.79632e-06
0.511405
2.58725e-06
0.511408
2.31369e-06
0.511412
2.12061e-06
0.511415
2.15523e-06
0.511418
2.43033e-06
0.511421
2.78526e-06
0.511423
3.03715e-06
0.511425
3.01921e-06
0.511427
2.77259e-06
0.51143
2.50153e-06
0.511432
2.28075e-06
0.511436
2.12038e-06
0.511439
2.07436e-06
0.511443
2.18343e-06
0.511446
2.45139e-06
0.511448
2.76002e-06
0.511451
2.85988e-06
0.511453
2.6226e-06
0.511457
2.22603e-06
0.51146
1.9694e-06
0.511464
1.94372e-06
0.511468
2.05947e-06
0.511471
2.30993e-06
0.511474
2.67352e-06
0.511476
2.91691e-06
0.511479
2.91699e-06
0.511481
2.79095e-06
0.511484
2.57116e-06
0.511487
2.27861e-06
0.511491
2.05873e-06
0.511495
2.04406e-06
0.511498
2.29815e-06
0.511501
2.63521e-06
0.511503
2.76375e-06
0.511506
2.71163e-06
0.511508
2.68632e-06
0.511511
2.72471e-06
0.511513
2.68285e-06
0.511516
2.50072e-06
0.51152
2.38864e-06
0.511523
2.48144e-06
0.511526
2.65963e-06
0.511529
2.81892e-06
0.511532
2.90083e-06
0.511535
2.88606e-06
0.511537
2.81627e-06
0.51154
2.73697e-06
0.511543
2.70991e-06
0.511546
2.71957e-06
0.511549
2.68438e-06
0.511552
2.65052e-06
0.511555
2.6841e-06
0.511558
2.62083e-06
0.511561
2.31454e-06
0.511565
2.04721e-06
0.511569
2.11077e-06
0.511572
2.41522e-06
0.511575
2.7486e-06
0.511578
2.90956e-06
0.51158
2.75371e-06
0.511584
2.50238e-06
2.6393e-06
0.510847
1.11986e-07
0.510846
1.12532e-06
0.510847
1.65791e-06
0.510847
1.51923e-06
0.510848
1.78691e-06
0.510848
1.87175e-06
0.510849
1.74087e-06
0.510849
2.14791e-06
0.510848
2.27385e-06
0.510848
2.08392e-06
0.510849
1.90141e-06
0.51085
1.81967e-06
0.510851
2.0446e-06
0.510851
2.24667e-06
0.510852
2.00929e-06
0.510852
1.84901e-06
0.510852
2.18457e-06
0.510852
2.47798e-06
0.510851
2.70136e-06
0.51085
2.97117e-06
0.51085
2.70065e-06
0.510851
2.18168e-06
0.510851
2.26033e-06
0.510851
2.50611e-06
0.510852
2.0368e-06
0.510853
1.7118e-06
0.510853
1.92964e-06
0.510854
1.98866e-06
0.510855
1.94159e-06
0.510856
2.04014e-06
0.510856
2.33946e-06
0.510856
2.66757e-06
0.510856
2.66089e-06
0.510856
2.5733e-06
0.510855
2.5221e-06
0.510856
2.16025e-06
0.510856
2.01295e-06
0.510856
2.3313e-06
0.510857
2.39921e-06
0.510857
2.26315e-06
0.510857
2.42492e-06
0.510857
2.57391e-06
0.510857
2.2568e-06
0.510858
1.76718e-06
0.510859
1.69933e-06
0.510859
2.23238e-06
0.510858
2.58113e-06
0.510859
2.1592e-06
0.51086
1.83149e-06
0.51086
2.01569e-06
0.510861
2.17151e-06
0.510861
2.17314e-06
0.510861
2.02123e-06
0.510862
1.91788e-06
0.510863
2.04355e-06
0.510864
2.11538e-06
0.510865
2.26574e-06
0.510865
2.5124e-06
0.510864
2.35239e-06
0.510864
2.15302e-06
0.510864
2.36222e-06
0.510864
2.50135e-06
0.510864
2.40231e-06
0.510865
2.28602e-06
0.510865
2.22018e-06
0.510865
2.2184e-06
0.510865
2.25568e-06
0.510865
2.40178e-06
0.510865
2.59513e-06
0.510865
2.6264e-06
0.510865
2.51134e-06
0.510865
2.34132e-06
0.510866
2.09054e-06
0.510866
1.86034e-06
0.510867
1.9686e-06
0.510868
2.29695e-06
0.510867
2.48465e-06
0.510867
2.46743e-06
0.510868
2.26923e-06
0.510869
1.911e-06
0.51087
1.61996e-06
0.510871
1.66937e-06
0.510872
2.08859e-06
0.510871
2.60687e-06
0.51087
2.84729e-06
0.510869
2.6187e-06
0.510869
2.12068e-06
0.51087
1.74041e-06
0.510871
1.60692e-06
0.510872
1.60682e-06
0.510872
1.73854e-06
0.510873
1.97257e-06
0.510873
2.17345e-06
0.510873
2.34194e-06
0.510874
2.4898e-06
0.510874
2.56119e-06
0.510875
2.50588e-06
0.510875
2.24497e-06
0.510876
1.9574e-06
0.510876
2.00465e-06
0.510876
2.42921e-06
0.510874
2.95954e-06
0.510873
3.21932e-06
0.510872
3.00864e-06
0.510872
2.59798e-06
0.510873
2.26823e-06
0.510874
2.16152e-06
0.510874
2.35884e-06
0.510874
2.53685e-06
0.510874
2.44091e-06
0.510874
2.34828e-06
0.510874
2.40505e-06
0.510874
2.518e-06
0.510873
2.60567e-06
0.510873
2.5487e-06
0.510873
2.41369e-06
0.510874
2.34645e-06
0.510874
2.34875e-06
0.510874
2.37932e-06
0.510874
2.32434e-06
0.510874
2.09517e-06
0.510874
1.86124e-06
0.510875
1.87271e-06
0.510875
2.13459e-06
0.510876
2.44835e-06
0.510876
2.64662e-06
0.510876
2.68112e-06
0.510876
2.50199e-06
0.510876
2.04619e-06
0.510876
1.6195e-06
0.510877
1.64885e-06
0.510878
2.00167e-06
0.510878
2.2885e-06
0.510878
2.34264e-06
0.510878
2.15188e-06
0.510879
1.92056e-06
0.51088
1.87987e-06
0.510881
2.04669e-06
0.510882
2.30466e-06
0.510882
2.40989e-06
0.510882
2.3442e-06
0.510883
2.38524e-06
0.510883
2.50549e-06
0.510883
2.55646e-06
0.510884
2.57317e-06
0.510883
2.48609e-06
0.510883
2.24765e-06
0.510883
1.93089e-06
0.510883
1.66879e-06
0.510884
1.74201e-06
0.510885
2.04579e-06
0.510886
2.20551e-06
0.510886
2.25376e-06
0.510886
2.27515e-06
0.510886
2.20029e-06
0.510886
2.17269e-06
0.510885
2.28858e-06
0.510885
2.43058e-06
0.510884
2.46568e-06
0.510884
2.3315e-06
0.510885
2.20328e-06
0.510885
2.27683e-06
0.510886
2.44064e-06
0.510886
2.56289e-06
0.510886
2.56572e-06
0.510886
2.36916e-06
0.510886
2.11288e-06
0.510886
2.0072e-06
0.510886
2.10283e-06
0.510887
2.27566e-06
0.510887
2.33748e-06
0.510887
2.33272e-06
0.510887
2.35118e-06
0.510888
2.28884e-06
0.510888
2.23539e-06
0.510888
2.28202e-06
0.510888
2.19856e-06
0.510888
1.97191e-06
0.510889
1.82716e-06
0.51089
1.83359e-06
0.510891
2.04886e-06
0.510892
2.43131e-06
0.510892
2.79581e-06
0.510891
2.97236e-06
0.510891
2.79571e-06
0.510891
2.41467e-06
0.510891
2.23328e-06
0.510892
2.30464e-06
0.510892
2.43946e-06
0.510892
2.50788e-06
0.510891
2.37506e-06
0.510891
2.09455e-06
0.510892
1.87632e-06
0.510893
1.87475e-06
0.510894
2.14136e-06
0.510894
2.47907e-06
0.510894
2.63859e-06
0.510894
2.644e-06
0.510894
2.58964e-06
0.510894
2.51451e-06
0.510893
2.43666e-06
0.510893
2.27304e-06
0.510894
2.03375e-06
0.510894
1.93072e-06
0.510895
2.06278e-06
0.510896
2.28701e-06
0.510895
2.38545e-06
0.510895
2.29539e-06
0.510895
2.13352e-06
0.510895
1.93453e-06
0.510896
1.69188e-06
0.510897
1.58898e-06
0.510898
1.70846e-06
0.510899
1.91337e-06
0.5109
2.1531e-06
0.5109
2.33579e-06
0.5109
2.30146e-06
0.5109
2.07463e-06
0.5109
1.82864e-06
0.5109
1.79661e-06
0.510901
1.99378e-06
0.510902
2.1216e-06
0.510902
2.03934e-06
0.510903
1.9388e-06
0.510904
2.05522e-06
0.510904
2.32216e-06
0.510904
2.41432e-06
0.510904
2.29768e-06
0.510905
2.19802e-06
0.510905
2.19162e-06
0.510906
2.30946e-06
0.510906
2.50251e-06
0.510906
2.608e-06
0.510907
2.60544e-06
0.510907
2.55275e-06
0.510907
2.47503e-06
0.510907
2.4267e-06
0.510908
2.40104e-06
0.510908
2.36096e-06
0.510908
2.41579e-06
0.510908
2.58636e-06
0.510908
2.65125e-06
0.510907
2.5423e-06
0.510907
2.38468e-06
0.510907
2.23185e-06
0.510908
2.21521e-06
0.510908
2.40393e-06
0.510908
2.53625e-06
0.510908
2.56989e-06
2.538e-06
0.510848
2.98696e-07
0.510848
5.25214e-07
0.510849
8.30305e-07
0.510849
1.38825e-06
0.510849
1.55908e-06
0.510849
1.74427e-06
0.510849
1.92692e-06
0.51085
1.74794e-06
0.51085
2.12385e-06
0.510849
2.47181e-06
0.510849
1.95301e-06
0.51085
1.68634e-06
0.510849
2.11208e-06
0.51085
2.05446e-06
0.51085
1.77296e-06
0.51085
2.07487e-06
0.510849
2.39157e-06
0.51085
2.33993e-06
0.51085
1.89685e-06
0.510852
1.36642e-06
0.510853
1.56375e-06
0.510853
2.04391e-06
0.510854
1.86526e-06
0.510855
1.58585e-06
0.510855
1.68509e-06
0.510855
1.95525e-06
0.510855
2.01269e-06
0.510855
1.96982e-06
0.510854
2.2079e-06
0.510854
2.42444e-06
0.510854
2.03304e-06
0.510856
1.43135e-06
0.510856
1.69362e-06
0.510857
2.24883e-06
0.510857
2.46926e-06
0.510856
2.5558e-06
0.510856
2.32152e-06
0.510856
2.09658e-06
0.510857
2.29101e-06
0.510856
2.47027e-06
0.510856
2.28251e-06
0.510857
2.11126e-06
0.510857
2.12517e-06
0.510857
2.16648e-06
0.510856
2.32588e-06
0.510856
2.34347e-06
0.510856
2.0852e-06
0.510857
1.89303e-06
0.510857
1.79621e-06
0.510857
1.74552e-06
0.510857
1.80159e-06
0.510858
1.84103e-06
0.510858
1.8563e-06
0.510858
1.97891e-06
0.510858
2.07687e-06
0.510858
1.99801e-06
0.510858
1.75758e-06
0.510859
1.55066e-06
0.51086
1.57965e-06
0.51086
1.78301e-06
0.510861
2.12096e-06
0.510861
2.39338e-06
0.510861
2.23313e-06
0.510862
1.73239e-06
0.510862
1.3815e-06
0.510863
1.4004e-06
0.510864
1.62074e-06
0.510864
1.96184e-06
0.510865
2.30488e-06
0.510865
2.4361e-06
0.510865
2.42555e-06
0.510865
2.43349e-06
0.510864
2.36941e-06
0.510864
2.14086e-06
0.510864
2.03281e-06
0.510864
2.25242e-06
0.510864
2.51596e-06
0.510864
2.58383e-06
0.510864
2.40861e-06
0.510864
1.95405e-06
0.510864
1.41178e-06
0.510865
1.108e-06
0.510866
1.17079e-06
0.510867
1.56292e-06
0.510867
2.07825e-06
0.510868
2.31914e-06
0.510868
2.13615e-06
0.510868
1.7984e-06
0.510868
1.61454e-06
0.510868
1.61992e-06
0.510868
1.71247e-06
0.510868
1.90014e-06
0.510868
2.17772e-06
0.510868
2.47607e-06
0.510867
2.67969e-06
0.510867
2.62732e-06
0.510867
2.32204e-06
0.510868
1.90686e-06
0.510868
1.53289e-06
0.510869
1.4124e-06
0.51087
1.6323e-06
0.51087
2.07432e-06
0.510871
2.60525e-06
0.510871
2.94384e-06
0.510871
2.88317e-06
0.510871
2.51205e-06
0.510871
2.02806e-06
0.510871
1.80366e-06
0.510872
1.94087e-06
0.510872
1.99343e-06
0.510873
1.82703e-06
0.510874
1.6797e-06
0.510874
1.65912e-06
0.510875
1.81123e-06
0.510876
2.01304e-06
0.510876
2.03791e-06
0.510877
1.91166e-06
0.510877
1.7546e-06
0.510878
1.66715e-06
0.510878
1.80381e-06
0.510878
2.10999e-06
0.510878
2.25713e-06
0.510878
2.18346e-06
0.510878
2.14875e-06
0.510878
2.17744e-06
0.510878
2.13211e-06
0.510879
2.0498e-06
0.51088
1.97885e-06
0.51088
1.86488e-06
0.51088
1.6762e-06
0.51088
1.50851e-06
0.51088
1.51506e-06
0.510881
1.74734e-06
0.510881
2.09626e-06
0.510881
2.37044e-06
0.51088
2.41652e-06
0.51088
2.19786e-06
0.51088
1.90514e-06
0.510881
1.8597e-06
0.510881
2.03587e-06
0.510881
2.16692e-06
0.510881
2.25432e-06
0.510882
2.3246e-06
0.510882
2.27053e-06
0.510882
2.17031e-06
0.510883
2.13285e-06
0.510883
2.16886e-06
0.510882
2.24681e-06
0.510882
2.17415e-06
0.510882
1.93972e-06
0.510882
1.77142e-06
0.510883
1.66694e-06
0.510883
1.60032e-06
0.510884
1.68418e-06
0.510884
1.77476e-06
0.510885
1.70945e-06
0.510885
1.68095e-06
0.510886
1.88597e-06
0.510886
2.23387e-06
0.510886
2.47094e-06
0.510886
2.4294e-06
0.510886
2.18718e-06
0.510886
1.90632e-06
0.510887
1.7113e-06
0.510888
1.70875e-06
0.510888
1.86301e-06
0.510889
1.99893e-06
0.510889
2.00642e-06
0.510889
1.95095e-06
0.510889
1.91056e-06
0.51089
1.79309e-06
0.51089
1.63668e-06
0.510891
1.66245e-06
0.510892
1.79716e-06
0.510892
1.89155e-06
0.510892
2.02348e-06
0.510892
2.11548e-06
0.510892
2.07476e-06
0.510892
2.0209e-06
0.510892
1.94582e-06
0.510892
1.82153e-06
0.510893
1.78432e-06
0.510894
1.94149e-06
0.510894
2.34208e-06
0.510894
2.78106e-06
0.510894
2.88938e-06
0.510893
2.6557e-06
0.510893
2.32263e-06
0.510894
2.05762e-06
0.510894
2.01623e-06
0.510894
2.19223e-06
0.510894
2.37666e-06
0.510894
2.39751e-06
0.510893
2.2304e-06
0.510893
2.07173e-06
0.510894
2.10574e-06
0.510894
2.22076e-06
0.510894
2.2754e-06
0.510895
2.28373e-06
0.510895
2.24789e-06
0.510895
2.1984e-06
0.510895
2.18445e-06
0.510895
2.09953e-06
0.510895
1.89224e-06
0.510896
1.73719e-06
0.510896
1.71472e-06
0.510897
1.71801e-06
0.510897
1.71458e-06
0.510898
1.80532e-06
0.510898
1.96142e-06
0.510897
1.98107e-06
0.510897
1.83703e-06
0.510897
1.67148e-06
0.510898
1.54348e-06
0.510898
1.54483e-06
0.510899
1.73614e-06
0.510899
1.97826e-06
0.510899
2.11935e-06
0.510899
2.05919e-06
0.510899
1.89254e-06
0.510899
1.90756e-06
0.510899
2.08647e-06
0.510899
2.15557e-06
0.510899
2.01673e-06
0.510899
1.8321e-06
0.510899
1.83348e-06
0.5109
2.01726e-06
0.5109
2.20376e-06
0.5109
2.29479e-06
0.5109
2.26789e-06
0.5109
2.21644e-06
0.5109
2.26111e-06
0.5109
2.3637e-06
0.5109
2.41951e-06
0.510901
2.37263e-06
0.510901
2.24689e-06
0.510901
2.15276e-06
0.510901
2.13752e-06
0.510902
2.07759e-06
0.510902
1.96166e-06
0.510903
1.97746e-06
0.510903
2.09235e-06
0.510904
2.12656e-06
0.510904
2.14554e-06
0.510904
2.17752e-06
0.510904
2.11938e-06
0.510904
2.1178e-06
0.510905
2.13382e-06
0.510905
2.05955e-06
2.08333e-06
0.510848
3.24754e-08
0.510847
9.95934e-07
0.510847
1.26383e-06
0.510847
9.34879e-07
0.510848
9.18309e-07
0.510849
9.68326e-07
0.51085
9.3988e-07
0.510851
9.9131e-07
0.510851
1.43415e-06
0.510852
1.7647e-06
0.510852
1.73587e-06
0.510852
1.72954e-06
0.510852
1.99719e-06
0.510852
2.09008e-06
0.510852
1.6941e-06
0.510853
1.56785e-06
0.510853
1.71517e-06
0.510854
1.70429e-06
0.510854
2.05119e-06
0.510853
2.50944e-06
0.510852
2.26395e-06
0.510852
2.03496e-06
0.510852
2.15983e-06
0.510851
2.03266e-06
0.510851
1.56782e-06
0.510852
1.26796e-06
0.510853
1.34634e-06
0.510853
1.6598e-06
0.510853
1.87587e-06
0.510854
1.72886e-06
0.510854
1.86169e-06
0.510854
1.98525e-06
0.510854
1.84411e-06
0.510854
2.05859e-06
0.510854
1.85495e-06
0.510856
1.29655e-06
0.510857
1.34821e-06
0.510857
1.65088e-06
0.510858
1.9222e-06
0.510858
2.0302e-06
0.510859
1.70425e-06
0.510859
1.40767e-06
0.51086
1.80494e-06
0.510859
2.49167e-06
0.510859
2.4801e-06
0.510859
2.09079e-06
0.510859
2.00815e-06
0.510859
1.84568e-06
0.51086
1.6467e-06
0.51086
1.66097e-06
0.51086
1.55467e-06
0.51086
1.43535e-06
0.510861
1.47206e-06
0.510861
1.62195e-06
0.510861
1.90558e-06
0.510861
1.92143e-06
0.510862
1.51503e-06
0.510862
1.28526e-06
0.510862
1.54353e-06
0.510862
1.89242e-06
0.510862
1.97694e-06
0.510862
1.88877e-06
0.510863
1.82104e-06
0.510863
1.75133e-06
0.510862
1.75147e-06
0.510862
1.91305e-06
0.510862
1.92157e-06
0.510862
1.84597e-06
0.510862
2.08671e-06
0.510862
2.31216e-06
0.510862
2.14724e-06
0.510863
1.8313e-06
0.510864
1.56451e-06
0.510864
1.46901e-06
0.510865
1.69834e-06
0.510865
2.09139e-06
0.510865
2.31972e-06
0.510866
2.16824e-06
0.510866
1.7153e-06
0.510867
1.31524e-06
0.510867
1.13515e-06
0.510867
1.16247e-06
0.510867
1.3471e-06
0.510867
1.55115e-06
0.510867
1.70627e-06
0.510868
1.74333e-06
0.510868
1.53112e-06
0.510869
1.21348e-06
0.51087
1.05968e-06
0.51087
1.20593e-06
0.51087
1.58017e-06
0.51087
1.99671e-06
0.51087
2.22951e-06
0.51087
2.30694e-06
0.510871
2.30316e-06
0.510871
2.18829e-06
0.510871
1.9888e-06
0.510871
1.76863e-06
0.510871
1.5507e-06
0.510871
1.4576e-06
0.510871
1.64423e-06
0.510872
1.96603e-06
0.510872
2.11679e-06
0.510873
2.05706e-06
0.510874
1.95025e-06
0.510874
1.87345e-06
0.510875
1.76106e-06
0.510875
1.59266e-06
0.510875
1.51102e-06
0.510876
1.54088e-06
0.510876
1.59078e-06
0.510876
1.70768e-06
0.510876
1.86443e-06
0.510876
1.94041e-06
0.510876
1.96744e-06
0.510876
1.9789e-06
0.510876
1.96666e-06
0.510876
1.91866e-06
0.510875
1.77361e-06
0.510876
1.63729e-06
0.510876
1.72655e-06
0.510876
1.9838e-06
0.510876
2.19255e-06
0.510876
2.27437e-06
0.510876
2.21964e-06
0.510876
2.02235e-06
0.510876
1.77699e-06
0.510877
1.65023e-06
0.510877
1.65779e-06
0.510877
1.62154e-06
0.510877
1.52217e-06
0.510877
1.49272e-06
0.510877
1.51367e-06
0.510878
1.5758e-06
0.510878
1.74307e-06
0.510879
1.96027e-06
0.510879
2.13076e-06
0.510879
2.14113e-06
0.510879
2.02229e-06
0.510879
2.01196e-06
0.510879
2.0663e-06
0.510879
2.04124e-06
0.510879
2.03819e-06
0.510879
1.99613e-06
0.51088
1.80624e-06
0.51088
1.60742e-06
0.510881
1.50091e-06
0.510882
1.51613e-06
0.510882
1.6025e-06
0.510883
1.63073e-06
0.510883
1.6276e-06
0.510883
1.56996e-06
0.510883
1.37018e-06
0.510884
1.22689e-06
0.510884
1.2948e-06
0.510884
1.42093e-06
0.510885
1.4864e-06
0.510885
1.55054e-06
0.510885
1.69781e-06
0.510886
1.86965e-06
0.510887
1.94802e-06
0.510887
1.94431e-06
0.510887
1.84173e-06
0.510887
1.63465e-06
0.510887
1.51368e-06
0.510887
1.56086e-06
0.510888
1.66477e-06
0.510888
1.75623e-06
0.510888
1.79524e-06
0.510888
1.83408e-06
0.510888
1.88894e-06
0.510888
1.83086e-06
0.510888
1.73583e-06
0.510888
1.7136e-06
0.510888
1.6484e-06
0.510889
1.62241e-06
0.510889
1.74968e-06
0.510889
1.83444e-06
0.510889
1.84699e-06
0.510889
1.93346e-06
0.510889
2.06035e-06
0.510889
2.13385e-06
0.510889
2.0967e-06
0.510889
2.01114e-06
0.51089
1.99909e-06
0.510891
2.02852e-06
0.510891
2.06421e-06
0.510891
2.08508e-06
0.510892
1.96914e-06
0.510892
1.74634e-06
0.510892
1.5932e-06
0.510893
1.60779e-06
0.510894
1.78902e-06
0.510894
1.97706e-06
0.510894
2.02587e-06
0.510894
2.00642e-06
0.510894
1.97707e-06
0.510895
1.92186e-06
0.510895
1.8882e-06
0.510896
1.85646e-06
0.510896
1.78281e-06
0.510896
1.75411e-06
0.510897
1.75101e-06
0.510897
1.63298e-06
0.510897
1.46889e-06
0.510898
1.39649e-06
0.510898
1.35893e-06
0.510898
1.27777e-06
0.510899
1.20546e-06
0.5109
1.21736e-06
0.5109
1.27568e-06
0.510901
1.36294e-06
0.510901
1.52302e-06
0.510901
1.62856e-06
0.510901
1.55979e-06
0.510901
1.40092e-06
0.510902
1.30957e-06
0.510903
1.46617e-06
0.510903
1.78178e-06
0.510903
1.90677e-06
0.510903
1.81707e-06
0.510903
1.76088e-06
0.510904
1.82924e-06
0.510904
1.90049e-06
0.510904
1.83956e-06
0.510904
1.73575e-06
0.510904
1.72272e-06
0.510905
1.80233e-06
0.510905
1.98811e-06
0.510905
2.21769e-06
0.510905
2.33947e-06
0.510905
2.30299e-06
0.510905
2.19348e-06
0.510905
2.13636e-06
0.510905
2.15446e-06
0.510905
2.16051e-06
0.510905
2.12661e-06
0.510905
2.13579e-06
0.510905
2.13372e-06
0.510905
1.97504e-06
0.510906
1.80962e-06
0.510906
1.7953e-06
0.510906
1.7771e-06
0.510907
1.75518e-06
0.510907
1.82759e-06
0.510907
1.8302e-06
0.510908
1.77084e-06
0.510908
1.93026e-06
0.510908
2.04191e-06
1.95035e-06
0.510847
2.16016e-07
0.510848
1.78086e-07
0.510848
5.30121e-07
0.510848
8.84548e-07
0.510848
9.31646e-07
0.510848
1.16375e-06
0.510848
1.27834e-06
0.510848
1.26746e-06
0.510848
8.61271e-07
0.510849
7.99156e-07
0.51085
1.21777e-06
0.51085
1.48028e-06
0.510851
1.4003e-06
0.510851
1.46149e-06
0.510851
1.77935e-06
0.510851
1.71971e-06
0.510851
1.53962e-06
0.510851
1.88518e-06
0.510851
2.04295e-06
0.510852
1.74339e-06
0.510852
1.75156e-06
0.510853
1.68589e-06
0.510853
1.26177e-06
0.510854
1.21755e-06
0.510854
1.4484e-06
0.510854
1.68897e-06
0.510854
1.78224e-06
0.510854
1.48349e-06
0.510854
1.33685e-06
0.510855
1.32627e-06
0.510855
1.29412e-06
0.510856
1.55961e-06
0.510856
1.8038e-06
0.510856
1.62252e-06
0.510857
1.38292e-06
0.510856
1.38558e-06
0.510856
1.66386e-06
0.510856
2.06498e-06
0.510856
1.87952e-06
0.510856
1.33787e-06
0.510857
1.37899e-06
0.510857
1.72046e-06
0.510856
1.87967e-06
0.510857
1.93641e-06
0.510858
1.70496e-06
0.510858
1.36353e-06
0.510859
1.57474e-06
0.510859
2.01942e-06
0.510859
1.89039e-06
0.510859
1.41787e-06
0.510859
1.07623e-06
0.510859
1.20922e-06
0.510859
1.66413e-06
0.510859
1.71114e-06
0.51086
1.38391e-06
0.51086
1.18003e-06
0.510861
1.0717e-06
0.510861
1.05936e-06
0.510861
1.25638e-06
0.510862
1.43032e-06
0.510862
1.4584e-06
0.510863
1.43618e-06
0.510863
1.43458e-06
0.510864
1.40505e-06
0.510864
1.32559e-06
0.510864
1.50267e-06
0.510864
1.93528e-06
0.510864
2.19522e-06
0.510864
2.26551e-06
0.510864
2.1788e-06
0.510864
1.75643e-06
0.510865
1.30212e-06
0.510865
1.19847e-06
0.510865
1.35716e-06
0.510865
1.59944e-06
0.510866
1.77788e-06
0.510866
1.70401e-06
0.510867
1.41143e-06
0.510868
1.12434e-06
0.510868
1.02646e-06
0.510868
1.14111e-06
0.510868
1.37078e-06
0.510868
1.5395e-06
0.510868
1.54541e-06
0.510868
1.44722e-06
0.510868
1.32695e-06
0.510869
1.25152e-06
0.510869
1.20593e-06
0.510869
1.1247e-06
0.510869
1.0418e-06
0.510869
1.07472e-06
0.51087
1.34532e-06
0.51087
1.82409e-06
0.51087
2.19152e-06
0.510871
2.14344e-06
0.510871
1.76836e-06
0.510872
1.40604e-06
0.510872
1.28364e-06
0.510872
1.44092e-06
0.510872
1.74746e-06
0.510871
2e-06
0.510871
2.14184e-06
0.510871
2.21758e-06
0.510871
2.19339e-06
0.510871
2.09538e-06
0.510871
2.00739e-06
0.510871
1.86856e-06
0.510871
1.61288e-06
0.510871
1.40494e-06
0.510871
1.36231e-06
0.510871
1.32995e-06
0.510872
1.29292e-06
0.510872
1.37732e-06
0.510873
1.50603e-06
0.510873
1.57904e-06
0.510873
1.57158e-06
0.510874
1.45585e-06
0.510874
1.37124e-06
0.510875
1.37596e-06
0.510875
1.32684e-06
0.510876
1.29971e-06
0.510876
1.47388e-06
0.510876
1.76065e-06
0.510877
1.98562e-06
0.510877
2.03933e-06
0.510877
1.84068e-06
0.510877
1.48435e-06
0.510878
1.21325e-06
0.510878
1.16809e-06
0.510879
1.24354e-06
0.510879
1.24649e-06
0.510879
1.21697e-06
0.51088
1.29889e-06
0.51088
1.41571e-06
0.51088
1.45394e-06
0.51088
1.4315e-06
0.510881
1.39749e-06
0.510882
1.41682e-06
0.510882
1.5171e-06
0.510883
1.69719e-06
0.510883
1.90584e-06
0.510883
1.98745e-06
0.510883
1.92076e-06
0.510883
1.79933e-06
0.510883
1.63116e-06
0.510884
1.47307e-06
0.510884
1.42184e-06
0.510884
1.47863e-06
0.510884
1.54703e-06
0.510884
1.47252e-06
0.510884