/*--------------------------------*- C++ -*----------------------------------*\
| =========                 |                                                 |
| \\      /  F ield         | OpenFOAM: The Open Source CFD Toolbox           |
|  \\    /   O peration     | Version:  2406                                  |
|   \\  /    A nd           | Website:  www.openfoam.com                      |
|    \\/     M anipulation  |                                                 |
\*---------------------------------------------------------------------------*/
FoamFile
{
    version     2.0;
    format      ascii;
    arch        "LSB;label=32;scalar=64";
    class       volScalarField;
    location    "1.45";
    object      p_rgh;
}
// * * * * * * * * * * * * * * * * * * * * * * * * * * * * * * * * * * * * * //

dimensions      [1 -1 -2 0 0 0 0];

internalField   nonuniform List<scalar> 
6250
(
0.878413
-3218.44
-1030.72
544.542
499.621
30.8973
-129.588
-52.3492
24.0073
30.3506
10.1989
0.596717
2.85686
6.53358
7.24742
6.41354
5.85909
5.8638
6.00335
6.03746
5.98394
5.92861
5.90307
5.8841
5.86187
5.83499
5.80861
5.78371
5.75207
5.72578
5.70324
5.67879
5.65804
5.63072
5.59995
5.57878
5.55623
5.52264
5.49332
5.47001
5.44709
5.42997
5.40874
5.38086
5.35642
5.33186
5.30434
5.27487
5.24349
5.2172
5.19403
5.16819
5.14394
5.116
5.08298
5.05643
5.03461
5.00957
4.98004
4.94826
4.91998
4.89547
4.87138
4.84632
4.81761
4.79011
4.76926
4.74893
4.72477
4.70089
4.67814
4.65322
4.62792
4.60354
4.57965
4.55516
4.52815
4.50406
4.48279
4.45831
4.4313
4.4035
4.37727
4.35171
4.32716
4.30698
4.28521
4.25804
4.23048
4.20383
4.17835
4.15938
4.1435
4.11823
4.08514
4.05431
4.02725
4.0027
3.98045
3.95873
3.93469
3.90834
3.8818
3.854
3.82589
3.80034
3.77587
3.75187
3.7263
3.69672
3.66737
3.63899
3.61152
3.58849
3.5662
3.54168
3.51696
3.49061
3.46113
3.42965
3.39771
3.36619
3.33798
3.31631
3.29772
3.27701
3.25267
3.22406
3.1917
3.15886
3.1288
3.10229
3.07838
3.05449
3.02962
3.0069
2.98702
2.96668
2.94254
2.91247
2.87951
2.84753
2.81576
2.7868
2.76304
2.7407
2.71914
2.69821
2.67456
2.64859
2.62064
2.5901
2.5597
2.52988
2.49994
2.4724
2.44634
2.41987
2.39607
2.37581
2.35556
2.33295
2.30906
2.28526
2.2601
2.23478
2.21253
2.19059
2.16574
2.13867
2.11016
2.08106
2.05228
2.02638
2.00494
1.98337
1.95929
1.93542
1.91129
1.88642
1.86306
1.8416
1.82106
1.79866
1.77282
1.7465
1.71992
1.69181
1.66505
1.63961
1.61182
1.58246
1.55408
1.52503
1.49366
1.46292
1.43443
1.40564
1.37611
1.34731
1.31791
1.2869
1.25618
1.22694
1.19867
1.17038
1.14169
1.11369
1.08591
1.05699
1.02825
1.0006
0.973495
0.94638
0.918519
0.89137
0.865236
0.838704
0.814098
0.790061
0.761589
0.731341
0.703388
0.677466
0.653939
0.63185
0.608888
0.586078
0.564966
0.543351
0.519465
0.494184
0.469045
0.446871
0.426873
0.404945
0.380613
0.353605
0.324534
0.296867
0.270465
0.242608
0.212688
0.182968
0.154724
0.125864
0.0967268
0.0680612
0.0423198
0.0103139
0.842901
-3218.51
-1030.76
544.554
499.634
30.8928
-129.596
-52.3504
24.0079
30.3465
10.1965
0.598144
2.85654
6.53243
7.2428
6.40812
5.86176
5.87229
6.00662
6.0323
5.98226
5.93222
5.90289
5.88275
5.86049
5.8328
5.8072
5.78074
5.751
5.72819
5.7078
5.67982
5.64925
5.62443
5.60068
5.5726
5.54965
5.52771
5.50344
5.48107
5.45559
5.42906
5.4016
5.3736
5.35005
5.32881
5.30488
5.27559
5.24376
5.21665
5.19433
5.17044
5.14292
5.11195
5.08167
5.05801
5.03674
5.01097
4.9814
4.95042
4.92088
4.89429
4.86805
4.84121
4.81517
4.79229
4.77206
4.75091
4.72646
4.69994
4.67565
4.65314
4.6307
4.60637
4.57968
4.55322
4.52542
4.50135
4.48356
4.46252
4.43532
4.40521
4.37739
4.35194
4.32472
4.29933
4.27681
4.25419
4.23218
4.21149
4.18894
4.16322
4.13866
4.11425
4.08552
4.05454
4.02593
4.00089
3.97807
3.95799
3.9377
3.91006
3.87759
3.84676
3.81977
3.79973
3.78304
3.7633
3.73717
3.70205
3.66373
3.62966
3.60182
3.58167
3.56461
3.54542
3.52281
3.49492
3.46265
3.42874
3.3968
3.36851
3.34176
3.31779
3.29745
3.27596
3.24961
3.21947
3.18794
3.15668
3.12808
3.10277
3.0792
3.05706
3.03441
3.01097
2.98907
2.9674
2.94266
2.91193
2.87659
2.84245
2.81084
2.78292
2.76152
2.74212
2.72101
2.69948
2.67679
2.65309
2.62707
2.59533
2.5606
2.52605
2.49236
2.46407
2.44201
2.42069
2.39847
2.37631
2.3547
2.33308
2.30994
2.28759
2.26525
2.23873
2.21183
2.18758
2.16235
2.13529
2.10815
2.08161
2.05428
2.02623
2.00189
1.98064
1.95794
1.93542
1.91484
1.89404
1.87142
1.8461
1.81997
1.79383
1.7657
1.73928
1.71725
1.69385
1.66782
1.64257
1.61504
1.58332
1.5524
1.52395
1.49446
1.46414
1.43574
1.40787
1.37784
1.34663
1.31596
1.2852
1.25407
1.22424
1.19694
1.17039
1.14196
1.11327
1.0861
1.05776
1.0282
1.00025
0.973884
0.947553
0.919936
0.892309
0.865813
0.837253
0.808524
0.784538
0.761638
0.736228
0.70944
0.680825
0.652412
0.628213
0.606142
0.582743
0.560422
0.540934
0.521986
0.50081
0.475048
0.448103
0.42431
0.401013
0.377273
0.353268
0.326454
0.298124
0.270985
0.243723
0.213389
0.18188
0.153177
0.125673
0.0975117
0.0697209
0.0402595
0.0139774
0.84279
-3218.5
-1030.74
544.563
499.636
30.892
-129.597
-52.3477
24.0175
30.3575
10.1986
0.594458
2.85399
6.5322
7.24784
6.41041
5.8534
5.86721
6.01379
6.03705
5.97846
5.93333
5.90785
5.88433
5.86228
5.83639
5.8068
5.77612
5.75109
5.72899
5.70269
5.68124
5.6597
5.63137
5.60402
5.57371
5.54547
5.52259
5.49843
5.47701
5.45603
5.43355
5.40804
5.37737
5.35029
5.32673
5.30173
5.27611
5.24547
5.21481
5.19407
5.17516
5.14797
5.11419
5.0824
5.05786
5.03423
5.00592
4.97771
4.95201
4.92586
4.89849
4.86895
4.83857
4.81293
4.79319
4.77346
4.75131
4.72681
4.69944
4.67428
4.65258
4.63155
4.60793
4.5798
4.55283
4.52657
4.50156
4.48183
4.45981
4.43174
4.40211
4.37586
4.35437
4.33163
4.30574
4.28052
4.25508
4.22789
4.20464
4.18627
4.16541
4.14198
4.11571
4.08311
4.05106
4.0265
4.0052
3.98089
3.95512
3.93228
3.91007
3.88527
3.85734
3.82698
3.79932
3.7757
3.75229
3.72842
3.70014
3.66672
3.63447
3.60681
3.58551
3.5681
3.54805
3.52274
3.4932
3.46063
3.42548
3.39197
3.36486
3.34217
3.32106
3.29953
3.27494
3.24826
3.22116
3.19225
3.16093
3.12988
3.10186
3.07717
3.0549
3.03313
3.01047
2.98786
2.96532
2.94109
2.91195
2.87805
2.84518
2.81453
2.78535
2.76169
2.74252
2.72294
2.70123
2.67583
2.64817
2.62092
2.59178
2.56003
2.52819
2.49599
2.46556
2.44143
2.42175
2.40165
2.37932
2.35551
2.3309
2.30556
2.28274
2.26323
2.24137
2.21574
2.18927
2.16197
2.13356
2.10603
2.08173
2.05844
2.0317
2.00396
1.97948
1.95686
1.93449
1.9122
1.88964
1.86713
1.8443
1.82194
1.79959
1.7728
1.74261
1.7154
1.69112
1.6667
1.64259
1.61699
1.58605
1.55254
1.52221
1.49364
1.46328
1.43311
1.40468
1.37604
1.34679
1.31795
1.28878
1.25769
1.22522
1.19474
1.16764
1.14114
1.11422
1.08783
1.05977
1.02925
0.998748
0.969996
0.94407
0.919037
0.893168
0.86845
0.842429
0.813126
0.785356
0.759239
0.731799
0.704689
0.678541
0.653241
0.630974
0.610288
0.586612
0.561279
0.538665
0.518421
0.498239
0.475618
0.450716
0.426841
0.403236
0.378326
0.352945
0.326162
0.297737
0.269078
0.240886
0.21294
0.184467
0.15572
0.12582
0.0957317
0.0681454
0.0413633
0.0142678
0.843621
-3218.51
-1030.75
544.552
499.633
30.883
-129.603
-52.3486
24.0112
30.3472
10.1936
0.593723
2.85438
6.53036
7.24744
6.41233
5.85428
5.86712
6.01054
6.03321
5.9775
5.92972
5.90504
5.8843
5.85991
5.83601
5.81093
5.7807
5.75258
5.72823
5.70267
5.67905
5.65285
5.62375
5.60146
5.57893
5.55268
5.5245
5.49644
5.47341
5.45192
5.43074
5.40814
5.37928
5.35162
5.32725
5.29991
5.27345
5.24651
5.218
5.19335
5.16839
5.14021
5.11364
5.08828
5.06098
5.03519
5.00937
4.97683
4.94446
4.91976
4.89673
4.87223
4.84642
4.81621
4.78777
4.76688
4.74793
4.72743
4.7043
4.67794
4.65128
4.62908
4.607
4.5787
4.55231
4.52831
4.50199
4.4797
4.45905
4.43333
4.40444
4.37631
4.35158
4.32899
4.30465
4.27849
4.25422
4.23078
4.20771
4.18791
4.16537
4.13809
4.11247
4.08459
4.05216
4.02461
4.00455
3.9842
3.95924
3.93184
3.90358
3.87662
3.85281
3.82968
3.80712
3.78406
3.7561
3.72556
3.69462
3.66249
3.63318
3.60862
3.5867
3.56737
3.54819
3.5231
3.49206
3.45918
3.4245
3.39139
3.3655
3.34424
3.32386
3.30251
3.27653
3.24658
3.21626
3.18673
3.1583
3.13038
3.10278
3.07743
3.05554
3.03569
3.01522
2.99231
2.9665
2.93857
2.9081
2.87463
2.84246
2.81443
2.78774
2.76229
2.74051
2.72139
2.70171
2.67876
2.6514
2.62107
2.58927
2.55678
2.52581
2.49682
2.46779
2.44037
2.41763
2.39815
2.37831
2.3571
2.33493
2.31002
2.28338
2.25992
2.23868
2.21517
2.19001
2.16435
2.13591
2.10493
2.07649
2.05306
2.03094
2.00688
1.98194
1.95801
1.93523
1.9131
1.89175
1.86969
1.84455
1.81834
1.79486
1.77232
1.74722
1.72067
1.6941
1.66613
1.63798
1.61243
1.58589
1.55456
1.52277
1.49366
1.46446
1.43473
1.40565
1.37589
1.34482
1.31375
1.28422
1.25645
1.22836
1.19918
1.17049
1.14132
1.111
1.08249
1.0564
1.0304
1.00248
0.972376
0.943658
0.917363
0.891116
0.866463
0.842378
0.814682
0.785972
0.758886
0.731686
0.704763
0.678817
0.65322
0.629314
0.608321
0.587577
0.56485
0.541003
0.516881
0.494447
0.473885
0.451778
0.427936
0.403736
0.378318
0.352127
0.326113
0.298908
0.269873
0.240771
0.212111
0.183596
0.1553
0.125818
0.0961442
0.0684993
0.041766
0.0145508
0.839127
-3218.51
-1030.76
544.554
499.635
30.886
-129.605
-52.3503
24.014
30.3503
10.1978
0.598944
2.8565
6.53094
7.24943
6.41482
5.85336
5.86261
6.01072
6.04068
5.98411
5.93377
5.90585
5.88506
5.86534
5.8361
5.80266
5.7758
5.75395
5.73199
5.70446
5.67917
5.6564
5.62807
5.59994
5.57551
5.5505
5.52515
5.5029
5.48123
5.45419
5.42702
5.40313
5.3784
5.35553
5.32953
5.29784
5.27202
5.24819
5.22057
5.1941
5.16917
5.14331
5.11414
5.08569
5.0605
5.03595
5.01047
4.9798
4.94723
4.92056
4.89636
4.87104
4.845
4.81622
4.78991
4.7693
4.74836
4.72662
4.70448
4.67979
4.65384
4.62986
4.60554
4.57606
4.54916
4.52859
4.50617
4.48102
4.45542
4.42991
4.40499
4.37922
4.35294
4.32854
4.30476
4.27872
4.25372
4.23072
4.20746
4.18876
4.16973
4.14044
4.10888
4.07991
4.05006
4.02496
4.00576
3.98576
3.96211
3.93411
3.90418
3.87708
3.85322
3.82999
3.8073
3.78413
3.75699
3.72621
3.69364
3.66063
3.63213
3.6105
3.591
3.57074
3.54893
3.5219
3.49015
3.45771
3.42476
3.39296
3.36599
3.34296
3.32227
3.30177
3.27722
3.24895
3.21862
3.18652
3.1567
3.12983
3.10332
3.0791
3.05699
3.03481
3.01426
2.99321
2.96719
2.93835
2.908
2.87435
2.84166
2.8138
2.78865
2.76497
2.74275
2.72138
2.7004
2.67787
2.65146
2.62146
2.58917
2.555
2.52235
2.49475
2.46935
2.44379
2.4204
2.3988
2.37635
2.3538
2.33246
2.31063
2.28654
2.26195
2.23909
2.21532
2.18833
2.16182
2.13646
2.1083
2.07918
2.05299
2.02901
2.00551
1.98166
1.9586
1.9372
1.91483
1.89177
1.87016
1.84683
1.82031
1.79436
1.77007
1.74535
1.72023
1.69619
1.67107
1.64178
1.61191
1.58385
1.55356
1.52188
1.49289
1.46459
1.43482
1.40488
1.37536
1.34587
1.31531
1.28418
1.25496
1.22669
1.19754
1.16979
1.14306
1.11412
1.08418
1.0552
1.0273
1.00015
0.971899
0.94431
0.919536
0.893663
0.866497
0.841017
0.814557
0.786532
0.759481
0.732021
0.70401
0.678472
0.654882
0.630519
0.606551
0.584951
0.564084
0.542338
0.519843
0.497171
0.474741
0.45157
0.427387
0.403338
0.378495
0.352092
0.326034
0.299472
0.270689
0.241306
0.212072
0.183228
0.155021
0.126318
0.0972068
0.0680574
0.0407358
0.0142965
0.838223
-3218.52
-1030.76
544.546
499.636
30.8909
-129.604
-52.3506
24.0111
30.3437
10.1953
0.598443
2.85339
6.52684
7.24396
6.41226
5.85562
5.8653
6.01109
6.04005
5.98164
5.9272
5.90055
5.88284
5.86257
5.83164
5.80282
5.78181
5.7565
5.73084
5.70577
5.67879
5.65493
5.62909
5.598
5.57373
5.5535
5.52752
5.49984
5.474
5.45085
5.42944
5.40791
5.3796
5.3487
5.32537
5.30118
5.27412
5.24845
5.22089
5.19245
5.16744
5.14353
5.1136
5.08413
5.06047
5.03537
5.00871
4.97842
4.94448
4.91848
4.89738
4.87176
4.84565
4.8178
4.78883
4.76643
4.74677
4.7255
4.70429
4.68217
4.65546
4.62714
4.60341
4.57754
4.54868
4.52585
4.50434
4.47963
4.45548
4.43085
4.40566
4.38132
4.3543
4.32615
4.30081
4.27505
4.25223
4.23552
4.21464
4.18947
4.16584
4.13697
4.10536
4.07848
4.05207
4.02694
4.00571
3.98424
3.96074
3.93428
3.90462
3.87655
3.85312
3.83127
3.8086
3.78467
3.75639
3.72368
3.69124
3.66028
3.63185
3.61023
3.59258
3.57288
3.55049
3.52227
3.48721
3.45284
3.4224
3.39382
3.36812
3.34522
3.32332
3.30117
3.27566
3.24678
3.21742
3.18685
3.15616
3.12822
3.10273
3.08013
3.05951
3.03742
3.01465
2.99194
2.966
2.9372
2.90721
2.87472
2.84212
2.81303
2.78763
2.76497
2.74346
2.72248
2.70132
2.6776
2.64999
2.6189
2.58648
2.55419
2.52248
2.49396
2.46866
2.44345
2.41929
2.39793
2.37688
2.35459
2.33241
2.31068
2.28762
2.26215
2.23724
2.21396
2.18837
2.16147
2.13586
2.10837
2.07944
2.05278
2.02856
2.00596
1.98259
1.9583
1.9367
1.91569
1.89265
1.87006
1.8466
1.82042
1.79455
1.77078
1.74755
1.72264
1.69656
1.67061
1.64194
1.61097
1.58229
1.55365
1.52251
1.49242
1.46373
1.43438
1.40464
1.37433
1.34381
1.31364
1.28343
1.25483
1.22798
1.19968
1.17029
1.14163
1.11243
1.08283
1.05408
1.02645
0.999869
0.972115
0.943798
0.918793
0.894514
0.867817
0.840797
0.813291
0.785197
0.758622
0.732286
0.704758
0.678324
0.654281
0.630787
0.607258
0.585074
0.56376
0.542193
0.520275
0.497546
0.474322
0.451304
0.427684
0.403625
0.379098
0.3522
0.324534
0.297766
0.270082
0.242098
0.213058
0.182626
0.153882
0.12563
0.0969316
0.0681613
0.0401674
0.0136498
0.829276
-3218.52
-1030.76
544.545
499.633
30.8886
-129.606
-52.3573
24.0092
30.3483
10.1958
0.598608
2.85593
6.53251
7.24787
6.4107
5.85573
5.86393
6.00786
6.03974
5.98153
5.93051
5.91109
5.89125
5.86438
5.83382
5.80247
5.77813
5.75532
5.72866
5.70428
5.68091
5.65594
5.63172
5.6024
5.57358
5.54994
5.52406
5.49868
5.47753
5.4567
5.43275
5.40783
5.37856
5.34894
5.32919
5.3051
5.27261
5.24404
5.21819
5.19226
5.16845
5.1453
5.11546
5.08586
5.06259
5.0357
5.00702
4.97951
4.94786
4.91936
4.89706
4.87122
4.84403
4.81864
4.79161
4.76734
4.74826
4.7287
4.70533
4.68177
4.65617
4.62529
4.59963
4.57845
4.55153
4.52607
4.50506
4.48047
4.45462
4.42993
4.40351
4.37855
4.35471
4.32882
4.30397
4.27746
4.24983
4.23152
4.21587
4.1923
4.16641
4.1371
4.1037
4.07616
4.05348
4.0301
4.00703
3.98337
3.95818
3.93205
3.90505
3.87982
3.85769
3.83528
3.81035
3.78323
3.75369
3.72155
3.68983
3.6612
3.63553
3.61426
3.59568
3.57382
3.54832
3.51952
3.48612
3.45273
3.42332
3.39642
3.3708
3.34623
3.32271
3.30021
3.27551
3.24651
3.21589
3.18542
3.15637
3.13022
3.10509
3.08132
3.06052
3.03888
3.01497
2.99132
2.96573
2.93705
2.90729
2.87505
2.84191
2.81214
2.78664
2.76565
2.74657
2.72543
2.70197
2.67641
2.64795
2.61697
2.58532
2.55405
2.52262
2.49307
2.46765
2.44395
2.42021
2.39799
2.37707
2.35549
2.33232
2.30914
2.28748
2.26424
2.23872
2.21456
2.18891
2.16026
2.13381
2.10823
2.08052
2.05328
2.02777
2.00545
1.98524
1.96216
1.93805
1.91538
1.89165
1.86851
1.84736
1.82427
1.79802
1.77141
1.74674
1.72221
1.69623
1.67093
1.64422
1.61307
1.58216
1.55331
1.52298
1.49246
1.46318
1.43361
1.40361
1.37306
1.343
1.31461
1.28539
1.25513
1.2266
1.19845
1.16961
1.14183
1.1137
1.08395
1.05391
1.02459
0.997751
0.972111
0.944779
0.918476
0.894176
0.868462
0.841807
0.814898
0.786388
0.757954
0.731133
0.704703
0.678568
0.65436
0.631661
0.608745
0.585643
0.563068
0.541201
0.520062
0.498445
0.475649
0.453019
0.429284
0.403292
0.378023
0.35252
0.325182
0.298126
0.270452
0.242803
0.214371
0.182701
0.15282
0.12491
0.0963759
0.0677177
0.0395681
0.0134005
0.831266
-3218.52
-1030.76
544.541
499.626
30.8903
-129.605
-52.356
24.0092
30.3457
10.1932
0.596781
2.85274
6.53085
7.24755
6.40774
5.85398
5.87096
6.01558
6.03917
5.98096
5.92989
5.90432
5.8834
5.85941
5.83233
5.80648
5.7814
5.75555
5.73059
5.7048
5.67884
5.653
5.62757
5.60284
5.57944
5.55255
5.52141
5.49614
5.47693
5.45711
5.4308
5.40354
5.37745
5.35067
5.32954
5.30457
5.27359
5.24606
5.21869
5.19202
5.16736
5.14158
5.11212
5.08526
5.06411
5.03714
5.00564
4.97657
4.94565
4.91829
4.89806
4.87315
4.84411
4.8168
4.78893
4.76645
4.75108
4.73222
4.70456
4.67569
4.65039
4.62479
4.60236
4.58194
4.55371
4.52365
4.49923
4.47604
4.45426
4.43307
4.40753
4.38074
4.35305
4.32221
4.29713
4.27811
4.25638
4.23684
4.21832
4.19032
4.16042
4.1331
4.10211
4.07458
4.05418
4.03268
4.00959
3.98515
3.95713
3.92952
3.90372
3.87805
3.85585
3.83625
3.81288
3.785
3.75418
3.7195
3.68591
3.6594
3.63645
3.61601
3.59836
3.57547
3.54694
3.5177
3.48488
3.4508
3.42134
3.39494
3.37059
3.34842
3.32533
3.30095
3.2749
3.24456
3.21261
3.18248
3.15449
3.13013
3.10768
3.08407
3.06137
3.0394
3.01517
2.99049
2.96515
2.9359
2.90484
2.87378
2.84262
2.81343
2.78746
2.76539
2.74618
2.726
2.70263
2.67584
2.64618
2.61428
2.58206
2.55227
2.52334
2.49368
2.4668
2.44294
2.41903
2.3963
2.37607
2.35626
2.33463
2.31072
2.28687
2.26299
2.23738
2.21294
2.18911
2.16154
2.13295
2.10617
2.08
2.05465
2.02941
2.00536
1.98413
1.96169
1.93803
1.91645
1.89371
1.86898
1.84559
1.82269
1.79838
1.77328
1.74924
1.72545
1.69816
1.66959
1.64205
1.61174
1.58046
1.55247
1.52429
1.494
1.46366
1.43319
1.40254
1.37148
1.34016
1.31106
1.28375
1.25587
1.22859
1.20139
1.17134
1.14001
1.10995
1.08093
1.05266
1.02423
0.997177
0.972503
0.94686
0.920042
0.894099
0.867275
0.839678
0.81308
0.785994
0.757998
0.73121
0.705725
0.679591
0.653755
0.630278
0.608325
0.586289
0.563844
0.541675
0.520585
0.498925
0.475267
0.452031
0.429229
0.403944
0.377985
0.352116
0.324689
0.297978
0.27073
0.241622
0.213217
0.183692
0.153887
0.124192
0.0948566
0.0671672
0.0388763
0.0124564
0.829358
-3218.52
-1030.76
544.54
499.624
30.8881
-129.607
-52.357
24.0054
30.3449
10.1978
0.595933
2.85175
6.53082
7.24486
6.40986
5.85841
5.86791
6.00967
6.03686
5.98268
5.9359
5.90983
5.88456
5.8605
5.83684
5.80985
5.78138
5.75321
5.7273
5.7045
5.68168
5.65552
5.63065
5.60298
5.5731
5.5489
5.52561
5.50317
5.48097
5.45557
5.42931
5.40543
5.3803
5.35158
5.32789
5.30249
5.27292
5.24634
5.21933
5.19345
5.1683
5.14168
5.11544
5.08792
5.0609
5.03433
5.00456
4.97492
4.94897
4.92416
4.89909
4.87151
4.84191
4.81562
4.79286
4.77218
4.75265
4.73126
4.70411
4.67432
4.65062
4.62835
4.60213
4.57798
4.55362
4.52554
4.50043
4.47833
4.45479
4.43116
4.40526
4.37694
4.35104
4.32495
4.30018
4.28047
4.25844
4.23552
4.21656
4.19144
4.15925
4.13013
4.10287
4.07698
4.05527
4.03371
4.00946
3.9831
3.95542
3.92975
3.90625
3.88274
3.86003
3.83755
3.81217
3.78289
3.75111
3.71822
3.68691
3.66149
3.64044
3.61992
3.59982
3.57621
3.5465
3.515
3.48321
3.45166
3.42334
3.39766
3.37272
3.34833
3.32392
3.29973
3.27407
3.24445
3.2135
3.18347
3.15517
3.13085
3.10841
3.08511
3.06286
3.04082
3.01592
2.98988
2.96404
2.93608
2.90561
2.87351
2.84143
2.81291
2.78862
2.7676
2.74872
2.72793
2.70249
2.67384
2.64405
2.61315
2.58132
2.55102
2.52237
2.49357
2.4666
2.44295
2.42065
2.39845
2.37654
2.35536
2.33369
2.3099
2.28681
2.26512
2.24008
2.21296
2.18737
2.16087
2.1331
2.10615
2.0797
2.05447
2.03014
2.00654
1.98571
1.96448
1.93983
1.91574
1.89301
1.8696
1.84635
1.82396
1.801
1.77569
1.74955
1.72503
1.69882
1.67001
1.64262
1.6143
1.5828
1.55227
1.52335
1.49355
1.46286
1.43178
1.40109
1.37102
1.34103
1.31245
1.28523
1.25637
1.22668
1.19868
1.1709
1.1418
1.11173
1.08142
1.05181
1.02288
0.995205
0.971069
0.947189
0.920834
0.894537
0.86829
0.841002
0.813761
0.786087
0.757499
0.730332
0.70557
0.68079
0.655126
0.630677
0.607775
0.585791
0.564004
0.542224
0.521527
0.500928
0.477818
0.452831
0.428186
0.403051
0.377344
0.352406
0.326073
0.298685
0.27121
0.241787
0.212199
0.183712
0.155073
0.124873
0.0947956
0.0676814
0.0397535
0.0127478
0.832379
-3218.53
-1030.77
544.544
499.626
30.8786
-129.607
-52.3504
24.0047
30.3395
10.1928
0.598537
2.85665
6.52709
7.24324
6.41288
5.85477
5.86524
6.01368
6.04084
5.9864
5.9323
5.90293
5.88531
5.86113
5.83291
5.8086
5.78231
5.75396
5.72735
5.70461
5.68393
5.65572
5.62577
5.59885
5.57532
5.55633
5.52958
5.50036
5.47634
5.45243
5.43043
5.40686
5.37874
5.35095
5.32651
5.30108
5.27478
5.2496
5.22109
5.19165
5.16379
5.13786
5.11411
5.09004
5.06424
5.03441
5.00154
4.97185
4.94784
4.92521
4.90032
4.87147
4.84048
4.81382
4.79303
4.77487
4.75474
4.7298
4.7009
4.67051
4.64656
4.62899
4.60698
4.58014
4.55252
4.52301
4.49572
4.47449
4.45521
4.43474
4.40896
4.37637
4.34585
4.3203
4.29902
4.2838
4.26458
4.2381
4.21335
4.18761
4.15681
4.12776
4.10156
4.07731
4.05644
4.03505
4.01028
3.98361
3.95529
3.92742
3.90376
3.88259
3.86076
3.83778
3.81215
3.78207
3.74968
3.7175
3.68705
3.66224
3.64241
3.62183
3.59946
3.57465
3.5452
3.51386
3.48276
3.45144
3.42223
3.39647
3.37273
3.34983
3.32548
3.29914
3.27209
3.24274
3.21159
3.18182
3.15454
3.13057
3.109
3.08645
3.06276
3.04032
3.01757
2.99146
2.96339
2.93404
2.90235
2.87099
2.84183
2.81461
2.79044
2.76902
2.74825
2.72656
2.70182
2.6727
2.64184
2.61139
2.58005
2.54947
2.52167
2.49389
2.46613
2.44123
2.41876
2.39738
2.37665
2.35657
2.33583
2.31156
2.28552
2.26195
2.23895
2.2139
2.18798
2.16108
2.1325
2.10417
2.07821
2.05471
2.03168
2.0077
1.98488
1.96345
1.94063
1.91678
1.89375
1.87058
1.84637
1.82248
1.80035
1.77725
1.75161
1.72666
1.70082
1.67045
1.64008
1.61214
1.58295
1.5529
1.52367
1.49358
1.46227
1.43096
1.4003
1.37027
1.33983
1.30968
1.28251
1.25687
1.22938
1.20058
1.1706
1.13932
1.10845
1.07888
1.05101
1.02347
0.995909
0.970847
0.947594
0.921958
0.894482
0.866943
0.83939
0.812168
0.785668
0.758534
0.730633
0.704406
0.680209
0.655687
0.630931
0.607089
0.585242
0.56514
0.544253
0.522325
0.500331
0.477006
0.452476
0.428758
0.40427
0.377252
0.350965
0.32575
0.298865
0.271619
0.243286
0.211939
0.181768
0.153234
0.123832
0.0945468
0.0669494
0.0405305
0.0139374
0.826296
-3218.53
-1030.76
544.546
499.621
30.8798
-129.606
-52.3533
24.0046
30.3385
10.1946
0.600487
2.85117
6.52522
7.24579
6.41253
5.85706
5.86689
6.01373
6.03917
5.98274
5.93602
5.90603
5.8816
5.86156
5.83957
5.8119
5.78142
5.75167
5.72594
5.70783
5.68806
5.65615
5.62272
5.59683
5.57668
5.5578
5.53026
5.4977
5.47234
5.45611
5.43819
5.408
5.37438
5.34815
5.32672
5.30399
5.27656
5.24763
5.21898
5.19034
5.16466
5.14328
5.11852
5.08769
5.05786
5.02958
5.00228
4.97823
4.9548
4.92655
4.8951
4.86629
4.84068
4.81868
4.79922
4.77786
4.7528
4.72574
4.69973
4.67399
4.6503
4.63055
4.60647
4.57671
4.54959
4.52429
4.49911
4.47795
4.45657
4.43145
4.40416
4.37345
4.346
4.32501
4.30317
4.28281
4.26373
4.23922
4.21193
4.18504
4.15633
4.12764
4.10307
4.08116
4.05856
4.03448
4.0086
3.98113
3.95389
3.92806
3.90535
3.88567
3.86476
3.83966
3.811
3.77955
3.74712
3.7172
3.69055
3.66663
3.64566
3.62434
3.59935
3.57244
3.54411
3.51336
3.48255
3.45304
3.42449
3.39876
3.37521
3.35112
3.32535
3.29775
3.26904
3.23986
3.21141
3.18432
3.15766
3.13251
3.10956
3.08721
3.06445
3.04126
3.01769
2.99201
2.96334
2.93336
2.902
2.87008
2.84064
2.81473
2.79221
2.77163
2.75035
2.72728
2.70159
2.67186
2.63983
2.6091
2.57937
2.54916
2.52035
2.49315
2.46658
2.44169
2.4198
2.39968
2.37811
2.35558
2.33448
2.31226
2.28755
2.26327
2.23936
2.21387
2.18682
2.15936
2.13229
2.10519
2.07859
2.05445
2.03233
2.00943
1.98586
1.96365
1.94132
1.91734
1.89367
1.87128
1.84859
1.82489
1.802
1.77902
1.75273
1.72545
1.6996
1.6717
1.64207
1.61382
1.58505
1.55396
1.52269
1.49225
1.46159
1.43027
1.3992
1.36946
1.34071
1.31168
1.28337
1.25644
1.22851
1.19929
1.17009
1.14002
1.1091
1.07812
1.04923
1.02306
0.996722
0.971044
0.94717
0.921911
0.895047
0.868057
0.839843
0.811474
0.784707
0.758857
0.731773
0.705146
0.680222
0.655691
0.631655
0.608228
0.585922
0.565684
0.544679
0.522571
0.501723
0.479406
0.453532
0.427141
0.402305
0.377311
0.35178
0.326972
0.300624
0.271895
0.243367
0.213058
0.181809
0.152222
0.122997
0.0948035
0.066285
0.0394621
0.0140139
0.827464
-3218.53
-1030.77
544.543
499.619
30.8766
-129.606
-52.3531
24.004
30.3361
10.1874
0.596253
2.85609
6.52955
7.24696
6.41477
5.85521
5.86421
6.0166
6.04408
5.98193
5.92909
5.90251
5.88652
5.86641
5.83782
5.80626
5.77723
5.75474
5.73389
5.70918
5.6822
5.65219
5.62407
5.6032
5.5828
5.55648
5.5251
5.49579
5.47423
5.45788
5.43611
5.40413
5.37244
5.34852
5.32908
5.30748
5.2781
5.24474
5.21586
5.19057
5.1658
5.14276
5.11628
5.08522
5.05754
5.03066
5.00387
4.97912
4.95226
4.92266
4.89406
4.868
4.84314
4.82019
4.79925
4.77662
4.7512
4.72371
4.69739
4.67363
4.65159
4.63045
4.60645
4.5774
4.54747
4.52138
4.49924
4.47842
4.4552
4.42937
4.40249
4.3729
4.34611
4.3258
4.30478
4.28389
4.26385
4.23813
4.20911
4.18121
4.15342
4.12643
4.10312
4.08254
4.06082
4.03646
4.00836
3.97917
3.95242
3.92767
3.9055
3.88602
3.86459
3.8384
3.80876
3.77719
3.7462
3.71812
3.69232
3.66875
3.64751
3.62539
3.59988
3.57157
3.5418
3.51125
3.48109
3.45224
3.4248
3.39992
3.37611
3.35094
3.32492
3.29729
3.26813
3.23898
3.20963
3.18143
3.15626
3.13284
3.11022
3.08864
3.0658
3.04088
3.01709
2.99177
2.9617
2.93089
2.90033
2.86923
2.84119
2.81634
2.79364
2.77282
2.75031
2.72516
2.69901
2.67039
2.63872
2.60773
2.57852
2.54864
2.51905
2.4918
2.46607
2.4411
2.4184
2.3986
2.3787
2.35674
2.33479
2.31254
2.28798
2.26246
2.23794
2.21352
2.1869
2.15859
2.13112
2.10445
2.07836
2.05464
2.03314
2.01103
1.98695
1.9629
1.94001
1.91695
1.89349
1.87138
1.84967
1.82615
1.80231
1.77952
1.75441
1.72659
1.69957
1.67173
1.64155
1.61218
1.58421
1.55497
1.52398
1.49239
1.46088
1.42943
1.39795
1.36761
1.33911
1.31065
1.28257
1.25669
1.23004
1.20015
1.16894
1.13748
1.10621
1.07608
1.04773
1.02229
0.99781
0.972775
0.948045
0.922007
0.894169
0.866334
0.838563
0.810819
0.784104
0.758213
0.73204
0.705149
0.679785
0.655584
0.631931
0.608969
0.586823
0.566356
0.54549
0.522693
0.500395
0.478235
0.454002
0.428411
0.402934
0.377461
0.351764
0.326401
0.299888
0.271299
0.24292
0.213167
0.181996
0.152129
0.121965
0.0933317
0.066137
0.0391477
0.0134421
0.827583
-3218.53
-1030.77
544.54
499.62
30.8799
-129.611
-52.36
24.01
30.3479
10.1873
0.589581
2.85111
6.52924
7.24809
6.41008
5.85332
5.86884
6.02113
6.0452
5.97701
5.9267
5.90968
5.89222
5.86468
5.83515
5.80578
5.78037
5.76225
5.73435
5.70084
5.67817
5.65544
5.62985
5.60637
5.57892
5.54942
5.52398
5.50059
5.48094
5.46116
5.4322
5.40028
5.37344
5.35033
5.33161
5.30825
5.2738
5.24012
5.21539
5.19515
5.17169
5.14467
5.11368
5.08034
5.053
5.0314
5.00976
4.98568
4.95372
4.91883
4.88909
4.86695
4.8477
4.82616
4.80227
4.77593
4.74743
4.72054
4.69844
4.67924
4.6569
4.63056
4.60273
4.57379
4.54626
4.52332
4.50256
4.48124
4.45608
4.4263
4.39827
4.37167
4.34693
4.32835
4.30876
4.28516
4.26216
4.23716
4.20758
4.17849
4.15341
4.12969
4.10678
4.08462
4.06047
4.03425
4.00651
3.97767
3.95224
3.93009
3.90871
3.88801
3.86527
3.83738
3.80699
3.77685
3.7472
3.71919
3.6947
3.67231
3.6501
3.62718
3.601
3.57071
3.54006
3.51075
3.48161
3.45374
3.42764
3.40174
3.37687
3.35197
3.32474
3.29599
3.26707
3.23806
3.20952
3.18218
3.1567
3.13358
3.11175
3.08999
3.06772
3.04299
3.0168
2.99109
2.96198
2.92977
2.89846
2.86864
2.84191
2.81828
2.7956
2.7738
2.75099
2.72534
2.69809
2.66921
2.63819
2.60673
2.57661
2.54753
2.51874
2.49153
2.46717
2.44392
2.42018
2.39862
2.37823
2.35618
2.33473
2.31367
2.29017
2.26449
2.23802
2.21236
2.18683
2.15872
2.1302
2.104
2.07891
2.05524
2.03383
2.01235
1.98878
1.96391
1.93977
1.91677
1.8939
1.87174
1.851
1.82874
1.80412
1.78024
1.75565
1.72774
1.69918
1.67149
1.64292
1.61386
1.58527
1.55602
1.5244
1.49154
1.45955
1.4286
1.39789
1.36779
1.33932
1.31162
1.28345
1.25591
1.22883
1.19988
1.16876
1.13676
1.10573
1.07621
1.04753
1.02156
0.997784
0.972971
0.947708
0.922073
0.89467
0.866412
0.838552
0.811039
0.783696
0.75788
0.732355
0.705592
0.679811
0.65569
0.632379
0.610406
0.588525
0.566958
0.5468
0.525101
0.501002
0.477281
0.453161
0.427563
0.402402
0.378058
0.35311
0.32815
0.301778
0.272897
0.243076
0.211951
0.180468
0.151471
0.123343
0.0939637
0.0653722
0.0386209
0.0130871
0.8256
-3218.53
-1030.76
544.546
499.618
30.8719
-129.608
-52.3501
24.0059
30.3349
10.1847
0.596435
2.85898
6.52783
7.23975
6.40754
5.86299
5.87749
6.01545
6.03791
5.97865
5.93366
5.91471
5.88797
5.85568
5.83127
5.8134
5.79148
5.75952
5.72381
5.69787
5.68091
5.66196
5.63531
5.60232
5.572
5.54919
5.52936
5.50648
5.48055
5.45354
5.4257
5.4023
5.37933
5.35245
5.33
5.30403
5.26902
5.24018
5.21911
5.19725
5.1713
5.14148
5.10985
5.07837
5.05537
5.03611
5.0101
4.98053
4.94909
4.9171
4.89132
4.87041
4.8499
4.82657
4.79939
4.7715
4.74581
4.72233
4.70006
4.67904
4.65711
4.63004
4.59996
4.57221
4.54715
4.52436
4.50243
4.47909
4.4532
4.42439
4.3975
4.37247
4.34788
4.32839
4.30948
4.28585
4.26077
4.23464
4.20607
4.17643
4.15092
4.12912
4.10823
4.08621
4.06025
4.03251
4.00419
3.97692
3.95316
3.93122
3.90906
3.88779
3.86426
3.83544
3.80477
3.77472
3.74598
3.72095
3.69759
3.67361
3.65028
3.62687
3.60081
3.57125
3.53961
3.50896
3.48032
3.4538
3.42877
3.40289
3.37664
3.35026
3.32256
3.2951
3.2669
3.23737
3.20887
3.18138
3.15564
3.1335
3.11242
3.09095
3.06949
3.0442
3.01558
2.98817
2.95892
2.92798
2.89836
2.86879
2.84202
2.81961
2.79702
2.77449
2.75116
2.72352
2.69488
2.66712
2.63717
2.6059
2.57582
2.54692
2.51829
2.49054
2.46559
2.44318
2.42089
2.39929
2.37879
2.35686
2.33402
2.3121
2.29004
2.26597
2.23887
2.21111
2.18473
2.15756
2.12982
2.10391
2.07919
2.05527
2.0329
2.01154
1.98934
1.96473
1.93988
1.91707
1.8943
1.87098
1.84981
1.82908
1.80538
1.78093
1.75639
1.72895
1.69967
1.67113
1.64301
1.61381
1.58426
1.55519
1.5251
1.49287
1.45984
1.42754
1.3959
1.36519
1.33743
1.31215
1.28554
1.2572
1.22828
1.19797
1.16678
1.13524
1.10409
1.07514
1.04743
1.0213
0.997744
0.973337
0.947361
0.921503
0.894269
0.865563
0.83758
0.810945
0.78422
0.757706
0.732066
0.705789
0.679473
0.65476
0.631519
0.610304
0.589789
0.568376
0.54745
0.525416
0.500434
0.476104
0.452626
0.428018
0.403438
0.379096
0.353646
0.327585
0.300718
0.272784
0.242851
0.211881
0.181001
0.150477
0.12143
0.093407
0.0669107
0.0393035
0.0127368
0.82667
-3218.53
-1030.76
544.538
499.617
30.8794
-129.609
-52.3612
23.9973
30.3427
10.2015
0.597858
2.84709
6.52201
7.24671
6.41962
5.85932
5.86362
6.01073
6.04495
5.99085
5.93722
5.90751
5.88284
5.85913
5.84009
5.81864
5.78622
5.75211
5.72534
5.70424
5.68614
5.6619
5.62849
5.59706
5.57554
5.55515
5.53105
5.50605
5.47866
5.45215
5.4278
5.40532
5.38178
5.35323
5.3257
5.29787
5.26763
5.24455
5.2231
5.19785
5.17153
5.13959
5.10618
5.07887
5.05822
5.03844
5.01163
4.97966
4.94537
4.91499
4.89438
4.87484
4.85284
4.82856
4.79829
4.76846
4.74582
4.72504
4.70315
4.68168
4.6573
4.62777
4.59863
4.57248
4.54754
4.52555
4.50379
4.47952
4.45376
4.4238
4.39509
4.3728
4.35077
4.32908
4.30936
4.28636
4.25863
4.23125
4.20523
4.17815
4.15434
4.13298
4.109
4.08482
4.05908
4.03016
4.00263
3.9773
3.95477
3.93483
3.91307
3.88787
3.86076
3.83259
3.80382