/*--------------------------------*- C++ -*----------------------------------*\
| =========                 |                                                 |
| \\      /  F ield         | OpenFOAM: The Open Source CFD Toolbox           |
|  \\    /   O peration     | Version:  2406                                  |
|   \\  /    A nd           | Website:  www.openfoam.com                      |
|    \\/     M anipulation  |                                                 |
\*---------------------------------------------------------------------------*/
FoamFile
{
    version     2.0;
    format      ascii;
    arch        "LSB;label=32;scalar=64";
    class       surfaceScalarField;
    location    "1.45";
    object      phi;
}
// * * * * * * * * * * * * * * * * * * * * * * * * * * * * * * * * * * * * * //

dimensions      [0 3 -1 0 0 0 0];

oriented        oriented;

internalField   nonuniform List<scalar> 
12225
(
0.510845
1.97501e-06
0.510839
6.55275e-06
0.510831
7.6301e-06
0.510825
5.589e-06
0.510821
4.84892e-06
0.510815
5.26631e-06
0.51081
5.56884e-06
0.510804
5.55112e-06
0.510799
5.34335e-06
0.510794
5.32493e-06
0.510788
5.32718e-06
0.510783
5.36197e-06
0.510777
5.42744e-06
0.510772
5.47938e-06
0.510766
5.81823e-06
0.51076
5.93897e-06
0.510755
5.54345e-06
0.510749
5.1896e-06
0.510744
5.30466e-06
0.510739
5.46822e-06
0.510734
4.92568e-06
0.510729
4.52066e-06
0.510724
4.9048e-06
0.510719
5.20234e-06
0.510714
5.34462e-06
0.510708
5.37348e-06
0.510703
5.34033e-06
0.510698
5.51169e-06
0.510692
5.53059e-06
0.510687
5.36072e-06
0.510681
5.16919e-06
0.510676
5.52119e-06
0.51067
6.25686e-06
0.510664
6.17832e-06
0.510658
5.7223e-06
0.510652
5.91142e-06
0.510646
6.06278e-06
0.51064
5.59934e-06
0.510635
4.92684e-06
0.510631
4.32137e-06
0.510627
4.18327e-06
0.510622
4.60222e-06
0.510617
5.12588e-06
0.510612
5.45187e-06
0.510606
5.54713e-06
0.510601
5.54365e-06
0.510595
5.50255e-06
0.51059
5.48351e-06
0.510584
5.68303e-06
0.510578
5.99281e-06
0.510572
6.05593e-06
0.510566
5.99113e-06
0.51056
6.09543e-06
0.510554
6.09145e-06
0.510548
5.80393e-06
0.510542
5.56486e-06
0.510537
5.47081e-06
0.510531
5.41765e-06
0.510526
5.3906e-06
0.510521
5.36654e-06
0.510515
5.41681e-06
0.51051
5.58167e-06
0.510504
5.75522e-06
0.510498
5.84441e-06
0.510492
5.80158e-06
0.510487
5.62748e-06
0.510481
5.50783e-06
0.510476
5.46805e-06
0.51047
5.35283e-06
0.510465
5.31418e-06
0.510459
5.46736e-06
0.510454
5.58443e-06
0.510448
5.5138e-06
0.510443
5.39715e-06
0.510438
5.347e-06
0.510432
5.24945e-06
0.510427
5.23573e-06
0.510422
5.38498e-06
0.510416
5.45898e-06
0.510411
5.37939e-06
0.510406
5.17108e-06
0.510401
4.94068e-06
0.510396
4.77423e-06
0.510391
4.78312e-06
0.510386
5.22086e-06
0.51038
5.95733e-06
0.510374
6.45718e-06
0.510367
6.3838e-06
0.510361
5.79702e-06
0.510356
4.97202e-06
0.510352
4.38625e-06
0.510348
4.54345e-06
0.510342
5.17395e-06
0.510337
5.53628e-06
0.510331
5.54827e-06
0.510326
5.56514e-06
0.51032
5.61108e-06
0.510315
5.55977e-06
0.510309
5.47491e-06
0.510304
5.3316e-06
0.510299
5.17452e-06
0.510293
5.38576e-06
0.510287
5.98026e-06
0.510281
6.52946e-06
0.510274
6.72412e-06
0.510268
6.32905e-06
0.510262
5.45738e-06
0.510258
4.5691e-06
0.510254
4.05308e-06
0.510249
4.23944e-06
0.510244
5.01122e-06
0.510238
5.82504e-06
0.510232
6.32926e-06
0.510226
6.42895e-06
0.510219
6.21691e-06
0.510214
5.88993e-06
0.510208
5.61292e-06
0.510203
5.45472e-06
0.510197
5.30993e-06
0.510192
5.11146e-06
0.510187
4.88382e-06
0.510183
4.68618e-06
0.510178
4.68714e-06
0.510173
4.85257e-06
0.510168
4.96776e-06
0.510163
5.06576e-06
0.510158
5.35649e-06
0.510152
5.78584e-06
0.510146
6.10859e-06
0.51014
6.20995e-06
0.510133
6.02319e-06
0.510128
5.61978e-06
0.510123
5.22317e-06
0.510118
4.85047e-06
0.510113
4.55207e-06
0.510109
4.51303e-06
0.510104
4.66441e-06
0.510099
4.8716e-06
0.510094
5.07893e-06
0.510089
5.30126e-06
0.510083
5.6527e-06
0.510077
6.00462e-06
0.510071
6.1437e-06
0.510065
6.07996e-06
0.510059
5.83244e-06
0.510054
5.54556e-06
0.510048
5.41062e-06
0.510043
5.34412e-06
0.510038
5.23783e-06
0.510033
5.02575e-06
0.510028
4.70509e-06
0.510023
4.56115e-06
0.510018
4.76248e-06
0.510013
5.16192e-06
0.510008
5.64252e-06
0.510002
5.96582e-06
0.509996
5.91496e-06
0.50999
5.66791e-06
0.509985
5.49547e-06
0.509979
5.50218e-06
0.509974
5.58613e-06
0.509968
5.53534e-06
0.509963
5.37121e-06
0.509958
5.14396e-06
0.509953
4.86019e-06
0.509948
4.80138e-06
0.509943
5.07343e-06
0.509937
5.41447e-06
0.509932
5.68759e-06
0.509926
5.85547e-06
0.50992
5.8941e-06
0.509914
5.83504e-06
0.509908
5.7043e-06
0.509903
5.63119e-06
0.509897
5.63388e-06
0.509892
5.56355e-06
0.509886
5.49997e-06
0.509881
5.4865e-06
0.509875
5.3118e-06
0.50987
4.95625e-06
0.509866
4.64173e-06
0.509861
4.59043e-06
0.509856
4.85168e-06
0.509851
5.23463e-06
0.509845
5.61669e-06
0.509839
5.89936e-06
0.509834
5.86943e-06
0.509828
5.62201e-06
0.509823
5.43917e-06
0.509817
5.3078e-06
0.509812
5.23768e-06
0.509807
5.34864e-06
0.509801
5.52066e-06
0.509796
5.53821e-06
0.50979
5.37571e-06
0.509785
5.14916e-06
0.50978
4.96971e-06
0.509775
4.89111e-06
0.50977
4.99032e-06
0.509765
5.2685e-06
0.509759
5.51656e-06
0.509754
5.60251e-06
0.509748
5.60574e-06
0.509743
5.56092e-06
0.509737
5.43534e-06
0.509732
5.30151e-06
0.509727
5.32651e-06
0.509721
5.51217e-06
0.509715
5.6482e-06
0.50971
5.65024e-06
0.509704
5.60403e-06
0.509699
5.53499e-06
0.509693
5.43712e-06
0.509688
5.34622e-06
0.509683
5.30463e-06
0.509677
5.30288e-06
0.509672
5.3359e-06
0.509666
5.53698e-06
0.50966
5.90764e-06
0.509654
6.06982e-06
0.509649
5.77208e-06
0.509643
5.24887e-06
0.509639
4.87679e-06
0.509634
4.89791e-06
0.509628
5.25754e-06
0.509623
5.57714e-06
0.509617
5.65559e-06
0.509611
5.70906e-06
0.509606
5.84509e-06
0.5096
5.89741e-06
0.509594
5.74152e-06
0.509588
5.43157e-06
0.509583
5.23646e-06
0.509578
5.32073e-06
0.509572
5.51865e-06
0.509567
5.72574e-06
0.509561
5.85576e-06
0.509555
5.7701e-06
0.509549
5.60126e-06
0.509544
5.53017e-06
0.509538
5.50121e-06
0.509533
5.48643e-06
0.509527
5.61339e-06
0.509521
5.87662e-06
0.509515
6.03101e-06
0.50951
5.91479e-06
0.509504
5.673e-06
0.509498
5.40485e-06
0.509493
5.74658e-06
5.27935e-06
0.51085
-1.03147e-07
0.510856
3.16311e-07
0.510862
1.33009e-06
0.510865
2.25893e-06
0.510868
2.30937e-06
0.510871
2.26453e-06
0.510874
2.41477e-06
0.510877
2.27013e-06
0.510881
1.74312e-06
0.510885
1.48688e-06
0.510888
2.11798e-06
0.510891
2.82444e-06
0.510893
3.06461e-06
0.510896
2.8624e-06
0.510899
2.42775e-06
0.510902
2.44246e-06
0.510905
2.77815e-06
0.510908
2.54563e-06
0.510911
1.77505e-06
0.510915
1.70105e-06
0.510918
2.49328e-06
0.510919
2.70972e-06
0.510922
2.44325e-06
0.510925
2.54112e-06
0.510927
2.75009e-06
0.51093
2.59853e-06
0.510933
2.52021e-06
0.510935
2.85943e-06
0.510938
2.93363e-06
0.51094
2.88436e-06
0.510943
2.9767e-06
0.510946
2.63399e-06
0.51095
2.25021e-06
0.510953
2.23285e-06
0.510957
2.14527e-06
0.510961
2.22723e-06
0.510964
2.58387e-06
0.510967
2.79036e-06
0.510969
2.88703e-06
0.510971
2.74478e-06
0.510972
2.40301e-06
0.510975
2.14258e-06
0.510978
2.07378e-06
0.510981
2.30913e-06
0.510984
2.47616e-06
0.510987
2.51089e-06
0.51099
2.66373e-06
0.510993
2.66514e-06
0.510996
2.63798e-06
0.510999
2.73127e-06
0.511003
2.60037e-06
0.511006
2.30158e-06
0.51101
2.30146e-06
0.511014
2.63307e-06
0.511017
2.77354e-06
0.511019
2.72304e-06
0.511022
2.89842e-06
0.511024
3.01156e-06
0.511027
2.66107e-06
0.51103
2.11107e-06
0.511034
1.80049e-06
0.511038
1.98036e-06
0.511041
2.56025e-06
0.511044
2.93651e-06
0.511047
2.7939e-06
0.51105
2.40217e-06
0.511053
2.13324e-06
0.511057
2.17654e-06
0.51106
2.34978e-06
0.511062
2.42475e-06
0.511065
2.50493e-06
0.511068
2.66455e-06
0.511071
2.7313e-06
0.511074
2.69492e-06
0.511076
2.70609e-06
0.511079
2.58801e-06
0.511082
2.35829e-06
0.511085
2.43287e-06
0.511088
2.76465e-06
0.51109
3.09114e-06
0.511092
3.19305e-06
0.511094
2.98385e-06
0.511096
2.61025e-06
0.511099
2.09953e-06
0.511102
1.64408e-06
0.511107
1.56347e-06
0.511111
1.8237e-06
0.511115
2.26213e-06
0.511119
2.7122e-06
0.511121
2.86152e-06
0.511122
2.55967e-06
0.511125
2.13618e-06
0.511128
2.06729e-06
0.511131
2.47511e-06
0.511134
2.97944e-06
0.511136
3.12518e-06
0.511139
2.9108e-06
0.511142
2.6189e-06
0.511145
2.51786e-06
0.511147
2.64975e-06
0.51115
2.58383e-06
0.511153
2.1144e-06
0.511158
1.57553e-06
0.511163
1.42094e-06
0.511168
1.90666e-06
0.511171
2.64738e-06
0.511173
3.20799e-06
0.511175
3.40552e-06
0.511176
3.05716e-06
0.511177
2.39271e-06
0.51118
2.04269e-06
0.511184
2.07017e-06
0.511188
2.23117e-06
0.511192
2.36488e-06
0.511196
2.37207e-06
0.5112
2.42515e-06
0.511203
2.59495e-06
0.511205
2.69535e-06
0.511208
2.66552e-06
0.511211
2.56903e-06
0.511213
2.42621e-06
0.511216
2.23287e-06
0.511218
2.1169e-06
0.511221
2.26042e-06
0.511223
2.63727e-06
0.511225
2.94783e-06
0.511228
2.89185e-06
0.511231
2.5417e-06
0.511235
2.18415e-06
0.511239
2.08623e-06
0.511243
2.31247e-06
0.511246
2.54398e-06
0.511248
2.56999e-06
0.511251
2.45836e-06
0.511253
2.31821e-06
0.511255
2.29656e-06
0.511257
2.49361e-06
0.511259
2.80761e-06
0.511261
3.03928e-06
0.511264
3.03797e-06
0.511266
2.89999e-06
0.51127
2.82534e-06
0.511273
2.82233e-06
0.511276
2.86454e-06
0.511279
2.83103e-06
0.511282
2.52602e-06
0.511286
2.10082e-06
0.511289
1.86032e-06
0.511292
1.97102e-06
0.511295
2.42218e-06
0.511297
2.79357e-06
0.511299
2.77354e-06
0.511301
2.5958e-06
0.511304
2.39051e-06
0.511307
2.18238e-06
0.511311
2.15109e-06
0.511315
2.17785e-06
0.511318
2.04176e-06
0.511322
1.87881e-06
0.511325
1.91012e-06
0.511329
2.25361e-06
0.511331
2.77295e-06
0.511334
3.11741e-06
0.511336
3.12601e-06
0.511338
2.77988e-06
0.51134
2.20544e-06
0.511344
1.84388e-06
0.511347
1.94233e-06
0.511351
2.29809e-06
0.511354
2.64106e-06
0.511357
2.81188e-06
0.51136
2.76805e-06
0.511363
2.56055e-06
0.511366
2.36208e-06
0.51137
2.37563e-06
0.511373
2.45589e-06
0.511376
2.37217e-06
0.511379
2.33499e-06
0.511382
2.55379e-06
0.511384
2.8711e-06
0.511385
3.0494e-06
0.511387
2.95465e-06
0.511389
2.67049e-06
0.511392
2.37995e-06
0.511395
2.18817e-06
0.511399
2.3105e-06
0.511402
2.69245e-06
0.511405
2.85121e-06
0.511408
2.69969e-06
0.511411
2.46058e-06
0.511414
2.18657e-06
0.511417
2.03884e-06
0.51142
2.22552e-06
0.511423
2.57895e-06
0.511426
2.8516e-06
0.511428
2.98921e-06
0.51143
2.99214e-06
0.511432
2.84923e-06
0.511434
2.57491e-06
0.511437
2.28573e-06
0.511441
2.10603e-06
0.511444
2.04953e-06
0.511448
2.16116e-06
0.511451
2.47589e-06
0.511453
2.79956e-06
0.511456
2.83684e-06
0.511459
2.55297e-06
0.511462
2.21446e-06
0.511466
2.02184e-06
0.511469
1.97851e-06
0.511473
2.09984e-06
0.511476
2.433e-06
0.511478
2.82361e-06
0.511481
2.99714e-06
0.511483
2.92303e-06
0.511486
2.73077e-06
0.511489
2.41753e-06
0.511492
2.03613e-06
0.511496
1.86865e-06
0.5115
2.10608e-06
0.511503
2.54942e-06
0.511506
2.86009e-06
0.511508
2.90065e-06
0.51151
2.7454e-06
0.511513
2.58948e-06
0.511516
2.5323e-06
0.511519
2.45819e-06
0.511522
2.38528e-06
0.511526
2.49119e-06
0.511529
2.72231e-06
0.511532
2.92542e-06
0.511534
2.97689e-06
0.511536
2.81715e-06
0.511539
2.63142e-06
0.511542
2.56901e-06
0.511545
2.60452e-06
0.511548
2.71652e-06
0.511551
2.79184e-06
0.511554
2.73838e-06
0.511557
2.67199e-06
0.51156
2.68247e-06
0.511563
2.60101e-06
0.511566
2.32549e-06
0.51157
2.10277e-06
0.511574
2.18524e-06
0.511577
2.50835e-06
0.51158
2.80453e-06
0.511582
2.81411e-06
0.511586
2.57513e-06
2.64669e-06
0.51085
-7.82466e-08
0.51085
7.84534e-07
0.510849
1.72132e-06
0.51085
1.65415e-06
0.510851
1.55471e-06
0.510851
1.98626e-06
0.510851
2.02576e-06
0.510852
2.14787e-06
0.510851
2.43471e-06
0.51085
2.54283e-06
0.51085
2.22483e-06
0.510851
1.87103e-06
0.510852
1.85849e-06
0.510853
2.17196e-06
0.510853
2.05305e-06
0.510854
1.75444e-06
0.510854
1.88059e-06
0.510855
2.24587e-06
0.510854
2.68301e-06
0.510853
2.78095e-06
0.510853
2.54289e-06
0.510853
2.56849e-06
0.510853
2.58147e-06
0.510853
2.45957e-06
0.510853
2.26137e-06
0.510854
1.88393e-06
0.510855
1.67237e-06
0.510856
1.65388e-06
0.510857
1.82368e-06
0.510858
2.0171e-06
0.510859
2.15143e-06
0.510859
2.47779e-06
0.510859
2.80927e-06
0.510858
2.87226e-06
0.510857
2.63986e-06
0.510858
2.05651e-06
0.510858
1.73061e-06
0.510859
2.05709e-06
0.51086
2.37634e-06
0.51086
2.46821e-06
0.51086
2.61278e-06
0.510859
2.69949e-06
0.510859
2.43869e-06
0.510859
1.97078e-06
0.51086
1.71498e-06
0.51086
1.90676e-06
0.510861
2.35465e-06
0.510861
2.42033e-06
0.510862
2.04329e-06
0.510863
1.8206e-06
0.510863
1.98966e-06
0.510863
2.36893e-06
0.510863
2.43775e-06
0.510864
2.01558e-06
0.510865
1.71108e-06
0.510866
1.8526e-06
0.510866
2.07149e-06
0.510867
2.17883e-06
0.510867
2.35492e-06
0.510867
2.55557e-06
0.510866
2.59174e-06
0.510866
2.48352e-06
0.510866
2.28001e-06
0.510867
2.03745e-06
0.510868
2.11889e-06
0.510868
2.44856e-06
0.510867
2.52306e-06
0.510867
2.45209e-06
0.510867
2.42786e-06
0.510867
2.31451e-06
0.510867
2.29957e-06
0.510867
2.45039e-06
0.510868
2.40916e-06
0.510868
2.14633e-06
0.510869
2.06758e-06
0.510869
2.16987e-06
0.510869
2.21705e-06
0.51087
2.32562e-06
0.51087
2.41813e-06
0.510871
2.25192e-06
0.510872
1.9284e-06
0.510873
1.70757e-06
0.510874
1.86258e-06
0.510874
2.3326e-06
0.510873
2.66703e-06
0.510872
2.64519e-06
0.510871
2.41131e-06
0.510871
2.02323e-06
0.510872
1.62307e-06
0.510874
1.51312e-06
0.510875
1.64714e-06
0.510875
1.86499e-06
0.510875
2.1374e-06
0.510875
2.29492e-06
0.510876
2.347e-06
0.510876
2.53207e-06
0.510876
2.70437e-06
0.510877
2.47244e-06
0.510877
1.93161e-06
0.510878
1.69077e-06
0.510879
2.08626e-06
0.510878
2.83106e-06
0.510876
3.35449e-06
0.510874
3.22785e-06
0.510874
2.6455e-06
0.510874
2.11067e-06
0.510875
1.88653e-06
0.510877
2.14952e-06
0.510877
2.66773e-06
0.510877
2.85921e-06
0.510876
2.7149e-06
0.510876
2.47781e-06
0.510876
2.27852e-06
0.510876
2.30324e-06
0.510876
2.40158e-06
0.510876
2.34973e-06
0.510876
2.3214e-06
0.510876
2.41779e-06
0.510876
2.50548e-06
0.510876
2.49574e-06
0.510876
2.35987e-06
0.510877
2.11816e-06
0.510877
1.91387e-06
0.510877
1.89348e-06
0.510878
2.05245e-06
0.510878
2.33621e-06
0.510879
2.63519e-06
0.510878
2.75869e-06
0.510878
2.51958e-06
0.510878
2.00217e-06
0.510879
1.66918e-06
0.51088
1.7532e-06
0.51088
2.04873e-06
0.51088
2.24419e-06
0.51088
2.15556e-06
0.510881
1.90914e-06
0.510882
1.78242e-06
0.510882
1.91865e-06
0.510883
2.25366e-06
0.510884
2.49273e-06
0.510884
2.48942e-06
0.510885
2.44317e-06
0.510885
2.37825e-06
0.510886
2.31291e-06
0.510886
2.45062e-06
0.510886
2.60447e-06
0.510885
2.48755e-06
0.510885
2.14977e-06
0.510885
1.74372e-06
0.510886
1.60909e-06
0.510887
1.9035e-06
0.510888
2.24594e-06
0.510888
2.41904e-06
0.510888
2.43748e-06
0.510888
2.23718e-06
0.510888
2.05482e-06
0.510888
2.173e-06
0.510887
2.43091e-06
0.510887
2.54116e-06
0.510886
2.42285e-06
0.510886
2.2263e-06
0.510887
2.1181e-06
0.510888
2.17629e-06
0.510889
2.45619e-06
0.510889
2.73209e-06
0.510888
2.65397e-06
0.510888
2.31998e-06
0.510888
2.02617e-06
0.510888
1.91028e-06
0.510889
2.03091e-06
0.510889
2.29929e-06
0.510889
2.55829e-06
0.510889
2.62675e-06
0.510889
2.36826e-06
0.51089
2.0787e-06
0.51089
2.08369e-06
0.51089
2.15037e-06
0.51089
2.05689e-06
0.510891
1.90286e-06
0.510892
1.79187e-06
0.510893
1.86818e-06
0.510894
2.21509e-06
0.510894
2.67598e-06
0.510893
2.97842e-06
0.510893
2.827e-06
0.510893
2.35876e-06
0.510893
2.09597e-06
0.510894
2.16064e-06
0.510894
2.38797e-06
0.510894
2.63287e-06
0.510894
2.62428e-06
0.510894
2.27213e-06
0.510894
1.9322e-06
0.510895
1.87204e-06
0.510895
2.01922e-06
0.510896
2.22311e-06
0.510897
2.40829e-06
0.510897
2.56851e-06
0.510897
2.66575e-06
0.510897
2.69116e-06
0.510896
2.69411e-06
0.510895
2.58748e-06
0.510895
2.26006e-06
0.510896
1.90259e-06
0.510897
1.81252e-06
0.510898
2.01709e-06
0.510898
2.27355e-06
0.510898
2.42506e-06
0.510897
2.43973e-06
0.510897
2.23927e-06
0.510897
1.84243e-06
0.510898
1.54429e-06
0.510899
1.5785e-06
0.510901
1.8281e-06
0.510901
2.08498e-06
0.510902
2.28406e-06
0.510902
2.34615e-06
0.510902
2.17648e-06
0.510902
1.87672e-06
0.510902
1.7285e-06
0.510903
1.84205e-06
0.510904
2.0381e-06
0.510904
2.13628e-06
0.510905
2.1054e-06
0.510906
2.08369e-06
0.510906
2.21461e-06
0.510906
2.33532e-06
0.510906
2.2279e-06
0.510907
2.04939e-06
0.510907
2.04763e-06
0.510908
2.28059e-06
0.510908
2.55702e-06
0.510909
2.61457e-06
0.510909
2.53233e-06
0.510909
2.50425e-06
0.510909
2.47786e-06
0.510909
2.44548e-06
0.51091
2.44675e-06
0.51091
2.39011e-06
0.51091
2.33276e-06
0.51091
2.42564e-06
0.51091
2.58113e-06
0.51091
2.63216e-06
0.51091
2.52152e-06
0.51091
2.32362e-06
0.51091
2.21626e-06
0.51091
2.30516e-06
0.510911
2.46314e-06
0.510911
2.53435e-06
2.52064e-06
0.510849
2.35483e-07
0.51085
7.05577e-07
0.51085
1.02593e-06
0.51085
1.37611e-06
0.510851
1.50856e-06
0.510851
1.57449e-06
0.510851
1.98574e-06
0.510851
1.94034e-06
0.510852
1.88725e-06
0.510852
2.21442e-06
0.510852
2.13891e-06
0.510852
1.78508e-06
0.510852
1.89443e-06
0.510852
2.05698e-06
0.510852
1.95611e-06
0.510852
1.96498e-06
0.510852
2.22651e-06
0.510852
2.49874e-06
0.510852
2.19812e-06
0.510853
1.58328e-06
0.510854
1.41972e-06
0.510855
1.67364e-06
0.510856
1.83249e-06
0.510857
1.76708e-06
0.510858
1.50358e-06
0.510858
1.77833e-06
0.510857
2.30735e-06
0.510856
2.25898e-06
0.510856
2.05181e-06
0.510856
2.06472e-06
0.510856
2.06299e-06
0.510857
1.85716e-06
0.510858
1.62065e-06
0.510859
1.83699e-06
0.510859
2.38952e-06
0.510859
2.72851e-06
0.510858
2.56419e-06
0.510858
2.13863e-06
0.510858
1.88337e-06
0.510859
1.97796e-06
0.510859
2.24984e-06
0.510859
2.47819e-06
0.510859
2.47672e-06
0.510859
2.21727e-06
0.510859
2.02515e-06
0.510858
2.16348e-06
0.510858
2.35488e-06
0.510859
2.22811e-06
0.510859
1.86877e-06
0.510859
1.60465e-06
0.510859
1.65877e-06
0.51086
1.79334e-06
0.510861
1.81159e-06
0.510861
1.97433e-06
0.51086
2.17052e-06
0.51086
2.10005e-06
0.51086
1.8964e-06
0.510861
1.67188e-06
0.510861
1.48161e-06
0.510862
1.53984e-06
0.510863
1.9229e-06
0.510863
2.29997e-06
0.510863
2.34569e-06
0.510863
2.0502e-06
0.510864
1.60272e-06
0.510865
1.33992e-06
0.510866
1.44094e-06
0.510867
1.79149e-06
0.510867
2.1576e-06
0.510867
2.33888e-06
0.510867
2.3107e-06
0.510867
2.25552e-06
0.510867
2.30989e-06
0.510867
2.30474e-06
0.510867
2.24184e-06
0.510867
2.35184e-06
0.510866
2.43753e-06
0.510866
2.40321e-06
0.510866
2.46282e-06
0.510866
2.43131e-06
0.510866
1.99284e-06
0.510866
1.32923e-06
0.510867
9.6137e-07
0.510868
1.17561e-06
0.510869
1.75588e-06
0.51087
2.21699e-06
0.51087
2.3208e-06
0.51087
2.14327e-06
0.51087
1.8244e-06
0.510869
1.57001e-06
0.51087
1.43897e-06
0.51087
1.4584e-06
0.51087
1.84394e-06
0.51087
2.47344e-06
0.51087
2.87023e-06
0.510869
2.8298e-06
0.51087
2.527e-06
0.51087
2.19435e-06
0.51087
1.79226e-06
0.51087
1.37366e-06
0.510871
1.30629e-06
0.510872
1.67549e-06
0.510873
2.27496e-06
0.510874
2.81154e-06
0.510873
2.95559e-06
0.510873
2.70416e-06
0.510872
2.24065e-06
0.510873
1.84477e-06
0.510874
1.8324e-06
0.510874
2.03903e-06
0.510875
2.10681e-06
0.510876
1.96067e-06
0.510876
1.68615e-06
0.510877
1.52958e-06
0.510878
1.66112e-06
0.510878
1.89786e-06
0.510878
2.01499e-06
0.510879
1.98356e-06
0.510879
1.89029e-06
0.51088
1.82052e-06
0.510881
1.86051e-06
0.510881
2.01463e-06
0.510881
2.14666e-06
0.51088
2.20589e-06
0.51088
2.21273e-06
0.51088
2.14633e-06
0.510881
2.03275e-06
0.510882
1.99444e-06
0.510882
2.05604e-06
0.510882
1.98608e-06
0.510882
1.72322e-06
0.510882
1.51119e-06
0.510883
1.49849e-06
0.510883
1.74034e-06
0.510883
2.125e-06
0.510883
2.30291e-06
0.510883
2.17937e-06
0.510882
1.99557e-06
0.510883
1.94053e-06
0.510883
2.03046e-06
0.510884
2.16621e-06
0.510884
2.28469e-06
0.510884
2.35908e-06
0.510884
2.27467e-06
0.510884
2.0859e-06
0.510885
2.02539e-06
0.510885
2.14293e-06
0.510885
2.28725e-06
0.510884
2.26189e-06
0.510884
2.04955e-06
0.510884
1.86065e-06
0.510885
1.78936e-06
0.510885
1.80973e-06
0.510886
1.90729e-06
0.510886
1.89756e-06
0.510886
1.68422e-06
0.510887
1.51482e-06
0.510888
1.61858e-06
0.510888
1.99872e-06
0.510888
2.42299e-06
0.510888
2.59869e-06
0.510888
2.45405e-06
0.510888
2.06364e-06
0.510889
1.66624e-06
0.51089
1.59082e-06
0.510891
1.77319e-06
0.510891
1.95585e-06
0.510891
2.09903e-06
0.510891
2.11799e-06
0.510891
1.93395e-06
0.510891
1.68894e-06
0.510892
1.57989e-06
0.510893
1.70915e-06
0.510894
1.90649e-06
0.510894
1.93858e-06
0.510894
1.93444e-06
0.510894
1.9826e-06
0.510894
1.9684e-06
0.510894
1.9585e-06
0.510894
1.95223e-06
0.510894
1.81031e-06
0.510895
1.64899e-06
0.510896
1.71767e-06
0.510896
2.12441e-06
0.510897
2.64639e-06
0.510896
2.86588e-06
0.510896
2.70627e-06
0.510895
2.34127e-06
0.510896
1.97289e-06
0.510897
1.90432e-06
0.510897
2.18592e-06
0.510897
2.44004e-06
0.510896
2.45251e-06
0.510896
2.3288e-06
0.510896
2.1866e-06
0.510896
2.12531e-06
0.510896
2.17165e-06
0.510896
2.26547e-06
0.510897
2.31201e-06
0.510897
2.25471e-06
0.510898
2.20703e-06
0.510898
2.27709e-06
0.510898
2.30524e-06
0.510898
2.14184e-06
0.510897
1.90434e-06
0.510898
1.72306e-06
0.510898
1.6007e-06
0.510899
1.57027e-06
0.5109
1.71584e-06
0.5109
2.00469e-06
0.5109
2.18111e-06
0.510899
2.06069e-06
0.510899
1.79703e-06
0.510899
1.5839e-06
0.5109
1.46136e-06
0.510901
1.5258e-06
0.510901
1.80121e-06
0.510901
2.05403e-06
0.510901
2.08969e-06
0.510901
1.98094e-06
0.510901
1.92381e-06
0.510901
2.00305e-06
0.510901
2.1152e-06
0.510901
2.07015e-06
0.510901
1.86184e-06
0.510902
1.7988e-06
0.510902
2.01317e-06
0.510902
2.22018e-06
0.510902
2.24742e-06
0.510902
2.1581e-06
0.510902
2.06707e-06
0.510902
2.12375e-06
0.510903
2.30198e-06
0.510903
2.41424e-06
0.510903
2.41163e-06
0.510903
2.32184e-06
0.510903
2.2086e-06
0.510904
2.17352e-06
0.510904
2.14959e-06
0.510904
2.05022e-06
0.510905
1.97485e-06
0.510905
2.00943e-06
0.510906
2.08424e-06
0.510906
2.1529e-06
0.510906
2.20179e-06
0.510906
2.12677e-06
0.510906
2.04911e-06
0.510907
2.12031e-06
0.510907
2.14564e-06
2.13893e-06
0.51085
1.4627e-08
0.51085
7.40033e-07
0.51085
1.41948e-06
0.51085
1.46437e-06
0.51085
1.09199e-06
0.510851
7.90179e-07
0.510852
8.15611e-07
0.510853
9.46336e-07
0.510853
1.34293e-06
0.510854
1.79213e-06
0.510854
1.71172e-06
0.510854
1.63324e-06
0.510854
1.87005e-06
0.510854
2.10212e-06
0.510854
2.05853e-06
0.510855
1.7821e-06
0.510855
1.58525e-06
0.510856
1.53742e-06
0.510856
1.87253e-06
0.510856
2.17384e-06
0.510855
2.14901e-06
0.510854
2.29735e-06
0.510854
2.40588e-06
0.510854
2.15059e-06
0.510853
1.83325e-06
0.510853
1.65587e-06
0.510854
1.43607e-06
0.510855
1.30384e-06
0.510856
1.56265e-06
0.510856
1.72975e-06
0.510856
1.73742e-06
0.510856
1.83991e-06
0.510856
1.78308e-06
0.510856
1.82071e-06
0.510857
1.94245e-06
0.510858
1.65914e-06
0.510859
1.36018e-06
0.51086
1.399e-06
0.51086
1.81427e-06
0.510859
2.23061e-06
0.51086
1.95882e-06
0.510861
1.40308e-06
0.510862
1.32323e-06
0.510862
1.94271e-06
0.510862
2.65671e-06
0.510861
2.52166e-06
0.510862
2.00834e-06
0.510862
1.81408e-06
0.510862
1.77794e-06
0.510862
1.78216e-06
0.510862
1.71681e-06
0.510862
1.54036e-06
0.510863
1.40211e-06
0.510863
1.46994e-06
0.510863
1.73581e-06
0.510864
1.85166e-06
0.510864
1.69809e-06
0.510864
1.49977e-06
0.510864
1.4936e-06
0.510864
1.7183e-06
0.510864
1.86761e-06
0.510864
1.85921e-06
0.510865
1.8886e-06
0.510865
1.82324e-06
0.510865
1.68958e-06
0.510865
1.77931e-06
0.510864
1.88298e-06
0.510864
1.8647e-06
0.510864
2.02068e-06
0.510864
2.19125e-06
0.510865
2.0725e-06
0.510865
1.8913e-06
0.510865
1.83137e-06
0.510866
1.68678e-06
0.510867
1.58735e-06
0.510867
1.86105e-06
0.510867
2.24173e-06
0.510867
2.33011e-06
0.510868
2.0663e-06
0.510869
1.64421e-06
0.510869
1.34831e-06
0.510869
1.20033e-06
0.510869
1.12316e-06
0.510869
1.25874e-06
0.510869
1.59519e-06
0.51087
1.8555e-06
0.51087
1.84759e-06
0.510871
1.55383e-06
0.510872
1.06038e-06
0.510872
8.20219e-07
0.510873
1.17125e-06
0.510872
1.71972e-06
0.510872
2.09042e-06
0.510872
2.36191e-06
0.510873
2.46934e-06
0.510873
2.31845e-06
0.510873
2.07423e-06
0.510874
1.88492e-06
0.510874
1.74281e-06
0.510874
1.60398e-06
0.510873
1.55034e-06
0.510873
1.68886e-06
0.510874
1.9043e-06
0.510875
1.97522e-06
0.510876
1.91007e-06
0.510876
1.85641e-06
0.510877
1.80358e-06
0.510877
1.7194e-06
0.510877
1.69855e-06
0.510878
1.6844e-06
0.510878
1.62171e-06
0.510878
1.64906e-06
0.510878
1.7079e-06
0.510878
1.6796e-06
0.510878
1.69456e-06
0.510878
1.79784e-06
0.510878
1.94606e-06
0.510878
2.13731e-06
0.510878
2.16937e-06
0.510878
1.92354e-06
0.510878
1.68235e-06
0.510878
1.66498e-06
0.510879
1.82176e-06
0.510879
2.07042e-06
0.510879
2.26294e-06
0.510879
2.26708e-06
0.510878
2.1041e-06
0.510879
1.84421e-06
0.510879
1.65782e-06
0.510879
1.65762e-06
0.510879
1.67206e-06
0.510879
1.56862e-06
0.510879
1.41658e-06
0.51088
1.32279e-06
0.510881
1.42213e-06
0.510881
1.74042e-06
0.510881
2.06241e-06
0.510881
2.17074e-06
0.510881
2.11084e-06
0.510881
2.05467e-06
0.510881
2.02924e-06
0.510881
2.03476e-06
0.510881
2.12306e-06
0.510882
2.14256e-06
0.510882
1.94964e-06
0.510882
1.66586e-06
0.510883
1.43174e-06
0.510884
1.3816e-06
0.510884
1.5438e-06
0.510885
1.71444e-06
0.510885
1.812e-06
0.510885
1.79555e-06
0.510885
1.56623e-06
0.510886
1.34783e-06
0.510886
1.35391e-06
0.510886
1.41372e-06
0.510887
1.42809e-06
0.510887
1.47216e-06
0.510887
1.56506e-06
0.510888
1.70686e-06
0.510889
1.87314e-06
0.510889
1.99897e-06
0.510889
1.96048e-06
0.510889
1.71746e-06
0.510889
1.52169e-06
0.510889
1.54031e-06
0.51089
1.62017e-06
0.51089
1.69965e-06
0.51089
1.8116e-06
0.51089
1.89649e-06
0.51089
1.89547e-06
0.51089
1.79802e-06
0.51089
1.72187e-06
0.51089
1.74434e-06
0.51089
1.70542e-06
0.510891
1.62285e-06
0.510891
1.66146e-06
0.510891
1.70331e-06
0.510892
1.69448e-06
0.510892
1.79496e-06
0.510892
1.97953e-06
0.510891
2.09234e-06
0.510891
2.05627e-06
0.510891
1.95837e-06
0.510892
1.94277e-06
0.510893
1.96214e-06
0.510893
1.99483e-06
0.510894
2.06612e-06
0.510894
1.99013e-06
0.510894
1.75562e-06
0.510894
1.6311e-06
0.510895
1.66699e-06
0.510896
1.74934e-06
0.510896
1.87248e-06
0.510896
1.98719e-06
0.510896
2.03406e-06
0.510897
2.0106e-06
0.510897
1.96196e-06
0.510897
1.97839e-06
0.510897
2.01301e-06
0.510898
1.93454e-06
0.510898
1.82198e-06
0.510899
1.76999e-06
0.510899
1.66884e-06
0.5109
1.52484e-06
0.5109
1.48263e-06
0.5109
1.48012e-06
0.5109
1.38565e-06
0.510901
1.25595e-06
0.510901
1.22309e-06
0.510902
1.30237e-06
0.510903
1.39644e-06
0.510903
1.48519e-06
0.510903
1.57491e-06
0.510903
1.56934e-06
0.510903
1.41854e-06
0.510904
1.28416e-06
0.510904
1.3715e-06
0.510905
1.63034e-06
0.510905
1.80842e-06
0.510905
1.82138e-06
0.510905
1.77361e-06
0.510906
1.78669e-06
0.510906
1.88626e-06
0.510906
1.90468e-06
0.510906
1.77218e-06
0.510906
1.67958e-06
0.510907
1.73774e-06
0.510907
1.90022e-06
0.510907
2.07525e-06
0.510907
2.17042e-06
0.510907
2.19787e-06
0.510907
2.20548e-06
0.510907
2.18597e-06
0.510908
2.16375e-06
0.510908
2.15113e-06
0.510908
2.10803e-06
0.510908
2.11155e-06
0.510908
2.18378e-06
0.510908
2.14218e-06
0.510908
1.97037e-06
0.510908
1.80333e-06
0.510908
1.71581e-06
0.510909
1.75313e-06
0.510909
1.85316e-06
0.510909
1.88715e-06
0.51091
1.81996e-06
0.51091
1.85041e-06
0.51091
1.98513e-06
1.99336e-06
0.510849
4.74848e-07
0.510849
3.79542e-07
0.51085
3.35929e-07
0.510851
8.08112e-07
0.510851
1.04805e-06
0.51085
1.17231e-06
0.51085
1.22127e-06
0.510849
1.54702e-06
0.51085
1.28842e-06
0.51085
8.39823e-07
0.510851
1.09957e-06
0.510851
1.36494e-06
0.510852
1.33293e-06
0.510853
1.23008e-06
0.510853
1.49147e-06
0.510853
1.78275e-06
0.510853
1.67388e-06
0.510853
1.77979e-06
0.510853
1.87921e-06
0.510853
1.82665e-06
0.510854
1.97045e-06
0.510854
1.7476e-06
0.510855
1.08684e-06
0.510857
1.00716e-06
0.510857
1.36213e-06
0.510857
1.52635e-06
0.510857
1.70948e-06
0.510856
1.69141e-06
0.510857
1.4831e-06
0.510857
1.50605e-06
0.510857
1.40332e-06
0.510858
1.38832e-06
0.510858
1.67875e-06
0.510858
1.63293e-06
0.510858
1.3735e-06
0.510859
1.37223e-06
0.510858
1.58719e-06
0.510858
1.9463e-06
0.510858
2.01922e-06
0.510858
1.62294e-06
0.510859
1.30181e-06
0.510859
1.39274e-06
0.510859
1.6575e-06
0.510859
1.94568e-06
0.510859
1.93414e-06
0.51086
1.49432e-06
0.510861
1.33062e-06
0.510861
1.71991e-06
0.510861
1.98806e-06
0.510861
1.81359e-06
0.510861
1.43866e-06
0.510862
1.24819e-06
0.510862
1.40936e-06
0.510861
1.5496e-06
0.510862
1.47729e-06
0.510862
1.31051e-06
0.510863
1.19676e-06
0.510863
1.19837e-06
0.510863
1.1874e-06
0.510864
1.1989e-06
0.510864
1.37076e-06
0.510865
1.46328e-06
0.510865
1.45159e-06
0.510866
1.4989e-06
0.510866
1.38197e-06
0.510866
1.31902e-06
0.510867
1.6396e-06
0.510867
1.89379e-06
0.510867
1.96718e-06
0.510867
2.14212e-06
0.510867
2.10193e-06
0.510867
1.71327e-06
0.510867
1.50694e-06
0.510867
1.50826e-06
0.510867
1.40654e-06
0.510868
1.44743e-06
0.510868
1.65604e-06
0.510869
1.638e-06
0.51087
1.42976e-06
0.51087
1.24302e-06
0.51087
1.13967e-06
0.51087
1.26719e-06
0.51087
1.48594e-06
0.51087
1.5025e-06
0.51087
1.42071e-06
0.51087
1.36485e-06
0.510871
1.33188e-06
0.510871
1.37921e-06
0.510871
1.28526e-06
0.510871
9.14601e-07
0.510871
7.79306e-07
0.510872
1.11915e-06
0.510872
1.64389e-06
0.510872
2.15057e-06
0.510873
2.33202e-06
0.510873
2.01146e-06
0.510873
1.52309e-06
0.510874
1.24754e-06
0.510874
1.30141e-06
0.510874
1.60533e-06
0.510874
1.93466e-06
0.510874
2.10838e-06
0.510873
2.11278e-06
0.510873
2.03181e-06
0.510873
1.92866e-06
0.510873
1.89501e-06
0.510873
1.96002e-06
0.510873
1.93184e-06
0.510873
1.76461e-06
0.510873
1.6144e-06
0.510873
1.41004e-06
0.510874
1.17026e-06
0.510874
1.1236e-06
0.510875
1.23895e-06
0.510875
1.4055e-06
0.510875
1.59402e-06
0.510875
1.63665e-06
0.510876
1.53937e-06
0.510877
1.48873e-06
0.510877
1.41608e-06
0.510878
1.26268e-06
0.510878
1.25116e-06
0.510878
1.47775e-06
0.510879
1.78437e-06
0.510879
1.98906e-06
0.510879
1.96884e-06
0.51088
1.78432e-06
0.51088
1.57972e-06
0.51088
1.40605e-06
0.510881
1.26808e-06
0.510881
1.15327e-06
0.510882
1.11469e-06
0.510882
1.18841e-06
0.510882
1.25857e-06
0.510882
1.28362e-06
0.510882
1.3406e-06
0.510883
1.40639e-06
0.510884
1.46312e-06
0.510884
1.52849e-06
0.510885
1.61394e-06
0.510885
1.75695e-06
0.510885
1.89039e-06
0.510885
1.93881e-06
0.510886
1.92711e-06
0.510886
1.77787e-06
0.510886
1.51128e-06
0.510886
1.35513e-06
0.510886
1.38197e-06
0.510886
1.50123e-06
0.510886
1.58624e-06
0.510886