/*--------------------------------*- C++ -*----------------------------------*\
| =========                 |                                                 |
| \\      /  F ield         | OpenFOAM: The Open Source CFD Toolbox           |
|  \\    /   O peration     | Version:  2406                                  |
|   \\  /    A nd           | Website:  www.openfoam.com                      |
|    \\/     M anipulation  |                                                 |
\*---------------------------------------------------------------------------*/
FoamFile
{
    version     2.0;
    format      ascii;
    arch        "LSB;label=32;scalar=64";
    class       volVectorField;
    location    "1.45";
    object      U;
}
// * * * * * * * * * * * * * * * * * * * * * * * * * * * * * * * * * * * * * //

dimensions      [0 1 -1 0 0 0 0];

internalField   nonuniform List<vector> 
6250
(
(50.529 0.000116378 0)
(85.4188 0.000539446 0)
(73.2467 0.000814783 0)
(60.6061 0.000832183 0)
(59.8639 0.000786342 0)
(63.3222 0.000781733 0)
(64.8308 0.000782488 0)
(64.3791 0.000780456 0)
(63.7623 0.000782934 0)
(63.6598 0.00079893 0)
(63.8023 0.000807867 0)
(63.8864 0.000807145 0)
(63.876 0.000808136 0)
(63.8464 0.00081733 0)
(63.8376 0.000853501 0)
(63.8422 0.000884567 0)
(63.846 0.000881375 0)
(63.8454 0.000869828 0)
(63.8435 0.000900094 0)
(63.8423 0.000949343 0)
(63.8418 0.000910375 0)
(63.8415 0.000813943 0)
(63.8409 0.00078414 0)
(63.8402 0.000819892 0)
(63.8396 0.000855552 0)
(63.8389 0.000844811 0)
(63.8382 0.000817039 0)
(63.8375 0.000809981 0)
(63.8368 0.000794326 0)
(63.8362 0.000770878 0)
(63.8355 0.000768005 0)
(63.8349 0.000836157 0)
(63.8341 0.000957902 0)
(63.8333 0.00101804 0)
(63.8326 0.00100606 0)
(63.8319 0.00100274 0)
(63.8311 0.00100671 0)
(63.8303 0.000968518 0)
(63.8297 0.000883652 0)
(63.8291 0.000789031 0)
(63.8286 0.000733873 0)
(63.8281 0.000736343 0)
(63.8274 0.000775458 0)
(63.8268 0.000816923 0)
(63.8261 0.000838962 0)
(63.8254 0.000857224 0)
(63.8247 0.000886489 0)
(63.824 0.000912888 0)
(63.8234 0.000936683 0)
(63.8226 0.000960883 0)
(63.8218 0.00096989 0)
(63.8211 0.000973035 0)
(63.8204 0.000988399 0)
(63.8195 0.000987886 0)
(63.8188 0.000949585 0)
(63.8182 0.000911833 0)
(63.8174 0.000904648 0)
(63.8167 0.000914217 0)
(63.8161 0.00093265 0)
(63.8154 0.000964264 0)
(63.8147 0.00100071 0)
(63.8141 0.0010269 0)
(63.8133 0.00103177 0)
(63.8126 0.00102114 0)
(63.8119 0.00101777 0)
(63.8112 0.00102995 0)
(63.8105 0.00104951 0)
(63.8098 0.00105516 0)
(63.8091 0.00102388 0)
(63.8084 0.000973783 0)
(63.8078 0.000941985 0)
(63.8071 0.000933678 0)
(63.8064 0.000927107 0)
(63.8057 0.000911346 0)
(63.8051 0.000888425 0)
(63.8044 0.00086064 0)
(63.8037 0.000849513 0)
(63.8031 0.000865623 0)
(63.8024 0.000881073 0)
(63.8017 0.000870347 0)
(63.801 0.000832813 0)
(63.8004 0.000793503 0)
(63.7998 0.000782183 0)
(63.7992 0.000818516 0)
(63.7986 0.000911212 0)
(63.7979 0.00102732 0)
(63.7971 0.00110119 0)
(63.7963 0.00109092 0)
(63.7955 0.00100641 0)
(63.7948 0.000890605 0)
(63.7943 0.00080147 0)
(63.7938 0.000791514 0)
(63.7932 0.000850329 0)
(63.7924 0.000908561 0)
(63.7917 0.000925455 0)
(63.7911 0.000919885 0)
(63.7904 0.000917529 0)
(63.7897 0.000919995 0)
(63.789 0.000923127 0)
(63.7883 0.0009223 0)
(63.7876 0.000927972 0)
(63.787 0.00098093 0)
(63.7863 0.00109025 0)
(63.7855 0.00120275 0)
(63.7847 0.00125148 0)
(63.7838 0.00119488 0)
(63.7831 0.00105497 0)
(63.7825 0.000900373 0)
(63.7819 0.000797091 0)
(63.7814 0.00078964 0)
(63.7809 0.000865934 0)
(63.7802 0.000965042 0)
(63.7794 0.00104304 0)
(63.7786 0.00108916 0)
(63.7778 0.00111274 0)
(63.7771 0.00112318 0)
(63.7763 0.00111697 0)
(63.7757 0.00109213 0)
(63.775 0.0010521 0)
(63.7743 0.00100511 0)
(63.7737 0.000960546 0)
(63.7731 0.00092523 0)
(63.7725 0.000905377 0)
(63.7719 0.000891804 0)
(63.7713 0.000868225 0)
(63.7707 0.000846888 0)
(63.7701 0.000864287 0)
(63.7694 0.000932644 0)
(63.7686 0.00101893 0)
(63.7678 0.00108037 0)
(63.767 0.00108933 0)
(63.7663 0.00104761 0)
(63.7657 0.000990764 0)
(63.765 0.000943259 0)
(63.7644 0.000904731 0)
(63.7639 0.00087212 0)
(63.7633 0.000841751 0)
(63.7627 0.00081679 0)
(63.7621 0.000804883 0)
(63.7614 0.000814722 0)
(63.7608 0.000856178 0)
(63.76 0.00091308 0)
(63.7592 0.000955668 0)
(63.7585 0.000976753 0)
(63.7577 0.000983148 0)
(63.757 0.000990847 0)
(63.7564 0.00101236 0)
(63.7557 0.00103076 0)
(63.755 0.00101868 0)
(63.7544 0.000961344 0)
(63.7538 0.000870819 0)
(63.7532 0.000799751 0)
(63.7526 0.000793834 0)
(63.752 0.000847179 0)
(63.7513 0.000930099 0)
(63.7506 0.00100781 0)
(63.7498 0.00104842 0)
(63.7491 0.00105262 0)
(63.7484 0.0010432 0)
(63.7477 0.00103365 0)
(63.7471 0.00101871 0)
(63.7463 0.000985199 0)
(63.7457 0.000941194 0)
(63.745 0.000908477 0)
(63.7444 0.000897226 0)
(63.7438 0.000915128 0)
(63.7432 0.000956209 0)
(63.7425 0.00099188 0)
(63.7418 0.00100444 0)
(63.7411 0.00100045 0)
(63.7404 0.000997698 0)
(63.7396 0.00100657 0)
(63.7389 0.00102017 0)
(63.7382 0.00103256 0)
(63.7375 0.00103921 0)
(63.7368 0.00103222 0)
(63.7361 0.00102303 0)
(63.7354 0.00102311 0)
(63.7347 0.00100914 0)
(63.7341 0.000957858 0)
(63.7335 0.000885381 0)
(63.7329 0.000832879 0)
(63.7324 0.000830107 0)
(63.7317 0.000871687 0)
(63.731 0.000933205 0)
(63.7303 0.000989211 0)
(63.7296 0.00101193 0)
(63.7288 0.00100014 0)
(63.7282 0.000984346 0)
(63.7275 0.000979442 0)
(63.7268 0.000979534 0)
(63.7262 0.00098064 0)
(63.7255 0.000973078 0)
(63.7248 0.000945332 0)
(63.7241 0.000903474 0)
(63.7234 0.000868252 0)
(63.7228 0.000857584 0)
(63.7222 0.000874523 0)
(63.7216 0.000912544 0)
(63.721 0.000960529 0)
(63.7203 0.000998646 0)
(63.7196 0.00101142 0)
(63.7189 0.000999971 0)
(63.7182 0.000971349 0)
(63.7175 0.000935759 0)
(63.7168 0.000915592 0)
(63.7162 0.000934849 0)
(63.7155 0.000987725 0)
(63.7148 0.00103363 0)
(63.7141 0.00104007 0)
(63.7134 0.00101044 0)
(63.7127 0.000963939 0)
(63.712 0.000915224 0)
(63.7113 0.00087794 0)
(63.7107 0.000865384 0)
(63.71 0.000878334 0)
(63.7093 0.000908884 0)
(63.7086 0.000957103 0)
(63.708 0.00101662 0)
(63.7072 0.0010521 0)
(63.7064 0.00102953 0)
(63.7057 0.000961913 0)
(63.7051 0.000897538 0)
(63.7045 0.000874471 0)
(63.7039 0.000892891 0)
(63.7032 0.000919669 0)
(63.7025 0.000933234 0)
(63.7018 0.000949996 0)
(63.7011 0.000983523 0)
(63.7003 0.00101902 0)
(63.6996 0.00103419 0)
(63.6989 0.00101848 0)
(63.6982 0.00098854 0)
(63.6976 0.000970046 0)
(63.6969 0.000970148 0)
(63.6962 0.000988282 0)
(63.6955 0.00101561 0)
(63.6947 0.00103557 0)
(63.694 0.0010487 0)
(63.6933 0.00106225 0)
(63.6926 0.00106751 0)
(63.692 0.00106286 0)
(63.6913 0.00107214 0)
(63.6906 0.00110474 0)
(63.6898 0.001129 0)
(63.689 0.00111039 0)
(63.6883 0.00105868 0)
(63.6876 0.00100332 0)
(63.6871 0.00101824 0)
(63.686 0.0010138 0)
(50.5289 9.37871e-05 0)
(85.4199 0.000416907 0)
(73.2497 0.000635107 0)
(60.6108 0.000625858 0)
(59.8695 0.000555555 0)
(63.3287 0.00053617 0)
(64.8382 0.000544068 0)
(64.3877 0.000536252 0)
(63.772 0.00049056 0)
(63.6706 0.000461079 0)
(63.8143 0.000494145 0)
(63.8994 0.000559072 0)
(63.8899 0.000587999 0)
(63.8613 0.000562442 0)
(63.8535 0.000538722 0)
(63.8595 0.000544975 0)
(63.8643 0.000535451 0)
(63.8647 0.000474399 0)
(63.8638 0.000399527 0)
(63.8638 0.000368728 0)
(63.8644 0.000359018 0)
(63.8648 0.000351658 0)
(63.8651 0.000381932 0)
(63.8655 0.000431013 0)
(63.8657 0.000474639 0)
(63.866 0.000485686 0)
(63.8664 0.000502111 0)
(63.8668 0.00056264 0)
(63.8671 0.000591485 0)
(63.8674 0.0005801 0)
(63.8677 0.000551579 0)
(63.8679 0.000514664 0)
(63.8684 0.000497304 0)
(63.869 0.0004613 0)
(63.8694 0.000412682 0)
(63.8698 0.000432607 0)
(63.8704 0.000488802 0)
(63.8707 0.000500639 0)
(63.871 0.000466607 0)
(63.8712 0.000405815 0)
(63.8714 0.000364493 0)
(63.8717 0.000370872 0)
(63.872 0.0004094 0)
(63.8725 0.000466696 0)
(63.8728 0.000499615 0)
(63.8732 0.0004967 0)
(63.8736 0.000483552 0)
(63.8739 0.000467681 0)
(63.8743 0.000480443 0)
(63.8747 0.000519941 0)
(63.8751 0.000528942 0)
(63.8755 0.000506992 0)
(63.876 0.000507105 0)
(63.8765 0.000527508 0)
(63.8769 0.000518839 0)
(63.8773 0.000492778 0)
(63.8776 0.000487509 0)
(63.8779 0.000475567 0)
(63.8782 0.000425878 0)
(63.8786 0.000362895 0)
(63.879 0.000324 0)
(63.8795 0.000335044 0)
(63.8799 0.00038742 0)
(63.8803 0.000429072 0)
(63.8806 0.000425402 0)
(63.881 0.000383366 0)
(63.8814 0.00034173 0)
(63.8819 0.000335646 0)
(63.8823 0.000348959 0)
(63.8826 0.000364794 0)
(63.883 0.000395048 0)
(63.8834 0.000432378 0)
(63.8837 0.000451163 0)
(63.8841 0.000458639 0)
(63.8844 0.000471511 0)
(63.8847 0.000463332 0)
(63.885 0.000441202 0)
(63.8855 0.000448793 0)
(63.8858 0.000479422 0)
(63.8861 0.000507095 0)
(63.8864 0.000511275 0)
(63.8866 0.000481971 0)
(63.8869 0.000427384 0)
(63.8871 0.000360938 0)
(63.8875 0.000325364 0)
(63.8881 0.000356139 0)
(63.8886 0.000424109 0)
(63.8892 0.00047656 0)
(63.8897 0.000486991 0)
(63.89 0.000449679 0)
(63.8902 0.000388787 0)
(63.8904 0.000362465 0)
(63.8908 0.000392592 0)
(63.8912 0.000440915 0)
(63.8915 0.000473672 0)
(63.8918 0.000485552 0)
(63.8922 0.000476114 0)
(63.8925 0.000449186 0)
(63.8929 0.000428073 0)
(63.8933 0.000416251 0)
(63.8936 0.000382233 0)
(63.8939 0.000329754 0)
(63.8944 0.000298733 0)
(63.895 0.000315008 0)
(63.8957 0.000374531 0)
(63.8962 0.000428744 0)
(63.8966 0.000436731 0)
(63.8968 0.000404841 0)
(63.8969 0.00034705 0)
(63.897 0.000307201 0)
(63.8973 0.000328346 0)
(63.8978 0.000381716 0)
(63.8983 0.000420159 0)
(63.8988 0.000422635 0)
(63.8993 0.000393458 0)
(63.8998 0.000362874 0)
(63.9002 0.000349002 0)
(63.9005 0.000340933 0)
(63.9008 0.000322764 0)
(63.9012 0.000295991 0)
(63.9015 0.00027172 0)
(63.9018 0.000260131 0)
(63.9021 0.000279409 0)
(63.9024 0.00033148 0)
(63.9028 0.00038916 0)
(63.903 0.000429126 0)
(63.9033 0.000444548 0)
(63.9036 0.000438156 0)
(63.9041 0.000421441 0)
(63.9046 0.000412855 0)
(63.9051 0.000411904 0)
(63.9055 0.000394162 0)
(63.9059 0.00035441 0)
(63.9062 0.000310061 0)
(63.9065 0.00028441 0)
(63.9068 0.000300764 0)
(63.907 0.000354309 0)
(63.9073 0.000418911 0)
(63.9076 0.000467719 0)
(63.9078 0.000488349 0)
(63.9081 0.000502156 0)
(63.9085 0.000519585 0)
(63.9089 0.000520647 0)
(63.9093 0.000500417 0)
(63.9097 0.000458077 0)
(63.9101 0.000394314 0)
(63.9105 0.000337861 0)
(63.9109 0.000315487 0)
(63.9113 0.000335197 0)
(63.9117 0.000381073 0)
(63.912 0.000406607 0)
(63.9122 0.000396974 0)
(63.9125 0.000385113 0)
(63.9127 0.000384583 0)
(63.9131 0.000391853 0)
(63.9136 0.000404104 0)
(63.9141 0.000397245 0)
(63.9145 0.000361305 0)
(63.915 0.000327426 0)
(63.9154 0.000330354 0)
(63.9159 0.000374618 0)
(63.9163 0.00042557 0)
(63.9166 0.000444535 0)
(63.9169 0.000420156 0)
(63.9171 0.000359684 0)
(63.9173 0.000300782 0)
(63.9177 0.000291136 0)
(63.9182 0.000332457 0)
(63.9186 0.000390863 0)
(63.919 0.000433914 0)
(63.9194 0.000446626 0)
(63.9198 0.000431907 0)
(63.9202 0.000397438 0)
(63.9206 0.000365491 0)
(63.921 0.000358275 0)
(63.9214 0.000358081 0)
(63.9218 0.000347663 0)
(63.9222 0.000346588 0)
(63.9226 0.000361798 0)
(63.9229 0.000375573 0)
(63.9231 0.000377992 0)
(63.9233 0.000370148 0)
(63.9235 0.000359552 0)
(63.9238 0.000352308 0)
(63.9242 0.000358133 0)
(63.9247 0.00039238 0)
(63.9251 0.000434496 0)
(63.9254 0.000442392 0)
(63.9258 0.000416277 0)
(63.9262 0.000379583 0)
(63.9265 0.00034895 0)
(63.9269 0.000351221 0)
(63.9273 0.0003951 0)
(63.9277 0.000445363 0)
(63.9281 0.000464755 0)
(63.9284 0.0004476 0)
(63.9286 0.000410234 0)
(63.9289 0.000371231 0)
(63.9291 0.000344798 0)
(63.9295 0.000339119 0)
(63.9299 0.000345955 0)
(63.9303 0.000353082 0)
(63.9308 0.000367594 0)
(63.9312 0.000397513 0)
(63.9315 0.000424263 0)
(63.9318 0.000422333 0)
(63.9321 0.000396397 0)
(63.9325 0.000373237 0)
(63.933 0.000363908 0)
(63.9334 0.000366049 0)
(63.9339 0.000386856 0)
(63.9343 0.000430255 0)
(63.9347 0.000473861 0)
(63.935 0.000488487 0)
(63.9352 0.000473231 0)
(63.9356 0.000443294 0)
(63.9359 0.000407635 0)
(63.9363 0.00038419 0)
(63.9368 0.000393778 0)
(63.9373 0.000423468 0)
(63.9378 0.000435803 0)
(63.9381 0.000417769 0)
(63.9384 0.000392992 0)
(63.9386 0.000389886 0)
(63.9389 0.000413182 0)
(63.9393 0.000433922 0)
(63.9397 0.000424844 0)
(63.9401 0.000408596 0)
(63.9405 0.000416841 0)
(63.9409 0.000437916 0)
(63.9413 0.000444138 0)
(63.9416 0.000420971 0)
(63.9419 0.000384077 0)
(63.9422 0.000366106 0)
(63.9426 0.000372362 0)
(63.9429 0.000391118 0)
(63.9434 0.00040817 0)
(63.9437 0.000401646 0)
(63.9441 0.00037383 0)
(63.9445 0.000350734 0)
(63.9448 0.000338105 0)
(63.9451 0.000321993 0)
(63.9455 0.000307687 0)
(63.946 0.000317748 0)
(63.9465 0.000349659 0)
(63.9469 0.00037986 0)
(63.9473 0.000392024 0)
(63.9477 0.00037305 0)
(63.9479 0.000372936 0)
(63.9485 0.000346743 0)
(50.5292 -9.56995e-06 0)
(85.4198 1.06281e-06 0)
(73.2486 3.55232e-05 0)
(60.6088 3.36135e-05 0)
(59.8674 2.73732e-05 0)
(63.3263 6.13808e-05 0)
(64.8356 9.01541e-05 0)
(64.3847 9.31696e-05 0)
(63.7686 6.88997e-05 0)
(63.6665 5.26988e-05 0)
(63.8096 7.44209e-05 0)
(63.8945 0.000114269 0)
(63.8849 0.000148078 0)
(63.8561 0.000160943 0)
(63.848 0.000122493 0)
(63.8535 9.58573e-05 0)
(63.8581 0.000117461 0)
(63.8583 0.00013345 0)
(63.857 0.000124901 0)
(63.8562 0.00014618 0)
(63.8564 0.000223949 0)
(63.8567 0.000291178 0)
(63.8566 0.000290978 0)
(63.8566 0.000262253 0)
(63.8566 0.000233334 0)
(63.8567 0.000181595 0)
(63.8568 0.000133667 0)
(63.8569 0.000120683 0)
(63.8571 0.000125676 0)
(63.8572 0.0001396 0)
(63.8573 0.000166121 0)
(63.8574 0.000189503 0)
(63.8573 0.000202962 0)
(63.8573 0.000201078 0)
(63.8572 0.000171857 0)
(63.8571 0.000131287 0)
(63.8573 0.000113033 0)
(63.8574 0.000135257 0)
(63.8574 0.000177858 0)
(63.8575 0.000204954 0)
(63.8575 0.000220227 0)
(63.8575 0.000225757 0)
(63.8573 0.000195977 0)
(63.8573 0.00015377 0)
(63.8575 0.000131172 0)
(63.8575 0.000146704 0)
(63.8576 0.000193098 0)
(63.8576 0.000207409 0)
(63.8576 0.000183936 0)
(63.8578 0.000163185 0)
(63.8579 0.000148526 0)
(63.8579 0.000139145 0)
(63.8579 0.000135515 0)
(63.8579 0.000134509 0)
(63.858 0.000140451 0)
(63.8581 0.000163196 0)
(63.8582 0.000203838 0)
(63.8583 0.000235497 0)
(63.8584 0.000234306 0)
(63.8584 0.000213572 0)
(63.8583 0.000197613 0)
(63.8582 0.000205786 0)
(63.8582 0.00023698 0)
(63.8583 0.000256744 0)
(63.8584 0.000256052 0)
(63.8585 0.000246773 0)
(63.8584 0.000224618 0)
(63.8584 0.000211308 0)
(63.8584 0.000217319 0)
(63.8583 0.000223248 0)
(63.8584 0.000235719 0)
(63.8584 0.000253028 0)
(63.8584 0.000240923 0)
(63.8585 0.000202668 0)
(63.8586 0.000184201 0)
(63.8587 0.000180935 0)
(63.8586 0.000171968 0)
(63.8587 0.000183576 0)
(63.8587 0.000211883 0)
(63.8588 0.000225432 0)
(63.8589 0.000218805 0)
(63.8591 0.000205949 0)
(63.8592 0.000206816 0)
(63.8593 0.000207814 0)
(63.8592 0.000181472 0)
(63.859 0.000139326 0)
(63.8589 0.000109961 0)
(63.8589 0.000107021 0)
(63.8589 0.000129556 0)
(63.8591 0.000161426 0)
(63.8593 0.000175091 0)
(63.8594 0.000172196 0)
(63.8594 0.000181929 0)
(63.8593 0.000211106 0)
(63.8594 0.00024551 0)
(63.8595 0.000270537 0)
(63.8596 0.000272268 0)
(63.8596 0.000243093 0)
(63.8596 0.000207948 0)
(63.8597 0.000209992 0)
(63.8598 0.000241229 0)
(63.8598 0.000254775 0)
(63.8597 0.000228464 0)
(63.8594 0.000176252 0)
(63.8592 0.00014229 0)
(63.8592 0.000156538 0)
(63.8593 0.000208347 0)
(63.8595 0.000279048 0)
(63.8597 0.000319411 0)
(63.8596 0.000294327 0)
(63.8595 0.000250157 0)
(63.8595 0.000228777 0)
(63.8594 0.000230322 0)
(63.8595 0.000247726 0)
(63.8595 0.000255982 0)
(63.8594 0.000250937 0)
(63.8595 0.000259053 0)
(63.8595 0.000284117 0)
(63.8595 0.000308108 0)
(63.8595 0.000316774 0)
(63.8596 0.000300561 0)
(63.8596 0.000260016 0)
(63.8596 0.000222625 0)
(63.8596 0.000221568 0)
(63.8597 0.000257716 0)
(63.8598 0.000301383 0)
(63.8598 0.000315415 0)
(63.8598 0.000284869 0)
(63.8598 0.000224156 0)
(63.8597 0.000168906 0)
(63.8598 0.000162147 0)
(63.8599 0.00020436 0)
(63.86 0.000251085 0)
(63.86 0.000266504 0)
(63.86 0.000244831 0)
(63.8601 0.00021614 0)
(63.8601 0.00021705 0)
(63.8603 0.00025307 0)
(63.8604 0.000299234 0)
(63.8604 0.000312733 0)
(63.8605 0.000285941 0)
(63.8606 0.000257285 0)
(63.8606 0.000243888 0)
(63.8606 0.000245131 0)
(63.8607 0.000257581 0)
(63.8608 0.000249548 0)
(63.8607 0.000203933 0)
(63.8607 0.000143963 0)
(63.8606 0.000106808 0)
(63.8607 0.000130705 0)
(63.8609 0.000203066 0)
(63.8609 0.000262371 0)
(63.861 0.000282966 0)
(63.861 0.00026711 0)
(63.8609 0.000219688 0)
(63.861 0.00017921 0)
(63.861 0.000173586 0)
(63.861 0.000182047 0)
(63.8609 0.000180711 0)
(63.8608 0.000170544 0)
(63.8608 0.000176231 0)
(63.8608 0.000213758 0)
(63.8609 0.000266304 0)
(63.8611 0.000311466 0)
(63.8611 0.000319567 0)
(63.861 0.000271049 0)
(63.861 0.000204956 0)
(63.8609 0.000173753 0)
(63.861 0.00018784 0)
(63.861 0.000229568 0)
(63.8611 0.00027147 0)
(63.8612 0.000295166 0)
(63.8612 0.000292146 0)
(63.8611 0.000264143 0)
(63.8612 0.000243193 0)
(63.8612 0.000245878 0)
(63.8613 0.000242199 0)
(63.8613 0.000225352 0)
(63.8613 0.000223447 0)
(63.8614 0.000246606 0)
(63.8616 0.000287504 0)
(63.8617 0.000330902 0)
(63.8618 0.000357123 0)
(63.8617 0.000348083 0)
(63.8616 0.000294766 0)
(63.8616 0.000231288 0)
(63.8616 0.000207718 0)
(63.8617 0.000218393 0)
(63.8618 0.000235088 0)
(63.8618 0.000244753 0)
(63.8618 0.000225417 0)
(63.8617 0.00018144 0)
(63.8617 0.00015743 0)
(63.8618 0.000175798 0)
(63.8619 0.000221815 0)
(63.862 0.000271288 0)
(63.8621 0.000303623 0)
(63.8621 0.000309643 0)
(63.8621 0.000290399 0)
(63.8621 0.000259233 0)
(63.862 0.000234842 0)
(63.862 0.000218598 0)
(63.8619 0.000206217 0)
(63.8619 0.000210407 0)
(63.862 0.000236943 0)
(63.8622 0.000259613 0)
(63.8622 0.000251192 0)
(63.8622 0.000218588 0)
(63.8622 0.00018462 0)
(63.8621 0.000155523 0)
(63.8621 0.00013352 0)
(63.8622 0.000139114 0)
(63.8624 0.000180172 0)
(63.8625 0.000227864 0)
(63.8626 0.000256593 0)
(63.8627 0.000262185 0)
(63.8628 0.000237558 0)
(63.8627 0.000182476 0)
(63.8627 0.000129351 0)
(63.8627 0.000123662 0)
(63.8628 0.000172038 0)
(63.8629 0.000231856 0)
(63.863 0.000261149 0)
(63.8631 0.000254751 0)
(63.8632 0.000242641 0)
(63.8632 0.000251024 0)
(63.8633 0.000259834 0)
(63.8632 0.000246704 0)
(63.8633 0.000229043 0)
(63.8634 0.000227789 0)
(63.8635 0.000249914 0)
(63.8635 0.000282169 0)
(63.8636 0.000298038 0)
(63.8636 0.00029935 0)
(63.8636 0.000299896 0)
(63.8636 0.000298479 0)
(63.8636 0.000298809 0)
(63.8637 0.000300391 0)
(63.8637 0.000293337 0)
(63.8638 0.000289103 0)
(63.8638 0.000304625 0)
(63.8638 0.000317827 0)
(63.8638 0.000297141 0)
(63.8637 0.000254496 0)
(63.8637 0.000224638 0)
(63.8637 0.000232201 0)
(63.8638 0.000271868 0)
(63.8638 0.000305443 0)
(63.8638 0.000303981 0)
(63.8639 0.000296241 0)
(50.5291 7.393e-06 0)
(85.4197 9.36783e-05 0)
(73.2486 0.000193078 0)
(60.6091 0.000242641 0)
(59.8672 0.000277848 0)
(63.3264 0.000347271 0)
(64.8355 0.000401519 0)
(64.3846 0.000410355 0)
(63.7685 0.000424268 0)
(63.6667 0.000453204 0)
(63.8099 0.000414441 0)
(63.8948 0.00033302 0)
(63.885 0.000314447 0)
(63.8561 0.000348065 0)
(63.848 0.00035041 0)
(63.8534 0.000342908 0)
(63.8578 0.000375815 0)
(63.8579 0.000435299 0)
(63.8566 0.000462791 0)
(63.8562 0.000427855 0)
(63.8566 0.000380598 0)
(63.8569 0.000349205 0)
(63.857 0.000322373 0)
(63.857 0.000307965 0)
(63.8571 0.000288544 0)
(63.8572 0.000289796 0)
(63.8572 0.000326457 0)
(63.8571 0.000342593 0)
(63.857 0.000345075 0)
(63.857 0.000353538 0)
(63.857 0.000362001 0)
(63.8571 0.00036951 0)
(63.8571 0.000384822 0)
(63.8573 0.000416527 0)
(63.8574 0.000444409 0)
(63.8574 0.000431724 0)
(63.8573 0.000401219 0)
(63.8572 0.000390938 0)
(63.8572 0.000389646 0)
(63.8573 0.000388687 0)
(63.8573 0.000397105 0)
(63.8574 0.000414004 0)
(63.8574 0.000406867 0)
(63.8574 0.000355417 0)
(63.8574 0.000305591 0)
(63.8573 0.00031825 0)
(63.8573 0.000371918 0)
(63.8573 0.000379377 0)
(63.8573 0.000330101 0)
(63.8574 0.000295649 0)
(63.8574 0.000317843 0)
(63.8574 0.000368417 0)
(63.8575 0.000388579 0)
(63.8576 0.000367467 0)
(63.8576 0.000340676 0)
(63.8575 0.000327188 0)
(63.8575 0.000320802 0)
(63.8575 0.000320109 0)
(63.8576 0.000331409 0)
(63.8577 0.000352943 0)
(63.8579 0.000379432 0)
(63.8579 0.000396874 0)
(63.8579 0.000380728 0)
(63.8579 0.000330409 0)
(63.8579 0.000293105 0)
(63.858 0.000302278 0)
(63.8582 0.000332957 0)
(63.8583 0.000367045 0)
(63.8584 0.000391304 0)
(63.8584 0.000380886 0)
(63.8583 0.000355862 0)
(63.8584 0.000350089 0)
(63.8584 0.000352928 0)
(63.8584 0.000341865 0)
(63.8583 0.000336229 0)
(63.8584 0.000353972 0)
(63.8583 0.000369988 0)
(63.8583 0.000379745 0)
(63.8583 0.000389631 0)
(63.8583 0.000373841 0)
(63.8582 0.000318967 0)
(63.8582 0.00025757 0)
(63.8583 0.000248893 0)
(63.8585 0.000317902 0)
(63.8586 0.000415455 0)
(63.8587 0.000470322 0)
(63.8587 0.000458427 0)
(63.8587 0.000396683 0)
(63.8587 0.000321745 0)
(63.8587 0.000277535 0)
(63.8587 0.000264851 0)
(63.8587 0.00026722 0)
(63.8588 0.000298754 0)
(63.8588 0.000348911 0)
(63.8587 0.000381984 0)
(63.8587 0.000389898 0)
(63.8587 0.000378968 0)
(63.8587 0.000343195 0)
(63.8587 0.00028179 0)
(63.8587 0.000238627 0)
(63.8588 0.000269466 0)
(63.8589 0.000372144 0)
(63.8591 0.000490259 0)
(63.8592 0.000553866 0)
(63.8592 0.000533826 0)
(63.8592 0.000458626 0)
(63.8591 0.000373347 0)
(63.859 0.000329543 0)
(63.8592 0.000348911 0)
(63.8593 0.000381306 0)
(63.8593 0.000383229 0)
(63.8594 0.000352765 0)
(63.8595 0.000306803 0)
(63.8596 0.000286693 0)
(63.8597 0.000303383 0)
(63.8598 0.000324297 0)
(63.8598 0.000332919 0)
(63.8598 0.000331463 0)
(63.8599 0.000324085 0)
(63.86 0.000317249 0)
(63.8601 0.00031401 0)
(63.8601 0.000306368 0)
(63.8601 0.000288599 0)
(63.8601 0.00027158 0)
(63.86 0.000266787 0)
(63.86 0.00027606 0)
(63.8601 0.000297277 0)
(63.8602 0.000324634 0)
(63.8603 0.000336926 0)
(63.8603 0.000310747 0)
(63.8602 0.000266216 0)
(63.8603 0.000247446 0)
(63.8603 0.000267305 0)
(63.8604 0.000308314 0)
(63.8604 0.000336256 0)
(63.8604 0.00032295 0)
(63.8603 0.000277611 0)
(63.8603 0.000237751 0)
(63.8603 0.000235428 0)
(63.8604 0.000262361 0)
(63.8604 0.000289252 0)
(63.8605 0.000312343 0)
(63.8605 0.00033014 0)
(63.8605 0.000336103 0)
(63.8605 0.00034814 0)
(63.8606 0.000375542 0)
(63.8606 0.000401337 0)
(63.8607 0.000405823 0)
(63.8606 0.000373601 0)
(63.8605 0.00032332 0)
(63.8605 0.000294397 0)
(63.8605 0.00028979 0)
(63.8606 0.000300855 0)
(63.8607 0.000324401 0)
(63.8607 0.000335685 0)
(63.8607 0.000329109 0)
(63.8608 0.000335169 0)
(63.8609 0.000367969 0)
(63.861 0.000410691 0)
(63.8611 0.000433562 0)
(63.861 0.000418988 0)
(63.861 0.000376159 0)
(63.8609 0.000328419 0)
(63.861 0.0003094 0)
(63.8612 0.000330989 0)
(63.8613 0.000355845 0)
(63.8614 0.000355364 0)
(63.8614 0.000338167 0)
(63.8613 0.000314805 0)
(63.8613 0.000294229 0)
(63.8614 0.000284529 0)
(63.8615 0.00028879 0)
(63.8616 0.000303062 0)
(63.8617 0.000304957 0)
(63.8617 0.000291596 0)
(63.8617 0.000292716 0)
(63.8618 0.000304172 0)
(63.8618 0.000298354 0)
(63.8618 0.000278056 0)
(63.8618 0.000251112 0)
(63.8617 0.000222632 0)
(63.8618 0.000215578 0)
(63.8619 0.000251507 0)
(63.862 0.000323499 0)
(63.8621 0.00038595 0)
(63.8621 0.000399103 0)
(63.862 0.00037757 0)
(63.8619 0.000349991 0)
(63.8619 0.000333853 0)
(63.862 0.0003491 0)
(63.8621 0.000379486 0)
(63.8621 0.000382315 0)
(63.8621 0.000353356 0)
(63.862 0.000317794 0)
(63.862 0.000295172 0)
(63.862 0.000296337 0)
(63.862 0.000319451 0)
(63.862 0.000351601 0)
(63.8621 0.000375807 0)
(63.8621 0.000382807 0)
(63.8622 0.000382658 0)
(63.8622 0.000379895 0)
(63.8622 0.000355538 0)
(63.8622 0.000306983 0)
(63.8622 0.000269517 0)
(63.8622 0.000269384 0)
(63.8623 0.000296534 0)
(63.8624 0.000332171 0)
(63.8625 0.000365134 0)
(63.8625 0.000378807 0)
(63.8625 0.00035416 0)
(63.8625 0.000300542 0)
(63.8624 0.000254126 0)
(63.8624 0.000233591 0)
(63.8625 0.000237773 0)
(63.8626 0.000268571 0)
(63.8627 0.000314599 0)
(63.8627 0.000343225 0)
(63.8627 0.000334393 0)
(63.8626 0.000306914 0)
(63.8626 0.000293891 0)
(63.8626 0.000300826 0)
(63.8626 0.00030695 0)
(63.8626 0.000291783 0)
(63.8626 0.000263874 0)
(63.8627 0.000260804 0)
(63.8628 0.000288368 0)
(63.8628 0.000310567 0)
(63.8627 0.000312106 0)
(63.8627 0.000305427 0)
(63.8627 0.000306533 0)
(63.8628 0.00032125 0)
(63.8628 0.000333695 0)
(63.8628 0.000334182 0)
(63.8629 0.00032895 0)
(63.8629 0.000317328 0)
(63.8629 0.000306114 0)
(63.8629 0.00030692 0)
(63.863 0.000307517 0)
(63.863 0.000300682 0)
(63.863 0.000304804 0)
(63.8631 0.000325151 0)
(63.8632 0.00034532 0)
(63.8632 0.000354648 0)
(63.8633 0.000350605 0)
(63.8633 0.000332177 0)
(63.8633 0.000319243 0)
(63.8633 0.000322417 0)
(63.8634 0.000324016 0)
(63.8634 0.000331671 0)
(50.5291 1.36828e-05 0)
(85.4198 8.57273e-05 0)
(73.2486 0.000151028 0)
(60.6089 0.000181515 0)
(59.8672 0.000147502 0)
(63.3262 9.80005e-05 0)
(64.8356 9.28523e-05 0)
(64.3849 8.51008e-05 0)
(63.7687 0.000112483 0)
(63.6669 0.000185181 0)
(63.8102 0.000200317 0)
(63.895 0.000176617 0)
(63.8852 0.00019122 0)
(63.8564 0.000216501 0)
(63.8482 0.000196301 0)
(63.8536 0.000160813 0)
(63.8581 0.000156504 0)
(63.8584 0.000154659 0)
(63.8573 0.000122931 0)
(63.8566 7.10862e-05 0)
(63.8567 5.99544e-05 0)
(63.8569 0.000112277 0)
(63.8568 0.000164684 0)
(63.8567 0.000170644 0)
(63.8567 0.000143632 0)
(63.8566 0.000151521 0)
(63.8567 0.000178165 0)
(63.8569 0.000168675 0)
(63.857 0.000166547 0)
(63.857 0.00018088 0)
(63.857 0.000177686 0)
(63.8571 0.000141867 0)
(63.857 9.29797e-05 0)
(63.857 0.000102571 0)
(63.857 0.000167393 0)
(63.8571 0.000201117 0)
(63.8573 0.00018675 0)
(63.8574 0.000155064 0)
(63.8575 0.000155416 0)
(63.8575 0.000196888 0)
(63.8574 0.000211512 0)
(63.8575 0.000181887 0)
(63.8577 0.0001589 0)
(63.8578 0.000187091 0)
(63.8578 0.000239195 0)
(63.8576 0.000249517 0)
(63.8577 0.000219094 0)
(63.8578 0.000174431 0)
(63.8577 0.000132104 0)
(63.8578 0.000116234 0)
(63.8577 0.000123686 0)
(63.8577 0.000128807 0)
(63.8578 0.000123059 0)
(63.8578 0.000136142 0)
(63.8579 0.00017568 0)
(63.858 0.000194552 0)
(63.858 0.000167129 0)
(63.858 0.000115744 0)
(63.858 8.3075e-05 0)
(63.858 9.48734e-05 0)
(63.858 0.000132014 0)
(63.858 0.000160948 0)
(63.8581 0.000168579 0)
(63.8581 0.000146953 0)
(63.8581 0.000108216 0)
(63.8581 8.91121e-05 0)
(63.858 9.08536e-05 0)
(63.858 0.000105731 0)
(63.858 0.000148253 0)
(63.858 0.000196943 0)
(63.858 0.000216876 0)
(63.8581 0.000221724 0)
(63.8582 0.000231952 0)
(63.8582 0.000227186 0)
(63.8583 0.000215343 0)
(63.8584 0.000233711 0)
(63.8584 0.00025823 0)
(63.8584 0.000254476 0)
(63.8584 0.000232128 0)
(63.8585 0.000195656 0)
(63.8586 0.000138873 0)
(63.8587 6.92998e-05 0)
(63.8587 1.44788e-05 0)
(63.8586 7.56008e-06 0)
(63.8587 5.18313e-05 0)
(63.8587 0.000109969 0)
(63.8587 0.000144354 0)
(63.8588 0.000138886 0)
(63.8589 9.81605e-05 0)
(63.859 6.98283e-05 0)
(63.8591 9.51098e-05 0)
(63.8591 0.000151046 0)
(63.859 0.000211185 0)
(63.859 0.000266879 0)
(63.859 0.000296429 0)
(63.8591 0.000289839 0)
(63.8592 0.000261996 0)
(63.8592 0.000226504 0)
(63.8592 0.000177512 0)
(63.8592 0.000118333 0)
(63.8592 8.22253e-05 0)
(63.8592 9.01836e-05 0)
(63.8592 0.000128006 0)
(63.8593 0.000164732 0)
(63.8594 0.000179071 0)
(63.8595 0.000175132 0)
(63.8596 0.000156988 0)
(63.8596 0.000134611 0)
(63.8596 0.000135397 0)
(63.8597 0.00015126 0)
(63.8597 0.000154147 0)
(63.8598 0.000147067 0)
(63.8598 0.000135406 0)
(63.8598 0.000125175 0)
(63.8598 0.000131842 0)
(63.8598 0.000149347 0)
(63.8598 0.000163005 0)
(63.8598 0.00017059 0)
(63.8598 0.000164914 0)
(63.8597 0.000145684 0)
(63.8597 0.000143189 0)
(63.8598 0.000176269 0)
(63.8598 0.000223834 0)
(63.8598 0.000262856 0)
(63.8599 0.000282905 0)
(63.8598 0.000279011 0)
(63.8598 0.000254608 0)
(63.8598 0.000221825 0)
(63.8598 0.000197894 0)
(63.8599 0.000182572 0)
(63.8599 0.000161684 0)
(63.8599 0.000136296 0)
(63.8599 0.000117337 0)
(63.8599 0.000120091 0)
(63.86 0.000157208 0)
(63.8601 0.000213844 0)
(63.8602 0.000259482 0)
(63.8601 0.000277681 0)
(63.8601 0.000274918 0)
(63.8601 0.000270074 0)
(63.8601 0.000267694 0)
(63.8601 0.000263396 0)
(63.8602 0.000256911 0)
(63.8602 0.000235339 0)
(63.8602 0.000193681 0)
(63.8602 0.000154673 0)
(63.8603 0.000137758 0)
(63.8604 0.000146788 0)
(63.8605 0.000168672 0)
(63.8606 0.000182116 0)
(63.8606 0.000186215 0)
(63.8606 0.000180472 0)
(63.8606 0.000157839 0)
(63.8607 0.000135537 0)
(63.8608 0.000123667 0)
(63.8608 0.000106731 0)
(63.8608 8.63074e-05 0)
(63.8608 8.25338e-05 0)
(63.8609 0.000106697 0)
(63.8609 0.000149406 0)
(63.861 0.000186578 0)
(63.8611 0.000200455 0)
(63.8611 0.000179355 0)
(63.8611 0.00013169 0)
(63.8611 0.000101683 0)
(63.8612 0.000111686 0)
(63.8612 0.000140112 0)
(63.8612 0.000169409 0)
(63.8613 0.000188098 0)
(63.8613 0.000186371 0)
(63.8613 0.000170269 0)
(63.8613 0.000152892 0)
(63.8612 0.000151246 0)
(63.8613 0.000164811 0)
(63.8613 0.000171132 0)
(63.8613 0.000175949 0)
(63.8614 0.000194015 0)
(63.8614 0.000207695 0)
(63.8614 0.000211914 0)
(63.8615 0.000219713 0)
(63.8615 0.000225706 0)
(63.8614 0.000222466 0)
(63.8613 0.000216185 0)
(63.8613 0.000222794 0)
(63.8614 0.000245739 0)
(63.8615 0.000262118 0)
(63.8616 0.000261196 0)
(63.8617 0.000247868 0)
(63.8617 0.000217364 0)
(63.8617 0.000187253 0)
(63.8617 0.000187437 0)
(63.8618 0.000209482 0)
(63.8619 0.000232801 0)
(63.862 0.000249938 0)
(63.862 0.000252994 0)
(63.862 0.000241469 0)
(63.8621 0.000224457 0)
(63.8621 0.000210856 0)
(63.8621 0.000207047 0)
(63.8622 0.000207417 0)
(63.8622 0.000204105 0)
(63.8622 0.000204243 0)
(63.8623 0.000206667 0)
(63.8624 0.00019409 0)
(63.8624 0.000169231 0)
(63.8625 0.000149112 0)
(63.8625 0.000131712 0)
(63.8625 0.000112516 0)
(63.8625 0.000105947 0)
(63.8626 0.000125817 0)
(63.8627 0.000158759 0)
(63.8628 0.000178936 0)
(63.8629 0.000183833 0)
(63.8629 0.000180076 0)
(63.8629 0.000162725 0)
(63.8629 0.000139937 0)
(63.8629 0.000135007 0)
(63.863 0.000157984 0)
(63.8631 0.000190785 0)
(63.8631 0.00020562 0)
(63.8631 0.000200162 0)
(63.8632 0.000194935 0)
(63.8632 0.000204964 0)
(63.8632 0.000221628 0)
(63.8632 0.000221809 0)
(63.8632 0.000208725 0)