/*--------------------------------*- C++ -*----------------------------------*\
| =========                 |                                                 |
| \\      /  F ield         | OpenFOAM: The Open Source CFD Toolbox           |
|  \\    /   O peration     | Version:  2406                                  |
|   \\  /    A nd           | Website:  www.openfoam.com                      |
|    \\/     M anipulation  |                                                 |
\*---------------------------------------------------------------------------*/
FoamFile
{
    version     2.0;
    format      ascii;
    arch        "LSB;label=32;scalar=64";
    class       surfaceScalarField;
    location    "1.15";
    object      alphaPhi0.air;
}
// * * * * * * * * * * * * * * * * * * * * * * * * * * * * * * * * * * * * * //

dimensions      [0 3 -1 0 0 0 0];

oriented        oriented;

internalField   nonuniform List<scalar> 
12225
(
0.509522
1.83748e-06
0.509515
7.21509e-06
0.509506
8.52611e-06
0.509501
5.66543e-06
0.509497
3.9457e-06
0.509492
4.49552e-06
0.509487
5.55356e-06
0.509481
5.4268e-06
0.509476
5.23575e-06
0.50947
5.70268e-06
0.509464
5.98724e-06
0.509458
5.82464e-06
0.509452
5.92064e-06
0.509447
5.74287e-06
0.509442
5.19152e-06
0.509437
4.91848e-06
0.509432
4.94848e-06
0.509426
5.19027e-06
0.509421
5.54326e-06
0.509415
5.82262e-06
0.509409
5.66734e-06
0.509404
4.98015e-06
0.5094
4.61151e-06
0.509395
4.9466e-06
0.50939
5.36529e-06
0.509384
5.6837e-06
0.509378
5.6776e-06
0.509373
5.44369e-06
0.509367
5.70979e-06
0.509361
6.1418e-06
0.509355
5.94009e-06
0.50935
5.40492e-06
0.509344
5.28267e-06
0.509339
5.34938e-06
0.509334
5.25618e-06
0.509328
5.34461e-06
0.509323
5.58057e-06
0.509317
5.69474e-06
0.509311
5.69591e-06
0.509306
5.60499e-06
0.5093
5.34281e-06
0.509296
4.76143e-06
0.509292
4.11197e-06
0.509287
4.11615e-06
0.509283
4.69993e-06
0.509278
5.16329e-06
0.509272
5.5959e-06
0.509266
6.13918e-06
0.50926
6.30649e-06
0.509253
6.02357e-06
0.509248
5.67011e-06
0.509242
5.57802e-06
0.509237
5.71921e-06
0.509231
5.81351e-06
0.509225
5.64856e-06
0.50922
5.24319e-06
0.509215
4.96124e-06
0.50921
5.01287e-06
0.509205
5.24638e-06
0.509199
5.52715e-06
0.509193
5.68023e-06
0.509188
5.64893e-06
0.509182
5.51618e-06
0.509177
5.2277e-06
0.509172
5.00512e-06
0.509167
5.1053e-06
0.509162
5.33144e-06
0.509156
5.5418e-06
0.50915
5.57678e-06
0.509145
5.28399e-06
0.50914
4.98743e-06
0.509135
4.95954e-06
0.50913
5.16745e-06
0.509125
5.52541e-06
0.509119
5.77907e-06
0.509113
5.84738e-06
0.509107
5.81122e-06
0.509102
5.52273e-06
0.509097
5.02946e-06
0.509092
4.77534e-06
0.509087
4.97314e-06
0.509081
5.38488e-06
0.509076
5.67333e-06
0.50907
5.72587e-06
0.509064
5.67482e-06
0.509059
5.66162e-06
0.509053
5.67547e-06
0.509047
5.59056e-06
0.509042
5.40452e-06
0.509037
5.19006e-06
0.509032
4.97608e-06
0.509027
4.93818e-06
0.509022
5.02153e-06
0.509017
4.95936e-06
0.509012
4.90256e-06
0.509007
5.02182e-06
0.509002
5.23735e-06
0.508996
5.55781e-06
0.50899
5.79237e-06
0.508985
5.71448e-06
0.508979
5.44252e-06
0.508974
5.13118e-06
0.508969
4.90563e-06
0.508964
4.94468e-06
0.508959
5.24375e-06
0.508953
5.61066e-06
0.508947
5.89629e-06
0.508941
5.98482e-06
0.508936
5.76413e-06
0.50893
5.38108e-06
0.508925
5.20021e-06
0.50892
5.3475e-06
0.508914
5.65966e-06
0.508908
5.877e-06
0.508902
5.88423e-06
0.508897
5.78469e-06
0.508891
5.60158e-06
0.508886
5.32819e-06
0.508881
5.11206e-06
0.508876
5.02495e-06
0.50887
5.15867e-06
0.508865
5.6187e-06
0.508859
6.16844e-06
0.508852
6.45929e-06
0.508846
6.37329e-06
0.50884
5.9974e-06
0.508834
5.55844e-06
0.508829
5.24677e-06
0.508824
5.07069e-06
0.508819
4.94509e-06
0.508814
4.91775e-06
0.508809
5.11689e-06
0.508803
5.43428e-06
0.508798
5.70099e-06
0.508792
5.89873e-06
0.508786
6.05187e-06
0.50878
6.2233e-06
0.508773
6.28568e-06
0.508767
6.05007e-06
0.508762
5.6723e-06
0.508756
5.3731e-06
0.508751
5.22314e-06
0.508746
5.25697e-06
0.50874
5.28366e-06
0.508735
5.20503e-06
0.50873
5.28881e-06
0.508724
5.70616e-06
0.508718
6.23276e-06
0.508712
6.43405e-06
0.508705
6.10423e-06
0.5087
5.54533e-06
0.508695
5.11554e-06
0.50869
4.86889e-06
0.508685
4.81342e-06
0.50868
4.92167e-06
0.508675
5.06304e-06
0.50867
5.1469e-06
0.508665
5.23191e-06
0.508659
5.37146e-06
0.508654
5.44808e-06
0.508649
5.43644e-06
0.508643
5.39478e-06
0.508638
5.2057e-06
0.508633
4.87713e-06
0.508628
4.65261e-06
0.508624
4.70087e-06
0.508619
5.02322e-06
0.508613
5.37143e-06
0.508608
5.3971e-06
0.508603
5.15195e-06
0.508598
4.96814e-06
0.508593
4.99995e-06
0.508588
5.16265e-06
0.508582
5.27436e-06
0.508577
5.29523e-06
0.508572
5.28569e-06
0.508567
5.22144e-06
0.508561
5.12847e-06
0.508556
5.07178e-06
0.508551
4.98351e-06
0.508546
4.85329e-06
0.508542
4.83046e-06
0.508537
4.96728e-06
0.508532
5.1557e-06
0.508526
5.28686e-06
0.508521
5.34564e-06
0.508516
5.38887e-06
0.50851
5.44173e-06
0.508505
5.45974e-06
0.508499
5.43342e-06
0.508494
5.45637e-06
0.508488
5.52187e-06
0.508483
5.43118e-06
0.508478
5.15188e-06
0.508473
4.94192e-06
0.508468
5.00452e-06
0.508462
5.31273e-06
0.508457
5.65922e-06
0.508451
5.79752e-06
0.508445
5.7105e-06
0.50844
5.59839e-06
0.508434
5.59744e-06
0.508428
5.70663e-06
0.508422
5.84779e-06
0.508417
5.91977e-06
0.508411
5.88386e-06
0.508405
5.79695e-06
0.508399
5.79058e-06
0.508393
5.91294e-06
0.508387
6.03353e-06
0.508381
6.07701e-06
0.508375
6.08405e-06
0.508369
5.99448e-06
0.508363
5.77601e-06
0.508358
5.62701e-06
0.508352
5.73456e-06
0.508346
6.0014e-06
0.50834
6.17834e-06
0.508334
6.11976e-06
0.508328
5.88158e-06
0.508322
5.64925e-06
0.508316
5.57453e-06
0.508311
5.63732e-06
0.508305
5.69511e-06
0.508299
5.67397e-06
0.508294
5.64541e-06
0.508288
5.69607e-06
0.508282
5.75689e-06
0.508277
5.66196e-06
0.508271
5.41307e-06
0.508266
5.215e-06
0.508261
5.18754e-06
0.508256
5.22531e-06
0.50825
5.18689e-06
0.508245
5.07227e-06
0.50824
4.98758e-06
0.508235
5.00547e-06
0.50823
5.09649e-06
0.508225
5.17314e-06
0.50822
5.17265e-06
0.508215
5.13186e-06
0.50821
5.11122e-06
0.508205
5.06067e-06
0.5082
4.94511e-06
0.508195
4.883e-06
0.50819
4.94474e-06
0.508185
5.04723e-06
0.50818
4.99955e-06
0.508175
5.20805e-06
4.63071e-06
0.509526
-3.43868e-07
0.509533
-1.04606e-07
0.509541
9.41841e-07
0.509544
2.46441e-06
0.509545
2.63638e-06
0.509547
2.23215e-06
0.509551
2.31838e-06
0.509554
2.3022e-06
0.509557
2.24716e-06
0.50956
2.14288e-06
0.509564
2.68995e-06
0.509566
2.94452e-06
0.50957
2.07786e-06
0.509574
1.92618e-06
0.509576
2.96859e-06
0.509578
3.37895e-06
0.50958
2.85575e-06
0.509583
2.25146e-06
0.509587
1.84658e-06
0.50959
2.08559e-06
0.509593
2.60105e-06
0.509595
2.85828e-06
0.509598
2.58429e-06
0.5096
2.26097e-06
0.509603
2.62587e-06
0.509606
2.95422e-06
0.509608
2.95575e-06
0.509611
2.85991e-06
0.509614
2.64784e-06
0.509618
2.46937e-06
0.509621
2.44033e-06
0.509624
2.15891e-06
0.509628
1.66949e-06
0.509632
1.68466e-06
0.509635
2.12315e-06
0.509638
2.55423e-06
0.50964
2.79976e-06
0.509643
2.85105e-06
0.509646
2.8773e-06
0.509649
2.99187e-06
0.509651
3.12557e-06
0.509653
3.0362e-06
0.509654
2.46746e-06
0.509657
1.82647e-06
0.50966
1.71951e-06
0.509663
1.77001e-06
0.509667
1.54682e-06
0.509672
1.56356e-06
0.509676
2.06721e-06
0.509679
2.58703e-06
0.509682
2.75504e-06
0.509685
2.73609e-06
0.509688
2.78604e-06
0.509691
2.82744e-06
0.509694
2.74863e-06
0.509697
2.57947e-06
0.509699
2.43415e-06
0.509702
2.35577e-06
0.509705
2.25455e-06
0.509708
2.29841e-06
0.509711
2.54654e-06
0.509714
2.69836e-06
0.509717
2.68969e-06
0.50972
2.5189e-06
0.509722
2.26892e-06
0.509725
2.26493e-06
0.509728
2.3707e-06
0.509731
2.37777e-06
0.509734
2.46943e-06
0.509737
2.59311e-06
0.509739
2.69052e-06
0.509741
2.86256e-06
0.509744
2.95966e-06
0.509746
2.85397e-06
0.50975
2.53332e-06
0.509753
2.12508e-06
0.509757
2.01869e-06
0.50976
2.25708e-06
0.509763
2.40524e-06
0.509765
2.31741e-06
0.509768
2.29315e-06
0.509771
2.52845e-06
0.509774
2.87046e-06
0.509776
3.03926e-06
0.509779
2.87681e-06
0.509782
2.48122e-06
0.509786
2.212e-06
0.509789
2.25438e-06
0.509792
2.45575e-06
0.509795
2.72146e-06
0.509797
2.90905e-06
0.509799
2.99692e-06
0.509801
3.12045e-06
0.509802
3.04218e-06
0.509805
2.62457e-06
0.509808
2.16194e-06
0.509811
1.81449e-06
0.509815
1.76072e-06
0.509818
2.11414e-06
0.509822
2.54013e-06
0.509824
2.76127e-06
0.509827
2.78387e-06
0.509829
2.6256e-06
0.509832
2.38612e-06
0.509835
2.25769e-06
0.509838
2.25929e-06
0.509841
2.38807e-06
0.509845
2.73282e-06
0.509847
3.11488e-06
0.509849
3.16703e-06
0.509852
2.88043e-06
0.509855
2.56007e-06
0.509858
2.4371e-06
0.509861
2.48753e-06
0.509865
2.49949e-06
0.509868
2.43874e-06
0.509871
2.39371e-06
0.509874
2.33728e-06
0.509877
2.34137e-06
0.50988
2.43557e-06
0.509882
2.44732e-06
0.509885
2.42311e-06
0.509889
2.51905e-06
0.509893
2.6551e-06
0.509897
2.67191e-06
0.5099
2.54313e-06
0.509903
2.39394e-06
0.509906
2.4002e-06
0.509908
2.60777e-06
0.509911
2.82441e-06
0.509913
2.7917e-06
0.509915
2.5777e-06
0.509918
2.38849e-06
0.509922
2.25066e-06
0.509926
2.11024e-06
0.50993
1.90828e-06
0.509934
1.79994e-06
0.509938
2.04226e-06
0.509942
2.42574e-06
0.509945
2.67515e-06
0.509948
2.78373e-06
0.50995
2.74458e-06
0.509953
2.70159e-06
0.509955
2.79658e-06
0.509958
2.75498e-06
0.50996
2.38882e-06
0.509964
1.95449e-06
0.509969
1.8152e-06
0.509973
2.03509e-06
0.509977
2.29964e-06
0.50998
2.4117e-06
0.509983
2.53119e-06
0.509985
2.69134e-06
0.509987
2.78229e-06
0.509989
2.82043e-06
0.509991
2.83891e-06
0.509993
2.75801e-06
0.509996
2.55082e-06
0.509999
2.37852e-06
0.510002
2.27113e-06
0.510006
2.12698e-06
0.510009
2.11962e-06
0.510012
2.35476e-06
0.510014
2.61171e-06
0.510016
2.70437e-06
0.510018
2.62713e-06
0.510021
2.55158e-06
0.510023
2.67576e-06
0.510026
2.86202e-06
0.510028
2.86151e-06
0.51003
2.70629e-06
0.510033
2.53731e-06
0.510036
2.41941e-06
0.510038
2.30944e-06
0.510042
2.16876e-06
0.510045
2.12872e-06
0.510048
2.26576e-06
0.51005
2.49409e-06
0.510053
2.76347e-06
0.510055
2.96818e-06
0.510057
2.93631e-06
0.510059
2.70945e-06
0.510061
2.51192e-06
0.510064
2.4659e-06
0.510067
2.49886e-06
0.51007
2.48472e-06
0.510072
2.40781e-06
0.510076
2.34257e-06
0.510079
2.31053e-06
0.510082
2.2487e-06
0.510085
2.21194e-06
0.510088
2.41105e-06
0.510091
2.81239e-06
0.510093
3.0859e-06
0.510095
3.0675e-06
0.510097
2.85433e-06
0.5101
2.62653e-06
0.510103
2.54857e-06
0.510106
2.5864e-06
0.510109
2.55936e-06
0.510112
2.4291e-06
0.510116
2.2919e-06
0.510119
2.23494e-06
0.510123
2.29472e-06
0.510126
2.43995e-06
0.510129
2.59167e-06
0.510133
2.64453e-06
0.510136
2.57857e-06
0.510139
2.52572e-06
0.510143
2.52895e-06
0.510146
2.50317e-06
0.51015
2.52379e-06
0.510153
2.67213e-06
0.510156
2.75981e-06
0.510159
2.59796e-06
0.510163
2.32694e-06
0.510166
2.20931e-06
0.51017
2.30996e-06
0.510174
2.49826e-06
0.510177
2.63356e-06
0.51018
2.6683e-06
0.510183
2.64934e-06
0.510186
2.63555e-06
0.510189
2.62309e-06
0.510192
2.55819e-06
0.510195
2.41991e-06
0.510199
2.31408e-06
0.510202
2.3955e-06
0.510205
2.60358e-06
0.510208
2.68082e-06
0.510211
2.55227e-06
0.510213
2.445e-06
0.510216
2.54729e-06
0.510218
2.77968e-06
0.510221
2.94315e-06
0.510223
2.93992e-06
0.510225
2.81408e-06
0.510227
2.66172e-06
0.51023
2.55134e-06
0.510233
2.48096e-06
0.510235
2.43192e-06
0.510238
2.46772e-06
0.51024
2.60653e-06
0.510243
2.66013e-06
0.510245
2.50166e-06
0.510248
2.30729e-06
0.51025
2.28151e-06
0.510253
2.35482e-06
0.510256
2.34965e-06
2.46995e-06
0.509526
-2.24775e-07
0.509525
1.82898e-07
0.509525
1.21278e-06
0.509526
1.21262e-06
0.509527
1.44669e-06
0.509528
1.8311e-06
0.509528
2.03771e-06
0.509528
2.36304e-06
0.509528
2.04637e-06
0.509529
1.64156e-06
0.50953
1.61714e-06
0.509531
2.22326e-06
0.50953
2.79133e-06
0.509529
2.47533e-06
0.509531
1.63866e-06
0.509532
1.53922e-06
0.509533
2.03199e-06
0.509533
2.53661e-06
0.509532
2.59058e-06
0.509532
2.2023e-06
0.509533
1.9415e-06
0.509534
1.94231e-06
0.509534
2.08629e-06
0.509535
1.91619e-06
0.509535
1.65834e-06
0.509536
2.13235e-06
0.509537
2.6389e-06
0.509537
2.29833e-06
0.509538
2.21834e-06
0.509537
2.81653e-06
0.509537
3.152e-06
0.509536
2.97959e-06
0.509535
2.74624e-06
0.509534
2.65923e-06
0.509533
2.4249e-06
0.509534
1.91894e-06
0.509535
1.50886e-06
0.509537
1.54857e-06
0.509538
1.85477e-06
0.509539
2.03643e-06
0.509539
2.2572e-06
0.50954
2.77957e-06
0.509539
3.12259e-06
0.509538
2.88821e-06
0.509537
2.67401e-06
0.509536
2.70267e-06
0.509535
2.52276e-06
0.509534
2.24763e-06
0.509534
2.15379e-06
0.509535
2.18246e-06
0.509535
2.15908e-06
0.509536
1.96247e-06
0.509537
1.79174e-06
0.509538
1.98021e-06
0.509538
2.46975e-06
0.509538
2.79637e-06
0.509538
2.70788e-06
0.509538
2.4691e-06
0.509538
2.27111e-06
0.509538
2.23941e-06
0.509538
2.40162e-06
0.509538
2.39581e-06
0.509539
2.22574e-06
0.509539
2.18579e-06
0.509539
2.25127e-06
0.509539
2.52112e-06
0.509538
2.87217e-06
0.509538
2.85312e-06
0.509538
2.57025e-06
0.509538
2.29981e-06
0.509539
2.08e-06
0.509539
2.03031e-06
0.50954
2.15048e-06
0.509541
2.33672e-06
0.509541
2.44617e-06
0.509541
2.24268e-06
0.509541
1.86707e-06
0.509541
1.7374e-06
0.509542
1.87471e-06
0.509542
2.02793e-06
0.509542
2.10381e-06
0.509543
2.14938e-06
0.509543
2.19358e-06
0.509544
2.21147e-06
0.509545
2.17006e-06
0.509545
2.00021e-06
0.509546
1.77743e-06
0.509546
1.68989e-06
0.509547
1.75317e-06
0.509548
1.98246e-06
0.509548
2.28074e-06
0.509549
2.42382e-06
0.50955
2.46457e-06
0.50955
2.38783e-06
0.509551
2.08642e-06
0.509551
1.84745e-06
0.509551
1.88011e-06
0.509551
2.15584e-06
0.50955
2.62216e-06
0.50955
2.93919e-06
0.50955
2.79996e-06
0.50955
2.34911e-06
0.509551
1.90864e-06
0.509552
1.71713e-06
0.509552
1.92283e-06
0.509552
2.32821e-06
0.509552
2.52725e-06
0.509552
2.46163e-06
0.509553
2.35388e-06
0.509554
2.26903e-06
0.509554
2.18826e-06
0.509555
2.16584e-06
0.509555
2.27172e-06
0.509555
2.48161e-06
0.509555
2.57367e-06
0.509555
2.41355e-06
0.509555
2.12132e-06
0.509556
1.79446e-06
0.509556
1.58614e-06
0.509557
1.70001e-06
0.509558
2.00168e-06
0.509558
2.24836e-06
0.509558
2.41282e-06
0.509558
2.50671e-06
0.509558
2.49312e-06
0.509558
2.3662e-06
0.509559
2.17857e-06
0.509559
2.03166e-06
0.50956
2.06257e-06
0.50956
2.28602e-06
0.50956
2.46529e-06
0.509561
2.46332e-06
0.509561
2.39082e-06
0.50956
2.36808e-06
0.50956
2.44203e-06
0.50956
2.46881e-06
0.509559
2.33741e-06
0.509559
2.27966e-06
0.509559
2.39181e-06
0.509559
2.53e-06
0.509559
2.64823e-06
0.509559
2.626e-06
0.509559
2.43358e-06
0.50956
2.36124e-06
0.50956
2.49042e-06
0.50956
2.56083e-06
0.50956
2.41255e-06
0.509559
2.19827e-06
0.509559
2.18531e-06
0.509559
2.31107e-06
0.509559
2.3319e-06
0.509559
2.2835e-06
0.50956
2.29842e-06
0.50956
2.33061e-06
0.509561
2.33205e-06
0.509561
2.35656e-06
0.509561
2.38323e-06
0.509562
2.2846e-06
0.509562
2.14648e-06
0.509562
2.12228e-06
0.509562
2.08867e-06
0.509562
2.01846e-06
0.509563
2.07983e-06
0.509563
2.26203e-06
0.509563
2.44413e-06
0.509563
2.50219e-06
0.509563
2.39447e-06
0.509564
2.3207e-06
0.509564
2.39057e-06
0.509565
2.42632e-06
0.509565
2.32641e-06
0.509565
2.17844e-06
0.509566
2.11396e-06
0.509566
2.15189e-06
0.509566
2.15525e-06
0.509566
2.08667e-06
0.509566
2.03165e-06
0.509567
2.00138e-06
0.509567
2.0441e-06
0.509568
2.22873e-06
0.509569
2.43394e-06
0.509569
2.48754e-06
0.509569
2.39377e-06
0.509569
2.28558e-06
0.509569
2.25115e-06
0.50957
2.26821e-06
0.50957
2.29198e-06
0.50957
2.3444e-06
0.50957
2.45476e-06
0.509569
2.5092e-06
0.509569
2.35779e-06
0.509569
2.14407e-06
0.50957
2.13881e-06
0.509571
2.32704e-06
0.509571
2.52542e-06
0.509572
2.61376e-06
0.509572
2.54389e-06
0.509572
2.42434e-06
0.509572
2.39804e-06
0.509572
2.41817e-06
0.509572
2.38598e-06
0.509572
2.29376e-06
0.509572
2.17471e-06
0.509573
2.07915e-06
0.509573
2.05581e-06
0.509573
2.13032e-06
0.509574
2.25119e-06
0.509574
2.30535e-06
0.509574
2.30746e-06
0.509574
2.32895e-06
0.509575
2.27978e-06
0.509575
2.13236e-06
0.509576
2.07451e-06
0.509576
2.17402e-06
0.509577
2.2376e-06
0.509577
2.13662e-06
0.509577
1.9846e-06
0.509577
1.9348e-06
0.509578
2.00459e-06
0.509578
2.10419e-06
0.509579
2.14564e-06
0.509579
2.11965e-06
0.50958
2.09695e-06
0.509581
2.14731e-06
0.509581
2.25326e-06
0.509581
2.2915e-06
0.509581
2.16655e-06
0.509581
2.00189e-06
0.509582
2.0063e-06
0.509583
2.144e-06
0.509583
2.19486e-06
0.509583
2.09443e-06
0.509584
1.97715e-06
0.509585
1.95945e-06
0.509586
2.03621e-06
0.509586
2.14304e-06
0.509587
2.22707e-06
0.509587
2.27034e-06
0.509588
2.29369e-06
0.509588
2.29274e-06
0.509588
2.20264e-06
0.509588
2.06302e-06
0.509589
2.05289e-06
0.509589
2.20203e-06
0.50959
2.31494e-06
0.50959
2.27831e-06
0.50959
2.2053e-06
0.50959
2.22013e-06
0.50959
2.30153e-06
2.34823e-06
0.509527
6.0093e-07
0.509526
1.19995e-06
0.509525
1.42858e-06
0.509525
1.55648e-06
0.509525
1.38808e-06
0.509526
1.34111e-06
0.509526
1.80761e-06
0.509526
2.50109e-06
0.509526
2.28192e-06
0.509525
1.86823e-06
0.509525
2.21997e-06
0.509525
2.21489e-06
0.509526
1.83178e-06
0.509527
1.40664e-06
0.509527
1.41111e-06
0.509527
1.7307e-06
0.509527
1.77715e-06
0.509528
1.66202e-06
0.509529
1.79022e-06
0.509529
1.79037e-06
0.509529
1.84174e-06
0.509529
2.26321e-06
0.509528
2.59724e-06
0.509528
2.6024e-06
0.509527
2.04011e-06
0.509528
1.57547e-06
0.509529
1.93551e-06
0.509529
2.1279e-06
0.509529
1.6577e-06
0.509531
1.24222e-06
0.509533
1.38492e-06
0.509534
1.86323e-06
0.509534
2.22324e-06
0.509535
2.33616e-06
0.509535
2.46116e-06
0.509534
2.71204e-06
0.509533
2.66204e-06
0.509532
2.16316e-06
0.509532
1.74147e-06
0.509533
1.53305e-06
0.509534
1.33138e-06
0.509535
1.44724e-06
0.509536
1.98865e-06
0.509537
2.18263e-06
0.509537
2.08472e-06
0.509538
2.22185e-06
0.509538
2.28296e-06
0.509538
2.09669e-06
0.509538
2.03553e-06
0.509538
2.2003e-06
0.509538
2.38946e-06
0.509538
2.38929e-06
0.509537
2.14664e-06
0.509537
1.79473e-06
0.509538
1.58281e-06
0.50954
1.57838e-06
0.509541
1.7007e-06
0.509541
2.06453e-06
0.509541
2.41164e-06
0.509541
2.30787e-06
0.509541
1.98323e-06
0.509542
1.69431e-06
0.509543
1.54401e-06
0.509543
1.75258e-06
0.509543
2.05883e-06
0.509544
2.17268e-06
0.509544
2.16233e-06
0.509545
1.97743e-06
0.509546
1.79207e-06
0.509546
1.86738e-06
0.509546
2.0398e-06
0.509546
2.11159e-06
0.509546
2.0237e-06
0.509547
1.878e-06
0.509547
1.8839e-06
0.509548
1.90289e-06
0.509548
1.75903e-06
0.509548
1.72384e-06
0.509548
1.99378e-06
0.509547
2.38458e-06
0.509547
2.64836e-06
0.509546
2.66278e-06
0.509546
2.49626e-06
0.509546
2.28869e-06
0.509546
2.15629e-06
0.509546
2.07772e-06
0.509546
1.96853e-06
0.509546
1.90675e-06
0.509545
1.9532e-06
0.509545
2.1575e-06
0.509545
2.46589e-06
0.509545
2.51706e-06
0.509545
2.21616e-06
0.509546
1.76523e-06
0.509547
1.25275e-06
0.509547
9.51938e-07
0.509548
1.06526e-06
0.509549
1.41201e-06
0.50955
1.88759e-06
0.50955
2.31051e-06
0.509551
2.35573e-06
0.509551
2.04352e-06
0.509551
1.65194e-06
0.509552
1.39827e-06
0.509552
1.50318e-06
0.509552
1.99997e-06
0.509552
2.5142e-06
0.509552
2.6927e-06
0.509552
2.57581e-06
0.509552
2.33938e-06
0.509552
2.09422e-06
0.509552
1.91466e-06
0.509553
1.87411e-06
0.509553
2.02992e-06
0.509553
2.25179e-06
0.509554
2.32269e-06
0.509553
2.24534e-06
0.509553
2.07331e-06
0.509553
1.86936e-06
0.509553
1.86508e-06
0.509553
2.10805e-06
0.509553
2.3515e-06
0.509552
2.44637e-06
0.509553
2.42179e-06
0.509553
2.34763e-06
0.509553
2.28233e-06
0.509553
2.2218e-06
0.509553
2.09864e-06
0.509553
1.93884e-06
0.509553
1.89194e-06
0.509554
1.9329e-06
0.509554
1.90922e-06
0.509555
1.7794e-06
0.509556
1.59747e-06
0.509557
1.54298e-06
0.509557
1.66703e-06
0.509558
1.76906e-06
0.509558
1.85188e-06
0.509559
2.01871e-06
0.509559
2.17354e-06
0.509559
2.30967e-06
0.50956
2.37716e-06
0.50956
2.18727e-06
0.50956
1.87176e-06
0.509561
1.74964e-06
0.509562
1.8619e-06
0.509562
1.98869e-06
0.509563
1.96471e-06
0.509563
1.95217e-06
0.509563
2.11976e-06
0.509563
2.30645e-06
0.509563
2.38172e-06
0.509563
2.40475e-06
0.509563
2.36951e-06
0.509563
2.20795e-06
0.509563
1.99137e-06
0.509564
1.85852e-06
0.509564
1.75285e-06
0.509565
1.63097e-06
0.509565
1.64403e-06
0.509566
1.7402e-06
0.509566
1.76039e-06
0.509566
1.78085e-06
0.509567
1.89795e-06
0.509567
2.11542e-06
0.509567
2.32979e-06
0.509567
2.32127e-06
0.509567
2.10998e-06
0.509568
1.95817e-06
0.509568
1.94203e-06
0.509569
1.96214e-06
0.509569
1.93014e-06
0.509569
1.86127e-06
0.509569
1.86838e-06
0.50957
1.94854e-06
0.50957
2.02865e-06
0.50957
2.10881e-06
0.509569
2.1246e-06
0.509569
2.03208e-06
0.50957
1.96462e-06
0.50957
2.01122e-06
0.509571
2.08207e-06
0.509571
2.0715e-06
0.509571
1.98025e-06
0.509572
1.87274e-06
0.509572
1.783e-06
0.509573
1.69436e-06
0.509573
1.61986e-06
0.509574
1.67612e-06
0.509575
1.91306e-06
0.509575
2.11587e-06
0.509575
2.10206e-06
0.509575
1.99468e-06
0.509576
1.94857e-06
0.509576
1.98738e-06
0.509577
2.08414e-06
0.509577
2.12442e-06
0.509577
2.0486e-06
0.509578
1.97388e-06
0.509578
1.98029e-06
0.509579
2.03438e-06
0.509579
2.09575e-06
0.509579
2.13117e-06
0.509579
2.12541e-06
0.509579
2.09384e-06
0.509579
2.09613e-06
0.509579
2.18263e-06
0.509579
2.27148e-06
0.509579
2.29702e-06
0.509579
2.34119e-06
0.509579
2.37479e-06
0.509579
2.24976e-06
0.509579
2.04041e-06
0.509579
1.98523e-06
0.509579
2.1176e-06
0.509579
2.25005e-06
0.509579
2.26114e-06
0.509578
2.18617e-06
0.509578
2.12107e-06
0.509578
2.12587e-06
0.509578
2.18607e-06
0.509578
2.22855e-06
0.509578
2.20388e-06
0.509578
2.15326e-06
0.509578
2.17715e-06
0.509578
2.29468e-06
0.509578
2.35572e-06
0.509578
2.25224e-06
0.509578
2.12925e-06
0.509577
2.16577e-06
0.509577
2.30328e-06
0.509577
2.37922e-06
0.509577
2.35225e-06
0.509576
2.28485e-06
0.509576
2.22523e-06
0.509576
2.18199e-06
0.509576
2.14686e-06
0.509576
2.10345e-06
0.509577
2.07585e-06
0.509577
2.111e-06
0.509577
2.14656e-06
0.509577
2.06353e-06
0.509577
1.91256e-06
0.509577
1.85402e-06
0.509578
1.89342e-06
0.509578
1.91732e-06
0.509578
1.87246e-06
0.509579
1.8126e-06
0.509579
1.77506e-06
1.83288e-06
0.509527
-1.90464e-07
0.509528
5.55936e-08
0.509528
6.66659e-07
0.509529
1.0734e-06
0.509529
9.49523e-07
0.50953
1.0198e-06
0.509531
8.60578e-07
0.509532
1.16243e-06
0.509532
2.07437e-06
0.509532
1.89062e-06
0.509534
8.7673e-07
0.509535
1.09951e-06
0.509534
2.37856e-06
0.509532
3.01963e-06
0.509531
2.527e-06
0.509531
1.96663e-06
0.509531
2.10807e-06
0.509531
1.96514e-06
0.509531
1.64981e-06
0.50953
1.94881e-06
0.50953
2.10821e-06
0.509531
1.72019e-06
0.509532
1.40076e-06
0.509533
1.59032e-06
0.509533
1.77551e-06
0.509533
1.52276e-06
0.509534
1.3462e-06
0.509534
1.5431e-06
0.509534
1.72909e-06
0.509534
1.73409e-06
0.509533
1.81465e-06
0.509534
1.81446e-06
0.509534
1.66284e-06
0.509535
1.62778e-06
0.509536
1.6669e-06
0.509537
1.74087e-06
0.509537
1.8069e-06
0.509538
1.73999e-06
0.509538
1.77659e-06
0.509537
2.04277e-06
0.509537
1.92418e-06
0.509537
1.43116e-06
0.509537
1.50624e-06
0.509537
1.97193e-06
0.509537
2.05511e-06
0.509538
2.01699e-06
0.509538
2.08619e-06
0.509538
2.01959e-06
0.509538
1.80087e-06
0.509539
1.59296e-06
0.50954
1.48956e-06
0.509541
1.53464e-06
0.509541
1.67636e-06
0.509541
1.71889e-06
0.509541
1.62193e-06
0.509541
1.5604e-06
0.509541
1.45767e-06
0.509542
1.39958e-06
0.509543
1.57927e-06
0.509543
1.71925e-06
0.509544
1.78033e-06
0.509543
1.94702e-06
0.509543
2.11343e-06
0.509542
2.25455e-06
0.509542
2.27833e-06
0.509542
2.09765e-06
0.509542
2.00082e-06
0.509542
1.99873e-06
0.509542
1.90956e-06
0.509542
1.82807e-06
0.509542
1.83003e-06
0.509543
1.90972e-06
0.509543
1.95497e-06
0.509543
1.82136e-06
0.509543
1.68579e-06
0.509543
1.66385e-06
0.509543
1.55229e-06
0.509544
1.40858e-06
0.509544
1.47126e-06
0.509545
1.73435e-06
0.509545
2.02955e-06
0.509546
2.16231e-06
0.509546
2.06315e-06
0.509547
1.81998e-06
0.509547
1.59848e-06
0.509548
1.51287e-06
0.509548
1.54855e-06
0.509549
1.72357e-06
0.509549
1.9712e-06
0.509549
2.19192e-06
0.509549
2.40525e-06
0.509549
2.39324e-06
0.509549
2.02968e-06
0.509549
1.60503e-06
0.509549
1.29313e-06
0.509549
1.24781e-06
0.509548
1.59877e-06
0.509548
2.02916e-06
0.509547
2.23489e-06
0.509547
2.21237e-06
0.509548
1.94028e-06
0.509548
1.54266e-06
0.509549
1.31222e-06
0.509549
1.32369e-06
0.509549
1.52072e-06
0.509549
1.89872e-06
0.509549
2.26266e-06
0.509549
2.31447e-06
0.50955
2.06988e-06
0.50955
1.79862e-06
0.509551
1.70199e-06
0.509551
1.75682e-06
0.509551
1.79504e-06
0.509551
1.75925e-06
0.509552
1.66134e-06
0.509553
1.47554e-06
0.509554
1.32643e-06
0.509554
1.32412e-06
0.509555
1.36426e-06
0.509555
1.45037e-06
0.509556
1.68361e-06
0.509556
1.96459e-06
0.509556
2.11805e-06
0.509557
2.09001e-06
0.509557
1.92921e-06
0.509558
1.7658e-06
0.509558
1.74827e-06
0.509558
1.84379e-06
0.509559
1.88689e-06
0.509559
1.88198e-06
0.509559
1.8873e-06
0.509559
1.86854e-06
0.509559
1.81075e-06
0.509559
1.6699e-06
0.509559
1.53162e-06
0.509559
1.57885e-06
0.509559
1.70301e-06
0.509559
1.77326e-06
0.509559
1.84688e-06
0.509559
1.86567e-06
0.50956
1.86208e-06
0.50956
1.96133e-06
0.50956
2.00025e-06
0.50956
1.80135e-06
0.509561
1.50111e-06
0.509561
1.34296e-06
0.509562
1.39204e-06
0.509562
1.45519e-06
0.509563
1.45347e-06
0.509563
1.53339e-06
0.509564
1.67229e-06
0.509565
1.7374e-06
0.509565
1.76311e-06
0.509566
1.83065e-06
0.509566
1.88119e-06
0.509566
1.84653e-06
0.509566
1.81032e-06
0.509566
1.75689e-06
0.509566
1.57874e-06
0.509567
1.46023e-06
0.509567
1.57413e-06
0.509567
1.77988e-06
0.509567
1.93768e-06
0.509566
1.99012e-06
0.509567
1.9933e-06
0.509567
2.11341e-06
0.509567
2.2901e-06
0.509567
2.32513e-06
0.509566
2.22783e-06
0.509566
2.08554e-06
0.509566
1.93618e-06
0.509566
1.78419e-06
0.509567
1.61766e-06
0.509567
1.51452e-06
0.509567
1.51596e-06
0.509568
1.56782e-06
0.509568
1.68762e-06
0.509569
1.84941e-06
0.509569
1.90936e-06
0.509569
1.85339e-06
0.509569
1.80912e-06
0.509569
1.83313e-06
0.509569
1.86806e-06
0.50957
1.85841e-06
0.50957
1.83254e-06
0.509569
1.85257e-06
0.509569
1.90407e-06
0.509569
1.88352e-06
0.509569
1.79293e-06
0.509569
1.81774e-06
0.509569
2.00023e-06
0.509569
2.15265e-06
0.509569
2.19541e-06
0.509569
2.17058e-06
0.509569
2.10666e-06
0.509569
2.08124e-06
0.509569
2.0983e-06
0.509569
2.03784e-06
0.509569
1.88684e-06
0.509569
1.72543e-06
0.509569
1.58951e-06
0.50957
1.49912e-06
0.509571
1.46785e-06
0.509571
1.48657e-06
0.509572
1.51414e-06
0.509572
1.53149e-06
0.509573
1.59351e-06
0.509574
1.66663e-06
0.509574
1.63585e-06
0.509575
1.58529e-06
0.509576
1.66689e-06
0.509576
1.77443e-06
0.509576
1.72839e-06
0.509577
1.57937e-06
0.509578
1.4942e-06
0.509578
1.52886e-06
0.509579
1.63297e-06
0.509579
1.73924e-06
0.50958
1.8004e-06
0.50958
1.80928e-06
0.50958
1.80224e-06
0.509581
1.81159e-06
0.509581
1.8123e-06
0.509582
1.74936e-06
0.509582
1.64895e-06
0.509583
1.6365e-06
0.509583
1.7272e-06
0.509584
1.74764e-06
0.509584
1.61825e-06
0.509585
1.49253e-06
0.509586
1.50945e-06
0.509587
1.63191e-06
0.509587
1.75217e-06
0.509588
1.81509e-06
0.509588
1.82654e-06
0.509588
1.81786e-06
0.509589
1.8239e-06
0.509589
1.82268e-06
0.509589
1.76999e-06
0.50959
1.73505e-06
0.50959
1.78773e-06
0.50959
1.82441e-06
0.50959
1.76049e-06
0.509591
1.68768e-06
0.509591
1.68941e-06
0.509591
1.7332e-06
0.509591
1.76417e-06
0.509591
1.76275e-06
0.509591
1.76124e-06
1.7692e-06
0.509526
7.51371e-07
0.509525
8.31502e-07
0.509525
7.86525e-07
0.509525
7.9101e-07
0.509525
1.03867e-06
0.509525
1.30791e-06
0.509524
1.05554e-06
0.509525
1.04719e-06
0.509525
1.38343e-06
0.509525
2.07735e-06
0.509524
2.26632e-06
0.509523
1.63086e-06
0.509525
9.31993e-07
0.509527
7.64031e-07
0.509528
1.2088e-06
0.509529
1.25835e-06
0.50953
1.12137e-06
0.509531
1.35989e-06
0.509531
1.48884e-06
0.509531
1.23186e-06
0.509532
9.87316e-07
0.509533
1.01408e-06
0.509533
1.20239e-06
0.509533
1.5965e-06
0.509533
2.06741e-06
0.509532
2.17495e-06
0.509532
1.94819e-06
0.509532
1.80154e-06
0.509531
1.88141e-06
0.509531
1.72145e-06
0.509532
1.28294e-06
0.509533
1.00789e-06
0.509533
1.05892e-06
0.509534
1.39993e-06
0.509534
1.64145e-06
0.509534
1.55633e-06
0.509534
1.49506e-06
0.509534
1.62887e-06
0.509534
1.77837e-06
0.509534
1.90075e-06
0.509534
1.89738e-06
0.509534
1.61264e-06
0.509534
1.48524e-06
0.509534
1.74581e-06
0.509535
1.82902e-06
0.509535
1.66123e-06
0.509536
1.59003e-06
0.509536
1.60669e-06
0.509536
1.54293e-06
0.509536
1.44938e-06
0.509536
1.5169e-06
0.509536
1.67388e-06
0.509536
1.72774e-06
0.509536
1.57324e-06
0.509537
1.29136e-06
0.509537
1.3422e-06
0.509537
1.73682e-06
0.509536
1.97683e-06
0.509536
1.91693e-06
0.509536
1.5978e-06
0.509536
1.22941e-06
0.509537
1.18968e-06
0.509538
1.46304e-06
0.509538
1.8186e-06
0.509538
1.95774e-06
0.509539
1.63587e-06
0.50954
1.1903e-06
0.509541
1.01843e-06
0.509542
1.09269e-06
0.509542
1.35163e-06
0.509542
1.66627e-06
0.509542
1.91131e-06
0.509542
2.02295e-06
0.509542
1.78767e-06
0.509542
1.36226e-06
0.509543
1.23142e-06
0.509543
1.39418e-06
0.509543
1.57828e-06
0.509543
1.68286e-06
0.509543
1.66129e-06
0.509543
1.57681e-06
0.509544
1.52492e-06
0.509544
1.46839e-06
0.509545
1.31791e-06
0.509545
1.0881e-06
0.509546
9.13552e-07
0.509547
8.99239e-07
0.509547
1.14769e-06
0.509548
1.57163e-06
0.509548
1.84554e-06
0.509549
1.89314e-06
0.509549
1.71201e-06
0.50955
1.29304e-06
0.509551
9.96857e-07
0.509551
1.05602e-06
0.509551
1.36518e-06
0.50955
1.87448e-06
0.50955
2.31224e-06
0.50955
2.34098e-06
0.50955
2.04548e-06
0.509551
1.61872e-06
0.509551
1.22115e-06
0.509551
1.10076e-06
0.509551
1.26462e-06
0.509551
1.47554e-06
0.509551
1.65676e-06
0.509552
1.83357e-06
0.509552
1.90913e-06
0.509553
1.80652e-06
0.509553
1.62058e-06
0.509553
1.53129e-06
0.509553
1.60087e-06
0.509553
1.68832e-06
0.509553
1.67665e-06
0.509553
1.57012e-06
0.509553
1.33604e-06
0.509554
1.06671e-06
0.509554
1.00251e-06
0.509554
1.13701e-06
0.509554
1.30304e-06
0.509555
1.47059e-06
0.509555
1.62079e-06
0.509555
1.68939e-06
0.509556
1.68096e-06
0.509556
1.60847e-06
0.509556
1.47796e-06
0.509557
1.4094e-06
0.509557
1.48654e-06
0.509557
1.57989e-06
0.509558
1.59932e-06
0.509558
1.56909e-06
0.509558
1.50347e-06
0.509559
1.4608e-06
0.509559
1.40635e-06
0.509559
1.30563e-06
0.509559
1.34078e-06
0.50956
1.54051e-06
0.50956
1.74777e-06
0.50956
1.93909e-06
0.509559
2.00259e-06
0.509559
1.85295e-06
0.50956
1.71562e-06
0.50956
1.74041e-06
0.50956
1.79622e-06
0.50956
1.74874e-06
0.509559
1.63709e-06
0.509559
1.6192e-06
0.509559
1.68141e-06
0.509559
1.68765e-06
0.509559
1.71333e-06