/*--------------------------------*- C++ -*----------------------------------*\
| =========                 |                                                 |
| \\      /  F ield         | OpenFOAM: The Open Source CFD Toolbox           |
|  \\    /   O peration     | Version:  2406                                  |
|   \\  /    A nd           | Website:  www.openfoam.com                      |
|    \\/     M anipulation  |                                                 |
\*---------------------------------------------------------------------------*/
FoamFile
{
    version     2.0;
    format      ascii;
    arch        "LSB;label=32;scalar=64";
    class       volScalarField;
    location    "1.15";
    object      p;
}
// * * * * * * * * * * * * * * * * * * * * * * * * * * * * * * * * * * * * * //

dimensions      [1 -1 -2 0 0 0 0];

internalField   nonuniform List<scalar> 
6250
(
20.1774
-3179.83
-998.374
568.678
522.389
55.4913
-103.996
-27.0046
48.8628
54.9898
34.8109
25.1866
27.3401
30.8905
31.5069
30.5703
29.9144
29.8252
29.8675
29.7958
29.6375
29.4796
29.347
29.2268
29.104
28.9724
28.8428
28.7161
28.5863
28.4566
28.3242
28.1936
28.0684
27.937
27.8
27.6706
27.5496
27.4266
27.2913
27.1518
27.0216
26.8963
26.7682
26.6369
26.5068
26.3811
26.2571
26.1314
26.0023
25.8657
25.7273
25.6015
25.4854
25.3675
25.2444
25.1133
24.978
24.8482
24.7266
24.6115
24.4977
24.373
24.2324
24.0889
23.9538
23.8271
23.7097
23.5967
23.4768
23.3493
23.2149
23.0729
22.9311
22.7961
22.6718
22.5568
22.4417
22.3218
22.1928
22.0524
21.9091
21.7671
21.6269
21.4925
21.3642
21.2407
21.1191
20.9939
20.8676
20.7417
20.6101
20.4719
20.3318
20.1915
20.0513
19.9143
19.7848
19.6593
19.5352
19.4135
19.2905
19.1669
19.0448
18.9208
18.7946
18.6654
18.5314
18.397
18.2612
18.1223
17.9844
17.8474
17.7114
17.5804
17.4528
17.325
17.197
17.071
16.9476
16.8266
16.7076
16.5872
16.4633
16.3385
16.2133
16.0879
15.9624
15.836
15.7103
15.5838
15.455
15.3272
15.2
15.07
14.9385
14.8057
14.6709
14.5377
14.4083
14.2797
14.1495
14.0182
13.8871
13.7566
13.6266
13.4967
13.3663
13.2347
13.1023
12.9714
12.8415
12.7111
12.5821
12.4552
12.327
12.1974
12.068
11.938
11.8081
11.6797
11.5503
11.4188
11.288
11.1601
11.0334
10.9053
10.7751
10.6445
10.5149
10.3855
10.2554
10.1251
9.99417
9.86332
9.73351
9.6043
9.47513
9.34485
9.2133
9.08224
8.95115
8.81906
8.68844
8.55987
8.43018
8.29842
8.1669
8.03709
7.90817
7.77871
7.6483
7.51733
7.3868
7.25762
7.12996
7.00347
6.87683
6.74865
6.6198
6.49199
6.36512
6.23791
6.11034
5.98403
5.8585
5.73143
5.60398
5.47849
5.3539
5.22868
5.10228
4.9746
4.84751
4.72191
4.59575
4.46826
4.34027
4.21162
4.08237
3.95358
3.82523
3.69565
3.56455
3.43414
3.30499
3.17509
3.04394
2.91303
2.78268
2.65172
2.52039
2.39024
2.26144
2.13308
2.00477
1.87651
1.74831
1.61991
1.49104
1.36223
1.23357
1.10414
0.974247
0.844946
0.715715
0.585772
0.455808
0.326146
0.198114
0.0627788
20.1341
-3179.92
-998.415
568.698
522.402
55.4929
-103.999
-27.006
48.8708
55.0048
34.8099
25.1744
27.3391
30.8901
31.5003
30.5681
29.9162
29.8244
29.8611
29.7905
29.6357
29.4793
29.3539
29.2368
29.1051
28.965
28.8388
28.7201
28.5868
28.4497
28.3205
28.1954
28.0726
27.9414
27.8018
27.6701
27.5464
27.4224
27.2891
27.149
27.0193
26.9018
26.7797
26.6423
26.5012
26.3739
26.2553
26.1299
25.9969
25.8599
25.7232
25.5997
25.4887
25.3735
25.2477
25.1126
24.9755
24.8484
24.7309
24.6142
24.4958
24.3715
24.2326
24.0865
23.9503
23.8265
23.7125
23.6033
23.4834
23.3494
23.2093
23.0658
22.9262
22.7948
22.672
22.5581
22.4438
22.3247
22.1992
22.0594
21.9107
21.7633
21.62
21.4847
21.3575
21.2367
21.1213
21.0023
20.8756
20.7461
20.6127
20.4721
20.329
20.189
20.0512
19.9136
19.7813
19.6544
19.5299
19.4107
19.2932
19.1729
19.0519
18.9263
18.7963
18.6642
18.5266
18.389
18.2553
18.1207
17.9864
17.8521
17.7146
17.5788
17.4488
17.3225
17.1979
17.0743
16.9507
16.8263
16.7034
16.5821
16.4595
16.3369
16.2145
16.0914
15.9675
15.8406
15.7128
15.586
15.4557
15.3237
15.1939
15.0642
14.9351
14.8073
14.6761
14.5414
14.4085
14.2786
14.1493
14.0192
13.8877
13.7559
13.6248
13.4941
13.3638
13.2336
13.1028
12.9733
12.846
12.7167
12.5852
12.455
12.3252
12.1947
12.0658
11.9372
11.8072
11.6785
11.5517
11.4228
11.2916
11.161
11.0324
10.9044
10.7748
10.6435
10.5133
10.3846
10.2556
10.1263
9.99611
9.86468
9.73329
9.60236
9.4728
9.3439
9.21343
9.08293
8.95337
8.82164
8.68826
8.5573
8.42865
8.2991
8.16767
8.03599
7.9056
7.77636
7.64736
7.51806
7.38876
7.25973
7.13065
7.00211
6.8746
6.74695
6.61859
6.49069
6.36421
6.23817
6.11059
5.98273
5.85725
5.73225
5.60546
5.47844
5.35198
5.22612
5.10085
4.97424
4.84663
4.72082
4.59585
4.46931
4.34163
4.21351
4.08441
3.95463
3.82562
3.69683
3.56592
3.43358
3.30275
3.17325
3.04285
2.91194
2.78262
2.65436
2.52477
2.39383
2.26321
2.13358
2.00465
1.87593
1.74739
1.61918
1.49067
1.362
1.23392
1.10542
0.975726
0.846014
0.716507
0.586115
0.454993
0.324482
0.194476
0.0661805
20.1352
-3179.91
-998.395
568.709
522.4
55.4815
-104.013
-27.0084
48.8738
55.0043
34.814
25.1741
27.3389
30.8978
31.5044
30.5643
29.9158
29.8328
29.8625
29.7844
29.6423
29.4877
29.3462
29.2258
29.1061
28.9736
28.8424
28.7181
28.5884
28.4568
28.3281
28.1941
28.0635
27.9394
27.8088
27.675
27.5413
27.4113
27.2883
27.1622
27.0288
26.8945
26.765
26.6366
26.5065
26.3818
26.2606
26.1317
25.9958
25.8608
25.7297
25.6073
25.4915
25.3701
25.2401
25.1054
24.9722
24.8502
24.7382
24.6228
24.4966
24.3635
24.2248
24.0838
23.9525
23.8322
23.717
23.6056
23.4853
23.3485
23.2051
23.0616
22.9245
22.7972
22.6766
22.5629
22.4481
22.3244
22.1941
22.054
21.9061
21.7608
21.6214
21.4896
21.3638
21.2402
21.1209
21.0015
20.8748
20.7437
20.6106
20.4721
20.3283
20.1857
20.0485
19.9135
19.7829
19.6587
19.5349
19.4127
19.2924
19.1698
19.0476
18.9234
18.7956
18.6677
18.5345
18.3955
18.2569
18.1173
17.9792
17.8466
17.7147
17.5822
17.4518
17.324
17.1977
17.073
16.95
16.8264
16.7032
16.5827
16.462
16.3398
16.2161
16.0908
15.9658
15.839
15.7105
15.5843
15.457
15.3268
15.1969
15.0657
14.9329
14.803
14.6749
14.5445
14.4126
14.2806
14.149
14.0179
13.8868
13.7554
13.6244
13.4933
13.3632
13.2346
13.1049
12.9738
12.8445
12.7156
12.5847
12.4543
12.3251
12.1946
12.0651
11.9374
11.8082
11.678
11.55
11.4227
11.2931
11.1619
11.0311
10.9023
10.7745
10.6452
10.5149
10.3848
10.2543
10.1243
9.99504
9.8654
9.73541
9.60457
9.47372
9.3441
9.2133
9.08123
8.95109
8.82138
8.68924
8.55688
8.42692
8.29842
8.16929
8.03894
7.90805
7.77733
7.64714
7.51745
7.38805
7.25906
7.13005
7.00122
6.87395
6.74784
6.62085
6.49235
6.36399
6.23736
6.11086
5.98321
5.85691
5.73233
5.60672
5.48011
5.35335
5.22661
5.10125
4.97615
4.849
4.72129
4.59444
4.4674
4.34012
4.21312
4.08532
3.95552
3.82508
3.69586
3.56643
3.43503
3.30344
3.17342
3.0436
2.91254
2.78148
2.65179
2.52248
2.39266
2.26278
2.1333
2.00434
1.87571
1.74728
1.61931
1.49113
1.36206
1.23316
1.10465
0.975178
0.844978
0.715259
0.585958
0.456107
0.32533
0.194934
0.0654588
20.1228
-3179.93
-998.419
568.693
522.405
55.4849
-104.013
-27.0115
48.8671
54.9999
34.8153
25.1788
27.3377
30.886
31.5
30.5735
29.915
29.8258
29.867
29.7882
29.6362
29.4794
29.3422
29.2304
29.1152
28.9733
28.8304
28.7112
28.5937
28.4571
28.3183
28.1861
28.0613
27.9431
27.8133
27.6757
27.5425
27.4138
27.2894
27.1628
27.0285
26.8894
26.7585
26.6386
26.5164
26.3878
26.256
26.1192
25.9833
25.8567
25.7357
25.6162
25.4962
25.3684
25.2344
25.1008
24.9715
24.8522
24.7414
24.6267
24.4973
24.3577
24.2176
24.0804
23.9541
23.8393
23.7237
23.6061
23.4826
23.3449
23.2006
23.0579
22.9231
22.8001
22.6819
22.5663
22.4493
22.3226
22.1893
22.0508
21.9057
21.7609
21.6207
21.4882
21.3639
21.2417
21.1214
21.0028
20.8775
20.744
20.6075
20.4696
20.3279
20.1856
20.0487
19.9148
19.7829
19.6572
19.534
19.4124
19.2939
19.1729
19.0503
18.9251
18.7941
18.6625
18.5302
18.3936
18.2577
18.1209
17.9819
17.846
17.7129
17.58
17.449
17.3216
17.1966
17.0731
16.9517
16.8296
16.7056
16.5824
16.4599
16.3375
16.2149
16.0903
15.9658
15.8404
15.7113
15.5831
15.456
15.3266
15.1975
15.0683
14.9356
14.8024
14.672
14.5417
14.4105
14.2792
14.1482
14.0179
13.8879
13.7573
13.6267
13.4951
13.3629
13.2328
13.1036
12.9728
12.8426
12.7143
12.5849
12.4551
12.3267
12.1971
12.0664
11.9376
11.809
11.6784
11.5484
11.4202
11.292
11.1628
11.0324
10.9026
10.7745
10.6458
10.5158
10.3855
10.2546
10.1237
9.99375
9.8641
9.73483
9.60498
9.47391
9.34389
9.21398
9.08177
8.95007
8.82068
8.69064
8.55883
8.42725
8.29706
8.16761
8.03778
7.90731
7.77659
7.64624
7.51663
7.38765
7.25951
7.13161
7.00284
6.87404
6.74659
6.61992
6.49246
6.36397
6.2366
6.11069
5.98367
5.85624
5.73056
5.60531
5.47962
5.35365
5.22662
5.09994
4.97472
4.84875
4.72167
4.59505
4.46835
4.34071
4.2128
4.08485
3.95553
3.82453
3.69416
3.56525
3.43546
3.30415
3.17335
3.04371
2.9135
2.78225
2.65156
2.52196
2.39264
2.26325
2.13391
2.00493
1.87629
1.74759
1.61925
1.49134
1.36261
1.23329
1.10457
0.975703
0.845699
0.715176
0.58501
0.455394
0.325463
0.195042
0.0654529
20.1186
-3179.95
-998.426
568.706
522.404
55.4829
-104.007
-27.013
48.861
55.0032
34.8199
25.1715
27.3389
30.8997
31.4998
30.5653
29.915
29.831
29.8703
29.7856
29.636
29.4916
29.3547
29.2235
29.099
28.9739
28.8458
28.7209
28.5907
28.4485
28.3187
28.2013
28.0741
27.9394
27.8004
27.6657
27.5427
27.4217
27.2942
27.1596
27.0239
26.8894
26.7615
26.6435
26.5214
26.3882
26.2522
26.1175
25.9859
25.8622
25.742
25.6185
25.4923
25.3617
25.2297
25.103
24.9798
24.8591
24.7414
24.6222
24.4933
24.3548
24.2167
24.0826
23.9571
23.8434
23.729
23.6072
23.4797
23.3418
23.1988
23.058
22.9236
22.801
22.684
22.5681
22.4517
22.3254
22.189
22.0478
21.9025
21.7584
21.6198
21.4888
21.3668
21.2465
21.1237
21.0017
20.877
20.7445
20.6068
20.4684
20.3282
20.1855
20.0467
19.9132
19.7824
19.6577
19.5365
19.4149
19.2951
19.1733
19.0496
18.9256
18.7958
18.6631
18.53
18.3928
18.2556
18.1199
17.9821
17.8454
17.7129
17.5818
17.4515
17.3235
17.1974
17.0721
16.9494
16.8283
16.7061
16.5839
16.4616
16.3388
16.2158
16.0904
15.9649
15.8407
15.7133
15.584
15.4556
15.3254
15.195
15.067
14.9374
14.8048
14.6729
14.5421
14.4113
14.2804
14.1493
14.0179
13.8869
13.7556
13.6253
13.4952
13.3638
13.2331
13.1045
12.9749
12.844
12.7147
12.5851
12.4543
12.325
12.1962
12.0658
11.9365
11.809
11.6802
11.5498
11.42
11.2914
11.1631
11.0336
10.9028
10.7732
10.6444
10.5149
10.3855
10.2556
10.125
9.99471
9.86432
9.7344
9.60488
9.4739
9.34315
9.2139
9.08288
8.9501
8.81911
8.68972
8.55966
8.42865
8.29766
8.16732
8.03739
7.90749
7.77741
7.64725
7.51732
7.38764
7.25875
7.13105
7.00327
6.87471
6.74636
6.61917
6.49244
6.36453
6.23654
6.11065
5.98501
5.85796
5.73135
5.60542
5.47954
5.35406
5.22756
5.10006
4.974
4.84873
4.72245
4.5958
4.46903
4.34122
4.21262
4.0845
3.95643
3.82641
3.69498
3.56466
3.43513
3.30438
3.17294
3.0427
2.91331
2.78316
2.65243
2.52208
2.39225
2.26279
2.13346
2.00439
1.87587
1.74734
1.61881
1.491
1.36292
1.23361
1.10422
0.975243
0.845828
0.715618
0.584983
0.454731
0.324885
0.195001
0.0652141
20.1198
-3179.95
-998.438
568.688
522.401
55.4802
-104.011
-27.0057
48.8625
54.9881
34.8208
25.1856
27.3355
30.8842
31.4915
30.5698
29.9204
29.8214
29.8596
29.7874
29.64
29.4898
29.3471
29.2152
29.0998
28.9866
28.8563
28.7146
28.5775
28.4435
28.322
28.2056
28.0714
27.9282
27.7909
27.6692
27.557
27.4324
27.2908
27.145
27.0125
26.8922
26.7715
26.6483
26.518
26.3796
26.2437
26.1161
25.9917
25.8681
25.7453
25.6186
25.4884
25.3564
25.2251
25.1016
24.984
24.8651
24.7426
24.6174
24.4868
24.3493
24.2142
24.0856
23.9623
23.8474
23.7321
23.607
23.475
23.3357
23.1941
23.0572
22.9264
22.8055
22.6892
22.5702
22.4491
22.321
22.1837
22.0431
21.9011
21.7603
21.6231
21.4902
21.3654
21.2464
21.1252
21.0019
20.8769
20.7448
20.6051
20.464
20.3248
20.1851
20.0481
19.916
19.785
19.6579
19.5355
19.4139
19.2943
19.1739
19.0502
18.9263
18.7974
18.6632
18.5286
18.3914
18.2529
18.1181
17.983
17.8465
17.7123
17.5803
17.4496
17.3219
17.1973
17.0732
16.9502
16.8288
16.7066
16.5839
16.4609
16.3374
16.215
16.0907
15.9642
15.8394
15.7134
15.5846
15.4563
15.3266
15.1945
15.0645
14.9359
14.8051
14.6734
14.542
14.4106
14.2796
14.1487
14.0178
13.8872
13.7561
13.625
13.495
13.3641
13.2324
13.103
12.9742
12.8438
12.714
12.5851
12.4548
12.3251
12.1969
12.0671
11.9363
11.8075
11.6795
11.5504
11.4205
11.2906
11.1617
11.0334
10.9039
10.7741
10.6449
10.5148
10.3847
10.2549
10.1246
9.99458
9.8644
9.73433
9.60526
9.47476
9.34271
9.21236
9.0826
8.95091
8.81904
8.68872
8.55905
8.42895
8.29837
8.1677
8.03708
7.90657
7.77625
7.64629
7.51699
7.38792
7.25893
7.13085
7.00339
6.87538
6.74666
6.61839
6.4916
6.36473
6.23658
6.10951
5.98402
5.85793
5.73156
5.6053
5.47878
5.35324
5.22799
5.10112
4.97405
4.84788
4.72144
4.5948
4.46861
4.34186
4.21334
4.08393
3.95518
3.8261
3.6952
3.56404
3.4343
3.30471
3.17385
3.04277
2.91254
2.78244
2.65208
2.52196
2.39222
2.26289
2.13374
2.00462
1.87605
1.74771
1.61886
1.49035
1.36239
1.23369
1.10427
0.975008
0.845749
0.715879
0.585277
0.454604
0.324648
0.194615
0.0651122
20.1202
-3179.94
-998.435
568.682
522.403
55.4923
-104.014
-27.0234
48.8638
55.0035
34.8153
25.1699
27.3322
30.9042
31.5127
30.5686
29.9068
29.8152
29.8722
29.8079
29.6399
29.4717
29.3438
29.2308
29.1103
28.9792
28.8379
28.7006
28.5826
28.4635
28.3357
28.2044
28.0639
27.9257
27.7961
27.675
27.5579
27.4284
27.2859
27.1425
27.0146
26.9006
26.7804
26.6486
26.511
26.373
26.2409
26.1186
25.9997
25.8751
25.7456
25.6134
25.4819
25.3545
25.2291
25.1073
24.9895
24.869
24.7416
24.6111
24.4804
24.3477
24.2171
24.092
23.9687
23.8497
23.7316
23.6057
23.4728
23.3343
23.194
23.0585
22.928
22.8063
22.6912
22.573
22.4506
22.3219
22.1832
22.0397
21.8965
21.7572
21.6244
21.4948
21.3691
21.2491
21.1276
21.0012
20.8737
20.7436
20.6066
20.4651
20.3245
20.184
20.0456
19.914
19.786
19.6604
19.5389
19.4173
19.296
19.1741
19.0484
18.923
18.7963
18.6641
18.5304
18.3941
18.2536
18.1155
17.9805
17.8455
17.7125
17.582
17.4518
17.3232
17.1978
17.0736
16.9498
16.8278
16.7063
16.5848
16.4628
16.3389
16.2155
16.0917
15.9646
15.8381
15.7126
15.5845
15.4563
15.3282
15.1968
15.0648
14.9351
14.8049
14.6735
14.5421
14.4106
14.2797
14.1493
14.0185
13.888
13.7568
13.6247
13.4945
13.3648
13.2334
13.1029
12.9742
12.8446
12.7145
12.5855
12.4554
12.3244
12.1959
12.068
11.9378
11.8075
11.6786
11.5499
11.4212
11.2917
11.162
11.0331
10.9038
10.774
10.6449
10.5152
10.385
10.2549
10.1248
9.9951
9.86509
9.73408
9.60435
9.47498
9.34348
9.21205
9.08223
8.95167
8.81991
8.68869
8.55858
8.42876
8.29854
8.16794
8.03722
7.90675
7.77656
7.64645
7.51704
7.38832
7.25941
7.1307
7.00296
6.87576
6.74782
6.61886
6.49091
6.36447
6.23729
6.10993
5.98405
5.85834
5.73237
5.60638
5.47934
5.35242
5.22689
5.10105
4.97467
4.8489
4.7228
4.59563
4.46839
4.3416
4.21397
4.08463
3.95507
3.82615
3.69623
3.56489
3.434
3.30413
3.17392
3.0432
2.91298
2.78297
2.6526
2.52219
2.39201
2.2624
2.13346
2.00453
1.87584
1.74782
1.61947
1.4907
1.36241
1.23383
1.10421
0.974355
0.845014
0.715909
0.586006
0.455048
0.324664
0.194718
0.0649431
20.1181
-3179.96
-998.448
568.686
522.404
55.4752
-104.016
-27.0047
48.8746
54.9996
34.8051
25.1692
27.3411
30.9033
31.4995
30.5579
29.9139
29.8292
29.8711
29.7925
29.625
29.4681
29.3527
29.2438
29.11
28.9677
28.8345
28.7073
28.5905
28.4679
28.3296
28.1892
28.0522
27.9275
27.809
27.6849
27.5545
27.4165
27.2775
27.1443
27.0216
26.9062
26.7816
26.6436
26.5026
26.3694
26.2443
26.1234
26.0032
25.876
25.7424
25.6086
25.4784
25.3546
25.2328
25.1099
24.9891
24.8679
24.7403
24.6076
24.4756
24.3443
24.2167
24.0954
23.9746
23.8529
23.7305
23.6015
23.4674
23.33
23.1923
23.0604
22.9327
22.8098
22.6926
22.5727
22.447
22.317
22.1801
22.0385
21.8965
21.757
21.6244
21.4963
21.3699
21.2486
21.1289
21.0032
20.8729
20.7405
20.6037
20.4625
20.3226
20.1847
20.0473
19.915
19.7868
19.6604
19.5379
19.4168
19.2962
19.1765
19.0519
18.9239
18.7948
18.661
18.526
18.3919
18.2544
18.1165
17.9813
17.8459
17.7115
17.5802
17.4506
17.3222
17.1968
17.0737
16.9509
16.8288
16.7066
16.584
16.4617
16.3377
16.214
16.0917
15.9664
15.8389
15.7121
15.5835
15.454
15.3265
15.1973
15.0655
14.9347
14.8045
14.6736
14.5426
14.411
14.2792
14.1481
14.017
13.887
13.7571
13.6253
13.4939
13.3644
13.2339
13.1028
12.9735
12.8442
12.7139
12.5848
12.4558
12.3249
12.1949
12.0669
11.9381
11.8083
11.6787
11.5493
11.4205
11.2915
11.1619
11.033
10.9041
10.7739
10.6442
10.5146
10.3848
10.255
10.1246
9.99457
9.86512
9.73448
9.60408
9.47478
9.34377
9.21137
9.0805
8.95079
8.82046
8.68948
8.55867
8.42832
8.29811
8.16771
8.03696
7.90632
7.77615
7.64603
7.51646
7.38812
7.25998
7.13134
7.00272
6.87478
6.74729
6.6189
6.49043
6.36381
6.23748
6.11026
5.98375
5.85775
5.73175
5.60625
5.47998
5.35279
5.22657
5.10069
4.9741
4.84794
4.72233
4.59598
4.46868
4.34132
4.21386
4.08492
3.9547
3.82501
3.6956
3.56499
3.43387
3.30376
3.174
3.04341
2.91261
2.78221
2.65205
2.52212
2.39222
2.26237
2.13316
2.00425
1.87543
1.74734
1.61933
1.49057
1.36202
1.23385
1.10491
0.974835
0.844374
0.714588
0.585257
0.455011
0.324658
0.194653
0.0650199
20.1124
-3179.94
-998.427
568.684
522.391
55.4748
-104.017
-27.0121
48.8606
54.9924
34.812
25.1762
27.3396
30.8971
31.496
30.5612
29.9222
29.8296
29.8622
29.7882
29.6338
29.4844
29.3588
29.2377
29.1019
28.9627
28.8396
28.7159
28.589
28.4593
28.3234
28.1913
28.0628
27.9395
27.8162
27.6822
27.5431
27.4059
27.2772
27.1546
27.0322
26.9079
26.7756
26.6368
26.4992
26.3704
26.2501
26.1294
26.005
25.8739
25.7382
25.6049
25.4768
25.3562
25.2391
25.117
24.991
24.8646
24.7351
24.6039
24.4757
24.3482
24.2212
24.0991
23.9774
23.8533
23.7284
23.5989
23.4652
23.3298
23.1939
23.0632
22.9369
22.8124
22.6926
22.5723
22.4462
22.3152
22.1787
22.0377
21.8962
21.7567
21.6243
21.4991
21.3746
21.2507
21.1288
21.0029
20.8713
20.7382
20.6034
20.4639
20.323
20.1843
20.0469
19.914
19.787
19.6626
19.5411
19.4198
19.297
19.1752
19.0509
18.9229
18.7946
18.6625
18.5267
18.3918
18.2547
18.1155
17.9792
17.8449
17.7113
17.5807
17.4525
17.3246
17.1985
17.0744
16.951
16.8285
16.7063
16.584
16.4625
16.3396
16.2147
16.091
15.9665
15.8394
15.7127
15.5851
15.4547
15.3254
15.1971
15.0664
14.9352
14.8045
14.6731
14.5421
14.4113
14.2803
14.1499
14.0184
13.8869
13.7567
13.6255
13.4938
13.364
13.2345
13.1035
12.9737
12.845
12.7149
12.5849
12.4561
12.326
12.1951
12.0662
11.938
11.8087
11.6791
11.5495
11.4206
11.2923
11.1627
11.0331
10.9041
10.7743
10.6444
10.5147
10.3847
10.2552
10.1253
9.99506
9.86569
9.73513
9.60348
9.47355
9.34404
9.21277
9.08108
8.95043
8.82031
8.68991
8.5593
8.42875
8.29812
8.16748
8.03671
7.90605
7.77627
7.64682
7.51717
7.38817
7.25992
7.13172
7.00322
6.87484
6.74738
6.61965
6.49084
6.36327
6.23727
6.11093
5.98459
5.85844
5.73192
5.60608
5.48031
5.35315
5.22619
5.10044
4.97464
4.84861
4.72283
4.5967
4.46937
4.34131
4.2136
4.0854
3.95543
3.82502
3.69553
3.56575
3.43467
3.30359
3.17341
3.0434
2.91323
2.78301
2.65251
2.52212
2.39221
2.26254
2.13335
2.00455
1.87552
1.74695
1.61916
1.4909
1.36201
1.23332
1.10464
0.975323
0.845194
0.715043
0.585364
0.455266
0.324855
0.194633
0.0651605
20.1159
-3179.95
-998.444
568.673
522.401
55.4918
-104.015
-27.0207
48.8609
55.002
34.8261
25.1771
27.3251
30.885
31.4979
30.569
29.9268
29.8289
29.8612
29.793
29.6352
29.4775
29.346
29.2254
29.1017
28.9725
28.8513
28.7246
28.5859
28.4481
28.3157
28.1919
28.0677
27.9399
27.8116
27.6791
27.5433
27.4077
27.2796
27.1575
27.0331
26.9045
26.7695
26.6317
26.4989
26.3751
26.2566
26.1327
26.0015
25.8663
25.732
25.6045
25.4816
25.3611
25.2422
25.1177
24.988
24.8599
24.7321
24.6022
24.4747
24.3492
24.2229
24.1001
23.9792
23.8545
23.7269
23.5948
23.46
23.3264
23.1936
23.0653
22.9416
22.8175
22.6939
22.5702
22.4421
22.3099
22.1743
22.0359
21.8972
21.7591
21.6251
21.4991
21.376
21.2515
21.1282
21.0032
20.8713
20.7355
20.599
20.4608
20.3215
20.1847
20.0494
19.9166
19.7883
19.6628
19.5403
19.4195
19.2973
19.176
19.0527
18.9241
18.7936
18.6606
18.5235
18.388
18.2537
18.1169
17.9806
17.846
17.7112
17.579
17.4503
17.3231
17.1976
17.0742
16.9517
16.8298
16.7076
16.584
16.4612
16.3385
16.2141
16.09
15.9663
15.8395
15.7116
15.5844
15.455
15.3248
15.1963
15.0664
14.9351
14.8043
14.6729
14.5418
14.4108
14.2793
14.1488
14.0181
13.8865
13.7563
13.626
13.4941
13.3634
13.2342
13.1038
12.9731
12.8439
12.7142
12.584
12.4555
12.3268
12.1958
12.0655
11.9369
11.8086
11.6797
11.5498
11.4198
11.291
11.1623
11.0331
10.9042
10.7743
10.644
10.5141
10.3842
10.2548
10.1252
9.99463
9.86517
9.73576
9.60424
9.47277
9.34264
9.21212
9.08082
8.94998
8.81995
8.68987
8.55933
8.42868
8.29794
8.16723
8.0365
7.90552
7.77531
7.64616
7.51714
7.38836
7.26011
7.132
7.00339
6.87421
6.74606
6.61912
6.49125
6.36321
6.23676
6.11073
5.98467
5.85867
5.73182
5.6052
5.47973
5.35361
5.22665
5.10026
4.97414
4.84785
4.72197
4.59649
4.47008
4.34182
4.21306
4.08481
3.95557
3.8248
3.69433
3.56479
3.43487
3.30429
3.17377
3.04321
2.91261
2.7824
2.65222
2.52189
2.39186
2.26208
2.1328
2.00439
1.87589
1.74703
1.61871
1.49057
1.36189
1.23305
1.10416
0.974959
0.844999
0.714576
0.584552
0.454775
0.324673
0.19463
0.0650615
20.1076
-3179.96
-998.437
568.689
522.399
55.4768
-104.024
-27.0232
48.8667
55.0057
34.8158
25.1673
27.3305
30.9015
31.5128
30.5665
29.9104
29.8182
29.8541
29.7926
29.6442
29.488
29.3524
29.2248
29.0984
28.9706
28.8477
28.7207
28.5829
28.4482
28.3213
28.1995
28.0736
27.9396
27.8037
27.6712
27.543
27.4144
27.2868
27.1619
27.0326
26.8991
26.7641
26.6307
26.5023
26.3803
26.2603
26.1334
25.9992
25.8626
25.7286
25.6039
25.4848
25.3649
25.2447
25.1196
24.9872
24.856
24.7291
24.6025
24.4776
24.3542
24.2278
24.1009
23.9766
23.8515
23.7247
23.5949
23.4614
23.3281
23.1959
23.0666
22.9424
22.8192
22.6949
22.5699
22.4416
22.3089
22.1725
22.034
21.8967
21.7613
21.6278
21.5008
21.3787
21.2539
21.1273
21.001
20.8707
20.7355
20.599
20.4609
20.3212
20.1837
20.0492
19.9173
19.7896
19.665
19.5428
19.4221
19.2991
19.1748
19.0509
18.923
18.7929
18.6621
18.526
18.3879
18.252
18.1153
17.9791
17.8457
17.7126
17.5805
17.4515
17.3247
17.1992
17.0752
16.9519
16.8294
16.7074
16.5843
16.4615
16.3396
16.2158
16.0904
15.966
15.8399
15.7117
15.5844
15.456
15.3252
15.1955
15.0662
14.9356
14.8048
14.6733
14.5419
14.4114
14.2802
14.1494
14.019
13.8869
13.7557
13.626
13.495
13.3637
13.2341
13.1045
12.974
12.8446
12.7154
12.5846
12.4546
12.3264
12.197
12.0667
11.937
11.8078
11.6793
11.5508
11.4212
11.292
11.1628
11.0329
10.9037
10.7745
10.6447
10.5148
10.3843
10.2546
10.1257
9.99539
9.86512
9.73579
9.60495
9.47294
9.34213
9.21216
9.08159
8.95062
8.82019
8.69012
8.5597
8.42897
8.29793
8.16694
8.03647
7.90589
7.77557
7.6464
7.51763
7.38878
7.26018
7.13211
7.00414
6.87512
6.74597
6.61855
6.49151
6.36389
6.23711
6.11093
5.98485
5.85927
5.73292
5.60565
5.47922
5.35317
5.22656
5.10044
4.97494
4.84897
4.72243
4.59614
4.47008
4.3427
4.21366
4.08461
3.95567
3.82555
3.69478
3.56467
3.43477
3.30437
3.17387
3.04344
2.91297
2.78279
2.65267
2.52223
2.39209
2.26237
2.1328
2.00398
1.87573
1.74725
1.61889
1.49076
1.36219
1.23321
1.10395
0.974672
0.845317
0.715363
0.58506
0.45506
0.324946
0.194571
0.0650627
20.1063
-3179.96
-998.442
568.685
522.4
55.4803
-104.016
-27.0138
48.8658
54.9977
34.8153
25.1725
27.3329
30.895
31.5052
30.5644
29.9058
29.8251
29.8729
29.8003
29.6402
29.4778
29.3423
29.2214
29.1039
28.9779
28.8469
28.7158
28.5821
28.4524
28.3258
28.1994
28.0699
27.9352
27.8001
27.6697
27.5444
27.4175
27.2877
27.1596
27.0298
26.8964
26.7624
26.6323
26.5063
26.3828
26.2592
26.1296
25.9942
25.8589
25.7281
25.607
25.4907
25.3694
25.2435
25.1154
24.9837
24.8535
24.728
24.6035
24.4783
24.3545
24.2295
24.1024
23.9762
23.8494
23.7213
23.5915
23.4593
23.3276
23.1979
23.0695
22.9441
22.8203
22.6948
22.5677
22.4384
22.3058
22.1703
22.0326
21.8959
21.7627
21.6304
21.5011
21.3781
21.2549
21.1278
20.9997
20.8688
20.7332
20.5961
20.4589
20.3207
20.1836
20.0498
19.9189
19.7915
19.6663
19.5428
19.4215
19.2994
19.1754
19.0513
18.9236
18.7914
18.6592
18.5245
18.3864
18.2504
18.115
17.9789
17.8453
17.713
17.5807
17.451
17.3236
17.1981
17.0744
16.9515
16.8293
16.708
16.5853
16.4613
16.3383
16.2151
16.0901
15.9653
15.8398
15.7112
15.5826
15.4553
15.3257
15.1955
15.0657
14.9348
14.8042
14.6733
14.5418
14.411
14.2795
14.1482
14.0185
13.8875
13.7555
13.625
13.4948
13.3639
13.2339
13.1046
12.9738
12.8434
12.7145
12.5849
12.4544
12.3254
12.1964
12.0666
11.9372
11.8078
11.6789
11.5503
11.4209
11.2914
11.1625
11.0329
10.9033
10.7738
10.644
10.5145
10.3845
10.2544
10.1253
9.99536
9.86445
9.73482
9.60511
9.47358
9.34173
9.211
9.08076
8.95026
8.8199
8.68981
8.55942
8.42879
8.29792
8.16675
8.03603
7.9055
7.77505
7.64575
7.51743
7.38911
7.26035
7.13153
7.00345
6.87511
6.74589
6.61776
6.49094
6.36393
6.23727
6.11111
5.98473
5.8588
5.73282
5.60569
5.4788
5.35286
5.22659
5.10011
4.97431
4.84879
4.72268
4.59596
4.46948
4.3426
4.21393
4.08431
3.9551
3.82541
3.69461
3.564
3.43421
3.30446
3.17437
3.04386
2.91284
2.7821
2.65201
2.52188
2.39178
2.26214
2.13261
2.00359
1.87545
1.7472
1.61859
1.4901
1.36165
1.23304
1.10403
0.974573
0.844813
0.714742
0.584471
0.454637
0.324816
0.194551
0.0648997
20.1147
-3179.95
-998.442
568.674
522.396
55.4849
-104.012
-27.0193
48.8563
54.9936
34.8171
25.1747
27.334
30.8953
31.5037
30.5696
29.9105
29.8213
29.8698
29.7961
29.6352
29.4791
29.3518
29.2322
29.1076
28.9746
28.8391
28.7081
28.58
28.4556
28.3291
28.1983
28.0689
27.9373
27.8031
27.671
27.5449
27.4191
27.2899
27.1589
27.0267
26.894
26.7631
26.6367
26.5128
26.3864
26.2573
26.1246
25.991
25.8597
25.7308
25.6085
25.4913
25.3699
25.2438
25.1153
24.984
24.8537
24.728
24.605
24.4816
24.3575
24.2316
24.1024
23.9732
23.8457
23.7189
23.5921
23.4626
23.3314
23.2009
23.0711
22.9437
22.8192
22.6945
22.5673
22.438
22.3055
22.1699
22.0325
21.8955
21.7639
21.6345
21.5048
21.3787
21.2546
21.1269
20.9975
20.8677
20.7336
20.5965
20.4588
20.3208
20.1835
20.0494
19.9192
19.7928
19.6692
19.5458
19.4236
19.3009
19.175
19.0491
18.9224
18.7914
18.6596
18.5263
18.3881
18.25
18.1139
17.9777
17.844
17.7129
17.5819
17.4526
17.3255
17.2
17.0762
16.9525
16.8289
16.707
16.5854
16.4626
16.3394
16.216
16.0907
15.9647
15.8396
15.7124
15.5832
15.4551
15.326
15.1957
15.0658
14.935
14.8042
14.6734
14.542
14.4116
14.2807
14.1488
14.0184
13.8878
13.7561
13.6254
13.4954
13.3644
13.2336
13.1046
12.9752
12.8444
12.7149
12.5856
12.455
12.3253
12.1967
12.0673
11.9378
11.8081
11.6787
11.5507
11.4221
11.2924
11.163
11.0332
10.9033
10.7737
10.644
10.5146
10.3851
10.2549
10.1257
9.99648
9.86532
9.73421
9.60418
9.47363
9.34231
9.21137
9.08129
8.95117
8.82075
8.6903
8.55951
8.42856
8.29763
8.16649
8.03583
7.90587
7.77593
7.64639
7.51762
7.38934
7.26089
7.13192
7.00345
6.87543
6.74649
6.61774
6.49065
6.36412
6.23778
6.1118
5.98534
5.85899
5.73323
5.60644
5.47891
5.35226
5.22632
5.10042
4.97479
4.84944
4.72361
4.5967
4.46942
4.34241
4.21432
4.08453
3.95477
3.82556
3.69557
3.56473
3.43415
3.30394
3.17395
3.0441
2.91368
2.78269
2.65215
2.52198
2.39194
2.26236
2.1329
2.00355
1.87515
1.74727
1.61909
1.49064
1.3619
1.23287
1.10364
0.974282
0.844972
0.715238
0.584962
0.454942
0.325117
0.194795
0.0651158
20.117
-3179.96
-998.45
568.678
522.398
55.4825
-104.014
-27.0148
48.8613
54.9973
34.8198
25.1783
27.3371
30.8917
31.496
30.5658
29.9162
29.8281
29.8701
29.7906
29.6288
29.4764
29.3506
29.2313
29.1089
28.9785
28.8429
28.7111
28.5819
28.456
28.3298
28.1962
28.0623
27.9335
27.8047
27.6745
27.5466
27.4183
27.287
27.1559
27.0249
26.8945
26.7654
26.6381
26.5126
26.3854
26.2552
26.1216
25.9882
25.8603
25.7351
25.6122
25.4925
25.369
25.2398
25.1108
24.9821
24.8543
24.73
24.607
24.4826
24.3569
24.2302
24.1017
23.9724
23.8439
23.7163
23.5892
23.461
23.3315
23.2023
23.074
22.9458
22.8191
22.693
22.5646
22.4346
22.3028
22.1687
22.0334
21.8965
21.7628
21.6349
21.5065
21.3791
21.2546
21.1272
20.9964
20.8643
20.7305
20.5941
20.457
20.3208
20.1851
20.051
19.9202
19.7933
19.6695
19.5464
19.4236
19.3013
19.1761
19.0491
18.922
18.7904
18.656
18.5229
18.387
18.2497
18.1145
17.9787
17.8438
17.7118
17.5811
17.4521
17.3252
17.1995
17.0756
16.9529
16.8298
16.707
16.5849
16.462
16.3383
16.2151
16.0907
15.9643
15.8386
15.712
15.583
15.4543
15.3254
15.1952
15.0653
14.9346
14.8038
14.6733
14.5417
14.4108
14.2804
14.1487
14.0177
13.8876
13.7563
13.6248
13.4946
13.3645
13.2339
13.1042
12.9748
12.8439
12.7136
12.5851
12.4556
12.3253
12.1959
12.0665
11.9373
11.8083
11.6787
11.5497
11.4211
11.2919
11.1628
11.0333
10.9032
10.7734
10.6433
10.5138
10.3848
10.2548
10.1249
9.9959
9.86576
9.73441
9.60358
9.4731
9.34205
9.21088
9.08043
8.95043
8.82037
8.69028
8.55967
8.4285
8.29736
8.16609
8.03508
7.90499
7.77547
7.6463
7.51761
7.38934
7.26106
7.13182
7.00246
6.87438
6.74648
6.61818
6.49067
6.36382
6.23741
6.11177
5.98573
5.85881
5.73235
5.60605
5.47904
5.3523
5.22623
5.10012
4.97407
4.84865
4.72359
4.59741
4.46959
4.34168
4.21394
4.08478
3.9545
3.82462
3.69488
3.56467
3.4345
3.3044
3.17402
3.04366
2.91334
2.78263
2.65204
2.52177
2.3915
2.26185
2.13284
2.00362
1.87472
1.74658
1.61846
1.49012
1.36158
1.23278
1.10374
0.974195
0.8446
0.714826
0.584456
0.454324
0.324642
0.194812
0.0650704
20.1163
-3179.94
-998.435
568.68
522.396
55.4803
-104.014
-27.0165
48.8578
54.9941
34.8204
25.1764
27.33
30.8892
31.5017
30.5755
29.9211
29.8195
29.8592
29.7892
29.6338
29.4835
29.3574
29.2325
29.1042
28.9738
28.8399
28.7107
28.5841
28.4563
28.3292
28.1974
28.0625
27.9328
27.8059
27.6767
27.5477
27.419
27.2868
27.1549
27.0242
26.8951
26.7682
26.6417
26.5141
26.3845
26.2526
26.1197
25.9878
25.8621
25.7394
25.6145
25.4914
25.3679
25.2389
25.1098
24.9826
24.8554
24.7311
24.6091
24.4854
24.3587
24.23
24.0999
23.9702
23.8422
23.7157
23.5898
23.4633
23.3347
23.2042
23.0746
22.9458
22.8181
22.6925
22.5652
22.435
22.3022
22.1671
22.0331
21.8986
21.7649
21.6368
21.5095
21.3803
21.2531
21.1257
20.9954
20.8635
20.73
20.5942
20.4568
20.3201
20.1854
20.0523
19.9219
19.795
19.6712
19.5484
19.4249
19.3019
19.1766
19.0479
18.9202
18.7904
18.6564
18.5227
18.3875
18.2496
18.1136
17.9788
17.8442
17.7122
17.5816
17.4526
17.3262
17.2011
17.077
16.9538
16.8303
16.7071
16.5849
16.4629
16.3393
16.2151
16.0908
15.9643
15.8379
15.7122
15.5839
15.4547
15.3257
15.1955
15.0655
14.9348
14.8038
14.6736
14.5424
14.4111
14.2809
14.1494
14.0176
13.8873
13.7571
13.6261
13.4954
13.3651
13.234
13.1036
12.9749
12.8454
12.7146
12.5849
12.4554
12.3256
12.1966
12.0674
11.9379
11.8086
11.6791
11.55
11.4215
11.2924
11.163
11.0334