/*--------------------------------*- C++ -*----------------------------------*\
| =========                 |                                                 |
| \\      /  F ield         | OpenFOAM: The Open Source CFD Toolbox           |
|  \\    /   O peration     | Version:  2406                                  |
|   \\  /    A nd           | Website:  www.openfoam.com                      |
|    \\/     M anipulation  |                                                 |
\*---------------------------------------------------------------------------*/
FoamFile
{
    version     2.0;
    format      ascii;
    arch        "LSB;label=32;scalar=64";
    class       surfaceScalarField;
    location    "1.15";
    object      phi;
}
// * * * * * * * * * * * * * * * * * * * * * * * * * * * * * * * * * * * * * //

dimensions      [0 3 -1 0 0 0 0];

oriented        oriented;

internalField   nonuniform List<scalar> 
12225
(
0.509534
2.24975e-06
0.509526
8.1115e-06
0.509517
8.91783e-06
0.509512
5.63533e-06
0.509507
4.48796e-06
0.509503
4.57159e-06
0.509497
5.29131e-06
0.509492
5.33676e-06
0.509487
4.78831e-06
0.509483
4.51826e-06
0.509477
5.50036e-06
0.509471
6.4053e-06
0.509465
6.1969e-06
0.509459
5.86205e-06
0.509453
5.63372e-06
0.509448
5.37968e-06
0.509443
5.17559e-06
0.509437
5.15506e-06
0.509432
5.4379e-06
0.509426
5.68934e-06
0.509421
5.78963e-06
0.509415
5.4367e-06
0.50941
4.67124e-06
0.509406
4.43693e-06
0.509401
4.96381e-06
0.509395
5.68672e-06
0.50939
5.76783e-06
0.509384
5.26952e-06
0.509379
5.46324e-06
0.509373
6.16873e-06
0.509366
6.17928e-06
0.509361
5.64761e-06
0.509356
5.25085e-06
0.50935
5.12667e-06
0.509345
5.09725e-06
0.50934
5.17149e-06
0.509335
5.4999e-06
0.509329
5.81965e-06
0.509323
5.92017e-06
0.509317
5.91704e-06
0.509311
5.69171e-06
0.509306
5.01378e-06
0.509302
4.18991e-06
0.509298
4.03216e-06
0.509294
4.58574e-06
0.509289
5.00519e-06
0.509283
5.13083e-06
0.509278
5.5404e-06
0.509272
6.13331e-06
0.509265
6.37985e-06
0.509259
6.22934e-06
0.509253
5.89466e-06
0.509248
5.55878e-06
0.509242
5.44164e-06
0.509237
5.5214e-06
0.509231
5.54256e-06
0.509226
5.43069e-06
0.509221
5.20079e-06
0.509216
4.9677e-06
0.50921
5.06376e-06
0.509205
5.43785e-06
0.509199
5.6375e-06
0.509194
5.64475e-06
0.509188
5.60447e-06
0.509183
5.42928e-06
0.509178
5.21439e-06
0.509172
5.06713e-06
0.509167
4.97016e-06
0.509162
5.0401e-06
0.509157
5.23723e-06
0.509152
5.39283e-06
0.509146
5.49241e-06
0.509141
5.50294e-06
0.509135
5.50766e-06
0.50913
5.55524e-06
0.509124
5.54263e-06
0.509119
5.54916e-06
0.509113
5.47518e-06
0.509108
5.10025e-06
0.509103
4.7716e-06
0.509098
4.86667e-06
0.509093
5.25845e-06
0.509087
5.71814e-06
0.509081
6.02262e-06
0.509075
6.09947e-06
0.509069
5.97089e-06
0.509064
5.59303e-06
0.509059
5.16262e-06
0.509054
4.99856e-06
0.509049
5.02613e-06
0.509044
5.02082e-06
0.509038
5.06818e-06
0.509033
5.2096e-06
0.509028
5.1783e-06
0.509023
4.99207e-06
0.509018
4.99068e-06
0.509013
5.21113e-06
0.509007
5.54421e-06
0.509002
5.86508e-06
0.508996
5.86207e-06
0.50899
5.5109e-06
0.508985
5.09021e-06
0.50898
4.75056e-06
0.508976
4.67513e-06
0.508971
4.90239e-06
0.508965
5.25191e-06
0.50896
5.7231e-06
0.508954
6.16897e-06
0.508947
6.22589e-06
0.508941
5.8917e-06
0.508936
5.43035e-06
0.508931
5.12135e-06
0.508926
5.22652e-06
0.50892
5.64885e-06
0.508914
5.98335e-06
0.508908
6.00393e-06
0.508902
5.75053e-06
0.508897
5.38201e-06
0.508892
5.12178e-06
0.508887
5.11288e-06
0.508881
5.31129e-06
0.508876
5.62248e-06
0.50887
5.96482e-06
0.508864
6.19665e-06
0.508857
6.20062e-06
0.508851
5.96561e-06
0.508846
5.6036e-06
0.50884
5.33021e-06
0.508835
5.18002e-06
0.50883
5.01413e-06
0.508825
4.95191e-06
0.50882
5.17287e-06
0.508815
5.52398e-06
0.508809
5.80831e-06
0.508803
5.91694e-06
0.508797
5.79363e-06
0.508791
5.67915e-06
0.508786
5.81058e-06
0.50878
6.01114e-06
0.508774
6.02469e-06
0.508768
5.80858e-06
0.508762
5.50505e-06
0.508757
5.33512e-06
0.508752
5.30957e-06
0.508746
5.31266e-06
0.508741
5.38007e-06
0.508735
5.57191e-06
0.50873
5.8407e-06
0.508723
6.06646e-06
0.508717
6.03486e-06
0.508712
5.69166e-06
0.508706
5.29367e-06
0.508701
5.07495e-06
0.508696
5.01935e-06
0.508691
5.04231e-06
0.508686
5.10866e-06
0.508681
5.15771e-06
0.508676
5.19547e-06
0.508671
5.31387e-06
0.508665
5.41083e-06
0.50866
5.33059e-06
0.508655
5.17309e-06
0.50865
5.08233e-06
0.508644
5.04557e-06
0.508639
4.98224e-06
0.508635
4.88367e-06
0.50863
4.89846e-06
0.508625
5.11127e-06
0.508619
5.30083e-06
0.508614
5.28669e-06
0.508609
5.16157e-06
0.508604
5.04393e-06
0.508599
5.00798e-06
0.508594
5.06084e-06
0.508589
5.16911e-06
0.508583
5.30159e-06
0.508578
5.35284e-06
0.508573
5.26665e-06
0.508568
5.15154e-06
0.508562
5.02775e-06
0.508558
4.85097e-06
0.508553
4.77714e-06
0.508548
4.94417e-06
0.508543
5.19254e-06
0.508537
5.28323e-06
0.508532
5.22546e-06
0.508527
5.21735e-06
0.508522
5.35078e-06
0.508516
5.51034e-06
0.508511
5.56062e-06
0.508505
5.51602e-06
0.5085
5.45829e-06
0.508494
5.37491e-06
0.508489
5.2394e-06
0.508484
5.13645e-06
0.508479
5.15373e-06
0.508473
5.2766e-06
0.508468
5.44946e-06
0.508462
5.60814e-06
0.508457
5.69399e-06
0.508451
5.69663e-06
0.508445
5.65244e-06
0.50844
5.67315e-06
0.508434
5.79222e-06
0.508428
5.85567e-06
0.508422
5.79037e-06
0.508416
5.7285e-06
0.508411
5.78667e-06
0.508405
5.94522e-06
0.508399
6.07177e-06
0.508393
6.0733e-06
0.508387
6.04358e-06
0.50838
6.05678e-06
0.508374
6.00463e-06
0.508369
5.8427e-06
0.508363
5.72184e-06
0.508357
5.74341e-06
0.508351
5.84738e-06
0.508345
5.92209e-06
0.508339
5.91542e-06
0.508334
5.81786e-06
0.508328
5.67113e-06
0.508322
5.60283e-06
0.508317
5.67389e-06
0.508311
5.76989e-06
0.508305
5.78141e-06
0.508299
5.76324e-06
0.508294
5.77593e-06
0.508288
5.71282e-06
0.508282
5.48007e-06
0.508277
5.20628e-06
0.508272
5.07967e-06
0.508267
5.10782e-06
0.508262
5.16401e-06
0.508257
5.16005e-06
0.508252
5.12017e-06
0.508246
5.10669e-06
0.508241
5.12878e-06
0.508236
5.1643e-06
0.508231
5.17853e-06
0.508226
5.13844e-06
0.508221
5.07463e-06
0.508216
5.02903e-06
0.508211
4.97571e-06
0.508206
4.91179e-06
0.508201
4.89492e-06
0.508196
4.98409e-06
0.508191
5.03707e-06
0.508186
5.32941e-06
4.72542e-06
0.509537
-1.60785e-07
0.509545
1.41674e-07
0.509553
1.14474e-06
0.509557
1.99727e-06
0.509559
2.31195e-06
0.509561
2.54091e-06
0.509563
3.06881e-06
0.509565
2.86638e-06
0.509568
2.49332e-06
0.50957
2.29852e-06
0.509573
2.17374e-06
0.509577
2.67714e-06
0.509581
2.58884e-06
0.509584
2.08518e-06
0.509587
2.52172e-06
0.50959
3.19177e-06
0.509592
2.92918e-06
0.509595
2.1962e-06
0.509598
2.21426e-06
0.509601
2.50523e-06
0.509605
2.16638e-06
0.509608
2.16049e-06
0.50961
2.82049e-06
0.509612
2.97357e-06
0.509614
2.52317e-06
0.509617
2.2414e-06
0.50962
2.72155e-06
0.509622
3.21914e-06
0.509625
2.84547e-06
0.509629
2.2422e-06
0.509633
2.1761e-06
0.509636
2.55565e-06
0.509639
2.60629e-06
0.509642
2.04909e-06
0.509645
1.56412e-06
0.509649
1.76038e-06
0.509652
2.61383e-06
0.509654
3.29924e-06
0.509657
3.04129e-06
0.509661
2.35628e-06
0.509664
2.41095e-06
0.509666
3.26106e-06
0.509666
3.58382e-06
0.509668
2.72993e-06
0.50967
1.72788e-06
0.509674
1.37545e-06
0.509678
1.40581e-06
0.509682
1.65399e-06
0.509686
2.14136e-06
0.50969
2.5042e-06
0.509693
2.40127e-06
0.509697
2.18689e-06
0.5097
2.3187e-06
0.509703
2.73366e-06
0.509705
3.10716e-06
0.509708
3.18537e-06
0.50971
2.91601e-06
0.509713
2.45251e-06
0.509716
1.90595e-06
0.50972
1.64205e-06
0.509723
2.13781e-06
0.509726
2.95442e-06
0.509728
3.2877e-06
0.50973
3.02687e-06
0.509733
2.44393e-06
0.509737
1.98462e-06
0.50974
1.9342e-06
0.509743
2.06655e-06
0.509746
2.2567e-06
0.509748
2.55302e-06
0.509751
2.83233e-06
0.509753
3.04486e-06
0.509756
3.08265e-06
0.509758
2.87629e-06
0.509761
2.57551e-06
0.509765
2.18668e-06
0.509768
1.91289e-06
0.509772
2.08843e-06
0.509774
2.41736e-06
0.509777
2.51484e-06
0.509779
2.50376e-06
0.509782
2.57467e-06
0.509785
2.70256e-06
0.509788
2.76651e-06
0.509791
2.69154e-06
0.509795
2.56785e-06
0.509798
2.45932e-06
0.509801
2.34388e-06
0.509803
2.32471e-06
0.509806
2.52825e-06
0.509808
2.75584e-06
0.50981
2.84885e-06
0.509812
3.04512e-06
0.509814
3.26388e-06
0.509816
3.08319e-06
0.509819
2.58653e-06
0.509822
2.06096e-06
0.509826
1.67758e-06
0.50983
1.73152e-06
0.509834
2.17718e-06
0.509836
2.59993e-06
0.509839
2.83434e-06
0.509841
2.82545e-06
0.509843
2.60131e-06
0.509845
2.38063e-06
0.509848
2.16732e-06
0.509852
2.01172e-06
0.509856
2.22334e-06
0.509859
2.75831e-06
0.509862
3.22823e-06
0.509864
3.37129e-06
0.509866
3.10961e-06
0.509869
2.65917e-06
0.509872
2.39932e-06
0.509876
2.39946e-06
0.509879
2.47127e-06
0.509882
2.50595e-06
0.509885
2.43927e-06
0.509888
2.29822e-06
0.509891
2.24808e-06
0.509894
2.30511e-06
0.509897
2.37158e-06
0.509901
2.46019e-06
0.509904
2.59439e-06
0.509908
2.71328e-06
0.509911
2.72626e-06
0.509914
2.56988e-06
0.509917
2.40437e-06
0.50992
2.47044e-06
0.509922
2.64791e-06
0.509924
2.64075e-06
0.509927
2.48687e-06
0.50993
2.3594e-06
0.509934
2.32756e-06
0.509937
2.42542e-06
0.509941
2.43967e-06
0.509944
2.16506e-06
0.509948
1.90904e-06
0.509952
1.97472e-06
0.509956
2.25634e-06
0.509959
2.56053e-06
0.509962
2.70075e-06
0.509964
2.69048e-06
0.509967
2.72413e-06
0.50997
2.75941e-06
0.509972
2.63847e-06
0.509976
2.37897e-06
0.509979
2.1027e-06
0.509983
2.02005e-06
0.509987
2.18939e-06
0.509991
2.34757e-06
0.509993
2.38448e-06
0.509996
2.43261e-06
0.509999
2.55169e-06
0.510001
2.67626e-06
0.510003
2.78842e-06
0.510006
2.83989e-06
0.510008
2.71493e-06
0.510011
2.5302e-06
0.510014
2.47025e-06
0.510017
2.40269e-06
0.51002
2.23536e-06
0.510023
2.15153e-06
0.510025
2.27593e-06
0.510028
2.52446e-06
0.51003
2.66863e-06
0.510032
2.60539e-06
0.510035
2.56349e-06
0.510037
2.69044e-06
0.51004
2.82694e-06
0.510042
2.85673e-06
0.510044
2.77809e-06
0.510047
2.61753e-06
0.51005
2.41523e-06
0.510052
2.19367e-06
0.510056
2.06824e-06
0.510059
2.14052e-06
0.510062
2.3198e-06
0.510064
2.56213e-06
0.510067
2.86205e-06
0.510068
2.99782e-06
0.51007
2.82126e-06
0.510073
2.56533e-06
0.510076
2.51247e-06
0.510078
2.60891e-06
0.510081
2.61316e-06
0.510084
2.45786e-06
0.510087
2.29786e-06
0.51009
2.26039e-06
0.510093
2.29256e-06
0.510096
2.30313e-06
0.510099
2.36696e-06
0.510102
2.57068e-06
0.510105
2.80467e-06
0.510107
2.92888e-06
0.510109
2.92596e-06
0.510112
2.82604e-06
0.510114
2.68704e-06
0.510117
2.59251e-06
0.51012
2.55955e-06
0.510124
2.53757e-06
0.510127
2.44652e-06
0.51013
2.30486e-06
0.510134
2.27766e-06
0.510137
2.40707e-06
0.51014
2.53549e-06
0.510144
2.55563e-06
0.510147
2.49858e-06
0.51015
2.47763e-06
0.510154
2.54408e-06
0.510157
2.56331e-06
0.510161
2.47867e-06
0.510165
2.47531e-06
0.510168
2.61966e-06
0.510171
2.70527e-06
0.510174
2.60639e-06
0.510177
2.44019e-06
0.510181
2.34934e-06
0.510185
2.36386e-06
0.510188
2.46483e-06
0.510191
2.60343e-06
0.510194
2.6681e-06
0.510197
2.6093e-06
0.5102
2.53375e-06
0.510204
2.52334e-06
0.510207
2.49304e-06
0.51021
2.38969e-06
0.510214
2.36783e-06
0.510217
2.54114e-06
0.51022
2.72592e-06
0.510222
2.70414e-06
0.510225
2.54778e-06
0.510227
2.4838e-06
0.51023
2.59332e-06
0.510232
2.76415e-06
0.510234
2.85802e-06
0.510237
2.83938e-06
0.510239
2.74156e-06
0.510242
2.62629e-06
0.510244
2.55764e-06
0.510247
2.52509e-06
0.510249
2.50265e-06
0.510252
2.54338e-06
0.510254
2.63144e-06
0.510257
2.62091e-06
0.510259
2.46459e-06
0.510262
2.312e-06
0.510264
2.29169e-06
0.510267
2.31173e-06
2.4695e-06
0.509537
5.78527e-07
0.509536
1.09907e-06
0.509535
1.97619e-06
0.509535
1.90815e-06
0.509536
1.03298e-06
0.509538
1.26834e-06
0.509539
1.68392e-06
0.50954
2.23298e-06
0.50954
2.48674e-06
0.50954
2.1423e-06
0.50954
1.60451e-06
0.509541
1.58897e-06
0.509542
2.28739e-06
0.509541
2.82535e-06
0.509541
2.00017e-06
0.509543
1.17965e-06
0.509545
1.88183e-06
0.509544
2.56065e-06
0.509544
2.19246e-06
0.509545
1.99887e-06
0.509545
2.34897e-06
0.509544
2.47944e-06
0.509545
2.24027e-06
0.509546
1.7441e-06
0.509547
1.37785e-06
0.509548
1.8844e-06
0.509547
2.75534e-06
0.509548
2.64387e-06
0.509549
2.05504e-06
0.509549
2.39591e-06
0.509548
3.13367e-06
0.509547
3.2663e-06
0.509547
2.91186e-06
0.509546
2.50488e-06
0.509545
2.35598e-06
0.509545
2.29619e-06
0.509546
2.00507e-06
0.509547
1.71306e-06
0.509548
1.69599e-06
0.509549
1.72422e-06
0.50955
1.85067e-06
0.50955
2.47671e-06
0.509551
3.16767e-06
0.509551
2.99624e-06
0.50955
2.36163e-06
0.509549
2.23627e-06
0.509548
2.60224e-06
0.509547
2.93643e-06
0.509546
2.91355e-06
0.509546
2.47369e-06
0.509546
1.87346e-06
0.509547
1.46125e-06
0.509548
1.45736e-06
0.509549
1.91988e-06
0.509549
2.58188e-06
0.50955
2.94895e-06
0.50955
2.8009e-06
0.50955
2.43287e-06
0.509549
2.14373e-06
0.509549
2.00303e-06
0.509549
2.21259e-06
0.509549
2.64516e-06
0.50955
2.80103e-06
0.50955
2.60377e-06
0.50955
2.2239e-06
0.509551
1.94361e-06
0.50955
2.12755e-06
0.50955
2.52786e-06
0.509549
2.70481e-06
0.509549
2.68342e-06
0.50955
2.56569e-06
0.50955
2.44183e-06
0.509551
2.32562e-06
0.509552
2.13807e-06
0.509552
2.03606e-06
0.509552
1.99385e-06
0.509552
1.83909e-06
0.509553
1.81681e-06
0.509553
2.02448e-06
0.509553
2.17877e-06
0.509554
2.20911e-06
0.509554
2.22785e-06
0.509555
2.27864e-06
0.509555
2.29088e-06
0.509556
2.16044e-06
0.509556
1.94556e-06
0.509557
1.76576e-06
0.509558
1.61016e-06
0.509558
1.52312e-06
0.509559
1.73502e-06
0.50956
2.19779e-06
0.50956
2.48632e-06
0.509561
2.54184e-06
0.509561
2.55756e-06
0.509562
2.38351e-06
0.509563
2.05926e-06
0.509563
1.89906e-06
0.509562
1.9504e-06
0.509562
2.20891e-06
0.509562
2.57366e-06
0.509561
2.69752e-06
0.509562
2.50057e-06
0.509562
2.15114e-06
0.509563
1.84574e-06
0.509564
1.91122e-06
0.509564
2.29344e-06
0.509563
2.53273e-06
0.509563
2.49347e-06
0.509563
2.32771e-06
0.509564
2.16761e-06
0.509565
2.15634e-06
0.509566
2.2635e-06
0.509567
2.33585e-06
0.509567
2.41556e-06
0.509566
2.52761e-06
0.509566
2.5304e-06
0.509567
2.37331e-06
0.509567
2.09869e-06
0.509567
1.76301e-06
0.509568
1.57119e-06
0.509569
1.68588e-06
0.509569
1.99016e-06
0.509569
2.286e-06
0.509569
2.45575e-06
0.50957
2.48205e-06
0.50957
2.4283e-06
0.50957
2.28858e-06
0.509571
2.07733e-06
0.509571
2.02793e-06
0.509571
2.24648e-06
0.509572
2.47148e-06
0.509572
2.51974e-06
0.509571
2.41842e-06
0.509572
2.22895e-06
0.509572
2.17975e-06
0.509572
2.36499e-06
0.509572
2.48875e-06
0.509571
2.44119e-06
0.509571
2.40051e-06
0.50957
2.44634e-06
0.50957
2.58311e-06
0.50957
2.67798e-06
0.509571
2.58109e-06
0.509571
2.42662e-06
0.509571
2.37812e-06
0.509571
2.4078e-06
0.509571
2.43222e-06
0.509571
2.34998e-06
0.509571
2.2227e-06
0.509571
2.23113e-06
0.509571
2.33516e-06
0.509571
2.37085e-06
0.509571
2.34958e-06
0.509571
2.35289e-06
0.509572
2.34074e-06
0.509572
2.31496e-06
0.509573
2.34944e-06
0.509573
2.31999e-06
0.509573
2.15488e-06
0.509574
2.07127e-06
0.509574
2.13608e-06
0.509574
2.17308e-06
0.509574
2.12956e-06
0.509574
2.10146e-06
0.509575
2.21814e-06
0.509575
2.43757e-06
0.509575
2.51341e-06
0.509575
2.4235e-06
0.509575
2.36178e-06
0.509576
2.33772e-06
0.509576
2.29777e-06
0.509577
2.25526e-06
0.509577
2.23253e-06
0.509577
2.24122e-06
0.509577
2.20087e-06
0.509577
2.08451e-06
0.509578
2.01477e-06
0.509578
1.99629e-06
0.509578
1.98976e-06
0.509579
2.12034e-06
0.50958
2.38239e-06
0.50958
2.50994e-06
0.50958
2.38791e-06
0.509581
2.22411e-06
0.509581
2.22356e-06
0.509581
2.33175e-06
0.509581
2.38104e-06
0.509581
2.34879e-06
0.509581
2.34671e-06
0.509581
2.40796e-06
0.509581
2.40979e-06
0.509581
2.30938e-06
0.509581
2.23983e-06
0.509582
2.27108e-06
0.509582
2.35685e-06
0.509583
2.46692e-06
0.509583
2.55371e-06
0.509583
2.55728e-06
0.509583
2.4875e-06
0.509584
2.39762e-06
0.509584
2.35349e-06
0.509584
2.33516e-06
0.509584
2.23837e-06
0.509584
2.10803e-06
0.509584
2.08745e-06
0.509585
2.16809e-06
0.509585
2.2485e-06
0.509585
2.26206e-06
0.509586
2.23257e-06
0.509586
2.27327e-06
0.509586
2.35828e-06
0.509586
2.31212e-06
0.509587
2.1528e-06
0.509587
2.07287e-06
0.509588
2.09956e-06
0.509588
2.10363e-06
0.509589
2.05152e-06
0.509589
2.01074e-06
0.509589
2.00537e-06
0.50959
2.02187e-06
0.50959
2.08661e-06
0.509591
2.17764e-06
0.509591
2.19976e-06
0.509592
2.15471e-06
0.509592
2.16488e-06
0.509592
2.23475e-06
0.509592
2.20542e-06
0.509593
2.04884e-06
0.509593
1.9694e-06
0.509594
2.06903e-06
0.509594
2.18999e-06
0.509595
2.177e-06
0.509595
2.06831e-06
0.509596
1.9944e-06
0.509597
2.01538e-06
0.509597
2.0957e-06
0.509598
2.18687e-06
0.509598
2.24879e-06
0.509599
2.25587e-06
0.509599
2.24125e-06
0.509599
2.21799e-06
0.5096
2.14232e-06
0.5096
2.0645e-06
0.509601
2.10643e-06
0.509601
2.25007e-06
0.509601
2.34435e-06
0.509601
2.30674e-06
0.509601
2.23072e-06
0.509601
2.24392e-06
2.3061e-06
0.509538
2.44844e-07
0.509538
1.4982e-06
0.509538
1.69145e-06
0.509539
1.21329e-06
0.509538
1.77741e-06
0.509538
1.67296e-06
0.509538
1.4234e-06
0.509538
2.12736e-06
0.509538
2.56539e-06
0.509538
2.15956e-06
0.509537
2.15807e-06
0.509536
2.48028e-06
0.509537
1.90309e-06
0.509538
1.33667e-06
0.509538
1.83862e-06
0.509537
2.25473e-06
0.509537
1.77409e-06
0.509539
1.38136e-06
0.509539
1.65953e-06
0.509539
2.0301e-06
0.50954
1.92194e-06
0.509541
1.56177e-06
0.509541
1.71655e-06
0.50954
2.78923e-06
0.509538
3.26138e-06
0.509538
2.11594e-06
0.50954
1.0865e-06
0.509541
1.25663e-06
0.509541
1.84118e-06
0.509541
2.13152e-06
0.509543
1.73039e-06
0.509545
1.09101e-06
0.509547
1.24486e-06
0.509547
2.21627e-06
0.509546
3.11506e-06
0.509545
3.29717e-06
0.509544
2.69575e-06
0.509544
1.80332e-06
0.509545
1.49213e-06
0.509544
1.85671e-06
0.509544
2.00632e-06
0.509545
1.75583e-06
0.509546
1.7151e-06
0.509548
1.74219e-06
0.509548
1.71923e-06
0.509549
2.02359e-06
0.509549
2.43725e-06
0.509549
2.47487e-06
0.50955
2.22766e-06
0.50955
1.97238e-06
0.50955
1.89992e-06
0.50955
2.07319e-06
0.509549
2.28773e-06
0.509549
2.33452e-06
0.509549
2.16812e-06
0.50955
1.79772e-06
0.509551
1.40649e-06
0.509552
1.43964e-06
0.509553
1.96404e-06
0.509552
2.39187e-06
0.509552
2.40174e-06
0.509553
2.21087e-06
0.509553
1.91908e-06
0.509554
1.71945e-06
0.509555
1.72687e-06
0.509555
1.69972e-06
0.509555
1.69779e-06
0.509556
1.87221e-06
0.509557
2.05833e-06
0.509557
2.18923e-06
0.509558
2.2294e-06
0.509558
2.15971e-06
0.509558
2.05578e-06
0.509558
1.86276e-06
0.509559
1.71393e-06
0.509559
1.73086e-06
0.509559
1.68471e-06
0.509559
1.64787e-06
0.509559
1.90569e-06
0.509559
2.33257e-06
0.509559
2.67441e-06
0.509558
2.78957e-06
0.509558
2.6796e-06
0.509558
2.44625e-06
0.509558
2.14638e-06
0.509558
1.90266e-06
0.509558
1.86588e-06
0.509557
1.95486e-06
0.509557
1.97344e-06
0.509557
2.02089e-06
0.509556
2.30726e-06
0.509556
2.55967e-06
0.509556
2.45391e-06
0.509557
2.14859e-06
0.509558
1.74094e-06
0.509558
1.27398e-06
0.509559
1.04464e-06
0.50956
1.11908e-06
0.509561
1.41849e-06
0.509561
1.89734e-06
0.509562
2.23927e-06
0.509562
2.22253e-06
0.509562
1.93301e-06
0.509563
1.4969e-06
0.509563
1.27272e-06
0.509564
1.58452e-06
0.509564
2.18692e-06
0.509564
2.67167e-06
0.509564
2.83521e-06
0.509563
2.62948e-06
0.509563
2.27423e-06
0.509563
2.03531e-06
0.509564
1.92822e-06
0.509564
1.92816e-06
0.509565
2.05873e-06
0.509565
2.20752e-06
0.509565
2.26788e-06
0.509565
2.24454e-06
0.509565
2.11683e-06
0.509564
1.9501e-06
0.509564
1.91921e-06
0.509564
2.04739e-06
0.509564
2.2293e-06
0.509564
2.36641e-06
0.509564
2.40166e-06
0.509564
2.4012e-06
0.509564
2.39092e-06
0.509564
2.23028e-06
0.509564
1.96194e-06
0.509565
1.84246e-06
0.509565
1.89316e-06
0.509566
1.97375e-06
0.509566
1.99913e-06
0.509566
1.83324e-06
0.509567
1.55333e-06
0.509568
1.48072e-06
0.509569
1.6252e-06
0.50957
1.787e-06
0.50957
1.92694e-06
0.50957
2.03592e-06
0.509571
2.15554e-06
0.509571
2.30443e-06
0.509571
2.32241e-06
0.509572
2.16272e-06
0.509572
1.96297e-06
0.509573
1.83704e-06
0.509573
1.8464e-06
0.509574
1.90975e-06
0.509574
1.92435e-06
0.509574
1.98233e-06
0.509574
2.15571e-06
0.509574
2.31915e-06
0.509574
2.38177e-06
0.509574
2.39363e-06
0.509574
2.33096e-06
0.509575
2.14888e-06
0.509575
1.99414e-06
0.509575
1.91534e-06
0.509576
1.75789e-06
0.509576
1.58884e-06
0.509577
1.58958e-06
0.509577
1.71238e-06
0.509578
1.82853e-06
0.509578
1.87657e-06
0.509578
1.92842e-06
0.509578
2.09966e-06
0.509579
2.26288e-06
0.509579
2.23928e-06
0.509579
2.13087e-06
0.509579
2.04492e-06
0.50958
1.97492e-06
0.50958
1.90707e-06
0.50958
1.83857e-06
0.509581
1.84236e-06
0.509581
1.9271e-06
0.509581
1.99485e-06
0.509581
2.06344e-06
0.509581
2.13054e-06
0.509581
2.06726e-06
0.509581
1.94278e-06
0.509582
1.97825e-06
0.509582
2.13467e-06
0.509582
2.17755e-06
0.509582
2.0373e-06
0.509583
1.86244e-06
0.509583
1.78268e-06
0.509584
1.76631e-06
0.509584
1.72958e-06
0.509585
1.69961e-06
0.509586
1.78152e-06
0.509586
1.94355e-06
0.509586
2.03759e-06
0.509587
2.04394e-06
0.509587
2.02996e-06
0.509587
2.00467e-06
0.509588
1.98873e-06
0.509588
2.01264e-06
0.509589
2.05104e-06
0.509589
2.07017e-06
0.50959
2.05066e-06
0.50959
2.03892e-06
0.50959
2.0941e-06
0.50959
2.13152e-06
0.50959
2.0718e-06
0.50959
2.00763e-06
0.50959
2.03319e-06
0.509591
2.14187e-06
0.509591
2.25364e-06
0.509591
2.27439e-06
0.509591
2.26296e-06
0.509591
2.32612e-06
0.509591
2.3601e-06
0.50959
2.24252e-06
0.50959
2.09079e-06
0.50959
2.06252e-06
0.50959
2.12158e-06
0.50959
2.16939e-06
0.50959
2.18682e-06
0.50959
2.17975e-06
0.50959
2.13264e-06
0.50959
2.09976e-06
0.50959
2.15438e-06
0.50959
2.23037e-06
0.50959
2.21841e-06
0.50959
2.17895e-06
0.50959
2.2478e-06
0.50959
2.35924e-06
0.509589
2.32634e-06
0.509589
2.17572e-06
0.509589
2.11312e-06
0.509589
2.20471e-06
0.509589
2.32786e-06
0.509589
2.37031e-06
0.509588
2.33433e-06
0.509588
2.27328e-06
0.509588
2.21234e-06
0.509588
2.1677e-06
0.509588
2.1501e-06
0.509588
2.1314e-06
0.509588
2.11439e-06
0.509588
2.13496e-06
0.509588
2.13537e-06
0.509588
2.03716e-06
0.509589
1.90024e-06
0.509589
1.83987e-06
0.509589
1.87616e-06
0.50959
1.92105e-06
0.50959
1.89746e-06
0.509591
1.82059e-06
1.8353e-06
0.509539
-2.64783e-08
0.50954
2.82752e-07
0.50954
1.11719e-06
0.50954
1.87739e-06
0.50954
1.23236e-06
0.509541
1.11156e-06
0.509541
1.05401e-06
0.509543
6.78478e-07
0.509544
1.61588e-06
0.509543
2.58713e-06
0.509544
1.48488e-06
0.509546
5.89736e-07
0.509546
1.80271e-06
0.509544
2.9388e-06
0.509543
2.64388e-06
0.509544
1.74003e-06
0.509544
1.75879e-06
0.509543
2.47483e-06
0.509542
2.42328e-06
0.509542
1.81841e-06
0.509543
1.47546e-06
0.509543
1.62911e-06
0.509542
1.92697e-06
0.509543
2.01515e-06
0.509545
1.7082e-06
0.509546
1.00712e-06
0.509546
8.38545e-07
0.509546
1.70231e-06
0.509545
2.42552e-06
0.509545
2.1571e-06
0.509545
1.49249e-06
0.509545
1.20921e-06
0.509545
1.47393e-06
0.509545
2.04746e-06
0.509546
2.27092e-06
0.509547
1.79124e-06
0.509549
1.17813e-06
0.50955
1.1312e-06
0.509549
1.76442e-06
0.509549
2.63827e-06
0.509548
2.70612e-06
0.509548
1.65633e-06
0.509549
8.4101e-07
0.50955
1.10631e-06
0.509549
1.81616e-06
0.509549
2.42195e-06
0.509549
2.68981e-06
0.509549
2.35737e-06
0.509549
1.71e-06
0.50955
1.2711e-06
0.509551
1.15887e-06
0.509552
1.3879e-06
0.509552
1.83099e-06
0.509552
2.11308e-06
0.509552
2.03369e-06
0.509552
1.6739e-06
0.509553
1.1599e-06
0.509553
8.68738e-07
0.509554
1.21545e-06
0.509555
1.85187e-06
0.509555
2.21328e-06
0.509555
2.28336e-06
0.509554
2.15515e-06
0.509554
1.94076e-06
0.509554
1.8846e-06
0.509554
1.88787e-06
0.509554
1.86491e-06
0.509554
1.94518e-06
0.509554
2.06731e-06
0.509554
2.14848e-06
0.509554
2.13311e-06
0.509554
2.01469e-06
0.509554
1.89457e-06
0.509554
1.70076e-06
0.509554
1.46621e-06
0.509555
1.45641e-06
0.509555
1.5665e-06
0.509555
1.60438e-06
0.509555
1.69888e-06
0.509556
1.87953e-06
0.509556
2.02828e-06
0.509557
2.0539e-06
0.509558
1.96349e-06
0.509558
1.87767e-06
0.509559
1.7719e-06
0.509559
1.5536e-06
0.509559
1.38415e-06
0.50956
1.47658e-06
0.50956
1.72521e-06
0.50956
1.96691e-06
0.50956
2.31078e-06
0.50956
2.62717e-06
0.50956
2.50907e-06
0.50956
2.03769e-06
0.50956
1.54214e-06
0.50956
1.20092e-06
0.50956
1.25782e-06
0.50956
1.65097e-06
0.509559
1.99934e-06
0.509559
2.1639e-06
0.509559
2.07989e-06
0.50956
1.77275e-06
0.50956
1.51433e-06
0.50956
1.37238e-06
0.50956
1.33728e-06
0.50956
1.56896e-06
0.50956
1.9667e-06
0.509561
2.24879e-06
0.509561
2.32037e-06
0.509562
2.15208e-06
0.509562
1.86376e-06
0.509562
1.72951e-06
0.509563
1.77239e-06
0.509563
1.82004e-06
0.509563
1.79468e-06
0.509563
1.65507e-06
0.509564
1.42654e-06
0.509565
1.2689e-06
0.509566
1.25013e-06
0.509567
1.32041e-06
0.509567
1.49773e-06
0.509567
1.76575e-06
0.509568
2.01331e-06
0.509568
2.13028e-06
0.509568
2.03418e-06
0.509569
1.82892e-06
0.509569
1.76991e-06
0.50957
1.84294e-06
0.50957
1.85288e-06
0.50957
1.82863e-06
0.50957
1.82203e-06
0.50957
1.80787e-06
0.50957
1.86898e-06
0.50957
1.91326e-06
0.50957
1.75363e-06
0.50957
1.56077e-06
0.50957
1.535e-06
0.50957
1.63081e-06
0.50957
1.78485e-06
0.509571
1.88662e-06
0.509571
1.89455e-06
0.509571
1.91673e-06
0.509572
1.93158e-06
0.509572
1.85682e-06
0.509572
1.70821e-06
0.509572
1.52967e-06
0.509573
1.42708e-06
0.509573
1.44583e-06
0.509574
1.46828e-06
0.509574
1.46137e-06
0.509575
1.52362e-06
0.509576
1.64568e-06
0.509576
1.72668e-06
0.509577
1.78864e-06
0.509577
1.86483e-06
0.509578
1.84907e-06
0.509578
1.77964e-06
0.509578
1.78977e-06
0.509578
1.75953e-06
0.509578
1.60933e-06
0.509578
1.51035e-06
0.509578
1.57531e-06
0.509578
1.77336e-06
0.509578
1.94794e-06
0.509578
1.97989e-06
0.509578
2.0177e-06
0.509578
2.1661e-06
0.509578
2.27568e-06
0.509578
2.27616e-06
0.509578
2.20472e-06
0.509578
2.08064e-06
0.509578
1.93453e-06
0.509578
1.75619e-06
0.509578
1.59137e-06
0.509579
1.5196e-06
0.509579
1.50179e-06
0.50958
1.55632e-06
0.50958
1.75148e-06
0.50958
1.92616e-06
0.50958
1.89968e-06
0.50958
1.79129e-06
0.509581
1.79675e-06
0.509581
1.88646e-06
0.509581
1.91069e-06
0.509581
1.84544e-06
0.509581
1.79727e-06
0.509581
1.83089e-06
0.509581
1.88271e-06
0.509581
1.87204e-06
0.509581
1.85914e-06
0.509581
1.93249e-06
0.509581
2.03417e-06
0.509581
2.1007e-06
0.50958
2.14848e-06
0.50958
2.16095e-06
0.50958
2.1299e-06
0.50958
2.09141e-06
0.50958
2.05002e-06
0.50958
1.99287e-06
0.50958
1.87578e-06
0.509581
1.69372e-06
0.509581
1.56874e-06
0.509582
1.54862e-06
0.509582
1.5332e-06
0.509583
1.48651e-06
0.509583
1.46099e-06
0.509584
1.51224e-06
0.509585
1.63231e-06
0.509585
1.68456e-06
0.509586
1.61023e-06
0.509587
1.57521e-06
0.509587
1.66498e-06
0.509588
1.73355e-06
0.509588
1.68139e-06
0.509589
1.58804e-06
0.509589
1.54044e-06
0.50959
1.54748e-06
0.50959
1.61509e-06
0.509591
1.73664e-06
0.509591
1.82232e-06
0.509592
1.80711e-06
0.509592
1.77719e-06
0.509592
1.81073e-06
0.509593
1.81601e-06
0.509593
1.70845e-06
0.509594
1.61383e-06
0.509595
1.66733e-06
0.509595
1.76139e-06
0.509596
1.72659e-06
0.509596
1.59595e-06
0.509597
1.51782e-06
0.509598
1.55557e-06
0.509598
1.65524e-06
0.509599
1.74443e-06
0.509599
1.8036e-06
0.5096
1.82792e-06
0.5096
1.82557e-06
0.5096
1.82993e-06
0.509601
1.82218e-06
0.509601
1.77486e-06
0.509601
1.75075e-06
0.509602
1.78528e-06
0.509602
1.80821e-06
0.509602
1.7697e-06
0.509602
1.71098e-06
0.509602
1.69337e-06
0.509603
1.73409e-06
0.509603
1.76988e-06
0.509603
1.7865e-06
1.77541e-06
0.509534
4.00409e-08
0.509535
-1.19884e-07
0.509535
4.31594e-07
0.509536
1.28976e-06
0.509536
1.21592e-06
0.509536
7.01503e-07
0.509536
1.13049e-06
0.509535
1.83654e-06
0.509536
1.04802e-06
0.509538
7.22857e-07
0.509537
2.10115e-06
0.509535
2.64727e-06
0.509535
1.82876e-06
0.509537
5.42403e-07
0.50954
1.84739e-07
0.50954
1.29482e-06
0.50954
2.07027e-06
0.509541
1.87169e-06
0.509542
8.29693e-07
0.509544
1.66157e-07
0.509544
1.12187e-06
0.509544
2.21872e-06
0.509544
1.76504e-06
0.509545
7.1977e-07
0.509546
9.34873e-07
0.509545
2.1379e-06
0.509543
2.93901e-06
0.509542
2.75806e-06
0.509542
1.82587e-06
0.509543
9.0247e-07
0.509544
7.50718e-07
0.509544
1.28497e-06
0.509544
1.74336e-06
0.509544
1.73184e-06
0.509545
1.40375e-06
0.509546
1.11947e-06
0.509546
1.15755e-06
0.509545
1.50887e-06
0.509545
1.83875e-06
0.509546
2.04282e-06
0.509546
2.032e-06
0.509547
1.5427e-06
0.509546
1.11318e-06
0.509546
1.4562e-06
0.509546
2.08078e-06
0.509546
2.25427e-06
0.509547
2.03648e-06
0.509547
1.62437e-06
0.509548
1.14736e-06
0.509548
9.66988e-07
0.509548
1.25366e-06
0.509548
1.7628e-06
0.509547
2.09753e-06
0.509548
1.94807e-06
0.509548
1.44632e-06
0.509549
1.13753e-06
0.509549
1.23859e-06
0.509548
1.50848e-06
0.509547
1.82846e-06
0.509547
2.06427e-06
0.509547
1.95166e-06
0.509548
1.63926e-06
0.509549
1.41412e-06
0.509549
1.33058e-06
0.50955
1.37545e-06
0.50955
1.41045e-06
0.509551
1.32055e-06
0.509552
1.29642e-06
0.509552
1.3646e-06
0.509553
1.48953e-06
0.509553
1.62967e-06
0.509554
1.69171e-06
0.509554
1.76284e-06
0.509554
1.73425e-06
0.509554
1.44647e-06
0.509554
1.21894e-06
0.509554
1.27571e-06
0.509555
1.45625e-06
0.509555
1.68766e-06
0.509555
1.90944e-06
0.509555
1.99285e-06
0.509555
1.87489e-06
0.509555
1.54427e-06
0.509556
1.18335e-06
0.509557
9.74203e-07
0.509557
8.31806e-07
0.509558
7.52651e-07
0.509559
9.61704e-07
0.509559
1.42112e-06
0.509559
1.74538e-06
0.50956
1.84562e-06
0.50956
1.86474e-06
0.509561
1.68193e-06
0.509562
1.35882e-06
0.509562
1.18795e-06
0.509562
1.19671e-06
0.509562
1.40047e-06
0.509562
1.80643e-06
0.509562
2.09275e-06
0.509562
2.10184e-06
0.509562
1.88151e-06
0.509562
1.49768e-06
0.509563
1.25167e-06
0.509563
1.27218e-06
0.509563
1.36008e-06
0.509563
1.49233e-06
0.509563
1.67778e-06
0.509563
1.80844e-06
0.509564
1.8836e-06
0.509564
1.87823e-06
0.509564
1.75066e-06
0.509564
1.63698e-06
0.509564
1.6254e-06
0.509565
1.62797e-06
0.509565
1.59492e-06
0.509565
1.49654e-06
0.509565
1.29025e-06
0.509565
1.10404e-06
0.509566
1.09516e-06
0.509566
1.19891e-06
0.509566
1.31607e-06
0.509566
1.42343e-06
0.509567
1.51226e-06
0.509567
1.6159e-06
0.509568
1.66925e-06
0.509568
1.56544e-06
0.509568
1.46336e-06
0.509568
1.51619e-06
0.509569
1.59141e-06
0.509569
1.62475e-06
0.509569
1.62235e-06
0.509569
1.49777e-06
0.50957
1.3721e-06
0.50957
1.38951e-06
0.509571
1.40363e-06
0.509571
1.37945e-06
0.509571
1.44235e-06
0.509571
1.58276e-06
0.509571
1.77368e-06
0.509571
1.92936e-06
0.509571
1.92598e-06
0.509571
1.83784e-06
0.509571
1.78044e-06
0.509571
1.76636e-06
0.509571
1.7664e-06
0.509571
1.70358e-06
0.509571
1.60292e-06
0.509571
1.60445e-06
0.509571
1.68284e-06
0.50957
1.72581e-06
0.50957
1.76828e-06
0.50957
1.85972e-06