/*--------------------------------*- C++ -*----------------------------------*\
| =========                 |                                                 |
| \\      /  F ield         | OpenFOAM: The Open Source CFD Toolbox           |
|  \\    /   O peration     | Version:  2406                                  |
|   \\  /    A nd           | Website:  www.openfoam.com                      |
|    \\/     M anipulation  |                                                 |
\*---------------------------------------------------------------------------*/
FoamFile
{
    version     2.0;
    format      ascii;
    arch        "LSB;label=32;scalar=64";
    class       volVectorField;
    location    "1.15";
    object      U;
}
// * * * * * * * * * * * * * * * * * * * * * * * * * * * * * * * * * * * * * //

dimensions      [0 1 -1 0 0 0 0];

internalField   nonuniform List<vector> 
6250
(
(50.4461 0.000121935 0)
(85.2277 0.000675221 0)
(73.0487 0.00101459 0)
(60.438 0.00096491 0)
(59.7086 0.000801794 0)
(63.1628 0.000696955 0)
(64.6659 0.000708566 0)
(64.2133 0.000735172 0)
(63.5979 0.000735762 0)
(63.4962 0.00073874 0)
(63.6388 0.000810348 0)
(63.7226 0.00086984 0)
(63.7117 0.000858013 0)
(63.6823 0.00084657 0)
(63.6734 0.000855855 0)
(63.6781 0.000843674 0)
(63.682 0.000800697 0)
(63.6814 0.000791634 0)
(63.6795 0.000856121 0)
(63.6783 0.000932785 0)
(63.6777 0.000967756 0)
(63.6772 0.000922297 0)
(63.6766 0.000802436 0)
(63.6761 0.000704534 0)
(63.6754 0.000696713 0)
(63.6748 0.000754327 0)
(63.6741 0.000796379 0)
(63.6733 0.000804062 0)
(63.6728 0.000863258 0)
(63.672 0.000981839 0)
(63.6711 0.00106571 0)
(63.6704 0.00107817 0)
(63.6698 0.00106217 0)
(63.6691 0.00104824 0)
(63.6685 0.00101601 0)
(63.6679 0.00095968 0)
(63.6672 0.000906352 0)
(63.6665 0.000866137 0)
(63.6657 0.000842594 0)
(63.665 0.000846566 0)
(63.6643 0.000860186 0)
(63.6636 0.000836053 0)
(63.663 0.000770793 0)
(63.6625 0.000743373 0)
(63.662 0.000797776 0)
(63.6614 0.000865547 0)
(63.6607 0.000906351 0)
(63.6601 0.000961638 0)
(63.6594 0.00102868 0)
(63.6585 0.00105023 0)
(63.6578 0.00101345 0)
(63.657 0.0009586 0)
(63.6563 0.000919292 0)
(63.6556 0.000907342 0)
(63.6549 0.000921353 0)
(63.6542 0.000945295 0)
(63.6535 0.000959739 0)
(63.6529 0.000951182 0)
(63.6522 0.000927241 0)
(63.6517 0.000925636 0)
(63.651 0.000953638 0)
(63.6503 0.000972106 0)
(63.6495 0.000972866 0)
(63.6489 0.000975619 0)
(63.6482 0.000980744 0)
(63.6475 0.000986198 0)
(63.6469 0.000989224 0)
(63.6462 0.00098407 0)
(63.6456 0.000974025 0)
(63.645 0.000954937 0)
(63.6443 0.000924336 0)
(63.6436 0.000892062 0)
(63.6429 0.000864218 0)
(63.6423 0.00085533 0)
(63.6416 0.000878635 0)
(63.6409 0.000926268 0)
(63.6402 0.000982295 0)
(63.6395 0.0010063 0)
(63.6388 0.000959395 0)
(63.6382 0.000871679 0)
(63.6376 0.000807386 0)
(63.637 0.000797383 0)
(63.6363 0.000831729 0)
(63.6356 0.000880319 0)
(63.6348 0.000919089 0)
(63.6341 0.000940983 0)
(63.6333 0.000944642 0)
(63.6326 0.000934017 0)
(63.632 0.000920282 0)
(63.6314 0.000905396 0)
(63.6307 0.000881171 0)
(63.6301 0.000856744 0)
(63.6295 0.000845321 0)
(63.6288 0.000834997 0)
(63.6282 0.000828316 0)
(63.6276 0.000853943 0)
(63.627 0.000914953 0)
(63.6263 0.000991868 0)
(63.6256 0.00105775 0)
(63.6248 0.00107427 0)
(63.6241 0.00103119 0)
(63.6234 0.000953963 0)
(63.6228 0.00087059 0)
(63.6222 0.000813515 0)
(63.6217 0.000808009 0)
(63.621 0.000852924 0)
(63.6203 0.000933206 0)
(63.6196 0.00100961 0)
(63.6188 0.00102567 0)
(63.618 0.000970811 0)
(63.6173 0.000894202 0)
(63.6167 0.000855511 0)
(63.616 0.000884495 0)
(63.6154 0.000960674 0)
(63.6146 0.00103132 0)
(63.6139 0.0010595 0)
(63.6131 0.0010412 0)
(63.6124 0.000990999 0)
(63.6118 0.000933232 0)
(63.6112 0.00088983 0)
(63.6105 0.000870967 0)
(63.6098 0.000883774 0)
(63.6091 0.000927753 0)
(63.6083 0.000982178 0)
(63.6076 0.00102174 0)
(63.6068 0.00103434 0)
(63.6061 0.00102004 0)
(63.6054 0.000988357 0)
(63.6047 0.000946854 0)
(63.6041 0.000900274 0)
(63.6035 0.000872785 0)
(63.6029 0.000893341 0)
(63.6022 0.000953844 0)
(63.6015 0.00102065 0)
(63.6007 0.00106887 0)
(63.6 0.00109466 0)
(63.5993 0.00112203 0)
(63.5986 0.00116965 0)
(63.5978 0.00120985 0)
(63.5971 0.00120485 0)
(63.5963 0.00115119 0)
(63.5956 0.00107398 0)
(63.5949 0.00100878 0)
(63.5943 0.000970745 0)
(63.5936 0.000949585 0)
(63.593 0.00094536 0)
(63.5923 0.00097155 0)
(63.5916 0.00102833 0)
(63.5908 0.00109135 0)
(63.5901 0.00112136 0)
(63.5893 0.00109629 0)
(63.5886 0.00103095 0)
(63.588 0.000953125 0)
(63.5874 0.000882018 0)
(63.5867 0.000833433 0)
(63.5861 0.000818801 0)
(63.5855 0.000831274 0)
(63.5848 0.000857495 0)
(63.5842 0.000894107 0)
(63.5835 0.000931804 0)
(63.5828 0.000957248 0)
(63.5821 0.000974092 0)
(63.5815 0.000984223 0)
(63.5809 0.000974436 0)
(63.5803 0.000940295 0)
(63.5796 0.000899106 0)
(63.579 0.000881975 0)
(63.5784 0.000901504 0)
(63.5777 0.000930335 0)
(63.5771 0.00093788 0)
(63.5764 0.00092297 0)
(63.5758 0.000901718 0)
(63.5752 0.000892166 0)
(63.5745 0.000903642 0)
(63.5739 0.000930959 0)
(63.5732 0.000959708 0)
(63.5726 0.000968655 0)
(63.5719 0.000946683 0)
(63.5713 0.000909134 0)
(63.5706 0.000876207 0)
(63.57 0.000856855 0)
(63.5694 0.000859913 0)
(63.5688 0.000887263 0)
(63.5682 0.00091932 0)
(63.5675 0.000934133 0)
(63.5668 0.000936395 0)
(63.5662 0.000949768 0)
(63.5655 0.000983856 0)
(63.5649 0.00102357 0)
(63.5642 0.00104954 0)
(63.5635 0.00105783 0)
(63.5628 0.00105369 0)
(63.5621 0.00103343 0)
(63.5614 0.000992267 0)
(63.5608 0.000943974 0)
(63.5602 0.000911063 0)
(63.5595 0.000906705 0)
(63.5588 0.000930635 0)
(63.5581 0.000968819 0)
(63.5574 0.00100264 0)
(63.5567 0.00102009 0)
(63.556 0.00101825 0)
(63.5553 0.00100582 0)
(63.5546 0.000994533 0)
(63.5539 0.00098477 0)
(63.5531 0.000973892 0)
(63.5524 0.000966432 0)
(63.5517 0.000967627 0)
(63.551 0.000977757 0)
(63.5502 0.000990087 0)
(63.5494 0.000998514 0)
(63.5487 0.00100796 0)
(63.5479 0.00101807 0)
(63.5472 0.00101174 0)
(63.5464 0.000985399 0)
(63.5457 0.000965377 0)
(63.545 0.00097417 0)
(63.5443 0.00100106 0)
(63.5435 0.00101987 0)
(63.5428 0.00101718 0)
(63.5421 0.000994821 0)
(63.5413 0.000963502 0)
(63.5406 0.000941173 0)
(63.54 0.000940221 0)
(63.5392 0.000952205 0)
(63.5385 0.000959724 0)
(63.5378 0.000960455 0)
(63.5371 0.000960865 0)
(63.5363 0.000952605 0)
(63.5356 0.000922854 0)
(63.535 0.00088298 0)
(63.5343 0.000857356 0)
(63.5337 0.000849781 0)
(63.5331 0.000843306 0)
(63.5324 0.000827872 0)
(63.5318 0.000813053 0)
(63.5311 0.000813319 0)
(63.5305 0.00083106 0)
(63.5298 0.000857921 0)
(63.5292 0.00088291 0)
(63.5286 0.000898284 0)
(63.5279 0.000904459 0)
(63.5273 0.000904528 0)
(63.5267 0.000898772 0)
(63.526 0.000894481 0)
(63.5254 0.00090544 0)
(63.5248 0.000937013 0)
(63.5242 0.000964044 0)
(63.5236 0.00100272 0)
(63.5227 0.000976603 0)
(50.4458 0.000106692 0)
(85.2284 0.000505002 0)
(73.0525 0.000696281 0)
(60.4431 0.00060373 0)
(59.7149 0.000499784 0)
(63.1696 0.00050124 0)
(64.6735 0.000585358 0)
(64.222 0.000570029 0)
(63.6076 0.000501142 0)
(63.5067 0.000471469 0)
(63.65 0.00054956 0)
(63.7353 0.000670097 0)
(63.7256 0.000647396 0)
(63.6974 0.000553599 0)
(63.6898 0.000524698 0)
(63.6954 0.000543382 0)
(63.7002 0.000513485 0)
(63.7005 0.000431209 0)
(63.6997 0.000406223 0)
(63.6996 0.000438509 0)
(63.7002 0.000451814 0)
(63.7009 0.000455026 0)
(63.7012 0.000473083 0)
(63.7014 0.000496783 0)
(63.7015 0.000526521 0)
(63.7019 0.00056682 0)
(63.7025 0.000582583 0)
(63.7027 0.000539924 0)
(63.7029 0.000493655 0)
(63.7034 0.000473019 0)
(63.7039 0.000428488 0)
(63.7044 0.000363238 0)
(63.7047 0.000300677 0)
(63.705 0.000250638 0)
(63.7054 0.000238841 0)
(63.7059 0.000305628 0)
(63.7063 0.000455714 0)
(63.7066 0.000596506 0)
(63.7069 0.000632796 0)
(63.7073 0.000589994 0)
(63.7078 0.000551662 0)
(63.7082 0.000521139 0)
(63.7083 0.000430336 0)
(63.7083 0.000305347 0)
(63.7086 0.000252782 0)
(63.7091 0.000267788 0)
(63.7095 0.000293202 0)
(63.71 0.000351733 0)
(63.7105 0.0004467 0)
(63.7109 0.00051254 0)
(63.7114 0.000519227 0)
(63.7119 0.000501821 0)
(63.7124 0.0004972 0)
(63.7127 0.000505577 0)
(63.713 0.000503243 0)
(63.7133 0.00047026 0)
(63.7136 0.000415983 0)
(63.714 0.000361019 0)
(63.7143 0.000314088 0)
(63.7147 0.00031149 0)
(63.7152 0.000376176 0)
(63.7156 0.000444343 0)
(63.7158 0.000458705 0)
(63.7161 0.000424817 0)
(63.7165 0.000359542 0)
(63.7169 0.00030192 0)
(63.7173 0.000280669 0)
(63.7177 0.000280912 0)
(63.718 0.000302937 0)
(63.7184 0.000349733 0)
(63.7187 0.000406318 0)
(63.719 0.000462358 0)
(63.7193 0.000494229 0)
(63.7196 0.000492044 0)
(63.72 0.000469589 0)
(63.7204 0.000430815 0)
(63.7208 0.000404309 0)
(63.7213 0.000410214 0)
(63.7217 0.000412926 0)
(63.7219 0.000403876 0)
(63.7222 0.000418089 0)
(63.7225 0.000466027 0)
(63.7229 0.000523963 0)
(63.7233 0.000556554 0)
(63.7237 0.000547355 0)
(63.7241 0.00050919 0)
(63.7246 0.000459477 0)
(63.7249 0.000414268 0)
(63.7252 0.000395446 0)
(63.7256 0.000408054 0)
(63.7259 0.000422735 0)
(63.7261 0.000426934 0)
(63.7264 0.000441806 0)
(63.7267 0.000449242 0)
(63.7269 0.000419454 0)
(63.7272 0.000378417 0)
(63.7275 0.000348557 0)
(63.7279 0.000333596 0)
(63.7285 0.0003461 0)
(63.729 0.000368217 0)
(63.7294 0.000379615 0)
(63.7297 0.000389574 0)
(63.73 0.000395724 0)
(63.7302 0.000397329 0)
(63.7305 0.000402653 0)
(63.7308 0.000404709 0)
(63.7312 0.0004159 0)
(63.7318 0.000458182 0)
(63.7322 0.000507339 0)
(63.7326 0.000525157 0)
(63.7329 0.000504276 0)
(63.7331 0.000460452 0)
(63.7334 0.000425704 0)
(63.7338 0.000421277 0)
(63.7342 0.000429005 0)
(63.7347 0.000424215 0)
(63.7351 0.000406876 0)
(63.7355 0.000386279 0)
(63.7358 0.00037732 0)
(63.7362 0.000395121 0)
(63.7366 0.000430804 0)
(63.7369 0.000466708 0)
(63.7374 0.000498595 0)
(63.7378 0.000519486 0)
(63.7383 0.000518462 0)
(63.7387 0.000492327 0)
(63.7391 0.000447647 0)
(63.7394 0.000408212 0)
(63.7398 0.000393059 0)
(63.7401 0.000385845 0)
(63.7404 0.000370663 0)
(63.7407 0.000361999 0)
(63.7411 0.000365798 0)
(63.7415 0.000370348 0)
(63.7419 0.000366703 0)
(63.7424 0.000340743 0)
(63.7428 0.000301089 0)
(63.7432 0.000287866 0)
(63.7438 0.000306799 0)
(63.7443 0.000328751 0)
(63.7447 0.00033682 0)
(63.7451 0.000329723 0)
(63.7454 0.000326792 0)
(63.7457 0.000345436 0)
(63.746 0.000368196 0)
(63.7464 0.000377059 0)
(63.7467 0.000377921 0)
(63.7472 0.000383484 0)
(63.7477 0.000399756 0)
(63.7482 0.00041097 0)
(63.7486 0.000398526 0)
(63.749 0.000376751 0)
(63.7493 0.00037241 0)
(63.7497 0.000386993 0)
(63.75 0.000406919 0)
(63.7503 0.000426626 0)
(63.7506 0.00043746 0)
(63.7508 0.000429197 0)
(63.7512 0.000415159 0)
(63.7515 0.00040441 0)
(63.7519 0.00037941 0)
(63.7523 0.000342886 0)
(63.7526 0.000321065 0)
(63.753 0.000320359 0)
(63.7533 0.000327068 0)
(63.7536 0.000325517 0)
(63.7539 0.000321654 0)
(63.7542 0.000339355 0)
(63.7545 0.000372227 0)
(63.7548 0.000391496 0)
(63.7551 0.000390707 0)
(63.7554 0.00037853 0)
(63.7557 0.000363386 0)
(63.756 0.000349993 0)
(63.7564 0.00033879 0)
(63.7568 0.000338521 0)
(63.7572 0.000352108 0)
(63.7576 0.00036724 0)
(63.7579 0.000382806 0)
(63.7582 0.000398385 0)
(63.7585 0.000395304 0)
(63.7587 0.000371226 0)
(63.7589 0.000353357 0)
(63.7593 0.0003565 0)
(63.7596 0.00036315 0)
(63.7599 0.000354527 0)
(63.7603 0.000337417 0)
(63.7606 0.000328209 0)
(63.761 0.000327371 0)
(63.7614 0.00032274 0)
(63.7618 0.000313166 0)
(63.7622 0.000315437 0)
(63.7626 0.000335705 0)
(63.7629 0.000356562 0)
(63.7632 0.000367079 0)
(63.7635 0.000372412 0)
(63.7638 0.000377475 0)
(63.7641 0.000385978 0)
(63.7645 0.000397598 0)
(63.7649 0.00040637 0)
(63.7653 0.00040891 0)
(63.7657 0.000405433 0)
(63.766 0.000405836 0)
(63.7665 0.00042443 0)
(63.7669 0.00045356 0)
(63.7674 0.000472688 0)
(63.7677 0.000477611 0)
(63.7681 0.000477892 0)
(63.7686 0.000483904 0)
(63.769 0.000493895 0)
(63.7695 0.000494085 0)
(63.7699 0.000488069 0)
(63.7703 0.00049382 0)
(63.7708 0.000503637 0)
(63.7712 0.000494351 0)
(63.7716 0.000469789 0)
(63.772 0.000454668 0)
(63.7724 0.000457853 0)
(63.7728 0.000468707 0)
(63.7733 0.000478401 0)
(63.7737 0.00048284 0)
(63.7741 0.000477488 0)
(63.7745 0.000467602 0)
(63.7748 0.000466881 0)
(63.7752 0.000474552 0)
(63.7757 0.000474562 0)
(63.7761 0.000466194 0)
(63.7765 0.000469415 0)
(63.7769 0.000486433 0)
(63.7773 0.000490473 0)
(63.7776 0.000469276 0)
(63.7779 0.000445366 0)
(63.7782 0.000442161 0)
(63.7786 0.000456929 0)
(63.7789 0.000471477 0)
(63.7792 0.00047425 0)
(63.7794 0.000465548 0)
(63.7797 0.000448887 0)
(63.78 0.000428971 0)
(63.7804 0.000410459 0)
(63.7807 0.000392824 0)
(63.781 0.000377517 0)
(63.7813 0.000369396 0)
(63.7816 0.000361258 0)
(63.7819 0.000340266 0)
(63.7822 0.000310338 0)
(63.7825 0.000291456 0)
(63.7829 0.000282825 0)
(63.7832 0.000294103 0)
(63.7837 0.000253441 0)
(50.4459 3.83372e-05 0)
(85.2282 -2.75662e-05 0)
(73.0508 -7.56772e-05 0)
(60.4404 -7.79771e-05 0)
(59.712 -5.0519e-05 0)
(63.1667 4.99568e-05 0)
(64.6706 0.000147539 0)
(64.219 0.000186444 0)
(63.6041 0.000156108 0)
(63.5031 8.32666e-05 0)
(63.6461 1.0807e-05 0)
(63.7309 1.82872e-05 0)
(63.7211 6.0071e-05 0)
(63.6922 0.000108022 0)
(63.684 0.0001396 0)
(63.6896 0.000160369 0)
(63.6945 0.000208932 0)
(63.6945 0.000229296 0)
(63.6931 0.000204254 0)
(63.6927 0.00017327 0)
(63.693 0.000134224 0)
(63.693 0.000125658 0)
(63.6931 0.000157947 0)
(63.6932 0.000148733 0)
(63.6933 8.97229e-05 0)
(63.6934 9.73121e-05 0)
(63.6935 0.000208075 0)
(63.6934 0.000266434 0)
(63.6936 0.000211174 0)
(63.6937 0.000185417 0)
(63.6935 0.000236374 0)
(63.6934 0.000299832 0)
(63.6934 0.000302066 0)
(63.6933 0.000232214 0)
(63.6932 0.000165357 0)
(63.6931 0.000144724 0)
(63.6931 0.000153553 0)
(63.6933 0.000158964 0)
(63.6935 0.000132818 0)
(63.6936 8.92267e-05 0)
(63.6936 0.00010224 0)
(63.6938 0.000223812 0)
(63.6939 0.000346657 0)
(63.6938 0.000327276 0)
(63.6938 0.000222471 0)
(63.6937 0.000161722 0)
(63.6936 0.000152 0)
(63.6934 0.000159336 0)
(63.6932 0.000168793 0)
(63.6932 0.000151651 0)
(63.6933 9.89701e-05 0)
(63.6934 4.94639e-05 0)
(63.6935 5.56629e-05 0)
(63.6935 0.000131193 0)
(63.6936 0.000233677 0)
(63.6937 0.00029825 0)
(63.6937 0.000295154 0)
(63.6937 0.00024914 0)
(63.6937 0.000185798 0)
(63.6936 0.000141328 0)
(63.6936 0.000179222 0)
(63.6936 0.000276703 0)
(63.6937 0.00033766 0)
(63.6938 0.000326454 0)
(63.6938 0.000263612 0)
(63.6938 0.000206294 0)
(63.6938 0.000209563 0)
(63.6938 0.000246838 0)
(63.6937 0.000276074 0)
(63.6936 0.000293409 0)
(63.6937 0.00029603 0)
(63.6937 0.000292765 0)
(63.6938 0.000282877 0)
(63.6939 0.000253199 0)
(63.694 0.000212141 0)
(63.6941 0.000154433 0)
(63.694 9.27567e-05 0)
(63.6941 8.32911e-05 0)
(63.6941 0.000125394 0)
(63.6941 0.000166068 0)
(63.6942 0.000185682 0)
(63.6942 0.000192799 0)
(63.6943 0.000198134 0)
(63.6944 0.000200823 0)
(63.6944 0.000192082 0)
(63.6945 0.000174144 0)
(63.6946 0.000154839 0)
(63.6947 0.000138765 0)
(63.6947 0.000139124 0)
(63.6949 0.00017655 0)
(63.695 0.000236448 0)
(63.695 0.000279373 0)
(63.695 0.000313102 0)
(63.6951 0.0003454 0)
(63.6952 0.000333777 0)
(63.6953 0.000274444 0)
(63.6954 0.000206348 0)
(63.6953 0.000155954 0)
(63.6953 0.000154612 0)
(63.6952 0.000198226 0)
(63.6952 0.000236191 0)
(63.6952 0.000247652 0)
(63.6953 0.000236975 0)
(63.6953 0.000215952 0)
(63.6954 0.000209633 0)
(63.6955 0.000208689 0)
(63.6954 0.000188567 0)
(63.6953 0.000172926 0)
(63.6954 0.000191573 0)
(63.6954 0.000234287 0)
(63.6956 0.000273415 0)
(63.6958 0.000281167 0)
(63.6958 0.000255803 0)
(63.6958 0.000230864 0)
(63.6958 0.000224115 0)
(63.6958 0.000221156 0)
(63.6958 0.000210619 0)
(63.6958 0.000188234 0)
(63.6959 0.000158428 0)
(63.696 0.000144328 0)
(63.6961 0.00015525 0)
(63.6961 0.000172734 0)
(63.6962 0.000183745 0)
(63.6962 0.00018686 0)
(63.6962 0.000181085 0)
(63.6962 0.00016763 0)
(63.6963 0.000149171 0)
(63.6963 0.000142378 0)
(63.6963 0.000176497 0)
(63.6964 0.000242756 0)
(63.6964 0.000289818 0)
(63.6964 0.000293749 0)
(63.6964 0.000272133 0)
(63.6964 0.000250728 0)
(63.6965 0.000253969 0)
(63.6965 0.000268595 0)
(63.6965 0.00025267 0)
(63.6964 0.000216741 0)
(63.6964 0.000205233 0)
(63.6963 0.000230755 0)
(63.6963 0.000278715 0)
(63.6963 0.000316465 0)
(63.6963 0.00032305 0)
(63.6963 0.00031764 0)
(63.6964 0.000313676 0)
(63.6964 0.00029703 0)
(63.6964 0.000254109 0)
(63.6964 0.000190588 0)
(63.6964 0.000139719 0)
(63.6964 0.000129146 0)
(63.6964 0.000145437 0)
(63.6964 0.000166034 0)
(63.6964 0.000192395 0)
(63.6964 0.000226719 0)
(63.6964 0.000254678 0)
(63.6965 0.000269828 0)
(63.6965 0.000276222 0)
(63.6966 0.000264739 0)
(63.6966 0.000239545 0)
(63.6967 0.000226838 0)
(63.6967 0.000223011 0)
(63.6968 0.00021022 0)
(63.6968 0.0002032 0)
(63.6968 0.000225137 0)
(63.6968 0.000276814 0)
(63.6968 0.000327168 0)
(63.6968 0.000339108 0)
(63.6969 0.000323584 0)
(63.6969 0.000313943 0)
(63.6969 0.000312783 0)
(63.697 0.000310795 0)
(63.6971 0.000303793 0)
(63.6971 0.000289396 0)
(63.6972 0.00026782 0)
(63.6972 0.000236186 0)
(63.6972 0.000205128 0)
(63.6972 0.000197884 0)
(63.6972 0.000214558 0)
(63.6972 0.000244413 0)
(63.6973 0.000285643 0)
(63.6975 0.00031908 0)
(63.6975 0.000318022 0)
(63.6975 0.00029259 0)
(63.6975 0.000280285 0)
(63.6976 0.000294419 0)
(63.6976 0.000310243 0)
(63.6977 0.000304988 0)
(63.6977 0.000287047 0)
(63.6977 0.000277477 0)
(63.6976 0.00027827 0)
(63.6976 0.000273787 0)
(63.6976 0.000265469 0)
(63.6976 0.000274878 0)
(63.6977 0.000304911 0)
(63.6978 0.00033726 0)
(63.6978 0.000356339 0)
(63.6979 0.000351171 0)
(63.6979 0.000322408 0)
(63.6979 0.000284926 0)
(63.6979 0.00025158 0)
(63.698 0.000227584 0)
(63.698 0.00020756 0)
(63.698 0.000183531 0)
(63.698 0.000164646 0)
(63.698 0.000161565 0)
(63.6981 0.000166311 0)
(63.6981 0.000167956 0)
(63.6982 0.000163734 0)
(63.6982 0.000160333 0)
(63.6982 0.000166223 0)
(63.6983 0.000168559 0)
(63.6983 0.000151361 0)
(63.6983 0.000134638 0)
(63.6984 0.0001452 0)
(63.6984 0.000168846 0)
(63.6985 0.000172879 0)
(63.6986 0.000153071 0)
(63.6986 0.000131326 0)
(63.6986 0.000123872 0)
(63.6987 0.000133454 0)
(63.6987 0.000156051 0)
(63.6988 0.000177373 0)
(63.6989 0.000181244 0)
(63.6989 0.000171379 0)
(63.699 0.000165078 0)
(63.699 0.000162595 0)
(63.699 0.000148477 0)
(63.699 0.000128636 0)
(63.6991 0.000129879 0)
(63.6992 0.000153891 0)
(63.6993 0.000171615 0)
(63.6993 0.000168558 0)
(63.6994 0.000162045 0)
(63.6994 0.000172844 0)
(63.6995 0.0001995 0)
(63.6996 0.000225193 0)
(63.6997 0.000238989 0)
(63.6998 0.000240453 0)
(63.6998 0.000235295 0)
(63.6999 0.000232524 0)
(63.6999 0.00023358 0)
(63.6999 0.00023543 0)
(63.7 0.000247544 0)
(63.7001 0.000277263 0)
(63.7001 0.000306988 0)
(63.7002 0.000314242 0)
(63.7002 0.000302387 0)
(63.7002 0.000297463 0)
(63.7002 0.000303879 0)
(63.7002 0.000333087 0)
(50.4459 4.32768e-05 0)
(85.2285 0.000188663 0)
(73.0509 0.000337734 0)
(60.4411 0.000366975 0)
(59.7123 0.000335936 0)
(63.1668 0.00029562 0)
(64.6705 0.000263186 0)
(64.2188 0.000332502 0)
(63.6039 0.000414325 0)
(63.5029 0.000397741 0)
(63.6458 0.000375614 0)
(63.7305 0.000416319 0)
(63.7203 0.000434552 0)
(63.6917 0.000391771 0)
(63.6839 0.000321084 0)
(63.6891 0.000261205 0)
(63.6934 0.000262616 0)
(63.6937 0.000294447 0)
(63.6925 0.000328425 0)
(63.692 0.000371951 0)
(63.6922 0.000397304 0)
(63.6925 0.000378967 0)
(63.6927 0.000354297 0)
(63.6927 0.000369408 0)
(63.6923 0.000364604 0)
(63.6921 0.000318323 0)
(63.6923 0.000315207 0)
(63.6926 0.000334906 0)
(63.6926 0.000335887 0)
(63.6926 0.000372686 0)
(63.6927 0.000409512 0)
(63.693 0.000395535 0)
(63.6933 0.000389665 0)
(63.6934 0.000434522 0)
(63.6933 0.00048965 0)
(63.6932 0.000487925 0)
(63.6931 0.000406304 0)
(63.693 0.000304061 0)
(63.6931 0.000265195 0)
(63.6931 0.000290006 0)
(63.693 0.00031754 0)
(63.693 0.000358914 0)
(63.6933 0.000426138 0)
(63.6934 0.000438262 0)
(63.6935 0.000392813 0)
(63.6936 0.000388968 0)
(63.6936 0.000433885 0)
(63.6936 0.000461691 0)
(63.6937 0.000450204 0)
(63.6938 0.000412065 0)
(63.6938 0.000372444 0)
(63.6938 0.000355227 0)
(63.6937 0.000361296 0)
(63.6935 0.000381637 0)
(63.6936 0.000402746 0)
(63.6937 0.00039955 0)
(63.6938 0.000364821 0)
(63.694 0.000343265 0)
(63.6941 0.000361573 0)
(63.6941 0.000379296 0)
(63.694 0.000380865 0)
(63.694 0.00037356 0)
(63.6941 0.000341882 0)
(63.6942 0.000306285 0)
(63.6944 0.000291681 0)
(63.6944 0.000292284 0)
(63.6944 0.00031919 0)
(63.6945 0.000358764 0)
(63.6946 0.000375621 0)
(63.6946 0.000370249 0)
(63.6947 0.000347692 0)
(63.6947 0.000318054 0)
(63.6948 0.00029501 0)
(63.6948 0.000279065 0)
(63.6948 0.000291121 0)
(63.6949 0.000327179 0)
(63.6949 0.000344805 0)
(63.6949 0.000351211 0)
(63.6949 0.000371343 0)
(63.6949 0.000391341 0)
(63.6949 0.00039667 0)
(63.6948 0.000385189 0)
(63.6947 0.000362399 0)
(63.6947 0.000336721 0)
(63.6947 0.000308611 0)
(63.6947 0.000284779 0)
(63.6947 0.000274608 0)
(63.6947 0.000270049 0)
(63.6946 0.000261039 0)
(63.6946 0.000268284 0)
(63.6946 0.000308455 0)
(63.6946 0.000340907 0)
(63.6945 0.000336287 0)
(63.6946 0.000316514 0)
(63.6947 0.000284868 0)
(63.6947 0.000250283 0)
(63.6948 0.000250117 0)
(63.695 0.0002875 0)
(63.695 0.000351021 0)
(63.6952 0.000423569 0)
(63.6952 0.000453581 0)
(63.6953 0.000418707 0)
(63.6953 0.00034427 0)
(63.6953 0.000267512 0)
(63.6954 0.000245947 0)
(63.6955 0.000300999 0)
(63.6955 0.000375941 0)
(63.6956 0.000414427 0)
(63.6955 0.000403447 0)
(63.6954 0.000356518 0)
(63.6954 0.000310524 0)
(63.6954 0.000292004 0)
(63.6954 0.000296065 0)
(63.6955 0.000318268 0)
(63.6956 0.000354117 0)
(63.6956 0.000381309 0)
(63.6957 0.000383911 0)
(63.6957 0.000361333 0)
(63.6956 0.000318273 0)
(63.6956 0.000278883 0)
(63.6955 0.000272981 0)
(63.6955 0.000300282 0)
(63.6955 0.000342162 0)
(63.6955 0.00038319 0)
(63.6955 0.000413401 0)
(63.6955 0.000432099 0)
(63.6956 0.00043196 0)
(63.6955 0.000399091 0)
(63.6955 0.000352474 0)
(63.6955 0.000328703 0)
(63.6956 0.000327726 0)
(63.6957 0.000330696 0)
(63.6957 0.000326971 0)
(63.6958 0.000307221 0)
(63.6958 0.000290816 0)
(63.6959 0.000307014 0)
(63.6961 0.000336594 0)
(63.6962 0.000353431 0)
(63.6962 0.000361659 0)
(63.6963 0.000365379 0)
(63.6963 0.000370648 0)
(63.6964 0.000373893 0)
(63.6964 0.000354399 0)
(63.6964 0.000318579 0)
(63.6965 0.000295755 0)
(63.6965 0.000301953 0)
(63.6966 0.000332741 0)
(63.6967 0.00036491 0)
(63.6967 0.000385534 0)
(63.6968 0.000407024 0)
(63.6968 0.000429042 0)
(63.6968 0.000432434 0)
(63.6968 0.000415265 0)
(63.6968 0.000392219 0)
(63.6968 0.000365549 0)
(63.6968 0.000335486 0)
(63.6968 0.000316763 0)
(63.6969 0.000306169 0)
(63.6969 0.000288421 0)
(63.697 0.0002806 0)
(63.6971 0.000297563 0)
(63.6971 0.000317812 0)
(63.6972 0.00032045 0)
(63.6972 0.000306076 0)
(63.6972 0.000294905 0)
(63.6973 0.000301842 0)
(63.6973 0.000306198 0)
(63.6973 0.000291674 0)
(63.6974 0.000273683 0)
(63.6974 0.000262278 0)
(63.6974 0.000256166 0)
(63.6975 0.00025569 0)
(63.6975 0.000261943 0)
(63.6976 0.000279315 0)
(63.6976 0.000299524 0)
(63.6976 0.000306415 0)
(63.6976 0.000302774 0)
(63.6976 0.000291879 0)
(63.6976 0.000271106 0)
(63.6976 0.000260317 0)
(63.6977 0.000278011 0)
(63.6977 0.000303743 0)
(63.6978 0.000305835 0)
(63.6978 0.000284853 0)
(63.6978 0.000266016 0)
(63.6979 0.000262281 0)
(63.6979 0.000265321 0)
(63.698 0.000267654 0)
(63.6981 0.000276591 0)
(63.6982 0.000299183 0)
(63.6983 0.000320354 0)
(63.6983 0.000319538 0)
(63.6983 0.000301335 0)
(63.6983 0.000281778 0)
(63.6984 0.000269233 0)
(63.6984 0.000270482 0)
(63.6985 0.000284874 0)
(63.6986 0.000302858 0)
(63.6986 0.000318923 0)
(63.6987 0.000332213 0)
(63.6987 0.000346642 0)
(63.6988 0.000362803 0)
(63.6988 0.000367907 0)
(63.6988 0.000358887 0)
(63.6988 0.000352253 0)
(63.6988 0.000358198 0)
(63.6988 0.000372708 0)
(63.6988 0.000384761 0)
(63.6988 0.000388046 0)
(63.6988 0.000394847 0)
(63.6988 0.000410651 0)
(63.6988 0.000412094 0)
(63.6988 0.000387485 0)
(63.6988 0.000361426 0)
(63.6988 0.000355605 0)
(63.6988 0.000362962 0)
(63.6988 0.000369157 0)
(63.6988 0.000371179 0)
(63.6988 0.000368334 0)
(63.6987 0.000359565 0)
(63.6987 0.000354022 0)
(63.6987 0.000360364 0)
(63.6987 0.000369447 0)
(63.6987 0.000370458 0)
(63.6987 0.000373134 0)
(63.6987 0.000388757 0)
(63.6987 0.000401374 0)
(63.6987 0.000390706 0)
(63.6986 0.000370451 0)
(63.6986 0.000367623 0)
(63.6986 0.000380427 0)
(63.6986 0.000385623 0)
(63.6986 0.000371433 0)
(63.6985 0.000346562 0)
(63.6985 0.00032501 0)
(63.6985 0.000313271 0)
(63.6985 0.000312247 0)
(63.6985 0.000317952 0)
(63.6985 0.00032244 0)
(63.6985 0.000323919 0)
(63.6985 0.000322145 0)
(63.6985 0.000308253 0)
(63.6985 0.000281801 0)
(63.6985 0.000261024 0)
(63.6986 0.000258799 0)
(63.6986 0.000267108 0)
(63.6987 0.000269608 0)
(63.6987 0.000261585 0)
(63.6988 0.000254956 0)
(63.6989 0.000249893 0)
(50.446 1.16488e-05 0)
(85.2284 9.97712e-05 0)
(73.0516 0.000152941 0)
(60.4412 0.000153222 0)
(59.7123 0.00013425 0)
(63.1673 0.00013701 0)
(64.6709 0.000149156 0)
(64.2192 0.000166069 0)
(63.6047 0.000230827 0)
(63.5036 0.000255233 0)
(63.6464 0.000164865 0)
(63.7314 9.15118e-05 0)
(63.7217 0.000105315 0)
(63.6926 0.000161647 0)
(63.6843 0.00020453 0)
(63.6898 0.000191666 0)
(63.6944 0.000168443 0)
(63.6944 0.000162446 0)
(63.6929 0.000145183 0)
(63.6924 0.000128446 0)
(63.6927 0.000123325 0)
(63.6929 0.00013448 0)
(63.6928 0.000183743 0)
(63.6928 0.00028516 0)
(63.693 0.000322575 0)
(63.6932 0.000192013 0)
(63.6933 5.3464e-05 0)
(63.6933 6.58661e-05 0)
(63.6931 0.000143568 0)
(63.6931 0.000154392 0)
(63.6932 8.25228e-05 0)
(63.6932 8.92723e-06 0)
(63.6931 2.37729e-05 0)
(63.6931 0.000123992 0)
(63.6931 0.000211649 0)
(63.6933 0.000222234 0)
(63.6936 0.00018154 0)
(63.6937 0.000146388 0)
(63.6937 0.000165723 0)
(63.6936 0.000229002 0)
(63.6935 0.000224803 0)
(63.6934 0.000113715 0)
(63.6936 2.04796e-05 0)
(63.6937 1.48488e-05 0)
(63.6937 5.83093e-05 0)
(63.6937 0.000133572 0)
(63.6936 0.000205233 0)
(63.6936 0.000210479 0)
(63.6936 0.000160701 0)
(63.6937 0.00011603 0)
(63.6938 0.000107251 0)
(63.6939 0.000133668 0)
(63.694 0.000171573 0)
(63.694 0.000187149 0)
(63.694 0.000165634 0)
(63.6941 0.000112672 0)
(63.6941 4.79573e-05 0)
(63.6941 2.82211e-05 0)
(63.6942 9.50332e-05 0)
(63.6943 0.000184283 0)
(63.6943 0.000220642 0)
(63.6943 0.000210801 0)
(63.6943 0.000174921 0)
(63.6943 0.000139488 0)
(63.6943 0.000127857 0)
(63.6943 0.00011979 0)
(63.6942 0.00011501 0)
(63.6942 0.000132947 0)
(63.6942 0.00016309 0)
(63.6942 0.000196809 0)
(63.6942 0.00022112 0)
(63.6942 0.000223372 0)
(63.6943 0.000208165 0)
(63.6943 0.000169429 0)
(63.6943 0.000128189 0)
(63.6944 0.000117552 0)
(63.6944 0.000115748 0)
(63.6943 0.000112105 0)
(63.6944 0.000134661 0)
(63.6944 0.000186143 0)
(63.6945 0.000245872 0)
(63.6946 0.000288671 0)
(63.6947 0.000299315 0)
(63.6948 0.000285264 0)
(63.6948 0.000255899 0)
(63.6948 0.000222742 0)
(63.6949 0.00020754 0)
(63.695 0.000217427 0)
(63.695 0.00023166 0)
(63.695 0.000243198 0)
(63.695 0.00027435 0)
(63.695 0.000304143 0)
(63.695 0.000281554 0)
(63.695 0.000214021 0)
(63.6951 0.000128865 0)
(63.6951 4.60923e-05 0)
(63.6951 5.56326e-06 0)
(63.695 1.20161e-05 0)
(63.6949 3.91068e-05 0)
(63.6949 7.94319e-05 0)
(63.6949 0.000112169 0)
(63.6949 0.000119277 0)
(63.695 0.00011206 0)
(63.695 9.47087e-05 0)
(63.695 8.75818e-05 0)
(63.695 0.000128014 0)
(63.695 0.000202827 0)
(63.695 0.000267214 0)
(63.6951 0.000295555 0)
(63.6952 0.000281264 0)
(63.6952 0.000245377 0)
(63.6953 0.000220943 0)
(63.6953 0.000211267 0)
(63.6953 0.000205318 0)
(63.6953 0.000201807 0)
(63.6954 0.000195766 0)
(63.6955 0.000186521 0)
(63.6956 0.00018454 0)
(63.6957 0.000187425 0)
(63.6958 0.000189894 0)
(63.6959 0.000202163 0)
(63.6959 0.00022447 0)
(63.6959 0.000240915 0)
(63.696 0.000238421 0)
(63.696 0.000212834 0)
(63.696 0.0001809 0)
(63.6962 0.000165484 0)
(63.6962 0.000157713 0)
(63.6962 0.000142572 0)
(63.6962 0.000133957 0)
(63.6963 0.000139608 0)
(63.6962 0.000150242 0)
(63.6963 0.000160304 0)
(63.6963 0.00015037 0)
(63.6963 0.000113722 0)
(63.6962 8.81614e-05 0)
(63.6963 9.40387e-05 0)
(63.6963 0.000115491 0)
(63.6963 0.000140577 0)
(63.6963 0.000158479 0)
(63.6963 0.000171559 0)
(63.6964 0.000193785 0)
(63.6964 0.000212738 0)
(63.6965 0.000209015 0)
(63.6965 0.000184425 0)
(63.6965 0.000153484 0)
(63.6966 0.000135236 0)
(63.6966 0.000130715 0)
(63.6967 0.00012478 0)
(63.6967 0.000121011 0)
(63.6968 0.000132371 0)
(63.6969 0.000151731 0)
(63.697 0.000166328 0)
(63.6971 0.000179262 0)
(63.6972 0.000189679 0)
(63.6972 0.000185738 0)
(63.6972 0.000176596 0)
(63.6973 0.000173255 0)
(63.6972 0.000157397 0)
(63.6972 0.000128083 0)
(63.6972 0.000113757 0)
(63.6973 0.000124475 0)
(63.6973 0.000148882 0)
(63.6973 0.000169062 0)
(63.6973 0.000180003 0)
(63.6973 0.000201426 0)
(63.6973 0.00023467 0)
(63.6973 0.00025724 0)
(63.6973 0.000264578 0)
(63.6973 0.00026184 0)
(63.6972 0.000249891 0)
(63.6972 0.000231015 0)
(63.6972 0.000206934 0)
(63.6972 0.000188478 0)
(63.6973 0.000185413 0)
(63.6973 0.000191039 0)
(63.6974 0.00020567 0)
(63.6975 0.000230583 0)
(63.6975 0.000243994 0)
(63.6975 0.000234637 0)
(63.6975 0.000224068 0)
(63.6976 0.000228044 0)
(63.6976 0.000233042 0)
(63.6976 0.000222726 0)
(63.6976 0.000203287 0)
(63.6976 0.000190705 0)
(63.6976 0.000186894 0)
(63.6976 0.000180061 0)
(63.6976 0.000166368 0)
(63.6976 0.000161185 0)
(63.6976 0.000174702 0)
(63.6976 0.000194451 0)
(63.6976 0.00020941 0)
(63.6976 0.000219273 0)
(63.6975 0.000221398 0)
(63.6975 0.00021822 0)
(63.6975 0.000216455 0)
(63.6975 0.00021498 0)
(63.6975 0.000209247 0)
(63.6975 0.000195052 0)
(63.6975 0.000176275 0)
(63.6976 0.000167102 0)
(63.6977 0.000168546 0)
(63.6978 0.000168835 0)
(63.6978 0.000166624 0)
(63.6979 0.00016762 0)
(63.698 0.000175591 0)
(63.698 0.000186235 0)
(63.6981 0.000184698 0)
(63.6982 0.000172905 0)
(63.6983 0.00017391 0)
(63.6984 0.000188401 0)
(63.6984 0.00019214 0)
(63.6985 0.000179155 0)
(63.6986 0.000166305 0)
(63.6986 0.000163491 0)
(63.6987 0.000167169 0)
(63.6988 0.000175479 0)
(63.6988 0.000187045 0)
(63.6989 0.000192656 0)
(63.6989 0.000188816 0)
(63.699 0.000186488 0)
(63.699 0.000190236 0)
(63.6991 0.000187224 0)
(63.6991 0.000173253 0)
(63.6992 0.000167476 0)