/*--------------------------------*- C++ -*----------------------------------*\
| =========                 |                                                 |
| \\      /  F ield         | OpenFOAM: The Open Source CFD Toolbox           |
|  \\    /   O peration     | Version:  2406                                  |
|   \\  /    A nd           | Website:  www.openfoam.com                      |
|    \\/     M anipulation  |                                                 |
\*---------------------------------------------------------------------------*/
FoamFile
{
    version     2.0;
    format      ascii;
    arch        "LSB;label=32;scalar=64";
    class       surfaceScalarField;
    location    "2.15";
    object      alphaPhi0.air;
}
// * * * * * * * * * * * * * * * * * * * * * * * * * * * * * * * * * * * * * //

dimensions      [0 3 -1 0 0 0 0];

oriented        oriented;

internalField   nonuniform List<scalar> 
12225
(
0.511139
1.6753e-06
0.511133
6.28606e-06
0.511126
7.49407e-06
0.51112
5.39977e-06
0.511116
4.28421e-06
0.511111
4.66711e-06
0.511106
5.48417e-06
0.5111
5.5603e-06
0.511095
5.12222e-06
0.51109
5.0047e-06
0.511085
5.06532e-06
0.51108
4.92995e-06
0.511075
5.06917e-06
0.511069
5.82953e-06
0.511063
6.38054e-06
0.511057
5.90554e-06
0.511052
5.12171e-06
0.511047
4.99499e-06
0.511042
5.20565e-06
0.511036
5.25972e-06
0.511031
5.53331e-06
0.511025
5.78644e-06
0.51102
5.52654e-06
0.511014
5.20505e-06
0.511009
5.12596e-06
0.511004
5.45013e-06
0.510998
5.96857e-06
0.510992
5.9742e-06
0.510986
5.64908e-06
0.510981
5.48724e-06
0.510975
5.35186e-06
0.51097
5.11725e-06
0.510965
5.10544e-06
0.51096
5.4716e-06
0.510954
5.64174e-06
0.510949
5.44475e-06
0.510943
5.3135e-06
0.510938
5.07192e-06
0.510933
4.73466e-06
0.510929
4.70135e-06
0.510924
4.96839e-06
0.510918
5.4743e-06
0.510912
5.97827e-06
0.510906
5.99601e-06
0.510901
5.63913e-06
0.510895
5.27506e-06
0.51089
4.95389e-06
0.510885
5.01579e-06
0.51088
5.55391e-06
0.510874
5.83438e-06
0.510868
5.68322e-06
0.510863
5.65848e-06
0.510857
5.79193e-06
0.510851
5.73047e-06
0.510846
5.5841e-06
0.51084
5.54828e-06
0.510835
5.43024e-06
0.510829
5.37249e-06
0.510824
5.6666e-06
0.510818
5.95196e-06
0.510812
6.01291e-06
0.510806
5.91292e-06
0.5108
5.51743e-06
0.510795
5.11918e-06
0.51079
4.92773e-06
0.510786
4.5964e-06
0.510781
4.39618e-06
0.510776
4.9622e-06
0.51077
5.94618e-06
0.510764
6.4281e-06
0.510757
6.35027e-06
0.510751
6.04128e-06
0.510746
5.48217e-06
0.510741
5.00233e-06
0.510736
5.01643e-06
0.510731
5.38761e-06
0.510725
5.68408e-06
0.510719
5.61341e-06
0.510714
5.38593e-06
0.510709
5.24391e-06
0.510703
5.10526e-06
0.510698
5.02941e-06
0.510693
5.05246e-06
0.510688
5.025e-06
0.510683
5.07477e-06
0.510678
5.41231e-06
0.510672
5.76379e-06
0.510666
5.81442e-06
0.510661
5.70381e-06
0.510655
5.62528e-06
0.510649
5.57833e-06
0.510644
5.45592e-06
0.510639
5.25619e-06
0.510633
5.18699e-06
0.510628
5.21186e-06
0.510623
5.18448e-06
0.510618
5.31087e-06
0.510612
5.5493e-06
0.510607
5.50158e-06
0.510601
5.27574e-06
0.510596
5.20791e-06
0.510591
5.30542e-06
0.510585
5.5313e-06
0.51058
5.67685e-06
0.510574
5.62621e-06
0.510568
5.73155e-06
0.510563
5.8236e-06
0.510557
5.55944e-06
0.510552
5.46354e-06
0.510546
5.6246e-06
0.51054
5.50038e-06
0.510535
5.22457e-06
0.51053
5.05894e-06
0.510525
5.03138e-06
0.51052
5.24018e-06
0.510514
5.45463e-06
0.510509
5.44168e-06
0.510503
5.4676e-06
0.510498
5.69751e-06
0.510492
5.83633e-06
0.510486
5.71468e-06
0.510481
5.53742e-06
0.510475
5.4595e-06
0.51047
5.45655e-06
0.510464
5.59537e-06
0.510458
5.85534e-06
0.510452
5.86203e-06
0.510447
5.52605e-06
0.510442
5.37377e-06
0.510436
5.59519e-06
0.51043
5.67753e-06
0.510425
5.31329e-06
0.51042
4.92143e-06
0.510415
4.931e-06
0.51041
5.19229e-06
0.510405
5.42525e-06
0.510399
5.56934e-06
0.510393
5.57231e-06
0.510388
5.31328e-06
0.510383
5.00094e-06
0.510378
5.08057e-06
0.510373
5.32501e-06
0.510367
5.3703e-06
0.510362
5.53045e-06
0.510356
5.79707e-06
0.51035
5.75915e-06
0.510345
5.5225e-06
0.510339
5.3558e-06
0.510334
5.218e-06
0.510329
5.09449e-06
0.510324
5.24077e-06
0.510318
5.71861e-06
0.510312
6.07439e-06
0.510306
5.96449e-06
0.5103
5.62409e-06
0.510295
5.32258e-06
0.51029
5.01207e-06
0.510285
4.89294e-06
0.51028
5.26794e-06
0.510274
5.91157e-06
0.510268
6.22483e-06
0.510262
5.90529e-06
0.510256
5.356e-06
0.510251
5.07213e-06
0.510246
5.09318e-06
0.510241
5.34498e-06
0.510235
5.73868e-06
0.510229
5.84456e-06
0.510224
5.50931e-06
0.510219
5.26069e-06
0.510213
5.29454e-06
0.510208
5.31699e-06
0.510203
5.45969e-06
0.510197
5.77483e-06
0.510191
5.87248e-06
0.510185
5.69817e-06
0.51018
5.41743e-06
0.510175
5.1574e-06
0.51017
5.12466e-06
0.510164
5.36398e-06
0.510158
5.65267e-06
0.510153
5.72759e-06
0.510147
5.48995e-06
0.510142
5.18019e-06
0.510137
5.21615e-06
0.510131
5.50913e-06
0.510126
5.57395e-06
0.51012
5.32271e-06
0.510115
5.07289e-06
0.51011
5.09892e-06
0.510105
5.4004e-06
0.510099
5.6933e-06
0.510094
5.68931e-06
0.510088
5.44924e-06
0.510083
5.32146e-06
0.510077
5.34535e-06
0.510072
5.34817e-06
0.510067
5.32693e-06
0.510061
5.28573e-06
0.510056
5.33506e-06
0.510051
5.49696e-06
0.510045
5.498e-06
0.51004
5.23481e-06
0.510035
4.95046e-06
0.51003
4.99133e-06
0.510025
5.30563e-06
0.510019
5.47677e-06
0.510014
5.48958e-06
0.510008
5.54873e-06
0.510002
5.6444e-06
0.509997
5.67022e-06
0.509991
5.47688e-06
0.509986
5.21806e-06
0.509981
5.24407e-06
0.509975
5.44204e-06
0.50997
5.52707e-06
0.509964
5.55686e-06
0.509959
5.59713e-06
0.509953
5.58458e-06
0.509948
5.60903e-06
0.509942
5.67008e-06
0.509936
5.53976e-06
0.509931
5.31603e-06
0.509926
5.26058e-06
0.50992
5.31087e-06
0.509915
5.37348e-06
0.50991
5.40714e-06
0.509904
5.35396e-06
0.509899
5.27239e-06
0.509894
5.27067e-06
0.509888
5.47076e-06
0.509882
5.83066e-06
0.509876
6.11619e-06
0.50987
6.10137e-06
0.509865
5.66841e-06
0.509859
5.15565e-06
0.509854
5.00518e-06
0.509849
5.16353e-06
0.509844
5.38039e-06
0.509838
5.52416e-06
0.509833
5.54409e-06
0.509827
5.47777e-06
0.509822
5.42101e-06
0.509817
5.34466e-06
0.509811
5.28602e-06
0.509806
5.37821e-06
0.5098
5.59414e-06
0.509794
5.85949e-06
0.509788
6.48526e-06
5.88076e-06
0.511146
-6.01287e-08
0.511151
6.98648e-07
0.511157
1.87783e-06
0.51116
2.51921e-06
0.511162
2.24545e-06
0.511164
2.01309e-06
0.511168
2.13234e-06
0.511171
2.16006e-06
0.511174
2.31413e-06
0.511176
2.89606e-06
0.511178
3.18705e-06
0.51118
2.8227e-06
0.511183
2.3429e-06
0.511186
2.18631e-06
0.51119
2.49928e-06
0.511193
2.92795e-06
0.511195
2.98006e-06
0.511198
2.70201e-06
0.511201
2.2378e-06
0.511204
1.73002e-06
0.511208
1.6903e-06
0.511211
2.24736e-06
0.511214
2.54145e-06
0.511217
2.30128e-06
0.51122
2.40852e-06
0.511223
2.5655e-06
0.511227
2.18824e-06
0.511231
2.19685e-06
0.511234
2.67349e-06
0.511237
2.49563e-06
0.51124
1.85925e-06
0.511243
1.92963e-06
0.511246
2.60483e-06
0.511248
3.048e-06
0.511251
3.15386e-06
0.511253
2.88868e-06
0.511256
2.22024e-06
0.511259
1.91162e-06
0.511262
2.37745e-06
0.511264
2.85131e-06
0.511266
2.99994e-06
0.511268
3.03099e-06
0.511271
2.94454e-06
0.511274
2.77079e-06
0.511277
2.4373e-06
0.511281
2.07523e-06
0.511284
2.0379e-06
0.511286
2.20616e-06
0.51129
2.30411e-06
0.511293
2.33288e-06
0.511296
2.44426e-06
0.5113
2.35526e-06
0.511304
1.98495e-06
0.511307
2.06216e-06
0.51131
2.43171e-06
0.511313
2.58629e-06
0.511316
3.01895e-06
0.511318
3.35392e-06
0.51132
2.98436e-06
0.511324
2.77771e-06
0.511327
2.88039e-06
0.51133
2.47667e-06
0.511334
2.03111e-06
0.511337
2.08664e-06
0.511339
2.17765e-06
0.511342
2.23074e-06
0.511344
2.26561e-06
0.511347
2.17803e-06
0.51135
2.37272e-06
0.511354
2.86078e-06
0.511357
3.10662e-06
0.51136
3.0322e-06
0.511363
2.738e-06
0.511365
2.43092e-06
0.511368
2.33689e-06
0.511371
2.35463e-06
0.511374
2.43368e-06
0.511377
2.54702e-06
0.51138
2.56791e-06
0.511383
2.64295e-06
0.511385
2.91279e-06
0.511387
3.08005e-06
0.511389
2.87474e-06
0.511392
2.5173e-06
0.511394
2.37191e-06
0.511397
2.45057e-06
0.511401
2.37906e-06
0.511404
2.0838e-06
0.511408
2.05711e-06
0.511412
2.23437e-06
0.511415
2.03378e-06
0.511419
1.77486e-06
0.511422
2.07599e-06
0.511425
2.58853e-06
0.511427
2.97215e-06
0.511429
3.28044e-06
0.511431
3.21708e-06
0.511433
2.86735e-06
0.511436
2.6951e-06
0.511439
2.52698e-06
0.511442
2.24057e-06
0.511445
2.03105e-06
0.511449
1.83961e-06
0.511453
1.76855e-06
0.511456
2.00071e-06
0.51146
2.30564e-06
0.511463
2.46146e-06
0.511466
2.40973e-06
0.51147
2.32677e-06
0.511473
2.47302e-06
0.511475
2.73965e-06
0.511478
2.96331e-06
0.51148
3.12472e-06
0.511482
3.14723e-06
0.511484
3.06051e-06
0.511486
2.85706e-06
0.511489
2.46662e-06
0.511493
2.06635e-06
0.511497
1.79606e-06
0.511501
1.74555e-06
0.511504
2.02272e-06
0.511508
2.35937e-06
0.511511
2.44447e-06
0.511514
2.45087e-06
0.511517
2.59575e-06
0.51152
2.82158e-06
0.511523
2.93373e-06
0.511525
2.84801e-06
0.511528
2.70227e-06
0.511531
2.56696e-06
0.511534
2.47475e-06
0.511537
2.47975e-06
0.511539
2.4238e-06
0.511542
2.22184e-06
0.511545
2.04403e-06
0.511549
2.08485e-06
0.511552
2.26526e-06
0.511555
2.40829e-06
0.511558
2.53643e-06
0.51156
2.50985e-06
0.511563
2.27095e-06
0.511566
2.15288e-06
0.511569
2.37911e-06
0.511572
2.79356e-06
0.511575
3.02488e-06
0.511578
2.92691e-06
0.51158
2.80841e-06
0.511583
2.76778e-06
0.511586
2.62303e-06
0.511588
2.45402e-06
0.511591
2.4128e-06
0.511594
2.41659e-06
0.511598
2.37373e-06
0.511602
2.40279e-06
0.511605
2.61899e-06
0.511607
2.86275e-06
0.511609
2.63971e-06
0.511612
1.9812e-06
0.511616
1.75674e-06
0.51162
2.15065e-06
0.511623
2.51566e-06
0.511627
2.74866e-06
0.511629
2.78365e-06
0.511632
2.36466e-06
0.511635
1.88353e-06
0.511638
1.88209e-06
0.511642
2.23886e-06
0.511645
2.71617e-06
0.511647
3.16012e-06
0.511649
3.35329e-06
0.511651
3.25457e-06
0.511654
3.04657e-06
0.511656
2.83251e-06
0.511659
2.73324e-06
0.511662
2.8724e-06
0.511665
3.0272e-06
0.511668
2.85205e-06
0.51167
2.58808e-06
0.511673
2.57128e-06
0.511676
2.42323e-06
0.511679
2.00973e-06
0.511683
1.90179e-06
0.511686
2.12048e-06
0.511689
2.23984e-06
0.511692
2.39368e-06
0.511695
2.66917e-06
0.511698
2.79886e-06
0.5117
2.69913e-06
0.511703
2.36771e-06
0.511706
2.04197e-06
0.51171
2.09409e-06
0.511713
2.31861e-06
0.511716
2.46938e-06
0.511719
2.74203e-06
0.511721
3.01389e-06
0.511724
2.95035e-06
0.511726
2.78853e-06
0.511729
2.79909e-06
0.511731
2.72247e-06
0.511734
2.58336e-06
0.511737
2.67593e-06
0.511739
2.87394e-06
0.511742
2.88025e-06
0.511744
2.65166e-06
0.511747
2.47182e-06
0.511749
2.52685e-06
0.511752
2.60025e-06
0.511755
2.59796e-06
0.511758
2.55333e-06
0.511761
2.40134e-06
0.511765
2.34976e-06
0.511768
2.62489e-06
0.51177
2.97134e-06
0.511772
2.99282e-06
0.511775
2.71113e-06
0.511778
2.43402e-06
0.511781
2.27459e-06
0.511784
2.27528e-06
0.511788
2.42392e-06
0.511791
2.50096e-06
0.511794
2.47197e-06
0.511797
2.51229e-06
0.5118
2.56501e-06
0.511802
2.50767e-06
0.511805
2.45034e-06
0.511808
2.48982e-06
0.511811
2.45361e-06
0.511814
2.29521e-06
0.511817
2.29548e-06
0.51182
2.45479e-06
0.511823
2.49627e-06
0.511826
2.30875e-06
0.511831
1.98383e-06
0.511835
1.95035e-06
0.511838
2.38022e-06
0.51184
2.73016e-06
0.511843
2.6768e-06
0.511846
2.4213e-06
0.511849
2.19948e-06
0.511852
2.15382e-06
0.511855
2.40119e-06
0.511858
2.6941e-06
0.511861
2.72494e-06
0.511863
2.70319e-06
0.511866
2.7263e-06
0.511869
2.69608e-06
0.511872
2.65974e-06
0.511875
2.50684e-06
0.511879
2.29698e-06
2.57895e-06
0.511143
1.32712e-07
0.511143
6.7442e-07
0.511143
1.40073e-06
0.511144
1.9525e-06
0.511144
1.88808e-06
0.511145
1.4881e-06
0.511146
1.23949e-06
0.511146
1.45434e-06
0.511147
1.87228e-06
0.511148
2.18127e-06
0.511148
2.59834e-06
0.511148
2.71625e-06
0.511148
2.3321e-06
0.511149
1.89525e-06
0.511149
1.87686e-06
0.51115
2.2659e-06
0.51115
2.67062e-06
0.51115
3.00227e-06
0.511149
2.96217e-06
0.511148
2.48497e-06
0.511148
2.05179e-06
0.511149
1.49834e-06
0.51115
1.38127e-06
0.51115
2.20551e-06
0.51115
2.52539e-06
0.51115
2.25647e-06
0.51115
2.4731e-06
0.51115
2.28255e-06
0.511151
1.45844e-06
0.511152
1.27191e-06
0.511152
1.77547e-06
0.511152
2.05474e-06
0.511153
2.17476e-06
0.511153
2.58139e-06
0.511154
2.80287e-06
0.511154
2.46006e-06
0.511154
1.89833e-06
0.511155
1.48534e-06
0.511156
1.59096e-06
0.511156
2.36549e-06
0.511156
3.12818e-06
0.511156
3.29411e-06
0.511156
2.98523e-06
0.511156
2.45053e-06
0.511156
1.99992e-06
0.511156
2.03228e-06
0.511156
2.49846e-06
0.511155
2.63376e-06
0.511155
2.35923e-06
0.511155
2.39922e-06
0.511155
2.35049e-06
0.511156
1.93331e-06
0.511156
1.90524e-06
0.511156
1.99116e-06
0.511157
1.73464e-06
0.511158
1.75655e-06
0.511158
2.26073e-06
0.511159
2.93236e-06
0.511158
3.38832e-06
0.511158
3.179e-06
0.511158
2.59226e-06
0.511159
2.19814e-06
0.511159
1.85997e-06
0.511159
1.52292e-06
0.51116
1.48942e-06
0.51116
1.73435e-06
0.511161
1.96831e-06
0.511161
1.98701e-06
0.511161
1.89303e-06
0.511162
1.95114e-06
0.511163
2.18337e-06
0.511164
2.37764e-06
0.511164
2.45168e-06
0.511164
2.62505e-06
0.511163
2.81937e-06
0.511163
2.80344e-06
0.511163
2.80924e-06
0.511162
2.90663e-06
0.511162
2.91137e-06
0.511162
2.83239e-06
0.511162
2.69787e-06
0.511162
2.57935e-06
0.511163
2.46935e-06
0.511163
2.24296e-06
0.511164
2.01689e-06
0.511164
1.89336e-06
0.511165
1.80995e-06
0.511165
1.89117e-06
0.511165
2.1253e-06
0.511165
2.15478e-06
0.511165
1.99456e-06
0.511165
1.93123e-06
0.511165
2.00698e-06
0.511165
2.19574e-06
0.511166
2.37796e-06
0.511167
2.48411e-06
0.511167
2.55473e-06
0.511168
2.38781e-06
0.511168
2.05931e-06
0.511169
2.06359e-06
0.511169
2.22441e-06
0.511169
1.99587e-06
0.511169
1.6898e-06
0.511169
1.73121e-06
0.511169
1.73742e-06
0.51117
1.73203e-06
0.51117
2.12474e-06
0.51117
2.43055e-06
0.51117
2.26393e-06
0.511171
2.00982e-06
0.511172
1.82674e-06
0.511173
1.977e-06
0.511173
2.7332e-06
0.511173
3.35473e-06
0.511173
3.2708e-06
0.511173
2.96011e-06
0.511172
2.63405e-06
0.511172
2.17654e-06
0.511172
1.86776e-06
0.511172
1.8075e-06
0.511172
1.78848e-06
0.511173
1.87515e-06
0.511173
2.15009e-06
0.511173
2.49678e-06
0.511173
2.72063e-06
0.511173
2.66592e-06
0.511174
2.50336e-06
0.511174
2.51853e-06
0.511174
2.57693e-06
0.511174
2.42154e-06
0.511174
2.22801e-06
0.511175
2.21165e-06
0.511175
2.14965e-06
0.511175
1.9524e-06
0.511175
1.90142e-06
0.511175
2.01735e-06
0.511176
2.00274e-06
0.511176
1.83919e-06
0.511177
1.84924e-06
0.511177
2.06333e-06
0.511177
2.1635e-06
0.511177
2.16234e-06
0.511178
2.10418e-06
0.511179
1.92735e-06
0.51118
1.84076e-06
0.511181
2.12653e-06
0.511181
2.64672e-06
0.511181
2.87129e-06
0.511181
2.6823e-06
0.51118
2.56121e-06
0.51118
2.60831e-06
0.51118
2.52829e-06
0.51118
2.30235e-06
0.511181
2.0731e-06
0.511181
1.91193e-06
0.511182
1.86254e-06
0.511183
1.96431e-06
0.511183
2.1783e-06
0.511182
2.32865e-06
0.511182
2.21246e-06
0.511183
1.91623e-06
0.511184
1.80384e-06
0.511185
1.94427e-06
0.511185
2.11843e-06
0.511184
2.21925e-06
0.511184
2.19597e-06
0.511184
2.14608e-06
0.511185
2.31845e-06
0.511185
2.60513e-06
0.511186
2.79875e-06
0.511186
2.98482e-06
0.511186
3.10193e-06
0.511186
2.95881e-06
0.511186
2.69224e-06
0.511186
2.541e-06
0.511187
2.55245e-06
0.511187
2.58499e-06
0.511187
2.41936e-06
0.511187
2.2124e-06
0.511188
2.17157e-06
0.511188
2.03912e-06
0.511188
1.84448e-06
0.511188
1.95214e-06
0.511188
2.04914e-06
0.511189
1.90799e-06
0.511189
1.93414e-06
0.51119
2.04078e-06
0.511191
1.94965e-06
0.511191
1.97183e-06
0.511191
2.25081e-06
0.511191
2.45008e-06
0.511191
2.43403e-06
0.511191
2.37176e-06
0.511191
2.40132e-06
0.511191
2.54979e-06
0.511192
2.61384e-06
0.511192
2.46038e-06
0.511192
2.40942e-06
0.511193
2.51005e-06
0.511193
2.50788e-06
0.511193
2.53128e-06
0.511193
2.68509e-06
0.511193
2.7826e-06
0.511193
2.68673e-06
0.511193
2.5173e-06
0.511193
2.51595e-06
0.511193
2.64944e-06
0.511193
2.76892e-06
0.511193
2.78228e-06
0.511193
2.52145e-06
0.511193
2.21007e-06
0.511193
2.21548e-06
0.511194
2.28787e-06
0.511195
2.13953e-06
0.511195
1.97622e-06
0.511196
1.90323e-06
0.511196
1.91275e-06
0.511196
2.1632e-06
0.511196
2.49428e-06
0.511196
2.56669e-06
0.511196
2.51392e-06
0.511196
2.52745e-06
0.511196
2.50635e-06
0.511196
2.36702e-06
0.511197
2.18015e-06
0.511197
2.12321e-06
0.511197
2.17441e-06
0.511197
2.12876e-06
0.511198
2.05637e-06
0.511198
2.0679e-06
0.511199
2.03474e-06
0.511199
1.90938e-06
0.511199
1.74262e-06
0.5112
1.61015e-06
0.5112
1.61755e-06
0.511201
1.73431e-06
0.511202
1.95492e-06
0.511202
2.32483e-06
0.511202
2.59982e-06
0.511201
2.49345e-06
0.511202
2.24924e-06
0.511202
2.17803e-06
0.511203
2.19963e-06
0.511203
2.21687e-06
0.511204
2.18518e-06
0.511204
2.31705e-06
0.511204
2.55055e-06
0.511204
2.53141e-06
0.511204
2.47345e-06
2.40246e-06
0.511144
4.03406e-08
0.511144
4.36548e-07
0.511145
7.76905e-07
0.511146
1.03118e-06
0.511146
1.26571e-06
0.511146
1.34451e-06
0.511146
1.56316e-06
0.511146
1.86043e-06
0.511146
1.96588e-06
0.511146
1.96192e-06
0.511146
2.02857e-06
0.511147
2.09822e-06
0.511147
2.27018e-06
0.511147
2.37834e-06
0.511146
2.23167e-06
0.511146
2.05222e-06
0.511147
1.81024e-06
0.511149
1.53524e-06
0.51115
1.62904e-06
0.511151
1.8576e-06
0.511151
1.74591e-06
0.51115
2.05428e-06
0.511149
2.59139e-06
0.511149
2.35535e-06
0.51115
2.03617e-06
0.51115
2.25715e-06
0.51115
2.22732e-06
0.51115
1.74626e-06
0.511151
1.29655e-06
0.511151
1.02248e-06
0.511151
1.20511e-06
0.511152
1.88684e-06
0.511151
2.37856e-06
0.511152
2.21021e-06
0.511153
1.85313e-06
0.511153
1.72632e-06
0.511154
1.63172e-06
0.511154
1.59864e-06
0.511153
1.8776e-06
0.511153
2.17648e-06
0.511154
2.27942e-06
0.511155
2.46249e-06
0.511156
2.53412e-06
0.511156
2.19811e-06
0.511156
1.94609e-06
0.511156
1.94429e-06
0.511156
2.06588e-06
0.511157
2.44811e-06
0.511156
2.53571e-06
0.511157
1.98102e-06
0.511157
1.70483e-06
0.511157
1.99501e-06
0.511157
2.05722e-06
0.511157
2.0527e-06
0.511157
2.37489e-06
0.511156
2.42949e-06
0.511156
2.19457e-06
0.511157
2.28946e-06
0.511158
2.47034e-06
0.511158
2.28722e-06
0.511159
2.00819e-06
0.511159
1.83365e-06
0.51116
1.5542e-06
0.51116
1.35292e-06
0.51116
1.47609e-06
0.51116
1.65577e-06
0.51116
1.85966e-06
0.51116
2.10592e-06
0.51116
2.07916e-06
0.51116
1.80935e-06
0.51116
1.56273e-06
0.511161
1.50575e-06
0.511162
1.67761e-06
0.511163
1.98599e-06
0.511163
2.28578e-06
0.511164
2.5014e-06
0.511164
2.74093e-06
0.511164
2.93366e-06
0.511164
2.96302e-06
0.511163
2.99246e-06
0.511163
2.92207e-06
0.511163
2.58914e-06
0.511163
2.31776e-06
0.511163
2.28007e-06
0.511163
2.15212e-06
0.511163
1.85807e-06
0.511163
1.62294e-06
0.511164
1.46538e-06
0.511165
1.46264e-06
0.511165
1.65638e-06
0.511165
1.76402e-06
0.511165
1.85188e-06
0.511165
2.12344e-06
0.511165
2.36093e-06
0.511165
2.37095e-06
0.511165
2.35863e-06
0.511165
2.3493e-06
0.511166
2.08567e-06
0.511166
1.68831e-06
0.511167
1.3278e-06
0.511168
1.05827e-06
0.511169
1.1544e-06
0.511169
1.53047e-06
0.511169
1.77612e-06
0.511169
1.81461e-06
0.511169
1.69791e-06
0.511169
1.64966e-06
0.51117
1.85698e-06
0.51117
2.08984e-06
0.51117
2.24607e-06
0.511169
2.36153e-06
0.511169
2.33161e-06
0.511169
2.34266e-06
0.51117
2.57629e-06
0.511171
2.72198e-06
0.511171
2.56648e-06
0.511172
2.17231e-06
0.511172
1.65332e-06
0.511173
1.37173e-06
0.511173
1.50869e-06
0.511173
1.70895e-06
0.511173
1.8171e-06
0.511173
2.00508e-06
0.511173
2.28112e-06
0.511174
2.4852e-06
0.511174
2.49882e-06
0.511174
2.46627e-06
0.511174
2.50055e-06
0.511174
2.47188e-06
0.511174
2.25625e-06
0.511174
1.9262e-06
0.511175
1.66792e-06
0.511175
1.57407e-06
0.511176
1.61049e-06
0.511176
1.72243e-06
0.511176
1.87258e-06
0.511176
1.89449e-06
0.511176
1.65362e-06
0.511177
1.49548e-06
0.511177
1.57974e-06
0.511178
1.56897e-06
0.511178
1.69034e-06
0.511178
2.05844e-06
0.511178
2.18745e-06
0.511178
2.13279e-06
0.511178
2.11049e-06
0.511179
2.00021e-06
0.511179
1.95985e-06
0.51118
2.15237e-06
0.51118
2.39038e-06
0.51118
2.45677e-06
0.51118
2.33771e-06
0.511181
2.24923e-06
0.51118
2.16125e-06
0.511181
1.74732e-06
0.511181
1.2681e-06
0.511182
1.38204e-06
0.511182
1.76064e-06
0.511183
1.87595e-06
0.511183
1.9174e-06
0.511183
1.84121e-06
0.511183
1.50145e-06
0.511184
1.30589e-06
0.511185
1.50179e-06
0.511185
1.90473e-06
0.511185
2.25306e-06
0.511185
2.33205e-06
0.511185
2.24905e-06
0.511185
2.307e-06
0.511185
2.49861e-06
0.511186
2.69602e-06
0.511186
2.95818e-06
0.511186
3.1987e-06
0.511185
3.04085e-06
0.511185
2.49148e-06
0.511186
2.09452e-06
0.511186
2.05228e-06
0.511187
2.0039e-06
0.511187
1.92273e-06
0.511187
1.85643e-06
0.511188
1.60805e-06
0.511188
1.39761e-06
0.511188
1.60019e-06
0.511189
1.92371e-06
0.511189
1.9494e-06
0.511189
1.72802e-06
0.511189
1.51607e-06
0.51119
1.52634e-06
0.51119
1.70714e-06
0.51119
1.86647e-06
0.511191
2.04865e-06
0.511191
2.2985e-06
0.511191
2.48878e-06
0.511191
2.45311e-06
0.511191
2.26328e-06
0.511191
2.22126e-06
0.511192
2.27376e-06
0.511192
2.30023e-06
0.511192
2.49191e-06
0.511191
2.71494e-06
0.511191
2.64482e-06
0.511192
2.41336e-06
0.511192
2.36257e-06
0.511192
2.46158e-06
0.511192
2.45985e-06
0.511192
2.42593e-06
0.511193
2.49773e-06
0.511193
2.57229e-06
0.511193
2.56656e-06
0.511193
2.48592e-06
0.511193
2.3697e-06
0.511193
2.20648e-06
0.511193
1.97933e-06
0.511194
1.73923e-06
0.511194
1.53101e-06
0.511194
1.50771e-06
0.511195
1.71815e-06
0.511195
1.95144e-06
0.511195
2.08672e-06
0.511196
2.14312e-06
0.511196
2.14078e-06
0.511196
2.16008e-06
0.511197
2.2274e-06
0.511197
2.23112e-06
0.511197
2.09543e-06
0.511197
1.94296e-06
0.511197
1.9013e-06
0.511198
1.91036e-06
0.511198
1.92253e-06
0.511198
1.92703e-06
0.511198
1.84371e-06
0.511198
1.72065e-06
0.511198
1.56744e-06
0.511199
1.33636e-06
0.511199
1.25311e-06
0.511199
1.41369e-06
0.5112
1.51706e-06
0.511201
1.59929e-06
0.511201
2.02569e-06
0.511201
2.46708e-06
0.511201
2.48061e-06
0.511201
2.32713e-06
0.511201
2.17877e-06
0.511201
2.03023e-06
0.511201
2.0034e-06
0.511201
1.97746e-06
0.511202
2.02447e-06
0.511202
2.20762e-06
0.511202
2.34181e-06
2.21206e-06
0.511144
6.88703e-08
0.511144
2.38643e-07
0.511144
3.01777e-07
0.511145
4.89737e-07
0.511146
5.71213e-07
0.511146
8.54952e-07
0.511146
1.32768e-06
0.511147
1.62821e-06
0.511147
2.03057e-06
0.511146
2.10075e-06
0.511147
1.42566e-06
0.511148
1.08298e-06
0.511149
1.36914e-06
0.511149
1.949e-06
0.511149
2.27961e-06
0.511149
2.05715e-06
0.511149
2.05373e-06
0.511148
2.11566e-06
0.511148
1.66905e-06
0.511149
1.49684e-06
0.511149
1.70673e-06
0.511149
1.63415e-06
0.51115
1.68387e-06
0.51115
2.25357e-06
0.51115
2.49621e-06
0.51115
1.98444e-06
0.511151
1.49985e-06
0.511151
1.41227e-06
0.511151
1.25551e-06
0.511151
1.16636e-06
0.511151
1.61813e-06
0.511151
1.87518e-06
0.511151
1.50988e-06
0.511152
1.27089e-06
0.511153
1.09276e-06
0.511154
8.82812e-07
0.511154
1.41307e-06
0.511154
2.28538e-06
0.511153
2.45905e-06
0.511153
2.30074e-06
0.511153
2.19124e-06
0.511154
1.84274e-06
0.511154
1.64744e-06
0.511155
1.94114e-06
0.511154
2.18795e-06
0.511154
2.14982e-06
0.511154
2.05248e-06
0.511155
1.81951e-06
0.511156
1.48395e-06
0.511157
1.3547e-06
0.511157
1.35953e-06
0.511157
1.45523e-06
0.511158
1.79383e-06
0.511158
2.03777e-06
0.511158
2.12554e-06
0.511158
2.39754e-06
0.511158
2.55628e-06
0.511157
2.4679e-06
0.511158
2.30297e-06
0.511158
1.85027e-06
0.511159
1.35355e-06
0.511159
1.24925e-06
0.51116
1.28422e-06
0.51116
1.20576e-06
0.51116
1.09293e-06
0.511161
1.10106e-06
0.511161
1.48999e-06
0.511161
2.02501e-06
0.511161
2.09217e-06
0.511161
1.79653e-06
0.511161
1.60629e-06
0.511161
1.5676e-06
0.511161
1.62543e-06
0.511161
1.78027e-06
0.511162
2.047e-06
0.511162
2.34132e-06
0.511162
2.50878e-06
0.511162
2.5571e-06
0.511163
2.61749e-06
0.511163
2.65863e-06
0.511163
2.54202e-06
0.511163
2.46383e-06
0.511163
2.54881e-06
0.511163
2.46042e-06
0.511163
2.12929e-06
0.511163
1.79247e-06
0.511163
1.54301e-06
0.511163
1.4381e-06
0.511163
1.33106e-06
0.511164
1.1077e-06
0.511165
1.18963e-06
0.511165
1.65363e-06
0.511165
1.93237e-06
0.511165
2.01981e-06
0.511165
2.13632e-06
0.511166
2.00056e-06
0.511166
1.73417e-06
0.511167
1.59105e-06
0.511167
1.32962e-06
0.511168
1.08638e-06
0.511167
1.17092e-06
0.511167
1.2361e-06
0.511168
1.0489e-06
0.511169
1.00714e-06
0.511169
1.23992e-06
0.51117
1.37833e-06
0.51117
1.38287e-06
0.51117
1.48703e-06
0.511171
1.66026e-06
0.511171
1.82087e-06
0.511171
2.02893e-06
0.511171
2.30623e-06
0.511171
2.568e-06
0.511171
2.70671e-06
0.511171
2.63212e-06
0.511171
2.24863e-06
0.511172
1.72624e-06
0.511172
1.39672e-06
0.511172
1.23217e-06
0.511173
1.13931e-06
0.511173
1.31184e-06
0.511173
1.63859e-06
0.511173
1.84943e-06
0.511174
2.05776e-06
0.511174
2.30218e-06
0.511174
2.37917e-06
0.511174
2.28944e-06
0.511174
2.11184e-06
0.511175
1.9657e-06
0.511175
1.95889e-06
0.511175
1.89459e-06
0.511175
1.7126e-06
0.511175
1.63349e-06
0.511175
1.62376e-06
0.511175
1.50975e-06
0.511176
1.33087e-06
0.511177
1.17844e-06
0.511177
1.06074e-06
0.511178
1.03964e-06
0.511178
1.14084e-06
0.511178
1.25228e-06
0.511179
1.40619e-06
0.511179
1.65613e-06
0.511179
1.89632e-06
0.51118
2.04247e-06
0.51118
2.04139e-06
0.51118
1.94153e-06
0.51118
1.91066e-06
0.51118
2.02133e-06
0.51118
2.14528e-06
0.51118
2.08079e-06
0.511181
1.88628e-06
0.511181
1.79898e-06
0.511182
1.82149e-06
0.511182
1.7728e-06
0.511181
1.5867e-06
0.511181
1.39343e-06
0.511182
1.29936e-06
0.511182
1.37428e-06
0.511183
1.55765e-06
0.511183
1.64587e-06
0.511183
1.54649e-06
0.511183
1.34744e-06
0.511183
1.24307e-06
0.511184
1.42037e-06
0.511184
1.7602e-06
0.511184
1.99399e-06
0.511184
2.1829e-06
0.511184
2.49259e-06
0.511184
2.65135e-06
0.511184
2.55214e-06
0.511185
2.51818e-06
0.511185
2.56816e-06
0.511186
2.63911e-06
0.511185
2.71582e-06
0.511185
2.59149e-06
0.511185
2.32586e-06
0.511185
1.93185e-06
0.511185
1.35674e-06
0.511186
1.10329e-06
0.511186
1.2847e-06
0.511187
1.25101e-06
0.511187
1.07624e-06
0.511188
1.32421e-06
0.511188
1.66913e-06
0.511188
1.65063e-06
0.511188
1.43541e-06
0.511188
1.23477e-06
0.511189
1.2526e-06
0.511189
1.52501e-06
0.511189
1.80833e-06
0.51119
2.03722e-06
0.51119
2.17851e-06
0.51119
2.11251e-06
0.511191
2.0382e-06
0.511191
2.11479e-06
0.511191
2.08623e-06
0.511191
2.01965e-06
0.511191
2.27958e-06
0.511191
2.65346e-06
0.511191
2.76825e-06
0.511191
2.63374e-06
0.511191
2.46981e-06
0.511191
2.51249e-06
0.511191
2.59333e-06
0.511191
2.4727e-06
0.511191
2.26532e-06
0.511192
2.04478e-06
0.511192
1.97875e-06
0.511192
2.16806e-06
0.511193
2.17546e-06
0.511193
1.79957e-06
0.511194
1.45376e-06
0.511194
1.32498e-06
0.511194
1.30914e-06
0.511194
1.49217e-06
0.511194
1.74184e-06
0.511194
1.72336e-06
0.511195
1.61412e-06
0.511195
1.67837e-06
0.511196
1.7603e-06
0.511196
1.78417e-06
0.511197
1.78989e-06
0.511197
1.76855e-06
0.511197
1.77023e-06
0.511197
1.76193e-06
0.511198
1.73727e-06
0.511198
1.76161e-06
0.511198
1.73649e-06
0.511198
1.57711e-06
0.511199
1.46493e-06
0.511199
1.49098e-06
0.511199
1.39292e-06
0.511199
1.14305e-06
0.511199
1.07001e-06
0.5112
1.20986e-06
0.5112
1.38042e-06
0.5112
1.4475e-06
0.5112
1.50921e-06
0.511201
1.76514e-06
0.511202
2.12811e-06
0.511202
2.3364e-06
0.511202
2.21797e-06
0.511202
1.9936e-06
0.511202
1.98327e-06
0.511202
1.90236e-06
0.511202
1.78193e-06
0.511202
1.81528e-06
0.511203
1.86173e-06
1.78057e-06
0.511144
7.73867e-08
0.511144
3.33997e-07
0.511144
4.11455e-07
0.511144
2.23567e-07
0.511145
4.75889e-07
0.511145
8.32742e-07
0.511145
8.78125e-07
0.511146
1.11112e-06
0.511146
1.44278e-06
0.511147
1.4863e-06
0.511147
1.48616e-06
0.511146
1.59303e-06
0.511146
1.6905e-06
0.511146
1.47251e-06
0.511147
1.32472e-06
0.511148
1.78862e-06
0.511148
2.06009e-06
0.511148
1.71099e-06
0.511148
1.14413e-06
0.511149
7.96426e-07
0.51115
1.11486e-06
0.51115
1.75111e-06
0.511149
1.98299e-06
0.51115
1.87004e-06
0.51115
1.82161e-06
0.511151
1.85494e-06
0.51115
1.52536e-06
0.511151
7.50612e-07
0.511152
5.38349e-07
0.511152
1.1386e-06
0.511152
1.41656e-06
0.511153
1.41438e-06
0.511152
1.6239e-06
0.511152
1.46285e-06
0.511152
9.56938e-07
0.511152
9.30298e-07
0.511152
1.38352e-06
0.511153
1.83257e-06
0.511153
2.0479e-06
0.511154
1.97612e-06
0.511154
1.72298e-06
0.511154
1.4682e-06
0.511155
1.4824e-06
0.511155
1.8038e-06
0.511155
2.06392e-06
0.511155
2.08928e-06
0.511155
1.82648e-06
0.511156
1.38684e-06
0.511156
1.18899e-06
0.511156
1.33604e-06
0.511156
1.49896e-06
0.511156
1.52343e-06
0.511156
1.50287e-06
0.511156
1.55844e-06
0.511157
1.85892e-06
0.511157
2.29685e-06
0.511157
2.32283e-06
0.511158
1.94617e-06
0.511158
1.70296e-06
0.511158
1.61849e-06
0.511158
1.52993e-06
0.511158
1.41118e-06
0.511158
1.20669e-06
0.511158
1.06412e-06
0.511158
1.0122e-06
0.511159
9.13923e-07
0.511159
9.26777e-07
0.51116
1.06211e-06
0.511161
1.19629e-06
0.511161
1.41573e-06
0.511161
1.61657e-06
0.511161
1.73505e-06
0.511161
1.84121e-06
0.511161
1.72747e-06
0.511161
1.64484e-06
0.511162
1.95711e-06
0.511162
2.1919e-06
0.511162
2.25009e-06
0.511163
2.37433e-06
0.511163
2.25739e-06
0.511164
2.04909e-06
0.511164
2.17777e-06
0.511164
2.29256e-06
0.511164
2.24213e-06
0.511164
2.14629e-06
0.511164
1.74933e-06
0.511165
1.37812e-06
0.511165
1.38229e-06
0.511165
1.24477e-06
0.511165
1.02095e-06
0.511165
1.14794e-06
0.511165
1.27438e-06
0.511166
1.3191e-06
0.511166
1.5767e-06
0.511167
1.77533e-06
0.511167
1.68251e-06
0.511167
1.53249e-06
0.511167
1.35312e-06
0.511168
1.14507e-06
0.511168
1.05327e-06
0.511168
1.00818e-06
0.511168
9.81367e-07
0.511168
9.59874e-07
0.511168
9.4991e-07
0.511168
1.1205e-06
0.511168
1.26058e-06
0.511168
1.2501e-06
0.511169
1.29766e-06
0.511169
1.21759e-06
0.51117
1.15312e-06
0.51117
1.56205e-06
0.511171
2.04884e-06
0.511171
2.28831e-06
0.511171
2.49251e-06
0.511171
2.39971e-06
0.511172
1.85002e-06
0.511172
1.37734e-06
0.511172
1.19226e-06
0.511172
1.1335e-06
0.511172
1.23357e-06
0.511172
1.37144e-06
0.511172
1.43901e-06
0.511173
1.53421e-06
0.511173
1.62551e-06
0.511174
1.72654e-06
0.511174
1.93851e-06
0.511174
2.15825e-06
0.511174
2.13928e-06
0.511174
1.91944e-06
0.511174
1.80189e-06
0.511175
1.65246e-06
0.511175
1.3015e-06
0.511176
1.16635e-06
0.511176
1.34945e-06
0.511176
1.34522e-06
0.511176
1.09897e-06
0.511176
1.066e-06
0.511176
1.10901e-06
0.511176
8.3996e-07
0.511177
6.25402e-07
0.511177
7.74224e-07
0.511178
1.02864e-06
0.511178
1.24799e-06
0.511179
1.513e-06
0.511179
1.84303e-06
0.511179
2.03246e-06
0.511179
1.99007e-06
0.511179
1.89363e-06
0.511179
1.80286e-06
0.511179
1.77981e-06
0.51118
1.8795e-06