/*--------------------------------*- C++ -*----------------------------------*\
| =========                 |                                                 |
| \\      /  F ield         | OpenFOAM: The Open Source CFD Toolbox           |
|  \\    /   O peration     | Version:  2406                                  |
|   \\  /    A nd           | Website:  www.openfoam.com                      |
|    \\/     M anipulation  |                                                 |
\*---------------------------------------------------------------------------*/
FoamFile
{
    version     2.0;
    format      ascii;
    arch        "LSB;label=32;scalar=64";
    class       volScalarField;
    location    "2.15";
    object      p;
}
// * * * * * * * * * * * * * * * * * * * * * * * * * * * * * * * * * * * * * //

dimensions      [1 -1 -2 0 0 0 0];

internalField   nonuniform List<scalar> 
6250
(
-3.46292
-3227.12
-1037.99
539.108
494.482
25.3386
-135.37
-58.0656
18.4009
24.779
4.62917
-4.95977
-2.67446
1.0373
1.78024
0.958869
0.424728
0.466078
0.637446
0.683886
0.648256
0.625002
0.62139
0.618415
0.613348
0.60752
0.606412
0.60527
0.601335
0.60326
0.600876
0.593475
0.592983
0.592974
0.5933
0.594269
0.589025
0.583128
0.581345
0.576447
0.567139
0.560472
0.553021
0.539614
0.527669
0.52141
0.518536
0.517926
0.513761
0.505845
0.50205
0.502026
0.502667
0.5033
0.498561
0.486646
0.479233
0.480955
0.482491
0.482172
0.479286
0.472332
0.466408
0.461683
0.457736
0.455264
0.454332
0.453083
0.443949
0.431775
0.425203
0.420155
0.416776
0.417638
0.419185
0.416888
0.410932
0.406189
0.406176
0.408354
0.404714
0.397609
0.393768
0.389102
0.384849
0.383185
0.380368
0.37798
0.377229
0.37747
0.37733
0.376028
0.375333
0.374296
0.373043
0.373454
0.374069
0.3699
0.361414
0.35581
0.351113
0.346881
0.349498
0.352363
0.349783
0.345802
0.341593
0.336726
0.330137
0.324911
0.322234
0.316959
0.314064
0.316538
0.314566
0.30534
0.296311
0.295454
0.301656
0.305519
0.304875
0.303835
0.3008
0.295877
0.296115
0.298691
0.296914
0.29587
0.296955
0.296724
0.294459
0.289137
0.284877
0.283775
0.283819
0.283295
0.276455
0.264995
0.256686
0.251162
0.245235
0.239666
0.236227
0.232106
0.22647
0.222187
0.218041
0.214158
0.21105
0.210707
0.213316
0.208877
0.199453
0.194888
0.192068
0.191032
0.193827
0.196138
0.195763
0.191202
0.180671
0.16633
0.154817
0.151038
0.153024
0.15369
0.150005
0.147492
0.146426
0.145536
0.146602
0.14446
0.138768
0.133308
0.128194
0.126635
0.128854
0.132843
0.138932
0.144635
0.144593
0.138266
0.133971
0.131993
0.126174
0.122325
0.121462
0.117228
0.11401
0.11404
0.112001
0.106193
0.0989424
0.0959379
0.0963306
0.0920177
0.0848079
0.0799216
0.0747259
0.0679087
0.0615493
0.0556126
0.0486081
0.0418259
0.039505
0.0407018
0.0381159
0.0310104
0.0249483
0.0204084
0.0190828
0.024464
0.0305759
0.0317356
0.0316934
0.0321283
0.0301055
0.0274308
0.0261331
0.0237168
0.0204304
0.016628
0.0128696
0.0129688
0.0160271
0.0197766
0.0219563
0.0191175
0.0155815
0.0154983
0.0166995
0.017541
0.0182755
0.0210306
0.0238776
0.0232554
0.0217291
0.0209801
0.0201959
0.0205095
0.0221468
0.0225974
0.0210351
0.0172715
0.0109537
0.00481486
0.00203326
0.00174173
0.00381334
-0.00272234
-3.49424
-3227.18
-1038.02
539.115
494.492
25.3373
-135.375
-58.0651
18.4053
24.7814
4.62822
-4.96175
-2.67471
1.03336
1.77415
0.961562
0.430676
0.463107
0.628753
0.681545
0.651433
0.625044
0.620657
0.61846
0.612089
0.606439
0.60459
0.60421
0.601511
0.601377
0.60022
0.594679
0.592018
0.592636
0.594683
0.595837
0.594177
0.589711
0.581459
0.572473
0.564051
0.554542
0.545993
0.538144
0.530855
0.525511
0.520305
0.517253
0.514985
0.507747
0.499294
0.497545
0.500043
0.498619
0.496336
0.492209
0.483348
0.480894
0.481797
0.478594
0.476851
0.475199
0.469849
0.462872
0.460664
0.461452
0.456203
0.446429
0.435715
0.427778
0.423545
0.419505
0.418405
0.419089
0.418702
0.416926
0.413124
0.412066
0.411765
0.407979
0.402772
0.396156
0.389756
0.386234
0.385166
0.383305
0.38136
0.380201
0.37511
0.372324
0.37559
0.376035
0.376672
0.381145
0.380857
0.374046
0.369865
0.366977
0.357904
0.351614
0.350751
0.34818
0.349771
0.353063
0.350558
0.345398
0.338983
0.334762
0.332896
0.32959
0.325606
0.31898
0.313427
0.312354
0.308184
0.301979
0.299905
0.300048
0.300286
0.300668
0.300935
0.302048
0.30307
0.301079
0.300003
0.300705
0.297472
0.294213
0.293388
0.292018
0.291288
0.290689
0.291077
0.289604
0.283275
0.279393
0.27585
0.2663
0.257526
0.253298
0.246746
0.2369
0.232397
0.23048
0.225052
0.221259
0.21901
0.217386
0.216135
0.211417
0.207968
0.204822
0.198383
0.194913
0.194013
0.193792
0.195722
0.197133
0.195619
0.189972
0.178266
0.163257
0.153832
0.151924
0.152403
0.152728
0.151965
0.151987
0.150063
0.145011
0.144281
0.142726
0.134581
0.127433
0.125617
0.129037
0.133857
0.137582
0.141824
0.143771
0.140652
0.135291
0.134685
0.136599
0.130714
0.122673
0.119345
0.114838
0.111907
0.112882
0.110793
0.105767
0.100656
0.0972239
0.0963677
0.0923562
0.0849359
0.0803507
0.0772856
0.0707867
0.0603735
0.0504909
0.045474
0.0431621
0.0409442
0.0411226
0.0401115
0.0314295
0.0208703
0.0160941
0.0173641
0.0244601
0.0328081
0.0355474
0.0340693
0.0325789
0.0302268
0.0273504
0.024617
0.0189357
0.0142134
0.0146765
0.0160802
0.0189021
0.0227176
0.0229034
0.0203751
0.0161786
0.0124811
0.0118094
0.0128476
0.0151955
0.018125
0.0225796
0.0286415
0.0297025
0.0228177
0.0160758
0.0165459
0.0218915
0.0262797
0.0255677
0.0201784
0.0133715
0.00903739
0.00794993
0.00419167
-0.00085294
-0.00296832
0.000529701
-3.49182
-3227.17
-1038.01
539.119
494.496
25.3407
-135.373
-58.0649
18.4024
24.779
4.62935
-4.95794
-2.67305
1.03254
1.7759
0.966179
0.432919
0.464289
0.632561
0.686457
0.651896
0.618742
0.616091
0.622118
0.616893
0.606418
0.605169
0.607913
0.605265
0.603105
0.600504
0.5947
0.592608
0.59296
0.592846
0.593213
0.592691
0.589166
0.581012
0.571455
0.563879
0.555706
0.547467
0.540301
0.5328
0.526479
0.520002
0.515175
0.512263
0.507032
0.504723
0.505181
0.500709
0.494085
0.493851
0.493551
0.48356
0.478035
0.48406
0.486429
0.479111
0.472099
0.470213
0.462876
0.454439
0.456702
0.456607
0.446888
0.437272
0.43174
0.426879
0.421538
0.420683
0.421043
0.417099
0.412356
0.410716
0.413016
0.412781
0.407616
0.402487
0.39613
0.390565
0.388476
0.385119
0.380735
0.380599
0.382066
0.378154
0.374102
0.374447
0.374547
0.37732
0.382323
0.381746
0.375618
0.369692
0.365711
0.357148
0.348329
0.350122
0.35345
0.350981
0.349356
0.35051
0.348445
0.339921
0.333787
0.33263
0.329021
0.324178
0.319779
0.316037
0.311927
0.304234
0.300352
0.302639
0.302722
0.301816
0.302988
0.301977
0.299474
0.299806
0.300099
0.299467
0.299667
0.297102
0.295043
0.296093
0.294329
0.291369
0.290695
0.290608
0.287558
0.281432
0.278931
0.276892
0.267668
0.256709
0.250351
0.245979
0.239577
0.235027
0.232998
0.226867
0.220163
0.216955
0.216906
0.217894
0.212836
0.206545
0.203686
0.198322
0.194774
0.196326
0.197462
0.196841
0.195216
0.192497
0.187621
0.17884
0.166785
0.156744
0.150969
0.148709
0.150923
0.153564
0.153943
0.151344
0.145546
0.143279
0.14195
0.135024
0.128203
0.125682
0.127877
0.133924
0.140349
0.143632
0.142202
0.140139
0.137805
0.133723
0.131969
0.128989
0.123302
0.121228
0.118543
0.112778
0.109358
0.107233
0.105954
0.104525
0.0991537
0.0935193
0.0898337
0.0853797
0.0810093
0.077192
0.0707378
0.060328
0.0506367
0.0461314
0.0445249
0.0418799
0.0386419
0.0352371
0.0286352
0.0212483
0.0204539
0.0253064
0.0291822
0.0309281
0.031544
0.0302929
0.0299272
0.0310922
0.0294561
0.0253302
0.0201613
0.0160007
0.0161103
0.0174388
0.0183033
0.0185769
0.0169184
0.0174995
0.0199349
0.0190158
0.0154667
0.0136975
0.0167625
0.0204449
0.0219722
0.0251968
0.0262563
0.0207024
0.0159761
0.0183045
0.0224448
0.0241178
0.0235357
0.0192283
0.0122443
0.00734483
0.00617304
0.00559703
0.00353242
0.00250252
0.00205001
-3.49603
-3227.18
-1038.03
539.11
494.491
25.3393
-135.371
-58.0664
18.399
24.7771
4.62741
-4.96049
-2.67389
1.0315
1.77274
0.964451
0.433553
0.460608
0.623013
0.681665
0.653969
0.619503
0.614516
0.619036
0.615962
0.608222
0.601636
0.60298
0.605918
0.601984
0.596585
0.593961
0.593905
0.594731
0.59534
0.594954
0.590766
0.584003
0.57642
0.569597
0.564746
0.555899
0.544583
0.538702
0.534463
0.529254
0.522191
0.513322
0.50774
0.504799
0.504231
0.506217
0.503321
0.49266
0.486662
0.489488
0.488468
0.485586
0.485189
0.481913
0.476993
0.471216
0.466826
0.463572
0.458838
0.456603
0.453929
0.445851
0.435755
0.429845
0.427652
0.423616
0.421417
0.421166
0.416971
0.412489
0.411221
0.412595
0.411823
0.405134
0.39969
0.39768
0.394472
0.391491
0.387938
0.380649
0.37576
0.376994
0.376382
0.374557
0.376488
0.377324
0.378478
0.381624
0.381699
0.378749
0.370845
0.360378
0.353474
0.348853
0.348727
0.35276
0.353503
0.350526
0.348467
0.346135
0.338265
0.332644
0.333985
0.330814
0.324872
0.322093
0.316567
0.307917
0.301654
0.300992
0.303376
0.303745
0.302298
0.301122
0.300745
0.301018
0.301396
0.299705
0.296588
0.296212
0.296349
0.295231
0.294654
0.292747
0.290784
0.29108
0.292473
0.291548
0.284897
0.276756
0.270653
0.264707
0.258301
0.252061
0.247779
0.241485
0.233286
0.231568
0.230456
0.223961
0.218032
0.214885
0.2136
0.210457
0.206361
0.204903
0.201165
0.196024
0.195107
0.196232
0.196885
0.196678
0.192554
0.183358
0.174251
0.167023
0.159781
0.153686
0.150282
0.151339
0.153475
0.152357
0.150139
0.146749
0.142244
0.138118
0.133895
0.130416
0.127607
0.128102
0.134291
0.140836
0.142783
0.141058
0.140815
0.140557
0.135049
0.130522
0.128022
0.121404
0.117416
0.117972
0.116004
0.111365
0.105595
0.102831
0.103118
0.0992011
0.0936225
0.0909614
0.0877121
0.081799
0.074539
0.0676739
0.0605503
0.0524865
0.0461681
0.0431873
0.0412426
0.0377216
0.0330492
0.0275939
0.022772
0.0228736
0.0274051
0.0315277
0.0338318
0.0337845
0.0293077
0.0244939
0.0246389
0.0255842
0.0246218
0.0231351
0.019911
0.0176065
0.0184248
0.0192385
0.0181169
0.0157979
0.0155077
0.0175483
0.0179841
0.0170015
0.017923
0.0214588
0.0233274
0.0205802
0.0182166
0.0192876
0.0200998
0.019639
0.020518
0.0222056
0.0238497
0.0240449
0.0194155
0.0123168
0.00666184
0.0042981
0.0054344
0.00658597
0.006225
0.00308776
-3.49839
-3227.19
-1038.03
539.113
494.496
25.3436
-135.372
-58.0695
18.3985
24.7798
4.6304
-4.95942
-2.67363
1.0337
1.77428
0.961646
0.428101
0.461541
0.631364
0.685256
0.656041
0.625258
0.615149
0.614839
0.615018
0.612334
0.605903
0.605404
0.609605
0.603785
0.595277
0.593333
0.592557
0.594015
0.598133
0.596204
0.587885
0.579769
0.574036
0.568373
0.562984
0.559794
0.554075
0.542061
0.530021
0.525802
0.523146
0.51606
0.509772
0.505257
0.503988
0.504884
0.501721
0.494029
0.488212
0.488938
0.489691
0.488387
0.48757
0.484776
0.479431
0.470482
0.463066
0.460359
0.458511
0.457824
0.453377
0.44511
0.438614
0.43188
0.426842
0.423949
0.420961
0.42105
0.42175
0.417827
0.412654
0.41084
0.408628
0.403484
0.399749
0.398217
0.396957
0.394424
0.388043
0.379595
0.374014
0.374406
0.377785
0.37782
0.377016
0.380414
0.38399
0.382725
0.380444
0.378093
0.367817
0.356599
0.353585
0.350236
0.348686
0.352954
0.354246
0.35184
0.348117
0.342882
0.338305
0.336351
0.335488
0.331376
0.325563
0.319947
0.314105
0.309825
0.305448
0.302086
0.302178
0.302538
0.302334
0.301688
0.29999
0.299463
0.300849
0.300785
0.297637
0.29516
0.295364
0.295591
0.293788
0.292234
0.293351
0.293023
0.29105
0.291074
0.287403
0.277294
0.266931
0.261522
0.259514
0.253627
0.247079
0.243949
0.238178
0.23284
0.229559
0.223674
0.218938
0.21621
0.213631
0.211141
0.206855
0.202904
0.200718
0.198441
0.196277
0.195688
0.196712
0.196707
0.192549
0.183675
0.173351
0.16483
0.158558
0.155112
0.154692
0.156055
0.154957
0.150092
0.147882
0.147308
0.14152
0.134004
0.131008
0.131135
0.131351
0.133165
0.13718
0.140939
0.142608
0.140431
0.138611
0.140153
0.136786
0.130635
0.127609
0.121487
0.116635
0.116727
0.113945
0.110717
0.107944
0.103442
0.101512
0.0988347
0.0933469
0.0908145
0.0895853
0.0830022
0.0727526
0.0657472
0.0608093
0.0538569
0.0464105
0.0410334
0.0387617
0.0364688
0.0317972
0.0283407
0.0272279
0.0270567
0.029147
0.0321048
0.0325074
0.0315765
0.0297699
0.026233
0.023909
0.022823
0.0227081
0.0248428
0.0240602
0.0196135
0.0170644
0.0160996
0.0165938
0.0191623
0.019502
0.0170197
0.0167338
0.0188904
0.0191266
0.0191401
0.0217054
0.0225986
0.0208316
0.0195716
0.019005
0.0189635
0.0201108
0.0216752
0.0220068
0.0206846
0.0177748
0.0133194
0.00845244
0.00568412
0.00486383
0.00422872
0.00518037
0.00361325
-3.50204
-3227.2
-1038.03
539.112
494.493
25.3385
-135.376
-58.0692
18.401
24.7797
4.62843
-4.95948
-2.67352
1.03368
1.77304
0.956764
0.424182
0.458846
0.627439
0.684328
0.656812
0.623527
0.614629
0.615342
0.6109
0.607295
0.606942
0.606609
0.604938
0.602001
0.596771
0.59042
0.590191
0.597041
0.59755
0.589836
0.5841
0.578265
0.571289
0.567646
0.564757
0.559395
0.551634
0.542517
0.531408
0.523457
0.519821
0.513012
0.509064
0.510268
0.506499
0.500281
0.49894
0.495731
0.487835
0.486952
0.490585
0.489517
0.486753
0.483834
0.478075
0.468019
0.461976
0.462135
0.459178
0.455405
0.451061
0.444137
0.438375
0.432339
0.429299
0.428291
0.422808
0.418763
0.417804
0.414892
0.413231
0.413239
0.409232
0.40237
0.398943
0.399747
0.398016
0.391234
0.385741
0.381742
0.37597
0.374287
0.376403
0.37622
0.378766
0.384219
0.384446
0.381314
0.378864
0.374805
0.365702
0.356608
0.354766
0.353289
0.348645
0.348331
0.352109
0.35235
0.346172
0.340532
0.338977
0.337472
0.335601
0.331877
0.325808
0.318874
0.312066
0.309233
0.307375
0.303
0.301868
0.302825
0.300812
0.299859
0.301559
0.301252
0.298663
0.29559
0.293495
0.294831
0.296593
0.295711
0.294236
0.293348
0.293406
0.292137
0.289497
0.289291
0.286607
0.277147
0.266551
0.260853
0.259651
0.254566
0.246843
0.244857
0.241916
0.234521
0.22925
0.225431
0.220785
0.214673
0.209527
0.208608
0.207704
0.205004
0.202845
0.199402
0.194668
0.192833
0.194489
0.195601
0.193127
0.185828
0.174662
0.163729
0.156535
0.154091
0.155792
0.158009
0.155813
0.150818
0.147983
0.144646
0.138585
0.133737
0.131281
0.130969
0.132349
0.134209
0.13743
0.141568
0.144596
0.143187
0.138142
0.136295
0.134366
0.128442
0.124985
0.122404
0.118845
0.116931
0.113709
0.110715
0.107258
0.101024
0.0986764
0.0993178
0.0963358
0.0912114
0.086793
0.0811771
0.072876
0.0657956
0.0604877
0.0529716
0.0445736
0.0387566
0.0363559
0.0348186
0.0318737
0.0306125
0.0313706
0.0305811
0.0311027
0.0341787
0.033326
0.0289829
0.0254985
0.0223809
0.0222823
0.0249831
0.0257279
0.0253998
0.0233582
0.0188619
0.0158043
0.0145389
0.0165342
0.0215477
0.0210764
0.0165197
0.0175273
0.0209242
0.0200644
0.0180261
0.0183305
0.020187
0.0221743
0.0218761
0.0195467
0.0177872
0.0180078
0.0216328
0.0228572
0.0173532
0.0127094
0.0110636
0.00826665
0.00688414
0.0071567
0.0068769
0.00723856
0.00397924
-3.50348
-3227.2
-1038.04
539.109
494.493
25.3395
-135.373
-58.0686
18.3972
24.7794
4.63457
-4.95549
-2.6774
1.03012
1.77677
0.958476
0.420397
0.459321
0.630178
0.681578
0.654163
0.628901
0.620527
0.615764
0.612878
0.610462
0.606269
0.606441
0.608159
0.603058
0.594889
0.591975
0.59538
0.59711
0.593042
0.587614
0.583081
0.576463
0.571478
0.569811
0.566833
0.561207
0.55204
0.541943
0.531229
0.521506
0.518927
0.516736
0.511073
0.507788
0.505235
0.502051
0.500811
0.497825
0.491303
0.488266
0.488656
0.488489
0.486801
0.482451
0.478289
0.471297
0.463821
0.462811
0.459214
0.45293
0.449589
0.444711
0.439962
0.435349
0.430114
0.427857
0.425024
0.420161
0.418566
0.41901
0.416178
0.410098
0.405143
0.403652
0.403704
0.402598
0.398364
0.390454
0.383544
0.380318
0.377382
0.37546
0.377305
0.380379
0.382578
0.384001
0.384969
0.383932
0.377896
0.370433
0.364305
0.357644
0.354502
0.353645
0.350689
0.350072
0.351691
0.349116
0.342286
0.339096
0.3415
0.341732
0.337406
0.331188
0.325005
0.319357
0.313208
0.309643
0.308002
0.304659
0.302972
0.302862
0.300832
0.299633
0.299915
0.299222
0.298017
0.295463
0.293626
0.295351
0.295059
0.293168
0.29544
0.29661
0.29411
0.292401
0.291066
0.288321
0.282664
0.275524
0.269512
0.26357
0.259207
0.254405
0.247328
0.245201
0.244767
0.238723
0.231691
0.225824
0.220022
0.214927
0.210653
0.208591
0.206948
0.204597
0.203384
0.200499
0.195817
0.193843
0.193867
0.193706
0.192142
0.185991
0.175024
0.163696
0.157039
0.156805
0.15902
0.159008
0.156632
0.152608
0.146716
0.140676
0.136099
0.133094
0.1324
0.133725
0.134707
0.135934
0.139139
0.141976
0.144157
0.144486
0.139242
0.134661
0.132475
0.126807
0.123456
0.123097
0.120668
0.118386
0.11377
0.108224
0.1059
0.102579
0.0990296
0.0981366
0.0966472
0.0915666
0.084837
0.0800886
0.0745437
0.0662555
0.0581414
0.0505499
0.0440416
0.0389207
0.0347615
0.0334265
0.0335691
0.0332929
0.0340686
0.0339728
0.0326489
0.0336404
0.033104
0.0283855
0.0249815
0.0231258
0.0222518
0.0243966
0.0252257
0.0238952
0.0236818
0.0209619
0.016447
0.0165511
0.0197295
0.02134
0.0203013
0.0177869
0.0171782
0.0196635
0.0208509
0.0186826
0.0181769
0.0208443
0.0225186
0.0218919
0.0196146
0.0176538
0.0181757
0.0206317
0.0207436
0.0156236
0.0108928
0.0102714
0.00910149
0.00815789
0.00663027
0.00449837
0.00544648
0.003357
-3.50513
-3227.2
-1038.04
539.111
494.494
25.3396
-135.372
-58.0678
18.3953
24.7767
4.63322
-4.95461
-2.67289
1.03181
1.77007
0.955599
0.424635
0.458214
0.625696
0.681529
0.655581
0.62649
0.617196
0.617765
0.614349
0.607411
0.606975
0.608767
0.604538
0.59708
0.5917
0.591311
0.594362
0.594087
0.589237
0.585096
0.582767
0.577441
0.571934
0.57054
0.566742
0.557133
0.545854
0.537475
0.531804
0.524822
0.518925
0.515907
0.511167
0.506218
0.505951
0.504532
0.498115
0.495291
0.494794
0.489893
0.485499
0.486339
0.486733
0.480177
0.473136
0.470794
0.467799
0.463254
0.459299
0.455472
0.44899
0.441323
0.437061
0.433157
0.43176
0.432823
0.426962
0.420091
0.418563
0.415705
0.413241
0.411576
0.406637
0.404631
0.40399
0.398912
0.396193
0.392433
0.383294
0.380438
0.380459
0.375137
0.375655
0.382603
0.384624
0.384415
0.385457
0.382171
0.373833
0.367044
0.364244
0.359649
0.353032
0.351455
0.353328
0.351715
0.347815
0.344797
0.34071
0.338728
0.341776
0.342062
0.337335
0.331252
0.324157
0.318183
0.313467
0.310017
0.309359
0.30645
0.301007
0.299354
0.299693
0.299967
0.301664
0.300117
0.294371
0.291243
0.292816
0.294162
0.292364
0.29386
0.298987
0.296446
0.290437
0.291266
0.291671
0.286386
0.279739
0.274697
0.270946
0.264595
0.258089
0.255574
0.251121
0.245924
0.243313
0.23894
0.233452
0.227506
0.220541
0.215814
0.211501
0.206802
0.205326
0.204123
0.200674
0.198182
0.197326
0.196125
0.194551
0.193423
0.190454
0.183818
0.174051
0.1633
0.157596
0.158953
0.160854
0.159645
0.157283
0.152998
0.144789
0.136567
0.133283
0.133901
0.134675
0.134071
0.134194
0.137873
0.143009
0.14378
0.142072
0.141728
0.137688
0.132649
0.131232
0.126615
0.122527
0.123163
0.122127
0.118966
0.112611
0.105706
0.104423
0.103029
0.0994574
0.0978323
0.0958492
0.0908965
0.0837982
0.077742
0.0730513
0.0655895
0.0561006
0.0487806
0.0427811
0.0364533
0.0336177
0.0349699
0.0347031
0.0334208
0.0351345
0.0365531
0.036385
0.0359945
0.0318779
0.0260083
0.0239774
0.0234578
0.0229897
0.023696
0.0231758
0.0227654
0.0229822
0.0200605
0.0182192
0.0208958
0.0214388
0.0194473
0.0189135
0.0186006
0.0185391
0.0194648
0.019869
0.0189106
0.0180544
0.0195445
0.02085
0.0189907
0.016796
0.0189788
0.0215277
0.0196923
0.0176821
0.0154141
0.0110901
0.00917915
0.00803862
0.00679107
0.0056651
0.00470864
0.00499223
0.00271029
-3.50583
-3227.2
-1038.04
539.108
494.493
25.3403
-135.373
-58.0669
18.3986
24.7792
4.63617
-4.95181
-2.67719
1.0257
1.77126
0.960208
0.428106
0.456624
0.620234
0.680736
0.654221
0.622498
0.620522
0.622412
0.611865
0.605659
0.609534
0.609921
0.605025
0.601502
0.595811
0.591638
0.592861
0.590177
0.586019
0.584832
0.581341
0.576856
0.574664
0.572043
0.565962
0.555748
0.544677
0.537284
0.531564
0.524678
0.519297
0.517877
0.514977
0.506729
0.502528
0.504797
0.502759
0.497271
0.494404
0.491015
0.485052
0.482302
0.484747
0.48231
0.475505
0.472844
0.468917
0.462405
0.457015
0.452883
0.450544
0.446124
0.439801
0.436032
0.432331
0.429057
0.427071
0.423554
0.420041
0.418368
0.415756
0.411583
0.407507
0.404185
0.402151
0.399902
0.3961
0.391312
0.3863
0.383326
0.381749
0.378909
0.378196
0.382712
0.386976
0.385071
0.381759
0.38056
0.375765
0.368956
0.364423
0.357834
0.351167
0.351234
0.354988
0.354244
0.347253
0.341
0.338701
0.339772
0.343534
0.343409
0.337547
0.331449
0.324723
0.318143
0.314286
0.310825
0.30946
0.309047
0.303783
0.299477
0.299614
0.298349
0.297757
0.297805
0.294711
0.29353
0.2943
0.292524
0.291368
0.293733
0.29703
0.296149
0.291948
0.291184
0.291573
0.286242
0.278685
0.275901
0.273147
0.264697
0.258303
0.257343
0.253799
0.247547
0.243319
0.240773
0.237126
0.229413
0.221548
0.217394
0.211076
0.205226
0.205291
0.20398
0.200385
0.199159
0.19767
0.195938
0.195307
0.194027
0.190079
0.181826
0.172167
0.164567
0.160424
0.161788
0.164853
0.162615
0.156845
0.150372
0.141827
0.135225
0.133826
0.134443
0.135127
0.135833
0.136987
0.140312
0.145052
0.144832
0.140469
0.140203
0.138131
0.130674
0.12773
0.127109
0.125465
0.125051
0.122255
0.117226
0.111195
0.106017
0.105444
0.104693
0.100308
0.0956902
0.0925015
0.0895649
0.0843258
0.0780981
0.0727683
0.0651862
0.0552309
0.0462391
0.0395078
0.0356609
0.0343661
0.0349799
0.0362857
0.0366952
0.0381649
0.0395867
0.036582
0.03293
0.0313382
0.0283723
0.0263518
0.0263165
0.0238827
0.0210829
0.0209025
0.0215252
0.021878
0.0217151
0.0223305
0.0239714
0.0226446
0.0192607
0.0191013
0.0203351
0.0193048
0.0175561
0.0184061
0.0200082
0.0199111
0.0187903
0.0174304
0.0175389
0.0198106
0.0218837
0.0207332
0.0155055
0.0132896
0.0148461
0.0130831
0.00958702
0.00674829
0.00540053
0.00524219
0.00474335
0.0050026
0.00313437
-3.50576
-3227.2
-1038.03
539.109
494.492
25.3379
-135.377
-58.0681
18.4027
24.7831
4.63371
-4.95618
-2.6729
1.0299
1.76604
0.956083
0.426023
0.453724
0.620159
0.678869
0.654713
0.624368
0.614251
0.616921
0.617178
0.615017
0.613422
0.606045
0.599037
0.599815
0.597941
0.590031
0.587079
0.58876
0.586857
0.582215
0.580501
0.57819
0.572495
0.567873
0.562315
0.554082
0.54654
0.53695
0.528334
0.524391
0.51965
0.51681
0.515203
0.508737
0.50456
0.504425
0.500706
0.496661
0.494189
0.48877
0.483102
0.482929
0.48512
0.480454
0.472827
0.47186
0.468918
0.461602
0.459043
0.45549
0.44876
0.444579
0.440216
0.434521
0.432204
0.43161
0.427023
0.422263
0.421071
0.417803
0.414893
0.414323
0.408688
0.401949
0.40072
0.398412
0.394023
0.39172
0.388285
0.384358
0.382056
0.380704
0.381256
0.383499
0.386762
0.385435
0.378488
0.376341
0.375732
0.368664
0.36249
0.358357
0.352602
0.350406
0.351683
0.349939
0.344743
0.341345
0.34162
0.341882
0.341286
0.339963
0.336024
0.331379
0.325308
0.317436
0.314197
0.31359
0.310073
0.306658
0.302831
0.298987
0.299631
0.299569
0.29606
0.294316
0.293413
0.291885
0.291226
0.292
0.294384
0.295029
0.292933
0.291199
0.290387
0.290688
0.291391
0.288306
0.2802
0.273664
0.270439
0.264889
0.259457
0.258154
0.255452
0.25092
0.246492
0.239982
0.2343
0.229581
0.223061
0.217867
0.212788
0.206101
0.202702
0.200858
0.198611
0.198661
0.198225
0.197218
0.19688
0.193975
0.188301
0.179767
0.170115
0.164677
0.163383
0.164183
0.165931
0.163695
0.156271
0.147905
0.14039
0.135063
0.133536
0.13417
0.134652
0.13551
0.138307
0.14226
0.146585
0.146529
0.139678
0.136105
0.13496
0.129221
0.126403
0.127467
0.12741
0.126976
0.12164
0.113523
0.109465
0.107315
0.105214
0.103261
0.10018
0.0961011
0.0914457
0.0874065
0.0832408
0.0767114
0.070085
0.0639812
0.0541355
0.0425209
0.036341
0.0354216
0.0346272
0.0345003
0.0366634
0.0386975
0.0410792
0.0422876
0.0379555
0.032912
0.0305046
0.0276161
0.0266943
0.0270995
0.0241736
0.021569
0.0213093
0.0203035
0.0197753
0.0214232
0.0241938
0.0258234
0.0230209
0.019422
0.0197378
0.021433
0.0215887
0.0176234
0.0128848
0.0142074
0.0186764
0.0206095
0.0194451
0.0184354
0.0193117
0.020272
0.0185411
0.0142825
0.0133587
0.0150467
0.012928
0.00934963
0.00732566
0.00377649
0.00287141
0.00575317
0.00608021
0.00326003
-3.50629
-3227.2
-1038.04
539.108
494.49
25.3365
-135.376
-58.0693
18.3986
24.782
4.63824
-4.95086
-2.67378
1.02729
1.76852
0.957911
0.425822
0.454434
0.621245
0.678581
0.650662
0.622635
0.616669
0.616277
0.615409
0.615254
0.611254
0.606557
0.60575
0.601498
0.592235
0.589268
0.58804
0.584419
0.584449
0.583933
0.580777
0.578406
0.571856
0.564219
0.561303
0.555236
0.545936
0.538209
0.530542
0.525193
0.519974
0.515083
0.514734
0.511396
0.505022
0.504229
0.50417
0.498344
0.492004
0.488357
0.483964
0.480352
0.481616
0.482891
0.47855
0.471794
0.46696
0.462873
0.45804
0.452474
0.450562
0.44914
0.442739
0.437583
0.434197
0.429263
0.425852
0.424236
0.422183
0.420368
0.418865
0.414574
0.406385
0.400443
0.400546
0.399777
0.395435
0.393033
0.390945
0.386981
0.384035
0.383633
0.38519
0.38548
0.384786
0.382675
0.377964
0.377372
0.377414
0.369059
0.359357
0.355574
0.354513
0.353057
0.350823
0.348036
0.343839
0.340807
0.342986
0.344615
0.341332
0.338035
0.3345
0.329693
0.325703
0.320249
0.316061
0.31418
0.309592
0.306136
0.304758
0.301301
0.299737
0.298789
0.29522
0.293374
0.29221
0.290228
0.290811
0.293387
0.295659
0.294615
0.290224
0.28904
0.290969
0.289972
0.288753
0.289105
0.284675
0.276227
0.271374
0.266583
0.26052
0.256374
0.253402
0.252704
0.251849
0.245351
0.238184
0.231925
0.221522
0.213513
0.210724
0.207151
0.204865
0.202744
0.199097
0.198231
0.19763
0.196809
0.196828
0.193006
0.186786
0.179692
0.171222
0.167519
0.16797
0.166755
0.165661
0.163251
0.155257
0.146625
0.140769
0.136115
0.133994
0.134268
0.134759
0.137094
0.142071
0.144408
0.144749
0.146004
0.141694
0.134895
0.132307
0.128297
0.125961
0.128362
0.129073
0.127239
0.121561
0.113369
0.110221
0.109308
0.105767
0.102143
0.0991247
0.0950033
0.0902186
0.086083
0.082404
0.077347
0.0700087
0.0607484
0.0506023
0.0412154
0.0351483
0.0346159
0.0354088
0.0352804
0.0393656
0.0434385
0.0425642
0.0418045
0.0389745
0.0330855
0.0306802
0.0298031
0.0286643
0.0283716
0.0254379
0.0213398
0.0198188
0.0188939
0.019856
0.0241594
0.0265616
0.0257021
0.0245627
0.0238224
0.0225076
0.0203435
0.0184342
0.015242
0.0112266
0.0127403
0.0176401
0.0212029
0.0238776
0.0242817
0.0205652
0.0155469
0.0140605
0.0127783
0.0128598
0.015409
0.0142806
0.007519
0.00362054
0.00460046
0.00518417
0.00702463
0.00607865
0.00230886
-3.50215
-3227.2
-1038.04
539.105
494.493
25.3418
-135.374
-58.0714
18.396
24.7823
4.63526
-4.95616
-2.66989
1.03476
1.77081
0.954021
0.420989
0.455454
0.620662
0.672831
0.64924
0.622832
0.612359
0.615206
0.62044
0.6177
0.611366
0.609127
0.606292
0.597971
0.590489
0.586365
0.583461
0.583846
0.58454
0.583101
0.580926
0.574552
0.567171
0.564663
0.562681
0.555187
0.544118
0.535715
0.530397
0.526576
0.520308
0.512943
0.511719
0.512123
0.507165
0.503286
0.503933
0.500435
0.49107
0.484344
0.483819
0.484381
0.481145
0.47742
0.473929
0.469444
0.467914
0.46706
0.460442
0.452427
0.449721
0.448162
0.441787
0.436598
0.434756
0.431769
0.427729
0.423439
0.420958
0.420228
0.417188
0.412518
0.408219
0.402761
0.398782
0.397729
0.396103
0.394469
0.392934
0.389382
0.384798
0.38325
0.385949
0.385381
0.382051
0.382158
0.380587
0.376958
0.374045
0.367299
0.358882
0.354528
0.353594
0.35232
0.348365
0.345726
0.345734
0.343387
0.341847
0.342815
0.33981
0.336014
0.333073
0.328084
0.325702
0.322794
0.316879
0.31411
0.310019
0.303803
0.302683
0.301986
0.299298
0.298104
0.295719
0.292164
0.290217
0.288895
0.28929
0.292323
0.294442
0.293078
0.289407
0.286654
0.287685
0.289982
0.289729
0.288478
0.283927
0.275645
0.27137
0.26903
0.262243
0.256499
0.254769
0.253693
0.252268
0.247136
0.239105
0.23192
0.221905
0.21264
0.20998
0.20673
0.202995
0.201263
0.198345
0.198085
0.19891
0.196629
0.194623
0.191962
0.186312
0.179008
0.172229
0.169895
0.170731
0.1687
0.164523
0.160513
0.154018
0.146781
0.14136
0.136434
0.133816
0.133594
0.13388
0.137456
0.144295
0.147093
0.144754
0.143028
0.138445
0.131867
0.13058
0.129454
0.127443
0.128744
0.12863
0.126019
0.120458
0.11277
0.109976
0.109696
0.106033
0.101404
0.0973098
0.0945517
0.0910429
0.0838281
0.0783023
0.0753241
0.068182
0.0575982
0.0478697
0.0395507
0.0340756
0.0336905
0.0356454
0.0377178
0.0418778
0.0442622
0.0429485
0.0421441
0.0388867
0.0334816
0.0321599
0.0316466
0.0296231
0.0279419
0.0243689
0.021179
0.0201684
0.0181321
0.0195112
0.0247557
0.0268194
0.0267615
0.0262344
0.023752
0.0221023
0.0196639
0.0157011
0.0131831
0.0110925
0.0123312
0.0178588
0.0228009
0.024475
0.0228384
0.0184144
0.012793
0.011613
0.0131289
0.0130798
0.0132097
0.0114448
0.00599058
0.00449589
0.0073983
0.0068049
0.00529894
0.00614134
0.00421853
-3.50368
-3227.2
-1038.04
539.103
494.491
25.3417
-135.372
-58.0694
18.3948
24.7776
4.6376
-4.95145
-2.67496
1.02993
1.77308
0.960811
0.426279
0.453111
0.618595
0.673429
0.643954
0.621418
0.61929
0.616004
0.615287
0.617005
0.615216
0.611454
0.603656
0.593552
0.588598
0.586874
0.583434
0.582396
0.584934
0.583912
0.578486
0.571391
0.566974
0.566683
0.56402
0.553471
0.542784
0.537168
0.531805
0.526645
0.520924
0.512365
0.509935
0.511811
0.509081
0.505948
0.504871
0.499292
0.490485
0.485883
0.484849
0.483876
0.480775
0.476728
0.473462
0.470256
0.467546
0.464653
0.460489
0.454661
0.450655
0.450436
0.446353
0.4386
0.434469
0.43166
0.427143
0.423048
0.423082
0.42348
0.417604
0.411364
0.408419
0.402628
0.398083
0.399416
0.399168
0.397128
0.395845
0.391842
0.386598
0.384318
0.385652
0.38533
0.382366
0.382937
0.382584
0.376946
0.371362
0.365997
0.359636
0.354684
0.352011
0.351029
0.349013
0.346031
0.345864
0.344896
0.34221
0.342232
0.340178
0.335458
0.332602
0.328741
0.325286
0.323058
0.318218
0.314501
0.311034
0.305314
0.302389
0.301621
0.300139
0.298475
0.295083
0.29153
0.290312
0.289899
0.290251
0.291002
0.290315
0.289919
0.289949
0.288115
0.28798
0.290356
0.2892
0.286009
0.28341
0.278838
0.274273
0.270096
0.263827
0.258973
0.256941
0.255215
0.254151
0.250109
0.2407
0.231905
0.22286
0.213304
0.208836
0.205169
0.201736
0.201779
0.200295
0.199432
0.199187
0.196086
0.194069
0.191554
0.185512
0.179927
0.175727
0.172529
0.171511
0.169595
0.165147
0.160829
0.154911
0.146723
0.140339
0.136286
0.134014
0.134134
0.136238
0.139903
0.144886
0.147765
0.144476
0.139522
0.135982
0.132219
0.131335
0.131123
0.129135
0.128945
0.127718
0.12451
0.121209
0.115575
0.111032
0.109346
0.106243
0.10143
0.0968064
0.0932349
0.088923
0.0820837
0.0770892
0.0736169