/*--------------------------------*- C++ -*----------------------------------*\
| =========                 |                                                 |
| \\      /  F ield         | OpenFOAM: The Open Source CFD Toolbox           |
|  \\    /   O peration     | Version:  2406                                  |
|   \\  /    A nd           | Website:  www.openfoam.com                      |
|    \\/     M anipulation  |                                                 |
\*---------------------------------------------------------------------------*/
FoamFile
{
    version     2.0;
    format      ascii;
    arch        "LSB;label=32;scalar=64";
    class       surfaceScalarField;
    location    "2.15";
    object      phi;
}
// * * * * * * * * * * * * * * * * * * * * * * * * * * * * * * * * * * * * * //

dimensions      [0 3 -1 0 0 0 0];

oriented        oriented;

internalField   nonuniform List<scalar> 
12225
(
0.51114
1.6894e-06
0.511133
6.25467e-06
0.511126
7.48107e-06
0.51112
5.65086e-06
0.511116
4.66313e-06
0.511111
4.82747e-06
0.511105
5.37244e-06
0.5111
5.34093e-06
0.511095
4.9884e-06
0.51109
4.92546e-06
0.511085
5.11309e-06
0.51108
5.08262e-06
0.511075
4.93291e-06
0.51107
5.4331e-06
0.511063
6.12517e-06
0.511058
5.86249e-06
0.511052
5.26463e-06
0.511047
5.35004e-06
0.511041
5.67985e-06
0.511036
5.40073e-06
0.511031
5.13892e-06
0.511025
5.44753e-06
0.51102
5.62293e-06
0.511014
5.51359e-06
0.511009
5.30649e-06
0.511004
5.25752e-06
0.510998
5.59266e-06
0.510992
5.73894e-06
0.510987
5.65945e-06
0.510981
5.75862e-06
0.510975
5.62313e-06
0.51097
5.26992e-06
0.510965
5.19602e-06
0.510959
5.34729e-06
0.510954
5.47129e-06
0.510949
5.4376e-06
0.510943
5.17099e-06
0.510939
4.82616e-06
0.510934
4.816e-06
0.510929
5.0019e-06
0.510924
5.11998e-06
0.510918
5.49522e-06
0.510912
5.94567e-06
0.510906
5.94125e-06
0.510901
5.61019e-06
0.510895
5.27018e-06
0.51089
5.05726e-06
0.510885
5.0668e-06
0.51088
5.25178e-06
0.510874
5.48389e-06
0.510869
5.74448e-06
0.510863
5.87013e-06
0.510857
5.83346e-06
0.510851
5.91384e-06
0.510845
5.80972e-06
0.51084
5.39614e-06
0.510835
5.2605e-06
0.510829
5.41009e-06
0.510824
5.64601e-06
0.510818
5.89799e-06
0.510812
5.92479e-06
0.510806
5.78532e-06
0.5108
5.59509e-06
0.510795
5.37887e-06
0.51079
5.07684e-06
0.510785
4.61479e-06
0.510781
4.44017e-06
0.510776
4.90097e-06
0.51077
5.62235e-06
0.510764
6.10549e-06
0.510758
6.3226e-06
0.510752
6.29853e-06
0.510746
5.85099e-06
0.51074
5.32953e-06
0.510735
5.14193e-06
0.51073
5.22406e-06
0.510725
5.36357e-06
0.510719
5.2605e-06
0.510714
5.14993e-06
0.510709
5.31303e-06
0.510704
5.33379e-06
0.510698
5.26328e-06
0.510693
5.34802e-06
0.510688
5.22513e-06
0.510683
4.96869e-06
0.510678
5.07823e-06
0.510672
5.38405e-06
0.510667
5.57374e-06
0.510661
5.83156e-06
0.510655
6.018e-06
0.510649
5.87351e-06
0.510643
5.63287e-06
0.510638
5.3024e-06
0.510633
4.84051e-06
0.510629
4.67416e-06
0.510624
5.00313e-06
0.510618
5.4269e-06
0.510613
5.62019e-06
0.510607
5.69692e-06
0.510601
5.65805e-06
0.510596
5.44038e-06
0.510591
5.27697e-06
0.510585
5.28245e-06
0.51058
5.36935e-06
0.510574
5.45767e-06
0.510569
5.63972e-06
0.510563
5.92176e-06
0.510557
5.87649e-06
0.510551
5.52987e-06
0.510546
5.3485e-06
0.510541
5.27791e-06
0.510536
5.23167e-06
0.51053
5.2682e-06
0.510525
5.35605e-06
0.510519
5.54831e-06
0.510514
5.57157e-06
0.510509
5.22231e-06
0.510504
5.06663e-06
0.510498
5.46982e-06
0.510492
5.90662e-06
0.510486
5.97477e-06
0.51048
5.80829e-06
0.510475
5.50556e-06
0.51047
5.22668e-06
0.510464
5.24376e-06
0.510459
5.52425e-06
0.510453
5.77519e-06
0.510447
5.78935e-06
0.510442
5.73163e-06
0.510436
5.82239e-06
0.51043
5.83953e-06
0.510424
5.4943e-06
0.51042
4.92296e-06
0.510415
4.64638e-06
0.51041
4.93838e-06
0.510405
5.34011e-06
0.510399
5.46868e-06
0.510394
5.50565e-06
0.510388
5.44992e-06
0.510383
5.19199e-06
0.510378
5.09956e-06
0.510373
5.3005e-06
0.510367
5.38753e-06
0.510362
5.44096e-06
0.510356
5.69114e-06
0.51035
5.79967e-06
0.510345
5.65401e-06
0.510339
5.38079e-06
0.510334
5.06526e-06
0.510329
5.06302e-06
0.510324
5.38847e-06
0.510318
5.68636e-06
0.510312
5.86997e-06
0.510306
5.86726e-06
0.510301
5.66073e-06
0.510295
5.43743e-06
0.51029
5.20742e-06
0.510285
4.99744e-06
0.51028
5.03398e-06
0.510275
5.42626e-06
0.510269
5.94506e-06
0.510262
6.1693e-06
0.510256
5.93208e-06
0.510251
5.52849e-06
0.510246
5.31789e-06
0.51024
5.25343e-06
0.510235
5.27208e-06
0.51023
5.29622e-06
0.510225
5.28604e-06
0.510219
5.40557e-06
0.510214
5.50278e-06
0.510208
5.45745e-06
0.510203
5.59408e-06
0.510197
5.88944e-06
0.510191
5.95614e-06
0.510185
5.74153e-06
0.51018
5.41045e-06
0.510174
5.07039e-06
0.51017
4.93203e-06
0.510164
5.21608e-06
0.510159
5.67523e-06
0.510153
5.85692e-06
0.510147
5.6232e-06
0.510142
5.1706e-06
0.510137
4.99023e-06
0.510132
5.24641e-06
0.510126
5.52541e-06
0.510121
5.563e-06
0.510115
5.39724e-06
0.51011
5.23959e-06
0.510105
5.34589e-06
0.510099
5.53783e-06
0.510094
5.53367e-06
0.510088
5.4322e-06
0.510083
5.39738e-06
0.510077
5.3938e-06
0.510072
5.35921e-06
0.510067
5.28831e-06
0.510062
5.16772e-06
0.510056
5.15331e-06
0.510051
5.44731e-06
0.510045
5.77735e-06
0.51004
5.64849e-06
0.510034
5.14879e-06
0.51003
4.88721e-06
0.510025
5.01807e-06
0.510019
5.19783e-06
0.510014
5.43883e-06
0.510008
5.7595e-06
0.510002
5.86438e-06
0.509997
5.74126e-06
0.509991
5.50105e-06
0.509986
5.20229e-06
0.509981
5.07868e-06
0.509976
5.20289e-06
0.50997
5.36952e-06
0.509965
5.4846e-06
0.509959
5.56885e-06
0.509953
5.66765e-06
0.509948
5.88902e-06
0.509942
6.03926e-06
0.509936
5.77229e-06
0.50993
5.29976e-06
0.509925
4.97041e-06
0.509921
4.8691e-06
0.509915
5.10757e-06
0.50991
5.48281e-06
0.509904
5.61002e-06
0.509899
5.50921e-06
0.509893
5.42686e-06
0.509888
5.52077e-06
0.509882
5.70844e-06
0.509876
5.83993e-06
0.509871
5.84382e-06
0.509865
5.57591e-06
0.50986
5.23895e-06
0.509854
5.2623e-06
0.509849
5.52253e-06
0.509843
5.56588e-06
0.509838
5.36483e-06
0.509833
5.19549e-06
0.509828
5.2312e-06
0.509822
5.43313e-06
0.509817
5.59288e-06
0.509811
5.50926e-06
0.509806
5.28695e-06
0.5098
5.38113e-06
0.509795
5.71142e-06
0.509788
6.34332e-06
5.78024e-06
0.511145
-2.12732e-07
0.511151
4.25646e-07
0.511157
1.79092e-06
0.51116
2.70177e-06
0.511162
2.41406e-06
0.511165
1.94744e-06
0.511168
1.90848e-06
0.511172
2.10073e-06
0.511174
2.39431e-06
0.511176
2.76863e-06
0.511179
2.96488e-06
0.511181
2.84283e-06
0.511183
2.6627e-06
0.511186
2.49589e-06
0.51119
2.43859e-06
0.511193
2.60183e-06
0.511195
2.76566e-06
0.511198
2.68737e-06
0.511201
2.45649e-06
0.511205
2.09205e-06
0.511208
1.93904e-06
0.511211
2.34201e-06
0.511214
2.55845e-06
0.511217
2.19523e-06
0.51122
2.177e-06
0.511223
2.52385e-06
0.511226
2.4418e-06
0.51123
2.28335e-06
0.511233
2.4019e-06
0.511237
2.33813e-06
0.51124
2.07798e-06
0.511243
2.02603e-06
0.511246
2.21705e-06
0.511249
2.57597e-06
0.511251
3.05196e-06
0.511254
3.2003e-06
0.511256
2.78285e-06
0.511259
2.25613e-06
0.511261
2.17564e-06
0.511264
2.49389e-06
0.511266
2.8148e-06
0.511269
3.01539e-06
0.511271
3.10447e-06
0.511274
3.00923e-06
0.511277
2.66386e-06
0.51128
2.21234e-06
0.511283
2.03189e-06
0.511286
2.16886e-06
0.511289
2.37278e-06
0.511292
2.43112e-06
0.511296
2.21855e-06
0.5113
2.01669e-06
0.511303
2.09268e-06
0.511307
2.36573e-06
0.51131
2.55592e-06
0.511313
2.47276e-06
0.511316
2.64968e-06
0.511318
3.06867e-06
0.511321
2.90255e-06
0.511324
2.61255e-06
0.511327
2.88493e-06
0.51133
2.91621e-06
0.511333
2.36242e-06
0.511336
2.12625e-06
0.511339
2.33719e-06
0.511341
2.35409e-06
0.511344
2.19233e-06
0.511346
2.14648e-06
0.51135
2.26653e-06
0.511353
2.54037e-06
0.511357
2.81915e-06
0.51136
2.95151e-06
0.511363
2.80713e-06
0.511366
2.4919e-06
0.511369
2.42972e-06
0.511371
2.55889e-06
0.511374
2.56965e-06
0.511377
2.50121e-06
0.51138
2.45739e-06
0.511383
2.52363e-06
0.511385
2.73031e-06
0.511387
2.92551e-06
0.51139
2.8722e-06
0.511393
2.63599e-06
0.511395
2.55636e-06
0.511397
2.61699e-06
0.5114
2.52433e-06
0.511404
2.22025e-06
0.511407
1.9913e-06
0.511411
2.07229e-06
0.511415
2.16398e-06
0.511419
2.0383e-06
0.511422
1.97506e-06
0.511425
2.18042e-06
0.511427
2.48959e-06
0.511429
2.8032e-06
0.511431
3.07624e-06
0.511434
3.11561e-06
0.511437
3.03472e-06
0.511439
2.96995e-06
0.511442
2.58432e-06
0.511445
2.05709e-06
0.511449
1.93779e-06
0.511452
2.02607e-06
0.511456
1.97047e-06
0.511459
1.94067e-06
0.511463
2.17794e-06
0.511466
2.43249e-06
0.511469
2.43628e-06
0.511472
2.44673e-06
0.511475
2.58097e-06
0.511478
2.63386e-06
0.51148
2.70486e-06
0.511483
3.0096e-06
0.511485
3.38011e-06
0.511487
3.3212e-06
0.511489
2.78999e-06
0.511492
2.2538e-06
0.511496
1.8822e-06
0.5115
1.69817e-06
0.511504
1.8855e-06
0.511508
2.29968e-06
0.511511
2.48897e-06
0.511513
2.4304e-06
0.511516
2.47764e-06
0.511519
2.71292e-06
0.511522
2.91375e-06
0.511525
2.88384e-06
0.511528
2.67217e-06
0.511531
2.54989e-06
0.511534
2.55705e-06
0.511537
2.5388e-06
0.51154
2.48164e-06
0.511542
2.36739e-06
0.511545
2.20803e-06
0.511548
2.15623e-06
0.511551
2.21725e-06
0.511554
2.28064e-06
0.511558
2.41868e-06
0.51156
2.54569e-06
0.511563
2.38034e-06
0.511566
2.14445e-06
0.511569
2.19613e-06
0.511572
2.44335e-06
0.511575
2.70339e-06
0.511578
2.88529e-06
0.511581
2.94761e-06
0.511583
2.89806e-06
0.511586
2.66408e-06
0.511588
2.4651e-06
0.511591
2.51076e-06
0.511594
2.57135e-06
0.511598
2.54915e-06
0.511601
2.48524e-06
0.511604
2.38395e-06
0.511607
2.42846e-06
0.51161
2.51846e-06
0.511613
2.35733e-06
0.511615
2.18099e-06
0.511619
2.24754e-06
0.511622
2.37563e-06
0.511626
2.44434e-06
0.511629
2.50582e-06
0.511632
2.46276e-06
0.511635
2.29558e-06
0.511639
2.12812e-06
0.511642
2.07348e-06
0.511645
2.30926e-06
0.511647
2.72199e-06
0.51165
3.06669e-06
0.511652
3.2677e-06
0.511654
3.27175e-06
0.511657
3.0768e-06
0.51166
2.84867e-06
0.511663
2.82328e-06
0.511666
2.97495e-06
0.511668
2.92112e-06
0.511671
2.62494e-06
0.511673
2.50407e-06
0.511676
2.5266e-06
0.511679
2.26535e-06
0.511683
1.94957e-06
0.511686
2.08766e-06
0.511689
2.34107e-06
0.511692
2.36402e-06
0.511695
2.45054e-06
0.511698
2.60291e-06
0.511701
2.6145e-06
0.511703
2.51384e-06
0.511706
2.3715e-06
0.511709
2.32562e-06
0.511713
2.30607e-06
0.511716
2.22786e-06
0.511719
2.42444e-06
0.511721
2.8794e-06
0.511724
3.0547e-06
0.511726
2.90443e-06
0.511729
2.80212e-06
0.511731
2.73423e-06
0.511734
2.61533e-06
0.511737
2.61688e-06
0.51174
2.7631e-06
0.511742
2.8764e-06
0.511745
2.77298e-06
0.511747
2.56662e-06
0.511749
2.62964e-06
0.511752
2.8217e-06
0.511754
2.7937e-06
0.511758
2.62242e-06
0.511761
2.30397e-06
0.511765
1.97962e-06
0.511768
2.16572e-06
0.511771
2.74843e-06
0.511773
3.0764e-06
0.511775
3.03487e-06
0.511777
2.81391e-06
0.51178
2.47398e-06
0.511784
2.27723e-06
0.511787
2.34015e-06
0.511791
2.38813e-06
0.511794
2.38682e-06
0.511797
2.4485e-06
0.5118
2.49159e-06
0.511803
2.50508e-06
0.511805
2.581e-06
0.511807
2.70913e-06
0.51181
2.65213e-06
0.511814
2.30726e-06
0.511817
2.05316e-06
0.51182
2.14765e-06
0.511824
2.33417e-06
0.511827
2.31311e-06
0.511831
2.12101e-06
0.511834
2.10588e-06
0.511838
2.39634e-06
0.51184
2.64039e-06
0.511843
2.64616e-06
0.511846
2.46442e-06
0.511849
2.26646e-06
0.511852
2.2423e-06
0.511855
2.43789e-06
0.511858
2.62671e-06
0.51186
2.68554e-06
0.511863
2.74927e-06
0.511866
2.81294e-06
0.511868
2.784e-06
0.511871
2.60899e-06
0.511875
2.37857e-06
0.511879
2.17666e-06
2.45974e-06
0.511143
2.08746e-07
0.511143
8.73272e-07
0.511143
1.44833e-06
0.511144
1.82536e-06
0.511145
1.91747e-06
0.511145
1.58289e-06
0.511146
1.21627e-06
0.511146
1.36359e-06
0.511147
1.71801e-06
0.511148
1.97317e-06
0.511148
2.37159e-06
0.511149
2.67036e-06
0.511149
2.4947e-06
0.511149
2.18208e-06
0.51115
2.06999e-06
0.51115
2.11311e-06
0.51115
2.29159e-06
0.51115
2.81803e-06
0.51115
3.26482e-06
0.511149
2.85601e-06
0.511149
2.15239e-06
0.511149
1.69786e-06
0.51115
1.60157e-06
0.51115
2.08611e-06
0.51115
2.27113e-06
0.511151
2.08005e-06
0.511151
2.47856e-06
0.51115
2.55983e-06
0.511151
1.85721e-06
0.511152
1.54445e-06
0.511152
1.68845e-06
0.511152
1.74848e-06
0.511153
1.84701e-06
0.511153
2.21765e-06
0.511154
2.54012e-06
0.511154
2.53828e-06
0.511155
2.3915e-06
0.511155
2.12858e-06
0.511155
1.89078e-06
0.511155
2.06259e-06
0.511156
2.51109e-06
0.511156
2.97533e-06
0.511156
3.20822e-06
0.511156
2.86826e-06
0.511156
2.26017e-06
0.511157
1.93908e-06
0.511156
2.06282e-06
0.511156
2.45232e-06
0.511156
2.65765e-06
0.511156
2.64908e-06
0.511155
2.47656e-06
0.511155
2.05273e-06
0.511156
1.79201e-06
0.511156
1.94778e-06
0.511157
2.1589e-06
0.511157
2.07035e-06
0.511158
1.82086e-06
0.511159
2.00591e-06
0.511159
2.78198e-06
0.511158
3.28162e-06
0.511158
2.9777e-06
0.511158
2.6082e-06
0.511158
2.3803e-06
0.511159
1.80384e-06
0.51116
1.37979e-06
0.51116
1.61994e-06
0.511161
1.98879e-06
0.511161
2.0738e-06
0.511161
2.05028e-06
0.511162
1.99326e-06
0.511162
1.91341e-06
0.511163
1.98628e-06
0.511164
2.175e-06
0.511164
2.40392e-06
0.511164
2.66621e-06
0.511164
2.74741e-06
0.511163
2.75282e-06
0.511163
2.85621e-06
0.511163
2.90962e-06
0.511162
2.99787e-06
0.511162
3.00968e-06
0.511162
2.72249e-06
0.511163
2.42837e-06
0.511163
2.18604e-06
0.511164
1.94289e-06
0.511164
1.96833e-06
0.511165
2.16255e-06
0.511165
2.19057e-06
0.511165
2.09894e-06
0.511165
1.99665e-06
0.511165
1.84548e-06
0.511165
1.75292e-06
0.511165
1.79964e-06
0.511166
2.00377e-06
0.511166
2.23376e-06
0.511166
2.28251e-06
0.511167
2.47562e-06
0.511167
2.80013e-06
0.511168
2.59272e-06
0.511169
2.20709e-06
0.511169
2.19009e-06
0.511169
2.03643e-06
0.511169
1.65095e-06
0.51117
1.63883e-06
0.51117
1.84184e-06
0.51117
1.87905e-06
0.51117
2.037e-06
0.51117
2.24715e-06
0.51117
2.14319e-06
0.511171
2.01446e-06
0.511171
1.93618e-06
0.511172
1.83074e-06
0.511173
2.27181e-06
0.511173
3.03153e-06
0.511173
3.29001e-06
0.511173
3.16912e-06
0.511173
2.93809e-06
0.511173
2.4762e-06
0.511172
2.05842e-06
0.511172
1.91191e-06
0.511172
1.79266e-06
0.511173
1.73108e-06
0.511173
1.9323e-06
0.511174
2.30718e-06
0.511173
2.67811e-06
0.511173
2.81519e-06
0.511173
2.65146e-06
0.511174
2.55003e-06
0.511174
2.63016e-06
0.511174
2.6119e-06
0.511174
2.43027e-06
0.511174
2.24224e-06
0.511175
2.06087e-06
0.511175
1.82297e-06
0.511176
1.73168e-06
0.511176
1.99592e-06
0.511176
2.30586e-06
0.511176
2.21441e-06
0.511176
1.93079e-06
0.511177
1.91237e-06
0.511177
1.95723e-06
0.511178
1.95851e-06
0.511178
2.08305e-06
0.511178
2.01904e-06
0.511179
1.74795e-06
0.51118
1.77978e-06
0.511181
2.19053e-06
0.511181
2.68108e-06
0.511181
2.89901e-06
0.511181
2.79228e-06
0.51118
2.65397e-06
0.51118
2.50435e-06
0.511181
2.29614e-06
0.511181
2.17452e-06
0.511181
2.09745e-06
0.511182
1.98035e-06
0.511182
1.90589e-06
0.511183
1.94843e-06
0.511183
2.16555e-06
0.511183
2.45015e-06
0.511183
2.40214e-06
0.511183
2.01019e-06
0.511184
1.75187e-06
0.511184
1.77382e-06
0.511185
1.9435e-06
0.511185
2.08621e-06
0.511185
2.11612e-06
0.511185
2.26616e-06
0.511185
2.46913e-06
0.511186
2.57209e-06
0.511186
2.85414e-06
0.511186
3.20991e-06
0.511186
3.20355e-06
0.511186
2.8845e-06
0.511186
2.59532e-06
0.511187
2.48443e-06
0.511187
2.45556e-06
0.511187
2.39161e-06
0.511187
2.34266e-06
0.511188
2.35072e-06
0.511188
2.18802e-06
0.511188
1.81981e-06
0.511188
1.752e-06
0.511189
1.97916e-06
0.511189
2.0598e-06
0.511189
2.13999e-06
0.51119
2.24108e-06
0.51119
2.04625e-06
0.511191
1.82118e-06
0.511191
1.96015e-06
0.511191
2.31641e-06
0.511191
2.51907e-06
0.511191
2.47003e-06
0.511191
2.40053e-06
0.511191
2.47168e-06
0.511192
2.54073e-06
0.511192
2.4246e-06
0.511193
2.36636e-06
0.511193
2.57328e-06
0.511193
2.70031e-06
0.511193
2.57737e-06
0.511193
2.4988e-06
0.511193
2.62184e-06
0.511193
2.74727e-06
0.511193
2.6949e-06
0.511193
2.64956e-06
0.511193
2.74874e-06
0.511193
2.81816e-06
0.511193
2.75097e-06
0.511193
2.51191e-06
0.511193
2.18888e-06
0.511193
2.00561e-06
0.511194
1.99733e-06
0.511195
2.06825e-06
0.511195
2.19865e-06
0.511196
2.31525e-06
0.511196
2.29264e-06
0.511196
2.26173e-06
0.511196
2.33158e-06
0.511196
2.30284e-06
0.511196
2.24441e-06
0.511196
2.32733e-06
0.511197
2.39911e-06
0.511197
2.41151e-06
0.511197
2.38554e-06
0.511197
2.33325e-06
0.511198
2.32193e-06
0.511198
2.25777e-06
0.511198
2.12116e-06
0.511198
1.97687e-06
0.511198
1.80605e-06
0.511199
1.69831e-06
0.511199
1.65213e-06
0.5112
1.68101e-06
0.5112
1.90354e-06
0.511201
2.07443e-06
0.511201
2.00012e-06
0.511202
1.9862e-06
0.511202
2.2149e-06
0.511202
2.4044e-06
0.511202
2.37623e-06
0.511202
2.30568e-06
0.511203
2.29147e-06
0.511203
2.26136e-06
0.511204
2.24892e-06
0.511204
2.34969e-06
0.511204
2.43117e-06
0.511204
2.32836e-06
0.511204
2.241e-06
2.26805e-06
0.511144
8.0011e-08
0.511144
5.18967e-07
0.511145
8.297e-07
0.511146
9.30961e-07
0.511147
1.03e-06
0.511147
1.15024e-06
0.511147
1.53777e-06
0.511146
1.90406e-06
0.511146
1.99409e-06
0.511146
1.94222e-06
0.511146
1.93291e-06
0.511147
2.03566e-06
0.511147
2.17428e-06
0.511147
2.18419e-06
0.511147
2.20622e-06
0.511147
2.38435e-06
0.511147
2.4513e-06
0.511148
1.97793e-06
0.511149
1.47756e-06
0.51115
1.72861e-06
0.511151
1.80498e-06
0.511151
1.70441e-06
0.51115
2.14608e-06
0.51115
2.45246e-06
0.51115
2.37216e-06
0.51115
2.20666e-06
0.51115
2.08513e-06
0.511151
1.91598e-06
0.511151
1.53988e-06
0.511151
1.2072e-06
0.511152
1.23685e-06
0.511152
1.63582e-06
0.511152
2.18901e-06
0.511152
2.2752e-06
0.511152
1.92169e-06
0.511153
1.77483e-06
0.511153
1.84737e-06
0.511154
1.92631e-06
0.511154
2.00913e-06
0.511153
2.17368e-06
0.511154
2.35016e-06
0.511154
2.22926e-06
0.511156
2.00505e-06
0.511156
2.09663e-06
0.511156
2.312e-06
0.511156
2.22425e-06
0.511156
2.02593e-06
0.511156
2.16188e-06
0.511157
2.38408e-06
0.511157
2.24765e-06
0.511157
2.00199e-06
0.511157
2.03153e-06
0.511157
2.08598e-06
0.511157
1.99037e-06
0.511157
2.15227e-06
0.511157
2.38672e-06
0.511156
2.25413e-06
0.511156
2.12063e-06
0.511157
2.22532e-06
0.511158
2.26098e-06
0.511159
2.1406e-06
0.511159
2.05543e-06
0.51116
1.9746e-06
0.51116
1.79298e-06
0.511159
1.55828e-06
0.51116
1.40527e-06
0.51116
1.62886e-06
0.51116
1.98226e-06
0.51116
1.9626e-06
0.51116
1.86397e-06
0.51116
1.80272e-06
0.511161
1.60245e-06
0.511161
1.59161e-06
0.511162
1.74561e-06
0.511163
1.81761e-06
0.511164
2.01785e-06
0.511164
2.43839e-06
0.511164
2.86616e-06
0.511164
3.1003e-06
0.511164
3.13512e-06
0.511164
3.0556e-06
0.511164
2.79115e-06
0.511164
2.38291e-06
0.511164
2.17033e-06
0.511163
2.17569e-06
0.511163
2.05312e-06
0.511164
1.87584e-06
0.511164
1.77879e-06
0.511164
1.58546e-06
0.511165
1.52939e-06
0.511165
1.65296e-06
0.511165
1.56397e-06
0.511166
1.58075e-06
0.511166
1.99807e-06
0.511165
2.3264e-06
0.511165
2.41638e-06
0.511165
2.54526e-06
0.511166
2.4985e-06
0.511166
2.08628e-06
0.511167
1.60711e-06
0.511168
1.27299e-06
0.511168
1.1971e-06
0.511169
1.36143e-06
0.511169
1.47582e-06
0.511169
1.68204e-06
0.511169
1.91643e-06
0.511169
1.78432e-06
0.51117
1.64748e-06
0.51117
1.84321e-06
0.51117
2.05498e-06
0.51117
2.19824e-06
0.511169
2.34917e-06
0.511169
2.41918e-06
0.51117
2.44413e-06
0.511171
2.52597e-06
0.511171
2.58915e-06
0.511172
2.46613e-06
0.511172
2.09477e-06
0.511172
1.66522e-06
0.511173
1.51172e-06
0.511173
1.62891e-06
0.511173
1.74391e-06
0.511173
1.83242e-06
0.511173
2.01552e-06
0.511174
2.33164e-06
0.511174
2.63155e-06
0.511174
2.66727e-06
0.511174
2.54383e-06
0.511174
2.52009e-06
0.511174
2.4053e-06
0.511175
2.04273e-06
0.511175
1.78307e-06
0.511175
1.77456e-06
0.511175
1.70468e-06
0.511176
1.55369e-06
0.511176
1.674e-06
0.511176
2.00666e-06
0.511176
2.00031e-06
0.511177
1.62157e-06
0.511177
1.47234e-06
0.511178
1.54004e-06
0.511178
1.4912e-06
0.511179
1.59087e-06
0.511179
1.89819e-06
0.511178
2.09509e-06
0.511178
2.10109e-06
0.511178
1.95247e-06
0.511179
1.9114e-06
0.51118
2.11785e-06
0.51118
2.31262e-06
0.51118
2.43814e-06
0.51118
2.49011e-06
0.51118
2.32807e-06
0.511181
2.09351e-06
0.511181
1.89154e-06
0.511181
1.64058e-06
0.511181
1.49249e-06
0.511182
1.55089e-06
0.511182
1.66696e-06
0.511183
1.83322e-06
0.511183
1.99625e-06
0.511184
1.90296e-06
0.511184
1.62011e-06
0.511184
1.39965e-06
0.511185
1.37644e-06
0.511185
1.62739e-06
0.511185
2.00541e-06
0.511185
2.29868e-06
0.511185
2.42959e-06
0.511185
2.43607e-06
0.511186
2.60025e-06
0.511186
2.98258e-06
0.511186
3.23418e-06
0.511186
3.10222e-06
0.511185
2.63259e-06
0.511186
2.17408e-06
0.511186
2.04918e-06
0.511187
2.06464e-06
0.511187
1.96257e-06
0.511187
1.88821e-06
0.511188
1.8354e-06
0.511188
1.62095e-06
0.511188
1.51092e-06
0.511188
1.71537e-06
0.511189
1.89419e-06
0.511189
1.87407e-06
0.511189
1.74491e-06
0.51119
1.65118e-06
0.51119
1.71143e-06
0.51119
1.74053e-06
0.511191
1.78492e-06
0.511191
2.11264e-06
0.511191
2.47186e-06
0.511191
2.51836e-06
0.511191
2.38166e-06
0.511191
2.27307e-06
0.511192
2.17588e-06
0.511192
2.16763e-06
0.511192
2.4158e-06
0.511192
2.70224e-06
0.511192
2.71778e-06
0.511192
2.53025e-06
0.511192
2.43506e-06
0.511192
2.55713e-06
0.511192
2.62504e-06
0.511192
2.55975e-06
0.511192
2.56826e-06
0.511193
2.51305e-06
0.511193
2.32011e-06
0.511193
2.24013e-06
0.511193
2.27228e-06
0.511193
2.24162e-06
0.511193
2.15892e-06
0.511193
1.99724e-06
0.511194
1.68971e-06
0.511194
1.52245e-06
0.511195
1.72305e-06
0.511195
2.03026e-06
0.511195
2.14708e-06
0.511196
2.03616e-06
0.511196
1.88442e-06
0.511196
1.9458e-06
0.511197
2.19274e-06
0.511197
2.39649e-06
0.511197
2.31272e-06
0.511197
1.94406e-06
0.511198
1.73439e-06
0.511198
1.87681e-06
0.511198
1.98599e-06
0.511198
1.86685e-06
0.511198
1.7717e-06
0.511198
1.82561e-06
0.511198
1.75375e-06
0.511198
1.44901e-06
0.511199
1.25883e-06
0.5112
1.37958e-06
0.5112
1.52155e-06
0.511201
1.54805e-06
0.511201
1.76566e-06
0.511201
2.15579e-06
0.511201
2.45144e-06
0.511201
2.59579e-06
0.511201
2.49805e-06
0.511201
2.21135e-06
0.511201
1.99274e-06
0.511201
1.89343e-06
0.511202
1.98093e-06
0.511202
2.18786e-06
0.511202
2.26592e-06
2.16847e-06
0.511144
1.77244e-07
0.511144
5.1535e-07
0.511144
6.04329e-07
0.511145
6.10897e-07
0.511145
6.05349e-07
0.511145
8.71445e-07
0.511146
1.15377e-06
0.511146
1.28424e-06
0.511147
1.56832e-06
0.511147
1.95706e-06
0.511147
1.77043e-06
0.511148
1.30325e-06
0.511149
1.25097e-06
0.511149
1.60693e-06
0.511149
2.0101e-06
0.51115
2.20481e-06
0.51115
2.29585e-06
0.511149
2.39002e-06
0.511149
2.08927e-06
0.511149
1.53638e-06
0.511149
1.37031e-06
0.51115
1.47536e-06
0.51115
1.53452e-06
0.511151
1.94039e-06
0.511151
2.51082e-06
0.51115
2.45321e-06
0.511151
1.84742e-06
0.511151
1.54012e-06
0.511151
1.47955e-06
0.511151
1.16028e-06
0.511151
1.18392e-06
0.511151
1.70076e-06
0.511151
1.74803e-06
0.511152
1.41267e-06
0.511153
1.3275e-06
0.511153
1.29881e-06
0.511154
1.36535e-06
0.511154
1.83876e-06
0.511154
2.32787e-06
0.511153
2.42023e-06
0.511154
2.25401e-06
0.511154
2.01896e-06
0.511154
1.82263e-06
0.511154
1.72417e-06
0.511155
1.87425e-06
0.511155
2.22461e-06
0.511154
2.36332e-06
0.511154
2.20019e-06
0.511155
1.74796e-06
0.511156
1.20609e-06
0.511157
1.15292e-06
0.511157
1.51742e-06
0.511158
1.75411e-06
0.511158
1.76378e-06
0.511158
1.91045e-06
0.511158
2.26493e-06
0.511158
2.43329e-06
0.511158
2.41672e-06
0.511158
2.37916e-06
0.511158
2.12343e-06
0.511158
1.74776e-06
0.511159
1.55947e-06
0.511159
1.40067e-06
0.51116
1.16159e-06
0.51116
1.09754e-06
0.511161
1.19379e-06
0.511161
1.40413e-06
0.511161
1.75616e-06
0.511161
1.95354e-06
0.511161
1.85694e-06
0.511161
1.59835e-06
0.511161
1.36024e-06
0.511162
1.42038e-06
0.511162
1.71161e-06
0.511161
2.01392e-06
0.511161
2.20538e-06
0.511162
2.21012e-06
0.511162
2.25405e-06
0.511163
2.5035e-06
0.511163
2.73448e-06
0.511164
2.68045e-06
0.511164
2.43639e-06
0.511164
2.43759e-06
0.511163
2.62705e-06
0.511163
2.48601e-06
0.511163
2.04779e-06
0.511163
1.67661e-06
0.511164
1.49765e-06
0.511164
1.44104e-06
0.511164
1.2622e-06
0.511165
1.00664e-06
0.511165
1.10851e-06
0.511165
1.51742e-06
0.511165
1.83768e-06
0.511165
2.11283e-06
0.511166
2.266e-06
0.511166
2.10662e-06
0.511167
1.86079e-06
0.511167
1.52129e-06
0.511168
1.12267e-06
0.511168
1.1378e-06
0.511168
1.35177e-06
0.511168
1.21043e-06
0.511168
1.02431e-06
0.511169
1.2254e-06
0.511169
1.43579e-06
0.51117
1.37912e-06
0.51117
1.3468e-06
0.51117
1.43306e-06
0.511171
1.55573e-06
0.511171
1.78028e-06
0.511172
2.11528e-06
0.511171
2.47248e-06
0.511171
2.65229e-06
0.511171
2.59392e-06
0.511171
2.42594e-06
0.511172
2.08794e-06
0.511172
1.68104e-06
0.511172
1.45666e-06
0.511173
1.28793e-06
0.511173
1.17758e-06
0.511173
1.35863e-06
0.511174
1.75511e-06
0.511173
2.15415e-06
0.511173
2.36898e-06
0.511174
2.31444e-06
0.511174
2.22866e-06
0.511174
2.2161e-06
0.511175
2.11065e-06
0.511175
1.997e-06
0.511175
1.93649e-06
0.511175
1.80998e-06
0.511175
1.7061e-06
0.511175
1.68132e-06
0.511175
1.61726e-06
0.511176
1.50451e-06
0.511176
1.3883e-06
0.511177
1.27551e-06
0.511177
1.13109e-06
0.511178
1.03973e-06
0.511178
1.09989e-06
0.511179
1.15172e-06
0.511179
1.19977e-06
0.511179
1.47272e-06
0.51118
1.80894e-06
0.51118
1.92543e-06
0.51118
1.91055e-06
0.51118
1.97354e-06
0.51118
2.11596e-06
0.51118
2.16865e-06
0.51118
2.06322e-06
0.511181
1.90028e-06
0.511181
1.78622e-06
0.511182
1.79212e-06
0.511182
1.85993e-06
0.511182
1.8181e-06
0.511181
1.64691e-06
0.511182
1.48168e-06
0.511182
1.37718e-06
0.511182
1.32692e-06
0.511183
1.41079e-06
0.511183
1.56338e-06
0.511183
1.57698e-06
0.511183
1.4157e-06
0.511183
1.26558e-06
0.511184
1.34554e-06
0.511184
1.6198e-06
0.511184
1.89285e-06
0.511185
2.23666e-06
0.511184
2.62967e-06
0.511184
2.75784e-06
0.511185
2.66603e-06
0.511185
2.63393e-06
0.511186
2.65646e-06
0.511186
2.62369e-06
0.511185
2.50655e-06
0.511185
2.34685e-06
0.511185
2.10988e-06
0.511185
1.65113e-06
0.511186
1.22309e-06
0.511187
1.26305e-06
0.511187
1.4076e-06
0.511187
1.29202e-06
0.511187
1.37453e-06
0.511188
1.63428e-06
0.511188
1.60278e-06
0.511188
1.43219e-06
0.511189
1.31962e-06
0.511189
1.27865e-06
0.511189
1.39399e-06
0.511189
1.62218e-06
0.51119
1.92562e-06
0.51119
2.19006e-06
0.51119
2.16537e-06
0.511191
1.9772e-06
0.511191
2.00896e-06
0.511191
2.16172e-06
0.511191
2.151e-06
0.511191
2.18468e-06
0.511191
2.41564e-06
0.511192
2.63891e-06
0.511191
2.7279e-06
0.511191
2.68183e-06
0.511191
2.66874e-06
0.511191
2.74245e-06
0.511191
2.69087e-06
0.511191
2.46855e-06
0.511191
2.11835e-06
0.511192
1.80002e-06
0.511192
1.79854e-06
0.511193
1.91941e-06
0.511193
1.82106e-06
0.511193
1.66767e-06
0.511194
1.62467e-06
0.511194
1.5873e-06
0.511194
1.59844e-06
0.511194
1.65246e-06
0.511194
1.5819e-06
0.511195
1.52462e-06
0.511195
1.6341e-06
0.511196
1.72793e-06
0.511196
1.7413e-06
0.511196
1.77979e-06
0.511197
1.84126e-06
0.511197
1.8057e-06
0.511198
1.64184e-06
0.511198
1.59082e-06
0.511198
1.69812e-06
0.511198
1.7085e-06
0.511198
1.61289e-06
0.511199
1.53974e-06
0.511199
1.56522e-06
0.511199
1.61284e-06
0.511199
1.42024e-06
0.511199
1.05942e-06
0.5112
9.46259e-07
0.5112
1.15082e-06
0.5112
1.40908e-06
0.5112
1.57829e-06
0.511201
1.66265e-06
0.511201
1.87431e-06
0.511202
2.28983e-06
0.511202
2.48904e-06
0.511202
2.31242e-06
0.511202
2.13355e-06
0.511202
1.9397e-06
0.511202
1.7439e-06
0.511202
1.69994e-06
0.511203
1.76787e-06
1.78327e-06
0.511144
7.17686e-08
0.511144
4.7941e-07
0.511144
7.27811e-07
0.511144
6.0685e-07
0.511144
4.90078e-07
0.511145
6.14125e-07
0.511145
6.06166e-07
0.511146
8.6585e-07
0.511146
1.37605e-06
0.511146
1.51561e-06
0.511147
1.30381e-06
0.511147
1.32163e-06
0.511146
1.70511e-06
0.511146
1.7096e-06
0.511147
1.33151e-06
0.511147
1.59152e-06
0.511148
2.12679e-06
0.511148
1.92197e-06
0.511149
1.50082e-06
0.511149
1.44717e-06
0.511149
1.37435e-06
0.511149
1.25194e-06
0.511149
1.3843e-06
0.511149
1.70352e-06
0.51115
1.77094e-06
0.511151
1.82834e-06
0.511151
1.82418e-06
0.511151
1.225e-06
0.511152
7.15508e-07
0.511152
9.18592e-07
0.511152
1.35632e-06
0.511152
1.37543e-06
0.511153
1.36393e-06
0.511153
1.50373e-06
0.511152
1.45291e-06
0.511153
1.24938e-06
0.511153
1.32653e-06
0.511153
1.66133e-06
0.511153
1.909e-06
0.511154
1.95684e-06
0.511154
1.82542e-06
0.511154
1.5837e-06
0.511155
1.54659e-06
0.511155
1.7459e-06
0.511155
1.9225e-06
0.511155
2.14141e-06
0.511155
2.08613e-06
0.511156
1.5868e-06
0.511156
1.32864e-06
0.511156
1.45512e-06
0.511156
1.46386e-06
0.511156
1.34504e-06
0.511156
1.39223e-06
0.511156
1.47204e-06
0.511157
1.52428e-06
0.511157
1.87661e-06
0.511157
2.29625e-06
0.511157
2.28513e-06
0.511158
2.05307e-06
0.511158
1.90405e-06
0.511158
1.66444e-06
0.511158
1.38186e-06
0.511158
1.23626e-06
0.511158
1.11138e-06
0.511158
1.05939e-06
0.511159
1.07257e-06
0.511159
1.01006e-06
0.51116
1.029e-06
0.511161
1.1035e-06
0.511161
1.17967e-06
0.511161
1.40975e-06
0.511161
1.5675e-06
0.511161
1.56138e-06
0.511161
1.60423e-06
0.511162
1.65154e-06
0.511162
1.69208e-06
0.511162
1.91856e-06
0.511162
2.31299e-06
0.511162
2.53367e-06
0.511163
2.27311e-06
0.511163
1.91265e-06
0.511164
1.9617e-06
0.511164
2.17469e-06
0.511165
2.30567e-06
0.511165
2.3993e-06
0.511164
2.14686e-06
0.511165
1.63004e-06
0.511165
1.41441e-06
0.511165
1.29482e-06
0.511165
9.5365e-07
0.511165
8.65766e-07
0.511165
1.06969e-06
0.511166
1.1657e-06
0.511166
1.30226e-06
0.511167
1.7091e-06
0.511167
2.02765e-06
0.511167
1.90288e-06
0.511167
1.53575e-06
0.511168
1.25694e-06
0.511168
1.07625e-06
0.511168
9.24215e-07
0.511168
9.01921e-07
0.511168
1.05566e-06
0.511168
1.21727e-06
0.511168
1.31131e-06
0.511168
1.32033e-06
0.511168
1.15924e-06
0.511169
1.04124e-06
0.511169
1.08727e-06
0.51117
1.18641e-06
0.51117
1.41384e-06
0.51117
1.71485e-06
0.511171
1.99687e-06
0.511171
2.33428e-06
0.511171
2.43344e-06
0.511172
2.09795e-06
0.511172
1.69177e-06
0.511172
1.44088e-06
0.511172
1.26077e-06
0.511172
1.21541e-06
0.511172
1.33337e-06
0.511172
1.43179e-06
0.511172
1.50079e-06
0.511173
1.63709e-06
0.511174
1.76277e-06
0.511174
1.8862e-06
0.511174
2.15155e-06
0.511174
2.29547e-06
0.511174
2.01035e-06
0.511174
1.70275e-06
0.511175
1.6692e-06
0.511175
1.53957e-06
0.511175
1.31794e-06
0.511176
1.41077e-06
0.511176
1.60047e-06
0.511176
1.40735e-06
0.511176
1.03025e-06
0.511176
9.11766e-07
0.511177
9.05103e-07
0.511177
7.8685e-07
0.511177
7.40617e-07
0.511178
8.22215e-07
0.511178
8.85262e-07
0.511178
1.04287e-06
0.511179
1.40583e-06
0.511179
1.79296e-06
0.511179
1.95738e-06
0.511179
1.89678e-06
0.511179
1.8137e-06
0.51118
1.84434e-06
0.51118
1.95793e-06
0.51118
2.01192e-06
0.511179