/*--------------------------------*- C++ -*----------------------------------*\
| =========                 |                                                 |
| \\      /  F ield         | OpenFOAM: The Open Source CFD Toolbox           |
|  \\    /   O peration     | Version:  2406                                  |
|   \\  /    A nd           | Website:  www.openfoam.com                      |
|    \\/     M anipulation  |                                                 |
\*---------------------------------------------------------------------------*/
FoamFile
{
    version     2.0;
    format      ascii;
    arch        "LSB;label=32;scalar=64";
    class       volVectorField;
    location    "2.15";
    object      U;
}
// * * * * * * * * * * * * * * * * * * * * * * * * * * * * * * * * * * * * * //

dimensions      [0 1 -1 0 0 0 0];

internalField   nonuniform List<vector> 
6250
(
(50.5476 9.5743e-05 0)
(85.4618 0.000519193 0)
(73.2911 0.000804456 0)
(60.6438 0.000821427 0)
(59.8987 0.000754634 0)
(63.3581 0.000741212 0)
(64.8679 0.000774111 0)
(64.4165 0.000782206 0)
(63.7994 0.000748856 0)
(63.6967 0.000716117 0)
(63.8393 0.000704929 0)
(63.9236 0.000693269 0)
(63.9131 0.000692666 0)
(63.8837 0.000758612 0)
(63.8747 0.000862742 0)
(63.8793 0.000901537 0)
(63.8832 0.000868912 0)
(63.8827 0.000853449 0)
(63.8807 0.000882904 0)
(63.8794 0.00089809 0)
(63.879 0.000901251 0)
(63.8786 0.000918779 0)
(63.8778 0.000908325 0)
(63.8771 0.000859899 0)
(63.8764 0.000804152 0)
(63.8758 0.00078506 0)
(63.8752 0.000832005 0)
(63.8744 0.000899439 0)
(63.8737 0.000942887 0)
(63.873 0.000958001 0)
(63.8722 0.000944136 0)
(63.8716 0.000918769 0)
(63.871 0.000896693 0)
(63.8703 0.000879413 0)
(63.8696 0.000869617 0)
(63.8689 0.00086176 0)
(63.8682 0.000852799 0)
(63.8676 0.000843583 0)
(63.867 0.000832989 0)
(63.8664 0.000813563 0)
(63.8657 0.000795409 0)
(63.8652 0.000823262 0)
(63.8644 0.000898611 0)
(63.8636 0.000960228 0)
(63.8629 0.000976886 0)
(63.8622 0.000967939 0)
(63.8616 0.000949474 0)
(63.861 0.000927961 0)
(63.8603 0.000917453 0)
(63.8596 0.000924134 0)
(63.859 0.000939868 0)
(63.8582 0.000948997 0)
(63.8575 0.000950825 0)
(63.8568 0.000958704 0)
(63.856 0.000952366 0)
(63.8553 0.000922344 0)
(63.8547 0.000897477 0)
(63.854 0.000882136 0)
(63.8533 0.000885457 0)
(63.8526 0.000924083 0)
(63.8518 0.000974932 0)
(63.8511 0.0010076 0)
(63.8504 0.00100891 0)
(63.8497 0.000981392 0)
(63.8491 0.000922625 0)
(63.8484 0.000831376 0)
(63.8479 0.000757502 0)
(63.8473 0.000765142 0)
(63.8466 0.000850827 0)
(63.8459 0.000950831 0)
(63.8452 0.00101599 0)
(63.8443 0.00103517 0)
(63.8436 0.00101512 0)
(63.8429 0.000986438 0)
(63.8423 0.000975389 0)
(63.8416 0.0009792 0)
(63.8409 0.000985558 0)
(63.8402 0.000976398 0)
(63.8396 0.000959921 0)
(63.839 0.000951546 0)
(63.8383 0.000928222 0)
(63.8376 0.000887231 0)
(63.837 0.000853782 0)
(63.8363 0.00082798 0)
(63.8357 0.000815783 0)
(63.8351 0.000846235 0)
(63.8344 0.000915404 0)
(63.8337 0.000989286 0)
(63.833 0.00105051 0)
(63.8322 0.00107869 0)
(63.8315 0.0010594 0)
(63.8308 0.00101614 0)
(63.8301 0.000962488 0)
(63.8294 0.000897804 0)
(63.8289 0.000846618 0)
(63.8283 0.000829895 0)
(63.8276 0.000837734 0)
(63.8269 0.000858466 0)
(63.8262 0.000892341 0)
(63.8255 0.000923959 0)
(63.8248 0.000934327 0)
(63.8241 0.000935758 0)
(63.8235 0.000949497 0)
(63.8228 0.000973826 0)
(63.8221 0.00099557 0)
(63.8215 0.00102069 0)
(63.8207 0.00104768 0)
(63.82 0.00103944 0)
(63.8193 0.000996147 0)
(63.8186 0.000956932 0)
(63.8179 0.000924945 0)
(63.8173 0.000894157 0)
(63.8166 0.00087282 0)
(63.816 0.000867471 0)
(63.8153 0.000886728 0)
(63.8146 0.00091532 0)
(63.8139 0.000932782 0)
(63.8133 0.000963815 0)
(63.8126 0.00102865 0)
(63.8119 0.00109025 0)
(63.8111 0.0011061 0)
(63.8104 0.00107534 0)
(63.8097 0.00102156 0)
(63.809 0.000975469 0)
(63.8084 0.000958634 0)
(63.8077 0.00096629 0)
(63.807 0.00097551 0)
(63.8063 0.000970257 0)
(63.8056 0.000965908 0)
(63.8048 0.000985724 0)
(63.8041 0.00100994 0)
(63.8034 0.000991699 0)
(63.8027 0.000924397 0)
(63.8022 0.000867396 0)
(63.8016 0.000877543 0)
(63.8009 0.00093643 0)
(63.8002 0.000992451 0)
(63.7995 0.00102232 0)
(63.7989 0.00101166 0)
(63.7982 0.000955329 0)
(63.7975 0.000901689 0)
(63.7969 0.000896729 0)
(63.7962 0.000914949 0)
(63.7956 0.000930539 0)
(63.7949 0.000948262 0)
(63.7941 0.000957506 0)
(63.7934 0.00095201 0)
(63.7927 0.000939142 0)
(63.7921 0.000925261 0)
(63.7915 0.000926381 0)
(63.7908 0.000947677 0)
(63.7901 0.000980032 0)
(63.7894 0.00101725 0)
(63.7887 0.0010409 0)
(63.7879 0.00103338 0)
(63.7872 0.00100001 0)
(63.7866 0.000955091 0)
(63.7859 0.000921925 0)
(63.7853 0.000932207 0)
(63.7847 0.000991583 0)
(63.7839 0.0010679 0)
(63.7832 0.00111041 0)
(63.7824 0.00108812 0)
(63.7817 0.00102689 0)
(63.781 0.000973559 0)
(63.7804 0.000948068 0)
(63.7797 0.000948311 0)
(63.7791 0.000954237 0)
(63.7784 0.000943384 0)
(63.7777 0.000922112 0)
(63.7771 0.000904916 0)
(63.7763 0.000900548 0)
(63.7757 0.000927784 0)
(63.775 0.000982117 0)
(63.7742 0.00101777 0)
(63.7735 0.00100377 0)
(63.7728 0.000958622 0)
(63.7721 0.000920888 0)
(63.7715 0.000918605 0)
(63.7709 0.000958267 0)
(63.7702 0.00101977 0)
(63.7695 0.00106656 0)
(63.7688 0.00106142 0)
(63.7681 0.000999675 0)
(63.7674 0.000936887 0)
(63.7668 0.000923426 0)
(63.7661 0.000942575 0)
(63.7654 0.000959722 0)
(63.7648 0.000964367 0)
(63.7641 0.000968105 0)
(63.7634 0.000989043 0)
(63.7627 0.00101706 0)
(63.762 0.0010241 0)
(63.7614 0.00100241 0)
(63.7607 0.000963905 0)
(63.76 0.000928013 0)
(63.7593 0.000913686 0)
(63.7587 0.000921606 0)
(63.758 0.00093194 0)
(63.7574 0.000941245 0)
(63.7567 0.000964641 0)
(63.756 0.000985933 0)
(63.7553 0.000968852 0)
(63.7546 0.000922824 0)
(63.754 0.000903795 0)
(63.7534 0.000933084 0)
(63.7527 0.00097296 0)
(63.7521 0.00100031 0)
(63.7514 0.00101817 0)
(63.7506 0.00101969 0)
(63.7499 0.00100376 0)
(63.7492 0.000971365 0)
(63.7485 0.000921778 0)
(63.7479 0.000881654 0)
(63.7473 0.000882269 0)
(63.7466 0.00091809 0)
(63.7459 0.000965687 0)
(63.7452 0.00100903 0)
(63.7445 0.00103882 0)
(63.7438 0.00105739 0)
(63.7431 0.00106229 0)
(63.7423 0.00103861 0)
(63.7416 0.000997418 0)
(63.741 0.000966933 0)
(63.7404 0.000956247 0)
(63.7398 0.000963378 0)
(63.7391 0.000976208 0)
(63.7384 0.00098033 0)
(63.7377 0.000977216 0)
(63.737 0.000973238 0)
(63.7363 0.00097565 0)
(63.7356 0.000991575 0)
(63.7349 0.00102454 0)
(63.7342 0.00106511 0)
(63.7335 0.00107532 0)
(63.7328 0.00103881 0)
(63.7321 0.00100109 0)
(63.7315 0.000995202 0)
(63.7308 0.00100241 0)
(63.7301 0.000998037 0)
(63.7294 0.000979981 0)
(63.7288 0.000962651 0)
(63.7281 0.000963344 0)
(63.7274 0.000980468 0)
(63.7267 0.000988963 0)
(63.726 0.00097904 0)
(63.7254 0.000980388 0)
(63.7247 0.00100309 0)
(63.7241 0.00107631 0)
(63.7229 0.00109308 0)
(50.5478 6.82626e-05 0)
(85.4631 0.000406801 0)
(73.2941 0.000665182 0)
(60.6484 0.000660618 0)
(59.9043 0.000530371 0)
(63.3644 0.000459405 0)
(64.8751 0.00049001 0)
(64.4249 0.000527664 0)
(63.8088 0.000530179 0)
(63.7071 0.000539183 0)
(63.8505 0.00055879 0)
(63.9357 0.000542562 0)
(63.9262 0.000510142 0)
(63.8976 0.000529313 0)
(63.8899 0.000579652 0)
(63.8958 0.000569836 0)
(63.9006 0.000511706 0)
(63.901 0.000478931 0)
(63.9001 0.000462442 0)
(63.9 0.000406162 0)
(63.9006 0.000376419 0)
(63.9012 0.000445681 0)
(63.9016 0.000515789 0)
(63.9019 0.000510884 0)
(63.9024 0.000486574 0)
(63.9027 0.000492151 0)
(63.9031 0.000502831 0)
(63.9035 0.000489036 0)
(63.9039 0.000480701 0)
(63.9044 0.000489131 0)
(63.9048 0.000461808 0)
(63.9052 0.000416343 0)
(63.9056 0.000413956 0)
(63.906 0.000456635 0)
(63.9063 0.000506555 0)
(63.9066 0.000515445 0)
(63.9068 0.000464429 0)
(63.9072 0.000400483 0)
(63.9075 0.000395267 0)
(63.9078 0.000436339 0)
(63.9081 0.000463365 0)
(63.9084 0.000482343 0)
(63.9088 0.000499845 0)
(63.9091 0.000486441 0)
(63.9095 0.000439188 0)
(63.9099 0.00038169 0)
(63.9102 0.000347223 0)
(63.9106 0.000355533 0)
(63.911 0.000398165 0)
(63.9113 0.000440272 0)
(63.9117 0.00045379 0)
(63.9122 0.00045278 0)
(63.9127 0.000462405 0)
(63.9131 0.000491497 0)
(63.9136 0.00049973 0)
(63.9139 0.000466694 0)
(63.9143 0.000465998 0)
(63.9146 0.000502369 0)
(63.9149 0.000498961 0)
(63.9153 0.000473049 0)
(63.9157 0.000475043 0)
(63.916 0.000470074 0)
(63.9164 0.000426602 0)
(63.9169 0.000396546 0)
(63.9173 0.000400058 0)
(63.9176 0.000387427 0)
(63.9178 0.000364866 0)
(63.9181 0.000384048 0)
(63.9185 0.000449311 0)
(63.919 0.000515858 0)
(63.9194 0.000548242 0)
(63.9198 0.000536761 0)
(63.9202 0.000466908 0)
(63.9206 0.000371562 0)
(63.9209 0.000323427 0)
(63.9213 0.000334532 0)
(63.9216 0.000365076 0)
(63.922 0.000374807 0)
(63.9223 0.000369771 0)
(63.9226 0.000382071 0)
(63.923 0.00040418 0)
(63.9233 0.000428768 0)
(63.9236 0.000447601 0)
(63.9239 0.000433754 0)
(63.9242 0.000410367 0)
(63.9245 0.000419182 0)
(63.9248 0.000435407 0)
(63.9252 0.000419533 0)
(63.9257 0.000399271 0)
(63.9262 0.000402777 0)
(63.9267 0.000402237 0)
(63.9271 0.000383317 0)
(63.9276 0.000360021 0)
(63.928 0.000348512 0)
(63.9282 0.000370717 0)
(63.9285 0.000431089 0)
(63.9288 0.000493161 0)
(63.9291 0.000514873 0)
(63.9294 0.000507758 0)
(63.9298 0.000487472 0)
(63.9301 0.000431283 0)
(63.9304 0.000363984 0)
(63.9309 0.000342434 0)
(63.9313 0.000359356 0)
(63.9317 0.000371931 0)
(63.9322 0.000387012 0)
(63.9326 0.000424677 0)
(63.9331 0.00043773 0)
(63.9335 0.000409101 0)
(63.9339 0.000400294 0)
(63.9342 0.000422312 0)
(63.9345 0.000442127 0)
(63.9349 0.000451403 0)
(63.9352 0.000454056 0)
(63.9354 0.00045761 0)
(63.9357 0.000437381 0)
(63.936 0.00037186 0)
(63.9363 0.000315434 0)
(63.9367 0.000313703 0)
(63.9372 0.000337195 0)
(63.9378 0.000360537 0)
(63.9383 0.000382534 0)
(63.9387 0.000384685 0)
(63.939 0.000371058 0)
(63.9394 0.000382043 0)
(63.9397 0.000428158 0)
(63.94 0.000472338 0)
(63.9404 0.000474357 0)
(63.9408 0.00044419 0)
(63.9412 0.000427078 0)
(63.9416 0.000425123 0)
(63.942 0.000403163 0)
(63.9424 0.000357841 0)
(63.9426 0.000328086 0)
(63.9429 0.000339741 0)
(63.9433 0.00036432 0)
(63.9437 0.000369449 0)
(63.9441 0.000369289 0)
(63.9445 0.000380714 0)
(63.9449 0.000385854 0)
(63.9451 0.000377547 0)
(63.9455 0.000377036 0)
(63.946 0.000386601 0)
(63.9463 0.000410644 0)
(63.9467 0.000459168 0)
(63.9471 0.000492974 0)
(63.9474 0.000480314 0)
(63.9478 0.000432321 0)
(63.9481 0.00037192 0)
(63.9484 0.000345394 0)
(63.9487 0.000367193 0)
(63.9491 0.000396285 0)
(63.9495 0.000412228 0)
(63.9499 0.000412569 0)
(63.9503 0.000399525 0)
(63.9507 0.000391734 0)
(63.9511 0.00037787 0)
(63.9514 0.000336261 0)
(63.9518 0.000306045 0)
(63.9521 0.000332652 0)
(63.9525 0.000391347 0)
(63.953 0.000431469 0)
(63.9535 0.00042817 0)
(63.9539 0.000391843 0)
(63.9542 0.000353457 0)
(63.9546 0.000332381 0)
(63.955 0.000338538 0)
(63.9554 0.000370169 0)
(63.9558 0.00040717 0)
(63.956 0.000441377 0)
(63.9564 0.000462416 0)
(63.9566 0.000453441 0)
(63.9569 0.00043637 0)
(63.9573 0.000440167 0)
(63.9577 0.000457936 0)
(63.958 0.000463982 0)
(63.9583 0.000432081 0)
(63.9587 0.000371347 0)
(63.959 0.000337534 0)
(63.9593 0.000352282 0)
(63.9596 0.000368386 0)
(63.9601 0.000363805 0)
(63.9606 0.00035731 0)
(63.961 0.000342565 0)
(63.9613 0.000337053 0)
(63.9617 0.00037324 0)
(63.962 0.000412418 0)
(63.9624 0.000411747 0)
(63.9628 0.000381486 0)
(63.9631 0.000350125 0)
(63.9635 0.000344522 0)
(63.9639 0.000351892 0)
(63.9643 0.000349711 0)
(63.9647 0.000363832 0)
(63.965 0.000404066 0)
(63.9653 0.000427974 0)
(63.9656 0.000419532 0)
(63.9659 0.000404762 0)
(63.9662 0.000387743 0)
(63.9665 0.00037307 0)
(63.9669 0.000390445 0)
(63.9673 0.000424836 0)
(63.9676 0.000420276 0)
(63.9679 0.00036493 0)
(63.9682 0.000318201 0)
(63.9685 0.000327922 0)
(63.9688 0.000358732 0)
(63.9691 0.000376589 0)
(63.9695 0.000390305 0)
(63.9699 0.000389557 0)
(63.9704 0.000378352 0)
(63.9709 0.000387556 0)
(63.9712 0.00041236 0)
(63.9714 0.000429577 0)
(63.9717 0.000436079 0)
(63.972 0.000428901 0)
(63.9723 0.000404719 0)
(63.9728 0.000381477 0)
(63.9732 0.000374361 0)
(63.9736 0.000380563 0)
(63.974 0.000389294 0)
(63.9745 0.000379056 0)
(63.9749 0.000347882 0)
(63.9752 0.000322048 0)
(63.9755 0.000324173 0)
(63.9758 0.000361205 0)
(63.9761 0.000396607 0)
(63.9765 0.000385307 0)
(63.9769 0.000351243 0)
(63.9774 0.000343132 0)
(63.9777 0.000366947 0)
(63.9781 0.000391709 0)
(63.9786 0.000395055 0)
(63.9791 0.000391882 0)
(63.9796 0.000387523 0)
(63.9798 0.000373447 0)
(63.9801 0.000364506 0)
(63.9805 0.000362577 0)
(63.9809 0.000347433 0)
(63.9814 0.000329146 0)
(63.9817 0.000336709 0)
(63.982 0.000365768 0)
(63.9824 0.000391234 0)
(63.9827 0.00040296 0)
(63.9831 0.000398176 0)
(63.9834 0.00038022 0)
(63.9837 0.000369148 0)
(63.9841 0.000367271 0)
(63.9845 0.000394667 0)
(63.9852 0.000383485 0)
(50.5477 7.36264e-06 0)
(85.4625 1.57432e-05 0)
(73.2928 4.19183e-05 0)
(60.6465 8.01549e-05 0)
(59.9021 8.30762e-05 0)
(63.362 5.20428e-05 0)
(64.8725 2.2393e-05 0)
(64.422 2.44807e-05 0)
(63.8055 6.68476e-05 0)
(63.7036 0.000135622 0)
(63.8469 0.000204783 0)
(63.9319 0.000230596 0)
(63.922 0.000197776 0)
(63.8932 0.000136848 0)
(63.8851 9.77681e-05 0)
(63.8906 0.000110895 0)
(63.8951 0.000165035 0)
(63.8953 0.000234952 0)
(63.8939 0.000265918 0)
(63.8933 0.000202349 0)
(63.8934 0.00011715 0)
(63.8936 8.75062e-05 0)
(63.8938 8.19977e-05 0)
(63.8938 9.22463e-05 0)
(63.8937 0.000122134 0)
(63.8938 0.000152663 0)
(63.8939 0.000170103 0)
(63.8938 0.000151619 0)
(63.8938 0.00010996 0)
(63.894 9.34546e-05 0)
(63.894 9.59614e-05 0)
(63.894 0.00010054 0)
(63.8941 0.00012224 0)
(63.8941 0.000174309 0)
(63.8942 0.000235517 0)
(63.8942 0.000258427 0)
(63.8943 0.000223285 0)
(63.8943 0.000161614 0)
(63.8943 0.000140456 0)
(63.8944 0.000189128 0)
(63.8945 0.000265603 0)
(63.8945 0.000326268 0)
(63.8945 0.000341278 0)
(63.8944 0.000293678 0)
(63.8945 0.000215245 0)
(63.8946 0.000154192 0)
(63.8946 0.00014777 0)
(63.8946 0.000181992 0)
(63.8945 0.000196842 0)
(63.8945 0.000182382 0)
(63.8945 0.000154411 0)
(63.8944 0.000114452 0)
(63.8944 9.13102e-05 0)
(63.8945 0.000113197 0)
(63.8946 0.000145776 0)
(63.8946 0.000142199 0)
(63.8946 0.000146951 0)
(63.8948 0.000206718 0)
(63.8949 0.00026836 0)
(63.8948 0.000286127 0)
(63.8947 0.000271368 0)
(63.8948 0.000229904 0)
(63.8948 0.000163092 0)
(63.8948 0.000107794 0)
(63.8949 0.000104752 0)
(63.8951 0.000144282 0)
(63.8951 0.000187618 0)
(63.8951 0.000201963 0)
(63.8951 0.000189649 0)
(63.8952 0.000179141 0)
(63.8952 0.000184916 0)
(63.8953 0.000210229 0)
(63.8955 0.000234578 0)
(63.8955 0.000248116 0)
(63.8955 0.00026975 0)
(63.8955 0.000280462 0)
(63.8955 0.000264871 0)
(63.8954 0.000243858 0)
(63.8953 0.000233482 0)
(63.8953 0.000247927 0)
(63.8953 0.0002732 0)
(63.8952 0.000285247 0)
(63.8953 0.000281447 0)
(63.8954 0.000257949 0)
(63.8954 0.000231537 0)
(63.8955 0.000220879 0)
(63.8956 0.000203934 0)
(63.8956 0.000164079 0)
(63.8955 0.000132719 0)
(63.8956 0.000133896 0)
(63.8956 0.000138556 0)
(63.8956 0.000129896 0)
(63.8957 0.00013615 0)
(63.8957 0.000174235 0)
(63.8957 0.000219404 0)
(63.8957 0.000248639 0)
(63.8959 0.000278294 0)
(63.8959 0.000295395 0)
(63.8959 0.000273062 0)
(63.896 0.000246685 0)
(63.8961 0.000231436 0)
(63.8961 0.000197899 0)
(63.8961 0.000156132 0)
(63.8962 0.000132978 0)
(63.8962 0.000119412 0)
(63.8962 0.000109559 0)
(63.8962 0.000135447 0)
(63.8963 0.000180166 0)
(63.8963 0.000190284 0)
(63.8963 0.00018539 0)
(63.8964 0.000184418 0)
(63.8965 0.000184479 0)
(63.8966 0.000232426 0)
(63.8966 0.00033146 0)
(63.8965 0.000404859 0)
(63.8966 0.000403997 0)
(63.8966 0.000340692 0)
(63.8966 0.00025404 0)
(63.8966 0.000181495 0)
(63.8965 0.00014101 0)
(63.8965 0.000136387 0)
(63.8966 0.000161588 0)
(63.8967 0.000192744 0)
(63.8967 0.000213611 0)
(63.8967 0.000235275 0)
(63.8966 0.000254534 0)
(63.8966 0.000257526 0)
(63.8967 0.000254228 0)
(63.8967 0.000253013 0)
(63.8967 0.000244861 0)
(63.8967 0.000227732 0)
(63.8968 0.000219668 0)
(63.8968 0.000226232 0)
(63.8969 0.000222787 0)
(63.8969 0.000207015 0)
(63.897 0.000204956 0)
(63.897 0.000210393 0)
(63.8969 0.000197482 0)
(63.897 0.00018771 0)
(63.8971 0.000207046 0)
(63.8971 0.000217767 0)
(63.8972 0.000207295 0)
(63.8972 0.000210045 0)
(63.8972 0.000214064 0)
(63.8973 0.000206185 0)
(63.8975 0.000210439 0)
(63.8976 0.000243471 0)
(63.8976 0.000288565 0)
(63.8976 0.00030176 0)
(63.8976 0.000286551 0)
(63.8976 0.000279579 0)
(63.8975 0.000268453 0)
(63.8975 0.000238842 0)
(63.8976 0.000206679 0)
(63.8976 0.00018984 0)
(63.8977 0.00020646 0)
(63.8978 0.000240692 0)
(63.8978 0.000251838 0)
(63.8979 0.000246929 0)
(63.8978 0.000246877 0)
(63.8978 0.00022548 0)
(63.8978 0.000186809 0)
(63.8979 0.00017754 0)
(63.898 0.000196132 0)
(63.8981 0.00021397 0)
(63.8981 0.00021405 0)
(63.8981 0.00020319 0)
(63.8981 0.000218916 0)
(63.8981 0.000265093 0)
(63.8981 0.000314703 0)
(63.8983 0.000361333 0)
(63.8983 0.000385105 0)
(63.8982 0.000355169 0)
(63.8982 0.000287071 0)
(63.8982 0.000243495 0)
(63.8983 0.000258799 0)
(63.8984 0.000290281 0)
(63.8984 0.000292331 0)
(63.8984 0.000279817 0)
(63.8984 0.000264995 0)
(63.8985 0.00021448 0)
(63.8985 0.000149056 0)
(63.8985 0.000150446 0)
(63.8986 0.000200994 0)
(63.8986 0.000229979 0)
(63.8986 0.000251577 0)
(63.8987 0.000274011 0)
(63.8987 0.000265948 0)
(63.8988 0.000237547 0)
(63.8989 0.000223819 0)
(63.8989 0.000238013 0)
(63.8989 0.000250141 0)
(63.8989 0.000237989 0)
(63.8988 0.000241828 0)
(63.8989 0.000284941 0)
(63.8989 0.000317357 0)
(63.899 0.000305006 0)
(63.8991 0.000286311 0)
(63.8991 0.000286567 0)
(63.8991 0.000280897 0)
(63.8991 0.000270468 0)
(63.8991 0.000283045 0)
(63.8991 0.000318148 0)
(63.8992 0.000339006 0)
(63.8991 0.000325325 0)
(63.8991 0.000312042 0)
(63.8992 0.000313168 0)
(63.8991 0.00030383 0)
(63.8991 0.000279053 0)
(63.8991 0.000233678 0)
(63.8991 0.000183144 0)
(63.8991 0.000182432 0)
(63.8991 0.000235078 0)
(63.8993 0.000281653 0)
(63.8994 0.000293399 0)
(63.8995 0.000279813 0)
(63.8995 0.000246831 0)
(63.8995 0.0002216 0)
(63.8995 0.000225487 0)
(63.8995 0.000232408 0)
(63.8995 0.000235459 0)
(63.8996 0.000249821 0)
(63.8996 0.000263107 0)
(63.8996 0.000264596 0)
(63.8996 0.000260857 0)
(63.8996 0.000264373 0)
(63.8997 0.000268477 0)
(63.8997 0.000249054 0)
(63.8997 0.000222482 0)
(63.8997 0.00021737 0)
(63.8997 0.000220909 0)
(63.8998 0.000206954 0)
(63.8999 0.000169844 0)
(63.8999 0.000146707 0)
(63.9 0.000174767 0)
(63.9001 0.00022649 0)
(63.9001 0.00025404 0)
(63.9002 0.000257618 0)
(63.9003 0.000256507 0)
(63.9002 0.000252051 0)
(63.9002 0.000249343 0)
(63.9003 0.000257345 0)
(63.9003 0.000269993 0)
(63.9003 0.00027963 0)
(63.9004 0.00028626 0)
(63.9005 0.000294248 0)
(63.9005 0.000296203 0)
(63.9005 0.000274833 0)
(63.9006 0.000229329 0)
(63.9005 0.000224772 0)
(50.5477 1.36661e-05 0)
(85.4627 8.79938e-05 0)
(73.293 0.000177857 0)
(60.6467 0.000246497 0)
(59.9023 0.00028976 0)
(63.3623 0.000294869 0)
(64.8727 0.000289428 0)
(64.422 0.000305574 0)
(63.8054 0.00032764 0)
(63.7034 0.000331562 0)
(63.8466 0.000346752 0)
(63.9316 0.000379599 0)
(63.9219 0.000397704 0)
(63.8929 0.000393847 0)
(63.8848 0.000382229 0)
(63.8903 0.000385882 0)
(63.8947 0.000395157 0)
(63.8947 0.000391255 0)
(63.8937 0.000401289 0)
(63.8935 0.000422572 0)
(63.8936 0.000405683 0)
(63.8939 0.000361022 0)
(63.8939 0.000349659 0)
(63.8937 0.000386028 0)
(63.8937 0.000391624 0)
(63.8937 0.000361727 0)
(63.8937 0.000385104 0)
(63.8938 0.000410291 0)
(63.8939 0.000353274 0)
(63.8939 0.000281742 0)
(63.8939 0.000271575 0)
(63.894 0.000311664 0)
(63.894 0.000364223 0)
(63.8939 0.00039993 0)
(63.894 0.000405292 0)
(63.8941 0.000392666 0)
(63.8941 0.000376715 0)
(63.8942 0.000349561 0)
(63.8942 0.000312765 0)
(63.8942 0.000309266 0)
(63.8942 0.000347243 0)
(63.8942 0.000386063 0)
(63.8944 0.000406348 0)
(63.8945 0.000399618 0)
(63.8946 0.000372968 0)
(63.8945 0.000349143 0)
(63.8945 0.000356259 0)
(63.8945 0.000406748 0)
(63.8946 0.000451124 0)
(63.8946 0.000452969 0)
(63.8947 0.000428231 0)
(63.8947 0.000393719 0)
(63.8946 0.000363765 0)
(63.8946 0.000351997 0)
(63.8947 0.000362525 0)
(63.8946 0.000362817 0)
(63.8945 0.000332487 0)
(63.8946 0.000329297 0)
(63.8945 0.000390505 0)
(63.8946 0.000449862 0)
(63.8948 0.000450599 0)
(63.8949 0.000432865 0)
(63.8949 0.000415166 0)
(63.895 0.000364121 0)
(63.8949 0.000302896 0)
(63.8949 0.000279081 0)
(63.895 0.000296111 0)
(63.895 0.000310911 0)
(63.895 0.000293142 0)
(63.8951 0.000274402 0)
(63.8951 0.000271298 0)
(63.895 0.000276537 0)
(63.8952 0.000303336 0)
(63.8952 0.000347852 0)
(63.8953 0.000386237 0)
(63.8954 0.000404409 0)
(63.8955 0.000423046 0)
(63.8955 0.000459745 0)
(63.8955 0.000488815 0)
(63.8954 0.000496892 0)
(63.8955 0.000476762 0)
(63.8954 0.000414206 0)
(63.8954 0.000338251 0)
(63.8955 0.000289884 0)
(63.8954 0.000275872 0)
(63.8954 0.000286001 0)
(63.8954 0.000311941 0)
(63.8955 0.000335292 0)
(63.8955 0.000340535 0)
(63.8956 0.000339001 0)
(63.8957 0.000330927 0)
(63.8956 0.000310229 0)
(63.8957 0.000303543 0)
(63.8957 0.000328885 0)
(63.8957 0.000352711 0)
(63.8957 0.000352227 0)
(63.8956 0.000366133 0)
(63.8957 0.000386168 0)
(63.8957 0.00035309 0)
(63.8958 0.000299274 0)
(63.8959 0.000278445 0)
(63.896 0.000272851 0)
(63.8961 0.000272902 0)
(63.8961 0.000296925 0)
(63.8961 0.000336417 0)
(63.8961 0.000353097 0)
(63.8961 0.000345041 0)
(63.8962 0.000342538 0)
(63.8963 0.000344073 0)
(63.8962 0.000341944 0)
(63.8963 0.000329645 0)
(63.8962 0.000310114 0)
(63.8961 0.000324768 0)
(63.8962 0.000371667 0)
(63.8963 0.000398692 0)
(63.8964 0.000401006 0)
(63.8964 0.000392063 0)
(63.8965 0.000359317 0)
(63.8965 0.000318287 0)
(63.8966 0.00030384 0)
(63.8966 0.000307139 0)
(63.8966 0.000308477 0)
(63.8966 0.00031945 0)
(63.8966 0.000352257 0)
(63.8967 0.000398014 0)
(63.8967 0.000422086 0)
(63.8967 0.000403355 0)
(63.8967 0.000382178 0)
(63.8967 0.000391761 0)
(63.8967 0.000396546 0)
(63.8968 0.000365633 0)
(63.8968 0.000327227 0)
(63.8969 0.000301524 0)
(63.8969 0.00026808 0)
(63.8969 0.000242849 0)
(63.897 0.000275743 0)
(63.897 0.000342865 0)
(63.897 0.000357686 0)
(63.8971 0.000313802 0)
(63.8971 0.000282596 0)
(63.8972 0.000270409 0)
(63.8972 0.000258884 0)
(63.8973 0.000272419 0)
(63.8974 0.00028565 0)
(63.8973 0.000269727 0)
(63.8972 0.000264389 0)
(63.8972 0.000294654 0)
(63.8973 0.000347123 0)
(63.8974 0.000385454 0)
(63.8975 0.000386654 0)
(63.8976 0.000377149 0)
(63.8976 0.000370392 0)
(63.8975 0.000358349 0)
(63.8976 0.00034605 0)
(63.8976 0.000321266 0)
(63.8976 0.000272846 0)
(63.8977 0.000234284 0)
(63.8977 0.000242118 0)
(63.8978 0.000290531 0)
(63.8978 0.000343319 0)
(63.8979 0.000354806 0)
(63.8979 0.000314732 0)
(63.8979 0.00026919 0)
(63.898 0.000253603 0)
(63.898 0.00026926 0)
(63.8981 0.000299891 0)
(63.8981 0.000322194 0)
(63.8981 0.000338284 0)
(63.8982 0.000343893 0)
(63.8981 0.000333289 0)
(63.8982 0.000349335 0)
(63.8982 0.00040775 0)
(63.8982 0.000456106 0)
(63.8982 0.000450818 0)
(63.8982 0.000396506 0)
(63.8982 0.000335251 0)
(63.8983 0.000303587 0)
(63.8983 0.000298304 0)
(63.8983 0.000307509 0)
(63.8984 0.000330041 0)
(63.8985 0.0003361 0)
(63.8985 0.000304353 0)
(63.8985 0.000287439 0)
(63.8986 0.00030376 0)
(63.8986 0.000299124 0)
(63.8986 0.000273486 0)
(63.8987 0.000253964 0)
(63.8987 0.000241194 0)
(63.8987 0.00024879 0)
(63.8987 0.000278433 0)
(63.8988 0.000315881 0)
(63.8989 0.000350898 0)
(63.8989 0.000367426 0)
(63.8989 0.000361389 0)
(63.8989 0.000346675 0)
(63.8989 0.000330396 0)
(63.8989 0.000309581 0)
(63.8989 0.000307963 0)
(63.899 0.000347237 0)
(63.899 0.000382232 0)
(63.899 0.000370371 0)
(63.899 0.000337407 0)
(63.899 0.000328206 0)
(63.899 0.000346881 0)
(63.899 0.00035791 0)
(63.899 0.000360113 0)
(63.8991 0.000377927 0)
(63.899 0.000396747 0)
(63.8991 0.00039721 0)
(63.8992 0.000378172 0)
(63.8992 0.000344395 0)
(63.8991 0.000313237 0)
(63.8991 0.000295225 0)
(63.8991 0.000279575 0)
(63.8991 0.000261514 0)
(63.8992 0.000257665 0)
(63.8994 0.000276246 0)
(63.8994 0.000311126 0)
(63.8994 0.00034597 0)
(63.8994 0.000349775 0)
(63.8994 0.000331055 0)
(63.8995 0.000329813 0)
(63.8996 0.000348244 0)
(63.8996 0.00036569 0)
(63.8996 0.000357274 0)
(63.8996 0.000317211 0)
(63.8997 0.00028476 0)
(63.8997 0.000281682 0)
(63.8997 0.000285579 0)
(63.8998 0.00027489 0)
(63.8998 0.000255347 0)
(63.8998 0.000248116 0)
(63.8998 0.000248985 0)
(63.8997 0.000247667 0)
(63.8998 0.000257488 0)
(63.8999 0.000270744 0)
(63.9 0.000262481 0)
(63.9 0.000254442 0)
(63.9001 0.000290137 0)
(63.9002 0.000345139 0)
(63.9001 0.000366328 0)
(63.9001 0.000351291 0)
(63.9001 0.000319634 0)
(63.9001 0.000289471 0)
(63.9001 0.000275532 0)
(63.9001 0.000278005 0)
(63.9002 0.000296387 0)
(63.9003 0.000317488 0)
(63.9002 0.000333909 0)
(63.9002 0.000335489 0)
(50.5478 1.74626e-05 0)
(85.4626 6.65012e-05 0)
(73.293 7.85777e-05 0)
(60.6466 6.02824e-05 0)
(59.9021 4.72999e-05 0)
(63.3621 6.28714e-05 0)
(64.8725 0.000115064 0)
(64.4219 0.000165671 0)
(63.8055 0.000193631 0)
(63.7035 0.000202685 0)
(63.8467 0.000179945 0)
(63.9317 0.00015051 0)
(63.922 0.000148326 0)
(63.8932 0.000170164 0)
(63.8851 0.000208022 0)
(63.8905 0.000232076 0)
(63.895 0.000220715 0)
(63.8952 0.000167675 0)
(63.8938 9.87929e-05 0)
(63.8932 7.59015e-05 0)
(63.8935 8.30821e-05 0)
(63.8937 0.00010391 0)
(63.8938 0.000158811 0)
(63.8939 0.000219633 0)
(63.8938 0.000247973 0)
(63.8938 0.000228681 0)
(63.8938 0.000173159 0)
(63.8939 0.000119488 0)
(63.8939 8.34791e-05 0)
(63.8938 5.45728e-05 0)
(63.8939 6.29555e-05 0)
(63.8939 0.0001194 0)
(63.8939 0.000161355 0)
(63.894 0.000142793 0)
(63.8941 9.63736e-05 0)
(63.8941 7.14805e-05 0)
(63.8942 8.76534e-05 0)
(63.8943 0.000143986 0)
(63.8942 0.000206429 0)
(63.8942 0.000241824 0)
(63.8942 0.000239469 0)
(63.8942 0.00020147 0)
(63.8942 0.000163601 0)
(63.8942 0.000157553 0)
(63.8943 0.000177901 0)
(63.8944 0.000191654 0)
(63.8943 0.000179307 0)
(63.8943 0.000171097 0)
(63.8943 0.000161971 0)
(63.8944 0.000120259 0)
(63.8946 8.63398e-05 0)
(63.8946 0.000108275 0)
(63.8947 0.000150422 0)
(63.8947 0.000169932 0)
(63.8948 0.000199453 0)
(63.8948 0.00023954 0)
(63.8948 0.000236689 0)
(63.8948 0.000210827 0)
(63.8947 0.000196767 0)
(63.8947 0.000163353 0)
(63.8947 0.000109339 0)
(63.8948 8.33962e-05 0)
(63.8949 7.8865e-05 0)
(63.8949 6.53249e-05 0)
(63.895 5.99794e-05 0)
(63.8951 7.46215e-05 0)
(63.8951 0.000119057 0)
(63.8951 0.000186069 0)
(63.8951 0.000223478 0)
(63.8951 0.000217596 0)
(63.8951 0.000177918 0)
(63.8952 0.000118772 0)
(63.8952 8.95378e-05 0)
(63.8952 9.85285e-05 0)
(63.8952 0.000120439 0)
(63.8952 0.00015459 0)
(63.8951 0.000199891 0)
(63.8952 0.000243391 0)
(63.8953 0.000270853 0)
(63.8954 0.000284612 0)
(63.8954 0.000289184 0)
(63.8955 0.000276552 0)
(63.8955 0.000263645 0)
(63.8955 0.000266413 0)
(63.8954 0.000255487 0)
(63.8954 0.000210521 0)
(63.8954 0.000161435 0)
(63.8954 0.000128495 0)
(63.8954 9.9801e-05 0)
(63.8954 7.8901e-05 0)
(63.8955 7.39252e-05 0)
(63.8956 8.5195e-05 0)
(63.8956 0.000121546 0)
(63.8956 0.000176279 0)
(63.8957 0.000222997 0)
(63.8957 0.000244702 0)
(63.8957 0.000247579 0)
(63.8958 0.000231922 0)
(63.8959 0.000178776 0)
(63.8959 0.000107077 0)
(63.896 6.46055e-05 0)
(63.896 5.85701e-05 0)
(63.8959 5.95123e-05 0)
(63.896 6.3974e-05 0)
(63.8961 9.54604e-05 0)
(63.8961 0.00012722 0)
(63.8962 0.000118767 0)
(63.8962 0.000106105 0)
(63.8963 0.000125139 0)
(63.8963 0.000163363 0)
(63.8964 0.000209846 0)
(63.8964 0.00025549 0)
(63.8964 0.000284624 0)
(63.8964 0.000282427 0)
(63.8964 0.000258818 0)
(63.8964 0.000238725 0)
(63.8965 0.0002112 0)
(63.8965 0.000161916 0)
(63.8965 0.000114147 0)
(63.8965 8.77236e-05 0)
(63.8966 8.34813e-05 0)
(63.8967 0.000102018 0)
(63.8967 0.00013968 0)
(63.8967 0.000187397 0)
(63.8967 0.000232033 0)
(63.8967 0.000256865 0)
(63.8967 0.000258203 0)
(63.8968 0.000245488 0)
(63.8968 0.000226185 0)
(63.8969 0.000202502 0)
(63.8969 0.000172192 0)
(63.8969 0.000147402 0)
(63.8969 0.000146393 0)
(63.8969 0.000153108 0)
(63.8969 0.000146979 0)
(63.8969 0.000141643 0)
(63.897 0.000143179 0)
(63.8971 0.000126775 0)
(63.8971 9.47688e-05 0)
(63.8972 9.24118e-05 0)
(63.8973 0.000118416 0)
(63.8973 0.000132288 0)
(63.8973 0.000147656 0)
(63.8974 0.000188415 0)
(63.8974 0.000230133 0)
(63.8975 0.000238038 0)
(63.8975 0.00020477 0)
(63.8975 0.000173127 0)
(63.8975 0.000182673 0)
(63.8975 0.000212245 0)
(63.8975 0.000230207 0)
(63.8976 0.000222769 0)
(63.8976 0.000195995 0)
(63.8977 0.000180357 0)
(63.8977 0.000177719 0)
(63.8977 0.000162358 0)
(63.8977 0.000141078 0)
(63.8977 0.000130607 0)
(63.8977 0.000126308 0)
(63.8977 0.00013325 0)
(63.8978 0.000153968 0)
(63.8979 0.000160977 0)
(63.8979 0.000137656 0)
(63.8979 0.000102844 0)
(63.8979 9.04825e-05 0)
(63.8979 0.00012367 0)
(63.898 0.000182232 0)
(63.898 0.000230021 0)
(63.8981 0.000263056 0)
(63.8981 0.000287785 0)
(63.898 0.000303165 0)
(63.898 0.000312981 0)
(63.8981 0.000320701 0)
(63.8982 0.000320006 0)
(63.8982 0.00029839 0)
(63.8982 0.000262585 0)
(63.8982 0.000235908 0)
(63.8981 0.000209956 0)
(63.8981 0.000162461 0)
(63.8982 0.000122833 0)
(63.8983 0.000121131 0)
(63.8983 0.000118194 0)
(63.8983 0.000103699 0)
(63.8984 0.000127689 0)
(63.8984 0.000178254 0)
(63.8984 0.000201061 0)
(63.8985 0.000187383 0)
(63.8985 0.000161615 0)
(63.8986 0.000151356 0)
(63.8987 0.000155543 0)
(63.8987 0.000166744 0)
(63.8987 0.000201567 0)
(63.8987 0.000246056 0)
(63.8988 0.000257829 0)
(63.8988 0.000241814 0)
(63.8989 0.000239203 0)
(63.8989 0.000246367 0)
(63.8988 0.000242354 0)
(63.8989 0.000254624 0)
(63.8989 0.000292374 0)
(63.8989 0.000317594 0)
(63.8989 0.000311015 0)
(63.8989 0.000290476 0)
(63.8989 0.000285227 0)
(63.8989 0.000289096 0)
(63.8988 0.000279096 0)
(63.8988 0.000260138 0)
(63.8989 0.000230095 0)
(63.8989 0.000196556 0)
(63.899 0.000196347 0)
(63.899 0.00022213 0)
(63.8991 0.000230448 0)
(63.8992 0.000219799 0)
(63.8992 0.000207565 0)
(63.8992 0.000189364 0)
(63.8992 0.000176715 0)
(63.8992 0.000183195 0)
(63.8992 0.000185274 0)
(63.8993 0.000173051 0)
(63.8994 0.000161631 0)
(63.8994 0.000157348 0)
(63.8995 0.000167183 0)
(63.8995 0.000191454 0)
(63.8996 0.000215445 0)