/*--------------------------------*- C++ -*----------------------------------*\
| =========                 |                                                 |
| \\      /  F ield         | OpenFOAM: The Open Source CFD Toolbox           |
|  \\    /   O peration     | Version:  2406                                  |
|   \\  /    A nd           | Website:  www.openfoam.com                      |
|    \\/     M anipulation  |                                                 |
\*---------------------------------------------------------------------------*/
FoamFile
{
    version     2.0;
    format      ascii;
    arch        "LSB;label=32;scalar=64";
    class       surfaceScalarField;
    location    "0.1";
    object      phi;
}
// * * * * * * * * * * * * * * * * * * * * * * * * * * * * * * * * * * * * * //

dimensions      [0 3 -1 0 0 0 0];

oriented        oriented;

internalField   nonuniform List<scalar> 
4335
(
3.70839e-05
-6.75047e-09
3.70893e-05
-5.48119e-09
3.70934e-05
-4.02754e-09
3.70966e-05
-3.18562e-09
3.70995e-05
-2.9212e-09
3.71023e-05
-2.88604e-09
3.71052e-05
-2.91429e-09
3.71082e-05
-3.06741e-09
3.71116e-05
-3.24426e-09
3.71149e-05
-3.46474e-09
3.71186e-05
-3.6133e-09
3.71223e-05
-3.71792e-09
3.7126e-05
-3.78037e-09
3.71297e-05
-3.74443e-09
3.71334e-05
-3.64689e-09
3.71369e-05
-3.50635e-09
3.71401e-05
-3.29864e-09
3.71432e-05
-3.03458e-09
3.71459e-05
-2.75022e-09
3.71483e-05
-2.45164e-09
3.71504e-05
-2.13264e-09
3.71522e-05
-1.82407e-09
3.71537e-05
-1.54319e-09
3.71549e-05
-1.26778e-09
3.7156e-05
-1.00103e-09
3.71568e-05
-7.79716e-10
3.71574e-05
-6.12647e-10
3.71578e-05
-4.72087e-10
3.71582e-05
-3.43306e-10
3.71585e-05
-2.37614e-10
3.71586e-05
-1.60757e-10
3.71587e-05
-1.0062e-10
3.71588e-05
-4.73709e-11
3.71588e-05
-5.27709e-12
3.71588e-05
1.67317e-11
3.71588e-05
1.76662e-11
3.71588e-05
7.78685e-12
3.71588e-05
-1.87647e-12
3.71588e-05
-6.54991e-12
3.71589e-05
-1.03385e-11
3.71589e-05
-2.15976e-11
3.7159e-05
-4.42578e-11
3.7159e-05
-7.27604e-11
3.71591e-05
-9.65807e-11
3.71592e-05
-1.11994e-10
3.71593e-05
-1.25608e-10
3.71595e-05
-1.42604e-10
3.71596e-05
-1.57408e-10
3.71598e-05
-1.62369e-10
3.716e-05
-1.60595e-10
3.71602e-05
-1.61884e-10
3.71603e-05
-1.68366e-10
3.71605e-05
-1.7273e-10
3.71607e-05
-1.70229e-10
3.71608e-05
-1.64194e-10
3.7161e-05
-1.58634e-10
3.71612e-05
-1.52544e-10
3.71613e-05
-1.43995e-10
3.71614e-05
-1.34515e-10
3.71615e-05
-1.26409e-10
3.71616e-05
-1.19561e-10
3.71617e-05
-1.13873e-10
3.71618e-05
-1.12046e-10
3.71619e-05
-1.17134e-10
3.7162e-05
-1.2875e-10
3.71622e-05
-1.43579e-10
3.71623e-05
-1.58996e-10
3.71625e-05
-1.75739e-10
3.71627e-05
-1.97949e-10
3.7163e-05
-2.29867e-10
3.71633e-05
-2.70186e-10
3.71636e-05
-3.09993e-10
3.71639e-05
-3.39151e-10
3.71643e-05
-3.54635e-10
3.71646e-05
-3.59318e-10
3.7165e-05
-3.52837e-10
3.71653e-05
-3.28944e-10
3.71656e-05
-2.84165e-10
3.71658e-05
-2.24461e-10
3.7166e-05
-1.58956e-10
3.71661e-05
-8.89746e-11
3.71661e-05
-1.67311e-11
3.7166e-05
5.73953e-11
3.71659e-05
1.2337e-10
3.71657e-05
1.74232e-10
3.71655e-05
2.08829e-10
3.71653e-05
2.28221e-10
3.7165e-05
2.32373e-10
3.71648e-05
2.21748e-10
3.71647e-05
1.99026e-10
3.71645e-05
1.68065e-10
3.71644e-05
1.33211e-10
3.71643e-05
9.97506e-11
3.71642e-05
7.23485e-11
3.71642e-05
5.24689e-11
3.71641e-05
3.84904e-11
3.71641e-05
2.76997e-11
3.71641e-05
1.80458e-11
3.71641e-05
6.64666e-12
3.71641e-05
-6.543e-12
3.71641e-05
-1.59258e-11
3.71641e-05
-1.66211e-11
3.71641e-05
-1.0829e-11
3.71641e-05
-4.5463e-12
3.71641e-05
1.91843e-12
3.71641e-05
1.48364e-11
3.71641e-05
3.72662e-11
3.7164e-05
6.43842e-11
3.71639e-05
9.20559e-11
3.71638e-05
1.24454e-10
3.71636e-05
1.68619e-10
3.71634e-05
2.24463e-10
3.71631e-05
2.84086e-10
3.71627e-05
3.39364e-10
3.71624e-05
3.8727e-10
3.71619e-05
4.28835e-10
3.71615e-05
4.6487e-10
3.7161e-05
4.92556e-10
3.71605e-05
5.06844e-10
3.716e-05
5.06329e-10
3.71595e-05
4.94962e-10
3.7159e-05
4.75461e-10
3.71586e-05
4.45364e-10
3.71582e-05
4.04039e-10
3.71578e-05
3.58279e-10
3.71575e-05
3.1411e-10
3.71572e-05
2.67598e-10
3.7157e-05
2.12114e-10
3.71569e-05
1.52076e-10
3.71568e-05
1.00311e-10
3.71567e-05
6.16579e-11
3.71567e-05
2.85331e-11
3.71567e-05
-3.67724e-12
3.71567e-05
-2.98853e-11
3.71568e-05
-4.40755e-11
3.71568e-05
-5.2166e-11
3.71569e-05
-6.37616e-11
3.7157e-05
-7.71671e-11
3.7157e-05
-8.25632e-11
3.71571e-05
-7.80511e-11
3.71571e-05
-7.05218e-11
3.71572e-05
-6.38162e-11
3.71573e-05
-5.85248e-11
3.71573e-05
-5.9201e-11
3.71574e-05
-6.93618e-11
3.71574e-05
-8.93437e-11
3.71576e-05
-1.31884e-10
3.71578e-05
-2.22103e-10
3.71582e-05
-4.0254e-10
-7.16716e-10
9.76239e-05
-1.4706e-08
9.76314e-05
-1.30391e-08
9.76388e-05
-1.13639e-08
9.76459e-05
-1.02777e-08
9.76529e-05
-9.8642e-09
9.766e-05
-9.9402e-09
9.76672e-05
-1.02164e-08
9.76748e-05
-1.0689e-08
9.76827e-05
-1.12158e-08
9.7691e-05
-1.17415e-08
9.76996e-05
-1.21792e-08
9.77083e-05
-1.24764e-08
9.77171e-05
-1.25584e-08
9.77258e-05
-1.2444e-08
9.77343e-05
-1.2124e-08
9.77424e-05
-1.15723e-08
9.775e-05
-1.08408e-08
9.77569e-05
-9.9931e-09
9.77632e-05
-9.05117e-09
9.77688e-05
-8.03733e-09
9.77737e-05
-6.99575e-09
9.77779e-05
-5.98406e-09
9.77814e-05
-5.04034e-09
9.77843e-05
-4.1636e-09
9.77867e-05
-3.36327e-09
9.77885e-05
-2.67395e-09
9.779e-05
-2.0974e-09
9.77911e-05
-1.596e-09
9.77919e-05
-1.15582e-09
9.77925e-05
-8.01924e-10
9.77929e-05
-5.45582e-10
9.77931e-05
-3.58317e-10
9.77933e-05
-2.09115e-10
9.77934e-05
-9.75941e-11
9.77934e-05
-3.66693e-11
9.77934e-05
-1.79693e-11
9.77934e-05
-1.69359e-11
9.77935e-05
-2.49157e-11
9.77936e-05
-5.37034e-11
9.77937e-05
-1.08704e-10
9.77938e-05
-1.75813e-10
9.77939e-05
-2.39116e-10
9.77942e-05
-2.97243e-10
9.77944e-05
-3.54891e-10
9.77947e-05
-4.10267e-10
9.7795e-05
-4.58899e-10
9.77954e-05
-5.00788e-10
9.77958e-05
-5.36099e-10
9.77962e-05
-5.61086e-10
9.77966e-05
-5.75263e-10
9.77971e-05
-5.85672e-10
9.77975e-05
-5.96474e-10
9.77979e-05
-6.00017e-10
9.77983e-05
-5.86439e-10
9.77987e-05
-5.58231e-10
9.77991e-05
-5.27124e-10
9.77994e-05
-4.98983e-10
9.77997e-05
-4.69943e-10
9.78e-05
-4.3667e-10
9.78002e-05
-4.02663e-10
9.78005e-05
-3.73216e-10
9.78007e-05
-3.50861e-10
9.78009e-05
-3.38822e-10
9.78012e-05
-3.44718e-10
9.78015e-05
-3.77065e-10
9.78018e-05
-4.38828e-10
9.78022e-05
-5.25265e-10
9.78026e-05
-6.27276e-10
9.78032e-05
-7.37197e-10
9.78038e-05
-8.52501e-10
9.78045e-05
-9.72526e-10
9.78053e-05
-1.0896e-09
9.78061e-05
-1.18552e-09
9.7807e-05
-1.24081e-09
9.78079e-05
-1.24664e-09
9.78087e-05
-1.20377e-09
9.78095e-05
-1.11141e-09
9.78102e-05
-9.64637e-10
9.78107e-05
-7.65243e-10
9.78111e-05
-5.29036e-10
9.78113e-05
-2.777e-10
9.78113e-05
-2.85929e-11
9.78111e-05
2.07687e-10
9.78108e-05
4.17505e-10
9.78104e-05
5.85204e-10
9.78099e-05
7.00182e-10
9.78094e-05
7.60649e-10
9.78089e-05
7.71129e-10
9.78084e-05
7.39695e-10
9.78079e-05
6.76679e-10
9.78075e-05
5.92116e-10
9.78072e-05
4.93958e-10
9.78069e-05
3.9025e-10
9.78067e-05
2.91298e-10
9.78066e-05
2.06666e-10
9.78065e-05
1.40607e-10
9.78064e-05
9.24737e-11
9.78063e-05
5.93916e-11
9.78063e-05
3.53941e-11
9.78063e-05
1.38344e-11
9.78063e-05
-8.43216e-12
9.78063e-05
-2.53174e-11
9.78063e-05
-2.96856e-11
9.78063e-05
-2.10307e-11
9.78062e-05
-1.27083e-12
9.78062e-05
3.55082e-11
9.78061e-05
1.0099e-10
9.78059e-05
1.99346e-10
9.78057e-05
3.22877e-10
9.78054e-05
4.62291e-10
9.7805e-05
6.15391e-10
9.78044e-05
7.83174e-10
9.78037e-05
9.62043e-10
9.78029e-05
1.14248e-09
9.7802e-05
1.31246e-09
9.78009e-05
1.46102e-09
9.77998e-05
1.58129e-09
9.77987e-05
1.66982e-09
9.77975e-05
1.72191e-09
9.77962e-05
1.73086e-09
9.77951e-05
1.69496e-09
9.77939e-05
1.62052e-09
9.77928e-05
1.51393e-09
9.77919e-05
1.37702e-09
9.7791e-05
1.21526e-09
9.77903e-05
1.04303e-09
9.77896e-05
8.72659e-10
9.77891e-05
7.03658e-10
9.77888e-05
5.31976e-10
9.77885e-05
3.6561e-10
9.77884e-05
2.20027e-10
9.77883e-05
9.90965e-11
9.77883e-05
-6.00928e-12
9.77884e-05
-9.86054e-11
9.77885e-05
-1.69121e-10
9.77887e-05
-2.12842e-10
9.77888e-05
-2.41212e-10
9.7789e-05
-2.65916e-10
9.77892e-05
-2.83642e-10
9.77894e-05
-2.88099e-10
9.77896e-05
-2.83661e-10
9.77898e-05
-2.78528e-10
9.779e-05
-2.77876e-10
9.77902e-05
-2.88385e-10
9.77905e-05
-3.23164e-10
9.77908e-05
-4.03013e-10
9.77912e-05
-5.54788e-10
9.77918e-05
-8.15098e-10
9.77926e-05
-1.21258e-09
-1.72091e-09
0.000146012
-2.03423e-08
0.000146018
-1.85861e-08
0.000146024
-1.75779e-08
0.000146031
-1.71336e-08
0.000146038
-1.71062e-08
0.000146046
-1.74758e-08
0.000146054
-1.81935e-08
0.000146062
-1.90189e-08
0.000146071
-1.99906e-08
0.00014608
-2.09193e-08
0.000146089
-2.16188e-08
0.000146099
-2.21189e-08
0.000146109
-2.2292e-08
0.000146118
-2.20724e-08
0.000146128
-2.1506e-08
0.000146137
-2.05904e-08
0.000146145
-1.93372e-08
0.000146153
-1.78311e-08
0.00014616
-1.61471e-08
0.000146167
-1.43622e-08
0.000146172
-1.25493e-08
0.000146177
-1.07639e-08
0.000146181
-9.06951e-09
0.000146184
-7.51366e-09
0.000146187
-6.10988e-09
0.000146189
-4.86757e-09
0.000146191
-3.79796e-09
0.000146192
-2.89162e-09
0.000146193
-2.1288e-09
0.000146194
-1.5049e-09
0.000146195
-1.02159e-09
0.000146195
-6.62928e-10
0.000146195
-4.0168e-10
0.000146195
-2.19754e-10
0.000146195
-1.10034e-10
0.000146195
-6.06188e-11
0.000146195
-5.22884e-11
0.000146195
-7.61532e-11
0.000146195
-1.37465e-10
0.000146196
-2.37173e-10
0.000146196
-3.5836e-10
0.000146196
-4.7856e-10
0.000146196
-5.89697e-10
0.000146197
-6.96837e-10
0.000146197
-8.01067e-10
0.000146197
-8.94279e-10
0.000146198
-9.70513e-10
0.000146198
-1.03192e-09
0.000146199
-1.08085e-09
0.000146199
-1.11411e-09
0.0001462
-1.12863e-09
0.0001462
-1.12576e-09
0.000146201
-1.10648e-09
0.000146201
-1.06816e-09
0.000146202
-1.01066e-09
0.000146202
-9.40688e-10
0.000146203
-8.65753e-10
0.000146203
-7.87461e-10
0.000146203
-7.0551e-10
0.000146203
-6.25531e-10
0.000146204
-5.58508e-10
0.000146204
-5.14111e-10
0.000146204
-4.98717e-10
0.000146204
-5.18936e-10
0.000146204
-5.82888e-10
0.000146205
-6.97002e-10
0.000146205
-8.62354e-10
0.000146205
-1.07285e-09
0.000146206
-1.31532e-09
0.000146207
-1.57253e-09
0.000146208
-1.82762e-09
0.000146209
-2.0637e-09
0.00014621
-2.25835e-09
0.000146211
-2.38297e-09
0.000146212
-2.41312e-09
0.000146213
-2.33896e-09
0.000146214
-2.16262e-09
0.000146215
-1.88842e-09
0.000146216
-1.52244e-09
0.000146216
-1.08208e-09
0.000146217
-5.99361e-10
0.000146217
-1.11386e-10
0.000146216
3.50297e-10
0.000146216
7.59299e-10
0.000146216
1.09138e-09
0.000146215
1.32762e-09
0.000146214
1.46023e-09
0.000146214
1.49345e-09
0.000146213
1.44077e-09
0.000146212
1.32258e-09
0.000146212
1.16283e-09
0.000146211
9.83371e-10
0.000146211
8.00866e-10
0.000146211
6.28288e-10
0.00014621
4.75941e-10
0.00014621
3.4895e-10
0.00014621
2.46774e-10
0.00014621
1.66954e-10
0.00014621
1.06503e-10
0.00014621
5.9362e-11
0.00014621
1.75669e-11
0.00014621
-2.02531e-11
0.00014621
-4.6103e-11
0.00014621
-5.03943e-11
0.00014621
-2.95637e-11
0.00014621
2.01252e-11
0.00014621
1.1036e-10
0.00014621
2.55218e-10
0.00014621
4.58482e-10
0.000146209
7.11458e-10
0.000146209
1.00185e-09
0.000146208
1.3195e-09
0.000146208
1.65433e-09
0.000146207
1.99336e-09
0.000146206
2.32014e-09
0.000146205
2.61523e-09
0.000146203
2.8598e-09
0.000146202
3.04125e-09
0.000146201
3.15306e-09
0.000146199
3.18902e-09
0.000146198
3.14403e-09
0.000146196
3.022e-09
0.000146195
2.83556e-09
0.000146194
2.59537e-09
0.000146193
2.30755e-09
0.000146192
1.984e-09
0.000146191
1.64619e-09
0.00014619
1.31286e-09
0.00014619
9.90606e-10
0.00014619
6.82853e-10
0.000146189
4.01572e-10
0.000146189
1.60192e-10
0.000146189
-4.08471e-11
0.000146189
-2.10358e-10
0.00014619
-3.49646e-10
0.00014619
-4.51369e-10
0.00014619
-5.15473e-10
0.00014619
-5.53513e-10
0.000146191
-5.75249e-10
0.000146191
-5.83724e-10
0.000146191
-5.83629e-10
0.000146192
-5.84282e-10
0.000146192
-5.94094e-10
0.000146192
-6.21354e-10
0.000146193
-6.8914e-10
0.000146193
-8.30735e-10
0.000146193
-1.07818e-09
0.000146194
-1.46797e-09
0.000146195
-2.0108e-09
-2.60388e-09
0.000183604
-2.21129e-08
0.000183606
-2.03418e-08
0.000183609
-2.00134e-08
0.000183612
-2.04352e-08
0.000183616
-2.10413e-08
0.00018362
-2.18821e-08
0.000183625
-2.29738e-08
0.00018363
-2.4185e-08
0.000183635
-2.54361e-08
0.000183641
-2.66227e-08
0.000183647
-2.75823e-08
0.000183653
-2.82314e-08
0.000183659
-2.84695e-08
0.000183665
-2.82295e-08
0.000183671
-2.75228e-08
0.000183677
-2.63936e-08
0.000183683
-2.48553e-08
0.000183688
-2.29823e-08
0.000183693
-2.08735e-08
0.000183697
-1.86322e-08
0.000183701
-1.63472e-08
0.000183704
-1.40792e-08
0.000183707
-1.19003e-08
0.000183709
-9.88202e-09
0.000183711
-8.0531e-09
0.000183713
-6.41937e-09
0.000183714
-4.99629e-09
0.000183715
-3.79485e-09
0.000183716
-2.80192e-09
0.000183716
-1.99304e-09
0.000183717
-1.35073e-09
0.000183717
-8.6167e-10
0.000183717
-5.06477e-10
0.000183717
-2.63272e-10
0.000183717
-1.12537e-10
0.000183717
-4.53084e-11
0.000183717
-4.73206e-11
0.000183717
-1.0254e-10
0.000183717
-2.00334e-10
0.000183717
-3.36023e-10
0.000183718
-5.00149e-10
0.000183718
-6.74253e-10
0.000183718
-8.42722e-10
0.000183718
-1.003e-09
0.000183719
-1.15731e-09
0.000183719
-1.29936e-09
0.00018372
-1.41767e-09
0.00018372
-1.50817e-09
0.00018372
-1.57408e-09
0.000183721
-1.61431e-09
0.000183721
-1.62111e-09
0.000183722
-1.59038e-09
0.000183722
-1.52685e-09
0.000183723
-1.43711e-09
0.000183723
-1.32377e-09
0.000183723
-1.18931e-09
0.000183723
-1.04032e-09
0.000183724
-8.84453e-10
0.000183724
-7.27574e-10
0.000183724
-5.77579e-10
0.000183723
-4.49048e-10
0.000183723
-3.60963e-10
0.000183723
-3.30309e-10
0.000183723
-3.68486e-10
0.000183723
-4.81225e-10
0.000183723
-6.70167e-10
0.000183723
-9.34272e-10
0.000183723
-1.26938e-09
0.000183723
-1.66372e-09
0.000183724
-2.09336e-09
0.000183725
-2.52479e-09
0.000183726
-2.92296e-09
0.000183727
-3.25481e-09
0.000183728
-3.48585e-09
0.000183729
-3.58094e-09
0.00018373
-3.5149e-09
0.000183731
-3.28198e-09
0.000183732
-2.89293e-09
0.000183733
-2.3664e-09
0.000183734
-1.72859e-09
0.000183734
-1.01882e-09
0.000183734
-2.88158e-10
0.000183734
4.11384e-10
0.000183734
1.03521e-09
0.000183733
1.54758e-09
0.000183733
1.92262e-09
0.000183732
2.14819e-09
0.000183731
2.22772e-09
0.000183731
2.17728e-09
0.00018373
2.02255e-09
0.000183729
1.79688e-09
0.000183729
1.53623e-09
0.000183728
1.27137e-09
0.000183728
1.02396e-09
0.000183728
8.07232e-10
0.000183727
6.26152e-10
0.000183727
4.77088e-10
0.000183727
3.51973e-10
0.000183727
2.44432e-10
0.000183727
1.49857e-10
0.000183727
6.13445e-11
0.000183727
-2.56501e-11
0.000183727
-1.07227e-10
0.000183727
-1.67141e-10
0.000183727
-1.90272e-10
0.000183727
-1.67205e-10
0.000183727
-8.90108e-11
0.000183728
5.8514e-11
0.000183728
2.88152e-10
0.000183728
6.01373e-10
0.000183728
9.88183e-10
0.000183728
1.43272e-09
0.000183727
1.91575e-09
0.000183727
2.41492e-09
0.000183726
2.90619e-09
0.000183726
3.36389e-09
0.000183725
3.76023e-09
0.000183724
4.07002e-09
0.000183723
4.27732e-09
0.000183721
4.37428e-09
0.00018372
4.35582e-09
0.000183719
4.22219e-09
0.000183718
3.9854e-09
0.000183717
3.66484e-09
0.000183716
3.27605e-09
0.000183715
2.83115e-09
0.000183714
2.34996e-09
0.000183714
1.86165e-09
0.000183713
1.39054e-09
0.000183713
9.46676e-10
0.000183713
5.35891e-10
0.000183713
1.71743e-10
0.000183713
-1.319e-10
0.000183713
-3.76121e-10
0.000183713
-5.72746e-10
0.000183714
-7.25902e-10
0.000183714
-8.30716e-10
0.000183714
-8.9041e-10
0.000183715
-9.18557e-10
0.000183715
-9.25675e-10
0.000183715
-9.18539e-10
0.000183716
-9.09353e-10
0.000183716
-9.14676e-10
0.000183716
-9.50375e-10
0.000183717
-1.03623e-09
0.000183717
-1.1967e-09
0.000183717
-1.47326e-09
0.000183718
-1.89229e-09
0.000183718
-2.47149e-09
-3.05996e-09
0.000211571
-1.92774e-08
0.000211568
-1.75918e-08
0.000211566
-1.76787e-08
0.000211564
-1.87064e-08
0.000211563
-1.96665e-08
0.000211561
-2.07523e-08
0.000211561
-2.19836e-08
0.00021156
-2.33383e-08
0.000211559
-2.46674e-08
0.000211558
-2.58987e-08
0.000211558
-2.69148e-08
0.000211557
-2.76109e-08
0.000211556
-2.79093e-08
0.000211556
-2.77687e-08
0.000211556
-2.7159e-08
0.000211555
-2.61025e-08
0.000211555
-2.46506e-08
0.000211555
-2.28751e-08
0.000211555
-2.08534e-08
0.000211555
-1.86772e-08
0.000211555
-1.64451e-08
0.000211555
-1.42245e-08
0.000211555
-1.20684e-08
0.000211555
-1.00455e-08
0.000211556
-8.20893e-09
0.000211556
-6.56983e-09
0.000211556
-5.12686e-09
0.000211556
-3.89081e-09
0.000211556
-2.86711e-09
0.000211556
-2.03838e-09
0.000211556
-1.37654e-09
0.000211556
-8.61399e-10
0.000211556
-4.80288e-10
0.000211556
-2.20109e-10
0.000211556
-6.53948e-11
0.000211556
-3.56264e-12
0.000211556
-2.20059e-11
0.000211556
-1.04483e-10
0.000211556
-2.34108e-10
0.000211556
-3.99608e-10
0.000211556
-5.93338e-10
0.000211556
-8.0358e-10
0.000211556
-1.015e-09
0.000211556
-1.21803e-09
0.000211556
-1.41083e-09
0.000211557
-1.58883e-09
0.000211557
-1.73926e-09
0.000211557
-1.8503e-09
0.000211558
-1.91943e-09
0.000211558
-1.94739e-09
0.000211558
-1.92937e-09
0.000211559
-1.85904e-09
0.000211559
-1.73823e-09
0.000211559
-1.57593e-09
0.000211559
-1.37924e-09
0.000211559
-1.15154e-09
0.000211559
-8.99484e-10
0.000211559
-6.35855e-10
0.000211558
-3.75256e-10
0.000211558
-1.31796e-10
0.000211557
7.6805e-11
0.000211557
2.26552e-10
0.000211556
2.91817e-10
0.000211555
2.52244e-10
0.000211555
9.78786e-11
0.000211554
-1.71966e-10
0.000211554
-5.51134e-10
0.000211554
-1.02973e-09
0.000211554
-1.59252e-09
0.000211554
-2.21218e-09
0.000211554
-2.84536e-09
0.000211555
-3.43954e-09
0.000211555
-3.94473e-09
0.000211556
-4.31747e-09
0.000211557
-4.51741e-09
0.000211558
-4.50945e-09
0.000211559
-4.27513e-09
0.00021156
-3.82106e-09
0.000211561
-3.17468e-09
0.000211561
-2.37573e-09
0.000211562
-1.47451e-09
0.000211562
-5.33026e-10
0.000211562
3.80716e-10
0.000211562
1.20397e-09
0.000211562
1.88682e-09
0.000211561
2.39494e-09
0.000211561
2.71235e-09
0.00021156
2.84324e-09
0.000211559
2.80879e-09
0.000211559
2.64098e-09
0.000211558
2.37875e-09
0.000211558
2.06496e-09
0.000211557
1.7397e-09
0.000211557
1.43313e-09
0.000211556
1.16339e-09
0.000211556
9.37543e-10
0.000211556
7.51215e-10
0.000211556
5.90407e-10
0.000211555
4.39534e-10
0.000211555
2.8889e-10
0.000211555
1.32877e-10
0.000211555
-3.19758e-11
0.000211555
-2.05426e-10
0.000211555
-3.7201e-10
0.000211556
-5.06068e-10
0.000211556
-5.83393e-10
0.000211557
-5.87004e-10
0.000211557
-5.02146e-10
0.000211558
-3.13552e-10
0.000211558
-1.2411e-11
0.000211559
3.98501e-10
0.000211559
9.05412e-10
0.00021156
1.48582e-09
0.00021156
2.10978e-09
0.00021156
2.74332e-09
0.00021156
3.35243e-09
0.00021156
3.90264e-09
0.00021156
4.35926e-09
0.00021156
4.69456e-09
0.000211559
4.89368e-09
0.000211558
4.95027e-09
0.000211558
4.8613e-09
0.000211557
4.63244e-09
0.000211557
4.28351e-09
0.000211556
3.84073e-09
0.000211556
3.32558e-09
0.000211555
2.75788e-09
0.000211555
2.16648e-09
0.000211555
1.58586e-09
0.000211555
1.03912e-09
0.000211555
5.34235e-10
0.000211555
7.99318e-11
0.000211555
-3.05654e-10
0.000211555
-6.12325e-10
0.000211555
-8.49702e-10
0.000211556
-1.03059e-09
0.000211556
-1.15514e-09
0.000211556
-1.22436e-09
0.000211557
-1.25083e-09
0.000211557
-1.24767e-09
0.000211557
-1.22417e-09
0.000211558
-1.1918e-09
0.000211558
-1.16887e-09
0.000211558
-1.1792e-09
0.000211558
-1.23555e-09
0.000211558
-1.35482e-09
0.000211558
-1.57173e-09
0.000211558
-1.91156e-09
0.000211558
-2.3919e-09
-2.86323e-09
0.000230855
-1.21465e-08
0.000230848
-1.10203e-08
0.000230842
-1.11677e-08
0.000230835
-1.20833e-08
0.000230829
-1.30467e-08
0.000230822
-1.39825e-08
0.000230815
-1.50252e-08
0.000230808
-1.61196e-08
0.0002308
-1.71855e-08
0.000230792
-1.81625e-08
0.000230784
-1.8989e-08
0.000230776
-1.95576e-08
0.000230768
-1.98529e-08
0.00023076
-1.98371e-08
0.000230753
-1.94646e-08
0.000230745
-1.87683e-08
0.000230739
-1.77977e-08
0.000230732
-1.65885e-08
0.000230727
-1.51807e-08
0.000230722
-1.36359e-08
0.000230717
-1.20329e-08
0.000230713
-1.04277e-08
0.00023071
-8.8529e-09
0.000230708
-7.35755e-09
0.000230705
-5.99497e-09
0.000230704
-4.78104e-09
0.000230702
-3.70413e-09
0.000230701
-2.76382e-09
0.0002307
-1.97445e-09
0.0002307
-1.33749e-09
0.000230699
-8.31101e-10
0.000230699
-4.33545e-10
0.000230699
-1.3824e-10
0.000230698
5.1749e-11
0.000230698
1.44523e-10
0.000230698
1.57653e-10
0.000230698
1.05345e-10
0.000230698
-4.86791e-12
0.000230698
-1.64172e-10
0.000230698
-3.59571e-10
0.000230698
-5.79432e-10
0.000230698
-8.15303e-10
0.000230698
-1.05679e-09
0.000230698
-1.29125e-09
0.000230698
-1.5097e-09
0.000230698
-1.70652e-09
0.000230698
-1.87179e-09
0.000230698
-1.99013e-09
0.000230698
-2.05e-09
0.000230698
-2.0489e-09
0.000230698
-1.98733e-09
0.000230698
-1.86296e-09
0.000230698
-1.67446e-09
0.000230698
-1.42687e-09
0.000230698
-1.12891e-09
0.000230697
-7.88259e-10
0.000230697
-4.14078e-10
0.000230696
-2.25153e-11
0.000230696
3.63159e-10
0.000230695
7.17842e-10
0.000230694
1.01635e-09
0.000230693
1.23213e-09
0.000230692
1.33804e-09
0.000230691
1.3103e-09
0.00023069
1.13255e-09
0.000230689
7.98242e-10
0.000230688
3.12309e-10
0.000230687
-3.09253e-10
0.000230687
-1.04158e-09
0.000230686
-1.85009e-09
0.000230686
-2.68616e-09
0.000230686
-3.48719e-09
0.000230686
-4.18658e-09
0.000230687
-4.72576e-09
0.000230687
-5.05741e-09
0.000230688
-5.1431e-09
0.000230689
-4.9576e-09
0.000230689
-4.49972e-09
0.00023069
-3.79715e-09
0.000230691
-2.89966e-09
0.000230691
-1.87013e-09
0.000230691
-7.81181e-10
0.000230691
2.88203e-10
0.000230691
1.26204e-09
0.000230691
2.07797e-09
0.000230691
2.69313e-09
0.00023069
3.08663e-09
0.00023069
3.26153e-09
0.00023069
3.24324e-09
0.000230689
3.07191e-09
0.000230689
2.79404e-09
0.000230688
2.45735e-09
0.000230688
2.10599e-09
0.000230688
1.77372e-09
0.000230687
1.47996e-09
0.000230687
1.23106e-09
0.000230687
1.02204e-09
0.000230687
8.36354e-10
0.000230686
6.50417e-10
0.000230686
4.44585e-10
0.000230686
2.10193e-10
0.000230686
-5.35049e-11
0.000230686
-3.43624e-10
0.000230686
-6.47858e-10
0.000230687
-9.39024e-10
0.000230688
-1.18104e-09
0.000230688
-1.34116e-09
0.000230689
-1.39448e-09
0.00023069
-1.32098e-09
0.000230691
-1.10648e-09
0.000230692
-7.47702e-10
0.000230694
-2.54052e-10
0.000230695
3.5325e-10
0.000230696
1.0422e-09
0.000230697
1.77177e-09
0.000230698
2.49822e-09
0.000230698
3.17955e-09
0.000230699
3.7751e-09
0.000230699
4.24816e-09
0.0002307
4.57364e-09
0.0002307
4.74005e-09
0.0002307
4.74287e-09
0.0002307
4.5826e-09
0.0002307
4.27205e-09
0.0002307
3.83871e-09
0.0002307
3.31473e-09
0.0002307
2.72764e-09
0.0002307
2.10425e-09
0.0002307
1.47747e-09
0.0002307
8.79893e-10
0.000230701
3.31795e-10
0.000230701
-1.57624e-10
0.000230701
-5.77766e-10
0.000230701
-9.16517e-10
0.000230702
-1.17221e-09
0.000230702
-1.35403e-09
0.000230702
-1.46974e-09
0.000230703
-1.52506e-09
0.000230703
-1.53112e-09
0.000230703
-1.50229e-09
0.000230703
-1.44929e-09
0.000230704
-1.37783e-09
0.000230704
-1.30321e-09
0.000230704
-1.24624e-09
0.000230704
-1.22086e-09
0.000230704
-1.24482e-09
0.000230703
-1.33475e-09
0.000230703
-1.49348e-09
0.000230702
-1.74877e-09
-1.99438e-09
0.000242145
-2.18256e-09
0.000242136
-1.80827e-09
0.000242127
-1.95579e-09
0.000242117
-2.318e-09
0.000242107
-2.79655e-09
0.000242096
-3.19579e-09
0.000242085
-3.6762e-09
0.000242073
-4.15995e-09
0.00024206
-4.64079e-09
0.000242047
-5.07545e-09
0.000242034
-5.48754e-09
0.00024202
-5.80965e-09
0.000242006
-6.03953e-09
0.000241992
-6.16738e-09
0.000241979
-6.15994e-09
0.000241966
-6.03237e-09
0.000241954
-5.79963e-09
0.000241943
-5.47269e-09
0.000241933
-5.06881e-09
0.000241924
-4.59792e-09
0.000241916
-4.08061e-09
0.000241909
-3.54858e-09
0.000241903
-3.01697e-09
0.000241898
-2.4927e-09
0.000241894
-1.99434e-09
0.000241891
-1.5375e-09
0.000241888
-1.12049e-09
0.000241886
-7.40876e-10
0.000241885
-4.10047e-10
0.000241884
-1.38832e-10
0.000241883
7.78452e-11
0.000241882
2.48806e-10
0.000241881
3.68987e-10
0.000241881
4.25447e-10
0.000241881
4.18104e-10
0.000241881
3.61186e-10
0.00024188
2.65588e-10
0.00024188
1.30505e-10
0.00024188
-4.59173e-11
0.00024188
-2.56189e-10
0.00024188
-4.87447e-10
0.00024188
-7.31037e-10
0.00024188
-9.80372e-10
0.00024188
-1.22427e-09
0.000241879
-1.44915e-09
0.000241879
-1.64523e-09
0.000241879
-1.80394e-09
0.000241879
-1.91129e-09
0.000241879
-1.95093e-09
0.000241879
-1.91438e-09
0.000241879
-1.80285e-09
0.000241879
-1.61862e-09
0.000241878
-1.36018e-09
0.000241878
-1.02746e-09
0.000241877
-6.27286e-10
0.000241877
-1.71666e-10
0.000241876
3.24708e-10
0.000241875
8.41949e-10
0.000241874
1.35168e-09
0.000241873
1.81957e-09
0.000241872
2.21078e-09
0.000241871
2.49332e-09
0.000241869
2.63899e-09
0.000241868
2.62414e-09
0.000241867
2.43065e-09
0.000241865
2.04758e-09
0.000241864
1.47563e-09
0.000241863
7.32072e-10
0.000241862
-1.49465e-10
0.000241862
-1.12368e-09
0.000241861
-2.13595e-09
0.000241861
-3.12029e-09
0.000241861
-4.00149e-09
0.000241861
-4.70616e-09
0.000241861
-5.17476e-09
0.000241861
-5.36523e-09
0.000241861
-5.25248e-09
0.000241861
-4.8328e-09
0.000241862
-4.13109e-09
0.000241862
-3.20068e-09
0.000241862
-2.11392e-09
0.000241862
-9.53408e-10
0.000241863
1.94293e-10
0.000241863
1.2459e-09
0.000241863
2.13198e-09
0.000241862
2.8049e-09
0.000241862
3.24133e-09
0.000241862
3.44299e-09
0.000241862
3.43613e-09
0.000241862
3.26582e-09
0.000241862
2.98542e-09
0.000241861
2.64763e-09
0.000241861
2.29897e-09
0.000241861
1.9742e-09
0.000241861
1.69106e-09
0.000241861
1.45065e-09
0.00024186
1.2425e-09
0.00024186
1.04723e-09
0.00024186
8.37586e-10
0.00024186
5.85558e-10
0.00024186
2.74437e-10
0.00024186
-9.65108e-11
0.00024186
-5.17433e-10
0.00024186
-9.72409e-10
0.000241861
-1.43502e-09
0.000241861
-1.86604e-09
0.000241862
-2.22111e-09
0.000241863
-2.46115e-09
0.000241865
-2.55585e-09
0.000241866
-2.48385e-09
0.000241867
-2.23584e-09
0.000241869
-1.81733e-09
0.000241871
-1.24726e-09
0.000241872
-5.56563e-10
0.000241874
2.11963e-10
0.000241875
1.00798e-09
0.000241877
1.78196e-09
0.000241878
2.48862e-09
0.000241879
3.08598e-09
0.00024188
3.53893e-09
0.000241881
3.82667e-09
0.000241882
3.94241e-09
0.000241883
3.88654e-09
0.000241883
3.66606e-09
0.000241884
3.30141e-09
0.000241884
2.82719e-09
0.000241885
2.28054e-09
0.000241885
1.69111e-09
0.000241886
1.08595e-09
0.000241886
4.97566e-10
0.000241886
-4.21255e-11
0.000241887
-5.15286e-10
0.000241887
-9.17045e-10
0.000241887
-1.2414e-09
0.000241888
-1.47985e-09
0.000241888
-1.63464e-09
0.000241888
-1.71873e-09
0.000241888
-1.74291e-09
0.000241889
-1.71434e-09
0.000241889
-1.64365e-09
0.000241889
-1.54347e-09
0.000241889
-1.42308e-09
0.000241889
-1.29163e-09
0.000241889
-1.15102e-09
0.000241888
-1.0145e-09
0.000241888
-8.94935e-10
0.000241888
-7.9393e-10
0.000241887
-7.14741e-10
0.000241886
-6.71317e-10
-6.24809e-10
0.000245861
8.78708e-09
0.000245851
8.17927e-09
0.000245841
8.17431e-09
0.00024583
8.46297e-09
0.000245818
8.70673e-09
0.000245806
8.95034e-09
0.000245793
9.19272e-09
0.00024578
9.42971e-09
0.000245765
9.65626e-09
0.00024575
9.83522e-09
0.000245735
9.93827e-09
0.000245719
9.95161e-09
0.000245703
9.8324e-09
0.000245688
9.57865e-09
0.000245672
9.20183e-09
0.000245658
8.70762e-09
0.000245644
8.11503e-09
0.000245631
7.44302e-09
0.000245619
6.71207e-09
0.000245608
5.96258e-09
0.000245599
5.23058e-09
0.000245591
4.52681e-09
0.000245584
3.86345e-09
0.000245578
3.26717e-09
0.000245574
2.75577e-09
0.00024557
2.32675e-09
0.000245567
1.97076e-09
0.000245564
1.68208e-09
0.000245563
1.45579e-09
0.000245561
1.28298e-09
0.00024556
1.1506e-09
0.000245559
1.04283e-09
0.000245559
9.43099e-10
0.000245558
8.37705e-10
0.000245558
7.20084e-10
0.000245558
5.90158e-10
0.000245558
4.47589e-10
0.000245557
2.86508e-10
0.000245557
9.93982e-11
0.000245557
-1.13901e-10
0.000245557
-3.44109e-10
0.000245557
-5.81002e-10
0.000245557
-8.18628e-10
0.000245556
-1.05052e-09
0.000245556
-1.26451e-09
0.000245556
-1.44595e-09
0.000245556
-1.58252e-09
0.000245556
-1.66259e-09
0.000245555
-1.67268e-09
0.000245555
-1.60173e-09
0.000245555
-1.44651e-09
0.000245554
-1.20867e-09
0.000245554
-8.88224e-10
0.000245553
-4.84047e-10
0.000245552
-8.33908e-13
0.000245552
5.47175e-10
0.000245551
1.13943e-09
0.00024555
1.75093e-09
0.000245549
2.35072e-09
0.000245548
2.90159e-09
0.000245547
3.36414e-09
0.000245546
3.70148e-09
0.000245545
3.88196e-09
0.000245543
3.88029e-09
0.000245542
3.67842e-09
0.000245541
3.26583e-09
0.00024554
2.64201e-09
0.000245539
1.82225e-09
0.000245538
8.42141e-10
0.000245537
-2.4542e-10
0.000245536
-1.37756e-09
0.000245535
-2.48503e-09
0.000245535
-3.49156e-09
0.000245534
-4.31831e-09
0.000245534
-4.89636e-09
0.000245534
-5.17801e-09
0.000245534
-5.13939e-09
0.000245534
-4.7794e-09
0.000245534
-4.12231e-09
0.000245534
-3.22043e-09
0.000245534
-2.14918e-09
0.000245534
-9.96633e-10
0.000245534
1.46398e-10
0.000245534
1.19412e-09
0.000245534
2.07517e-09
0.000245534
2.7415e-09
0.000245534
3.1718e-09
0.000245534
3.37005e-09
0.000245534
3.36322e-09
0.000245534
3.19705e-09
0.000245534
2.92708e-09
0.000245534
2.60778e-09
0.000245534
2.28544e-09
0.000245534
1.99352e-09
0.000245534
1.74763e-09
0.000245534
1.54335e-09
0.000245534
1.36161e-09
0.000245534
1.17672e-09
0.000245534
9.59813e-10
0.000245534
6.80614e-10
0.000245534
3.15578e-10
0.000245534
-1.41444e-10
0.000245534
-6.77846e-10
0.000245534
-1.27009e-09
0.000245535
-1.88733e-09
0.000245535
-2.48909e-09
0.000245536
-3.02631e-09
0.000245537
-3.45014e-09
0.000245538
-3.72013e-09
0.00024554
-3.80728e-09
0.000245541
-3.69627e-09
0.000245543
-3.38833e-09
0.000245544
-2.90036e-09
0.000245546
-2.26154e-09
0.000245548
-1.51251e-09
0.000245549
-7.04325e-10
0.000245551
1.08762e-10
0.000245553
8.77306e-10
0.000245554
1.55725e-09
0.000245556
2.10847e-09
0.000245557
2.50091e-09
0.000245558
2.72145e-09
0.000245559
2.77102e-09
0.00024556
2.65722e-09
0.000245561
2.39505e-09
0.000245562
2.01294e-09
0.000245563
1.54951e-09
0.000245563
1.03958e-09
0.000245564
5.09835e-10
0.000245565
-1.25729e-11
0.000245565
-4.94303e-10
0.000245565
-9.09906e-10
0.000245566
-1.25318e-09
0.000245566
-1.5237e-09
0.000245566
-1.71335e-09
0.000245566
-1.82011e-09
0.000245567
-1.85832e-09
0.000245567
-1.84175e-09
0.000245567
-1.77434e-09
0.000245567
-1.66189e-09
0.000245567
-1.51551e-09
0.000245567
-1.34639e-09
0.000245566
-1.15253e-09
0.000245566