/*--------------------------------*- C++ -*----------------------------------*\
| =========                 |                                                 |
| \\      /  F ield         | OpenFOAM: The Open Source CFD Toolbox           |
|  \\    /   O peration     | Version:  2406                                  |
|   \\  /    A nd           | Website:  www.openfoam.com                      |
|    \\/     M anipulation  |                                                 |
\*---------------------------------------------------------------------------*/
FoamFile
{
    version     2.0;
    format      ascii;
    arch        "LSB;label=32;scalar=64";
    class       volVectorField;
    location    "0.1";
    object      U;
}
// * * * * * * * * * * * * * * * * * * * * * * * * * * * * * * * * * * * * * //

dimensions      [0 1 -1 0 0 0 0];

internalField   nonuniform List<vector> 
2250
(
(0.556201 -4.79399e-05 0)
(0.556292 -3.60813e-05 0)
(0.556371 -2.32354e-05 0)
(0.556427 -1.56278e-05 0)
(0.556471 -1.32381e-05 0)
(0.556513 -1.28549e-05 0)
(0.556555 -1.30346e-05 0)
(0.5566 -1.40219e-05 0)
(0.556648 -1.50732e-05 0)
(0.556698 -1.6556e-05 0)
(0.556751 -1.74602e-05 0)
(0.556806 -1.81526e-05 0)
(0.556862 -1.86651e-05 0)
(0.556918 -1.85524e-05 0)
(0.556974 -1.81026e-05 0)
(0.557028 -1.74763e-05 0)
(0.557078 -1.64696e-05 0)
(0.557126 -1.51578e-05 0)
(0.557169 -1.37809e-05 0)
(0.557207 -1.23302e-05 0)
(0.557241 -1.07263e-05 0)
(0.55727 -9.17261e-06 0)
(0.557295 -7.77761e-06 0)
(0.557316 -6.36965e-06 0)
(0.557333 -4.96392e-06 0)
(0.557347 -3.83057e-06 0)
(0.557357 -3.04024e-06 0)
(0.557365 -2.37886e-06 0)
(0.557371 -1.71987e-06 0)
(0.557375 -1.15806e-06 0)
(0.557378 -7.67293e-07 0)
(0.55738 -4.70509e-07 0)
(0.557381 -1.82479e-07 0)
(0.557382 6.3215e-08 0)
(0.557382 1.82576e-07 0)
(0.557382 1.6705e-07 0)
(0.557382 9.10893e-08 0)
(0.557382 3.74505e-08 0)
(0.557382 3.06759e-08 0)
(0.557383 3.68827e-08 0)
(0.557383 -2.21262e-09 0)
(0.557384 -1.19539e-07 0)
(0.557385 -2.80196e-07 0)
(0.557386 -4.09738e-07 0)
(0.557387 -4.82637e-07 0)
(0.557389 -5.49173e-07 0)
(0.557391 -6.48499e-07 0)
(0.557393 -7.3877e-07 0)
(0.557396 -7.60354e-07 0)
(0.557398 -7.32729e-07 0)
(0.557401 -7.28282e-07 0)
(0.557404 -7.69572e-07 0)
(0.557406 -8.11279e-07 0)
(0.557409 -8.1692e-07 0)
(0.557411 -7.98392e-07 0)
(0.557414 -7.7477e-07 0)
(0.557416 -7.41624e-07 0)
(0.557418 -6.95676e-07 0)
(0.55742 -6.51143e-07 0)
(0.557422 -6.16041e-07 0)
(0.557423 -5.81734e-07 0)
(0.557424 -5.50178e-07 0)
(0.557426 -5.4592e-07 0)
(0.557428 -5.84804e-07 0)
(0.557429 -6.48804e-07 0)
(0.557432 -7.06491e-07 0)
(0.557434 -7.48146e-07 0)
(0.557436 -7.9446e-07 0)
(0.557439 -8.81394e-07 0)
(0.557443 -1.03585e-06 0)
(0.557447 -1.24778e-06 0)
(0.557452 -1.46307e-06 0)
(0.557457 -1.62307e-06 0)
(0.557462 -1.71491e-06 0)
(0.557467 -1.76165e-06 0)
(0.557472 -1.76058e-06 0)
(0.557477 -1.66502e-06 0)
(0.557482 -1.44508e-06 0)
(0.557486 -1.13675e-06 0)
(0.557489 -8.04282e-07 0)
(0.55749 -4.71982e-07 0)
(0.557491 -1.10872e-07 0)
(0.557491 2.64479e-07 0)
(0.557489 6.12717e-07 0)
(0.557487 8.92512e-07 0)
(0.557484 1.08314e-06 0)
(0.55748 1.17646e-06 0)
(0.557477 1.17498e-06 0)
(0.557474 1.10099e-06 0)
(0.557471 9.82082e-07 0)
(0.557469 8.26295e-07 0)
(0.557467 6.34732e-07 0)
(0.557465 4.36824e-07 0)
(0.557464 2.83815e-07 0)
(0.557463 1.99688e-07 0)
(0.557462 1.60929e-07 0)
(0.557462 1.27186e-07 0)
(0.557462 6.95217e-08 0)
(0.557462 -1.59575e-08 0)
(0.557462 -1.05755e-07 0)
(0.557462 -1.60185e-07 0)
(0.557462 -1.54304e-07 0)
(0.557462 -1.15131e-07 0)
(0.557462 -8.90659e-08 0)
(0.557462 -7.09973e-08 0)
(0.557462 -7.77292e-09 0)
(0.557461 1.1907e-07 0)
(0.557461 2.61463e-07 0)
(0.557459 3.77735e-07 0)
(0.557458 4.99707e-07 0)
(0.557455 6.93545e-07 0)
(0.557452 9.7714e-07 0)
(0.557448 1.3041e-06 0)
(0.557444 1.61277e-06 0)
(0.557438 1.86846e-06 0)
(0.557432 2.07184e-06 0)
(0.557426 2.24232e-06 0)
(0.557418 2.38484e-06 0)
(0.557411 2.47282e-06 0)
(0.557404 2.48038e-06 0)
(0.557396 2.41997e-06 0)
(0.557389 2.32056e-06 0)
(0.557382 2.18433e-06 0)
(0.557375 2.00193e-06 0)
(0.55737 1.79165e-06 0)
(0.557365 1.57616e-06 0)
(0.55736 1.33658e-06 0)
(0.557357 1.04436e-06 0)
(0.557354 7.33002e-07 0)
(0.557352 4.78796e-07 0)
(0.557351 3.01089e-07 0)
(0.55735 1.42848e-07 0)
(0.55735 -2.62946e-08 0)
(0.557351 -1.49332e-07 0)
(0.557351 -1.87523e-07 0)
(0.557352 -2.00184e-07 0)
(0.557353 -2.61708e-07 0)
(0.557354 -3.46515e-07 0)
(0.557355 -3.76938e-07 0)
(0.557356 -3.44873e-07 0)
(0.557357 -2.93812e-07 0)
(0.557358 -2.29743e-07 0)
(0.557358 -1.48109e-07 0)
(0.557359 -9.37638e-08 0)
(0.55736 -1.04999e-07 0)
(0.557361 -1.87015e-07 0)
(0.557362 -4.29335e-07 0)
(0.557365 -1.05614e-06 0)
(0.55737 -2.45336e-06 0)
(0.55738 -4.86533e-06 0)
(1.46429 -0.000162135 0)
(1.4644 -0.00013828 0)
(1.46452 -0.000111588 0)
(1.46464 -9.38597e-05 0)
(1.46474 -8.68918e-05 0)
(1.46485 -8.63657e-05 0)
(1.46495 -8.80247e-05 0)
(1.46506 -9.23066e-05 0)
(1.46518 -9.71418e-05 0)
(1.4653 -0.000102349 0)
(1.46543 -0.000106459 0)
(1.46556 -0.000109198 0)
(1.46569 -0.000110136 0)
(1.46582 -0.000109057 0)
(1.46595 -0.000106172 0)
(1.46608 -0.000101368 0)
(1.46619 -9.48942e-05 0)
(1.4663 -8.73088e-05 0)
(1.4664 -7.89766e-05 0)
(1.46649 -7.00532e-05 0)
(1.46657 -6.08264e-05 0)
(1.46664 -5.19344e-05 0)
(1.4667 -4.37145e-05 0)
(1.46674 -3.5954e-05 0)
(1.46678 -2.87665e-05 0)
(1.46682 -2.26925e-05 0)
(1.46684 -1.77896e-05 0)
(1.46686 -1.35566e-05 0)
(1.46687 -9.77783e-06 0)
(1.46688 -6.72631e-06 0)
(1.46689 -4.53501e-06 0)
(1.4669 -2.91327e-06 0)
(1.4669 -1.56401e-06 0)
(1.4669 -5.34363e-07 0)
(1.4669 -1.43877e-09 0)
(1.4669 9.18353e-08 0)
(1.4669 4.83986e-09 0)
(1.4669 -1.14029e-07 0)
(1.4669 -3.28509e-07 0)
(1.4669 -7.16474e-07 0)
(1.46691 -1.23579e-06 0)
(1.46691 -1.80721e-06 0)
(1.46691 -2.38813e-06 0)
(1.46691 -2.93348e-06 0)
(1.46692 -3.39688e-06 0)
(1.46692 -3.79708e-06 0)
(1.46693 -4.18236e-06 0)
(1.46693 -4.51682e-06 0)
(1.46694 -4.71301e-06 0)
(1.46695 -4.79024e-06 0)
(1.46695 -4.87669e-06 0)
(1.46696 -5.01882e-06 0)
(1.46697 -5.10399e-06 0)
(1.46697 -5.02689e-06 0)
(1.46698 -4.83456e-06 0)
(1.46698 -4.63695e-06 0)
(1.46699 -4.4555e-06 0)
(1.46699 -4.24158e-06 0)
(1.467 -3.98819e-06 0)
(1.467 -3.74022e-06 0)
(1.46701 -3.52451e-06 0)
(1.46701 -3.34694e-06 0)
(1.46701 -3.25188e-06 0)
(1.46702 -3.32395e-06 0)
(1.46702 -3.61742e-06 0)
(1.46702 -4.11314e-06 0)
(1.46703 -4.74768e-06 0)
(1.46704 -5.46987e-06 0)
(1.46704 -6.2757e-06 0)
(1.46705 -7.19468e-06 0)
(1.46706 -8.21738e-06 0)
(1.46707 -9.22205e-06 0)
(1.46709 -1.00068e-05 0)
(1.4671 -1.04234e-05 0)
(1.46711 -1.04486e-05 0)
(1.46712 -1.00977e-05 0)
(1.46714 -9.31722e-06 0)
(1.46715 -8.03654e-06 0)
(1.46716 -6.30371e-06 0)
(1.46716 -4.29692e-06 0)
(1.46717 -2.19364e-06 0)
(1.46717 -8.41158e-08 0)
(1.46717 1.93122e-06 0)
(1.46717 3.70842e-06 0)
(1.46716 5.10782e-06 0)
(1.46715 6.05891e-06 0)
(1.46714 6.55033e-06 0)
(1.46714 6.59849e-06 0)
(1.46713 6.26269e-06 0)
(1.46712 5.65092e-06 0)
(1.46712 4.86825e-06 0)
(1.46711 3.98169e-06 0)
(1.46711 3.05837e-06 0)
(1.4671 2.20088e-06 0)
(1.4671 1.50439e-06 0)
(1.4671 9.98957e-07 0)
(1.4671 6.51593e-07 0)
(1.4671 3.98521e-07 0)
(1.46709 1.71971e-07 0)
(1.46709 -6.46762e-08 0)
(1.46709 -2.68742e-07 0)
(1.46709 -3.50947e-07 0)
(1.46709 -2.8636e-07 0)
(1.46709 -1.37789e-07 0)
(1.46709 7.00047e-08 0)
(1.46709 4.36059e-07 0)
(1.46709 1.07557e-06 0)
(1.46709 1.97371e-06 0)
(1.46709 3.02412e-06 0)
(1.46708 4.18061e-06 0)
(1.46708 5.48634e-06 0)
(1.46707 6.96191e-06 0)
(1.46706 8.53697e-06 0)
(1.46705 1.00942e-05 0)
(1.46704 1.15272e-05 0)
(1.46702 1.27578e-05 0)
(1.46701 1.37408e-05 0)
(1.46699 1.44484e-05 0)
(1.46697 1.48347e-05 0)
(1.46695 1.48485e-05 0)
(1.46693 1.44924e-05 0)
(1.46692 1.38208e-05 0)
(1.4669 1.28702e-05 0)
(1.46689 1.16633e-05 0)
(1.46687 1.0287e-05 0)
(1.46686 8.86778e-06 0)
(1.46685 7.44286e-06 0)
(1.46684 5.9528e-06 0)
(1.46683 4.4096e-06 0)
(1.46683 2.97649e-06 0)
(1.46683 1.79637e-06 0)
(1.46682 8.19298e-07 0)
(1.46682 -7.82348e-08 0)
(1.46683 -8.61526e-07 0)
(1.46683 -1.39474e-06 0)
(1.46683 -1.69074e-06 0)
(1.46683 -1.92845e-06 0)
(1.46683 -2.18294e-06 0)
(1.46684 -2.33377e-06 0)
(1.46684 -2.31056e-06 0)
(1.46684 -2.20942e-06 0)
(1.46685 -2.11993e-06 0)
(1.46685 -2.05966e-06 0)
(1.46685 -2.09814e-06 0)
(1.46685 -2.37689e-06 0)
(1.46686 -3.06427e-06 0)
(1.46686 -4.46184e-06 0)
(1.46687 -7.06246e-06 0)
(1.46688 -1.14701e-05 0)
(1.4669 -1.78429e-05 0)
(2.19014 -0.000274439 0)
(2.19021 -0.000248321 0)
(2.19031 -0.00022715 0)
(2.19041 -0.00021378 0)
(2.19052 -0.000208709 0)
(2.19063 -0.000210947 0)
(2.19074 -0.000217857 0)
(2.19087 -0.000227253 0)
(2.191 -0.000238463 0)
(2.19113 -0.000249233 0)
(2.19127 -0.000257715 0)
(2.19141 -0.000263624 0)
(2.19156 -0.000265342 0)
(2.19171 -0.000262533 0)
(2.19185 -0.000255529 0)
(2.19199 -0.000244154 0)
(2.19212 -0.000228861 0)
(2.19224 -0.000210759 0)
(2.19235 -0.000190634 0)
(2.19245 -0.00016927 0)
(2.19254 -0.0001475 0)
(2.19262 -0.000126179 0)
(2.19269 -0.000106152 0)
(2.19274 -8.77609e-05 0)
(2.19279 -7.11003e-05 0)
(2.19283 -5.65002e-05 0)
(2.19285 -4.41118e-05 0)
(2.19288 -3.35671e-05 0)
(2.19289 -2.4546e-05 0)
(2.19291 -1.71896e-05 0)
(2.19292 -1.16387e-05 0)
(2.19292 -7.58133e-06 0)
(2.19292 -4.54278e-06 0)
(2.19293 -2.36301e-06 0)
(2.19293 -1.09392e-06 0)
(2.19293 -6.02074e-07 0)
(2.19293 -5.54244e-07 0)
(2.19293 -7.9247e-07 0)
(2.19293 -1.44243e-06 0)
(2.19293 -2.57614e-06 0)
(2.19293 -3.97662e-06 0)
(2.19294 -5.34644e-06 0)
(2.19294 -6.59763e-06 0)
(2.19294 -7.80133e-06 0)
(2.19295 -8.96276e-06 0)
(2.19296 -9.99568e-06 0)
(2.19296 -1.08562e-05 0)
(2.19297 -1.15618e-05 0)
(2.19298 -1.21068e-05 0)
(2.19299 -1.2472e-05 0)
(2.19299 -1.26913e-05 0)
(2.193 -1.28013e-05 0)
(2.19301 -1.27416e-05 0)
(2.19302 -1.2414e-05 0)
(2.19302 -1.18425e-05 0)
(2.19303 -1.1174e-05 0)
(2.19304 -1.05061e-05 0)
(2.19304 -9.80856e-06 0)
(2.19305 -9.04322e-06 0)
(2.19305 -8.2766e-06 0)
(2.19305 -7.63009e-06 0)
(2.19305 -7.18806e-06 0)
(2.19306 -7.01394e-06 0)
(2.19306 -7.2142e-06 0)
(2.19306 -7.91908e-06 0)
(2.19307 -9.19874e-06 0)
(2.19307 -1.10157e-05 0)
(2.19308 -1.3247e-05 0)
(2.19308 -1.57395e-05 0)
(2.19309 -1.83593e-05 0)
(2.19311 -2.09895e-05 0)
(2.19312 -2.34547e-05 0)
(2.19314 -2.54553e-05 0)
(2.19315 -2.6637e-05 0)
(2.19317 -2.67604e-05 0)
(2.19319 -2.57709e-05 0)
(2.1932 -2.36931e-05 0)
(2.19322 -2.05323e-05 0)
(2.19323 -1.63464e-05 0)
(2.19324 -1.1372e-05 0)
(2.19325 -5.99613e-06 0)
(2.19325 -6.11474e-07 0)
(2.19325 4.46215e-06 0)
(2.19325 8.92713e-06 0)
(2.19324 1.2496e-05 0)
(2.19323 1.49723e-05 0)
(2.19322 1.63052e-05 0)
(2.19321 1.65588e-05 0)
(2.1932 1.58767e-05 0)
(2.19319 1.44789e-05 0)
(2.19318 1.26308e-05 0)
(2.19317 1.05679e-05 0)
(2.19317 8.46598e-06 0)
(2.19316 6.47376e-06 0)
(2.19316 4.72445e-06 0)
(2.19315 3.2975e-06 0)
(2.19315 2.20213e-06 0)
(2.19315 1.40445e-06 0)
(2.19315 8.33509e-07 0)
(2.19315 3.78426e-07 0)
(2.19315 -3.67e-08 0)
(2.19315 -3.6578e-07 0)
(2.19315 -4.84734e-07 0)
(2.19315 -3.21035e-07 0)
(2.19315 1.22585e-07 0)
(2.19315 9.02075e-07 0)
(2.19315 2.18644e-06 0)
(2.19315 4.11633e-06 0)
(2.19314 6.6637e-06 0)
(2.19314 9.68431e-06 0)
(2.19314 1.30532e-05 0)
(2.19313 1.66868e-05 0)
(2.19312 2.0477e-05 0)
(2.19311 2.42656e-05 0)
(2.1931 2.7862e-05 0)
(2.19308 3.10558e-05 0)
(2.19306 3.36519e-05 0)
(2.19304 3.55206e-05 0)
(2.19302 3.65868e-05 0)
(2.193 3.6781e-05 0)
(2.19298 3.60685e-05 0)
(2.19295 3.45158e-05 0)
(2.19293 3.22507e-05 0)
(2.19292 2.93727e-05 0)
(2.1929 2.59879e-05 0)
(2.19288 2.23001e-05 0)
(2.19287 1.85485e-05 0)
(2.19286 1.48505e-05 0)
(2.19285 1.12144e-05 0)
(2.19285 7.72762e-06 0)
(2.19284 4.60313e-06 0)
(2.19284 1.97169e-06 0)
(2.19284 -2.46643e-07 0)
(2.19284 -2.15877e-06 0)
(2.19284 -3.70029e-06 0)
(2.19285 -4.76406e-06 0)
(2.19285 -5.43154e-06 0)
(2.19285 -5.88665e-06 0)
(2.19286 -6.17786e-06 0)
(2.19286 -6.27008e-06 0)
(2.19287 -6.23234e-06 0)
(2.19287 -6.21134e-06 0)
(2.19288 -6.31548e-06 0)
(2.19288 -6.64787e-06 0)
(2.19288 -7.46925e-06 0)
(2.19289 -9.20472e-06 0)
(2.1929 -1.23319e-05 0)
(2.19291 -1.7418e-05 0)
(2.19292 -2.47628e-05 0)
(2.19293 -3.33518e-05 0)
(2.75406 -0.00033736 0)
(2.75407 -0.000310118 0)
(2.7541 -0.000300247 0)
(2.75415 -0.000300416 0)
(2.7542 -0.000304888 0)
(2.75427 -0.000313799 0)
(2.75433 -0.000327656 0)
(2.75441 -0.000343394 0)
(2.75449 -0.000360571 0)
(2.75457 -0.000377065 0)
(2.75466 -0.000389961 0)
(2.75475 -0.000398836 0)
(2.75484 -0.000401891 0)
(2.75493 -0.000398081 0)
(2.75503 -0.000387863 0)
(2.75511 -0.00037151 0)
(2.7552 -0.000349234 0)
(2.75528 -0.000322393 0)
(2.75536 -0.000292342 0)
(2.75543 -0.000260407 0)
(2.75549 -0.000227905 0)
(2.75554 -0.000195846 0)
(2.75559 -0.000165259 0)
(2.75562 -0.000137027 0)
(2.75566 -0.000111517 0)
(2.75568 -8.88782e-05 0)
(2.75571 -6.92706e-05 0)
(2.75572 -5.26673e-05 0)
(2.75573 -3.88399e-05 0)
(2.75574 -2.75924e-05 0)
(2.75575 -1.87824e-05 0)
(2.75575 -1.21481e-05 0)
(2.75576 -7.31408e-06 0)
(2.75576 -3.97285e-06 0)
(2.75576 -1.94091e-06 0)
(2.75576 -1.01533e-06 0)
(2.75576 -9.3272e-07 0)
(2.75576 -1.50341e-06 0)
(2.75576 -2.6952e-06 0)
(2.75576 -4.48427e-06 0)
(2.75576 -6.66155e-06 0)
(2.75576 -8.90048e-06 0)
(2.75577 -1.10142e-05 0)
(2.75577 -1.30297e-05 0)
(2.75578 -1.49843e-05 0)
(2.75578 -1.67718e-05 0)
(2.75579 -1.82544e-05 0)
(2.7558 -1.94139e-05 0)
(2.7558 -2.02966e-05 0)
(2.75581 -2.08798e-05 0)
(2.75582 -2.10893e-05 0)
(2.75583 -2.09051e-05 0)
(2.75583 -2.03623e-05 0)
(2.75584 -1.94818e-05 0)
(2.75584 -1.82829e-05 0)
(2.75585 -1.68452e-05 0)
(2.75585 -1.52799e-05 0)
(2.75585 -1.36463e-05 0)
(2.75585 -1.19689e-05 0)
(2.75585 -1.03426e-05 0)
(2.75585 -8.96508e-06 0)
(2.75585 -8.05463e-06 0)
(2.75585 -7.77748e-06 0)
(2.75585 -8.25676e-06 0)
(2.75584 -9.59519e-06 0)
(2.75584 -1.18597e-05 0)
(2.75584 -1.50522e-05 0)
(2.75584 -1.90883e-05 0)
(2.75585 -2.37745e-05 0)
(2.75586 -2.88049e-05 0)
(2.75587 -3.38105e-05 0)
(2.75588 -3.84097e-05 0)
(2.75589 -4.219e-05 0)
(2.75591 -4.46807e-05 0)
(2.75592 -4.54373e-05 0)
(2.75594 -4.42007e-05 0)
(2.75596 -4.09508e-05 0)
(2.75598 -3.5812e-05 0)
(2.75599 -2.89833e-05 0)
(2.756 -2.07994e-05 0)
(2.75601 -1.17913e-05 0)
(2.75601 -2.60939e-06 0)
(2.75601 6.12732e-06 0)
(2.75601 1.38804e-05 0)
(2.756 2.01874e-05 0)
(2.756 2.47121e-05 0)
(2.75599 2.73246e-05 0)
(2.75598 2.81042e-05 0)
(2.75597 2.72729e-05 0)
(2.75596 2.51591e-05 0)
(2.75595 2.21862e-05 0)
(2.75594 1.88052e-05 0)
(2.75593 1.5393e-05 0)
(2.75592 1.22089e-05 0)
(2.75592 9.41144e-06 0)
(2.75591 7.06664e-06 0)
(2.75591 5.15338e-06 0)
(2.75591 3.61044e-06 0)
(2.7559 2.37701e-06 0)
(2.7559 1.37136e-06 0)
(2.7559 4.78103e-07 0)
(2.7559 -3.55665e-07 0)
(2.7559 -1.02393e-06 0)
(2.7559 -1.32939e-06 0)
(2.7559 -1.12527e-06 0)
(2.75591 -3.28907e-07 0)
(2.75591 1.19467e-06 0)
(2.75591 3.64499e-06 0)
(2.75591 7.14325e-06 0)
(2.75592 1.16333e-05 0)
(2.75592 1.694e-05 0)
(2.75592 2.28547e-05 0)
(2.75591 2.91379e-05 0)
(2.75591 3.55081e-05 0)
(2.7559 4.16619e-05 0)
(2.75589 4.728e-05 0)
(2.75588 5.20285e-05 0)
(2.75586 5.56175e-05 0)
(2.75585 5.78652e-05 0)
(2.75583 5.86764e-05 0)
(2.75581 5.80063e-05 0)
(2.75579 5.5906e-05 0)
(2.75578 5.25526e-05 0)
(2.75576 4.81599e-05 0)
(2.75574 4.28995e-05 0)
(2.75573 3.69722e-05 0)
(2.75572 3.06974e-05 0)
(2.75571 2.44284e-05 0)
(2.7557 1.83854e-05 0)
(2.7557 1.26617e-05 0)
(2.75569 7.39296e-06 0)
(2.75569 2.79213e-06 0)
(2.75569 -1.02993e-06 0)
(2.7557 -4.16154e-06 0)
(2.7557 -6.71572e-06 0)
(2.7557 -8.66468e-06 0)
(2.75571 -9.96211e-06 0)
(2.75571 -1.07229e-05 0)
(2.75572 -1.11313e-05 0)
(2.75572 -1.12872e-05 0)
(2.75573 -1.12678e-05 0)
(2.75573 -1.12391e-05 0)
(2.75574 -1.14119e-05 0)
(2.75574 -1.19831e-05 0)
(2.75575 -1.32753e-05 0)
(2.75575 -1.57417e-05 0)
(2.75576 -1.99632e-05 0)
(2.75576 -2.6429e-05 0)
(2.75577 -3.53457e-05 0)
(2.75578 -4.47439e-05 0)
(3.17359 -0.00033099 0)
(3.17355 -0.000303083 0)
(3.1735 -0.000301215 0)
(3.17347 -0.000313601 0)
(3.17345 -0.000326859 0)
(3.17343 -0.00034281 0)
(3.17341 -0.000361296 0)
(3.1734 -0.000381821 0)
(3.17339 -0.000402351 0)
(3.17338 -0.000421664 0)
(3.17337 -0.000437389 0)
(3.17336 -0.000448059 0)
(3.17335 -0.000452334 0)
(3.17334 -0.000449328 0)
(3.17334 -0.000438753 0)
(3.17333 -0.000421184 0)
(3.17333 -0.000397273 0)
(3.17333 -0.000368064 0)
(3.17332 -0.000334906 0)
(3.17332 -0.000299482 0)
(3.17333 -0.000263327 0)
(3.17333 -0.000227375 0)
(3.17333 -0.000192597 0)
(3.17333 -0.000160176 0)
(3.17333 -0.000130805 0)
(3.17334 -0.000104586 0)
(3.17334 -8.15986e-05 0)
(3.17334 -6.20368e-05 0)
(3.17334 -4.58752e-05 0)
(3.17334 -3.27756e-05 0)
(3.17334 -2.23398e-05 0)
(3.17334 -1.42838e-05 0)
(3.17334 -8.36584e-06 0)
(3.17334 -4.30446e-06 0)
(3.17334 -1.83162e-06 0)
(3.17333 -7.30638e-07 0)
(3.17333 -7.99864e-07 0)
(3.17333 -1.80449e-06 0)
(3.17333 -3.52838e-06 0)
(3.17333 -5.82805e-06 0)
(3.17333 -8.55852e-06 0)
(3.17333 -1.14893e-05 0)
(3.17334 -1.43881e-05 0)
(3.17334 -1.71632e-05 0)
(3.17334 -1.98174e-05 0)
(3.17335 -2.22704e-05 0)
(3.17335 -2.43404e-05 0)
(3.17336 -2.59074e-05 0)
(3.17336 -2.69752e-05 0)
(3.17337 -2.75397e-05 0)
(3.17337 -2.7507e-05 0)
(3.17338 -2.6804e-05 0)
(3.17338 -2.54868e-05 0)
(3.17338 -2.36727e-05 0)
(3.17338 -2.14285e-05 0)
(3.17338 -1.87948e-05 0)
(3.17338 -1.58746e-05 0)
(3.17338 -1.28244e-05 0)
(3.17338 -9.79054e-06 0)
(3.17337 -6.92691e-06 0)
(3.17336 -4.47374e-06 0)
(3.17335 -2.76124e-06 0)
(3.17334 -2.11428e-06 0)
(3.17334 -2.75991e-06 0)
(3.17333 -4.80682e-06 0)
(3.17332 -8.2685e-06 0)
(3.17331 -1.30966e-05 0)
(3.17331 -1.91895e-05 0)
(3.1733 -2.6342e-05 0)
(3.1733 -3.41639e-05 0)
(3.17331 -4.20764e-05 0)
(3.17331 -4.94231e-05 0)
(3.17332 -5.5582e-05 0)
(3.17333 -5.99703e-05 0)
(3.17335 -6.20242e-05 0)
(3.17336 -6.12925e-05 0)
(3.17338 -5.75922e-05 0)
(3.17339 -5.10533e-05 0)
(3.1734 -4.20285e-05 0)
(3.17342 -3.10274e-05 0)
(3.17342 -1.87389e-05 0)
(3.17343 -6.01875e-06 0)
(3.17343 6.23745e-06 0)
(3.17343 1.72303e-05 0)
(3.17343 2.63094e-05 0)
(3.17342 3.30038e-05 0)
(3.17341 3.70929e-05 0)
(3.1734 3.86483e-05 0)
(3.17339 3.7972e-05 0)
(3.17338 3.5502e-05 0)
(3.17338 3.17674e-05 0)
(3.17337 2.73535e-05 0)
(3.17336 2.28099e-05 0)
(3.17335 1.85505e-05 0)
(3.17335 1.48193e-05 0)
(3.17334 1.16982e-05 0)
(3.17334 9.1206e-06 0)
(3.17334 6.92754e-06 0)
(3.17333 4.96821e-06 0)
(3.17333 3.14725e-06 0)
(3.17333 1.37968e-06 0)
(3.17333 -4.1603e-07 0)
(3.17333 -2.19704e-06 0)
(3.17333 -3.73205e-06 0)
(3.17333 -4.70167e-06 0)
(3.17334 -4.85118e-06 0)
(3.17335 -3.99492e-06 0)
(3.17335 -1.9332e-06 0)
(3.17336 1.52513e-06 0)
(3.17337 6.44772e-06 0)
(3.17338 1.27313e-05 0)
(3.17339 2.01506e-05 0)
(3.1734 2.83871e-05 0)
(3.1734 3.7031e-05 0)
(3.17341 4.56232e-05 0)
(3.17341 5.37078e-05 0)
(3.17341 6.0833e-05 0)
(3.1734 6.65646e-05 0)
(3.1734 7.0567e-05 0)
(3.17339 7.26543e-05 0)
(3.17338 7.27488e-05 0)
(3.17337 7.08611e-05 0)
(3.17336 6.71452e-05 0)
(3.17335 6.18918e-05 0)
(3.17334 5.54065e-05 0)
(3.17334 4.79475e-05 0)
(3.17333 3.98286e-05 0)
(3.17332 3.14986e-05 0)
(3.17332 2.34034e-05 0)
(3.17332 1.57872e-05 0)
(3.17332 8.74221e-06 0)
(3.17332 2.43683e-06 0)
(3.17332 -2.87738e-06 0)
(3.17332 -7.1226e-06 0)
(3.17333 -1.04717e-05 0)
(3.17333 -1.30659e-05 0)
(3.17334 -1.48662e-05 0)
(3.17334 -1.58973e-05 0)
(3.17335 -1.63641e-05 0)
(3.17335 -1.64564e-05 0)
(3.17336 -1.62932e-05 0)
(3.17336 -1.60483e-05 0)
(3.17336 -1.59966e-05 0)
(3.17337 -1.64551e-05 0)
(3.17337 -1.76988e-05 0)
(3.17337 -2.00331e-05 0)
(3.17338 -2.40465e-05 0)
(3.17338 -3.01673e-05 0)
(3.17338 -3.86406e-05 0)
(3.17337 -4.71817e-05 0)
(3.46288 -0.000252584 0)
(3.4628 -0.000229342 0)
(3.46267 -0.000230578 0)
(3.46258 -0.000246554 0)
(3.46248 -0.000262924 0)
(3.46238 -0.000279859 0)
(3.46228 -0.000298487 0)
(3.46217 -0.000318315 0)
(3.46206 -0.000337783 0)
(3.46195 -0.000355552 0)
(3.46183 -0.000370339 0)
(3.46171 -0.000380662 0)
(3.46159 -0.000385571 0)
(3.46147 -0.000384329 0)
(3.46135 -0.000376517 0)
(3.46123 -0.000362597 0)
(3.46113 -0.000343208 0)
(3.46103 -0.000319184 0)
(3.46094 -0.000291601 0)
(3.46086 -0.000261708 0)
(3.46079 -0.000230835 0)
(3.46073 -0.000199974 0)
(3.46068 -0.000169881 0)
(3.46063 -0.000141503 0)
(3.4606 -0.000115653 0)
(3.46057 -9.25663e-05 0)
(3.46054 -7.21877e-05 0)
(3.46053 -5.46072e-05 0)
(3.46051 -3.99539e-05 0)
(3.4605 -2.80844e-05 0)
(3.46049 -1.86148e-05 0)
(3.46049 -1.12058e-05 0)
(3.46048 -5.70359e-06 0)
(3.46048 -2.00452e-06 0)
(3.46047 8.44475e-08 0)
(3.46047 8.02136e-07 0)
(3.46047 3.54725e-07 0)
(3.46047 -1.06939e-06 0)
(3.46046 -3.2558e-06 0)
(3.46046 -5.99787e-06 0)
(3.46046 -9.14252e-06 0)
(3.46046 -1.2544e-05 0)
(3.46046 -1.60124e-05 0)
(3.46046 -1.93734e-05 0)
(3.46047 -2.25351e-05 0)
(3.46047 -2.54173e-05 0)
(3.46047 -2.78518e-05 0)
(3.46047 -2.96375e-05 0)
(3.46047 -3.06689e-05 0)
(3.46047 -3.09289e-05 0)
(3.46047 -3.03786e-05 0)
(3.46048 -2.89516e-05 0)
(3.46047 -2.66608e-05 0)
(3.46047 -2.36225e-05 0)
(3.46047 -1.99557e-05 0)
(3.46047 -1.57334e-05 0)
(3.46046 -1.1067e-05 0)
(3.46045 -6.18058e-06 0)
(3.46044 -1.36566e-06 0)
(3.46043 3.08427e-06 0)
(3.46042 6.85486e-06 0)
(3.4604 9.56752e-06 0)
(3.46039 1.08165e-05 0)
(3.46037 1.02674e-05 0)
(3.46035 7.72464e-06 0)
(3.46034 3.14402e-06 0)
(3.46033 -3.38836e-06 0)
(3.46031 -1.16827e-05 0)
(3.4603 -2.14414e-05 0)
(3.4603 -3.21966e-05 0)
(3.46029 -4.32512e-05 0)
(3.46029 -5.37336e-05 0)
(3.46029 -6.27619e-05 0)
(3.4603 -6.95646e-05 0)
(3.46031 -7.34811e-05 0)
(3.46032 -7.39594e-05 0)
(3.46033 -7.06714e-05 0)
(3.46034 -6.36547e-05 0)
(3.46035 -5.33189e-05 0)
(3.46035 -4.03383e-05 0)
(3.46036 -2.55772e-05 0)
(3.46037 -1.00696e-05 0)
(3.46037 5.06371e-06 0)
(3.46037 1.87776e-05 0)
(3.46037 3.02318e-05 0)
(3.46036 3.8838e-05 0)
(3.46036 4.42973e-05 0)
(3.46035 4.66498e-05 0)
(3.46035 4.62554e-05 0)
(3.46034 4.36787e-05 0)
(3.46033 3.95714e-05 0)
(3.46033 3.46066e-05 0)
(3.46032 2.94139e-05 0)
(3.46032 2.44895e-05 0)
(3.46031 2.01387e-05 0)
(3.46031 1.64749e-05 0)
(3.4603 1.34266e-05 0)
(3.4603 1.07608e-05 0)
(3.4603 8.18492e-06 0)
(3.46029 5.48535e-06 0)
(3.46029 2.56771e-06 0)
(3.46029 -6.03725e-07 0)
(3.46029 -3.99968e-06 0)
(3.46029 -7.4231e-06 0)
(3.4603 -1.04796e-05 0)
(3.46031 -1.27094e-05 0)
(3.46032 -1.37331e-05 0)
(3.46033 -1.32547e-05 0)
(3.46034 -1.10208e-05 0)
(3.46036 -6.8701e-06 0)
(3.46038 -8.13189e-07 0)
(3.46039 6.96443e-06 0)
(3.46041 1.6137e-05 0)
(3.46043 2.62405e-05 0)
(3.46044 3.66975e-05 0)
(3.46046 4.68974e-05 0)
(3.46047 5.62532e-05 0)
(3.46048 6.42112e-05 0)
(3.46049 7.03002e-05 0)
(3.46049 7.42116e-05 0)
(3.4605 7.5795e-05 0)
(3.4605 7.4998e-05 0)
(3.4605 7.18903e-05 0)
(3.4605 6.67344e-05 0)
(3.4605 5.99343e-05 0)
(3.4605 5.18896e-05 0)
(3.4605 4.29601e-05 0)
(3.4605 3.35754e-05 0)
(3.4605 2.42563e-05 0)
(3.46051 1.54341e-05 0)
(3.46051 7.31675e-06 0)
(3.46051 3.12589e-08 0)
(3.46052 -6.2068e-06 0)
(3.46052 -1.12151e-05 0)
(3.46052 -1.50516e-05 0)
(3.46053 -1.7893e-05 0)
(3.46053 -1.9801e-05 0)
(3.46054 -2.08179e-05 0)
(3.46054 -2.11228e-05 0)
(3.46055 -2.0937e-05 0)
(3.46055 -2.0425e-05 0)
(3.46055 -1.97167e-05 0)
(3.46055 -1.9058e-05 0)
(3.46056 -1.88039e-05 0)
(3.46056 -1.91692e-05 0)
(3.46056 -2.04441e-05 0)
(3.46055 -2.30013e-05 0)
(3.46055 -2.70576e-05 0)
(3.46054 -3.29949e-05 0)
(3.46052 -3.88589e-05 0)
(3.63226 -0.000116781 0)
(3.63214 -0.000104172 0)
(3.63198 -0.000105855 0)
(3.63183 -0.000116192 0)
(3.63168 -0.000128364 0)
(3.63153 -0.000139334 0)
(3.63136 -0.000151927 0)
(3.63118 -0.000164736 0)
(3.631 -0.000177269 0)
(3.63081 -0.000188699 0)
(3.63061 -0.000198756 0)
(3.6304 -0.000205926 0)
(3.6302 -0.000210137 0)
(3.62999 -0.000211106 0)
(3.62979 -0.000208143 0)
(3.62959 -0.000201521 0)
(3.6294 -0.000191794 0)
(3.62923 -0.000179432 0)
(3.62907 -0.000164859 0)
(3.62892 -0.000148568 0)
(3.6288 -0.000131384 0)
(3.62869 -0.000114083 0)
(3.62859 -9.70533e-05 0)
(3.62851 -8.07009e-05 0)
(3.62844 -6.5596e-05 0)
(3.62839 -5.2037e-05 0)
(3.62834 -3.99443e-05 0)
(3.62831 -2.92711e-05 0)
(3.62828 -2.0189e-05 0)
(3.62826 -1.2799e-05 0)
(3.62825 -6.91685e-06 0)
(3.62823 -2.28971e-06 0)
(3.62823 1.11156e-06 0)
(3.62822 3.18502e-06 0)
(3.62821 3.9805e-06 0)
(3.62821 3.73407e-06 0)
(3.62821 2.65463e-06 0)
(3.6282 8.14495e-07 0)
(3.6282 -1.72352e-06 0)
(3.6282 -4.79983e-06 0)
(3.6282 -8.23162e-06 0)
(3.6282 -1.18916e-05 0)
(3.6282 -1.56514e-05 0)
(3.62819 -1.93261e-05 0)
(3.62819 -2.27376e-05 0)
(3.62819 -2.57636e-05 0)
(3.62819 -2.82624e-05 0)
(3.62819 -3.00127e-05 0)
(3.62819 -3.08048e-05 0)
(3.62819 -3.05564e-05 0)
(3.62818 -2.9279e-05 0)
(3.62818 -2.6968e-05 0)
(3.62818 -2.36018e-05 0)
(3.62817 -1.9224e-05 0)
(3.62816 -1.39574e-05 0)
(3.62816 -7.94804e-06 0)
(3.62815 -1.36652e-06 0)
(3.62813 5.51553e-06 0)
(3.62812 1.22997e-05 0)
(3.62811 1.85266e-05 0)
(3.62809 2.37433e-05 0)
(3.62807 2.75142e-05 0)
(3.62805 2.94219e-05 0)
(3.62803 2.91011e-05 0)
(3.62801 2.62845e-05 0)
(3.62799 2.08417e-05 0)
(3.62797 1.28198e-05 0)
(3.62796 2.47073e-06 0)
(3.62794 -9.766e-06 0)
(3.62793 -2.3288e-05 0)
(3.62792 -3.73123e-05 0)
(3.62791 -5.08633e-05 0)
(3.62791 -6.28646e-05 0)
(3.62791 -7.23114e-05 0)
(3.62791 -7.83868e-05 0)
(3.62791 -8.04757e-05 0)
(3.62791 -7.81956e-05 0)
(3.62792 -7.15101e-05 0)
(3.62792 -6.08145e-05 0)
(3.62793 -4.68807e-05 0)
(3.62793 -3.07288e-05 0)
(3.62794 -1.35394e-05 0)
(3.62794 3.41594e-06 0)
(3.62794 1.89139e-05 0)
(3.62794 3.19532e-05 0)
(3.62794 4.18535e-05 0)
(3.62794 4.82745e-05 0)
(3.62793 5.1232e-05 0)
(3.62793 5.11001e-05 0)
(3.62793 4.85289e-05 0)
(3.62792 4.42927e-05 0)
(3.62792 3.91609e-05 0)
(3.62792 3.3815e-05 0)
(3.62792 2.87707e-05 0)
(3.62791 2.43198e-05 0)
(3.62791 2.05359e-05 0)
(3.62791 1.73132e-05 0)
(3.6279 1.43823e-05 0)
(3.6279 1.13559e-05 0)
(3.6279 7.86999e-06 0)
(3.6279 3.73196e-06 0)
(3.6279 -1.06291e-06 0)
(3.6279 -6.41341e-06 0)
(3.6279 -1.21083e-05 0)
(3.62791 -1.77504e-05 0)
(3.62792 -2.27754e-05 0)
(3.62793 -2.65983e-05 0)
(3.62794 -2.87306e-05 0)
(3.62796 -2.87878e-05 0)
(3.62798 -2.64993e-05 0)
(3.628 -2.17742e-05 0)
(3.62802 -1.47384e-05 0)
(3.62805 -5.70317e-06 0)
(3.62807 4.86094e-06 0)
(3.6281 1.6328e-05 0)
(3.62812 2.79773e-05 0)
(3.62814 3.90927e-05 0)
(3.62816 4.90138e-05 0)
(3.62818 5.71575e-05 0)
(3.6282 6.30808e-05 0)
(3.62821 6.65303e-05 0)
(3.62822 6.74031e-05 0)
(3.62823 6.57047e-05 0)
(3.62824 6.15984e-05 0)
(3.62825 5.54573e-05 0)
(3.62826 4.77873e-05 0)
(3.62827 3.90764e-05 0)
(3.62827 2.97518e-05 0)
(3.62828 2.02717e-05 0)
(3.62829 1.11404e-05 0)
(3.62829 2.76374e-06 0)
(3.6283 -4.65379e-06 0)
(3.6283 -1.10014e-05 0)
(3.62831 -1.61399e-05 0)
(3.62831 -1.99851e-05 0)
(3.62832 -2.26219e-05 0)
(3.62832 -2.42105e-05 0)
(3.62832 -2.48767e-05 0)
(3.62833 -2.47566e-05 0)
(3.62833 -2.40415e-05 0)
(3.62833 -2.29157e-05 0)
(3.62833 -2.15022e-05 0)
(3.62833 -1.99832e-05 0)
(3.62833 -1.85457e-05 0)
(3.62833 -1.73921e-05 0)
(3.62832 -1.67508e-05 0)
(3.62832 -1.6799e-05 0)
(3.62831 -1.7537e-05 0)
(3.6283 -1.93167e-05 0)
(3.62827 -2.10721e-05 0)
(3.68799 5.02208e-05 0)
(3.68787 4.8373e-05 0)
(3.68769 4.72093e-05 0)
(3.68753 4.67315e-05 0)
(3.68736 4.51169e-05 0)
(3.68719 4.38632e-05 0)
(3.687 4.20937e-05 0)
(3.6868 4.02601e-05 0)
(3.68659 3.83623e-05 0)
(3.68637 3.64116e-05 0)
(3.68614 3.4059e-05 0)
(3.68591 3.17499e-05 0)
(3.68567 2.9106e-05 0)
(3.68543 2.61948e-05 0)
(3.6852 2.33846e-05 0)
(3.68497 2.05956e-05 0)
(3.68476 1.78385e-05 0)
(3.68455 1.51796e-05 0)
(3.68437 1.26691e-05 0)
(3.6842 1.05407e-05 0)
(3.68405 8.89397e-06 0)
(3.68392 7.571e-06 0)
(3.68381 6.55832e-06 0)
(3.68372 5.99862e-06 0)
(3.68364 5.87814e-06 0)
(3.68357 6.06745e-06 0)
(3.68352 6.52063e-06 0)
(3.68348 7.21335e-06 0)
(3.68345 8.01356e-06 0)
(3.68343 8.76447e-06 0)
(3.68341 9.40606e-06 0)
(3.68339 9.89176e-06 0)
(3.68339 1.00597e-05 0)
(3.68338 9.69778e-06 0)
(3.68337 8.74276e-06 0)
(3.68337 7.30339e-06 0)
(3.68337 5.47689e-06 0)
(3.68336 3.22212e-06 0)
(3.68336 4.59361e-07 0)
(3.68336 -2.76597e-06 0)
(3.68336 -6.29185e-06 0)
(3.68335 -9.96971e-06 0)
(3.68335 -1.3699e-05 0)
(3.68335 -1.7344e-05 0)
(3.68335 -2.07094e-05 0)
(3.68334 -2.36083e-05 0)
(3.68334 -2.58803e-05 0)
(3.68334 -2.73272e-05 0)
(3.68333 -2.77193e-05 0)
(3.68333 -2.69085e-05 0)
(3.68332 -2.4883e-05 0)
(3.68332 -2.16747e-05 0)
(3.68331 -1.72677e-05 0)
(3.6833 -1.16484e-05 0)
(3.68329 -4.90642e-06 0)
(3.68328 2.75529e-06 0)
(3.68327 1.10693e-05 0)
(3.68326 1.96986e-05 0)
(3.68325 2.81916e-05 0)
(3.68323 3.59958e-05 0)
(3.68321 4.25381e-05 0)
(3.6832 4.72951e-05 0)
(3.68318 4.98165e-05 0)
(3.68316 4.97308e-05 0)
(3.68314 4.67559e-05 0)
(3.68312 4.07216e-05 0)
(3.6831 3.16274e-05 0)
(3.68309 1.97214e-05 0)
(3.68307 5.53007e-06 0)
(3.68306 -1.02003e-05 0)
(3.68304 -2.65756e-05 0)
(3.68303 -4.25662e-05 0)
(3.68302 -5.70191e-05 0)
(3.68302 -6.87742e-05 0)
(3.68301 -7.68466e-05 0)
(3.68301 -8.05413e-05 0)
(3.68301 -7.94744e-05 0)
(3.68301 -7.3605e-05 0)
(3.68301 -6.33077e-05 0)
(3.68301 -4.93839e-05 0)
(3.68301 -3.29527e-05 0)
(3.68301 -1.53027e-05 0)
(3.68301 2.21395e-06 0)
(3.68301 1.82947e-05 0)
(3.68301 3.18504e-05 0)
(3.68301 4.21479e-05 0)
(3.68301 4.8852e-05 0)
(3.68301 5.20021e-05 0)
(3.68301 5.19856e-05 0)
(3.68301 4.94777e-05 0)
(3.68301 4.53098e-05 0)
(3.68302 4.03117e-05 0)
(3.68302 3.51982e-05 0)
(3.68302 3.04867e-05 0)
(3.68302 2.64292e-05 0)
(3.68301 2.30067e-05 0)
(3.68301 2.00035e-05 0)
(3.68301 1.70836e-05 0)
(3.68301 1.38213e-05 0)
(3.68301 9.76883e-06 0)
(3.68301 4.61161e-06 0)
(3.68301 -1.70644e-06 0)
(3.68301 -9.01603e-06 0)
(3.68301 -1.70113e-05 0)
(3.68302 -2.52571e-05 0)
(3.68302 -3.31516e-05 0)
(3.68304 -3.99877e-05 0)
(3.68305 -4.50954e-05 0)
(3.68306 -4.79313e-05 0)
(3.68308 -4.81025e-05 0)
(3.6831 -4.54095e-05 0)
(3.68313 -3.98996e-05 0)
(3.68315 -3.18542e-05 0)
(3.68318 -2.17362e-05 0)
(3.6832 -1.01714e-05 0)
(3.68323 2.0809e-06 0)
(3.68325 1.42251e-05 0)
(3.68328 2.55213e-05 0)
(3.6833 3.5306e-05 0)
(3.68332 4.30166e-05 0)
(3.68335 4.8272e-05 0)
(3.68336 5.09091e-05 0)
(3.68338 5.09217e-05 0)
(3.6834 4.84158e-05 0)
(3.68341 4.36658e-05 0)
(3.68343 3.71552e-05 0)
(3.68344 2.94617e-05 0)
(3.68345 2.10797e-05 0)
(3.68346 1.24107e-05 0)
(3.68347 3.90841e-06 0)
(3.68347 -3.92113e-06 0)
(3.68348 -1.07382e-05 0)
(3.68348 -1.6459e-05 0)
(3.68349 -2.1038e-05 0)
(3.68349 -2.43433e-05 0)