/*--------------------------------*- C++ -*----------------------------------*\
| =========                 |                                                 |
| \\      /  F ield         | OpenFOAM: The Open Source CFD Toolbox           |
|  \\    /   O peration     | Version:  2406                                  |
|   \\  /    A nd           | Website:  www.openfoam.com                      |
|    \\/     M anipulation  |                                                 |
\*---------------------------------------------------------------------------*/
FoamFile
{
    version     2.0;
    format      ascii;
    arch        "LSB;label=32;scalar=64";
    class       surfaceScalarField;
    location    "0.5";
    object      phi;
}
// * * * * * * * * * * * * * * * * * * * * * * * * * * * * * * * * * * * * * //

dimensions      [0 3 -1 0 0 0 0];

oriented        oriented;

internalField   nonuniform List<scalar> 
445
(
1.51889e-05
7.08489e-14
1.51889e-05
-4.30726e-13
1.51889e-05
-8.12333e-13
1.51889e-05
-3.01987e-13
1.51889e-05
1.05211e-12
1.51889e-05
2.18876e-12
1.51889e-05
1.40838e-12
1.51889e-05
-1.14758e-12
1.51889e-05
-3.6846e-12
1.51889e-05
-3.13575e-12
1.51889e-05
4.40099e-13
1.51889e-05
4.54726e-12
1.51889e-05
4.86018e-12
1.5189e-05
7.1554e-13
1.5189e-05
-4.66256e-12
1.5189e-05
-6.35878e-12
1.51889e-05
-2.40998e-12
1.51889e-05
3.24772e-12
1.51889e-05
6.75911e-12
1.5189e-05
4.94642e-12
1.5189e-05
-2.98917e-14
1.5189e-05
-4.78899e-12
1.5189e-05
-5.74809e-12
1.5189e-05
-2.59282e-12
1.51889e-05
1.69886e-12
1.5189e-05
4.95704e-12
1.5189e-05
5.06666e-12
1.5189e-05
2.12042e-12
1.5189e-05
-1.55576e-12
1.5189e-05
-4.5326e-12
1.5189e-05
-4.64026e-12
1.5189e-05
-1.49738e-12
1.5189e-05
2.83624e-12
1.5189e-05
5.81507e-12
1.5189e-05
4.86376e-12
1.5189e-05
6.88974e-13
1.5189e-05
-3.89717e-12
1.5189e-05
-5.39834e-12
1.5189e-05
-2.3918e-12
1.5189e-05
2.17929e-12
1.5189e-05
5.12535e-12
1.5189e-05
3.98044e-12
1.5189e-05
3.20658e-13
1.5189e-05
-2.92033e-12
1.5189e-05
-3.21008e-12
1.5189e-05
-9.25749e-13
1.5189e-05
1.42778e-12
1.5189e-05
2.21086e-12
1.5189e-05
1.4381e-12
4.68636e-13
3.33651e-05
8.53849e-13
3.33651e-05
7.32097e-13
3.33651e-05
-2.06685e-14
3.33651e-05
-8.1197e-13
3.33651e-05
-5.35653e-13
3.33651e-05
9.77419e-13
3.33651e-05
2.3207e-12
3.33651e-05
1.58688e-12
3.33651e-05
-1.21956e-12
3.33651e-05
-3.80988e-12
3.33651e-05
-3.23812e-12
3.33651e-05
6.08372e-13
3.33651e-05
4.60223e-12
3.33651e-05
4.86452e-12
3.33651e-05
7.264e-13
3.33651e-05
-4.29404e-12
3.33651e-05
-5.88626e-12
3.33651e-05
-2.59265e-12
3.33651e-05
2.71497e-12
3.33651e-05
5.84667e-12
3.33651e-05
4.59502e-12
3.33651e-05
3.78061e-13
3.33651e-05
-3.6017e-12
3.33651e-05
-4.66796e-12
3.33651e-05
-2.52502e-12
3.33651e-05
9.7814e-13
3.33651e-05
3.88524e-12
3.33651e-05
4.57391e-12
3.33651e-05
2.76591e-12
3.33651e-05
-5.08705e-13
3.33651e-05
-3.47066e-12
3.33651e-05
-4.14808e-12
3.33651e-05
-1.75705e-12
3.33651e-05
2.19856e-12
3.33651e-05
5.14512e-12
3.33651e-05
4.67897e-12
3.33651e-05
9.70678e-13
3.33651e-05
-3.20206e-12
3.33651e-05
-4.61271e-12
3.33651e-05
-2.17074e-12
3.33651e-05
1.84722e-12
3.33651e-05
4.30509e-12
3.33651e-05
3.36772e-12
3.33651e-05
3.04098e-13
3.33651e-05
-2.14619e-12
3.33651e-05
-2.13531e-12
3.33651e-05
-4.072e-13
3.33651e-05
1.30068e-12
3.33651e-05
1.57443e-12
7.83861e-13
3.94143e-05
1.238e-12
3.94143e-05
1.6182e-12
3.94143e-05
1.23991e-12
3.94143e-05
-1.58568e-13
3.94143e-05
-1.31272e-12
3.94143e-05
-9.87338e-13
3.94143e-05
9.40532e-13
3.94143e-05
2.66725e-12
3.94143e-05
2.0389e-12
3.94143e-05
-1.0002e-12
3.94143e-05
-3.93867e-12
3.94143e-05
-3.64221e-12
3.94143e-05
1.75995e-13
3.94143e-05
4.37478e-12
3.94143e-05
5.15283e-12
3.94143e-05
1.49548e-12
3.94143e-05
-3.44009e-12
3.94143e-05
-5.67014e-12
3.94143e-05
-3.38271e-12
3.94143e-05
1.23977e-12
3.94143e-05
4.69086e-12
3.94143e-05
4.62721e-12
3.94143e-05
1.48677e-12
3.94143e-05
-2.17612e-12
3.94143e-05
-4.10863e-12
3.94143e-05
-3.35385e-12
3.94143e-05
-6.55713e-13
3.94143e-05
2.27909e-12
3.94143e-05
4.07969e-12
3.94143e-05
3.45506e-12
3.94143e-05
6.68923e-13
3.94143e-05
-2.67841e-12
3.94143e-05
-4.35885e-12
3.94143e-05
-2.88194e-12
3.94143e-05
7.39821e-13
3.94143e-05
4.15028e-12
3.94143e-05
4.6487e-12
3.94143e-05
1.68774e-12
3.94143e-05
-2.25957e-12
3.94143e-05
-4.14291e-12
3.94143e-05
-2.55831e-12
3.94143e-05
7.91432e-13
3.94143e-05
3.22169e-12
3.94143e-05
2.95311e-12
3.94143e-05
7.31495e-13
3.94143e-05
-1.192e-12
3.94143e-05
-1.40377e-12
3.94143e-05
-4.46622e-13
3.94143e-05
3.83036e-13
4.13578e-13
3.33651e-05
7.48065e-13
3.33651e-05
1.12072e-12
3.33651e-05
1.25173e-12
3.33651e-05
4.36289e-13
3.33651e-05
-9.74684e-13
3.33651e-05
-1.72166e-12
3.33651e-05
-6.10589e-13
3.33651e-05
1.60128e-12
3.33651e-05
2.9815e-12
3.33651e-05
1.55457e-12
3.33651e-05
-1.75995e-12
3.33651e-05
-4.26395e-12
3.33651e-05
-3.11361e-12
3.33651e-05
9.94784e-13
3.33651e-05
4.79134e-12
3.33651e-05
4.66208e-12
3.33651e-05
4.87092e-13
3.33651e-05
-3.97091e-12
3.33651e-05
-5.52838e-12
3.33651e-05
-2.88281e-12
3.33651e-05
1.43007e-12
3.33651e-05
4.55356e-12
3.33651e-05
4.24826e-12
3.33651e-05
1.08333e-12
3.33651e-05
-2.22731e-12
3.33651e-05
-4.17379e-12
3.33651e-05
-3.4525e-12
3.33651e-05
-6.32525e-13
3.33651e-05
2.31936e-12
3.33651e-05
4.19162e-12
3.33651e-05
3.42289e-12
3.33651e-05
2.88176e-13
3.33651e-05
-3.07593e-12
3.33651e-05
-4.56638e-12
3.33651e-05
-2.76416e-12
3.33651e-05
9.58601e-13
3.33651e-05
4.17398e-12
3.33651e-05
4.20431e-12
3.33651e-05
9.91096e-13
3.33651e-05
-2.50796e-12
3.33651e-05
-3.90254e-12
3.33651e-05
-2.10724e-12
3.33651e-05
8.91255e-13
3.33651e-05
2.89971e-12
3.33651e-05
2.44627e-12
3.33651e-05
5.02951e-13
3.33651e-05
-1.0074e-12
3.33651e-05
-1.17882e-12
3.33651e-05
-6.08488e-13
-1.13123e-13
1.51889e-05
1.51889e-05
1.51889e-05
1.51889e-05
1.51889e-05
1.51889e-05
1.51889e-05
1.51889e-05
1.51889e-05
1.51889e-05
1.51889e-05
1.5189e-05
1.5189e-05
1.51889e-05
1.51889e-05
1.51889e-05
1.51889e-05
1.5189e-05
1.5189e-05
1.5189e-05
1.5189e-05
1.51889e-05
1.51889e-05
1.5189e-05
1.5189e-05
1.5189e-05
1.5189e-05
1.5189e-05
1.5189e-05
1.5189e-05
1.5189e-05
1.5189e-05
1.5189e-05
1.5189e-05
1.5189e-05
1.5189e-05
1.5189e-05
1.5189e-05
1.5189e-05
1.5189e-05
1.5189e-05
1.5189e-05
1.5189e-05
1.5189e-05
1.5189e-05
1.5189e-05
1.5189e-05
1.5189e-05
1.5189e-05
)
;

boundaryField
{
    inlet
    {
        type            calculated;
        value           nonuniform List<scalar> 5(-1.51889e-05 -3.33651e-05 -3.94143e-05 -3.33651e-05 -1.51889e-05);
    }
    outlet
    {
        type            calculated;
        value           nonuniform List<scalar> 5(1.5189e-05 3.33651e-05 3.94143e-05 3.33651e-05 1.5189e-05);
    }
    walls
    {
        type            calculated;
        value           uniform 0;
    }
    frontAndBack
    {
        type            empty;
    }
}


// ************************************************************************* //
