/*--------------------------------*- C++ -*----------------------------------*\
| =========                 |                                                 |
| \\      /  F ield         | OpenFOAM: The Open Source CFD Toolbox           |
|  \\    /   O peration     | Version:  2406                                  |
|   \\  /    A nd           | Website:  www.openfoam.com                      |
|    \\/     M anipulation  |                                                 |
\*---------------------------------------------------------------------------*/
FoamFile
{
    version     2.0;
    format      ascii;
    arch        "LSB;label=32;scalar=64";
    class       volVectorField;
    location    "0.5";
    object      U;
}
// * * * * * * * * * * * * * * * * * * * * * * * * * * * * * * * * * * * * * //

dimensions      [0 1 -1 0 0 0 0];

internalField   nonuniform List<vector> 
250
(
(0.0759447 -1.74483e-10 0)
(0.0759447 -1.71554e-09 0)
(0.0759447 -2.5762e-09 0)
(0.0759447 -9.14019e-10 0)
(0.0759447 2.81004e-09 0)
(0.0759447 5.80261e-09 0)
(0.0759447 3.64723e-09 0)
(0.0759447 -3.2718e-09 0)
(0.0759447 -9.82749e-09 0)
(0.0759447 -8.27961e-09 0)
(0.0759447 1.40945e-09 0)
(0.0759447 1.22144e-08 0)
(0.0759447 1.27639e-08 0)
(0.0759448 1.6354e-09 0)
(0.0759448 -1.27041e-08 0)
(0.0759448 -1.68362e-08 0)
(0.0759447 -6.49043e-09 0)
(0.0759447 9.08629e-09 0)
(0.0759447 1.79789e-08 0)
(0.0759448 1.29714e-08 0)
(0.0759448 -4.44375e-10 0)
(0.0759448 -1.31375e-08 0)
(0.0759448 -1.53792e-08 0)
(0.0759448 -6.89454e-09 0)
(0.0759448 4.72023e-09 0)
(0.0759448 1.31409e-08 0)
(0.0759448 1.32445e-08 0)
(0.0759448 5.57908e-09 0)
(0.0759448 -4.66931e-09 0)
(0.0759448 -1.2482e-08 0)
(0.0759448 -1.24261e-08 0)
(0.0759448 -3.92535e-09 0)
(0.0759448 7.6971e-09 0)
(0.0759448 1.53568e-08 0)
(0.0759448 1.27016e-08 0)
(0.0759448 1.54844e-09 0)
(0.0759448 -1.08877e-08 0)
(0.0759448 -1.44411e-08 0)
(0.0759448 -6.3e-09 0)
(0.0759448 5.9985e-09 0)
(0.0759448 1.35787e-08 0)
(0.0759448 1.04356e-08 0)
(0.0759448 6.41693e-10 0)
(0.0759449 -8.00158e-09 0)
(0.0759448 -8.58856e-09 0)
(0.0759448 -2.47658e-09 0)
(0.0759448 3.66897e-09 0)
(0.0759448 5.74703e-09 0)
(0.0759448 3.87604e-09 0)
(0.0759448 1.41717e-09 0)
(0.166825 2.07437e-09 0)
(0.166825 1.41516e-10 0)
(0.166825 -2.59981e-09 0)
(0.166825 -3.02553e-09 0)
(0.166825 1.42762e-09 0)
(0.166825 8.40129e-09 0)
(0.166825 9.69734e-09 0)
(0.166825 8.46529e-10 0)
(0.166825 -1.30647e-08 0)
(0.166825 -1.81018e-08 0)
(0.166825 -6.85063e-09 0)
(0.166825 1.39113e-08 0)
(0.166825 2.47116e-08 0)
(0.166825 1.41202e-08 0)
(0.166825 -1.10324e-08 0)
(0.166825 -2.80755e-08 0)
(0.166825 -2.16721e-08 0)
(0.166825 2.59349e-09 0)
(0.166825 2.52408e-08 0)
(0.166825 2.82676e-08 0)
(0.166825 1.14753e-08 0)
(0.166825 -1.22593e-08 0)
(0.166826 -2.47802e-08 0)
(0.166826 -1.89459e-08 0)
(0.166825 -1.64044e-09 0)
(0.166825 1.60794e-08 0)
(0.166825 2.36224e-08 0)
(0.166826 1.76105e-08 0)
(0.166826 2.52188e-09 0)
(0.166826 -1.38033e-08 0)
(0.166826 -2.14562e-08 0)
(0.166826 -1.45976e-08 0)
(0.166826 3.30325e-09 0)
(0.166826 2.13471e-08 0)
(0.166826 2.62027e-08 0)
(0.166826 1.36708e-08 0)
(0.166826 -8.53025e-09 0)
(0.166826 -2.28735e-08 0)
(0.166826 -1.82883e-08 0)
(0.166826 4.06158e-10 0)
(0.166826 1.85236e-08 0)
(0.166826 2.16723e-08 0)
(0.166826 9.35841e-09 0)
(0.166826 -7.30009e-09 0)
(0.166826 -1.42537e-08 0)
(0.166826 -8.17136e-09 0)
(0.166826 2.75045e-09 0)
(0.166826 9.24795e-09 0)
(0.166826 8.10797e-09 0)
(0.166826 3.62803e-09 0)
(0.197071 5.7974e-09 0)
(0.197071 6.39236e-09 0)
(0.197071 3.52804e-09 0)
(0.197071 -2.21676e-09 0)
(0.197071 -4.74461e-09 0)
(0.197071 -2.16161e-11 0)
(0.197071 8.3123e-09 0)
(0.197071 1.09682e-08 0)
(0.197071 2.23689e-09 0)
(0.197071 -1.20821e-08 0)
(0.197071 -1.82047e-08 0)
(0.197071 -7.87218e-09 0)
(0.197071 1.18891e-08 0)
(0.197071 2.34198e-08 0)
(0.197071 1.50702e-08 0)
(0.197071 -6.82981e-09 0)
(0.197071 -2.35779e-08 0)
(0.197071 -2.10499e-08 0)
(0.197071 -1.94255e-09 0)
(0.197071 1.78852e-08 0)
(0.197071 2.3657e-08 0)
(0.197071 1.29342e-08 0)
(0.197071 -5.11711e-09 0)
(0.197071 -1.73125e-08 0)
(0.197071 -1.69726e-08 0)
(0.197071 -6.17538e-09 0)
(0.197071 7.9931e-09 0)
(0.197071 1.75008e-08 0)
(0.197071 1.74838e-08 0)
(0.197071 7.69697e-09 0)
(0.197072 -7.01442e-09 0)
(0.197072 -1.73893e-08 0)
(0.197072 -1.57976e-08 0)
(0.197072 -2.05618e-09 0)
(0.197072 1.4805e-08 0)
(0.197072 2.23986e-08 0)
(0.197072 1.43126e-08 0)
(0.197072 -3.74966e-09 0)
(0.197072 -1.74974e-08 0)
(0.197072 -1.63026e-08 0)
(0.197072 -2.13563e-09 0)
(0.197072 1.27843e-08 0)
(0.197072 1.6713e-08 0)
(0.197072 8.35597e-09 0)
(0.197072 -3.52371e-09 0)
(0.197072 -8.59135e-09 0)
(0.197072 -4.63748e-09 0)
(0.197072 2.21171e-09 0)
(0.197072 5.05505e-09 0)
(0.197072 3.1155e-09 0)
(0.166825 5.78018e-09 0)
(0.166825 7.68884e-09 0)
(0.166825 6.74953e-09 0)
(0.166825 9.17027e-10 0)
(0.166825 -5.98829e-09 0)
(0.166825 -7.1422e-09 0)
(0.166825 6.44068e-10 0)
(0.166825 1.10002e-08 0)
(0.166825 1.32951e-08 0)
(0.166825 1.97352e-09 0)
(0.166825 -1.43247e-08 0)
(0.166825 -2.06401e-08 0)
(0.166825 -8.38443e-09 0)
(0.166825 1.31658e-08 0)
(0.166825 2.57512e-08 0)
(0.166825 1.66862e-08 0)
(0.166825 -6.75412e-09 0)
(0.166825 -2.47752e-08 0)
(0.166825 -2.36911e-08 0)
(0.166825 -5.31214e-09 0)
(0.166825 1.50484e-08 0)
(0.166825 2.37681e-08 0)
(0.166825 1.54732e-08 0)
(0.166825 -2.1283e-09 0)
(0.166826 -1.63735e-08 0)
(0.166826 -2.00477e-08 0)
(0.166826 -1.16631e-08 0)
(0.166826 3.42494e-09 0)
(0.166826 1.62526e-08 0)
(0.166826 1.9923e-08 0)
(0.166826 1.10945e-08 0)
(0.166826 -5.72356e-09 0)
(0.166826 -1.93497e-08 0)
(0.166826 -2.00792e-08 0)
(0.166826 -6.29395e-09 0)
(0.166826 1.2453e-08 0)
(0.166826 2.271e-08 0)
(0.166826 1.57057e-08 0)
(0.166826 -2.68829e-09 0)
(0.166826 -1.71254e-08 0)
(0.166826 -1.72905e-08 0)
(0.166826 -4.25095e-09 0)
(0.166826 1.01021e-08 0)
(0.166826 1.51312e-08 0)
(0.166826 8.57607e-09 0)
(0.166826 -1.47963e-09 0)
(0.166826 -6.26884e-09 0)
(0.166826 -4.59495e-09 0)
(0.166826 -1.09776e-09 0)
(0.166826 3.68886e-10 0)
(0.0759447 2.20463e-09 0)
(0.0759447 3.12765e-09 0)
(0.0759447 3.20084e-09 0)
(0.0759447 1.05237e-09 0)
(0.0759447 -2.60451e-09 0)
(0.0759447 -4.54036e-09 0)
(0.0759447 -1.67998e-09 0)
(0.0759447 4.091e-09 0)
(0.0759447 7.82782e-09 0)
(0.0759447 4.31872e-09 0)
(0.0759447 -4.28123e-09 0)
(0.0759448 -1.10506e-08 0)
(0.0759448 -8.41734e-09 0)
(0.0759448 2.10181e-09 0)
(0.0759447 1.23e-08 0)
(0.0759447 1.23508e-08 0)
(0.0759447 1.78283e-09 0)
(0.0759448 -1.01285e-08 0)
(0.0759448 -1.45203e-08 0)
(0.0759448 -8.02607e-09 0)
(0.0759448 3.19244e-09 0)
(0.0759447 1.16807e-08 0)
(0.0759447 1.12619e-08 0)
(0.0759448 3.2469e-09 0)
(0.0759448 -5.68015e-09 0)
(0.0759448 -1.0928e-08 0)
(0.0759448 -9.34561e-09 0)
(0.0759448 -2.14069e-09 0)
(0.0759448 5.88991e-09 0)
(0.0759448 1.09059e-08 0)
(0.0759448 9.15789e-09 0)
(0.0759448 1.10318e-09 0)
(0.0759448 -7.87347e-09 0)
(0.0759448 -1.20502e-08 0)
(0.0759448 -7.69595e-09 0)
(0.0759448 2.06692e-09 0)
(0.0759448 1.07182e-08 0)
(0.0759448 1.10921e-08 0)
(0.0759448 2.94089e-09 0)
(0.0759448 -6.33575e-09 0)
(0.0759448 -1.02281e-08 0)
(0.0759448 -5.88966e-09 0)
(0.0759448 2.02051e-09 0)
(0.0759448 7.46003e-09 0)
(0.0759448 6.48706e-09 0)
(0.0759448 1.48072e-09 0)
(0.0759448 -2.52489e-09 0)
(0.0759449 -3.32095e-09 0)
(0.0759448 -1.94691e-09 0)
(0.0759448 -5.49589e-10 0)
)
;

boundaryField
{
    inlet
    {
        type            zeroGradient;
    }
    outlet
    {
        type            zeroGradient;
    }
    walls
    {
        type            noSlip;
    }
    frontAndBack
    {
        type            empty;
    }
}


// ************************************************************************* //
