/*--------------------------------*- C++ -*----------------------------------*\
| =========                 |                                                 |
| \\      /  F ield         | OpenFOAM: The Open Source CFD Toolbox           |
|  \\    /   O peration     | Version:  2406                                  |
|   \\  /    A nd           | Website:  www.openfoam.com                      |
|    \\/     M anipulation  |                                                 |
\*---------------------------------------------------------------------------*/
FoamFile
{
    version     2.0;
    format      ascii;
    arch        "LSB;label=32;scalar=64";
    class       surfaceScalarField;
    location    "0.3";
    object      phi;
}
// * * * * * * * * * * * * * * * * * * * * * * * * * * * * * * * * * * * * * //

dimensions      [0 3 -1 0 0 0 0];

oriented        oriented;

internalField   nonuniform List<scalar> 
4335
(
9.19607e-06
-1.55337e-11
9.19608e-06
-1.68855e-11
9.19609e-06
-1.00849e-11
9.1961e-06
-2.27994e-12
9.19612e-06
-7.69784e-12
9.19612e-06
-1.19039e-11
9.19612e-06
-3.93863e-12
9.19614e-06
1.14332e-12
9.19614e-06
-3.80077e-12
9.19613e-06
-4.32953e-12
9.19614e-06
-1.58099e-12
9.19615e-06
2.36035e-12
9.19615e-06
3.80842e-12
9.19615e-06
1.43359e-12
9.19614e-06
-1.76345e-12
9.19614e-06
-3.47533e-12
9.19614e-06
-2.59909e-12
9.19615e-06
-8.92535e-13
9.19615e-06
1.25729e-13
9.19616e-06
1.41901e-12
9.19616e-06
3.83685e-12
9.19616e-06
5.09085e-12
9.19615e-06
3.05876e-12
9.19615e-06
-5.82717e-13
9.19614e-06
-2.84292e-12
9.19614e-06
-2.66313e-12
9.19614e-06
-1.52306e-12
9.19614e-06
-1.08346e-12
9.19614e-06
-1.71957e-12
9.19614e-06
-2.68863e-12
9.19614e-06
-2.73948e-12
9.19614e-06
-1.23836e-12
9.19615e-06
4.72129e-14
9.19615e-06
-8.63832e-13
9.19615e-06
-2.70875e-12
9.19615e-06
-2.93244e-12
9.19615e-06
-7.9286e-13
9.19615e-06
1.91156e-12
9.19615e-06
2.60524e-12
9.19615e-06
8.37961e-13
9.19615e-06
-1.49464e-12
9.19616e-06
-2.31394e-12
9.19616e-06
-1.08089e-12
9.19616e-06
5.97507e-13
9.19616e-06
4.19865e-13
9.19616e-06
-1.45772e-12
9.19616e-06
-2.91695e-12
9.19616e-06
-2.00634e-12
9.19616e-06
1.08052e-12
9.19616e-06
3.67195e-12
9.19616e-06
3.63874e-12
9.19616e-06
1.80367e-12
9.19616e-06
4.95533e-13
9.19615e-06
9.13015e-13
9.19614e-06
2.15256e-12
9.19614e-06
2.29182e-12
9.19614e-06
7.97013e-13
9.19613e-06
-7.76801e-13
9.19613e-06
-5.1368e-13
9.19612e-06
1.83621e-12
9.19612e-06
4.19239e-12
9.19612e-06
4.04602e-12
9.19612e-06
1.47178e-12
9.19612e-06
-9.44697e-13
9.19612e-06
-1.0294e-12
9.19611e-06
9.92824e-13
9.19611e-06
2.78805e-12
9.19612e-06
2.58915e-12
9.19612e-06
8.38123e-13
9.19612e-06
-5.57462e-13
9.19612e-06
-2.75738e-13
9.19612e-06
1.06644e-12
9.19612e-06
1.48583e-12
9.19612e-06
4.44478e-14
9.19612e-06
-1.91209e-12
9.19612e-06
-2.33613e-12
9.19612e-06
-8.30317e-13
9.19612e-06
8.99782e-13
9.19612e-06
9.68864e-13
9.19612e-06
-5.62892e-13
9.19611e-06
-1.9326e-12
9.19611e-06
-1.56096e-12
9.19611e-06
7.13984e-14
9.19611e-06
1.37468e-12
9.19611e-06
1.06566e-12
9.19611e-06
-3.31095e-13
9.19611e-06
-1.07034e-12
9.19611e-06
-1.82515e-13
9.19611e-06
1.26895e-12
9.19611e-06
1.45221e-12
9.19612e-06
-1.60096e-13
9.19612e-06
-2.09823e-12
9.19612e-06
-2.77299e-12
9.19612e-06
-2.08028e-12
9.19612e-06
-1.23583e-12
9.19613e-06
-1.20893e-12
9.19613e-06
-1.98472e-12
9.19613e-06
-2.72312e-12
9.19614e-06
-2.57803e-12
9.19614e-06
-1.49507e-12
9.19614e-06
-1.89423e-13
9.19615e-06
3.52315e-13
9.19615e-06
2.85616e-13
9.19615e-06
7.8394e-13
9.19615e-06
2.06976e-12
9.19616e-06
3.09795e-12
9.19615e-06
3.11463e-12
9.19615e-06
2.12491e-12
9.19615e-06
6.77981e-13
9.19615e-06
-3.35817e-13
9.19615e-06
-2.27941e-13
9.19615e-06
5.98373e-13
9.19615e-06
9.48761e-13
9.19615e-06
4.68446e-13
9.19615e-06
-1.05598e-13
9.19615e-06
-3.33405e-13
9.19615e-06
-1.42139e-13
9.19615e-06
8.78372e-14
9.19616e-06
-4.89144e-13
9.19616e-06
-1.5444e-12
9.19616e-06
-1.81597e-12
9.19616e-06
-1.21576e-12
9.19616e-06
-5.56774e-13
9.19616e-06
-3.37121e-13
9.19617e-06
-3.7922e-13
9.19617e-06
-5.02929e-13
9.19617e-06
-3.70651e-13
9.19616e-06
4.68777e-13
9.19616e-06
1.48754e-12
9.19616e-06
1.44649e-12
9.19616e-06
1.0556e-12
9.19616e-06
1.56543e-12
9.19616e-06
2.34064e-12
9.19616e-06
2.84339e-12
9.19616e-06
3.19582e-12
9.19616e-06
2.89446e-12
9.19616e-06
2.08204e-12
9.19615e-06
1.64622e-12
9.19615e-06
1.7402e-12
9.19615e-06
2.06948e-12
9.19615e-06
2.42596e-12
9.19615e-06
2.98352e-12
9.19615e-06
3.57325e-12
9.19615e-06
3.07347e-12
9.19614e-06
2.28572e-12
9.19614e-06
2.68987e-12
9.19613e-06
3.29646e-12
9.19613e-06
3.9132e-12
9.19613e-06
4.36985e-12
5.60281e-12
2.50373e-05
-1.71368e-11
2.50373e-05
-2.92306e-11
2.50373e-05
-3.92447e-11
2.50373e-05
-3.48554e-11
2.50374e-05
-1.98964e-11
2.50374e-05
-1.56543e-11
2.50374e-05
-1.68713e-11
2.50374e-05
-1.38322e-11
2.50374e-05
-1.20553e-11
2.50374e-05
-6.91612e-12
2.50374e-05
-1.91071e-12
2.50374e-05
-6.23154e-13
2.50374e-05
-2.59538e-12
2.50374e-05
-5.83756e-12
2.50374e-05
-7.24281e-12
2.50374e-05
-5.28051e-12
2.50374e-05
-1.55654e-12
2.50374e-05
5.44898e-13
2.50374e-05
6.13968e-13
2.50374e-05
8.6259e-13
2.50374e-05
2.02544e-12
2.50374e-05
2.29699e-12
2.50374e-05
6.26139e-13
2.50374e-05
-2.17765e-12
2.50374e-05
-4.63524e-12
2.50374e-05
-5.16009e-12
2.50374e-05
-3.36128e-12
2.50374e-05
-8.21429e-13
2.50374e-05
5.45307e-13
2.50374e-05
1.16119e-13
2.50374e-05
-1.53249e-12
2.50374e-05
-2.59793e-12
2.50374e-05
-1.9215e-12
2.50374e-05
-6.11815e-13
2.50374e-05
-1.30708e-13
2.50374e-05
-4.75583e-13
2.50374e-05
-3.56374e-13
2.50374e-05
1.18545e-12
2.50374e-05
2.96836e-12
2.50374e-05
2.72569e-12
2.50374e-05
-3.13921e-13
2.50374e-05
-4.94168e-12
2.50374e-05
-8.10469e-12
2.50374e-05
-7.77395e-12
2.50374e-05
-5.06373e-12
2.50374e-05
-2.59737e-12
2.50374e-05
-1.95411e-12
2.50374e-05
-2.25517e-12
2.50374e-05
-1.28605e-12
2.50374e-05
1.55276e-12
2.50374e-05
4.10903e-12
2.50374e-05
4.27756e-12
2.50374e-05
2.25749e-12
2.50374e-05
3.03831e-13
2.50374e-05
7.95608e-13
2.50374e-05
3.64031e-12
2.50374e-05
6.5504e-12
2.50374e-05
7.34406e-12
2.50374e-05
5.96568e-12
2.50374e-05
4.68637e-12
2.50374e-05
5.47912e-12
2.50374e-05
7.48903e-12
2.50374e-05
8.31543e-12
2.50374e-05
7.0838e-12
2.50374e-05
5.17663e-12
2.50374e-05
4.66255e-12
2.50374e-05
5.86147e-12
2.50374e-05
7.03137e-12
2.50374e-05
6.228e-12
2.50374e-05
3.20413e-12
2.50374e-05
-1.71955e-13
2.50374e-05
-1.64155e-12
2.50374e-05
-9.33494e-13
2.50374e-05
-1.59706e-13
2.50374e-05
-1.17782e-12
2.50374e-05
-3.6366e-12
2.50374e-05
-5.439e-12
2.50374e-05
-5.22137e-12
2.50374e-05
-3.64489e-12
2.50374e-05
-2.33582e-12
2.50374e-05
-2.10226e-12
2.50374e-05
-2.25499e-12
2.50374e-05
-1.57472e-12
2.50374e-05
3.21351e-13
2.50374e-05
2.1995e-12
2.50374e-05
2.24265e-12
2.50374e-05
1.08588e-13
2.50374e-05
-2.36339e-12
2.50374e-05
-3.25984e-12
2.50374e-05
-2.59703e-12
2.50374e-05
-2.03745e-12
2.50374e-05
-2.78219e-12
2.50374e-05
-4.39645e-12
2.50374e-05
-5.72522e-12
2.50374e-05
-6.12041e-12
2.50374e-05
-5.74366e-12
2.50374e-05
-5.55424e-12
2.50374e-05
-5.95678e-12
2.50374e-05
-6.40871e-12
2.50374e-05
-5.82801e-12
2.50374e-05
-3.67277e-12
2.50374e-05
-1.10222e-12
2.50374e-05
5.59168e-14
2.50374e-05
-3.2128e-13
2.50374e-05
-9.87455e-13
2.50374e-05
-1.34102e-12
2.50374e-05
-1.31036e-12
2.50374e-05
-9.41313e-13
2.50374e-05
-6.2625e-13
2.50374e-05
-7.6968e-13
2.50374e-05
-9.81475e-13
2.50374e-05
-4.56181e-13
2.50374e-05
4.67597e-13
2.50374e-05
5.51976e-13
2.50374e-05
-2.31495e-13
2.50374e-05
-1.4669e-12
2.50374e-05
-2.46882e-12
2.50374e-05
-2.40482e-12
2.50374e-05
-1.60317e-12
2.50374e-05
-1.1923e-12
2.50374e-05
-1.31143e-12
2.50374e-05
-1.54654e-12
2.50374e-05
-1.70843e-12
2.50374e-05
-1.6118e-12
2.50374e-05
-1.15774e-12
2.50374e-05
-6.27339e-13
2.50374e-05
-5.08574e-13
2.50374e-05
-1.89503e-13
2.50374e-05
1.52722e-12
2.50374e-05
3.72575e-12
2.50374e-05
4.96877e-12
2.50374e-05
5.62377e-12
2.50374e-05
5.77852e-12
2.50374e-05
5.35642e-12
2.50374e-05
5.38338e-12
2.50374e-05
5.79268e-12
2.50374e-05
5.82212e-12
2.50374e-05
5.47042e-12
2.50374e-05
5.47424e-12
2.50374e-05
6.29385e-12
2.50374e-05
7.26546e-12
2.50374e-05
7.72276e-12
2.50374e-05
8.20261e-12
2.50374e-05
8.38582e-12
2.50374e-05
8.08896e-12
2.50374e-05
8.83519e-12
2.50374e-05
1.04927e-11
2.50374e-05
1.27061e-11
2.50374e-05
1.39668e-11
1.22179e-11
3.83655e-05
-2.25793e-11
3.83655e-05
-2.76255e-11
3.83655e-05
-2.71652e-11
3.83655e-05
-3.17872e-11
3.83655e-05
-2.68954e-11
3.83655e-05
-2.51307e-11
3.83655e-05
-2.18778e-11
3.83655e-05
-1.60405e-11
3.83655e-05
-9.65025e-12
3.83655e-05
-4.66687e-12
3.83655e-05
-1.37013e-12
3.83655e-05
-1.79261e-12
3.83655e-05
-4.17179e-12
3.83655e-05
-4.13624e-12
3.83655e-05
-2.99334e-12
3.83655e-05
-1.90585e-12
3.83655e-05
-2.07647e-13
3.83655e-05
1.64709e-12
3.83655e-05
2.50273e-12
3.83655e-05
1.85848e-12
3.83655e-05
2.51261e-13
3.83655e-05
-1.3223e-12
3.83655e-05
-2.23662e-12
3.83655e-05
-2.58183e-12
3.83655e-05
-3.07739e-12
3.83655e-05
-3.9782e-12
3.83655e-05
-4.48413e-12
3.83655e-05
-3.96554e-12
3.83655e-05
-2.56034e-12
3.83655e-05
-1.05401e-12
3.83655e-05
-1.06887e-12
3.83655e-05
-2.86046e-12
3.83655e-05
-4.17035e-12
3.83655e-05
-3.43722e-12
3.83655e-05
-1.26012e-12
3.83655e-05
4.9351e-13
3.83655e-05
5.24187e-13
3.83655e-05
-7.29616e-13
3.83655e-05
-2.14076e-12
3.83655e-05
-3.01208e-12
3.83655e-05
-3.41985e-12
3.83655e-05
-4.38445e-12
3.83655e-05
-6.37336e-12
3.83655e-05
-7.82627e-12
3.83655e-05
-7.16678e-12
3.83655e-05
-4.73827e-12
3.83655e-05
-2.32602e-12
3.83655e-05
-1.56776e-12
3.83655e-05
-2.01602e-12
3.83655e-05
-1.70742e-12
3.83655e-05
2.09287e-13
3.83655e-05
2.65615e-12
3.83655e-05
4.09349e-12
3.83655e-05
3.64541e-12
3.83655e-05
2.3454e-12
3.83655e-05
2.18229e-12
3.83655e-05
3.91775e-12
3.83655e-05
6.50864e-12
3.83655e-05
7.69559e-12
3.83655e-05
6.84917e-12
3.83655e-05
5.69047e-12
3.83655e-05
6.03636e-12
3.83655e-05
7.56879e-12
3.83655e-05
8.59051e-12
3.83655e-05
7.90738e-12
3.83655e-05
5.946e-12
3.83655e-05
4.2288e-12
3.83655e-05
3.6122e-12
3.83655e-05
3.68826e-12
3.83655e-05
3.01663e-12
3.83655e-05
6.52887e-13
3.83655e-05
-2.38736e-12
3.83655e-05
-4.14318e-12
3.83655e-05
-3.98425e-12
3.83655e-05
-3.15036e-12
3.83655e-05
-3.20241e-12
3.83655e-05
-4.11715e-12
3.83655e-05
-4.54127e-12
3.83655e-05
-3.3479e-12
3.83655e-05
-8.7246e-13
3.83655e-05
1.39542e-12
3.83655e-05
2.15316e-12
3.83655e-05
1.25895e-12
3.83655e-05
-2.37122e-14
3.83655e-05
-3.14496e-13
3.83655e-05
2.96674e-13
3.83655e-05
4.38493e-13
3.83655e-05
-6.39268e-13
3.83655e-05
-2.17339e-12
3.83655e-05
-2.92983e-12
3.83655e-05
-2.767e-12
3.83655e-05
-2.66653e-12
3.83655e-05
-3.48624e-12
3.83655e-05
-5.18171e-12
3.83655e-05
-6.80979e-12
3.83655e-05
-7.23382e-12
3.83655e-05
-6.25902e-12
3.83655e-05
-4.81881e-12
3.83655e-05
-4.02027e-12
3.83655e-05
-4.06836e-12
3.83655e-05
-4.02408e-12
3.83655e-05
-3.22396e-12
3.83655e-05
-2.49961e-12
3.83655e-05
-2.69103e-12
3.83655e-05
-3.32516e-12
3.83655e-05
-3.61418e-12
3.83655e-05
-3.21254e-12
3.83655e-05
-2.0494e-12
3.83655e-05
-4.40927e-13
3.83655e-05
7.2572e-13
3.83655e-05
7.91182e-13
3.83655e-05
4.20455e-13
3.83655e-05
4.01216e-13
3.83655e-05
3.1763e-13
3.83655e-05
-2.04738e-13
3.83655e-05
-9.59942e-13
3.83655e-05
-1.75461e-12
3.83655e-05
-2.32828e-12
3.83655e-05
-2.12731e-12
3.83655e-05
-1.51775e-12
3.83655e-05
-9.08767e-13
3.83655e-05
-4.80171e-13
3.83655e-05
-2.03984e-13
3.83655e-05
-5.96937e-14
3.83655e-05
3.83407e-13
3.83655e-05
1.42695e-12
3.83655e-05
2.37572e-12
3.83655e-05
2.55569e-12
3.83655e-05
3.11143e-12
3.83655e-05
4.68352e-12
3.83655e-05
6.08112e-12
3.83655e-05
7.05949e-12
3.83655e-05
7.88499e-12
3.83655e-05
7.87482e-12
3.83655e-05
7.28928e-12
3.83655e-05
7.09782e-12
3.83655e-05
7.45359e-12
3.83655e-05
7.7737e-12
3.83655e-05
7.76527e-12
3.83655e-05
7.85041e-12
3.83656e-05
8.38109e-12
3.83656e-05
8.62664e-12
3.83656e-05
8.67084e-12
3.83656e-05
9.29477e-12
3.83656e-05
1.00738e-11
3.83655e-05
1.09585e-11
3.83655e-05
1.3914e-11
3.83655e-05
1.60503e-11
3.83655e-05
1.74456e-11
1.50969e-11
4.92159e-05
-2.29318e-11
4.92159e-05
-3.0311e-11
4.92159e-05
-3.06685e-11
4.92159e-05
-2.95401e-11
4.92159e-05
-2.44984e-11
4.92159e-05
-1.9257e-11
4.92159e-05
-1.44782e-11
4.92159e-05
-8.09153e-12
4.92159e-05
-3.2091e-12
4.92159e-05
-3.49578e-12
4.92159e-05
-4.19783e-12
4.92159e-05
-2.41078e-12
4.92159e-05
-8.86366e-13
4.92159e-05
-1.09811e-12
4.92158e-05
-2.35622e-12
4.92158e-05
-3.07071e-12
4.92158e-05
-2.31514e-12
4.92159e-05
-1.85819e-13
4.92159e-05
1.86111e-12
4.92159e-05
2.37981e-12
4.92159e-05
1.61576e-12
4.92159e-05
8.42337e-13
4.92159e-05
5.47543e-13
4.92159e-05
7.09576e-13
4.92159e-05
9.34257e-13
4.92159e-05
4.23288e-13
4.92159e-05
-9.88127e-13
4.92159e-05
-2.43823e-12
4.92159e-05
-2.89703e-12
4.92158e-05
-1.90438e-12
4.92159e-05
-5.19042e-13
4.92159e-05
-3.3494e-13
4.92159e-05
-1.2046e-12
4.92159e-05
-2.07368e-12
4.92159e-05
-2.40391e-12
4.92159e-05
-2.36789e-12
4.92159e-05
-2.79656e-12
4.92159e-05
-4.15986e-12
4.92159e-05
-5.98733e-12
4.92159e-05
-7.31515e-12
4.92159e-05
-7.048e-12
4.92159e-05
-5.61419e-12
4.92159e-05
-5.06328e-12
4.92159e-05
-6.28593e-12
4.92159e-05
-7.88629e-12
4.92159e-05
-7.86838e-12
4.92158e-05
-5.45293e-12
4.92158e-05
-2.10026e-12
4.92158e-05
2.76754e-13
4.92158e-05
1.43532e-12
4.92158e-05
2.29874e-12
4.92158e-05
3.62544e-12
4.92158e-05
5.50454e-12
4.92158e-05
6.67241e-12
4.92158e-05
6.23604e-12
4.92158e-05
5.0023e-12
4.92158e-05
4.51728e-12
4.92158e-05
6.10382e-12
4.92158e-05
8.98867e-12
4.92158e-05
1.0909e-11
4.92158e-05
1.08044e-11
4.92158e-05
9.67818e-12
4.92158e-05
9.03292e-12
4.92158e-05
9.27803e-12
4.92158e-05
9.57048e-12
4.92158e-05
8.92191e-12
4.92158e-05
7.36019e-12
4.92158e-05
5.76076e-12
4.92158e-05
4.94195e-12
4.92158e-05
4.65067e-12
4.92158e-05
3.38007e-12
4.92158e-05
1.60691e-13
4.92158e-05
-3.90996e-12
4.92158e-05
-6.58378e-12
4.92158e-05
-6.78903e-12
4.92158e-05
-5.32884e-12
4.92158e-05
-3.81701e-12
4.92158e-05
-3.09217e-12
4.92158e-05
-2.769e-12
4.92158e-05
-2.11291e-12
4.92158e-05
-9.05997e-13
4.92158e-05
2.28535e-13
4.92158e-05
2.52079e-13
4.92159e-05
-9.21508e-13
4.92159e-05
-2.13649e-12
4.92159e-05
-2.10117e-12
4.92159e-05
-1.03235e-12
4.92159e-05
-4.30103e-13
4.92159e-05
-1.33508e-12
4.92159e-05
-3.3536e-12
4.92159e-05
-5.15663e-12
4.92159e-05
-5.84895e-12
4.92159e-05
-5.54762e-12
4.92159e-05
-5.10928e-12
4.92159e-05
-5.31955e-12
4.92159e-05
-5.9816e-12
4.92159e-05
-6.23051e-12
4.92159e-05
-5.71895e-12
4.92159e-05
-5.09268e-12
4.92159e-05
-5.37171e-12
4.92159e-05
-6.54544e-12
4.92159e-05
-7.35377e-12
4.92159e-05
-7.0587e-12
4.92159e-05
-6.06559e-12
4.92159e-05
-4.85156e-12
4.92159e-05
-3.68608e-12
4.92159e-05
-2.81966e-12
4.92159e-05
-2.29767e-12
4.92159e-05
-1.85722e-12
4.92159e-05
-1.37633e-12
4.92159e-05
-1.44059e-12
4.92159e-05
-2.12476e-12
4.92159e-05
-2.56025e-12
4.92159e-05
-2.57188e-12
4.92159e-05
-2.56608e-12
4.92159e-05
-2.71542e-12
4.92159e-05
-3.02483e-12
4.92159e-05
-3.4028e-12
4.92159e-05
-3.39584e-12
4.92159e-05
-2.84265e-12
4.92159e-05
-1.79396e-12
4.92159e-05
-4.01466e-13
4.92159e-05
8.32751e-13
4.92159e-05
1.58525e-12
4.92159e-05
1.77753e-12
4.92159e-05
2.02868e-12
4.92159e-05
2.95791e-12
4.92159e-05
3.96919e-12
4.92159e-05
4.83574e-12
4.92159e-05
5.97083e-12
4.92159e-05
6.79647e-12
4.92159e-05
7.10319e-12
4.92159e-05
7.57099e-12
4.92159e-05
7.84781e-12
4.92159e-05
7.40055e-12
4.92159e-05
6.7755e-12
4.92159e-05
6.71571e-12
4.92159e-05
7.50793e-12
4.92159e-05
8.27493e-12
4.92159e-05
8.35681e-12
4.92159e-05
8.52401e-12
4.92159e-05
8.56736e-12
4.92159e-05
8.35758e-12
4.92159e-05
9.18573e-12
4.92159e-05
1.08019e-11
4.92159e-05
1.11351e-11
4.92159e-05
1.25423e-11
4.92159e-05
1.51522e-11
4.92159e-05
1.68637e-11
1.42166e-11
5.76198e-05
-6.03221e-12
5.76198e-05
-1.1444e-11
5.76198e-05
-1.26315e-11
5.76198e-05
-9.99331e-12
5.76198e-05
-8.80306e-12
5.76198e-05
-4.27728e-12
5.76198e-05
-6.87556e-14
5.76197e-05
3.63371e-12
5.76197e-05
4.94034e-12
5.76197e-05
4.91418e-12
5.76197e-05
5.63372e-12
5.76197e-05
6.18071e-12
5.76197e-05
4.94421e-12
5.76197e-05
2.59797e-12
5.76197e-05
1.52172e-12
5.76197e-05
2.19633e-12
5.76197e-05
2.75212e-12
5.76197e-05
2.44378e-12
5.76197e-05
2.32844e-12
5.76197e-05
2.99813e-12
5.76197e-05
4.02211e-12
5.76197e-05
4.65344e-12
5.76197e-05
3.92064e-12
5.76197e-05
1.77767e-12
5.76197e-05
-4.27588e-13
5.76197e-05
-1.65421e-12
5.76197e-05
-1.87585e-12
5.76197e-05
-1.69637e-12
5.76197e-05
-1.90909e-12
5.76197e-05
-2.29633e-12
5.76197e-05
-2.129e-12
5.76197e-05
-1.76716e-12
5.76197e-05
-1.88956e-12
5.76197e-05
-2.5621e-12
5.76197e-05
-3.25763e-12
5.76197e-05
-3.27411e-12
5.76197e-05
-2.58949e-12
5.76197e-05
-2.08956e-12
5.76197e-05
-2.20917e-12
5.76197e-05
-3.35295e-12
5.76197e-05
-4.89184e-12
5.76197e-05
-5.6019e-12
5.76197e-05
-5.48268e-12
5.76197e-05
-5.4633e-12
5.76197e-05
-6.23995e-12
5.76197e-05
-7.26264e-12
5.76197e-05
-6.92752e-12
5.76197e-05
-4.42337e-12
5.76197e-05
-9.4466e-13
5.76197e-05
1.92701e-12
5.76197e-05
3.26668e-12
5.76197e-05
3.31948e-12
5.76197e-05
3.41671e-12
5.76197e-05
4.41769e-12
5.76197e-05
6.02561e-12
5.76197e-05
7.35323e-12
5.76197e-05
7.81071e-12
5.76197e-05
8.04154e-12
5.76197e-05
9.0414e-12
5.76197e-05
1.05236e-11
5.76197e-05
1.13105e-11
5.76197e-05
1.09079e-11
5.76197e-05
9.91082e-12
5.76197e-05
9.42438e-12
5.76197e-05
9.87622e-12
5.76197e-05
1.05163e-11
5.76197e-05
1.00704e-11
5.76197e-05
7.76483e-12
5.76197e-05
4.0641e-12
5.76197e-05
5.20815e-13
5.76197e-05
-2.00337e-12
5.76197e-05
-3.86788e-12
5.76197e-05
-5.8675e-12
5.76197e-05
-7.83051e-12
5.76197e-05
-8.76155e-12
5.76197e-05
-8.01738e-12
5.76197e-05
-6.12353e-12
5.76197e-05
-4.2578e-12
5.76197e-05
-3.25379e-12
5.76197e-05
-3.13017e-12
5.76197e-05
-3.16573e-12
5.76197e-05
-2.51275e-12
5.76197e-05
-1.25247e-12
5.76197e-05
-4.39416e-13
5.76197e-05
-7.75898e-13
5.76197e-05
-1.74701e-12
5.76197e-05
-2.33841e-12
5.76197e-05
-2.35228e-12
5.76197e-05
-2.24409e-12
5.76197e-05
-2.40322e-12
5.76197e-05
-2.81871e-12
5.76197e-05
-3.1367e-12
5.76197e-05
-2.99368e-12
5.76197e-05
-2.37849e-12
5.76197e-05
-2.03688e-12
5.76197e-05
-2.54627e-12
5.76197e-05
-3.6839e-12
5.76197e-05
-4.56988e-12
5.76197e-05
-4.44931e-12
5.76197e-05
-3.62552e-12
5.76197e-05
-3.08113e-12
5.76197e-05
-3.07947e-12
5.76197e-05
-3.33716e-12
5.76197e-05
-3.70773e-12
5.76197e-05
-4.27556e-12
5.76197e-05
-4.85273e-12
5.76197e-05
-5.1682e-12
5.76197e-05
-5.1863e-12
5.76197e-05
-4.74135e-12
5.76197e-05
-3.50902e-12
5.76197e-05
-1.94015e-12
5.76197e-05
-1.22826e-12
5.76197e-05
-1.50129e-12
5.76197e-05
-2.15198e-12
5.76197e-05
-2.8746e-12
5.76197e-05
-3.51885e-12
5.76197e-05
-4.00006e-12
5.76197e-05
-4.18979e-12
5.76197e-05
-3.80633e-12
5.76197e-05
-2.90728e-12
5.76197e-05
-1.66375e-12
5.76197e-05
-1.66762e-13
5.76197e-05
1.2664e-12
5.76197e-05
2.54396e-12
5.76197e-05
3.46653e-12
5.76197e-05
3.98615e-12
5.76197e-05
4.8309e-12
5.76197e-05
5.82143e-12
5.76197e-05
6.25964e-12
5.76197e-05
6.32286e-12
5.76197e-05
6.15042e-12
5.76197e-05
5.55002e-12
5.76197e-05
5.04928e-12
5.76197e-05
5.03202e-12
5.76197e-05
5.28413e-12
5.76197e-05
5.53157e-12
5.76197e-05
5.33289e-12
5.76197e-05
5.11586e-12
5.76197e-05
5.28758e-12
5.76197e-05
5.3972e-12
5.76197e-05
5.39968e-12
5.76197e-05
5.27641e-12
5.76197e-05
4.9371e-12
5.76197e-05
5.71168e-12
5.76197e-05
8.10258e-12
5.76197e-05
1.06704e-11
5.76197e-05
1.25315e-11
5.76197e-05
1.44755e-11
5.76197e-05
1.52595e-11
1.32727e-11
6.36031e-05
5.651e-12
6.36031e-05
4.58681e-12
6.36031e-05
5.00623e-12
6.36031e-05
8.66587e-12
6.36031e-05
1.27934e-11
6.3603e-05
1.73376e-11
6.3603e-05
1.92892e-11
6.3603e-05
1.83661e-11
6.3603e-05
1.72622e-11
6.3603e-05
1.7061e-11
6.3603e-05
1.62793e-11
6.3603e-05
1.37512e-11
6.3603e-05
9.86001e-12
6.3603e-05
6.55024e-12
6.3603e-05
5.78716e-12
6.3603e-05
6.88375e-12
6.3603e-05
7.55086e-12
6.3603e-05
6.87954e-12
6.3603e-05
5.89793e-12
6.3603e-05
5.38862e-12
6.3603e-05
5.08902e-12
6.3603e-05
4.72967e-12
6.3603e-05
3.83036e-12
6.3603e-05
2.00711e-12
6.3603e-05
-1.40379e-14
6.3603e-05
-1.27952e-12
6.3603e-05
-1.64439e-12
6.3603e-05
-1.54436e-12
6.3603e-05
-2.02661e-12
6.3603e-05
-3.34602e-12
6.3603e-05
-4.27502e-12
6.3603e-05
-4.04429e-12
6.3603e-05
-3.03005e-12
6.3603e-05
-1.97125e-12
6.3603e-05
-1.58612e-12
6.3603e-05
-1.7336e-12
6.3603e-05
-1.962e-12
6.3603e-05
-2.3664e-12
6.3603e-05
-2.81579e-12
6.3603e-05
-3.68993e-12
6.3603e-05
-5.31874e-12
6.3603e-05
-6.80089e-12
6.3603e-05
-7.05482e-12
6.3603e-05
-5.96166e-12
6.3603e-05
-4.32137e-12
6.36029e-05
-3.25024e-12
6.36029e-05
-2.81916e-12
6.36029e-05
-2.10658e-12
6.36029e-05
-6.17401e-13
6.36029e-05
1.39592e-12
6.36029e-05
3.07404e-12
6.36029e-05
3.66801e-12
6.36029e-05
3.39168e-12
6.36029e-05
3.24445e-12
6.36029e-05
3.96081e-12
6.36029e-05
5.4179e-12
6.36029e-05
6.64049e-12
6.36029e-05
7.07252e-12
6.36029e-05
7.40296e-12
6.36029e-05
8.46197e-12
6.36029e-05
1.00803e-11
6.36029e-05
1.14611e-11
6.36029e-05
1.18648e-11
6.36029e-05
1.12335e-11
6.36029e-05
1.00561e-11
6.36029e-05
8.77754e-12
6.36029e-05
7.40856e-12
6.36029e-05
5.4497e-12
6.36029e-05
2.4594e-12
6.36029e-05
-9.92306e-13
6.36029e-05
-3.60855e-12
6.36029e-05
-4.58608e-12
6.36029e-05
-4.66212e-12
6.36029e-05
-4.91361e-12
6.36029e-05
-5.73663e-12
6.36029e-05
-6.61951e-12
6.36029e-05
-6.88222e-12
6.3603e-05
-6.26966e-12
6.3603e-05
-5.10969e-12
6.3603e-05
-4.11183e-12
6.3603e-05
-3.81922e-12
6.3603e-05
-3.91297e-12
6.3603e-05
-3.63899e-12
6.3603e-05
-2.95808e-12
6.3603e-05
-2.58564e-12
6.3603e-05
-2.93137e-12
6.3603e-05
-3.43623e-12
6.3603e-05
-3.40393e-12
6.3603e-05
-2.63688e-12
6.3603e-05
-1.55991e-12
6.3603e-05
-7.05945e-13
6.3603e-05
-5.35255e-13
6.3603e-05
-1.17218e-12
6.3603e-05
-2.0356e-12
6.3603e-05
-2.48908e-12
6.3603e-05
-2.49569e-12
6.3603e-05
-2.4453e-12
6.3603e-05
-2.60146e-12
6.3603e-05
-2.77488e-12
6.3603e-05
-2.73834e-12
6.3603e-05
-2.85204e-12
6.3603e-05
-3.43808e-12
6.3603e-05
-4.27661e-12
6.3603e-05
-5.02112e-12
6.3603e-05
-5.44718e-12
6.3603e-05
-5.28523e-12
6.3603e-05
-4.40562e-12
6.3603e-05
-3.12232e-12
6.3603e-05
-2.27351e-12
6.3603e-05
-2.20777e-12
6.3603e-05
-2.43207e-12
6.3603e-05
-3.02421e-12
6.3603e-05
-4.19454e-12
6.3603e-05
-5.41891e-12
6.3603e-05
-6.04501e-12
6.3603e-05
-5.79253e-12
6.3603e-05
-4.79215e-12
6.3603e-05
-3.2331e-12
6.3603e-05
-1.28234e-12
6.3603e-05
3.81718e-13
6.3603e-05
1.24306e-12
6.3603e-05
1.92755e-12
6.3603e-05
2.64236e-12
6.3603e-05
3.44104e-12
6.3603e-05
4.23732e-12
6.3603e-05
4.57465e-12
6.3603e-05
4.7521e-12
6.3603e-05
5.08891e-12
6.3603e-05
5.08528e-12
6.3603e-05
4.86369e-12
6.3603e-05
4.96819e-12
6.3603e-05
5.32836e-12
6.3603e-05
5.62225e-12
6.3603e-05
5.46842e-12
6.3603e-05
4.99031e-12
6.3603e-05
4.57549e-12
6.3603e-05
3.95257e-12
6.3603e-05
3.07971e-12
6.3603e-05
2.779e-12
6.3603e-05
2.50303e-12
6.3603e-05
1.97917e-12
6.3603e-05
2.08637e-12
6.3603e-05
3.05692e-12
6.3603e-05
4.63405e-12
6.3603e-05
6.37009e-12
6.3603e-05
8.02332e-12
6.3603e-05
9.78044e-12
6.3603e-05
1.15059e-11
6.3603e-05
1.08931e-11
9.6409e-12
6.71852e-05
1.51323e-11
6.71852e-05
1.89983e-11
6.71851e-05
2.47076e-11
6.71851e-05
3.10135e-11
6.71851e-05
3.45584e-11
6.71851e-05
3.48776e-11
6.7185e-05
3.52324e-11
6.7185e-05
3.34103e-11
6.7185e-05
3.01961e-11
6.7185e-05
2.57338e-11
6.7185e-05
2.1572e-11
6.7185e-05
1.82892e-11
6.7185e-05
1.59713e-11
6.7185e-05
1.44921e-11
6.7185e-05
1.33274e-11
6.7185e-05
1.24905e-11
6.7185e-05
1.21242e-11
6.7185e-05
1.15632e-11
6.7185e-05
1.03933e-11
6.7185e-05
9.00239e-12
6.7185e-05
7.40768e-12
6.7185e-05
5.74394e-12
6.7185e-05
4.39861e-12
6.7185e-05
3.50453e-12
6.7185e-05
3.10553e-12
6.7185e-05
2.74177e-12
6.7185e-05
1.94035e-12
6.7185e-05
9.69922e-13
6.7185e-05
8.01197e-14
6.7185e-05
-1.22086e-12
6.7185e-05
-2.84574e-12
6.7185e-05
-4.33417e-12
6.7185e-05
-5.21259e-12
6.7185e-05
-5.33212e-12
6.7185e-05
-5.42816e-12
6.7185e-05
-6.00283e-12
6.7185e-05
-6.80429e-12
6.7185e-05
-7.68249e-12
6.7185e-05
-8.00955e-12
6.7185e-05
-7.3904e-12
6.7185e-05
-6.47891e-12
6.7185e-05
-5.81817e-12
6.7185e-05
-5.25879e-12
6.7185e-05
-4.22661e-12
6.7185e-05
-2.28607e-12
6.7185e-05
8.96697e-16
6.7185e-05
1.61217e-12
6.7185e-05
2.1967e-12
6.7185e-05
1.83623e-12
6.71849e-05
1.3016e-12
6.71849e-05
1.26278e-12
6.71849e-05
1.67739e-12
6.71849e-05
1.93759e-12
6.71849e-05
1.8271e-12
6.71849e-05
1.87009e-12
6.71849e-05
2.72875e-12
6.71849e-05
4.24752e-12
6.71849e-05
5.41233e-12
6.71849e-05
5.75558e-12
6.7185e-05
5.76926e-12
6.7185e-05
6.09018e-12
6.71849e-05
6.87177e-12
6.7185e-05
7.63692e-12
6.7185e-05
7.68645e-12
6.71849e-05
6.74165e-12
6.71849e-05
5.06762e-12
6.71849e-05
3.38665e-12
6.71849e-05
2.30157e-12
6.71849e-05
1.61496e-12
6.7185e-05
7.25622e-13
6.7185e-05
-5.47883e-13
6.7185e-05
-1.39849e-12
6.7185e-05
-1.6514e-12
6.7185e-05
-1.73136e-12
6.7185e-05
-2.31913e-12
6.7185e-05
-3.63088e-12
6.7185e-05
-5.30849e-12
6.7185e-05
-6.64992e-12
6.7185e-05
-6.99211e-12
6.7185e-05
-6.26728e-12
6.7185e-05
-5.25188e-12
6.7185e-05
-4.76635e-12
6.7185e-05
-4.7407e-12
6.7185e-05
-4.53978e-12
6.7185e-05
-4.08173e-12
6.7185e-05
-3.72068e-12
6.7185e-05
-3.74308e-12
6.7185e-05
-3.72677e-12
6.7185e-05
-3.18733e-12
6.7185e-05
-2.20592e-12
6.7185e-05
-1.23876e-12
6.7185e-05
-8.01465e-13
6.7185e-05
-1.35357e-12
6.7185e-05
-2.65056e-12
6.7185e-05
-3.77884e-12
6.7185e-05
-4.05089e-12
6.7185e-05
-3.48049e-12
6.7185e-05
-2.61264e-12
6.7185e-05
-1.92953e-12
6.7185e-05
-1.46902e-12
6.7185e-05
-1.34649e-12
6.7185e-05
-1.80229e-12
6.7185e-05
-2.76692e-12
6.7185e-05
-3.79641e-12
6.7185e-05
-4.4519e-12
6.7185e-05
-4.60941e-12
6.7185e-05
-4.33863e-12
6.7185e-05
-3.66166e-12
6.7185e-05
-3.1457e-12
6.7185e-05
-3.57868e-12
6.7185e-05
-4.68524e-12
6.7185e-05
-5.70502e-12
6.7185e-05
-6.41607e-12
6.7185e-05
-6.7708e-12
6.7185e-05
-6.48845e-12
6.7185e-05
-5.40614e-12
6.7185e-05
-3.849e-12
6.7185e-05
-2.16386e-12
6.7185e-05
-1.96983e-13
6.7185e-05
1.63169e-12
6.7185e-05
2.66859e-12
6.7185e-05
3.12125e-12
6.7185e-05
3.54609e-12
6.7185e-05
4.10958e-12
6.7185e-05
5.03859e-12
6.7185e-05
5.94779e-12
6.7185e-05
6.39525e-12
6.7185e-05
6.73788e-12
6.7185e-05
7.15432e-12
6.7185e-05
7.63089e-12
6.7185e-05
8.02934e-12
6.7185e-05
8.05652e-12
6.7185e-05
7.80468e-12
6.7185e-05
7.06461e-12
6.7185e-05
5.88814e-12
6.7185e-05
4.8841e-12
6.7185e-05
3.83202e-12
6.7185e-05
2.45123e-12
6.7185e-05
1.96829e-12
6.7185e-05
2.31035e-12
6.7185e-05
2.19722e-12
6.7185e-05
2.07875e-12
6.7185e-05
2.24902e-12
6.7185e-05
3.12503e-12
6.7185e-05
3.465e-12
6.7185e-05
4.1951e-12
6.7185e-05
4.78587e-12
6.7185e-05
5.41084e-12
6.7185e-05
4.60761e-12
2.26263e-12
6.83778e-05
2.93557e-11
6.83778e-05
3.81166e-11
6.83778e-05
4.46178e-11
6.83778e-05
5.01531e-11
6.83778e-05
5.21054e-11
6.83777e-05
5.25621e-11
6.83777e-05
5.21671e-11
6.83777e-05
4.82597e-11
6.83777e-05
4.39e-11
6.83777e-05
3.8826e-11
6.83777e-05
3.36149e-11
6.83777e-05
2.92792e-11
6.83777e-05
2.58163e-11
6.83777e-05
2.2706e-11
6.83777e-05
1.9228e-11
6.83777e-05
1.58235e-11
6.83777e-05
1.3443e-11
6.83777e-05
1.19064e-11
6.83777e-05
1.0761e-11
6.83777e-05
1.02042e-11
6.83777e-05
9.35623e-12
6.83777e-05
7.63561e-12
6.83777e-05
5.74177e-12
6.83777e-05
4.48837e-12
6.83777e-05
3.73179e-12
6.83777e-05
2.82181e-12
6.83777e-05
1.33733e-12
6.83777e-05
-1.84132e-13
6.83777e-05
-1.14209e-12
6.83777e-05
-1.76419e-12
6.83777e-05
-2.33181e-12
6.83777e-05
-3.22053e-12
6.83777e-05
-4.52196e-12
6.83777e-05
-5.80399e-12
6.83777e-05
-6.74988e-12
6.83777e-05
-7.41357e-12
6.83777e-05
-7.71274e-12
6.83777e-05
-7.82329e-12
6.83777e-05
-7.3907e-12
6.83777e-05
-5.77791e-12
6.83777e-05
-3.23561e-12
6.83777e-05
-8.92664e-13
6.83777e-05
3.15379e-13
6.83777e-05
3.03726e-13
6.83777e-05
-6.58492e-15
6.83777e-05
-2.5334e-14
6.83777e-05
5.24145e-14
6.83777e-05
7.3469e-16
6.83777e-05
-4.00626e-13
6.83777e-05
-1.25434e-12
6.83777e-05
-1.98676e-12
6.83777e-05
-2.0382e-12
6.83777e-05
-1.42905e-12
6.83777e-05
-7.04186e-13
6.83777e-05
-1.72888e-13
6.83777e-05
3.68578e-13
6.83777e-05
1.39521e-12
6.83777e-05
2.61118e-12
6.83777e-05
3.30766e-12
6.83777e-05
3.20196e-12
6.83777e-05
2.58098e-12
6.83777e-05
2.01889e-12
6.83777e-05
1.92926e-12
6.83777e-05
2.23424e-12
6.83777e-05
2.51891e-12
6.83777e-05
2.33129e-12
6.83777e-05
1.68225e-12
6.83777e-05
1.25457e-12
6.83777e-05
1.53068e-12
6.83777e-05
1.98185e-12
6.83777e-05
1.77503e-12
6.83777e-05
8.39794e-13
6.83777e-05
-5.34234e-13
6.83777e-05
-1.89881e-12
6.83777e-05
-3.18595e-12
6.83777e-05
-4.42555e-12
6.83777e-05
-5.67321e-12
6.83777e-05
-6.97036e-12
6.83777e-05
-8.07226e-12
6.83777e-05
-8.41394e-12
6.83777e-05
-7.81319e-12
6.83777e-05
-6.85113e-12
6.83777e-05
-6.15095e-12
6.83777e-05
-5.68202e-12
6.83777e-05
-5.04552e-12
6.83777e-05
-4.07575e-12
6.83777e-05
-3.08702e-12
6.83777e-05
-2.20479e-12
6.83777e-05
-1.3762e-12
6.83777e-05
-6.18993e-13
6.83777e-05
1.05899e-14
6.83777e-05
5.77556e-13
6.83777e-05
8.39403e-13
6.83777e-05
4.77855e-13
6.83777e-05
-2.6644e-13
6.83777e-05
-8.39046e-13
6.83777e-05
-9.19458e-13
6.83777e-05
-6.31528e-13
6.83777e-05
-2.67252e-13
6.83777e-05
8.64642e-14
6.83777e-05
4.45325e-13
6.83777e-05
6.6582e-13
6.83777e-05
5.07214e-13
6.83777e-05
-1.59829e-13
6.83777e-05
-9.58582e-13
6.83777e-05
-1.60609e-12
6.83777e-05
-2.41001e-12
6.83777e-05
-3.31877e-12
6.83777e-05
-4.06031e-12
6.83777e-05
-4.95686e-12
6.83777e-05
-6.07853e-12
6.83777e-05
-6.69352e-12
6.83777e-05
-6.32039e-12
6.83777e-05
-5.29432e-12
6.83777e-05
-3.96859e-12
6.83777e-05
-2.29136e-12
6.83777e-05
-5.91829e-13
6.83777e-05
3.1713e-13
6.83777e-05
5.77223e-13
6.83777e-05
8.45241e-13
6.83777e-05
1.19739e-12
6.83777e-05
1.74108e-12
6.83777e-05
2.78554e-12
6.83777e-05
3.84967e-12
6.83777e-05
4.99446e-12
6.83777e-05
6.36294e-12
6.83777e-05
7.45267e-12
6.83777e-05
7.95515e-12
6.83777e-05
8.04523e-12
6.83777e-05
8.09586e-12
6.83777e-05
8.07035e-12
6.83777e-05
7.50687e-12
6.83777e-05
6.54207e-12
6.83777e-05
5.23384e-12
6.83777e-05
3.32914e-12
6.83777e-05
1.83474e-12
6.83777e-05
1.37849e-12
6.83777e-05
7.53178e-13
6.83777e-05
1.64054e-14
6.83777e-05
1.80319e-13
6.83777e-05
2.32942e-13
6.83777e-05
-5.85232e-14
6.83777e-05
-4.95354e-13
6.83777e-05
-3.18867e-14
6.83777e-05
7.15703e-13
6.83777e-05
1.1597e-12
6.83777e-05
1.079e-12
6.83777e-05
1.76175e-13
6.83777e-05
-9.09268e-13
-2.96615e-12
6.71852e-05
4.25926e-11
6.71852e-05
5.05844e-11
6.71852e-05
5.92722e-11
6.71852e-05
6.65367e-11
6.71852e-05