/*--------------------------------*- C++ -*----------------------------------*\
| =========                 |                                                 |
| \\      /  F ield         | OpenFOAM: The Open Source CFD Toolbox           |
|  \\    /   O peration     | Version:  2406                                  |
|   \\  /    A nd           | Website:  www.openfoam.com                      |
|    \\/     M anipulation  |                                                 |
\*---------------------------------------------------------------------------*/
FoamFile
{
    version     2.0;
    format      ascii;
    arch        "LSB;label=32;scalar=64";
    class       volVectorField;
    location    "0.3";
    object      U;
}
// * * * * * * * * * * * * * * * * * * * * * * * * * * * * * * * * * * * * * //

dimensions      [0 1 -1 0 0 0 0];

internalField   nonuniform List<vector> 
2250
(
(0.137941 -1.1819e-07 0)
(0.137941 -1.39477e-07 0)
(0.137941 -8.51703e-08 0)
(0.137941 -2.40397e-08 0)
(0.137942 -6.19874e-08 0)
(0.137942 -9.70163e-08 0)
(0.137942 -3.29337e-08 0)
(0.137942 1.07216e-08 0)
(0.137942 -2.20685e-08 0)
(0.137942 -2.81676e-08 0)
(0.137942 -7.13313e-09 0)
(0.137942 2.33185e-08 0)
(0.137942 2.99628e-08 0)
(0.137942 6.44706e-09 0)
(0.137942 -2.15385e-08 0)
(0.137942 -3.37031e-08 0)
(0.137942 -2.20688e-08 0)
(0.137942 -6.34356e-09 0)
(0.137942 -5.50713e-10 0)
(0.137942 7.33153e-09 0)
(0.137942 2.69015e-08 0)
(0.137942 4.0649e-08 0)
(0.137942 2.95668e-08 0)
(0.137942 2.67711e-09 0)
(0.137942 -1.75911e-08 0)
(0.137942 -2.17497e-08 0)
(0.137942 -1.64787e-08 0)
(0.137942 -1.29627e-08 0)
(0.137942 -1.56805e-08 0)
(0.137942 -2.15598e-08 0)
(0.137942 -2.11903e-08 0)
(0.137942 -9.12568e-09 0)
(0.137942 1.91134e-09 0)
(0.137942 -3.11275e-09 0)
(0.137942 -1.68855e-08 0)
(0.137942 -1.91424e-08 0)
(0.137942 -3.17717e-09 0)
(0.137942 1.662e-08 0)
(0.137942 2.0286e-08 0)
(0.137942 5.00274e-09 0)
(0.137942 -1.49645e-08 0)
(0.137942 -2.4213e-08 0)
(0.137942 -1.69274e-08 0)
(0.137942 -4.13625e-09 0)
(0.137942 -2.38269e-09 0)
(0.137942 -1.39833e-08 0)
(0.137942 -2.41576e-08 0)
(0.137942 -1.7278e-08 0)
(0.137942 5.5757e-09 0)
(0.137942 2.51546e-08 0)
(0.137942 2.61332e-08 0)
(0.137942 1.46108e-08 0)
(0.137942 6.74251e-09 0)
(0.137942 1.06091e-08 0)
(0.137942 1.95646e-08 0)
(0.137942 2.05269e-08 0)
(0.137942 1.01471e-08 0)
(0.137942 -1.10236e-09 0)
(0.137942 4.52514e-10 0)
(0.137942 1.77172e-08 0)
(0.137942 3.56749e-08 0)
(0.137942 3.50761e-08 0)
(0.137942 1.56114e-08 0)
(0.137942 -3.81125e-09 0)
(0.137942 -6.23184e-09 0)
(0.137942 6.61179e-09 0)
(0.137942 1.85153e-08 0)
(0.137942 1.72073e-08 0)
(0.137942 5.62015e-09 0)
(0.137942 -3.83369e-09 0)
(0.137942 -2.1683e-09 0)
(0.137942 6.73131e-09 0)
(0.137942 9.38492e-09 0)
(0.137942 -1.38268e-09 0)
(0.137942 -1.59459e-08 0)
(0.137942 -1.83393e-08 0)
(0.137942 -5.20537e-09 0)
(0.137942 1.00739e-08 0)
(0.137942 1.31361e-08 0)
(0.137942 4.59747e-09 0)
(0.137942 -2.69214e-09 0)
(0.137942 1.28441e-10 0)
(0.137942 1.01044e-08 0)
(0.137942 1.62306e-08 0)
(0.137942 1.09132e-08 0)
(0.137942 -2.37657e-09 0)
(0.137942 -1.06614e-08 0)
(0.137942 -5.67895e-09 0)
(0.137942 5.25627e-09 0)
(0.137942 7.46569e-09 0)
(0.137942 -3.2906e-09 0)
(0.137942 -1.69384e-08 0)
(0.137942 -2.1992e-08 0)
(0.137942 -1.84927e-08 0)
(0.137942 -1.43101e-08 0)
(0.137942 -1.51021e-08 0)
(0.137942 -2.03178e-08 0)
(0.137942 -2.52186e-08 0)
(0.137942 -2.50214e-08 0)
(0.137942 -1.77091e-08 0)
(0.137942 -8.11088e-09 0)
(0.137942 -3.95277e-09 0)
(0.137942 -4.17435e-09 0)
(0.137942 6.06465e-10 0)
(0.137942 1.23602e-08 0)
(0.137942 2.24295e-08 0)
(0.137942 2.40622e-08 0)
(0.137942 1.78556e-08 0)
(0.137942 7.98858e-09 0)
(0.137942 -8.12368e-11 0)
(0.137942 -1.85422e-09 0)
(0.137942 1.63186e-09 0)
(0.137942 3.16366e-09 0)
(0.137942 -7.97805e-10 0)
(0.137942 -5.304e-09 0)
(0.137942 -5.71946e-09 0)
(0.137942 -1.91821e-09 0)
(0.137942 6.09579e-10 0)
(0.137942 -3.96933e-09 0)
(0.137942 -1.14563e-08 0)
(0.137942 -1.33253e-08 0)
(0.137942 -9.99941e-09 0)
(0.137942 -6.75094e-09 0)
(0.137942 -4.77971e-09 0)
(0.137942 -3.41758e-09 0)
(0.137942 -1.93299e-09 0)
(0.137942 1.98134e-09 0)
(0.137942 1.11536e-08 0)
(0.137942 1.98287e-08 0)
(0.137942 1.90303e-08 0)
(0.137942 1.44554e-08 0)
(0.137942 1.60801e-08 0)
(0.137942 2.074e-08 0)
(0.137942 2.42495e-08 0)
(0.137942 2.6953e-08 0)
(0.137942 2.66283e-08 0)
(0.137942 2.42056e-08 0)
(0.137942 2.32939e-08 0)
(0.137942 2.48813e-08 0)
(0.137942 2.84012e-08 0)
(0.137942 3.14649e-08 0)
(0.137942 3.35478e-08 0)
(0.137942 3.40172e-08 0)
(0.137942 2.77139e-08 0)
(0.137942 2.03904e-08 0)
(0.137942 2.13734e-08 0)
(0.137942 2.5309e-08 0)
(0.137942 3.09693e-08 0)
(0.137942 3.69579e-08 0)
(0.137942 4.43849e-08 0)
(0.37556 -2.71341e-07 0)
(0.37556 -3.56159e-07 0)
(0.37556 -3.86651e-07 0)
(0.37556 -2.77383e-07 0)
(0.37556 -2.19565e-07 0)
(0.375561 -2.1381e-07 0)
(0.375561 -1.67392e-07 0)
(0.375561 -9.27825e-08 0)
(0.375561 -1.22337e-07 0)
(0.375561 -8.73109e-08 0)
(0.375561 -2.52865e-08 0)
(0.375561 1.56844e-08 0)
(0.375561 1.08584e-08 0)
(0.375561 -3.88054e-08 0)
(0.375561 -7.75861e-08 0)
(0.375561 -7.59067e-08 0)
(0.375561 -3.81392e-08 0)
(0.375561 -5.58605e-09 0)
(0.375561 3.23094e-09 0)
(0.375561 1.43722e-08 0)
(0.375561 4.30435e-08 0)
(0.375561 5.98471e-08 0)
(0.375561 3.46444e-08 0)
(0.375561 -1.62873e-08 0)
(0.375561 -5.52629e-08 0)
(0.375561 -6.0681e-08 0)
(0.375561 -3.90038e-08 0)
(0.375561 -1.65974e-08 0)
(0.375561 -1.07759e-08 0)
(0.375561 -2.1009e-08 0)
(0.375561 -3.37926e-08 0)
(0.375561 -2.94171e-08 0)
(0.375561 -1.28471e-08 0)
(0.375561 -8.96089e-09 0)
(0.375561 -2.05758e-08 0)
(0.375561 -2.55406e-08 0)
(0.375561 -6.77538e-09 0)
(0.375561 2.80104e-08 0)
(0.375561 4.6935e-08 0)
(0.375561 2.90477e-08 0)
(0.375561 -1.55829e-08 0)
(0.375562 -5.991e-08 0)
(0.375562 -7.63453e-08 0)
(0.375562 -6.11243e-08 0)
(0.375562 -4.03191e-08 0)
(0.375562 -3.51088e-08 0)
(0.375562 -4.05777e-08 0)
(0.375562 -3.47644e-08 0)
(0.375562 -1.2916e-09 0)
(0.375562 4.28916e-08 0)
(0.375562 6.30238e-08 0)
(0.375562 5.01465e-08 0)
(0.375562 2.43791e-08 0)
(0.375561 1.25432e-08 0)
(0.375561 2.4977e-08 0)
(0.375561 4.62918e-08 0)
(0.375561 5.54028e-08 0)
(0.375561 4.82922e-08 0)
(0.375561 3.95636e-08 0)
(0.375561 4.93013e-08 0)
(0.375561 7.60216e-08 0)
(0.375561 9.17019e-08 0)
(0.375561 7.7372e-08 0)
(0.375561 4.69892e-08 0)
(0.375561 2.99376e-08 0)
(0.375561 4.04673e-08 0)
(0.375561 6.27446e-08 0)
(0.375561 6.96938e-08 0)
(0.375561 5.04804e-08 0)
(0.375561 1.7617e-08 0)
(0.375561 -5.05275e-09 0)
(0.375561 -4.5191e-09 0)
(0.375561 5.63699e-09 0)
(0.375561 1.35314e-09 0)
(0.375561 -2.18959e-08 0)
(0.375561 -4.37915e-08 0)
(0.375561 -4.45844e-08 0)
(0.375561 -2.78069e-08 0)
(0.375561 -1.43658e-08 0)
(0.375561 -1.62295e-08 0)
(0.375561 -2.44936e-08 0)
(0.375561 -2.28931e-08 0)
(0.375561 -5.53001e-09 0)
(0.375561 1.71498e-08 0)
(0.375561 2.68634e-08 0)
(0.375561 1.35693e-08 0)
(0.375561 -1.09439e-08 0)
(0.375561 -2.41614e-08 0)
(0.375561 -1.96083e-08 0)
(0.375561 -1.29336e-08 0)
(0.375561 -2.14111e-08 0)
(0.375561 -4.30863e-08 0)
(0.375561 -6.15513e-08 0)
(0.375561 -6.67671e-08 0)
(0.375561 -6.2861e-08 0)
(0.375561 -5.99977e-08 0)
(0.375561 -6.42691e-08 0)
(0.375561 -7.23963e-08 0)
(0.375561 -7.5159e-08 0)
(0.375561 -6.27471e-08 0)
(0.375561 -3.6314e-08 0)
(0.375561 -1.26183e-08 0)
(0.375561 -4.08706e-09 0)
(0.375561 -1.10247e-09 0)
(0.375561 6.80664e-09 0)
(0.375561 1.56141e-08 0)
(0.375561 1.8504e-08 0)
(0.375561 1.49466e-08 0)
(0.375561 6.13952e-09 0)
(0.375561 -3.93831e-09 0)
(0.375561 -6.73404e-09 0)
(0.375561 1.21043e-09 0)
(0.375561 8.91057e-09 0)
(0.375561 5.18427e-09 0)
(0.375561 -5.78941e-09 0)
(0.375561 -1.67365e-08 0)
(0.375561 -2.11311e-08 0)
(0.375561 -1.648e-08 0)
(0.375561 -1.39374e-08 0)
(0.375561 -1.9078e-08 0)
(0.375561 -2.17301e-08 0)
(0.375561 -1.89532e-08 0)
(0.375562 -1.67574e-08 0)
(0.375562 -1.59291e-08 0)
(0.375562 -1.33056e-08 0)
(0.375562 -9.56917e-09 0)
(0.375562 -6.66572e-09 0)
(0.375562 4.43099e-09 0)
(0.375562 2.78196e-08 0)
(0.375562 4.48496e-08 0)
(0.375562 5.10383e-08 0)
(0.375562 6.05115e-08 0)
(0.375562 6.85067e-08 0)
(0.375562 6.95325e-08 0)
(0.375562 7.21575e-08 0)
(0.375562 7.32604e-08 0)
(0.375561 6.80034e-08 0)
(0.375561 6.27973e-08 0)
(0.375561 6.34617e-08 0)
(0.375561 7.23669e-08 0)
(0.375561 8.36109e-08 0)
(0.375561 9.15235e-08 0)
(0.375561 9.83081e-08 0)
(0.375561 9.3311e-08 0)
(0.375561 8.2314e-08 0)
(0.375561 8.99484e-08 0)
(0.375561 1.06205e-07 0)
(0.375561 1.28587e-07 0)
(0.375561 1.41438e-07 0)
(0.375561 1.41295e-07 0)
(0.575482 -3.16854e-07 0)
(0.575482 -4.66939e-07 0)
(0.575482 -5.28078e-07 0)
(0.575483 -5.29332e-07 0)
(0.575483 -3.85291e-07 0)
(0.575483 -3.37835e-07 0)
(0.575483 -3.1275e-07 0)
(0.575483 -2.45091e-07 0)
(0.575483 -1.77862e-07 0)
(0.575483 -9.94288e-08 0)
(0.575483 -3.4986e-08 0)
(0.575483 -2.59799e-08 0)
(0.575483 -5.89708e-08 0)
(0.575483 -8.39773e-08 0)
(0.575483 -8.40037e-08 0)
(0.575483 -5.62324e-08 0)
(0.575483 -1.20683e-08 0)
(0.575483 1.77264e-08 0)
(0.575483 2.29255e-08 0)
(0.575483 1.92938e-08 0)
(0.575483 1.77169e-08 0)
(0.575483 1.0728e-08 0)
(0.575483 -9.68444e-09 0)
(0.575483 -3.7343e-08 0)
(0.575483 -6.22461e-08 0)
(0.575483 -7.42762e-08 0)
(0.575483 -6.43205e-08 0)
(0.575483 -4.01034e-08 0)
(0.575483 -1.80635e-08 0)
(0.575483 -9.4481e-09 0)
(0.575483 -2.23248e-08 0)
(0.575483 -4.43372e-08 0)
(0.575483 -4.97571e-08 0)
(0.575483 -3.44684e-08 0)
(0.575483 -1.41229e-08 0)
(0.575483 -1.98058e-09 0)
(0.575483 1.6587e-09 0)
(0.575483 5.78014e-09 0)
(0.575483 8.83418e-09 0)
(0.575483 -1.46892e-09 0)
(0.575483 -3.01655e-08 0)
(0.575483 -7.38386e-08 0)
(0.575483 -1.15102e-07 0)
(0.575483 -1.25496e-07 0)
(0.575483 -9.99107e-08 0)
(0.575483 -6.11871e-08 0)
(0.575483 -3.52234e-08 0)
(0.575483 -2.94661e-08 0)
(0.575483 -2.2963e-08 0)
(0.575483 3.7646e-09 0)
(0.575483 3.92282e-08 0)
(0.575483 5.99027e-08 0)
(0.575483 5.60559e-08 0)
(0.575483 3.81367e-08 0)
(0.575483 3.10457e-08 0)
(0.575483 4.98273e-08 0)
(0.575483 8.38647e-08 0)
(0.575483 1.08616e-07 0)
(0.575483 1.07314e-07 0)
(0.575483 9.08018e-08 0)
(0.575483 8.693e-08 0)
(0.575483 1.03094e-07 0)
(0.575483 1.1944e-07 0)
(0.575483 1.17107e-07 0)
(0.575483 9.76368e-08 0)
(0.575483 7.894e-08 0)
(0.575483 7.39773e-08 0)
(0.575483 7.73304e-08 0)
(0.575483 7.20606e-08 0)
(0.575483 4.50461e-08 0)
(0.575483 1.90771e-09 0)
(0.575483 -3.2486e-08 0)
(0.575483 -3.9928e-08 0)
(0.575483 -3.08885e-08 0)
(0.575483 -3.08967e-08 0)
(0.575483 -4.8877e-08 0)
(0.575483 -6.91705e-08 0)
(0.575483 -7.06211e-08 0)
(0.575483 -5.02146e-08 0)
(0.575483 -2.26055e-08 0)
(0.575483 -4.01618e-09 0)
(0.575483 6.2601e-10 0)
(0.575483 -1.23638e-09 0)
(0.575483 2.5381e-09 0)
(0.575483 1.36579e-08 0)
(0.575483 1.81592e-08 0)
(0.575483 2.88703e-09 0)
(0.575483 -2.44529e-08 0)
(0.575483 -4.31952e-08 0)
(0.575483 -4.42791e-08 0)
(0.575483 -3.94062e-08 0)
(0.575483 -4.48581e-08 0)
(0.575483 -6.3704e-08 0)
(0.575483 -8.6323e-08 0)
(0.575483 -1.01021e-07 0)
(0.575483 -1.01952e-07 0)
(0.575483 -9.34589e-08 0)
(0.575483 -8.53251e-08 0)
(0.575483 -8.23383e-08 0)
(0.575483 -7.84046e-08 0)
(0.575483 -6.23426e-08 0)
(0.575483 -3.73394e-08 0)
(0.575483 -2.29862e-08 0)
(0.575483 -2.64213e-08 0)
(0.575483 -3.54225e-08 0)
(0.575483 -3.86951e-08 0)
(0.575483 -3.37722e-08 0)
(0.575483 -2.08435e-08 0)
(0.575483 -5.02098e-09 0)
(0.575483 3.4621e-09 0)
(0.575483 1.96299e-09 0)
(0.575483 1.32742e-09 0)
(0.575483 6.04805e-09 0)
(0.575483 5.32766e-09 0)
(0.575483 -5.8768e-09 0)
(0.575483 -2.26405e-08 0)
(0.575483 -3.85281e-08 0)
(0.575483 -4.26025e-08 0)
(0.575483 -3.39082e-08 0)
(0.575483 -2.43599e-08 0)
(0.575483 -1.82811e-08 0)
(0.575483 -1.39821e-08 0)
(0.575483 -1.26316e-08 0)
(0.575483 -1.15827e-08 0)
(0.575483 -5.18203e-09 0)
(0.575483 7.09503e-09 0)
(0.575483 1.51442e-08 0)
(0.575483 1.83542e-08 0)
(0.575483 3.50001e-08 0)
(0.575483 6.33169e-08 0)
(0.575483 8.33619e-08 0)
(0.575483 9.66764e-08 0)
(0.575483 1.06151e-07 0)
(0.575483 1.0423e-07 0)
(0.575483 9.91023e-08 0)
(0.575483 1.00503e-07 0)
(0.575483 1.03549e-07 0)
(0.575483 1.04147e-07 0)
(0.575483 1.03979e-07 0)
(0.575483 1.10327e-07 0)
(0.575483 1.23135e-07 0)
(0.575483 1.30044e-07 0)
(0.575483 1.34714e-07 0)
(0.575483 1.41096e-07 0)
(0.575483 1.4521e-07 0)
(0.575483 1.5719e-07 0)
(0.575483 1.92653e-07 0)
(0.575483 2.2522e-07 0)
(0.575483 2.46635e-07 0)
(0.575483 2.15148e-07 0)
(0.738239 -3.64967e-07 0)
(0.738238 -4.65362e-07 0)
(0.738238 -4.72483e-07 0)
(0.738238 -5.01776e-07 0)
(0.738238 -4.18282e-07 0)
(0.738238 -3.7136e-07 0)
(0.738238 -3.01403e-07 0)
(0.738238 -2.08059e-07 0)
(0.738238 -1.19772e-07 0)
(0.738238 -7.65978e-08 0)
(0.738238 -5.29398e-08 0)
(0.738238 -4.30132e-08 0)
(0.738238 -4.97419e-08 0)
(0.738238 -4.52434e-08 0)
(0.738238 -3.90133e-08 0)
(0.738238 -3.43114e-08 0)
(0.738238 -1.85218e-08 0)
(0.738238 7.85436e-09 0)
(0.738238 3.0114e-08 0)
(0.738238 3.25182e-08 0)
(0.738238 1.64653e-08 0)
(0.738238 -2.31367e-09 0)
(0.738238 -1.33333e-08 0)
(0.738238 -1.70596e-08 0)
(0.738238 -2.08965e-08 0)
(0.738238 -3.21916e-08 0)
(0.738238 -4.64838e-08 0)
(0.738238 -5.36415e-08 0)
(0.738238 -4.7012e-08 0)
(0.738238 -2.76442e-08 0)
(0.738238 -1.60241e-08 0)
(0.738238 -2.7606e-08 0)
(0.738238 -4.45896e-08 0)
(0.738238 -4.53296e-08 0)
(0.738238 -2.97162e-08 0)
(0.738238 -1.45227e-08 0)
(0.738238 -1.72927e-08 0)
(0.738238 -3.78302e-08 0)
(0.738238 -6.30564e-08 0)
(0.738238 -8.05697e-08 0)
(0.738238 -8.21791e-08 0)
(0.738238 -7.76325e-08 0)
(0.738238 -8.68955e-08 0)
(0.738238 -1.06463e-07 0)
(0.738238 -1.1408e-07 0)
(0.738238 -9.59582e-08 0)
(0.738238 -5.93219e-08 0)
(0.738238 -2.80072e-08 0)
(0.738238 -1.34282e-08 0)
(0.738238 -1.82772e-09 0)
(0.738238 1.96984e-08 0)
(0.738238 4.92778e-08 0)
(0.738238 7.43157e-08 0)
(0.738238 8.09264e-08 0)
(0.738238 7.04082e-08 0)
(0.738238 6.08243e-08 0)
(0.738238 7.10861e-08 0)
(0.738238 1.02927e-07 0)
(0.738238 1.34603e-07 0)
(0.738238 1.42291e-07 0)
(0.738238 1.30429e-07 0)
(0.738238 1.2113e-07 0)
(0.738238 1.25412e-07 0)
(0.738237 1.34237e-07 0)
(0.738237 1.31858e-07 0)
(0.738237 1.13184e-07 0)
(0.738237 8.89221e-08 0)
(0.738237 7.24968e-08 0)
(0.738237 6.71247e-08 0)
(0.738237 6.03109e-08 0)
(0.738237 3.32245e-08 0)
(0.738237 -1.47783e-08 0)
(0.738238 -6.05002e-08 0)
(0.738238 -8.12492e-08 0)
(0.738238 -7.74135e-08 0)
(0.738238 -6.69368e-08 0)
(0.738238 -6.25885e-08 0)
(0.738238 -5.96684e-08 0)
(0.738238 -4.71679e-08 0)
(0.738238 -2.27428e-08 0)
(0.738238 4.27166e-09 0)
(0.738238 1.95665e-08 0)
(0.738238 1.43774e-08 0)
(0.738238 -4.00381e-09 0)
(0.738238 -1.57691e-08 0)
(0.738238 -1.09417e-08 0)
(0.738238 -1.10844e-09 0)
(0.738238 -4.19539e-09 0)
(0.738238 -2.25316e-08 0)
(0.738238 -4.31824e-08 0)
(0.738238 -5.51312e-08 0)
(0.738238 -5.98391e-08 0)
(0.738238 -6.48713e-08 0)
(0.738238 -7.54829e-08 0)
(0.738238 -9.007e-08 0)
(0.738238 -9.92781e-08 0)
(0.738238 -9.4936e-08 0)
(0.738238 -8.05718e-08 0)
(0.738238 -6.91643e-08 0)
(0.738238 -7.11506e-08 0)
(0.738238 -7.94959e-08 0)
(0.738238 -7.91279e-08 0)
(0.738238 -7.06382e-08 0)
(0.738238 -6.44556e-08 0)
(0.738238 -6.08937e-08 0)
(0.738238 -5.53537e-08 0)
(0.738238 -4.66991e-08 0)
(0.738238 -3.56189e-08 0)
(0.738238 -2.17466e-08 0)
(0.738238 -9.54355e-09 0)
(0.738238 -8.42895e-09 0)
(0.738238 -1.52578e-08 0)
(0.738238 -1.8048e-08 0)
(0.738238 -1.73134e-08 0)
(0.738238 -2.01312e-08 0)
(0.738238 -2.74531e-08 0)
(0.738238 -3.87709e-08 0)
(0.738238 -4.79396e-08 0)
(0.738238 -4.7568e-08 0)
(0.738238 -3.96623e-08 0)
(0.738238 -2.75303e-08 0)
(0.738238 -1.27288e-08 0)
(0.738238 -2.3075e-10 0)
(0.738238 8.04314e-09 0)
(0.738238 1.45217e-08 0)
(0.738238 2.61041e-08 0)
(0.738238 4.10614e-08 0)
(0.738238 4.92953e-08 0)
(0.738238 5.85692e-08 0)
(0.738238 7.82983e-08 0)
(0.738238 9.51362e-08 0)
(0.738238 1.04696e-07 0)
(0.738238 1.13713e-07 0)
(0.738238 1.15058e-07 0)
(0.738238 1.07047e-07 0)
(0.738238 1.00711e-07 0)
(0.738238 1.0313e-07 0)
(0.738238 1.13209e-07 0)
(0.738238 1.20005e-07 0)
(0.738238 1.22383e-07 0)
(0.738238 1.2814e-07 0)
(0.738238 1.30398e-07 0)
(0.738238 1.29799e-07 0)
(0.738238 1.42654e-07 0)
(0.738238 1.61669e-07 0)
(0.738238 1.72814e-07 0)
(0.738238 2.06825e-07 0)
(0.738238 2.43649e-07 0)
(0.738238 2.67938e-07 0)
(0.738238 2.28968e-07 0)
(0.864298 -2.44187e-07 0)
(0.864297 -3.25883e-07 0)
(0.864297 -3.52169e-07 0)
(0.864297 -3.2552e-07 0)
(0.864297 -2.7652e-07 0)
(0.864296 -1.96303e-07 0)
(0.864296 -1.34112e-07 0)
(0.864296 -5.41545e-08 0)
(0.864296 -1.79392e-09 0)
(0.864296 -4.04401e-09 0)
(0.864296 -5.27092e-09 0)
(0.864296 1.48936e-08 0)
(0.864296 2.505e-08 0)
(0.864296 1.19941e-08 0)
(0.864296 -4.68409e-09 0)
(0.864295 -7.53081e-09 0)
(0.864295 -7.66147e-10 0)
(0.864296 1.23942e-08 0)
(0.864296 2.93898e-08 0)
(0.864296 4.03333e-08 0)
(0.864296 4.17713e-08 0)
(0.864296 3.8769e-08 0)
(0.864296 3.0501e-08 0)
(0.864296 1.63984e-08 0)
(0.864296 2.44714e-09 0)
(0.864296 -1.02333e-08 0)
(0.864295 -2.24822e-08 0)
(0.864295 -3.23302e-08 0)
(0.864295 -3.79898e-08 0)
(0.864295 -3.3338e-08 0)
(0.864295 -2.06361e-08 0)
(0.864295 -1.57071e-08 0)
(0.864295 -2.3226e-08 0)
(0.864295 -3.5372e-08 0)
(0.864295 -4.29594e-08 0)
(0.864295 -4.14734e-08 0)
(0.864295 -3.99909e-08 0)
(0.864295 -4.79606e-08 0)
(0.864295 -6.42115e-08 0)
(0.864295 -8.29293e-08 0)
(0.864295 -9.17033e-08 0)
(0.864295 -8.41001e-08 0)
(0.864295 -7.58838e-08 0)
(0.864295 -8.33647e-08 0)
(0.864295 -1.01909e-07 0)
(0.864295 -1.11663e-07 0)
(0.864295 -9.32665e-08 0)
(0.864295 -5.05339e-08 0)
(0.864295 -7.1524e-09 0)
(0.864295 2.3001e-08 0)
(0.864295 3.98608e-08 0)
(0.864295 5.11504e-08 0)
(0.864295 6.60213e-08 0)
(0.864295 8.34667e-08 0)
(0.864295 9.50192e-08 0)
(0.864295 9.70139e-08 0)
(0.864295 9.76788e-08 0)
(0.864295 1.12025e-07 0)
(0.864295 1.42432e-07 0)
(0.864295 1.68848e-07 0)
(0.864295 1.73264e-07 0)
(0.864295 1.59656e-07 0)
(0.864295 1.4509e-07 0)
(0.864295 1.4162e-07 0)
(0.864295 1.46029e-07 0)
(0.864295 1.45389e-07 0)
(0.864295 1.3061e-07 0)
(0.864295 1.01972e-07 0)
(0.864295 6.85765e-08 0)
(0.864295 3.99732e-08 0)
(0.864295 1.28147e-08 0)
(0.864295 -2.3971e-08 0)
(0.864295 -6.96951e-08 0)
(0.864295 -1.06428e-07 0)
(0.864295 -1.16052e-07 0)
(0.864295 -9.96362e-08 0)
(0.864295 -7.38504e-08 0)
(0.864295 -5.40607e-08 0)
(0.864295 -4.36149e-08 0)
(0.864295 -3.74063e-08 0)
(0.864295 -2.87095e-08 0)
(0.864295 -1.5384e-08 0)
(0.864295 -4.89365e-09 0)
(0.864295 -7.40051e-09 0)
(0.864295 -1.96324e-08 0)
(0.864295 -2.7536e-08 0)
(0.864295 -2.43311e-08 0)
(0.864295 -1.91843e-08 0)
(0.864295 -2.46997e-08 0)
(0.864296 -4.14842e-08 0)
(0.864296 -5.86738e-08 0)
(0.864296 -6.69221e-08 0)
(0.864296 -6.48068e-08 0)
(0.864296 -5.81515e-08 0)
(0.864296 -5.66196e-08 0)
(0.864296 -6.4563e-08 0)
(0.864296 -7.53371e-08 0)
(0.864296 -7.9007e-08 0)
(0.864296 -7.37381e-08 0)
(0.864296 -7.02963e-08 0)
(0.864296 -7.64132e-08 0)
(0.864296 -8.38587e-08 0)
(0.864296 -8.29943e-08 0)
(0.864296 -7.73047e-08 0)
(0.864296 -7.1197e-08 0)
(0.864296 -6.55956e-08 0)
(0.864296 -6.03709e-08 0)
(0.864296 -5.62165e-08 0)
(0.864296 -5.06826e-08 0)
(0.864296 -3.93073e-08 0)
(0.864296 -2.81642e-08 0)
(0.864296 -2.6909e-08 0)
(0.864296 -3.15895e-08 0)
(0.864296 -3.5898e-08 0)
(0.864296 -4.07586e-08 0)
(0.864296 -4.59562e-08 0)
(0.864296 -5.16749e-08 0)
(0.864296 -5.61306e-08 0)
(0.864296 -5.37577e-08 0)
(0.864296 -4.40438e-08 0)
(0.864296 -2.83235e-08 0)
(0.864296 -7.66478e-09 0)
(0.864296 1.3197e-08 0)
(0.864296 2.95339e-08 0)
(0.864296 3.79746e-08 0)
(0.864296 4.34496e-08 0)
(0.864296 5.65481e-08 0)
(0.864296 7.17889e-08 0)
(0.864296 8.22369e-08 0)
(0.864296 9.30386e-08 0)
(0.864296 9.96869e-08 0)
(0.864296 9.78062e-08 0)
(0.864296 9.62031e-08 0)
(0.864296 9.6044e-08 0)
(0.864296 9.41389e-08 0)
(0.864296 9.1541e-08 0)
(0.864296 8.94825e-08 0)
(0.864296 9.41016e-08 0)
(0.864296 1.01868e-07 0)
(0.864296 1.04054e-07 0)
(0.864296 1.0504e-07 0)
(0.864296 1.05027e-07 0)
(0.864296 1.01311e-07 0)
(0.864296 1.14989e-07 0)
(0.864296 1.45147e-07 0)
(0.864296 1.68343e-07 0)
(0.864296 1.93965e-07 0)
(0.864296 2.29812e-07 0)
(0.864296 2.47747e-07 0)
(0.864296 2.12013e-07 0)
(0.954047 -2.15899e-09 0)
(0.954047 -6.60299e-08 0)
(0.954047 -6.84641e-08 0)
(0.954046 -2.11471e-08 0)
(0.954046 1.0612e-08 0)
(0.954046 8.72333e-08 0)
(0.954046 1.36079e-07 0)
(0.954045 1.59373e-07 0)
(0.954045 1.57791e-07 0)
(0.954045 1.52883e-07 0)
(0.954045 1.55667e-07 0)
(0.954045 1.47517e-07 0)
(0.954045 1.11841e-07 0)
(0.954045 6.83493e-08 0)
(0.954044 5.16273e-08 0)
(0.954044 6.35098e-08 0)
(0.954044 7.45399e-08 0)
(0.954044 7.02806e-08 0)
(0.954045 6.33866e-08 0)
(0.954045 6.4281e-08 0)
(0.954045 6.86483e-08 0)
(0.954045 6.86697e-08 0)
(0.954045 5.5158e-08 0)
(0.954045 2.59303e-08 0)
(0.954044 -4.49956e-09 0)
(0.954044 -2.27664e-08 0)
(0.954044 -2.63369e-08 0)
(0.954044 -2.24811e-08 0)
(0.954044 -2.63996e-08 0)
(0.954044 -3.91794e-08 0)
(0.954044 -4.6345e-08 0)
(0.954044 -4.37007e-08 0)
(0.954044 -3.79424e-08 0)
(0.954044 -3.59469e-08 0)
(0.954044 -3.92558e-08 0)
(0.954044 -4.00845e-08 0)
(0.954044 -3.67943e-08 0)
(0.954044 -3.58694e-08 0)
(0.954044 -3.93291e-08 0)
(0.954044 -5.22745e-08 0)
(0.954044 -7.40148e-08 0)
(0.954044 -8.95301e-08 0)
(0.954044 -9.00114e-08 0)
(0.954044 -8.1962e-08 0)
(0.954044 -7.61038e-08 0)
(0.954044 -7.71401e-08 0)
(0.954044 -7.31686e-08 0)
(0.954044 -5.00012e-08 0)
(0.954044 -1.28781e-08 0)
(0.954044 2.36076e-08 0)
(0.954044 4.67856e-08 0)
(0.954044 5.20067e-08 0)
(0.954044 5.03356e-08 0)
(0.954044 5.63002e-08 0)
(0.954044 7.39503e-08 0)
(0.954044 9.56427e-08 0)
(0.954044 1.08584e-07 0)
(0.954044 1.12667e-07 0)
(0.954044 1.21407e-07 0)
(0.954044 1.39956e-07 0)
(0.954044 1.57937e-07 0)
(0.954044 1.65077e-07 0)
(0.954044 1.60446e-07 0)
(0.954044 1.52234e-07 0)
(0.954044 1.47256e-07 0)
(0.954044 1.43104e-07 0)
(0.954044 1.30523e-07 0)
(0.954044 9.97049e-08 0)
(0.954044 5.00014e-08 0)
(0.954044 -3.27236e-09 0)
(0.954044 -4.15258e-08 0)
(0.954044 -6.20038e-08 0)
(0.954044 -7.60644e-08 0)
(0.954044 -9.18483e-08 0)
(0.954044 -1.04608e-07 0)
(0.954044 -1.05672e-07 0)
(0.954044 -9.3762e-08 0)
(0.954044 -7.62217e-08 0)
(0.954044 -6.15808e-08 0)
(0.954044 -5.48399e-08 0)
(0.954044 -5.42577e-08 0)
(0.954044 -5.15485e-08 0)
(0.954044 -4.09747e-08 0)
(0.954044 -2.90571e-08 0)
(0.954044 -2.77141e-08 0)
(0.954044 -3.71123e-08 0)
(0.954044 -4.60855e-08 0)
(0.954044 -4.55182e-08 0)
(0.954044 -3.79725e-08 0)
(0.954044 -3.12438e-08 0)
(0.954044 -2.85416e-08 0)
(0.954044 -2.98932e-08 0)
(0.954044 -3.3544e-08 0)
(0.954044 -3.53318e-08 0)
(0.954044 -3.50524e-08 0)
(0.954044 -3.75702e-08 0)
(0.954044 -4.52049e-08 0)
(0.954044 -5.34407e-08 0)
(0.954044 -5.42111e-08 0)
(0.954044 -4.76374e-08 0)
(0.954044 -4.46691e-08 0)
(0.954044 -5.02283e-08 0)
(0.954044 -5.88441e-08 0)
(0.954044 -6.67098e-08 0)
(0.954044 -7.33264e-08 0)
(0.954044 -7.66862e-08 0)
(0.954044 -7.2603e-08 0)
(0.954044 -6.17599e-08 0)
(0.954045 -5.08681e-08 0)
(0.954045 -4.07971e-08 0)
(0.954044 -3.03761e-08 0)
(0.954044 -2.83636e-08 0)
(0.954044 -3.8579e-08 0)
(0.954044 -5.32802e-08 0)
(0.954044 -6.47065e-08 0)
(0.954044 -6.8574e-08 0)
(0.954044 -6.52501e-08 0)
(0.954044 -5.55138e-08 0)
(0.954044 -3.79788e-08 0)
(0.954044 -1.8111e-08 0)
(0.954044 -3.3882e-10 0)
(0.954044 1.70026e-08 0)
(0.954044 3.44315e-08 0)
(0.954044 5.12519e-08 0)
(0.954044 6.36002e-08 0)
(0.954044 6.75834e-08 0)
(0.954044 7.28704e-08 0)
(0.954044 8.24718e-08 0)
(0.954044 8.63767e-08 0)
(0.954045 8.59438e-08 0)
(0.954045 8.5536e-08 0)
(0.954045 8.32222e-08 0)
(0.954045 8.11408e-08 0)
(0.954045 7.96486e-08 0)
(0.954045 7.85463e-08 0)
(0.954045 7.81678e-08 0)
(0.954045 7.17446e-08 0)
(0.954045 6.32873e-08 0)
(0.954045 6.21574e-08 0)
(0.954045 6.04437e-08 0)
(0.954045 5.56835e-08 0)
(0.954045 5.5357e-08 0)
(0.954045 6.17668e-08 0)
(0.954045 7.90591e-08 0)
(0.954045 1.11036e-07 0)
(0.954045 1.41822e-07 0)
(0.954045 1.71038e-07 0)
(0.954045 1.98765e-07 0)
(0.954045 1.99615e-07 0)
(0.954045 1.77142e-07 0)
(1.00778 1.58445e-07 0)
(1.00778 1.79118e-07 0)
(1.00778 2.2021e-07 0)
(1.00778 2.9218e-07 0)
(1.00778 3.57349e-07 0)
(1.00778 3.93993e-07 0)
(1.00778 4.10001e-07 0)
(1.00778 3.87616e-07 0)
(1.00778 3.57252e-07 0)
(1.00778 3.2666e-07 0)
(1.00777 2.90319e-07 0)
(1.00777 2.46214e-07 0)
(1.00777 1.97175e-07 0)
(1.00777 1.5714e-07 0)
(1.00777 1.40537e-07 0)
(1.00777 1.44102e-07 0)
(1.00777 1.49446e-07 0)
(1.00777 1.42099e-07 0)
(1.00777 1.25604e-07 0)
(1.00777 1.09304e-07 0)
(1.00777 9.28106e-08 0)
(1.00777 7.51928e-08 0)
(1.00777 5.76056e-08 0)
(1.00777 3.82847e-08 0)
(1.00777 2.09586e-08 0)
(1.00777 8.98686e-09 0)
(1.00777 4.804e-10 0)
(1.00777 -4.95662e-09 0)
(1.00777 -1.44562e-08 0)
(1.00777 -3.37526e-08 0)
(1.00777 -5.40182e-08 0)
(1.00777 -6.53506e-08 0)
(1.00777 -6.49491e-08 0)
(1.00777 -5.73894e-08 0)
(1.00777 -5.44355e-08 0)
(1.00777 -5.86265e-08 0)
(1.00777 -6.52657e-08 0)
(1.00777 -7.34103e-08 0)
(1.00777 -7.78606e-08 0)
(1.00777 -7.84325e-08 0)
(1.00777 -8.34493e-08 0)
(1.00777 -9.12053e-08 0)
(1.00777 -9.09828e-08 0)
(1.00777 -7.63114e-08 0)
(1.00777 -4.92492e-08 0)
(1.00777 -2.32381e-08 0)
(1.00777 -7.74987e-09 0)
(1.00777 1.73895e-09 0)
(1.00777 1.02047e-08 0)
(1.00777 1.94513e-08 0)
(1.00777 3.03523e-08 0)
(1.00777 3.71725e-08 0)
(1.00777 3.67369e-08 0)
(1.00777 3.49738e-08 0)
(1.00777 4.02061e-08 0)
(1.00777 5.75616e-08 0)
(1.00777 7.86896e-08 0)
(1.00777 9.08075e-08 0)
(1.00777 9.51469e-08 0)
(1.00777 1.02336e-07 0)
(1.00777 1.1678e-07 0)
(1.00777 1.33841e-07 0)
(1.00777 1.44141e-07 0)
(1.00777 1.41691e-07 0)
(1.00777 1.27652e-07 0)
(1.00777 1.06647e-07 0)
(1.00777 8.40675e-08 0)
(1.00777 6.10928e-08 0)
(1.00777 3.27929e-08 0)
(1.00777 -1.50315e-09 0)
(1.00777 -3.12475e-08 0)
(1.00777 -4.59358e-08 0)
(1.00777 -4.78681e-08 0)
(1.00777 -4.96916e-08 0)
(1.00777 -6.03663e-08 0)
(1.00777 -7.78498e-08 0)
(1.00777 -9.38828e-08 0)
(1.00777 -1.01157e-07 0)
(1.00777 -9.65735e-08 0)
(1.00777 -8.44696e-08 0)
(1.00777 -7.43362e-08 0)
(1.00777 -7.09175e-08 0)
(1.00777 -6.85903e-08 0)
(1.00777 -6.09745e-08 0)
(1.00777 -5.25316e-08 0)
(1.00777 -5.0755e-08 0)
(1.00777 -5.44159e-08 0)
(1.00777 -5.39676e-08 0)
(1.00777 -4.35973e-08 0)
(1.00777 -2.73206e-08 0)
(1.00777 -1.28747e-08 0)
(1.00777 -7.57707e-09 0)
(1.00777 -1.56453e-08 0)
(1.00777 -3.14613e-08 0)
(1.00777 -4.36922e-08 0)
(1.00777 -4.60133e-08 0)
(1.00777 -4.08783e-08 0)
(1.00777 -3.48496e-08 0)
(1.00777 -3.0362e-08 0)
(1.00777 -2.54579e-08 0)
(1.00777 -2.3998e-08 0)
(1.00777 -3.13707e-08 0)
(1.00777 -4.63627e-08 0)
(1.00777 -6.13852e-08 0)
(1.00777 -7.07352e-08 0)
(1.00777 -7.30202e-08 0)
(1.00777 -6.71604e-08 0)
(1.00777 -5.35337e-08 0)
(1.00777 -4.24372e-08 0)
(1.00777 -4.34024e-08 0)
(1.00777 -5.19439e-08 0)
(1.00777 -6.29083e-08 0)
(1.00777 -7.64527e-08 0)
(1.00777 -8.85426e-08 0)
(1.00777 -9.20285e-08 0)
(1.00777 -8.297e-08 0)
(1.00777 -6.4401e-08 0)
(1.00777 -4.07317e-08 0)
(1.00777 -1.15936e-08 0)
(1.00777 1.59818e-08 0)
(1.00777 3.29715e-08 0)
(1.00777 4.2846e-08 0)
(1.00777 5.12816e-08 0)
(1.00777 6.11464e-08 0)
(1.00777 7.41117e-08 0)
(1.00777 8.29938e-08 0)
(1.00777 8.69679e-08 0)
(1.00777 9.19004e-08 0)
(1.00777 9.45071e-08 0)
(1.00777 9.4493e-08 0)
(1.00777 9.64486e-08 0)
(1.00777 9.88788e-08 0)
(1.00777 9.90447e-08 0)
(1.00777 9.28543e-08 0)
(1.00777 8.11895e-08 0)
(1.00777 7.1401e-08 0)
(1.00777 5.91432e-08 0)
(1.00777 4.20144e-08 0)
(1.00777 3.51958e-08 0)
(1.00777 3.55506e-08 0)
(1.00777 3.13916e-08 0)
(1.00778 2.95034e-08 0)
(1.00778 3.67864e-08 0)
(1.00778 5.54188e-08 0)
(1.00778 7.14438e-08 0)
(1.00778 9.16438e-08 0)
(1.00778 1.09426e-07 0)
(1.00778 1.29445e-07 0)
(1.00778 1.18484e-07 0)
(1.00778 9.02882e-08 0)
(1.02567 3.40068e-07 0)
(1.02567 4.39066e-07 0)
(1.02567 5.37068e-07 0)
(1.02567 6.25662e-07 0)
(1.02567 6.66952e-07 0)
(1.02567 6.70309e-07 0)
(1.02567 6.69379e-07 0)
(1.02567 6.24124e-07 0)
(1.02567 5.67405e-07 0)
(1.02567 4.96998e-07 0)
(1.02567 4.25907e-07 0)
(1.02567 3.6589e-07 0)
(1.02567 3.19661e-07 0)
(1.02567 2.84712e-07 0)
(1.02567 2.50989e-07 0)
(1.02567 2.20116e-07 0)
(1.02567 1.99164e-07 0)
(1.02567 1.81635e-07 0)
(1.02567 1.60967e-07 0)
(1.02567 1.41444e-07 0)
(1.02567 1.21397e-07 0)
(1.02567 9.58266e-08 0)
(1.02567 7.22503e-08 0)
(1.02567 5.80042e-08 0)
(1.02567 5.08818e-08 0)
(1.02567 4.23868e-08 0)
(1.02567 2.50105e-08 0)
(1.02567 4.96838e-09 0)
(1.02567 -1.04138e-08 0)
(1.02567 -2.53171e-08 0)
(1.02567 -4.17332e-08 0)
(1.02567 -5.81343e-08 0)
(1.02567 -7.21497e-08 0)
(1.02567 -8.02767e-08 0)
(1.02567 -8.71923e-08 0)
(1.02567 -9.64331e-08 0)
(1.02567 -1.04658e-07 0)
(1.02567 -1.11244e-07 0)
(1.02567 -1.11545e-07 0)
(1.02567 -9.61335e-08 0)
(1.02567 -7.08494e-08 0)
(1.02567 -4.94303e-08 0)
(1.02567 -3.75322e-08 0)
(1.02567 -3.02225e-08 0)
(1.02567 -1.74951e-08 0)
(1.02567 5.51637e-10 0)
(1.02566 1.37675e-08 0)
(1.02566 1.74818e-08 0)
(1.02566 1.19594e-08 0)
(1.02566 5.14636e-10 0)
(1.02566 -6.54518e-09 0)
(1.02566 -4.5822e-09 0)
(1.02566 2.10289e-09 0)
(1.02566 8.25247e-09 0)
(1.02566 1.27975e-08 0)
(1.02566 2.27261e-08 0)
(1.02566 4.196e-08 0)
(1.02566 6.07049e-08 0)
(1.02566 6.9489e-08 0)
(1.02566 6.95693e-08 0)
(1.02566 6.82262e-08 0)
(1.02566 7.08411e-08 0)
(1.02566 7.64485e-08 0)
(1.02566 7.90119e-08 0)
(1.02566 7.34372e-08 0)
(1.02566 5.82921e-08 0)
(1.02566 3.91398e-08 0)
(1.02566 2.63663e-08 0)
(1.02566 2.24237e-08 0)
(1.02566 1.87466e-08 0)
(1.02566 8.56542e-09 0)
(1.02567 -5.91344e-09 0)
(1.02567 -1.85652e-08 0)
(1.02567 -2.96994e-08 0)
(1.02567 -4.43211e-08 0)
(1.02567 -6.43288e-08 0)
(1.02567 -8.70202e-08 0)
(1.02567 -1.07172e-07 0)
(1.02567 -1.17929e-07 0)
(1.02567 -1.14625e-07 0)
(1.02567 -1.0149e-07 0)
(1.02567 -8.93364e-08 0)
(1.02567 -8.32507e-08 0)
(1.02567 -7.82298e-08 0)
(1.02567 -6.93882e-08 0)
(1.02567 -5.89126e-08 0)
(1.02567 -5.10905e-08 0)
(1.02567 -4.43058e-08 0)
(1.02567 -3.3949e-08 0)
(1.02567 -2.05548e-08 0)
(1.02567 -8.2428e-09 0)
(1.02567 -4.61071e-10 0)
(1.02567 -1.7831e-09 0)
(1.02567 -1.32089e-08 0)
(1.02567 -2.70945e-08 0)
(1.02567 -3.3605e-08 0)
(1.02567 -2.94796e-08 0)
(1.02567 -1.98909e-08 0)
(1.02567 -1.17234e-08 0)
(1.02567 -6.21714e-09 0)
(1.02567 -3.31919e-09 0)
(1.02567 -5.7391e-09 0)
(1.02567 -1.57045e-08 0)
(1.02567 -3.01419e-08 0)
(1.02567 -4.15219e-08 0)