/*--------------------------------*- C++ -*----------------------------------*\
| =========                 |                                                 |
| \\      /  F ield         | OpenFOAM: The Open Source CFD Toolbox           |
|  \\    /   O peration     | Version:  2406                                  |
|   \\  /    A nd           | Website:  www.openfoam.com                      |
|    \\/     M anipulation  |                                                 |
\*---------------------------------------------------------------------------*/
FoamFile
{
    version     2.0;
    format      ascii;
    arch        "LSB;label=32;scalar=64";
    class       surfaceScalarField;
    location    "0.2";
    object      phi;
}
// * * * * * * * * * * * * * * * * * * * * * * * * * * * * * * * * * * * * * //

dimensions      [0 3 -1 0 0 0 0];

oriented        oriented;

internalField   nonuniform List<scalar> 
1192
(
5.247e-06
-5.13433e-11
5.24704e-06
-4.18482e-11
5.24708e-06
-3.62686e-11
5.24711e-06
-3.0364e-11
5.24713e-06
-2.68613e-11
5.24715e-06
-2.2193e-11
5.24717e-06
-1.60112e-11
5.24718e-06
-1.15242e-11
5.24718e-06
-8.04984e-12
5.24719e-06
-4.28308e-12
5.24719e-06
-1.42556e-12
5.24719e-06
-3.0661e-13
5.24719e-06
-2.75243e-13
5.24719e-06
-5.43137e-13
5.24719e-06
-8.66821e-13
5.24719e-06
-8.91382e-13
5.24719e-06
-9.33835e-13
5.24719e-06
-1.22428e-12
5.2472e-06
-1.56228e-12
5.2472e-06
-1.42315e-12
5.2472e-06
-4.91585e-13
5.2472e-06
8.34417e-13
5.2472e-06
1.74506e-12
5.2472e-06
1.71798e-12
5.2472e-06
1.03617e-12
5.24719e-06
5.17774e-13
5.24719e-06
8.12376e-13
5.24719e-06
1.81307e-12
5.24719e-06
2.76329e-12
5.24719e-06
2.8866e-12
5.24719e-06
2.00727e-12
5.24719e-06
5.01501e-13
5.24719e-06
-1.05226e-12
5.24719e-06
-1.85299e-12
5.24719e-06
-2.03618e-12
5.24719e-06
-1.60451e-12
5.24719e-06
-8.72274e-13
5.24719e-06
-1.12919e-13
5.24719e-06
2.19075e-13
5.24719e-06
4.64964e-14
5.24719e-06
-5.52099e-13
5.24719e-06
-1.16393e-12
5.24719e-06
-1.40515e-12
5.24719e-06
-9.81999e-13
5.2472e-06
3.00559e-14
5.2472e-06
1.17237e-12
5.2472e-06
1.78284e-12
5.2472e-06
1.5893e-12
5.2472e-06
6.06052e-13
5.2472e-06
-7.97254e-13
5.2472e-06
-2.04075e-12
5.2472e-06
-2.87174e-12
5.24721e-06
-3.1379e-12
5.24721e-06
-2.73298e-12
5.24721e-06
-1.59208e-12
5.24721e-06
2.9757e-13
5.24721e-06
2.2016e-12
5.2472e-06
3.20147e-12
5.2472e-06
2.75418e-12
5.2472e-06
1.41408e-12
5.2472e-06
4.25991e-13
5.24719e-06
7.74948e-13
5.24719e-06
2.1623e-12
5.24719e-06
3.18892e-12
5.24719e-06
2.71279e-12
5.24719e-06
1.12418e-12
5.24718e-06
-3.6543e-13
5.24718e-06
-5.19657e-13
5.24718e-06
7.32402e-13
5.24718e-06
1.96488e-12
5.24718e-06
1.96207e-12
5.24718e-06
2.55278e-13
5.24718e-06
-2.52957e-12
5.24719e-06
-5.59062e-12
5.2472e-06
-1.0076e-11
5.24722e-06
-1.72454e-11
5.24724e-06
-2.66622e-11
5.24728e-06
-3.65331e-11
5.24732e-06
-4.77529e-11
-6.32656e-11
1.28627e-05
-9.19908e-11
1.28628e-05
-8.39349e-11
1.28628e-05
-8.07676e-11
1.28628e-05
-7.29406e-11
1.28629e-05
-6.21337e-11
1.28629e-05
-5.13574e-11
1.28629e-05
-4.03706e-11
1.28629e-05
-2.95103e-11
1.2863e-05
-2.08558e-11
1.2863e-05
-1.43524e-11
1.2863e-05
-8.88085e-12
1.2863e-05
-4.48475e-12
1.2863e-05
-2.10389e-12
1.2863e-05
-2.32459e-12
1.2863e-05
-4.45409e-12
1.2863e-05
-6.81579e-12
1.2863e-05
-7.76981e-12
1.2863e-05
-6.74445e-12
1.2863e-05
-4.3906e-12
1.2863e-05
-1.83703e-12
1.2863e-05
1.41576e-13
1.2863e-05
1.44989e-12
1.2863e-05
2.32332e-12
1.2863e-05
3.04301e-12
1.2863e-05
3.85041e-12
1.2863e-05
4.91952e-12
1.2863e-05
6.38071e-12
1.2863e-05
8.00061e-12
1.2863e-05
9.02572e-12
1.2863e-05
8.48112e-12
1.2863e-05
5.83767e-12
1.2863e-05
1.56097e-12
1.2863e-05
-3.03908e-12
1.2863e-05
-6.24162e-12
1.2863e-05
-7.07205e-12
1.2863e-05
-5.60016e-12
1.2863e-05
-2.86365e-12
1.2863e-05
-2.66849e-13
1.2863e-05
1.10669e-12
1.2863e-05
9.52468e-13
1.2863e-05
-2.6125e-13
1.2863e-05
-1.70225e-12
1.2863e-05
-2.356e-12
1.2863e-05
-1.63267e-12
1.2863e-05
3.10269e-13
1.2863e-05
2.96077e-12
1.2863e-05
4.78462e-12
1.2863e-05
4.69155e-12
1.2863e-05
2.22031e-12
1.2863e-05
-1.92721e-12
1.2863e-05
-6.11458e-12
1.2863e-05
-8.65064e-12
1.2863e-05
-8.68911e-12
1.2863e-05
-6.59415e-12
1.2863e-05
-3.46076e-12
1.2863e-05
-4.8695e-13
1.2863e-05
2.13879e-12
1.2863e-05
3.94818e-12
1.2863e-05
4.8648e-12
1.2863e-05
4.64201e-12
1.2863e-05
3.47724e-12
1.2863e-05
2.32218e-12
1.2863e-05
2.36303e-12
1.2863e-05
3.81336e-12
1.2863e-05
5.54151e-12
1.2863e-05
6.00651e-12
1.2863e-05
4.54277e-12
1.2863e-05
2.18071e-12
1.2863e-05
6.8202e-13
1.2863e-05
8.97596e-13
1.2863e-05
1.8598e-12
1.2863e-05
1.1095e-12
1.2863e-05
-3.25124e-12
1.2863e-05
-1.15657e-11
1.2863e-05
-2.40135e-11
1.2863e-05
-4.07866e-11
1.28631e-05
-6.11292e-11
1.28631e-05
-8.2026e-11
1.28632e-05
-1.01765e-10
-1.21629e-10
1.78065e-05
-7.56726e-11
1.78064e-05
-7.1278e-11
1.78064e-05
-6.78205e-11
1.78064e-05
-6.23553e-11
1.78064e-05
-5.51344e-11
1.78064e-05
-4.66067e-11
1.78064e-05
-3.89056e-11
1.78064e-05
-3.11797e-11
1.78064e-05
-2.34575e-11
1.78064e-05
-1.69158e-11
1.78064e-05
-1.20232e-11
1.78064e-05
-8.74043e-12
1.78064e-05
-7.1512e-12
1.78064e-05
-7.32812e-12
1.78064e-05
-9.15531e-12
1.78064e-05
-1.1659e-11
1.78064e-05
-1.32254e-11
1.78064e-05
-1.24315e-11
1.78064e-05
-8.99002e-12
1.78064e-05
-4.12913e-12
1.78065e-05
3.59855e-13
1.78065e-05
3.18715e-12
1.78064e-05
4.32773e-12
1.78064e-05
4.83735e-12
1.78064e-05
5.92677e-12
1.78064e-05
8.23498e-12
1.78064e-05
1.14159e-11
1.78064e-05
1.42802e-11
1.78064e-05
1.53204e-11
1.78064e-05
1.34062e-11
1.78064e-05
8.40625e-12
1.78064e-05
1.40996e-12
1.78064e-05
-5.47846e-12
1.78064e-05
-1.00555e-11
1.78064e-05
-1.10362e-11
1.78064e-05
-8.5956e-12
1.78064e-05
-4.23848e-12
1.78064e-05
-2.69439e-14
1.78064e-05
2.36242e-12
1.78064e-05
2.32901e-12
1.78064e-05
5.23016e-13
1.78064e-05
-1.74269e-12
1.78064e-05
-2.915e-12
1.78064e-05
-2.14565e-12
1.78064e-05
5.00607e-13
1.78064e-05
3.95926e-12
1.78064e-05
6.53016e-12
1.78064e-05
6.60371e-12
1.78064e-05
3.39012e-12
1.78064e-05
-2.53516e-12
1.78064e-05
-9.22333e-12
1.78064e-05
-1.40651e-11
1.78065e-05
-1.50213e-11
1.78065e-05
-1.17487e-11
1.78065e-05
-5.83373e-12
1.78065e-05
2.34299e-13
1.78065e-05
4.27307e-12
1.78065e-05
5.86008e-12
1.78065e-05
5.80883e-12
1.78064e-05
5.36977e-12
1.78064e-05
5.29818e-12
1.78064e-05
5.62982e-12
1.78064e-05
6.20872e-12
1.78064e-05
6.92393e-12
1.78064e-05
7.57161e-12
1.78064e-05
7.65108e-12
1.78064e-05
6.64656e-12
1.78064e-05
4.66001e-12
1.78064e-05
2.52538e-12
1.78064e-05
1.09368e-12
1.78064e-05
8.52061e-13
1.78064e-05
7.84849e-13
1.78064e-05
-1.34481e-12
1.78064e-05
-7.52193e-12
1.78064e-05
-1.97027e-11
1.78064e-05
-3.80747e-11
1.78064e-05
-6.18991e-11
1.78064e-05
-8.72244e-11
1.78064e-05
-1.07303e-10
-1.24434e-10
2.02358e-05
-7.90242e-12
2.02357e-05
-6.3155e-12
2.02357e-05
-3.58075e-12
2.02356e-05
-2.10155e-12
2.02356e-05
-2.3199e-12
2.02355e-05
-3.56091e-12
2.02355e-05
-5.9886e-12
2.02355e-05
-7.94024e-12
2.02354e-05
-8.22069e-12
2.02354e-05
-7.58197e-12
2.02354e-05
-7.10053e-12
2.02354e-05
-7.16225e-12
2.02354e-05
-7.86101e-12
2.02354e-05
-9.27053e-12
2.02354e-05
-1.13516e-11
2.02354e-05
-1.36256e-11
2.02354e-05
-1.49859e-11
2.02354e-05
-1.41583e-11
2.02354e-05
-1.06362e-11
2.02354e-05
-5.25043e-12
2.02354e-05
8.57081e-14
2.02354e-05
3.78249e-12
2.02354e-05
5.25484e-12
2.02354e-05
5.60465e-12
2.02354e-05
6.55562e-12
2.02354e-05
9.20298e-12
2.02354e-05
1.32007e-11
2.02354e-05
1.68767e-11
2.02354e-05
1.8149e-11
2.02354e-05
1.56406e-11
2.02354e-05
9.45927e-12
2.02354e-05
1.22272e-12
2.02354e-05
-6.58669e-12
2.02354e-05
-1.16024e-11
2.02354e-05
-1.25389e-11
2.02354e-05
-9.66852e-12
2.02354e-05
-4.63978e-12
2.02354e-05
2.72527e-13
2.02354e-05
3.14103e-12
2.02354e-05
3.18359e-12
2.02354e-05
1.01186e-12
2.02354e-05
-1.79386e-12
2.02354e-05
-3.33163e-12
2.02354e-05
-2.52506e-12
2.02354e-05
5.03392e-13
2.02354e-05
4.39398e-12
2.02354e-05
7.17691e-12
2.02354e-05
7.14589e-12
2.02354e-05
3.62156e-12
2.02354e-05
-2.67348e-12
2.02355e-05
-9.7792e-12
2.02355e-05
-1.51636e-11
2.02355e-05
-1.6706e-11
2.02355e-05
-1.36576e-11
2.02355e-05
-7.23228e-12
2.02355e-05
-7.90289e-14
2.02355e-05
5.0391e-12
2.02355e-05
6.79344e-12
2.02355e-05
5.94201e-12
2.02355e-05
4.55839e-12
2.02354e-05
4.38459e-12
2.02354e-05
5.72837e-12
2.02354e-05
7.62929e-12
2.02354e-05
8.86759e-12
2.02354e-05
8.81428e-12
2.02354e-05
7.62441e-12
2.02354e-05
5.73002e-12
2.02354e-05
3.57611e-12
2.02354e-05
1.70372e-12
2.02354e-05
8.21139e-13
2.02354e-05
1.79964e-12
2.02354e-05
4.50753e-12
2.02354e-05
7.54815e-12
2.02354e-05
8.01232e-12
2.02354e-05
3.38636e-12
2.02354e-05
-6.62609e-12
2.02353e-05
-2.16516e-11
2.02353e-05
-4.08107e-11
2.02352e-05
-5.83827e-11
-7.2137e-11
2.02358e-05
5.9531e-11
2.02358e-05
5.91349e-11
2.02357e-05
6.20521e-11
2.02356e-05
5.95477e-11
2.02356e-05
5.11032e-11
2.02355e-05
3.93229e-11
2.02355e-05
2.669e-11
2.02355e-05
1.51647e-11
2.02355e-05
6.23419e-12
2.02355e-05
2.75741e-13
2.02354e-05
-3.27077e-12
2.02354e-05
-5.48125e-12
2.02354e-05
-7.22289e-12
2.02354e-05
-9.20341e-12
2.02354e-05
-1.14086e-11
2.02354e-05
-1.32597e-11
2.02354e-05
-1.38945e-11
2.02354e-05
-1.25926e-11
2.02354e-05
-9.29993e-12
2.02354e-05
-4.7629e-12
2.02354e-05
-2.74343e-13
2.02354e-05
2.90346e-12
2.02354e-05
4.39654e-12
2.02354e-05
4.89616e-12
2.02354e-05
5.76568e-12
2.02354e-05
8.04454e-12
2.02354e-05
1.15947e-11
2.02354e-05
1.50105e-11
2.02354e-05
1.63491e-11
2.02354e-05
1.42414e-11
2.02354e-05
8.68868e-12
2.02354e-05
1.21979e-12
2.02354e-05
-5.8276e-12
2.02354e-05
-1.02634e-11
2.02354e-05
-1.0982e-11
2.02354e-05
-8.29999e-12
2.02354e-05
-3.72585e-12
2.02354e-05
7.18256e-13
2.02354e-05
3.31532e-12
2.02354e-05
3.32994e-12
2.02354e-05
1.25351e-12
2.02354e-05
-1.50159e-12
2.02354e-05
-3.16589e-12
2.02354e-05
-2.55715e-12
2.02354e-05
2.7737e-13
2.02354e-05
4.02228e-12
2.02354e-05
6.68682e-12
2.02355e-05
6.59572e-12
2.02355e-05
3.26653e-12
2.02355e-05
-2.36916e-12
2.02355e-05
-8.38904e-12
2.02355e-05
-1.27218e-11
2.02355e-05
-1.3938e-11
2.02354e-05
-1.17343e-11
2.02354e-05
-6.90065e-12
2.02354e-05
-1.24772e-12
2.02354e-05
3.40966e-12
2.02354e-05
5.52757e-12
2.02354e-05
5.11472e-12
2.02354e-05
3.51282e-12
2.02354e-05
2.63237e-12
2.02354e-05
3.57158e-12
2.02354e-05
5.83181e-12
2.02354e-05
7.8184e-12
2.02354e-05
8.11704e-12
2.02354e-05
6.47367e-12
2.02354e-05
3.76026e-12
2.02354e-05
1.19589e-12
2.02355e-05
-2.12428e-13
2.02355e-05
4.53962e-13
2.02355e-05
3.50517e-12
2.02354e-05
9.21934e-12
2.02354e-05
1.70242e-11
2.02354e-05
2.46081e-11
2.02354e-05
2.92941e-11
2.02354e-05
3.0152e-11
2.02353e-05
2.60723e-11
2.02353e-05
1.62676e-11
2.02352e-05
3.56452e-12
-4.86353e-12
1.78065e-05
8.12741e-11
1.78065e-05
7.54924e-11
1.78065e-05
7.36059e-11
1.78065e-05
6.83018e-11
1.78065e-05
5.8796e-11
1.78065e-05
4.65279e-11
1.78065e-05
3.33214e-11
1.78065e-05
2.0747e-11
1.78065e-05
1.02896e-11
1.78065e-05
3.07934e-12
1.78064e-05
-9.81419e-13
1.78064e-05
-2.83499e-12
1.78064e-05
-4.06904e-12
1.78064e-05
-5.72894e-12
1.78064e-05
-7.75593e-12
1.78064e-05
-9.27415e-12
1.78064e-05
-9.40987e-12
1.78064e-05
-7.94891e-12
1.78064e-05
-5.39202e-12
1.78064e-05
-2.57678e-12
1.78064e-05
-1.80869e-13
1.78064e-05
1.40152e-12
1.78064e-05
2.25946e-12
1.78064e-05
2.78971e-12
1.78064e-05
3.58748e-12
1.78064e-05
5.1319e-12
1.78064e-05
7.38437e-12
1.78064e-05
9.58882e-12
1.78064e-05
1.05688e-11
1.78064e-05
9.38052e-12
1.78064e-05
5.90504e-12
1.78064e-05
1.05577e-12
1.78064e-05
-3.62595e-12
1.78064e-05
-6.61751e-12
1.78064e-05
-7.12404e-12
1.78064e-05
-5.34496e-12
1.78064e-05
-2.30308e-12
1.78064e-05
6.49922e-13
1.78064e-05
2.39038e-12
1.78064e-05
2.43821e-12
1.78064e-05
1.11032e-12
1.78064e-05
-6.91577e-13
1.78064e-05
-1.84657e-12
1.78064e-05
-1.5683e-12
1.78064e-05
1.70955e-13
1.78064e-05
2.59997e-12
1.78064e-05
4.38831e-12
1.78064e-05
4.37529e-12
1.78064e-05
2.19812e-12
1.78064e-05
-1.47517e-12
1.78064e-05
-5.244e-12
1.78064e-05
-7.74001e-12
1.78064e-05
-8.23893e-12
1.78064e-05
-6.87926e-12
1.78064e-05
-4.33369e-12
1.78064e-05
-1.40165e-12
1.78064e-05
1.20632e-12
1.78064e-05
2.84077e-12
1.78064e-05
3.13184e-12
1.78064e-05
2.2673e-12
1.78064e-05
1.21336e-12
1.78064e-05
1.06627e-12
1.78064e-05
2.26158e-12
1.78064e-05
3.98291e-12
1.78064e-05
4.75588e-12
1.78064e-05
3.75123e-12
1.78064e-05
1.48494e-12
1.78064e-05
-5.86875e-13
1.78064e-05
-1.38706e-12
1.78064e-05
-8.19516e-14
1.78065e-05
2.85398e-12
1.78065e-05
7.18495e-12
1.78065e-05
1.3518e-11
1.78065e-05
2.22819e-11
1.78065e-05
3.16738e-11
1.78064e-05
3.87192e-11
1.78064e-05
4.15309e-11
1.78064e-05
3.92097e-11
1.78064e-05
3.24172e-11
3.05656e-11
1.28628e-05
4.61936e-11
1.28628e-05
3.90647e-11
1.28629e-05
3.60295e-11
1.28629e-05
3.20596e-11
1.28629e-05
2.63402e-11
1.2863e-05
2.00607e-11
1.2863e-05
1.42042e-11
1.2863e-05
9.09786e-12
1.2863e-05
4.80134e-12
1.2863e-05
1.81519e-12
1.2863e-05
-1.93006e-13
1.2863e-05
-9.18781e-13
1.2863e-05
-1.25532e-12
1.2863e-05
-1.85141e-12
1.2863e-05
-2.79187e-12
1.2863e-05
-3.63447e-12
1.2863e-05
-3.81477e-12
1.2863e-05
-3.12279e-12
1.2863e-05
-1.85452e-12
1.2863e-05
-5.23866e-13
1.2863e-05
4.05685e-13
1.2863e-05
7.35113e-13
1.2863e-05
6.90869e-13
1.2863e-05
6.61419e-13
1.2863e-05
9.34752e-13
1.2863e-05
1.62432e-12
1.2863e-05
2.63364e-12
1.2863e-05
3.58955e-12
1.2863e-05
4.02327e-12
1.2863e-05
3.58192e-12
1.2863e-05
2.22973e-12
1.2863e-05
3.2541e-13
1.2863e-05
-1.51792e-12
1.2863e-05
-2.6901e-12
1.2863e-05
-2.84731e-12
1.2863e-05
-2.05288e-12
1.2863e-05
-7.47536e-13
1.2863e-05
5.22048e-13
1.2863e-05
1.19644e-12
1.2863e-05
1.15013e-12
1.2863e-05
5.56879e-13
1.2863e-05
-2.54582e-13
1.2863e-05
-7.42314e-13
1.2863e-05
-6.69381e-13
1.2863e-05
-9.39956e-14
1.2863e-05
9.26944e-13
1.2863e-05
1.80206e-12
1.2863e-05
2.15094e-12
1.2863e-05
1.69163e-12
1.2863e-05
4.26212e-13
1.2863e-05
-1.17439e-12
1.2863e-05
-2.45674e-12
1.2863e-05
-2.89756e-12
1.2863e-05
-2.3998e-12
1.2863e-05
-1.39666e-12
1.2863e-05
-4.00912e-13
1.2863e-05
1.19793e-13
1.2863e-05
2.26634e-13
1.2863e-05
1.37312e-13
1.2863e-05
1.17598e-14
1.2863e-05
-3.9264e-14
1.2863e-05
-1.77199e-14
1.2863e-05
7.52171e-14
1.2863e-05
2.42952e-13
1.2863e-05
2.85655e-13
1.2863e-05
6.46438e-14
1.2863e-05
-4.31844e-13
1.2863e-05
-1.13606e-12
1.2863e-05
-1.71501e-12
1.2863e-05
-1.85354e-12
1.2863e-05
-7.8818e-13
1.2863e-05
1.91253e-12
1.2863e-05
5.66672e-12
1.2863e-05
9.99224e-12
1.2863e-05
1.48915e-11
1.28631e-05
1.83227e-11
1.28631e-05
1.94368e-11
1.28631e-05
2.01883e-11
1.28631e-05
1.92899e-11
2.15681e-11
5.24702e-06
5.24706e-06
5.2471e-06
5.24713e-06
5.24715e-06
5.24717e-06
5.24719e-06
5.24719e-06
5.2472e-06
5.2472e-06
5.2472e-06
5.2472e-06
5.2472e-06
5.24719e-06
5.24719e-06
5.24719e-06
5.24718e-06
5.24718e-06
5.24718e-06
5.24718e-06
5.24718e-06
5.24718e-06
5.24718e-06
5.24718e-06
5.24718e-06
5.24718e-06
5.24719e-06
5.24719e-06
5.2472e-06
5.2472e-06
5.2472e-06
5.2472e-06
5.2472e-06
5.24719e-06
5.24719e-06
5.24719e-06
5.24719e-06
5.24719e-06
5.24719e-06
5.24719e-06
5.24719e-06
5.24719e-06
5.24719e-06
5.24719e-06
5.24719e-06
5.2472e-06
5.2472e-06
5.2472e-06
5.2472e-06
5.2472e-06
5.2472e-06
5.2472e-06
5.2472e-06
5.24719e-06
5.24719e-06
5.24719e-06
5.24719e-06
5.24719e-06
5.24719e-06
5.24719e-06
5.24719e-06
5.24719e-06
5.24719e-06
5.24719e-06
5.24719e-06
5.24719e-06
5.24719e-06
5.24719e-06
5.24719e-06
5.24719e-06
5.24719e-06
5.24719e-06
5.2472e-06
5.24721e-06
5.24722e-06
5.24724e-06
5.24726e-06
5.24728e-06
5.24729e-06
)
;

boundaryField
{
    inlet
    {
        type            calculated;
        value           nonuniform List<scalar> 8(-5.24694e-06 -1.28627e-05 -1.78065e-05 -2.02359e-05 -2.02359e-05 -1.78065e-05 -1.28627e-05 -5.24697e-06);
    }
    outlet
    {
        type            calculated;
        value           nonuniform List<scalar> 8(5.24739e-06 1.28632e-05 1.78064e-05 2.02352e-05 2.02351e-05 1.78063e-05 1.28631e-05 5.24732e-06);
    }
    walls
    {
        type            calculated;
        value           uniform 0;
    }
    frontAndBack
    {
        type            empty;
    }
}


// ************************************************************************* //
