/*--------------------------------*- C++ -*----------------------------------*\
| =========                 |                                                 |
| \\      /  F ield         | OpenFOAM: The Open Source CFD Toolbox           |
|  \\    /   O peration     | Version:  2406                                  |
|   \\  /    A nd           | Website:  www.openfoam.com                      |
|    \\/     M anipulation  |                                                 |
\*---------------------------------------------------------------------------*/
FoamFile
{
    version     2.0;
    format      ascii;
    arch        "LSB;label=32;scalar=64";
    class       volVectorField;
    location    "0.2";
    object      U;
}
// * * * * * * * * * * * * * * * * * * * * * * * * * * * * * * * * * * * * * //

dimensions      [0 1 -1 0 0 0 0];

internalField   nonuniform List<vector> 
640
(
(0.0419757 -2.27206e-07 0)
(0.0419761 -1.73052e-07 0)
(0.0419765 -1.41141e-07 0)
(0.0419768 -1.1357e-07 0)
(0.041977 -9.75381e-08 0)
(0.0419772 -7.80855e-08 0)
(0.0419773 -5.44476e-08 0)
(0.0419774 -3.89872e-08 0)
(0.0419774 -2.71125e-08 0)
(0.0419775 -1.29091e-08 0)
(0.0419775 -1.09748e-09 0)
(0.0419775 4.07961e-09 0)
(0.0419775 3.34699e-09 0)
(0.0419775 4.23988e-10 0)
(0.0419775 -1.50325e-09 0)
(0.0419775 -1.90033e-09 0)
(0.0419775 -1.71976e-09 0)
(0.0419775 -2.74151e-09 0)
(0.0419776 -4.5377e-09 0)
(0.0419776 -4.79233e-09 0)
(0.0419776 -2.06287e-09 0)
(0.0419776 2.85827e-09 0)
(0.0419776 6.55147e-09 0)
(0.0419776 6.66254e-09 0)
(0.0419776 3.72886e-09 0)
(0.0419776 8.61916e-10 0)
(0.0419775 1.1742e-09 0)
(0.0419775 4.5781e-09 0)
(0.0419775 8.23851e-09 0)
(0.0419775 9.17201e-09 0)
(0.0419775 6.50109e-09 0)
(0.0419775 1.7347e-09 0)
(0.0419775 -2.94591e-09 0)
(0.0419775 -6.14986e-09 0)
(0.0419775 -6.76648e-09 0)
(0.0419775 -5.12797e-09 0)
(0.0419775 -2.51351e-09 0)
(0.0419775 -3.65459e-10 0)
(0.0419775 5.50404e-10 0)
(0.0419775 -2.18412e-10 0)
(0.0419775 -2.31652e-09 0)
(0.0419775 -4.60499e-09 0)
(0.0419775 -5.41167e-09 0)
(0.0419775 -3.82851e-09 0)
(0.0419776 -2.91561e-10 0)
(0.0419776 3.73765e-09 0)
(0.0419776 6.19737e-09 0)
(0.0419776 5.55865e-09 0)
(0.0419776 2.16173e-09 0)
(0.0419776 -2.2472e-09 0)
(0.0419776 -6.2234e-09 0)
(0.0419776 -8.79396e-09 0)
(0.0419776 -9.82454e-09 0)
(0.0419777 -8.99296e-09 0)
(0.0419777 -5.73886e-09 0)
(0.0419777 -9.6474e-11 0)
(0.0419777 6.33438e-09 0)
(0.0419776 1.02495e-08 0)
(0.0419776 9.04287e-09 0)
(0.0419776 3.72129e-09 0)
(0.0419776 -8.10948e-10 0)
(0.0419776 -1.36921e-10 0)
(0.0419775 5.26213e-09 0)
(0.0419775 1.04607e-08 0)
(0.0419775 1.0154e-08 0)
(0.0419775 4.10172e-09 0)
(0.0419775 -2.24969e-09 0)
(0.0419775 -2.93167e-09 0)
(0.0419775 2.32112e-09 0)
(0.0419775 8.77167e-09 0)
(0.0419775 1.05895e-08 0)
(0.0419775 5.72176e-09 0)
(0.0419775 -4.02239e-09 0)
(0.0419775 -1.60797e-08 0)
(0.0419775 -3.22603e-08 0)
(0.0419777 -5.75076e-08 0)
(0.0419778 -9.32179e-08 0)
(0.0419781 -1.3553e-07 0)
(0.0419784 -1.89682e-07 0)
(0.0419789 -2.67077e-07 0)
(0.102902 -6.70501e-07 0)
(0.102902 -5.78773e-07 0)
(0.102902 -5.30794e-07 0)
(0.102903 -4.63661e-07 0)
(0.102903 -3.96447e-07 0)
(0.102903 -3.25466e-07 0)
(0.102903 -2.4707e-07 0)
(0.102903 -1.78175e-07 0)
(0.102904 -1.23539e-07 0)
(0.102904 -7.67878e-08 0)
(0.102904 -3.86639e-08 0)
(0.102904 -1.37777e-08 0)
(0.102904 -4.24869e-09 0)
(0.102904 -7.82107e-09 0)
(0.102904 -1.82374e-08 0)
(0.102904 -2.82218e-08 0)
(0.102904 -3.20906e-08 0)
(0.102904 -2.92047e-08 0)
(0.102904 -2.16704e-08 0)
(0.102904 -1.16114e-08 0)
(0.102904 -9.21391e-10 0)
(0.102904 9.15345e-09 0)
(0.102904 1.61572e-08 0)
(0.102904 1.88391e-08 0)
(0.102904 1.87573e-08 0)
(0.102904 1.99333e-08 0)
(0.102904 2.59891e-08 0)
(0.102904 3.59382e-08 0)
(0.102904 4.39117e-08 0)
(0.102904 4.29203e-08 0)
(0.102904 2.98447e-08 0)
(0.102904 7.99194e-09 0)
(0.102904 -1.49169e-08 0)
(0.102904 -3.08814e-08 0)
(0.102904 -3.47559e-08 0)
(0.102904 -2.71737e-08 0)
(0.102904 -1.36115e-08 0)
(0.102904 -1.16981e-09 0)
(0.102904 5.0648e-09 0)
(0.102904 3.41295e-09 0)
(0.102904 -3.92656e-09 0)
(0.102904 -1.20286e-08 0)
(0.102904 -1.54951e-08 0)
(0.102904 -1.08271e-08 0)
(0.102904 1.21351e-09 0)
(0.102904 1.57904e-08 0)
(0.102904 2.58132e-08 0)
(0.102904 2.49001e-08 0)
(0.102904 1.14711e-08 0)
(0.102904 -9.84551e-09 0)
(0.102904 -3.0877e-08 0)
(0.102904 -4.37119e-08 0)
(0.102904 -4.47767e-08 0)
(0.102904 -3.52583e-08 0)
(0.102904 -1.90421e-08 0)
(0.102904 -6.74735e-10 0)
(0.102904 1.5836e-08 0)
(0.102904 2.68106e-08 0)
(0.102904 2.91143e-08 0)
(0.102904 2.27092e-08 0)
(0.102904 1.33719e-08 0)
(0.102904 9.38382e-09 0)
(0.102904 1.48535e-08 0)
(0.102904 2.5798e-08 0)
(0.102904 3.23465e-08 0)
(0.102904 2.78047e-08 0)
(0.102904 1.54524e-08 0)
(0.102904 5.49717e-09 0)
(0.102904 4.67544e-09 0)
(0.102904 1.09189e-08 0)
(0.102904 1.44717e-08 0)
(0.102904 4.55902e-09 0)
(0.102904 -2.56098e-08 0)
(0.102904 -7.67779e-08 0)
(0.102904 -1.51157e-07 0)
(0.102904 -2.54091e-07 0)
(0.102904 -3.81646e-07 0)
(0.102905 -5.15993e-07 0)
(0.102905 -6.58389e-07 0)
(0.102906 -8.23338e-07 0)
(0.142452 -8.25154e-07 0)
(0.142452 -7.65843e-07 0)
(0.142452 -7.33523e-07 0)
(0.142452 -6.72018e-07 0)
(0.142451 -5.83574e-07 0)
(0.142451 -4.85635e-07 0)
(0.142451 -3.89392e-07 0)
(0.142451 -2.94139e-07 0)
(0.142451 -2.10336e-07 0)
(0.142451 -1.4418e-07 0)
(0.142451 -9.31584e-08 0)
(0.142451 -5.67824e-08 0)
(0.142451 -3.82062e-08 0)
(0.142451 -3.91137e-08 0)
(0.142451 -5.53617e-08 0)
(0.142451 -7.54817e-08 0)
(0.142451 -8.6044e-08 0)
(0.142452 -7.86684e-08 0)
(0.142452 -5.47739e-08 0)
(0.142452 -2.41028e-08 0)
(0.142452 2.68896e-09 0)
(0.142452 1.95841e-08 0)
(0.142452 2.77631e-08 0)
(0.142452 3.26922e-08 0)
(0.142452 4.03835e-08 0)
(0.142452 5.43958e-08 0)
(0.142452 7.36047e-08 0)
(0.142451 9.20914e-08 0)
(0.142451 1.00552e-07 0)
(0.142451 9.03191e-08 0)
(0.142451 5.86418e-08 0)
(0.142451 1.18774e-08 0)
(0.142451 -3.55032e-08 0)
(0.142451 -6.76135e-08 0)
(0.142451 -7.49193e-08 0)
(0.142451 -5.8533e-08 0)
(0.142451 -2.90547e-08 0)
(0.142451 -8.9721e-10 0)
(0.142451 1.45424e-08 0)
(0.142451 1.35389e-08 0)
(0.142451 6.21178e-10 0)
(0.142451 -1.45057e-08 0)
(0.142451 -2.1962e-08 0)
(0.142451 -1.55258e-08 0)
(0.142451 4.26666e-09 0)
(0.142451 2.9334e-08 0)
(0.142451 4.76047e-08 0)
(0.142451 4.74292e-08 0)
(0.142451 2.36093e-08 0)
(0.142452 -1.85009e-08 0)
(0.142452 -6.39197e-08 0)
(0.142452 -9.47475e-08 0)
(0.142452 -9.89358e-08 0)
(0.142452 -7.65916e-08 0)
(0.142452 -3.88625e-08 0)
(0.142452 -7.5896e-10 0)
(0.142452 2.67038e-08 0)
(0.142452 4.07462e-08 0)
(0.142452 4.44232e-08 0)
(0.142452 4.18559e-08 0)
(0.142452 3.69071e-08 0)
(0.142452 3.375e-08 0)
(0.142452 3.63896e-08 0)
(0.142451 4.52757e-08 0)
(0.142451 5.51729e-08 0)
(0.142451 5.73247e-08 0)
(0.142451 4.72932e-08 0)
(0.142451 2.93951e-08 0)
(0.142451 1.38807e-08 0)
(0.142451 7.29283e-09 0)
(0.142451 6.3852e-09 0)
(0.142451 -2.01975e-09 0)
(0.142451 -3.61426e-08 0)
(0.142451 -1.10146e-07 0)
(0.142451 -2.28636e-07 0)
(0.142451 -3.92783e-07 0)
(0.142451 -5.93651e-07 0)
(0.142451 -7.98407e-07 0)
(0.142451 -9.7301e-07 0)
(0.142451 -1.13697e-06 0)
(0.161887 -4.14043e-07 0)
(0.161886 -3.87309e-07 0)
(0.161886 -3.62461e-07 0)
(0.161885 -3.31165e-07 0)
(0.161885 -2.95751e-07 0)
(0.161884 -2.56122e-07 0)
(0.161884 -2.2329e-07 0)
(0.161884 -1.89028e-07 0)
(0.161884 -1.49546e-07 0)
(0.161884 -1.1338e-07 0)
(0.161883 -8.69991e-08 0)
(0.161883 -7.1126e-08 0)
(0.161883 -6.58837e-08 0)
(0.161883 -7.14481e-08 0)
(0.161884 -8.72489e-08 0)
(0.161884 -1.07137e-07 0)
(0.161884 -1.19539e-07 0)
(0.161884 -1.12839e-07 0)
(0.161884 -8.34834e-08 0)
(0.161884 -4.01397e-08 0)
(0.161884 1.55011e-09 0)
(0.161884 2.89335e-08 0)
(0.161884 4.00061e-08 0)
(0.161884 4.38496e-08 0)
(0.161884 5.28773e-08 0)
(0.161884 7.43413e-08 0)
(0.161884 1.05176e-07 0)
(0.161884 1.33129e-07 0)
(0.161884 1.42956e-07 0)
(0.161884 1.24072e-07 0)
(0.161884 7.6477e-08 0)
(0.161884 1.17173e-08 0)
(0.161884 -5.07622e-08 0)
(0.161884 -9.15075e-08 0)
(0.161884 -9.97312e-08 0)
(0.161884 -7.73336e-08 0)
(0.161884 -3.76696e-08 0)
(0.161884 9.13836e-10 0)
(0.161884 2.31673e-08 0)
(0.161884 2.32522e-08 0)
(0.161884 6.32013e-09 0)
(0.161884 -1.47878e-08 0)
(0.161884 -2.60757e-08 0)
(0.161884 -1.92532e-08 0)
(0.161884 4.87596e-09 0)
(0.161884 3.59604e-08 0)
(0.161884 5.84805e-08 0)
(0.161884 5.83879e-08 0)
(0.161884 2.94477e-08 0)
(0.161884 -2.27903e-08 0)
(0.161884 -8.16867e-08 0)
(0.161884 -1.25374e-07 0)
(0.161884 -1.36096e-07 0)
(0.161884 -1.09163e-07 0)
(0.161884 -5.65728e-08 0)
(0.161884 -3.01047e-10 0)
(0.161884 3.91408e-08 0)
(0.161884 5.37523e-08 0)
(0.161884 5.03848e-08 0)
(0.161884 4.31828e-08 0)
(0.161884 4.24385e-08 0)
(0.161884 4.96073e-08 0)
(0.161884 5.98793e-08 0)
(0.161884 6.77171e-08 0)
(0.161884 7.00198e-08 0)
(0.161884 6.54554e-08 0)
(0.161884 5.35931e-08 0)
(0.161884 3.63002e-08 0)
(0.161884 1.90823e-08 0)
(0.161884 9.29239e-09 0)
(0.161884 1.07182e-08 0)
(0.161884 1.86946e-08 0)
(0.161883 1.79836e-08 0)
(0.161883 -1.46326e-08 0)
(0.161883 -9.49385e-08 0)
(0.161883 -2.25074e-07 0)
(0.161883 -3.98511e-07 0)
(0.161882 -5.92449e-07 0)
(0.161882 -7.53278e-07 0)
(0.161881 -8.84934e-07 0)
(0.161887 2.79317e-07 0)
(0.161886 2.82219e-07 0)
(0.161886 3.05744e-07 0)
(0.161885 2.99762e-07 0)
(0.161885 2.57306e-07 0)
(0.161884 1.93396e-07 0)
(0.161884 1.2015e-07 0)
(0.161884 5.365e-08 0)
(0.161884 5.95171e-09 0)
(0.161884 -2.35875e-08 0)
(0.161884 -4.16719e-08 0)
(0.161884 -5.39964e-08 0)
(0.161884 -6.53684e-08 0)
(0.161884 -7.98535e-08 0)
(0.161884 -9.77613e-08 0)
(0.161883 -1.1509e-07 0)
(0.161883 -1.23654e-07 0)
(0.161883 -1.14904e-07 0)
(0.161883 -8.62807e-08 0)
(0.161883 -4.42372e-08 0)
(0.161883 -2.20099e-09 0)
(0.161883 2.71205e-08 0)
(0.161883 4.01808e-08 0)
(0.161883 4.43251e-08 0)
(0.161883 5.26164e-08 0)
(0.161883 7.40315e-08 0)
(0.161883 1.06449e-07 0)
(0.161884 1.36732e-07 0)
(0.161884 1.47758e-07 0)
(0.161884 1.27916e-07 0)
(0.161884 7.7774e-08 0)
(0.161884 1.0772e-08 0)
(0.161884 -5.25253e-08 0)
(0.161884 -9.28867e-08 0)
(0.161884 -1.00131e-07 0)
(0.161884 -7.67199e-08 0)
(0.161884 -3.59861e-08 0)
(0.161884 3.86921e-09 0)
(0.161884 2.73196e-08 0)
(0.161884 2.78815e-08 0)
(0.161884 9.98461e-09 0)
(0.161884 -1.33597e-08 0)
(0.161884 -2.69722e-08 0)
(0.161884 -2.11509e-08 0)
(0.161884 3.32624e-09 0)
(0.161884 3.54764e-08 0)
(0.161884 5.83475e-08 0)
(0.161884 5.76957e-08 0)
(0.161884 2.85745e-08 0)
(0.161884 -2.21068e-08 0)
(0.161884 -7.79462e-08 0)
(0.161884 -1.19397e-07 0)
(0.161884 -1.31311e-07 0)
(0.161884 -1.09041e-07 0)
(0.161884 -6.09856e-08 0)
(0.161884 -5.92984e-09 0)
(0.161884 3.57959e-08 0)
(0.161884 5.26368e-08 0)
(0.161884 4.75174e-08 0)
(0.161884 3.51154e-08 0)
(0.161884 3.089e-08 0)
(0.161884 4.06475e-08 0)
(0.161884 5.81636e-08 0)
(0.161884 7.15457e-08 0)
(0.161884 7.23121e-08 0)
(0.161884 6.02793e-08 0)
(0.161884 4.10387e-08 0)
(0.161884 2.13538e-08 0)
(0.161884 7.4265e-09 0)
(0.161884 6.54643e-09 0)
(0.161884 2.4356e-08 0)
(0.161884 6.30643e-08 0)
(0.161884 1.13757e-07 0)
(0.161883 1.54411e-07 0)
(0.161883 1.62702e-07 0)
(0.161883 1.32338e-07 0)
(0.161883 5.94145e-08 0)
(0.161882 -5.68459e-08 0)
(0.161882 -1.81505e-07 0)
(0.161881 -2.73395e-07 0)
(0.142452 7.13867e-07 0)
(0.142452 6.80178e-07 0)
(0.142452 6.8058e-07 0)
(0.142452 6.42164e-07 0)
(0.142452 5.54505e-07 0)
(0.142452 4.36805e-07 0)
(0.142452 3.10484e-07 0)
(0.142452 1.92343e-07 0)
(0.142452 9.635e-08 0)
(0.142452 2.9866e-08 0)
(0.142452 -9.54389e-09 0)
(0.142452 -3.11577e-08 0)
(0.142452 -4.6126e-08 0)
(0.142452 -6.25878e-08 0)
(0.142451 -8.07512e-08 0)
(0.142451 -9.48759e-08 0)
(0.142451 -9.79986e-08 0)
(0.142451 -8.64396e-08 0)
(0.142451 -6.20772e-08 0)
(0.142451 -3.14809e-08 0)
(0.142451 -2.79091e-09 0)
(0.142451 1.73137e-08 0)
(0.142451 2.74062e-08 0)
(0.142451 3.19528e-08 0)
(0.142451 3.90195e-08 0)
(0.142451 5.49435e-08 0)
(0.142451 7.90106e-08 0)
(0.142451 1.02267e-07 0)
(0.142451 1.11761e-07 0)
(0.142452 9.79008e-08 0)
(0.142452 6.02347e-08 0)
(0.142452 8.8777e-09 0)
(0.142452 -3.98252e-08 0)
(0.142452 -7.06311e-08 0)
(0.142452 -7.55987e-08 0)
(0.142451 -5.68744e-08 0)
(0.142451 -2.49844e-08 0)
(0.142451 6.04423e-09 0)
(0.142451 2.43208e-08 0)
(0.142451 2.46953e-08 0)
(0.142451 1.04313e-08 0)
(0.142451 -8.68618e-09 0)
(0.142451 -2.07721e-08 0)
(0.142451 -1.74718e-08 0)
(0.142451 1.26151e-09 0)
(0.142452 2.67529e-08 0)
(0.142452 4.53099e-08 0)
(0.142452 4.50173e-08 0)
(0.142452 2.23338e-08 0)
(0.142452 -1.61267e-08 0)
(0.142452 -5.66574e-08 0)
(0.142452 -8.49529e-08 0)
(0.142452 -9.20746e-08 0)
(0.142451 -7.73197e-08 0)
(0.142451 -4.66659e-08 0)
(0.142451 -1.05995e-08 0)
(0.142451 1.94334e-08 0)
(0.142451 3.51276e-08 0)
(0.142451 3.46122e-08 0)
(0.142451 2.4297e-08 0)
(0.142451 1.61408e-08 0)
(0.142451 1.95786e-08 0)
(0.142451 3.41679e-08 0)
(0.142452 4.96802e-08 0)
(0.142452 5.40182e-08 0)
(0.142452 4.25592e-08 0)
(0.142452 2.10044e-08 0)
(0.142452 7.18676e-10 0)
(0.142452 -7.7269e-09 0)
(0.142452 6.10485e-10 0)
(0.142452 2.77668e-08 0)
(0.142452 7.52187e-08 0)
(0.142452 1.43144e-07 0)
(0.142452 2.2403e-07 0)
(0.142452 2.98613e-07 0)
(0.142452 3.49478e-07 0)
(0.142452 3.61202e-07 0)
(0.142451 3.23467e-07 0)
(0.142451 2.51849e-07 0)
(0.142451 2.16496e-07 0)
(0.102902 6.06322e-07 0)
(0.102902 5.35835e-07 0)
(0.102903 5.01717e-07 0)
(0.102903 4.54467e-07 0)
(0.102903 3.84092e-07 0)
(0.102904 3.00415e-07 0)
(0.102904 2.15187e-07 0)
(0.102904 1.36291e-07 0)
(0.102904 7.01537e-08 0)
(0.102904 2.35732e-08 0)
(0.102904 -1.93109e-09 0)
(0.102904 -1.30702e-08 0)
(0.102904 -2.0009e-08 0)
(0.102904 -2.94819e-08 0)
(0.102904 -4.16394e-08 0)
(0.102904 -5.10187e-08 0)
(0.102904 -5.17741e-08 0)
(0.102904 -4.24729e-08 0)
(0.102904 -2.67563e-08 0)
(0.102904 -1.02902e-08 0)
(0.102904 1.99251e-09 0)
(0.102904 8.84682e-09 0)
(0.102904 1.13838e-08 0)
(0.102904 1.27015e-08 0)
(0.102904 1.64841e-08 0)
(0.102904 2.50159e-08 0)
(0.102904 3.75407e-08 0)
(0.102904 4.97548e-08 0)
(0.102904 5.53461e-08 0)
(0.102904 4.92446e-08 0)
(0.102904 3.07762e-08 0)
(0.102904 4.81753e-09 0)
(0.102904 -2.02191e-08 0)
(0.102904 -3.608e-08 0)
(0.102904 -3.83258e-08 0)
(0.102904 -2.80181e-08 0)
(0.102904 -1.09117e-08 0)
(0.102904 5.38337e-09 0)
(0.102904 1.47322e-08 0)
(0.102904 1.44479e-08 0)
(0.102904 6.495e-09 0)
(0.102904 -3.83051e-09 0)
(0.102904 -1.05128e-08 0)
(0.102904 -9.24809e-09 0)
(0.102904 1.39017e-10 0)
(0.102904 1.34379e-08 0)
(0.102904 2.40704e-08 0)
(0.102904 2.56634e-08 0)
(0.102904 1.55175e-08 0)
(0.102904 -3.39927e-09 0)
(0.102904 -2.40384e-08 0)
(0.102904 -3.83814e-08 0)
(0.102904 -4.17018e-08 0)
(0.102904 -3.45133e-08 0)
(0.102904 -2.13252e-08 0)
(0.102904 -7.17908e-09 0)
(0.102904 4.39845e-09 0)
(0.102904 1.10966e-08 0)
(0.102904 1.19776e-08 0)
(0.102904 8.17404e-09 0)
(0.102904 3.37304e-09 0)
(0.102904 2.55623e-09 0)
(0.102904 7.67036e-09 0)
(0.102904 1.52737e-08 0)
(0.102904 1.8753e-08 0)
(0.102904 1.37295e-08 0)
(0.102904 1.69611e-09 0)
(0.102904 -1.06069e-08 0)
(0.102904 -1.54301e-08 0)
(0.102904 -9.9319e-09 0)
(0.102904 7.34252e-09 0)
(0.102904 3.73829e-08 0)
(0.102904 8.14191e-08 0)
(0.102904 1.3954e-07 0)
(0.102904 2.06052e-07 0)
(0.102904 2.59041e-07 0)
(0.102905 2.86393e-07 0)
(0.102905 2.9236e-07 0)
(0.102905 2.72004e-07 0)
(0.102905 2.89415e-07 0)
(0.041976 2.07168e-07 0)
(0.0419763 1.63213e-07 0)
(0.0419767 1.40312e-07 0)
(0.0419769 1.19193e-07 0)
(0.0419771 9.51874e-08 0)
(0.0419773 7.13992e-08 0)
(0.0419774 5.00975e-08 0)
(0.0419775 3.12912e-08 0)
(0.0419776 1.49912e-08 0)
(0.0419776 3.26527e-09 0)
(0.0419776 -2.2134e-09 0)
(0.0419776 -3.72393e-09 0)
(0.0419776 -4.56246e-09 0)
(0.0419776 -6.86366e-09 0)
(0.0419775 -1.06311e-08 0)
(0.0419775 -1.37405e-08 0)
(0.0419775 -1.38527e-08 0)
(0.0419775 -1.03918e-08 0)
(0.0419774 -4.97966e-09 0)
(0.0419774 5.51063e-11 0)
(0.0419774 2.78692e-09 0)
(0.0419774 3.17062e-09 0)
(0.0419774 2.31321e-09 0)
(0.0419774 1.57177e-09 0)
(0.0419775 2.16227e-09 0)
(0.0419775 4.39799e-09 0)
(0.0419775 7.69818e-09 0)
(0.0419775 1.08837e-08 0)
(0.0419775 1.24665e-08 0)
(0.0419776 1.12464e-08 0)
(0.0419776 7.02398e-09 0)
(0.0419776 9.35932e-10 0)
(0.0419776 -4.97496e-09 0)
(0.0419776 -8.62555e-09 0)
(0.0419775 -8.83667e-09 0)
(0.0419775 -5.85752e-09 0)
(0.0419775 -1.26598e-09 0)
(0.0419775 2.82531e-09 0)
(0.0419775 4.89146e-09 0)
(0.0419775 4.2882e-09 0)
(0.0419775 1.68974e-09 0)
(0.0419775 -1.23168e-09 0)
(0.0419775 -3.06741e-09 0)
(0.0419775 -2.77001e-09 0)
(0.0419775 -3.48539e-10 0)
(0.0419776 3.11849e-09 0)
(0.0419776 6.34686e-09 0)
(0.0419776 7.74893e-09 0)
(0.0419776 6.16579e-09 0)
(0.0419776 1.89059e-09 0)
(0.0419776 -3.56992e-09 0)
(0.0419776 -7.77055e-09 0)
(0.0419776 -8.93652e-09 0)
(0.0419776 -7.07892e-09 0)
(0.0419775 -4.01582e-09 0)
(0.0419775 -1.64526e-09 0)
(0.0419775 -4.54419e-10 0)
(0.0419775 -8.16455e-11 0)
(0.0419775 2.97592e-12 0)
(0.0419775 -1.2233e-11 0)
(0.0419775 -3.51438e-10 0)
(0.0419775 -7.48325e-10 0)
(0.0419775 -6.72271e-10 0)
(0.0419775 -2.76833e-11 0)
(0.0419775 4.3527e-10 0)
(0.0419775 -4.39011e-10 0)
(0.0419775 -3.08214e-09 0)
(0.0419775 -6.36615e-09 0)
(0.0419775 -8.41088e-09 0)
(0.0419775 -7.80604e-09 0)
(0.0419775 -3.57068e-09 0)
(0.0419775 5.62067e-09 0)
(0.0419776 1.84518e-08 0)
(0.0419776 3.38391e-08 0)
(0.0419777 5.33817e-08 0)
(0.0419778 6.92035e-08 0)
(0.041978 7.68463e-08 0)
(0.0419781 8.35631e-08 0)
(0.0419783 8.66753e-08 0)
(0.0419785 1.07208e-07 0)
)
;

boundaryField
{
    inlet
    {
        type            zeroGradient;
    }
    outlet
    {
        type            zeroGradient;
    }
    walls
    {
        type            noSlip;
    }
    frontAndBack
    {
        type            empty;
    }
}


// ************************************************************************* //
