/*--------------------------------*- C++ -*----------------------------------*\
| =========                 |                                                 |
| \\      /  F ield         | OpenFOAM: The Open Source CFD Toolbox           |
|  \\    /   O peration     | Version:  2406                                  |
|   \\  /    A nd           | Website:  www.openfoam.com                      |
|    \\/     M anipulation  |                                                 |
\*---------------------------------------------------------------------------*/
FoamFile
{
    version     2.0;
    format      ascii;
    arch        "LSB;label=32;scalar=64";
    class       surfaceScalarField;
    location    "2.2";
    object      alphaPhi0.air;
}
// * * * * * * * * * * * * * * * * * * * * * * * * * * * * * * * * * * * * * //

dimensions      [0 3 -1 0 0 0 0];

oriented        oriented;

internalField   nonuniform List<scalar> 
12225
(
0.511141
1.58694e-06
0.511135
6.15339e-06
0.511127
7.69482e-06
0.511121
5.82734e-06
0.511117
4.47732e-06
0.511112
4.42938e-06
0.511108
4.82523e-06
0.511103
4.99791e-06
0.511097
5.21731e-06
0.511092
5.49353e-06
0.511086
5.62846e-06
0.511081
5.75307e-06
0.511075
5.92632e-06
0.511069
6.06283e-06
0.511063
5.97803e-06
0.511057
5.28836e-06
0.511052
4.7834e-06
0.511047
5.03951e-06
0.511042
5.1479e-06
0.511037
5.15666e-06
0.511032
5.43272e-06
0.511026
5.57904e-06
0.511021
5.59103e-06
0.511015
5.50783e-06
0.51101
5.41262e-06
0.511004
5.47021e-06
0.510999
5.47242e-06
0.510993
5.45535e-06
0.510988
5.42242e-06
0.510983
5.19822e-06
0.510978
5.06809e-06
0.510972
5.15151e-06
0.510967
5.2409e-06
0.510962
5.37706e-06
0.510956
5.68018e-06
0.51095
5.92908e-06
0.510944
5.86233e-06
0.510939
5.50825e-06
0.510934
5.06612e-06
0.510929
5.10144e-06
0.510923
5.51582e-06
0.510918
5.48244e-06
0.510912
5.28985e-06
0.510907
5.30547e-06
0.510902
4.99025e-06
0.510897
4.66924e-06
0.510892
4.96447e-06
0.510887
5.58976e-06
0.510881
6.0385e-06
0.510875
6.0823e-06
0.510869
5.9226e-06
0.510863
5.85087e-06
0.510857
5.61553e-06
0.510852
5.28121e-06
0.510847
5.23609e-06
0.510842
5.03382e-06
0.510837
4.68243e-06
0.510832
4.93525e-06
0.510827
5.42346e-06
0.510821
5.51801e-06
0.510816
5.42887e-06
0.51081
5.43445e-06
0.510805
5.72172e-06
0.510799
5.92218e-06
0.510793
5.53197e-06
0.510788
5.07958e-06
0.510783
5.02257e-06
0.510778
5.11827e-06
0.510773
5.35672e-06
0.510767
5.61238e-06
0.510761
5.76512e-06
0.510755
5.8637e-06
0.51075
5.63182e-06
0.510744
5.22619e-06
0.510739
5.17336e-06
0.510734
5.47656e-06
0.510728
5.93239e-06
0.510722
6.19977e-06
0.510716
6.03518e-06
0.51071
5.8217e-06
0.510704
5.732e-06
0.510699
5.46126e-06
0.510693
5.16723e-06
0.510688
5.22067e-06
0.510683
5.44425e-06
0.510677
5.39223e-06
0.510672
5.02752e-06
0.510667
4.87647e-06
0.510662
5.14153e-06
0.510657
5.3702e-06
0.510651
5.58373e-06
0.510645
6.04725e-06
0.510639
6.33714e-06
0.510633
6.04076e-06
0.510628
5.42338e-06
0.510622
5.05614e-06
0.510618
4.98514e-06
0.510613
4.88947e-06
0.510608
4.93206e-06
0.510602
5.21289e-06
0.510597
5.44154e-06
0.510592
5.46451e-06
0.510586
5.26699e-06
0.510581
5.17881e-06
0.510576
5.46988e-06
0.51057
5.83843e-06
0.510564
5.91849e-06
0.510558
5.63231e-06
0.510553
5.34354e-06
0.510547
5.42521e-06
0.510542
5.56855e-06
0.510537
5.40897e-06
0.510531
5.10865e-06
0.510526
4.92329e-06
0.510522
4.88683e-06
0.510517
4.90274e-06
0.510512
5.09227e-06
0.510506
5.45213e-06
0.5105
5.66482e-06
0.510495
5.73917e-06
0.510489
5.70926e-06
0.510484
5.50555e-06
0.510478
5.37851e-06
0.510473
5.42344e-06
0.510467
5.45129e-06
0.510462
5.53713e-06
0.510456
5.65053e-06
0.51045
5.61429e-06
0.510445
5.61761e-06
0.510439
5.69095e-06
0.510434
5.65843e-06
0.510428
5.59978e-06
0.510422
5.55495e-06
0.510417
5.44663e-06
0.510412
5.29563e-06
0.510406
5.20254e-06
0.510401
5.17014e-06
0.510396
5.2015e-06
0.510391
5.48439e-06
0.510385
5.93927e-06
0.510378
6.12263e-06
0.510373
5.88785e-06
0.510367
5.57338e-06
0.510362
5.46125e-06
0.510356
5.3902e-06
0.510351
5.23786e-06
0.510346
5.22886e-06
0.51034
5.44763e-06
0.510335
5.70074e-06
0.510329
5.80401e-06
0.510323
5.663e-06
0.510318
5.36935e-06
0.510313
5.18e-06
0.510307
5.18736e-06
0.510302
5.18675e-06
0.510297
5.02143e-06
0.510292
4.89899e-06
0.510287
4.99318e-06
0.510282
5.14933e-06
0.510277
5.42374e-06
0.510271
5.7202e-06
0.510265
5.65567e-06
0.51026
5.43516e-06
0.510255
5.30701e-06
0.510249
5.21864e-06
0.510244
5.22558e-06
0.510239
5.21893e-06
0.510234
5.30975e-06
0.510228
5.72098e-06
0.510222
6.01712e-06
0.510216
6.03669e-06
0.51021
6.10557e-06
0.510204
5.99411e-06
0.510198
5.60735e-06
0.510193
5.42528e-06
0.510187
5.34844e-06
0.510182
5.09556e-06
0.510177
5.07336e-06
0.510172
5.35957e-06
0.510166
5.59349e-06
0.510161
5.64225e-06
0.510155
5.3727e-06
0.51015
5.10907e-06
0.510145
5.31895e-06
0.510139
5.68436e-06
0.510133
5.91957e-06
0.510127
6.0616e-06
0.510121
6.0095e-06
0.510115
5.81948e-06
0.51011
5.64207e-06
0.510104
5.49488e-06
0.510099
5.35577e-06
0.510094
5.23704e-06
0.510088
5.14095e-06
0.510083
5.08537e-06
0.510078
5.17303e-06
0.510073
5.43523e-06
0.510067
5.73934e-06
0.510061
5.8258e-06
0.510056
5.62234e-06
0.51005
5.42378e-06
0.510045
5.39052e-06
0.510039
5.37355e-06
0.510034
5.29645e-06
0.510029
5.15711e-06
0.510024
4.89034e-06
0.510019
4.67071e-06
0.510014
4.85493e-06
0.510009
5.35293e-06
0.510003
5.67284e-06
0.509998
5.62351e-06
0.509992
5.53787e-06
0.509987
5.58155e-06
0.509981
5.57575e-06
0.509976
5.43147e-06
0.509971
5.18253e-06
0.509965
5.12061e-06
0.50996
5.38782e-06
0.509954
5.6029e-06
0.509949
5.66869e-06
0.509943
5.58535e-06
0.509938
5.2183e-06
0.509933
5.00333e-06
0.509928
5.14149e-06
0.509923
5.24262e-06
0.509917
5.29055e-06
0.509912
5.38481e-06
0.509906
5.44248e-06
0.509901
5.4856e-06
0.509895
5.49951e-06
0.50989
5.47725e-06
0.509884
5.51139e-06
0.509879
5.61272e-06
0.509873
5.60673e-06
0.509868
5.40824e-06
0.509863
5.28228e-06
0.509857
5.42349e-06
0.509851
5.69874e-06
0.509846
5.82859e-06
0.50984
5.79971e-06
0.509834
5.9001e-06
0.509828
5.99412e-06
0.509822
5.74023e-06
0.509817
5.27224e-06
0.509812
4.8852e-06
0.509807
4.69374e-06
0.509802
4.87241e-06
0.509797
5.39135e-06
0.509791
6.2386e-06
5.74921e-06
0.511147
-1.65687e-07
0.511152
4.66424e-07
0.511158
1.71598e-06
0.511162
2.6696e-06
0.511163
2.81282e-06
0.511165
2.44959e-06
0.511168
2.09181e-06
0.511171
2.11977e-06
0.511174
2.29566e-06
0.511177
2.284e-06
0.51118
2.26401e-06
0.511184
2.31252e-06
0.511187
2.50676e-06
0.51119
2.83152e-06
0.511193
3.02652e-06
0.511196
3.0741e-06
0.511197
2.97962e-06
0.5112
2.70163e-06
0.511202
2.40784e-06
0.511205
2.17474e-06
0.511209
1.95083e-06
0.511213
2.01169e-06
0.511216
2.29673e-06
0.511219
2.38058e-06
0.511222
2.35888e-06
0.511225
2.28585e-06
0.511229
2.0796e-06
0.511232
2.25503e-06
0.511234
2.76647e-06
0.511237
2.7418e-06
0.511239
2.59437e-06
0.511242
2.80516e-06
0.511244
2.69173e-06
0.511247
2.29237e-06
0.511251
2.06885e-06
0.511255
2.12614e-06
0.511258
2.13476e-06
0.511262
1.76519e-06
0.511265
1.84233e-06
0.511268
2.57681e-06
0.511271
2.89582e-06
0.511273
2.85785e-06
0.511276
2.73342e-06
0.511279
2.40193e-06
0.511281
2.57066e-06
0.511283
2.9128e-06
0.511285
2.73026e-06
0.511288
2.60137e-06
0.511292
2.42885e-06
0.511296
2.17224e-06
0.511299
2.38593e-06
0.511302
2.55527e-06
0.511306
2.48145e-06
0.511308
2.56517e-06
0.511311
2.61973e-06
0.511313
2.75457e-06
0.511315
3.01349e-06
0.511317
2.94097e-06
0.51132
2.68944e-06
0.511323
2.34178e-06
0.511326
1.80088e-06
0.51133
1.65603e-06
0.511334
1.91284e-06
0.511338
1.96822e-06
0.511341
2.05044e-06
0.511344
2.28266e-06
0.511347
2.3271e-06
0.51135
2.32621e-06
0.511353
2.46863e-06
0.511355
2.71468e-06
0.511358
2.92303e-06
0.511361
2.69129e-06
0.511365
2.20488e-06
0.511368
2.15445e-06
0.511371
2.367e-06
0.511374
2.49781e-06
0.511377
2.69503e-06
0.51138
2.83693e-06
0.511384
2.88065e-06
0.511387
2.82154e-06
0.51139
2.59729e-06
0.511393
2.58545e-06
0.511395
2.71858e-06
0.511398
2.53975e-06
0.511401
2.28105e-06
0.511404
2.42961e-06
0.511406
2.8234e-06
0.511408
2.95512e-06
0.51141
2.73563e-06
0.511413
2.48482e-06
0.511416
2.37042e-06
0.51142
2.29844e-06
0.511424
2.32313e-06
0.511428
2.43578e-06
0.511431
2.45565e-06
0.511433
2.66199e-06
0.511435
2.99553e-06
0.511437
2.88943e-06
0.511439
2.78581e-06
0.511441
3.02176e-06
0.511444
2.96041e-06
0.511447
2.57855e-06
0.51145
2.10815e-06
0.511454
1.66034e-06
0.511457
1.72279e-06
0.511461
2.15516e-06
0.511464
2.40692e-06
0.511468
2.53828e-06
0.51147
2.5614e-06
0.511473
2.52252e-06
0.511476
2.65259e-06
0.511479
2.86944e-06
0.511481
3.08479e-06
0.511483
3.09324e-06
0.511485
2.77748e-06
0.511487
2.51996e-06
0.51149
2.29138e-06
0.511493
1.91936e-06
0.511497
1.87552e-06
0.511501
2.26142e-06
0.511504
2.51457e-06
0.511507
2.52747e-06
0.51151
2.39564e-06
0.511513
2.23526e-06
0.511516
2.33381e-06
0.511519
2.47731e-06
0.511522
2.51296e-06
0.511525
2.83136e-06
0.511527
3.21593e-06
0.51153
3.2388e-06
0.511532
3.14206e-06
0.511535
2.95199e-06
0.511538
2.54613e-06
0.511541
2.27065e-06
0.511544
2.13013e-06
0.511548
2.04158e-06
0.511551
2.22655e-06
0.511553
2.42756e-06
0.511556
2.43734e-06
0.51156
2.39758e-06
0.511564
2.24649e-06
0.511567
2.20154e-06
0.511571
2.4735e-06
0.511573
2.68693e-06
0.511576
2.70204e-06
0.511579
2.75252e-06
0.511581
2.87526e-06
0.511583
2.92426e-06
0.511586
2.79827e-06
0.51159
2.57504e-06
0.511593
2.29561e-06
0.511596
1.93952e-06
0.5116
1.80099e-06
0.511603
1.93864e-06
0.511606
2.04484e-06
0.511609
2.19973e-06
0.511611
2.54561e-06
0.511613
2.86434e-06
0.511616
2.94156e-06
0.511618
2.79706e-06
0.511621
2.61614e-06
0.511624
2.49988e-06
0.511627
2.47335e-06
0.51163
2.44467e-06
0.511633
2.29022e-06
0.511636
2.05468e-06
0.51164
1.91775e-06
0.511643
2.10052e-06
0.511646
2.38725e-06
0.51165
2.43524e-06
0.511653
2.47578e-06
0.511657
2.5021e-06
0.511661
2.38322e-06
0.511664
2.42705e-06
0.511667
2.52095e-06
0.51167
2.4439e-06
0.511672
2.35276e-06
0.511675
2.28694e-06
0.511678
2.42295e-06
0.511681
2.79904e-06
0.511684
2.96802e-06
0.511686
2.87102e-06
0.511688
2.8121e-06
0.511691
2.71107e-06
0.511694
2.49489e-06
0.511698
2.40802e-06
0.511701
2.49679e-06
0.511705
2.66422e-06
0.511707
2.90226e-06
0.51171
3.03984e-06
0.511713
2.93829e-06
0.511715
2.6735e-06
0.511718
2.51717e-06
0.511721
2.60133e-06
0.511723
2.62809e-06
0.511726
2.46266e-06
0.511729
2.30698e-06
0.511732
2.15028e-06
0.511736
1.99035e-06
0.51174
1.99665e-06
0.511743
2.12317e-06
0.511746
2.27806e-06
0.511749
2.59073e-06
0.511751
2.91213e-06
0.511753
3.15631e-06
0.511755
3.32084e-06
0.511757
3.1207e-06
0.511759
2.79011e-06
0.511761
2.68923e-06
0.511765
2.48775e-06
0.511768
2.21039e-06
0.511771
2.4088e-06
0.511774
2.87514e-06
0.511777
2.80254e-06
0.51178
2.15156e-06
0.511783
1.67046e-06
0.511787
1.77465e-06
0.51179
2.24726e-06
0.511793
2.61348e-06
0.511796
2.6563e-06
0.511799
2.54009e-06
0.511802
2.45263e-06
0.511804
2.57275e-06
0.511806
2.80135e-06
0.511809
2.80248e-06
0.511811
2.66512e-06
0.511814
2.47315e-06
0.511818
2.14033e-06
0.511821
1.9884e-06
0.511824
2.27967e-06
0.511827
2.85817e-06
0.511829
3.35139e-06
0.511831
3.32168e-06
0.511834
2.84458e-06
0.511837
2.38882e-06
0.51184
2.21659e-06
0.511843
2.35267e-06
0.511846
2.66982e-06
0.511849
2.97267e-06
0.511852
3.14203e-06
0.511855
3.18173e-06
0.511858
3.10482e-06
0.51186
3.03521e-06
0.511863
2.99968e-06
0.511865
2.81358e-06
0.511867
2.67076e-06
0.511869
2.68535e-06
0.511872
2.59876e-06
0.511875
2.50384e-06
2.7436e-06
0.511145
3.23732e-07
0.511144
1.10841e-06
0.511144
1.63646e-06
0.511145
1.88041e-06
0.511146
1.75637e-06
0.511147
1.40752e-06
0.511148
1.43808e-06
0.511148
1.73257e-06
0.511148
2.00039e-06
0.511148
2.32307e-06
0.511148
2.70776e-06
0.511147
2.99575e-06
0.511147
2.92733e-06
0.511147
2.48863e-06
0.511148
2.19235e-06
0.511149
2.23909e-06
0.51115
2.15666e-06
0.51115
1.89549e-06
0.511151
1.77181e-06
0.511152
1.67029e-06
0.511152
1.59071e-06
0.511152
1.73333e-06
0.511153
1.94038e-06
0.511153
2.19911e-06
0.511153
2.50904e-06
0.511152
2.49501e-06
0.511152
2.5267e-06
0.511151
2.69307e-06
0.511152
2.34612e-06
0.511153
1.85039e-06
0.511154
1.72247e-06
0.511154
2.02771e-06
0.511154
2.63843e-06
0.511154
2.69778e-06
0.511154
2.02977e-06
0.511155
1.46973e-06
0.511155
1.43616e-06
0.511155
1.88738e-06
0.511155
2.36679e-06
0.511155
2.43114e-06
0.511156
2.12442e-06
0.511157
1.92447e-06
0.511157
2.06936e-06
0.511158
2.01245e-06
0.511158
1.95052e-06
0.511159
2.45028e-06
0.511159
2.63739e-06
0.511159
2.18017e-06
0.51116
2.08732e-06
0.511159
2.52758e-06
0.511159
2.84421e-06
0.511159
2.80584e-06
0.511158
2.63205e-06
0.511159
2.374e-06
0.511159
2.19487e-06
0.51116
2.24523e-06
0.51116
2.26624e-06
0.511161
2.24943e-06
0.511161
2.422e-06
0.511161
2.61667e-06
0.51116
2.45332e-06
0.51116
1.99645e-06
0.51116
1.6452e-06
0.511161
1.45623e-06
0.511162
1.31858e-06
0.511162
1.36464e-06
0.511163
1.55828e-06
0.511164
1.78757e-06
0.511164
2.08369e-06
0.511165
2.25963e-06
0.511165
2.24311e-06
0.511166
2.14829e-06
0.511166
1.96994e-06
0.511166
2.11204e-06
0.511166
2.60141e-06
0.511166
2.70551e-06
0.511166
2.46988e-06
0.511166
2.4248e-06
0.511167
2.53596e-06
0.511167
2.58804e-06
0.511167
2.61847e-06
0.511167
2.75695e-06
0.511167
2.79407e-06
0.511166
2.63529e-06
0.511166
2.49824e-06
0.511166
2.41452e-06
0.511167
2.44353e-06
0.511167
2.55973e-06
0.511167
2.46275e-06
0.511168
2.20877e-06
0.511168
2.11989e-06
0.511168
2.24667e-06
0.511168
2.39243e-06
0.511168
2.63026e-06
0.511167
3.09439e-06
0.511167
3.15545e-06
0.511167
2.55048e-06
0.511168
2.04705e-06
0.511169
1.82058e-06
0.51117
1.67652e-06
0.511171
1.83584e-06
0.511172
1.90849e-06
0.511172
1.64153e-06
0.511172
1.64033e-06
0.511172
1.74339e-06
0.511173
1.70973e-06
0.511173
2.01893e-06
0.511173
2.47893e-06
0.511173
2.76841e-06
0.511173
3.05511e-06
0.511172
2.99823e-06
0.511172
2.64669e-06
0.511173
2.57496e-06
0.511173
2.57937e-06
0.511174
2.55406e-06
0.511174
2.61947e-06
0.511173
2.39892e-06
0.511173
1.99966e-06
0.511173
1.76196e-06
0.511174
1.70013e-06
0.511175
1.9677e-06
0.511175
2.2118e-06
0.511175
2.05649e-06
0.511175
2.10983e-06
0.511175
2.49027e-06
0.511175
2.66734e-06
0.511175
2.78399e-06
0.511175
2.87405e-06
0.511175
2.79456e-06
0.511176
2.79785e-06
0.511176
2.6486e-06
0.511177
2.20847e-06
0.511177
1.97224e-06
0.511178
1.87794e-06
0.511178
1.73559e-06
0.511178
1.83862e-06
0.511178
2.1118e-06
0.511179
2.31621e-06
0.511179
2.45233e-06
0.511179
2.31777e-06
0.511179
2.07803e-06
0.511179
2.11494e-06
0.511179
2.08899e-06
0.51118
1.92412e-06
0.511181
2.03529e-06
0.511181
2.22865e-06
0.511182
2.4132e-06
0.511182
2.67173e-06
0.511182
2.59867e-06
0.511182
2.32723e-06
0.511182
2.23152e-06
0.511182
2.09952e-06
0.511182
1.9804e-06
0.511182
2.00785e-06
0.511182
2.02484e-06
0.511182
2.13572e-06
0.511182
2.33539e-06
0.511183
2.49704e-06
0.511183
2.64285e-06
0.511183
2.61121e-06
0.511183
2.4389e-06
0.511184
2.29422e-06
0.511184
2.16314e-06
0.511184
2.11762e-06
0.511184
2.09043e-06
0.511184
1.99254e-06
0.511184
1.91621e-06
0.511185
1.80456e-06
0.511185
1.78739e-06
0.511186
1.97603e-06
0.511186
2.09026e-06
0.511187
2.06554e-06
0.511187
2.07248e-06
0.511187
2.06709e-06
0.511188
2.07341e-06
0.511188
2.14755e-06
0.511188
2.06205e-06
0.511189
1.881e-06
0.511189
1.93347e-06
0.51119
2.03896e-06
0.511191
2.11732e-06
0.511191
2.44179e-06
0.511191
2.81091e-06
0.511191
3.02695e-06
0.51119
3.14217e-06
0.51119
2.97127e-06
0.51119
2.63429e-06
0.51119
2.47799e-06
0.51119
2.44499e-06
0.511191
2.47825e-06
0.511191
2.50122e-06
0.511192
2.23986e-06
0.511192
1.96402e-06
0.511193
2.05633e-06
0.511193
2.22632e-06
0.511193
2.18941e-06
0.511194
2.06191e-06
0.511194
2.03603e-06
0.511194
2.10584e-06
0.511194
2.04467e-06
0.511194
1.9789e-06
0.511194
2.13618e-06
0.511194
2.41449e-06
0.511194
2.69754e-06
0.511195
2.82878e-06
0.511195
2.7421e-06
0.511196
2.62446e-06
0.511196
2.5017e-06
0.511196
2.38216e-06
0.511196
2.43035e-06
0.511196
2.42286e-06
0.511196
2.14443e-06
0.511197
1.91794e-06
0.511198
1.86532e-06
0.511199
1.87136e-06
0.511198
2.08807e-06
0.511198
2.31681e-06
0.511198
2.13151e-06
0.511199
1.69097e-06
0.5112
1.42587e-06
0.511201
1.708e-06
0.511201
2.39979e-06
0.511201
2.86241e-06
0.5112
2.89406e-06
0.511201
2.71301e-06
0.511201
2.40878e-06
0.511201
2.13375e-06
0.511201
2.02472e-06
0.511201
2.06563e-06
0.511201
2.27215e-06
0.511202
2.5179e-06
0.511202
2.56044e-06
0.511203
2.43934e-06
0.511204
2.38262e-06
0.511204
2.45125e-06
0.511203
2.64847e-06
0.511203
2.82493e-06
0.511203
2.77558e-06
0.511203
2.84091e-06
0.511203
3.26884e-06
0.511202
3.62931e-06
0.511202
3.50827e-06
0.511202
2.90924e-06
0.511203
2.28102e-06
0.511203
2.07472e-06
0.511204
2.2693e-06
0.511204
2.51999e-06
0.511204
2.63266e-06
0.511204
2.5614e-06
2.36422e-06
0.511146
1.77262e-07
0.511146
8.63814e-07
0.511146
1.29717e-06
0.511147
1.34232e-06
0.511147
1.19354e-06
0.511147
1.30624e-06
0.511147
1.60842e-06
0.511147
1.74618e-06
0.511147
2.01462e-06
0.511147
2.34868e-06
0.511148
2.308e-06
0.511148
2.21823e-06
0.511149
2.30112e-06
0.511149
2.29841e-06
0.511149
2.1594e-06
0.511149
2.03216e-06
0.51115
1.81659e-06
0.51115
1.58716e-06
0.51115
1.47919e-06
0.511151
1.4628e-06
0.511151
1.42923e-06
0.511151
1.34974e-06
0.511151
1.62228e-06
0.511151
2.16705e-06
0.511152
2.37868e-06
0.511152
2.39854e-06
0.511152
2.40563e-06
0.511152
2.20069e-06
0.511153
1.98027e-06
0.511153
1.90448e-06
0.511153
1.75294e-06
0.511153
1.63118e-06
0.511154
1.6712e-06
0.511155
1.63707e-06
0.511156
1.45879e-06
0.511156
1.32266e-06
0.511156
1.41024e-06
0.511156
1.83638e-06
0.511156
2.19028e-06
0.511156
2.29108e-06
0.511156
2.57092e-06
0.511155
2.54328e-06
0.511155
1.87818e-06
0.511156
1.68782e-06
0.511156
2.04562e-06
0.511156
2.00727e-06
0.511157
1.83474e-06
0.511157
1.92042e-06
0.511157
1.97847e-06
0.511158
2.12122e-06
0.511158
2.31657e-06
0.511158
2.40147e-06
0.511159
2.53345e-06
0.511158
2.58087e-06
0.511158
2.26977e-06
0.511159
1.90152e-06
0.511159
1.88048e-06
0.511159
1.9043e-06
0.51116
1.61947e-06
0.511161
1.4749e-06
0.511162
1.74149e-06
0.511162
2.00813e-06
0.511162
1.96124e-06
0.511162
1.63035e-06
0.511162
1.32186e-06
0.511162
1.22904e-06
0.511162
1.34892e-06
0.511162
1.59696e-06
0.511162
1.83007e-06
0.511163
1.96775e-06
0.511163
1.76764e-06
0.511164
1.27693e-06
0.511165
1.10798e-06
0.511165
1.54424e-06
0.511166
2.23361e-06
0.511166
2.74654e-06
0.511165
2.78604e-06
0.511165
2.41065e-06
0.511166
2.16069e-06
0.511166
2.24262e-06
0.511166
2.27201e-06
0.511167
2.29394e-06
0.511167
2.55894e-06
0.511167
2.77962e-06
0.511167
2.79243e-06
0.511166
2.7719e-06
0.511166
2.62329e-06
0.511167
2.21788e-06
0.511167
1.86186e-06
0.511167
1.96341e-06
0.511167
2.27821e-06
0.511167
2.2819e-06
0.511167
2.2517e-06
0.511167
2.43944e-06
0.511168
2.45881e-06
0.511169
2.41872e-06
0.511169
2.48815e-06
0.511169
2.3747e-06
0.511168
2.21907e-06
0.511168
1.96726e-06
0.511168
1.29803e-06
0.51117
7.91393e-07
0.51117
8.63231e-07
0.511171
1.01154e-06
0.511172
1.19296e-06
0.511172
1.48166e-06
0.511172
1.68025e-06
0.511173
2.06609e-06
0.511173
2.53071e-06
0.511173
2.67461e-06
0.511173
2.77551e-06
0.511173
2.87393e-06
0.511173
2.66512e-06
0.511173
2.35984e-06
0.511174
2.18505e-06
0.511174
2.07511e-06
0.511174
2.10735e-06
0.511174
2.24448e-06
0.511174
2.19474e-06
0.511174
1.91419e-06
0.511174
1.67718e-06
0.511174
1.66403e-06
0.511175
1.81048e-06
0.511175
1.98645e-06
0.511175
2.2906e-06
0.511175
2.72273e-06
0.511175
3.00744e-06
0.511174
3.06882e-06
0.511174
2.93329e-06
0.511175
2.58297e-06
0.511175
2.1996e-06
0.511175
1.82685e-06
0.511176
1.41516e-06
0.511177
1.28217e-06
0.511177
1.45944e-06
0.511177
1.57543e-06
0.511177
1.79617e-06
0.511178
2.11848e-06
0.511178
2.13826e-06
0.511178
2.06604e-06
0.511178
2.07965e-06
0.511178
1.93872e-06
0.511179
1.80281e-06
0.511179
1.85612e-06
0.511179
2.03829e-06
0.511179
2.33633e-06
0.511179
2.42028e-06
0.511179
2.13082e-06
0.51118
1.81702e-06
0.511181
1.57659e-06
0.511181
1.45104e-06
0.511182
1.67955e-06
0.511182
1.92311e-06
0.511182
1.92331e-06
0.511182
2.0229e-06
0.511182
2.13047e-06
0.511182
2.03679e-06
0.511183
2.1341e-06
0.511183
2.42686e-06
0.511183
2.471e-06
0.511183
2.38588e-06
0.511183
2.24486e-06
0.511183
1.86415e-06
0.511184
1.51857e-06
0.511185
1.35436e-06
0.511185
1.34038e-06
0.511186
1.60381e-06
0.511186
1.84873e-06
0.511186
1.90335e-06
0.511186
1.93482e-06
0.511186
1.77511e-06
0.511186
1.53611e-06
0.511187
1.5747e-06
0.511187
1.69786e-06
0.511188
1.65818e-06
0.511188
1.61758e-06
0.511189
1.77562e-06
0.511188
2.03423e-06
0.511188
2.166e-06
0.511188
2.0911e-06
0.511188
1.93572e-06
0.511189
1.9067e-06
0.511189
2.14917e-06
0.51119
2.59166e-06
0.51119
2.87424e-06
0.51119
2.83022e-06
0.51119
2.68292e-06
0.51119
2.56051e-06
0.51119
2.44102e-06
0.51119
2.27981e-06
0.511191
2.05142e-06
0.511191
1.87487e-06
0.511191
1.78674e-06
0.511192
1.74698e-06
0.511192
1.84188e-06
0.511192
1.92752e-06
0.511193
1.71911e-06
0.511193
1.36498e-06
0.511194
1.28636e-06
0.511195
1.62389e-06
0.511194
2.15278e-06
0.511194
2.61704e-06
0.511194
2.76301e-06
0.511194
2.49635e-06
0.511194
2.1321e-06
0.511195
2.153e-06
0.511195
2.44984e-06
0.511195
2.46699e-06
0.511196
2.17223e-06
0.511196
2.0583e-06
0.511196
2.15588e-06
0.511196
2.05637e-06
0.511196
1.73648e-06
0.511197
1.46409e-06
0.511197
1.34328e-06
0.511198
1.34728e-06
0.511199
1.46013e-06
0.511199
1.67828e-06
0.511199
1.85956e-06
0.511199
1.81963e-06
0.511199
1.82121e-06
0.511199
2.02034e-06
0.5112
2.15491e-06
0.5112
2.23488e-06
0.511201
2.29588e-06
0.511201
2.17637e-06
0.511201
2.1084e-06
0.511201
2.22149e-06
0.511201
2.35985e-06
0.5112
2.47161e-06
0.511201
2.3863e-06
0.511201
2.1522e-06
0.511201
2.03335e-06
0.511202
2.09651e-06
0.511202
2.43422e-06
0.511201
2.87389e-06
0.511201
3.00949e-06
0.511201
2.9292e-06
0.511201
2.90884e-06
0.511201
2.91912e-06
0.511202
2.99361e-06
0.511203
3.05276e-06
0.511203
2.89061e-06
0.511202
2.71752e-06
0.511202
2.63857e-06
0.511201
2.58749e-06
0.511201
2.51249e-06
0.511202
2.21709e-06
0.511202
1.78715e-06
1.70653e-06
0.511146
1.24485e-07
0.511146
6.18078e-07
0.511146
9.81688e-07
0.511147
1.00483e-06
0.511147
1.12684e-06
0.511147
1.31627e-06
0.511147
1.44206e-06
0.511147
1.86956e-06
0.511146
2.19728e-06
0.511147
2.04981e-06
0.511147
1.93117e-06
0.511147
2.14508e-06
0.511147
2.1134e-06
0.511148
1.67117e-06
0.511149
1.50214e-06
0.511149
1.57046e-06
0.511149
1.61579e-06
0.511149
1.5301e-06
0.51115
1.16941e-06
0.51115
9.66431e-07
0.511151
1.10096e-06
0.511151
1.29593e-06
0.511151
1.5272e-06
0.511151
1.62452e-06
0.511152
1.69848e-06
0.511152
1.97226e-06
0.511153
1.9435e-06
0.511153
1.54346e-06
0.511154
1.54729e-06
0.511154
1.84699e-06
0.511154
1.73606e-06
0.511154
1.45774e-06
0.511155
1.2696e-06
0.511155
1.15011e-06
0.511155
1.02536e-06
0.511156
9.06954e-07
0.511156
1.26812e-06
0.511156
1.91488e-06
0.511156
2.28972e-06
0.511156
2.34859e-06
0.511156
1.96255e-06
0.511157
1.59845e-06
0.511157
1.90671e-06
0.511157
2.09357e-06
0.511157
1.74645e-06
0.511158
1.66311e-06
0.511158
1.67147e-06
0.511158
1.52865e-06
0.511158
1.74202e-06
0.511158
2.06205e-06
0.511158
2.20839e-06
0.511159
2.28467e-06
0.511159
2.1117e-06
0.51116
1.82463e-06
0.51116
1.68238e-06
0.51116
1.78817e-06
0.51116
2.10482e-06
0.51116
2.05683e-06
0.51116
1.57598e-06
0.51116
1.46122e-06
0.51116
1.60267e-06
0.511161
1.31967e-06
0.511162
9.49607e-07
0.511163
9.20825e-07
0.511163
1.1018e-06
0.511163
1.37482e-06
0.511162
1.63429e-06
0.511162
1.6942e-06
0.511163
1.54099e-06
0.511163
1.24397e-06
0.511164
1.02282e-06
0.511164
1.28088e-06
0.511164
1.67866e-06
0.511163
1.73941e-06
0.511164
1.8693e-06
0.511164
2.0526e-06
0.511165
2.08982e-06
0.511165
2.27624e-06
0.511165
2.4234e-06
0.511165
2.30541e-06
0.511165
2.18059e-06
0.511165
2.09905e-06
0.511166
2.04076e-06
0.511166
2.18053e-06
0.511167
2.39517e-06
0.511167
2.39856e-06
0.511167
2.29596e-06
0.511167
2.25044e-06
0.511167
2.13118e-06
0.511167
1.89633e-06
0.511168
1.86018e-06
0.511168
2.15728e-06
0.511168
2.4745e-06
0.511167
2.6026e-06
0.511167
2.45213e-06
0.511168
1.97599e-06
0.511169
1.60826e-06
0.511169
1.65154e-06
0.51117
1.66914e-06
0.511171
1.40928e-06
0.511171
1.11998e-06
0.511171
9.48046e-07
0.51117
9.54593e-07
0.51117
1.03652e-06
0.511171
1.06686e-06
0.511171
1.16847e-06
0.511171
1.35472e-06
0.511172
1.63255e-06
0.511172
2.0639e-06
0.511172
2.42733e-06
0.511173
2.52765e-06
0.511173
2.45668e-06
0.511173
2.39433e-06
0.511173
2.40367e-06
0.511173
2.36176e-06
0.511173
2.22106e-06
0.511173
2.08867e-06
0.511173
2.00359e-06
0.511173
1.91186e-06
0.511174
1.70175e-06
0.511174
1.42232e-06
0.511174
1.43384e-06
0.511174
1.76439e-06
0.511174
2.07266e-06
0.511174
2.31095e-06
0.511174
2.57935e-06
0.511174
2.81594e-06
0.511175
2.90044e-06
0.511175
2.69298e-06
0.511175
2.20245e-06
0.511176
1.65959e-06
0.511176
1.25703e-06
0.511177
1.01609e-06
0.511177
1.03089e-06
0.511177
1.41589e-06
0.511177
1.80112e-06
0.511177
1.81421e-06
0.511177
1.61658e-06
0.511178
1.45637e-06
0.511179
1.50459e-06
0.511179
1.71568e-06
0.511179
1.75478e-06
0.511179
1.6657e-06
0.511179
1.72112e-06
0.51118
1.79875e-06
0.51118
1.75014e-06
0.511181
1.7618e-06
0.511181
1.87521e-06
0.511181
1.84315e-06
0.511181
1.62297e-06
0.511181
1.43682e-06
0.511181
1.30139e-06
0.511182
1.27634e-06
0.511182
1.49302e-06
0.511183
1.76749e-06
0.511183
2.01599e-06
0.511183
2.21502e-06
0.511183
2.21527e-06
0.511183
2.19367e-06
0.511183
2.13639e-06
0.511184
1.85911e-06
0.511184
1.63111e-06
0.511185
1.47149e-06
0.511185
1.27817e-06
0.511185
1.29691e-06
0.511185
1.42376e-06
0.511185
1.39081e-06
0.511186
1.2865e-06
0.511186
1.30598e-06
0.511187
1.45817e-06
0.511187
1.5843e-06
0.511187
1.59621e-06
0.511187
1.49529e-06
0.511187
1.34656e-06
0.511188
1.19016e-06
0.511188
1.04879e-06
0.511189
1.18407e-06
0.511189
1.56141e-06
0.51119
1.74436e-06
0.51119
1.79461e-06
0.51119
1.96631e-06
0.51119
2.18313e-06
0.51119
2.43776e-06
0.511189
2.63658e-06
0.51119
2.59059e-06
0.51119
2.48809e-06
0.51119
2.46776e-06
0.51119
2.4037e-06
0.511191
2.20488e-06
0.511191
1.83248e-06
0.511192
1.58227e-06
0.511192
1.70834e-06
0.511192
1.83365e-06
0.511192
1.75896e-06
0.511192
1.6778e-06
0.511192
1.57232e-06
0.511193
1.45145e-06
0.511192
1.45497e-06
0.511192
1.52554e-06
0.511192
1.59166e-06
0.511193
1.68624e-06
0.511194
1.80379e-06
0.511194
2.04594e-06
0.511194
2.4049e-06
0.511194
2.53458e-06
0.511194
2.33874e-06
0.511194
2.05942e-06
0.511195
1.79798e-06
0.511195
1.70881e-06
0.511195
1.91109e-06
0.511195
2.14768e-06
0.511195
2.02905e-06
0.511196
1.54334e-06
0.511196
1.15114e-06
0.511196
1.11179e-06
0.511196
1.16585e-06
0.511197
1.11677e-06
0.511197
1.05949e-06
0.511198
1.16426e-06
0.511198
1.46432e-06
0.511198
1.72264e-06
0.511199
1.85399e-06
0.511199
1.97427e-06
0.511199
2.03443e-06
0.511199
1.99205e-06
0.5112
1.91608e-06
0.5112
1.84644e-06
0.5112
1.89682e-06
0.5112
2.10087e-06
0.511201
2.19797e-06
0.511201
2.11178e-06
0.511201
2.12471e-06
0.511201
2.30725e-06
0.5112
2.59539e-06
0.5112
2.88646e-06
0.5112
2.86309e-06
0.5112
2.6731e-06
0.5112
2.67657e-06
0.511201
2.73994e-06
0.511201
2.80855e-06
0.511201
2.89451e-06
0.511201
2.81907e-06
0.511201
2.76274e-06
0.511201
2.83796e-06
0.511201
2.75486e-06
0.511201
2.51065e-06
0.511201
2.15547e-06
0.511202
1.7232e-06
0.511202
1.3368e-06
1.22616e-06
0.511146
7.34955e-08
0.511146
2.64344e-07
0.511147
4.84736e-07
0.511147
8.53596e-07
0.511147
1.16781e-06
0.511147
1.27813e-06
0.511147
1.55742e-06
0.511147
1.78706e-06
0.511147
1.67715e-06
0.511148
1.8631e-06
0.511147
2.03205e-06
0.511148
1.67149e-06
0.511149
1.39441e-06
0.511149
1.33341e-06
0.511149
1.14039e-06
0.51115
1.00782e-06
0.51115
1.12527e-06
0.511151
1.16938e-06
0.511151
1.21312e-06
0.511151
1.12748e-06
0.511151
9.45958e-07
0.511151
1.23163e-06
0.511151
1.71906e-06
0.51115
2.01177e-06
0.51115
2.00743e-06
0.51115
1.66432e-06
0.511151
1.35328e-06
0.511151
1.21223e-06
0.511152
1.13616e-06
0.511152
1.23163e-06
0.511152
1.40577e-06
0.511153
1.26432e-06
0.511153
8.58998e-07
0.511154
6.91678e-07
0.511154
8.58933e-07
0.511153
1.20945e-06
0.511153
1.32826e-06
0.511154
1.38237e-06
0.511155
1.57161e-06
0.511155
1.63569e-06
0.511156
1.68403e-06
0.511156
1.61521e-06
0.511156
1.37199e-06
0.511157
1.52568e-06
0.511157
1.74535e-06
0.511157
1.55272e-06
0.511157
1.6204e-06
0.511156
1.94454e-06
0.511156
2.00762e-06
0.511156
2.15467e-06
0.511156
2.14462e-06
0.511157
1.64592e-06
0.511157
1.47578e-06
0.511158
1.55e-06
0.511158
1.32649e-06
0.511159
1.1959e-06
0.51116
1.11673e-06
0.511161
1.0804e-06
0.511161
1.38458e-06
0.511161
1.4166e-06
0.511161
1.13547e-06
0.511161
1.11707e-06
0.511161
1.05176e-06
0.511161
8.73692e-07
0.511162
8.89034e-07
0.511162
8.63688e-07
0.511163
9.57714e-07
0.511163
1.40374e-06
0.511163
1.47586e-06
0.511163
1.15726e-06
0.511163
1.02708e-06
0.511164
9.91102e-07
0.511164
1.28266e-06
0.511164
1.8151e-06
0.511164
1.96075e-06
0.511164
1.97227e-06
0.511164
2.02434e-06
0.511164
1.78098e-06
0.511165
1.59466e-06
0.511166
1.81981e-06
0.511166
2.09881e-06
0.511166
2.16824e-06
0.511166
2.18944e-06
0.511165
2.31707e-06
0.511165
2.4359e-06
0.511166
2.28212e-06
0.511166
1.84554e-06
0.511167
1.59811e-06
0.511167
1.79516e-06
0.511167
2.06904e-06
0.511166
2.29677e-06
0.511166
2.53046e-06
0.511166
2.47217e-06
0.511166
2.13669e-06
0.511167
1.8133e-06
0.511168
1.53294e-06
0.511168
1.34841e-06
0.511168
1.26311e-06
0.511169
1.2066e-06
0.511169
1.05667e-06
0.511169
8.36385e-07
0.51117
6.37168e-07
0.51117
4.87727e-07
0.511171
5.43319e-07
0.511171
8.41421e-07
0.511171
1.13604e-06
0.511171
1.30806e-06
0.511171
1.45245e-06
0.511171
1.63282e-06
0.511172
1.85662e-06
0.511172
2.11071e-06
0.511173
2.22757e-06
0.511173
2.12694e-06
0.511173
2.03766e-06
0.511174
2.07843e-06
0.511174
2.02519e-06
0.511174
1.96191e-06
0.511174
2.01661e-06
0.511174
1.78186e-06
0.511175
1.23797e-06
0.511175
9.89437e-07
0.511175
1.25738e-06
0.511175
1.81133e-06
0.511175
2.3459e-06
0.511175
2.59436e-06
0.511174
2.65393e-06
0.511175
2.65729e-06
0.511175
2.40692e-06
0.511176
1.95885e-06
0.511176
1.61811e-06
0.511177
1.36336e-06
0.511177
1.17646e-06
0.511177
1.08899e-06
0.511177
9.258e-07
0.511177
9.63443e-07
0.511178
1.47127e-06
0.511178
1.84927e-06
0.511177
1.82731e-06
0.511177
1.77996e-06
0.511177
1.62349e-06
0.511177
1.30456e-06
0.511178
1.16249e-06
0.511178
1.16516e-06
0.511179
1.25706e-06
0.511179
1.5325e-06
0.511179
1.69349e-06
0.511179
1.52262e-06
0.51118
1.2238e-06
0.511181
1.00723e-06
0.511182