/*--------------------------------*- C++ -*----------------------------------*\
| =========                 |                                                 |
| \\      /  F ield         | OpenFOAM: The Open Source CFD Toolbox           |
|  \\    /   O peration     | Version:  2406                                  |
|   \\  /    A nd           | Website:  www.openfoam.com                      |
|    \\/     M anipulation  |                                                 |
\*---------------------------------------------------------------------------*/
FoamFile
{
    version     2.0;
    format      ascii;
    arch        "LSB;label=32;scalar=64";
    class       volScalarField;
    location    "2.2";
    object      p_rgh;
}
// * * * * * * * * * * * * * * * * * * * * * * * * * * * * * * * * * * * * * //

dimensions      [1 -1 -2 0 0 0 0];

internalField   nonuniform List<scalar> 
6250
(
-3.4834
-3227.16
-1038.02
539.08
494.452
25.3088
-135.396
-58.0884
18.3826
24.7675
4.62286
-4.96426
-2.68119
1.02042
1.75541
0.940302
0.408803
0.44652
0.61973
0.677124
0.650617
0.622857
0.619787
0.628793
0.632257
0.629292
0.623069
0.61695
0.61754
0.614848
0.60222
0.595423
0.596429
0.598325
0.60227
0.604739
0.605558
0.602335
0.592526
0.588367
0.590286
0.584065
0.573788
0.571725
0.573621
0.571358
0.569809
0.576236
0.585499
0.585794
0.57922
0.575655
0.573742
0.57302
0.572559
0.56723
0.564845
0.568001
0.566491
0.562352
0.557443
0.548946
0.546683
0.548148
0.545654
0.550384
0.556615
0.552943
0.552536
0.559641
0.561081
0.555344
0.553516
0.554393
0.549775
0.542077
0.536325
0.534802
0.531706
0.523076
0.512906
0.501591
0.495871
0.497397
0.496496
0.494031
0.491584
0.488117
0.486006
0.483347
0.478907
0.474926
0.472645
0.471319
0.471324
0.472588
0.471287
0.470339
0.471815
0.467593
0.456786
0.445371
0.439976
0.442806
0.445377
0.445349
0.445079
0.442156
0.436514
0.429005
0.422736
0.416787
0.406646
0.398835
0.398493
0.399879
0.397885
0.394328
0.392528
0.390578
0.388266
0.386968
0.383702
0.37834
0.372805
0.368212
0.367179
0.367721
0.364992
0.360591
0.359297
0.359576
0.357581
0.357788
0.361567
0.360955
0.356497
0.351041
0.34142
0.331286
0.326633
0.327647
0.327956
0.32209
0.316352
0.316151
0.317082
0.315406
0.311181
0.303669
0.293719
0.28566
0.280102
0.275093
0.2682
0.259545
0.256806
0.260917
0.264829
0.266429
0.267626
0.269227
0.267598
0.264628
0.264869
0.264624
0.26382
0.264576
0.265384
0.264669
0.262852
0.263376
0.2621
0.2566
0.252889
0.248637
0.242008
0.236028
0.229555
0.221936
0.213588
0.207428
0.206117
0.206478
0.205194
0.203974
0.204542
0.203562
0.200916
0.199747
0.198818
0.197353
0.194412
0.190007
0.188072
0.188595
0.187632
0.184293
0.179975
0.175315
0.173304
0.1732
0.170338
0.167083
0.161051
0.150776
0.144555
0.141509
0.141626
0.145073
0.143981
0.140079
0.134048
0.125372
0.11985
0.114608
0.108881
0.10653
0.104824
0.103145
0.103485
0.103283
0.0980575
0.0899806
0.083963
0.0807842
0.0812455
0.0804119
0.0736598
0.0673247
0.0636862
0.0601998
0.0566348
0.0531326
0.0526611
0.0529591
0.0502134
0.0471494
0.043635
0.0394629
0.0373145
0.0382787
0.0393529
0.0367384
0.0315349
0.023611
0.0150115
0.00873788
0.00682727
-0.00181227
-3.51368
-3227.23
-1038.06
539.086
494.468
25.3108
-135.401
-58.0909
18.3797
24.7641
4.62438
-4.9628
-2.68436
1.01679
1.75275
0.938575
0.410032
0.446891
0.6177
0.676616
0.65122
0.625204
0.624042
0.629256
0.62888
0.626273
0.620071
0.613223
0.612757
0.612569
0.605988
0.600022
0.600743
0.603265
0.600444
0.59665
0.601223
0.604628
0.598126
0.591522
0.585016
0.576539
0.573769
0.573435
0.573236
0.575299
0.574479
0.574526
0.578739
0.579073
0.578689
0.580346
0.578901
0.577285
0.571695
0.562608
0.564021
0.569033
0.565189
0.560616
0.557172
0.55019
0.547637
0.548899
0.548074
0.549827
0.549634
0.548331
0.552841
0.557533
0.561111
0.560398
0.556781
0.557406
0.552825
0.541695
0.534149
0.531203
0.528611
0.521417
0.511257
0.504202
0.500698
0.494896
0.488599
0.490043
0.495384
0.498005
0.49472
0.484092
0.474484
0.470084
0.468758
0.47104
0.473707
0.474242
0.472631
0.469579
0.466934
0.462432
0.457092
0.452072
0.445987
0.443453
0.443412
0.442745
0.443661
0.442453
0.435961
0.427617
0.421215
0.41601
0.410619
0.405017
0.397185
0.392776
0.39448
0.394663
0.394891
0.395134
0.39117
0.386687
0.381431
0.374651
0.369877
0.367004
0.366102
0.365975
0.364158
0.362541
0.362072
0.361733
0.361165
0.360009
0.358908
0.358829
0.358685
0.352107
0.339227
0.329329
0.323335
0.323014
0.327237
0.323817
0.318236
0.319855
0.320108
0.31593
0.309942
0.301969
0.295708
0.290374
0.279908
0.269725
0.264705
0.259031
0.256782
0.261581
0.266022
0.267428
0.267504
0.268774
0.268504
0.264903
0.263484
0.263128
0.262933
0.264325
0.265419
0.26599
0.263988
0.260796
0.258459
0.256331
0.255899
0.252419
0.243538
0.233539
0.225273
0.220942
0.216902
0.211448
0.208
0.205106
0.202244
0.200764
0.201247
0.203171
0.203665
0.202584
0.200961
0.196686
0.190529
0.188996
0.192031
0.191854
0.186797
0.18161
0.179392
0.176847
0.173958
0.17412
0.17114
0.164665
0.15842
0.151429
0.147457
0.143599
0.141146
0.145454
0.145668
0.139758
0.132966
0.124018
0.116628
0.111036
0.10716
0.106326
0.106293
0.107965
0.108216
0.103428
0.0964269
0.0899463
0.08545
0.0810038
0.0777877
0.077032
0.0724027
0.0662405
0.0643158
0.0620544
0.0566571
0.0529018
0.0537197
0.0523595
0.0466679
0.0442363
0.0437976
0.0424221
0.0410734
0.0391498
0.0374096
0.0357414
0.0332885
0.0262546
0.0155604
0.00595747
-0.00267385
-0.00133473
-3.51156
-3227.22
-1038.05
539.091
494.47
25.3114
-135.401
-58.0895
18.3801
24.7644
4.62637
-4.95833
-2.68012
1.0196
1.75427
0.93674
0.407925
0.448605
0.621414
0.678815
0.651913
0.623092
0.618963
0.630771
0.636882
0.628019
0.61894
0.615981
0.614942
0.612387
0.602797
0.594973
0.599862
0.60544
0.602802
0.60024
0.602585
0.604167
0.599706
0.592267
0.585804
0.579964
0.572874
0.568676
0.571842
0.575184
0.576271
0.577975
0.577781
0.579032
0.583303
0.582937
0.578159
0.575551
0.57201
0.566335
0.563493
0.562674
0.561683
0.560163
0.557956
0.553869
0.550146
0.549975
0.549201
0.548253
0.549553
0.55186
0.55565
0.558659
0.559666
0.556777
0.554386
0.55613
0.551763
0.543986
0.539841
0.534729
0.52735
0.517706
0.508922
0.50478
0.503719
0.500046
0.491789
0.48801
0.489734
0.490835
0.490802
0.486507
0.479266
0.474316
0.471811
0.471631
0.473062
0.476144
0.477605
0.471961
0.463419
0.455936
0.450264
0.4477
0.445769
0.446192
0.44935
0.44992
0.446803
0.440483
0.432589
0.4258
0.422894
0.419808
0.409173
0.399477
0.396944
0.395076
0.393697
0.394519
0.396402
0.396056
0.391465
0.386419
0.380495
0.373463
0.370114
0.370845
0.371614
0.366872
0.359202
0.3584
0.361259
0.361311
0.362506
0.364031
0.362086
0.358537
0.353874
0.345961
0.33794
0.334503
0.33057
0.325896
0.325244
0.321798
0.317909
0.320529
0.319798
0.312441
0.306449
0.301584
0.295639
0.290185
0.282186
0.271633
0.264159
0.258625
0.256678
0.261818
0.267617
0.268641
0.266994
0.267671
0.26784
0.264334
0.262969
0.262453
0.262603
0.265846
0.266675
0.266095
0.264489
0.26073
0.259869
0.258894
0.255528
0.252339
0.24496
0.231919
0.221387
0.218206
0.2162
0.211847
0.208679
0.207483
0.206408
0.203406
0.20185
0.204866
0.205341
0.200365
0.196337
0.194576
0.192168
0.190836
0.191079
0.188906
0.183304
0.178269
0.179299
0.181483
0.178365
0.176095
0.172671
0.1642
0.156367
0.148662
0.144109
0.144166
0.144453
0.14661
0.145646
0.1392
0.132217
0.123533
0.115901
0.111793
0.10932
0.108843
0.108702
0.107419
0.104535
0.100816
0.0969571
0.0909653
0.0854069
0.0812078
0.0775017
0.0762273
0.0734671
0.0685046
0.0653404
0.0621261
0.0586048
0.0550166
0.0508219
0.047497
0.0457098
0.0453433
0.0435907
0.0414243
0.0414956
0.0425465
0.0427547
0.037349
0.0278519
0.0197341
0.0137252
0.00872928
0.00263881
0.000392742
-3.51532
-3227.23
-1038.07
539.078
494.463
25.3124
-135.4
-58.0927
18.3796
24.7653
4.62095
-4.96753
-2.68948
1.0117
1.75425
0.940315
0.40854
0.451005
0.624172
0.676696
0.649357
0.624653
0.621652
0.62735
0.62845
0.622825
0.619117
0.616824
0.612267
0.609254
0.605577
0.601005
0.601293
0.603755
0.603916
0.598944
0.594815
0.599814
0.600608
0.590221
0.582668
0.580631
0.57702
0.572064
0.569943
0.572085
0.575759
0.578494
0.579847
0.580328
0.580944
0.580691
0.576108
0.569477
0.568132
0.570423
0.568263
0.564259
0.563506
0.560111
0.553811
0.549183
0.547833
0.550116
0.549684
0.548039
0.549558
0.551528
0.554833
0.557535
0.561451
0.564061
0.557719
0.550423
0.545063
0.540655
0.539503
0.536382
0.528572
0.51768
0.508146
0.501679
0.496432
0.495277
0.497403
0.49815
0.495603
0.492099
0.488676
0.483322
0.479274
0.476496
0.472537
0.471221
0.47039
0.469812
0.473396
0.472485
0.464436
0.459124
0.455869
0.450441
0.445896
0.446274
0.448489
0.446624
0.443092
0.439815
0.434038
0.425237
0.418956
0.417494
0.412248
0.403738
0.397987
0.39448
0.394512
0.394269
0.393421
0.395817
0.393883
0.386723
0.380555
0.373108
0.366205
0.366142
0.369377
0.368364
0.364216
0.361882
0.361288
0.361601
0.362377
0.362449
0.362461
0.359173
0.350634
0.341622
0.335192
0.333586
0.333101
0.328615
0.32585
0.323587
0.318742
0.318636
0.318765
0.311548
0.304832
0.300779
0.293844
0.28796
0.281769
0.271052
0.26419
0.261724
0.259511
0.261938
0.267383
0.270342
0.268671
0.265868
0.265187
0.263542
0.262555
0.262529
0.261861
0.264012
0.267324
0.268668
0.265322
0.258993
0.257618
0.256666
0.251583
0.247926
0.244079
0.236622
0.227417
0.220317
0.217136
0.212549
0.20502
0.203546
0.208629
0.208522
0.203642
0.202875
0.203265
0.199795
0.194119
0.190553
0.191758
0.193602
0.192156
0.189615
0.185546
0.178057
0.174754
0.177842
0.178311
0.17672
0.173248
0.165386
0.157483
0.149695
0.145722
0.14696
0.145689
0.144047
0.141248
0.135083
0.13117
0.126527
0.119428
0.113008
0.10743
0.106886
0.110553
0.110688
0.105709
0.100494
0.0958062
0.0894736
0.0846572
0.0807971
0.0749274
0.0730634
0.0746835
0.0723067
0.0660876
0.0604556
0.0584411
0.0555668
0.0499439
0.0466798
0.0444183
0.0431807
0.0437318
0.0430387
0.0419024
0.0418575
0.0419021
0.0384037
0.0306757
0.020355
0.0107873
0.00586458
0.00306396
0.00129337
-3.51938
-3227.23
-1038.07
539.08
494.467
25.314
-135.402
-58.0928
18.3828
24.7699
4.62478
-4.96624
-2.68722
1.01368
1.75203
0.940116
0.411927
0.451174
0.623761
0.680122
0.651985
0.624325
0.623359
0.630186
0.628113
0.620642
0.616588
0.617937
0.615442
0.609024
0.60596
0.603706
0.602925
0.602812
0.601235
0.600979
0.601423
0.602216
0.598824
0.590456
0.585186
0.580322
0.573787
0.572828
0.573619
0.571723
0.574081
0.578984
0.581812
0.583931
0.583146
0.581127
0.577471
0.570372
0.567313
0.567749
0.565015
0.563878
0.565947
0.561408
0.554269
0.553075
0.550607
0.546513
0.546497
0.549606
0.551669
0.552943
0.556789
0.557248
0.557723
0.563323
0.562539
0.554181
0.545546
0.540573
0.539607
0.534676
0.524866
0.51635
0.510847
0.504742
0.499278
0.497581
0.495779
0.495139
0.495861
0.493311
0.489709
0.48581
0.480742
0.476311
0.473433
0.47267
0.472505
0.472441
0.47299
0.470621
0.464768
0.456744
0.448755
0.447083
0.449641
0.452358
0.453894
0.448872
0.441747
0.437724
0.432195
0.425607
0.42079
0.415744
0.408893
0.404705
0.402052
0.396906
0.395259
0.39517
0.393676
0.394674
0.391445
0.384275
0.380253
0.375882
0.371494
0.368543
0.365126
0.364313
0.365022
0.364932
0.364843
0.36157
0.358884
0.362325
0.363805
0.358458
0.35138
0.343103
0.334643
0.332337
0.33254
0.328675
0.325728
0.324747
0.322415
0.319806
0.314768
0.308481
0.304801
0.299537
0.292417
0.288138
0.282431
0.272849
0.265198
0.261408
0.262523
0.266028
0.266883
0.26892
0.269088
0.264259
0.262781
0.262285
0.260977
0.263375
0.265401
0.266362
0.266793
0.264925
0.262669
0.260379
0.259276
0.258471
0.253814
0.247532
0.241458
0.234059
0.22688
0.221413
0.217036
0.212929
0.208983
0.207664
0.210476
0.211282
0.206136
0.201529
0.200168
0.196961
0.192633
0.191942
0.192992
0.192211
0.189619
0.186403
0.183559
0.179778
0.178548
0.18188
0.18065
0.174373
0.168438
0.162191
0.158171
0.153602
0.148611
0.148107
0.146707
0.142775
0.138381
0.132797
0.129774
0.1268
0.120764
0.115719
0.112734
0.11162
0.11072
0.107671
0.103397
0.0986193
0.0939805
0.0893376
0.0853068
0.0821897
0.0771117
0.073029
0.0730986
0.0721518
0.0673032
0.0606773
0.0559815
0.053601
0.0513219
0.0490194
0.0456104
0.0430442
0.0422679
0.0413746
0.0417838
0.0425496
0.0419797
0.0384987
0.0307676
0.0202854
0.0111554
0.00527552
0.0026345
0.00188267
-3.52301
-3227.24
-1038.07
539.079
494.466
25.3102
-135.403
-58.0926
18.3808
24.7662
4.62084
-4.96946
-2.69027
1.01078
1.75126
0.941137
0.412345
0.451673
0.623205
0.674408
0.647711
0.628249
0.625362
0.624906
0.623714
0.621022
0.617864
0.61677
0.612228
0.606344
0.605754
0.605791
0.60634
0.604455
0.597944
0.598157
0.602007
0.599751
0.594252
0.587955
0.583743
0.581936
0.577344
0.572519
0.571462
0.570392
0.572184
0.579327
0.58344
0.582891
0.581262
0.5781
0.575509
0.573422
0.56898
0.565867
0.565061
0.562816
0.562336
0.559229
0.550796
0.549386
0.552445
0.55018
0.547028
0.549347
0.55199
0.551308
0.555325
0.559134
0.559605
0.563101
0.559312
0.549598
0.544518
0.541762
0.539608
0.534503
0.524083
0.514304
0.508826
0.503778
0.49875
0.498276
0.4982
0.496887
0.497063
0.49387
0.488304
0.485501
0.481938
0.47654
0.474217
0.473552
0.472671
0.472389
0.469796
0.465348
0.461919
0.457425
0.452606
0.451457
0.451923
0.452825
0.450892
0.442482
0.438693
0.43997
0.434001
0.425516
0.419946
0.41567
0.411155
0.403948
0.398136
0.39695
0.396985
0.3959
0.396123
0.396164
0.389806
0.381572
0.377366
0.375061
0.372825
0.368021
0.364055
0.365519
0.365544
0.36355
0.3648
0.364325
0.361513
0.36122
0.359659
0.354073
0.348081
0.343348
0.338284
0.33375
0.331822
0.330108
0.326836
0.323167
0.319346
0.316764
0.314918
0.309296
0.301239
0.296789
0.293508
0.287271
0.280315
0.273496
0.267366
0.264211
0.26495
0.266668
0.265997
0.266575
0.26853
0.266387
0.263112
0.261505
0.259843
0.259584
0.26216
0.266729
0.268136
0.265128
0.262589
0.260179
0.258276
0.256425
0.250485
0.244937
0.241564
0.235259
0.22891
0.223336
0.216331
0.212797
0.211483
0.209523
0.21174
0.212605
0.206294
0.201299
0.198438
0.193881
0.191795
0.191865
0.192318
0.192809
0.188244
0.182383
0.182854
0.182183
0.178382
0.179607
0.180331
0.176523
0.170557
0.161925
0.155719
0.152118
0.148268
0.147284
0.145039
0.140714
0.138693
0.136706
0.133512
0.127913
0.120665
0.116154
0.112839
0.110132
0.109645
0.108286
0.104175
0.0985078
0.0935755
0.088662
0.0821353
0.0782635
0.07785
0.076559
0.0742073
0.0717932
0.0675571
0.0604605
0.0552277
0.0528402
0.0493608
0.047364
0.0461043
0.0431784
0.0415377
0.0417534
0.0432093
0.044146
0.0425081
0.036744
0.0275694
0.0191481
0.0116612
0.00516518
0.00304008
0.00224094
-3.52503
-3227.24
-1038.07
539.079
494.463
25.3104
-135.4
-58.0915
18.3806
24.7659
4.61911
-4.9711
-2.68903
1.01358
1.75309
0.942179
0.41149
0.448058
0.621019
0.679424
0.654921
0.62952
0.622854
0.622577
0.622391
0.620447
0.616374
0.615066
0.614016
0.611885
0.609802
0.606301
0.605741
0.60373
0.599996
0.603259
0.60407
0.597307
0.590297
0.585774
0.58628
0.585322
0.577671
0.571956
0.57056
0.572825
0.579193
0.581696
0.580923
0.581454
0.578521
0.577146
0.579731
0.576198
0.568792
0.566278
0.566182
0.563653
0.56058
0.557186
0.552955
0.551303
0.55013
0.548084
0.547317
0.550617
0.555986
0.555451
0.554864
0.559482
0.561563
0.560673
0.557163
0.550742
0.54664
0.545487
0.540988
0.531457
0.52172
0.511549
0.506146
0.508181
0.507462
0.502553
0.496145
0.492244
0.494759
0.495707
0.492848
0.490106
0.48402
0.477386
0.474517
0.47149
0.470392
0.47296
0.473021
0.469137
0.461492
0.452147
0.449095
0.452687
0.455686
0.455376
0.451105
0.443199
0.43902
0.437585
0.432812
0.427488
0.420218
0.413722
0.411069
0.406322
0.40225
0.399519
0.396639
0.397155
0.396731
0.393823
0.38909
0.380617
0.375552
0.376768
0.375373
0.368903
0.363894
0.364059
0.36631
0.365713
0.36424
0.364976
0.363575
0.360484
0.358935
0.354376
0.347006
0.343217
0.34018
0.334134
0.329853
0.328064
0.326161
0.325057
0.32263
0.31777
0.312596
0.305639
0.299305
0.2974
0.294831
0.287975
0.27957
0.272223
0.268312
0.267245
0.268377
0.270871
0.269086
0.265659
0.265774
0.263681
0.260228
0.260622
0.261062
0.26174
0.264845
0.266179
0.264886
0.263023
0.26183
0.260476
0.257209
0.254637
0.252428
0.247193
0.240841
0.234907
0.22927
0.223237
0.216546
0.214179
0.216022
0.21574
0.213626
0.211209
0.206253
0.199836
0.195758
0.194667
0.19366
0.191543
0.190667
0.191075
0.18812
0.182345
0.181089
0.182767
0.18216
0.181066
0.178822
0.173913
0.167871
0.161082
0.15656
0.153525
0.150832
0.150131
0.145883
0.138334
0.135628
0.135603
0.134437
0.131707
0.125261
0.117251
0.111636
0.110134
0.111676
0.110424
0.103242
0.0941421
0.0894523
0.0890948
0.0867746
0.0827556
0.0792292
0.0746359
0.0705909
0.068281
0.0659893
0.0622754
0.0576811
0.0533908
0.0497508
0.0481056
0.045446
0.0408326
0.0398801
0.0426197
0.0455721
0.0460172
0.0419545
0.0345801
0.0261104
0.019104
0.0129902
0.00525606
0.000580477
0.000357902
-3.52746
-3227.24
-1038.07
539.076
494.462
25.3124
-135.397
-58.0907
18.3783
24.7613
4.61712
-4.97093
-2.69091
1.0131
1.75197
0.938808
0.412504
0.451813
0.621902
0.678182
0.65177
0.624404
0.618611
0.620323
0.620963
0.621243
0.618341
0.614522
0.614943
0.613783
0.609725
0.605335
0.602147
0.605123
0.604743
0.600256
0.600483
0.596432
0.587139
0.584046
0.58594
0.585577
0.579454
0.571453
0.569708
0.573225
0.576169
0.5802
0.58286
0.580186
0.578122
0.57837
0.577518
0.575572
0.56982
0.563688
0.563326
0.561987
0.558972
0.55635
0.550718
0.549118
0.552846
0.551301
0.546371
0.54838
0.554743
0.554331
0.555289
0.561034
0.561439
0.559757
0.556651
0.550036
0.545742
0.542475
0.537075
0.530652
0.523212
0.514498
0.508017
0.505403
0.504301
0.502438
0.497097
0.493403
0.495505
0.495741
0.493433
0.489935
0.482366
0.477523
0.477861
0.4754
0.473061
0.472645
0.46712
0.460723
0.457243
0.454642
0.454712
0.45583
0.454742
0.453002
0.44955
0.442763
0.437115
0.43454
0.430976
0.428067
0.424008
0.416368
0.408911
0.403168
0.401968
0.401592
0.398173
0.397394
0.397071
0.393195
0.388017
0.381739
0.375837
0.373042
0.371211
0.368055
0.366822
0.367472
0.36547
0.362968
0.363555
0.364533
0.363334
0.361828
0.359582
0.35381
0.346492
0.340728
0.337046
0.333825
0.330762
0.329629
0.327237
0.321855
0.318118
0.315972
0.311669
0.305242
0.29978
0.297354
0.294728
0.287384
0.277063
0.27089
0.270945
0.270874
0.269653
0.270161
0.269046
0.266327
0.265029
0.262543
0.25943
0.259169
0.25968
0.260763
0.26347
0.264583
0.263816
0.262208
0.260771
0.260525
0.256872
0.251565
0.249495
0.247056
0.24279
0.235347
0.227037
0.22402
0.220203
0.215052
0.21611
0.217516
0.215254
0.212629
0.206815
0.19876
0.194604
0.192583
0.191552
0.192485
0.190029
0.186342
0.185845
0.184669
0.184502
0.184443
0.180129
0.177242
0.176061
0.17336
0.169615
0.162695
0.156102
0.153227
0.149704
0.145422
0.14168
0.139662
0.140975
0.140031
0.134678
0.129906
0.124787
0.118137
0.113647
0.111366
0.1093
0.106916
0.102714
0.0961082
0.0905731
0.0889042
0.0868772
0.0828225
0.07903
0.0745157
0.069455
0.0659927
0.0655563
0.0642208
0.0572286
0.0499377
0.04768
0.0476345
0.0453734
0.0412229
0.0401366
0.0434462
0.0472619
0.0460925
0.0399676
0.033369
0.0266556
0.0196524
0.0122099
0.0040416
-0.000165622
-1.20677e-05
-3.52636
-3227.25
-1038.08
539.075
494.465
25.3138
-135.399
-58.0918
18.3772
24.7612
4.61813
-4.97301
-2.69148
1.01608
1.75389
0.940156
0.411659
0.448287
0.619559
0.677345
0.651458
0.62413
0.619819
0.62069
0.618295
0.620897
0.619826
0.612771
0.613503
0.618853
0.616446
0.606017
0.602434
0.607117
0.603554
0.598546
0.600004
0.594034
0.588143
0.588753
0.587299
0.584155
0.578801
0.572425
0.571867
0.575738
0.580078
0.582005
0.579704
0.576954
0.578524
0.580717
0.578199
0.57499
0.572149
0.566572
0.561605
0.558086
0.556052
0.556681
0.555351
0.551733
0.54975
0.549371
0.550076
0.552051
0.55505
0.55656
0.556232
0.557555
0.560893
0.560802
0.555662
0.552194
0.549314
0.543573
0.536398
0.526809
0.51972
0.515659
0.511226
0.510703
0.509081
0.501431
0.494881
0.492642
0.49375
0.497759
0.498846
0.492835
0.484339
0.478897
0.476808
0.47509
0.472746
0.471563
0.469967
0.464664
0.456352
0.452627
0.454308
0.453887
0.452428
0.453243
0.453444
0.447466
0.437221
0.431535
0.429376
0.426977
0.422414
0.416791
0.413399
0.408737
0.404218
0.402255
0.399343
0.397427
0.395383
0.391515
0.387762
0.382096
0.377008
0.374947
0.371345
0.367548
0.367417
0.365983
0.363611
0.365387
0.366849
0.366335
0.36434
0.359369
0.35705
0.356136
0.348538
0.340026
0.33632
0.332233
0.327863
0.327239
0.327537
0.326119
0.321471
0.313193
0.307625
0.305296
0.301228
0.297353
0.293476
0.286545
0.278707
0.273968
0.273126
0.272394
0.270497
0.270688
0.271886
0.268779
0.26269
0.260228
0.259637
0.258184
0.259519
0.261754
0.261687
0.261893
0.263846
0.262808
0.257932
0.256538
0.256447
0.254467
0.253197
0.247688
0.2407
0.235412
0.227225
0.222439
0.22201
0.219896
0.21928
0.219746
0.217263
0.211875
0.204534
0.198254
0.195847
0.193765
0.191102
0.191597
0.190175
0.186492
0.186366
0.18527
0.183759
0.183618
0.180382
0.176712
0.173876
0.171687
0.170746
0.165485
0.157053
0.151705
0.148882
0.146705
0.143865
0.140321
0.138572
0.13781
0.135972
0.132467
0.125773
0.118772
0.11554
0.113086
0.109542
0.105841
0.100864
0.0951005
0.091325
0.091353
0.0915926
0.0861448
0.077768
0.0715672
0.0667357
0.0632776
0.0637068
0.0643039
0.0595743
0.0532407
0.0481911
0.044037
0.0422026
0.0423928
0.0447428
0.0470965
0.0459958
0.0420371
0.0377843
0.0338746
0.0279756
0.0192728
0.00938875
0.0020434
3.79167e-05
0.00032055
-3.52797
-3227.25
-1038.08
539.077
494.468
25.3135
-135.4
-58.0921
18.3756
24.7591
4.61744
-4.97001
-2.69092
1.01374
1.75388
0.93831
0.40962
0.450278
0.623049
0.677696
0.645746
0.616369
0.614115
0.619593
0.620472
0.620155
0.619886
0.617929
0.617735
0.616038
0.612195
0.60949
0.605702
0.604681
0.602273
0.59525
0.593686
0.594832
0.592222
0.590125
0.586983
0.580645
0.576479
0.577339
0.575746
0.573796
0.577223
0.579292
0.578466
0.578147
0.57832
0.579382
0.578001
0.574559
0.570582
0.564509
0.559582
0.556336
0.554477
0.554197
0.553498
0.553099
0.551288
0.550926
0.551989
0.550761
0.553275
0.55675
0.555031
0.555585
0.559267
0.559805
0.556512
0.552501
0.548022
0.54133
0.534111
0.526408
0.521294
0.51855
0.513182
0.507768
0.503873
0.497899
0.494529
0.497053
0.499481
0.500351
0.498838
0.49097
0.482058
0.478063
0.477429
0.477703
0.47634
0.471557
0.465211
0.460803
0.457053
0.454071
0.453094
0.451274
0.450525
0.453101
0.454175
0.447548
0.436253
0.429766
0.427927
0.425601
0.422209
0.417868
0.414209
0.409601
0.405001
0.403661
0.401388
0.39755
0.39382
0.390057
0.386582
0.382057
0.376935
0.37217
0.368639
0.36816
0.368741
0.366217
0.363883
0.365869
0.365701
0.363769
0.363719
0.360885
0.357577
0.356049
0.348371
0.337545
0.332238
0.329798
0.327553
0.327636
0.327332
0.324414
0.319898
0.312704
0.306894
0.304608
0.301707
0.297135
0.291615
0.284946
0.278526
0.275276
0.275384
0.274063
0.2715
0.270616
0.270221
0.268599
0.263852
0.259233
0.258006
0.257188
0.257499
0.260196
0.261848
0.261001
0.260873
0.260618
0.256424
0.254587
0.255422
0.254366
0.254151
0.248524
0.239204
0.234758
0.228147
0.222826
0.223155
0.220013
0.217926
0.22154
0.22083
0.212935
0.203514
0.196189
0.194298
0.1941
0.190859
0.190272
0.189464
0.18546
0.186866
0.187679
0.183493
0.180975
0.178165
0.175933
0.174824
0.171587
0.168912
0.165449
0.159186
0.152612
0.145666
0.140643
0.140919
0.143291
0.143535
0.139854
0.132536
0.126357
0.124714
0.124017
0.120648
0.113881
0.107551
0.10358
0.0995824
0.0954248
0.0930696
0.092978
0.0923406
0.0858886
0.07639
0.0699411
0.0668228
0.0644653
0.0620248
0.0599816
0.0569191
0.0528718
0.0490871
0.0451312
0.0418861
0.0410971
0.0442288
0.0482235
0.0468288
0.0409548
0.035208
0.0313814
0.0272673
0.0178612
0.00736816
0.00433789
0.00517954
0.00274627
-3.52875
-3227.25
-1038.08
539.076
494.468
25.3145
-135.4
-58.0929
18.3738
24.758
4.61762
-4.97023
-2.69056
1.01337
1.75322
0.939253
0.410197
0.448373
0.618626
0.672782
0.646047
0.620612
0.617022
0.620315
0.61921
0.618014
0.618546
0.616986
0.616351
0.616475
0.615709
0.613509
0.607441
0.602542
0.599858
0.595966
0.59439
0.594351
0.595051
0.592526
0.585314
0.580437
0.578879
0.579116
0.579017
0.576014
0.575426
0.578611
0.580389
0.577911
0.575817
0.578462
0.577686
0.573527
0.572452
0.566465
0.556697
0.554306
0.555482
0.555263
0.554863
0.553756
0.553396
0.554571
0.553508
0.550892
0.551223
0.553294
0.556271
0.559585
0.560405
0.55902
0.554403
0.550133
0.548002
0.542387
0.536239
0.530139
0.522002
0.517803
0.514061
0.508204
0.503352
0.498945
0.497458
0.498102
0.498285
0.499744
0.498608
0.494482
0.490252
0.482216
0.476161
0.475234
0.472648
0.470717
0.469688
0.463461
0.45794
0.45504
0.451518
0.448775
0.448846
0.451667
0.453812
0.448319
0.43813
0.43301
0.428052
0.421571
0.421605
0.421898
0.418368
0.41247
0.405761
0.404019
0.403596
0.398409
0.393929
0.3913
0.386374
0.380775
0.376083
0.371507
0.369449
0.369245
0.368393
0.36728
0.365472
0.365801
0.36741
0.365252
0.364098
0.36236
0.357159
0.352001
0.345668
0.337934
0.333099
0.330844
0.328136
0.326386
0.325659
0.322267
0.317163
0.313964
0.310982
0.306978
0.302049
0.295523
0.286977
0.282995
0.28372
0.280958
0.276534
0.274648
0.272777
0.270874
0.270088
0.268558
0.264449
0.260833
0.258728
0.255852
0.255707
0.257805
0.259389
0.260612
0.260787
0.260229
0.256089
0.252281
0.255757
0.258123
0.254723
0.247248
0.238534
0.234168
0.228785
0.222542
0.222692
0.223848
0.223263
0.223306
0.219498
0.210162
0.20136
0.196864
0.196572
0.196343
0.191939
0.19017
0.191026
0.188244
0.186849
0.185948
0.182257
0.179353
0.175885
0.174691
0.177228
0.176169
0.171804
0.164992
0.155495
0.147688
0.144076
0.143339
0.144348
0.144667
0.142529
0.138345
0.131466
0.126151
0.12601
0.126124
0.121866
0.115221
0.108298
0.102299
0.0986225
0.098927
0.0994489
0.0962025
0.0904141
0.0828753
0.075194
0.0703877
0.0676856
0.0638235
0.0595916
0.0588552
0.0582544
0.0534284
0.0479365
0.0445273
0.0439529
0.0447437
0.045604
0.0465841
0.0443245
0.0392369
0.033975
0.0294533
0.0240722
0.0159182
0.0112395
0.0085969
0.00247274
0.000154608
-3.52991
-3227.25
-1038.08
539.079
494.468
25.3149
-135.399
-58.0945
18.3721
24.7567
4.61638
-4.9697
-2.68959
1.0126
1.75109
0.936476
0.40828
0.448652
0.619083
0.672942
0.643657
0.616348
0.615028
0.620827
0.61998
0.616777
0.617265
0.619164
0.619284
0.617368
0.613806
0.610693
0.606706
0.60288
0.600563
0.596575
0.595217
0.596447
0.594588
0.590447
0.583744
0.580262
0.581657
0.580885
0.580411
0.578511
0.573613
0.57386
0.578254
0.577607
0.576432
0.579423
0.576699
0.570482
0.568611
0.56322
0.556205
0.554788
0.554488
0.553831
0.554698
0.555884
0.554371
0.553639
0.555638
0.553602
0.550086
0.550218
0.55263
0.556569
0.559266
0.559141
0.555851
0.550461
0.546048
0.54047
0.534435
0.530057
0.524889
0.519042
0.512632
0.505361
0.500084
0.497274
0.498106
0.502167
0.503329
0.500792
0.496718
0.491979
0.48818
0.482743
0.477776
0.477864
0.476235
0.471334
0.466879
0.462218
0.455614
0.450713
0.451072
0.451742
0.450892
0.450509
0.448455
0.443638
0.43745
0.432486
0.42793
0.423811
0.423162
0.421535
0.416536
0.41191
0.407602
0.406161
0.405762
0.399607
0.391124
0.388304
0.386544
0.380074
0.375017
0.372524
0.369203
0.367101
0.366811
0.368009
0.368331
0.366088
0.364316
0.363379
0.363263
0.361712
0.356759
0.350918
0.344207
0.335611
0.329887
0.328767
0.328787
0.328288
0.325799
0.32082
0.315617
0.310813
0.308008
0.306333
0.303366
0.297321
0.288641
0.282754
0.281588
0.27903
0.276517
0.27606
0.274818
0.273316
0.270934
0.26738
0.262578
0.258045
0.256437
0.255408
0.255642
0.258253
0.259322
0.257778
0.255739
0.256515
0.256021
0.254208
0.257737
0.258692
0.253102
0.245568
0.237022
0.233324
0.230444
0.222625
0.22011
0.224763
0.22778
0.22543
0.217156
0.206648
0.200256
0.197605
0.197221
0.197354
0.192622
0.189307
0.192058
0.190964
0.186914
0.183262
0.17889
0.178479
0.177627
0.176137
0.177514
0.17543
0.169226
0.163815
0.155564
0.14638
0.141896
0.141503
0.143085
0.144965
0.143048
0.13747
0.131281
0.126631
0.125467
0.124992
0.121836
0.115864
0.108507
0.10197
0.0983705
0.100508
0.103971
0.0997929
0.089591
0.079682
0.0731956
0.0702019
0.0668495
0.0621432
0.0593488
0.059164
0.0576855
0.0531667
0.0477366
0.0433566
0.0424907
0.0443586
0.0468228
0.0465548
0.0404212
0.0350183
0.0338862
0.0305711
0.022372
0.01577
0.0115773
0.00585093
0.000952539
2.63981e-05
-3.53008
-3227.25
-1038.08
539.077
494.468
25.3162
-135.401
-58.0974
18.3732
24.7599
4.61666
-4.97206
-2.69156
1.01077
1.7521
0.940133
0.408786
0.444044
0.614682
0.671056
0.643815
0.617865
0.614034
0.61846
0.619931
0.617739
0.617559
0.616637
0.618586
0.620601
0.613545
0.609415
0.608261
0.603082
0.601102
0.599066
0.597075
0.59634
0.594395
0.591553
0.586461
0.583489
0.582115
0.581038
0.581314
0.57786
0.574236
0.574253
0.57571
0.577851
0.576886
0.57645
0.576754
0.571724
0.566818
0.561849
0.554892
0.552656
0.553897
0.555045
0.557632
0.56019
0.55846
0.555525
0.554249
0.551695
0.550507
0.551117
0.553045
0.558
0.558641
0.556027
0.554695
0.551141
0.547905
0.544583
0.536901
0.530177
0.524381
0.517502
0.511318
0.506248
0.503403
0.501448
0.500146
0.502328
0.504047
0.501322
0.496623
0.493604
0.491721
0.485157
0.478597
0.477723
0.475617
0.474244
0.471631
0.462276
0.453465
0.449742
0.448753
0.450892
0.452698
0.450408
0.447225
0.44365
0.436515
0.431462
0.429412
0.425457
0.424254
0.423138
0.418179
0.414488
0.410404
0.406632
0.405176
0.400301
0.393864
0.390328
0.384605
0.377575
0.37519
0.373409
0.370677
0.369018
0.366779
0.367812
0.368895
0.365212
0.365747
0.367521
0.3632
0.359579
0.355356
0.347073
0.341595
0.337913
0.332328
0.33008
0.330203
0.326988
0.322372
0.318695
0.314429
0.311687
0.312114
0.309063
0.30004
0.29377
0.289739
0.285704
0.284798
0.282157
0.277807
0.27706
0.275953
0.27327
0.270432
0.267082
0.263989
0.259969
0.255725
0.253945
0.255748
0.257284
0.256892
0.256851
0.254478
0.253923
0.257305
0.257842
0.258787
0.257886
0.251099
0.245408
0.238976
0.232023
0.227756
0.223522
0.223036
0.227986
0.229192
0.222665
0.213531
0.206041
0.202664
0.20165
0.199907
0.198888
0.195138
0.190497
0.191813
0.191346
0.186727
0.18356
0.18
0.176756
0.17578
0.176388
0.179379
0.179101
0.171283
0.160262
0.15061
0.144385
0.143335
0.144757
0.144437
0.143383
0.140729
0.135696
0.131586
0.128563
0.126148
0.124497
0.120841
0.114386
0.108528
0.104865
0.103137
0.105085
0.106684
0.100178
0.0882109
0.0790627
0.0740264
0.0693352
0.0636095
0.0614424
0.0612485
0.058735
0.0562273
0.0533867
0.0494339
0.0461714
0.0443335
0.0438137
0.0448614
0.0441259
0.0385767