/*--------------------------------*- C++ -*----------------------------------*\
| =========                 |                                                 |
| \\      /  F ield         | OpenFOAM: The Open Source CFD Toolbox           |
|  \\    /   O peration     | Version:  2406                                  |
|   \\  /    A nd           | Website:  www.openfoam.com                      |
|    \\/     M anipulation  |                                                 |
\*---------------------------------------------------------------------------*/
FoamFile
{
    version     2.0;
    format      ascii;
    arch        "LSB;label=32;scalar=64";
    class       surfaceScalarField;
    location    "2.2";
    object      phi;
}
// * * * * * * * * * * * * * * * * * * * * * * * * * * * * * * * * * * * * * //

dimensions      [0 3 -1 0 0 0 0];

oriented        oriented;

internalField   nonuniform List<scalar> 
12225
(
0.511141
1.61598e-06
0.511135
6.15571e-06
0.511127
7.65013e-06
0.511122
5.86562e-06
0.511117
4.65528e-06
0.511112
4.6837e-06
0.511107
4.98957e-06
0.511102
4.94014e-06
0.511097
5.09833e-06
0.511092
5.36204e-06
0.511087
5.32935e-06
0.511081
5.42333e-06
0.511075
5.77964e-06
0.511069
6.05596e-06
0.511063
6.17688e-06
0.511057
5.84141e-06
0.511052
5.23688e-06
0.511047
5.10285e-06
0.511042
5.12115e-06
0.511037
5.04883e-06
0.511032
5.17397e-06
0.511026
5.22499e-06
0.511021
5.25361e-06
0.511016
5.49712e-06
0.51101
5.62338e-06
0.511004
5.58642e-06
0.510999
5.59504e-06
0.510993
5.65076e-06
0.510987
5.73049e-06
0.510982
5.52922e-06
0.510977
5.07127e-06
0.510972
4.92259e-06
0.510967
4.93741e-06
0.510962
4.93431e-06
0.510957
5.37086e-06
0.510951
5.9947e-06
0.510945
6.10556e-06
0.510939
5.68626e-06
0.510934
5.05932e-06
0.510929
4.90918e-06
0.510923
5.53822e-06
0.510917
5.89705e-06
0.510912
5.55884e-06
0.510907
5.35365e-06
0.510901
5.14781e-06
0.510897
4.65412e-06
0.510892
4.58367e-06
0.510887
5.14703e-06
0.510881
5.88342e-06
0.510875
6.289e-06
0.510869
6.07168e-06
0.510863
5.67305e-06
0.510858
5.39126e-06
0.510852
5.2259e-06
0.510847
5.43883e-06
0.510842
5.51436e-06
0.510836
5.04334e-06
0.510832
4.87542e-06
0.510826
5.19592e-06
0.510821
5.40521e-06
0.510816
5.38538e-06
0.51081
5.31584e-06
0.510805
5.48982e-06
0.510799
5.7327e-06
0.510794
5.54905e-06
0.510788
5.34388e-06
0.510783
5.49314e-06
0.510777
5.39033e-06
0.510772
5.20563e-06
0.510767
5.46031e-06
0.510761
5.64087e-06
0.510755
5.64779e-06
0.51075
5.61425e-06
0.510744
5.26821e-06
0.510739
5.04047e-06
0.510734
5.22747e-06
0.510729
5.62218e-06
0.510723
6.07188e-06
0.510716
6.20661e-06
0.51071
6.13504e-06
0.510704
6.03315e-06
0.510699
5.56086e-06
0.510693
5.13636e-06
0.510688
5.3719e-06
0.510682
5.77751e-06
0.510677
5.68806e-06
0.510671
5.12514e-06
0.510667
4.56032e-06
0.510662
4.53504e-06
0.510657
4.98229e-06
0.510652
5.45914e-06
0.510646
5.91882e-06
0.51064
6.25431e-06
0.510634
6.13714e-06
0.510628
5.71145e-06
0.510623
5.34369e-06
0.510617
5.11719e-06
0.510612
5.05692e-06
0.510607
5.21474e-06
0.510602
5.42873e-06
0.510596
5.37855e-06
0.510591
5.10043e-06
0.510586
4.95744e-06
0.510581
5.05199e-06
0.510576
5.31197e-06
0.51057
5.65452e-06
0.510564
5.81026e-06
0.510559
5.69547e-06
0.510553
5.5495e-06
0.510548
5.53833e-06
0.510542
5.61807e-06
0.510537
5.56193e-06
0.510531
5.19597e-06
0.510526
4.89457e-06
0.510521
5.07771e-06
0.510516
5.24857e-06
0.510511
5.12915e-06
0.510506
5.14618e-06
0.510501
5.23997e-06
0.510495
5.3306e-06
0.51049
5.54038e-06
0.510484
5.6319e-06
0.510479
5.5989e-06
0.510473
5.59825e-06
0.510467
5.55132e-06
0.510462
5.55663e-06
0.510456
5.67038e-06
0.51045
5.74292e-06
0.510445
5.75257e-06
0.510439
5.65676e-06
0.510433
5.50257e-06
0.510428
5.4112e-06
0.510423
5.3178e-06
0.510417
5.3366e-06
0.510412
5.49709e-06
0.510406
5.43624e-06
0.510401
5.16574e-06
0.510396
5.14536e-06
0.510391
5.42822e-06
0.510385
5.73953e-06
0.510379
6.03948e-06
0.510373
6.1259e-06
0.510367
5.84169e-06
0.510361
5.58055e-06
0.510356
5.41375e-06
0.510351
5.17114e-06
0.510346
5.09279e-06
0.51034
5.26941e-06
0.510335
5.57407e-06
0.510329
5.78554e-06
0.510323
5.60443e-06
0.510318
5.26693e-06
0.510313
5.2935e-06
0.510307
5.53712e-06
0.510302
5.51955e-06
0.510297
5.26311e-06
0.510292
5.03157e-06
0.510287
4.93197e-06
0.510282
4.93645e-06
0.510277
5.08634e-06
0.510271
5.41437e-06
0.510266
5.59471e-06
0.51026
5.53177e-06
0.510255
5.48908e-06
0.510249
5.44801e-06
0.510244
5.3707e-06
0.510239
5.2535e-06
0.510233
5.18947e-06
0.510228
5.40876e-06
0.510222
5.65887e-06
0.510216
5.83225e-06
0.51021
6.14433e-06
0.510204
6.22605e-06
0.510198
5.8511e-06
0.510193
5.48524e-06
0.510187
5.33021e-06
0.510182
5.23017e-06
0.510177
5.28292e-06
0.510171
5.46583e-06
0.510166
5.48366e-06
0.510161
5.37068e-06
0.510155
5.21827e-06
0.51015
5.14234e-06
0.510145
5.35979e-06
0.510139
5.64004e-06
0.510133
5.83365e-06
0.510127
6.02915e-06
0.510121
5.99362e-06
0.510116
5.77164e-06
0.51011
5.62203e-06
0.510104
5.53345e-06
0.510099
5.53456e-06
0.510093
5.55226e-06
0.510088
5.33705e-06
0.510083
5.02157e-06
0.510078
5.00728e-06
0.510073
5.33622e-06
0.510067
5.69356e-06
0.510061
5.74067e-06
0.510056
5.52139e-06
0.51005
5.36462e-06
0.510045
5.30184e-06
0.51004
5.34067e-06
0.510034
5.51232e-06
0.510029
5.53108e-06
0.510023
5.24113e-06
0.510019
4.82559e-06
0.510014
4.68592e-06
0.510009
4.94964e-06
0.510004
5.21835e-06
0.509998
5.34385e-06
0.509993
5.49919e-06
0.509987
5.65467e-06
0.509981
5.77304e-06
0.509976
5.80084e-06
0.50997
5.59074e-06
0.509965
5.28549e-06
0.50996
5.22533e-06
0.509954
5.31207e-06
0.509949
5.30945e-06
0.509944
5.3523e-06
0.509938
5.38153e-06
0.509933
5.26598e-06
0.509928
5.1638e-06
0.509923
5.10587e-06
0.509917
5.21833e-06
0.509912
5.51801e-06
0.509906
5.60617e-06
0.509901
5.50563e-06
0.509895
5.4355e-06
0.50989
5.33168e-06
0.509885
5.36179e-06
0.509879
5.60455e-06
0.509873
5.70431e-06
0.509868
5.52711e-06
0.509862
5.42316e-06
0.509857
5.5465e-06
0.509851
5.67701e-06
0.509845
5.69621e-06
0.50984
5.62114e-06
0.509834
5.6346e-06
0.509828
5.8244e-06
0.509823
5.87406e-06
0.509817
5.60081e-06
0.509812
5.18252e-06
0.509807
4.87694e-06
0.509802
4.90354e-06
0.509797
5.21516e-06
0.509791
6.0652e-06
5.69682e-06
0.511147
-2.00587e-07
0.511153
3.28808e-07
0.511159
1.65609e-06
0.511162
2.70166e-06
0.511164
2.83657e-06
0.511166
2.49147e-06
0.511169
2.16788e-06
0.511171
2.12829e-06
0.511174
2.30036e-06
0.511177
2.38078e-06
0.51118
2.3415e-06
0.511183
2.24315e-06
0.511187
2.33119e-06
0.51119
2.63036e-06
0.511193
2.92321e-06
0.511196
3.16783e-06
0.511198
3.13192e-06
0.511201
2.78372e-06
0.511203
2.42717e-06
0.511206
2.24151e-06
0.511209
2.11435e-06
0.511212
2.19122e-06
0.511215
2.45795e-06
0.511218
2.25297e-06
0.511222
1.97733e-06
0.511225
2.26807e-06
0.511228
2.32587e-06
0.511232
2.18413e-06
0.511235
2.46681e-06
0.511238
2.68484e-06
0.51124
2.79652e-06
0.511242
2.94098e-06
0.511244
2.73049e-06
0.511247
2.4435e-06
0.51125
2.21243e-06
0.511254
2.0355e-06
0.511258
2.13789e-06
0.511262
2.07338e-06
0.511265
1.85679e-06
0.511268
2.13026e-06
0.511271
2.47679e-06
0.511274
2.6012e-06
0.511277
2.82728e-06
0.511279
2.79745e-06
0.511282
2.65118e-06
0.511284
2.7866e-06
0.511286
2.65057e-06
0.511288
2.49162e-06
0.511291
2.6286e-06
0.511295
2.47966e-06
0.511299
2.29492e-06
0.511302
2.40229e-06
0.511305
2.48632e-06
0.511308
2.56813e-06
0.511311
2.50273e-06
0.511314
2.42026e-06
0.511316
2.78039e-06
0.511318
3.13918e-06
0.51132
3.05638e-06
0.511323
2.78496e-06
0.511326
2.29914e-06
0.511329
1.79625e-06
0.511333
1.74035e-06
0.511337
1.79564e-06
0.511341
1.8984e-06
0.511344
2.17855e-06
0.511347
2.21745e-06
0.51135
2.13347e-06
0.511353
2.24262e-06
0.511356
2.48841e-06
0.511359
2.88712e-06
0.511362
3.01771e-06
0.511365
2.61184e-06
0.511368
2.31538e-06
0.51137
2.35997e-06
0.511373
2.31335e-06
0.511376
2.28407e-06
0.51138
2.51088e-06
0.511383
2.8722e-06
0.511386
3.10877e-06
0.511389
2.96913e-06
0.511392
2.72213e-06
0.511395
2.54665e-06
0.511398
2.26766e-06
0.511402
2.15989e-06
0.511405
2.42134e-06
0.511407
2.82047e-06
0.511409
3.11686e-06
0.51141
2.99813e-06
0.511413
2.58392e-06
0.511416
2.30781e-06
0.511419
2.19218e-06
0.511423
2.21104e-06
0.511427
2.39122e-06
0.51143
2.46754e-06
0.511433
2.4524e-06
0.511436
2.52705e-06
0.511438
2.61605e-06
0.511441
2.82676e-06
0.511443
3.22044e-06
0.511445
3.4013e-06
0.511447
3.15146e-06
0.511449
2.56804e-06
0.511452
1.87144e-06
0.511456
1.45886e-06
0.51146
1.53743e-06
0.511464
1.98727e-06
0.511467
2.53719e-06
0.51147
2.75311e-06
0.511473
2.64726e-06
0.511476
2.53328e-06
0.511479
2.53718e-06
0.511482
2.91096e-06
0.511483
3.20932e-06
0.511485
2.87846e-06
0.511488
2.61665e-06
0.511491
2.6056e-06
0.511493
2.27954e-06
0.511497
1.96354e-06
0.5115
2.0429e-06
0.511503
2.23172e-06
0.511507
2.41895e-06
0.51151
2.52641e-06
0.511513
2.44807e-06
0.511516
2.36224e-06
0.511519
2.24588e-06
0.511523
2.13984e-06
0.511526
2.51077e-06
0.511529
3.15174e-06
0.511531
3.37397e-06
0.511533
3.30178e-06
0.511535
3.17193e-06
0.511538
2.75813e-06
0.511541
2.28699e-06
0.511544
2.05234e-06
0.511548
2.04612e-06
0.511551
2.35601e-06
0.511553
2.6555e-06
0.511556
2.58051e-06
0.511559
2.29315e-06
0.511563
2.00892e-06
0.511567
2.05121e-06
0.511571
2.43045e-06
0.511574
2.63355e-06
0.511577
2.59766e-06
0.511579
2.58392e-06
0.511582
2.72416e-06
0.511584
3.00928e-06
0.511586
3.12873e-06
0.511589
2.93432e-06
0.511592
2.65997e-06
0.511595
2.26163e-06
0.511599
1.80295e-06
0.511602
1.71718e-06
0.511606
1.91266e-06
0.511609
2.07082e-06
0.511612
2.28974e-06
0.511614
2.56972e-06
0.511617
2.74733e-06
0.511619
2.79639e-06
0.511621
2.77361e-06
0.511624
2.69676e-06
0.511627
2.60361e-06
0.51163
2.52831e-06
0.511633
2.4113e-06
0.511636
2.26248e-06
0.51164
2.0943e-06
0.511643
1.99129e-06
0.511646
2.1449e-06
0.511649
2.32821e-06
0.511653
2.41935e-06
0.511656
2.53323e-06
0.51166
2.4743e-06
0.511664
2.40183e-06
0.511667
2.47438e-06
0.511669
2.40559e-06
0.511672
2.29107e-06
0.511675
2.32594e-06
0.511678
2.48378e-06
0.511681
2.75145e-06
0.511684
2.91227e-06
0.511686
2.87662e-06
0.511688
2.79499e-06
0.511691
2.6422e-06
0.511694
2.42507e-06
0.511698
2.35515e-06
0.511701
2.43479e-06
0.511705
2.50762e-06
0.511708
2.67622e-06
0.51171
2.99425e-06
0.511713
3.19449e-06
0.511715
3.01833e-06
0.511718
2.64173e-06
0.511721
2.48352e-06
0.511724
2.54739e-06
0.511726
2.57611e-06
0.511729
2.55594e-06
0.511732
2.50671e-06
0.511735
2.30752e-06
0.511739
2.0108e-06
0.511742
1.90509e-06
0.511746
1.97378e-06
0.511749
2.1765e-06
0.511752
2.54952e-06
0.511754
2.95446e-06
0.511756
3.31485e-06
0.511758
3.37031e-06
0.511759
2.96984e-06
0.511762
2.64506e-06
0.511764
2.5643e-06
0.511767
2.45334e-06
0.51177
2.48016e-06
0.511773
2.70673e-06
0.511776
2.78612e-06
0.51178
2.49188e-06
0.511783
2.01427e-06
0.511787
1.766e-06
0.51179
1.90289e-06
0.511793
2.21161e-06
0.511796
2.48886e-06
0.511799
2.63242e-06
0.511801
2.58927e-06
0.511804
2.53252e-06
0.511807
2.66606e-06
0.511809
2.7753e-06
0.511812
2.70361e-06
0.511814
2.60892e-06
0.511818
2.45328e-06
0.511821
2.20463e-06
0.511824
2.12144e-06
0.511827
2.4353e-06
0.51183
2.93443e-06
0.511832
3.08758e-06
0.511835
2.90865e-06
0.511838
2.79719e-06
0.51184
2.66215e-06
0.511843
2.46533e-06
0.511847
2.50957e-06
0.511849
2.79095e-06
0.511852
3.02406e-06
0.511855
3.08829e-06
0.511857
3.00559e-06
0.51186
2.8764e-06
0.511863
2.91972e-06
0.511865
3.04737e-06
0.511867
2.9775e-06
0.511869
2.76566e-06
0.511872
2.52296e-06
0.511876
2.4041e-06
2.68752e-06
0.511145
2.16441e-07
0.511144
1.0315e-06
0.511144
1.68403e-06
0.511145
2.09608e-06
0.511146
2.01772e-06
0.511147
1.45628e-06
0.511148
1.35491e-06
0.511148
1.64894e-06
0.511149
1.74409e-06
0.511149
1.9233e-06
0.511149
2.51575e-06
0.511148
3.05167e-06
0.511147
3.27266e-06
0.511147
3.07771e-06
0.511147
2.46291e-06
0.511148
2.14981e-06
0.511149
2.14383e-06
0.51115
1.86974e-06
0.511151
1.67735e-06
0.511151
1.75671e-06
0.511152
1.7042e-06
0.511152
1.51427e-06
0.511153
1.51672e-06
0.511153
2.03727e-06
0.511153
2.68762e-06
0.511152
2.74896e-06
0.511152
2.52787e-06
0.511152
2.52928e-06
0.511152
2.53608e-06
0.511152
2.31008e-06
0.511153
1.82776e-06
0.511154
1.59063e-06
0.511155
2.10552e-06
0.511155
2.57824e-06
0.511155
2.27071e-06
0.511155
1.90458e-06
0.511155
1.90397e-06
0.511155
1.84979e-06
0.511155
1.90047e-06
0.511155
2.239e-06
0.511155
2.36144e-06
0.511156
2.17216e-06
0.511157
1.95153e-06
0.511158
1.82627e-06
0.511158
1.9675e-06
0.511159
2.35797e-06
0.511159
2.54498e-06
0.511159
2.31647e-06
0.51116
2.02557e-06
0.51116
2.13365e-06
0.51116
2.53639e-06
0.511159
2.73207e-06
0.511159
2.79562e-06
0.511159
2.88703e-06
0.511159
2.65687e-06
0.511159
2.18018e-06
0.51116
2.00246e-06
0.511161
2.1445e-06
0.511161
2.30963e-06
0.511162
2.49006e-06
0.511161
2.61449e-06
0.511161
2.43935e-06
0.51116
2.02442e-06
0.511161
1.63502e-06
0.511161
1.43104e-06
0.511162
1.40017e-06
0.511163
1.45242e-06
0.511163
1.60295e-06
0.511164
1.83742e-06
0.511164
2.07904e-06
0.511165
2.10289e-06
0.511166
1.8672e-06
0.511167
1.81098e-06
0.511167
2.15018e-06
0.511167
2.61567e-06
0.511166
2.81567e-06
0.511166
2.66102e-06
0.511166
2.44142e-06
0.511166
2.37783e-06
0.511167
2.46887e-06
0.511167
2.57702e-06
0.511167
2.77161e-06
0.511167
3.10045e-06
0.511166
3.04996e-06
0.511166
2.42645e-06
0.511166
1.94548e-06
0.511167
2.05609e-06
0.511168
2.43234e-06
0.511168
2.65517e-06
0.511168
2.53756e-06
0.511168
2.18699e-06
0.511168
2.01611e-06
0.511168
2.11726e-06
0.511168
2.34058e-06
0.511168
2.82758e-06
0.511167
3.2879e-06
0.511167
3.07548e-06
0.511167
2.5244e-06
0.511167
2.14085e-06
0.511169
1.80513e-06
0.511171
1.67108e-06
0.511172
1.79115e-06
0.511173
1.73218e-06
0.511173
1.57834e-06
0.511173
1.53812e-06
0.511173
1.62518e-06
0.511173
1.88762e-06
0.511173
2.19023e-06
0.511174
2.47436e-06
0.511173
2.9113e-06
0.511173
3.21207e-06
0.511172
2.98173e-06
0.511173
2.57431e-06
0.511173
2.42278e-06
0.511174
2.51307e-06
0.511174
2.61309e-06
0.511174
2.45376e-06
0.511174
2.2514e-06
0.511174
2.10643e-06
0.511174
1.77017e-06
0.511175
1.66967e-06
0.511175
1.95961e-06
0.511176
2.05559e-06
0.511176
2.13127e-06
0.511176
2.49099e-06
0.511175
2.73116e-06
0.511175
2.77272e-06
0.511174
2.70049e-06
0.511175
2.53365e-06
0.511176
2.61833e-06
0.511176
2.7391e-06
0.511177
2.48916e-06
0.511178
2.25287e-06
0.511178
2.10134e-06
0.511178
1.76623e-06
0.511178
1.67174e-06
0.511179
2.03083e-06
0.511179
2.39455e-06
0.511179
2.60096e-06
0.511179
2.52226e-06
0.511179
2.11864e-06
0.511179
1.92056e-06
0.511179
1.94467e-06
0.51118
1.85872e-06
0.511181
1.94146e-06
0.511181
2.15075e-06
0.511182
2.31879e-06
0.511182
2.63231e-06
0.511182
2.76285e-06
0.511183
2.57198e-06
0.511183
2.46192e-06
0.511183
2.32785e-06
0.511182
2.10475e-06
0.511182
2.04795e-06
0.511182
1.98851e-06
0.511182
1.90112e-06
0.511182
2.01968e-06
0.511183
2.2687e-06
0.511183
2.50672e-06
0.511183
2.54702e-06
0.511184
2.45649e-06
0.511184
2.48059e-06
0.511184
2.42582e-06
0.511184
2.27325e-06
0.511184
2.18901e-06
0.511185
2.07775e-06
0.511185
2.01396e-06
0.511185
1.93938e-06
0.511185
1.77131e-06
0.511186
1.75281e-06
0.511186
1.9138e-06
0.511187
2.07806e-06
0.511187
2.14278e-06
0.511187
2.15716e-06
0.511187
2.25466e-06
0.511188
2.37078e-06
0.511188
2.21496e-06
0.511188
1.78261e-06
0.511189
1.62062e-06
0.51119
1.85033e-06
0.511191
2.00244e-06
0.511191
2.20939e-06
0.511192
2.6679e-06
0.511191
2.96625e-06
0.511191
2.90344e-06
0.51119
2.69223e-06
0.51119
2.5882e-06
0.51119
2.63469e-06
0.51119
2.60804e-06
0.511191
2.54471e-06
0.511191
2.68778e-06
0.511192
2.71133e-06
0.511192
2.29851e-06
0.511192
1.96547e-06
0.511193
2.05062e-06
0.511193
2.14862e-06
0.511194
2.07232e-06
0.511194
2.10166e-06
0.511194
2.27236e-06
0.511194
2.20003e-06
0.511194
1.9419e-06
0.511194
1.94925e-06
0.511194
2.2122e-06
0.511194
2.49955e-06
0.511194
2.66521e-06
0.511195
2.65888e-06
0.511196
2.5776e-06
0.511196
2.46878e-06
0.511196
2.42921e-06
0.511197
2.55133e-06
0.511196
2.65011e-06
0.511196
2.52072e-06
0.511197
2.20455e-06
0.511198
1.9014e-06
0.511198
1.73354e-06
0.511199
1.82054e-06
0.511198
2.09535e-06
0.511198
2.12079e-06
0.511198
1.78944e-06
0.511199
1.50425e-06
0.511201
1.58379e-06
0.511201
2.04942e-06
0.511201
2.54368e-06
0.511201
2.81811e-06
0.511201
2.83935e-06
0.511201
2.66398e-06
0.511201
2.506e-06
0.511201
2.34253e-06
0.511201
2.03253e-06
0.511201
1.90572e-06
0.511202
2.19139e-06
0.511202
2.51789e-06
0.511203
2.54561e-06
0.511203
2.44389e-06
0.511203
2.43259e-06
0.511204
2.54004e-06
0.511203
2.7698e-06
0.511203
2.8623e-06
0.511203
2.78732e-06
0.511203
2.94862e-06
0.511203
3.30579e-06
0.511202
3.49294e-06
0.511202
3.26484e-06
0.511202
2.69643e-06
0.511203
2.22133e-06
0.511204
2.22974e-06
0.511204
2.56209e-06
0.511204
2.75799e-06
0.511204
2.59612e-06
2.33437e-06
0.511146
1.60208e-07
0.511146
7.88314e-07
0.511146
1.29613e-06
0.511147
1.45677e-06
0.511148
1.35142e-06
0.511148
1.37761e-06
0.511147
1.58504e-06
0.511147
1.65035e-06
0.511147
1.74073e-06
0.511147
1.94161e-06
0.511148
2.07913e-06
0.511149
2.32764e-06
0.511149
2.47879e-06
0.51115
2.4942e-06
0.51115
2.51451e-06
0.51115
2.24378e-06
0.51115
1.84214e-06
0.51115
1.76172e-06
0.51115
1.63772e-06
0.511151
1.3253e-06
0.511151
1.29934e-06
0.511151
1.44996e-06
0.511151
1.45483e-06
0.511151
1.70327e-06
0.511152
2.18199e-06
0.511152
2.54356e-06
0.511152
2.68969e-06
0.511152
2.40566e-06
0.511153
2.08107e-06
0.511153
2.07677e-06
0.511153
1.88898e-06
0.511153
1.55141e-06
0.511153
1.49928e-06
0.511154
1.70165e-06
0.511155
1.80334e-06
0.511155
1.42678e-06
0.511156
1.02138e-06
0.511157
1.37638e-06
0.511156
2.05222e-06
0.511156
2.33121e-06
0.511156
2.46791e-06
0.511156
2.56232e-06
0.511156
2.29035e-06
0.511155
1.87587e-06
0.511156
1.78142e-06
0.511156
1.96132e-06
0.511157
2.06656e-06
0.511157
2.01113e-06
0.511157
1.83559e-06
0.511157
1.75548e-06
0.511158
2.01699e-06
0.511158
2.34054e-06
0.511159
2.52204e-06
0.511159
2.61926e-06
0.511159
2.49707e-06
0.511159
2.2836e-06
0.511159
2.16967e-06
0.511159
1.98638e-06
0.51116
1.65795e-06
0.511161
1.53906e-06
0.511161
1.69039e-06
0.511162
1.78213e-06
0.511162
1.87012e-06
0.511162
1.94128e-06
0.511162
1.67276e-06
0.511162
1.28652e-06
0.511162
1.2029e-06
0.511162
1.36365e-06
0.511163
1.5901e-06
0.511163
1.90289e-06
0.511163
2.03695e-06
0.511163
1.6081e-06
0.511164
1.05476e-06
0.511165
1.11488e-06
0.511166
1.7781e-06
0.511166
2.40944e-06
0.511166
2.65891e-06
0.511166
2.64474e-06
0.511166
2.58909e-06
0.511166
2.46221e-06
0.511166
2.23495e-06
0.511167
2.14124e-06
0.511167
2.27375e-06
0.511168
2.51324e-06
0.511168
2.8068e-06
0.511167
2.89104e-06
0.511166
2.63683e-06
0.511166
2.32969e-06
0.511167
2.06766e-06
0.511167
1.923e-06
0.511168
2.0339e-06
0.511167
2.11442e-06
0.511167
2.11122e-06
0.511168
2.26018e-06
0.511168
2.37543e-06
0.511169
2.44603e-06
0.511169
2.63508e-06
0.511169
2.58545e-06
0.511169
2.32425e-06
0.511169
2.22794e-06
0.511168
1.9991e-06
0.511169
1.37826e-06
0.51117
8.10857e-07
0.511171
6.17945e-07
0.511171
7.35013e-07
0.511172
1.13393e-06
0.511172
1.5454e-06
0.511173
1.90586e-06
0.511173
2.27658e-06
0.511173
2.46537e-06
0.511174
2.65902e-06
0.511174
2.99611e-06
0.511173
2.99604e-06
0.511173
2.52865e-06
0.511174
2.1021e-06
0.511174
2.01497e-06
0.511175
2.0643e-06
0.511175
2.10982e-06
0.511175
2.16685e-06
0.511174
2.12408e-06
0.511174
2.00128e-06
0.511174
1.90525e-06
0.511174
1.82231e-06
0.511175
1.71401e-06
0.511175
1.74223e-06
0.511176
2.22925e-06
0.511176
2.9799e-06
0.511175
3.31679e-06
0.511175
3.10491e-06
0.511174
2.66435e-06
0.511175
2.26228e-06
0.511175
2.07605e-06
0.511176
1.84326e-06
0.511176
1.44985e-06
0.511177
1.36974e-06
0.511177
1.55056e-06
0.511177
1.69462e-06
0.511178
1.92133e-06
0.511178
2.0907e-06
0.511179
2.11601e-06
0.511179
2.11131e-06
0.511179
2.01282e-06
0.511179
1.91248e-06
0.511179
1.82942e-06
0.511179
1.76089e-06
0.511179
2.0442e-06
0.511179
2.4895e-06
0.511179
2.45337e-06
0.51118
2.12616e-06
0.51118
1.93678e-06
0.511181
1.75032e-06
0.511182
1.67595e-06
0.511182
1.76321e-06
0.511182
1.75634e-06
0.511182
1.86604e-06
0.511182
2.02894e-06
0.511182
1.85934e-06
0.511183
1.80559e-06
0.511183
2.20645e-06
0.511183
2.45643e-06
0.511183
2.43406e-06
0.511183
2.44672e-06
0.511183
2.25259e-06
0.511184
1.90928e-06
0.511184
1.66536e-06
0.511185
1.41409e-06
0.511186
1.36911e-06
0.511186
1.57081e-06
0.511186
1.78834e-06
0.511186
2.04975e-06
0.511186
2.01966e-06
0.511186
1.69237e-06
0.511187
1.57973e-06
0.511187
1.59013e-06
0.511188
1.57467e-06
0.511188
1.70131e-06
0.511189
1.91276e-06
0.511188
2.06481e-06
0.511188
2.05899e-06
0.511188
1.95322e-06
0.511188
1.91128e-06
0.511188
1.86249e-06
0.511189
1.81359e-06
0.51119
2.09347e-06
0.51119
2.54376e-06
0.511191
2.63227e-06
0.511191
2.5602e-06
0.511191
2.66718e-06
0.51119
2.74154e-06
0.51119
2.64835e-06
0.511191
2.37021e-06
0.511191
2.00173e-06
0.511192
1.83672e-06
0.511192
1.85379e-06
0.511192
1.94482e-06
0.511192
2.10818e-06
0.511192
2.00804e-06
0.511193
1.52603e-06
0.511194
1.1721e-06
0.511195
1.24454e-06
0.511195
1.66624e-06
0.511195
2.28459e-06
0.511194
2.74793e-06
0.511194
2.78513e-06
0.511194
2.47078e-06
0.511195
2.16027e-06
0.511195
2.18997e-06
0.511195
2.24455e-06
0.511195
2.10895e-06
0.511196
2.12977e-06
0.511196
2.34528e-06
0.511196
2.39562e-06
0.511196
2.12362e-06
0.511197
1.66163e-06
0.511197
1.29939e-06
0.511198
1.14717e-06
0.511199
1.14064e-06
0.511199
1.33874e-06
0.5112
1.70582e-06
0.511199
1.86955e-06
0.511199
1.82955e-06
0.511199
1.95725e-06
0.511199
2.16166e-06
0.5112
2.25142e-06
0.511201
2.31797e-06
0.511201
2.23509e-06
0.511201
2.08873e-06
0.511202
2.13754e-06
0.511201
2.2664e-06
0.511201
2.35354e-06
0.511201
2.33088e-06
0.511201
2.26736e-06
0.511201
2.29069e-06
0.511201
2.2277e-06
0.511202
2.2081e-06
0.511202
2.487e-06
0.511202
2.78197e-06
0.511202
2.90413e-06
0.511202
2.97573e-06
0.511201
2.99279e-06
0.511202
2.98838e-06
0.511202
3.04122e-06
0.511202
3.00806e-06
0.511202
2.86297e-06
0.511202
2.72471e-06
0.511201
2.61626e-06
0.511201
2.54024e-06
0.511202
2.44057e-06
0.511202
2.13526e-06
1.85633e-06
0.511146
1.58469e-07
0.511146
6.03929e-07
0.511146
9.76242e-07
0.511147
1.03335e-06
0.511147
1.11783e-06
0.511147
1.32733e-06
0.511147
1.34227e-06
0.511147
1.57251e-06
0.511147
1.98697e-06
0.511147
2.16922e-06
0.511147
2.19112e-06
0.511147
2.2286e-06
0.511147
2.21643e-06
0.511148
1.9637e-06
0.511148
1.63524e-06
0.511149
1.47716e-06
0.51115
1.49e-06
0.51115
1.47985e-06
0.51115
1.39662e-06
0.51115
1.45994e-06
0.51115
1.28273e-06
0.511151
8.56829e-07
0.511151
1.07236e-06
0.511151
1.65868e-06
0.511151
1.8905e-06
0.511152
1.92397e-06
0.511153
1.90551e-06
0.511153
1.7836e-06
0.511154
1.73357e-06
0.511154
1.77718e-06
0.511154
1.6908e-06
0.511154
1.49474e-06
0.511155
1.22655e-06
0.511155
1.06021e-06
0.511156
1.16236e-06
0.511156
1.0865e-06
0.511156
1.01702e-06
0.511156
1.49207e-06
0.511156
2.11467e-06
0.511156
2.4084e-06
0.511156
2.26127e-06
0.511157
1.81392e-06
0.511157
1.6611e-06
0.511157
1.87578e-06
0.511157
1.87988e-06
0.511158
1.79935e-06
0.511158
1.76316e-06
0.511158
1.51747e-06
0.511159
1.53205e-06
0.511158
1.89116e-06
0.511158
2.12964e-06
0.511158
2.32785e-06
0.511159
2.24909e-06
0.511159
1.8148e-06
0.51116
1.68825e-06
0.511161
1.84506e-06
0.511161
1.9497e-06
0.511161
2.05782e-06
0.511161
1.95764e-06
0.51116
1.76496e-06
0.51116
1.79355e-06
0.51116
1.62508e-06
0.511161
1.12255e-06
0.511162
8.55274e-07
0.511163
1.00227e-06
0.511163
1.1826e-06
0.511163
1.29917e-06
0.511163
1.51641e-06
0.511163
1.60359e-06
0.511163
1.39607e-06
0.511164
1.16514e-06
0.511165
1.18991e-06
0.511164
1.48607e-06
0.511164
1.70665e-06
0.511164
1.73674e-06
0.511164
1.85247e-06
0.511165
2.01159e-06
0.511165
2.19439e-06
0.511165
2.37305e-06
0.511165
2.42945e-06
0.511165
2.39928e-06
0.511165
2.26453e-06
0.511165
2.05743e-06
0.511166
1.94794e-06
0.511167
2.03537e-06
0.511167
2.26107e-06
0.511168
2.36398e-06
0.511168
2.30417e-06
0.511168
2.19518e-06
0.511168
1.93627e-06
0.511168
1.77083e-06
0.511168
1.96352e-06
0.511168
2.22576e-06
0.511168
2.40403e-06
0.511168
2.43269e-06
0.511168
2.17114e-06
0.511169
1.96586e-06
0.511169
1.99789e-06
0.51117
1.93309e-06
0.51117
1.65597e-06
0.511171
1.28341e-06
0.511171
9.56561e-07
0.511171
7.77742e-07
0.511171
7.59905e-07
0.511171
9.76658e-07
0.511171
1.35327e-06
0.511171
1.44807e-06
0.511171
1.38078e-06
0.511172
1.66015e-06
0.511172
2.08089e-06
0.511173
2.34171e-06
0.511173
2.42346e-06
0.511174
2.38689e-06
0.511174
2.50865e-06
0.511173
2.57107e-06
0.511173
2.26387e-06
0.511173
2.01895e-06
0.511173
1.9774e-06
0.511174
1.87516e-06
0.511174
1.77974e-06
0.511174
1.68381e-06
0.511175
1.6095e-06
0.511175
1.74031e-06
0.511174
1.89416e-06
0.511174
1.99618e-06
0.511174
2.28829e-06
0.511174
2.63027e-06
0.511175
2.81234e-06
0.511175
2.83948e-06
0.511175
2.59581e-06
0.511176
2.06473e-06
0.511176
1.4702e-06
0.511177
1.0735e-06
0.511177
1.05419e-06
0.511177
1.35699e-06
0.511177
1.72191e-06
0.511177
1.90798e-06
0.511177
1.76436e-06
0.511178
1.45366e-06
0.511178
1.4366e-06
0.511179
1.63869e-06
0.511179
1.63036e-06
0.51118
1.56936e-06
0.51118
1.66923e-06
0.51118
1.82111e-06
0.51118
1.8939e-06
0.51118
1.85232e-06
0.511181
1.93483e-06
0.511181
2.10165e-06
0.511181
1.89431e-06
0.511181
1.49946e-06
0.511182
1.38982e-06
0.511182
1.41759e-06
0.511182
1.42291e-06
0.511183
1.48903e-06
0.511183
1.61678e-06
0.511183
1.83341e-06
0.511183
1.99374e-06
0.511183
2.1066e-06
0.511183
2.25646e-06
0.511184
2.12232e-06
0.511184
1.83471e-06
0.511185
1.72156e-06
0.511185
1.54927e-06
0.511185
1.39351e-06
0.511185
1.46771e-06
0.511185
1.46666e-06
0.511185
1.29063e-06
0.511186
1.24548e-06
0.511187
1.41755e-06
0.511187
1.59076e-06
0.511187
1.62113e-06
0.511187
1.56502e-06
0.511187
1.53021e-06
0.511187
1.49305e-06
0.511188
1.27238e-06
0.511188
1.09221e-06
0.511189
1.25464e-06
0.51119
1.45497e-06
0.51119
1.61145e-06
0.51119
1.88693e-06
0.51119
2.03814e-06
0.51119
2.0715e-06
0.51119
2.20744e-06
0.51119
2.31578e-06
0.51119
2.40137e-06
0.51119
2.48344e-06
0.51119
2.46014e-06
0.511191
2.45786e-06
0.511191
2.31547e-06
0.511192
1.91251e-06
0.511192
1.7345e-06
0.511192
1.77309e-06
0.511192
1.71599e-06
0.511192
1.78841e-06
0.511192
1.90401e-06
0.511193
1.7264e-06
0.511193
1.47973e-06
0.511192
1.41499e-06
0.511192
1.45803e-06
0.511192
1.51698e-06
0.511193
1.6182e-06
0.511194
1.85416e-06
0.511194
2.2518e-06
0.511194
2.50171e-06
0.511194
2.40352e-06
0.511194
2.19047e-06
0.511194
2.03541e-06
0.511195
1.94034e-06
0.511195
1.96915e-06
0.511195
2.0097e-06
0.511196
1.89981e-06
0.511196
1.64397e-06
0.511196
1.38354e-06
0.511196
1.20265e-06
0.511197
1.05406e-06
0.511197
9.95952e-07
0.511197
1.03207e-06
0.511198
1.08668e-06
0.511198
1.24451e-06
0.511199
1.49825e-06
0.511199
1.74364e-06
0.511199
1.93381e-06
0.511199
2.03592e-06
0.511199
2.14177e-06
0.511199
2.14916e-06
0.5112
1.87286e-06
0.5112
1.68671e-06
0.5112
1.91037e-06
0.511201
2.16497e-06
0.511201
2.15259e-06
0.511201
2.09886e-06
0.511201
2.15663e-06
0.511201
2.37629e-06
0.5112
2.75839e-06
0.5112
2.89391e-06
0.5112
2.73589e-06
0.5112
2.72184e-06
0.5112
2.79021e-06
0.511201
2.78149e-06
0.511201
2.7597e-06
0.511201
2.68415e-06
0.511202
2.67091e-06
0.511202
2.84451e-06
0.511201
2.986e-06
0.511201
2.83965e-06
0.511201
2.50715e-06
0.511202
2.10049e-06
0.511202
1.60386e-06
1.31253e-06
0.511146
9.26129e-08
0.511146
3.87109e-07
0.511147
5.35595e-07
0.511147
7.43078e-07
0.511147
1.10401e-06
0.511147
1.18041e-06
0.511147
1.22897e-06
0.511147
1.48013e-06
0.511148
1.61737e-06
0.511148
1.86054e-06
0.511148
2.15064e-06
0.511148
2.02334e-06
0.511149
1.69444e-06
0.511149
1.46159e-06
0.51115
1.26228e-06
0.51115
1.09491e-06
0.51115
1.18133e-06
0.51115
1.3508e-06
0.51115
1.34655e-06
0.511151
9.84486e-07
0.511151
6.95973e-07
0.511151
1.00203e-06
0.511151
1.52648e-06
0.511151
1.92895e-06
0.51115
2.11782e-06
0.51115
1.94307e-06
0.511151
1.70986e-06
0.511151
1.50193e-06
0.511151
1.19321e-06
0.511152
9.86821e-07
0.511153
1.10373e-06
0.511153
1.26873e-06
0.511153
1.15397e-06
0.511153
9.38239e-07
0.511154
7.27132e-07
0.511154
7.17488e-07
0.511154
1.01157e-06
0.511154
1.38714e-06
0.511154
1.74289e-06
0.511155
1.88315e-06
0.511156
1.70962e-06
0.511156
1.52238e-06
0.511156
1.38405e-06
0.511156
1.45366e-06
0.511157
1.73906e-06
0.511157
1.62175e-06
0.511157
1.34259e-06
0.511157
1.60266e-06
0.511157
1.89204e-06
0.511157
2.06919e-06
0.511156
2.35726e-06
0.511157
2.1383e-06
0.511157
1.63841e-06
0.511157
1.50162e-06
0.511158
1.35542e-06
0.511158
1.22322e-06
0.511159
1.21339e-06
0.51116
1.17296e-06
0.511161
1.4126e-06
0.511161
1.53416e-06
0.511161
1.24352e-06
0.511162
1.19712e-06
0.511162
1.28359e-06
0.511161
1.03474e-06
0.511162
8.13594e-07
0.511162
8.03098e-07
0.511163
8.01483e-07
0.511163
1.04113e-06
0.511163
1.38363e-06
0.511163
1.24123e-06
0.511164
9.70223e-07
0.511164
1.02952e-06
0.511164
1.28177e-06
0.511164
1.59752e-06
0.511164
1.77866e-06
0.511164
1.76742e-06
0.511164
1.90581e-06
0.511164
2.02836e-06
0.511165
1.91364e-06
0.511165
1.94956e-06
0.511166
2.08364e-06
0.511166
1.90522e-06
0.511166
1.74486e-06
0.511166
1.98694e-06
0.511166
2.39921e-06
0.511166
2.54661e-06
0.511166
2.22974e-06
0.511166
1.77207e-06
0.511167
1.56577e-06
0.511167
1.66215e-06
0.511167
1.93095e-06
0.511167
2.20942e-06
0.511167
2.38044e-06
0.511167
2.42818e-06
0.511167
2.2588e-06
0.511167
1.83157e-06
0.511168
1.38363e-06
0.511168
1.21582e-06
0.511169
1.39172e-06
0.511169
1.50254e-06
0.511169
1.20558e-06
0.51117
6.95252e-07
0.51117
3.40481e-07
0.51117
3.70603e-07
0.511171
6.55779e-07
0.511171
8.80154e-07
0.511171
1.12267e-06
0.511171
1.44838e-06
0.511171
1.61292e-06
0.511172
1.68051e-06
0.511172
1.94385e-06
0.511172
2.18348e-06
0.511173
2.12981e-06
0.511173
1.97437e-06
0.511174
1.8927e-06
0.511174
1.93862e-06
0.511174
2.0181e-06
0.511174
1.96564e-06
0.511174
1.86821e-06
0.511174
1.63196e-06
0.511175
1.26554e-06
0.511175
1.2388e-06
0.511175
1.55913e-06
0.511175
1.9108e-06
0.511175
2.25676e-06
0.511175
2.51711e-06
0.511175
2.66825e-06
0.511175
2.6253e-06
0.511176
2.23128e-06
0.511176
1.87244e-06
0.511177
1.71369e-06
0.511177
1.38638e-06
0.511177
1.07084e-06
0.511177
9.49596e-07
0.511177
9.218e-07
0.511178
1.22248e-06
0.511178
1.69902e-06
0.511178
1.85566e-06
0.511178
1.77698e-06
0.511177
1.67413e-06
0.511178
1.55465e-06
0.511178
1.4534e-06
0.511178
1.30071e-06
0.511178
1.14231e-06
0.511179
1.24496e-06
0.511179
1.53092e-06
0.51118
1.67992e-06
0.51118
1.60423e-06
0.511181
1.37689e-06
0.511181