/*--------------------------------*- C++ -*----------------------------------*\
| =========                 |                                                 |
| \\      /  F ield         | OpenFOAM: The Open Source CFD Toolbox           |
|  \\    /   O peration     | Version:  2406                                  |
|   \\  /    A nd           | Website:  www.openfoam.com                      |
|    \\/     M anipulation  |                                                 |
\*---------------------------------------------------------------------------*/
FoamFile
{
    version     2.0;
    format      ascii;
    arch        "LSB;label=32;scalar=64";
    class       volVectorField;
    location    "2.2";
    object      U;
}
// * * * * * * * * * * * * * * * * * * * * * * * * * * * * * * * * * * * * * //

dimensions      [0 1 -1 0 0 0 0];

internalField   nonuniform List<vector> 
6250
(
(50.5477 9.20127e-05 0)
(85.4621 0.000510117 0)
(73.2914 0.000815367 0)
(60.644 0.000849175 0)
(59.8988 0.000758757 0)
(63.3583 0.000699764 0)
(64.8681 0.000686952 0)
(64.4168 0.000690516 0)
(63.7997 0.000719244 0)
(63.697 0.000764481 0)
(63.8395 0.0008013 0)
(63.9238 0.00084338 0)
(63.9132 0.000898645 0)
(63.8836 0.000938052 0)
(63.8747 0.000939489 0)
(63.8793 0.000881044 0)
(63.8832 0.000783964 0)
(63.8826 0.000732633 0)
(63.8807 0.000738863 0)
(63.8796 0.00076545 0)
(63.8791 0.000805318 0)
(63.8786 0.000841321 0)
(63.878 0.000867048 0)
(63.8773 0.000886868 0)
(63.8766 0.000892483 0)
(63.8759 0.000892946 0)
(63.8752 0.000899248 0)
(63.8745 0.000913045 0)
(63.8738 0.000926122 0)
(63.873 0.000902196 0)
(63.8724 0.000844262 0)
(63.8718 0.000807666 0)
(63.8712 0.000805112 0)
(63.8706 0.000828675 0)
(63.87 0.000894289 0)
(63.8692 0.000975588 0)
(63.8685 0.00100857 0)
(63.8677 0.000978373 0)
(63.867 0.00091578 0)
(63.8665 0.000875866 0)
(63.8658 0.000897008 0)
(63.865 0.000917628 0)
(63.8643 0.000881549 0)
(63.8637 0.000834891 0)
(63.863 0.00079911 0)
(63.8624 0.000757696 0)
(63.8618 0.000744119 0)
(63.8613 0.000796093 0)
(63.8605 0.000897936 0)
(63.8597 0.000988085 0)
(63.859 0.00101889 0)
(63.8582 0.0010139 0)
(63.8575 0.00100165 0)
(63.8569 0.000981088 0)
(63.8562 0.000964341 0)
(63.8555 0.000928944 0)
(63.8549 0.000852163 0)
(63.8543 0.000798061 0)
(63.8536 0.000818112 0)
(63.853 0.000882463 0)
(63.8523 0.000948545 0)
(63.8516 0.000994462 0)
(63.851 0.00102044 0)
(63.8502 0.00102176 0)
(63.8495 0.00097666 0)
(63.8489 0.000914517 0)
(63.8482 0.000882825 0)
(63.8475 0.000864084 0)
(63.8469 0.000861288 0)
(63.8462 0.000899446 0)
(63.8455 0.000941889 0)
(63.8448 0.000967311 0)
(63.8441 0.000976835 0)
(63.8434 0.000957632 0)
(63.8427 0.000934543 0)
(63.8421 0.000936962 0)
(63.8415 0.00097096 0)
(63.8407 0.00101899 0)
(63.8399 0.0010371 0)
(63.8392 0.00102535 0)
(63.8384 0.00100955 0)
(63.8376 0.000982712 0)
(63.837 0.000958036 0)
(63.8364 0.000967807 0)
(63.8356 0.000994241 0)
(63.8349 0.000986807 0)
(63.8342 0.000919847 0)
(63.8336 0.000826373 0)
(63.8331 0.000780347 0)
(63.8325 0.000810671 0)
(63.8318 0.000881869 0)
(63.8311 0.000964872 0)
(63.8304 0.00104085 0)
(63.8296 0.00107362 0)
(63.8288 0.00104388 0)
(63.8282 0.000980513 0)
(63.8275 0.000922672 0)
(63.8269 0.000878257 0)
(63.8263 0.000844194 0)
(63.8256 0.000822984 0)
(63.8249 0.000811335 0)
(63.8242 0.000815445 0)
(63.8236 0.000848684 0)
(63.823 0.000903376 0)
(63.8223 0.000963203 0)
(63.8217 0.00101353 0)
(63.8209 0.00103521 0)
(63.8202 0.00102667 0)
(63.8195 0.00101345 0)
(63.8188 0.00101881 0)
(63.8181 0.00103383 0)
(63.8174 0.00102312 0)
(63.8167 0.000960454 0)
(63.8161 0.000875886 0)
(63.8155 0.000833563 0)
(63.8148 0.00084122 0)
(63.8142 0.000869741 0)
(63.8136 0.000914625 0)
(63.8129 0.000962154 0)
(63.8122 0.000991043 0)
(63.8116 0.000996224 0)
(63.8109 0.000980563 0)
(63.8102 0.000966128 0)
(63.8095 0.000972582 0)
(63.8088 0.000991718 0)
(63.8081 0.00101465 0)
(63.8074 0.00103134 0)
(63.8067 0.00102149 0)
(63.8059 0.000980433 0)
(63.8052 0.00092619 0)
(63.8045 0.000890169 0)
(63.8038 0.000888913 0)
(63.8032 0.000908249 0)
(63.8025 0.000939354 0)
(63.8018 0.00097353 0)
(63.8011 0.000981815 0)
(63.8005 0.000958114 0)
(63.7998 0.000935188 0)
(63.7992 0.000942715 0)
(63.7985 0.000984278 0)
(63.7977 0.00104215 0)
(63.797 0.00107275 0)
(63.7962 0.00104642 0)
(63.7955 0.000996114 0)
(63.7948 0.000955508 0)
(63.7942 0.000919019 0)
(63.7935 0.000891748 0)
(63.7929 0.00089363 0)
(63.7922 0.000932305 0)
(63.7915 0.000988692 0)
(63.7908 0.00102647 0)
(63.7901 0.00103936 0)
(63.7895 0.0010535 0)
(63.7888 0.00106623 0)
(63.7881 0.00104586 0)
(63.7874 0.000988825 0)
(63.7868 0.000922007 0)
(63.7861 0.000871812 0)
(63.7855 0.000850541 0)
(63.7849 0.000867394 0)
(63.7843 0.000920937 0)
(63.7836 0.000971413 0)
(63.7828 0.000991194 0)
(63.7822 0.00099262 0)
(63.7815 0.000985469 0)
(63.7808 0.000979099 0)
(63.7801 0.000972731 0)
(63.7795 0.000964128 0)
(63.7789 0.000971717 0)
(63.7781 0.000990589 0)
(63.7774 0.00101005 0)
(63.7767 0.0010391 0)
(63.7759 0.00106139 0)
(63.7751 0.00105672 0)
(63.7744 0.00103786 0)
(63.7737 0.00101447 0)
(63.7731 0.000981994 0)
(63.7725 0.000954349 0)
(63.7718 0.00094021 0)
(63.7711 0.000924973 0)
(63.7704 0.000911583 0)
(63.7697 0.000909355 0)
(63.7691 0.000921632 0)
(63.7685 0.000958679 0)
(63.7677 0.00100835 0)
(63.767 0.00105148 0)
(63.7663 0.00107902 0)
(63.7655 0.00107478 0)
(63.7648 0.00104348 0)
(63.7641 0.00100813 0)
(63.7634 0.000978811 0)
(63.7627 0.000966933 0)
(63.762 0.000975346 0)
(63.7613 0.000976694 0)
(63.7607 0.000958727 0)
(63.7601 0.000949158 0)
(63.7594 0.000967092 0)
(63.7587 0.000998608 0)
(63.758 0.00101856 0)
(63.7573 0.00102257 0)
(63.7566 0.00102338 0)
(63.756 0.00101874 0)
(63.7553 0.00100901 0)
(63.7546 0.000997772 0)
(63.7539 0.000968121 0)
(63.7532 0.000905388 0)
(63.7526 0.000826392 0)
(63.752 0.000786924 0)
(63.7515 0.000823479 0)
(63.7508 0.000898284 0)
(63.7501 0.00096234 0)
(63.7495 0.00100364 0)
(63.7488 0.00102178 0)
(63.748 0.00102204 0)
(63.7473 0.00101774 0)
(63.7466 0.00101161 0)
(63.7459 0.00100155 0)
(63.7453 0.000998259 0)
(63.7446 0.000997362 0)
(63.7439 0.000985276 0)
(63.7433 0.000971039 0)
(63.7426 0.000957266 0)
(63.7419 0.000943164 0)
(63.7413 0.000939984 0)
(63.7406 0.000943989 0)
(63.74 0.000954339 0)
(63.7394 0.000969801 0)
(63.7386 0.000971764 0)
(63.7379 0.000965265 0)
(63.7373 0.000964589 0)
(63.7366 0.000963027 0)
(63.7359 0.000963316 0)
(63.7352 0.000978062 0)
(63.7345 0.000999032 0)
(63.7338 0.00100568 0)
(63.7331 0.00100188 0)
(63.7325 0.00100743 0)
(63.7318 0.00102267 0)
(63.731 0.00103108 0)
(63.7303 0.00102038 0)
(63.7296 0.00100763 0)
(63.7289 0.00101445 0)
(63.7282 0.00102257 0)
(63.7275 0.00100055 0)
(63.7268 0.00094554 0)
(63.7261 0.000885501 0)
(63.7256 0.000856598 0)
(63.7249 0.000871257 0)
(63.7244 0.000964149 0)
(63.7232 0.00101891 0)
(50.5479 6.47434e-05 0)
(85.4632 0.000384689 0)
(73.2944 0.000652443 0)
(60.6487 0.000674697 0)
(59.9045 0.00056948 0)
(63.3645 0.000508237 0)
(64.8752 0.000499043 0)
(64.4249 0.000496727 0)
(63.8087 0.000509627 0)
(63.7071 0.000521982 0)
(63.8507 0.000507923 0)
(63.9359 0.0004863 0)
(63.9266 0.000494009 0)
(63.8981 0.000532283 0)
(63.8904 0.000580625 0)
(63.8962 0.000597598 0)
(63.901 0.000562616 0)
(63.9013 0.000526347 0)
(63.9004 0.00050064 0)
(63.9002 0.00047815 0)
(63.9007 0.000469889 0)
(63.9014 0.000474065 0)
(63.9018 0.000489727 0)
(63.902 0.000483991 0)
(63.9025 0.000459704 0)
(63.9029 0.000466494 0)
(63.9033 0.000472598 0)
(63.9038 0.000462475 0)
(63.9042 0.000475526 0)
(63.9046 0.000478904 0)
(63.9049 0.000465317 0)
(63.9052 0.000471802 0)
(63.9054 0.000453651 0)
(63.9057 0.000406946 0)
(63.906 0.00039882 0)
(63.9065 0.000441339 0)
(63.9071 0.000483537 0)
(63.9075 0.000459004 0)
(63.9079 0.000391161 0)
(63.9083 0.000385916 0)
(63.9086 0.000453266 0)
(63.909 0.000507169 0)
(63.9095 0.000519029 0)
(63.9097 0.000507741 0)
(63.9101 0.000482897 0)
(63.9104 0.000450347 0)
(63.9105 0.000420876 0)
(63.9109 0.000440176 0)
(63.9112 0.000504908 0)
(63.9116 0.000523735 0)
(63.9122 0.000475002 0)
(63.9126 0.000420348 0)
(63.913 0.000390438 0)
(63.9133 0.000387319 0)
(63.9136 0.000405592 0)
(63.9141 0.000418284 0)
(63.9145 0.000423233 0)
(63.9146 0.000439974 0)
(63.9148 0.000453051 0)
(63.9152 0.000438176 0)
(63.9155 0.000387263 0)
(63.9159 0.000338975 0)
(63.9164 0.000352626 0)
(63.9168 0.000395621 0)
(63.9174 0.000412783 0)
(63.9178 0.000425957 0)
(63.9181 0.000442932 0)
(63.9186 0.000436163 0)
(63.919 0.000428834 0)
(63.9193 0.000455962 0)
(63.9197 0.000490421 0)
(63.92 0.00049179 0)
(63.9204 0.000444338 0)
(63.9208 0.000377183 0)
(63.9211 0.000342848 0)
(63.9214 0.000345167 0)
(63.9219 0.000384213 0)
(63.9223 0.000454024 0)
(63.9227 0.000505206 0)
(63.9231 0.000517269 0)
(63.9235 0.000491134 0)
(63.9239 0.000431894 0)
(63.9242 0.000376796 0)
(63.9245 0.000358989 0)
(63.925 0.00037933 0)
(63.9255 0.000409818 0)
(63.9258 0.000420236 0)
(63.926 0.000412052 0)
(63.9261 0.000406002 0)
(63.9264 0.000411091 0)
(63.9268 0.000424701 0)
(63.9272 0.000444757 0)
(63.9277 0.000462919 0)
(63.9282 0.000459865 0)
(63.9286 0.000425448 0)
(63.929 0.00038552 0)
(63.9293 0.000374727 0)
(63.9296 0.000394922 0)
(63.93 0.000444052 0)
(63.9302 0.000511736 0)
(63.9305 0.000540934 0)
(63.9307 0.000499312 0)
(63.931 0.000421274 0)
(63.9313 0.000349277 0)
(63.9318 0.000320855 0)
(63.9323 0.000344797 0)
(63.9328 0.000382895 0)
(63.9333 0.000401128 0)
(63.9336 0.000388198 0)
(63.9339 0.000364702 0)
(63.9343 0.000359756 0)
(63.9347 0.000374613 0)
(63.9351 0.000403536 0)
(63.9353 0.000425769 0)
(63.9355 0.000419237 0)
(63.9359 0.000395504 0)
(63.9362 0.000370954 0)
(63.9365 0.000352404 0)
(63.9369 0.000352131 0)
(63.9373 0.000379248 0)
(63.9377 0.000413348 0)
(63.9381 0.000422397 0)
(63.9385 0.000408363 0)
(63.9389 0.000390069 0)
(63.9393 0.000375757 0)
(63.9397 0.0003689 0)
(63.9401 0.000377221 0)
(63.9406 0.000417332 0)
(63.9409 0.000474415 0)
(63.9412 0.00049746 0)
(63.9415 0.000485794 0)
(63.9418 0.000468762 0)
(63.9421 0.000438654 0)
(63.9424 0.000405379 0)
(63.9428 0.000385736 0)
(63.9433 0.000369311 0)
(63.9437 0.000366191 0)
(63.9439 0.000380485 0)
(63.9443 0.000392307 0)
(63.9447 0.000396654 0)
(63.9451 0.000403549 0)
(63.9457 0.000417906 0)
(63.9462 0.000427953 0)
(63.9465 0.000428423 0)
(63.9469 0.00042265 0)
(63.9473 0.000410132 0)
(63.9475 0.000409671 0)
(63.9479 0.000432287 0)
(63.9481 0.00044776 0)
(63.9484 0.000429705 0)
(63.9489 0.000380531 0)
(63.9492 0.000316772 0)
(63.9496 0.000279351 0)
(63.9501 0.000293033 0)
(63.9505 0.000318793 0)
(63.9509 0.000327683 0)
(63.9514 0.000338395 0)
(63.9517 0.00035908 0)
(63.9519 0.000376127 0)
(63.9522 0.000391658 0)
(63.9525 0.00041706 0)
(63.9529 0.000430111 0)
(63.9532 0.00041788 0)
(63.9536 0.000398291 0)
(63.954 0.000371204 0)
(63.9543 0.000343348 0)
(63.9548 0.000322278 0)
(63.9551 0.00032122 0)
(63.9555 0.000367013 0)
(63.956 0.00041965 0)
(63.9564 0.000445843 0)
(63.9568 0.00046497 0)
(63.9573 0.000453626 0)
(63.9578 0.000411655 0)
(63.9582 0.000382444 0)
(63.9585 0.000364668 0)
(63.9589 0.000349222 0)
(63.9592 0.000355263 0)
(63.9596 0.000388333 0)
(63.96 0.000425231 0)
(63.9603 0.00044272 0)
(63.9606 0.0004313 0)
(63.9609 0.000401271 0)
(63.9612 0.000373131 0)
(63.9616 0.000352199 0)
(63.962 0.000354411 0)
(63.9624 0.000385116 0)
(63.9629 0.000410017 0)
(63.9633 0.000421697 0)
(63.9637 0.000435356 0)
(63.964 0.000437826 0)
(63.9642 0.000417554 0)
(63.9646 0.000388921 0)
(63.965 0.000366302 0)
(63.9653 0.000350156 0)
(63.9656 0.000346716 0)
(63.9659 0.000366136 0)
(63.9663 0.000389787 0)
(63.9667 0.000375964 0)
(63.9671 0.000331181 0)
(63.9676 0.000307543 0)
(63.968 0.000315247 0)
(63.9684 0.000344346 0)
(63.9688 0.000390639 0)
(63.9692 0.000427975 0)
(63.9694 0.000440681 0)
(63.9696 0.000417936 0)
(63.9698 0.000376292 0)
(63.9701 0.000367579 0)
(63.9704 0.000379352 0)
(63.9707 0.00037616 0)
(63.9711 0.000380664 0)
(63.9715 0.000406925 0)
(63.9718 0.000426683 0)
(63.9722 0.000408118 0)
(63.9727 0.000350264 0)
(63.9731 0.000296864 0)
(63.9735 0.000294815 0)
(63.9739 0.000334538 0)
(63.9743 0.000377439 0)
(63.9747 0.00040533 0)
(63.975 0.000400107 0)
(63.9753 0.000369285 0)
(63.9757 0.000352124 0)
(63.976 0.000348042 0)
(63.9763 0.00035543 0)
(63.9766 0.000381538 0)
(63.977 0.000389535 0)
(63.9774 0.000371391 0)
(63.9778 0.000361912 0)
(63.9782 0.000376931 0)
(63.9785 0.000412814 0)
(63.9788 0.000438217 0)
(63.9792 0.000427218 0)
(63.9796 0.000392746 0)
(63.9798 0.000359199 0)
(63.9802 0.000347491 0)
(63.9806 0.000363987 0)
(63.981 0.000393609 0)
(63.9814 0.000411429 0)
(63.9817 0.000415995 0)
(63.982 0.000418097 0)
(63.9824 0.000413211 0)
(63.9828 0.000409996 0)
(63.983 0.000409988 0)
(63.9833 0.000398748 0)
(63.9835 0.000383661 0)
(63.9838 0.000373614 0)
(63.9842 0.000412037 0)
(63.9848 0.000412439 0)
(50.5479 7.27285e-06 0)
(85.4628 1.74687e-05 0)
(73.293 3.85475e-05 0)
(60.6466 7.98515e-05 0)
(59.9022 0.000102733 0)
(63.3622 9.22937e-05 0)
(64.8728 7.92795e-05 0)
(64.4221 8.67247e-05 0)
(63.8057 0.000101952 0)
(63.7038 0.000114417 0)
(63.847 0.000139175 0)
(63.9318 0.000164227 0)
(63.9219 0.00018447 0)
(63.8929 0.000190765 0)
(63.8847 0.000170237 0)
(63.8903 0.000167775 0)
(63.8949 0.000186972 0)
(63.8951 0.000176797 0)
(63.894 0.000142982 0)
(63.8935 0.000118445 0)
(63.8937 8.93022e-05 0)
(63.894 6.51053e-05 0)
(63.8942 7.53838e-05 0)
(63.8943 0.000104393 0)
(63.8941 0.000135228 0)
(63.894 0.000152464 0)
(63.8941 0.000135057 0)
(63.894 0.000130788 0)
(63.894 0.000168354 0)
(63.894 0.00019172 0)
(63.894 0.000182516 0)
(63.8942 0.000185396 0)
(63.8944 0.000217605 0)
(63.8944 0.000237818 0)
(63.8943 0.000194406 0)
(63.8944 0.000126895 0)
(63.8944 0.00010157 0)
(63.8944 8.57072e-05 0)
(63.8944 7.95776e-05 0)
(63.8944 0.000132816 0)
(63.8944 0.000180142 0)
(63.8944 0.000171579 0)
(63.8945 0.000163463 0)
(63.8947 0.000163263 0)
(63.8948 0.000178673 0)
(63.8948 0.000229521 0)
(63.8949 0.000252456 0)
(63.8948 0.00022562 0)
(63.8949 0.000183897 0)
(63.895 0.000147922 0)
(63.895 0.000155788 0)
(63.8949 0.000189893 0)
(63.8949 0.000211123 0)
(63.8949 0.000228214 0)
(63.8948 0.000220369 0)
(63.8948 0.000201685 0)
(63.8949 0.000234667 0)
(63.895 0.000288198 0)
(63.8951 0.000302351 0)
(63.8952 0.00028598 0)
(63.8952 0.000234805 0)
(63.8951 0.000156512 0)
(63.895 9.91952e-05 0)
(63.8951 6.48932e-05 0)
(63.8951 6.03897e-05 0)
(63.8952 9.63527e-05 0)
(63.8953 0.00012802 0)
(63.8954 0.000143134 0)
(63.8954 0.000163455 0)
(63.8955 0.000189984 0)
(63.8955 0.000208957 0)
(63.8956 0.000201209 0)
(63.8958 0.000183739 0)
(63.8959 0.000205306 0)
(63.8958 0.00025728 0)
(63.8958 0.000270623 0)
(63.8957 0.000237381 0)
(63.8957 0.000210273 0)
(63.8957 0.000218451 0)
(63.8958 0.000246417 0)
(63.8959 0.000253556 0)
(63.8959 0.000252177 0)
(63.8959 0.000265278 0)
(63.8958 0.000246613 0)
(63.8957 0.000189799 0)
(63.8957 0.000159956 0)
(63.8958 0.00019792 0)
(63.8959 0.000272841 0)
(63.896 0.00031016 0)
(63.896 0.000279158 0)
(63.896 0.00021465 0)
(63.896 0.000160347 0)
(63.896 0.000138243 0)
(63.8961 0.000147879 0)
(63.8961 0.000189906 0)
(63.896 0.000247646 0)
(63.8958 0.000268546 0)
(63.8958 0.000248706 0)
(63.8959 0.000237511 0)
(63.896 0.000242983 0)
(63.8962 0.00025092 0)
(63.8964 0.000247966 0)
(63.8966 0.000211712 0)
(63.8967 0.000152722 0)
(63.8966 0.000112366 0)
(63.8966 0.000115211 0)
(63.8966 0.000161924 0)
(63.8966 0.000226158 0)
(63.8967 0.000267424 0)
(63.8967 0.000290232 0)
(63.8967 0.00029901 0)
(63.8965 0.00027648 0)
(63.8965 0.000267053 0)
(63.8966 0.000289233 0)
(63.8967 0.000303017 0)
(63.8967 0.000310286 0)
(63.8967 0.000296243 0)
(63.8968 0.000236438 0)
(63.8967 0.000164304 0)
(63.8967 0.000117215 0)
(63.8968 0.000126802 0)
(63.8969 0.000186457 0)
(63.8969 0.000226837 0)
(63.897 0.000232204 0)
(63.897 0.000238913 0)
(63.897 0.000231475 0)
(63.8969 0.000207449 0)
(63.8968 0.000214508 0)
(63.8968 0.000258778 0)
(63.897 0.000308189 0)
(63.897 0.000333563 0)
(63.8971 0.000310367 0)
(63.8972 0.000251389 0)
(63.8972 0.000193421 0)
(63.8972 0.00014937 0)
(63.8973 0.000142636 0)
(63.8973 0.000194314 0)
(63.8973 0.000254758 0)
(63.8974 0.000271113 0)
(63.8974 0.000234314 0)
(63.8973 0.000163833 0)
(63.8973 0.00013167 0)
(63.8974 0.000158874 0)
(63.8974 0.000186135 0)
(63.8976 0.000203562 0)
(63.8976 0.000226027 0)
(63.8976 0.000257657 0)
(63.8977 0.000308376 0)
(63.8978 0.000338683 0)
(63.8978 0.000320394 0)
(63.8979 0.000286145 0)
(63.8979 0.000236702 0)
(63.8978 0.000177319 0)
(63.8978 0.000154361 0)
(63.8978 0.000161775 0)
(63.8977 0.000179757 0)
(63.8978 0.000223181 0)
(63.8978 0.000282181 0)
(63.8979 0.000322072 0)
(63.8979 0.000315007 0)
(63.8979 0.000277257 0)
(63.898 0.000246086 0)
(63.898 0.000226191 0)
(63.898 0.000223398 0)
(63.8981 0.0002325 0)
(63.8981 0.000230878 0)
(63.8981 0.000217474 0)
(63.8981 0.000196755 0)
(63.8981 0.000177583 0)
(63.8982 0.000165904 0)
(63.8982 0.000170476 0)
(63.8983 0.000195217 0)
(63.8984 0.00020709 0)
(63.8984 0.00020492 0)
(63.8984 0.000214793 0)
(63.8985 0.000225568 0)
(63.8984 0.00022147 0)
(63.8984 0.000204908 0)
(63.8986 0.000208887 0)
(63.8987 0.000244899 0)
(63.8988 0.000267766 0)
(63.8989 0.000276432 0)
(63.899 0.000301946 0)
(63.8989 0.000319075 0)
(63.8989 0.000299346 0)
(63.8988 0.000265246 0)
(63.8988 0.000245179 0)
(63.8988 0.000240604 0)
(63.8987 0.000249225 0)
(63.8988 0.000280724 0)
(63.8989 0.000327181 0)
(63.8989 0.000334783 0)
(63.899 0.00028293 0)
(63.899 0.000240372 0)
(63.8991 0.000245929 0)
(63.8991 0.000258865 0)
(63.8992 0.000254036 0)
(63.8993 0.000250193 0)
(63.8993 0.000249837 0)
(63.8993 0.00022764 0)
(63.8992 0.000191991 0)
(63.8993 0.000174425 0)
(63.8992 0.000186559 0)
(63.8992 0.000228645 0)
(63.8993 0.000287682 0)
(63.8993 0.000349154 0)
(63.8994 0.000383772 0)
(63.8995 0.000363406 0)
(63.8995 0.000323635 0)
(63.8996 0.000296294 0)
(63.8995 0.00026984 0)
(63.8995 0.000249097 0)
(63.8995 0.000244834 0)
(63.8996 0.000242278 0)
(63.8998 0.000217886 0)
(63.8998 0.000187098 0)
(63.8998 0.000188004 0)
(63.8998 0.000207238 0)
(63.8998 0.000209174 0)
(63.8999 0.000198019 0)
(63.9 0.00020483 0)
(63.9001 0.000239162 0)
(63.9001 0.000283161 0)
(63.9001 0.000321751 0)
(63.9001 0.000334685 0)
(63.9001 0.000315402 0)
(63.9001 0.000291364 0)
(63.9001 0.000261024 0)
(63.9001 0.000214495 0)
(63.9002 0.000191915 0)
(63.9002 0.000229088 0)
(63.9002 0.000295603 0)
(63.9003 0.000322797 0)
(63.9004 0.000305753 0)
(63.9004 0.000292298 0)
(63.9005 0.000290569 0)
(63.9004 0.000291593 0)
(63.9004 0.000292605 0)
(63.9004 0.0002987 0)
(63.9004 0.000325241 0)
(63.9004 0.000361756 0)
(63.9003 0.000374415 0)
(63.9003 0.000343945 0)
(63.9002 0.000296713 0)
(63.9003 0.000270184 0)
(63.9004 0.000276233 0)
(63.9005 0.000303164 0)
(63.9005 0.000315887 0)
(63.9004 0.000291821 0)
(63.9005 0.000264821 0)
(50.5479 1.89365e-05 0)
(85.4629 0.000121019 0)
(73.2932 0.00022824 0)
(60.6469 0.000297374 0)
(59.9024 0.000301414 0)
(63.3624 0.000264679 0)
(64.8728 0.000258277 0)
(64.4221 0.000280902 0)
(63.8056 0.000300672 0)
(63.7036 0.000333116 0)
(63.8468 0.000396841 0)
(63.9318 0.000472041 0)
(63.922 0.000515882 0)
(63.8933 0.000505208 0)
(63.8852 0.000451001 0)
(63.8905 0.000390752 0)
(63.8951 0.000337523 0)
(63.8952 0.000291729 0)
(63.8939 0.000273223 0)
(63.8934 0.000281943 0)
(63.8937 0.000298482 0)
(63.8939 0.000307138 0)
(63.8939 0.000313063 0)
(63.8939 0.000364879 0)
(63.8939 0.000448732 0)
(63.894 0.00049016 0)
(63.894 0.000486422 0)
(63.894 0.000465857 0)
(63.8941 0.000434439 0)
(63.8941 0.000385043 0)
(63.8941 0.000308741 0)
(63.8941 0.000256818 0)
(63.8941 0.000294797 0)
(63.8942 0.000366152 0)
(63.8943 0.000371872 0)
(63.8943 0.000324929 0)
(63.8945 0.000295285 0)
(63.8946 0.000315552 0)
(63.8945 0.000365696 0)
(63.8945 0.000398434 0)
(63.8946 0.000402584 0)
(63.8945 0.000393054 0)
(63.8944 0.000360858 0)
(63.8944 0.000313997 0)
(63.8944 0.000302734 0)
(63.8945 0.000335512 0)
(63.8946 0.000357422 0)
(63.8946 0.000343258 0)
(63.8946 0.000325815 0)
(63.8946 0.000351394 0)
(63.8947 0.000416499 0)
(63.8948 0.000460366 0)
(63.8948 0.000469635 0)
(63.8948 0.00046673 0)
(63.8949 0.000433076 0)
(63.8949 0.000371405 0)
(63.8948 0.000321031 0)
(63.8948 0.000292194 0)
(63.8949 0.000278079 0)
(63.895 0.000302433 0)
(63.8951 0.000358411 0)
(63.8952 0.00038745 0)
(63.8953 0.000381509 0)
(63.8953 0.000357709 0)
(63.8952 0.000312109 0)
(63.8952 0.000259463 0)
(63.8953 0.000228985 0)
(63.8953 0.00023328 0)
(63.8953 0.000263311 0)
(63.8953 0.000311774 0)
(63.8954 0.000344639 0)
(63.8954 0.000316545 0)
(63.8954 0.000268252 0)
(63.8955 0.000278197 0)
(63.8957 0.000346836 0)
(63.8958 0.000408891 0)
(63.8958 0.000421107 0)
(63.8957 0.000400144 0)
(63.8957 0.000378873 0)
(63.8957 0.00037056 0)
(63.8957 0.000371926 0)
(63.8958 0.000398707 0)
(63.8959 0.000451688 0)
(63.896 0.000479254 0)
(63.896 0.000458713 0)
(63.8959 0.000418374 0)
(63.8958 0.000384277 0)
(63.8958 0.000360826 0)
(63.8958 0.00033337 0)
(63.8959 0.00030884 0)
(63.896 0.000312258 0)
(63.8959 0.000336814 0)
(63.8959 0.000369345 0)
(63.896 0.000414141 0)
(63.8959 0.000464586 0)
(63.896 0.000497248 0)
(63.8962 0.000479612 0)
(63.8961 0.000412859 0)
(63.8961 0.000340133 0)
(63.8961 0.000285028 0)
(63.896 0.000247353 0)
(63.896 0.000219752 0)
(63.8961 0.000197956 0)
(63.8963 0.000191551 0)
(63.8964 0.000206552 0)
(63.8965 0.000239527 0)
(63.8965 0.000281832 0)
(63.8966 0.000329981 0)
(63.8966 0.000382887 0)
(63.8966 0.000430651 0)
(63.8967 0.000461023 0)
(63.8968 0.00045757 0)
(63.8967 0.000419343 0)
(63.8966 0.000363812 0)
(63.8967 0.000321653 0)
(63.8967 0.000314444 0)
(63.8968 0.000316554 0)
(63.8968 0.000319693 0)
(63.8968 0.000329981 0)
(63.8968 0.00031967 0)
(63.8967 0.000304302 0)
(63.8967 0.000307949 0)
(63.8968 0.000303099 0)
(63.8968 0.00029969 0)
(63.8969 0.000332789 0)
(63.897 0.000394357 0)
(63.897 0.000454699 0)
(63.8969 0.000470365 0)
(63.8968 0.000427002 0)
(63.8968 0.000374237 0)
(63.8968 0.000344431 0)
(63.8969 0.00032822 0)
(63.8969 0.000315253 0)
(63.897 0.000295866 0)
(63.8971 0.00027653 0)
(63.8971 0.000275501 0)
(63.8971 0.000297046 0)
(63.8972 0.00033226 0)
(63.8972 0.000365736 0)
(63.8973 0.000377611 0)
(63.8973 0.000361512 0)
(63.8973 0.000343364 0)
(63.8974 0.000330866 0)
(63.8973 0.000302521 0)
(63.8973 0.000279858 0)
(63.8974 0.000297238 0)
(63.8973 0.000336953 0)
(63.8973 0.00035705 0)
(63.8974 0.000342301 0)
(63.8975 0.000318488 0)
(63.8976 0.000313685 0)
(63.8977 0.000326056 0)
(63.8977 0.000340509 0)
(63.8977 0.000345409 0)
(63.8978 0.000338208 0)
(63.8978 0.000319997 0)
(63.8978 0.000289435 0)
(63.8978 0.000275618 0)
(63.8979 0.000305083 0)
(63.8979 0.000333373 0)
(63.8979 0.000344302 0)
(63.8979 0.000366741 0)
(63.8979 0.000368693 0)
(63.8979 0.000343013 0)
(63.898 0.000316997 0)
(63.8981 0.000283579 0)
(63.8982 0.000264861 0)
(63.8983 0.000267937 0)
(63.8983 0.000272992 0)
(63.8983 0.000290726 0)
(63.8982 0.000304283 0)
(63.8982 0.000297653 0)
(63.8983 0.000295648 0)
(63.8983 0.000304594 0)
(63.8984 0.000318533 0)
(63.8985 0.000333679 0)
(63.8986 0.000329884 0)
(63.8986 0.000295617 0)
(63.8985 0.000260344 0)
(63.8985 0.000249102 0)
(63.8985 0.000250352 0)
(63.8985 0.000266897 0)
(63.8986 0.000310026 0)
(63.8987 0.000366335 0)
(63.8988 0.000407359 0)
(63.8988 0.000412302 0)
(63.8988 0.000403142 0)
(63.8988 0.000404127 0)
(63.8988 0.000395721 0)
(63.8988 0.000372317 0)
(63.8988 0.000352235 0)
(63.8989 0.000327326 0)
(63.899 0.0002912 0)
(63.899 0.000271462 0)
(63.899 0.000283414 0)
(63.899 0.000301631 0)
(63.899 0.000292385 0)
(63.899 0.000265383 0)
(63.8992 0.000256366 0)
(63.8993 0.000262036 0)
(63.8994 0.000281116 0)
(63.8994 0.000333676 0)
(63.8993 0.000393337 0)
(63.8992 0.000412668 0)
(63.8992 0.000375192 0)
(63.8993 0.000314607 0)
(63.8994 0.00028359 0)
(63.8994 0.000280234 0)
(63.8994 0.000285939 0)
(63.8995 0.000313915 0)
(63.8995 0.000352226 0)
(63.8995 0.00035985 0)
(63.8996 0.000322294 0)
(63.8996 0.000266786 0)
(63.8996 0.000232076 0)
(63.8997 0.000238307 0)
(63.8998 0.000267765 0)
(63.8999 0.000280644 0)
(63.9 0.00026528 0)
(63.8999 0.000238052 0)
(63.8999 0.000231322 0)
(63.8999 0.000272546 0)
(63.8999 0.000329359 0)
(63.9 0.000361213 0)
(63.9001 0.000367947 0)
(63.9001 0.0003466 0)
(63.9001 0.000317472 0)
(63.9002 0.000304663 0)
(63.9002 0.000296117 0)
(63.9001 0.000297908 0)
(63.9001 0.000316123 0)
(63.9001 0.000328105 0)
(63.9002 0.000320066 0)
(63.9002 0.000303688 0)
(63.9002 0.00030769 0)
(63.9002 0.000342659 0)
(63.9002 0.000386672 0)
(63.9002 0.000408446 0)
(63.9002 0.000409149 0)
(63.9002 0.00041865 0)
(63.9002 0.000444436 0)
(63.9003 0.000468696 0)
(63.9003 0.00045903 0)
(63.9003 0.000404221 0)
(63.9003 0.000339554 0)
(63.9002 0.00030971 0)
(63.9002 0.000323033 0)
(63.9002 0.00034188 0)
(63.9002 0.000326159 0)
(63.9003 0.000306212 0)
(50.5479 1.9167e-05 0)
(85.4629 9.07141e-05 0)
(73.2932 0.000147515 0)
(60.6469 0.000147007 0)
(59.9024 0.000118779 0)
(63.3623 0.000117995 0)
(64.8727 0.000137847 0)
(64.4221 0.000159613 0)
(63.8056 0.000184027 0)
(63.7035 0.000204293 0)
(63.8467 0.00020447 0)
(63.9316 0.000200081 0)
(63.9218 0.000193818 0)
(63.893 0.000175935 0)
(63.8849 0.000166867 0)
(63.8905 0.000164004 0)
(63.895 0.000158371 0)
(63.8951 0.000154342 0)
(63.8939 0.00012977 0)
(63.8934 9.54406e-05 0)
(63.8935 7.71224e-05 0)
(63.8938 6.36992e-05 0)
(63.8939 7.02243e-05 0)
(63.8939 0.000105157 0)
(63.8939 0.000135372 0)
(63.8939 0.000159372 0)
(63.8941 0.000181325 0)
(63.8942 0.000162345 0)
(63.8942 0.000134619 0)
(63.8942 0.000147017 0)
(63.8943 0.000153504 0)
(63.8943 0.000128083 0)
(63.8943 9.20784e-05 0)
(63.8943 7.31177e-05 0)
(63.8944 7.81584e-05 0)
(63.8945 5.58821e-05 0)
(63.8945 3.0414e-05 0)
(63.8945 8.33859e-05 0)
(63.8945 0.000175272 0)
(63.8945 0.000225567 0)
(63.8945 0.000228817 0)
(63.8945 0.00020707 0)
(63.8947 0.000185134 0)
(63.8947 0.000176354 0)
(63.8946 0.0001701 0)
(63.8947 0.000172954 0)
(63.8947 0.000177541 0)
(63.8947 0.000158621 0)
(63.8948 0.000132566 0)
(63.8948 0.000122621 0)
(63.8948 0.000133964 0)
(63.8948 0.000165492 0)
(63.8948 0.000191571 0)
(63.8949 0.000192095 0)
(63.895 0.000182639 0)
(63.8951 0.000179985 0)
(63.8951 0.000191504 0)
(63.8951 0.000201688 0)
(63.8951 0.000169541 0)
(63.895 0.000121779 0)
(63.895 0.000110959 0)
(63.895 0.000105926 0)
(63.8951 8.8262e-05 0)
(63.8952 8.24464e-05 0)
(63.8953 8.42974e-05 0)
(63.8954 8.5044e-05 0)
(63.8954 9.97878e-05 0)
(63.8954 0.000134887 0)
(63.8953 0.000157197 0)
(63.8953 0.000148964 0)
(63.8955 0.000119531 0)
(63.8956 7.51881e-05 0)
(63.8955 5.13933e-05 0)
(63.8954 7.14636e-05 0)
(63.8954 0.000123181 0)
(63.8955 0.000185255 0)
(63.8956 0.00023014 0)
(63.8956 0.00025524 0)
(63.8957 0.000267711 0)
(63.8957 0.00025783 0)
(63.8957 0.000222668 0)
(63.8956 0.000180248 0)
(63.8957 0.000157796 0)
(63.8957 0.00016687 0)
(63.8958 0.000202091 0)
(63.8959 0.00023739 0)
(63.896 0.000244839 0)
(63.896 0.000236519 0)
(63.896 0.000223099 0)
(63.8959 0.000198253 0)
(63.8959 0.000182055 0)
(63.896 0.000179657 0)
(63.896 0.000174461 0)
(63.896 0.000178592 0)
(63.896 0.000183474 0)
(63.8959 0.000174819 0)
(63.896 0.000183473 0)
(63.8961 0.000211032 0)
(63.8962 0.000226111 0)
(63.8962 0.000219617 0)
(63.8963 0.00017715 0)
(63.8964 9.98452e-05 0)
(63.8964 3.6513e-05 0)
(63.8964 1.70562e-05 0)
(63.8964 3.74144e-05 0)
(63.8963 8.2292e-05 0)
(63.8963 0.00011013 0)
(63.8964 0.000123542 0)
(63.8965 0.000163273 0)
(63.8965 0.000208669 0)
(63.8966 0.000244831 0)
(63.8966 0.000277689 0)
(63.8967 0.000283314 0)
(63.8968 0.000266717 0)
(63.8967 0.000244387 0)
(63.8966 0.000216387 0)
(63.8967 0.00020041 0)
(63.8966 0.000204381 0)
(63.8967 0.000210114 0)
(63.8967 0.000204767 0)
(63.8967 0.000187818 0)
(63.8968 0.000167413 0)
(63.8968 0.000156396 0)
(63.8968 0.000150589 0)
(63.8968 0.000154368 0)
(63.8968 0.000201062 0)
(63.8968 0.000279632 0)
(63.8969 0.000331156 0)
(63.8969 0.000334762 0)
(63.8969 0.000300766 0)
(63.8969 0.000239395 0)
(63.8969 0.000174894 0)
(63.8971 0.000119825 0)
(63.8972 8.40112e-05 0)
(63.8972 9.59589e-05 0)
(63.8971 0.000136738 0)
(63.8971 0.00015949 0)
(63.8971 0.000156905 0)
(63.8972 0.00014105 0)
(63.8973 0.000138279 0)
(63.8973 0.000154865 0)
(63.8974 0.00016036 0)
(63.8974 0.000158983 0)
(63.8975 0.000170696 0)
(63.8975 0.000191906 0)
(63.8975 0.000222421 0)
(63.8975 0.000245824 0)
(63.8976 0.000240223 0)
(63.8976 0.000217702 0)
(63.8976 0.000181756 0)
(63.8976 0.000133222 0)
(63.8977 0.000105088 0)
(63.8977 0.000101302 0)
(63.8978 0.000104214 0)
(63.8978 0.000126728 0)
(63.8979 0.000165122 0)
(63.8979 0.000188827 0)
(63.8979 0.000203677 0)
(63.8978 0.000239283 0)
(63.8979 0.000270737 0)
(63.8979 0.000258803 0)
(63.898 0.000226403 0)
(63.8981 0.000186979 0)
(63.8981 0.000137691 0)
(63.8982 0.00010719 0)
(63.8982 0.000104025 0)
(63.8981 0.000117679 0)
(63.8982 0.000134608 0)
(63.8982 0.000154001 0)
(63.8983 0.000185038 0)
(63.8984 0.000190113 0)
(63.8984 0.000156696 0)
(63.8984 0.000130065 0)
(63.8984 0.000121712 0)
(63.8984 0.00012052 0)
(63.8984 0.000120954 0)
(63.8985 0.000133706 0)
(63.8986 0.000174559 0)
(63.8987 0.000211575 0)
(63.8988 0.000222474 0)
(63.8988 0.000225588 0)
(63.8988 0.00021369 0)
(63.8987 0.000191838 0)
(63.8987 0.000200774 0)
(63.8987 0.00023057 0)
(63.8988 0.000242666 0)
(63.8988 0.000247275 0)
(63.8988 0.000262996 0)
(63.8988 0.000281195 0)
(63.8988 0.000276693 0)
(63.8989 0.000236482 0)
(63.899 0.000196362 0)
(63.899 0.000182126 0)
(63.899 0.000179464 0)
(63.899 0.000191553 0)
(63.899 0.000208509 0)
(63.8991 0.00018688 0)
(63.8991 0.000130513 0)
(63.8991 9.40226e-05 0)
(63.899 0.000100637 0)
(63.899 0.000138592 0)
(63.8991 0.000191967 0)
(63.8992 0.000243378 0)
(63.8993 0.000279857 0)
(63.8993 0.000284257 0)
(63.8993 0.000264104 0)
(63.8993 0.000257447 0)
(63.8993 0.000256198 0)
(63.8993 0.000239989 0)
(63.8993 0.00023414 0)
(63.8994 0.000242035 0)
(63.8994 0.00023003 0)
(63.8995 0.000182895 0)
(63.8995 0.000126016 0)
(63.8995 9.29386e-05 0)
(63.8996 8.21413e-05 0)
(63.8996 8.24265e-05 0)
(63.8996 0.000100908 0)
(63.8996 0.00013943 0)
(63.8997 0.000178469 0)
(63.8998 0.000199921 0)
(63.8998 0.000211777 0)
(63.8999 0.000217436 0)
(63.8999 0.000219995 0)
(63.8999 0.00023398 0)
(63.8999 0.000238618 0)