/*--------------------------------*- C++ -*----------------------------------*\
| =========                 |                                                 |
| \\      /  F ield         | OpenFOAM: The Open Source CFD Toolbox           |
|  \\    /   O peration     | Version:  2406                                  |
|   \\  /    A nd           | Website:  www.openfoam.com                      |
|    \\/     M anipulation  |                                                 |
\*---------------------------------------------------------------------------*/
FoamFile
{
    version     2.0;
    format      ascii;
    arch        "LSB;label=32;scalar=64";
    class       surfaceScalarField;
    location    "0.3";
    object      phi;
}
// * * * * * * * * * * * * * * * * * * * * * * * * * * * * * * * * * * * * * //

dimensions      [0 3 -1 0 0 0 0];

oriented        oriented;

internalField   nonuniform List<scalar> 
4335
(
5.15999e-05
4.55683e-11
5.15999e-05
3.00059e-11
5.15998e-05
4.59822e-11
5.15997e-05
6.60816e-11
5.15997e-05
9.64274e-11
5.15996e-05
8.82624e-11
5.15996e-05
4.8793e-11
5.15994e-05
4.74966e-11
5.15995e-05
7.98136e-11
5.15994e-05
7.52076e-11
5.15994e-05
5.45244e-11
5.15993e-05
4.28851e-11
5.15993e-05
4.07648e-11
5.15992e-05
4.53516e-11
5.15992e-05
3.99156e-11
5.15992e-05
2.45556e-11
5.15992e-05
1.49478e-11
5.15991e-05
1.06521e-11
5.15991e-05
8.948e-12
5.1599e-05
2.06705e-11
5.1599e-05
4.14981e-11
5.1599e-05
5.17928e-11
5.1599e-05
4.36025e-11
5.15989e-05
2.95166e-11
5.15989e-05
2.03326e-11
5.15989e-05
1.59925e-11
5.15989e-05
9.04409e-12
5.15989e-05
6.05479e-14
5.15988e-05
-6.30413e-12
5.15988e-05
-6.45505e-12
5.15988e-05
-2.02708e-12
5.15988e-05
4.84825e-13
5.15988e-05
-2.36902e-12
5.15988e-05
-8.85224e-12
5.15988e-05
-1.64332e-11
5.15988e-05
-2.24597e-11
5.15988e-05
-2.20383e-11
5.15988e-05
-1.4762e-11
5.15988e-05
-7.15776e-12
5.15989e-05
-4.20584e-12
5.15989e-05
-5.18603e-12
5.15989e-05
-5.70023e-12
5.15989e-05
-3.07278e-12
5.15989e-05
2.44799e-12
5.15989e-05
6.82429e-12
5.15989e-05
9.83967e-12
5.15989e-05
1.32175e-11
5.15988e-05
1.84122e-11
5.15988e-05
2.3285e-11
5.15988e-05
2.54968e-11
5.15988e-05
2.20959e-11
5.15988e-05
1.54283e-11
5.15988e-05
1.02916e-11
5.15988e-05
1.21939e-11
5.15987e-05
1.96692e-11
5.15987e-05
2.62898e-11
5.15987e-05
2.60284e-11
5.15986e-05
1.94301e-11
5.15986e-05
1.31145e-11
5.15986e-05
1.2839e-11
5.15986e-05
1.66052e-11
5.15986e-05
1.90959e-11
5.15986e-05
1.87649e-11
5.15986e-05
1.64133e-11
5.15985e-05
1.60811e-11
5.15985e-05
1.91158e-11
5.15985e-05
2.0558e-11
5.15985e-05
1.50835e-11
5.15985e-05
4.5907e-12
5.15985e-05
-5.9086e-12
5.15985e-05
-8.88388e-12
5.15985e-05
-6.535e-12
5.15985e-05
-4.7497e-12
5.15985e-05
-9.20203e-12
5.15985e-05
-1.82647e-11
5.15986e-05
-2.32992e-11
5.15986e-05
-1.93324e-11
5.15986e-05
-9.84289e-12
5.15986e-05
-1.02572e-12
5.15986e-05
9.52768e-13
5.15986e-05
-8.56508e-13
5.15986e-05
-2.58265e-13
5.15985e-05
5.63909e-12
5.15985e-05
1.16344e-11
5.15985e-05
1.0928e-11
5.15985e-05
2.50296e-12
5.15985e-05
-7.40471e-12
5.15985e-05
-1.13924e-11
5.15985e-05
-7.21334e-12
5.15985e-05
-2.51696e-12
5.15985e-05
-4.22635e-12
5.15985e-05
-1.05295e-11
5.15986e-05
-1.57034e-11
5.15986e-05
-1.35516e-11
5.15986e-05
-6.49527e-12
5.15986e-05
-1.86545e-12
5.15986e-05
-4.22243e-12
5.15986e-05
-9.98681e-12
5.15986e-05
-1.3397e-11
5.15986e-05
-9.73161e-12
5.15987e-05
-3.64184e-12
5.15987e-05
-2.45192e-12
5.15987e-05
-6.64516e-12
5.15987e-05
-1.18265e-11
5.15987e-05
-1.17915e-11
5.15987e-05
-4.15646e-12
5.15987e-05
5.20931e-12
5.15987e-05
7.52242e-12
5.15987e-05
3.05477e-12
5.15987e-05
-2.22036e-12
5.15987e-05
-1.82591e-12
5.15987e-05
3.08224e-12
5.15987e-05
6.47912e-12
5.15987e-05
4.14907e-12
5.15987e-05
-1.70872e-12
5.15987e-05
-4.36099e-12
5.15987e-05
-1.58635e-12
5.15987e-05
3.7855e-12
5.15987e-05
7.13522e-12
5.15988e-05
4.51582e-12
5.15988e-05
-1.6898e-12
5.15988e-05
-4.13047e-12
5.15988e-05
-5.84865e-13
5.15988e-05
3.05482e-12
5.15988e-05
1.30173e-12
5.15989e-05
-4.47541e-12
5.15989e-05
-9.78717e-12
5.15989e-05
-1.06321e-11
5.15989e-05
-6.55759e-12
5.15989e-05
-2.1167e-12
5.15989e-05
-3.03379e-12
5.15989e-05
-6.99837e-12
5.15989e-05
-9.90702e-12
5.15989e-05
-1.10262e-11
5.15989e-05
-1.03938e-11
5.15989e-05
-1.00746e-11
5.15989e-05
-1.30391e-11
5.15989e-05
-1.78531e-11
5.1599e-05
-2.00174e-11
5.1599e-05
-1.87586e-11
5.1599e-05
-1.51351e-11
5.1599e-05
-1.1975e-11
5.1599e-05
-1.40153e-11
5.1599e-05
-2.02444e-11
5.1599e-05
-2.36427e-11
5.15991e-05
-2.22119e-11
5.15991e-05
-2.11352e-11
5.15991e-05
-2.33028e-11
5.15991e-05
-2.77276e-11
-1.80486e-11
0.000140486
1.41391e-10
0.000140486
1.41122e-10
0.000140486
1.6977e-10
0.000140486
1.60322e-10
0.000140486
1.3801e-10
0.000140486
1.47485e-10
0.000140486
1.98801e-10
0.000140485
2.03526e-10
0.000140485
1.82069e-10
0.000140485
1.41181e-10
0.000140485
1.30335e-10
0.000140485
1.54628e-10
0.000140485
1.63372e-10
0.000140485
1.48321e-10
0.000140485
1.25783e-10
0.000140485
1.02336e-10
0.000140485
8.81825e-11
0.000140484
8.96975e-11
0.000140484
9.3847e-11
0.000140484
9.46223e-11
0.000140484
9.8504e-11
0.000140484
1.0221e-10
0.000140484
9.27925e-11
0.000140484
6.9647e-11
0.000140484
4.64755e-11
0.000140484
3.19233e-11
0.000140484
2.10162e-11
0.000140484
8.12428e-12
0.000140484
-6.53198e-12
0.000140484
-1.78539e-11
0.000140484
-2.01611e-11
0.000140484
-1.43469e-11
0.000140484
-7.65943e-12
0.000140484
-5.29606e-12
0.000140484
-8.76578e-12
0.000140484
-1.96975e-11
0.000140484
-3.14884e-11
0.000140484
-3.42098e-11
0.000140484
-2.65553e-11
0.000140484
-1.59167e-11
0.000140484
-8.4538e-12
0.000140484
-4.50783e-12
0.000140484
1.22153e-13
0.000140484
9.27077e-12
0.000140484
2.00474e-11
0.000140484
2.66173e-11
0.000140484
2.82288e-11
0.000140484
2.92787e-11
0.000140484
3.38516e-11
0.000140484
4.18975e-11
0.000140484
4.88715e-11
0.000140484
4.69933e-11
0.000140484
3.53272e-11
0.000140484
2.18631e-11
0.000140484
1.60409e-11
0.000140484
2.02636e-11
0.000140484
2.83861e-11
0.000140484
3.21186e-11
0.000140484
3.00296e-11
0.000140484
2.84682e-11
0.000140484
3.20946e-11
0.000140484
3.91431e-11
0.000140484
4.42203e-11
0.000140484
4.19399e-11
0.000140484
3.46387e-11
0.000140484
2.96302e-11
0.000140484
2.96552e-11
0.000140484
2.92575e-11
0.000140484
2.04603e-11
0.000140484
2.53527e-12
0.000140484
-1.66296e-11
0.000140484
-2.78154e-11
0.000140484
-2.89294e-11
0.000140484
-2.72842e-11
0.000140484
-3.14836e-11
0.000140484
-4.05351e-11
0.000140484
-4.56922e-11
0.000140484
-3.95732e-11
0.000140484
-2.35147e-11
0.000140484
-9.2269e-12
0.000140484
-3.58685e-12
0.000140484
-5.3783e-12
0.000140484
-5.15995e-12
0.000140484
1.51742e-12
0.000140484
1.09027e-11
0.000140484
1.37273e-11
0.000140484
5.95135e-12
0.000140484
-6.00001e-12
0.000140484
-1.05399e-11
0.000140484
-5.04079e-12
0.000140484
3.40465e-12
0.000140484
4.90846e-12
0.000140484
-2.34278e-12
0.000140484
-8.91451e-12
0.000140484
-9.1716e-12
0.000140484
-2.39709e-12
0.000140484
2.7867e-12
0.000140484
-9.09385e-13
0.000140484
-1.16414e-11
0.000140484
-1.89238e-11
0.000140484
-1.73582e-11
0.000140484
-1.03581e-11
0.000140484
-6.86179e-12
0.000140484
-1.00148e-11
0.000140484
-1.57548e-11
0.000140484
-1.52577e-11
0.000140484
-4.50461e-12
0.000140484
9.12667e-12
0.000140484
1.47763e-11
0.000140484
1.01926e-11
0.000140484
3.62158e-12
0.000140484
2.98339e-12
0.000140484
8.88182e-12
0.000140484
1.43985e-11
0.000140484
1.28758e-11
0.000140484
6.84517e-12
0.000140484
2.94156e-12
0.000140484
4.65028e-12
0.000140484
1.11689e-11
0.000140484
1.60258e-11
0.000140484
1.3125e-11
0.000140484
3.73307e-12
0.000140484
-7.14443e-13
0.000140484
2.75077e-12
0.000140484
5.86655e-12
0.000140484
4.1776e-12
0.000140484
-2.32417e-12
0.000140484
-1.12059e-11
0.000140484
-1.50992e-11
0.000140484
-1.20064e-11
0.000140484
-9.54302e-12
0.000140484
-1.23233e-11
0.000140484
-1.78364e-11
0.000140484
-2.29117e-11
0.000140484
-2.51878e-11
0.000140484
-2.39762e-11
0.000140484
-2.42164e-11
0.000140484
-2.93e-11
0.000140484
-3.45366e-11
0.000140484
-3.59481e-11
0.000140484
-3.47685e-11
0.000140484
-3.24339e-11
0.000140484
-3.16951e-11
0.000140484
-3.58809e-11
0.000140484
-4.22098e-11
0.000140484
-4.54317e-11
0.000140484
-4.66885e-11
0.000140484
-4.98922e-11
0.000140484
-5.58194e-11
-4.47363e-11
0.000215272
1.73052e-10
0.000215272
2.10775e-10
0.000215272
3.00002e-10
0.000215272
3.46832e-10
0.000215272
3.1762e-10
0.000215272
2.51198e-10
0.000215272
1.87376e-10
0.000215271
1.63601e-10
0.000215271
2.46688e-10
0.000215271
3.23411e-10
0.000215271
3.3401e-10
0.000215271
3.08096e-10
0.000215271
2.65447e-10
0.000215271
2.22752e-10
0.000215271
1.887e-10
0.000215271
1.6067e-10
0.00021527
1.41567e-10
0.00021527
1.44464e-10
0.00021527
1.60181e-10
0.00021527
1.62838e-10
0.00021527
1.46787e-10
0.00021527
1.282e-10
0.00021527
1.14992e-10
0.00021527
9.80879e-11
0.00021527
7.11898e-11
0.00021527
4.07493e-11
0.00021527
1.62097e-11
0.00021527
3.48647e-12
0.00021527
5.89668e-13
0.00021527
9.02753e-13
0.00021527
6.22899e-13
0.00021527
3.77771e-13
0.00021527
-7.90408e-13
0.00021527
-3.2614e-12
0.00021527
-4.48518e-12
0.00021527
-6.79012e-12
0.00021527
-1.35549e-11
0.00021527
-2.03343e-11
0.00021527
-2.03106e-11
0.00021527
-1.30674e-11
0.00021527
-3.29683e-12
0.00021527
4.16527e-12
0.00021527
8.03e-12
0.00021527
1.272e-11
0.00021527
2.22233e-11
0.00021527
3.41586e-11
0.00021527
4.3636e-11
0.00021527
4.79164e-11
0.00021527
4.7787e-11
0.00021527
4.75886e-11
0.00021527
5.02762e-11
0.00021527
5.20505e-11
0.00021527
4.61935e-11
0.00021527
3.21939e-11
0.00021527
1.78072e-11
0.00021527
1.21482e-11
0.00021527
1.79498e-11
0.000215269
2.92019e-11
0.000215269
3.63029e-11
0.000215269
3.69477e-11
0.00021527
3.63232e-11
0.00021527
4.08055e-11
0.000215269
5.06429e-11
0.000215269
5.90676e-11
0.000215269
5.83423e-11
0.000215269
4.93176e-11
0.000215269
4.02607e-11
0.000215269
3.59799e-11
0.000215269
3.25077e-11
0.000215269
2.2287e-11
0.000215269
2.62271e-12
0.000215269
-2.03305e-11
0.000215269
-3.61848e-11
0.000215269
-4.04431e-11
0.000215269
-3.90249e-11
0.000215269
-4.06955e-11
0.000215269
-4.75985e-11
0.000215269
-5.29617e-11
0.000215269
-4.78441e-11
0.000215269
-3.28202e-11
0.000215269
-1.78111e-11
0.000215269
-1.16395e-11
0.000215269
-1.38245e-11
0.000215269
-1.53996e-11
0.000215269
-1.05253e-11
0.000215269
-1.34979e-13
0.000215269
6.21014e-12
0.000215269
2.59822e-12
0.000215269
-5.9926e-12
0.000215269
-8.63435e-12
0.000215269
-1.13246e-12
0.000215269
9.89906e-12
0.000215269
1.34325e-11
0.000215269
6.69201e-12
0.000215269
-3.64257e-12
0.000215269
-7.78106e-12
0.000215269
-3.83623e-12
0.000215269
8.69504e-13
0.000215269
-2.5866e-12
0.000215269
-1.41591e-11
0.000215269
-2.43282e-11
0.000215269
-2.55863e-11
0.000215269
-1.95753e-11
0.000215269
-1.32364e-11
0.000215269
-1.27812e-11
0.000215269
-1.67909e-11
0.000215269
-1.60998e-11
0.000215269
-5.87378e-12
0.000215269
7.91902e-12
0.000215269
1.4972e-11
0.000215269
1.27308e-11
0.000215269
6.92749e-12
0.00021527
6.16305e-12
0.00021527
1.26364e-11
0.00021527
1.91457e-11
0.00021527
1.92208e-11
0.00021527
1.45204e-11
0.00021527
9.24822e-12
0.00021527
8.45347e-12
0.00021527
1.45199e-11
0.00021527
2.07158e-11
0.00021527
1.72292e-11
0.00021527
7.61089e-12
0.00021527
2.15081e-12
0.00021527
2.23935e-12
0.00021527
4.22077e-12
0.00021527
3.84526e-12
0.00021527
-2.55185e-12
0.00021527
-1.17986e-11
0.00021527
-1.57076e-11
0.00021527
-1.3949e-11
0.00021527
-1.30277e-11
0.00021527
-1.51883e-11
0.00021527
-2.03128e-11
0.00021527
-2.80087e-11
0.00021527
-3.31656e-11
0.00021527
-3.37926e-11
0.00021527
-3.41461e-11
0.00021527
-3.56871e-11
0.00021527
-3.68362e-11
0.00021527
-3.96812e-11
0.00021527
-4.48289e-11
0.00021527
-4.87154e-11
0.00021527
-5.18299e-11
0.00021527
-5.6138e-11
0.00021527
-5.83404e-11
0.00021527
-5.5893e-11
0.00021527
-6.01412e-11
0.00021527
-6.58193e-11
-4.9936e-11
0.000276155
2.01606e-10
0.000276155
2.30223e-10
0.000276155
2.98891e-10
0.000276155
3.58869e-10
0.000276155
3.42333e-10
0.000276155
3.40312e-10
0.000276155
3.32269e-10
0.000276155
2.93069e-10
0.000276155
2.6908e-10
0.000276155
2.52414e-10
0.000276155
2.27218e-10
0.000276155
2.14256e-10
0.000276155
2.18297e-10
0.000276155
2.28645e-10
0.000276155
2.3906e-10
0.000276155
2.42737e-10
0.000276155
2.33701e-10
0.000276155
2.24345e-10
0.000276155
2.25706e-10
0.000276154
2.25496e-10
0.000276154
2.08067e-10
0.000276154
1.77683e-10
0.000276154
1.47586e-10
0.000276154
1.19249e-10
0.000276154
8.79188e-11
0.000276154
5.59913e-11
0.000276154
2.99834e-11
0.000276154
1.5869e-11
0.000276154
1.65757e-11
0.000276154
2.52563e-11
0.000276154
3.17682e-11
0.000276154
3.12093e-11
0.000276154
2.41805e-11
0.000276154
1.34078e-11
0.000276154
7.57332e-12
0.000276154
1.10808e-11
0.000276154
1.56867e-11
0.000276154
1.26521e-11
0.000276154
4.55787e-12
0.000276154
1.42083e-13
0.000276154
4.06662e-12
0.000276154
1.46796e-11
0.000276154
2.29196e-11
0.000276154
2.47843e-11
0.000276154
2.52106e-11
0.000276154
3.02907e-11
0.000276154
4.13099e-11
0.000276154
5.33969e-11
0.000276154
5.81291e-11
0.000276154
5.15391e-11
0.000276154
3.9164e-11
0.000276154
2.92166e-11
0.000276154
2.3314e-11
0.000276154
1.72407e-11
0.000276154
7.63953e-12
0.000276154
-2.78876e-12
0.000276154
-5.85227e-12
0.000276154
2.32709e-12
0.000276154
1.61032e-11
0.000276154
2.55525e-11
0.000276154
2.73102e-11
0.000276154
2.57099e-11
0.000276154
2.92497e-11
0.000276154
4.17731e-11
0.000276154
5.54302e-11
0.000276154
5.88614e-11
0.000276154
4.99352e-11
0.000276154
3.61378e-11
0.000276154
2.64878e-11
0.000276154
2.19699e-11
0.000276154
1.57267e-11
0.000276154
8.81668e-13
0.000276154
-1.95439e-11
0.000276154
-3.60977e-11
0.000276154
-4.05423e-11
0.000276154
-3.55214e-11
0.000276154
-3.12731e-11
0.000276154
-3.46123e-11
0.000276154
-4.22501e-11
0.000276154
-4.37922e-11
0.000276154
-3.44056e-11
0.000276154
-2.09135e-11
0.000276154
-1.23375e-11
0.000276154
-1.32518e-11
0.000276154
-1.75357e-11
0.000276154
-1.54307e-11
0.000276154
-5.2999e-12
0.000276154
4.9044e-12
0.000276154
6.92445e-12
0.000276154
1.0779e-12
0.000276154
-2.87299e-12
0.000276154
2.30587e-12
0.000276154
1.35385e-11
0.000276154
1.99533e-11
0.000276154
1.49705e-11
0.000276154
2.72046e-12
0.000276154
-6.37045e-12
0.000276154
-6.06061e-12
0.000276154
-1.30971e-12
0.000276154
-2.8353e-12
0.000276154
-1.36056e-11
0.000276154
-2.63525e-11
0.000276154
-3.17639e-11
0.000276154
-2.64062e-11
0.000276154
-1.634e-11
0.000276154
-1.18175e-11
0.000276154
-1.4856e-11
0.000276154
-1.6396e-11
0.000276154
-9.26747e-12
0.000276154
4.07399e-12
0.000276154
1.57654e-11
0.000276154
1.78931e-11
0.000276154
1.25265e-11
0.000276154
9.55057e-12
0.000276154
1.34003e-11
0.000276154
1.9698e-11
0.000276154
2.34586e-11
0.000276154
2.13018e-11
0.000276154
1.34715e-11
0.000276154
8.45102e-12
0.000276154
1.25253e-11
0.000276154
1.79924e-11
0.000276154
1.57941e-11
0.000276154
8.26691e-12
0.000276154
9.97832e-13
0.000276154
-2.62509e-12
0.000276154
-6.65202e-13
0.000276154
1.72655e-12
0.000276154
-1.72639e-12
0.000276154
-7.09774e-12
0.000276154
-8.70824e-12
0.000276154
-8.2904e-12
0.000276154
-7.95314e-12
0.000276154
-8.5889e-12
0.000276154
-1.36938e-11
0.000276154
-2.09865e-11
0.000276154
-2.33954e-11
0.000276154
-2.22709e-11
0.000276154
-2.40281e-11
0.000276154
-2.91657e-11
0.000276154
-3.69243e-11
0.000276154
-4.74823e-11
0.000276154
-5.50557e-11
0.000276154
-5.62654e-11
0.000276154
-5.61976e-11
0.000276154
-5.95845e-11
0.000276154
-6.12941e-11
0.000276154
-5.71786e-11
0.000276154
-5.92664e-11
-4.8262e-11
0.000323311
2.10499e-10
0.000323311
2.19225e-10
0.000323311
2.71612e-10
0.000323311
3.79639e-10
0.000323311
4.03741e-10
0.000323311
4.00659e-10
0.000323311
3.46329e-10
0.000323311
2.69968e-10
0.000323311
1.86179e-10
0.000323311
1.28985e-10
0.000323311
1.06702e-10
0.000323311
1.09074e-10
0.000323311
1.34304e-10
0.000323312
1.7091e-10
0.000323312
2.08179e-10
0.000323312
2.4377e-10
0.000323312
2.63867e-10
0.000323312
2.5765e-10
0.000323311
2.38625e-10
0.000323311
2.23715e-10
0.000323311
2.09289e-10
0.000323311
1.84397e-10
0.000323311
1.50623e-10
0.000323311
1.1601e-10
0.000323311
8.55289e-11
0.000323311
6.34673e-11
0.000323311
5.07779e-11
0.000323311
4.3777e-11
0.000323311
4.25307e-11
0.000323311
4.79987e-11
0.000323311
5.4417e-11
0.000323311
5.58284e-11
0.000323311
5.13008e-11
0.000323311
4.02119e-11
0.000323311
2.67259e-11
0.000323311
2.0789e-11
0.000323311
2.51376e-11
0.000323311
3.15466e-11
0.000323311
3.14825e-11
0.000323311
2.39115e-11
0.000323311
1.58047e-11
0.000323311
1.64561e-11
0.000323311
2.60566e-11
0.000323311
3.69443e-11
0.000323311
4.37892e-11
0.000323311
4.68754e-11
0.000323311
4.97463e-11
0.000323311
5.51125e-11
0.000323311
5.97868e-11
0.000323311
5.57923e-11
0.000323311
4.03413e-11
0.000323311
2.01094e-11
0.000323311
4.90248e-12
0.000323311
-3.38193e-13
0.000323311
4.75836e-13
0.000323311
-1.58747e-12
0.000323311
-9.01138e-12
0.000323311
-1.41651e-11
0.000323311
-1.02608e-11
0.000323311
1.65795e-12
0.000323311
1.5043e-11
0.000323311
2.23297e-11
0.000323311
2.26197e-11
0.000323311
2.3685e-11
0.000323311
3.18371e-11
0.000323311
4.29958e-11
0.000323311
4.70295e-11
0.000323311
3.85699e-11
0.000323311
2.2692e-11
0.000323311
9.69908e-12
0.000323311
5.35538e-12
0.000323311
4.75361e-12
0.000323311
-1.27276e-12
0.000323311
-1.49588e-11
0.000323311
-2.93477e-11
0.000323311
-3.53009e-11
0.000323311
-3.06771e-11
0.000323311
-2.30696e-11
0.000323311
-2.26527e-11
0.000323311
-2.99421e-11
0.000323311
-3.55727e-11
0.000323311
-3.16322e-11
0.000323311
-1.99982e-11
0.000323311
-1.10931e-11
0.000323311
-1.13956e-11
0.000323311
-1.75355e-11
0.000323311
-1.93062e-11
0.000323311
-1.1414e-11
0.000323311
1.9181e-12
0.000323311
9.69762e-12
0.000323311
7.23569e-12
0.000323311
9.51906e-13
0.000323311
1.05632e-12
0.000323311
9.00357e-12
0.000323311
1.69461e-11
0.000323311
1.61538e-11
0.000323311
5.40343e-12
0.000323311
-6.64631e-12
0.000323311
-1.07424e-11
0.000323311
-8.1467e-12
0.000323311
-7.55889e-12
0.000323311
-1.43258e-11
0.000323311
-2.57747e-11
0.000323311
-3.27339e-11
0.000323311
-2.83007e-11
0.000323311
-1.68331e-11
0.000323311
-9.54403e-12
0.000323311
-1.02289e-11
0.000323311
-1.37931e-11
0.000323311
-1.25858e-11
0.000323311
-1.95551e-12
0.000323311
1.15894e-11
0.000323311
1.71117e-11
0.000323311
1.38783e-11
0.000323311
1.02085e-11
0.000323311
1.06646e-11
0.000323311
1.54768e-11
0.000323311
2.21641e-11
0.000323311
2.25203e-11
0.000323311
1.42401e-11
0.000323311
7.27346e-12
0.000323311
7.67927e-12
0.000323311
1.03562e-11
0.000323311
1.06948e-11
0.000323311
6.65045e-12
0.000323311
-1.85153e-12
0.000323311
-7.02397e-12
0.000323311
-4.14584e-12
0.000323311
-7.54707e-13
0.000323311
-1.9969e-12
0.000323311
-3.82642e-12
0.000323311
-4.96713e-12
0.000323311
-5.6625e-12
0.000323311
-3.18721e-12
0.000323311
-1.06613e-12
0.000323311
-5.30615e-12
0.000323311
-1.15592e-11
0.000323311
-1.47512e-11
0.000323311
-1.84114e-11
0.000323311
-2.38449e-11
0.000323311
-2.85142e-11
0.000323311
-3.49351e-11
0.000323311
-4.34811e-11
0.000323311
-4.94241e-11
0.000323311
-4.94965e-11
0.000323311
-4.91563e-11
0.000323311
-5.2653e-11
0.000323311
-5.07858e-11
0.000323311
-5.9009e-11
-5.31978e-11
0.000356885
1.71059e-10
0.000356885
1.71175e-10
0.000356885
2.03255e-10
0.000356885
3.14091e-10
0.000356885
4.01012e-10
0.000356885
4.21948e-10
0.000356885
3.51216e-10
0.000356885
2.76961e-10
0.000356885
2.00588e-10
0.000356885
1.35042e-10
0.000356885
1.00086e-10
0.000356885
8.66997e-11
0.000356885
9.30246e-11
0.000356885
1.17759e-10
0.000356885
1.48348e-10
0.000356885
1.78614e-10
0.000356885
2.0409e-10
0.000356885
2.11593e-10
0.000356885
1.98353e-10
0.000356885
1.79833e-10
0.000356885
1.65733e-10
0.000356886
1.4906e-10
0.000356886
1.24585e-10
0.000356886
9.70882e-11
0.000356886
7.27145e-11
0.000356886
5.80761e-11
0.000356885
5.70817e-11
0.000356885
6.18133e-11
0.000356885
6.2747e-11
0.000356885
6.10013e-11
0.000356885
5.93466e-11
0.000356885
5.69971e-11
0.000356885
5.53822e-11
0.000356885
5.41403e-11
0.000356885
4.85212e-11
0.000356885
3.86607e-11
0.000356885
3.07248e-11
0.000356885
2.93494e-11
0.000356885
3.37688e-11
0.000356885
3.79078e-11
0.000356885
3.64374e-11
0.000356885
3.31426e-11
0.000356885
3.60888e-11
0.000356885
4.6674e-11
0.000356885
5.90205e-11
0.000356885
6.60203e-11
0.000356885
6.46429e-11
0.000356885
5.83012e-11
0.000356885
5.25843e-11
0.000356885
4.72945e-11
0.000356885
3.76087e-11
0.000356885
2.11496e-11
0.000356885
1.19627e-12
0.000356885
-1.35413e-11
0.000356885
-1.55099e-11
0.000356885
-8.23416e-12
0.000356885
-3.41831e-12
0.000356885
-6.57769e-12
0.000356885
-1.2243e-11
0.000356885
-1.2072e-11
0.000356885
-2.03009e-12
0.000356885
1.35607e-11
0.000356885
2.41689e-11
0.000356885
2.47762e-11
0.000356885
2.10047e-11
0.000356885
2.1369e-11
0.000356885
2.68049e-11
0.000356885
3.03166e-11
0.000356885
2.48257e-11
0.000356885
1.06647e-11
0.000356885
-2.49801e-12
0.000356885
-6.03484e-12
0.000356885
-2.40977e-12
0.000356885
-7.67117e-13
0.000356885
-6.65505e-12
0.000356885
-1.74301e-11
0.000356885
-2.41876e-11
0.000356885
-2.14233e-11
0.000356885
-1.39171e-11
0.000356885
-1.16157e-11
0.000356885
-1.82464e-11
0.000356885
-2.74078e-11
0.000356885
-2.88169e-11
0.000356885
-2.06891e-11
0.000356885
-1.14021e-11
0.000356885
-9.67999e-12
0.000356885
-1.57671e-11
0.000356885
-2.09408e-11
0.000356885
-1.65796e-11
0.000356885
-3.69595e-12
0.000356885
6.93343e-12
0.000356885
7.12918e-12
0.000356885
-1.17041e-13
0.000356885
-4.97912e-12
0.000356885
-1.35201e-12
0.000356885
7.2843e-12
0.000356885
1.07378e-11
0.000356885
3.32442e-12
0.000356885
-8.93513e-12
0.000356885
-1.62181e-11
0.000356885
-1.58059e-11
0.000356885
-1.28961e-11
0.000356885
-1.53029e-11
0.000356885
-2.48591e-11
0.000356885
-3.32229e-11
0.000356885
-3.1834e-11
0.000356885
-2.26632e-11
0.000356885
-1.27067e-11
0.000356885
-8.0126e-12
0.000356885
-9.65825e-12
0.000356885
-9.7885e-12
0.000356885
-6.70947e-13
0.000356885
1.26797e-11
0.000356885
1.9098e-11
0.000356885
1.79285e-11
0.000356885
1.3711e-11
0.000356885
1.03506e-11
0.000356885
1.31343e-11
0.000356885
1.99912e-11
0.000356885
2.02713e-11
0.000356885
1.27766e-11
0.000356885
5.18882e-12
0.000356886
9.98495e-13
0.000356886
1.42802e-12
0.000356886
4.98977e-12
0.000356886
3.07782e-12
0.000356886
-5.35432e-12
0.000356886
-9.20467e-12
0.000356886
-5.92681e-12
0.000356886
-2.75902e-12
0.000356886
-3.73931e-13
0.000356886
1.77878e-12
0.000356886
1.02123e-13
0.000356886
-2.27738e-12
0.000356886
-7.97681e-13
0.000356886
-6.49688e-14
0.000356886
-3.14252e-12
0.000356886
-6.13759e-12
0.000356886
-9.44973e-12
0.000356886
-1.62246e-11
0.000356885
-2.29114e-11
0.000356885
-2.73734e-11
0.000356885
-3.17742e-11
0.000356885
-3.53675e-11
0.000356885
-3.51923e-11
0.000356885
-3.40154e-11
0.000356885
-3.63365e-11
0.000356885
-3.94541e-11
0.000356885
-5.30651e-11
-4.97451e-11
0.000376985
1.5798e-10
0.000376985
1.68227e-10
0.000376985
1.72684e-10
0.000376985
2.16668e-10
0.000376985
3.13854e-10
0.000376985
3.90385e-10
0.000376985
3.79444e-10
0.000376985
3.46599e-10
0.000376985
3.08264e-10
0.000376985
2.53609e-10
0.000376985
2.05027e-10
0.000376985
1.76343e-10
0.000376984
1.5972e-10
0.000376985
1.51875e-10
0.000376985
1.46772e-10
0.000376985
1.39592e-10
0.000376985
1.36651e-10
0.000376985
1.37016e-10
0.000376985
1.292e-10
0.000376985
1.11678e-10
0.000376985
9.49166e-11
0.000376985
8.25749e-11
0.000376985
7.14873e-11
0.000376985
6.23574e-11
0.000376985
5.51366e-11
0.000376985
4.90951e-11
0.000376985
4.93242e-11
0.000376985
5.62339e-11
0.000376985
5.99194e-11
0.000376985
5.55081e-11
0.000376985
4.75859e-11
0.000376985
4.02746e-11
0.000376985
3.67792e-11
0.000376985
3.93704e-11
0.000376985
4.40604e-11
0.000376985
4.40577e-11
0.000376985
3.72534e-11
0.000376985
2.77006e-11
0.000376985
2.37391e-11
0.000376985
2.9932e-11
0.000376985
4.02255e-11
0.000376985
4.59212e-11
0.000376985
4.66621e-11
0.000376985
4.78067e-11
0.000376985
5.22032e-11
0.000376985
5.73667e-11
0.000376985
5.76437e-11
0.000376985
5.06037e-11
0.000376985
4.03283e-11
0.000376985
3.18919e-11
0.000376985
2.63766e-11
0.000376985
2.15322e-11
0.000376985
1.27001e-11
0.000376985
-2.3919e-12
0.000376985
-1.67017e-11
0.000376985
-2.08145e-11
0.000376985
-1.50261e-11
0.000376985
-7.79586e-12
0.000376985
-5.42885e-12
0.000376985
-7.27032e-12
0.000376985
-7.67329e-12
0.000376985
-9.8048e-13
0.000376985
1.0847e-11
0.000376985
1.91136e-11
0.000376985
1.82609e-11
0.000376985
1.20821e-11
0.000376985
7.5557e-12
0.000376985
9.58836e-12
0.000376985
1.4928e-11
0.000376985
1.49662e-11
0.000376985
6.62901e-12
0.000376985
-2.32382e-12
0.000376985
-3.56718e-12
0.000376985
3.20464e-12
0.000376985
1.12562e-11
0.000376985
1.27949e-11
0.000376985
6.40391e-12
0.000376985
-1.19204e-12
0.000376985
-2.71264e-12
0.000376985
1.43377e-12
0.000376985
3.58634e-12
0.000376985
-1.96635e-12
0.000376985
-1.18545e-11
0.000376985
-1.70357e-11
0.000376985
-1.32857e-11
0.000376985
-5.37101e-12
0.000376985
-1.46978e-12
0.000376985
-5.31218e-12
0.000376985
-1.18925e-11
0.000376985
-1.1914e-11
0.000376985
-3.4975e-12
0.000376985
5.69039e-12
0.000376985
7.35309e-12
0.000376985
5.93475e-13
0.000376985
-7.70326e-12
0.000376985
-9.25336e-12
0.000376985
-3.89813e-12
0.000376985
-3.8161e-13
0.000376985
-5.02363e-12
0.000376985
-1.49472e-11
0.000376985
-2.23953e-11
0.000376985
-2.20529e-11
0.000376985
-1.63189e-11
0.000376985
-1.39199e-11
0.000376985
-1.83397e-11
0.000376985
-2.41018e-11
0.000376985
-2.54505e-11
0.000376985
-1.96726e-11
0.000376985
-8.93851e-12
0.000376985
-1.72701e-12
0.000376985
-3.47193e-12
0.000376985
-6.44102e-12
0.000376985
-2.1244e-12
0.000376985
5.43139e-12
0.000376985
1.08743e-11
0.000376985
1.3134e-11
0.000376985
1.07362e-11
0.000376985
7.31502e-12
0.000376985
9.91455e-12
0.000376985
1.48056e-11
0.000376985
1.56034e-11
0.000376985
1.29875e-11
0.000376985
7.73198e-12
0.000376985
1.73726e-12
0.000376985
2.00692e-12
0.000376985
6.02971e-12
0.000376985
3.13192e-12
0.000376985
-4.48151e-12
0.000376985
-7.77311e-12
0.000376985
-7.59094e-12
0.000376985
-5.65021e-12
0.000376985
-5.71404e-13
0.000376985
1.89134e-12
0.000376985
-1.63725e-12
0.000376985
-3.7611e-12
0.000376985
-1.67978e-12
0.000376985
-9.08168e-13
0.000376985
-2.25659e-12
0.000376985
-2.59506e-12
0.000376985
-4.65487e-12
0.000376985
-9.26065e-12
0.000376985
-1.22594e-11
0.000376985
-1.33887e-11
0.000376985
-1.31918e-11
0.000376985
-1.55359e-11
0.000376985
-1.85073e-11
0.000376985
-2.07811e-11
0.000376985
-2.71457e-11
0.000376985
-3.53967e-11
-3.34808e-11
0.000383677
1.19683e-10
0.000383677
1.5335e-10
0.000383677
1.35831e-10
0.000383677
1.29204e-10
0.000383678
2.05036e-10
0.000383678
3.05257e-10
0.000383678
3.59726e-10
0.000383678
3.68718e-10
0.000383678
3.66617e-10
0.000383678
3.42145e-10
0.000383677
2.98495e-10
0.000383677
2.57728e-10
0.000383677
2.15319e-10
0.000383677
1.70997e-10
0.000383677
1.34458e-10
0.000383677
1.03521e-10
0.000383677
7.76328e-11
0.000383677
6.20894e-11
0.000383677
5.56624e-11
0.000383677
4.8938e-11
0.000383677
4.07345e-11
0.000383677
3.34979e-11
0.000383677
2.6754e-11
0.000383677
2.37433e-11
0.000383677
2.61672e-11
0.000383677
2.63474e-11
0.000383677
2.15158e-11
0.000383678
1.87045e-11
0.000383678
1.96545e-11
0.000383678
1.93731e-11
0.000383678
1.67768e-11
0.000383678
1.38867e-11
0.000383678
1.30974e-11
0.000383678
1.75548e-11
0.000383678
2.74818e-11
0.000383678
3.88633e-11
0.000383678
4.68218e-11
0.000383678
4.76753e-11
0.000383678
4.28445e-11
0.000383678
4.06478e-11
0.000383678
4.65362e-11
0.000383678
5.57724e-11
0.000383678
6.06915e-11
0.000383678
5.94272e-11
0.000383678
5.58957e-11
0.000383678
5.44451e-11
0.000383678
5.42316e-11
0.000383678
5.06353e-11
0.000383678
4.21267e-11
0.000383678
3.15789e-11
0.000383678
2.21915e-11
0.000383678
1.65798e-11
0.000383678
1.46049e-11
0.000383678
1.00725e-11
0.000383678
-1.58176e-12
0.000383678
-1.44223e-11
0.000383678
-1.94408e-11
0.000383678
-1.53521e-11
0.000383678
-7.54203e-12
0.000383678
-2.90225e-12
0.000383678
-4.71151e-12
0.000383678
-9.03925e-12
0.000383678
-9.7019e-12
0.000383678
-6.20114e-12
0.000383678
-3.20182e-12
0.000383678
-5.20642e-12
0.000383678
-1.21302e-11
0.000383678
-1.79457e-11
0.000383678
-1.58306e-11
0.000383678
-6.99018e-12
0.000383678
1.7455e-13
0.000383678
1.80776e-12
0.000383678
1.90454e-12
0.000383678
6.45495e-12
0.000383678
1.68958e-11
0.000383678
2.83528e-11
0.000383678
3.33186e-11
0.000383678
2.86694e-11
0.000383678
1.93624e-11
0.000383678
1.32386e-11
0.000383678
1.25501e-11
0.000383677
1.22528e-11
0.000383677
6.61389e-12
0.000383677
-3.21484e-12
0.000383677
-1.05235e-11
0.000383677
-1.00815e-11
0.000383677
-3.74045e-12
0.000383677
1.23179e-12
0.000383677
-1.03053e-12
0.000383677
-8.13686e-12
0.000383677
-1.24546e-11
0.000383677
-1.02846e-11
0.000383677
-4.96172e-12
0.000383677
-3.0578e-12
0.000383678
-8.0576e-12
0.000383678
-1.5741e-11
0.000383678
-1.80434e-11
0.000383678
-1.33256e-11
0.000383678
-7.56547e-12
0.000383678
-6.68358e-12
0.000383678
-1.13122e-11
0.000383678
-1.58563e-11
0.000383678
-1.4595e-11
0.000383678
-9.52335e-12
0.000383678
-6.9338e-12
0.000383678
-9.61573e-12
0.000383678
-1.5874e-11
0.000383678
-2.21128e-11
0.000383678
-2.17072e-11
0.000383678
-1.41314e-11
0.000383678
-9.35919e-12
0.000383678
-1.19492e-11
0.000383678
-1.4509e-11
0.000383678
-1.2226e-11
0.000383678
-6.34685e-12
0.000383678
1.88448e-12
0.000383678
8.15615e-12
0.000383678
8.20922e-12
0.000383678
7.45961e-12
0.000383678
9.59363e-12
0.000383678
1.16003e-11
0.000383678
1.29547e-11
0.000383678
1.26544e-11
0.000383678
5.97224e-12
0.000383678
-2.33442e-12
0.000383678
-3.88135e-12
0.000383678
-3.75564e-12
0.000383678
-8.71719e-12
0.000383678
-1.42095e-11
0.000383678
-1.70435e-11
0.000383678
-1.82545e-11
0.000383678
-1.501e-11
0.000383678
-9.06513e-12
0.000383678
-7.55517e-12
0.000383678
-8.00941e-12
0.000383678
-3.61396e-12
0.000383678
2.50355e-12
0.000383678
5.11491e-12
0.000383678
6.86512e-12
0.000383678
9.92246e-12
0.000383678
1.07819e-11
0.000383678
1.02467e-11
0.000383678
1.11703e-11
0.000383678
1.31159e-11
0.000383678
9.16399e-12
0.000383678
2.27255e-13
0.000383678
-6.22454e-12
0.000383678
-1.19961e-11
0.000383678
-1.46687e-11
-1.46872e-11
0.000376986
1.97971e-10
0.000376985
2.01243e-10
0.000376986
1.4729e-10