/*--------------------------------*- C++ -*----------------------------------*\
| =========                 |                                                 |
| \\      /  F ield         | OpenFOAM: The Open Source CFD Toolbox           |
|  \\    /   O peration     | Version:  2406                                  |
|   \\  /    A nd           | Website:  www.openfoam.com                      |
|    \\/     M anipulation  |                                                 |
\*---------------------------------------------------------------------------*/
FoamFile
{
    version     2.0;
    format      ascii;
    arch        "LSB;label=32;scalar=64";
    class       volVectorField;
    location    "0.3";
    object      U;
}
// * * * * * * * * * * * * * * * * * * * * * * * * * * * * * * * * * * * * * //

dimensions      [0 1 -1 0 0 0 0];

internalField   nonuniform List<vector> 
2250
(
(0.774 3.78979e-07 0)
(0.773998 2.26209e-07 0)
(0.773997 2.95227e-07 0)
(0.773996 4.10787e-07 0)
(0.773995 6.3456e-07 0)
(0.773995 5.21188e-07 0)
(0.773994 2.01586e-07 0)
(0.773993 2.13591e-07 0)
(0.773992 4.54182e-07 0)
(0.773992 4.14214e-07 0)
(0.773991 2.91379e-07 0)
(0.77399 1.86702e-07 0)
(0.773989 1.11988e-07 0)
(0.773989 1.35234e-07 0)
(0.773988 1.25113e-07 0)
(0.773988 2.32362e-08 0)
(0.773988 -3.08372e-08 0)
(0.773987 -4.07482e-09 0)
(0.773987 5.91464e-08 0)
(0.773986 1.75995e-07 0)
(0.773985 3.11919e-07 0)
(0.773985 3.49234e-07 0)
(0.773985 2.60076e-07 0)
(0.773984 1.47346e-07 0)
(0.773984 9.87359e-08 0)
(0.773984 8.59271e-08 0)
(0.773983 5.58536e-08 0)
(0.773983 -4.68131e-09 0)
(0.773983 -6.44942e-08 0)
(0.773982 -8.1554e-08 0)
(0.773982 -5.40716e-08 0)
(0.773982 -3.18347e-08 0)
(0.773982 -5.11987e-08 0)
(0.773982 -1.01942e-07 0)
(0.773982 -1.70472e-07 0)
(0.773982 -2.31006e-07 0)
(0.773982 -2.35025e-07 0)
(0.773982 -1.78412e-07 0)
(0.773983 -1.13912e-07 0)
(0.773983 -7.52628e-08 0)
(0.773983 -5.08067e-08 0)
(0.773983 -1.72893e-08 0)
(0.773983 3.67535e-08 0)
(0.773983 8.77607e-08 0)
(0.773983 1.09947e-07 0)
(0.773983 1.13002e-07 0)
(0.773983 1.31489e-07 0)
(0.773983 1.70133e-07 0)
(0.773983 2.10972e-07 0)
(0.773983 2.25836e-07 0)
(0.773982 1.95515e-07 0)
(0.773982 1.28289e-07 0)
(0.773982 8.05205e-08 0)
(0.773982 9.44586e-08 0)
(0.773981 1.54121e-07 0)
(0.77398 1.99333e-07 0)
(0.77398 1.90891e-07 0)
(0.77398 1.50447e-07 0)
(0.773979 1.29552e-07 0)
(0.773979 1.44889e-07 0)
(0.773979 1.70261e-07 0)
(0.773979 1.72208e-07 0)
(0.773978 1.38775e-07 0)
(0.773978 9.9869e-08 0)
(0.773978 9.19737e-08 0)
(0.773978 1.1312e-07 0)
(0.773978 1.17534e-07 0)
(0.773978 6.4693e-08 0)
(0.773978 -3.18966e-08 0)
(0.773978 -1.05133e-07 0)
(0.773978 -1.18306e-07 0)
(0.773978 -8.44977e-08 0)
(0.773978 -6.71592e-08 0)
(0.773978 -1.02606e-07 0)
(0.773978 -1.6062e-07 0)
(0.773978 -1.81988e-07 0)
(0.773978 -1.34908e-07 0)
(0.773978 -4.36427e-08 0)
(0.773979 2.1672e-08 0)
(0.773979 2.9845e-08 0)
(0.773979 1.65367e-08 0)
(0.773979 3.63142e-08 0)
(0.773978 9.08411e-08 0)
(0.773978 1.32673e-07 0)
(0.773978 1.11805e-07 0)
(0.773978 2.73558e-08 0)
(0.773978 -6.29241e-08 0)
(0.773977 -9.20231e-08 0)
(0.773977 -6.52503e-08 0)
(0.773977 -4.05748e-08 0)
(0.773978 -6.52414e-08 0)
(0.773978 -1.28803e-07 0)
(0.773978 -1.65272e-07 0)
(0.773978 -1.37599e-07 0)
(0.773979 -7.78058e-08 0)
(0.773979 -4.35227e-08 0)
(0.773979 -6.31791e-08 0)
(0.773979 -1.10015e-07 0)
(0.77398 -1.20245e-07 0)
(0.77398 -7.7083e-08 0)
(0.77398 -2.71923e-08 0)
(0.77398 -2.2839e-08 0)
(0.77398 -6.53041e-08 0)
(0.77398 -1.02178e-07 0)
(0.77398 -8.63818e-08 0)
(0.77398 -1.5013e-08 0)
(0.77398 5.97813e-08 0)
(0.77398 7.45195e-08 0)
(0.77398 2.78233e-08 0)
(0.77398 -1.10472e-08 0)
(0.77398 -7.49214e-10 0)
(0.77398 3.64226e-08 0)
(0.77398 5.09629e-08 0)
(0.77398 1.93139e-08 0)
(0.77398 -2.64446e-08 0)
(0.773981 -3.74181e-08 0)
(0.773981 -4.71009e-09 0)
(0.773981 3.87957e-08 0)
(0.773981 5.67488e-08 0)
(0.773981 2.80189e-08 0)
(0.773982 -2.39714e-08 0)
(0.773982 -3.9174e-08 0)
(0.773982 -1.77839e-09 0)
(0.773982 2.69724e-08 0)
(0.773982 5.76207e-09 0)
(0.773983 -4.34777e-08 0)
(0.773983 -8.55898e-08 0)
(0.773983 -9.17649e-08 0)
(0.773983 -5.661e-08 0)
(0.773984 -2.94484e-08 0)
(0.773984 -4.27344e-08 0)
(0.773984 -7.17277e-08 0)
(0.773984 -8.78905e-08 0)
(0.773984 -8.75704e-08 0)
(0.773984 -7.5346e-08 0)
(0.773984 -7.2907e-08 0)
(0.773984 -1.03047e-07 0)
(0.773984 -1.42628e-07 0)
(0.773984 -1.59858e-07 0)
(0.773984 -1.50237e-07 0)
(0.773985 -1.16471e-07 0)
(0.773985 -7.83071e-08 0)
(0.773985 -8.11818e-08 0)
(0.773985 -1.22161e-07 0)
(0.773985 -1.42991e-07 0)
(0.773986 -1.31959e-07 0)
(0.773986 -1.30087e-07 0)
(0.773986 -1.50587e-07 0)
(0.773986 -1.80917e-07 0)
(0.773987 -1.09324e-07 0)
(2.1073 1.41196e-06 0)
(2.10729 1.2974e-06 0)
(2.10729 1.57647e-06 0)
(2.10729 1.55931e-06 0)
(2.10729 1.69872e-06 0)
(2.10729 1.80237e-06 0)
(2.10728 1.79639e-06 0)
(2.10728 1.73818e-06 0)
(2.10728 1.86845e-06 0)
(2.10728 1.51722e-06 0)
(2.10728 1.24127e-06 0)
(2.10728 1.34557e-06 0)
(2.10727 1.38337e-06 0)
(2.10727 1.2793e-06 0)
(2.10727 1.07572e-06 0)
(2.10727 7.70598e-07 0)
(2.10727 5.43392e-07 0)
(2.10727 5.09684e-07 0)
(2.10727 5.83584e-07 0)
(2.10727 7.5436e-07 0)
(2.10726 1.00404e-06 0)
(2.10726 1.13057e-06 0)
(2.10726 9.7849e-07 0)
(2.10726 6.7017e-07 0)
(2.10726 4.32858e-07 0)
(2.10726 3.05743e-07 0)
(2.10726 1.91207e-07 0)
(2.10726 3.96828e-08 0)
(2.10726 -1.15263e-07 0)
(2.10726 -2.09621e-07 0)
(2.10726 -2.01845e-07 0)
(2.10726 -1.39644e-07 0)
(2.10726 -1.11643e-07 0)
(2.10726 -1.4391e-07 0)
(2.10726 -2.34039e-07 0)
(2.10726 -3.67389e-07 0)
(2.10726 -4.55816e-07 0)
(2.10726 -4.13672e-07 0)
(2.10726 -2.86616e-07 0)
(2.10726 -1.80076e-07 0)
(2.10726 -1.31331e-07 0)
(2.10726 -1.00082e-07 0)
(2.10726 -1.95979e-08 0)
(2.10726 1.19941e-07 0)
(2.10726 2.50564e-07 0)
(2.10726 3.17799e-07 0)
(2.10726 3.50233e-07 0)
(2.10726 3.94163e-07 0)
(2.10726 4.65401e-07 0)
(2.10726 5.41311e-07 0)
(2.10726 5.60322e-07 0)
(2.10726 4.74924e-07 0)
(2.10726 3.36605e-07 0)
(2.10726 2.55531e-07 0)
(2.10726 2.88231e-07 0)
(2.10726 3.83451e-07 0)
(2.10726 4.37151e-07 0)
(2.10726 4.03103e-07 0)
(2.10726 3.41977e-07 0)
(2.10726 3.42093e-07 0)
(2.10726 4.16377e-07 0)
(2.10725 4.98134e-07 0)
(2.10725 5.13271e-07 0)
(2.10725 4.5484e-07 0)
(2.10725 3.8335e-07 0)
(2.10725 3.64063e-07 0)
(2.10725 3.77707e-07 0)
(2.10725 3.25199e-07 0)
(2.10725 1.50786e-07 0)
(2.10725 -7.92894e-08 0)
(2.10725 -2.5046e-07 0)
(2.10725 -2.98592e-07 0)
(2.10725 -2.81298e-07 0)
(2.10725 -3.11497e-07 0)
(2.10725 -4.20673e-07 0)
(2.10725 -5.28204e-07 0)
(2.10725 -5.2216e-07 0)
(2.10725 -3.68897e-07 0)
(2.10725 -1.63635e-07 0)
(2.10725 -3.37074e-08 0)
(2.10725 -1.64111e-08 0)
(2.10725 -2.26444e-08 0)
(2.10725 3.81794e-08 0)
(2.10725 1.53087e-07 0)
(2.10725 2.18818e-07 0)
(2.10725 1.52986e-07 0)
(2.10725 -1.05727e-08 0)
(2.10725 -1.37807e-07 0)
(2.10725 -1.3955e-07 0)
(2.10725 -5.72496e-08 0)
(2.10725 -1.47472e-08 0)
(2.10725 -8.1213e-08 0)
(2.10725 -1.91312e-07 0)
(2.10725 -2.31651e-07 0)
(2.10725 -1.62047e-07 0)
(2.10725 -6.44391e-08 0)
(2.10725 -4.75647e-08 0)
(2.10725 -1.37922e-07 0)
(2.10725 -2.43673e-07 0)
(2.10725 -2.57403e-07 0)
(2.10725 -1.76636e-07 0)
(2.10725 -1.07394e-07 0)
(2.10725 -1.26462e-07 0)
(2.10726 -1.99133e-07 0)
(2.10726 -2.31777e-07 0)
(2.10726 -1.50967e-07 0)
(2.10726 2.06297e-08 0)
(2.10726 1.51039e-07 0)
(2.10726 1.42285e-07 0)
(2.10726 5.47836e-08 0)
(2.10726 8.81675e-09 0)
(2.10726 5.03908e-08 0)
(2.10726 1.26051e-07 0)
(2.10726 1.39473e-07 0)
(2.10726 6.70547e-08 0)
(2.10726 -6.06571e-09 0)
(2.10726 -1.23148e-09 0)
(2.10726 6.8854e-08 0)
(2.10726 1.47031e-07 0)
(2.10726 1.63841e-07 0)
(2.10726 8.0627e-08 0)
(2.10726 -1.53092e-08 0)
(2.10726 -1.01606e-08 0)
(2.10726 5.63312e-08 0)
(2.10726 6.97608e-08 0)
(2.10726 3.92275e-09 0)
(2.10726 -1.00086e-07 0)
(2.10726 -1.77691e-07 0)
(2.10726 -1.66533e-07 0)
(2.10726 -1.05269e-07 0)
(2.10726 -9.96163e-08 0)
(2.10726 -1.65113e-07 0)
(2.10726 -2.3554e-07 0)
(2.10726 -2.77859e-07 0)
(2.10726 -2.85025e-07 0)
(2.10726 -2.72857e-07 0)
(2.10726 -3.03909e-07 0)
(2.10726 -3.8587e-07 0)
(2.10726 -4.44433e-07 0)
(2.10726 -4.42441e-07 0)
(2.10726 -4.00173e-07 0)
(2.10726 -3.47852e-07 0)
(2.10726 -3.4478e-07 0)
(2.10726 -4.1745e-07 0)
(2.10726 -4.90221e-07 0)
(2.10726 -4.99443e-07 0)
(2.10726 -5.00024e-07 0)
(2.10726 -5.53277e-07 0)
(2.10726 -6.32795e-07 0)
(2.10726 -4.86875e-07 0)
(3.22908 2.48644e-06 0)
(3.22908 2.7637e-06 0)
(3.22908 3.71633e-06 0)
(3.22908 3.99269e-06 0)
(3.22908 3.49753e-06 0)
(3.22907 3.08362e-06 0)
(3.22907 3.09604e-06 0)
(3.22907 3.02756e-06 0)
(3.22907 3.46847e-06 0)
(3.22907 3.65853e-06 0)
(3.22907 3.59662e-06 0)
(3.22906 3.61476e-06 0)
(3.22906 3.41485e-06 0)
(3.22906 2.95971e-06 0)
(3.22906 2.44511e-06 0)
(3.22906 1.97347e-06 0)
(3.22906 1.66128e-06 0)
(3.22906 1.6557e-06 0)
(3.22905 1.80264e-06 0)
(3.22905 1.84482e-06 0)
(3.22905 1.7737e-06 0)
(3.22905 1.69299e-06 0)
(3.22905 1.56319e-06 0)
(3.22905 1.28937e-06 0)
(3.22905 9.13567e-07 0)
(3.22905 5.56373e-07 0)
(3.22905 2.74325e-07 0)
(3.22905 7.43391e-08 0)
(3.22905 -5.63394e-08 0)
(3.22905 -1.45131e-07 0)
(3.22905 -1.74132e-07 0)
(3.22905 -1.33791e-07 0)
(3.22905 -9.07452e-08 0)
(3.22904 -9.6564e-08 0)
(3.22904 -1.48688e-07 0)
(3.22904 -2.57159e-07 0)
(3.22904 -3.97966e-07 0)
(3.22904 -4.64998e-07 0)
(3.22904 -3.97017e-07 0)
(3.22904 -2.4647e-07 0)
(3.22904 -1.05754e-07 0)
(3.22904 -2.5459e-08 0)
(3.22904 2.52564e-08 0)
(3.22904 1.29085e-07 0)
(3.22904 3.01959e-07 0)
(3.22904 4.6985e-07 0)
(3.22904 5.73803e-07 0)
(3.22904 6.20839e-07 0)
(3.22904 6.5313e-07 0)
(3.22904 7.10893e-07 0)
(3.22904 7.77466e-07 0)
(3.22904 7.71558e-07 0)
(3.22904 6.37243e-07 0)
(3.22904 4.29553e-07 0)
(3.22904 2.77438e-07 0)
(3.22904 2.77643e-07 0)
(3.22904 4.06463e-07 0)
(3.22904 5.32912e-07 0)
(3.22904 5.62601e-07 0)
(3.22904 5.32456e-07 0)
(3.22904 5.44066e-07 0)
(3.22904 6.3793e-07 0)
(3.22904 7.6077e-07 0)
(3.22904 8.14378e-07 0)
(3.22904 7.49286e-07 0)
(3.22904 6.28666e-07 0)
(3.22904 5.51049e-07 0)
(3.22904 5.14536e-07 0)
(3.22904 4.23434e-07 0)
(3.22904 2.02019e-07 0)
(3.22904 -1.14855e-07 0)
(3.22904 -3.96578e-07 0)
(3.22904 -5.32261e-07 0)
(3.22904 -5.4821e-07 0)
(3.22904 -5.62111e-07 0)
(3.22904 -6.44541e-07 0)
(3.22904 -7.44849e-07 0)
(3.22904 -7.40383e-07 0)
(3.22904 -5.70478e-07 0)
(3.22904 -3.19646e-07 0)
(3.22904 -1.46231e-07 0)
(3.22904 -1.12263e-07 0)
(3.22904 -1.34659e-07 0)
(3.22904 -9.93636e-08 0)
(3.22904 2.01743e-08 0)
(3.22904 1.29457e-07 0)
(3.22904 1.15498e-07 0)
(3.22904 -1.76761e-08 0)
(3.22904 -1.37517e-07 0)
(3.22904 -1.24327e-07 0)
(3.22904 6.26047e-10 0)
(3.22904 1.00832e-07 0)
(3.22904 7.06024e-08 0)
(3.22904 -5.3836e-08 0)
(3.22904 -1.38717e-07 0)
(3.22904 -1.13929e-07 0)
(3.22904 -3.19833e-08 0)
(3.22904 -1.20918e-08 0)
(3.22904 -1.18815e-07 0)
(3.22904 -2.72603e-07 0)
(3.22904 -3.36966e-07 0)
(3.22904 -2.849e-07 0)
(3.22904 -1.99705e-07 0)
(3.22904 -1.68868e-07 0)
(3.22904 -2.08345e-07 0)
(3.22904 -2.38854e-07 0)
(3.22904 -1.5155e-07 0)
(3.22904 4.52447e-08 0)
(3.22904 2.08282e-07 0)
(3.22904 2.31635e-07 0)
(3.22904 1.50656e-07 0)
(3.22904 8.32679e-08 0)
(3.22904 1.198e-07 0)
(3.22904 2.21817e-07 0)
(3.22904 2.64458e-07 0)
(3.22904 2.08628e-07 0)
(3.22904 1.28778e-07 0)
(3.22904 9.54935e-08 0)
(3.22904 1.39191e-07 0)
(3.22904 2.34e-07 0)
(3.22904 2.61564e-07 0)
(3.22904 1.62582e-07 0)
(3.22904 4.91759e-08 0)
(3.22904 2.83053e-08 0)
(3.22904 6.19173e-08 0)
(3.22905 7.15246e-08 0)
(3.22905 1.57119e-08 0)
(3.22905 -1.08748e-07 0)
(3.22905 -2.18377e-07 0)
(3.22905 -2.24413e-07 0)
(3.22905 -1.82555e-07 0)
(3.22905 -1.93616e-07 0)
(3.22905 -2.60955e-07 0)
(3.22905 -3.53328e-07 0)
(3.22905 -4.38288e-07 0)
(3.22905 -4.72005e-07 0)
(3.22905 -4.78878e-07 0)
(3.22904 -5.19783e-07 0)
(3.22904 -5.70954e-07 0)
(3.22904 -5.90068e-07 0)
(3.22905 -6.01078e-07 0)
(3.22905 -6.14173e-07 0)
(3.22905 -6.22982e-07 0)
(3.22905 -6.69306e-07 0)
(3.22905 -7.55022e-07 0)
(3.22905 -8.01709e-07 0)
(3.22905 -7.90203e-07 0)
(3.22905 -8.33488e-07 0)
(3.22905 -9.22014e-07 0)
(3.22905 -7.29125e-07 0)
(4.14233 2.91154e-06 0)
(4.14233 3.44319e-06 0)
(4.14233 4.70044e-06 0)
(4.14233 5.57341e-06 0)
(4.14233 5.17227e-06 0)
(4.14232 4.52697e-06 0)
(4.14232 4.03869e-06 0)
(4.14232 3.62918e-06 0)
(4.14232 4.12088e-06 0)
(4.14232 4.65057e-06 0)
(4.14232 4.63911e-06 0)
(4.14233 4.40157e-06 0)
(4.14233 4.08481e-06 0)
(4.14233 3.74915e-06 0)
(4.14232 3.47728e-06 0)
(4.14232 3.26849e-06 0)
(4.14232 3.07142e-06 0)
(4.14232 2.99831e-06 0)
(4.14232 3.06429e-06 0)
(4.14232 3.0371e-06 0)
(4.14232 2.77689e-06 0)
(4.14232 2.41367e-06 0)
(4.14232 2.08023e-06 0)
(4.14231 1.72387e-06 0)
(4.14231 1.278e-06 0)
(4.14231 8.02966e-07 0)
(4.14231 3.97359e-07 0)
(4.14231 1.49349e-07 0)
(4.14231 1.01579e-07 0)
(4.14231 1.66534e-07 0)
(4.14231 2.12414e-07 0)
(4.14231 1.99269e-07 0)
(4.14231 1.27535e-07 0)
(4.14231 2.35442e-08 0)
(4.14231 -3.10522e-08 0)
(4.14231 -2.32848e-08 0)
(4.14231 -4.23726e-08 0)
(4.14231 -1.19151e-07 0)
(4.14231 -1.81951e-07 0)
(4.14231 -1.6076e-07 0)
(4.14231 -3.94665e-08 0)
(4.14231 1.21154e-07 0)
(4.14231 2.29451e-07 0)
(4.14231 2.79625e-07 0)
(4.14231 3.45513e-07 0)
(4.14231 4.70966e-07 0)
(4.14231 6.30171e-07 0)
(4.14231 7.61359e-07 0)
(4.14231 8.03349e-07 0)
(4.14231 7.58862e-07 0)
(4.14231 6.94377e-07 0)
(4.14231 6.41828e-07 0)
(4.14231 5.61292e-07 0)
(4.14231 4.14912e-07 0)
(4.14231 2.265e-07 0)
(4.14231 8.84268e-08 0)
(4.14231 9.87065e-08 0)
(4.14231 2.48993e-07 0)
(4.14231 4.14827e-07 0)
(4.14231 4.92336e-07 0)
(4.14231 4.92892e-07 0)
(4.14231 5.04221e-07 0)
(4.14231 6.03882e-07 0)
(4.14231 7.72133e-07 0)
(4.14231 8.8836e-07 0)
(4.14231 8.57654e-07 0)
(4.14231 7.16839e-07 0)
(4.14231 5.71013e-07 0)
(4.14231 4.69282e-07 0)
(4.14231 3.65098e-07 0)
(4.14231 1.74888e-07 0)
(4.14231 -1.20818e-07 0)
(4.14231 -4.20697e-07 0)
(4.14231 -5.92739e-07 0)
(4.14231 -6.17131e-07 0)
(4.14231 -5.86253e-07 0)
(4.1423 -6.01418e-07 0)
(4.1423 -6.71645e-07 0)
(4.1423 -7.00384e-07 0)
(4.14231 -6.01474e-07 0)
(4.14231 -4.06235e-07 0)
(4.14231 -2.39458e-07 0)
(4.14231 -1.88427e-07 0)
(4.14231 -2.20197e-07 0)
(4.14231 -2.20539e-07 0)
(4.14231 -1.25411e-07 0)
(4.14231 7.66683e-09 0)
(4.1423 6.4988e-08 0)
(4.1423 1.13952e-08 0)
(4.1423 -6.64341e-08 0)
(4.14231 -5.06503e-08 0)
(4.14231 7.65372e-08 0)
(4.14231 2.02933e-07 0)
(4.14231 2.12692e-07 0)
(4.14231 1.00464e-07 0)
(4.14231 -3.20921e-08 0)
(4.14231 -7.86794e-08 0)
(4.14231 -3.51083e-08 0)
(4.14231 -1.46483e-08 0)
(4.14231 -1.10084e-07 0)
(4.14231 -2.75748e-07 0)
(4.14231 -3.89989e-07 0)
(4.14231 -3.87514e-07 0)
(4.14231 -2.95389e-07 0)
(4.14231 -2.06908e-07 0)
(4.14231 -1.99853e-07 0)
(4.14231 -2.25381e-07 0)
(4.14231 -1.67628e-07 0)
(4.14231 -1.03264e-08 0)
(4.14231 1.56998e-07 0)
(4.14231 2.3935e-07 0)
(4.14231 2.07761e-07 0)
(4.14231 1.45297e-07 0)
(4.14231 1.65709e-07 0)
(4.14231 2.53213e-07 0)
(4.14231 3.10028e-07 0)
(4.14231 3.01744e-07 0)
(4.14231 2.41194e-07 0)
(4.14231 1.67304e-07 0)
(4.14231 1.69696e-07 0)
(4.14231 2.49812e-07 0)
(4.14231 2.7101e-07 0)
(4.14231 1.85397e-07 0)
(4.14231 8.60616e-08 0)
(4.14231 2.51007e-08 0)
(4.14231 5.60004e-09 0)
(4.14231 2.28121e-08 0)
(4.14231 1.39046e-09 0)
(4.14231 -9.80744e-08 0)
(4.14231 -1.77394e-07 0)
(4.14231 -1.78817e-07 0)
(4.14231 -1.6443e-07 0)
(4.14231 -1.75411e-07 0)
(4.14231 -2.23525e-07 0)
(4.14231 -3.26294e-07 0)
(4.14231 -4.26519e-07 0)
(4.14231 -4.51334e-07 0)
(4.14231 -4.45766e-07 0)
(4.14231 -4.70517e-07 0)
(4.14231 -5.16372e-07 0)
(4.14231 -5.95194e-07 0)
(4.14231 -7.14701e-07 0)
(4.14231 -8.03621e-07 0)
(4.14231 -8.36241e-07 0)
(4.14231 -8.71585e-07 0)
(4.14231 -9.17864e-07 0)
(4.14231 -9.05054e-07 0)
(4.14231 -9.04713e-07 0)
(4.14231 -9.63908e-07 0)
(4.14231 -7.39675e-07 0)
(4.84967 3.15279e-06 0)
(4.84967 3.62614e-06 0)
(4.84967 4.50369e-06 0)
(4.84967 5.70674e-06 0)
(4.84967 5.78327e-06 0)
(4.84967 5.60906e-06 0)
(4.84967 5.01328e-06 0)
(4.84967 4.09959e-06 0)
(4.84967 3.39663e-06 0)
(4.84967 2.9946e-06 0)
(4.84967 2.69509e-06 0)
(4.84967 2.58252e-06 0)
(4.84967 2.80415e-06 0)
(4.84967 3.21754e-06 0)
(4.84967 3.62935e-06 0)
(4.84967 3.96833e-06 0)
(4.84967 4.08582e-06 0)
(4.84967 3.96088e-06 0)
(4.84967 3.79335e-06 0)
(4.84967 3.65662e-06 0)
(4.84967 3.39944e-06 0)
(4.84967 2.9501e-06 0)
(4.84967 2.4225e-06 0)
(4.84967 1.90159e-06 0)
(4.84967 1.39949e-06 0)
(4.84967 9.72976e-07 0)
(4.84967 6.69953e-07 0)
(4.84967 4.92275e-07 0)
(4.84967 4.6669e-07 0)
(4.84967 5.71017e-07 0)
(4.84967 6.67565e-07 0)
(4.84967 6.59281e-07 0)
(4.84967 5.4665e-07 0)
(4.84967 3.66801e-07 0)
(4.84967 2.2066e-07 0)
(4.84967 2.06164e-07 0)
(4.84967 2.72742e-07 0)
(4.84967 2.95276e-07 0)
(4.84967 2.33793e-07 0)
(4.84967 1.40788e-07 0)
(4.84967 1.12068e-07 0)
(4.84967 2.02441e-07 0)
(4.84967 3.55061e-07 0)
(4.84967 4.70709e-07 0)
(4.84967 5.3084e-07 0)
(4.84967 5.86317e-07 0)
(4.84967 6.839e-07 0)
(4.84967 8.14581e-07 0)
(4.84967 8.90014e-07 0)
(4.84967 8.19299e-07 0)
(4.84967 6.23156e-07 0)
(4.84967 4.07144e-07 0)
(4.84967 2.52966e-07 0)
(4.84967 1.6971e-07 0)
(4.84967 1.0403e-07 0)
(4.84966 3.57846e-09 0)
(4.84966 -9.50803e-08 0)
(4.84966 -9.25866e-08 0)
(4.84967 3.32219e-08 0)
(4.84967 2.03243e-07 0)
(4.84967 3.25784e-07 0)
(4.84967 3.71531e-07 0)
(4.84967 3.97611e-07 0)
(4.84967 4.95837e-07 0)
(4.84967 6.6603e-07 0)
(4.84967 7.89639e-07 0)
(4.84967 7.61215e-07 0)
(4.84967 5.94975e-07 0)
(4.84967 3.91317e-07 0)
(4.84967 2.49109e-07 0)
(4.84966 1.72371e-07 0)
(4.84966 6.5146e-08 0)
(4.84966 -1.3936e-07 0)
(4.84966 -3.79909e-07 0)
(4.84966 -5.36372e-07 0)
(4.84966 -5.50455e-07 0)
(4.84966 -4.78538e-07 0)
(4.84966 -4.44222e-07 0)
(4.84966 -5.01897e-07 0)
(4.84966 -5.773e-07 0)
(4.84966 -5.57673e-07 0)
(4.84966 -4.23537e-07 0)
(4.84966 -2.69386e-07 0)
(4.84966 -2.01586e-07 0)
(4.84966 -2.3498e-07 0)
(4.84966 -2.74084e-07 0)
(4.84966 -2.16055e-07 0)
(4.84966 -7.03234e-08 0)
(4.84966 5.68153e-08 0)
(4.84966 7.92442e-08 0)
(4.84966 2.67163e-08 0)
(4.84966 1.56244e-08 0)
(4.84966 1.01708e-07 0)
(4.84966 2.19521e-07 0)
(4.84966 2.58921e-07 0)
(4.84966 1.71554e-07 0)
(4.84966 1.76319e-08 0)
(4.84966 -8.04375e-08 0)
(4.84966 -7.88436e-08 0)
(4.84966 -6.66052e-08 0)
(4.84966 -1.4026e-07 0)
(4.84966 -2.89178e-07 0)
(4.84966 -4.23488e-07 0)
(4.84966 -4.44506e-07 0)
(4.84966 -3.36146e-07 0)
(4.84966 -2.08629e-07 0)
(4.84966 -1.68737e-07 0)
(4.84966 -1.89494e-07 0)
(4.84967 -1.74734e-07 0)
(4.84967 -7.0153e-08 0)
(4.84967 1.02326e-07 0)
(4.84967 2.33631e-07 0)
(4.84967 2.36512e-07 0)
(4.84967 1.8162e-07 0)
(4.84967 1.80901e-07 0)
(4.84967 2.33946e-07 0)
(4.84967 3.02418e-07 0)
(4.84967 3.43697e-07 0)
(4.84967 2.91427e-07 0)
(4.84967 1.86312e-07 0)
(4.84967 1.59156e-07 0)
(4.84967 1.99282e-07 0)
(4.84967 2.01244e-07 0)
(4.84967 1.5166e-07 0)
(4.84967 6.89671e-08 0)
(4.84967 -2.96309e-08 0)
(4.84967 -6.37045e-08 0)
(4.84967 -2.11609e-08 0)
(4.84967 -1.39948e-08 0)
(4.84967 -6.41786e-08 0)
(4.84967 -9.48153e-08 0)
(4.84967 -1.03911e-07 0)
(4.84967 -1.07363e-07 0)
(4.84967 -9.11257e-08 0)
(4.84967 -1.13253e-07 0)
(4.84967 -2.01534e-07 0)
(4.84967 -2.62958e-07 0)
(4.84967 -2.72212e-07 0)
(4.84967 -3.10982e-07 0)
(4.84967 -3.92268e-07 0)
(4.84967 -4.86133e-07 0)
(4.84967 -6.18386e-07 0)
(4.84967 -7.56723e-07 0)
(4.84967 -8.26856e-07 0)
(4.84967 -8.29329e-07 0)
(4.84967 -8.56401e-07 0)
(4.84967 -8.97786e-07 0)
(4.84967 -8.53292e-07 0)
(4.84967 -9.21678e-07 0)
(4.84967 -7.73607e-07 0)
(5.35327 2.86014e-06 0)
(5.35327 2.88511e-06 0)
(5.35327 3.67771e-06 0)
(5.35327 5.44824e-06 0)
(5.35328 6.26283e-06 0)
(5.35328 6.37019e-06 0)
(5.35328 5.35975e-06 0)
(5.35327 4.12435e-06 0)
(5.35327 2.7711e-06 0)
(5.35327 1.72e-06 0)
(5.35327 1.21168e-06 0)
(5.35327 1.10924e-06 0)
(5.35327 1.40199e-06 0)
(5.35328 1.99918e-06 0)
(5.35328 2.65485e-06 0)
(5.35328 3.2335e-06 0)
(5.35328 3.62873e-06 0)
(5.35328 3.70097e-06 0)
(5.35328 3.50668e-06 0)
(5.35328 3.25559e-06 0)
(5.35328 3.00511e-06 0)
(5.35328 2.6558e-06 0)
(5.35328 2.19654e-06 0)
(5.35328 1.7061e-06 0)
(5.35328 1.25352e-06 0)
(5.35328 9.41473e-07 0)
(5.35328 8.3109e-07 0)
(5.35328 8.25726e-07 0)
(5.35328 8.32044e-07 0)
(5.35328 8.66363e-07 0)
(5.35328 9.14194e-07 0)
(5.35328 9.21409e-07 0)
(5.35328 8.79095e-07 0)
(5.35328 7.72875e-07 0)
(5.35328 6.01556e-07 0)
(5.35328 4.55174e-07 0)
(5.35328 4.11693e-07 0)
(5.35328 4.44109e-07 0)
(5.35328 4.82446e-07 0)
(5.35328 4.6791e-07 0)
(5.35328 3.97376e-07 0)
(5.35328 3.60177e-07 0)
(5.35328 4.37539e-07 0)
(5.35328 5.99508e-07 0)
(5.35328 7.57974e-07 0)
(5.35328 8.49115e-07 0)
(5.35328 8.69374e-07 0)
(5.35328 8.68764e-07 0)
(5.35328 8.66827e-07 0)
(5.35328 8.0021e-07 0)
(5.35328 6.11321e-07 0)
(5.35328 3.33727e-07 0)
(5.35328 6.37669e-08 0)
(5.35328 -9.45576e-08 0)
(5.35328 -1.04753e-07 0)
(5.35328 -5.72979e-08 0)
(5.35328 -6.8952e-08 0)
(5.35328 -1.36993e-07 0)
(5.35328 -1.63977e-07 0)
(5.35328 -8.13917e-08 0)
(5.35328 9.63257e-08 0)
(5.35328 2.8012e-07 0)
(5.35328 3.74983e-07 0)
(5.35328 3.90179e-07 0)
(5.35328 4.20424e-07 0)
(5.35328 5.04822e-07 0)
(5.35328 5.78296e-07 0)
(5.35328 5.51946e-07 0)
(5.35328 3.9415e-07 0)
(5.35328 1.78598e-07 0)
(5.35328 3.49325e-08 0)
(5.35328 4.21732e-09 0)
(5.35328 -4.06452e-09 0)
(5.35328 -8.90856e-08 0)
(5.35328 -2.49666e-07 0)
(5.35328 -3.91015e-07 0)
(5.35328 -4.21992e-07 0)
(5.35328 -3.52944e-07 0)
(5.35328 -2.93596e-07 0)
(5.35328 -3.30647e-07 0)
(5.35328 -4.29054e-07 0)
(5.35328 -4.76192e-07 0)
(5.35328 -4.05813e-07 0)
(5.35328 -2.71183e-07 0)
(5.35328 -1.95127e-07 0)
(5.35328 -2.25932e-07 0)
(5.35328 -2.90722e-07 0)
(5.35328 -2.74246e-07 0)
(5.35328 -1.39417e-07 0)
(5.35328 2.53588e-08 0)
(5.35328 9.8565e-08 0)
(5.35328 6.08376e-08 0)
(5.35328 5.43834e-09 0)
(5.35328 2.34666e-08 0)
(5.35328 1.13563e-07 0)
(5.35328 1.87028e-07 0)
(5.35328 1.45248e-07 0)
(5.35328 -1.23904e-10 0)
(5.35328 -1.30156e-07 0)
(5.35328 -1.71942e-07 0)
(5.35328 -1.67131e-07 0)
(5.35328 -1.9617e-07 0)
(5.35328 -3.00727e-07 0)
(5.35328 -4.3161e-07 0)
(5.35328 -4.71744e-07 0)
(5.35328 -3.82507e-07 0)
(5.35328 -2.53729e-07 0)
(5.35328 -1.74028e-07 0)
(5.35328 -1.59599e-07 0)
(5.35328 -1.67507e-07 0)
(5.35328 -9.81677e-08 0)
(5.35328 8.01949e-08 0)
(5.35328 2.36589e-07 0)
(5.35328 2.71384e-07 0)
(5.35328 2.39684e-07 0)
(5.35328 2.08167e-07 0)
(5.35328 2.11516e-07 0)
(5.35328 2.7969e-07 0)
(5.35328 3.37476e-07 0)
(5.35328 2.77872e-07 0)
(5.35328 1.65153e-07 0)
(5.35328 1.05922e-07 0)
(5.35328 8.47818e-08 0)
(5.35328 8.2147e-08 0)
(5.35328 8.10045e-08 0)
(5.35328 7.60087e-09 0)
(5.35328 -1.00316e-07 0)
(5.35328 -1.13052e-07 0)
(5.35328 -5.86985e-08 0)
(5.35328 -3.75937e-08 0)
(5.35328 -2.96861e-08 0)
(5.35328 -2.06883e-08 0)
(5.35328 -3.82527e-08 0)
(5.35328 -3.13711e-08 0)
(5.35328 5.81906e-09 0)
(5.35328 -1.60771e-08 0)
(5.35328 -8.7029e-08 0)
(5.35328 -1.35521e-07 0)
(5.35328 -1.93075e-07 0)
(5.35328 -2.92027e-07 0)
(5.35328 -3.83779e-07 0)
(5.35328 -4.74512e-07 0)
(5.35328 -5.88614e-07 0)
(5.35328 -6.85492e-07 0)
(5.35328 -6.89531e-07 0)
(5.35328 -6.63602e-07 0)
(5.35328 -7.10376e-07 0)
(5.35328 -7.10565e-07 0)
(5.35328 -8.7564e-07 0)
(5.35328 -8.16726e-07 0)
(5.65477 2.4155e-06 0)
(5.65477 2.40101e-06 0)
(5.65477 2.68753e-06 0)
(5.65477 4.06459e-06 0)
(5.65477 5.62126e-06 0)
(5.65477 6.50515e-06 0)
(5.65477 5.80303e-06 0)
(5.65477 4.83251e-06 0)
(5.65477 3.76212e-06 0)
(5.65477 2.65719e-06 0)
(5.65477 1.94354e-06 0)
(5.65477 1.62862e-06 0)
(5.65477 1.55734e-06 0)
(5.65477 1.70958e-06 0)
(5.65477 1.96423e-06 0)
(5.65477 2.19499e-06 0)
(5.65477 2.40702e-06 0)
(5.65477 2.51802e-06 0)
(5.65477 2.40472e-06 0)
(5.65477 2.15159e-06 0)
(5.65477 1.91464e-06 0)
(5.65477 1.68908e-06 0)
(5.65478 1.4292e-06 0)
(5.65478 1.1758e-06 0)
(5.65478 9.53626e-07 0)
(5.65478 7.93916e-07 0)
(5.65478 7.81328e-07 0)
(5.65478 8.79748e-07 0)
(5.65478 9.39127e-07 0)
(5.65478 9.16994e-07 0)
(5.65478 8.6363e-07 0)
(5.65478 8.03046e-07 0)
(5.65478 7.7039e-07 0)
(5.65478 7.79565e-07 0)
(5.65478 7.62021e-07 0)
(5.65477 6.68074e-07 0)
(5.65477 5.37211e-07 0)
(5.65477 4.38679e-07 0)
(5.65477 4.28154e-07 0)
(5.65477 5.00318e-07 0)
(5.65477 5.72165e-07 0)
(5.65477 5.96617e-07 0)
(5.65477 6.20942e-07 0)
(5.65477 6.99421e-07 0)
(5.65477 8.1999e-07 0)
(5.65477 9.16312e-07 0)
(5.65477 9.18435e-07 0)
(5.65477 8.28633e-07 0)
(5.65477 7.17902e-07 0)
(5.65477 6.22132e-07 0)
(5.65477 5.10307e-07 0)
(5.65477 3.47452e-07 0)
(5.65477 1.24277e-07 0)
(5.65477 -1.12562e-07 0)
(5.65477 -2.50088e-07 0)
(5.65477 -2.30534e-07 0)
(5.65477 -1.41051e-07 0)
(5.65477 -9.65814e-08 0)
(5.65477 -1.14052e-07 0)
(5.65477 -1.31038e-07 0)
(5.65477 -6.88601e-08 0)
(5.65477 9.45922e-08 0)
(5.65477 2.70945e-07 0)
(5.65477 3.47037e-07 0)
(5.65477 3.19597e-07 0)
(5.65477 2.71676e-07 0)
(5.65478 2.71294e-07 0)
(5.65478 3.14663e-07 0)
(5.65478 3.23221e-07 0)
(5.65478 2.22584e-07 0)
(5.65478 5.88657e-08 0)
(5.65478 -4.29888e-08 0)
(5.65478 -2.82372e-08 0)
(5.65477 3.99044e-08 0)
(5.65477 6.11984e-08 0)
(5.65477 -8.79346e-09 0)
(5.65477 -1.18191e-07 0)
(5.65477 -1.68101e-07 0)
(5.65477 -1.30521e-07 0)
(5.65477 -8.21716e-08 0)
(5.65477 -1.12988e-07 0)
(5.65477 -2.21654e-07 0)
(5.65477 -3.10529e-07 0)
(5.65477 -2.95703e-07 0)
(5.65477 -1.9863e-07 0)
(5.65477 -1.20629e-07 0)
(5.65477 -1.33118e-07 0)
(5.65477 -2.05863e-07 0)
(5.65477 -2.30273e-07 0)
(5.65477 -1.37935e-07 0)
(5.65477 9.9793e-09 0)
(5.65477 9.14821e-08 0)
(5.65477 6.12567e-08 0)
(5.65477 -2.49801e-08 0)
(5.65477 -6.88862e-08 0)
(5.65477 -2.06391e-08 0)
(5.65477 5.26126e-08 0)
(5.65477 3.45595e-08 0)
(5.65477 -8.81666e-08 0)
(5.65477 -2.21633e-07 0)
(5.65477 -2.82961e-07 0)
(5.65477 -2.64864e-07 0)
(5.65477 -2.39965e-07 0)
(5.65477 -2.90544e-07 0)
(5.65477 -3.89741e-07 0)
(5.65477 -4.33299e-07 0)
(5.65477 -3.80756e-07 0)
(5.65477 -2.61916e-07 0)
(5.65477 -1.3587e-07 0)
(5.65478 -8.56417e-08 0)
(5.65478 -1.00941e-07 0)
(5.65478 -5.32075e-08 0)
(5.65478 8.34846e-08 0)
(5.65478 1.94946e-07 0)
(5.65478 2.34857e-07 0)
(5.65478 2.24929e-07 0)
(5.65478 1.77376e-07 0)
(5.65478 1.64429e-07 0)
(5.65478 2.28754e-07 0)
(5.65478 2.6632e-07 0)
(5.65478 2.12567e-07 0)
(5.65478 1.33804e-07 0)
(5.65478 6.0961e-08 0)
(5.65478 1.17969e-08 0)
(5.65478 3.56576e-08 0)
(5.65478 5.74369e-08 0)
(5.65478 -2.30332e-08 0)
(5.65478 -1.13187e-07 0)
(5.65478 -1.18499e-07 0)
(5.65478 -9.54877e-08 0)
(5.65478 -5.7792e-08 0)
(5.65478 9.73961e-09 0)
(5.65478 2.60123e-08 0)
(5.65478 -1.60855e-08 0)
(5.65478 -1.66243e-08 0)
(5.65478 1.0743e-08 0)
(5.65478 -6.03492e-09 0)
(5.65478 -4.22283e-08 0)
(5.65478 -7.53946e-08 0)
(5.65478 -1.50001e-07 0)
(5.65478 -2.51119e-07 0)
(5.65478 -3.26256e-07 0)
(5.65478 -3.74554e-07 0)
(5.65478 -3.99558e-07 0)
(5.65478 -4.13679e-07 0)
(5.65478 -4.11686e-07 0)
(5.65478 -4.39782e-07 0)
(5.65478 -5.19223e-07 0)
(5.65478 -6.88557e-07 0)
(5.65478 -6.4575e-07 0)
(5.75516 2.20828e-06 0)
(5.75516 2.37026e-06 0)
(5.75516 2.18357e-06 0)
(5.75516 2.4467e-06 0)
(5.75516 3.81747e-06 0)
(5.75516 5.29831e-06 0)
(5.75517 5.72014e-06 0)
(5.75517 5.5921e-06 0)
(5.75517 5.28193e-06 0)
(5.75516 4.60542e-06 0)
(5.75516 3.86191e-06 0)
(5.75516 3.30833e-06 0)
(5.75516 2.77318e-06 0)
(5.75516 2.27074e-06 0)
(5.75516 1.90317e-06 0)
(5.75516 1.60239e-06 0)
(5.75516 1.36392e-06 0)
(5.75516 1.2433e-06 0)
(5.75516 1.14708e-06 0)
(5.75516 9.93272e-07 0)
(5.75516 8.44877e-07 0)
(5.75516 7.24293e-07 0)
(5.75516 6.00978e-07 0)
(5.75516 5.29324e-07 0)
(5.75516 5.32366e-07 0)
(5.75516 5.33616e-07 0)
(5.75516 5.34429e-07 0)
(5.75516 5.8947e-07 0)
(5.75516 6.40501e-07 0)
(5.75516 6.15736e-07 0)
(5.75516 5.3961e-07 0)
(5.75516 4.53996e-07 0)
(5.75516 4.03711e-07 0)
(5.75516 4.483e-07 0)
(5.75516 5.70551e-07 0)
(5.75516 6.77227e-07 0)
(5.75516 6.9574e-07 0)
(5.75516 6.21396e-07 0)
(5.75516 5.32984e-07 0)
(5.75516 5.38948e-07 0)
(5.75516 6.47653e-07 0)
(5.75516 7.63748e-07 0)
(5.75516 8.20047e-07 0)
(5.75516 8.28631e-07 0)
(5.75516 8.32313e-07 0)
(5.75516 8.51482e-07 0)
(5.75516 8.49053e-07 0)
(5.75516 7.72234e-07 0)
(5.75516 6.33992e-07 0)
(5.75516 4.90118e-07 0)
(5.75516 3.74187e-07 0)
(5.75516 2.94283e-07 0)
(5.75516 2.18098e-07 0)
(5.75516 7.75902e-08 0)
(5.75516 -1.18428e-07 0)
(5.75516 -2.53274e-07 0)
(5.75516 -2.55131e-07 0)
(5.75516 -1.7234e-07 0)
(5.75516 -8.77546e-08 0)
(5.75516 -5.57563e-08 0)
(5.75516 -7.12594e-08 0)
(5.75516 -6.54416e-08 0)
(5.75516 5.27771e-09 0)
(5.75516 8.99594e-08 0)
(5.75516 1.11367e-07 0)
(5.75516 5.20755e-08 0)
(5.75516 -3.70017e-08 0)
(5.75516 -7.44242e-08 0)
(5.75516 -2.38312e-08 0)
(5.75516 4.4972e-08 0)
(5.75516 4.48709e-08 0)
(5.75516 -6.24747e-09 0)
(5.75516 -1.93252e-08 0)
(5.75516 5.70476e-08 0)
(5.75516 1.95311e-07 0)
(5.75516 3.03863e-07 0)
(5.75516 3.05516e-07 0)
(5.75516 2.15853e-07 0)
(5.75516 1.27632e-07 0)
(5.75516 1.06064e-07 0)
(5.75516 1.17856e-07 0)
(5.75516 8.12285e-08 0)
(5.75516 -2.81856e-08 0)
(5.75516 -1.42446e-07 0)
(5.75516 -1.78329e-07 0)
(5.75516 -1.2368e-07 0)
(5.75516 -4.51472e-08 0)
(5.75516 -2.83882e-08 0)
(5.75516 -8.84003e-08 0)
(5.75516 -1.44582e-07 0)
(5.75516 -1.20719e-07 0)
(5.75516 -3.92651e-08 0)
(5.75516 1.86986e-08 0)
(5.75516 -5.95147e-09 0)
(5.75516 -1.0181e-07 0)
(5.75516 -1.79648e-07 0)
(5.75516 -1.68073e-07 0)
(5.75516 -1.08953e-07 0)
(5.75516 -9.61676e-08 0)
(5.75516 -1.59301e-07 0)
(5.75516 -2.48143e-07 0)
(5.75516 -2.83676e-07 0)
(5.75516 -2.36508e-07 0)
(5.75516 -1.7743e-07 0)
(5.75516 -1.85413e-07 0)
(5.75516 -2.44396e-07 0)
(5.75516 -3.03232e-07 0)
(5.75516 -3.16151e-07 0)
(5.75516 -2.35973e-07 0)
(5.75516 -1.16198e-07 0)
(5.75516 -8.45382e-08 0)
(5.75517 -1.24271e-07 0)
(5.75517 -1.15749e-07 0)
(5.75517 -5.04464e-08 0)
(5.75517 2.61365e-08 0)
(5.75517 1.06387e-07 0)
(5.75517 1.41224e-07 0)
(5.75517 1.17482e-07 0)
(5.75517 1.22667e-07 0)
(5.75517 1.69858e-07 0)
(5.75517 1.88709e-07 0)
(5.75517 1.81308e-07 0)
(5.75517 1.46648e-07 0)
(5.75517 5.55104e-08 0)
(5.75517 -8.98956e-09 0)
(5.75517 7.15327e-09 0)
(5.75517 -1.25163e-08 0)
(5.75517 -1.05634e-07 0)
(5.75517 -1.69317e-07 0)
(5.75517 -1.8995e-07 0)
(5.75517 -1.90749e-07 0)
(5.75517 -1.28978e-07 0)
(5.75517 -5.86658e-08 0)
(5.75517 -7.26912e-08 0)
(5.75517 -9.52501e-08 0)
(5.75517 -4.34819e-08 0)
(5.75517 1.08591e-08 0)
(5.75517 1.73806e-08 0)
(5.75517 2.19085e-08 0)
(5.75517 2.23569e-08 0)
(5.75517 -1.20738e-08 0)