/*--------------------------------*- C++ -*----------------------------------*\
| =========                 |                                                 |
| \\      /  F ield         | OpenFOAM: The Open Source CFD Toolbox           |
|  \\    /   O peration     | Version:  2406                                  |
|   \\  /    A nd           | Website:  www.openfoam.com                      |
|    \\/     M anipulation  |                                                 |
\*---------------------------------------------------------------------------*/
FoamFile
{
    version     2.0;
    format      ascii;
    arch        "LSB;label=32;scalar=64";
    class       surfaceScalarField;
    location    "0.25";
    object      alphaPhi0.glycerin;
}
// * * * * * * * * * * * * * * * * * * * * * * * * * * * * * * * * * * * * * //

dimensions      [0 3 -1 0 0 0 0];

oriented        oriented;

internalField   nonuniform List<scalar> 
12225
(
0
0
0
0
0
0
0
0
0
0
0
0
0
0
0
0
0
0
0
0
0
0
0
0
0
0
0
0
0
0
0
0
0
0
0
0
0
0
0
0
0
0
0
0
0
0
0
0
0
0
0
0
0
0
0
0
0
0
0
0
0
0
0
0
0
0
0
0
0
0
0
0
0
0
0
0
0
0
0
0
0
0
0
0
0
0
0
0
0
0
0
0
0
0
0
0
0
0
0
0
0
0
0
0
0
0
0
0
0
0
0
0
0
0
0
0
0
0
0
0
0
0
0
0
0
0
0
0
0
0
0
0
0
0
0
0
0
0
0
0
0
0
0
0
0
0
0
0
0
0
0
0
0
0
0
0
0
0
0
0
0
0
0
0
0
0
0
0
0
0
0
0
0
0
0
0
0
0
-7.469e-314
-9.82319e-316
-6.19043e-297
-9.23446e-299
-1.23044e-277
-2.08738e-279
-1.57055e-258
-3.03779e-260
-2.71802e-241
-6.00901e-243
-1.10439e-224
-2.79757e-226
-3.09642e-208
-9.00916e-210
-4.58726e-192
-1.5368e-193
-6.0123e-176
-2.32518e-177
-3.00975e-158
-1.3473e-159
-4.59803e-141
-2.38942e-142
-2.51276e-117
-1.52076e-118
-1.05651e-101
-7.4749e-103
-1.28539e-87
-1.06841e-88
-1.8105e-75
-1.77902e-76
-1.66495e-64
-1.9496e-65
-1.58287e-55
-2.23245e-56
-3.55303e-47
-6.12537e-48
-3.9354e-38
-8.4716e-39
-7.78272e-35
-2.16178e-35
-3.05734e-32
-1.15861e-32
-3.41044e-30
-1.96338e-30
-8.21748e-29
-1.02475e-28
-2.73093e-29
-7.16039e-28
7.82452e-29
-1.91827e-28
-7.72833e-29
4.80876e-29
-5.45662e-28
1.0587e-28
-3.48695e-28
-4.32677e-28
1.86571e-07
5.17952e-08
2.3187e-07
5.21894e-08
1.8365e-07
4.82204e-08
1.50033e-07
3.36169e-08
1.422e-07
7.83295e-09
1.38643e-07
3.55757e-09
1.28866e-07
9.7768e-09
1.17702e-07
1.11637e-08
1.08856e-07
8.84595e-09
1.00067e-07
8.78901e-09
9.02997e-08
9.76742e-09
8.15647e-08
8.73494e-09
7.56063e-08
5.95845e-09
7.24459e-08
3.16042e-09
7.1086e-08
1.35803e-09
7.01845e-08
8.99896e-10
6.85022e-08
1.68068e-09
6.52577e-08
3.24793e-09
6.01407e-08
5.1181e-09
5.34845e-08
6.65412e-09
4.60705e-08
7.41369e-09
3.89338e-08
7.13648e-09
3.28941e-08
6.03796e-09
2.79549e-08
4.93845e-09
2.37342e-08
4.22306e-09
2.01482e-08
3.58521e-09
1.72703e-08
2.87803e-09
1.50893e-08
2.18055e-09
1.34238e-08
1.66587e-09
1.19628e-08
1.46102e-09
1.04157e-08
1.54709e-09
8.72856e-09
1.68718e-09
7.05469e-09
1.67387e-09
5.81673e-09
1.23795e-09
5.26284e-09
5.53894e-10
5.31502e-09
-5.32014e-11
5.67413e-09
-3.60723e-10
6.01349e-09
-3.42444e-10
6.21518e-09
-2.12929e-10
6.35556e-09
-1.39351e-10
6.48848e-09
-1.33708e-10
6.78414e-09
-2.92026e-10
7.45021e-09
-6.70116e-10
8.74693e-09
-1.31779e-09
1.07816e-08
-2.0515e-09
1.30612e-08
-2.27985e-09
1.47786e-08
-1.71743e-09
1.54931e-08
-7.17633e-10
1.55417e-08
-5.78275e-11
1.5647e-08
-1.05813e-10
1.62533e-08
-6.10268e-10
1.77043e-08
-1.46495e-09
2.02783e-08
-2.53917e-09
2.40329e-08
-3.65512e-09
2.86598e-08
-4.53403e-09
3.34752e-08
-4.81413e-09
3.76786e-08
-4.20245e-09
4.11013e-08
-3.42179e-09
4.41576e-08
-3.05548e-09
4.70097e-08
-2.85122e-09
4.929e-08
-2.27943e-09
5.05103e-08
-1.22441e-09
5.04345e-08
6.16814e-11
4.87504e-08
1.67323e-09
4.66165e-08
2.13195e-09
4.58361e-08
7.79232e-10
4.77422e-08
-1.87977e-09
5.29725e-08
-5.16111e-09
6.12221e-08
-8.2084e-09
7.08469e-08
-9.62433e-09
7.90746e-08
-8.22749e-09
8.44477e-08
-5.37303e-09
8.75648e-08
-3.11708e-09
8.93677e-08
-1.80292e-09
9.05734e-08
-1.20565e-09
9.20717e-08
-1.49832e-09
9.47598e-08
-2.68865e-09
9.92311e-08
-4.47181e-09
1.05566e-07
-6.3354e-09
1.13179e-07
-7.60783e-09
1.20769e-07
-7.5896e-09
1.26759e-07
-5.99052e-09
1.30671e-07
-3.9114e-09
1.33151e-07
-2.47981e-09
1.35177e-07
-2.02604e-09
1.37723e-07
-2.54667e-09
1.41585e-07
-3.86133e-09
1.46939e-07
-5.35064e-09
1.53611e-07
-6.67164e-09
1.60927e-07
-7.31584e-09
1.67724e-07
-6.797e-09
1.7281e-07
-5.08558e-09
1.75957e-07
-3.14761e-09
1.78064e-07
-2.11383e-09
1.80322e-07
-2.27489e-09
1.83157e-07
-2.83015e-09
1.85627e-07
-2.4657e-09
1.86203e-07
-5.71367e-10
1.84071e-07
2.13843e-09
1.80873e-07
3.19804e-09
1.78357e-07
2.28768e-09
1.77812e-07
3.10798e-10
1.79808e-07
-2.00646e-09
1.83979e-07
-4.18133e-09
1.9007e-07
-6.04209e-09
1.97969e-07
-7.85616e-09
2.06984e-07
-8.90042e-09
2.15499e-07
-8.0835e-09
2.20864e-07
-4.96718e-09
2.21391e-07
-4.68768e-10
2.18129e-07
2.62289e-09
2.15657e-07
2.5079e-09
2.13812e-07
1.7866e-09
2.1103e-07
2.51825e-09
2.07274e-07
4.31773e-09
2.01099e-07
6.17407e-09
1.93596e-07
7.5034e-09
1.85762e-07
7.83405e-09
1.7823e-07
7.53182e-09
1.71415e-07
6.58659e-09
1.67288e-07
3.95862e-09
1.64991e-07
2.19715e-09
1.60801e-07
4.14412e-09
1.5478e-07
5.8703e-09
1.50431e-07
4.34899e-09
1.50547e-07
-1.16922e-10
1.54199e-07
-3.65142e-09
1.59865e-07
-5.66521e-09
1.6392e-07
-4.05444e-09
1.64815e-07
-8.95048e-10
1.63722e-07
1.09332e-09
1.61411e-07
2.31111e-09
4.36246e-09
0
0
0
0
0
0
0
0
0
0
0
0
0
0
0
0
0
0
0
0
0
0
0
0
0
0
0
0
0
0
0
0
0
0
0
0
0
0
0
0
0
0
0
0
0
0
0
0
0
0
0
0
0
0
0
0
0
0
0
0
0
0
0
0
0
0
0
0
0
0
0
0
0
0
0
0
0
0
0
0
0
0
0
0
0
0
0
0
0
0
0
0
0
0
0
0
0
0
0
0
0
0
0
0
0
0
0
0
0
0
0
0
0
0
0
0
0
0
0
0
0
0
0
0
0
0
0
0
0
0
0
0
0
0
0
0
0
0
0
0
0
0
0
0
0
0
0
0
0
0
0
0
0
0
0
0
0
0
0
0
0
0
0
0
0
0
0
0
0
0
0
0
0
0
0
0
-0
0
-4.4555e-315
-4.8633e-317
-3.98897e-298
-4.94328e-300
-8.56427e-279
-1.20725e-280
-1.18064e-259
-1.89645e-261
-2.20637e-242
-4.04459e-244
-9.67925e-226
-2.02757e-227
-2.9298e-209
-7.02067e-211
-4.68625e-193
-1.28567e-194
-6.63353e-177
-2.08472e-178
-3.58872e-159
-1.29227e-160
-5.93115e-142
-2.44708e-143
-3.51201e-118
-1.65967e-119
-1.60371e-102
-8.67557e-104
-2.12683e-88
-1.31602e-89
-3.28208e-76
-2.32052e-77
-3.32988e-65
-2.6868e-66
-3.52647e-56
-3.24278e-57
-8.93963e-48
-9.35463e-49
-1.14105e-38
-1.35672e-39
-2.68513e-35
-3.62143e-36
-1.32665e-32
-2.02616e-33
-2.07645e-30
-3.57454e-31
-1.00789e-28
-1.94545e-29
-7.21825e-28
-1.5504e-28
-7.77025e-28
-1.93067e-28
-5.92043e-28
-1.9614e-28
-3.50713e-28
-1.97918e-28
-3.81933e-28
-5.52216e-28
5.73612e-08
2.56956e-09
1.28713e-07
3.27901e-10
3.7518e-07
8.05786e-09
4.32409e-07
8.10876e-08
4.24045e-07
1.61969e-08
3.88928e-07
3.86742e-08
3.41691e-07
5.70142e-08
3.0848e-07
4.43747e-08
2.88884e-07
2.84411e-08
2.69119e-07
2.85548e-08
2.44701e-07
3.41849e-08
2.21969e-07
3.14669e-08
2.05824e-07
2.21036e-08
1.95732e-07
1.32522e-08
1.88479e-07
8.61102e-09
1.81025e-07
8.35395e-09
1.72673e-07
1.00325e-08
1.62048e-07
1.38736e-08
1.48293e-07
1.88661e-08
1.32218e-07
2.2723e-08
1.15102e-07
2.44466e-08
9.89998e-08
2.30334e-08
8.46751e-08
2.03626e-08
7.00984e-08
1.95152e-08
5.70176e-08
1.73038e-08
4.73104e-08
1.32924e-08
4.03249e-08
9.86354e-09
3.53695e-08
7.13602e-09
3.17875e-08
5.24788e-09
2.88302e-08
4.4183e-09
2.57428e-08
4.25295e-09
2.21239e-08
4.25831e-09
1.81573e-08
4.27049e-09
1.56106e-08
2.92605e-09
1.49676e-08
1.08555e-09
1.53944e-08
-4.81043e-10
1.63567e-08
-1.32753e-09
1.71116e-08
-1.1036e-09
1.76082e-08
-7.18387e-10
1.81831e-08
-7.26392e-10
1.87365e-08
-6.84697e-10
1.94062e-08
-1.07474e-09
1.96882e-08
-2.01301e-09
2.21443e-08
-3.88037e-09
2.80677e-08
-6.98056e-09
3.37702e-08
-7.81318e-09
3.81567e-08
-6.10394e-09
4.08417e-08
-3.40261e-09
4.24792e-08
-1.69606e-09
4.43984e-08
-2.02345e-09
4.58519e-08
-3.63816e-09
4.83893e-08
-5.7861e-09
5.58074e-08
-8.72987e-09
6.47353e-08
-1.18814e-08
7.42123e-08
-1.40332e-08
8.34665e-08
-1.44491e-08
9.30503e-08
-1.12259e-08
1.02522e-07
-9.50315e-09
1.11765e-07
-9.96485e-09
1.21733e-07
-1.13592e-08
1.31272e-07
-1.13537e-08
1.39001e-07
-8.95734e-09
1.43405e-07
-4.34261e-09
1.44792e-07
2.8858e-10
1.43698e-07
1.57417e-09
1.46102e-07
-1.70421e-09
1.51438e-07
-7.29504e-09
1.61399e-07
-1.52014e-08
1.77359e-07
-2.31036e-08
1.95452e-07
-2.75225e-08
2.11751e-07
-2.1921e-08
2.2309e-07
-1.37663e-08
2.31241e-07
-1.04008e-08
2.37559e-07
-8.12153e-09
2.428e-07
-6.44669e-09
2.48649e-07
-7.34674e-09
2.5687e-07
-1.09097e-08
2.6822e-07
-1.58202e-08
2.82556e-07
-2.10446e-08
3.00024e-07
-2.51325e-08
3.19019e-07
-2.6658e-08
3.36814e-07
-2.3418e-08
3.50949e-07
-1.80458e-08
3.61727e-07
-1.32578e-08
3.71989e-07
-1.22882e-08
3.84242e-07
-1.48004e-08
3.97996e-07
-1.7882e-08
4.13142e-07
-2.0921e-08
4.30708e-07
-2.41778e-08
4.49944e-07
-2.54044e-08
4.69084e-07
-2.5459e-08
4.83355e-07
-1.93573e-08
4.92763e-07
-1.25793e-08
4.99123e-07
-8.52731e-09
5.05705e-07
-8.92344e-09
5.13729e-07
-1.05672e-08
5.21577e-07
-1.02992e-08
5.25355e-07
-4.3488e-09
5.24289e-07
3.2041e-09
5.21529e-07
5.95819e-09
5.20897e-07
2.92001e-09
5.23201e-07
-1.99382e-09
5.27616e-07
-7.04534e-09
5.35156e-07
-1.21039e-08
5.45301e-07
-1.5381e-08
5.57433e-07
-1.9945e-08
5.37244e-07
-2.43889e-08
5.52248e-07
-2.42881e-08
5.6229e-07
-1.62114e-08
5.93503e-07
-2.0382e-09
5.9675e-07
6.97175e-09
5.93186e-07
6.52894e-09
5.51963e-07
3.3664e-09
5.62713e-07
4.9446e-09
5.81051e-07
1.07908e-08
5.70381e-07
1.79696e-08
5.54629e-07
2.32551e-08
5.38008e-07
2.44556e-08
5.15561e-07
2.36586e-08
4.87685e-07
2.23284e-08
4.15387e-07
1.84653e-08
2.99654e-07
8.16746e-09
3.76931e-07
4.02704e-09
4.63571e-07
1.01136e-08
4.66391e-07
1.01396e-08
4.61621e-07
4.29519e-09
4.6295e-07
-5.65887e-09
4.67458e-07
-1.04178e-08
4.64101e-07
-9.1841e-10
4.30654e-07
1.01364e-08
3.68514e-07
1.10724e-08
3.64251e-07
8.73969e-09
1.40825e-08
0
0
0
0
0
0
0
0
0
0
0
0
0
0
0
0
0
0
0
0
0
0
0
0
0
0
0
0
0
0
0
0
0
0
0
0
0
0
0
0
0
0
0
0
0
0
0
0
0
0
0
0
0
0
0
0
0
0
0
0
0
0
0
0
0
0
0
0
0
0
0
0
0
0
0
0
0
0
0
0
0
0
0
0
0
0
0
0
0
0
0
0
0
0
0
0
0
0
0
0
0
0
0
0
0
0
0
0
0
0
0
0
0
0
0
0
0
0
0
0
0
0
0
0
0
0
0
0
0
0
0
0
0
0
0
0
0
0
0
0
0
0
0
0
0
0
0
0
0
0
0
0
0
0
0
0
0
0
0
0
0
0
0
0
0
0
0
0
0
0
0
0
0
0
0
0
-0
0
-2.57384e-316
-3.06459e-318
-2.46238e-299
-3.30083e-301
-5.63938e-280
-8.51804e-282
-8.27676e-261
-1.40968e-262
-1.64321e-243
-3.15764e-245
-7.64123e-227
-1.6575e-228
-2.44617e-210
-5.99185e-212
-4.12897e-194
-1.14238e-195
-6.1548e-178
-1.92368e-179
-3.49968e-160
-1.23565e-161
-6.06911e-143
-2.42032e-144
-3.76587e-119
-1.69571e-120
-1.80041e-103
-9.14919e-105
-2.49874e-89
-1.43204e-90
-4.03515e-77
-2.60575e-78
-4.2857e-66
-3.11514e-67
-4.75497e-57
-3.88576e-58
-1.26424e-48
-1.16013e-49
-1.69488e-39
-1.74468e-40
-4.1968e-36
-4.84303e-37
-2.18742e-33
-2.83107e-34
-3.61627e-31
-5.26186e-32
-1.86378e-29
-3.06754e-30
-1.53392e-28
-2.89347e-29
-2.95449e-28
-6.55023e-29
-4.02366e-28
-1.09494e-28
-4.6258e-28
-1.63589e-28
-9.15332e-28
-1.05902e-28
2.26741e-09
3.02352e-10
2.5429e-09
5.51998e-11
3.06159e-08
1.20489e-09
1.315e-07
2.28494e-09
1.34993e-07
-2.51017e-09
2.06412e-07
6.28401e-09
4.65851e-07
3.0236e-08
4.81396e-07
6.29916e-08
4.76237e-07
3.35997e-08
4.36819e-07
6.79728e-08
3.86207e-07
8.47972e-08
3.48362e-07
6.93117e-08
3.27211e-07
4.32549e-08
3.14987e-07
2.54757e-08
3.04574e-07
1.90247e-08
2.81702e-07
1.98932e-08
2.61202e-07
2.28885e-08
2.426e-07
2.99322e-08
2.23498e-07
3.79614e-08
2.02948e-07
4.32668e-08
1.81581e-07
4.58068e-08
1.4059e-07
3.511e-08
3.69118e-08
9.78258e-09
2.45121e-08
-6.54311e-11
3.01222e-08
-7.27154e-12
3.68519e-08
1.55848e-09
3.82096e-08
4.6982e-09
3.48141e-08
5.45751e-09
3.22925e-08
4.06769e-09
2.88749e-08
3.23529e-09
1.77456e-08
2.9362e-09
5.1268e-09
4.63603e-10
5.72618e-09
-8.35963e-13
8.59898e-09
-4.37374e-14
1.38243e-08
3.96918e-11
1.5291e-08
-1.25235e-13
1.55333e-08
-2.09523e-17
1.53949e-08
-4.014e-10
1.38237e-08
-2.36738e-11
1.23159e-08
-2.26673e-15
1.20784e-08
-3.66371e-17
1.36765e-08
-6.83922e-17
1.7206e-08
-1.83734e-15
2.06652e-08
-2.09503e-15
3.05455e-08
-2.91821e-09
3.93633e-08
-1.20263e-08
4.31461e-08
-1.06851e-08
3.70808e-08
-3.07684e-09
3.68943e-08
-9.45254e-10
4.67288e-08
-1.50664e-12
6.17184e-08
-1.35005e-15
7.38455e-08
-6.21212e-17
8.25249e-08
-8.58153e-09
8.97338e-08
-1.9093e-08
9.69851e-08
-2.13079e-08
7.80443e-08
-2.33069e-08
2.9625e-08
-1.23581e-08
4.45767e-08
-2.37823e-09
6.95844e-08
-6.37518e-11
9.73701e-08
-1.27734e-13
1.29152e-07
-5.36951e-16
1.66259e-07
-1.35488e-15
2.0476e-07
-2.20945e-15
2.41683e-07
-3.99033e-15
2.51365e-07
-7.42282e-10
2.52855e-07
-2.6767e-09
2.57578e-07
-1.15007e-08
2.66206e-07
-2.3311e-08
2.80012e-07
-3.63949e-08
2.02745e-07
-4.36827e-08
1.05256e-07
-1.17758e-08
1.60605e-07
-1.53831e-09
2.37823e-07
-1.80367e-10
2.85309e-07
-8.70903e-13
3.10598e-07
-3.93923e-15
3.38182e-07
-1.03878e-16
3.63243e-07
-8.23358e-09
3.82462e-07
-1.96262e-08
3.99591e-07
-3.3919e-08
4.12272e-07
-3.78674e-08
3.3625e-07
-4.45776e-08
3.13971e-07
-2.78714e-08
3.89588e-07
-1.14023e-08
5.01603e-07
-7.71371e-10
5.63367e-07
-1.02703e-08
5.91347e-07
-2.50762e-08
6.12606e-07
-3.94092e-08
6.32014e-07
-4.0485e-08
6.18292e-07
-4.79089e-08
6.26637e-07
-5.519e-08
6.76503e-07
-5.2077e-08
7.40495e-07
-3.64978e-08
7.64851e-07
-2.78626e-08
7.72871e-07
-1.6599e-08
7.82014e-07
-1.82376e-08
7.49028e-07
-2.49204e-08
7.78386e-07
-2.42942e-08
8.08352e-07
-9.76869e-09
8.14902e-07
2.45386e-09
8.13811e-07
5.64064e-09
8.32894e-07
-3.20878e-09
8.45685e-07
-1.00957e-08
8.53387e-07
-1.39266e-08
8.30523e-07
-1.83088e-08
7.95406e-07
-2.3477e-08
8.58365e-07
-3.04123e-08
8.78378e-07
-4.00494e-08
8.99755e-07
-4.13237e-08
9.21989e-07
-2.75798e-08
9.45375e-07
-3.02081e-09
9.40628e-07
1.15837e-08
9.39842e-07
7.78329e-09
7.93887e-07
-1.47767e-09
7.96639e-07
-2.11971e-10
7.96849e-07
8.1849e-09
7.90745e-07
2.16724e-08
9.22693e-07
3.743e-08
9.05192e-07
4.19566e-08
8.91786e-07
3.70875e-08
8.76579e-07
3.75828e-08
8.536e-07
4.14928e-08
5.03507e-07
2.42397e-08
3.08501e-07
1.18226e-08
3.03763e-07
1.65183e-09
3.03326e-07
-3.02333e-09
8.2091e-07
-1.09292e-08
8.31785e-07
-1.72112e-08
4.98088e-07
-1.45288e-08
3.28679e-07
-3.27551e-09
3.36776e-07
3.06192e-09
1.85964e-07
5.20919e-09
4.11626e-08
-4.23086e-10
-1.14393e-09
0
0
0
0
0
0
0
0
0
0
0
0
0
0
0
0
0
0
0
0
0
0
0
0
0
0
0
0
0
0
0
0
0
0
0
0
0
0
0
0
0
0
0
0
0
0
0
0
0
0
0
0
0
0
0
0
0
0
0
0
0
0
0
0
0
0
0
0
0
0
0
0
0
0
0
0
0
0
0
0
0
0
0
0
0
0
0
0
0
0
0
0
0
0
0
0
0
0
0
0
0
0
0
0
0
0
0
0
0
0
0
0
0
0
0
0
0
0
0
0
0
0
0
0
0
0
0
0
0
0
0
0
0
0
0
0
0
0
0
0
0
0
0
0
0
0
0
0
0
0
0
0
0
0
0
0
0
0
0
0
0
0
0
0
0
0
0
0
0
0
0
0
0
0
0
0
0
0
-1.65694e-317
-2.17275e-319
-1.68098e-300
-2.47248e-302
-4.0717e-281
-6.71901e-283
-6.30248e-262
-1.16692e-263
-1.31575e-244
-2.73326e-246
-6.41462e-228
-1.49474e-229
-2.14641e-211
-5.60844e-213
-3.7757e-195
-1.1057e-196
-5.84875e-179
-1.91829e-180
-3.44679e-161
-1.26507e-162
-6.18028e-144
-2.5359e-145
-3.95689e-120
-1.81308e-121
-1.94884e-104
-9.9598e-106
-2.78327e-90
-1.58452e-91
-4.62254e-78
-2.92787e-79
-5.04958e-67
-3.55437e-68
-5.76668e-58
-4.50679e-59
-1.5806e-49
-1.3707e-50
-2.18979e-40
-2.10707e-41
-5.62538e-37
-6.00993e-38
-3.06035e-34
-3.63616e-35
-5.33438e-32
-7.06938e-33
-2.95345e-30
-4.38422e-31
-2.86144e-29
-4.78662e-30
-8.21396e-29
-1.559e-29
-1.62799e-28
-3.54126e-29
-2.69331e-28
-6.74287e-29
-3.4135e-28
-3.61506e-29
2.79817e-10
2.24145e-11
3.16736e-10
1.85198e-11
1.38409e-09
1.54539e-10
3.32779e-09
3.39397e-10
1.00065e-09
-1.85061e-10
7.30884e-09
-2.23117e-11
6.95229e-08
1.88624e-09
1.36282e-07
-1.12704e-09
1.51176e-07
-2.71515e-10
2.65135e-07
4.97064e-09
5.06706e-07
3.63332e-08
5.03379e-07
8.08552e-08
4.76969e-07
3.66358e-08
4.54762e-07
1.65452e-08
3.98159e-07
1.52278e-08
1.73825e-07
1.98064e-08
7.99288e-08
-1.7129e-09
1.21623e-07
-2.68287e-09
2.24897e-07
1.90911e-08
1.63875e-07
2.79243e-08
4.09659e-08
1.04903e-08
-5.80505e-12
-4.5687e-10
9.02795e-11
-2.51725e-12
2.45396e-11
1.63282e-13
1.76632e-11
-5.22092e-13
4.59487e-10
-2.22721e-12
6.56713e-10
6.88227e-13
3.87968e-10
-1.64632e-12
8.46769e-10
1.6142e-12
7.66665e-10
1.21126e-12
6.38651e-11
1.07523e-12
1.02478e-12
2.80198e-13
1.76591e-13
6.76491e-15
1.31417e-13
-3.51313e-16
1.25289e-13
-6.84875e-15
4.09644e-17
9.85464e-18
6.19725e-18
8.84754e-18
2.36755e-11
-8.95838e-15
2.26716e-15
-5.25721e-16
1.90512e-18
-3.23681e-17
-1.29277e-17
-5.33105e-17
-9.65544e-18
-1.02557e-16
6.74441e-18
-1.87913e-15
5.22852e-17
-2.16456e-15
3.22916e-10
-5.1145e-14
9.291e-10
-4.15178e-14
2.95763e-09
-1.1853e-14
9.46757e-10
-2.36036e-15
1.50721e-12
-3.66317e-15
1.36585e-15
-8.32681e-16
2.81048e-16
-3.31856e-16
3.96349e-16
-2.44631e-16
6.05502e-08
-4.81324e-16
1.02297e-07
-1.64654e-16
9.42603e-08
-9.63373e-17
6.48606e-08
-4.46565e-15
2.44209e-09
-1.87384e-14
6.38795e-11
-2.33015e-14
1.29741e-13
-2.99748e-15
7.67287e-16
-5.76352e-16
5.39271e-16
-1.62067e-15
5.87501e-16
-2.71117e-15
6.96191e-16
-3.62988e-15
1.38521e-15
-5.98377e-15
6.67741e-08
-2.26533e-14
3.61346e-07
-5.32128e-16
3.91972e-07
-3.27475e-09
3.89272e-07
-1.23257e-08
3.6285e-07
-1.99028e-08
1.3735e-07
-1.44158e-08
1.71848e-09
-1.1864e-09
1.81252e-10
-3.04428e-12
8.75802e-13
4.71885e-17
4.83082e-15
-2.40635e-16
9.23927e-16
-2.99667e-16
1.09447e-15
-5.41634e-16
7.35919e-08
-2.02662e-14
2.37795e-07
-6.1381e-15
3.19485e-07
-5.88956e-16
2.66954e-07
-7.62806e-16
1.56783e-07
-1.80731e-15
1.35457e-08
-1.37247e-16
8.15912e-10
-1.34789e-15
4.45453e-11
-3.75784e-15
7.89661e-08
-4.25895e-14
5.26617e-07
-3.7484e-14
7.58598e-07
-2.91327e-14
7.8497e-07
-1.28149e-14
7.94747e-07
-1.51527e-08
8.23367e-07
-4.36408e-08
4.54202e-07
-8.72462e-08
5.10731e-07
-5.24056e-08
8.61955e-07
-2.05659e-08
1.05483e-06
-2.99787e-10
1.0578e-06
-1.99055e-08
1.07175e-06
-3.82115e-08
4.8455e-07
-5.12828e-08
1.14918e-07
-2.27896e-08
4.26042e-07
-2.07116e-09
9.35946e-07
-1.13989e-09
1.16027e-06
-2.23804e-08
1.17668e-06
-2.56792e-08
1.18028e-06
-1.67024e-08
1.1193e-06
-1.82493e-08
1.08001e-06
-2.7392e-08
1.11873e-06
-4.04227e-08
1.12723e-06
-3.55377e-08
7.88233e-07
-1.3965e-08
1.26299e-07
-9.33898e-09
2.54439e-07
-6.15003e-09
8.90367e-07
8.05661e-10
1.24614e-06
-2.07035e-09
1.26831e-06
-1.83521e-08
1.29416e-06
-2.07634e-08
1.31934e-06
-1.00973e-08
1.33792e-06
1.58992e-08
1.33508e-06
3.80214e-08
1.31148e-06
6.51401e-08
5.41875e-07
4.44156e-08
4.42068e-07
1.85256e-08
4.2604e-07
1.41961e-08
8.74931e-07
1.48473e-08
1.14015e-06
1.48356e-08
1.14988e-06
-6.85521e-09
1.1791e-06
-3.10397e-08
1.21448e-06
-4.51151e-08
8.19745e-07
-1.96498e-08
3.38871e-07
-3.21492e-09
-6.02162e-09
3.57992e-10
2.96087e-08
1.17447e-10
6.22508e-08
5.90509e-09
8.28589e-08
1.04858e-08
8.0466e-09
0
0
0
0
0
0
0
0
0
0
0
0
0
0
0
0
0
0
0
0
0
0
0
0
0
0
0
0
0
0
0
0
0
0
0
0
0
0
0
0
0
0
0
0
0
0
0
0
0
0
0
0
0
0
0
0
0
0
0
0
0
0
0
0
0
0
0
0
0
0
0
0
0
0
0
0
0
0
0
0
0
0
0
0
0
0
0
0
0
0
0
0
0
0
0
0
0
0
0
0
0
0
0
0
0
0
0
0
0
0
0
0
0
0
0
0
0
0
0
0
0
0
0
0
0
0
0
0
0
0
0
0
0
0
0
0
0
0
0
0
0
0
0
0
0
0
0
0
0
0
0
0
0
0
0
0
0
0
0
0
0
0
0
0
0
0
0
0
0
0
0
0
0
0
0
0
-0
0
-1.13709e-318
-1.53556e-320
-1.21785e-301
-1.83918e-303
-3.10505e-282
-5.24394e-284
-5.04345e-263
-9.52354e-265
-1.10138e-245
-2.32468e-247
-5.5986e-229
-1.32031e-230
-1.94696e-212
-5.12734e-214
-3.54799e-196
-1.04271e-197
-5.67586e-180
-1.85999e-181
-3.44408e-162
-1.25731e-163
-6.34099e-145
-2.57603e-146
-4.15834e-121
-1.87766e-122
-2.09346e-105
-1.04928e-106
-3.0512e-91
-1.69516e-92
-5.1662e-79
-3.1767e-80
-5.75149e-68
-3.90832e-69
-6.69758e-59
-5.02209e-60
-1.87486e-50
-1.54914e-51
-2.66032e-41
-2.41937e-42
-7.03301e-38
-7.03361e-39
-3.96577e-35
-4.35936e-36
-7.24405e-33
-8.75239e-34
-4.27746e-31
-5.68255e-32
-4.77794e-30
-6.98529e-31
-1.82462e-29
-2.93793e-30
-4.71447e-29
-8.3691e-30
-9.87702e-29
-1.93182e-29
-1.24668e-28
-1.11166e-29
2.10863e-11
1.4756e-12
3.78696e-11
1.72038e-12
1.81884e-10
1.13384e-11
4.94362e-10
2.70668e-11
3.06332e-10
2.79422e-12
2.75353e-10
8.7228e-12
1.93792e-09
2.24914e-10
8.77851e-10
-6.8033e-11
6.09099e-10
-3.86577e-12
5.42606e-09
1.55491e-10
5.99879e-08
1.84965e-09
1.57556e-07
-9.38505e-10
1.87512e-07
2.6797e-10
1.49493e-07
-3.99279e-10
1.0071e-07
-8.01377e-10
3.75265e-08
-3.26741e-10
6.03148e-10
4.87795e-11
2.4496e-09
-1.84397e-10
1.03977e-08
1.85101e-11
7.95824e-09
1.33889e-10
4.60931e-10
3.74658e-11
2.67974e-12
1.1846e-12
-3.86653e-14
1.28194e-13
-7.59791e-14
1.26499e-13
-7.67815e-13
9.26607e-14
-3.1054e-12
3.12496e-14
-2.50162e-12
4.04669e-15
-4.19217e-12
-1.98584e-14
-2.63034e-12
-5.26154e-15
-1.35562e-12
-4.82811e-14
-2.82863e-13
7.61976e-15
-1.68976e-14
8.7716e-15
-2.42666e-15
-8.80247e-15
-2.4232e-15
-1.6204e-15
-2.68528e-15
-6.58955e-15
-2.90824e-15
2.30823e-16
-3.13106e-15
2.28786e-16
-7.53405e-15
-4.56252e-15
-2.07465e-14
4.59902e-15
-3.11074e-14
2.52101e-15
-1.03393e-14
1.17666e-15
-5.89587e-14
4.77267e-15
-2.94444e-13
-9.98866e-14
-8.1799e-15
-4.76448e-14
-4.53804e-15
-5.64894e-14
-1.36779e-15
-4.50454e-14
-6.47944e-16
-1.26723e-14
-9.08115e-16
-2.21727e-15
-1.5574e-15
-3.11349e-15
-1.23549e-15
1.0108e-15
-3.13079e-16
7.17591e-16
1.87326e-16
-6.916e-16
2.36435e-16
-6.62412e-16
2.83865e-16
-3.05705e-16
2.93033e-16
-2.18762e-16
2.92497e-16
-4.55874e-15
3.603e-16
-1.87857e-14
6.33504e-16
-2.31451e-14
1.40272e-15
-3.18079e-15
9.00444e-15
-2.54951e-17
2.40219e-14
2.07046e-16
2.37927e-14
8.35057e-16
2.29105e-14
6.01469e-16
1.98968e-14
-7.19914e-16
4.29358e-15
-7.83856e-15
4.01634e-15
-1.17303e-15
2.30008e-08
-9.36875e-14
6.42011e-08
-2.45781e-15
5.40458e-08
-4.10097e-15
8.26336e-09
-5.15739e-15
3.0622e-12
3.83451e-13
2.37775e-15
-9.18038e-14
2.59209e-16
2.44298e-15
-7.47191e-16
1.11287e-15
-9.69869e-16
4.1137e-16
-3.39343e-16
-2.83781e-16
3.98734e-16
-2.23481e-14
9.19116e-16
-7.60545e-15
1.13646e-15
-1.5422e-15
1.18529e-15
-1.22566e-15
1.11896e-15
-1.83314e-15
9.74075e-16
-8.17542e-17
9.04375e-16
-1.36758e-15
1.09083e-15
-4.02375e-15
1.66249e-15
-4.31403e-14
2.21912e-15
-3.81339e-14
2.69294e-15
-3.00135e-14
4.76246e-15
-1.53598e-14
1.81255e-07
-7.07898e-14
8.273e-07
-1.87013e-15
5.5147e-07
-1.25337e-15
2.68584e-08
-8.9818e-16
5.23565e-09
-7.89966e-14
4.93598e-09
-1.19194e-13
1.07275e-06
-1.11165e-14
1.33634e-06
-1.41875e-14
1.40325e-06
-6.61386e-16
1.09047e-07
1.00093e-08
5.74996e-07
1.66513e-09
1.31669e-06
-2.54247e-08
1.53665e-06
-3.46878e-08
1.51487e-06
-3.02e-09
1.48951e-06
9.48177e-09
1.47901e-06
-6.87254e-09
1.47938e-06
-2.68766e-08
1.23361e-06
-5.02964e-08
2.30747e-07
-6.75891e-08
7.85405e-08
-8.0969e-08
2.36617e-07
-4.08071e-08
3.65663e-07
-8.71935e-09
8.78119e-07
-1.16562e-08
1.53676e-06
-2.40645e-08
1.55288e-06
-2.60714e-08
8.94093e-07
-1.21069e-08
1.13827e-07
-1.05497e-08
2.55692e-07
-1.26833e-10
4.57776e-07
1.14107e-09
4.11767e-07
1.47802e-08
4.00608e-07
2.85498e-08
3.74273e-07
1.6788e-08
1.41446e-06
2.00413e-08
1.63216e-06
9.51293e-09
1.64004e-06
8.07551e-09
1.64136e-06
-7.1202e-09
1.65505e-06
-4.35297e-08
7.35019e-07
-5.30286e-08
2.40944e-10
-1.86303e-08
1.07726e-09
-4.70492e-09
3.34838e-09
-2.10736e-09
2.89256e-09
-2.57367e-10
7.71013e-09
2.56868e-10
5.4009e-07
3.24121e-08
4.15058e-08
0
0
0
0
0
0
0
0
0
0
0
0
0
0
0
0
0
0
0
0
0
0
0
0
0
0
0
0
0
0
0
0
0
0
0
0
0
0
0
0
0
0
0
0
0
0
0
0
0
0
0
0
0
0
0
0
0
0
0
0
0
0
0
0
0
0
0
0
0
0
0
0
0
0
0
0
0
0
0
0
0
0
0
0
0
0
0
0
0
0
0
0
0
0
0
0
0
0
0
0
0
0
0
0
0
0
0
0
0
0
0
0
0
0
0
0
0
0
0
0
0
0
0
0
0
0
0
0
0
0
0
0
0
0
0
0
0
0
0
0
0
0
0
0
0
0
0
0
0
0
0
0
0
0
0
0
0
0
0
0
0
0
0
0
0
0
0
0
0
0
0
0
0
0
0
0
-0
0
-7.79932e-320
-1.02766e-321
-8.7863e-303
-1.29087e-304
-2.3492e-283
-3.84834e-285
-3.98901e-264
-7.28315e-266
-9.078e-247
-1.84639e-248
-4.79369e-230
-1.08546e-231
-1.72633e-213
-4.34877e-215
-3.24787e-197
-9.09462e-199
-5.34842e-181
-1.66324e-182
-3.3316e-163
-1.14943e-164
-6.28101e-146
-2.40146e-147
-4.20844e-122
-1.78099e-123
-2.16072e-106
-1.01082e-107
-3.20703e-92
-1.65623e-93
-5.52415e-80
-3.14485e-81
-6.25363e-69
-3.9186e-70
-7.40619e-60
-5.10006e-61
-2.11036e-51
-1.59446e-52
-3.05346e-42
-2.52689e-43
-8.25784e-39
-7.47192e-40
-4.78719e-36
-4.72728e-37
-9.06245e-34
-9.74733e-35
-5.62139e-32
-6.57159e-33
-7.05522e-31
-8.94364e-32
-3.34095e-30
-4.58009e-31
-1.05764e-29
-1.56262e-30
-2.66339e-29
-4.22327e-30
-3.54252e-29
-2.58531e-30
1.40385e-12
7.17009e-14
3.01133e-12
1.1321e-13
1.37065e-11
7.07264e-13
3.87319e-11
2.00551e-12
4.06199e-11
8.92045e-13
4.82002e-11
1.17234e-12
2.57383e-10
1.58706e-11
1.87307e-10
1.994e-12
1.7889e-10
4.45607e-12
3.16523e-10
1.79115e-11
1.9661e-09
2.00848e-10
1.01531e-09
1.12213e-11
1.19792e-09
8.47062e-11
7.47695e-10
4.81509e-11
8.11561e-11
-1.38092e-10
-1.06045e-10
-1.42272e-10
-2.74468e-11
-3.43568e-11
-1.99811e-10
-4.26324e-12
-1.71984e-10
-1.42306e-11
-3.9827e-11
-7.03723e-12
-1.42608e-12
-1.13182e-12
-3.51687e-13
3.7237e-14
-2.27818e-13
-6.97714e-14
-2.13828e-13
3.54957e-14
-2.17721e-13
1.94693e-14
-2.1726e-13
-4.62947e-14
-2.9175e-13
3.65519e-17
-2.7741e-13
-8.47248e-14
-1.75667e-13
-2.30362e-13
-1.32317e-13
-7.12541e-14
-1.02419e-13
1.71177e-15
-7.84021e-14
1.0616e-15
-5.7543e-14
-1.61683e-14
-3.77999e-14
-4.58328e-15
-1.87756e-14
-4.4132e-14
-2.36248e-15
-7.15997e-14
2.05368e-14
-1.34744e-13
4.21062e-14
-1.40919e-13
5.38395e-14
-1.48023e-13
5.91332e-14
-2.07573e-13
9.67395e-14
-2.91546e-13
1.49849e-13
-2.24853e-13
3.62827e-13
-8.3078e-14
9.94241e-14
-1.89801e-13
8.53984e-14
-2.22572e-13
1.43982e-13
-3.16684e-13
2.30744e-13
-2.22251e-13
4.80651e-13
-1.53391e-13
3.76165e-13
-1.37482e-13
2.40136e-13
-1.57764e-13
-4.7884e-15
-7.66026e-14
4.08859e-15
-2.29677e-15
1.69683e-14
2.43072e-16
2.32713e-14
-1.28386e-14
2.02354e-13
-3.01462e-14
6.43545e-13
-3.037e-14
6.82904e-13
-3.14929e-14
2.4753e-13
-3.27408e-14
-6.46888e-15
-3.24371e-14
2.38481e-14
-2.36486e-14
3.96582e-14
-1.283e-14
4.13394e-14
1.31738e-17
4.1532e-14
1.36004e-15
1.90097e-13
8.48664e-15
1.00406e-13
2.8388e-14
1.02811e-13
1.49103e-14
8.95782e-15
1.23376e-16
5.67472e-15
8.1231e-16
4.7369e-15
-3.17217e-15
4.26315e-15
-4.69661e-15
4.15449e-13
-2.82264e-14
3.61652e-14
4.32566e-15
2.06617e-15
2.33481e-15
2.17397e-14
1.69237e-15
8.78757e-14
-6.86242e-15
1.17433e-13
-3.18947e-14
6.14485e-14
-5.87578e-14
1.45889e-14
-6.43021e-14
2.20316e-14
-5.97361e-14
7.73975e-14
-5.03361e-14
1.76363e-13
-3.79058e-14
1.02903e-13
-2.32753e-14
5.03058e-14
-6.83823e-15
1.24049e-13
-1.17887e-15
2.06056e-13
-9.28894e-15
1.94868e-13
-1.40624e-14
1.87179e-13
-9.58031e-15
7.86264e-14
-3.69127e-15
7.60417e-15
-2.49583e-17
5.26035e-15
2.10657e-16
4.56697e-15
-7.38713e-16
4.2692e-15
-8.19504e-16
5.88567e-15
-6.98915e-14
1.01927e-14
-1.28267e-13
9.00874e-15
-1.24171e-14
9.36431e-15
-1.50316e-14
1.28414e-14
-3.46982e-14
1.36744e-08
-7.57647e-13
7.42693e-07
-1.54287e-13
4.69048e-07
5.14691e-11
6.31951e-08
6.33769e-10
3.57809e-08
-4.88747e-10
5.36873e-07
-1.42962e-09
1.61219e-06
1.03898e-09
1.58515e-06
-1.14006e-09
1.5025e-06
-3.1638e-11
1.40736e-06
-1.56949e-12
1.29738e-06
-1.94871e-12
9.89589e-08
-1.72162e-12
4.67925e-07
-1.85601e-12
1.39251e-06
-1.13009e-12
1.09179e-06
-8.43271e-13
2.66306e-07
-3.6375e-14
1.24702e-08
1.18603e-11
1.93062e-09
-1.29219e-11
1.8033e-09
-1.82054e-12
1.00052e-06
1.53848e-08
1.70251e-06
1.64616e-07
1.60976e-06
1.69066e-07
1.57419e-06
9.63146e-08
7.21997e-07
1.84626e-08
1.1837e-06
-2.23875e-10
1.60602e-06
-5.22669e-09
2.40947e-06
-2.72372e-08
1.69408e-06
-6.98168e-08
2.09254e-07
-9.63558e-08
5.67726e-08
-1.196e-07
9.70191e-08
-1.14825e-07
2.57354e-10
-2.4064e-08
-1.16715e-09
-2.49699e-10
1.23871e-08
6.18513e-10
5.05833e-08
-1.08096e-10
-2.4086e-09
0
0
0
0
0
0
0
0
0
0
0
0
0
0
0
0
0
0
0
0
0
0
0
0
0
0
0
0
0
0
0
0
0
0
0
0
0
0
0
0
0
0
0
0
0
0
0
0
0
0
0
0
0
0
0
0
0
0
0
0
0
0
0
0
0
0
0
0
0
0
0
0
0
0
0
0
0
0
0
0
0
0
0
0
0
0
0
0
0
0
0
0
0
0
0
0
0
0
0
0
0
0
0
0
0
0
0
0
0
0
0
0
0
0
0
0
0
0
0
0
0
0
0
0
0
0
0
0
0
0
0
0
0
0
0
0
0
0
0
0
0
0
0
0
0
0
0
0
0
0
0
0
0
0
0
0
0
0
0
0
0
0
0
0
0
0
0
0
0
0
0
0
0
0
0
0
0
0
-5.09382e-321
-6.42285e-323
-6.01881e-304
-8.1855e-306
-1.68237e-284
-2.54487e-286
-2.97715e-265
-5.00604e-267
-7.03859e-248
-1.31471e-249
-3.8491e-231
-7.98017e-233
-1.43109e-214
-3.29037e-216
-2.77145e-198
-7.05965e-200
-4.68464e-182
-1.32065e-183
-2.98754e-164
-9.31009e-166
-5.75284e-147
-1.9793e-148
-3.92905e-123
-1.49049e-124
-2.05295e-107
-8.57467e-109
-3.09711e-93
-1.42217e-94
-5.41812e-81
-2.73099e-82
-6.22753e-70
-3.43997e-71
-7.49e-61
-4.52632e-62
-2.16918e-52
-1.43153e-53
-3.19434e-43
-2.29772e-44
-8.81419e-40
-6.89627e-41
-5.233e-37
-4.44342e-38
-1.02082e-34
-9.3832e-36
-6.59684e-33
-6.54509e-34
-9.15522e-32
-9.77114e-33
-5.15071e-31
-5.88958e-32
-1.92272e-30
-2.34395e-31
-5.62604e-30
-7.27084e-31
-7.80642e-30
-4.64789e-31
6.91121e-14
2.5848e-15
1.77604e-13
4.68702e-15
8.55181e-13
3.24538e-14
2.74663e-12
1.16332e-13
3.56685e-12
7.22065e-14
4.6465e-12
9.23463e-14
1.95606e-11
9.53819e-13
2.11456e-11
4.05814e-13
2.5105e-11
4.87854e-13
4.17e-11
1.31516e-12
2.30049e-10
1.22799e-11
2.37591e-10
3.2324e-12
3.17837e-10
4.43858e-12
3.63027e-10
2.80361e-12
2.32641e-10
-7.90015e-12
9.8675e-11
-8.43012e-12
6.44062e-11
-2.47412e-12
7.01625e-11
6.47601e-14
5.72243e-11
-4.44308e-13
3.33992e-11
7.15392e-14
1.37479e-11
2.29164e-13
1.33049e-11
2.29767e-14
3.05484e-11
5.61531e-13
3.15473e-11
7.77528e-13
3.15534e-11
7.43866e-13
3.21886e-11
5.67226e-13
1.71149e-11
7.87466e-14
3.02984e-11
1.03579e-13
3.0624e-11
9.08985e-14
3.08824e-11
1.53126e-14
3.12151e-11
-6.99738e-15
3.15642e-11
-1.4382e-14
5.30966e-12
-1.27842e-13
1.61833e-11
-1.00729e-13
2.42421e-11
-1.48583e-13
2.46926e-11
-4.65854e-14
2.49395e-11
-1.7182e-14
2.51345e-11
-3.63191e-14
2.54975e-11
-2.44321e-13
2.5856e-11
-2.9949e-13
2.59969e-11
-1.86584e-13
4.88084e-12
-2.10626e-13
7.48218e-13
-4.71049e-14
1.21186e-11
-6.36492e-14
1.22929e-11
-4.13871e-14
1.23624e-11
-1.79699e-13
1.25498e-11
-2.29058e-13
1.26793e-11
-1.02272e-13
1.27587e-11
-3.62303e-14
1.2815e-11
-3.23778e-14
6.895e-13
-1.26385e-13
3.32934e-13
-7.84038e-14
2.41113e-12
-7.85167e-14
5.95734e-12
-7.42516e-14
5.57688e-12
-5.92732e-14
5.59631e-12
-2.43285e-14
5.59393e-12
-1.55104e-14
5.60023e-12
-3.29777e-14
5.60653e-12
-3.57776e-14
5.61728e-12
-3.29213e-14
5.63059e-12
-2.53233e-14
5.64822e-12
-1.67196e-14
5.65657e-12
-6.46738e-15
5.3518e-12
1.69707e-15
3.97705e-13
2.91879e-15
1.35771e-13
6.04253e-16
2.40406e-13
5.88464e-16
2.40618e-13
5.57142e-16
2.81463e-12
1.85447e-15
4.78325e-12
-5.55476e-15
2.78832e-12
-2.79191e-14
8.11642e-13
-3.25585e-14
2.01716e-12
-3.86844e-14
4.80773e-12
-5.11073e-14
4.94584e-12
-6.88465e-14
5.00892e-12
-4.34786e-14
5.01173e-12