/*--------------------------------*- C++ -*----------------------------------*\
| =========                 |                                                 |
| \\      /  F ield         | OpenFOAM: The Open Source CFD Toolbox           |
|  \\    /   O peration     | Version:  2406                                  |
|   \\  /    A nd           | Website:  www.openfoam.com                      |
|    \\/     M anipulation  |                                                 |
\*---------------------------------------------------------------------------*/
FoamFile
{
    version     2.0;
    format      ascii;
    arch        "LSB;label=32;scalar=64";
    class       surfaceScalarField;
    location    "0.25";
    object      alphaPhi0.air;
}
// * * * * * * * * * * * * * * * * * * * * * * * * * * * * * * * * * * * * * //

dimensions      [0 3 -1 0 0 0 0];

oriented        oriented;

internalField   nonuniform List<scalar> 
12225
(
0.310378
2.355e-06
0.31037
7.6912e-06
0.310361
9.10218e-06
0.310355
5.9941e-06
0.31035
5.2198e-06
0.310346
4.3334e-06
0.310341
4.77747e-06
0.310336
4.55368e-06
0.310331
4.86561e-06
0.310327
4.76223e-06
0.310322
4.26624e-06
0.310318
4.26237e-06
0.310313
5.33388e-06
0.310306
6.91391e-06
0.310298
7.99444e-06
0.31029
7.80002e-06
0.310283
6.8953e-06
0.310277
6.4632e-06
0.31027
6.70111e-06
0.310264
6.57965e-06
0.310258
5.68702e-06
0.310253
4.73691e-06
0.310249
3.71357e-06
0.310246
2.98633e-06
0.310243
2.98484e-06
0.31024
3.69141e-06
0.310236
4.1405e-06
0.310231
4.41931e-06
0.310226
4.87856e-06
0.310221
4.9919e-06
0.310217
4.23993e-06
0.310214
2.86913e-06
0.310213
1.56437e-06
0.310212
8.81523e-07
0.310211
5.96053e-07
0.310211
5.01821e-07
0.31021
8.34771e-07
0.310209
1.19786e-06
0.310207
1.42018e-06
0.310206
1.38598e-06
0.310205
9.99105e-07
0.310204
3.8961e-07
0.310205
-1.81502e-07
0.310205
-4.26568e-07
0.310205
-2.55917e-07
0.310205
4.10666e-07
0.310204
1.19154e-06
0.310202
1.24831e-06
0.310202
6.1629e-07
0.310202
-2.66061e-07
0.310203
-1.02735e-06
0.310205
-1.5152e-06
0.310206
-1.65493e-06
0.310207
-1.20994e-06
0.310208
-3.03363e-07
0.310207
5.14539e-07
0.310207
3.73822e-07
0.310207
-1.39428e-07
0.310208
-7.72077e-07
0.310209
-1.29892e-06
0.310211
-1.8798e-06
0.310213
-2.13322e-06
0.310215
-1.66482e-06
0.310215
-6.72986e-07
0.310215
1.40892e-07
0.310215
1.16944e-07
0.310216
-4.45256e-07
0.310216
-8.44203e-07
0.310217
-9.5334e-07
0.310218
-1.04493e-06
0.31022
-1.25912e-06
0.310221
-1.56175e-06
0.310223
-1.78117e-06
0.310225
-1.83637e-06
0.310227
-1.75951e-06
0.310228
-1.63038e-06
0.31023
-1.5369e-06
0.310231
-1.48629e-06
0.310233
-1.40149e-06
0.310234
-1.19311e-06
0.310235
-8.14436e-07
0.310235
-3.65337e-07
0.310235
-2.86987e-08
0.310235
6.38446e-08
0.310235
-5.43781e-08
0.310235
-2.31018e-07
0.310236
-2.67341e-07
0.310236
-1.14766e-07
0.310236
5.16315e-08
0.310236
6.16542e-08
0.310236
-1.25238e-07
0.310236
-4.04514e-07
0.310237
-5.42353e-07
0.310237
-4.62791e-07
0.310237
-2.97281e-07
0.310238
-2.06012e-07
0.310238
-2.44122e-07
0.310238
-3.50682e-07
0.310239
-3.76646e-07
0.310239
-2.58546e-07
0.310239
-8.26394e-08
0.310239
3.53384e-08
0.310239
2.32074e-08
0.310239
-5.69926e-08
0.310239
-1.06634e-07
0.310239
-9.10972e-08
0.310239
-6.12204e-08
0.310239
-8.87764e-08
0.31024
-1.88316e-07
0.31024
-2.97346e-07
0.31024
-3.45442e-07
0.31024
-3.12422e-07
0.310241
-2.56104e-07
0.310241
-2.6252e-07
0.310241
-3.54953e-07
0.310242
-4.6551e-07
0.310242
-4.80981e-07
0.310243
-3.61139e-07
0.310243
-1.77898e-07
0.310243
-4.00507e-08
0.310243
-2.08103e-08
0.310243
-1.17023e-07
0.310243
-2.18733e-07
0.310243
-2.29836e-07
0.310244
-1.19727e-07
0.310244
4.66754e-08
0.310243
1.85614e-07
0.310243
2.26187e-07
0.310243
2.26473e-07
0.310243
2.6989e-07
0.310242
3.81402e-07
0.310242
5.04641e-07
0.310241
5.57461e-07
0.310241
5.2472e-07
0.31024
4.66456e-07
0.31024
4.70905e-07
0.310239
5.75242e-07
0.310238
7.26856e-07
0.310238
8.28467e-07
0.310237
8.15564e-07
0.310236
7.03444e-07
0.310236
5.67923e-07
0.310235
4.93982e-07
0.310235
5.0828e-07
0.310234
6.07396e-07
0.310233
7.45599e-07
0.310232
8.62636e-07
0.310231
8.95423e-07
0.310231
7.92184e-07
0.31023
5.78826e-07
0.31023
3.17292e-07
0.31023
9.40579e-08
0.31023
-2.62693e-08
0.31023
5.52408e-08
0.310229
3.04913e-07
0.310229
5.6571e-07
0.310228
6.82119e-07
0.310227
5.80072e-07
0.310227
3.23923e-07
0.310227
7.34866e-08
0.310227
-6.0468e-08
0.310227
-5.3397e-08
0.310227
3.95095e-08
0.310227
1.53267e-07
0.310227
2.86836e-07
0.310226
3.95503e-07
0.310226
4.13173e-07
0.310226
3.26629e-07
0.310225
1.93928e-07
0.310225
5.56728e-09
0.310226
-1.6124e-07
0.310226
-2.38058e-07
0.310226
-2.20816e-07
0.310226
-9.8314e-08
0.310226
5.9026e-08
0.310226
1.0535e-07
0.310226
1.45673e-08
0.310226
-1.18031e-07
0.310226
-2.1655e-07
0.310226
-2.58856e-07
0.310227
-2.83386e-07
0.310227
-3.12334e-07
0.310227
-3.21694e-07
0.310228
-2.93054e-07
0.310228
-2.13536e-07
0.310228
-1.01894e-07
0.310228
-6.0892e-08
0.310228
-1.35399e-07
0.310228
-2.87206e-07
0.310229
-4.51226e-07
0.310229
-5.73786e-07
0.31023
-6.34544e-07
0.310231
-6.57848e-07
0.310231
-6.84175e-07
0.310232
-7.19067e-07
0.310233
-7.34558e-07
0.310234
-7.0815e-07
0.310234
-6.59364e-07
0.310235
-6.2305e-07
0.310236
-6.06646e-07
0.310236
-6.00475e-07
0.310237
-5.91008e-07
0.310237
-5.70716e-07
0.310238
-5.38747e-07
0.310238
-4.94185e-07
0.310239
-4.20731e-07
0.310239
-2.79813e-07
0.310239
-6.26418e-08
0.310239
2.03308e-07
0.310239
3.79361e-07
0.310238
4.54221e-07
0.310238
4.47299e-07
0.310237
3.98856e-07
0.310237
3.40538e-07
0.310237
2.96203e-07
0.310236
2.80417e-07
0.310236
2.97119e-07
0.310236
3.43425e-07
0.310235
4.09804e-07
0.310235
4.71568e-07
0.310234
4.97019e-07
0.310234
4.66505e-07
0.310233
3.86972e-07
0.310233
2.78704e-07
0.310233
1.68905e-07
0.310233
7.70065e-08
0.310233
1.39287e-08
0.310233
-4.5016e-08
0.310233
-8.53876e-08
0.310233
-7.84214e-08
0.310233
-1.37005e-08
0.310233
1.14932e-07
0.310233
2.52547e-07
0.310232
3.58469e-07
0.310232
4.07834e-07
0.310232
3.98612e-07
0.310231
3.38549e-07
0.310231
2.39984e-07
0.310231
1.25601e-07
0.310231
-4.06562e-09
0.310231
-1.71585e-07
0.310231
-3.82242e-07
0.310232
-6.07866e-07
0.310233
-8.19006e-07
0.310234
-1.00058e-06
0.310235
-1.13045e-06
0.310236
-1.15968e-06
0.310237
-1.09628e-06
0.310238
-8.80146e-07
-8.58031e-07
0.310385
-4.18856e-07
0.310393
-2.85947e-07
0.310401
1.00287e-06
0.310405
1.80283e-06
0.310408
2.15519e-06
0.310411
1.79203e-06
0.310413
2.97778e-06
0.310414
3.36376e-06
0.310416
2.83749e-06
0.310418
2.76706e-06
0.310419
3.349e-06
0.31042
3.01951e-06
0.310423
2.23573e-06
0.310428
1.86005e-06
0.310435
1.82919e-06
0.31044
2.159e-06
0.310444
2.60231e-06
0.310449
2.30243e-06
0.310454
1.7328e-06
0.310458
2.10668e-06
0.310461
2.77563e-06
0.310463
3.14641e-06
0.310463
3.18082e-06
0.310463
3.05472e-06
0.310463
2.62332e-06
0.310465
2.29073e-06
0.310467
1.93971e-06
0.31047
1.30223e-06
0.310474
8.65661e-07
0.310478
1.14322e-06
0.31048
2.11228e-06
0.31048
3.15889e-06
0.310478
3.56395e-06
0.310475
3.54129e-06
0.310472
3.39928e-06
0.31047
2.89082e-06
0.310469
2.18409e-06
0.310468
1.6973e-06
0.310468
1.65544e-06
0.310467
2.1161e-06
0.310465
2.80903e-06
0.310463
3.20254e-06
0.310459
3.08477e-06
0.310456
2.58982e-06
0.310454
1.87161e-06
0.310453
1.21838e-06
0.310454
9.91205e-07
0.310454
1.23895e-06
0.310453
1.53724e-06
0.310451
1.63861e-06
0.310448
1.57219e-06
0.310445
1.35572e-06
0.310443
9.44087e-07
0.310441
5.12976e-07
0.31044
2.35043e-07
0.31044
3.98314e-07
0.31044
8.60076e-07
0.310439
1.34258e-06
0.310436
1.90287e-06
0.310432
2.54896e-06
0.310427
2.78951e-06
0.310423
2.29017e-06
0.31042
1.38899e-06
0.310418
7.36305e-07
0.310418
7.05347e-07
0.310417
8.97169e-07
0.310416
5.75689e-07
0.310415
-2.62808e-07
0.310416
-1.11437e-06
0.310416
-1.54001e-06
0.310416
-1.50161e-06
0.310416
-1.30614e-06
0.310416
-1.22807e-06
0.310415
-1.24978e-06
0.310414
-1.13901e-06
0.310413
-7.48786e-07
0.310412
-2.48323e-07
0.310411
4.86938e-08
0.310409
1.05071e-08
0.310408
-2.31245e-07
0.310408
-3.66741e-07
0.310408
-3.31577e-07
0.310408
-2.28169e-07
0.310408
-1.73363e-07
0.310408
-1.82406e-07
0.310408
-1.75118e-07
0.310408
-1.44286e-07
0.310408
-1.02833e-07
0.310408
-1.0155e-07
0.310409
-1.40082e-07
0.310409
-1.50192e-07
0.310408
-1.26535e-07
0.310408
-1.06094e-07
0.310408
-1.32112e-07
0.310407
-2.28086e-07
0.310408
-3.47132e-07
0.310408
-4.57874e-07
0.310408
-5.76458e-07
0.310408
-7.14132e-07
0.310409
-8.44088e-07
0.31041
-9.17947e-07
0.310411
-9.04096e-07
0.310412
-8.35128e-07
0.310412
-7.62274e-07
0.310413
-7.02339e-07
0.310413
-6.26167e-07
0.310414
-4.88805e-07
0.310414
-2.76095e-07
0.310414
-4.70159e-08
0.310413
1.15925e-07
0.310413
1.39219e-07
0.310413
5.13805e-08
0.310412
-6.55859e-08
0.310412
-1.08253e-07
0.310412
-5.57692e-08
0.310411
3.88552e-08
0.310411
1.30822e-07
0.31041
1.49358e-07
0.31041
1.00736e-07
0.31041
3.62115e-08
0.31041
-8.18804e-09
0.31041
-7.41549e-09
0.31041
1.11351e-08
0.310409
3.49125e-08
0.310409
2.03552e-08
0.310409
-3.24982e-08
0.31041
-1.02294e-07
0.31041
-1.81362e-07
0.310411
-2.52514e-07
0.310411
-2.78783e-07
0.310412
-2.27475e-07
0.310412
-1.01545e-07
0.310413
1.90919e-08
0.310413
8.84625e-08
0.310414
8.74397e-08
0.310414
6.78112e-08
0.310414
1.17572e-07
0.310415
2.59164e-07
0.310415
4.35096e-07
0.310416
5.53374e-07
0.310416
5.68159e-07
0.310416
5.20336e-07
0.310416
4.97362e-07
0.310416
5.66346e-07
0.310416
7.16549e-07
0.310415
8.78038e-07
0.310415
9.86697e-07
0.310415
1.01949e-06
0.310415
1.01438e-06
0.310415
1.03003e-06
0.310414
1.09838e-06
0.310413
1.21767e-06
0.310411
1.35151e-06
0.31041
1.46027e-06
0.310409
1.52566e-06
0.310408
1.56977e-06
0.310407
1.6052e-06
0.310406
1.61786e-06
0.310404
1.5947e-06
0.310403
1.55984e-06
0.310401
1.57305e-06
0.3104
1.70112e-06
0.310398
1.924e-06
0.310396
2.1083e-06
0.310394
2.15196e-06
0.310392
2.05668e-06
0.310391
1.89119e-06
0.310389
1.73569e-06
0.310388
1.61653e-06
0.310386
1.49383e-06
0.310385
1.35121e-06
0.310383
1.20002e-06
0.310382
1.06123e-06
0.310381
9.64848e-07
0.31038
8.94109e-07
0.31038
7.75023e-07
0.310379
5.53644e-07
0.310379
2.59246e-07
0.310378
-4.64907e-08
0.310378
-3.01482e-07
0.310379
-5.17561e-07
0.310379
-7.34133e-07
0.31038
-9.64469e-07
0.310381
-1.17639e-06
0.310382
-1.31307e-06
0.310383
-1.33018e-06
0.310384
-1.26296e-06
0.310385
-1.21226e-06
0.310386
-1.26413e-06
0.310387
-1.42848e-06
0.310388
-1.65021e-06
0.31039
-1.86406e-06
0.310391
-2.04378e-06
0.310392
-2.19958e-06
0.310394
-2.33629e-06
0.310396
-2.43409e-06
0.310398
-2.46418e-06
0.310399
-2.41521e-06
0.310401
-2.30861e-06
0.310403
-2.1815e-06
0.310404
-2.06208e-06
0.310405
-1.95881e-06
0.310407
-1.8658e-06
0.310408
-1.77471e-06
0.310409
-1.68233e-06
0.31041
-1.5899e-06
0.310412
-1.49918e-06
0.310413
-1.39578e-06
0.310414
-1.25394e-06
0.310416
-1.0954e-06
0.310417
-9.44307e-07
0.310418
-8.18574e-07
0.31042
-7.16787e-07
0.310421
-6.20938e-07
0.310421
-5.10866e-07
0.310422
-3.73347e-07
0.310422
-2.06957e-07
0.310423
-1.80497e-08
0.310423
1.9239e-07
0.310423
4.24412e-07
0.310423
6.68985e-07
0.310423
9.02629e-07
0.310422
1.09852e-06
0.310421
1.24767e-06
0.31042
1.3724e-06
0.310418
1.51138e-06
0.310417
1.68848e-06
0.310415
1.896e-06
0.310412
2.1097e-06
0.31041
2.29649e-06
0.310408
2.42898e-06
0.310405
2.49805e-06
0.310403
2.49066e-06
0.310401
2.3941e-06
0.310399
2.20724e-06
0.310398
1.94994e-06
0.310396
1.65893e-06
0.310395
1.36701e-06
0.310394
1.08266e-06
0.310393
7.88369e-07
0.310393
4.62196e-07
0.310392
9.10972e-08
0.310392
-3.25147e-07
0.310392
-7.69816e-07
0.310392
-1.22649e-06
0.310393
-1.67939e-06
0.310394
-2.10846e-06
0.310395
-2.48908e-06
0.310397
-2.84562e-06
-3.06781e-06
0.310383
-6.25409e-07
0.310382
6.69266e-07
0.310381
1.96021e-06
0.310381
1.23478e-06
0.310381
2.33214e-06
0.310382
1.56747e-06
0.310384
7.05477e-07
0.310386
1.1465e-06
0.310387
1.38202e-06
0.310389
1.65018e-06
0.31039
1.97306e-06
0.310391
2.00131e-06
0.310391
1.77392e-06
0.310392
1.65965e-06
0.310392
1.73714e-06
0.310392
1.98804e-06
0.310392
2.33598e-06
0.310392
2.61117e-06
0.310391
2.42826e-06
0.310391
2.19363e-06
0.310392
1.9077e-06
0.310393
1.95086e-06
0.310394
2.51883e-06
0.310394
2.73071e-06
0.310394
2.46289e-06
0.310394
2.46967e-06
0.310393
2.88448e-06
0.310392
2.90831e-06
0.31039
2.09176e-06
0.31039
1.21007e-06
0.310391
9.81799e-07
0.310394
1.05103e-06
0.310396
1.02848e-06
0.310399
1.0705e-06
0.310401
1.33087e-06
0.310402
1.57939e-06
0.310402
1.66181e-06
0.310403
1.47505e-06
0.310403
1.09835e-06
0.310404
9.04447e-07
0.310406
1.01158e-06
0.310408
1.22535e-06
0.31041
1.59747e-06
0.31041
2.23527e-06
0.310409
2.69067e-06
0.310408
2.45856e-06
0.310407
1.77096e-06
0.310407
1.19749e-06
0.310408
8.90056e-07
0.310409
6.97206e-07
0.31041
6.02656e-07
0.310411
6.57379e-07
0.310411
6.63805e-07
0.310411
2.67588e-07
0.310412
-5.05268e-07
0.310413
-1.18149e-06
0.310416
-1.46167e-06
0.310419
-1.5044e-06
0.310422
-1.38548e-06
0.310425
-8.55027e-07
0.310428
1.24081e-07
0.310429
1.04594e-06
0.310429
1.37263e-06
0.310429
1.25097e-06
0.310428
1.34768e-06
0.310427
1.93152e-06
0.310425
2.55315e-06
0.310422
2.74446e-06
0.310418
2.5315e-06
0.310415
2.24861e-06
0.310411
2.07547e-06
0.310408
1.88612e-06
0.310405
1.4757e-06
0.310403
8.43191e-07
0.310402
1.93831e-07
0.310401
-2.3442e-07
0.310401
-3.74833e-07
0.310402
-3.45081e-07
0.310402
-2.98724e-07
0.310402
-2.96722e-07
0.310402
-2.79088e-07
0.310402
-2.34269e-07
0.310402
-2.09747e-07
0.310402
-2.1427e-07
0.310402
-1.92242e-07
0.310402
-9.40773e-08
0.310402
1.97008e-09
0.310402
8.00999e-09
0.310402
-1.41799e-07
0.310402
-3.33208e-07
0.310402
-3.9507e-07
0.310402
-2.8889e-07
0.310402
-1.45595e-07
0.310402
-1.38853e-07
0.310402
-3.21022e-07
0.310403
-5.69666e-07
0.310403
-7.18035e-07
0.310403
-7.3088e-07
0.310403
-7.16436e-07
0.310403
-7.9143e-07
0.310403
-9.56823e-07
0.310403
-1.1029e-06
0.310403
-1.12494e-06
0.310404
-1.01976e-06
0.310404
-8.74216e-07
0.310404
-7.68447e-07
0.310404
-7.00053e-07
0.310405
-5.99702e-07
0.310405
-4.22738e-07
0.310405
-2.09895e-07
0.310405
-7.78445e-08
0.310406
-1.02214e-07
0.310406
-2.27261e-07
0.310406
-3.15567e-07
0.310406
-2.55945e-07
0.310406
-5.80366e-08
0.310406
1.65275e-07
0.310406
2.64453e-07
0.310406
1.91991e-07
0.310406
2.66756e-08
0.310406
-1.17392e-07
0.310406
-1.31283e-07
0.310406
-4.00713e-08
0.310406
5.27457e-08
0.310406
6.05476e-08
0.310406
-5.01706e-08
0.310406
-2.03883e-07
0.310406
-3.00795e-07
0.310407
-2.99043e-07
0.310406
-2.2631e-07
0.310406
-1.35621e-07
0.310406
-5.95013e-08
0.310406
1.63096e-08
0.310406
9.14464e-08
0.310406
1.75163e-07
0.310406
2.6257e-07
0.310406
3.58917e-07
0.310406
4.74096e-07
0.310405
6.08044e-07
0.310405
7.4016e-07
0.310405
8.40692e-07
0.310405
8.99417e-07
0.310404
9.43593e-07
0.310404
1.02339e-06
0.310403
1.16748e-06
0.310403
1.35487e-06
0.310402
1.52767e-06
0.310402
1.63101e-06
0.310401
1.65722e-06
0.3104
1.65468e-06
0.3104
1.69957e-06
0.310399
1.84213e-06
0.310398
2.06296e-06
0.310398
2.28366e-06
0.310397
2.41784e-06
0.310396
2.44051e-06
0.310395
2.40419e-06
0.310394
2.39328e-06
0.310393
2.45642e-06
0.310392
2.58358e-06
0.310391
2.73899e-06
0.31039
2.89932e-06
0.310389
3.05223e-06
0.310388
3.16373e-06
0.310387
3.16821e-06
0.310386
3.01267e-06
0.310385
2.71811e-06
0.310384
2.39412e-06
0.310384
2.16941e-06
0.310383
2.09458e-06
0.310382
2.11996e-06
0.310381
2.13803e-06
0.31038
2.04413e-06
0.31038
1.79092e-06
0.310379
1.41282e-06
0.310379
9.70079e-07
0.310379
5.02034e-07
0.310379
3.28239e-08
0.31038
-4.30988e-07
0.31038
-8.61289e-07
0.310381
-1.21215e-06
0.310382
-1.44e-06
0.310382
-1.55713e-06
0.310383
-1.61556e-06
0.310383
-1.65435e-06
0.310383
-1.68389e-06
0.310384
-1.70683e-06
0.310384
-1.75358e-06
0.310385
-1.87897e-06
0.310386
-2.12322e-06
0.310386
-2.47837e-06
0.310387
-2.88566e-06
0.310389
-3.2681e-06
0.31039
-3.564e-06
0.310391
-3.74581e-06
0.310393
-3.81967e-06
0.310394
-3.80245e-06
0.310395
-3.70673e-06
0.310397
-3.54837e-06
0.310398
-3.35507e-06
0.310399
-3.16044e-06
0.3104
-2.98904e-06
0.310401
-2.84646e-06
0.310402
-2.72172e-06
0.310403
-2.59778e-06
0.310404
-2.46256e-06
0.310405
-2.31559e-06
0.310405
-2.15845e-06
0.310406
-1.98533e-06
0.310407
-1.79534e-06
0.310407
-1.59453e-06
0.310408
-1.3948e-06
0.310408
-1.2018e-06
0.310409
-1.00542e-06
0.310409
-7.85069e-07
0.310409
-5.20652e-07
0.310409
-2.09437e-07
0.310409
1.34765e-07
0.310409
4.87252e-07
0.310408
8.31557e-07
0.310408
1.1611e-06
0.310407
1.47458e-06
0.310407
1.76793e-06
0.310406
2.03651e-06
0.310405
2.28672e-06
0.310404
2.54113e-06
0.310403
2.82398e-06
0.310402
3.13841e-06
0.3104
3.45524e-06
0.310399
3.72047e-06
0.310397
3.87947e-06
0.310396
3.9001e-06
0.310395
3.77761e-06
0.310394
3.52948e-06
0.310393
3.18617e-06
0.310392
2.78432e-06
0.310391
2.36233e-06
0.31039
1.95154e-06
0.31039
1.56292e-06
0.31039
1.18199e-06
0.310389
7.70823e-07
0.310389
2.8916e-07
0.310389
-2.92833e-07
0.310389
-9.76303e-07
0.31039
-1.73483e-06
0.310391
-2.52175e-06
0.310392
-3.29318e-06
0.310393
-3.99081e-06
0.310395
-4.62216e-06
-5.00441e-06
0.310386
8.4615e-07
0.310385
9.52818e-07
0.310386
1.77861e-06
0.310385
1.792e-06
0.310386
1.42098e-06
0.310386
1.70601e-06
0.310384
2.10496e-06
0.310383
2.47047e-06
0.310382
2.55753e-06
0.310381
2.04858e-06
0.310382
1.59582e-06
0.310382
1.607e-06
0.310382
1.72537e-06
0.310382
1.52448e-06
0.310383
1.17374e-06
0.310384
1.18032e-06
0.310384
1.66422e-06
0.310385
2.26627e-06
0.310385
2.20278e-06
0.310385
2.17101e-06
0.310385
2.39299e-06
0.310384
2.18252e-06
0.310385
2.03514e-06
0.310385
2.14814e-06
0.310386
2.06109e-06
0.310387
1.67015e-06
0.310388
1.60109e-06
0.310389
1.82191e-06
0.310389
1.98854e-06
0.310388
1.94683e-06
0.310387
1.8951e-06
0.310386
2.15162e-06
0.310385
2.29714e-06
0.310384
2.10731e-06
0.310383
2.0565e-06
0.310383
2.24271e-06
0.310382
2.42423e-06
0.310381
2.56883e-06
0.310379
2.62209e-06
0.310378
2.42501e-06
0.310377
1.97535e-06
0.310377
1.42132e-06
0.310377
9.93674e-07
0.310378
9.36141e-07
0.31038
1.22799e-06
0.310381
1.58635e-06
0.310381
1.77867e-06
0.31038
1.90489e-06
0.310379
2.06281e-06
0.310377
2.18446e-06
0.310376
2.24428e-06
0.310374
2.41686e-06
0.310372
2.84672e-06
0.310369
3.37043e-06
0.310365
3.73971e-06
0.310359
3.89214e-06
0.310354
3.91309e-06
0.310349
3.66119e-06
0.310345
2.89279e-06
0.310342
1.73296e-06
0.310342
6.28788e-07
0.310343
-1.09966e-07
0.310345
-5.9879e-07
0.310347
-1.24079e-06
0.31035
-2.0217e-06
0.310355
-2.62117e-06
0.31036
-2.91001e-06
0.310366
-2.95057e-06
0.310372
-2.8661e-06
0.310377
-2.71079e-06
0.310381
-2.49917e-06
0.310385
-2.20497e-06
0.310388
-1.80716e-06
0.310391
-1.37768e-06
0.310392
-1.0411e-06
0.310393
-8.72307e-07
0.310393
-8.37937e-07
0.310394
-8.23003e-07
0.310394
-7.5958e-07
0.310394
-6.63662e-07
0.310395
-5.87448e-07
0.310395
-5.82127e-07
0.310396
-6.55456e-07
0.310396
-7.59122e-07
0.310397
-8.1947e-07
0.310397
-7.98872e-07
0.310398
-7.49484e-07
0.310399
-7.56168e-07
0.3104
-8.60887e-07
0.3104
-1.00389e-06
0.310401
-1.08073e-06
0.310402
-1.04948e-06
0.310403
-9.75837e-07
0.310403
-9.73756e-07
0.310404
-1.09334e-06
0.310405
-1.26274e-06
0.310405
-1.34515e-06
0.310406
-1.26568e-06
0.310406
-1.07595e-06
0.310406
-8.97028e-07
0.310406
-8.08302e-07
0.310406
-7.92117e-07
0.310406
-7.72677e-07
0.310405
-6.96964e-07
0.310405
-5.78998e-07
0.310405
-4.75919e-07
0.310405
-4.30965e-07
0.310404
-4.39768e-07
0.310404
-4.62777e-07
0.310405
-4.67583e-07
0.310405
-4.58919e-07
0.310405
-4.57414e-07
0.310406
-4.55411e-07
0.310406
-4.12194e-07
0.310406
-2.89839e-07
0.310406
-1.05115e-07
0.310406
8.11793e-08
0.310406
1.67361e-07
0.310406
1.24597e-07
0.310406
1.47023e-09
0.310406
-1.06082e-07
0.310406
-1.20006e-07
0.310406
-4.34196e-08
0.310406
4.51475e-08
0.310406
5.67106e-08
0.310406
-4.30577e-08
0.310406
-1.98039e-07
0.310406
-2.90234e-07
0.310406
-2.47942e-07
0.310406
-9.53801e-08
0.310406
6.30255e-08
0.310405
1.49427e-07
0.310405
1.55053e-07
0.310405
1.40872e-07
0.310405
1.83843e-07
0.310405
3.10773e-07
0.310405
4.89504e-07
0.310405
6.6575e-07
0.310405
8.06811e-07
0.310404
9.20102e-07
0.310404
1.03637e-06
0.310404
1.1806e-06
0.310404
1.35534e-06
0.310403
1.54517e-06
0.310403
1.72799e-06
0.310402
1.88536e-06
0.310402
2.01067e-06
0.310401
2.11084e-06
0.3104
2.20314e-06
0.3104
2.30706e-06
0.310399
2.43926e-06
0.310398
2.61026e-06
0.310398
2.81722e-06
0.310397
3.03104e-06
0.310396
3.19593e-06
0.310395
3.26586e-06
0.310394
3.2513e-06
0.310394
3.22722e-06
0.310393
3.28306e-06
0.310392
3.4552e-06
0.310391
3.69933e-06
0.31039
3.92557e-06
0.310389
4.05933e-06
0.310388
4.06777e-06
0.310387
3.94922e-06
0.310386
3.72449e-06
0.310386
3.42877e-06
0.310385
3.1121e-06
0.310384
2.83931e-06
0.310384
2.66551e-06
0.310383
2.60559e-06
0.310383
2.60913e-06
0.310382
2.56012e-06
0.310382
2.33503e-06
0.310381
1.88374e-06
0.310381
1.25392e-06
0.310381
5.5175e-07
0.310381
-1.08442e-07
0.310381
-7.2455e-07
0.310382
-1.24781e-06
0.310382
-1.64457e-06
0.310383
-1.89376e-06
0.310383
-1.99558e-06
0.310383
-1.98824e-06
0.310384
-1.94171e-06
0.310384
-1.93289e-06
0.310384
-2.01298e-06
0.310385
-2.19784e-06
0.310385
-2.48464e-06
0.310386
-2.86977e-06
0.310387
-3.34291e-06
0.310388
-3.86715e-06
0.310389
-4.37055e-06
0.31039
-4.76383e-06
0.310391
-4.98727e-06
0.310393
-5.04345e-06
0.310394
-4.9773e-06
0.310395
-4.83742e-06
0.310396
-4.65622e-06
0.310397
-4.45543e-06
0.310398
-4.25462e-06
0.310399
-4.06877e-06
0.3104
-3.90087e-06
0.310401
-3.73935e-06
0.310402
-3.56547e-06
0.310403
-3.36555e-06
0.310404
-3.14038e-06
0.310405
-2.90121e-06
0.310406
-2.65761e-06
0.310406
-2.41172e-06
0.310407
-2.15911e-06
0.310407
-1.8946e-06
0.310408
-1.61543e-06
0.310408
-1.31714e-06
0.310408
-9.90397e-07
0.310408
-6.21437e-07
0.310408
-1.98724e-07
0.310408
2.71504e-07
0.310408
7.62515e-07
0.310407
1.23753e-06
0.310407
1.67164e-06
0.310406
2.06506e-06
0.310406
2.43781e-06
0.310405
2.81112e-06
0.310404
3.1944e-06
0.310403
3.586e-06
0.310402
3.97932e-06
0.310401
4.36207e-06
0.310399
4.70768e-06
0.310398
4.97037e-06
0.310397
5.09609e-06
0.310396
5.04537e-06
0.310395
4.81244e-06
0.310394
4.42926e-06
0.310393
3.95308e-06
0.310392
3.44575e-06
0.310392
2.95454e-06
0.310391
2.50053e-06
0.310391
2.07288e-06
0.31039
1.63482e-06
0.31039
1.13452e-06
0.31039
5.22949e-07
0.31039
-2.47497e-07
0.31039
-1.18475e-06
0.31039
-2.25462e-06
0.310391
-3.38242e-06
0.310392
-4.48194e-06
0.310394
-5.44574e-06
0.310395
-6.24557e-06
-6.69478e-06
0.310383
1.53645e-07
0.310384
4.83947e-07
0.310385
6.34474e-07
0.310386
6.85885e-07
0.310386
1.09829e-06
0.310387
1.32822e-06
0.310388
8.8683e-07
0.31039
9.50914e-07
0.310391
1.14601e-06
0.310392
1.47922e-06
0.310391
2.37467e-06
0.310389
2.96283e-06
0.310388
2.96163e-06
0.310387
2.95112e-06
0.310385
2.82389e-06
0.310384
2.10205e-06
0.310385
1.09427e-06
0.310386
7.48787e-07
0.310388
7.70539e-07
0.310389
5.55301e-07
0.310391
2.83972e-07
0.310393
3.00765e-07
0.310395
3.85447e-07
0.310396
6.19361e-07
0.310397
1.0679e-06
0.310398
1.06765e-06
0.310399
1.10501e-06
0.310399
1.52989e-06
0.310399
1.91306e-06
0.310399
2.1136e-06
0.310399
2.14087e-06
0.310399
2.14757e-06
0.310399
2.17218e-06
0.310399
2.06843e-06
0.310399
1.75369e-06
0.3104
1.21906e-06
0.310402
6.77599e-07
0.310404
4.31438e-07
0.310406
4.37077e-07
0.310408
4.26406e-07
0.31041
4.59773e-07
0.31041
5.64533e-07
0.310411
4.56312e-07
0.310412
9.71379e-08
0.310413
-2.46591e-07
0.310415
-1.99597e-07
0.310417
-1.2118e-07
0.310419
-9.33101e-08
0.310421
-6.28501e-08
0.310423
-3.17472e-08
0.310426
-1.44031e-07
0.310428
-3.43374e-07
0.310432
-2.21764e-07
0.310435
4.01805e-07
0.310437
1.40051e-06
0.310438
2.30667e-06
0.310439
3.14409e-06
0.310439
4.03264e-06
0.310437
4.68823e-06
0.310434
4.64133e-06
0.310431
3.91697e-06
0.310428
3.05987e-06
0.310425
2.41587e-06
0.310422
1.74221e-06
0.310419
6.95149e-07
0.310417
-5.25195e-07
0.310416
-1.63332e-06
0.310415
-2.221e-06
0.310414
-2.34358e-06
0.310414
-2.2539e-06
0.310414
-2.14055e-06
0.310413
-1.98685e-06
0.310413
-1.64642e-06
0.310413
-1.06204e-06
0.310412
-3.65019e-07
0.310411
2.19061e-07
0.31041
5.56457e-07
0.310408
7.29966e-07
0.310407
8.33029e-07
0.310405
8.72974e-07
0.310404
8.01643e-07
0.310402
6.21002e-07
0.310401
3.91084e-07
0.3104
1.62986e-07
0.3104
-7.06193e-08
0.310399
-3.4459e-07
0.310399
-6.5995e-07
0.310399
-9.44839e-07
0.3104
-1.11478e-06
0.3104
-1.13732e-06
0.3104
-1.0527e-06
0.3104
-9.34326e-07
0.310399
-8.3589e-07
0.310399
-7.76069e-07
0.310399
-7.56447e-07
0.310398
-7.83205e-07
0.310398
-8.56781e-07
0.310398
-9.57521e-07
0.310398
-1.0543e-06
0.310398
-1.12649e-06
0.310398
-1.17787e-06
0.310399
-1.22735e-06
0.310399
-1.28469e-06
0.3104
-1.33305e-06
0.310401
-1.33482e-06
0.310401
-1.26098e-06
0.310402
-1.12351e-06
0.310403
-9.78687e-07
0.310403
-8.89977e-07
0.310403
-8.79289e-07
0.310404
-9.08189e-07
0.310404
-9.03144e-07
0.310405
-8.04443e-07
0.310405
-6.06985e-07
0.310405
-3.65545e-07
0.310405
-1.64551e-07
0.310405
-6.66083e-08
0.310405
-8.56219e-08
0.310406
-1.67482e-07
0.310406
-2.28639e-07
0.310406
-2.13618e-07
0.310406
-1.25172e-07
0.310406
-1.42704e-08
0.310406
5.6263e-08
0.310406
5.48685e-08
0.310406
-1.05598e-08
0.310406
-8.97494e-08
0.310406
-1.14909e-07
0.310405
-4.59852e-08
0.310405
9.72678e-08
0.310405
2.42553e-07
0.310405
3.1972e-07
0.310405
3.09018e-07
0.310405
2.603e-07
0.310405
2.58596e-07
0.310404
3.60972e-07
0.310404
5.5809e-07
0.310404
7.88764e-07
0.310404
9.91162e-07
0.310404
1.14898e-06
0.310404
1.29608e-06
0.310403
1.48022e-06
0.310403
1.72025e-06
0.310403
1.99127e-06
0.310402
2.24317e-06
0.310401
2.43396e-06
0.310401
2.5558e-06
0.3104
2.63979e-06
0.3104
2.73779e-06
0.310399
2.89074e-06
0.310399
3.10454e-06
0.310398
3.35194e-06
0.310397
3.59526e-06
0.310396
3.80517e-06
0.310396
3.96195e-06
0.310395
4.05337e-06
0.310394
4.08371e-06
0.310393
4.08772e-06
0.310392
4.12521e-06
0.310391
4.24576e-06
0.310391
4.44443e-06
0.31039
4.65242e-06
0.310389
4.77846e-06
0.310389
4.75978e-06
0.310388
4.5875e-06
0.310387
4.3052e-06
0.310387
3.98191e-06
0.310386
3.67562e-06
0.310386
3.41663e-06
0.310385
3.2225e-06
0.310385
3.10776e-06
0.310384
3.05532e-06
0.310384
2.98661e-06
0.310383
2.77157e-06
0.310383
2.29118e-06
0.310383
1.55078e-06
0.310382
6.69863e-07
0.310382
-1.81197e-07
0.310383
-8.94495e-07
0.310383
-1.43566e-06
0.310383
-1.82767e-06
0.310383
-2.09625e-06
0.310383
-2.24757e-06
0.310384
-2.28688e-06
0.310384
-2.26165e-06
0.310384
-2.26792e-06
0.310385
-2.39187e-06
0.310385
-2.67294e-06
0.310386
-3.10189e-06
0.310387
-3.64095e-06
0.310388
-4.24439e-06
0.310389
-4.861e-06
0.31039
-5.41762e-06
0.310391
-5.831e-06
0.310392
-6.05451e-06
0.310393
-6.09555e-06
0.310394
-6.00228e-06
0.310395
-5.83549e-06
0.310396
-5.64159e-06
0.310397
-5.4465e-06
0.310398
-5.26036e-06
0.310399
-5.08331e-06
0.3104
-4.90873e-06
0.310401
-4.7249e-06
0.310402
-4.51725e-06
0.310403
-4.27245e-06
0.310404
-3.98555e-06
0.310404
-3.66525e-06
0.310405
-3.33081e-06
0.310406
-3.00027e-06
0.310406
-2.67823e-06
0.310407
-2.35353e-06
0.310407
-2.00708e-06
0.310407
-1.62129e-06
0.310407
-1.18535e-06
0.310408
-6.96795e-07
0.310407
-1.58613e-07
0.310407
4.18279e-07
0.310407
1.01398e-06
0.310407
1.59945e-06
0.310406
2.14661e-06
0.310406
2.64395e-06
0.310405
3.10549e-06
0.310404
3.56219e-06
0.310403
4.04055e-06
0.310402
4.54448e-06
0.310401
5.05186e-06
0.3104
5.52299e-06
0.310399
5.91034e-06
0.310398
6.16505e-06
0.310397
6.24437e-06
0.310396
6.12301e-06
0.310395
5.80369e-06
0.310394
5.3205e-06
0.310393
4.73334e-06
0.310392
4.11663e-06
0.310392
3.54081e-06
0.310391
3.04395e-06
0.310391
2.60378e-06
0.31039
2.13787e-06
0.31039
1.5485e-06
0.310389
7.65198e-07
0.310389
-2.54929e-07
0.31039
-1.4991e-06
0.31039
-2.8982e-06
0.310391
-4.35188e-06
0.310393
-5.74055e-06
0.310394
-6.90994e-06
0.310396
-7.82593e-06
-8.278e-06
0.310382
-3.34685e-07
0.310383
-4.11758e-07
0.310383
7.36313e-07
0.310382
1.53973e-06
0.310382
1.08648e-06
0.310383
8.7138e-07
0.310383
8.29825e-07
0.310382
1.35687e-06
0.310382
1.69364e-06
0.310382
1.32606e-06
0.310384
6.73982e-07
0.310386
5.00134e-07
0.310388
6.02363e-07
0.31039
8.84189e-07
0.310392
1.12288e-06
0.310393
1.33737e-06
0.310392
2.01488e-06
0.31039
2.46997e-06
0.310389
2.45851e-06
0.310387
2.43506e-06
0.310385
2.48863e-06
0.310382
2.48833e-06
0.310381
1.96132e-06
0.31038
1.43969e-06
0.31038
1.4771e-06
0.310379
1.62932e-06
0.310379
1.43912e-06
0.310379
1.01402e-06
0.31038
8.85631e-07
0.310381
9.03368e-07
0.310383
6.12501e-07
0.310385
3.72809e-07
0.310386
5.36778e-07
0.310387
9.09592e-07
0.310388
1.27038e-06
0.310388
1.61275e-06
0.310386
1.84772e-06
0.310385
1.98756e-06
0.310383
2.06538e-06
0.310382
2.01998e-06
0.31038
1.94918e-06
0.310379
1.98187e-06
0.310377
1.96303e-06
0.310376
1.68439e-06
0.310374
1.28931e-06
0.310373
1.03713e-06
0.310372
9.35863e-07
0.310371
9.55429e-07
0.31037
1.13518e-06
0.310368
1.44893e-06
0.310366
1.75858e-06
0.310364
1.89852e-06
0.310362
1.87042e-06
0.31036
1.74226e-06
0.31036
1.48262e-06
0.310362
9.45325e-07
0.310365
3.03882e-07
0.310369
-1.41225e-07
0.310374
-2.48131e-07
0.310379
-3.74085e-07
0.310383
-7.67362e-07
0.310388
-1.24991e-06
0.310392
-1.50035e-06
0.310395
-1.51915e-06
0.310397
-1.60147e-06
0.310399
-1.87032e-06
0.310399
-2.18011e-06
0.310399
-2.31448e-06
0.310399
-2.2887e-06
0.310399
-2.22834e-06
0.310399
-2.18249e-06
0.310399
-2.10673e-06
0.3104
-1.9383e-06
0.3104
-1.65398e-06
0.310401
-1.28592e-06
0.310402
-9.06614e-07
0.310403
-5.77491e-07
0.310404
-3.0651e-07
0.310405
-9.57884e-08
0.310406
4.06335e-08
0.310407
9.45423e-08
0.310407
1.10809e-07
0.310408
1.5084e-07
0.310408
2.08331e-07
0.310407
1.77584e-07
0.310407
-2.16662e-08
0.310407
-4.03611e-07
0.310407
-8.32741e-07
0.310407
-1.16274e-06
0.310407
-1.3278e-06
0.310407
-1.36872e-06
0.310408
-1.36241e-06
0.310408
-1.33884e-06
0.310409
-1.26102e-06
0.310409
-1.087e-06
0.310409
-8.36391e-07
0.310409
-5.87336e-07
0.310408
-4.14277e-07
0.310407
-3.35219e-07
0.310407
-3.18365e-07
0.310406
-3.36011e-07
0.310405
-3.97968e-07
0.310404
-5.33249e-07
0.310404
-7.42672e-07
0.310403
-9.69593e-07
0.310403
-1.1271e-06
0.310403
-1.16318e-06
0.310403
-1.10572e-06
0.310403
-1.04124e-06
0.310404
-1.03912e-06
0.310404
-1.08742e-06
0.310404
-1.10013e-06
0.310404
-9.91634e-07
0.310404
-7.54994e-07
0.310404
-4.7776e-07
0.310405
-2.82636e-07
0.310405
-2.40411e-07
0.310405
-3.2419e-07
0.310405
-4.25721e-07
0.310405
-4.33167e-07
0.310405
-3.0963e-07