/*--------------------------------*- C++ -*----------------------------------*\
| =========                 |                                                 |
| \\      /  F ield         | OpenFOAM: The Open Source CFD Toolbox           |
|  \\    /   O peration     | Version:  2406                                  |
|   \\  /    A nd           | Website:  www.openfoam.com                      |
|    \\/     M anipulation  |                                                 |
\*---------------------------------------------------------------------------*/
FoamFile
{
    version     2.0;
    format      ascii;
    arch        "LSB;label=32;scalar=64";
    class       volScalarField;
    location    "0.25";
    object      alpha.glycerin;
}
// * * * * * * * * * * * * * * * * * * * * * * * * * * * * * * * * * * * * * //

dimensions      [0 0 0 0 0 0 0];

internalField   nonuniform List<scalar> 
6250
(
5.53057e-320
5.53156e-320
5.53255e-320
5.53354e-320
5.53551e-320
5.5365e-320
5.53749e-320
5.53946e-320
5.54144e-320
5.54243e-320
5.54342e-320
5.54539e-320
5.54737e-320
5.54836e-320
5.55033e-320
5.55132e-320
5.5533e-320
5.55527e-320
5.55725e-320
5.55824e-320
5.56021e-320
5.5612e-320
5.56318e-320
-5.56516e-320
5.56713e-320
5.56812e-320
-5.5701e-320
-5.57108e-320
-5.57306e-320
-5.57504e-320
-5.57701e-320
-5.57899e-320
-5.57998e-320
-5.58195e-320
-5.58294e-320
-5.58492e-320
-5.58689e-320
-5.58887e-320
-5.59085e-320
-5.59183e-320
-5.59381e-320
-5.5948e-320
-5.59678e-320
-5.59875e-320
-5.60073e-320
-5.6027e-320
-5.60369e-320
-5.60567e-320
-5.60666e-320
-5.60863e-320
-5.61061e-320
-5.61259e-320
-5.61456e-320
-5.61654e-320
-5.61851e-320
-5.62049e-320
-5.62148e-320
-5.62346e-320
-5.62543e-320
-5.62741e-320
-5.62938e-320
-5.63136e-320
-5.63334e-320
-5.6363e-320
-5.63828e-320
-5.64025e-320
-5.64223e-320
-5.64421e-320
-5.64717e-320
-5.65013e-320
-5.65211e-320
-5.65606e-320
-1.13171e-319
-1.1324e-319
-1.13299e-319
-1.13378e-319
-1.13457e-319
-1.13536e-319
-1.13635e-319
-1.13734e-319
-1.13833e-319
-1.13961e-319
-1.1409e-319
-1.14228e-319
-1.14396e-319
-1.14564e-319
-1.14762e-319
-1.14989e-319
-1.15236e-319
-4.31178e-309
-3.62698e-292
-7.33145e-273
-9.53899e-254
-1.68733e-236
-7.02969e-220
-2.02828e-203
-3.1055e-187
-4.22764e-171
-2.21109e-153
-3.55344e-136
-2.05944e-112
-9.27174e-97
-1.22179e-82
-1.89002e-70
-1.9416e-59
-2.10622e-50
-5.54285e-42
-7.46095e-33
-1.88534e-29
-1.0213e-26
-1.79511e-24
-9.71921e-23
-8.79194e-22
-6.66135e-22
-3.04565e-22
-4.29407e-22
-6.14898e-22
0.216496
0.94824
0.999997
0.999997
0.999997
0.999997
0.999997
0.999997
0.999997
0.999997
0.999997
0.999997
0.999997
0.999997
0.999997
0.999949
0.999927
0.999933
0.999973
0.999975
0.999962
0.999962
0.999925
0.99991
0.999962
0.999981
0.999978
0.999958
0.999963
0.99999
0.99999
0.99999
0.99999
0.99999
0.99999
0.999944
0.999826
0.999699
0.999192
0.997541
0.997493
0.997691
0.998451
0.999195
0.999841
0.999943
0.999945
0.99993
0.999722
0.999352
0.999221
0.998898
0.998597
0.998944
0.999601
0.999991
0.999992
0.999993
0.999993
0.999993
0.999993
0.999979
0.999908
0.999643
0.999478
0.999433
0.999492
0.999703
0.999935
0.999999
1
1
1
1
1
1
0.999999
0.999992
0.999988
0.999994
0.999999
0.999999
0.999999
0.999999
0.999999
0.999998
0.999996
0.999996
1
1
1
1
1
0.999995
0.999922
0.999906
0.999906
0.999906
0.999943
0.999999
0.999957
0.997537
0.99733
0.99733
0.997712
0.997935
0.997435
0.997439
0.997734
0.997877
0.997772
0.996637
0.995848
0.993715
0.996011
0.997124
0.997124
0.997124
0.997124
0.997041
0.99489
0.99497
0.997398
0.999277
0.999351
0.999351
0.999351
0.999352
0.999352
0.999352
0.999352
0.999352
0.999352
5.52761e-320
5.52662e-320
5.52563e-320
5.52464e-320
5.52365e-320
5.52365e-320
5.52267e-320
5.52168e-320
5.52069e-320
5.5197e-320
5.5197e-320
5.51773e-320
5.51773e-320
5.51674e-320
5.51575e-320
5.51476e-320
5.51377e-320
5.51377e-320
5.5118e-320
5.5118e-320
5.51081e-320
5.50982e-320
5.50982e-320
-5.50784e-320
5.50784e-320
5.50686e-320
-5.50587e-320
-5.50587e-320
-5.50389e-320
-5.50389e-320
-5.5029e-320
-5.50192e-320
-5.50192e-320
-5.50093e-320
-5.49994e-320
-5.49994e-320
-5.49895e-320
-5.49796e-320
-5.49796e-320
-5.49599e-320
-5.49599e-320
-5.49599e-320
-5.49401e-320
-5.49401e-320
-5.49401e-320
-5.49203e-320
-5.49203e-320
-5.49203e-320
-5.49006e-320
-5.49006e-320
-5.49006e-320
-5.48808e-320
-5.48808e-320
-5.48808e-320
-5.4861e-320
-5.4861e-320
-5.4861e-320
-5.48512e-320
-5.48413e-320
-5.48413e-320
-5.48314e-320
-5.48215e-320
-5.48215e-320
-5.48116e-320
-5.48018e-320
-5.48018e-320
-5.47919e-320
-5.4782e-320
-5.4782e-320
-5.4782e-320
-5.47622e-320
-5.47622e-320
-5.47622e-320
-5.47425e-320
-1.09485e-319
-1.09465e-319
-1.09465e-319
-5.47227e-320
-5.47128e-320
-5.47029e-320
-5.47029e-320
-5.46832e-320
-5.46832e-320
-5.46733e-320
-5.46634e-320
-5.46535e-320
-5.46437e-320
-5.46437e-320
-5.46239e-320
-2.00557e-310
-1.79722e-293
-3.86345e-274
-5.33494e-255
-9.99185e-238
-4.39597e-221
-1.33555e-204
-2.14642e-188
-3.05681e-172
-1.66648e-154
-2.78102e-137
-1.66683e-113
-7.72742e-98
-1.04422e-83
-1.64914e-71
-1.72131e-60
-1.88716e-51
-4.98951e-43
-6.70115e-34
-1.67669e-30
-8.91754e-28
-1.524e-25
-8.19131e-24
-6.68403e-23
-8.74965e-23
-9.41678e-23
-1.04102e-22
-2.29375e-22
0.030405
0.0469916
0.32926
0.938287
0.999997
0.999997
0.999997
0.999997
0.999997
0.999997
0.999997
0.999997
0.999997
0.999997
0.999997
0.999997
0.999997
0.999997
0.99998
0.99998
0.999821
0.998325
0.99999
0.99999
0.99999
0.99999
0.99999
0.99999
0.99999
0.99999
0.999226
0.993628
0.993566
0.993157
0.998224
0.999944
0.999943
0.999938
0.999935
0.999931
0.999758
0.997956
0.965947
0.930278
0.961393
0.999313
0.999945
0.999944
0.999939
0.999935
0.987895
0.959837
0.955028
0.956129
0.971376
0.975867
0.978744
0.988179
0.993993
0.997587
0.999687
0.999979
0.999952
0.999949
0.994864
0.988476
0.988476
0.988476
0.994327
0.995495
0.993652
0.996492
0.999587
1
1
1
1
0.999995
0.999596
0.998625
0.998992
0.999882
0.999999
0.999999
0.999999
0.999999
0.999911
0.999072
0.998464
0.998488
0.99994
1
0.999998
0.999869
0.999738
0.999755
0.999996
0.999999
0.999999
0.999999
0.999999
0.999999
0.999457
0.998291
0.997548
0.997935
0.968072
0.933365
0.933368
0.944657
0.995761
0.997233
0.962801
0.934186
0.973657
0.996988
0.997124
0.997124
0.995681
0.986012
0.975527
0.743799
0.691206
0.875132
0.997029
0.999243
0.998407
0.996927
0.997718
0.987383
0.882536
0.853978
0.93342
5.52958e-320
5.52958e-320
5.52859e-320
5.52859e-320
5.52761e-320
5.52761e-320
5.52761e-320
5.52761e-320
5.52761e-320
5.52761e-320
5.52761e-320
5.52761e-320
5.52761e-320
5.52662e-320
5.52662e-320
5.52662e-320
5.52662e-320
5.52563e-320
5.52563e-320
5.52563e-320
5.52563e-320
5.52563e-320
5.52563e-320
-5.52563e-320
5.52563e-320
5.52563e-320
-5.52563e-320
-5.52563e-320
-5.52563e-320
-5.52464e-320
-5.52464e-320
-5.52464e-320
-5.52464e-320
-5.52365e-320
-5.52365e-320
-5.52365e-320
-5.52365e-320
-5.52365e-320
-5.52365e-320
-5.52365e-320
-5.52365e-320
-5.52365e-320
-5.52365e-320
-5.52365e-320
-5.52267e-320
-5.52267e-320
-5.52267e-320
-5.52267e-320
-5.52168e-320
-5.52168e-320
-5.52168e-320
-5.52168e-320
-5.52168e-320
-5.52168e-320
-5.52168e-320
-5.52168e-320
-5.52168e-320
-5.52168e-320
-5.52069e-320
-5.52069e-320
-5.52069e-320
-5.52069e-320
-5.5197e-320
-5.5197e-320
-5.5197e-320
-5.5197e-320
-5.5197e-320
-5.5197e-320
-5.5197e-320
-5.5197e-320
-5.5197e-320
-5.5197e-320
-5.5197e-320
-5.5197e-320
-1.10374e-319
-1.10374e-319
-1.10374e-319
-1.10374e-319
-1.10374e-319
-1.10374e-319
-1.10364e-319
-1.10364e-319
-1.10355e-319
-1.10355e-319
-1.10355e-319
-1.10335e-319
-1.10335e-319
-1.10315e-319
-1.10305e-319
-1.20562e-311
-1.154e-294
-2.64412e-275
-3.88209e-256
-7.70898e-239
-3.585e-222
-1.14747e-205
-1.93605e-189
-2.88392e-173
-1.6382e-155
-2.83737e-138
-1.75802e-114
-8.39215e-99
-1.16314e-84
-1.8767e-72
-1.9934e-61
-2.21535e-52
-5.91403e-44
-7.98811e-35
-2.00241e-31
-1.06347e-28
-1.80781e-26
-9.69913e-25
-8.46634e-24
-1.77595e-23
-2.73443e-23
-3.76847e-23
-1.04891e-23
-9.11896e-08
6.22727e-06
0.00207171
0.117511
0.106084
0.124555
0.526024
0.991664
0.999997
0.999997
0.999997
0.999997
0.999997
0.999997
0.999997
0.976031
0.970617
0.990945
0.99998
0.99998
0.99998
0.994642
0.620804
0.27039
0.303211
0.459567
0.682373
0.817305
0.872776
0.891682
0.793108
0.42383
0.24506
0.306159
0.525263
0.712514
0.742913
0.744619
0.719467
0.646782
0.575227
0.552163
0.57346
0.647485
0.779814
0.963361
0.977608
0.886698
0.749642
0.729358
0.791624
0.883649
0.94697
0.971341
0.971368
0.926945
0.532639
0.348459
0.389951
0.466188
0.558546
0.67229
0.798235
0.92019
0.992493
0.995993
0.995992
0.995993
0.995991
0.91934
0.497463
0.421153
0.551983
0.728374
0.833665
0.901898
0.955615
0.983393
0.997009
0.998628
0.923373
0.692284
0.706916
0.834554
0.951205
0.993734
0.999909
0.999841
0.987558
0.933038
0.926724
0.967231
0.998138
0.999869
0.999864
0.970109
0.952656
0.962689
0.977697
0.975922
0.980359
0.998971
0.999783
0.96594
0.91455
0.938842
0.979533
0.979531
0.976932
0.989395
0.997163
0.997229
0.876699
0.835121
0.835124
0.835121
0.947285
0.997124
0.997114
0.997105
0.997102
0.909628
0.384365
0.353114
0.353186
0.760577
0.998405
0.854899
0.474618
0.497099
0.425005
0.132731
0.0952558
5.52859e-320
5.52859e-320
5.52761e-320
5.52761e-320
5.52761e-320
5.52761e-320
5.52761e-320
5.52761e-320
5.52761e-320
5.52761e-320
5.52761e-320
5.52761e-320
5.52761e-320
5.52761e-320
5.52761e-320
5.52662e-320
5.52662e-320
5.52662e-320
5.52662e-320
5.52662e-320
5.52563e-320
5.52563e-320
5.52563e-320
-5.52563e-320
5.52563e-320
5.52563e-320
-5.52563e-320
-5.52563e-320
-5.52563e-320
-5.52563e-320
-5.52563e-320
-5.52563e-320
-5.52563e-320
-5.52563e-320
-5.52563e-320
-5.52563e-320
-5.52563e-320
-5.52563e-320
-5.52464e-320
-5.52464e-320
-5.52464e-320
-5.52464e-320
-5.52464e-320
-5.52464e-320
-5.52365e-320
-5.52365e-320
-5.52365e-320
-5.52365e-320
-5.52365e-320
-5.52365e-320
-5.52365e-320
-5.52365e-320
-5.52365e-320
-5.52365e-320
-5.52365e-320
-5.52365e-320
-5.52365e-320
-5.52365e-320
-5.52365e-320
-5.52365e-320
-5.52365e-320
-5.52365e-320
-5.52267e-320
-5.52267e-320
-5.52267e-320
-5.52267e-320
-5.52267e-320
-5.52267e-320
-5.52267e-320
-5.52267e-320
-5.52267e-320
-5.52168e-320
-5.52168e-320
-5.52168e-320
-1.10453e-319
-1.10443e-319
-1.10443e-319
-1.10443e-319
-1.10443e-319
-1.10443e-319
-1.10443e-319
-1.10443e-319
-1.10443e-319
-1.10443e-319
-1.10434e-319
-1.10434e-319
-1.10434e-319
-1.10434e-319
-1.10434e-319
-7.81062e-313
-7.93356e-296
-1.92413e-276
-2.98228e-257
-6.23454e-240
-3.04364e-223
-1.01978e-206
-1.79606e-190
-2.78507e-174
-1.64254e-156
-2.94625e-139
-1.88603e-115
-9.28145e-100
-1.32341e-85
-2.19244e-73
-2.38666e-62
-2.71364e-53
-7.39978e-45
-1.01958e-35
-2.6056e-32
-1.41185e-29
-2.45713e-27
-1.36371e-25
-1.33204e-24
-3.88278e-24
-7.87832e-24
-1.34676e-23
-3.19672e-24
-4.86701e-08
5.11578e-07
3.50152e-06
1.56142e-05
8.10041e-06
9.59403e-06
0.0284167
0.128268
0.11491
0.16172
0.549297
0.952545
0.948506
0.927795
0.918538
0.714685
0.218733
0.235563
0.697005
0.833058
0.53507
0.144711
0.0123275
3.59173e-07
2.69018e-07
0.0047632
0.0159022
0.0136773
0.0451188
0.0534303
0.0161709
0.000861937
6.53433e-09
1.88782e-09
5.69259e-06
1.75683e-09
1.75711e-09
0.00563923
2.42555e-09
2.40922e-09
2.40969e-09
2.40922e-09
2.40969e-09
2.42309e-09
0.0135895
0.43282
0.51758
0.185081
5.12038e-09
3.54967e-09
3.54078e-09
3.54156e-09
0.217083
0.716008
0.872782
0.816942
0.300653
2.94568e-09
3.08752e-09
3.19424e-09
3.27932e-09
3.27712e-09
3.27932e-09
3.2867e-09
0.00551422
0.512214
0.958009
0.967045
0.983453
0.732109
0.0868657
1.4484e-06
9.1009e-09
2.6846e-09
2.65673e-09
2.65774e-09
0.05112
0.267877
0.514764
0.65102
0.579372
0.257222
4.94e-05
2.64281e-09
0.00477118
0.305783
0.771853
0.901568
0.948366
0.948549
0.807433
0.445907
0.619421
0.937886
0.996684
0.99662
0.820378
0.272749
0.191971
0.443238
0.961461
0.999783
0.999783
0.949222
0.91455
0.921245
0.976749
0.908626
0.345878
0.101597
0.313829
0.914393
0.973927
0.973927
0.973695
0.978945
0.988235
0.996942
0.768388
0.337533
0.334258
0.399098
0.850718
0.895746
0.895749
0.895749
0.801886
0.584085
0.190628
0.0268628
0.0317571
0.0511464
0.0565476
5.52859e-320
5.52859e-320
5.52859e-320
5.52859e-320
5.52761e-320
5.52761e-320
5.52761e-320
5.52761e-320
5.52761e-320
5.52761e-320
5.52761e-320
5.52761e-320
5.52761e-320
5.52761e-320
5.52761e-320
5.52761e-320
5.52761e-320
5.52761e-320
5.52662e-320
5.52662e-320
5.52662e-320
5.52662e-320
5.52662e-320
-5.52563e-320
5.52563e-320
5.52563e-320
-5.52563e-320
-5.52563e-320
-5.52563e-320
-5.52563e-320
-5.52563e-320
-5.52563e-320
-5.52563e-320
-5.52563e-320
-5.52563e-320
-5.52563e-320
-5.52563e-320
-5.52563e-320
-5.52563e-320
-5.52563e-320
-5.52464e-320
-5.52464e-320
-5.52464e-320
-5.52464e-320
-5.52464e-320
-5.52365e-320
-5.52365e-320
-5.52365e-320
-5.52365e-320
-5.52365e-320
-5.52365e-320
-5.52365e-320
-5.52365e-320
-5.52365e-320
-5.52365e-320
-5.52365e-320
-5.52365e-320
-5.52365e-320
-5.52365e-320
-5.52365e-320
-5.52267e-320
-5.52267e-320
-5.52267e-320
-5.52267e-320
-5.52168e-320
-5.52168e-320
-5.52168e-320
-5.52168e-320
-5.52168e-320
-5.52168e-320
-5.52168e-320
-5.52168e-320
-5.52168e-320
-5.52069e-320
-1.10414e-319
-1.10414e-319
-1.10404e-319
-1.10394e-319
-1.10394e-319
-1.10384e-319
-1.10374e-319
-1.10374e-319
-1.10355e-319
-1.10355e-319
-1.10335e-319
-1.10315e-319
-1.10305e-319
-1.10285e-319
-1.10266e-319
-5.32587e-314
-5.70698e-297
-1.45582e-277
-2.36589e-258
-5.16934e-241
-2.62907e-224
-9.14734e-208
-1.6677e-191
-2.6689e-175
-1.61993e-157
-2.9829e-140
-1.95602e-116
-9.844e-101
-1.43375e-86
-2.42469e-74
-2.69449e-63
-3.1295e-54
-8.72878e-46
-1.23261e-36
-3.23841e-33
-1.81193e-30
-3.27866e-28
-1.91458e-26
-2.11162e-25
-7.95139e-25
-2.02294e-24
-4.171e-24
-1.072e-24
1.30441e-08
-7.75421e-09
1.78302e-07
1.0802e-06
8.52227e-07
8.68397e-07
6.29371e-06
5.86481e-06
3.92355e-06
8.12698e-06
0.0229115
0.0900457
0.149922
0.177095
0.17396
0.128339
0.0164419
0.00254458
0.0709806
0.0736054
0.0163392
3.24571e-07
1.29621e-07
1.18199e-07
1.17848e-07
1.20807e-07
1.26988e-07
1.59666e-07
1.27932e-07
1.0424e-07
5.46628e-08
6.53433e-09
1.84138e-09
1.85087e-09
1.75683e-09
1.75679e-09
1.75683e-09
1.75762e-09
3.93038e-09
1.83135e-08
2.3216e-08
2.49423e-08
1.69843e-07
2.58994e-07
7.1127e-09
6.76503e-09
6.67877e-09
6.68048e-09
6.67877e-09
8.32558e-09
5.91464e-09
3.87808e-09
2.61885e-09
2.61829e-09
2.61857e-09
2.61829e-09
2.64624e-09
2.75097e-09
3.00419e-09
6.88898e-09
2.31472e-08
4.01623e-08
4.01483e-08
3.30096e-08
7.14861e-09
7.15965e-09
0.0171877
0.104416
0.1137
0.0535728
0.00226604
3.39722e-08
4.24782e-09
4.2277e-09
4.22912e-09
4.56771e-09
2.67752e-09
2.63168e-09
2.62833e-09
2.61919e-09
2.61005e-09
2.61005e-09
2.61005e-09
2.61771e-09
2.64281e-09
2.85251e-09
3.12719e-09
3.30588e-09
0.00821087
0.545095
0.75543
0.340657
1.55479e-05
5.54717e-09
0.335352
0.925208
0.93146
0.471375
0.172109
0.523532
0.96468
0.999777
0.999783
0.999774
0.999757
0.996582
0.603214
0.121201
0.101498
0.100808
0.203313
0.840991
0.973359
0.842415
0.295298
0.126479
0.189587
0.22145
0.20013
0.200408
0.407533
0.88399
0.895737
0.895745
0.895749
0.746756
0.114283
0.00136739
0.00127188
0.00119963
0.00119963
0.227861
0.32961
-5.52859e-320
-5.52859e-320
-5.52761e-320
-5.52761e-320
-5.52761e-320
-5.52761e-320
-5.52761e-320
-5.52761e-320
-5.52761e-320
-5.52761e-320
-5.52761e-320
-5.52761e-320
-5.52761e-320
-5.52761e-320
-5.52761e-320
-5.52761e-320
-5.52761e-320
-5.52761e-320
5.52662e-320
5.52662e-320
5.52662e-320
5.52662e-320
5.52662e-320
-5.52662e-320
5.52563e-320
5.52563e-320
-5.52563e-320
-5.52563e-320
-5.52563e-320
-5.52563e-320
-5.52563e-320
-5.52563e-320
-5.52563e-320
-5.52563e-320
-5.52563e-320
-5.52563e-320
-5.52563e-320
-5.52563e-320
-5.52563e-320
-5.52563e-320
-5.52464e-320
-5.52464e-320
-5.52464e-320
-5.52464e-320
-5.52464e-320
-5.52464e-320
-5.52365e-320
-5.52365e-320
-5.52365e-320
-5.52365e-320
-5.52365e-320
-5.52365e-320
-5.52365e-320
-5.52365e-320
-5.52365e-320
-5.52365e-320
-5.52365e-320
-5.52365e-320
-5.52365e-320
-5.52267e-320
-5.52267e-320
-5.52267e-320
-5.52168e-320
-5.52168e-320
-5.52168e-320
-5.52168e-320
-5.52168e-320
-5.52168e-320
-5.52168e-320
-5.52069e-320
-5.52069e-320
-5.5197e-320
-5.5197e-320
-5.5197e-320
-1.10384e-319
-1.10374e-319
-1.10374e-319
-1.10355e-319
-1.10345e-319
-1.10335e-319
-1.10315e-319
-1.10295e-319
-1.10285e-319
-1.10256e-319
-1.10236e-319
-1.10216e-319
-1.10177e-319
-1.10157e-319
-1.10117e-319
-3.62881e-315
-4.08682e-298
-1.0923e-278
-1.85391e-259
-4.21673e-242
-2.22518e-225
-8.00697e-209
-1.50495e-192
-2.47541e-176
-1.53984e-158
-2.89835e-141
-1.93829e-117
-9.92977e-102
-1.47006e-87
-2.52472e-75
-2.84839e-64
-3.36005e-55
-9.53035e-47
-1.37148e-37
-3.68517e-34
-2.11972e-31
-3.97455e-29
-2.43645e-27
-3.01348e-26
-1.40146e-25
-4.33907e-25
-1.06381e-24
-2.95941e-25
-3.62539e-10
1.55975e-09
1.44661e-08
5.72282e-08
7.05705e-08
5.70298e-09
2.5325e-07
4.54704e-07
3.98556e-07
6.21217e-07
5.15554e-06
4.84038e-06
5.8776e-06
7.7012e-06
6.33838e-06
3.98286e-06
2.15741e-06
2.54517e-06
2.81245e-06
1.5795e-06
3.24569e-07
1.29621e-07
1.18199e-07
1.17848e-07
1.17848e-07
1.17848e-07
1.23352e-07
1.9003e-07
1.4595e-07
9.80561e-08
9.15289e-08
9.07424e-08
9.07452e-08
9.25649e-08
9.19971e-08
9.14147e-08
1.22627e-07
1.30013e-07
1.18223e-07
8.90564e-08
8.03917e-08
1.49909e-07
3.36096e-07
2.69599e-07
1.26849e-07
1.03516e-07
1.04351e-07
1.94779e-07
2.38592e-07
2.1452e-07
7.39833e-08
1.05607e-08
7.98859e-09
6.27604e-09
2.70253e-09
1.64712e-07
2.61157e-07
2.22909e-07
4.14278e-08
8.15487e-09
1.31617e-08
1.36383e-08
1.36596e-08
3.51932e-08
9.78186e-08
5.70482e-08
4.73173e-09
4.71724e-09
4.71705e-09
4.71724e-09
4.72427e-09
6.39617e-08
1.72131e-08
9.41578e-09
2.35719e-08
8.5374e-08
7.59979e-08
2.98262e-08
1.01548e-08
1.60554e-08
6.89877e-08
7.80512e-08
4.14427e-08
1.24085e-08
9.80288e-08
1.16615e-07
1.16458e-07
4.85806e-08
4.24777e-09
4.23928e-09
4.24084e-09
4.23954e-09
4.24084e-09
4.99792e-09
5.17481e-09
5.27194e-09
6.68707e-09
6.50962e-09
0.166141
0.248782
0.0997464
0.0012161
0.0652071
0.630269
0.927162
0.901231
0.900558
0.899646
0.457864
0.0776215
0.430592
0.771282
0.482434
0.032617
1.23163e-06
1.15964e-06
0.0616971
0.565415
0.622264
0.622268
0.549176
0.335087
0.3657
0.806695
0.873585
0.475862
0.105044
0.0771699
0.0259201
0.00107473
0.00238223
0.00341049
0.0666431
-5.52859e-320
-5.52859e-320
-5.52761e-320
-5.52761e-320
-5.52761e-320
-5.52761e-320
-5.52761e-320
-5.52761e-320
-5.52761e-320
-5.52761e-320
-5.52761e-320
-5.52761e-320
-5.52761e-320
-5.52761e-320
-5.52761e-320
-5.52761e-320
-5.52761e-320
-5.52761e-320
5.52761e-320
5.52761e-320
5.52761e-320
5.52662e-320
5.52662e-320
-5.52662e-320
5.52662e-320
5.52662e-320
-5.52563e-320
-5.52563e-320
-5.52563e-320
-5.52563e-320
-5.52563e-320
-5.52563e-320
-5.52563e-320
-5.52563e-320
-5.52563e-320
-5.52563e-320
-5.52563e-320
-5.52563e-320
-5.52563e-320
-5.52563e-320
-5.52563e-320
-5.52563e-320
-5.52563e-320
-5.52464e-320
-5.52464e-320
-5.52464e-320
-5.52464e-320
-5.52365e-320
-5.52365e-320
-5.52365e-320
-5.52365e-320
-5.52365e-320
-5.52365e-320
-5.52365e-320
-5.52365e-320
-5.52365e-320
-5.52365e-320
-5.52365e-320
-5.52365e-320
-5.52267e-320
-5.52267e-320
-5.52267e-320
-5.52168e-320
-5.52168e-320
-5.52168e-320
-5.52168e-320
-5.52168e-320
-5.52168e-320
-5.52069e-320
-5.5197e-320
-5.5197e-320
-5.5197e-320
-5.5197e-320
-5.51871e-320
-1.10364e-319
-1.10355e-319
-1.10335e-319
-1.10325e-319
-1.10305e-319
-1.10295e-319
-1.10266e-319
-1.10246e-319
-1.10216e-319
-1.10196e-319
-1.10157e-319
-1.10117e-319
-1.10078e-319
-1.10038e-319
-1.09989e-319
-2.35588e-316
-2.78071e-299
-7.76382e-280
-1.37212e-260
-3.2392e-243
-1.7684e-226
-6.56233e-210
-1.26809e-193
-2.13817e-177
-1.35974e-159
-2.61e-142
-1.77615e-118
-9.24274e-103
-1.388e-88
-2.41572e-76
-2.76065e-65
-3.29897e-56
-9.48569e-48
-1.3857e-38
-3.78943e-35
-2.22728e-32
-4.29578e-30
-2.74045e-28
-3.74717e-27
-2.07205e-26
-7.57963e-26
-2.16558e-25
-6.42718e-26
-1.52906e-11
4.36123e-11
6.3645e-10
3.19128e-09
4.45716e-09
2.87917e-09
1.49169e-08
3.41352e-08
3.23773e-08
4.55968e-08
-1.62627e-08
-1.9436e-07
2.31496e-07
4.28302e-07
3.85322e-07
2.77672e-07
5.69368e-07
2.2612e-06
2.75867e-06
2.54464e-06
8.01078e-07
1.44723e-07
9.7196e-07
1.77857e-06
1.79348e-06
1.78586e-06
3.83954e-07
8.26721e-07
1.76354e-06
1.78196e-06
1.78438e-06
1.78304e-06
1.34646e-06
1.48654e-07
1.16085e-06
1.32958e-06
1.33617e-06
1.33856e-06
1.33904e-06
1.33904e-06
1.33904e-06
1.08489e-06
1.23281e-07
3.44905e-07
6.18931e-07
6.23586e-07
6.24005e-07
6.24005e-07
6.24005e-07
6.23816e-07
3.67478e-07
1.84772e-08
1.10186e-08
1.87737e-07
2.65887e-07
2.61187e-07
2.62067e-07
2.62446e-07
2.62584e-07
2.62627e-07
2.62637e-07
2.62636e-07
2.62636e-07
2.625e-07
1.32722e-07
8.03544e-09
3.81936e-09
4.73173e-09
2.22927e-08
1.52968e-07
2.09051e-07
1.21002e-07
1.99462e-08
1.19952e-07
1.99019e-07
2.00893e-07
2.02038e-07
2.02817e-07
2.03256e-07
2.03374e-07
2.03288e-07
2.0329e-07
7.29673e-08
6.66153e-09
6.45271e-08
1.16437e-07
1.16477e-07
3.13375e-08
4.79688e-09
4.29095e-09
1.16708e-08
9.33402e-08
1.06619e-07
1.07338e-07
1.07449e-07
1.07338e-07
7.3445e-08
8.39365e-09
8.31165e-09
-1.37512e-09
1.41527e-06
0.000354076
0.00120155
0.000677236
5.60806e-07
2.7412e-07
3.64829e-07
3.54344e-07
3.43331e-07
3.33399e-07
3.26565e-07
3.23282e-07
3.23282e-07
3.23282e-07
9.79984e-07
1.12838e-06
7.16703e-07
0.0308765
0.528708
0.622293
0.359079
0.298853
0.570203
0.671015
0.604608
0.602317
0.600639
0.49741
0.0943586
0.000195916
0.000117416
0.00206309
0.00353335
-5.52859e-320
-5.52761e-320
-5.52761e-320
-5.52761e-320
-5.52761e-320
-5.52761e-320
-5.52761e-320
-5.52761e-320
-5.52761e-320
-5.52761e-320
-5.52761e-320
-5.52761e-320
-5.52761e-320
-5.52761e-320
-5.52761e-320
-5.52761e-320
-5.52761e-320
-5.52761e-320
-5.52761e-320
5.52761e-320
5.52761e-320
5.52662e-320
5.52662e-320
-5.52662e-320
5.52662e-320
5.52662e-320
-5.52662e-320
-5.52563e-320
-5.52563e-320
-5.52563e-320
-5.52563e-320
-5.52563e-320
-5.52563e-320
-5.52563e-320
-5.52563e-320
-5.52563e-320
-5.52563e-320
-5.52563e-320
-5.52563e-320
-5.52563e-320
-5.52563e-320
-5.52563e-320
-5.52563e-320
-5.52464e-320
-5.52464e-320
-5.52464e-320
-5.52464e-320
-5.52464e-320
-5.52365e-320
-5.52365e-320
-5.52365e-320
-5.52365e-320
-5.52365e-320
-5.52365e-320
-5.52365e-320
-5.52365e-320
-5.52365e-320
-5.52365e-320
-5.52267e-320
-5.52267e-320
-5.52267e-320
-5.52168e-320
-5.52168e-320
-5.52168e-320
-5.52168e-320
-5.52168e-320
-5.52168e-320
-5.52069e-320
-5.5197e-320
-5.5197e-320
-5.5197e-320
-5.51871e-320
-5.51773e-320
-5.51773e-320
-1.10335e-319
-1.10325e-319
-1.10315e-319
-1.10295e-319
-1.10275e-319
-1.10256e-319
-1.10226e-319
-1.10196e-319
-1.10167e-319
-1.10137e-319
-1.10098e-319
-1.10058e-319
-1.09999e-319
-1.09949e-319
-1.0989e-319
-1.40025e-317
-1.71923e-300
-5.00326e-281
-9.18699e-262
-2.24606e-244
-1.26584e-227
-4.83404e-211
-9.58397e-195
-1.65326e-178
-1.07278e-160
-2.09608e-143
-1.44896e-119
-7.64631e-104
-1.16287e-89
-2.04774e-77
-2.36661e-66
-2.86019e-57
-8.32206e-49
-1.23154e-39
-3.4191e-36
-2.04709e-33
-4.04498e-31
-2.67112e-29
-3.99525e-28
-2.55525e-27
-1.07798e-26
-3.51702e-26
-1.1044e-26
-4.98535e-13
1.6896e-12
1.35226e-11
1.12774e-10
1.91661e-10
1.66781e-10
7.61069e-10
8.24691e-10
1.6974e-09
2.44601e-09
1.23276e-08
1.06363e-08
-2.27893e-08
1.26986e-08
2.01167e-08
2.85271e-08
4.3259e-08
1.25999e-07
1.25979e-07
1.45715e-07
1.85933e-07
1.40919e-07
1.46667e-07
2.30608e-07
2.79726e-07
2.1824e-07
1.09854e-07
4.2245e-07
6.04768e-07
3.68709e-07
1.20261e-07
1.09243e-07
3.97164e-07
4.12564e-07
1.4826e-07
1.22952e-08
2.18373e-09
1.80122e-09
4.40512e-07
1.13507e-06
4.99794e-07
7.08014e-08
9.29875e-12
8.47727e-12
1.05655e-10
2.79179e-07
6.23213e-07
2.93148e-07
1.44617e-09
1.73181e-08
2.12918e-07
2.7114e-07
2.74484e-07
2.73969e-07
2.7073e-07
6.82488e-08
1.23149e-10
6.81903e-08
2.62374e-07
2.62554e-07
2.62614e-07
2.62633e-07
2.62484e-07
9.71078e-08
4.38351e-12
4.37269e-12
4.36574e-12
7.06806e-08
1.76871e-07
1.83012e-07
1.89761e-07
1.86957e-07
1.87145e-07
1.87063e-07
1.92194e-07
1.05017e-07
3.29092e-09
1.6435e-10
3.12167e-08
1.96462e-07
2.03231e-07
1.21695e-07
7.79286e-09
4.28097e-12
4.28002e-12
8.74085e-11
3.30434e-08
6.23113e-08
6.339e-08
6.32112e-08
5.85837e-08
1.30059e-08
8.22769e-10
1.85873e-08
1.04519e-07
1.07372e-07
7.41419e-08
1.03642e-08
3.98229e-09
2.69088e-09
3.45807e-08
8.86971e-08
1.66127e-07
9.3196e-07
2.25779e-06
1.25213e-06
6.72497e-06
1.27802e-05
1.30144e-05
1.30585e-05
1.30416e-05
1.30426e-05
3.64077e-06
1.6028e-06
2.95676e-06
2.55068e-06
4.70544e-07
5.29947e-07
0.0127158
0.0787106
0.171291
0.130823
0.0591346
0.0278656
0.00587104
2.13432e-05
1.28154e-05
1.28876e-05
0.000951342
0.000893044
0.000112433
0.000192683
2.44177e-05
-5.52761e-320
-5.52761e-320
-5.52761e-320
-5.52761e-320
-5.52761e-320
-5.52761e-320
-5.52761e-320
-5.52761e-320
-5.52761e-320
-5.52761e-320
-5.52761e-320
-5.52761e-320
-5.52761e-320
-5.52761e-320
-5.52761e-320
-5.52761e-320
-5.52761e-320
-5.52761e-320
-5.52761e-320
5.52761e-320
5.52761e-320
5.52761e-320
5.52761e-320
-5.52662e-320
5.52662e-320
5.52662e-320
-5.52662e-320
-5.52662e-320
-5.52662e-320
-5.52563e-320
-5.52563e-320
-5.52563e-320
-5.52563e-320
-5.52563e-320
-5.52563e-320
-5.52563e-320
-5.52563e-320
-5.52563e-320
-5.52563e-320
-5.52563e-320
-5.52563e-320
-5.52563e-320
-5.52563e-320
-5.52563e-320
-5.52563e-320
-5.52464e-320
-5.52464e-320
-5.52464e-320
-5.52464e-320
-5.52365e-320
-5.52365e-320
-5.52365e-320
-5.52365e-320
-5.52365e-320
-5.52365e-320
-5.52365e-320
-5.52365e-320
-5.52365e-320
-5.52365e-320
-5.52267e-320
-5.52267e-320
-5.52168e-320
-5.52168e-320
-5.52168e-320
-5.52168e-320
-5.52168e-320
-5.52069e-320
-5.5197e-320
-5.5197e-320
-5.5197e-320
-5.5197e-320
-5.51773e-320
-5.51773e-320
-5.51773e-320
-1.10335e-319
-1.10315e-319
-1.10295e-319
-1.10275e-319
-1.10256e-319
-1.10226e-319
-1.10196e-319
-1.10167e-319
-1.10137e-319
-1.10098e-319
-1.10048e-319
-1.09999e-319
-1.09939e-319
-1.0988e-319
-1.09821e-319
-7.68223e-319
-9.19884e-302
-2.78592e-282
-5.30657e-263
-1.34151e-245
-7.79288e-229
-3.05792e-212
-6.21098e-196
-1.09453e-179
-7.23652e-162
-1.43726e-144
-1.00786e-120
-5.38602e-105
-8.28371e-91
-1.47375e-78
-1.71986e-67
-2.09867e-58
-6.16794e-50
-9.22815e-41
-2.59524e-37
-1.57896e-34
-3.1877e-32
-2.17204e-30
-3.5296e-29
-2.56403e-28
-1.22766e-27
-4.51149e-27
-5.38732e-27
-3.07013e-19
1.00592e-13
6.12751e-13
3.17889e-12
6.50578e-12
5.57708e-12
2.1134e-11
5.27347e-11
3.17391e-11
6.74542e-11
2.9972e-10
3.64034e-10
6.91294e-10
-6.81307e-10
-7.18532e-11
1.68233e-10
1.14451e-09
2.899e-10
1.96053e-10
8.37852e-11
-1.66435e-11
5.34681e-10
4.41933e-11
3.57681e-11
3.01162e-11
2.5329e-11
1.01723e-09
2.51687e-09
2.28363e-09
2.55997e-09
2.82525e-09
2.55187e-09
1.41068e-09
2.33382e-10
2.96273e-11
1.75362e-11
1.63709e-11
1.51801e-11
1.38373e-11
1.19562e-11
1.03011e-11
9.29875e-12
8.74016e-12
7.88028e-12
7.42809e-12
7.06129e-12
6.75152e-12
6.45947e-12
6.1653e-12
5.91415e-12
5.77484e-12
5.52627e-12
5.31337e-12
5.08974e-12
4.78169e-12
4.67292e-12
4.59329e-12
4.53369e-12
4.48774e-12
4.45274e-12
4.42728e-12
4.4128e-12
4.39463e-12
4.38351e-12
4.38163e-12
4.36888e-12
4.36109e-12
4.35783e-12
4.35582e-12
4.35388e-12
4.35105e-12
4.34903e-12
4.34856e-12
4.34599e-12
4.32642e-12
4.31902e-12
4.31173e-12
4.30462e-12
4.29798e-12
4.2921e-12
4.28955e-12
4.2835e-12
4.28097e-12
4.28002e-12
4.28002e-12
8.48189e-12
4.36168e-11
2.57643e-10
9.17964e-10
2.01061e-09
2.19641e-09
1.47018e-09
6.06233e-10
8.08883e-10
3.45419e-09
7.04202e-09
7.88693e-09
7.29268e-09
5.70876e-09
4.68063e-10
5.74695e-10
1.98422e-09
3.73164e-09
3.86987e-09
3.92289e-08
9.09136e-08
2.76796e-07
4.24843e-07
8.83686e-07
1.30322e-06
1.34561e-06
2.19644e-06
3.25095e-06
3.14004e-06
2.9144e-06
1.66385e-06
1.30749e-07
2.39601e-07
3.73768e-06
2.47832e-05
0.000446425
0.000131456
1.75738e-05
1.33032e-05
1.55173e-05
8.72026e-05
0.000108477
0.000101677
2.1316e-05
4.82996e-05
5.8964e-05
3.14009e-05
2.04973e-05
-5.52761e-320
-5.52761e-320
-5.52761e-320
-5.52761e-320
-5.52761e-320
-5.52761e-320
-5.52761e-320
-5.52761e-320
-5.52761e-320
-5.52761e-320
-5.52761e-320
-5.52761e-320
-5.52761e-320
-5.52761e-320
-5.52761e-320
-5.52761e-320
-5.52761e-320
-5.52761e-320
-5.52761e-320
5.52761e-320
5.52761e-320
5.52761e-320
5.52761e-320
-5.52761e-320
5.52662e-320
5.52662e-320
-5.52662e-320
-5.52662e-320
-5.52662e-320
-5.52662e-320
-5.52563e-320
-5.52563e-320
-5.52563e-320
-5.52563e-320
-5.52563e-320
-5.52563e-320
-5.52563e-320
-5.52563e-320
-5.52563e-320
-5.52563e-320
-5.52563e-320
-5.52563e-320
-5.52563e-320
-5.52563e-320
-5.52563e-320
-5.52464e-320
-5.52464e-320
-5.52464e-320
-5.52464e-320
-5.52365e-320
-5.52365e-320
-5.52365e-320
-5.52365e-320
-5.52365e-320
-5.52365e-320
-5.52365e-320
-5.52365e-320
-5.52365e-320
-5.52365e-320
-5.52267e-320
-5.52267e-320
-5.52168e-320
-5.52168e-320
-5.52168e-320
-5.52168e-320
-5.52168e-320
-5.52069e-320
-5.5197e-320
-5.5197e-320
-5.5197e-320
-5.51871e-320
-5.51773e-320
-5.51773e-320
-5.51674e-320
-1.10315e-319
-1.10295e-319
-1.10275e-319
-1.10256e-319
-1.10236e-319
-1.10216e-319
-1.10177e-319
-1.10147e-319
-1.10107e-319
-1.10068e-319
-1.10019e-319
-1.09969e-319
-1.0992e-319
-1.09851e-319
-1.09781e-319
-1.09702e-319
-3.99619e-303
-1.25833e-283
-2.48408e-264
-6.48746e-247
-3.88086e-230
-1.56334e-213
-3.25004e-197
-5.84559e-181
-3.93429e-163
-7.93557e-146
-5.63959e-122
-3.04911e-106
-4.73772e-92
-8.50647e-80
-1.00118e-68
-1.23185e-59
-3.65129e-51
-5.51333e-42
-1.56757e-38
-9.67046e-36
-1.99001e-33
-1.39554e-31
-2.4506e-30
-1.99531e-29
-1.07168e-28
-4.39308e-28
-8.61675e-28
-1.31965e-19
2.83154e-15
1.58173e-14
9.39951e-14
2.95938e-13
4.75221e-13
9.03145e-13
1.44535e-12
2.24688e-12
2.0306e-12
2.76029e-12
4.02635e-12
1.04676e-11
1.97123e-11
-1.2791e-11
-1.53487e-11
-1.37123e-11
2.47787e-11
2.53912e-11
1.50154e-11
1.14038e-11
1.05819e-11
1.30143e-11
1.34791e-11
1.37774e-11
1.42785e-11
1.4398e-11
1.42617e-11
1.41793e-11
1.41568e-11
1.4911e-11
1.90852e-11
2.01519e-11
1.97605e-11
1.90974e-11
1.80175e-11
1.69409e-11
1.57413e-11
1.44947e-11
1.34377e-11
1.25969e-11
1.19711e-11
1.16515e-11
1.14944e-11
1.13635e-11
1.11917e-11
1.10625e-11
1.10387e-11
1.1069e-11
1.11293e-11
1.12233e-11
1.13802e-11
1.15878e-11
1.17566e-11
1.18087e-11
1.18052e-11
1.17481e-11
1.15677e-11