/*--------------------------------*- C++ -*----------------------------------*\
| =========                 |                                                 |
| \\      /  F ield         | OpenFOAM: The Open Source CFD Toolbox           |
|  \\    /   O peration     | Version:  2406                                  |
|   \\  /    A nd           | Website:  www.openfoam.com                      |
|    \\/     M anipulation  |                                                 |
\*---------------------------------------------------------------------------*/
FoamFile
{
    version     2.0;
    format      ascii;
    arch        "LSB;label=32;scalar=64";
    class       volScalarField;
    location    "0.25";
    object      p;
}
// * * * * * * * * * * * * * * * * * * * * * * * * * * * * * * * * * * * * * //

dimensions      [1 -1 -2 0 0 0 0];

internalField   nonuniform List<scalar> 
6250
(
3215.95
1981.65
2721.16
3287.38
3272.11
3092.14
3018.89
3032.73
3047.82
3037.9
3018.15
3002.06
2990.27
2979.01
2966.68
2953.78
2940.99
2928.41
2915.89
2903.31
2890.7
2878.09
2865.49
2852.89
2840.3
2827.71
2815.11
2802.52
2789.92
2777.33
2764.74
2752.13
2739.54
2726.94
2714.35
2701.76
2689.16
2676.57
2663.97
2651.38
2638.78
2626.18
2613.58
2600.99
2588.4
2575.8
2563.21
2550.61
2538.01
2525.41
2512.82
2500.22
2487.63
2475.04
2462.44
2449.85
2437.25
2424.65
2412.06
2399.46
2386.87
2374.27
2361.67
2349.08
2336.48
2323.88
2311.29
2298.69
2286.1
2273.5
2260.91
2248.31
2235.71
2223.12
2210.52
2197.93
2185.33
2172.73
2160.14
2147.55
2134.95
2122.35
2109.76
2097.16
2084.57
2071.97
2059.38
2046.78
2034.18
2021.59
2008.99
1996.4
1983.8
1971.21
1958.61
1946.01
1933.42
1920.82
1908.23
1895.63
1883.04
1870.44
1857.85
1845.25
1832.65
1820.06
1807.46
1794.87
1782.28
1769.68
1757.08
1744.48
1731.89
1719.29
1706.7
1694.11
1681.51
1668.91
1656.32
1643.72
1631.12
1618.53
1605.94
1593.34
1580.74
1568.15
1555.55
1542.95
1530.36
1517.76
1505.17
1492.57
1479.98
1467.38
1454.78
1442.19
1429.59
1417
1404.4
1391.81
1379.21
1366.61
1354.02
1341.42
1328.83
1316.23
1303.63
1291.04
1278.44
1265.85
1253.25
1240.66
1228.06
1215.46
1202.87
1190.27
1177.67
1165.08
1152.49
1139.89
1127.3
1114.7
1102.1
1089.5
1076.91
1064.31
1051.72
1039.13
1026.54
1013.94
1001.35
988.75
976.153
963.556
950.96
938.365
925.772
913.181
900.589
887.995
875.399
862.8
850.2
837.601
825.004
812.408
799.812
787.218
774.623
762.029
749.433
736.835
724.235
711.635
699.034
686.434
673.836
661.239
648.644
636.05
623.455
610.861
598.266
585.672
573.076
560.48
547.884
535.287
522.692
510.098
497.505
484.912
472.32
459.727
447.135
434.544
421.953
409.363
396.772
384.18
371.587
358.994
346.399
333.804
321.206
308.605
296.001
283.395
270.788
258.181
245.573
232.965
220.358
207.754
195.152
182.554
169.959
157.366
144.775
132.185
119.597
107.009
94.4218
81.8334
69.244
56.654
44.0637
31.4737
18.8837
6.29504
3215.93
1981.6
2721.13
3287.38
3272.12
3092.14
3018.89
3032.74
3047.82
3037.9
3018.16
3002.07
2990.27
2979
2966.66
2953.77
2940.99
2928.42
2915.89
2903.31
2890.71
2878.1
2865.5
2852.9
2840.31
2827.71
2815.11
2802.51
2789.92
2777.33
2764.74
2752.14
2739.55
2726.95
2714.36
2701.76
2689.16
2676.56
2663.97
2651.38
2638.78
2626.19
2613.59
2600.99
2588.4
2575.8
2563.2
2550.61
2538.02
2525.42
2512.82
2500.23
2487.63
2475.03
2462.43
2449.84
2437.25
2424.66
2412.06
2399.46
2386.87
2374.27
2361.67
2349.08
2336.48
2323.89
2311.29
2298.69
2286.1
2273.5
2260.91
2248.31
2235.71
2223.12
2210.52
2197.93
2185.33
2172.73
2160.14
2147.54
2134.95
2122.35
2109.76
2097.16
2084.57
2071.97
2059.38
2046.78
2034.18
2021.59
2008.99
1996.4
1983.8
1971.21
1958.61
1946.01
1933.42
1920.82
1908.23
1895.63
1883.04
1870.44
1857.85
1845.25
1832.65
1820.06
1807.46
1794.87
1782.28
1769.68
1757.08
1744.48
1731.89
1719.3
1706.7
1694.11
1681.51
1668.91
1656.32
1643.72
1631.12
1618.53
1605.94
1593.34
1580.74
1568.15
1555.55
1542.95
1530.36
1517.76
1505.17
1492.57
1479.98
1467.38
1454.78
1442.19
1429.59
1417
1404.4
1391.81
1379.21
1366.61
1354.02
1341.42
1328.83
1316.23
1303.63
1291.04
1278.44
1265.85
1253.26
1240.66
1228.06
1215.46
1202.86
1190.27
1177.67
1165.08
1152.49
1139.89
1127.3
1114.7
1102.1
1089.5
1076.91
1064.31
1051.72
1039.13
1026.54
1013.95
1001.35
988.749
976.15
963.554
950.959
938.366
925.774
913.181
900.589
887.995
875.399
862.801
850.201
837.6
825.002
812.406
799.812
787.219
774.625
762.03
749.433
736.835
724.235
711.635
699.034
686.433
673.835
661.238
648.643
636.05
623.456
610.862
598.267
585.671
573.075
560.479
547.883
535.287
522.691
510.097
497.503
484.911
472.32
459.728
447.137
434.545
421.953
409.361
396.771
384.18
371.588
358.995
346.4
333.804
321.206
308.606
296.003
283.397
270.789
258.18
245.571
232.964
220.357
207.753
195.151
182.553
169.958
157.366
144.775
132.186
119.598
107.01
94.4219
81.8337
69.2446
56.6547
44.0642
31.4739
18.8832
6.29519
3215.93
1981.62
2721.14
3287.38
3272.12
3092.14
3018.88
3032.72
3047.81
3037.9
3018.16
3002.07
2990.27
2979
2966.67
2953.78
2941
2928.42
2915.89
2903.31
2890.7
2878.09
2865.49
2852.9
2840.3
2827.71
2815.12
2802.52
2789.92
2777.33
2764.73
2752.14
2739.54
2726.94
2714.35
2701.76
2689.16
2676.57
2663.97
2651.37
2638.78
2626.18
2613.59
2600.99
2588.4
2575.8
2563.2
2550.61
2538.01
2525.42
2512.82
2500.23
2487.63
2475.04
2462.44
2449.84
2437.25
2424.65
2412.06
2399.46
2386.87
2374.27
2361.67
2349.08
2336.48
2323.89
2311.29
2298.69
2286.1
2273.5
2260.91
2248.31
2235.72
2223.12
2210.52
2197.93
2185.33
2172.74
2160.14
2147.54
2134.95
2122.35
2109.76
2097.16
2084.57
2071.97
2059.38
2046.78
2034.18
2021.59
2008.99
1996.4
1983.8
1971.21
1958.61
1946.01
1933.42
1920.82
1908.23
1895.63
1883.04
1870.44
1857.85
1845.25
1832.65
1820.06
1807.46
1794.87
1782.28
1769.68
1757.08
1744.48
1731.89
1719.3
1706.7
1694.11
1681.51
1668.91
1656.32
1643.72
1631.13
1618.53
1605.94
1593.34
1580.74
1568.15
1555.55
1542.96
1530.36
1517.76
1505.17
1492.57
1479.98
1467.38
1454.79
1442.19
1429.59
1417
1404.4
1391.81
1379.21
1366.61
1354.02
1341.42
1328.83
1316.23
1303.63
1291.04
1278.44
1265.85
1253.25
1240.66
1228.06
1215.46
1202.86
1190.27
1177.67
1165.08
1152.49
1139.89
1127.3
1114.7
1102.1
1089.5
1076.91
1064.31
1051.72
1039.13
1026.54
1013.94
1001.35
988.748
976.149
963.552
950.958
938.366
925.775
913.183
900.59
887.994
875.397
862.799
850.199
837.6
825.002
812.406
799.812
787.219
774.626
762.031
749.434
736.835
724.234
711.633
699.033
686.433
673.835
661.239
648.644
636.05
623.456
610.863
598.268
585.672
573.076
560.479
547.883
535.287
522.692
510.098
497.505
484.912
472.319
459.728
447.137
434.545
421.953
409.362
396.77
384.179
371.588
358.996
346.401
333.805
321.206
308.605
296.002
283.396
270.789
258.18
245.571
232.963
220.357
207.753
195.152
182.554
169.958
157.365
144.775
132.186
119.598
107.01
94.4219
81.8334
69.2442
56.6543
44.064
31.4736
18.883
6.2951
3215.94
1981.61
2721.13
3287.38
3272.11
3092.14
3018.88
3032.72
3047.82
3037.91
3018.16
3002.07
2990.26
2979
2966.66
2953.77
2940.99
2928.42
2915.89
2903.31
2890.7
2878.09
2865.49
2852.9
2840.31
2827.71
2815.11
2802.52
2789.92
2777.33
2764.73
2752.14
2739.55
2726.95
2714.35
2701.76
2689.16
2676.57
2663.97
2651.38
2638.78
2626.19
2613.59
2600.99
2588.4
2575.8
2563.21
2550.61
2538.01
2525.42
2512.82
2500.22
2487.63
2475.04
2462.44
2449.85
2437.25
2424.65
2412.06
2399.46
2386.87
2374.27
2361.68
2349.08
2336.48
2323.88
2311.29
2298.69
2286.1
2273.5
2260.9
2248.31
2235.71
2223.12
2210.52
2197.93
2185.33
2172.74
2160.14
2147.55
2134.95
2122.35
2109.76
2097.16
2084.57
2071.97
2059.37
2046.78
2034.18
2021.59
2008.99
1996.4
1983.8
1971.21
1958.61
1946.02
1933.42
1920.82
1908.23
1895.63
1883.04
1870.44
1857.85
1845.25
1832.65
1820.06
1807.46
1794.87
1782.27
1769.68
1757.08
1744.48
1731.89
1719.3
1706.7
1694.11
1681.51
1668.91
1656.32
1643.72
1631.13
1618.53
1605.94
1593.34
1580.74
1568.15
1555.55
1542.96
1530.36
1517.77
1505.17
1492.57
1479.98
1467.38
1454.79
1442.19
1429.59
1417
1404.4
1391.81
1379.21
1366.61
1354.02
1341.42
1328.83
1316.23
1303.63
1291.04
1278.44
1265.85
1253.25
1240.66
1228.06
1215.46
1202.86
1190.27
1177.67
1165.08
1152.49
1139.89
1127.3
1114.7
1102.1
1089.5
1076.91
1064.32
1051.72
1039.13
1026.54
1013.94
1001.35
988.747
976.149
963.553
950.958
938.366
925.775
913.184
900.59
887.994
875.396
862.797
850.198
837.599
825.002
812.407
799.813
787.219
774.626
762.031
749.434
736.835
724.234
711.633
699.032
686.433
673.835
661.239
648.645
636.051
623.457
610.863
598.268
585.673
573.076
560.479
547.883
535.287
522.692
510.098
497.505
484.912
472.32
459.728
447.136
434.545
421.953
409.362
396.771
384.179
371.588
358.995
346.402
333.806
321.207
308.606
296.002
283.396
270.789
258.18
245.571
232.963
220.357
207.753
195.152
182.554
169.959
157.366
144.775
132.186
119.598
107.01
94.4224
81.8336
69.2441
56.6541
44.0638
31.4735
18.883
6.29499
3215.93
1981.6
2721.13
3287.38
3272.12
3092.14
3018.88
3032.73
3047.82
3037.91
3018.16
3002.07
2990.27
2979
2966.67
2953.78
2940.99
2928.42
2915.89
2903.31
2890.7
2878.09
2865.49
2852.9
2840.31
2827.71
2815.11
2802.52
2789.93
2777.33
2764.73
2752.14
2739.54
2726.95
2714.35
2701.76
2689.16
2676.57
2663.97
2651.37
2638.78
2626.18
2613.59
2600.99
2588.39
2575.8
2563.21
2550.61
2538.01
2525.42
2512.82
2500.23
2487.63
2475.04
2462.44
2449.84
2437.25
2424.65
2412.06
2399.46
2386.87
2374.27
2361.67
2349.08
2336.48
2323.89
2311.29
2298.7
2286.1
2273.5
2260.91
2248.31
2235.72
2223.12
2210.52
2197.93
2185.33
2172.74
2160.14
2147.55
2134.95
2122.35
2109.76
2097.16
2084.57
2071.97
2059.38
2046.78
2034.18
2021.59
2008.99
1996.4
1983.8
1971.21
1958.61
1946.02
1933.42
1920.82
1908.23
1895.63
1883.04
1870.44
1857.85
1845.25
1832.65
1820.06
1807.46
1794.87
1782.27
1769.68
1757.08
1744.49
1731.89
1719.3
1706.7
1694.1
1681.51
1668.91
1656.32
1643.72
1631.13
1618.53
1605.93
1593.34
1580.74
1568.15
1555.55
1542.96
1530.36
1517.76
1505.17
1492.57
1479.98
1467.38
1454.79
1442.19
1429.59
1417
1404.4
1391.81
1379.21
1366.62
1354.02
1341.42
1328.83
1316.23
1303.63
1291.04
1278.44
1265.85
1253.25
1240.66
1228.06
1215.46
1202.86
1190.27
1177.68
1165.08
1152.49
1139.89
1127.3
1114.7
1102.1
1089.5
1076.91
1064.32
1051.72
1039.13
1026.54
1013.94
1001.34
988.745
976.148
963.553
950.959
938.367
925.775
913.183
900.59
887.993
875.395
862.795
850.196
837.598
825.002
812.407
799.814
787.221
774.627
762.031
749.434
736.835
724.234
711.632
699.032
686.432
673.835
661.24
648.646
636.052
623.458
610.864
598.269
585.673
573.077
560.48
547.884
535.288
522.693
510.099
497.505
484.913
472.321
459.728
447.136
434.544
421.953
409.362
396.771
384.179
371.588
358.995
346.401
333.806
321.207
308.606
296.002
283.396
270.788
258.18
245.571
232.963
220.357
207.753
195.152
182.554
169.959
157.367
144.776
132.187
119.598
107.011
94.4224
81.8335
69.2439
56.6538
44.0635
31.4732
18.8829
6.29493
3215.93
1981.6
2721.13
3287.38
3272.12
3092.14
3018.88
3032.72
3047.82
3037.91
3018.15
3002.06
2990.26
2979
2966.66
2953.78
2940.99
2928.42
2915.89
2903.31
2890.7
2878.09
2865.49
2852.9
2840.3
2827.71
2815.11
2802.52
2789.92
2777.33
2764.73
2752.14
2739.54
2726.95
2714.35
2701.76
2689.16
2676.57
2663.97
2651.38
2638.78
2626.19
2613.59
2600.99
2588.4
2575.8
2563.2
2550.61
2538.01
2525.42
2512.82
2500.23
2487.63
2475.04
2462.44
2449.85
2437.25
2424.65
2412.06
2399.46
2386.87
2374.27
2361.67
2349.07
2336.48
2323.89
2311.29
2298.69
2286.1
2273.5
2260.9
2248.31
2235.71
2223.12
2210.52
2197.93
2185.33
2172.74
2160.14
2147.55
2134.95
2122.35
2109.76
2097.16
2084.57
2071.97
2059.38
2046.78
2034.18
2021.59
2008.99
1996.4
1983.8
1971.21
1958.61
1946.02
1933.42
1920.82
1908.23
1895.63
1883.04
1870.44
1857.85
1845.25
1832.65
1820.06
1807.46
1794.87
1782.27
1769.68
1757.08
1744.49
1731.89
1719.29
1706.7
1694.1
1681.51
1668.91
1656.32
1643.72
1631.13
1618.53
1605.93
1593.34
1580.74
1568.15
1555.55
1542.96
1530.36
1517.76
1505.17
1492.57
1479.98
1467.38
1454.79
1442.19
1429.59
1417
1404.4
1391.81
1379.21
1366.62
1354.02
1341.42
1328.83
1316.23
1303.63
1291.04
1278.44
1265.85
1253.25
1240.66
1228.06
1215.46
1202.87
1190.27
1177.68
1165.08
1152.49
1139.89
1127.29
1114.7
1102.1
1089.5
1076.91
1064.32
1051.73
1039.13
1026.54
1013.94
1001.34
988.744
976.147
963.552
950.959
938.368
925.776
913.184
900.589
887.992
875.393
862.794
850.194
837.597
825.001
812.407
799.814
787.222
774.628
762.032
749.434
736.834
724.233
711.632
699.031
686.433
673.835
661.24
648.646
636.053
623.459
610.865
598.269
585.673
573.077
560.48
547.884
535.288
522.693
510.099
497.506
484.913
472.321
459.729
447.136
434.544
421.952
409.361
396.77
384.179
371.588
358.995
346.401
333.805
321.207
308.606
296.003
283.397
270.789
258.18
245.571
232.964
220.358
207.754
195.153
182.555
169.96
157.367
144.777
132.187
119.599
107.011
94.4224
81.8334
69.2437
56.6535
44.0631
31.473
18.8829
6.29482
3215.93
1981.6
2721.12
3287.38
3272.12
3092.14
3018.88
3032.72
3047.82
3037.9
3018.15
3002.07
2990.27
2979
2966.67
2953.78
2940.99
2928.41
2915.89
2903.31
2890.7
2878.09
2865.5
2852.9
2840.3
2827.71
2815.11
2802.52
2789.92
2777.33
2764.74
2752.14
2739.54
2726.95
2714.35
2701.76
2689.16
2676.57
2663.97
2651.37
2638.78
2626.18
2613.59
2600.99
2588.4
2575.8
2563.21
2550.61
2538.01
2525.42
2512.82
2500.23
2487.63
2475.03
2462.44
2449.84
2437.25
2424.65
2412.06
2399.46
2386.87
2374.27
2361.67
2349.08
2336.48
2323.89
2311.29
2298.69
2286.1
2273.5
2260.91
2248.31
2235.72
2223.12
2210.52
2197.93
2185.33
2172.74
2160.14
2147.55
2134.95
2122.35
2109.76
2097.16
2084.57
2071.97
2059.38
2046.78
2034.18
2021.59
2008.99
1996.4
1983.8
1971.21
1958.61
1946.02
1933.42
1920.82
1908.23
1895.63
1883.04
1870.44
1857.85
1845.25
1832.65
1820.06
1807.46
1794.87
1782.27
1769.68
1757.08
1744.49
1731.89
1719.29
1706.7
1694.1
1681.51
1668.91
1656.32
1643.72
1631.13
1618.53
1605.93
1593.34
1580.74
1568.15
1555.55
1542.96
1530.36
1517.76
1505.17
1492.57
1479.98
1467.38
1454.79
1442.19
1429.59
1417
1404.4
1391.81
1379.21
1366.62
1354.02
1341.42
1328.83
1316.23
1303.63
1291.04
1278.44
1265.85
1253.25
1240.66
1228.06
1215.46
1202.87
1190.27
1177.68
1165.08
1152.49
1139.89
1127.29
1114.7
1102.1
1089.5
1076.91
1064.32
1051.73
1039.13
1026.54
1013.94
1001.34
988.743
976.146
963.552
950.96
938.369
925.777
913.183
900.588
887.99
875.391
862.792
850.193
837.596
825.001
812.407
799.815
787.222
774.628
762.032
749.433
736.833
724.232
711.631
699.031
686.433
673.836
661.241
648.647
636.054
623.46
610.866
598.271
585.674
573.077
560.481
547.884
535.289
522.694
510.1
497.507
484.914
472.321
459.729
447.137
434.545
421.952
409.361
396.77
384.178
371.587
358.995
346.401
333.805
321.207
308.606
296.003
283.397
270.789
258.18
245.572
232.964
220.358
207.754
195.154
182.556
169.96
157.368
144.777
132.188
119.599
107.011
94.4222
81.833
69.2432
56.6531
44.0629
31.4729
18.883
6.29471
3215.93
1981.6
2721.12
3287.37
3272.11
3092.14
3018.88
3032.73
3047.82
3037.91
3018.16
3002.06
2990.26
2979
2966.66
2953.77
2940.99
2928.42
2915.89
2903.31
2890.7
2878.09
2865.5
2852.9
2840.3
2827.71
2815.11
2802.52
2789.92
2777.33
2764.74
2752.14
2739.54
2726.95
2714.35
2701.76
2689.16
2676.57
2663.97
2651.38
2638.78
2626.18
2613.59
2600.99
2588.4
2575.8
2563.21
2550.61
2538.02
2525.42
2512.82
2500.23
2487.63
2475.04
2462.44
2449.84
2437.25
2424.65
2412.06
2399.46
2386.87
2374.27
2361.67
2349.08
2336.48
2323.89
2311.29
2298.69
2286.1
2273.5
2260.91
2248.31
2235.72
2223.12
2210.52
2197.93
2185.33
2172.74
2160.14
2147.55
2134.95
2122.35
2109.76
2097.16
2084.57
2071.97
2059.38
2046.78
2034.18
2021.59
2008.99
1996.4
1983.8
1971.21
1958.61
1946.02
1933.42
1920.82
1908.23
1895.63
1883.04
1870.44
1857.85
1845.25
1832.66
1820.06
1807.46
1794.87
1782.27
1769.68
1757.08
1744.49
1731.89
1719.29
1706.7
1694.1
1681.51
1668.91
1656.32
1643.72
1631.12
1618.53
1605.93
1593.34
1580.74
1568.15
1555.55
1542.96
1530.36
1517.76
1505.17
1492.57
1479.98
1467.38
1454.79
1442.19
1429.59
1417
1404.4
1391.81
1379.21
1366.62
1354.02
1341.42
1328.83
1316.23
1303.64
1291.04
1278.44
1265.85
1253.25
1240.66
1228.06
1215.46
1202.87
1190.27
1177.68
1165.08
1152.49
1139.89
1127.29
1114.7
1102.1
1089.51
1076.91
1064.32
1051.73
1039.13
1026.53
1013.94
1001.34
988.742
976.146
963.552
950.96
938.369
925.777
913.183
900.587
887.988
875.389
862.789
850.191
837.595
825.001
812.408
799.816
787.223
774.628
762.032
749.433
736.833
724.231
711.63
699.031
686.433
673.837
661.242
648.649
636.055
623.462
610.867
598.271
585.675
573.078
560.481
547.885
535.29
522.695
510.101
497.508
484.915
472.322
459.729
447.137
434.544
421.952
409.36
396.769
384.178
371.586
358.994
346.401
333.805
321.207
308.606
296.003
283.397
270.79
258.181
245.572
232.965
220.359
207.755
195.155
182.557
169.962
157.369
144.778
132.189
119.6
107.011
94.4223
81.833
69.2431
56.6529
44.0627
31.4727
18.883
6.29453
3215.93
1981.6
2721.12
3287.38
3272.11
3092.14
3018.88
3032.72
3047.81
3037.9
3018.16
3002.06
2990.26
2979
2966.67
2953.78
2941
2928.42
2915.89
2903.31
2890.7
2878.09
2865.5
2852.9
2840.3
2827.71
2815.11
2802.52
2789.92
2777.33
2764.73
2752.14
2739.54
2726.95
2714.35
2701.76
2689.16
2676.57
2663.97
2651.38
2638.78
2626.19
2613.59
2600.99
2588.4
2575.8
2563.2
2550.61
2538.01
2525.42
2512.82
2500.22
2487.63
2475.04
2462.44
2449.84
2437.25
2424.65
2412.06
2399.46
2386.87
2374.27
2361.67
2349.08
2336.48
2323.89
2311.29
2298.69
2286.1
2273.5
2260.91
2248.31
2235.72
2223.12
2210.52
2197.93
2185.33
2172.74
2160.14
2147.55
2134.95
2122.35
2109.76
2097.16
2084.57
2071.97
2059.38
2046.78
2034.18
2021.59
2008.99
1996.4
1983.8
1971.21
1958.61
1946.02
1933.42
1920.82
1908.23
1895.63
1883.04
1870.44
1857.85
1845.25
1832.65
1820.06
1807.46
1794.87
1782.27
1769.68
1757.08
1744.49
1731.89
1719.29
1706.69
1694.1
1681.51
1668.91
1656.32
1643.72
1631.12
1618.53
1605.93
1593.34
1580.74
1568.15
1555.55
1542.96
1530.36
1517.76
1505.17
1492.57
1479.98
1467.38
1454.79
1442.19
1429.59
1417
1404.4
1391.81
1379.21
1366.62
1354.02
1341.42
1328.83
1316.23
1303.64
1291.04
1278.44
1265.85
1253.25
1240.66
1228.06
1215.46
1202.87
1190.27
1177.68
1165.08
1152.49
1139.89
1127.29
1114.7
1102.1
1089.51
1076.91
1064.32
1051.73
1039.13
1026.53
1013.93
1001.34
988.74
976.146
963.553
950.961
938.37
925.777
913.182
900.585
887.986
875.386
862.787
850.189
837.594
825
812.408
799.816
787.223
774.629
762.032
749.433
736.832
724.231
711.63
699.031
686.433
673.838
661.243
648.65
636.057
623.463
610.868
598.272
585.676
573.079
560.482
547.886
535.291
522.696
510.102
497.509
484.916
472.323
459.73
447.137
434.544
421.952
409.36
396.769
384.177
371.586
358.994
346.4
333.805
321.207
308.606
296.003
283.397
270.79
258.182
245.573
232.966
220.36
207.756
195.155
182.558
169.963
157.37
144.779
132.189
119.6
107.011
94.4222
81.8328
69.2429
56.6527
44.0625
31.4725
18.8829
6.2944
3215.93
1981.6
2721.12
3287.37
3272.11
3092.14
3018.88
3032.72
3047.82
3037.91
3018.16
3002.07
2990.27
2979
2966.67
2953.77
2940.99
2928.42
2915.89
2903.31
2890.7
2878.09
2865.49
2852.9
2840.31
2827.71
2815.11
2802.52
2789.92
2777.33
2764.73
2752.14
2739.54
2726.95
2714.35
2701.76
2689.16
2676.57
2663.97
2651.37
2638.78
2626.18
2613.59
2600.99
2588.4
2575.8
2563.21
2550.61
2538.01
2525.42
2512.82
2500.23
2487.63
2475.04
2462.44
2449.84
2437.25
2424.65
2412.06
2399.46
2386.87
2374.27
2361.67
2349.08
2336.48
2323.88
2311.29
2298.69
2286.1
2273.5
2260.91
2248.31
2235.72
2223.12
2210.52
2197.93
2185.33
2172.74
2160.14
2147.55
2134.95
2122.35
2109.76
2097.16
2084.57
2071.97
2059.38
2046.78
2034.19
2021.59
2008.99
1996.4
1983.8
1971.21
1958.61
1946.02
1933.42
1920.82
1908.23
1895.63
1883.04
1870.44
1857.85
1845.25
1832.65
1820.06
1807.46
1794.87
1782.27
1769.68
1757.08
1744.49
1731.89
1719.29
1706.69
1694.1
1681.51
1668.91
1656.32
1643.72
1631.12
1618.52
1605.93
1593.34
1580.74
1568.15
1555.55
1542.96
1530.36
1517.76
1505.17
1492.57
1479.98
1467.38
1454.79
1442.19
1429.59
1417
1404.4
1391.81
1379.21
1366.62
1354.02
1341.43
1328.83
1316.23
1303.64
1291.04
1278.44
1265.85
1253.25
1240.66
1228.06
1215.46
1202.87
1190.27
1177.68
1165.08
1152.49
1139.89
1127.29
1114.7
1102.1
1089.51
1076.92
1064.32
1051.73
1039.13
1026.53
1013.93
1001.34
988.74
976.146
963.554
950.962
938.37
925.777
913.181
900.583
887.984
875.384
862.785
850.188
837.593
825
812.409
799.817
787.224
774.629
762.032
749.432
736.831
724.23
711.629
699.031
686.434
673.838
661.245
648.652
636.058
623.464
610.869
598.273
585.677
573.08
560.483
547.887
535.292
522.697
510.104
497.51
484.917
472.324
459.73
447.137
434.544
421.951
409.359
396.768
384.177
371.585
358.993
346.4
333.805
321.207
308.606
296.003
283.398
270.79
258.182
245.574
232.966
220.361
207.757
195.157
182.559
169.964
157.371
144.78
132.19
119.6
107.011
94.4223
81.8327
69.2427
56.6525
44.0622
31.4723
18.8828
6.29426
3215.93
1981.6
2721.12
3287.38
3272.11
3092.13
3018.88
3032.72
3047.82
3037.9
3018.15
3002.06
2990.26
2979
2966.67
2953.78
2940.99
2928.42
2915.89
2903.31
2890.7
2878.09
2865.49
2852.9
2840.31
2827.71
2815.11
2802.52
2789.92
2777.33
2764.73
2752.14
2739.54
2726.95
2714.35
2701.76
2689.16
2676.57
2663.97
2651.38
2638.78
2626.18
2613.59
2600.99
2588.39
2575.8
2563.21
2550.61
2538.01
2525.42
2512.82
2500.23
2487.63
2475.04
2462.44
2449.84
2437.25
2424.65
2412.06
2399.46
2386.87
2374.27
2361.67
2349.08
2336.48
2323.89
2311.29
2298.7
2286.1
2273.5
2260.91
2248.31
2235.72
2223.12
2210.52
2197.93
2185.33
2172.74
2160.14
2147.55
2134.95
2122.35
2109.76
2097.16
2084.57
2071.97
2059.38
2046.78
2034.19
2021.59
2008.99
1996.39
1983.8
1971.21
1958.61
1946.02
1933.42
1920.82
1908.22
1895.63
1883.04
1870.44
1857.85
1845.25
1832.65
1820.05
1807.46
1794.87
1782.27
1769.68
1757.08
1744.49
1731.89
1719.29
1706.69
1694.1
1681.51
1668.91
1656.32
1643.72
1631.12
1618.52
1605.93
1593.34
1580.74
1568.15
1555.55
1542.96
1530.36
1517.76
1505.17
1492.57
1479.98
1467.38
1454.79
1442.19
1429.59
1417
1404.4
1391.81
1379.21
1366.62
1354.02
1341.43
1328.83
1316.23
1303.64
1291.04
1278.44
1265.85
1253.25
1240.66
1228.06
1215.47
1202.87
1190.28
1177.68
1165.08
1152.49
1139.89
1127.29
1114.7
1102.1
1089.51
1076.92
1064.32
1051.73
1039.13
1026.53
1013.93
1001.33
988.739
976.146
963.554
950.963
938.371
925.777
913.18
900.581
887.981
875.381
862.782
850.186
837.592
825
812.409
799.818
787.225
774.629
762.031
749.431
736.83
724.229
711.629
699.031
686.434
673.839
661.246
648.653
636.06
623.466
610.871
598.274
585.678
573.081
560.484
547.888
535.293
522.699
510.105
497.511
484.918
472.324
459.73
447.137
434.544
421.951
409.358
396.767
384.176
371.585
358.993
346.4
333.804
321.207
308.606
296.003
283.398
270.791
258.183
245.575
232.967
220.362
207.758
195.158
182.56
169.965
157.372
144.781
132.191
119.601
107.012
94.4224
81.8326
69.2425
56.6522
44.0619
31.472
18.8826
6.29412
3215.92
1981.59
2721.12
3287.38
3272.11
3092.14
3018.88
3032.72
3047.82
3037.91
3018.16
3002.07
2990.27
2979
2966.67
2953.77
2940.99
2928.42
2915.89
2903.31
2890.7
2878.09
2865.49
2852.9
2840.31
2827.71
2815.11
2802.52
2789.92
2777.33
2764.73
2752.14
2739.54
2726.95
2714.35
2701.76
2689.16
2676.57
2663.97
2651.37
2638.78
2626.19
2613.59
2600.99
2588.39
2575.8
2563.21
2550.61
2538.01
2525.42
2512.82
2500.23
2487.63
2475.04
2462.44
2449.84
2437.25
2424.65
2412.06
2399.46
2386.87
2374.27
2361.67
2349.08
2336.48
2323.89
2311.29
2298.7
2286.1
2273.5
2260.91
2248.31
2235.72
2223.12
2210.53
2197.93
2185.33
2172.74
2160.14
2147.55
2134.95
2122.36
2109.76
2097.16
2084.57
2071.97
2059.38
2046.78
2034.19
2021.59
2008.99
1996.39
1983.8
1971.21
1958.61
1946.02
1933.42
1920.82
1908.22
1895.63
1883.04
1870.45
1857.85
1845.25
1832.65
1820.05
1807.46
1794.87
1782.27
1769.68
1757.08
1744.48
1731.89
1719.29
1706.69
1694.1
1681.51
1668.91
1656.32
1643.72
1631.12
1618.53
1605.93
1593.34
1580.74
1568.15
1555.55
1542.95
1530.36
1517.76
1505.17
1492.57
1479.98
1467.38
1454.79
1442.19
1429.59
1417
1404.4
1391.81
1379.21
1366.62
1354.02
1341.43
1328.83
1316.23
1303.64
1291.04
1278.44
1265.85
1253.25
1240.66
1228.06
1215.47
1202.87
1190.28
1177.68
1165.08
1152.49
1139.89
1127.29
1114.7
1102.1
1089.51
1076.92
1064.32
1051.73
1039.13
1026.53
1013.93
1001.33
988.739
976.146
963.555
950.964
938.371
925.776
913.179
900.579
887.978
875.378
862.78
850.185
837.592
825
812.41
799.818
787.225
774.629
762.031
749.43
736.829
724.228
711.628
699.031
686.435
673.841
661.247
648.655
636.061
623.467
610.872
598.275
585.679
573.082
560.485
547.889
535.294
522.7
510.106
497.513
484.919
472.325
459.731
447.137
434.543
421.95
409.358
396.766
384.175
371.584
358.992
346.399
333.804
321.206
308.606
296.003
283.398
270.791
258.183
245.575
232.968
220.363
207.76
195.159
182.561
169.966
157.373
144.782
132.191
119.602
107.012
94.4224
81.8325
69.2423
56.6519
44.0616
31.4717
18.8825
6.29398
3215.93
1981.6
2721.12
3287.38
3272.11
3092.13
3018.89
3032.72
3047.82
3037.9
3018.15
3002.07
2990.27
2979
2966.67
2953.77
2940.99
2928.42
2915.89
2903.31
2890.7
2878.1
2865.5
2852.9
2840.3
2827.71
2815.11
2802.52
2789.92
2777.33
2764.74
2752.14
2739.54
2726.95
2714.35
2701.76
2689.16
2676.57
2663.97
2651.37
2638.78
2626.18
2613.59
2600.99
2588.4
2575.8
2563.21
2550.61
2538.01
2525.42
2512.82
2500.23
2487.63
2475.04
2462.44
2449.84
2437.25
2424.65
2412.06
2399.46
2386.87
2374.27
2361.67
2349.08
2336.48
2323.89
2311.29
2298.7
2286.1
2273.5
2260.91
2248.31
2235.72
2223.12
2210.53
2197.93
2185.33
2172.73
2160.14
2147.54
2134.95
2122.36
2109.76
2097.16
2084.56
2071.97
2059.38
2046.78
2034.19
2021.59
2008.99
1996.39
1983.8
1971.21
1958.62
1946.02
1933.42
1920.82
1908.22
1895.63
1883.04
1870.45
1857.85
1845.25
1832.65
1820.05
1807.46
1794.87
1782.27
1769.68
1757.08
1744.48
1731.89
1719.29
1706.7
1694.1
1681.51
1668.91
1656.31
1643.72
1631.12
1618.53
1605.93
1593.34
1580.74
1568.15
1555.55
1542.95
1530.36
1517.76
1505.17
1492.57
1479.98
1467.38
1454.79
1442.19
1429.59
1417
1404.4
1391.81
1379.21
1366.62
1354.02
1341.43
1328.83
1316.23
1303.64
1291.04
1278.44
1265.85
1253.25
1240.66
1228.06
1215.47
1202.87
1190.28
1177.68
1165.08
1152.49
1139.89
1127.29
1114.7
1102.11
1089.51
1076.92
1064.32
1051.72
1039.13
1026.53
1013.93
1001.33
988.739
976.147
963.556
950.964
938.371
925.775
913.177
900.577
887.976
875.376
862.778
850.184
837.591
825.001
812.41
799.819
787.225
774.629
762.03
749.43
736.828
724.228
711.628
699.031
686.435
673.842
661.249
648.656
636.063
623.468
610.873
598.276
585.679
573.083
560.486
547.891
535.296
522.702
510.108
497.514
484.92
472.326
459.731
447.137
434.543
421.95
409.357
396.766
384.175
371.583
358.992
346.399
333.804
321.206
308.606
296.003
283.398
270.792
258.184
245.576
232.969
220.364
207.761
195.161
182.563
169.967
157.374
144.783
132.192
119.602
107.012
94.4225
81.8324
69.242
56.6516
44.0613
31.4714
18.8823
6.29382
3215.93
1981.6
2721.12
3287.38
3272.11
3092.14
3018.88
3032.72
3047.82
3037.91
3018.15
3002.06
2990.27
2979
2966.67
2953.77
2940.99
2928.41
2915.89
2903.31
2890.7
2878.09
2865.5
2852.9
2840.3
2827.71
2815.11
2802.52
2789.92
2777.33
2764.74
2752.14
2739.54
2726.95
2714.35
2701.76
2689.16
2676.56
2663.97
2651.38
2638.78
2626.18
2613.59
2600.99
2588.4
2575.8
2563.2
2550.61
2538.02
2525.42
2512.82
2500.23
2487.63
2475.04
2462.44
2449.84
2437.25
2424.65
2412.06
2399.46
2386.87
2374.27
2361.67
2349.08
2336.48
2323.89
2311.29
2298.7
2286.1
2273.5
2260.91
2248.31
2235.72
2223.12
2210.53
2197.93
2185.33
2172.73
2160.14
2147.55
2134.95
2122.36
2109.76
2097.16
2084.56
2071.97
2059.38
2046.79
2034.19
2021.59
2008.99
1996.39
1983.8
1971.21
1958.62
1946.02
1933.42
1920.82
1908.22
1895.63
1883.04
1870.45
1857.85
1845.25
1832.65
1820.05
1807.46
1794.87
1782.27
1769.68
1757.08
1744.48
1731.89
1719.29
1706.7
1694.1
1681.51
1668.91
1656.31
1643.72
1631.12
1618.53
1605.93
1593.34
1580.74
1568.15
1555.55
1542.95
1530.36
1517.76
1505.17
1492.57
1479.98
1467.38
1454.79
1442.19
1429.6
1417
1404.4
1391.81
1379.21
1366.62
1354.02
1341.43
1328.83
1316.23
1303.64
1291.04
1278.45
1265.85
1253.25
1240.66
1228.06
1215.47
1202.87
1190.28
1177.68
1165.08
1152.48
1139.89
1127.29
1114.7
1102.11
1089.51
1076.92
1064.32
1051.72
1039.12
1026.53
1013.93
1001.33
988.739
976.147
963.557
950.965
938.371
925.774
913.175
900.574
887.973
875.374
862.777
850.183
837.591
825.001
812.411
799.819
787.225
774.628
762.029
749.428
736.827
724.227
711.628
699.031
686.436
673.843
661.25
648.657
636.064
623.469
610.874
598.277
585.68
573.084
560.488
547.892
535.297
522.703
510.109
497.515
484.921
472.326
459.732
447.137
434.543
421.949
409.357
396.765
384.174
371.583
358.991
346.398
333.803
321.206
308.606
296.003
283.398
270.792
258.185
245.577
232.97
220.365
207.762
195.162
182.564
169.969
157.375
144.784
132.193
119.603
107.013
94.4226
81.8323
69.2418
56.6512
44.0609
31.4711
18.8821
6.29367
3215.93
1981.6
2721.13
3287.38
3272.11
3092.13
3018.88
3032.72
3047.82
3037.91
3018.16
3002.06
2990.26
2979
2966.67
2953.78
2940.99
2928.41
2915.89
2903.32
2890.7
2878.09
2865.49
2852.9
2840.31
2827.71
2815.11
2802.52
2789.92
2777.33
2764.73
2752.14
2739.54
2726.95
2714.35
2701.76
2689.16
2676.57
2663.97
2651.38
2638.78
2626.19
2613.59
2600.99
2588.4
2575.8
2563.21
2550.61
2538.02
2525.42
2512.82
2500.23
2487.63
2475.04
2462.44
2449.84
2437.25
2424.65
2412.06
2399.46
2386.87
2374.27
2361.67
2349.08
2336.48
2323.89
2311.29
2298.7
2286.1
2273.5
2260.9
2248.31
2235.72
2223.12
2210.53
2197.93
2185.33
2172.73
2160.14
2147.55
2134.95
2122.36
2109.76
2097.16
2084.56
2071.97
2059.38
2046.79
2034.19
2021.59
2008.99
1996.39
1983.8
1971.21
1958.61
1946.02
1933.42
1920.82
1908.22
1895.63
1883.04
1870.44
1857.85
1845.25
1832.65
1820.05
1807.46
1794.87
1782.27
1769.68
1757.08
1744.48
1731.89
1719.29
1706.7
1694.1
1681.51
1668.91
1656.31
1643.72
1631.12
1618.53
1605.93
1593.34
1580.74
1568.14
1555.55
1542.95
1530.36
1517.76
1505.17
1492.57
1479.98
1467.38
1454.79
1442.19
1429.6
1417
1404.4
1391.81
1379.21
1366.62
1354.02
1341.43
1328.83
1316.24
1303.64
1291.04
1278.45
1265.85
1253.25
1240.66
1228.06
1215.47
1202.87
1190.28
1177.68
1165.08
1152.48
1139.89
1127.29
1114.7
1102.11
1089.52
1076.92
1064.32
1051.72
1039.12
1026.52
1013.93
1001.33
988.739
976.148
963.557
950.965
938.37
925.773
913.173
900.572
887.971
875.372
862.776
850.182
837.591
825.001
812.411
799.819
787.225
774.627
762.028
749.427
736.826
724.226
711.628
699.032
686.437