/*--------------------------------*- C++ -*----------------------------------*\
| =========                 |                                                 |
| \\      /  F ield         | OpenFOAM: The Open Source CFD Toolbox           |
|  \\    /   O peration     | Version:  2406                                  |
|   \\  /    A nd           | Website:  www.openfoam.com                      |
|    \\/     M anipulation  |                                                 |
\*---------------------------------------------------------------------------*/
FoamFile
{
    version     2.0;
    format      ascii;
    arch        "LSB;label=32;scalar=64";
    class       volScalarField;
    location    "0.25";
    object      p_rgh;
}
// * * * * * * * * * * * * * * * * * * * * * * * * * * * * * * * * * * * * * //

dimensions      [1 -1 -2 0 0 0 0];

internalField   nonuniform List<scalar> 
6250
(
3174.52
3334.25
4200.22
4349.57
4160.17
4067.04
4087
4119.39
4124.65
4116.21
4110.61
4110.07
4110.63
4110.11
4108.87
4107.67
4106.71
4105.82
4104.89
4103.93
4102.97
4102.02
4101.08
4100.13
4099.19
4098.24
4097.3
4096.36
4095.42
4094.47
4093.53
4092.59
4091.66
4090.72
4089.78
4088.84
4087.9
4086.97
4086.03
4085.1
4084.16
4083.23
4082.3
4081.37
4080.44
4079.51
4078.59
4077.66
4076.74
4075.83
4074.91
4074
4073.09
4072.18
4071.28
4070.38
4069.49
4068.61
4067.73
4066.86
4066.01
4065.16
4064.33
4063.51
4062.7
4061.92
4061.15
4060.41
4059.7
4059.02
4058.36
4057.75
4057.18
4056.66
4056.2
4055.79
4055.45
4055.19
4055.02
4054.95
4054.98
4055.14
4055.43
4055.88
4056.5
4057.31
4058.33
4059.57
4061.07
4062.85
4064.91
4067.3
4070.01
4073.06
4076.46
4080.2
4084.26
4088.61
4093.17
4097.88
4102.62
4107.25
4111.61
4115.5
4118.72
4121.08
4122.4
4122.53
4121.4
4119.11
4115.59
4112.14
4103.77
4108.41
4097.7
4120.15
4092.99
3783.38
3458.19
3250.81
3249.55
3374.08
3369.81
3260.26
3163.12
3096.81
3029.89
2963.08
2914.33
2884.64
2861.98
2835.24
2797.74
2747.16
2686.28
2621.26
2560.17
2509.89
2474.34
2451.72
2434.11
2415.86
2397.85
2382.21
2369.27
2358
2347.43
2337.78
2330.54
2327.05
2328.48
2333.63
2339.88
2345.06
2348.52
2351.41
2354.92
2359.44
2365.42
2373.29
2382.97
2393.05
2399.02
2398.5
2394.2
2392.12
2395.78
2404.2
2416
2429.44
2441.67
2448.56
2446.02
2433.1
2415.19
2398.46
2383.58
2368.74
2354.15
2341.8
2333.54
2339.14
2363.56
2402
2446.19
2485.29
2505.94
2498.51
2470.93
2440.35
2414.7
2395.56
2384.74
2382.31
2385.23
2388.3
2384.55
2367.01
2333.61
2293.59
2259.22
2236.85
2226.68
2226.55
2230.66
2232.9
2227.41
2209.67
2179.11
2142.2
2108.54
2082.28
2059.6
2031.12
1990.87
1945.37
1914.35
1906.34
1916.26
1934.24
1951.61
1963.38
1967.07
1953.09
1905.47
1819.35
1708.68
1602.22
1518.77
1438.46
1343.28
1241.38
1145.27
1057.2
979.9
914.994
864.516
828.981
767.797
660.008
577.587
566.404
604.722
646.185
661.922
624.831
535.95
404.332
238.952
68.2684
3171.14
3329.83
4199.28
4350.31
4160.3
4066.4
4086.34
4119.06
4124.47
4116.02
4110.39
4109.87
4110.46
4109.97
4108.74
4107.56
4106.6
4105.73
4104.81
4103.86
4102.91
4101.96
4101.03
4100.09
4099.15
4098.21
4097.27
4096.33
4095.39
4094.45
4093.51
4092.57
4091.63
4090.69
4089.76
4088.82
4087.88
4086.95
4086.01
4085.08
4084.14
4083.21
4082.28
4081.34
4080.41
4079.48
4078.56
4077.63
4076.7
4075.78
4074.86
4073.94
4073.02
4072.11
4071.2
4070.29
4069.39
4068.49
4067.6
4066.72
4065.84
4064.98
4064.12
4063.27
4062.44
4061.62
4060.82
4060.03
4059.27
4058.52
4057.81
4057.12
4056.47
4055.85
4055.28
4054.75
4054.28
4053.86
4053.52
4053.24
4053.06
4052.97
4052.99
4053.12
4053.39
4053.81
4054.4
4055.17
4056.15
4057.35
4058.8
4060.53
4062.55
4064.89
4067.57
4070.6
4073.97
4077.7
4081.74
4086.06
4090.58
4095.19
4099.76
4104.11
4108.02
4111.23
4113.51
4114.62
4114.37
4112.76
4109.64
4105.79
4100.78
4102.27
4115.99
4145.04
4142.93
4029.39
3964.19
3621.74
3389.19
3750.65
3585.39
3268.2
3182.36
3184.32
3125.62
3030.09
2961.76
2927.57
2904.86
2877.75
2840.89
2795.87
2735.61
2665.57
2601.75
2554.75
2529.24
2511.11
2481.25
2451.6
2431.79
2413.98
2396.23
2378.99
2362.2
2346.11
2331.6
2321.66
2325.44
2335.44
2343.25
2347.37
2347.22
2347.23
2349.63
2351.89
2354.96
2360.05
2372.33
2387.05
2393.63
2388.72
2377.35
2368.25
2367.15
2372.88
2385.96
2405.18
2422.93
2434.4
2434.97
2418.07
2388.52
2362.44
2341.25
2316.97
2288.48
2262.17
2253.81
2276.52
2322.67
2372.93
2427.32
2483.96
2525.72
2515.54
2452.67
2395.83
2354.91
2324.84
2311.66
2315.95
2328.39
2341.89
2349.4
2337.43
2288.3
2210.57
2143.94
2124.94
2144.88
2171
2190.16
2202.71
2203.48
2182.78
2140.7
2096.01
2063.82
2046.97
2032.38
2005.81
1957.29
1904.7
1875.55
1879.87
1901.88
1925.48
1943.11
1945.48
1936.6
1923.24
1897.53
1835.52
1739.33
1652.2
1590.72
1527.71
1440.5
1317.53
1181.89
1059.51
971.022
904.284
849.115
821.269
838.875
799.455
653.126
542.94
536.273
665.552
793.956
774.729
634.256
507.433
334.378
86.7714
3171.87
3331.06
4199.77
4350.33
4160.29
4066.52
4086.54
4119.25
4124.64
4116.17
4110.53
4110.01
4110.59
4110.1
4108.86
4107.66
4106.7
4105.82
4104.9
4103.94
4102.98
4102.03
4101.09
4100.14
4099.2
4098.25
4097.31
4096.37
4095.42
4094.48
4093.54
4092.6
4091.66
4090.72
4089.78
4088.84
4087.9
4086.96
4086.03
4085.09
4084.15
4083.22
4082.28
4081.35
4080.41
4079.48
4078.55
4077.62
4076.69
4075.77
4074.84
4073.92
4073
4072.08
4071.17
4070.26
4069.35
4068.45
4067.55
4066.66
4065.77
4064.89
4064.02
4063.16
4062.31
4061.47
4060.65
4059.84
4059.05
4058.27
4057.52
4056.8
4056.1
4055.43
4054.79
4054.19
4053.63
4053.12
4052.66
4052.26
4051.91
4051.64
4051.44
4051.33
4051.3
4051.37
4051.55
4051.83
4052.24
4052.76
4053.42
4054.2
4055.12
4056.17
4057.34
4058.64
4060.04
4061.55
4063.14
4064.79
4066.49
4068.2
4069.9
4071.54
4073.09
4074.5
4075.75
4076.85
4077.85
4078.98
4080.67
4083.72
4089.44
4099.58
4113.09
4125.37
4126.9
4071.85
3966.15
3790.8
3569.02
3605.11
3245.09
2946.06
3111.61
3329.27
3096.83
2866.3
2857.93
2934.97
2987.84
3009.8
2994.61
2912.89
2781.42
2668.4
2554.17
2449.59
2386.45
2354.44
2333.83
2331.86
2340.17
2346.39
2351.1
2354.67
2344.5
2317.05
2301
2308.03
2312.25
2321.82
2339.22
2348.02
2342.5
2337.5
2343.15
2345.55
2350.21
2356.93
2370.4
2430.37
2440.08
2401.02
2350.28
2352.85
2382.15
2393.41
2398.15
2412.25
2438.56
2462.02
2460.94
2448.91
2441.12
2434.92
2444.44
2437.38
2421.08
2397.01
2341.62
2219.98
2200.48
2289.91
2406.98
2524.04
2597.25
2569.58
2448.88
2389.44
2380.27
2359.92
2347.08
2333.73
2329.49
2345.97
2370.33
2360.92
2331.11
2297.58
2273.27
2195.58
2091.9
2075.29
2103.74
2146.96
2206.37
2235.8
2165.89
2012.21
1947.21
2006.21
2103.47
2171.14
2084.53
1814.15
1673.54
1736.67
1839.86
1903.6
1937.71
1968
1988.35
2037.32
2100.06
2051.35
1767.05
1431.14
1338.34
1361.42
1367.93
1326.57
1246.79
1170.19
1114.19
1045.24
857.72
573.929
430.144
537.745
654.3
724.242
810.157
989.074
1023.32
906.348
565.235
185.049
63.596
3.77457
3171.22
3329.91
4199.02
4349.92
4159.99
4066.23
4086.22
4118.94
4124.36
4115.92
4110.3
4109.79
4110.39
4109.9
4108.68
4107.49
4106.54
4105.67
4104.76
4103.81
4102.86
4101.91
4100.98
4100.04
4099.1
4098.16
4097.22
4096.28
4095.34
4094.4
4093.47
4092.53
4091.59
4090.65
4089.71
4088.78
4087.84
4086.9
4085.97
4085.03
4084.1
4083.16
4082.22
4081.29
4080.36
4079.42
4078.49
4077.56
4076.63
4075.7
4074.77
4073.84
4072.92
4071.99
4071.07
4070.15
4069.23
4068.32
4067.41
4066.5
4065.6
4064.7
4063.81
4062.93
4062.05
4061.18
4060.32
4059.47
4058.64
4057.81
4057
4056.21
4055.44
4054.69
4053.96
4053.25
4052.57
4051.93
4051.32
4050.74
4050.21
4049.72
4049.28
4048.9
4048.56
4048.29
4048.08
4047.94
4047.86
4047.85
4047.9
4048.02
4048.19
4048.41
4048.67
4048.94
4049.2
4049.43
4049.59
4049.63
4049.51
4049.17
4048.56
4047.65
4046.38
4044.75
4042.77
4040.48
4037.97
4035.36
4032.78
4030.22
4027.38
4023.09
4015.02
3997.64
3967.44
3909.77
3866.71
3854.09
3723.11
3446.65
3240.56
3076.63
3188.51
3145.73
2714.02
2382.52
2536.77
2906.88
3092.44
3003.18
2732.62
2581.75
2529.97
2511.11
2366.59
2228.8
2258.14
2286.09
2285.11
2286
2287.16
2289.75
2293.44
2299.39
2304.24
2305.56
2308.46
2312.66
2316.37
2320.15
2324.19
2329.31
2334.51
2338.96
2344.79
2352.48
2362.58
2373.87
2385.92
2397.72
2419.23
2462.43
2437.25
2446.8
2453.19
2459.61
2465.34
2457.04
2483.14
2535.42
2525.35
2487.54
2489.67
2492.29
2494.97
2497.16
2498.59
2499.86
2499.84
2484.68
2410.85
2379.13
2431.33
2521.31
2526.88
2453.25
2416.48
2405.11
2405.09
2409.15
2417.11
2410.89
2411.91
2444.98
2498.18
2519.43
2508.2
2505.75
2508.59
2496.52
2446.58
2422.5
2377.34
2275.17
2308.98
2376.29
2384.51
2273.74
2009.93
1780.7
1896.67
2019.57
1960.43
1824.33
1675.55
1785.51
1975.69
2002.34
2001.63
2054.28
2138.99
2217.05
2164.54
1975.98
1803.77
1577.07
1481.28
1588.67
1682.32
1628.68
1398.27
1054.55
671.215
380.078
226.313
87.5663
25.2059
144.541
460.095
834.018
1094.41
967.211
485.693
183.146
39.7935
-174.866
-248.928
-115.553
3171.17
3329.91
4199.1
4350
4160.05
4066.28
4086.28
4119.01
4124.44
4116.01
4110.39
4109.88
4110.48
4109.99
4108.77
4107.59
4106.63
4105.76
4104.84
4103.89
4102.94
4101.99
4101.05
4100.11
4099.17
4098.23
4097.29
4096.34
4095.4
4094.46
4093.52
4092.58
4091.64
4090.7
4089.76
4088.82
4087.88
4086.94
4086
4085.06
4084.12
4083.18
4082.25
4081.31
4080.37
4079.43
4078.5
4077.56
4076.62
4075.69
4074.75
4073.82
4072.89
4071.95
4071.02
4070.09
4069.16
4068.24
4067.31
4066.39
4065.47
4064.55
4063.64
4062.73
4061.82
4060.92
4060.02
4059.13
4058.25
4057.37
4056.5
4055.64
4054.79
4053.96
4053.13
4052.32
4051.52
4050.73
4049.96
4049.21
4048.48
4047.77
4047.07
4046.4
4045.75
4045.11
4044.49
4043.89
4043.3
4042.71
4042.12
4041.52
4040.9
4040.24
4039.52
4038.73
4037.83
4036.79
4035.57
4034.14
4032.44
4030.41
4027.99
4025.11
4021.69
4017.65
4012.89
4007.3
4000.74
3993.03
3983.88
3972.86
3959.32
3942.21
3920.21
3890.91
3852.22
3799.11
3730.86
3644.35
3523.03
3471.83
3496.31
3460.52
3239.53
2954.59
2742.59
2560.31
2615.25
2612.23
2491.38
2384.62
2286.29
2255.21
2252.27
2250.61
2259.28
2272.78
2280.14
2283.08
2283.07
2282.79
2282.56
2285.28
2288.96
2294.34
2306.74
2316.2
2318.8
2319.76
2321.5
2323.61
2325.73
2328.68
2335.46
2341.18
2344.93
2349.65
2354.91
2360.27
2364.26
2368.15
2387.23
2438.49
2453.58
2456.24
2456.92
2458.74
2460.33
2462.3
2470.64
2477.6
2481.97
2483.77
2484.68
2484.99
2485.14
2484.86
2484.07
2482.73
2480.5
2477.83
2472.35
2445.97
2436.58
2434.47
2422.91
2415.22
2415.71
2416.05
2414.95
2416.01
2415.32
2417.15
2437.05
2462.96
2479.88
2492.04
2502.53
2505.44
2505.23
2503.46
2506.61
2526.37
2538.34
2534.28
2525.09
2628.77
2579.41
2593.33
2617.13
2466.29
2325.85
2148.21
1394.71
1627.03
2097.35
2695.56
2437.63
1961.86
1919.88
1999.42
2030
1976.63
1917.77
1887.76
1888.32
1924.05
1997.48
1999.1
1918.61
1763.09
1477.06
692.596
322.042
252.188
302.713
447.425
639.874
582.702
531.995
700.675
739.755
437.846
215.954
90.1896
48.3386
31.9944
18.9054
28.8846
3170.96
3329.56
4198.85
4349.82
4159.87
4066.09
4086.09
4118.83
4124.27
4115.84
4110.23
4109.72
4110.33
4109.85
4108.63
4107.45
4106.5
4105.63
4104.73
4103.78
4102.83
4101.89
4100.95
4100.01
4099.07
4098.13
4097.19
4096.25
4095.32
4094.38
4093.44
4092.5
4091.56
4090.62
4089.68
4088.74
4087.81
4086.87
4085.93
4084.99
4084.05
4083.11
4082.17
4081.23
4080.3
4079.36
4078.42
4077.48
4076.54
4075.6
4074.66
4073.72
4072.78
4071.84
4070.9
4069.96
4069.02
4068.08
4067.14
4066.2
4065.26
4064.32
4063.38
4062.44
4061.51
4060.57
4059.63
4058.7
4057.76
4056.83
4055.89
4054.96
4054.03
4053.1
4052.17
4051.24
4050.3
4049.37
4048.44
4047.5
4046.56
4045.61
4044.65
4043.68
4042.7
4041.7
4040.67
4039.61
4038.52
4037.37
4036.16
4034.88
4033.5
4032.01
4030.39
4028.6
4026.62
4024.4
4021.9
4019.08
4015.87
4012.22
4008.05
4003.28
3997.8
3991.51
3984.27
3975.91
3966.22
3954.95
3941.74
3926.17
3907.66
3885.49
3858.68
3825.93
3785.51
3735.52
3673.78
3600.96
3520.84
3443.83
3349.71
3216.83
3116.23
3094.77
3131.22
3094.61
2864.06
2486.68
2204.31
2103.49
2132.96
2152.91
2138.85
2161.11
2247.97
2283.86
2286.32
2284.98
2285.06
2285.28
2285.75
2287.61
2291.22
2295.87
2300.1
2304
2307.66
2311.23
2315.23
2319.53
2323.84
2328.34
2334.16
2339.34
2344.57
2351.33
2360.25
2372.11
2385.53
2399.77
2417.3
2433.31
2441.47
2446.46
2451.77
2458.83
2466.21
2471.92
2475.93
2479.56
2482.63
2484.97
2487.64
2491.03
2494.52
2497.14
2498.66
2498.87
2498.32
2497.2
2495.41
2489.67
2466.32
2426.68
2406.8
2403.43
2404.39
2404.54
2405.63
2408.51
2415.5
2429.43
2446.37
2462.14
2475.41
2486.21
2494.71
2501.78
2508.52
2517.13
2527.58
2535.54
2542.88
2550.67
2542.49
2494.64
2483.7
2492.84
2514.29
2525.25
2461.79
2345.62
2251.55
2191.98
2255.85
2077.14
1832.96
1763.42
1749.98
1741.17
1732.63
1792.88
1878.8
1912.6
1946.7
1949.91
2092.35
2086.58
2101.48
2121.72
2130.64
1962.51
936.693
237.396
469.901
700.772
550.711
316.196
248.986
172.179
-99.0771
-89.3835
18.0047
75.2539
62.824
51.9686
45.7125
36.1655
3170.84
3329.4
4198.78
4349.79
4159.84
4066.06
4086.07
4118.82
4124.27
4115.85
4110.25
4109.75
4110.36
4109.89
4108.67
4107.5
4106.55
4105.68
4104.78
4103.83
4102.88
4101.94
4101
4100.07
4099.13
4098.19
4097.25
4096.31
4095.37
4094.43
4093.49
4092.55
4091.61
4090.67
4089.73
4088.78
4087.84
4086.9
4085.96
4085.02
4084.08
4083.14
4082.2
4081.26
4080.31
4079.37
4078.43
4077.48
4076.54
4075.59
4074.65
4073.7
4072.75
4071.8
4070.85
4069.9
4068.94
4067.99
4067.03
4066.08
4065.12
4064.15
4063.19
4062.22
4061.25
4060.28
4059.3
4058.32
4057.33
4056.34
4055.34
4054.34
4053.32
4052.3
4051.27
4050.22
4049.16
4048.08
4046.99
4045.87
4044.73
4043.55
4042.35
4041.1
4039.8
4038.45
4037.04
4035.56
4033.99
4032.32
4030.53
4028.61
4026.54
4024.28
4021.82
4019.12
4016.14
4012.83
4009.16
4005.07
4000.49
3995.36
3989.59
3983.08
3975.74
3967.44
3958.03
3947.34
3935.15
3921.22
3905.24
3886.84
3865.54
3840.78
3811.85
3777.98
3738.28
3692.1
3638.86
3577.78
3507.42
3425.08
3332.57
3235.49
3147
3049.09
2909.04
2707.12
2506.28
2363.83
2282.32
2249.76
2244.05
2241.95
2240.19
2248.17
2266.01
2278.99
2283.69
2283.75
2282.03
2279.56
2277.59
2278.73
2285.3
2295.61
2305.11
2309.08
2309.43
2310.52
2313.43
2317.26
2320.96
2324.63
2329.37
2333.96
2337.99
2343.17
2351.12
2362.69
2377.15
2392.83
2411.04
2431.7
2444.75
2449.61
2452.69
2458.56
2466.52
2472.96
2476.46
2478.59
2480.51
2482.13
2484.13
2487.02
2489.99
2491.69
2491.53
2489.06
2482.18
2470.67
2456.32
2440.81
2426.87
2416.62
2412.18
2413.28
2413.61
2411.01
2408.36
2408.35
2412.57
2423.76
2442.11
2461.66
2477.22
2488.12
2495.47
2500.57
2504.73
2508.63
2515.45
2526.19
2537.72
2549.98
2557.33
2560.73
2570.61
2592.67
2638.9
2699.56
2728.48
2738.15
2779.94
2653.13
2053.56
1719.61
1647.42
1653.16
1615.28
1580.86
1662.1
1773.22
1876.6
1930.37
1944.32
1950.85
1980.67
2021.18
2027.7
2042.08
2068.09
2081.32
1923.48
520.466
-692.756
194.743
1278.81
1651.95
1178.99
515.488
106.89
36.3395
-8.70603
-75.2994
-35.5068
-23.9107
-37.7833
-26.2589
3170.74
3329.24
4198.68
4349.72
4159.76
4065.97
4085.98
4118.73
4124.19
4115.77
4110.16
4109.67
4110.28
4109.81
4108.59
4107.42
4106.47
4105.61
4104.7
4103.76
4102.81
4101.87
4100.93
4100
4099.06
4098.12
4097.18
4096.24
4095.3
4094.36
4093.42
4092.48
4091.54
4090.6
4089.66
4088.72
4087.78
4086.84
4085.9
4084.96
4084.02
4083.07
4082.13
4081.19
4080.24
4079.3
4078.35
4077.4
4076.46
4075.51
4074.55
4073.6
4072.65
4071.69
4070.73
4069.77
4068.8
4067.84
4066.87
4065.89
4064.91
4063.93
4062.94
4061.95
4060.95
4059.94
4058.93
4057.9
4056.87
4055.82
4054.76
4053.69
4052.6
4051.49
4050.36
4049.2
4048.02
4046.81
4045.57
4044.28
4042.95
4041.57
4040.13
4038.62
4037.04
4035.38
4033.61
4031.74
4029.75
4027.61
4025.31
4022.82
4020.13
4017.19
4013.99
4010.49
4006.63
4002.39
3997.69
3992.5
3986.73
3980.31
3973.17
3965.19
3956.28
3946.29
3935.09
3922.5
3908.32
3892.31
3874.21
3853.7
3830.4
3803.89
3773.71
3739.35
3700.31
3656.1
3606.26
3550.39
3488.4
3420.48
3347.31
3267.51
3177.43
3073.98
2960.33
2845.71
2745.3
2657.65
2572.5
2492.26
2426.11
2377.22
2342
2317.86
2306.04
2303.27
2301.87
2298.67
2295.04
2292.64
2292.08
2293.42
2296.29
2299.58
2302.71
2306.38
2310.38
2314.23
2318.2
2322.58
2327.25
2332.27
2337.88
2344.09
2350.99
2359.1
2368.8
2380.06
2392.36
2405.03
2417.63
2429.14
2437.81
2443.92
2449.45
2455.5
2461.48
2466.34
2469.94
2472.94
2475.77
2478.41
2480.78
2482.8
2484.21
2484.68
2484.06
2482.29
2479.17
2474.32
2468.19
2460.73
2451.78
2441.72
2432.71
2426.41
2422.96
2421.18
2421.29
2424.09
2429.95
2438.71
2449.26
2459.63
2468.47
2475.76
2482.12
2488.1
2494.12
2500.5
2507.29
2513.33
2518.02
2521.07
2521.05
2517.46
2512.98
2510.73
2508.15
2494.02
2453.46
2377.57
2272.63
2126.17
1960.31
1867.73
1847.62
1823.8
1802.85
1809.39
1842.66
1883.81
1921.78
1954.15
1983.6
2014.12
2043.45
2070.98
2096.65
2133.87
2205.89
2317.05
2265.01
1815.26
307.495
202.047
600.859
377.254
72.3462
-78.3004
-121.323
-109.858
-53.0831
-14.8725
-3.29119
-7.16412
-17.4588
-11.5121
3170.66
3329.12
4198.61
4349.69
4159.72
4065.93
4085.94
4118.7
4124.16
4115.75
4110.15
4109.66
4110.27
4109.81
4108.6
4107.43
4106.49
4105.62
4104.72
4103.78
4102.83
4101.89
4100.96
4100.02
4099.09
4098.15
4097.21
4096.27
4095.33
4094.39
4093.45
4092.51
4091.57
4090.63
4089.69
4088.75
4087.81
4086.87
4085.93
4084.98
4084.04
4083.1
4082.15
4081.21
4080.26
4079.31
4078.36
4077.41
4076.46
4075.5
4074.54
4073.59
4072.62
4071.66
4070.69
4069.72
4068.74
4067.76
4066.78
4065.79
4064.79
4063.79
4062.78
4061.76
4060.74
4059.7
4058.65
4057.58
4056.5
4055.41
4054.29
4053.16
4052
4050.82
4049.6
4048.35
4047.06
4045.73
4044.35
4042.92
4041.42
4039.86
4038.22
4036.49
4034.66
4032.72
4030.66
4028.45
4026.09
4023.54
4020.8
4017.83
4014.61
4011.1
4007.28
4003.09
3998.5
3993.46
3987.91
3981.79
3975.04
3967.56
3959.29
3950.12
3939.93
3928.61
3916
3901.96
3886.3
3868.8
3849.25
3827.37
3802.87
3775.45
3744.77
3710.49
3672.26
3629.78
3582.82
3531.27
3475.15
3414.53
3349.28
3279.31
3205.15
3128.54
3051.04
2972.39
2891.09
2807.21
2724.78
2650.32
2588.5
2539.43
2500.33
2469.12
2444.89
2425.97
2409.85
2395.34
2382.65
2372.17
2363.87
2357.57
2353.12
2350.38
2348.96
2348.13
2347.01
2346.05
2346.76
2348.67
2351.21
2354.31
2358.08
2362.56
2367.75
2373.66
2380.37
2387.87
2396.03
2404.59
2413.2
2421.55
2429.3
2436.16
2442.19
2447.65
2452.67
2457.18
2461.06
2464.29
2466.94
2469.06
2470.65
2471.71
2472.18
2471.9
2470.67
2468.26
2464.55
2459.61
2453.98
2448.04
2442.27
2436.99
2432.79
2430.15
2429.07
2429.14
2430.12
2432.13
2435.27
2439.5
2444.58
2450.07
2455.43
2460.21
2464.21
2467.37
2469.71
2471.32
2472.38
2472.88
2471.91
2469.31
2464.85
2458.17
2449.19
2437.57
2421.65
2398.7
2365.66
2320.56
2264.09
2199.75
2124.91
2042.54
1968
1907.64
1866
1842.16
1835.69
1846.43
1869.01
1895.63
1920.67
1943.21
1966.08
1993.26
2026.02
2066.84
2115.69
2157.96
2193.62
2020.7
1492.85
715.911
16.1885
-272.71
-306.889
-281.942
-260.089
-234.234
-195.756
-152.584
-116.815
-102.373
-106.221
-54.3603
3170.6
3329.03
4198.56
4349.65
4159.69
4065.89
4085.9
4118.66
4124.12
4115.71
4110.11
4109.62
4110.24
4109.77
4108.56
4107.39
4106.45
4105.58
4104.68
4103.74
4102.79
4101.85
4100.92
4099.99
4099.05
4098.11
4097.17
4096.23
4095.29
4094.35
4093.41
4092.47
4091.53
4090.59
4089.65
4088.71
4087.77
4086.82
4085.88
4084.94
4083.99
4083.05
4082.1
4081.15
4080.2
4079.25
4078.3
4077.35
4076.39
4075.43
4074.47
4073.51
4072.54
4071.57
4070.6
4069.62
4068.63
4067.64
4066.65
4065.65
4064.64
4063.62
4062.59
4061.55
4060.5
4059.44
4058.36
4057.26
4056.15
4055.01
4053.86
4052.67
4051.46
4050.21
4048.92
4047.59
4046.22
4044.79
4043.3
4041.75
4040.12
4038.41
4036.6
4034.69
4032.66
4030.5
4028.19
4025.72
4023.06
4020.19
4017.09
4013.74
4010.1
4006.13
4001.81
3997.08
3991.91
3986.25
3980.02
3973.18
3965.66
3957.37
3948.22
3938.13
3926.99
3914.67
3901.04
3885.95
3869.25
3850.75
3830.25
3807.54
3782.39
3754.57
3723.81
3689.89
3652.56
3611.63
3566.94
3518.39
3465.94
3409.65
3349.7
3286.46
3220.42
3151.91
3080.98
3007.95
2934.17
2862.2
2794.67
2733.09
2677.89
2628.85
2585.51
2547.51
2514.51
2486.11
2461.69
2440.66
2422.58
2407.23
2394.42
2383.91
2375.45
2368.75
2363.49
2359.49
2356.86
2356.12
2356.5
2357.37
2358.95
2361.36
2364.57
2368.51
2373.15
2378.44
2384.36
2390.85
2397.77
2404.93
2412.11
2419.1
2425.7
2431.75
2437.21
2442.19
2446.77
2450.91
2454.52
2457.59
2460.15
2462.25
2463.88
2465.02
2465.62
2465.62
2464.96
2463.66
2461.79
2459.45
2456.77
2453.87
2450.87
2447.93
2445.24
2443.04
2441.46
2440.54
2440.26
2440.67
2441.8
2443.58
2445.83
2448.26
2450.49
2452.25
2453.37
2453.76
2453.34
2451.94
2449.4
2445.83
2440.83
2434.03
2425.09
2413.62
2399.25
2381.6
2360.16
2334.08
2302.15
2263.23
2216.76
2163.03
2102.59
2040.41
1986.04
1944.79
1915.12
1894.52
1882.45
1877.97
1877.99
1879.03
1879.1
1877.86
1875.29
1869.93
1858.2
1833.37
1785.49
1689.33
1514.51
1174.12
673.078
214.338
-15.3278
-57.6618
-54.5503
-79.4478
-111.838
-121.771
-104.621
-75.844
-51.7317
-45.8943
-55.8972
-26.2845
3170.56
3328.97
4198.53
4349.63
4159.66
4065.86
4085.87
4118.64
4124.1
4115.69
4110.09
4109.6
4110.22
4109.76
4108.55
4107.38
4106.45
4105.59
4104.68
4103.74
4102.8
4101.86
4100.93
4100
4099.06
4098.12
4097.19
4096.25
4095.31
4094.37
4093.43
4092.49
4091.55
4090.61
4089.67
4088.73
4087.79
4086.85
4085.9
4084.96
4084.01
4083.07
4082.12
4081.17
4080.22
4079.27
4078.32
4077.36
4076.4
4075.44
4074.48
4073.51
4072.54
4071.56
4070.58
4069.6
4068.61
4067.61
4066.61
4065.6
4064.58
4063.54
4062.5
4061.45
4060.38
4059.3
4058.2
4057.08
4055.94
4054.77
4053.58
4052.36
4051.1
4049.8
4048.46
4047.08
4045.64
4044.13
4042.57
4040.92
4039.19
4037.37
4035.44
4033.4
4031.22
4028.9
4026.41
4023.73
4020.86
4017.76
4014.4
4010.76
4006.81
4002.51
3997.83
3992.71
3987.12
3981
3974.29
3966.93
3958.86
3949.98
3940.22
3929.48
3917.67
3904.66
3890.32
3874.54
3857.15
3838
3816.91
3793.71
3768.2
3740.2
3709.51
3675.94
3639.32
3599.51
3556.41
3509.95
3460.15
3407.08
3350.91
3291.87
3230.27
3166.51
3101.23
3035.37
2970.04
2906.29
2844.95
2786.66
2732.1
2681.94
2636.58
2596.09
2560.31
2528.96
2501.65
2477.91
2457.36
2439.7
2424.72
2412.21
2401.95
2393.74
2387.36
2382.59
2379.12
2376.5
2374.36
2373.59
2374.15
2375.66
2377.91
2380.84
2384.43
2388.62
2393.33
2398.46
2403.91
2409.55
2415.26
2420.91
2426.38
2431.59
2436.47
2441
2445.17
2448.95
2452.3
2455.21
2457.66
2459.65
2461.16
2462.19
2462.7
2462.7
2462.18
2461.15
2459.63
2457.67
2455.34
2452.76
2450.07
2447.44
2445.04
2443
2441.42
2440.33
2439.71
2439.52
2439.69
2440.14
2440.71
2441.24
2441.52
2441.37
2440.62
2439.15
2436.86
2433.8
2429.41
2423.53
2416.02
2406.62
2395.02
2380.9
2363.97
2343.9
2320.3
2292.71
2260.66
2223.94
2182.86
2138.48
2092.61
2047.56
2005.55
1967.81
1934.4
1905.23
1880.25
1859
1840.37
1822.88
1804.96
1784.98
1760.97
1730.38
1689.86
1634.85
1559.87
1457.86
1322.63
1152.11
958.419
780.64
636.696
510.24
389.469
280.095
193.357
132.023
90.2609
60.1706
35.9243
14.9913
0.842509
-3.91386
3170.54
3328.93
4198.5
4349.62
4159.65
4065.84
4085.85
4118.62
4124.09
4115.68
4110.08
4109.59
4110.21
4109.75
4108.54
4107.37
4106.43
4105.57
4104.67
4103.73
4102.78
4101.85
4100.91
4099.98
4099.04
4098.1
4097.17
4096.23
4095.29
4094.35
4093.41
4092.47
4091.53
4090.59
4089.65
4088.7
4087.76
4086.82
4085.87
4084.93
4083.98
4083.04
4082.09
4081.14
4080.19
4079.23
4078.28
4077.32
4076.36
4075.4
4074.43
4073.46
4072.49
4071.51
4070.53
4069.54
4068.55
4067.55
4066.54
4065.52
4064.49
4063.46
4062.41
4061.34
4060.27
4059.17
4058.06
4056.92
4055.77
4054.58
4053.37
4052.12
4050.84
4049.52
4048.15
4046.72
4045.24
4043.7
4042.08
4040.38
4038.6
4036.71
4034.7
4032.58
4030.31
4027.89
4025.29
4022.5
4019.49
4016.24
4012.73
4008.92
4004.79
4000.29
3995.38
3990.03
3984.19
3977.79
3970.8
3963.13
3954.72
3945.5
3935.37
3924.25
3912.04
3898.63
3883.89
3867.7
3849.92
3830.4
3808.99
3785.53
3759.85
3731.77
3701.15
3667.82
3631.66
3592.54
3550.4
3505.2
3456.97
3405.81
3351.87
3295.4
3236.76
3176.4
3114.9
3052.89
2991.05
2930.11
2870.86
2814.13
2760.67
2711.03
2665.52
2624.2
2587.02
2553.81
2524.35
2498.38
2475.64
2455.87
2438.83
2424.3
2412.03
2401.78
2393.34
2386.55
2381.34
2377.72
2375.8
2375.1
2375.33
2376.43
2378.31
2380.88
2384.08
2387.86
2392.13
2396.8
2401.78
2406.96
2412.24
2417.51
2422.69
2427.68
2432.42
2436.86
2440.97
2444.72
2448.08
2451.03
2453.55
2455.63
2457.26
2458.43
2459.15
2459.39
2459.19
2458.55
2457.53
2456.18
2454.57
2452.8
2450.97
2449.17
2447.51
2446.03
2444.77
2443.75
2442.95
2442.34
2441.88
2441.48
2441.07
2440.52
2439.69
2438.43
2436.59
2433.98
2430.39
2425.46
2419.25
2411.75
2402.59
2391.45
2378.06
2362.17
2343.5
2321.79
2296.82
2268.44
2236.59
2201.41
2163.31
2122.94
2081.22
2039.18
1998.02
1958.93
1922.83
1890.03
1860.34
1833.24
1807.85
1782.95
1757.08
1728.73
1696.31
1658.19
1612.52
1557.32
1490.51
1410.21
1314.66
1202.78
1073.5
929.911
783.344
648.016
531.93
434.71
352.612
282.873
223.751
172.759
127.985
88.472
52.6829
17.2619
3170.53
3328.92
4198.5
4349.61
4159.65
4065.84
4085.85
4118.62
4124.08
4115.68
4110.08
4109.59
4110.21
4109.75
4108.54
4107.37
4106.44
4105.57
4104.67
4103.73
4102.79
4101.85
4100.92
4099.99
4099.05
4098.12
4097.18
4096.24
4095.3
4094.37
4093.43
4092.49
4091.55
4090.61
4089.67
4088.73
4087.78
4086.84
4085.9
4084.96
4084.01
4083.06
4082.12
4081.17
4080.22
4079.26
4078.31
4077.35
4076.39
4075.43
4074.46
4073.49
4072.52
4071.54
4070.55
4069.56
4068.57
4067.57
4066.56
4065.54
4064.51
4063.47
4062.42
4061.35
4060.27
4059.17
4058.06
4056.92
4055.75
4054.56
4053.34
4052.09
4050.8
4049.47
4048.09
4046.65
4045.16
4043.6
4041.97
4040.25
4038.44
4036.53
4034.51
4032.35
4030.06
4027.6
4024.97
4022.14
4019.09
4015.79
4012.23
4008.36
4004.16
3999.59
3994.62
3989.19
3983.26
3976.77
3969.68
3961.9
3953.38
3944.04
3933.79
3922.54
3910.2
3896.64
3881.76
3865.43
3847.52
3827.88
3806.35
3782.8
3757.05
3728.94
3698.33
3665.08
3629.04
3590.14
3548.3
3503.49
3455.76
3405.19
3351.96
3296.32
3238.6
3179.24
3118.72
3057.66
2996.75
2936.76
2878.5
2822.7
2769.95
2720.68
2675.16
2633.54
2595.86
2562.07
2532.01
2505.51
2482.32
2462.22
2444.99
2430.41
2418.27
2408.33
2400.31
2393.94
2389.16
2385.82
2383.65
2382.5
2382.26
2382.95
2384.53
2386.91
2389.95
2393.53
2397.56
2401.95
2406.61
2411.45
2416.39
2421.32
2426.17
2430.87
2435.35
2439.57
2443.49
2447.07
2450.3
2453.15
2455.59
2457.6
2459.18
2460.32
2461
2461.24
2461.02
2460.36
2459.27
2457.89
2456.28
2454.46
2452.51
2450.51
2448.56
2446.71
2445.02
2443.51
2442.18
2440.99
2439.89
2438.82
2437.68
2436.36
2434.73
2432.65
2429.97
2426.55
2422.24
2416.91
2410.44
2402.38
2392.53
2380.67
2366.55
2349.86
2330.31
2307.64
2281.65
2252.24
2219.42
2183.4
2144.58
2103.55
2061.24
2018.77
1977.36
1938.03
1901.3
1867.14
1835.18
1804.9
1775.62
1746.46
1716.36
1684.14
1648.56
1608.3
1561.95
1508.07
1445.14
1371.72
1286.59
1189.4
1081.55
967.342
853.463
745.287
644.181
549.163
460.082
378.213
304.413
238.173
177.983
122.682
70.1267
24.4722
3170.54
3328.93
4198.5
4349.62
4159.65
4065.84
4085.85
4118.62
4124.09
4115.68
4110.08
4109.59
4110.21
4109.75
4108.54
4107.37
4106.43
4105.57
4104.67
4103.73
4102.78
4101.85
4100.92
4099.98
4099.04
4098.11
4097.17
4096.23
4095.29
4094.35
4093.41
4092.47
4091.53
4090.59
4089.65
4088.71
4087.77
4086.82
4085.88
4084.94
4083.99
4083.04
4082.1
4081.15
4080.2
4079.24
4078.29
4077.33
4076.37
4075.41
4074.45
4073.48
4072.5
4071.53
4070.54
4069.56
4068.56
4067.56
4066.55
4065.54
4064.51
4063.48
4062.43
4061.37
4060.29
4059.2
4058.09
4056.95
4055.8
4054.61
4053.4
4052.16
4050.88
4049.56
4048.19
4046.77
4045.29
4043.75
4042.13
4040.44
4038.65
4036.77
4034.77
4032.65
4030.38
4027.96
4025.37
4022.58
4019.58
4016.33
4012.82
4009.02
4004.88
4000.39
3995.48
3990.14
3984.29
3977.9
3970.9
3963.23
3954.82
3945.59
3935.46
3924.33
3912.1
3898.67
3883.92
3867.71
3849.9
3830.36
3808.91
3785.41
3759.68
3731.56
3700.89
3667.5
3631.27
3592.09
3549.88
3504.63
3456.34
3405.13
3351.15
3294.65
3235.99
3175.62
3114.13
3052.14
2990.34
2929.45
2870.26
2813.62
2760.25
2710.7
2665.24
2623.96
2586.8
2553.59
2524.13
2498.16
2475.41
2455.62
2438.56
2423.99
2411.68
2401.44
2393.14
2386.77
2382.21
2379.03
2376.98
2376.04
2376.16
2377.23
2379.16
2381.81
2385.09
2388.89
2393.12
2397.72
2402.58
2407.63
2412.78
2417.95
2423.05
2428
2432.73
2437.2
2441.36
2445.18
2448.65
2451.73
2454.41
2456.64
2458.41
2459.72
2460.55
2460.92
2460.84
2460.36
2459.53
2458.32
2456.8
2455.08
2453.23
2451.36
2449.56
2447.87
2446.31
2444.89
2443.59
2442.42
2441.31
2440.22
2439.05
2437.71
2436.1
2434.08
2431.51
2428.23
2424.06
2418.82
2412.34
2404.36
2394.64
2382.9
2368.82
2352
2332.05
2308.6
2281.33
2250.07
2214.8
2175.73
2133.37
2088.53
2042.2
1995.62
1950.23
1907.47
1868.21
1832.39
1799.4
1768.66
1739.33
1710.52
1681.29
1650.55
1617.14
1579.91
1537.73
1489.56
1434.39
1371.38
1299.89
1219.52
1130.49
1033.33
929.265
820.773
712.023
608.377
513.75
428.855
352.059
281.427
214.996
151.751
87.7815
33.2207
3170.56
3328.97
4198.53
4349.63
4159.67
4065.86
4085.87
4118.64
4124.1
4115.69
4110.1
4109.61
4110.23
4109.76
4108.56
4107.39
4106.45
4105.59
4104.69
4103.75
4102.8
4101.87
4100.93
4100
4099.06
4098.13
4097.19
4096.25
4095.32
4094.38
4093.44
4092.5
4091.56
4090.62
4089.68
4088.74
4087.8
4086.86
4085.92
4084.97
4084.03
4083.08
4082.14
4081.19
4080.24
4079.29
4078.34
4077.38
4076.42
4075.46
4074.5
4073.53
4072.56
4071.59
4070.61
4069.63
4068.64
4067.64
4066.64
4065.63
4064.61
4063.59
4062.55
4061.49
4060.43
4059.35
4058.25
4057.14
4056
4054.84
4053.65
4052.43
4051.17
4049.88
4048.55
4047.17
4045.73
4044.23
4042.67
4041.03
4039.31
4037.5
4035.57
4033.54
4031.36
4029.05
4026.56
4023.9
4021.03
4017.93
4014.58
4010.95
4007.01
4002.71
3998.03
3992.92
3987.33
3981.21
3974.5
3967.14
3959.05
3950.17
3940.4
3929.64
3917.8
3904.76
3890.4
3874.57
3857.13
3837.92
3816.77
3793.49
3767.89
3739.79
3708.98
3675.29
3638.54
3598.6
3555.36
3508.77
3458.85
3405.67
3349.41
3290.31
3228.65
3164.86
3099.59
3033.8
2968.6
2905.01
2843.83
2785.7
2731.31
2681.3
2636.07
2595.66
2559.92
2528.59
2501.28
2477.55
2457
2439.37
2424.44
2412.02
2401.89
2393.84
2387.59
2382.77
2378.79
2375.94
2374.61
2374.58
2375.52
2377.28
2379.78
2382.95
2386.69
2390.91
2395.51
2400.44
2405.61
2410.97
2416.42
2421.85
2427.16
2432.28
2437.13
2441.69
2445.94
2449.88
2453.48
2456.68
2459.46
2461.77
2463.6
2464.93
2465.74
2466.03
2465.75
2464.87
2463.36
2461.23
2458.68
2456
2453.21
2450.47
2447.98
2445.84