/*--------------------------------*- C++ -*----------------------------------*\
| =========                 |                                                 |
| \\      /  F ield         | OpenFOAM: The Open Source CFD Toolbox           |
|  \\    /   O peration     | Version:  2406                                  |
|   \\  /    A nd           | Website:  www.openfoam.com                      |
|    \\/     M anipulation  |                                                 |
\*---------------------------------------------------------------------------*/
FoamFile
{
    version     2.0;
    format      ascii;
    arch        "LSB;label=32;scalar=64";
    class       surfaceScalarField;
    location    "0.25";
    object      phi;
}
// * * * * * * * * * * * * * * * * * * * * * * * * * * * * * * * * * * * * * //

dimensions      [0 3 -1 0 0 0 0];

oriented        oriented;

internalField   nonuniform List<scalar> 
12225
(
0.312352
2.35315e-06
0.312345
7.44007e-06
0.312336
9.21591e-06
0.312329
6.20828e-06
0.312324
5.04361e-06
0.312319
5.2309e-06
0.312314
4.74605e-06
0.31231
4.25479e-06
0.312306
4.61101e-06
0.312301
4.76665e-06
0.312296
4.44456e-06
0.312292
4.06244e-06
0.312288
4.75891e-06
0.312281
6.45902e-06
0.312273
8.03899e-06
0.312265
8.22479e-06
0.312257
7.36473e-06
0.312251
6.71842e-06
0.312244
6.65569e-06
0.312238
6.42474e-06
0.312232
5.70336e-06
0.312227
4.98421e-06
0.312223
4.043e-06
0.31222
3.12044e-06
0.312217
2.78703e-06
0.312214
3.2456e-06
0.31221
3.75373e-06
0.312206
4.34358e-06
0.312201
5.07295e-06
0.312195
5.24724e-06
0.312191
4.47841e-06
0.312188
3.17993e-06
0.312186
2.04009e-06
0.312184
1.40076e-06
0.312183
9.08481e-07
0.312183
5.22894e-07
0.312182
6.76263e-07
0.312181
1.03328e-06
0.31218
1.35963e-06
0.312178
1.4647e-06
0.312177
1.1759e-06
0.312176
6.06037e-07
0.312176
3.09081e-09
0.312177
-3.71904e-07
0.312177
-3.15997e-07
0.312177
2.00609e-07
0.312176
1.07945e-06
0.312175
1.34179e-06
0.312174
8.58286e-07
0.312174
1.47181e-07
0.312174
-6.71581e-07
0.312176
-1.30761e-06
0.312177
-1.62415e-06
0.312179
-1.36394e-06
0.312179
-6.03798e-07
0.312179
2.47547e-07
0.312179
2.49807e-07
0.312179
-1.10665e-07
0.312179
-5.51632e-07
0.31218
-8.60996e-07
0.312181
-1.33401e-06
0.312183
-1.7541e-06
0.312185
-1.72545e-06
0.312186
-1.22039e-06
0.312187
-5.90552e-07
0.312187
-3.00653e-07
0.312187
-3.36973e-07
0.312188
-4.45095e-07
0.312188
-5.2517e-07
0.312189
-8.27902e-07
0.31219
-1.21585e-06
0.312192
-1.50842e-06
0.312194
-1.60251e-06
0.312195
-1.63895e-06
0.312197
-1.72432e-06
0.312199
-1.79874e-06
0.3122
-1.75827e-06
0.312202
-1.59801e-06
0.312203
-1.41174e-06
0.312205
-1.27273e-06
0.312206
-1.11479e-06
0.312207
-8.2849e-07
0.312207
-4.32334e-07
0.312207
-6.4455e-08
0.312207
5.95224e-08
0.312207
-6.16009e-08
0.312207
-2.36745e-07
0.312208
-2.41101e-07
0.312208
-9.49147e-08
0.312208
6.28757e-08
0.312208
4.18846e-08
0.312208
-1.91086e-07
0.312208
-4.41965e-07
0.312209
-5.16544e-07
0.312209
-4.13829e-07
0.312209
-2.56371e-07
0.31221
-1.96421e-07
0.31221
-2.8036e-07
0.31221
-3.92562e-07
0.312211
-3.92221e-07
0.312211
-2.4613e-07
0.312211
-4.85436e-08
0.312211
6.30178e-08
0.312211
4.42209e-08
0.312211
-4.43066e-08
0.312211
-1.16199e-07
0.312211
-1.32475e-07
0.312211
-1.10786e-07
0.312211
-1.15679e-07
0.312212
-1.5362e-07
0.312212
-2.14375e-07
0.312212
-2.75057e-07
0.312212
-3.12294e-07
0.312213
-3.4449e-07
0.312213
-3.75815e-07
0.312213
-4.04823e-07
0.312214
-3.92451e-07
0.312214
-3.21305e-07
0.312214
-2.26837e-07
0.312215
-1.50739e-07
0.312215
-1.19156e-07
0.312215
-1.58269e-07
0.312215
-1.93402e-07
0.312215
-1.76676e-07
0.312215
-9.69949e-08
0.312215
-6.39776e-09
0.312215
8.70585e-08
0.312215
1.31312e-07
0.312215
1.83848e-07
0.312215
2.81615e-07
0.312214
4.00646e-07
0.312214
4.78584e-07
0.312213
4.83756e-07
0.312213
4.49999e-07
0.312212
4.4557e-07
0.312212
5.07093e-07
0.312211
6.13479e-07
0.312211
7.12977e-07
0.31221
7.63267e-07
0.312209
7.52951e-07
0.312208
6.95694e-07
0.312208
6.15803e-07
0.312207
5.45146e-07
0.312207
5.1325e-07
0.312206
5.6011e-07
0.312205
6.89036e-07
0.312205
8.47269e-07
0.312204
9.34641e-07
0.312203
8.51201e-07
0.312202
6.0238e-07
0.312202
2.94564e-07
0.312202
8.05386e-08
0.312202
2.13159e-08
0.312202
1.46066e-07
0.312201
3.72898e-07
0.312201
5.50417e-07
0.3122
5.86492e-07
0.3122
4.80153e-07
0.312199
3.07119e-07
0.312199
1.63401e-07
0.312199
3.80978e-08
0.312199
-2.17901e-08
0.312199
1.46894e-09
0.312199
1.0447e-07
0.312199
2.75018e-07
0.312198
4.3554e-07
0.312198
4.69754e-07
0.312198
3.31818e-07
0.312197
1.12721e-07
0.312198
-6.45332e-08
0.312198
-1.40269e-07
0.312198
-9.36037e-08
0.312198
-2.86788e-08
0.312198
-1.57956e-09
0.312198
8.62522e-09
0.312198
2.06801e-09
0.312198
-2.99563e-08
0.312198
-7.1337e-08
0.312198
-1.20842e-07
0.312198
-1.974e-07
0.312198
-2.92934e-07
0.312199
-3.58115e-07
0.312199
-3.36059e-07
0.312199
-2.33683e-07
0.3122
-1.13866e-07
0.3122
-4.60974e-08
0.3122
-6.34666e-08
0.3122
-1.66987e-07
0.3122
-2.96557e-07
0.3122
-3.94309e-07
0.312201
-4.57576e-07
0.312201
-5.15983e-07
0.312202
-5.86347e-07
0.312203
-6.59826e-07
0.312203
-7.12825e-07
0.312204
-7.22617e-07
0.312205
-6.84074e-07
0.312205
-6.3304e-07
0.312206
-6.22867e-07
0.312207
-6.61744e-07
0.312207
-7.05228e-07
0.312208
-7.02687e-07
0.312209
-6.37695e-07
0.312209
-5.38608e-07
0.31221
-4.53819e-07
0.31221
-4.09467e-07
0.312211
-3.67765e-07
0.312211
-2.63781e-07
0.312211
-3.33763e-08
0.312211
2.14696e-07
0.31221
3.93411e-07
0.31221
4.55144e-07
0.312209
4.06151e-07
0.312209
3.0104e-07
0.312209
2.22892e-07
0.312209
2.33395e-07
0.312208
3.2572e-07
0.312208
4.33568e-07
0.312207
4.87993e-07
0.312207
4.70793e-07
0.312206
4.21857e-07
0.312206
3.92208e-07
0.312206
3.9037e-07
0.312205
3.67818e-07
0.312205
2.74253e-07
0.312205
1.14546e-07
0.312205
-5.18414e-08
0.312205
-1.33744e-07
0.312205
-1.13343e-07
0.312205
-2.35377e-08
0.312205
7.24812e-08
0.312205
1.46492e-07
0.312205
2.03871e-07
0.312205
2.74839e-07
0.312204
3.69508e-07
0.312204
4.47335e-07
0.312203
4.43674e-07
0.312203
3.2912e-07
0.312203
1.48352e-07
0.312203
-1.42553e-08
0.312203
-1.40613e-07
0.312203
-2.60967e-07
0.312204
-4.24982e-07
0.312204
-6.41599e-07
0.312205
-8.69502e-07
0.312206
-1.06134e-06
0.312207
-1.1607e-06
0.312209
-1.15927e-06
0.31221
-9.81505e-07
-9.20406e-07
0.312359
-4.26703e-07
0.312367
-2.15209e-07
0.312375
1.1328e-06
0.312379
1.91314e-06
0.312383
1.68861e-06
0.312386
1.9239e-06
0.312388
2.45727e-06
0.312389
3.35565e-06
0.312391
3.08085e-06
0.312393
2.56332e-06
0.312394
3.29911e-06
0.312395
3.4129e-06
0.312397
2.6809e-06
0.312401
1.9885e-06
0.312408
1.67911e-06
0.312414
1.93172e-06
0.312419
2.54244e-06
0.312423
2.49165e-06
0.312428
1.96775e-06
0.312432
2.13284e-06
0.312435
2.64802e-06
0.312437
2.93828e-06
0.312438
3.08282e-06
0.312438
3.12769e-06
0.312438
2.81918e-06
0.312439
2.43017e-06
0.312441
1.95129e-06
0.312444
1.31854e-06
0.312448
1.00786e-06
0.312452
1.2001e-06
0.312454
1.90659e-06
0.312455
2.6441e-06
0.312454
2.99282e-06
0.312452
3.21657e-06
0.31245
3.44433e-06
0.312447
3.23387e-06
0.312445
2.63211e-06
0.312444
2.0507e-06
0.312444
1.777e-06
0.312443
1.99007e-06
0.312442
2.5342e-06
0.312439
2.94625e-06
0.312436
2.9984e-06
0.312433
2.75629e-06
0.312431
2.26569e-06
0.312429
1.6559e-06
0.312429
1.29325e-06
0.312429
1.34453e-06
0.312428
1.51001e-06
0.312427
1.61953e-06
0.312425
1.61572e-06
0.312422
1.47234e-06
0.312419
1.08592e-06
0.312417
6.11692e-07
0.312416
3.19232e-07
0.312416
3.97953e-07
0.312416
7.3674e-07
0.312414
1.04656e-06
0.312412
1.43264e-06
0.312409
2.02936e-06
0.312406
2.46566e-06
0.312402
2.37201e-06
0.312398
1.87197e-06
0.312395
1.37698e-06
0.312394
1.18888e-06
0.312392
1.13376e-06
0.312391
7.68228e-07
0.31239
1.10852e-07
0.312391
-5.55735e-07
0.312391
-1.04757e-06
0.312391
-1.31445e-06
0.312391
-1.41177e-06
0.312391
-1.4089e-06
0.31239
-1.34098e-06
0.31239
-1.18574e-06
0.312389
-9.12719e-07
0.312388
-5.86686e-07
0.312386
-3.26687e-07
0.312385
-1.79115e-07
0.312384
-1.38772e-07
0.312383
-1.41672e-07
0.312382
-2.048e-07
0.312382
-3.18126e-07
0.312383
-3.83218e-07
0.312383
-3.20764e-07
0.312383
-1.48274e-07
0.312383
-1.58328e-08
0.312383
-3.06703e-08
0.312383
-1.64251e-07
0.312383
-2.75075e-07
0.312383
-2.30372e-07
0.312383
-7.70536e-08
0.312383
3.65567e-08
0.312382
-4.95318e-09
0.312382
-1.92798e-07
0.312382
-3.77645e-07
0.312382
-4.55787e-07
0.312383
-4.6513e-07
0.312383
-5.14771e-07
0.312383
-6.58197e-07
0.312384
-8.35349e-07
0.312384
-9.32885e-07
0.312385
-9.05935e-07
0.312386
-8.10484e-07
0.312387
-7.28001e-07
0.312387
-6.8181e-07
0.312388
-6.18968e-07
0.312388
-4.69068e-07
0.312388
-2.46211e-07
0.312388
-2.53031e-10
0.312388
1.34515e-07
0.312388
1.16413e-07
0.312387
4.78366e-09
0.312387
-9.08436e-08
0.312387
-7.80514e-08
0.312386
2.1233e-08
0.312386
1.58903e-07
0.312385
2.19133e-07
0.312385
1.72336e-07
0.312385
7.16192e-08
0.312384
-2.38278e-08
0.312384
-6.1824e-08
0.312384
-2.90815e-08
0.312384
5.25413e-08
0.312384
1.1461e-07
0.312384
1.00648e-07
0.312384
2.48365e-09
0.312384
-1.45271e-07
0.312384
-2.72537e-07
0.312385
-3.09129e-07
0.312386
-2.37348e-07
0.312386
-1.09847e-07
0.312387
-1.57894e-08
0.312387
-4.86278e-09
0.312388
-3.22953e-08
0.312388
-2.12915e-08
0.312389
7.23108e-08
0.312389
2.30681e-07
0.31239
3.83042e-07
0.31239
4.64653e-07
0.31239
4.72959e-07
0.31239
4.60122e-07
0.31239
4.8084e-07
0.31239
5.55084e-07
0.31239
6.58546e-07
0.31239
7.50682e-07
0.31239
8.19475e-07
0.31239
8.72086e-07
0.31239
9.23303e-07
0.31239
9.79914e-07
0.312389
1.03359e-06
0.312388
1.10275e-06
0.312387
1.21095e-06
0.312386
1.36385e-06
0.312385
1.51662e-06
0.312383
1.60908e-06
0.312382
1.60261e-06
0.312381
1.51869e-06
0.31238
1.4342e-06
0.312379
1.42578e-06
0.312378
1.51578e-06
0.312376
1.6931e-06
0.312374
1.89477e-06
0.312372
2.03329e-06
0.31237
2.06621e-06
0.312369
2.02413e-06
0.312367
1.95286e-06
0.312366
1.86652e-06
0.312364
1.75053e-06
0.312362
1.593e-06
0.312361
1.42534e-06
0.312359
1.3143e-06
0.312358
1.26763e-06
0.312357
1.23844e-06
0.312356
1.15581e-06
0.312355
9.69412e-07
0.312354
6.8199e-07
0.312354
3.74617e-07
0.312353
1.39251e-07
0.312353
-8.2539e-09
0.312353
-1.51839e-07
0.312353
-3.6741e-07
0.312353
-6.62393e-07
0.312354
-9.56177e-07
0.312355
-1.15651e-06
0.312356
-1.23492e-06
0.312357
-1.23129e-06
0.312358
-1.22561e-06
0.312359
-1.28284e-06
0.31236
-1.40802e-06
0.312362
-1.5547e-06
0.312363
-1.68402e-06
0.312364
-1.80247e-06
0.312365
-1.94921e-06
0.312367
-2.14634e-06
0.312368
-2.35534e-06
0.31237
-2.49839e-06
0.312372
-2.52464e-06
0.312374
-2.44626e-06
0.312375
-2.32279e-06
0.312377
-2.21166e-06
0.312378
-2.12852e-06
0.31238
-2.04897e-06
0.312381
-1.94188e-06
0.312383
-1.80147e-06
0.312384
-1.65363e-06
0.312385
-1.53726e-06
0.312386
-1.47172e-06
0.312388
-1.41696e-06
0.312389
-1.33043e-06
0.312391
-1.18882e-06
0.312392
-1.00429e-06
0.312393
-8.22055e-07
0.312394
-6.87858e-07
0.312395
-6.09104e-07
0.312396
-5.40107e-07
0.312397
-4.15019e-07
0.312397
-2.02218e-07
0.312398
6.86721e-08
0.312398
3.30108e-07
0.312398
5.34178e-07
0.312398
6.89433e-07
0.312397
8.42582e-07
0.312396
1.02858e-06
0.312395
1.23766e-06
0.312394
1.42773e-06
0.312393
1.56793e-06
0.312391
1.68229e-06
0.312389
1.8261e-06
0.312387
2.03441e-06
0.312384
2.27612e-06
0.312382
2.47419e-06
0.31238
2.55346e-06
0.312378
2.4864e-06
0.312376
2.31026e-06
0.312374
2.08891e-06
0.312373
1.86185e-06
0.312371
1.62481e-06
0.31237
1.35304e-06
0.312369
1.03523e-06
0.312368
6.91135e-07
0.312368
3.47184e-07
0.312367
3.4809e-09
0.312367
-3.67963e-07
0.312367
-7.83933e-07
0.312367
-1.239e-06
0.312368
-1.70029e-06
0.312368
-2.12e-06
0.31237
-2.50923e-06
-2.86727e-06
0.312357
-6.20701e-07
0.312356
7.09001e-07
0.312355
1.8094e-06
0.312356
1.57968e-06
0.312356
1.66045e-06
0.312356
2.19265e-06
0.312357
1.22624e-06
0.312359
9.72899e-07
0.312361
1.22488e-06
0.312362
1.49523e-06
0.312364
1.77155e-06
0.312365
1.84724e-06
0.312366
1.74181e-06
0.312366
1.67752e-06
0.312366
1.68478e-06
0.312367
1.74348e-06
0.312367
1.96885e-06
0.312367
2.36712e-06
0.312367
2.46005e-06
0.312367
2.37809e-06
0.312367
2.11789e-06
0.312368
2.03556e-06
0.312369
2.46937e-06
0.312369
2.68306e-06
0.312369
2.55786e-06
0.312369
2.69145e-06
0.312368
3.07012e-06
0.312366
3.01704e-06
0.312365
2.26273e-06
0.312365
1.51004e-06
0.312365
1.34824e-06
0.312367
1.29045e-06
0.312369
1.03222e-06
0.312371
8.92827e-07
0.312373
1.11073e-06
0.312375
1.44121e-06
0.312376
1.65545e-06
0.312376
1.57952e-06
0.312377
1.23643e-06
0.312378
9.91672e-07
0.31238
9.93345e-07
0.312381
1.06967e-06
0.312383
1.30819e-06
0.312384
1.91171e-06
0.312384
2.49475e-06
0.312383
2.49038e-06
0.312382
1.99633e-06
0.312382
1.50348e-06
0.312382
1.1784e-06
0.312383
9.42897e-07
0.312384
8.29869e-07
0.312384
9.02419e-07
0.312385
9.2666e-07
0.312385
5.23263e-07
0.312385
-2.43178e-07
0.312387
-9.32722e-07
0.312389
-1.21623e-06
0.312391
-1.31365e-06
0.312394
-1.36986e-06
0.312397
-1.15993e-06
0.3124
-5.60668e-07
0.312402
2.36099e-07
0.312403
7.28156e-07
0.312404
9.33678e-07
0.312404
1.24377e-06
0.312403
1.79044e-06
0.312401
2.26111e-06
0.312399
2.42029e-06
0.312396
2.38811e-06
0.312393
2.37599e-06
0.312389
2.38213e-06
0.312385
2.24563e-06
0.312382
1.85539e-06
0.312379
1.27531e-06
0.312378
6.92488e-07
0.312376
2.59368e-07
0.312376
-4.99787e-08
0.312376
-2.94872e-07
0.312376
-4.6002e-07
0.312376
-4.75895e-07
0.312377
-3.30508e-07
0.312377
-1.63817e-07
0.312376
-1.42888e-07
0.312376
-2.63482e-07
0.312376
-3.40374e-07
0.312376
-2.29691e-07
0.312376
-1.32429e-08
0.312376
1.16043e-07
0.312376
-1.01186e-09
0.312376
-2.64922e-07
0.312376
-4.2428e-07
0.312377
-3.52355e-07
0.312377
-1.50976e-07
0.312377
-4.86792e-08
0.312377
-1.83429e-07
0.312377
-4.68177e-07
0.312377
-6.87071e-07
0.312377
-7.22196e-07
0.312378
-6.49346e-07
0.312377
-6.36529e-07
0.312377
-7.71355e-07
0.312377
-9.83369e-07
0.312378
-1.12382e-06
0.312378
-1.10938e-06
0.312378
-9.81357e-07
0.312378
-8.40988e-07
0.312379
-7.44458e-07
0.312379
-6.6428e-07
0.312379
-5.4499e-07
0.312379
-3.69502e-07
0.31238
-2.07024e-07
0.31238
-1.38609e-07
0.31238
-1.69372e-07
0.31238
-2.23031e-07
0.31238
-1.98771e-07
0.312381
-6.56874e-08
0.312381
1.16134e-07
0.312381
2.23478e-07
0.312381
1.92446e-07
0.312381
6.69629e-08
0.312381
-5.95303e-08
0.312381
-8.89927e-08
0.312381
-2.19552e-08
0.312381
7.03735e-08
0.312381
1.07604e-07
0.312381
4.54139e-08
0.312381
-8.56068e-08
0.312381
-2.16852e-07
0.312381
-2.91915e-07
0.312381
-2.87764e-07
0.312381
-2.16069e-07
0.312381
-1.1405e-07
0.312381
-2.34899e-08
0.312381
3.56596e-08
0.312381
6.41691e-08
0.312381
1.10821e-07
0.31238
2.15397e-07
0.31238
3.80191e-07
0.31238
5.59687e-07
0.31238
6.93641e-07
0.31238
7.5625e-07
0.312379
7.75808e-07
0.312379
8.11919e-07
0.312379
9.10775e-07
0.312378
1.06884e-06
0.312378
1.23564e-06
0.312377
1.35746e-06
0.312377
1.41805e-06
0.312376
1.4508e-06
0.312376
1.50776e-06
0.312375
1.61913e-06
0.312374
1.78214e-06
0.312373
1.96707e-06
0.312373
2.14246e-06
0.312372
2.2795e-06
0.312371
2.35519e-06
0.31237
2.36282e-06
0.31237
2.32818e-06
0.312369
2.30818e-06
0.312368
2.36364e-06
0.312367
2.5256e-06
0.312366
2.77313e-06
0.312365
3.03248e-06
0.312363
3.20704e-06
0.312362
3.22148e-06
0.312361
3.06263e-06
0.31236
2.79112e-06
0.31236
2.51461e-06
0.312359
2.32649e-06
0.312358
2.2498e-06
0.312358
2.24105e-06
0.312357
2.2406e-06
0.312356
2.19828e-06
0.312355
2.07512e-06
0.312354
1.83752e-06
0.312354
1.46967e-06
0.312353
9.84265e-07
0.312353
4.39438e-07
0.312354
-7.07067e-08
0.312354
-4.73995e-07
0.312355
-7.72601e-07
0.312355
-1.00599e-06
0.312356
-1.20947e-06
0.312356
-1.40241e-06
0.312357
-1.56965e-06
0.312357
-1.67482e-06
0.312358
-1.70858e-06
0.312358
-1.71091e-06
0.312359
-1.76004e-06
0.312359
-1.92336e-06
0.31236
-2.20777e-06
0.312361
-2.5615e-06
0.312362
-2.91545e-06
0.312363
-3.22767e-06
0.312364
-3.48797e-06
0.312366
-3.6958e-06
0.312367
-3.83946e-06
0.312368
-3.89046e-06
0.31237
-3.82524e-06
0.312371
-3.65428e-06
0.312372
-3.42764e-06
0.312373
-3.20764e-06
0.312374
-3.03272e-06
0.312375
-2.90135e-06
0.312376
-2.78338e-06
0.312377
-2.64665e-06
0.312378
-2.48279e-06
0.312379
-2.3116e-06
0.31238
-2.15471e-06
0.312381
-2.01676e-06
0.312381
-1.87846e-06
0.312382
-1.7081e-06
0.312383
-1.48743e-06
0.312383
-1.22658e-06
0.312384
-9.58028e-07
0.312384
-7.05678e-07
0.312384
-4.60063e-07
0.312384
-1.81989e-07
0.312384
1.60737e-07
0.312383
5.55692e-07
0.312383
9.46769e-07
0.312382
1.27537e-06
0.312382
1.52601e-06
0.312381
1.73657e-06
0.31238
1.96497e-06
0.31238
2.24409e-06
0.312379
2.56171e-06
0.312377
2.87998e-06
0.312376
3.16877e-06
0.312375
3.42169e-06
0.312373
3.6392e-06
0.312372
3.80095e-06
0.312371
3.85678e-06
0.312369
3.75317e-06
0.312368
3.47812e-06
0.312367
3.07999e-06
0.312366
2.642e-06
0.312366
2.23124e-06
0.312365
1.86297e-06
0.312365
1.50731e-06
0.312364
1.12333e-06
0.312364
6.87292e-07
0.312364
1.88962e-07
0.312364
-3.80287e-07
0.312364
-1.03248e-06
0.312365
-1.76317e-06
0.312365
-2.5419e-06
0.312367
-3.29894e-06
0.312368
-4.02792e-06
-4.67378e-06
0.31236
8.44359e-07
0.31236
1.0111e-06
0.31236
1.34578e-06
0.312359
2.32537e-06
0.31236
1.28607e-06
0.31236
1.57914e-06
0.312359
2.19916e-06
0.312358
2.5214e-06
0.312356
2.72453e-06
0.312356
2.25966e-06
0.312356
1.65305e-06
0.312356
1.56142e-06
0.312356
1.70728e-06
0.312356
1.57942e-06
0.312356
1.31823e-06
0.312357
1.28212e-06
0.312357
1.54691e-06
0.312358
1.99586e-06
0.312358
1.93672e-06
0.312359
1.96624e-06
0.312358
2.30549e-06
0.312358
2.20189e-06
0.312359
2.0584e-06
0.312359
2.14705e-06
0.31236
2.09765e-06
0.312361
1.83058e-06
0.312362
1.76745e-06
0.312363
1.80634e-06
0.312364
1.7832e-06
0.312363
1.68458e-06
0.312363
1.74737e-06
0.312362
2.19442e-06
0.312361
2.45186e-06
0.312359
2.22893e-06
0.312358
2.05019e-06
0.312358
2.09847e-06
0.312357
2.21189e-06
0.312356
2.40434e-06
0.312355
2.59785e-06
0.312353
2.57988e-06
0.312352
2.29969e-06
0.312351
1.84118e-06
0.312351
1.35982e-06
0.312352
1.09744e-06
0.312353
1.15065e-06
0.312355
1.34634e-06
0.312355
1.48635e-06
0.312355
1.64226e-06
0.312354
1.8549e-06
0.312353
2.00691e-06
0.312352
2.05735e-06
0.312351
2.19362e-06
0.312349
2.57899e-06
0.312346
3.06923e-06
0.312343
3.42374e-06
0.312338
3.64298e-06
0.312333
3.85443e-06
0.312328
3.91551e-06
0.312323
3.50694e-06
0.312319
2.6236e-06
0.312317
1.62297e-06
0.312316
7.99218e-07
0.312317
9.79666e-08
0.312319
-6.44209e-07
0.312321
-1.40879e-06
0.312325
-2.03797e-06
0.31233
-2.4975e-06
0.312335
-2.83292e-06
0.312341
-3.00568e-06
0.312346
-2.94347e-06
0.312351
-2.70396e-06
0.312356
-2.42805e-06
0.31236
-2.15891e-06
0.312363
-1.84603e-06
0.312365
-1.4915e-06
0.312366
-1.15655e-06
0.312367
-9.15544e-07
0.312368
-8.01984e-07
0.312368
-7.85236e-07
0.312368
-7.90796e-07
0.312369
-7.45825e-07
0.312369
-6.55165e-07
0.31237
-5.98609e-07
0.31237
-6.3846e-07
0.312371
-7.42672e-07
0.312371
-8.16114e-07
0.312372
-8.12814e-07
0.312373
-7.74669e-07
0.312374
-7.90255e-07
0.312374
-8.84625e-07
0.312375
-9.93375e-07
0.312375
-1.03871e-06
0.312376
-1.00987e-06
0.312377
-9.78674e-07
0.312378
-1.02859e-06
0.312379
-1.165e-06
0.312379
-1.29641e-06
0.31238
-1.31661e-06
0.312381
-1.19933e-06
0.312381
-1.01623e-06
0.312381
-8.69909e-07
0.312381
-8.08203e-07
0.312381
-7.96621e-07
0.31238
-7.65574e-07
0.31238
-6.77088e-07
0.31238
-5.51331e-07
0.312379
-4.40971e-07
0.312379
-3.8728e-07
0.312379
-3.9506e-07
0.312379
-4.37848e-07
0.312379
-4.83433e-07
0.31238
-5.05753e-07
0.31238
-4.82446e-07
0.31238
-3.98686e-07
0.31238
-2.55851e-07
0.31238
-8.62193e-08
0.31238
5.94565e-08
0.31238
1.18374e-07
0.31238
7.63752e-08
0.312381
-1.62118e-08
0.312381
-7.57413e-08
0.31238
-4.68357e-08
0.31238
4.85074e-08
0.31238
1.28571e-07
0.31238
1.15258e-07
0.31238
-3.01212e-09
0.31238
-1.58736e-07
0.312381
-2.51791e-07
0.31238
-2.32758e-07
0.31238
-1.28296e-07
0.31238
-1.247e-08
0.31238
6.03065e-08
0.31238
8.35286e-08
0.31238
9.03532e-08
0.31238
1.20946e-07
0.31238
2.03542e-07
0.312379
3.40598e-07
0.312379
5.12587e-07
0.312379
6.87141e-07
0.312379
8.34816e-07
0.312379
9.46848e-07
0.312379
1.0421e-06
0.312378
1.15532e-06
0.312378
1.31286e-06
0.312377
1.50971e-06
0.312377
1.70593e-06
0.312376
1.853e-06
0.312376
1.93354e-06
0.312375
1.98351e-06
0.312375
2.07092e-06
0.312374
2.24305e-06
0.312374
2.48791e-06
0.312373
2.7428e-06
0.312372
2.94074e-06
0.312371
3.049e-06
0.31237
3.07933e-06
0.31237
3.07431e-06
0.312369
3.08503e-06
0.312368
3.15245e-06
0.312367
3.29625e-06
0.312366
3.50881e-06
0.312365
3.75393e-06
0.312364
3.9744e-06
0.312363
4.10268e-06
0.312363
4.07873e-06
0.312362
3.88501e-06
0.312361
3.56975e-06
0.31236
3.23185e-06
0.31236
2.97381e-06
0.312359
2.84637e-06
0.312358
2.8265e-06
0.312358
2.83997e-06
0.312357
2.79766e-06
0.312357
2.62814e-06
0.312356
2.29832e-06
0.312356
1.8135e-06
0.312356
1.21155e-06
0.312356
5.58791e-07
0.312356
-9.82578e-08
0.312356
-6.99343e-07
0.312356
-1.17552e-06
0.312357
-1.49119e-06
0.312357
-1.669e-06
0.312357
-1.76566e-06
0.312358
-1.83515e-06
0.312358
-1.90824e-06
0.312358
-1.99655e-06
0.312359
-2.10907e-06
0.312359
-2.26938e-06
0.31236
-2.51629e-06
0.31236
-2.88165e-06
0.312361
-3.35766e-06
0.312362
-3.88554e-06
0.312363
-4.37735e-06
0.312365
-4.7511e-06
0.312366
-4.96866e-06
0.312367
-5.05079e-06
0.312368
-5.04038e-06
0.312369
-4.95984e-06
0.312371
-4.81181e-06
0.312372
-4.60484e-06
0.312373
-4.36659e-06
0.312374
-4.13416e-06
0.312375
-3.93277e-06
0.312376
-3.76217e-06
0.312377
-3.5997e-06
0.312378
-3.41721e-06
0.312379
-3.1999e-06
0.31238
-2.95365e-06
0.31238
-2.69983e-06
0.312381
-2.45814e-06
0.312381
-2.22724e-06
0.312382
-1.98164e-06
0.312382
-1.68787e-06
0.312383
-1.33092e-06
0.312383
-9.2588e-07
0.312383
-5.01493e-07
0.312383
-7.60228e-08
0.312383
3.58923e-07
0.312382
8.17317e-07
0.312382
1.29301e-06
0.312382
1.75255e-06
0.312381
2.15824e-06
0.31238
2.50122e-06
0.312379
2.81362e-06
0.312378
3.14749e-06
0.312377
3.53569e-06
0.312376
3.96495e-06
0.312375
4.38012e-06
0.312374
4.7144e-06
0.312373
4.92128e-06
0.312371
4.98511e-06
0.31237
4.90696e-06
0.312369
4.6874e-06
0.312369
4.32945e-06
0.312368
3.85809e-06
0.312367
3.33081e-06
0.312366
2.8189e-06
0.312366
2.36671e-06
0.312366
1.96283e-06
0.312365
1.54895e-06
0.312365
1.05805e-06
0.312364
4.35796e-07
0.312364
-3.38387e-07
0.312365
-1.26394e-06
0.312365
-2.31029e-06
0.312366
-3.41889e-06
0.312367
-4.49021e-06
0.312369
-5.47822e-06
-6.29876e-06
0.312358
1.46579e-07
0.312358
5.28969e-07
0.312359
4.6341e-07
0.31236
8.67839e-07
0.312361
1.01966e-06
0.312361
1.12784e-06
0.312363
8.26797e-07
0.312364
8.90677e-07
0.312366
1.10288e-06
0.312367
1.48854e-06
0.312366
2.34633e-06
0.312365
2.85065e-06
0.312363
2.87091e-06
0.312362
2.94083e-06
0.31236
3.00358e-06
0.312359
2.50591e-06
0.312359
1.52789e-06
0.31236
1.05985e-06
0.312361
9.74543e-07
0.312362
6.5436e-07
0.312364
3.30418e-07
0.312366
3.56307e-07
0.312368
3.561e-07
0.31237
4.2659e-07
0.312371
6.97423e-07
0.312372
6.76849e-07
0.312373
8.58778e-07
0.312373
1.43011e-06
0.312373
1.84111e-06
0.312373
1.97395e-06
0.312373
1.96558e-06
0.312373
2.04497e-06
0.312373
2.21937e-06
0.312373
2.27615e-06
0.312373
2.08382e-06
0.312374
1.59609e-06
0.312375
1.02474e-06
0.312377
7.14378e-07
0.312379
6.15287e-07
0.312381
4.73767e-07
0.312383
4.0512e-07
0.312384
4.99213e-07
0.312385
4.66076e-07
0.312386
1.88836e-07
0.312387
-1.20567e-07
0.312388
-1.02794e-07
0.31239
-4.73912e-08
0.312392
-1.31936e-08
0.312393
3.98113e-08
0.312395
6.7281e-08
0.312398
-1.32411e-07
0.3124
-5.13094e-07
0.312403
-5.97087e-07
0.312407
-1.362e-07
0.312409
6.7371e-07
0.312412
1.5068e-06
0.312413
2.3249e-06
0.312414
3.29208e-06
0.312413
4.17114e-06
0.312411
4.50991e-06
0.312408
4.24844e-06
0.312406
3.77043e-06
0.312402
3.31357e-06
0.312399
2.68647e-06
0.312396
1.64635e-06
0.312394
3.83045e-07
0.312392
-7.68562e-07
0.31239
-1.56016e-06
0.31239
-2.01065e-06
0.312389
-2.23893e-06
0.312388
-2.32292e-06
0.312388
-2.26355e-06
0.312388
-2.01371e-06
0.312388
-1.56423e-06
0.312387
-9.99399e-07
0.312387
-4.2517e-07
0.312386
8.68435e-08
0.312384
5.10182e-07
0.312383
8.12765e-07
0.312381
9.24474e-07
0.312379
8.3518e-07
0.312378
6.48229e-07
0.312377
4.90563e-07
0.312376
3.87778e-07
0.312375
2.52098e-07
0.312374
-7.43238e-09
0.312374
-3.95356e-07
0.312374
-7.82238e-07
0.312374
-1.03067e-06
0.312374
-1.0963e-06
0.312374
-1.04326e-06
0.312374
-9.69661e-07
0.312374
-9.21842e-07
0.312374
-8.84399e-07
0.312374
-8.30205e-07
0.312373
-7.75168e-07
0.312373
-7.66137e-07
0.312372
-8.2917e-07
0.312372
-9.40573e-07
0.312372
-1.04778e-06
0.312372
-1.11848e-06
0.312373
-1.16435e-06
0.312373
-1.21625e-06
0.312374
-1.28085e-06
0.312374
-1.32385e-06
0.312375
-1.29774e-06
0.312376
-1.18862e-06
0.312377
-1.03884e-06
0.312377
-9.21977e-07
0.312377
-8.87228e-07
0.312378
-9.17872e-07
0.312378
-9.38513e-07
0.312379
-8.67682e-07
0.312379
-6.7923e-07
0.312379
-4.24536e-07
0.312379
-1.99627e-07
0.312379
-8.16329e-08
0.31238
-8.96221e-08
0.31238
-1.71031e-07
0.31238
-2.36146e-07
0.31238
-2.17662e-07
0.31238
-1.09421e-07
0.31238
3.14057e-08
0.31238
1.23235e-07
0.31238
1.10658e-07
0.31238
7.86976e-09
0.31238
-1.09552e-07
0.31238
-1.48264e-07
0.31238
-6.89464e-08
0.31238
8.55257e-08
0.31238
2.23283e-07
0.312379
2.74078e-07
0.312379
2.39569e-07
0.312379
1.85497e-07
0.312379
1.88545e-07
0.312379
2.84191e-07
0.312379
4.51943e-07
0.312379
6.42608e-07
0.312379
8.17044e-07
0.312378
9.68305e-07
0.312378
1.11731e-06
0.312378
1.29052e-06
0.312378
1.4983e-06
0.312377
1.72903e-06
0.312377
1.95847e-06
0.312376
2.16231e-06
0.312376
2.32483e-06
0.312375
2.44571e-06
0.312375
2.54755e-06
0.312374
2.6738e-06
0.312374
2.86593e-06
0.312373
3.13036e-06
0.312372
3.42361e-06
0.312372
3.6735e-06
0.312371
3.8233e-06
0.31237
3.86808e-06
0.312369
3.85811e-06
0.312368
3.86851e-06
0.312368
3.9564e-06
0.312367
4.13248e-06
0.312366
4.35934e-06
0.312365
4.57224e-06
0.312364
4.71304e-06
0.312364
4.74746e-06
0.312363
4.66276e-06
0.312363
4.46619e-06
0.312362
4.18614e-06
0.312361
3.87493e-06
0.312361
3.59934e-06
0.31236
3.41113e-06
0.31236
3.32591e-06
0.312359
3.31206e-06
0.312359
3.28665e-06
0.312358
3.13949e-06
0.312358
2.77836e-06
0.312357
2.18018e-06
0.312357
1.41455e-06
0.312357
6.17282e-07
0.312357
-1.21427e-07
0.312357
-7.54705e-07
0.312357
-1.266e-06
0.312357
-1.65383e-06
0.312358
-1.91615e-06
0.312358
-2.06278e-06
0.312358
-2.12638e-06
0.312358
-2.17314e-06
0.312359
-2.27929e-06
0.312359
-2.48396e-06
0.31236
-2.78847e-06
0.31236
-3.18232e-06
0.312361
-3.66009e-06
0.312362
-4.21595e-06
0.312363
-4.8207e-06
0.312364
-5.39762e-06
0.312365
-5.84322e-06
0.312366
-6.09324e-06
0.312367
-6.15586e-06
0.312368
-6.08898e-06
0.312369
-5.95509e-06
0.31237
-5.79201e-06
0.312371
-5.61196e-06
0.312372
-5.4149e-06
0.312373
-5.20192e-06
0.312374
-4.97922e-06
0.312375
-4.75497e-06
0.312376
-4.53179e-06
0.312377
-4.30135e-06
0.312378
-4.04714e-06
0.312379
-3.75543e-06
0.31238
-3.4273e-06
0.31238
-3.08009e-06
0.312381
-2.73466e-06
0.312381
-2.39673e-06
0.312381
-2.04551e-06
0.312382
-1.64285e-06
0.312382
-1.16084e-06
0.312382
-6.04943e-07
0.312382
-1.117e-08
0.312382
5.77396e-07
0.312382
1.13886e-06
0.312381
1.67451e-06
0.312381
2.19285e-06
0.31238
2.69382e-06
0.31238
3.16977e-06
0.312379
3.62004e-06
0.312378
4.06111e-06
0.312377
4.51795e-06
0.312376
4.99919e-06
0.312375
5.47439e-06
0.312374
5.87379e-06
0.312372
6.11693e-06
0.312371
6.15179e-06
0.31237
5.97545e-06
0.312369
5.62344e-06
0.312368
5.14348e-06
0.312368
4.58166e-06
0.312367
3.98822e-06
0.312366
3.42082e-06
0.312366
2.92165e-06
0.312365
2.47796e-06
0.312365
2.01499e-06
0.312364
1.43698e-06
0.312364
6.64662e-07
0.312364
-3.48127e-07
0.312365
-1.58439e-06
0.312365
-2.96756e-06
0.312366
-4.40291e-06
0.312367
-5.75384e-06
0.312369
-6.95312e-06
-7.85618e-06
0.312356
-3.23741e-07
0.312357
-4.13668e-07
0.312357
6.30964e-07
0.312356
1.64274e-06
0.312356
1.19943e-06
0.312357
8.81812e-07
0.312357
8.49285e-07
0.312356
1.35933e-06
0.312356
1.6342e-06
0.312356
1.32128e-06
0.312357
7.44802e-07
0.31236
5.16087e-07
0.312362
5.35683e-07
0.312364
6.84762e-07
0.312366
8.35914e-07
0.312368
1.13491e-06
0.312367
1.91327e-06
0.312366
2.44206e-06
0.312365
2.44225e-06
0.312363
2.3731e-06
0.312361
2.37468e-06
0.312359
2.4636e-06
0.312357
2.12462e-06
0.312356
1.73999e-06
0.312354
1.7625e-06
0.312353
1.79956e-06
0.312353
1.53584e-06
0.312353
1.13545e-06
0.312354
1.06001e-06
0.312355
1.07822e-06
0.312356
7.13708e-07
0.312358
3.72332e-07
0.312359
4.25788e-07
0.312361
7.02051e-07
0.312362
1.00229e-06
0.312362
1.32578e-06
0.312362
1.58635e-06
0.312361
1.80868e-06
0.312359
2.01009e-06
0.312358
2.0718e-06
0.312356
2.04389e-06
0.312354
2.07574e-06
0.312353
2.06163e-06
0.312351
1.79769e-06
0.31235
1.40727e-06
0.312348
1.13139e-06
0.312347
9.77388e-07
0.312347
9.17458e-07
0.312346
1.02451e-06
0.312344
1.29516e-06
0.312343
1.59863e-06
0.31234
1.78028e-06
0.312338
1.86593e-06
0.312336
1.91001e-06
0.312335
1.79773e-06
0.312335
1.36692e-06
0.312336
7.29621e-07
0.312339
2.25935e-07
0.312344
-2.30401e-09
0.312348
-1.95899e-07
0.312353
-5.50044e-07
0.312358
-9.31967e-07
0.312362
-1.14964e-06
0.312366
-1.27281e-06
0.312369
-1.49987e-06
0.312372
-1.83763e-06
0.312373
-2.09383e-06
0.312374
-2.14823e-06
0.312374
-2.12122e-06
0.312374
-2.17257e-06
0.312374
-2.28878e-06
0.312374
-2.33683e-06
0.312374
-2.22168e-06
0.312374
-1.95643e-06
0.312375
-1.62213e-06
0.312376
-1.28361e-06
0.312377
-9.5397e-07
0.312378
-6.16706e-07
0.312379
-2.90201e-07
0.31238
-5.36641e-08
0.312381
3.2057e-08
0.312381
2.21605e-08
0.312382
4.21626e-08
0.312382
1.50254e-07
0.312382
2.59332e-07
0.312382
2.12899e-07
0.312382
-7.93578e-08
0.312381
-5.22509e-07
0.312381
-9.33286e-07
0.312381
-1.18569e-06
0.312381
-1.28403e-06
0.312382
-1.31373e-06
0.312382
-1.33982e-06
0.312383
-1.34492e-06
0.312383
-1.26376e-06
0.312383
-1.06678e-06
0.312383
-8.00701e-07
0.312383
-5.55192e-07
0.312383
-3.94602e-07
0.312382
-3.20756e-07
0.312381
-3.02588e-07
0.31238
-3.26253e-07
0.312379
-4.08178e-07
0.312379
-5.62386e-07
0.312378
-7.60876e-07
0.312378
-9.37589e-07
0.312378
-1.03502e-06
0.312378
-1.0496e-06
0.312378
-1.03284e-06
0.312378
-1.04281e-06
0.312378
-1.08665e-06
0.312378
-1.10646e-06
0.312378
-1.02608e-06
0.312379
-8.22343e-07
0.312379
-5.58739e-07
0.312379
-3.47859e-07
0.312379
-2.70244e-07
0.312379
-3.18029e-07
0.31238
-4.00265e-07
0.31238
-4.12168e-07
0.31238
-3.09942e-07
0.31238
-1.35098e-07
0.31238
2.74137e-08