/*--------------------------------*- C++ -*----------------------------------*\
| =========                 |                                                 |
| \\      /  F ield         | OpenFOAM: The Open Source CFD Toolbox           |
|  \\    /   O peration     | Version:  2406                                  |
|   \\  /    A nd           | Website:  www.openfoam.com                      |
|    \\/     M anipulation  |                                                 |
\*---------------------------------------------------------------------------*/
FoamFile
{
    version     2.0;
    format      ascii;
    arch        "LSB;label=32;scalar=64";
    class       surfaceScalarField;
    location    "0.25";
    object      phi;
}
// * * * * * * * * * * * * * * * * * * * * * * * * * * * * * * * * * * * * * //

dimensions      [0 3 -1 0 0 0 0];

oriented        oriented;

internalField   nonuniform List<scalar> 
12225
(
2.13331e-05
8.73955e-09
2.1309e-05
2.41305e-08
2.12856e-05
2.34164e-08
2.12677e-05
1.79166e-08
2.12491e-05
1.8577e-08
2.12271e-05
2.19637e-08
2.12033e-05
2.38003e-08
2.11792e-05
2.40897e-08
2.11551e-05
2.41275e-08
2.11306e-05
2.45101e-08
2.11056e-05
2.50027e-08
2.10802e-05
2.53676e-08
2.10546e-05
2.56056e-08
2.10288e-05
2.57985e-08
2.10028e-05
2.59813e-08
2.09767e-05
2.61438e-08
2.09504e-05
2.62742e-08
2.0924e-05
2.63741e-08
2.08976e-05
2.64515e-08
2.08711e-05
2.65129e-08
2.08445e-05
2.65619e-08
2.08179e-05
2.66003e-08
2.07913e-05
2.66294e-08
2.07646e-05
2.66499e-08
2.0738e-05
2.66628e-08
2.07113e-05
2.66692e-08
2.06846e-05
2.66708e-08
2.0658e-05
2.66697e-08
2.06313e-05
2.66678e-08
2.06046e-05
2.66669e-08
2.0578e-05
2.66682e-08
2.05513e-05
2.66723e-08
2.05246e-05
2.66792e-08
2.04979e-05
2.66889e-08
2.04712e-05
2.67012e-08
2.04445e-05
2.67158e-08
2.04178e-05
2.6733e-08
2.0391e-05
2.67532e-08
2.03642e-05
2.6777e-08
2.03374e-05
2.68051e-08
2.03106e-05
2.68384e-08
2.02837e-05
2.68779e-08
2.02568e-05
2.69246e-08
2.02298e-05
2.69798e-08
2.02028e-05
2.70452e-08
2.01756e-05
2.71224e-08
2.01484e-05
2.72136e-08
2.01211e-05
2.73208e-08
2.00937e-05
2.74465e-08
2.00661e-05
2.75934e-08
2.00383e-05
2.7764e-08
2.00103e-05
2.7961e-08
1.99822e-05
2.81874e-08
1.99537e-05
2.84459e-08
1.9925e-05
2.87399e-08
1.98959e-05
2.90728e-08
1.98664e-05
2.94487e-08
1.98366e-05
2.98725e-08
1.98062e-05
3.035e-08
1.97753e-05
3.0888e-08
1.97438e-05
3.14947e-08
1.97117e-05
3.21797e-08
1.96787e-05
3.29542e-08
1.96449e-05
3.38311e-08
1.961e-05
3.48253e-08
1.95741e-05
3.59536e-08
1.95369e-05
3.72352e-08
1.94982e-05
3.86921e-08
1.94578e-05
4.03489e-08
1.94156e-05
4.22338e-08
1.93712e-05
4.43784e-08
1.93244e-05
4.68185e-08
1.92748e-05
4.95944e-08
1.9222e-05
5.27516e-08
1.91657e-05
5.63413e-08
1.91053e-05
6.04214e-08
1.90402e-05
6.50571e-08
1.89699e-05
7.03225e-08
1.88936e-05
7.63015e-08
1.88105e-05
8.30895e-08
1.87197e-05
9.07948e-08
1.86202e-05
9.95402e-08
1.85107e-05
1.09465e-07
1.839e-05
1.20727e-07
1.82565e-05
1.33503e-07
1.81085e-05
1.47992e-07
1.79441e-05
1.64414e-07
1.77611e-05
1.83011e-07
1.7557e-05
2.04047e-07
1.73292e-05
2.27807e-07
1.70746e-05
2.5459e-07
1.67899e-05
2.84702e-07
1.64715e-05
3.18448e-07
1.61154e-05
3.56117e-07
1.57174e-05
3.97964e-07
1.52732e-05
4.44186e-07
1.47783e-05
4.94886e-07
1.42283e-05
5.50031e-07
1.36189e-05
6.094e-07
1.29464e-05
6.72514e-07
1.22078e-05
7.3856e-07
1.14014e-05
8.06372e-07
1.05268e-05
8.74683e-07
9.58521e-06
9.41548e-07
8.58075e-06
1.00446e-06
7.5204e-06
1.06035e-06
6.41482e-06
1.10558e-06
5.2788e-06
1.13602e-06
4.13154e-06
1.14725e-06
2.99643e-06
1.13511e-06
1.90218e-06
1.09425e-06
8.47546e-07
1.05464e-06
3.26026e-08
8.14943e-07
-2.57482e-07
2.90085e-07
2.54153e-07
-5.11635e-07
1.27479e-06
-1.02064e-06
5.69926e-07
7.04863e-07
3.03057e-07
2.66869e-07
2.36494e-07
6.65627e-08
1.84211e-07
5.22836e-08
1.5036e-07
3.3851e-08
1.42415e-07
7.94447e-09
1.38862e-07
3.55333e-09
1.29098e-07
9.7635e-09
1.17908e-07
1.11905e-08
1.09041e-07
8.86688e-09
1.00248e-07
8.79339e-09
9.04692e-08
9.77834e-09
8.17089e-08
8.76031e-09
7.57221e-08
5.98677e-09
7.25416e-08
3.18055e-09
7.11738e-08
1.36774e-09
7.02749e-08
8.98892e-10
6.8601e-08
1.67395e-09
6.53591e-08
3.24191e-09
6.02422e-08
5.1169e-09
5.35821e-08
6.66008e-09
4.61556e-08
7.42646e-09
3.90027e-08
7.15291e-09
3.295e-08
6.05276e-09
2.80014e-08
4.94859e-09
2.37707e-08
4.23064e-09
2.01787e-08
3.59206e-09
1.72938e-08
2.88487e-09
1.51064e-08
2.18738e-09
1.34338e-08
1.67263e-09
1.19656e-08
1.46816e-09
1.04111e-08
1.55448e-09
8.71774e-09
1.69341e-09
7.03916e-09
1.67858e-09
5.79662e-09
1.24254e-09
5.23787e-09
5.58752e-10
5.28641e-09
-4.8545e-11
5.64323e-09
-3.56823e-10
5.98166e-09
-3.38424e-10
6.19089e-09
-2.09235e-10
6.32794e-09
-1.3705e-10
6.45959e-09
-1.31644e-10
6.74785e-09
-2.88266e-10
7.40254e-09
-6.54682e-10
8.6858e-09
-1.28326e-09
1.07124e-08
-2.02656e-09
1.29903e-08
-2.27789e-09
1.47079e-08
-1.7176e-09
1.54275e-08
-7.1963e-10
1.54884e-08
-6.09004e-11
1.55976e-08
-1.0923e-10
1.62058e-08
-6.08143e-10
1.76632e-08
-1.45742e-09
2.02398e-08
-2.57665e-09
2.39831e-08
-3.74326e-09
2.85943e-08
-4.61122e-09
3.34035e-08
-4.8092e-09
3.76043e-08
-4.20083e-09
4.10222e-08
-3.41785e-09
4.4072e-08
-3.04984e-09
4.69183e-08
-2.84628e-09
4.91968e-08
-2.27844e-09
5.04257e-08
-1.22896e-09
5.03767e-08
4.90099e-11
4.87155e-08
1.66116e-09
4.65827e-08
2.13285e-09
4.57964e-08
7.86283e-10
4.76825e-08
-1.88611e-09
5.28768e-08
-5.19428e-09
6.10908e-08
-8.21405e-09
7.06933e-08
-9.60251e-09
7.89145e-08
-8.22116e-09
8.42881e-08
-5.37358e-09
8.74051e-08
-3.11702e-09
8.92085e-08
-1.80343e-09
9.04142e-08
-1.20563e-09
9.19097e-08
-1.49558e-09
9.45903e-08
-2.68056e-09
9.90467e-08
-4.45639e-09
1.05364e-07
-6.3172e-09
1.12965e-07
-7.60144e-09
1.20556e-07
-7.59106e-09
1.26559e-07
-6.00242e-09
1.30484e-07
-3.92503e-09
1.32971e-07
-2.48747e-09
1.35003e-07
-2.03176e-09
1.37548e-07
-2.54519e-09
1.41404e-07
-3.85588e-09
1.46755e-07
-5.35076e-09
1.53425e-07
-6.6703e-09
1.60749e-07
-7.32413e-09
1.6757e-07
-6.821e-09
1.72688e-07
-5.11766e-09
1.75855e-07
-3.16747e-09
1.77971e-07
-2.11578e-09
1.80235e-07
-2.26333e-09
1.83059e-07
-2.82398e-09
1.85542e-07
-2.48296e-09
1.86143e-07
-6.0096e-10
1.84016e-07
2.1265e-09
1.80801e-07
3.21461e-09
1.78488e-07
2.31339e-09
1.78158e-07
3.29611e-10
1.80151e-07
-1.99306e-09
1.84318e-07
-4.16607e-09
1.9035e-07
-6.03199e-09
1.98215e-07
-7.86591e-09
2.07368e-07
-9.15221e-09
2.1594e-07
-8.57245e-09
2.2134e-07
-5.40017e-09
2.21942e-07
-6.01345e-10
2.19359e-07
2.58295e-09
2.16851e-07
2.50802e-09
2.15043e-07
1.808e-09
2.12457e-07
2.58543e-09
2.08119e-07
4.3385e-09
2.0197e-07
6.14866e-09
1.9448e-07
7.49055e-09
1.86631e-07
7.84828e-09
1.79073e-07
7.55774e-09
1.72426e-07
6.6476e-09
1.6839e-07
4.03623e-09
1.65986e-07
2.40329e-09
1.61184e-07
4.80261e-09
1.54971e-07
6.21265e-09
1.50572e-07
4.399e-09
1.50664e-07
-9.20961e-11
1.54336e-07
-3.67175e-09
1.6009e-07
-5.75398e-09
1.64295e-07
-4.20533e-09
1.6534e-07
-1.04481e-09
1.64313e-07
1.02721e-09
1.62044e-07
2.26879e-09
4.31745e-09
2.13823e-05
-2.15363e-10
2.14028e-05
3.62535e-09
2.14192e-05
7.08374e-09
2.14275e-05
9.58388e-09
2.1437e-05
9.12967e-09
2.145e-05
8.93292e-09
2.14641e-05
9.7101e-09
2.14776e-05
1.05519e-08
2.14907e-05
1.10568e-08
2.15038e-05
1.13515e-08
2.15172e-05
1.16334e-08
2.15306e-05
1.19315e-08
2.15441e-05
1.21999e-08
2.15574e-05
1.24239e-08
2.15708e-05
1.26196e-08
2.15841e-05
1.28018e-08
2.15974e-05
1.29738e-08
2.16107e-05
1.31342e-08
2.16238e-05
1.32832e-08
2.16369e-05
1.34223e-08
2.16499e-05
1.35532e-08
2.16629e-05
1.36769e-08
2.16757e-05
1.37945e-08
2.16884e-05
1.39072e-08
2.17011e-05
1.4016e-08
2.17136e-05
1.41219e-08
2.17261e-05
1.42254e-08
2.17384e-05
1.43271e-08
2.17507e-05
1.44273e-08
2.17628e-05
1.45265e-08
2.17748e-05
1.46251e-08
2.17868e-05
1.47233e-08
2.17987e-05
1.48217e-08
2.18104e-05
1.49207e-08
2.18221e-05
1.5021e-08
2.18337e-05
1.51232e-08
2.18452e-05
1.52281e-08
2.18566e-05
1.53363e-08
2.18679e-05
1.54486e-08
2.18792e-05
1.55657e-08
2.18903e-05
1.56884e-08
2.19014e-05
1.58176e-08
2.19124e-05
1.59543e-08
2.19232e-05
1.60996e-08
2.1934e-05
1.62547e-08
2.19447e-05
1.64211e-08
2.19553e-05
1.66005e-08
2.19659e-05
1.67947e-08
2.19763e-05
1.70059e-08
2.19867e-05
1.72366e-08
2.19969e-05
1.74894e-08
2.20071e-05
1.77673e-08
2.20173e-05
1.80736e-08
2.20273e-05
1.84118e-08
2.20372e-05
1.87859e-08
2.20471e-05
1.92003e-08
2.20569e-05
1.96599e-08
2.20666e-05
2.01705e-08
2.20762e-05
2.07386e-08
2.20857e-05
2.13716e-08
2.20951e-05
2.20783e-08
2.21045e-05
2.28685e-08
2.21137e-05
2.37537e-08
2.21227e-05
2.47468e-08
2.21317e-05
2.5863e-08
2.21405e-05
2.71191e-08
2.21492e-05
2.85346e-08
2.21578e-05
3.01319e-08
2.21662e-05
3.19361e-08
2.21745e-05
3.39762e-08
2.21826e-05
3.62852e-08
2.21905e-05
3.89009e-08
2.21982e-05
4.18665e-08
2.22057e-05
4.52313e-08
2.2213e-05
4.90521e-08
2.222e-05
5.33939e-08
2.22268e-05
5.83315e-08
2.22331e-05
6.39509e-08
2.22391e-05
7.03511e-08
2.22445e-05
7.76467e-08
2.22494e-05
8.59697e-08
2.22534e-05
9.54732e-08
2.22566e-05
1.06334e-07
2.22585e-05
1.18758e-07
2.22591e-05
1.32983e-07
2.22578e-05
1.49284e-07
2.22542e-05
1.6798e-07
2.22478e-05
1.89439e-07
2.22377e-05
2.14086e-07
2.22231e-05
2.42407e-07
2.22028e-05
2.74961e-07
2.21751e-05
3.1238e-07
2.21382e-05
3.55369e-07
2.20896e-05
4.04671e-07
2.20265e-05
4.61108e-07
2.19451e-05
5.25541e-07
2.18411e-05
5.98841e-07
2.17093e-05
6.81848e-07
2.15434e-05
7.75305e-07
2.13362e-05
8.79782e-07
2.10791e-05
9.95574e-07
2.07629e-05
1.12259e-06
2.03774e-05
1.2602e-06
1.99119e-05
1.40706e-06
1.93554e-05
1.5609e-06
1.86974e-05
1.7184e-06
1.7928e-05
1.875e-06
1.70392e-05
2.02483e-06
1.60262e-05
2.16017e-06
1.48889e-05
2.2725e-06
1.36371e-05
2.34598e-06
1.23162e-05
2.37558e-06
1.08107e-05
2.32038e-06
8.89334e-06
2.2075e-06
6.2978e-06
2.08391e-06
3.3742e-06
1.90296e-06
1.66921e-06
2.40985e-06
9.4849e-07
9.87589e-07
7.09856e-07
3.05197e-07
5.21825e-07
2.40314e-07
4.36917e-07
1.18759e-07
4.24869e-07
1.9992e-08
3.89746e-07
3.86764e-08
3.42424e-07
5.7086e-08
3.09065e-07
4.45499e-08
2.89401e-07
2.853e-08
2.69632e-07
2.85628e-08
2.45192e-07
3.42183e-08
2.22392e-07
3.15601e-08
2.06175e-07
2.22044e-08
1.96032e-07
1.3323e-08
1.88759e-07
8.64036e-09
1.81303e-07
8.35579e-09
1.72955e-07
1.00211e-08
1.62331e-07
1.38663e-08
1.48575e-07
1.88731e-08
1.32483e-07
2.27514e-08
1.1541e-07
2.45003e-08
9.93459e-08
2.32166e-08
8.4824e-08
2.05747e-08
7.02231e-08
1.95494e-08
5.71156e-08
1.73382e-08
4.73862e-08
1.33215e-08
4.03824e-08
9.88861e-09
3.54113e-08
7.15856e-09
3.18151e-08
5.26878e-09
2.88425e-08
4.44074e-09
2.57775e-08
4.61947e-09
2.22463e-08
5.22466e-09
1.82408e-08
5.6841e-09
1.56715e-08
3.81187e-09
1.49207e-08
1.30951e-09
1.53313e-08
-4.59147e-10
1.6288e-08
-1.31349e-09
1.70338e-08
-1.08424e-09
1.75208e-08
-6.9628e-10
1.80915e-08
-7.0771e-10
1.86513e-08
-6.91474e-10
1.94596e-08
-1.09658e-09
2.0831e-08
-2.02608e-09
2.33884e-08
-3.84063e-09
2.81892e-08
-6.82737e-09
3.36334e-08
-7.72207e-09
3.80171e-08
-6.1013e-09
4.06994e-08
-3.40198e-09
4.23423e-08
-1.70377e-09
4.43143e-08
-2.08126e-09
4.71818e-08
-3.47564e-09
5.13647e-08
-5.64033e-09
5.75017e-08
-8.71361e-09
6.55737e-08
-1.18153e-08
7.50267e-08
-1.40642e-08
8.50648e-08
-1.48473e-08
9.46014e-08
-1.37375e-08
1.03147e-07
-1.19638e-08
1.11974e-07
-1.1876e-08
1.2164e-07
-1.25131e-08
1.31044e-07
-1.16817e-08
1.38762e-07
-8.94687e-09
1.432e-07
-4.38896e-09
1.44596e-07
2.64764e-10
1.4513e-07
1.59869e-09
1.47603e-07
-1.68641e-09
1.52954e-07
-7.23758e-09
1.62857e-07
-1.50968e-08
1.77746e-07
-2.31035e-08
1.95968e-07
-2.78242e-08
2.12713e-07
-2.49661e-08
2.23155e-07
-1.58158e-08
2.30865e-07
-1.08272e-08
2.37156e-07
-8.09458e-09
2.424e-07
-6.44904e-09
2.48246e-07
-7.34142e-09
2.56452e-07
-1.08872e-08
2.67778e-07
-1.57825e-08
2.8242e-07
-2.09588e-08
2.99907e-07
-2.50886e-08
3.18725e-07
-2.64094e-08
3.36322e-07
-2.3599e-08
3.5048e-07
-1.80825e-08
3.61262e-07
-1.32701e-08
3.71511e-07
-1.22809e-08
3.83758e-07
-1.47914e-08
3.97781e-07
-1.78798e-08
4.13346e-07
-2.09154e-08
4.3087e-07
-2.41945e-08
4.50124e-07
-2.65774e-08
4.68674e-07
-2.53718e-08
4.83015e-07
-1.94578e-08
4.92491e-07
-1.26443e-08
4.98921e-07
-8.54498e-09
5.05555e-07
-8.89824e-09
5.13551e-07
-1.08194e-08
5.21329e-07
-1.02605e-08
5.25171e-07
-4.44313e-09
5.24122e-07
3.17509e-09
5.21311e-07
6.02561e-09
5.20632e-07
2.99237e-09
5.2294e-07
-1.97857e-09
5.27986e-07
-7.03845e-09
5.36094e-07
-1.22746e-08
5.46851e-07
-1.67886e-08
5.60025e-07
-2.10399e-08
5.75664e-07
-2.4791e-08
5.91452e-07
-2.43604e-08
6.02186e-07
-1.61345e-08
6.03855e-07
-2.27052e-09
5.9955e-07
6.88828e-09
5.95528e-07
6.52939e-09
5.93723e-07
3.6132e-09
5.90969e-07
5.33918e-09
5.84413e-07
1.0895e-08
5.72695e-07
1.78666e-08
5.56956e-07
2.32297e-08
5.40293e-07
2.45112e-08
5.23976e-07
2.38751e-08
5.07733e-07
2.289e-08
4.92468e-07
1.93014e-08
4.83108e-07
1.1763e-08
4.78122e-07
9.78916e-09
4.72365e-07
1.19693e-08
4.66488e-07
1.02757e-08
4.61945e-07
4.45158e-09
4.63973e-07
-5.69977e-09
4.6909e-07
-1.08715e-08
4.666e-07
-1.71465e-09
4.53127e-07
1.24275e-08
4.36086e-07
1.80686e-08
4.20883e-07
1.74722e-08
2.24783e-08
2.13668e-05
1.31486e-09
2.13665e-05
3.87697e-09
2.13687e-05
4.8932e-09
2.13728e-05
5.50602e-09
2.13756e-05
6.26359e-09
2.13775e-05
7.11728e-09
2.13793e-05
7.86913e-09
2.13814e-05
8.46503e-09
2.13835e-05
8.93352e-09
2.13855e-05
9.31967e-09
2.13875e-05
9.66716e-09
2.13894e-05
9.9861e-09
2.13914e-05
1.02679e-08
2.13933e-05
1.0511e-08
2.13952e-05
1.07242e-08
2.13971e-05
1.09174e-08
2.13989e-05
1.10957e-08
2.14008e-05
1.12604e-08
2.14027e-05
1.14124e-08
2.14046e-05
1.15527e-08
2.14064e-05
1.16823e-08
2.14083e-05
1.18024e-08
2.14102e-05
1.19144e-08
2.14121e-05
1.20199e-08
2.1414e-05
1.21204e-08
2.14159e-05
1.22173e-08
2.14178e-05
1.23115e-08
2.14197e-05
1.24036e-08
2.14216e-05
1.24938e-08
2.14236e-05
1.25822e-08
2.14255e-05
1.26693e-08
2.14275e-05
1.27553e-08
2.14295e-05
1.28408e-08
2.14315e-05
1.29265e-08
2.14335e-05
1.30135e-08
2.14355e-05
1.31025e-08
2.14375e-05
1.31946e-08
2.14396e-05
1.32906e-08
2.14417e-05
1.33914e-08
2.14437e-05
1.34982e-08
2.14458e-05
1.36118e-08
2.14479e-05
1.37336e-08
2.145e-05
1.38646e-08
2.14521e-05
1.40063e-08
2.14542e-05
1.41602e-08
2.14563e-05
1.43281e-08
2.14583e-05
1.4512e-08
2.14604e-05
1.4714e-08
2.14625e-05
1.49366e-08
2.14645e-05
1.51824e-08
2.14666e-05
1.54547e-08
2.14686e-05
1.57568e-08
2.14706e-05
1.60925e-08
2.14725e-05
1.64662e-08
2.14744e-05
1.68827e-08
2.14763e-05
1.73475e-08
2.14781e-05
1.78668e-08
2.14798e-05
1.84475e-08
2.14814e-05
1.90976e-08
2.1483e-05
1.9826e-08
2.14844e-05
2.06429e-08
2.14857e-05
2.156e-08
2.14869e-05
2.25904e-08
2.14879e-05
2.37489e-08
2.14887e-05
2.50527e-08
2.14893e-05
2.65208e-08
2.14896e-05
2.81751e-08
2.14897e-05
3.00399e-08
2.14895e-05
3.21431e-08
2.1489e-05
3.4516e-08
2.14881e-05
3.71942e-08
2.14868e-05
4.02179e-08
2.1485e-05
4.36325e-08
2.14827e-05
4.74898e-08
2.14799e-05
5.18482e-08
2.14766e-05
5.67741e-08
2.14726e-05
6.2343e-08
2.14679e-05
6.86404e-08
2.14625e-05
7.57635e-08
2.14563e-05
8.38227e-08
2.14493e-05
9.29434e-08
2.14415e-05
1.03268e-07
2.14329e-05
1.14959e-07
2.14234e-05
1.28199e-07
2.14132e-05
1.43198e-07
2.14023e-05
1.60194e-07
2.13908e-05
1.79455e-07
2.1379e-05
2.01289e-07
2.1367e-05
2.26042e-07
2.13553e-05
2.5411e-07
2.13444e-05
2.85942e-07
2.13347e-05
3.22049e-07
2.1327e-05
3.63011e-07
2.13222e-05
4.09481e-07
2.13211e-05
4.62205e-07
2.13247e-05
5.22024e-07
2.13336e-05
5.89887e-07
2.13486e-05
6.66846e-07
2.13699e-05
7.5406e-07
2.13969e-05
8.52776e-07
2.14281e-05
9.64294e-07
2.14608e-05
1.08992e-06
2.14902e-05
1.23085e-06
2.15091e-05
1.38812e-06
2.15077e-05
1.56234e-06
2.14725e-05
1.7536e-06
2.13863e-05
1.96121e-06
2.12275e-05
2.18361e-06
2.09695e-05
2.4181e-06
2.05805e-05
2.66159e-06
2.00163e-05
2.91009e-06
1.92298e-05
3.16213e-06
1.81332e-05
3.41701e-06
1.66531e-05
3.68757e-06
1.47337e-05
4.00329e-06
1.22969e-05
4.33975e-06
9.66115e-06
5.04563e-06
6.43552e-06
4.21322e-06
3.48914e-06
3.25157e-06
1.28947e-06
2.43999e-06
1.02339e-06
3.84841e-07
9.23888e-07
1.19493e-07
6.52909e-07
3.09655e-07
5.23328e-07
1.86667e-07
4.85393e-07
8.24846e-08
4.77066e-07
3.68575e-08
4.37732e-07
6.78961e-08
3.87037e-07
8.49136e-08
3.49031e-07
6.95663e-08
3.27748e-07
4.34871e-08
3.15459e-07
2.56124e-08
3.05018e-07
1.90811e-08
2.90603e-07
2.2771e-08
2.69323e-07
3.13007e-08
2.44618e-07
3.85719e-08
2.23941e-07
3.95498e-08
2.03346e-07
4.33467e-08
1.81927e-07
4.59186e-08
1.61954e-07
4.31897e-08
1.41688e-07
4.08408e-08
1.00456e-07
6.07814e-08
6.75409e-08
5.02536e-08
5.29044e-08
2.7958e-08
4.46129e-08
1.81801e-08
3.91065e-08
1.26649e-08
3.64585e-08
7.91674e-09
3.49656e-08
5.9337e-09
3.2589e-08
6.99601e-09
2.85237e-08
9.28999e-09
2.05756e-08
1.36322e-08
1.73899e-08
6.99757e-09
1.82929e-08
4.06573e-10
1.93139e-08
-1.48021e-09
2.06987e-08
-2.69825e-09
2.12312e-08
-1.61678e-09
2.11236e-08
-5.88634e-10
2.20045e-08
-1.58864e-09
2.24107e-08
-1.0976e-09
2.35272e-08
-2.21317e-09
2.57124e-08
-4.21122e-09
2.57668e-08
-3.89504e-09
3.30725e-08
-1.41331e-08
3.99271e-08
-1.45767e-08
4.52534e-08
-1.14275e-08
4.77324e-08
-5.88104e-09
5.1757e-08
-5.72837e-09
6.0894e-08
-1.12183e-08
7.06953e-08
-1.3277e-08
7.81409e-08
-1.30859e-08
8.47233e-08
-1.52959e-08
9.24602e-08
-1.95522e-08
1.01334e-07
-2.29384e-08
1.10588e-07
-2.41012e-08
1.20218e-07
-2.33671e-08
1.29722e-07
-2.14678e-08
1.43303e-07
-2.54571e-08
1.63107e-07
-3.23172e-08
1.82605e-07
-3.11794e-08
2.0302e-07
-2.93616e-08
2.24787e-07
-2.6156e-08
2.47034e-07
-2.19829e-08
2.5205e-07
-3.41698e-09
2.53535e-07
-3.17127e-09
2.58275e-07
-1.19774e-08
2.67056e-07
-2.38785e-08
2.80835e-07
-3.68827e-08
2.99699e-07
-4.66879e-08
3.19716e-07
-4.4983e-08
3.16436e-07
-1.2536e-08
3.19147e-07
-1.35382e-08
3.2928e-07
-1.82267e-08
3.41624e-07
-1.87933e-08
3.57011e-07
-2.2729e-08
3.70713e-07
-2.45889e-08
3.84361e-07
-2.943e-08
3.99912e-07
-3.65103e-08
4.18612e-07
-4.37888e-08
4.40364e-07
-4.81609e-08
4.6425e-07
-4.7485e-08
4.95982e-07
-4.98143e-08
5.3751e-07
-5.47983e-08
5.69191e-07
-4.39619e-08
5.91092e-07
-3.66928e-08
6.1204e-07
-3.88274e-08
6.32975e-07
-4.1851e-08
6.5582e-07
-4.70389e-08
6.84949e-07
-5.5707e-08
7.18492e-07
-5.89147e-08
7.48588e-07
-4.95537e-08
7.64679e-07
-2.87355e-08
7.72633e-07
-1.64987e-08
7.81993e-07
-1.82583e-08
7.96065e-07
-2.48918e-08
8.15124e-07
-2.93191e-08
8.33044e-07
-2.23636e-08
8.32865e-07
3.35436e-09
8.31773e-07
7.11801e-09
8.37977e-07
-3.21242e-09
8.46208e-07
-1.02097e-08
8.53238e-07
-1.40682e-08
8.6024e-07
-1.92759e-08
8.69082e-07
-2.56307e-08
8.80794e-07
-3.27517e-08
8.9632e-07
-4.03174e-08
9.17596e-07
-4.56369e-08
9.42711e-07
-4.1249e-08
9.50751e-07
-1.03102e-08
9.44136e-07
1.35028e-08
9.42817e-07
7.84808e-09
9.48029e-07
-1.59849e-09
9.53881e-07
-5.12971e-10
9.54292e-07
1.04839e-08
9.43949e-07
2.82103e-08
9.26752e-07
4.04265e-08
9.09027e-07
4.22358e-08
8.95195e-07
3.77074e-08
8.80046e-07
3.80382e-08
8.57507e-07
4.18412e-08
8.34485e-07
3.4785e-08
8.24583e-07
1.96909e-08
8.3146e-07
5.09259e-09
8.44774e-07
-3.03883e-09
8.61105e-07
-1.18792e-08
8.73267e-07
-1.78619e-08
8.79724e-07
-1.7328e-08
8.8634e-07
-8.33147e-09
8.57959e-07
4.08086e-08
7.87042e-07
8.89862e-08
6.96148e-07
1.08366e-07
9.82275e-08
2.13751e-05
3.40063e-10
2.13771e-05
1.91102e-09
2.13785e-05
3.49084e-09
2.13794e-05
4.58587e-09
2.13803e-05
5.31489e-09
2.13816e-05
5.89831e-09
2.1383e-05
6.46422e-09
2.13844e-05
7.0111e-09
2.13859e-05
7.49832e-09
2.13873e-05
7.91591e-09
2.13886e-05
8.27905e-09
2.139e-05
8.60334e-09
2.13914e-05
8.89447e-09
2.13928e-05
9.15397e-09
2.13941e-05
9.38529e-09
2.13954e-05
9.5936e-09
2.13967e-05
9.78318e-09
2.1398e-05
9.95666e-09
2.13993e-05
1.01158e-08
2.14006e-05
1.02621e-08
2.14019e-05
1.03971e-08
2.14032e-05
1.05222e-08
2.14045e-05
1.06387e-08
2.14057e-05
1.07479e-08
2.1407e-05
1.08511e-08
2.14083e-05
1.09495e-08
2.14095e-05
1.10442e-08
2.14108e-05
1.1136e-08
2.14121e-05
1.12258e-08
2.14133e-05
1.13141e-08
2.14146e-05
1.14014e-08
2.14159e-05
1.14885e-08
2.14171e-05
1.1576e-08
2.14184e-05
1.16645e-08
2.14197e-05
1.17549e-08
2.14209e-05
1.18481e-08
2.14222e-05
1.19449e-08
2.14234e-05
1.20465e-08
2.14246e-05
1.21539e-08
2.14259e-05
1.22681e-08
2.14271e-05
1.23904e-08
2.14283e-05
1.25222e-08
2.14295e-05
1.26648e-08
2.14307e-05
1.28198e-08
2.14319e-05
1.29891e-08
2.1433e-05
1.31747e-08
2.14342e-05
1.33789e-08
2.14353e-05
1.36042e-08
2.14363e-05
1.38535e-08
2.14374e-05
1.41301e-08
2.14384e-05
1.44377e-08
2.14394e-05
1.47804e-08
2.14403e-05
1.51627e-08
2.14412e-05
1.55897e-08
2.1442e-05
1.60672e-08
2.14428e-05
1.66015e-08
2.14434e-05
1.71999e-08
2.1444e-05
1.78705e-08
2.14445e-05
1.86223e-08
2.14448e-05
1.94658e-08
2.14451e-05
2.04127e-08
2.14452e-05
2.14762e-08
2.14451e-05
2.26714e-08
2.14448e-05
2.40153e-08
2.14443e-05
2.55272e-08
2.14436e-05
2.72287e-08
2.14427e-05
2.91444e-08
2.14414e-05
3.13021e-08
2.14398e-05
3.37328e-08
2.14378e-05
3.6472e-08
2.14355e-05
3.95591e-08
2.14327e-05
4.3039e-08
2.14293e-05
4.6962e-08
2.14254e-05
5.13851e-08
2.14209e-05
5.63723e-08
2.14157e-05
6.19958e-08
2.14097e-05
6.83367e-08
2.14029e-05
7.54866e-08
2.13951e-05
8.35485e-08
2.13863e-05
9.2638e-08
2.13763e-05
1.02885e-07
2.13651e-05
1.14437e-07
2.13526e-05
1.27456e-07
2.13387e-05
1.42126e-07
2.13233e-05
1.58653e-07
2.13062e-05
1.77265e-07
2.12874e-05
1.98217e-07
2.12669e-05
2.21792e-07
2.12447e-05
2.48304e-07
2.12207e-05
2.78098e-07
2.11951e-05
3.11556e-07
2.1168e-05
3.49095e-07
2.11399e-05
3.91172e-07
2.11111e-05
4.38284e-07
2.10823e-05
4.9097e-07
2.10545e-05
5.49816e-07
2.10289e-05
6.1546e-07
2.10072e-05
6.88598e-07
2.09912e-05
7.69993e-07
2.09835e-05
8.60497e-07
2.09867e-05
9.61067e-07
2.10039e-05
1.0728e-06
2.10377e-05
1.19697e-06
2.10908e-05
1.33506e-06
2.11643e-05
1.48882e-06
2.12577e-05
1.66027e-06
2.13671e-05
1.85174e-06
2.14849e-05
2.06588e-06
2.15973e-05
2.30567e-06
2.16845e-05
2.57442e-06
2.17187e-05
2.87585e-06
2.16674e-05
3.21346e-06
2.14927e-05
3.59172e-06
2.11672e-05
4.01308e-06
2.0678e-05
4.49241e-06
2.00141e-05
5.00367e-06
1.94095e-05
5.6502e-06
1.75476e-05
6.0752e-06
1.43244e-05
6.4747e-06
1.00699e-05
6.69456e-06
6.05925e-06
4.39545e-06
3.31432e-06
2.86443e-06
1.43543e-06
2.18855e-06
9.80958e-07
6.41135e-07
9.68551e-07
9.48919e-08
9.13728e-07
9.16798e-08
6.95126e-07
2.86498e-07
5.68595e-07
2.11445e-07
5.19857e-07
1.18304e-07
5.06792e-07
5.6552e-08
5.05257e-07
2.71479e-08
4.99219e-07
2.51184e-08
4.68313e-07
5.36771e-08
3.65244e-07
1.3437e-07
2.78895e-07
1.24921e-07
2.56686e-07
6.17584e-08
2.3847e-07
6.15628e-08
2.13586e-07
7.08032e-08
1.85611e-07
7.11646e-08
1.71584e-07
5.4868e-08
1.12067e-07
1.20298e-07
7.43811e-08
8.7939e-08
5.35266e-08
4.88125e-08
3.94509e-08
3.22559e-08
2.42797e-08
2.78361e-08
1.62182e-08
1.59782e-08
1.52892e-08
6.86266e-09
1.47119e-08
7.57334e-09
5.22472e-09
1.87771e-08
5.41044e-09
1.34464e-08
1.22864e-08
1.21565e-10
1.54406e-08
-2.74761e-09
1.11722e-08
2.7881e-09
3.20078e-09
5.27321e-09
3.89675e-09
-2.31274e-09
6.23033e-09
-2.9222e-09
5.29969e-10
4.11174e-09
-5.88133e-09
5.31372e-09
-4.91301e-09
-3.18149e-09
1.52176e-09
-1.0646e-08
3.64654e-09
-6.01982e-09
1.68137e-09
-1.21679e-08
1.25558e-09
-1.41509e-08
7.55933e-09
-1.77313e-08
1.71242e-08
-1.54459e-08
3.14742e-08
-2.00783e-08
5.26303e-08
-3.23744e-08
7.83532e-08
-3.89998e-08
1.01125e-07
-3.58575e-08
1.05361e-07
-1.95318e-08
1.09077e-07
-2.32681e-08
1.15514e-07
-2.93754e-08
1.18062e-07
-2.66497e-08
1.23699e-07
-2.90038e-08
1.18874e-07
-1.66433e-08
1.34217e-07
-4.08001e-08
1.50633e-07
-4.87326e-08
1.6392e-07
-4.44672e-08
1.78459e-07
-4.39002e-08
2.1032e-07
-5.80172e-08
3.09928e-07
-1.21591e-07
3.90337e-07
-8.38261e-08
3.96933e-07
-9.76725e-09
3.97928e-07
-1.29721e-08
4.01662e-07
-2.76125e-08
4.0872e-07
-4.39409e-08
4.19161e-07
-5.71283e-08
4.33827e-07
-5.96492e-08
3.47212e-07
7.40787e-08
3.04038e-07
2.96357e-08
3.11811e-07
-2.59993e-08
3.4008e-07
-4.70625e-08
4.00971e-07
-8.362e-08
4.21167e-07
-4.47847e-08
4.40341e-07
-4.86045e-08
4.54341e-07
-5.05099e-08
4.64294e-07
-5.37417e-08
4.68956e-07
-5.28237e-08
4.74159e-07
-5.26873e-08
4.79751e-07
-5.54065e-08
6.11561e-07
-1.86608e-07
7.27288e-07
-1.59688e-07
7.61361e-07
-7.07659e-08
7.92207e-07
-6.96741e-08
8.24413e-07
-7.40569e-08
8.42944e-07
-6.55697e-08
8.66796e-07
-7.9559e-08
9.04657e-07
-9.67756e-08
9.52097e-07
-9.69939e-08
1.01892e-06
-9.55574e-08
1.05255e-06
-5.01308e-08
1.0624e-06
-2.81058e-08
1.07894e-06
-4.14326e-08
1.10289e-06
-5.32683e-08
1.12365e-06
-4.31237e-08
1.1337e-06
-6.69195e-09
1.14168e-06
-8.69736e-10
1.16106e-06
-2.25919e-08
1.17713e-06
-2.62783e-08
1.18028e-06
-1.72165e-08
1.17895e-06
-1.79512e-08
1.18057e-06
-2.72487e-08
1.18829e-06
-4.04649e-08
1.20312e-06
-5.51485e-08
1.22265e-06
-6.51655e-08
1.24413e-06
-6.27346e-08
1.26658e-06
-3.27617e-08
1.27592e-06
4.17068e-09
1.28601e-06
-2.24693e-09
1.30298e-06
-1.85687e-08
1.3275e-06
-2.50299e-08
1.35351e-06
-1.55321e-08
1.36161e-06
2.01088e-08
1.35245e-06
4.95918e-08
1.32811e-06
6.65723e-08
1.30379e-06
6.20285e-08
1.28562e-06
5.62075e-08
1.27518e-06
5.22868e-08
1.2712e-06
3.87615e-08
1.27278e-06
1.81112e-08
1.2847e-06
-6.82848e-09
1.31543e-06
-3.37708e-08
1.36346e-06
-5.99038e-08
1.41785e-06
-7.22497e-08
1.42937e-06
-2.88529e-08
1.41164e-06
9.39905e-09
1.45139e-06
1.05812e-09
1.35744e-06
1.82934e-07
1.28816e-06
1.77644e-07
1.4424e-07
2.13746e-05
5.78677e-10
2.13743e-05
2.17696e-09
2.13747e-05
3.11955e-09
2.13756e-05
3.62468e-09
2.13768e-05
4.13358e-09
2.1378e-05
4.71147e-09
2.13792e-05
5.27467e-09
2.13804e-05
5.77327e-09
2.13817e-05
6.20604e-09
2.1383e-05
6.58791e-09
2.13844e-05
6.93179e-09
2.13858e-05
7.24364e-09
2.13871e-05
7.52519e-09
2.13885e-05
7.77808e-09
2.13899e-05
8.00552e-09
2.13913e-05
8.21147e-09
2.13926e-05
8.39932e-09
2.1394e-05
8.5715e-09
2.13954e-05
8.72982e-09
2.13968e-05
8.87579e-09
2.13982e-05
9.01075e-09
2.13996e-05
9.13599e-09
2.1401e-05
9.25278e-09
2.14023e-05
9.36241e-09
2.14037e-05
9.46613e-09
2.14051e-05
9.56508e-09
2.14065e-05
9.66028e-09
2.14079e-05
9.75256e-09
2.14093e-05
9.84268e-09
2.14106e-05
9.9313e-09
2.1412e-05
1.00191e-08
2.14134e-05
1.01066e-08
2.14148e-05
1.01947e-08
2.14162e-05
1.02841e-08
2.14176e-05
1.03757e-08
2.14189e-05
1.04704e-08
2.14203e-05
1.05691e-08
2.14217e-05
1.0673e-08
2.1423e-05
1.07832e-08
2.14244e-05
1.0901e-08
2.14258e-05
1.10275e-08
2.14271e-05
1.11644e-08
2.14285e-05
1.13131e-08
2.14298e-05
1.14755e-08
2.14312e-05
1.16536e-08
2.14325e-05
1.18495e-08
2.14338e-05
1.20658e-08
2.14351e-05
1.23051e-08
2.14364e-05
1.25706e-08
2.14377e-05
1.28658e-08
2.14389e-05
1.31946e-08
2.14401e-05
1.35612e-08
2.14413e-05
1.39707e-08
2.14425e-05
1.44284e-08
2.14436e-05
1.49406e-08
2.14447e-05
1.55142e-08
2.14457e-05
1.61571e-08
2.14467e-05
1.68779e-08
2.14477e-05
1.76867e-08
2.14485e-05
1.85947e-08
2.14493e-05
1.96145e-08
2.145e-05
2.07605e-08
2.14507e-05
2.20486e-08
2.14512e-05
2.34972e-08
2.14516e-05
2.51266e-08
2.14518e-05
2.696e-08
2.1452e-05
2.90232e-08
2.14519e-05
3.13455e-08
2.14517e-05
3.39597e-08
2.14513e-05
3.69026e-08
2.14506e-05
4.02156e-08
2.14497e-05
4.39453e-08
2.14485e-05
4.81439e-08
2.1447e-05
5.28702e-08
2.14452e-05
5.81898e-08
2.1443e-05
6.41768e-08
2.14405e-05
7.09139e-08
2.14375e-05
7.84939e-08
2.1434e-05
8.70206e-08
2.143e-05
9.66102e-08
2.14255e-05
1.07392e-07
2.14204e-05
1.19512e-07
2.14148e-05
1.3313e-07
2.14085e-05
1.48427e-07
2.14015e-05
1.65601e-07
2.13939e-05
1.84873e-07
2.13856e-05
2.06488e-07
2.13767e-05
2.30715e-07
2.13672e-05
2.5785e-07
2.1357e-05
2.88218e-07
2.13464e-05
3.22173e-07
2.13354e-05
3.60101e-07
2.13242e-05
4.02419e-07
2.13129e-05
4.49577e-07
2.13018e-05
5.02058e-07
2.12912e-05
5.60373e-07
2.12816e-05
6.2507e-07
2.12735e-05
6.96725e-07
2.12675e-05
7.75944e-07
2.12647e-05
8.63368e-07
2.12661e-05
9.59682e-07
2.12732e-05
1.06562e-06
2.12882e-05
1.18201e-06
2.13135e-05
1.30978e-06
2.13522e-05
1.45006e-06
2.14082e-05
1.60427e-06
2.14858e-05
1.77418e-06
2.15895e-05
1.96213e-06
2.17241e-05
2.17112e-06
2.18936e-05
2.40495e-06
2.21011e-05
2.66834e-06
2.23479e-05
2.96663e-06
2.26333e-05
3.30634e-06
2.29535e-05
3.69286e-06
2.33112e-05
4.13475e-06
2.36859e-05
4.62892e-06
2.41541e-05
5.18198e-06
2.44471e-05
5.78227e-06
2.4563e-05
6.35875e-06
2.4385e-05
6.8726e-06
2.18964e-05
6.88407e-06
1.79607e-05
6.80012e-06
1.33999e-05
6.7493e-06
8.80295e-06
5.23809e-06
5.2521e-06
3.64574e-06
2.97962e-06
2.36415e-06
1.50195e-06
1.76417e-06
1.07695e-06
6.36442e-07
1.08796e-06
1.07293e-07
1.01931e-06
1.25206e-07
8.66346e-07
1.80111e-07
7.22503e-07
1.68962e-07
6.14402e-07
1.61778e-07
4.04387e-07
3.44385e-07
2.03672e-07
3.25636e-07
1.38655e-07
1.26776e-07
1.20976e-07
7.92416e-08
1.29168e-07
6.26114e-08
5.55425e-08
1.4479e-07
-4.4748e-08
1.55158e-07
-1.85561e-07
2.61111e-07
-3.18265e-07
2.20643e-07
-4.02043e-07
1.32591e-07
-4.29103e-07
5.93161e-08
-3.95675e-07
-5.59194e-09
-3.80455e-07
7.58125e-10
-5.24573e-07
1.5098e-07
-7.63325e-07
2.46326e-07
-1.00679e-06
2.62238e-07
-1.21925e-06
2.25913e-07
-1.398e-06
1.78872e-07
-1.55083e-06
1.5008e-07
-1.6791e-06
1.31056e-07
-1.74812e-06
7.42944e-08
-1.82401e-06
7.35724e-08
-1.90256e-06
7.56305e-08
-1.93179e-06
3.33446e-08
-1.88218e-06
-4.42983e-08
-1.7119e-06
-1.73464e-07
-1.42462e-06
-2.97918e-07
-1.07285e-06
-3.57795e-07
-6.33244e-07
-4.51772e-07
-2.05201e-07
-4.42194e-07
-9.96924e-08
-1.2324e-07
-1.4146e-07
2.63214e-08
-1.94924e-07
3.33854e-08
-1.83096e-07
-4.42015e-08
-7.6582e-08
-1.45514e-07
3.62607e-08
-1.487e-07
8.5963e-08
-6.92341e-08
1.0738e-07
-4.46851e-08
1.11482e-07
-3.34778e-08
1.08307e-07
-2.34741e-08
1.25138e-07
-4.58347e-08
2.02036e-07
-9.35415e-08
3.1955e-07
-1.58314e-07
4.36229e-07
-1.65412e-07
5.29798e-07
-1.38036e-07
5.89756e-07
-1.03858e-07
6.06999e-07
-7.526e-08
6.14348e-07
-1.28941e-07
5.85624e-07
-5.51021e-08
5.22464e-07
5.33935e-08
5.284e-07
-1.89082e-08
5.45858e-07
-4.50711e-08
5.42283e-07
-4.03655e-08
5.23375e-07
-3.82204e-08
4.39646e-07
2.40793e-08
2.37179e-07
2.76546e-07
3.0374e-08
2.36441e-07
-1.31589e-07
1.35964e-07
-2.12647e-07
3.39955e-08
-1.27445e-07
-1.68822e-07
1.26346e-07
-2.98575e-07
3.33995e-07
-2.56253e-07
4.29222e-07
-1.45738e-07
4.49291e-07
-7.38103e-08
4.22442e-07
-2.59748e-08
3.67769e-07
1.98551e-09
3.34216e-07
-2.1853e-08
3.97065e-07
-2.49458e-07
5.37109e-07
-2.99732e-07
6.86674e-07
-2.20331e-07
7.87744e-07
-1.70744e-07
9.17435e-07
-2.03748e-07
1.0024e-06
-1.50538e-07
1.01525e-06
-9.24025e-08
1.01106e-06
-9.259e-08
9.92372e-07