/*--------------------------------*- C++ -*----------------------------------*\
| =========                 |                                                 |
| \\      /  F ield         | OpenFOAM: The Open Source CFD Toolbox           |
|  \\    /   O peration     | Version:  2406                                  |
|   \\  /    A nd           | Website:  www.openfoam.com                      |
|    \\/     M anipulation  |                                                 |
\*---------------------------------------------------------------------------*/
FoamFile
{
    version     2.0;
    format      ascii;
    arch        "LSB;label=32;scalar=64";
    class       volVectorField;
    location    "0.25";
    object      U;
}
// * * * * * * * * * * * * * * * * * * * * * * * * * * * * * * * * * * * * * //

dimensions      [0 1 -1 0 0 0 0];

internalField   nonuniform List<vector> 
6250
(
(30.0947 0.000133674 0)
(51.6874 0.000585985 0)
(44.8778 0.00103158 0)
(37.2584 0.00109027 0)
(36.6518 0.000932375 0)
(38.6811 0.000856806 0)
(39.6101 0.000934999 0)
(39.3588 0.000925337 0)
(38.9912 0.000701811 0)
(38.9256 0.000572486 0)
(39.0087 0.000627334 0)
(39.0592 0.000664992 0)
(39.0532 0.000684174 0)
(39.0354 0.000806138 0)
(39.0295 0.00101869 0)
(39.0318 0.00118036 0)
(39.0334 0.00120529 0)
(39.0326 0.00113468 0)
(39.031 0.00108624 0)
(39.0299 0.00108064 0)
(39.0291 0.00104479 0)
(39.0287 0.000933585 0)
(39.0281 0.000754457 0)
(39.0276 0.000554151 0)
(39.0273 0.00041339 0)
(39.027 0.000406933 0)
(39.0264 0.000467985 0)
(39.026 0.000553062 0)
(39.0255 0.000678434 0)
(39.0247 0.000775984 0)
(39.0241 0.000765036 0)
(39.0236 0.000608688 0)
(39.0233 0.000365348 0)
(39.0231 0.000152538 0)
(39.0229 1.18812e-06 0)
(39.0229 -0.000101503 0)
(39.0228 -0.000149762 0)
(39.0227 -0.000153011 0)
(39.0226 -0.00013533 0)
(39.0224 -0.000127796 0)
(39.0222 -0.000179716 0)
(39.0221 -0.000292868 0)
(39.0221 -0.000392117 0)
(39.0221 -0.000420665 0)
(39.0221 -0.000365214 0)
(39.0222 -0.000222839 0)
(39.0221 -5.19869e-05 0)
(39.0219 4.12574e-05 0)
(39.0217 -2.47665e-05 0)
(39.0217 -0.000224995 0)
(39.0217 -0.000470537 0)
(39.0218 -0.000704651 0)
(39.022 -0.000876469 0)
(39.0223 -0.00091842 0)
(39.0224 -0.000798682 0)
(39.0224 -0.000613277 0)
(39.0223 -0.000487021 0)
(39.0223 -0.000463655 0)
(39.0224 -0.000495436 0)
(39.0225 -0.00053815 0)
(39.0226 -0.000566645 0)
(39.0228 -0.000538347 0)
(39.023 -0.000385523 0)
(39.0232 -9.35319e-05 0)
(39.0233 0.000232362 0)
(39.0233 0.000464153 0)
(39.0234 0.000572052 0)
(39.0235 0.000603439 0)
(39.0235 0.000602079 0)
(39.0236 0.000584093 0)
(39.0237 0.000540122 0)
(39.0239 0.000463247 0)
(39.0241 0.000351155 0)
(39.0243 0.000212428 0)
(39.0245 6.71509e-05 0)
(39.0247 -6.1607e-05 0)
(39.0249 -0.000158662 0)
(39.0252 -0.000219458 0)
(39.0254 -0.000243515 0)
(39.0255 -0.000230535 0)
(39.0257 -0.000183192 0)
(39.0258 -0.000112015 0)
(39.0259 -3.50435e-05 0)
(39.0259 2.44119e-05 0)
(39.0259 5.17473e-05 0)
(39.0259 4.91772e-05 0)
(39.0259 3.53784e-05 0)
(39.0259 3.37005e-05 0)
(39.026 5.35802e-05 0)
(39.026 7.83609e-05 0)
(39.026 8.41469e-05 0)
(39.026 6.16099e-05 0)
(39.026 2.29214e-05 0)
(39.0261 -9.08344e-06 0)
(39.0261 -2.03659e-05 0)
(39.0262 -1.81081e-05 0)
(39.0262 -2.15379e-05 0)
(39.0262 -4.04595e-05 0)
(39.0263 -6.47918e-05 0)
(39.0263 -7.54154e-05 0)
(39.0264 -6.40264e-05 0)
(39.0264 -4.27333e-05 0)
(39.0264 -3.08375e-05 0)
(39.0264 -3.44594e-05 0)
(39.0264 -4.34614e-05 0)
(39.0264 -4.47008e-05 0)
(39.0264 -3.69768e-05 0)
(39.0264 -3.16485e-05 0)
(39.0264 -4.01618e-05 0)
(39.0264 -6.23371e-05 0)
(39.0264 -8.47436e-05 0)
(39.0265 -9.24412e-05 0)
(39.0265 -8.35338e-05 0)
(39.0266 -6.98475e-05 0)
(39.0266 -6.56707e-05 0)
(39.0267 -7.45744e-05 0)
(39.0267 -8.65901e-05 0)
(39.0268 -8.84674e-05 0)
(39.0268 -7.35853e-05 0)
(39.0268 -4.9272e-05 0)
(39.0268 -3.17239e-05 0)
(39.0269 -2.78891e-05 0)
(39.0269 -3.3238e-05 0)
(39.0269 -3.75451e-05 0)
(39.0269 -3.26396e-05 0)
(39.0269 -1.65112e-05 0)
(39.0269 3.27189e-06 0)
(39.0269 2.0944e-05 0)
(39.0269 3.69957e-05 0)
(39.0269 5.49114e-05 0)
(39.0268 7.44751e-05 0)
(39.0267 8.94133e-05 0)
(39.0267 9.34851e-05 0)
(39.0266 8.80825e-05 0)
(39.0266 8.25476e-05 0)
(39.0265 8.57477e-05 0)
(39.0265 9.8294e-05 0)
(39.0264 0.000112432 0)
(39.0263 0.000118981 0)
(39.0262 0.000114872 0)
(39.0261 0.000104501 0)
(39.026 9.49656e-05 0)
(39.0259 8.97379e-05 0)
(39.0259 8.74251e-05 0)
(39.0258 8.56182e-05 0)
(39.0257 8.46371e-05 0)
(39.0256 8.69808e-05 0)
(39.0255 9.19e-05 0)
(39.0254 9.29368e-05 0)
(39.0253 7.99244e-05 0)
(39.0252 4.70329e-05 0)
(39.0252 2.50383e-06 0)
(39.0252 -3.54139e-05 0)
(39.0252 -5.32086e-05 0)
(39.0252 -4.74914e-05 0)
(39.0251 -2.72672e-05 0)
(39.0251 -9.00923e-06 0)
(39.025 -6.51278e-06 0)
(39.0249 -2.22646e-05 0)
(39.0249 -4.74169e-05 0)
(39.0249 -6.96376e-05 0)
(39.0249 -8.40429e-05 0)
(39.0249 -9.38895e-05 0)
(39.0249 -0.000102422 0)
(39.0249 -0.000105123 0)
(39.0248 -9.76338e-05 0)
(39.0248 -8.30148e-05 0)
(39.0247 -7.20757e-05 0)
(39.0247 -7.61988e-05 0)
(39.0247 -9.0154e-05 0)
(39.0247 -9.89832e-05 0)
(39.0247 -9.75491e-05 0)
(39.0247 -8.75236e-05 0)
(39.0247 -7.34968e-05 0)
(39.0247 -5.96302e-05 0)
(39.0247 -5.16986e-05 0)
(39.0247 -5.13545e-05 0)
(39.0247 -5.23737e-05 0)
(39.0247 -4.97871e-05 0)
(39.0248 -4.37619e-05 0)
(39.0248 -3.67105e-05 0)
(39.0248 -2.82483e-05 0)
(39.0249 -1.45432e-05 0)
(39.0249 7.72648e-06 0)
(39.0249 3.60068e-05 0)
(39.0249 6.08218e-05 0)
(39.0249 7.2093e-05 0)
(39.025 6.6775e-05 0)
(39.025 5.03155e-05 0)
(39.025 3.26137e-05 0)
(39.0251 2.04093e-05 0)
(39.0251 1.42931e-05 0)
(39.0252 1.1118e-05 0)
(39.0253 8.11944e-06 0)
(39.0254 5.23471e-06 0)
(39.0255 5.39005e-06 0)
(39.0256 1.12086e-05 0)
(39.0256 2.05058e-05 0)
(39.0257 2.71215e-05 0)
(39.0258 2.68244e-05 0)
(39.0259 2.09546e-05 0)
(39.026 1.46117e-05 0)
(39.0261 1.22653e-05 0)
(39.0261 1.44132e-05 0)
(39.0262 1.76571e-05 0)
(39.0262 1.86133e-05 0)
(39.0263 2.05445e-05 0)
(39.0263 3.2477e-05 0)
(39.0264 5.53598e-05 0)
(39.0264 8.38471e-05 0)
(39.0263 0.000109537 0)
(39.0263 0.000124475 0)
(39.0262 0.000125593 0)
(39.0262 0.000115544 0)
(39.0261 0.000102067 0)
(39.0261 9.29686e-05 0)
(39.0261 9.09289e-05 0)
(39.026 9.20177e-05 0)
(39.026 8.94728e-05 0)
(39.0259 7.97657e-05 0)
(39.0258 6.51647e-05 0)
(39.0258 5.0526e-05 0)
(39.0257 3.75146e-05 0)
(39.0257 2.25714e-05 0)
(39.0256 4.33495e-07 0)
(39.0256 -3.03291e-05 0)
(39.0256 -6.44215e-05 0)
(39.0256 -9.44419e-05 0)
(39.0256 -0.000116151 0)
(39.0257 -0.000130827 0)
(39.0257 -0.000140987 0)
(39.0256 -0.000147661 0)
(39.0256 -0.000148885 0)
(39.0256 -0.000140625 0)
(39.0256 -0.000121566 0)
(39.0255 -9.63472e-05 0)
(39.0254 -7.41221e-05 0)
(39.0254 -6.22245e-05 0)
(39.0254 -6.06119e-05 0)
(39.0254 -6.29712e-05 0)
(39.0254 -6.43147e-05 0)
(39.0254 -6.60555e-05 0)
(39.0254 -7.20748e-05 0)
(39.0255 -8.36464e-05 0)
(39.0256 -9.67852e-05 0)
(39.0257 -0.00010527 0)
(39.0258 -0.000101449 0)
(39.026 -8.34002e-05 0)
(39.0261 -4.41215e-05 0)
(39.0263 9.89622e-07 0)
(30.0948 9.22312e-05 0)
(51.6889 0.000466424 0)
(44.8817 0.000739179 0)
(37.2643 0.000586881 0)
(36.6587 0.00052598 0)
(38.689 0.00052571 0)
(39.6191 0.000470342 0)
(39.3683 0.000496333 0)
(39.0013 0.000538719 0)
(38.9369 0.000567478 0)
(39.0207 0.000623889 0)
(39.0717 0.000576152 0)
(39.0662 0.000505548 0)
(39.0495 0.000537969 0)
(39.0454 0.000632681 0)
(39.0496 0.000686465 0)
(39.053 0.00067233 0)
(39.0534 0.000592022 0)
(39.0532 0.000509818 0)
(39.0537 0.000495575 0)
(39.0541 0.000509648 0)
(39.0546 0.000510745 0)
(39.0548 0.000473242 0)
(39.0548 0.000424658 0)
(39.0547 0.000382356 0)
(39.0548 0.000407962 0)
(39.055 0.00043702 0)
(39.0551 0.000400532 0)
(39.0557 0.000378062 0)
(39.0563 0.000399528 0)
(39.0567 0.000416385 0)
(39.0569 0.000382867 0)
(39.0568 0.000317444 0)
(39.0567 0.000295792 0)
(39.0564 0.000309421 0)
(39.056 0.000316519 0)
(39.0557 0.000327363 0)
(39.0555 0.000352936 0)
(39.0555 0.000404655 0)
(39.0554 0.000488867 0)
(39.0553 0.000551632 0)
(39.0551 0.000541168 0)
(39.0547 0.000476387 0)
(39.0544 0.000382144 0)
(39.0539 0.000270969 0)
(39.0537 0.000194042 0)
(39.0536 0.000194204 0)
(39.0537 0.000250306 0)
(39.0536 0.000308915 0)
(39.0535 0.000360283 0)
(39.0532 0.000421283 0)
(39.0529 0.000468951 0)
(39.0525 0.000480677 0)
(39.0522 0.000485401 0)
(39.052 0.000532217 0)
(39.052 0.000591298 0)
(39.052 0.000593056 0)
(39.0519 0.000527419 0)
(39.0517 0.000447689 0)
(39.0514 0.000370995 0)
(39.051 0.000254351 0)
(39.0504 6.82241e-05 0)
(39.0499 -0.000141855 0)
(39.0496 -0.000297697 0)
(39.0493 -0.000392856 0)
(39.0491 -0.000483582 0)
(39.0489 -0.000595958 0)
(39.0488 -0.000709831 0)
(39.0488 -0.000799621 0)
(39.0488 -0.000850864 0)
(39.0489 -0.000859281 0)
(39.0488 -0.000820514 0)
(39.0488 -0.00074143 0)
(39.0488 -0.000637628 0)
(39.0488 -0.000520571 0)
(39.0487 -0.00039609 0)
(39.0485 -0.000276027 0)
(39.0484 -0.000180776 0)
(39.0482 -0.000124786 0)
(39.0481 -0.000102785 0)
(39.0479 -9.68307e-05 0)
(39.0478 -8.99308e-05 0)
(39.0478 -7.53505e-05 0)
(39.0478 -5.93488e-05 0)
(39.0479 -5.11312e-05 0)
(39.0479 -5.62078e-05 0)
(39.0479 -7.0927e-05 0)
(39.0478 -8.41786e-05 0)
(39.0478 -8.80438e-05 0)
(39.0479 -8.52855e-05 0)
(39.0479 -8.42713e-05 0)
(39.0479 -9.05207e-05 0)
(39.0479 -0.000101485 0)
(39.0478 -0.000107025 0)
(39.0477 -9.65635e-05 0)
(39.0478 -7.03549e-05 0)
(39.0478 -4.05918e-05 0)
(39.0478 -2.05945e-05 0)
(39.0478 -1.29238e-05 0)
(39.0478 -8.02083e-06 0)
(39.0479 4.97113e-06 0)
(39.048 2.5453e-05 0)
(39.0481 4.20477e-05 0)
(39.0482 4.46493e-05 0)
(39.0483 3.3514e-05 0)
(39.0484 1.88911e-05 0)
(39.0485 1.17962e-05 0)
(39.0485 1.52747e-05 0)
(39.0486 2.34361e-05 0)
(39.0485 2.62813e-05 0)
(39.0485 1.99622e-05 0)
(39.0485 8.15814e-06 0)
(39.0484 -2.4191e-06 0)
(39.0484 -7.41284e-06 0)
(39.0484 -7.48967e-06 0)
(39.0483 -5.23383e-06 0)
(39.0482 -3.25062e-06 0)
(39.0482 -1.34185e-06 0)
(39.0481 1.7647e-06 0)
(39.0481 4.63062e-06 0)
(39.0481 3.81497e-06 0)
(39.0481 4.39821e-10 0)
(39.048 -3.12123e-06 0)
(39.048 -2.51713e-06 0)
(39.048 2.40224e-06 0)
(39.048 8.95018e-06 0)
(39.048 1.04063e-05 0)
(39.048 4.75716e-06 0)
(39.048 -2.40418e-06 0)
(39.0481 -2.7233e-06 0)
(39.0482 6.67256e-06 0)
(39.0483 1.96838e-05 0)
(39.0483 2.72475e-05 0)
(39.0484 2.60383e-05 0)
(39.0484 2.09664e-05 0)
(39.0485 2.18112e-05 0)
(39.0486 3.38984e-05 0)
(39.0486 5.30409e-05 0)
(39.0487 6.93635e-05 0)
(39.0487 7.50849e-05 0)
(39.0488 6.94439e-05 0)
(39.0488 5.83308e-05 0)
(39.0488 5.00117e-05 0)
(39.0488 5.05807e-05 0)
(39.0488 6.15214e-05 0)
(39.0488 7.97227e-05 0)
(39.0488 9.86425e-05 0)
(39.0488 0.00011037 0)
(39.0488 0.000108969 0)
(39.0488 9.35068e-05 0)
(39.0487 7.08453e-05 0)
(39.0486 5.46634e-05 0)
(39.0484 5.69772e-05 0)
(39.0483 7.82647e-05 0)
(39.0481 0.000109076 0)
(39.048 0.000135558 0)
(39.0479 0.000146679 0)
(39.0477 0.000139285 0)
(39.0476 0.00011893 0)
(39.0475 9.67008e-05 0)
(39.0473 8.42881e-05 0)
(39.0471 8.76099e-05 0)
(39.0469 0.000105087 0)
(39.0466 0.000129799 0)
(39.0464 0.000154172 0)
(39.0462 0.000171085 0)
(39.046 0.000175347 0)
(39.0458 0.00016431 0)
(39.0456 0.000139178 0)
(39.0454 0.000109098 0)
(39.0452 8.43891e-05 0)
(39.045 6.7843e-05 0)
(39.0448 5.97851e-05 0)
(39.0447 5.95275e-05 0)
(39.0445 6.35148e-05 0)
(39.0444 6.31672e-05 0)
(39.0443 5.29282e-05 0)
(39.0442 3.69233e-05 0)
(39.0442 2.14539e-05 0)
(39.0441 7.1458e-06 0)
(39.0441 -9.7822e-06 0)
(39.0441 -3.2184e-05 0)
(39.0441 -5.7517e-05 0)
(39.0442 -7.84698e-05 0)
(39.0443 -8.96845e-05 0)
(39.0445 -9.23801e-05 0)
(39.0446 -9.25548e-05 0)
(39.0448 -9.65631e-05 0)
(39.0449 -0.000107151 0)
(39.045 -0.000121555 0)
(39.0451 -0.000135041 0)
(39.0453 -0.00014513 0)
(39.0454 -0.000153313 0)
(39.0456 -0.000163613 0)
(39.0457 -0.000178092 0)
(39.0459 -0.000192913 0)
(39.0461 -0.000201327 0)
(39.0464 -0.000200773 0)
(39.0466 -0.000194994 0)
(39.0468 -0.000189386 0)
(39.047 -0.000185948 0)
(39.0472 -0.000182364 0)
(39.0474 -0.00017492 0)
(39.0476 -0.000162366 0)
(39.0477 -0.000147101 0)
(39.0479 -0.000132664 0)
(39.0481 -0.000118966 0)
(39.0482 -0.000102077 0)
(39.0484 -8.17409e-05 0)
(39.0485 -5.97672e-05 0)
(39.0487 -3.94159e-05 0)
(39.0489 -2.52818e-05 0)
(39.0491 -2.04347e-05 0)
(39.0492 -2.39456e-05 0)
(39.0494 -2.96713e-05 0)
(39.0494 -2.93957e-05 0)
(39.0495 -1.81879e-05 0)
(39.0496 2.13721e-06 0)
(39.0497 2.45e-05 0)
(39.0497 4.2068e-05 0)
(39.0497 5.32018e-05 0)
(39.0497 6.12601e-05 0)
(39.0497 6.97877e-05 0)
(39.0496 7.84187e-05 0)
(39.0495 8.35764e-05 0)
(39.0494 8.30906e-05 0)
(39.0492 8.0269e-05 0)
(39.0489 8.19808e-05 0)
(39.0487 9.4002e-05 0)
(39.0485 0.000116554 0)
(39.0482 0.000144559 0)
(39.0479 0.000169796 0)
(39.0476 0.000185646 0)
(39.0473 0.000190997 0)
(39.0471 0.000188492 0)
(39.0468 0.000180111 0)
(39.0467 0.000164654 0)
(39.0465 0.000140014 0)
(39.0463 0.000107433 0)
(39.0462 7.20758e-05 0)
(39.0461 3.83685e-05 0)
(39.046 6.16273e-06 0)
(39.0459 -2.76888e-05 0)
(39.0459 -6.52015e-05 0)
(39.0458 -0.00010525 0)
(39.0459 -0.000144791 0)
(39.0459 -0.000177969 0)
(39.046 -0.000201596 0)
(39.0461 -0.000210633 0)
(39.0465 -0.000226254 0)
(30.0948 -5.60313e-05 0)
(51.6884 -7.65247e-05 0)
(44.8798 -9.05568e-05 0)
(37.2613 -0.000123032 0)
(36.6557 -0.000107759 0)
(38.6851 4.20458e-06 0)
(39.6151 -7.76036e-05 0)
(39.3644 -5.72187e-05 0)
(38.9978 7.66495e-05 0)
(38.9329 0.000112808 0)
(39.0167 0.000113948 0)
(39.068 0.000120782 0)
(39.0626 0.000130424 0)
(39.0455 0.000104496 0)
(39.0408 5.33073e-05 0)
(39.0439 2.35248e-05 0)
(39.0467 5.08279e-05 0)
(39.0468 9.09938e-05 0)
(39.0459 6.85455e-05 0)
(39.0456 4.7574e-05 0)
(39.0457 3.51358e-05 0)
(39.046 5.26281e-05 0)
(39.0461 0.000120464 0)
(39.0461 0.000195758 0)
(39.0461 0.000213179 0)
(39.0462 0.000190239 0)
(39.0462 0.00016556 0)
(39.0458 0.000108299 0)
(39.0456 1.94909e-05 0)
(39.0456 -4.00081e-05 0)
(39.0456 4.63667e-07 0)
(39.0457 0.000122783 0)
(39.0459 0.000237821 0)
(39.0462 0.00032848 0)
(39.0465 0.000393592 0)
(39.0468 0.000395422 0)
(39.047 0.000325049 0)
(39.047 0.000193623 0)
(39.0471 4.14539e-05 0)
(39.0472 -4.87124e-05 0)
(39.0473 -3.37189e-05 0)
(39.0475 5.17423e-05 0)
(39.0478 0.000164741 0)
(39.048 0.000280828 0)
(39.048 0.000347207 0)
(39.0479 0.000308999 0)
(39.0478 0.00019113 0)
(39.0478 6.51305e-05 0)
(39.0478 -2.39848e-05 0)
(39.0478 -8.04452e-05 0)
(39.0479 -0.000117132 0)
(39.0481 -0.000137596 0)
(39.0481 -0.000172089 0)
(39.048 -0.000259677 0)
(39.0481 -0.00038838 0)
(39.0482 -0.000477664 0)
(39.0485 -0.000471304 0)
(39.0487 -0.000367605 0)
(39.049 -0.00018747 0)
(39.0494 6.1433e-05 0)
(39.0498 0.000345618 0)
(39.0502 0.000582114 0)
(39.0503 0.000698311 0)
(39.0504 0.000706947 0)
(39.0505 0.000695822 0)
(39.0504 0.000720804 0)
(39.0503 0.000757817 0)
(39.05 0.00076001 0)
(39.0497 0.000715921 0)
(39.0493 0.000643346 0)
(39.0489 0.000566723 0)
(39.0484 0.000493969 0)
(39.0479 0.000417729 0)
(39.0476 0.000330971 0)
(39.0473 0.000243897 0)
(39.0471 0.00017653 0)
(39.047 0.000137497 0)
(39.047 0.000116399 0)
(39.047 9.80427e-05 0)
(39.047 7.81073e-05 0)
(39.0471 5.89136e-05 0)
(39.0471 3.88833e-05 0)
(39.0471 1.40739e-05 0)
(39.0471 -8.92057e-06 0)
(39.047 -1.36665e-05 0)
(39.0471 9.1501e-06 0)
(39.0471 4.66693e-05 0)
(39.047 7.07707e-05 0)
(39.047 6.5168e-05 0)
(39.047 4.44573e-05 0)
(39.047 3.74791e-05 0)
(39.0471 5.75296e-05 0)
(39.0471 8.7118e-05 0)
(39.0471 9.29503e-05 0)
(39.0471 5.74687e-05 0)
(39.0471 -5.00903e-06 0)
(39.0471 -6.42438e-05 0)
(39.0472 -0.000103711 0)
(39.0472 -0.000132417 0)
(39.0472 -0.00016874 0)
(39.0472 -0.000216337 0)
(39.0472 -0.000257692 0)
(39.0472 -0.000271867 0)
(39.0472 -0.000255555 0)
(39.0473 -0.000224102 0)
(39.0473 -0.000194537 0)
(39.0473 -0.00016936 0)
(39.0473 -0.000137626 0)
(39.0474 -9.0619e-05 0)
(39.0474 -3.56341e-05 0)
(39.0474 7.19697e-06 0)
(39.0475 2.11059e-05 0)
(39.0475 8.35578e-06 0)
(39.0475 -1.06807e-05 0)
(39.0476 -1.39396e-05 0)
(39.0476 4.92113e-06 0)
(39.0476 3.22083e-05 0)
(39.0476 4.79286e-05 0)
(39.0476 4.07478e-05 0)
(39.0476 1.67707e-05 0)
(39.0476 -5.29552e-06 0)
(39.0476 -1.18831e-05 0)
(39.0476 -2.3526e-06 0)
(39.0476 1.28308e-05 0)
(39.0476 2.04649e-05 0)
(39.0476 1.31085e-05 0)
(39.0476 -6.00515e-06 0)
(39.0476 -2.86137e-05 0)
(39.0476 -4.66103e-05 0)
(39.0476 -5.51393e-05 0)
(39.0476 -5.33801e-05 0)
(39.0476 -4.38748e-05 0)
(39.0476 -3.14653e-05 0)
(39.0476 -2.14027e-05 0)
(39.0476 -1.58882e-05 0)
(39.0476 -1.18744e-05 0)
(39.0476 -3.48084e-06 0)
(39.0475 1.21835e-05 0)
(39.0475 3.21448e-05 0)
(39.0475 4.94642e-05 0)
(39.0475 5.87331e-05 0)
(39.0474 6.0703e-05 0)
(39.0474 6.2488e-05 0)
(39.0473 7.20571e-05 0)
(39.0473 9.14295e-05 0)
(39.0472 0.000114555 0)
(39.0472 0.000131673 0)
(39.0471 0.000137631 0)
(39.047 0.000135918 0)
(39.047 0.000136864 0)
(39.0469 0.000151005 0)
(39.0468 0.000180625 0)
(39.0467 0.000218533 0)
(39.0466 0.000253366 0)
(39.0465 0.000274014 0)
(39.0464 0.000275897 0)
(39.0464 0.000264056 0)
(39.0463 0.000249914 0)
(39.0462 0.000244232 0)
(39.046 0.000252148 0)
(39.0459 0.000273009 0)
(39.0458 0.000303792 0)
(39.0456 0.000339205 0)
(39.0455 0.000369411 0)
(39.0454 0.000381184 0)
(39.0452 0.000367686 0)
(39.0451 0.000334322 0)
(39.045 0.000296309 0)
(39.0449 0.000270362 0)
(39.0449 0.000260787 0)
(39.0448 0.000259981 0)
(39.0446 0.000259871 0)
(39.0445 0.000254304 0)
(39.0444 0.000239534 0)
(39.0443 0.000213082 0)
(39.0443 0.000174233 0)
(39.0442 0.000123581 0)
(39.0442 6.6908e-05 0)
(39.0442 1.51408e-05 0)
(39.0442 -2.5429e-05 0)
(39.0443 -5.67021e-05 0)
(39.0444 -8.56583e-05 0)
(39.0445 -0.00011762 0)
(39.0445 -0.000152467 0)
(39.0446 -0.000184693 0)
(39.0446 -0.000206646 0)
(39.0447 -0.000214415 0)
(39.0447 -0.00021243 0)
(39.0448 -0.000211723 0)
(39.0449 -0.000222165 0)
(39.0449 -0.00024563 0)
(39.045 -0.000276726 0)
(39.0451 -0.000308494 0)
(39.0453 -0.000337811 0)
(39.0455 -0.000365115 0)
(39.0456 -0.000390177 0)
(39.0458 -0.000409642 0)
(39.046 -0.000418258 0)
(39.0462 -0.000412586 0)
(39.0463 -0.000394334 0)
(39.0465 -0.00036989 0)
(39.0466 -0.000346182 0)
(39.0467 -0.000326745 0)
(39.0469 -0.00031087 0)
(39.047 -0.000295543 0)
(39.0471 -0.000278631 0)
(39.0472 -0.000262033 0)
(39.0474 -0.000250452 0)
(39.0474 -0.000244085 0)
(39.0475 -0.000238954 0)
(39.0476 -0.000229459 0)
(39.0477 -0.000211733 0)
(39.0478 -0.000186188 0)
(39.0479 -0.000156736 0)
(39.0479 -0.000128239 0)
(39.048 -0.000102523 0)
(39.048 -7.66207e-05 0)
(39.048 -4.52714e-05 0)
(39.048 -5.92431e-06 0)
(39.048 3.81266e-05 0)
(39.0479 8.00036e-05 0)
(39.0478 0.000114888 0)
(39.0478 0.000143796 0)
(39.0477 0.000172015 0)
(39.0476 0.000204254 0)
(39.0475 0.000241123 0)
(39.0474 0.00027938 0)
(39.0472 0.000316039 0)
(39.0471 0.000350999 0)
(39.0469 0.000385996 0)
(39.0467 0.000419846 0)
(39.0466 0.000446375 0)
(39.0464 0.000456602 0)
(39.0462 0.000444093 0)
(39.0461 0.000409883 0)
(39.046 0.000362286 0)
(39.0458 0.000311847 0)
(39.0458 0.00026511 0)
(39.0457 0.000221993 0)
(39.0456 0.000178226 0)
(39.0456 0.000130408 0)
(39.0455 7.84504e-05 0)
(39.0455 2.28807e-05 0)
(39.0455 -3.68755e-05 0)
(39.0455 -0.000103015 0)
(39.0455 -0.000176607 0)
(39.0456 -0.000256006 0)
(39.0458 -0.000334571 0)
(39.0459 -0.00041433 0)
(39.0462 -0.000492856 0)
(30.0953 9.87595e-06 0)
(51.6885 9.86868e-05 0)
(44.8807 0.000280416 0)
(37.2619 0.000473681 0)
(36.6558 0.000369851 0)
(38.6859 0.000404315 0)
(39.6155 0.000471823 0)
(39.3646 0.000469221 0)
(38.9973 0.00038971 0)
(38.9322 0.000310308 0)
(39.0158 0.000286531 0)
(39.067 0.000288171 0)
(39.0614 0.00028349 0)
(39.0442 0.000242472 0)
(39.0395 0.000213974 0)
(39.0427 0.00024149 0)
(39.0455 0.000310826 0)
(39.0456 0.000412046 0)
(39.0447 0.000470951 0)
(39.0446 0.000511541 0)
(39.0448 0.000541423 0)
(39.0448 0.000529827 0)
(39.0448 0.000535558 0)
(39.045 0.000532866 0)
(39.0449 0.000500202 0)
(39.045 0.000460824 0)
(39.0452 0.0004676 0)
(39.0453 0.000494397 0)
(39.0454 0.000473579 0)
(39.0454 0.000393769 0)
(39.0454 0.000310411 0)
(39.0454 0.000235674 0)
(39.0452 0.000130421 0)
(39.045 2.40173e-05 0)
(39.0449 -1.42864e-05 0)
(39.0447 2.919e-05 0)
(39.0447 0.000131314 0)
(39.0446 0.000250473 0)
(39.0445 0.000334293 0)
(39.0443 0.000363337 0)
(39.0441 0.000343044 0)
(39.0439 0.000278006 0)
(39.0439 0.000207081 0)
(39.0439 0.00019748 0)
(39.0441 0.000257484 0)
(39.0443 0.000325539 0)
(39.0444 0.000354347 0)
(39.0444 0.000356349 0)
(39.0443 0.000351533 0)
(39.0442 0.000336163 0)
(39.0441 0.000317374 0)
(39.0439 0.000328026 0)
(39.0438 0.000374392 0)
(39.0435 0.000409259 0)
(39.0431 0.000386869 0)
(39.0426 0.000315446 0)
(39.042 0.000220008 0)
(39.0413 8.84063e-05 0)
(39.0406 -0.000101696 0)
(39.0401 -0.00031719 0)
(39.0397 -0.000480227 0)
(39.0396 -0.00054617 0)
(39.0396 -0.000535203 0)
(39.0397 -0.000489867 0)
(39.04 -0.000424882 0)
(39.0404 -0.000339755 0)
(39.0409 -0.000254067 0)
(39.0416 -0.000188602 0)
(39.0422 -0.000138241 0)
(39.0429 -8.73805e-05 0)
(39.0436 -3.75695e-05 0)
(39.0442 -8.88847e-06 0)
(39.0447 -1.52611e-05 0)
(39.0452 -5.04153e-05 0)
(39.0455 -9.68454e-05 0)
(39.0457 -0.000141208 0)
(39.0459 -0.000178877 0)
(39.046 -0.000207165 0)
(39.046 -0.000217646 0)
(39.046 -0.00020033 0)
(39.0461 -0.000155405 0)
(39.0461 -0.00010214 0)
(39.0462 -6.70138e-05 0)
(39.0463 -6.00239e-05 0)
(39.0463 -6.70433e-05 0)
(39.0463 -6.68017e-05 0)
(39.0464 -5.58483e-05 0)
(39.0465 -5.16362e-05 0)
(39.0467 -7.04663e-05 0)
(39.0467 -0.000108294 0)
(39.0468 -0.000141997 0)
(39.0469 -0.000149871 0)
(39.047 -0.00013147 0)
(39.0471 -0.00010706 0)
(39.0472 -9.68787e-05 0)
(39.0473 -0.000100513 0)
(39.0474 -9.85965e-05 0)
(39.0475 -7.38759e-05 0)
(39.0475 -2.97915e-05 0)
(39.0476 1.15831e-05 0)
(39.0476 2.9328e-05 0)
(39.0476 2.11386e-05 0)
(39.0476 2.32176e-06 0)
(39.0475 -9.90299e-06 0)
(39.0475 -1.0506e-05 0)
(39.0475 -7.56071e-06 0)
(39.0474 -1.15123e-05 0)
(39.0474 -2.45197e-05 0)
(39.0474 -3.97431e-05 0)
(39.0474 -4.86039e-05 0)
(39.0474 -4.95488e-05 0)
(39.0474 -4.71915e-05 0)
(39.0475 -4.60573e-05 0)
(39.0475 -4.4849e-05 0)
(39.0475 -3.75904e-05 0)
(39.0475 -2.12728e-05 0)
(39.0475 -4.84401e-07 0)
(39.0475 1.3858e-05 0)
(39.0475 1.40437e-05 0)
(39.0476 2.4849e-06 0)
(39.0476 -9.9766e-06 0)
(39.0476 -1.30069e-05 0)
(39.0476 -4.93233e-06 0)
(39.0475 6.2468e-06 0)
(39.0475 8.95708e-06 0)
(39.0475 -1.76188e-06 0)
(39.0476 -1.95781e-05 0)
(39.0476 -3.25741e-05 0)
(39.0476 -3.26338e-05 0)
(39.0475 -2.06406e-05 0)
(39.0475 -4.14321e-06 0)
(39.0475 9.0665e-06 0)
(39.0475 1.57589e-05 0)
(39.0475 1.85439e-05 0)
(39.0475 2.3759e-05 0)
(39.0475 3.56013e-05 0)
(39.0474 5.40727e-05 0)
(39.0474 7.55895e-05 0)
(39.0474 9.5246e-05 0)
(39.0474 0.000109962 0)
(39.0474 0.000120415 0)
(39.0473 0.000130156 0)
(39.0473 0.00014267 0)
(39.0473 0.000158865 0)
(39.0472 0.000176627 0)
(39.0472 0.000192449 0)
(39.0471 0.000204275 0)
(39.047 0.000213125 0)
(39.047 0.000222467 0)
(39.0469 0.000235542 0)
(39.0468 0.000252601 0)
(39.0467 0.000271395 0)
(39.0466 0.00028944 0)
(39.0465 0.000305098 0)
(39.0464 0.000316562 0)
(39.0464 0.000322027 0)
(39.0463 0.000321754 0)
(39.0462 0.000320194 0)
(39.0461 0.000325068 0)
(39.046 0.000342516 0)
(39.0458 0.000371867 0)
(39.0457 0.000405175 0)
(39.0456 0.000431138 0)
(39.0455 0.000440637 0)
(39.0454 0.000430511 0)
(39.0453 0.000403945 0)
(39.0452 0.000368485 0)
(39.0451 0.000333661 0)
(39.045 0.0003083 0)
(39.0449 0.000297399 0)
(39.0448 0.000299902 0)
(39.0448 0.000308214 0)
(39.0447 0.00030979 0)
(39.0446 0.00029269 0)
(39.0446 0.000251772 0)
(39.0445 0.000190966 0)
(39.0445 0.000118974 0)
(39.0444 4.48106e-05 0)
(39.0444 -2.43356e-05 0)
(39.0444 -8.43063e-05 0)
(39.0445 -0.00013247 0)
(39.0445 -0.000166544 0)
(39.0446 -0.000186593 0)
(39.0447 -0.000196631 0)
(39.0447 -0.000202101 0)
(39.0447 -0.000206885 0)
(39.0448 -0.000213176 0)
(39.0448 -0.000222692 0)
(39.0449 -0.000238727 0)
(39.0449 -0.000265745 0)
(39.045 -0.000306366 0)
(39.0451 -0.000358619 0)
(39.0452 -0.0004157 0)
(39.0453 -0.000468891 0)
(39.0455 -0.000510744 0)
(39.0457 -0.000537697 0)
(39.0458 -0.000550567 0)
(39.046 -0.000551456 0)
(39.0461 -0.000541297 0)
(39.0462 -0.000520991 0)
(39.0464 -0.000493621 0)
(39.0465 -0.000464273 0)
(39.0467 -0.000437713 0)
(39.0468 -0.000416014 0)
(39.0469 -0.000398011 0)
(39.0471 -0.000380629 0)
(39.0472 -0.000360929 0)
(39.0473 -0.000337555 0)
(39.0474 -0.000310837 0)
(39.0475 -0.000282624 0)
(39.0476 -0.000254469 0)
(39.0476 -0.000225868 0)
(39.0477 -0.000194766 0)
(39.0478 -0.000159572 0)
(39.0478 -0.000120731 0)
(39.0479 -8.02129e-05 0)
(39.0479 -3.93064e-05 0)
(39.0479 2.95556e-06 0)
(39.0478 4.87486e-05 0)
(39.0478 9.86566e-05 0)
(39.0478 0.000149641 0)
(39.0477 0.000196476 0)
(39.0477 0.000235572 0)
(39.0476 0.000267849 0)
(39.0475 0.000298154 0)
(39.0474 0.00033175 0)
(39.0472 0.000370652 0)
(39.0471 0.000412531 0)
(39.047 0.000452232 0)
(39.0468 0.000484609 0)
(39.0466 0.00050635 0)
(39.0465 0.000515864 0)
(39.0463 0.000511656 0)
(39.0462 0.000491695 0)
(39.0461 0.000455335 0)
(39.046 0.000405713 0)
(39.0459 0.000349748 0)
(39.0458 0.000295032 0)
(39.0458 0.000245603 0)
(39.0457 0.000199919 0)
(39.0457 0.000152648 0)
(39.0456 9.74822e-05 0)
(39.0456 2.95812e-05 0)
(39.0455 -5.32173e-05 0)
(39.0456 -0.000151004 0)
(39.0456 -0.000260724 0)
(39.0457 -0.000376287 0)
(39.0458 -0.000487309 0)
(39.046 -0.000590677 0)
(39.0463 -0.000676783 0)
(30.0949 5.96869e-05 0)
(51.6884 0.000170961 0)
(44.8803 0.000147416 0)
(37.2619 0.000130925 0)
(36.6562 6.3004e-05 0)
(38.6858 0.000101687 0)
(39.6158 0.000122964 0)
(39.3652 0.000152065 0)
(38.9982 0.000186361 0)
(38.9336 0.000195706 0)
(39.0172 0.000220911 0)
(39.0681 0.000240214 0)
(39.0624 0.000254184 0)
(39.045 0.000260707 0)
(39.0401 0.000241037 0)
(39.0431 0.000194363 0)
(39.0457 0.000127434 0)
(39.0459 8.88421e-05 0)
(39.0452 5.98665e-05 0)
(39.0449 1.86944e-05 0)
(39.0454 -4.63656e-07 0)
(39.0457 -1.20165e-05 0)
(39.0459 -2.43663e-05 0)
(39.0462 -1.61584e-05 0)
(39.0463 1.37033e-05 0)
(39.0464 8.72562e-06 0)
(39.0466 -5.49507e-06 0)
(39.0467 6.86473e-06 0)
(39.0467 4.41429e-05 0)
(39.0466 0.000104913 0)
(39.0466 0.000185862 0)
(39.0466 0.000297241 0)
(39.0467 0.000409197 0)
(39.0466 0.000469277 0)
(39.0466 0.000470907 0)
(39.0467 0.000420603 0)
(39.0468 0.000341012 0)
(39.047 0.000284726 0)
(39.0472 0.000261696 0)
(39.0474 0.000236572 0)
(39.0477 0.000199174 0)
(39.0479 0.000154893 0)
(39.048 9.16096e-05 0)
(39.0481 1.46744e-05 0)
(39.0483 -3.32776e-05 0)
(39.0485 -2.82138e-05 0)
(39.0486 1.62142e-05 0)
(39.0488 8.01317e-05 0)
(39.0491 0.000152497 0)
(39.0493 0.000208755 0)
(39.0495 0.000219418 0)
(39.0498 0.000195625 0)
(39.0502 0.000194458 0)
(39.0507 0.000260715 0)
(39.051 0.000381325 0)
(39.0513 0.000522163 0)
(39.0516 0.000677383 0)
(39.0517 0.000837925 0)
(39.0517 0.000955975 0)
(39.0515 0.000973363 0)
(39.0512 0.000882536 0)
(39.0509 0.000731949 0)
(39.0505 0.000562273 0)
(39.0501 0.000372411 0)
(39.0497 0.000149476 0)
(39.0493 -9.1156e-05 0)
(39.0491 -0.000309127 0)
(39.0489 -0.000470105 0)
(39.0487 -0.000560975 0)
(39.0486 -0.000588498 0)
(39.0486 -0.000572971 0)
(39.0485 -0.000530795 0)
(39.0485 -0.000460843 0)
(39.0485 -0.000356391 0)
(39.0484 -0.000229138 0)
(39.0484 -0.000109135 0)
(39.0483 -2.29058e-05 0)
(39.0481 2.1778e-05 0)
(39.0479 3.18034e-05 0)
(39.0477 1.80087e-05 0)
(39.0475 -1.00457e-05 0)
(39.0473 -4.36135e-05 0)
(39.0472 -7.49321e-05 0)
(39.0471 -9.91628e-05 0)
(39.0469 -0.000115841 0)
(39.0468 -0.000127042 0)
(39.0467 -0.000133843 0)
(39.0467 -0.0001346 0)
(39.0467 -0.000127849 0)
(39.0468 -0.000116053 0)
(39.0468 -0.000105873 0)
(39.0468 -0.000104694 0)
(39.0468 -0.000115809 0)
(39.0468 -0.000137672 0)
(39.0467 -0.000167235 0)
(39.0467 -0.000201641 0)
(39.0466 -0.000236253 0)
(39.0466 -0.000263565 0)
(39.0465 -0.000276171 0)
(39.0465 -0.000271758 0)
(39.0465 -0.000255047 0)
(39.0466 -0.000234013 0)
(39.0466 -0.000213668 0)
(39.0467 -0.000193211 0)
(39.0468 -0.000168759 0)
(39.0468 -0.000138765 0)
(39.0469 -0.00010725 0)
(39.047 -8.21455e-05 0)
(39.0471 -6.99781e-05 0)
(39.0472 -7.09385e-05 0)
(39.0472 -7.85394e-05 0)
(39.0473 -8.3203e-05 0)
(39.0473 -7.72759e-05 0)
(39.0474 -5.89728e-05 0)
(39.0474 -3.29397e-05 0)
(39.0474 -7.65152e-06 0)
(39.0474 8.65914e-06 0)
(39.0474 1.19978e-05 0)
(39.0475 4.98658e-06 0)
(39.0475 -4.46168e-06 0)
(39.0475 -7.91021e-06 0)
(39.0475 -1.40288e-06 0)
(39.0475 1.1467e-05 0)
(39.0475 2.1325e-05 0)
(39.0475 1.95181e-05 0)
(39.0475 4.61532e-06 0)
(39.0475 -1.53913e-05 0)
(39.0475 -2.81335e-05 0)
(39.0475 -2.57954e-05 0)
(39.0475 -1.08505e-05 0)
(39.0475 6.34135e-06 0)
(39.0474 1.56413e-05 0)
(39.0474 1.44388e-05 0)
(39.0474 8.92877e-06 0)
(39.0474 8.36286e-06 0)
(39.0474 1.85622e-05 0)
(39.0474 3.8557e-05 0)
(39.0473 6.26054e-05 0)
(39.0473 8.46182e-05 0)
(39.0473 0.00010205 0)
(39.0473 0.000116823 0)
(39.0473 0.000133123 0)
(39.0472 0.000154092 0)
(39.0472 0.000179828 0)
(39.0471 0.000207488 0)
(39.0471 0.000232863 0)
(39.047 0.000252558 0)
(39.047 0.00026609 0)
(39.0469 0.000277075 0)
(39.0468 0.000291841 0)
(39.0467 0.000315464 0)
(39.0467 0.000347977 0)
(39.0466 0.000383803 0)
(39.0465 0.000415073 0)
(39.0464 0.000435993 0)
(39.0463 0.000445458 0)
(39.0462 0.000447209 0)
(39.0461 0.000448259 0)
(39.046 0.000456025 0)
(39.0459 0.000474873 0)
(39.0458 0.000503568 0)
(39.0457 0.000535364 0)
(39.0456 0.000561528 0)
(39.0455 0.000575063 0)
(39.0454 0.000572004 0)
(39.0454 0.000552045 0)
(39.0453 0.000518844 0)
(39.0452 0.000479413 0)
(39.0451 0.000442281 0)
(39.045 0.000414179 0)
(39.045 0.000397751 0)
(39.0449 0.000390434 0)
(39.0449 0.000384022 0)
(39.0448 0.000366744 0)
(39.0447 0.000327682 0)
(39.0447 0.000262193 0)
(39.0446 0.000176115 0)
(39.0446 8.1992e-05 0)
(39.0446 -8.75758e-06 0)
(39.0446 -8.88139e-05 0)
(39.0446 -0.000153456 0)
(39.0446 -0.000201229 0)
(39.0447 -0.00023319 0)
(39.0447 -0.000252037 0)
(39.0448 -0.000261622 0)
(39.0448 -0.00026793 0)
(39.0448 -0.00027804 0)
(39.0449 -0.000296584 0)
(39.0449 -0.000325317 0)
(39.045 -0.000364973 0)
(39.0451 -0.000416505 0)
(39.0452 -0.000479762 0)
(39.0453 -0.00055074 0)
(39.0454 -0.000619865 0)
(39.0455 -0.000674615 0)
(39.0457 -0.000706635 0)
(39.0458 -0.000716395 0)
(39.046 -0.000710548 0)
(39.0461 -0.000695824 0)
(39.0462 -0.000675821 0)
(39.0463 -0.000651835 0)