/*--------------------------------*- C++ -*----------------------------------*\
| =========                 |                                                 |
| \\      /  F ield         | OpenFOAM: The Open Source CFD Toolbox           |
|  \\    /   O peration     | Version:  2406                                  |
|   \\  /    A nd           | Website:  www.openfoam.com                      |
|    \\/     M anipulation  |                                                 |
\*---------------------------------------------------------------------------*/
FoamFile
{
    version     2.0;
    format      ascii;
    arch        "LSB;label=32;scalar=64";
    class       volVectorField;
    location    "0.25";
    object      U;
}
// * * * * * * * * * * * * * * * * * * * * * * * * * * * * * * * * * * * * * //

dimensions      [0 1 -1 0 0 0 0];

internalField   nonuniform List<vector> 
6250
(
(34.7261 0.0126171 0)
(39.6195 0.0470364 0)
(26.1045 0.0576598 0)
(22.5686 0.0546452 0)
(25.5078 0.0535198 0)
(27.3649 0.0574067 0)
(27.1228 0.0622506 0)
(26.4703 0.0652447 0)
(26.2734 0.0668935 0)
(26.3643 0.0683603 0)
(26.4281 0.0699596 0)
(26.3968 0.0714747 0)
(26.337 0.0727602 0)
(26.2942 0.0738529 0)
(26.266 0.0748213 0)
(26.2382 0.0756819 0)
(26.206 0.0764222 0)
(26.1719 0.0770399 0)
(26.1382 0.0775511 0)
(26.1052 0.0779779 0)
(26.0723 0.0783387 0)
(26.0391 0.0786443 0)
(26.0058 0.0788994 0)
(25.9724 0.0791056 0)
(25.9391 0.0792638 0)
(25.9058 0.0793773 0)
(25.8725 0.0794519 0)
(25.8391 0.0794963 0)
(25.8058 0.0795198 0)
(25.7724 0.0795309 0)
(25.7391 0.079536 0)
(25.7058 0.0795389 0)
(25.6724 0.079541 0)
(25.6391 0.0795422 0)
(25.6057 0.0795419 0)
(25.5723 0.0795392 0)
(25.5389 0.0795339 0)
(25.5055 0.0795266 0)
(25.472 0.079518 0)
(25.4385 0.0795097 0)
(25.405 0.0795035 0)
(25.3714 0.0795017 0)
(25.3378 0.0795067 0)
(25.3041 0.0795217 0)
(25.2704 0.0795501 0)
(25.2365 0.0795961 0)
(25.2026 0.0796645 0)
(25.1685 0.0797607 0)
(25.1343 0.0798908 0)
(25.0999 0.0800609 0)
(25.0653 0.0802772 0)
(25.0305 0.080546 0)
(24.9954 0.080873 0)
(24.96 0.0812641 0)
(24.9243 0.081725 0)
(24.8881 0.0822618 0)
(24.8516 0.0828817 0)
(24.8145 0.083593 0)
(24.7769 0.0844059 0)
(24.7386 0.0853332 0)
(24.6997 0.0863901 0)
(24.6599 0.0875951 0)
(24.6192 0.0889702 0)
(24.5775 0.0905409 0)
(24.5346 0.0923367 0)
(24.4904 0.094392 0)
(24.4447 0.0967457 0)
(24.3973 0.0994425 0)
(24.348 0.102533 0)
(24.2965 0.106075 0)
(24.2424 0.110133 0)
(24.1855 0.114779 0)
(24.1254 0.120094 0)
(24.0615 0.126169 0)
(23.9935 0.133104 0)
(23.9206 0.14101 0)
(23.8424 0.150012 0)
(23.758 0.160249 0)
(23.6666 0.171878 0)
(23.5672 0.185075 0)
(23.4588 0.200038 0)
(23.3402 0.21699 0)
(23.21 0.236184 0)
(23.0665 0.257901 0)
(22.9081 0.282455 0)
(22.7327 0.310194 0)
(22.5381 0.341495 0)
(22.3217 0.376767 0)
(22.0806 0.41644 0)
(21.8116 0.460957 0)
(21.5111 0.510762 0)
(21.1751 0.566274 0)
(20.7994 0.627857 0)
(20.3792 0.695778 0)
(19.9093 0.770162 0)
(19.3845 0.850932 0)
(18.7992 0.937733 0)
(18.1478 1.02985 0)
(17.4247 1.12607 0)
(16.625 1.22462 0)
(15.7443 1.32294 0)
(14.7796 1.4176 0)
(13.7292 1.504 0)
(12.5937 1.57636 0)
(11.376 1.6278 0)
(10.0827 1.65037 0)
(8.72412 1.63529 0)
(7.31683 1.5731 0)
(5.87658 1.45503 0)
(4.45477 1.27289 0)
(2.95494 1.0229 0)
(2.05553 0.812183 0)
(-0.340473 -0.11033 0)
(0.556955 -2.44735 0)
(-1.58529 -5.04166 0)
(2.71842 -6.03482 0)
(0.570038 0.807918 0)
(0.415255 0.390825 0)
(0.328961 0.140166 0)
(0.260135 0.0426417 0)
(0.205259 0.0175658 0)
(0.179842 -0.00249577 0)
(0.174639 -0.00290918 0)
(0.16771 0.00379045 0)
(0.154444 0.00463878 0)
(0.141709 0.00254404 0)
(0.130762 0.00237581 0)
(0.119055 0.00328685 0)
(0.107131 0.0030787 0)
(0.0977097 0.00166875 0)
(0.0920932 8.46851e-05 0)
(0.089563 -0.000950512 0)
(0.0884602 -0.00123929 0)
(0.0870824 -0.000882727 0)
(0.0841309 9.7899e-05 0)
(0.0788955 0.00132661 0)
(0.0713989 0.00229456 0)
(0.0623835 0.00264358 0)
(0.0531006 0.00227567 0)
(0.0447669 0.00166888 0)
(0.0378556 0.00141403 0)
(0.0321032 0.00128569 0)
(0.0272277 0.000971348 0)
(0.0232064 0.000623527 0)
(0.0200801 0.000369565 0)
(0.0177329 0.000279894 0)
(0.015844 0.000390755 0)
(0.0140042 0.0006784 0)
(0.0119569 0.00100571 0)
(0.00977797 0.00117512 0)
(0.00787804 0.000877623 0)
(0.00673305 0.000351478 0)
(0.00646055 -7.1429e-05 0)
(0.00678483 -0.000242686 0)
(0.00727062 -0.000159282 0)
(0.00762896 5.22795e-06 0)
(0.00782991 0.000130846 0)
(0.00796105 0.000211064 0)
(0.00817385 0.00016447 0)
(0.00870286 -6.69006e-05 0)
(0.00987903 -0.000460685 0)
(0.0120192 -0.000948535 0)
(0.014869 -0.001047 0)
(0.0174846 -0.000522528 0)
(0.0190121 0.000355594 0)
(0.0193933 0.00106493 0)
(0.0193665 0.00127357 0)
(0.019699 0.000995951 0)
(0.0209004 0.000352538 0)
(0.0233957 -0.000515745 0)
(0.027395 -0.00146616 0)
(0.0327502 -0.00222911 0)
(0.0387774 -0.0024478 0)
(0.0444771 -0.00198788 0)
(0.0492502 -0.00115492 0)
(0.0532777 -0.000418268 0)
(0.0569909 0.000294194 0)
(0.0602891 0.00134284 0)
(0.0625959 0.00274939 0)
(0.0633476 0.0041024 0)
(0.0621369 0.00464231 0)
(0.059451 0.0040155 0)
(0.057235 0.00227191 0)
(0.0576609 -0.000101726 0)
(0.0620658 -0.00285112 0)
(0.0707592 -0.00538245 0)
(0.0824054 -0.00667683 0)
(0.0939138 -0.00561169 0)
(0.10258 -0.00287455 0)
(0.107787 -0.000472468 0)
(0.110642 0.001222 0)
(0.112283 0.00214968 0)
(0.113747 0.00205438 0)
(0.11618 0.000998028 0)
(0.120568 -0.00055767 0)
(0.127392 -0.00210099 0)
(0.13634 -0.00311135 0)
(0.146134 -0.00299141 0)
(0.154797 -0.0013704 0)
(0.161031 0.0010635 0)
(0.16491 0.00282912 0)
(0.167494 0.00294614 0)
(0.170135 0.00171129 0)
(0.174021 7.09313e-05 0)
(0.17977 -0.0014534 0)
(0.1874 -0.00265461 0)
(0.196369 -0.0031972 0)
(0.205489 -0.00273173 0)
(0.213103 -0.0014301 0)
(0.218205 -0.000139806 0)
(0.221279 0.000411535 0)
(0.223873 0.00017633 0)
(0.227131 -0.000103852 0)
(0.230699 0.000342568 0)
(0.23279 0.0016915 0)
(0.231716 0.00306796 0)
(0.228035 0.00328854 0)
(0.224229 0.00214341 0)
(0.222403 0.000481566 0)
(0.223383 -0.00110078 0)
(0.227228 -0.00244513 0)
(0.233685 -0.00336457 0)
(0.2427 -0.00412669 0)
(0.253567 -0.0046958 0)
(0.264984 -0.00469455 0)
(0.274106 -0.00366561 0)
(0.277775 -0.00212725 0)
(0.276496 -0.00134732 0)
(0.272957 -0.00198131 0)
(0.269906 -0.00246141 0)
(0.267204 -0.00145974 0)
(0.263361 0.000748524 0)
(0.256786 0.00313227 0)
(0.248011 0.00489331 0)
(0.238156 0.00543256 0)
(0.228302 0.00513901 0)
(0.21945 0.00415268 0)
(0.21355 0.00168374 0)
(0.208242 -0.00158171 0)
(0.203434 -0.00197447 0)
(0.197665 0.000267882 0)
(0.190833 0.00221966 0)
(0.187706 0.00126191 0)
(0.190246 -0.00311049 0)
(0.196637 -0.00667765 0)
(0.203257 -0.00620699 0)
(0.207055 -0.00387843 0)
(0.206239 -0.00292429 0)
(0.203161 -0.00122539 0)
(0.199591 0.00255832 0)
(34.7556 0.00913593 0)
(39.7253 0.0353916 0)
(26.2677 0.0460857 0)
(22.7549 0.0434975 0)
(25.7165 0.0413842 0)
(27.6151 0.0439162 0)
(27.4242 0.0475792 0)
(26.8215 0.0495062 0)
(26.6709 0.0500548 0)
(26.8072 0.0504343 0)
(26.9181 0.0510291 0)
(26.9352 0.0516164 0)
(26.9244 0.0520194 0)
(26.9305 0.0522716 0)
(26.9513 0.052462 0)
(26.9727 0.0526262 0)
(26.99 0.0527585 0)
(27.0054 0.0528535 0)
(27.0213 0.0529178 0)
(27.0378 0.0529618 0)
(27.0543 0.0529926 0)
(27.0706 0.0530139 0)
(27.0866 0.0530276 0)
(27.1026 0.0530362 0)
(27.1185 0.0530421 0)
(27.1342 0.0530484 0)
(27.1499 0.0530583 0)
(27.1653 0.0530746 0)
(27.1807 0.0530998 0)
(27.1959 0.0531351 0)
(27.2111 0.0531813 0)
(27.2261 0.0532385 0)
(27.2409 0.0533065 0)
(27.2557 0.0533851 0)
(27.2704 0.0534745 0)
(27.2849 0.0535753 0)
(27.2993 0.0536884 0)
(27.3137 0.0538153 0)
(27.3279 0.0539575 0)
(27.342 0.0541169 0)
(27.356 0.0542957 0)
(27.3699 0.0544961 0)
(27.3836 0.0547209 0)
(27.3973 0.0549729 0)
(27.4108 0.0552559 0)
(27.4243 0.0555738 0)
(27.4376 0.0559315 0)
(27.4508 0.0563343 0)
(27.4639 0.0567882 0)
(27.4769 0.0572998 0)
(27.4898 0.057876 0)
(27.5026 0.0585242 0)
(27.5153 0.0592521 0)
(27.5279 0.0600681 0)
(27.5404 0.0609814 0)
(27.5527 0.0620023 0)
(27.565 0.0631426 0)
(27.5772 0.0644162 0)
(27.5893 0.0658391 0)
(27.6012 0.0674306 0)
(27.6131 0.0692129 0)
(27.6248 0.0712122 0)
(27.6364 0.0734586 0)
(27.6478 0.0759871 0)
(27.6591 0.0788376 0)
(27.6702 0.0820557 0)
(27.6811 0.0856934 0)
(27.6919 0.0898098 0)
(27.7025 0.0944722 0)
(27.713 0.0997568 0)
(27.7232 0.10575 0)
(27.7332 0.112552 0)
(27.743 0.120273 0)
(27.7525 0.129041 0)
(27.7618 0.139002 0)
(27.7707 0.150321 0)
(27.7793 0.163189 0)
(27.7875 0.177822 0)
(27.7952 0.194469 0)
(27.8024 0.213414 0)
(27.8088 0.234986 0)
(27.8144 0.25956 0)
(27.819 0.287567 0)
(27.8222 0.319502 0)
(27.8239 0.35593 0)
(27.8235 0.397498 0)
(27.8206 0.444941 0)
(27.8146 0.499092 0)
(27.8045 0.560891 0)
(27.7895 0.631388 0)
(27.768 0.711753 0)
(27.7385 0.803271 0)
(27.6988 0.907334 0)
(27.6463 1.02543 0)
(27.5775 1.15908 0)
(27.4885 1.30983 0)
(27.3743 1.47908 0)
(27.2289 1.66806 0)
(27.0451 1.87758 0)
(26.8145 2.10789 0)
(26.5274 2.35842 0)
(26.1725 2.62748 0)
(25.7375 2.91193 0)
(25.2093 3.2069 0)
(24.5742 3.50542 0)
(23.8184 3.79821 0)
(22.9287 4.07331 0)
(21.8945 4.31618 0)
(20.7038 4.50874 0)
(19.3648 4.63282 0)
(17.8431 4.6537 0)
(16.2588 4.58624 0)
(14.354 4.25654 0)
(12.5173 3.76024 0)
(9.62326 2.89431 0)
(7.31129 1.71212 0)
(1.80476 2.91614 0)
(1.51049 1.03339 0)
(0.974764 0.258096 0)
(0.704307 0.233489 0)
(0.593238 0.153518 0)
(0.54137 0.0494854 0)
(0.502344 0.0256752 0)
(0.456939 0.049399 0)
(0.406274 0.0531374 0)
(0.372713 0.042421 0)
(0.34933 0.0447297 0)
(0.321777 0.049552 0)
(0.291034 0.0435698 0)
(0.266078 0.0295337 0)
(0.250123 0.0157818 0)
(0.240182 0.00717797 0)
(0.23164 0.00507831 0)
(0.221967 0.00894898 0)
(0.210129 0.016967 0)
(0.194883 0.0256236 0)
(0.176039 0.0329968 0)
(0.154963 0.0372106 0)
(0.134287 0.036701 0)
(0.115019 0.0318663 0)
(0.0963586 0.0263841 0)
(0.0787376 0.022396 0)
(0.0644675 0.0189307 0)
(0.0541016 0.01532 0)
(0.0468318 0.0116989 0)
(0.0416986 0.00886691 0)
(0.0378346 0.00752015 0)
(0.0342492 0.00768275 0)
(0.0300226 0.00810835 0)
(0.0251153 0.0078984 0)
(0.0208694 0.0058066 0)
(0.0187294 0.00267143 0)
(0.0186553 -0.000143803 0)
(0.0196871 -0.00159072 0)
(0.0208339 -0.00157231 0)
(0.0216438 -0.00109913 0)
(0.0222591 -0.000880733 0)
(0.0228893 -0.000950751 0)
(0.0236574 -0.00178339 0)
(0.0248666 -0.00341802 0)
(0.0272151 -0.0059882 0)
(0.0319613 -0.0098524 0)
(0.0386672 -0.0111551 0)
(0.0451086 -0.00859615 0)
(0.0495008 -0.00408774 0)
(0.0518994 -0.00149057 0)
(0.053972 -0.00208862 0)
(0.0568718 -0.00468554 0)
(0.0611922 -0.00845043 0)
(0.0675521 -0.0132197 0)
(0.076482 -0.0181633 0)
(0.0877061 -0.0217648 0)
(0.10018 -0.0224581 0)
(0.112221 -0.0197603 0)
(0.123424 -0.016996 0)
(0.134377 -0.0164106 0)
(0.146023 -0.0164474 0)
(0.158142 -0.014703 0)
(0.169063 -0.0105712 0)
(0.176855 -0.00448873 0)
(0.180627 0.00180478 0)
(0.181397 0.00582923 0)
(0.182353 0.00213688 0)
(0.18658 -0.00892033 0)
(0.195959 -0.0234816 0)
(0.212126 -0.0365768 0)
(0.234129 -0.0420191 0)
(0.255672 -0.0352773 0)
(0.273106 -0.023825 0)
(0.284489 -0.0161983 0)
(0.292836 -0.0116279 0)
(0.299661 -0.00950718 0)
(0.306329 -0.0110043 0)
(0.3148 -0.0160339 0)
(0.32676 -0.0233322 0)
(0.343068 -0.0310566 0)
(0.363676 -0.0364636 0)
(0.386932 -0.0364001 0)
(0.409304 -0.0304149 0)
(0.429336 -0.0232258 0)
(0.445348 -0.0179501 0)
(0.458422 -0.0152774 0)
(0.471901 -0.0156621 0)
(0.487985 -0.0194135 0)
(0.506456 -0.0250761 0)
(0.52725 -0.0308268 0)
(0.550405 -0.0343707 0)
(0.574741 -0.0330364 0)
(0.595996 -0.0256456 0)
(0.610956 -0.0158448 0)
(0.620198 -0.0106673 0)
(0.627756 -0.0120992 0)
(0.636819 -0.0155024 0)
(0.647281 -0.0147013 0)
(0.655075 -0.00569375 0)
(0.656694 0.00784407 0)
(0.653408 0.0142435 0)
(0.650635 0.010483 0)
(0.651535 0.00142928 0)
(0.656195 -0.00873681 0)
(0.664247 -0.018575 0)
(0.675696 -0.027718 0)
(0.691078 -0.0370547 0)
(0.709738 -0.0437537 0)
(0.730392 -0.041297 0)
(0.747871 -0.0258573 0)
(0.755656 -0.000541727 0)
(0.753074 0.0168693 0)
(0.747416 0.0173831 0)
(0.742941 0.0138649 0)
(0.740961 0.0167961 0)
(0.735695 0.02296 0)
(0.7238 0.0273302 0)
(0.70704 0.0306984 0)
(0.686165 0.0313971 0)
(0.664863 0.0303424 0)
(0.644162 0.0289632 0)
(0.625449 0.0210641 0)
(0.611213 0.0173749 0)
(0.597484 0.0313027 0)
(0.591858 0.0341904 0)
(0.584332 0.0173189 0)
(0.581205 -0.00259297 0)
(0.580927 -0.0179784 0)
(0.585147 -0.0215742 0)
(0.584138 -0.013081 0)
(0.577443 3.35857e-05 0)
(0.558857 0.010566 0)
(0.532564 0.0160047 0)
(0.509906 0.0211848 0)
(34.7501 -0.00023362 0)
(39.6923 -0.001219 0)
(26.2048 -0.000150183 0)
(22.6846 0.00250909 0)
(25.6459 0.00517307 0)
(27.535 0.00691034 0)
(27.3274 0.00804211 0)
(26.7077 0.009046 0)
(26.5428 0.00999793 0)
(26.6661 0.0108617 0)
(26.7634 0.0116355 0)
(26.7661 0.0123341 0)
(26.7407 0.0129676 0)
(26.7324 0.0135488 0)
(26.739 0.0140954 0)
(26.7461 0.0146212 0)
(26.749 0.015133 0)
(26.7502 0.0156325 0)
(26.7519 0.0161191 0)
(26.7543 0.0165914 0)
(26.7569 0.0170484 0)
(26.7593 0.0174905 0)
(26.7616 0.0179197 0)
(26.7639 0.0183392 0)
(26.7663 0.0187519 0)
(26.7686 0.0191598 0)
(26.771 0.0195632 0)
(26.7734 0.0199611 0)
(26.7758 0.0203522 0)
(26.7783 0.0207356 0)
(26.7807 0.0211112 0)
(26.7832 0.0214799 0)
(26.7856 0.0218435 0)
(26.7881 0.0222041 0)
(26.7906 0.0225645 0)
(26.7931 0.0229269 0)
(26.7957 0.0232938 0)
(26.7982 0.0236674 0)
(26.8008 0.0240496 0)
(26.8034 0.0244427 0)
(26.8059 0.0248487 0)
(26.8085 0.0252698 0)
(26.8112 0.0257087 0)
(26.8138 0.026168 0)
(26.8164 0.0266508 0)
(26.819 0.0271607 0)
(26.8216 0.0277015 0)
(26.8242 0.0282774 0)
(26.8268 0.0288934 0)
(26.8294 0.029555 0)
(26.832 0.0302685 0)
(26.8345 0.0310411 0)
(26.837 0.0318812 0)
(26.8394 0.0327983 0)
(26.8418 0.0338033 0)
(26.8442 0.0349085 0)
(26.8465 0.0361279 0)
(26.8487 0.0374771 0)
(26.8508 0.0389739 0)
(26.8528 0.0406384 0)
(26.8546 0.0424929 0)
(26.8564 0.0445632 0)
(26.8579 0.0468781 0)
(26.8593 0.0494703 0)
(26.8604 0.052377 0)
(26.8613 0.0556405 0)
(26.8619 0.0593085 0)
(26.8622 0.0634354 0)
(26.8621 0.0680832 0)
(26.8617 0.0733224 0)
(26.8608 0.0792336 0)
(26.8594 0.0859089 0)
(26.8575 0.0934536 0)
(26.855 0.101989 0)
(26.8518 0.111653 0)
(26.848 0.122605 0)
(26.8434 0.135027 0)
(26.8379 0.149131 0)
(26.8316 0.165157 0)
(26.8244 0.183383 0)
(26.8162 0.204131 0)
(26.807 0.22777 0)
(26.7967 0.254729 0)
(26.7854 0.285502 0)
(26.7731 0.32066 0)
(26.7599 0.360866 0)
(26.7458 0.406888 0)
(26.7312 0.459615 0)
(26.7162 0.520073 0)
(26.7013 0.589452 0)
(26.687 0.66912 0)
(26.6739 0.760649 0)
(26.6628 0.86584 0)
(26.6548 0.986738 0)
(26.6509 1.12564 0)
(26.6521 1.28507 0)
(26.6597 1.46779 0)
(26.6745 1.67669 0)
(26.6972 1.91474 0)
(26.7277 2.1848 0)
(26.7648 2.48945 0)
(26.806 2.83069 0)
(26.8466 3.20959 0)
(26.8794 3.62586 0)
(26.8939 4.07724 0)
(26.8756 4.55902 0)
(26.8054 5.06344 0)
(26.6592 5.57956 0)
(26.4066 6.09216 0)
(26.0112 6.58412 0)
(25.4283 7.0295 0)
(24.5937 7.41034 0)
(23.4539 7.6852 0)
(21.8952 7.90042 0)
(19.813 8.1512 0)
(17.1981 8.38766 0)
(14.4018 9.72991 0)
(9.67398 4.92007 0)
(6.55564 1.622 0)
(1.70231 1.05441 0)
(1.41859 0.454379 0)
(1.28742 0.0477736 0)
(0.921453 0.139692 0)
(0.708021 0.218196 0)
(0.631262 0.164498 0)
(0.60299 0.106667 0)
(0.569307 0.102734 0)
(0.516258 0.123663 0)
(0.458052 0.11553 0)
(0.419363 0.0813304 0)
(0.400172 0.0513801 0)
(0.388994 0.0392778 0)
(0.374964 0.0423496 0)
(0.350215 0.0475843 0)
(0.320095 0.0574021 0)
(0.2924 0.0709702 0)
(0.266841 0.0815586 0)
(0.239977 0.0839703 0)
(0.215188 0.0751267 0)
(0.192644 0.0652331 0)
(0.154839 0.063038 0)
(0.100087 0.0575072 0)
(0.0719561 0.0439843 0)
(0.059367 0.0319048 0)
(0.0517439 0.0228082 0)
(0.0467704 0.0168275 0)
(0.0441843 0.0138445 0)
(0.0422723 0.0140852 0)
(0.0389819 0.0159236 0)
(0.0303942 0.0176032 0)
(0.022646 0.0114546 0)
(0.0220252 0.003274 0)
(0.0235886 -0.00209037 0)
(0.0250917 -0.004653 0)
(0.0258475 -0.00384845 0)
(0.0266954 -0.00268066 0)
(0.0269986 -0.00282351 0)
(0.0274786 -0.00270495 0)
(0.028496 -0.00381907 0)
(0.0301588 -0.00713558 0)
(0.0318701 -0.0133014 0)
(0.0368066 -0.0220358 0)
(0.0451239 -0.0260092 0)
(0.0529264 -0.0233272 0)
(0.0577984 -0.0145682 0)
(0.0617662 -0.00801204 0)
(0.070162 -0.00815771 0)
(0.0819442 -0.0121258 0)
(0.0934341 -0.0194564 0)
(0.101979 -0.0303597 0)
(0.1107 -0.0410771 0)
(0.121348 -0.0490887 0)
(0.132327 -0.0520487 0)
(0.142828 -0.0491573 0)
(0.155008 -0.0417537 0)
(0.170436 -0.0400201 0)
(0.191257 -0.0421926 0)
(0.215493 -0.0396118 0)
(0.240863 -0.0304135 0)
(0.26805 -0.0147545 0)
(0.295421 0.000103895 0)
(0.313331 0.000150555 0)
(0.317718 -0.0130817 0)
(0.319865 -0.0303082 0)
(0.32717 -0.0530854 0)
(0.342838 -0.076953 0)
(0.36426 -0.0928875 0)
(0.385494 -0.0838259 0)
(0.399655 -0.0538372 0)
(0.397918 -0.0377732 0)
(0.403896 -0.0273495 0)
(0.417825 -0.0212515 0)
(0.436658 -0.024195 0)
(0.454896 -0.0378431 0)
(0.47177 -0.0563043 0)
(0.490065 -0.075184 0)
(0.511485 -0.0909049 0)
(0.535426 -0.0980146 0)
(0.562671 -0.0896314 0)
(0.598554 -0.0657317 0)
(0.645762 -0.0456639 0)
(0.693201 -0.0478881 0)
(0.726506 -0.0638157 0)
(0.753162 -0.0767742 0)
(0.778073 -0.0856574 0)
(0.804719 -0.0937742 0)
(0.837392 -0.100165 0)
(0.877802 -0.0940041 0)
(0.916568 -0.0734021 0)
(0.947427 -0.0523358 0)
(0.963508 -0.0349872 0)
(0.972039 -0.0295079 0)
(0.986453 -0.0337557 0)
(1.00867 -0.0308204 0)
(1.02863 -0.0126558 0)
(1.04034 0.00711686 0)
(1.04105 0.0123418 0)
(1.04493 0.00188484 0)
(1.0528 -0.0132576 0)
(1.06224 -0.0283976 0)
(1.07027 -0.044204 0)
(1.07948 -0.057355 0)
(1.09236 -0.0687105 0)
(1.11074 -0.0781522 0)
(1.13637 -0.074549 0)
(1.1628 -0.0478979 0)
(1.18174 -0.0102398 0)
(1.18553 0.0118411 0)
(1.18149 0.00923524 0)
(1.18126 -0.000547745 0)
(1.18947 0.00451054 0)
(1.19487 0.0257967 0)
(1.18881 0.0626623 0)
(1.17014 0.0916959 0)
(1.14882 0.101124 0)
(1.12807 0.100447 0)
(1.10685 0.0941081 0)
(1.0831 0.0747461 0)
(1.05784 0.0347358 0)
(1.03812 0.0132895 0)
(1.02688 0.0213247 0)
(1.0444 0.0377632 0)
(1.07049 0.0281351 0)
(1.08806 -0.00523624 0)
(1.10251 -0.0237939 0)
(1.10673 0.00923045 0)
(1.08687 0.0707519 0)
(1.03475 0.0746414 0)
(0.943469 0.0692807 0)
(0.79245 0.0961502 0)
(34.7555 0.00218193 0)
(39.7082 0.010483 0)
(26.2211 0.0167881 0)
(22.6949 0.0203712 0)
(25.6517 0.0225926 0)
(27.5396 0.0244873 0)
(27.3321 0.0264515 0)
(26.7122 0.0283582 0)
(26.5463 0.0300067 0)
(26.6686 0.0313653 0)
(26.7651 0.0325206 0)
(26.7672 0.0335451 0)
(26.7411 0.0344565 0)
(26.7321 0.0352538 0)
(26.738 0.0359462 0)
(26.7444 0.0365522 0)
(26.7466 0.0370879 0)
(26.747 0.037563 0)
(26.748 0.0379837 0)
(26.7498 0.0383554 0)
(26.7516 0.0386832 0)
(26.7533 0.0389722 0)
(26.7548 0.0392273 0)
(26.7564 0.0394535 0)
(26.758 0.0396559 0)
(26.7595 0.0398391 0)
(26.7611 0.0400072 0)
(26.7627 0.0401636 0)
(26.7643 0.040311 0)
(26.7659 0.0404517 0)
(26.7675 0.0405878 0)
(26.7691 0.040721 0)
(26.7706 0.040853 0)
(26.7722 0.0409856 0)
(26.7738 0.0411209 0)
(26.7754 0.0412612 0)
(26.7769 0.0414089 0)
(26.7785 0.0415666 0)
(26.78 0.0417371 0)
(26.7816 0.0419232 0)
(26.7831 0.042128 0)
(26.7846 0.0423548 0)
(26.7861 0.0426071 0)
(26.7876 0.042889 0)
(26.7891 0.043205 0)
(26.7906 0.0435602 0)
(26.792 0.0439604 0)
(26.7934 0.0444123 0)
(26.7948 0.0449231 0)
(26.7961 0.045501 0)
(26.7974 0.0461551 0)
(26.7986 0.0468955 0)
(26.7998 0.0477333 0)
(26.801 0.0486807 0)
(26.802 0.0497511 0)
(26.803 0.0509594 0)
(26.8039 0.0523225 0)
(26.8047 0.053859 0)
(26.8053 0.0555905 0)
(26.8059 0.057541 0)
(26.8062 0.0597384 0)
(26.8064 0.0622141 0)
(26.8064 0.0650041 0)
(26.8062 0.0681495 0)
(26.8058 0.0716965 0)
(26.805 0.0756979 0)
(26.804 0.0802133 0)
(26.8026 0.0853098 0)
(26.8008 0.0910633 0)
(26.7986 0.0975593 0)
(26.796 0.104894 0)
(26.7927 0.113177 0)
(26.7889 0.122529 0)
(26.7844 0.133089 0)
(26.7792 0.145011 0)
(26.7731 0.158472 0)
(26.7661 0.173667 0)
(26.7581 0.190819 0)
(26.749 0.210177 0)
(26.7386 0.232023 0)
(26.7269 0.256673 0)
(26.7138 0.284483 0)
(26.699 0.315853 0)
(26.6825 0.35123 0)
(26.6642 0.391118 0)
(26.6439 0.436079 0)
(26.6215 0.486741 0)
(26.597 0.543805 0)
(26.5703 0.608051 0)
(26.5414 0.680349 0)
(26.5104 0.761662 0)
(26.4774 0.853061 0)
(26.4428 0.955735 0)
(26.407 1.071 0)
(26.3709 1.20034 0)
(26.3352 1.34541 0)
(26.3015 1.50809 0)
(26.2714 1.69053 0)
(26.2472 1.8952 0)
(26.2316 2.12492 0)
(26.2279 2.38294 0)
(26.2397 2.67293 0)
(26.2706 2.99899 0)
(26.3242 3.36557 0)
(26.403 3.77726 0)
(26.5076 4.23859 0)
(26.6358 4.75363 0)
(26.7807 5.32566 0)
(26.9298 5.95672 0)
(27.0617 6.64789 0)
(27.1498 7.39955 0)
(27.1508 8.2127 0)
(27.0329 9.09429 0)
(26.7294 10.0598 0)
(26.2599 11.1775 0)
(25.4824 12.3839 0)
(24.7398 14.1322 0)
(23.2396 14.642 0)
(20.4513 14.2821 0)
(17.3451 12.2258 0)
(7.65504 2.30346 0)
(6.17928 0.168213 0)
(2.34794 0.912991 0)
(1.37602 0.650791 0)
(1.26317 0.261516 0)
(1.22054 0.0748771 0)
(0.966272 0.204928 0)
(0.768928 0.277408 0)
(0.678167 0.220297 0)
(0.640193 0.141066 0)
(0.630925 0.0869326 0)
(0.626255 0.0628834 0)
(0.607476 0.066839 0)
(0.543448 0.098341 0)
(0.385373 0.129366 0)
(0.324451 0.125317 0)
(0.303879 0.12882 0)
(0.283932 0.135321 0)
(0.260665 0.128047 0)
(0.227221 0.109163 0)
(0.178906 0.130474 0)
(0.107972 0.0960701 0)
(0.0776362 0.0606753 0)
(0.0578796 0.0427014 0)
(0.0397441 0.0273631 0)
(0.0235649 0.017489 0)
(0.0177833 0.0163155 0)
(0.0184024 0.0220244 0)
(0.0160092 0.0213768 0)
(0.000707862 0.0186418 0)
(0.0107613 0.0069444 0)
(0.0196217 -0.00178026 0)
(0.0178006 -0.00330031 0)
(0.0116023 -0.0119755 0)
(-0.00291182 -0.00386274 0)
(0.00989571 0.00344999 0)
(0.00468844 -0.00330935 0)
(-0.00444971 0.000306004 0)
(-0.00813084 0.00155542 0)
(-0.00332912 0.00160739 0)
(0.00751698 -0.00584242 0)
(0.00283141 -0.0560794 0)
(0.000679817 -0.045753 0)
(0.00382039 -0.0292839 0)
(0.0131212 -0.0105381 0)
(0.0257014 -0.00471998 0)
(0.0555936 -0.0212043 0)
(0.0770203 -0.0218724 0)
(0.119483 -0.0296649 0)
(0.130293 -0.0435389 0)
(0.135096 -0.0543581 0)
(0.140608 -0.0626573 0)
(0.14621 -0.0656388 0)
(0.148582 -0.0653095 0)
(0.148446 -0.054936 0)
(0.156805 -0.0386359 0)
(0.180024 -0.0502893 0)
(0.196952 -0.045228 0)
(0.211685 -0.0403676 0)
(0.235956 -0.0337835 0)
(0.305178 -0.0278885 0)
(0.463196 0.0103617 0)
(0.491008 0.00129128 0)
(0.497489 -0.0268608 0)
(0.501004 -0.0662017 0)
(0.508614 -0.108077 0)
(0.516495 -0.144465 0)
(0.519261 -0.157222 0)
(0.49939 -0.0597016 0)
(0.393479 -0.0426017 0)
(0.381241 -0.0407673 0)
(0.399124 -0.0352055 0)
(0.467508 -0.0524938 0)
(0.51487 -0.0755366 0)
(0.54176 -0.0858737 0)
(0.561465 -0.101798 0)
(0.576346 -0.120848 0)
(0.585547 -0.133978 0)
(0.587425 -0.135635 0)
(0.578785 -0.118849 0)
(0.648786 -0.0935238 0)
(0.868804 -0.106055 0)
(0.93422 -0.104127 0)
(0.970922 -0.10607 0)
(1.00873 -0.115543 0)
(1.04346 -0.14159 0)
(1.07093 -0.179564 0)
(1.10352 -0.202155 0)
(1.15672 -0.172388 0)
(1.23117 -0.0861606 0)
(1.29731 -0.0531469 0)
(1.3271 -0.0734798 0)
(1.34341 -0.101888 0)
(1.36562 -0.124166 0)
(1.38789 -0.0877099 0)
(1.40554 0.0127603 0)
(1.42527 0.0170676 0)
(1.44519 -0.0224486 0)
(1.46303 -0.0378842 0)
(1.47423 -0.0380515 0)
(1.47436 -0.0485142 0)
(1.47373 -0.0665533 0)
(1.48053 -0.0883107 0)
(1.49494 -0.115444 0)
(1.51374 -0.15032 0)
(1.53514 -0.163937 0)
(1.56952 -0.050465 0)
(1.5928 0.0517274 0)
(1.60511 0.0299041 0)
(1.61857 -0.00565386 0)
(1.64503 -0.00595319 0)
(1.67518 0.0331805 0)
(1.70118 0.0827031 0)
(1.7002 0.108305 0)
(1.67605 0.0981662 0)
(1.64511 0.0704743 0)
(1.61378 0.0704865 0)
(1.59437 0.106158 0)
(1.59102 0.116612 0)
(1.59228 0.0737353 0)
(1.59683 0.00357668 0)
(1.62595 -0.0508321 0)
(1.67477 -0.0800939 0)
(1.72912 -0.0803085 0)
(1.77517 -0.0758024 0)
(1.80229 -0.0701312 0)
(1.7867 0.0518842 0)
(1.71516 0.26185 0)
(1.69485 0.383871 0)
(1.60368 0.342886 0)
(34.7559 0.000895051 0)
(39.707 0.00363945 0)
(26.2163 0.0053942 0)
(22.6893 0.00634592 0)
(25.647 0.00725597 0)
(27.5354 0.00832162 0)
(27.3278 0.00939859 0)
(26.7074 0.0103339 0)
(26.5412 0.0111013 0)
(26.6633 0.0117531 0)
(26.7598 0.012338 0)
(26.7618 0.0128711 0)
(26.7357 0.01335 0)
(26.7268 0.0137754 0)
(26.7326 0.0141559 0)
(26.7391 0.0145028 0)
(26.7414 0.0148242 0)
(26.742 0.015125 0)
(26.7431 0.0154082 0)
(26.7449 0.0156764 0)
(26.7469 0.0159324 0)
(26.7487 0.0161783 0)
(26.7504 0.0164166 0)
(26.7521 0.0166493 0)
(26.7538 0.0168783 0)
(26.7555 0.0171052 0)
(26.7573 0.0173314 0)
(26.759 0.017558 0)
(26.7607 0.0177861 0)
(26.7624 0.0180167 0)
(26.7642 0.0182505 0)
(26.7659 0.0184888 0)
(26.7676 0.0187327 0)
(26.7694 0.018984 0)
(26.7711 0.0192442 0)
(26.7728 0.0195155 0)
(26.7745 0.0197999 0)
(26.7762 0.0200999 0)
(26.778 0.0204179 0)
(26.7797 0.0207567 0)
(26.7814 0.0211194 0)
(26.7831 0.0215091 0)
(26.7848 0.0219296 0)
(26.7865 0.0223849 0)
(26.7881 0.0228796 0)
(26.7898 0.0234187 0)
(26.7914 0.0240079 0)
(26.7931 0.0246535 0)
(26.7947 0.0253627 0)
(26.7963 0.0261435 0)
(26.7978 0.027005 0)
(26.7994 0.0279574 0)
(26.8009 0.0290125 0)
(26.8024 0.0301835 0)
(26.8038 0.0314853 0)
(26.8052 0.0329348 0)
(26.8065 0.0345513 0)
(26.8078 0.0363562 0)
(26.809 0.0383741 0)
(26.8101 0.0406325 0)
(26.8112 0.0431624 0)
(26.8121 0.0459991 0)
(26.813 0.0491819 0)
(26.8137 0.0527555 0)
(26.8143 0.0567698 0)
(26.8147 0.0612814 0)
(26.8149 0.0663539 0)
(26.815 0.0720586 0)
(26.8148 0.0784763 0)
(26.8144 0.0856976 0)
(26.8137 0.0938245 0)
(26.8128 0.102972 0)
(26.8115 0.11327 0)
(26.8098 0.124864 0)
(26.8078 0.137917 0)
(26.8053 0.152616 0)
(26.8023 0.169167 0)
(26.7988 0.187805 0)
(26.7948 0.208791 0)
(26.7902 0.232421 0)
(26.7849 0.259024 0)
(26.7789 0.288971 0)
(26.7722 0.322676 0)
(26.7647 0.360601 0)
(26.7564 0.403262 0)
(26.7473 0.451231 0)
(26.7374 0.505145 0)
(26.7267 0.565708 0)
(26.7151 0.633694 0)
(26.7028 0.709957 0)
(26.6899 0.795426 0)
(26.6763 0.891115 0)
(26.6624 0.998119 0)
(26.6483 1.11761 0)
(26.6342 1.25084 0)
(26.6206 1.39915 0)
(26.6079 1.56391 0)
(26.5967 1.7466 0)
(26.5877 1.94876 0)
(26.5819 2.17199 0)
(26.5806 2.41805 0)
(26.5855 2.68889 0)
(26.5986 2.98678 0)
(26.623 3.3145 0)
(26.662 3.67559 0)
(26.72 4.07469 0)
(26.8022 4.51789 0)
(26.9142 5.0132 0)
(27.0622 5.57095 0)
(27.2517 6.20395 0)
(27.488 6.92816 0)
(27.7731 7.76097 0)
(28.11 8.72317 0)
(28.4892 9.82909 0)
(28.9235 11.1025 0)
(29.3781 12.5122 0)
(29.8943 14.1019 0)
(30.4929 15.7726 0)
(30.6674 17.3811 0)
(30.8709 18.7995 0)
(29.0271 17.7368 0)
(25.6309 15.1739 0)
(21.0359 12.0634 0)
(13.9307 4.27533 0)
(6.82307 0.532898 0)
(5.43323 -0.116942 0)
(2.33147 0.620341 0)
(1.48437 0.6754 0)
(1.38671 0.356101 0)
(1.33242 0.125033 0)
(1.18616 0.0274228 0)
(0.980334 0.0420694 0)
(0.805663 0.173446 0)
(0.706143 0.477139 0)
(0.317483 0.341711 0)
(0.195632 0.157759 0)
(0.153232 0.180723 0)
(0.16049 0.247657 0)
(0.188138 0.27863 0)
(-0.0451551 0.164626 0)
(-0.103582 0.597643 0)
(-0.381132 0.443577 0)
(-0.513487 0.173003 0)
(-0.413101 0.0867218 0)
(-0.695374 0.0817063 0)
(-0.392362 0.0361901 0)
(-0.426723 0.0424587 0)
(-0.793692 0.066598 0)
(-1.28161 0.140832 0)
(-1.36904 0.109972 0)
(-1.63323 0.0315375 0)
(-1.82067 0.00612868 0)
(-2.11163 0.0261566 0)
(-2.27722 0.0400762 0)
(-1.86381 -0.000460706 0)
(-2.62031 -0.0100913 0)
(-2.31723 0.0236041 0)
(-2.44732 0.00991894 0)
(-2.24008 -0.0554873 0)
(-1.93426 -0.12731 0)
(-1.69942 -0.125406 0)
(-1.33558 -0.138969 0)
(-0.20869 -0.0680615 0)
(-0.169011 -0.0322123 0)
(-0.111129 -0.0148648 0)
(-0.300103 -0.0475454 0)
(-0.268844 -0.13753 0)
(-0.145622 -0.220337 0)
(-0.0476656 -0.207004 0)
(0.107326 -0.0650585 0)
(0.131745 -0.0565245 0)
(0.13802 -0.0664062 0)
(0.140954 -0.0625991 0)
(0.12825 -0.0714882 0)
(0.190902 -0.0648597 0)
(0.318792 -0.261479 0)
(0.494418 -0.323708 0)
(0.578905 -0.316444 0)
(0.73959 -0.331672 0)
(0.766724 -0.44126 0)
(0.710563 -0.826062 0)
(0.897326 -0.577448 0)
(0.600617 -0.0158997 0)
(0.649111 -0.0232729 0)
(0.682635 -0.0659402 0)
(0.686924 -0.115388 0)
(0.664486 -0.155583 0)
(0.628548 -0.169613 0)
(0.493347 0.548801 0)
(0.147452 0.273422 0)
(-0.106341 -0.0369336 0)
(-0.145059 -0.176977 0)
(-0.486252 -0.421963 0)
(0.0464003 -0.19109 0)
(0.371454 -0.117191 0)
(0.50367 -0.105743 0)
(0.55952 -0.115485 0)
(0.5589 -0.119663 0)
(0.519574 -0.115414 0)
(0.399635 -0.216106 0)
(0.343815 -1.04906 0)
(0.482291 -0.802534 0)
(0.84096 -0.16894 0)
(0.934682 -0.139193 0)
(1.04234 -0.143242 0)
(1.23111 -0.141595 0)
(1.27425 -0.20814 0)
(1.27342 -0.270313 0)
(1.25185 -0.296811 0)
(1.19487 -0.261913 0)
(1.65244 -0.0296047 0)
(1.77477 -0.0444941 0)
(1.80793 -0.0933327 0)
(1.8317 -0.146619 0)
(1.84702 -0.165068 0)
(1.78234 -0.0629553 0)
(1.82022 -0.0164276 0)
(1.8804 -0.0698684 0)
(1.90038 -0.0801817 0)
(1.88226 -0.0487429 0)
(1.85522 -0.0423375 0)
(1.84669 -0.0693658 0)
(1.85325 -0.117341 0)
(1.86491 -0.169396 0)
(1.88334 -0.196986 0)
(1.92384 -0.173124 0)
(1.95531 -0.0991988 0)
(2.0008 -0.0218735 0)
(2.02933 -0.0367403 0)
(2.05241 -0.0811773 0)
(2.08832 -0.119062 0)
(2.17385 -0.120187 0)
(2.4266 -0.0119618 0)
(2.50234 0.0805648 0)
(2.42026 0.199371 0)
(2.30464 0.238933 0)
(2.24606 0.228019 0)
(2.24244 0.183847 0)
(2.26531 0.105193 0)
(2.28025 0.0310394 0)
(2.29574 -0.032214 0)
(2.30707 -0.113745 0)
(2.32575 -0.219621 0)
(2.35217 -0.294488 0)
(2.43472 -0.121276 0)
(2.76049 0.0651147 0)
(3.1811 -0.0194875 0)
(2.94988 0.841116 0)
(2.96185 0.617875 0)
(2.97009 0.437918 0)
(34.7576 0.0010487 0)
(39.7118 0.00477394 0)
(26.222 0.00766129 0)
(22.6943 0.00952971 0)
(25.6514 0.0111558 0)
(27.5396 0.0128336 0)
(27.3319 0.0144801 0)
(26.7113 0.0159819 0)
(26.5449 0.0173252 0)
(26.6668 0.0185457 0)
(26.7631 0.0196686 0)
(26.765 0.0206998 0)
(26.7387 0.0216402 0)
(26.7296 0.0224955 0)
(26.7353 0.0232755 0)
(26.7416 0.0239898 0)
(26.7438 0.0246455 0)
(26.7442 0.025248 0)
(26.7451 0.0258017 0)
(26.7469 0.0263109 0)
(26.7487 0.0267794 0)
(26.7503 0.0272111 0)
(26.7519 0.0276099 0)
(26.7535 0.0279793 0)
(26.7551 0.0283232 0)
(26.7568 0.028645 0)
(26.7584 0.028948 0)
(26.7601 0.0292353 0)
(26.7617 0.0295093 0)
(26.7634 0.0297725 0)
(26.765 0.0300269 0)
(26.7667 0.0302747 0)
(26.7684 0.0305182 0)
(26.77 0.0307596 0)
(26.7717 0.0310014 0)
(26.7734 0.0312465 0)
(26.7751 0.0314975 0)
(26.7768 0.0317576 0)
(26.7785 0.0320298 0)
(26.7802 0.0323175 0)
(26.7819 0.0326243 0)
(26.7836 0.032954 0)
(26.7853 0.0333111 0)
(26.787 0.0337002 0)
(26.7887 0.0341267 0)
(26.7905 0.0345963 0)
(26.7922 0.0351158 0)
(26.7939 0.0356925 0)