/*--------------------------------*- C++ -*----------------------------------*\
| =========                 |                                                 |
| \\      /  F ield         | OpenFOAM: The Open Source CFD Toolbox           |
|  \\    /   O peration     | Version:  2406                                  |
|   \\  /    A nd           | Website:  www.openfoam.com                      |
|    \\/     M anipulation  |                                                 |
\*---------------------------------------------------------------------------*/
FoamFile
{
    version     2.0;
    format      ascii;
    arch        "LSB;label=32;scalar=64";
    class       volVectorField;
    location    "0.4";
    object      U;
}
// * * * * * * * * * * * * * * * * * * * * * * * * * * * * * * * * * * * * * //

dimensions      [0 1 -1 0 0 0 0];

internalField   nonuniform List<vector> 
2250
(
(0.0250665 -1.44569e-08 0)
(0.0250665 -1.66204e-08 0)
(0.0250666 -1.25958e-08 0)
(0.0250666 -6.0578e-09 0)
(0.0250666 1.30057e-09 0)
(0.0250666 -4.27808e-09 0)
(0.0250666 -5.83193e-09 0)
(0.0250666 6.22911e-09 0)
(0.0250666 1.07107e-08 0)
(0.0250666 4.66282e-09 0)
(0.0250666 -9.09589e-10 0)
(0.0250666 -4.68251e-09 0)
(0.0250666 -3.5175e-09 0)
(0.0250666 -4.40352e-10 0)
(0.0250666 1.89888e-09 0)
(0.0250666 1.80415e-09 0)
(0.0250666 5.55916e-10 0)
(0.0250666 -1.43164e-09 0)
(0.0250666 -1.91904e-09 0)
(0.0250666 -5.47564e-10 0)
(0.0250666 5.2274e-10 0)
(0.0250666 -5.51345e-10 0)
(0.0250666 -3.83883e-09 0)
(0.0250666 -6.41155e-09 0)
(0.0250666 -5.4337e-09 0)
(0.0250666 -1.78971e-09 0)
(0.0250666 1.48551e-09 0)
(0.0250666 1.84095e-09 0)
(0.0250666 8.06817e-11 0)
(0.0250666 -2.81359e-10 0)
(0.0250666 9.86983e-10 0)
(0.0250666 1.75386e-09 0)
(0.0250666 1.97649e-09 0)
(0.0250666 1.71302e-09 0)
(0.0250666 3.97224e-10 0)
(0.0250666 -8.10237e-10 0)
(0.0250666 -5.35654e-10 0)
(0.0250666 9.10118e-10 0)
(0.0250666 1.98824e-09 0)
(0.0250666 1.29785e-09 0)
(0.0250666 -7.86252e-10 0)
(0.0250666 -2.94966e-09 0)
(0.0250666 -4.26698e-09 0)
(0.0250666 -3.64805e-09 0)
(0.0250666 -1.72336e-09 0)
(0.0250666 -1.02226e-09 0)
(0.0250666 -1.50448e-09 0)
(0.0250666 -9.94238e-10 0)
(0.0250666 2.02774e-10 0)
(0.0250666 4.91068e-10 0)
(0.0250666 -3.09446e-10 0)
(0.0250666 -1.33643e-09 0)
(0.0250666 -1.39017e-09 0)
(0.0250666 2.16866e-10 0)
(0.0250666 2.64886e-09 0)
(0.0250666 4.07674e-09 0)
(0.0250666 3.63677e-09 0)
(0.0250666 3.03985e-09 0)
(0.0250665 4.01353e-09 0)
(0.0250665 5.15717e-09 0)
(0.0250665 4.50929e-09 0)
(0.0250665 2.68538e-09 0)
(0.0250665 1.0015e-09 0)
(0.0250665 -1.10068e-10 0)
(0.0250665 1.56567e-10 0)
(0.0250665 1.72805e-09 0)
(0.0250665 3.0204e-09 0)
(0.0250665 2.83955e-09 0)
(0.0250665 1.28124e-09 0)
(0.0250665 -1.12618e-09 0)
(0.0250665 -3.09931e-09 0)
(0.0250665 -3.01293e-09 0)
(0.0250665 -1.14139e-09 0)
(0.0250666 1.45331e-10 0)
(0.0250666 -9.62817e-10 0)
(0.0250666 -3.07112e-09 0)
(0.0250666 -3.30918e-09 0)
(0.0250666 -9.40493e-10 0)
(0.0250666 2.01473e-09 0)
(0.0250666 2.93456e-09 0)
(0.0250666 1.03278e-09 0)
(0.0250666 -1.52415e-09 0)
(0.0250666 -2.26053e-09 0)
(0.0250666 -1.41574e-09 0)
(0.0250666 -9.77017e-10 0)
(0.0250666 -1.6927e-09 0)
(0.0250666 -2.62817e-09 0)
(0.0250666 -2.66989e-09 0)
(0.0250666 -1.74654e-09 0)
(0.0250666 -1.16951e-09 0)
(0.0250666 -2.30855e-09 0)
(0.0250666 -4.40396e-09 0)
(0.0250666 -5.11604e-09 0)
(0.0250666 -3.73252e-09 0)
(0.0250666 -1.95234e-09 0)
(0.0250666 -1.19675e-09 0)
(0.0250667 -1.33039e-09 0)
(0.0250667 -2.01544e-09 0)
(0.0250667 -2.31817e-09 0)
(0.0250667 -7.82193e-10 0)
(0.0250667 1.94255e-09 0)
(0.0250667 3.54519e-09 0)
(0.0250667 3.44175e-09 0)
(0.0250667 2.61031e-09 0)
(0.0250667 1.47997e-09 0)
(0.0250667 9.07345e-10 0)
(0.0250667 2.16682e-09 0)
(0.0250667 4.2975e-09 0)
(0.0250667 4.40758e-09 0)
(0.0250666 1.9981e-09 0)
(0.0250666 -2.36655e-10 0)
(0.0250666 -6.81547e-10 0)
(0.0250666 -5.28635e-10 0)
(0.0250666 -7.38081e-10 0)
(0.0250666 -1.18311e-09 0)
(0.0250666 -2.05575e-09 0)
(0.0250666 -2.39384e-09 0)
(0.0250666 -5.43729e-10 0)
(0.0250666 1.76146e-09 0)
(0.0250666 1.72829e-09 0)
(0.0250666 8.55074e-10 0)
(0.0250666 1.46083e-09 0)
(0.0250666 2.35561e-09 0)
(0.0250666 2.4046e-09 0)
(0.0250666 2.16083e-09 0)
(0.0250666 1.60696e-09 0)
(0.0250666 6.78907e-10 0)
(0.0250666 2.63446e-10 0)
(0.0250666 6.09237e-10 0)
(0.0250666 3.58927e-10 0)
(0.0250666 -9.61174e-10 0)
(0.0250666 -1.72513e-09 0)
(0.0250666 -1.48496e-09 0)
(0.0250666 -1.50314e-09 0)
(0.0250666 -4.68639e-10 0)
(0.0250666 2.48479e-09 0)
(0.0250666 3.48498e-09 0)
(0.0250666 9.98114e-10 0)
(0.0250666 -1.1431e-09 0)
(0.0250666 -1.28538e-09 0)
(0.0250666 -3.48054e-10 0)
(0.0250666 1.95155e-09 0)
(0.0250666 4.12262e-09 0)
(0.0250666 3.84985e-09 0)
(0.0250666 2.50582e-09 0)
(0.0250665 3.58233e-09 0)
(0.0250665 7.09708e-09 0)
(0.0250665 1.00703e-08 0)
(0.0250665 1.15496e-08 0)
(0.0250664 1.15025e-08 0)
(0.068415 -4.17158e-08 0)
(0.068415 -4.87556e-08 0)
(0.068415 -3.92519e-08 0)
(0.068415 -2.93856e-08 0)
(0.068415 -1.78496e-08 0)
(0.0684151 -1.2844e-08 0)
(0.0684151 -9.15421e-09 0)
(0.068415 7.74232e-09 0)
(0.0684151 1.77334e-08 0)
(0.0684151 8.46911e-09 0)
(0.068415 -2.54767e-09 0)
(0.068415 -1.11399e-08 0)
(0.068415 -7.99109e-09 0)
(0.068415 1.10177e-09 0)
(0.0684151 8.62104e-09 0)
(0.0684151 9.10823e-09 0)
(0.0684151 3.04875e-09 0)
(0.0684151 -7.45731e-09 0)
(0.0684151 -1.35297e-08 0)
(0.0684151 -1.08024e-08 0)
(0.0684151 -5.34729e-09 0)
(0.0684151 -4.15765e-09 0)
(0.0684151 -8.86837e-09 0)
(0.0684151 -1.40433e-08 0)
(0.0684151 -1.37844e-08 0)
(0.0684151 -8.46087e-09 0)
(0.0684151 -1.01613e-09 0)
(0.0684151 4.34769e-09 0)
(0.0684151 4.5259e-09 0)
(0.0684151 3.28522e-09 0)
(0.0684151 3.30059e-09 0)
(0.0684151 2.10631e-09 0)
(0.0684151 5.80083e-10 0)
(0.0684151 3.97366e-10 0)
(0.0684151 -4.50447e-10 0)
(0.0684151 -2.02035e-09 0)
(0.0684151 -2.47931e-09 0)
(0.0684151 -1.59957e-09 0)
(0.068415 -3.20434e-10 0)
(0.068415 -2.52655e-10 0)
(0.068415 -1.31109e-09 0)
(0.068415 -2.57457e-09 0)
(0.068415 -5.0446e-09 0)
(0.068415 -7.05298e-09 0)
(0.068415 -5.88674e-09 0)
(0.068415 -4.71103e-09 0)
(0.068415 -5.59974e-09 0)
(0.068415 -4.84607e-09 0)
(0.068415 -1.73876e-09 0)
(0.068415 4.75582e-10 0)
(0.068415 7.93624e-10 0)
(0.068415 2.21213e-10 0)
(0.068415 2.49796e-10 0)
(0.068415 2.50407e-09 0)
(0.068415 6.86513e-09 0)
(0.068415 1.07811e-08 0)
(0.068415 1.10414e-08 0)
(0.068415 8.42804e-09 0)
(0.068415 7.71329e-09 0)
(0.068415 9.70068e-09 0)
(0.068415 1.07599e-08 0)
(0.068415 1.05894e-08 0)
(0.068415 1.07258e-08 0)
(0.068415 9.92509e-09 0)
(0.068415 8.18509e-09 0)
(0.068415 7.11081e-09 0)
(0.068415 6.02405e-09 0)
(0.068415 3.7945e-09 0)
(0.068415 1.06443e-09 0)
(0.068415 -2.3048e-09 0)
(0.068415 -6.2962e-09 0)
(0.068415 -8.6594e-09 0)
(0.068415 -7.19633e-09 0)
(0.068415 -3.47222e-09 0)
(0.068415 -1.94615e-09 0)
(0.068415 -3.89837e-09 0)
(0.068415 -5.81126e-09 0)
(0.068415 -4.44812e-09 0)
(0.068415 -8.51609e-11 0)
(0.068415 4.03235e-09 0)
(0.068415 4.16723e-09 0)
(0.068415 5.36096e-10 0)
(0.068415 -2.68298e-09 0)
(0.068415 -3.28438e-09 0)
(0.068415 -3.10467e-09 0)
(0.068415 -4.04247e-09 0)
(0.068415 -6.04959e-09 0)
(0.068415 -7.76779e-09 0)
(0.068415 -7.71982e-09 0)
(0.068415 -6.13256e-09 0)
(0.068415 -5.58089e-09 0)
(0.0684151 -7.6177e-09 0)
(0.0684151 -9.93737e-09 0)
(0.0684151 -9.77679e-09 0)
(0.0684151 -8.13836e-09 0)
(0.0684151 -6.98253e-09 0)
(0.0684151 -5.7436e-09 0)
(0.0684151 -4.49229e-09 0)
(0.0684151 -3.93811e-09 0)
(0.0684151 -1.9161e-09 0)
(0.0684151 2.89371e-09 0)
(0.0684151 7.25802e-09 0)
(0.0684151 8.87152e-09 0)
(0.0684151 8.95585e-09 0)
(0.0684151 7.81305e-09 0)
(0.0684151 5.58069e-09 0)
(0.0684151 5.30796e-09 0)
(0.0684151 8.47571e-09 0)
(0.0684151 1.05543e-08 0)
(0.0684151 7.09316e-09 0)
(0.0684151 6.90554e-10 0)
(0.0684151 -3.41596e-09 0)
(0.0684151 -4.62133e-09 0)
(0.0684151 -4.12775e-09 0)
(0.0684151 -1.76753e-09 0)
(0.0684151 -1.01205e-11 0)
(0.0684151 -6.7722e-10 0)
(0.0684151 4.03722e-10 0)
(0.0684151 4.33031e-09 0)
(0.0684151 5.39497e-09 0)
(0.0684151 3.46502e-09 0)
(0.0684151 3.45286e-09 0)
(0.0684151 4.43504e-09 0)
(0.0684151 3.90555e-09 0)
(0.0684151 3.36864e-09 0)
(0.068415 3.27672e-09 0)
(0.068415 2.32657e-09 0)
(0.068415 1.09873e-09 0)
(0.068415 1.16186e-09 0)
(0.068415 1.33827e-09 0)
(0.068415 -7.63567e-10 0)
(0.068415 -2.98671e-09 0)
(0.068415 -2.65567e-09 0)
(0.068415 -3.32453e-09 0)
(0.068415 -4.77526e-09 0)
(0.068415 -1.17211e-09 0)
(0.068415 3.46825e-09 0)
(0.068415 2.00385e-09 0)
(0.068415 -6.94078e-10 0)
(0.068415 2.19624e-11 0)
(0.068415 1.99936e-09 0)
(0.068415 6.47572e-09 0)
(0.068415 1.3305e-08 0)
(0.068415 1.77212e-08 0)
(0.0684149 1.88793e-08 0)
(0.0684149 2.18918e-08 0)
(0.0684149 3.02343e-08 0)
(0.0684148 4.06677e-08 0)
(0.0684148 4.75086e-08 0)
(0.0684148 4.53042e-08 0)
(0.105017 -5.91826e-08 0)
(0.105017 -7.72347e-08 0)
(0.105017 -7.31992e-08 0)
(0.105017 -6.02475e-08 0)
(0.105017 -4.5176e-08 0)
(0.105017 -2.13207e-08 0)
(0.105017 -7.17427e-09 0)
(0.105017 -2.04614e-09 0)
(0.105017 2.96759e-09 0)
(0.105017 2.71157e-09 0)
(0.105017 1.68562e-09 0)
(0.105017 -1.91637e-09 0)
(0.105017 -5.00042e-10 0)
(0.105017 4.85372e-09 0)
(0.105017 9.14713e-09 0)
(0.105017 8.89272e-09 0)
(0.105017 3.92537e-09 0)
(0.105017 -6.26265e-09 0)
(0.105017 -1.62804e-08 0)
(0.105017 -1.89311e-08 0)
(0.105017 -1.57028e-08 0)
(0.105017 -1.20693e-08 0)
(0.105017 -1.11176e-08 0)
(0.105017 -1.22859e-08 0)
(0.105017 -1.29842e-08 0)
(0.105017 -1.19096e-08 0)
(0.105017 -7.26106e-09 0)
(0.105017 1.3832e-09 0)
(0.105017 7.77085e-09 0)
(0.105017 8.28983e-09 0)
(0.105017 6.03455e-09 0)
(0.105017 1.66177e-09 0)
(0.105017 -4.15759e-09 0)
(0.105017 -7.33994e-09 0)
(0.105017 -6.87019e-09 0)
(0.105017 -4.90946e-09 0)
(0.105017 -3.51164e-09 0)
(0.105017 -3.88395e-09 0)
(0.105017 -4.51865e-09 0)
(0.105017 -4.02074e-09 0)
(0.105017 -2.75072e-09 0)
(0.105017 -7.84121e-10 0)
(0.105017 -6.4133e-10 0)
(0.105017 -4.41282e-09 0)
(0.105017 -7.9105e-09 0)
(0.105017 -8.47999e-09 0)
(0.105017 -8.95634e-09 0)
(0.105017 -9.4365e-09 0)
(0.105017 -7.37046e-09 0)
(0.105017 -3.55566e-09 0)
(0.105017 1.84154e-10 0)
(0.105017 2.94871e-09 0)
(0.105017 4.30863e-09 0)
(0.105017 4.98947e-09 0)
(0.105017 6.53172e-09 0)
(0.105017 9.85579e-09 0)
(0.105017 1.28965e-08 0)
(0.105017 1.22357e-08 0)
(0.105017 9.79547e-09 0)
(0.105017 1.04211e-08 0)
(0.105017 1.37079e-08 0)
(0.105017 1.69319e-08 0)
(0.105017 1.97805e-08 0)
(0.105017 2.08042e-08 0)
(0.105017 1.78732e-08 0)
(0.105017 1.21501e-08 0)
(0.105017 5.86629e-09 0)
(0.105017 4.30133e-10 0)
(0.105017 -2.58007e-09 0)
(0.105017 -3.16594e-09 0)
(0.105017 -3.93333e-09 0)
(0.105017 -6.96303e-09 0)
(0.105017 -1.01483e-08 0)
(0.105017 -9.82117e-09 0)
(0.105017 -6.21511e-09 0)
(0.105017 -3.13941e-09 0)
(0.105017 -2.5224e-09 0)
(0.105017 -2.95088e-09 0)
(0.105017 -1.88104e-09 0)
(0.105017 1.83422e-09 0)
(0.105017 5.61392e-09 0)
(0.105017 5.45442e-09 0)
(0.105017 1.55985e-09 0)
(0.105017 -2.28014e-09 0)
(0.105017 -3.9362e-09 0)
(0.105017 -4.32393e-09 0)
(0.105017 -5.28238e-09 0)
(0.105017 -7.57475e-09 0)
(0.105017 -1.00828e-08 0)
(0.105017 -1.06463e-08 0)
(0.105017 -8.92588e-09 0)
(0.105017 -7.7823e-09 0)
(0.105017 -9.37036e-09 0)
(0.105017 -1.17451e-08 0)
(0.105017 -1.24643e-08 0)
(0.105017 -1.17378e-08 0)
(0.105017 -9.47304e-09 0)
(0.105017 -5.29088e-09 0)
(0.105017 -1.59066e-09 0)
(0.105017 1.65776e-10 0)
(0.105017 2.22422e-09 0)
(0.105017 5.58778e-09 0)
(0.105017 8.70107e-09 0)
(0.105017 1.14211e-08 0)
(0.105017 1.37791e-08 0)
(0.105017 1.36753e-08 0)
(0.105017 1.08113e-08 0)
(0.105017 8.74905e-09 0)
(0.105017 9.21167e-09 0)
(0.105017 8.5334e-09 0)
(0.105017 3.79995e-09 0)
(0.105017 -1.76393e-09 0)
(0.105017 -4.43776e-09 0)
(0.105017 -4.2423e-09 0)
(0.105017 -9.79144e-10 0)
(0.105017 3.96706e-09 0)
(0.105017 5.35796e-09 0)
(0.105017 3.29318e-09 0)
(0.105017 3.62801e-09 0)
(0.105017 5.60029e-09 0)
(0.105017 4.78601e-09 0)
(0.105017 3.17902e-09 0)
(0.105017 3.14787e-09 0)
(0.105017 2.97129e-09 0)
(0.105017 2.48487e-09 0)
(0.105017 2.77178e-09 0)
(0.105017 2.82118e-09 0)
(0.105017 1.3658e-09 0)
(0.105017 -4.05878e-10 0)
(0.105017 -6.25011e-10 0)
(0.105017 -1.23728e-09 0)
(0.105017 -3.80804e-09 0)
(0.105017 -4.3702e-09 0)
(0.105017 -3.33222e-09 0)
(0.105017 -6.04464e-09 0)
(0.105017 -8.12933e-09 0)
(0.105017 -3.69913e-09 0)
(0.105017 1.26865e-09 0)
(0.105017 3.26685e-09 0)
(0.105017 6.08725e-09 0)
(0.105017 9.20396e-09 0)
(0.105017 1.22512e-08 0)
(0.105017 1.84601e-08 0)
(0.105017 2.87816e-08 0)
(0.105017 3.96815e-08 0)
(0.105017 4.73991e-08 0)
(0.105017 5.79467e-08 0)
(0.105017 7.64933e-08 0)
(0.105017 8.8418e-08 0)
(0.105017 8.29699e-08 0)
(0.134909 -6.19614e-08 0)
(0.134909 -8.36605e-08 0)
(0.134909 -8.16901e-08 0)
(0.134909 -5.87605e-08 0)
(0.134909 -3.48458e-08 0)
(0.134909 -1.83441e-08 0)
(0.134909 -6.97666e-09 0)
(0.134909 -1.20707e-09 0)
(0.134909 -6.2186e-11 0)
(0.134909 1.92654e-09 0)
(0.134909 5.26903e-09 0)
(0.134909 8.74162e-09 0)
(0.134909 9.65284e-09 0)
(0.134909 8.77562e-09 0)
(0.134909 4.72246e-09 0)
(0.134909 2.12229e-10 0)
(0.134909 -6.47004e-10 0)
(0.134909 -1.15247e-09 0)
(0.134909 -5.87906e-09 0)
(0.134909 -1.27234e-08 0)
(0.134909 -1.77881e-08 0)
(0.134909 -1.93746e-08 0)
(0.134909 -1.81229e-08 0)
(0.134909 -1.5204e-08 0)
(0.134909 -1.04358e-08 0)
(0.134909 -6.0099e-09 0)
(0.134909 -3.5025e-09 0)
(0.134909 3.65576e-10 0)
(0.134909 5.17614e-09 0)
(0.134909 6.35368e-09 0)
(0.134909 3.94862e-09 0)
(0.134909 -5.60926e-10 0)
(0.134909 -6.29267e-09 0)
(0.134909 -9.86316e-09 0)
(0.134909 -9.52982e-09 0)
(0.134909 -6.66663e-09 0)
(0.134909 -3.22271e-09 0)
(0.134909 -1.62807e-09 0)
(0.134909 -2.07407e-09 0)
(0.134909 -2.77175e-09 0)
(0.134909 -3.42212e-09 0)
(0.134909 -2.99736e-09 0)
(0.134909 -1.57189e-09 0)
(0.134909 -2.64465e-09 0)
(0.134909 -6.0055e-09 0)
(0.134909 -7.72145e-09 0)
(0.134909 -7.74072e-09 0)
(0.134909 -7.62796e-09 0)
(0.134909 -6.5937e-09 0)
(0.134909 -3.94742e-09 0)
(0.134909 2.07894e-10 0)
(0.134909 4.88921e-09 0)
(0.134909 8.21372e-09 0)
(0.134909 8.97599e-09 0)
(0.134909 7.72103e-09 0)
(0.134909 6.9642e-09 0)
(0.134909 9.05273e-09 0)
(0.134909 1.18629e-08 0)
(0.134909 1.25232e-08 0)
(0.134909 1.30351e-08 0)
(0.134909 1.49831e-08 0)
(0.134909 1.66495e-08 0)
(0.134909 1.74845e-08 0)
(0.134909 1.77947e-08 0)
(0.134909 1.62904e-08 0)
(0.134909 1.26282e-08 0)
(0.134909 7.48926e-09 0)
(0.134909 1.41134e-09 0)
(0.134909 -3.8431e-09 0)
(0.134909 -6.02424e-09 0)
(0.134909 -5.23704e-09 0)
(0.134909 -4.6806e-09 0)
(0.134909 -6.96373e-09 0)
(0.134909 -1.02049e-08 0)
(0.134909 -1.03578e-08 0)
(0.134909 -6.68589e-09 0)
(0.134909 -1.63288e-09 0)
(0.134909 1.96816e-09 0)
(0.134909 2.95866e-09 0)
(0.134909 2.90787e-09 0)
(0.134909 3.75184e-09 0)
(0.134909 4.41202e-09 0)
(0.134909 2.88631e-09 0)
(0.134909 -1.65563e-10 0)
(0.134909 -2.50812e-09 0)
(0.134909 -3.21062e-09 0)
(0.134909 -3.03494e-09 0)
(0.134909 -3.48797e-09 0)
(0.134909 -5.65443e-09 0)
(0.134909 -8.93179e-09 0)
(0.134909 -1.08445e-08 0)
(0.134909 -1.05344e-08 0)
(0.134909 -9.89887e-09 0)
(0.134909 -1.00807e-08 0)
(0.134909 -1.00424e-08 0)
(0.134909 -9.53314e-09 0)
(0.134909 -8.8336e-09 0)
(0.134909 -6.73461e-09 0)
(0.134909 -3.13248e-09 0)
(0.134909 -1.00766e-10 0)
(0.134909 1.83401e-09 0)
(0.134909 3.73686e-09 0)
(0.134909 5.76439e-09 0)
(0.134909 8.25397e-09 0)
(0.134909 1.20011e-08 0)
(0.134909 1.54249e-08 0)
(0.134909 1.51584e-08 0)
(0.134909 1.08592e-08 0)
(0.134909 6.47785e-09 0)
(0.134909 4.71727e-09 0)
(0.134909 3.96541e-09 0)
(0.134909 2.71815e-09 0)
(0.134909 1.87068e-09 0)
(0.134909 1.17587e-09 0)
(0.134909 8.50727e-10 0)
(0.134909 3.06236e-09 0)
(0.134909 5.6036e-09 0)
(0.134909 4.54183e-09 0)
(0.134909 2.31688e-09 0)
(0.134909 2.06849e-09 0)
(0.134909 1.71952e-09 0)
(0.134909 5.35338e-10 0)
(0.134909 3.72982e-10 0)
(0.134909 1.1052e-09 0)
(0.134909 1.7865e-09 0)
(0.134909 2.34071e-09 0)
(0.134909 2.45605e-09 0)
(0.134909 1.28331e-09 0)
(0.134909 -1.57227e-09 0)
(0.134909 -4.02066e-09 0)
(0.134909 -4.9978e-09 0)
(0.134909 -6.99397e-09 0)
(0.134909 -8.45666e-09 0)
(0.134909 -6.00635e-09 0)
(0.134909 -4.43328e-09 0)
(0.134909 -6.63677e-09 0)
(0.134909 -6.79876e-09 0)
(0.134909 -3.65207e-09 0)
(0.134909 5.22503e-10 0)
(0.134909 7.11041e-09 0)
(0.134909 1.44952e-08 0)
(0.134909 2.03709e-08 0)
(0.134909 2.80747e-08 0)
(0.134909 4.15698e-08 0)
(0.134909 5.88894e-08 0)
(0.134909 7.23739e-08 0)
(0.134909 8.1973e-08 0)
(0.134909 9.79489e-08 0)
(0.134909 1.07455e-07 0)
(0.134909 1.01499e-07 0)
(0.158122 -4.83909e-08 0)
(0.158122 -5.47647e-08 0)
(0.158122 -4.40973e-08 0)
(0.158122 -3.09631e-08 0)
(0.158122 -1.5541e-08 0)
(0.158122 -7.37788e-09 0)
(0.158122 -1.20892e-09 0)
(0.158122 8.91864e-09 0)
(0.158122 1.26977e-08 0)
(0.158122 1.22872e-08 0)
(0.158122 9.24588e-09 0)
(0.158122 9.6964e-09 0)
(0.158122 1.05805e-08 0)
(0.158122 9.9276e-09 0)
(0.158122 5.07614e-09 0)
(0.158122 -1.89194e-09 0)
(0.158122 -5.7425e-09 0)
(0.158122 -7.01402e-09 0)
(0.158122 -8.48963e-09 0)
(0.158122 -1.05446e-08 0)
(0.158122 -1.33508e-08 0)
(0.158122 -1.60517e-08 0)
(0.158122 -1.6509e-08 0)
(0.158122 -1.38117e-08 0)
(0.158122 -7.38714e-09 0)
(0.158122 -7.96512e-11 0)
(0.158122 3.21958e-09 0)
(0.158122 3.63913e-09 0)
(0.158122 3.85168e-09 0)
(0.158122 1.74873e-09 0)
(0.158122 -2.61457e-09 0)
(0.158122 -6.44668e-09 0)
(0.158122 -8.64707e-09 0)
(0.158122 -8.34154e-09 0)
(0.158122 -6.1992e-09 0)
(0.158122 -4.22781e-09 0)
(0.158122 -2.17554e-09 0)
(0.158122 -1.50985e-10 0)
(0.158122 7.32289e-10 0)
(0.158122 8.3275e-10 0)
(0.158122 -1.20137e-10 0)
(0.158122 -1.82053e-09 0)
(0.158122 -2.21287e-09 0)
(0.158122 -2.12678e-09 0)
(0.158122 -3.10437e-09 0)
(0.158122 -3.36643e-09 0)
(0.158122 -1.95805e-09 0)
(0.158122 1.89691e-10 0)
(0.158122 2.67519e-09 0)
(0.158122 5.03473e-09 0)
(0.158122 7.45295e-09 0)
(0.158122 1.05458e-08 0)
(0.158122 1.34314e-08 0)
(0.158122 1.47911e-08 0)
(0.158122 1.37046e-08 0)
(0.158122 1.05548e-08 0)
(0.158122 8.73526e-09 0)
(0.158122 1.01736e-08 0)
(0.158122 1.22688e-08 0)
(0.158122 1.33789e-08 0)
(0.158122 1.41676e-08 0)
(0.158122 1.40109e-08 0)
(0.158122 1.25021e-08 0)
(0.158122 1.0382e-08 0)
(0.158122 7.71431e-09 0)
(0.158122 5.10048e-09 0)
(0.158122 3.20884e-09 0)
(0.158122 9.53984e-10 0)
(0.158122 -2.66863e-09 0)
(0.158122 -6.38637e-09 0)
(0.158122 -7.83512e-09 0)
(0.158122 -6.26361e-09 0)
(0.158122 -4.12186e-09 0)
(0.158122 -3.845e-09 0)
(0.158122 -4.45029e-09 0)
(0.158122 -3.63339e-09 0)
(0.158122 -5.87602e-10 0)
(0.158122 3.35687e-09 0)
(0.158122 5.26924e-09 0)
(0.158122 3.88436e-09 0)
(0.158122 1.44391e-09 0)
(0.158122 3.54227e-10 0)
(0.158122 3.96609e-10 0)
(0.158122 2.15848e-10 0)
(0.158122 -5.2643e-10 0)
(0.158122 -1.29189e-09 0)
(0.158122 -1.73822e-09 0)
(0.158122 -2.14902e-09 0)
(0.158122 -3.26479e-09 0)
(0.158122 -5.73638e-09 0)
(0.158122 -8.93524e-09 0)
(0.158122 -1.07479e-08 0)
(0.158122 -1.04861e-08 0)
(0.158122 -9.46135e-09 0)
(0.158122 -8.38979e-09 0)
(0.158122 -7.37625e-09 0)
(0.158122 -7.00767e-09 0)
(0.158122 -6.94363e-09 0)
(0.158122 -5.87165e-09 0)
(0.158122 -3.54927e-09 0)
(0.158122 -4.6336e-10 0)
(0.158122 2.77386e-09 0)
(0.158122 5.13654e-09 0)
(0.158122 6.31541e-09 0)
(0.158122 7.48646e-09 0)
(0.158122 9.5082e-09 0)
(0.158122 1.11816e-08 0)
(0.158122 1.00731e-08 0)
(0.158122 6.13598e-09 0)
(0.158122 2.73279e-09 0)
(0.158122 1.9891e-09 0)
(0.158122 2.76729e-09 0)
(0.158122 3.98296e-09 0)
(0.158122 4.32711e-09 0)
(0.158122 2.3953e-09 0)
(0.158122 3.93832e-10 0)
(0.158122 4.48589e-10 0)
(0.158122 1.62114e-11 0)
(0.158122 -2.01509e-09 0)
(0.158122 -3.31411e-09 0)
(0.158122 -3.39598e-09 0)
(0.158122 -2.99567e-09 0)
(0.158122 -2.0248e-09 0)
(0.158122 -9.5762e-10 0)
(0.158122 -2.38624e-10 0)
(0.158122 -2.42392e-10 0)
(0.158122 -1.33584e-09 0)
(0.158122 -3.00988e-09 0)
(0.158122 -5.3484e-09 0)
(0.158122 -7.94489e-09 0)
(0.158122 -8.56337e-09 0)
(0.158122 -8.54796e-09 0)
(0.158122 -1.00647e-08 0)
(0.158122 -9.29597e-09 0)
(0.158122 -5.15891e-09 0)
(0.158122 -2.25601e-09 0)
(0.158122 -1.3428e-09 0)
(0.158122 -9.35611e-10 0)
(0.158122 6.58875e-10 0)
(0.158122 7.53733e-09 0)
(0.158122 1.84234e-08 0)
(0.158122 2.92625e-08 0)
(0.158122 4.14303e-08 0)
(0.158122 5.47064e-08 0)
(0.158122 7.02807e-08 0)
(0.158122 8.85837e-08 0)
(0.158122 1.02097e-07 0)
(0.158122 1.09855e-07 0)
(0.158122 1.1139e-07 0)
(0.158122 1.03405e-07 0)
(0.174684 -2.02985e-08 0)
(0.174683 -1.88613e-08 0)
(0.174683 -5.73175e-09 0)
(0.174683 2.84117e-09 0)
(0.174683 9.02502e-09 0)
(0.174683 1.1233e-08 0)
(0.174683 1.23897e-08 0)
(0.174683 2.00864e-08 0)
(0.174683 2.71476e-08 0)
(0.174683 2.63692e-08 0)
(0.174683 1.92613e-08 0)
(0.174683 1.289e-08 0)
(0.174683 9.14293e-09 0)
(0.174683 8.28135e-09 0)
(0.174683 7.25313e-09 0)
(0.174683 2.9335e-09 0)
(0.174683 -3.14657e-09 0)
(0.174683 -8.86369e-09 0)
(0.174683 -1.22587e-08 0)
(0.174683 -1.21767e-08 0)
(0.174683 -1.09897e-08 0)
(0.174683 -1.05116e-08 0)
(0.174683 -9.66782e-09 0)
(0.174683 -8.76441e-09 0)
(0.174683 -7.48365e-09 0)
(0.174683 -4.18491e-09 0)
(0.174683 -9.70991e-10 0)
(0.174683 1.42039e-10 0)
(0.174683 -1.97015e-10 0)
(0.174683 -2.91622e-09 0)
(0.174683 -7.41835e-09 0)
(0.174683 -1.06822e-08 0)
(0.174683 -1.19961e-08 0)
(0.174683 -1.10921e-08 0)
(0.174683 -8.25244e-09 0)
(0.174683 -6.1599e-09 0)
(0.174683 -5.13708e-09 0)
(0.174683 -3.74347e-09 0)
(0.174683 -2.4348e-09 0)
(0.174683 -1.38748e-09 0)
(0.174683 -1.01596e-09 0)
(0.174683 -2.41567e-09 0)
(0.174683 -3.92003e-09 0)
(0.174683 -3.91507e-09 0)
(0.174683 -3.08447e-09 0)
(0.174683 -1.38462e-09 0)
(0.174683 9.83466e-10 0)
(0.174683 3.27498e-09 0)
(0.174683 5.81573e-09 0)
(0.174683 8.06378e-09 0)
(0.174683 9.23439e-09 0)
(0.174683 1.0097e-08 0)
(0.174683 1.07383e-08 0)
(0.174683 1.09521e-08 0)
(0.174683 1.0803e-08 0)
(0.174683 9.17048e-09 0)
(0.174683 6.31865e-09 0)
(0.174683 4.76185e-09 0)
(0.174683 4.71031e-09 0)
(0.174683 4.74431e-09 0)
(0.174683 4.89308e-09 0)
(0.174683 4.85445e-09 0)
(0.174683 4.05452e-09 0)
(0.174683 2.47305e-09 0)
(0.174683 -1.58294e-10 0)
(0.174683 -3.07881e-09 0)
(0.174683 -4.05844e-09 0)
(0.174683 -2.75723e-09 0)
(0.174683 -1.10342e-09 0)
(0.174683 -8.9508e-10 0)
(0.174683 -2.16811e-09 0)
(0.174683 -2.77697e-09 0)
(0.174683 -1.32163e-09 0)
(0.174683 8.16605e-10 0)
(0.174683 1.87013e-09 0)
(0.174683 1.7757e-09 0)
(0.174683 1.72308e-09 0)
(0.174683 3.06811e-09 0)
(0.174683 5.302e-09 0)
(0.174683 6.27611e-09 0)
(0.174683 5.23573e-09 0)
(0.174683 3.80954e-09 0)
(0.174683 3.64799e-09 0)
(0.174683 4.49838e-09 0)
(0.174683 4.91093e-09 0)
(0.174683 4.21861e-09 0)
(0.174683 2.63529e-09 0)
(0.174683 5.39687e-10 0)
(0.174683 -1.18896e-09 0)
(0.174683 -2.03675e-09 0)
(0.174683 -2.90393e-09 0)
(0.174683 -4.17888e-09 0)
(0.174683 -5.11819e-09 0)
(0.174683 -5.54073e-09 0)
(0.174683 -5.6791e-09 0)
(0.174683 -5.35867e-09 0)
(0.174683 -4.56324e-09 0)
(0.174683 -3.86428e-09 0)
(0.174683 -3.52971e-09 0)
(0.174683 -3.1575e-09 0)
(0.174683 -1.74584e-09 0)
(0.174683 1.21868e-09 0)
(0.174683 4.44546e-09 0)
(0.174683 6.4035e-09 0)
(0.174683 6.84454e-09 0)
(0.174683 6.43602e-09 0)
(0.174683 6.56599e-09 0)
(0.174683 7.42717e-09 0)
(0.174683 6.99846e-09 0)
(0.174683 4.80634e-09 0)
(0.174683 3.01841e-09 0)
(0.174683 2.5915e-09 0)
(0.174683 3.16945e-09 0)
(0.174683 4.24751e-09 0)
(0.174683 3.9332e-09 0)
(0.174683 1.65062e-09 0)
(0.174683 -4.84385e-10 0)
(0.174683 -1.98997e-09 0)
(0.174683 -3.50128e-09 0)
(0.174683 -4.33872e-09 0)
(0.174683 -4.24223e-09 0)
(0.174683 -3.42908e-09 0)
(0.174683 -2.12208e-09 0)
(0.174683 -1.49115e-09 0)
(0.174683 -1.64896e-09 0)
(0.174683 -2.11887e-09 0)
(0.174683 -3.68036e-09 0)
(0.174683 -5.42095e-09 0)
(0.174683 -6.03383e-09 0)
(0.174683 -6.60891e-09 0)
(0.174683 -6.44699e-09 0)
(0.174683 -4.88761e-09 0)
(0.174683 -4.91544e-09 0)
(0.174683 -5.89004e-09 0)
(0.174683 -4.1245e-09 0)
(0.174683 -7.99721e-10 0)
(0.174683 1.97467e-09 0)
(0.174683 3.94217e-09 0)
(0.174683 5.65468e-09 0)
(0.174683 1.10887e-08 0)
(0.174683 2.04209e-08 0)
(0.174683 3.05229e-08 0)
(0.174683 4.31743e-08 0)
(0.174683 5.54637e-08 0)
(0.174683 6.63669e-08 0)
(0.174683 8.27485e-08 0)
(0.174683 1.02157e-07 0)
(0.174683 1.07486e-07 0)
(0.174683 1.04166e-07 0)
(0.174683 9.60172e-08 0)
(0.184612 2.28346e-08 0)
(0.184612 2.23096e-08 0)
(0.184612 3.18887e-08 0)
(0.184612 4.0092e-08 0)
(0.184612 4.35052e-08 0)
(0.184612 4.03259e-08 0)
(0.184612 3.66744e-08 0)
(0.184612 3.73871e-08 0)
(0.184612 3.89799e-08 0)
(0.184612 3.63166e-08 0)
(0.184612 3.0048e-08 0)
(0.184612 2.20385e-08 0)
(0.184612 1.27118e-08 0)
(0.184612 6.00112e-09 0)
(0.184612 4.04904e-09 0)
(0.184612 2.44264e-09 0)
(0.184612 -1.17854e-09 0)
(0.184612 -5.73482e-09 0)
(0.184612 -9.33047e-09 0)
(0.184612 -9.65213e-09 0)
(0.184612 -8.38455e-09 0)
(0.184612 -8.21175e-09 0)
(0.184612 -8.07348e-09 0)
(0.184612 -8.11966e-09 0)
(0.184612 -9.40315e-09 0)
(0.184612 -9.30124e-09 0)
(0.184612 -6.97421e-09 0)
(0.184612 -4.97301e-09 0)
(0.184612 -4.18366e-09 0)
(0.184612 -5.1722e-09 0)
(0.184612 -7.57367e-09 0)
(0.184612 -9.33424e-09 0)
(0.184612 -1.08148e-08 0)
(0.184612 -1.20809e-08 0)
(0.184612 -1.11619e-08 0)
(0.184612 -9.24846e-09 0)
(0.184612 -8.2408e-09 0)
(0.184612 -7.32295e-09 0)
(0.184612 -6.56963e-09 0)
(0.184612 -6.21655e-09 0)
(0.184612 -5.63038e-09 0)
(0.184612 -5.3652e-09 0)
(0.184612 -5.13319e-09 0)
(0.184612 -3.68331e-09 0)
(0.184612 -1.44509e-09 0)
(0.184612 1.02574e-09 0)
(0.184612 2.93395e-09 0)
(0.184612 3.516e-09 0)
(0.184612 4.26759e-09 0)
(0.184612 6.02502e-09 0)
(0.184612 7.40466e-09 0)
(0.184612 8.28572e-09 0)
(0.184612 8.5738e-09 0)
(0.184612 7.56829e-09 0)
(0.184612 6.38578e-09 0)
(0.184612 5.55565e-09 0)
(0.184612 4.01892e-09 0)
(0.184612 2.26521e-09 0)
(0.184612 1.21446e-09 0)
(0.184612 3.3539e-10 0)
(0.184612 -6.30574e-10 0)
(0.184612 -1.66451e-09 0)
(0.184612 -2.67512e-09 0)
(0.184612 -3.13115e-09 0)
(0.184612 -3.744e-09 0)
(0.184612 -5.4259e-09 0)
(0.184612 -6.7595e-09 0)
(0.184612 -5.8919e-09 0)
(0.184612 -2.74039e-09 0)
(0.184612 1.05689e-09 0)
(0.184612 2.9714e-09 0)
(0.184612 2.34253e-09 0)
(0.184612 1.2755e-09 0)
(0.184612 1.44731e-09 0)
(0.184612 2.51507e-09 0)
(0.184612 3.29965e-09 0)
(0.184612 3.16446e-09 0)
(0.184612 2.85059e-09 0)
(0.184612 3.79676e-09 0)
(0.184612 5.8556e-09 0)
(0.184612 7.3501e-09 0)
(0.184612 7.36876e-09 0)
(0.184612 6.98858e-09 0)
(0.184612 7.38365e-09 0)
(0.184612 8.05367e-09 0)
(0.184612 8.0353e-09 0)
(0.184612 7.21541e-09 0)
(0.184612 5.51507e-09 0)
(0.184612 3.10977e-09 0)
(0.184612 1.42872e-09 0)
(0.184612 1.05545e-09 0)
(0.184612 8.89371e-10 0)
(0.184612 2.77326e-10 0)
(0.184612 -3.19464e-10 0)
(0.184612 -6.7569e-10 0)
(0.184612 -7.36443e-10 0)
(0.184612 -1.25457e-10 0)
(0.184612 1.25877e-09 0)
(0.184612 2.36504e-09 0)
(0.184612 1.82767e-09 0)
(0.184612 4.1554e-10 0)
(0.184612 3.83493e-10 0)
(0.184612 2.06895e-09 0)
(0.184612 4.40174e-09 0)
(0.184612 6.48352e-09 0)
(0.184612 6.90302e-09 0)
(0.184612 5.66634e-09 0)
(0.184612 5.34348e-09 0)
(0.184612 6.59302e-09 0)
(0.184612 7.02994e-09 0)
(0.184612 6.13845e-09 0)
(0.184612 5.04029e-09 0)
(0.184612 4.03202e-09 0)
(0.184612 3.49906e-09 0)
(0.184612 3.2967e-09 0)
(0.184612 2.2371e-09 0)
(0.184612 1.37242e-10 0)
(0.184612 -2.24384e-09 0)
(0.184612 -3.87888e-09 0)
(0.184612 -4.08499e-09 0)
(0.184612 -3.8737e-09 0)
(0.184612 -3.86994e-09 0)
(0.184612 -3.42403e-09 0)
(0.184612 -3.91563e-09 0)
(0.184612 -5.92369e-09 0)
(0.184612 -6.86506e-09 0)
(0.184612 -6.67826e-09 0)
(0.184612 -6.70409e-09 0)
(0.184612 -5.83118e-09 0)
(0.184612 -4.65808e-09 0)
(0.184612 -4.45452e-09 0)
(0.184612 -3.46771e-09 0)
(0.184612 -1.84081e-09 0)
(0.184612 -1.65384e-09 0)
(0.184612 -2.46579e-09 0)
(0.184612 -3.38557e-09 0)
(0.184612 -2.38025e-09 0)
(0.184612 2.32278e-09 0)
(0.184612 7.33947e-09 0)
(0.184612 1.19432e-08 0)
(0.184612 1.85215e-08 0)
(0.184612 2.64623e-08 0)
(0.184612 3.73762e-08 0)
(0.184612 4.95775e-08 0)
(0.184612 5.81953e-08 0)
(0.184612 6.66347e-08 0)
(0.184612 8.18309e-08 0)
(0.184612 8.86472e-08 0)
(0.184612 8.48785e-08 0)
(0.184612 7.82708e-08 0)
(0.18792 7.0101e-08 0)
(0.18792 7.61099e-08 0)
(0.18792 8.1502e-08 0)
(0.18792 8.08795e-08 0)
(0.18792 7.75094e-08 0)
(0.18792 6.97604e-08 0)
(0.18792 6.12883e-08 0)
(0.18792 5.5824e-08 0)
(0.18792 4.79752e-08 0)
(0.18792 3.93294e-08 0)
(0.18792 3.09529e-08 0)
(0.18792 2.35258e-08 0)
(0.18792 1.55526e-08 0)
(0.18792 7.45551e-09 0)
(0.18792 2.69909e-09 0)
(0.18792 -2.76934e-10 0)
(0.18792 -3.27303e-09 0)
(0.18792 -5.515e-09 0)
(0.18792 -6.98463e-09 0)
(0.18792 -6.70141e-09 0)
(0.18792 -5.27726e-09 0)
(0.18792 -5.88138e-09 0)
(0.18792 -7.68506e-09 0)
(0.18792 -7.98659e-09 0)
(0.18792 -7.62334e-09 0)
(0.18792 -6.91348e-09 0)
(0.18792 -5.42549e-09 0)
(0.18792 -4.45234e-09 0)
(0.18792 -4.10798e-09 0)
(0.18792 -4.32051e-09 0)
(0.18792 -5.42107e-09 0)
(0.18792 -5.77413e-09 0)
(0.18792 -5.7589e-09 0)
(0.18792 -6.8816e-09 0)
(0.18792 -6.9975e-09 0)
(0.18792 -5.30663e-09 0)
(0.18792 -4.31353e-09 0)
(0.18792 -4.49517e-09 0)
(0.18792 -5.42646e-09 0)
(0.18792 -7.19902e-09 0)
(0.18792 -8.32229e-09 0)
(0.18792 -7.45681e-09 0)
(0.18792 -4.69976e-09 0)
(0.18792 -9.04318e-10 0)
(0.18792 2.39529e-09 0)
(0.18792 4.8762e-09 0)
(0.18792 6.54981e-09 0)
(0.18792 6.37473e-09 0)
(0.18792 5.82663e-09 0)
(0.18792 7.27578e-09 0)
(0.18792 9.44789e-09 0)
(0.18792 1.09997e-08 0)
(0.18792 1.21176e-08 0)
(0.18792 1.15905e-08 0)
(0.18792 9.32081e-09 0)
(0.18792 7.28135e-09 0)
(0.18792 5.74172e-09 0)
(0.18792 4.06077e-09 0)
(0.18792 2.79648e-09 0)
(0.18792 2.17504e-09 0)
(0.18792 1.63458e-09 0)
(0.18792 3.00555e-10 0)
(0.18792 -1.85763e-09 0)
(0.18792 -3.10138e-09 0)
(0.18792 -2.74316e-09 0)
(0.18792 -2.44631e-09 0)
(0.18792 -3.00253e-09 0)
(0.18792 -3.76565e-09 0)
(0.18792 -4.03595e-09 0)
(0.18792 -2.962e-09 0)
(0.18792 -1.19074e-09 0)
(0.18792 -7.55125e-10 0)
(0.18792 -1.78033e-09 0)
(0.18792 -2.377e-09 0)
(0.18792 -1.21906e-09 0)
(0.18792 1.24535e-09 0)
(0.18792 3.36076e-09 0)
(0.18792 3.90469e-09 0)
(0.18792 3.32243e-09 0)
(0.18792 3.11329e-09 0)
(0.18792 3.82083e-09 0)
(0.18792 4.39927e-09 0)
(0.18792 4.11485e-09 0)
(0.18792 3.94886e-09 0)
(0.18792 4.60512e-09 0)
(0.18792 5.5115e-09 0)
(0.18792 6.44089e-09 0)
(0.18792 7.32106e-09 0)
(0.18792 7.03412e-09 0)
(0.18792 5.45057e-09 0)
(0.18792 4.02231e-09 0)