/*--------------------------------*- C++ -*----------------------------------*\
| =========                 |                                                 |
| \\      /  F ield         | OpenFOAM: The Open Source CFD Toolbox           |
|  \\    /   O peration     | Version:  2406                                  |
|   \\  /    A nd           | Website:  www.openfoam.com                      |
|    \\/     M anipulation  |                                                 |
\*---------------------------------------------------------------------------*/
FoamFile
{
    version     2.0;
    format      ascii;
    arch        "LSB;label=32;scalar=64";
    class       surfaceScalarField;
    location    "0.5";
    object      phi;
}
// * * * * * * * * * * * * * * * * * * * * * * * * * * * * * * * * * * * * * //

dimensions      [0 3 -1 0 0 0 0];

oriented        oriented;

internalField   nonuniform List<scalar> 
1192
(
5.93808e-06
-4.04087e-12
5.93809e-06
-5.26118e-12
5.9381e-06
-3.77261e-12
5.9381e-06
-2.10131e-12
5.9381e-06
-1.05903e-12
5.9381e-06
-4.33772e-14
5.9381e-06
1.20778e-12
5.9381e-06
2.05565e-12
5.9381e-06
1.79498e-12
5.9381e-06
3.22049e-13
5.9381e-06
-1.50963e-12
5.9381e-06
-2.47232e-12
5.93809e-06
-2.06723e-12
5.93809e-06
-6.62621e-13
5.93809e-06
9.05591e-13
5.93809e-06
1.67267e-12
5.93809e-06
1.5355e-12
5.93809e-06
8.40515e-13
5.93809e-06
5.35374e-14
5.93809e-06
-5.27983e-13
5.93809e-06
-9.11176e-13
5.93809e-06
-1.09132e-12
5.93809e-06
-9.5386e-13
5.93809e-06
-4.06573e-13
5.93809e-06
5.65275e-13
5.93809e-06
1.35574e-12
5.93809e-06
1.60211e-12
5.93809e-06
1.04559e-12
5.93809e-06
-9.88725e-14
5.93809e-06
-1.0847e-12
5.93809e-06
-1.4374e-12
5.93809e-06
-9.99469e-13
5.93809e-06
-9.77184e-14
5.93809e-06
7.12528e-13
5.93809e-06
1.05145e-12
5.93809e-06
9.06427e-13
5.93809e-06
4.717e-13
5.93809e-06
-5.24233e-14
5.93809e-06
-4.73326e-13
5.93809e-06
-7.35183e-13
5.93809e-06
-7.25673e-13
5.93809e-06
-3.95271e-13
5.93809e-06
2.28769e-13
5.93809e-06
7.78122e-13
5.93809e-06
9.95005e-13
5.93809e-06
6.91188e-13
5.93809e-06
-3.87511e-14
5.93809e-06
-7.51167e-13
5.93809e-06
-1.09192e-12
5.93809e-06
-8.79989e-13
5.93809e-06
-2.2384e-13
5.93809e-06
5.67737e-13
5.93809e-06
1.0842e-12
5.93809e-06
1.10829e-12
5.93809e-06
6.06543e-13
5.93809e-06
-2.84444e-13
5.93809e-06
-1.03293e-12
5.93809e-06
-1.32089e-12
5.93809e-06
-9.37486e-13
5.93809e-06
-4.23725e-14
5.93809e-06
8.04193e-13
5.93809e-06
1.15849e-12
5.93809e-06
8.53396e-13
5.93809e-06
1.46539e-13
5.93809e-06
-5.99076e-13
5.93809e-06
-9.62405e-13
5.93809e-06
-9.33997e-13
5.9381e-06
-5.99257e-13
5.9381e-06
-4.93993e-14
5.9381e-06
5.56748e-13
5.9381e-06
1.04016e-12
5.9381e-06
1.14828e-12
5.9381e-06
7.65896e-13
5.9381e-06
1.41983e-13
5.9381e-06
-1.85361e-13
5.9381e-06
2.58727e-13
5.93809e-06
1.48054e-12
5.93809e-06
3.30103e-12
5.93809e-06
4.97989e-12
4.40211e-12
1.48305e-05
-4.99996e-12
1.48305e-05
-5.86519e-12
1.48305e-05
-3.27455e-12
1.48305e-05
-1.18733e-12
1.48305e-05
-7.51614e-13
1.48305e-05
-8.09908e-13
1.48305e-05
-3.83458e-13
1.48305e-05
6.01218e-13
1.48305e-05
1.48812e-12
1.48305e-05
1.47955e-12
1.48305e-05
4.38872e-13
1.48305e-05
-9.84942e-13
1.48305e-05
-1.85826e-12
1.48305e-05
-1.70171e-12
1.48305e-05
-7.52173e-13
1.48305e-05
3.09681e-13
1.48305e-05
8.992e-13
1.48305e-05
9.32171e-13
1.48305e-05
6.54398e-13
1.48305e-05
3.60093e-13
1.48305e-05
6.26764e-14
1.48305e-05
-2.66208e-13
1.48305e-05
-6.11824e-13
1.48305e-05
-7.7997e-13
1.48305e-05
-5.27789e-13
1.48305e-05
1.07417e-13
1.48305e-05
8.82309e-13
1.48305e-05
1.25544e-12
1.48305e-05
9.83952e-13
1.48305e-05
2.42252e-13
1.48305e-05
-5.65146e-13
1.48305e-05
-9.19362e-13
1.48305e-05
-7.10549e-13
1.48305e-05
-1.63789e-13
1.48305e-05
3.65228e-13
1.48305e-05
6.30265e-13
1.48305e-05
6.21334e-13
1.48305e-05
4.40138e-13
1.48305e-05
1.89783e-13
1.48305e-05
-1.33826e-13
1.48305e-05
-4.26773e-13
1.48305e-05
-5.7641e-13
1.48305e-05
-4.40385e-13
1.48305e-05
-3.84104e-14
1.48305e-05
4.80183e-13
1.48305e-05
7.7461e-13
1.48305e-05
6.62203e-13
1.48305e-05
1.98615e-13
1.48305e-05
-3.87146e-13
1.48305e-05
-7.63297e-13
1.48305e-05
-7.60844e-13
1.48305e-05
-3.95094e-13
1.48305e-05
1.68683e-13
1.48305e-05
6.63684e-13
1.48305e-05
8.60812e-13
1.48305e-05
6.26871e-13
1.48305e-05
6.18042e-14
1.48305e-05
-6.18027e-13
1.48305e-05
-9.8296e-13
1.48305e-05
-8.26658e-13
1.48305e-05
-2.57228e-13
1.48305e-05
4.20322e-13
1.48305e-05
7.66525e-13
1.48305e-05
6.60637e-13
1.48305e-05
2.44823e-13
1.48305e-05
-1.83919e-13
1.48305e-05
-4.43421e-13
1.48305e-05
-4.95419e-13
1.48305e-05
-3.511e-13
1.48305e-05
3.54933e-15
1.48305e-05
5.59426e-13
1.48305e-05
1.1692e-12
1.48305e-05
1.55098e-12
1.48305e-05
1.52214e-12
1.48305e-05
1.40146e-12
1.48305e-05
1.7604e-12
1.48305e-05
3.16661e-12
1.48305e-05
5.66268e-12
1.48305e-05
7.78355e-12
6.80294e-12
2.07511e-05
-1.5937e-12
2.07511e-05
-1.3889e-12
2.07511e-05
7.91729e-13
2.07511e-05
1.94804e-12
2.07511e-05
1.51367e-12
2.07511e-05
3.66399e-13
2.07511e-05
-5.50119e-13
2.07511e-05
-5.28602e-13
2.07511e-05
3.66658e-13
2.07511e-05
1.34757e-12
2.07511e-05
1.5659e-12
2.07511e-05
7.94264e-13
2.07511e-05
-4.41846e-13
2.07511e-05
-1.3399e-12
2.07511e-05
-1.4306e-12
2.0751e-05
-8.5167e-13
2.0751e-05
-1.11451e-13
2.0751e-05
3.9707e-13
2.0751e-05
5.87603e-13
2.0751e-05
6.19595e-13
2.0751e-05
5.95347e-13
2.0751e-05
4.603e-13
2.0751e-05
9.77741e-14
2.0751e-05
-4.27813e-13
2.07511e-05
-8.35851e-13
2.0751e-05
-8.04246e-13
2.0751e-05
-2.42414e-13
2.0751e-05
5.39141e-13
2.0751e-05
1.06723e-12
2.0751e-05
1.01858e-12
2.07511e-05
4.50513e-13
2.07511e-05
-2.47679e-13
2.07511e-05
-6.65311e-13
2.07511e-05
-6.47922e-13
2.07511e-05
-3.25482e-13
2.07511e-05
5.26259e-14
2.07511e-05
3.28265e-13
2.07511e-05
4.66655e-13
2.07511e-05
4.89987e-13
2.07511e-05
3.76049e-13
2.07511e-05
1.0375e-13
2.07511e-05
-2.72531e-13
2.07511e-05
-5.69001e-13
2.07511e-05
-5.85003e-13
2.07511e-05
-2.50559e-13
2.07511e-05
2.64857e-13
2.07511e-05
6.67824e-13
2.07511e-05
7.23463e-13
2.07511e-05
4.00874e-13
2.07511e-05
-1.19481e-13
2.07511e-05
-5.77196e-13
2.07511e-05
-7.63276e-13
2.07511e-05
-5.9498e-13
2.07511e-05
-1.3798e-13
2.07511e-05
4.13468e-13
2.07511e-05
7.90671e-13
2.07511e-05
7.73077e-13
2.07511e-05
3.19147e-13
2.07511e-05
-3.34491e-13
2.07511e-05
-8.15678e-13
2.07511e-05
-8.44049e-13
2.07511e-05
-4.24643e-13
2.07511e-05
1.50102e-13
2.07511e-05
5.4187e-13
2.07511e-05
6.0229e-13
2.07511e-05
4.15112e-13
2.07511e-05
1.47853e-13
2.07511e-05
-9.27867e-14
2.07511e-05
-2.67753e-13
2.07511e-05
-2.95537e-13
2.07511e-05
-3.44339e-14
2.07511e-05
5.74693e-13
2.07511e-05
1.37011e-12
2.07511e-05
2.02605e-12
2.07511e-05
2.38879e-12
2.07511e-05
2.78035e-12
2.07511e-05
3.78368e-12
2.07511e-05
5.59607e-12
2.07511e-05
6.96585e-12
6.04716e-12
2.37089e-05
3.72778e-12
2.37089e-05
5.04579e-12
2.37089e-05
5.82312e-12
2.37089e-05
5.32983e-12
2.37089e-05
4.12267e-12
2.37089e-05
2.43733e-12
2.37089e-05
6.16762e-13
2.37089e-05
-6.60409e-13
2.37089e-05
-7.5771e-13
2.37089e-05
1.43942e-13
2.37089e-05
1.2173e-12
2.37089e-05
1.59233e-12
2.37089e-05
1.00208e-12
2.37089e-05
-9.97506e-14
2.37089e-05
-9.95968e-13
2.37089e-05
-1.24544e-12
2.37089e-05
-9.27986e-13
2.37089e-05
-4.12684e-13
2.37089e-05
5.15363e-15
2.37089e-05
2.83504e-13
2.37089e-05
5.16291e-13
2.37089e-05
7.01554e-13
2.37089e-05
6.78777e-13
2.37089e-05
3.00213e-13
2.37089e-05
-3.50666e-13
2.37089e-05
-9.2303e-13
2.37089e-05
-1.01884e-12
2.37089e-05
-5.24582e-13
2.37089e-05
2.77284e-13
2.37089e-05
9.00773e-13
2.37089e-05
9.85771e-13
2.37089e-05
5.51211e-13
2.37089e-05
-7.32493e-14
2.37089e-05
-5.19927e-13
2.37089e-05
-6.2503e-13
2.37089e-05
-4.57998e-13
2.37089e-05
-1.80678e-13
2.37089e-05
9.6687e-14
2.37089e-05
3.41213e-13
2.37089e-05
5.07817e-13
2.37089e-05
5.03821e-13
2.37089e-05
2.55034e-13
2.37089e-05
-1.77897e-13
2.37089e-05
-5.78944e-13
2.37089e-05
-6.91761e-13
2.37089e-05
-4.16542e-13
2.37089e-05
1.06177e-13
2.37089e-05
5.86921e-13
2.37089e-05
7.63715e-13
2.37089e-05
5.55606e-13
2.37089e-05
8.06444e-14
2.37089e-05
-4.37902e-13
2.37089e-05
-7.63282e-13
2.37089e-05
-7.37641e-13
2.37089e-05
-3.44984e-13
2.37089e-05
2.54509e-13
2.37089e-05
7.64663e-13
2.37089e-05
8.84394e-13
2.37089e-05
5.18295e-13
2.37089e-05
-1.31719e-13
2.37089e-05
-6.82607e-13
2.37089e-05
-8.19159e-13
2.37089e-05
-5.14232e-13
2.37089e-05
-9.67701e-15
2.37089e-05
4.03311e-13
2.37089e-05
5.82099e-13
2.37089e-05
5.57028e-13
2.37089e-05
4.07422e-13
2.37089e-05
1.66345e-13
2.37089e-05
-1.135e-13
2.37089e-05
-2.72528e-13
2.37089e-05
-6.49979e-14
2.37089e-05
5.97902e-13
2.37089e-05
1.51953e-12
2.37089e-05
2.32987e-12
2.37089e-05
2.81708e-12
2.37089e-05
3.19815e-12
2.37089e-05
3.6148e-12
2.37089e-05
3.58345e-12
3.02788e-12
2.37089e-05
8.082e-12
2.37089e-05
1.00052e-11
2.37089e-05
8.98071e-12
2.37089e-05
6.73362e-12
2.37089e-05
5.08986e-12
2.37089e-05
3.76765e-12
2.37089e-05
2.16976e-12
2.37089e-05
4.19815e-13
2.37089e-05
-8.09244e-13
2.37089e-05
-9.67713e-13
2.37089e-05
-1.88154e-13
2.37089e-05
8.09743e-13
2.37089e-05
1.26081e-12
2.37089e-05
9.19871e-13
2.37089e-05
1.10809e-13
2.37089e-05
-6.00741e-13
2.37089e-05
-8.91351e-13
2.37089e-05
-8.02419e-13
2.37089e-05
-5.71604e-13
2.37089e-05
-3.47967e-13
2.37089e-05
-1.00668e-13
2.37089e-05
2.40989e-13
2.37089e-05
5.97967e-13
2.37089e-05
7.34577e-13
2.37089e-05
4.53225e-13
2.37089e-05
-1.78114e-13
2.37089e-05
-8.03372e-13
2.37089e-05
-1.01978e-12
2.37089e-05
-6.79298e-13
2.37089e-05
3.98219e-15
2.37089e-05
5.94127e-13
2.37089e-05
7.72544e-13
2.37089e-05
5.20181e-13
2.37089e-05
6.9392e-14
2.37089e-05
-3.0573e-13
2.37089e-05
-4.73111e-13
2.37089e-05
-4.56937e-13
2.37089e-05
-3.30864e-13
2.37089e-05
-1.23482e-13
2.37089e-05
1.50798e-13
2.37089e-05
4.17374e-13
2.37089e-05
5.29005e-13
2.37089e-05
3.66552e-13
2.37089e-05
-3.69289e-14
2.37089e-05
-4.6879e-13
2.37089e-05
-6.69166e-13
2.37089e-05
-5.09406e-13
2.37089e-05
-7.33191e-14
2.37089e-05
4.01436e-13
2.37089e-05
6.71561e-13
2.37089e-05
6.1878e-13
2.37089e-05
2.73883e-13
2.37089e-05
-2.09496e-13
2.37089e-05
-6.14062e-13
2.37089e-05
-7.35705e-13
2.37089e-05
-4.78857e-13
2.37089e-05
6.2916e-14
2.37089e-05
6.06473e-13
2.37089e-05
8.35203e-13
2.37089e-05
6.10566e-13
2.37089e-05
7.38379e-14
2.37089e-05
-4.36921e-13
2.37089e-05
-6.38905e-13
2.37089e-05
-4.84757e-13
2.37089e-05
-1.354e-13
2.37089e-05
2.05934e-13
2.37089e-05
4.42435e-13
2.37089e-05
5.65054e-13
2.37089e-05
5.54422e-13
2.37089e-05
3.69595e-13
2.37089e-05
2.8426e-14
2.37089e-05
-2.29153e-13
2.37089e-05
-1.18941e-13
2.37089e-05
4.56136e-13
2.37089e-05
1.25802e-12
2.37089e-05
1.82867e-12
2.37089e-05
1.80429e-12
2.37089e-05
9.99023e-13
2.37089e-05
-3.71368e-13
-5.36848e-13
2.07511e-05
9.04061e-12
2.07511e-05
1.0779e-11
2.07511e-05
8.46137e-12
2.07511e-05
5.34289e-12
2.07511e-05
3.77895e-12
2.07511e-05
3.27087e-12
2.07511e-05
2.78103e-12
2.07511e-05
1.61528e-12
2.07511e-05
1.00715e-13
2.07511e-05
-1.06562e-12
2.07511e-05
-1.28679e-12
2.07511e-05
-6.15513e-13
2.07511e-05
3.42097e-13
2.07511e-05
9.3208e-13
2.07511e-05
8.67107e-13
2.07511e-05
3.64559e-13
2.07511e-05
-1.77442e-13
2.07511e-05
-5.19599e-13
2.07511e-05
-6.64397e-13
2.07511e-05
-7.19671e-13
2.07511e-05
-6.91631e-13
2.07511e-05
-4.73636e-13
2.07511e-05
-1.40031e-14
2.07511e-05
5.38531e-13
2.07511e-05
8.53387e-13
2.07511e-05
6.77225e-13
2.07511e-05
5.96732e-14
2.07511e-05
-6.39101e-13
2.07511e-05
-1.00248e-12
2.07511e-05
-8.22666e-13
2.07511e-05
-2.59674e-13
2.07511e-05
3.15786e-13
2.07511e-05
6.09625e-13
2.07511e-05
5.42032e-13
2.07511e-05
2.56168e-13
2.07511e-05
-6.29e-14
2.07511e-05
-3.03256e-13
2.07511e-05
-4.49958e-13
2.07511e-05
-4.74924e-13
2.07511e-05
-3.3383e-13
2.07511e-05
-2.14146e-14
2.07511e-05
3.53888e-13
2.07511e-05
5.90208e-13
2.07511e-05
5.11958e-13
2.07511e-05
1.27444e-13
2.07511e-05
-3.55544e-13
2.07511e-05
-6.69932e-13
2.07511e-05
-6.33961e-13
2.07511e-05
-2.7341e-13
2.07511e-05
2.20077e-13
2.07511e-05
6.14284e-13
2.07511e-05
7.26378e-13
2.07511e-05
4.99532e-13
2.07511e-05
2.23897e-14
2.07511e-05
-4.89744e-13
2.07511e-05
-7.75303e-13
2.07511e-05
-6.47388e-13
2.07511e-05
-1.49106e-13
2.07511e-05
4.42398e-13
2.07511e-05
7.95842e-13
2.07511e-05
7.12007e-13
2.07511e-05
2.83763e-13
2.07511e-05
-2.02931e-13
2.07511e-05
-4.95861e-13
2.07511e-05
-5.05485e-13
2.07511e-05
-3.13526e-13
2.07511e-05
-3.08203e-14
2.07511e-05
2.78026e-13
2.07511e-05
5.49437e-13
2.07511e-05
6.5813e-13
2.07511e-05
4.80121e-13
2.07511e-05
5.77698e-14
2.07511e-05
-3.36471e-13
2.07511e-05
-3.71558e-13
2.07511e-05
1.79646e-14
2.07511e-05
4.69495e-13
2.07511e-05
3.65222e-13
2.07511e-05
-9.30097e-13
2.07511e-05
-2.97384e-12
-2.83351e-12
1.48305e-05
5.51002e-12
1.48305e-05
6.29514e-12
1.48305e-05
4.20124e-12
1.48305e-05
1.98749e-12
1.48305e-05
1.20267e-12
1.48305e-05
1.5295e-12
1.48305e-05
2.10819e-12
1.48305e-05
2.02003e-12
1.48305e-05
1.03463e-12
1.48305e-05
-5.25328e-13
1.48305e-05
-1.59793e-12
1.48305e-05
-1.70767e-12
1.48305e-05
-9.56907e-13
1.48305e-05
1.9035e-13
1.48305e-05
8.87008e-13
1.48305e-05
9.91821e-13
1.48305e-05
6.36555e-13
1.48305e-05
1.35962e-13
1.48305e-05
-3.27023e-13
1.48305e-05
-6.79955e-13
1.48305e-05
-9.30537e-13
1.48305e-05
-9.64556e-13
1.48305e-05
-6.51099e-13
1.48305e-05
3.2363e-14
1.48305e-05
7.49477e-13
1.48305e-05
1.12726e-12
1.48305e-05
8.95603e-13
1.48305e-05
1.7839e-13
1.48305e-05
-6.65876e-13
1.48305e-05
-1.08403e-12
1.48305e-05
-9.24387e-13
1.48305e-05
-3.71283e-13
1.48305e-05
2.93706e-13
1.48305e-05
6.49733e-13
1.48305e-05
6.69462e-13
1.48305e-05
4.33307e-13
1.48305e-05
9.45609e-14
1.48305e-05
-2.68382e-13
1.48305e-05
-5.31072e-13
1.48305e-05
-6.18706e-13
1.48305e-05
-4.46242e-13
1.48305e-05
-3.06973e-14
1.48305e-05
4.61376e-13
1.48305e-05
7.3957e-13
1.48305e-05
6.29257e-13
1.48305e-05
1.7466e-13
1.48305e-05
-4.25872e-13
1.48305e-05
-7.94889e-13
1.48305e-05
-7.67721e-13
1.48305e-05
-3.66182e-13
1.48305e-05
2.45644e-13
1.48305e-05
7.35398e-13
1.48305e-05
9.03144e-13
1.48305e-05
6.4771e-13
1.48305e-05
6.34175e-14
1.48305e-05
-5.91033e-13
1.48305e-05
-9.41945e-13
1.48305e-05
-7.97035e-13
1.48305e-05
-2.4023e-13
1.48305e-05
4.76304e-13
1.48305e-05
8.78455e-13
1.48305e-05
8.15493e-13
1.48305e-05
3.91547e-13
1.48305e-05
-1.6891e-13
1.48305e-05
-5.23941e-13
1.48305e-05
-6.20092e-13
1.48305e-05
-4.70202e-13
1.48305e-05
-1.4405e-13
1.48305e-05
2.9611e-13
1.48305e-05
6.72574e-13
1.48305e-05
7.89706e-13
1.48305e-05
5.21906e-13
1.48305e-05
-7.68778e-14
1.48305e-05
-5.6007e-13
1.48305e-05
-6.55e-13
1.48305e-05
-4.02934e-13
1.48305e-05
-2.59483e-13
1.48305e-05
-1.05574e-12
1.48305e-05
-2.59128e-12
-2.43768e-12
5.93808e-06
5.93809e-06
5.93809e-06
5.9381e-06
5.9381e-06
5.9381e-06
5.9381e-06
5.9381e-06
5.9381e-06
5.9381e-06
5.9381e-06
5.9381e-06
5.9381e-06
5.93809e-06
5.93809e-06
5.93809e-06
5.93809e-06
5.93809e-06
5.93809e-06
5.93809e-06
5.93809e-06
5.93809e-06
5.93809e-06
5.93809e-06
5.93809e-06
5.93809e-06
5.93809e-06
5.93809e-06
5.93809e-06
5.93809e-06
5.93809e-06
5.93809e-06
5.93809e-06
5.93809e-06
5.93809e-06
5.93809e-06
5.93809e-06
5.93809e-06
5.93809e-06
5.93809e-06
5.93809e-06
5.93809e-06
5.93809e-06
5.93809e-06
5.93809e-06
5.93809e-06
5.93809e-06
5.93809e-06
5.93809e-06
5.93809e-06
5.93809e-06
5.93809e-06
5.93809e-06
5.93809e-06
5.93809e-06
5.93809e-06
5.93809e-06
5.93809e-06
5.93809e-06
5.93809e-06
5.93809e-06
5.93809e-06
5.93809e-06
5.93809e-06
5.93809e-06
5.93809e-06
5.9381e-06
5.9381e-06
5.9381e-06
5.9381e-06
5.9381e-06
5.9381e-06
5.9381e-06
5.9381e-06
5.9381e-06
5.9381e-06
5.9381e-06
5.93809e-06
5.93809e-06
)
;

boundaryField
{
    inlet
    {
        type            calculated;
        value           nonuniform List<scalar> 8(-5.93808e-06 -1.48305e-05 -2.07511e-05 -2.37089e-05 -2.37089e-05 -2.0751e-05 -1.48305e-05 -5.93807e-06);
    }
    outlet
    {
        type            calculated;
        value           nonuniform List<scalar> 8(5.93808e-06 1.48305e-05 2.07511e-05 2.37089e-05 2.37089e-05 2.07511e-05 1.48305e-05 5.93809e-06);
    }
    walls
    {
        type            calculated;
        value           uniform 0;
    }
    frontAndBack
    {
        type            empty;
    }
}


// ************************************************************************* //
