/*--------------------------------*- C++ -*----------------------------------*\
| =========                 |                                                 |
| \\      /  F ield         | OpenFOAM: The Open Source CFD Toolbox           |
|  \\    /   O peration     | Version:  2406                                  |
|   \\  /    A nd           | Website:  www.openfoam.com                      |
|    \\/     M anipulation  |                                                 |
\*---------------------------------------------------------------------------*/
FoamFile
{
    version     2.0;
    format      ascii;
    arch        "LSB;label=32;scalar=64";
    class       volVectorField;
    location    "0.5";
    object      U;
}
// * * * * * * * * * * * * * * * * * * * * * * * * * * * * * * * * * * * * * //

dimensions      [0 1 -1 0 0 0 0];

internalField   nonuniform List<vector> 
640
(
(0.0475047 -1.93571e-08 0)
(0.0475047 -2.43679e-08 0)
(0.0475048 -1.72721e-08 0)
(0.0475048 -8.70417e-09 0)
(0.0475048 -4.49462e-09 0)
(0.0475048 -8.35101e-10 0)
(0.0475048 3.78113e-09 0)
(0.0475048 7.17559e-09 0)
(0.0475048 6.44993e-09 0)
(0.0475048 1.34626e-09 0)
(0.0475048 -5.10825e-09 0)
(0.0475048 -8.8467e-09 0)
(0.0475048 -7.49133e-09 0)
(0.0475048 -2.30092e-09 0)
(0.0475047 3.07943e-09 0)
(0.0475047 5.91232e-09 0)
(0.0475047 5.41069e-09 0)
(0.0475047 2.89318e-09 0)
(0.0475047 1.80585e-10 0)
(0.0475047 -1.84012e-09 0)
(0.0475047 -3.13699e-09 0)
(0.0475047 -3.76909e-09 0)
(0.0475047 -3.34348e-09 0)
(0.0475047 -1.39089e-09 0)
(0.0475047 1.66081e-09 0)
(0.0475047 4.69416e-09 0)
(0.0475047 5.71101e-09 0)
(0.0475047 3.77415e-09 0)
(0.0475047 -1.13381e-10 0)
(0.0475047 -3.81524e-09 0)
(0.0475047 -5.13881e-09 0)
(0.0475047 -3.55665e-09 0)
(0.0475047 -3.56439e-10 0)
(0.0475047 2.51307e-09 0)
(0.0475047 3.75323e-09 0)
(0.0475047 3.22115e-09 0)
(0.0475047 1.65125e-09 0)
(0.0475047 -1.09109e-10 0)
(0.0475047 -1.62976e-09 0)
(0.0475047 -2.57107e-09 0)
(0.0475047 -2.57351e-09 0)
(0.0475047 -1.40513e-09 0)
(0.0475047 6.1809e-10 0)
(0.0475047 2.70261e-09 0)
(0.0475047 3.56117e-09 0)
(0.0475047 2.50685e-09 0)
(0.0475047 3.0768e-11 0)
(0.0475047 -2.59261e-09 0)
(0.0475047 -3.88851e-09 0)
(0.0475047 -3.16657e-09 0)
(0.0475047 -8.48161e-10 0)
(0.0475047 1.88622e-09 0)
(0.0475047 3.81398e-09 0)
(0.0475047 3.96034e-09 0)
(0.0475047 2.1672e-09 0)
(0.0475047 -7.64653e-10 0)
(0.0475048 -3.59881e-09 0)
(0.0475047 -4.72287e-09 0)
(0.0475047 -3.39252e-09 0)
(0.0475047 -3.22187e-10 0)
(0.0475047 2.7786e-09 0)
(0.0475047 4.09706e-09 0)
(0.0475047 2.98598e-09 0)
(0.0475048 3.32018e-10 0)
(0.0475048 -2.16641e-09 0)
(0.0475048 -3.52798e-09 0)
(0.0475048 -3.45136e-09 0)
(0.0475048 -2.27443e-09 0)
(0.0475048 -4.37717e-10 0)
(0.0475048 1.74303e-09 0)
(0.0475048 3.55374e-09 0)
(0.0475048 4.05488e-09 0)
(0.0475048 2.77364e-09 0)
(0.0475048 4.73314e-10 0)
(0.0475048 -7.08943e-10 0)
(0.0475048 1.13431e-09 0)
(0.0475048 6.50101e-09 0)
(0.0475047 1.43481e-08 0)
(0.0475047 2.16607e-08 0)
(0.0475047 1.94029e-08 0)
(0.118644 -4.32519e-08 0)
(0.118644 -5.23331e-08 0)
(0.118644 -3.43866e-08 0)
(0.118644 -1.61363e-08 0)
(0.118644 -9.10427e-09 0)
(0.118644 -4.85838e-09 0)
(0.118644 2.12191e-09 0)
(0.118644 9.97845e-09 0)
(0.118644 1.28368e-08 0)
(0.118644 7.31194e-09 0)
(0.118644 -3.87632e-09 0)
(0.118644 -1.36602e-08 0)
(0.118644 -1.5745e-08 0)
(0.118644 -9.44149e-09 0)
(0.118644 3.46681e-10 0)
(0.118644 7.75266e-09 0)
(0.118644 9.68522e-09 0)
(0.118644 7.08354e-09 0)
(0.118644 2.92605e-09 0)
(0.118644 -6.52321e-10 0)
(0.118644 -3.23286e-09 0)
(0.118644 -5.21209e-09 0)
(0.118644 -6.11628e-09 0)
(0.118644 -4.61988e-09 0)
(0.118644 -2.37927e-10 0)
(0.118644 5.75516e-09 0)
(0.118644 9.87077e-09 0)
(0.118644 9.25873e-09 0)
(0.118644 3.90021e-09 0)
(0.118644 -3.24699e-09 0)
(0.118644 -7.88382e-09 0)
(0.118644 -7.6283e-09 0)
(0.118644 -3.29619e-09 0)
(0.118644 2.08198e-09 0)
(0.118644 5.60597e-09 0)
(0.118644 6.13851e-09 0)
(0.118644 4.38006e-09 0)
(0.118644 1.67879e-09 0)
(0.118644 -1.08869e-09 0)
(0.118644 -3.35907e-09 0)
(0.118644 -4.54638e-09 0)
(0.118644 -3.85705e-09 0)
(0.118644 -1.08149e-09 0)
(0.118644 2.88626e-09 0)
(0.118644 5.84499e-09 0)
(0.118644 5.8809e-09 0)
(0.118644 2.7142e-09 0)
(0.118644 -2.06787e-09 0)
(0.118644 -5.82068e-09 0)
(0.118644 -6.56459e-09 0)
(0.118644 -4.01192e-09 0)
(0.118644 4.86288e-10 0)
(0.118644 4.84882e-09 0)
(0.118644 7.02636e-09 0)
(0.118644 5.85283e-09 0)
(0.118644 1.68081e-09 0)
(0.118644 -3.80206e-09 0)
(0.118644 -7.68633e-09 0)
(0.118644 -7.71177e-09 0)
(0.118644 -3.71695e-09 0)
(0.118644 2.06883e-09 0)
(0.118644 6.17666e-09 0)
(0.118644 6.40269e-09 0)
(0.118644 3.08945e-09 0)
(0.118644 -1.33001e-09 0)
(0.118644 -4.58807e-09 0)
(0.118644 -5.57339e-09 0)
(0.118644 -4.47021e-09 0)
(0.118644 -1.82993e-09 0)
(0.118644 2.02397e-09 0)
(0.118644 6.26242e-09 0)
(0.118644 9.18656e-09 0)
(0.118644 9.22048e-09 0)
(0.118644 6.76239e-09 0)
(0.118644 5.02003e-09 0)
(0.118644 8.52191e-09 0)
(0.118644 2.01608e-08 0)
(0.118644 3.89051e-08 0)
(0.118644 5.55258e-08 0)
(0.118644 4.94216e-08 0)
(0.166008 -3.22861e-08 0)
(0.166008 -3.55915e-08 0)
(0.166009 -1.5521e-08 0)
(0.166009 -2.25894e-10 0)
(0.166008 1.37802e-09 0)
(0.166008 -2.71852e-09 0)
(0.166008 -4.21298e-09 0)
(0.166008 -1.82225e-11 0)
(0.166008 7.00147e-09 0)
(0.166008 1.07816e-08 0)
(0.166008 7.52741e-09 0)
(0.166008 -1.01303e-09 0)
(0.166008 -9.18741e-09 0)
(0.166008 -1.19047e-08 0)
(0.166008 -8.37602e-09 0)
(0.166008 -1.95373e-09 0)
(0.166008 3.27156e-09 0)
(0.166008 5.29016e-09 0)
(0.166008 4.85878e-09 0)
(0.166008 3.70601e-09 0)
(0.166008 2.56522e-09 0)
(0.166008 8.46715e-10 0)
(0.166008 -1.86482e-09 0)
(0.166008 -4.54697e-09 0)
(0.166008 -5.1402e-09 0)
(0.166008 -2.40908e-09 0)
(0.166008 2.66428e-09 0)
(0.166008 7.13382e-09 0)
(0.166008 8.06143e-09 0)
(0.166008 4.82164e-09 0)
(0.166008 -4.57015e-10 0)
(0.166008 -4.5186e-09 0)
(0.166008 -5.2726e-09 0)
(0.166008 -3.01726e-09 0)
(0.166008 2.91928e-10 0)
(0.166008 2.78551e-09 0)
(0.166008 3.75771e-09 0)
(0.166008 3.53755e-09 0)
(0.166008 2.5756e-09 0)
(0.166008 9.57159e-10 0)
(0.166008 -1.24432e-09 0)
(0.166008 -3.27003e-09 0)
(0.166008 -3.88254e-09 0)
(0.166008 -2.2975e-09 0)
(0.166008 9.51232e-10 0)
(0.166008 4.08505e-09 0)
(0.166008 5.17933e-09 0)
(0.166008 3.51773e-09 0)
(0.166008 1.05224e-11 0)
(0.166008 -3.46991e-09 0)
(0.166008 -5.2057e-09 0)
(0.166008 -4.46321e-09 0)
(0.166008 -1.63861e-09 0)
(0.166008 2.06647e-09 0)
(0.166008 4.94585e-09 0)
(0.166008 5.46504e-09 0)
(0.166008 3.06497e-09 0)
(0.166008 -1.26202e-09 0)
(0.166008 -5.21249e-09 0)
(0.166008 -6.42636e-09 0)
(0.166008 -4.183e-09 0)
(0.166008 1.12669e-11 0)
(0.166008 3.57373e-09 0)
(0.166008 4.63842e-09 0)
(0.166008 3.22816e-09 0)
(0.166008 8.27898e-10 0)
(0.166008 -1.17475e-09 0)
(0.166008 -2.2364e-09 0)
(0.166008 -2.26466e-09 0)
(0.166008 -8.98459e-10 0)
(0.166008 2.39899e-09 0)
(0.166008 7.22749e-09 0)
(0.166008 1.18497e-08 0)
(0.166008 1.46787e-08 0)
(0.166008 1.61467e-08 0)
(0.166008 1.98452e-08 0)
(0.166008 3.0547e-08 0)
(0.166008 4.91091e-08 0)
(0.166008 6.40741e-08 0)
(0.166008 5.63451e-08 0)
(0.189671 7.4639e-09 0)
(0.189671 1.36259e-08 0)
(0.189671 2.58937e-08 0)
(0.189671 2.92367e-08 0)
(0.189671 2.29639e-08 0)
(0.189671 1.15486e-08 0)
(0.189671 5.22791e-10 0)
(0.189671 -4.46024e-09 0)
(0.189671 -1.4152e-09 0)
(0.189671 5.91389e-09 0)
(0.189671 1.09198e-08 0)
(0.189671 9.31098e-09 0)
(0.189671 2.09943e-09 0)
(0.189671 -5.74135e-09 0)
(0.189671 -9.51749e-09 0)
(0.189671 -8.13233e-09 0)
(0.189671 -3.89738e-09 0)
(0.189671 7.93435e-11 0)
(0.189671 2.37364e-09 0)
(0.189671 3.50313e-09 0)
(0.189671 4.27771e-09 0)
(0.189671 4.49792e-09 0)
(0.189671 3.0607e-09 0)
(0.189671 -4.467e-10 0)
(0.189671 -4.56502e-09 0)
(0.189671 -6.68419e-09 0)
(0.189671 -4.87576e-09 0)
(0.189671 1.30855e-10 0)
(0.189671 5.31932e-09 0)
(0.189671 7.53273e-09 0)
(0.189671 5.59929e-09 0)
(0.189671 1.15367e-09 0)
(0.189671 -2.90529e-09 0)
(0.189671 -4.54415e-09 0)
(0.189671 -3.65249e-09 0)
(0.189671 -1.4916e-09 0)
(0.189671 6.40863e-10 0)
(0.189671 2.22207e-09 0)
(0.189671 3.23603e-09 0)
(0.189671 3.43841e-09 0)
(0.189671 2.36716e-09 0)
(0.189671 -5.63257e-11 0)
(0.189671 -2.8989e-09 0)
(0.189671 -4.53338e-09 0)
(0.189671 -3.67439e-09 0)
(0.189671 -5.83254e-10 0)
(0.189671 3.02717e-09 0)
(0.189671 5.11278e-09 0)
(0.189671 4.53483e-09 0)
(0.189671 1.68529e-09 0)
(0.189671 -1.95374e-09 0)
(0.189671 -4.68474e-09 0)
(0.189671 -5.29273e-09 0)
(0.189671 -3.41069e-09 0)
(0.189671 2.69341e-10 0)
(0.189671 4.07032e-09 0)
(0.189671 5.98602e-09 0)
(0.189671 4.67377e-09 0)
(0.189671 6.72513e-10 0)
(0.189671 -3.74418e-09 0)
(0.189671 -5.98526e-09 0)
(0.189671 -4.84619e-09 0)
(0.189671 -1.38934e-09 0)
(0.189671 2.11743e-09 0)
(0.189671 3.93414e-09 0)
(0.189671 3.88233e-09 0)
(0.189671 2.75264e-09 0)
(0.189671 1.26514e-09 0)
(0.189671 -2.891e-10 0)
(0.189671 -1.44542e-09 0)
(0.189671 -9.88753e-10 0)
(0.189671 2.31613e-09 0)
(0.189671 8.20096e-09 0)
(0.189671 1.46335e-08 0)
(0.189671 1.96924e-08 0)
(0.189671 2.37826e-08 0)
(0.189671 3.00072e-08 0)
(0.189671 3.96605e-08 0)
(0.189671 4.53685e-08 0)
(0.189671 3.92156e-08 0)
(0.189671 5.16581e-08 0)
(0.189671 6.53378e-08 0)
(0.189671 6.4159e-08 0)
(0.189671 5.20772e-08 0)
(0.189671 3.94352e-08 0)
(0.189671 2.64558e-08 0)
(0.189671 1.21159e-08 0)
(0.189671 -2.16539e-10 0)
(0.189671 -5.67749e-09 0)
(0.189671 -2.91993e-09 0)
(0.189671 4.25194e-09 0)
(0.189671 9.50901e-09 0)
(0.189671 8.85607e-09 0)
(0.189671 3.13012e-09 0)
(0.189671 -3.53156e-09 0)
(0.189671 -7.25862e-09 0)
(0.189671 -7.08074e-09 0)
(0.189671 -4.6789e-09 0)
(0.189671 -2.18299e-09 0)
(0.189671 -2.90047e-10 0)
(0.189671 1.52077e-09 0)
(0.189671 3.55657e-09 0)
(0.189671 4.88749e-09 0)
(0.189671 3.9827e-09 0)
(0.189671 3.6388e-10 0)
(0.189671 -4.33395e-09 0)
(0.189671 -7.14324e-09 0)
(0.189671 -6.04273e-09 0)
(0.189671 -1.56832e-09 0)
(0.189671 3.52232e-09 0)
(0.189671 6.13571e-09 0)
(0.189671 5.09484e-09 0)
(0.189671 1.66499e-09 0)
(0.189671 -1.82818e-09 0)
(0.189671 -3.66043e-09 0)
(0.189671 -3.6218e-09 0)
(0.189671 -2.46343e-09 0)
(0.189671 -9.08144e-10 0)
(0.189671 8.27872e-10 0)
(0.189671 2.53292e-09 0)
(0.189671 3.56397e-09 0)
(0.189671 3.04324e-09 0)
(0.189671 7.29379e-10 0)
(0.189671 -2.41213e-09 0)
(0.189671 -4.53876e-09 0)
(0.189671 -4.24281e-09 0)
(0.189671 -1.5762e-09 0)
(0.189671 2.00938e-09 0)
(0.189671 4.54281e-09 0)
(0.189671 4.7801e-09 0)
(0.189671 2.72143e-09 0)
(0.189671 -6.35117e-10 0)
(0.189671 -3.77887e-09 0)
(0.189671 -5.25317e-09 0)
(0.189671 -4.19661e-09 0)
(0.189671 -8.57348e-10 0)
(0.189671 3.25064e-09 0)
(0.189671 5.83387e-09 0)
(0.189671 5.28358e-09 0)
(0.189671 1.86005e-09 0)
(0.189671 -2.3841e-09 0)
(0.189671 -4.88641e-09 0)
(0.189671 -4.45155e-09 0)
(0.189671 -1.86607e-09 0)
(0.189671 1.09496e-09 0)
(0.189671 3.09834e-09 0)
(0.189671 3.90242e-09 0)
(0.189671 3.80366e-09 0)
(0.189671 2.86084e-09 0)
(0.189671 1.0373e-09 0)
(0.189671 -8.52002e-10 0)
(0.189671 -1.01541e-09 0)
(0.189671 2.10701e-09 0)
(0.189671 8.12191e-09 0)
(0.189671 1.45458e-08 0)
(0.189671 1.88395e-08 0)
(0.189671 2.02805e-08 0)
(0.189671 1.85211e-08 0)
(0.189671 1.24636e-08 0)
(0.189671 9.45463e-09 0)
(0.166008 7.57123e-08 0)
(0.166008 9.11671e-08 0)
(0.166008 7.67821e-08 0)
(0.166008 5.30751e-08 0)
(0.166008 3.8321e-08 0)
(0.166008 2.97608e-08 0)
(0.166008 2.05554e-08 0)
(0.166008 8.72522e-09 0)
(0.166008 -2.29646e-09 0)
(0.166008 -7.67473e-09 0)
(0.166008 -5.59477e-09 0)
(0.166008 8.66499e-10 0)
(0.166008 6.30752e-09 0)
(0.166008 7.19979e-09 0)
(0.166008 3.73212e-09 0)
(0.166008 -1.08423e-09 0)
(0.166008 -4.33977e-09 0)
(0.166008 -5.26487e-09 0)
(0.166008 -4.89884e-09 0)
(0.166008 -4.25368e-09 0)
(0.166008 -3.21045e-09 0)
(0.166008 -1.05678e-09 0)
(0.166008 2.13479e-09 0)
(0.166008 4.8492e-09 0)
(0.166008 5.01168e-09 0)
(0.166008 1.86534e-09 0)
(0.166008 -3.00136e-09 0)
(0.166008 -6.58889e-09 0)
(0.166008 -6.66388e-09 0)
(0.166008 -3.28161e-09 0)
(0.166008 1.2563e-09 0)
(0.166008 4.20709e-09 0)
(0.166008 4.34565e-09 0)
(0.166008 2.30809e-09 0)
(0.166008 -2.74826e-10 0)
(0.166008 -2.14469e-09 0)
(0.166008 -3.00758e-09 0)
(0.166008 -3.07707e-09 0)
(0.166008 -2.37369e-09 0)
(0.166008 -7.61091e-10 0)
(0.166008 1.50256e-09 0)
(0.166008 3.41981e-09 0)
(0.166008 3.72491e-09 0)
(0.166008 1.85176e-09 0)
(0.166008 -1.3397e-09 0)
(0.166008 -4.02355e-09 0)
(0.166008 -4.62684e-09 0)
(0.166008 -2.77433e-09 0)
(0.166008 4.9438e-10 0)
(0.166008 3.49065e-09 0)
(0.166008 4.82919e-09 0)
(0.166008 3.92975e-09 0)
(0.166008 1.16128e-09 0)
(0.166008 -2.28392e-09 0)
(0.166008 -4.76704e-09 0)
(0.166008 -4.88205e-09 0)
(0.166008 -2.26095e-09 0)
(0.166008 1.82218e-09 0)
(0.166008 5.04929e-09 0)
(0.166008 5.54794e-09 0)
(0.166008 3.11798e-09 0)
(0.166008 -5.63653e-10 0)
(0.166008 -3.25417e-09 0)
(0.166008 -3.77732e-09 0)
(0.166008 -2.44375e-09 0)
(0.166008 -3.59423e-10 0)
(0.166008 1.65371e-09 0)
(0.166008 3.32024e-09 0)
(0.166008 4.33495e-09 0)
(0.166008 4.00578e-09 0)
(0.166008 1.99795e-09 0)
(0.166008 -6.86936e-10 0)
(0.166009 -1.86214e-09 0)
(0.166009 2.12518e-10 0)
(0.166009 4.73894e-09 0)
(0.166009 8.41688e-09 0)
(0.166009 7.20158e-09 0)
(0.166009 -2.27568e-09 0)
(0.166009 -1.70133e-08 0)
(0.166009 -1.7085e-08 0)
(0.118644 6.43562e-08 0)
(0.118644 7.46382e-08 0)
(0.118644 5.53153e-08 0)
(0.118644 3.1576e-08 0)
(0.118644 2.08458e-08 0)
(0.118644 1.95406e-08 0)
(0.118644 1.92858e-08 0)
(0.118644 1.42913e-08 0)
(0.118644 4.10092e-09 0)
(0.118644 -6.35859e-09 0)
(0.118644 -1.15206e-08 0)
(0.118644 -9.15191e-09 0)
(0.118644 -2.12191e-09 0)
(0.118644 4.2975e-09 0)
(0.118644 6.7903e-09 0)
(0.118644 5.12277e-09 0)
(0.118644 1.51477e-09 0)
(0.118644 -1.78608e-09 0)
(0.118644 -4.05809e-09 0)
(0.118644 -5.63861e-09 0)
(0.118644 -6.48155e-09 0)
(0.118644 -5.71677e-09 0)
(0.118644 -2.58645e-09 0)
(0.118644 2.19749e-09 0)
(0.118644 6.32091e-09 0)
(0.118644 7.08383e-09 0)
(0.118644 3.63261e-09 0)
(0.118644 -2.13454e-09 0)
(0.118644 -6.71429e-09 0)
(0.118644 -7.58841e-09 0)
(0.118644 -4.61139e-09 0)
(0.118644 3.0622e-11 0)
(0.118644 3.57222e-09 0)
(0.118644 4.69853e-09 0)
(0.118644 3.59338e-09 0)
(0.118644 1.3724e-09 0)
(0.118644 -9.71337e-10 0)
(0.118644 -2.88324e-09 0)
(0.118644 -4.009e-09 0)
(0.118644 -3.77157e-09 0)
(0.118644 -1.80784e-09 0)
(0.118644 1.36013e-09 0)
(0.118644 4.18646e-09 0)
(0.118644 4.95973e-09 0)
(0.118644 2.94878e-09 0)
(0.118644 -8.8068e-10 0)
(0.118644 -4.3756e-09 0)
(0.118644 -5.67368e-09 0)
(0.118644 -4.08641e-09 0)
(0.118644 -4.64855e-10 0)
(0.118644 3.42017e-09 0)
(0.118644 5.81762e-09 0)
(0.118644 5.54508e-09 0)
(0.118644 2.57867e-09 0)
(0.118644 -1.81004e-09 0)
(0.118644 -5.43494e-09 0)
(0.118644 -6.28165e-09 0)
(0.118644 -3.65755e-09 0)
(0.118644 1.06291e-09 0)
(0.118644 5.11701e-09 0)
(0.118644 6.33826e-09 0)
(0.118644 4.30887e-09 0)
(0.118644 5.92609e-10 0)
(0.118644 -2.59883e-09 0)
(0.118644 -4.04845e-09 0)
(0.118644 -3.63754e-09 0)
(0.118644 -1.90249e-09 0)
(0.118644 6.34194e-10 0)
(0.118644 3.38644e-09 0)
(0.118644 5.28258e-09 0)
(0.118644 4.94506e-09 0)
(0.118644 2.03709e-09 0)
(0.118644 -1.83704e-09 0)
(0.118644 -4.09192e-09 0)
(0.118644 -3.14161e-09 0)
(0.118644 -6.75429e-10 0)
(0.118644 -1.6173e-09 0)
(0.118644 -1.13942e-08 0)
(0.118644 -2.69193e-08 0)
(0.118644 -2.56357e-08 0)
(0.0475046 2.4505e-08 0)
(0.0475047 2.75724e-08 0)
(0.0475047 1.82877e-08 0)
(0.0475048 8.25756e-09 0)
(0.0475048 4.52964e-09 0)
(0.0475048 5.47446e-09 0)
(0.0475048 7.46891e-09 0)
(0.0475048 7.19221e-09 0)
(0.0475048 3.45409e-09 0)
(0.0475048 -1.85436e-09 0)
(0.0475048 -5.84255e-09 0)
(0.0475048 -6.21158e-09 0)
(0.0475048 -3.30278e-09 0)
(0.0475048 4.12322e-10 0)
(0.0475047 2.95925e-09 0)
(0.0475047 3.30858e-09 0)
(0.0475047 2.03606e-09 0)
(0.0475047 2.9356e-10 0)
(0.0475047 -1.20198e-09 0)
(0.0475047 -2.41255e-09 0)
(0.0475047 -3.29733e-09 0)
(0.0475047 -3.44986e-09 0)
(0.0475047 -2.33715e-09 0)
(0.0475047 -2.12873e-11 0)
(0.0475047 2.61591e-09 0)
(0.0475047 4.0179e-09 0)
(0.0475047 3.18337e-09 0)
(0.0475047 4.93611e-10 0)
(0.0475047 -2.38151e-09 0)
(0.0475047 -3.88064e-09 0)
(0.0475047 -3.25935e-09 0)
(0.0475047 -1.14004e-09 0)
(0.0475047 1.01938e-09 0)
(0.0475047 2.30436e-09 0)
(0.0475047 2.35314e-09 0)
(0.0475047 1.50023e-09 0)
(0.0475047 2.68845e-10 0)
(0.0475047 -9.27159e-10 0)
(0.0475047 -1.87341e-09 0)
(0.0475047 -2.20622e-09 0)
(0.0475047 -1.59618e-09 0)
(0.0475047 -9.94697e-11 0)
(0.0475047 1.62847e-09 0)
(0.0475047 2.65838e-09 0)
(0.0475047 2.26693e-09 0)
(0.0475047 5.61211e-10 0)
(0.0475047 -1.48889e-09 0)
(0.0475047 -2.8403e-09 0)
(0.0475047 -2.75235e-09 0)
(0.0475047 -1.28605e-09 0)
(0.0475047 8.06668e-10 0)
(0.0475047 2.60518e-09 0)
(0.0475047 3.22823e-09 0)
(0.0475047 2.31034e-09 0)
(0.0475047 2.01824e-10 0)
(0.0475047 -2.07902e-09 0)
(0.0475047 -3.36653e-09 0)
(0.0475047 -2.83907e-09 0)
(0.0475047 -7.20612e-10 0)
(0.0475047 1.69956e-09 0)
(0.0475047 3.15439e-09 0)
(0.0475047 2.89923e-09 0)
(0.0475047 1.30189e-09 0)
(0.0475047 -5.35663e-10 0)
(0.0475048 -1.82811e-09 0)
(0.0475048 -2.16793e-09 0)
(0.0475048 -1.64283e-09 0)
(0.0475048 -4.75625e-10 0)
(0.0475048 1.04202e-09 0)
(0.0475048 2.41731e-09 0)
(0.0475048 2.83356e-09 0)
(0.0475048 1.77639e-09 0)
(0.0475048 -2.74089e-10 0)
(0.0475048 -2.176e-09 0)
(0.0475048 -2.65709e-09 0)
(0.0475048 -1.89825e-09 0)
(0.0475048 -2.07402e-09 0)
(0.0475048 -6.03035e-09 0)
(0.0475047 -1.2716e-08 0)
(0.0475047 -1.19564e-08 0)
)
;

boundaryField
{
    inlet
    {
        type            zeroGradient;
    }
    outlet
    {
        type            zeroGradient;
    }
    walls
    {
        type            noSlip;
    }
    frontAndBack
    {
        type            empty;
    }
}


// ************************************************************************* //
