/*--------------------------------*- C++ -*----------------------------------*\
| =========                 |                                                 |
| \\      /  F ield         | OpenFOAM: The Open Source CFD Toolbox           |
|  \\    /   O peration     | Version:  2406                                  |
|   \\  /    A nd           | Website:  www.openfoam.com                      |
|    \\/     M anipulation  |                                                 |
\*---------------------------------------------------------------------------*/
FoamFile
{
    version     2.0;
    format      ascii;
    arch        "LSB;label=32;scalar=64";
    class       volScalarField;
    location    "0.15";
    object      alpha.glycerin;
}
// * * * * * * * * * * * * * * * * * * * * * * * * * * * * * * * * * * * * * //

dimensions      [0 0 0 0 0 0 0];

internalField   nonuniform List<scalar> 
6250
(
4.89125e-320
4.89224e-320
4.89323e-320
4.8952e-320
4.8952e-320
4.89619e-320
4.89718e-320
4.89915e-320
4.89915e-320
4.90113e-320
4.90212e-320
4.90311e-320
4.90508e-320
4.90607e-320
4.90706e-320
4.90904e-320
4.91002e-320
4.91101e-320
4.91299e-320
4.91398e-320
4.91497e-320
4.91694e-320
4.91892e-320
4.91991e-320
4.92089e-320
4.92287e-320
4.92485e-320
-4.92682e-320
-4.92781e-320
-4.92979e-320
-4.93176e-320
-4.93275e-320
-4.93572e-320
-4.93769e-320
-4.93967e-320
-4.94263e-320
-4.94461e-320
-4.94659e-320
-4.95054e-320
-4.95251e-320
-4.95647e-320
-9.91985e-320
-9.92776e-320
-3.47763e-319
-8.6314e-307
-3.4824e-294
-2.15812e-281
-8.68171e-269
-2.28687e-256
-2.99552e-243
-1.20568e-230
-2.25545e-218
-3.57747e-206
-3.77387e-193
-1.13591e-180
-1.09953e-168
-6.37769e-157
-1.46882e-145
-3.95471e-134
-4.41553e-123
-1.42391e-112
-2.28413e-102
-3.79396e-92
-9.1764e-82
-7.7529e-72
-9.2078e-63
-8.21511e-53
-4.0897e-47
-1.08674e-41
-1.73513e-36
-1.47884e-31
-5.74278e-27
-7.84667e-23
-5.27612e-19
-3.31977e-15
-3.17626e-14
-2.14249e-14
-2.99183e-14
-3.661e-13
0.225792
0.953603
0.99998
0.999981
0.999981
0.999981
0.999981
0.999981
0.99998
0.999978
0.999978
0.999979
0.999979
0.999975
0.999976
0.999987
0.999976
0.999976
0.999976
0.999975
0.999975
0.999975
0.999975
0.999975
0.999986
0.99999
0.999973
0.999971
0.999974
0.999977
0.999975
0.999981
0.999981
0.999981
0.999981
0.999982
0.999982
0.999962
0.999929
0.999935
0.999975
0.99999
0.99999
0.999988
0.999988
0.99999
0.99999
0.99999
0.99999
0.99999
0.999989
0.999991
0.99999
0.99999
0.99999
0.99999
0.99999
0.99999
0.999991
0.999995
0.999995
0.999995
0.999995
0.999995
0.999995
0.999995
0.999995
0.999995
0.999995
0.999995
0.999995
0.999995
0.999995
0.999995
0.999995
0.999995
0.999995
0.999995
0.999995
0.999995
0.999995
0.999995
0.999989
0.999976
0.999984
0.999999
1
1
1
1
1
1.00001
1.00001
1.00001
1.00001
1.00001
1.00001
1.00001
1
1
1
1
1
1
1
1
1
1.00001
1.00001
1.00001
1.00001
1.00001
1.00001
1.00001
1.00001
1.00001
1
1
1
1
1
1
0.999988
0.999973
0.999973
0.999987
0.999999
0.999999
0.999999
0.999999
0.999999
0.999999
0.999999
0.999999
0.999999
0.999999
0.999999
0.999999
0.999999
0.999999
0.999999
0.999999
0.999999
0.999999
0.999999
0.999999
0.999999
0.999999
0.999999
0.999999
0.999999
0.999999
0.999999
0.999999
0.999999
0.999999
0.999999
0.999999
0.999999
0.999999
0.999999
0.999999
0.999999
0.999999
0.999997
0.999969
0.999986
0.999991
0.999991
0.99999
0.99999
4.88927e-320
4.88927e-320
4.8873e-320
4.8873e-320
4.8873e-320
4.88631e-320
4.88532e-320
4.88532e-320
4.88433e-320
4.88334e-320
4.88334e-320
4.88236e-320
4.88137e-320
4.88137e-320
4.88038e-320
4.87939e-320
4.87939e-320
4.8784e-320
4.87742e-320
4.87742e-320
4.87643e-320
4.87544e-320
4.87544e-320
4.87445e-320
4.87346e-320
4.87346e-320
4.87149e-320
-4.87149e-320
-4.87149e-320
-4.86951e-320
-4.86951e-320
-4.86852e-320
-4.86753e-320
-4.86753e-320
-4.86655e-320
-4.86556e-320
-4.86556e-320
-4.86358e-320
-4.86358e-320
-4.86161e-320
-4.86161e-320
-4.85963e-320
-4.85963e-320
-9.71629e-320
-3.80007e-308
-1.60353e-295
-1.04059e-282
-4.38729e-270
-1.21185e-257
-1.66489e-244
-7.02747e-232
-1.37807e-219
-2.28965e-207
-2.52758e-194
-7.95141e-182
-8.03215e-170
-4.85357e-158
-1.16222e-146
-3.2465e-135
-3.75169e-124
-1.24896e-113
-2.06253e-103
-3.51626e-93
-8.70058e-83
-7.4932e-73
-9.03637e-64
-8.1557e-54
-4.09007e-48
-1.08955e-42
-1.73397e-37
-1.46298e-32
-5.57615e-28
-7.39884e-24
-4.77766e-20
-2.72982e-16
-1.4834e-15
-1.46752e-15
-1.5239e-15
-2.50986e-11
0.0370174
0.0746394
0.202496
0.810598
0.999981
0.999981
0.999981
0.999981
0.999981
0.999981
0.999929
0.999759
0.999757
0.99989
0.99999
0.99999
0.99999
0.99999
0.99999
0.99999
0.99999
0.99999
0.99999
0.99999
0.99999
0.99999
0.99999
0.99999
0.99999
0.99999
0.999412
0.996571
0.994147
0.995787
0.999047
0.999871
0.999701
0.999522
0.999706
0.999973
0.99999
0.99999
0.99999
0.99999
0.99999
0.99999
0.99999
0.99999
0.99999
0.999938
0.999905
0.999983
0.999992
0.999995
0.999995
0.999995
0.999995
0.999995
0.999995
0.999995
0.999995
0.999995
0.997461
0.979503
0.926774
0.861146
0.86451
0.890031
0.915637
0.917023
0.89374
0.844121
0.824086
0.839252
0.879951
0.926375
0.962829
0.987106
0.989636
0.990209
0.992643
0.994827
0.998187
0.999977
0.999991
1
1
1
0.999952
1
1
1
1
1
1
1
1
1
1
1
1
1
1
1
1
1
1
1
1
1
1
1
1
1
1
1
1
1
1
1
1
1
1
1
1
1
1
1
1
1
1
1
1
1
1
1
1
1
1
1
0.999578
0.990781
0.980434
0.971267
0.948529
0.930324
0.930641
0.94118
0.958665
0.971536
0.979673
0.988566
0.997032
0.999139
0.998973
0.997227
0.988945
0.969892
0.945274
0.923179
0.912154
0.915957
0.93664
0.980668
0.999999
0.999999
0.999999
0.999401
0.999993
0.999993
0.999993
4.89125e-320
4.89026e-320
4.89026e-320
4.89026e-320
4.88927e-320
4.88927e-320
4.88927e-320
4.88927e-320
4.88927e-320
4.88927e-320
4.88927e-320
4.88927e-320
4.88927e-320
4.88927e-320
4.88927e-320
4.88927e-320
4.88927e-320
4.88927e-320
4.88829e-320
4.88829e-320
4.88829e-320
4.88829e-320
4.88829e-320
4.88829e-320
4.88829e-320
4.88829e-320
4.88829e-320
-4.88829e-320
-4.88829e-320
-4.8873e-320
-4.8873e-320
-4.8873e-320
-4.8873e-320
-4.88829e-320
-4.88829e-320
-4.88829e-320
-4.88829e-320
-4.88829e-320
-4.88829e-320
-4.88829e-320
-4.88927e-320
-4.88927e-320
-4.88927e-320
-9.77855e-320
-2.07215e-309
-9.22711e-297
-6.3195e-284
-2.81152e-271
-8.19122e-259
-1.18614e-245
-5.27224e-233
-1.08741e-220
-1.89762e-208
-2.19661e-195
-7.23277e-183
-7.63189e-171
-4.80678e-159
-1.19693e-147
-3.46808e-136
-4.14525e-125
-1.42302e-114
-2.41564e-104
-4.21956e-94
-1.0662e-83
-9.34521e-74
-1.14308e-64
-1.04288e-54
-5.26835e-49
-1.40857e-43
-2.24124e-38
-1.88262e-33
-7.11064e-29
-9.28919e-25
-5.86287e-21
-3.22479e-17
-1.93344e-16
-3.36395e-16
-4.8133e-16
-5.66072e-12
-3.96921e-07
1.37611e-05
1.78846e-05
0.0530338
0.0811414
0.17531
0.650467
0.634188
0.511837
0.767478
0.999397
0.999989
0.99999
0.99999
0.99999
0.99999
0.99999
0.999774
0.996053
0.991807
0.999792
0.984993
0.922705
0.882311
0.894399
0.938019
0.982086
0.999011
0.99999
0.99999
0.999966
0.77985
0.460374
0.754374
0.999563
0.999868
0.971721
0.895115
0.942187
0.996692
0.993146
0.995692
0.99999
0.986031
0.969958
0.969997
0.994406
0.99999
0.936677
0.921096
0.933453
0.985302
0.999995
0.999995
0.912732
0.609578
0.683995
0.743157
0.648556
0.46393
0.43011
0.429047
0.426636
0.474014
0.516194
0.406902
0.155413
0.135072
0.13508
0.163921
0.254549
0.242631
0.149478
0.0709524
0.0604997
0.0565477
0.0553115
0.0535
0.11687
0.34845
0.467909
0.451103
0.501048
0.674444
0.824422
0.871423
0.871053
0.730792
0.589899
0.688818
0.885693
0.934335
0.964631
0.995455
1
0.987923
0.981202
0.989878
0.999556
1
1
1
1
1
1
1
1
1
1
1
1
1
1
1
1
1
1
1
1
1
1
1
1
1
1
1
0.996599
0.973123
0.941821
0.912983
0.883377
0.852023
0.799991
0.660037
0.468849
0.465208
0.571452
0.697558
0.699055
0.682842
0.65669
0.547378
0.30103
0.143926
0.134716
0.129899
0.115855
0.105246
0.111466
0.147794
0.230212
0.354501
0.495809
0.552367
0.545508
0.520929
0.451893
0.327344
0.209718
0.153952
0.146689
0.150839
0.162801
0.194274
0.505184
0.906977
0.918272
0.790174
0.961284
0.999998
0.999994
4.89026e-320
4.88927e-320
4.88927e-320
4.88927e-320
4.88927e-320
4.88927e-320
4.88927e-320
4.88927e-320
4.88927e-320
4.88927e-320
4.88927e-320
4.88927e-320
4.88927e-320
4.88927e-320
4.88927e-320
4.88927e-320
4.88927e-320
4.88927e-320
4.88927e-320
4.88927e-320
4.88829e-320
4.88829e-320
4.88829e-320
4.88829e-320
4.88829e-320
4.88829e-320
4.88829e-320
-4.88829e-320
-4.88829e-320
-4.88829e-320
-4.88829e-320
-4.88829e-320
-4.88829e-320
-4.8873e-320
-4.8873e-320
-4.8873e-320
-4.8873e-320
-4.88829e-320
-4.88829e-320
-4.88829e-320
-4.88829e-320
-4.88829e-320
-4.88829e-320
-9.77657e-320
-1.33466e-310
-6.24405e-298
-4.48838e-285
-2.09321e-272
-6.38359e-260
-9.66043e-247
-4.47949e-234
-9.61999e-222
-1.74444e-209
-2.09387e-196
-7.13353e-184
-7.77091e-172
-5.04162e-160
-1.29036e-148
-3.83488e-137
-4.69231e-126
-1.64607e-115
-2.85095e-105
-5.07397e-95
-1.30474e-84
-1.16261e-74
-1.44442e-65
-1.33741e-55
-6.85103e-50
-1.85582e-44
-2.98921e-39
-2.53993e-34
-9.70075e-30
-1.28184e-25
-8.19805e-22
-4.58449e-18
-3.20537e-17
-7.96441e-17
-1.48812e-16
-1.01012e-12
-8.27852e-08
9.7704e-07
1.22555e-06
1.70178e-05
1.56276e-05
1.50382e-05
0.0200958
0.0525249
0.0439732
0.0553124
0.128411
0.385276
0.416953
0.236152
0.25236
0.584553
0.97669
0.999772
0.8732
0.252264
0.0311547
0.0382686
0.0305212
0.0171401
0.00698034
1.79161e-07
0.100358
0.577753
0.874684
0.88593
0.684615
0.137601
0.146842
0.588781
0.866824
0.822725
0.68156
0.694167
0.830745
0.829353
0.453271
0.0205947
0.0315532
0.519262
0.987197
0.996457
0.998309
0.999346
0.996961
0.995339
0.995315
0.620873
0.217378
0.677484
0.911124
0.589598
0.0877697
0.0570516
0.05607
0.0559415
0.054592
0.0483869
0.0291556
0.0101279
0.000238785
0.124447
0.284914
0.284901
0.242738
0.0202338
8.08416e-05
0.0758574
0.17557
0.175566
0.170178
0.0824267
0.0731231
0.0534873
0.0110018
0.00699914
0.00231076
0.000282788
0.000242015
1.42067e-05
1.42701e-05
1.35484e-05
1.3529e-05
0.0346684
0.0432864
0.0170004
0.00539759
0.00542293
0.0229621
0.511262
0.784373
0.540576
0.275817
0.389947
0.64135
0.674224
0.666956
0.700803
0.704717
0.65089
0.648309
0.752842
0.830273
0.925518
0.990235
0.977011
0.959426
0.964264
0.987316
0.999997
0.993703
0.903034
0.898999
0.946352
0.999671
1
0.859227
0.640379
0.690985
0.680776
0.504774
0.395555
0.451737
0.533701
0.491345
0.322833
0.157381
0.0903133
0.0598298
0.0329222
0.01204
0.0107519
0.0106423
0.0100925
0.00865037
0.00606692
0.00185761
0.000438405
0.00032946
0.000327481
0.000270468
0.000301744
0.000492305
0.000594152
0.000677257
0.000689202
0.000448346
0.000366251
0.000356805
0.000348226
0.000332935
0.00032304
0.000252119
0.000239975
0.000176635
0.000122694
6.82514e-05
5.05766e-05
0.000115738
0.000218112
0.0284114
0.233064
0.273163
0.435389
0.96662
0.999998
0.999998
4.89026e-320
4.89026e-320
4.89026e-320
4.88927e-320
4.88927e-320
4.88927e-320
4.88927e-320
4.88927e-320
4.88927e-320
4.88927e-320
4.88927e-320
4.88927e-320
4.88927e-320
4.88927e-320
4.88927e-320
4.88927e-320
4.88927e-320
4.88927e-320
4.88927e-320
4.88927e-320
4.88927e-320
4.88829e-320
4.88829e-320
4.88829e-320
4.88829e-320
4.88829e-320
4.88829e-320
-4.8873e-320
-4.8873e-320
-4.8873e-320
-4.8873e-320
-4.8873e-320
-4.8873e-320
-4.8873e-320
-4.8873e-320
-4.8873e-320
-4.8873e-320
-4.8873e-320
-4.8873e-320
-4.8873e-320
-4.88631e-320
-4.88631e-320
-4.88532e-320
-9.77163e-320
-9.62338e-312
-4.71295e-299
-3.5403e-286
-1.72214e-273
-5.46689e-261
-8.59324e-248
-4.12947e-235
-9.16916e-223
-1.71496e-210
-2.11794e-197
-7.40523e-185
-8.25787e-173
-5.47036e-161
-1.42596e-149
-4.30547e-138
-5.33964e-127
-1.89449e-116
-3.31221e-106
-5.94104e-96
-1.53779e-85
-1.37829e-75
-1.72212e-66
-1.60432e-56
-8.27789e-51
-2.26267e-45
-3.68693e-40
-3.17959e-35
-1.2374e-30
-1.67388e-26
-1.10115e-22
-6.36656e-19
-5.19144e-18
-1.68065e-17
-3.91578e-17
-1.94169e-13
-2.78381e-09
-4.23843e-08
1.87398e-08
1.05148e-06
1.1826e-06
1.1635e-06
1.0912e-05
1.39751e-05
9.05541e-06
6.36935e-06
6.70117e-06
0.000103408
0.000152186
4.02133e-06
2.0347e-06
0.0348084
0.0752776
0.0610852
0.0296861
0.00496811
2.1154e-07
9.96264e-08
4.38936e-08
2.39496e-08
4.3984e-08
1.51462e-07
4.84634e-08
4.89182e-08
4.84867e-08
4.89182e-08
5.63667e-08
6.64567e-08
7.77204e-08
1.03089e-07
1.42499e-07
1.72731e-07
1.93116e-07
2.31042e-07
2.81036e-07
3.18028e-07
3.32801e-07
3.35042e-07
3.35075e-07
3.44956e-07
0.0727769
0.643488
0.749058
0.634156
0.771826
0.98519
0.995278
0.476887
0.0529813
0.0529841
0.318388
0.699769
0.699971
0.699947
0.634349
0.127709
0.0547108
0.0558411
0.0414253
0.00409002
0.000152832
3.06989e-05
0.00961007
0.275288
0.183404
0.00560572
5.51868e-05
0.00182876
0.00515796
0.00840762
0.00764044
0.00276083
1.06298e-06
0.00652573
0.124635
0.133914
0.133914
0.133916
0.133911
0.133899
0.123006
0.0135615
1.34718e-05
1.3418e-05
1.34014e-05
1.34036e-05
0.00539549
0.0122676
0.0106935
4.05207e-07
1.86963e-07
6.33669e-08
5.83306e-08
5.82315e-08
5.6285e-08
5.40895e-08
5.37267e-08
5.37243e-08
5.37243e-08
5.37243e-08
5.37243e-08
5.37243e-08
5.4384e-08
0.0534824
0.605373
0.60166
0.162524
0.0701572
0.426418
0.95223
0.991479
0.991478
0.991466
0.736104
0.472471
0.680446
0.623345
0.182474
0.0701953
0.0701256
0.0683387
0.0420496
0.0277266
0.022515
0.0166489
0.0114112
0.0068941
0.00427118
0.00281514
0.00174518
0.00175091
0.0140999
0.0157646
0.0157539
0.0106524
0.00112534
0.000855664
0.000793335
0.00028131
5.08566e-05
5.07626e-05
5.07626e-05
5.07626e-05
5.09467e-05
5.11582e-05
5.25966e-05
0.000163563
0.0111013
0.0146492
0.0146933
0.0146835
0.0145748
0.00321513
0.000784652
0.000848093
0.000456099
5.63422e-05
5.05766e-05
0.000511836
0.0032937
0.00355986
0.00145481
0.00143894
0.0260978
0.352875
0.513138
0.531741
4.89026e-320
4.88927e-320
4.88927e-320
4.88927e-320
4.88927e-320
4.88927e-320
4.88927e-320
4.88927e-320
4.88927e-320
4.88927e-320
4.88927e-320
4.88927e-320
-4.88927e-320
-4.88927e-320
-4.88927e-320
-4.88927e-320
-4.88927e-320
-4.88927e-320
4.88927e-320
4.88829e-320
4.88829e-320
4.88829e-320
4.88829e-320
4.88829e-320
4.8873e-320
4.8873e-320
4.8873e-320
-4.8873e-320
-4.8873e-320
-4.8873e-320
-4.8873e-320
-4.8873e-320
-4.8873e-320
-4.8873e-320
-4.88631e-320
-4.88631e-320
-4.88532e-320
-4.88532e-320
-4.88532e-320
-4.88532e-320
-4.88532e-320
-4.88433e-320
-4.88334e-320
-9.76669e-320
-7.22797e-313
-3.6938e-300
-2.88907e-287
-1.45985e-274
-4.80228e-262
-7.8028e-249
-3.86618e-236
-8.82911e-224
-1.69414e-211
-2.14106e-198
-7.64174e-186
-8.67726e-174
-5.83879e-162
-1.54224e-150
-4.70727e-139
-5.88815e-128
-2.10261e-117
-3.6928e-107
-6.64285e-97
-1.72213e-86
-1.54444e-76
-1.92996e-67
-1.79822e-57
-9.28523e-52
-2.54313e-46
-4.16082e-41
-3.61362e-36
-1.42181e-31
-1.95429e-27
-1.31342e-23
-7.80712e-20
-7.33267e-19
-2.93753e-18
-8.31109e-18
-3.75033e-14
-2.17325e-10
1.80246e-09
4.83602e-09
6.13326e-08
1.25164e-09
4.96863e-08
4.13485e-07
7.14869e-07
6.87982e-07
4.53219e-07
2.78902e-07
4.94576e-07
4.21881e-07
1.15981e-06
1.38961e-07
8.16551e-08
1.05306e-07
9.67505e-08
5.74575e-08
8.08599e-08
3.94983e-08
2.01286e-08
1.20761e-08
9.24826e-09
4.50702e-08
6.0724e-07
4.90018e-08
9.8729e-06
4.47771e-05
4.47868e-05
4.47869e-05
4.4787e-05
4.4787e-05
4.4787e-05
2.46566e-05
3.58101e-07
3.29161e-07
3.62518e-07
3.54967e-07
3.34269e-07
8.36819e-07
2.76267e-06
2.00425e-06
4.51182e-07
0.00139192
0.0241088
0.0277811
0.0185535
0.00425597
1.50919e-07
0.486891
0.660652
0.645277
0.155208
0.0080226
0.0799319
0.434681
0.522587
0.340406
0.194121
0.204917
0.224432
0.211828
0.0276817
3.06989e-05
1.86396e-05
1.77678e-05
0.00115058
2.84166e-05
1.7717e-05
5.51868e-05
6.97388e-06
9.37115e-07
4.86857e-07
4.7817e-07
4.78179e-07
1.02017e-06
5.58346e-05
0.000348009
0.000973111
0.00410883
0.00559939
0.00494301
0.00695331
0.0206313
0.00954855
0.000178616
0.000141481
0.000100632
1.87004e-05
2.05614e-06
3.80516e-06
1.26586e-06
5.23876e-05
0.000239366
0.000239117
1.59777e-05
5.83306e-08
2.26762e-06
3.46366e-06
6.93831e-07
5.37247e-08
5.37243e-08
5.37243e-08
5.37243e-08
6.96688e-07
7.72757e-06
4.03124e-07
2.68364e-07
2.68364e-07
2.68188e-07
2.68364e-07
2.76437e-07
0.0197419
0.14222
0.195505
0.12685
0.0202572
0.000352454
1.10297e-06
8.54301e-07
0.17538
0.395866
0.395808
0.395865
0.183693
0.0126728
0.0124997
0.0206373
0.020636
0.020329
0.00998177
0.00609544
0.00396341
0.00251884
0.00364155
0.00509122
0.00239212
9.37591e-06
0.00866498
0.0150592
0.0150764
0.015069
0.0113919
0.000430615
5.22231e-05
0.00119224
0.00129116
0.000730576
0.000522824
0.000312488
1.13996e-05
5.15759e-06
0.00212927
0.0122403
0.0117517
0.0102584
0.0125895
0.0126409
0.012623
0.00934667
0.000407149
0.000371758
0.00054236
0.000522311
0.00072768
0.00146735
0.00147086
0.00202669
0.00744514
0.0106603
4.89026e-320
4.88927e-320
4.88927e-320
4.88927e-320
4.88927e-320
4.88927e-320
4.88927e-320
4.88927e-320
4.88927e-320
4.88927e-320
4.88927e-320
4.88927e-320
-4.88927e-320
-4.88927e-320
-4.88927e-320
-4.88927e-320
-4.88927e-320
-4.88927e-320
-4.88927e-320
4.88927e-320
4.88829e-320
4.88829e-320
4.88829e-320
4.88829e-320
4.8873e-320
4.8873e-320
4.8873e-320
-4.8873e-320
-4.8873e-320
-4.8873e-320
-4.8873e-320
-4.8873e-320
-4.88631e-320
-4.88631e-320
-4.88532e-320
-4.88532e-320
-4.88532e-320
-4.88532e-320
-4.88433e-320
-4.88334e-320
-4.88334e-320
-4.88334e-320
-4.88137e-320
-9.76274e-320
-5.35296e-314
-2.84755e-301
-2.31246e-288
-1.20998e-275
-4.1103e-263
-6.87737e-250
-3.49944e-237
-8.18471e-225
-1.60421e-212
-2.06569e-199
-7.49342e-187
-8.62739e-175
-5.87235e-163
-1.56546e-151
-4.81161e-140
-6.04802e-129
-2.16597e-118
-3.80839e-108
-6.84822e-98
-1.7726e-87
-1.58592e-77
-1.97631e-68
-1.8364e-58
-9.46119e-53
-2.58801e-47
-4.23515e-42
-3.68666e-37
-1.45783e-32
-2.02088e-28
-1.37489e-24
-8.30985e-21
-8.82608e-20
-4.19614e-19
-1.39801e-18
-6.03441e-15
-1.39604e-11
5.62211e-11
1.63131e-10
2.311e-09
3.67609e-09
2.54878e-09
2.04954e-08
3.8539e-08
3.59515e-08
3.17861e-08
2.50338e-08
1.5864e-08
2.22883e-08
7.12262e-08
9.84729e-09
2.78023e-08
1.20183e-07
1.18804e-07
3.75763e-08
1.94909e-08
3.61166e-08
2.41152e-08
9.09796e-09
6.59115e-09
2.69317e-08
4.87178e-08
5.26846e-08
1.23474e-07
3.67916e-07
7.44608e-07
1.1547e-06
1.49272e-06
1.82371e-06
2.42217e-06
2.47112e-06
8.87661e-07
3.38683e-06
3.5631e-06
3.57542e-06
3.56915e-06
2.5327e-06
1.15057e-06
3.61181e-06
3.52388e-06
2.45648e-07
2.16839e-07
8.84328e-08
1.18636e-07
2.47532e-07
2.40108e-08
0.000979615
0.0201347
0.0308051
0.0188778
0.00582649
0.0497881
0.116085
0.097505
0.0434508
0.0152325
0.0137611
0.01116
0.00218673
0.000234132
7.57415e-05
1.77678e-05
1.75382e-05
1.60159e-05
1.48784e-05
1.41003e-05
3.53811e-05
5.83088e-05
5.80758e-05
2.21303e-05
4.86857e-07
4.7817e-07
4.85406e-07
4.05604e-05
4.64801e-05
4.44172e-06
3.06224e-06
6.09848e-06
1.02481e-05
1.14048e-05
1.11138e-05
0.0013454
0.0023641
0.0023641
0.0018429
0.000132153
2.05614e-06
2.12613e-06
2.57759e-06
3.7563e-06
3.8055e-06
0.000164726
0.000205208
0.00010698
2.41687e-06
2.83284e-06
5.93993e-06
5.81256e-06
6.77181e-06
3.78658e-06
6.60463e-08
3.85566e-06
7.64001e-06
1.53338e-06
3.93841e-07
1.82183e-06
4.57884e-06
4.96493e-06
3.74194e-06
3.02815e-06
3.02815e-06
3.01333e-06
3.11921e-06
4.16851e-06
5.24344e-06
1.14534e-06
8.62465e-07
0.00461755
0.0286986
0.033743
0.0286228
0.015996
0.0019879
0.000401608
0.0112879
0.0205447
0.0200941
0.0196606
0.0195156
0.0192696
0.0182826
0.00566284
4.04361e-08
1.78801e-07
4.14471e-07
0.000435967
0.00250984
0.00359568
0.00271968
0.000884839
2.33179e-06
0.000696521
0.00206777
0.00207742
0.00207742
0.00207742
0.00207325
0.000725929
1.17168e-06
3.81081e-07
9.59056e-08
1.1792e-08
1.79387e-09
5.91378e-10
1.18793e-09
6.31148e-06
0.0100586
0.0123129
0.0123129
0.0123129
0.00946093
0.000595029
0.000228588
0.00131448
0.00195987
0.00119229
0.00196505
-4.88927e-320
-4.88927e-320
-4.88927e-320
-4.88927e-320
-4.88927e-320
-4.88927e-320
-4.88927e-320
-4.88927e-320
-4.88927e-320
-4.88927e-320
-4.88927e-320
-4.88927e-320
-4.88927e-320
-4.88927e-320
-4.88927e-320
-4.88927e-320
-4.88927e-320
-4.88927e-320
-4.88927e-320
4.88829e-320
4.88829e-320
4.88829e-320
4.88829e-320
4.8873e-320
4.8873e-320
4.8873e-320
4.8873e-320
-4.8873e-320
-4.8873e-320
-4.8873e-320
-4.8873e-320
-4.88631e-320
-4.88532e-320
-4.88532e-320
-4.88532e-320
-4.88532e-320
-4.88433e-320
-4.88334e-320
-4.88334e-320
-4.88334e-320
-4.88137e-320
-4.88137e-320
-4.88038e-320
-9.75878e-320
-3.7008e-315
-2.04608e-302
-1.72217e-289
-9.31229e-277
-3.25918e-264
-5.6012e-251
-2.91856e-238
-6.96967e-226
-1.39091e-213
-1.81879e-200
-6.68341e-188
-7.77636e-176
-5.33718e-164
-1.43155e-152
-4.41784e-141
-5.56443e-130
-1.99313e-119
-3.49912e-109
-6.27326e-99
-1.61703e-88
-1.43957e-78
-1.78441e-69
-1.64939e-59
-8.45733e-54
-2.30458e-48
-3.76218e-43
-3.27309e-38
-1.29654e-33
-1.80542e-29
-1.23718e-25
-7.5529e-22
-8.95347e-21
-4.90864e-20
-1.87811e-19
-7.83558e-16
-1.8248e-13
1.88537e-12
4.94815e-12
4.80968e-11
1.29902e-10
1.71251e-10
7.99348e-10
1.49743e-09
8.25038e-10
1.39665e-09
1.20538e-09
1.10881e-09
7.78524e-10
7.07992e-10
5.99524e-10
3.25053e-10
3.74358e-09
1.26894e-08
1.30908e-08
1.09838e-08
1.23894e-08
1.56947e-08
1.32262e-08
6.05728e-09
5.9429e-09
7.62434e-09
9.38247e-09
8.38073e-09
6.96858e-10
1.64576e-10
2.96881e-10
4.94228e-10
8.37744e-10
1.19259e-09
1.38193e-09
5.04553e-09
2.0988e-08
3.96076e-08
6.89444e-08
1.20028e-07
1.52585e-07
1.39492e-07
1.52276e-07
1.86357e-07
2.4704e-07
2.57207e-07
2.29781e-08
-5.8965e-10
1.87257e-08
1.16763e-09
-4.92598e-08
3.68928e-06
4.6162e-06
4.7287e-05
9.87087e-05
0.000328656
8.64597e-06
8.38926e-06
8.07643e-06
4.02921e-06
3.2462e-06
6.07578e-06
4.47253e-06
3.81053e-06
2.56834e-06
0.00105088
0.00129991
0.0013037
0.00130196
0.00053539
1.44238e-05
7.85019e-06
8.831e-06
1.13316e-05
2.90374e-05
2.70196e-05
8.30673e-06
3.34317e-06
3.07788e-06
3.05964e-06
3.06224e-06
4.75657e-06
4.63221e-05
4.92875e-05
1.09841e-05
7.10707e-06
6.62086e-06
5.05182e-06
4.54847e-06
3.28836e-05
3.28759e-05
3.66037e-06
1.88904e-06
6.47568e-05
8.82417e-05
8.11697e-05
3.06536e-05
0.000127112
0.000145901
0.000145907
0.000145907
0.000145907
0.000145516
0.000144374
0.000142728
6.44444e-05
2.64929e-06
1.08614e-06
6.17917e-07
7.89199e-07
1.08267e-05
3.74573e-05
3.73776e-05
2.1394e-05
3.21222e-06
3.11921e-06
1.37487e-05
3.73781e-05
3.62126e-05
2.27538e-05
1.01825e-06
6.25477e-07
4.05172e-07
3.15536e-07
2.20882e-07
1.69182e-07
8.88264e-08
8.04066e-08
1.75968e-07
1.93062e-07
1.73218e-07
1.1786e-07
9.59281e-08
7.44056e-08
5.10317e-08
4.04367e-08
4.04361e-08
3.47947e-08
2.26962e-07
3.91033e-07
2.48393e-07
1.23251e-07
7.004e-07
1.7012e-06
1.07181e-06
1.4814e-05
6.08724e-05
7.77439e-05
6.34834e-05
3.9297e-05
1.13212e-05
5.52173e-07
8.24888e-07
1.55724e-07
3.09651e-08
2.45333e-10
7.6185e-12
7.24413e-12
2.29724e-11
2.67624e-11
1.24888e-11
8.00623e-06
5.63604e-05
0.000195856
0.000275065
0.000170127
0.000160128
0.000350036
0.000191293
2.90705e-06
0.0011831
-4.88927e-320
-4.88927e-320
-4.88927e-320
-4.88927e-320
-4.88927e-320
-4.88927e-320
-4.88927e-320
-4.88927e-320
-4.88927e-320
-4.88927e-320
-4.88927e-320
-4.88927e-320
-4.88927e-320
-4.88927e-320
-4.88927e-320
-4.88927e-320
-4.88927e-320
-4.88927e-320
-4.88927e-320
-4.88927e-320
4.88829e-320
4.88829e-320
4.88829e-320
4.8873e-320
4.8873e-320
4.8873e-320
4.8873e-320
-4.8873e-320
-4.8873e-320
-4.8873e-320
-4.88631e-320
-4.88631e-320
-4.88532e-320
-4.88532e-320
-4.88532e-320
-4.88433e-320
-4.88334e-320
-4.88334e-320
-4.88334e-320
-4.88137e-320
-4.88137e-320
-4.88038e-320
-4.87939e-320
-9.75681e-320
-2.26043e-316
-1.29788e-303
-1.13111e-290
-6.31336e-278
-2.2734e-265
-4.0066e-252
-2.13383e-239
-5.19182e-227
-1.05247e-214
-1.39407e-201
-5.17572e-189
-6.06999e-177
-4.18993e-165
-1.12795e-153
-3.48673e-142
-4.39077e-131
-1.56961e-120
-2.7456e-110
-4.89731e-100
-1.25443e-89
-1.10879e-79
-1.36399e-70
-1.2512e-60
-6.36924e-55
-1.72447e-49
-2.80061e-44
-2.42804e-39
-9.6044e-35
-1.33883e-30
-9.20528e-27
-5.65128e-23
-7.41336e-22
-4.60308e-21
-1.99147e-20
-8.19671e-17
-4.69356e-21
8.37064e-14
2.51428e-13
1.57303e-12
3.56443e-12
4.81563e-12
1.92088e-11
3.895e-11
5.45036e-11
5.14335e-11
3.97948e-11
3.31475e-11
4.08246e-12
2.31693e-11
2.14221e-11
3.84451e-11
2.14807e-11
2.07023e-11
1.43419e-10
2.24477e-10
3.09155e-10
4.94026e-10
9.06684e-10
8.84113e-10
7.17137e-10
4.57104e-10
2.9234e-10
1.76813e-10
1.54209e-10
1.67501e-10
2.6646e-10
4.74796e-10
9.30676e-10
1.33399e-09
1.41611e-09
1.26461e-09
5.39126e-10
4.51849e-11
3.24638e-11
2.9322e-11
1.82185e-11
1.20512e-11
1.35414e-11
1.87692e-11
2.9544e-09
2.04359e-09
1.68027e-11
6.27941e-11
-2.78886e-10
-1.90712e-10
-5.3517e-08
8.70079e-08
1.41209e-07
5.76878e-07
-3.01145e-08
-5.36625e-08
1.56997e-07
2.58623e-07
1.80717e-06
1.01324e-06
9.36175e-07
8.83943e-06
9.20746e-06
7.06442e-06
1.54636e-06
5.48408e-06
1.08508e-05
1.50388e-05
1.79889e-05
3.13144e-05
3.35563e-05
4.59073e-06
1.09732e-07
3.12692e-05
4.62784e-05
4.72483e-05
4.74839e-05
4.74839e-05
4.39599e-05
4.84935e-05
4.89186e-05
4.92061e-05
4.92876e-05
4.92875e-05
4.92878e-05
4.9274e-05
1.84363e-05
2.56157e-06
1.44839e-06
1.24737e-06
1.10227e-06
2.36015e-06
2.69415e-06
2.73686e-05
3.54473e-05
1.94099e-05
4.66252e-06
2.60978e-06
3.10267e-06
3.76224e-06
4.70818e-06
5.8693e-06
8.29014e-06
1.87837e-05
2.09623e-05
8.33671e-06
2.58763e-05
3.64095e-05
3.72239e-05
3.74486e-05
3.74573e-05
3.74573e-05
3.74573e-05
3.73776e-05
3.71662e-05
2.76296e-05
1.17245e-06
6.71171e-08
2.54278e-05
2.53724e-05
1.88996e-05
3.78322e-06
1.43753e-05
1.43838e-05
1.43973e-05
1.01088e-05
8.31089e-07
4.79025e-07
3.52193e-06
4.2879e-06
4.2089e-06
4.30385e-06
4.31844e-06
4.32371e-06
4.31866e-06
4.31698e-06
1.79256e-06
2.27074e-08
1.15543e-07
3.73283e-07
1.89012e-07
2.32551e-08
3.58007e-08
4.86266e-08
9.12615e-08
1.92714e-08
3.87008e-12
3.89927e-12
3.93216e-12
3.96927e-12
4.01458e-12
4.06856e-12
4.05425e-12
3.90754e-12
3.76979e-12
2.2242e-12
4.49753e-12
4.68257e-12
3.4016e-11
2.16874e-11
5.77908e-12
-8.81891e-11
3.58631e-09
1.80533e-08
4.09432e-08
5.40741e-08
1.90987e-07
1.29523e-07
1.63782e-07
1.52125e-07
4.14721e-05
-4.88927e-320
-4.88927e-320
-4.88927e-320
-4.88927e-320
-4.88927e-320
-4.88927e-320
-4.88927e-320
-4.88927e-320
-4.88927e-320
-4.88927e-320
-4.88927e-320
-4.88927e-320
-4.88927e-320
-4.88927e-320
-4.88927e-320
-4.88927e-320
-4.88927e-320
-4.88927e-320
-4.88927e-320
-4.88927e-320
-4.88829e-320
4.88829e-320
4.88829e-320
4.8873e-320
4.8873e-320
4.8873e-320
4.8873e-320
-4.8873e-320
-4.8873e-320
-4.8873e-320
-4.88631e-320
-4.88532e-320
-4.88532e-320
-4.88532e-320
-4.88532e-320
-4.88433e-320
-4.88334e-320
-4.88334e-320
-4.88236e-320
-4.88137e-320
-4.88038e-320
-4.87939e-320
-4.8784e-320
-4.87742e-320
-1.14099e-317
-6.77958e-305
-6.11648e-292
-3.52304e-279
-1.30473e-266
-2.35657e-253
-1.28169e-240
-3.17363e-228
-6.52582e-216
-8.74124e-203
-3.27282e-190
-3.86124e-178
-2.67526e-166
-7.2142e-155
-2.22966e-143
-2.80228e-132
-9.9812e-122
-1.73684e-111
-3.07738e-101
-7.82052e-91
-6.85164e-81
-8.34963e-72
-7.58617e-62
-3.82586e-56
-1.0269e-50
-1.6551e-45
-1.42618e-40
-5.61746e-36
-7.81473e-32
-5.373e-28
-3.30432e-24
-4.7643e-23
-3.30691e-22
-1.59982e-21
-6.62325e-18
-1.04385e-20
1.31671e-15
4.35509e-15
2.474e-14
9.19164e-14
1.54535e-13
3.63577e-13
1.07246e-12
1.79103e-12
2.00225e-12
1.94681e-12
1.79182e-12
1.39315e-12
1.49663e-12
4.19499e-12
1.10922e-11
1.55239e-11
1.56623e-11
1.37028e-11
1.27547e-11
1.31293e-11
1.27988e-11
1.32761e-11
1.82947e-11
2.15326e-11
2.27341e-11
2.28256e-11
2.18191e-11
1.8201e-11
1.40475e-11
1.48844e-11
2.11043e-11
3.56515e-11
5.82808e-11
7.48103e-11
6.95412e-11
6.34937e-11
5.58051e-11
4.20927e-11
2.684e-11
1.27473e-11
3.23616e-12
2.87417e-12
1.39124e-12
1.2646e-12
9.93842e-13
7.84698e-13
1.99034e-12
-2.89306e-12
1.33027e-12
-3.43987e-10
-2.29709e-10
2.16067e-09
7.92542e-10
1.72074e-09
-3.08942e-09
2.25854e-09
4.91431e-09
7.62388e-09
2.8279e-08
6.3024e-08
1.16306e-07
1.92654e-07
3.58468e-07
3.15455e-07
1.2864e-07
5.65197e-09
4.59247e-10
2.50875e-10
1.77361e-10
4.05456e-08
2.51851e-08
1.07416e-07
2.85892e-07
6.58657e-07
1.2773e-06
2.02111e-06
3.3305e-06
3.76435e-06
3.83707e-06
4.73906e-06
8.18676e-06
8.4308e-06
4.47874e-06
3.01244e-06
8.56255e-06
1.77974e-05
1.61387e-05
1.24786e-05
4.21959e-06
4.05662e-10
5.28666e-09
7.55387e-08
1.20194e-07
7.7989e-08
3.86769e-08
4.77493e-08
2.63549e-08
1.33143e-09
4.69282e-10
3.91539e-10
3.11045e-10
3.47056e-10
6.34534e-10
9.85879e-10
5.79088e-09
2.16922e-07
5.88397e-07
1.1317e-06
1.3191e-06
1.42724e-06
1.51523e-06
1.47157e-06
1.38933e-06
1.16385e-06
4.63072e-07
8.7972e-09
5.542e-12
4.63031e-12
9.6542e-09
4.02199e-12
3.90644e-12
3.8235e-12
5.68096e-10
4.11524e-12
3.73799e-12
3.73148e-12
3.7279e-12
3.7263e-12
3.72576e-12
3.72568e-12
3.72589e-12
3.72668e-12
3.73001e-12
3.73109e-12
3.73512e-12
3.74838e-12
3.76292e-12
3.766e-12
3.76639e-12
3.76824e-12
3.77246e-12
3.77954e-12
3.79e-12
3.80431e-12
3.82257e-12
3.84455e-12
3.87012e-12
3.89929e-12
3.93217e-12
3.96933e-12
4.01461e-12
4.08172e-12
4.16751e-12
4.26028e-12
4.38237e-12
4.51391e-12
4.71527e-12
4.97915e-12
5.62409e-12
5.80131e-12
1.34806e-12
-4.03789e-11
-1.0847e-10
4.30198e-10
-1.07142e-08
1.35628e-09
2.83699e-09
4.44745e-09
5.33511e-09
2.59294e-08
-4.88927e-320
-4.88927e-320
-4.88927e-320
-4.88927e-320
-4.88927e-320
-4.88927e-320
-4.88927e-320
-4.88927e-320
-4.88927e-320
-4.88927e-320
-4.88927e-320
-4.88927e-320
-4.88927e-320
-4.88927e-320
-4.88927e-320
-4.88927e-320
-4.88927e-320
-4.88927e-320
-4.88927e-320
-4.88927e-320
-4.88829e-320
4.88829e-320
4.88829e-320
4.8873e-320
4.8873e-320
4.8873e-320
4.8873e-320
-4.8873e-320
-4.8873e-320
-4.8873e-320
-4.88631e-320
-4.88532e-320
-4.88532e-320
-4.88532e-320
-4.88532e-320
-4.88433e-320
-4.88334e-320
-4.88334e-320
-4.88236e-320
-4.88137e-320
-4.88038e-320
-4.87939e-320
-4.8784e-320
-4.87742e-320
-3.90065e-319
-2.63603e-306
-2.46303e-293
-1.4647e-280
-5.58103e-268
-1.03332e-254
-5.73931e-242
-1.44585e-229
-3.0139e-217
-4.07883e-204
-1.53829e-191
-1.82319e-179
-1.26603e-167
-3.41464e-156
-1.05359e-144
-1.31975e-133
-4.67758e-123
-8.08732e-113
-1.42176e-102
-3.58042e-92
-3.10534e-82
-3.74379e-73
-3.36408e-63
-1.67809e-57
-4.45738e-52
-7.11624e-47
-6.08219e-42
-2.38025e-37
-3.29671e-33
-2.26071e-29
-1.3884e-25
-2.18855e-24
-1.68141e-23
-9.01761e-23
-3.81878e-19
-3.77021e-21
1.21573e-17
3.94378e-17
2.3122e-16
8.86245e-16
1.64456e-15
3.92517e-15
1.15147e-14