/*--------------------------------*- C++ -*----------------------------------*\
| =========                 |                                                 |
| \\      /  F ield         | OpenFOAM: The Open Source CFD Toolbox           |
|  \\    /   O peration     | Version:  2406                                  |
|   \\  /    A nd           | Website:  www.openfoam.com                      |
|    \\/     M anipulation  |                                                 |
\*---------------------------------------------------------------------------*/
FoamFile
{
    version     2.0;
    format      ascii;
    arch        "LSB;label=32;scalar=64";
    class       surfaceScalarField;
    location    "0.15";
    object      alphaPhi0.glycerin;
}
// * * * * * * * * * * * * * * * * * * * * * * * * * * * * * * * * * * * * * //

dimensions      [0 3 -1 0 0 0 0];

oriented        oriented;

internalField   nonuniform List<scalar> 
12225
(
0
0
0
0
0
0
0
0
0
0
0
0
0
0
0
0
0
0
0
0
0
0
0
0
0
0
0
0
0
0
0
0
0
0
0
0
0
0
0
0
0
0
0
0
0
0
0
0
0
0
0
0
0
0
0
0
0
0
0
0
0
0
0
0
0
0
0
0
0
0
0
0
0
0
0
0
0
0
0
0
0
0
0
0
0
0
-4.94066e-324
0
-1.82747e-311
-8.81299e-314
-7.33384e-299
-3.92262e-301
-4.51803e-286
-2.69067e-288
-1.8055e-273
-1.20175e-275
-4.72068e-261
-3.52457e-263
-6.13196e-248
-5.1536e-250
-2.44487e-235
-2.32084e-237
-4.52492e-223
-4.86736e-225
-7.09047e-211
-8.66999e-213
-7.37688e-198
-1.02849e-199
-2.18556e-185
-3.48467e-187
-2.07756e-173
-3.79907e-175
-1.18024e-161
-2.48223e-163
-2.65379e-150
-6.4371e-152
-6.95022e-139
-1.94968e-140
-7.5156e-128
-2.44485e-129
-2.33526e-117
-8.83417e-119
-3.58777e-107
-1.58297e-108
-5.66678e-97
-2.92543e-98
-1.29228e-86
-7.8334e-88
-1.01899e-76
-7.28219e-78
-1.11575e-67
-9.44661e-69
-9.04152e-58
-9.13086e-59
-4.01335e-52
-4.87759e-53
-9.28942e-47
-1.3751e-47
-1.25335e-41
-2.29828e-42
-8.66408e-37
-2.01817e-37
-2.5723e-32
-7.92229e-33
-2.44531e-28
-1.06937e-28
-9.50965e-25
-6.93264e-25
-2.07753e-21
-3.906e-21
-2.79606e-21
-1.70811e-20
-1.46481e-20
8.74155e-22
-5.73537e-20
1.87945e-21
-3.70511e-19
-3.31308e-19
3.51044e-07
9.31669e-08
4.07519e-07
1.10359e-07
3.45066e-07
6.2455e-08
2.9255e-07
5.2516e-08
2.62924e-07
2.96264e-08
2.4542e-07
1.7504e-08
2.3236e-07
1.30601e-08
2.25048e-07
7.31124e-09
2.18874e-07
6.17307e-09
2.07863e-07
1.10108e-08
1.9422e-07
1.36426e-08
1.82624e-07
1.15966e-08
1.7416e-07
8.46381e-09
1.66803e-07
7.35708e-09
1.58159e-07
8.64582e-09
1.49276e-07
8.88042e-09
1.43235e-07
6.041e-09
1.41533e-07
1.70192e-09
1.43321e-07
-1.78809e-09
1.45861e-07
-2.5397e-09
1.46611e-07
-7.50652e-10
1.45372e-07
1.23908e-09
1.42764e-07
2.6081e-09
1.39189e-07
3.5747e-09
1.35166e-07
4.02481e-09
1.31585e-07
3.58092e-09
1.29751e-07
1.83257e-09
1.30451e-07
-7.00375e-10
1.33549e-07
-3.09632e-09
1.38163e-07
-4.61482e-09
1.43091e-07
-4.92575e-09
1.46724e-07
-3.63047e-09
1.48607e-07
-1.88071e-09
1.50861e-07
-2.25187e-09
1.55467e-07
-4.60362e-09
1.62482e-07
-7.01405e-09
1.70897e-07
-8.4134e-09
1.79532e-07
-8.64494e-09
1.87494e-07
-7.96311e-09
1.93592e-07
-6.08978e-09
1.96024e-07
-2.43099e-09
1.93183e-07
2.84086e-09
1.84994e-07
8.18897e-09
1.73957e-07
1.10366e-08
1.63092e-07
1.08649e-08
1.54474e-07
8.6184e-09
1.48785e-07
5.68887e-09
1.45732e-07
3.05304e-09
1.44773e-07
9.58733e-10
1.4568e-07
-9.06743e-10
1.48172e-07
-2.49204e-09
1.50214e-07
-2.0424e-09
1.48702e-07
1.51208e-09
1.43061e-07
5.64127e-09
1.3526e-07
7.80022e-09
1.26907e-07
8.3535e-09
1.18298e-07
8.60902e-09
1.10022e-07
8.27546e-09
1.02385e-07
7.63803e-09
9.48844e-08
7.50022e-09
8.74637e-08
7.42075e-09
8.06274e-08
6.83628e-09
7.47959e-08
5.83154e-09
7.01583e-08
4.63755e-09
6.5621e-08
4.53731e-09
6.03875e-08
5.23344e-09
5.48107e-08
5.5768e-09
4.96418e-08
5.1689e-09
4.56934e-08
3.94844e-09
4.30885e-08
2.60491e-09
4.1318e-08
1.77047e-09
4.00126e-08
1.30546e-09
3.86238e-08
1.38878e-09
3.71557e-08
1.46806e-09
3.6088e-08
1.06777e-09
3.54537e-08
6.34299e-10
3.47625e-08
6.91182e-10
3.37251e-08
1.03742e-09
3.2888e-08
8.37062e-10
3.31144e-08
-2.26437e-10
3.43871e-08
-1.27271e-09
3.6126e-08
-1.73896e-09
3.82185e-08
-2.09482e-09
4.10851e-08
-2.86663e-09
4.4842e-08
-3.75646e-09
4.90692e-08
-4.22716e-09
5.29764e-08
-3.90721e-09
5.5801e-08
-2.82443e-09
5.73428e-08
-1.54157e-09
5.81982e-08
-8.55314e-10
5.89611e-08
-7.62877e-10
5.98463e-08
-8.85119e-10
6.12735e-08
-1.42712e-09
6.37833e-08
-2.50976e-09
6.72463e-08
-3.46299e-09
7.09399e-08
-3.69356e-09
7.43898e-08
-3.44987e-09
7.7706e-08
-3.31627e-09
8.10663e-08
-3.36028e-09
8.43486e-08
-3.28239e-09
8.72507e-08
-2.90205e-09
8.94208e-08
-2.17017e-09
9.04415e-08
-1.0207e-09
8.98668e-08
5.74658e-10
8.76357e-08
2.23121e-09
8.44896e-08
3.14609e-09
8.16077e-08
2.88196e-09
7.96216e-08
1.98616e-09
7.80672e-08
1.55441e-09
7.61826e-08
1.88466e-09
7.36627e-08
2.51989e-09
7.08491e-08
2.81366e-09
6.84057e-08
2.44331e-09
6.69033e-08
1.50244e-09
6.64952e-08
4.08019e-10
6.67077e-08
-2.12456e-10
6.68456e-08
-1.37983e-10
6.62428e-08
6.02786e-10
6.4664e-08
1.57871e-09
6.24736e-08
2.19036e-09
6.01702e-08
2.30332e-09
5.79068e-08
2.26333e-09
5.55901e-08
2.31517e-09
5.3337e-08
2.25311e-09
5.10423e-08
2.29471e-09
4.84553e-08
2.58837e-09
4.58043e-08
2.65096e-09
4.36482e-08
2.15602e-09
4.22935e-08
1.35471e-09
4.16635e-08
6.30062e-10
4.14047e-08
2.58783e-10
4.11589e-08
2.45745e-10
4.07327e-08
4.26295e-10
3.97065e-08
1.02615e-09
3.77414e-08
1.96508e-09
3.48458e-08
2.89558e-09
3.17169e-08
3.129e-09
2.91145e-08
2.60232e-09
2.74527e-08
1.66183e-09
2.67981e-08
6.54609e-10
2.68052e-08
-7.06113e-12
2.68267e-08
-2.15562e-11
2.6355e-08
4.71667e-10
2.52715e-08
1.08354e-09
2.39295e-08
1.34194e-09
2.25906e-08
1.33893e-09
2.13091e-08
1.28147e-09
2.0061e-08
1.24808e-09
1.87465e-08
1.31454e-09
1.74283e-08
1.31818e-09
1.65424e-08
8.85865e-10
1.67234e-08
-1.80984e-10
1.81429e-08
-1.41989e-09
2.03511e-08
-2.20884e-09
2.26736e-08
-2.32345e-09
2.45309e-08
-1.85836e-09
2.54567e-08
-9.26266e-10
2.51089e-08
3.47786e-10
2.34176e-08
1.69132e-09
2.05154e-08
2.90224e-09
1.66946e-08
3.82071e-09
1.2007e-08
4.68762e-09
6.31385e-09
5.69317e-09
-2.04624e-09
8.36009e-09
-1.58919e-08
1.38461e-08
-3.4784e-08
1.88912e-08
-5.73431e-08
2.25586e-08
-8.62698e-08
2.89265e-08
-1.24192e-07
3.79217e-08
-1.70564e-07
4.63725e-08
5.25078e-08
0
0
0
0
0
0
0
0
0
0
0
0
0
0
0
0
0
0
0
0
0
0
0
0
0
0
0
0
0
0
0
0
0
0
0
0
0
0
0
0
0
0
0
0
0
0
0
0
0
0
0
0
0
0
0
0
0
0
0
0
0
0
0
0
0
0
0
0
0
0
0
0
0
0
0
0
0
0
0
0
0
0
0
0
0
0
0
0
-8.94994e-313
-3.31436e-315
-3.77903e-300
-1.56689e-302
-2.45391e-287
-1.1426e-289
-1.03525e-274
-5.42892e-277
-2.86128e-262
-1.69463e-264
-3.93319e-249
-2.63803e-251
-1.66107e-236
-1.26496e-238
-3.25881e-224
-2.82485e-226
-5.41642e-212
-5.35735e-214
-5.9805e-199
-6.7653e-201
-1.88138e-186
-2.43948e-188
-1.89994e-174
-2.82971e-176
-1.14729e-162
-1.96654e-164
-2.74398e-151
-5.42264e-153
-7.65041e-140
-1.74577e-141
-8.81608e-129
-2.32543e-130
-2.92322e-118
-8.91876e-120
-4.80087e-108
-1.69474e-109
-8.12402e-98
-3.31775e-99
-1.99048e-87
-9.39913e-89
-1.69232e-77
-9.23152e-79
-2.00723e-68
-1.26327e-69
-1.77367e-58
-1.28587e-59
-8.66081e-53
-7.21905e-54
-2.23162e-47
-2.13387e-48
-3.4083e-42
-3.7291e-43
-2.73403e-37
-3.41253e-38
-9.79956e-33
-1.39046e-33
-1.20751e-28
-1.936e-29
-7.14104e-25
-1.28399e-25
-3.67256e-21
-7.28816e-22
-1.69553e-20
-3.7993e-21
-1.23002e-20
-3.59958e-21
-7.33012e-21
-3.5631e-21
-7.08711e-17
-7.25692e-17
1.31128e-07
5.98982e-09
2.45688e-07
-1.27018e-09
5.55757e-07
1.37398e-08
8.77161e-07
1.0598e-07
8.11312e-07
9.54751e-08
7.36e-07
9.28166e-08
6.73749e-07
7.53108e-08
6.34428e-07
4.6632e-08
6.00176e-07
4.04259e-08
5.58908e-07
5.22783e-08
5.18289e-07
5.41217e-08
4.86547e-07
4.33055e-08
4.63434e-07
3.15696e-08
4.43766e-07
2.71289e-08
4.20773e-07
3.16383e-08
3.96413e-07
3.32409e-08
3.78652e-07
2.38017e-08
3.71698e-07
8.65628e-09
3.71261e-07
-1.35163e-09
3.71807e-07
-3.08498e-09
3.70293e-07
7.633e-10
3.67395e-07
4.13649e-09
3.62964e-07
7.039e-09
3.5757e-07
8.96952e-09
3.51873e-07
9.72121e-09
3.47177e-07
8.27747e-09
3.46467e-07
2.54197e-09
3.50666e-07
-4.89872e-09
3.5899e-07
-1.14209e-08
3.69819e-07
-1.54433e-08
3.81026e-07
-1.66016e-08
3.89836e-07
-1.40272e-08
3.95694e-07
-6.99706e-09
4.04002e-07
-8.57816e-09
4.16833e-07
-1.61426e-08
4.31823e-07
-2.21603e-08
4.48579e-07
-2.55305e-08
4.65526e-07
-2.59802e-08
4.81681e-07
-2.40056e-08
4.95094e-07
-1.94495e-08
5.02343e-07
-9.68015e-09
4.99291e-07
5.89314e-09
4.85939e-07
2.15408e-08
4.6675e-07
3.02252e-08
4.45221e-07
3.23941e-08
4.26149e-07
2.76909e-08
4.11694e-07
2.01433e-08
4.01179e-07
1.35684e-08
3.93142e-07
8.99566e-09
3.87611e-07
4.59564e-09
3.8638e-07
-1.20144e-09
3.86086e-07
-1.72599e-09
3.79343e-07
8.25686e-09
3.62871e-07
2.21127e-08
3.4091e-07
2.97614e-08
3.16567e-07
3.2696e-08
2.92262e-07
3.29146e-08
2.70847e-07
2.96903e-08
2.53104e-07
2.53805e-08
2.35497e-07
2.51074e-08
2.16525e-07
2.6393e-08
1.98365e-07
2.49966e-08
1.80677e-07
1.76175e-08
1.61929e-07
1.2292e-08
1.39259e-07
9.62804e-09
1.26269e-07
1.01836e-08
1.16799e-07
1.02998e-08
1.1009e-07
1.20807e-08
1.04254e-07
9.98575e-09
9.73234e-08
5.31205e-09
8.67715e-08
4.35518e-09
7.89713e-08
2.84608e-09
7.6772e-08
2.54942e-09
7.64057e-08
2.64189e-09
7.86542e-08
1.72879e-09
8.16164e-08
5.47686e-10
8.40592e-08
2.56262e-10
8.43773e-08
1.47407e-09
8.3682e-08
1.17142e-09
8.53605e-08
-1.44797e-09
8.98358e-08
-5.00726e-09
9.46296e-08
-5.69227e-09
9.95737e-08
-6.27294e-09
1.05917e-07
-9.20675e-09
1.14118e-07
-1.19558e-08
1.2337e-07
-1.34791e-08
1.32385e-07
-1.29222e-08
1.40165e-07
-1.06051e-08
1.46274e-07
-7.55993e-09
1.51472e-07
-6.05429e-09
1.56318e-07
-5.60878e-09
1.61057e-07
-5.62333e-09
1.66851e-07
-7.22127e-09
1.74739e-07
-1.03983e-08
1.84216e-07
-1.29392e-08
1.93352e-07
-1.28297e-08
2.01342e-07
-1.14404e-08
2.08987e-07
-1.09607e-08
2.17063e-07
-1.14362e-08
2.25322e-07
-1.15418e-08
2.33088e-07
-1.06685e-08
2.39798e-07
-8.87942e-09
2.44633e-07
-5.85602e-09
2.46738e-07
-1.53065e-09
2.46321e-07
2.64812e-09
2.44338e-07
5.12973e-09
2.44054e-07
3.16555e-09
2.46235e-07
-1.94672e-10
2.47816e-07
-2.60719e-11
2.46421e-07
3.27914e-09
2.41804e-07
7.137e-09
2.35657e-07
8.96031e-09
2.29708e-07
8.39274e-09
2.2514e-07
6.07034e-09
2.22284e-07
3.26405e-09
2.20587e-07
1.48416e-09
2.18638e-07
1.81154e-09
2.14697e-07
4.54323e-09
2.0772e-07
8.55547e-09
1.98749e-07
1.11616e-08
1.89754e-07
1.12982e-08
1.81415e-07
1.06027e-08
1.73093e-07
1.06367e-08
1.65348e-07
9.99879e-09
1.57851e-07
9.79128e-09
1.49506e-07
1.09332e-08
1.40556e-07
1.16011e-08
1.32089e-07
1.06237e-08
1.24604e-07
8.83909e-09
1.18058e-07
7.17686e-09
1.12116e-07
6.20033e-09
1.06573e-07
5.78915e-09
1.01692e-07
5.30675e-09
9.71917e-08
5.52657e-09
9.1633e-08
7.52379e-09
8.43717e-08
1.01569e-08
7.70019e-08
1.04988e-08
7.12897e-08
8.3145e-09
6.78435e-08
5.10804e-09
6.69374e-08
1.56072e-09
6.78237e-08
-9.93112e-10
6.79567e-08
-1.04951e-09
6.67569e-08
6.95634e-10
6.31685e-08
2.75486e-09
5.90121e-08
2.54225e-09
5.69555e-08
1.99257e-09
5.52045e-08
2.10082e-09
5.43943e-08
2.02276e-09
5.43171e-08
1.61805e-09
5.4186e-08
1.40213e-09
5.46724e-08
5.74359e-10
5.63913e-08
-1.13214e-09
5.91162e-08
-3.55586e-09
6.18306e-08
-4.76957e-09
6.44919e-08
-4.85327e-09
6.6352e-08
-3.75731e-09
6.53366e-08
-7.76601e-10
6.10615e-08
2.1525e-09
5.28408e-08
5.7385e-09
4.0693e-08
9.24831e-09
2.57261e-08
1.18437e-08
7.0164e-09
1.49468e-08
-1.68527e-08
1.94762e-08
-5.11708e-08
3.11184e-08
-9.45298e-08
5.72051e-08
-1.41896e-07
6.62575e-08
-1.9128e-07
7.19423e-08
-2.53145e-07
8.20573e-08
-3.27349e-07
1.12126e-07
-4.05424e-07
1.24448e-07
1.29861e-07
0
0
0
0
0
0
0
0
0
0
0
0
0
0
0
0
0
0
0
0
0
0
0
0
0
0
0
0
0
0
0
0
0
0
0
0
0
0
0
0
0
0
0
0
0
0
0
0
0
0
0
0
0
0
0
0
0
0
0
0
0
0
0
0
0
0
0
0
0
0
0
0
0
0
0
0
0
0
0
0
0
0
0
0
0
0
-0
0
-4.7395e-314
-2.08831e-316
-2.10908e-301
-1.0398e-303
-1.44344e-288
-7.97678e-291
-6.41676e-276
-3.98144e-278
-1.86792e-263
-1.3033e-265
-2.70243e-250
-2.12337e-252
-1.20005e-237
-1.06323e-239
-2.47269e-225
-2.47329e-227
-4.3107e-213
-4.87313e-215
-4.98494e-200
-6.37536e-202
-1.63983e-187
-2.37472e-189
-1.72884e-175
-2.83705e-177
-1.0881e-163
-2.0247e-165
-2.70813e-152
-5.71692e-154
-7.84529e-141
-1.87966e-142
-9.37899e-130
-2.55104e-131
-3.22182e-119
-9.94967e-121
-5.47569e-109
-1.91995e-110
-9.5815e-99
-3.81375e-100
-2.42663e-88
-1.09606e-89
-2.13282e-78
-1.09254e-79
-2.61672e-69
-1.5189e-70
-2.39445e-59
-1.57319e-60
-1.21255e-53
-9.00483e-55
-3.24577e-48
-2.72016e-49
-5.15938e-43
-4.87118e-44
-4.31476e-38
-4.5822e-39
-1.61431e-33
-1.92673e-34
-2.07367e-29
-2.78305e-30
-1.27337e-25
-1.9299e-26
-6.70576e-22
-1.15919e-22
-3.75833e-21
-7.5733e-22
-5.91882e-21
-1.44534e-21
-7.32327e-21
-2.27108e-21
-7.3539e-17
-3.1311e-17
5.46808e-09
5.21624e-10
4.01635e-09
1.78823e-10
1.76666e-08
1.00208e-10
1.57074e-07
7.62315e-09
2.59339e-07
-4.17846e-09
5.8407e-07
4.54581e-09
8.56753e-07
5.77674e-08
6.58849e-07
3.16363e-08
6.21998e-07
9.90399e-09
8.421e-07
5.5814e-08
8.05515e-07
1.02389e-07
7.58112e-07
9.07091e-08
7.2916e-07
6.05216e-08
7.00164e-07
5.61252e-08
6.42715e-07
8.90869e-08
5.85468e-07
9.0488e-08
5.50394e-07
5.8876e-08
5.38975e-07
1.96261e-08
5.43547e-07
-8.913e-09
5.55996e-07
-1.02422e-08
5.47222e-07
1.03318e-08
5.07448e-07
1.86634e-08
4.52298e-07
1.37668e-08
4.41583e-07
1.07928e-08
4.51554e-07
8.27996e-09
4.73229e-07
8.6793e-09
4.9114e-07
-3.68852e-10
5.03178e-07
-1.38057e-08
5.17576e-07
-2.58184e-08
5.3398e-07
-3.18471e-08
5.42036e-07
-2.46686e-08
2.93428e-07
-1.15042e-08
3.53323e-07
-8.27656e-09
5.86157e-07
-2.01949e-08
6.08853e-07
-3.42271e-08
6.25052e-07
-3.85115e-08
5.98777e-07
-4.50158e-08
6.10847e-07
-4.58206e-08
6.78854e-07
-4.64811e-08
7.07522e-07
-4.28459e-08
7.25869e-07
-2.59906e-08
7.51697e-07
-4.83807e-09
7.51784e-07
2.14541e-08
7.19711e-07
4.14764e-08
6.96359e-07
5.1532e-08
6.76473e-07
4.3378e-08
6.78148e-07
3.23963e-08
6.65686e-07
2.60304e-08
6.10369e-07
2.44091e-08
5.82515e-07
2.19104e-08
6.02006e-07
7.10055e-09
6.28261e-07
-7.25856e-09
6.269e-07
9.61779e-09
6.00675e-07
4.83376e-08
3.82793e-07
5.47986e-08
3.05387e-07
3.91879e-08
3.6261e-07
2.11004e-08
3.11185e-07
1.92291e-08
2.10202e-07
1.60775e-08
1.56821e-07
2.49221e-09
1.64791e-07
1.13688e-09
1.61318e-07
9.63786e-10
1.57192e-07
7.9665e-10
1.56779e-07
2.22037e-09
1.04568e-07
9.88764e-09
4.34255e-08
1.98324e-09
2.37183e-08
-3.34391e-10
2.7097e-08
-6.55578e-10
2.76127e-08
1.09972e-10
4.56675e-08
-1.81492e-10
4.31919e-08
2.81362e-09
2.7039e-08
-5.12565e-10
1.023e-08
2.4773e-10
7.33508e-09
-3.69699e-10
7.72097e-09
-2.0449e-10
7.51689e-09
-1.15504e-11
7.86941e-09
-3.93507e-12
8.33467e-09
-1.44673e-10
3.73395e-08
-2.61049e-11
7.37957e-08
-9.56083e-11
7.1936e-08
-1.65848e-09
7.47428e-08
-1.48497e-09
9.58833e-08
-1.29848e-09
1.27516e-07
-6.12133e-10
1.39902e-07
-5.66498e-11
1.41189e-07
-1.959e-10
1.4018e-07
-1.78911e-12
1.07741e-07
-5.89438e-09
1.25049e-07
-5.26557e-09
1.72762e-07
-5.06121e-09
2.14139e-07
-3.34824e-09
2.30234e-07
-2.1165e-09
2.45766e-07
-4.39237e-09
2.593e-07
-1.75982e-08
2.71871e-07
-2.55109e-08
2.79175e-07
-2.30867e-08
2.86692e-07
-1.37769e-08
2.98076e-07
-1.52067e-08
3.08898e-07
-2.08494e-08
3.1898e-07
-2.16236e-08
3.29235e-07
-2.09231e-08
3.40446e-07
-2.00904e-08
3.52144e-07
-1.75543e-08
3.62461e-07
-1.18475e-08
3.68687e-07
-3.57827e-09
3.71055e-07
2.76205e-09
3.76776e-07
-2.55607e-09
3.88759e-07
-1.21773e-08
3.99887e-07
-1.11535e-08
4.05498e-07
-2.33271e-09
4.03496e-07
9.13937e-09
3.97017e-07
1.54393e-08
3.91134e-07
1.42754e-08
3.87926e-07
9.2789e-09
3.86977e-07
4.21316e-09
3.86846e-07
1.61472e-09
3.84758e-07
3.90022e-09
3.77941e-07
1.13599e-08
3.63698e-07
2.27984e-08
3.44651e-07
3.02087e-08
3.25619e-07
3.03297e-08
3.09232e-07
2.69902e-08
2.9336e-07
2.65086e-08
2.81461e-07
2.18972e-08
2.73331e-07
1.79216e-08
2.62183e-07
2.20813e-08
2.44503e-07
2.15607e-08
2.20471e-07
1.92763e-08
2.00687e-07
1.48206e-08
1.85074e-07
1.09611e-08
1.69036e-07
9.03297e-09
1.48106e-07
8.5321e-09
1.19249e-07
5.58184e-09
8.10151e-08
2.15561e-09
7.20936e-08
9.44596e-10
7.68411e-08
3.37659e-09
8.84764e-08
3.46988e-09
8.6112e-08
3.68419e-09
7.90273e-08
2.38983e-09
7.09814e-08
1.12472e-09
5.78706e-08
3.60728e-10
3.36373e-08
4.78979e-10
1.13095e-08
-1.45841e-10
9.43528e-09
-6.97602e-10
9.29765e-09
-6.28704e-10
7.74862e-09
-5.1981e-10
5.89862e-09
-4.81175e-10
5.33417e-09
-3.61679e-10
5.88682e-09
-3.06731e-10
9.7574e-09
-6.38409e-11
1.979e-08
-8.50864e-10
3.8339e-08
-9.80361e-10
5.53217e-08
-1.58365e-09
6.15065e-08
-1.82967e-09
6.46796e-08
-2.70597e-09
6.0567e-08
-3.19719e-09
4.40073e-08
-2.2932e-10
2.5308e-08
3.46621e-10
1.55625e-08
3.72538e-10
1.24474e-08
4.05468e-10
9.27028e-09
5.52644e-10
4.44111e-09
3.12558e-10
-2.06581e-09
1.2288e-10
-1.88459e-08
3.89534e-10
-1.63626e-07
2.3442e-08
-2.60109e-07
8.54524e-08
-2.81056e-07
7.79638e-08
-3.85536e-07
9.49392e-08
-5.53051e-07
2.04943e-07
-6.46236e-07
2.17632e-07
2.16936e-07
0
0
0
0
0
0
0
0
0
0
0
0
0
0
0
0
0
0
0
0
0
0
0
0
0
0
0
0
0
0
0
0
0
0
0
0
0
0
0
0
0
0
0
0
0
0
0
0
0
0
0
0
0
0
0
0
0
0
0
0
0
0
0
0
0
0
0
0
0
0
0
0
0
0
0
0
0
0
0
0
0
0
0
0
0
0
-0
0
-3.05308e-315
-1.52071e-317
-1.42742e-302
-7.95911e-305
-1.02532e-289
-6.40785e-292
-4.77787e-277
-3.35048e-279
-1.45578e-264
-1.14662e-266
-2.20087e-251
-1.9487e-253
-1.01941e-238
-1.01543e-240
-2.18661e-226
-2.45186e-228
-3.95988e-214
-5.00091e-216
-4.74632e-201
-6.75346e-203
-1.61454e-188
-2.58895e-190
-1.75595e-176
-3.17345e-178
-1.1373e-164
-2.31639e-166
-2.90577e-153
-6.66828e-155
-8.62083e-142
-2.22813e-143
-1.05307e-130
-3.06357e-132
-3.68861e-120
-1.20685e-121
-6.38063e-110
-2.34547e-111
-1.13465e-99
-4.68018e-101
-2.91699e-89
-1.34818e-90
-2.60068e-79
-1.34467e-80
-3.23614e-70
-1.86867e-71
-3.00471e-60
-1.93434e-61
-1.54555e-54
-1.10747e-55
-4.20971e-49
-3.35285e-50
-6.8266e-44
-6.03752e-45
-5.84495e-39
-5.73821e-40
-2.24989e-34
-2.45322e-35
-2.99383e-30
-3.63175e-31
-1.92414e-26
-2.60431e-27
-1.07739e-22
-1.63418e-23
-7.50654e-22
-1.28186e-22
-1.84918e-21
-3.58176e-22
-3.40792e-21
-7.49355e-22
-3.18038e-17
-6.27173e-18
4.88326e-10
3.32812e-11
6.39237e-10
2.78965e-11
6.91738e-10
4.82703e-11
7.55824e-09
7.67131e-10
3.38755e-09
-1.16914e-11
7.95913e-09
-1.28577e-11
9.00235e-08
6.58467e-09
1.00738e-07
-1.12722e-09
8.02277e-08
-3.89615e-09
1.42722e-07
-8.51937e-10
3.70362e-07
-3.00273e-10
5.38418e-07
7.4971e-10
3.903e-07
1.81687e-09
2.83708e-07
-9.48985e-10
3.81084e-07
4.84601e-09
6.85109e-07
3.53266e-08
7.41458e-07
5.29474e-08
7.62612e-07
-1.97617e-09
4.51413e-07
-1.01532e-08
1.06132e-09
-3.07653e-09
1.79328e-08
-1.19064e-09
2.34068e-08
-4.90288e-11
1.40011e-08
-2.75618e-11
5.83611e-09
-1.82359e-11
2.33107e-09
-8.94522e-12
1.10141e-08
-1.95609e-12
2.14244e-07
-8.59929e-14
5.4523e-07
-3.21566e-13
5.50413e-07
-1.36013e-13
4.81146e-07
-1.71519e-12
2.15913e-07
-1.55103e-12
7.93724e-08
-2.2745e-12
2.43835e-07
-4.96766e-12
6.33642e-07
-7.13061e-12
6.2874e-07
-4.08648e-12
5.39388e-07
-2.57577e-12
5.10759e-07
-4.98089e-12
5.70837e-07
-5.84151e-12
6.11217e-07
-3.90768e-12
5.09082e-07
-1.34988e-12
9.0847e-08
-4.01472e-13
2.08695e-08
-9.28165e-14
2.22062e-07
-2.03337e-12
1.00337e-06
8.08795e-09
1.073e-06
6.66142e-08
1.04358e-06
6.34126e-08
1.03475e-06
3.76057e-08
1.02654e-06
2.93684e-08
9.95395e-07
4.92294e-08
9.48093e-07
6.56408e-08
9.20698e-07
3.09338e-08
2.3921e-07
-7.79554e-09
3.65114e-07
-3.00083e-09
8.73663e-07
5.38986e-08
6.51538e-07
8.62788e-08
1.41035e-07
6.25744e-08
-6.75754e-09
1.21777e-08
2.56109e-08
4.5381e-09
4.38939e-08
6.56949e-10
4.64971e-08
-8.67807e-10
4.37766e-08
4.85649e-10
3.48979e-08
2.69638e-11
1.60729e-08
5.79622e-11
4.81928e-09
-3.37985e-10
1.41664e-08
8.75641e-11
1.04744e-07
3.01853e-09
9.20317e-08
1.86109e-08
9.17107e-08
5.91005e-09
3.3217e-08
-5.76097e-09
1.81238e-09
-5.92842e-10
4.59874e-09
6.44349e-12
4.62827e-08
4.90925e-13
4.57823e-08
2.5581e-09
4.65729e-08
6.48532e-10
1.59257e-08
6.21281e-11
2.29008e-09
-1.43689e-10
4.21521e-09
1.4126e-11
2.46978e-09
4.84242e-10
8.33934e-10
-1.2933e-10
1.21891e-09
-4.51963e-10
2.22204e-10
-1.20014e-10
5.81357e-11
-5.15928e-10
5.15128e-11
-9.29434e-10
2.98757e-12
-5.1658e-10
2.48729e-12
-6.13597e-11
2.50543e-12
-1.95279e-10
2.25772e-12
-1.29563e-12
7.12621e-09
-1.11126e-11
7.00695e-09
-2.91037e-12
2.25488e-09
-5.47703e-13
1.20741e-09
-6.53524e-10
2.21677e-09
-1.43826e-09
6.06552e-08
-1.63207e-09
2.74962e-07
-2.59073e-09
2.40783e-07
-3.24274e-11
1.02015e-07
-2.83637e-11
1.1822e-07
-7.87707e-13
2.26109e-07
-1.02957e-14
2.83258e-07
-2.1222e-13
2.67992e-07
-4.78728e-13
2.6585e-07
-5.75851e-14
2.71862e-07
-1.29621e-15
2.60637e-07
-6.74973e-16
2.49411e-07
-5.96447e-16
2.73827e-07
-9.57598e-16
3.52563e-07
-1.0428e-13
4.12609e-07
-1.74803e-13
4.9411e-07
-1.90333e-08
5.38234e-07
-4.6311e-08
5.3489e-07
-1.17051e-08
5.23321e-07
1.20763e-08
5.31119e-07
9.07055e-09
5.53256e-07
5.36977e-09
5.58992e-07
3.75707e-09
5.30392e-07
-1.21773e-10
5.17099e-07
-5.89563e-09
5.23023e-07
-5.71273e-09
5.76613e-07
4.28783e-09
5.75227e-07
2.81211e-08
5.45478e-07
5.99573e-08
3.33305e-07
4.08954e-08
2.96179e-07
1.50971e-08
2.89731e-07
2.01751e-08
2.35756e-07
1.062e-08
1.55446e-07
-2.69214e-10
1.89258e-07
2.85709e-11
2.29635e-07
1.59322e-09
1.99229e-07
4.87193e-09
1.28908e-07
3.40082e-09
5.16926e-08
-7.45771e-11
2.46881e-08
-1.2189e-09
1.91511e-08
-8.25264e-10
1.49506e-08
-9.46161e-10
8.71443e-09
-7.86616e-10
4.87005e-09
3.77632e-10
4.31671e-09
-1.2759e-10
3.80959e-09
-1.64e-10
3.45832e-09
-4.15729e-11
3.2665e-09
-1.20789e-09
2.24759e-09
-3.82592e-10
3.34626e-10
-4.42137e-11
1.27383e-10
-1.13654e-11
1.21295e-10
-6.52729e-13
9.79304e-11
-1.09843e-11
4.1662e-11
3.67162e-11
-4.56667e-12
5.51284e-11
-9.0611e-11
7.58274e-11
-1.86442e-10
6.44525e-11
-2.13144e-10
7.60394e-12
-1.53087e-10
-1.98701e-12
-1.16478e-10
-1.80061e-13
-1.10068e-10
-5.49557e-10
-9.35695e-11
-1.35021e-09
-6.20707e-11
-2.32885e-09
-1.27321e-11
-3.55513e-09
4.77725e-11
-4.31035e-09
7.81657e-11
-5.26765e-10
1.042e-10
-7.52139e-11
9.82204e-11
-3.91611e-11
8.44802e-11
-1.68149e-13
7.2234e-11
-2.25764e-12
3.66491e-11
3.42888e-11
6.08747e-11
-4.01872e-11
7.11473e-10
-3.228e-10
-6.00648e-09
-2.14434e-09
-1.948e-08
-7.37273e-09
-4.25511e-08
7.7881e-09
-4.63115e-07
8.05434e-08
-7.94268e-07
3.25787e-07
-8.82339e-07
3.05703e-07
3.06957e-07
0
0
0
0
0
0
0
0
0
0
0
0
0
0
0
0
0
0
0
0
0
0
0
0
0
0
0
0
0
0
0
0
0
0
0
0
0
0
0
0
0
0
0
0
0
0
0
0
0
0
0
0
0
0
0
0
0
0
0
0
0
0
0
0
0
0
0
0
0
0
0
0
0
0
0
0
0
0
0
0
0
0
0
0
0
0
0
0
-2.20648e-316
-1.15914e-318
-1.08026e-303
-6.34888e-306
-8.11191e-291
-5.33796e-293
-3.94444e-278
-2.90815e-280
-1.25163e-265
-1.0345e-267
-1.9665e-252
-1.82295e-254
-9.44535e-240
-9.82365e-242
-2.09617e-227
-2.44656e-229
-3.91841e-215
-5.13297e-217
-4.83636e-202
-7.11067e-204
-1.68999e-189
-2.78845e-191
-1.88344e-177
-3.48671e-179
-1.24691e-165
-2.589e-167
-3.2484e-154
-7.56107e-156
-9.80261e-143
-2.55622e-144
-1.21511e-131
-3.54707e-133
-4.30939e-121
-1.40687e-122
-7.53207e-111
-2.74695e-112
-1.35085e-100
-5.4964e-102
-3.49695e-90
-1.58511e-91
-3.13558e-80
-1.58077e-81
-3.92111e-71
-2.19462e-72
-3.65807e-61
-2.26861e-62
-1.89157e-55
-1.29718e-56
-5.18669e-50
-3.92496e-51
-8.48876e-45
-7.07402e-46
-7.36447e-40
-6.74532e-41
-2.88866e-35
-2.90301e-36
-3.94721e-31
-4.3463e-32
-2.62957e-27
-3.16874e-28
-1.54383e-23
-2.03463e-24
-1.28186e-22
-1.84628e-23
-4.2386e-22
-6.67043e-23
-1.01117e-21
-1.73571e-22
-6.45083e-18
-1.02232e-18
3.14499e-11
1.83154e-12
5.73188e-11
1.9953e-12
1.01891e-10
3.76265e-12
8.26001e-10
4.34234e-11
7.95926e-10
1.82956e-11
7.60704e-10
2.31106e-11
6.8811e-09
4.73683e-10
5.69604e-09
5.4885e-11
2.14321e-09
-3.4803e-10
1.33467e-09
-4.51249e-11
1.01142e-09
2.39655e-11
1.30227e-09
6.68211e-11
1.36308e-09
-1.44904e-10
4.8876e-10
-8.59896e-11
5.35542e-09
-2.16839e-11
8.05526e-08
-4.97005e-11
1.08031e-07
-7.30306e-12
6.84258e-08
-8.94111e-13
1.90317e-08
8.74713e-12
1.29242e-09
-1.78667e-11
1.02455e-10
-3.77549e-13
5.39407e-11
-7.64332e-13
2.63418e-11
-1.28731e-13
8.81109e-12
-2.89787e-13
3.36645e-13
-1.3637e-13
1.85103e-13
-1.6952e-14
3.79802e-14
4.54115e-15
3.24901e-14
-3.52429e-13
3.13824e-14
-1.90958e-13
3.91717e-14
-1.75217e-12
4.12676e-14
-1.55261e-12
5.05657e-14
-2.25924e-12
7.46099e-14
-4.90742e-12
1.10261e-13
-6.91485e-12
1.2705e-13
-3.23754e-12
1.45189e-13
-3.92617e-14
1.79703e-13
-2.53758e-14
2.13066e-13
-3.25558e-14
2.28878e-13
-3.80039e-14
2.05571e-13
2.48547e-15
6.85103e-14
-8.68049e-14
3.53449e-14
-5.71134e-14
3.0661e-13
-2.3046e-12
8.08866e-09
-3.85966e-13
5.00431e-07
-1.89161e-09
1.2962e-06
2.03476e-08
1.16929e-06
2.936e-09
1.14139e-06
-4.74168e-09
1.49322e-06
8.32309e-09
1.522e-06
1.44027e-07
1.41023e-06
1.39193e-07
1.17038e-07
2.07881e-08
8.35384e-08
-3.10309e-08
7.9533e-08
-3.58345e-09
9.60646e-07
3.34457e-09
9.25352e-07
1.48919e-07
8.49422e-07
1.39457e-07
8.50868e-07
5.42477e-08
4.31549e-07
-2.24125e-08
3.22213e-08
-2.24541e-08
4.65145e-08
-1.72012e-08
6.68449e-08
-3.41983e-08
2.95933e-08
-3.47221e-08
4.0648e-10
-3.80175e-09
4.0506e-10
1.9265e-10
3.29194e-09
2.62909e-11
6.98045e-08
1.45875e-10
1.19977e-07
5.07198e-09
2.23992e-08
-7.91428e-10
3.26118e-11
-2.5032e-11
5.9997e-11
1.02934e-11
1.82505e-09
-8.1123e-11
3.56004e-09
-1.816e-11
4.08202e-09
-4.64492e-12
3.30794e-09
-1.35345e-12
9.03722e-10
-1.29538e-14
9.25533e-10
-2.92445e-13
3.19951e-08
8.10854e-12
5.46625e-08
2.18961e-09
5.2706e-08
1.89943e-09
5.15871e-08
1.39318e-09
4.95839e-08
1.90999e-09
4.65671e-08
2.51792e-09
4.30333e-08
3.49285e-09
1.60758e-08
2.30343e-09
1.72253e-11
4.12988e-10
9.06186e-12
6.7484e-12
9.66547e-13
-3.26453e-12
1.09784e-12
-3.44473e-12
1.28312e-12
-1.14132e-12
9.94265e-10
-3.97483e-13
3.11874e-09
-5.25565e-13
2.59513e-09
-8.39166e-14
9.44516e-12
-3.92217e-12
1.41247e-13
-2.27457e-11
9.78161e-14
-2.83108e-11
2.3574e-14
-7.09134e-13
2.07827e-14
-3.58899e-15
2.33366e-14
-2.12444e-13
2.69368e-14
-4.81837e-13
2.8713e-14
-5.93522e-14
3.04849e-14
-3.068e-15
2.92123e-14
5.97625e-16
2.36151e-14
5.00068e-15
2.25973e-14
6.02601e-17
2.91192e-14
-1.10802e-13
1.65703e-13
-3.10091e-13
1.0145e-07
1.60319e-11
2.21302e-07
-2.11192e-11
1.63844e-07
-3.07694e-13
2.7425e-08
-4.71731e-14
1.23115e-07
-1.27456e-12
5.60607e-07
-1.37197e-12
7.64978e-07
-1.73173e-08
7.9067e-07
-1.78554e-08
7.99535e-07
-7.38473e-09
8.0153e-07
-8.94146e-10
3.94468e-07
-3.80567e-10
4.27064e-07
-1.55629e-09
5.56235e-07
-1.78727e-10
3.24767e-07
5.27983e-08
7.17951e-09
8.828e-09
2.78062e-08
-1.71563e-08
3.27439e-08
-1.08543e-08
2.89675e-08
-3.60626e-08
2.17591e-08
-3.70792e-08
2.09356e-08
-2.66819e-09
1.53615e-08
-7.41302e-10
9.83091e-09
-1.63611e-10
6.78676e-09
-1.15307e-09
4.68129e-09
-4.94694e-09
3.87527e-09
-3.37155e-09
4.10906e-09
-3.19435e-09
4.7754e-09
-2.62858e-09
5.12754e-09
-1.32621e-09
4.24689e-08
9.07793e-12
4.03439e-08
2.89291e-09
4.06444e-08
7.09509e-10
3.78607e-09
-4.84611e-10
1.49059e-10
-1.2357e-09
2.15437e-09
2.36451e-10
1.92975e-09
8.73736e-11
3.41489e-10
-4.59677e-10
1.68641e-10
1.13379e-10
1.36567e-10
2.1668e-11
1.0137e-10
4.32036e-11
8.19372e-11
4.81388e-11
8.08184e-11
1.61376e-11
1.63927e-10
-1.29403e-10
3.6386e-10
-2.38621e-10
2.46782e-08
-2.34436e-10
8.19492e-08
-1.9198e-09
8.41615e-08
-1.39769e-10
8.68741e-08
-1.93266e-09
9.37605e-08
-7.63549e-09
4.02581e-08
-1.00495e-08
-2.6793e-09
-5.73144e-09
4.92957e-09
-5.56734e-09
5.88771e-09
-4.24417e-09
1.82819e-09
-1.6868e-09
7.05425e-10
4.23595e-10
3.87039e-10
3.88209e-11
2.00567e-08
1.21409e-09
2.27173e-08
5.74098e-09
1.57107e-08
4.77203e-09
6.54021e-09
-9.23801e-10
1.4764e-08
-8.38107e-10
4.75988e-09
-7.29641e-09
-1.02894e-07
1.01661e-08
-2.07723e-07
3.46494e-08
4.18932e-08
0
0
0
0
0
0
0
0
0
0
0
0
0
0
0
0
0
0
0
0
0
0
0
0
0
0
0
0
0
0
0
0
0
0
0
0
0
0
0
0
0
0
0
0
0
0
0
0
0
0
0
0
0
0
0
0
0
0
0
0
0
0
0
0
0
0
0
0
0
0
0
0
0
0
0
0
0
0
0
0
0
0
0
0
0
0
0
0
-1.66154e-317
-8.69358e-320
-8.49129e-305
-4.96619e-307
-6.6415e-292
-4.34391e-294
-3.35606e-279
-2.45567e-281
-1.10405e-266
-9.0399e-269
-1.79398e-253
-1.64396e-255
-8.88972e-241
-9.11749e-243
-2.03038e-228
-2.33047e-230
-3.89657e-216
-5.00436e-218
-4.92563e-203
-7.07617e-205
-1.75855e-190
-2.82478e-192
-1.99763e-178
-3.58599e-180
-1.34484e-166
-2.69621e-168
-3.55448e-155
-7.95269e-157
-1.08577e-143
-2.70863e-145
-1.35949e-132
-3.77766e-134
-4.8605e-122
-1.5027e-123
-8.54902e-112
-2.937e-113
-1.54058e-101
-5.87309e-103
-4.00233e-91
-1.69057e-92
-3.59838e-81
-1.68134e-82
-4.50984e-72
-2.32687e-73
-4.2165e-62
-2.39778e-63
-2.18599e-56
-1.36736e-57
-6.01535e-51
-4.12995e-52
-9.896e-46
-7.44056e-47
-8.65061e-41
-7.10562e-42
-3.43022e-36
-3.07012e-37
-4.75943e-32
-4.62862e-33
-3.23574e-28
-3.40889e-29
-1.95094e-24
-2.21918e-25
-1.86496e-23
-2.28199e-24
-7.63646e-23
-1.00063e-23
-2.21918e-22
-3.09791e-23
-1.09556e-18
-1.54871e-19
1.75787e-12
7.32078e-14
3.65224e-12
1.0297e-13
7.21837e-12
2.00958e-13
4.83091e-11
2.3629e-12
6.53051e-11
1.31183e-12
8.67165e-11
1.69388e-12
5.378e-10
2.38676e-11
5.88557e-10
6.9972e-12
2.5289e-10
-1.2568e-11
2.12165e-10
-4.93947e-12
2.36294e-10
-4.58024e-13
2.99534e-10
3.36606e-12
1.61206e-10
-7.09523e-12
7.56174e-11
-5.98831e-12
5.82285e-11
-4.46693e-12
9.36898e-12
-8.17035e-13
2.04679e-12
-7.8781e-14
9.12718e-13
-1.84918e-14
1.06788e-11
-1.54016e-12
1.45927e-12
-1.50576e-13
1.25132e-12
-8.45825e-14
3.26224e-13
-3.73312e-14
1.27265e-13
-3.81347e-16
1.29852e-13
8.25675e-15
1.49233e-13
8.8356e-15
2.51367e-12
2.7319e-13
2.446e-12
2.37621e-14
8.89004e-11
3.45768e-12
7.94784e-11
9.23482e-12
6.78471e-11
9.87895e-12
5.74246e-11
8.86988e-12
4.79635e-11
7.20189e-12
3.77845e-11
5.27155e-12
2.88846e-11
1.98505e-12
6.61071e-13
6.73725e-13
-2.91896e-14
1.63203e-14
1.49388e-13
2.14422e-14
1.54379e-13
-5.03234e-14
1.72144e-13
-2.22982e-13
2.95524e-13
-5.52295e-14
5.55011e-13
3.92474e-13
2.673e-12
-4.44942e-13
4.11936e-12
-3.66396e-12
8.588e-12
-4.71479e-12
1.04999e-08
-5.51501e-11
6.49518e-08
6.42487e-12
6.1878e-08
6.11069e-11
2.74035e-08
5.19177e-11
9.98444e-09
-1.13432e-10
1.54015e-07
-4.11548e-12
1.34956e-06
1.28239e-08
1.78405e-06
9.02746e-08
1.01725e-06
-1.86883e-09
-7.98173e-08
-4.17368e-09
9.81259e-08
-7.30225e-10
6.90388e-07
8.76301e-09
1.35739e-06
5.06889e-08
8.00257e-07
2.38338e-08
2.21802e-07
-9.29309e-09
1.37523e-07
-4.53098e-09
4.12441e-07
-5.53659e-09
4.42166e-07
-1.57175e-09
1.86151e-07
-1.31764e-08
2.23518e-10
-1.40137e-10
1.79824e-10
1.30988e-10
9.26409e-11
5.33989e-11
1.0654e-10
7.23488e-11
1.30138e-09
6.50459e-11