/*--------------------------------*- C++ -*----------------------------------*\
| =========                 |                                                 |
| \\      /  F ield         | OpenFOAM: The Open Source CFD Toolbox           |
|  \\    /   O peration     | Version:  2406                                  |
|   \\  /    A nd           | Website:  www.openfoam.com                      |
|    \\/     M anipulation  |                                                 |
\*---------------------------------------------------------------------------*/
FoamFile
{
    version     2.0;
    format      ascii;
    arch        "LSB;label=32;scalar=64";
    class       volScalarField;
    location    "0.15";
    object      p;
}
// * * * * * * * * * * * * * * * * * * * * * * * * * * * * * * * * * * * * * //

dimensions      [1 -1 -2 0 0 0 0];

internalField   nonuniform List<scalar> 
6250
(
2784.51
3087.51
4111.44
4260.2
4032.85
3931.41
3960.98
4000.5
4007.23
3998.83
3994.37
3995.81
3998.35
3999.58
3999.99
4000.49
4001.26
4002.13
4002.95
4003.73
4004.53
4005.35
4006.18
4007.02
4007.87
4008.74
4009.63
4010.53
4011.46
4012.41
4013.39
4014.39
4015.44
4016.51
4017.64
4018.81
4020.04
4021.33
4022.69
4024.13
4025.66
4027.29
4029.04
4030.92
4032.94
4035.13
4037.51
4040.09
4042.91
4045.98
4049.34
4053.01
4057.03
4061.43
4066.23
4071.46
4077.14
4083.29
4089.89
4096.92
4104.34
4112.06
4119.97
4127.9
4135.63
4142.91
4149.44
4154.87
4158.9
4161.2
4161.53
4159.8
4155.89
4150.7
4140.63
4142.44
4126.97
4159.31
4116.96
3810.07
3311.8
3270.67
3245.16
3261.89
3277.25
3264.2
3250.81
3224.72
3169.58
3107.06
3055.44
3011.06
2964.37
2912.54
2865.23
2832.35
2811.9
2794.14
2767.23
2727.71
2681.48
2635.1
2591.07
2551.9
2520.95
2501.23
2491.78
2488.18
2484.69
2476.83
2461.34
2441.39
2428.46
2425.75
2425.4
2419.9
2405.72
2381.85
2346.26
2295.72
2230.17
2156.93
2089.71
2036.7
1998.41
1970.42
1946.58
1921.98
1894.95
1865.3
1826.69
1773.01
1708.89
1643.69
1579.83
1516.34
1456.79
1402.45
1349.92
1299.42
1253.64
1213.31
1176.84
1137.92
1095.46
1054.62
1020.6
995.553
976.677
959.62
941.612
921.213
900.777
882.114
863.985
844.385
824.449
808.107
796.512
786.481
776.747
768.676
763.785
760.517
756.004
748.446
737.968
727.428
720.854
719.36
721.896
728.597
738.541
749.081
756.796
761.114
763.309
763.625
760.945
754.167
742.601
725.839
704.343
680.107
658.5
643.166
635.275
633.236
636.191
645.975
665.231
695.457
735.76
783.457
835.699
889.004
942.228
995.522
1049.25
1103.38
1156.75
1208.38
1258.3
1305.11
1346.61
1382.66
1414.52
1442.03
1464.02
1479.61
1488.61
1491.16
1486.03
1472.49
1452.01
1426.73
1399
1371.13
1344.3
1317.62
1289.92
1262.39
1236.9
1215.31
1197.58
1184.41
1177.02
1177.03
1186.05
1205.33
1237.11
1279.69
1328.35
1378.59
1426.77
1467.44
1499.01
1520.49
1530.75
1528.8
1512.37
1478.7
1421.59
1338.65
1260
1187.05
1114.49
1044.57
979.811
988.504
2780.71
3082.68
4110.54
4261.09
4032.96
3930.69
3960.27
4000.13
4007.01
3998.59
3994.1
3995.56
3998.13
3999.38
3999.8
4000.3
4001.08
4001.94
4002.76
4003.54
4004.33
4005.14
4005.96
4006.78
4007.62
4008.46
4009.32
4010.19
4011.08
4011.99
4012.92
4013.86
4014.84
4015.84
4016.88
4017.95
4019.07
4020.23
4021.45
4022.73
4024.07
4025.49
4027
4028.61
4030.32
4032.16
4034.14
4036.28
4038.59
4041.1
4043.83
4046.81
4050.06
4053.62
4057.51
4061.77
4066.44
4071.53
4077.08
4083.09
4089.57
4096.49
4103.78
4111.33
4118.99
4126.54
4133.72
4140.18
4145.49
4149.23
4150.98
4150.49
4147.44
4142.67
4135.58
4133.82
4151.15
4196.86
4202.25
4062.37
3893.86
3730.18
3471.97
3433.28
3375.81
3324.81
3348.65
3321.07
3220.61
3140.51
3095.26
3056.15
3008.66
2946.02
2882.04
2837.34
2813.04
2790.96
2764.28
2733.75
2700.87
2656.86
2605.01
2553.82
2512.01
2488.35
2480.56
2479.91
2481.72
2480.68
2464.05
2422.59
2394.08
2397.89
2409.83
2412.18
2402.46
2384.3
2359.35
2318.94
2256.34
2186.06
2126.29
2071.05
2026.66
1996.73
1974.41
1948.19
1916.93
1892.11
1869.2
1831.07
1774.42
1712.44
1636.9
1555.98
1494.21
1448.41
1392.5
1325.46
1266.91
1224.22
1202.94
1172.91
1117.98
1053.46
1005.67
982.033
960.487
943.097
930.589
913.694
893.701
881.11
868.034
842.002
804.71
777.631
770.132
766.328
755.357
743.638
739.469
739.173
736.867
729.845
717.006
700.366
688.495
685.128
689.012
702.193
721.372
738.524
747.895
751.44
753.951
756.216
755.588
750.856
741.061
725.392
703.382
677.044
651.314
632.275
622.394
617.241
613.387
615.649
630.541
660.56
703.2
754.851
812.205
873.445
935.268
994.174
1051.49
1108.9
1164.4
1216
1267.62
1318.12
1360.91
1393.86
1420.19
1441.73
1459.86
1475.62
1488.81
1500.04
1506.79
1500.9
1483.25
1456.14
1422.29
1390.89
1367.4
1349.75
1324.37
1283.15
1233.79
1197.82
1174.05
1154.07
1140.11
1139.97
1153.52
1172.55
1202
1238.89
1284.22
1340.84
1417.35
1491.22
1551.62
1597.68
1622.03
1634.01
1632.03
1606.58
1529.59
1436.83
1364.55
1296.01
1201.11
1096.48
981.892
960.088
2781.55
3084.07
4111.04
4261.07
4032.93
3930.81
3960.47
4000.33
4007.18
3998.75
3994.25
3995.7
3998.26
3999.5
3999.91
4000.4
4001.17
4002.02
4002.83
4003.6
4004.38
4005.18
4005.99
4006.8
4007.63
4008.46
4009.31
4010.16
4011.04
4011.93
4012.83
4013.76
4014.71
4015.69
4016.7
4017.73
4018.81
4019.92
4021.08
4022.29
4023.56
4024.88
4026.28
4027.75
4029.31
4030.96
4032.71
4034.57
4036.55
4038.66
4040.91
4043.3
4045.84
4048.54
4051.41
4054.43
4057.61
4060.93
4064.39
4067.96
4071.61
4075.31
4079.04
4082.76
4086.42
4089.97
4093.35
4096.49
4099.31
4101.79
4103.94
4105.96
4108.3
4111.98
4118.83
4131.04
4149.37
4166.45
4170.91
4098.17
3987.99
3828.09
3547.48
3404
3334.72
3169.52
3256.2
3430.88
3326.35
3154.47
3141.31
3184.88
3117.06
2908.43
2782.78
2787.88
2851.49
2925.52
2933.67
2798.07
2643.58
2583.19
2534.05
2480.54
2422.79
2408.92
2425.99
2450.72
2470.04
2468.77
2431.73
2418.09
2367.11
2395.13
2418.38
2418.08
2418.84
2417.31
2418.64
2395.87
2309.99
2102.2
1953.22
1939.16
1970.75
1995.93
1995.29
1965.66
1934.69
1922.98
1933.72
1850.15
1694.89
1631.99
1620.65
1528.5
1425.06
1380.81
1315.9
1247.43
1203.36
1167.5
1121.38
1024.09
996.848
999.87
996.644
987.59
964.144
905.594
891.523
891.317
891.434
887.092
878.901
866.985
852.505
831.284
801.664
778.685
756.122
739.82
739.743
749.122
751.685
744.006
719.033
704.028
692.518
701.24
693.28
699.849
710.817
736.777
750.931
746.634
747.389
758.758
770.961
777.565
779.929
770.754
738.611
683.207
628.68
598.061
590.056
590.21
585.635
577.523
586.858
628.967
694.655
761.706
821.324
881.199
946.27
1012.04
1082.9
1157.34
1220.76
1273.82
1338.94
1412.93
1467.15
1492.74
1526.3
1561.84
1579.81
1580.84
1577.21
1588.7
1603.19
1591.07
1557.66
1497.8
1437.6
1374.07
1328.33
1284.18
1222.67
1177.14
1160.87
1145.51
1124.85
1103.47
1090.01
1079.8
1072.69
1074.8
1115.2
1206.81
1316.9
1431.15
1558.61
1602.16
1605.67
1608.3
1605.99
1607.25
1602.21
1587.33
1426.5
1236.08
1261.95
1342.17
1226.39
1074.09
933.276
920.327
2780.8
3082.77
4110.23
4260.62
4032.6
3930.49
3960.12
3999.97
4006.86
3998.45
3993.97
3995.43
3998
3999.25
3999.66
4000.16
4000.93
4001.78
4002.59
4003.36
4004.13
4004.92
4005.72
4006.52
4007.33
4008.15
4008.97
4009.8
4010.64
4011.49
4012.36
4013.24
4014.13
4015.05
4015.98
4016.94
4017.92
4018.92
4019.96
4021.04
4022.15
4023.3
4024.5
4025.74
4027.05
4028.41
4029.84
4031.33
4032.91
4034.56
4036.29
4038.11
4040.01
4042
4044.07
4046.21
4048.41
4050.65
4052.91
4055.16
4057.35
4059.42
4061.32
4062.97
4064.28
4065.17
4065.55
4065.37
4064.57
4063.16
4061.2
4058.77
4056.02
4052.94
4049.26
4043.6
4033.59
4011.96
3975.94
3903.9
3837.62
3819.16
3731.67
3569.9
3389.12
3105.98
2882.29
3020.43
3071.46
2985.35
2911.29
2887.32
2820.8
2520.7
2450.7
2655.03
2897.41
2874.6
2687.82
2552.77
2498.42
2480.18
2469.63
2463.93
2462.91
2454.14
2458.28
2497.87
2513.67
2476.65
2463.91
2452.68
2456.28
2508.66
2504.32
2488.82
2501.96
2554.88
2578.8
2544.75
2512.66
2525.8
2356.8
2035.99
1932.43
2007.44
2045.38
1998.47
1938.66
2034.83
2153.45
2144.47
1781.92
1466.23
1325.45
1389.62
1400.34
1379.69
1346.32
1293.53
1233.72
1173.3
1088.77
965.694
904.872
886.115
925.06
941.232
933.183
902.683
877.266
878.703
884.135
879.292
872.539
850.824
809.975
802.19
792.647
779.197
767.324
757.343
749.67
745.014
741.882
739.486
739.558
743.896
751.814
757.968
761.649
766.682
778.608
853.945
831.644
821.842
826.475
855.969
868.844
864.621
861.24
834.583
776.1
701.2
621.787
518.889
512.017
530.964
439.979
362.935
357.746
439.773
528.267
626.039
735.12
855.191
943.636
978.4
1004.47
1115.81
1214.04
1176.92
1251.99
1457.53
1590.85
1508.36
1421.88
1397.09
1401.43
1439.59
1473.38
1509.56
1530.58
1495.17
1467.98
1450.83
1429.86
1402.32
1347.4
1252.65
1188.36
1149.85
1127.86
1112.57
1101.03
1093.02
1089.11
1090.36
1098.81
1114.37
1158.58
1239.38
1344.04
1457.12
1575.06
1624.75
1614.46
1597.46
1578.64
1556.17
1530.55
1509.69
1491.28
1459.58
1402.56
1210.27
604.384
427.236
610.711
814.21
2780.73
3082.76
4110.31
4260.7
4032.65
3930.52
3960.16
4000.03
4006.92
3998.52
3994.03
3995.49
3998.06
3999.3
3999.71
4000.2
4000.96
4001.81
4002.6
4003.36
4004.12
4004.89
4005.67
4006.46
4007.24
4008.03
4008.83
4009.63
4010.43
4011.25
4012.07
4012.9
4013.74
4014.59
4015.45
4016.33
4017.21
4018.12
4019.04
4019.98
4020.95
4021.93
4022.94
4023.97
4025.03
4026.11
4027.22
4028.36
4029.53
4030.73
4031.94
4033.17
4034.42
4035.66
4036.9
4038.11
4039.28
4040.38
4041.37
4042.23
4042.91
4043.34
4043.48
4043.25
4042.56
4041.33
4039.46
4036.81
4033.27
4028.67
4022.83
4015.49
4006.33
3994.81
3980.24
3961.48
3937.29
3905.24
3863.41
3808.01
3737.87
3659.44
3535.48
3434.71
3408.08
3340.34
3183.41
3094.29
3044.93
2939.45
2769.11
2630.66
2599.69
2596.12
2604.07
2653.45
2608.22
2548.85
2513.41
2504.51
2497.02
2489.23
2483.95
2481.15
2480.89
2479.27
2471.18
2466.81
2468.49
2471.45
2472.83
2474.13
2479
2491.16
2501.55
2511.23
2521.97
2535.25
2551.71
2578.55
2587.27
2590.41
2589.41
2479.09
2299.13
2484.84
2605.13
2436.46
1490.25
1229.38
1721.09
2065.41
2178.67
1960.96
1147.41
876.692
1094.96
1194.97
1125.63
1081.39
1047.19
989.983
952.554
951.12
927.918
880.265
903.156
908.056
901.454
903.819
904.729
902.793
898.379
890.264
880.476
872.518
862.607
849.011
812.169
783.348
757.139
743.019
729.699
723.086
735.01
738.992
741.192
743.979
746.696
752.763
771.785
786.753
804.348
824.907
843.341
850.722
856.188
864.542
867.985
858.828
835.181
798.608
761.312
739.706
724.777
691.439
639.718
656.497
478.047
365.95
362.904
423.913
709.208
792.63
701.973
675.951
809.08
1008.06
1043.47
893.723
845.293
1030.91
1223.69
1439.48
1629.63
1657.64
1515.5
1458.86
1460.38
1483.76
1508.52
1526.96
1544.44
1562.33
1565.2
1484.93
1370.48
1280.66
1241.39
1218.15
1196.07
1178.39
1169.03
1155.81
1129.5
1105.85
1087.59
1074.47
1066.53
1065.31
1083.81
1190.3
1297.94
1393.14
1499.21
1541.7
1561.32
1582.26
1601.29
1617.24
1624.89
1618.57
1604.76
1571.55
1467.34
1248.8
883.089
447.269
296.683
155.727
2780.47
3082.33
4110.02
4260.5
4032.44
3930.29
3959.93
3999.81
4006.71
3998.31
3993.82
3995.28
3997.85
3999.1
3999.51
3999.99
4000.75
4001.59
4002.38
4003.13
4003.87
4004.63
4005.4
4006.16
4006.93
4007.69
4008.46
4009.23
4010
4010.77
4011.54
4012.32
4013.1
4013.88
4014.66
4015.44
4016.23
4017.02
4017.81
4018.6
4019.4
4020.19
4020.99
4021.78
4022.57
4023.36
4024.14
4024.9
4025.65
4026.37
4027.06
4027.71
4028.3
4028.83
4029.27
4029.61
4029.81
4029.85
4029.69
4029.28
4028.59
4027.54
4026.08
4024.13
4021.59
4018.38
4014.38
4009.45
4003.43
3996.14
3987.35
3976.77
3964.06
3948.78
3930.36
3908.12
3881.11
3848.12
3807.29
3756.97
3694.02
3619.12
3531.37
3440.3
3347.08
3214.93
3074.85
2991.21
2949.99
2907.25
2870.19
2869.77
2904.91
2955
2943.09
2796.1
2598.14
2487.75
2462.12
2467.45
2468.19
2464.13
2461.99
2462
2462.69
2463.38
2463.92
2465.37
2468.2
2471.54
2474.87
2478.72
2484
2489.81
2494.58
2498.49
2502.77
2507.77
2512.33
2517.64
2509.43
2537.89
2586.9
2605.63
2606
2551.76
2497.68
2394.61
2232.89
1716.79
1196.11
1738.33
2032.45
1827.48
1531.02
1058.74
1119.64
1346.57
1290.97
1106.47
1043.99
958.969
880.267
877.641
871.967
870.602
866.86
853.423
860.372
869.253
874.302
876.668
876.436
873.459
869.562
865.609
861.184
845.088
811.19
780.084
751.781
731.344
717.748
704.17
723.435
734.384
740.717
746.437
753.255
761.451
773.144
783.408
794.418
804.234
810.651
814.344
816.098
813.627
805.703
794.023
775.711
746.978
712.852
680.879
644.704
591.666
548.139
530.194
510.279
533.612
526.453
533.172
595.776
655.876
865.944
1054.38
1137.83
1191.89
1249.17
1178.66
877.592
654.533
902.535
1222.58
1449.95
1351
1231.39
1191.17
1192.59
1253.8
1340.48
1425.92
1509.36
1582.54
1615.35
1566.01
1480.25
1445.88
1419.19
1296.22
1192.19
1152.31
1137.77
1126.06
1108.09
1083.43
1053.1
1040.98
1047.6
1073.1
1113.51
1154.82
1196.12
1297.24
1424.77
1485.34
1544.02
1585.13
1539.83
1513.72
1496.61
1479.8
1444.08
1380.09
1322.71
1274.85
1315.55
1159.1
529.171
-24.1558
2780.32
3082.13
4109.94
4260.46
4032.39
3930.24
3959.88
3999.78
4006.69
3998.29
3993.81
3995.27
3997.84
3999.08
3999.49
3999.97
4000.72
4001.55
4002.33
4003.07
4003.8
4004.55
4005.3
4006.04
4006.78
4007.52
4008.26
4008.99
4009.72
4010.45
4011.17
4011.89
4012.61
4013.32
4014.02
4014.71
4015.4
4016.08
4016.74
4017.39
4018.03
4018.64
4019.24
4019.81
4020.34
4020.85
4021.31
4021.72
4022.07
4022.36
4022.56
4022.67
4022.67
4022.54
4022.25
4021.79
4021.11
4020.19
4018.99
4017.45
4015.52
4013.15
4010.27
4006.79
4002.62
3997.66
3991.8
3984.9
3976.79
3967.31
3956.23
3943.3
3928.23
3910.64
3890.1
3866.06
3837.85
3804.73
3765.85
3720.66
3668.79
3610.21
3544.8
3470.82
3389.11
3301.86
3220.4
3152.49
3092.95
3033.3
2970.7
2906.04
2837.92
2767.55
2694.5
2622.06
2559.45
2520.82
2506.17
2500.94
2493.85
2485.61
2480.08
2477.49
2476.23
2474.6
2471.37
2468.27
2468.02
2470.04
2471.99
2474.02
2479.2
2489.19
2500.57
2511.4
2522.52
2536.21
2553.1
2566.54
2574.57
2612.34
2708.22
2800.47
2780.85
2670.67
2571.71
2530.09
2558.61
2457.89
1639.34
1086.21
1297.76
1456.01
1467.93
1359.16
1110.01
1021.86
987.013
936.555
880.987
872.618
863.439
851.81
850.413
849.378
851.333
863.784
880.775
895.88
905.348
910.857
908.03
900.686
889.576
875.061
856.382
832.155
805.199
777.185
749.277
724.379
705.041
689.984
678.007
685.104
704.038
726.917
741.765
753.285
767.713
783.96
800.089
815.671
832.109
847.716
859.435
869.49
874.354
870.951
857.712
831.399
788.518
739.372
699.529
656.145
592.426
515.317
446.338
395.115
368.475
376.206
442.519
624.018
902.024
1087.51
1164.05
1185.43
1250.17
1329.7
1392.84
1358.47
1178.51
1067.17
1148.07
1219.69
1243.88
1235.66
1220.46
1223.39
1266.84
1317.73
1373.05
1437.53
1486.56
1481.38
1465.07
1454.98
1427.56
1331.59
1206.87
1145.29
1118.52
1096.87
1077.68
1021.93
952.767
928.94
945.665
1021.83
1141.09
1242.98
1331.74
1405.48
1458.87
1505.31
1548.71
1575.94
1573.44
1541.09
1473.98
1434.85
1315.05
1140.48
1004.5
881.409
687.957
325.685
99.4003
3.17402
2780.18
3081.92
4109.81
4260.37
4032.29
3930.12
3959.76
3999.65
4006.57
3998.17
3993.68
3995.14
3997.71
3998.94
3999.35
3999.82
4000.56
4001.39
4002.16
4002.88
4003.61
4004.33
4005.07
4005.79
4006.51
4007.22
4007.93
4008.63
4009.33
4010.01
4010.69
4011.36
4012.01
4012.65
4013.28
4013.89
4014.48
4015.05
4015.59
4016.11
4016.59
4017.04
4017.45
4017.8
4018.11
4018.35
4018.51
4018.6
4018.59
4018.48
4018.24
4017.87
4017.33
4016.61
4015.69
4014.52
4013.08
4011.33
4009.22
4006.71
4003.75
4000.26
3996.17
3991.41
3985.89
3979.5
3972.13
3963.65
3953.91
3942.74
3929.93
3915.28
3898.51
3879.34
3857.44
3832.42
3803.91
3771.51
3734.89
3693.8
3648.11
3597.81
3543.19
3484.8
3424.02
3362.11
3298.94
3234.68
3170.58
3107.13
3043.75
2981.44
2923.53
2872.22
2826.51
2782.69
2736.66
2690.29
2649.31
2616.04
2589.07
2566.75
2548.45
2533.75
2521.87
2512.08
2504.11
2498.27
2494.79
2493.18
2492.86
2493.88
2496.62
2500.8
2505.47
2510.12
2515
2520.71
2527.43
2535.43
2546.29
2563.48
2581.21
2581.21
2551.12
2500.87
2452.85
2412.41
2374.56
2320.59
2111.13
1874.9
1786.07
1807.37
1731.97
1335.24
936.698
801.774
823.292
825.035
794.469
783.099
798.292
813.223
819.456
827.372
832.063
839.653
864.511
890.029
905.889
908.183
906.148
900.659
891.054
877.577
859.228
834.187
803.112
769.01
737.073
710.646
692.081
682.743
675.752
669.068
667.176
678.749
703.046
735.056
766.745
796.267
822.389
843.88
860.351
871.758
880.306
885.096
884.464
873.337
848.193
799.052
716.149
619.823
570.925
569.204
557.581
501.713
423.736
375.935
394.2
478.255
606.925
753.216
890.078
1000.87
1084.99
1155.27
1249.85
1397.73
1530.94
1532.66
1400.05
1261.04
1205.43
1243.23
1344.43
1417.93
1414.86
1383.22
1373.22
1377.9
1384.54
1389.13
1398.85
1420.7
1432.38
1403.06
1335.79
1252.66
1176.54
1127.25
1104.85
1096.52
1079.17
1022.97
952.552
919.565
934.417
977.659
1046.76
1134.92
1237.05
1345.4
1438.39
1516.9
1592.14
1659.9
1703.85
1668.37
1559.75
1422.04
1252.15
1063.54
929.502
846.859
698.377
493.7
336.244
152.304
2780.08
3081.77
4109.72
4260.32
4032.23
3930.05
3959.7
3999.6
4006.51
3998.12
3993.63
3995.09
3997.66
3998.9
3999.29
3999.76
4000.5
4001.32
4002.09
4002.8
4003.51
4004.23
4004.95
4005.66
4006.35
4007.05
4007.73
4008.4
4009.06
4009.71
4010.35
4010.97
4011.57
4012.15
4012.71
4013.24
4013.75
4014.22
4014.66
4015.06
4015.41
4015.71
4015.95
4016.12
4016.22
4016.23
4016.14
4015.95
4015.63
4015.18
4014.57
4013.78
4012.79
4011.57
4010.1
4008.34
4006.26
4003.82
4000.96
3997.65
3993.82
3989.41
3984.34
3978.55
3971.94
3964.42
3955.87
3946.18
3935.2
3922.79
3908.77
3892.97
3875.17
3855.15
3832.68
3807.5
3779.37
3748.05
3713.33
3675.07
3633.22
3587.84
3539.21
3487.78
3433.94
3378.13
3320.83
3263.14
3206.45
3151.39
3098
3046.44
2996.96
2949.13
2901.76
2853.8
2805.72
2760.05
2719.7
2685.7
2657
2632.13
2610.34
2591.43
2575.18
2561.24
2549.26
2538.99
2530.3
2523.05
2517.09
2512.22
2508.32
2505.28
2502.96
2501.14
2499.63
2498.32
2497.03
2495.37
2492.5
2487.3
2478.57
2463.99
2439.6
2401.33
2348.43
2280.95
2192.77
2076.33
1899.81
1698.17
1545.08
1450.6
1339.91
1173.41
1026.98
967.119
952.575
926.908
892.556
876.79
884.743
900.49
897.194
870.922
849.905
848.791
866.894
898.811
928.254
942.61
943.207
935.766
921.816
901.112
874.157
841.512
804.205
764.42
725.467
689.347
658.552
637.324
630.162
638.24
658.504
684.043
712.559
739.885
764.983
788.704
810.708
830.26
848.77
868.35
887.918
903.938
914.722
916.114
904.427
875.821
827.727
767.712
712.432
664.504
611.093
547.883
487.93
451.44
448.837
482.522
551.293
653.098
778.569
905.729
1017.09
1110.62
1194.68
1268.54
1314.5
1319.26
1286.38
1249.35
1241.34
1265.46
1296.19
1311.87
1313.32
1313.9
1324.08
1341.84
1361.74
1383.63
1408.12
1424.17
1422.23
1404.79
1371.43
1322.71
1265.64
1215.09
1177.21
1149.47
1124.56
1096.43
1070.37
1060.54
1075.11
1111.78
1165.74
1228.74
1291.3
1346.38
1389.38
1419.64
1437.16
1438.59
1421.53
1386.97
1322.08
1233.26
1130.87
1026.63
930.569
826.991
687.73
510.027
332.394
107.856
2780
3081.65
4109.66
4260.28
4032.18
3929.99
3959.63
3999.53
4006.45
3998.05
3993.56
3995.02
3997.58
3998.82
3999.21
3999.68
4000.41
4001.22
4001.98
4002.68
4003.38
4004.09
4004.79
4005.48
4006.17
4006.84
4007.5
4008.14
4008.78
4009.39
4009.99
4010.57
4011.13
4011.66
4012.16
4012.64
4013.07
4013.47
4013.82
4014.11
4014.35
4014.53
4014.63
4014.65
4014.58
4014.41
4014.12
4013.7
4013.13
4012.4
4011.48
4010.36
4009.01
4007.4
4005.5
4003.27
4000.69
3997.7
3994.26
3990.32
3985.82
3980.71
3974.9
3968.32
3960.9
3952.53
3943.11
3932.54
3920.69
3907.43
3892.62
3876.1
3857.7
3837.26
3814.6
3789.54
3761.92
3731.58
3698.4
3662.31
3623.31
3581.46
3536.95
3490
3440.95
3390.31
3338.69
3286.71
3234.85
3183.36
3132.34
3081.89
3032.16
2983.44
2936.08
2890.55
2847.4
2807.15
2770.21
2736.65
2706.24
2678.65
2653.7
2631.3
2611.29
2593.45
2577.55
2563.39
2550.83
2539.73
2529.89
2521.1
2513.13
2505.78
2498.77
2491.76
2484.38
2476.27
2467.01
2456.08
2442.81
2426.47
2406.12
2380.03
2345.5
2300.21
2243.6
2176.39
2098.28
2008.27
1905.12
1796.08
1695.62
1606.99
1519.24
1422.85
1321.57
1230.14
1155.73
1095.21
1045.08
1005.52
975.676
951.52
929.789
912.911
905.495
906.797
912.215
917.385
918.762
915.117
907.303
896.128
881.58
863.416
841.798
817.462
791.434
765.133
740.691
720.304
705.748
698.293
697.316
701.884
711.62
724.37
739.451
756.481
774.836
793.64
811.832
828.672
844.158
856.07
864.488
867.763
864.554
853.74
834.279
805.574
768.215
725.314
682.811
645.561
614.444
589.794
575.304
579.53
601.793
646.071
711.786
792.694
879.399
962.692
1036.96
1101.33
1157.66
1207.25
1248.41
1276.4
1288.32
1290.05
1292.51
1301.97
1317.28
1334.28
1348.65
1358.81
1366.64
1373.9
1380.25
1384.36
1384.64
1379.37
1368.22
1351.06
1327.22
1298.19
1267.94
1240.73
1218.66
1201.36
1187.14
1174.56
1164.33
1160
1164.65
1177.83
1196.81
1218.57
1240.54
1260.66
1276.7
1286.26
1287.29
1277.89
1255.24
1216.29
1158.99
1085.33
998.921
901.743
794.489
676.769
545.74
398.645
240.29
85.0254
2779.94
3081.56
4109.61
4260.25
4032.15
3929.95
3959.59
3999.49
4006.41
3998.01
3993.52
3994.98
3997.55
3998.78
3999.17
3999.63
4000.36
4001.17
4001.92
4002.63
4003.32
4004.02
4004.71
4005.39
4006.06
4006.72
4007.36
4007.99
4008.61
4009.2
4009.77
4010.33
4010.85
4011.34
4011.81
4012.23
4012.61
4012.95
4013.23
4013.46
4013.62
4013.7
4013.71
4013.62
4013.42
4013.11
4012.67
4012.08
4011.33
4010.39
4009.26
4007.89
4006.28
4004.38
4002.16
3999.6
3996.65
3993.27
3989.41
3985.03
3980.05
3974.43
3968.1
3960.97
3952.97
3944.02
3934.02
3922.85
3910.43
3896.62
3881.3
3864.34
3845.61
3824.96
3802.27
3777.39
3750.21
3720.63
3688.58
3654.02
3616.97
3577.5
3535.74
3491.89
3446.23
3399.08
3350.79
3301.72
3252.2
3202.6
3153.26
3104.5
3056.64
3010.03
2964.94
2921.53
2879.95
2840.34
2802.98
2768.13
2735.97
2706.52
2679.66
2655.27
2633.19
2613.24
2595.24
2579
2564.3
2550.95
2538.71
2527.35
2516.6
2506.19
2495.83
2485.18
2473.87
2461.5
2447.64
2431.75
2413.2
2391.25
2364.99
2333.38
2295.38
2250.18
2197.46
2137.19
2069.37
1994.02
1911.45
1822.58
1730.58
1639.22
1549.24
1458.78
1368.96
1286.58
1217.44
1160.82
1112.85
1071.72
1037.72
1010.72
989.194
971.162
955.596
942.495
931.878
923.364
916.012
908.466
899.517
888.593
875.645
860.755
844.141
826.234
807.633
789.094
771.518
755.81
742.663
732.579
726.675
725.238
728.343
735.049
744.494
755.846
768.1
780.308
791.642
802.248
810.493
817.935
822.943
825.36
825.008
821.441
814.339
803.784
790.415
775.674
761.749
750.713
743.215
738.948
738.107
742.372
759.975
789.751
829.26
876.19
927.805
981.127
1033.42
1082.63
1127.42
1166.75
1199.24
1223.28
1238.74
1248.41
1256.83
1267.21
1279.53
1291.6
1301.52
1309.27
1316.17
1323.11
1329.82
1335.48
1339.43
1341.03
1339.46
1333.96
1324.5
1311.81
1297.11
1281.85
1267.36
1254.33
1242.81
1232.7
1224.38
1218.95
1217.51
1220.14
1225.94
1233.5
1241.05
1246.53
1247.84
1243.06
1230.61
1209.02
1176.71
1132.36
1075.59
1006.74
926.3
834.66
732.44
620.244
496.12
362.612
209.712
90.1254
2779.91
3081.51
4109.58
4260.23
4032.13
3929.92
3959.56
3999.47
4006.39
3997.99
3993.5
3994.95
3997.52
3998.75
3999.14
3999.6
4000.33
4001.13
4001.88
4002.57
4003.26
4003.95
4004.64
4005.32
4005.98
4006.63
4007.26
4007.88
4008.48
4009.06
4009.61
4010.14
4010.65
4011.12
4011.55
4011.95
4012.3
4012.6
4012.84
4013.02
4013.13
4013.16
4013.1
4012.94
4012.67
4012.27
4011.74
4011.05
4010.19
4009.13
4007.86
4006.35
4004.57
4002.5
4000.09
3997.33
3994.16
3990.54
3986.44
3981.78
3976.53
3970.61
3963.96
3956.51
3948.18
3938.89
3928.54
3917.04
3904.29
3890.18
3874.58
3857.4
3838.5
3817.77
3795.1
3770.37
3743.49
3714.39
3683.02
3649.35
3613.41
3575.25
3535.01
3492.84
3448.95
3403.6
3357.09
3309.73
3261.87
3213.85
3165.99
3118.58
3071.9
3026.2
2981.71
2938.65
2897.26
2857.79
2820.49
2785.56
2753.1
2723.11
2695.52
2670.21
2647.07
2625.94
2606.67
2589.06
2572.92
2558.02
2544.16
2531.08
2518.52
2506.19
2493.78
2480.95
2467.31
2452.45
2435.88
2417.1
2395.52
2370.52
2341.42
2307.53
2268.21
2222.82
2170.94
2112.35
2047.09
1975.43
1898.05
1816.18
1731.95
1647.83
1565.44
1485.42
1408.71
1337.25
1272.73
1215.36
1164.46
1119.61
1080.73
1047.4
1018.69
993.797
972.491
954.904
940.842
929.073
918.204
907.151
895.276
882.217
867.975
852.614
836.289
819.332
802.251
785.687
770.364
757.03
746.353
738.953
734.992
734.675
737.446
742.912
750.482
759.538
769.492
779.809
790.119
799.252
807.688
814.96
820.401
823.655
824.488
822.756
818.515
812.059
803.933
794.959
786.241
778.998
774.642
774.554
781.58
794.515
814.435
842.038
876.551
916.424
959.664
1004.04
1047.42
1088.11
1125.08
1157.83
1186.19
1210.24
1230.45
1247.73
1263.28
1278.02
1292.22
1305.64
1318.02
1329.25
1339.39
1348.38
1355.97
1361.78
1365.4
1366.43
1364.55
1359.65
1351.92
1341.78
1329.96
1317.46
1305.26
1294.01
1283.92
1274.92
1267.04
1260.42
1255.19
1251.18
1247.79
1244.1
1239.08
1231.65
1220.76
1205.34
1184.28
1156.48
1120.84
1076.38
1022.3
958.058
883.253
797.774
701.571
594.835
476.317
349.396
204.454
87.1385
2779.9
3081.5
4109.57
4260.23
4032.12
3929.92
3959.55
3999.46
4006.38
3997.98
3993.49
3994.95
3997.51
3998.74
3999.13
3999.59
4000.32
4001.12
4001.87
4002.57
4003.26
4003.95
4004.63
4005.31
4005.97
4006.61
4007.24
4007.86
4008.45
4009.03
4009.58
4010.11
4010.61
4011.07
4011.5
4011.88
4012.22
4012.51
4012.74
4012.91
4013
4013.01
4012.93
4012.75
4012.46
4012.03
4011.47
4010.75
4009.85
4008.75
4007.43
4005.87
4004.04
4001.91
3999.45
3996.61
3993.37
3989.68
3985.48
3980.74
3975.39
3969.37
3962.62
3955.06
3946.62
3937.22
3926.76
3915.15
3902.29
3888.07
3872.39
3855.13
3836.19
3815.43
3792.77
3768.1
3741.33
3712.39
3681.23
3647.86
3612.27
3574.55
3534.8
3493.17
3449.87
3405.13
3359.25
3312.52
3265.26
3217.77
3170.36
3123.31
3076.9
3031.41
2987.12
2944.3
2903.18
2863.98
2826.89
2792.02
2759.46
2729.2
2701.24
2675.49
2651.86
2630.21
2610.4
2592.25
2575.56
2560.12
2545.71
2532.08
2518.96
2506.04
2493.02
2479.54
2465.21
2449.6
2432.26
2412.67
2390.29
2364.52
2334.74
2300.31
2260.59
2215.07
2163.37
2105.4
2041.32
1971.59
1896.99
1818.67
1738.1
1656.89
1576.38
1497.58
1421.49
1349.53
1283.32
1223.94
1171.57
1125.88
1086.49
1052.97
1024.75
1001.16
981.485
964.826
950.066
936.574
923.777
911.07
897.947
884.204
869.651
854.264
838.208
821.82
805.564
789.973
775.624
763.191
752.328
744.466
739.672
737.912
739.042
742.748
748.579
756.037
764.618
773.792
783.024
791.773
799.677
806.39
811.64
815.242
817.116
817.305
816.002
813.58
810.628
807.984
806.75
808.14
813.08
822.153
834.072
851.293
873.75
900.988
932.3
966.557
1002.44
1038.52
1073.43
1106
1135.5
1161.68
1184.64
1204.73
1222.31
1237.75
1251.53
1264.21
1276.23
1287.72
1298.6
1308.75
1318.11
1326.68
1334.39
1341.06
1346.43
1350.14
1351.83
1351.2
1348.24
1343.42
1337.7
1332.12
1327.18
1322.5
1317.28
1311.07
1304.05
1296.63
1288.95
1280.82
1271.92
1261.81
1249.94
1235.7
1218.7
1198.58
1174.27
1144.15
1106.91
1061.99
1009.13
947.547
875.926
793.137
698.46
592.046
473.639
346.719
203.849
83.5865
2779.91
3081.52
4109.58
4260.24
4032.13
3929.93
3959.57
3999.47
4006.39
3998
3993.51
3994.96
3997.52
3998.75
3999.15
3999.61
4000.33
4001.14
4001.89
4002.58
4003.27
4003.97
4004.65
4005.33
4005.99
4006.64
4007.27
4007.89
4008.49
4009.07
4009.63
4010.16
4010.67
4011.14
4011.58
4011.97
4012.32
4012.63
4012.87
4013.05
4013.16
4013.19
4013.13
4012.98
4012.71
4012.31
4011.78
4011.09
4010.23
4009.18
4007.91
4006.4
4004.62
4002.55
4000.15
3997.38
3994.21
3990.6
3986.49
3981.84
3976.58
3970.66
3964.02
3956.57
3948.24
3938.94
3928.59
3917.09
3904.34
3890.22
3874.62
3857.44
3838.54
3817.81
3795.13
3770.4
3743.53
3714.43
3683.06
3649.41
3613.48
3575.34
3535.12
3492.97
3449.12
3403.81
3357.34
3310.03
3262.22
3214.25
3166.44
3119.07
3072.43
3026.76
2982.29
2939.24
2897.84
2858.35
2821.03
2786.07
2753.58
2723.55
2695.91
2670.55
2647.35
2626.17
2606.85
2589.2
2573.02
2558.11
2544.24
2531.19
2518.69
2506.45
2494.18
2481.52
2468.11
2453.53
2437.3
2418.91
2397.76
2373.22
2344.59
2311.17
2272.23
2227.09
2175.24
2116.35
2050.37
1977.51
1898.45
1814.66
1728.65
1643.2
1559.85
1479.11
1402.17
1331.34
1268.05
1211.94
1162.03
1117.92
1079.53
1046.4
1017.78
993.213
972.75
956.257
942.874
931.287
920.181
908.585
895.969
882.106
866.873
850.257
832.446
813.845
795.031
776.731
759.821
745.005
733.553
725.309
720.649
719.93
722.905
729.001
737.548
747.872
759.324
771.289
783.198
794.554
804.925
813.928
821.214
826.506
829.687
830.835
830.211
828.212
825.341
822.224
819.683
818.844
821.397
828.402
841.493
859.802
883.211
911.59
944.335
979.842
1016.72
1053.65
1089.24
1122.24
1151.62
1176.81
1198.35
1217.48
1234.97
1250.97
1265.47
1278.75
1291.24
1303.34
1315.28
1327.22
1339.21
1350.96
1362.1
1372.36
1381.53
1389.17
1394.37
1395.66
1391.65
1382.29
1370.1
1359.28
1352.91
1350.56
1349.05
1345.5
1339.34
1331.27
1321.71
1310.57
1297.62
1282.78
1265.99
1246.77
1224.89
1200.76
1174.4
1144.53
1109.04
1066.47
1016.42
958.082
890.044
810.748
718.824
614.055
495.474
364.856
213.528
86.1891
2779.95
3081.58
4109.62
4260.26
4032.16
3929.96
3959.6
3999.5
4006.42
3998.03
3993.54
3994.99
3997.56
3998.79
3999.19
3999.65
4000.38
4001.19
4001.94
4002.64
4003.34
4004.04
4004.73
4005.42
4006.09
4006.75
4007.39
4008.02
4008.64
4009.24
4009.81
4010.36
4010.89
4011.39
4011.85
4012.28
4012.66
4013
4013.29
4013.52
4013.68
4013.77
4013.77
4013.69
4013.5
4013.19
4012.75
4012.16
4011.42
4010.49
4009.35
4007.99
4006.38
4004.48
4002.27
3999.71
3996.76
3993.38
3989.52
3985.14
3980.16
3974.54
3968.21
3961.08
3953.08
3944.12
3934.11
3922.95
3910.51
3896.7
3881.37
3864.41
3845.67
3825.02
3802.33
3777.45
3750.27
3720.7
3688.66
3654.12
3617.1
3577.66
3535.94
3492.15
3446.56
3399.49
3351.3
3302.32
3252.91
3203.42
3154.18
3105.51
3057.74
3011.2
2966.15
2922.76
2881.16
2841.52
2804.1
2769.2
2736.98
2707.44
2680.49
2656
2633.8
2613.74
2595.63
2579.28
2564.5
2551.09
2538.84
2527.51
2516.86
2506.63
2496.51
2486.19
2475.31
2463.5
2450.3
2435.2
2417.56
2396.62
2371.42
2340.87
2303.82
2259.39
2207.08
2146.69
2078
2000.77
1915
1821.51
1724.41
1628.78
1535.75
1443.23
1353.48
1274.46
1210.06
1157.32
1112.47
1074.41
1043.34
1018.63
998.342
980.712
965.386
952.558
942.09
933.399
925.239
916.028
904.686
890.929
874.79
856.365
835.994
814.311
792.164
770.504
750.212
732.112
717.434
705.773
699.371
697.88
700.766
707.605
717.742
730.419
744.785
759.878
774.792
788.921
801.899
813.403
823.012
830.229
834.735
836.64
836.327
834.35
831.502
828.627
827.552
829.89
836.313
846.803
861.349
881.374
906.647
936.72
971.017
1008.73