/*--------------------------------*- C++ -*----------------------------------*\
| =========                 |                                                 |
| \\      /  F ield         | OpenFOAM: The Open Source CFD Toolbox           |
|  \\    /   O peration     | Version:  2406                                  |
|   \\  /    A nd           | Website:  www.openfoam.com                      |
|    \\/     M anipulation  |                                                 |
\*---------------------------------------------------------------------------*/
FoamFile
{
    version     2.0;
    format      ascii;
    arch        "LSB;label=32;scalar=64";
    class       volScalarField;
    location    "0.15";
    object      p_rgh;
}
// * * * * * * * * * * * * * * * * * * * * * * * * * * * * * * * * * * * * * //

dimensions      [1 -1 -2 0 0 0 0];

internalField   nonuniform List<scalar> 
6250
(
2784.51
3087.5
4111.43
4260.18
4032.83
3931.38
3960.95
4000.46
4007.19
3998.79
3994.32
3995.76
3998.29
3999.52
3999.92
4000.42
4001.19
4002.04
4002.86
4003.64
4004.43
4005.24
4006.07
4006.91
4007.76
4008.62
4009.5
4010.4
4011.32
4012.27
4013.24
4014.24
4015.28
4016.35
4017.47
4018.64
4019.86
4021.15
4022.5
4023.94
4025.46
4027.09
4028.84
4030.71
4032.73
4034.92
4037.29
4039.86
4042.67
4045.74
4049.09
4052.76
4056.78
4061.17
4065.97
4071.19
4076.87
4083.01
4089.61
4096.64
4104.05
4111.77
4119.67
4127.59
4135.32
4142.6
4149.12
4154.55
4158.57
4160.86
4161.19
4159.46
4155.54
4150.34
4140.27
4142.08
4126.6
4158.93
4116.58
3721.03
2932.27
2867.75
2837.3
2849.09
2859.51
2841.51
2823.18
2792.14
2732.06
2664.59
2608.03
2558.71
2507.07
2450.3
2398.04
2360.22
2334.83
2312.13
2280.27
2235.81
2184.64
2133.31
2084.34
2040.22
2004.32
1979.67
1965.27
1956.73
1948.3
1935.49
1915.05
1890.16
1872.29
1864.63
1859.34
1848.9
1829.79
1800.99
1760.45
1704.95
1634.44
1556.26
1484.09
1426.15
1382.91
1349.97
1321.19
1291.65
1259.68
1225.08
1181.52
1122.9
1053.84
983.698
914.888
846.459
781.965
722.677
665.2
609.754
559.03
513.761
472.341
428.485
381.078
335.296
296.328
266.339
242.519
220.519
197.567
172.223
146.844
123.237
100.164
75.6208
50.7411
29.455
12.9163
-2.05877
-16.7362
-29.7465
-39.5711
-47.7893
-57.2581
-69.7608
-85.1826
-100.668
-112.186
-118.626
-121.034
-119.278
-114.278
-108.681
-105.91
-106.536
-109.285
-113.912
-121.536
-133.257
-149.767
-171.472
-197.912
-227.092
-253.644
-273.922
-286.757
-293.741
-295.73
-290.89
-276.578
-251.296
-215.936
-173.183
-125.884
-77.5223
-29.2418
19.1092
67.8983
117.082
165.506
212.209
257.193
299.062
335.611
366.701
393.614
416.183
433.23
443.875
447.928
445.536
435.462
416.979
391.557
361.333
328.656
295.842
264.069
232.445
199.802
167.329
136.891
110.361
87.6914
69.574
57.2353
52.305
56.3783
70.7231
97.5513
135.191
178.906
224.205
267.443
303.161
329.792
346.326
351.647
344.754
323.374
284.767
222.707
134.824
51.2629
-26.6509
-104.157
-179.021
-248.723
-244.974
2780.71
3082.68
4110.52
4261.07
4032.94
3930.67
3960.24
4000.09
4006.97
3998.55
3994.05
3995.51
3998.07
3999.32
3999.73
4000.22
4001
4001.85
4002.67
4003.45
4004.23
4005.03
4005.85
4006.67
4007.5
4008.34
4009.19
4010.06
4010.95
4011.85
4012.77
4013.71
4014.68
4015.68
4016.71
4017.78
4018.89
4020.05
4021.27
4022.54
4023.88
4025.29
4026.8
4028.4
4030.11
4031.94
4033.92
4036.05
4038.35
4040.86
4043.58
4046.56
4049.81
4053.36
4057.25
4061.51
4066.17
4071.25
4076.8
4082.81
4089.28
4096.19
4103.48
4111.02
4118.68
4126.23
4133.4
4139.85
4145.16
4148.89
4150.64
4150.15
4147.09
4142.32
4135.23
4133.45
4150.78
4196.49
4201.87
4047.45
3863.8
3648.28
3141.28
3020.47
2958.06
2902.12
2921.02
2888.49
2783.09
2698.06
2647.95
2603.9
2551.41
2483.78
2414.85
2365.21
2335.96
2308.94
2277.32
2241.84
2204.02
2155.07
2098.27
2042.14
1995.38
1966.78
1954.05
1948.45
1945.32
1939.65
1919.63
1874.57
1840.23
1837.29
1843.83
1841.34
1826.77
1803.57
1773.52
1728.16
1660.62
1585.39
1520.67
1460.49
1411.15
1376.28
1349.02
1317.86
1281.68
1251.94
1224.04
1180.95
1119.36
1052.44
971.96
886.092
819.377
768.633
707.781
635.792
572.3
526.441
512.864
515.369
502.69
431.496
360.966
314.274
287.184
282.452
302.41
296.332
260.841
213.244
160.392
101.782
40.964
7.03649
-5.80303
-16.4205
-34.0296
-53.3472
-63.8878
-69.1384
-76.3954
-88.3617
-106.145
-127.689
-144.543
-152.854
-153.914
-145.677
-131.441
-119.233
-114.806
-116.205
-118.638
-121.317
-126.889
-136.565
-151.303
-171.917
-198.87
-230.152
-260.826
-284.809
-299.634
-309.731
-318.528
-321.21
-311.262
-286.187
-248.491
-201.783
-149.374
-93.0777
-36.1984
17.7634
70.1357
122.602
173.157
219.818
266.496
312.05
349.893
377.902
399.28
415.882
429.065
439.884
448.126
454.417
456.226
445.384
422.79
390.741
351.95
315.605
287.17
265.034
244.29
209.498
165.358
149.69
141.418
116.481
86.1266
61.693
55.9718
60.9826
75.4568
97.7861
135.759
187.641
261.232
339.805
417.566
487.712
533.415
553.872
542.86
488.211
353.858
233.005
155.778
82.2995
-16.8199
-127.112
-246.645
-273.393
2781.55
3084.06
4111.03
4261.05
4032.91
3930.79
3960.44
4000.29
4007.14
3998.7
3994.2
3995.64
3998.2
3999.44
3999.84
4000.32
4001.09
4001.94
4002.74
4003.51
4004.28
4005.07
4005.88
4006.69
4007.51
4008.34
4009.18
4010.03
4010.9
4011.78
4012.69
4013.61
4014.56
4015.53
4016.53
4017.56
4018.63
4019.74
4020.9
4022.1
4023.36
4024.69
4026.08
4027.54
4029.1
4030.74
4032.49
4034.34
4036.32
4038.42
4040.66
4043.05
4045.59
4048.29
4051.14
4054.16
4057.34
4060.66
4064.11
4067.67
4071.32
4075.02
4078.74
4082.46
4086.11
4089.65
4093.03
4096.16
4098.98
4101.46
4103.6
4105.62
4107.95
4111.63
4118.47
4130.67
4149
4166.08
4170.53
4097.79
3987.6
3827.69
3525.47
3370.13
3261.15
2894.42
2984.84
3209.26
2990.46
2712.26
2693.89
2732.52
2659.76
2446.19
2315.59
2315.75
2374.52
2445.4
2450.69
2306.26
2154.17
2120.13
2086.89
2022.84
1938.15
1896.68
1899.99
1919.26
1933.64
1927.44
2005.59
2164.03
1947.41
1834.25
1852.38
1863.2
1903.23
1869.96
1834.73
1809.12
1716.82
1501.53
1356.05
1346.92
1373.69
1378.95
1369.9
1375.2
1349.48
1325.32
1298.02
1200.04
1039.83
1029.52
1215.06
1070.09
923.382
939.708
997.879
950.417
904.95
868.656
787.082
657.548
705.751
887.487
898.206
888.475
843.203
716.92
710.446
778.74
837.259
840.487
835.008
823.757
810.4
739.614
528.122
409.311
397.753
339.381
197.656
82.5878
42.8877
31.2022
117.266
215.206
118.455
-41.0478
-94.3488
-118.062
-138.124
-120.98
-101.362
-104.717
-116.376
-118.385
-111.516
-109.855
-112.436
-126.554
-163.641
-223.989
-283.46
-319.023
-331.972
-336.761
-346.281
-359.336
-354.945
-317.78
-257.035
-194.928
-140.255
-85.3233
-25.1963
35.634
101.551
171.044
229.516
277.637
337.812
406.856
456.134
480.226
532.807
595.615
638.629
665.782
690.381
752.003
909.434
1095.65
1063.77
888.536
690.662
622.073
590.365
571.194
625.488
846.749
1001.64
995.727
979.733
973.347
971.188
953.458
904.797
812.752
710.513
638.799
681.481
800.908
954.14
1075.41
1222.17
1361.15
1423.49
1432.58
1421.88
1391.99
1192.64
627.348
165.515
227.555
263.19
-102.187
-295.268
-313.156
2780.8
3082.76
4110.22
4260.61
4032.58
3930.46
3960.09
3999.94
4006.82
3998.4
3993.91
3995.37
3997.94
3999.18
3999.59
4000.08
4000.85
4001.7
4002.5
4003.27
4004.03
4004.82
4005.61
4006.41
4007.21
4008.02
4008.84
4009.67
4010.5
4011.35
4012.21
4013.09
4013.98
4014.89
4015.82
4016.77
4017.74
4018.74
4019.78
4020.85
4021.95
4023.1
4024.29
4025.53
4026.83
4028.19
4029.61
4031.11
4032.67
4034.32
4036.05
4037.86
4039.76
4041.74
4043.8
4045.94
4048.14
4050.38
4052.63
4054.87
4057.06
4059.13
4061.02
4062.66
4063.97
4064.85
4065.23
4065.04
4064.24
4062.83
4060.86
4058.43
4055.67
4052.58
4048.9
4043.24
4033.22
4011.58
3975.57
3903.52
3837.24
3818.77
3731.27
3569.49
3388.71
3097.08
2859.43
3001
3046.86
2928.16
2738.64
2698.45
2712.46
2403.71
2177.41
2193.88
2420.44
2453.64
2564.62
2536.98
2478.94
2464.39
2460.46
2459.87
2462.41
2401.34
2153.86
2032.94
2038.39
2105.87
2388.28
2371.28
2128.59
2022.19
2038.5
2099.46
2101.98
2072.2
2092.83
2276.65
2499.83
2506.28
2042.04
1433.24
1319.1
1388.04
1420.39
1370.04
1306.34
1397.59
1752.64
2002.65
1337.93
864.831
933.129
1330.23
1361.23
1340.95
1307.38
1255.25
1199.46
1152.24
1080.96
964.835
815.361
680.667
718.209
763.686
917.629
901.905
820.155
746.602
751.165
749.535
808.898
793.917
767.879
792.875
786.406
776.61
766.328
756.374
748.878
744.216
741.08
738.679
710.248
707.281
736.856
752.634
756.263
746.407
342.191
180.963
364.903
581.92
485.694
292.857
273.577
272.463
235.609
201.977
188.528
112.746
-65.1292
-242.692
-341.403
-386.965
-470.533
-535.949
-550.434
-494.978
-423.42
-324.577
-133.308
-13.8068
24.2363
2.3106
23.1147
268.223
578.919
488.271
570.132
949.206
1190.34
1048.87
876.558
892.541
1067.98
1275.74
1378.47
1446.04
1495.01
1481.45
1455.56
1438.47
1418.03
1391.98
1339.8
1249.58
1186.83
1148.42
1126.43
1111.2
1099.62
1091.39
1087.36
1088.5
1096.94
1112.76
1157.06
1237.86
1342.52
1455.62
1573.56
1623.32
1613.04
1596.11
1577.35
1554.94
1529.34
1508.39
1489.86
1424.25
1119.94
877.872
73.1249
-755.562
-617.834
-419.278
2780.73
3082.75
4110.3
4260.68
4032.63
3930.49
3960.13
3999.99
4006.88
3998.47
3993.98
3995.44
3998
3999.24
3999.64
4000.13
4000.88
4001.72
4002.52
4003.27
4004.02
4004.79
4005.57
4006.34
4007.12
4007.91
4008.7
4009.49
4010.3
4011.1
4011.92
4012.75
4013.58
4014.43
4015.28
4016.15
4017.04
4017.94
4018.86
4019.79
4020.75
4021.73
4022.73
4023.76
4024.81
4025.89
4027
4028.14
4029.3
4030.49
4031.7
4032.93
4034.17
4035.41
4036.64
4037.85
4039.01
4040.1
4041.09
4041.95
4042.61
4043.05
4043.18
4042.94
4042.25
4041.02
4039.14
4036.49
4032.94
4028.34
4022.49
4015.15
4005.98
3994.46
3979.88
3961.12
3936.92
3904.86
3863.03
3807.63
3737.48
3659.04
3535.09
3434.31
3407.67
3339.92
3182.99
3093.86
3044.5
2939.01
2768.63
2630.15
2599.24
2595.67
2587.37
2617.48
2578.64
2534.08
2510.52
2504.03
2496.53
2488.74
2483.46
2480.66
2480.38
2478.76
2470.67
2466.29
2467.97
2470.93
2472.3
2473.6
2478.46
2490.62
2501
2510.68
2521.41
2534.69
2551.14
2577.97
2586.69
2589.82
2588.83
2434.1
1902.84
2019.94
2208.31
1949.81
864.362
592.175
1413.09
2030.36
2143.36
1750.38
681.911
407.592
622.41
763.51
1037.61
1043.03
1007.76
960.351
948.991
950.322
927.201
872.659
703.262
773.736
896.629
903.06
902.646
898.205
891.314
883.733
877.627
871.77
856.811
751.301
706.574
677.087
650.21
635.428
621.451
622.969
723.201
738.185
740.381
743.163
745.875
747.432
760.635
776.87
803.518
824.072
842.503
849.879
855.339
863.689
867.127
857.965
834.313
797.735
760.435
738.824
723.89
690.548
589.557
94.9774
-83.0105
212.925
295.978
19.6756
-197.065
-155.861
-251.419
-282.332
93.7303
546.238
375.403
278.558
663.628
960.084
1152.58
1369.82
1586.18
1628.51
1491.54
1440.8
1447.62
1475.62
1503.06
1523
1541.59
1559.45
1549.23
1467.11
1352.6
1268.17
1239.12
1216.17
1194.14
1177.02
1167.91
1154.68
1128.37
1104.71
1086.45
1073.32
1065.37
1064.02
1070.06
1172.43
1279.95
1375.08
1481.2
1536.83
1559.27
1580.13
1599.61
1616.03
1623.67
1616.8
1599.65
1566.1
1464.41
1245.87
850.131
14.7207
-334.312
-500.731
2780.47
3082.33
4110.01
4260.48
4032.42
3930.26
3959.9
3999.77
4006.67
3998.26
3993.77
3995.23
3997.79
3999.03
3999.44
3999.92
4000.67
4001.5
4002.29
4003.03
4003.77
4004.53
4005.29
4006.05
4006.81
4007.57
4008.33
4009.1
4009.86
4010.63
4011.4
4012.17
4012.94
4013.71
4014.49
4015.27
4016.05
4016.84
4017.62
4018.41
4019.2
4019.99
4020.79
4021.57
4022.36
4023.14
4023.91
4024.67
4025.41
4026.13
4026.82
4027.46
4028.05
4028.57
4029.01
4029.34
4029.54
4029.57
4029.4
4029
4028.29
4027.24
4025.78
4023.82
4021.28
4018.07
4014.06
4009.12
4003.1
3995.8
3987.01
3976.43
3963.71
3948.42
3930.01
3907.75
3880.74
3847.74
3806.92
3756.59
3693.64
3618.72
3530.97
3439.9
3346.67
3214.52
3074.43
2990.79
2949.57
2906.82
2869.75
2869.33
2904.47
2954.55
2942.63
2795.64
2597.68
2487.28
2461.65
2466.97
2467.7
2463.64
2461.49
2461.5
2462.18
2462.87
2463.41
2464.83
2467.66
2470.98
2474.31
2478.16
2483.43
2489.25
2494.03
2497.94
2502.21
2507.21
2511.76
2517.06
2508.85
2537.31
2586.31
2604.19
2590.57
2533.94
2485.48
2391.32
2232.27
1404.75
769.664
1318.6
1930.24
1821.55
1477.28
767.182
766.663
1114.74
1157.52
964.614
887.574
810.248
860.099
876.929
871.259
869.89
865.324
852.693
859.645
868.493
873.574
875.939
875.703
872.721
868.819
864.861
860.389
844.06
809.667
776.08
746.571
726.625
711.386
686.724
714.886
733.443
739.801
745.549
752.43
760.635
772.322
782.583
793.545
803.195
809.606
813.487
815.249
812.771
804.842
793.159
774.843
746.106
711.974
679.997
643.816
590.767
547.242
529.292
509.372
532.701
525.537
532.251
576.081
519.026
677.198
930.958
1117.22
1190.6
1248.21
1177.7
702.953
259.593
505.691
823.723
1263.43
1337.15
1217.65
1169.03
1170.33
1231.76
1329.09
1418.53
1504.18
1578.86
1610.46
1559.56
1476.65
1444.82
1408.78
1278.84
1174.71
1134.76
1124.18
1124.51
1106.96
1081.02
1050.57
1039.07
1045.91
1071.64
1112.39
1153.7
1192.56
1282
1410.03
1472.27
1528.18
1569.16
1523.82
1501.51
1494.98
1478.19
1442.26
1378.29
1320.65
1271.89
1312.57
1155.44
518.839
-38.4917
2780.32
3082.12
4109.92
4260.44
4032.37
3930.21
3959.85
3999.74
4006.65
3998.24
3993.76
3995.21
3997.78
3999.02
3999.42
3999.89
4000.64
4001.47
4002.24
4002.98
4003.7
4004.44
4005.19
4005.93
4006.66
4007.4
4008.13
4008.86
4009.58
4010.31
4011.03
4011.74
4012.45
4013.15
4013.85
4014.54
4015.22
4015.9
4016.56
4017.2
4017.83
4018.44
4019.03
4019.6
4020.13
4020.63
4021.08
4021.49
4021.84
4022.12
4022.32
4022.42
4022.42
4022.28
4021.99
4021.52
4020.84
4019.92
4018.7
4017.16
4015.23
4012.86
4009.97
4006.48
4002.31
3997.35
3991.48
3984.57
3976.46
3966.97
3955.89
3942.96
3927.88
3910.29
3889.74
3865.69
3837.48
3804.35
3765.48
3720.28
3668.4
3609.82
3544.4
3470.42
3388.7
3301.45
3219.99
3152.07
3092.52
3032.87
2970.26
2905.6
2837.47
2767.1
2694.05
2621.61
2558.99
2520.35
2505.7
2500.46
2493.36
2485.12
2479.59
2476.99
2475.73
2474.09
2470.86
2467.76
2467.49
2469.51
2471.46
2473.48
2478.65
2488.64
2500.02
2510.85
2521.96
2535.64
2552.53
2565.97
2573.99
2611.75
2707.63
2799.88
2780.25
2670.07
2571.1
2529.48
2558
2456.65
1625.73
1065.57
1284.77
1451.53
1434.21
1280.82
1043.62
991.69
975.927
926.403
872.567
870.41
862.589
851.066
849.706
848.666
850.617
863.064
880.051
895.135
904.582
910.085
907.28
899.947
888.833
874.313
855.599
831.362
804.434
776.416
748.5
723.595
704.251
689.189
676.123
682.376
701.293
724.588
740.845
752.468
766.892
783.133
799.257
814.834
831.128
846.694
858.493
868.634
873.493
870.083
856.839
830.52
787.637
738.49
698.639
655.246
591.528
514.415
445.43
394.2
367.555
375.282
441.59
623.085
901.086
1086.57
1163.1
1184.47
1249.21
1328.74
1387.31
1328.94
1143.79
1037.43
1130.93
1216.68
1242.48
1223.09
1198.3
1201.59
1245.39
1296.33
1351.81
1417.22
1479.53
1480.34
1464.03
1453.93
1426.04
1327.81
1201.9
1141.25
1116.48
1095.8
1075.83
1018.54
949.355
925.512
942.222
1018.37
1139.16
1241.87
1330.62
1404.36
1457.74
1504.18
1547.57
1574.8
1572.29
1528.04
1458.2
1419
1299.14
1127.93
1002.6
879.952
685.171
322.1
96.7424
-0.44681
2780.18
3081.92
4109.8
4260.36
4032.27
3930.09
3959.73
3999.62
4006.53
3998.12
3993.63
3995.08
3997.65
3998.88
3999.28
3999.74
4000.48
4001.3
4002.07
4002.79
4003.51
4004.23
4004.96
4005.68
4006.39
4007.1
4007.8
4008.5
4009.19
4009.87
4010.54
4011.2
4011.85
4012.49
4013.11
4013.72
4014.31
4014.87
4015.41
4015.92
4016.4
4016.84
4017.24
4017.59
4017.89
4018.13
4018.29
4018.37
4018.36
4018.24
4018
4017.62
4017.08
4016.36
4015.42
4014.25
4012.81
4011.05
4008.94
4006.43
4003.46
3999.96
3995.87
3991.11
3985.58
3979.19
3971.82
3963.33
3953.58
3942.4
3929.59
3914.93
3898.17
3878.99
3857.08
3832.06
3803.54
3771.14
3734.52
3693.41
3647.73
3597.42
3542.8
3484.4
3423.62
3361.7
3298.52
3234.26
3170.16
3106.7
3043.31
2981
2923.09
2871.77
2826.05
2782.23
2736.2
2689.82
2648.84
2615.56
2588.59
2566.26
2547.96
2533.25
2521.36
2511.57
2503.6
2497.76
2494.27
2492.66
2492.32
2493.35
2496.08
2500.26
2504.92
2509.57
2514.44
2520.15
2526.86
2534.85
2545.71
2562.9
2580.62
2580.62
2550.52
2500.26
2452.24
2411.8
2373.94
2319.96
2110.5
1874.27
1785.41
1806.67
1731.1
1334.59
936.036
801.108
822.623
824.363
793.79
782.416
797.604
812.531
818.012
825.738
830.416
837.996
863.405
889.299
905.16
907.449
905.406
899.899
890.291
876.823
858.473
833.428
802.348
768.241
736.297
709.833
691.26
681.949
674.955
668.267
666.372
677.941
702.209
734.214
765.922
795.441
821.504
842.971
859.442
870.888
879.347
884.115
883.477
872.345
847.195
798.049
715.141
618.812
569.98
568.309
556.683
500.812
422.829
375.014
393.249
477.299
605.979
752.283
889.14
999.912
1084.01
1154.28
1248.88
1396.77
1529.98
1531.69
1399.08
1260.06
1204.45
1242.24
1343.44
1416.94
1413.86
1382.21
1372.21
1376.88
1383.52
1388.1
1397.82
1419.66
1431.34
1402.01
1334.74
1251.61
1175.48
1126.19
1103.78
1095.45
1078.07
1021.82
951.376
918.401
933.275
976.543
1045.65
1133.81
1235.94
1344.28
1437.26
1515.77
1591.01
1658.76
1702.7
1667.22
1558.58
1420.81
1250.75
1062.04
928.121
845.485
696.766
492.276
335.046
149.647
2780.07
3081.76
4109.71
4260.31
4032.21
3930.03
3959.66
3999.56
4006.47
3998.07
3993.58
3995.03
3997.6
3998.83
3999.22
3999.69
4000.43
4001.24
4002
4002.71
4003.42
4004.13
4004.84
4005.54
4006.24
4006.92
4007.6
4008.27
4008.93
4009.57
4010.2
4010.81
4011.41
4011.99
4012.54
4013.07
4013.57
4014.04
4014.48
4014.87
4015.21
4015.51
4015.74
4015.91
4016
4016.01
4015.92
4015.72
4015.4
4014.94
4014.32
4013.53
4012.53
4011.31
4009.84
4008.07
4005.99
4003.54
4000.68
3997.36
3993.53
3989.11
3984.04
3978.25
3971.63
3964.1
3955.55
3945.85
3934.87
3922.45
3908.43
3892.63
3874.82
3854.8
3832.32
3807.14
3779
3747.67
3712.95
3674.69
3632.83
3587.44
3538.82
3487.37
3433.54
3377.72
3320.41
3262.72
3206.02
3150.96
3097.57
3046
2996.52
2948.68
2901.31
2853.34
2805.25
2759.58
2719.23
2685.22
2656.52
2631.64
2609.85
2590.93
2574.67
2560.73
2548.74
2538.48
2529.78
2522.53
2516.56
2511.68
2507.77
2504.73
2502.41
2500.59
2499.07
2497.75
2496.46
2494.79
2491.92
2486.72
2477.98
2463.4
2439
2400.72
2347.82
2280.34
2192.16
2075.71
1899.18
1697.54
1544.44
1449.96
1339.27
1172.76
1026.32
966.457
951.909
926.237
891.874
876.103
884.053
899.799
896.495
870.215
849.19
848.069
866.157
898.067
927.527
941.882
942.451
934.993
921.037
900.328
873.368
840.72
803.405
763.615
724.657
688.532
657.731
636.498
629.332
637.429
657.702
683.236
711.748
739.069
764.161
787.878
809.856
829.395
847.915
867.502
887.067
903.082
913.86
915.247
903.554
874.942
826.833
766.811
711.538
663.588
610.163
546.947
486.989
450.494
447.887
481.566
550.332
652.132
777.608
904.788
1016.14
1109.64
1193.7
1267.56
1313.54
1318.28
1285.39
1248.35
1240.35
1264.47
1295.2
1310.87
1312.32
1312.88
1323.06
1340.82
1360.71
1382.6
1407.09
1423.13
1421.19
1403.75
1370.38
1321.66
1264.58
1214.02
1176.14
1148.4
1123.49
1095.35
1069.28
1059.45
1074.02
1110.68
1164.63
1227.63
1290.19
1345.26
1388.25
1418.51
1436.03
1437.45
1420.39
1385.82
1320.93
1232.1
1129.7
1025.46
929.394
825.811
686.545
508.837
331.2
106.606
2779.99
3081.64
4109.64
4260.26
4032.16
3929.96
3959.6
3999.5
4006.41
3998.01
3993.51
3994.96
3997.52
3998.75
3999.14
3999.6
4000.33
4001.14
4001.89
4002.59
4003.29
4003.99
4004.68
4005.37
4006.05
4006.71
4007.37
4008.01
4008.64
4009.25
4009.85
4010.42
4010.97
4011.5
4012
4012.47
4012.9
4013.29
4013.63
4013.92
4014.16
4014.33
4014.43
4014.44
4014.37
4014.19
4013.89
4013.47
4012.9
4012.16
4011.24
4010.11
4008.76
4007.14
4005.23
4003
4000.41
3997.42
3993.98
3990.03
3985.53
3980.41
3974.6
3968.02
3960.59
3952.21
3942.79
3932.22
3920.36
3907.1
3892.28
3875.75
3857.35
3836.91
3814.24
3789.18
3761.55
3731.2
3698.02
3661.93
3622.92
3581.07
3536.55
3489.59
3440.55
3389.9
3338.27
3286.29
3234.42
3182.93
3131.9
3081.45
3031.72
2982.99
2935.63
2890.09
2846.93
2806.69
2769.74
2736.18
2705.76
2678.16
2653.21
2630.8
2610.79
2592.95
2577.04
2562.87
2550.31
2539.2
2529.36
2520.56
2512.59
2505.23
2498.22
2491.2
2483.82
2475.71
2466.44
2455.5
2442.23
2425.88
2405.53
2379.43
2344.91
2299.61
2242.99
2175.77
2097.67
2007.65
1904.49
1795.45
1694.98
1606.35
1518.59
1422.2
1320.92
1229.48
1155.06
1094.54
1044.41
1004.84
974.991
950.83
929.094
912.212
904.791
906.088
911.501
916.667
918.038
914.388
906.57
895.39
880.836
862.667
841.043
816.702
790.669
764.363
739.913
719.521
704.963
697.505
696.518
701.074
710.806
723.555
738.637
755.666
774.016
792.815
811.003
827.838
843.319
855.226
863.639
866.909
863.696
852.877
833.411
804.702
767.338
724.432
681.924
644.669
613.547
588.891
574.397
578.617
600.876
645.149
710.859
791.763
878.464
961.753
1036.02
1100.38
1156.7
1206.29
1247.45
1275.43
1287.35
1289.07
1291.53
1300.98
1316.29
1333.28
1347.64
1357.8
1365.63
1372.89
1379.23
1383.33
1383.61
1378.34
1367.18
1350.02
1326.17
1297.13
1266.88
1239.66
1217.59
1200.28
1186.06
1173.47
1163.25
1158.91
1163.55
1176.73
1195.7
1217.45
1239.42
1259.53
1275.58
1285.13
1286.15
1276.74
1254.1
1215.14
1157.83
1084.17
997.756
900.572
793.314
675.589
544.555
397.455
239.096
83.8261
2779.94
3081.56
4109.59
4260.23
4032.12
3929.92
3959.56
3999.46
4006.37
3997.97
3993.47
3994.93
3997.49
3998.71
3999.1
3999.56
4000.28
4001.09
4001.83
4002.53
4003.22
4003.91
4004.6
4005.28
4005.94
4006.6
4007.24
4007.86
4008.47
4009.06
4009.63
4010.17
4010.69
4011.18
4011.64
4012.06
4012.44
4012.77
4013.05
4013.27
4013.42
4013.5
4013.5
4013.41
4013.21
4012.89
4012.44
4011.85
4011.09
4010.16
4009.01
4007.65
4006.02
4004.12
4001.9
3999.33
3996.38
3992.99
3989.13
3984.74
3979.76
3974.14
3967.8
3960.67
3952.66
3943.71
3933.7
3922.53
3910.1
3896.28
3880.96
3864
3845.26
3824.61
3801.91
3777.03
3749.84
3720.26
3688.2
3653.64
3616.59
3577.11
3535.34
3491.49
3445.82
3398.67
3350.38
3301.3
3251.78
3202.17
3152.82
3104.06
3056.2
3009.58
2964.48
2921.07
2879.48
2839.87
2802.5
2767.65
2735.49
2706.03
2679.17
2654.77
2632.69
2612.74
2594.73
2578.48
2563.78
2550.42
2538.18
2526.81
2516.06
2505.65
2495.28
2484.62
2473.31
2460.94
2447.07
2431.17
2412.62
2390.67
2364.4
2332.79
2294.78
2249.58
2196.85
2136.57
2068.76
1993.4
1910.82
1821.94
1729.95
1638.58
1548.59
1458.13
1368.31
1285.92
1216.77
1160.15
1112.18
1071.04
1037.03
1010.03
988.5
970.462
954.892
941.786
931.164
922.646
915.288
907.738
898.784
887.855
874.902
860.008
843.389
825.477
806.871
788.328
770.747
755.033
741.882
731.793
725.884
724.443
727.543
734.244
743.684
755.031
767.281
779.484
790.813
801.414
809.654
817.091
822.095
824.507
824.15
820.578
813.472
802.911
789.537
774.792
760.862
749.821
742.319
738.046
737.201
741.461
759.059
788.83
828.334
875.26
926.87
980.188
1032.48
1081.68
1126.46
1165.79
1198.27
1222.31
1237.77
1247.43
1255.85
1266.22
1278.54
1290.61
1300.52
1308.27
1315.16
1322.1
1328.8
1334.46
1338.4
1340
1338.42
1332.92
1323.45
1310.76
1296.05
1280.78
1266.29
1253.25
1241.73
1231.62
1223.29
1217.86
1216.41
1219.04
1224.83
1232.39
1239.93
1245.41
1246.71
1241.93
1229.47
1207.87
1175.57
1131.21
1074.43
1005.58
925.134
833.49
731.265
619.064
494.935
361.423
208.517
88.9261
2779.9
3081.51
4109.57
4260.21
4032.1
3929.9
3959.53
3999.43
4006.35
3997.94
3993.45
3994.9
3997.46
3998.68
3999.07
3999.52
4000.25
4001.04
4001.79
4002.48
4003.16
4003.85
4004.53
4005.2
4005.86
4006.5
4007.13
4007.74
4008.34
4008.91
4009.47
4009.99
4010.49
4010.96
4011.39
4011.78
4012.12
4012.42
4012.66
4012.83
4012.94
4012.96
4012.9
4012.73
4012.46
4012.06
4011.52
4010.82
4009.95
4008.89
4007.62
4006.1
4004.32
4002.24
3999.83
3997.06
3993.89
3990.27
3986.15
3981.5
3976.24
3970.31
3963.66
3956.21
3947.87
3938.58
3928.22
3916.72
3903.96
3889.84
3874.25
3857.06
3838.15
3817.42
3794.74
3770.01
3743.13
3714.02
3682.64
3648.97
3613.02
3574.86
3534.61
3492.44
3448.54
3403.19
3356.67
3309.31
3261.45
3213.42
3165.55
3118.14
3071.46
3025.75
2981.26
2938.19
2896.8
2857.32
2820.01
2785.08
2752.62
2722.63
2695.03
2669.71
2646.56
2625.43
2606.16
2588.54
2572.39
2557.5
2543.63
2530.54
2517.98
2505.64
2493.23
2480.4
2466.75
2451.88
2435.31
2416.53
2394.94
2369.93
2340.83
2306.94
2267.61
2222.22
2170.34
2111.74
2046.47
1974.81
1897.43
1815.55
1731.31
1647.19
1564.79
1484.76
1408.05
1336.58
1272.06
1214.69
1163.79
1118.93
1080.05
1046.71
1018
993.098
971.787
954.195
940.128
928.354
917.48
906.423
894.543
881.479
867.233
851.867
835.537
818.575
801.49
784.921
769.593
756.254
745.572
738.167
734.201
733.879
736.646
742.107
749.672
758.723
768.673
778.985
789.29
798.418
806.85
814.116
819.553
822.802
823.63
821.893
817.647
811.187
803.055
794.077
785.354
778.107
773.745
773.653
780.674
793.604
813.519
841.117
875.626
915.494
958.729
1003.11
1046.48
1087.17
1124.13
1156.87
1185.23
1209.28
1229.48
1246.76
1262.29
1277.03
1291.23
1304.65
1317.01
1328.25
1338.38
1347.36
1354.95
1360.76
1364.37
1365.4
1363.51
1358.61
1350.87
1340.73
1328.9
1316.4
1304.19
1292.94
1282.84
1273.84
1265.95
1259.32
1254.09
1250.08
1246.68
1242.99
1237.97
1230.53
1219.63
1204.21
1183.15
1155.34
1119.7
1075.22
1021.14
956.897
882.087
796.604
700.395
593.655
475.132
348.206
203.259
85.9391
2779.9
3081.49
4109.56
4260.21
4032.1
3929.89
3959.52
3999.42
4006.34
3997.94
3993.44
3994.89
3997.45
3998.68
3999.06
3999.52
4000.24
4001.04
4001.78
4002.47
4003.16
4003.84
4004.52
4005.19
4005.85
4006.49
4007.12
4007.73
4008.32
4008.89
4009.44
4009.96
4010.45
4010.91
4011.33
4011.71
4012.05
4012.33
4012.56
4012.72
4012.81
4012.81
4012.73
4012.54
4012.24
4011.82
4011.25
4010.52
4009.61
4008.51
4007.19
4005.62
4003.79
4001.65
3999.18
3996.35
3993.1
3989.4
3985.2
3980.45
3975.1
3969.08
3962.32
3954.76
3946.31
3936.9
3926.44
3914.82
3901.96
3887.74
3872.05
3854.79
3835.84
3815.08
3792.41
3767.73
3740.96
3712.01
3680.86
3647.47
3611.89
3574.16
3534.4
3492.77
3449.46
3404.72
3358.84
3312.1
3264.84
3217.34
3169.93
3122.87
3076.46
3030.96
2986.67
2943.84
2902.71
2863.51
2826.42
2791.54
2758.97
2728.72
2700.75
2674.99
2651.35
2629.71
2609.89
2591.73
2575.04
2559.59
2545.18
2531.54
2518.41
2505.5
2492.47
2478.99
2464.65
2449.04
2431.69
2412.1
2389.71
2363.94
2334.15
2299.71
2260
2214.47
2162.77
2104.79
2040.71
1970.97
1896.37
1818.04
1737.47
1656.24
1575.73
1496.93
1420.83
1348.87
1282.66
1223.27
1170.89
1125.2
1085.8
1052.28
1024.05
1000.46
980.78
964.117
949.352
935.855
923.053
910.341
897.214
883.467
868.909
853.516
837.456
821.063
804.802
789.207
774.853
762.415
751.547
743.68
738.881
737.117
738.242
741.943
747.769
755.222
763.798
772.968
782.195
790.939
798.838
805.546
810.792
814.389
816.258
816.442
815.134
812.707
809.75
807.102
805.863
807.248
812.184
821.252
833.166
850.382
872.834
900.068
931.374
965.627
1001.5
1037.58
1072.48
1105.05
1134.55
1160.72
1183.68
1203.76
1221.34
1236.77
1250.54
1263.22
1275.24
1286.72
1297.6
1307.74
1317.1
1325.67
1333.37
1340.04
1345.4
1349.11
1350.79
1350.16
1347.19
1342.36
1336.64
1331.05
1326.11
1321.43
1316.2
1309.98
1302.96
1295.53
1287.85
1279.72
1270.81
1260.69
1248.83
1234.58
1217.57
1197.44
1173.13
1143.01
1105.76
1060.84
1007.98
946.386
874.76
791.966
697.285
590.866
472.454
345.53
202.655
82.3872
2779.91
3081.52
4109.57
4260.22
4032.11
3929.9
3959.54
3999.44
4006.35
3997.95
3993.45
3994.9
3997.46
3998.69
3999.08
3999.53
4000.26
4001.05
4001.8
4002.49
4003.17
4003.86
4004.54
4005.22
4005.87
4006.52
4007.15
4007.76
4008.36
4008.93
4009.48
4010.01
4010.51
4010.98
4011.41
4011.8
4012.15
4012.45
4012.69
4012.86
4012.97
4012.99
4012.93
4012.77
4012.49
4012.1
4011.56
4010.86
4010
4008.94
4007.66
4006.15
4004.37
4002.29
3999.89
3997.12
3993.94
3990.32
3986.21
3981.55
3976.29
3970.37
3963.71
3956.26
3947.93
3938.63
3928.27
3916.77
3904.01
3889.88
3874.28
3857.09
3838.19
3817.45
3794.77
3770.04
3743.16
3714.06
3682.69
3649.02
3613.09
3574.95
3534.72
3492.57
3448.71
3403.4
3356.93
3309.61
3261.79
3213.82
3166
3118.63
3071.99
3026.31
2981.83
2938.78
2897.38
2857.89
2820.56
2785.6
2753.1
2723.06
2695.41
2670.05
2646.85
2625.67
2606.34
2588.68
2572.49
2557.58
2543.71
2530.65
2518.15
2505.91
2493.63
2480.97
2467.55
2452.96
2436.73
2418.33
2397.18
2372.63
2344
2310.57
2271.63
2226.49
2174.63
2115.74
2049.76
1976.89
1897.83
1814.03
1728.01
1642.55
1559.21
1478.46
1401.52
1330.68
1267.39
1211.27
1161.35
1117.24
1078.84
1045.71
1017.09
992.514
972.046
955.548
942.161
930.568
919.457
907.856
895.236
881.368
866.13
849.51
831.694
813.088
794.269
775.965
759.05
744.229
732.772
724.523
719.858
719.135
722.104
728.196
736.738
747.057
758.505
770.464
782.369
793.72
804.087
813.085
820.365
825.653
828.829
829.972
829.344
827.339
824.463
821.342
818.796
817.952
820.5
827.501
840.587
858.891
882.295
910.669
943.409
978.911
1015.79
1052.71
1088.3
1121.29
1150.67
1175.85
1197.39
1216.51
1234
1249.99
1264.49
1277.76
1290.25
1302.34
1314.28
1326.22
1338.19
1349.95
1361.08
1371.33
1380.49
1388.13
1393.33
1394.61
1390.6
1381.24
1369.04
1358.22
1351.84
1349.49
1347.97
1344.42
1338.25
1330.18
1320.61
1309.47
1296.51
1281.66
1264.87
1245.65
1223.77
1199.62
1173.26
1143.39
1107.89
1065.32
1015.27
956.921
888.879
809.578
717.649
612.875
494.289
363.666
212.333
84.9897
2779.95
3081.57
4109.61
4260.24
4032.13
3929.93
3959.57
3999.47
4006.38
3997.98
3993.49
3994.94
3997.5
3998.73
3999.12
3999.57
4000.3
4001.1
4001.85
4002.55
4003.24
4003.93
4004.62
4005.3
4005.97
4006.62
4007.27
4007.89
4008.5
4009.09
4009.66
4010.21
4010.73
4011.23
4011.69
4012.11
4012.49
4012.82
4013.1
4013.33
4013.49
4013.57
4013.57
4013.48
4013.28
4012.97
4012.53
4011.94
4011.18
4010.25
4009.11
4007.74
4006.12
4004.22
4002.01
3999.44
3996.49
3993.11
3989.24
3984.85
3979.87
3974.25
3967.91
3960.77
3952.77
3943.81
3933.79
3922.62
3910.18
3896.36
3881.03
3864.07
3845.32
3824.67
3801.97
3777.09
3749.91
3720.33
3688.28
3653.74
3616.71
3577.27
3535.55
3491.75
3446.15
3399.08
3350.88
3301.9
3252.49
3202.99
3153.75
3105.07
3057.3
3010.75
2965.7
2922.3
2880.7
2841.05
2803.63
2768.72
2736.49
2706.95
2680
2655.5
2633.3
2613.23
2595.11
2578.76
2563.98
2550.57
2538.31
2526.98
2516.32
2506.08
2495.96
2485.63
2474.75
2462.93
2449.73
2434.63
2416.99
2396.04
2370.84
2340.27
2303.22
2258.78
2206.48
2146.08
2077.39
2000.15
1914.37
1820.88
1723.77
1628.14
1535.1
1442.58
1352.83
1273.8
1209.39
1156.65
1111.8
1073.73
1042.65
1017.94
997.648
980.013
964.681
951.849
941.376
932.68
924.516
915.299
903.953
890.192
874.048
855.618
835.241
813.554
791.403
769.738
749.441
731.336
716.652
704.987
698.58
697.084
699.966
706.8
716.932
729.604
743.965
759.054