/*--------------------------------*- C++ -*----------------------------------*\
| =========                 |                                                 |
| \\      /  F ield         | OpenFOAM: The Open Source CFD Toolbox           |
|  \\    /   O peration     | Version:  2406                                  |
|   \\  /    A nd           | Website:  www.openfoam.com                      |
|    \\/     M anipulation  |                                                 |
\*---------------------------------------------------------------------------*/
FoamFile
{
    version     2.0;
    format      ascii;
    arch        "LSB;label=32;scalar=64";
    class       surfaceScalarField;
    location    "0.15";
    object      phi;
}
// * * * * * * * * * * * * * * * * * * * * * * * * * * * * * * * * * * * * * //

dimensions      [0 3 -1 0 0 0 0];

oriented        oriented;

internalField   nonuniform List<scalar> 
12225
(
2.29029e-05
9.0001e-09
2.28784e-05
2.44544e-08
2.28551e-05
2.33298e-08
2.28374e-05
1.77011e-08
2.28188e-05
1.85783e-08
2.27968e-05
2.2039e-08
2.27729e-05
2.38727e-08
2.27487e-05
2.41765e-08
2.27244e-05
2.42971e-08
2.26996e-05
2.48049e-08
2.26742e-05
2.54319e-08
2.26483e-05
2.59347e-08
2.26219e-05
2.63188e-08
2.25953e-05
2.6674e-08
2.25682e-05
2.70446e-08
2.25408e-05
2.74298e-08
2.2513e-05
2.78246e-08
2.24847e-05
2.82343e-08
2.24561e-05
2.86687e-08
2.24269e-05
2.91343e-08
2.23973e-05
2.96355e-08
2.23671e-05
3.01774e-08
2.23364e-05
3.07673e-08
2.23049e-05
3.14147e-08
2.22728e-05
3.21315e-08
2.22399e-05
3.29318e-08
2.2206e-05
3.38323e-08
2.21712e-05
3.48517e-08
2.21352e-05
3.60102e-08
2.20978e-05
3.73296e-08
2.2059e-05
3.8833e-08
2.20185e-05
4.05452e-08
2.1976e-05
4.24937e-08
2.19313e-05
4.47093e-08
2.1884e-05
4.72271e-08
2.1834e-05
5.00876e-08
2.17806e-05
5.33377e-08
2.17236e-05
5.70318e-08
2.16624e-05
6.12327e-08
2.15963e-05
6.60133e-08
2.15249e-05
7.14577e-08
2.14472e-05
7.76624e-08
2.13625e-05
8.47385e-08
2.12697e-05
9.2813e-08
2.11676e-05
1.02031e-07
2.10551e-05
1.12557e-07
2.09305e-05
1.2458e-07
2.07922e-05
1.38312e-07
2.06382e-05
1.53995e-07
2.04663e-05
1.71898e-07
2.0274e-05
1.92326e-07
2.00584e-05
2.15614e-07
1.98162e-05
2.42133e-07
1.95439e-05
2.72283e-07
1.92374e-05
3.06491e-07
1.88922e-05
3.45198e-07
1.85034e-05
3.88844e-07
1.80656e-05
4.37842e-07
1.7573e-05
4.92541e-07
1.70198e-05
5.53179e-07
1.64e-05
6.19846e-07
1.57076e-05
6.92401e-07
1.49372e-05
7.70384e-07
1.40843e-05
8.529e-07
1.31458e-05
9.38492e-07
1.21207e-05
1.0251e-06
1.10101e-05
1.11061e-06
9.81833e-06
1.19178e-06
8.55385e-06
1.26448e-06
7.23012e-06
1.32373e-06
5.86619e-06
1.36393e-06
4.48739e-06
1.37881e-06
3.12528e-06
1.36211e-06
1.81206e-06
1.31321e-06
6.36213e-07
1.17585e-06
9.23759e-08
5.43837e-07
6.84435e-07
-5.92059e-07
1.92229e-06
-1.23786e-06
1.01738e-06
9.04911e-07
5.57907e-07
4.59475e-07
4.14835e-07
1.43072e-07
3.4571e-07
6.91248e-08
2.92953e-07
5.27573e-08
2.63185e-07
2.97686e-08
2.45641e-07
1.75438e-08
2.32503e-07
1.31378e-08
2.25092e-07
7.41054e-09
2.1892e-07
6.1723e-09
2.07977e-07
1.09427e-08
1.94371e-07
1.36066e-08
1.82766e-07
1.16046e-08
1.74282e-07
8.484e-09
1.66917e-07
7.36546e-09
1.58271e-07
8.64553e-09
1.49371e-07
8.90058e-09
1.43288e-07
6.08299e-09
1.41542e-07
1.74575e-09
1.4331e-07
-1.76794e-09
1.45854e-07
-2.54459e-09
1.46626e-07
-7.71331e-10
1.45398e-07
1.2276e-09
1.42794e-07
2.60373e-09
1.3922e-07
3.57463e-09
1.35189e-07
4.03089e-09
1.3159e-07
3.5985e-09
1.2973e-07
1.86043e-09
1.304e-07
-6.6966e-10
1.33474e-07
-3.07394e-09
1.38076e-07
-4.6022e-09
1.43002e-07
-4.926e-09
1.46643e-07
-3.64112e-09
1.4853e-07
-1.88714e-09
1.50773e-07
-2.24281e-09
1.55362e-07
-4.58897e-09
1.62363e-07
-7.00134e-09
1.70773e-07
-8.4099e-09
1.79422e-07
-8.64918e-09
1.87404e-07
-7.98164e-09
1.93532e-07
-6.12811e-09
1.96024e-07
-2.49221e-09
1.93257e-07
2.76732e-09
1.85127e-07
8.13027e-09
1.74115e-07
1.10118e-08
1.63244e-07
1.08712e-08
1.54602e-07
8.64116e-09
1.48892e-07
5.7105e-09
1.45826e-07
3.06563e-09
1.44857e-07
9.68958e-10
1.45742e-07
-8.8484e-10
1.48215e-07
-2.4728e-09
1.50267e-07
-2.05213e-09
1.48798e-07
1.46861e-09
1.43202e-07
5.59632e-09
1.35426e-07
7.77569e-09
1.27083e-07
8.34338e-09
1.18472e-07
8.61136e-09
1.10184e-07
8.28766e-09
1.02541e-07
7.64281e-09
9.5042e-08
7.49924e-09
8.76169e-08
7.42516e-09
8.07689e-08
6.84797e-09
7.49219e-08
5.84699e-09
7.02769e-08
4.64499e-09
6.574e-08
4.53688e-09
6.05062e-08
5.23383e-09
5.49208e-08
5.58538e-09
4.97358e-08
5.18506e-09
4.57709e-08
3.96484e-09
4.31517e-08
2.61918e-09
4.1372e-08
1.77974e-09
4.00621e-08
1.3099e-09
3.86718e-08
1.39033e-09
3.72072e-08
1.46456e-09
3.61449e-08
1.06225e-09
3.55183e-08
6.26629e-10
3.48339e-08
6.84394e-10
3.37982e-08
1.03571e-09
3.29597e-08
8.38472e-10
3.31819e-08
-2.22195e-10
3.44411e-08
-1.2592e-09
3.61638e-08
-1.72261e-09
3.82394e-08
-2.07567e-09
4.10898e-08
-2.85042e-09
4.4832e-08
-3.74212e-09
4.9046e-08
-4.2141e-09
5.29431e-08
-3.89708e-09
5.57594e-08
-2.8163e-09
5.72931e-08
-1.53364e-09
5.81407e-08
-8.47668e-10
5.88973e-08
-7.56535e-10
5.97757e-08
-8.78432e-10
6.11989e-08
-1.42315e-09
6.37023e-08
-2.50339e-09
6.71631e-08
-3.4609e-09
7.08598e-08
-3.69667e-09
7.43156e-08
-3.45582e-09
7.76388e-08
-3.32318e-09
8.10083e-08
-3.36945e-09
8.43043e-08
-3.29601e-09
8.72258e-08
-2.92153e-09
8.94211e-08
-2.19529e-09
9.04704e-08
-1.0493e-09
8.99286e-08
5.4178e-10
8.77214e-08
2.20717e-09
8.45901e-08
3.13133e-09
8.17053e-08
2.88479e-09
7.97018e-08
2.00353e-09
7.81228e-08
1.57899e-09
7.62056e-08
1.91726e-09
7.36461e-08
2.55948e-09
7.07874e-08
2.8587e-09
6.82987e-08
2.48868e-09
6.67527e-08
1.54599e-09
6.63004e-08
4.52261e-10
6.64813e-08
-1.80879e-10
6.6595e-08
-1.13666e-10
6.59763e-08
6.18696e-10
6.43915e-08
1.58478e-09
6.21986e-08
2.19295e-09
5.98948e-08
2.30374e-09
5.7635e-08
2.25986e-09
5.53276e-08
2.30735e-09
5.30887e-08
2.2389e-09
5.08211e-08
2.26758e-09
4.82703e-08
2.55087e-09
4.56539e-08
2.61634e-09
4.35254e-08
2.12855e-09
4.21921e-08
1.33326e-09
4.15785e-08
6.13606e-10
4.13349e-08
2.43654e-10
4.11061e-08
2.2877e-10
4.07047e-08
4.0141e-10
3.97152e-08
9.89498e-10
3.7793e-08
1.92221e-09
3.4948e-08
2.84503e-09
3.18616e-08
3.08635e-09
2.92809e-08
2.58071e-09
2.76222e-08
1.65871e-09
2.69635e-08
6.58654e-10
2.6965e-08
-1.45263e-12
2.69744e-08
-9.40893e-12
2.64878e-08
4.86594e-10
2.53891e-08
1.09875e-09
2.40335e-08
1.35556e-09
2.2674e-08
1.35952e-09
2.13626e-08
1.31137e-09
2.00742e-08
1.28836e-09
1.87156e-08
1.35862e-09
1.73554e-08
1.36024e-09
1.6416e-08
9.39393e-10
1.65379e-08
-1.21928e-10
1.79041e-08
-1.36616e-09
2.0074e-08
-2.16991e-09
2.23808e-08
-2.30682e-09
2.42606e-08
-1.87984e-09
2.52242e-08
-9.63518e-10
2.49284e-08
2.95778e-10
2.33023e-08
1.6261e-09
2.04733e-08
2.82896e-09
1.67324e-08
3.74098e-09
1.21289e-08
4.60348e-09
6.51528e-09
5.61361e-09
-1.80597e-09
8.32124e-09
-1.56397e-08
1.38338e-08
-3.45101e-08
1.88704e-08
-5.70604e-08
2.25503e-08
-8.60065e-08
2.89461e-08
-1.23947e-07
3.79404e-08
-1.70311e-07
4.63642e-08
5.2475e-08
2.29527e-05
-1.43094e-10
2.29734e-05
3.78105e-09
2.29894e-05
7.30413e-09
2.29973e-05
9.83987e-09
2.30066e-05
9.27477e-09
2.30195e-05
9.14797e-09
2.30333e-05
9.99886e-09
2.30466e-05
1.08966e-08
2.30595e-05
1.14569e-08
2.30724e-05
1.18262e-08
2.30857e-05
1.22063e-08
2.3099e-05
1.26217e-08
2.31123e-05
1.30252e-08
2.31255e-05
1.34023e-08
2.31388e-05
1.37698e-08
2.31521e-05
1.41446e-08
2.31654e-05
1.45334e-08
2.31787e-05
1.49401e-08
2.3192e-05
1.53705e-08
2.32053e-05
1.58328e-08
2.32186e-05
1.63348e-08
2.32319e-05
1.68841e-08
2.32452e-05
1.74889e-08
2.32584e-05
1.8158e-08
2.32716e-05
1.89012e-08
2.32848e-05
1.97295e-08
2.3298e-05
2.06551e-08
2.33112e-05
2.16919e-08
2.33243e-05
2.28558e-08
2.33375e-05
2.41649e-08
2.33507e-05
2.56402e-08
2.33639e-05
2.73057e-08
2.33772e-05
2.91889e-08
2.33906e-05
3.13216e-08
2.34041e-05
3.37402e-08
2.34177e-05
3.64869e-08
2.34314e-05
3.96099e-08
2.34453e-05
4.31652e-08
2.34593e-05
4.72176e-08
2.34735e-05
5.18419e-08
2.34878e-05
5.71255e-08
2.35023e-05
6.31697e-08
2.3517e-05
7.00928e-08
2.35317e-05
7.8033e-08
2.35466e-05
8.71517e-08
2.35615e-05
9.76379e-08
2.35764e-05
1.09713e-07
2.35911e-05
1.23638e-07
2.36054e-05
1.39718e-07
2.36189e-05
1.58312e-07
2.36314e-05
1.7984e-07
2.36423e-05
2.04798e-07
2.36506e-05
2.33762e-07
2.36555e-05
2.67404e-07
2.36555e-05
3.06502e-07
2.36487e-05
3.51951e-07
2.36328e-05
4.0477e-07
2.36045e-05
4.66103e-07
2.35599e-05
5.37189e-07
2.34939e-05
6.19195e-07
2.34004e-05
7.13358e-07
2.32719e-05
8.20832e-07
2.30998e-05
9.4257e-07
2.28735e-05
1.07918e-06
2.25812e-05
1.23074e-06
2.22097e-05
1.3966e-06
2.17452e-05
1.57513e-06
2.11736e-05
1.76337e-06
2.04814e-05
1.95673e-06
1.96563e-05
2.14878e-06
1.86895e-05
2.33074e-06
1.75765e-05
2.49176e-06
1.63237e-05
2.61492e-06
1.49509e-05
2.68606e-06
1.34577e-05
2.669e-06
1.14408e-05
2.56081e-06
8.39651e-06
2.45219e-06
4.82152e-06
2.33713e-06
2.83527e-06
2.89117e-06
1.73119e-06
1.56355e-06
1.32707e-06
5.47197e-07
1.06954e-06
3.2665e-07
9.02126e-07
2.20173e-07
8.13659e-07
1.18236e-07
7.36823e-07
9.43802e-08
6.74311e-07
7.56491e-08
6.34715e-07
4.70069e-08
6.00499e-07
4.03882e-08
5.59374e-07
5.20675e-08
5.18882e-07
5.40991e-08
4.87092e-07
4.33939e-08
4.639e-07
3.16766e-08
4.44087e-07
2.71785e-08
4.21088e-07
3.16439e-08
3.96683e-07
3.33061e-08
3.78817e-07
2.39484e-08
3.71766e-07
8.79764e-09
3.71285e-07
-1.28767e-09
3.71834e-07
-3.09361e-09
3.70329e-07
7.34414e-10
3.67435e-07
4.12096e-09
3.62997e-07
7.04202e-09
3.57587e-07
8.98427e-09
3.51871e-07
9.74726e-09
3.47133e-07
8.33651e-09
3.46353e-07
2.64025e-09
3.50493e-07
-4.80925e-09
3.58774e-07
-1.13554e-08
3.69581e-07
-1.5409e-08
3.81243e-07
-1.65881e-08
3.91489e-07
-1.38871e-08
3.97782e-07
-8.18031e-09
4.04939e-07
-9.39978e-09
4.16457e-07
-1.61063e-08
4.31584e-07
-2.2129e-08
4.48457e-07
-2.52831e-08
4.65465e-07
-2.56564e-08
4.8151e-07
-2.40266e-08
4.94909e-07
-1.95275e-08
5.02279e-07
-9.86235e-09
4.99379e-07
5.66769e-09
4.86144e-07
2.13646e-08
4.67057e-07
3.00989e-08
4.45572e-07
3.23563e-08
4.26483e-07
2.77306e-08
4.12002e-07
2.01909e-08
4.01486e-07
1.35819e-08
3.93455e-07
9.00018e-09
3.87912e-07
4.65775e-09
3.86617e-07
-1.17758e-09
3.86292e-07
-1.72739e-09
3.79661e-07
8.10028e-09
3.63312e-07
2.19448e-08
3.41422e-07
2.9666e-08
3.17105e-07
3.26602e-08
2.92773e-07
3.29435e-08
2.71296e-07
2.97643e-08
2.53524e-07
2.54148e-08
2.3593e-07
2.50932e-08
2.16961e-07
2.63949e-08
1.98777e-07
2.50318e-08
1.82251e-07
2.23729e-08
1.70691e-07
1.62054e-08
1.60862e-07
1.43653e-08
1.47885e-07
1.82111e-08
1.33392e-07
2.00784e-08
1.21098e-07
1.74792e-08
1.13813e-07
1.12494e-08
1.07466e-07
8.96658e-09
1.01403e-07
7.84259e-09
9.67356e-08
5.97731e-09
9.23416e-08
5.78431e-09
8.80369e-08
5.76924e-09
8.5839e-08
3.26017e-09
8.56151e-08
8.5052e-10
8.59549e-08
3.44665e-10
8.53663e-08
1.62429e-09
8.45871e-08
1.61769e-09
8.62194e-08
-1.85456e-09
9.04343e-08
-5.47401e-09
9.50107e-08
-6.29904e-09
9.96356e-08
-6.70054e-09
1.05891e-07
-9.10624e-09
1.14067e-07
-1.19176e-08
1.23292e-07
-1.34393e-08
1.32291e-07
-1.28957e-08
1.4006e-07
-1.05853e-08
1.46159e-07
-7.63263e-09
1.5134e-07
-6.02873e-09
1.56189e-07
-5.60554e-09
1.60916e-07
-5.60585e-09
1.66697e-07
-7.20424e-09
1.74577e-07
-1.0383e-08
1.84051e-07
-1.2935e-08
1.93193e-07
-1.28387e-08
2.0119e-07
-1.14524e-08
2.08836e-07
-1.097e-08
2.16913e-07
-1.14463e-08
2.25174e-07
-1.15566e-08
2.32954e-07
-1.07013e-08
2.39687e-07
-8.92915e-09
2.44562e-07
-5.9242e-09
2.46718e-07
-1.61413e-09
2.46339e-07
2.58599e-09
2.44385e-07
5.08631e-09
2.4407e-07
3.19945e-09
2.46188e-07
-1.14897e-10
2.47744e-07
2.3233e-11
2.46336e-07
3.32553e-09
2.41691e-07
7.20455e-09
2.35495e-07
9.05433e-09
2.29499e-07
8.48434e-09
2.24894e-07
6.15123e-09
2.22007e-07
3.33987e-09
2.20273e-07
1.55221e-09
2.18299e-07
1.86062e-09
2.14364e-07
4.55399e-09
2.07411e-07
8.53792e-09
1.98459e-07
1.11446e-08
1.89471e-07
1.12913e-08
1.81138e-07
1.05936e-08
1.72821e-07
1.06244e-08
1.65083e-07
9.97658e-09
1.57631e-07
9.71917e-09
1.49364e-07
1.0818e-08
1.40477e-07
1.15038e-08
1.32046e-07
1.05597e-08
1.24582e-07
8.79744e-09
1.18046e-07
7.14936e-09
1.12118e-07
6.17099e-09
1.06589e-07
5.7578e-09
1.0172e-07
5.27074e-09
9.72482e-08
5.46136e-09
9.17267e-08
7.44368e-09
8.4547e-08
1.00248e-08
7.72648e-08
1.03686e-08
7.15704e-08
8.27504e-09
6.80897e-08
5.13949e-09
6.71241e-08
1.62416e-09
6.80727e-08
-9.50021e-10
6.91771e-08
-1.11381e-09
6.87339e-08
9.29856e-10
6.58461e-08
3.98652e-09
6.32172e-08
3.98442e-09
6.12734e-08
3.30329e-09
5.9103e-08
3.48185e-09
5.70835e-08
3.30779e-09
5.58824e-08
2.55974e-09
5.51685e-08
2.07416e-09
5.5233e-08
8.7493e-10
5.64835e-08
-1.37243e-09
5.88802e-08
-3.76292e-09
6.1539e-08
-4.82866e-09
6.41206e-08
-4.88848e-09
6.62172e-08
-3.9764e-09
6.62176e-08
-9.63929e-10
6.36229e-08
2.89049e-09
5.66913e-08
8.55765e-09
4.44474e-08
1.50728e-08
2.81197e-08
2.00688e-08
7.71929e-09
2.50038e-08
-1.71767e-08
3.05096e-08
-5.08226e-08
4.19671e-08
-9.42442e-08
5.72554e-08
-1.41579e-07
6.6205e-08
-1.91084e-07
7.20556e-08
-2.52895e-07
9.07571e-08
-3.27147e-07
1.12192e-07
-4.05212e-07
1.24429e-07
1.29785e-07
2.29366e-05
1.39998e-09
2.29363e-05
4.08022e-09
2.29385e-05
5.11578e-09
2.29426e-05
5.75944e-09
2.29453e-05
6.60152e-09
2.29469e-05
7.54777e-09
2.29485e-05
8.38811e-09
2.29503e-05
9.07167e-09
2.29521e-05
9.63772e-09
2.29538e-05
1.01378e-08
2.29554e-05
1.06199e-08
2.29569e-05
1.10977e-08
2.29584e-05
1.15653e-08
2.29598e-05
1.20219e-08
2.29611e-05
1.24766e-08
2.29623e-05
1.29398e-08
2.29634e-05
1.34191e-08
2.29644e-05
1.39209e-08
2.29653e-05
1.4453e-08
2.29661e-05
1.50249e-08
2.29668e-05
1.56465e-08
2.29674e-05
1.63284e-08
2.29678e-05
1.70816e-08
2.2968e-05
1.79179e-08
2.29681e-05
1.88499e-08
2.29679e-05
1.98914e-08
2.29675e-05
2.10571e-08
2.29668e-05
2.23635e-08
2.29659e-05
2.38291e-08
2.29646e-05
2.54751e-08
2.29629e-05
2.73257e-08
2.29608e-05
2.94088e-08
2.29582e-05
3.17566e-08
2.29551e-05
3.44057e-08
2.29515e-05
3.73978e-08
2.29472e-05
4.07805e-08
2.29422e-05
4.46078e-08
2.29364e-05
4.89411e-08
2.29298e-05
5.38501e-08
2.29222e-05
5.94141e-08
2.29136e-05
6.57236e-08
2.29039e-05
7.28813e-08
2.2893e-05
8.10043e-08
2.28808e-05
9.02263e-08
2.28672e-05
1.007e-07
2.28523e-05
1.12598e-07
2.28359e-05
1.2612e-07
2.2818e-05
1.41493e-07
2.27987e-05
1.58974e-07
2.27782e-05
1.7886e-07
2.27565e-05
2.01489e-07
2.27341e-05
2.27246e-07
2.27113e-05
2.56573e-07
2.26887e-05
2.89975e-07
2.26672e-05
3.28029e-07
2.26477e-05
3.71396e-07
2.26317e-05
4.20829e-07
2.26206e-05
4.77189e-07
2.26163e-05
5.41479e-07
2.26207e-05
6.14829e-07
2.26355e-05
6.98529e-07
2.26623e-05
7.94035e-07
2.27019e-05
9.02954e-07
2.27541e-05
1.027e-06
2.28169e-05
1.16795e-06
2.2886e-05
1.32748e-06
2.29541e-05
1.50703e-06
2.30099e-05
1.70757e-06
2.30373e-05
1.9293e-06
2.30147e-05
2.17139e-06
2.29137e-05
2.43173e-06
2.26982e-05
2.70728e-06
2.23196e-05
2.99352e-06
2.17166e-05
3.28913e-06
2.07936e-05
3.59198e-06
1.94402e-05
3.9142e-06
1.75989e-05
4.29344e-06
1.52209e-05
4.71513e-06
1.26101e-05
5.502e-06
9.22749e-06
4.94618e-06
5.81863e-06
3.95606e-06
2.92679e-06
3.21848e-06
1.83992e-06
1.30705e-06
1.55365e-06
4.04504e-07
1.36113e-06
2.86895e-07
1.18929e-06
2.47487e-07
1.06448e-06
1.71825e-07
9.75181e-07
1.29683e-07
8.84959e-07
1.4229e-07
8.0868e-07
1.30378e-07
7.58892e-07
9.31823e-08
7.29717e-07
6.08521e-08
7.00746e-07
5.61486e-08
6.43464e-07
8.89266e-08
5.86106e-07
9.06638e-08
5.50779e-07
5.92754e-08
5.39583e-07
1.9994e-08
5.46871e-07
-8.57595e-09
5.60642e-07
-1.68642e-08
5.48131e-07
1.32449e-08
5.26219e-07
2.6033e-08
5.10378e-07
2.28829e-08
4.9896e-07
2.04022e-08
4.93625e-07
1.50827e-08
4.89824e-07
1.2137e-08
4.93178e-07
-7.13981e-10
5.02992e-07
-1.46233e-08
5.17225e-07
-2.55877e-08
5.33637e-07
-3.18208e-08
5.50309e-07
-3.32602e-08
5.64989e-07
-2.85675e-08
5.76175e-07
-1.93664e-08
5.91622e-07
-2.48465e-08
6.08719e-07
-3.32034e-08
6.27113e-07
-4.05229e-08
6.45922e-07
-4.4092e-08
6.656e-07
-4.53344e-08
6.87093e-07
-4.55201e-08
7.08955e-07
-4.13894e-08
7.30356e-07
-3.12632e-08
7.54039e-07
-1.80151e-08
7.52044e-07
2.33596e-08
7.34073e-07
4.80694e-08
7.12513e-07
5.3916e-08
6.94724e-07
4.55204e-08
6.82178e-07
3.27364e-08
6.69849e-07
2.5911e-08
6.52343e-07
2.65064e-08
6.33163e-07
2.38379e-08
6.24018e-07
7.96718e-09
6.30984e-07
-8.69368e-09
6.27428e-07
1.16567e-08
6.01434e-07
4.79383e-08
5.67773e-07
6.33275e-08
5.29616e-07
7.08171e-08
4.92303e-07
7.02559e-08
4.61176e-07
6.0892e-08
4.46978e-07
3.96122e-08
4.22915e-07
4.91562e-08
3.94078e-07
5.52322e-08
3.68512e-07
5.05981e-08
3.42192e-07
4.8693e-08
3.13464e-07
4.49325e-08
2.60917e-07
6.69132e-08
2.28321e-07
5.08066e-08
2.08482e-07
3.9917e-08
1.99541e-07
2.64211e-08
2.02048e-07
8.74177e-09
2.06249e-07
4.76573e-09
1.74082e-07
4.00097e-08
1.5492e-07
2.51389e-08
1.44734e-07
1.59709e-08
1.39501e-07
1.10025e-08
1.37422e-07
5.33844e-09
1.36683e-07
1.5902e-09
1.36413e-07
6.14017e-10
1.39458e-07
-1.42089e-09
1.41472e-07
-3.95371e-10
1.40184e-07
-5.6664e-10
1.43657e-07
-8.94763e-09
1.45691e-07
-8.33256e-09
1.46138e-07
-7.14817e-09
1.51488e-07
-1.44562e-08
1.57045e-07
-1.74739e-08
1.63972e-07
-2.03662e-08
1.73475e-07
-2.23987e-08
1.82846e-07
-1.99572e-08
1.92738e-07
-1.75247e-08
2.0667e-07
-1.99601e-08
2.25112e-07
-2.40477e-08
2.39499e-07
-1.9993e-08
2.49922e-07
-1.76268e-08
2.59432e-07
-1.98932e-08
2.7182e-07
-2.53229e-08
2.83777e-07
-2.4796e-08
2.91887e-07
-1.95627e-08
2.99499e-07
-1.85817e-08
3.08779e-07
-2.07261e-08
3.18842e-07
-2.162e-08
3.29085e-07
-2.09438e-08
3.40278e-07
-2.01222e-08
3.51976e-07
-1.76227e-08
3.623e-07
-1.19373e-08
3.68529e-07
-3.64389e-09
3.70973e-07
2.6429e-09
3.76726e-07
-2.55336e-09
3.88634e-07
-1.20234e-08
3.99751e-07
-1.10932e-08
4.05356e-07
-2.27994e-09
4.03305e-07
9.25552e-09
3.9675e-07
1.56089e-08
3.90812e-07
1.44225e-08
3.87614e-07
9.35002e-09
3.86674e-07
4.27903e-09
3.86499e-07
1.72756e-09
3.84381e-07
3.97816e-09
3.77604e-07
1.13316e-08
3.63446e-07
2.26959e-08
3.4446e-07
3.01307e-08
3.2545e-07
3.03011e-08
3.09024e-07
2.70198e-08
2.931e-07
2.65486e-08
2.81101e-07
2.19756e-08
2.7296e-07
1.78595e-08
2.62034e-07
2.1744e-08
2.46665e-07
2.68734e-08
2.32035e-07
2.51897e-08
2.19755e-07
2.10771e-08
2.09394e-07
1.75106e-08
1.99036e-07
1.65286e-08
1.87212e-07
1.75816e-08
1.78835e-07
1.36486e-08
1.75268e-07
9.02821e-09
1.63424e-07
1.92877e-08
1.4189e-07
3.15589e-08
1.25964e-07
2.62945e-08
1.2009e-07
1.4149e-08
1.16005e-07
9.22375e-09
1.13004e-07
4.62521e-09
1.1043e-07
1.62416e-09
1.05388e-07
3.92861e-09
9.69681e-08
9.34957e-09
8.44693e-08
1.64853e-08
7.40126e-08
1.44411e-08
6.48897e-08
1.24262e-08
5.57495e-08
1.2622e-08
4.90175e-08
1.00398e-08
4.33886e-08
8.18864e-09
4.35705e-08
1.89228e-09
5.23718e-08
-7.92642e-09
7.12086e-08
-2.02092e-08
9.06132e-08
-2.31675e-08
1.0816e-07
-2.23754e-08
1.24573e-07
-2.13016e-08
1.38257e-07
-1.76605e-08
1.40901e-07
-3.60801e-09
1.33873e-07
9.91841e-09
1.15164e-07
2.72671e-08
9.02229e-08
4.00138e-08
6.28819e-08
4.74097e-08
2.83169e-08
5.95688e-08
-1.69429e-08
7.57695e-08
-1.14652e-07
1.39676e-07
-2.23396e-07
1.65999e-07
-2.92145e-07
1.34954e-07
-3.48877e-07
1.28787e-07
-4.48432e-07
1.90313e-07
-5.5269e-07
2.1645e-07
-6.45902e-07
2.17641e-07
2.16835e-07
2.29453e-05
3.75457e-10
2.29472e-05
2.13427e-09
2.29485e-05
3.82929e-09
2.29493e-05
4.98804e-09
2.29501e-05
5.7802e-09
2.29512e-05
6.45316e-09
2.29525e-05
7.1248e-09
2.29537e-05
7.78689e-09
2.2955e-05
8.40091e-09
2.29562e-05
8.96334e-09
2.29573e-05
9.49389e-09
2.29584e-05
1.0011e-08
2.29594e-05
1.05228e-08
2.29604e-05
1.10337e-08
2.29613e-05
1.15499e-08
2.29622e-05
1.20796e-08
2.2963e-05
1.26315e-08
2.29637e-05
1.32141e-08
2.29643e-05
1.38362e-08
2.29648e-05
1.45076e-08
2.29652e-05
1.52388e-08
2.29655e-05
1.6041e-08
2.29657e-05
1.69266e-08
2.29657e-05
1.79087e-08
2.29655e-05
1.90019e-08
2.29652e-05
2.02225e-08
2.29647e-05
2.15885e-08
2.29639e-05
2.31197e-08
2.29629e-05
2.48387e-08
2.29616e-05
2.67707e-08
2.296e-05
2.89444e-08
2.2958e-05
3.13919e-08
2.29556e-05
3.41499e-08
2.29528e-05
3.72601e-08
2.29494e-05
4.07694e-08
2.29454e-05
4.47311e-08
2.29408e-05
4.92055e-08
2.29355e-05
5.42607e-08
2.29294e-05
5.99741e-08
2.29224e-05
6.64327e-08
2.29144e-05
7.37354e-08
2.29052e-05
8.19938e-08
2.28949e-05
9.13339e-08
2.28832e-05
1.01898e-07
2.28701e-05
1.13847e-07
2.28553e-05
1.27362e-07
2.28388e-05
1.42646e-07
2.28204e-05
1.59929e-07
2.27999e-05
1.79466e-07
2.27772e-05
2.01546e-07
2.27522e-05
2.26488e-07
2.27248e-05
2.5465e-07
2.26949e-05
2.86425e-07
2.26627e-05
3.22251e-07
2.26281e-05
3.62607e-07
2.25915e-05
4.08015e-07
2.25532e-05
4.59046e-07
2.25141e-05
5.16319e-07
2.24751e-05
5.80503e-07
2.24376e-05
6.52315e-07
2.24036e-05
7.32525e-07
2.23757e-05
8.21972e-07
2.2357e-05
9.21581e-07
2.23517e-05
1.03239e-06
2.2364e-05
1.15559e-06
2.23989e-05
1.29259e-06
2.24609e-05
1.44507e-06
2.25534e-05
1.61509e-06
2.26775e-05
1.8051e-06
2.28309e-05
2.01802e-06
2.30054e-05
2.25725e-06
2.3186e-05
2.52672e-06
2.33487e-05
2.83081e-06
2.34637e-05
3.17406e-06
2.34941e-05
3.56163e-06
2.34124e-05
3.99588e-06
2.32122e-05
4.49363e-06
2.28955e-05
5.03188e-06
2.26911e-05
5.70633e-06
2.14349e-05
6.20244e-06
1.89414e-05
6.44951e-06
1.51629e-05
6.99704e-06
1.08693e-05
5.60058e-06
7.01257e-06
4.26127e-06
4.0031e-06
3.29636e-06
2.42087e-06
1.82972e-06
1.84569e-06
7.47003e-07
1.58429e-06
3.91078e-07
1.40791e-06
3.18678e-07
1.29457e-06
2.4371e-07
1.21e-06
1.77759e-07
1.11464e-06
1.56209e-07
1.0503e-06
1.20486e-07
8.53106e-07
2.86124e-07
7.65534e-07
1.78235e-07
7.50755e-07
7.40553e-08
7.79405e-07
-8.65657e-09
8.12086e-07
-4.12573e-08
8.36654e-07
-4.14313e-08
7.1361e-07
1.36288e-07
6.24779e-07
1.14864e-07
5.73119e-07
7.4543e-08
5.37731e-07
5.57897e-08
5.2739e-07
2.54245e-08
5.59651e-07
-2.01243e-08
5.85609e-07
-2.66721e-08
6.01104e-07
-3.01182e-08
6.12981e-07
-3.74644e-08
6.24568e-07
-4.34082e-08
6.3906e-07
-4.77519e-08
6.49018e-07
-3.85259e-08
6.70788e-07
-4.11367e-08
6.99456e-07
-5.35145e-08
7.20279e-07
-5.40262e-08
7.34998e-07
-5.52421e-08
7.42965e-07
-5.20583e-08
7.51124e-07
-5.34941e-08
7.67138e-07
-6.15336e-08
7.81292e-07
-5.55435e-08
8.15936e-07
-6.59075e-08
8.48913e-07
-5.09923e-08
1.06533e-06
-1.93059e-07
1.09761e-06
1.57878e-08
1.07141e-06
8.0119e-08
1.04591e-06
7.10252e-08
1.03605e-06
4.25916e-08
1.02777e-06
3.4193e-08
1.00112e-06
5.3152e-08
9.58364e-07
6.65965e-08
9.34298e-07
3.20337e-08
9.39943e-07
-1.43388e-08
9.76735e-07
-2.5135e-08
9.46612e-07
7.80607e-08
8.91253e-07
1.18687e-07
8.3435e-07
1.2772e-07
7.80748e-07
1.23858e-07
7.63776e-07
7.7864e-08
7.95315e-07
8.07374e-09
8.52841e-07
-8.37045e-09
8.88459e-07
1.96142e-08
9.27765e-07
1.12928e-08
9.61241e-07
1.52164e-08
8.76772e-07
1.29401e-07
4.16321e-07
5.27365e-07
3.59149e-07
1.07978e-07
3.20552e-07
7.85141e-08
3.25538e-07
2.1435e-08
3.56149e-07
-2.18688e-08
4.0492e-07
-4.40056e-08
2.84694e-07
1.60236e-07
2.6473e-07
4.51026e-08
2.60063e-07
2.0638e-08
2.67391e-07
3.67371e-09
2.72469e-07
2.60863e-10
2.80485e-07
-6.42626e-09
2.83388e-07
-2.28869e-09
2.68183e-07
1.37839e-08
2.69016e-07
-1.22783e-09
2.71408e-07
-2.95857e-09
2.6162e-07
8.40216e-10
2.46307e-07
6.9804e-09
2.25144e-07
1.40149e-08
2.02525e-07
8.16203e-09
1.82849e-07
2.20291e-09
1.69704e-07
-7.22123e-09
1.62224e-07
-1.49195e-08
1.64976e-07
-2.27088e-08
1.70476e-07
-2.30244e-08
1.83885e-07
-3.33698e-08
2.20017e-07
-6.01795e-08
2.68209e-07
-6.81846e-08
3.08857e-07
-5.82746e-08
3.313e-07
-4.23367e-08
3.49925e-07
-4.39481e-08
3.64e-07
-3.88705e-08
3.64129e-07
-1.96915e-08
3.7294e-07
-2.73933e-08
3.83857e-07
-3.16433e-08
3.90486e-07
-2.82491e-08
3.90366e-07
-2.08232e-08
3.87733e-07
-1.7489e-08
3.83094e-07
-1.29841e-08
3.79554e-07
-8.39765e-09
3.8912e-07
-1.32096e-08
4.14891e-07
-2.31282e-08
4.54742e-07
-4.24041e-08
5.04829e-07
-6.21107e-08
5.4177e-07
-4.80339e-08
5.51911e-07
-1.24208e-08
5.44546e-07
1.66202e-08
5.46563e-07
1.3592e-08
5.54516e-07
6.46926e-09
5.60171e-07
3.69553e-09
5.64569e-07
-1.19001e-10
5.71765e-07
-5.46842e-09
5.81067e-07
-5.32423e-09
5.87004e-07
5.39493e-09
5.75173e-07
3.45263e-08
5.45523e-07
5.97807e-08
5.13705e-07
6.21193e-08
4.8657e-07
5.41552e-08
4.40517e-07
7.26017e-08
4.18237e-07
4.42552e-08
4.36063e-07
3.39187e-11
4.52847e-07
4.96021e-09
4.33773e-07
4.59468e-08
4.08412e-07
5.05509e-08
3.863e-07
4.31895e-08
3.64539e-07
3.92711e-08
3.45745e-07
3.53231e-08
3.35403e-07
2.79231e-08
3.73644e-07
-2.45925e-08
4.63865e-07
-8.11925e-08
4.54263e-07
2.88898e-08
4.01064e-07
8.4757e-08
3.58406e-07
6.8953e-08
3.5615e-07
1.64047e-08
4.27131e-07
-6.17565e-08
5.2466e-07
-9.29045e-08
4.41535e-07
8.4749e-08
3.77421e-07
6.80436e-08
3.6961e-07
1.71598e-08
3.15207e-07
7.08888e-08
1.84569e-07
1.45079e-07
3.45585e-08
1.62437e-07
-1.18534e-07
1.65715e-07
-2.37383e-07
1.28889e-07
-2.86069e-07
5.68748e-08
-2.83433e-07
-7.44099e-10
-3.04703e-07
1.33436e-08
-2.94729e-07
-3.01837e-08
-2.60485e-07
-5.74112e-08
-1.85459e-07
-9.74015e-08
-5.47812e-08
-1.51979e-07
1.25493e-07
-1.97935e-07
2.92412e-07
-1.70527e-07
3.89411e-07
-8.70805e-08
4.73587e-07
-5.69091e-08
5.23648e-07
-1.00474e-08
4.98669e-07
7.2389e-08
3.52175e-07
2.06062e-07
2.10497e-07
2.17448e-07
9.77582e-08
2.52416e-07
-3.75286e-08
3.01286e-07
-1.19362e-07
2.16787e-07
-2.93336e-07
3.02761e-07
-6.17301e-07
5.14278e-07
-7.93271e-07
3.9242e-07
-8.81632e-07
3.06003e-07
3.06875e-07
2.29448e-05
6.58138e-10
2.29444e-05
2.45237e-09
2.29448e-05
3.48724e-09
2.29457e-05
4.04805e-09
2.29469e-05
4.64636e-09
2.2948e-05
5.33964e-09
2.29491e-05
6.02933e-09
2.29502e-05
6.66161e-09
2.29514e-05
7.24127e-09
2.29525e-05
7.78956e-09
2.29537e-05
8.32345e-09
2.29549e-05
8.85195e-09
2.2956e-05
9.38002e-09
2.29571e-05
9.91272e-09
2.29582e-05
1.04569e-08
2.29593e-05
1.10204e-08
2.29603e-05
1.16115e-08
2.29613e-05
1.22389e-08
2.29622e-05
1.29116e-08
2.29631e-05
1.36399e-08
2.29639e-05
1.44347e-08
2.29646e-05
1.53082e-08
2.29652e-05
1.62735e-08
2.29658e-05
1.73448e-08
2.29663e-05
1.8538e-08
2.29666e-05
1.98705e-08
2.29669e-05
2.13617e-08
2.29669e-05
2.30329e-08
2.29669e-05
2.49082e-08
2.29666e-05
2.70148e-08
2.29662e-05
2.93829e-08
2.29655e-05
3.20469e-08
2.29646e-05
3.50457e-08
2.29635e-05
3.84232e-08
2.2962e-05
4.22288e-08
2.29602e-05
4.65182e-08
2.29581e-05
5.13543e-08
2.29555e-05
5.68077e-08
2.29525e-05
6.2958e-08
2.29491e-05
6.98947e-08
2.29451e-05
7.77181e-08
2.29406e-05
8.65411e-08
2.29354e-05
9.64903e-08
2.29296e-05
1.07708e-07
2.29231e-05
1.20352e-07
2.29158e-05
1.346e-07
2.29078e-05
1.50651e-07
2.2899e-05
1.68726e-07
2.28894e-05
1.8907e-07
2.2879e-05
2.11957e-07
2.28678e-05
2.37688e-07
2.28559e-05
2.66596e-07
2.28433e-05
2.99049e-07
2.28301e-05
3.35447e-07
2.28164e-05
3.76227e-07
2.28026e-05
4.21865e-07
2.27888e-05
4.7287e-07
2.27753e-05
5.2979e-07
2.27626e-05
5.93204e-07
2.27512e-05
6.63723e-07
2.27417e-05
7.41982e-07
2.27351e-05
8.28641e-07
2.27323e-05
9.24382e-07
2.27347e-05
1.02991e-06
2.27444e-05
1.14596e-06
2.27636e-05
1.27334e-06
2.27958e-05
1.41292e-06
2.28451e-05
1.5658e-06
2.29169e-05
1.7333e-06
2.30177e-05
1.91719e-06
2.31551e-05
2.11981e-06
2.33376e-05
2.34426e-06
2.35738e-05
2.59458e-06
2.38724e-05
2.87551e-06
2.42406e-05
3.19341e-06
2.46827e-05
3.55373e-06
2.52104e-05
3.96599e-06
2.58129e-05
4.42937e-06
2.65718e-05
4.94739e-06
2.72419e-05
5.53238e-06
2.76378e-05
6.05364e-06
2.80025e-05
6.63229e-06
2.6803e-05
6.8001e-06
2.4336e-05
6.72826e-06
2.07577e-05
6.87463e-06
1.65976e-05
5.98981e-06
1.26464e-05
4.69822e-06
9.25048e-06
3.78704e-06
6.34628e-06
3.22287e-06
4.01402e-06
2.57597e-06
2.39219e-06
1.79959e-06
1.46609e-06
1.08231e-06
1.10816e-06
4.78414e-07
1.12388e-06
2.7041e-07
1.32669e-06
-2.45717e-08
1.46217e-06
-6.14295e-08
1.47116e-06
-1.76452e-08
1.42383e-06
6.0712e-09
1.3907e-06
-8.30308e-09
1.351e-06
1.75989e-07
1.27309e-06
1.92778e-07
1.19635e-06
1.51284e-07
1.10824e-06
1.43895e-07
1.01704e-06
1.16622e-07
9.13833e-07
8.30872e-08
7.69115e-07
1.18045e-07
6.71144e-07
6.78532e-08
6.35621e-07
-1.94199e-09
6.18046e-07
-2.58331e-08
5.93184e-07
-2.28897e-08
5.87834e-07
-3.31762e-08
6.19218e-07
-7.25209e-08
6.68398e-07
-1.02694e-07
7.01921e-07
-8.75492e-08
7.05688e-07
-5.90091e-08
6.99434e-07
-4.58037e-08
6.96765e-07
-5.08252e-08
6.91911e-07
-5.668e-08
6.14549e-07
2.18185e-08
2.02929e-07
3.45712e-07
9.23664e-08
5.95704e-08
8.04346e-07
-9.05039e-07
1.57152e-06
-7.51386e-07
1.53361e-06
1.18027e-07
1.52286e-06
8.17781e-08
1.55533e-06
1.0125e-08
1.60779e-06
-1.82737e-08
1.64345e-06
1.74971e-08
1.55126e-06
1.58782e-07
1.4405e-06
1.42791e-07
1.37262e-06
5.35484e-08
1.39692e-06
-4.94413e-08
1.49165e-06
-1.66659e-08
1.43923e-06
1.71105e-07
1.3024e-06
2.6455e-07
1.22211e-06
2.04146e-07
1.21928e-06
8.06953e-08
1.26879e-06
-4.14318e-08
1.3778e-06
-1.1738e-07
1.5173e-06
-1.19887e-07
1.67913e-06
-1.50535e-07
1.88636e-06
-1.92021e-07
2.15172e-06
-1.35958e-07
1.98742e-06
6.91666e-07
9.914e-07
1.104e-06
5.70449e-07
4.99465e-07
5.59053e-07
3.28308e-08
5.50674e-07
-1.34891e-08
5.994e-07
-9.27319e-08
5.82578e-07
1.77059e-07
5.38557e-07
8.91235e-08
4.94351e-07
6.4844e-08
4.93893e-07
4.13109e-09
5.16349e-07
-2.21953e-08
5.38455e-07
-2.85319e-08
5.08924e-07
2.72421e-08
4.36184e-07
8.65245e-08
4.12421e-07
2.25352e-08
3.94933e-07
1.4529e-08
3.85841e-07
9.93226e-09
3.72662e-07
2.01597e-08
3.67632e-07
1.90445e-08
3.48654e-07
2.71398e-08
3.26491e-07
2.4366e-08
2.8584e-07
3.34299e-08
1.43957e-07
1.26964e-07
6.12867e-08
5.99616e-08
6.71713e-08
-2.8909e-08
7.68898e-08
-4.30884e-08
1.73239e-07
-1.56529e-07
2.44856e-07
-1.39801e-07
2.53816e-07
-6.72352e-08
2.50871e-07
-3.93915e-08
2.6801e-07
-6.10872e-08
3.04579e-07
-7.54397e-08
3.28225e-07
-4.33372e-08
3.40688e-07
-3.98559e-08
3.84959e-07
-7.59145e-08
4.48808e-07
-9.20974e-08
5.13256e-07
-8.52722e-08
5.55669e-07
-5.99013e-08
5.38273e-07
4.41133e-09
4.43869e-07
8.60067e-08
4.26831e-07
3.8284e-09
5.34208e-07
-1.30505e-07
5.12148e-07
-2.03441e-08
3.73508e-07
7.65295e-08
3.53946e-07
-2.84717e-08
3.8342e-07
-4.18953e-08
4.63763e-07
-6.37229e-08
5.74961e-07
-9.76061e-08
6.83198e-07
-1.01768e-07
7.59492e-07
-7.25986e-08
7.95778e-07
-3.64046e-08
8.06485e-07
-1.61751e-08
8.07055e-07
-5.89486e-09
8.13057e-07
-6.06191e-10
8.56755e-07
-9.17233e-09
9.23871e-07
-7.33563e-09
8.83849e-07
1.02142e-07
7.45605e-07
1.92399e-07
6.05312e-07
2.12895e-07
5.45041e-07
1.04526e-07
6.20826e-07
-7.57515e-08
8.0543e-07
-1.79643e-07
9.42188e-07
-9.08121e-08
8.17115e-07
1.75624e-07
7.41371e-07
1.18934e-07
8.02773e-07
-2.21314e-08
9.81391e-07
-1.43294e-07