/*--------------------------------*- C++ -*----------------------------------*\
| =========                 |                                                 |
| \\      /  F ield         | OpenFOAM: The Open Source CFD Toolbox           |
|  \\    /   O peration     | Version:  2406                                  |
|   \\  /    A nd           | Website:  www.openfoam.com                      |
|    \\/     M anipulation  |                                                 |
\*---------------------------------------------------------------------------*/
FoamFile
{
    version     2.0;
    format      ascii;
    arch        "LSB;label=32;scalar=64";
    class       volVectorField;
    location    "0.15";
    object      U;
}
// * * * * * * * * * * * * * * * * * * * * * * * * * * * * * * * * * * * * * //

dimensions      [0 1 -1 0 0 0 0];

internalField   nonuniform List<vector> 
6250
(
(38.4803 0.0130922 0)
(42.4654 0.0479215 0)
(27.5942 0.0579961 0)
(24.1677 0.0543677 0)
(27.5173 0.0532175 0)
(29.4543 0.0572209 0)
(29.1158 0.0621011 0)
(28.4068 0.0651147 0)
(28.2166 0.0668936 0)
(28.3261 0.0686113 0)
(28.3948 0.0705142 0)
(28.3593 0.07233 0)
(28.2958 0.0739022 0)
(28.2519 0.0752918 0)
(28.2234 0.0766087 0)
(28.1944 0.0779101 0)
(28.1603 0.0792101 0)
(28.124 0.0805162 0)
(28.0878 0.0818406 0)
(28.0518 0.0831945 0)
(28.0153 0.0845852 0)
(27.978 0.0860194 0)
(27.9399 0.087508 0)
(27.901 0.0890682 0)
(27.8613 0.0907248 0)
(27.8207 0.0925107 0)
(27.779 0.0944671 0)
(27.7361 0.0966413 0)
(27.6918 0.0990851 0)
(27.6461 0.101852 0)
(27.5985 0.104997 0)
(27.549 0.108576 0)
(27.4971 0.112645 0)
(27.4427 0.117268 0)
(27.3854 0.122515 0)
(27.3246 0.128463 0)
(27.2601 0.135206 0)
(27.1913 0.142848 0)
(27.1175 0.151513 0)
(27.0382 0.161345 0)
(26.9525 0.172509 0)
(26.8595 0.185194 0)
(26.7583 0.199618 0)
(26.6476 0.216027 0)
(26.5262 0.234701 0)
(26.3925 0.255954 0)
(26.2448 0.280139 0)
(26.0811 0.307649 0)
(25.899 0.338921 0)
(25.696 0.374437 0)
(25.4692 0.414724 0)
(25.2152 0.46035 0)
(24.9302 0.511921 0)
(24.6099 0.570065 0)
(24.2495 0.635415 0)
(23.8437 0.708575 0)
(23.3867 0.790079 0)
(22.8719 0.880324 0)
(22.2924 0.979474 0)
(21.641 1.08734 0)
(20.9101 1.20326 0)
(20.0922 1.32595 0)
(19.1801 1.45334 0)
(18.1675 1.58238 0)
(17.0493 1.70878 0)
(15.8228 1.82682 0)
(14.4878 1.92889 0)
(13.0473 2.00551 0)
(11.5088 2.04565 0)
(9.88517 2.03682 0)
(8.19582 1.96602 0)
(6.4733 1.81953 0)
(4.70917 1.58703 0)
(3.2761 1.27284 0)
(0.760501 0.708857 0)
(1.25204 -2.19129 0)
(-1.29071 -6.29058 0)
(3.92169 -7.75709 0)
(1.09214 1.20882 0)
(0.751114 0.634198 0)
(0.59303 0.221449 0)
(0.470991 0.0399397 0)
(0.392254 0.0117263 0)
(0.343608 0.00466562 0)
(0.315162 0.00184632 0)
(0.297332 -0.000872353 0)
(0.285509 -0.0047337 0)
(0.277762 -0.00307822 0)
(0.267346 0.0023621 0)
(0.251429 0.00489488 0)
(0.23509 0.00378904 0)
(0.222646 0.00201981 0)
(0.213165 0.00166351 0)
(0.203197 0.00281914 0)
(0.191792 0.00349839 0)
(0.181986 0.00248876 0)
(0.177116 0.00053528 0)
(0.177602 -0.000920171 0)
(0.180833 -0.00133906 0)
(0.183195 -0.000945968 0)
(0.182917 -0.000421098 0)
(0.180388 0.000456516 0)
(0.17636 0.00161631 0)
(0.171394 0.00255688 0)
(0.166372 0.00270046 0)
(0.162761 0.00170095 0)
(0.16198 3.991e-05 0)
(0.164473 -0.00160194 0)
(0.169578 -0.00279798 0)
(0.175866 -0.00318557 0)
(0.181241 -0.00222469 0)
(0.184433 -0.000392864 0)
(0.186769 -8.28568e-05 0)
(0.190859 -0.00173529 0)
(0.198153 -0.00376971 0)
(0.208028 -0.00508356 0)
(0.218988 -0.00552146 0)
(0.229759 -0.00533701 0)
(0.238992 -0.00449193 0)
(0.244713 -0.00259777 0)
(0.244606 0.00023101 0)
(0.237439 0.00283226 0)
(0.224827 0.00402253 0)
(0.210536 0.00392743 0)
(0.198004 0.00277547 0)
(0.188985 0.00103993 0)
(0.183565 -0.000713098 0)
(0.181105 -0.00214171 0)
(0.181231 -0.00335875 0)
(0.183765 -0.00453344 0)
(0.187177 -0.00475287 0)
(0.187868 -0.00334542 0)
(0.183334 -0.00136297 0)
(0.17455 4.84321e-05 0)
(0.164084 0.00129149 0)
(0.153373 0.00219031 0)
(0.142803 0.00210916 0)
(0.132868 0.0016503 0)
(0.123396 0.00192074 0)
(0.114023 0.00260554 0)
(0.105033 0.00275507 0)
(0.0971034 0.0021622 0)
(0.0906724 0.00100096 0)
(0.0850229 0.000725535 0)
(0.0788617 0.00170273 0)
(0.0720024 0.00289169 0)
(0.0651596 0.00336153 0)
(0.0594195 0.00291329 0)
(0.0553718 0.00239943 0)
(0.0527105 0.00190267 0)
(0.0508026 0.00139768 0)
(0.0491276 0.00126462 0)
(0.0473419 0.00128619 0)
(0.0457735 0.00111151 0)
(0.044749 0.00104297 0)
(0.0439594 0.00148654 0)
(0.0428465 0.00228578 0)
(0.0415667 0.00257454 0)
(0.04111 0.00188168 0)
(0.0420511 0.000865241 0)
(0.0439647 0.000337246 0)
(0.0463465 -5.16195e-06 0)
(0.0494095 -0.000648602 0)
(0.0535715 -0.00139076 0)
(0.0586774 -0.0017819 0)
(0.0639145 -0.00151168 0)
(0.0681977 -0.000553942 0)
(0.0708777 0.000774708 0)
(0.0722629 0.00183644 0)
(0.0731495 0.00226214 0)
(0.0740516 0.0020454 0)
(0.0754011 0.00123075 0)
(0.0778448 9.2906e-05 0)
(0.0816575 -0.00080862 0)
(0.0862413 -0.00107228 0)
(0.0907575 -0.00094257 0)
(0.0949875 -0.000866438 0)
(0.0991775 -0.000912254 0)
(0.103398 -0.000878985 0)
(0.107375 -0.000650322 0)
(0.110681 -0.000219249 0)
(0.112798 0.000407564 0)
(0.113128 0.00113275 0)
(0.111293 0.00172203 0)
(0.107726 0.00189698 0)
(0.103783 0.00141282 0)
(0.100733 0.000824059 0)
(0.0986316 0.000900425 0)
(0.0965636 0.00160096 0)
(0.0937713 0.00239791 0)
(0.0902861 0.00274721 0)
(0.0868117 0.00248399 0)
(0.0842183 0.00173741 0)
(0.0830112 0.000778712 0)
(0.0829874 -7.93345e-05 0)
(0.0833432 -0.000559254 0)
(0.0831171 -0.000550276 0)
(0.0817027 -0.000186926 0)
(0.0792258 0.000153441 0)
(0.0763209 0.000308681 0)
(0.0734443 0.000442875 0)
(0.0706056 0.000648846 0)
(0.0677902 0.000728524 0)
(0.0649874 0.00079351 0)
(0.0619427 0.000946182 0)
(0.0586301 0.000957137 0)
(0.0555878 0.000679865 0)
(0.0534124 0.000217146 0)
(0.0522465 -0.000320859 0)
(0.0517847 -0.000864699 0)
(0.0515665 -0.00137541 0)
(0.0512542 -0.0017489 0)
(0.0504495 -0.00163913 0)
(0.0486117 -0.000791534 0)
(0.0454984 0.000372165 0)
(0.0416138 0.00108262 0)
(0.0379515 0.0010342 0)
(0.0352732 0.000390111 0)
(0.0338915 -0.000514818 0)
(0.0336275 -0.00119964 0)
(0.03378 -0.00113877 0)
(0.0335395 -0.000241952 0)
(0.032516 0.000964157 0)
(0.0309061 0.00162837 0)
(0.0291563 0.00189286 0)
(0.0274875 0.00211873 0)
(0.0258787 0.00229894 0)
(0.0242175 0.00245529 0)
(0.0224629 0.00257409 0)
(0.0209376 0.00235853 0)
(0.0203778 0.00162364 0)
(0.0213675 0.0005279 0)
(0.0237105 -0.000612878 0)
(0.0266561 -0.0016552 0)
(0.0294025 -0.00250996 0)
(0.0312761 -0.00295826 0)
(0.0317474 -0.00297165 0)
(0.030555 -0.00253173 0)
(0.027748 -0.00203605 0)
(0.0236147 -0.00195239 0)
(0.0184204 -0.00212026 0)
(0.0122833 -0.00214437 0)
(0.00419636 -0.000861432 0)
(-0.0094274 0.00174716 0)
(-0.0301087 0.00424765 0)
(-0.0556481 0.00697468 0)
(-0.0868869 0.0126064 0)
(-0.128347 0.0208816 0)
(-0.18634 0.0310383 0)
(-0.259197 0.0430303 0)
(38.5107 0.00959433 0)
(42.5743 0.0363027 0)
(27.7586 0.0465362 0)
(24.3529 0.0434609 0)
(27.7252 0.0414631 0)
(29.7043 0.0442639 0)
(29.4172 0.0480704 0)
(28.7576 0.0500721 0)
(28.6132 0.0507613 0)
(28.7682 0.0513795 0)
(28.8843 0.0522762 0)
(28.8978 0.0532027 0)
(28.8839 0.0539806 0)
(28.8898 0.0546531 0)
(28.9113 0.0553218 0)
(28.9329 0.0560341 0)
(28.95 0.0567953 0)
(28.9653 0.0576107 0)
(28.9813 0.058498 0)
(28.9981 0.0594785 0)
(29.0149 0.0605709 0)
(29.0316 0.0617934 0)
(29.0482 0.0631671 0)
(29.0647 0.0647173 0)
(29.0813 0.0664735 0)
(29.0978 0.0684694 0)
(29.1143 0.0707428 0)
(29.1307 0.0733361 0)
(29.1472 0.0762957 0)
(29.1636 0.0796732 0)
(29.1801 0.0835253 0)
(29.1966 0.0879156 0)
(29.2132 0.0929165 0)
(29.2299 0.0986107 0)
(29.2467 0.105094 0)
(29.2636 0.112478 0)
(29.2806 0.12089 0)
(29.2979 0.13048 0)
(29.3153 0.141423 0)
(29.3329 0.153918 0)
(29.3507 0.168198 0)
(29.3687 0.184535 0)
(29.3869 0.20324 0)
(29.4053 0.224678 0)
(29.4239 0.249266 0)
(29.4425 0.277491 0)
(29.4611 0.309915 0)
(29.4796 0.347188 0)
(29.4978 0.390064 0)
(29.5153 0.439409 0)
(29.5317 0.496223 0)
(29.5465 0.561651 0)
(29.5587 0.637 0)
(29.5674 0.723747 0)
(29.5709 0.823549 0)
(29.5674 0.93824 0)
(29.5541 1.06982 0)
(29.5276 1.22042 0)
(29.4836 1.39224 0)
(29.4163 1.58748 0)
(29.3189 1.80815 0)
(29.1829 2.05584 0)
(28.9984 2.33144 0)
(28.7532 2.63477 0)
(28.4334 2.96415 0)
(28.0234 3.31592 0)
(27.5059 3.6839 0)
(26.8631 4.0589 0)
(26.0773 4.42824 0)
(25.1325 4.77536 0)
(24.0125 5.07921 0)
(22.7166 5.31495 0)
(21.2117 5.44722 0)
(19.6088 5.45287 0)
(17.618 5.22646 0)
(15.7252 4.71111 0)
(12.6637 3.79176 0)
(9.80764 2.54211 0)
(3.35854 3.7673 0)
(2.40416 1.76851 0)
(1.89943 0.572196 0)
(1.43951 0.335875 0)
(1.2029 0.261428 0)
(1.06967 0.151304 0)
(0.961312 0.0906111 0)
(0.879579 0.07112 0)
(0.81591 0.045448 0)
(0.76887 0.0358661 0)
(0.725159 0.0530064 0)
(0.67355 0.064872 0)
(0.626206 0.055055 0)
(0.592568 0.0392408 0)
(0.567611 0.0348469 0)
(0.541155 0.0426822 0)
(0.509962 0.0435737 0)
(0.482053 0.0291689 0)
(0.466575 0.00758182 0)
(0.463257 -0.00934039 0)
(0.464784 -0.0132201 0)
(0.464806 -0.00338234 0)
(0.461667 0.0075411 0)
(0.456537 0.0140557 0)
(0.450176 0.0177944 0)
(0.442957 0.0189626 0)
(0.436071 0.0165092 0)
(0.432266 0.00837835 0)
(0.434267 -0.0029728 0)
(0.442366 -0.0134113 0)
(0.455044 -0.0199518 0)
(0.470216 -0.0208083 0)
(0.48322 -0.0150047 0)
(0.492011 -0.00853747 0)
(0.501488 -0.0117266 0)
(0.513038 -0.022334 0)
(0.529391 -0.0322526 0)
(0.549717 -0.0375734 0)
(0.571065 -0.0382353 0)
(0.592587 -0.0353233 0)
(0.61197 -0.0269626 0)
(0.625592 -0.0103987 0)
(0.628801 0.0139302 0)
(0.618496 0.040596 0)
(0.597012 0.0551905 0)
(0.570075 0.0540087 0)
(0.543874 0.0426488 0)
(0.523023 0.0286571 0)
(0.507763 0.0167768 0)
(0.495772 0.00746695 0)
(0.487139 -0.000499212 0)
(0.483589 -0.00748643 0)
(0.484266 -0.00526126 0)
(0.4811 0.0117951 0)
(0.467091 0.032277 0)
(0.441875 0.0422213 0)
(0.410577 0.0433911 0)
(0.380491 0.0432282 0)
(0.352289 0.0418718 0)
(0.327886 0.0393087 0)
(0.305462 0.0384981 0)
(0.282714 0.0370679 0)
(0.259338 0.0333834 0)
(0.237661 0.0287126 0)
(0.220552 0.024215 0)
(0.207166 0.0246903 0)
(0.192875 0.0271343 0)
(0.174996 0.0268181 0)
(0.158283 0.0231763 0)
(0.146237 0.0164535 0)
(0.138054 0.00995567 0)
(0.1307 0.00684489 0)
(0.123702 0.00542677 0)
(0.117691 0.0061407 0)
(0.112269 0.00622935 0)
(0.108451 0.0041222 0)
(0.106961 0.00193118 0)
(0.107001 0.0015535 0)
(0.106684 0.00216702 0)
(0.105884 0.000824993 0)
(0.106546 -0.00341604 0)
(0.110089 -0.00793949 0)
(0.115497 -0.00961514 0)
(0.121304 -0.011053 0)
(0.128166 -0.0145372 0)
(0.137221 -0.0184376 0)
(0.148258 -0.0204697 0)
(0.159983 -0.0191123 0)
(0.170526 -0.0143667 0)
(0.178954 -0.00907474 0)
(0.185958 -0.00673141 0)
(0.192315 -0.0067876 0)
(0.198144 -0.00714657 0)
(0.204469 -0.00901311 0)
(0.212913 -0.0129463 0)
(0.223972 -0.0169519 0)
(0.235893 -0.0179784 0)
(0.246618 -0.0167775 0)
(0.256266 -0.0161438 0)
(0.266051 -0.0164686 0)
(0.276353 -0.0162912 0)
(0.286548 -0.0147428 0)
(0.29583 -0.0115607 0)
(0.303298 -0.00625655 0)
(0.307794 0.00112986 0)
(0.308664 0.00906188 0)
(0.306618 0.0142397 0)
(0.304787 0.0136029 0)
(0.30615 0.0096062 0)
(0.309108 0.00714831 0)
(0.309605 0.00766397 0)
(0.305722 0.00985027 0)
(0.298541 0.010892 0)
(0.290492 0.00917602 0)
(0.283611 0.00521029 0)
(0.278982 0.00103195 0)
(0.276451 -0.00116365 0)
(0.274634 -0.000236815 0)
(0.271267 0.00330816 0)
(0.264338 0.00765093 0)
(0.253945 0.0102108 0)
(0.242326 0.010477 0)
(0.23141 0.0100785 0)
(0.221083 0.0100779 0)
(0.211166 0.00954307 0)
(0.20183 0.00945263 0)
(0.192046 0.0105965 0)
(0.181143 0.0109041 0)
(0.17008 0.00869543 0)
(0.160093 0.0052768 0)
(0.151441 0.00253724 0)
(0.143748 0.00156014 0)
(0.136655 0.00206484 0)
(0.130317 0.00321236 0)
(0.124633 0.00593514 0)
(0.118246 0.0105929 0)
(0.109982 0.0146112 0)
(0.100604 0.0152227 0)
(0.0923557 0.0127058 0)
(0.086679 0.00879569 0)
(0.0840661 0.00450293 0)
(0.0844078 0.00142867 0)
(0.0860852 0.00141976 0)
(0.0863809 0.00349885 0)
(0.0841417 0.0053969 0)
(0.0807321 0.00554044 0)
(0.0777163 0.0048119 0)
(0.0751567 0.00413996 0)
(0.0726007 0.00374394 0)
(0.0704256 0.00414632 0)
(0.0690781 0.00455854 0)
(0.0686549 0.00275333 0)
(0.0695259 -0.00229648 0)
(0.0720324 -0.00826893 0)
(0.0753651 -0.0118363 0)
(0.0788581 -0.0117129 0)
(0.0820909 -0.00843826 0)
(0.0837128 -0.00239846 0)
(0.082263 0.00490641 0)
(0.0763769 0.0122709 0)
(0.0645757 0.0185853 0)
(0.0468405 0.0235831 0)
(0.0238246 0.028509 0)
(-0.00354978 0.0339755 0)
(-0.0401064 0.0471149 0)
(-0.0891185 0.0735418 0)
(-0.14635 0.0960045 0)
(-0.205045 0.110032 0)
(-0.272986 0.136685 0)
(-0.359537 0.17289 0)
(-0.4664 0.202824 0)
(-0.575138 0.218549 0)
(38.5049 -0.000249305 0)
(42.5396 -0.0012401 0)
(27.6946 1.14261e-05 0)
(24.283 0.00293247 0)
(27.6551 0.00579784 0)
(29.6243 0.00770903 0)
(29.3201 0.00901245 0)
(28.6436 0.0102037 0)
(28.485 0.0113555 0)
(28.6269 0.0124359 0)
(28.729 0.0134591 0)
(28.7278 0.0144569 0)
(28.699 0.0154482 0)
(28.69 0.0164448 0)
(28.6966 0.0174569 0)
(28.7032 0.018494 0)
(28.7051 0.0195662 0)
(28.7052 0.0206874 0)
(28.7058 0.0218751 0)
(28.707 0.0231496 0)
(28.7082 0.0245319 0)
(28.709 0.026044 0)
(28.7095 0.0277081 0)
(28.7099 0.0295472 0)
(28.7101 0.0315848 0)
(28.7101 0.0338455 0)
(28.7097 0.0363559 0)
(28.709 0.039146 0)
(28.708 0.0422506 0)
(28.7066 0.0457115 0)
(28.7047 0.0495785 0)
(28.7024 0.0539107 0)
(28.6995 0.0587774 0)
(28.696 0.0642589 0)
(28.6918 0.0704471 0)
(28.6868 0.0774474 0)
(28.681 0.08538 0)
(28.6743 0.0943825 0)
(28.6666 0.104612 0)
(28.6577 0.11625 0)
(28.6476 0.129506 0)
(28.6362 0.14462 0)
(28.6234 0.161872 0)
(28.6089 0.181588 0)
(28.5929 0.204146 0)
(28.5751 0.229991 0)
(28.5555 0.259639 0)
(28.534 0.293699 0)
(28.5108 0.332883 0)
(28.4859 0.378027 0)
(28.4595 0.430116 0)
(28.4318 0.490302 0)
(28.4034 0.559943 0)
(28.3748 0.640626 0)
(28.347 0.734209 0)
(28.3211 0.842855 0)
(28.2985 0.969064 0)
(28.281 1.11571 0)
(28.2708 1.28606 0)
(28.2703 1.48376 0)
(28.2818 1.71279 0)
(28.3074 1.97733 0)
(28.3489 2.28154 0)
(28.4066 2.62931 0)
(28.4794 3.02382 0)
(28.5637 3.46704 0)
(28.6523 3.95907 0)
(28.7339 4.49734 0)
(28.7914 5.07556 0)
(28.8016 5.6831 0)
(28.7327 6.3038 0)
(28.5458 6.91743 0)
(28.1865 7.49376 0)
(27.5889 8.01049 0)
(26.6725 8.41243 0)
(25.3015 8.73309 0)
(23.4072 9.11071 0)
(20.7632 9.5715 0)
(18.3151 11.0983 0)
(12.582 7.23504 0)
(10.6195 2.99479 0)
(4.13235 1.53133 0)
(2.53648 0.802191 0)
(2.13292 0.405798 0)
(1.78811 0.367573 0)
(1.579 0.299077 0)
(1.42236 0.197831 0)
(1.26529 0.181666 0)
(1.14579 0.217586 0)
(1.05367 0.209075 0)
(0.97863 0.168595 0)
(0.929551 0.12852 0)
(0.894374 0.1099 0)
(0.840763 0.122411 0)
(0.767203 0.126405 0)
(0.704296 0.0907975 0)
(0.6761 0.0373484 0)
(0.679326 0.00489445 0)
(0.693375 0.00178416 0)
(0.694761 0.00874802 0)
(0.673585 0.0129477 0)
(0.647332 0.0196474 0)
(0.629042 0.025163 0)
(0.617913 0.0272298 0)
(0.612719 0.0222022 0)
(0.613323 0.00309001 0)
(0.621493 -0.0231602 0)
(0.636993 -0.0458031 0)
(0.65742 -0.059244 0)
(0.678166 -0.0636583 0)
(0.694259 -0.0564045 0)
(0.711705 -0.0346628 0)
(0.732099 -0.0384498 0)
(0.750852 -0.060898 0)
(0.771829 -0.0806975 0)
(0.794825 -0.0905056 0)
(0.81904 -0.0918708 0)
(0.84596 -0.0874127 0)
(0.873938 -0.0726574 0)
(0.901547 -0.0395428 0)
(0.927083 0.0130683 0)
(0.943152 0.0571658 0)
(0.935135 0.0830371 0)
(0.906836 0.100093 0)
(0.878136 0.0934642 0)
(0.859355 0.0709678 0)
(0.845422 0.0500095 0)
(0.826957 0.0370505 0)
(0.801621 0.022756 0)
(0.784897 0.000625293 0)
(0.784476 -0.00468162 0)
(0.785268 0.0248718 0)
(0.773408 0.0711076 0)
(0.737464 0.105592 0)
(0.68786 0.12617 0)
(0.63194 0.124779 0)
(0.593495 0.10498 0)
(0.567215 0.0837666 0)
(0.544109 0.0797748 0)
(0.511667 0.0869245 0)
(0.477746 0.085537 0)
(0.446417 0.0789103 0)
(0.413341 0.0536712 0)
(0.354765 0.0417566 0)
(0.304251 0.0590999 0)
(0.271887 0.0762971 0)
(0.249727 0.0699849 0)
(0.25381 0.0440599 0)
(0.258314 0.0393647 0)
(0.237697 0.0332577 0)
(0.20595 0.0228629 0)
(0.186028 0.0201887 0)
(0.176421 0.0212165 0)
(0.173433 0.0127902 0)
(0.170121 0.00384161 0)
(0.169761 0.00177814 0)
(0.172659 0.0104084 0)
(0.175135 0.0103675 0)
(0.175587 -0.00441431 0)
(0.17776 -0.0184631 0)
(0.180168 -0.0219435 0)
(0.181923 -0.0229792 0)
(0.1862 -0.0302159 0)
(0.192966 -0.0395911 0)
(0.200234 -0.0448897 0)
(0.210113 -0.0436862 0)
(0.221557 -0.0384028 0)
(0.233842 -0.0295779 0)
(0.249628 -0.0233025 0)
(0.269927 -0.0205947 0)
(0.290225 -0.0207882 0)
(0.306389 -0.0280748 0)
(0.319236 -0.0413352 0)
(0.332429 -0.0508521 0)
(0.347314 -0.0477968 0)
(0.359589 -0.0409952 0)
(0.369694 -0.040316 0)
(0.380188 -0.0426617 0)
(0.392124 -0.0420256 0)
(0.404908 -0.0379179 0)
(0.41847 -0.031674 0)
(0.433024 -0.0218451 0)
(0.446952 -0.0084362 0)
(0.456838 0.00457245 0)
(0.461452 0.0103886 0)
(0.466275 0.00196503 0)
(0.47817 -0.0102505 0)
(0.494186 -0.00700637 0)
(0.505106 0.010615 0)
(0.506632 0.0291857 0)
(0.500552 0.0376984 0)
(0.492292 0.0363172 0)
(0.486222 0.0283911 0)
(0.483616 0.017774 0)
(0.483131 0.010141 0)
(0.482765 0.0105145 0)
(0.478213 0.0202194 0)
(0.465124 0.0367968 0)
(0.44367 0.0484209 0)
(0.418325 0.0489194 0)
(0.395153 0.0458418 0)
(0.375439 0.0468459 0)
(0.358674 0.0440339 0)
(0.346205 0.0420987 0)
(0.334486 0.0465565 0)
(0.318404 0.0506904 0)
(0.299312 0.0490706 0)
(0.282295 0.0440425 0)
(0.268159 0.0383314 0)
(0.254777 0.0338353 0)
(0.240975 0.0306517 0)
(0.229079 0.0267094 0)
(0.221931 0.025376 0)
(0.21374 0.0319388 0)
(0.190472 0.0402754 0)
(0.164768 0.0373329 0)
(0.151303 0.0273256 0)
(0.147299 0.0146849 0)
(0.143859 0.00220073 0)
(0.140211 -0.00734633 0)
(0.134968 -0.00861811 0)
(0.127659 -0.000757207 0)
(0.114225 0.010605 0)
(0.0981744 0.0115438 0)
(0.0862257 0.00912583 0)
(0.0750559 0.00987832 0)
(0.0646514 0.00903949 0)
(0.0553278 0.00473035 0)
(0.0505001 0.00192354 0)
(0.0573794 -0.000676925 0)
(0.0782516 -0.00689991 0)
(0.103544 -0.0103825 0)
(0.125589 -0.00990755 0)
(0.146665 -0.00922161 0)
(0.165816 -0.00779673 0)
(0.175859 -0.000930745 0)
(0.17418 0.0104064 0)
(0.158529 0.0280225 0)
(0.130719 0.0525952 0)
(0.097689 0.0733386 0)
(0.0584005 0.0936267 0)
(0.0250377 0.114718 0)
(-0.0783334 0.145704 0)
(-0.225601 0.193355 0)
(-0.320939 0.22274 0)
(-0.390385 0.254085 0)
(-0.493863 0.334646 0)
(-0.628964 0.403187 0)
(-0.763334 0.425999 0)
(-0.883482 0.432742 0)
(38.5106 0.00242405 0)
(42.5564 0.0112967 0)
(27.7113 0.0178174 0)
(24.2932 0.0214458 0)
(27.6609 0.0237663 0)
(29.6291 0.0258464 0)
(29.3252 0.0280425 0)
(28.6485 0.0301999 0)
(28.4891 0.0321266 0)
(28.6301 0.0338116 0)
(28.7316 0.0353559 0)
(28.7299 0.0368389 0)
(28.7005 0.0382832 0)
(28.691 0.0396919 0)
(28.6972 0.0410792 0)
(28.7033 0.0424704 0)
(28.7048 0.043892 0)
(28.7045 0.0453677 0)
(28.7047 0.0469209 0)
(28.7055 0.0485771 0)
(28.7063 0.0503633 0)
(28.7068 0.0523088 0)
(28.707 0.0544445 0)
(28.7071 0.0568044 0)
(28.707 0.0594261 0)
(28.7068 0.0623509 0)
(28.7062 0.0656244 0)
(28.7054 0.0692971 0)
(28.7043 0.0734248 0)
(28.7029 0.0780701 0)
(28.7011 0.0833033 0)
(28.6988 0.0892033 0)
(28.6961 0.0958595 0)
(28.6929 0.103373 0)
(28.689 0.111859 0)
(28.6844 0.121446 0)
(28.6791 0.132283 0)
(28.6729 0.144535 0)
(28.6658 0.158392 0)
(28.6576 0.174067 0)
(28.6483 0.191802 0)
(28.6376 0.211872 0)
(28.6255 0.234585 0)
(28.6118 0.26029 0)
(28.5963 0.28938 0)
(28.5789 0.322297 0)
(28.5594 0.359539 0)
(28.5376 0.401664 0)
(28.5133 0.449297 0)
(28.4864 0.503137 0)
(28.4566 0.563968 0)
(28.4239 0.632661 0)
(28.3881 0.710185 0)
(28.3493 0.797619 0)
(28.3075 0.896162 0)
(28.2629 1.00714 0)
(28.216 1.13203 0)
(28.1675 1.27248 0)
(28.1183 1.4303 0)
(28.07 1.60755 0)
(28.0247 1.80655 0)
(27.9852 2.03003 0)
(27.955 2.28116 0)
(27.9387 2.5637 0)
(27.9416 2.88205 0)
(27.9696 3.24126 0)
(28.0286 3.64698 0)
(28.1241 4.10528 0)
(28.2593 4.62222 0)
(28.4339 5.20352 0)
(28.6421 5.85384 0)
(28.8697 6.57707 0)
(29.0953 7.37556 0)
(29.2794 8.25407 0)
(29.3969 9.22096 0)
(29.3667 10.2926 0)
(29.2505 11.551 0)
(28.8108 12.956 0)
(28.6776 14.9083 0)
(27.5659 15.8307 0)
(25.5309 15.33 0)
(23.2663 14.9285 0)
(14.5883 7.20072 0)
(12.0789 2.4504 0)
(5.96329 1.19121 0)
(3.27191 0.81534 0)
(2.7073 0.537676 0)
(2.16541 0.36026 0)
(1.78348 0.436193 0)
(1.66097 0.425347 0)
(1.57166 0.28599 0)
(1.47002 0.163694 0)
(1.37045 0.155397 0)
(1.16996 0.287641 0)
(0.998427 0.305348 0)
(0.94077 0.200339 0)
(0.953159 0.0678206 0)
(0.986587 -0.0466452 0)
(1.01799 -0.0961634 0)
(0.998292 0.02891 0)
(0.839156 0.0896936 0)
(0.743638 0.0698926 0)
(0.687715 0.049622 0)
(0.651313 0.023321 0)
(0.672856 0.022218 0)
(0.722961 -0.00594345 0)
(0.745628 -0.0473006 0)
(0.75941 -0.0785829 0)
(0.774009 -0.0963829 0)
(0.787351 -0.101693 0)
(0.795512 -0.0902194 0)
(0.827901 -0.0645817 0)
(0.861836 -0.0802924 0)
(0.888451 -0.0993455 0)
(0.909941 -0.116349 0)
(0.923599 -0.125662 0)
(0.934005 -0.130196 0)
(0.95 -0.13335 0)
(0.968875 -0.126783 0)
(0.984725 -0.109966 0)
(0.984382 -0.0895244 0)
(1.23356 0.0961816 0)
(1.35578 0.171324 0)
(1.36064 0.163247 0)
(1.32805 0.124794 0)
(1.30018 0.0836262 0)
(1.28897 0.0713048 0)
(1.27144 0.0901528 0)
(1.22605 0.105071 0)
(1.18472 0.046927 0)
(1.17352 -0.0291244 0)
(1.20397 0.045576 0)
(1.19425 0.162451 0)
(1.15088 0.193948 0)
(1.0924 0.219658 0)
(1.02145 0.268118 0)
(0.930565 0.236591 0)
(0.968186 0.133104 0)
(1.02639 0.205635 0)
(1.08841 0.233943 0)
(1.14076 0.209344 0)
(1.20864 0.212649 0)
(1.24888 0.22288 0)
(0.732486 0.235892 0)
(0.48246 0.1801 0)
(0.416838 0.112571 0)
(0.401286 0.0521635 0)
(0.422048 -0.00449076 0)
(0.476706 -0.0199236 0)
(0.448312 0.116754 0)
(0.347035 0.0962136 0)
(0.324809 0.0589096 0)
(0.328437 0.0303276 0)
(0.335891 0.0118991 0)
(0.347183 0.00152148 0)
(0.351832 -0.00162278 0)
(0.340538 -0.0239704 0)
(0.346534 -0.028011 0)
(0.333645 -0.00734 0)
(0.330127 -0.00942149 0)
(0.319283 0.00109879 0)
(0.294674 0.016739 0)
(0.266766 -0.0026828 0)
(0.244235 -0.0134461 0)
(0.214919 -0.0348333 0)
(0.206384 -0.0480087 0)
(0.202336 -0.0528877 0)
(0.212297 -0.0507934 0)
(0.217183 -0.0558642 0)
(0.247076 -0.0593684 0)
(0.294441 -0.0558508 0)
(0.374129 -0.0542487 0)
(0.408093 -0.0534383 0)
(0.426267 -0.0693226 0)
(0.443899 -0.0717574 0)
(0.456071 -0.054944 0)
(0.462519 -0.0488721 0)
(0.473156 -0.0564176 0)
(0.484324 -0.0626522 0)
(0.489842 -0.0653562 0)
(0.487864 -0.0686025 0)
(0.481686 -0.066951 0)
(0.474314 -0.0526602 0)
(0.472593 -0.0240157 0)
(0.494786 0.00101485 0)
(0.545574 -0.0172137 0)
(0.60161 -0.0503039 0)
(0.656717 -0.0510757 0)
(0.687126 -0.0246835 0)
(0.686529 0.0118038 0)
(0.681781 0.0338689 0)
(0.687602 0.0297899 0)
(0.698226 0.0121875 0)
(0.703321 -0.000337962 0)
(0.709772 -0.00290126 0)
(0.722963 0.00929463 0)
(0.732569 0.0369934 0)
(0.727242 0.0727351 0)
(0.705726 0.096168 0)
(0.668181 0.107924 0)
(0.62183 0.0976535 0)
(0.573166 0.0826339 0)
(0.537274 0.0609074 0)
(0.530944 0.0470178 0)
(0.55407 0.0594921 0)
(0.557816 0.0740918 0)
(0.52825 0.0659606 0)
(0.497879 0.0499192 0)
(0.473251 0.0368094 0)
(0.443522 0.0343385 0)
(0.42237 0.0412346 0)
(0.441684 0.0279981 0)
(0.509225 0.00482236 0)
(0.586374 0.0163393 0)
(0.558243 0.0484856 0)
(0.470664 0.0575332 0)
(0.43551 0.0684994 0)
(0.491601 0.0675758 0)
(0.581548 0.0521635 0)
(0.59822 0.0254624 0)
(0.485881 0.00307093 0)
(0.474355 -0.0120883 0)
(0.490646 -0.0252884 0)
(0.32047 -0.0417327 0)
(0.1477 -0.0145565 0)
(-0.0579229 0.0130483 0)
(-0.236989 0.0519904 0)
(-0.344697 0.0677519 0)
(-0.401173 0.0668589 0)
(-0.441947 0.0538164 0)
(-0.349102 0.0209735 0)
(-0.319379 -0.0135477 0)
(-0.279807 -0.0172271 0)
(-0.157796 -0.0070108 0)
(0.142521 0.00252157 0)
(0.148708 0.0867622 0)
(0.401377 0.105905 0)
(0.550183 0.0951834 0)
(0.650374 0.0314427 0)
(0.650424 -0.0342373 0)
(0.514167 -0.0705683 0)
(0.406793 -0.0584136 0)
(0.206046 0.396977 0)
(-0.0205994 0.693482 0)
(-0.0704127 0.471021 0)
(-0.195809 0.381791 0)
(-0.609193 0.561534 0)
(-0.899501 0.645126 0)
(-1.06093 0.649412 0)
(-1.18131 0.663742 0)
(38.5111 0.00104168 0)
(42.5552 0.00416026 0)
(27.7065 0.00613592 0)
(24.2878 0.00724816 0)
(27.6566 0.00838158 0)
(29.6253 0.00973496 0)
(29.3213 0.0111272 0)
(28.6442 0.0123945 0)
(28.4846 0.0135234 0)
(28.6255 0.0145815 0)
(28.727 0.0156268 0)
(28.7254 0.0166811 0)
(28.6962 0.0177495 0)
(28.6868 0.0188415 0)
(28.6932 0.0199748 0)
(28.6996 0.0211698 0)
(28.7013 0.0224459 0)
(28.7013 0.0238225 0)
(28.7018 0.0253205 0)
(28.7031 0.0269637 0)
(28.7044 0.0287782 0)
(28.7054 0.0307923 0)
(28.7062 0.0330368 0)
(28.7069 0.0355454 0)
(28.7076 0.0383549 0)
(28.7081 0.0415061 0)
(28.7085 0.0450445 0)
(28.7087 0.0490205 0)
(28.7087 0.0534913 0)
(28.7085 0.0585212 0)
(28.7081 0.0641836 0)
(28.7074 0.0705615 0)
(28.7064 0.0777491 0)
(28.7052 0.0858536 0)
(28.7035 0.0949961 0)
(28.7015 0.105314 0)
(28.6991 0.116961 0)
(28.6961 0.130114 0)
(28.6927 0.144968 0)
(28.6887 0.161748 0)
(28.684 0.180703 0)
(28.6787 0.202119 0)
(28.6727 0.226313 0)
(28.6658 0.253646 0)
(28.6581 0.284524 0)
(28.6496 0.319402 0)
(28.6401 0.358793 0)
(28.6296 0.403271 0)
(28.6181 0.453481 0)
(28.6056 0.510141 0)
(28.5921 0.57405 0)
(28.5776 0.646097 0)
(28.5622 0.727262 0)
(28.5461 0.81862 0)
(28.5293 0.921348 0)
(28.5121 1.03672 0)
(28.4947 1.1661 0)
(28.4776 1.31094 0)
(28.4612 1.47279 0)
(28.446 1.65324 0)
(28.4328 1.85394 0)
(28.4224 2.07659 0)
(28.4162 2.32289 0)
(28.4156 2.59463 0)
(28.4225 2.8937 0)
(28.4398 3.22228 0)
(28.4708 3.58305 0)
(28.5204 3.97951 0)
(28.5943 4.41654 0)
(28.7003 4.90092 0)
(28.8472 5.442 0)
(29.045 6.05225 0)
(29.3054 6.74804 0)
(29.6378 7.54831 0)
(30.0564 8.47736 0)
(30.5593 9.55251 0)
(31.1744 10.8032 0)
(31.8716 12.2007 0)
(32.6996 13.7763 0)
(33.7388 15.4803 0)
(34.3035 16.9003 0)
(35.1415 18.6395 0)
(34.2228 18.4904 0)
(32.2842 17.0121 0)
(29.7592 15.5337 0)
(22.5581 9.88824 0)
(17.4878 4.51562 0)
(14.4581 2.25901 0)
(9.84367 1.51175 0)
(6.02637 0.715715 0)
(3.33622 0.195816 0)
(2.33779 0.0277571 0)
(1.64418 -0.285382 0)
(1.24161 0.570872 0)
(1.63833 0.532264 0)
(1.76471 0.151025 0)
(1.8427 -0.127467 0)
(1.79194 -0.209849 0)
(1.6792 -0.190174 0)
(1.85972 0.624636 0)
(1.57903 0.648394 0)
(1.51937 0.458506 0)
(1.47482 0.373644 0)
(1.31396 0.205024 0)
(1.40041 -0.0318267 0)
(0.988058 -0.0347293 0)
(0.860727 -0.0489099 0)
(0.814351 -0.0753075 0)
(0.785434 -0.0914196 0)
(0.767011 -0.103689 0)
(0.709732 -0.093699 0)
(0.713799 -0.108989 0)
(0.829835 -0.112768 0)
(0.867814 -0.106911 0)
(0.884497 -0.109034 0)
(0.874986 -0.0977522 0)
(0.86934 -0.09157 0)
(0.871699 -0.100416 0)
(0.840948 -0.073261 0)
(0.789401 -0.0513062 0)
(-0.339056 0.13258 0)
(0.595912 -0.656055 0)
(1.71662 0.0723361 0)
(1.87978 0.275153 0)
(1.92111 0.242591 0)
(1.93067 0.145572 0)
(1.9776 0.118669 0)
(2.03729 0.186137 0)
(2.00039 0.201132 0)
(1.89437 0.0911665 0)
(1.78968 -0.0490664 0)
(1.76497 -0.156842 0)
(1.77834 0.292864 0)
(1.80497 0.434267 0)
(1.7064 0.395054 0)
(1.57911 0.290588 0)
(1.51185 0.109274 0)
(1.53108 -0.103418 0)
(1.61288 -0.270018 0)
(1.8341 -0.176092 0)
(1.99622 -0.178937 0)
(2.12148 -0.173127 0)
(2.35929 0.283547 0)
(3.55319 2.68722 0)
(1.46882 0.565132 0)
(0.778685 0.283555 0)
(0.69925 0.0601891 0)
(0.692048 -0.104322 0)
(0.67858 -0.196701 0)
(0.835552 0.872547 0)
(0.681504 0.217843 0)
(0.613775 0.0834477 0)
(0.609823 0.0032313 0)
(0.599663 -0.00366558 0)
(0.664657 -0.0181053 0)
(0.712147 0.0284837 0)
(0.561955 0.122809 0)
(0.518293 0.0371341 0)
(0.505016 0.00337484 0)
(0.48653 0.00588368 0)
(0.474003 0.0132904 0)
(0.462265 0.013507 0)
(0.44808 0.0114177 0)
(0.435268 0.00320281 0)
(0.407728 -0.018896 0)
(0.290391 -0.0217099 0)
(0.0643282 -0.0431972 0)
(0.0932195 -0.0699672 0)
(0.0220905 -0.176315 0)
(0.208706 -0.306252 0)
(0.277945 -0.31561 0)
(0.335258 -0.219327 0)
(0.290771 -0.0784938 0)
(0.351884 -0.0678506 0)
(0.346589 -0.0352928 0)
(0.381175 0.0331502 0)
(0.418028 0.00397557 0)
(0.46202 -0.00827989 0)
(0.521761 0.00956333 0)
(0.605843 0.02873 0)
(0.670919 0.0273417 0)
(0.682423 0.0276613 0)
(0.613878 0.0397661 0)
(0.525976 0.0333933 0)
(0.608984 0.0263377 0)
(0.713727 -0.0181582 0)
(0.508867 -0.226859 0)
(0.436613 -0.18034 0)
(0.448371 -0.0333397 0)
(0.489931 0.0624279 0)
(0.648448 0.0174099 0)
(0.815802 0.00361953 0)
(0.918481 0.0110039 0)
(0.975139 0.000838058 0)
(1.0052 -0.0263882 0)
(1.01397 -0.0415526 0)
(1.01166 -0.0155538 0)
(1.03436 0.102105 0)
(1.11296 0.2017 0)
(1.13862 0.180701 0)
(1.07342 0.140701 0)
(0.828683 0.314454 0)
(0.667095 0.19984 0)
(0.742431 -0.0416646 0)
(0.903282 -0.0185682 0)
(1.07979 0.235366 0)
(1.1093 0.272127 0)
(0.953671 0.251127 0)
(0.930984 0.255172 0)
(1.11065 0.247414 0)
(1.36062 0.197794 0)
(1.8469 -0.060308 0)
(2.35284 -0.296532 0)
(3.15181 0.217462 0)
(3.44138 0.492472 0)
(3.4351 0.320627 0)
(3.24321 -0.0333037 0)
(3.2719 -0.520855 0)
(3.89379 -0.851363 0)
(3.73603 0.184843 0)
(3.62296 0.429815 0)
(3.8736 0.241031 0)
(3.95476 0.675972 0)
(3.60508 1.17662 0)
(3.08889 1.16969 0)
(2.32279 1.06335 0)
(1.97611 0.732866 0)
(2.00455 0.196959 0)
(2.80673 -0.153947 0)
(4.14551 -0.151049 0)
(5.64082 -0.313748 0)
(6.38819 -0.406273 0)
(7.03308 -0.602453 0)
(7.69803 -0.924366 0)
(8.26383 -1.19297 0)
(8.64832 -1.18763 0)
(9.499 -0.721689 0)
(9.99825 -0.395969 0)
(10.2813 0.0999221 0)
(10.4114 0.850516 0)
(10.0259 1.9067 0)
(9.07026 1.87396 0)
(7.80608 1.23898 0)
(7.26197 1.17244 0)
(4.58353 0.950308 0)
(2.54861 1.08665 0)
(0.266607 1.98872 0)
(-0.207472 1.2778 0)
(-0.449094 0.874349 0)
(-0.702209 0.837949 0)
(38.513 0.00123337 0)
(42.5606 0.0054872 0)
(27.7127 0.00868376 0)
(24.2931 0.0107249 0)
(27.6613 0.0125681 0)
(29.6299 0.014531 0)
(29.3259 0.0164949 0)
(28.6486 0.0183324 0)
(28.4888 0.0200438 0)
(28.6296 0.0216834 0)
(28.7311 0.0232886 0)
(28.7295 0.0248727 0)
(28.7002 0.0264443 0)
(28.6908 0.0280178 0)
(28.6972 0.029612 0)
(28.7037 0.0312469 0)
(28.7056 0.0329429 0)
(28.7057 0.0347216 0)
(28.7064 0.036607 0)
(28.708 0.0386255 0)
(28.7096 0.0408057 0)
(28.7109 0.0431788 0)
(28.7122 0.0457786 0)
(28.7135 0.0486423 0)
(28.7147 0.0518109 0)
(28.7159 0.0553298 0)
(28.7171 0.059249 0)
(28.7183 0.0636244 0)
(28.7194 0.0685182 0)
(28.7204 0.074 0)
(28.7214 0.0801483 0)
(28.7223 0.0870508 0)
(28.7232 0.0948065 0)
(28.724 0.103527 0)
(28.7247 0.113337 0)
(28.7253 0.124377 0)
(28.7258 0.136806 0)
(28.7263 0.1508 0)
(28.7267 0.16656 0)
(28.727 0.184308 0)
(28.7272 0.204294 0)