/*--------------------------------*- C++ -*----------------------------------*\
| =========                 |                                                 |
| \\      /  F ield         | OpenFOAM: The Open Source CFD Toolbox           |
|  \\    /   O peration     | Version:  2406                                  |
|   \\  /    A nd           | Website:  www.openfoam.com                      |
|    \\/     M anipulation  |                                                 |
\*---------------------------------------------------------------------------*/
FoamFile
{
    version     2.0;
    format      ascii;
    arch        "LSB;label=32;scalar=64";
    class       surfaceScalarField;
    location    "1.95";
    object      alphaPhi0.air;
}
// * * * * * * * * * * * * * * * * * * * * * * * * * * * * * * * * * * * * * //

dimensions      [0 3 -1 0 0 0 0];

oriented        oriented;

internalField   nonuniform List<scalar> 
12225
(
0.511127
1.63122e-06
0.511121
6.23693e-06
0.511113
7.62904e-06
0.511107
5.90459e-06
0.511102
5.23022e-06
0.511097
5.13139e-06
0.511092
4.68479e-06
0.511088
4.14984e-06
0.511084
4.18759e-06
0.511079
4.69915e-06
0.511074
5.30136e-06
0.511068
5.89891e-06
0.511062
6.02602e-06
0.511056
5.56945e-06
0.511051
5.41439e-06
0.511045
5.71766e-06
0.511039
5.78226e-06
0.511034
5.59708e-06
0.511028
5.43974e-06
0.511023
5.45074e-06
0.511017
5.74283e-06
0.511011
5.73406e-06
0.511006
5.07406e-06
0.511002
4.7577e-06
0.510996
5.19929e-06
0.510991
5.32261e-06
0.510986
4.95982e-06
0.510981
5.19607e-06
0.510975
5.94017e-06
0.510969
6.28168e-06
0.510963
6.15551e-06
0.510957
5.60113e-06
0.510952
4.78806e-06
0.510948
4.69149e-06
0.510942
5.11945e-06
0.510937
5.23197e-06
0.510932
5.50621e-06
0.510926
5.91275e-06
0.51092
5.70117e-06
0.510915
5.24494e-06
0.51091
5.0863e-06
0.510905
4.98994e-06
0.5109
5.07301e-06
0.510894
5.37828e-06
0.510889
5.38907e-06
0.510884
5.32571e-06
0.510878
5.49483e-06
0.510872
5.60409e-06
0.510867
5.72491e-06
0.510861
5.95699e-06
0.510855
6.08706e-06
0.510849
5.94988e-06
0.510843
5.55074e-06
0.510838
5.27801e-06
0.510833
5.25579e-06
0.510827
5.26576e-06
0.510822
5.40096e-06
0.510816
5.65684e-06
0.51081
5.83856e-06
0.510805
5.87764e-06
0.510799
5.7492e-06
0.510793
5.37171e-06
0.510789
4.79137e-06
0.510784
4.44895e-06
0.51078
4.68971e-06
0.510774
5.32076e-06
0.510768
5.86282e-06
0.510762
5.97571e-06
0.510756
5.9261e-06
0.51075
6.0846e-06
0.510744
6.09526e-06
0.510739
5.72522e-06
0.510733
5.44803e-06
0.510728
5.40715e-06
0.510722
5.27347e-06
0.510717
5.19017e-06
0.510712
5.32553e-06
0.510707
5.31789e-06
0.510701
5.23137e-06
0.510696
5.42601e-06
0.51069
5.66959e-06
0.510685
5.64309e-06
0.510679
5.38953e-06
0.510674
5.16502e-06
0.510669
5.19627e-06
0.510663
5.50405e-06
0.510658
5.79613e-06
0.510652
5.67792e-06
0.510647
5.37726e-06
0.510641
5.29789e-06
0.510636
5.14144e-06
0.510631
4.83581e-06
0.510626
4.90793e-06
0.510621
5.2747e-06
0.510616
5.42557e-06
0.51061
5.58002e-06
0.510604
5.95015e-06
0.510598
6.02584e-06
0.510592
5.79682e-06
0.510587
5.64572e-06
0.510581
5.42897e-06
0.510576
5.13603e-06
0.510571
5.03808e-06
0.510566
5.04203e-06
0.510561
5.04487e-06
0.510556
5.24114e-06
0.51055
5.49667e-06
0.510545
5.55369e-06
0.510539
5.60557e-06
0.510533
5.67742e-06
0.510528
5.6065e-06
0.510522
5.47148e-06
0.510517
5.31317e-06
0.510512
5.25924e-06
0.510506
5.38572e-06
0.510501
5.54939e-06
0.510495
5.64131e-06
0.51049
5.52891e-06
0.510484
5.40655e-06
0.510479
5.43643e-06
0.510473
5.34411e-06
0.510468
5.22474e-06
0.510463
5.19453e-06
0.510458
5.17169e-06
0.510453
5.29262e-06
0.510447
5.40425e-06
0.510442
5.42333e-06
0.510436
5.5745e-06
0.51043
5.68559e-06
0.510425
5.62258e-06
0.510419
5.50592e-06
0.510414
5.27689e-06
0.510409
5.03341e-06
0.510404
4.93237e-06
0.510399
4.92602e-06
0.510394
5.17166e-06
0.510388
5.54735e-06
0.510383
5.65082e-06
0.510377
5.61641e-06
0.510372
5.57993e-06
0.510366
5.48415e-06
0.510361
5.43522e-06
0.510355
5.4432e-06
0.51035
5.50558e-06
0.510344
5.58662e-06
0.510338
5.68054e-06
0.510333
5.86144e-06
0.510327
5.87884e-06
0.510321
5.59632e-06
0.510316
5.26231e-06
0.510311
4.99877e-06
0.510306
4.86521e-06
0.510301
5.03859e-06
0.510295
5.49812e-06
0.51029
5.84826e-06
0.510284
5.84847e-06
0.510278
5.7223e-06
0.510272
5.67291e-06
0.510267
5.66396e-06
0.510261
5.59424e-06
0.510256
5.35995e-06
0.510251
5.01925e-06
0.510246
4.96203e-06
0.51024
5.29159e-06
0.510235
5.64087e-06
0.510229
5.93192e-06
0.510223
6.08085e-06
0.510217
5.87598e-06
0.510211
5.59946e-06
0.510206
5.53254e-06
0.5102
5.56881e-06
0.510195
5.56602e-06
0.510189
5.51833e-06
0.510184
5.45198e-06
0.510178
5.41574e-06
0.510173
5.46618e-06
0.510167
5.47299e-06
0.510162
5.42453e-06
0.510157
5.39477e-06
0.510151
5.28168e-06
0.510146
5.2187e-06
0.510141
5.29861e-06
0.510135
5.43066e-06
0.51013
5.55131e-06
0.510124
5.59499e-06
0.510118
5.70262e-06
0.510113
5.75145e-06
0.510107
5.54328e-06
0.510102
5.32549e-06
0.510097
5.13098e-06
0.510092
5.04161e-06
0.510086
5.25306e-06
0.510081
5.41217e-06
0.510076
5.33316e-06
0.51007
5.26925e-06
0.510065
5.35411e-06
0.510059
5.5908e-06
0.510054
5.76629e-06
0.510048
5.63498e-06
0.510043
5.38192e-06
0.510038
5.18146e-06
0.510033
4.97498e-06
0.510028
4.99391e-06
0.510022
5.30756e-06
0.510017
5.54941e-06
0.510011
5.63107e-06
0.510005
5.63755e-06
0.51
5.65402e-06
0.509994
5.75743e-06
0.509988
5.77422e-06
0.509983
5.62432e-06
0.509977
5.53214e-06
0.509971
5.62799e-06
0.509966
5.67405e-06
0.50996
5.58034e-06
0.509955
5.57681e-06
0.509949
5.4295e-06
0.509944
5.08433e-06
0.509939
5.1178e-06
0.509934
5.44102e-06
0.509928
5.55341e-06
0.509923
5.44102e-06
0.509917
5.33663e-06
0.509912
5.44584e-06
0.509906
5.64467e-06
0.5099
5.69286e-06
0.509895
5.64116e-06
0.509889
5.56318e-06
0.509884
5.48544e-06
0.509878
5.44022e-06
0.509873
5.35984e-06
0.509868
5.36317e-06
0.509862
5.60517e-06
0.509856
5.86015e-06
0.50985
5.97164e-06
0.509844
5.95134e-06
0.509838
5.72263e-06
0.509833
5.46573e-06
0.509828
5.38937e-06
0.509822
5.42658e-06
0.509817
5.46521e-06
0.509811
5.41779e-06
0.509806
5.44694e-06
0.5098
5.57627e-06
0.509795
5.6247e-06
0.509789
5.73201e-06
0.509783
5.83082e-06
0.509777
5.69888e-06
0.509771
5.89049e-06
5.22345e-06
0.511132
1.20131e-08
0.511138
3.382e-07
0.511145
1.1762e-06
0.511149
1.80894e-06
0.511151
2.57037e-06
0.511153
3.14462e-06
0.511155
2.9237e-06
0.511157
2.27209e-06
0.511159
2.23453e-06
0.511161
2.28257e-06
0.511164
2.25672e-06
0.511168
2.21421e-06
0.511172
2.16987e-06
0.511175
2.51366e-06
0.511178
2.74362e-06
0.511181
2.82601e-06
0.511183
3.05496e-06
0.511186
3.034e-06
0.511189
2.79518e-06
0.511191
2.67424e-06
0.511195
2.47883e-06
0.511198
1.94495e-06
0.511202
1.57724e-06
0.511205
1.70664e-06
0.511208
1.9823e-06
0.511211
2.3756e-06
0.511213
2.75674e-06
0.511216
2.81844e-06
0.511219
2.82207e-06
0.511222
2.86255e-06
0.511226
2.6086e-06
0.511229
2.47259e-06
0.511231
2.76898e-06
0.511233
2.726e-06
0.511236
2.29513e-06
0.511239
2.0759e-06
0.511242
2.08573e-06
0.511246
2.20784e-06
0.511249
2.29611e-06
0.511252
2.34104e-06
0.511255
2.57474e-06
0.511257
2.82317e-06
0.511259
2.7237e-06
0.511262
2.49642e-06
0.511265
2.41018e-06
0.511268
2.23649e-06
0.511272
1.9292e-06
0.511275
2.01172e-06
0.511279
2.59688e-06
0.511282
2.7826e-06
0.511285
2.37613e-06
0.511289
2.35089e-06
0.511292
2.66043e-06
0.511294
2.75891e-06
0.511297
2.94084e-06
0.511299
2.99687e-06
0.511302
2.74322e-06
0.511305
2.60464e-06
0.511308
2.48445e-06
0.511312
2.42006e-06
0.511315
2.73833e-06
0.511317
3.04719e-06
0.511319
3.01003e-06
0.51132
2.83273e-06
0.511322
2.61024e-06
0.511325
2.34767e-06
0.511329
2.1547e-06
0.511333
2.10405e-06
0.511337
2.20206e-06
0.51134
2.34381e-06
0.511344
2.42958e-06
0.511347
2.40812e-06
0.51135
2.38102e-06
0.511353
2.48024e-06
0.511356
2.58489e-06
0.511359
2.55293e-06
0.511362
2.39362e-06
0.511365
2.18913e-06
0.511368
2.28671e-06
0.51137
2.64473e-06
0.511373
2.81728e-06
0.511376
2.93356e-06
0.511378
2.97805e-06
0.511381
2.76372e-06
0.511383
2.6311e-06
0.511386
2.45322e-06
0.51139
2.08364e-06
0.511394
2.02122e-06
0.511397
2.12986e-06
0.5114
2.17465e-06
0.511403
2.37147e-06
0.511405
2.60894e-06
0.511407
2.63091e-06
0.51141
2.50977e-06
0.511413
2.30449e-06
0.511417
2.11752e-06
0.51142
2.24877e-06
0.511424
2.6497e-06
0.511427
2.81488e-06
0.51143
2.62686e-06
0.511433
2.45865e-06
0.511435
2.48614e-06
0.511438
2.58079e-06
0.51144
2.69778e-06
0.511443
2.76269e-06
0.511445
2.74452e-06
0.511448
2.68141e-06
0.511451
2.47293e-06
0.511454
2.3298e-06
0.511457
2.43973e-06
0.511461
2.42243e-06
0.511464
2.22309e-06
0.511467
2.11175e-06
0.51147
2.17293e-06
0.511473
2.4392e-06
0.511476
2.64506e-06
0.511479
2.51069e-06
0.511482
2.29178e-06
0.511485
2.33069e-06
0.511488
2.60018e-06
0.511491
2.8108e-06
0.511493
2.73368e-06
0.511496
2.51938e-06
0.511499
2.4525e-06
0.511502
2.45152e-06
0.511505
2.39569e-06
0.511508
2.34038e-06
0.511511
2.34421e-06
0.511514
2.57088e-06
0.511517
2.96137e-06
0.511519
3.20661e-06
0.511521
3.29712e-06
0.511523
3.17465e-06
0.511525
2.79476e-06
0.511527
2.44259e-06
0.51153
2.36105e-06
0.511533
2.55179e-06
0.511536
2.65112e-06
0.511539
2.54328e-06
0.511542
2.50235e-06
0.511546
2.38637e-06
0.511549
2.10785e-06
0.511552
1.99953e-06
0.511556
2.04382e-06
0.511559
2.08908e-06
0.511563
2.25328e-06
0.511566
2.40663e-06
0.51157
2.48599e-06
0.511572
2.65301e-06
0.511575
2.61366e-06
0.511578
2.30689e-06
0.511581
2.07206e-06
0.511584
1.89008e-06
0.511587
1.90262e-06
0.511591
2.20736e-06
0.511594
2.47103e-06
0.511598
2.55019e-06
0.511601
2.50341e-06
0.511604
2.53783e-06
0.511607
2.6861e-06
0.511609
2.73606e-06
0.511612
2.73358e-06
0.511614
2.72262e-06
0.511616
2.67026e-06
0.51162
2.57634e-06
0.511623
2.44556e-06
0.511627
2.42117e-06
0.51163
2.58062e-06
0.511633
2.69641e-06
0.511636
2.53892e-06
0.511639
2.35052e-06
0.511642
2.39284e-06
0.511645
2.59525e-06
0.511648
2.90034e-06
0.51165
3.11303e-06
0.511652
3.16359e-06
0.511655
3.17103e-06
0.511657
3.10903e-06
0.511659
3.02424e-06
0.511662
2.8626e-06
0.511664
2.65186e-06
0.511667
2.4778e-06
0.51167
2.2568e-06
0.511674
2.16683e-06
0.511677
2.18627e-06
0.511681
2.18502e-06
0.511684
2.32327e-06
0.511687
2.42435e-06
0.51169
2.43823e-06
0.511693
2.62643e-06
0.511695
2.81691e-06
0.511697
2.78626e-06
0.5117
2.66325e-06
0.511703
2.48859e-06
0.511706
2.2971e-06
0.511709
2.27846e-06
0.511712
2.33815e-06
0.511716
2.38011e-06
0.511719
2.42713e-06
0.511722
2.35911e-06
0.511725
2.38263e-06
0.511727
2.42983e-06
0.51173
2.16576e-06
0.511733
2.05801e-06
0.511736
2.33468e-06
0.51174
2.54867e-06
0.511743
2.53511e-06
0.511746
2.3495e-06
0.51175
2.15778e-06
0.511753
2.04846e-06
0.511757
1.97378e-06
0.51176
2.07101e-06
0.511764
2.37e-06
0.511767
2.6332e-06
0.511769
2.75486e-06
0.511772
2.7768e-06
0.511775
2.66894e-06
0.511778
2.56492e-06
0.51178
2.66149e-06
0.511783
2.74774e-06
0.511786
2.68108e-06
0.511788
2.54778e-06
0.511791
2.34326e-06
0.511795
2.19597e-06
0.511798
2.19033e-06
0.511802
2.20608e-06
0.511805
2.26991e-06
0.511808
2.47543e-06
0.511811
2.69381e-06
0.511814
2.75556e-06
0.511816
2.75321e-06
0.511819
2.81476e-06
0.511821
2.9263e-06
0.511824
2.97873e-06
0.511827
2.81023e-06
0.511831
2.57557e-06
0.511834
2.49898e-06
0.511837
2.41655e-06
0.51184
2.35e-06
0.511843
2.4264e-06
0.511846
2.39553e-06
0.511849
2.25529e-06
0.511853
2.27729e-06
0.511856
2.42621e-06
0.511859
2.61131e-06
0.511862
2.70553e-06
0.511865
2.70927e-06
0.511868
2.7254e-06
0.511871
2.62792e-06
2.64856e-06
0.511131
1.70047e-07
0.51113
1.20953e-06
0.511129
2.02145e-06
0.511129
1.96328e-06
0.51113
1.29965e-06
0.511133
9.83749e-07
0.511134
1.49606e-06
0.511134
1.90244e-06
0.511135
2.03227e-06
0.511135
2.30739e-06
0.511135
2.31345e-06
0.511135
2.2261e-06
0.511134
2.30665e-06
0.511135
2.35659e-06
0.511135
2.48619e-06
0.511135
2.33127e-06
0.511136
2.17653e-06
0.511136
2.81789e-06
0.511136
3.48433e-06
0.511135
3.10669e-06
0.511136
2.19118e-06
0.511136
1.46078e-06
0.511137
1.06592e-06
0.511137
1.29729e-06
0.511137
1.9293e-06
0.511137
2.28244e-06
0.511137
2.48989e-06
0.511138
2.67761e-06
0.511138
2.72222e-06
0.511138
2.61594e-06
0.511138
2.18852e-06
0.511139
1.8988e-06
0.51114
1.99715e-06
0.51114
1.857e-06
0.511141
1.64075e-06
0.511141
1.81682e-06
0.511141
2.06904e-06
0.511141
2.15653e-06
0.511142
2.13641e-06
0.511142
2.04774e-06
0.511142
2.17069e-06
0.511142
2.65575e-06
0.511142
2.80015e-06
0.511143
2.28203e-06
0.511143
1.87047e-06
0.511144
1.83406e-06
0.511143
2.08204e-06
0.511143
2.49341e-06
0.511143
2.44237e-06
0.511144
1.95623e-06
0.511145
1.73333e-06
0.511145
2.02652e-06
0.511145
2.49715e-06
0.511145
2.70016e-06
0.511145
2.67933e-06
0.511146
2.78706e-06
0.511145
3.05399e-06
0.511145
3.14514e-06
0.511144
2.87339e-06
0.511144
2.41561e-06
0.511145
2.05528e-06
0.511146
1.97777e-06
0.511147
2.0908e-06
0.511148
2.24752e-06
0.511148
2.2871e-06
0.511148
2.08792e-06
0.511148
1.95936e-06
0.511148
2.21712e-06
0.511148
2.59485e-06
0.511148
2.61078e-06
0.511148
2.32192e-06
0.511148
2.16794e-06
0.511148
2.16088e-06
0.511148
2.1899e-06
0.511149
2.29559e-06
0.511149
2.15125e-06
0.51115
1.86885e-06
0.51115
1.96553e-06
0.51115
2.19949e-06
0.51115
2.37326e-06
0.511151
2.54566e-06
0.511151
2.56745e-06
0.511151
2.64965e-06
0.511151
2.82477e-06
0.511151
2.74747e-06
0.511151
2.48435e-06
0.511151
2.14894e-06
0.511151
1.68245e-06
0.511152
1.24361e-06
0.511153
1.19115e-06
0.511154
1.72333e-06
0.511154
2.31183e-06
0.511154
2.4072e-06
0.511154
2.38137e-06
0.511154
2.58033e-06
0.511154
2.6154e-06
0.511153
2.46997e-06
0.511154
2.44404e-06
0.511154
2.42803e-06
0.511154
2.30752e-06
0.511155
2.13213e-06
0.511155
2.04153e-06
0.511156
2.0787e-06
0.511156
2.22436e-06
0.511156
2.47523e-06
0.511157
2.45163e-06
0.511157
2.09881e-06
0.511158
2.02211e-06
0.511158
2.25832e-06
0.511158
2.31306e-06
0.511158
2.03812e-06
0.511159
1.83256e-06
0.511159
2.06118e-06
0.511158
2.54547e-06
0.511158
2.79901e-06
0.511158
2.53503e-06
0.511159
2.03807e-06
0.511159
1.84709e-06
0.511159
2.03229e-06
0.51116
2.23867e-06
0.51116
2.21843e-06
0.511161
2.16579e-06
0.511161
2.26214e-06
0.511161
2.35814e-06
0.511161
2.42017e-06
0.511161
2.47841e-06
0.511161
2.48311e-06
0.511161
2.5557e-06
0.511161
2.76437e-06
0.511161
2.932e-06
0.511161
2.92156e-06
0.511161
2.84038e-06
0.511162
2.74872e-06
0.511162
2.69032e-06
0.511162
2.72925e-06
0.511161
2.6392e-06
0.511162
2.34898e-06
0.511162
2.1346e-06
0.511163
2.05905e-06
0.511163
1.94513e-06
0.511164
1.80392e-06
0.511164
1.79395e-06
0.511164
1.85677e-06
0.511164
1.9963e-06
0.511164
2.18946e-06
0.511164
2.13168e-06
0.511165
1.89983e-06
0.511165
1.81809e-06
0.511166
1.88533e-06
0.511167
1.80163e-06
0.511168
1.48753e-06
0.511168
1.46214e-06
0.511169
1.74312e-06
0.511169
1.88411e-06
0.511169
1.98718e-06
0.511169
2.0976e-06
0.51117
2.19885e-06
0.51117
2.38119e-06
0.51117
2.41758e-06
0.51117
2.25204e-06
0.511171
2.19182e-06
0.511171
2.32666e-06
0.511171
2.45199e-06
0.511172
2.54942e-06
0.511172
2.57871e-06
0.511172
2.40615e-06
0.511172
2.25309e-06
0.511172
2.24223e-06
0.511173
2.22992e-06
0.511173
2.13171e-06
0.511173
2.13605e-06
0.511173
2.39965e-06
0.511173
2.58222e-06
0.511173
2.65929e-06
0.511174
2.86457e-06
0.511174
2.98908e-06
0.511174
2.97625e-06
0.511174
2.83947e-06
0.511175
2.62122e-06
0.511175
2.54121e-06
0.511175
2.57697e-06
0.511175
2.5903e-06
0.511175
2.47444e-06
0.511175
2.31637e-06
0.511175
2.26206e-06
0.511174
2.25386e-06
0.511175
2.21978e-06
0.511175
2.03443e-06
0.511176
1.84814e-06
0.511176
1.97022e-06
0.511177
2.19288e-06
0.511177
2.24261e-06
0.511178
2.23218e-06
0.511178
2.37804e-06
0.511178
2.56938e-06
0.511177
2.54247e-06
0.511177
2.38379e-06
0.511178
2.22081e-06
0.511178
2.00578e-06
0.511179
1.72004e-06
0.511179
1.56112e-06
0.51118
1.64934e-06
0.511181
1.72388e-06
0.511181
1.84246e-06
0.511181
2.19171e-06
0.511181
2.39325e-06
0.511181
2.30681e-06
0.511182
2.1962e-06
0.511182
2.08149e-06
0.511182
2.00895e-06
0.511182
2.0784e-06
0.511182
2.09013e-06
0.511182
1.99471e-06
0.511183
2.01209e-06
0.511183
2.02421e-06
0.511184
1.94516e-06
0.511185
2.02549e-06
0.511185
2.24293e-06
0.511185
2.41893e-06
0.511186
2.46541e-06
0.511186
2.39466e-06
0.511186
2.34764e-06
0.511186
2.26768e-06
0.511186
2.0694e-06
0.511187
1.89781e-06
0.511187
1.87227e-06
0.511187
2.00219e-06
0.511187
2.15502e-06
0.511188
2.22794e-06
0.511188
2.36623e-06
0.511188
2.63248e-06
0.511188
2.87922e-06
0.511188
3.02337e-06
0.511188
3.00427e-06
0.511188
2.75847e-06
0.511188
2.44253e-06
0.511189
2.23504e-06
0.511189
2.07327e-06
0.51119
1.88228e-06
0.51119
1.74105e-06
0.511191
1.74959e-06
0.511191
1.86047e-06
0.511191
2.03481e-06
0.511192
2.35943e-06
0.511192
2.61808e-06
0.511192
2.6107e-06
0.511192
2.4992e-06
0.511192
2.45511e-06
0.511192
2.37587e-06
2.23272e-06
0.511132
-2.63583e-08
0.511132
6.42706e-07
0.511133
1.24543e-06
0.511134
1.25721e-06
0.511134
1.24146e-06
0.511133
1.32441e-06
0.511133
1.5034e-06
0.511133
1.79252e-06
0.511133
1.92546e-06
0.511134
2.0104e-06
0.511134
2.02005e-06
0.511134
1.85822e-06
0.511135
1.91273e-06
0.511135
2.2907e-06
0.511135
2.64527e-06
0.511134
2.606e-06
0.511134
2.46966e-06
0.511135
2.48969e-06
0.511136
2.43538e-06
0.511136
2.1763e-06
0.511137
1.57366e-06
0.511137
1.36728e-06
0.511137
1.63133e-06
0.511137
1.39707e-06
0.511137
1.39439e-06
0.511137
1.9884e-06
0.511138
2.29292e-06
0.511138
2.45964e-06
0.511138
2.47896e-06
0.511138
2.22189e-06
0.511139
1.91406e-06
0.511139
1.57561e-06
0.51114
1.1771e-06
0.511141
1.11502e-06
0.511141
1.57952e-06
0.511141
1.8225e-06
0.511141
1.67649e-06
0.511142
1.63831e-06
0.511142
1.73836e-06
0.511142
2.16776e-06
0.511141
2.61463e-06
0.511142
2.50543e-06
0.511142
2.01719e-06
0.511143
1.54503e-06
0.511143
1.48386e-06
0.511144
1.68728e-06
0.511144
1.90588e-06
0.511144
2.20513e-06
0.511144
2.17514e-06
0.511144
1.93763e-06
0.511144
1.96487e-06
0.511144
2.16108e-06
0.511144
2.46733e-06
0.511144
2.581e-06
0.511144
2.42713e-06
0.511145
2.41439e-06
0.511145
2.54538e-06
0.511146
2.60833e-06
0.511146
2.50026e-06
0.511146
2.25899e-06
0.511146
2.12643e-06
0.511146
2.16481e-06
0.511146
2.13027e-06
0.511146
1.96225e-06
0.511147
1.86346e-06
0.511147
1.79278e-06
0.511147
1.80531e-06
0.511147
2.05062e-06
0.511148
2.30182e-06
0.511148
2.41156e-06
0.511148
2.40569e-06
0.511148
2.11356e-06
0.511148
1.78241e-06
0.511149
1.77564e-06
0.511149
1.88537e-06
0.511149
1.79537e-06
0.51115
1.61875e-06
0.51115
1.70402e-06
0.51115
1.94211e-06
0.51115
2.10749e-06
0.511151
2.32627e-06
0.511151
2.43331e-06
0.511151
2.25678e-06
0.511152
2.1257e-06
0.511152
2.11894e-06
0.511153
2.05716e-06
0.511153
1.95699e-06
0.511153
1.80512e-06
0.511153
1.5961e-06
0.511152
1.50362e-06
0.511152
1.68797e-06
0.511153
2.07233e-06
0.511153
2.20443e-06
0.511153
1.94888e-06
0.511154
1.95168e-06
0.511154
2.32125e-06
0.511154
2.46454e-06
0.511154
2.35467e-06
0.511155
2.15344e-06
0.511155
1.98484e-06
0.511155
2.06486e-06
0.511155
2.15364e-06
0.511155
1.99483e-06
0.511155
1.87408e-06
0.511156
1.92591e-06
0.511156
1.96494e-06
0.511156
2.0081e-06
0.511156
1.99148e-06
0.511157
1.76208e-06
0.511158
1.62381e-06
0.511158
1.70413e-06
0.511158
1.78902e-06
0.511158
1.97496e-06
0.511158
2.29241e-06
0.511159
2.36355e-06
0.511159
2.00751e-06
0.51116
1.70813e-06
0.51116
1.84415e-06
0.51116
2.00157e-06
0.51116
1.95033e-06
0.51116
1.87722e-06
0.511161
1.69526e-06
0.511161
1.48961e-06
0.511162
1.56541e-06
0.511163
1.81838e-06
0.511163
2.0322e-06
0.511163
2.37076e-06
0.511163
2.76913e-06
0.511163
2.96345e-06
0.511163
3.00334e-06
0.511163
2.89598e-06
0.511163
2.64948e-06
0.511163
2.43032e-06
0.511164
2.36887e-06
0.511164
2.45323e-06
0.511164
2.40883e-06
0.511164
2.30354e-06
0.511164
2.315e-06
0.511164
2.0917e-06
0.511164
1.67807e-06
0.511165
1.38934e-06
0.511165
1.18356e-06
0.511166
1.18557e-06
0.511167
1.54943e-06
0.511167
1.98149e-06
0.511167
2.04793e-06
0.511167
1.74844e-06
0.511167
1.40867e-06
0.511168
1.26562e-06
0.511168
1.33027e-06
0.511169
1.39855e-06
0.511169
1.44681e-06
0.511169
1.53613e-06
0.511169
1.61202e-06
0.511169
1.74321e-06
0.51117
1.89737e-06
0.51117
2.0687e-06
0.51117
2.28223e-06
0.51117
2.36417e-06
0.51117
2.27519e-06
0.51117
2.18664e-06
0.51117
2.24413e-06
0.51117
2.24985e-06
0.51117
2.12673e-06
0.511171
2.14142e-06
0.511171
2.1298e-06
0.511171
2.00469e-06
0.511172
2.00364e-06
0.511172
2.07373e-06
0.511172
2.19628e-06
0.511172
2.35322e-06
0.511172
2.44963e-06
0.511172
2.53738e-06
0.511172
2.66598e-06
0.511172
2.77329e-06
0.511172
2.81777e-06
0.511172
2.78292e-06
0.511172
2.52142e-06
0.511173
2.17286e-06
0.511173
2.07586e-06
0.511174
2.17452e-06
0.511174
2.28569e-06
0.511174
2.21578e-06
0.511174
2.0414e-06
0.511175
1.96781e-06
0.511175
1.87918e-06
0.511175
1.9388e-06
0.511175
2.14269e-06
0.511175
2.10724e-06
0.511175
2.00563e-06
0.511175
1.99547e-06
0.511176
1.90755e-06
0.511176
1.8373e-06
0.511176
1.92768e-06
0.511177
2.10323e-06
0.511177
2.19428e-06
0.511178
2.09652e-06
0.511178
1.93008e-06
0.511178
1.84957e-06
0.511178
1.67764e-06
0.511178
1.40989e-06
0.511178
1.41442e-06
0.511179
1.55269e-06
0.511179
1.52759e-06
0.51118
1.55497e-06
0.51118
1.70481e-06
0.511181
1.75426e-06
0.511181
1.63117e-06
0.511182
1.55383e-06
0.511182
1.65226e-06
0.511183
1.70221e-06
0.511183
1.65142e-06
0.511183
1.74792e-06
0.511183
2.00128e-06
0.511183
2.0605e-06
0.511183
1.84711e-06
0.511184
1.77429e-06
0.511184
1.92659e-06
0.511184
2.01152e-06
0.511185
1.93036e-06
0.511185
1.74305e-06
0.511186
1.63588e-06
0.511187
1.76941e-06
0.511187
1.99418e-06
0.511187
2.10943e-06
0.511186
2.09453e-06
0.511186
2.0126e-06
0.511187
1.93513e-06
0.511187
1.95331e-06
0.511187
2.19479e-06
0.511187
2.62033e-06
0.511187
2.82099e-06
0.511187
2.6177e-06
0.511188
2.37982e-06
0.511189
2.22508e-06
0.511189
1.99791e-06
0.511189
1.87837e-06
0.51119
1.93589e-06
0.51119
1.88245e-06
0.51119
1.71228e-06
0.51119
1.70935e-06
0.51119
1.89388e-06
0.51119
2.04002e-06
0.51119
1.98006e-06
0.511191
1.85756e-06
0.511191
1.93983e-06
0.511192
2.13493e-06
0.511192
2.18117e-06
0.511192
2.03526e-06
1.88738e-06
0.511131
1.49723e-07
0.511132
2.85285e-07
0.511132
4.36015e-07
0.511133
1.00599e-06
0.511133
1.22209e-06
0.511133
1.24944e-06
0.511133
1.46061e-06
0.511133
1.60232e-06
0.511133
1.54033e-06
0.511134
1.49945e-06
0.511134
1.59478e-06
0.511134
1.66204e-06
0.511135
1.84805e-06
0.511135
2.04304e-06
0.511135
2.12829e-06
0.511135
2.55995e-06
0.511135
2.80534e-06
0.511135
2.47109e-06
0.511135
2.06419e-06
0.511136
1.74589e-06
0.511136
1.47527e-06
0.511136
9.55349e-07
0.511137
8.38774e-07
0.511137
1.49582e-06
0.511137
1.75293e-06
0.511137
1.85271e-06
0.511137
2.1111e-06
0.511138
1.83748e-06
0.511139
1.52354e-06
0.511139
1.67525e-06
0.511139
1.86098e-06
0.511139
1.68677e-06
0.511139
1.24685e-06
0.511139
1.00731e-06
0.51114
1.12213e-06
0.51114
1.47657e-06
0.51114
1.7129e-06
0.51114
1.62065e-06
0.51114
1.76029e-06
0.51114
2.16695e-06
0.51114
2.18065e-06
0.511141
1.96173e-06
0.511141
1.78668e-06
0.511141
1.42101e-06
0.511141
1.205e-06
0.511142
1.5898e-06
0.511141
1.97229e-06
0.511142
1.83486e-06
0.511142
1.543e-06
0.511143
1.49585e-06
0.511143
1.71396e-06
0.511143
1.95685e-06
0.511144
2.08937e-06
0.511144
2.21071e-06
0.511144
2.31506e-06
0.511144
2.39496e-06
0.511144
2.37495e-06
0.511145
2.21726e-06
0.511145
2.19729e-06
0.511145
2.23704e-06
0.511145
2.05538e-06
0.511146
1.8725e-06
0.511146
1.87143e-06
0.511146
1.94311e-06
0.511146
1.96404e-06
0.511146
1.90749e-06
0.511145
1.92582e-06
0.511146
1.98744e-06
0.511146
1.97726e-06
0.511146
1.86658e-06
0.511147
1.60169e-06
0.511148
1.46884e-06
0.511148
1.5973e-06
0.511148
1.54111e-06
0.511149
1.30451e-06
0.511149
1.37184e-06
0.511149
1.61999e-06
0.511149
1.64394e-06
0.51115
1.60335e-06
0.51115
1.74399e-06
0.51115
1.89723e-06
0.511151
1.99418e-06
0.511151
2.07094e-06
0.511151
1.94593e-06
0.511152
1.73747e-06
0.511152
1.60695e-06
0.511153
1.32821e-06
0.511153
1.12219e-06
0.511154
1.39208e-06
0.511153
1.7763e-06
0.511153
1.90652e-06
0.511153
1.98566e-06
0.511153
2.02534e-06
0.511153
1.87393e-06
0.511154
1.85856e-06
0.511154
2.09872e-06
0.511154
2.17898e-06
0.511154
2.05259e-06
0.511155
1.93047e-06
0.511155
1.78169e-06
0.511155
1.63731e-06
0.511156
1.65515e-06
0.511156
1.79019e-06
0.511156
1.85073e-06
0.511156
1.78677e-06
0.511156
1.66871e-06
0.511157
1.68341e-06
0.511157
1.83092e-06
0.511157
1.83153e-06
0.511157
1.73324e-06
0.511157
1.69576e-06
0.511157
1.72552e-06
0.511157
1.89904e-06
0.511157
1.94263e-06
0.511158
1.6867e-06
0.511158
1.54242e-06
0.511158
1.6397e-06
0.511159
1.70086e-06
0.511159
1.62157e-06
0.511159
1.55209e-06
0.51116
1.5507e-06
0.51116
1.57859e-06
0.51116
1.69273e-06
0.511159
1.72572e-06
0.51116
1.6407e-06
0.51116
1.78752e-06
0.51116
2.175e-06
0.51116
2.53052e-06
0.51116
2.781e-06
0.511161
2.91683e-06
0.511161
2.82025e-06
0.511161
2.48268e-06
0.511161
2.19075e-06
0.511161
2.14475e-06
0.511161
2.22792e-06
0.511162
2.26563e-06
0.511162
2.19965e-06
0.511162
1.99108e-06
0.511162
1.68741e-06
0.511163
1.48596e-06
0.511163
1.33123e-06
0.511163
1.12978e-06
0.511163
1.03097e-06
0.511163
9.9201e-07
0.511164
9.70776e-07
0.511165
1.06071e-06
0.511166
1.19603e-06
0.511166
1.20605e-06
0.511166
1.09083e-06
0.511167
1.09028e-06
0.511167
1.16062e-06
0.511167
1.15958e-06
0.511167
1.21899e-06
0.511168
1.29474e-06
0.511168
1.36281e-06
0.511169
1.53379e-06
0.511169
1.78164e-06
0.511169
1.97677e-06
0.511169
1.98146e-06
0.51117
1.93447e-06
0.51117
1.97206e-06
0.51117
1.99752e-06
0.511171
1.94886e-06
0.511171
1.83463e-06
0.511171
1.83488e-06
0.511171
1.99327e-06
0.511171
2.08111e-06
0.511171
2.02597e-06
0.511171
1.94947e-06
0.511172
1.97381e-06
0.511172
2.10017e-06
0.511172
2.30081e-06
0.511172
2.51575e-06
0.511172
2.63945e-06
0.511172
2.60894e-06
0.511173
2.40186e-06
0.511173
2.24369e-06
0.511173
2.25529e-06
0.511173
2.28634e-06
0.511173
2.31065e-06
0.511173
2.20854e-06
0.511173
1.95227e-06
0.511174
1.7439e-06
0.511174
1.67448e-06
0.511174
1.70408e-06
0.511175
1.64418e-06
0.511175
1.53703e-06
0.511176
1.57704e-06
0.511176
1.66888e-06
0.511176
1.78642e-06
0.511176
1.94397e-06
0.511176
1.98513e-06
0.511176
1.84899e-06
0.511177
1.6628e-06
0.511177
1.61538e-06
0.511178
1.67478e-06
0.511178
1.60632e-06
0.511179
1.38225e-06
0.511179
1.23811e-06
0.51118
1.21263e-06
0.51118
1.13568e-06
0.51118
1.15498e-06
0.51118
1.43504e-06
0.51118
1.64885e-06
0.51118
1.59791e-06
0.51118
1.42285e-06
0.511181
1.2031e-06
0.511182
1.08585e-06
0.511182
1.21313e-06
0.511182
1.34641e-06
0.511183
1.3271e-06
0.511183
1.37463e-06
0.511183
1.50439e-06
0.511183
1.59741e-06
0.511184
1.68628e-06
0.511184
1.73545e-06
0.511184
1.78625e-06
0.511184
1.88871e-06
0.511184
1.85209e-06
0.511184
1.5837e-06
0.511185
1.30916e-06
0.511185
1.30152e-06
0.511185
1.55037e-06
0.511186
1.85141e-06
0.511186
2.06667e-06
0.511186
2.09232e-06
0.511186
1.98206e-06
0.511186
1.92528e-06
0.511186
1.99906e-06
0.511186
2.22916e-06
0.511186
2.47802e-06
0.511186
2.45826e-06
0.511187
2.18293e-06
0.511187
1.88517e-06
0.511188
1.69018e-06
0.511188
1.64272e-06
0.511188
1.70859e-06
0.511188
1.76174e-06
0.511188
1.68746e-06
0.511189
1.56683e-06
0.511189
1.61382e-06
0.511189
1.76364e-06
0.511189
1.78683e-06
0.511189
1.73927e-06
0.511189
1.77228e-06
0.51119
1.84035e-06
0.51119
1.88587e-06
0.51119
1.88681e-06
0.51119
1.75741e-06
1.58116e-06
0.511132
5.1452e-08
0.511132
1.83336e-07
0.511132
3.91693e-07
0.511132
6.79774e-07
0.511132
1.21657e-06
0.511132
1.51931e-06
0.511132
1.50015e-06
0.511132
1.38197e-06
0.511132
1.07678e-06
0.511133
9.27671e-07
0.511133
1.18643e-06
0.511134
1.43e-06
0.511134
1.49047e-06
0.511135
1.47275e-06
0.511135
1.62109e-06
0.511135
2.15452e-06
0.511136
2.65691e-06
0.511136
2.26814e-06
0.511136
1.72476e-06
0.511136
1.64801e-06
0.511136
1.31761e-06
0.511136
1.14115e-06
0.511136
1.23238e-06
0.511136
1.22669e-06
0.511136
1.43239e-06
0.511137
1.60592e-06
0.511137
1.52909e-06
0.511138
1.54807e-06
0.511137
1.62808e-06
0.511138
1.57147e-06
0.511138
1.34716e-06
0.511139
1.03663e-06
0.511139
1.01082e-06
0.511139
1.28396e-06
0.511138
1.37254e-06
0.511139
1.28037e-06
0.511139
1.17935e-06
0.51114
1.16626e-06
0.51114
1.35287e-06
0.51114
1.636e-06
0.511141
1.77523e-06
0.511141
1.5682e-06
0.511142
1.36574e-06
0.511142
1.37933e-06
0.511142
1.4266e-06
0.511141
1.63655e-06
0.511142
1.66257e-06
0.511142
1.20216e-06
0.511143
8.64959e-07
0.511144
1.05397e-06
0.511144
1.51041e-06
0.511144
1.78129e-06
0.511144
1.77372e-06
0.511145
1.86194e-06
0.511145
2.18386e-06
0.511145
2.41804e-06
0.511145
2.21687e-06
0.511145
1.86395e-06
0.511146
1.83529e-06
0.511146
1.88908e-06
0.511146
1.7949e-06
0.511146
1.79962e-06
0.511146
1.76963e-06
0.511147
1.6013e-06
0.511147
1.58998e-06
0.511147
1.73262e-06
0.511147
1.83542e-06
0.511147
1.87041e-06
0.511148
1.8055e-06
0.511148
1.4883e-06
0.511148
1.13708e-06
0.511149
1.27066e-06
0.511149
1.54744e-06
0.511149
1.40354e-06
0.511149
1.28613e-06
0.511149
1.37248e-06
0.511149
1.28097e-06
0.51115
1.26745e-06
0.51115
1.39097e-06
0.51115
1.42979e-06
0.51115
1.64533e-06
0.51115
1.89412e-06
0.511151
1.7789e-06
0.511151
1.53918e-06
0.511151
1.41861e-06
0.511152
1.29894e-06
0.511152
1.08832e-06
0.511152
9.57958e-07
0.511152
1.10839e-06
0.511153
1.4158e-06
0.511153
1.65435e-06
0.511153
1.72875e-06
0.511154
1.68582e-06
0.511154
1.62473e-06
0.511154
1.65023e-06
0.511154
1.78709e-06
0.511155
1.82653e-06
0.511155
1.69305e-06
0.511156
1.57777e-06
0.511156
1.52876e-06
0.511156
1.57198e-06
0.511156
1.77495e-06
0.511156
1.89562e-06
0.511156
1.70607e-06
0.511156
1.47858e-06
0.511156
1.43328e-06
0.511157
1.44215e-06
0.511157
1.55009e-06
0.511157
1.63477e-06
0.511157
1.50788e-06
0.511157
1.52138e-06
0.511157
1.78873e-06
0.511157
1.85276e-06
0.511158
1.52322e-06
0.511158
1.11449e-06
0.511159
1.04699e-06
0.511159
1.28182e-06
0.51116
1.42761e-06
0.51116
1.37884e-06
0.51116
1.26423e-06
0.51116
1.11299e-06
0.511161
1.07668e-06
0.511161
1.19879e-06
0.511162
1.25921e-06
0.511162
1.44022e-06
0.511162
1.86449e-06
0.511162
2.19933e-06
0.511162
2.43422e-06
0.511162
2.58939e-06
0.511163
2.56403e-06
0.511163
2.51927e-06
0.511163
2.46221e-06
0.511163
2.30994e-06
0.511163
2.12596e-06
0.511163
2.07254e-06
0.511163
2.16013e-06
0.511163
2.05642e-06
0.511164
1.7833e-06
0.511164
1.58103e-06
0.511164
1.24566e-06
0.511164
8.3682e-07
0.511165
7.58225e-07
0.511165
8.99513e-07
0.511165
8.70234e-07
0.511165
7.45896e-07
0.511166
6.89526e-07
0.511166
7.24402e-07
0.511166
7.98724e-07
0.511167
8.38403e-07
0.511167