/*--------------------------------*- C++ -*----------------------------------*\
| =========                 |                                                 |
| \\      /  F ield         | OpenFOAM: The Open Source CFD Toolbox           |
|  \\    /   O peration     | Version:  2406                                  |
|   \\  /    A nd           | Website:  www.openfoam.com                      |
|    \\/     M anipulation  |                                                 |
\*---------------------------------------------------------------------------*/
FoamFile
{
    version     2.0;
    format      ascii;
    arch        "LSB;label=32;scalar=64";
    class       volScalarField;
    location    "1.95";
    object      p_rgh;
}
// * * * * * * * * * * * * * * * * * * * * * * * * * * * * * * * * * * * * * //

dimensions      [1 -1 -2 0 0 0 0];

internalField   nonuniform List<scalar> 
6250
(
-3.27576
-3226.75
-1037.67
539.349
494.719
25.5988
-135.099
-57.7969
18.6657
25.0426
4.89474
-4.69175
-2.40955
1.29872
2.04334
1.23031
0.6982
0.734374
0.902287
0.949088
0.910197
0.875443
0.866051
0.864609
0.863644
0.859729
0.853751
0.845251
0.837069
0.833873
0.829447
0.821071
0.816504
0.816731
0.815622
0.813821
0.817385
0.823
0.819197
0.813857
0.815128
0.811443
0.804151
0.802828
0.801489
0.79372
0.783533
0.778099
0.778695
0.776125
0.769957
0.765927
0.759158
0.75237
0.749914
0.747588
0.746709
0.746885
0.743377
0.737743
0.73398
0.732896
0.735501
0.73842
0.735848
0.73129
0.729413
0.7285
0.724165
0.714775
0.705779
0.698247
0.690697
0.688195
0.686665
0.680076
0.676277
0.675458
0.671711
0.668736
0.663671
0.65202
0.642835
0.640014
0.635458
0.629412
0.626313
0.622237
0.617237
0.614342
0.61192
0.607437
0.601613
0.601113
0.60571
0.607558
0.604403
0.598567
0.593814
0.589352
0.584952
0.583499
0.581935
0.578643
0.573025
0.56175
0.549252
0.542226
0.538831
0.53736
0.539243
0.539995
0.540053
0.544082
0.544529
0.540955
0.540721
0.537892
0.529542
0.520485
0.512075
0.503924
0.496538
0.493504
0.492554
0.489425
0.48863
0.489459
0.486
0.479054
0.471535
0.464412
0.458365
0.453899
0.449975
0.444565
0.435981
0.427086
0.42165
0.417155
0.414688
0.415759
0.417259
0.42107
0.424056
0.42247
0.420894
0.417502
0.410882
0.403298
0.394656
0.389186
0.387168
0.385254
0.38421
0.382174
0.378336
0.374603
0.368562
0.36011
0.354456
0.352182
0.350614
0.349311
0.346176
0.340186
0.334448
0.333393
0.337633
0.339922
0.337748
0.335213
0.331803
0.328947
0.326224
0.317706
0.306653
0.298522
0.292014
0.287611
0.284585
0.280784
0.27706
0.272275
0.265425
0.257427
0.250651
0.247297
0.243028
0.238805
0.240174
0.239793
0.232714
0.223715
0.215212
0.211061
0.211032
0.21043
0.211107
0.210982
0.20481
0.198125
0.19361
0.187423
0.183533
0.180226
0.171044
0.164599
0.166504
0.169782
0.169494
0.165243
0.160884
0.156005
0.149239
0.145124
0.140675
0.134915
0.133985
0.135841
0.135667
0.131948
0.128427
0.129682
0.131138
0.128093
0.123018
0.11774
0.110962
0.103677
0.0974488
0.0937326
0.0933063
0.0897663
0.0823451
0.0771484
0.072303
0.0667569
0.0611146
0.0547916
0.0488063
0.0420245
0.0366269
0.0338088
0.0299877
0.0243059
0.0178375
0.0122776
0.00991586
-0.000349153
-3.30665
-3226.81
-1037.71
539.354
494.729
25.6032
-135.096
-57.799
18.6611
25.0435
4.89537
-4.69548
-2.41294
1.29783
2.04341
1.23054
0.700494
0.733958
0.896297
0.946972
0.912395
0.874019
0.864647
0.865777
0.864609
0.861564
0.854663
0.841916
0.833432
0.832829
0.826889
0.819909
0.821795
0.820599
0.813271
0.813438
0.817989
0.818345
0.81762
0.815319
0.811565
0.811229
0.810941
0.808166
0.802501
0.78819
0.774697
0.773849
0.777035
0.77579
0.772103
0.76757
0.76176
0.756762
0.751575
0.745449
0.74269
0.742702
0.742288
0.740106
0.736317
0.733856
0.735576
0.738168
0.735921
0.732206
0.730275
0.728051
0.725029
0.71661
0.702987
0.693788
0.688921
0.685001
0.684559
0.684409
0.681557
0.677799
0.673954
0.668848
0.660314
0.651458
0.644977
0.637685
0.629669
0.626424
0.627866
0.625827
0.620105
0.615256
0.609958
0.605401
0.604501
0.607682
0.608913
0.603747
0.596946
0.59174
0.590753
0.591925
0.590601
0.589872
0.586935
0.577151
0.56493
0.554584
0.548124
0.545606
0.544449
0.542553
0.539866
0.536891
0.536243
0.538992
0.540507
0.542374
0.54566
0.54185
0.531528
0.520646
0.510267
0.501468
0.494674
0.491348
0.490762
0.492701
0.495852
0.491223
0.482098
0.476881
0.470797
0.464511
0.460975
0.454933
0.446874
0.441998
0.437373
0.428818
0.420914
0.415881
0.411913
0.412082
0.417929
0.424528
0.425189
0.421691
0.418939
0.414682
0.411118
0.40838
0.400899
0.392971
0.386333
0.379123
0.37639
0.378426
0.380591
0.377501
0.368226
0.360314
0.356673
0.354187
0.3528
0.350256
0.343149
0.335973
0.33337
0.335313
0.340192
0.34084
0.335885
0.332412
0.330273
0.328482
0.326337
0.318764
0.30885
0.301458
0.294613
0.288125
0.283298
0.280987
0.277976
0.269063
0.26019
0.255931
0.251944
0.249283
0.246254
0.241651
0.240841
0.238888
0.232135
0.224316
0.214656
0.20751
0.206007
0.207001
0.211917
0.215657
0.209753
0.199828
0.192833
0.187075
0.182436
0.177703
0.170717
0.167202
0.168395
0.168639
0.166952
0.162827
0.157844
0.153741
0.149804
0.146656
0.141646
0.138184
0.139338
0.137483
0.133277
0.129885
0.127025
0.128287
0.130535
0.128516
0.12381
0.1183
0.110697
0.102532
0.0977631
0.0957718
0.0942557
0.0884038
0.0791129
0.0753316
0.0734696
0.0669979
0.0594136
0.0535311
0.0489848
0.0439424
0.0391023
0.0353219
0.0299968
0.0230222
0.0165518
0.0108236
0.00533808
0.00313279
-3.30662
-3226.8
-1037.69
539.365
494.734
25.6027
-135.099
-57.8015
18.6559
25.0405
4.89913
-4.68975
-2.40704
1.29872
2.0404
1.23328
0.705556
0.732742
0.895127
0.948463
0.913969
0.878224
0.867732
0.864924
0.863994
0.863344
0.857059
0.84656
0.839005
0.833532
0.824691
0.819164
0.820115
0.817287
0.812459
0.816347
0.822429
0.819765
0.815749
0.815866
0.812826
0.811513
0.812163
0.804278
0.795248
0.787828
0.779968
0.77953
0.779912
0.775075
0.771723
0.766716
0.758411
0.755741
0.753965
0.747669
0.744596
0.744588
0.743195
0.738418
0.734506
0.737741
0.738142
0.731583
0.729665
0.732325
0.733172
0.731519
0.726022
0.715992
0.705576
0.698894
0.69266
0.68491
0.680709
0.680223
0.681059
0.680389
0.673618
0.664503
0.658635
0.65349
0.645608
0.638035
0.633339
0.629845
0.628257
0.626037
0.620177
0.612873
0.607046
0.605122
0.604915
0.60614
0.608671
0.607063
0.601479
0.594636
0.590663
0.590569
0.589931
0.590496
0.588017
0.576674
0.564148
0.554553
0.546052
0.541069
0.541054
0.542539
0.54325
0.543265
0.541696
0.539779
0.539356
0.541434
0.54303
0.538167
0.53013
0.521162
0.509918
0.502007
0.496338
0.490935
0.49029
0.493188
0.495249
0.491768
0.484333
0.478103
0.470685
0.463403
0.4593
0.454128
0.447126
0.44203
0.436548
0.427586
0.420742
0.417073
0.413263
0.414078
0.419789
0.424682
0.425866
0.423428
0.419465
0.413653
0.408836
0.405567
0.398913
0.392974
0.388535
0.382269
0.379929
0.3811
0.379385
0.374014
0.366728
0.360878
0.357927
0.355567
0.351913
0.34598
0.338771
0.336027
0.338524
0.34038
0.341504
0.340306
0.335756
0.334612
0.33388
0.327958
0.320898
0.313919
0.306766
0.300408
0.294242
0.289428
0.286417
0.28387
0.278489
0.267415
0.258395
0.256698
0.253274
0.247808
0.245419
0.242254
0.240006
0.237477
0.229765
0.222735
0.216352
0.209705
0.20942
0.212033
0.213301
0.213346
0.207178
0.197005
0.191713
0.189167
0.183165
0.175747
0.170514
0.169852
0.171374
0.169725
0.16708
0.163196
0.157365
0.153887
0.150149
0.1448
0.140267
0.138973
0.141162
0.138643
0.132246
0.129272
0.128196
0.128213
0.128583
0.126874
0.12268
0.116683
0.109748
0.103538
0.100202
0.0969901
0.0926081
0.0879226
0.0821868
0.0781881
0.0737217
0.0663314
0.0593325
0.053221
0.0489917
0.0451921
0.0395391
0.0336999
0.0276252
0.0215577
0.0152381
0.00958264
0.00591645
0.00284589
-3.30979
-3226.81
-1037.71
539.356
494.725
25.595
-135.103
-57.8006
18.6606
25.042
4.89924
-4.68937
-2.41021
1.29369
2.03752
1.22887
0.69966
0.731204
0.896008
0.94758
0.909364
0.874683
0.871932
0.872218
0.865083
0.859215
0.852742
0.84511
0.840841
0.836362
0.825854
0.816576
0.814021
0.814099
0.818318
0.821966
0.816773
0.812476
0.816344
0.817997
0.812865
0.810961
0.810298
0.801666
0.791373
0.784406
0.782428
0.783733
0.779703
0.773197
0.769234
0.763982
0.756688
0.753723
0.755005
0.751417
0.745906
0.744248
0.740764
0.735224
0.734146
0.73638
0.735866
0.73522
0.73666
0.734498
0.730723
0.728745
0.723706
0.713985
0.702493
0.694781
0.692462
0.689118
0.684322
0.683151
0.683107
0.677722
0.668408
0.661297
0.657315
0.653559
0.645964
0.638874
0.637348
0.633031
0.627082
0.624307
0.618097
0.610992
0.609127
0.609539
0.608157
0.606504
0.605753
0.602768
0.599467
0.596185
0.591522
0.589905
0.590544
0.590086
0.585878
0.576006
0.564433
0.554667
0.547725
0.543177
0.540425
0.53983
0.541215
0.544081
0.543878
0.540464
0.539351
0.539765
0.538897
0.535203
0.528429
0.519856
0.511536
0.505072
0.497229
0.490993
0.491249
0.493183
0.494619
0.492194
0.483095
0.474302
0.468828
0.464351
0.46056
0.456908
0.450308
0.440627
0.432417
0.425348
0.419603
0.417048
0.41552
0.41671
0.420293
0.422591
0.423944
0.423019
0.419172
0.414682
0.410072
0.404421
0.398493
0.393121
0.386867
0.38298
0.382859
0.380867
0.376658
0.371708
0.366054
0.361916
0.359993
0.358448
0.353378
0.345257
0.338446
0.335211
0.336244
0.338238
0.33918
0.339449
0.338222
0.337057
0.334114
0.326655
0.31813
0.311907
0.306965
0.300592
0.294746
0.291526
0.288153
0.283547
0.276712
0.266755
0.25886
0.256242
0.25243
0.246293
0.244538
0.243951
0.240995
0.236605
0.22884
0.221294
0.2146
0.208667
0.210407
0.215174
0.215091
0.212376
0.20732
0.19958
0.193764
0.189455
0.181285
0.173567
0.170974
0.170519
0.170909
0.168949
0.164573
0.161107
0.157517
0.154806
0.151256
0.145428
0.141822
0.14169
0.141899
0.137777
0.131177
0.128104
0.128185
0.128372
0.126869
0.124885
0.121832
0.115889
0.109578
0.104284
0.10028
0.0961019
0.0920687
0.0900825
0.0846422
0.0753687
0.0683518
0.0638528
0.0597467
0.0549484
0.0510053
0.0476909
0.0413527
0.032471
0.0246546
0.0187824
0.0140776
0.0104373
0.00726179
0.00318895
-3.31242
-3226.82
-1037.71
539.359
494.731
25.5956
-135.105
-57.7993
18.6649
25.0449
4.90037
-4.68765
-2.40863
1.29456
2.03824
1.22932
0.701299
0.735505
0.899263
0.947426
0.91111
0.880057
0.873982
0.871494
0.865275
0.860132
0.85865
0.852879
0.841693
0.833371
0.826048
0.818483
0.816535
0.818826
0.819565
0.816127
0.812855
0.814481
0.817873
0.818307
0.816225
0.813141
0.806043
0.797077
0.790484
0.785388
0.784741
0.784751
0.779405
0.775232
0.772307
0.764377
0.755641
0.753797
0.755966
0.753145
0.747399
0.743287
0.739628
0.73828
0.736628
0.732255
0.731971
0.736736
0.737887
0.734615
0.733959
0.731692
0.723683
0.715057
0.704173
0.694548
0.692147
0.689588
0.685558
0.684405
0.682433
0.675469
0.667254
0.663295
0.65877
0.651088
0.645264
0.64168
0.638872
0.634262
0.628182
0.623117
0.617086
0.611979
0.611109
0.612329
0.611324
0.607913
0.604429
0.600022
0.597843
0.597641
0.594753
0.592973
0.591548
0.587239
0.582118
0.574505
0.564552
0.554788
0.547455
0.544336
0.543665
0.543745
0.543699
0.543067
0.54114
0.538677
0.538366
0.539674
0.539837
0.534891
0.526457
0.519024
0.510732
0.502921
0.497346
0.494151
0.495333
0.495709
0.494152
0.491737
0.482841
0.473165
0.469466
0.464597
0.457796
0.455122
0.450867
0.441392
0.433605
0.426281
0.418683
0.415722
0.415395
0.418298
0.423584
0.425393
0.424146
0.420682
0.416809
0.414974
0.412651
0.408101
0.400197
0.390041
0.383214
0.383093
0.384963
0.382264
0.376844
0.371599
0.366554
0.363226
0.361413
0.357699
0.349518
0.342454
0.34001
0.338804
0.340419
0.341742
0.339532
0.338194
0.336529
0.334264
0.331492
0.32536
0.318216
0.311619
0.305955
0.3012
0.296801
0.294334
0.290106
0.280545
0.271491
0.266737
0.2623
0.258241
0.253764
0.245911
0.242379
0.242708
0.23966
0.236062
0.22893
0.220256
0.215719
0.211349
0.212421
0.217841
0.216353
0.211384
0.206722
0.199341
0.192034
0.187301
0.182165
0.17737
0.174263
0.171479
0.170752
0.168242
0.163238
0.161716
0.159692
0.154914
0.149615
0.145273
0.144867
0.144511
0.141201
0.13529
0.128265
0.126272
0.129052
0.130393
0.127469
0.122927
0.119848
0.116097
0.110426
0.104667
0.100281
0.096626
0.0935331
0.0905086
0.082854
0.0731538
0.0678248
0.0648012
0.0610146
0.0550442
0.0493756
0.0460473
0.0399247
0.0310181
0.0247388
0.0216675
0.0184985
0.0117663
0.00572096
0.00260621
-3.31589
-3226.82
-1037.72
539.354
494.729
25.5955
-135.106
-57.8021
18.6632
25.0456
4.90054
-4.68945
-2.41191
1.29212
2.04021
1.23086
0.696049
0.730057
0.899839
0.949001
0.909127
0.876863
0.873628
0.871793
0.868064
0.865768
0.857468
0.849315
0.844091
0.835856
0.824237
0.815555
0.815024
0.815703
0.815693
0.816775
0.814881
0.81392
0.816202
0.816024
0.813871
0.809265
0.801648
0.797273
0.793096
0.787271
0.785978
0.782488
0.774581
0.770943
0.769133
0.765914
0.759879
0.753273
0.754084
0.753705
0.746949
0.742159
0.737384
0.735111
0.734925
0.731816
0.735433
0.741278
0.736933
0.731561
0.73296
0.731759
0.722533
0.712518
0.70355
0.695663
0.692553
0.69125
0.689524
0.685503
0.677567
0.670455
0.666503
0.663178
0.65713
0.651269
0.648218
0.643287
0.637864
0.633585
0.62848
0.623063
0.617291
0.614122
0.613786
0.612937
0.610736
0.606571
0.602864
0.599795
0.596835
0.595197
0.593573
0.594069
0.594052
0.589242
0.582751
0.572943
0.560719
0.552031
0.546637
0.544395
0.545819
0.546825
0.544293
0.541763
0.540216
0.537314
0.536494
0.537763
0.536733
0.532379
0.526114
0.519811
0.512036
0.50333
0.496338
0.493075
0.495025
0.496584
0.494964
0.491101
0.482007
0.472583
0.468378
0.464796
0.45943
0.454924
0.44968
0.44044
0.430729
0.423529
0.41876
0.417491
0.417907
0.420169
0.423797
0.424712
0.423045
0.420243
0.417386
0.414343
0.41064
0.406763
0.399364
0.390481
0.386279
0.38466
0.382669
0.380289
0.376644
0.37149
0.36759
0.365406
0.361338
0.355942
0.349445
0.342984
0.340086
0.338542
0.338387
0.339174
0.339038
0.340462
0.339905
0.335436
0.329389
0.321598
0.314501
0.309196
0.305978
0.30306
0.298373
0.294718
0.288819
0.278403
0.270634
0.267779
0.263849
0.257658
0.252627
0.246659
0.242247
0.2412
0.237978
0.234051
0.227671
0.21974
0.216737
0.214115
0.214296
0.21878
0.217686
0.212264
0.206775
0.199719
0.191627
0.185129
0.180112
0.175659
0.173473
0.17264
0.172938
0.171246
0.165394
0.162409
0.160024
0.153531
0.147984
0.145804
0.145528
0.142803
0.137385
0.133278
0.130531
0.12931
0.129061
0.128276
0.125794
0.122258
0.119925
0.116115
0.109185
0.10298
0.100596
0.0992444
0.0942488
0.0871514
0.0791478
0.0714884
0.0675102
0.0641149
0.0587167
0.0534479
0.0503958
0.0478516
0.0409394
0.0314371
0.025713
0.0234176
0.0181398
0.0106875
0.0049729
0.00191511
-3.31773
-3226.83
-1037.72
539.346
494.727
25.5988
-135.103
-57.8023
18.6616
25.0465
4.90146
-4.69058
-2.4111
1.29632
2.04395
1.23102
0.693568
0.728567
0.900407
0.95101
0.915161
0.882241
0.873122
0.872336
0.870302
0.86672
0.861059
0.854608
0.845295
0.833047
0.826293
0.822854
0.818409
0.814714
0.812886
0.813169
0.813712
0.815766
0.817651
0.816666
0.814134
0.806627
0.79808
0.79799
0.797583
0.789389
0.781817
0.77797
0.77742
0.777611
0.771157
0.762015
0.75858
0.758064
0.757332
0.752053
0.743278
0.740313
0.739094
0.737191
0.736543
0.733812
0.735783
0.739975
0.736791
0.734298
0.73566
0.730675
0.719982
0.713559
0.707861
0.698265
0.693278
0.692638
0.689516
0.683139
0.676113
0.670994
0.668173
0.665697
0.658085
0.649683
0.647424
0.643528
0.637585
0.634811
0.629992
0.62343
0.620158
0.618773
0.615887
0.612981
0.610918
0.606498
0.602083
0.599206
0.596638
0.597114
0.597141
0.593705
0.590625
0.588459
0.583282
0.572484
0.5615
0.553618
0.547487
0.546147
0.547241
0.546604
0.544979
0.542039
0.538644
0.536231
0.536187
0.537846
0.536746
0.531285
0.524757
0.518854
0.510935
0.503407
0.498588
0.495191
0.496926
0.499105
0.494512
0.488979
0.482511
0.473268
0.467985
0.465157
0.459035
0.452984
0.44891
0.441063
0.430738
0.424254
0.41977
0.41629
0.417687
0.422941
0.42631
0.425974
0.424032
0.420453
0.416783
0.414557
0.411371
0.405266
0.396494
0.390862
0.389186
0.385633
0.383406
0.381815
0.375811
0.370825
0.369406
0.366815
0.361344
0.355103
0.348301
0.34263
0.341749
0.34126
0.339859
0.34059
0.340408
0.339144
0.337196
0.333488
0.327582
0.320514
0.31571
0.310039
0.304697
0.303258
0.299599
0.293776
0.287171
0.278324
0.271868
0.26922
0.265396
0.258191
0.251706
0.246047
0.241648
0.240243
0.236269
0.232213
0.228122
0.220519
0.217693
0.217896
0.218383
0.221301
0.219455
0.212408
0.204419
0.19623
0.189419
0.184685
0.18118
0.177906
0.176464
0.175079
0.173182
0.172211
0.16875
0.164718
0.159904
0.15213
0.147055
0.145633
0.145092
0.142292
0.135968
0.131254
0.130791
0.132041
0.130995
0.127799
0.124448
0.120359
0.117583
0.115248
0.110376
0.105625
0.103104
0.0996732
0.0918979
0.0826873
0.0757825
0.0710159
0.0675519
0.0630189
0.0581861
0.0554977
0.0525677
0.0461326
0.0381872
0.0342355
0.0318965
0.0259707
0.0169443
0.00951274
0.00548242
0.00263343
-3.31492
-3226.83
-1037.73
539.341
494.721
25.5975
-135.105
-57.8036
18.665
25.0495
4.90072
-4.69254
-2.41225
1.29553
2.04332
1.22917
0.692042
0.730488
0.903255
0.951457
0.912133
0.881049
0.875677
0.874153
0.87486
0.8706
0.854959
0.846854
0.847451
0.840247
0.828252
0.819359
0.813916
0.811036
0.813626
0.816212
0.815021
0.816456
0.815058
0.810401
0.808768
0.804507
0.800544
0.799871
0.795117
0.787504
0.782861
0.778516
0.773434
0.770577
0.768569
0.766058
0.76342
0.75773
0.752521
0.74852
0.742975
0.740783
0.737905
0.734748
0.737217
0.737713
0.737152
0.736449
0.734554
0.737091
0.735781
0.727262
0.720025
0.713687
0.705581
0.699062
0.69694
0.694216
0.688386
0.681176
0.674849
0.671075
0.666646
0.662008
0.65794
0.652362
0.648054
0.643177
0.637153
0.632965
0.628464
0.625303
0.62341
0.620255
0.617485
0.613907
0.609138
0.604532
0.600833
0.598385
0.596476
0.596665
0.596435
0.593793
0.592458
0.590037
0.582347
0.570453
0.558995
0.551403
0.547786
0.548399
0.549189
0.547532
0.544081
0.537522
0.534651
0.538385
0.539047
0.535425
0.532627
0.528502
0.523012
0.51889
0.512546
0.503998
0.498314
0.495269
0.49549
0.49688
0.494327
0.489784
0.483267
0.473911
0.466319
0.462502
0.45982
0.455231
0.448238
0.437843
0.426156
0.420768
0.420554
0.420514
0.422769
0.425283
0.424263
0.424011
0.42431
0.420805
0.417043
0.413812
0.40692
0.400493
0.397154
0.394519
0.391156
0.386627
0.383454
0.379285
0.374343
0.373261
0.370673
0.365221
0.36047
0.354555
0.348434
0.344364
0.342762
0.340524
0.338072
0.339369
0.340116
0.339291
0.338901
0.335232
0.326557
0.316557
0.31066
0.306629
0.304777
0.306103
0.30135
0.29235
0.284476
0.277112
0.273483
0.271314
0.266175
0.257154
0.248718
0.244071
0.240599
0.239441
0.236539
0.231185
0.227025
0.221136
0.219448
0.221927
0.221673
0.220828
0.217727
0.210818
0.20339
0.197098
0.189977
0.182542
0.178952
0.176972
0.176796
0.178146
0.177328
0.176079
0.17108
0.162947
0.156993
0.15177
0.148724
0.146502
0.14216
0.138394
0.135065
0.132779
0.133322
0.13306
0.128751
0.123706
0.120521
0.118688
0.118284
0.116031
0.111894
0.108525
0.103756
0.0972498
0.0883117
0.0784281
0.0728517
0.0700133
0.0668479
0.0625793
0.0587856
0.0573251
0.0528085
0.0440061
0.0389071
0.038836
0.0343853
0.0248101
0.015019
0.00814786
0.00558083
0.00262779
-3.32087
-3226.83
-1037.73
539.343
494.72
25.5968
-135.102
-57.8024
18.6651
25.0494
4.89598
-4.69604
-2.40735
1.29957
2.03945
1.22759
0.694514
0.72967
0.90319
0.956823
0.918722
0.884532
0.876655
0.872565
0.8705
0.871202
0.862451
0.852861
0.848491
0.837345
0.828011
0.82449
0.816423
0.812012
0.813379
0.812714
0.814399
0.81644
0.813645
0.811354
0.80883
0.805226
0.80211
0.797751
0.792691
0.785608
0.780677
0.779238
0.776265
0.775195
0.771989
0.76391
0.761745
0.759852
0.750977
0.745008
0.742485
0.74162
0.741216
0.738666
0.73879
0.738707
0.735625
0.734894
0.737387
0.737965
0.733185
0.728693
0.724229
0.714653
0.705077
0.701094
0.699514
0.694172
0.687105
0.680599
0.674857
0.672754
0.66971
0.664107
0.6587
0.650722
0.644548
0.642337
0.639038
0.635239
0.631312
0.626812
0.623559
0.621484
0.619072
0.616349
0.612576
0.604749
0.59801
0.597603
0.598057
0.597892
0.597173
0.594662
0.592348
0.588274
0.581571
0.571912
0.560137
0.553378
0.55153
0.549785
0.547218
0.544188
0.541128
0.538381
0.538417
0.53956
0.537154
0.534068
0.533097
0.530357
0.524262
0.51749
0.509114
0.501247
0.499305
0.499266
0.498562
0.498435
0.494085
0.486811
0.481553
0.475859
0.468579
0.46296
0.459071
0.45312
0.445152
0.437599
0.430289
0.423932
0.419182
0.417779
0.42184
0.427578
0.430251
0.428966
0.424872
0.419029
0.415117
0.412151
0.405104
0.39943
0.397519
0.394011
0.391666
0.390035
0.385273
0.380341
0.376945
0.373647
0.369096
0.364693
0.359931
0.353718
0.349109
0.345945
0.343957
0.34234
0.340654
0.341168
0.340198
0.338398
0.336574
0.330547
0.323806
0.317769
0.31286
0.309097
0.30522
0.304308
0.300051
0.290248
0.283382
0.279577
0.275802
0.271439
0.265962
0.256924
0.248476
0.244651
0.239485
0.235852
0.233921
0.23047
0.229483
0.226736
0.224365
0.224892
0.222558
0.220171
0.216905
0.210019
0.20195
0.193923
0.187822
0.184626
0.183822
0.18167
0.179038
0.178471
0.17672
0.175482
0.172228
0.164355
0.157817
0.153478
0.150549
0.147196
0.142248
0.138354
0.134696
0.132121
0.131606
0.130178
0.126366
0.121966
0.120253
0.120964
0.120364
0.116526
0.11216
0.108323
0.102119
0.0945698
0.0859562
0.0768933
0.0714975
0.0684603
0.0672316
0.0673077
0.0637247
0.0563939
0.0491958
0.0448771
0.041779
0.0373195
0.0294151
0.0216681
0.0183266
0.01484
0.00906334
0.00292647
-3.3196
-3226.83
-1037.73
539.341
494.72
25.5977
-135.102
-57.801
18.665
25.0462
4.89615
-4.69395
-2.40996
1.29557
2.04086
1.23011
0.694399
0.734787
0.908242
0.952803
0.915433
0.883219
0.874931
0.876969
0.875762
0.870816
0.860497
0.851667
0.849882
0.842156
0.830736
0.821275
0.812933
0.810857
0.813474
0.817053
0.817031
0.812384
0.809501
0.810249
0.806433
0.801771
0.802088
0.799465
0.792106
0.785877
0.779602
0.775954
0.774655
0.771602
0.769386
0.76665
0.762757
0.756102
0.747925
0.746635
0.744185
0.738887
0.740266
0.74044
0.739343
0.739929
0.735724
0.733036
0.737161
0.738481
0.732453
0.727071
0.722876
0.714808
0.707529
0.703306
0.698394
0.69243
0.687565
0.682764
0.675364
0.670354
0.666477
0.661805
0.659142
0.652572
0.644058
0.641556
0.639624
0.633908
0.629672
0.627908
0.625178
0.623555
0.622423
0.616376
0.608946
0.602731
0.598501
0.59889
0.597523
0.595255
0.59724
0.596316
0.591963
0.588278
0.580836
0.569766
0.560849
0.55526
0.550177
0.548057
0.547664
0.543223
0.538422
0.537844
0.538415
0.538118
0.537242
0.534687
0.530908
0.527288
0.523169
0.518066
0.510019
0.500836
0.497913
0.498403
0.496848
0.496135
0.494009
0.487961
0.481571
0.474761
0.467508
0.462404
0.459439
0.454106
0.443334
0.432634
0.426384
0.422351
0.420912
0.423465
0.427076
0.429501
0.429979
0.42643
0.421716
0.419081
0.414593
0.407645
0.401913
0.39939
0.398128
0.395111
0.393097
0.391166
0.385548
0.380549
0.377446
0.37289
0.368545
0.365392
0.359036
0.352035
0.350297
0.347786
0.343473
0.342555
0.340584
0.33893
0.340125
0.339854
0.336193
0.329387
0.322298
0.314281
0.307999
0.307716
0.30728
0.305193
0.300622
0.291476
0.283176
0.27822
0.274958
0.270395
0.263627
0.255299
0.247884
0.243547
0.238537
0.23612
0.234775
0.229117
0.228224
0.230052
0.228091
0.225963
0.22229
0.217504
0.212908
0.209
0.204448
0.195662
0.187981
0.185395
0.183709
0.17992
0.177978
0.179679
0.179082
0.176342
0.171889
0.165033
0.15991
0.155171
0.150683
0.147194
0.141682
0.137072
0.135053
0.13258
0.128972
0.126024
0.12247
0.118909
0.119966
0.122624
0.121708
0.117638
0.112616
0.10828
0.100474
0.0885321
0.0789559
0.0744901
0.0724331
0.0702857
0.0711106
0.0714733
0.0627294
0.051828
0.0476763
0.0457532
0.0402688
0.0346408
0.0299505
0.0252325
0.0213358
0.0150963
0.00689573
0.00151915
-3.32164
-3226.84
-1037.73
539.344
494.725
25.5957
-135.104
-57.8
18.6625
25.0449
4.89825
-4.69035
-2.40786
1.29637
2.04152
1.23053
0.695012
0.731769
0.906366
0.957784
0.918484
0.882228
0.87446
0.875428
0.875323
0.873395
0.865415
0.855953
0.85031
0.842139
0.831046
0.82273
0.817586
0.813996
0.811401
0.8138
0.816825
0.812987
0.810941
0.811431
0.806803
0.803256
0.801912
0.794754
0.788187
0.784381
0.780636
0.780092
0.774996
0.768656
0.769991
0.767985
0.760593
0.753249
0.747651
0.748864
0.746446
0.739585
0.742277
0.74403
0.73863
0.736481
0.736795
0.73722
0.738148
0.737396
0.733757
0.728279
0.722066
0.715902
0.709365
0.703274
0.700492
0.695989
0.687549
0.680112
0.674967
0.674397
0.671662
0.662646
0.656588
0.650791
0.64353
0.64114
0.64025
0.636609
0.631511
0.628474
0.626796
0.62503
0.623129
0.617207
0.609177
0.603924
0.601393
0.600662
0.597429
0.594588
0.596732
0.59713
0.59342
0.58759
0.579932
0.572474
0.565774
0.558319
0.55053
0.544919
0.542746
0.541092
0.540255
0.541479
0.540324
0.537136
0.53608
0.534402
0.53137
0.529437
0.524275
0.515345
0.50765
0.501304
0.498487
0.49931
0.498742
0.496898
0.493197
0.486454
0.480125
0.474709
0.47034
0.465773
0.457671
0.448776
0.441257
0.434965
0.429469
0.423348
0.420855
0.424671
0.429416
0.432067
0.431648
0.427968
0.423947
0.41842
0.410267
0.40401
0.400857
0.3986
0.398603
0.398045
0.395418
0.392707
0.388298
0.382917
0.377581
0.372144
0.36765
0.362297
0.358168
0.356224
0.353633
0.348926
0.344322
0.34313
0.341963
0.340454
0.341014
0.339223
0.332335
0.32473
0.320442
0.315135
0.31049
0.311425
0.308774
0.302213
0.297731
0.291768
0.285234
0.280301
0.275096
0.268212
0.261005
0.254796
0.248391
0.243152
0.238171
0.234644
0.234179
0.232912
0.233223
0.233683
0.229661
0.223615
0.218101
0.216348
0.215544
0.210962
0.202576
0.194171
0.190567
0.189039
0.186248
0.182329
0.178387
0.177697
0.17725
0.175057
0.172898
0.169299
0.165088
0.158934
0.151294
0.146964
0.14316
0.136198
0.131615
0.130671
0.127589
0.123383
0.12069
0.120328
0.123996
0.124707
0.120438
0.116193
0.11067
0.105102
0.09768
0.0860816
0.0778174
0.0749132
0.0738349
0.0738291
0.0736027
0.0693955
0.0603841
0.0517096
0.0482432
0.0452595
0.0382501
0.0328319
0.0305792
0.0271046
0.0225565
0.0154711
0.00633114
0.00156822
-3.32048
-3226.83
-1037.73
539.344
494.722
25.5933
-135.106
-57.8019
18.6637
25.0477
4.90145
-4.69244
-2.41369
1.29575
2.04648
1.23383
0.697765
0.73737
0.904934
0.948876
0.915014
0.883252
0.875735
0.883503
0.882611
0.870898
0.863361
0.85787
0.850518
0.842496
0.831527
0.822495
0.817794
0.81165
0.810748
0.81778
0.818517
0.811297
0.80871
0.810398
0.805966
0.799436
0.799278
0.79669
0.788871
0.782895
0.778269
0.775635
0.772617
0.76783
0.767732
0.767147
0.760339
0.753194
0.748323
0.746349
0.744277
0.742002
0.743998
0.743267
0.739143
0.738949
0.737704
0.735245
0.738599
0.739993
0.732024
0.723958
0.720076
0.716753
0.712991
0.705618
0.698388
0.694256
0.688497
0.682462
0.676283
0.670363
0.667372
0.662835
0.656462
0.650248
0.644641
0.642629
0.640432
0.633738
0.627917
0.628426
0.629706
0.628427
0.625089
0.614884
0.605441
0.604705
0.602038
0.597764
0.597356
0.596829
0.596054
0.5963
0.59468
0.588788
0.58085
0.572568
0.563597
0.554793
0.5479
0.544651
0.544135
0.542447
0.539954
0.538619
0.537384
0.537022
0.537554
0.535209
0.530483
0.526219
0.52125
0.515448
0.510079
0.503135
0.497536
0.496682
0.495154
0.492506
0.492089
0.488213
0.480513
0.474073
0.470241
0.465759
0.456645
0.44737
0.439312
0.430411
0.425556
0.42456
0.42596
0.431398
0.435579
0.43336
0.428297
0.424099
0.419316
0.414509
0.409494
0.40385
0.399911
0.398029
0.398865
0.399872
0.397263
0.393861
0.388339
0.380579
0.376159
0.373392
0.368215
0.362971
0.359547
0.35545
0.351549
0.349727
0.346645
0.343063
0.340318
0.338377
0.339232
0.338721
0.333508
0.325873
0.317488
0.31017
0.307194
0.309793
0.310879
0.306469
0.300215
0.291988
0.283565
0.277542
0.27229
0.265522
0.258679
0.252947
0.247015
0.243355
0.2406
0.236682
0.235252
0.234271
0.233358
0.232685
0.228037
0.220904
0.217022
0.217884
0.216662
0.209895
0.202765
0.197566
0.193965
0.189551
0.183832
0.178685
0.17565
0.177011
0.179182
0.178849
0.176501
0.171408
0.165278
0.157696
0.150585
0.147388
0.142615
0.134457
0.130302
0.130222
0.126683
0.122174
0.12121
0.120937
0.122097
0.121733
0.118186
0.115951
0.111233
0.102451
0.0925261
0.0831422
0.0772148
0.0746209
0.0754235
0.0766786
0.0728729
0.0649602
0.0572308
0.0527964
0.0489963
0.0430458
0.0368452
0.0358798
0.0361957
0.0290796
0.0201918
0.013409
0.00504756
0.000492442
-3.32102
-3226.83
-1037.73
539.344
494.724
25.5929
-135.109
-57.8022
18.6634
25.0454
4.90073
-4.68746
-2.40805
1.29927
2.04697
1.232
0.695842
0.734072
0.904358
0.953271
0.918827
0.884574
0.87342
0.878962
0.883041
0.873744
0.867706
0.863671
0.850405
0.84098
0.833876
0.822767
0.817648
0.816206
0.814388
0.814153
0.813083
0.812525
0.813832
0.812128
0.805167
0.797733
0.795611
0.794241
0.787753
0.782374
0.779689
0.774661
0.76882
0.767444
0.768446
0.764952
0.758396
0.752903
0.749088
0.747811
0.746996
0.744702
0.743777
0.743763
0.741891
0.738424
0.736888
0.738123
0.739275
0.7384
0.733555
0.726409
0.720258
0.716178
0.712476
0.706637
0.70238
0.696919
0.685981
0.680026
0.678759
0.674525
0.669231
0.662882
0.655784
0.649883
0.645671
0.642786
0.638766
0.634552
0.631698
0.631008
0.630411
0.625313
0.620919
0.617835
0.612892
0.608157
0.602602
0.598447
0.597032
0.596202
0.597632
0.597598
0.593999
0.589554
0.583273
0.574507
0.564729
0.555689
0.5472
0.541194
0.541035
0.543133
0.542425
0.540606
0.5395
0.53782
0.535878
0.534111
0.531814
0.528489
0.522035
0.514315
0.507908
0.501513
0.497476
0.49875
0.497542
0.493153
0.490066
0.485364
0.479867
0.476922
0.473064
0.464705
0.452622
0.443849
0.438652
0.432731
0.429401
0.42797
0.428734
0.433342
0.434887
0.431926
0.429272
0.426298
0.420759
0.413491
0.406612
0.40053
0.397931
0.399166
0.401063
0.401378
0.399157
0.395992
0.390353
0.382898
0.377426
0.371178
0.364169
0.360407
0.359548
0.358576
0.35614
0.353301
0.348594
0.342458
0.34027
0.340725
0.339303
0.334967
0.329051
0.322073
0.316875
0.314994
0.312653
0.311054
0.310208
0.30541
0.298148
0.292206
0.28518
0.276593
0.269969
0.264534
0.258267
0.252694
0.247879
0.24373
0.239591
0.236979
0.238119
0.238562
0.235863
0.231798
0.225103
0.218464
0.217951
0.220995
0.217465
0.208354
0.202475
0.199236
0.195438
0.190243
0.185078
0.181382
0.177938
0.176998
0.178023
0.178158
0.177401
0.173966
0.168087
0.161343
0.153729
0.146245
0.139122
0.133316
0.130661
0.129926
0.125942
0.121872
0.122848
0.122904
0.122443
0.12158
0.117362
0.113816
0.107114
0.0967329
0.0900034
0.0851988
0.0804316
0.077253
0.077416
0.075606
0.0684757
0.0623419
0.0582671
0.0543554
0.0486745
0.0422127
0.0384683
0.0372076
0.0339866
0.0260608
0.0177666
0.0130746
0.0100804
0.00376308
-3.32087
-3226.83
-1037.73