/*--------------------------------*- C++ -*----------------------------------*\
| =========                 |                                                 |
| \\      /  F ield         | OpenFOAM: The Open Source CFD Toolbox           |
|  \\    /   O peration     | Version:  2406                                  |
|   \\  /    A nd           | Website:  www.openfoam.com                      |
|    \\/     M anipulation  |                                                 |
\*---------------------------------------------------------------------------*/
FoamFile
{
    version     2.0;
    format      ascii;
    arch        "LSB;label=32;scalar=64";
    class       surfaceScalarField;
    location    "1.95";
    object      phi;
}
// * * * * * * * * * * * * * * * * * * * * * * * * * * * * * * * * * * * * * //

dimensions      [0 3 -1 0 0 0 0];

oriented        oriented;

internalField   nonuniform List<scalar> 
12225
(
0.511127
1.68211e-06
0.511121
6.28611e-06
0.511113
7.61009e-06
0.511107
5.75762e-06
0.511102
4.99916e-06
0.511097
5.07917e-06
0.511092
4.97159e-06
0.511088
4.75447e-06
0.511083
4.61816e-06
0.511078
4.48787e-06
0.511074
4.75381e-06
0.511068
5.4182e-06
0.511062
5.84323e-06
0.511057
5.71302e-06
0.511051
5.55864e-06
0.511045
5.6212e-06
0.51104
5.51752e-06
0.511034
5.55465e-06
0.511029
5.81378e-06
0.511023
5.67911e-06
0.511017
5.56226e-06
0.511012
5.73167e-06
0.511006
5.3943e-06
0.511001
4.92426e-06
0.510996
4.99078e-06
0.510991
5.0484e-06
0.510986
4.96127e-06
0.510981
5.2356e-06
0.510975
5.64335e-06
0.51097
5.88765e-06
0.510963
6.18438e-06
0.510957
6.05526e-06
0.510952
5.23489e-06
0.510947
4.83954e-06
0.510942
5.10808e-06
0.510937
5.06714e-06
0.510932
5.15355e-06
0.510926
5.7162e-06
0.51092
5.73629e-06
0.510915
5.43976e-06
0.51091
5.46193e-06
0.510904
5.1969e-06
0.5109
4.8234e-06
0.510895
4.89542e-06
0.510889
5.1497e-06
0.510884
5.60045e-06
0.510878
5.95092e-06
0.510872
5.79285e-06
0.510866
5.66505e-06
0.510861
5.74358e-06
0.510855
5.79502e-06
0.510849
5.81613e-06
0.510844
5.61595e-06
0.510838
5.33857e-06
0.510833
5.28516e-06
0.510828
5.35543e-06
0.510822
5.50857e-06
0.510816
5.72052e-06
0.510811
5.78089e-06
0.510805
5.7046e-06
0.510799
5.6649e-06
0.510794
5.55427e-06
0.510788
5.20167e-06
0.510784
4.82997e-06
0.510779
4.77416e-06
0.510774
4.98359e-06
0.510769
5.3006e-06
0.510763
5.59935e-06
0.510757
5.67487e-06
0.510751
5.81153e-06
0.510745
6.15514e-06
0.510739
6.13602e-06
0.510733
5.81639e-06
0.510728
5.73574e-06
0.510722
5.57177e-06
0.510717
5.16502e-06
0.510712
5.03376e-06
0.510707
5.06401e-06
0.510702
5.00347e-06
0.510696
5.2601e-06
0.510691
5.73787e-06
0.510685
5.78772e-06
0.510679
5.5291e-06
0.510674
5.45776e-06
0.510668
5.48937e-06
0.510663
5.44958e-06
0.510658
5.41218e-06
0.510652
5.37511e-06
0.510647
5.31874e-06
0.510642
5.34877e-06
0.510636
5.41958e-06
0.510631
5.27411e-06
0.510626
4.95998e-06
0.510621
4.83621e-06
0.510616
5.03728e-06
0.510611
5.48201e-06
0.510605
5.95039e-06
0.510598
6.16907e-06
0.510592
6.04441e-06
0.510587
5.71613e-06
0.510581
5.31975e-06
0.510576
4.94387e-06
0.510572
4.8184e-06
0.510567
5.08637e-06
0.510561
5.47789e-06
0.510555
5.64448e-06
0.51055
5.5474e-06
0.510544
5.38258e-06
0.510539
5.30398e-06
0.510534
5.34976e-06
0.510528
5.50387e-06
0.510523
5.59045e-06
0.510517
5.50779e-06
0.510512
5.48524e-06
0.510506
5.53333e-06
0.510501
5.44462e-06
0.510495
5.35101e-06
0.51049
5.347e-06
0.510485
5.37294e-06
0.510479
5.45808e-06
0.510474
5.51971e-06
0.510468
5.50698e-06
0.510463
5.41586e-06
0.510457
5.31352e-06
0.510452
5.31664e-06
0.510447
5.15486e-06
0.510442
4.93574e-06
0.510437
5.24379e-06
0.510431
5.69391e-06
0.510425
5.74975e-06
0.51042
5.6949e-06
0.510414
5.53164e-06
0.510409
5.19935e-06
0.510404
5.03889e-06
0.510399
5.05518e-06
0.510394
5.09094e-06
0.510389
5.17741e-06
0.510383
5.38444e-06
0.510378
5.63675e-06
0.510372
5.71795e-06
0.510366
5.70726e-06
0.51036
5.65797e-06
0.510355
5.41251e-06
0.51035
5.25861e-06
0.510344
5.40138e-06
0.510339
5.59692e-06
0.510333
5.81772e-06
0.510327
5.97054e-06
0.510321
5.77715e-06
0.510316
5.35047e-06
0.510311
4.98346e-06
0.510306
4.8156e-06
0.510301
4.95362e-06
0.510296
5.40352e-06
0.51029
5.86228e-06
0.510284
5.94223e-06
0.510278
5.71754e-06
0.510273
5.63729e-06
0.510267
5.74898e-06
0.510261
5.68548e-06
0.510256
5.42057e-06
0.510251
5.12474e-06
0.510246
4.92736e-06
0.510241
5.06478e-06
0.510235
5.49763e-06
0.510229
5.89255e-06
0.510223
5.99681e-06
0.510217
5.80407e-06
0.510212
5.59253e-06
0.510206
5.57362e-06
0.510201
5.67041e-06
0.510195
5.70139e-06
0.510189
5.60741e-06
0.510184
5.4909e-06
0.510178
5.45148e-06
0.510173
5.46764e-06
0.510167
5.4251e-06
0.510162
5.33624e-06
0.510157
5.31744e-06
0.510151
5.34593e-06
0.510146
5.35762e-06
0.510141
5.28054e-06
0.510136
5.25831e-06
0.51013
5.52209e-06
0.510124
5.7584e-06
0.510119
5.72689e-06
0.510113
5.63758e-06
0.510107
5.51348e-06
0.510102
5.34069e-06
0.510097
5.17159e-06
0.510092
5.09476e-06
0.510087
5.23803e-06
0.510081
5.37251e-06
0.510076
5.3431e-06
0.51007
5.35613e-06
0.510065
5.47543e-06
0.510059
5.66612e-06
0.510054
5.77638e-06
0.510048
5.59872e-06
0.510043
5.29393e-06
0.510038
5.10215e-06
0.510033
5.03958e-06
0.510027
5.05792e-06
0.510022
5.1349e-06
0.510017
5.3403e-06
0.510011
5.62925e-06
0.510006
5.72225e-06
0.51
5.59916e-06
0.509994
5.57607e-06
0.509989
5.70758e-06
0.509983
5.74206e-06
0.509977
5.67796e-06
0.509972
5.72284e-06
0.509966
5.75546e-06
0.50996
5.62367e-06
0.509955
5.56804e-06
0.509949
5.53524e-06
0.509944
5.19635e-06
0.509939
4.92921e-06
0.509934
5.16812e-06
0.509928
5.51837e-06
0.509923
5.60439e-06
0.509917
5.51756e-06
0.509912
5.46069e-06
0.509906
5.51397e-06
0.509901
5.56838e-06
0.509895
5.57528e-06
0.50989
5.55442e-06
0.509884
5.54737e-06
0.509878
5.56668e-06
0.509873
5.43761e-06
0.509868
5.27057e-06
0.509862
5.38188e-06
0.509857
5.71068e-06
0.509851
6.00953e-06
0.509845
6.02257e-06
0.509839
5.77196e-06
0.509833
5.60821e-06
0.509828
5.57386e-06
0.509822
5.53276e-06
0.509817
5.47605e-06
0.509811
5.34347e-06
0.509806
5.26671e-06
0.509801
5.37193e-06
0.509795
5.55541e-06
0.509789
5.77145e-06
0.509783
5.90163e-06
0.509778
5.85203e-06
0.509771
6.10365e-06
5.34469e-06
0.511132
-6.14066e-08
0.511138
3.7207e-07
0.511144
1.29348e-06
0.511148
1.75038e-06
0.511151
2.13852e-06
0.511154
2.65268e-06
0.511156
2.95384e-06
0.511158
2.70159e-06
0.51116
2.65736e-06
0.511162
2.50466e-06
0.511164
2.16227e-06
0.511168
2.03835e-06
0.511172
2.02055e-06
0.511175
2.42877e-06
0.511178
2.82964e-06
0.51118
2.69774e-06
0.511183
2.70607e-06
0.511186
3.03708e-06
0.511189
3.07289e-06
0.511191
2.93022e-06
0.511194
2.70096e-06
0.511198
2.16142e-06
0.511201
1.76273e-06
0.511205
1.66057e-06
0.511208
1.70743e-06
0.511211
2.01385e-06
0.511213
2.41057e-06
0.511216
2.45286e-06
0.511219
2.4855e-06
0.511222
2.83222e-06
0.511226
2.92244e-06
0.511229
2.73376e-06
0.511231
2.81305e-06
0.511233
2.85932e-06
0.511236
2.55698e-06
0.511239
2.16222e-06
0.511242
1.88794e-06
0.511246
2.11149e-06
0.511249
2.50081e-06
0.511252
2.39342e-06
0.511255
2.31896e-06
0.511258
2.53616e-06
0.51126
2.58121e-06
0.511262
2.73938e-06
0.511265
2.91354e-06
0.511268
2.5509e-06
0.511272
2.00445e-06
0.511276
1.81074e-06
0.511279
2.18643e-06
0.511282
2.66879e-06
0.511285
2.58708e-06
0.511289
2.49644e-06
0.511291
2.71756e-06
0.511294
2.71761e-06
0.511297
2.68599e-06
0.511299
2.74478e-06
0.511302
2.65862e-06
0.511305
2.633e-06
0.511308
2.62321e-06
0.511311
2.63978e-06
0.511314
2.75698e-06
0.511317
2.64543e-06
0.51132
2.6881e-06
0.511322
3.07656e-06
0.511323
3.036e-06
0.511326
2.59094e-06
0.511329
2.25859e-06
0.511332
2.11217e-06
0.511336
2.21989e-06
0.511339
2.38654e-06
0.511343
2.33127e-06
0.511347
2.18192e-06
0.511351
2.15242e-06
0.511354
2.33011e-06
0.511357
2.63823e-06
0.511359
2.77749e-06
0.511362
2.52445e-06
0.511365
2.15314e-06
0.511367
2.24091e-06
0.51137
2.64654e-06
0.511373
2.76715e-06
0.511376
2.77193e-06
0.511379
2.88906e-06
0.511381
2.80834e-06
0.511384
2.60904e-06
0.511387
2.49784e-06
0.51139
2.37089e-06
0.511393
2.23239e-06
0.511397
2.12535e-06
0.5114
2.13149e-06
0.511403
2.30049e-06
0.511406
2.41174e-06
0.511408
2.44443e-06
0.511411
2.5029e-06
0.511413
2.40601e-06
0.511417
2.18079e-06
0.51142
2.14423e-06
0.511424
2.42541e-06
0.511427
2.73644e-06
0.51143
2.78825e-06
0.511433
2.64129e-06
0.511436
2.44072e-06
0.511438
2.35612e-06
0.511441
2.51164e-06
0.511443
2.69441e-06
0.511446
2.799e-06
0.511449
2.89778e-06
0.511451
2.8289e-06
0.511454
2.60698e-06
0.511457
2.48236e-06
0.51146
2.32683e-06
0.511464
2.02808e-06
0.511467
1.87688e-06
0.511471
2.04137e-06
0.511474
2.37586e-06
0.511477
2.65487e-06
0.511479
2.72639e-06
0.511482
2.61852e-06
0.511485
2.42774e-06
0.511488
2.41261e-06
0.511491
2.63642e-06
0.511494
2.66858e-06
0.511497
2.52382e-06
0.511499
2.54425e-06
0.511502
2.54609e-06
0.511505
2.47724e-06
0.511507
2.42974e-06
0.51151
2.2889e-06
0.511514
2.29764e-06
0.511517
2.63541e-06
0.51152
2.99193e-06
0.511522
3.22866e-06
0.511524
3.28099e-06
0.511526
3.0445e-06
0.511528
2.704e-06
0.511531
2.52084e-06
0.511533
2.59352e-06
0.511536
2.6841e-06
0.511539
2.59239e-06
0.511542
2.51512e-06
0.511545
2.43525e-06
0.511549
2.19024e-06
0.511552
2.0376e-06
0.511556
2.05095e-06
0.511559
2.03085e-06
0.511562
2.08702e-06
0.511566
2.24984e-06
0.51157
2.43689e-06
0.511573
2.68794e-06
0.511575
2.7776e-06
0.511578
2.55433e-06
0.51158
2.18679e-06
0.511583
1.84101e-06
0.511587
1.76107e-06
0.511591
1.94933e-06
0.511595
2.21984e-06
0.511598
2.51896e-06
0.511601
2.66581e-06
0.511604
2.62337e-06
0.511607
2.61486e-06
0.51161
2.59661e-06
0.511612
2.55475e-06
0.511615
2.63921e-06
0.511617
2.83048e-06
0.511619
2.93e-06
0.511623
2.72522e-06
0.511626
2.37672e-06
0.51163
2.30965e-06
0.511633
2.48882e-06
0.511636
2.54985e-06
0.511639
2.44292e-06
0.511643
2.29458e-06
0.511646
2.28887e-06
0.511649
2.66725e-06
0.511651
3.17079e-06
0.511653
3.37905e-06
0.511655
3.34218e-06
0.511657
3.22451e-06
0.511659
3.08566e-06
0.511662
2.86049e-06
0.511665
2.56366e-06
0.511668
2.40276e-06
0.511671
2.36311e-06
0.511674
2.40083e-06
0.511677
2.43604e-06
0.51168
2.29229e-06
0.511684
2.26717e-06
0.511687
2.42178e-06
0.51169
2.39158e-06
0.511693
2.39478e-06
0.511695
2.58169e-06
0.511698
2.74276e-06
0.5117
2.88084e-06
0.511703
2.77817e-06
0.511706
2.4429e-06
0.511709
2.28295e-06
0.511712
2.18796e-06
0.511716
2.1159e-06
0.511719
2.29392e-06
0.511722
2.44263e-06
0.511725
2.47679e-06
0.511727
2.52285e-06
0.51173
2.30841e-06
0.511733
2.02853e-06
0.511736
2.17057e-06
0.511739
2.50822e-06
0.511742
2.58717e-06
0.511746
2.34813e-06
0.511749
2.0991e-06
0.511753
2.07368e-06
0.511757
2.0808e-06
0.51176
2.10354e-06
0.511764
2.29878e-06
0.511767
2.48451e-06
0.51177
2.63005e-06
0.511773
2.77852e-06
0.511775
2.72688e-06
0.511778
2.51317e-06
0.511781
2.38498e-06
0.511783
2.47144e-06
0.511786
2.69394e-06
0.511789
2.74093e-06
0.511792
2.53373e-06
0.511795
2.3728e-06
0.511798
2.37359e-06
0.511801
2.35917e-06
0.511805
2.34816e-06
0.511808
2.48014e-06
0.511811
2.62556e-06
0.511814
2.62841e-06
0.511816
2.56677e-06
0.511819
2.63192e-06
0.511822
2.86325e-06
0.511824
2.98201e-06
0.511828
2.81789e-06
0.511831
2.63956e-06
0.511834
2.64041e-06
0.511837
2.58382e-06
0.51184
2.4316e-06
0.511843
2.41423e-06
0.511846
2.37371e-06
0.51185
2.2154e-06
0.511853
2.18915e-06
0.511856
2.35248e-06
0.511859
2.60181e-06
0.511862
2.74917e-06
0.511865
2.81578e-06
0.511868
2.82911e-06
0.511871
2.69716e-06
2.70366e-06
0.511131
1.38856e-07
0.51113
1.07559e-06
0.51113
1.90725e-06
0.511129
1.9999e-06
0.51113
1.78464e-06
0.511131
1.53548e-06
0.511132
1.6205e-06
0.511133
1.64389e-06
0.511134
1.55669e-06
0.511135
1.95329e-06
0.511135
2.18746e-06
0.511135
2.11669e-06
0.511135
2.17358e-06
0.511135
2.2975e-06
0.511135
2.45375e-06
0.511135
2.62899e-06
0.511135
2.57833e-06
0.511136
2.60563e-06
0.511136
2.91948e-06
0.511136
3.05567e-06
0.511136
2.87268e-06
0.511136
2.23901e-06
0.511136
1.22313e-06
0.511137
7.76163e-07
0.511137
1.30021e-06
0.511137
1.99732e-06
0.511137
2.42837e-06
0.511137
2.56259e-06
0.511137
2.49441e-06
0.511138
2.47289e-06
0.511138
2.36053e-06
0.511139
2.19244e-06
0.511139
2.24201e-06
0.51114
2.06573e-06
0.511141
1.47713e-06
0.511142
1.42382e-06
0.511142
2.09775e-06
0.511141
2.42491e-06
0.511142
2.12373e-06
0.511142
1.89929e-06
0.511143
2.02951e-06
0.511143
2.4332e-06
0.511143
2.80688e-06
0.511143
2.71874e-06
0.511143
2.48681e-06
0.511143
2.25411e-06
0.511143
1.84252e-06
0.511143
1.80903e-06
0.511143
2.1427e-06
0.511144
2.20123e-06
0.511144
2.0893e-06
0.511145
2.06555e-06
0.511145
2.27827e-06
0.511145
2.60896e-06
0.511146
2.58439e-06
0.511146
2.50814e-06
0.511146
2.75395e-06
0.511145
2.98537e-06
0.511145
3.07189e-06
0.511145
2.84551e-06
0.511145
2.36267e-06
0.511145
2.22331e-06
0.511146
2.29344e-06
0.511147
2.12376e-06
0.511148
1.93537e-06
0.511149
1.96183e-06
0.511149
2.02519e-06
0.511149
2.11302e-06
0.511149
2.3424e-06
0.511149
2.53993e-06
0.511148
2.59342e-06
0.511148
2.55209e-06
0.511148
2.27619e-06
0.511148
1.95921e-06
0.511149
1.99146e-06
0.51115
2.03524e-06
0.51115
1.93461e-06
0.51115
2.09404e-06
0.51115
2.32489e-06
0.51115
2.43109e-06
0.511151
2.54454e-06
0.511151
2.54494e-06
0.511151
2.59044e-06
0.511151
2.67879e-06
0.511151
2.5053e-06
0.511151
2.37881e-06
0.511151
2.34439e-06
0.511152
2.05851e-06
0.511152
1.7232e-06
0.511153
1.46782e-06
0.511154
1.40553e-06
0.511154
1.66011e-06
0.511155
1.96186e-06
0.511155
2.23718e-06
0.511155
2.57615e-06
0.511154
2.75067e-06
0.511154
2.60608e-06
0.511154
2.3869e-06
0.511154
2.36466e-06
0.511155
2.37138e-06
0.511155
2.21272e-06
0.511155
2.15067e-06
0.511156
2.22366e-06
0.511156
2.24441e-06
0.511156
2.3525e-06
0.511157
2.42211e-06
0.511157
2.19269e-06
0.511158
2.03729e-06
0.511158
2.17712e-06
0.511159
2.31457e-06
0.511159
2.20391e-06
0.511159
1.90615e-06
0.511159
1.8166e-06
0.511159
2.13732e-06
0.511159
2.53083e-06
0.511159
2.7223e-06
0.511159
2.59482e-06
0.511159
2.272e-06
0.511159
2.15328e-06
0.51116
2.21795e-06
0.51116
2.14194e-06
0.511161
2.0667e-06
0.511161
2.16872e-06
0.511161
2.22225e-06
0.511162
2.23248e-06
0.511162
2.34663e-06
0.511162
2.41866e-06
0.511162
2.45705e-06
0.511161
2.67166e-06
0.511161
2.97006e-06
0.511161
3.03522e-06
0.511161
2.90106e-06
0.511162
2.78638e-06
0.511162
2.64712e-06
0.511162
2.58614e-06
0.511162
2.70895e-06
0.511162
2.70229e-06
0.511162
2.48716e-06
0.511162
2.29617e-06
0.511163
2.08159e-06
0.511163
1.80641e-06
0.511164
1.63763e-06
0.511164
1.64519e-06
0.511165
1.83884e-06
0.511165
2.07877e-06
0.511164
2.164e-06
0.511165
2.10343e-06
0.511165
1.92589e-06
0.511166
1.83097e-06
0.511167
1.86918e-06
0.511168
1.68115e-06
0.511168
1.55653e-06
0.511169
1.74447e-06
0.511169
1.73674e-06
0.511169
1.67672e-06
0.511169
1.88672e-06
0.511169
2.15287e-06
0.51117
2.38962e-06
0.51117
2.45812e-06
0.51117
2.3102e-06
0.511171
2.15673e-06
0.511171
2.10952e-06
0.511172
2.24984e-06
0.511172
2.50333e-06
0.511172
2.61555e-06
0.511172
2.54732e-06
0.511172
2.41262e-06
0.511172
2.29297e-06
0.511173
2.2774e-06
0.511173
2.21823e-06
0.511173
2.05878e-06
0.511173
2.12625e-06
0.511173
2.35604e-06
0.511173
2.57743e-06
0.511174
2.90277e-06
0.511174
3.09804e-06
0.511174
3.07886e-06
0.511174
3.00298e-06
0.511175
2.77537e-06
0.511175
2.511e-06
0.511175
2.41823e-06
0.511175
2.49895e-06
0.511175
2.5973e-06
0.511175
2.49797e-06
0.511175
2.32757e-06
0.511175
2.25655e-06
0.511175
2.22799e-06
0.511175
2.19943e-06
0.511176
2.07625e-06
0.511176
1.95119e-06
0.511177
2.05256e-06
0.511177
2.22568e-06
0.511178
2.28454e-06
0.511178
2.36682e-06
0.511178
2.51496e-06
0.511178
2.54796e-06
0.511178
2.40407e-06
0.511177
2.16308e-06
0.511178
1.98622e-06
0.511178
1.89479e-06
0.511179
1.71555e-06
0.51118
1.57083e-06
0.511181
1.59958e-06
0.511181
1.73622e-06
0.511181
2.03922e-06
0.511181
2.27692e-06
0.511182
2.24139e-06
0.511182
2.19786e-06
0.511182
2.14291e-06
0.511182
2.08281e-06
0.511182
2.18529e-06
0.511182
2.17858e-06
0.511182
2.00148e-06
0.511183
1.94279e-06
0.511183
1.97993e-06
0.511184
1.99516e-06
0.511185
1.96168e-06
0.511185
1.95941e-06
0.511185
2.15134e-06
0.511186
2.40163e-06
0.511186
2.50336e-06
0.511186
2.49419e-06
0.511186
2.35682e-06
0.511186
2.15751e-06
0.511187
2.08141e-06
0.511187
2.05176e-06
0.511187
2.03382e-06
0.511188
2.10209e-06
0.511188
2.14322e-06
0.511189
2.20233e-06
0.511189
2.42048e-06
0.511189
2.71915e-06
0.511189
2.93201e-06
0.511189
2.89247e-06
0.511189
2.74021e-06
0.511189
2.72942e-06
0.511189
2.68634e-06
0.511189
2.43309e-06
0.511189
2.08025e-06
0.51119
1.78515e-06
0.51119
1.66006e-06
0.511191
1.64687e-06
0.511191
1.77422e-06
0.511192
2.16494e-06
0.511192
2.55336e-06
0.511192
2.70192e-06
0.511192
2.61764e-06
0.511192
2.48934e-06
0.511193
2.4022e-06
2.28473e-06
0.511131
6.14582e-08
0.511132
6.65974e-07
0.511132
1.28542e-06
0.511133
1.3829e-06
0.511134
1.32896e-06
0.511134
1.4262e-06
0.511134
1.53496e-06
0.511134
1.61263e-06
0.511134
1.60963e-06
0.511134
1.75463e-06
0.511134
1.94935e-06
0.511134
1.90994e-06
0.511135
1.92588e-06
0.511135
2.19055e-06
0.511135
2.51904e-06
0.511135
2.61699e-06
0.511135
2.5024e-06
0.511135
2.38852e-06
0.511135
2.4206e-06
0.511136
2.46336e-06
0.511137
2.03314e-06
0.511138
1.47677e-06
0.511137
1.43865e-06
0.511137
1.3477e-06
0.511137
1.33905e-06
0.511137
1.67331e-06
0.511138
1.75429e-06
0.511138
1.91357e-06
0.511139
2.35315e-06
0.511139
2.45907e-06
0.511139
2.18453e-06
0.511139
1.86212e-06
0.51114
1.50376e-06
0.511141
1.1298e-06
0.511141
1.30178e-06
0.511141
1.78319e-06
0.511141
1.84846e-06
0.511142
1.72084e-06
0.511142
1.74331e-06
0.511142
1.94152e-06
0.511142
2.14157e-06
0.511142
2.31572e-06
0.511142
2.52219e-06
0.511143
2.31951e-06
0.511143
1.83782e-06
0.511144
1.57207e-06
0.511144
1.58762e-06
0.511144
1.93122e-06
0.511144
2.185e-06
0.511144
2.03773e-06
0.511144
1.88586e-06
0.511144
2.02721e-06
0.511144
2.34009e-06
0.511144
2.50636e-06
0.511145
2.47087e-06
0.511145
2.37575e-06
0.511145
2.36134e-06
0.511146
2.55927e-06
0.511146
2.66189e-06
0.511146
2.38509e-06
0.511147
2.20278e-06
0.511146
2.36575e-06
0.511146
2.3527e-06
0.511146
2.02489e-06
0.511147
1.85553e-06
0.511147
1.79536e-06
0.511147
1.64046e-06
0.511147
1.75834e-06
0.511148
2.13148e-06
0.511148
2.33802e-06
0.511148
2.40851e-06
0.511148
2.31066e-06
0.511149
2.06035e-06
0.511149
1.88511e-06
0.511149
1.77196e-06
0.511149
1.67428e-06
0.511149
1.64507e-06
0.51115
1.76605e-06
0.51115
1.93531e-06
0.511151
1.96155e-06
0.511151
2.15856e-06
0.511151
2.51068e-06
0.511151
2.41164e-06
0.511152
2.11649e-06
0.511152
2.06711e-06
0.511153
2.01349e-06
0.511153
1.95219e-06
0.511153
1.94542e-06
0.511153
1.78093e-06
0.511153
1.53818e-06
0.511153
1.47181e-06
0.511153
1.64553e-06
0.511153
1.86245e-06
0.511153
1.91969e-06
0.511154
2.03966e-06
0.511154
2.36104e-06
0.511154
2.51806e-06
0.511154
2.38723e-06
0.511155
2.15338e-06
0.511155
1.93751e-06
0.511155
1.95765e-06
0.511155
2.16473e-06
0.511155
2.20458e-06
0.511155
2.08324e-06
0.511156
1.99935e-06
0.511156
2.0097e-06
0.511156
2.05851e-06
0.511156
1.97342e-06
0.511157
1.72427e-06
0.511158
1.52512e-06
0.511158
1.5394e-06
0.511159
1.71071e-06
0.511158
1.92705e-06
0.511158
2.1813e-06
0.511159
2.3708e-06
0.511159
2.25415e-06
0.51116
1.96618e-06
0.51116
1.95261e-06
0.51116
2.08796e-06
0.51116
2.04475e-06
0.51116
2.0057e-06
0.51116
1.90635e-06
0.511161
1.6073e-06
0.511162
1.43065e-06
0.511163
1.45906e-06
0.511163
1.6444e-06
0.511164
2.06052e-06
0.511164
2.46587e-06
0.511164
2.77586e-06
0.511163
3.03346e-06
0.511163
3.03691e-06
0.511163
2.89053e-06
0.511164
2.74115e-06
0.511164
2.50774e-06
0.511164
2.36569e-06
0.511164
2.35494e-06
0.511165
2.34567e-06
0.511165
2.40551e-06
0.511165
2.34886e-06
0.511165
2.03963e-06
0.511165
1.66669e-06
0.511165
1.27743e-06
0.511166
1.02027e-06
0.511166
1.16821e-06
0.511167
1.63355e-06
0.511167
2.03348e-06
0.511167
2.0405e-06
0.511167
1.70953e-06
0.511168
1.35857e-06
0.511168
1.18442e-06
0.511169
1.25157e-06
0.511169
1.48958e-06
0.511169
1.63448e-06
0.511169
1.5647e-06
0.511169
1.52347e-06
0.51117
1.66969e-06
0.51117
1.92627e-06
0.51117
2.18655e-06
0.51117
2.32098e-06
0.51117
2.25286e-06
0.51117
2.12101e-06
0.51117
2.20724e-06
0.51117
2.41728e-06
0.51117
2.36318e-06
0.511171
2.1471e-06
0.511171
1.98703e-06
0.511172
1.84678e-06
0.511172
1.87187e-06
0.511172
2.05705e-06
0.511172
2.19184e-06
0.511172
2.28893e-06
0.511172
2.40647e-06
0.511172
2.55322e-06
0.511172
2.69702e-06
0.511172
2.77588e-06
0.511172
2.87084e-06
0.511172
2.91081e-06
0.511172
2.67645e-06
0.511173
2.3025e-06
0.511173
2.04446e-06
0.511174
2.03404e-06
0.511174
2.35364e-06
0.511174
2.55549e-06
0.511174
2.24217e-06
0.511175
1.88323e-06
0.511175
1.77052e-06
0.511176
1.82496e-06
0.511176
2.07712e-06
0.511176
2.19786e-06
0.511175
2.12657e-06
0.511175
2.12157e-06
0.511175
2.03296e-06
0.511176
1.94958e-06
0.511176
1.99038e-06
0.511177
1.968e-06
0.511177
1.98262e-06
0.511178
1.98826e-06
0.511178
1.86863e-06
0.511178
1.84312e-06
0.511178
1.82526e-06
0.511178
1.6157e-06
0.511178
1.45166e-06
0.511179
1.49811e-06
0.511179
1.56282e-06
0.511179
1.55231e-06
0.51118
1.54871e-06
0.511181
1.60445e-06
0.511181
1.62922e-06
0.511182
1.59467e-06
0.511182
1.64188e-06
0.511183
1.71655e-06
0.511183
1.64261e-06
0.511184
1.60448e-06
0.511184
1.79998e-06
0.511184
2.01485e-06
0.511184
1.92874e-06
0.511184
1.67024e-06
0.511184
1.68164e-06
0.511184
1.95942e-06
0.511185
2.15504e-06
0.511185
2.10296e-06
0.511186
1.85165e-06
0.511186
1.67417e-06
0.511187
1.72566e-06
0.511187
1.9327e-06
0.511187
2.17222e-06
0.511187
2.20552e-06
0.511187
2.0398e-06
0.511187
1.93476e-06
0.511187
2.02356e-06
0.511187
2.33166e-06
0.511187
2.60409e-06
0.511188
2.60641e-06
0.511188
2.54306e-06
0.511188
2.50577e-06
0.511189
2.32397e-06
0.511189
2.09869e-06
0.51119
1.99245e-06
0.51119
1.89429e-06
0.51119
1.79766e-06
0.51119
1.79375e-06
0.51119
1.84888e-06
0.511189
1.96008e-06
0.51119
2.02378e-06
0.51119
1.96391e-06
0.511191
1.85392e-06
0.511192
1.82714e-06
0.511192
2.02079e-06
0.511192
2.16236e-06
2.03019e-06
0.511131
1.90395e-07
0.511132
3.581e-07
0.511132
5.89567e-07
0.511133
1.0331e-06
0.511133
1.12889e-06
0.511133
1.11475e-06
0.511133
1.34413e-06
0.511133
1.6619e-06
0.511133
1.67235e-06
0.511133
1.44913e-06
0.511134
1.4205e-06
0.511134
1.55469e-06
0.511134
1.78403e-06
0.511135
1.91701e-06
0.511135
1.77532e-06
0.511136
2.06359e-06
0.511136
2.79281e-06
0.511135
2.95239e-06
0.511135
2.42402e-06
0.511136
1.92002e-06
0.511136
1.70992e-06
0.511136
1.31968e-06
0.511137
9.38137e-07
0.511137
1.16809e-06
0.511137
1.2463e-06
0.511137
1.23143e-06
0.511137
1.81537e-06
0.511137
1.96747e-06
0.511138
1.53709e-06
0.511139
1.50595e-06
0.511139
1.80682e-06
0.511139
1.82456e-06
0.51114
1.43675e-06
0.511139
1.22777e-06
0.511139
1.2876e-06
0.51114
1.35687e-06
0.51114
1.54831e-06
0.51114
1.6157e-06
0.51114
1.63374e-06
0.51114
1.93126e-06
0.51114
2.19204e-06
0.51114
2.317e-06
0.511141
2.2761e-06
0.511141
1.77513e-06
0.511142
1.23607e-06
0.511142
1.22526e-06
0.511142
1.56701e-06
0.511142
1.91452e-06
0.511142
1.98652e-06
0.511143
1.80496e-06
0.511143
1.70212e-06
0.511143
1.6344e-06
0.511144
1.68852e-06
0.511144
2.03893e-06
0.511145
2.22498e-06
0.511145
2.26378e-06
0.511145
2.41059e-06
0.511145
2.39692e-06
0.511145
2.38587e-06
0.511145
2.3843e-06
0.511145
2.17332e-06
0.511145
1.97247e-06
0.511146
1.77169e-06
0.511146
1.6953e-06
0.511146
1.89851e-06
0.511146
2.02896e-06
0.511146
1.9804e-06
0.511146
1.90723e-06
0.511146
1.97113e-06
0.511146
2.05957e-06
0.511147
1.80278e-06
0.511147
1.47902e-06
0.511148
1.4846e-06
0.511149
1.42828e-06
0.511149
1.16957e-06
0.51115
1.27239e-06
0.511149
1.72699e-06
0.511149
1.87491e-06
0.51115
1.70116e-06
0.51115
1.66314e-06
0.51115
1.78305e-06
0.511151
1.873e-06
0.511151
1.92649e-06
0.511152
1.9263e-06
0.511152
1.8619e-06
0.511152
1.75139e-06
0.511152
1.50228e-06
0.511153
1.25518e-06
0.511154
1.2679e-06
0.511154
1.3619e-06
0.511154
1.46062e-06
0.511154
1.73392e-06
0.511154
1.98051e-06
0.511154
1.98507e-06
0.511154
1.9158e-06
0.511154
1.98284e-06
0.511154
2.17388e-06
0.511155
2.27381e-06
0.511155
2.13121e-06
0.511155
1.79575e-06
0.511155
1.52348e-06
0.511156
1.54451e-06
0.511156
1.72792e-06
0.511156
1.91646e-06
0.511156
2.01206e-06
0.511157
1.8716e-06
0.511157
1.71659e-06
0.511157
1.74201e-06
0.511157
1.67806e-06
0.511157
1.53574e-06
0.511157
1.56849e-06
0.511157
1.6822e-06
0.511157
1.85661e-06
0.511157
2.0562e-06
0.511158
2.00061e-06
0.511158
1.8141e-06
0.511158
1.76221e-06
0.511159
1.74006e-06
0.511159
1.68225e-06
0.511159
1.63163e-06
0.51116
1.55983e-06
0.51116
1.55809e-06
0.51116
1.65985e-06
0.51116
1.68285e-06
0.51116
1.57621e-06
0.51116
1.55979e-06
0.51116
1.79847e-06
0.51116
2.23337e-06
0.51116
2.62335e-06
0.511161
2.84208e-06
0.511161
2.91228e-06
0.511161
2.69737e-06
0.511161
2.35817e-06
0.511162
2.2709e-06
0.511162
2.29772e-06
0.511162
2.29946e-06
0.511162
2.36283e-06
0.511162
2.27697e-06
0.511162
1.95245e-06
0.511163
1.62542e-06
0.511163
1.354e-06
0.511163
1.11668e-06
0.511163
9.93303e-07
0.511163
9.66573e-07
0.511164
1.00363e-06
0.511165
1.06562e-06
0.511166
1.12259e-06
0.511166
1.19394e-06
0.511167
1.18118e-06
0.511167
1.11775e-06
0.511167
1.16249e-06
0.511167
1.1603e-06
0.511168
1.07959e-06
0.511168
1.15016e-06
0.511168
1.34359e-06
0.511168
1.47464e-06
0.511169
1.60119e-06
0.511169
1.80941e-06
0.51117
1.86951e-06
0.51117
1.78887e-06
0.51117
1.88611e-06
0.51117
2.04085e-06
0.511171
2.03756e-06
0.511171
1.96013e-06
0.511171
1.87861e-06
0.511172
1.88132e-06
0.511171
2.0018e-06
0.511171
2.05995e-06
0.511171
1.95159e-06
0.511172
1.81694e-06
0.511172
1.85046e-06
0.511172
2.11656e-06
0.511173
2.49805e-06
0.511172
2.79122e-06
0.511172
2.87041e-06
0.511172
2.69678e-06
0.511173
2.40867e-06
0.511173
2.22614e-06
0.511174
2.1528e-06
0.511173
2.17632e-06
0.511173
2.26084e-06
0.511173
2.21749e-06
0.511174
2.04098e-06
0.511174
1.82037e-06
0.511175
1.65616e-06
0.511175
1.63085e-06
0.511175
1.57852e-06
0.511175
1.49969e-06
0.511176
1.59495e-06
0.511176
1.79159e-06
0.511177
1.98573e-06
0.511177
2.09402e-06
0.511176
2.01675e-06
0.511177
1.83707e-06
0.511177
1.6593e-06
0.511177
1.53016e-06
0.511178
1.44667e-06
0.511178
1.31863e-06
0.511179
1.17348e-06
0.51118
1.16063e-06
0.51118
1.19558e-06
0.51118
1.18575e-06
0.511181
1.35764e-06
0.511181
1.62801e-06
0.51118
1.7051e-06
0.51118
1.61136e-06
0.511181
1.36224e-06
0.511181
1.08749e-06
0.511182
1.01162e-06
0.511182
1.03567e-06
0.511183
1.10322e-06
0.511183
1.22022e-06
0.511184
1.3486e-06
0.511184
1.56143e-06
0.511184
1.74764e-06
0.511184
1.74075e-06
0.511184
1.70412e-06
0.511184
1.84625e-06
0.511184
2.0161e-06
0.511184
1.8784e-06
0.511185
1.46162e-06
0.511186
1.20505e-06
0.511186
1.35249e-06
0.511186
1.69451e-06
0.511186
1.97908e-06
0.511186
2.1038e-06
0.511186
2.06244e-06
0.511186
1.98911e-06
0.511186
2.00615e-06
0.511186
2.13927e-06
0.511186
2.28159e-06
0.511186
2.29559e-06
0.511187
2.28606e-06
0.511187
2.27476e-06
0.511187
2.12232e-06
0.511188
1.90807e-06
0.511188
1.75496e-06
0.511188
1.73273e-06
0.511188
1.78971e-06
0.511189
1.71401e-06
0.511189
1.57867e-06
0.511189
1.60546e-06
0.511189
1.72386e-06
0.511189
1.7783e-06
0.51119
1.70799e-06
0.51119
1.61164e-06
0.51119
1.73207e-06
0.51119
1.8426e-06
0.511191
1.82531e-06
1.69937e-06
0.511132
9.28941e-08
0.511132
3.28762e-07
0.511132
5.96735e-07
0.511132
9.73306e-07
0.511132
1.17712e-06
0.511132
1.232e-06
0.511132
1.29653e-06
0.511132
1.44395e-06
0.511132
1.40226e-06
0.511133
1.07889e-06
0.511133
1.03921e-06
0.511133
1.31412e-06
0.511134
1.4533e-06
0.511134
1.37594e-06
0.511135
1.37894e-06
0.511135
1.78113e-06
0.511135
2.44131e-06
0.511136
2.55967e-06
0.511136
2.17839e-06
0.511136
1.80374e-06
0.511137
1.25284e-06
0.511137
1.01991e-06
0.511137
1.18012e-06
0.511137
1.09084e-06
0.511137
1.19513e-06
0.511136
1.42315e-06
0.511137
1.34244e-06
0.511138
1.35576e-06
0.511138
1.59863e-06
0.511137
1.69244e-06
0.511138
1.35422e-06
0.511139
9.79217e-07
0.511139
9.93903e-07
0.511139
1.2423e-06
0.511139
1.43896e-06
0.511139
1.50204e-06
0.511139
1.33876e-06
0.511139
1.12518e-06
0.51114
1.17776e-06
0.51114
1.45631e-06
0.511141
1.75176e-06
0.511141
1.90299e-06
0.511142
1.83545e-06
0.511142
1.51475e-06
0.511142
1.15292e-06
0.511142
1.31447e-06
0.511142
1.80879e-06
0.511142
1.74422e-06
0.511143
1.14007e-06
0.511144
7.96055e-07
0.511144
1.16075e-06
0.511144
1.75673e-06
0.511144
1.79739e-06
0.511145
1.55186e-06
0.511145
1.78954e-06
0.511145
2.29712e-06
0.511145
2.48543e-06
0.511145
2.26264e-06
0.511145
1.96682e-06
0.511146
1.88242e-06
0.511146
1.81962e-06
0.511147
1.7315e-06
0.511147
1.71022e-06
0.511147
1.67549e-06
0.511147
1.63526e-06
0.511147
1.57955e-06
0.511148
1.59586e-06
0.511148
1.8528e-06
0.511148
2.05062e-06
0.511148
1.74243e-06
0.511149
1.23868e-06
0.511149
1.1608e-06
0.511149
1.34118e-06
0.511149
1.3094e-06
0.511149
1.29874e-06
0.511149
1.41044e-06
0.511149
1.38745e-06
0.51115
1.37588e-06
0.51115
1.38568e-06
0.51115
1.31004e-06
0.511151
1.47312e-06
0.511151
1.79196e-06
0.511151
1.80179e-06
0.511151
1.67732e-06
0.511151
1.60149e-06
0.511152
1.40894e-06
0.511152
1.19532e-06
0.511152
1.02354e-06
0.511153
8.47859e-07
0.511153
9.18687e-07
0.511153
1.28926e-06
0.511153
1.58598e-06
0.511154
1.66098e-06
0.511154
1.69005e-06
0.511154
1.73182e-06
0.511154
1.7946e-06
0.511155
1.83916e-06
0.511155
1.69461e-06
0.511156
1.51422e-06
0.511156
1.59479e-06
0.511156
1.72339e-06
0.511156
1.70129e-06
0.511156
1.73661e-06
0.511156
1.78851e-06
0.511156
1.67353e-06
0.511157
1.54647e-06
0.511157
1.46308e-06
0.511157
1.39062e-06
0.511157
1.45313e-06
0.511157
1.49116e-06
0.511158
1.46301e-06
0.511158
1.66339e-06
0.511158
1.91506e-06
0.511158
1.82414e-06
0.511158
1.46111e-06
0.511159
1.19538e-06
0.511159
1.26246e-06
0.51116
1.47377e-06
0.51116
1.52348e-06
0.51116
1.41393e-06
0.51116
1.25403e-06
0.511161
1.11068e-06
0.511161
1.05207e-06
0.511162
1.10093e-06
0.511162
1.20179e-06
0.511163
1.44412e-06
0.511162
1.89781e-06
0.511162
2.30166e-06
0.511162
2.46846e-06
0.511163
2.53986e-06
0.511163
2.58334e-06
0.511163
2.54076e-06
0.511163
2.45113e-06
0.511163
2.32379e-06
0.511163
2.18875e-06
0.511163
2.18554e-06
0.511164
2.19373e-06
0.511164
2.01627e-06
0.511164
1.80249e-06
0.511164
1.54892e-06
0.511164
1.11218e-06
0.511165
7.28287e-07
0.511165
6.74579e-07
0.511165
7.53337e-07
0.511165
7.50128e-07
0.511166
7.18996e-07
0.511166
7.51701e-07
0.511167
7.81307e-07
0.511167
8.11631e-07
0.511167