/*--------------------------------*- C++ -*----------------------------------*\
| =========                 |                                                 |
| \\      /  F ield         | OpenFOAM: The Open Source CFD Toolbox           |
|  \\    /   O peration     | Version:  2406                                  |
|   \\  /    A nd           | Website:  www.openfoam.com                      |
|    \\/     M anipulation  |                                                 |
\*---------------------------------------------------------------------------*/
FoamFile
{
    version     2.0;
    format      ascii;
    arch        "LSB;label=32;scalar=64";
    class       volVectorField;
    location    "1.95";
    object      U;
}
// * * * * * * * * * * * * * * * * * * * * * * * * * * * * * * * * * * * * * //

dimensions      [0 1 -1 0 0 0 0];

internalField   nonuniform List<vector> 
6250
(
(50.5468 9.33858e-05 0)
(85.46 0.00051681 0)
(73.2891 0.000820944 0)
(60.6422 0.000860573 0)
(59.8971 0.000820094 0)
(63.3564 0.000778761 0)
(64.8662 0.000719592 0)
(64.4149 0.000667925 0)
(63.7978 0.000651509 0)
(63.6952 0.000655826 0)
(63.8379 0.000694911 0)
(63.9222 0.000780985 0)
(63.9116 0.000864655 0)
(63.882 0.000884627 0)
(63.8732 0.000858707 0)
(63.8779 0.000838584 0)
(63.8816 0.000825867 0)
(63.8811 0.000830068 0)
(63.8791 0.000859063 0)
(63.8778 0.000879964 0)
(63.8773 0.000896872 0)
(63.8769 0.000920615 0)
(63.8761 0.00090875 0)
(63.8755 0.000866043 0)
(63.8749 0.000840612 0)
(63.8742 0.000832169 0)
(63.8736 0.000819099 0)
(63.873 0.000818431 0)
(63.8723 0.000854601 0)
(63.8716 0.000912642 0)
(63.8708 0.000968247 0)
(63.87 0.000972383 0)
(63.8693 0.000887382 0)
(63.8687 0.000794403 0)
(63.8681 0.000774192 0)
(63.8674 0.000791179 0)
(63.8669 0.000833938 0)
(63.8662 0.000910376 0)
(63.8653 0.000953531 0)
(63.8647 0.00094727 0)
(63.8641 0.000936289 0)
(63.8633 0.000911955 0)
(63.8627 0.000872581 0)
(63.8622 0.000855755 0)
(63.8615 0.000865256 0)
(63.8608 0.000897604 0)
(63.8601 0.000939474 0)
(63.8594 0.000952893 0)
(63.8587 0.000944401 0)
(63.8579 0.000939137 0)
(63.8572 0.000948563 0)
(63.8565 0.000970568 0)
(63.8557 0.000966525 0)
(63.8551 0.000927271 0)
(63.8545 0.000895372 0)
(63.8538 0.00089376 0)
(63.8531 0.000921678 0)
(63.8524 0.000967189 0)
(63.8517 0.00100063 0)
(63.851 0.00100595 0)
(63.8503 0.000988546 0)
(63.8495 0.000947943 0)
(63.8489 0.000881522 0)
(63.8483 0.000809109 0)
(63.8476 0.000766111 0)
(63.847 0.000775661 0)
(63.8464 0.000839053 0)
(63.8457 0.000922108 0)
(63.845 0.000981362 0)
(63.8443 0.00102244 0)
(63.8436 0.00106018 0)
(63.8428 0.00106696 0)
(63.842 0.00103946 0)
(63.8413 0.0010118 0)
(63.8406 0.00097773 0)
(63.8399 0.000924826 0)
(63.8393 0.000889857 0)
(63.8387 0.000889185 0)
(63.838 0.000903165 0)
(63.8374 0.000932566 0)
(63.8367 0.000968858 0)
(63.836 0.000972981 0)
(63.8353 0.000936306 0)
(63.8346 0.000895309 0)
(63.8339 0.000879211 0)
(63.8332 0.000892576 0)
(63.8325 0.000929974 0)
(63.8319 0.000967297 0)
(63.8312 0.000977162 0)
(63.8305 0.000967466 0)
(63.8299 0.000955331 0)
(63.8292 0.000932144 0)
(63.8285 0.000899793 0)
(63.828 0.00088087 0)
(63.8273 0.000886555 0)
(63.8267 0.000920491 0)
(63.826 0.000978129 0)
(63.8252 0.00102628 0)
(63.8244 0.00103091 0)
(63.8237 0.000998146 0)
(63.823 0.000952037 0)
(63.8224 0.000904161 0)
(63.8218 0.000871593 0)
(63.8212 0.000870954 0)
(63.8205 0.000893121 0)
(63.8198 0.000920776 0)
(63.8191 0.000943528 0)
(63.8184 0.000954663 0)
(63.8177 0.000956987 0)
(63.8171 0.000957689 0)
(63.8164 0.000961176 0)
(63.8157 0.000967417 0)
(63.815 0.00097384 0)
(63.8143 0.000987345 0)
(63.8136 0.00100445 0)
(63.8129 0.00100727 0)
(63.8123 0.00100127 0)
(63.8116 0.000997246 0)
(63.8109 0.000992724 0)
(63.8103 0.000990276 0)
(63.8096 0.000983146 0)
(63.8089 0.000965223 0)
(63.8082 0.000948179 0)
(63.8075 0.000942828 0)
(63.8069 0.000951316 0)
(63.8062 0.000955033 0)
(63.8056 0.000949009 0)
(63.805 0.000968205 0)
(63.8042 0.0010034 0)
(63.8035 0.0010095 0)
(63.8028 0.000986257 0)
(63.8021 0.000940096 0)
(63.8014 0.00087706 0)
(63.8008 0.000832314 0)
(63.8002 0.000827493 0)
(63.7995 0.000857658 0)
(63.7989 0.000904692 0)
(63.7982 0.000944364 0)
(63.7976 0.000964592 0)
(63.7968 0.00096516 0)
(63.7961 0.000961623 0)
(63.7954 0.00096928 0)
(63.7947 0.000980808 0)
(63.7941 0.000995374 0)
(63.7934 0.00101659 0)
(63.7927 0.00103339 0)
(63.792 0.00104389 0)
(63.7912 0.00104673 0)
(63.7905 0.00102459 0)
(63.7898 0.000976239 0)
(63.7891 0.000923523 0)
(63.7886 0.000883467 0)
(63.788 0.000874425 0)
(63.7873 0.000914342 0)
(63.7866 0.000983519 0)
(63.7858 0.00103333 0)
(63.7851 0.00104032 0)
(63.7844 0.00102854 0)
(63.7837 0.00101821 0)
(63.783 0.000995 0)
(63.7823 0.000953075 0)
(63.7816 0.000904661 0)
(63.781 0.00086836 0)
(63.7804 0.000869993 0)
(63.7797 0.000913099 0)
(63.779 0.000975329 0)
(63.7783 0.00102653 0)
(63.7775 0.00104129 0)
(63.7768 0.00102316 0)
(63.7761 0.000999148 0)
(63.7754 0.000989341 0)
(63.7747 0.000990784 0)
(63.774 0.000991353 0)
(63.7733 0.000986019 0)
(63.7726 0.000974366 0)
(63.7719 0.000962806 0)
(63.7713 0.000954259 0)
(63.7706 0.000947689 0)
(63.7699 0.000945523 0)
(63.7693 0.000946268 0)
(63.7686 0.000949478 0)
(63.7679 0.00094973 0)
(63.7673 0.000952208 0)
(63.7666 0.000976425 0)
(63.7659 0.0010074 0)
(63.7652 0.00102591 0)
(63.7645 0.00103663 0)
(63.7638 0.00102756 0)
(63.7631 0.000990852 0)
(63.7624 0.00093901 0)
(63.7618 0.000894244 0)
(63.7611 0.000884257 0)
(63.7605 0.000903989 0)
(63.7598 0.000927551 0)
(63.7591 0.000950736 0)
(63.7585 0.000977196 0)
(63.7578 0.00100672 0)
(63.757 0.00103043 0)
(63.7563 0.00102721 0)
(63.7556 0.000994493 0)
(63.755 0.000953899 0)
(63.7544 0.000921596 0)
(63.7537 0.000910032 0)
(63.7531 0.000931787 0)
(63.7525 0.000981163 0)
(63.7518 0.00103166 0)
(63.751 0.00105478 0)
(63.7504 0.00105112 0)
(63.7497 0.00104978 0)
(63.749 0.00106018 0)
(63.7482 0.00106142 0)
(63.7475 0.00104694 0)
(63.7468 0.00103509 0)
(63.7461 0.00102936 0)
(63.7454 0.00101944 0)
(63.7447 0.00101572 0)
(63.744 0.00101538 0)
(63.7433 0.000990975 0)
(63.7427 0.000958802 0)
(63.7421 0.000956639 0)
(63.7414 0.000975517 0)
(63.7407 0.000987012 0)
(63.74 0.000985807 0)
(63.7393 0.000988966 0)
(63.7386 0.00100504 0)
(63.7379 0.00101848 0)
(63.7372 0.00102033 0)
(63.7365 0.0010135 0)
(63.7358 0.0010043 0)
(63.7351 0.000999257 0)
(63.7344 0.000987337 0)
(63.7338 0.000968182 0)
(63.7332 0.000966617 0)
(63.7324 0.000991017 0)
(63.7317 0.0010285 0)
(63.731 0.0010571 0)
(63.7302 0.00105801 0)
(63.7295 0.00103974 0)
(63.7288 0.00101975 0)
(63.7281 0.0010029 0)
(63.7274 0.000990962 0)
(63.7267 0.000983663 0)
(63.7261 0.000988411 0)
(63.7254 0.00101161 0)
(63.7247 0.00104067 0)
(63.724 0.00106544 0)
(63.7233 0.00107941 0)
(63.7225 0.00106672 0)
(63.7219 0.00106722 0)
(63.7208 0.00100992 0)
(50.5469 8.00781e-05 0)
(85.4611 0.000400701 0)
(73.2922 0.000598058 0)
(60.6469 0.000571242 0)
(59.903 0.00052383 0)
(63.3631 0.000556695 0)
(64.8736 0.000578501 0)
(64.4232 0.000534112 0)
(63.8071 0.000493551 0)
(63.7053 0.000459846 0)
(63.8487 0.000447737 0)
(63.934 0.000487897 0)
(63.9246 0.000526497 0)
(63.8963 0.00054376 0)
(63.8884 0.00054624 0)
(63.8942 0.000536378 0)
(63.8991 0.000535071 0)
(63.8995 0.000557259 0)
(63.8985 0.000562875 0)
(63.8984 0.000524823 0)
(63.8989 0.000486872 0)
(63.8995 0.000462365 0)
(63.9 0.000419181 0)
(63.9004 0.000386613 0)
(63.9008 0.000398544 0)
(63.9012 0.000422513 0)
(63.9015 0.000436556 0)
(63.9018 0.00044773 0)
(63.9023 0.000474829 0)
(63.9027 0.000522993 0)
(63.9029 0.000565687 0)
(63.9035 0.000561229 0)
(63.9039 0.000510608 0)
(63.904 0.000472217 0)
(63.9043 0.000464559 0)
(63.9047 0.000439859 0)
(63.905 0.000417096 0)
(63.9055 0.000447899 0)
(63.906 0.000465992 0)
(63.9063 0.00043544 0)
(63.9067 0.000421501 0)
(63.9071 0.000412438 0)
(63.9074 0.000386031 0)
(63.9077 0.000397627 0)
(63.9079 0.000442076 0)
(63.9082 0.00046991 0)
(63.9087 0.000461036 0)
(63.9092 0.000429321 0)
(63.9097 0.000437918 0)
(63.9101 0.000479102 0)
(63.9104 0.000490995 0)
(63.9109 0.000490551 0)
(63.9113 0.00048675 0)
(63.9116 0.000459149 0)
(63.9119 0.000435124 0)
(63.9122 0.000425885 0)
(63.9126 0.000419558 0)
(63.913 0.000424713 0)
(63.9133 0.000429269 0)
(63.9137 0.000431211 0)
(63.9141 0.000444464 0)
(63.9145 0.000447123 0)
(63.9149 0.000441153 0)
(63.9151 0.000450876 0)
(63.9153 0.000457932 0)
(63.9155 0.000448006 0)
(63.9159 0.000437828 0)
(63.9163 0.000432638 0)
(63.9168 0.000426866 0)
(63.9171 0.000430632 0)
(63.9176 0.000442258 0)
(63.9181 0.000431289 0)
(63.9186 0.000407764 0)
(63.919 0.00041415 0)
(63.9195 0.000428306 0)
(63.9198 0.000414384 0)
(63.92 0.000391854 0)
(63.9204 0.000372038 0)
(63.9208 0.000369178 0)
(63.9211 0.00041025 0)
(63.9214 0.000459507 0)
(63.9218 0.00047326 0)
(63.9222 0.000463419 0)
(63.9225 0.000443989 0)
(63.9228 0.000423345 0)
(63.9232 0.000412175 0)
(63.9236 0.000405817 0)
(63.924 0.00039642 0)
(63.9244 0.000387448 0)
(63.9248 0.00039643 0)
(63.9252 0.00041862 0)
(63.9255 0.000412905 0)
(63.9259 0.000383138 0)
(63.9262 0.000371327 0)
(63.9265 0.000374293 0)
(63.9268 0.000379617 0)
(63.9273 0.000403106 0)
(63.9278 0.000442712 0)
(63.9282 0.000465406 0)
(63.9286 0.000451666 0)
(63.929 0.000417265 0)
(63.9293 0.000383879 0)
(63.9296 0.000375052 0)
(63.9299 0.000404468 0)
(63.9302 0.000440421 0)
(63.9306 0.000452084 0)
(63.9309 0.000448784 0)
(63.9313 0.000436926 0)
(63.9316 0.000416701 0)
(63.9319 0.000400173 0)
(63.9323 0.00038603 0)
(63.9327 0.000364265 0)
(63.9332 0.000344514 0)
(63.9336 0.000344683 0)
(63.934 0.000360811 0)
(63.9344 0.000374328 0)
(63.9348 0.000382079 0)
(63.9351 0.000383498 0)
(63.9354 0.000376256 0)
(63.9358 0.000379396 0)
(63.9362 0.000397252 0)
(63.9365 0.00040153 0)
(63.9369 0.000384591 0)
(63.9373 0.000367592 0)
(63.9376 0.000359009 0)
(63.938 0.000344769 0)
(63.9383 0.000329166 0)
(63.9385 0.00034219 0)
(63.939 0.000381489 0)
(63.9394 0.000419282 0)
(63.9398 0.00044986 0)
(63.9401 0.000466204 0)
(63.9404 0.000456076 0)
(63.9406 0.000428649 0)
(63.9409 0.000398531 0)
(63.9412 0.000381767 0)
(63.9415 0.000393456 0)
(63.9418 0.000422547 0)
(63.9422 0.000443367 0)
(63.9426 0.000446471 0)
(63.943 0.000434882 0)
(63.9434 0.000406088 0)
(63.9439 0.000367934 0)
(63.9443 0.000343348 0)
(63.9446 0.000337637 0)
(63.9451 0.000350075 0)
(63.9455 0.000384499 0)
(63.946 0.000424913 0)
(63.9464 0.000445683 0)
(63.9467 0.00043006 0)
(63.947 0.000388949 0)
(63.9474 0.000350491 0)
(63.9477 0.000331965 0)
(63.9481 0.000350941 0)
(63.9486 0.000396523 0)
(63.9491 0.000425027 0)
(63.9496 0.000426897 0)
(63.9499 0.000423085 0)
(63.9503 0.000423959 0)
(63.9507 0.000424524 0)
(63.9511 0.000416857 0)
(63.9514 0.000400773 0)
(63.9517 0.000389983 0)
(63.952 0.000404628 0)
(63.9522 0.000435242 0)
(63.9526 0.000448074 0)
(63.9531 0.000432836 0)
(63.9535 0.000411075 0)
(63.9539 0.000402798 0)
(63.9543 0.000403953 0)
(63.9547 0.000405812 0)
(63.9551 0.000398851 0)
(63.9555 0.000385092 0)
(63.9559 0.000392307 0)
(63.9562 0.000418648 0)
(63.9565 0.000434789 0)
(63.9568 0.000432802 0)
(63.957 0.000422047 0)
(63.9573 0.000413418 0)
(63.9576 0.000399741 0)
(63.9579 0.000377051 0)
(63.9583 0.00035651 0)
(63.9586 0.000348309 0)
(63.959 0.00036758 0)
(63.9594 0.00038927 0)
(63.9598 0.000380818 0)
(63.9603 0.000373816 0)
(63.9607 0.00038128 0)
(63.961 0.000382425 0)
(63.9614 0.000386698 0)
(63.9618 0.000402537 0)
(63.962 0.000424585 0)
(63.9624 0.000438641 0)
(63.9627 0.000418967 0)
(63.963 0.00037564 0)
(63.9634 0.000348211 0)
(63.9638 0.000346203 0)
(63.9643 0.000359649 0)
(63.9647 0.000376925 0)
(63.9651 0.000379168 0)
(63.9654 0.00037255 0)
(63.9658 0.00036797 0)
(63.966 0.000348289 0)
(63.9664 0.000327833 0)
(63.9669 0.000343426 0)
(63.9672 0.000378395 0)
(63.9676 0.000386261 0)
(63.968 0.000356985 0)
(63.9684 0.000330045 0)
(63.9689 0.000333029 0)
(63.9693 0.000340485 0)
(63.9698 0.000344412 0)
(63.9702 0.000368344 0)
(63.9706 0.000395482 0)
(63.971 0.000402565 0)
(63.9714 0.000405296 0)
(63.9717 0.000396184 0)
(63.9721 0.000354493 0)
(63.9724 0.00032111 0)
(63.9727 0.000341259 0)
(63.9731 0.000385701 0)
(63.9734 0.000400068 0)
(63.9738 0.000375697 0)
(63.9742 0.000353206 0)
(63.9746 0.000358538 0)
(63.975 0.000369782 0)
(63.9754 0.000374735 0)
(63.9758 0.000381315 0)
(63.9761 0.00038792 0)
(63.9765 0.000388666 0)
(63.9769 0.000375098 0)
(63.9772 0.000364092 0)
(63.9776 0.000384589 0)
(63.9778 0.000418084 0)
(63.9782 0.000429247 0)
(63.9787 0.000414264 0)
(63.9791 0.000390522 0)
(63.9794 0.000372494 0)
(63.9798 0.000366702 0)
(63.9802 0.000376491 0)
(63.9806 0.00038144 0)
(63.981 0.000362556 0)
(63.9814 0.000345419 0)
(63.9818 0.000351077 0)
(63.9821 0.000366546 0)
(63.9825 0.000378218 0)
(63.9829 0.000386638 0)
(63.9833 0.000387452 0)
(63.9836 0.000405356 0)
(63.9842 0.000372103 0)
(50.5469 1.3471e-05 0)
(85.4608 2.71938e-05 0)
(73.2909 1.28521e-05 0)
(60.6447 2.57765e-06 0)
(59.9003 1.80758e-05 0)
(63.3603 6.98303e-05 0)
(64.8708 0.000125302 0)
(64.4202 0.000133396 0)
(63.8039 0.000135084 0)
(63.7021 0.000156379 0)
(63.8452 0.000146294 0)
(63.9301 0.000108504 0)
(63.9203 7.8933e-05 0)
(63.8914 0.000103864 0)
(63.8833 0.000158206 0)
(63.8888 0.000181802 0)
(63.8932 0.000184954 0)
(63.8934 0.000213576 0)
(63.8922 0.000244842 0)
(63.8916 0.000242433 0)
(63.8918 0.000211344 0)
(63.892 0.000137572 0)
(63.892 3.58546e-05 0)
(63.8921 -1.15752e-05 0)
(63.8922 3.79498e-05 0)
(63.8922 0.000120581 0)
(63.8922 0.000185629 0)
(63.8922 0.000212142 0)
(63.8922 0.000209224 0)
(63.8922 0.000202817 0)
(63.8922 0.000170301 0)
(63.8923 0.000132128 0)
(63.8924 0.000160418 0)
(63.8924 0.000203721 0)
(63.8926 0.000174623 0)
(63.8928 0.000123228 0)
(63.8928 0.000120596 0)
(63.8927 0.000151686 0)
(63.8927 0.000163003 0)
(63.8928 0.00014646 0)
(63.8928 0.000154685 0)
(63.8929 0.000202505 0)
(63.8928 0.000245494 0)
(63.8928 0.000262101 0)
(63.8929 0.000254781 0)
(63.8929 0.000204151 0)
(63.8929 0.000123773 0)
(63.893 9.36924e-05 0)
(63.8929 0.000141962 0)
(63.8929 0.000184585 0)
(63.8931 0.000163983 0)
(63.893 0.000138347 0)
(63.8931 0.000161881 0)
(63.8932 0.000203083 0)
(63.8931 0.000232348 0)
(63.8932 0.000257513 0)
(63.8932 0.000275573 0)
(63.8932 0.000278236 0)
(63.8932 0.000261559 0)
(63.8931 0.000233863 0)
(63.8931 0.000215896 0)
(63.8932 0.000211011 0)
(63.8932 0.000222406 0)
(63.8933 0.000242223 0)
(63.8935 0.000241861 0)
(63.8935 0.000218369 0)
(63.8936 0.000183957 0)
(63.8936 0.00015772 0)
(63.8936 0.000161929 0)
(63.8936 0.000177995 0)
(63.8936 0.000176649 0)
(63.8935 0.00016166 0)
(63.8935 0.000146859 0)
(63.8935 0.00015404 0)
(63.8936 0.000193654 0)
(63.8936 0.000224031 0)
(63.8937 0.000214741 0)
(63.8938 0.0001951 0)
(63.8937 0.000196809 0)
(63.8938 0.000218393 0)
(63.8938 0.000231159 0)
(63.8938 0.000230428 0)
(63.8939 0.000250532 0)
(63.8939 0.000278975 0)
(63.8939 0.000277907 0)
(63.8939 0.00025531 0)
(63.8939 0.000215836 0)
(63.8939 0.000161567 0)
(63.894 0.000117712 0)
(63.894 0.000100971 0)
(63.8941 0.0001189 0)
(63.8943 0.000158106 0)
(63.8943 0.00019303 0)
(63.8944 0.000225871 0)
(63.8944 0.000252492 0)
(63.8943 0.000249937 0)
(63.8942 0.00022257 0)
(63.8942 0.000205877 0)
(63.8943 0.000218495 0)
(63.8943 0.000231332 0)
(63.8944 0.000218994 0)
(63.8944 0.000199748 0)
(63.8944 0.000197213 0)
(63.8944 0.000216368 0)
(63.8945 0.000247966 0)
(63.8945 0.000264803 0)
(63.8946 0.000248088 0)
(63.8947 0.000219578 0)
(63.8948 0.000213182 0)
(63.8948 0.000230594 0)
(63.8948 0.000233138 0)
(63.8948 0.000198236 0)
(63.8949 0.00017343 0)
(63.8949 0.000198658 0)
(63.8948 0.000247054 0)
(63.8948 0.000277959 0)
(63.8948 0.000271458 0)
(63.8948 0.000238758 0)
(63.8949 0.000215106 0)
(63.8949 0.000222773 0)
(63.895 0.000246944 0)
(63.8951 0.000260189 0)
(63.8951 0.000268227 0)
(63.8951 0.000282089 0)
(63.8952 0.000286625 0)
(63.8952 0.000278286 0)
(63.8952 0.000261612 0)
(63.8952 0.000235259 0)
(63.8952 0.000227446 0)
(63.8951 0.000255901 0)
(63.8951 0.000288755 0)
(63.8951 0.000312922 0)
(63.8952 0.000330938 0)
(63.8952 0.00032359 0)
(63.8953 0.000296886 0)
(63.8953 0.000274641 0)
(63.8952 0.000256388 0)
(63.8952 0.000234268 0)
(63.8953 0.00021202 0)
(63.8953 0.000198857 0)
(63.8954 0.000188489 0)
(63.8955 0.000170653 0)
(63.8955 0.000162569 0)
(63.8956 0.000175722 0)
(63.8956 0.000187013 0)
(63.8955 0.000186473 0)
(63.8956 0.000183258 0)
(63.8956 0.000179631 0)
(63.8957 0.000194226 0)
(63.8958 0.000216743 0)
(63.8959 0.00020403 0)
(63.896 0.000177781 0)
(63.8961 0.000166682 0)
(63.896 0.000154251 0)
(63.8961 0.000146964 0)
(63.8961 0.000157416 0)
(63.8962 0.000185062 0)
(63.8962 0.000216064 0)
(63.8962 0.000227123 0)
(63.8963 0.000221949 0)
(63.8963 0.000215176 0)
(63.8964 0.000217902 0)
(63.8964 0.000243274 0)
(63.8965 0.00028279 0)
(63.8965 0.000301813 0)
(63.8965 0.000275157 0)
(63.8966 0.00022436 0)
(63.8965 0.000198964 0)
(63.8966 0.000213149 0)
(63.8966 0.000224645 0)
(63.8966 0.000210373 0)
(63.8967 0.000201161 0)
(63.8967 0.000216533 0)
(63.8967 0.000264264 0)
(63.8967 0.000333338 0)
(63.8967 0.000374878 0)
(63.8968 0.000376275 0)
(63.8968 0.000359392 0)
(63.8968 0.000334031 0)
(63.8969 0.000305616 0)
(63.8969 0.000280802 0)
(63.8969 0.00027124 0)
(63.8969 0.000267837 0)
(63.8968 0.000255825 0)
(63.8969 0.000239391 0)
(63.8969 0.000215766 0)
(63.8969 0.000200356 0)
(63.8969 0.000198434 0)
(63.8969 0.000184106 0)
(63.897 0.000181756 0)
(63.8971 0.000217035 0)
(63.8971 0.000256901 0)
(63.8972 0.000277752 0)
(63.8973 0.000278763 0)
(63.8973 0.000269745 0)
(63.8972 0.000263058 0)
(63.8972 0.00024279 0)
(63.8972 0.000208428 0)
(63.8972 0.000193554 0)
(63.8973 0.000195782 0)
(63.8973 0.000201437 0)
(63.8974 0.000219018 0)
(63.8976 0.000221633 0)
(63.8976 0.000204709 0)
(63.8976 0.000217962 0)
(63.8976 0.000249186 0)
(63.8977 0.000254435 0)
(63.8978 0.000239673 0)
(63.8977 0.000223195 0)
(63.8977 0.000216377 0)
(63.8977 0.00021565 0)
(63.8977 0.000212168 0)
(63.8977 0.000215587 0)
(63.8978 0.000225508 0)
(63.8978 0.000236757 0)
(63.8979 0.000249991 0)
(63.898 0.000250935 0)
(63.8981 0.000243319 0)
(63.8982 0.000254265 0)
(63.8982 0.000282081 0)
(63.8982 0.000302243 0)
(63.8983 0.000301667 0)
(63.8983 0.000280337 0)
(63.8983 0.000254331 0)
(63.8983 0.0002378 0)
(63.8984 0.000222263 0)
(63.8984 0.000214606 0)
(63.8984 0.000231446 0)
(63.8985 0.000255129 0)
(63.8986 0.00026755 0)
(63.8986 0.000275667 0)
(63.8986 0.000294015 0)
(63.8986 0.000323386 0)
(63.8986 0.000334705 0)
(63.8986 0.00031474 0)
(63.8986 0.000293108 0)
(63.8986 0.00028674 0)
(63.8986 0.000272617 0)
(63.8986 0.000239471 0)
(63.8987 0.000212508 0)
(63.8988 0.000198047 0)
(63.8988 0.000185647 0)
(63.8989 0.000191103 0)
(63.899 0.000227816 0)
(63.899 0.000277983 0)
(63.899 0.000310887 0)
(63.899 0.000316418 0)
(63.899 0.000310947 0)
(63.8991 0.000293796 0)
(63.8991 0.000276799 0)
(50.5469 3.99258e-06 0)
(85.4608 0.000106742 0)
(73.2912 0.000260455 0)
(60.6451 0.000332189 0)
(59.9008 0.000324255 0)
(63.3607 0.000283688 0)
(64.871 0.000262993 0)
(64.4204 0.000267833 0)
(63.8039 0.000280348 0)
(63.7019 0.00032715 0)
(63.8451 0.000363545 0)
(63.93 0.000364756 0)
(63.9203 0.000377355 0)
(63.8914 0.000406813 0)
(63.8833 0.000433692 0)
(63.8887 0.000438573 0)
(63.8932 0.000408003 0)
(63.8933 0.000392619 0)
(63.8921 0.000431273 0)
(63.8916 0.000478337 0)
(63.8918 0.000459088 0)
(63.8923 0.000371396 0)
(63.8923 0.000294557 0)
(63.8921 0.000252882 0)
(63.8921 0.000267682 0)
(63.8921 0.000325966 0)
(63.8921 0.000359356 0)
(63.8923 0.000373808 0)
(63.8923 0.000403454 0)
(63.8923 0.000432483 0)
(63.8923 0.000418324 0)
(63.8924 0.000372611 0)
(63.8924 0.000333445 0)
(63.8926 0.000281912 0)
(63.8927 0.000242306 0)
(63.8926 0.000276329 0)
(63.8925 0.000348328 0)
(63.8927 0.000379427 0)
(63.8928 0.000359992 0)
(63.8928 0.000345593 0)
(63.8927 0.000359952 0)
(63.8927 0.00039905 0)
(63.8928 0.000440491 0)
(63.8928 0.00042298 0)
(63.8929 0.000368893 0)
(63.893 0.000326756 0)
(63.893 0.00030187 0)
(63.893 0.00032957 0)
(63.893 0.000372121 0)
(63.893 0.000362725 0)
(63.893 0.000340302 0)
(63.893 0.000354694 0)
(63.893 0.000400595 0)
(63.8931 0.00043259 0)
(63.8931 0.0004144 0)
(63.8931 0.000386213 0)
(63.8931 0.000397187 0)
(63.8932 0.00044045 0)
(63.8932 0.00047348 0)
(63.8933 0.000446798 0)
(63.8933 0.000387229 0)
(63.8933 0.000364899 0)
(63.8933 0.000361118 0)
(63.8933 0.00032612 0)
(63.8933 0.000284093 0)
(63.8933 0.000266455 0)
(63.8934 0.00027022 0)
(63.8934 0.00031104 0)
(63.8934 0.000380525 0)
(63.8935 0.000429027 0)
(63.8935 0.000447136 0)
(63.8935 0.000444512 0)
(63.8936 0.000410459 0)
(63.8936 0.000362011 0)
(63.8936 0.000335394 0)
(63.8936 0.000318558 0)
(63.8937 0.000295489 0)
(63.8937 0.000305389 0)
(63.8937 0.000347082 0)
(63.8938 0.000374965 0)
(63.8939 0.000395666 0)
(63.8939 0.000410497 0)
(63.8938 0.000397199 0)
(63.8939 0.000370159 0)
(63.894 0.00034748 0)
(63.894 0.000338246 0)
(63.8941 0.000345311 0)
(63.8942 0.000346969 0)
(63.8941 0.000322076 0)
(63.8941 0.000275057 0)
(63.8941 0.000246496 0)
(63.8941 0.000269032 0)
(63.8941 0.00030795 0)
(63.8941 0.000328338 0)
(63.8942 0.000352405 0)
(63.8943 0.000387665 0)
(63.8943 0.00040137 0)
(63.8943 0.000387766 0)
(63.8943 0.000369721 0)
(63.8944 0.000351612 0)
(63.8944 0.000342214 0)
(63.8944 0.000353993 0)
(63.8944 0.000361838 0)
(63.8944 0.000347649 0)
(63.8944 0.000335883 0)
(63.8945 0.000335485 0)
(63.8945 0.000327314 0)
(63.8945 0.000312709 0)
(63.8946 0.000303262 0)
(63.8947 0.000298009 0)
(63.8948 0.000291152 0)
(63.8948 0.000280681 0)
(63.8948 0.000288625 0)
(63.8948 0.000330879 0)
(63.8948 0.00037887 0)
(63.8948 0.000391092 0)
(63.8949 0.000359856 0)
(63.895 0.000326853 0)
(63.895 0.000322165 0)
(63.895 0.000324522 0)
(63.8951 0.000312819 0)
(63.895 0.000288573 0)
(63.8951 0.000263772 0)
(63.8952 0.00025207 0)
(63.8953 0.000259257 0)
(63.8954 0.000291174 0)
(63.8955 0.000338965 0)
(63.8954 0.000381118 0)
(63.8954 0.000422726 0)
(63.8954 0.000461231 0)
(63.8954 0.000460912 0)
(63.8954 0.000427896 0)
(63.8954 0.000395275 0)
(63.8955 0.000366707 0)
(63.8955 0.000360296 0)
(63.8955 0.000380953 0)
(63.8956 0.000391595 0)
(63.8956 0.00038135 0)
(63.8956 0.000357844 0)
(63.8956 0.000318196 0)
(63.8956 0.000269945 0)
(63.8956 0.000229371 0)
(63.8957 0.000217313 0)
(63.8958 0.000250527 0)
(63.8958 0.000313839 0)
(63.8959 0.000361618 0)
(63.8959 0.000358415 0)
(63.8959 0.000309819 0)
(63.8959 0.000261408 0)
(63.896 0.000239349 0)
(63.8961 0.000226027 0)
(63.8961 0.000231503 0)
(63.8961 0.000257195 0)
(63.8962 0.000263559 0)
(63.8962 0.000265492 0)
(63.8962 0.000293916 0)
(63.8962 0.000335112 0)
(63.8962 0.000371943 0)
(63.8963 0.000385517 0)
(63.8963 0.000368888 0)
(63.8963 0.000340891 0)
(63.8963 0.000329908 0)
(63.8962 0.000342591 0)
(63.8962 0.000350718 0)
(63.8963 0.000343391 0)
(63.8964 0.000331976 0)
(63.8964 0.000322496 0)
(63.8965 0.000325262 0)
(63.8965 0.000337533 0)
(63.8966 0.000338505 0)
(63.8965 0.000331708 0)
(63.8965 0.000343152 0)
(63.8965 0.000367363 0)
(63.8964 0.000384604 0)
(63.8964 0.000397736 0)
(63.8965 0.000407159 0)
(63.8965 0.000409831 0)
(63.8965 0.000395946 0)
(63.8966 0.000357653 0)
(63.8967 0.000319185 0)
(63.8967 0.000311684 0)
(63.8967 0.000345335 0)
(63.8967 0.000378567 0)
(63.8967 0.000363724 0)
(63.8968 0.000334426 0)
(63.8969 0.000326835 0)
(63.8969 0.000338114 0)
(63.897 0.000359939 0)
(63.897 0.000356197 0)
(63.8969 0.000328107 0)
(63.8969 0.000311313 0)
(63.8969 0.000297143 0)
(63.8969 0.000286501 0)
(63.897 0.000298192 0)
(63.897 0.000324986 0)
(63.8971 0.000350324 0)
(63.8972 0.000351212 0)
(63.8972 0.000325801 0)
(63.8973 0.000305219 0)
(63.8973 0.000287104 0)
(63.8973 0.000247125 0)
(63.8973 0.000211334 0)
(63.8973 0.000207948 0)
(63.8973 0.000225075 0)
(63.8973 0.000255669 0)
(63.8975 0.000283858 0)
(63.8975 0.000294192 0)
(63.8976 0.000299254 0)
(63.8977 0.000298577 0)
(63.8977 0.000297599 0)
(63.8978 0.000307065 0)
(63.8979 0.000302572 0)
(63.8979 0.000282147 0)
(63.898 0.000276414 0)
(63.898 0.000282892 0)
(63.8979 0.000272972 0)
(63.898 0.0002486 0)
(63.898 0.000248435 0)
(63.8981 0.000282886 0)
(63.8981 0.000317096 0)
(63.8981 0.000325467 0)
(63.8982 0.000312315 0)
(63.8983 0.000292774 0)
(63.8983 0.000279187 0)
(63.8984 0.000280378 0)
(63.8984 0.000289715 0)
(63.8983 0.00029172 0)
(63.8983 0.000286971 0)
(63.8984 0.000280701 0)
(63.8984 0.000287273 0)
(63.8984 0.0003257 0)
(63.8984 0.000375535 0)
(63.8984 0.000398743 0)
(63.8985 0.00039019 0)
(63.8985 0.000373324 0)
(63.8985 0.0003627 0)
(63.8986 0.000349071 0)
(63.8987 0.000323387 0)
(63.8987 0.000286332 0)
(63.8987 0.000252111 0)
(63.8987 0.000238747 0)
(63.8987 0.000245469 0)
(63.8987 0.000269076 0)
(63.8987 0.000304422 0)
(63.8987 0.000329859 0)
(63.8988 0.000334654 0)
(63.8989 0.000327408 0)
(63.899 0.000325097 0)
(63.8991 0.000318455 0)
(63.8991 0.000298227 0)
(50.547 1.57722e-05 0)
(85.4607 6.76181e-05 0)
(73.2912 0.000109288 0)
(60.6451 0.000115976 0)
(59.9006 0.000100414 0)
(63.3606 0.000101877 0)
(64.871 0.000132279 0)
(64.4203 0.00016052 0)
(63.8038 0.00015408 0)
(63.7018 0.000142132 0)
(63.8451 0.000150649 0)
(63.93 0.00015702 0)
(63.9202 0.00016831 0)
(63.8914 0.000193019 0)
(63.8833 0.000210487 0)
(63.8889 0.000237825 0)
(63.8934 0.000275022 0)
(63.8933 0.000269275 0)
(63.892 0.000218002 0)
(63.8916 0.00016091 0)
(63.8918 0.000105409 0)
(63.892 5.25324e-05 0)
(63.8921 4.23409e-05 0)
(63.8921 7.11172e-05 0)
(63.8921 8.64011e-05 0)
(63.8922 0.000104356 0)
(63.8922 0.000146472 0)
(63.8921 0.000173712 0)
(63.8922 0.000170712 0)
(63.8924 0.000158444 0)
(63.8924 0.00015206 0)
(63.8924 0.000145245 0)
(63.8925 0.000109095 0)
(63.8925 6.15827e-05 0)
(63.8924 6.12113e-05 0)
(63.8925 9.97454e-05 0)
(63.8925 0.000121536 0)
(63.8925 0.000110533 0)
(63.8926 0.00010551 0)
(63.8925 0.00014361 0)
(63.8925 0.000185362 0)
(63.8925 0.000203252 0)
(63.8926 0.000203011 0)
(63.8926 0.000151158 0)
(63.8927 8.67055e-05 0)
(63.8928 7.7548e-05 0)
(63.8928 0.000112569 0)
(63.8927 0.000166915 0)
(63.8928 0.00019816 0)
(63.8928 0.000187684 0)
(63.8928 0.000174637 0)
(63.8928 0.000169844 0)
(63.8929 0.000177544 0)
(63.8931 0.000205701 0)
(63.8931 0.000219472 0)
(63.8931 0.000209874 0)
(63.8931 0.000202391 0)
(63.8931 0.000204154 0)
(63.8931 0.000211207 0)
(63.8932 0.000200565 0)
(63.8931 0.000182304 0)
(63.8931 0.00019041 0)
(63.8932 0.000191635 0)
(63.8933 0.00017464 0)
(63.8933 0.000181294 0)
(63.8933 0.000194349 0)
(63.8933 0.000181034 0)
(63.8932 0.000168985 0)
(63.8932 0.000178382 0)
(63.8932 0.000184422 0)
(63.8933 0.000169087 0)
(63.8934 0.000140813 0)
(63.8935 0.000117037 0)
(63.8935 9.97413e-05 0)
(63.8936 8.38337e-05 0)
(63.8937 8.85761e-05 0)
(63.8937 0.000119598 0)
(63.8936 0.000148892 0)
(63.8937 0.000155832 0)
(63.8937 0.000151735 0)
(63.8937 0.000169009 0)
(63.8938 0.00019762 0)
(63.8939 0.000197036 0)
(63.8939 0.000179784 0)
(63.894 0.000172362 0)
(63.894 0.000164294 0)
(63.894 0.000146286 0)
(63.8941 0.000127419 0)
(63.8942 0.000120242 0)
(63.8942 0.000122057 0)
(63.8942 0.000129622 0)
(63.8942 0.000152274 0)
(63.8942 0.000175183 0)
(63.8942 0.000176121 0)
(63.8942 0.000176658 0)
(63.8942 0.000200752 0)
(63.8943 0.00022449 0)
(63.8943 0.00022285 0)
(63.8943 0.000196414 0)
(63.8943 0.000154593 0)
(63.8943 0.000132257 0)
(63.8944 0.000148587 0)
(63.8945 0.000170092 0)
(63.8945 0.00018055 0)
(63.8946 0.000187821 0)
(63.8945 0.000186409 0)
(63.8946 0.000184423 0)
(63.8946 0.000183718 0)
(63.8946 0.000158019 0)
(63.8946 0.000118277 0)
(63.8947 0.000108798 0)
(63.8946 0.000132745 0)
(63.8946 0.000169598 0)
(63.8946 0.000204364 0)
(63.8947 0.000214362 0)
(63.8948 0.000195853 0)
(63.8948 0.000175893 0)
(63.8948 0.00017847 0)
(63.8948 0.00018911 0)
(63.8949 0.000181395 0)
(63.8949 0.000168037 0)
(63.895 0.000161747 0)
(63.895 0.000153506 0)
(63.895 0.00014303 0)
(63.895 0.000131423 0)
(63.895 0.000134209 0)
(63.895 0.000171884 0)
(63.895 0.000228889 0)
(63.895 0.000279721 0)
(63.8951 0.000313418 0)
(63.8951 0.000317234 0)
(63.8951 0.000290115 0)
(63.8951 0.000254648 0)
(63.8952 0.000232392 0)
(63.8952 0.000228453 0)
(63.8952 0.000232391 0)
(63.8952 0.000236101 0)
(63.8952 0.000237442 0)
(63.8953 0.000219614 0)
(63.8953 0.000180004 0)
(63.8953 0.000138528 0)
(63.8954 0.000100348 0)
(63.8954 7.16968e-05 0)
(63.8954 6.77879e-05 0)
(63.8954 9.1749e-05 0)
(63.8955 0.000125071 0)
(63.8957 0.000141251 0)
(63.8958 0.000134138 0)
(63.8958 0.000112187 0)
(63.8958 9.20274e-05 0)
(63.8958 9.17989e-05 0)
(63.8958 0.000107937 0)
(63.8959 0.000121136 0)
(63.896 0.000124277 0)
(63.896 0.00013159 0)
(63.896 0.000147777 0)
(63.8961 0.000166012 0)
(63.8961 0.000186651 0)
(63.8962 0.000195827 0)
(63.8962 0.000188439 0)
(63.8963 0.000189028 0)
(63.8963 0.000210201 0)
(63.8963 0.000232286 0)
(63.8964 0.000229069 0)
(63.8964 0.000211006 0)
(63.8965 0.000201033 0)
(63.8965 0.000195852 0)
(63.8964 0.000192561 0)
(63.8964 0.000189348 0)
(63.8964 0.000185312 0)
(63.8965 0.000195156 0)
(63.8966 0.000225856 0)
(63.8966 0.000266736 0)
(63.8965 0.000301691 0)
(63.8965 0.000319597 0)
(63.8965 0.000319113 0)
(63.8966 0.000303306 0)
(63.8967 0.000273602 0)
(63.8967 0.000238111 0)
(63.8967 0.000215071 0)
(63.8967 0.000213647 0)
(63.8966 0.000227846 0)
(63.8967 0.000228279 0)
(63.8968 0.000191687 0)
(63.8968 0.000153941 0)
(63.8968 0.000141439 0)
(63.8968 0.000139036 0)
(63.8969 0.000152051 0)
(63.897 0.000174746 0)
(63.897 0.000195017 0)
(63.8971 0.000218072 0)
(63.8971 0.000225861 0)
(63.897 0.000215788 0)
(63.8971 0.000200148 0)
(63.8971 0.000174659 0)
(63.8971 0.000156824 0)
(63.8972 0.000154527 0)
(63.8973 0.000151997 0)
(63.8973 0.000154387 0)
(63.8975 0.000159532 0)
(63.8975 0.000146648 0)
(63.8975 0.000129208 0)
(63.8976 0.000141432 0)
(63.8976 0.000167588 0)
(63.8975 0.000170769 0)
(63.8975 0.000154297 0)
(63.8975 0.00013209 0)
(63.8976 0.000110701 0)
(63.8977 9.74838e-05 0)
(63.8977 9.9835e-05 0)
(63.8978 0.000114818 0)
(63.8979 0.00012261 0)
(63.8979 0.000129397 0)
(63.898 0.000161359 0)
(63.898 0.000200696 0)
(63.898 0.000207208 0)
(63.8981 0.000190884 0)
(63.898 0.000196967 0)
(63.898 0.000220754 0)
(63.898 0.000216276 0)
(63.8981 0.000174831 0)
(63.8982 0.000134354 0)
(63.8982 0.000132769 0)
(63.8982 0.000167241 0)
(63.8982 0.000212979 0)
(63.8982 0.000248243 0)