/*--------------------------------*- C++ -*----------------------------------*\
| =========                 |                                                 |
| \\      /  F ield         | OpenFOAM: The Open Source CFD Toolbox           |
|  \\    /   O peration     | Version:  2406                                  |
|   \\  /    A nd           | Website:  www.openfoam.com                      |
|    \\/     M anipulation  |                                                 |
\*---------------------------------------------------------------------------*/
FoamFile
{
    version     2.0;
    format      ascii;
    arch        "LSB;label=32;scalar=64";
    class       surfaceScalarField;
    location    "1.6";
    object      alphaPhi0.air;
}
// * * * * * * * * * * * * * * * * * * * * * * * * * * * * * * * * * * * * * //

dimensions      [0 3 -1 0 0 0 0];

oriented        oriented;

internalField   nonuniform List<scalar> 
12225
(
0.511015
1.52993e-06
0.51101
5.79371e-06
0.511002
7.36037e-06
0.510997
5.6038e-06
0.510992
4.16973e-06
0.510988
4.38666e-06
0.510983
5.19435e-06
0.510978
5.29021e-06
0.510972
5.27893e-06
0.510967
5.41754e-06
0.510961
5.36763e-06
0.510956
5.49524e-06
0.51095
5.56447e-06
0.510945
5.6999e-06
0.510939
6.07915e-06
0.510933
6.03635e-06
0.510927
5.79015e-06
0.510921
5.85945e-06
0.510915
5.69624e-06
0.51091
5.2306e-06
0.510905
5.11972e-06
0.5109
5.32976e-06
0.510894
5.36767e-06
0.510889
5.33963e-06
0.510883
5.37214e-06
0.510878
5.46939e-06
0.510872
5.66913e-06
0.510867
5.73805e-06
0.510861
5.6496e-06
0.510855
5.55527e-06
0.51085
5.41463e-06
0.510845
5.24382e-06
0.51084
5.16379e-06
0.510834
5.25621e-06
0.510829
5.44946e-06
0.510823
5.53091e-06
0.510818
5.3722e-06
0.510813
5.06508e-06
0.510808
5.03068e-06
0.510803
5.34223e-06
0.510797
5.51848e-06
0.510791
5.67344e-06
0.510786
5.81066e-06
0.51078
5.60263e-06
0.510774
5.4815e-06
0.510769
5.43115e-06
0.510764
5.18012e-06
0.510759
5.14137e-06
0.510753
5.22569e-06
0.510748
5.23833e-06
0.510743
5.4691e-06
0.510737
5.68073e-06
0.510732
5.55031e-06
0.510726
5.44528e-06
0.510721
5.50123e-06
0.510715
5.60531e-06
0.510709
5.74765e-06
0.510704
5.69149e-06
0.510698
5.55576e-06
0.510693
5.44719e-06
0.510687
5.31822e-06
0.510682
5.48802e-06
0.510676
5.69495e-06
0.51067
5.60602e-06
0.510665
5.63244e-06
0.510659
5.83709e-06
0.510653
5.86946e-06
0.510647
5.75658e-06
0.510642
5.64008e-06
0.510636
5.47139e-06
0.510631
5.32925e-06
0.510625
5.39989e-06
0.51062
5.61132e-06
0.510614
5.61331e-06
0.510609
5.32625e-06
0.510604
5.0685e-06
0.510599
5.04366e-06
0.510594
5.25435e-06
0.510588
5.49658e-06
0.510582
5.62605e-06
0.510577
5.61712e-06
0.510571
5.38959e-06
0.510566
5.06455e-06
0.510562
4.85161e-06
0.510557
4.82891e-06
0.510552
5.05503e-06
0.510546
5.44089e-06
0.51054
5.78201e-06
0.510535
5.73211e-06
0.510529
5.23582e-06
0.510525
4.90924e-06
0.510519
5.24503e-06
0.510513
5.8799e-06
0.510507
6.20936e-06
0.510501
6.1059e-06
0.510495
5.59465e-06
0.510491
4.96955e-06
0.510486
4.77101e-06
0.510481
4.98949e-06
0.510475
5.3621e-06
0.51047
5.7086e-06
0.510464
5.87144e-06
0.510458
5.79025e-06
0.510452
5.59609e-06
0.510447
5.46715e-06
0.510442
5.39347e-06
0.510436
5.41714e-06
0.510431
5.5154e-06
0.510425
5.54713e-06
0.51042
5.5835e-06
0.510414
5.66739e-06
0.510408
5.65493e-06
0.510403
5.49288e-06
0.510397
5.34142e-06
0.510392
5.42329e-06
0.510386
5.73438e-06
0.51038
6.05226e-06
0.510374
6.17332e-06
0.510368
5.95312e-06
0.510363
5.4313e-06
0.510358
5.01889e-06
0.510353
5.01572e-06
0.510347
5.27976e-06
0.510342
5.43107e-06
0.510336
5.38919e-06
0.510331
5.41408e-06
0.510326
5.46596e-06
0.51032
5.4836e-06
0.510314
5.59529e-06
0.510309
5.72352e-06
0.510303
5.73381e-06
0.510297
5.58359e-06
0.510292
5.31347e-06
0.510287
5.09298e-06
0.510282
5.05519e-06
0.510277
5.16112e-06
0.510271
5.36999e-06
0.510266
5.5364e-06
0.510261
5.34657e-06
0.510256
4.96316e-06
0.510251
4.9016e-06
0.510246
5.19195e-06
0.51024
5.52712e-06
0.510234
5.82735e-06
0.510228
5.99706e-06
0.510222
5.84393e-06
0.510217
5.59106e-06
0.510211
5.48265e-06
0.510206
5.42891e-06
0.5102
5.4413e-06
0.510195
5.51241e-06
0.510189
5.509e-06
0.510184
5.37897e-06
0.510179
5.18289e-06
0.510174
5.05999e-06
0.510169
5.06735e-06
0.510163
5.26191e-06
0.510158
5.70356e-06
0.510152
6.11596e-06
0.510145
6.18213e-06
0.510139
6.03694e-06
0.510134
5.78107e-06
0.510128
5.40439e-06
0.510123
5.20837e-06
0.510118
5.28339e-06
0.510112
5.33647e-06
0.510107
5.30573e-06
0.510102
5.31378e-06
0.510096
5.34781e-06
0.510091
5.35755e-06
0.510086
5.42215e-06
0.51008
5.56816e-06
0.510074
5.62603e-06
0.510069
5.49936e-06
0.510064
5.30202e-06
0.510058
5.20047e-06
0.510053
5.18054e-06
0.510048
5.11387e-06
0.510043
5.01444e-06
0.510038
4.90659e-06
0.510033
4.86376e-06
0.510028
5.02026e-06
0.510023
5.30061e-06
0.510017
5.54675e-06
0.510012
5.64678e-06
0.510006
5.59842e-06
0.510001
5.582e-06
0.509995
5.64326e-06
0.509989
5.6791e-06
0.509984
5.66784e-06
0.509978
5.53296e-06
0.509973
5.21949e-06
0.509968
4.98084e-06
0.509963
5.04445e-06
0.509958
5.29956e-06
0.509952
5.51429e-06
0.509947
5.50806e-06
0.509941
5.23839e-06
0.509936
4.88261e-06
0.509932
4.79128e-06
0.509927
5.09781e-06
0.509921
5.52097e-06
0.509915
5.78767e-06
0.509909
5.79076e-06
0.509904
5.49155e-06
0.509899
5.12343e-06
0.509894
5.01787e-06
0.509889
5.25381e-06
0.509883
5.57963e-06
0.509877
5.66572e-06
0.509872
5.50671e-06
0.509867
5.29849e-06
0.509861
5.2081e-06
0.509856
5.33555e-06
0.50985
5.5701e-06
0.509845
5.69662e-06
0.509839
5.6723e-06
0.509833
5.59553e-06
0.509828
5.54197e-06
0.509822
5.5192e-06
0.509817
5.49162e-06
0.509811
5.43357e-06
0.509806
5.32656e-06
0.509801
5.24824e-06
0.509796
5.34549e-06
0.50979
5.54107e-06
0.509784
5.52867e-06
0.509779
5.22382e-06
0.509774
4.94521e-06
0.509769
5.02001e-06
0.509764
5.36596e-06
0.509758
5.73915e-06
0.509752
5.9257e-06
0.509746
5.80273e-06
0.509741
5.53063e-06
0.509736
5.26633e-06
0.509731
4.94733e-06
0.509726
4.66565e-06
0.509721
4.70786e-06
0.509716
5.13676e-06
0.509711
5.51552e-06
0.509705
5.34791e-06
0.5097
4.92263e-06
0.509696
4.83625e-06
0.509691
5.04567e-06
0.509685
5.40455e-06
0.509679
5.93187e-06
0.509673
6.24209e-06
0.509666
6.63465e-06
5.81503e-06
0.51102
-3.93591e-08
0.511025
8.78068e-07
0.511031
1.68694e-06
0.511034
1.90282e-06
0.511036
2.27181e-06
0.511038
2.67138e-06
0.51104
2.74392e-06
0.511043
2.5649e-06
0.511046
2.44755e-06
0.511049
2.20083e-06
0.511053
1.77552e-06
0.511056
1.95401e-06
0.511059
2.67198e-06
0.511062
2.73464e-06
0.511066
2.14571e-06
0.51107
2.04808e-06
0.511074
2.21478e-06
0.511078
2.06478e-06
0.511081
2.0824e-06
0.511084
2.22603e-06
0.511087
2.52271e-06
0.511089
3.05563e-06
0.511092
2.88117e-06
0.511095
2.25799e-06
0.511098
2.34794e-06
0.5111
2.70718e-06
0.511103
2.63424e-06
0.511106
2.68212e-06
0.511109
2.69195e-06
0.511113
2.45155e-06
0.511116
2.3452e-06
0.511119
2.29073e-06
0.511121
2.29077e-06
0.511124
2.43447e-06
0.511127
2.59857e-06
0.51113
2.79798e-06
0.511132
2.89689e-06
0.511135
2.82641e-06
0.511137
2.80812e-06
0.511139
2.88963e-06
0.511142
2.70399e-06
0.511145
2.2441e-06
0.511149
2.09454e-06
0.511153
2.26789e-06
0.511155
2.51241e-06
0.511158
2.87792e-06
0.51116
2.9616e-06
0.511163
2.5675e-06
0.511166
2.13771e-06
0.511169
1.9773e-06
0.511172
2.24411e-06
0.511175
2.88067e-06
0.511177
3.28799e-06
0.51118
3.01917e-06
0.511183
2.446e-06
0.511186
2.07667e-06
0.51119
2.15836e-06
0.511193
2.49494e-06
0.511196
2.89731e-06
0.511198
3.20829e-06
0.511201
2.96594e-06
0.511204
2.39325e-06
0.511207
1.96266e-06
0.511211
1.72044e-06
0.511215
1.86217e-06
0.511219
2.27496e-06
0.511222
2.49192e-06
0.511225
2.50155e-06
0.511228
2.61778e-06
0.511231
2.89549e-06
0.511233
3.11149e-06
0.511235
3.04885e-06
0.511238
2.60622e-06
0.511242
2.08484e-06
0.511245
1.94312e-06
0.511248
2.10845e-06
0.511251
2.26611e-06
0.511254
2.3454e-06
0.511257
2.36244e-06
0.51126
2.38544e-06
0.511263
2.71509e-06
0.511266
3.04204e-06
0.511268
2.88466e-06
0.51127
2.51689e-06
0.511273
2.24879e-06
0.511276
2.12496e-06
0.511279
2.29888e-06
0.511282
2.87777e-06
0.511284
3.34724e-06
0.511286
3.19491e-06
0.511288
2.72419e-06
0.511291
2.25684e-06
0.511295
1.9024e-06
0.511299
1.93189e-06
0.511303
2.32804e-06
0.511306
2.64209e-06
0.511309
2.57259e-06
0.511311
2.28242e-06
0.511314
2.03596e-06
0.511317
2.05511e-06
0.511321
2.40474e-06
0.511324
2.77647e-06
0.511327
2.86393e-06
0.51133
2.59493e-06
0.511333
2.238e-06
0.511336
2.10406e-06
0.511339
2.20972e-06
0.511342
2.44878e-06
0.511345
2.61885e-06
0.511348
2.54899e-06
0.511352
2.40282e-06
0.511355
2.44843e-06
0.511358
2.60474e-06
0.511361
2.59504e-06
0.511364
2.38064e-06
0.511367
2.1225e-06
0.511371
1.95241e-06
0.511375
2.00414e-06
0.511379
2.36391e-06
0.511382
2.81164e-06
0.511384
2.98928e-06
0.511386
2.81361e-06
0.511389
2.49581e-06
0.511392
2.3361e-06
0.511395
2.43368e-06
0.511397
2.67405e-06
0.5114
2.83494e-06
0.511403
2.7912e-06
0.511406
2.59275e-06
0.511409
2.36277e-06
0.511412
2.41667e-06
0.511415
2.70145e-06
0.511418
2.82827e-06
0.51142
2.84768e-06
0.511422
2.88872e-06
0.511425
2.7842e-06
0.511428
2.51154e-06
0.511431
2.31646e-06
0.511434
2.21625e-06
0.511437
2.06472e-06
0.51144
2.0366e-06
0.511443
2.26305e-06
0.511446
2.44981e-06
0.511449
2.4132e-06
0.511453
2.41456e-06
0.511456
2.488e-06
0.511459
2.50088e-06
0.511462
2.67694e-06
0.511464
2.95093e-06
0.511467
2.96296e-06
0.51147
2.73728e-06
0.511473
2.42473e-06
0.511476
2.11951e-06
0.511479
2.08035e-06
0.511482
2.41929e-06
0.511484
2.77222e-06
0.511486
2.7856e-06
0.51149
2.55995e-06
0.511493
2.3508e-06
0.511497
2.25248e-06
0.511501
2.31125e-06
0.511504
2.60332e-06
0.511507
2.90593e-06
0.511509
2.96566e-06
0.511511
2.93155e-06
0.511514
2.87357e-06
0.511516
2.69104e-06
0.511519
2.50746e-06
0.511522
2.43431e-06
0.511525
2.39704e-06
0.511528
2.39068e-06
0.511531
2.47312e-06
0.511534
2.57498e-06
0.511537
2.60237e-06
0.51154
2.42157e-06
0.511543
2.12446e-06
0.511546
2.1479e-06
0.511549
2.55606e-06
0.511551
3.06901e-06
0.511552
3.46016e-06
0.511553
3.4404e-06
0.511556
2.98806e-06
0.511558
2.47149e-06
0.511562
2.25792e-06
0.511565
2.39331e-06
0.511568
2.58703e-06
0.511571
2.652e-06
0.511574
2.62193e-06
0.511577
2.51851e-06
0.51158
2.43895e-06
0.511583
2.5642e-06
0.511586
2.74413e-06
0.511588
2.62307e-06
0.511591
2.26087e-06
0.511594
1.97563e-06
0.511598
1.91248e-06
0.511601
2.13902e-06
0.511604
2.59689e-06
0.511606
2.82738e-06
0.511608
2.54308e-06
0.511611
2.11552e-06
0.511615
1.91929e-06
0.511618
2.01349e-06
0.511622
2.31977e-06
0.511625
2.63201e-06
0.511627
2.67235e-06
0.51163
2.42569e-06
0.511633
2.19481e-06
0.511636
2.26534e-06
0.511639
2.49545e-06
0.511642
2.66322e-06
0.511645
2.77855e-06
0.511647
2.78435e-06
0.51165
2.65149e-06
0.511653
2.50132e-06
0.511656
2.43121e-06
0.511659
2.40315e-06
0.511663
2.26434e-06
0.511666
1.98598e-06
0.51167
1.79576e-06
0.511674
1.92806e-06
0.511677
2.39883e-06
0.511679
2.88046e-06
0.511681
2.91399e-06
0.511684
2.52031e-06
0.511688
2.18738e-06
0.511691
2.21715e-06
0.511694
2.50366e-06
0.511696
2.75487e-06
0.511698
2.83261e-06
0.511701
2.82322e-06
0.511704
2.68724e-06
0.511707
2.47686e-06
0.51171
2.47309e-06
0.511713
2.66414e-06
0.511716
2.83677e-06
0.511718
2.93303e-06
0.511719
2.85412e-06
0.511722
2.52704e-06
0.511725
2.24522e-06
0.511728
2.2453e-06
0.511731
2.39203e-06
0.511733
2.56556e-06
0.511735
2.68755e-06
0.511738
2.67468e-06
0.51174
2.57281e-06
0.511744
2.51435e-06
0.511748
2.58476e-06
0.511751
2.82846e-06
3.07831e-06
0.511019
5.93939e-07
0.511019
7.22234e-07
0.51102
6.17283e-07
0.511021
1.2307e-06
0.511021
1.9236e-06
0.511022
1.83814e-06
0.511022
2.0606e-06
0.511022
2.59335e-06
0.511022
2.47292e-06
0.511022
2.22981e-06
0.511022
2.21264e-06
0.511022
2.22004e-06
0.511022
2.27569e-06
0.511023
2.2887e-06
0.511022
2.1835e-06
0.511023
1.78197e-06
0.511023
1.66261e-06
0.511024
1.82984e-06
0.511024
1.69475e-06
0.511024
1.74514e-06
0.511025
1.92185e-06
0.511026
1.9376e-06
0.511027
2.35454e-06
0.511026
2.84071e-06
0.511026
2.59065e-06
0.511026
2.10122e-06
0.511027
2.0951e-06
0.511027
2.48943e-06
0.511027
2.61134e-06
0.511027
2.27447e-06
0.511028
2.05045e-06
0.511028
2.18083e-06
0.511028
2.51239e-06
0.511027
2.61914e-06
0.511028
2.48714e-06
0.511028
2.48061e-06
0.511028
2.23335e-06
0.511029
2.04216e-06
0.51103
2.38683e-06
0.51103
2.50772e-06
0.51103
2.43051e-06
0.51103
2.58427e-06
0.51103
2.50185e-06
0.51103
2.36426e-06
0.51103
2.51407e-06
0.51103
2.50435e-06
0.511031
2.16109e-06
0.511031
1.88031e-06
0.511032
2.0057e-06
0.511031
2.4108e-06
0.511031
2.62475e-06
0.511031
2.55351e-06
0.511032
2.31864e-06
0.511033
1.99763e-06
0.511034
1.87585e-06
0.511034
1.94374e-06
0.511034
2.16601e-06
0.511034
2.60837e-06
0.511034
2.86298e-06
0.511034
2.8591e-06
0.511034
2.69855e-06
0.511034
2.34035e-06
0.511034
2.13571e-06
0.511034
2.17962e-06
0.511033
2.13312e-06
0.511034
1.92977e-06
0.511034
1.94489e-06
0.511035
2.25165e-06
0.511035
2.4037e-06
0.511035
2.28825e-06
0.511036
2.06385e-06
0.511038
1.88735e-06
0.511038
1.93798e-06
0.511038
2.16088e-06
0.511038
2.31671e-06
0.511038
2.3608e-06
0.511037
2.34117e-06
0.511038
2.27736e-06
0.511038
2.27405e-06
0.511038
2.2221e-06
0.511038
2.16899e-06
0.511039
2.20832e-06
0.51104
2.08726e-06
0.511041
1.88201e-06
0.511041
1.91662e-06
0.511041
2.28222e-06
0.51104
2.63639e-06
0.511041
2.62353e-06
0.511041
2.55804e-06
0.511042
2.61509e-06
0.511042
2.51151e-06
0.511042
2.23029e-06
0.511042
2.02434e-06
0.511042
1.96017e-06
0.511042
2.02113e-06
0.511043
2.26444e-06
0.511043
2.38629e-06
0.511043
2.19289e-06
0.511043
1.96904e-06
0.511043
1.87039e-06
0.511044
1.90784e-06
0.511044
2.15368e-06
0.511045
2.49976e-06
0.511045
2.66403e-06
0.511044
2.59894e-06
0.511044
2.34348e-06
0.511044
1.94972e-06
0.511045
1.75452e-06
0.511046
1.86394e-06
0.511046
2.09459e-06
0.511046
2.23411e-06
0.511047
2.13946e-06
0.511047
1.9831e-06
0.511048
2.00554e-06
0.511048
2.15669e-06
0.511048
2.39294e-06
0.511047
2.58365e-06
0.511047
2.45086e-06
0.511047
2.23688e-06
0.511047
2.33422e-06
0.511048
2.55954e-06
0.511048
2.62836e-06
0.511048
2.54095e-06
0.511048
2.41751e-06
0.511048
2.36998e-06
0.511048
2.4133e-06
0.511049
2.4415e-06
0.511049
2.42022e-06
0.511049
2.41826e-06
0.511049
2.35443e-06
0.511049
2.32889e-06
0.51105
2.43243e-06
0.51105
2.37977e-06
0.511051
2.20282e-06
0.511051
2.16588e-06
0.511052
2.20809e-06
0.511052
2.17903e-06
0.511053
2.11112e-06
0.511053
2.06153e-06
0.511053
1.90995e-06
0.511053
1.69979e-06
0.511054
1.77675e-06
0.511054
2.14117e-06
0.511054
2.41024e-06
0.511054
2.4831e-06
0.511054
2.38924e-06
0.511054
2.02538e-06
0.511055
1.69217e-06
0.511057
1.75032e-06
0.511058
2.01386e-06
0.511058
2.26074e-06
0.511058
2.44688e-06
0.511058
2.39441e-06
0.511058
2.04467e-06
0.511058
1.78145e-06
0.511059
1.89056e-06
0.51106
2.12089e-06
0.51106
2.33375e-06
0.51106
2.60888e-06
0.51106
2.71539e-06
0.511059
2.53945e-06
0.511059
2.41458e-06
0.51106
2.41804e-06
0.511061
2.3123e-06
0.511061
2.20724e-06
0.511062
2.26885e-06
0.511062
2.35903e-06
0.511062
2.39745e-06
0.511062
2.43441e-06
0.511062
2.48672e-06
0.511062
2.51298e-06
0.511062
2.48166e-06
0.511062
2.46681e-06
0.511062
2.53081e-06
0.511062
2.52668e-06
0.511062
2.36348e-06
0.511062
2.19156e-06
0.511062
2.0493e-06
0.511064
1.99283e-06
0.511065
2.23944e-06
0.511066
2.67778e-06
0.511066
2.9781e-06
0.511065
2.93266e-06
0.511065
2.57123e-06
0.511065
2.22121e-06
0.511065
2.07201e-06
0.511066
2.11228e-06
0.511066
2.27936e-06
0.511067
2.32862e-06
0.511067
2.14785e-06
0.511067
1.98591e-06
0.511068
2.03073e-06
0.511069
2.16967e-06
0.511069
2.26401e-06
0.511068
2.22583e-06
0.511068
1.96739e-06
0.511069
1.64838e-06
0.51107
1.63021e-06
0.511071
1.91722e-06
0.511071
2.15018e-06
0.511071
2.23299e-06
0.511071
2.2605e-06
0.51107
2.21254e-06
0.51107
2.19049e-06
0.511071
2.35506e-06
0.511071
2.61766e-06
0.511071
2.72758e-06
0.51107
2.59109e-06
0.51107
2.3939e-06
0.51107
2.25438e-06
0.511071
2.18852e-06
0.511071
2.29936e-06
0.511071
2.51045e-06
0.511072
2.58179e-06
0.511072
2.48082e-06
0.511072
2.38636e-06
0.511072
2.40764e-06
0.511071
2.42747e-06
0.511071
2.30649e-06
0.511071
2.05984e-06
0.511071
1.79727e-06
0.511072
1.72832e-06
0.511073
2.01354e-06
0.511073
2.46488e-06
0.511073
2.70457e-06
0.511072
2.6388e-06
0.511072
2.50107e-06
0.511072
2.45459e-06
0.511072
2.45287e-06
0.511073
2.51006e-06
0.511073
2.6436e-06
0.511073
2.66843e-06
0.511073
2.56535e-06
0.511073
2.48234e-06
0.511073
2.28904e-06
0.511074
1.91124e-06
0.511075
1.70006e-06
0.511076
1.89212e-06
0.511077
2.19741e-06
0.511077
2.23818e-06
0.511077
2.10493e-06
0.511077
2.07519e-06
0.511078
2.07845e-06
0.511078
2.09294e-06
0.511079
2.26836e-06
0.511079
2.41347e-06
0.511079
2.41657e-06
0.511079
2.39496e-06
0.511079
2.39037e-06
2.42533e-06
0.51102
-2.07273e-07
0.51102
3.63124e-07
0.51102
1.34263e-06
0.511019
1.6717e-06
0.51102
1.3831e-06
0.51102
1.3543e-06
0.511021
1.19952e-06
0.511023
9.53248e-07
0.511024
1.25012e-06
0.511024
1.9557e-06
0.511024
2.33527e-06
0.511024
2.22212e-06
0.511025
1.91573e-06
0.511025
1.73374e-06
0.511025
1.93157e-06
0.511025
2.21498e-06
0.511024
2.24581e-06
0.511024
2.12755e-06
0.511024
1.85096e-06
0.511024
1.66162e-06
0.511024
2.06422e-06
0.511023
2.33197e-06
0.511024
1.88537e-06
0.511025
1.72359e-06
0.511026
1.89425e-06
0.511026
2.00982e-06
0.511026
2.17755e-06
0.511026
2.24708e-06
0.511026
2.10194e-06
0.511027
1.78517e-06
0.511027
1.94063e-06
0.511027
2.45222e-06
0.511027
2.5584e-06
0.511027
2.37382e-06
0.511027
1.98245e-06
0.511028
1.74397e-06
0.511028
2.15583e-06
0.511028
2.55967e-06
0.511028
2.41943e-06
0.511028
2.17315e-06
0.511028
2.03723e-06
0.511029
1.99452e-06
0.511029
2.25962e-06
0.511029
2.65778e-06
0.511029
2.62121e-06
0.511029
2.10473e-06
0.51103
1.5576e-06
0.51103
1.31707e-06
0.511031
1.40997e-06
0.511032
1.95987e-06
0.511032
2.59694e-06
0.511031
2.60614e-06
0.511032
2.23986e-06
0.511032
1.8957e-06
0.511032
1.69829e-06
0.511032
1.8353e-06
0.511032
2.12326e-06
0.511032
2.3847e-06
0.511033
2.439e-06
0.511033
2.18553e-06
0.511034
1.83207e-06
0.511035
1.56115e-06
0.511035
1.6266e-06
0.511036
1.9504e-06
0.511036
2.09277e-06
0.511036
1.98755e-06
0.511036
1.97113e-06
0.511036
2.11532e-06
0.511036
2.15697e-06
0.511036
2.13129e-06
0.511036
2.10016e-06
0.511036
1.93939e-06
0.511036
1.76498e-06
0.511037
1.71406e-06
0.511037
1.72171e-06
0.511038
1.76226e-06
0.511038
1.96024e-06
0.511038
2.26674e-06
0.511038
2.60653e-06
0.511037
2.72305e-06
0.511037
2.35204e-06
0.511038
1.83554e-06
0.511038
1.54347e-06
0.511039
1.57407e-06
0.511039
1.89479e-06
0.511038
2.33741e-06
0.511039
2.60821e-06
0.511039
2.46674e-06
0.511039
2.23807e-06
0.511039
2.1279e-06
0.51104
1.90255e-06
0.511041
1.69832e-06
0.511041
1.64632e-06
0.511041
1.5358e-06
0.511042
1.40526e-06
0.511043
1.46246e-06
0.511044
1.64413e-06
0.511044
1.87926e-06
0.511044
2.06043e-06
0.511044
2.05803e-06
0.511044
1.99146e-06
0.511044
1.92559e-06
0.511044
1.90216e-06
0.511045
1.94825e-06
0.511046
1.92834e-06
0.511046
1.92578e-06
0.511046
2.03386e-06
0.511046
2.12799e-06
0.511045
2.16087e-06
0.511045
2.11451e-06
0.511046
1.91392e-06
0.511046
1.70671e-06
0.511046
1.72621e-06
0.511047
1.84976e-06
0.511047
1.89193e-06
0.511047
1.95712e-06
0.511048
2.17988e-06
0.511048
2.46054e-06
0.511047
2.52158e-06
0.511047
2.36565e-06
0.511048
2.24149e-06
0.511048
2.15636e-06
0.511049
2.00384e-06
0.511049
1.98388e-06
0.511049
2.07598e-06
0.51105
2.06229e-06
0.51105
2.04113e-06
0.511051
2.01841e-06
0.511051
2.01679e-06
0.511051
2.07185e-06
0.511051
2.06195e-06
0.511052
2.15413e-06
0.511052
2.34991e-06
0.511052
2.35335e-06
0.511052
2.20632e-06
0.511052
2.06898e-06
0.511052
1.80935e-06
0.511053
1.48578e-06
0.511053
1.48908e-06
0.511053
1.81955e-06
0.511053
2.07365e-06
0.511053
2.09338e-06
0.511053
1.97791e-06
0.511053
1.82853e-06
0.511054
1.77936e-06
0.511055
1.99237e-06
0.511054
2.3059e-06
0.511054
2.38724e-06
0.511053
2.18306e-06
0.511053
1.86099e-06
0.511054
1.60013e-06
0.511055
1.57523e-06
0.511055
1.83945e-06
0.511055
2.12985e-06
0.511055
2.177e-06
0.511055
2.12884e-06
0.511055
2.0625e-06
0.511055
1.91545e-06
0.511056
1.90643e-06
0.511056
2.11007e-06
0.511057
2.28311e-06
0.511057
2.3622e-06
0.511057
2.44035e-06
0.511057
2.40943e-06
0.511057
2.18655e-06
0.511057
1.94195e-06
0.511058
1.81705e-06
0.511058
1.81563e-06
0.511059
1.93196e-06
0.511059
2.11881e-06
0.511059
2.21101e-06
0.51106
2.09851e-06
0.51106
1.90744e-06
0.511061
1.90176e-06
0.511061
2.14347e-06
0.511061
2.39745e-06
0.511061
2.56377e-06
0.51106
2.65593e-06
0.51106
2.52847e-06
0.51106
2.27483e-06
0.51106
2.1509e-06
0.511061
2.17545e-06
0.511062
2.27775e-06
0.511062
2.34731e-06
0.511062
2.35241e-06
0.511061
2.33919e-06
0.511061
2.24797e-06
0.511061
2.1205e-06
0.511062
2.04928e-06
0.511062
1.95181e-06
0.511062
1.77781e-06
0.511063
1.68856e-06
0.511063
1.71473e-06
0.511063
1.75433e-06
0.511064
1.88298e-06
0.511064
2.03176e-06
0.511063
1.92463e-06
0.511063
1.64249e-06
0.511064
1.48817e-06
0.511065
1.50824e-06
0.511065
1.65727e-06
0.511065
1.90525e-06
0.511066
2.10201e-06
0.511066
2.16347e-06
0.511066
2.15705e-06
0.511066
2.18993e-06
0.511067
2.27622e-06
0.511067
2.26041e-06
0.511067
2.15341e-06
0.511067
2.10834e-06
0.511068
2.07234e-06
0.511068
2.01091e-06
0.511068
1.98176e-06
0.511069
1.91519e-06
0.51107
1.75775e-06
0.511071
1.59064e-06
0.511071
1.51093e-06
0.511072
1.54204e-06
0.511073
1.69095e-06
0.511073
1.90774e-06
0.511073
1.98776e-06
0.511073
1.83933e-06
0.511073
1.67944e-06
0.511074
1.71763e-06
0.511075
1.89929e-06
0.511075
2.06968e-06
0.511076
2.23917e-06
0.511075
2.48459e-06
0.511075
2.69891e-06
0.511075
2.72948e-06
0.511075
2.56948e-06
0.511075
2.29896e-06
0.511076
2.05898e-06
0.511076
2.00701e-06
0.511077
2.09015e-06
0.511076
2.05213e-06
0.511076
1.90118e-06
0.511076
1.94111e-06
0.511076
2.08531e-06
0.511077
2.03065e-06
0.511077
1.89523e-06
0.511077
1.81187e-06
0.511077
1.74102e-06
0.511078
1.7828e-06
0.511078
1.95149e-06
0.511078
2.13557e-06
0.511078
2.24826e-06
0.511079
2.18461e-06
0.511079
2.10076e-06
2.10007e-06
0.51102
-2.44963e-07
0.51102
4.72408e-07
0.51102
1.29126e-06
0.51102
1.05178e-06
0.511021
8.20418e-07
0.511021
1.22803e-06
0.51102
1.63824e-06
0.51102
1.74776e-06
0.511019
1.59416e-06
0.51102
1.66005e-06
0.51102
2.03584e-06
0.51102
1.84388e-06
0.511021
1.3499e-06
0.511021
1.17104e-06
0.511022
1.25294e-06
0.511023
1.55346e-06
0.511023
1.61349e-06
0.511024
1.29431e-06
0.511024
1.76268e-06
0.511023
2.71185e-06
0.511023
2.27113e-06
0.511024
1.35284e-06
0.511025
1.39392e-06
0.511024
1.80598e-06
0.511024
2.06206e-06
0.511024
2.16304e-06
0.511024
2.01892e-06
0.511025
1.48933e-06
0.511026
1.23321e-06
0.511026
1.59458e-06
0.511026
1.87993e-06
0.511027
1.96829e-06
0.511027
1.98563e-06
0.511028
1.72817e-06
0.511028
1.64659e-06
0.511028
1.99466e-06
0.511028
2.44364e-06
0.511028
2.61147e-06
0.511028
2.09118e-06
0.511029
1.45087e-06
0.511029
1.6021e-06
0.511029
2.18433e-06
0.511029
2.50907e-06
0.511029
2.37772e-06
0.51103
1.87425e-06
0.51103
1.49643e-06
0.51103
1.47101e-06
0.51103
1.63484e-06
0.51103
1.76776e-06
0.51103
1.78336e-06
0.511031
1.87602e-06
0.511031
1.79945e-06
0.511032
1.448e-06
0.511033
1.30156e-06
0.511033
1.37391e-06
0.511033
1.70566e-06
0.511033
2.27918e-06
0.511033
2.44534e-06
0.511033
2.13673e-06
0.511034
1.94896e-06
0.511034
1.92436e-06
0.511033
1.87792e-06
0.511033
1.79993e-06
0.511034
1.46517e-06
0.511034
1.1716e-06
0.511035
1.35361e-06
0.511035
1.75164e-06
0.511035
2.14765e-06
0.511035
2.25032e-06
0.511035
1.87402e-06
0.511036
1.4782e-06
0.511037
1.44488e-06
0.511037
1.55716e-06
0.511037
1.52934e-06
0.511037
1.51713e-06
0.511037
1.60391e-06
0.511038
1.72627e-06
0.511038
1.9466e-06
0.511038
2.18276e-06
0.511039
2.23581e-06
0.511039
1.96876e-06
0.511039
1.59491e-06
0.511039
1.46636e-06
0.511039
1.61272e-06
0.511039
1.86021e-06
0.51104
2.10468e-06
0.51104
2.39236e-06
0.51104
2.53749e-06
0.51104
2.42611e-06
0.51104
2.12674e-06
0.51104
1.61819e-06
0.51104
1.16882e-06
0.511041
1.07556e-06
0.511041
1.29137e-06
0.511041
1.53401e-06
0.511041
1.47307e-06
0.511042
1.23882e-06
0.511042
1.21285e-06
0.511043
1.50633e-06
0.511043
1.88161e-06
0.511043
2.03581e-06
0.511043
1.81474e-06
0.511043
1.56063e-06
0.511044
1.63337e-06
0.511044
1.78729e-06
0.511044
1.77026e-06
0.511044
1.57735e-06
0.511045
1.29993e-06
0.511046
1.30419e-06
0.511047
1.67083e-06
0.511047
1.95789e-06
0.511046
1.85236e-06
0.511046
1.59162e-06
0.511047
1.4399e-06
0.511047
1.4833e-06
0.511048
1.62928e-06
0.511048
1.77897e-06
0.511049
1.99031e-06
0.511049
2.20298e-06
0.511049
2.2473e-06
0.511049
2.1666e-06
0.511049
2.05247e-06
0.511049
1.91943e-06
0.511049
1.95507e-06
0.511049
2.18179e-06
0.511049
2.26632e-06
0.511049
2.11826e-06
0.511049
1.93354e-06
0.511049
1.97842e-06
0.511049
2.19456e-06
0.511049
2.16418e-06
0.511049
1.98625e-06
0.511049
1.91227e-06
0.51105
1.86001e-06
0.51105
1.78537e-06
0.511051
1.72099e-06
0.511051
1.60092e-06
0.511051
1.30998e-06
0.511051
1.08149e-06
0.511052
1.19521e-06
0.511053
1.32945e-06
0.511054
1.28041e-06
0.511054
1.36822e-06
0.511054
1.57389e-06
0.511055
1.6378e-06
0.511055
1.69047e-06
0.511055
1.75338e-06
0.511056
1.66112e-06
0.511057
1.63739e-06
0.511057
1.74066e-06
0.511057
1.69331e-06
0.511057
1.51856e-06
0.511057
1.51392e-06
0.511058
1.68948e-06
0.511058
1.81406e-06
0.511058
1.92081e-06
0.511058
2.05429e-06
0.511058
2.03808e-06
0.511058
1.99308e-06
0.511058
2.11649e-06
0.511058
2.18731e-06
0.511058
2.02678e-06
0.511059
1.91321e-06
0.511059
2.05076e-06
0.511059
2.20244e-06
0.511059
2.21818e-06
0.511059
2.12413e-06
0.511059
1.93753e-06
0.511059
1.83041e-06
0.511059
1.92455e-06
0.511059
2.07402e-06
0.511059
2.06692e-06
0.511059
1.81114e-06
0.511059
1.52579e-06
0.51106
1.56117e-06
0.511061
1.84738e-06
0.511061
2.09778e-06
0.511061
2.30678e-06
0.511062
2.42531e-06
0.511061
2.34882e-06
0.511061
2.20895e-06
0.511061
2.12689e-06
0.511062
2.09791e-06
0.511062
2.04742e-06
0.511062
1.95028e-06
0.511063
1.85735e-06
0.511063
1.74578e-06
0.511064
1.68034e-06
0.511064
1.76725e-06
0.511064
1.84296e-06
0.511064
1.70933e-06
0.511064
1.47813e-06
0.511065
1.38535e-06
0.511065
1.37522e-06
0.511066
1.40676e-06
0.511066
1.55546e-06
0.511066
1.60504e-06
0.511067
1.41879e-06
0.511067
1.29325e-06
0.511067
1.35915e-06
0.511067
1.44628e-06
0.511068
1.5735e-06
0.511068
1.76424e-06
0.511068
1.84333e-06
0.511069
1.76685e-06
0.511069
1.72337e-06
0.511069
1.84701e-06
0.51107
1.97144e-06
0.51107
1.94084e-06
0.51107
1.86215e-06
0.51107
1.77238e-06
0.511071
1.631e-06
0.511071
1.53199e-06
0.511072
1.55377e-06
0.511072
1.63013e-06
0.511072
1.59109e-06
0.511072
1.3983e-06
0.511072
1.23449e-06
0.511073
1.23826e-06
0.511073
1.44701e-06
0.511073
1.7564e-06
0.511073
1.89667e-06
0.511073
1.80113e-06
0.511073
1.76071e-06
0.511073
1.98561e-06
0.511073
2.29715e-06
0.511073
2.44916e-06
0.511073
2.48549e-06
0.511073
2.47808e-06
0.511073
2.36439e-06
0.511074
2.2268e-06
0.511074
2.18286e-06
0.511074
2.101e-06
0.511074
1.90655e-06
0.511074
1.80905e-06
0.511074
1.88908e-06
0.511074
1.94252e-06
0.511074
1.89942e-06
0.511074
1.8374e-06
0.511075
1.79454e-06
0.511075
1.75801e-06
0.511075
1.72153e-06
0.511075
1.71902e-06
0.511075
1.63903e-06
0.511075
1.52688e-06
0.511076
1.60187e-06
0.511076
1.77385e-06
0.511077
1.86713e-06
0.511077
1.78662e-06
1.71939e-06
0.511019
5.23905e-07
0.511019
6.45842e-07
0.51102
4.05912e-07
0.51102
5.00395e-07
0.51102
8.64927e-07
0.51102
9.08624e-07
0.511021
1.09791e-06
0.511021
1.38042e-06
0.511021
1.65154e-06
0.511021
1.57412e-06
0.511022
1.3185e-06
0.511023
1.27911e-06
0.511023
1.25641e-06
0.511023
1.32267e-06
0.511022
1.43607e-06
0.511023
9.93296e-07
0.511024
6.24372e-07
0.511024
1.28515e-06
0.511024
1.65037e-06
0.511026
1.26419e-06
0.511027
1.29895e-06
0.511027
1.36596e-06
0.511027
1.15272e-06
0.511027
1.3943e-06
0.511027
1.90207e-06
0.511027
2.08011e-06
0.511028
1.80404e-06
0.511028
1.38319e-06
0.511028
1.38167e-06
0.511027
1.81386e-06
0.511027
2.09137e-06
0.511027
1.91337e-06
0.511028
1.59876e-06
0.511028
1.53361e-06
0.511028
1.74663e-06
0.511028
1.92825e-06
0.511028
1.88633e-06
0.511029
1.6334e-06
0.51103
1.36821e-06
0.51103
1.30922e-06
0.51103
1.45709e-06
0.511031
1.68316e-06
0.511031
1.99225e-06
0.511032
2.16307e-06
0.511032
1.80016e-06
0.511032
1.36773e-06
0.511032
1.36396e-06
0.511032
1.49826e-06
0.511032
1.75482e-06
0.511032
2.05221e-06
0.511032
1.96597e-06
0.511032
1.57057e-06
0.511032
1.29518e-06
0.511032
1.36319e-06
0.511032
1.70246e-06
0.511031
2.03453e-06
0.511031
2.09407e-06
0.511032
2.03329e-06
0.511032
1.85074e-06
0.511033
1.46135e-06
0.511033
1.32069e-06
0.511034
1.43476e-06
0.511034
1.46911e-06
0.511034
1.55756e-06
0.511033
1.69591e-06
0.511033
1.65524e-06
0.511033
1.40751e-06
0.511034
1.23508e-06
0.511035
1.32314e-06
0.511036
1.63335e-06
0.511035
1.86002e-06
0.511035
1.66148e-06
0.511035
1.27724e-06
0.511036
1.05734e-06
0.511036
1.08484e-06
0.511036
1.40633e-06
0.511036
1.83707e-06
0.511036
1.93758e-06
0.511037
1.67157e-06
0.511038
1.37846e-06
0.511039
1.0733e-06
0.511039
9.38425e-07
0.511039
1.29353e-06
0.511039
1.75665e-06
0.511039
1.90813e-06
0.511039
1.79236e-06
0.51104
1.84719e-06
0.51104
2.05246e-06
0.511041
1.92596e-06
0.511041
1.62471e-06
0.511042
1.43906e-06
0.511042
1.30996e-06
0.511041
1.32903e-06
0.511041
1.43679e-06
0.511041
1.35939e-06
0.511042
1.16237e-06
0.511042
1.07995e-06
0.511042
1.10208e-06
0.511042
1.22701e-06
0.511043
1.48166e-06
0.511043
1.75988e-06
0.511043
1.82037e-06
0.511043
1.58403e-06
0.511043
1.25172e-06
0.511044
1.04839e-06
0.511045
1.12401e-06
0.511045
1.43062e-06
0.511044
1.5822e-06
0.511044
1.36812e-06
0.511045
1.02504e-06
0.511046
9.18233e-07
0.511047
1.0999e-06
0.511047
1.37193e-06
0.511047
1.55208e-06
0.511047
1.57542e-06
0.511047
1.52825e-06
0.511047
1.55407e-06
0.511047
1.73543e-06
0.511048
1.97871e-06
0.511048
2.06089e-06
0.511048
1.93352e-06
0.511048
1.78267e-06
0.511049
1.66273e-06
0.511049
1.58512e-06
0.511049
1.70936e-06
0.51105
1.93043e-06
0.51105
2.05392e-06
0.51105
1.95938e-06
0.51105
1.70603e-06
0.511051
1.6526e-06
0.511051
1.78978e-06
0.511051
1.91766e-06
0.511051
2.03235e-06
0.511051
1.94649e-06
0.511051
1.56978e-06
0.511052
1.16121e-06
0.511052
9.34986e-07
0.511053
8.31601e-07
0.511053
8.55699e-07
0.511053
1.12215e-06
0.511053
1.38079e-06
0.511053
1.35357e-06
0.511053
1.1909e-06
0.511054
1.09575e-06
0.511054
1.12149e-06
0.511054
1.35525e-06
0.511055
1.67689e-06
0.511054
1.72463e-06