/*--------------------------------*- C++ -*----------------------------------*\
| =========                 |                                                 |
| \\      /  F ield         | OpenFOAM: The Open Source CFD Toolbox           |
|  \\    /   O peration     | Version:  2406                                  |
|   \\  /    A nd           | Website:  www.openfoam.com                      |
|    \\/     M anipulation  |                                                 |
\*---------------------------------------------------------------------------*/
FoamFile
{
    version     2.0;
    format      ascii;
    arch        "LSB;label=32;scalar=64";
    class       surfaceScalarField;
    location    "1.6";
    object      phi;
}
// * * * * * * * * * * * * * * * * * * * * * * * * * * * * * * * * * * * * * //

dimensions      [0 3 -1 0 0 0 0];

oriented        oriented;

internalField   nonuniform List<scalar> 
12225
(
0.511016
1.58184e-06
0.511011
5.4717e-06
0.511004
7.01305e-06
0.510998
5.78312e-06
0.510993
4.45032e-06
0.510989
4.51712e-06
0.510983
5.42386e-06
0.510978
5.32062e-06
0.510973
5.16001e-06
0.510967
5.65157e-06
0.510962
5.40269e-06
0.510957
5.19244e-06
0.510951
5.56811e-06
0.510945
5.73771e-06
0.51094
5.69806e-06
0.510934
5.72835e-06
0.510928
5.7804e-06
0.510922
5.87732e-06
0.510916
5.92096e-06
0.510911
5.57401e-06
0.510906
5.2217e-06
0.5109
5.32203e-06
0.510895
5.29325e-06
0.51089
5.00459e-06
0.510885
5.12622e-06
0.510879
5.49481e-06
0.510874
5.76511e-06
0.510868
6.04197e-06
0.510862
5.91495e-06
0.510856
5.50497e-06
0.510851
5.27931e-06
0.510846
5.08443e-06
0.510841
5.0061e-06
0.510835
5.22924e-06
0.51083
5.4781e-06
0.510824
5.62493e-06
0.510819
5.69049e-06
0.510813
5.42982e-06
0.510808
4.92954e-06
0.510804
4.77815e-06
0.510798
5.23476e-06
0.510792
5.93302e-06
0.510786
6.13413e-06
0.510781
5.7489e-06
0.510775
5.47696e-06
0.51077
5.25662e-06
0.510765
4.97522e-06
0.51076
5.14215e-06
0.510754
5.42628e-06
0.510749
5.36153e-06
0.510743
5.38979e-06
0.510738
5.48972e-06
0.510733
5.40193e-06
0.510727
5.54142e-06
0.510721
5.64085e-06
0.510716
5.4219e-06
0.51071
5.56124e-06
0.510705
5.91774e-06
0.510699
5.91952e-06
0.510693
5.54277e-06
0.510688
5.05649e-06
0.510683
5.14904e-06
0.510677
5.67249e-06
0.510671
5.78238e-06
0.510666
5.66358e-06
0.51066
5.62884e-06
0.510654
5.66837e-06
0.510649
5.88952e-06
0.510643
5.8605e-06
0.510637
5.61979e-06
0.510631
5.57823e-06
0.510626
5.50827e-06
0.510621
5.45715e-06
0.510615
5.40941e-06
0.51061
5.21268e-06
0.510605
5.11332e-06
0.5106
5.15643e-06
0.510594
5.27584e-06
0.510589
5.38027e-06
0.510584
5.44462e-06
0.510578
5.53967e-06
0.510572
5.50541e-06
0.510567
5.24747e-06
0.510562
4.98933e-06
0.510557
4.9052e-06
0.510552
5.00319e-06
0.510547
5.30116e-06
0.510541
5.69867e-06
0.510536
5.82e-06
0.51053
5.44673e-06
0.510525
4.94549e-06
0.51052
4.90909e-06
0.510515
5.35584e-06
0.510509
5.88227e-06
0.510503
6.22117e-06
0.510497
6.09488e-06
0.510491
5.50885e-06
0.510486
5.03802e-06
0.510481
4.97406e-06
0.510476
5.1072e-06
0.510471
5.35991e-06
0.510465
5.68022e-06
0.510459
5.74818e-06
0.510454
5.59053e-06
0.510448
5.57655e-06
0.510442
5.61252e-06
0.510437
5.54755e-06
0.510431
5.48591e-06
0.510426
5.43109e-06
0.51042
5.49453e-06
0.510415
5.70059e-06
0.510409
5.76981e-06
0.510403
5.6601e-06
0.510398
5.54955e-06
0.510392
5.44057e-06
0.510387
5.38442e-06
0.510381
5.54043e-06
0.510376
5.80275e-06
0.51037
5.91918e-06
0.510364
5.82933e-06
0.510358
5.62584e-06
0.510353
5.32624e-06
0.510348
5.11387e-06
0.510343
5.16757e-06
0.510337
5.25509e-06
0.510332
5.36004e-06
0.510326
5.57293e-06
0.510321
5.67232e-06
0.510315
5.62107e-06
0.51031
5.55392e-06
0.510304
5.53591e-06
0.510299
5.47823e-06
0.510293
5.27e-06
0.510288
5.13245e-06
0.510283
5.193e-06
0.510278
5.29565e-06
0.510272
5.47628e-06
0.510267
5.64454e-06
0.510261
5.48321e-06
0.510256
5.08567e-06
0.510251
4.88745e-06
0.510246
5.05978e-06
0.510241
5.3178e-06
0.510235
5.55539e-06
0.510229
5.81177e-06
0.510224
5.78459e-06
0.510218
5.59508e-06
0.510212
5.61882e-06
0.510207
5.66171e-06
0.510201
5.61923e-06
0.510196
5.6253e-06
0.51019
5.5332e-06
0.510185
5.26569e-06
0.51018
5.07881e-06
0.510174
5.12992e-06
0.510169
5.29406e-06
0.510164
5.39059e-06
0.510158
5.46668e-06
0.510153
5.65448e-06
0.510147
5.77774e-06
0.510141
5.81511e-06
0.510135
5.85397e-06
0.510129
5.75963e-06
0.510124
5.62855e-06
0.510118
5.572e-06
0.510113
5.48727e-06
0.510107
5.33608e-06
0.510102
5.17142e-06
0.510097
5.1251e-06
0.510092
5.23043e-06
0.510086
5.43282e-06
0.510081
5.61284e-06
0.510075
5.61933e-06
0.51007
5.482e-06
0.510065
5.26868e-06
0.510059
5.10348e-06
0.510054
5.15449e-06
0.510049
5.29013e-06
0.510044
5.28442e-06
0.510039
5.14666e-06
0.510034
4.96137e-06
0.510029
4.82354e-06
0.510024
4.94097e-06
0.510018
5.33593e-06
0.510013
5.6744e-06
0.510007
5.7341e-06
0.510001
5.65564e-06
0.509996
5.53986e-06
0.50999
5.37353e-06
0.509985
5.38333e-06
0.50998
5.59706e-06
0.509974
5.58104e-06
0.509969
5.30249e-06
0.509963
5.16344e-06
0.509958
5.27797e-06
0.509953
5.43629e-06
0.509947
5.45706e-06
0.509942
5.32417e-06
0.509937
5.04893e-06
0.509932
4.79347e-06
0.509927
4.8495e-06
0.509922
5.19595e-06
0.509917
5.57827e-06
0.509911
5.7959e-06
0.509905
5.76015e-06
0.509899
5.5125e-06
0.509894
5.19544e-06
0.509889
5.12604e-06
0.509884
5.39967e-06
0.509878
5.59081e-06
0.509873
5.49117e-06
0.509867
5.34002e-06
0.509862
5.26702e-06
0.509857
5.31752e-06
0.509851
5.50673e-06
0.509846
5.66089e-06
0.50984
5.63248e-06
0.509834
5.45774e-06
0.509829
5.36287e-06
0.509824
5.50504e-06
0.509818
5.6288e-06
0.509812
5.56313e-06
0.509807
5.51496e-06
0.509801
5.47929e-06
0.509796
5.33273e-06
0.509791
5.30204e-06
0.509785
5.44434e-06
0.50978
5.4046e-06
0.509775
5.16794e-06
0.50977
5.096e-06
0.509764
5.18867e-06
0.509759
5.32637e-06
0.509754
5.57396e-06
0.509748
5.80398e-06
0.509742
5.81336e-06
0.509736
5.56112e-06
0.509731
5.15833e-06
0.509726
4.85468e-06
0.509722
4.73062e-06
0.509717
4.82171e-06
0.509712
5.16593e-06
0.509706
5.34896e-06
0.509701
5.10145e-06
0.509696
4.90722e-06
0.509691
5.0683e-06
0.509686
5.36857e-06
0.50968
5.6882e-06
0.509674
5.92626e-06
0.509668
6.51757e-06
5.86301e-06
0.511022
-2.05667e-07
0.511026
9.80763e-07
0.511031
2.14288e-06
0.511035
2.1868e-06
0.511037
1.98859e-06
0.511039
2.4116e-06
0.511042
2.63725e-06
0.511045
2.55181e-06
0.511048
2.5477e-06
0.511051
2.55999e-06
0.511054
2.24354e-06
0.511057
1.89145e-06
0.51106
2.24104e-06
0.511063
2.74238e-06
0.511067
2.55575e-06
0.51107
2.06439e-06
0.511074
2.12469e-06
0.511077
2.35855e-06
0.511081
2.12028e-06
0.511085
1.98135e-06
0.511088
2.40125e-06
0.51109
2.64888e-06
0.511093
2.57567e-06
0.511095
2.64228e-06
0.511098
2.66931e-06
0.511101
2.56289e-06
0.511104
2.33902e-06
0.511108
2.41462e-06
0.511111
2.80493e-06
0.511114
2.9016e-06
0.511116
2.62824e-06
0.511119
2.37878e-06
0.511122
2.23199e-06
0.511125
2.1516e-06
0.511128
2.24937e-06
0.511131
2.63439e-06
0.511134
2.99795e-06
0.511136
2.88343e-06
0.511139
2.64975e-06
0.51114
2.86663e-06
0.511143
3.06856e-06
0.511146
2.73114e-06
0.51115
2.20981e-06
0.511154
1.87264e-06
0.511157
2.06799e-06
0.511159
2.78374e-06
0.511161
3.14698e-06
0.511164
2.85568e-06
0.511167
2.43858e-06
0.51117
2.07756e-06
0.511173
1.92255e-06
0.511176
2.43398e-06
0.511179
3.17807e-06
0.511181
3.26643e-06
0.511184
2.73678e-06
0.511187
2.16226e-06
0.511191
2.01087e-06
0.511194
2.24839e-06
0.511198
2.62513e-06
0.5112
3.08868e-06
0.511202
3.16104e-06
0.511204
2.74013e-06
0.511208
2.3994e-06
0.511211
2.06903e-06
0.511215
1.86549e-06
0.511219
2.16299e-06
0.511222
2.26356e-06
0.511226
2.15234e-06
0.511229
2.48271e-06
0.511232
2.75006e-06
0.511235
2.80389e-06
0.511237
3.01736e-06
0.51124
3.00397e-06
0.511242
2.62071e-06
0.511245
2.27035e-06
0.511248
2.06418e-06
0.511252
1.95026e-06
0.511255
2.06823e-06
0.511258
2.2834e-06
0.511261
2.31447e-06
0.511264
2.50757e-06
0.511267
2.95231e-06
0.511269
3.07809e-06
0.511271
2.77118e-06
0.511273
2.46295e-06
0.511276
2.19763e-06
0.51128
1.96929e-06
0.511283
2.23242e-06
0.511286
2.87442e-06
0.511288
3.26497e-06
0.51129
3.25024e-06
0.511292
2.91748e-06
0.511295
2.37408e-06
0.511299
1.94992e-06
0.511303
1.96875e-06
0.511307
2.25457e-06
0.51131
2.41445e-06
0.511313
2.35735e-06
0.511315
2.24018e-06
0.511318
2.27861e-06
0.511321
2.49631e-06
0.511324
2.7418e-06
0.511327
2.85382e-06
0.51133
2.59747e-06
0.511333
2.1312e-06
0.511337
1.9076e-06
0.511341
2.03836e-06
0.511344
2.39197e-06
0.511346
2.74094e-06
0.511349
2.79413e-06
0.511352
2.50811e-06
0.511356
2.28807e-06
0.511359
2.44238e-06
0.511362
2.69897e-06
0.511365
2.64905e-06
0.511368
2.29817e-06
0.511371
1.92037e-06
0.511375
1.75712e-06
0.511379
2.01819e-06
0.511383
2.53392e-06
0.511385
2.9191e-06
0.511388
3.06616e-06
0.51139
2.94736e-06
0.511392
2.57515e-06
0.511395
2.24319e-06
0.511398
2.24149e-06
0.511402
2.45214e-06
0.511405
2.66954e-06
0.511407
2.86717e-06
0.51141
2.83902e-06
0.511413
2.6534e-06
0.511416
2.66509e-06
0.511418
2.68518e-06
0.511421
2.58384e-06
0.511423
2.63228e-06
0.511426
2.71106e-06
0.511429
2.61126e-06
0.511432
2.51165e-06
0.511435
2.44891e-06
0.511438
2.27001e-06
0.511441
2.06878e-06
0.511444
2.17131e-06
0.511446
2.48981e-06
0.511449
2.56543e-06
0.511453
2.50076e-06
0.511456
2.4698e-06
0.511459
2.29989e-06
0.511463
2.319e-06
0.511466
2.70158e-06
0.511468
2.93533e-06
0.511471
2.8623e-06
0.511474
2.67216e-06
0.511477
2.32251e-06
0.51148
2.02149e-06
0.511483
2.1194e-06
0.511486
2.50858e-06
0.511488
2.8537e-06
0.511491
2.91887e-06
0.511494
2.73885e-06
0.511497
2.46429e-06
0.511501
2.22741e-06
0.511504
2.25818e-06
0.511507
2.53039e-06
0.51151
2.75127e-06
0.511513
2.83074e-06
0.511516
2.85763e-06
0.511518
2.81784e-06
0.511521
2.69434e-06
0.511523
2.614e-06
0.511526
2.55922e-06
0.511529
2.4752e-06
0.511532
2.49317e-06
0.511535
2.5653e-06
0.511538
2.61351e-06
0.51154
2.5944e-06
0.511543
2.35014e-06
0.511546
2.05508e-06
0.51155
2.1063e-06
0.511552
2.53547e-06
0.511554
3.08269e-06
0.511556
3.44077e-06
0.511557
3.3223e-06
0.51156
2.79679e-06
0.511562
2.34569e-06
0.511566
2.30734e-06
0.511569
2.53313e-06
0.511572
2.76691e-06
0.511575
2.87921e-06
0.511577
2.71564e-06
0.51158
2.35698e-06
0.511584
2.26589e-06
0.511587
2.50305e-06
0.511589
2.6404e-06
0.511592
2.49938e-06
0.511595
2.25841e-06
0.511598
2.06665e-06
0.511602
2.00821e-06
0.511605
2.25843e-06
0.511607
2.68352e-06
0.511609
2.7952e-06
0.511612
2.53961e-06
0.511615
2.20301e-06
0.511618
1.98837e-06
0.511622
2.00665e-06
0.511626
2.23264e-06
0.511629
2.49646e-06
0.511631
2.52825e-06
0.511634
2.33737e-06
0.511637
2.33663e-06
0.51164
2.58749e-06
0.511643
2.7088e-06
0.511646
2.65972e-06
0.511648
2.60912e-06
0.511651
2.54084e-06
0.511654
2.47117e-06
0.511657
2.46657e-06
0.51166
2.53212e-06
0.511663
2.55168e-06
0.511666
2.32163e-06
0.51167
1.94206e-06
0.511674
1.74296e-06
0.511677
1.88637e-06
0.511681
2.35471e-06
0.511683
2.84893e-06
0.511686
2.92514e-06
0.511688
2.58887e-06
0.511691
2.27957e-06
0.511695
2.28763e-06
0.511697
2.48382e-06
0.5117
2.66854e-06
0.511702
2.78898e-06
0.511705
2.75563e-06
0.511708
2.58032e-06
0.511711
2.4753e-06
0.511714
2.5308e-06
0.511717
2.68795e-06
0.511719
2.90246e-06
0.511721
3.05875e-06
0.511723
2.92561e-06
0.511725
2.50512e-06
0.511728
2.20274e-06
0.511731
2.26386e-06
0.511734
2.45561e-06
0.511736
2.541e-06
0.511739
2.61911e-06
0.511741
2.71158e-06
0.511744
2.66176e-06
0.511748
2.46136e-06
0.511752
2.42554e-06
2.82508e-06
0.51102
5.2414e-07
0.511019
1.29217e-06
0.51102
1.23102e-06
0.511021
1.15211e-06
0.511022
1.74373e-06
0.511022
1.77159e-06
0.511023
1.6661e-06
0.511023
2.29043e-06
0.511023
2.63833e-06
0.511023
2.40581e-06
0.511023
2.27432e-06
0.511023
2.26758e-06
0.511023
2.32096e-06
0.511023
2.28917e-06
0.511024
2.13762e-06
0.511024
2.13154e-06
0.511024
2.21136e-06
0.511024
2.05866e-06
0.511024
1.68714e-06
0.511025
1.35844e-06
0.511026
1.36851e-06
0.511027
1.88559e-06
0.511027
2.47406e-06
0.511027
2.77816e-06
0.511027
2.47278e-06
0.511028
1.87526e-06
0.511028
2.02813e-06
0.511028
2.64465e-06
0.511028
2.7256e-06
0.511028
2.32552e-06
0.511029
2.06587e-06
0.511029
2.11487e-06
0.511029
2.42607e-06
0.511029
2.60647e-06
0.511028
2.41708e-06
0.511029
2.43803e-06
0.511029
2.42393e-06
0.51103
2.11937e-06
0.51103
2.21704e-06
0.511031
2.53495e-06
0.511031
2.63619e-06
0.511031
2.61034e-06
0.511031
2.44436e-06
0.511031
2.32003e-06
0.51103
2.4307e-06
0.511031
2.48583e-06
0.511031
2.33535e-06
0.511032
2.16437e-06
0.511032
2.04648e-06
0.511032
2.21043e-06
0.511032
2.47517e-06
0.511032
2.42728e-06
0.511033
2.31962e-06
0.511034
2.25217e-06
0.511034
2.16866e-06
0.511034
2.09334e-06
0.511034
1.9682e-06
0.511035
2.04602e-06
0.511035
2.34008e-06
0.511035
2.65048e-06
0.511035
2.97294e-06
0.511035
2.9111e-06
0.511035
2.45669e-06
0.511035
2.30349e-06
0.511035
2.24273e-06
0.511035
1.90116e-06
0.511035
1.89427e-06
0.511035
2.27902e-06
0.511035
2.4703e-06
0.511036
2.31842e-06
0.511036
1.93086e-06
0.511038
1.67519e-06
0.511039
1.82779e-06
0.511039
2.15645e-06
0.511039
2.38418e-06
0.511039
2.48976e-06
0.511038
2.38196e-06
0.511038
2.15248e-06
0.511039
2.03547e-06
0.511039
2.02726e-06
0.511039
2.15703e-06
0.51104
2.32466e-06
0.511041
2.31321e-06
0.511041
2.1628e-06
0.511042
1.99339e-06
0.511042
1.97284e-06
0.511042
2.17086e-06
0.511042
2.39372e-06
0.511042
2.49912e-06
0.511043
2.55536e-06
0.511043
2.56019e-06
0.511044
2.43035e-06
0.511044
2.32888e-06
0.511044
2.27667e-06
0.511043
2.17507e-06
0.511043
2.21513e-06
0.511043
2.29994e-06
0.511044
2.14902e-06
0.511044
1.95501e-06
0.511044
1.95052e-06
0.511045
2.00916e-06
0.511045
2.09554e-06
0.511046
2.34839e-06
0.511046
2.59263e-06
0.511045
2.63447e-06
0.511045
2.42814e-06
0.511045
1.96803e-06
0.511046
1.64982e-06
0.511047
1.76227e-06
0.511047
2.14756e-06
0.511047
2.45719e-06
0.511047
2.3885e-06
0.511048
2.02894e-06
0.511049
1.73245e-06
0.51105
1.75458e-06
0.51105
2.09967e-06
0.511049
2.52922e-06
0.511048
2.70325e-06
0.511048
2.58393e-06
0.511048
2.39418e-06
0.511048
2.33495e-06
0.511049
2.47921e-06
0.511049
2.58467e-06
0.511049
2.54192e-06
0.511049
2.51243e-06
0.511049
2.4615e-06
0.511049
2.33545e-06
0.511049
2.21077e-06
0.51105
2.20671e-06
0.511051
2.28747e-06
0.511051
2.38164e-06
0.511051
2.55147e-06
0.511051
2.61015e-06
0.511051
2.44566e-06
0.511052
2.27629e-06
0.511052
2.17073e-06
0.511053
2.1008e-06
0.511053
2.10582e-06
0.511053
2.12588e-06
0.511054
2.04465e-06
0.511054
1.79772e-06
0.511054
1.63058e-06
0.511055
1.88655e-06
0.511055
2.29487e-06
0.511055
2.51311e-06
0.511055
2.5657e-06
0.511055
2.30329e-06
0.511056
1.84811e-06
0.511057
1.67782e-06
0.511058
1.84288e-06
0.511059
2.05729e-06
0.511059
2.2441e-06
0.511059
2.36572e-06
0.511059
2.23322e-06
0.511059
1.93875e-06
0.51106
1.78896e-06
0.511061
1.8906e-06
0.511061
2.15284e-06
0.511062
2.47142e-06
0.511061
2.71447e-06
0.511061
2.72214e-06
0.511061
2.58792e-06
0.511061
2.46957e-06
0.511061
2.39854e-06
0.511061
2.34872e-06
0.511062
2.24026e-06
0.511063
2.1862e-06
0.511063
2.25896e-06
0.511063
2.33639e-06
0.511064
2.43007e-06
0.511064
2.54205e-06
0.511063
2.57145e-06
0.511063
2.51311e-06
0.511064
2.49096e-06
0.511064
2.53775e-06
0.511063
2.51962e-06
0.511063
2.3953e-06
0.511063
2.20597e-06
0.511064
2.01245e-06
0.511065
1.9701e-06
0.511066
2.24409e-06
0.511066
2.7286e-06
0.511066
2.95852e-06
0.511066
2.72023e-06
0.511066
2.3609e-06
0.511066
2.12179e-06
0.511067
2.04696e-06
0.511068
2.27286e-06
0.511068
2.54625e-06
0.511068
2.40488e-06
0.511068
2.05292e-06
0.511069
1.94058e-06
0.511069
2.04626e-06
0.511069
2.20548e-06
0.511069
2.31075e-06
0.511069
2.23669e-06
0.511069
1.92777e-06
0.51107
1.60038e-06
0.511071
1.60921e-06
0.511072
1.89567e-06
0.511072
2.15031e-06
0.511072
2.292e-06
0.511072
2.33184e-06
0.511072
2.26612e-06
0.511072
2.22378e-06
0.511072
2.40468e-06
0.511072
2.67251e-06
0.511071
2.67826e-06
0.511071
2.52038e-06
0.511071
2.44547e-06
0.511072
2.34976e-06
0.511072
2.23182e-06
0.511072
2.30075e-06
0.511072
2.47079e-06
0.511072
2.46449e-06
0.511073
2.29292e-06
0.511073
2.24911e-06
0.511073
2.43691e-06
0.511073
2.54274e-06
0.511072
2.34787e-06
0.511072
2.05111e-06
0.511072
1.82181e-06
0.511073
1.73707e-06
0.511073
2.02137e-06
0.511074
2.52814e-06
0.511074
2.71991e-06
0.511073
2.59873e-06
0.511073
2.54122e-06
0.511073
2.47647e-06
0.511074
2.33642e-06
0.511074
2.39521e-06
0.511074
2.60821e-06
0.511074
2.70169e-06
0.511074
2.65542e-06
0.511074
2.46784e-06
0.511074
2.13383e-06
0.511075
1.81996e-06
0.511077
1.77405e-06
0.511078
2.05601e-06
0.511078
2.27915e-06
0.511078
2.22083e-06
0.511078
2.1587e-06
0.511078
2.13891e-06
0.511079
1.99794e-06
0.511079
1.95904e-06
0.51108
2.19323e-06
0.51108
2.43982e-06
0.51108
2.51933e-06
0.51108
2.44719e-06
2.3966e-06
0.51102
-5.44241e-08
0.511021
-2.25959e-08
0.511022
8.04383e-07
0.511021
1.7879e-06
0.511021
1.81022e-06
0.511021
1.60984e-06
0.511021
1.58498e-06
0.511022
1.26687e-06
0.511024
9.30531e-07
0.511025
1.33085e-06
0.511025
2.06387e-06
0.511025
2.46166e-06
0.511025
2.22721e-06
0.511026
1.7758e-06
0.511026
1.86902e-06
0.511026
2.28719e-06
0.511026
2.25101e-06
0.511026
1.91331e-06
0.511026
1.85986e-06
0.511025
2.05533e-06
0.511024
2.26379e-06
0.511024
2.28199e-06
0.511025
1.79659e-06
0.511026
1.57597e-06
0.511026
1.87663e-06
0.511026
2.16309e-06
0.511026
2.2413e-06
0.511026
2.09571e-06
0.511027
1.97084e-06
0.511028
1.89628e-06
0.511028
1.91336e-06
0.511028
2.15224e-06
0.511028
2.3605e-06
0.511028
2.48991e-06
0.511028
2.3473e-06
0.511029
1.88862e-06
0.511029
1.71886e-06
0.511029
2.19139e-06
0.511029
2.70128e-06
0.511029
2.64739e-06
0.511029
2.15918e-06
0.51103
1.72241e-06
0.511031
1.90682e-06
0.51103
2.59e-06
0.51103
2.80561e-06
0.51103
2.38973e-06
0.51103
1.8711e-06
0.511031
1.54716e-06
0.511032
1.42485e-06
0.511032
1.65745e-06
0.511032
2.22008e-06
0.511032
2.45891e-06
0.511033
2.25054e-06
0.511033
1.97513e-06
0.511033
1.8484e-06
0.511033
1.96667e-06
0.511033
2.11475e-06
0.511033
2.11381e-06
0.511033
2.12866e-06
0.511034
2.23227e-06
0.511034
2.18751e-06
0.511035
1.95497e-06
0.511036
1.80681e-06
0.511036
1.85584e-06
0.511037
1.98106e-06
0.511037
1.94679e-06
0.511037
1.84468e-06
0.511037
2.04241e-06
0.511037
2.29463e-06
0.511037
2.2717e-06
0.511037
2.15836e-06
0.511037
1.89374e-06
0.511037
1.59593e-06
0.511037
1.68155e-06
0.511038
1.80664e-06
0.511039
1.80715e-06
0.511039
1.95041e-06
0.511039
2.03517e-06
0.511039
2.15153e-06
0.511039
2.42594e-06
0.511038
2.47264e-06
0.511039
2.24093e-06
0.511039
1.97663e-06
0.511039
1.70564e-06
0.51104
1.5284e-06
0.51104
1.77467e-06
0.51104
2.27241e-06
0.51104
2.50134e-06
0.51104
2.45905e-06
0.51104
2.32029e-06
0.511041
2.06439e-06
0.511041
1.85587e-06
0.511042
1.83629e-06
0.511042
1.71012e-06
0.511043
1.42783e-06
0.511044
1.39447e-06
0.511044
1.64822e-06
0.511045
1.95061e-06
0.511044
2.11059e-06
0.511044
2.05271e-06
0.511044
1.94639e-06
0.511045
1.86921e-06
0.511045
1.84045e-06
0.511046
1.88504e-06
0.511047
1.91184e-06
0.511047
1.92825e-06
0.511047
1.97233e-06
0.511047
2.00104e-06
0.511046
1.98849e-06
0.511047
1.99664e-06
0.511047
2.11471e-06
0.511047
2.17825e-06
0.511047
2.02955e-06
0.511047
1.70646e-06
0.511048
1.45935e-06
0.511048
1.53674e-06
0.511049
1.92296e-06
0.511049
2.47184e-06
0.511049
2.85029e-06
0.511048
2.73543e-06
0.511048
2.34996e-06
0.511049
2.12034e-06
0.511049
1.96159e-06
0.51105
1.85781e-06
0.51105
1.97624e-06
0.511051
2.1112e-06
0.511051
2.16485e-06
0.511051
2.13003e-06
0.511051
1.99936e-06
0.511052
1.94043e-06
0.511052
1.90921e-06
0.511053
1.96336e-06
0.511053
2.23066e-06
0.511053
2.4046e-06
0.511053
2.35084e-06
0.511053
2.27284e-06
0.511053
2.08422e-06
0.511053
1.70713e-06
0.511054
1.4878e-06
0.511054
1.68051e-06
0.511054
1.97915e-06
0.511054
2.08574e-06
0.511054
2.06846e-06
0.511054
1.91268e-06
0.511055
1.70568e-06
0.511055
1.82922e-06
0.511056
2.18726e-06
0.511055
2.33286e-06
0.511055
2.23505e-06
0.511054
2.01111e-06
0.511055
1.70101e-06
0.511055
1.49667e-06
0.511056
1.65192e-06
0.511056
1.99326e-06
0.511056
2.15429e-06
0.511056
2.15998e-06
0.511056
2.13262e-06
0.511056
2.01478e-06
0.511056
1.91188e-06
0.511057
2.01657e-06
0.511058
2.19556e-06
0.511058
2.2939e-06
0.511058
2.35231e-06
0.511058
2.37254e-06
0.511058
2.32914e-06
0.511058
2.18322e-06
0.511058
1.99226e-06
0.511059
1.87595e-06
0.511059
1.86796e-06
0.51106
1.97162e-06
0.51106
2.11358e-06
0.51106
2.17958e-06
0.511061
2.08993e-06
0.511061
1.94013e-06
0.511062
1.96863e-06
0.511062
2.16469e-06
0.511062
2.39764e-06
0.511062
2.59571e-06
0.511061
2.6084e-06
0.511061
2.37974e-06
0.511061
2.10879e-06
0.511062
2.07539e-06
0.511062
2.256e-06
0.511063
2.37731e-06
0.511063
2.40375e-06
0.511062
2.38128e-06
0.511062
2.19854e-06
0.511063
2.01761e-06
0.511063
2.10051e-06
0.511063
2.19911e-06
0.511063
2.03266e-06
0.511063
1.82563e-06
0.511064
1.74153e-06
0.511064
1.68022e-06
0.511065
1.72299e-06
0.511065
1.96461e-06
0.511065
2.10509e-06
0.511065
1.91217e-06
0.511064
1.62147e-06
0.511065
1.46463e-06
0.511066
1.49775e-06
0.511066
1.69172e-06
0.511067
1.90841e-06
0.511067
2.07122e-06
0.511067
2.12435e-06
0.511067
2.1437e-06
0.511068
2.31745e-06
0.511068
2.46069e-06
0.511068
2.35695e-06
0.511068
2.1899e-06
0.511068
2.07837e-06
0.511069
1.96396e-06
0.511069
1.9016e-06
0.51107
1.93031e-06
0.51107
1.91531e-06
0.511071
1.73232e-06
0.511071
1.49182e-06
0.511073
1.41325e-06
0.511074
1.51127e-06
0.511074
1.6942e-06
0.511074
1.93197e-06
0.511074
2.06114e-06
0.511074
1.9104e-06
0.511074
1.6951e-06
0.511075
1.729e-06
0.511076
1.90702e-06
0.511076
2.04196e-06
0.511077
2.271e-06
0.511077
2.54461e-06
0.511076
2.61561e-06
0.511076
2.55924e-06
0.511076
2.47914e-06
0.511077
2.3169e-06
0.511077
2.13591e-06
0.511078
2.06896e-06
0.511078
2.0707e-06
0.511077
1.98488e-06
0.511077
1.90974e-06
0.511077
2.06746e-06
0.511077
2.22483e-06
0.511078
2.07484e-06
0.511078
1.82068e-06
0.511078
1.75844e-06
0.511078
1.82788e-06
0.511079
1.86583e-06
0.511079
1.9187e-06
0.511079
2.07557e-06
0.511079
2.19859e-06
0.51108
2.17293e-06
2.13302e-06
0.511021
-1.11667e-07
0.51102
1.77454e-07
0.51102
1.18888e-06
0.51102
1.55264e-06
0.511021
1.03668e-06
0.511022
1.04601e-06
0.511022
1.60749e-06
0.511021
1.90406e-06
0.51102
1.6216e-06
0.51102
1.43047e-06
0.51102
1.74261e-06
0.511021
1.76593e-06
0.511022
1.4761e-06
0.511022
1.65311e-06
0.511022
1.81198e-06
0.511023
1.48481e-06
0.511024
1.19084e-06
0.511025
1.18971e-06
0.511025
1.54924e-06
0.511025
2.04388e-06
0.511025
2.08519e-06
0.511026
1.9227e-06
0.511025
1.85256e-06
0.511025
1.7764e-06
0.511025
2.00711e-06
0.511025
2.18616e-06
0.511025
1.9795e-06
0.511026
1.6294e-06
0.511026
1.41625e-06
0.511027
1.49922e-06
0.511027
1.62644e-06
0.511028
1.73904e-06
0.511028
1.93299e-06
0.511029
1.87541e-06
0.511029
1.58626e-06
0.51103
1.62043e-06
0.511029
2.08358e-06
0.511029
2.59386e-06
0.511029
2.67962e-06
0.511029
2.04047e-06
0.51103
1.48221e-06
0.51103
1.74175e-06
0.51103
2.30752e-06
0.51103
2.55734e-06
0.51103
2.20322e-06
0.511031
1.69215e-06
0.511031
1.6194e-06
0.511031
1.714e-06
0.511031
1.69985e-06
0.511031
1.60629e-06
0.511031
1.65815e-06
0.511032
1.84059e-06
0.511033
1.71269e-06
0.511033
1.42484e-06
0.511034
1.36287e-06
0.511034
1.38409e-06
0.511035
1.65099e-06
0.511035
2.22434e-06
0.511034
2.40226e-06
0.511034
2.21629e-06
0.511034
2.12378e-06
0.511034
2.02917e-06
0.511034
1.9379e-06
0.511034
1.68226e-06
0.511035
1.32234e-06
0.511036
1.39977e-06
0.511036
1.70157e-06
0.511036
1.78392e-06
0.511036
1.92237e-06
0.511037
2.02856e-06
0.511037
1.82441e-06
0.511037
1.60562e-06
0.511037
1.53333e-06
0.511038
1.44615e-06
0.511038
1.41272e-06
0.511038
1.50147e-06
0.511039
1.5627e-06
0.511039
1.63247e-06
0.511039
1.94613e-06
0.511039
2.21543e-06
0.51104
2.09262e-06
0.51104
1.85048e-06
0.51104
1.67628e-06
0.511041
1.59865e-06
0.51104
1.64457e-06
0.511041
1.70568e-06
0.511041
1.88633e-06
0.511041
2.2318e-06
0.511041
2.46714e-06
0.511041
2.46348e-06
0.511041
2.22628e-06
0.511041
1.75088e-06
0.511042
1.31595e-06
0.511042
1.22249e-06
0.511042
1.32183e-06
0.511042
1.35606e-06
0.511042
1.30913e-06
0.511043
1.37011e-06
0.511044
1.5876e-06
0.511044
1.81705e-06
0.511044
1.98588e-06
0.511044
1.86298e-06
0.511044
1.54876e-06
0.511044
1.52474e-06
0.511045
1.685e-06
0.511045
1.693e-06
0.511045
1.56465e-06
0.511046
1.4183e-06
0.511047
1.32622e-06
0.511047
1.48562e-06
0.511047
1.84901e-06
0.511048
1.96174e-06
0.511048
1.73904e-06
0.511048
1.53903e-06
0.511048
1.43471e-06
0.511048
1.43154e-06
0.511048
1.58947e-06
0.511049
1.82689e-06
0.51105
2.11592e-06
0.51105
2.39662e-06
0.51105
2.41389e-06
0.51105
2.21948e-06
0.51105
2.01972e-06
0.51105
1.85046e-06
0.51105
1.83591e-06
0.51105
1.96378e-06
0.51105
2.09989e-06
0.51105
2.1473e-06
0.51105
2.1283e-06
0.51105
2.16611e-06
0.51105
2.09893e-06
0.51105
1.93506e-06
0.51105
1.93943e-06
0.51105
1.9986e-06
0.511051
1.95069e-06
0.511051
1.84875e-06
0.511052
1.69263e-06
0.511052
1.45161e-06
0.511052
1.21272e-06
0.511053
1.20552e-06
0.511053
1.38868e-06
0.511054
1.40931e-06
0.511055
1.35075e-06
0.511055
1.44356e-06
0.511055
1.49193e-06
0.511056
1.53693e-06
0.511056
1.6881e-06
0.511057
1.75801e-06
0.511057
1.6999e-06
0.511058
1.64495e-06
0.511058
1.58516e-06
0.511058
1.44265e-06
0.511058
1.37739e-06
0.511059
1.57147e-06
0.511059
1.79208e-06
0.511059
1.88366e-06
0.511059
1.98741e-06
0.511059
2.06359e-06
0.511059
2.06664e-06
0.511059
2.1557e-06
0.511059
2.24276e-06
0.511059
2.12988e-06
0.511059
1.95952e-06
0.51106
1.90549e-06
0.51106
2.00185e-06
0.51106
2.15866e-06
0.51106
2.20391e-06
0.51106
2.11008e-06
0.51106
1.98718e-06
0.51106
1.93151e-06
0.51106
1.96153e-06
0.51106
2.05178e-06
0.51106
2.04465e-06
0.51106
1.80288e-06
0.511061
1.58674e-06
0.511061
1.62359e-06
0.511062
1.81419e-06
0.511062
2.09438e-06
0.511063
2.34255e-06
0.511063
2.37734e-06
0.511062
2.20563e-06
0.511062
2.03073e-06
0.511063
2.04078e-06
0.511063
2.10038e-06
0.511063
2.07616e-06
0.511064
2.05386e-06
0.511064
1.90907e-06
0.511064
1.6402e-06
0.511065
1.62525e-06
0.511065
1.83486e-06
0.511065
1.87561e-06
0.511065
1.71972e-06
0.511066
1.58114e-06
0.511066
1.47119e-06
0.511066
1.35294e-06
0.511067
1.36066e-06
0.511067
1.50478e-06
0.511068
1.5267e-06
0.511068
1.4251e-06
0.511068
1.41396e-06
0.511068
1.44749e-06
0.511068
1.46403e-06
0.511069
1.55557e-06
0.511069
1.7253e-06
0.511069
1.78312e-06
0.51107
1.70626e-06
0.51107
1.80751e-06
0.511071
2.07518e-06
0.511071
2.14603e-06
0.511071
1.99884e-06
0.511071
1.82656e-06
0.511072
1.6615e-06
0.511072
1.49854e-06
0.511072
1.4197e-06
0.511073
1.49792e-06
0.511073
1.61476e-06
0.511073
1.55858e-06
0.511073
1.37628e-06
0.511073
1.24286e-06
0.511074
1.21993e-06
0.511074
1.40025e-06
0.511075
1.76613e-06
0.511074
1.98309e-06
0.511074
1.89481e-06
0.511074
1.84225e-06
0.511074
2.03653e-06
0.511074
2.21501e-06
0.511074
2.29747e-06
0.511074
2.42671e-06
0.511074
2.44369e-06
0.511074
2.31259e-06
0.511075
2.24757e-06
0.511075
2.17047e-06
0.511075
1.97601e-06
0.511075
1.8448e-06
0.511075
1.93153e-06
0.511075
2.08894e-06
0.511075
2.05588e-06
0.511075
1.89672e-06
0.511076
1.85682e-06
0.511076
1.83634e-06
0.511076
1.70092e-06
0.511076
1.67204e-06
0.511076
1.75718e-06
0.511076
1.65293e-06
0.511077
1.48566e-06
0.511077
1.58302e-06
0.511078
1.8246e-06
0.511078
1.95599e-06
1.88525e-06
0.511021
4.19241e-08
0.51102
6.58751e-07
0.511021
7.4578e-07
0.511022
5.37821e-07
0.511022
8.88897e-07
0.511022
1.05084e-06
0.511022
9.37665e-07
0.511023
1.14439e-06
0.511023
1.66028e-06
0.511023
1.72792e-06
0.511023
1.49992e-06
0.511023
1.53204e-06
0.511023
1.50037e-06
0.511024
1.30535e-06
0.511024
1.18146e-06
0.511025
1.20269e-06
0.511025
1.06768e-06
0.511025
9.82952e-07
0.511025
1.37881e-06
0.511025
1.63268e-06
0.511026
1.531e-06
0.511027
1.15668e-06
0.511028
1.04788e-06
0.511028
1.47109e-06
0.511028
1.70155e-06
0.511029
1.81568e-06
0.511029
1.91056e-06
0.511029
1.60122e-06
0.511029
1.26574e-06
0.511029
1.44363e-06
0.511029
1.94634e-06
0.511028
2.13857e-06
0.511028
1.76851e-06
0.511029
1.50232e-06
0.511029
1.59732e-06
0.511029
1.63952e-06
0.511029
1.96232e-06
0.511029
2.14316e-06
0.51103
1.55409e-06
0.511031
1.13834e-06
0.511031
1.31295e-06
0.511032
1.62077e-06
0.511032
1.9579e-06
0.511032
2.10713e-06
0.511033
1.844e-06
0.511033
1.58924e-06
0.511033
1.62994e-06
0.511033
1.66868e-06
0.511033
1.57853e-06
0.511033
1.62911e-06
0.511033
1.76214e-06
0.511033
1.66899e-06
0.511033
1.58394e-06
0.511033
1.63973e-06
0.511033
1.54127e-06
0.511033
1.51071e-06
0.511033
1.74933e-06
0.511033
2.07382e-06
0.511033
2.19343e-06
0.511033
1.89393e-06
0.511034
1.52646e-06
0.511034
1.3751e-06
0.511035
1.36607e-06
0.511035
1.52782e-06
0.511035
1.74639e-06
0.511034
1.80241e-06
0.511034
1.67445e-06
0.511035
1.46374e-06
0.511035
1.22849e-06
0.511036
1.22835e-06
0.511036
1.53636e-06
0.511036
1.69802e-06
0.511036
1.55182e-06
0.511036
1.37533e-06
0.511037
1.21451e-06
0.511037
1.14373e-06
0.511037
1.37393e-06
0.511037
1.61184e-06
0.511038
1.58695e-06
0.511038
1.56257e-06
0.511039
1.42614e-06
0.51104
1.07105e-06
0.51104
1.07172e-06
0.51104
1.43681e-06
0.51104
1.63731e-06
0.51104
1.70181e-06
0.511041
1.77962e-06
0.511041
1.78481e-06
0.511042
1.7878e-06
0.511042
1.83617e-06
0.511043
1.81797e-06
0.511043
1.67903e-06
0.511043
1.47516e-06
0.511042
1.39475e-06
0.511042
1.42338e-06
0.511042
1.3551e-06
0.511042
1.25655e-06
0.511043
1.20041e-06
0.511043
1.1167e-06
0.511044
1.23662e-06
0.511044
1.65383e-06
0.511044
1.89067e-06
0.511044
1.75995e-06
0.511044
1.45238e-06
0.511044
1.01738e-06
0.511045
8.23583e-07
0.511046
1.13231e-06
0.511046
1.47507e-06
0.511045
1.59348e-06
0.511045
1.47373e-06
0.511046
1.14016e-06
0.511047
9.05751e-07
0.511048
1.00647e-06
0.511048
1.22957e-06
0.511048
1.40298e-06
0.511048
1.56714e-06
0.511048
1.71642e-06
0.511048
1.80858e-06
0.511048
1.86748e-06
0.511049
1.97059e-06
0.511049
2.04496e-06
0.511049
1.96749e-06
0.51105
1.81783e-06
0.51105
1.63863e-06
0.51105
1.5348e-06
0.51105
1.65426e-06
0.511051
1.90423e-06
0.511051
1.96967e-06
0.511051
1.74463e-06
0.511052
1.63441e-06
0.511052
1.75197e-06
0.511052
1.87786e-06
0.511052
2.04035e-06
0.511052
2.09602e-06
0.511052
1.82979e-06
0.511052
1.4507e-06
0.511053
1.17746e-06
0.511053
9.71592e-07
0.511054
8.31024e-07
0.511054
9.54731e-07
0.511054
1.29874e-06
0.511054
1.43447e-06
0.511054
1.28676e-06
0.511054
1.20055e-06
0.511055
1.13622e-06
0.511055
1.16753e-06
0.511055
1.47002e-06
0.511055
1.61601e-06
0.511056
1.42334e-06
0.511056
1.25423e-06
0.511056
1.25986e-06