/*--------------------------------*- C++ -*----------------------------------*\
| =========                 |                                                 |
| \\      /  F ield         | OpenFOAM: The Open Source CFD Toolbox           |
|  \\    /   O peration     | Version:  2406                                  |
|   \\  /    A nd           | Website:  www.openfoam.com                      |
|    \\/     M anipulation  |                                                 |
\*---------------------------------------------------------------------------*/
FoamFile
{
    version     2.0;
    format      ascii;
    arch        "LSB;label=32;scalar=64";
    class       volVectorField;
    location    "1.6";
    object      U;
}
// * * * * * * * * * * * * * * * * * * * * * * * * * * * * * * * * * * * * * //

dimensions      [0 1 -1 0 0 0 0];

internalField   nonuniform List<vector> 
6250
(
(50.5397 9.12086e-05 0)
(85.4438 0.000459952 0)
(73.2727 0.000745856 0)
(60.6281 0.000805672 0)
(59.8842 0.000726291 0)
(63.3433 0.000669271 0)
(64.8526 0.000685077 0)
(64.401 0.000694384 0)
(63.7842 0.000711273 0)
(63.6815 0.000768389 0)
(63.8238 0.000789462 0)
(63.9083 0.000802211 0)
(63.8977 0.000833932 0)
(63.8681 0.000846913 0)
(63.8592 0.000855158 0)
(63.864 0.000890509 0)
(63.8677 0.000931811 0)
(63.8671 0.000956288 0)
(63.8651 0.000970049 0)
(63.8638 0.000962914 0)
(63.8634 0.000935506 0)
(63.8629 0.000898043 0)
(63.8622 0.000842584 0)
(63.8616 0.000789747 0)
(63.8609 0.000789096 0)
(63.8602 0.000830537 0)
(63.8596 0.000879236 0)
(63.8588 0.000925663 0)
(63.858 0.000938904 0)
(63.8574 0.000916311 0)
(63.8567 0.000888404 0)
(63.856 0.000863705 0)
(63.8554 0.000844519 0)
(63.8548 0.000843113 0)
(63.8541 0.000861116 0)
(63.8534 0.00088238 0)
(63.8527 0.000885881 0)
(63.852 0.000850467 0)
(63.8514 0.000794512 0)
(63.8508 0.000784843 0)
(63.8501 0.000849946 0)
(63.8494 0.000958187 0)
(63.8486 0.00103965 0)
(63.8479 0.00103782 0)
(63.8473 0.000986364 0)
(63.8465 0.000923609 0)
(63.8459 0.000859851 0)
(63.8453 0.00083845 0)
(63.8446 0.000856394 0)
(63.8439 0.000873253 0)
(63.8433 0.000901098 0)
(63.8426 0.000926271 0)
(63.8419 0.000904504 0)
(63.8413 0.000863584 0)
(63.8405 0.000835314 0)
(63.8398 0.000828031 0)
(63.8392 0.000870151 0)
(63.8384 0.000942661 0)
(63.8377 0.000994441 0)
(63.837 0.000999227 0)
(63.8363 0.000967982 0)
(63.8357 0.000965652 0)
(63.835 0.00100714 0)
(63.8343 0.00103085 0)
(63.8336 0.0010258 0)
(63.8329 0.00101258 0)
(63.8321 0.000997233 0)
(63.8315 0.000987246 0)
(63.8307 0.000965067 0)
(63.8299 0.000925537 0)
(63.8293 0.000889638 0)
(63.8286 0.000866938 0)
(63.8279 0.000873405 0)
(63.8272 0.000909953 0)
(63.8265 0.000948576 0)
(63.8259 0.000962735 0)
(63.8253 0.00094822 0)
(63.8246 0.000929719 0)
(63.824 0.000925597 0)
(63.8233 0.000940282 0)
(63.8226 0.000966747 0)
(63.8219 0.000966838 0)
(63.8212 0.000922016 0)
(63.8206 0.000867812 0)
(63.82 0.000844712 0)
(63.8194 0.000860434 0)
(63.8187 0.000905229 0)
(63.8181 0.00095776 0)
(63.8173 0.000970037 0)
(63.8166 0.000912945 0)
(63.816 0.000833674 0)
(63.8154 0.000816545 0)
(63.8147 0.000888805 0)
(63.814 0.00100231 0)
(63.8132 0.0010912 0)
(63.8124 0.00110121 0)
(63.8117 0.00103118 0)
(63.8111 0.000952698 0)
(63.8105 0.00092421 0)
(63.8098 0.000937666 0)
(63.8092 0.000964119 0)
(63.8085 0.000984459 0)
(63.8078 0.000983648 0)
(63.807 0.000971399 0)
(63.8064 0.000976299 0)
(63.8057 0.000989698 0)
(63.805 0.000986662 0)
(63.8043 0.000969697 0)
(63.8036 0.000949881 0)
(63.8029 0.00094281 0)
(63.8022 0.000957351 0)
(63.8015 0.000974195 0)
(63.8008 0.000970301 0)
(63.8001 0.000947732 0)
(63.7994 0.000928083 0)
(63.7987 0.000939745 0)
(63.7981 0.000995672 0)
(63.7973 0.00107084 0)
(63.7966 0.0011159 0)
(63.7958 0.00109745 0)
(63.7951 0.00102801 0)
(63.7945 0.000952235 0)
(63.7938 0.000920315 0)
(63.7931 0.000943576 0)
(63.7925 0.000976812 0)
(63.7919 0.000989189 0)
(63.7912 0.000985258 0)
(63.7904 0.000973758 0)
(63.7897 0.000971061 0)
(63.789 0.000986163 0)
(63.7884 0.00100779 0)
(63.7877 0.00100562 0)
(63.787 0.000960141 0)
(63.7864 0.000903731 0)
(63.7857 0.000875636 0)
(63.785 0.000876506 0)
(63.7844 0.000902675 0)
(63.7837 0.000945618 0)
(63.7829 0.00096745 0)
(63.7823 0.000947076 0)
(63.7817 0.000915299 0)
(63.7811 0.000905538 0)
(63.7804 0.000912111 0)
(63.7797 0.000930897 0)
(63.779 0.000965021 0)
(63.7783 0.000983787 0)
(63.7776 0.000974323 0)
(63.7769 0.000960621 0)
(63.7762 0.000943883 0)
(63.7755 0.000924842 0)
(63.7748 0.000925248 0)
(63.7741 0.000943019 0)
(63.7734 0.000957046 0)
(63.7728 0.000962043 0)
(63.7722 0.000955932 0)
(63.7715 0.000930539 0)
(63.7708 0.000895997 0)
(63.7701 0.000893233 0)
(63.7694 0.000946872 0)
(63.7687 0.00102417 0)
(63.768 0.00108424 0)
(63.7673 0.00110543 0)
(63.7665 0.00107526 0)
(63.7658 0.00101734 0)
(63.7651 0.000970729 0)
(63.7644 0.000946722 0)
(63.7638 0.000936903 0)
(63.7631 0.000939841 0)
(63.7625 0.000963205 0)
(63.7618 0.000999598 0)
(63.7612 0.00103186 0)
(63.7605 0.00104839 0)
(63.7597 0.00104291 0)
(63.7591 0.00102094 0)
(63.7584 0.000993233 0)
(63.7577 0.000971655 0)
(63.7571 0.000962203 0)
(63.7565 0.000946697 0)
(63.7558 0.000902024 0)
(63.7551 0.000835214 0)
(63.7545 0.000779537 0)
(63.7539 0.000770142 0)
(63.7533 0.000824746 0)
(63.7527 0.000919942 0)
(63.752 0.000992238 0)
(63.7512 0.00099706 0)
(63.7505 0.000955904 0)
(63.7498 0.000915313 0)
(63.7491 0.000898412 0)
(63.7485 0.000915741 0)
(63.7478 0.000953296 0)
(63.7471 0.000964695 0)
(63.7464 0.000939287 0)
(63.7458 0.000923579 0)
(63.7451 0.000950558 0)
(63.7444 0.000997561 0)
(63.7437 0.00101874 0)
(63.7431 0.000988597 0)
(63.7424 0.0009137 0)
(63.7418 0.000841846 0)
(63.7412 0.000837064 0)
(63.7406 0.000909307 0)
(63.7399 0.00100881 0)
(63.7392 0.00107697 0)
(63.7385 0.00108247 0)
(63.7378 0.00103427 0)
(63.7371 0.000972734 0)
(63.7365 0.000949665 0)
(63.7358 0.000978181 0)
(63.7351 0.00101025 0)
(63.7344 0.00100807 0)
(63.7338 0.000987063 0)
(63.7331 0.000972877 0)
(63.7324 0.000979949 0)
(63.7318 0.00101225 0)
(63.731 0.00105184 0)
(63.7303 0.00107282 0)
(63.7296 0.00107031 0)
(63.729 0.00106792 0)
(63.7283 0.00108329 0)
(63.7276 0.00109295 0)
(63.7269 0.00106848 0)
(63.7262 0.00102131 0)
(63.7255 0.000980207 0)
(63.7248 0.000970248 0)
(63.7242 0.00101075 0)
(63.7235 0.00107703 0)
(63.7228 0.00109849 0)
(63.7222 0.00104817 0)
(63.7215 0.000976083 0)
(63.7209 0.000933621 0)
(63.7202 0.000936062 0)
(63.7196 0.000976642 0)
(63.7188 0.0010227 0)
(63.7181 0.00103852 0)
(63.7174 0.00101607 0)
(63.7167 0.000967332 0)
(63.7161 0.000914937 0)
(63.7155 0.000881054 0)
(63.7149 0.000886778 0)
(63.7143 0.000935522 0)
(63.7136 0.000972205 0)
(63.7129 0.000945237 0)
(63.7123 0.000886867 0)
(63.7117 0.000856276 0)
(63.7111 0.000869709 0)
(63.7104 0.000920263 0)
(63.7096 0.000980625 0)
(63.709 0.00106194 0)
(63.7078 0.00103973 0)
(50.5399 5.99999e-05 0)
(85.4451 0.000383082 0)
(73.2752 0.000654816 0)
(60.6324 0.000649383 0)
(59.8896 0.000516205 0)
(63.3492 0.000490084 0)
(64.8593 0.00055355 0)
(64.409 0.000554346 0)
(63.7929 0.000528075 0)
(63.6914 0.000543645 0)
(63.8349 0.000511332 0)
(63.9202 0.000472132 0)
(63.9108 0.000505344 0)
(63.8823 0.00054809 0)
(63.8745 0.000534988 0)
(63.8804 0.000501819 0)
(63.8854 0.000504073 0)
(63.8859 0.000522405 0)
(63.8851 0.000508229 0)
(63.8851 0.000461806 0)
(63.8856 0.000445033 0)
(63.8861 0.00047074 0)
(63.8865 0.000481344 0)
(63.8868 0.000459417 0)
(63.887 0.000456466 0)
(63.8874 0.000475912 0)
(63.8878 0.000491794 0)
(63.8883 0.000515267 0)
(63.8887 0.00052192 0)
(63.889 0.000498193 0)
(63.8894 0.000470052 0)
(63.8897 0.000445697 0)
(63.89 0.00043129 0)
(63.8904 0.000436727 0)
(63.8908 0.00046117 0)
(63.8912 0.000501844 0)
(63.8915 0.000529653 0)
(63.8919 0.000502953 0)
(63.8922 0.000446099 0)
(63.8924 0.000429466 0)
(63.8927 0.000454009 0)
(63.893 0.000466515 0)
(63.8935 0.000438915 0)
(63.894 0.000387783 0)
(63.8944 0.000384808 0)
(63.8948 0.000434766 0)
(63.895 0.000461142 0)
(63.8953 0.000459613 0)
(63.8956 0.000446292 0)
(63.896 0.000407992 0)
(63.8964 0.000391772 0)
(63.8969 0.000443102 0)
(63.8972 0.000517869 0)
(63.8974 0.000562094 0)
(63.8978 0.00054484 0)
(63.8982 0.000483411 0)
(63.8986 0.000460038 0)
(63.8991 0.000474868 0)
(63.8995 0.000473842 0)
(63.8999 0.000450189 0)
(63.9001 0.00039625 0)
(63.9003 0.000355126 0)
(63.9007 0.000361024 0)
(63.9012 0.000354613 0)
(63.9016 0.000348213 0)
(63.9021 0.000390622 0)
(63.9025 0.00043925 0)
(63.903 0.00046813 0)
(63.9035 0.000483143 0)
(63.9038 0.000483736 0)
(63.9042 0.000492889 0)
(63.9045 0.000513654 0)
(63.9048 0.000516336 0)
(63.9052 0.000475092 0)
(63.9055 0.000406073 0)
(63.9059 0.000351951 0)
(63.9063 0.000328528 0)
(63.9066 0.000343473 0)
(63.9071 0.000374611 0)
(63.9074 0.000390253 0)
(63.9079 0.000415674 0)
(63.9082 0.000450951 0)
(63.9085 0.000449335 0)
(63.9087 0.000414646 0)
(63.909 0.000388846 0)
(63.9094 0.000376168 0)
(63.9097 0.000373683 0)
(63.9102 0.000411236 0)
(63.9106 0.000469461 0)
(63.9109 0.000480695 0)
(63.9111 0.000443033 0)
(63.9113 0.000409337 0)
(63.9116 0.000399383 0)
(63.9121 0.000405648 0)
(63.9126 0.000425005 0)
(63.9132 0.000427441 0)
(63.9136 0.000385087 0)
(63.9139 0.000333851 0)
(63.9143 0.000317823 0)
(63.9146 0.000341265 0)
(63.915 0.000391445 0)
(63.9153 0.00044524 0)
(63.9157 0.000464478 0)
(63.916 0.000431617 0)
(63.9164 0.000384262 0)
(63.9169 0.000359517 0)
(63.9174 0.00036298 0)
(63.9178 0.0003932 0)
(63.9181 0.000431015 0)
(63.9184 0.000453686 0)
(63.9188 0.000455456 0)
(63.9193 0.000447507 0)
(63.9197 0.000449362 0)
(63.9201 0.000456299 0)
(63.9204 0.000440444 0)
(63.9208 0.000399787 0)
(63.9212 0.000362567 0)
(63.9216 0.000349171 0)
(63.9222 0.000365133 0)
(63.9226 0.000394121 0)
(63.923 0.00040739 0)
(63.9233 0.000395074 0)
(63.9236 0.000371031 0)
(63.9238 0.00035077 0)
(63.9242 0.00033637 0)
(63.9246 0.000345033 0)
(63.925 0.000380053 0)
(63.9254 0.000411275 0)
(63.9258 0.000424795 0)
(63.9261 0.000414754 0)
(63.9264 0.000397392 0)
(63.9268 0.00039567 0)
(63.9271 0.000390759 0)
(63.9274 0.000386981 0)
(63.9278 0.000407831 0)
(63.9281 0.000428072 0)
(63.9284 0.000429828 0)
(63.9288 0.000426172 0)
(63.9292 0.000406033 0)
(63.9296 0.000361091 0)
(63.9299 0.000332647 0)
(63.9303 0.000363573 0)
(63.9307 0.000421614 0)
(63.9309 0.000450973 0)
(63.9314 0.000456145 0)
(63.9318 0.00044208 0)
(63.9322 0.000414664 0)
(63.9326 0.000423929 0)
(63.9331 0.000468788 0)
(63.9334 0.00049176 0)
(63.9337 0.000477912 0)
(63.9341 0.000436483 0)
(63.9344 0.000372481 0)
(63.9348 0.000327081 0)
(63.9352 0.00034277 0)
(63.9355 0.000399503 0)
(63.9359 0.000444513 0)
(63.9362 0.000455352 0)
(63.9365 0.000441505 0)
(63.9369 0.000406651 0)
(63.9373 0.000369924 0)
(63.9378 0.000363661 0)
(63.9382 0.000378578 0)
(63.9386 0.000392778 0)
(63.939 0.000402763 0)
(63.9393 0.000405452 0)
(63.9396 0.000391685 0)
(63.9399 0.000362135 0)
(63.9402 0.000339337 0)
(63.9406 0.0003324 0)
(63.9409 0.000336966 0)
(63.9413 0.000352052 0)
(63.9417 0.000363421 0)
(63.942 0.000361086 0)
(63.9424 0.000343411 0)
(63.9427 0.000316404 0)
(63.9431 0.000310946 0)
(63.9435 0.000347619 0)
(63.9439 0.000408944 0)
(63.9442 0.000464406 0)
(63.9444 0.000485311 0)
(63.9446 0.000455422 0)
(63.9448 0.000400753 0)
(63.9451 0.000375558 0)
(63.9455 0.000396993 0)
(63.9459 0.00043484 0)
(63.9463 0.00046585 0)
(63.9467 0.000479899 0)
(63.947 0.000459521 0)
(63.9473 0.000424841 0)
(63.9478 0.000420077 0)
(63.9482 0.000429111 0)
(63.9485 0.000410694 0)
(63.9488 0.00037348 0)
(63.9492 0.000347605 0)
(63.9496 0.000338804 0)
(63.95 0.000343404 0)
(63.9504 0.000368123 0)
(63.9508 0.000393669 0)
(63.951 0.000387392 0)
(63.9513 0.000362302 0)
(63.9516 0.000347105 0)
(63.952 0.000347591 0)
(63.9525 0.000358026 0)
(63.953 0.000367219 0)
(63.9534 0.000362624 0)
(63.9537 0.000336032 0)
(63.954 0.000312797 0)
(63.9544 0.000333176 0)
(63.9548 0.000373058 0)
(63.9552 0.000383678 0)
(63.9555 0.000371609 0)
(63.9559 0.000358465 0)
(63.9562 0.000347927 0)
(63.9565 0.000344345 0)
(63.957 0.00034565 0)
(63.9573 0.000341035 0)
(63.9577 0.000320655 0)
(63.9581 0.000289418 0)
(63.9585 0.000272184 0)
(63.959 0.000279447 0)
(63.9595 0.000305731 0)
(63.9599 0.00034987 0)
(63.9603 0.000382429 0)
(63.9605 0.000363815 0)
(63.9608 0.000315096 0)
(63.9612 0.000286698 0)
(63.9617 0.000283547 0)
(63.962 0.000289696 0)
(63.9623 0.000312307 0)
(63.9626 0.000348697 0)
(63.9629 0.000374328 0)
(63.9632 0.000384675 0)
(63.9637 0.000388939 0)
(63.9641 0.000388341 0)
(63.9645 0.000386325 0)
(63.9648 0.000387148 0)
(63.965 0.000384844 0)
(63.9653 0.000360958 0)
(63.9655 0.000325145 0)
(63.9658 0.000321466 0)
(63.9663 0.000344053 0)
(63.9666 0.000351694 0)
(63.9669 0.000354415 0)
(63.9672 0.000379179 0)
(63.9675 0.000412586 0)
(63.9678 0.000434663 0)
(63.9683 0.000438189 0)
(63.9687 0.000479437 0)
(63.9694 0.000466291 0)
(50.54 2.72965e-05 0)
(85.4445 0.000101032 0)
(73.2742 7.29351e-05 0)
(60.6308 -7.07888e-06 0)
(59.8875 8.92717e-06 0)
(63.347 9.44419e-05 0)
(64.8571 0.000153689 0)
(64.4065 0.000195571 0)
(63.79 0.000217375 0)
(63.6881 0.00019123 0)
(63.8313 0.000122353 0)
(63.9162 7.2405e-05 0)
(63.9063 0.000106742 0)
(63.8775 0.000159001 0)
(63.8694 0.000139449 0)
(63.8748 8.26425e-05 0)
(63.8793 6.69029e-05 0)
(63.8794 7.27217e-05 0)
(63.8782 4.02179e-05 0)
(63.8777 1.16428e-05 0)
(63.878 5.55991e-05 0)
(63.8784 0.000137339 0)
(63.8784 0.000200787 0)
(63.8784 0.000243414 0)
(63.8783 0.000241742 0)
(63.8784 0.000187631 0)
(63.8786 0.000150692 0)
(63.8785 0.000176787 0)
(63.8784 0.00020849 0)
(63.8785 0.000190467 0)
(63.8786 0.000154049 0)
(63.8786 0.00013198 0)
(63.8787 0.00013367 0)
(63.8786 0.000141559 0)
(63.8785 0.000139717 0)
(63.8786 0.000177889 0)
(63.8786 0.00022776 0)
(63.8787 0.000229159 0)
(63.8788 0.000236944 0)
(63.8788 0.00027741 0)
(63.8789 0.00029038 0)
(63.8789 0.000244092 0)
(63.8789 0.000171515 0)
(63.8789 0.000126899 0)
(63.8788 0.000145779 0)
(63.8788 0.000207137 0)
(63.8789 0.000249196 0)
(63.879 0.000242823 0)
(63.879 0.000208851 0)
(63.8791 0.000181836 0)
(63.879 0.000163586 0)
(63.8789 0.000161291 0)
(63.879 0.000188666 0)
(63.8791 0.00020227 0)
(63.8793 0.00017438 0)
(63.8793 0.000128216 0)
(63.8793 0.00010384 0)
(63.8793 0.000128157 0)
(63.8793 0.000189235 0)
(63.8794 0.000270386 0)
(63.8795 0.000330414 0)
(63.8794 0.000321089 0)
(63.8794 0.000266415 0)
(63.8795 0.00021038 0)
(63.8793 0.000164159 0)
(63.8793 0.000131671 0)
(63.8794 0.000115225 0)
(63.8794 0.000131 0)
(63.8794 0.000177932 0)
(63.8794 0.00020491 0)
(63.8795 0.00019695 0)
(63.8796 0.000187264 0)
(63.8798 0.000182219 0)
(63.88 0.000172094 0)
(63.8799 0.000165476 0)
(63.8799 0.000174955 0)
(63.8798 0.000188277 0)
(63.8798 0.000198332 0)
(63.8798 0.000203276 0)
(63.8799 0.000192341 0)
(63.8799 0.00019974 0)
(63.8799 0.000245821 0)
(63.88 0.000277937 0)
(63.8801 0.000264416 0)
(63.8802 0.000228167 0)
(63.8803 0.000191499 0)
(63.8802 0.000170692 0)
(63.8802 0.000191865 0)
(63.8802 0.000250042 0)
(63.8803 0.000306678 0)
(63.8804 0.000331397 0)
(63.8804 0.000303747 0)
(63.8805 0.00023252 0)
(63.8805 0.000158815 0)
(63.8804 0.000127824 0)
(63.8804 0.000159257 0)
(63.8804 0.000212246 0)
(63.8804 0.000229665 0)
(63.8805 0.000209498 0)
(63.8805 0.000191505 0)
(63.8806 0.000195078 0)
(63.8806 0.00021677 0)
(63.8807 0.000246861 0)
(63.8808 0.00025223 0)
(63.8807 0.000225596 0)
(63.8807 0.000195745 0)
(63.8806 0.000174304 0)
(63.8806 0.000170242 0)
(63.8808 0.000186843 0)
(63.8809 0.000203098 0)
(63.8809 0.000199801 0)
(63.8809 0.000183559 0)
(63.8809 0.000179326 0)
(63.881 0.000190054 0)
(63.8812 0.000195184 0)
(63.8812 0.00018956 0)
(63.8812 0.000178591 0)
(63.8811 0.000160678 0)
(63.881 0.00015669 0)
(63.8809 0.000192218 0)
(63.881 0.000257609 0)
(63.8811 0.000321061 0)
(63.8812 0.000337095 0)
(63.8812 0.000299476 0)
(63.8812 0.000257211 0)
(63.8811 0.000247361 0)
(63.8811 0.000262157 0)
(63.8811 0.000276287 0)
(63.8812 0.000281998 0)
(63.8813 0.000268364 0)
(63.8814 0.000248608 0)
(63.8814 0.000260856 0)
(63.8814 0.000278228 0)
(63.8814 0.000268689 0)
(63.8814 0.000257895 0)
(63.8815 0.00025098 0)
(63.8815 0.000234992 0)
(63.8816 0.000220592 0)
(63.8817 0.000212689 0)
(63.8817 0.000195248 0)
(63.8817 0.000161301 0)
(63.8817 0.000146714 0)
(63.8819 0.000175971 0)
(63.8819 0.000207245 0)
(63.8819 0.000221 0)
(63.8819 0.000225975 0)
(63.8819 0.00019928 0)
(63.8819 0.000163537 0)
(63.882 0.000170769 0)
(63.8822 0.000205281 0)
(63.8823 0.000233238 0)
(63.8824 0.000247216 0)
(63.8824 0.000233419 0)
(63.8823 0.000193703 0)
(63.8823 0.000168795 0)
(63.8824 0.000189256 0)
(63.8825 0.000237292 0)
(63.8826 0.000270511 0)
(63.8827 0.000275029 0)
(63.8827 0.000257701 0)
(63.8826 0.000227763 0)
(63.8826 0.000218301 0)
(63.8826 0.000243379 0)
(63.8826 0.000276943 0)
(63.8827 0.000297915 0)
(63.8827 0.000304686 0)
(63.8828 0.000306871 0)
(63.8829 0.000306218 0)
(63.8829 0.000299894 0)
(63.883 0.000290125 0)
(63.8829 0.000281667 0)
(63.8829 0.000280183 0)
(63.8829 0.0002827 0)
(63.8829 0.000289744 0)
(63.883 0.000292251 0)
(63.883 0.00026567 0)
(63.8829 0.000222904 0)
(63.8829 0.000201575 0)
(63.8829 0.000216456 0)
(63.883 0.00026507 0)
(63.8832 0.000328947 0)
(63.8833 0.000365914 0)
(63.8833 0.000337598 0)
(63.8832 0.000262377 0)
(63.8832 0.000202697 0)
(63.8833 0.000184742 0)
(63.8833 0.000194791 0)
(63.8834 0.00022286 0)
(63.8835 0.000235743 0)
(63.8834 0.00020438 0)
(63.8835 0.000174126 0)
(63.8836 0.000190486 0)
(63.8836 0.000226184 0)
(63.8837 0.00024218 0)
(63.8837 0.000231397 0)
(63.8837 0.000199556 0)
(63.8836 0.000162108 0)
(63.8837 0.000161995 0)
(63.8838 0.000218707 0)
(63.884 0.000277505 0)
(63.884 0.000285324 0)
(63.884 0.000248683 0)
(63.884 0.000200105 0)
(63.884 0.000172058 0)
(63.8839 0.000186504 0)
(63.884 0.00024208 0)
(63.884 0.000293117 0)
(63.8839 0.000294662 0)
(63.8839 0.000276402 0)
(63.8839 0.000275746 0)
(63.8839 0.000275356 0)
(63.884 0.000270462 0)
(63.884 0.000280035 0)
(63.884 0.000294582 0)
(63.884 0.000292156 0)
(63.8841 0.000278945 0)
(63.8841 0.000282711 0)
(63.8841 0.000302382 0)
(63.8841 0.000294406 0)
(63.884 0.000244842 0)
(63.884 0.000195608 0)
(63.884 0.000186836 0)
(63.884 0.00023188 0)
(63.8841 0.000310944 0)
(63.8842 0.000363593 0)
(63.8842 0.000345478 0)
(63.8842 0.000295146 0)
(63.8842 0.000279853 0)
(63.8841 0.000297558 0)
(63.8841 0.000315291 0)
(63.8842 0.000329692 0)
(63.8843 0.000330642 0)
(63.8842 0.00031038 0)
(63.8842 0.000290951 0)
(63.8842 0.000280551 0)
(63.8842 0.000269297 0)
(63.8844 0.000265791 0)
(63.8845 0.00028386 0)
(63.8847 0.000305391 0)
(63.8847 0.000293611 0)
(63.8847 0.000256741 0)
(63.8847 0.000243004 0)
(63.8848 0.000259052 0)
(63.8848 0.000274554 0)
(63.8849 0.000286719 0)
(63.885 0.000297966 0)
(63.885 0.000284886 0)
(63.885 0.000247167 0)
(63.885 0.000215846 0)
(63.8851 0.000235622 0)
(50.5398 2.71338e-05 0)
(85.4447 8.63365e-05 0)
(73.2746 0.000147896 0)
(60.6308 0.000231685 0)
(59.8874 0.000304651 0)
(63.3471 0.000310615 0)
(64.8569 0.000274421 0)
(64.4062 0.000266781 0)
(63.7901 0.000284737 0)
(63.6883 0.000324656 0)
(63.8316 0.000385619 0)
(63.9164 0.000423621 0)
(63.9065 0.000418545 0)
(63.8778 0.000383135 0)
(63.8697 0.000373798 0)
(63.8751 0.000407859 0)
(63.8796 0.000421929 0)
(63.8797 0.0003925 0)
(63.8785 0.000358496 0)
(63.8778 0.000340887 0)
(63.8779 0.00035224 0)
(63.8781 0.000368264 0)
(63.8781 0.00035713 0)
(63.8782 0.000356522 0)
(63.8783 0.000352717 0)
(63.8783 0.000330754 0)
(63.8782 0.00034858 0)
(63.8782 0.000396407 0)
(63.8784 0.000420013 0)
(63.8784 0.000397005 0)
(63.8785 0.000374796 0)
(63.8785 0.000400408 0)
(63.8785 0.000450751 0)
(63.8785 0.000479014 0)
(63.8785 0.000448414 0)
(63.8785 0.000387324 0)
(63.8786 0.000331118 0)
(63.8787 0.000298489 0)
(63.8786 0.000319459 0)
(63.8786 0.000360907 0)
(63.8786 0.000377165 0)
(63.8787 0.000375775 0)
(63.8788 0.000389626 0)
(63.8788 0.000429661 0)
(63.8787 0.000458478 0)
(63.8787 0.000434474 0)
(63.8788 0.000366699 0)
(63.8788 0.00030125 0)
(63.8789 0.000272327 0)
(63.879 0.000315999 0)
(63.8791 0.000408273 0)
(63.879 0.000452601 0)
(63.8791 0.000429041 0)
(63.8791 0.00038021 0)
(63.8791 0.000350489 0)
(63.8792 0.00035886 0)
(63.8791 0.000369427 0)
(63.8791 0.000370377 0)
(63.8791 0.000377338 0)
(63.8792 0.000394337 0)
(63.8792 0.000405154 0)
(63.8794 0.000377507 0)
(63.8795 0.000336754 0)
(63.8795 0.000345002 0)
(63.8796 0.000379785 0)
(63.8796 0.000376116 0)
(63.8796 0.00035588 0)
(63.8796 0.000368189 0)
(63.8796 0.000384994 0)
(63.8797 0.000365201 0)
(63.8797 0.000328281 0)
(63.8796 0.00030274 0)
(63.8796 0.000303895 0)
(63.8797 0.000340716 0)
(63.8797 0.000379469 0)
(63.8798 0.000391074 0)
(63.8799 0.000378568 0)
(63.8799 0.000350847 0)
(63.8799 0.000339006 0)
(63.8799 0.00034952 0)
(63.8798 0.00035426 0)
(63.8798 0.000337956 0)
(63.8799 0.000304794 0)
(63.8799 0.000270266 0)
(63.8799 0.000254828 0)
(63.88 0.000285276 0)
(63.88 0.000349673 0)
(63.88 0.000387564 0)
(63.88 0.000375566 0)
(63.88 0.000346024 0)
(63.88 0.00032235 0)
(63.8801 0.000314479 0)
(63.8802 0.00033703 0)
(63.8802 0.000359511 0)
(63.8803 0.000349234 0)
(63.8804 0.000338357 0)
(63.8805 0.000344288 0)
(63.8806 0.000348796 0)
(63.8806 0.000345895 0)
(63.8805 0.000336101 0)
(63.8806 0.000318213 0)
(63.8805 0.000303392 0)
(63.8806 0.000317064 0)
(63.8807 0.000350318 0)
(63.8808 0.000368436 0)
(63.8809 0.000357876 0)
(63.8809 0.000325677 0)
(63.8809 0.000304741 0)
(63.8808 0.000317301 0)
(63.8808 0.000348741 0)
(63.8808 0.000367869 0)
(63.8809 0.000350293 0)
(63.8809 0.000304967 0)
(63.8809 0.000264761 0)
(63.8809 0.000261495 0)
(63.881 0.000310282 0)
(63.8811 0.000392345 0)
(63.8811 0.000463379 0)
(63.8811 0.000484074 0)
(63.8811 0.0004425 0)
(63.881 0.00037617 0)
(63.8811 0.000339395 0)
(63.8811 0.000326267 0)
(63.8812 0.000321733 0)
(63.8813 0.000331851 0)
(63.8813 0.000331664 0)
(63.8814 0.000312007 0)
(63.8814 0.00029317 0)
(63.8814 0.000293596 0)
(63.8814 0.000311046 0)
(63.8815 0.000324046 0)
(63.8815 0.000338702 0)
(63.8817 0.000355316 0)
(63.8816 0.000349347 0)
(63.8816 0.000328877 0)
(63.8816 0.000315913 0)
(63.8816 0.000305535 0)
(63.8816 0.000291469 0)
(63.8817 0.0002898 0)
(63.8818 0.000306783 0)
(63.8818 0.000314531 0)
(63.8817 0.00030805 0)
(63.8817 0.000318981 0)
(63.8817 0.000334931 0)
(63.8818 0.000336808 0)
(63.8819 0.000346308 0)
(63.882 0.000349806 0)
(63.8819 0.000327293 0)
(63.8819 0.000303094 0)
(63.8818 0.00028934 0)
(63.8818 0.000276946 0)
(63.8819 0.000281084 0)
(63.882 0.000315613 0)
(63.8821 0.000345624 0)
(63.882 0.000334883 0)
(63.882 0.0003013 0)
(63.882 0.000278071 0)
(63.8819 0.000275407 0)
(63.882 0.000303203 0)
(63.8821 0.000356351 0)
(63.8822 0.00039336 0)
(63.8822 0.000396218 0)
(63.8823 0.000380315 0)
(63.8822 0.000354798 0)
(63.8822 0.000322572 0)
(63.8823 0.000283904 0)
(63.8823 0.00025567 0)
(63.8823 0.00025612 0)
(63.8824 0.000278496 0)
(63.8824 0.000310427 0)
(63.8825 0.000337282 0)
(63.8825 0.000344833 0)
(63.8826 0.000332805 0)
(63.8826 0.000325138 0)
(63.8827 0.000342114 0)
(63.8828 0.000363782 0)
(63.8828 0.000368559 0)
(63.8828 0.000353457 0)
(63.8827 0.000316214 0)
(63.8826 0.000272846 0)
(63.8826 0.000260851 0)
(63.8827 0.000301092 0)
(63.8828 0.000359767 0)
(63.8828 0.000386677 0)
(63.8828 0.000382071 0)
(63.8828 0.000364909 0)
(63.8828 0.000341678 0)
(63.8828 0.00033914 0)
(63.8829 0.000364041 0)
(63.8829 0.000366406 0)
(63.8829 0.000330328 0)
(63.8829 0.000300288 0)
(63.8829 0.00029829 0)
(63.883 0.000310808 0)
(63.8831 0.000329866 0)
(63.8831 0.000345697 0)
(63.8831 0.000326605 0)
(63.8831 0.000269033 0)
(63.883 0.000221276 0)
(63.8831 0.000212681 0)
(63.8831 0.000239855 0)
(63.8832 0.000291578 0)
(63.8833 0.000341831 0)
(63.8834 0.00036698 0)
(63.8834 0.000365841 0)
(63.8834 0.000363838 0)
(63.8834 0.000375648 0)
(63.8835 0.000373723 0)
(63.8834 0.000349307 0)
(63.8835 0.00032864 0)
(63.8835 0.000314219 0)
(63.8836 0.000301722 0)
(63.8836 0.000305953 0)
(63.8837 0.000322682 0)
(63.8837 0.000322458 0)
(63.8838 0.000295653 0)
(63.8839 0.000273169 0)
(63.884 0.000283522 0)
(63.8841 0.000307184 0)
(63.8842 0.000314051 0)
(63.8843 0.000303649 0)
(63.8843 0.000274627 0)
(63.8842 0.00023215 0)
(63.8842 0.000220172 0)
(63.8843 0.000260731 0)
(63.8844 0.000306051 0)
(63.8845 0.000322823 0)
(63.8846 0.000333079 0)
(63.8846 0.000336063 0)
(63.8845 0.000319391 0)
(63.8845 0.000311277 0)
(63.8845 0.000320659 0)
(63.8845 0.000323021 0)
(63.8846 0.000316031 0)
(63.8847 0.000304642 0)
(63.8847 0.000278157 0)
(63.8847 0.000235939 0)
(63.8847 0.000214633 0)
(63.8847 0.000246756 0)
(63.8847 0.000291044 0)
(63.8847 0.000293978 0)
(63.8847 0.000272847 0)
(63.8848 0.000253659 0)
(63.8848 0.000231211 0)
(63.8848 0.000221109 0)
(63.8848 0.000248256 0)
(63.8849 0.000298684 0)
(63.8849 0.000334451 0)
(63.8849 0.000337376 0)
(63.885 0.000334288 0)
(50.5399 -1.53417e-05 0)
(85.4447 -1.96145e-05 0)
(73.2743 0.000104457 0)
(60.6307 0.000217063 0)
(59.8874 0.000187149 0)
(63.3471 0.000137838 0)
(64.857 0.000141258 0)
(64.4062 0.000131035 0)
(63.7897 7.85441e-05 0)
(63.6877 7.70936e-05 0)
(63.8309 0.000161683 0)
(63.9158 0.000209441 0)
(63.9061 0.000163669 0)
(63.8774 0.000122838 0)
(63.8692 0.00013779 0)
(63.8746 0.000164163 0)
(63.8793 0.000160622 0)
(63.8795 0.00013473 0)
(63.8783 0.000142239 0)
(63.8778 0.000183006 0)
(63.8779 0.000201086 0)
(63.8783 0.000188125 0)
(63.8783 0.000150226 0)
(63.8782 0.000129439 0)
(63.8782 0.000158567 0)
(63.8781 0.000192062 0)
(63.8781 0.00019176 0)
(63.8782 0.000151921 0)
(63.8783 0.000111087 0)
(63.8783 0.000102924 0)
(63.8783 0.000110019 0)
(63.8784 0.000127543 0)
(63.8785 0.000152423 0)
(63.8785 0.000164175 0)
(63.8786 0.000148141 0)
(63.8787 0.000132206 0)
(63.8787 0.00017129 0)
(63.8786 0.00026397 0)
(63.8786 0.000323622 0)
(63.8786 0.000270773 0)
(63.8788 0.000168968 0)
(63.8788 0.000123225 0)
(63.8787 0.000157611 0)
(63.8787 0.000217995 0)
(63.8787 0.000212159 0)
(63.8789 0.000151178 0)
(63.8789 0.000111133 0)
(63.8789 0.000106488 0)
(63.8789 0.000111077 0)
(63.8788 0.00012006 0)
(63.8789 0.000150402 0)
(63.879 0.000172074 0)
(63.879 0.000152495 0)
(63.8791 0.000118684 0)
(63.8792 0.000101984 0)
(63.8792 0.000110266 0)
(63.8793 0.000145605 0)
(63.8794 0.000189174 0)
(63.8793 0.000199645 0)
(63.8793 0.000184239 0)
(63.8793 0.00016883 0)
(63.8793 0.000149563 0)
(63.8793 0.000136201 0)
(63.8793 0.000120401 0)
(63.8793 9.55387e-05 0)
(63.8794 9.53164e-05 0)
(63.8795 0.0001291 0)
(63.8794 0.000178052 0)
(63.8795 0.000216691 0)
(63.8796 0.000218133 0)
(63.8796 0.000185471 0)
(63.8797 0.000142258 0)
(63.8797 0.000112314 0)
(63.8797 0.000105834 0)
(63.8797 0.000102224 0)
(63.8798 0.000102344 0)
(63.8798 0.000116566 0)
(63.8798 0.000135679 0)
(63.8799 0.000181714 0)
(63.8799 0.000242573 0)
(63.8799 0.000259301 0)
(63.88 0.000231859 0)
(63.8801 0.000194689 0)
(63.8801 0.00016136 0)
(63.8801 0.000144467 0)
(63.8801 0.000165885 0)
(63.8801 0.000216543 0)
(63.8801 0.000252216 0)
(63.8802 0.000256704 0)
(63.8801 0.000241855 0)
(63.8801 0.000204358 0)
(63.8801 0.000149699 0)
(63.8801 0.000106326 0)
(63.8803 7.85686e-05 0)
(63.8803 5.94445e-05 0)
(63.8802 5.82408e-05 0)
(63.8803 7.25787e-05 0)
(63.8803 0.000102553 0)
(63.8804 0.000142881 0)
(63.8805 0.000174613 0)
(63.8805 0.000192184 0)
(63.8805 0.000180159 0)
(63.8805 0.000148318 0)
(63.8806 0.000138139 0)
(63.8806 0.000148639 0)
(63.8806 0.000156906 0)
(63.8806 0.000155131 0)
(63.8807 0.000144812 0)
(63.8808 0.000138688 0)
(63.8809 0.00016132 0)
(63.8809 0.00021031 0)
(63.8809 0.000235243 0)
(63.881 0.00021021 0)
(63.881 0.000159057 0)
(63.881 0.000115633 0)
(63.881 0.000101252 0)
(63.881 0.000118479 0)
(63.8811 0.000158959 0)
(63.8812 0.000205891 0)
(63.8813 0.000227935 0)
(63.8813 0.000212793 0)
(63.8812 0.000188718 0)
(63.8813 0.000168021 0)
(63.8812 0.000156892 0)
(63.8813 0.00017555 0)
(63.8813 0.000205008 0)
(63.8813 0.000220319 0)
(63.8813 0.000214868 0)
(63.8813 0.000201936 0)
(63.8813 0.000204378 0)
(63.8812 0.000200042 0)
(63.8812 0.000188112 0)
(63.8813 0.000201712 0)
(63.8813 0.000223174 0)
(63.8813 0.000229499 0)
(63.8814 0.000228594 0)
(63.8814 0.000210448 0)
(63.8815 0.000162746 0)
(63.8815 0.000118578 0)
(63.8816 0.000123754 0)
(63.8816 0.000160438 0)
(63.8817 0.000176328 0)
(63.8818 0.0001743 0)
(63.8819 0.000169035 0)
(63.8819 0.000156443 0)
(63.8819 0.000165452 0)
(63.882 0.000199481 0)
(63.882 0.000218326 0)
(63.8821 0.000213781 0)
(63.8822 0.000197603 0)
(63.8822 0.00016644 0)
(63.8822 0.000128057 0)
(63.8822 0.000119766 0)
(63.8823 0.000153595 0)
(63.8823 0.000193289 0)
(63.8824 0.000218601 0)
(63.8824 0.000234452 0)
(63.8824 0.000229423 0)
(63.8824 0.000206748 0)
(63.8824 0.000198215 0)
(63.8824 0.000201721 0)
(63.8824 0.000196667 0)
(63.8824 0.000193 0)
(63.8825 0.000204831 0)
(63.8825 0.000228784 0)
(63.8826 0.000246581 0)
(63.8825 0.000243759 0)
(63.8825 0.000224103 0)
(63.8825 0.000202357 0)
(63.8825 0.000194925 0)
(63.8825 0.000202608 0)
(63.8825 0.000213024 0)
(63.8825 0.000204352 0)
(63.8825 0.0001714 0)
(63.8825 0.000154883 0)
(63.8826 0.000179374 0)
(63.8827 0.000226139 0)
(63.8828 0.000276752 0)
(63.8828 0.000308868 0)
(63.8828 0.000300112 0)
(63.8828 0.00026075 0)
(63.8828 0.0002291 0)
(63.8828 0.000224815 0)
(63.8829 0.00022714 0)
(63.8829 0.000224936 0)
(63.8829 0.000223444 0)
(63.883 0.000203648 0)
(63.883 0.000171749 0)
(63.8831 0.000172691 0)
(63.8831 0.000195438 0)
(63.8831 0.000189686 0)
(63.8832 0.000157903 0)
(63.8832 0.000131125 0)
(63.8832 0.000116565 0)
(63.8832 0.00011797 0)
(63.8833 0.000148576 0)
(63.8834 0.00018759 0)
(63.8834 0.00019248 0)
(63.8835 0.000170232 0)
(63.8835 0.000152905 0)
(63.8835 0.000146723 0)
(63.8835 0.000147454 0)
(63.8836 0.000155223 0)
(63.8836 0.000169016 0)
(63.8836 0.000173865 0)
(63.8837 0.000172063 0)
(63.8838 0.000197015 0)
(63.8838 0.000237957 0)
(63.8838 0.000249439 0)
(63.8839 0.000231715 0)
(63.8839 0.00020667 0)
(63.8839 0.000179265 0)
(63.884 0.000156144 0)
(63.884 0.000148252 0)
(63.8841 0.000153444 0)
(63.8841 0.000150952 0)
(63.8841 0.000127916 0)
(63.8841 0.000104073 0)
(63.8841 0.000101341 0)
(63.8842 0.000123084 0)
(63.8842 0.000168937 0)
(63.8843 0.000216128 0)
(63.8843 0.000223296 0)
(63.8843 0.0001948 0)
(63.8843 0.000182798 0)
(63.8843 0.000203313 0)