/*--------------------------------*- C++ -*----------------------------------*\
| =========                 |                                                 |
| \\      /  F ield         | OpenFOAM: The Open Source CFD Toolbox           |
|  \\    /   O peration     | Version:  2406                                  |
|   \\  /    A nd           | Website:  www.openfoam.com                      |
|    \\/     M anipulation  |                                                 |
\*---------------------------------------------------------------------------*/
FoamFile
{
    version     2.0;
    format      ascii;
    arch        "LSB;label=32;scalar=64";
    class       surfaceScalarField;
    location    "1.5";
    object      alphaPhi0.air;
}
// * * * * * * * * * * * * * * * * * * * * * * * * * * * * * * * * * * * * * //

dimensions      [0 3 -1 0 0 0 0];

oriented        oriented;

internalField   nonuniform List<scalar> 
12225
(
0.510917
1.56412e-06
0.510911
5.86326e-06
0.510904
6.833e-06
0.510899
5.19913e-06
0.510894
4.62448e-06
0.510889
4.8297e-06
0.510884
5.28115e-06
0.510878
5.68611e-06
0.510873
5.63593e-06
0.510867
5.50587e-06
0.510862
5.45943e-06
0.510856
5.39234e-06
0.510851
5.4985e-06
0.510845
5.67628e-06
0.510839
5.59904e-06
0.510834
5.56915e-06
0.510828
5.74953e-06
0.510822
5.68303e-06
0.510817
5.36603e-06
0.510812
4.83751e-06
0.510808
4.37361e-06
0.510803
4.70409e-06
0.510798
5.47629e-06
0.510792
6.06955e-06
0.510785
6.17633e-06
0.510779
6.25533e-06
0.510773
6.53549e-06
0.510767
5.95915e-06
0.510761
5.23129e-06
0.510756
5.20779e-06
0.510751
5.40124e-06
0.510745
5.49875e-06
0.51074
5.17673e-06
0.510735
4.75588e-06
0.510731
4.89183e-06
0.510725
5.65802e-06
0.510718
6.38327e-06
0.510712
6.41921e-06
0.510706
6.21284e-06
0.5107
6.14706e-06
0.510694
5.74265e-06
0.510689
4.77362e-06
0.510685
3.92512e-06
0.510681
3.94024e-06
0.510677
4.41678e-06
0.510672
4.7881e-06
0.510667
5.27544e-06
0.510661
5.74441e-06
0.510655
5.70693e-06
0.51065
5.59524e-06
0.510644
5.78986e-06
0.510638
6.05921e-06
0.510632
6.36822e-06
0.510625
6.39244e-06
0.510619
5.89096e-06
0.510614
5.22005e-06
0.51061
4.57449e-06
0.510605
4.19402e-06
0.510601
4.32717e-06
0.510596
4.94851e-06
0.51059
5.69195e-06
0.510584
6.05183e-06
0.510578
6.03758e-06
0.510572
5.77836e-06
0.510567
5.55908e-06
0.510561
5.6816e-06
0.510555
5.85714e-06
0.510549
5.92453e-06
0.510544
5.66836e-06
0.510539
5.04211e-06
0.510534
4.65705e-06
0.510529
4.89854e-06
0.510524
5.63395e-06
0.510517
6.20616e-06
0.510511
6.28156e-06
0.510505
6.09745e-06
0.510499
5.76167e-06
0.510494
5.63867e-06
0.510488
5.81172e-06
0.510482
5.87913e-06
0.510476
5.62129e-06
0.510471
5.12063e-06
0.510466
4.84469e-06
0.510461
4.99303e-06
0.510456
5.37007e-06
0.51045
5.71472e-06
0.510445
5.71758e-06
0.510439
5.54562e-06
0.510434
5.31079e-06
0.510429
5.07083e-06
0.510423
5.13732e-06
0.510418
5.43403e-06
0.510412
5.72579e-06
0.510406
5.92973e-06
0.5104
5.95105e-06
0.510395
5.70119e-06
0.510389
5.25994e-06
0.510385
4.88207e-06
0.51038
4.70988e-06
0.510375
4.86827e-06
0.51037
5.32084e-06
0.510364
5.6759e-06
0.510358
5.77175e-06
0.510353
5.63493e-06
0.510347
5.30486e-06
0.510342
4.99124e-06
0.510337
4.85913e-06
0.510332
5.06261e-06
0.510327
5.59894e-06
0.510321
6.04815e-06
0.510315
6.1071e-06
0.510309
5.9118e-06
0.510303
5.61935e-06
0.510298
5.32331e-06
0.510293
5.13368e-06
0.510288
5.09325e-06
0.510282
5.1588e-06
0.510277
5.20055e-06
0.510272
5.30902e-06
0.510266
5.63742e-06
0.51026
5.94154e-06
0.510254
6.04218e-06
0.510248
6.02567e-06
0.510242
5.88309e-06
0.510237
5.63667e-06
0.510231
5.42481e-06
0.510226
5.30863e-06
0.510221
5.1817e-06
0.510216
4.97915e-06
0.510211
4.89185e-06
0.510206
5.14117e-06
0.5102
5.66136e-06
0.510194
6.08725e-06
0.510188
6.06494e-06
0.510182
5.65961e-06
0.510177
5.24482e-06
0.510172
5.0616e-06
0.510167
5.06839e-06
0.510162
5.20271e-06
0.510156
5.44276e-06
0.510151
5.57848e-06
0.510145
5.41261e-06
0.51014
5.02867e-06
0.510136
4.61724e-06
0.510131
4.45847e-06
0.510126
4.77893e-06
0.510121
5.3639e-06
0.510115
5.77659e-06
0.510109
5.9002e-06
0.510103
5.92169e-06
0.510098
5.87039e-06
0.510092
5.66701e-06
0.510086
5.44706e-06
0.510081
5.25531e-06
0.510076
4.99708e-06
0.510071
4.86413e-06
0.510066
4.96307e-06
0.510061
5.11806e-06
0.510056
5.27511e-06
0.510051
5.40826e-06
0.510045
5.43903e-06
0.51004
5.39278e-06
0.510034
5.38553e-06
0.510029
5.47423e-06
0.510023
5.59176e-06
0.510018
5.64379e-06
0.510012
5.58874e-06
0.510007
5.47871e-06
0.510001
5.39013e-06
0.509996
5.30649e-06
0.509991
5.23863e-06
0.509985
5.25272e-06
0.50998
5.30155e-06
0.509975
5.21747e-06
0.50997
5.04147e-06
0.509965
5.03081e-06
0.50996
5.2564e-06
0.509954
5.58586e-06
0.509948
5.81171e-06
0.509942
5.792e-06
0.509937
5.62035e-06
0.509931
5.433e-06
0.509926
5.34421e-06
0.509921
5.38067e-06
0.509915
5.43799e-06
0.50991
5.4835e-06
0.509904
5.51588e-06
0.509899
5.49652e-06
0.509893
5.4362e-06
0.509888
5.43047e-06
0.509882
5.52612e-06
0.509877
5.51993e-06
0.509871
5.32976e-06
0.509866
5.27683e-06
0.509861
5.49616e-06
0.509855
5.74422e-06
0.509849
5.7301e-06
0.509844
5.36424e-06
0.509839
4.90587e-06
0.509834
4.66928e-06
0.509829
4.74425e-06
0.509824
5.00275e-06
0.509819
5.23037e-06
0.509814
5.37447e-06
0.509808
5.51095e-06
0.509803
5.59856e-06
0.509797
5.58566e-06
0.509792
5.4924e-06
0.509786
5.406e-06
0.509781
5.45649e-06
0.509775
5.61048e-06
0.50977
5.65425e-06
0.509764
5.50732e-06
0.509759
5.29734e-06
0.509754
5.13035e-06
0.509749
5.03059e-06
0.509744
5.05089e-06
0.509738
5.12002e-06
0.509733
5.14648e-06
0.509728
5.2673e-06
0.509722
5.52522e-06
0.509717
5.73973e-06
0.509711
5.82617e-06
0.509705
5.79922e-06
0.509699
5.66555e-06
0.509694
5.50412e-06
0.509688
5.43033e-06
0.509683
5.45797e-06
0.509678
5.49913e-06
0.509672
5.45945e-06
0.509667
5.29369e-06
0.509662
5.08017e-06
0.509657
5.07108e-06
0.509651
5.35348e-06
0.509646
5.62157e-06
0.50964
5.76399e-06
0.509634
5.94569e-06
0.509628
6.07308e-06
0.509622
5.99029e-06
0.509616
5.70848e-06
0.509611
5.29586e-06
0.509606
4.94596e-06
0.509601
4.90113e-06
0.509596
5.17602e-06
0.50959
5.45259e-06
0.509585
5.55213e-06
0.509579
5.73134e-06
0.509573
5.99291e-06
0.509567
6.47281e-06
5.69452e-06
0.510922
-3.41677e-10
0.510927
4.41447e-07
0.510932
1.64444e-06
0.510935
2.26674e-06
0.510938
2.42186e-06
0.51094
2.51486e-06
0.510943
2.33691e-06
0.510946
2.28084e-06
0.510949
2.44239e-06
0.510952
2.4488e-06
0.510956
2.35272e-06
0.510959
2.28698e-06
0.510962
2.00303e-06
0.510966
1.86101e-06
0.510969
2.38139e-06
0.510972
2.54239e-06
0.510976
2.26211e-06
0.510979
2.54254e-06
0.510981
2.98715e-06
0.510983
3.35316e-06
0.510983
3.55453e-06
0.510985
3.11024e-06
0.510988
2.17959e-06
0.510993
1.89797e-06
0.510996
2.6492e-06
0.511
2.75831e-06
0.511004
2.30082e-06
0.511008
2.1533e-06
0.511011
2.13096e-06
0.511014
1.83325e-06
0.511018
1.50438e-06
0.511022
1.93753e-06
0.511024
2.69806e-06
0.511026
2.95489e-06
0.511028
2.94145e-06
0.511031
2.77548e-06
0.511035
2.38906e-06
0.511039
2.10299e-06
0.511043
2.26158e-06
0.511047
2.53974e-06
0.511049
2.80094e-06
0.511051
3.35088e-06
0.511051
3.411e-06
0.511053
2.47335e-06
0.511055
1.82983e-06
0.511058
1.81739e-06
0.511062
1.80785e-06
0.511065
2.2761e-06
0.511068
3.01598e-06
0.511071
2.91852e-06
0.511074
2.35947e-06
0.511078
1.95986e-06
0.511083
1.74346e-06
0.511087
2.03054e-06
0.511091
2.55882e-06
0.511093
2.7712e-06
0.511095
2.82179e-06
0.511096
3.01503e-06
0.511097
3.03397e-06
0.5111
2.65474e-06
0.511103
2.44696e-06
0.511106
2.73269e-06
0.511109
2.9708e-06
0.511112
2.72677e-06
0.511115
2.30591e-06
0.511119
2.14841e-06
0.511123
2.09391e-06
0.511127
2.20079e-06
0.51113
2.46562e-06
0.511132
2.53303e-06
0.511134
2.64918e-06
0.511136
2.77027e-06
0.511139
2.60518e-06
0.511143
2.40058e-06
0.511147
2.28936e-06
0.511151
2.381e-06
0.511154
2.63775e-06
0.511157
2.83715e-06
0.51116
2.85652e-06
0.511163
2.58783e-06
0.511166
2.2832e-06
0.511169
2.06352e-06
0.511172
1.90467e-06
0.511175
1.99648e-06
0.511178
2.41387e-06
0.511181
3.01178e-06
0.511183
3.3127e-06
0.511186
3.15734e-06
0.511188
2.87249e-06
0.511191
2.54364e-06
0.511194
2.30303e-06
0.511197
2.34752e-06
0.5112
2.4587e-06
0.511204
2.37177e-06
0.511207
2.28285e-06
0.511211
2.37388e-06
0.511213
2.39573e-06
0.511216
2.44214e-06
0.511218
2.65129e-06
0.51122
2.64258e-06
0.511223
2.4737e-06
0.511226
2.52692e-06
0.511229
2.64592e-06
0.511232
2.59703e-06
0.511235
2.49179e-06
0.511238
2.48944e-06
0.51124
2.53235e-06
0.511243
2.49103e-06
0.511246
2.47769e-06
0.511249
2.56618e-06
0.511253
2.70538e-06
0.511255
2.95245e-06
0.511258
3.09963e-06
0.511261
2.82202e-06
0.511263
2.38912e-06
0.511266
2.22332e-06
0.511269
2.33706e-06
0.511272
2.50036e-06
0.511274
2.51354e-06
0.511278
2.41442e-06
0.511281
2.29378e-06
0.511285
2.15515e-06
0.511289
2.04997e-06
0.511293
2.08831e-06
0.511296
2.35151e-06
0.511299
2.69753e-06
0.511301
2.91509e-06
0.511304
2.93937e-06
0.511306
2.82493e-06
0.511308
2.66623e-06
0.511311
2.49338e-06
0.511314
2.32069e-06
0.511318
2.23886e-06
0.511322
2.31625e-06
0.511325
2.43168e-06
0.511328
2.39458e-06
0.51133
2.30572e-06
0.511333
2.24842e-06
0.511336
2.18793e-06
0.511339
2.20827e-06
0.511343
2.34811e-06
0.511346
2.5029e-06
0.511348
2.6453e-06
0.51135
2.72536e-06
0.511352
2.55951e-06
0.511354
2.23196e-06
0.511358
2.11993e-06
0.511361
2.3483e-06
0.511364
2.61893e-06
0.511368
2.65844e-06
0.511371
2.52995e-06
0.511374
2.40717e-06
0.511377
2.41424e-06
0.51138
2.60621e-06
0.511382
2.70619e-06
0.511384
2.55771e-06
0.511387
2.48418e-06
0.511389
2.56048e-06
0.511392
2.52835e-06
0.511395
2.39016e-06
0.511398
2.34325e-06
0.511401
2.411e-06
0.511404
2.47796e-06
0.511407
2.50539e-06
0.51141
2.4571e-06
0.511414
2.36242e-06
0.511417
2.37784e-06
0.51142
2.4777e-06
0.511423
2.54068e-06
0.511425
2.56632e-06
0.511428
2.58762e-06
0.511431
2.59096e-06
0.511433
2.63088e-06
0.511436
2.73205e-06
0.511438
2.79547e-06
0.51144
2.79531e-06
0.511443
2.70058e-06
0.511446
2.51512e-06
0.511449
2.46685e-06
0.511453
2.62308e-06
0.511455
2.78015e-06
0.511458
2.77303e-06
0.511461
2.5704e-06
0.511464
2.34232e-06
0.511467
2.24238e-06
0.51147
2.27227e-06
0.511473
2.34011e-06
0.511477
2.39418e-06
0.51148
2.41167e-06
0.511483
2.32792e-06
0.511486
2.26321e-06
0.511489
2.35825e-06
0.511492
2.39893e-06
0.511495
2.25906e-06
0.511498
2.11908e-06
0.511502
2.12877e-06
0.511505
2.32976e-06
0.511508
2.57883e-06
0.51151
2.65233e-06
0.511513
2.52851e-06
0.511515
2.38375e-06
0.511518
2.3854e-06
0.51152
2.47687e-06
0.511523
2.54564e-06
0.511526
2.57962e-06
0.511529
2.60626e-06
0.511532
2.66676e-06
0.511535
2.68364e-06
0.511538
2.51268e-06
0.511541
2.26877e-06
0.511544
2.2172e-06
0.511548
2.41254e-06
0.51155
2.67376e-06
0.511553
2.79703e-06
0.511555
2.75945e-06
0.511558
2.67971e-06
0.51156
2.67383e-06
0.511562
2.72356e-06
0.511565
2.6646e-06
0.511568
2.48276e-06
0.511571
2.31785e-06
0.511574
2.20154e-06
0.511578
2.17386e-06
0.511581
2.31327e-06
0.511585
2.52164e-06
0.511588
2.62578e-06
0.51159
2.62144e-06
0.511593
2.65984e-06
0.511596
2.78425e-06
0.511598
2.84656e-06
0.511601
2.82683e-06
0.511603
2.85058e-06
0.511605
2.85572e-06
0.511608
2.75098e-06
0.511611
2.54982e-06
0.511615
2.22163e-06
0.511619
1.88191e-06
0.511623
1.83059e-06
0.511627
2.08831e-06
0.51163
2.38635e-06
0.511633
2.50183e-06
0.511635
2.41473e-06
0.511638
2.33293e-06
0.511641
2.42641e-06
0.511644
2.56434e-06
0.511647
2.52833e-06
0.51165
2.40023e-06
0.511654
2.4285e-06
0.511658
2.51207e-06
2.72977e-06
0.51092
2.95542e-07
0.51092
6.24226e-07
0.51092
1.30628e-06
0.51092
2.02775e-06
0.510921
1.81358e-06
0.510922
1.35495e-06
0.510923
1.47779e-06
0.510923
1.9438e-06
0.510924
2.02123e-06
0.510924
2.09447e-06
0.510924
2.21529e-06
0.510924
2.02472e-06
0.510924
1.97953e-06
0.510924
2.14175e-06
0.510924
2.22243e-06
0.510925
2.09179e-06
0.510925
2.06558e-06
0.510925
2.19947e-06
0.510926
2.06909e-06
0.510927
2.08864e-06
0.510929
2.11613e-06
0.51093
2.26642e-06
0.510929
2.60782e-06
0.510929
2.10268e-06
0.51093
1.80135e-06
0.51093
2.58397e-06
0.510929
3.32936e-06
0.510928
3.25455e-06
0.510928
2.28935e-06
0.510928
1.4969e-06
0.510928
1.74867e-06
0.510928
2.31738e-06
0.510928
2.34623e-06
0.510929
2.04428e-06
0.51093
1.98748e-06
0.51093
2.29638e-06
0.51093
2.71518e-06
0.510929
2.79702e-06
0.510929
2.37788e-06
0.51093
1.97856e-06
0.510931
1.96231e-06
0.510932
2.22701e-06
0.510932
2.71551e-06
0.510932
2.90994e-06
0.510932
2.24242e-06
0.510932
1.41272e-06
0.510932
1.36349e-06
0.510933
1.95953e-06
0.510933
2.60591e-06
0.510933
2.92156e-06
0.510933
2.91254e-06
0.510932
2.75651e-06
0.510931
2.46871e-06
0.510931
2.16041e-06
0.510931
2.06277e-06
0.510932
2.1666e-06
0.510933
2.22731e-06
0.510933
2.28505e-06
0.510934
2.32783e-06
0.510935
2.13802e-06
0.510935
1.93371e-06
0.510936
1.98456e-06
0.510937
2.24235e-06
0.510937
2.5987e-06
0.510936
2.67692e-06
0.510936
2.45602e-06
0.510936
2.08137e-06
0.510937
1.59952e-06
0.510938
1.45169e-06
0.510938
1.81564e-06
0.510939
2.32323e-06
0.510939
2.55788e-06
0.510939
2.55142e-06
0.510939
2.54674e-06
0.510939
2.38382e-06
0.510939
2.2628e-06
0.510939
2.35102e-06
0.51094
2.36117e-06
0.51094
2.34208e-06
0.51094
2.22287e-06
0.510941
1.84155e-06
0.510941
1.51007e-06
0.510942
1.55909e-06
0.510942
1.91774e-06
0.510942
2.2598e-06
0.510943
2.49368e-06
0.510943
2.54013e-06
0.510944
2.23228e-06
0.510945
1.79513e-06
0.510946
1.61389e-06
0.510947
1.84155e-06
0.510947
2.24314e-06
0.510947
2.56919e-06
0.510946
2.76709e-06
0.510946
2.65317e-06
0.510946
2.35595e-06
0.510946
2.2148e-06
0.510946
2.21529e-06
0.510947
2.3647e-06
0.510947
2.6175e-06
0.510946
2.6708e-06
0.510946
2.51699e-06
0.510947
2.42104e-06
0.510947
2.31593e-06
0.510947
2.08813e-06
0.510948
2.04891e-06
0.510948
2.26212e-06
0.510948
2.36197e-06
0.510948
2.36782e-06
0.510948
2.45937e-06
0.510949
2.3817e-06
0.51095
2.12078e-06
0.510951
2.09095e-06
0.510951
2.27914e-06
0.510951
2.32628e-06
0.510951
2.13467e-06
0.510952
1.95339e-06
0.510952
1.99049e-06
0.510952
2.2111e-06
0.510953
2.39311e-06
0.510953
2.29701e-06
0.510953
2.03515e-06
0.510953
1.9683e-06
0.510953
2.05838e-06
0.510953
2.12635e-06
0.510953
2.19179e-06
0.510954
2.23697e-06
0.510955
2.29156e-06
0.510955
2.35406e-06
0.510956
2.24226e-06
0.510956
1.9962e-06
0.510957
1.94035e-06
0.510957
2.10856e-06
0.510957
2.28969e-06
0.510957
2.43476e-06
0.510957
2.56776e-06
0.510956
2.72213e-06
0.510956
2.87582e-06
0.510955
2.7906e-06
0.510955
2.47323e-06
0.510955
2.25286e-06
0.510955
2.18137e-06
0.510956
2.17145e-06
0.510956
2.28691e-06
0.510956
2.40809e-06
0.510956
2.41683e-06
0.510956
2.41621e-06
0.510956
2.39854e-06
0.510956
2.35892e-06
0.510956
2.448e-06
0.510956
2.62522e-06
0.510956
2.67396e-06
0.510956
2.53233e-06
0.510956
2.43229e-06
0.510956
2.52789e-06
0.510956
2.5732e-06
0.510956
2.35657e-06
0.510957
2.06441e-06
0.510957
1.97369e-06
0.510957
2.07263e-06
0.510958
2.14155e-06
0.510958
2.09908e-06
0.510958
2.06014e-06
0.510959
2.16972e-06
0.510959
2.36256e-06
0.510959
2.33971e-06
0.510959
2.0568e-06
0.51096
1.85148e-06
0.51096
1.88511e-06
0.510961
1.96174e-06
0.510962
1.93735e-06
0.510962
1.86121e-06
0.510963
1.90591e-06
0.510964
2.15704e-06
0.510964
2.36881e-06
0.510964
2.40167e-06
0.510965
2.46902e-06
0.510965
2.55942e-06
0.510965
2.50101e-06
0.510965
2.35372e-06
0.510965
2.27397e-06
0.510966
2.31632e-06
0.510966
2.3642e-06
0.510966
2.26516e-06
0.510966
2.04028e-06
0.510967
1.90698e-06
0.510967
2.00393e-06
0.510967
2.22391e-06
0.510967
2.38794e-06
0.510967
2.32343e-06
0.510967
2.09854e-06
0.510968
2.07159e-06
0.510968
2.27624e-06
0.510968
2.42205e-06
0.510967
2.45721e-06
0.510967
2.43677e-06
0.510967
2.36383e-06
0.510967
2.30754e-06
0.510968
2.33786e-06
0.510968
2.3937e-06
0.510968
2.35309e-06
0.510968
2.24795e-06
0.510968
2.18105e-06
0.510969
2.20461e-06
0.510969
2.31511e-06
0.510969
2.38274e-06
0.510969
2.36906e-06
0.51097
2.3876e-06
0.51097
2.37466e-06
0.51097
2.21229e-06
0.51097
2.01627e-06
0.51097
1.95279e-06
0.510971
2.04499e-06
0.510972
2.19722e-06
0.510972
2.2728e-06
0.510973
2.23183e-06
0.510973
2.20505e-06
0.510973
2.33776e-06
0.510974
2.52586e-06
0.510974
2.5376e-06
0.510974
2.36882e-06
0.510974
2.19487e-06
0.510974
2.10316e-06
0.510974
2.12212e-06
0.510974
2.30154e-06
0.510974
2.51183e-06
0.510974
2.51582e-06
0.510975
2.37891e-06
0.510975
2.34259e-06
0.510975
2.41155e-06
0.510976
2.50769e-06
0.510976
2.60923e-06
0.510976
2.59392e-06
0.510976
2.5384e-06
0.510976
2.68217e-06
0.510976
2.79531e-06
0.510975
2.52768e-06
0.510975
2.03103e-06
0.510975
1.6722e-06
0.510976
1.6112e-06
0.510977
1.79318e-06
0.510977
1.93866e-06
0.510978
1.82407e-06
0.510979
1.62273e-06
0.510979
1.67854e-06
0.51098
1.9174e-06
0.51098
1.96611e-06
0.510981
1.90249e-06
0.510981
2.02947e-06
2.27711e-06
0.510922
-7.33425e-08
0.510922
4.62779e-07
0.510922
9.94082e-07
0.510923
1.27181e-06
0.510923
1.72597e-06
0.510922
1.97822e-06
0.510922
1.81952e-06
0.510923
1.56951e-06
0.510923
1.45536e-06
0.510924
1.63355e-06
0.510924
1.9693e-06
0.510924
2.01236e-06
0.510924
1.90481e-06
0.510924
1.88799e-06
0.510924
1.90912e-06
0.510924
2.17898e-06
0.510924
2.38201e-06
0.510924
2.26565e-06
0.510924
2.04701e-06
0.510924
1.87918e-06
0.510924
2.01799e-06
0.510924
2.07718e-06
0.510925
1.92635e-06
0.510925
1.80736e-06
0.510926
1.46846e-06
0.510927
1.24548e-06
0.510929
1.58738e-06
0.51093
2.0472e-06
0.51093
2.30371e-06
0.510929
2.54237e-06
0.510928
2.30066e-06
0.510929
1.83003e-06
0.510929
1.82333e-06
0.510929
2.14987e-06
0.510929
2.36014e-06
0.510929
1.99453e-06
0.51093
1.59058e-06
0.510931
1.97314e-06
0.510931
2.2945e-06
0.510931
2.11334e-06
0.510931
2.10746e-06
0.510931
2.27315e-06
0.510931
2.29816e-06
0.510932
2.30228e-06
0.510932
2.37092e-06
0.510931
2.56782e-06
0.51093
2.51448e-06
0.51093
2.05218e-06
0.51093
1.76133e-06
0.510931
1.82982e-06
0.510932
1.95974e-06
0.510933
1.9154e-06
0.510934
1.728e-06
0.510935
1.63712e-06
0.510935
1.78374e-06
0.510935
2.00255e-06
0.510935
2.04523e-06
0.510935
1.92914e-06
0.510936
1.93225e-06
0.510936
1.97033e-06
0.510936
1.76677e-06
0.510937
1.445e-06
0.510938
1.42164e-06
0.510938
1.90544e-06
0.510939
2.30152e-06
0.510939
2.36193e-06
0.510939
2.32167e-06
0.510938
2.18254e-06
0.510937
2.08307e-06
0.510937
2.04199e-06
0.510937
2.15301e-06
0.510937
2.36533e-06
0.510938
2.23626e-06
0.510938
2.05884e-06
0.510939
2.04266e-06
0.510939
1.99463e-06
0.510939
2.27866e-06
0.510938
2.7787e-06
0.510938
2.79681e-06
0.510938
2.21111e-06
0.510938
1.49864e-06
0.510939
1.05375e-06
0.510939
1.15788e-06
0.510939
1.8035e-06
0.510939
2.32455e-06
0.510939
2.42961e-06
0.51094
2.33892e-06
0.51094
2.0395e-06
0.51094
1.72169e-06
0.51094
1.54445e-06
0.51094
1.45222e-06
0.510941
1.59471e-06
0.510942
1.93703e-06
0.510942
2.20381e-06
0.510943
2.24942e-06
0.510943
2.07112e-06
0.510943
1.83987e-06
0.510944
1.84065e-06
0.510944
2.11179e-06
0.510944
2.32589e-06
0.510945
2.28152e-06
0.510945
2.06995e-06
0.510945
1.87788e-06
0.510946
1.8571e-06
0.510946
1.89856e-06
0.510946
1.94722e-06
0.510946
2.24055e-06
0.510946
2.60466e-06
0.510946
2.59082e-06
0.510946
2.38647e-06
0.510946
2.30514e-06
0.510946
2.17876e-06
0.510946
1.9454e-06
0.510947
1.78765e-06
0.510947
1.79031e-06
0.510947
1.88148e-06
0.510947
1.98684e-06
0.510947
2.0356e-06
0.510948
1.88672e-06
0.510948
1.6975e-06
0.510949
1.76049e-06
0.510949
1.89296e-06
0.510949
1.85876e-06
0.510949
1.82064e-06
0.510949
1.94611e-06
0.510949
2.1654e-06
0.510949
2.36367e-06
0.510949
2.43014e-06
0.510949
2.33554e-06
0.510949
2.24763e-06
0.510949
2.15912e-06
0.510949
1.85295e-06
0.51095
1.4896e-06
0.510951
1.4657e-06
0.510951
1.77033e-06
0.510952
2.07076e-06
0.510952
2.25561e-06
0.510953
2.4285e-06
0.510953
2.63703e-06
0.510953
2.7361e-06
0.510952
2.50702e-06
0.510953
1.97745e-06
0.510953
1.48014e-06
0.510954
1.39269e-06
0.510955
1.64555e-06
0.510955
1.81911e-06
0.510956
1.8158e-06
0.510957
1.8674e-06
0.510957
2.01345e-06
0.510957
2.1336e-06
0.510958
2.20625e-06
0.510958
2.26337e-06
0.510958
2.20711e-06
0.510959
2.02803e-06
0.510959
1.943e-06
0.51096
1.97777e-06
0.51096
2.05608e-06
0.51096
2.19946e-06
0.51096
2.21403e-06
0.51096
1.97911e-06
0.51096
1.76101e-06
0.510961
1.74875e-06
0.510961
1.81787e-06
0.510961
1.87589e-06
0.510962
1.91947e-06
0.510962
1.96348e-06
0.510962
2.00028e-06
0.510962
1.9063e-06
0.510962
1.70812e-06
0.510963
1.65848e-06
0.510963
1.82132e-06
0.510963
1.9579e-06
0.510963
1.89234e-06
0.510963
1.79651e-06
0.510963
1.89574e-06
0.510964
2.13915e-06
0.510964
2.37066e-06
0.510964
2.45849e-06
0.510964
2.44833e-06
0.510964
2.43243e-06
0.510964
2.34847e-06
0.510964
2.21043e-06
0.510964
2.08772e-06
0.510964
2.01181e-06
0.510964
2.0044e-06
0.510964
1.94404e-06
0.510965
1.75776e-06
0.510965
1.64357e-06
0.510966
1.78617e-06
0.510966
2.01268e-06
0.510966
2.01367e-06
0.510967
1.84532e-06
0.510967
1.80275e-06
0.510967
1.93747e-06
0.510968
2.06692e-06
0.510968
2.08435e-06
0.510969
2.05673e-06
0.510969
2.01751e-06
0.510969
1.96743e-06
0.51097
1.96939e-06
0.51097
1.97567e-06
0.51097
1.95601e-06
0.51097
1.98065e-06
0.510971
1.95525e-06
0.510971
1.85002e-06
0.510972
1.79671e-06
0.510972
1.79113e-06
0.510973
1.83208e-06
0.510973
1.94921e-06
0.510974
1.98542e-06
0.510974
1.8816e-06
0.510974
1.82667e-06
0.510974
1.88124e-06
0.510974
1.98122e-06
0.510974
2.12713e-06
0.510974
2.17759e-06
0.510975
2.00995e-06
0.510975
1.88586e-06
0.510976
1.98144e-06
0.510976
2.12242e-06
0.510976
2.23758e-06
0.510976
2.32749e-06
0.510976
2.30983e-06
0.510976
2.24913e-06
0.510976
2.26916e-06
0.510976
2.36082e-06
0.510976
2.47557e-06
0.510976
2.54275e-06
0.510976
2.5135e-06
0.510975
2.47481e-06
0.510975
2.50685e-06
0.510976
2.54775e-06
0.510976
2.44873e-06
0.510976
2.1531e-06
0.510977
1.89613e-06
0.510978
1.92458e-06
0.510978
2.12064e-06
0.510978
2.18229e-06
0.510978
1.97415e-06
0.510978
1.63454e-06
0.510978
1.43607e-06
0.510979
1.4651e-06
0.510979
1.50456e-06
0.510979
1.36494e-06
0.510979
1.28044e-06
0.51098
1.51317e-06
0.51098
1.79436e-06
0.51098
1.80628e-06
0.51098
1.87958e-06
2.10261e-06
0.510921
-5.42617e-08
0.510921
3.33887e-07
0.510921
7.06603e-07
0.510922
9.39372e-07
0.510922
1.00969e-06
0.510923
1.08646e-06
0.510924
1.38519e-06
0.510923
1.84364e-06
0.510923
1.95559e-06
0.510923
1.51629e-06
0.510924
1.32555e-06
0.510924
1.71047e-06
0.510924
1.9529e-06
0.510924
1.73806e-06
0.510924
1.85027e-06
0.510924
2.15418e-06
0.510925
1.97719e-06
0.510925
1.93804e-06
0.510925
1.98204e-06
0.510925
1.57033e-06
0.510926
1.3543e-06
0.510927
1.51517e-06
0.510927
1.76321e-06
0.510927
1.94026e-06
0.510926
1.80302e-06
0.510926
1.42245e-06
0.510926
1.21732e-06
0.510927
1.41698e-06
0.510928
1.71436e-06
0.510928
2.01175e-06
0.510929
1.97471e-06
0.510929
1.65798e-06
0.510929
1.91863e-06
0.510929
2.19255e-06
0.510929
1.8317e-06
0.510929
1.65343e-06
0.510929
1.55915e-06
0.51093
1.42812e-06
0.51093
2.02925e-06
0.51093
2.68487e-06
0.510929
2.44819e-06
0.51093
1.78612e-06
0.510931
1.31451e-06
0.510932
1.27315e-06
0.510933
1.62504e-06
0.510933
1.88521e-06
0.510934
1.8952e-06
0.510934
1.83349e-06
0.510934
1.78763e-06
0.510934
1.86824e-06
0.510934
1.938e-06
0.510934
1.81471e-06
0.510934
1.69805e-06
0.510934
1.71755e-06
0.510934
1.81475e-06
0.510934
2.05199e-06
0.510934
2.20666e-06
0.510934
1.96398e-06
0.510934
1.72005e-06
0.510934
1.70984e-06
0.510934
1.71756e-06
0.510934
1.80671e-06
0.510934
1.90585e-06
0.510934
1.91493e-06
0.510934
1.777e-06
0.510935
1.50255e-06
0.510936
1.36379e-06
0.510937
1.38e-06
0.510937
1.59349e-06
0.510937
1.86749e-06
0.510938
1.88131e-06
0.510938
1.78553e-06
0.510939
1.6464e-06
0.510939
1.61885e-06
0.510939
1.83289e-06
0.510939
1.98841e-06
0.51094
2.0179e-06
0.510941
1.94844e-06
0.510942
1.78618e-06
0.510942
1.65386e-06
0.510942
1.51224e-06
0.510942
1.38034e-06
0.510941
1.40629e-06
0.510942
1.6404e-06
0.510942
1.88903e-06
0.510943
1.98503e-06
0.510943
1.92641e-06
0.510943
1.64266e-06
0.510944
1.38555e-06
0.510944
1.48732e-06
0.510943
1.73617e-06
0.510943
1.86916e-06
0.510943
1.8875e-06
0.510944
1.82574e-06
0.510944
1.77828e-06
0.510944
1.9008e-06
0.510944
2.09767e-06
0.510944
2.11668e-06
0.510944
2.05019e-06
0.510944
2.09024e-06
0.510944
2.1072e-06
0.510944
1.97147e-06
0.510944
1.79107e-06
0.510944
1.72615e-06
0.510945
1.77692e-06
0.510945
1.80631e-06
0.510945
1.79903e-06
0.510946
1.9055e-06
0.510946
2.08667e-06
0.510947
2.21253e-06
0.510947
2.21546e-06
0.510947
1.95777e-06
0.510947
1.50423e-06
0.510948
1.24937e-06
0.510948
1.37538e-06
0.510949
1.60158e-06
0.510949
1.68988e-06
0.510949
1.71939e-06
0.510949
1.67003e-06
0.51095
1.50721e-06
0.51095
1.4124e-06
0.51095
1.45916e-06
0.510951
1.62764e-06
0.510951
1.82516e-06
0.510951
1.83496e-06
0.510951
1.70374e-06
0.510952
1.70948e-06
0.510952
1.88546e-06
0.510953
2.03648e-06
0.510953
2.07792e-06
0.510953
1.99878e-06
0.510953
1.84897e-06
0.510953
1.71958e-06
0.510953
1.59836e-06
0.510953
1.57393e-06
0.510953
1.70608e-06
0.510954
1.80782e-06
0.510954
1.81999e-06
0.510955
1.83584e-06
0.510956
1.80749e-06
0.510957
1.76111e-06
0.510957
1.77208e-06
0.510957
1.61267e-06
0.510957
1.26802e-06
0.510957
1.21724e-06
0.510958
1.56635e-06
0.510957
1.93298e-06
0.510957
2.12295e-06
0.510957
2.08951e-06
0.510957
1.93355e-06
0.510958
1.92946e-06
0.510958
2.12122e-06
0.510958
2.25594e-06
0.510958
2.1744e-06
0.510957
2.04933e-06
0.510957
1.98416e-06
0.510958
1.86944e-06
0.510958
1.77879e-06
0.510958
1.8481e-06
0.510958
1.98682e-06
0.510958
2.00471e-06
0.510958
1.85623e-06
0.510958
1.62063e-06
0.510959
1.48255e-06
0.510959
1.56358e-06
0.510959
1.71099e-06
0.51096
1.74922e-06
0.51096
1.69251e-06
0.51096
1.58607e-06
0.51096
1.48005e-06
0.51096
1.45954e-06
0.510961
1.59722e-06
0.510961
1.81764e-06
0.510961
1.98516e-06
0.510961
2.02183e-06
0.510961
1.89244e-06
0.510961
1.80641e-06
0.510962
1.94834e-06
0.510962
2.12732e-06
0.510962
2.15356e-06
0.510963
2.02389e-06
0.510963
1.82641e-06
0.510964
1.69397e-06
0.510964
1.61171e-06
0.510964
1.52607e-06
0.510965
1.51736e-06
0.510965
1.56266e-06
0.510965
1.51544e-06
0.510966
1.43704e-06
0.510966
1.47994e-06
0.510967
1.56089e-06
0.510967
1.58776e-06
0.510967
1.6014e-06
0.510967
1.60944e-06
0.510968
1.66843e-06
0.510968
1.78194e-06
0.510968
1.80717e-06
0.510969
1.70308e-06
0.510969
1.59685e-06
0.510969
1.59056e-06
0.51097
1.71003e-06
0.51097
1.85129e-06
0.51097
1.93025e-06
0.51097
1.97219e-06
0.51097
1.98406e-06
0.510969
1.90783e-06
0.51097
1.70354e-06
0.51097
1.48393e-06
0.51097
1.48047e-06
0.510971
1.70403e-06
0.510971
1.87624e-06
0.510971
1.85296e-06
0.510971
1.75308e-06
0.510971
1.72953e-06
0.510971
1.85869e-06
0.510971
2.05346e-06
0.510971
2.08401e-06
0.510971
1.92875e-06
0.510972
1.77084e-06
0.510972
1.70089e-06
0.510972
1.71171e-06
0.510973
1.8055e-06
0.510973
1.9138e-06
0.510974
1.92349e-06
0.510974
1.88119e-06
0.510975
1.93175e-06
0.510975
2.05362e-06
0.510975
2.14497e-06
0.510976
2.21459e-06
0.510976
2.2538e-06
0.510976
2.21325e-06
0.510977
2.1637e-06
0.510977
2.15285e-06
0.510977
2.04701e-06
0.510977
1.82734e-06
0.510977
1.66387e-06
0.510978
1.59439e-06
0.510978
1.51998e-06
0.510979
1.35261e-06
0.51098
1.12032e-06
0.51098
9.32194e-07
0.510981
8.48125e-07
0.510981
9.39861e-07
0.510981
1.1362e-06
0.510982
1.21897e-06
0.510982
1.17506e-06
0.510982
1.31298e-06
0.510983
1.49396e-06
0.510983
1.57195e-06
1.7016e-06
0.510921
4.28433e-07
0.510921
7.03238e-07
0.510921
8.35414e-07
0.510921
1.02888e-06
0.510921
9.60172e-07
0.510921
1.09957e-06
0.510921
1.19202e-06
0.510922
9.11232e-07
0.510923
8.66052e-07
0.510924
1.01186e-06
0.510924
8.57342e-07
0.510925
9.54357e-07
0.510925
1.51135e-06
0.510925
1.70551e-06
0.510926
1.2878e-06
0.510927
1.27203e-06
0.510927
1.69133e-06
0.510927
1.91427e-06
0.510927
1.9294e-06
0.510927
1.77773e-06
0.510927
1.56968e-06
0.510927
1.59508e-06
0.510926
1.85926e-06
0.510927
1.70467e-06
0.510927
1.51613e-06
0.510927
1.69526e-06
0.510926
1.68062e-06
0.510926
1.56195e-06
0.510926
1.45064e-06
0.510927
1.2023e-06
0.510928
1.19105e-06
0.510928
1.49618e-06
0.510928
1.85912e-06
0.510928
2.12459e-06
0.510928
1.95907e-06
0.510928
1.45067e-06
0.510929
1.18712e-06
0.510929
1.20824e-06
0.51093
1.36869e-06
0.510931
1.61047e-06
0.510931
1.65737e-06
0.510932
1.52956e-06
0.510931
1.51632e-06
0.510931
1.57406e-06
0.510931
1.61022e-06
0.510931
1.64558e-06
0.510932
1.56664e-06
0.510932
1.46865e-06
0.510932
1.59979e-06
0.510932
1.74694e-06
0.510933
1.66279e-06
0.510933
1.48961e-06
0.510933
1.31711e-06
0.510934
1.30016e-06
0.510934
1.52282e-06
0.510934
1.76758e-06
0.510935
1.90197e-06
0.510935
1.77964e-06
0.510935
1.40995e-06
0.510936
1.2517e-06
0.510936
1.38397e-06
0.510936
1.5196e-06
0.510937
1.63555e-06
0.510937
1.72894e-06
0.510937
1.44738e-06
0.510938
9.75697e-07
0.510938
1.09453e-06
0.510938
1.4581e-06
0.510938
1.7462e-06
0.510937
2.11385e-06
0.510937
2.04091e-06
0.510937
1.67587e-06
0.510938
1.43776e-06
0.510938
1.13803e-06
0.510939
1.17206e-06
0.510939
1.70615e-06
0.510939
2.11344e-06
0.510939
2.04414e-06
0.510939
1.53872e-06
0.51094
9.66501e-07
0.51094
8.26304e-07
0.510941
1.11699e-06
0.510941
1.44054e-06
0.510941
1.72599e-06
0.510941
1.9053e-06
0.510941
1.70752e-06
0.510941
1.319e-06
0.510942
1.04814e-06
0.510942
9.41167e-07
0.510943
1.11012e-06
0.510943
1.55775e-06
0.510943
1.91032e-06
0.510943
1.89467e-06
0.510943
1.69547e-06
0.510943
1.46333e-06
0.510944
1.25455e-06
0.510945
1.36248e-06
0.510945
1.76081e-06
0.510945
2.02113e-06
0.510945
2.07335e-06
0.510945
2.03481e-06
0.510945
1.79501e-06
0.510946
1.44261e-06
0.510946
1.36175e-06
0.510946
1.52736e-06
0.510947
1.58067e-06
0.510947
1.58574e-06
0.510947
1.72732e-06
0.510947
1.79256e-06
0.510948
1.72781e-06
0.510948
1.68954e-06
0.510949
1.62956e-06
0.510949
1.50724e-06
0.510949
1.31501e-06
0.510949
1.09385e-06
0.510949
1.0873e-06
0.51095
1.3314e-06
0.51095
1.57787e-06
0.51095
1.65342e-06
0.51095
1.5047e-06
0.51095
1.27924e-06
0.51095
1.22683e-06
0.510951
1.34733e-06
0.510951
1.43571e-06
0.510951
1.48967e-06
0.510951
1.63861e-06
0.510951
1.77516e-06
0.510951
1.77331e-06
0.510952
1.6257e-06
0.510952
1.4286e-06
0.510953
1.38107e-06
0.510953
1.47557e-06
0.510954
1.52906e-06
0.510954
1.53639e-06
0.510954
1.67698e-06
0.510953
1.96918e-06
0.510953
2.19479e-06
0.510953
2.15626e-06
0.510953
1.90753e-06
0.510953
1.66186e-06
0.510953
1.54508e-06
0.510953
1.55208e-06
0.510953
1.58232e-06
0.510953
1.46577e-06
0.510953
1.26612e-06
0.510953
1.18048e-06
0.510954
1.21549e-06
0.510955
1.41345e-06
0.510955
1.77731e-06
0.510955