/*--------------------------------*- C++ -*----------------------------------*\
| =========                 |                                                 |
| \\      /  F ield         | OpenFOAM: The Open Source CFD Toolbox           |
|  \\    /   O peration     | Version:  2406                                  |
|   \\  /    A nd           | Website:  www.openfoam.com                      |
|    \\/     M anipulation  |                                                 |
\*---------------------------------------------------------------------------*/
FoamFile
{
    version     2.0;
    format      ascii;
    arch        "LSB;label=32;scalar=64";
    class       volScalarField;
    location    "1.5";
    object      p;
}
// * * * * * * * * * * * * * * * * * * * * * * * * * * * * * * * * * * * * * //

dimensions      [1 -1 -2 0 0 0 0];

internalField   nonuniform List<scalar> 
6250
(
-0.196234
-3220.59
-1032.51
543.205
498.349
29.5214
-131.011
-53.7427
22.6395
28.9801
8.83288
-0.753987
1.50816
5.18732
5.90951
5.08539
4.53872
4.55143
4.7038
4.73799
4.68661
4.64738
4.63353
4.61626
4.59467
4.57312
4.55186
4.53711
4.51632
4.48461
4.45822
4.43903
4.41607
4.3945
4.38131
4.36617
4.34901
4.33082
4.30365
4.27535
4.25203
4.22875
4.20721
4.1875
4.17026
4.15405
4.13357
4.1123
4.09304
4.07387
4.05069
4.0243
3.99865
3.97557
3.95588
3.93716
3.91931
3.90041
3.88203
3.86602
3.84748
3.82908
3.80751
3.78236
3.76318
3.74388
3.72263
3.70276
3.68215
3.66362
3.64749
3.63433
3.61974
3.59672
3.56762
3.53701
3.51132
3.49252
3.47665
3.45772
3.43284
3.40734
3.38367
3.36504
3.34659
3.31788
3.29083
3.27186
3.25215
3.23152
3.20846
3.1817
3.15561
3.13114
3.1063
3.0826
3.06182
3.03975
3.01684
2.99768
2.97995
2.96209
2.94499
2.92623
2.90437
2.88294
2.8638
2.84375
2.82405
2.80706
2.79024
2.77324
2.75428
2.73145
2.70861
2.68775
2.66955
2.65521
2.64375
2.63275
2.61738
2.59642
2.57124
2.54348
2.51836
2.49516
2.47215
2.45364
2.43687
2.41607
2.39345
2.37168
2.34961
2.32877
2.3087
2.28585
2.26379
2.24629
2.22921
2.2079
2.18378
2.15881
2.13152
2.10578
2.08597
2.06969
2.05528
2.04079
2.0237
2.00429
1.98455
1.96561
1.94534
1.92414
1.90407
1.8851
1.86758
1.84761
1.82316
1.79868
1.77502
1.75246
1.73244
1.71392
1.69599
1.67645
1.65406
1.63007
1.60548
1.5826
1.56208
1.54244
1.52512
1.50948
1.49227
1.47389
1.45415
1.43194
1.40777
1.38217
1.35737
1.33424
1.31277
1.29378
1.27371
1.25177
1.23192
1.21343
1.1958
1.1798
1.16254
1.143
1.12345
1.10508
1.08833
1.0726
1.05505
1.03443
1.01369
0.994881
0.976238
0.956481
0.935788
0.914604
0.895183
0.877393
0.856425
0.831425
0.80531
0.779038
0.753571
0.729543
0.707016
0.686492
0.668241
0.650886
0.631384
0.611638
0.595126
0.579511
0.56411
0.548933
0.529912
0.507959
0.487112
0.464657
0.439213
0.416095
0.395194
0.373421
0.353272
0.334427
0.315367
0.298283
0.282549
0.266522
0.250082
0.233118
0.215806
0.197919
0.179536
0.159851
0.139353
0.119846
0.100777
0.0816869
0.0641799
0.0482823
0.0315745
0.00573964
-0.224212
-3220.65
-1032.54
543.214
498.368
29.524
-131.016
-53.7513
22.6334
28.9795
8.83159
-0.756333
1.50693
5.1856
5.91041
5.08347
4.53215
4.54861
4.70545
4.74328
4.69624
4.64958
4.62547
4.61187
4.59251
4.5701
4.55283
4.53763
4.51425
4.48339
4.4595
4.44189
4.42053
4.39831
4.38154
4.36634
4.34506
4.31809
4.29221
4.27454
4.25869
4.23797
4.21955
4.19667
4.16853
4.14875
4.13139
4.10831
4.08726
4.07059
4.04697
4.01904
3.99647
3.9771
3.96088
3.94294
3.92099
3.90155
3.88592
3.86891
3.84546
3.82482
3.80491
3.77961
3.75902
3.73853
3.71907
3.70556
3.6878
3.66963
3.65277
3.63366
3.61473
3.59177
3.56512
3.53995
3.5167
3.49262
3.47073
3.45178
3.43069
3.41267
3.39355
3.36776
3.34274
3.31567
3.2904
3.27299
3.25463
3.23295
3.20799
3.17804
3.149
3.12684
3.10767
3.08615
3.0654
3.04406
3.02012
2.99847
2.97825
2.95819
2.9406
2.92418
2.90603
2.88548
2.86442
2.84316
2.8221
2.80418
2.78916
2.77418
2.7555
2.73196
2.70785
2.68617
2.67034
2.66006
2.64787
2.63209
2.61261
2.58943
2.56667
2.54279
2.51865
2.49882
2.47939
2.45797
2.43822
2.41803
2.39374
2.36884
2.34487
2.32202
2.30358
2.28739
2.26927
2.24993
2.23085
2.20948
2.18445
2.15938
2.13352
2.10682
2.08475
2.06721
2.05142
2.03695
2.0228
2.00593
1.98479
1.96383
1.94457
1.926
1.90855
1.88902
1.86769
1.84647
1.82336
1.79913
1.77497
1.75172
1.73036
1.71054
1.69271
1.67447
1.65406
1.63291
1.60933
1.58469
1.56324
1.54326
1.52519
1.51034
1.49315
1.47268
1.4515
1.42828
1.40406
1.38063
1.35847
1.33681
1.31453
1.29384
1.27349
1.25178
1.23198
1.21303
1.19405
1.17788
1.16237
1.145
1.12649
1.10614
1.08485
1.06649
1.05167
1.03728
1.02102
1.00207
0.980316
0.957479
0.935482
0.913184
0.891136
0.872038
0.852898
0.830507
0.806226
0.780557
0.754882
0.730753
0.707666
0.685464
0.665426
0.649387
0.634207
0.616071
0.597611
0.579925
0.561752
0.544041
0.525859
0.505857
0.486016
0.465646
0.441633
0.418034
0.397383
0.374537
0.351679
0.33349
0.316987
0.300156
0.282776
0.264328
0.245326
0.227831
0.213066
0.197957
0.182097
0.166305
0.146201
0.12193
0.0990818
0.0782929
0.0586141
0.0431453
0.0268901
0.0104203
-0.227229
-3220.64
-1032.53
543.221
498.371
29.5256
-131.019
-53.7504
22.6417
28.9878
8.83124
-0.760672
1.5079
5.19423
5.91383
5.08199
4.53686
4.5513
4.70072
4.74341
4.69988
4.64749
4.62315
4.61537
4.59411
4.56682
4.55849
4.54882
4.51574
4.47975
4.45669
4.43466
4.4133
4.39872
4.38516
4.36835
4.34882
4.32601
4.30179
4.2794
4.25513
4.22933
4.21027
4.19137
4.16902
4.15149
4.13315
4.11022
4.09084
4.07348
4.04801
4.02061
4.00053
3.98046
3.96002
3.93986
3.91868
3.89954
3.88112
3.86446
3.84781
3.82893
3.80736
3.78348
3.76272
3.74004
3.71922
3.70519
3.6851
3.66722
3.65618
3.63616
3.61063
3.58773
3.5646
3.54129
3.52107
3.49951
3.47329
3.44944
3.42887
3.41027
3.38997
3.3642
3.3404
3.31746
3.29369
3.27516
3.25583
3.23072
3.20463
3.17917
3.15265
3.1291
3.10966
3.08667
3.06191
3.03972
3.01703
2.99672
2.98096
2.96512
2.9458
2.92412
2.90296
2.882
2.86152
2.84226
2.82332
2.80736
2.79394
2.77645
2.7525
2.72713
2.70549
2.68675
2.67063
2.65904
2.64826
2.63538
2.6179
2.59341
2.56697
2.54126
2.51682
2.49714
2.47834
2.45609
2.4348
2.41492
2.39277
2.37098
2.35026
2.32748
2.30494
2.28507
2.26697
2.24935
2.23125
2.20926
2.18188
2.15525
2.13139
2.10785
2.08662
2.06865
2.05338
2.0391
2.02327
2.00595
1.987
1.96686
1.94537
1.92303
1.90419
1.88767
1.86908
1.84735
1.82178
1.79625
1.77479
1.75499
1.73465
1.71447
1.69536
1.6754
1.65211
1.62822
1.60575
1.58404
1.56445
1.54501
1.5256
1.51059
1.49528
1.47423
1.45079
1.42723
1.40408
1.38088
1.35781
1.3363
1.31466
1.29315
1.27239
1.25134
1.23268
1.21583
1.19722
1.17799
1.15942
1.14176
1.12529
1.10812
1.08927
1.07024
1.05219
1.03441
1.01583
0.996724
0.9773
0.956942
0.936598
0.916736
0.896137
0.875571
0.854444
0.830363
0.804042
0.777797
0.753198
0.730241
0.708848
0.688039
0.665743
0.645802
0.630132
0.613762
0.59828
0.584903
0.567389
0.546864
0.528044
0.507249
0.483634
0.461971
0.439996
0.416743
0.396394
0.375177
0.351867
0.332577
0.315944
0.299046
0.283265
0.267537
0.250335
0.233167
0.216329
0.196834
0.177298
0.161313
0.143167
0.120433
0.098664
0.0800235
0.0616396
0.0435695
0.0276275
0.0108261
-0.226387
-3220.65
-1032.54
543.211
498.362
29.5206
-131.016
-53.7503
22.6346
28.9826
8.8314
-0.760363
1.50745
5.18865
5.90522
5.08277
4.54193
4.55348
4.70167
4.73815
4.69044
4.64535
4.62759
4.61542
4.59382
4.56882
4.54827
4.53418
4.5157
4.48792
4.4623
4.43785
4.41094
4.39463
4.38673
4.36829
4.3427
4.32042
4.29948
4.27886
4.25622
4.23113
4.21042
4.19258
4.17248
4.15239
4.13283
4.11225
4.09007
4.0684
4.04557
4.02085
3.99753
3.97484
3.95676
3.94253
3.92351
3.90184
3.88268
3.8665
3.8491
3.82679
3.80194
3.77738
3.75815
3.74148
3.72309
3.70638
3.68774
3.66995
3.65453
3.63362
3.61206
3.58992
3.56296
3.53679
3.51455
3.49589
3.47752
3.45557
3.43065
3.40791
3.38712
3.3624
3.33955
3.31975
3.29622
3.27421
3.25414
3.22947
3.20349
3.1789
3.15299
3.1293
3.10984
3.08743
3.06277
3.03982
3.01671
2.99655
2.98018
2.96439
2.94768
2.92667
2.90257
2.87886
2.85746
2.84096
2.82619
2.80987
2.79291
2.77354
2.75078
2.7271
2.70521
2.68699
2.67237
2.66035
2.64862
2.63415
2.61514
2.59214
2.5675
2.54129
2.51529
2.49517
2.47906
2.45972
2.4378
2.41517
2.39122
2.36885
2.34761
2.32527
2.30405
2.28517
2.26744
2.24899
2.23015
2.21063
2.18595
2.15703
2.12948
2.10565
2.08604
2.07007
2.0558
2.04004
2.02179
2.00342
1.98474
1.96555
1.9467
1.92669
1.90641
1.88666
1.86588
1.84531
1.82422
1.79987
1.77458
1.75186
1.73246
1.71493
1.69678
1.67675
1.65355
1.62866
1.60502
1.58247
1.56301
1.54675
1.52929
1.51094
1.49208
1.47129
1.44951
1.42688
1.40378
1.37997
1.35677
1.33684
1.31637
1.29378
1.27253
1.25172
1.23183
1.21474
1.19752
1.17883
1.16022
1.141
1.12141
1.10412
1.08852
1.07155
1.05409
1.03705
1.01794
0.997275
0.976769
0.955374
0.935359
0.918246
0.898541
0.875256
0.852433
0.829006
0.804027
0.778933
0.752901
0.726887
0.705327
0.687569
0.668446
0.649484
0.632545
0.614372
0.597665
0.583656
0.566089
0.546086
0.527814
0.507266
0.483028
0.460314
0.438935
0.416325
0.395624
0.376216
0.354982
0.33487
0.31678
0.298762
0.280992
0.263384
0.246952
0.232483
0.218164
0.200795
0.180202
0.160165
0.140846
0.12019
0.0997997
0.0807754
0.0625964
0.0442739
0.0262737
0.00917483
-0.236064
-3220.65
-1032.54
543.208
498.361
29.5222
-131.019
-53.7507
22.6392
28.9866
8.83396
-0.755105
1.51359
5.18985
5.90745
5.08162
4.53875
4.55687
4.70197
4.73915
4.69775
4.64479
4.6202
4.61095
4.59432
4.57698
4.55698
4.53447
4.51218
4.48606
4.46073
4.43687
4.41551
4.40331
4.38705
4.36098
4.34276
4.32567
4.29959
4.27744
4.25735
4.23497
4.21439
4.19237
4.17183
4.15296
4.12879
4.10696
4.09119
4.07162
4.04809
4.02336
3.99744
3.97674
3.95979
3.93979
3.92192
3.90646
3.88584
3.86572
3.84761
3.82366
3.80053
3.7807
3.75954
3.74191
3.72655
3.70922
3.68938
3.6688
3.65046
3.63048
3.61072
3.5915
3.56672
3.54066
3.51709
3.49573
3.475
3.4524
3.43009
3.40848
3.38644
3.363
3.34037
3.32037
3.29795
3.27496
3.25336
3.22757
3.20102
3.17833
3.15492
3.13118
3.11066
3.08914
3.06454
3.0399
3.01676
2.99776
2.98169
2.96508
2.94715
2.92516
2.90101
2.87901
2.85877
2.84128
2.82604
2.81023
2.79261
2.77197
2.74921
2.72684
2.70643
2.68893
2.6744
2.66157
2.64855
2.6338
2.6152
2.59095
2.56458
2.54137
2.51918
2.49696
2.47795
2.45891
2.43791
2.41689
2.39305
2.36672
2.34301
2.32379
2.30549
2.28656
2.27001
2.2522
2.23028
2.20796
2.18296
2.15517
2.13054
2.10874
2.0875
2.06911
2.05488
2.04117
2.02452
2.00507
1.98439
1.96425
1.94546
1.92666
1.90745
1.88855
1.86792
1.8449
1.82148
1.79805
1.77642
1.75647
1.73566
1.71481
1.69454
1.67489
1.65399
1.62971
1.60586
1.58429
1.56451
1.54735
1.52986
1.51094
1.49191
1.47112
1.4472
1.42319
1.40253
1.38159
1.35826
1.33699
1.31626
1.29418
1.27364
1.25283
1.23176
1.21417
1.19772
1.17944
1.16059
1.14109
1.12124
1.10343
1.0869
1.06995
1.05374
1.03752
1.01886
0.998748
0.978334
0.956506
0.934904
0.916051
0.897639
0.876806
0.854009
0.829564
0.803599
0.777849
0.753057
0.727784
0.703595
0.684466
0.667979
0.65045
0.633839
0.617795
0.600851
0.584285
0.566197
0.545428
0.52533
0.505624
0.483014
0.460291
0.440232
0.418325
0.394821
0.374612
0.355333
0.335641
0.317969
0.300234
0.281501
0.264251
0.248271
0.231557
0.215456
0.200678
0.182817
0.161929
0.140676
0.118973
0.0990361
0.080354
0.0619077
0.0444383
0.025329
0.00799607
-0.2354
-3220.66
-1032.55
543.202
498.358
29.5223
-131.018
-53.7497
22.635
28.9815
8.83957
-0.756826
1.50226
5.19184
5.91759
5.08175
4.52995
4.55217
4.70561
4.73847
4.68884
4.64069
4.62039
4.61056
4.59793
4.57911
4.5518
4.52857
4.50981
4.4851
4.45869
4.4372
4.4187
4.40044
4.38204
4.36324
4.34447
4.32388
4.30019
4.27567
4.25209
4.23308
4.2147
4.19183
4.17239
4.15331
4.12906
4.10881
4.09216
4.07011
4.04461
4.0208
3.998
3.97766
3.95931
3.93957
3.92077
3.90367
3.88523
3.8654
3.84644
3.82584
3.80154
3.77818
3.75883
3.74233
3.72505
3.70847
3.69164
3.6685
3.64714
3.63055
3.61256
3.59132
3.56392
3.53789
3.51684
3.49568
3.4756
3.45403
3.4294
3.40495
3.38322
3.36346
3.34164
3.32021
3.29778
3.27284
3.25185
3.22881
3.20023
3.17703
3.15634
3.13234
3.11158
3.08977
3.06153
3.03636
3.01676
2.99967
2.98528
2.96903
2.94757
2.92177
2.89638
2.87613
2.8582
2.84241
2.82867
2.81078
2.79007
2.7706
2.74889
2.72568
2.70557
2.68757
2.67312
2.66305
2.65116
2.6347
2.61497
2.59058
2.56313
2.5392
2.518
2.49603
2.47755
2.45992
2.43854
2.41642
2.39235
2.36611
2.34198
2.32221
2.30469
2.28642
2.26979
2.25257
2.23047
2.20671
2.18182
2.15524
2.12993
2.10796
2.08926
2.0716
2.05506
2.03999
2.02379
2.00556
1.98598
1.96508
1.94435
1.92527
1.9061
1.88698
1.86769
1.84578
1.82274
1.79918
1.77591
1.75547
1.73651
1.71768
1.69685
1.67376
1.65119
1.62835
1.6063
1.5857
1.56556
1.54759
1.5299
1.51024
1.4896
1.46871
1.44701
1.42356
1.40128
1.38052
1.35826
1.33696
1.31645
1.29393
1.27296
1.2543
1.23457
1.21475
1.19592
1.17664
1.15756
1.13991
1.12219
1.10411
1.08717
1.07044
1.05301
1.03579
1.01745
0.997168
0.977542
0.958474
0.937892
0.917508
0.898087
0.876714
0.853156
0.829107
0.803227
0.776045
0.751233
0.727547
0.703793
0.684484
0.66797
0.649405
0.632889
0.619152
0.602607
0.584689
0.566954
0.546517
0.524641
0.503219
0.480939
0.459204
0.440318
0.420386
0.396886
0.374628
0.35444
0.334455
0.316594
0.29932
0.281414
0.265536
0.250273
0.232563
0.214499
0.198799
0.181713
0.161224
0.140101
0.11894
0.0986118
0.0801626
0.0633314
0.0468897
0.0278442
0.0090181
-0.240047
-3220.67
-1032.56
543.201
498.361
29.5208
-131.026
-53.7542
22.6421
28.9875
8.8384
-0.754004
1.50741
5.19015
5.91687
5.08705
4.53321
4.55192
4.70483
4.73616
4.68371
4.63997
4.62315
4.61001
4.59752
4.57983
4.55415
4.53224
4.5102
4.48417
4.46131
4.44056
4.41772
4.39808
4.38407
4.36613
4.34469
4.32557
4.30092
4.27213
4.25103
4.23745
4.21887
4.19171
4.17007
4.15328
4.13084
4.10864
4.0903
4.0689
4.0453
4.02311
3.99903
3.97831
3.96136
3.94107
3.9235
3.9069
3.88544
3.86462
3.84574
3.82455
3.80145
3.7805
3.76074
3.74303
3.72664
3.70837
3.68948
3.66749
3.64829
3.63401
3.61346
3.58924
3.56307
3.53748
3.51834
3.49758
3.47438
3.45263
3.43054
3.4067
3.38292
3.36319
3.34212
3.3192
3.29861
3.27406
3.24892
3.22726
3.20234
3.17795
3.15774
3.13557
3.11183
3.08787
3.06173
3.03769
3.01837
3.00328
2.99001
2.97004
2.94391
2.91842
2.89496
2.87613
2.86067
2.84427
2.82775
2.81038
2.79008
2.76904
2.74778
2.72555
2.70589
2.68953
2.67521
2.66338
2.65091
2.63438
2.6139
2.59026
2.56349
2.53874
2.51913
2.49834
2.47739
2.45883
2.43845
2.41645
2.39247
2.36633
2.34129
2.32126
2.30546
2.28761
2.26975
2.25269
2.23042
2.20572
2.18133
2.15593
2.13138
2.10921
2.08967
2.07189
2.05577
2.04103
2.02491
2.0061
1.98587
1.9651
1.94489
1.92628
1.90689
1.88697
1.86778
1.8455
1.82217
1.80052
1.77851
1.75754
1.73719
1.71715
1.69719
1.67524
1.65249
1.62874
1.60587
1.5863
1.56706
1.54784
1.52937
1.51019
1.48968
1.46795
1.4456
1.42224
1.40036
1.38108
1.35961
1.33697
1.31614
1.29467
1.27358
1.2545
1.23511
1.21574
1.19714
1.177
1.15611
1.13776
1.1212
1.10429
1.08752
1.07053
1.05288
1.03581
1.01767
0.997038
0.977114
0.958791
0.939432
0.919066
0.899128
0.878157
0.854113
0.828279
0.801818
0.774639
0.7495
0.72713
0.704846
0.684589
0.66788
0.650893
0.634308
0.619851
0.603186
0.584283
0.566516
0.547287
0.52461
0.502031
0.481315
0.460337
0.440013
0.420767
0.398447
0.375045
0.354642
0.334967
0.316132
0.298642
0.281017
0.26513
0.251221
0.235973
0.217844
0.19912
0.180092
0.159349
0.139067
0.119426
0.098395
0.0794677
0.0629034
0.0458207
0.0281199
0.00977475
-0.240445
-3220.68
-1032.56
543.203
498.358
29.5167
-131.021
-53.7495
22.6392
28.9828
8.8368
-0.755588
1.50695
5.192
5.91543
5.08542
4.5342
4.54971
4.70329
4.738
4.68454
4.63751
4.62297
4.61641
4.59739
4.57069
4.54905
4.53117
4.5078
4.48253
4.46152
4.44131
4.41843
4.39721
4.37897
4.36152
4.34569
4.32555
4.29948
4.27687
4.2555
4.23326
4.21322
4.19086
4.17086
4.15331
4.12979
4.10659
4.08844
4.06883
4.04665
4.02385
3.99903
3.97865
3.96298
3.94201
3.9199
3.90146
3.88438
3.86699
3.84688
3.82397
3.79983
3.7798
3.76261
3.74348
3.72506
3.70655
3.68716
3.66654
3.6488
3.63474
3.61338
3.58791
3.56205
3.53577
3.51638
3.49866
3.4767
3.45183
3.42659
3.40434
3.3827
3.36367
3.34383
3.31872
3.29641
3.27327
3.24615
3.2237
3.20266
3.18019
3.16031
3.13758
3.11047
3.08499
3.06073
3.0385
3.0204
3.00508
2.99041
2.96919
2.94192
2.91696
2.89444
2.87556
2.86095
2.84411
2.82568
2.80905
2.79018
2.76833
2.74609
2.724
2.70556
2.69064
2.67665
2.66426
2.65084
2.63318
2.61187
2.58845
2.56239
2.53729
2.51837
2.49994
2.47985
2.46066
2.43827
2.41269
2.38745
2.36434
2.34239
2.32214
2.3062
2.28888
2.26928
2.2512
2.22921
2.20366
2.17916
2.15492
2.13178
2.11052
2.09095
2.07328
2.0566
2.04047
2.02403
2.00588
1.98664
1.9661
1.94435
1.92475
1.9061
1.88665
1.86785
1.84589
1.8217
1.79969
1.77885
1.75945
1.73986
1.71862
1.69677
1.67365
1.65116
1.62897
1.60679
1.58731
1.5678
1.54708
1.52774
1.50884
1.48811
1.46633
1.44528
1.42308
1.39997
1.37949
1.35888
1.33656
1.31593
1.29543
1.27416
1.25479
1.23574
1.21563
1.19597
1.17593
1.15533
1.13682
1.12028
1.10328
1.08627
1.06981
1.05253
1.03501
1.01731
0.997494
0.977121
0.958569
0.9403
0.920447
0.899595
0.878044
0.854139
0.828071
0.801377
0.773707
0.747291
0.725549
0.70572
0.685159
0.666634
0.650366
0.634843
0.620398
0.604164
0.584776
0.565555
0.546107
0.523831
0.501154
0.481521
0.461904
0.440005
0.419402
0.39874
0.376154
0.355133
0.334583
0.314347
0.297734
0.282566
0.266606
0.25087
0.234752
0.217229
0.199192
0.179884
0.1585
0.137237
0.118507
0.0989891
0.0800241
0.0638839
0.0474761
0.0306662
0.0111953
-0.246117
-3220.68
-1032.57
543.2
498.362
29.517
-131.029
-53.7535
22.641
28.9871
8.83975
-0.754455
1.50875
5.19386
5.91505
5.08639
4.54136
4.55287
4.69736
4.73324
4.68319
4.63721
4.62216
4.61052
4.58998
4.5708
4.55535
4.53422
4.50744
4.48416
4.46154
4.43899
4.41871
4.3986
4.38268
4.36801
4.3456
4.31886
4.29713
4.27991
4.25778
4.2326
4.2128
4.19158
4.16999
4.15385
4.1323
4.10598
4.08872
4.07139
4.04556
4.02375
4.003
3.97862
3.96104
3.94384
3.92136
3.90294
3.88727
3.86742
3.84538
3.82449
3.80244
3.78113
3.76172
3.74282
3.72628
3.7065
3.6852
3.66776
3.65051
3.63434
3.61453
3.58794
3.56034
3.53518
3.51717
3.50102
3.47846
3.45061
3.42496
3.40529
3.38374
3.36271
3.34477
3.31989
3.29423
3.27166
3.24577
3.22383
3.20567
3.18369
3.16162
3.13776
3.10923
3.08294
3.06018
3.0406
3.02576
3.01021
2.99094
2.9675
2.94049
2.91584
2.89427
2.87506
2.86063
2.84599
2.82732
2.80854
2.78905
2.76688
2.74502
2.72451
2.70634
2.69202
2.67896
2.66459
2.64934
2.63247
2.61114
2.58784
2.5642
2.53895
2.51747
2.49956
2.48024
2.46008
2.43826
2.41351
2.38723
2.36362
2.34306
2.3233
2.30735
2.29075
2.2685
2.24744
2.22755
2.20441
2.18034
2.15596
2.13237
2.11152
2.09235
2.07487
2.05803
2.04102
2.02444
2.00607
1.98661
1.96735
1.94638
1.92609
1.90609
1.8845
1.86545
1.8468
1.82499
1.80264
1.78069
1.76027
1.74039
1.71933
1.69768
1.67468
1.65186
1.6294
1.60644
1.58644
1.56833
1.54844
1.52815
1.50841
1.48792
1.46624
1.44474
1.42296
1.40019
1.37906
1.35852
1.33607
1.31497
1.296
1.27642
1.25666
1.23648
1.21541
1.19519
1.17544
1.15512
1.13626
1.11977
1.10322
1.08592
1.0691
1.05195
1.03422
1.01662
0.997906
0.978023
0.959429
0.942342
0.923322
0.901055
0.877969
0.853608
0.826926
0.800415
0.7739
0.746982
0.723914
0.70474
0.685572
0.668185
0.653144
0.636591
0.61949
0.603022
0.584891
0.565475
0.545528
0.524021
0.501943
0.48195
0.462339
0.440331
0.419356
0.399371
0.37674
0.354743
0.334815
0.315407
0.298586
0.283565
0.267798
0.251417
0.234566
0.217355
0.199016
0.178912
0.159434
0.13839
0.118017
0.098847
0.0780338
0.0617241
0.0466003
0.0309355
0.0124078
-0.24667
-3220.68
-1032.57
543.195
498.359
29.5196
-131.022
-53.7525
22.6363
28.9859
8.84291
-0.751596
1.50978
5.1908
5.91368
5.08719
4.53407
4.54583
4.69694
4.73375
4.68665
4.63916
4.61999
4.61309
4.59401
4.56875
4.54978
4.53027
4.50725
4.48525
4.46117
4.43938
4.41985
4.39727
4.37818
4.3628
4.3448
4.32202
4.29877
4.27814
4.25498
4.23074
4.21181
4.19469
4.17461
4.1523
4.12834
4.10722
4.08861
4.06717
4.04465
4.02483
4.00375
3.98138
3.96097
3.93988
3.92162
3.90713
3.88759
3.86495
3.8435
3.82184
3.80125
3.782
3.76222
3.74244
3.72437
3.70526
3.6869
3.67068
3.65104
3.6301
3.60845
3.5843
3.56124
3.53874
3.51919
3.50084
3.4768
3.44902
3.42276
3.40249
3.38418
3.36444
3.34484
3.31893
3.29128
3.26937
3.24573
3.22366
3.20671
3.18551
3.161
3.13584
3.10786
3.08252
3.06169
3.04325
3.02723
3.00933
2.98891
2.9665
2.94002
2.91497
2.89438
2.87537
2.85973
2.84506
2.82675
2.80759
2.7877
2.76515
2.743
2.72361
2.70725
2.69351
2.6803
2.66533
2.64884
2.63105
2.60863
2.58386
2.56096
2.53891
2.51941
2.50181
2.48179
2.45959
2.43614
2.41177
2.38618
2.36192
2.3426
2.32444
2.30642
2.28977
2.26947
2.24682
2.22531
2.20202
2.17806
2.15531
2.13348
2.11304
2.09292
2.07486
2.05889
2.04217
2.02514
2.0061
1.98564
1.9661
1.94542
1.92558
1.90683
1.88593
1.86537
1.84475
1.82287
1.80284
1.78385
1.76392
1.74214
1.71862
1.69595
1.6737
1.65151
1.63003
1.60799
1.58655
1.56682
1.54699
1.52678
1.5075
1.4883
1.46675
1.44379
1.422
1.39978
1.3775
1.35726
1.33617
1.31478
1.29588
1.27676
1.25671
1.23709
1.21632
1.19446
1.17379
1.15439
1.13559
1.11834
1.10173
1.08433
1.06778
1.05154
1.03345
1.01536
0.998206
0.979962
0.960928
0.942657
0.923515
0.901699
0.878567
0.853518
0.825155
0.797181
0.772036
0.747637
0.724905
0.704996
0.685348
0.66751
0.65303
0.637279
0.619671
0.602672
0.584435
0.564071
0.543422
0.523443
0.503048
0.481923
0.461385
0.440734
0.419981
0.399391
0.376983
0.354665
0.33476
0.316053
0.299436
0.284739
0.268677
0.25091
0.233651
0.216848
0.19798
0.17687
0.157988
0.138046
0.116231
0.0993829
0.0814128
0.06252
0.0449823
0.0276535
0.0103063
-0.247512
-3220.68
-1032.57
543.197
498.354
29.5136
-131.027
-53.7545
22.6415
28.9934
8.83818
-0.755573
1.51506
5.19482
5.91443
5.08661
4.53703
4.5503
4.69545
4.72907
4.68687
4.64137
4.61659
4.60512
4.59123
4.57251
4.55099
4.52918
4.50662
4.48474
4.46376
4.43982
4.41565
4.39782
4.38263
4.36348
4.3438
4.32224
4.29824
4.27818
4.25769
4.23185
4.20861
4.19185
4.1748
4.15443
4.13246
4.10814
4.08546
4.06761
4.04904
4.02608
4.00196
3.97952
3.96034
3.94283
3.92479
3.90746
3.88768
3.86494
3.84455
3.82405
3.80162
3.7825
3.76379
3.74055
3.72054
3.70528
3.68864
3.67288
3.65433
3.63015
3.60527
3.58066
3.55937
3.54195
3.52293
3.50085
3.47558
3.44833
3.42266
3.40312
3.38621
3.36554
3.34358
3.31701
3.28747
3.26748
3.25078
3.22926
3.20813
3.18488
3.15835
3.13383
3.1096
3.0847
3.06308
3.04547
3.02915
3.01071
2.9891
2.96527
2.93953
2.91547
2.89466
2.87543
2.86008
2.84654
2.82802
2.80605
2.78501
2.76467
2.74469
2.72582
2.70865
2.69364
2.68036
2.66493
2.64655
2.62891
2.60914
2.58573
2.56283
2.53991
2.5186
2.50102
2.48188
2.45895
2.43497
2.41128
2.38747
2.36416
2.34401
2.32572
2.30674
2.28863
2.26836
2.24479
2.22353
2.20274
2.17974
2.15596
2.13287
2.11378
2.096
2.07725
2.05941
2.04194
2.0257
2.0081
1.98721
1.96688
1.94636
1.92552
1.90547
1.88476
1.86531
1.84679
1.82636
1.80453
1.78339
1.76425
1.7446
1.7218
1.69748
1.67353
1.65074
1.62925
1.60732
1.58592
1.5674
1.54904
1.52823
1.50687
1.48707
1.4672
1.44478
1.42159
1.39886
1.37636
1.35628
1.33667
1.31559
1.29638
1.27841
1.2587
1.23756
1.21569
1.19367
1.17294
1.15389
1.13524
1.11755
1.10164
1.08498
1.06741
1.05072
1.03311
1.01422
0.997088
0.981157
0.963528
0.944851
0.925376
0.902427
0.877514
0.852928
0.825781
0.796702
0.770391
0.746213
0.723648
0.70537
0.688417
0.670502
0.654166
0.636934
0.617806
0.601095
0.584814
0.564766
0.543152
0.522872
0.502666
0.481955
0.462537
0.442978
0.421159
0.398405
0.376142
0.355633
0.336651
0.317537
0.299827
0.28448
0.268805
0.252145
0.234739
0.215503
0.195794
0.176873
0.158843
0.140242
0.118391
0.097864
0.0787698
0.0598551
0.044144
0.027562
0.00951029
-0.250028
-3220.69
-1032.57
543.2
498.36
29.5133
-131.025
-53.752
22.6399
28.9885
8.84041
-0.75198
1.51242
5.19481
5.91493
5.08321
4.53062
4.54557
4.69954
4.73386
4.68064
4.63422
4.61741
4.60875
4.59477
4.57353
4.54844
4.5278
4.50727
4.48492
4.46441
4.44047
4.41475
4.39532
4.37998
4.36089
4.34062
4.32053
4.29949
4.28136
4.25891
4.23114
4.2093
4.19338
4.17454
4.15411
4.13195
4.1062
4.08483
4.06879
4.04855
4.02429
4.00276
3.98093
3.95873
3.9428
3.92796
3.90794
3.88576
3.86304
3.84165
3.82281
3.80529
3.78456
3.76019
3.73804
3.72137
3.70772
3.69222
3.67254
3.64885
3.62306
3.60073
3.58143
3.56413
3.54613
3.52286
3.49829
3.47249
3.44513
3.42244
3.40482
3.38766
3.36633
3.34067
3.31263
3.28603
3.26805
3.25268
3.23205
3.20959
3.18369
3.15508
3.12983
3.10729
3.08589
3.06686
3.04858
3.02957
3.00989
2.98776
2.9628
2.93736
2.91418
2.89418
2.87692
2.86253
2.84681
2.82633
2.80442
2.78266
2.76218
2.74408
2.72637
2.70969
2.69514
2.68106
2.66418
2.64477
2.62631
2.60597
2.58258
2.56122
2.54161
2.52174
2.50224
2.48093
2.45708
2.43343
2.41019
2.3867
2.36379
2.34375
2.32648
2.30724
2.28705
2.26713
2.24383
2.22121
2.20052
2.17843
2.15634
2.1344
2.11421
2.09543
2.07702
2.06076
2.0442
2.02671
2.00753
1.98596
1.96593
1.94615
1.92557
1.90549
1.88477
1.86443
1.84468
1.8257
1.80712
1.78712
1.76615
1.74401
1.72021
1.69688
1.67425
1.65109
1.6286
1.6074
1.58602
1.56589
1.54739
1.52801
1.50782
1.48794
1.46689
1.44292
1.41923
1.39781
1.37606
1.35567
1.33682
1.31643
1.29687
1.27859
1.25872
1.23737
1.21525
1.19276
1.17153
1.15267
1.13475
1.11712
1.1005
1.08333
1.06564
1.04935
1.03293
1.01498
0.997535
0.981297
0.963997
0.945282
0.925857
0.90377
0.877942
0.850819
0.823285
0.795012
0.769238
0.74705
0.725245
0.705302
0.688266
0.670812
0.653406
0.636549
0.618353
0.60037
0.582982
0.56303
0.541512
0.522281
0.503809
0.482971
0.462053
0.44216
0.420921
0.398986
0.377237
0.355383
0.335415
0.318052
0.301491
0.285017
0.268691
0.252265
0.234787
0.216229
0.196162
0.176025
0.155871
0.135949
0.116314
0.0982334
0.0813353
0.0618171
0.0441113
0.0277984
0.00988208
-0.247455
-3220.68
-1032.58
543.19
498.355
29.5146
-131.023
-53.752
22.6363
28.9881
8.84437
-0.749832
1.51214
5.19543
5.91616
5.08284
4.53379
4.55089
4.6994
4.73115
4.68042
4.63592
4.61625
4.60385
4.59088
4.57348
4.54973
4.52871
4.50922
4.48495
4.45971
4.43676
4.41616
4.39733
4.38063
4.35974
4.33699
4.32158
4.30557
4.28187
4.25649
4.23152
4.20923
4.19397
4.17796
4.15419
4.12891
4.10535
4.08529
4.06951
4.05148
4.02647
4.00127
3.98039
3.96128
3.94625
3.92927
3.90571
3.8829
3.86173
3.84372
3.82856
3.80809
3.78371
3.76001
3.73757
3.72039
3.70957
3.69342
3.6706
3.64762
3.62101
3.59842
3.58444
3.56751
3.54645
3.52333
3.49572
3.46794
3.44492
3.42566
3.40762
3.38983
3.3657
3.33623
3.31037
3.28784
3.27038
3.25571
3.23413
3.20845
3.18227
3.15488
3.1305
3.10903
3.08695
3.06644
3.04943
3.03176
3.01067
2.98712
2.96199
2.93757
2.91569
2.89637
2.87849
2.86231
2.84591
2.82546
2.80316
2.78215
2.76316
2.74579
2.72884
2.7124
2.69493
2.6787
2.66314
2.64284
2.62291
2.60548
2.58497
2.56388
2.54389
2.52133
2.49953
2.48058
2.45819
2.43292
2.40981
2.3878
2.3658
2.34481
2.32622
2.30754
2.28722
2.26652
2.2429
2.21952
2.19918
2.17821
2.15712
2.1361
2.11647
2.09813
2.07861
2.06054
2.04363
2.02709
2.00991
1.98877
1.96666
1.94547
1.92488
1.90487
1.88485
1.86568
1.84656
1.82737
1.8083
1.78794
1.76777
1.74651
1.72223
1.69724
1.67325
1.65017
1.62852
1.60779
1.58668
1.56662
1.54828
1.52936
1.50863
1.48685
1.46555
1.44349
1.41974
1.39717
1.37543
1.35461
1.33609
1.31758
1.29884
1.28032
1.26024
1.23777
1.21419
1.19179
1.17082
1.15172
1.13455
1.11726
1.10032
1.08402
1.06598
1.04751
1.03117
1.01514
0.998238
0.982612
0.966403
0.946695
0.925641
0.903659
0.877967
0.850573
0.8238
0.795269
0.767601
0.745587
0.725758
0.706621
0.690815
0.673569
0.653542
0.63548
0.618066
0.599727
0.582241
0.563109
0.541373
0.521391
0.502907
0.483021
0.463497
0.443949
0.422016
0.399712
0.377734
0.355556
0.336036
0.319427
0.302958
0.285886
0.269038
0.252195
0.234339
0.216366
0.197116
0.176615
0.155596
0.135827
0.117437
0.0967082
0.0776866
0.0613033
0.0448629
0.0285569
0.0103779
-0.25061
-3220.69
-1032.57
543.195
498.352
29.5152
-131.025
-53.7547
22.6402
28.9922
8.84292
-0.751002
1.51161
5.1913
5.9136
5.08276
4.53329
4.55017
4.6986
4.73191
4.68093
4.63505
4.61572
4.60308
4.5884
4.57257
4.55077
4.5271
4.50664
4.48435
4.46234
4.44142
4.41523
4.39167
4.37735
4.35917
4.33642
4.32157
4.30571
4.2807
4.25488
4.23287
4.21348
4.19564
4.17491
4.1514
4.12902
4.10839
4.08909
4.0684
4.04775
4.02528
3.99918
3.97887
3.96376
3.94868
3.92992
3.90364
3.87884
3.86118
3.84737
3.83137
3.80714
3.77903
3.7549
3.73922
3.72833
3.71356
3.69104
3.66425
3.63844
3.61638
3.60261
3.59092
3.5695
3.54556
3.52084
3.49131
3.46491
3.44423
3.42646
3.40981
3.38979
3.36273
3.33349
3.31084
3.29082
3.27159
3.25537
3.23453
3.20708
3.17854
3.15236
3.12968
3.10902
3.08905
3.06877
3.04931
3.03067
3.00931
2.98512
2.96051
2.93671
2.91558
2.89807
2.8811
2.86334
2.8443
2.82228
2.80107
2.7815
2.76256
2.74579
2.72933
2.71328
2.69657
2.67842
2.66124
2.64146
2.61986
2.60102
2.58267
2.56377
2.54525
2.52413
2.50087
2.4794
2.45689
2.43212
2.40829
2.38607
2.36569
2.34579
2.32684
2.30796
2.286
2.26384
2.24165
2.21899
2.19777
2.17647
2.15602
2.1363
2.11697
2.09914
2.08074
2.06253
2.04423
2.02594
2.00816
1.98819
1.96717
1.94603
1.92464
1.90378
1.88315
1.86468
1.84707
1.82902
1.81111
1.79029
1.76746
1.74496
1.72126
1.69675
1.67353
1.65106
1.6287
1.60756
1.5865
1.56553
1.54701
1.52944
1.5096
1.48716
1.46437
1.44127
1.41748
1.39608
1.37601
1.35547
1.33643
1.31772
1.29876
1.28022
1.25997
1.23734
1.21372
1.19089
1.16994
1.15137
1.13438
1.11662
1.09907
1.08242
1.06435
1.0462
1.03052
1.01539
0.999161
0.982887
0.966266
0.947473
0.926485
0.903598
0.877462
0.848498
0.8207
0.794768
0.769077
0.745987
0.725549
0.70618
0.689891
0.674022
0.654518
0.635702
0.618896
0.599532
0.578678
0.559739
0.540979
0.521302
0.502191
0.482985
0.463332
0.443751
0.423081
0.401011
0.378205
0.355773
0.336185
0.319193
0.302573
0.285409
0.268984
0.253242
0.23536
0.217032
0.198923
0.177405
0.154298
0.132018
0.112934
0.0959837
0.0787935
0.0627657
0.0456164
0.0283596
0.0104249
-0.244726
-3220.68
-1032.58
543.189
498.356
29.5186
-131.027
-53.7572
22.6362
28.9888
8.84608
-0.747969
1.51034
5.19025
5.91821
5.09042
4.53248
4.54218
4.69367
4.73287
4.68405
4.63573
4.61312
4.60171
4.5923
4.57502
4.5495
4.52472
4.50456
4.48383
4.46105
4.43762
4.41495
4.3943
4.37523
4.3582
4.34173
4.32344
4.30105
4.27602
4.25497
4.23668
4.21678
4.19543
4.17172
4.15021
4.13325
4.11277
4.08975
4.06774
4.04502
4.02191
4.00075
3.98479
3.96722
3.94661
3.92569
3.90149
3.88131
3.86733
3.85111
3.83059
3.80516
3.77818
3.75701
3.742
3.72738
3.71074