/*--------------------------------*- C++ -*----------------------------------*\
| =========                 |                                                 |
| \\      /  F ield         | OpenFOAM: The Open Source CFD Toolbox           |
|  \\    /   O peration     | Version:  2406                                  |
|   \\  /    A nd           | Website:  www.openfoam.com                      |
|    \\/     M anipulation  |                                                 |
\*---------------------------------------------------------------------------*/
FoamFile
{
    version     2.0;
    format      ascii;
    arch        "LSB;label=32;scalar=64";
    class       surfaceScalarField;
    location    "1.5";
    object      phi;
}
// * * * * * * * * * * * * * * * * * * * * * * * * * * * * * * * * * * * * * //

dimensions      [0 3 -1 0 0 0 0];

oriented        oriented;

internalField   nonuniform List<scalar> 
12225
(
0.510918
1.54715e-06
0.510912
5.92344e-06
0.510905
7.18663e-06
0.5109
5.09702e-06
0.510896
3.99594e-06
0.510891
4.46519e-06
0.510886
5.16812e-06
0.51088
5.79822e-06
0.510874
5.85625e-06
0.510869
5.54626e-06
0.510863
5.49824e-06
0.510858
5.54384e-06
0.510852
5.5682e-06
0.510847
5.59918e-06
0.510841
5.39706e-06
0.510836
5.57362e-06
0.51083
5.97394e-06
0.510824
5.83833e-06
0.510818
5.47765e-06
0.510813
4.99803e-06
0.510809
4.32022e-06
0.510805
4.48165e-06
0.510799
5.35693e-06
0.510793
5.75749e-06
0.510787
5.92882e-06
0.510781
6.18434e-06
0.510775
6.31494e-06
0.510769
6.03973e-06
0.510763
5.62286e-06
0.510758
5.53369e-06
0.510752
5.46375e-06
0.510747
5.36063e-06
0.510742
5.1802e-06
0.510737
4.93392e-06
0.510732
4.90959e-06
0.510727
5.12999e-06
0.510721
5.81738e-06
0.510714
6.61473e-06
0.510708
6.78155e-06
0.510701
6.36451e-06
0.510695
5.75083e-06
0.51069
5.0384e-06
0.510686
4.19371e-06
0.510682
3.82869e-06
0.510678
4.24013e-06
0.510674
4.62225e-06
0.510669
4.88096e-06
0.510663
5.41864e-06
0.510657
5.8242e-06
0.510652
5.87344e-06
0.510646
5.97136e-06
0.510639
6.13242e-06
0.510633
6.19794e-06
0.510627
6.13375e-06
0.510621
5.77592e-06
0.510616
5.3669e-06
0.510611
5.08428e-06
0.510606
4.69126e-06
0.510602
4.3572e-06
0.510597
4.52097e-06
0.510592
5.16099e-06
0.510586
5.72129e-06
0.510581
5.94547e-06
0.510575
5.98503e-06
0.510569
5.88196e-06
0.510563
5.92237e-06
0.510557
5.96627e-06
0.510551
5.76135e-06
0.510545
5.53292e-06
0.51054
5.1474e-06
0.510536
4.7634e-06
0.510531
4.86874e-06
0.510525
5.4044e-06
0.510519
6.00359e-06
0.510513
6.22744e-06
0.510507
5.96293e-06
0.510501
5.60078e-06
0.510496
5.64735e-06
0.51049
6.01738e-06
0.510484
6.21093e-06
0.510478
6.02963e-06
0.510472
5.35198e-06
0.510468
4.68109e-06
0.510463
4.7574e-06
0.510458
5.18622e-06
0.510452
5.49667e-06
0.510446
5.63791e-06
0.510441
5.58498e-06
0.510435
5.40363e-06
0.51043
5.19419e-06
0.510425
5.16537e-06
0.51042
5.42685e-06
0.510414
5.79332e-06
0.510408
5.97232e-06
0.510402
5.87893e-06
0.510396
5.67914e-06
0.510391
5.38916e-06
0.510386
5.01818e-06
0.510381
4.75774e-06
0.510376
4.76314e-06
0.510371
5.07773e-06
0.510366
5.49789e-06
0.51036
5.78327e-06
0.510354
5.7812e-06
0.510349
5.46196e-06
0.510344
5.1438e-06
0.510339
5.03098e-06
0.510334
5.08723e-06
0.510328
5.38081e-06
0.510322
5.7597e-06
0.510317
5.90771e-06
0.510311
5.83951e-06
0.510305
5.72291e-06
0.510299
5.60202e-06
0.510294
5.46722e-06
0.510289
5.3282e-06
0.510283
5.13994e-06
0.510278
4.9276e-06
0.510274
4.97391e-06
0.510268
5.35499e-06
0.510262
5.81149e-06
0.510256
6.15112e-06
0.51025
6.20489e-06
0.510244
6.03611e-06
0.510238
5.83678e-06
0.510233
5.50411e-06
0.510227
5.1635e-06
0.510222
5.08916e-06
0.510217
5.0474e-06
0.510212
4.91007e-06
0.510207
5.01017e-06
0.510202
5.41053e-06
0.510196
5.88269e-06
0.51019
6.20341e-06
0.510184
6.09027e-06
0.510178
5.57022e-06
0.510173
5.11212e-06
0.510168
5.00382e-06
0.510163
5.06991e-06
0.510158
5.17156e-06
0.510153
5.34261e-06
0.510147
5.39801e-06
0.510142
5.21838e-06
0.510137
4.96866e-06
0.510132
4.78215e-06
0.510127
4.81241e-06
0.510122
5.12334e-06
0.510117
5.48928e-06
0.510111
5.6661e-06
0.510105
5.74595e-06
0.510099
5.87633e-06
0.510094
5.88536e-06
0.510088
5.67184e-06
0.510083
5.35703e-06
0.510078
5.00242e-06
0.510073
4.82654e-06
0.510068
4.93858e-06
0.510063
5.0706e-06
0.510058
5.14818e-06
0.510052
5.25559e-06
0.510047
5.34443e-06
0.510042
5.38953e-06
0.510036
5.45961e-06
0.510031
5.5831e-06
0.510025
5.6654e-06
0.510019
5.65607e-06
0.510014
5.57424e-06
0.510008
5.43934e-06
0.510003
5.36117e-06
0.509997
5.33943e-06
0.509992
5.24246e-06
0.509987
5.16575e-06
0.509982
5.19656e-06
0.509977
5.17738e-06
0.509972
5.11295e-06
0.509966
5.13636e-06
0.509961
5.27672e-06
0.509956
5.53842e-06
0.50995
5.77692e-06
0.509944
5.81075e-06
0.509938
5.68476e-06
0.509933
5.512e-06
0.509927
5.40773e-06
0.509922
5.38318e-06
0.509917
5.36125e-06
0.509911
5.37942e-06
0.509906
5.44857e-06
0.5099
5.52744e-06
0.509895
5.57844e-06
0.509889
5.55107e-06
0.509884
5.4856e-06
0.509878
5.39615e-06
0.509873
5.27061e-06
0.509868
5.29093e-06
0.509862
5.55754e-06
0.509856
5.8481e-06
0.509851
5.85764e-06
0.509845
5.48438e-06
0.50984
4.97218e-06
0.509835
4.63996e-06
0.509831
4.60357e-06
0.509826
4.75892e-06
0.509821
4.95244e-06
0.509816
5.18418e-06
0.50981
5.51676e-06
0.509805
5.77826e-06
0.509799
5.80647e-06
0.509793
5.66097e-06
0.509788
5.45873e-06
0.509782
5.35092e-06
0.509777
5.3948e-06
0.509771
5.48621e-06
0.509766
5.54826e-06
0.50976
5.55848e-06
0.509755
5.49305e-06
0.50975
5.27617e-06
0.509745
4.9824e-06
0.50974
4.85774e-06
0.509735
4.92253e-06
0.50973
5.08013e-06
0.509724
5.37417e-06
0.509719
5.72709e-06
0.509713
5.91742e-06
0.509707
5.91684e-06
0.509701
5.80844e-06
0.509695
5.60013e-06
0.50969
5.40844e-06
0.509685
5.3429e-06
0.509679
5.35036e-06
0.509674
5.43995e-06
0.509668
5.51584e-06
0.509663
5.36595e-06
0.509658
5.13578e-06
0.509653
5.1292e-06
0.509647
5.32628e-06
0.509642
5.59837e-06
0.509636
5.917e-06
0.50963
6.14453e-06
0.509624
6.11207e-06
0.509618
5.90087e-06
0.509612
5.55362e-06
0.509607
5.04822e-06
0.509602
4.73804e-06
0.509597
4.90688e-06
0.509592
5.27167e-06
0.509587
5.55854e-06
0.509581
5.85496e-06
0.509575
6.0497e-06
0.509568
6.45735e-06
5.71157e-06
0.510924
9.37084e-08
0.510929
5.30529e-07
0.510935
1.4772e-06
0.510937
2.3556e-06
0.510939
2.4665e-06
0.510941
2.33376e-06
0.510944
2.42437e-06
0.510947
2.36197e-06
0.510951
2.17247e-06
0.510954
2.14923e-06
0.510957
2.46417e-06
0.51096
2.67972e-06
0.510964
2.30539e-06
0.510967
1.68888e-06
0.510971
2.04403e-06
0.510974
2.52375e-06
0.510978
2.17318e-06
0.510981
2.31675e-06
0.510984
2.94555e-06
0.510986
3.06439e-06
0.510987
3.09784e-06
0.510988
3.18511e-06
0.510991
2.87033e-06
0.510994
2.35396e-06
0.510997
2.48743e-06
0.511001
2.84581e-06
0.511005
2.47466e-06
0.511009
2.09479e-06
0.511012
2.25888e-06
0.511015
2.04346e-06
0.511019
1.6232e-06
0.511023
1.9546e-06
0.511025
2.60644e-06
0.511028
2.68858e-06
0.51103
2.61192e-06
0.511032
2.6376e-06
0.511036
2.55657e-06
0.51104
2.3123e-06
0.511045
2.11418e-06
0.511049
2.24988e-06
0.511052
2.66642e-06
0.511054
3.26678e-06
0.511054
3.57917e-06
0.511055
3.05361e-06
0.511057
2.2725e-06
0.51106
1.86042e-06
0.511063
1.70071e-06
0.511066
1.905e-06
0.51107
2.42127e-06
0.511073
2.73357e-06
0.511076
2.7278e-06
0.51108
2.45067e-06
0.511084
1.99101e-06
0.511088
1.91356e-06
0.511092
2.33484e-06
0.511094
2.61662e-06
0.511097
2.63237e-06
0.511099
2.73855e-06
0.5111
3.03936e-06
0.511102
2.97975e-06
0.511104
2.55151e-06
0.511107
2.5356e-06
0.511111
2.83058e-06
0.511114
2.82515e-06
0.511117
2.57188e-06
0.511121
2.37191e-06
0.511124
2.22112e-06
0.511128
2.15575e-06
0.511131
2.35831e-06
0.511134
2.40466e-06
0.511136
2.19664e-06
0.511139
2.36461e-06
0.511142
2.77527e-06
0.511145
2.92234e-06
0.511148
2.74706e-06
0.511152
2.54653e-06
0.511155
2.39275e-06
0.511158
2.27456e-06
0.511162
2.5056e-06
0.511165
2.7169e-06
0.511169
2.5775e-06
0.511172
2.39383e-06
0.511174
2.19138e-06
0.511177
2.11957e-06
0.51118
2.31448e-06
0.511182
2.61947e-06
0.511185
2.9054e-06
0.511188
3.00341e-06
0.51119
2.94761e-06
0.511193
2.84582e-06
0.511195
2.64023e-06
0.511198
2.39645e-06
0.511202
2.30557e-06
0.511205
2.34409e-06
0.511209
2.31314e-06
0.511212
2.33111e-06
0.511215
2.45006e-06
0.511218
2.52382e-06
0.51122
2.63284e-06
0.511222
2.66274e-06
0.511224
2.44939e-06
0.511228
2.26202e-06
0.511231
2.35905e-06
0.511234
2.59671e-06
0.511237
2.68858e-06
0.51124
2.64782e-06
0.511242
2.62323e-06
0.511244
2.55491e-06
0.511247
2.47729e-06
0.511251
2.44353e-06
0.511254
2.46346e-06
0.511257
2.7233e-06
0.51126
3.10648e-06
0.511262
3.16705e-06
0.511265
2.81766e-06
0.511268
2.42244e-06
0.511271
2.29822e-06
0.511273
2.36799e-06
0.511276
2.35824e-06
0.511279
2.26973e-06
0.511283
2.19254e-06
0.511287
2.1764e-06
0.511291
2.22217e-06
0.511294
2.24531e-06
0.511298
2.33703e-06
0.511301
2.53492e-06
0.511303
2.70563e-06
0.511306
2.81699e-06
0.511308
2.89598e-06
0.51131
2.86395e-06
0.511312
2.66358e-06
0.511315
2.39039e-06
0.511319
2.182e-06
0.511323
2.1919e-06
0.511326
2.44106e-06
0.511329
2.57312e-06
0.511332
2.43444e-06
0.511335
2.23147e-06
0.511338
2.13426e-06
0.511341
2.18134e-06
0.511344
2.36193e-06
0.511347
2.55439e-06
0.511349
2.62296e-06
0.511352
2.59119e-06
0.511354
2.49333e-06
0.511356
2.32536e-06
0.511359
2.18299e-06
0.511363
2.23515e-06
0.511366
2.49497e-06
0.511369
2.63459e-06
0.511372
2.51074e-06
0.511376
2.36172e-06
0.511379
2.37912e-06
0.511382
2.60089e-06
0.511384
2.76546e-06
0.511386
2.62235e-06
0.511389
2.46423e-06
0.511391
2.51879e-06
0.511394
2.62682e-06
0.511396
2.60362e-06
0.511399
2.42848e-06
0.511402
2.27883e-06
0.511406
2.24288e-06
0.511409
2.27534e-06
0.511412
2.33805e-06
0.511416
2.38218e-06
0.511419
2.49423e-06
0.511421
2.64417e-06
0.511424
2.65299e-06
0.511427
2.58118e-06
0.51143
2.53594e-06
0.511432
2.49605e-06
0.511435
2.51972e-06
0.511438
2.57849e-06
0.51144
2.60183e-06
0.511443
2.69354e-06
0.511445
2.8013e-06
0.511448
2.75289e-06
0.511451
2.64193e-06
0.511454
2.64839e-06
0.511457
2.73955e-06
0.51146
2.74306e-06
0.511463
2.61638e-06
0.511465
2.50791e-06
0.511468
2.43376e-06
0.511471
2.35033e-06
0.511475
2.26378e-06
0.511478
2.19323e-06
0.511481
2.22838e-06
0.511485
2.36356e-06
0.511488
2.47632e-06
0.51149
2.52093e-06
0.511493
2.45167e-06
0.511496
2.24701e-06
0.5115
2.03454e-06
0.511504
1.99565e-06
0.511507
2.21897e-06
0.51151
2.53593e-06
0.511512
2.7231e-06
0.511514
2.7075e-06
0.511516
2.54981e-06
0.511519
2.43589e-06
0.511521
2.40979e-06
0.511524
2.33495e-06
0.511527
2.2657e-06
0.511531
2.36933e-06
0.511534
2.58372e-06
0.511537
2.75731e-06
0.51154
2.78142e-06
0.511542
2.61487e-06
0.511545
2.40635e-06
0.511548
2.35995e-06
0.511552
2.44706e-06
0.511555
2.53761e-06
0.511557
2.68345e-06
0.51156
2.85105e-06
0.511562
2.87682e-06
0.511564
2.81521e-06
0.511566
2.66477e-06
0.511569
2.36724e-06
0.511572
2.16651e-06
0.511576
2.15045e-06
0.51158
2.13178e-06
0.511583
2.21031e-06
0.511587
2.52088e-06
0.511589
2.77184e-06
0.511592
2.7663e-06
0.511595
2.72422e-06
0.511597
2.73549e-06
0.5116
2.7184e-06
0.511603
2.74056e-06
0.511605
2.81982e-06
0.511608
2.86151e-06
0.51161
2.82183e-06
0.511612
2.67693e-06
0.511616
2.40867e-06
0.51162
2.0652e-06
0.511624
1.82054e-06
0.511628
1.86276e-06
0.511632
2.14912e-06
0.511635
2.47578e-06
0.511637
2.5845e-06
0.51164
2.49744e-06
0.511642
2.43446e-06
0.511645
2.47009e-06
0.511648
2.43111e-06
0.511652
2.33427e-06
0.511655
2.44293e-06
0.511659
2.52691e-06
2.71915e-06
0.510922
5.45921e-09
0.510922
7.31691e-07
0.510922
1.37193e-06
0.510922
1.82181e-06
0.510923
2.08576e-06
0.510923
1.87487e-06
0.510924
1.44888e-06
0.510925
1.68787e-06
0.510925
2.094e-06
0.510925
2.07224e-06
0.510926
1.93732e-06
0.510926
1.91983e-06
0.510927
1.90952e-06
0.510926
2.14173e-06
0.510926
2.39398e-06
0.510926
2.07779e-06
0.510927
1.84159e-06
0.510927
1.88731e-06
0.510928
1.87223e-06
0.510929
2.30421e-06
0.510929
2.70721e-06
0.51093
2.47841e-06
0.510931
2.30701e-06
0.510931
2.18423e-06
0.510932
1.81634e-06
0.510932
1.98545e-06
0.510932
3.08434e-06
0.51093
3.73361e-06
0.51093
2.89648e-06
0.51093
1.87665e-06
0.51093
1.5847e-06
0.51093
1.76294e-06
0.51093
2.21682e-06
0.510931
2.35938e-06
0.510931
2.05304e-06
0.510932
2.20865e-06
0.510931
2.72812e-06
0.510931
2.82363e-06
0.510931
2.46306e-06
0.510931
2.07065e-06
0.510932
1.85783e-06
0.510933
1.9446e-06
0.510934
2.4783e-06
0.510934
2.84617e-06
0.510934
2.498e-06
0.510934
1.97936e-06
0.510934
1.6287e-06
0.510934
1.61714e-06
0.510935
2.11745e-06
0.510935
2.71e-06
0.510934
2.82897e-06
0.510934
2.70316e-06
0.510934
2.6211e-06
0.510933
2.5182e-06
0.510933
2.35861e-06
0.510933
2.11807e-06
0.510934
2.03907e-06
0.510935
2.16657e-06
0.510935
2.23577e-06
0.510936
2.17111e-06
0.510937
2.02563e-06
0.510937
2.02393e-06
0.510938
2.25931e-06
0.510938
2.62449e-06
0.510938
2.74684e-06
0.510938
2.4204e-06
0.510938
2.08694e-06
0.510938
1.81076e-06
0.510939
1.50456e-06
0.51094
1.56397e-06
0.51094
2.06032e-06
0.51094
2.47496e-06
0.51094
2.47935e-06
0.510941
2.43289e-06
0.510941
2.45662e-06
0.510941
2.42805e-06
0.510941
2.55536e-06
0.510941
2.5329e-06
0.510941
2.2667e-06
0.510942
2.12733e-06
0.510942
2.02271e-06
0.510943
1.81977e-06
0.510943
1.65858e-06
0.510944
1.77625e-06
0.510944
2.06234e-06
0.510944
2.22365e-06
0.510945
2.36793e-06
0.510945
2.40132e-06
0.510946
2.16877e-06
0.510947
1.91824e-06
0.510948
1.87588e-06
0.510948
2.0244e-06
0.510948
2.23545e-06
0.510948
2.46261e-06
0.510948
2.56207e-06
0.510948
2.4376e-06
0.510948
2.28382e-06
0.510948
2.22624e-06
0.510949
2.3233e-06
0.510949
2.54399e-06
0.510948
2.69046e-06
0.510948
2.59411e-06
0.510948
2.32883e-06
0.510949
2.18132e-06
0.510949
2.20104e-06
0.510949
2.29374e-06
0.51095
2.43875e-06
0.51095
2.41745e-06
0.51095
2.24516e-06
0.51095
2.24277e-06
0.51095
2.3365e-06
0.510951
2.30792e-06
0.510952
2.26103e-06
0.510952
2.30379e-06
0.510953
2.35346e-06
0.510953
2.21554e-06
0.510953
1.96681e-06
0.510954
1.90947e-06
0.510954
2.0693e-06
0.510954
2.30944e-06
0.510954
2.41045e-06
0.510954
2.20971e-06
0.510954
2.00024e-06
0.510954
1.98459e-06
0.510955
2.06713e-06
0.510955
2.1599e-06
0.510956
2.18033e-06
0.510956
2.17055e-06
0.510957
2.2539e-06
0.510957
2.34245e-06
0.510958
2.27642e-06
0.510958
2.1622e-06
0.510958
2.1421e-06
0.510958
2.17382e-06
0.510958
2.2361e-06
0.510958
2.37289e-06
0.510958
2.56205e-06
0.510958
2.77112e-06
0.510957
2.85111e-06
0.510957
2.65028e-06
0.510957
2.3677e-06
0.510957
2.29536e-06
0.510957
2.3418e-06
0.510957
2.34082e-06
0.510958
2.31313e-06
0.510958
2.26713e-06
0.510958
2.24529e-06
0.510957
2.27601e-06
0.510958
2.35092e-06
0.510958
2.48694e-06
0.510958
2.64357e-06
0.510957
2.70162e-06
0.510957
2.53458e-06
0.510957
2.32054e-06
0.510958
2.37542e-06
0.510958
2.56453e-06
0.510958
2.59002e-06
0.510958
2.36781e-06
0.510958
2.05434e-06
0.510959
1.96032e-06
0.510959
2.0973e-06
0.51096
2.17545e-06
0.51096
2.07991e-06
0.51096
2.00809e-06
0.51096
2.14364e-06
0.51096
2.25714e-06
0.510961
2.14007e-06
0.510961
1.98108e-06
0.510962
1.94013e-06
0.510963
1.98484e-06
0.510963
1.98982e-06
0.510964
1.83505e-06
0.510965
1.7152e-06
0.510965
1.93761e-06
0.510966
2.28894e-06
0.510966
2.43916e-06
0.510966
2.50439e-06
0.510966
2.59816e-06
0.510966
2.60165e-06
0.510966
2.50453e-06
0.510967
2.38966e-06
0.510967
2.29735e-06
0.510968
2.26186e-06
0.510968
2.25842e-06
0.510968
2.15716e-06
0.510969
2.01574e-06
0.510969
2.01881e-06
0.510969
2.10261e-06
0.510969
2.17636e-06
0.510969
2.21488e-06
0.510969
2.17306e-06
0.51097
2.20978e-06
0.51097
2.41865e-06
0.510969
2.5331e-06
0.510969
2.45674e-06
0.510969
2.35106e-06
0.510969
2.26133e-06
0.510969
2.18873e-06
0.510969
2.22562e-06
0.51097
2.35605e-06
0.51097
2.4407e-06
0.51097
2.44911e-06
0.51097
2.36906e-06
0.51097
2.19479e-06
0.51097
2.11812e-06
0.51097
2.21636e-06
0.510971
2.31541e-06
0.510971
2.37307e-06
0.510971
2.39233e-06
0.510972
2.30877e-06
0.510972
2.22315e-06
0.510972
2.20361e-06
0.510972
2.18607e-06
0.510973
2.15405e-06
0.510973
2.1086e-06
0.510974
2.07162e-06
0.510975
2.10521e-06
0.510975
2.2293e-06
0.510976
2.39096e-06
0.510976
2.49394e-06
0.510975
2.46114e-06
0.510975
2.32186e-06
0.510975
2.17741e-06
0.510975
2.09618e-06
0.510975
2.18589e-06
0.510976
2.43985e-06
0.510976
2.56815e-06
0.510976
2.50557e-06
0.510977
2.45301e-06
0.510977
2.37981e-06
0.510977
2.29245e-06
0.510978
2.35896e-06
0.510978
2.49891e-06
0.510978
2.59e-06
0.510978
2.75068e-06
0.510978
2.90965e-06
0.510977
2.75949e-06
0.510977
2.30285e-06
0.510977
1.84611e-06
0.510977
1.54164e-06
0.510978
1.56847e-06
0.510979
1.85203e-06
0.510979
1.98186e-06
0.51098
1.84281e-06
0.510981
1.71881e-06
0.510981
1.79428e-06
0.510982
1.82499e-06
0.510983
1.80343e-06
0.510983
1.94574e-06
2.21374e-06
0.510924
4.468e-07
0.510924
6.28837e-07
0.510924
8.66542e-07
0.510925
1.39797e-06
0.510925
1.74325e-06
0.510925
1.92197e-06
0.510924
2.03664e-06
0.510924
1.78524e-06
0.510925
1.53381e-06
0.510925
1.59901e-06
0.510925
1.83348e-06
0.510926
1.68135e-06
0.510926
1.60995e-06
0.510926
1.95352e-06
0.510927
1.91046e-06
0.510927
2.17728e-06
0.510926
2.48668e-06
0.510926
2.25175e-06
0.510925
2.24282e-06
0.510926
1.93519e-06
0.510927
1.62436e-06
0.510927
2.06754e-06
0.510927
2.42771e-06
0.510927
2.34982e-06
0.510927
1.8743e-06
0.510928
1.10032e-06
0.51093
9.39058e-07
0.510932
1.72244e-06
0.510932
2.43283e-06
0.510932
2.57203e-06
0.510931
2.41665e-06
0.51093
2.18606e-06
0.510931
1.80393e-06
0.510931
1.59807e-06
0.510931
2.0689e-06
0.510931
2.41118e-06
0.510932
1.90002e-06
0.510933
1.69742e-06
0.510933
2.14962e-06
0.510933
2.3622e-06
0.510933
2.32259e-06
0.510932
2.19072e-06
0.510933
2.03151e-06
0.510934
2.17404e-06
0.510934
2.28768e-06
0.510933
2.34329e-06
0.510932
2.5871e-06
0.510932
2.51758e-06
0.510932
2.0356e-06
0.510933
1.81987e-06
0.510933
1.90098e-06
0.510934
1.93511e-06
0.510935
1.91642e-06
0.510936
1.67706e-06
0.510937
1.61293e-06
0.510937
1.99407e-06
0.510937
2.0859e-06
0.510937
1.75726e-06
0.510938
1.70708e-06
0.510938
1.90301e-06
0.510938
1.921e-06
0.510938
1.85054e-06
0.510939
1.6537e-06
0.51094
1.61118e-06
0.51094
2.02412e-06
0.510941
2.28074e-06
0.51094
2.19957e-06
0.51094
2.07806e-06
0.51094
1.96339e-06
0.510939
2.0059e-06
0.510939
2.23198e-06
0.510939
2.50057e-06
0.510939
2.46621e-06
0.510939
2.14256e-06
0.51094
1.94534e-06
0.51094
1.87099e-06
0.510941
2.0514e-06
0.510941
2.51011e-06
0.51094
2.80712e-06
0.51094
2.64962e-06
0.51094
2.06637e-06
0.51094
1.50271e-06
0.510941
1.30344e-06
0.510941
1.47548e-06
0.510941
1.87094e-06
0.510941
2.17302e-06
0.510941
2.27186e-06
0.510941
2.18973e-06
0.510942
1.99409e-06
0.510942
1.81024e-06
0.510942
1.6424e-06
0.510942
1.60223e-06
0.510943
1.71007e-06
0.510943
1.91532e-06
0.510944
2.12146e-06
0.510944
2.08087e-06
0.510945
1.91169e-06
0.510945
1.89757e-06
0.510945
1.99218e-06
0.510946
2.07008e-06
0.510946
2.11077e-06
0.510947
2.08877e-06
0.510947
2.00603e-06
0.510947
1.989e-06
0.510948
2.02534e-06
0.510948
1.98591e-06
0.510948
2.06693e-06
0.510948
2.35386e-06
0.510948
2.48803e-06
0.510948
2.41235e-06
0.510948
2.42973e-06
0.510948
2.46561e-06
0.510948
2.29133e-06
0.510948
1.98617e-06
0.510948
1.77933e-06
0.510949
1.75329e-06
0.510949
1.82409e-06
0.510949
1.90608e-06
0.510949
1.8937e-06
0.51095
1.7777e-06
0.51095
1.75943e-06
0.510951
1.90018e-06
0.510951
2.01645e-06
0.510951
1.92691e-06
0.510951
1.80712e-06
0.510951
1.97303e-06
0.510951
2.25651e-06
0.510951
2.37355e-06
0.510951
2.30982e-06
0.510951
2.18227e-06
0.510951
2.12357e-06
0.510951
2.12381e-06
0.510951
2.00937e-06
0.510952
1.76264e-06
0.510952
1.67485e-06
0.510953
1.83082e-06
0.510953
1.97119e-06
0.510954
2.11359e-06
0.510955
2.42765e-06
0.510954
2.73404e-06
0.510954
2.75469e-06
0.510954
2.4169e-06
0.510954
1.8665e-06
0.510955
1.46213e-06
0.510956
1.46705e-06
0.510957
1.65336e-06
0.510957
1.7576e-06
0.510958
1.78427e-06
0.510958
1.81819e-06
0.510959
1.93633e-06
0.510959
2.10015e-06
0.51096
2.25767e-06
0.51096
2.33126e-06
0.51096
2.21085e-06
0.51096
2.03033e-06
0.510961
1.9209e-06
0.510962
1.91581e-06
0.510962
2.0881e-06
0.510962
2.25615e-06
0.510962
2.15473e-06
0.510962
1.86121e-06
0.510962
1.64235e-06
0.510963
1.64941e-06
0.510963
1.76488e-06
0.510963
1.90068e-06
0.510964
2.00352e-06
0.510964
2.02553e-06
0.510964
1.97819e-06
0.510964
1.81506e-06
0.510964
1.62606e-06
0.510965
1.63439e-06
0.510965
1.76715e-06
0.510965
1.80865e-06
0.510965
1.81328e-06
0.510965
1.89589e-06
0.510965
2.0753e-06
0.510966
2.34817e-06
0.510966
2.55273e-06
0.510966
2.53884e-06
0.510966
2.43796e-06
0.510966
2.37247e-06
0.510966
2.3099e-06
0.510966
2.20028e-06
0.510966
2.06369e-06
0.510966
1.97333e-06
0.510966
1.91723e-06
0.510966
1.83413e-06
0.510967
1.74704e-06
0.510967
1.75324e-06
0.510968
1.87741e-06
0.510968
1.96901e-06
0.510968
1.93942e-06
0.510969
1.88885e-06
0.510969
1.93629e-06
0.51097
2.0731e-06
0.51097
2.15352e-06
0.51097
2.13402e-06
0.51097
2.08284e-06
0.51097
1.99072e-06
0.510971
1.89196e-06
0.510971
1.84815e-06
0.510972
1.84354e-06
0.510972
1.93187e-06
0.510973
2.03824e-06
0.510973
1.96268e-06
0.510973
1.80693e-06
0.510974
1.75892e-06
0.510974
1.79489e-06
0.510975
1.89544e-06
0.510975
1.99427e-06
0.510975
1.95269e-06
0.510976
1.88901e-06
0.510976
1.99334e-06
0.510976
2.09991e-06
0.510976
2.07674e-06
0.510976
2.06476e-06
0.510976
1.99097e-06
0.510976
1.79093e-06
0.510977
1.75151e-06
0.510978
1.92645e-06
0.510978
2.10953e-06
0.510978
2.28926e-06
0.510978
2.43301e-06
0.510977
2.41261e-06
0.510977
2.33071e-06
0.510977
2.34272e-06
0.510978
2.36778e-06
0.510978
2.39722e-06
0.510978
2.50759e-06
0.510977
2.55852e-06
0.510977
2.50819e-06
0.510977
2.48553e-06
0.510977
2.42708e-06
0.510978
2.25322e-06
0.510978
2.06464e-06
0.510979
1.96982e-06
0.51098
2.028e-06
0.51098
2.1945e-06
0.51098
2.2208e-06
0.510979
1.89273e-06
0.510979
1.4965e-06
0.51098
1.38675e-06
0.51098
1.48185e-06
0.510981
1.49135e-06
0.510981
1.37208e-06
0.510981
1.42175e-06
0.510982
1.64292e-06
0.510982
1.71244e-06
0.510982
1.83005e-06
2.06123e-06
0.510923
-6.83951e-08
0.510923
6.38276e-07
0.510923
1.22842e-06
0.510923
1.39674e-06
0.510923
1.27346e-06
0.510924
1.05343e-06
0.510925
1.1647e-06
0.510925
1.49021e-06
0.510925
1.92218e-06
0.510925
1.7739e-06
0.510926
1.07268e-06
0.510926
1.49284e-06
0.510925
2.18264e-06
0.510925
1.69215e-06
0.510926
1.23836e-06
0.510927
1.63576e-06
0.510927
2.17106e-06
0.510927
2.27381e-06
0.510927
1.95835e-06
0.510927
1.81061e-06
0.510927
1.99402e-06
0.510927
1.82753e-06
0.510928
1.698e-06
0.510928
1.84316e-06
0.510929
1.62454e-06
0.510928
1.35556e-06
0.510928
1.39711e-06
0.510928
1.52454e-06
0.510929
1.63901e-06
0.51093
1.87719e-06
0.51093
2.06662e-06
0.51093
1.75694e-06
0.510931
1.57217e-06
0.51093
2.02379e-06
0.51093
2.19253e-06
0.510931
1.87763e-06
0.510931
1.68417e-06
0.510931
1.49123e-06
0.510932
1.54677e-06
0.510932
2.15188e-06
0.510932
2.58108e-06
0.510932
2.25431e-06
0.510932
1.66924e-06
0.510933
1.37234e-06
0.510934
1.43971e-06
0.510934
1.68464e-06
0.510935
1.82222e-06
0.510936
1.81568e-06
0.510936
1.81068e-06
0.510936
1.87743e-06
0.510936
2.012e-06
0.510936
1.96505e-06
0.510936
1.70475e-06
0.510936
1.57675e-06
0.510936
1.63278e-06
0.510936
1.79732e-06
0.510936
2.13631e-06
0.510936
2.23518e-06
0.510936
1.90126e-06
0.510936
1.75952e-06
0.510936
1.79615e-06
0.510936
1.68334e-06
0.510936
1.74267e-06
0.510936
1.92971e-06
0.510936
1.85015e-06
0.510936
1.62264e-06
0.510937
1.52078e-06
0.510938
1.39786e-06
0.510938
1.31925e-06
0.510939
1.66686e-06
0.510939
1.9908e-06
0.51094
1.90988e-06
0.51094
1.71187e-06
0.510941
1.62623e-06
0.510941
1.77321e-06
0.510941
1.88536e-06
0.510941
1.87892e-06
0.510942
1.96624e-06
0.510943
1.93386e-06
0.510943
1.80255e-06
0.510944
1.6998e-06
0.510944
1.59538e-06
0.510944
1.49465e-06
0.510944
1.4503e-06
0.510944
1.63081e-06
0.510944
1.87971e-06
0.510944
1.99312e-06
0.510945
1.94585e-06
0.510945
1.65412e-06
0.510945
1.45464e-06
0.510945
1.60302e-06
0.510945
1.75874e-06
0.510945
1.78062e-06
0.510945
1.77461e-06
0.510946
1.69654e-06
0.510946
1.73008e-06
0.510946
2.01324e-06
0.510946
2.16129e-06
0.510946
2.0821e-06
0.510946
2.03455e-06
0.510946
1.93795e-06
0.510946
1.80415e-06
0.510946
1.7898e-06
0.510946
1.88916e-06
0.510946
2.00979e-06
0.510946
1.99353e-06
0.510947
1.87159e-06
0.510947
1.7992e-06
0.510948
1.82647e-06
0.510948
2.03863e-06
0.510948
2.2741e-06
0.510949
2.18861e-06
0.510949
1.88057e-06
0.510949
1.59949e-06
0.51095
1.43747e-06
0.51095
1.47459e-06
0.51095
1.55767e-06
0.510951
1.55786e-06
0.510951
1.57723e-06
0.510951
1.57958e-06
0.510951
1.52075e-06
0.510952
1.47476e-06
0.510952
1.57144e-06
0.510952
1.76712e-06
0.510952
1.8211e-06
0.510953
1.7406e-06
0.510953
1.69784e-06
0.510954
1.76796e-06
0.510954
1.92481e-06
0.510954
2.05282e-06
0.510954
2.071e-06
0.510955
1.99112e-06
0.510955
1.90721e-06
0.510955
1.7985e-06
0.510955
1.6339e-06
0.510955
1.59281e-06
0.510955
1.69308e-06
0.510955
1.76047e-06
0.510956
1.8099e-06
0.510957
1.88395e-06
0.510958
1.89079e-06
0.510958
1.83694e-06
0.510959
1.75214e-06
0.510958
1.49663e-06
0.510959
1.19269e-06
0.510959
1.22366e-06
0.510959
1.56726e-06
0.510959
1.90825e-06
0.510959
2.04711e-06
0.510959
1.98761e-06
0.510959
1.9073e-06
0.510959
1.99242e-06
0.51096
2.15706e-06
0.51096
2.18713e-06
0.51096
2.14657e-06
0.510959
2.12953e-06
0.510959
2.00372e-06
0.510959
1.83411e-06
0.51096
1.77647e-06
0.51096
1.84303e-06
0.51096
1.94657e-06
0.51096
1.91246e-06
0.51096
1.69317e-06
0.51096
1.44177e-06
0.510961
1.40298e-06
0.510961
1.60136e-06
0.510961
1.77366e-06
0.510962
1.78257e-06
0.510962
1.68192e-06
0.510962
1.52004e-06
0.510962
1.39536e-06
0.510962
1.41957e-06
0.510963
1.59658e-06
0.510963
1.84245e-06
0.510962
2.06301e-06
0.510962
2.0911e-06
0.510963
1.94237e-06
0.510963
1.94188e-06
0.510964
2.12486e-06
0.510964
2.1929e-06
0.510964
2.09339e-06
0.510965
1.94351e-06
0.510965
1.79658e-06
0.510965
1.68942e-06
0.510966
1.58556e-06
0.510966
1.45158e-06
0.510967
1.40773e-06
0.510967
1.48235e-06
0.510967
1.53141e-06
0.510968
1.56402e-06
0.510968
1.63169e-06
0.510968
1.64357e-06
0.510968
1.6135e-06
0.510969
1.61784e-06
0.510969
1.637e-06
0.51097
1.67057e-06
0.51097
1.74949e-06
0.51097
1.78489e-06
0.510971
1.74863e-06
0.510971
1.73542e-06
0.510971
1.73519e-06
0.510971
1.67203e-06
0.510971
1.65779e-06
0.510972
1.78504e-06
0.510972
1.91687e-06
0.510971
1.94675e-06
0.510971
1.85517e-06
0.510972
1.6526e-06
0.510972
1.5412e-06
0.510972
1.66914e-06
0.510972
1.8382e-06
0.510972
1.8661e-06
0.510973
1.82331e-06
0.510973
1.78552e-06
0.510973
1.81827e-06
0.510973
1.96953e-06
0.510973
2.04915e-06
0.510973
1.91176e-06
0.510973
1.75366e-06
0.510973
1.69548e-06
0.510974
1.65372e-06
0.510974
1.66599e-06
0.510975
1.8255e-06
0.510975
2.02236e-06
0.510976
2.06611e-06
0.510976
2.00971e-06
0.510976
1.97288e-06
0.510977
1.93578e-06
0.510977
1.98569e-06
0.510978
2.15269e-06
0.510978
2.25696e-06
0.510978
2.26327e-06
0.510978
2.25598e-06
0.510978
2.19173e-06
0.510978
1.9974e-06
0.510979
1.73831e-06
0.510979
1.54784e-06
0.51098
1.47088e-06
0.510981
1.45372e-06
0.510981
1.36946e-06
0.510982
1.17161e-06
0.510982
9.93947e-07
0.510982
9.5467e-07
0.510983
1.02702e-06
0.510983
1.12639e-06
0.510983
1.13762e-06
0.510984
1.17076e-06
0.510984
1.26511e-06
0.510985
1.32929e-06
1.53162e-06
0.510923
2.8841e-07
0.510923
1.02295e-06
0.510923
1.38749e-06
0.510923
1.22675e-06
0.510923
8.94261e-07
0.510923
1.10429e-06
0.510923
1.58603e-06
0.510923
1.41805e-06
0.510924
7.21002e-07
0.510925
7.12599e-07
0.510925
9.42564e-07
0.510926
7.84094e-07
0.510927
9.8966e-07
0.510927
1.63775e-06
0.510927
1.5539e-06
0.510927
1.19934e-06
0.510928
1.41953e-06
0.510929
1.7746e-06
0.510929
1.92303e-06
0.510929
1.92126e-06
0.510929
1.89083e-06
0.510929
1.71289e-06
0.510929
1.65303e-06
0.510929
1.74361e-06
0.510929
1.77766e-06
0.510928
1.81582e-06
0.510928
1.71154e-06
0.510928
1.51915e-06
0.510928
1.56617e-06
0.510928
1.47688e-06
0.510929
1.19641e-06
0.51093
1.17708e-06
0.51093
1.60593e-06
0.51093
2.08881e-06
0.51093
2.01824e-06
0.51093
1.62594e-06
0.510931
1.36542e-06
0.510931
1.15602e-06
0.510931
1.28145e-06
0.510932
1.72196e-06
0.510932
1.77763e-06
0.510933
1.46792e-06
0.510933
1.33217e-06
0.510933
1.49479e-06
0.510933
1.71007e-06
0.510933
1.7008e-06
0.510933
1.52508e-06
0.510934
1.4685e-06
0.510934
1.61262e-06
0.510934
1.76672e-06
0.510934
1.72099e-06
0.510935
1.5374e-06
0.510935
1.44235e-06
0.510935
1.37832e-06
0.510935
1.36812e-06
0.510936
1.5003e-06
0.510936
1.58444e-06
0.510937
1.66774e-06
0.510937
1.69667e-06
0.510937
1.54033e-06
0.510938
1.42783e-06
0.510938
1.46172e-06
0.510938
1.52942e-06
0.510938
1.57591e-06
0.510939
1.54799e-06
0.510939
1.30331e-06
0.51094
1.09113e-06
0.51094
1.24735e-06
0.510939
1.54363e-06
0.510939
1.89893e-06
0.510939
2.00167e-06
0.510939
1.74465e-06
0.510939
1.6122e-06
0.51094
1.42982e-06
0.51094
1.28917e-06
0.51094
1.5548e-06
0.51094
1.8494e-06
0.51094
1.9795e-06
0.510941
1.86734e-06
0.510941
1.39441e-06
0.510942
9.57929e-07
0.510942
9.43683e-07
0.510943
1.26839e-06
0.510942
1.5735e-06
0.510942
1.78577e-06
0.510942
1.83358e-06
0.510943
1.54209e-06
0.510943
1.25546e-06
0.510944
1.2132e-06
0.510944
1.1825e-06
0.510945
1.26378e-06
0.510945
1.57648e-06
0.510945
1.71549e-06
0.510945
1.60012e-06
0.510945
1.56092e-06
0.510945
1.51066e-06
0.510946
1.42261e-06
0.510947
1.56194e-06
0.510947
1.76036e-06
0.510947
1.75031e-06
0.510947
1.68398e-06
0.510947
1.75815e-06
0.510947
1.83959e-06
0.510947
1.76509e-06
0.510948
1.68509e-06
0.510948
1.5856e-06
0.510949
1.44676e-06
0.510949
1.53135e-06
0.510949
1.75262e-06
0.510949
1.7928e-06
0.51095
1.77382e-06
0.51095
1.80437e-06
0.51095
1.71339e-06
0.51095
1.50708e-06
0.510951
1.26208e-06
0.510951
1.07481e-06
0.510951
1.12632e-06
0.510952
1.36349e-06
0.510952
1.52506e-06
0.510952
1.52527e-06
0.510952
1.45796e-06
0.510952
1.37076e-06
0.510952
1.35096e-06
0.510952
1.43286e-06
0.510953
1.4472e-06
0.510953
1.48972e-06
0.510953
1.66589e-06
0.510953
1.75045e-06
0.510953
1.66867e-06
0.510954
1.55438e-06
0.510954
1.50243e-06
0.510955
1.51715e-06
0.510955
1.56428e-06
0.510955
1.59186e-06
0.510955
1.59638e-06
0.510955
1.73248e-06
0.510955
1.97761e-06
0.510955
2.09965e-06
0.510954
2.08032e-06
0.510954
1.98045e-06
0.510954
1.8026e-06
0.510955
1.61877e-06
0.510955
1.49964e-06
0.510955
1.4294e-06
0.510955
1.33815e-06
0.510955
1.22675e-06
0.510955
1.15707e-06
0.510956
1.23123e-06
0.510956
1.49059e-06
0.510957
1.77166e-06
0.510957
1.86657e-06
0.510957
1.76338e-06