/*--------------------------------*- C++ -*----------------------------------*\
| =========                 |                                                 |
| \\      /  F ield         | OpenFOAM: The Open Source CFD Toolbox           |
|  \\    /   O peration     | Version:  2406                                  |
|   \\  /    A nd           | Website:  www.openfoam.com                      |
|    \\/     M anipulation  |                                                 |
\*---------------------------------------------------------------------------*/
FoamFile
{
    version     2.0;
    format      ascii;
    arch        "LSB;label=32;scalar=64";
    class       volVectorField;
    location    "1.5";
    object      U;
}
// * * * * * * * * * * * * * * * * * * * * * * * * * * * * * * * * * * * * * //

dimensions      [0 1 -1 0 0 0 0];

internalField   nonuniform List<vector> 
6250
(
(50.5336 9.13309e-05 0)
(85.4294 0.000485616 0)
(73.2577 0.000737378 0)
(60.6155 0.000718575 0)
(59.8727 0.000641443 0)
(63.3314 0.00064734 0)
(64.8404 0.000698808 0)
(64.3888 0.000760442 0)
(63.7717 0.000801761 0)
(63.6691 0.000823646 0)
(63.8117 0.000840929 0)
(63.8958 0.000845511 0)
(63.8853 0.000848553 0)
(63.8557 0.000866758 0)
(63.8469 0.000876028 0)
(63.8517 0.000884712 0)
(63.8554 0.000904628 0)
(63.8548 0.000906852 0)
(63.8528 0.000870798 0)
(63.8516 0.000787472 0)
(63.8512 0.00067357 0)
(63.851 0.000626298 0)
(63.8503 0.000684578 0)
(63.8495 0.000782456 0)
(63.8488 0.000870902 0)
(63.848 0.000931567 0)
(63.8473 0.000995184 0)
(63.8465 0.00106484 0)
(63.8457 0.00110654 0)
(63.8451 0.00111116 0)
(63.8444 0.00107375 0)
(63.8437 0.00102021 0)
(63.843 0.00094699 0)
(63.8424 0.000849112 0)
(63.8418 0.000770193 0)
(63.8412 0.00075038 0)
(63.8405 0.000824871 0)
(63.8397 0.000957801 0)
(63.8388 0.00105698 0)
(63.838 0.00107701 0)
(63.8373 0.00102937 0)
(63.8366 0.000926595 0)
(63.836 0.000782464 0)
(63.8355 0.00067965 0)
(63.8351 0.000680966 0)
(63.8345 0.000728038 0)
(63.8339 0.000772633 0)
(63.8333 0.000832765 0)
(63.8325 0.000888907 0)
(63.8318 0.000913177 0)
(63.8311 0.000939773 0)
(63.8303 0.00100102 0)
(63.8295 0.00108447 0)
(63.8288 0.00114724 0)
(63.828 0.00114175 0)
(63.8273 0.0010779 0)
(63.8267 0.000989408 0)
(63.826 0.000881922 0)
(63.8255 0.000778023 0)
(63.825 0.000731266 0)
(63.8244 0.000771599 0)
(63.8237 0.000847213 0)
(63.8229 0.000898248 0)
(63.8222 0.000923055 0)
(63.8215 0.000945849 0)
(63.8207 0.000989581 0)
(63.82 0.00102827 0)
(63.8192 0.00103021 0)
(63.8185 0.0009999 0)
(63.8178 0.000930217 0)
(63.8172 0.000847237 0)
(63.8167 0.00081062 0)
(63.816 0.000845985 0)
(63.8153 0.000924512 0)
(63.8145 0.000987384 0)
(63.8137 0.00100794 0)
(63.813 0.000998302 0)
(63.8123 0.000994303 0)
(63.8116 0.00101353 0)
(63.8108 0.00103243 0)
(63.8101 0.0010287 0)
(63.8093 0.000977128 0)
(63.8087 0.00089708 0)
(63.8082 0.000855622 0)
(63.8075 0.00086557 0)
(63.8068 0.000892546 0)
(63.8062 0.000905443 0)
(63.8055 0.000896706 0)
(63.8048 0.000877665 0)
(63.8041 0.000857362 0)
(63.8035 0.000858602 0)
(63.8028 0.000902323 0)
(63.8021 0.00097912 0)
(63.8014 0.00105559 0)
(63.8006 0.00110014 0)
(63.7999 0.0011044 0)
(63.7992 0.0010661 0)
(63.7985 0.000993121 0)
(63.7979 0.000914854 0)
(63.7974 0.00086853 0)
(63.7967 0.000881298 0)
(63.7961 0.000940733 0)
(63.7954 0.00100342 0)
(63.7946 0.00102849 0)
(63.7939 0.00100474 0)
(63.7933 0.000957908 0)
(63.7927 0.000910136 0)
(63.792 0.000873508 0)
(63.7914 0.000873129 0)
(63.7907 0.000910042 0)
(63.7899 0.000949429 0)
(63.7892 0.000965418 0)
(63.7885 0.000954522 0)
(63.7878 0.000929407 0)
(63.7871 0.000910165 0)
(63.7864 0.000906556 0)
(63.7857 0.000904362 0)
(63.7851 0.000884844 0)
(63.7845 0.000865696 0)
(63.7839 0.000881665 0)
(63.7832 0.000937446 0)
(63.7824 0.00100813 0)
(63.7816 0.0010579 0)
(63.7809 0.00107261 0)
(63.7801 0.00106092 0)
(63.7794 0.00102071 0)
(63.7787 0.000960943 0)
(63.7781 0.000910033 0)
(63.7775 0.000871836 0)
(63.7768 0.000839274 0)
(63.7763 0.000831963 0)
(63.7756 0.000870645 0)
(63.7749 0.000949319 0)
(63.7741 0.00103742 0)
(63.7733 0.00108933 0)
(63.7726 0.00108193 0)
(63.772 0.00104337 0)
(63.7713 0.00101278 0)
(63.7707 0.000998363 0)
(63.7701 0.000996591 0)
(63.7694 0.0010043 0)
(63.7687 0.000998838 0)
(63.768 0.000961879 0)
(63.7674 0.000905588 0)
(63.7668 0.000856616 0)
(63.7662 0.00084761 0)
(63.7656 0.000895481 0)
(63.7649 0.000973243 0)
(63.7642 0.00103651 0)
(63.7635 0.00107214 0)
(63.7628 0.00109632 0)
(63.7621 0.00110932 0)
(63.7613 0.00109807 0)
(63.7606 0.00105851 0)
(63.76 0.00099446 0)
(63.7594 0.000935611 0)
(63.7588 0.000912948 0)
(63.7582 0.00091568 0)
(63.7575 0.000923207 0)
(63.7569 0.000933644 0)
(63.7562 0.000947875 0)
(63.7555 0.000961237 0)
(63.7549 0.000971873 0)
(63.7542 0.000984119 0)
(63.7535 0.00100076 0)
(63.7527 0.00102125 0)
(63.752 0.00103481 0)
(63.7514 0.00102237 0)
(63.7507 0.000984881 0)
(63.75 0.000941528 0)
(63.7494 0.000906642 0)
(63.7487 0.000891258 0)
(63.7481 0.00089521 0)
(63.7474 0.000897117 0)
(63.7468 0.000885483 0)
(63.7461 0.000875278 0)
(63.7455 0.000884206 0)
(63.7448 0.000920194 0)
(63.7441 0.000971362 0)
(63.7434 0.001008 0)
(63.7426 0.00101035 0)
(63.7419 0.000983374 0)
(63.7413 0.000950692 0)
(63.7406 0.000933719 0)
(63.7399 0.000935918 0)
(63.7392 0.000950907 0)
(63.7386 0.000968346 0)
(63.7379 0.000980463 0)
(63.7372 0.000987241 0)
(63.7365 0.000989992 0)
(63.7358 0.000992681 0)
(63.7351 0.000992379 0)
(63.7344 0.00098003 0)
(63.7338 0.000970087 0)
(63.7331 0.000990166 0)
(63.7324 0.00103859 0)
(63.7317 0.00107719 0)
(63.7309 0.00106511 0)
(63.7303 0.001001 0)
(63.7297 0.000922246 0)
(63.7291 0.000867528 0)
(63.7286 0.000854422 0)
(63.728 0.000874123 0)
(63.7273 0.000911319 0)
(63.7267 0.000957751 0)
(63.726 0.000997127 0)
(63.7252 0.00101426 0)
(63.7245 0.00101122 0)
(63.7238 0.00100015 0)
(63.7231 0.000998386 0)
(63.7225 0.00101343 0)
(63.7218 0.00103046 0)
(63.7211 0.00102864 0)
(63.7204 0.00100522 0)
(63.7197 0.000973211 0)
(63.719 0.00093745 0)
(63.7184 0.000900935 0)
(63.7178 0.000877702 0)
(63.7172 0.000874846 0)
(63.7165 0.000895468 0)
(63.7159 0.000944587 0)
(63.7152 0.00100552 0)
(63.7145 0.00104616 0)
(63.7137 0.00105364 0)
(63.713 0.00103365 0)
(63.7123 0.000996627 0)
(63.7116 0.000964882 0)
(63.7109 0.000954553 0)
(63.7102 0.000956323 0)
(63.7096 0.000960347 0)
(63.7089 0.000960434 0)
(63.7082 0.000941914 0)
(63.7075 0.000909211 0)
(63.7069 0.000893742 0)
(63.7063 0.000914888 0)
(63.7056 0.000968611 0)
(63.7049 0.00104526 0)
(63.7041 0.00111762 0)
(63.7033 0.00114678 0)
(63.7026 0.00112178 0)
(63.7019 0.00105476 0)
(63.7012 0.000965395 0)
(63.7006 0.000894435 0)
(63.7 0.00087563 0)
(63.6994 0.000896191 0)
(63.6987 0.000924927 0)
(63.698 0.000961806 0)
(63.6972 0.000997384 0)
(63.6965 0.00105037 0)
(63.6954 0.00102622 0)
(50.5337 7.82156e-05 0)
(85.4307 0.000395655 0)
(73.2607 0.000628172 0)
(60.6201 0.000603252 0)
(59.8778 0.000497899 0)
(63.3373 0.000478913 0)
(64.8469 0.000532998 0)
(64.3965 0.000585074 0)
(63.7808 0.000574363 0)
(63.6793 0.000529265 0)
(63.8229 0.000523602 0)
(63.9082 0.000535446 0)
(63.8986 0.000510713 0)
(63.8703 0.000462316 0)
(63.8626 0.000459591 0)
(63.8684 0.000494156 0)
(63.8732 0.000505256 0)
(63.874 0.000516559 0)
(63.873 0.000540958 0)
(63.8727 0.000533078 0)
(63.8731 0.000501547 0)
(63.8734 0.000519587 0)
(63.8737 0.000562361 0)
(63.874 0.000558176 0)
(63.8745 0.000567356 0)
(63.8748 0.000583531 0)
(63.8753 0.000518817 0)
(63.8759 0.000401939 0)
(63.8762 0.000323481 0)
(63.8767 0.000311157 0)
(63.8772 0.000319235 0)
(63.8777 0.000365546 0)
(63.878 0.000424171 0)
(63.8783 0.00043556 0)
(63.8786 0.000442103 0)
(63.8789 0.000475857 0)
(63.8792 0.000523261 0)
(63.8797 0.000547974 0)
(63.8803 0.000531639 0)
(63.8809 0.000506942 0)
(63.8813 0.000493863 0)
(63.8816 0.000483053 0)
(63.8818 0.000440147 0)
(63.8817 0.000367043 0)
(63.8819 0.000333095 0)
(63.8823 0.000349008 0)
(63.8826 0.00038659 0)
(63.8831 0.000457819 0)
(63.8835 0.000526874 0)
(63.8839 0.000537158 0)
(63.8843 0.000507462 0)
(63.8847 0.000461881 0)
(63.8852 0.000401273 0)
(63.8858 0.000360659 0)
(63.8863 0.000349365 0)
(63.8866 0.000348189 0)
(63.887 0.000350777 0)
(63.8873 0.000356997 0)
(63.8875 0.000378836 0)
(63.8876 0.000408665 0)
(63.8878 0.000445851 0)
(63.8883 0.000499609 0)
(63.8886 0.000540497 0)
(63.889 0.000532033 0)
(63.8894 0.000481963 0)
(63.8898 0.000446975 0)
(63.8903 0.000434854 0)
(63.8908 0.000429305 0)
(63.8912 0.000445815 0)
(63.8916 0.000438363 0)
(63.8919 0.000398912 0)
(63.8922 0.000400549 0)
(63.8925 0.000457721 0)
(63.8929 0.000517635 0)
(63.8933 0.000523792 0)
(63.8938 0.000483266 0)
(63.8942 0.000433636 0)
(63.8945 0.000412516 0)
(63.895 0.000448404 0)
(63.8954 0.000491879 0)
(63.8959 0.000489643 0)
(63.8963 0.000434497 0)
(63.8966 0.000361983 0)
(63.8969 0.000343232 0)
(63.8973 0.000383541 0)
(63.8976 0.000445297 0)
(63.898 0.000498536 0)
(63.8983 0.000514331 0)
(63.8986 0.00049807 0)
(63.8989 0.000465891 0)
(63.8992 0.000430682 0)
(63.8995 0.000407309 0)
(63.9 0.000401653 0)
(63.9004 0.00039783 0)
(63.9009 0.000374943 0)
(63.9013 0.000350851 0)
(63.9017 0.000335539 0)
(63.902 0.000319216 0)
(63.9023 0.000315429 0)
(63.9026 0.000326652 0)
(63.9029 0.00034315 0)
(63.9032 0.000364179 0)
(63.9037 0.000388055 0)
(63.9041 0.000401504 0)
(63.9045 0.000391446 0)
(63.9048 0.000379565 0)
(63.9051 0.000384659 0)
(63.9054 0.000397628 0)
(63.9057 0.000425927 0)
(63.9061 0.000464046 0)
(63.9066 0.00048342 0)
(63.907 0.00049473 0)
(63.9073 0.00051339 0)
(63.9076 0.000511142 0)
(63.9079 0.000470103 0)
(63.9083 0.000418003 0)
(63.9087 0.000390353 0)
(63.909 0.000387792 0)
(63.9093 0.000396595 0)
(63.9097 0.00041346 0)
(63.9101 0.000432704 0)
(63.9106 0.000449303 0)
(63.9111 0.000454051 0)
(63.9115 0.000442304 0)
(63.912 0.000428569 0)
(63.9125 0.000415251 0)
(63.9128 0.000403788 0)
(63.913 0.000409147 0)
(63.9133 0.000420084 0)
(63.9136 0.000417339 0)
(63.9138 0.000413809 0)
(63.9142 0.000421515 0)
(63.9146 0.000429526 0)
(63.9151 0.000428873 0)
(63.9156 0.000408631 0)
(63.916 0.000361355 0)
(63.9163 0.000310221 0)
(63.9167 0.00028276 0)
(63.917 0.000275991 0)
(63.9174 0.00028813 0)
(63.9178 0.00032778 0)
(63.9182 0.000370715 0)
(63.9185 0.000384307 0)
(63.9188 0.000370354 0)
(63.9191 0.0003424 0)
(63.9194 0.000317278 0)
(63.9197 0.000314383 0)
(63.9201 0.000334994 0)
(63.9205 0.000362259 0)
(63.9209 0.000375732 0)
(63.9213 0.000368471 0)
(63.9218 0.000343692 0)
(63.9222 0.000317613 0)
(63.9226 0.000314291 0)
(63.9229 0.000319938 0)
(63.9231 0.000316369 0)
(63.9234 0.000321608 0)
(63.9238 0.000340306 0)
(63.9241 0.000360441 0)
(63.9244 0.00037375 0)
(63.9247 0.000373661 0)
(63.9251 0.000367339 0)
(63.9255 0.000365645 0)
(63.9259 0.000369614 0)
(63.9263 0.000370454 0)
(63.9267 0.000366184 0)
(63.9272 0.000373177 0)
(63.9275 0.000393492 0)
(63.9278 0.000409776 0)
(63.9282 0.000412259 0)
(63.9286 0.000400214 0)
(63.9289 0.000389061 0)
(63.9292 0.000397098 0)
(63.9296 0.000408904 0)
(63.9298 0.000405144 0)
(63.9302 0.000400921 0)
(63.9305 0.000408769 0)
(63.9308 0.000420023 0)
(63.9312 0.000428265 0)
(63.9316 0.000434635 0)
(63.932 0.00043873 0)
(63.9323 0.000432794 0)
(63.9326 0.000416609 0)
(63.933 0.000400686 0)
(63.9334 0.00039024 0)
(63.9337 0.000389482 0)
(63.9341 0.000395311 0)
(63.9345 0.000395415 0)
(63.935 0.0003884 0)
(63.9354 0.000378705 0)
(63.9358 0.000374397 0)
(63.9361 0.000379211 0)
(63.9365 0.000376863 0)
(63.9368 0.000361125 0)
(63.9372 0.000349541 0)
(63.9377 0.000353101 0)
(63.9382 0.000363065 0)
(63.9386 0.000362303 0)
(63.9389 0.000347062 0)
(63.9392 0.000328569 0)
(63.9394 0.000316599 0)
(63.9397 0.000319271 0)
(63.94 0.000333223 0)
(63.9403 0.000349602 0)
(63.9407 0.000373642 0)
(63.9412 0.000400241 0)
(63.9416 0.000411122 0)
(63.9419 0.000401071 0)
(63.9423 0.000374219 0)
(63.9426 0.000345624 0)
(63.943 0.000337686 0)
(63.9434 0.000354687 0)
(63.9438 0.000376807 0)
(63.9441 0.000386576 0)
(63.9445 0.000388719 0)
(63.9449 0.000385212 0)
(63.9451 0.000374687 0)
(63.9454 0.000369909 0)
(63.9456 0.000364938 0)
(63.9459 0.000350331 0)
(63.9463 0.000349929 0)
(63.9467 0.000370949 0)
(63.9472 0.000388282 0)
(63.9477 0.000400641 0)
(63.9481 0.000418882 0)
(63.9485 0.000424492 0)
(63.9488 0.000410577 0)
(63.9492 0.00040262 0)
(63.9495 0.000408497 0)
(63.9498 0.000417954 0)
(63.9502 0.000424262 0)
(63.9505 0.000415917 0)
(63.9508 0.000395887 0)
(63.9511 0.00038618 0)
(63.9514 0.000387005 0)
(63.9517 0.000377785 0)
(63.9522 0.000359538 0)
(63.9527 0.000348651 0)
(63.9533 0.000353569 0)
(63.9538 0.000377884 0)
(63.9542 0.000400317 0)
(63.9545 0.000387591 0)
(63.9548 0.000357905 0)
(63.9551 0.000359796 0)
(63.9554 0.000395649 0)
(63.9558 0.000425229 0)
(63.9562 0.000442864 0)
(63.9567 0.000463998 0)
(63.9571 0.000500274 0)
(63.9577 0.000454956 0)
(50.5337 1.25731e-05 0)
(85.4303 2.22907e-05 0)
(73.2595 3.35596e-05 0)
(60.6181 7.88371e-05 0)
(59.8759 0.000109374 0)
(63.3351 0.00010126 0)
(64.8447 7.78686e-05 0)
(64.3939 7.72115e-05 0)
(63.7778 9.27785e-05 0)
(63.6758 9.89957e-05 0)
(63.8191 0.000117396 0)
(63.904 0.000131082 0)
(63.8943 0.000105019 0)
(63.8654 7.6031e-05 0)
(63.8571 0.000109738 0)
(63.8627 0.000131705 0)
(63.8672 9.74615e-05 0)
(63.8673 9.67582e-05 0)
(63.8661 0.000143997 0)
(63.8658 0.000200243 0)
(63.8659 0.000246271 0)
(63.8662 0.000252836 0)
(63.8664 0.000204961 0)
(63.8664 0.000116515 0)
(63.8663 7.88116e-05 0)
(63.8665 0.000136352 0)
(63.8667 0.000220294 0)
(63.8664 0.000264346 0)
(63.8661 0.000219446 0)
(63.8662 0.000114377 0)
(63.8663 4.13224e-05 0)
(63.8662 6.49e-05 0)
(63.8663 0.000158298 0)
(63.8663 0.000214867 0)
(63.8663 0.000217549 0)
(63.8664 0.000225904 0)
(63.8665 0.00023059 0)
(63.8664 0.000193824 0)
(63.8663 0.000121844 0)
(63.8663 7.44346e-05 0)
(63.8664 9.61149e-05 0)
(63.8665 0.000185955 0)
(63.8667 0.00029882 0)
(63.8668 0.000330495 0)
(63.8667 0.000255651 0)
(63.8668 0.000152668 0)
(63.8667 7.56246e-05 0)
(63.8667 5.93983e-05 0)
(63.8668 0.000121683 0)
(63.8668 0.000204399 0)
(63.8668 0.000236669 0)
(63.8668 0.000216176 0)
(63.8668 0.000176467 0)
(63.8666 0.000165618 0)
(63.8666 0.000195098 0)
(63.8666 0.000218454 0)
(63.8667 0.000229608 0)
(63.8668 0.000262913 0)
(63.8669 0.000312839 0)
(63.867 0.000311551 0)
(63.8671 0.00024766 0)
(63.8671 0.000214211 0)
(63.8672 0.000234283 0)
(63.8673 0.000254077 0)
(63.8672 0.00023245 0)
(63.8672 0.000173271 0)
(63.8673 0.000117922 0)
(63.8672 8.07655e-05 0)
(63.8673 7.21362e-05 0)
(63.8675 9.31088e-05 0)
(63.8675 0.000141145 0)
(63.8675 0.000209183 0)
(63.8675 0.000244882 0)
(63.8676 0.000238838 0)
(63.8676 0.000211762 0)
(63.8676 0.000186592 0)
(63.8677 0.000187447 0)
(63.8676 0.000185021 0)
(63.8676 0.000174044 0)
(63.8677 0.0001608 0)
(63.8677 0.000139102 0)
(63.8678 0.00013247 0)
(63.8679 0.00014539 0)
(63.8679 0.000177294 0)
(63.868 0.000208493 0)
(63.868 0.000219917 0)
(63.8681 0.000233217 0)
(63.8681 0.000241133 0)
(63.8682 0.000233284 0)
(63.8683 0.000225397 0)
(63.8684 0.000223886 0)
(63.8685 0.000226898 0)
(63.8685 0.000230044 0)
(63.8686 0.000229408 0)
(63.8685 0.000216817 0)
(63.8684 0.000206651 0)
(63.8685 0.000221246 0)
(63.8685 0.000255424 0)
(63.8685 0.00030142 0)
(63.8686 0.000333135 0)
(63.8686 0.000321218 0)
(63.8685 0.000280512 0)
(63.8685 0.000247326 0)
(63.8685 0.000239318 0)
(63.8686 0.00023952 0)
(63.8687 0.000241954 0)
(63.8687 0.000255031 0)
(63.8687 0.000252637 0)
(63.8687 0.000224864 0)
(63.8688 0.000200699 0)
(63.8688 0.000189866 0)
(63.8688 0.000194652 0)
(63.8689 0.000217178 0)
(63.869 0.000234349 0)
(63.8691 0.000226185 0)
(63.8691 0.000194783 0)
(63.8692 0.000166913 0)
(63.8692 0.000168609 0)
(63.8693 0.000189649 0)
(63.8693 0.000208402 0)
(63.8693 0.000202495 0)
(63.8692 0.000165375 0)
(63.8693 0.000127597 0)
(63.8693 0.000115813 0)
(63.8693 0.000136395 0)
(63.8694 0.000177412 0)
(63.8694 0.000211778 0)
(63.8695 0.000233345 0)
(63.8696 0.000253272 0)
(63.8696 0.000267015 0)
(63.8697 0.000259541 0)
(63.8697 0.000234557 0)
(63.8698 0.000212546 0)
(63.8697 0.000209245 0)
(63.8698 0.000224331 0)
(63.8698 0.000239137 0)
(63.8698 0.000244367 0)
(63.8698 0.000252967 0)
(63.8697 0.00025976 0)
(63.8696 0.000244821 0)
(63.8695 0.000222623 0)
(63.8696 0.000221524 0)
(63.8696 0.000241901 0)
(63.8697 0.000272809 0)
(63.8697 0.000297681 0)
(63.8697 0.000297221 0)
(63.8697 0.000278865 0)
(63.8697 0.000267812 0)
(63.8697 0.000274799 0)
(63.8697 0.000285905 0)
(63.8697 0.00028658 0)
(63.8697 0.000280056 0)
(63.8696 0.000272225 0)
(63.8696 0.000279327 0)
(63.8697 0.000306054 0)
(63.8697 0.000323846 0)
(63.8697 0.000320218 0)
(63.8697 0.000301193 0)
(63.8698 0.000273918 0)
(63.8699 0.000254496 0)
(63.8699 0.000248028 0)
(63.8699 0.000246537 0)
(63.8699 0.000241979 0)
(63.87 0.000239145 0)
(63.87 0.000245183 0)
(63.87 0.000242565 0)
(63.87 0.000225144 0)
(63.8701 0.000213304 0)
(63.8702 0.000217135 0)
(63.8703 0.000233627 0)
(63.8704 0.000245816 0)
(63.8704 0.000234407 0)
(63.8705 0.000218817 0)
(63.8707 0.000232879 0)
(63.8707 0.000267823 0)
(63.8707 0.000295548 0)
(63.8708 0.00030517 0)
(63.8708 0.000291303 0)
(63.8708 0.000260095 0)
(63.8708 0.000233991 0)
(63.8708 0.000225127 0)
(63.8709 0.000225893 0)
(63.8709 0.000229512 0)
(63.871 0.000231864 0)
(63.871 0.000218956 0)
(63.871 0.000192827 0)
(63.8711 0.00017705 0)
(63.8711 0.000180993 0)
(63.8711 0.000200739 0)
(63.8711 0.000220746 0)
(63.8711 0.000222033 0)
(63.8712 0.000219207 0)
(63.8712 0.000229482 0)
(63.8712 0.00023431 0)
(63.8711 0.000218492 0)
(63.8711 0.000196812 0)
(63.8711 0.000190647 0)
(63.8711 0.000206425 0)
(63.8711 0.000238337 0)
(63.8712 0.000273019 0)
(63.8712 0.000294042 0)
(63.8712 0.000298956 0)
(63.8712 0.000289757 0)
(63.8712 0.000263278 0)
(63.8713 0.000241031 0)
(63.8713 0.000247032 0)
(63.8713 0.000270532 0)
(63.8713 0.000295009 0)
(63.8714 0.000305399 0)
(63.8714 0.000286677 0)
(63.8715 0.000253843 0)
(63.8715 0.00023722 0)
(63.8715 0.000243272 0)
(63.8716 0.000258121 0)
(63.8716 0.00027394 0)
(63.8717 0.000287179 0)
(63.8718 0.000294993 0)
(63.8719 0.000305377 0)
(63.872 0.000311284 0)
(63.872 0.000291863 0)
(63.8719 0.000254149 0)
(63.8719 0.000216061 0)
(63.8719 0.000183856 0)
(63.8719 0.000173955 0)
(63.8719 0.000203287 0)
(63.872 0.000247404 0)
(63.872 0.000264027 0)
(63.872 0.000257344 0)
(63.8721 0.000252012 0)
(63.8721 0.000247667 0)
(63.8721 0.000248655 0)
(63.8722 0.000268002 0)
(63.8722 0.000295444 0)
(63.8723 0.000311645 0)
(63.8723 0.000314313 0)
(63.8723 0.000298586 0)
(63.8722 0.000248551 0)
(63.8721 0.000177237 0)
(63.8721 0.000122341 0)
(63.8721 0.000109969 0)
(63.8722 0.000143519 0)
(63.8723 0.000195766 0)
(63.8724 0.000227399 0)
(63.8724 0.000227932 0)
(63.8726 0.000218601 0)
(63.8727 0.000210463 0)
(63.8727 0.000190726 0)
(63.8728 0.000178474 0)
(63.8729 0.000180901 0)
(63.8729 0.000209848 0)
(50.5339 2.54599e-05 0)
(85.4305 8.15871e-05 0)
(73.2598 0.000152531 0)
(60.6185 0.000250843 0)
(59.8761 0.000327826 0)
(63.3354 0.000348356 0)
(64.8448 0.00032588 0)
(64.3938 0.000308329 0)
(63.7777 0.00030538 0)
(63.6759 0.000311503 0)
(63.8191 0.000330239 0)
(63.904 0.000328395 0)
(63.8942 0.000317953 0)
(63.8653 0.000354398 0)
(63.8572 0.000394927 0)
(63.8628 0.000401619 0)
(63.867 0.000377604 0)
(63.8671 0.000349031 0)
(63.8659 0.000344619 0)
(63.8652 0.000350945 0)
(63.8656 0.000358754 0)
(63.8659 0.000367314 0)
(63.866 0.000384721 0)
(63.8659 0.000399471 0)
(63.8658 0.000364979 0)
(63.8658 0.000324218 0)
(63.8661 0.000389869 0)
(63.8664 0.000515181 0)
(63.8665 0.000539271 0)
(63.8665 0.000462671 0)
(63.8664 0.000402722 0)
(63.8663 0.000386551 0)
(63.8663 0.000376364 0)
(63.8664 0.000339715 0)
(63.8665 0.00031631 0)
(63.8664 0.000333092 0)
(63.8664 0.000349027 0)
(63.8666 0.00038023 0)
(63.8667 0.000424667 0)
(63.8667 0.000423701 0)
(63.8666 0.000386335 0)
(63.8665 0.000351696 0)
(63.8666 0.000359165 0)
(63.8667 0.000397085 0)
(63.8667 0.000398356 0)
(63.8667 0.000370027 0)
(63.8666 0.000356265 0)
(63.8665 0.000350825 0)
(63.8664 0.000356002 0)
(63.8665 0.000384728 0)
(63.8666 0.000406026 0)
(63.8667 0.000412794 0)
(63.8668 0.000422049 0)
(63.8669 0.000414239 0)
(63.8671 0.00039166 0)
(63.8671 0.000370126 0)
(63.8671 0.000338997 0)
(63.8671 0.000294733 0)
(63.8672 0.000265474 0)
(63.8672 0.00025773 0)
(63.8672 0.000251583 0)
(63.8672 0.000255381 0)
(63.8673 0.000270658 0)
(63.8674 0.000313414 0)
(63.8675 0.000384061 0)
(63.8676 0.000423959 0)
(63.8676 0.000423915 0)
(63.8676 0.000395088 0)
(63.8675 0.000351027 0)
(63.8675 0.000334638 0)
(63.8674 0.000357053 0)
(63.8674 0.000391033 0)
(63.8674 0.000386991 0)
(63.8674 0.000361864 0)
(63.8675 0.000355866 0)
(63.8675 0.000356753 0)
(63.8676 0.000384025 0)
(63.8677 0.000429184 0)
(63.8676 0.000449615 0)
(63.8675 0.000432074 0)
(63.8675 0.000370519 0)
(63.8675 0.000296401 0)
(63.8675 0.000252035 0)
(63.8676 0.000263995 0)
(63.8676 0.000314254 0)
(63.8676 0.000348271 0)
(63.8676 0.000358683 0)
(63.8677 0.000345619 0)
(63.8677 0.000307741 0)
(63.8677 0.000270546 0)
(63.8677 0.000250725 0)
(63.8678 0.000258923 0)
(63.8678 0.000296818 0)
(63.8679 0.000356443 0)
(63.868 0.000406889 0)
(63.868 0.000407412 0)
(63.8681 0.000366046 0)
(63.8681 0.000320359 0)
(63.8681 0.000299192 0)
(63.8682 0.000306673 0)
(63.8682 0.000322539 0)
(63.8683 0.000329535 0)
(63.8684 0.000326519 0)
(63.8684 0.000327288 0)
(63.8684 0.000328869 0)
(63.8684 0.000322716 0)
(63.8685 0.000329472 0)
(63.8686 0.000346704 0)
(63.8685 0.000348054 0)
(63.8685 0.000346053 0)
(63.8685 0.000358673 0)
(63.8684 0.000369066 0)
(63.8684 0.000363491 0)
(63.8685 0.000353629 0)
(63.8685 0.000353083 0)
(63.8686 0.000352144 0)
(63.8686 0.000338846 0)
(63.8686 0.000326471 0)
(63.8686 0.000324334 0)
(63.8687 0.000334071 0)
(63.8688 0.000352753 0)
(63.8688 0.0003679 0)
(63.8688 0.000374595 0)
(63.8688 0.00036621 0)
(63.8688 0.000352308 0)
(63.8689 0.000356032 0)
(63.8689 0.000366793 0)
(63.8689 0.00036448 0)
(63.8689 0.000349783 0)
(63.8689 0.000327075 0)
(63.8689 0.000300581 0)
(63.8689 0.000281514 0)
(63.8689 0.000276474 0)
(63.8689 0.000283639 0)
(63.869 0.000312351 0)
(63.8691 0.000358334 0)
(63.8691 0.000395784 0)
(63.8692 0.000424568 0)
(63.8693 0.000453836 0)
(63.8693 0.000462769 0)
(63.8693 0.000437719 0)
(63.8692 0.000388568 0)
(63.8692 0.000324675 0)
(63.8694 0.000272657 0)
(63.8695 0.000260525 0)
(63.8696 0.000273066 0)
(63.8696 0.000283401 0)
(63.8697 0.000287305 0)
(63.8697 0.000293893 0)
(63.8698 0.000315087 0)
(63.8699 0.000349012 0)
(63.87 0.00037822 0)
(63.87 0.000375866 0)
(63.87 0.0003387 0)
(63.87 0.000304955 0)
(63.8701 0.000292831 0)
(63.8702 0.00029183 0)
(63.8703 0.000294605 0)
(63.8703 0.000288578 0)
(63.8702 0.000270495 0)
(63.8702 0.000249226 0)
(63.8703 0.000235149 0)
(63.8703 0.00023703 0)
(63.8704 0.000259842 0)
(63.8704 0.000300572 0)
(63.8704 0.000329789 0)
(63.8705 0.000322789 0)
(63.8705 0.000293065 0)
(63.8705 0.000260615 0)
(63.8705 0.000240787 0)
(63.8706 0.000241582 0)
(63.8706 0.000244116 0)
(63.8706 0.000236451 0)
(63.8706 0.000240014 0)
(63.8706 0.000262864 0)
(63.8707 0.000291579 0)
(63.8707 0.000329104 0)
(63.8707 0.000368625 0)
(63.8707 0.000385388 0)
(63.8707 0.000379304 0)
(63.8707 0.000366533 0)
(63.8707 0.000353391 0)
(63.8707 0.000342265 0)
(63.8707 0.000334834 0)
(63.8708 0.000326499 0)
(63.8708 0.000316801 0)
(63.8708 0.00031264 0)
(63.8708 0.000313903 0)
(63.8709 0.000323552 0)
(63.8709 0.00034151 0)
(63.871 0.000347682 0)
(63.871 0.000340473 0)
(63.871 0.000341814 0)
(63.8711 0.000356597 0)
(63.8712 0.000376535 0)
(63.8712 0.000391512 0)
(63.8712 0.000391082 0)
(63.8713 0.000374231 0)
(63.8713 0.000351675 0)
(63.8713 0.000335196 0)
(63.8714 0.000323357 0)
(63.8714 0.000311593 0)
(63.8715 0.000302858 0)
(63.8716 0.000291715 0)
(63.8716 0.00027604 0)
(63.8716 0.000268875 0)
(63.8717 0.000272968 0)
(63.8717 0.000285678 0)
(63.8718 0.000305424 0)
(63.8719 0.000314946 0)
(63.8719 0.000302282 0)
(63.8719 0.00028415 0)
(63.872 0.000280756 0)
(63.872 0.000285063 0)
(63.872 0.00028273 0)
(63.872 0.000274466 0)
(63.872 0.000258307 0)
(63.872 0.000243629 0)
(63.8721 0.000256991 0)
(63.8722 0.000295345 0)
(63.8722 0.000330894 0)
(63.8723 0.000351285 0)
(63.8723 0.000355338 0)
(63.8722 0.000345302 0)
(63.8722 0.000341685 0)
(63.8722 0.000358473 0)
(63.8722 0.000372712 0)
(63.8722 0.000372311 0)
(63.8722 0.000370163 0)
(63.8722 0.000359581 0)
(63.8722 0.000341296 0)
(63.8722 0.000337095 0)
(63.8721 0.000340857 0)
(63.8722 0.000335537 0)
(63.8722 0.000336189 0)
(63.8723 0.000356236 0)
(63.8725 0.000377346 0)
(63.8725 0.000384614 0)
(63.8725 0.000368203 0)
(63.8724 0.000319054 0)
(63.8724 0.000270941 0)
(63.8725 0.000260738 0)
(63.8725 0.000268647 0)
(63.8726 0.000257007 0)
(63.8726 0.000231589 0)
(63.8727 0.000232407 0)
(63.8727 0.000255009 0)
(63.8727 0.00026703 0)
(63.8727 0.000285959 0)
(63.8727 0.000329337 0)
(50.5338 1.96476e-05 0)
(85.4305 7.28559e-05 0)
(73.2596 0.000127122 0)
(60.6182 0.000154801 0)
(59.8759 0.000153074 0)
(63.3352 0.000142184 0)
(64.8448 0.000151169 0)
(64.394 0.000165518 0)
(63.7778 0.000184722 0)
(63.6758 0.000178034 0)
(63.819 0.000137947 0)
(63.9041 0.000146103 0)
(63.8941 0.000189135 0)
(63.8652 0.000176919 0)
(63.8572 0.000119842 0)
(63.8627 0.000152903 0)
(63.8672 0.000237846 0)
(63.8673 0.000252352 0)
(63.866 0.000212205 0)
(63.8656 0.000158977 0)
(63.8657 0.000144511 0)
(63.8658 0.000166717 0)
(63.8661 0.000185168 0)
(63.866 0.000181819 0)
(63.8661 0.000116188 0)
(63.8661 1.50752e-05 0)
(63.866 -3.25591e-05 0)
(63.866 -8.44907e-06 0)
(63.866 4.73896e-05 0)
(63.8662 0.000124091 0)
(63.8663 0.000190028 0)
(63.8662 0.000176098 0)
(63.8664 0.000122291 0)
(63.8664 0.00012489 0)
(63.8662 0.000182697 0)
(63.8663 0.000213206 0)
(63.8664 0.000171581 0)
(63.8663 0.00012254 0)
(63.8664 0.000143005 0)
(63.8665 0.000205923 0)
(63.8664 0.000242036 0)
(63.8664 0.000215036 0)
(63.8665 0.000159 0)
(63.8665 0.000132769 0)
(63.8667 0.000142085 0)
(63.8668 0.000185511 0)
(63.8668 0.000240645 0)
(63.8669 0.000246584 0)
(63.867 0.00019159 0)
(63.867 0.000141092 0)
(63.867 0.000125099 0)
(63.867 0.000108718 0)
(63.867 7.51061e-05 0)
(63.867 4.04913e-05 0)
(63.867 4.43338e-05 0)
(63.867 0.00010164 0)
(63.8671 0.000160386 0)
(63.867 0.000172139 0)
(63.8669 0.000170742 0)
(63.867 0.000201337 0)
(63.867 0.000225196 0)
(63.867 0.000207272 0)
(63.867 0.00017069 0)
(63.867 0.000150718 0)
(63.8669 0.000153506 0)
(63.867 0.000148015 0)
(63.8671 0.000138953 0)
(63.8672 0.000129557 0)
(63.8673 0.00012186 0)
(63.8673 0.000152343 0)
(63.8673 0.000198044 0)
(63.8674 0.00022482 0)
(63.8675 0.000221395 0)
(63.8676 0.000196772 0)
(63.8676 0.000188346 0)
(63.8676 0.00017827 0)
(63.8676 0.000167071 0)
(63.8677 0.000181201 0)
(63.8678 0.000196833 0)
(63.8679 0.000192849 0)
(63.868 0.000161972 0)
(63.868 0.000122121 0)
(63.8679 9.93966e-05 0)
(63.8679 0.000105462 0)
(63.868 0.000146 0)
(63.868 0.000189547 0)
(63.868 0.000213597 0)
(63.8681 0.000213468 0)
(63.8681 0.000186458 0)
(63.8681 0.000163509 0)
(63.8682 0.000161884 0)
(63.8682 0.000161002 0)
(63.8681 0.000148182 0)
(63.8681 0.000135662 0)
(63.8682 0.000128904 0)
(63.8682 0.000126853 0)
(63.8683 0.000143736 0)
(63.8682 0.000169424 0)
(63.8682 0.000186142 0)
(63.8682 0.000199012 0)
(63.8682 0.00020241 0)
(63.8682 0.000189687 0)
(63.8683 0.000172945 0)
(63.8683 0.000174634 0)
(63.8683 0.000193617 0)
(63.8683 0.00020149 0)
(63.8683 0.000206254 0)
(63.8684 0.000228677 0)
(63.8684 0.000250555 0)
(63.8685 0.000263864 0)
(63.8685 0.000272741 0)
(63.8685 0.000255087 0)
(63.8686 0.000204802 0)
(63.8687 0.000148042 0)
(63.8687 0.0001122 0)
(63.8687 0.0001098 0)
(63.8688 0.000125159 0)
(63.8688 0.000137601 0)
(63.8689 0.000134893 0)
(63.8689 0.000115296 0)
(63.8689 9.88377e-05 0)
(63.8689 0.000103119 0)
(63.869 0.000126619 0)
(63.8691 0.000146299 0)
(63.869 0.000148899 0)
(63.869 0.000155539 0)
(63.8691 0.000175394 0)
(63.8692 0.000197296 0)
(63.8693 0.00021472 0)
(63.8693 0.00022749 0)
(63.8693 0.000239436 0)
(63.8693 0.000244012 0)
(63.8693 0.000225017 0)
(63.8693 0.000178962 0)
(63.8693 0.000133698 0)
(63.8693 0.000118371 0)
(63.8694 0.000119567 0)
(63.8694 0.0001219 0)
(63.8695 0.000141284 0)
(63.8696 0.000179641 0)
(63.8697 0.0002093 0)
(63.8698 0.000209351 0)
(63.8698 0.000177542 0)
(63.8698 0.000129615 0)
(63.8698 0.000102432 0)
(63.8699 0.00011683 0)
(63.8699 0.000152058 0)
(63.8699 0.000179039 0)
(63.8699 0.000185466 0)
(63.8699 0.000176905 0)
(63.8699 0.000170272 0)
(63.8699 0.000183399 0)
(63.87 0.000209942 0)
(63.87 0.000221841 0)
(63.8699 0.000219281 0)
(63.8699 0.000212461 0)
(63.8699 0.000201983 0)
(63.8699 0.000207095 0)
(63.87 0.000232369 0)
(63.87 0.000253786 0)
(63.87 0.000252933 0)
(63.87 0.000229099 0)
(63.87 0.000192558 0)
(63.87 0.000158524 0)
(63.8701 0.000149732 0)
(63.8701 0.000171182 0)
(63.8701 0.000199947 0)
(63.8702 0.000214717 0)
(63.8702 0.000203664 0)
(63.8702 0.000178084 0)
(63.8702 0.000169624 0)
(63.8703 0.000187652 0)
(63.8703 0.00021267 0)
(63.8703 0.000229794 0)
(63.8703 0.000238304 0)
(63.8703 0.000237414 0)
(63.8703 0.000234953 0)
(63.8704 0.000243316 0)
(63.8705 0.000253757 0)
(63.8705 0.000252952 0)
(63.8705 0.000242464 0)
(63.8706 0.000225522 0)
(63.8706 0.000204075 0)
(63.8707 0.000185124 0)
(63.8707 0.000171989 0)
(63.8707 0.000159491 0)
(63.8708 0.000145841 0)
(63.8709 0.000132741 0)
(63.8709 0.000125878 0)
(63.8709 0.000135456 0)
(63.871 0.000153094 0)
(63.871 0.000155691 0)
(63.871 0.000141793 0)
(63.8711 0.00012971 0)
(63.8711 0.00013039 0)
(63.8712 0.000139229 0)
(63.8712 0.000148992 0)
(63.8713 0.000153564 0)
(63.8713 0.000148311 0)
(63.8713 0.000141963 0)
(63.8714 0.000142195 0)
(63.8714 0.000147167 0)
(63.8714 0.000165445 0)
(63.8714 0.000195346 0)
(63.8715 0.000211531 0)
(63.8714 0.000207075 0)
(63.8714 0.000191569 0)
(63.8714 0.000169736 0)
(63.8715 0.000161665 0)
(63.8715 0.000181101 0)
(63.8715 0.000203676 0)
(63.8715 0.000210313 0)
(63.8715 0.0002122 0)
(63.8716 0.000214109 0)
(63.8716 0.000219726 0)
(63.8716 0.000240609 0)
(63.8717 0.000251872 0)
(63.8716 0.000228193 0)
(63.8716 0.000200249 0)
(63.8716 0.000193148 0)
(63.8717 0.000197853 0)
(63.8717 0.000214857 0)
(63.8718 0.000243247 0)
(63.8719 0.000259606 0)
(63.8719 0.000252753 0)
(63.872 0.000240749 0)