/*--------------------------------*- C++ -*----------------------------------*\
| =========                 |                                                 |
| \\      /  F ield         | OpenFOAM: The Open Source CFD Toolbox           |
|  \\    /   O peration     | Version:  2406                                  |
|   \\  /    A nd           | Website:  www.openfoam.com                      |
|    \\/     M anipulation  |                                                 |
\*---------------------------------------------------------------------------*/
FoamFile
{
    version     2.0;
    format      ascii;
    arch        "LSB;label=32;scalar=64";
    class       surfaceScalarField;
    location    "0.3";
    object      phi;
}
// * * * * * * * * * * * * * * * * * * * * * * * * * * * * * * * * * * * * * //

dimensions      [0 3 -1 0 0 0 0];

oriented        oriented;

internalField   nonuniform List<scalar> 
7780
(
9.12685e-07
4.30466e-12
9.12681e-07
2.96612e-12
9.1268e-07
2.02615e-12
9.12678e-07
1.32267e-12
9.12677e-07
1.51839e-12
9.12676e-07
1.08135e-12
9.12676e-07
1.07827e-12
9.12675e-07
5.96988e-13
9.12675e-07
7.81284e-13
9.12675e-07
6.06827e-13
9.12674e-07
5.00926e-13
9.12674e-07
4.44545e-13
9.12673e-07
3.52697e-13
9.12673e-07
2.06746e-13
9.12672e-07
8.10761e-14
9.12673e-07
1.39309e-13
9.12673e-07
2.76567e-13
9.12673e-07
-8.17777e-15
9.12673e-07
-3.43163e-13
9.12673e-07
-3.05504e-13
9.12674e-07
-2.04223e-13
9.12674e-07
-1.71989e-13
9.12674e-07
-1.56009e-13
9.12674e-07
-1.06932e-13
9.12675e-07
-1.28669e-13
9.12675e-07
-2.91326e-13
9.12675e-07
-4.43436e-13
9.12676e-07
-5.16622e-13
9.12676e-07
-4.78001e-13
9.12677e-07
-3.07894e-13
9.12677e-07
-1.82996e-13
9.12677e-07
-1.46649e-13
9.12677e-07
-7.47084e-14
9.12677e-07
3.51694e-14
9.12677e-07
7.01702e-14
9.12678e-07
-1.05529e-14
9.12678e-07
-1.20656e-13
9.12678e-07
-2.19864e-13
9.12678e-07
-2.92587e-13
9.12678e-07
-2.55355e-13
9.12678e-07
-4.83767e-14
9.12678e-07
2.01374e-13
9.12678e-07
2.61038e-13
9.12678e-07
4.1172e-14
9.12678e-07
-2.91676e-13
9.12678e-07
-4.0664e-13
9.12678e-07
-1.86981e-13
9.12678e-07
1.2632e-13
9.12679e-07
2.34103e-13
9.12679e-07
1.54028e-13
9.12679e-07
9.60817e-14
9.12678e-07
1.29186e-13
9.12678e-07
1.72038e-13
9.12678e-07
1.84001e-13
9.12678e-07
2.24304e-13
9.12677e-07
2.99296e-13
9.12677e-07
3.37695e-13
9.12676e-07
3.41855e-13
9.12676e-07
3.25973e-13
9.12676e-07
2.7253e-13
9.12675e-07
2.51693e-13
9.12675e-07
3.52452e-13
9.12674e-07
4.68375e-13
9.12674e-07
4.25804e-13
9.12674e-07
2.3321e-13
9.12673e-07
1.14928e-13
9.12673e-07
2.16248e-13
9.12672e-07
4.05438e-13
9.12672e-07
4.66489e-13
9.12672e-07
3.7755e-13
9.12671e-07
2.71824e-13
9.12671e-07
1.99877e-13
9.12671e-07
1.08484e-13
9.12671e-07
-6.15947e-16
9.12671e-07
-4.02106e-14
9.12671e-07
-2.10863e-14
9.12671e-07
-5.38739e-14
9.12672e-07
-1.77895e-13
9.12672e-07
-3.22571e-13
9.12672e-07
-4.17215e-13
9.12673e-07
-4.76855e-13
9.12674e-07
-5.04474e-13
9.12674e-07
-4.59404e-13
9.12675e-07
-3.92906e-13
9.12676e-07
-4.39831e-13
9.12676e-07
-6.05874e-13
9.12677e-07
-7.35861e-13
9.12677e-07
-7.14468e-13
9.12678e-07
-5.87223e-13
9.12678e-07
-4.33193e-13
9.12679e-07
-2.6187e-13
9.12679e-07
-9.00661e-14
9.12679e-07
1.33462e-14
9.1268e-07
3.94461e-15
9.1268e-07
-3.98578e-14
9.1268e-07
-1.11681e-14
9.1268e-07
1.05642e-13
9.12679e-07
2.13998e-13
9.12679e-07
2.41116e-13
9.12679e-07
1.96074e-13
9.12679e-07
1.11236e-13
9.12678e-07
4.47853e-14
9.12678e-07
2.93169e-14
9.12678e-07
5.15982e-14
9.12678e-07
7.23214e-14
9.12677e-07
9.58317e-14
9.12677e-07
1.68435e-13
9.12677e-07
2.6983e-13
9.12677e-07
3.08551e-13
9.12677e-07
2.62506e-13
9.12676e-07
2.59137e-13
9.12676e-07
3.79537e-13
9.12675e-07
5.68235e-13
9.12675e-07
6.60236e-13
9.12674e-07
5.84609e-13
9.12674e-07
4.34841e-13
9.12673e-07
3.50503e-13
9.12672e-07
3.8471e-13
9.12672e-07
4.68821e-13
9.12672e-07
4.83775e-13
9.12672e-07
3.62886e-13
9.12671e-07
1.44741e-13
9.12671e-07
-3.58447e-14
9.12671e-07
-1.00036e-13
9.12671e-07
-8.85617e-14
9.12672e-07
-8.45232e-14
9.12672e-07
-1.25423e-13
9.12672e-07
-1.99699e-13
9.12672e-07
-3.04184e-13
9.12673e-07
-4.64644e-13
9.12673e-07
-6.79568e-13
9.12674e-07
-8.60588e-13
9.12674e-07
-8.81261e-13
9.12674e-07
-6.96937e-13
9.12675e-07
-3.84859e-13
9.12675e-07
-1.10467e-13
9.12676e-07
1.63713e-15
9.12676e-07
-8.59019e-15
9.12676e-07
-4.18355e-15
9.12676e-07
5.81365e-14
9.12676e-07
1.32555e-13
9.12676e-07
1.51464e-13
9.12676e-07
1.28313e-13
9.12676e-07
1.21047e-13
9.12676e-07
1.333e-13
9.12675e-07
1.16254e-13
9.12675e-07
9.28278e-14
9.12674e-07
1.73067e-13
9.12674e-07
3.95127e-13
9.12673e-07
6.22504e-13
9.12673e-07
7.27622e-13
9.12672e-07
7.53139e-13
9.12671e-07
7.87397e-13
9.1267e-07
8.07787e-13
9.1267e-07
7.4437e-13
9.12669e-07
6.23411e-13
9.12669e-07
5.12615e-13
9.12669e-07
4.07621e-13
9.12668e-07
2.74828e-13
9.12668e-07
1.33894e-13
9.12668e-07
2.45753e-14
9.12667e-07
-4.2261e-14
9.12667e-07
-4.33932e-14
9.12667e-07
4.21527e-14
9.12667e-07
1.6922e-13
9.12667e-07
2.4726e-13
9.12667e-07
2.04981e-13
9.12667e-07
6.14296e-14
9.12667e-07
-5.76947e-14
9.12667e-07
-7.76908e-14
9.12667e-07
-6.81183e-14
9.12667e-07
-1.28486e-13
9.12667e-07
-2.71799e-13
9.12667e-07
-3.73235e-13
9.12667e-07
-3.31501e-13
9.12667e-07
-2.603e-13
9.12667e-07
-2.95772e-13
9.12668e-07
-3.6031e-13
9.12668e-07
-3.43158e-13
9.12668e-07
-2.84951e-13
9.12668e-07
-2.21319e-13
9.12668e-07
-1.26231e-13
9.12669e-07
-8.68368e-14
9.12669e-07
-1.70687e-13
9.12669e-07
-2.25229e-13
9.12669e-07
-1.32872e-13
9.12669e-07
-8.20912e-15
9.12669e-07
8.188e-15
9.12669e-07
3.43242e-14
9.12669e-07
1.65154e-13
9.12668e-07
3.11499e-13
9.12667e-07
5.50925e-13
9.12666e-07
8.65762e-13
9.12665e-07
1.05248e-12
9.12664e-07
1.18105e-12
9.12663e-07
1.38203e-12
9.12661e-07
1.64362e-12
9.12659e-07
1.95131e-12
9.12657e-07
2.47166e-12
3.3361e-12
2.54777e-06
1.17023e-11
2.54776e-06
8.90142e-12
2.54776e-06
7.32886e-12
2.54775e-06
5.89528e-12
2.54775e-06
4.98156e-12
2.54774e-06
4.33221e-12
2.54774e-06
3.75048e-12
2.54774e-06
2.9865e-12
2.54774e-06
2.43526e-12
2.54773e-06
2.0978e-12
2.54773e-06
1.6668e-12
2.54773e-06
1.61017e-12
2.54773e-06
1.34707e-12
2.54773e-06
1.12249e-12
2.54773e-06
1.05571e-12
2.54773e-06
9.65009e-13
2.54773e-06
5.42989e-13
2.54773e-06
3.49295e-13
2.54773e-06
-1.09882e-13
2.54773e-06
-4.4963e-13
2.54773e-06
-6.04701e-13
2.54773e-06
-7.45564e-13
2.54773e-06
-8.34533e-13
2.54773e-06
-7.43758e-13
2.54773e-06
-6.06691e-13
2.54773e-06
-6.0966e-13
2.54773e-06
-7.26544e-13
2.54773e-06
-9.21117e-13
2.54773e-06
-1.11898e-12
2.54773e-06
-1.13656e-12
2.54773e-06
-9.71414e-13
2.54773e-06
-8.5259e-13
2.54774e-06
-8.62339e-13
2.54774e-06
-8.18125e-13
2.54774e-06
-6.61845e-13
2.54774e-06
-5.72541e-13
2.54774e-06
-6.65842e-13
2.54774e-06
-8.6505e-13
2.54774e-06
-1.02095e-12
2.54774e-06
-1.05708e-12
2.54774e-06
-9.79239e-13
2.54774e-06
-7.82734e-13
2.54774e-06
-5.10004e-13
2.54774e-06
-3.16781e-13
2.54774e-06
-3.43194e-13
2.54774e-06
-4.88567e-13
2.54774e-06
-4.7301e-13
2.54774e-06
-2.39327e-13
2.54774e-06
-3.34421e-14
2.54774e-06
7.14263e-15
2.54774e-06
6.26094e-15
2.54774e-06
1.10132e-13
2.54774e-06
3.02806e-13
2.54774e-06
4.70878e-13
2.54774e-06
6.00558e-13
2.54774e-06
7.48617e-13
2.54774e-06
8.71987e-13
2.54774e-06
9.72218e-13
2.54774e-06
1.06821e-12
2.54774e-06
1.13616e-12
2.54774e-06
1.12607e-12
2.54774e-06
1.11607e-12
2.54774e-06
1.23205e-12
2.54773e-06
1.43827e-12
2.54773e-06
1.52439e-12
2.54773e-06
1.38419e-12
2.54773e-06
1.17843e-12
2.54773e-06
1.10505e-12
2.54773e-06
1.14434e-12
2.54773e-06
1.15743e-12
2.54773e-06
1.10854e-12
2.54773e-06
1.03183e-12
2.54773e-06
8.61993e-13
2.54773e-06
5.19652e-13
2.54773e-06
6.40291e-14
2.54773e-06
-3.51956e-13
2.54773e-06
-6.47566e-13
2.54773e-06
-9.17107e-13
2.54773e-06
-1.1973e-12
2.54773e-06
-1.44733e-12
2.54773e-06
-1.64718e-12
2.54773e-06
-1.83696e-12
2.54773e-06
-1.9902e-12
2.54774e-06
-1.99509e-12
2.54774e-06
-1.84472e-12
2.54774e-06
-1.68177e-12
2.54774e-06
-1.59016e-12
2.54774e-06
-1.52174e-12
2.54774e-06
-1.44406e-12
2.54774e-06
-1.38139e-12
2.54774e-06
-1.30389e-12
2.54775e-06
-1.10852e-12
2.54775e-06
-7.5194e-13
2.54775e-06
-3.57083e-13
2.54775e-06
-8.62394e-14
2.54775e-06
4.08451e-14
2.54775e-06
1.18557e-13
2.54775e-06
2.21224e-13
2.54775e-06
3.6897e-13
2.54775e-06
5.44164e-13
2.54774e-06
7.06092e-13
2.54774e-06
8.18769e-13
2.54774e-06
8.87572e-13
2.54774e-06
9.3916e-13
2.54774e-06
9.55598e-13
2.54774e-06
9.04203e-13
2.54774e-06
8.47808e-13
2.54774e-06
9.00208e-13
2.54774e-06
1.05562e-12
2.54774e-06
1.18578e-12
2.54774e-06
1.23194e-12
2.54774e-06
1.3101e-12
2.54773e-06
1.52253e-12
2.54773e-06
1.8111e-12
2.54773e-06
1.9616e-12
2.54773e-06
1.85427e-12
2.54773e-06
1.54065e-12
2.54773e-06
1.18185e-12
2.54773e-06
9.06715e-13
2.54773e-06
7.41432e-13
2.54773e-06
6.06972e-13
2.54773e-06
4.01174e-13
2.54773e-06
1.1573e-13
2.54773e-06
-1.90376e-13
2.54773e-06
-4.47055e-13
2.54773e-06
-6.62001e-13
2.54773e-06
-8.69024e-13
2.54773e-06
-1.06571e-12
2.54773e-06
-1.22182e-12
2.54773e-06
-1.35001e-12
2.54773e-06
-1.51148e-12
2.54774e-06
-1.70883e-12
2.54774e-06
-1.8382e-12
2.54774e-06
-1.77604e-12
2.54774e-06
-1.47688e-12
2.54774e-06
-1.03637e-12
2.54774e-06
-6.59497e-13
2.54774e-06
-4.84258e-13
2.54774e-06
-4.37411e-13
2.54774e-06
-3.34438e-13
2.54774e-06
-9.32024e-14
2.54774e-06
2.00948e-13
2.54774e-06
4.44592e-13
2.54774e-06
5.9703e-13
2.54774e-06
7.30439e-13
2.54774e-06
8.77877e-13
2.54774e-06
1.01474e-12
2.54774e-06
1.17852e-12
2.54774e-06
1.4538e-12
2.54774e-06
1.82407e-12
2.54773e-06
2.11967e-12
2.54773e-06
2.19119e-12
2.54773e-06
2.08843e-12
2.54773e-06
1.93229e-12
2.54773e-06
1.74678e-12
2.54773e-06
1.53119e-12
2.54773e-06
1.32821e-12
2.54773e-06
1.15142e-12
2.54773e-06
9.4994e-13
2.54772e-06
7.00148e-13
2.54772e-06
4.38929e-13
2.54772e-06
1.99649e-13
2.54772e-06
1.80123e-14
2.54772e-06
-5.76884e-14
2.54772e-06
-2.034e-14
2.54772e-06
5.19625e-14
2.54772e-06
2.76006e-14
2.54772e-06
-1.59548e-13
2.54772e-06
-4.3393e-13
2.54772e-06
-6.42378e-13
2.54773e-06
-7.47801e-13
2.54773e-06
-8.20952e-13
2.54773e-06
-9.62718e-13
2.54773e-06
-1.18453e-12
2.54773e-06
-1.31932e-12
2.54773e-06
-1.27321e-12
2.54773e-06
-1.1672e-12
2.54773e-06
-1.07742e-12
2.54773e-06
-9.57194e-13
2.54773e-06
-8.27465e-13
2.54773e-06
-7.30815e-13
2.54773e-06
-6.02877e-13
2.54773e-06
-4.51745e-13
2.54773e-06
-3.7275e-13
2.54773e-06
-3.1258e-13
2.54773e-06
-1.72263e-13
2.54773e-06
1.71166e-13
2.54773e-06
7.31351e-13
2.54773e-06
1.25402e-12
2.54773e-06
1.53796e-12
2.54773e-06
1.76575e-12
2.54773e-06
2.22883e-12
2.54772e-06
2.81644e-12
2.54772e-06
3.3351e-12
2.54772e-06
3.95785e-12
2.54771e-06
4.72223e-12
2.54771e-06
5.33246e-12
2.54771e-06
6.02704e-12
2.5477e-06
7.11662e-12
7.93687e-12
3.99471e-06
1.89517e-11
3.9947e-06
1.70571e-11
3.99469e-06
1.43319e-11
3.99469e-06
1.26028e-11
3.99468e-06
1.0912e-11
3.99467e-06
9.96573e-12
3.99467e-06
8.78444e-12
3.99466e-06
8.08309e-12
3.99466e-06
7.02876e-12
3.99466e-06
6.13471e-12
3.99465e-06
5.4479e-12
3.99465e-06
4.67847e-12
3.99465e-06
3.93496e-12
3.99465e-06
3.4551e-12
3.99464e-06
2.77967e-12
3.99464e-06
2.22741e-12
3.99464e-06
1.39245e-12
3.99464e-06
8.49977e-13
3.99464e-06
3.68797e-13
3.99464e-06
-3.30229e-13
3.99464e-06
-8.54657e-13
3.99464e-06
-1.17481e-12
3.99464e-06
-1.31e-12
3.99464e-06
-1.35561e-12
3.99464e-06
-1.44027e-12
3.99464e-06
-1.57939e-12
3.99465e-06
-1.76052e-12
3.99465e-06
-1.94587e-12
3.99465e-06
-2.07581e-12
3.99465e-06
-2.12452e-12
3.99465e-06
-2.10177e-12
3.99465e-06
-2.05955e-12
3.99465e-06
-2.04546e-12
3.99465e-06
-2.03112e-12
3.99465e-06
-2.00362e-12
3.99466e-06
-2.04233e-12
3.99466e-06
-2.14051e-12
3.99466e-06
-2.16305e-12
3.99466e-06
-2.03728e-12
3.99466e-06
-1.90193e-12
3.99466e-06
-1.95084e-12
3.99466e-06
-2.12497e-12
3.99466e-06
-2.18129e-12
3.99467e-06
-1.97617e-12
3.99467e-06
-1.58305e-12
3.99467e-06
-1.21909e-12
3.99467e-06
-1.00558e-12
3.99467e-06
-8.67113e-13
3.99467e-06
-7.30892e-13
3.99467e-06
-5.97775e-13
3.99467e-06
-4.304e-13
3.99467e-06
-1.46672e-13
3.99467e-06
2.75186e-13
3.99467e-06
7.48697e-13
3.99467e-06
1.14097e-12
3.99467e-06
1.47671e-12
3.99467e-06
1.8e-12
3.99467e-06
2.11023e-12
3.99467e-06
2.44764e-12
3.99466e-06
2.80409e-12
3.99466e-06
3.03766e-12
3.99466e-06
3.05922e-12
3.99466e-06
2.9839e-12
3.99466e-06
3.00309e-12
3.99466e-06
3.13551e-12
3.99465e-06
3.22278e-12
3.99465e-06
3.1649e-12
3.99465e-06
3.01562e-12
3.99465e-06
2.82659e-12
3.99465e-06
2.53875e-12
3.99465e-06
2.11172e-12
3.99465e-06
1.62771e-12
3.99464e-06
1.17209e-12
3.99464e-06
6.86192e-13
3.99464e-06
8.14875e-14
3.99465e-06
-6.09099e-13
3.99465e-06
-1.26627e-12
3.99465e-06
-1.83353e-12
3.99465e-06
-2.32575e-12
3.99465e-06
-2.72708e-12
3.99465e-06
-3.00093e-12
3.99465e-06
-3.1987e-12
3.99466e-06
-3.39915e-12
3.99466e-06
-3.54992e-12
3.99466e-06
-3.53765e-12
3.99466e-06
-3.38524e-12
3.99466e-06
-3.2105e-12
3.99467e-06
-3.0442e-12
3.99467e-06
-2.83519e-12
3.99467e-06
-2.5799e-12
3.99467e-06
-2.33338e-12
3.99467e-06
-2.08907e-12
3.99467e-06
-1.75001e-12
3.99467e-06
-1.27581e-12
3.99467e-06
-7.65288e-13
3.99467e-06
-3.38937e-13
3.99467e-06
-1.51996e-14
3.99467e-06
2.40903e-13
3.99467e-06
4.9492e-13
3.99467e-06
8.0081e-13
3.99467e-06
1.18203e-12
3.99467e-06
1.58229e-12
3.99467e-06
1.90649e-12
3.99467e-06
2.1176e-12
3.99467e-06
2.24257e-12
3.99467e-06
2.28543e-12
3.99466e-06
2.24351e-12
3.99466e-06
2.20219e-12
3.99466e-06
2.27888e-12
3.99466e-06
2.46839e-12
3.99466e-06
2.62994e-12
3.99466e-06
2.64963e-12
3.99466e-06
2.57114e-12
3.99465e-06
2.51948e-12
3.99465e-06
2.53016e-12
3.99465e-06
2.52898e-12
3.99465e-06
2.4168e-12
3.99465e-06
2.138e-12
3.99465e-06
1.69765e-12
3.99465e-06
1.17e-12
3.99465e-06
6.50912e-13
3.99465e-06
1.76534e-13
3.99465e-06
-2.74895e-13
3.99465e-06
-7.20213e-13
3.99465e-06
-1.14905e-12
3.99465e-06
-1.56936e-12
3.99465e-06
-2.0174e-12
3.99465e-06
-2.51751e-12
3.99466e-06
-2.99929e-12
3.99466e-06
-3.3338e-12
3.99466e-06
-3.45847e-12
3.99466e-06
-3.40936e-12
3.99466e-06
-3.25489e-12
3.99466e-06
-3.05549e-12
3.99467e-06
-2.83753e-12
3.99467e-06
-2.56891e-12
3.99467e-06
-2.22511e-12
3.99467e-06
-1.84301e-12
3.99467e-06
-1.44727e-12
3.99467e-06
-1.00236e-12
3.99467e-06
-4.61605e-13
3.99467e-06
1.52414e-13
3.99467e-06
7.31743e-13
3.99467e-06
1.18197e-12
3.99467e-06
1.55821e-12
3.99467e-06
1.97547e-12
3.99467e-06
2.42887e-12
3.99467e-06
2.81929e-12
3.99466e-06
3.11764e-12
3.99466e-06
3.40236e-12
3.99466e-06
3.6931e-12
3.99466e-06
3.8662e-12
3.99466e-06
3.8194e-12
3.99466e-06
3.59866e-12
3.99465e-06
3.27902e-12
3.99465e-06
2.88607e-12
3.99465e-06
2.45649e-12
3.99465e-06
2.04051e-12
3.99465e-06
1.643e-12
3.99465e-06
1.2377e-12
3.99465e-06
8.54605e-13
3.99465e-06
5.38191e-13
3.99465e-06
2.75726e-13
3.99465e-06
-1.15513e-16
3.99465e-06
-2.90318e-13
3.99465e-06
-5.69021e-13
3.99465e-06
-7.84994e-13
3.99465e-06
-9.62031e-13
3.99465e-06
-1.1808e-12
3.99465e-06
-1.46438e-12
3.99465e-06
-1.77148e-12
3.99465e-06
-2.00322e-12
3.99465e-06
-2.10508e-12
3.99465e-06
-2.16101e-12
3.99465e-06
-2.21737e-12
3.99466e-06
-2.18928e-12
3.99466e-06
-2.03829e-12
3.99466e-06
-1.8465e-12
3.99466e-06
-1.70276e-12
3.99466e-06
-1.6185e-12
3.99466e-06
-1.56755e-12
3.99466e-06
-1.46122e-12
3.99466e-06
-1.16226e-12
3.99466e-06
-7.09823e-13
3.99466e-06
-3.00381e-13
3.99466e-06
-2.13068e-15
3.99466e-06
3.97478e-13
3.99466e-06
1.09877e-12
3.99466e-06
1.91571e-12
3.99465e-06
2.74914e-12
3.99465e-06
3.68064e-12
3.99465e-06
4.65367e-12
3.99465e-06
5.61829e-12
3.99464e-06
6.58729e-12
3.99464e-06
7.68215e-12
3.99464e-06
8.83182e-12
3.99463e-06
1.00771e-11
3.99463e-06
1.13414e-11
3.99462e-06
1.2498e-11
1.28585e-11
5.25558e-06
2.84258e-11
5.25557e-06
2.63449e-11
5.25556e-06
2.42962e-11
5.25555e-06
2.21273e-11
5.25555e-06
2.00114e-11
5.25554e-06
1.80485e-11
5.25553e-06
1.61528e-11
5.25553e-06
1.45452e-11
5.25552e-06
1.28999e-11
5.25551e-06
1.1259e-11
5.25551e-06
9.91352e-12
5.25551e-06
8.4595e-12
5.2555e-06
7.13313e-12
5.2555e-06
5.93827e-12
5.2555e-06
4.7451e-12
5.2555e-06
3.68976e-12
5.25549e-06
2.62228e-12
5.25549e-06
1.5401e-12
5.25549e-06
7.42093e-13
5.25549e-06
4.82086e-14
5.25549e-06
-7.09077e-13
5.25549e-06
-1.48253e-12
5.25549e-06
-1.98812e-12
5.25549e-06
-2.26452e-12
5.25549e-06
-2.51436e-12
5.2555e-06
-2.83419e-12
5.2555e-06
-3.15465e-12
5.2555e-06
-3.19139e-12
5.2555e-06
-3.05121e-12
5.2555e-06
-3.15322e-12
5.2555e-06
-3.42857e-12
5.2555e-06
-3.52036e-12
5.25551e-06
-3.42364e-12
5.25551e-06
-3.3406e-12
5.25551e-06
-3.36459e-12
5.25551e-06
-3.53001e-12
5.25551e-06
-3.76369e-12
5.25551e-06
-3.89013e-12
5.25552e-06
-3.79651e-12
5.25552e-06
-3.53058e-12
5.25552e-06
-3.32457e-12
5.25552e-06
-3.35914e-12
5.25552e-06
-3.50579e-12
5.25552e-06
-3.46085e-12
5.25552e-06
-3.07515e-12
5.25553e-06
-2.54253e-12
5.25553e-06
-2.15616e-12
5.25553e-06
-1.91729e-12
5.25553e-06
-1.65046e-12
5.25553e-06
-1.2824e-12
5.25553e-06
-8.34211e-13
5.25553e-06
-3.26294e-13
5.25553e-06
2.62521e-13
5.25553e-06
8.75779e-13
5.25553e-06
1.47493e-12
5.25553e-06
2.07318e-12
5.25553e-06
2.71288e-12
5.25553e-06
3.35021e-12
5.25552e-06
3.95278e-12
5.25552e-06
4.5443e-12
5.25552e-06
5.06864e-12
5.25552e-06
5.37624e-12
5.25552e-06
5.40552e-12
5.25551e-06
5.29742e-12
5.25551e-06
5.23218e-12
5.25551e-06
5.20843e-12
5.25551e-06
5.09837e-12
5.2555e-06
4.84612e-12
5.2555e-06
4.49123e-12
5.2555e-06
4.0199e-12
5.2555e-06
3.337e-12
5.2555e-06
2.44205e-12
5.2555e-06
1.48522e-12
5.2555e-06
5.8971e-13
5.2555e-06
-2.82521e-13
5.2555e-06
-1.21855e-12
5.2555e-06
-2.19329e-12
5.2555e-06
-3.09875e-12
5.2555e-06
-3.87367e-12
5.2555e-06
-4.50521e-12
5.25551e-06
-4.96547e-12
5.25551e-06
-5.25385e-12
5.25551e-06
-5.45673e-12
5.25551e-06
-5.63931e-12
5.25552e-06
-5.73456e-12
5.25552e-06
-5.65717e-12
5.25552e-06
-5.43647e-12
5.25552e-06
-5.1438e-12
5.25552e-06
-4.77771e-12
5.25553e-06
-4.29761e-12
5.25553e-06
-3.72895e-12
5.25553e-06
-3.15577e-12
5.25553e-06
-2.59858e-12
5.25553e-06
-1.99292e-12
5.25553e-06
-1.31725e-12
5.25553e-06
-6.36878e-13
5.25553e-06
-1.12928e-14
5.25553e-06
5.50134e-13
5.25553e-06
1.0683e-12
5.25553e-06
1.57558e-12
5.25553e-06
2.10282e-12
5.25553e-06
2.6422e-12
5.25553e-06
3.12203e-12
5.25552e-06
3.47201e-12
5.25552e-06
3.71133e-12
5.25552e-06
3.89216e-12
5.25552e-06
4.00787e-12
5.25552e-06
4.04396e-12
5.25552e-06
4.05854e-12
5.25552e-06
4.13345e-12
5.25551e-06
4.25132e-12
5.25551e-06
4.29311e-12
5.25551e-06
4.17994e-12
5.25551e-06
3.96316e-12
5.25551e-06
3.74607e-12
5.25551e-06
3.56294e-12
5.2555e-06
3.35325e-12
5.2555e-06
3.01125e-12
5.2555e-06
2.45082e-12
5.2555e-06
1.68679e-12
5.2555e-06
8.41839e-13
5.2555e-06
3.0323e-14
5.2555e-06
-7.21435e-13
5.2555e-06
-1.44252e-12
5.2555e-06
-2.13304e-12
5.25551e-06
-2.76734e-12
5.25551e-06
-3.35445e-12
5.25551e-06
-3.95308e-12
5.25551e-06
-4.57405e-12
5.25551e-06
-5.09932e-12
5.25552e-06
-5.38422e-12
5.25552e-06
-5.39747e-12
5.25552e-06
-5.20972e-12
5.25552e-06
-4.92314e-12
5.25552e-06
-4.62375e-12
5.25553e-06
-4.30514e-12
5.25553e-06
-3.87637e-12
5.25553e-06
-3.27328e-12
5.25553e-06
-2.5214e-12
5.25553e-06
-1.68975e-12
5.25553e-06
-8.26914e-13
5.25553e-06
5.44072e-14
5.25553e-06
9.32281e-13
5.25553e-06
1.73409e-12
5.25553e-06
2.43475e-12
5.25553e-06
3.1147e-12
5.25553e-06
3.83344e-12
5.25553e-06
4.52197e-12
5.25552e-06
5.05302e-12
5.25552e-06
5.40728e-12
5.25552e-06
5.6674e-12
5.25552e-06
5.83654e-12
5.25552e-06
5.81735e-12
5.25551e-06
5.58557e-12
5.25551e-06
5.20768e-12
5.25551e-06
4.71444e-12
5.25551e-06
4.08238e-12
5.25551e-06
3.33553e-12
5.25551e-06
2.55623e-12
5.2555e-06
1.79862e-12
5.2555e-06
1.10738e-12
5.2555e-06
5.44907e-13
5.2555e-06
1.09352e-13
5.2555e-06
-2.82744e-13
5.2555e-06
-7.42642e-13
5.2555e-06
-1.29335e-12
5.25551e-06
-1.80507e-12
5.25551e-06
-2.17744e-12
5.25551e-06
-2.46371e-12
5.25551e-06
-2.73887e-12
5.25551e-06
-3.01643e-12
5.25551e-06
-3.24399e-12
5.25551e-06
-3.32849e-12
5.25551e-06
-3.30505e-12
5.25551e-06
-3.30263e-12
5.25552e-06
-3.31323e-12
5.25552e-06
-3.23323e-12
5.25552e-06
-3.03739e-12
5.25552e-06
-2.74576e-12
5.25552e-06
-2.36713e-12
5.25552e-06
-2.01693e-12
5.25552e-06
-1.75521e-12
5.25552e-06
-1.34812e-12
5.25552e-06
-7.16794e-13
5.25552e-06
-9.52113e-14
5.25552e-06
5.06453e-13
5.25552e-06
1.25665e-12
5.25552e-06
2.17352e-12
5.25552e-06
3.20212e-12
5.25551e-06
4.46418e-12
5.25551e-06
5.935e-12
5.25551e-06
7.36018e-12
5.2555e-06
8.7498e-12
5.2555e-06
1.02936e-11
5.2555e-06
1.19194e-11
5.25549e-06
1.34821e-11
5.25549e-06
1.51778e-11
5.25548e-06
1.68101e-11
5.25548e-06
1.78492e-11
1.84186e-11
6.33232e-06
3.70893e-11
6.33231e-06
3.56945e-11
6.3323e-06
3.33763e-11
6.33229e-06
3.12548e-11
6.33228e-06
2.89642e-11
6.33227e-06
2.6539e-11
6.33227e-06
2.42295e-11
6.33226e-06
2.16531e-11
6.33225e-06
1.94111e-11
6.33225e-06
1.72508e-11
6.33224e-06
1.50057e-11
6.33224e-06
1.28955e-11
6.33223e-06
1.09115e-11
6.33223e-06
8.97473e-12
6.33223e-06
7.04027e-12
6.33222e-06
5.3323e-12
6.33222e-06
4.04026e-12
6.33222e-06
2.7947e-12
6.33222e-06
1.29028e-12
6.33222e-06
-6.86254e-14
6.33222e-06
-1.04331e-12
6.33222e-06
-1.76354e-12
6.33222e-06
-2.35083e-12
6.33222e-06
-2.8857e-12
6.33222e-06
-3.42167e-12
6.33222e-06
-3.89373e-12
6.33222e-06
-4.22169e-12
6.33223e-06
-4.44836e-12
6.33223e-06
-4.71807e-12
6.33223e-06
-5.10348e-12
6.33223e-06
-5.42399e-12
6.33223e-06
-5.45562e-12
6.33223e-06
-5.3248e-12
6.33223e-06
-5.3094e-12
6.33224e-06
-5.41853e-12
6.33224e-06
-5.49136e-12
6.33224e-06
-5.44334e-12
6.33224e-06
-5.35851e-12
6.33224e-06
-5.3943e-12
6.33225e-06
-5.50925e-12
6.33225e-06
-5.53057e-12
6.33225e-06
-5.40582e-12
6.33225e-06
-5.15815e-12
6.33225e-06
-4.79431e-12
6.33225e-06
-4.31531e-12
6.33226e-06
-3.78562e-12
6.33226e-06
-3.33195e-12
6.33226e-06
-2.94964e-12
6.33226e-06
-2.48479e-12
6.33226e-06
-1.8475e-12
6.33226e-06
-1.07902e-12
6.33226e-06
-2.74145e-13
6.33226e-06
5.27713e-13
6.33226e-06
1.36108e-12
6.33226e-06
2.2504e-12
6.33226e-06
3.21367e-12
6.33226e-06
4.26353e-12
6.33226e-06
5.2757e-12
6.33225e-06
6.07013e-12
6.33225e-06
6.61593e-12
6.33225e-06
7.01884e-12
6.33225e-06
7.34542e-12
6.33224e-06
7.55755e-12
6.33224e-06
7.63022e-12
6.33224e-06
7.63147e-12
6.33224e-06
7.60051e-12
6.33223e-06
7.44108e-12
6.33223e-06
7.02747e-12
6.33223e-06
6.35723e-12
6.33223e-06
5.51611e-12
6.33223e-06
4.54017e-12
6.33223e-06
3.41358e-12
6.33223e-06
2.16762e-12
6.33223e-06
8.87007e-13
6.33223e-06
-3.88758e-13
6.33223e-06
-1.68082e-12
6.33223e-06
-2.97169e-12
6.33223e-06
-4.18131e-12
6.33223e-06
-5.25908e-12
6.33223e-06
-6.21859e-12
6.33223e-06
-7.03726e-12
6.33224e-06
-7.63143e-12
6.33224e-06
-7.98608e-12
6.33224e-06
-8.18369e-12
6.33224e-06
-8.26092e-12
6.33225e-06
-8.16556e-12
6.33225e-06
-7.87335e-12
6.33225e-06
-7.44255e-12
6.33225e-06
-6.92988e-12
6.33226e-06
-6.31926e-12
6.33226e-06
-5.56794e-12
6.33226e-06
-4.7005e-12
6.33226e-06
-3.77335e-12
6.33226e-06
-2.79496e-12
6.33226e-06
-1.76772e-12
6.33226e-06
-7.50788e-13
6.33226e-06
1.92426e-13
6.33226e-06
1.05768e-12
6.33226e-06
1.87218e-12
6.33226e-06
2.63609e-12
6.33226e-06
3.332e-12
6.33226e-06
3.95885e-12
6.33226e-06
4.51128e-12
6.33225e-06
4.96109e-12
6.33225e-06
5.3178e-12
6.33225e-06
5.64148e-12
6.33225e-06
5.94082e-12
6.33225e-06
6.1276e-12
6.33225e-06
6.13447e-12
6.33224e-06
6.01619e-12
6.33224e-06
5.89539e-12
6.33224e-06
5.82466e-12
6.33224e-06
5.74845e-12
6.33224e-06
5.5909e-12
6.33224e-06
5.31585e-12
6.33223e-06
4.91311e-12
6.33223e-06
4.38533e-12
6.33223e-06
3.74727e-12
6.33223e-06
2.99024e-12
6.33223e-06
2.08062e-12
6.33223e-06
1.03437e-12
6.33223e-06
-6.96474e-14
6.33223e-06
-1.17853e-12
6.33223e-06
-2.29675e-12
6.33223e-06
-3.43342e-12
6.33223e-06
-4.51316e-12
6.33224e-06
-5.41324e-12
6.33224e-06
-6.09732e-12
6.33224e-06
-6.65286e-12
6.33224e-06
-7.14793e-12
6.33224e-06
-7.53453e-12
6.33225e-06
-7.72477e-12
6.33225e-06
-7.67203e-12
6.33225e-06
-7.37877e-12
6.33225e-06
-6.90802e-12
6.33226e-06
-6.34329e-12
6.33226e-06
-5.6883e-12
6.33226e-06
-4.87722e-12
6.33226e-06
-3.87026e-12
6.33226e-06
-2.70173e-12
6.33226e-06
-1.46151e-12
6.33226e-06
-2.0083e-13
6.33226e-06
1.0995e-12
6.33226e-06
2.40576e-12
6.33226e-06
3.60129e-12
6.33226e-06
4.61833e-12
6.33226e-06
5.51316e-12
6.33226e-06
6.3535e-12
6.33226e-06
7.08427e-12
6.33225e-06
7.59212e-12
6.33225e-06
7.86639e-12
6.33225e-06
7.96151e-12
6.33225e-06
7.86743e-12
6.33224e-06
7.54206e-12
6.33224e-06
7.01417e-12
6.33224e-06
6.36863e-12
6.33224e-06
5.64208e-12
6.33224e-06
4.83494e-12
6.33224e-06
3.97695e-12
6.33224e-06
3.0797e-12
6.33223e-06
2.12408e-12
6.33223e-06
1.14761e-12
6.33223e-06
2.27696e-13
6.33223e-06
-5.96475e-13
6.33223e-06
-1.34794e-12
6.33224e-06
-2.06668e-12
6.33224e-06
-2.71507e-12
6.33224e-06
-3.2294e-12
6.33224e-06
-3.64174e-12
6.33224e-06
-4.00575e-12
6.33224e-06
-4.32937e-12
6.33224e-06
-4.59311e-12
6.33224e-06
-4.73994e-12
6.33224e-06
-4.75424e-12
6.33225e-06
-4.68943e-12
6.33225e-06
-4.55475e-12
6.33225e-06
-4.34918e-12
6.33225e-06
-4.10003e-12
6.33225e-06
-3.77406e-12
6.33225e-06
-3.29153e-12
6.33225e-06
-2.67535e-12
6.33225e-06
-2.0437e-12
6.33225e-06
-1.40066e-12
6.33225e-06
-7.05037e-13
6.33225e-06
8.23167e-14
6.33225e-06
1.11157e-12
6.33225e-06
2.34941e-12
6.33225e-06
3.66278e-12
6.33225e-06
5.11579e-12
6.33225e-06
6.76159e-12
6.33224e-06
8.52695e-12
6.33224e-06
1.02711e-11
6.33224e-06
1.21237e-11
6.33223e-06
1.41397e-11
6.33223e-06
1.60989e-11
6.33222e-06
1.81709e-11
6.33222e-06
2.00373e-11
6.33221e-06
2.16921e-11
6.33221e-06
2.26141e-11
2.30536e-11
7.22669e-06
4.57542e-11
7.22668e-06
4.42011e-11
7.22667e-06
4.25545e-11
7.22666e-06
4.02699e-11
7.22665e-06
3.78205e-11
7.22664e-06
3.49997e-11
7.22663e-06
3.24957e-11
7.22662e-06
2.96053e-11
7.22662e-06
2.6662e-11
7.22661e-06
2.36937e-11
7.22661e-06
2.07709e-11
7.2266e-06
1.79761e-11
7.2266e-06
1.53257e-11
7.22659e-06
1.24796e-11
7.22659e-06
9.77808e-12
7.22659e-06
7.53813e-12
7.22659e-06
5.68227e-12
7.22659e-06
3.84948e-12
7.22659e-06
2.17413e-12
7.22658e-06
7.15272e-13
7.22658e-06
-5.19799e-13
7.22658e-06
-1.58366e-12
7.22658e-06
-2.65042e-12
7.22658e-06
-3.62236e-12
7.22659e-06
-4.3238e-12
7.22659e-06
-4.73687e-12
7.22659e-06
-5.11748e-12
7.22659e-06
-5.72046e-12
7.22659e-06
-6.34098e-12
7.22659e-06
-6.67836e-12
7.22659e-06
-6.81252e-12
7.2266e-06
-6.91382e-12
7.2266e-06
-7.04719e-12
7.2266e-06
-7.24456e-12
7.2266e-06
-7.41046e-12
7.2266e-06
-7.43821e-12
7.2266e-06
-7.35754e-12
7.22661e-06
-7.24188e-12
7.22661e-06
-7.19784e-12
7.22661e-06
-7.2346e-12
7.22661e-06
-7.17827e-12
7.22661e-06
-6.93846e-12
7.22661e-06
-6.60361e-12
7.22662e-06
-6.27647e-12
7.22662e-06
-5.93763e-12
7.22662e-06
-5.47949e-12
7.22662e-06
-4.88014e-12
7.22662e-06
-4.17947e-12
7.22662e-06
-3.34242e-12
7.22662e-06
-2.33123e-12
7.22662e-06
-1.19667e-12
7.22662e-06
-6.87016e-14
7.22662e-06
9.61108e-13
7.22662e-06
1.94161e-12
7.22662e-06
2.98042e-12
7.22662e-06
4.14224e-12
7.22662e-06
5.43727e-12
7.22662e-06
6.75427e-12
7.22662e-06
7.86921e-12
7.22662e-06
8.63971e-12
7.22661e-06
9.13511e-12
7.22661e-06
9.53073e-12
7.22661e-06
9.88114e-12
7.22661e-06
1.00834e-11
7.2266e-06
1.00621e-11
7.2266e-06
9.85057e-12
7.2266e-06
9.48241e-12
7.2266e-06
8.9183e-12
7.22659e-06
8.10975e-12
7.22659e-06
7.07413e-12
7.22659e-06
5.85116e-12
7.22659e-06
4.44523e-12
7.22659e-06
2.86184e-12
7.22659e-06
1.15676e-12
7.22659e-06
-5.77767e-13
7.22659e-06
-2.2847e-12
7.22659e-06
-3.92681e-12
7.22659e-06
-5.42916e-12
7.22659e-06
-6.7244e-12
7.2266e-06
-7.83969e-12
7.2266e-06
-8.85361e-12
7.2266e-06
-9.75786e-12
7.2266e-06
-1.04462e-11
7.22661e-06
-1.08451e-11
7.22661e-06
-1.09587e-11
7.22661e-06
-1.08105e-11
7.22661e-06
-1.04257e-11
7.22661e-06
-9.8513e-12
7.22662e-06
-9.14344e-12
7.22662e-06
-8.30307e-12
7.22662e-06
-7.26652e-12
7.22662e-06
-6.02153e-12
7.22662e-06
-4.67987e-12
7.22662e-06
-3.36838e-12
7.22662e-06
-2.12313e-12
7.22662e-06
-9.17683e-13
7.22662e-06
2.68197e-13
7.22662e-06
1.43153e-12
7.22662e-06
2.54959e-12
7.22662e-06
3.5772e-12
7.22662e-06
4.46581e-12
7.22662e-06
5.21809e-12
7.22662e-06
5.88171e-12
7.22662e-06
6.46805e-12
7.22662e-06
6.94542e-12
7.22661e-06
7.33023e-12
7.22661e-06
7.68145e-12
7.22661e-06
7.99433e-12
7.22661e-06
8.16951e-12
7.22661e-06
8.13077e-12
7.22661e-06
7.93447e-12
7.2266e-06
7.71002e-12
7.2266e-06
7.51883e-12
7.2266e-06
7.30578e-12
7.2266e-06
6.962e-12
7.2266e-06
6.39022e-12
7.2266e-06
5.56116e-12
7.2266e-06
4.5503e-12
7.22659e-06
3.4771e-12
7.22659e-06
2.37375e-12
7.22659e-06
1.17011e-12
7.22659e-06
-1.75837e-13
7.22659e-06
-1.59591e-12
7.2266e-06
-2.98474e-12
7.2266e-06
-4.31272e-12
7.2266e-06
-5.612e-12
7.2266e-06
-6.85288e-12
7.2266e-06
-7.91997e-12
7.2266e-06
-8.74143e-12
7.22661e-06
-9.34496e-12
7.22661e-06
-9.76338e-12
7.22661e-06
-9.98468e-12
7.22661e-06
-9.98137e-12
7.22662e-06
-9.72274e-12
7.22662e-06
-9.19335e-12
7.22662e-06
-8.43537e-12
7.22662e-06
-7.5047e-12
7.22662e-06
-6.40845e-12
7.22663e-06
-5.11788e-12
7.22663e-06
-3.62486e-12
7.22663e-06
-1.99951e-12
7.22663e-06
-3.58654e-13
7.22663e-06
1.27287e-12
7.22663e-06
2.88391e-12
7.22663e-06
4.42287e-12
7.22662e-06
5.78609e-12
7.22662e-06
6.93916e-12
7.22662e-06
7.93727e-12
7.22662e-06
8.80899e-12
7.22662e-06
9.4688e-12
7.22662e-06
9.83283e-12
7.22661e-06
9.92511e-12
7.22661e-06
9.81844e-12
7.22661e-06
9.51905e-12
7.22661e-06
8.98066e-12
7.22661e-06
8.20199e-12
7.2266e-06
7.23085e-12
7.2266e-06
6.1022e-12
7.2266e-06
4.88193e-12
7.2266e-06
3.66571e-12
7.2266e-06
2.4851e-12
7.2266e-06
1.31927e-12
7.2266e-06
1.69781e-13
7.2266e-06
-9.01768e-13
7.2266e-06
-1.83967e-12
7.2266e-06
-2.70682e-12
7.2266e-06
-3.58887e-12
7.2266e-06
-4.41961e-12
7.2266e-06
-5.07711e-12
7.2266e-06
-5.52749e-12
7.22661e-06
-5.80076e-12
7.22661e-06
-5.95335e-12
7.22661e-06
-6.03954e-12
7.22661e-06
-6.07219e-12
7.22661e-06
-6.01841e-12
7.22661e-06
-5.83242e-12
7.22661e-06
-5.51657e-12
7.22661e-06
-5.1006e-12
7.22662e-06
-4.6135e-12
7.22662e-06
-4.04012e-12
7.22662e-06
-3.26428e-12
7.22662e-06
-2.32479e-12
7.22662e-06
-1.43625e-12
7.22662e-06
-5.78556e-13
7.22662e-06
5.16803e-13
7.22662e-06
1.94614e-12
7.22662e-06
3.50084e-12
7.22661e-06
5.11947e-12
7.22661e-06
6.89425e-12
7.22661e-06
8.79029e-12
7.22661e-06
1.07792e-11
7.22661e-06
1.28777e-11
7.2266e-06
1.52312e-11
7.2266e-06
1.76609e-11
7.2266e-06
1.99416e-11
7.22659e-06
2.22453e-11
7.22659e-06
2.42052e-11
7.22658e-06
2.57081e-11
7.22658e-06
2.66569e-11
2.68553e-11
7.94022e-06
5.38482e-11