/*--------------------------------*- C++ -*----------------------------------*\
| =========                 |                                                 |
| \\      /  F ield         | OpenFOAM: The Open Source CFD Toolbox           |
|  \\    /   O peration     | Version:  2406                                  |
|   \\  /    A nd           | Website:  www.openfoam.com                      |
|    \\/     M anipulation  |                                                 |
\*---------------------------------------------------------------------------*/
FoamFile
{
    version     2.0;
    format      ascii;
    arch        "LSB;label=32;scalar=64";
    class       volVectorField;
    location    "0.3";
    object      U;
}
// * * * * * * * * * * * * * * * * * * * * * * * * * * * * * * * * * * * * * //

dimensions      [0 1 -1 0 0 0 0];

internalField   nonuniform List<vector> 
4000
(
(0.0182538 3.84791e-08 0)
(0.0182537 2.43059e-08 0)
(0.0182536 1.27039e-08 0)
(0.0182536 5.95472e-09 0)
(0.0182536 7.4908e-09 0)
(0.0182535 3.86242e-09 0)
(0.0182535 3.78933e-09 0)
(0.0182535 1.41712e-11 0)
(0.0182535 1.77296e-09 0)
(0.0182535 6.47861e-10 0)
(0.0182535 -8.92839e-11 0)
(0.0182535 5.17648e-10 0)
(0.0182535 9.94716e-10 0)
(0.0182535 -1.59419e-10 0)
(0.0182535 -1.17858e-09 0)
(0.0182535 -1.13384e-11 0)
(0.0182535 1.46202e-09 0)
(0.0182535 -6.30051e-10 0)
(0.0182535 -3.55712e-09 0)
(0.0182535 -3.55946e-09 0)
(0.0182535 -2.95519e-09 0)
(0.0182535 -2.63125e-09 0)
(0.0182535 -2.03705e-09 0)
(0.0182535 -9.87856e-10 0)
(0.0182535 -5.96677e-10 0)
(0.0182535 -1.5799e-09 0)
(0.0182535 -2.73119e-09 0)
(0.0182535 -3.34068e-09 0)
(0.0182535 -2.99692e-09 0)
(0.0182535 -1.56134e-09 0)
(0.0182535 -3.59402e-10 0)
(0.0182535 2.45495e-10 0)
(0.0182535 1.13316e-09 0)
(0.0182535 2.3538e-09 0)
(0.0182535 2.79578e-09 0)
(0.0182535 2.023e-09 0)
(0.0182536 9.10174e-10 0)
(0.0182536 1.68449e-11 0)
(0.0182536 -4.12455e-10 0)
(0.0182536 3.21335e-10 0)
(0.0182536 2.33301e-09 0)
(0.0182536 4.27241e-09 0)
(0.0182536 4.43318e-09 0)
(0.0182536 2.53767e-09 0)
(0.0182536 -4.51977e-11 0)
(0.0182536 -1.16385e-09 0)
(0.0182536 3.25347e-10 0)
(0.0182536 2.63983e-09 0)
(0.0182536 3.21781e-09 0)
(0.0182536 2.30071e-09 0)
(0.0182536 1.80466e-09 0)
(0.0182536 2.18245e-09 0)
(0.0182536 2.44951e-09 0)
(0.0182536 2.24467e-09 0)
(0.0182536 2.29537e-09 0)
(0.0182536 2.80664e-09 0)
(0.0182535 3.01056e-09 0)
(0.0182535 2.69871e-09 0)
(0.0182535 2.05497e-09 0)
(0.0182535 1.22602e-09 0)
(0.0182535 9.93352e-10 0)
(0.0182535 1.82724e-09 0)
(0.0182535 2.70952e-09 0)
(0.0182535 2.17169e-09 0)
(0.0182535 4.73034e-10 0)
(0.0182535 -4.30203e-10 0)
(0.0182535 4.92771e-10 0)
(0.0182534 2.03235e-09 0)
(0.0182534 2.52606e-09 0)
(0.0182534 1.90445e-09 0)
(0.0182534 1.27571e-09 0)
(0.0182534 1.03823e-09 0)
(0.0182534 6.6918e-10 0)
(0.0182534 1.48642e-10 0)
(0.0182534 7.91427e-11 0)
(0.0182534 2.18777e-10 0)
(0.0182534 -2.12136e-10 0)
(0.0182534 -1.34665e-09 0)
(0.0182534 -2.40312e-09 0)
(0.0182534 -2.95353e-09 0)
(0.0182535 -3.31518e-09 0)
(0.0182535 -3.48719e-09 0)
(0.0182535 -2.98909e-09 0)
(0.0182535 -2.2283e-09 0)
(0.0182535 -2.55568e-09 0)
(0.0182535 -4.2182e-09 0)
(0.0182535 -5.70189e-09 0)
(0.0182535 -5.76659e-09 0)
(0.0182536 -4.64132e-09 0)
(0.0182536 -3.03023e-09 0)
(0.0182536 -1.24452e-09 0)
(0.0182536 4.38934e-10 0)
(0.0182536 1.44213e-09 0)
(0.0182536 1.5075e-09 0)
(0.0182536 1.21289e-09 0)
(0.0182536 1.28515e-09 0)
(0.0182536 1.65303e-09 0)
(0.0182536 1.8564e-09 0)
(0.0182536 1.74529e-09 0)
(0.0182536 1.31056e-09 0)
(0.0182536 6.0513e-10 0)
(0.0182536 -1.22513e-10 0)
(0.0182536 -5.16848e-10 0)
(0.0182536 -5.98127e-10 0)
(0.0182536 -6.43187e-10 0)
(0.0182535 -5.34716e-10 0)
(0.0182535 1.83328e-10 0)
(0.0182535 1.219e-09 0)
(0.0182535 1.58245e-09 0)
(0.0182535 1.18898e-09 0)
(0.0182535 1.25741e-09 0)
(0.0182535 2.85048e-09 0)
(0.0182535 5.20164e-09 0)
(0.0182535 6.47335e-09 0)
(0.0182535 5.77451e-09 0)
(0.0182535 4.09732e-09 0)
(0.0182535 3.04881e-09 0)
(0.0182535 3.33751e-09 0)
(0.0182534 4.29484e-09 0)
(0.0182534 4.68992e-09 0)
(0.0182534 3.82468e-09 0)
(0.0182534 2.2295e-09 0)
(0.0182534 1.03693e-09 0)
(0.0182534 7.47205e-10 0)
(0.0182534 8.50476e-10 0)
(0.0182534 6.92775e-10 0)
(0.0182534 1.44005e-10 0)
(0.0182534 -5.74712e-10 0)
(0.0182534 -1.47063e-09 0)
(0.0182535 -2.97836e-09 0)
(0.0182535 -5.08112e-09 0)
(0.0182535 -6.73357e-09 0)
(0.0182535 -6.696e-09 0)
(0.0182535 -4.66073e-09 0)
(0.0182535 -1.58384e-09 0)
(0.0182535 8.52914e-10 0)
(0.0182535 1.55347e-09 0)
(0.0182535 1.10666e-09 0)
(0.0182535 9.15418e-10 0)
(0.0182535 1.47128e-09 0)
(0.0182535 2.15449e-09 0)
(0.0182535 2.21948e-09 0)
(0.0182535 1.527e-09 0)
(0.0182535 5.79909e-10 0)
(0.0182535 -2.61477e-10 0)
(0.0182535 -9.71741e-10 0)
(0.0182535 -1.08813e-09 0)
(0.0182535 1.36351e-10 0)
(0.0182535 2.49969e-09 0)
(0.0182535 4.82361e-09 0)
(0.0182535 6.14579e-09 0)
(0.0182534 6.64321e-09 0)
(0.0182534 6.9695e-09 0)
(0.0182534 6.88044e-09 0)
(0.0182534 5.90447e-09 0)
(0.0182534 4.50703e-09 0)
(0.0182534 3.32105e-09 0)
(0.0182534 2.17108e-09 0)
(0.0182534 7.51605e-10 0)
(0.0182534 -5.78171e-10 0)
(0.0182534 -1.32894e-09 0)
(0.0182534 -1.3943e-09 0)
(0.0182533 -8.0339e-10 0)
(0.0182533 3.408e-10 0)
(0.0182533 1.63207e-09 0)
(0.0182533 2.4406e-09 0)
(0.0182533 2.20695e-09 0)
(0.0182533 1.07348e-09 0)
(0.0182533 1.78811e-10 0)
(0.0182533 1.08777e-10 0)
(0.0182533 1.58583e-10 0)
(0.0182533 -5.46282e-10 0)
(0.0182533 -2.08736e-09 0)
(0.0182533 -3.23797e-09 0)
(0.0182533 -2.84563e-09 0)
(0.0182533 -1.95365e-09 0)
(0.0182533 -2.06976e-09 0)
(0.0182533 -2.66139e-09 0)
(0.0182534 -2.63837e-09 0)
(0.0182534 -2.14679e-09 0)
(0.0182534 -1.57289e-09 0)
(0.0182534 -8.0134e-10 0)
(0.0182534 -6.56655e-10 0)
(0.0182534 -1.75402e-09 0)
(0.0182534 -2.53498e-09 0)
(0.0182534 -1.88041e-09 0)
(0.0182534 -1.07001e-09 0)
(0.0182534 -1.28712e-09 0)
(0.0182534 -1.26504e-09 0)
(0.0182534 3.58878e-11 0)
(0.0182534 1.55718e-09 0)
(0.0182534 3.55613e-09 0)
(0.0182533 5.83393e-09 0)
(0.0182533 7.04275e-09 0)
(0.0182533 7.97375e-09 0)
(0.0182533 9.56554e-09 0)
(0.0182532 1.19254e-08 0)
(0.0182532 1.4697e-08 0)
(0.0182532 2.01343e-08 0)
(0.0182531 2.91813e-08 0)
(0.0509554 1.50747e-07 0)
(0.0509553 1.06939e-07 0)
(0.0509552 7.96673e-08 0)
(0.0509551 5.74307e-08 0)
(0.050955 5.1431e-08 0)
(0.0509549 4.06821e-08 0)
(0.0509548 3.69314e-08 0)
(0.0509548 2.40983e-08 0)
(0.0509547 2.22388e-08 0)
(0.0509547 1.73785e-08 0)
(0.0509547 1.37062e-08 0)
(0.0509546 1.34119e-08 0)
(0.0509546 1.09922e-08 0)
(0.0509546 8.4082e-09 0)
(0.0509546 6.81587e-09 0)
(0.0509545 7.37507e-09 0)
(0.0509545 5.69497e-09 0)
(0.0509545 8.42558e-10 0)
(0.0509545 -6.62524e-09 0)
(0.0509545 -8.86267e-09 0)
(0.0509545 -8.89638e-09 0)
(0.0509545 -9.69286e-09 0)
(0.0509545 -9.9535e-09 0)
(0.0509546 -7.81894e-09 0)
(0.0509546 -6.20836e-09 0)
(0.0509546 -7.67272e-09 0)
(0.0509546 -1.01129e-08 0)
(0.0509546 -1.2423e-08 0)
(0.0509546 -1.37291e-08 0)
(0.0509547 -1.20661e-08 0)
(0.0509547 -9.09901e-09 0)
(0.0509547 -7.43364e-09 0)
(0.0509547 -6.47082e-09 0)
(0.0509547 -4.60485e-09 0)
(0.0509547 -2.69893e-09 0)
(0.0509547 -2.78004e-09 0)
(0.0509548 -4.95941e-09 0)
(0.0509548 -7.87973e-09 0)
(0.0509548 -9.99006e-09 0)
(0.0509548 -9.72476e-09 0)
(0.0509548 -6.57226e-09 0)
(0.0509548 -2.02503e-09 0)
(0.0509548 1.06259e-09 0)
(0.0509548 4.21306e-10 0)
(0.0509548 -3.47212e-09 0)
(0.0509549 -6.46211e-09 0)
(0.0509549 -4.32981e-09 0)
(0.0509549 9.85207e-10 0)
(0.0509549 3.79883e-09 0)
(0.0509549 2.94193e-09 0)
(0.0509549 1.88215e-09 0)
(0.0509549 2.8572e-09 0)
(0.0509549 4.79569e-09 0)
(0.0509549 6.0816e-09 0)
(0.0509549 7.29949e-09 0)
(0.0509549 9.15822e-09 0)
(0.0509549 1.06516e-08 0)
(0.0509548 1.12831e-08 0)
(0.0509548 1.14866e-08 0)
(0.0509548 1.1037e-08 0)
(0.0509548 1.0408e-08 0)
(0.0509548 1.11167e-08 0)
(0.0509547 1.32611e-08 0)
(0.0509547 1.46115e-08 0)
(0.0509547 1.32742e-08 0)
(0.0509547 1.06849e-08 0)
(0.0509546 9.94462e-09 0)
(0.0509546 1.15133e-08 0)
(0.0509546 1.28966e-08 0)
(0.0509546 1.25173e-08 0)
(0.0509546 1.14478e-08 0)
(0.0509545 1.05662e-08 0)
(0.0509545 8.6024e-09 0)
(0.0509545 4.7461e-09 0)
(0.0509545 4.19729e-10 0)
(0.0509545 -2.97081e-09 0)
(0.0509545 -5.93689e-09 0)
(0.0509546 -9.59354e-09 0)
(0.0509546 -1.35175e-08 0)
(0.0509546 -1.65328e-08 0)
(0.0509546 -1.86556e-08 0)
(0.0509546 -2.04055e-08 0)
(0.0509547 -2.11209e-08 0)
(0.0509547 -2.02236e-08 0)
(0.0509547 -1.91849e-08 0)
(0.0509548 -1.95888e-08 0)
(0.0509548 -2.04079e-08 0)
(0.0509548 -1.97972e-08 0)
(0.0509548 -1.78617e-08 0)
(0.0509549 -1.56952e-08 0)
(0.0509549 -1.32501e-08 0)
(0.0509549 -9.73496e-09 0)
(0.0509549 -5.49058e-09 0)
(0.0509549 -2.09794e-09 0)
(0.0509549 -2.72601e-10 0)
(0.0509549 9.61367e-10 0)
(0.0509549 2.44726e-09 0)
(0.0509549 3.99883e-09 0)
(0.0509549 5.31593e-09 0)
(0.0509549 6.33434e-09 0)
(0.0509549 6.94194e-09 0)
(0.0509549 7.09972e-09 0)
(0.0509549 7.15107e-09 0)
(0.0509549 7.35042e-09 0)
(0.0509548 7.29176e-09 0)
(0.0509548 6.78827e-09 0)
(0.0509548 6.92585e-09 0)
(0.0509548 8.55459e-09 0)
(0.0509548 1.05638e-08 0)
(0.0509548 1.14869e-08 0)
(0.0509548 1.19642e-08 0)
(0.0509547 1.42124e-08 0)
(0.0509547 1.87575e-08 0)
(0.0509547 2.30685e-08 0)
(0.0509547 2.4123e-08 0)
(0.0509547 2.15522e-08 0)
(0.0509546 1.76236e-08 0)
(0.0509546 1.46184e-08 0)
(0.0509546 1.30789e-08 0)
(0.0509546 1.19589e-08 0)
(0.0509546 9.69047e-09 0)
(0.0509546 5.83495e-09 0)
(0.0509546 1.66047e-09 0)
(0.0509546 -1.36682e-09 0)
(0.0509546 -3.26721e-09 0)
(0.0509546 -5.01706e-09 0)
(0.0509546 -7.28353e-09 0)
(0.0509546 -9.80571e-09 0)
(0.0509546 -1.21231e-08 0)
(0.0509546 -1.47957e-08 0)
(0.0509547 -1.85827e-08 0)
(0.0509547 -2.24677e-08 0)
(0.0509547 -2.39287e-08 0)
(0.0509547 -2.12082e-08 0)
(0.0509548 -1.48256e-08 0)
(0.0509548 -7.65983e-09 0)
(0.0509548 -3.13334e-09 0)
(0.0509548 -2.08221e-09 0)
(0.0509548 -2.13155e-09 0)
(0.0509548 -9.06897e-10 0)
(0.0509548 1.69261e-09 0)
(0.0509548 4.3329e-09 0)
(0.0509548 5.81881e-09 0)
(0.0509548 6.42932e-09 0)
(0.0509548 7.03161e-09 0)
(0.0509548 7.61691e-09 0)
(0.0509548 8.33213e-09 0)
(0.0509548 1.07053e-08 0)
(0.0509548 1.57708e-08 0)
(0.0509547 2.1965e-08 0)
(0.0509547 2.62084e-08 0)
(0.0509547 2.72212e-08 0)
(0.0509546 2.64964e-08 0)
(0.0509546 2.50324e-08 0)
(0.0509546 2.23831e-08 0)
(0.0509546 1.89233e-08 0)
(0.0509545 1.58888e-08 0)
(0.0509545 1.33223e-08 0)
(0.0509545 1.02384e-08 0)
(0.0509545 6.59896e-09 0)
(0.0509545 3.25982e-09 0)
(0.0509545 7.59065e-10 0)
(0.0509545 -3.59649e-10 0)
(0.0509545 5.39872e-10 0)
(0.0509545 2.86395e-09 0)
(0.0509545 4.74017e-09 0)
(0.0509545 4.17982e-09 0)
(0.0509545 7.89373e-10 0)
(0.0509545 -3.07294e-09 0)
(0.0509545 -5.10135e-09 0)
(0.0509545 -5.8198e-09 0)
(0.0509545 -7.08844e-09 0)
(0.0509545 -1.00089e-08 0)
(0.0509545 -1.33699e-08 0)
(0.0509545 -1.44276e-08 0)
(0.0509545 -1.33719e-08 0)
(0.0509546 -1.28368e-08 0)
(0.0509546 -1.27974e-08 0)
(0.0509546 -1.16096e-08 0)
(0.0509546 -9.83013e-09 0)
(0.0509546 -8.39588e-09 0)
(0.0509546 -6.39846e-09 0)
(0.0509546 -4.72159e-09 0)
(0.0509546 -5.25034e-09 0)
(0.0509546 -5.8642e-09 0)
(0.0509546 -3.95358e-09 0)
(0.0509546 1.92685e-10 0)
(0.0509546 5.27137e-09 0)
(0.0509546 1.00571e-08 0)
(0.0509546 1.3745e-08 0)
(0.0509546 1.71286e-08 0)
(0.0509545 2.36204e-08 0)
(0.0509545 3.20201e-08 0)
(0.0509544 3.82266e-08 0)
(0.0509544 4.46345e-08 0)
(0.0509543 5.35266e-08 0)
(0.0509543 6.1975e-08 0)
(0.0509542 7.20365e-08 0)
(0.0509541 8.87495e-08 0)
(0.050954 1.0743e-07 0)
(0.0798943 2.99961e-07 0)
(0.0798941 2.50768e-07 0)
(0.0798939 2.06498e-07 0)
(0.0798938 1.73639e-07 0)
(0.0798937 1.47356e-07 0)
(0.0798935 1.32206e-07 0)
(0.0798934 1.13989e-07 0)
(0.0798933 1.01218e-07 0)
(0.0798933 8.54515e-08 0)
(0.0798932 7.4522e-08 0)
(0.0798931 6.35984e-08 0)
(0.079893 5.70262e-08 0)
(0.079893 4.73844e-08 0)
(0.0798929 4.09892e-08 0)
(0.0798929 3.44175e-08 0)
(0.0798929 2.81229e-08 0)
(0.0798929 1.60191e-08 0)
(0.0798928 9.29242e-09 0)
(0.0798928 2.61317e-10 0)
(0.0798928 -9.74546e-09 0)
(0.0798928 -1.62396e-08 0)
(0.0798928 -2.01478e-08 0)
(0.0798928 -2.1697e-08 0)
(0.0798928 -2.08991e-08 0)
(0.0798929 -2.00359e-08 0)
(0.0798929 -2.1049e-08 0)
(0.0798929 -2.37255e-08 0)
(0.0798929 -2.73778e-08 0)
(0.0798929 -3.06226e-08 0)
(0.079893 -3.12916e-08 0)
(0.079893 -2.93285e-08 0)
(0.079893 -2.74608e-08 0)
(0.079893 -2.71087e-08 0)
(0.0798931 -2.62691e-08 0)
(0.0798931 -2.43401e-08 0)
(0.0798931 -2.38089e-08 0)
(0.0798931 -2.5595e-08 0)
(0.0798932 -2.75702e-08 0)
(0.0798932 -2.76111e-08 0)
(0.0798932 -2.64872e-08 0)
(0.0798932 -2.62293e-08 0)
(0.0798933 -2.61494e-08 0)
(0.0798933 -2.41537e-08 0)
(0.0798933 -2.03956e-08 0)
(0.0798933 -1.69579e-08 0)
(0.0798933 -1.50564e-08 0)
(0.0798934 -1.31072e-08 0)
(0.0798934 -9.73276e-09 0)
(0.0798934 -6.62398e-09 0)
(0.0798934 -5.15434e-09 0)
(0.0798934 -3.75736e-09 0)
(0.0798934 -2.0071e-10 0)
(0.0798934 5.59936e-09 0)
(0.0798934 1.14621e-08 0)
(0.0798934 1.6178e-08 0)
(0.0798934 2.07144e-08 0)
(0.0798934 2.53307e-08 0)
(0.0798934 2.94596e-08 0)
(0.0798933 3.36146e-08 0)
(0.0798933 3.7428e-08 0)
(0.0798933 3.91588e-08 0)
(0.0798933 3.88528e-08 0)
(0.0798932 3.89713e-08 0)
(0.0798932 4.1e-08 0)
(0.0798931 4.30724e-08 0)
(0.0798931 4.26598e-08 0)
(0.0798931 4.03657e-08 0)
(0.079893 3.85876e-08 0)
(0.079893 3.75289e-08 0)
(0.079893 3.52163e-08 0)
(0.0798929 3.08976e-08 0)
(0.0798929 2.57162e-08 0)
(0.0798929 1.98952e-08 0)
(0.0798929 1.21783e-08 0)
(0.0798929 2.16276e-09 0)
(0.0798929 -8.41479e-09 0)
(0.0798929 -1.78517e-08 0)
(0.0798929 -2.60718e-08 0)
(0.079893 -3.35524e-08 0)
(0.079893 -3.96875e-08 0)
(0.079893 -4.39995e-08 0)
(0.0798931 -4.75479e-08 0)
(0.0798931 -5.09484e-08 0)
(0.0798931 -5.25369e-08 0)
(0.0798932 -5.09851e-08 0)
(0.0798932 -4.78491e-08 0)
(0.0798933 -4.51713e-08 0)
(0.0798933 -4.28844e-08 0)
(0.0798933 -4.01931e-08 0)
(0.0798934 -3.7245e-08 0)
(0.0798934 -3.42551e-08 0)
(0.0798934 -3.01597e-08 0)
(0.0798934 -2.36209e-08 0)
(0.0798934 -1.53862e-08 0)
(0.0798935 -7.9736e-09 0)
(0.0798935 -2.75315e-09 0)
(0.0798935 9.5939e-10 0)
(0.0798935 4.35255e-09 0)
(0.0798935 8.1605e-09 0)
(0.0798934 1.27681e-08 0)
(0.0798934 1.79524e-08 0)
(0.0798934 2.27724e-08 0)
(0.0798934 2.63086e-08 0)
(0.0798934 2.84908e-08 0)
(0.0798933 2.94854e-08 0)
(0.0798933 2.91059e-08 0)
(0.0798933 2.79866e-08 0)
(0.0798933 2.81172e-08 0)
(0.0798932 3.05621e-08 0)
(0.0798932 3.3866e-08 0)
(0.0798932 3.59138e-08 0)
(0.0798932 3.66686e-08 0)
(0.0798931 3.80466e-08 0)
(0.0798931 4.07938e-08 0)
(0.0798931 4.3109e-08 0)
(0.0798931 4.26111e-08 0)
(0.079893 3.88261e-08 0)
(0.079893 3.2794e-08 0)
(0.079893 2.59045e-08 0)
(0.079893 1.91748e-08 0)
(0.079893 1.27776e-08 0)
(0.079893 6.12048e-09 0)
(0.079893 -1.05066e-09 0)
(0.079893 -8.13816e-09 0)
(0.079893 -1.4552e-08 0)
(0.079893 -2.04969e-08 0)
(0.079893 -2.67415e-08 0)
(0.0798931 -3.35232e-08 0)
(0.0798931 -3.97774e-08 0)
(0.0798931 -4.42107e-08 0)
(0.0798931 -4.67808e-08 0)
(0.0798932 -4.79989e-08 0)
(0.0798932 -4.76297e-08 0)
(0.0798933 -4.50412e-08 0)
(0.0798933 -4.00036e-08 0)
(0.0798933 -3.31245e-08 0)
(0.0798934 -2.62186e-08 0)
(0.0798934 -2.10565e-08 0)
(0.0798934 -1.7121e-08 0)
(0.0798934 -1.22047e-08 0)
(0.0798934 -5.02493e-09 0)
(0.0798934 3.63395e-09 0)
(0.0798934 1.14766e-08 0)
(0.0798934 1.72247e-08 0)
(0.0798934 2.20547e-08 0)
(0.0798934 2.74068e-08 0)
(0.0798934 3.30599e-08 0)
(0.0798933 3.84518e-08 0)
(0.0798933 4.40963e-08 0)
(0.0798933 5.05306e-08 0)
(0.0798932 5.62506e-08 0)
(0.0798932 5.85748e-08 0)
(0.0798932 5.70054e-08 0)
(0.0798931 5.31641e-08 0)
(0.0798931 4.80149e-08 0)
(0.0798931 4.18992e-08 0)
(0.079893 3.57117e-08 0)
(0.079893 3.01333e-08 0)
(0.079893 2.46445e-08 0)
(0.079893 1.86359e-08 0)
(0.0798929 1.26647e-08 0)
(0.0798929 7.48771e-09 0)
(0.0798929 3.35779e-09 0)
(0.0798929 4.66692e-10 0)
(0.0798929 -1.51239e-09 0)
(0.0798929 -3.20862e-09 0)
(0.0798929 -5.4393e-09 0)
(0.079893 -9.14477e-09 0)
(0.079893 -1.4091e-08 0)
(0.079893 -1.8931e-08 0)
(0.079893 -2.29054e-08 0)
(0.079893 -2.57762e-08 0)
(0.079893 -2.81283e-08 0)
(0.0798931 -3.09859e-08 0)
(0.0798931 -3.30943e-08 0)
(0.0798931 -3.26173e-08 0)
(0.0798931 -3.03324e-08 0)
(0.0798931 -2.77916e-08 0)
(0.0798931 -2.54588e-08 0)
(0.0798932 -2.3662e-08 0)
(0.0798932 -2.25177e-08 0)
(0.0798932 -2.04587e-08 0)
(0.0798932 -1.62082e-08 0)
(0.0798932 -1.13013e-08 0)
(0.0798932 -7.11026e-09 0)
(0.0798932 -3.02077e-09 0)
(0.0798932 4.08605e-09 0)
(0.0798932 1.63491e-08 0)
(0.0798931 2.9569e-08 0)
(0.0798931 4.05691e-08 0)
(0.0798931 5.18484e-08 0)
(0.079893 6.58887e-08 0)
(0.079893 8.11017e-08 0)
(0.0798929 9.54804e-08 0)
(0.0798928 1.12184e-07 0)
(0.0798928 1.31178e-07 0)
(0.0798927 1.49579e-07 0)
(0.0798926 1.69789e-07 0)
(0.0798924 1.93331e-07 0)
(0.0798923 2.05436e-07 0)
(0.105112 4.70696e-07 0)
(0.105112 4.3034e-07 0)
(0.105111 3.8123e-07 0)
(0.105111 3.41623e-07 0)
(0.105111 3.0233e-07 0)
(0.105111 2.73416e-07 0)
(0.105111 2.42979e-07 0)
(0.105111 2.19779e-07 0)
(0.10511 1.93405e-07 0)
(0.10511 1.68776e-07 0)
(0.10511 1.49065e-07 0)
(0.10511 1.27013e-07 0)
(0.10511 1.07441e-07 0)
(0.10511 9.07194e-08 0)
(0.10511 7.21703e-08 0)
(0.10511 5.72998e-08 0)
(0.10511 3.86771e-08 0)
(0.10511 2.25851e-08 0)
(0.10511 9.77981e-09 0)
(0.10511 -3.94833e-09 0)
(0.10511 -1.62545e-08 0)
(0.10511 -2.69261e-08 0)
(0.10511 -3.31396e-08 0)
(0.10511 -3.58886e-08 0)
(0.10511 -3.8811e-08 0)
(0.10511 -4.32854e-08 0)
(0.10511 -4.83348e-08 0)
(0.10511 -5.06559e-08 0)
(0.10511 -5.06625e-08 0)
(0.10511 -5.21208e-08 0)
(0.10511 -5.43575e-08 0)
(0.10511 -5.45081e-08 0)
(0.10511 -5.31134e-08 0)
(0.10511 -5.19073e-08 0)
(0.10511 -5.16953e-08 0)
(0.10511 -5.35986e-08 0)
(0.10511 -5.67875e-08 0)
(0.10511 -5.8266e-08 0)
(0.10511 -5.63174e-08 0)
(0.10511 -5.26814e-08 0)
(0.10511 -5.1344e-08 0)
(0.10511 -5.34124e-08 0)
(0.10511 -5.53325e-08 0)
(0.10511 -5.28562e-08 0)
(0.10511 -4.52971e-08 0)
(0.10511 -3.66721e-08 0)
(0.105111 -3.10256e-08 0)
(0.105111 -2.75252e-08 0)
(0.105111 -2.36485e-08 0)
(0.105111 -1.87118e-08 0)
(0.105111 -1.26466e-08 0)
(0.105111 -4.8803e-09 0)
(0.105111 5.02531e-09 0)
(0.105111 1.58099e-08 0)
(0.105111 2.55708e-08 0)
(0.105111 3.46765e-08 0)
(0.105111 4.41023e-08 0)
(0.105111 5.34719e-08 0)
(0.10511 6.28013e-08 0)
(0.10511 7.21078e-08 0)
(0.10511 7.94539e-08 0)
(0.10511 8.26334e-08 0)
(0.10511 8.22412e-08 0)
(0.10511 8.14641e-08 0)
(0.10511 8.21783e-08 0)
(0.10511 8.28555e-08 0)
(0.10511 8.13423e-08 0)
(0.10511 7.75845e-08 0)
(0.10511 7.23805e-08 0)
(0.10511 6.4955e-08 0)
(0.10511 5.40529e-08 0)
(0.10511 4.05174e-08 0)
(0.10511 2.66468e-08 0)
(0.10511 1.30288e-08 0)
(0.10511 -1.5582e-09 0)
(0.10511 -1.75901e-08 0)
(0.10511 -3.37097e-08 0)
(0.10511 -4.8291e-08 0)
(0.10511 -6.08339e-08 0)
(0.10511 -7.10044e-08 0)
(0.10511 -7.81808e-08 0)
(0.10511 -8.29184e-08 0)
(0.10511 -8.69023e-08 0)
(0.10511 -9.02679e-08 0)
(0.10511 -9.11621e-08 0)
(0.10511 -8.88632e-08 0)
(0.10511 -8.48227e-08 0)
(0.10511 -8.01845e-08 0)
(0.10511 -7.45621e-08 0)
(0.10511 -6.7481e-08 0)
(0.105111 -5.95579e-08 0)
(0.105111 -5.14671e-08 0)
(0.105111 -4.25551e-08 0)
(0.105111 -3.19085e-08 0)
(0.105111 -2.02814e-08 0)
(0.105111 -9.39794e-09 0)
(0.105111 -4.44945e-11 0)
(0.105111 8.02194e-09 0)
(0.105111 1.54354e-08 0)
(0.105111 2.31457e-08 0)
(0.105111 3.18339e-08 0)
(0.105111 4.09667e-08 0)
(0.105111 4.88952e-08 0)
(0.105111 5.45172e-08 0)
(0.10511 5.82309e-08 0)
(0.10511 6.04853e-08 0)
(0.10511 6.11215e-08 0)
(0.10511 6.08952e-08 0)
(0.10511 6.16946e-08 0)
(0.10511 6.43615e-08 0)
(0.10511 6.72471e-08 0)
(0.10511 6.78969e-08 0)
(0.10511 6.59709e-08 0)
(0.10511 6.3379e-08 0)
(0.10511 6.16069e-08 0)
(0.10511 6.01707e-08 0)
(0.10511 5.73151e-08 0)
(0.10511 5.13735e-08 0)
(0.10511 4.16074e-08 0)
(0.10511 2.89694e-08 0)
(0.10511 1.55741e-08 0)
(0.10511 2.85599e-09 0)
(0.10511 -9.1734e-09 0)
(0.10511 -2.07762e-08 0)
(0.10511 -3.17734e-08 0)
(0.10511 -4.20347e-08 0)
(0.10511 -5.21317e-08 0)
(0.10511 -6.29552e-08 0)
(0.10511 -7.39049e-08 0)
(0.10511 -8.2413e-08 0)
(0.10511 -8.63637e-08 0)
(0.10511 -8.59006e-08 0)
(0.10511 -8.25228e-08 0)
(0.10511 -7.78627e-08 0)
(0.10511 -7.29424e-08 0)
(0.105111 -6.72884e-08 0)
(0.105111 -5.97451e-08 0)
(0.105111 -5.00637e-08 0)
(0.105111 -3.87633e-08 0)
(0.105111 -2.62287e-08 0)
(0.105111 -1.2516e-08 0)
(0.105111 2.08874e-09 0)
(0.105111 1.64146e-08 0)
(0.105111 2.88787e-08 0)
(0.105111 3.97104e-08 0)
(0.105111 5.06524e-08 0)
(0.105111 6.21416e-08 0)
(0.105111 7.26156e-08 0)
(0.10511 8.06819e-08 0)
(0.10511 8.69409e-08 0)
(0.10511 9.23448e-08 0)
(0.10511 9.56879e-08 0)
(0.10511 9.50363e-08 0)
(0.10511 9.06132e-08 0)
(0.10511 8.374e-08 0)
(0.10511 7.49108e-08 0)
(0.10511 6.43203e-08 0)
(0.10511 5.28188e-08 0)
(0.10511 4.13034e-08 0)
(0.10511 2.99407e-08 0)
(0.10511 1.93551e-08 0)
(0.10511 1.05687e-08 0)
(0.10511 3.48591e-09 0)
(0.10511 -2.97119e-09 0)
(0.10511 -1.00762e-08 0)
(0.10511 -1.79225e-08 0)
(0.10511 -2.48218e-08 0)
(0.10511 -3.00921e-08 0)
(0.10511 -3.50563e-08 0)
(0.10511 -4.06833e-08 0)
(0.10511 -4.66644e-08 0)
(0.10511 -5.13693e-08 0)
(0.10511 -5.3222e-08 0)
(0.10511 -5.34815e-08 0)
(0.10511 -5.40444e-08 0)
(0.10511 -5.40154e-08 0)
(0.10511 -5.19111e-08 0)
(0.10511 -4.8207e-08 0)
(0.10511 -4.39913e-08 0)
(0.10511 -3.95625e-08 0)
(0.10511 -3.58635e-08 0)
(0.10511 -3.25053e-08 0)
(0.10511 -2.57129e-08 0)
(0.10511 -1.5116e-08 0)
(0.10511 -4.96957e-09 0)
(0.10511 3.93702e-09 0)
(0.10511 1.55331e-08 0)
(0.10511 3.18495e-08 0)
(0.10511 5.0358e-08 0)
(0.10511 7.11444e-08 0)
(0.10511 9.49163e-08 0)
(0.10511 1.18822e-07 0)
(0.10511 1.42438e-07 0)
(0.10511 1.67802e-07 0)
(0.10511 1.95344e-07 0)
(0.10511 2.22572e-07 0)
(0.10511 2.52657e-07 0)
(0.10511 2.82292e-07 0)
(0.10511 3.0471e-07 0)
(0.105109 3.14245e-07 0)
(0.126647 6.54895e-07 0)
(0.126646 6.2034e-07 0)
(0.126646 5.75496e-07 0)
(0.126646 5.31337e-07 0)
(0.126646 4.87728e-07 0)
(0.126646 4.42293e-07 0)
(0.126645 4.00908e-07 0)
(0.126645 3.5869e-07 0)
(0.126645 3.19895e-07 0)
(0.126645 2.82187e-07 0)
(0.126645 2.47248e-07 0)
(0.126645 2.11631e-07 0)
(0.126645 1.78033e-07 0)
(0.126645 1.47731e-07 0)
(0.126645 1.16994e-07 0)
(0.126645 8.95961e-08 0)
(0.126644 6.61693e-08 0)
(0.126644 4.27021e-08 0)
(0.126644 1.9983e-08 0)
(0.126644 -4.02463e-10 0)
(0.126644 -1.76943e-08 0)
(0.126644 -3.25211e-08 0)
(0.126644 -4.34051e-08 0)
(0.126644 -5.16132e-08 0)
(0.126644 -5.95278e-08 0)
(0.126644 -6.73123e-08 0)
(0.126644 -7.37885e-08 0)
(0.126644 -7.65978e-08 0)
(0.126645 -7.7872e-08 0)
(0.126645 -8.23757e-08 0)
(0.126645 -8.78702e-08 0)
(0.126645 -8.88407e-08 0)
(0.126645 -8.65489e-08 0)
(0.126645 -8.56039e-08 0)
(0.126645 -8.6853e-08 0)
(0.126645 -8.90907e-08 0)
(0.126645 -9.09427e-08 0)
(0.126645 -9.15488e-08 0)
(0.126645 -9.12437e-08 0)
(0.126645 -9.0004e-08 0)
(0.126645 -8.83647e-08 0)
(0.126645 -8.75164e-08 0)
(0.126645 -8.64078e-08 0)
(0.126645 -8.22293e-08 0)
(0.126645 -7.36218e-08 0)
(0.126645 -6.31193e-08 0)
(0.126645 -5.48288e-08 0)
(0.126645 -4.86955e-08 0)
(0.126645 -4.1421e-08 0)
(0.126645 -3.1378e-08 0)
(0.126645 -1.92507e-08 0)
(0.126645 -6.25618e-09 0)
(0.126645 7.40091e-09 0)
(0.126645 2.20197e-08 0)
(0.126645 3.70858e-08 0)
(0.126645 5.27705e-08 0)
(0.126645 6.94936e-08 0)
(0.126645 8.57281e-08 0)
(0.126645 9.9571e-08 0)
(0.126645 1.10984e-07 0)
(0.126645 1.2031e-07 0)
(0.126645 1.26682e-07 0)
(0.126645 1.29207e-07 0)
(0.126645 1.29065e-07 0)
(0.126645 1.28585e-07 0)
(0.126645 1.28048e-07 0)
(0.126645 1.25297e-07 0)
(0.126645 1.18633e-07 0)
(0.126645 1.08416e-07 0)
(0.126645 9.53256e-08 0)
(0.126645 7.88114e-08 0)
(0.126645 5.87422e-08 0)
(0.126645 3.68304e-08 0)
(0.126645 1.50284e-08 0)
(0.126645 -6.62738e-09 0)
(0.126645 -2.90327e-08 0)
(0.126645 -5.16422e-08 0)
(0.126645 -7.26374e-08 0)
(0.126645 -9.10155e-08 0)
(0.126645 -1.06869e-07 0)
(0.126645 -1.19704e-07 0)
(0.126645 -1.28614e-07 0)
(0.126645 -1.34217e-07 0)
(0.126645 -1.37973e-07 0)
(0.126645 -1.39661e-07 0)
(0.126645 -1.37965e-07 0)
(0.126645 -1.32874e-07 0)
(0.126645 -1.25612e-07 0)
(0.126645 -1.1677e-07 0)
(0.126645 -1.05878e-07 0)
(0.126645 -9.27497e-08 0)
(0.126645 -7.8357e-08 0)
(0.126645 -6.34305e-08 0)
(0.126645 -4.75209e-08 0)
(0.126645 -3.05328e-08 0)
(0.126645 -1.36697e-08 0)
(0.126645 1.92995e-09 0)
(0.126645 1.61214e-08 0)
(0.126645 2.92863e-08 0)
(0.126645 4.17096e-08 0)
(0.126645 5.3633e-08 0)
(0.126645 6.51333e-08 0)
(0.126645 7.55062e-08 0)
(0.126645 8.37138e-08 0)
(0.126645 8.99392e-08 0)
(0.126645 9.52057e-08 0)
(0.126645 9.94477e-08 0)
(0.126645 1.01591e-07 0)
(0.126645 1.01606e-07 0)
(0.126645 1.0103e-07 0)
(0.126645 1.01081e-07 0)
(0.126645 1.01069e-07 0)
(0.126645 9.94351e-08 0)
(0.126645 9.57606e-08 0)
(0.126645 9.07364e-08 0)
(0.126645 8.47441e-08 0)
(0.126645 7.72951e-08 0)
(0.126645 6.75066e-08 0)
(0.126645 5.44478e-08 0)
(0.126645 3.79413e-08 0)
(0.126645 1.93065e-08 0)
(0.126645 3.81658e-10 0)
(0.126645 -1.81308e-08 0)
(0.126645 -3.65812e-08 0)
(0.126645 -5.49224e-08 0)
(0.126645 -7.20458e-08 0)
(0.126645 -8.67996e-08 0)
(0.126645 -9.9483e-08 0)
(0.126645 -1.11187e-07 0)
(0.126645 -1.21461e-07 0)
(0.126645 -1.28326e-07 0)
(0.126645 -1.30506e-07 0)
(0.126645 -1.28222e-07 0)
(0.126645 -1.22547e-07 0)
(0.126645 -1.14975e-07 0)
(0.126645 -1.0624e-07 0)
(0.126645 -9.54552e-08 0)
(0.126645 -8.13454e-08 0)
(0.126645 -6.37507e-08 0)
(0.126645 -4.3672e-08 0)
(0.126645 -2.25298e-08 0)
(0.126645 -1.06234e-09 0)
(0.126645 2.06318e-08 0)
(0.126645 4.15699e-08 0)
(0.126645 6.04619e-08 0)
(0.126645 7.74522e-08 0)
(0.126645 9.35714e-08 0)
(0.126645 1.08756e-07 0)
(0.126645 1.21289e-07 0)
(0.126645 1.29935e-07 0)
(0.126645 1.35342e-07 0)
(0.126645 1.37984e-07 0)
(0.126645 1.36812e-07 0)
(0.126645 1.31262e-07 0)
(0.126645 1.22309e-07 0)
(0.126645 1.10996e-07 0)
(0.126645 9.73497e-08 0)
(0.126645 8.16174e-08 0)
(0.126645 6.50093e-08 0)
(0.126645 4.82954e-08 0)
(0.126645 3.17772e-08 0)
(0.126645 1.64209e-08 0)
(0.126645 2.9219e-09 0)
(0.126645 -9.18131e-09 0)
(0.126645 -2.11772e-08 0)
(0.126645 -3.37232e-08 0)
(0.126645 -4.51895e-08 0)
(0.126645 -5.39297e-08 0)
(0.126645 -6.08054e-08 0)
(0.126645 -6.71255e-08 0)
(0.126645 -7.31375e-08 0)
(0.126645 -7.81308e-08 0)
(0.126645 -8.05366e-08 0)
(0.126645 -8.04533e-08 0)
(0.126645 -7.97221e-08 0)
(0.126645 -7.84785e-08 0)
(0.126645 -7.57188e-08 0)
(0.126645 -7.13803e-08 0)
(0.126645 -6.5276e-08 0)
(0.126645 -5.67418e-08 0)
(0.126645 -4.72064e-08 0)
(0.126645 -3.84267e-08 0)
(0.126645 -2.80035e-08 0)
(0.126645 -1.46516e-08 0)
(0.126645 -3.86079e-10 0)
(0.126645 1.59595e-08 0)
(0.126645 3.5874e-08 0)
(0.126645 5.82587e-08 0)
(0.126645 8.31296e-08 0)
(0.126645 1.1224e-07 0)
(0.126645 1.44688e-07 0)
(0.126645 1.76496e-07 0)
(0.126645 2.09198e-07 0)
(0.126645 2.45271e-07 0)
(0.126645 2.81991e-07 0)
(0.126645 3.19076e-07 0)
(0.126644 3.55176e-07 0)
(0.126644 3.88418e-07 0)
(0.126644 4.08077e-07 0)
(0.126644 4.18484e-07 0)
(0.144534 8.31853e-07 0)
(0.144534 8.01876e-07 0)
(0.144533 7.61718e-07 0)
(0.144533 7.17635e-07 0)
(0.144533 6.68906e-07 0)
(0.144533 6.16643e-07 0)
(0.144533 5.67094e-07 0)
(0.144533 5.13166e-07 0)
(0.144532 4.61541e-07 0)
(0.144532 4.10067e-07 0)
(0.144532 3.57417e-07 0)
(0.144532 3.08834e-07 0)
(0.144532 2.62792e-07 0)
(0.144532 2.1482e-07 0)
(0.144532 1.68731e-07 0)
(0.144532 1.28859e-07 0)
(0.144532 9.72943e-08 0)
(0.144532 6.66614e-08 0)
(0.144532 3.46596e-08 0)
(0.144532 6.42605e-09 0)
(0.144532 -1.55705e-08 0)
(0.144532 -3.37263e-08 0)
(0.144532 -5.07909e-08 0)
(0.144532 -6.6184e-08 0)
(0.144532 -7.85754e-08 0)
(0.144532 -8.74713e-08 0)
(0.144532 -9.46338e-08 0)
(0.144532 -1.02796e-07 0)
(0.144532 -1.11405e-07 0)
(0.144532 -1.18315e-07 0)
(0.144532 -1.22662e-07 0)
(0.144532 -1.24005e-07 0)
(0.144532 -1.24227e-07 0)
(0.144532 -1.26201e-07 0)
(0.144532 -1.28886e-07 0)
(0.144532 -1.29713e-07 0)
(0.144532 -1.28396e-07 0)
(0.144532 -1.2656e-07 0)
(0.144532 -1.2665e-07 0)
(0.144532 -1.28203e-07 0)
(0.144532 -1.27774e-07 0)
(0.144532 -1.24031e-07 0)
(0.144532 -1.18135e-07 0)
(0.144532 -1.11197e-07 0)
(0.144532 -1.02997e-07 0)
(0.144532 -9.30331e-08 0)
(0.144532 -8.23261e-08 0)
(0.144532 -7.12932e-08 0)
(0.144532 -5.81542e-08 0)
(0.144532 -4.16688e-08 0)
(0.144532 -2.2718e-08 0)
(0.144532 -3.47831e-09 0)
(0.144532 1.47478e-08 0)
(0.144532 3.28915e-08 0)
(0.144532 5.23158e-08 0)
(0.144532 7.37932e-08 0)
(0.144532 9.73865e-08 0)
(0.144532 1.20678e-07 0)
(0.144532 1.39797e-07 0)
(0.144532 1.53144e-07 0)
(0.144532 1.62373e-07 0)
(0.144532 1.69698e-07 0)
(0.144532 1.7527e-07 0)
(0.144532 1.77958e-07 0)
(0.144532 1.77769e-07 0)
(0.144532 1.7536e-07 0)
(0.144532 1.7004e-07 0)
(0.144532 1.60196e-07 0)
(0.144532 1.45357e-07 0)
(0.144532 1.26541e-07 0)
(0.144532 1.04459e-07 0)
(0.144532 7.9007e-08 0)
(0.144532 5.05681e-08 0)
(0.144532 2.053e-08 0)
(0.144532 -9.77945e-09 0)
(0.144532 -3.9941e-08 0)
(0.144532 -6.93243e-08 0)
(0.144532 -9.64478e-08 0)
(0.144532 -1.20241e-07 0)
(0.144532 -1.41149e-07 0)
(0.144532 -1.59692e-07 0)
(0.144532 -1.74887e-07 0)
(0.144532 -1.85435e-07 0)
(0.144532 -1.91366e-07 0)
(0.144532 -1.93134e-07 0)
(0.144532 -1.9057e-07 0)
(0.144532 -1.83724e-07 0)
(0.144532 -1.73572e-07 0)
(0.144532 -1.61186e-07 0)
(0.144532 -1.46493e-07 0)
(0.144532 -1.2855e-07 0)
(0.144532 -1.07476e-07 0)
(0.144532 -8.4837e-08 0)
(0.144532 -6.19103e-08 0)
(0.144532 -3.91133e-08 0)
(0.144532 -1.6831e-08 0)
(0.144532 4.48831e-09 0)
(0.144532 2.48162e-08 0)
(0.144532 4.42182e-08 0)
(0.144532 6.22282e-08 0)
(0.144532 7.81892e-08 0)
(0.144532 9.21459e-08 0)
(0.144532 1.04498e-07 0)
(0.144532 1.15015e-07 0)
(0.144532 1.23428e-07 0)
(0.144532 1.30539e-07 0)
(0.144532 1.37077e-07 0)
(0.144532 1.42114e-07 0)
(0.144532 1.43938e-07 0)
(0.144532 1.4233e-07 0)
(0.144532 1.39162e-07 0)
(0.144532 1.36304e-07 0)
(0.144532 1.33742e-07 0)
(0.144532 1.30013e-07 0)
(0.144532 1.23638e-07 0)
(0.144532 1.1367e-07 0)
(0.144532 9.99818e-08 0)
(0.144532 8.34663e-08 0)
(0.144532 6.5122e-08 0)
(0.144532 4.48722e-08 0)
(0.144532 2.2207e-08 0)
(0.144532 -2.43387e-09 0)
(0.144532 -2.7772e-08 0)
(0.144532 -5.29236e-08 0)
(0.144532 -7.76954e-08 0)
(0.144532 -1.01634e-07 0)
(0.144532 -1.23159e-07 0)
(0.144532 -1.40736e-07 0)
(0.144532 -1.5457e-07 0)
(0.144532 -1.65687e-07 0)
(0.144532 -1.73941e-07 0)
(0.144532 -1.78236e-07 0)