/*--------------------------------*- C++ -*----------------------------------*\
| =========                 |                                                 |
| \\      /  F ield         | OpenFOAM: The Open Source CFD Toolbox           |
|  \\    /   O peration     | Version:  2406                                  |
|   \\  /    A nd           | Website:  www.openfoam.com                      |
|    \\/     M anipulation  |                                                 |
\*---------------------------------------------------------------------------*/
FoamFile
{
    version     2.0;
    format      ascii;
    arch        "LSB;label=32;scalar=64";
    class       volScalarField;
    location    "0.35";
    object      alpha.glycerin;
}
// * * * * * * * * * * * * * * * * * * * * * * * * * * * * * * * * * * * * * //

dimensions      [0 0 0 0 0 0 0];

internalField   nonuniform List<scalar> 
6250
(
4.79046e-320
4.79046e-320
4.79046e-320
4.79244e-320
4.79244e-320
4.79441e-320
4.79441e-320
4.79639e-320
4.79639e-320
4.79837e-320
4.79837e-320
4.80034e-320
4.80133e-320
4.80232e-320
4.80429e-320
4.80429e-320
4.80627e-320
4.80726e-320
4.80825e-320
4.81022e-320
4.81121e-320
4.8122e-320
4.81418e-320
4.81418e-320
-4.81615e-320
-4.81714e-320
-4.81813e-320
-4.8201e-320
-4.82109e-320
-4.82208e-320
-4.82406e-320
-4.82505e-320
-4.82603e-320
-4.82801e-320
-4.82801e-320
-4.82999e-320
-4.83097e-320
-4.83196e-320
-4.83394e-320
-4.83493e-320
-4.83591e-320
-4.83789e-320
-4.83888e-320
-4.83987e-320
-4.84184e-320
-4.84283e-320
-4.84382e-320
-4.8458e-320
-4.8458e-320
-4.84777e-320
-4.84876e-320
-4.84975e-320
-4.85172e-320
-4.85271e-320
-4.8537e-320
-4.85568e-320
-4.85667e-320
-4.85765e-320
-4.85963e-320
-4.86062e-320
-4.86161e-320
-4.86358e-320
-4.86358e-320
-4.86556e-320
-4.86753e-320
-4.86753e-320
-4.86951e-320
-4.8705e-320
-4.87149e-320
-4.87346e-320
-4.87445e-320
-4.87544e-320
-4.87742e-320
-4.8784e-320
-4.87939e-320
-4.88137e-320
-4.88236e-320
-4.88334e-320
-4.88532e-320
-4.88532e-320
-4.8873e-320
-4.88927e-320
-4.88927e-320
-4.89125e-320
-4.89224e-320
-4.89323e-320
-4.8952e-320
-4.89619e-320
-4.89718e-320
-4.89915e-320
-4.90014e-320
-4.90113e-320
-4.90311e-320
-4.9041e-320
-4.90508e-320
-4.90706e-320
-4.90706e-320
-4.90904e-320
-4.91101e-320
-4.91101e-320
-4.91299e-320
-4.91398e-320
-4.91497e-320
-4.91694e-320
-4.91793e-320
-4.91892e-320
-4.92089e-320
-4.92188e-320
-4.92287e-320
-4.92485e-320
-4.92583e-320
-4.92682e-320
-4.9288e-320
-4.92979e-320
-4.93078e-320
-4.93275e-320
-4.93275e-320
-4.93473e-320
-4.9367e-320
-4.9367e-320
-4.93868e-320
-4.93967e-320
-4.94066e-320
-4.94263e-320
-4.94362e-320
-4.94461e-320
-4.94659e-320
-4.94757e-320
-4.94856e-320
-4.95054e-320
-4.95153e-320
-4.95251e-320
-4.95449e-320
-4.95449e-320
-4.95647e-320
-4.95844e-320
-4.95844e-320
-4.96042e-320
-4.96141e-320
-4.9624e-320
-4.96437e-320
-4.96536e-320
-4.96635e-320
-4.96832e-320
-4.96931e-320
-4.9703e-320
-4.97228e-320
-4.97228e-320
-4.97425e-320
-4.97623e-320
-4.97623e-320
-4.97821e-320
-4.97919e-320
-4.98018e-320
-4.98216e-320
-4.98315e-320
-4.98413e-320
-4.98611e-320
-4.9871e-320
-4.98809e-320
-4.99006e-320
-4.99006e-320
-4.99204e-320
-4.99303e-320
-4.99402e-320
-4.99599e-320
-4.99698e-320
-4.99797e-320
-4.99896e-320
-4.99994e-320
-5.00192e-320
-5.00291e-320
-5.0039e-320
-5.00587e-320
-5.00587e-320
-5.00785e-320
-5.00884e-320
-5.00983e-320
-5.0118e-320
-5.0118e-320
-5.01378e-320
-5.01378e-320
-5.01575e-320
-5.01674e-320
-5.01773e-320
-5.01872e-320
-5.01971e-320
-5.02168e-320
-5.02168e-320
-5.02366e-320
-5.02366e-320
-5.02564e-320
-5.02564e-320
-5.02761e-320
-5.02761e-320
-5.02959e-320
-5.02959e-320
-5.03156e-320
-5.03156e-320
-5.03255e-320
-5.03354e-320
-5.03453e-320
-5.03552e-320
-5.03552e-320
-5.03749e-320
-5.03749e-320
-5.03749e-320
-5.03947e-320
-5.03947e-320
-5.03947e-320
-5.04046e-320
-5.04145e-320
-5.04145e-320
-5.04145e-320
-5.04243e-320
-5.04342e-320
-5.04342e-320
-5.04342e-320
-5.04342e-320
-5.04441e-320
-3.65926e-312
-1.74605e-298
-1.71599e-283
-1.35574e-269
-3.94099e-256
-1.11216e-242
-8.98827e-229
-1.10202e-215
-2.88762e-203
-1.2104e-189
-2.4258e-177
-1.26053e-165
-4.5596e-154
-4.07951e-143
-2.71503e-133
-1.99232e-123
-1.84857e-114
-6.86236e-107
-1.39507e-98
-1.14981e-94
-1.03096e-91
-2.12462e-88
-1.41567e-84
-2.90551e-82
-2.20777e-80
-1.00113e-78
-3.23332e-77
-8.14156e-76
-1.62734e-74
-2.66734e-73
4.78848e-320
4.7875e-320
4.78651e-320
4.78651e-320
4.78552e-320
4.78453e-320
4.78453e-320
4.78354e-320
4.78256e-320
4.78256e-320
4.78256e-320
4.78058e-320
4.78058e-320
4.78058e-320
4.7786e-320
4.7786e-320
4.7786e-320
4.77663e-320
4.77663e-320
4.77663e-320
4.77465e-320
4.77465e-320
4.77465e-320
4.77366e-320
-4.77267e-320
-4.77267e-320
-4.77169e-320
-4.7707e-320
-4.7707e-320
-4.76971e-320
-4.76872e-320
-4.76872e-320
-4.76773e-320
-4.76675e-320
-4.76675e-320
-4.76576e-320
-4.76477e-320
-4.76477e-320
-4.76477e-320
-4.76279e-320
-4.76279e-320
-4.76279e-320
-4.7618e-320
-4.76082e-320
-4.76082e-320
-4.75983e-320
-4.75884e-320
-4.75884e-320
-4.75785e-320
-4.75686e-320
-4.75686e-320
-4.75686e-320
-4.75588e-320
-4.75489e-320
-4.75489e-320
-4.7539e-320
-4.75291e-320
-4.75291e-320
-4.75291e-320
-4.75094e-320
-4.75094e-320
-4.75094e-320
-4.74995e-320
-4.74896e-320
-4.74896e-320
-4.74896e-320
-4.74698e-320
-4.74698e-320
-4.74698e-320
-4.74599e-320
-4.74501e-320
-4.74501e-320
-4.74501e-320
-4.74402e-320
-4.74303e-320
-4.74303e-320
-4.74204e-320
-4.74105e-320
-4.74105e-320
-4.74105e-320
-4.74007e-320
-4.73908e-320
-4.73908e-320
-4.73908e-320
-4.73809e-320
-4.7371e-320
-4.7371e-320
-4.7371e-320
-4.73611e-320
-4.73513e-320
-4.73513e-320
-4.73414e-320
-4.73315e-320
-4.73315e-320
-4.73315e-320
-4.73216e-320
-4.73117e-320
-4.73117e-320
-4.73117e-320
-4.73018e-320
-4.7292e-320
-4.7292e-320
-4.7292e-320
-4.72821e-320
-4.72722e-320
-4.72722e-320
-4.72722e-320
-4.72623e-320
-4.72524e-320
-4.72524e-320
-4.72524e-320
-4.72426e-320
-4.72327e-320
-4.72327e-320
-4.72327e-320
-4.72327e-320
-4.72228e-320
-4.72129e-320
-4.72129e-320
-4.72129e-320
-4.7203e-320
-4.71932e-320
-4.71932e-320
-4.71932e-320
-4.71833e-320
-4.71734e-320
-4.71734e-320
-4.71734e-320
-4.71734e-320
-4.71635e-320
-4.71536e-320
-4.71536e-320
-4.71536e-320
-4.71437e-320
-4.71339e-320
-4.71339e-320
-4.71339e-320
-4.71339e-320
-4.7124e-320
-4.71141e-320
-4.71141e-320
-4.71141e-320
-4.71042e-320
-4.70943e-320
-4.70943e-320
-4.70943e-320
-4.70943e-320
-4.70845e-320
-4.70746e-320
-4.70746e-320
-4.70746e-320
-4.70746e-320
-4.70647e-320
-4.70548e-320
-4.70548e-320
-4.70548e-320
-4.70548e-320
-4.70449e-320
-4.7035e-320
-4.7035e-320
-4.7035e-320
-4.7035e-320
-4.70252e-320
-4.70153e-320
-4.70153e-320
-4.70153e-320
-4.70153e-320
-4.70054e-320
-4.70054e-320
-4.69955e-320
-4.69955e-320
-4.69955e-320
-4.69955e-320
-4.69856e-320
-4.69856e-320
-4.69758e-320
-4.69758e-320
-4.69758e-320
-4.69758e-320
-4.69659e-320
-4.69659e-320
-4.6956e-320
-4.6956e-320
-4.6956e-320
-4.6956e-320
-4.69461e-320
-4.69461e-320
-4.69362e-320
-4.69362e-320
-4.69362e-320
-4.69362e-320
-4.69362e-320
-4.69362e-320
-4.69264e-320
-4.69264e-320
-4.69165e-320
-4.69165e-320
-4.69165e-320
-4.69165e-320
-4.69165e-320
-4.69165e-320
-4.69165e-320
-4.69066e-320
-4.69066e-320
-4.69066e-320
-4.68967e-320
-4.68967e-320
-4.68967e-320
-4.68967e-320
-4.68967e-320
-4.68967e-320
-4.68967e-320
-4.68967e-320
-4.68967e-320
-4.68967e-320
-4.68967e-320
-4.68967e-320
-4.68967e-320
-4.68967e-320
-4.68967e-320
-1.05142e-312
-6.08556e-299
-7.28633e-284
-7.04312e-270
-2.51522e-256
-8.75432e-243
-8.75855e-229
-1.56251e-215
-2.99845e-203
-2.6798e-189
-8.60819e-177
-3.13185e-165
-7.94109e-154
-1.14115e-142
-8.16303e-133
-2.07504e-123
-6.17163e-114
-1.50426e-105
-2.46222e-97
-7.40898e-93
-9.58067e-90
-1.76537e-86
-5.9765e-83
-1.40012e-80
-1.14314e-78
-5.56071e-77
-1.91996e-75
-5.15615e-74
-1.06983e-72
-1.8185e-71
4.78848e-320
4.78848e-320
4.78848e-320
4.78848e-320
4.78848e-320
4.78848e-320
4.78848e-320
4.78848e-320
4.78848e-320
4.7875e-320
4.7875e-320
4.7875e-320
4.7875e-320
4.7875e-320
4.78651e-320
4.78651e-320
4.78651e-320
4.78651e-320
4.78651e-320
4.78651e-320
4.78651e-320
4.78651e-320
4.78651e-320
4.78651e-320
-4.78651e-320
-4.78651e-320
-4.78651e-320
-4.78651e-320
-4.78651e-320
-4.78651e-320
-4.78651e-320
-4.78651e-320
-4.78651e-320
-4.78552e-320
-4.78552e-320
-4.78552e-320
-4.78552e-320
-4.78552e-320
-4.78552e-320
-4.78552e-320
-4.78453e-320
-4.78453e-320
-4.78453e-320
-4.78453e-320
-4.78453e-320
-4.78453e-320
-4.78453e-320
-4.78453e-320
-4.78453e-320
-4.78453e-320
-4.78453e-320
-4.78453e-320
-4.78453e-320
-4.78453e-320
-4.78453e-320
-4.78453e-320
-4.78453e-320
-4.78453e-320
-4.78354e-320
-4.78354e-320
-4.78354e-320
-4.78354e-320
-4.78354e-320
-4.78354e-320
-4.78256e-320
-4.78256e-320
-4.78256e-320
-4.78256e-320
-4.78256e-320
-4.78256e-320
-4.78256e-320
-4.78256e-320
-4.78256e-320
-4.78256e-320
-4.78256e-320
-4.78256e-320
-4.78256e-320
-4.78256e-320
-4.78256e-320
-4.78256e-320
-4.78256e-320
-4.78157e-320
-4.78157e-320
-4.78157e-320
-4.78157e-320
-4.78157e-320
-4.78058e-320
-4.78058e-320
-4.78058e-320
-4.78058e-320
-4.78058e-320
-4.78058e-320
-4.78058e-320
-4.78058e-320
-4.78058e-320
-4.78058e-320
-4.78058e-320
-4.78058e-320
-4.78058e-320
-4.78058e-320
-4.78058e-320
-4.77959e-320
-4.77959e-320
-4.77959e-320
-4.77959e-320
-4.77959e-320
-4.7786e-320
-4.7786e-320
-4.7786e-320
-4.7786e-320
-4.7786e-320
-4.7786e-320
-4.7786e-320
-4.7786e-320
-4.7786e-320
-4.7786e-320
-4.7786e-320
-4.7786e-320
-4.7786e-320
-4.7786e-320
-4.77761e-320
-4.77761e-320
-4.77761e-320
-4.77761e-320
-4.77663e-320
-4.77663e-320
-4.77663e-320
-4.77663e-320
-4.77663e-320
-4.77663e-320
-4.77663e-320
-4.77663e-320
-4.77663e-320
-4.77663e-320
-4.77663e-320
-4.77663e-320
-4.77663e-320
-4.77564e-320
-4.77564e-320
-4.77564e-320
-4.77564e-320
-4.77465e-320
-4.77465e-320
-4.77465e-320
-4.77465e-320
-4.77465e-320
-4.77465e-320
-4.77465e-320
-4.77465e-320
-4.77465e-320
-4.77465e-320
-4.77465e-320
-4.77465e-320
-4.77366e-320
-4.77366e-320
-4.77366e-320
-4.77366e-320
-4.77267e-320
-4.77267e-320
-4.77267e-320
-4.77267e-320
-4.77267e-320
-4.77267e-320
-4.77267e-320
-4.77267e-320
-4.77267e-320
-4.77267e-320
-4.77267e-320
-4.77169e-320
-4.77169e-320
-4.77169e-320
-4.77169e-320
-4.7707e-320
-4.7707e-320
-4.7707e-320
-4.7707e-320
-4.7707e-320
-4.7707e-320
-4.7707e-320
-4.7707e-320
-4.7707e-320
-4.7707e-320
-4.7707e-320
-4.76971e-320
-4.76971e-320
-4.76971e-320
-4.76971e-320
-4.76872e-320
-4.76872e-320
-4.76872e-320
-4.76872e-320
-4.76872e-320
-4.76872e-320
-4.76872e-320
-4.76872e-320
-4.76872e-320
-4.76872e-320
-4.76773e-320
-4.76773e-320
-4.76773e-320
-4.76675e-320
-4.76675e-320
-4.76675e-320
-4.76675e-320
-4.76675e-320
-4.76675e-320
-4.76675e-320
-4.76675e-320
-4.76675e-320
-4.76675e-320
-4.76675e-320
-4.76576e-320
-4.76576e-320
-4.76576e-320
-4.76477e-320
-4.76477e-320
-4.76477e-320
-4.76477e-320
-4.76477e-320
-4.76477e-320
-3.61179e-310
-2.02756e-296
-2.35881e-281
-2.21956e-267
-7.73043e-254
-2.62895e-240
-2.57466e-226
-4.94109e-213
-9.71137e-201
-7.3852e-187
-2.62359e-174
-6.72946e-163
-2.01183e-151
-2.80618e-140
-2.16478e-130
-1.56543e-120
-2.99143e-111
-5.21353e-103
-8.1234e-95
-3.39489e-90
-5.12492e-87
-7.74293e-84
-1.98035e-80
-4.86037e-78
-3.95982e-76
-1.90543e-74
-6.4915e-73
-1.71652e-71
-3.48457e-70
-5.66631e-69
4.78848e-320
4.78848e-320
4.78848e-320
4.78848e-320
4.78848e-320
4.78848e-320
4.78848e-320
4.78848e-320
4.7875e-320
4.7875e-320
4.7875e-320
4.7875e-320
4.7875e-320
4.7875e-320
4.78651e-320
4.78651e-320
4.78651e-320
4.78651e-320
4.78651e-320
4.78651e-320
4.78651e-320
4.78651e-320
4.78651e-320
4.78651e-320
-4.78651e-320
-4.78651e-320
-4.78651e-320
-4.78651e-320
-4.78651e-320
-4.78651e-320
-4.78651e-320
-4.78651e-320
-4.78651e-320
-4.78651e-320
-4.78651e-320
-4.78651e-320
-4.78651e-320
-4.78651e-320
-4.78552e-320
-4.78552e-320
-4.78552e-320
-4.78552e-320
-4.78552e-320
-4.78552e-320
-4.78552e-320
-4.78552e-320
-4.78453e-320
-4.78453e-320
-4.78453e-320
-4.78453e-320
-4.78453e-320
-4.78453e-320
-4.78453e-320
-4.78453e-320
-4.78453e-320
-4.78453e-320
-4.78453e-320
-4.78453e-320
-4.78453e-320
-4.78453e-320
-4.78453e-320
-4.78453e-320
-4.78453e-320
-4.78453e-320
-4.78453e-320
-4.78453e-320
-4.78453e-320
-4.78453e-320
-4.78453e-320
-4.78453e-320
-4.78453e-320
-4.78354e-320
-4.78354e-320
-4.78354e-320
-4.78354e-320
-4.78354e-320
-4.78354e-320
-4.78354e-320
-4.78354e-320
-4.78354e-320
-4.78256e-320
-4.78256e-320
-4.78256e-320
-4.78256e-320
-4.78256e-320
-4.78256e-320
-4.78256e-320
-4.78256e-320
-4.78256e-320
-4.78256e-320
-4.78256e-320
-4.78256e-320
-4.78256e-320
-4.78256e-320
-4.78256e-320
-4.78256e-320
-4.78256e-320
-4.78256e-320
-4.78256e-320
-4.78256e-320
-4.78256e-320
-4.78256e-320
-4.78256e-320
-4.78256e-320
-4.78157e-320
-4.78157e-320
-4.78157e-320
-4.78157e-320
-4.78157e-320
-4.78157e-320
-4.78157e-320
-4.78058e-320
-4.78058e-320
-4.78058e-320
-4.78058e-320
-4.78058e-320
-4.78058e-320
-4.78058e-320
-4.78058e-320
-4.78058e-320
-4.78058e-320
-4.78058e-320
-4.78058e-320
-4.78058e-320
-4.78058e-320
-4.78058e-320
-4.78058e-320
-4.78058e-320
-4.78058e-320
-4.78058e-320
-4.78058e-320
-4.78058e-320
-4.78058e-320
-4.78058e-320
-4.77959e-320
-4.77959e-320
-4.77959e-320
-4.77959e-320
-4.77959e-320
-4.77959e-320
-4.77959e-320
-4.77959e-320
-4.7786e-320
-4.7786e-320
-4.7786e-320
-4.7786e-320
-4.7786e-320
-4.7786e-320
-4.7786e-320
-4.7786e-320
-4.7786e-320
-4.7786e-320
-4.7786e-320
-4.7786e-320
-4.7786e-320
-4.7786e-320
-4.7786e-320
-4.7786e-320
-4.7786e-320
-4.7786e-320
-4.7786e-320
-4.7786e-320
-4.7786e-320
-4.77761e-320
-4.77761e-320
-4.77761e-320
-4.77761e-320
-4.77761e-320
-4.77761e-320
-4.77761e-320
-4.77663e-320
-4.77663e-320
-4.77663e-320
-4.77663e-320
-4.77663e-320
-4.77663e-320
-4.77663e-320
-4.77663e-320
-4.77663e-320
-4.77663e-320
-4.77663e-320
-4.77663e-320
-4.77663e-320
-4.77663e-320
-4.77663e-320
-4.77663e-320
-4.77663e-320
-4.77663e-320
-4.77663e-320
-4.77564e-320
-4.77564e-320
-4.77564e-320
-4.77564e-320
-4.77564e-320
-4.77465e-320
-4.77465e-320
-4.77465e-320
-4.77465e-320
-4.77465e-320
-4.77465e-320
-4.77465e-320
-4.77465e-320
-4.77465e-320
-4.77465e-320
-4.77465e-320
-4.77465e-320
-4.77465e-320
-4.77465e-320
-4.77366e-320
-4.77366e-320
-4.77366e-320
-4.77366e-320
-4.77267e-320
-4.77267e-320
-4.77267e-320
-4.77267e-320
-4.77267e-320
-4.77267e-320
-4.77267e-320
-4.77267e-320
-2.74642e-308
-1.54669e-294
-1.80998e-279
-1.71776e-265
-6.05027e-252
-2.0864e-238
-2.07764e-224
-4.56333e-211
-9.86409e-199
-6.04182e-185
-2.56287e-172
-8.53132e-161
-3.38571e-149
-2.78326e-138
-3.4942e-128
-3.47954e-118
-6.22695e-109
-7.04412e-101
-1.13514e-92
-6.40888e-88
-1.0424e-84
-1.45288e-81
-2.86922e-78
-7.80473e-76
-6.47525e-74
-3.13114e-72
-1.06729e-70
-2.81679e-69
-5.63672e-68
-8.87627e-67
4.78848e-320
4.78848e-320
4.78848e-320
4.78848e-320
4.78848e-320
4.78848e-320
4.78848e-320
4.78848e-320
4.78848e-320
4.78848e-320
4.78848e-320
4.7875e-320
4.7875e-320
4.7875e-320
4.7875e-320
4.7875e-320
4.7875e-320
4.7875e-320
4.78651e-320
4.78651e-320
4.78651e-320
4.78651e-320
4.78651e-320
4.78651e-320
-4.78651e-320
-4.78651e-320
-4.78651e-320
-4.78651e-320
-4.78651e-320
-4.78651e-320
-4.78651e-320
-4.78651e-320
-4.78651e-320
-4.78651e-320
-4.78651e-320
-4.78651e-320
-4.78651e-320
-4.78651e-320
-4.78651e-320
-4.78651e-320
-4.78651e-320
-4.78552e-320
-4.78552e-320
-4.78552e-320
-4.78552e-320
-4.78552e-320
-4.78552e-320
-4.78552e-320
-4.78552e-320
-4.78453e-320
-4.78453e-320
-4.78453e-320
-4.78453e-320
-4.78453e-320
-4.78453e-320
-4.78453e-320
-4.78453e-320
-4.78453e-320
-4.78453e-320
-4.78453e-320
-4.78453e-320
-4.78453e-320
-4.78453e-320
-4.78453e-320
-4.78453e-320
-4.78453e-320
-4.78453e-320
-4.78453e-320
-4.78453e-320
-4.78453e-320
-4.78453e-320
-4.78453e-320
-4.78453e-320
-4.78354e-320
-4.78354e-320
-4.78354e-320
-4.78354e-320
-4.78354e-320
-4.78354e-320
-4.78354e-320
-4.78354e-320
-4.78256e-320
-4.78256e-320
-4.78256e-320
-4.78256e-320
-4.78256e-320
-4.78256e-320
-4.78256e-320
-4.78256e-320
-4.78256e-320
-4.78256e-320
-4.78256e-320
-4.78256e-320
-4.78256e-320
-4.78256e-320
-4.78256e-320
-4.78256e-320
-4.78256e-320
-4.78256e-320
-4.78256e-320
-4.78256e-320
-4.78256e-320
-4.78256e-320
-4.78256e-320
-4.78157e-320
-4.78157e-320
-4.78157e-320
-4.78157e-320
-4.78157e-320
-4.78157e-320
-4.78157e-320
-4.78157e-320
-4.78058e-320
-4.78058e-320
-4.78058e-320
-4.78058e-320
-4.78058e-320
-4.78058e-320
-4.78058e-320
-4.78058e-320
-4.78058e-320
-4.78058e-320
-4.78058e-320
-4.78058e-320
-4.78058e-320
-4.78058e-320
-4.78058e-320
-4.78058e-320
-4.78058e-320
-4.78058e-320
-4.78058e-320
-4.78058e-320
-4.78058e-320
-4.78058e-320
-4.77959e-320
-4.77959e-320
-4.77959e-320
-4.77959e-320
-4.77959e-320
-4.77959e-320
-4.77959e-320
-4.7786e-320
-4.7786e-320
-4.7786e-320
-4.7786e-320
-4.7786e-320
-4.7786e-320
-4.7786e-320
-4.7786e-320
-4.7786e-320
-4.7786e-320
-4.7786e-320
-4.7786e-320
-4.7786e-320
-4.7786e-320
-4.7786e-320
-4.7786e-320
-4.7786e-320
-4.7786e-320
-4.7786e-320
-4.7786e-320
-4.7786e-320
-4.77761e-320
-4.77761e-320
-4.77761e-320
-4.77761e-320
-4.77761e-320
-4.77761e-320
-4.77761e-320
-4.77663e-320
-4.77663e-320
-4.77663e-320
-4.77663e-320
-4.77663e-320
-4.77663e-320
-4.77663e-320
-4.77663e-320
-4.77663e-320
-4.77663e-320
-4.77663e-320
-4.77663e-320
-4.77663e-320
-4.77663e-320
-4.77663e-320
-4.77663e-320
-4.77663e-320
-4.77663e-320
-4.77564e-320
-4.77564e-320
-4.77564e-320
-4.77564e-320
-4.77564e-320
-4.77564e-320
-4.77465e-320
-4.77465e-320
-4.77465e-320
-4.77465e-320
-4.77465e-320
-4.77465e-320
-4.77465e-320
-4.77465e-320
-4.77465e-320
-4.77465e-320
-4.77465e-320
-4.77465e-320
-4.77465e-320
-4.77465e-320
-4.77465e-320
-4.77366e-320
-4.77366e-320
-4.77366e-320
-4.77267e-320
-4.77267e-320
-4.77267e-320
-4.77267e-320
-4.77267e-320
-4.77267e-320
-4.77267e-320
-4.77267e-320
-9.54337e-320
-1.35433e-306
-7.69113e-293
-9.09873e-278
-8.75177e-264
-3.13232e-250
-1.10054e-236
-1.11969e-222
-2.79793e-209
-6.80344e-197
-3.30908e-183
-1.74835e-170
-1.06873e-158
-3.26194e-147
-2.35659e-136
-4.41084e-126
-4.93238e-116
-7.06662e-107
-6.21716e-99
-1.09339e-90
-7.41861e-86
-1.34776e-82
-1.73387e-79
-2.82639e-76
-8.88423e-74
-7.53732e-72
-3.67133e-70
-1.25482e-68
-3.31289e-67
-6.52492e-66
-9.92325e-65
-4.78848e-320
-4.78848e-320
-4.78848e-320
-4.78848e-320
-4.78848e-320
-4.78848e-320
-4.78848e-320
-4.78848e-320
-4.78848e-320
-4.78848e-320
-4.7875e-320
-4.7875e-320
-4.7875e-320
-4.7875e-320
-4.7875e-320
-4.7875e-320
-4.7875e-320
-4.7875e-320
-4.78651e-320
4.78651e-320
4.78651e-320
4.78651e-320
4.78651e-320
4.78651e-320
-4.78651e-320
-4.78651e-320
-4.78651e-320
-4.78651e-320
-4.78651e-320
-4.78651e-320
-4.78651e-320
-4.78651e-320
-4.78651e-320
-4.78651e-320
-4.78651e-320
-4.78651e-320
-4.78651e-320
-4.78651e-320
-4.78651e-320
-4.78651e-320
-4.78651e-320
-4.78651e-320
-4.78552e-320
-4.78552e-320
-4.78552e-320
-4.78552e-320
-4.78552e-320
-4.78552e-320
-4.78552e-320
-4.78552e-320
-4.78552e-320
-4.78453e-320
-4.78453e-320
-4.78453e-320
-4.78453e-320
-4.78453e-320
-4.78453e-320
-4.78453e-320
-4.78453e-320
-4.78453e-320
-4.78453e-320
-4.78453e-320
-4.78453e-320
-4.78453e-320
-4.78453e-320
-4.78453e-320
-4.78453e-320
-4.78453e-320
-4.78453e-320
-4.78453e-320
-4.78453e-320
-4.78453e-320
-4.78453e-320
-4.78453e-320
-4.78453e-320
-4.78354e-320
-4.78354e-320
-4.78354e-320
-4.78354e-320
-4.78354e-320
-4.78354e-320
-4.78354e-320
-4.78354e-320
-4.78256e-320
-4.78256e-320
-4.78256e-320
-4.78256e-320
-4.78256e-320
-4.78256e-320
-4.78256e-320
-4.78256e-320
-4.78256e-320
-4.78256e-320
-4.78256e-320
-4.78256e-320
-4.78256e-320
-4.78256e-320
-4.78256e-320
-4.78256e-320
-4.78256e-320
-4.78256e-320
-4.78256e-320
-4.78256e-320
-4.78256e-320
-4.78256e-320
-4.78256e-320
-4.78157e-320
-4.78157e-320
-4.78157e-320
-4.78157e-320
-4.78157e-320
-4.78157e-320
-4.78157e-320
-4.78058e-320
-4.78058e-320
-4.78058e-320
-4.78058e-320
-4.78058e-320
-4.78058e-320
-4.78058e-320
-4.78058e-320
-4.78058e-320
-4.78058e-320
-4.78058e-320
-4.78058e-320
-4.78058e-320
-4.78058e-320
-4.78058e-320
-4.78058e-320
-4.78058e-320
-4.78058e-320
-4.78058e-320
-4.78058e-320
-4.78058e-320
-4.78058e-320
-4.77959e-320
-4.77959e-320
-4.77959e-320
-4.77959e-320
-4.77959e-320
-4.77959e-320
-4.77959e-320
-4.77959e-320
-4.7786e-320
-4.7786e-320
-4.7786e-320
-4.7786e-320
-4.7786e-320
-4.7786e-320
-4.7786e-320
-4.7786e-320
-4.7786e-320
-4.7786e-320
-4.7786e-320
-4.7786e-320
-4.7786e-320
-4.7786e-320
-4.7786e-320
-4.7786e-320
-4.7786e-320
-4.7786e-320
-4.7786e-320
-4.7786e-320
-4.7786e-320
-4.77761e-320
-4.77761e-320
-4.77761e-320
-4.77761e-320
-4.77761e-320
-4.77761e-320
-4.77663e-320
-4.77663e-320
-4.77663e-320
-4.77663e-320
-4.77663e-320
-4.77663e-320
-4.77663e-320
-4.77663e-320
-4.77663e-320
-4.77663e-320
-4.77663e-320
-4.77663e-320
-4.77663e-320
-4.77663e-320
-4.77663e-320
-4.77663e-320
-4.77663e-320
-4.77663e-320
-4.77663e-320
-4.77663e-320
-4.77564e-320
-4.77564e-320
-4.77564e-320
-4.77564e-320
-4.77564e-320
-4.77465e-320
-4.77465e-320
-4.77465e-320
-4.77465e-320
-4.77465e-320
-4.77465e-320
-4.77465e-320
-4.77465e-320
-4.77465e-320
-4.77465e-320
-4.77465e-320
-4.77465e-320
-4.77465e-320
-4.77465e-320
-4.77366e-320
-4.77366e-320
-4.77267e-320
-4.77267e-320
-4.77267e-320
-4.77267e-320
-4.77267e-320
-4.77267e-320
-4.77267e-320
-4.77267e-320
-2.38592e-318
-5.27349e-305
-3.02183e-291
-3.61625e-276
-3.52771e-262
-1.28391e-248
-4.5999e-235
-4.78597e-221
-1.33757e-207
-3.74941e-195
-1.4629e-181
-9.7956e-169
-7.91304e-157
-2.29829e-145
-1.7153e-134
-3.79273e-124
-4.30051e-114
-5.3739e-105
-4.07715e-97
-7.88399e-89
-5.89804e-84
-1.23874e-80
-1.47786e-77
-2.14583e-74
-8.06731e-72
-6.99205e-70
-3.42954e-68
-1.17596e-66
-3.10916e-65
-6.01511e-64
-8.80192e-63
-4.78848e-320
-4.78848e-320
-4.78848e-320
-4.78848e-320
-4.78848e-320
-4.78848e-320
-4.78848e-320
-4.78848e-320
-4.78848e-320
-4.78848e-320
-4.78848e-320
-4.78848e-320
-4.7875e-320
-4.7875e-320
-4.7875e-320
-4.7875e-320
-4.7875e-320
-4.7875e-320
-4.7875e-320
4.7875e-320
4.7875e-320
4.78651e-320
4.78651e-320
4.78651e-320
-4.78651e-320
-4.78651e-320
-4.78651e-320
-4.78651e-320
-4.78651e-320
-4.78651e-320
-4.78651e-320
-4.78651e-320
-4.78651e-320
-4.78651e-320
-4.78651e-320
-4.78651e-320
-4.78651e-320
-4.78651e-320
-4.78651e-320
-4.78651e-320
-4.78651e-320
-4.78651e-320
-4.78651e-320
-4.78651e-320
-4.78651e-320
-4.78552e-320
-4.78552e-320
-4.78552e-320
-4.78552e-320
-4.78552e-320
-4.78552e-320
-4.78552e-320
-4.78552e-320
-4.78453e-320
-4.78453e-320
-4.78453e-320
-4.78453e-320
-4.78453e-320
-4.78453e-320
-4.78453e-320
-4.78453e-320
-4.78453e-320
-4.78453e-320
-4.78453e-320
-4.78453e-320
-4.78453e-320
-4.78453e-320
-4.78453e-320
-4.78453e-320
-4.78453e-320
-4.78453e-320
-4.78453e-320
-4.78453e-320
-4.78453e-320
-4.78453e-320
-4.78453e-320
-4.78453e-320
-4.78354e-320
-4.78354e-320
-4.78354e-320
-4.78354e-320
-4.78354e-320
-4.78354e-320
-4.78354e-320
-4.78354e-320
-4.78256e-320
-4.78256e-320
-4.78256e-320
-4.78256e-320
-4.78256e-320
-4.78256e-320
-4.78256e-320
-4.78256e-320
-4.78256e-320
-4.78256e-320
-4.78256e-320
-4.78256e-320
-4.78256e-320
-4.78256e-320
-4.78256e-320
-4.78256e-320
-4.78256e-320
-4.78256e-320
-4.78256e-320
-4.78256e-320
-4.78256e-320
-4.78256e-320
-4.78256e-320
-4.78157e-320
-4.78157e-320
-4.78157e-320
-4.78157e-320
-4.78157e-320
-4.78157e-320
-4.78157e-320
-4.78058e-320
-4.78058e-320
-4.78058e-320
-4.78058e-320
-4.78058e-320
-4.78058e-320
-4.78058e-320
-4.78058e-320
-4.78058e-320
-4.78058e-320
-4.78058e-320
-4.78058e-320
-4.78058e-320
-4.78058e-320
-4.78058e-320
-4.78058e-320
-4.78058e-320
-4.78058e-320
-4.78058e-320
-4.78058e-320
-4.78058e-320
-4.78058e-320
-4.78058e-320
-4.77959e-320
-4.77959e-320
-4.77959e-320
-4.77959e-320
-4.77959e-320
-4.77959e-320
-4.77959e-320
-4.7786e-320
-4.7786e-320
-4.7786e-320
-4.7786e-320
-4.7786e-320
-4.7786e-320
-4.7786e-320
-4.7786e-320
-4.7786e-320
-4.7786e-320
-4.7786e-320
-4.7786e-320
-4.7786e-320
-4.7786e-320
-4.7786e-320
-4.7786e-320
-4.7786e-320
-4.7786e-320
-4.7786e-320
-4.7786e-320
-4.7786e-320
-4.77761e-320
-4.77761e-320
-4.77761e-320
-4.77761e-320
-4.77761e-320
-4.77761e-320
-4.77761e-320
-4.77663e-320
-4.77663e-320
-4.77663e-320
-4.77663e-320
-4.77663e-320
-4.77663e-320
-4.77663e-320
-4.77663e-320
-4.77663e-320
-4.77663e-320
-4.77663e-320
-4.77663e-320
-4.77663e-320
-4.77663e-320
-4.77663e-320
-4.77663e-320
-4.77663e-320
-4.77663e-320
-4.77663e-320
-4.77564e-320
-4.77564e-320
-4.77564e-320
-4.77564e-320
-4.77564e-320
-4.77564e-320
-4.77465e-320
-4.77465e-320
-4.77465e-320
-4.77465e-320
-4.77465e-320
-4.77465e-320
-4.77465e-320
-4.77465e-320
-4.77465e-320
-4.77465e-320
-4.77465e-320
-4.77366e-320
-4.77366e-320
-4.77366e-320
-4.77267e-320
-4.77267e-320
-4.77267e-320
-4.77267e-320
-4.77267e-320
-4.77267e-320
-4.77267e-320
-7.65884e-317
-1.70455e-303
-9.85899e-290
-1.19396e-274
-1.18182e-260
-4.37651e-247
-1.60008e-233
-1.70416e-219
-5.23078e-206
-1.76385e-193
-5.47824e-180
-4.52812e-167
-4.00113e-155
-1.21173e-143
-9.80059e-133
-2.38294e-122
-2.6179e-112
-2.99774e-103
-2.06222e-95
-4.27646e-87
-3.39453e-82
-8.43486e-79
-9.53911e-76
-1.35474e-72
-6.148e-70
-5.41748e-68
-2.67226e-66
-9.1931e-65
-2.43553e-63
-4.61059e-62
-6.45055e-61
-4.78848e-320
-4.78848e-320
-4.78848e-320
-4.78848e-320
-4.78848e-320
-4.78848e-320
-4.78848e-320
-4.78848e-320
-4.78848e-320
-4.78848e-320
-4.78848e-320
-4.78848e-320
-4.78848e-320
-4.7875e-320
-4.7875e-320
-4.7875e-320
-4.7875e-320
-4.7875e-320
-4.7875e-320
4.7875e-320
4.7875e-320
4.78651e-320
4.78651e-320
4.78651e-320
-4.78651e-320
-4.78651e-320
-4.78651e-320
-4.78651e-320
-4.78651e-320
-4.78651e-320
-4.78651e-320
-4.78651e-320
-4.78651e-320
-4.78651e-320
-4.78651e-320
-4.78651e-320
-4.78651e-320
-4.78651e-320
-4.78651e-320
-4.78651e-320
-4.78651e-320
-4.78651e-320
-4.78651e-320
-4.78651e-320
-4.78651e-320
-4.78651e-320
-4.78552e-320
-4.78552e-320
-4.78552e-320
-4.78552e-320
-4.78552e-320
-4.78552e-320
-4.78552e-320
-4.78552e-320
-4.78453e-320
-4.78453e-320
-4.78453e-320
-4.78453e-320
-4.78453e-320
-4.78453e-320
-4.78453e-320
-4.78453e-320
-4.78453e-320
-4.78453e-320
-4.78453e-320
-4.78453e-320
-4.78453e-320
-4.78453e-320
-4.78453e-320
-4.78453e-320
-4.78453e-320
-4.78453e-320
-4.78453e-320
-4.78453e-320
-4.78453e-320
-4.78453e-320
-4.78453e-320
-4.78453e-320
-4.78354e-320
-4.78354e-320
-4.78354e-320
-4.78354e-320
-4.78354e-320
-4.78354e-320
-4.78354e-320
-4.78354e-320
-4.78256e-320
-4.78256e-320
-4.78256e-320
-4.78256e-320
-4.78256e-320
-4.78256e-320
-4.78256e-320
-4.78256e-320
-4.78256e-320
-4.78256e-320
-4.78256e-320
-4.78256e-320
-4.78256e-320
-4.78256e-320
-4.78256e-320
-4.78256e-320
-4.78256e-320
-4.78256e-320
-4.78256e-320
-4.78256e-320
-4.78256e-320
-4.78256e-320
-4.78256e-320
-4.78157e-320
-4.78157e-320
-4.78157e-320
-4.78157e-320
-4.78157e-320
-4.78157e-320
-4.78157e-320
-4.78157e-320
-4.78058e-320
-4.78058e-320
-4.78058e-320
-4.78058e-320
-4.78058e-320
-4.78058e-320
-4.78058e-320
-4.78058e-320
-4.78058e-320
-4.78058e-320
-4.78058e-320
-4.78058e-320
-4.78058e-320
-4.78058e-320
-4.78058e-320
-4.78058e-320
-4.78058e-320
-4.78058e-320
-4.78058e-320
-4.78058e-320
-4.78058e-320
-4.78058e-320
-4.77959e-320
-4.77959e-320
-4.77959e-320
-4.77959e-320
-4.77959e-320
-4.77959e-320
-4.77959e-320
-4.7786e-320
-4.7786e-320
-4.7786e-320
-4.7786e-320
-4.7786e-320
-4.7786e-320
-4.7786e-320
-4.7786e-320
-4.7786e-320
-4.7786e-320
-4.7786e-320
-4.7786e-320
-4.7786e-320
-4.7786e-320
-4.7786e-320
-4.7786e-320
-4.7786e-320
-4.7786e-320
-4.7786e-320
-4.7786e-320
-4.7786e-320
-4.7786e-320
-4.77761e-320
-4.77761e-320
-4.77761e-320
-4.77761e-320
-4.77761e-320
-4.77761e-320
-4.77761e-320
-4.77663e-320
-4.77663e-320
-4.77663e-320
-4.77663e-320
-4.77663e-320
-4.77663e-320
-4.77663e-320
-4.77663e-320
-4.77663e-320
-4.77663e-320
-4.77663e-320
-4.77663e-320
-4.77663e-320
-4.77663e-320
-4.77663e-320
-4.77663e-320
-4.77663e-320
-4.77663e-320
-4.77663e-320
-4.77564e-320
-4.77564e-320
-4.77564e-320
-4.77564e-320
-4.77465e-320
-4.77465e-320
-4.77465e-320
-4.77465e-320
-4.77465e-320
-4.77465e-320
-4.77465e-320
-4.77465e-320
-4.77465e-320
-4.77465e-320
-4.77465e-320
-4.77366e-320
-4.77366e-320
-4.77366e-320
-4.77267e-320
-4.77267e-320
-4.77267e-320
-4.77267e-320
-4.77267e-320
-4.77267e-320
-4.77267e-320
-2.11798e-315
-4.74748e-302
-2.77218e-288
-3.39838e-273
-3.41457e-259
-1.28733e-245
-4.80654e-232
-5.24538e-218
-1.73803e-204
-7.46861e-192
-1.75487e-178
-1.69726e-165
-1.50383e-153
-4.77214e-142
-4.2232e-131
-1.12438e-120
-1.19344e-110
-1.2772e-101
-8.05652e-94
-1.72478e-85
-1.44738e-80
-4.37921e-77
-4.99964e-74
-7.79675e-71
-4.07434e-68
-3.6207e-66
-1.79282e-64
-6.18877e-63
-1.64436e-61
-3.03331e-60
-4.02955e-59
-4.78848e-320
-4.78848e-320
-4.78848e-320
-4.78848e-320
-4.78848e-320
-4.78848e-320
-4.78848e-320
-4.78848e-320
-4.78848e-320
-4.78848e-320
-4.78848e-320
-4.78848e-320
-4.78848e-320
-4.78848e-320
-4.7875e-320
-4.7875e-320
-4.7875e-320
-4.7875e-320
-4.7875e-320
4.7875e-320
4.7875e-320
4.7875e-320
4.7875e-320
4.78651e-320
-4.78651e-320
-4.78651e-320
-4.78651e-320
-4.78651e-320
-4.78651e-320
-4.78651e-320
-4.78651e-320
-4.78651e-320
-4.78651e-320
-4.78651e-320
-4.78651e-320
-4.78651e-320
-4.78651e-320
-4.78651e-320
-4.78651e-320
-4.78651e-320
-4.78651e-320
-4.78651e-320
-4.78651e-320
-4.78651e-320
-4.78651e-320
-4.78651e-320
-4.78651e-320
-4.78651e-320
-4.78552e-320
-4.78552e-320
-4.78552e-320
-4.78552e-320
-4.78552e-320
-4.78552e-320
-4.78552e-320
-4.78552e-320
-4.78552e-320
-4.78453e-320
-4.78453e-320
-4.78453e-320
-4.78453e-320
-4.78453e-320
-4.78453e-320
-4.78453e-320
-4.78453e-320
-4.78453e-320
-4.78453e-320
-4.78453e-320
-4.78453e-320
-4.78453e-320
-4.78453e-320
-4.78453e-320
-4.78453e-320
-4.78453e-320
-4.78453e-320
-4.78453e-320
-4.78453e-320
-4.78453e-320
-4.78453e-320
-4.78453e-320
-4.78354e-320
-4.78354e-320
-4.78354e-320
-4.78354e-320
-4.78354e-320
-4.78354e-320
-4.78354e-320
-4.78354e-320
-4.78256e-320
-4.78256e-320
-4.78256e-320
-4.78256e-320
-4.78256e-320
-4.78256e-320
-4.78256e-320
-4.78256e-320
-4.78256e-320
-4.78256e-320
-4.78256e-320
-4.78256e-320
-4.78256e-320
-4.78256e-320
-4.78256e-320
-4.78256e-320
-4.78256e-320
-4.78256e-320
-4.78256e-320
-4.78256e-320
-4.78256e-320
-4.78256e-320
-4.78256e-320
-4.78157e-320