/*--------------------------------*- C++ -*----------------------------------*\
| =========                 |                                                 |
| \\      /  F ield         | OpenFOAM: The Open Source CFD Toolbox           |
|  \\    /   O peration     | Version:  2406                                  |
|   \\  /    A nd           | Website:  www.openfoam.com                      |
|    \\/     M anipulation  |                                                 |
\*---------------------------------------------------------------------------*/
FoamFile
{
    version     2.0;
    format      ascii;
    arch        "LSB;label=32;scalar=64";
    class       volScalarField;
    location    "0.35";
    object      p_rgh;
}
// * * * * * * * * * * * * * * * * * * * * * * * * * * * * * * * * * * * * * //

dimensions      [1 -1 -2 0 0 0 0];

internalField   nonuniform List<scalar> 
6250
(
-88.1221
-3229.5
-961.841
599.446
525.383
51.5378
-102.295
-21.3663
54.0275
58.669
37.9779
28.503
30.7945
34.2847
34.7709
33.7636
33.0792
32.9655
32.9797
32.879
32.7001
32.5287
32.3858
32.254
32.12
31.9836
31.8482
31.7151
31.5838
31.4532
31.3233
31.194
31.0653
30.9372
30.8094
30.6819
30.5547
30.4277
30.3009
30.1741
30.0475
29.9209
29.7943
29.6677
29.5411
29.4144
29.2877
29.1609
29.0339
28.9069
28.7798
28.6525
28.5251
28.3976
28.2699
28.142
28.014
27.8859
27.7575
27.629
27.5004
27.3715
27.2425
27.1133
26.9839
26.8544
26.7246
26.5947
26.4646
26.3343
26.2038
26.0731
25.9423
25.8112
25.68
25.5486
25.417
25.2852
25.1532
25.021
24.8887
24.7561
24.6234
24.4905
24.3574
24.2241
24.0906
23.9569
23.8231
23.6891
23.5548
23.4204
23.2858
23.1511
23.0161
22.881
22.7456
22.6101
22.4744
22.3385
22.2025
22.0663
21.9298
21.7932
21.6565
21.5195
21.3823
21.245
21.1075
20.9699
20.832
20.694
20.5558
20.4174
20.2788
20.1401
20.0011
19.8621
19.7228
19.5833
19.4437
19.3039
19.164
19.0238
18.8835
18.7431
18.6024
18.4616
18.3206
18.1794
18.0381
17.8966
17.7549
17.6131
17.471
17.3289
17.1865
17.044
16.9013
16.7585
16.6154
16.4723
16.3289
16.1854
16.0417
15.8979
15.7539
15.6097
15.4654
15.3209
15.1762
15.0314
14.8864
14.7412
14.5959
14.4505
14.3048
14.159
14.0131
13.867
13.7207
13.5743
13.4277
13.281
13.1341
12.987
12.8398
12.6924
12.5449
12.3972
12.2494
12.1014
11.9532
11.8049
11.6564
11.5078
11.3591
11.2101
11.0611
10.9118
10.7625
10.613
10.4633
10.3134
10.1635
10.0133
9.86306
9.71262
9.56205
9.41132
9.26045
9.10943
8.95826
8.80695
8.65549
8.50388
8.35212
8.20022
8.04817
7.89598
7.74365
7.59118
7.43857
7.28581
7.13292
6.97988
6.8267
6.67338
6.51992
6.36633
6.2126
6.05874
5.90475
5.75064
5.59639
5.44201
5.2875
5.13286
4.97811
4.82324
4.66825
4.51317
4.35798
4.20269
4.04731
3.89184
3.73629
3.58067
3.425
3.26928
3.11355
2.95783
2.80214
2.64652
2.491
2.33564
2.1805
2.02567
1.87126
1.71742
1.56434
1.41228
1.26164
1.11268
0.966835
0.822313
0.689591
0.534614
0.463453
-0.0221278
-91.6925
-3236.22
-965.871
598.706
525.157
50.4858
-103.691
-22.4607
53.2915
58.0689
37.3945
27.9525
30.3119
33.8694
34.4043
33.4325
32.7796
32.6956
32.7366
32.6588
32.4998
32.3459
32.2187
32.101
31.9795
31.8542
31.7288
31.6048
31.4816
31.3584
31.2352
31.112
30.9889
30.8658
30.7426
30.6194
30.4962
30.3728
30.2493
30.1256
30.0018
29.8779
29.7538
29.6295
29.505
29.3803
29.2554
29.1304
29.0051
28.8796
28.7539
28.628
28.5019
28.3756
28.249
28.1223
27.9953
27.8681
27.7407
27.6131
27.4852
27.3572
27.2289
27.1004
26.9718
26.8428
26.7137
26.5844
26.4549
26.3251
26.1951
26.065
25.9346
25.804
25.6732
25.5422
25.411
25.2796
25.148
25.0162
24.8842
24.752
24.6196
24.4869
24.3541
24.2211
24.0879
23.9545
23.8209
23.6871
23.5532
23.419
23.2846
23.15
23.0153
22.8803
22.7452
22.6099
22.4744
22.3387
22.2028
22.0667
21.9304
21.794
21.6573
21.5205
21.3835
21.2463
21.109
20.9714
20.8337
20.6958
20.5577
20.4194
20.2809
20.1423
20.0035
19.8645
19.7253
19.586
19.4464
19.3067
19.1669
19.0268
18.8866
18.7462
18.6056
18.4648
18.3239
18.1828
18.0416
17.9001
17.7585
17.6167
17.4748
17.3326
17.1904
17.0479
16.9053
16.7625
16.6195
16.4764
16.3331
16.1896
16.046
15.9022
15.7582
15.6141
15.4698
15.3253
15.1807
15.0359
14.891
14.7459
14.6006
14.4552
14.3096
14.1638
14.0179
13.8718
13.7256
13.5792
13.4326
13.2859
13.139
12.992
12.8448
12.6975
12.55
12.4023
12.2545
12.1065
11.9584
11.8101
11.6617
11.5131
11.3643
11.2155
11.0664
10.9172
10.7678
10.6183
10.4687
10.3189
10.1689
10.0188
9.86854
9.71812
9.56756
9.41685
9.266
9.11499
8.96384
8.81254
8.66109
8.5095
8.35775
8.20586
8.05382
7.90165
7.74933
7.59686
7.44426
7.29151
7.13862
6.98559
6.83241
6.67909
6.52564
6.37204
6.21831
6.06445
5.91046
5.75633
5.60207
5.44767
5.29314
5.13848
4.9837
4.82879
4.67376
4.51861
4.36335
4.20799
4.05252
3.89693
3.74125
3.58546
3.42958
3.27361
3.11757
2.96146
2.8053
2.64909
2.49284
2.33655
2.1802
2.02379
1.8673
1.71067
1.55384
1.39667
1.23889
1.08008
0.919307
0.755767
0.585162
0.412851
0.208122
0.113339
-91.5201
-3235.47
-965.108
599.159
525.527
50.8933
-103.229
-21.9712
53.7779
58.5312
37.8276
28.3618
30.7019
34.2396
34.7527
33.7592
33.086
32.9834
33.007
32.9127
32.7383
32.57
32.4295
32.2994
32.1663
32.0303
31.8949
31.7616
31.6297
31.4985
31.3677
31.2375
31.1078
30.9785
30.8496
30.721
30.5926
30.4644
30.3364
30.2085
30.0808
29.9531
29.8254
29.6977
29.5701
29.4424
29.3146
29.1869
29.059
28.9311
28.8031
28.675
28.5468
28.4185
28.29
28.1614
28.0327
27.9039
27.7749
27.6457
27.5164
27.387
27.2574
27.1277
26.9977
26.8677
26.7374
26.607
26.4764
26.3457
26.2148
26.0837
25.9524
25.821
25.6894
25.5576
25.4256
25.2935
25.1612
25.0287
24.896
24.7631
24.6301
24.4969
24.3635
24.23
24.0962
23.9623
23.8282
23.694
23.5595
23.4249
23.2901
23.1551
23.0199
22.8846
22.7491
22.6134
22.4775
22.3414
22.2052
22.0688
21.9322
21.7954
21.6585
21.5214
21.3841
21.2466
21.109
20.9712
20.8332
20.695
20.5567
20.4182
20.2795
20.1406
20.0016
19.8624
19.723
19.5835
19.4438
19.3039
19.1638
19.0236
18.8832
18.7426
18.6018
18.4609
18.3198
18.1786
18.0372
17.8956
17.7538
17.6119
17.4698
17.3275
17.1851
17.0425
16.8998
16.7568
16.6138
16.4705
16.3271
16.1835
16.0398
15.8958
15.7518
15.6075
15.4631
15.3186
15.1738
15.029
14.8839
14.7387
14.5933
14.4478
14.3021
14.1563
14.0103
13.8641
13.7178
13.5713
13.4247
13.2779
13.1309
12.9838
12.8366
12.6891
12.5416
12.3938
12.2459
12.0979
11.9497
11.8014
11.6529
11.5042
11.3554
11.2064
11.0573
10.908
10.7586
10.6091
10.4593
10.3095
10.1595
10.0093
9.85896
9.70849
9.55788
9.40711
9.25621
9.10515
8.95394
8.80259
8.65109
8.49944
8.34764
8.1957
8.04362
7.89139
7.73902
7.58652
7.43386
7.28107
7.12813
6.97505
6.82182
6.66845
6.51495
6.36131
6.20754
6.05363
5.89958
5.7454
5.59109
5.43664
5.28205
5.12733
4.97249
4.81752
4.66243
4.50722
4.35189
4.19644
4.04087
3.88518
3.72938
3.57347
3.41744
3.26131
3.10508
2.94875
2.79232
2.63579
2.47916
2.32241
2.16552
2.00847
1.8512
1.69366
1.53574
1.37732
1.21821
1.0582
0.896801
0.734085
0.567923
0.403975
0.22344
0.109045
-92.0315
-3236.72
-966.389
598.123
524.712
50.1753
-103.941
-22.6844
53.0968
57.9006
37.2418
27.8098
30.1793
33.7465
34.2888
33.3224
32.6741
32.5944
32.6395
32.5654
32.4097
32.2588
32.1344
32.0193
31.9003
31.7773
31.6541
31.5322
31.4109
31.2896
31.1681
31.0466
30.925
30.8034
30.6817
30.5599
30.4379
30.3157
30.1934
30.0709
29.9481
29.8252
29.7021
29.5787
29.4551
29.3313
29.2072
29.083
28.9584
28.8337
28.7087
28.5835
28.458
28.3323
28.2064
28.0802
27.9538
27.8271
27.7003
27.5731
27.4458
27.3182
27.1904
27.0624
26.9341
26.8056
26.6769
26.548
26.4188
26.2894
26.1598
26.03
25.9
25.7697
25.6392
25.5086
25.3777
25.2466
25.1152
24.9837
24.852
24.72
24.5879
24.4555
24.323
24.1902
24.0572
23.9241
23.7907
23.6571
23.5234
23.3894
23.2552
23.1209
22.9863
22.8516
22.7166
22.5815
22.4461
22.3106
22.1749
22.039
21.9029
21.7666
21.6302
21.4935
21.3567
21.2196
21.0824
20.945
20.8074
20.6697
20.5317
20.3936
20.2552
20.1167
19.9781
19.8392
19.7002
19.5609
19.4216
19.282
19.1422
19.0023
18.8622
18.7219
18.5814
18.4408
18.3
18.159
18.0179
17.8765
17.735
17.5934
17.4515
17.3095
17.1673
17.025
16.8824
16.7397
16.5969
16.4538
16.3106
16.1673
16.0237
15.88
15.7362
15.5921
15.4479
15.3036
15.159
15.0143
14.8695
14.7245
14.5793
14.4339
14.2884
14.1428
13.9969
13.8509
13.7048
13.5585
13.412
13.2654
13.1186
12.9716
12.8245
12.6773
12.5299
12.3823
12.2345
12.0867
11.9386
11.7904
11.642
11.4935
11.3449
11.196
11.0471
10.8979
10.7487
10.5992
10.4496
10.2999
10.15
9.99997
9.84978
9.69944
9.54895
9.39831
9.24753
9.09659
8.94551
8.79427
8.64289
8.49136
8.33967
8.18785
8.03588
7.88377
7.73151
7.57911
7.42657
7.27388
7.12104
6.96806
6.81493
6.66166
6.50826
6.35472
6.20104
6.04722
5.89327
5.73917
5.58494
5.43056
5.27604
5.12139
4.96661
4.8117
4.65667
4.50151
4.34622
4.1908
4.03524
3.87955
3.72373
3.56778
3.4117
3.25549
3.09916
2.9427
2.7861
2.62935
2.47243
2.31531
2.15799
2.00041
1.84255
1.68435
1.52572
1.36657
1.20675
1.04615
0.884542
0.72206
0.557812
0.395078
0.225388
0.0890353
-92.2982
-3237.18
-966.669
598.036
524.725
50.2177
-103.884
-22.5976
53.2236
58.0624
37.4265
28.0085
30.3885
33.9646
34.5136
33.5511
32.9043
32.8246
32.8683
32.7919
32.6331
32.4784
32.3497
32.2299
32.106
31.978
31.8496
31.7224
31.5959
31.4694
31.3427
31.2161
31.0896
30.9631
30.8366
30.7101
30.5836
30.457
30.3304
30.2038
30.0771
29.9503
29.8234
29.6964
29.5694
29.4422
29.3149
29.1875
29.0599
28.9323
28.8045
28.6766
28.5485
28.4203
28.2919
28.1634
28.0347
27.9059
27.7769
27.6477
27.5184
27.389
27.2593
27.1295
26.9995
26.8694
26.7391
26.6086
26.478
26.3472
26.2162
26.085
25.9537
25.8222
25.6905
25.5586
25.4266
25.2943
25.162
25.0294
24.8966
24.7637
24.6306
24.4974
24.3639
24.2303
24.0965
23.9625
23.8283
23.694
23.5595
23.4248
23.2899
23.1549
23.0196
22.8842
22.7487
22.6129
22.477
22.3409
22.2046
22.0681
21.9315
21.7947
21.6577
21.5205
21.3832
21.2457
21.108
20.9702
20.8321
20.6939
20.5555
20.417
20.2783
20.1394
20.0003
19.8611
19.7216
19.5821
19.4423
19.3024
19.1623
19.022
18.8816
18.741
18.6002
18.4592
18.3181
18.1768
18.0354
17.8938
17.752
17.61
17.4679
17.3256
17.1832
17.0405
16.8977
16.7548
16.6117
16.4684
16.325
16.1813
16.0376
15.8936
15.7495
15.6053
15.4609
15.3163
15.1715
15.0266
14.8816
14.7363
14.5909
14.4454
14.2997
14.1538
14.0078
13.8616
13.7153
13.5688
13.4221
13.2753
13.1283
12.9812
12.8339
12.6865
12.5389
12.3911
12.2432
12.0952
11.947
11.7986
11.6501
11.5014
11.3526
11.2036
11.0545
10.9052
10.7558
10.6062
10.4564
10.3066
10.1565
10.0063
9.85599
9.7055
9.55487
9.4041
9.25317
9.1021
8.95088
8.79951
8.64798
8.49632
8.3445
8.19255
8.04045
7.88821
7.73582
7.58329
7.43062
7.2778
7.12483
6.97172
6.81847
6.66507
6.51154
6.35788
6.20407
6.05013
5.89604
5.74182
5.58745
5.43293
5.27828
5.12349
4.96857
4.81352
4.65834
4.50303
4.34758
4.19199
4.03626
3.88039
3.72436
3.5682
3.41189
3.25544
3.09886
2.94212
2.78523
2.62816
2.4709
2.31341
2.15566
1.99765
1.83932
1.68066
1.52163
1.36217
1.20221
1.04169
0.880473
0.718738
0.555628
0.394139
0.225708
0.0889085
-92.5275
-3237.65
-967.09
597.697
524.403
49.8775
-104.235
-22.9434
52.8883
57.7352
37.1048
27.6921
30.0784
33.6616
34.2179
33.2625
32.6227
32.55
32.6008
32.5314
32.3794
32.2315
32.1095
31.9962
31.8786
31.7568
31.6344
31.5131
31.3922
31.2712
31.1498
31.0283
30.9068
30.7851
30.6633
30.5413
30.4191
30.2967
30.1742
30.0515
29.9285
29.8054
29.682
29.5584
29.4347
29.3107
29.1864
29.062
28.9373
28.8124
28.6872
28.5619
28.4363
28.3105
28.1844
28.0582
27.9317
27.8049
27.678
27.5508
27.4234
27.2958
27.1679
27.0399
26.9116
26.7831
26.6543
26.5254
26.3962
26.2668
26.1372
26.0074
25.8774
25.7472
25.6167
25.4861
25.3552
25.2241
25.0928
24.9613
24.8296
24.6977
24.5656
24.4333
24.3008
24.168
24.0351
23.902
23.7687
23.6352
23.5015
23.3675
23.2334
23.0991
22.9646
22.8299
22.6951
22.56
22.4247
22.2893
22.1536
22.0178
21.8817
21.7455
21.6091
21.4725
21.3357
21.1988
21.0616
20.9243
20.7868
20.6491
20.5112
20.3731
20.2349
20.0964
19.9578
19.819
19.6801
19.5409
19.4016
19.2621
19.1224
18.9825
18.8425
18.7023
18.5619
18.4213
18.2806
18.1397
17.9986
17.8573
17.7159
17.5743
17.4325
17.2906
17.1484
17.0062
16.8637
16.7211
16.5783
16.4353
16.2922
16.1489
16.0054
15.8618
15.718
15.574
15.4299
15.2856
15.1411
14.9965
14.8517
14.7067
14.5616
14.4163
14.2709
14.1253
13.9795
13.8336
13.6875
13.5413
13.3949
13.2483
13.1016
12.9547
12.8076
12.6604
12.5131
12.3656
12.2179
12.0701
11.9221
11.7739
11.6256
11.4772
11.3286
11.1798
11.0309
10.8818
10.7326
10.5832
10.4337
10.284
10.1342
9.9842
9.83407
9.68378
9.53335
9.38277
9.23204
9.08115
8.93012
8.77894
8.6276
8.47612
8.32449
8.17272
8.0208
7.86874
7.71653
7.56418
7.41167
7.25902
7.10622
6.95328
6.80019
6.64696
6.49359
6.34009
6.18644
6.03264
5.8787
5.72462
5.57039
5.41601
5.26149
5.10683
4.95204
4.79711
4.64204
4.48684
4.33148
4.17598
4.02033
3.86452
3.70856
3.55245
3.39618
3.23976
3.08318
2.92643
2.76951
2.6124
2.45508
2.29754
2.13974
1.98167
1.8233
1.66461
1.50557
1.34616
1.18636
1.02617
0.865516
0.704654
0.542868
0.383252
0.217942
0.085218
-92.7073
-3238
-967.381
597.5
524.252
49.7427
-104.353
-23.0367
52.8233
57.6962
37.0882
27.6955
30.1002
33.7004
34.2717
33.3296
32.7014
32.6387
32.6981
32.6361
32.4904
32.3477
32.23
32.1201
32.0053
31.8855
31.7646
31.6443
31.524
31.4031
31.2816
31.1597
31.0375
30.9149
30.792
30.6687
30.5452
30.4213
30.2972
30.1729
30.0483
29.9234
29.7983
29.6729
29.5474
29.4216
29.2955
29.1693
29.0429
28.9162
28.7893
28.6623
28.535
28.4075
28.2798
28.152
28.0239
27.8956
27.7672
27.6385
27.5097
27.3806
27.2514
27.122
26.9923
26.8625
26.7326
26.6024
26.472
26.3415
26.2107
26.0798
25.9487
25.8174
25.6859
25.5542
25.4223
25.2903
25.158
25.0256
24.893
24.7602
24.6273
24.4941
24.3608
24.2273
24.0936
23.9597
23.8256
23.6913
23.5569
23.4223
23.2875
23.1525
23.0174
22.882
22.7465
22.6108
22.4749
22.3389
22.2026
22.0662
21.9296
21.7929
21.6559
21.5188
21.3815
21.244
21.1063
20.9685
20.8305
20.6923
20.554
20.4154
20.2767
20.1378
19.9988
19.8596
19.7202
19.5806
19.4408
19.3009
19.1608
19.0206
18.8801
18.7395
18.5987
18.4578
18.3167
18.1754
18.034
17.8923
17.7505
17.6086
17.4665
17.3242
17.1817
17.0391
16.8963
16.7534
16.6102
16.4669
16.3235
16.1799
16.0361
15.8922
15.7481
15.6038
15.4594
15.3148
15.17
15.0251
14.88
14.7348
14.5894
14.4438
14.2981
14.1523
14.0062
13.86
13.7137
13.5672
13.4205
13.2737
13.1267
12.9796
12.8323
12.6848
12.5372
12.3895
12.2415
12.0935
11.9452
11.7969
11.6483
11.4996
11.3508
11.2018
11.0527
10.9034
10.754
10.6044
10.4546
10.3047
10.1547
10.0045
9.85412
9.70363
9.55298
9.40219
9.25126
9.10017
8.94893
8.79754
8.646
8.49432
8.3425
8.19053
8.03842
7.88616
7.73376
7.58121
7.42851
7.27566
7.12267
6.96954
6.81626
6.66285
6.50929
6.3556
6.20176
6.04777
5.89364
5.73936
5.58493
5.43036
5.27564
5.12079
4.96581
4.81068
4.65541
4.49999
4.34443
4.1887
4.03282
3.87678
3.72059
3.56424
3.40773
3.25107
3.09424
2.93723
2.78004
2.62264
2.46503
2.3072
2.14915
1.99085
1.83229
1.67346
1.51432
1.35487
1.19508
1.03496
0.87443
0.713738
0.552024
0.392144
0.225206
0.0893071
-92.8479
-3238.28
-967.616
597.328
524.1
49.5832
-104.519
-23.2003
52.6663
57.5444
36.939
27.5478
29.9542
33.556
34.1289
33.1879
32.5607
32.4988
32.559
32.4977
32.3528
32.2107
32.0937
31.9846
31.8705
31.7515
31.6315
31.512
31.3927
31.2728
31.1523
31.0314
30.9103
30.7888
30.667
30.545
30.4226
30.3
30.1772
30.054
29.9307
29.8071
29.6832
29.5592
29.4348
29.3103
29.1855
29.0605
28.9353
28.8099
28.6843
28.5584
28.4323
28.306
28.1795
28.0527
27.9258
27.7986
27.6713
27.5437
27.4159
27.2879
27.1597
27.0313
26.9026
26.7738
26.6448
26.5155
26.3861
26.2564
26.1266
25.9965
25.8662
25.7358
25.6051
25.4743
25.3432
25.2119
25.0805
24.9488
24.817
24.6849
24.5527
24.4202
24.2876
24.1547
24.0217
23.8885
23.7551
23.6215
23.4877
23.3537
23.2195
23.0851
22.9506
22.8158
22.6809
22.5458
22.4104
22.2749
22.1393
22.0034
21.8673
21.7311
21.5947
21.458
21.3213
21.1843
21.0471
20.9098
20.7722
20.6345
20.4967
20.3586
20.2203
20.0819
19.9433
19.8045
19.6656
19.5264
19.3871
19.2476
19.108
18.9681
18.8281
18.6879
18.5475
18.407
18.2663
18.1254
17.9843
17.8431
17.7017
17.5601
17.4184
17.2765
17.1344
16.9921
16.8497
16.7071
16.5643
16.4214
16.2783
16.135
15.9916
15.848
15.7042
15.5603
15.4162
15.272
15.1275
14.9829
14.8382
14.6933
14.5482
14.403
14.2576
14.112
13.9663
13.8204
13.6743
13.5281
13.3818
13.2352
13.0886
12.9417
12.7947
12.6476
12.5002
12.3528
12.2051
12.0573
11.9094
11.7613
11.613
11.4646
11.3161
11.1673
11.0185
10.8694
10.7203
10.5709
10.4214
10.2718
10.122
9.97206
9.82197
9.67173
9.52134
9.37079
9.2201
9.06925
8.91825
8.7671
8.61581
8.46437
8.31278
8.16104
8.00916
7.85713
7.70496
7.55263
7.40015
7.24752
7.09475
6.94183
6.78877
6.63557
6.48223
6.32874
6.17511
6.02132
5.86738
5.71329
5.55906
5.40467
5.25015
5.09548
4.94067
4.78572
4.63062
4.47536
4.31995
4.16437
4.00863
3.85273
3.69667
3.54044
3.38406
3.22752
3.07082
2.91393
2.75685
2.59956
2.44206
2.28433
2.12637
1.9682
1.8098
1.65117
1.49232
1.33321
1.17385
1.01424
0.854326
0.694422
0.533911
0.375955
0.213074
0.0829449
-92.9567
-3238.49
-967.799
597.195
523.986
49.4682
-104.633
-23.3043
52.5758
57.4668
36.8726
27.492
29.9092
33.5219
34.1052
33.174
32.5559
32.5027
32.571
32.5172
32.3792
32.2436
32.1324
32.0287
31.9195
31.8049
31.6889
31.573
31.4568
31.3398
31.2219
31.1033
30.9841
30.8644
30.7442
30.6234
30.5022
30.3806
30.2585
30.1361
30.0133
29.8901
29.7665
29.6427
29.5185
29.3941
29.2693
29.1442
29.0189
28.8933
28.7675
28.6413
28.515
28.3884
28.2615
28.1344
28.0071
27.8795
27.7517
27.6237
27.4955
27.3671
27.2384
27.1095
26.9804
26.8511
26.7216
26.5918
26.4619
26.3317
26.2014
26.0708
25.9401
25.8091
25.6779
25.5466
25.415
25.2833
25.1513
25.0192
24.8868
24.7543
24.6215
24.4886
24.3555
24.2221
24.0886
23.9549
23.821
23.687
23.5527
23.4182
23.2836
23.1488
23.0137
22.8785
22.7431
22.6076
22.4718
22.3358
22.1997
22.0634
21.9269
21.7902
21.6534
21.5163
21.3791
21.2417
21.1041
20.9663
20.8284
20.6903
20.552
20.4135
20.2748
20.136
19.997
19.8578
19.7185
19.5789
19.4392
19.2993
19.1593
19.0191
18.8787
18.7381
18.5973
18.4564
18.3153
18.1741
18.0326
17.891
17.7493
17.6073
17.4652
17.323
17.1805
17.0379
16.8951
16.7522
16.6091
16.4658
16.3224
16.1788
16.035
15.8911
15.747
15.6027
15.4583
15.3137
15.1689
15.024
14.879
14.7337
14.5883
14.4428
14.2971
14.1512
14.0052
13.859
13.7126
13.5661
13.4194
13.2726
13.1256
12.9785
12.8312
12.6838
12.5361
12.3884
12.2405
12.0924
11.9442
11.7958
11.6472
11.4986
11.3497
11.2007
11.0516
10.9023
10.7528
10.6032
10.4535
10.3036
10.1535
10.0033
9.85297
9.70247
9.55182
9.40102
9.25007
9.09897
8.94772
8.79633
8.64479
8.4931
8.34127
8.18929
8.03717
7.88489
7.73247
7.5799
7.42718
7.27432
7.12132
6.96817
6.81488
6.66144
6.50786
6.35414
6.20027
6.04625
5.89207
5.73775
5.58328
5.42867
5.27391
5.11901
4.96397
4.80877
4.65343
4.49793
4.34228
4.18646
4.03047
3.87433
3.71802
3.56155
3.40492
3.24812
3.09116
2.93401
2.77669
2.61917
2.46145
2.30352
2.14537
1.98699
1.82841
1.66962
1.51062
1.35143
1.19204
1.03245
0.872562
0.712582
0.551582
0.392324
0.225747
0.0897815
-93.0375
-3238.65
-967.935
597.095
523.899
49.3793
-104.724
-23.3921
52.4942
57.3903
36.7994
27.4214
29.841
33.4561
34.0413
33.1116
32.4945
32.442
32.5108
32.4572
32.3192
32.1833
32.0717
31.9674
31.8576
31.7423
31.6255
31.5088
31.3918
31.2739
31.1551
31.0356
30.9156
30.795
30.674
30.5525
30.4305
30.3082
30.1854
30.0623
29.9389
29.8152
29.6911
29.5668
29.4422
29.3173
29.1922
29.0668
28.9412
28.8153
28.6892
28.5629
28.4363
28.3096
28.1826
28.0554
27.928
27.8004
27.6726
27.5446
27.4164
27.288
27.1594
27.0306
26.9016
26.7724
26.643
26.5134
26.3836
26.2536
26.1234
25.9931
25.8625
25.7318
25.6009
25.4697
25.3384
25.2069
25.0752
24.9434
24.8113
24.679
24.5466
24.414
24.2812
24.1482
24.015
23.8816
23.748
23.6143
23.4804
23.3462
23.2119
23.0775
22.9428
22.8079
22.6729
22.5377
22.4023
22.2667
22.1309
21.995
21.8589
21.7226
21.5861
21.4494
21.3126
21.1755
21.0383
20.9009
20.7634
20.6256
20.4877
20.3496
20.2113
20.0729
19.9343
19.7955
19.6565
19.5173
19.378
19.2385
19.0988
18.9589
18.8189
18.6787
18.5383
18.3978
18.2571
18.1162
17.9751
17.8339
17.6925
17.5509
17.4092
17.2673
17.1252
16.983
16.8405
16.698
16.5552
16.4123
16.2692
16.126
15.9825
15.839
15.6952
15.5513
15.4072
15.263
15.1186
14.974
14.8293
14.6844
14.5393
14.3941
14.2487
14.1032
13.9575
13.8116
13.6656
13.5194
13.373
13.2265
13.0799
12.933
12.7861
12.6389
12.4916
12.3442
12.1966
12.0488
11.9009
11.7528
11.6046
11.4562
11.3077
11.159
11.0101
10.8611
10.712
10.5626
10.4132
10.2636
10.1138
9.96389
9.81382
9.6636
9.51323
9.36271
9.21203
9.06121
8.91023
8.75911
8.60784
8.45643
8.30486
8.15315
8.00129
7.84927
7.69711
7.5448
7.39234
7.23973
7.08698
6.93408
6.78104
6.62785
6.47452
6.32103
6.1674
6.01361
5.85967
5.70558
5.55134
5.39696
5.24243
5.08775
4.93292
4.77794
4.6228
4.46751
4.31205
4.15643
4.00064
3.8447
3.68859
3.53232
3.37588
3.21927
3.06248
2.90551
2.74835
2.59101
2.43348
2.27576
2.11785
1.95974
1.80143
1.64292
1.4842
1.32529
1.1662
1.00699
0.847622
0.68842
0.528774
0.371825
0.210283
0.0816081
-93.0933
-3238.77
-968.031
597.025
523.839
49.3175
-104.788
-23.4531
52.4387
57.3402
36.7535
27.3795
29.8034
33.423
34.0128
33.0875
32.4748
32.4265
32.4995
32.45
32.3159
32.1838
32.0759
31.9752
31.8687
31.7567
31.643
31.5293
31.4151
31.3
31.1838
31.0668
30.9491
30.8308
30.7119
30.5925
30.4725
30.352
30.231
30.1096
29.9877
29.8655
29.7429
29.6199
29.4966
29.3729
29.2489
29.1246
29
28.8751
28.75
28.6245
28.4987
28.3727
28.2465
28.1199
27.9931
27.8661
27.7388
27.6113
27.4835
27.3555
27.2273
27.0988
26.9701
26.8412
26.712
26.5827
26.4531
26.3233
26.1932
26.063
25.9325
25.8018
25.671
25.5399
25.4086
25.277
25.1453
25.0134
24.8813
24.7489
24.6164
24.4836
24.3507
24.2176
24.0842
23.9507
23.817
23.683
23.5489
23.4146
23.2801
23.1454
23.0105
22.8754
22.7401
22.6046
22.469
22.3331
22.1971
22.0609
21.9244
21.7878
21.6511
21.5141
21.3769
21.2396
21.1021
20.9644
20.8265
20.6885
20.5502
20.4118
20.2732
20.1344
19.9954
19.8563
19.717
19.5775
19.4378
19.298
19.158
19.0178
18.8774
18.7369
18.5962
18.4553
18.3142
18.173
18.0316
17.89
17.7483
17.6063
17.4643
17.322
17.1796
17.037
16.8942
16.7513
16.6082
16.465
16.3215
16.1779
16.0342
15.8903
15.7462
15.6019
15.4575
15.3129
15.1682
15.0233
14.8782
14.733
14.5876
14.4421
14.2964
14.1505
14.0045
13.8583
13.7119
13.5654
13.4188
13.2719
13.125
12.9778
12.8305
12.6831
12.5355
12.3877
12.2398
12.0917
11.9435
11.7951
11.6466
11.4979
11.349
11.2001
11.0509
10.9016
10.7522
10.6026
10.4528
10.3029
10.1528
10.0026
9.85229
9.70178
9.55113
9.40032
9.24937
9.09826
8.94701
8.79562
8.64408
8.49239
8.34055
8.18857
8.03643
7.88415
7.73172
7.57914
7.42641
7.27354
7.12053
6.96737
6.81407
6.66062
6.50703
6.35328
6.19939
6.04534
5.89115
5.7368
5.58231
5.42768
5.27289
5.11796
4.96288
4.80765
4.65225
4.4967
4.34099
4.18511
4.02907
3.87287
3.71652
3.56
3.40332
3.24647
3.08944
2.93222
2.77482
2.61722
2.45945
2.3015
2.14337
1.98508
1.82661
1.66797
1.50914
1.35012
1.1909
1.0315
0.871848
0.712165
0.551526
0.392646
0.226287
0.0901802
-93.1258
-3238.83
-968.088
596.983
523.804
49.2815
-104.826
-23.49
52.405
57.3093
36.7245
27.3518
29.7771
33.3983
33.9894
33.0651
32.4532
32.4055
32.4788
32.4295
32.2953
32.163
32.0547
31.9534
31.8462
31.7333
31.6186
31.5039
31.3885
31.2721
31.1547
31.0363
30.9172
30.7975
30.6771
30.5562
30.4347
30.3127
30.1902
30.0673
29.944
29.8204
29.6963
29.572
29.4473
29.3223
29.197
29.0715
28.9457
28.8196
28.6933
28.5668
28.44
28.313
28.1858
28.0584
27.9308
27.8029
27.6749
27.5466
27.4182
27.2895
27.1607
27.0316
26.9024
26.773
26.6434
26.5136
26.3836
26.2534
26.1231
25.9925
25.8618
25.7309
25.5998
25.4685
25.3371
25.2054
25.0736
24.9416
24.8094
24.677
24.5444
24.4117
24.2788
24.1457
24.0124
23.8789
23.7452
23.6114
23.4774
23.3432
23.2088
23.0743
22.9395
22.8046
22.6695
22.5342
22.3988
22.2631
22.1273
21.9913
21.8551
21.7188
21.5822
21.4455
21.3086
21.1716
21.0343
20.8969
20.7593
20.6216
20.4836
20.3455
20.2072
20.0687
19.9301
19.7912
19.6522
19.5131
19.3737
19.2342
19.0945
18.9546
18.8146
18.6744
18.534
18.3935
18.2527
18.1118
17.9708
17.8295
17.6881
17.5466
17.4048
17.2629
17.1208
16.9786
16.8362
16.6936
16.5508
16.4079
16.2648
16.1216
15.9782
15.8346
15.6908
15.5469
15.4028
15.2586
15.1142
14.9696
14.8249
14.68
14.535
14.3898
14.2444
14.0989
13.9532
13.8073
13.6613
13.5151
13.3688
13.2223
13.0756
12.9288
12.7818
12.6347
12.4874
12.34
12.1924
12.0446
11.8967
11.7487
11.6004
11.4521
11.3035
11.1548
11.006
10.857
10.7079
10.5586
10.4091
10.2595
10.1098
9.95986
9.8098
9.65959
9.50922
9.35871
9.20805
9.05723
8.90627
8.75516
8.60391
8.4525
8.30094
8.14924
7.99738
7.84537
7.69321
7.54091
7.38846
7.23586
7.08312
6.93023
6.77719
6.62401
6.47067
6.31718
6.16355
6.00976
5.85582
5.70173
5.5475
5.39311
5.23858
5.08389
4.92904
4.77404
4.61888
4.46357
4.30809
4.15245
3.99665
3.84069
3.68456
3.52826
3.3718
3.21516
3.05835
2.90136
2.74419
2.58684
2.4293
2.27158
2.11367
1.95559
1.79735
1.63894
1.48039
1.32168
1.16282
1.00384
0.84472
0.68577
0.526432
0.369897
0.209004
0.0810169
-93.1364
-3238.85
-968.107
596.969
523.793
49.2698
-104.838
-23.5024
52.3937
57.2991
36.7151
27.343
29.7691
33.3911
33.9832
33.0599
32.4489
32.4023
32.4769
32.4287
32.2959
32.1649
32.0581
31.9583
31.8527
31.7414
31.6284
31.5153
31.4018
31.2872
31.1715
31.0549
30.9377
30.8199
30.7014
30.5823
30.4626
30.3424
30.2218
30.1007
29.9792
29.8572
29.7349
29.6122
29.4891
29.3657
29.242
29.1179
28.9935
28.8688
28.7439
28.6186
28.4931
28.3673
28.2412
28.1148
27.9882
27.8613
27.7342
27.6069
27.4792
27.3514
27.2233
27.095
26.9664
26.8376
26.7086
26.5793
26.4499
26.3202
26.1902
26.0601
25.9297
25.7991
25.6684
25.5373
25.4061
25.2747
25.143
25.0112
24.8791
24.7469
24.6144
24.4817
24.3489
24.2158
24.0825
23.949
23.8153
23.6815
23.5474
23.4131
23.2786
23.144
23.0091
22.8741
22.7388
22.6034
22.4678
22.332
22.196
22.0598
21.9234
21.7868
21.6501
21.5131
21.376
21.2387
21.1012
20.9635
20.8257
20.6876
20.5494
20.411
20.2724
20.1337
19.9947
19.8556
19.7163
19.5768
19.4372
19.2974
19.1574
19.0172
18.8768
18.7363
18.5956
18.4547
18.3137
18.1724
18.0311
17.8895
17.7477
17.6058
17.4638
17.3215
17.1791
17.0365
16.8938
16.7509
16.6078
16.4645
16.3211
16.1775
16.0338
15.8898
15.7458
15.6015
15.4571
15.3125
15.1678
15.0229
14.8778
14.7326
14.5872
14.4417
14.296
14.1501
14.0041
13.8579
13.7116
13.5651
13.4184
13.2716
13.1246
12.9775
12.8302
12.6827
12.5351
12.3874
12.2395
12.0914
11.9432
11.7948
11.6463
11.4976
11.3487
11.1997
11.0506
10.9013
10.7518
10.6022
10.4525
10.3026
10.1525
10.0023
9.85197
9.70147
9.55081
9.4
9.24905
9.09795
8.9467
8.79531
8.64377
8.49208
8.34024
8.18824
8.03611
7.88382
7.73139
7.57881
7.42609
7.27322
7.12021
6.96705
6.81374
6.66028
6.50668
6.35292
6.19902
6.04497
5.89078
5.73644
5.58195
5.42731
5.27251
5.11756
4.96246
4.8072
4.65178
4.49621
4.34049
4.18461
4.02857
3.87237
3.716
3.55946
3.40274
3.24585
3.08878
2.93155
2.77414
2.61656
2.45882
2.30089
2.14279
1.9845
1.82602
1.66736
1.50854
1.34956
1.19043
1.03117
0.871673
0.712123
0.551553
0.392654
0.226228
0.0901313
-93.1258
-3238.83
-968.088
596.983
523.804
49.2815
-104.826
-23.49
52.405
57.3093
36.7245
27.3518
29.7771
33.3983
33.9894
33.0651
32.4532
32.4055
32.4788
32.4295
32.2953
32.163
32.0547
31.9534
31.8462
31.7333
31.6186
31.5039
31.3885
31.2721
31.1547
31.0363
30.9172
30.7975
30.6771
30.5562
30.4347
30.3127
30.1902
30.0673
29.944
29.8204
29.6963
29.572
29.4473
29.3223
29.197
29.0715
28.9457
28.8196
28.6933
28.5668
28.44
28.313
28.1858
28.0584
27.9308
27.8029
27.6749
27.5466
27.4182
27.2895
27.1607
27.0316
26.9024
26.773
26.6434
26.5136
26.3836
26.2534
26.1231
25.9925
25.8618
25.7309
25.5998
25.4685
25.3371
25.2054
25.0736
24.9416
24.8094
24.677
24.5444
24.4117
24.2788
24.1457
24.0124
23.8789
23.7452
23.6114
23.4774
23.3432
23.2088
23.0743
22.9395
22.8046
22.6695
22.5342
22.3988
22.2631
22.1273
21.9913
21.8551
21.7188
21.5822
21.4455
21.3086
21.1716
21.0343
20.8969
20.7593
20.6216
20.4836
20.3455
20.2072
20.0687
19.9301
19.7912
19.6522
19.5131
19.3737
19.2342
19.0945
18.9546
18.8146
18.6744
18.534
18.3935
18.2527
18.1118
17.9708
17.8295
17.6881
17.5466
17.4048
17.2629
17.1208
16.9786
16.8362
16.6936
16.5508
16.4079
16.2648
16.1216
15.9782
15.8346
15.6908
15.5469
15.4028
15.2586
15.1142
14.9697
14.8249
14.68
14.535
14.3898
14.2444
14.0989
13.9532
13.8073
13.6613
13.5151
13.3688
13.2223
13.0756
12.9288
12.7818
12.6347
12.4874
12.34
12.1924
12.0446
11.8967
11.7487
11.6004
11.4521
11.3035
11.1548
11.006
10.857
10.7079
10.5586
10.4091
10.2595
10.1098
9.95986
9.8098
9.65958
9.50922
9.35871
9.20805
9.05724
8.90628
8.75517
8.60391
8.4525
8.30094
8.14923
7.99737
7.84536
7.69321
7.54091
7.38847
7.23587
7.08313
6.93024
6.7772
6.624
6.47066
6.31717
6.16353
6.00975
5.85582
5.70174
5.54751
5.39313
5.23859
5.08389
4.92904
4.77403
4.61886
4.46354
4.30807
4.15244
3.99666
3.84071
3.68459
3.5283
3.37182
3.21517
3.05833
2.90132
2.74414
2.58678
2.42926
2.27158
2.11372
1.95568
1.79745
1.63903
1.48042
1.32164
1.16271
1.00369
0.844568
0.685673
0.526424
0.369969
0.209093
0.0810679
-93.0933
-3238.77
-968.031
597.025
523.839
49.3175
-104.788
-23.4531
52.4387
57.3402
36.7535
27.3795
29.8034
33.423
34.0128
33.0875
32.4748
32.4265
32.4995
32.45
32.3159
32.1838
32.0759
31.9752
31.8687
31.7567
31.643
31.5293
31.4151
31.3
31.1838
31.0668
30.9491
30.8308
30.7119
30.5925
30.4725
30.352
30.231
30.1096
29.9877
29.8655
29.7429
29.6199
29.4966
29.3729
29.2489
29.1246
29
28.8751
28.75
28.6245
28.4987
28.3727
28.2465
28.1199
27.9931
27.8661
27.7388
27.6113
27.4835
27.3555
27.2273
27.0988
26.9701
26.8412
26.712
26.5827
26.4531
26.3233
26.1932
26.063
25.9325
25.8018
25.671
25.5399
25.4086
25.277
25.1453
25.0134
24.8813
24.7489
24.6164
24.4836
24.3507
24.2176
24.0842
23.9507
23.817
23.683
23.5489
23.4146
23.2801
23.1454
23.0105
22.8754
22.7401
22.6046
22.469
22.3331
22.1971
22.0608
21.9244
21.7878
21.6511
21.5141
21.3769
21.2396
21.1021
20.9644
20.8265
20.6885
20.5502
20.4118
20.2732
20.1344
19.9954
19.8563
19.717
19.5775
19.4378
19.298
19.158
19.0178
18.8774
18.7369
18.5962
18.4553
18.3142
18.173
18.0316
17.89
17.7483
17.6063
17.4643
17.322
17.1796
17.037
16.8942
16.7513
16.6082
16.465
16.3215
16.1779
16.0342
15.8903
15.7462
15.6019
15.4575
15.3129
15.1682
15.0233
14.8782
14.733
14.5876
14.4421
14.2963
14.1505
14.0045
13.8583
13.7119
13.5654
13.4188
13.2719
13.1249
12.9778
12.8305
12.6831
12.5355