/*--------------------------------*- C++ -*----------------------------------*\
| =========                 |                                                 |
| \\      /  F ield         | OpenFOAM: The Open Source CFD Toolbox           |
|  \\    /   O peration     | Version:  2406                                  |
|   \\  /    A nd           | Website:  www.openfoam.com                      |
|    \\/     M anipulation  |                                                 |
\*---------------------------------------------------------------------------*/
FoamFile
{
    version     2.0;
    format      ascii;
    arch        "LSB;label=32;scalar=64";
    class       volVectorField;
    location    "0.35";
    object      U;
}
// * * * * * * * * * * * * * * * * * * * * * * * * * * * * * * * * * * * * * //

dimensions      [0 1 -1 0 0 0 0];

internalField   nonuniform List<vector> 
6250
(
(51.2302 0.00688513 0)
(85.5882 0.0314054 0)
(72.717 0.0458012 0)
(60.0608 0.0495178 0)
(59.5161 0.0507625 0)
(63.0226 0.0540313 0)
(64.463 0.0584939 0)
(63.9454 0.0622633 0)
(63.2981 0.0649066 0)
(63.177 0.0669783 0)
(63.2941 0.0689061 0)
(63.3463 0.07072 0)
(63.3029 0.072326 0)
(63.2419 0.0737068 0)
(63.2021 0.0749116 0)
(63.1753 0.0759863 0)
(63.1472 0.0769513 0)
(63.1144 0.0778146 0)
(63.0802 0.078586 0)
(63.0467 0.0792773 0)
(63.0137 0.0798994 0)
(62.9807 0.0804606 0)
(62.9475 0.0809677 0)
(62.9141 0.0814264 0)
(62.8806 0.0818421 0)
(62.8472 0.0822193 0)
(62.8137 0.0825619 0)
(62.7802 0.0828736 0)
(62.7466 0.0831572 0)
(62.7131 0.0834156 0)
(62.6795 0.083651 0)
(62.6459 0.0838655 0)
(62.6123 0.084061 0)
(62.5787 0.0842392 0)
(62.545 0.0844015 0)
(62.5114 0.0845492 0)
(62.4778 0.0846835 0)
(62.4441 0.0848056 0)
(62.4105 0.0849162 0)
(62.3769 0.0850164 0)
(62.3432 0.0851068 0)
(62.3096 0.0851882 0)
(62.276 0.0852612 0)
(62.2423 0.0853264 0)
(62.2087 0.0853843 0)
(62.1751 0.0854354 0)
(62.1415 0.0854802 0)
(62.1079 0.085519 0)
(62.0743 0.0855523 0)
(62.0407 0.0855803 0)
(62.0071 0.0856034 0)
(61.9735 0.0856219 0)
(61.9399 0.085636 0)
(61.9063 0.0856459 0)
(61.8728 0.085652 0)
(61.8392 0.0856544 0)
(61.8057 0.0856533 0)
(61.7721 0.085649 0)
(61.7386 0.0856415 0)
(61.7051 0.085631 0)
(61.6715 0.0856177 0)
(61.638 0.0856017 0)
(61.6045 0.0855831 0)
(61.571 0.0855622 0)
(61.5376 0.0855389 0)
(61.5041 0.0855134 0)
(61.4706 0.0854858 0)
(61.4371 0.0854561 0)
(61.4037 0.0854246 0)
(61.3703 0.0853912 0)
(61.3368 0.085356 0)
(61.3034 0.0853192 0)
(61.27 0.0852807 0)
(61.2366 0.0852407 0)
(61.2032 0.0851992 0)
(61.1698 0.0851563 0)
(61.1364 0.085112 0)
(61.103 0.0850664 0)
(61.0697 0.0850195 0)
(61.0363 0.0849714 0)
(61.003 0.0849222 0)
(60.9696 0.0848718 0)
(60.9363 0.0848204 0)
(60.903 0.0847679 0)
(60.8697 0.0847145 0)
(60.8363 0.0846601 0)
(60.8031 0.0846047 0)
(60.7698 0.0845485 0)
(60.7365 0.0844914 0)
(60.7032 0.0844335 0)
(60.67 0.0843748 0)
(60.6367 0.0843153 0)
(60.6035 0.0842551 0)
(60.5702 0.0841942 0)
(60.537 0.0841326 0)
(60.5038 0.0840703 0)
(60.4706 0.0840073 0)
(60.4374 0.0839438 0)
(60.4042 0.0838797 0)
(60.371 0.0838149 0)
(60.3379 0.0837497 0)
(60.3047 0.0836839 0)
(60.2715 0.0836175 0)
(60.2384 0.0835507 0)
(60.2053 0.0834833 0)
(60.1721 0.0834155 0)
(60.139 0.0833473 0)
(60.1059 0.0832786 0)
(60.0728 0.0832095 0)
(60.0397 0.0831399 0)
(60.0066 0.08307 0)
(59.9736 0.0829997 0)
(59.9405 0.082929 0)
(59.9074 0.0828579 0)
(59.8744 0.0827865 0)
(59.8414 0.0827148 0)
(59.8083 0.0826427 0)
(59.7753 0.0825703 0)
(59.7423 0.0824976 0)
(59.7093 0.0824246 0)
(59.6763 0.0823513 0)
(59.6433 0.0822777 0)
(59.6103 0.0822038 0)
(59.5774 0.0821297 0)
(59.5444 0.0820553 0)
(59.5115 0.0819807 0)
(59.4785 0.0819058 0)
(59.4456 0.0818307 0)
(59.4127 0.0817554 0)
(59.3798 0.0816799 0)
(59.3469 0.0816041 0)
(59.314 0.0815281 0)
(59.2811 0.0814519 0)
(59.2482 0.0813756 0)
(59.2154 0.081299 0)
(59.1825 0.0812222 0)
(59.1496 0.0811453 0)
(59.1168 0.0810682 0)
(59.084 0.0809909 0)
(59.0512 0.0809135 0)
(59.0183 0.0808359 0)
(58.9855 0.0807581 0)
(58.9527 0.0806802 0)
(58.92 0.0806022 0)
(58.8872 0.080524 0)
(58.8544 0.0804456 0)
(58.8217 0.0803671 0)
(58.7889 0.0802885 0)
(58.7562 0.0802098 0)
(58.7234 0.0801309 0)
(58.6907 0.0800519 0)
(58.658 0.0799728 0)
(58.6253 0.0798936 0)
(58.5926 0.0798143 0)
(58.5599 0.0797349 0)
(58.5272 0.0796553 0)
(58.4946 0.0795757 0)
(58.4619 0.0794959 0)
(58.4293 0.0794161 0)
(58.3966 0.0793362 0)
(58.364 0.0792561 0)
(58.3314 0.079176 0)
(58.2988 0.0790958 0)
(58.2662 0.0790155 0)
(58.2336 0.0789351 0)
(58.201 0.0788547 0)
(58.1684 0.0787742 0)
(58.1358 0.0786936 0)
(58.1033 0.0786129 0)
(58.0707 0.0785321 0)
(58.0382 0.0784513 0)
(58.0057 0.0783704 0)
(57.9731 0.0782895 0)
(57.9406 0.0782084 0)
(57.9081 0.0781274 0)
(57.8756 0.0780462 0)
(57.8432 0.077965 0)
(57.8107 0.0778838 0)
(57.7782 0.0778025 0)
(57.7458 0.0777211 0)
(57.7133 0.0776397 0)
(57.6809 0.0775583 0)
(57.6484 0.0774767 0)
(57.616 0.0773952 0)
(57.5836 0.0773136 0)
(57.5512 0.0772319 0)
(57.5188 0.0771503 0)
(57.4864 0.0770685 0)
(57.4541 0.0769868 0)
(57.4217 0.076905 0)
(57.3894 0.0768231 0)
(57.357 0.0767413 0)
(57.3247 0.0766594 0)
(57.2923 0.0765775 0)
(57.26 0.0764955 0)
(57.2277 0.0764135 0)
(57.1954 0.0763315 0)
(57.1631 0.0762495 0)
(57.1309 0.0761675 0)
(57.0986 0.0760854 0)
(57.0663 0.0760033 0)
(57.0341 0.0759212 0)
(57.0018 0.0758391 0)
(56.9696 0.075757 0)
(56.9374 0.0756749 0)
(56.9052 0.0755928 0)
(56.873 0.0755107 0)
(56.8408 0.0754287 0)
(56.8086 0.0753466 0)
(56.7764 0.0752646 0)
(56.7442 0.0751826 0)
(56.7121 0.0751006 0)
(56.6799 0.0750186 0)
(56.6478 0.0749367 0)
(56.6156 0.0748549 0)
(56.5835 0.0747731 0)
(56.5514 0.0746915 0)
(56.5193 0.0746099 0)
(56.4872 0.0745285 0)
(56.4551 0.0744472 0)
(56.423 0.0743662 0)
(56.391 0.0742853 0)
(56.3589 0.0742046 0)
(56.3268 0.0741242 0)
(56.2948 0.0740441 0)
(56.2628 0.0739645 0)
(56.2307 0.0738853 0)
(56.1987 0.0738067 0)
(56.1667 0.0737289 0)
(56.1347 0.0736518 0)
(56.1027 0.0735759 0)
(56.0707 0.0735012 0)
(56.0387 0.073428 0)
(56.0067 0.0733567 0)
(55.9747 0.0732879 0)
(55.9427 0.0732222 0)
(55.9107 0.0731605 0)
(55.8787 0.0731039 0)
(55.8467 0.0730539 0)
(55.8147 0.0730128 0)
(55.7827 0.0729835 0)
(55.7506 0.07297 0)
(55.7185 0.0729792 0)
(55.6863 0.0730171 0)
(55.6541 0.073107 0)
(55.6216 0.0732368 0)
(55.5895 0.0735394 0)
(55.5552 0.0737457 0)
(55.5283 0.0747714 0)
(55.4775 0.0743689 0)
(51.2477 0.00429286 0)
(85.6511 0.0221469 0)
(72.8309 0.0360058 0)
(60.2165 0.0403309 0)
(59.7048 0.0406012 0)
(63.2465 0.0420513 0)
(64.7294 0.0448358 0)
(64.2592 0.0471756 0)
(63.6596 0.0484197 0)
(63.5853 0.0490599 0)
(63.7494 0.0495963 0)
(63.8496 0.0501095 0)
(63.8551 0.0505016 0)
(63.8434 0.0507398 0)
(63.8531 0.0508696 0)
(63.8761 0.0509396 0)
(63.8979 0.050969 0)
(63.9153 0.0509618 0)
(63.9315 0.0509225 0)
(63.9483 0.0508592 0)
(63.9659 0.0507794 0)
(63.9835 0.0506882 0)
(64.0009 0.0505885 0)
(64.0181 0.0504831 0)
(64.0354 0.0503742 0)
(64.0527 0.0502636 0)
(64.0699 0.0501528 0)
(64.0871 0.0500428 0)
(64.1043 0.0499345 0)
(64.1214 0.0498286 0)
(64.1385 0.0497254 0)
(64.1555 0.0496255 0)
(64.1725 0.0495291 0)
(64.1895 0.0494363 0)
(64.2064 0.0493474 0)
(64.2233 0.0492623 0)
(64.2401 0.0491812 0)
(64.2569 0.0491039 0)
(64.2737 0.0490306 0)
(64.2904 0.0489612 0)
(64.307 0.0488955 0)
(64.3237 0.0488336 0)
(64.3402 0.0487753 0)
(64.3568 0.0487205 0)
(64.3733 0.0486692 0)
(64.3897 0.0486213 0)
(64.4061 0.0485766 0)
(64.4225 0.0485352 0)
(64.4388 0.0484967 0)
(64.4551 0.0484613 0)
(64.4713 0.0484286 0)
(64.4875 0.0483988 0)
(64.5036 0.0483716 0)
(64.5197 0.048347 0)
(64.5357 0.0483249 0)
(64.5518 0.0483052 0)
(64.5677 0.0482878 0)
(64.5836 0.0482727 0)
(64.5995 0.0482596 0)
(64.6153 0.0482487 0)
(64.6311 0.0482397 0)
(64.6468 0.0482327 0)
(64.6625 0.0482275 0)
(64.6782 0.0482241 0)
(64.6938 0.0482224 0)
(64.7093 0.0482223 0)
(64.7249 0.0482238 0)
(64.7403 0.0482269 0)
(64.7558 0.0482315 0)
(64.7711 0.0482375 0)
(64.7865 0.0482448 0)
(64.8018 0.0482535 0)
(64.817 0.0482634 0)
(64.8322 0.0482746 0)
(64.8474 0.0482869 0)
(64.8625 0.0483004 0)
(64.8776 0.048315 0)
(64.8926 0.0483306 0)
(64.9076 0.0483473 0)
(64.9226 0.048365 0)
(64.9375 0.0483836 0)
(64.9523 0.0484031 0)
(64.9672 0.0484235 0)
(64.9819 0.0484447 0)
(64.9967 0.0484668 0)
(65.0114 0.0484896 0)
(65.026 0.0485132 0)
(65.0406 0.0485376 0)
(65.0552 0.0485627 0)
(65.0697 0.0485884 0)
(65.0842 0.0486149 0)
(65.0986 0.0486419 0)
(65.113 0.0486696 0)
(65.1273 0.0486979 0)
(65.1416 0.0487267 0)
(65.1559 0.0487561 0)
(65.1701 0.0487861 0)
(65.1843 0.0488165 0)
(65.1984 0.0488475 0)
(65.2125 0.048879 0)
(65.2266 0.0489109 0)
(65.2406 0.0489433 0)
(65.2545 0.0489761 0)
(65.2685 0.0490093 0)
(65.2823 0.049043 0)
(65.2962 0.049077 0)
(65.31 0.0491115 0)
(65.3237 0.0491463 0)
(65.3374 0.0491814 0)
(65.3511 0.0492169 0)
(65.3647 0.0492527 0)
(65.3783 0.0492889 0)
(65.3919 0.0493254 0)
(65.4054 0.0493622 0)
(65.4189 0.0493992 0)
(65.4323 0.0494366 0)
(65.4457 0.0494742 0)
(65.459 0.0495121 0)
(65.4723 0.0495503 0)
(65.4856 0.0495887 0)
(65.4988 0.0496273 0)
(65.512 0.0496662 0)
(65.5251 0.0497053 0)
(65.5382 0.0497447 0)
(65.5513 0.0497842 0)
(65.5643 0.0498239 0)
(65.5773 0.0498639 0)
(65.5902 0.049904 0)
(65.6031 0.0499443 0)
(65.6159 0.0499848 0)
(65.6287 0.0500255 0)
(65.6415 0.0500663 0)
(65.6542 0.0501074 0)
(65.6669 0.0501485 0)
(65.6796 0.0501898 0)
(65.6922 0.0502313 0)
(65.7048 0.0502729 0)
(65.7173 0.0503147 0)
(65.7298 0.0503566 0)
(65.7423 0.0503986 0)
(65.7547 0.0504407 0)
(65.767 0.050483 0)
(65.7794 0.0505254 0)
(65.7917 0.0505679 0)
(65.8039 0.0506105 0)
(65.8161 0.0506532 0)
(65.8283 0.050696 0)
(65.8404 0.050739 0)
(65.8525 0.050782 0)
(65.8646 0.0508251 0)
(65.8766 0.0508683 0)
(65.8886 0.0509116 0)
(65.9005 0.0509549 0)
(65.9124 0.0509984 0)
(65.9243 0.0510419 0)
(65.9361 0.0510855 0)
(65.9479 0.0511292 0)
(65.9596 0.051173 0)
(65.9713 0.0512168 0)
(65.983 0.0512607 0)
(65.9946 0.0513046 0)
(66.0062 0.0513486 0)
(66.0178 0.0513927 0)
(66.0293 0.0514368 0)
(66.0408 0.051481 0)
(66.0522 0.0515252 0)
(66.0636 0.0515695 0)
(66.075 0.0516139 0)
(66.0863 0.0516582 0)
(66.0976 0.0517026 0)
(66.1088 0.0517471 0)
(66.12 0.0517916 0)
(66.1312 0.0518361 0)
(66.1423 0.0518807 0)
(66.1534 0.0519253 0)
(66.1644 0.05197 0)
(66.1755 0.0520147 0)
(66.1864 0.0520594 0)
(66.1974 0.0521041 0)
(66.2083 0.0521488 0)
(66.2191 0.0521936 0)
(66.23 0.0522384 0)
(66.2408 0.0522833 0)
(66.2515 0.0523281 0)
(66.2622 0.052373 0)
(66.2729 0.0524179 0)
(66.2836 0.0524628 0)
(66.2942 0.0525078 0)
(66.3047 0.0525527 0)
(66.3153 0.0525977 0)
(66.3257 0.0526427 0)
(66.3362 0.0526876 0)
(66.3466 0.0527326 0)
(66.357 0.0527777 0)
(66.3673 0.0528227 0)
(66.3776 0.0528678 0)
(66.3879 0.0529128 0)
(66.3982 0.0529579 0)
(66.4083 0.053003 0)
(66.4185 0.0530481 0)
(66.4286 0.0530932 0)
(66.4387 0.0531384 0)
(66.4488 0.0531835 0)
(66.4588 0.0532287 0)
(66.4688 0.0532739 0)
(66.4787 0.0533191 0)
(66.4886 0.0533643 0)
(66.4985 0.0534096 0)
(66.5083 0.053455 0)
(66.5181 0.0535003 0)
(66.5279 0.0535457 0)
(66.5376 0.0535912 0)
(66.5473 0.0536367 0)
(66.5569 0.0536823 0)
(66.5665 0.0537279 0)
(66.5761 0.0537737 0)
(66.5857 0.0538196 0)
(66.5952 0.0538657 0)
(66.6047 0.0539119 0)
(66.6141 0.0539583 0)
(66.6235 0.0540049 0)
(66.6329 0.0540518 0)
(66.6422 0.054099 0)
(66.6515 0.0541465 0)
(66.6607 0.0541944 0)
(66.67 0.0542429 0)
(66.6792 0.054292 0)
(66.6883 0.0543418 0)
(66.6974 0.0543926 0)
(66.7065 0.0544444 0)
(66.7156 0.0544975 0)
(66.7246 0.0545522 0)
(66.7336 0.0546088 0)
(66.7425 0.0546678 0)
(66.7514 0.0547298 0)
(66.7603 0.0547955 0)
(66.7691 0.0548659 0)
(66.778 0.0549423 0)
(66.7867 0.0550264 0)
(66.7955 0.0551206 0)
(66.8042 0.0552279 0)
(66.8129 0.0553519 0)
(66.8216 0.0554989 0)
(66.8303 0.0556737 0)
(66.839 0.0558941 0)
(66.8478 0.0561484 0)
(66.8565 0.0565347 0)
(66.8658 0.0568355 0)
(66.8735 0.0577214 0)
(66.8875 0.05752 0)
(51.2461 0.000483072 0)
(85.6387 0.00193669 0)
(72.7951 0.0035024 0)
(60.1611 0.0053724 0)
(59.6393 0.00698182 0)
(63.1728 0.00816241 0)
(64.6435 0.00907702 0)
(64.1579 0.00986428 0)
(63.5428 0.0105507 0)
(63.4541 0.0111433 0)
(63.604 0.0116728 0)
(63.6896 0.0121629 0)
(63.6801 0.0126191 0)
(63.6532 0.0130427 0)
(63.6478 0.0134392 0)
(63.6556 0.0138158 0)
(63.6621 0.0141762 0)
(63.6642 0.0145218 0)
(63.665 0.0148534 0)
(63.6665 0.0151725 0)
(63.6687 0.0154805 0)
(63.6709 0.0157784 0)
(63.6729 0.0160667 0)
(63.6748 0.0163461 0)
(63.6767 0.0166171 0)
(63.6787 0.0168802 0)
(63.6806 0.017136 0)
(63.6826 0.0173848 0)
(63.6845 0.0176269 0)
(63.6865 0.0178629 0)
(63.6884 0.0180928 0)
(63.6904 0.0183172 0)
(63.6923 0.0185362 0)
(63.6943 0.0187501 0)
(63.6962 0.0189592 0)
(63.6982 0.0191637 0)
(63.7001 0.0193638 0)
(63.7021 0.0195598 0)
(63.7041 0.0197518 0)
(63.7061 0.0199399 0)
(63.7081 0.0201245 0)
(63.7101 0.0203056 0)
(63.7121 0.0204834 0)
(63.7142 0.020658 0)
(63.7162 0.0208296 0)
(63.7182 0.0209982 0)
(63.7203 0.0211641 0)
(63.7224 0.0213273 0)
(63.7245 0.0214879 0)
(63.7266 0.021646 0)
(63.7287 0.0218018 0)
(63.7308 0.0219552 0)
(63.7329 0.0221065 0)
(63.735 0.0222556 0)
(63.7372 0.0224026 0)
(63.7393 0.0225477 0)
(63.7415 0.0226909 0)
(63.7437 0.0228322 0)
(63.7459 0.0229718 0)
(63.7481 0.0231096 0)
(63.7503 0.0232458 0)
(63.7525 0.0233803 0)
(63.7548 0.0235133 0)
(63.757 0.0236448 0)
(63.7593 0.0237748 0)
(63.7616 0.0239033 0)
(63.7639 0.0240305 0)
(63.7662 0.0241564 0)
(63.7685 0.0242809 0)
(63.7708 0.0244042 0)
(63.7731 0.0245263 0)
(63.7755 0.0246472 0)
(63.7778 0.0247669 0)
(63.7802 0.0248855 0)
(63.7826 0.025003 0)
(63.785 0.0251195 0)
(63.7874 0.0252349 0)
(63.7898 0.0253493 0)
(63.7923 0.0254627 0)
(63.7947 0.0255751 0)
(63.7972 0.0256866 0)
(63.7996 0.0257972 0)
(63.8021 0.025907 0)
(63.8046 0.0260158 0)
(63.8071 0.0261238 0)
(63.8096 0.026231 0)
(63.8121 0.0263373 0)
(63.8147 0.0264429 0)
(63.8172 0.0265477 0)
(63.8198 0.0266518 0)
(63.8224 0.0267551 0)
(63.825 0.0268577 0)
(63.8276 0.0269596 0)
(63.8302 0.0270608 0)
(63.8328 0.0271613 0)
(63.8354 0.0272612 0)
(63.8381 0.0273604 0)
(63.8407 0.027459 0)
(63.8434 0.0275569 0)
(63.8461 0.0276543 0)
(63.8488 0.027751 0)
(63.8515 0.0278472 0)
(63.8542 0.0279427 0)
(63.8569 0.0280378 0)
(63.8597 0.0281322 0)
(63.8624 0.0282261 0)
(63.8652 0.0283195 0)
(63.868 0.0284123 0)
(63.8708 0.0285046 0)
(63.8736 0.0285964 0)
(63.8764 0.0286878 0)
(63.8792 0.0287786 0)
(63.882 0.0288689 0)
(63.8849 0.0289588 0)
(63.8877 0.0290481 0)
(63.8906 0.0291371 0)
(63.8935 0.0292255 0)
(63.8964 0.0293135 0)
(63.8993 0.0294011 0)
(63.9022 0.0294882 0)
(63.9051 0.0295749 0)
(63.9081 0.0296612 0)
(63.911 0.029747 0)
(63.914 0.0298325 0)
(63.9169 0.0299175 0)
(63.9199 0.0300021 0)
(63.9229 0.0300864 0)
(63.9259 0.0301702 0)
(63.929 0.0302537 0)
(63.932 0.0303367 0)
(63.935 0.0304194 0)
(63.9381 0.0305017 0)
(63.9412 0.0305837 0)
(63.9442 0.0306652 0)
(63.9473 0.0307465 0)
(63.9504 0.0308273 0)
(63.9535 0.0309078 0)
(63.9566 0.030988 0)
(63.9598 0.0310678 0)
(63.9629 0.0311472 0)
(63.9661 0.0312264 0)
(63.9692 0.0313052 0)
(63.9724 0.0313836 0)
(63.9756 0.0314618 0)
(63.9788 0.0315396 0)
(63.982 0.0316171 0)
(63.9852 0.0316942 0)
(63.9885 0.0317711 0)
(63.9917 0.0318476 0)
(63.995 0.0319238 0)
(63.9982 0.0319998 0)
(64.0015 0.0320754 0)
(64.0048 0.0321507 0)
(64.0081 0.0322257 0)
(64.0114 0.0323004 0)
(64.0147 0.0323749 0)
(64.0181 0.032449 0)
(64.0214 0.0325228 0)
(64.0248 0.0325964 0)
(64.0281 0.0326696 0)
(64.0315 0.0327426 0)
(64.0349 0.0328153 0)
(64.0383 0.0328878 0)
(64.0417 0.0329599 0)
(64.0451 0.0330318 0)
(64.0486 0.0331034 0)
(64.052 0.0331748 0)
(64.0555 0.0332458 0)
(64.0589 0.0333166 0)
(64.0624 0.0333872 0)
(64.0659 0.0334575 0)
(64.0694 0.0335275 0)
(64.0729 0.0335973 0)
(64.0764 0.0336668 0)
(64.0799 0.0337361 0)
(64.0835 0.0338051 0)
(64.087 0.0338739 0)
(64.0906 0.0339424 0)
(64.0941 0.0340106 0)
(64.0977 0.0340786 0)
(64.1013 0.0341464 0)
(64.1049 0.0342139 0)
(64.1085 0.0342812 0)
(64.1121 0.0343483 0)
(64.1158 0.0344151 0)
(64.1194 0.0344817 0)
(64.123 0.0345481 0)
(64.1267 0.0346142 0)
(64.1304 0.0346801 0)
(64.1341 0.0347458 0)
(64.1378 0.0348112 0)
(64.1415 0.0348764 0)
(64.1452 0.0349414 0)
(64.1489 0.0350062 0)
(64.1526 0.0350708 0)
(64.1564 0.0351352 0)
(64.1601 0.0351994 0)
(64.1639 0.0352633 0)
(64.1677 0.0353271 0)
(64.1714 0.0353906 0)
(64.1752 0.0354539 0)
(64.179 0.035517 0)
(64.1829 0.03558 0)
(64.1867 0.0356427 0)
(64.1905 0.0357053 0)
(64.1944 0.0357677 0)
(64.1982 0.03583 0)
(64.2021 0.0358921 0)
(64.2059 0.035954 0)
(64.2098 0.0360157 0)
(64.2137 0.0360773 0)
(64.2176 0.0361387 0)
(64.2215 0.0362 0)
(64.2255 0.0362612 0)
(64.2294 0.0363223 0)
(64.2333 0.0363834 0)
(64.2373 0.0364444 0)
(64.2412 0.0365054 0)
(64.2452 0.0365662 0)
(64.2492 0.0366271 0)
(64.2532 0.036688 0)
(64.2572 0.0367489 0)
(64.2612 0.0368099 0)
(64.2652 0.0368711 0)
(64.2692 0.0369325 0)
(64.2733 0.0369943 0)
(64.2773 0.0370564 0)
(64.2814 0.037119 0)
(64.2854 0.0371821 0)
(64.2895 0.0372459 0)
(64.2936 0.0373105 0)
(64.2977 0.0373761 0)
(64.3018 0.0374431 0)
(64.3059 0.0375116 0)
(64.31 0.0375822 0)
(64.3141 0.037655 0)
(64.3182 0.0377307 0)
(64.3224 0.0378096 0)
(64.3266 0.0378924 0)
(64.3307 0.03798 0)
(64.3349 0.038073 0)
(64.3391 0.0381724 0)
(64.3433 0.0382784 0)
(64.3476 0.0383911 0)
(64.3519 0.0385076 0)
(64.3562 0.0386263 0)
(64.3604 0.0387249 0)
(64.3651 0.0388242 0)
(64.3686 0.0387766 0)
(64.3757 0.0388729 0)
(51.2485 0.000893434 0)
(85.6457 0.0055201 0)
(72.8054 0.0106493 0)
(60.1711 0.0147771 0)
(59.6472 0.0177814 0)
(63.1791 0.0201512 0)
(64.6494 0.0223189 0)
(64.1636 0.0243917 0)
(63.548 0.026274 0)
(63.4587 0.0278937 0)
(63.608 0.0292749 0)
(63.693 0.0304778 0)
(63.683 0.0315399 0)
(63.6557 0.0324735 0)
(63.6497 0.0332865 0)
(63.657 0.0339923 0)
(63.6631 0.0346064 0)
(63.6648 0.0351415 0)
(63.6651 0.0356072 0)
(63.6662 0.0360119 0)
(63.6679 0.036363 0)
(63.6697 0.0366673 0)
(63.6713 0.0369309 0)
(63.6728 0.0371587 0)
(63.6743 0.0373552 0)
(63.6759 0.0375243 0)
(63.6774 0.0376694 0)
(63.679 0.0377935 0)
(63.6805 0.0378992 0)
(63.682 0.0379888 0)
(63.6836 0.0380643 0)
(63.6851 0.0381274 0)
(63.6866 0.0381798 0)
(63.6882 0.0382226 0)
(63.6897 0.0382573 0)
(63.6912 0.0382847 0)
(63.6928 0.0383058 0)
(63.6943 0.0383214 0)
(63.6958 0.0383323 0)
(63.6974 0.0383389 0)
(63.6989 0.038342 0)
(63.7004 0.038342 0)
(63.702 0.0383393 0)
(63.7035 0.0383343 0)
(63.7051 0.0383273 0)
(63.7066 0.0383186 0)
(63.7082 0.0383084 0)
(63.7097 0.0382971 0)
(63.7113 0.0382848 0)
(63.7128 0.0382716 0)
(63.7144 0.0382578 0)
(63.716 0.0382434 0)
(63.7175 0.0382286 0)
(63.7191 0.0382135 0)
(63.7207 0.0381982 0)
(63.7222 0.0381827 0)
(63.7238 0.0381671 0)
(63.7254 0.0381515 0)
(63.7269 0.0381359 0)
(63.7285 0.0381204 0)
(63.7301 0.0381051 0)
(63.7317 0.0380899 0)
(63.7333 0.0380748 0)
(63.7349 0.03806 0)
(63.7365 0.0380454 0)
(63.7381 0.038031 0)
(63.7397 0.0380169 0)
(63.7413 0.0380031 0)
(63.7429 0.0379895 0)
(63.7445 0.0379762 0)
(63.7461 0.0379632 0)
(63.7477 0.0379505 0)
(63.7493 0.0379381 0)
(63.7509 0.0379261 0)
(63.7525 0.0379143 0)
(63.7541 0.0379028 0)
(63.7557 0.0378916 0)
(63.7574 0.0378807 0)
(63.759 0.0378701 0)
(63.7606 0.0378599 0)
(63.7622 0.0378499 0)
(63.7638 0.0378402 0)
(63.7655 0.0378308 0)
(63.7671 0.0378216 0)
(63.7687 0.0378128 0)
(63.7704 0.0378042 0)
(63.772 0.0377959 0)
(63.7737 0.0377879 0)
(63.7753 0.0377802 0)
(63.7769 0.0377727 0)
(63.7786 0.0377654 0)
(63.7802 0.0377584 0)
(63.7819 0.0377517 0)
(63.7835 0.0377452 0)
(63.7852 0.037739 0)
(63.7869 0.0377329 0)
(63.7885 0.0377272 0)
(63.7902 0.0377216 0)
(63.7918 0.0377163 0)
(63.7935 0.0377112 0)
(63.7952 0.0377063 0)
(63.7968 0.0377016 0)
(63.7985 0.0376972 0)
(63.8002 0.0376929 0)
(63.8019 0.0376889 0)
(63.8035 0.037685 0)
(63.8052 0.0376814 0)
(63.8069 0.0376779 0)
(63.8086 0.0376746 0)
(63.8103 0.0376715 0)
(63.8119 0.0376686 0)
(63.8136 0.0376659 0)
(63.8153 0.0376634 0)
(63.817 0.037661 0)
(63.8187 0.0376588 0)
(63.8204 0.0376568 0)
(63.8221 0.037655 0)
(63.8238 0.0376533 0)
(63.8255 0.0376518 0)
(63.8272 0.0376504 0)
(63.8289 0.0376492 0)
(63.8306 0.0376482 0)
(63.8323 0.0376473 0)
(63.834 0.0376465 0)
(63.8358 0.0376459 0)
(63.8375 0.0376455 0)
(63.8392 0.0376452 0)
(63.8409 0.037645 0)
(63.8426 0.037645 0)
(63.8443 0.0376451 0)
(63.8461 0.0376454 0)
(63.8478 0.0376458 0)
(63.8495 0.0376463 0)
(63.8513 0.037647 0)
(63.853 0.0376478 0)
(63.8547 0.0376487 0)
(63.8565 0.0376498 0)
(63.8582 0.0376509 0)
(63.8599 0.0376522 0)
(63.8617 0.0376536 0)
(63.8634 0.0376552 0)
(63.8652 0.0376569 0)
(63.8669 0.0376586 0)
(63.8687 0.0376605 0)
(63.8704 0.0376626 0)
(63.8722 0.0376647 0)
(63.8739 0.0376669 0)
(63.8757 0.0376693 0)
(63.8775 0.0376717 0)
(63.8792 0.0376743 0)
(63.881 0.037677 0)
(63.8828 0.0376798 0)
(63.8845 0.0376827 0)
(63.8863 0.0376857 0)
(63.8881 0.0376888 0)
(63.8898 0.037692 0)
(63.8916 0.0376953 0)
(63.8934 0.0376987 0)
(63.8952 0.0377022 0)
(63.897 0.0377058 0)
(63.8987 0.0377095 0)
(63.9005 0.0377133 0)
(63.9023 0.0377172 0)
(63.9041 0.0377212 0)
(63.9059 0.0377252 0)
(63.9077 0.0377294 0)
(63.9095 0.0377337 0)
(63.9113 0.037738 0)
(63.9131 0.0377425 0)
(63.9149 0.037747 0)
(63.9167 0.0377516 0)
(63.9185 0.0377563 0)
(63.9203 0.0377611 0)
(63.9221 0.037766 0)
(63.9239 0.037771 0)
(63.9257 0.037776 0)
(63.9276 0.0377812 0)
(63.9294 0.0377864 0)
(63.9312 0.0377917 0)
(63.933 0.037797 0)
(63.9348 0.0378025 0)
(63.9367 0.037808 0)
(63.9385 0.0378137 0)
(63.9403 0.0378194 0)
(63.9422 0.0378252 0)
(63.944 0.037831 0)
(63.9458 0.037837 0)
(63.9477 0.037843 0)
(63.9495 0.0378491 0)
(63.9513 0.0378553 0)
(63.9532 0.0378615 0)
(63.955 0.0378679 0)
(63.9569 0.0378743 0)
(63.9587 0.0378808 0)
(63.9606 0.0378874 0)
(63.9624 0.0378941 0)
(63.9643 0.0379008 0)
(63.9662 0.0379076 0)
(63.968 0.0379145 0)
(63.9699 0.0379215 0)
(63.9718 0.0379286 0)
(63.9736 0.0379357 0)
(63.9755 0.037943 0)
(63.9774 0.0379504 0)
(63.9792 0.0379579 0)
(63.9811 0.0379654 0)
(63.983 0.0379731 0)
(63.9849 0.0379809 0)
(63.9867 0.0379888 0)
(63.9886 0.0379968 0)
(63.9905 0.038005 0)
(63.9924 0.0380132 0)
(63.9943 0.0380216 0)
(63.9962 0.0380303 0)
(63.9981 0.0380391 0)
(64 0.0380481 0)
(64.0019 0.0380573 0)
(64.0038 0.0380668 0)
(64.0057 0.0380765 0)
(64.0076 0.0380865 0)
(64.0095 0.0380967 0)
(64.0114 0.0381073 0)
(64.0133 0.0381183 0)
(64.0152 0.0381297 0)
(64.0171 0.0381417 0)
(64.019 0.0381543 0)
(64.021 0.0381675 0)
(64.0229 0.0381816 0)
(64.0248 0.0381964 0)
(64.0267 0.0382122 0)
(64.0287 0.038229 0)
(64.0306 0.038247 0)
(64.0325 0.0382665 0)
(64.0345 0.0382876 0)
(64.0364 0.0383108 0)
(64.0383 0.0383363 0)
(64.0403 0.0383644 0)
(64.0422 0.0383954 0)
(64.0442 0.0384294 0)
(64.0461 0.0384667 0)
(64.0481 0.0385073 0)
(64.05 0.0385512 0)
(64.052 0.0385983 0)
(64.054 0.038648 0)
(64.056 0.0386983 0)
(64.058 0.0387488 0)
(64.06 0.0387887 0)
(64.0622 0.0388333 0)
(64.0638 0.0388165 0)
(64.067 0.0388927 0)
(51.2495 0.000615925 0)
(85.6477 0.00328503 0)
(72.8057 0.0057767 0)
(60.1692 0.00747463 0)
(59.6441 0.00864127 0)
(63.1757 0.00964762 0)
(64.6457 0.0106208 0)
(64.1595 0.0115119 0)
(63.5435 0.0122582 0)
(63.4537 0.0128575 0)
(63.6027 0.013348 0)
(63.6876 0.0137646 0)
(63.6775 0.0141227 0)
(63.65 0.014427 0)
(63.644 0.0146834 0)
(63.6513 0.0149004 0)
(63.6573 0.0150867 0)
(63.659 0.0152485 0)
(63.6593 0.0153902 0)
(63.6605 0.0155153 0)
(63.6623 0.015627 0)
(63.6642 0.0157281 0)
(63.6658 0.0158207 0)
(63.6674 0.0159068 0)
(63.669 0.0159877 0)
(63.6706 0.0160646 0)
(63.6723 0.0161384 0)
(63.6739 0.0162101 0)
(63.6755 0.0162802 0)
(63.6772 0.0163492 0)
(63.6788 0.0164176 0)
(63.6804 0.0164857 0)
(63.682 0.0165538 0)
(63.6836 0.016622 0)
(63.6853 0.0166905 0)
(63.6869 0.0167595 0)
(63.6885 0.016829 0)
(63.6901 0.0168991 0)
(63.6917 0.0169698 0)
(63.6934 0.0170412 0)
(63.695 0.0171132 0)
(63.6966 0.0171859 0)
(63.6982 0.0172592 0)
(63.6999 0.0173332 0)
(63.7015 0.0174079 0)
(63.7031 0.0174831 0)
(63.7047 0.0175588 0)
(63.7064 0.0176351 0)
(63.708 0.0177119 0)
(63.7096 0.0177892 0)
(63.7113 0.0178669 0)
(63.7129 0.017945 0)
(63.7145 0.0180235 0)
(63.7162 0.0181024 0)
(63.7178 0.0181815 0)
(63.7195 0.0182609 0)
(63.7211 0.0183406 0)
(63.7228 0.0184205 0)
(63.7244 0.0185005 0)
(63.7261 0.0185808 0)
(63.7277 0.0186612 0)
(63.7294 0.0187417 0)
(63.731 0.0188223 0)
(63.7327 0.018903 0)
(63.7344 0.0189837 0)
(63.736 0.0190645 0)
(63.7377 0.0191453 0)
(63.7393 0.0192261 0)
(63.741 0.0193069 0)
(63.7427 0.0193876 0)
(63.7444 0.0194683 0)
(63.746 0.019549 0)
(63.7477 0.0196296 0)
(63.7494 0.01971 0)
(63.7511 0.0197904 0)
(63.7528 0.0198707 0)
(63.7544 0.0199509 0)
(63.7561 0.0200309 0)
(63.7578 0.0201108 0)
(63.7595 0.0201906 0)
(63.7612 0.0202702 0)
(63.7629 0.0203497 0)
(63.7646 0.020429 0)
(63.7663 0.0205081 0)
(63.768 0.020587 0)
(63.7697 0.0206657 0)
(63.7714 0.0207443 0)
(63.7731 0.0208227 0)
(63.7749 0.0209008 0)
(63.7766 0.0209788 0)
(63.7783 0.0210565 0)
(63.78 0.0211341 0)
(63.7817 0.0212114 0)
(63.7834 0.0212885 0)
(63.7852 0.0213653 0)
(63.7869 0.021442 0)
(63.7886 0.0215184 0)
(63.7904 0.0215946 0)
(63.7921 0.0216705 0)
(63.7938 0.0217462 0)
(63.7956 0.0218217 0)
(63.7973 0.0218969 0)
(63.799 0.0219719 0)
(63.8008 0.0220466 0)
(63.8025 0.0221211 0)
(63.8043 0.0221954 0)
(63.806 0.0222694 0)
(63.8078 0.0223431 0)
(63.8095 0.0224166 0)
(63.8113 0.0224899 0)
(63.8131 0.0225629 0)
(63.8148 0.0226356 0)
(63.8166 0.0227081 0)
(63.8183 0.0227803 0)
(63.8201 0.0228523 0)
(63.8219 0.022924 0)
(63.8236 0.0229955 0)
(63.8254 0.0230667 0)
(63.8272 0.0231376 0)
(63.829 0.0232083 0)
(63.8308 0.0232788 0)
(63.8325 0.023349 0)
(63.8343 0.0234189 0)
(63.8361 0.0234886 0)
(63.8379 0.023558 0)
(63.8397 0.0236271 0)
(63.8415 0.023696 0)
(63.8433 0.0237647 0)
(63.8451 0.0238331 0)
(63.8469 0.0239012 0)
(63.8487 0.0239691 0)
(63.8505 0.0240367 0)
(63.8523 0.0241041 0)
(63.8541 0.0241712 0)
(63.8559 0.0242381 0)
(63.8577 0.0243047 0)
(63.8595 0.024371 0)
(63.8613 0.0244372 0)
(63.8631 0.024503 0)
(63.8649 0.0245686 0)
(63.8668 0.024634 0)
(63.8686 0.0246991 0)
(63.8704 0.024764 0)
(63.8722 0.0248286 0)
(63.874 0.0248929 0)
(63.8759 0.0249571 0)
(63.8777 0.0250209 0)
(63.8795 0.0250846 0)
(63.8814 0.0251479 0)
(63.8832 0.0252111 0)
(63.885 0.025274 0)
(63.8869 0.0253367 0)
(63.8887 0.0253991 0)
(63.8906 0.0254612 0)
(63.8924 0.0255232 0)
(63.8943 0.0255849 0)
(63.8961 0.0256463 0)
(63.898 0.0257076 0)
(63.8998 0.0257686 0)
(63.9017 0.0258293 0)
(63.9035 0.0258898 0)
(63.9054 0.0259501 0)
(63.9072 0.0260102 0)
(63.9091 0.02607 0)
(63.911 0.0261296 0)
(63.9128 0.026189 0)
(63.9147 0.0262481 0)
(63.9166 0.026307 0)
(63.9184 0.0263657 0)
(63.9203 0.0264242 0)
(63.9222 0.0264824 0)
(63.9241 0.0265404 0)
(63.9259 0.0265982 0)
(63.9278 0.0266558 0)
(63.9297 0.0267131 0)
(63.9316 0.0267702 0)
(63.9335 0.0268271 0)
(63.9354 0.0268838 0)
(63.9373 0.0269402 0)
(63.9391 0.0269965 0)
(63.941 0.0270525 0)
(63.9429 0.0271084 0)
(63.9448 0.027164 0)
(63.9467 0.0272194 0)
(63.9486 0.0272746 0)
(63.9505 0.0273296 0)
(63.9524 0.0273843 0)
(63.9543 0.0274389 0)
(63.9562 0.0274933 0)
(63.9581 0.0275474 0)
(63.96 0.0276014 0)
(63.962 0.0276551 0)
(63.9639 0.0277087 0)
(63.9658 0.0277621 0)
(63.9677 0.0278153 0)
(63.9696 0.0278683 0)
(63.9715 0.0279211 0)
(63.9735 0.0279737 0)
(63.9754 0.0280261 0)
(63.9773 0.0280783 0)
(63.9792 0.0281304 0)
(63.9812 0.0281823 0)
(63.9831 0.0282341 0)
(63.985 0.0282856 0)
(63.9869 0.0283371 0)
(63.9889 0.0283884 0)
(63.9908 0.0284395 0)
(63.9927 0.0284904 0)
(63.9947 0.0285413 0)
(63.9966 0.0285919 0)
(63.9986 0.0286425 0)
(64.0005 0.028693 0)
(64.0025 0.0287434 0)
(64.0044 0.0287938 0)
(64.0063 0.0288441 0)
(64.0083 0.0288943 0)
(64.0102 0.0289445 0)
(64.0122 0.0289947 0)
(64.0142 0.0290449 0)
(64.0161 0.0290951 0)
(64.0181 0.0291455 0)
(64.02 0.0291959 0)
(64.022 0.0292465 0)
(64.0239 0.0292973 0)
(64.0259 0.0293483 0)
(64.0279 0.0293997 0)
(64.0298 0.0294515 0)
(64.0318 0.0295037 0)
(64.0338 0.0295565 0)
(64.0357 0.0296099 0)
(64.0377 0.029664 0)
(64.0397 0.0297189 0)
(64.0417 0.0297747 0)
(64.0436 0.0298315 0)
(64.0456 0.0298895 0)
(64.0476 0.0299489 0)
(64.0496 0.0300099 0)
(64.0516 0.0300725 0)
(64.0536 0.0301367 0)
(64.0556 0.0302026 0)
(64.0576 0.0302697 0)
(64.0596 0.0303377 0)
(64.0616 0.0304056 0)
(64.0636 0.0304726 0)
(64.0656 0.0305372 0)
(64.0677 0.030598 0)
(64.0697 0.0306523 0)
(64.0719 0.0306995 0)
(64.0735 0.0307315 0)
(64.0767 0.0307639 0)
(51.2505 0.000493311 0)
(85.6501 0.00278387 0)
(72.8086 0.00515971 0)
(60.172 0.00706937 0)
(59.6467 0.00867725 0)
(63.1783 0.0102203 0)
(64.6484 0.0117463 0)
(64.1621 0.0131999 0)
(63.546 0.0145392 0)
(63.4561 0.0157644 0)
(63.605 0.0168925 0)
(63.6898 0.0179355 0)
(63.6796 0.0188972 0)
(63.6521 0.0197798 0)
(63.6459 0.0205878 0)
(63.6531 0.0213273 0)
(63.6591 0.0220042 0)
(63.6607 0.0226237 0)
(63.6609 0.0231904 0)
(63.662 0.0237086 0)
(63.6637 0.0241824 0)
(63.6655 0.0246158 0)
(63.6671 0.0250124 0)
(63.6686 0.0253753 0)
(63.6701 0.0257076 0)
(63.6716 0.026012 0)
(63.6732 0.0262911 0)
(63.6747 0.026547 0)
(63.6763 0.0267819 0)
(63.6778 0.0269976 0)
(63.6794 0.0271959 0)
(63.6809 0.0273784 0)
(63.6825 0.0275463 0)
(63.684 0.0277011 0)
(63.6856 0.0278438 0)
(63.6872 0.0279755 0)
(63.6887 0.0280972 0)
(63.6903 0.0282097 0)
(63.6919 0.0283139 0)
(63.6934 0.0284103 0)
(63.695 0.0284998 0)
(63.6966 0.0285827 0)
(63.6982 0.0286598 0)
(63.6997 0.0287314 0)
(63.7013 0.028798 0)
(63.7029 0.02886 0)
(63.7045 0.0289177 0)
(63.7061 0.0289716 0)
(63.7077 0.0290218 0)
(63.7093 0.0290687 0)
(63.7109 0.0291125 0)
(63.7125 0.0291534 0)
(63.7141 0.0291917 0)
(63.7157 0.0292275 0)
(63.7173 0.029261 0)
(63.7189 0.0292924 0)
(63.7205 0.0293218 0)
(63.7222 0.0293494 0)
(63.7238 0.0293753 0)
(63.7254 0.0293995 0)
(63.727 0.0294222 0)
(63.7287 0.0294436 0)
(63.7303 0.0294636 0)
(63.7319 0.0294824 0)
(63.7336 0.0295 0)
(63.7352 0.0295165 0)
(63.7369 0.0295321 0)
(63.7385 0.0295466 0)
(63.7402 0.0295603 0)
(63.7418 0.0295732 0)
(63.7435 0.0295852 0)
(63.7451 0.0295965 0)
(63.7468 0.0296071 0)
(63.7485 0.0296171 0)
(63.7501 0.0296264 0)
(63.7518 0.0296351 0)
(63.7535 0.0296433 0)
(63.7552 0.0296509 0)
(63.7568 0.0296581 0)
(63.7585 0.0296648 0)
(63.7602 0.0296711 0)
(63.7619 0.0296769 0)
(63.7636 0.0296824 0)
(63.7653 0.0296875 0)
(63.767 0.0296923 0)