/*--------------------------------*- C++ -*----------------------------------*\
| =========                 |                                                 |
| \\      /  F ield         | OpenFOAM: The Open Source CFD Toolbox           |
|  \\    /   O peration     | Version:  2406                                  |
|   \\  /    A nd           | Website:  www.openfoam.com                      |
|    \\/     M anipulation  |                                                 |
\*---------------------------------------------------------------------------*/
FoamFile
{
    version     2.0;
    format      ascii;
    arch        "LSB;label=32;scalar=64";
    class       surfaceScalarField;
    location    "0.4";
    object      phi;
}
// * * * * * * * * * * * * * * * * * * * * * * * * * * * * * * * * * * * * * //

dimensions      [0 3 -1 0 0 0 0];

oriented        oriented;

internalField   nonuniform List<scalar> 
220
(
1.50027e-05
-7.84518e-13
1.50027e-05
-2.48545e-13
1.50027e-05
-1.39838e-13
1.50027e-05
9.43523e-13
1.50027e-05
4.66087e-14
1.50027e-05
-8.12448e-13
1.50027e-05
7.76392e-13
1.50027e-05
4.05556e-13
1.50027e-05
-5.6023e-13
1.50027e-05
-2.15164e-13
1.50027e-05
2.05151e-13
1.50027e-05
1.56781e-13
1.50027e-05
1.43258e-13
1.50027e-05
-2.12965e-14
1.50027e-05
-4.8191e-13
1.50027e-05
3.12145e-14
1.50027e-05
8.66199e-13
1.50027e-05
-2.88289e-13
1.50027e-05
-3.60868e-13
1.50027e-05
7.99536e-13
1.50027e-05
-3.84605e-13
1.50027e-05
-2.35145e-13
1.50027e-05
6.76605e-13
1.50027e-05
4.29073e-13
-5.11888e-13
3.28775e-05
-6.13374e-13
3.28775e-05
2.16452e-13
3.28775e-05
3.67426e-13
3.28775e-05
-4.91435e-13
3.28775e-05
-5.76724e-14
3.28775e-05
-3.70967e-13
3.28775e-05
1.35875e-13
3.28775e-05
3.01709e-13
3.28775e-05
-6.50674e-13
3.28775e-05
-8.22795e-13
3.28775e-05
-5.30721e-14
3.28775e-05
3.25414e-13
3.28775e-05
-3.47782e-14
3.28775e-05
-5.62425e-13
3.28775e-05
-8.42802e-13
3.28775e-05
-4.13607e-13
3.28775e-05
6.16328e-13
3.28775e-05
4.1014e-13
3.28775e-05
-7.53984e-13
3.28775e-05
-4.4128e-13
3.28775e-05
3.05644e-13
3.28775e-05
-9.91488e-14
3.28775e-05
4.92832e-13
3.28775e-05
3.11084e-13
-6.51563e-13
3.88116e-05
1.36569e-12
3.88116e-05
1.27672e-12
3.88116e-05
-2.2492e-14
3.88116e-05
-6.71737e-13
3.88116e-05
-2.08681e-14
3.88116e-05
3.13647e-14
3.88116e-05
4.0233e-14
3.88116e-05
2.32882e-13
3.88116e-05
-4.01396e-13
3.88116e-05
-7.72681e-13
3.88116e-05
-1.18797e-13
3.88116e-05
3.58796e-13
3.88116e-05
-1.01837e-13
3.88116e-05
-7.22016e-13
3.88116e-05
-8.65728e-13
3.88116e-05
-5.88513e-13
3.88116e-05
1.22568e-13
3.88116e-05
4.42808e-13
3.88116e-05
-8.28249e-13
3.88116e-05
-1.00025e-12
3.88116e-05
-7.98987e-14
3.88116e-05
3.57149e-13
3.88116e-05
1.82975e-15
3.88116e-05
-4.68147e-13
-6.02167e-15
3.28775e-05
1.27561e-12
3.28775e-05
1.18023e-12
3.28775e-05
3.31484e-13
3.28775e-05
-8.69831e-13
3.28775e-05
7.87168e-14
3.28775e-05
5.38039e-13
3.28775e-05
-2.95755e-13
3.28775e-05
-4.91073e-14
3.28775e-05
-3.8954e-14
3.28775e-05
-4.58623e-13
3.28775e-05
-2.49615e-13
3.28775e-05
9.43202e-14
3.28775e-05
-2.51108e-13
3.28775e-05
-5.62184e-13
3.28775e-05
-4.53455e-13
3.28775e-05
-5.47708e-13
3.28775e-05
-5.63544e-13
3.28775e-05
3.07201e-13
3.28775e-05
-5.01663e-13
3.28775e-05
-1.27714e-12
3.28775e-05
1.31895e-14
3.28775e-05
2.43076e-13
3.28775e-05
-3.49594e-13
3.28775e-05
-5.72698e-13
1.85622e-13
1.50027e-05
1.50027e-05
1.50027e-05
1.50027e-05
1.50027e-05
1.50027e-05
1.50027e-05
1.50027e-05
1.50027e-05
1.50027e-05
1.50027e-05
1.50027e-05
1.50027e-05
1.50027e-05
1.50027e-05
1.50027e-05
1.50027e-05
1.50027e-05
1.50027e-05
1.50027e-05
1.50027e-05
1.50027e-05
1.50027e-05
1.50027e-05
)
;

boundaryField
{
    inlet
    {
        type            calculated;
        value           nonuniform List<scalar> 5(-1.50027e-05 -3.28775e-05 -3.88116e-05 -3.28775e-05 -1.50027e-05);
    }
    outlet
    {
        type            calculated;
        value           nonuniform List<scalar> 5(1.50027e-05 3.28775e-05 3.88116e-05 3.28775e-05 1.50027e-05);
    }
    walls
    {
        type            calculated;
        value           uniform 0;
    }
    frontAndBack
    {
        type            empty;
    }
}


// ************************************************************************* //
