/*--------------------------------*- C++ -*----------------------------------*\
| =========                 |                                                 |
| \\      /  F ield         | OpenFOAM: The Open Source CFD Toolbox           |
|  \\    /   O peration     | Version:  2406                                  |
|   \\  /    A nd           | Website:  www.openfoam.com                      |
|    \\/     M anipulation  |                                                 |
\*---------------------------------------------------------------------------*/
FoamFile
{
    version     2.0;
    format      ascii;
    arch        "LSB;label=32;scalar=64";
    class       volVectorField;
    location    "0.4";
    object      U;
}
// * * * * * * * * * * * * * * * * * * * * * * * * * * * * * * * * * * * * * //

dimensions      [0 1 -1 0 0 0 0];

internalField   nonuniform List<vector> 
125
(
(0.0750136 -1.68105e-09 0)
(0.0750135 -6.83622e-10 0)
(0.0750136 5.1322e-10 0)
(0.0750135 5.18892e-10 0)
(0.0750135 9.27832e-12 0)
(0.0750135 -4.90221e-10 0)
(0.0750135 4.50482e-10 0)
(0.0750135 4.07057e-10 0)
(0.0750135 -3.4421e-10 0)
(0.0750135 -1.80549e-10 0)
(0.0750135 2.54562e-10 0)
(0.0750135 2.26192e-10 0)
(0.0750135 2.27732e-10 0)
(0.0750135 6.14367e-11 0)
(0.0750135 -2.18549e-10 0)
(0.0750135 1.6832e-10 0)
(0.0750135 8.51847e-10 0)
(0.0750135 -2.47658e-11 0)
(0.0750135 -2.94298e-10 0)
(0.0750135 6.29214e-10 0)
(0.0750135 3.22844e-10 0)
(0.0750135 -3.49944e-10 0)
(0.0750135 6.72719e-10 0)
(0.0750135 7.75975e-10 0)
(0.0750135 -8.09421e-10 0)
(0.164388 -3.02424e-09 0)
(0.164387 -8.06975e-10 0)
(0.164387 1.19463e-09 0)
(0.164387 -1.71993e-10 0)
(0.164387 -2.68096e-10 0)
(0.164387 -8.69268e-10 0)
(0.164387 7.1083e-10 0)
(0.164387 7.28985e-10 0)
(0.164387 -1.199e-09 0)
(0.164387 -1.2476e-09 0)
(0.164387 1.96982e-10 0)
(0.164387 7.71747e-10 0)
(0.164387 2.58651e-10 0)
(0.164387 -6.85649e-10 0)
(0.164387 -1.32681e-09 0)
(0.164387 -2.8392e-10 0)
(0.164387 1.73197e-09 0)
(0.164387 6.30613e-10 0)
(0.164387 -1.07404e-09 0)
(0.164387 -6.55431e-11 0)
(0.164387 8.30109e-10 0)
(0.164387 -3.94942e-10 0)
(0.164387 1.35858e-09 0)
(0.164387 1.33426e-09 0)
(0.164387 -1.76928e-09 0)
(0.194058 9.67236e-10 0)
(0.194058 1.84944e-09 0)
(0.194058 4.08464e-10 0)
(0.194058 -1.3849e-09 0)
(0.194058 -4.67044e-10 0)
(0.194058 -5.15973e-10 0)
(0.194058 4.36095e-10 0)
(0.194058 6.12412e-10 0)
(0.194058 -1.49675e-09 0)
(0.194058 -2.13687e-09 0)
(0.194058 -2.51051e-10 0)
(0.194058 1.01368e-09 0)
(0.194058 -8.7053e-11 0)
(0.194058 -1.80156e-09 0)
(0.194058 -2.40636e-09 0)
(0.194058 -1.26587e-09 0)
(0.194058 1.08468e-09 0)
(0.194058 1.13933e-09 0)
(0.194058 -1.86738e-09 0)
(0.194058 -2.00477e-09 0)
(0.194058 1.37006e-10 0)
(0.194058 5.43458e-10 0)
(0.194058 7.50982e-10 0)
(0.194058 -2.64169e-10 0)
(0.194058 -8.11242e-10 0)
(0.164388 4.74839e-09 0)
(0.164387 3.8011e-09 0)
(0.164387 -4.0153e-10 0)
(0.164387 -1.33169e-09 0)
(0.164387 -7.71807e-11 0)
(0.164387 1.72324e-10 0)
(0.164387 -1.57353e-10 0)
(0.164387 2.36085e-10 0)
(0.164387 -7.40534e-10 0)
(0.164387 -1.6708e-09 0)
(0.164387 -5.36011e-10 0)
(0.164387 3.8684e-10 0)
(0.164387 -5.5544e-10 0)
(0.164387 -1.89702e-09 0)
(0.164387 -1.95269e-09 0)
(0.164387 -1.59426e-09 0)
(0.164387 -4.94602e-10 0)
(0.164387 4.9052e-10 0)
(0.164387 -1.83855e-09 0)
(0.164387 -2.38503e-09 0)
(0.164387 -6.76345e-10 0)
(0.164387 1.01143e-09 0)
(0.164387 -3.58619e-10 0)
(0.164387 -1.77742e-09 0)
(0.164387 4.91671e-10 0)
(0.0750136 2.423e-09 0)
(0.0750135 1.82134e-09 0)
(0.0750136 -1.26325e-10 0)
(0.0750135 -6.15647e-10 0)
(0.0750135 8.4821e-11 0)
(0.0750135 2.88611e-10 0)
(0.0750135 -2.99814e-10 0)
(0.0750135 -5.9594e-11 0)
(0.0750135 -1.17604e-10 0)
(0.0750135 -5.92223e-10 0)
(0.0750135 -3.39856e-10 0)
(0.0750135 -8.67082e-11 0)
(0.0750135 -4.37931e-10 0)
(0.0750135 -8.43615e-10 0)
(0.0750135 -6.52667e-10 0)
(0.0750135 -7.77201e-10 0)
(0.0750135 -7.07673e-10 0)
(0.0750135 -8.87474e-13 0)
(0.0750135 -7.30114e-10 0)
(0.0750135 -1.05994e-09 0)
(0.0750135 -3.35353e-10 0)
(0.0750135 4.3182e-10 0)
(0.0750135 -4.05528e-10 0)
(0.0750135 -9.72513e-10 0)
(0.0750135 3.38587e-10 0)
)
;

boundaryField
{
    inlet
    {
        type            zeroGradient;
    }
    outlet
    {
        type            zeroGradient;
    }
    walls
    {
        type            noSlip;
    }
    frontAndBack
    {
        type            empty;
    }
}


// ************************************************************************* //
