/*--------------------------------*- C++ -*----------------------------------*\
| =========                 |                                                 |
| \\      /  F ield         | OpenFOAM: The Open Source CFD Toolbox           |
|  \\    /   O peration     | Version:  2406                                  |
|   \\  /    A nd           | Website:  www.openfoam.com                      |
|    \\/     M anipulation  |                                                 |
\*---------------------------------------------------------------------------*/
FoamFile
{
    version     2.0;
    format      ascii;
    arch        "LSB;label=32;scalar=64";
    class       volScalarField;
    location    "800";
    object      alphat;
}
// * * * * * * * * * * * * * * * * * * * * * * * * * * * * * * * * * * * * * //

dimensions      [0 2 -1 0 0 0 0];

internalField   nonuniform List<scalar> 
5619
(
5.32795e-05
5.42702e-05
5.51316e-05
5.59701e-05
5.67221e-05
5.7395e-05
5.79971e-05
5.8548e-05
5.90655e-05
5.95606e-05
6.00351e-05
6.04848e-05
6.09022e-05
6.12789e-05
6.16058e-05
6.18722e-05
6.20658e-05
6.21733e-05
6.21826e-05
6.20858e-05
6.18821e-05
6.15793e-05
6.11894e-05
6.0729e-05
6.02178e-05
5.96811e-05
5.91465e-05
5.86417e-05
5.81929e-05
5.78223e-05
5.75454e-05
5.73687e-05
5.72864e-05
5.72932e-05
5.7377e-05
5.75253e-05
5.77249e-05
5.79623e-05
5.82243e-05
5.84979e-05
5.87711e-05
5.90325e-05
5.92717e-05
5.94793e-05
5.96472e-05
5.97681e-05
5.98361e-05
5.98467e-05
5.97965e-05
5.96831e-05
5.95056e-05
5.9264e-05
5.89593e-05
5.85935e-05
5.81691e-05
5.7689e-05
5.71586e-05
5.65956e-05
5.60062e-05
5.53963e-05
5.47711e-05
5.41357e-05
5.34945e-05
5.28515e-05
5.22101e-05
5.15735e-05
5.09442e-05
5.03242e-05
4.97155e-05
4.91195e-05
4.85371e-05
4.79694e-05
4.74168e-05
4.68797e-05
4.63583e-05
4.58526e-05
4.53626e-05
4.48881e-05
4.44286e-05
4.39839e-05
4.35535e-05
4.31369e-05
4.27336e-05
4.23429e-05
4.19644e-05
4.15973e-05
4.12411e-05
4.08951e-05
4.05588e-05
4.02314e-05
3.99123e-05
3.9601e-05
3.92968e-05
3.89991e-05
3.87074e-05
3.84209e-05
3.81393e-05
3.78619e-05
3.75882e-05
3.73177e-05
3.70501e-05
3.67574e-05
3.64391e-05
3.60952e-05
3.57263e-05
3.53339e-05
3.49198e-05
3.4487e-05
3.4039e-05
3.35798e-05
3.31142e-05
3.2647e-05
3.21833e-05
3.17278e-05
3.1285e-05
3.0859e-05
3.0453e-05
3.00695e-05
2.97102e-05
2.93763e-05
2.9068e-05
2.87853e-05
2.85275e-05
2.82936e-05
2.80824e-05
2.78925e-05
2.77224e-05
2.75705e-05
2.74355e-05
2.73029e-05
2.71719e-05
2.70418e-05
2.69121e-05
2.67821e-05
2.66513e-05
2.65193e-05
2.63855e-05
2.62495e-05
2.6111e-05
2.59696e-05
2.5825e-05
2.5677e-05
2.55254e-05
2.537e-05
2.52109e-05
2.5048e-05
2.48814e-05
2.47114e-05
2.45383e-05
2.43624e-05
2.41844e-05
2.40049e-05
2.38246e-05
2.36446e-05
2.34659e-05
2.32896e-05
2.3117e-05
2.29495e-05
2.27885e-05
2.26354e-05
2.24917e-05
2.23586e-05
2.22374e-05
2.21292e-05
2.20347e-05
2.19544e-05
2.18886e-05
2.18371e-05
2.17996e-05
2.17753e-05
2.17632e-05
2.17623e-05
2.17714e-05
2.17894e-05
2.18151e-05
2.18483e-05
2.18908e-05
2.19476e-05
2.20295e-05
2.21558e-05
2.23559e-05
2.26663e-05
2.31178e-05
2.37046e-05
2.43128e-05
2.45255e-05
2.30393e-05
0.000168353
0.000169948
0.000172118
0.000173501
0.000174442
0.000175016
0.000175415
0.000175786
0.000176217
0.000176715
0.000177227
0.000177659
0.000177912
0.000177904
0.000177572
0.00017687
0.000175758
0.000174191
0.000172108
0.000169441
0.000166117
0.000162086
0.000157498
0.000152505
0.000147092
0.000141232
0.000134897
0.000128066
0.000120755
0.000113035
0.000105046
9.69971e-05
8.91809e-05
8.19128e-05
7.52737e-05
6.92856e-05
6.39451e-05
5.92263e-05
5.50885e-05
5.14818e-05
4.83523e-05
4.56464e-05
4.33132e-05
4.13062e-05
3.95838e-05
3.81099e-05
3.68532e-05
3.5787e-05
3.48879e-05
3.4136e-05
3.35136e-05
3.3005e-05
3.25912e-05
3.22399e-05
3.19282e-05
3.16311e-05
3.13564e-05
3.11198e-05
3.09134e-05
3.07304e-05
3.05655e-05
3.0414e-05
3.02727e-05
3.01388e-05
3.00107e-05
2.98871e-05
2.97674e-05
2.96515e-05
2.95393e-05
2.94313e-05
2.93279e-05
2.92296e-05
2.91369e-05
2.90505e-05
2.89705e-05
2.88975e-05
2.88317e-05
2.87732e-05
2.87222e-05
2.86786e-05
2.86425e-05
2.86137e-05
2.8592e-05
2.85774e-05
2.85697e-05
2.85686e-05
2.8574e-05
2.85857e-05
2.86035e-05
2.86273e-05
2.86569e-05
2.86922e-05
2.87333e-05
2.87799e-05
2.8832e-05
2.88897e-05
2.8953e-05
2.9022e-05
2.90966e-05
2.9177e-05
2.92633e-05
2.93657e-05
2.94869e-05
2.963e-05
2.97981e-05
2.99946e-05
3.02223e-05
3.04839e-05
3.07811e-05
3.11149e-05
3.14849e-05
3.18892e-05
3.23249e-05
3.27872e-05
3.32705e-05
3.37681e-05
3.42731e-05
3.47782e-05
3.52766e-05
3.57621e-05
3.62293e-05
3.66739e-05
3.70926e-05
3.74832e-05
3.78444e-05
3.81759e-05
3.84781e-05
3.87516e-05
3.8998e-05
3.92436e-05
3.94895e-05
3.97368e-05
3.99868e-05
4.02405e-05
4.0499e-05
4.07635e-05
4.10349e-05
4.13144e-05
4.16028e-05
4.19013e-05
4.22106e-05
4.25316e-05
4.2865e-05
4.32114e-05
4.35713e-05
4.3945e-05
4.43325e-05
4.47336e-05
4.51478e-05
4.55743e-05
4.60118e-05
4.64584e-05
4.6912e-05
4.73697e-05
4.7828e-05
4.82828e-05
4.87295e-05
4.91626e-05
4.95763e-05
4.99642e-05
5.03197e-05
5.06358e-05
5.09053e-05
5.11214e-05
5.12771e-05
5.13656e-05
5.13799e-05
5.13129e-05
5.11566e-05
5.09011e-05
5.05339e-05
5.00373e-05
4.94173e-05
4.86813e-05
4.77842e-05
4.66694e-05
4.52651e-05
4.34887e-05
4.12614e-05
3.85421e-05
3.53842e-05
3.2005e-05
2.88365e-05
2.65327e-05
2.60331e-05
2.91792e-05
4.27104e-05
0.000361982
0.000357771
0.000350874
0.000338969
0.000323861
0.000307617
0.000292597
0.00028045
0.000271671
0.000265749
0.000261698
0.000258547
0.000255572
0.00025231
0.000248492
0.000243956
0.000238591
0.000232299
0.000224991
0.000216596
0.00020709
0.000196528
0.000185112
0.000173296
0.000161375
0.00014966
0.000138481
0.000128158
0.000118966
0.000111095
0.000104631
9.95799e-05
9.6072e-05
9.38969e-05
9.28535e-05
9.27642e-05
9.34805e-05
9.48851e-05
9.68924e-05
9.94422e-05
0.000102492
0.000106014
0.000109984
0.000114383
0.000119187
0.000124364
0.000129868
0.000135637
0.00014159
0.000147589
0.000153377
0.000158738
0.000163575
0.000168218
0.000172609
0.000176702
0.000180475
0.000183902
0.00018694
0.000189552
0.000191705
0.000193377
0.000194553
0.000195228
0.000195405
0.000195097
0.000194322
0.000193107
0.000191484
0.000189491
0.000187166
0.00018455
0.000181687
0.000178616
0.000175378
0.00017201
0.000168546
0.000165019
0.000161456
0.000157883
0.000154321
0.000150787
0.000147298
0.000143867
0.000140502
0.000137212
0.000134003
0.000130879
0.000127842
0.000124895
0.000122037
0.000119268
0.000116588
0.000113994
0.000111485
0.000109059
0.000106712
0.000104443
0.00010225
0.000100127
9.80731e-05
9.58799e-05
9.3558e-05
9.11327e-05
8.8634e-05
8.6098e-05
8.35654e-05
8.10789e-05
7.86811e-05
7.64111e-05
7.43025e-05
7.23807e-05
7.06622e-05
6.91537e-05
6.78535e-05
6.67523e-05
6.58354e-05
6.50843e-05
6.44787e-05
6.3998e-05
6.36221e-05
6.33327e-05
6.31134e-05
6.29501e-05
6.28308e-05
6.27456e-05
6.26868e-05
6.26472e-05
6.26223e-05
6.26068e-05
6.25995e-05
6.26005e-05
6.26094e-05
6.26264e-05
6.26515e-05
6.26849e-05
6.27269e-05
6.27781e-05
6.2839e-05
6.29101e-05
6.2992e-05
6.30856e-05
6.31914e-05
6.331e-05
6.34421e-05
6.35882e-05
6.37484e-05
6.39229e-05
6.41114e-05
6.43131e-05
6.45268e-05
6.47507e-05
6.49822e-05
6.52179e-05
6.54533e-05
6.5683e-05
6.59003e-05
6.60974e-05
6.62654e-05
6.63941e-05
6.64724e-05
6.64884e-05
6.64295e-05
6.62828e-05
6.60356e-05
6.56754e-05
6.51903e-05
6.45694e-05
6.38032e-05
6.28836e-05
6.1805e-05
6.05666e-05
5.92363e-05
5.78181e-05
5.63226e-05
5.47776e-05
5.32366e-05
5.17917e-05
5.05897e-05
4.98499e-05
4.98836e-05
5.11203e-05
5.41721e-05
6.00493e-05
7.08367e-05
9.19077e-05
0.000143291
0.000738995
0.00073148
0.000715366
0.000683425
0.000636803
0.000578623
0.000515298
0.000454848
0.000404218
0.000366663
0.000341297
0.000324831
0.000313735
0.000305406
0.000298298
0.000291634
0.000285093
0.0002786
0.000272208
0.000266025
0.000260172
0.000254758
0.00024987
0.000245734
0.000242616
0.000240562
0.000239616
0.000239821
0.000241204
0.000243764
0.000247462
0.000252247
0.000258091
0.000265584
0.000274592
0.00028494
0.000296476
0.000308935
0.000322192
0.000336154
0.000350736
0.00036585
0.000381395
0.000397254
0.000413289
0.000429341
0.000445221
0.000460577
0.000475148
0.000488842
0.00050193
0.000514358
0.00052609
0.000537121
0.000547376
0.000556791
0.000565301
0.000572849
0.000579383
0.000584861
0.000589252
0.000592539
0.000594715
0.000595786
0.000595769
0.000594694
0.000592598
0.000589528
0.000585541
0.000580698
0.000575063
0.000568708
0.000561702
0.000554118
0.000546025
0.000537493
0.000528587
0.000519369
0.000509897
0.000500225
0.0004904
0.000480467
0.000470464
0.000460426
0.000450382
0.000440358
0.000430376
0.000420454
0.000410607
0.000400847
0.000391184
0.000381626
0.000372178
0.000362844
0.000353628
0.00034453
0.000335552
0.000326695
0.000317962
0.000309337
0.000300805
0.000291541
0.000281519
0.000270801
0.000259476
0.00024767
0.000235538
0.000223268
0.000211062
0.000199129
0.000187665
0.000176845
0.000166803
0.00015763
0.000149374
0.000142037
0.00013559
0.000129976
0.000125123
0.000120952
0.000117381
0.000114333
0.000111736
0.000109524
0.000107641
0.000106036
0.000104669
0.0001035
0.000102499
0.000101549
0.000100638
9.97626e-05
9.89163e-05
9.80951e-05
9.72954e-05
9.65143e-05
9.57495e-05
9.49994e-05
9.42626e-05
9.35385e-05
9.2827e-05
9.21281e-05
9.14427e-05
9.07715e-05
9.01161e-05
8.94778e-05
8.88584e-05
8.82598e-05
8.76837e-05
8.71318e-05
8.66056e-05
8.61061e-05
8.56338e-05
8.51888e-05
8.47701e-05
8.43761e-05
8.40042e-05
8.3651e-05
8.33122e-05
8.29832e-05
8.26589e-05
8.23345e-05
8.20062e-05
8.16715e-05
8.13303e-05
8.09859e-05
8.06455e-05
8.03213e-05
8.00314e-05
7.98007e-05
7.96612e-05
7.96999e-05
8.00279e-05
8.07174e-05
8.18682e-05
8.36097e-05
8.61078e-05
8.95707e-05
9.42553e-05
0.000100475
0.000108622
0.000119227
0.000133139
0.000151977
0.000179251
0.000223395
0.000309453
0.00133399
0.00134054
0.00133711
0.00130928
0.00125431
0.00117043
0.00106013
0.000930736
0.000794654
0.000667064
0.000561193
0.000483504
0.000432684
0.000402817
0.000387366
0.000381332
0.000381577
0.000386318
0.000394519
0.000405445
0.000418389
0.000432543
0.000446861
0.000461131
0.00047523
0.000488606
0.000500864
0.00051183
0.000521591
0.000530469
0.000538938
0.000547518
0.000556668
0.000566712
0.000577707
0.000589595
0.000602243
0.00061576
0.000629972
0.000644676
0.00065968
0.000674806
0.000689888
0.000704775
0.000719328
0.000733424
0.00074698
0.000760111
0.000772806
0.00078506
0.000796875
0.000808232
0.00081911
0.000829483
0.000839321
0.000848591
0.000857257
0.000865285
0.000872637
0.000879277
0.00088517
0.000890282
0.000894586
0.000898055
0.000900672
0.000902422
0.0009033
0.000903306
0.000902448
0.00090074
0.000898204
0.000894865
0.000890757
0.000885915
0.00088038
0.000874194
0.0008674
0.000860043
0.000852167
0.000843817
0.000835034
0.000825858
0.000816327
0.000806476
0.000796336
0.000785936
0.000775302
0.000764458
0.000753422
0.000742211
0.00073084
0.000719322
0.000707664
0.000695876
0.000683964
0.000671931
0.00065978
0.000647517
0.000635151
0.000622648
0.000609942
0.000595879
0.000580276
0.00056312
0.00054444
0.000524328
0.000502946
0.000480527
0.000457376
0.000433859
0.000410379
0.000387347
0.000365157
0.000344148
0.000324584
0.000306644
0.000290415
0.000275909
0.00026307
0.0002518
0.000241969
0.000233436
0.000226054
0.000219684
0.000214194
0.000209467
0.000205401
0.000201895
0.000198865
0.000195973
0.000193183
0.000190478
0.000187845
0.00018527
0.000182742
0.000180253
0.000177797
0.000175366
0.000172957
0.000170568
0.000168198
0.000165847
0.000163516
0.00016121
0.000158932
0.000156689
0.000154486
0.000152331
0.000150234
0.000148204
0.00014625
0.000144384
0.000142616
0.000140957
0.000139419
0.000138013
0.00013675
0.000135642
0.0001347
0.000133936
0.000133362
0.000132993
0.000132842
0.000132928
0.000133269
0.000133887
0.000134805
0.000136052
0.000137658
0.00013966
0.000142096
0.000145075
0.000148851
0.000153441
0.000158936
0.000165445
0.000173099
0.000182055
0.000192513
0.000204744
0.000219151
0.000236381
0.000257531
0.00028452
0.000320754
0.000372205
0.000448375
0.00206538
0.00209808
0.00212384
0.00212422
0.00209458
0.00203029
0.0019295
0.00179331
0.00162674
0.00143935
0.0012453
0.00106162
0.000904331
0.000783701
0.000701708
0.000653477
0.000630991
0.000626243
0.000632647
0.000645201
0.000660229
0.000675127
0.000688186
0.000699694
0.00070938
0.000717162
0.000723173
0.000727714
0.000731196
0.000734085
0.000736836
0.00073985
0.000743429
0.00074776
0.000752922
0.000758905
0.000765638
0.000773011
0.000780886
0.000789125
0.000797611
0.000806248
0.000814964
0.000823713
0.000832468
0.000841221
0.000849974
0.000858742
0.000867538
0.000876374
0.000885265
0.000894218
0.000903239
0.000912324
0.000921468
0.000930652
0.000939854
0.000949043
0.000958181
0.000967223
0.000976119
0.000984814
0.000993253
0.00100138
0.00100912
0.00101644
0.00102327
0.00102957
0.00103528
0.00104037
0.00104481
0.00104857
0.00105163
0.00105398
0.00105561
0.00105652
0.00105671
0.00105621
0.00105502
0.00105315
0.00105064
0.00104751
0.00104376
0.00103944
0.00103457
0.00102916
0.00102324
0.00101683
0.00100995
0.00100262
0.000994849
0.000986652
0.000978038
0.000969017
0.000959595
0.000949776
0.000939562
0.000928955
0.000917968
0.000906551
0.000894591
0.000881065
0.000865658
0.000848236
0.000828696
0.000807002
0.000783192
0.000757403
0.00072988
0.000700979
0.000671159
0.000640956
0.000610942
0.000581677
0.000553664
0.000527313
0.000502913
0.000480637
0.000460546
0.000442609
0.000426728
0.000412762
0.000400545
0.000389898
0.000380647
0.000372625
0.000365684
0.000359666
0.000354428
0.000349425
0.000344579
0.000339863
0.000335249
0.000330717
0.000326249
0.000321831
0.000317449
0.000313095
0.000308762
0.000304446
0.000300145
0.000295862
0.0002916
0.000287365
0.000283167
0.000279018
0.000274932
0.000270925
0.000267015
0.000263223
0.00025957
0.000256079
0.000252773
0.000249678
0.000246818
0.000244217
0.0002419
0.000239891
0.000238212
0.000236887
0.000235938
0.000235384
0.000235248
0.000235549
0.000236306
0.000237537
0.000239263
0.000241503
0.000244277
0.000247609
0.000251529
0.000256072
0.000261456
0.000267744
0.00027494
0.000283108
0.000292341
0.000302769
0.000314579
0.000328036
0.000343517
0.000361563
0.000382928
0.000408608
0.000439731
0.000476896
0.000517956
0.00281667
0.00287441
0.00292728
0.00295551
0.00295335
0.00291536
0.00283839
0.00272163
0.00256709
0.00237975
0.00216758
0.00194124
0.00171368
0.00149899
0.00131011
0.00115562
0.0010379
0.000953603
0.000896103
0.000858119
0.000833341
0.000817027
0.000805846
0.000797654
0.000791357
0.00078635
0.000782262
0.000778853
0.00077597
0.000773524
0.000771483
0.000769854
0.000768671
0.000767977
0.000767804
0.000768163
0.000769042
0.0007704
0.000772183
0.00077433
0.000776781
0.000779483
0.000782394
0.000785488
0.000788749
0.000792176
0.000795776
0.000799565
0.000803567
0.000807807
0.000812315
0.000817121
0.000822255
0.000827743
0.000833611
0.000839876
0.000846555
0.000853654
0.000861175
0.000869111
0.000877449
0.000886166
0.000895232
0.000904611
0.000914257
0.000924122
0.000934149
0.00094428
0.000954451
0.0009646
0.000974662
0.000984573
0.000994274
0.0010037
0.00101281
0.00102154
0.00102986
0.00103771
0.00104508
0.00105192
0.00105821
0.00106394
0.00106909
0.00107364
0.0010776
0.00108095
0.0010837
0.00108584
0.00108736
0.00108828
0.00108859
0.0010883
0.00108739
0.00108588
0.00108375
0.001081
0.00107763
0.00107362
0.00106899
0.00106367
0.00105755
0.00105014
0.00104106
0.00103004
0.00101679
0.00100105
0.000982611
0.000961347
0.000937256
0.000910493
0.000881396
0.000850481
0.000818414
0.000785952
0.000753865
0.000722861
0.00069352
0.000666258
0.000641326
0.000618824
0.000598733
0.000580945
0.000565303
0.000551617
0.000539687
0.000529319
0.000520334
0.000512532
0.000505717
0.000499229
0.000492946
0.000486826
0.000480834
0.000474943
0.000469128
0.000463369
0.000457652
0.000451964
0.000446297
0.000440645
0.000435008
0.000429387
0.000423789
0.000418223
0.000412702
0.000407243
0.000401865
0.00039659
0.000391445
0.000386455
0.000381652
0.000377065
0.000372725
0.000368663
0.000364911
0.000361498
0.000358451
0.000355796
0.000353555
0.00035175
0.000350398
0.000349514
0.000349109
0.000349195
0.000349779
0.000350869
0.000352471
0.000354592
0.000357239
0.000360423
0.000364158
0.000368461
0.000373359
0.000379024
0.000385446
0.000392647
0.000400689
0.000409651
0.00041964
0.000430786
0.000443238
0.00045715
0.000472631
0.000489646
0.000507806
0.000525994
0.00054195
0.00352194
0.00360266
0.00368002
0.0037346
0.00375969
0.00374965
0.00370068
0.00361086
0.00348041
0.00331173
0.00310925
0.00287927
0.00262976
0.00237018
0.00211109
0.00186354
0.00163781
0.00144169
0.00127914
0.00114997
0.00105085
0.000976891
0.000923264
0.000883191
0.000852525
0.000828703
0.000809996
0.000795167
0.000783291
0.000773659
0.00076572
0.000759051
0.00075334
0.000748363
0.000743969
0.000740057
0.000736559
0.000733427
0.000730622
0.000728108
0.000725848
0.000723809
0.000721959
0.000720269
0.000718714
0.000717274
0.000715937
0.000714694
0.000713543
0.000712489
0.000711539
0.000710708
0.000710015
0.000709486
0.000709147
0.000709033
0.000709178
0.00070962
0.000710401
0.00071156
0.000713137
0.000715172
0.000717699
0.000720751
0.000724354
0.000728527
0.000733286
0.000738635
0.000744574
0.000751095
0.000758179
0.000765804
0.00077394
0.000782549
0.000791592
0.000801021
0.000810789
0.000820845
0.000831136
0.000841609
0.000852212
0.000862893
0.000873602
0.000884292
0.000894915
0.00090543
0.000915795
0.000925972
0.000935924
0.000945619
0.000955023
0.000964106
0.000972838
0.00098119
0.000989134
0.000996638
0.00100367
0.0010102
0.00101621
0.00102162
0.00102639
0.00103097
0.00103508
0.00103838
0.00104044
0.00104073
0.00103868
0.00103367
0.00102513
0.0010126
0.000995831
0.000974881
0.000950142
0.000922347
0.000892487
0.000861678
0.000831013
0.000801425
0.000773614
0.000748024
0.000724871
0.000704194
0.000685908
0.000669856
0.000655838
0.000643646
0.000633081
0.000623915
0.000615902
0.000608309
0.000600978
0.00059385
0.00058688
0.000580035
0.000573288
0.000566614
0.000559997
0.000553421
0.000546877
0.000540361
0.000533871
0.00052741
0.000520987
0.000514613
0.000508306
0.000502084
0.000495971
0.000489994
0.000484184
0.000478572
0.00047319
0.000468075
0.000463259
0.000458775
0.000454654
0.000450924
0.000447609
0.000444729
0.000442299
0.00044033
0.000438826
0.000437789
0.000437216
0.000437101
0.000437437
0.000438212
0.000439419
0.000441048
0.000443092
0.000445544
0.000448403
0.000451669
0.000455347
0.000459443
0.000464057
0.000469158
0.000474752
0.000480848
0.000487454
0.000494565
0.000502157
0.000510165
0.000518457
0.000526804
0.000534847
0.000542095
0.000548049
0.0041604
0.00426595
0.00437042
0.00445564
0.00451413
0.00454039
0.00453031
0.00448139
0.00439281
0.00426545
0.00410173
0.00390542
0.00368131
0.00343502
0.00317277
0.00290122
0.00262745
0.00235892
0.00210326
0.00186781
0.00165865
0.00147971
0.00133222
0.00121666
0.0011249
0.00105192
0.000993906
0.000947833
0.000911279
0.000882283
0.000859251
0.000840892
0.000826169
0.000814256
0.000804501
0.000796398
0.000789559
0.000783691
0.000778571
0.000774027
0.000769925
0.000766157
0.00076263
0.000759265
0.000755991
0.000752741
0.000749455
0.000746078
0.000742557
0.000738848
0.000734911
0.000730711
0.000726222
0.000721428
0.000716317
0.000710891
0.000705158
0.00069914
0.000692865
0.000686373
0.000679711
0.000672935
0.000666107
0.000659296
0.000652572
0.000646012
0.000639689
0.000633679
0.000628056
0.000622887
0.000618238
0.000614167
0.000610728
0.000607965
0.000605916
0.000604611
0.000604072
0.000604315
0.000605347
0.000607168
0.000609774
0.000613153
0.00061729
0.000622165
0.000627754
0.000634032
0.000640971
0.000648541
0.000656713
0.000665454
0.000674735
0.000684523
0.00069479
0.000705504
0.000716635
0.000728153
0.000740026
0.000752223
0.000764719
0.000777446
0.000790432
0.000805014
0.000821254
0.000839131
0.000858469
0.000878916
0.000899895
0.000920561
0.000939799
0.000956269
0.000968524
0.000975212
0.000975327
0.000968445
0.000954873
0.000935627
0.000912234
0.000886429
0.000859846
0.000833805
0.000809225
0.000786645
0.000766304
0.000748233
0.000732334
0.000718446
0.000706382
0.00069591
0.000686752
0.00067811
0.000669792
0.000661722
0.000653847
0.000646128
0.000638533
0.000631037
0.000623619
0.000616265
0.000608964
0.00060171
0.000594505
0.000587353
0.000580263
0.000573251
0.000566334
0.000559537
0.000552886
0.000546411
0.000540146
0.000534125
0.000528382
0.000522955
0.000517877
0.000513179
0.000508891
0.000505034
0.000501628
0.000498683
0.000496203
0.000494188
0.000492627
0.000491506
0.000490805
0.000490502
0.000490572
0.000490989
0.000491728
0.000492765
0.00049408
0.000495655
0.000497475
0.000499528
0.000501806
0.000504299
0.000507003
0.00050995
0.00051311
0.000516467
0.000519998
0.000523675
0.000527461
0.000531305
0.000535143
0.000538904
0.000542518
0.000545949
0.000549234
0.00471478
0.00484696
0.00498047
0.00509912
0.00519467
0.00526199
0.00529684
0.00529642
0.00525924
0.00518519
0.00507531
0.00493163
0.00475693
0.00455459
0.00432845
0.00408271
0.0038218
0.0035502
0.00327234
0.00299276
0.00271639
0.00244897
0.002197
0.00196802
0.00177288
0.00160692
0.00146811
0.00135349
0.00126013
0.00118492
0.0011249
0.00107734
0.00103986
0.00101045
0.00098744
0.000969466
0.000955445
0.000944513
0.00093599
0.000929339
0.000924138
0.000920051
0.000916808
0.000914187
0.000912005
0.000910101
0.00090834
0.000906595
0.000904755
0.000902716
0.000900382
0.000897663
0.000894474
0.00089074
0.000886388
0.000881354
0.000875582
0.000869024
0.000861641
0.000853407
0.000844303
0.000834327
0.000823488
0.000811807
0.000799321
0.000786078
0.000772142
0.000757586
0.000742498
0.000726973
0.000711116
0.000695039
0.000678859
0.000662694
0.000646664
0.000630887
0.000615476
0.00060054
0.000586179
0.000572486
0.000559542
0.000547419
0.000536179
0.000525871
0.000516537
0.000508208
0.000500904
0.000494642
0.000489428
0.000485267
0.000482157
0.000480095
0.000479077
0.000479096
0.000480149
0.000482232
0.000485346
0.000489493
0.000494685
0.00050091
0.000508208
0.000517553
0.00052938
0.0005442
0.000562536
0.000584887
0.000611657
0.000643035
0.000678855
0.000718413
0.000760308
0.000802358
0.000841714
0.000875225
0.000900063
0.000914418
0.00091797
0.000911904
0.000898465
0.000880275
0.000859741
0.000838716
0.000818431
0.000799591
0.000782523
0.000767318
0.000753937
0.000742224
0.000731928
0.000722214
0.000712869
0.0007038
0.000694949
0.000686275
0.000677744
0.000669331
0.000661016
0.000652784
0.000644626
0.000636537
0.000628521
0.000620584
0.000612739
0.000605003
0.0005974
0.000589955
0.000582699
0.000575666
0.000568891
0.00056241
0.000556261
0.00055048
0.0005451
0.000540151
0.000535657
0.000531636
0.000528098
0.000525048
0.000522478
0.000520376
0.00051872
0.000517483
0.000516631
0.000516129
0.000515939
0.000516024
0.00051635
0.000516885
0.000517601
0.000518476
0.00051949
0.000520629
0.000521882
0.000523241
0.0005247
0.000526253
0.000527909
0.000529655
0.000531486
0.000533395
0.000535379
0.000537435
0.000539568
0.000541792
0.000544135
0.000546649
0.000549414
0.005152
0.0053089
0.00546857
0.00561765
0.00574737
0.00585311
0.00593072
0.00597727
0.00599087
0.00597069
0.00591673
0.0058297
0.00571088
0.00556203
0.00538536
0.00518359
0.00495986
0.00471766
0.00446062
0.00419223
0.00391568
0.00363379
0.00334927
0.00306556
0.00278714
0.0025285
0.00229386
0.00208395
0.00190019
0.00174232
0.00160926
0.00149902
0.00140906
0.00133657
0.00127879
0.00123315
0.00119741
0.00116965
0.00114826
0.00113194
0.00111965
0.00111053
0.00110393
0.00109932
0.00109627
0.00109444
0.00109356
0.00109342
0.00109383
0.00109462
0.00109567
0.00109685
0.00109806
0.00109919
0.00110014
0.00110083
0.00110115
0.001101
0.0011003
0.00109895
0.00109684
0.00109387
0.00108994
0.00108494
0.00107878
0.00107135
0.00106257
0.00105236
0.00104064
0.00102737
0.00101252
0.000996075
0.000978044
0.000958471
0.00093742
0.000914986
0.00089129
0.000866475
0.000840712
0.000814185
0.000787096
0.000759656
0.00073208
0.000704583
0.000677372
0.000650645
0.000624584
0.000599354
0.000575098
0.000551938
0.000529976
0.000509289
0.000489937
0.00047196
0.000455384
0.000440222
0.000426477
0.000414148
0.000403235
0.000393713
0.000385547
0.000378177
0.000372014
0.000367673
0.000365883
0.000367497
0.000373486
0.000384921
0.000402939
0.00042866
0.000463013
0.000506446
0.000558482
0.000617209
0.000678927
0.000738361
0.000789714
0.000828339
0.000852178
0.000862088
0.00086098
0.000852458
0.000839752
0.000825243
0.000810461
0.000796291
0.000783195
0.000771343
0.000760678
0.00075049
0.000740589
0.000730888
0.000721339
0.000711913
0.000702586
0.000693344
0.000684173
0.000675066
0.000666021
0.000657041
0.000648136
0.000639318
0.000630609
0.000622032
0.000613616
0.000605396
0.000597407
0.000589688
0.000582279
0.000575222
0.000568556
0.000562317
0.000556539
0.00055125
0.00054647
0.000542213
0.000538483
0.000535275
0.000532575
0.000530359
0.000528598
0.000527253
0.000526283
0.000525642
0.000525285
0.000525171
0.000525258
0.000525512
0.000525903
0.000526408
0.000527009
0.000527693
0.000528452
0.000529282
0.000530181
0.00053115
0.000532193
0.000533316
0.000534525
0.000535828
0.00053724
0.000538776
0.000540459
0.00054232
0.0005444
0.000546749
0.000549434
0.00543281
0.00560846
0.00578682
0.00595822
0.00611366
0.00624928
0.00636115
0.00644644
0.00650306
0.00652968
0.00652558
0.00649051
0.0064246
0.00632833
0.00620264
0.00604895
0.00586934
0.00566652
0.00544383
0.00520502
0.004954
0.00469444
0.00442947
0.00416128
0.0038911
0.00361941
0.00335056
0.00309231
0.00284753
0.00261743
0.00240476
0.00221167
0.00203947
0.00188858
0.00175861
0.0016484
0.00155628
0.00148025
0.00141819
0.00136802
0.00132783
0.00129588
0.00127069
0.00125102
0.00123581
0.00122424
0.00121561
0.00120939
0.00120514
0.00120253
0.0012013
0.00120125
0.0012022
0.00120405
0.0012067
0.00121007
0.00121412
0.0012188
0.00122407
0.00122988
0.00123618
0.00124292
0.00124999
0.00125733
0.0012648
0.00127228
0.00127961
0.00128661
0.00129306
0.00129874
0.00130339
0.00130672
0.00130845
0.00130829
0.00130593
0.00130109
0.0012935
0.00128291
0.00126915
0.00125206
0.00123158
0.00120768
0.00118045
0.00115002
0.00111662
0.00108054
0.00104214
0.00100183
0.000960045
0.000917252
0.000873915
0.00083049
0.0007874
0.000745034
0.000703731
0.000663778
0.000625405
0.000588795
0.000554088
0.000521343
0.000490473
0.000458894
0.000427012
0.000395618
0.000365641
0.000338104
0.00031407
0.0002946
0.000280738
0.000273538
0.000274123
0.000283777
0.000303978
0.000336292
0.000381941
0.000440916
0.000510721
0.000585477
0.000656629
0.000715776
0.000758022
0.000783277
0.000794856
0.000797105
0.00079376
0.000787433
0.000779762
0.00077169
0.000763706
0.000755645
0.000747442
0.000739071
0.000730535
0.000721847
0.000713021
0.000704071
0.000695013
0.000685863
0.000676641
0.000667371
0.00065808
0.000648801
0.000639571
0.000630431
0.000621428
0.000612609
0.000604025
0.000595729
0.000587772
0.000580205
0.000573074
0.000566423
0.000560286
0.000554693
0.000549664
0.000545209
0.000541327
0.000538007
0.000535228
0.000532958
0.00053116
0.000529787
0.000528791
0.000528121
0.000527727
0.000527561
0.000527583
0.000527755
0.000528047
0.000528437
0.000528909
0.00052945
0.000530056
0.000530725
0.000531457
0.000532257
0.000533131
0.000534088
0.000535139
0.000536296
0.000537578
0.000539004
0.0005406
0.000542397
0.000544433
0.000546759
0.000549436
0.00553039
0.00571666
0.00590413
0.00608726
0.00625731
0.00641129
0.00654564
0.00665779
0.00674566
0.00680768
0.00684269
0.00684983
0.00682843
0.00677807
0.00669868
0.00659063
0.00645497
0.00629353
0.00610902
0.00590491
0.00568531
0.00545462
0.00521718
0.00497691
0.00473706
0.00449993
0.00426694
0.00403767
0.00381224
0.00359331
0.00338078
0.00317453
0.0029748
0.00278234
0.00259836
0.00242433
0.00226174
0.00211184
0.00197546
0.001853
0.00174436
0.00164906
0.00156629
0.00149505
0.00143425
0.00138275
0.00133947
0.00130339
0.00127356
0.00124916
0.00122941
0.00121366
0.00120132
0.00119185
0.00118478
0.0011797
0.00117641
0.00117474
0.00117459
0.00117588
0.00117862
0.00118284
0.00118862
0.00119605
0.00120521
0.00121618
0.00122905
0.00124387
0.00126066
0.00127944
0.00130017
0.00132275
0.00134705
0.00137284
0.00139983
0.00142762
0.00145574
0.00148362
0.00151058
0.00153586
0.00155863
0.00157802
0.00159311
0.00160303
0.00160694
0.00160414
0.00159407
0.00157638
0.00155093
0.00151785
0.00147754
0.0014306
0.00137787
0.0013203
0.00125898
0.00119498
0.00112935
0.00106307
0.000997017
0.000931861
0.000867706
0.000799753
0.000728485
0.000655271
0.000581916
0.000510504
0.000443191
0.000381971
0.000328453
0.000283731
0.000248376
0.000222585
0.000206432
0.000200174
0.000204552
0.000220987
0.000251512
0.000298053
0.000360673
0.000435135
0.000512011
0.000579974
0.000631598
0.000666045
0.000686871
0.000698528
0.000704486
0.000706963
0.000707362
0.000706637
0.000704945
0.000702371
0.00069899
0.000694877
0.000690095
0.000684704
0.000678756
0.000672304
0.000665399
0.000658096
0.000650452
0.00064253
0.000634396
0.000626125
0.00061779
0.000609473
0.000601254
0.000593213
0.000585431
0.000577981
0.000570931
0.000564343
0.000558267
0.000552741
0.000547792
0.000543433
0.000539666
0.000536476
0.00053384
0.000531721
0.000530076
0.000528855
0.000528003
0.000527468
0.000527195
0.000527137
0.000527251
0.0005275
0.000527856
0.000528296
0.000528807
0.000529378
0.000530007
0.000530691
0.000531435
0.000532243
0.000533123
0.000534083
0.000535136
0.000536295
0.000537578
0.000539004
0.0005406
0.000542396
0.000544433
0.000546759
0.000549436
0.00543979
0.00562904
0.00581687
0.00600193
0.00617602
0.00633707
0.00648203
0.00660869
0.00671515
0.00679985
0.00686146
0.00689877
0.00691071
0.00689627
0.00685471
0.00678566
0.00668935
0.0065668
0.00641998
0.00625184
0.00606617
0.0058674
0.0056602
0.00544911
0.00523817
0.00503059
0.00482858
0.00463331
0.00444552
0.00426519
0.00409179
0.00392465
0.00376301
0.00360612
0.00345324
0.00330372
0.00315702
0.00301286
0.00287122
0.00273237
0.0025968
0.00246515
0.00233809
0.00221627
0.00210021
0.00199033
0.00188692
0.00179022
0.00170034
0.00161738
0.0015414
0.0014724
0.00141036
0.0013552
0.00130699
0.00126582
0.00123125