/*--------------------------------*- C++ -*----------------------------------*\
| =========                 |                                                 |
| \\      /  F ield         | OpenFOAM: The Open Source CFD Toolbox           |
|  \\    /   O peration     | Version:  2406                                  |
|   \\  /    A nd           | Website:  www.openfoam.com                      |
|    \\/     M anipulation  |                                                 |
\*---------------------------------------------------------------------------*/
FoamFile
{
    version     2.0;
    format      ascii;
    arch        "LSB;label=32;scalar=64";
    class       volScalarField;
    location    "800";
    object      epsilon;
}
// * * * * * * * * * * * * * * * * * * * * * * * * * * * * * * * * * * * * * //

dimensions      [0 2 -3 0 0 0 0];

internalField   nonuniform List<scalar> 
5619
(
3.23136
3.41697
3.58688
3.75986
3.92237
4.07396
4.21454
4.34674
4.47342
4.59651
4.71631
4.83174
4.94092
5.04168
5.13156
5.20771
5.26675
5.30491
5.31851
5.30473
5.26249
5.19309
5.09965
4.98661
4.85942
4.72497
4.59085
4.46463
4.35318
4.26204
4.19474
4.15232
4.13292
4.13434
4.15323
4.18637
4.23066
4.28313
4.34089
4.40118
4.46132
4.51876
4.57108
4.61606
4.65169
4.67623
4.68823
4.68662
4.67067
4.64001
4.59466
4.53494
4.46151
4.37525
4.27725
4.16873
4.05278
3.93252
3.80957
3.68536
3.56113
3.43796
3.31676
3.19825
3.08302
2.9715
2.864
2.76075
2.66185
2.56736
2.47727
2.3915
2.30995
2.2325
2.159
2.08928
2.02317
1.96047
1.90102
1.84463
1.79112
1.74032
1.69205
1.64616
1.60248
1.56086
1.52117
1.48327
1.44702
1.41231
1.37902
1.34704
1.31627
1.28661
1.25798
1.23029
1.20346
1.17742
1.1521
1.12743
1.10337
1.07746
1.04974
1.02033
0.989397
0.95718
0.923959
0.890064
0.85586
0.821729
0.788057
0.755209
0.723518
0.693269
0.664687
0.637937
0.613118
0.590274
0.569398
0.550439
0.533317
0.517927
0.504154
0.491871
0.480952
0.471274
0.462715
0.455161
0.448517
0.442051
0.435726
0.429507
0.423362
0.417265
0.41119
0.405116
0.399023
0.392894
0.386714
0.380472
0.374159
0.367769
0.361299
0.354748
0.34812
0.341421
0.334662
0.327854
0.321017
0.314171
0.30734
0.300551
0.293838
0.287232
0.280772
0.274496
0.268443
0.262654
0.257168
0.252024
0.247257
0.242898
0.238973
0.235503
0.2325
0.22997
0.22791
0.226307
0.225144
0.224392
0.224021
0.223992
0.224274
0.22483
0.225626
0.22666
0.227986
0.229764
0.232345
0.236365
0.242827
0.253082
0.268509
0.289481
0.31234
0.320609
0.265784
1.10591
1.18725
1.28045
1.38012
1.48151
1.57846
1.66618
1.74287
1.80996
1.87042
1.92673
1.98
2.03005
2.07593
2.11637
2.14991
2.17501
2.19008
2.19358
2.18423
2.16142
2.12581
2.07901
2.0241
1.96144
1.89145
1.81425
1.72975
1.63808
1.54006
1.43752
1.33393
1.23501
1.14266
1.05809
0.98162
0.913146
0.852235
0.798224
0.750311
0.707636
0.669343
0.634623
0.602749
0.573088
0.545119
0.518426
0.492705
0.467752
0.443461
0.419814
0.396861
0.374736
0.353907
0.334676
0.317379
0.301728
0.286912
0.272917
0.259727
0.247324
0.235688
0.224795
0.214618
0.205128
0.196292
0.188077
0.180448
0.17337
0.166808
0.160727
0.155094
0.149876
0.145042
0.140562
0.13641
0.13256
0.128986
0.125667
0.122581
0.11971
0.117036
0.114542
0.112213
0.110036
0.107998
0.106087
0.104292
0.102605
0.101016
0.0995163
0.0980994
0.0967582
0.0954865
0.0942786
0.0931294
0.0920342
0.0909888
0.0899896
0.0890315
0.0881129
0.0871388
0.0861128
0.0850433
0.0839404
0.0828163
0.0816851
0.0805623
0.0794638
0.078405
0.0774003
0.0764621
0.0755999
0.0748205
0.0741271
0.0735203
0.0729976
0.0725547
0.0721855
0.0718829
0.0716395
0.0714477
0.0713002
0.0711901
0.071111
0.0710575
0.0710245
0.0710067
0.0710009
0.0710046
0.0710165
0.0710369
0.0710655
0.0711024
0.071148
0.0712026
0.0712668
0.0713414
0.0714271
0.0715248
0.0716355
0.0717604
0.0719007
0.0720577
0.0722326
0.072427
0.0726421
0.0728793
0.0731398
0.0734247
0.073735
0.074071
0.0744332
0.0748211
0.0752341
0.0756706
0.0761286
0.0766052
0.0770969
0.0775992
0.0781073
0.0786155
0.0791178
0.0796076
0.0800781
0.0805216
0.0809296
0.0812918
0.0815952
0.0818224
0.0819491
0.0819416
0.0818407
0.0815973
0.0811315
0.0803307
0.079047
0.0771034
0.0743205
0.0705794
0.0659253
0.0606806
0.0554702
0.0510174
0.0475961
0.0440459
0.0357099
0.498466
0.536638
0.580113
0.627646
0.678438
0.730656
0.78182
0.829136
0.87036
0.904546
0.932048
0.953732
0.970146
0.981239
0.986468
0.985013
0.975953
0.958436
0.931858
0.896079
0.851625
0.799831
0.742258
0.680767
0.617496
0.554278
0.492877
0.434916
0.381792
0.334589
0.294026
0.260033
0.23137
0.20746
0.187503
0.170765
0.156609
0.144504
0.134016
0.124802
0.116588
0.109164
0.102373
0.0960994
0.0902633
0.0848133
0.0797198
0.0749692
0.0705587
0.0664951
0.0628219
0.0595549
0.0566937
0.0540284
0.0515449
0.0492261
0.047052
0.0450059
0.0430815
0.0412729
0.0395747
0.0379815
0.036488
0.035089
0.0337798
0.0325553
0.031411
0.0303424
0.029345
0.0284147
0.0275475
0.0267395
0.0259869
0.0252862
0.0246341
0.0240272
0.0234625
0.022937
0.0224481
0.0219931
0.0215695
0.0211751
0.0208077
0.0204654
0.0201462
0.0198486
0.0195708
0.0193116
0.0190695
0.0188432
0.0186318
0.0184342
0.0182495
0.0180768
0.0179154
0.0177647
0.017624
0.0174928
0.0173711
0.0172572
0.0171519
0.0170453
0.0169382
0.016834
0.0167358
0.0166472
0.0165721
0.0165144
0.0164778
0.0164657
0.0164806
0.0165241
0.0165969
0.0166983
0.0168266
0.016979
0.017152
0.0173413
0.0175426
0.0177512
0.017963
0.0181739
0.0183805
0.0185801
0.0187704
0.0189499
0.0191177
0.0192727
0.0194151
0.0195598
0.019707
0.0198578
0.0200129
0.020173
0.0203391
0.020512
0.0206926
0.0208819
0.0210809
0.0212906
0.0215121
0.0217464
0.0219946
0.0222578
0.022537
0.0228331
0.0231469
0.0234793
0.0238305
0.0242009
0.0245902
0.0249977
0.0254224
0.0258622
0.0263144
0.0267754
0.0272405
0.027704
0.0281587
0.0285966
0.0290083
0.0293835
0.0297111
0.0299793
0.0301761
0.0302893
0.0303072
0.0302187
0.0300137
0.0296838
0.0292237
0.0286522
0.0279498
0.0271019
0.0260951
0.0249179
0.0235648
0.0220433
0.020382
0.0186387
0.0169056
0.0153029
0.0139533
0.0129302
0.0121633
0.0112655
0.0091252
0.285563
0.304654
0.323348
0.34128
0.358204
0.374315
0.39008
0.405879
0.421522
0.43597
0.447524
0.454512
0.455944
0.451597
0.441674
0.426504
0.406482
0.38213
0.354184
0.323622
0.291623
0.259461
0.228328
0.199022
0.172117
0.148066
0.127131
0.109387
0.0947369
0.0829312
0.0736119
0.0663542
0.0606893
0.0561285
0.0524112
0.0493268
0.0467124
0.0444564
0.0424671
0.0406787
0.0390452
0.0375358
0.0361303
0.0348169
0.0335888
0.032443
0.0313781
0.0303976
0.0295018
0.0286874
0.0279255
0.0272098
0.0265338
0.0258892
0.0252729
0.0246818
0.024113
0.0235642
0.0230332
0.0225179
0.0220166
0.0215276
0.0210496
0.0205814
0.0201221
0.0196712
0.0192282
0.0187929
0.0183653
0.0179455
0.0175336
0.01713
0.016735
0.0163488
0.0159718
0.0156042
0.0152462
0.0148981
0.0145598
0.0142314
0.0139129
0.0136042
0.0133051
0.0130155
0.0127351
0.0124637
0.012201
0.0119467
0.0117004
0.011462
0.0112311
0.0110074
0.0107905
0.0105803
0.0103764
0.0101786
0.0099866
0.00980033
0.00961988
0.00944374
0.0092726
0.00909006
0.00889543
0.00869146
0.00848061
0.00826622
0.00805211
0.00784251
0.00764178
0.00745416
0.00728345
0.00713276
0.00700425
0.00689906
0.00681729
0.00675807
0.00671974
0.00670006
0.00669641
0.00670604
0.00672619
0.00675428
0.00678798
0.00682524
0.00686437
0.00690403
0.00694327
0.0069809
0.0070167
0.00705413
0.0070931
0.00713395
0.00717684
0.00722202
0.00726974
0.00732029
0.00737397
0.00743111
0.00749207
0.00755722
0.00762695
0.00770164
0.0077817
0.00786753
0.0079595
0.00805794
0.00816315
0.00827534
0.00839459
0.00852087
0.00865393
0.00879328
0.00893816
0.00908743
0.00923954
0.00939247
0.00954366
0.00969004
0.00982795
0.00995325
0.0100614
0.0101475
0.0102067
0.0102342
0.0102259
0.0101783
0.0100893
0.00995815
0.00978615
0.00957675
0.00933601
0.0090623
0.00875143
0.00840858
0.00803982
0.00765266
0.0072566
0.0068634
0.00648724
0.00614421
0.0058507
0.00562006
0.00545597
0.00534027
0.00521047
0.0049233
0.0042058
0.208488
0.221917
0.233024
0.240995
0.244812
0.244013
0.238816
0.230278
0.220089
0.210002
0.20115
0.193669
0.186843
0.179637
0.17126
0.161426
0.150282
0.13824
0.125812
0.113518
0.101809
0.0910257
0.0814336
0.072872
0.0652859
0.0586518
0.0529262
0.0480526
0.0439639
0.0405828
0.0378228
0.0355918
0.0337963
0.0323514
0.031188
0.0302461
0.0294746
0.0288238
0.0282642
0.0277741
0.0273381
0.0269452
0.0265881
0.0262615
0.0259616
0.0256854
0.0254299
0.0251892
0.0249595
0.0247375
0.0245199
0.024304
0.0240875
0.0238682
0.023644
0.0234133
0.0231743
0.0229256
0.0226661
0.0223947
0.0221109
0.0218142
0.0215045
0.021182
0.0208473
0.020501
0.0201441
0.0197776
0.0194028
0.0190212
0.0186341
0.0182429
0.0178492
0.0174542
0.0170595
0.0166661
0.0162752
0.0158878
0.0155049
0.0151271
0.0147551
0.0143894
0.0140303
0.0136781
0.013333
0.012995
0.0126642
0.0123405
0.0120238
0.0117139
0.0114106
0.0111137
0.0108229
0.0105381
0.010259
0.00998528
0.00971673
0.00945323
0.00919493
0.00894008
0.00868871
0.0084174
0.00812414
0.00781155
0.00748234
0.0071404
0.00679051
0.00643821
0.00608951
0.00575051
0.00542698
0.00512394
0.00484531
0.00459373
0.00437045
0.00417547
0.00400771
0.00386528
0.0037458
0.00364662
0.00356502
0.0034984
0.00344435
0.00340073
0.00336565
0.00333754
0.00331514
0.00329702
0.0032825
0.00326973
0.00325828
0.00324816
0.0032393
0.00323164
0.00322518
0.00321992
0.00321589
0.00321314
0.00321175
0.00321178
0.00321336
0.00321658
0.00322158
0.0032285
0.00323745
0.00324859
0.00326202
0.00327784
0.00329614
0.00331694
0.00334022
0.00336587
0.00339371
0.00342345
0.00345468
0.00348685
0.00351928
0.00355114
0.00358148
0.00360924
0.00363329
0.0036525
0.00366579
0.00367226
0.0036712
0.00366225
0.00364544
0.00362124
0.00359059
0.00355484
0.00351576
0.00347335
0.0034234
0.00336975
0.00331515
0.00326248
0.00321477
0.00317514
0.00314667
0.0031321
0.00313316
0.0031494
0.00317611
0.003201
0.00319956
0.00313229
0.00295543
0.187364
0.201951
0.214568
0.224113
0.229183
0.228691
0.221963
0.20903
0.190787
0.169033
0.146214
0.124834
0.106702
0.0924861
0.0818352
0.0738837
0.0677489
0.0627878
0.0586258
0.0550766
0.0520495
0.0494861
0.0472899
0.0453098
0.043501
0.0418269
0.0402591
0.0387814
0.037391
0.0360959
0.034911
0.0338518
0.0329301
0.0321505
0.03151
0.0309983
0.0306001
0.0302982
0.0300752
0.0299155
0.0298047
0.0297308
0.0296835
0.029654
0.0296348
0.0296196
0.0296028
0.0295792
0.0295446
0.0294952
0.0294276
0.0293389
0.0292266
0.0290887
0.0289236
0.0287302
0.0285077
0.0282561
0.0279756
0.0276666
0.0273304
0.0269682
0.0265817
0.0261728
0.0257435
0.025296
0.0248326
0.0243556
0.0238673
0.02337
0.0228659
0.022357
0.0218455
0.021333
0.0208215
0.0203123
0.0198068
0.0193064
0.018812
0.0183245
0.0178446
0.0173729
0.0169099
0.0164558
0.0160108
0.015575
0.0151483
0.0147306
0.0143217
0.0139214
0.0135294
0.0131454
0.012769
0.0123997
0.0120374
0.0116815
0.0113316
0.0109875
0.0106493
0.0103149
0.0099833
0.00962449
0.00923525
0.00881828
0.00837679
0.00791552
0.00744053
0.00695897
0.00647882
0.00600833
0.00555552
0.00512755
0.00473021
0.00436759
0.0040419
0.00375361
0.00350165
0.00328383
0.00309718
0.00293837
0.00280396
0.00269063
0.0025953
0.00251521
0.00244793
0.00239142
0.00234398
0.00230379
0.00226976
0.00223803
0.00220787
0.00217919
0.00215176
0.00212546
0.00210018
0.00207582
0.00205235
0.00202971
0.00200792
0.00198697
0.00196691
0.00194779
0.00192968
0.00191266
0.00189684
0.00188233
0.00186924
0.00185769
0.0018478
0.00183967
0.00183341
0.00182909
0.00182675
0.00182641
0.00182804
0.00183158
0.00183689
0.00184381
0.00185212
0.00186157
0.00187186
0.0018827
0.00189382
0.00190496
0.00191594
0.00192664
0.00193707
0.00194733
0.00195764
0.00196835
0.00197985
0.00199264
0.00200597
0.00202034
0.00203697
0.00205693
0.00208125
0.00211097
0.00214699
0.00218997
0.00224012
0.00229686
0.00235841
0.00242146
0.00248142
0.00253543
0.00259216
0.194701
0.214287
0.23331
0.250524
0.264327
0.273214
0.275773
0.270965
0.258363
0.238377
0.212387
0.182683
0.152158
0.123714
0.0995571
0.0807227
0.0671053
0.0578738
0.0519572
0.0483701
0.0463417
0.0453202
0.0448138
0.044532
0.0443699
0.0442597
0.0441523
0.044013
0.0438211
0.0435702
0.0432668
0.0429287
0.0425798
0.0422458
0.0419497
0.0417086
0.0415324
0.041424
0.0413805
0.0413948
0.041457
0.0415558
0.0416795
0.0418164
0.0419555
0.042086
0.0421984
0.0422835
0.0423333
0.0423406
0.042299
0.0422033
0.0420494
0.0418343
0.0415562
0.0412147
0.0408103
0.0403448
0.039821
0.0392427
0.0386144
0.037941
0.0372281
0.0364813
0.0357064
0.0349091
0.0340949
0.0332688
0.0324358
0.0316
0.0307656
0.0299357
0.0291136
0.0283015
0.0275018
0.026716
0.0259456
0.0251917
0.024455
0.023736
0.0230351
0.0223523
0.0216877
0.021041
0.0204119
0.0198
0.0192048
0.0186257
0.018062
0.0175131
0.0169782
0.0164567
0.0159477
0.0154505
0.0149644
0.0144886
0.0140223
0.0135651
0.0131168
0.0126746
0.0122365
0.0117634
0.011251
0.0107026
0.0101224
0.00951633
0.00889218
0.00825911
0.00762738
0.00700769
0.00641054
0.00584542
0.00532014
0.00484031
0.00440913
0.00402742
0.00369389
0.00340567
0.00315883
0.00294886
0.00277113
0.00262119
0.00249493
0.00238869
0.00229926
0.00222394
0.00216052
0.00210672
0.00206097
0.00201825
0.00197757
0.0019387
0.00190136
0.00186534
0.00183049
0.00179667
0.00176378
0.00173175
0.00170056
0.00167019
0.00164065
0.00161198
0.00158424
0.00155751
0.00153189
0.00150749
0.00148442
0.00146284
0.00144286
0.00142462
0.00140827
0.00139391
0.00138166
0.00137161
0.00136381
0.0013583
0.00135508
0.00135412
0.00135536
0.0013587
0.00136403
0.0013712
0.00138009
0.00139055
0.00140247
0.00141576
0.0014304
0.0014464
0.00146383
0.00148284
0.00150363
0.00152645
0.00155164
0.00157915
0.00160955
0.00164346
0.0016815
0.00172432
0.0017726
0.00182703
0.00188834
0.00195731
0.00203492
0.00212267
0.0022234
0.0023431
0.0024938
0.2192
0.246346
0.274942
0.303765
0.331149
0.35539
0.37459
0.386889
0.390674
0.384836
0.369005
0.343741
0.31062
0.272176
0.231624
0.192343
0.157215
0.12808
0.105549
0.089217
0.0780829
0.0709587
0.0666834
0.0638559
0.0619549
0.0607193
0.0599842
0.0596298
0.0595616
0.059701
0.0599833
0.060358
0.0607892
0.0612543
0.0617419
0.0622488
0.0627761
0.0633263
0.0639008
0.0644984
0.0651151
0.0657435
0.0663738
0.0669937
0.0675897
0.0681467
0.0686494
0.0690822
0.0694299
0.0696781
0.0698133
0.0698239
0.0697001
0.0694344
0.0690219
0.0684605
0.0677507
0.0668962
0.0659031
0.0647803
0.0635386
0.0621907
0.0607507
0.0592332
0.0576535
0.0560266
0.0543671
0.0526888
0.0510043
0.049325
0.0476611
0.0460209
0.0444118
0.0428395
0.0413084
0.039822
0.0383826
0.0369915
0.0356495
0.0343563
0.0331117
0.0319145
0.0307634
0.029657
0.0285935
0.027571
0.0265875
0.0256411
0.0247298
0.0238516
0.0230045
0.0221867
0.0213961
0.0206311
0.0198899
0.0191709
0.0184724
0.0177931
0.0171324
0.0164863
0.0158512
0.0151701
0.0144387
0.0136624
0.0128477
0.0120038
0.0111418
0.0102743
0.00941498
0.00857781
0.00777607
0.00702152
0.00632357
0.00568881
0.00512072
0.0046198
0.00418393
0.00380898
0.00348941
0.00321898
0.00299128
0.00280019
0.00264006
0.00250593
0.00239349
0.00229913
0.00221991
0.00215296
0.00209618
0.00204336
0.00199325
0.00194544
0.00189958
0.0018554
0.00181266
0.00177121
0.0017309
0.00169165
0.00165338
0.00161607
0.00157972
0.00154436
0.00151004
0.00147684
0.00144486
0.00141422
0.00138503
0.00135744
0.00133159
0.00130763
0.00128569
0.00126592
0.00124843
0.00123332
0.00122069
0.00121057
0.00120301
0.001198
0.0011955
0.00119545
0.00119778
0.00120238
0.00120913
0.00121793
0.00122868
0.0012413
0.00125574
0.00127201
0.00129014
0.00131024
0.00133246
0.00135701
0.00138418
0.00141431
0.00144764
0.00148473
0.00152618
0.00157267
0.00162505
0.0016843
0.00175169
0.0018288
0.00191775
0.00202148
0.0021441
0.00229154
0.00247204
0.252429
0.288263
0.327721
0.369819
0.412955
0.455514
0.495501
0.530761
0.55911
0.578536
0.587382
0.58451
0.569453
0.542533
0.504957
0.458849
0.407163
0.353419
0.30124
0.25378
0.213232
0.1806
0.1559
0.138088
0.124549
0.114221
0.106449
0.100746
0.0967302
0.0940879
0.0925521
0.0918975
0.091935
0.0925092
0.0934949
0.0947933
0.0963284
0.0980414
0.099887
0.101829
0.103838
0.105886
0.107948
0.109998
0.11201
0.113956
0.115807
0.117534
0.119106
0.120493
0.121665
0.122593
0.123252
0.123619
0.123673
0.123402
0.122796
0.121851
0.120572
0.118966
0.11705
0.114843
0.11237
0.109661
0.106746
0.103662
0.100441
0.0971179
0.0937271
0.0902997
0.0868648
0.0834486
0.0800741
0.076761
0.0735253
0.0703802
0.0673354
0.0643982
0.0615731
0.0588625
0.0562672
0.0537862
0.0514173
0.0491573
0.0470026
0.0449486
0.0429906
0.0411237
0.0393429
0.0376431
0.0360195
0.034467
0.0329813
0.0315577
0.0301921
0.0288806
0.0276192
0.0264049
0.0252353
0.024104
0.0230048
0.0218367
0.0205972
0.0192985
0.0179546
0.016583
0.0152037
0.0138386
0.0125098
0.0112384
0.0100431
0.00893855
0.00793489
0.00703719
0.00624578
0.00555707
0.00496453
0.0044597
0.00403312
0.00367502
0.00337587
0.00312675
0.00291961
0.00274739
0.00260405
0.00248456
0.00238485
0.00230111
0.00223049
0.00216528
0.00210377
0.00204535
0.00198955
0.00193599
0.00188438
0.00183449
0.00178614
0.00173919
0.00169355
0.00164917
0.00160604
0.00156417
0.00152361
0.00148444
0.00144674
0.00141063
0.00137625
0.00134372
0.00131319
0.0012848
0.00125871
0.00123503
0.00121388
0.00119537
0.00117956
0.00116652
0.00115626
0.00114878
0.00114404
0.00114198
0.00114251
0.00114553
0.00115093
0.00115859
0.00116842
0.00118033
0.00119428
0.00121025
0.00122828
0.00124846
0.00127093
0.00129591
0.00132367
0.00135455
0.00138896
0.00142739
0.00147045
0.00151892
0.00157371
0.00163597
0.00170713
0.00178897
0.00188379
0.00199459
0.00212525
0.00228091
0.0024683
0.28458
0.328182
0.377167
0.430992
0.488185
0.547434
0.606966
0.664782
0.718722
0.766597
0.8063
0.8359
0.853745
0.858563
0.849578
0.826618
0.790204
0.741608
0.682889
0.616892
0.547166
0.477693
0.412409
0.355122
0.308618
0.270099
0.238756
0.213646
0.193952
0.178867
0.167649
0.159631
0.154227
0.150936
0.149342
0.149103
0.149945
0.15165
0.154044
0.156986
0.160365
0.164088
0.168076
0.172258
0.176569
0.180949
0.185337
0.189673
0.193896
0.197946
0.20176
0.205278
0.208438
0.211181
0.213452
0.215199
0.216379
0.216953
0.216894
0.216183
0.214814
0.212791
0.21013
0.206858
0.203014
0.198645
0.193803
0.18855
0.18295
0.177067
0.170968
0.164717
0.158376
0.152
0.145643
0.139349
0.133159
0.127105
0.121213
0.115506
0.109999
0.104702
0.0996211
0.094759
0.090115
0.0856856
0.0814656
0.0774479
0.0736244
0.0699861
0.0665237
0.0632274
0.0600875
0.0570944
0.0542389
0.0515118
0.0489044
0.0464092
0.0440199
0.0417239
0.0395111
0.0371704
0.034705
0.0321424
0.0295136
0.0268562
0.0242124
0.021627
0.0191452
0.0168094
0.0146558
0.0127114
0.0109916
0.00949939
0.00822603
0.0071538
0.00625948
0.00551797
0.00490522
0.00439974
0.00398318
0.00364013
0.00335769
0.00312504
0.00293316
0.00277461
0.00264338
0.00253413
0.00244279
0.00235925
0.00228112
0.00220745
0.00213753
0.00207085
0.002007
0.00194565
0.00188653
0.00182946
0.00177429
0.00172094
0.00166937
0.00161956
0.00157156
0.00152542
0.00148123
0.0014391
0.00139913
0.00136147
0.00132624
0.00129357
0.00126359
0.00123642
0.00121215
0.00119087
0.00117261
0.00115742
0.00114528
0.00113618
0.00113004
0.00112679
0.00112631
0.00112849
0.0011332
0.00114031
0.00114971
0.00116131
0.00117505
0.0011909
0.00120891
0.00122915
0.00125178
0.001277
0.00130508
0.00133637
0.0013713
0.00141039
0.00145426
0.0015037
0.00155964
0.00162325
0.00169596
0.00177957
0.00187634
0.00198917
0.00212182
0.00227919
0.00246778
0.305673
0.35412
0.408857
0.46991
0.535953
0.606064
0.678833
0.752652
0.825703
0.896053
0.961704
1.02064
1.0709
1.11063
1.13822
1.15241
1.1524
1.13785
1.10895
1.06625
1.01071
0.943731
0.8674
0.784759
0.700142
0.621468
0.550235
0.48691
0.432107
0.385738
0.347471
0.316667
0.29251
0.274114
0.26061
0.251192
0.245148
0.241871
0.240849
0.241664
0.243974
0.247502
0.252024
0.257354
0.263336
0.269837
0.276737
0.283928
0.291305
0.298765
0.306208
0.313529
0.320627
0.327396
0.333732
0.339529
0.344689
0.349116
0.352722
0.35543
0.357174
0.357904
0.357581
0.356189
0.353724
0.350202
0.345659
0.340142
0.333719
0.326466
0.31847
0.309829
0.300641
0.29101
0.281036
0.270819
0.260453
0.250024
0.239613
0.229289
0.219114
0.20914
0.19941
0.189956
0.180805
0.171974
0.163476
0.155316
0.147496
0.140011
0.132856
0.126021
0.119497
0.11327
0.107327
0.101654
0.0962358
0.0910591
0.0861116
0.0813678
0.0768102
0.0719974
0.0669392
0.0616911
0.0563134
0.0508777
0.0454632
0.040154
0.0350369
0.030198
0.0257182
0.0216678
0.0180991
0.0150396
0.0124871
0.0104102
0.00875397
0.00744991
0.00642753
0.00562324
0.00498522
0.0044742
0.0040615
0.00372621
0.00345266
0.00322878
0.0030451
0.00289362
0.00276818
0.00265471
0.00254968
0.00245151
0.00235915
0.0022718
0.00218885
0.0021098
0.00203426
0.00196193
0.00189258
0.00182607
0.00176228
0.00170118
0.00164276
0.00158705
0.0015341
0.001484
0.00143683
0.00139269
0.00135169
0.00131392
0.00127947
0.00124841
0.0012208
0.00119667
0.00117603
0.00115886
0.00114511
0.00113471
0.00112754
0.00112349
0.00112241
0.00112415
0.00112854
0.00113543
0.0011447
0.00115623
0.00116994
0.00118582
0.00120388
0.00122421
0.00124695
0.0012723
0.00130053
0.00133201
0.00136714
0.00140647
0.00145063
0.00150038
0.00155668
0.00162067
0.00169379
0.00177783
0.00187504
0.00198828
0.00212129
0.00227893
0.00246771
0.309346
0.358642
0.414201
0.476616
0.544712
0.617938
0.695256
0.775484
0.857232
0.938966
1.01902
1.09561
1.16688
1.23097
1.28611
1.33081
1.36394
1.38493
1.39371
1.39066
1.37636
1.35129
1.31559
1.26901
1.21113
1.14171
1.06472
0.985243
0.905749
0.827981
0.754142
0.685998
0.624783
0.571214
0.525533
0.487589
0.456936
0.432944
0.414889
0.402024
0.393632
0.389047
0.387678
0.389004
0.392579
0.398018
0.404985
0.413209
0.422438
0.43245
0.443044
0.45403
0.465226
0.476449
0.487511
0.498223
0.508414
0.517918
0.526574
0.53423
0.540744
0.545992
0.549864
0.552275
0.553164
0.552491
0.550246
0.546439
0.541107
0.534307
0.526118
0.516634
0.505968
0.494243
0.481591
0.468148
0.454055
0.439451
0.424468
0.409237
0.393875
0.378492
0.363184
0.348038
0.333123
0.318502
0.304221
0.290317
0.276818
0.263743
0.251104
0.238906
0.227152
0.215839
0.204962
0.194515
0.184487
0.174869
0.165654
0.156802
0.148286
0.139309
0.129879
0.120101
0.110083
0.0999497
0.0898263
0.0798367
0.0700985
0.0607239
0.0518255
0.0435213
0.0359355
0.0291902
0.0233846
0.0185702
0.014731
0.0117807
0.00957963
0.00796483
0.00678089
0.00590007
0.0052291
0.00470541
0.00428876
0.00395309
0.00368065
0.00345809
0.00327548
0.00311205
0.00296234
0.00282373
0.00269454
0.00257352
0.00245971
0.00235231
0.0022507
0.00215439
0.00206299
0.00197622
0.00189387
0.0018158
0.00174193
0.00167222
0.00160665
0.00154523
0.00148799
0.00143496
0.00138617
0.00134163
0.00130137
0.00126538
0.00123363
0.00120607
0.00118264
0.00116323
0.00114773
0.00113598
0.00112781
0.00112304
0.00112147
0.0011229
0.00112711
0.00113392
0.00114317
0.00115473
0.00116851
0.00118446
0.00120261
0.00122302
0.00124584
0.00127126
0.00129957
0.00133112
0.00136633
0.00140573
0.00144995
0.00149978
0.00155615
0.00162023
0.00169343
0.00177754
0.00187482
0.00198813
0.00212119
0.00227888
0.00246769
0.29547
0.341828
0.393719
0.452166
0.516154
0.585428
0.65926
0.736839
0.817159
0.899072
0.981272
1.0623
1.14055
1.21433
1.28197
1.34196
1.39316
1.43492
1.4673
1.49097
1.50712
1.51721
1.52262
1.52433
1.52263
1.51694
1.50576
1.48684
1.45965
1.42517
1.38331
1.3344
1.27933
1.21952
1.15682
1.09326
1.03084
0.971304
0.916053
0.866076
0.821969
0.783991
0.752136
0.72621
0.7059
0.690826
0.680596
0.674797
0.673053
0.675007
0.680325
0.688697
0.69983
0.713444
0.728971
0.744878
0.76079
0.776347
0.791162
0.804781
0.816899
0.827257
0.835638
0.841856
0.845774
0.847297
0.846369
0.842974
0.837136
0.828915
0.818408
0.805744
0.791077
0.774583
0.756458
0.736912
0.716165
0.69444
0.671965
0.64896
0.625639
0.602202
0.578833
0.555693
0.532924
0.510638
0.488926
0.467848
0.447444
0.42773
0.408703
0.390347
0.372636
0.35554
0.33903
0.323083
0.30768
0.292815
0.278499
0.264684
0.251329
0.237289
0.222562
0.207325
0.191772
0.176114
0.160546
0.145229
0.130275
0.115743
0.101654
0.0880225
0.0748983
0.0624045
0.0507552
0.0402368
0.0311442
0.0236884
0.0179179
0.0136951
0.0107428
0.00873003
0.00735445
0.00638642
0.00567485
0.0051298
0.00470002
0.00435493
0.00407531
0.00382768
0.00360313
0.00339727
0.00320732
0.0030312
0.0028673
0.00271429
0.00257111
0.00243692
0.00231103
0.00219291
0.00208214
0.00197839
0.00188142
0.00179102
0.00170703
0.00162932
0.00155777
0.00149226
0.00143268
0.0013789
0.00133081
0.00128825
0.00125105
0.00121905
0.00119204
0.00116981
0.00115212
0.00113871
0.00112933
0.00112371
0.00112156
0.00112262
0.00112662
0.00113335
0.00114259
0.00115418
0.00116802
0.00118404
0.00120226
0.00122274
0.00124562
0.0012711
0.00129946
0.00133103
0.00136627
0.00140569
0.00144993
0.00149976
0.00155614
0.00162022
0.00169342
0.00177754
0.00187482
0.00198813
0.00212119
0.00227888
0.00246769
0.269498
0.310334
0.355643
0.406647
0.462499
0.523141
0.588083
0.656792
0.72857
0.802589
0.877866
0.953254
1.02744
1.09899
1.16642
1.22831
1.28351
1.33134
1.3717
1.40517
1.433
1.45685
1.4786
1.50006
1.52273
1.54763
1.57522
1.60541
1.63775
1.67109
1.70442
1.73653
1.76619
1.79208
1.81297
1.82774
1.83551
1.83577
1.82838
1.81364
1.79218
1.76493
1.73298
1.69745
1.65948
1.62013
1.5804
1.5412
1.50341
1.46783
1.43523
1.40632
1.38172
1.36197
1.34785
1.34117
1.34217
1.35082
1.36693
1.38264
1.39697
1.40953
1.41975
1.42673
1.42997
1.42921
1.42428
1.41512
1.40171
1.38415
1.36258
1.33719
1.30821
1.27589
1.24053
1.20245
1.16201
1.11959
1.07559
1.03045
0.984622
0.938564
0.892736
0.847586
0.80354
0.76098
0.720239
0.68158
0.645189
0.611166
0.579519
0.550171
0.52296
0.497663
0.474014
0.451737
0.430576
0.410325
0.390867
0.372075
0.353815
0.334703
0.314765
0.294314
0.273733
0.253438
0.233814
0.215156
0.197608
0.181137
0.165524
0.150411
0.13537
0.12002
0.10415
0.0878444
0.0715491
0.0560327
0.0422016
0.0308104
0.0221984
0.0162037
0.0122976
0.00983522
0.00826271
0.00720246
0.00643688
0.00585282
0.00539334
0.00499327
0.0046356
0.00431206
0.00401738
0.00374764
0.00349976
0.00327126
0.00306013
0.00286476
0.00268384
0.00251628
0.00236122
0.00221791
0.00208576
0.00196423
0.00185284
0.00175117
0.0016588
0.00157534
0.00150041
0.00143362
0.00137458
0.0013229
0.0012782
0.00124008
0.00120815
0.001182
0.00116125
0.0011455
0.00113434
0.00112741
0.00112431
0.0011247
0.00112826
0.00113468
0.00114373
0.00115521
0.00116898
0.00118496
0.00120316
0.00122362
0.00124648
0.00127194
0.00130027
0.00133181
0.00136701
0.00140638
0.00145056
0.00150034
0.00155665
0.00162065
0.00169378
0.00177783
0.00187503
0.00198828
0.00212129
0.00227893
0.00246771
0.239311
0.273638
0.311366
0.353696
0.39994
0.450145
0.503983
0.561113
0.621058
0.683236
0.746925
0.811257
0.875207
0.937615
0.997246
1.05289
1.10349
1.14834
1.18722
1.22046
1.249
1.27422
1.29781
1.32151
1.34695
1.37551
1.40824
1.44582
1.48862
1.53681
1.59052
1.64986
1.71484
1.78542
1.8615
1.94292
2.02945
2.12081
2.21666
2.31661
2.42021
2.52697
2.63622
2.74709
2.85838
2.96851
3.07544
3.17671
3.26946
3.35058
3.41691
3.46546
3.49386
3.50068
3.48559
3.44947
3.3946
3.32448
3.24342
3.16718
3.10204
3.05207
3.02042
2.9875
2.94954
2.90737
2.86143
2.8112
2.75622
2.69637
2.63171
2.56239
2.4886
2.41057
2.32855
2.24276
2.15342
2.06078
1.96513
1.86683
1.76632
1.66417
1.56107
1.45782
1.35538
1.2548
1.15725
1.0639
0.97592
0.894374
0.820123
0.753741
0.695431
0.644974
0.601727
0.564677
0.53256
0.504041
0.477945
0.453323
0.42943
0.404404
0.37824
0.351417
0.324629
0.298695
0.274436
0.252569
0.233595
0.217722
0.204802
0.194324
0.185426
0.176953
0.167561
0.155907
0.140952
0.122368
0.1009
0.0784137
0.0574016
0.0400577
0.0274404
0.0192665
0.014399
0.0115702
0.00984037
0.0086752
0.00782246
0.0071062
0.00648181
0.00592875
0.00543435
0.00498949
0.00458722
0.00422207
0.00388971
0.00358663
0.00330998
0.00305742
0.00282699
0.00261705
0.00242618
0.00225312
0.00209674
0.001956
0.00182992
0.00171758
0.00161806
0.00153051
0.00145406
0.00138791
0.00133127
0.00128337
0.0012435
0.00121095
0.00118508
0.00116526
0.0011509
0.00114145
0.00113639
0.00113525
0.0011376
0.00114309
0.00115139
0.00116228
0.00117556
0.00119114
0.001209
0.00122916
0.00125175
0.00127695
0.00130503
0.00133632
0.00137125
0.00141034
0.00145423
0.00150367
0.00155962
0.00162324
0.00169595
0.00177956
0.00187633
0.00198917
0.00212182
0.00227919
0.00246778
0.211933
0.24013
0.270842
0.305096
0.342345
0.382667
0.425833
0.471617
0.519688
0.56963
0.620917
0.6729
0.724798
0.775714
0.824676
0.870712
0.912958
0.950788
0.983936
1.01258
1.03735
1.05925
1.07957
1.09969
1.12098
1.14472
1.17202
1.20385
1.24105
1.28442
1.33474
1.39271
1.45891
1.53384
1.61797
1.71168
1.8153
1.92911
2.0533
2.18802
2.33343
2.48973
2.65724
2.83628
3.02725
3.23055
3.44664
3.67612
3.91962
4.17794
4.45183
4.74155
5.04646
5.36444
5.69103
6.01856
6.33585
6.62875
6.88163
7.07663
7.1967
7.22838
7.16365
7.04225
6.88895
6.72035
6.55073
6.37164
6.17811
5.97378
5.76317
5.54909
5.33319
5.1165
4.8998
4.68356
4.46778
4.25223
4.03651
3.82018
3.60277
3.38389
3.16323
2.94067
2.71638
2.49094
2.26546
2.04168
1.82202
1.6097
1.40858
1.22296
1.05705
0.914351
0.796825
0.704321
0.634307
0.582209
0.542417
0.509537
0.479461
0.4484
0.415654
0.381608
0.347204
0.313662
0.282263
0.254186
0.230386
0.211525
0.197939
0.189635
0.186276
0.187131
0.190989
0.19603
0.19972
0.198877
0.190177
0.171372
0.14296
0.1091
0.0762909
0.0501485
0.0327815
0.0228368
0.0175485
0.0146129
0.012761
0.0113233
0.0101264
0.00909865
0.00820133
0.00740924
0.00670463
0.00607432
0.00550824
0.00499848
0.00453872
0.00412383
0.00374959
0.00341244
0.00310932
0.00283756
0.00259477
0.00237876
0.00218751
0.00201908
0.00187163
0.0017434
0.0016327
0.00153789
0.00145745
0.0013899
0.0013339
0.00128818
0.00125159
0.00122305
0.00120162
0.00118643
0.00117671
0.00117176
0.001171
0.00117392
0.0011801
0.00118921
0.001201
0.00121531
0.00123206
0.00125126
0.00127299
0.00129739
0.00132471
0.00135524
0.00138938
0.00142763
0.00147059
0.00151899
0.00157375
0.00163599
0.00170713
0.00178897
0.00188379
0.00199458
0.00212525
0.00228091
0.0024683
0.19196
0.215211
0.240329
0.268122
0.298156
0.330495
0.364963
0.401392
0.439535
0.47908
0.519627
0.560678
0.601636
0.641806
0.68044
0.716783
0.750163
0.780086
0.806325
0.82899
0.848528
0.865675
0.881362