/*--------------------------------*- C++ -*----------------------------------*\
| =========                 |                                                 |
| \\      /  F ield         | OpenFOAM: The Open Source CFD Toolbox           |
|  \\    /   O peration     | Version:  2406                                  |
|   \\  /    A nd           | Website:  www.openfoam.com                      |
|    \\/     M anipulation  |                                                 |
\*---------------------------------------------------------------------------*/
FoamFile
{
    version     2.0;
    format      ascii;
    arch        "LSB;label=32;scalar=64";
    class       volScalarField;
    location    "800";
    object      k;
}
// * * * * * * * * * * * * * * * * * * * * * * * * * * * * * * * * * * * * * //

dimensions      [0 2 -2 0 0 0 0];

internalField   nonuniform List<scalar> 
5619
(
0.0403599
0.041885
0.0432493
0.0446104
0.0458633
0.0470108
0.0480583
0.0490309
0.0499534
0.0508422
0.0517001
0.0525195
0.0532877
0.0539897
0.0546088
0.0551259
0.0555184
0.0557613
0.0558308
0.0557092
0.0553912
0.054887
0.0542174
0.0534118
0.0525067
0.0515484
0.0505887
0.0496806
0.0488735
0.0482087
0.0477143
0.0474006
0.0472558
0.0472661
0.0474079
0.0476576
0.0479919
0.048388
0.0488239
0.0492782
0.0497309
0.050163
0.0505568
0.0508961
0.0511666
0.0513559
0.0514537
0.0514521
0.0513455
0.0511308
0.0508071
0.0503757
0.04984
0.0492048
0.0484764
0.0476617
0.0467789
0.0458531
0.0448958
0.0439173
0.0429269
0.041933
0.0409428
0.0399625
0.0389973
0.0380513
0.0371281
0.0362301
0.0353594
0.0345172
0.0337044
0.0329214
0.0321682
0.0314446
0.0307501
0.0300839
0.0294454
0.0288334
0.0282471
0.0276853
0.0271469
0.0266308
0.0261357
0.0256607
0.0252044
0.0247659
0.0243441
0.0239377
0.023546
0.0231677
0.022802
0.022448
0.0221047
0.0217713
0.021447
0.021131
0.0208226
0.020521
0.0202256
0.0199357
0.019651
0.019342
0.0190087
0.0186518
0.0182728
0.0178738
0.0174577
0.0170279
0.0165887
0.0161445
0.0157002
0.0152607
0.0148305
0.0144141
0.014015
0.0136362
0.01328
0.0129479
0.0126407
0.0123584
0.0121006
0.0118666
0.0116552
0.011465
0.0112946
0.0111425
0.0110072
0.010887
0.0107807
0.0106768
0.0105747
0.0104738
0.0103736
0.0102737
0.0101737
0.0100733
0.00997196
0.00986954
0.00976574
0.00966033
0.00955314
0.00944403
0.00933289
0.0092197
0.00910447
0.00898725
0.0088682
0.0087475
0.00862542
0.00850231
0.00837857
0.00825471
0.00813129
0.00800894
0.00788837
0.00777034
0.00765566
0.00754517
0.00743972
0.00734016
0.00724727
0.00716182
0.00708445
0.00701569
0.00695591
0.00690535
0.00686403
0.00683181
0.00680836
0.0067932
0.0067857
0.00678511
0.00679081
0.00680201
0.00681807
0.00683888
0.00686551
0.00690117
0.00695276
0.00703272
0.00716032
0.00736053
0.00765668
0.00805034
0.00846876
0.00861758
0.00760479
0.0420265
0.0437476
0.0457153
0.0476425
0.0494839
0.0511484
0.0525969
0.0538372
0.0549181
0.055895
0.0568011
0.0576401
0.0583943
0.0590373
0.059541
0.0598785
0.0600227
0.0599451
0.0596162
0.0590083
0.0581034
0.0569045
0.0554663
0.0538528
0.052066
0.0501068
0.0479707
0.0456521
0.043154
0.0404986
0.0377338
0.0349436
0.0322531
0.0297432
0.0274429
0.0253624
0.0235007
0.0218489
0.0203916
0.01911
0.0179836
0.0169918
0.016115
0.0153352
0.0146365
0.0140052
0.0134298
0.0129006
0.0124099
0.0119517
0.0115216
0.0111164
0.0107343
0.0103757
0.0100417
0.00973426
0.00945004
0.00918049
0.0089243
0.00868047
0.00844823
0.00822698
0.00801626
0.0078157
0.007625
0.00744388
0.00727212
0.00710945
0.00695564
0.00681042
0.00667352
0.00654465
0.00642349
0.00630973
0.00620303
0.00610304
0.00600942
0.00592183
0.00583993
0.00576338
0.00569185
0.00562503
0.00556261
0.00550431
0.00544985
0.00539898
0.00535144
0.00530702
0.00526549
0.00522667
0.00519037
0.00515641
0.00512465
0.00509494
0.00506715
0.00504117
0.00501689
0.00499421
0.00497306
0.00495331
0.00493494
0.00491614
0.00489714
0.0048784
0.00486036
0.00484356
0.00482856
0.00481593
0.00480622
0.00479988
0.00479728
0.00479862
0.00480395
0.00481317
0.00482598
0.004842
0.00486069
0.00488151
0.00490384
0.00492711
0.00495079
0.00497441
0.00499756
0.00501993
0.00504126
0.00506139
0.00508021
0.0050976
0.00511358
0.00512979
0.00514627
0.00516311
0.00518037
0.00519813
0.00521648
0.00523549
0.00525527
0.0052759
0.00529747
0.00532007
0.00534381
0.00536877
0.00539504
0.00542271
0.00545186
0.00548256
0.00551485
0.00554879
0.00558438
0.00562162
0.00566047
0.00570083
0.00574259
0.00578556
0.0058295
0.00587413
0.00591907
0.00596391
0.00600814
0.00605123
0.00609257
0.00613153
0.00616744
0.00619963
0.00622739
0.00624999
0.00626668
0.0062766
0.00627872
0.00627174
0.00625391
0.00622282
0.00618034
0.00612502
0.00605098
0.00595038
0.00581316
0.00562747
0.00538163
0.00506868
0.00469374
0.00428274
0.00388677
0.00357551
0.00342087
0.003484
0.00379533
0.0414171
0.0427068
0.0439526
0.0449125
0.0456191
0.0461202
0.0465145
0.0468882
0.0472765
0.0476624
0.0480041
0.0482561
0.0483764
0.0483263
0.0480708
0.0475773
0.046815
0.0457565
0.0443802
0.0426775
0.0406596
0.0383647
0.0358533
0.0332111
0.0305161
0.0278404
0.0252556
0.0228286
0.020616
0.0186598
0.0169853
0.015594
0.0144566
0.0135393
0.0128037
0.012215
0.0117436
0.0113649
0.0110593
0.010811
0.0106072
0.0104377
0.0102945
0.0101708
0.0100614
0.00996225
0.00986993
0.00978196
0.00969657
0.00961243
0.00952707
0.00943984
0.00935035
0.00925744
0.00916031
0.00905829
0.00895079
0.0088375
0.0087184
0.00859361
0.00846339
0.00832811
0.00818825
0.00804437
0.00789712
0.00774718
0.00759528
0.00744214
0.00728849
0.00713506
0.00698251
0.00683147
0.00668251
0.00653614
0.00639278
0.0062528
0.00611651
0.00598412
0.00585582
0.00573171
0.00561186
0.00549629
0.00538498
0.00527788
0.00517491
0.00507599
0.00498098
0.00488978
0.00480225
0.00471824
0.00463762
0.00456025
0.00448597
0.00441466
0.00434618
0.00428041
0.00421721
0.0041565
0.0040982
0.00404204
0.00398806
0.00393086
0.00387065
0.00380828
0.00374463
0.00368079
0.00361794
0.00355739
0.0035004
0.00344815
0.00340167
0.00336173
0.00332879
0.00330303
0.00328429
0.00327218
0.00326608
0.00326521
0.00326874
0.0032758
0.00328555
0.00329722
0.00331014
0.00332373
0.00333753
0.00335116
0.00336437
0.00337689
0.00338866
0.00340083
0.0034134
0.00342645
0.00344005
0.00345425
0.00346912
0.00348476
0.00350123
0.00351864
0.00353708
0.00355663
0.00357741
0.0035995
0.00362302
0.00364805
0.00367468
0.00370299
0.00373305
0.0037649
0.00379854
0.00383396
0.00387109
0.00390981
0.00394992
0.00399116
0.00403316
0.00407547
0.00411752
0.00415861
0.00419793
0.00423455
0.00426744
0.00429547
0.00431744
0.0043321
0.00433818
0.00433444
0.00431969
0.00429279
0.00425274
0.00419872
0.00413017
0.00404841
0.00395432
0.00384698
0.00372571
0.00359042
0.00344211
0.00328365
0.00312063
0.00296229
0.00282217
0.00271814
0.00267186
0.00270798
0.00285261
0.00312709
0.00351414
0.044806
0.0460216
0.0468589
0.0470188
0.046459
0.0452303
0.0435381
0.0417024
0.0400569
0.0388048
0.0379403
0.0373061
0.0367187
0.0360464
0.0352182
0.0342042
0.0329988
0.0316121
0.0300668
0.0283967
0.0266443
0.0248572
0.0230837
0.0213666
0.0197401
0.0182304
0.0168606
0.0156499
0.0146113
0.013749
0.0130577
0.0125227
0.0121222
0.0118326
0.0116314
0.0114982
0.0114159
0.0113698
0.0113492
0.0113464
0.0113552
0.0113714
0.0113915
0.0114133
0.011435
0.0114555
0.0114737
0.011488
0.0114972
0.0115007
0.0114987
0.0114909
0.0114767
0.0114553
0.0114263
0.0113892
0.0113436
0.011289
0.0112252
0.0111519
0.0110689
0.0109764
0.0108743
0.010763
0.0106426
0.0105137
0.0103768
0.0102325
0.0100816
0.00992478
0.00976291
0.00959677
0.00942719
0.00925497
0.00908086
0.0089056
0.00872985
0.00855422
0.00837924
0.00820541
0.00803313
0.00786274
0.00769455
0.00752878
0.00736561
0.00720519
0.0070476
0.00689292
0.00674116
0.00659234
0.00644645
0.00630344
0.00616327
0.00602589
0.00589124
0.00575923
0.0056298
0.00550291
0.0053786
0.00525632
0.0051361
0.00500632
0.00486651
0.00471788
0.00456175
0.00439999
0.00423486
0.00406898
0.00390514
0.00374619
0.00359478
0.00345322
0.00332329
0.00320618
0.00310244
0.00301203
0.00293443
0.00286875
0.00281384
0.00276847
0.00273133
0.00270121
0.00267696
0.00265755
0.0026421
0.00262987
0.00262024
0.0026126
0.00260657
0.00260135
0.00259679
0.00259288
0.00258959
0.0025869
0.00258482
0.00258334
0.00258249
0.00258228
0.00258277
0.00258397
0.00258596
0.00258878
0.00259249
0.00259715
0.00260283
0.00260958
0.00261744
0.00262646
0.00263666
0.00264804
0.00266056
0.00267414
0.00268868
0.00270398
0.0027198
0.00273583
0.00275168
0.00276686
0.00278083
0.00279297
0.00280261
0.00280905
0.0028116
0.00280964
0.00280263
0.00279017
0.0027721
0.00274848
0.00271972
0.00268659
0.00265029
0.00261178
0.00257187
0.00253182
0.00249327
0.00245823
0.00242927
0.00240958
0.0024031
0.00241463
0.00244992
0.00251563
0.00261925
0.00276859
0.00297001
0.00322295
0.00350598
0.0514363
0.0531762
0.0543936
0.0547024
0.0539208
0.051951
0.0488571
0.0448964
0.0405074
0.0362198
0.0325025
0.0296104
0.0275297
0.0260614
0.0249645
0.0240533
0.0232181
0.0224069
0.0216013
0.0207996
0.0200074
0.0192323
0.0184833
0.017759
0.0170615
0.016395
0.0157668
0.0151865
0.014665
0.0142117
0.0138328
0.0135294
0.0132983
0.0131323
0.0130224
0.0129587
0.0129315
0.012933
0.0129557
0.0129934
0.0130414
0.0130962
0.0131547
0.0132151
0.0132754
0.0133344
0.0133908
0.0134444
0.0134947
0.0135411
0.0135827
0.0136191
0.0136496
0.0136733
0.0136897
0.013698
0.0136976
0.0136878
0.0136681
0.0136379
0.0135968
0.0135446
0.0134808
0.0134056
0.013319
0.013221
0.0131121
0.0129926
0.0128631
0.0127242
0.0125766
0.012421
0.0122582
0.0120891
0.0119145
0.011735
0.0115516
0.011365
0.0111759
0.0109848
0.0107924
0.0105992
0.0104057
0.0102121
0.010019
0.00982646
0.00963479
0.00944415
0.00925466
0.00906642
0.00887949
0.00869388
0.00850961
0.00832667
0.00814503
0.00796464
0.00778543
0.00760743
0.00743078
0.00725459
0.00707851
0.00688631
0.00667611
0.00644889
0.00620595
0.00594943
0.00568227
0.00540815
0.00513135
0.00485655
0.00458846
0.00433155
0.00408965
0.00386575
0.00366184
0.00347884
0.00331676
0.00317484
0.00305175
0.00294582
0.0028552
0.00277803
0.00271251
0.00265699
0.00260997
0.00257018
0.00253652
0.00250787
0.00248347
0.00246053
0.00243864
0.00241773
0.00239765
0.00237832
0.00235966
0.00234161
0.00232412
0.00230717
0.00229076
0.00227488
0.00225955
0.00224481
0.0022307
0.00221727
0.00220459
0.00219272
0.00218173
0.0021717
0.0021627
0.00215479
0.00214803
0.00214245
0.00213807
0.00213489
0.00213287
0.00213194
0.002132
0.00213293
0.00213456
0.00213673
0.00213923
0.00214191
0.00214459
0.00214717
0.00214961
0.00215195
0.00215436
0.0021571
0.0021606
0.00216539
0.00217215
0.00218152
0.00219378
0.00220982
0.00223075
0.00225782
0.00229251
0.00233653
0.00239191
0.002461
0.00254654
0.0026516
0.0027794
0.00293283
0.00311329
0.00331826
0.00353768
0.0606705
0.0634666
0.065796
0.067219
0.0674611
0.066301
0.0636247
0.0594676
0.0540521
0.0478014
0.0413053
0.0352067
0.0300283
0.0260297
0.0231852
0.0212795
0.020041
0.0192332
0.0186868
0.0182936
0.0179886
0.0177334
0.0174995
0.0172693
0.0170357
0.0167944
0.0165448
0.0162894
0.0160341
0.0157872
0.0155578
0.0153548
0.0151846
0.0150511
0.0149553
0.0148954
0.0148677
0.0148676
0.0148901
0.0149302
0.0149838
0.0150471
0.0151171
0.0151911
0.0152673
0.0153438
0.0154193
0.0154927
0.0155628
0.0156289
0.0156899
0.0157452
0.015794
0.0158357
0.0158695
0.0158949
0.0159112
0.0159179
0.0159147
0.015901
0.0158765
0.015841
0.0157943
0.0157363
0.0156669
0.0155864
0.0154949
0.0153925
0.0152797
0.015157
0.0150247
0.0148834
0.0147337
0.0145762
0.0144116
0.0142406
0.0140637
0.0138817
0.0136952
0.0135048
0.013311
0.0131144
0.0129154
0.0127145
0.012512
0.0123083
0.0121037
0.0118982
0.0116923
0.0114858
0.011279
0.0110719
0.0108646
0.0106569
0.0104488
0.0102404
0.0100315
0.00982214
0.00961245
0.0094013
0.00918774
0.00895266
0.00869274
0.00840832
0.00810018
0.00777024
0.00742152
0.00705816
0.00668541
0.00630931
0.00593643
0.00557336
0.00522619
0.00490009
0.0045989
0.00432507
0.00407956
0.00386211
0.00367147
0.00350573
0.00336258
0.00323953
0.00313415
0.0030441
0.00296724
0.00290169
0.00284585
0.00279802
0.00275695
0.0027182
0.00268102
0.00264523
0.00261061
0.00257699
0.00254423
0.00251223
0.0024809
0.00245018
0.00242005
0.00239049
0.00236152
0.00233317
0.00230549
0.00227856
0.00225247
0.00222732
0.00220323
0.00218034
0.00215877
0.00213865
0.00212013
0.00210333
0.00208837
0.00207534
0.00206434
0.00205541
0.00204859
0.0020439
0.00204132
0.00204081
0.00204234
0.00204584
0.00205128
0.00205861
0.00206785
0.00207901
0.00209218
0.00210751
0.00212519
0.00214547
0.0021687
0.00219525
0.00222562
0.00226027
0.00229985
0.00234517
0.00239715
0.00245689
0.00252562
0.00260476
0.00269586
0.00280057
0.0029205
0.00305689
0.0032102
0.0033793
0.00356095
0.0722244
0.0765261
0.0805594
0.0838504
0.0860605
0.0868857
0.0860802
0.0834965
0.0791233
0.0731154
0.0658081
0.0577064
0.0494397
0.0416655
0.0349294
0.0295398
0.0255332
0.0227407
0.020899
0.0197423
0.01905
0.0186586
0.0184296
0.0182802
0.0181766
0.0180984
0.0180313
0.0179655
0.0178951
0.0178178
0.0177346
0.017649
0.0175663
0.0174921
0.0174315
0.0173881
0.0173638
0.0173588
0.0173718
0.0174008
0.017443
0.0174954
0.0175552
0.0176197
0.0176863
0.0177529
0.0178174
0.0178781
0.0179336
0.0179825
0.0180238
0.0180566
0.0180801
0.0180938
0.0180971
0.01809
0.0180721
0.0180437
0.0180046
0.0179552
0.0178957
0.0178265
0.017748
0.0176605
0.0175645
0.0174605
0.0173487
0.0172297
0.0171037
0.0169712
0.0168326
0.0166881
0.0165381
0.0163829
0.0162228
0.0160581
0.0158891
0.0157161
0.0155395
0.0153594
0.0151761
0.01499
0.0148012
0.0146099
0.0144164
0.0142208
0.0140233
0.0138239
0.0136227
0.0134199
0.0132153
0.013009
0.012801
0.0125911
0.0123794
0.0121656
0.0119496
0.0117313
0.0115109
0.0112871
0.0110584
0.0108045
0.0105208
0.0102067
0.00986217
0.0094881
0.00908684
0.00866214
0.00821931
0.00776506
0.00730721
0.00685422
0.00641452
0.00599583
0.00560449
0.00524506
0.00492015
0.00463048
0.00437524
0.00415247
0.00395947
0.0037932
0.00365052
0.00352842
0.00342407
0.003335
0.00325905
0.00319398
0.00313802
0.00308531
0.00303477
0.00298606
0.00293889
0.00289301
0.00284824
0.00280441
0.00276141
0.00271915
0.00267758
0.00263668
0.00259647
0.00255699
0.0025183
0.0024805
0.0024437
0.00240806
0.00237373
0.00234087
0.00230969
0.00228037
0.00225309
0.00222806
0.00220544
0.00218538
0.00216804
0.0021535
0.00214186
0.00213315
0.0021274
0.00212457
0.00212463
0.00212752
0.00213316
0.00214149
0.00215245
0.00216599
0.00218213
0.00220089
0.00222236
0.00224669
0.00227407
0.00230476
0.00233909
0.00237757
0.00242059
0.00246871
0.00252256
0.00258288
0.00265053
0.00272641
0.00281155
0.00290702
0.00301386
0.00313307
0.00326547
0.00341173
0.00357272
0.0856928
0.0918625
0.098061
0.103803
0.108705
0.112415
0.1146
0.114982
0.11337
0.109689
0.104003
0.0965255
0.0876245
0.0778089
0.0676911
0.0579167
0.0490635
0.0415383
0.0355199
0.0309726
0.0277123
0.0254872
0.0240316
0.0230091
0.0222742
0.021747
0.0213752
0.0211211
0.0209553
0.0208543
0.0207995
0.0207763
0.0207744
0.0207872
0.0208106
0.020843
0.0208836
0.0209322
0.0209884
0.0210517
0.0211208
0.0211941
0.0212696
0.0213448
0.0214175
0.0214851
0.021545
0.0215949
0.0216326
0.021656
0.0216632
0.0216529
0.0216239
0.0215752
0.0215064
0.0214176
0.0213089
0.0211811
0.0210352
0.0208725
0.0206946
0.0205033
0.0203003
0.0200877
0.0198674
0.0196413
0.0194111
0.0191785
0.0189448
0.0187114
0.0184793
0.0182493
0.0180221
0.0177981
0.0175775
0.0173606
0.0171473
0.0169375
0.0167311
0.0165279
0.0163274
0.0161296
0.0159339
0.0157401
0.0155478
0.0153567
0.0151663
0.0149765
0.0147868
0.0145969
0.0144065
0.0142152
0.0140228
0.0138289
0.0136331
0.0134351
0.0132346
0.0130313
0.0128251
0.0126144
0.0123979
0.0121558
0.0118828
0.0115774
0.0112381
0.0108644
0.0104567
0.0100172
0.00954954
0.00905927
0.00855386
0.00804234
0.00753474
0.00704128
0.00657143
0.00613305
0.00573175
0.00537063
0.00505039
0.0047698
0.00452627
0.00431636
0.00413633
0.00398242
0.00385108
0.00373914
0.00364386
0.00356239
0.00349243
0.00342682
0.00336406
0.00330368
0.00324527
0.00318853
0.00313319
0.00307906
0.00302598
0.00297383
0.00292255
0.0028721
0.00282249
0.00277377
0.002726
0.00267932
0.00263384
0.00258975
0.00254722
0.00250647
0.00246771
0.00243118
0.0023971
0.0023657
0.00233717
0.00231171
0.00228948
0.0022706
0.00225516
0.0022432
0.00223472
0.0022297
0.00222805
0.00222968
0.00223447
0.00224229
0.00225302
0.00226657
0.00228286
0.00230185
0.00232356
0.00234806
0.00237547
0.00240597
0.00243981
0.00247729
0.00251886
0.00256491
0.00261592
0.00267246
0.00273519
0.00280485
0.00288228
0.00296843
0.00306437
0.00317137
0.00329098
0.00342523
0.00357706
0.0999474
0.108135
0.116678
0.125117
0.133036
0.140079
0.145878
0.150097
0.152453
0.152738
0.150841
0.146747
0.140547
0.132437
0.122717
0.111789
0.100146
0.0883474
0.0769712
0.0665432
0.0574613
0.0499439
0.0440464
0.0396271
0.0361997
0.0335348
0.0314804
0.0299192
0.0287574
0.0279175
0.0273343
0.0269531
0.0267286
0.0266238
0.0266093
0.0266621
0.0267648
0.026904
0.0270695
0.0272535
0.0274498
0.0276528
0.0278579
0.0280604
0.028256
0.0284404
0.0286091
0.0287578
0.0288824
0.0289788
0.029043
0.0290716
0.0290614
0.0290097
0.0289147
0.0287749
0.0285897
0.0283593
0.0280847
0.0277676
0.0274105
0.0270165
0.0265895
0.0261336
0.0256533
0.0251535
0.024639
0.0241147
0.0235852
0.0230549
0.022528
0.0220079
0.021498
0.0210008
0.0205187
0.0200532
0.0196057
0.0191768
0.0187672
0.0183767
0.0180052
0.0176521
0.0173168
0.0169984
0.0166959
0.0164082
0.0161341
0.0158726
0.0156225
0.0153825
0.0151515
0.0149284
0.0147121
0.0145016
0.0142958
0.0140937
0.0138944
0.013697
0.013501
0.0133042
0.0131054
0.0128857
0.0126403
0.0123678
0.0120661
0.0117335
0.0113683
0.0109699
0.0105385
0.0100759
0.009586
0.00907482
0.00855079
0.00802422
0.00750647
0.00700886
0.00654134
0.00611152
0.00572407
0.00538066
0.00508042
0.00482065
0.00459759
0.004407
0.00424465
0.0041066
0.00398941
0.00388956
0.00380412
0.00372442
0.00364853
0.00357576
0.00350558
0.00343758
0.00337144
0.00330691
0.00324378
0.00318191
0.00312121
0.00306163
0.00300316
0.00294586
0.00288979
0.0028351
0.00278191
0.00273043
0.00268085
0.00263341
0.00258834
0.0025459
0.00250632
0.00246984
0.00243667
0.00240702
0.00238104
0.00235885
0.00234051
0.00232607
0.00231548
0.00230869
0.00230557
0.00230599
0.00230977
0.00231673
0.0023267
0.00233952
0.00235507
0.00237326
0.00239406
0.00241749
0.00244363
0.00247261
0.00250464
0.00253997
0.00257893
0.00262194
0.00266943
0.00272193
0.00278004
0.00284451
0.00291619
0.00299613
0.0030856
0.00318618
0.00329989
0.0034294
0.00357821
0.112971
0.122989
0.133629
0.144506
0.15519
0.16535
0.174627
0.182683
0.18921
0.193954
0.196713
0.197352
0.195796
0.192038
0.186138
0.178228
0.16851
0.157252
0.144788
0.131522
0.117932
0.104561
0.0919704
0.0807696
0.0714655
0.0636563
0.0572159
0.0519833
0.0478089
0.0445403
0.0420339
0.0401581
0.0387964
0.0378483
0.0372295
0.0368705
0.0367154
0.0367196
0.0368474
0.0370708
0.0373673
0.0377189
0.0381105
0.0385294
0.0389646
0.0394059
0.0398442
0.0402707
0.0406769
0.0410547
0.0413962
0.0416939
0.0419402
0.0421285
0.0422522
0.0423055
0.0422836
0.0421823
0.0419985
0.0417304
0.0413771
0.0409395
0.0404193
0.0398197
0.0391452
0.0384013
0.0375944
0.0367319
0.0358217
0.0348722
0.033892
0.0328898
0.031874
0.0308528
0.0298341
0.0288248
0.0278315
0.0268598
0.0259147
0.0250001
0.0241194
0.023275
0.0224688
0.0217017
0.0209742
0.0202863
0.0196373
0.0190265
0.0184524
0.0179136
0.0174084
0.0169349
0.0164912
0.0160752
0.0156849
0.0153183
0.0149735
0.0146484
0.0143416
0.01405
0.0137714
0.0134793
0.0131725
0.0128529
0.0125218
0.0121797
0.0118263
0.0114602
0.011079
0.0106794
0.0102587
0.00981477
0.00934807
0.00886189
0.00836297
0.00786102
0.00736764
0.00689471
0.0064526
0.00604895
0.00568797
0.00537062
0.00509529
0.00485868
0.00465663
0.0044848
0.0043391
0.00421535
0.00410986
0.00401206
0.00391945
0.00383102
0.00374606
0.00366407
0.00358463
0.00350742
0.00343218
0.00335873
0.00328695
0.00321676
0.00314816
0.00308118
0.00301592
0.00295248
0.00289105
0.0028318
0.00277497
0.00272078
0.00266948
0.00262133
0.00257657
0.00253543
0.00249812
0.00246481
0.00243564
0.00241071
0.00239004
0.00237363
0.00236141
0.00235326
0.00234901
0.00234848
0.00235143
0.00235765
0.00236691
0.00237902
0.0023938
0.00241114
0.00243099
0.00245333
0.00247823
0.00250581
0.00253625
0.00256982
0.00260681
0.00264762
0.00269271
0.00274262
0.002798
0.0028596
0.00292837
0.00300544
0.0030922
0.00319037
0.00330215
0.00343031
0.00357842
0.122391
0.133709
0.145795
0.158389
0.171057
0.183522
0.195456
0.206554
0.216523
0.225104
0.232068
0.237224
0.240416
0.24153
0.240502
0.237323
0.232046
0.224782
0.215684
0.204939
0.192748
0.179334
0.164974
0.150043
0.135085
0.121207
0.108615
0.0973859
0.0876119
0.0792807
0.0723367
0.0666734
0.0621527
0.0586234
0.0559351
0.0539474
0.0525352
0.0515906
0.0510228
0.0507568
0.0507316
0.0508978
0.0512155
0.0516524
0.0521822
0.0527831
0.0534363
0.0541259
0.0548374
0.0555577
0.0562742
0.0569753
0.0576496
0.0582859
0.0588735
0.0594018
0.0598606
0.0602404
0.0605318
0.0607267
0.0608175
0.0607976
0.0606615
0.0604051
0.0600253
0.0595209
0.0588918
0.0581399
0.0572683
0.0562819
0.0551868
0.0539907
0.0527024
0.0513316
0.0498891
0.0483859
0.046834
0.045245
0.0436308
0.042003
0.0403726
0.0387503
0.0371456
0.0355675
0.0340239
0.0325216
0.0310665
0.0296632
0.0283156
0.0270263
0.0257972
0.0246293
0.0235228
0.0224772
0.0214915
0.0205641
0.0196933
0.0188769
0.018113
0.0173975
0.0167266
0.0160382
0.0153375
0.0146374
0.0139503
0.0132888
0.0126633
0.0120814
0.0115462
0.0110559
0.0106037
0.0101792
0.00976962
0.00936237
0.00894759
0.00852005
0.00808034
0.00763459
0.00719292
0.006767
0.00636754
0.00600249
0.00567622
0.00538973
0.00514145
0.00492831
0.00474656
0.00459185
0.00446005
0.00433832
0.00422349
0.00411416
0.00400945
0.00390871
0.00381146
0.00371729
0.0036259
0.00353706
0.00345061
0.00336649
0.00328466
0.00320517
0.00312811
0.00305361
0.00298185
0.00291302
0.00284736
0.00278511
0.0027265
0.00267179
0.00262119
0.00257493
0.00253318
0.00249606
0.00246369
0.00243609
0.00241324
0.00239508
0.00238148
0.00237224
0.00236716
0.00236597
0.00236841
0.00237418
0.00238304
0.00239475
0.00240911
0.00242599
0.0024453
0.00246705
0.00249127
0.0025181
0.00254772
0.00258039
0.00261642
0.00265621
0.00270023
0.00274904
0.00280331
0.00286384
0.00293159
0.00300772
0.00309367
0.00319121
0.00330253
0.00343043
0.00357844
0.126434
0.138306
0.150959
0.164289
0.177877
0.191505
0.204894
0.217783
0.229914
0.241048
0.250959
0.259438
0.266293
0.271359
0.274506
0.275654
0.27479
0.271971
0.267323
0.26102
0.253254
0.244202
0.233989
0.22268
0.210303
0.196868
0.182893
0.169008
0.155489
0.142529
0.130389
0.119274
0.109325
0.100614
0.0931514
0.0868937
0.0817583
0.0776378
0.0744127
0.0719618
0.0701694
0.0689297
0.0681486
0.067745
0.0676496
0.0678042
0.0681597
0.0686768
0.0693215
0.0700655
0.0708847
0.0717583
0.0726678
0.0735964
0.074528
0.0754476
0.0763424
0.0772004
0.0780102
0.0787606
0.0794412
0.0800417
0.0805525
0.0809645
0.0812693
0.0814591
0.081527
0.0814663
0.0812712
0.0809366
0.0804583
0.0798329
0.0790585
0.078134
0.0770598
0.075838
0.0744719
0.0729666
0.0713288
0.0695668
0.0676904
0.0657108
0.0636406
0.0614932
0.059283
0.0570248
0.0547338
0.0524252
0.0501138
0.047814
0.0455393
0.0433021
0.0411136
0.0389837
0.0369207
0.0349314
0.0330209
0.0311932
0.0294515
0.0277939
0.0262159
0.024578
0.022892
0.0211883
0.0195013
0.0178681
0.0163253
0.0149055
0.0136337
0.0125249
0.0115827
0.0107989
0.0101556
0.00962691
0.00918265
0.00879212
0.00842804
0.00807005
0.00770706
0.00733752
0.00696743
0.00660673
0.00626565
0.00595211
0.0056706
0.00542247
0.00520676
0.00502071
0.00486102
0.00471314
0.00457335
0.00444
0.00431212
0.00418903
0.00407023
0.00395531
0.00384397
0.00373597
0.00363119
0.00352956
0.00343108
0.00333584
0.00324394
0.00315556
0.00307089
0.00299016
0.00291362
0.0028415
0.00277404
0.00271148
0.00265402
0.00260182
0.00255501
0.00251366
0.00247781
0.00244741
0.00242237
0.00240253
0.00238769
0.00237758
0.0023719
0.00237033
0.00237254
0.00237819
0.00238698
0.00239864
0.00241296
0.00242977
0.00244899
0.00247059
0.00249465
0.00252127
0.00255064
0.00258304
0.00261878
0.00265827
0.00270198
0.00275048
0.00280445
0.00286469
0.00293219
0.00300811
0.00309389
0.00319131
0.00330256
0.00343042
0.00357843
0.124668
0.136321
0.148667
0.161751
0.175187
0.188819
0.202419
0.215775
0.228671
0.240897
0.252247
0.262518
0.271509
0.279033
0.284923
0.289057
0.291374
0.291892
0.290715
0.288029
0.284075
0.279121
0.273417
0.267162
0.260476
0.253383
0.245815
0.237601
0.228758
0.219462
0.209733
0.19962
0.18922
0.178679
0.168187
0.157948
0.148158
0.138988
0.130566
0.122976
0.116258
0.110412
0.105411
0.101208
0.0977424
0.0949491
0.0927628
0.0911183
0.089956
0.0892208
0.0888617
0.0888328
0.0890914
0.0895984
0.0902992
0.0910833
0.0919216
0.0927895
0.0936628
0.0945153
0.0953324
0.0961036
0.0968216
0.0974807
0.098077
0.0986077
0.0990703
0.0994623
0.0997813
0.100025
0.100189
0.100269
0.10026
0.100155
0.099945
0.0996215
0.099174
0.0985918
0.097864
0.0969797
0.0959291
0.0947033
0.0932953
0.0917003
0.0899163
0.0879439
0.0857876
0.0834547
0.0809564
0.0783073
0.0755248
0.0726296
0.0696441
0.0665929
0.0635012
0.0603942
0.0572963
0.0542305
0.0512189
0.0482735
0.0453918
0.0423436
0.0391388
0.0358268
0.032471
0.0291452
0.0259277
0.0228932
0.020106
0.0176137
0.0154437
0.0136038
0.0120841
0.0108611
0.00990089
0.00916222
0.00859912
0.00816382
0.0078106
0.0075006
0.00720644
0.00691443
0.00662304
0.00633804
0.00606733
0.00581744
0.00559217
0.00539247
0.00521799
0.0050544
0.00489806
0.00474741
0.00460168
0.00446038
0.00432317
0.00418978
0.00406003
0.00393382
0.00381114
0.00369203
0.00357661
0.00346507
0.00335761
0.00325452
0.00315607
0.00306255
0.00297428
0.00289153
0.00281456
0.0027436
0.00267884
0.00262039
0.00256834
0.0025227
0.0024834
0.00245032
0.00242327
0.002402
0.0023862
0.00237551
0.00236957
0.00236795
0.00237026
0.00237612
0.00238517
0.00239711
0.00241169
0.00242875
0.00244819
0.00246999
0.00249419
0.00252093
0.00255041
0.00258288
0.00261867
0.0026582
0.00270193
0.00275045
0.00280443
0.00286469
0.00293219
0.00300811
0.00309389
0.00319131
0.00330256
0.00343042
0.00357843
0.118079
0.128888
0.140248
0.152318
0.164758
0.177469
0.190268
0.202991
0.215465
0.227516
0.238964
0.249626
0.259312
0.267832
0.275011
0.2807
0.284805
0.287304
0.288262
0.287835
0.286256
0.283808
0.280789
0.277475
0.274094
0.270801
0.267676
0.264729
0.26193
0.259185
0.256404
0.253488
0.250343
0.246876
0.243005
0.238667
0.233818
0.228449
0.222582
0.216276
0.209615
0.2027
0.19564
0.188542
0.181504
0.174614
0.167946
0.161567
0.155535
0.149903
0.144715
0.140012
0.135829
0.132189
0.129132
0.126756
0.125049
0.12398
0.123507
0.123133
0.122794
0.12247
0.122133
0.121743
0.121284
0.120757
0.120168
0.119528
0.118854
0.118162
0.11747
0.116796
0.116153
0.115555
0.11501
0.114523
0.114093
0.113717
0.113386
0.113087
0.112799
0.1125
0.112162
0.111753
0.11124
0.110586
0.109756
0.108714
0.107429
0.105874
0.104027
0.101878
0.0994214
0.0966653
0.0936264
0.0903319
0.0868174
0.0831265
0.0793086
0.075404
0.0714189
0.0670761
0.0623773
0.0573833
0.0521856
0.0469024
0.0416684
0.0366214
0.0318863
0.0275603
0.0237037
0.0203386
0.0174545
0.0150194
0.0129915
0.0113286
0.00999261
0.00894866
0.00815973
0.00758127
0.00716023
0.00684122
0.00657716
0.00633786
0.00611081
0.00589496
0.0056935
0.00550933
0.00534525
0.00518891
0.00503702
0.0048884
0.00474263
0.00459948
0.0044588
0.00432054
0.00418471
0.00405138
0.00392071
0.00379292
0.0036683
0.00354722
0.00343008
0.0033173
0.00320936
0.0031067
0.00300977
0.00291897
0.00283467
0.00275716
0.00268667
0.00262335
0.00256725
0.00251836
0.00247657
0.00244167
0.00241341
0.00239143
0.00237535
0.00236472
0.00235908
0.00235795
0.00236086
0.00236739
0.00237713
0.00238975
0.002405
0.00242269
0.00244273
0.00246507
0.00248979
0.00251702
0.00254695
0.00257985
0.00261606
0.00265597
0.00270008
0.00274895
0.00280326
0.00286381
0.00293157
0.00300771
0.00309367
0.00319121
0.00330253
0.00343043
0.00357844
0.108495
0.118091
0.128088
0.13871
0.149666
0.160901
0.172272
0.183658
0.194923
0.205928
0.216527
0.226561
0.235862
0.244259
0.251581
0.25768
0.262446
0.26583
0.267858
0.268642
0.268373
0.267299
0.265695
0.263837
0.261969
0.260288
0.258935
0.257993
0.257497
0.257444
0.25782
0.2586
0.259747
0.261216
0.262958
0.264922
0.267056
0.269311
0.271643
0.274013
0.276388
0.278737
0.281027
0.283215
0.285237
0.28701
0.288427
0.289356
0.289648
0.289143
0.287684
0.285128
0.281372
0.276371
0.270146
0.262791
0.254478
0.245456
0.236014
0.227107
0.219103
0.212218
0.206604
0.201179
0.195728
0.190296
0.184913
0.179565
0.174248
0.16898
0.163793
0.158723
0.153811
0.149096
0.14462
0.140418
0.136522
0.13296
0.129755
0.126925
0.124482
0.122432
0.120769
0.119481
0.118544
0.117919
0.117557
0.117393
0.117351
0.117341
0.117263
0.117012
0.116486
0.11559
0.114246
0.112403
0.110035
0.107152
0.103797
0.100027
0.0958675
0.0910621
0.0856055
0.0795606
0.073039
0.0661995
0.0592385
0.052372
0.0458115
0.0397372
0.0342762
0.0294904
0.0253784
0.0218864
0.0189267
0.0163973
0.0142034
0.0122782
0.0105973
0.00917568
0.00804202
0.00720231
0.00661851
0.00621892
0.00592923
0.00569778
0.00549944
0.00532499
0.0051732
0.00503038
0.00489258
0.00475825
0.00462662
0.00449714
0.00436943
0.00424324
0.00411843
0.00399496
0.00387292
0.00375249
0.00363394
0.00351764
0.00340405
0.00329369
0.00318712
0.00308495
0.00298779
0.00289623
0.00281081
0.00273201
0.00266021
0.00259569
0.00253861
0.00248901
0.00244683
0.00241188
0.00238388
0.00236244
0.00234714
0.00233747
0.00233293
0.00233298
0.00233713
0.0023449
0.00235588
0.00236972
0.00238615
0.002405
0.00242615
0.00244961
0.00247543
0.00250375
0.00253478
0.00256879
0.00260612
0.00264718
0.00269244
0.00274246
0.0027979
0.00285955
0.00292835
0.00300543
0.00309219
0.00319037
0.00330215
0.00343031
0.00357842
0.0977707
0.106052
0.114604
0.123673
0.133017
0.142604
0.152326
0.162093
0.171802
0.181345
0.190603
0.199449
0.20774
0.215329
0.222067
0.227818
0.232476
0.235982
0.23834
0.239626
0.239986
0.239618
0.23875
0.237621
0.23645
0.235433
0.234728
0.234454
0.234701
0.235538
0.237016
0.239165
0.24199
0.245484
0.249626
0.254388
0.259735
0.265626
0.272016
0.278862
0.286121
0.293761