/*--------------------------------*- C++ -*----------------------------------*\
| =========                 |                                                 |
| \\      /  F ield         | OpenFOAM: The Open Source CFD Toolbox           |
|  \\    /   O peration     | Version:  2406                                  |
|   \\  /    A nd           | Website:  www.openfoam.com                      |
|    \\/     M anipulation  |                                                 |
\*---------------------------------------------------------------------------*/
FoamFile
{
    version     2.0;
    format      ascii;
    arch        "LSB;label=32;scalar=64";
    class       volScalarField;
    location    "800";
    object      nut;
}
// * * * * * * * * * * * * * * * * * * * * * * * * * * * * * * * * * * * * * //

dimensions      [0 2 -1 0 0 0 0];

internalField   nonuniform List<scalar> 
5619
(
4.53688e-05
4.62081e-05
4.69335e-05
4.76368e-05
4.82641e-05
4.88227e-05
4.93208e-05
4.97758e-05
5.02035e-05
5.06131e-05
5.10061e-05
5.13784e-05
5.17236e-05
5.20341e-05
5.2302e-05
5.25179e-05
5.26713e-05
5.2751e-05
5.27472e-05
5.26543e-05
5.24727e-05
5.22102e-05
5.18775e-05
5.14887e-05
5.10607e-05
5.06143e-05
5.01715e-05
4.97544e-05
4.93836e-05
4.90768e-05
4.88467e-05
4.86989e-05
4.8629e-05
4.86336e-05
4.87032e-05
4.8828e-05
4.89971e-05
4.91991e-05
4.94228e-05
4.96573e-05
4.98921e-05
5.01176e-05
5.03248e-05
5.05056e-05
5.0653e-05
5.07607e-05
5.08237e-05
5.08379e-05
5.08004e-05
5.07093e-05
5.05635e-05
5.03632e-05
5.01091e-05
4.9803e-05
4.94468e-05
4.90431e-05
4.85947e-05
4.81181e-05
4.76187e-05
4.71014e-05
4.65709e-05
4.60314e-05
4.54867e-05
4.49403e-05
4.43951e-05
4.38538e-05
4.33186e-05
4.27913e-05
4.22735e-05
4.17664e-05
4.12709e-05
4.07878e-05
4.03175e-05
3.98605e-05
3.94168e-05
3.89866e-05
3.85696e-05
3.81658e-05
3.77749e-05
3.73965e-05
3.70303e-05
3.66759e-05
3.63327e-05
3.60004e-05
3.56783e-05
3.53661e-05
3.50631e-05
3.47688e-05
3.44827e-05
3.42042e-05
3.39328e-05
3.36681e-05
3.34093e-05
3.31561e-05
3.2908e-05
3.26644e-05
3.24249e-05
3.2189e-05
3.19562e-05
3.17261e-05
3.14985e-05
3.12496e-05
3.09789e-05
3.06864e-05
3.03727e-05
3.00389e-05
2.96868e-05
2.93187e-05
2.89377e-05
2.85472e-05
2.81512e-05
2.77539e-05
2.73594e-05
2.69721e-05
2.65955e-05
2.62332e-05
2.58879e-05
2.55617e-05
2.52562e-05
2.49722e-05
2.471e-05
2.44696e-05
2.42503e-05
2.40514e-05
2.38718e-05
2.37103e-05
2.35657e-05
2.34365e-05
2.33217e-05
2.32089e-05
2.30975e-05
2.29869e-05
2.28766e-05
2.2766e-05
2.26548e-05
2.25425e-05
2.24288e-05
2.23132e-05
2.21954e-05
2.20752e-05
2.19522e-05
2.18264e-05
2.16974e-05
2.15653e-05
2.143e-05
2.12915e-05
2.11499e-05
2.10053e-05
2.08581e-05
2.07086e-05
2.05572e-05
2.04046e-05
2.02513e-05
2.00983e-05
1.99463e-05
1.97964e-05
1.96497e-05
1.95073e-05
1.93704e-05
1.92403e-05
1.91181e-05
1.90049e-05
1.89019e-05
1.88099e-05
1.87296e-05
1.86613e-05
1.86053e-05
1.85616e-05
1.85297e-05
1.8509e-05
1.84988e-05
1.8498e-05
1.85057e-05
1.8521e-05
1.85428e-05
1.85711e-05
1.86072e-05
1.86555e-05
1.87251e-05
1.88324e-05
1.90025e-05
1.92663e-05
1.96501e-05
2.01489e-05
2.06659e-05
2.08467e-05
1.95834e-05
0.000143737
0.00014508
0.000146893
0.000148018
0.000148753
0.000149167
0.000149431
0.000149672
0.00014997
0.000150331
0.000150707
0.000151017
0.000151174
0.000151106
0.000150759
0.000150095
0.000149077
0.000147669
0.00014582
0.000143473
0.000140574
0.000137091
0.000133181
0.000128952
0.000124388
0.000119465
0.000114156
0.000108438
0.000102317
9.5848e-05
8.91436e-05
8.23842e-05
7.58084e-05
6.96787e-05
6.40592e-05
5.89765e-05
5.44333e-05
5.04128e-05
4.68835e-05
4.38049e-05
4.11327e-05
3.88216e-05
3.68287e-05
3.51143e-05
3.36431e-05
3.23842e-05
3.13108e-05
3.04e-05
2.96321e-05
2.89899e-05
2.84584e-05
2.8024e-05
2.76733e-05
2.73773e-05
2.71165e-05
2.68702e-05
2.66376e-05
2.64378e-05
2.6264e-05
2.61103e-05
2.59721e-05
2.58456e-05
2.57276e-05
2.5616e-05
2.55092e-05
2.54062e-05
2.53063e-05
2.52094e-05
2.51155e-05
2.50249e-05
2.49381e-05
2.48554e-05
2.47773e-05
2.47042e-05
2.46366e-05
2.45746e-05
2.45187e-05
2.44688e-05
2.44252e-05
2.43879e-05
2.43567e-05
2.43318e-05
2.43129e-05
2.43e-05
2.42928e-05
2.42914e-05
2.42954e-05
2.43048e-05
2.43194e-05
2.43391e-05
2.43638e-05
2.43933e-05
2.44277e-05
2.44669e-05
2.45108e-05
2.45594e-05
2.46129e-05
2.46711e-05
2.47342e-05
2.48022e-05
2.48752e-05
2.4962e-05
2.50646e-05
2.51859e-05
2.53284e-05
2.5495e-05
2.56883e-05
2.59103e-05
2.61626e-05
2.6446e-05
2.67602e-05
2.71037e-05
2.74738e-05
2.78666e-05
2.82772e-05
2.87002e-05
2.91293e-05
2.95586e-05
2.99823e-05
3.03949e-05
3.07921e-05
3.117e-05
3.15259e-05
3.18579e-05
3.2165e-05
3.24469e-05
3.27038e-05
3.29363e-05
3.31458e-05
3.33546e-05
3.35636e-05
3.37739e-05
3.39864e-05
3.42021e-05
3.44219e-05
3.46467e-05
3.48775e-05
3.51151e-05
3.53603e-05
3.5614e-05
3.5877e-05
3.61499e-05
3.64333e-05
3.67279e-05
3.70338e-05
3.73515e-05
3.7681e-05
3.8022e-05
3.83742e-05
3.87368e-05
3.91087e-05
3.94885e-05
3.98741e-05
4.02632e-05
4.06528e-05
4.10395e-05
4.14192e-05
4.17875e-05
4.21392e-05
4.2469e-05
4.27713e-05
4.304e-05
4.32692e-05
4.34529e-05
4.35853e-05
4.36606e-05
4.36728e-05
4.36159e-05
4.3483e-05
4.32659e-05
4.29538e-05
4.25318e-05
4.20048e-05
4.13791e-05
4.06166e-05
3.9669e-05
3.84753e-05
3.69654e-05
3.50722e-05
3.27608e-05
3.00766e-05
2.72042e-05
2.4511e-05
2.25528e-05
2.21282e-05
2.48023e-05
3.63038e-05
0.000309718
0.000305884
0.000299709
0.000289243
0.000276075
0.000262006
0.000249065
0.00023864
0.000231118
0.000226029
0.000222515
0.000219746
0.000217106
0.000214208
0.000210825
0.000206823
0.000202108
0.0001966
0.000190227
0.000182934
0.000174711
0.000165618
0.000155864
0.000145818
0.000135727
0.000125853
0.000116472
0.000107844
0.00010019
9.36575e-05
8.83083e-05
8.41646e-05
8.1296e-05
7.95249e-05
7.8687e-05
7.86374e-05
7.92551e-05
8.04447e-05
8.21376e-05
8.42851e-05
8.68536e-05
8.982e-05
9.31672e-05
9.68792e-05
0.000100937
0.000105316
0.000109978
0.000114871
0.00011993
0.00012506
0.000130032
0.000134665
0.000138792
0.000142759
0.000146514
0.000150017
0.000153245
0.000156182
0.000158791
0.000161038
0.000162897
0.000164347
0.000165377
0.00016598
0.000166159
0.000165924
0.00016529
0.000164281
0.000162924
0.000161248
0.000159288
0.000157079
0.000154656
0.000152055
0.000149309
0.00014645
0.000143508
0.00014051
0.00013748
0.000134439
0.000131406
0.000128398
0.000125426
0.000122502
0.000119634
0.00011683
0.000114094
0.00011143
0.000108841
0.000106328
0.000103891
0.00010153
9.9244e-05
9.7032e-05
9.48923e-05
9.2823e-05
9.08218e-05
8.8887e-05
8.70168e-05
8.52067e-05
8.34553e-05
8.15853e-05
7.96056e-05
7.75379e-05
7.54077e-05
7.32458e-05
7.10868e-05
6.89673e-05
6.69233e-05
6.49884e-05
6.31911e-05
6.1553e-05
6.00881e-05
5.88022e-05
5.76938e-05
5.67551e-05
5.59733e-05
5.53328e-05
5.48163e-05
5.44061e-05
5.40853e-05
5.38383e-05
5.3651e-05
5.35114e-05
5.34093e-05
5.33364e-05
5.32859e-05
5.32519e-05
5.32304e-05
5.32169e-05
5.32104e-05
5.3211e-05
5.32184e-05
5.32326e-05
5.32537e-05
5.32819e-05
5.33175e-05
5.33608e-05
5.34124e-05
5.34727e-05
5.35422e-05
5.36216e-05
5.37114e-05
5.38122e-05
5.39245e-05
5.40486e-05
5.41847e-05
5.4333e-05
5.44932e-05
5.46647e-05
5.48463e-05
5.50367e-05
5.52335e-05
5.54339e-05
5.56341e-05
5.58294e-05
5.60142e-05
5.61818e-05
5.63247e-05
5.64342e-05
5.65009e-05
5.65145e-05
5.64646e-05
5.634e-05
5.613e-05
5.58238e-05
5.54116e-05
5.48839e-05
5.42326e-05
5.3451e-05
5.25343e-05
5.14816e-05
5.03509e-05
4.91454e-05
4.78743e-05
4.6561e-05
4.52511e-05
4.4023e-05
4.30012e-05
4.23724e-05
4.24011e-05
4.34522e-05
4.60463e-05
5.10419e-05
6.02112e-05
7.81215e-05
0.000121797
0.000632723
0.000625688
0.000611162
0.00058301
0.000542314
0.000491886
0.000437349
0.000385628
0.000342592
0.000310854
0.000289486
0.000275586
0.000266137
0.000258949
0.000252741
0.000246876
0.0002411
0.000235362
0.000229715
0.000224255
0.000219093
0.000214326
0.000210036
0.000206448
0.000203759
0.000202012
0.000201251
0.000201512
0.000202815
0.000205149
0.000208464
0.000212702
0.000217918
0.000224502
0.000232319
0.000241225
0.000251092
0.000261704
0.000272974
0.000284832
0.000297211
0.000310043
0.000323246
0.000336726
0.000350367
0.000364038
0.000377595
0.000390746
0.000403257
0.000414951
0.00042613
0.000436745
0.000446759
0.00045618
0.000464944
0.000472994
0.000480278
0.000486745
0.000492351
0.000497061
0.000500848
0.000503695
0.000505598
0.00050656
0.000506597
0.000505731
0.000503996
0.000501431
0.000498083
0.000494003
0.000489249
0.000483878
0.00047795
0.000471528
0.000464669
0.000457434
0.000449877
0.000442052
0.000434008
0.00042579
0.00041744
0.000408995
0.000400489
0.00039195
0.000383405
0.000374875
0.000366379
0.000357933
0.00034955
0.000341241
0.000333013
0.000324873
0.000316828
0.000308879
0.000301029
0.000293281
0.000285634
0.00027809
0.000270653
0.000263307
0.00025604
0.00024815
0.000239614
0.000230485
0.00022084
0.000210784
0.000200452
0.000190002
0.000179606
0.000169443
0.00015968
0.000150464
0.000141912
0.0001341
0.000127068
0.00012082
0.000115329
0.000110547
0.000106414
0.000102862
9.98213e-05
9.72256e-05
9.50135e-05
9.31297e-05
9.15255e-05
9.01588e-05
8.89941e-05
8.79985e-05
8.71464e-05
8.63371e-05
8.55617e-05
8.48159e-05
8.40952e-05
8.33959e-05
8.27149e-05
8.20499e-05
8.13987e-05
8.076e-05
8.01328e-05
7.95164e-05
7.89107e-05
7.83159e-05
7.77325e-05
7.71613e-05
7.66034e-05
7.60603e-05
7.55332e-05
7.50239e-05
7.45337e-05
7.40642e-05
7.36165e-05
7.31916e-05
7.27899e-05
7.24114e-05
7.20553e-05
7.17202e-05
7.1404e-05
7.11036e-05
7.08156e-05
7.05359e-05
7.02601e-05
6.99844e-05
6.97053e-05
6.94208e-05
6.91309e-05
6.88381e-05
6.85488e-05
6.82732e-05
6.80268e-05
6.78307e-05
6.77122e-05
6.7745e-05
6.80238e-05
6.86099e-05
6.9588e-05
7.10683e-05
7.31916e-05
7.61351e-05
8.0117e-05
8.54042e-05
9.2329e-05
0.000101343
0.000113168
0.000129181
0.000152363
0.000189886
0.000263035
0.00114209
0.0011468
0.00114271
0.0011175
0.00106886
0.000995444
0.000899569
0.000787796
0.000670984
0.000562227
0.000472668
0.000407445
0.000365064
0.000340284
0.000327516
0.000322567
0.000322841
0.000326869
0.000333794
0.000342996
0.000353867
0.000365714
0.000377569
0.000389509
0.000401288
0.000412462
0.000422724
0.000431958
0.000440262
0.000447915
0.00045531
0.000462863
0.000470942
0.000479769
0.000489369
0.000499683
0.000510616
0.000522266
0.000534474
0.000547076
0.00055992
0.00057286
0.000585761
0.000598497
0.000610952
0.000623022
0.000634612
0.000645821
0.000656652
0.0006671
0.000677172
0.000686853
0.000696126
0.000704969
0.000713358
0.000721264
0.000728659
0.000735513
0.000741793
0.000747469
0.000752511
0.000756892
0.000760585
0.000763571
0.000765831
0.000767356
0.000768138
0.000768179
0.000767485
0.000766067
0.000763943
0.000761135
0.000757672
0.000753583
0.000748903
0.000743666
0.000737911
0.000731676
0.000724997
0.000717912
0.000710457
0.000702665
0.00069457
0.0006862
0.000677583
0.000668743
0.000659702
0.00065048
0.000641095
0.000631559
0.000621886
0.000612086
0.000602168
0.000592137
0.000582
0.00057176
0.00056142
0.000550983
0.000540459
0.000529818
0.000519004
0.000507035
0.000493755
0.000479155
0.000463256
0.000446139
0.000427941
0.00040886
0.000389156
0.00036914
0.000349155
0.000329552
0.000310665
0.000292783
0.00027613
0.000260859
0.000247045
0.000234696
0.000223767
0.000214173
0.000205804
0.000198539
0.000192254
0.000186831
0.000182157
0.000178132
0.00017467
0.000171685
0.000169105
0.000166643
0.000164267
0.000161964
0.000159722
0.000157529
0.000155378
0.000153259
0.000151167
0.000149098
0.000147048
0.000145015
0.000142997
0.000140996
0.000139013
0.00013705
0.000135112
0.000133203
0.000131329
0.000129496
0.000127711
0.000125984
0.000124322
0.000122735
0.000121231
0.00011982
0.000118512
0.000117316
0.000116242
0.000115299
0.000114498
0.000113848
0.00011336
0.000113046
0.000112918
0.00011299
0.00011328
0.000113804
0.000114585
0.000115645
0.00011701
0.000118711
0.000120782
0.000123314
0.000126523
0.000130425
0.000135095
0.000140628
0.000147134
0.000154747
0.000163636
0.000174033
0.000186278
0.000200924
0.000218902
0.000241842
0.000272641
0.000316374
0.000381118
0.00176811
0.0017951
0.00181584
0.00181451
0.00178717
0.00172995
0.00164139
0.00152263
0.00137822
0.00121661
0.00105018
0.000893635
0.000760557
0.000659334
0.000591185
0.000551592
0.000533556
0.000530238
0.000536072
0.000546857
0.000559525
0.000571928
0.000582805
0.000592382
0.00060043
0.0006069
0.000611929
0.000615784
0.000618821
0.000621432
0.000623993
0.000626826
0.000630165
0.000634149
0.000638827
0.00064418
0.00065014
0.000656612
0.000663478
0.000670625
0.000677958
0.000685397
0.000692887
0.00070039
0.000707885
0.000715366
0.000722837
0.000730312
0.000737804
0.000745324
0.000752885
0.000760496
0.00076816
0.000775877
0.000783641
0.000791439
0.000799253
0.000807055
0.000814815
0.000822495
0.000830052
0.000837441
0.000844614
0.00085152
0.000858111
0.000864337
0.000870152
0.000875513
0.000880382
0.000884725
0.000888513
0.000891724
0.00089434
0.000896352
0.000897753
0.000898543
0.000898727
0.000898314
0.000897315
0.000895747
0.000893625
0.00089097
0.000887801
0.000884139
0.000880003
0.000875413
0.000870388
0.000864946
0.000859102
0.000852872
0.000846267
0.000839298
0.000831976
0.000824305
0.000816293
0.000807943
0.000799255
0.000790234
0.000780888
0.000771176
0.000761002
0.000749495
0.000736389
0.000721567
0.000704943
0.000686487
0.00066623
0.000644289
0.000620872
0.000596283
0.000570912
0.000545214
0.000519676
0.000494775
0.00047094
0.000448517
0.000427755
0.0004088
0.000391702
0.000376438
0.000362923
0.000351038
0.000340639
0.000331578
0.000323703
0.000316875
0.000310967
0.000305843
0.000301384
0.000297126
0.000293
0.000288985
0.000285057
0.000281199
0.000277396
0.000273634
0.000269905
0.000266198
0.00026251
0.000258837
0.000255176
0.000251531
0.000247904
0.0002443
0.000240729
0.000237198
0.000233722
0.000230313
0.000226986
0.00022376
0.000220652
0.000217683
0.000214871
0.000212239
0.000209806
0.000207593
0.000205623
0.000203913
0.000202486
0.000201359
0.000200551
0.00020008
0.000199964
0.000200219
0.000200862
0.000201908
0.000203375
0.000205278
0.000207636
0.000210469
0.0002138
0.000217662
0.000222238
0.000227583
0.000233699
0.000240642
0.00024849
0.000257354
0.000267392
0.00027883
0.000291989
0.000307329
0.000325489
0.000347317
0.000373771
0.000405362
0.000440263
0.00241124
0.00245961
0.00250346
0.00252583
0.00252178
0.00248678
0.00241823
0.00231561
0.00218083
0.00201835
0.00183516
0.00164056
0.00144577
0.00126292
0.00110294
0.000972887
0.00087437
0.000804205
0.000756567
0.000725205
0.000704793
0.000691366
0.000682126
0.000675352
0.000670164
0.000666063
0.00066274
0.000659994
0.0006577
0.000655786
0.000654226
0.000653031
0.000652226
0.000651843
0.000651904
0.000652413
0.000653351
0.000654681
0.000656354
0.000658317
0.000660519
0.000662917
0.000665477
0.000668179
0.000671011
0.000673972
0.000677071
0.000680322
0.000683746
0.000687365
0.000691206
0.000695295
0.000699657
0.000704316
0.000709293
0.000714605
0.000720265
0.00072628
0.000732651
0.000739374
0.000746437
0.000753821
0.000761502
0.000769449
0.000777625
0.000785987
0.000794488
0.000803079
0.000811707
0.000820318
0.000828858
0.000837272
0.000845509
0.000853519
0.000861256
0.000868677
0.000875744
0.000882423
0.000888685
0.000894504
0.000899861
0.000904737
0.000909121
0.000913002
0.000916375
0.000919234
0.000921576
0.000923401
0.000924709
0.000925499
0.000925772
0.000925527
0.000924765
0.000923484
0.00092168
0.00091935
0.000916488
0.000913088
0.000909153
0.00090463
0.000899431
0.000893133
0.000885416
0.000876045
0.000864779
0.000851397
0.000835718
0.000817636
0.000797147
0.000774385
0.000749636
0.00072334
0.000696063
0.000668448
0.000641152
0.000614776
0.000589813
0.000566619
0.000545407
0.000526262
0.000509167
0.000494032
0.000480722
0.000469076
0.000458924
0.0004501
0.000442453
0.000435813
0.000430012
0.000424489
0.000419141
0.000413932
0.000408832
0.000403816
0.000398866
0.000393965
0.000389098
0.000384257
0.000379433
0.000374622
0.000369825
0.000365041
0.000360277
0.000355541
0.000350843
0.000346198
0.000341622
0.000337134
0.000332757
0.000328512
0.000324426
0.000320524
0.000316832
0.000313378
0.000310187
0.000307283
0.000304692
0.000302434
0.000300528
0.000298993
0.000297843
0.00029709
0.000296745
0.000296818
0.000297314
0.00029824
0.000299601
0.000301404
0.000303654
0.000306361
0.000309535
0.000313192
0.000317355
0.000322171
0.000327629
0.00033375
0.000340585
0.000348203
0.000356694
0.000366168
0.000376753
0.000388578
0.000401737
0.000416199
0.000431635
0.000447095
0.000460657
0.00301503
0.003083
0.00314771
0.00319248
0.00321159
0.00320028
0.00315542
0.00307552
0.00296092
0.00281382
0.00263817
0.00243947
0.00222467
0.00200194
0.00178041
0.00156954
0.00137805
0.00121244
0.0010758
0.000967719
0.000885181
0.000823916
0.000779451
0.000746178
0.000720728
0.000700992
0.00068553
0.000673303
0.000663533
0.000655623
0.000649109
0.000643641
0.000638962
0.000634888
0.000631296
0.000628103
0.000625255
0.00062271
0.000620435
0.000618399
0.000616571
0.000614923
0.000613427
0.00061206
0.000610802
0.000609636
0.000608553
0.000607546
0.000606614
0.000605761
0.000604995
0.000604327
0.000603776
0.00060336
0.000603104
0.000603036
0.000603186
0.000603586
0.00060427
0.000605271
0.000606625
0.000608363
0.000610516
0.000613111
0.00061617
0.000619711
0.000623745
0.000628279
0.000633312
0.000638836
0.000644839
0.000651301
0.000658196
0.000665494
0.00067316
0.000681157
0.000689442
0.000697974
0.000706707
0.000715597
0.000724599
0.00073367
0.000742766
0.000751848
0.000760875
0.000769812
0.000778622
0.000787275
0.000795738
0.000803982
0.000811981
0.000819708
0.000827138
0.000834245
0.000841005
0.000847393
0.00085338
0.000858942
0.00086406
0.000868664
0.000872725
0.000876634
0.000880138
0.000882955
0.000884714
0.000884975
0.000883241
0.000878993
0.000871741
0.000861097
0.00084685
0.000829042
0.00080801
0.000784375
0.000758982
0.000732779
0.000706696
0.000681528
0.00065787
0.0006361
0.000616403
0.000598812
0.000583255
0.000569597
0.00055767
0.000547296
0.000538306
0.000530505
0.000523686
0.000517224
0.000510985
0.000504917
0.000498985
0.000493159
0.000487415
0.000481735
0.000476103
0.000470506
0.000464936
0.00045939
0.000453866
0.000448368
0.000442902
0.000437478
0.00043211
0.000426816
0.000421615
0.00041653
0.000411587
0.000406813
0.000402235
0.000397883
0.000393787
0.000389973
0.000386468
0.000383295
0.000380476
0.000378026
0.00037596
0.000374285
0.000373006
0.000372124
0.000371636
0.000371538
0.000371822
0.000372482
0.000373507
0.000374892
0.000376628
0.000378713
0.000381143
0.000383919
0.000387045
0.000390527
0.000394449
0.000398785
0.000403539
0.000408721
0.000414336
0.00042038
0.000426834
0.00043364
0.000440688
0.000447783
0.00045462
0.00046078
0.000465842
0.00356161
0.0036508
0.00373867
0.00380962
0.00385725
0.00387694
0.00386527
0.00382022
0.00374123
0.00362918
0.00348627
0.0033158
0.00312196
0.0029096
0.00268409
0.00245115
0.00221687
0.00198765
0.00177005
0.00157033
0.00139361
0.00124305
0.00112
0.00102346
0.000946912
0.000886108
0.00083788
0.000799678
0.000769447
0.000745526
0.000726563
0.000711471
0.00069938
0.000689599
0.000681586
0.000674923
0.000669293
0.000664455
0.000660228
0.000656472
0.000653077
0.000649955
0.00064703
0.000644238
0.000641519
0.000638818
0.000636086
0.000633275
0.000630342
0.00062725
0.000623965
0.000620458
0.000616707
0.000612697
0.00060842
0.000603875
0.000599071
0.000594023
0.000588756
0.000583303
0.000577703
0.000572003
0.000566256
0.000560518
0.00055485
0.000549315
0.000543977
0.000538898
0.000534142
0.000529766
0.000525827
0.000522374
0.000519452
0.0005171
0.000515352
0.000514232
0.000513762
0.000513953
0.000514813
0.000516343
0.00051854
0.000521393
0.000524891
0.000529017
0.000533751
0.000539072
0.000544956
0.000551377
0.000558311
0.000565731
0.00057361
0.000581924
0.000590644
0.000599747
0.000609205
0.000618993
0.000629084
0.000639452
0.000650075
0.000660896
0.000671936
0.000684336
0.000698148
0.000713352
0.0007298
0.000747195
0.000765044
0.000782631
0.000799007
0.000813032
0.000823474
0.000829185
0.000829304
0.000823472
0.000811947
0.000795593
0.000775707
0.000753766
0.00073116
0.000709012
0.000688106
0.000668899
0.000651595
0.000636223
0.000622697
0.000610882
0.000600618
0.000591708
0.000583916
0.000576561
0.000569484
0.000562616
0.000555914
0.000549344
0.000542881
0.000536501
0.000530188
0.000523928
0.000517714
0.000511541
0.000505409
0.000499322
0.000493289
0.000487322
0.000481437
0.000475653
0.000469994
0.000464486
0.000459155
0.000454033
0.000449148
0.000444531
0.000440212
0.000436216
0.000432568
0.000429288
0.000426391
0.000423886
0.000421778
0.000420063
0.000418735
0.000417782
0.000417186
0.000416928
0.000416987
0.000417342
0.000417969
0.000418851
0.000419969
0.000421307
0.000422854
0.000424599
0.000426535
0.000428654
0.000430953
0.000433458
0.000436144
0.000438997
0.000441998
0.000445124
0.000448342
0.000451609
0.000454872
0.000458068
0.00046114
0.000464056
0.000466849
0.00403621
0.00414823
0.00426099
0.0043606
0.00444002
0.00449488
0.00452169
0.00451812
0.00448303
0.00441642
0.00431929
0.00419343
0.0040413
0.00386583
0.00367037
0.00345853
0.00323412
0.00300096
0.00276284
0.00252364
0.00228764
0.00205983
0.00184591
0.00165334
0.00148941
0.00135021
0.00123402
0.00113835
0.00106064
0.000998205
0.000948506
0.000909226
0.000878347
0.000854168
0.000835286
0.000820568
0.000809109
0.000800192
0.000793255
0.000787853
0.00078364
0.000780338
0.000777725
0.000775619
0.000773868
0.000772341
0.000770923
0.000769512
0.000768014
0.000766341
0.000764414
0.000762157
0.000759501
0.000756379
0.000752732
0.000748506
0.000743655
0.000738136
0.000731918
0.000724978
0.000717301
0.000708883
0.000699732
0.000689867
0.000679317
0.000668123
0.000656338
0.000644024
0.000631254
0.000618108
0.000604676
0.000591051
0.000577333
0.000563622
0.000550019
0.000536624
0.000523535
0.000510844
0.000498636
0.000486991
0.000475978
0.00046566
0.000456089
0.000447309
0.000439355
0.000432253
0.000426023
0.000420678
0.000416224
0.000412666
0.000410002
0.000408229
0.000407345
0.000407343
0.000408221
0.000409977
0.000412609
0.000416121
0.000420522
0.000425803
0.000431995
0.000439929
0.000449972
0.00046256
0.000478137
0.00049713
0.00051988
0.000546552
0.000577005
0.000610641
0.00064627
0.000682039
0.000715525
0.000744046
0.000765197
0.000777433
0.00078048
0.000775344
0.000763931
0.000748473
0.000731017
0.00071314
0.00069589
0.000679868
0.000665351
0.000652418
0.000641036
0.000631073
0.000622315
0.00061405
0.0006061
0.000598384
0.000590853
0.000583471
0.000576212
0.000569053
0.000561977
0.000554972
0.000548029
0.000541146
0.000534324
0.00052757
0.000520895
0.000514313
0.000507843
0.000501509
0.000495336
0.000489352
0.000483588
0.000478075
0.000472845
0.000467927
0.000463351
0.000459142
0.000455319
0.000451899
0.00044889
0.000446296
0.000444111
0.000442323
0.000440915
0.000439862
0.000439137
0.00043871
0.000438549
0.000438621
0.000438898
0.000439353
0.000439961
0.000440704
0.000441566
0.000442535
0.0004436
0.000444755
0.000445995
0.000447315
0.000448722
0.000450207
0.000451763
0.000453386
0.000455072
0.00045682
0.000458633
0.000460523
0.000462515
0.000464652
0.000467002
0.00441049
0.00454376
0.00467901
0.00480481
0.0049136
0.00500149
0.00506499
0.00510169
0.00511007
0.00508948
0.00504001
0.00496232
0.00485758
0.00472733
0.00457354
0.00439859
0.00420523
0.00399648
0.00377545
0.00354513
0.00330821
0.00306703
0.00282395
0.0025819
0.00234569
0.00212756
0.00192963
0.00175302
0.00159874
0.00146651
0.00135532
0.00126341
0.00118856
0.00112837
0.00108049
0.00104274
0.00101324
0.000990377
0.000972807
0.000959446
0.000949417
0.000942022
0.000936705
0.000933025
0.000930631
0.000929245
0.000928641
0.000928634
0.000929071
0.000929823
0.000930777
0.000931832
0.000932899
0.000933891
0.000934727
0.000935329
0.000935616
0.000935509
0.000934927
0.000933788
0.000932007
0.000929499
0.000926177
0.000921953
0.000916742
0.000910462
0.000903036
0.000894396
0.000884485
0.000873257
0.000860684
0.000846757
0.000831486
0.000814901
0.00079706
0.000778039
0.000757941
0.000736887
0.000715021
0.000692499
0.000669493
0.000646181
0.000622747
0.000599373
0.000576237
0.000553507
0.000531338
0.000509872
0.000489231
0.000469521
0.000450826
0.000433215
0.000416739
0.000401432
0.000387316
0.000374403
0.000362696
0.000352194
0.000342897
0.000334784
0.000327824
0.00032154
0.000316281
0.000312571
0.000311029
0.000312381
0.000317451
0.00032715
0.000342447
0.000364291
0.000393476
0.000430384
0.000474614
0.00052454
0.000577023
0.000627577
0.00067127
0.000704147
0.000724451
0.000732905
0.000731985
0.000724754
0.000713961
0.00070163
0.000689065
0.000677018
0.000665884
0.000655806
0.000646737
0.000638072
0.000629651
0.0006214
0.000613277
0.000605258
0.000597324
0.000589461
0.000581658
0.000573909
0.000566213
0.000558573
0.000550996
0.000543494
0.000536084
0.000528786
0.000521627
0.000514633
0.000507837
0.00050127
0.000494968
0.000488965
0.000483295
0.000477988
0.000473074
0.000468575
0.00046451
0.000460889
0.000457717
0.000454988
0.000452692
0.000450808
0.000449311
0.000448167
0.000447341
0.000446796
0.000446493
0.000446396
0.000446469
0.000446685
0.000447017
0.000447447
0.000447957
0.000448539
0.000449184
0.00044989
0.000450654
0.000451478
0.000452364
0.000453318
0.000454346
0.000455454
0.000456654
0.00045796
0.00045939
0.000460972
0.00046274
0.000464736
0.000467019
0.00465079
0.00480025
0.00495167
0.00509675
0.00522776
0.00534144
0.00543446
0.00550448
0.00554978
0.00556929
0.00556245
0.00552909
0.00546936
0.00538375
0.0052731
0.00513874
0.00498251
0.00480685
0.00461468
0.00440927
0.00419395
0.00397184
0.00374552
0.00351674
0.00328655
0.00305517
0.00282749
0.00260923
0.00240235
0.00220816
0.00202894
0.00186643
0.00172168
0.00159501
0.00148601
0.00139369
0.00131659
0.00125302
0.00120117
0.0011593
0.00112577
0.00109914
0.00107817
0.0010618
0.00104917
0.00103957
0.00103243
0.00102729
0.0010238
0.00102168
0.00102071
0.00102071
0.00102156
0.00102315
0.00102541
0.00102828
0.00103171
0.00103567
0.00104013
0.00104504
0.00105037
0.00105606
0.00106205
0.00106826
0.00107459
0.00108093
0.00108715
0.00109309
0.00109858
0.00110342
0.00110739
0.00111026
0.00111177
0.00111168
0.00110974
0.00110569
0.00109931
0.00109039
0.00107876
0.00106432
0.00104698
0.00102674
0.00100365
0.000977846
0.000949504
0.000918877
0.000886267
0.00085202
0.000816513
0.000780139
0.000743297
0.000706371
0.000669727
0.000633693
0.000598561
0.000564573
0.000531929
0.000500783
0.000471255
0.000443396
0.000417131
0.000390263
0.000363137
0.000336425
0.000310918
0.000287486
0.000267031
0.000250456
0.00023865
0.000232505
0.000232978
0.000241159
0.000258304
0.000285745
0.000324526
0.00037464
0.000433974
0.000497534
0.000558048
0.000608366
0.00064432
0.000665822
0.000675691
0.000677621
0.000674791
0.000669422
0.000662908
0.00065605
0.000649266
0.000642415
0.000635442
0.000628326
0.000621068
0.00061368
0.000606174
0.000598562
0.000590858
0.000583075
0.000575231
0.000567345
0.000559442
0.000551549
0.000543697
0.000535922
0.000528263
0.000520761
0.00051346
0.000506403
0.000499636
0.000493199
0.000487134
0.000481477
0.000476258
0.000471501
0.000467225
0.000463436
0.000460134
0.000457311
0.000454947
0.000453017
0.000451488
0.000450321
0.000449473
0.000448903
0.000448568
0.000448427
0.000448446
0.000448592
0.00044884
0.000449172
0.000449572
0.000450033
0.000450548
0.000451116
0.000451738
0.000452418
0.000453161
0.000453975
0.000454868
0.000455852
0.000456942
0.000458154
0.00045951
0.000461037
0.000462768
0.000464745
0.00046702
0.00473412
0.00489286
0.00505225
0.00520761
0.00535138
0.00548103
0.00559358
0.00568686
0.00575914
0.00580913
0.00583589
0.00583868
0.005817
0.00577053
0.00569926
0.00560361
0.00548459
0.00534388
0.00518391
0.00500778
0.00481906
0.0046215
0.00441878
0.00421418
0.00401037
0.00380916
0.00361163
0.00341722
0.0032266
0.00304155
0.00286193
0.0026876
0.00251879
0.00235615
0.00220071
0.00205374
0.00191647
0.00178995
0.00167488
0.00157156
0.00147989
0.00139947
0.0013296
0.00126943
0.00121805
0.00117451
0.00113789
0.00110734
0.00108207
0.00106137
0.00104461
0.00103124
0.00102075
0.00101271
0.0010067
0.00100239
0.00099957
0.000998123
0.000997957
0.000999008
0.00100128
0.0010048
0.00100965
0.00101588
0.00102358
0.00103283
0.00104368
0.0010562
0.0010704
0.00108629
0.00110385
0.001123
0.00114361
0.00116551
0.00118845
0.00121208
0.00123602
0.00125977
0.00128275
0.00130433
0.00132379
0.00134039
0.00135335
0.00136191
0.00136538
0.00136314
0.00135472
0.0013398
0.00131828
0.00129026
0.00125607
0.00121624
0.00117146
0.00112256
0.00107045
0.00101606
0.000960275
0.000903932
0.000847775
0.000792377
0.000737828
0.00068005
0.000619451
0.000557196
0.00049482
0.000434094
0.000376853
0.00032479
0.000279276
0.000241239
0.000211164
0.00018922
0.000175468
0.000170127
0.000173824
0.000187767
0.000213685
0.000253217
0.000306426
0.000369716
0.000435078
0.000492878
0.000536793
0.000566102
0.000583827
0.000593753
0.00059883
0.000600946
0.000601295
0.000600685
0.000599253
0.00059707
0.0005942
0.000590707
0.000586644
0.000582062
0.000577006
0.00057152
0.000565649
0.000559439
0.000552939
0.000546202
0.000539285
0.00053225
0.000525162
0.000518088
0.000511098
0.00050426
0.000497641
0.000491305
0.00048531
0.000479707
0.00047454
0.00046984
0.000465632
0.000461925
0.000458721
0.000456009
0.000453767
0.000451965
0.000450566
0.000449528
0.000448804
0.000448348
0.000448117
0.000448067
0.000448163
0.000448375
0.000448677
0.000449052
0.000449486
0.000449972
0.000450506
0.000451088
0.00045172
0.000452407
0.000453154
0.000453971
0.000454866
0.000455851
0.000456941
0.000458153
0.00045951
0.000461037
0.000462768
0.000464745
0.00046702
0.00465624
0.00481771
0.0049776
0.00513484
0.00528234
0.00541837
0.00554032
0.00564636
0.00573488
0.00580459
0.00585436
0.0058832
0.00589019
0.00587453
0.00583563
0.00577326
0.00568773
0.00558005
0.00545206
0.0053064
0.00514643
0.00497597
0.00479901
0.00461936
0.00444034
0.00426456
0.00409374
0.00392878
0.00377022
0.00361794
0.00347148
0.00333023
0.00319356
0.00306084
0.00293146
0.00280487
0.00268066
0.0025586
0.00243869
0.00232118
0.0022065
0.00209518
0.00198777
0.00188479
0.00178667
0.00169374
0.00160625
0.00152436
0.00144818