/*--------------------------------*- C++ -*----------------------------------*\
| =========                 |                                                 |
| \\      /  F ield         | OpenFOAM: The Open Source CFD Toolbox           |
|  \\    /   O peration     | Version:  2406                                  |
|   \\  /    A nd           | Website:  www.openfoam.com                      |
|    \\/     M anipulation  |                                                 |
\*---------------------------------------------------------------------------*/
FoamFile
{
    version     2.0;
    format      ascii;
    arch        "LSB;label=32;scalar=64";
    class       volScalarField;
    location    "800";
    object      p;
}
// * * * * * * * * * * * * * * * * * * * * * * * * * * * * * * * * * * * * * //

dimensions      [0 2 -2 0 0 0 0];

internalField   nonuniform List<scalar> 
5619
(
-0.028305
-0.0181365
-0.0367554
-0.0558732
-0.0821918
-0.113572
-0.150275
-0.191708
-0.237338
-0.286532
-0.338667
-0.393135
-0.449301
-0.506459
-0.563764
-0.620216
-0.674671
-0.725915
-0.772773
-0.81425
-0.849641
-0.87867
-0.901672
-0.919311
-0.932358
-0.941765
-0.948524
-0.953566
-0.957702
-0.961598
-0.965771
-0.970629
-0.976527
-0.983689
-0.992171
-1.00192
-1.01281
-1.0246
-1.037
-1.04964
-1.06212
-1.07398
-1.08474
-1.09392
-1.10104
-1.10563
-1.10726
-1.10556
-1.10021
-1.09096
-1.07761
-1.06006
-1.03829
-1.01234
-0.9823
-0.94835
-0.910755
-0.869783
-0.825725
-0.778908
-0.729676
-0.678374
-0.625353
-0.570953
-0.515496
-0.45929
-0.402619
-0.345744
-0.288897
-0.232287
-0.176095
-0.120478
-0.0655677
-0.0114729
0.0417182
0.0939363
0.14513
0.195264
0.244316
0.292277
0.339148
0.384938
0.429668
0.47336
0.516047
0.557761
0.598544
0.638436
0.677483
0.71573
0.753227
0.79002
0.82616
0.861694
0.896673
0.931158
0.965198
0.998725
1.03183
1.06567
1.10155
1.14006
1.18146
1.22557
1.27221
1.3211
1.37187
1.42407
1.47717
1.53059
1.58372
1.63596
1.68673
1.73552
1.78189
1.82553
1.86619
1.90374
1.93816
1.96947
1.9978
2.02328
2.04609
2.06646
2.08458
2.10062
2.11477
2.12771
2.14004
2.15205
2.1639
2.17562
2.18726
2.19887
2.21049
2.22215
2.23388
2.24572
2.25768
2.26978
2.28204
2.29445
2.30703
2.31976
2.33264
2.34565
2.35875
2.37193
2.38514
2.39834
2.41147
2.42448
2.43731
2.44989
2.46215
2.47403
2.48545
2.49635
2.50667
2.51636
2.52536
2.53365
2.54119
2.54799
2.55404
2.55937
2.564
2.56798
2.57137
2.57423
2.57664
2.57867
2.58037
2.58184
2.58312
2.58429
2.58539
2.58647
2.58757
2.58872
2.58996
2.59132
2.59286
2.59463
2.59659
2.59869
2.60935
-0.0282406
-0.0180498
-0.03667
-0.0557884
-0.0821107
-0.113493
-0.150198
-0.191629
-0.237256
-0.286448
-0.33858
-0.393046
-0.449211
-0.506368
-0.563674
-0.620129
-0.674589
-0.725843
-0.772713
-0.814205
-0.849614
-0.878662
-0.90168
-0.919332
-0.932382
-0.941781
-0.948521
-0.953532
-0.957627
-0.961477
-0.965606
-0.970443
-0.976336
-0.983493
-0.991975
-1.00173
-1.01263
-1.02443
-1.03684
-1.0495
-1.062
-1.07388
-1.08466
-1.09386
-1.10099
-1.1056
-1.10725
-1.10557
-1.10024
-1.091
-1.07767
-1.06014
-1.0384
-1.01248
-0.98249
-0.948606
-0.911054
-0.87011
-0.826079
-0.779287
-0.730078
-0.678799
-0.625799
-0.571417
-0.515978
-0.459789
-0.403133
-0.346271
-0.289436
-0.232836
-0.176654
-0.121045
-0.0661418
-0.0120539
0.0411306
0.0933431
0.144532
0.194662
0.243711
0.291668
0.338536
0.384324
0.429051
0.472742
0.515427
0.557141
0.597924
0.637816
0.676864
0.715114
0.752612
0.789408
0.82555
0.861088
0.896069
0.930555
0.964593
0.998105
1.03117
1.06505
1.101
1.13954
1.18096
1.22508
1.27173
1.32064
1.37142
1.42364
1.47675
1.53019
1.58334
1.6356
1.68638
1.73519
1.78158
1.82524
1.86591
1.90348
1.93791
1.96924
1.99757
2.02306
2.04588
2.06625
2.08437
2.1004
2.11454
2.12748
2.13983
2.15185
2.16371
2.17543
2.18708
2.19869
2.21032
2.22198
2.23372
2.24556
2.25753
2.26964
2.2819
2.29432
2.3069
2.31964
2.33253
2.34554
2.35865
2.37183
2.38505
2.39825
2.41139
2.42441
2.43724
2.44983
2.4621
2.47398
2.48541
2.49632
2.50665
2.51634
2.52534
2.53363
2.54118
2.54798
2.55404
2.55936
2.564
2.56798
2.57137
2.57424
2.57665
2.57867
2.58038
2.58185
2.58313
2.5843
2.5854
2.58649
2.58758
2.58874
2.58997
2.59132
2.59283
2.59452
2.59622
2.59732
2.60184
-0.0280613
-0.0178173
-0.036428
-0.0555474
-0.0818856
-0.113295
-0.150029
-0.191486
-0.237129
-0.286328
-0.338462
-0.392929
-0.449096
-0.506257
-0.563569
-0.620033
-0.674507
-0.725776
-0.772661
-0.814165
-0.849581
-0.878634
-0.901648
-0.919278
-0.932294
-0.941649
-0.948336
-0.953295
-0.957346
-0.961168
-0.965299
-0.970145
-0.976045
-0.983223
-0.991733
-1.00152
-1.01245
-1.0243
-1.03677
-1.0495
-1.06207
-1.07404
-1.08492
-1.09424
-1.10151
-1.10626
-1.10808
-1.10658
-1.10143
-1.0924
-1.07929
-1.06198
-1.04046
-1.01474
-0.984947
-0.951261
-0.913909
-0.873158
-0.829309
-0.782686
-0.733632
-0.682493
-0.629617
-0.575343
-0.519995
-0.463879
-0.407281
-0.35046
-0.293652
-0.237065
-0.180882
-0.125261
-0.0703339
-0.0162121
0.0370147
0.0892767
0.140522
0.190714
0.239829
0.287858
0.334801
0.380668
0.425476
0.46925
0.51202
0.553822
0.594693
0.634677
0.673817
0.71216
0.749753
0.786644
0.822883
0.858518
0.893597
0.928182
0.96232
0.995931
1.02908
1.06307
1.09914
1.13779
1.17932
1.22355
1.27031
1.31932
1.37022
1.42255
1.47578
1.52933
1.58259
1.63495
1.68584
1.73474
1.78122
1.82495
1.86569
1.90332
1.93781
1.96918
1.99756
2.02308
2.04593
2.06632
2.08447
2.10051
2.11466
2.12762
2.13999
2.15202
2.1639
2.17564
2.1873
2.19892
2.21055
2.22222
2.23397
2.24582
2.25779
2.2699
2.28217
2.29459
2.30718
2.31992
2.3328
2.34581
2.35892
2.3721
2.38531
2.39851
2.41164
2.42465
2.43748
2.45005
2.46231
2.47419
2.4856
2.4965
2.50681
2.51648
2.52548
2.53375
2.54129
2.54808
2.55412
2.55943
2.56406
2.56803
2.57142
2.57428
2.57668
2.5787
2.58041
2.58187
2.58315
2.58432
2.58543
2.58651
2.58761
2.58876
2.59001
2.59138
2.59294
2.59475
2.5968
2.59885
2.60391
-0.0276471
-0.0173351
-0.0358792
-0.0549591
-0.0812797
-0.112706
-0.149495
-0.191039
-0.236786
-0.286078
-0.338277
-0.392777
-0.448957
-0.506124
-0.563446
-0.619928
-0.674427
-0.725731
-0.772657
-0.814207
-0.849669
-0.878771
-0.901841
-0.919517
-0.932558
-0.941924
-0.94861
-0.953557
-0.957585
-0.961374
-0.965469
-0.970297
-0.976183
-0.983331
-0.991811
-1.00158
-1.0125
-1.02436
-1.03686
-1.04965
-1.0623
-1.07437
-1.0854
-1.09489
-1.10236
-1.10736
-1.10945
-1.10825
-1.10345
-1.09477
-1.08204
-1.06515
-1.04405
-1.01878
-0.98944
-0.956198
-0.919275
-0.878939
-0.835486
-0.789239
-0.740535
-0.68972
-0.637139
-0.583129
-0.528015
-0.472102
-0.415675
-0.358996
-0.3023
-0.245798
-0.189674
-0.134086
-0.0791708
-0.0250404
0.0282141
0.080521
0.131826
0.182091
0.231293
0.27942
0.326471
0.372455
0.41739
0.461298
0.504209
0.546157
0.587182
0.627325
0.666629
0.705141
0.742908
0.779977
0.816398
0.852219
0.887488
0.922264
0.956599
0.990419
1.02378
1.05798
1.09429
1.13318
1.17496
1.21944
1.26648
1.31578
1.36697
1.41961
1.47315
1.52701
1.58058
1.63324
1.6844
1.73356
1.78028
1.82422
1.86516
1.90296
1.93758
1.96908
1.99756
2.02316
2.04609
2.06654
2.08473
2.10082
2.115
2.12799
2.14038
2.15245
2.16434
2.17611
2.18779
2.19944
2.21109
2.22278
2.23455
2.24642
2.2584
2.27053
2.28281
2.29525
2.30784
2.32059
2.33348
2.3465
2.35961
2.37279
2.386
2.39919
2.41231
2.4253
2.43811
2.45066
2.4629
2.47474
2.48612
2.49698
2.50726
2.51689
2.52585
2.53408
2.54158
2.54832
2.55433
2.55961
2.5642
2.56815
2.57151
2.57434
2.57673
2.57874
2.58043
2.58188
2.58316
2.58433
2.58543
2.58651
2.5876
2.58875
2.58999
2.59134
2.59284
2.59454
2.59638
2.59827
2.60332
-0.0268632
-0.0165624
-0.034954
-0.0539301
-0.0801562
-0.111524
-0.148299
-0.189884
-0.235732
-0.285181
-0.337573
-0.392267
-0.448612
-0.505904
-0.563321
-0.619889
-0.674482
-0.725894
-0.772942
-0.814619
-0.850203
-0.879419
-0.902592
-0.920336
-0.933398
-0.942743
-0.949374
-0.954238
-0.958168
-0.961852
-0.965848
-0.970586
-0.976397
-0.983491
-0.99194
-1.0017
-1.01265
-1.02457
-1.03716
-1.05009
-1.06293
-1.07526
-1.08659
-1.09645
-1.10435
-1.10982
-1.11244
-1.11183
-1.10765
-1.09963
-1.08759
-1.07139
-1.05099
-1.02642
-0.997767
-0.965198
-0.928921
-0.889195
-0.846312
-0.800589
-0.752361
-0.701972
-0.649767
-0.596082
-0.541242
-0.485555
-0.429308
-0.372764
-0.316162
-0.259716
-0.203612
-0.148013
-0.0930572
-0.0388593
0.0144862
0.0669049
0.118341
0.168753
0.218116
0.266417
0.313654
0.359834
0.404974
0.449097
0.492232
0.534412
0.575676
0.616065
0.655623
0.694395
0.732429
0.769772
0.806475
0.842584
0.878148
0.913225
0.947869
0.982015
1.0157
1.05023
1.08688
1.12612
1.16825
1.21311
1.26054
1.31027
1.36192
1.41504
1.46908
1.52344
1.57752
1.63067
1.68231
1.73192
1.77906
1.82338
1.86466
1.90276
1.93764
1.96937
1.99804
2.02381
2.04687
2.06743
2.08572
2.1019
2.11616
2.12921
2.14165
2.15377
2.16571
2.17751
2.18923
2.20092
2.2126
2.22432
2.23611
2.24799
2.26
2.27214
2.28442
2.29686
2.30946
2.3222
2.33508
2.34808
2.36117
2.37433
2.3875
2.40066
2.41373
2.42668
2.43943
2.45192
2.46409
2.47586
2.48716
2.49794
2.50813
2.51768
2.52655
2.5347
2.54211
2.54878
2.55471
2.55992
2.56445
2.56835
2.57166
2.57446
2.57682
2.5788
2.58047
2.58192
2.58319
2.58435
2.58544
2.58652
2.58762
2.58878
2.59003
2.59139
2.59293
2.59468
2.59657
2.59849
2.60307
-0.0256041
-0.0156275
-0.0337814
-0.052624
-0.0786908
-0.109933
-0.146621
-0.188173
-0.234045
-0.283578
-0.336114
-0.391008
-0.447597
-0.505158
-0.562846
-0.619673
-0.674514
-0.726169
-0.773458
-0.81537
-0.85117
-0.880585
-0.903921
-0.921762
-0.934853
-0.944161
-0.950698
-0.955424
-0.959188
-0.962692
-0.96651
-0.971088
-0.976756
-0.983726
-0.992078
-1.00179
-1.01273
-1.0247
-1.03743
-1.05056
-1.0637
-1.07641
-1.08822
-1.09865
-1.10721
-1.11344
-1.11691
-1.11722
-1.11402
-1.10704
-1.09608
-1.08098
-1.0617
-1.03823
-1.01066
-0.979124
-0.943833
-0.905028
-0.862993
-0.818039
-0.770497
-0.720709
-0.669016
-0.615758
-0.561261
-0.505836
-0.449775
-0.393345
-0.336791
-0.280331
-0.22416
-0.168444
-0.113327
-0.0589318
-0.00535555
0.0473224
0.0990412
0.149757
0.19944
0.248075
0.295656
0.342191
0.387691
0.432181
0.475687
0.518242
0.559884
0.600654
0.640596
0.679754
0.718176
0.755912
0.793009
0.829517
0.865484
0.900969
0.936026
0.970599
1.00472
1.03968
1.07679
1.1165
1.15913
1.20452
1.25253
1.30287
1.35517
1.40897
1.46373
1.51882
1.57363
1.62751
1.67985
1.73013
1.77788
1.82277
1.86455
1.9031
1.93838
1.97044
1.99939
2.0254
2.04865
2.06938
2.08781
2.1041
2.11847
2.13159
2.14411
2.15629
2.16829
2.18015
2.19191
2.20364
2.21536
2.22712
2.23894
2.25085
2.26287
2.27503
2.28732
2.29977
2.31236
2.32509
2.33795
2.35092
2.36398
2.37708
2.3902
2.40328
2.41628
2.42913
2.44178
2.45416
2.4662
2.47784
2.489
2.49963
2.50967
2.51906
2.52777
2.53577
2.54304
2.54956
2.55537
2.56046
2.56489
2.56869
2.57193
2.57466
2.57696
2.5789
2.58054
2.58196
2.58322
2.58436
2.58545
2.58653
2.58762
2.58877
2.59001
2.59137
2.5929
2.59463
2.59651
2.59854
2.60274
-0.0237346
-0.0147047
-0.032565
-0.0513338
-0.0772508
-0.108372
-0.144957
-0.186442
-0.232295
-0.281859
-0.334472
-0.389479
-0.446218
-0.503982
-0.561947
-0.619133
-0.674397
-0.726507
-0.774246
-0.816568
-0.852719
-0.882418
-0.905952
-0.923883
-0.936945
-0.946117
-0.952437
-0.956893
-0.96036
-0.963561
-0.967097
-0.971429
-0.976894
-0.983709
-0.991966
-1.00165
-1.01265
-1.02478
-1.03778
-1.0513
-1.06497
-1.07835
-1.09098
-1.10239
-1.11209
-1.11961
-1.12449
-1.12635
-1.1248
-1.11956
-1.1104
-1.09714
-1.0797
-1.05805
-1.03226
-1.00244
-0.968756
-0.931445
-0.89077
-0.847032
-0.800552
-0.751668
-0.700721
-0.648051
-0.59399
-0.538855
-0.482946
-0.426541
-0.369894
-0.313235
-0.256768
-0.200673
-0.145104
-0.090191
-0.0360437
0.0172502
0.069622
0.12102
0.171409
0.220766
0.269082
0.316359
0.362605
0.407841
0.452091
0.495387
0.537765
0.579263
0.619926
0.659798
0.698927
0.737361
0.77515
0.812343
0.848989
0.885148
0.920874
0.956114
0.990895
1.02653
1.06435
1.10481
1.14822
1.19446
1.24336
1.29465
1.34795
1.40278
1.45859
1.51476
1.57063
1.62555
1.67889
1.73011
1.77874
1.82442
1.86692
1.90609
1.9419
1.97441
2.00375
2.03007
2.05359
2.07454
2.09314
2.10957
2.12405
2.13727
2.14986
2.16211
2.17416
2.18607
2.19787
2.20962
2.22136
2.23313
2.24494
2.25684
2.26884
2.28096
2.29322
2.3056
2.31812
2.33077
2.34354
2.3564
2.36933
2.38229
2.39525
2.40816
2.42096
2.43361
2.44603
2.45817
2.46996
2.48133
2.49222
2.50256
2.51232
2.52143
2.52986
2.53759
2.5446
2.55089
2.55647
2.56136
2.56561
2.56926
2.57236
2.57499
2.5772
2.57907
2.58066
2.58205
2.58327
2.5844
2.58548
2.58655
2.58764
2.58879
2.59004
2.5914
2.59293
2.59466
2.59653
2.59862
2.60239
-0.0210714
-0.0138708
-0.0313848
-0.050197
-0.0760259
-0.107102
-0.143649
-0.185117
-0.23097
-0.280557
-0.333218
-0.388308
-0.445167
-0.503089
-0.56126
-0.618727
-0.674382
-0.727004
-0.775351
-0.818314
-0.855062
-0.88526
-0.909145
-0.927268
-0.940339
-0.94936
-0.9554
-0.959485
-0.962528
-0.965274
-0.968366
-0.972286
-0.977393
-0.983915
-0.991967
-1.00156
-1.0126
-1.02492
-1.03829
-1.05239
-1.06686
-1.08129
-1.09522
-1.10818
-1.11968
-1.12926
-1.13644
-1.1408
-1.14194
-1.13954
-1.13332
-1.12306
-1.10864
-1.08999
-1.0671
-1.04007
-1.00902
-0.97414
-0.935681
-0.893918
-0.849159
-0.801732
-0.751975
-0.700228
-0.646831
-0.592111
-0.53638
-0.479931
-0.423037
-0.365945
-0.308879
-0.252038
-0.195593
-0.139694
-0.0844678
-0.0300172
0.0235737
0.0762395
0.127932
0.178618
0.228279
0.276906
0.324504
0.371083
0.416665
0.461277
0.50495
0.547722
0.589635
0.630731
0.671059
0.710666
0.749603
0.787919
0.825665
0.862901
0.899684
0.935958
0.971751
1.00842
1.04735
1.08901
1.13373
1.18136
1.23173
1.28457
1.33946
1.39593
1.4534
1.51122
1.56872
1.62522
1.68008
1.73272
1.78265
1.82952
1.87305
1.91313
1.94972
1.98288
2.01275
2.03951
2.06337
2.08459
2.1034
2.12
2.1346
2.1479
2.16055
2.17284
2.18492
2.19684
2.20865
2.22039
2.23211
2.24384
2.25561
2.26744
2.27936
2.29139
2.30353
2.31578
2.32815
2.34063
2.35319
2.36583
2.37851
2.3912
2.40386
2.41644
2.42889
2.44115
2.45317
2.46488
2.47622
2.48712
2.49754
2.5074
2.51667
2.5253
2.53327
2.54054
2.54713
2.55302
2.55823
2.5628
2.56676
2.57016
2.57305
2.57551
2.57758
2.57934
2.58085
2.58217
2.58336
2.58446
2.58551
2.58657
2.58766
2.5888
2.59004
2.59141
2.59294
2.59466
2.59654
2.59869
2.60204
-0.0174689
-0.0131135
-0.0302064
-0.0491846
-0.0749762
-0.106073
-0.14264
-0.184146
-0.230048
-0.279699
-0.332442
-0.387639
-0.44465
-0.50279
-0.561267
-0.619135
-0.675281
-0.728476
-0.777463
-0.821104
-0.85851
-0.889211
-0.913573
-0.932101
-0.945263
-0.954154
-0.959908
-0.963551
-0.966061
-0.968231
-0.970754
-0.974144
-0.978781
-0.984923
-0.992711
-1.00219
-1.01331
-1.02595
-1.0399
-1.05489
-1.07058
-1.0866
-1.10251
-1.11785
-1.13214
-1.1449
-1.15564
-1.16392
-1.16929
-1.17137
-1.16984
-1.16441
-1.15488
-1.14111
-1.12303
-1.10064
-1.07401
-1.04327
-1.0086
-0.970236
-0.928457
-0.883565
-0.835889
-0.785772
-0.733561
-0.679598
-0.624218
-0.567742
-0.510469
-0.452679
-0.394626
-0.336541
-0.278627
-0.221065
-0.164009
-0.107589
-0.0519142
0.00292629
0.0568636
0.109846
0.161837
0.212814
0.262768
0.311699
0.359618
0.406544
0.452503
0.497526
0.541651
0.584919
0.627373
0.669062
0.710034
0.750339
0.790027
0.829162
0.867802
0.905875
0.943418
0.981901
1.0228
1.06658
1.11359
1.16364
1.21654
1.27198
1.32953
1.38865
1.44874
1.50912
1.56909
1.62793
1.685
1.73969
1.7915
1.84006
1.8851
1.92648
1.96418
1.99826
2.02888
2.05625
2.08058
2.10216
2.12124
2.13804
2.15277
2.16613
2.17881
2.19111
2.20318
2.21507
2.22682
2.23849
2.25012
2.26173
2.27336
2.28503
2.29676
2.30857
2.32047
2.33245
2.34451
2.35664
2.36883
2.38105
2.39328
2.40547
2.41759
2.4296
2.44143
2.45304
2.46437
2.47536
2.48595
2.4961
2.50573
2.51482
2.52332
2.53119
2.53843
2.545
2.55093
2.55621
2.56087
2.56495
2.56847
2.5715
2.57408
2.57628
2.57815
2.57975
2.58113
2.58236
2.58348
2.58454
2.58557
2.58661
2.58768
2.58883
2.59007
2.59143
2.59296
2.59467
2.59654
2.59875
2.6017
-0.0129488
-0.0124058
-0.0289852
-0.0482405
-0.0740298
-0.105197
-0.141824
-0.183401
-0.229379
-0.279113
-0.331956
-0.387282
-0.444471
-0.50287
-0.561728
-0.62014
-0.677018
-0.731118
-0.781119
-0.825778
-0.864081
-0.895392
-0.919693
-0.93822
-0.951676
-0.960419
-0.965792
-0.969007
-0.971017
-0.972582
-0.974463
-0.977214
-0.981251
-0.986871
-0.994259
-1.00351
-1.01464
-1.02759
-1.04221
-1.0583
-1.0756
-1.09378
-1.11246
-1.1312
-1.14955
-1.16701
-1.1831
-1.19731
-1.20917
-1.21821
-1.22403
-1.22625
-1.22457
-1.21871
-1.20847
-1.19372
-1.17441
-1.15057
-1.1223
-1.08977
-1.05319
-1.01284
-0.969027
-0.922067
-0.87231
-0.820112
-0.765831
-0.709816
-0.652409
-0.593933
-0.534691
-0.474964
-0.415006
-0.355046
-0.295285
-0.2359
-0.177042
-0.118839
-0.0613936
-0.00479151
0.0509029
0.105642
0.159393
0.212138
0.263871
0.314597
0.36433
0.413091
0.46091
0.507822
0.553866
0.599086
0.64353
0.687245
0.730281
0.772704
0.814574
0.85579
0.896399
0.938111
0.982526
1.03008
1.08116
1.1355
1.19288
1.2529
1.31506
1.37877
1.44332
1.50797
1.57195
1.63452
1.69497
1.7527
1.80722
1.85816
1.90528
1.94844
1.98764
2.02297
2.0546
2.08275
2.1077
2.12972
2.14911
2.16611
2.18097
2.19436
2.20701
2.21926
2.23125
2.24302
2.25463
2.26613
2.27755
2.28892
2.30028
2.31165
2.32304
2.33447
2.34594
2.35745
2.369
2.38056
2.39213
2.40367
2.41516
2.42656
2.43783
2.44892
2.45979
2.47038
2.48065
2.49055
2.50001
2.50901
2.51749
2.52542
2.53278
2.53955
2.54571
2.55128
2.55626
2.56067
2.56455
2.56792
2.57084
2.57335
2.5755
2.57734
2.57892
2.5803
2.58152
2.58262
2.58366
2.58465
2.58564
2.58665
2.58771
2.58885
2.59008
2.59145
2.59297
2.59468
2.59655
2.5988
2.6014
-0.00777214
-0.0117399
-0.0277076
-0.0473222
-0.0731244
-0.104392
-0.1411
-0.182769
-0.228841
-0.27868
-0.331645
-0.387129
-0.444533
-0.503229
-0.562495
-0.621454
-0.679046
-0.734043
-0.785122
-0.831
-0.870586
-0.90313
-0.928318
-0.946386
-0.958988
-0.967843
-0.973021
-0.975454
-0.976614
-0.977347
-0.978473
-0.980536
-0.983965
-0.989079
-0.99611
-1.00521
-1.01646
-1.02987
-1.04541
-1.06295
-1.08231
-1.10325
-1.12545
-1.14854
-1.17212
-1.19572
-1.21886
-1.24104
-1.26175
-1.28046
-1.2967
-1.30996
-1.31979
-1.32575
-1.32749
-1.32475
-1.31733
-1.3051
-1.28796
-1.2659
-1.23896
-1.20729
-1.17108
-1.1306
-1.08619
-1.0382
-0.987005
-0.933012
-0.876613
-0.818197
-0.758138
-0.696793
-0.634496
-0.571555
-0.508247
-0.444825
-0.381508
-0.318489
-0.255934
-0.19398
-0.132741
-0.0723089
-0.0127532
0.0458745
0.10354
0.160222
0.215916
0.270626
0.324367
0.377162
0.429042
0.480043
0.530207
0.579576
0.628199
0.676143
0.723469
0.770033
0.815878
0.863141
0.913606
0.967632
1.02564
1.0873
1.1523
1.22013
1.29018
1.3617
1.43385
1.50573
1.57646
1.64517
1.71112
1.77366
1.83231
1.88674
1.93676
1.98232
2.02348
2.06038
2.09325
2.12235
2.148
2.17051
2.19022
2.2074
2.22233
2.23567
2.24819
2.26027
2.27205
2.28357
2.29488
2.30603
2.31707
2.32801
2.33889
2.34972
2.36053
2.37131
2.38207
2.39281
2.40351
2.41416
2.42474
2.43522
2.44557
2.45575
2.46573
2.47546
2.4849
2.49401
2.50274
2.51105
2.51891
2.52628
2.53314
2.53947
2.54526
2.55052
2.55524
2.55945
2.56317
2.56644
2.56928
2.57174
2.57387
2.57571
2.5773
2.57868
2.5799
2.581
2.582
2.58295
2.58387
2.58479
2.58573
2.5867
2.58775
2.58887
2.5901
2.59146
2.59299
2.59469
2.59656
2.59882
2.60119
-0.00239468
-0.011123
-0.0263908
-0.0463989
-0.0722038
-0.103571
-0.140353
-0.182108
-0.22827
-0.278209
-0.331299
-0.386948
-0.444577
-0.503581
-0.563258
-0.622749
-0.680999
-0.736774
-0.788726
-0.835542
-0.876114
-0.909701
-0.936042
-0.955326
-0.968193
-0.975694
-0.979954
-0.982608
-0.983578
-0.983563
-0.983776
-0.984875
-0.987356
-0.991606
-0.997911
-1.00648
-1.01748
-1.03099
-1.04708
-1.06574
-1.08693
-1.11052
-1.13633
-1.1641
-1.19352
-1.22419
-1.25569
-1.28752
-1.31915
-1.35002
-1.37955
-1.40718
-1.43248
-1.45498
-1.47404
-1.48903
-1.49943
-1.50476
-1.50462
-1.49884
-1.48738
-1.47031
-1.4477
-1.41968
-1.38641
-1.34814
-1.30513
-1.25774
-1.20634
-1.15134
-1.09318
-1.03229
-0.969101
-0.904028
-0.837466
-0.769785
-0.701325
-0.632394
-0.563267
-0.494187
-0.425362
-0.356971
-0.289161
-0.222051
-0.155734
-0.0902801
-0.0257371
0.0378655
0.100515
0.162212
0.22297
0.282813
0.341772
0.399885
0.457191
0.51376
0.569656
0.624686
0.678862
0.734903
0.794931
0.859251
0.928332
1.00174
1.07902
1.15954
1.24247
1.32684
1.41157
1.49551
1.57754
1.65659
1.73172
1.80221
1.86754
1.92744
1.98184
2.03083
2.07461
2.11349
2.1478
2.17794
2.20428
2.22722
2.24714
2.26437
2.27922
2.29235
2.30455
2.31626
2.3276
2.33863
2.34939
2.35993
2.37029
2.3805
2.39058
2.40054
2.4104
2.42016
2.42981
2.43936
2.44878
2.45806
2.46718
2.47611
2.48481
2.49326
2.50141
2.50925
2.51671
2.52379
2.53044
2.53664
2.54237
2.54762
2.55238
2.55665
2.56045
2.5638
2.56672
2.56924
2.57142
2.57328
2.57487
2.57624
2.57743
2.57847
2.57939
2.58024
2.58104
2.58181
2.58256
2.58333
2.58412
2.58495
2.58582
2.58676
2.58778
2.58889
2.59011
2.59147
2.59299
2.5947
2.59656
2.59883
2.60107
0.00267764
-0.0105605
-0.025071
-0.0454519
-0.0712274
-0.102665
-0.139489
-0.181298
-0.227518
-0.277531
-0.330721
-0.386509
-0.444334
-0.503603
-0.563631
-0.623565
-0.682351
-0.738742
-0.791369
-0.83888
-0.880123
-0.914326
-0.941234
-0.961161
-0.974946
-0.98362
-0.988229
-0.989683
-0.9896
-0.989309
-0.989167
-0.989733
-0.991512
-0.994935
-1.00038
-1.00815
-1.01855
-1.03179
-1.04805
-1.06748
-1.09012
-1.11599
-1.145
-1.17699
-1.21176
-1.24902
-1.28843
-1.3296
-1.37209
-1.41542
-1.45908
-1.50268
-1.54594
-1.58772
-1.62643
-1.66147
-1.69283
-1.72052
-1.74416
-1.76292
-1.77616
-1.78321
-1.78347
-1.77665
-1.76279
-1.74208
-1.71479
-1.68122
-1.64173
-1.59668
-1.54648
-1.49156
-1.43236
-1.36936
-1.30301
-1.23379
-1.16214
-1.08849
-1.01326
-0.936822
-0.859542
-0.781741
-0.703709
-0.625703
-0.547946
-0.470624
-0.393892
-0.317869
-0.242646
-0.168283
-0.094817
-0.0222623
0.0493848
0.120141
0.190034
0.259123
0.327478
0.394877
0.461261
0.529919
0.603614
0.682844
0.76806
0.858696
0.95413
1.05347
1.15562
1.2593
1.36308
1.46548
1.56503
1.66037
1.75028
1.83379
1.91022
1.9792
2.04072
2.09506
2.14271
2.18428
2.22038
2.25162
2.27857
2.30174
2.32162
2.33863
2.35312
2.36573
2.37729
2.38828
2.39883
2.40899
2.4188
2.42832
2.43758
2.4466
2.45541
2.46401
2.47242
2.48064
2.48865
2.49646
2.50405
2.51139
2.51846
2.52525
2.53172
2.53784
2.5436
2.54895
2.55389
2.55838
2.56243
2.56601
2.56914
2.57181
2.57405
2.57589
2.57736
2.57849
2.57934
2.57996
2.5804
2.58069
2.58091
2.58107
2.58123
2.58141
2.58162
2.5819
2.58224
2.58266
2.58315
2.58373
2.58438
2.58511
2.58592
2.58682
2.58782
2.58891
2.59012
2.59148
2.593
2.5947
2.59656
2.59883
2.60107
0.00704871
-0.0100445
-0.0237905
-0.0444798
-0.0701849
-0.101646
-0.138465
-0.180283
-0.226515
-0.276558
-0.329802
-0.385679
-0.443639
-0.503099
-0.563378
-0.623628
-0.682791
-0.73961
-0.792703
-0.840698
-0.882421
-0.91708
-0.944393
-0.964636
-0.978593
-0.987373
-0.992273
-0.994445
-0.995035
-0.994988
-0.994968
-0.995603
-0.997387
-1.00072
-1.00592
-1.01329
-1.02308
-1.03557
-1.05103
-1.06974
-1.09195
-1.11786
-1.14764
-1.18136
-1.21904
-1.26064
-1.30601
-1.35493
-1.40707
-1.46201
-1.5192
-1.5779
-1.63708
-1.69646
-1.75628
-1.81596
-1.87495
-1.93264
-1.98454
-2.02813
-2.0649
-2.09577
-2.12134
-2.14121
-2.15491
-2.16183
-2.16131
-2.15287
-2.1364
-2.11203
-2.08005
-2.04083
-1.9948
-1.94244
-1.88424
-1.8207
-1.75233
-1.67964
-1.60312
-1.52326
-1.44052
-1.35536
-1.26819
-1.17941
-1.08942
-0.998577
-0.907213
-0.815648
-0.724173
-0.633042
-0.54247
-0.452622
-0.363614
-0.275515
-0.188358
-0.102122
-0.0167534
0.0675171
0.150533
0.23595
0.327593
0.42659
0.533277
0.646909
0.766595
0.891122
1.01901
1.14856
1.27793
1.4052
1.52851
1.64614
1.7566
1.85869
1.95156
2.03467
2.10785
2.17126
2.22548
2.2714
2.31011
2.34272
2.37018
2.39331
2.41278
2.42914
2.44286
2.45451
2.46497
2.47478
2.48403
2.49279
2.50111
2.50904
2.51661
2.52385
2.53079
2.53742
2.54376
2.54981
2.55557
2.56102
2.56615
2.57094
2.57538
2.57946
2.58313
2.5864
2.58924
2.59164
2.5936
2.5951
2.59615
2.59677
2.59698
2.59682
2.59631
2.59552
2.59449
2.59329
2.59198
2.59063
2.58928
2.58799
2.58681
2.58578
2.58492
2.58425
2.58377
2.58349
2.58339
2.58347
2.58371
2.5841
2.58462
2.58526
2.58602
2.58688
2.58784
2.58892
2.59013
2.59148
2.59299
2.59469
2.59656
2.59882
2.60119
0.0105248
-0.0095525
-0.0225843
-0.043495
-0.0690936
-0.100531
-0.137299
-0.179077
-0.225277
-0.275301
-0.328547
-0.384456
-0.442481
-0.502045
-0.562469
-0.622905
-0.682293
-0.739372
-0.792752
-0.841056
-0.883105
-0.918099
-0.945755
-0.966348
-0.980633
-0.989671
-0.994677
-0.996814
-0.997249
-0.99695
-0.996613
-0.996867
-0.998249
-1.00121
-1.00616
-1.01343
-1.02337
-1.0363
-1.05255
-1.07243
-1.09623
-1.12417
-1.15643
-1.19312
-1.2343
-1.27996
-1.33001
-1.38428
-1.44252
-1.50436
-1.56939
-1.63707
-1.70675
-1.77777
-1.84955
-1.9214
-1.99214
-2.06061
-2.13009
-2.20268
-2.27685
-2.35231
-2.42097
-2.47669
-2.52106
-2.55553
-2.58152
-2.59958
-2.60989
-2.61237
-2.6067
-2.59266
-2.57021
-2.53948
-2.50069
-2.45413
-2.40013
-2.3391
-2.27146
-2.19768
-2.11822
-2.0336
-1.9443
-1.85081
-1.75358
-1.65306
-1.54965
-1.44375
-1.33575
-1.22607
-1.11518
-1.00359
-0.891847
-0.780494
-0.669977
-0.560581
-0.452423
-0.345795
-0.24097
-0.134117
-0.0199521
0.103664
0.236894
0.378708
0.527824
0.682579
0.841013
1.00095
1.1601
1.31618
1.46699
1.61054
1.7451
1.86929
1.98211
2.08295
2.17163
2.24827
2.31324
2.36717
2.41106
2.44636
2.47472
2.49762
2.51623
2.53142
2.54384
2.55401
2.56282
2.57085
2.57821
2.58495
2.59115
2.59685
2.60209
2.60691
2.61132
2.61535
2.61901
2.6223
2.62521
2.62775
2.62991
2.63168
2.63304
2.63399
2.63452
2.63461
2.63426
2.63346
2.63223
2.63058
2.62853
2.62611
2.62336
2.62034
2.61711
2.61374
2.61029
2.60685
2.60348
2.60027
2.59726
2.59451
2.59207
2.58995
2.58818
2.58674
2.58565
2.58488
2.5844
2.58418
2.5842
2.58443
2.58483
2.5854
2.58609
2.58692
2.58786
2.58893
2.59013
2.59147
2.59298
2.59469
2.59655
2.5988
2.6014
0.0131125
-0.00905261
-0.021467
-0.0425079
-0.0679764
-0.0993497
-0.136032
-0.177733
-0.223862
-0.273828
-0.327034
-0.382922
-0.440952
-0.500545
-0.561025
-0.621542
-0.681037
-0.738249
-0.791791
-0.840288
-0.882563
-0.917816
-0.945761
-0.96666
-0.98125
-0.99058
-0.995859
-0.998261
-0.998912
-0.998741
-0.998464
-0.998724
-1.00006
-1.00293
-1.00773
-1.01479
-1.02446
-1.03708
-1.053
-1.07257
-1.09615
-1.12402
-1.15643
-1.19361
-1.23571
-1.2829
-1.3353
-1.39296
-1.45594
-1.52413
-1.59734
-1.6753
-1.75753
-1.84336
-1.93184
-2.02172
-2.1114
-2.19907
-2.28315
-2.36201
-2.43371
-2.49589
-2.55555
-2.62042
-2.68994
-2.76436
-2.83632
-2.89705
-2.94561
-2.98313
-3.01035
-3.02781
-3.0361
-3.03549
-3.02597
-3.00753
-2.98013
-2.94378
-2.89858
-2.84469
-2.78233
-2.7118
-2.63344
-2.54762
-2.45477
-2.35532
-2.24972
-2.13838
-2.02173
-1.90018
-1.77408
-1.64376
-1.50958
-1.37215
-1.23249
-1.0921
-0.952531
-0.815222
-0.681048
-0.54619
-0.403618
-0.249911
-0.0850949
0.0893964
0.271739
0.459687
0.650701
0.842109
1.03124
1.21558
1.39285
1.56108
1.71865
1.86428
1.99701
2.11617
2.22143
2.31281
2.39072
2.45585
2.50894
2.55074
2.58249
2.60611
2.62378
2.63729
2.64778
2.65584
2.66236
2.66799
2.67281
2.67692
2.68039
2.68328
2.68565
2.68753
2.68897
2.68998
2.69059
2.69079
2.69061
2.69003
2.68906
2.68769
2.68591
2.68371
2.6811
2.67806
2.67461
2.67074
2.66647
2.66184
2.65687
2.65162
2.64615
2.64053
2.63484
2.62916
2.62357
2.61817
2.61303
2.60822
2.60381
2.59984
2.59634
2.59332
2.5908
2.58875
2.58716
2.58598
2.58519
2.58474
2.58459
2.58469
2.585
2.5855
2.58616
2.58695
2.58788
2.58893
2.59012
2.59146
2.59297
2.59468
2.59655
2.59875
2.6017
0.0149504
-0.00851576
-0.0204319
-0.0415183
-0.0668436
-0.0981213
-0.134691
-0.17629
-0.222321
-0.272201
-0.325334
-0.381165
-0.439153
-0.498722
-0.559194
-0.61972
-0.679243
-0.736508
-0.790134
-0.838753
-0.881195
-0.916665
-0.94487
-0.966061
-0.980953
-0.990574
-0.996111
-0.99873
-0.999535
-0.999451
-0.999213
-0.999478
-1.0008
-1.00365
-1.00844
-1.01552
-1.02526
-1.038
-1.05414
-1.07402
-1.09803
-1.12647
-1.15953
-1.19744
-1.24031
-1.28826
-1.34136
-1.39959
-1.46296
-1.53123
-1.60415
-1.68155
-1.76308
-1.8484
-1.93713
-2.02889
-2.12324
-2.2198
-2.31813
-2.41741
-2.51643
-2.61339
-2.70643
-2.79264
-2.86838
-2.92906
-2.97907
-3.02805
-3.0784
-3.13085
-3.17963
-3.21961
-3.25205
-3.27768
-3.29658
-3.3087
-3.31374
-3.31124
-3.30067
-3.28153
-3.2533
-3.21559
-3.16806
-3.11054
-3.04298
-2.96531
-2.87745
-2.77943
-2.67136
-2.55347
-2.42611
-2.28981
-2.14504
-1.99218
-1.8313
-1.66249
-1.48708
-1.30924
-1.13441
-0.96146
-0.782192
-0.59129
-0.389065
-0.177495
0.0407489
0.262714
0.485243
0.705345
0.920278
1.12769
1.32564
1.51257
1.68728
1.84892
1.99688
2.1308
2.25045
2.3557
2.44654
2.52325
2.58654
2.63745
2.67684
2.70533
2.72425
2.73632
2.74433
2.74958
2.75313
2.75574
2.75743
2.75837
2.75866
2.75838
2.75762
2.75643
2.75484
2.7529
2.7506
2.74797
2.745
2.74168
2.73799
2.73394
2.72949
2.72464
2.71937
2.71369
2.7076
2.70112
2.69427
2.6871
2.67966
2.67202
2.66426
2.65647
2.64874
2.64116
2.63384
2.62687
2.62031
2.61426
2.60875
2.60383
2.59952
2.59583
2.59274
2.59023
2.58827
2.5868
2.58578
2.58515
2.58487
2.58487
2.58512
2.58557
2.5862
2.58697
2.58789
2.58893
2.59011
2.59144
2.59295
2.59467
2.59654
2.5987
2.60204
0.016225
-0.00793009
-0.0194653
-0.0405245
-0.0656982
-0.0968546
-0.133293
-0.174767
-0.22068
-0.270451
-0.323487
-0.379233
-0.437147
-0.496653
-0.557075
-0.617564
-0.677069
-0.734339
-0.788004
-0.836706
-0.879282
-0.914942
-0.943387
-0.964854
-0.980039
-0.989948
-0.995749
-0.998599
-0.999588
-0.999637
-0.999492
-0.999816
-1.00117
-1.00403
-1.00881
-1.01587
-1.02559
-1.03831
-1.05445
-1.07435
-1.09844
-1.12703
-1.16028
-1.19844
-1.2416
-1.28994
-1.34351
-1.40229
-1.46642
-1.53554
-1.60941
-1.68794
-1.7707
-1.85723
-1.94692
-2.03915
-2.13281
-2.22707
-2.32141
-2.41494
-2.50706
-2.59752
-2.68636
-2.77351
-2.8587
-2.94141
-3.02127
-3.09663
-3.16432
-3.21953
-3.26625
-3.31008
-3.35135
-3.38801
-3.41707
-3.43908
-3.45419
-3.4625
-3.46416
-3.45941
-3.44859
-3.43215
-3.41031
-3.38279
-3.34962
-3.31025
-3.26277
-3.20481
-3.13399
-3.04864
-2.94796
-2.83169
-2.69914
-2.54999
-2.38462
-2.20396
-2.00756
-1.79496
-1.57237
-1.34825
-1.12229
-0.885532
-0.639539
-0.386529
-0.130738
0.124268
0.37471
0.617684
0.85084
1.07261
1.28197
1.47836
1.66146
1.83107
1.98707
2.12937
2.25797
2.37287
2.47406
2.56144
2.63493
2.69472
2.74172
2.77728
2.80218
2.81667
2.82306
2.82503
2.82502
2.8241
2.82234
2.81993
2.81702
2.81373
2.81016
2.80637
2.80238
2.79821
2.79385
2.78927
2.78445
2.77933
2.77388
2.76805