/*--------------------------------*- C++ -*----------------------------------*\
| =========                 |                                                 |
| \\      /  F ield         | OpenFOAM: The Open Source CFD Toolbox           |
|  \\    /   O peration     | Version:  2406                                  |
|   \\  /    A nd           | Website:  www.openfoam.com                      |
|    \\/     M anipulation  |                                                 |
\*---------------------------------------------------------------------------*/
FoamFile
{
    version     2.0;
    format      ascii;
    arch        "LSB;label=32;scalar=64";
    class       surfaceScalarField;
    location    "800";
    object      phi;
}
// * * * * * * * * * * * * * * * * * * * * * * * * * * * * * * * * * * * * * //

dimensions      [0 3 -1 0 0 0 0];

oriented        oriented;

internalField   nonuniform List<scalar> 
10988
(
-7.45825e-05
1.00223e-06
-7.58454e-05
1.2629e-06
-7.70363e-05
1.19089e-06
-7.81488e-05
1.11246e-06
-7.9157e-05
1.00819e-06
-8.00792e-05
9.22323e-07
-8.09429e-05
8.63674e-07
-8.1774e-05
8.31052e-07
-8.25879e-05
8.13902e-07
-8.33885e-05
8.00579e-07
-8.41715e-05
7.83102e-07
-8.49302e-05
7.58609e-07
-8.56573e-05
7.27098e-07
-8.63458e-05
6.88504e-07
-8.6987e-05
6.41271e-07
-8.75691e-05
5.82078e-07
-8.80757e-05
5.06706e-07
-8.84878e-05
4.12032e-07
-8.87859e-05
2.98072e-07
-8.89551e-05
1.69292e-07
-8.89899e-05
3.48233e-08
-8.88899e-05
-1.00059e-07
-8.86571e-05
-2.32817e-07
-8.8306e-05
-3.51073e-07
-8.7867e-05
-4.38929e-07
-8.73808e-05
-4.86182e-07
-8.68925e-05
-4.8832e-07
-8.64459e-05
-4.4658e-07
-8.60788e-05
-3.67116e-07
-8.58198e-05
-2.59077e-07
-8.56868e-05
-1.3298e-07
-8.56877e-05
9.37742e-10
-8.58084e-05
1.20701e-07
-8.6025e-05
2.1658e-07
-8.63235e-05
2.98501e-07
-8.66937e-05
3.70256e-07
-8.71263e-05
4.32637e-07
-8.76121e-05
4.85781e-07
-8.81415e-05
5.29424e-07
-8.87047e-05
5.63232e-07
-8.92916e-05
5.86848e-07
-8.98917e-05
6.00084e-07
-9.04945e-05
6.02871e-07
-9.10898e-05
5.95317e-07
-9.16676e-05
5.77759e-07
-9.22184e-05
5.50758e-07
-9.27334e-05
5.15068e-07
-9.3205e-05
4.71544e-07
-9.36262e-05
4.21203e-07
-9.39914e-05
3.65206e-07
-9.42961e-05
3.04686e-07
-9.45369e-05
2.40767e-07
-9.47116e-05
1.74761e-07
-9.48195e-05
1.07911e-07
-9.48607e-05
4.11647e-08
-9.48338e-05
-2.68685e-08
-9.47375e-05
-9.62289e-08
-9.45738e-05
-1.63771e-07
-9.43461e-05
-2.27648e-07
-9.40588e-05
-2.873e-07
-9.37165e-05
-3.4235e-07
-9.33239e-05
-3.92579e-07
-9.2886e-05
-4.37921e-07
-9.24076e-05
-4.78385e-07
-9.18935e-05
-5.14051e-07
-9.13484e-05
-5.4509e-07
-9.07767e-05
-5.71725e-07
-9.01825e-05
-5.94222e-07
-8.95696e-05
-6.12889e-07
-8.89415e-05
-6.28042e-07
-8.83015e-05
-6.39992e-07
-8.76524e-05
-6.49063e-07
-8.69969e-05
-6.5557e-07
-8.63371e-05
-6.59814e-07
-8.5675e-05
-6.62099e-07
-8.50123e-05
-6.62709e-07
-8.43504e-05
-6.61899e-07
-8.36905e-05
-6.59902e-07
-8.30335e-05
-6.56934e-07
-8.23803e-05
-6.5319e-07
-8.17315e-05
-6.48852e-07
-8.10874e-05
-6.44079e-07
-8.04484e-05
-6.39021e-07
-7.98146e-05
-6.33808e-07
-7.9186e-05
-6.28559e-07
-7.85626e-05
-6.23377e-07
-7.79443e-05
-6.18353e-07
-7.73307e-05
-6.13569e-07
-7.67216e-05
-6.091e-07
-7.61166e-05
-6.05014e-07
-7.55152e-05
-6.01373e-07
-7.49169e-05
-5.98232e-07
-7.43213e-05
-5.95639e-07
-7.37277e-05
-5.93636e-07
-7.31354e-05
-5.92264e-07
-7.25439e-05
-5.91569e-07
-7.19523e-05
-5.91599e-07
-7.13599e-05
-5.92375e-07
-7.07658e-05
-5.94031e-07
-7.01687e-05
-5.97106e-07
-6.95055e-05
-6.63288e-07
-6.87738e-05
-7.31652e-07
-6.7972e-05
-8.01777e-07
-6.70996e-05
-8.72433e-07
-6.61575e-05
-9.42162e-07
-6.51483e-05
-1.00918e-06
-6.40768e-05
-1.07147e-06
-6.29499e-05
-1.12688e-06
-6.17767e-05
-1.17326e-06
-6.05681e-05
-1.20863e-06
-5.93367e-05
-1.23135e-06
-5.80965e-05
-1.24028e-06
-5.68616e-05
-1.23492e-06
-5.56461e-05
-1.21546e-06
-5.44633e-05
-1.18278e-06
-5.3325e-05
-1.13835e-06
-5.22409e-05
-1.08411e-06
-5.12186e-05
-1.02225e-06
-5.02635e-05
-9.55084e-07
-4.93787e-05
-8.84831e-07
-4.85652e-05
-8.13518e-07
-4.78223e-05
-7.42876e-07
-4.7148e-05
-6.74303e-07
-4.65392e-05
-6.08861e-07
-4.59919e-05
-5.47302e-07
-4.55018e-05
-4.90068e-07
-4.50643e-05
-4.37449e-07
-4.46745e-05
-3.8982e-07
-4.42897e-05
-3.84826e-07
-4.39083e-05
-3.8141e-07
-4.35285e-05
-3.79764e-07
-4.31487e-05
-3.79812e-07
-4.27672e-05
-3.81491e-07
-4.23825e-05
-3.84716e-07
-4.19931e-05
-3.89397e-07
-4.15977e-05
-3.95439e-07
-4.11949e-05
-4.02743e-07
-4.07837e-05
-4.11202e-07
-4.0363e-05
-4.20696e-07
-3.99319e-05
-4.31095e-07
-3.94897e-05
-4.42253e-07
-3.90357e-05
-4.54009e-07
-3.85695e-05
-4.66178e-07
-3.80909e-05
-4.78554e-07
-3.76e-05
-4.90908e-07
-3.7097e-05
-5.02983e-07
-3.65825e-05
-5.14497e-07
-3.60574e-05
-5.25138e-07
-3.55228e-05
-5.34573e-07
-3.49804e-05
-5.42439e-07
-3.4432e-05
-5.4836e-07
-3.38801e-05
-5.51945e-07
-3.33273e-05
-5.52802e-07
-3.27767e-05
-5.50546e-07
-3.22319e-05
-5.4482e-07
-3.16966e-05
-5.35307e-07
-3.11748e-05
-5.21751e-07
-3.06709e-05
-5.03976e-07
-3.01889e-05
-4.81914e-07
-2.97333e-05
-4.55615e-07
-2.9308e-05
-4.25273e-07
-2.89168e-05
-3.91226e-07
-2.85629e-05
-3.53956e-07
-2.82488e-05
-3.14077e-07
-2.79765e-05
-2.72308e-07
-2.77471e-05
-2.29432e-07
-2.75608e-05
-1.86251e-07
-2.74173e-05
-1.43516e-07
-2.73155e-05
-1.01858e-07
-2.72538e-05
-6.17195e-08
-2.72305e-05
-2.32714e-08
-2.72431e-05
1.2604e-08
-2.72874e-05
4.43465e-08
-2.73606e-05
7.31924e-08
-2.74625e-05
1.01857e-07
-2.75947e-05
1.3217e-07
-2.77616e-05
1.66944e-07
-2.79722e-05
2.10581e-07
-2.82421e-05
2.69886e-07
-2.8597e-05
3.54948e-07
-2.90767e-05
4.79621e-07
-2.97375e-05
6.60806e-07
-3.06538e-05
9.16377e-07
-3.19162e-05
1.26237e-06
-3.36136e-05
1.6974e-06
-3.58577e-05
2.24409e-06
4.14231e-06
-0.000113476
2.4503e-06
-0.000115644
3.43094e-06
-0.00011771
3.25708e-06
-0.000119686
3.08767e-06
-0.000121481
2.80379e-06
-0.000123101
2.54256e-06
-0.000124579
2.34097e-06
-0.000125963
2.21494e-06
-0.000127294
2.1457e-06
-0.000128596
2.10263e-06
-0.000129873
2.05976e-06
-0.000131118
2.00377e-06
-0.000132322
1.93096e-06
-0.000133473
1.83983e-06
-0.000134559
1.72645e-06
-0.00013556
1.58312e-06
-0.000136453
1.40027e-06
-0.000137212
1.1705e-06
-0.000137807
8.93124e-07
-0.000138215
5.77462e-07
-0.000138424
2.43621e-07
-0.000138441
-8.25155e-08
-0.000138287
-3.87384e-07
-0.000137988
-6.49332e-07
-0.000137597
-8.30778e-07
-0.000137176
-9.06631e-07
-0.000136795
-8.69008e-07
-0.000136516
-7.26341e-07
-0.000136382
-5.01072e-07
-0.000136417
-2.24278e-07
-0.000136619
6.94729e-08
-0.000136952
3.34182e-07
-0.000137376
5.44425e-07
-0.000137866
7.06493e-07
-0.000138397
8.2938e-07
-0.000138948
9.21234e-07
-0.000139503
9.88297e-07
-0.000140052
1.0345e-06
-0.000140584
1.06185e-06
-0.000141093
1.07138e-06
-0.000141569
1.06345e-06
-0.000142007
1.03817e-06
-0.0001424
9.95633e-07
-0.000142741
9.36088e-07
-0.000143023
8.60116e-07
-0.000143241
7.68703e-07
-0.000143389
6.63214e-07
-0.000143463
5.45247e-07
-0.000143458
4.16715e-07
-0.000143373
2.79852e-07
-0.000143205
1.36906e-07
-0.000142954
-1.0466e-08
-0.000142618
-1.60815e-07
-0.000142199
-3.11389e-07
-0.000141698
-4.59457e-07
-0.000141122
-6.0345e-07
-0.000140477
-7.41654e-07
-0.000139768
-8.72391e-07
-0.000139001
-9.94444e-07
-0.000138181
-1.10699e-06
-0.000137314
-1.20946e-06
-0.000136405
-1.30156e-06
-0.00013546
-1.38323e-06
-0.000134484
-1.45461e-06
-0.000133482
-1.51596e-06
-0.000132459
-1.56769e-06
-0.000131421
-1.61036e-06
-0.00013037
-1.64456e-06
-0.000129312
-1.67094e-06
-0.00012825
-1.6902e-06
-0.000127187
-1.70305e-06
-0.000126126
-1.71019e-06
-0.000125069
-1.71233e-06
-0.000124019
-1.7101e-06
-0.000122977
-1.70415e-06
-0.000121944
-1.69507e-06
-0.000120923
-1.6834e-06
-0.000119913
-1.66965e-06
-0.000118916
-1.65427e-06
-0.000117931
-1.63769e-06
-0.00011696
-1.62028e-06
-0.000116002
-1.60237e-06
-0.000115056
-1.58426e-06
-0.000114124
-1.56623e-06
-0.000113204
-1.54852e-06
-0.000112296
-1.53134e-06
-0.0001114
-1.51489e-06
-0.000110514
-1.49932e-06
-0.000109638
-1.4848e-06
-0.000108772
-1.47145e-06
-0.000107914
-1.45941e-06
-0.000107063
-1.44876e-06
-0.000106219
-1.43961e-06
-0.000105381
-1.43204e-06
-0.000104547
-1.42613e-06
-0.000103716
-1.42194e-06
-0.000102888
-1.41955e-06
-0.000102062
-1.41901e-06
-0.000101235
-1.42043e-06
-0.000100409
-1.42394e-06
-9.94939e-05
-1.57794e-06
-9.84872e-05
-1.73834e-06
-9.73861e-05
-1.90296e-06
-9.61896e-05
-2.06883e-06
-9.48995e-05
-2.23232e-06
-9.35196e-05
-2.38912e-06
-9.20566e-05
-2.53446e-06
-9.05202e-05
-2.66327e-06
-8.89229e-05
-2.77054e-06
-8.72799e-05
-2.8517e-06
-8.56082e-05
-2.90298e-06
-8.39267e-05
-2.92184e-06
-8.22544e-05
-2.90721e-06
-8.06102e-05
-2.85963e-06
-7.90118e-05
-2.78122e-06
-7.74747e-05
-2.67548e-06
-7.60118e-05
-2.54696e-06
-7.46332e-05
-2.40082e-06
-7.33459e-05
-2.24244e-06
-7.21537e-05
-2.07699e-06
-7.10581e-05
-1.90917e-06
-7.0058e-05
-1.74301e-06
-6.91505e-05
-1.58172e-06
-6.83316e-05
-1.42776e-06
-6.75961e-05
-1.28285e-06
-6.69381e-05
-1.14804e-06
-6.63517e-05
-1.0239e-06
-6.58309e-05
-9.10596e-07
-6.53184e-05
-8.97317e-07
-6.48113e-05
-8.88533e-07
-6.4307e-05
-8.84049e-07
-6.38031e-05
-8.83646e-07
-6.32975e-05
-8.87102e-07
-6.27881e-05
-8.94196e-07
-6.22727e-05
-9.04704e-07
-6.17498e-05
-9.18395e-07
-6.12175e-05
-9.35028e-07
-6.06744e-05
-9.54343e-07
-6.0119e-05
-9.76059e-07
-5.95502e-05
-9.99869e-07
-5.89671e-05
-1.02543e-06
-5.83687e-05
-1.05236e-06
-5.77546e-05
-1.08022e-06
-5.71246e-05
-1.10855e-06
-5.64787e-05
-1.13679e-06
-5.58174e-05
-1.16435e-06
-5.51413e-05
-1.19057e-06
-5.44517e-05
-1.21472e-06
-5.37502e-05
-1.23603e-06
-5.3039e-05
-1.25364e-06
-5.23207e-05
-1.2667e-06
-5.15984e-05
-1.27428e-06
-5.08757e-05
-1.27547e-06
-5.01569e-05
-1.26939e-06
-4.94465e-05
-1.25519e-06
-4.87497e-05
-1.23215e-06
-4.80718e-05
-1.19964e-06
-4.74185e-05
-1.15727e-06
-4.67955e-05
-1.10486e-06
-4.62086e-05
-1.0425e-06
-4.56633e-05
-9.70627e-07
-4.51645e-05
-8.89987e-07
-4.47168e-05
-8.0166e-07
-4.43239e-05
-7.07022e-07
-4.39885e-05
-6.07683e-07
-4.37126e-05
-5.05402e-07
-4.34969e-05
-4.01957e-07
-4.33414e-05
-2.99002e-07
-4.32454e-05
-1.97908e-07
-4.32075e-05
-9.96148e-08
-4.32263e-05
-4.4469e-09
-4.32975e-05
8.37409e-08
-4.34176e-05
1.64502e-07
-4.35878e-05
2.43383e-07
-4.38096e-05
3.23628e-07
-4.40866e-05
4.09224e-07
-4.44251e-05
5.05371e-07
-4.48335e-05
6.18963e-07
-4.53225e-05
7.58918e-07
-4.59038e-05
9.3626e-07
-4.65877e-05
1.16353e-06
-4.73801e-05
1.45313e-06
-4.82786e-05
1.81497e-06
-4.927e-05
2.25372e-06
-5.03162e-05
2.74358e-06
-5.13566e-05
3.28455e-06
5.21917e-06
-0.000157864
4.552e-06
-0.000161316
6.88252e-06
-0.00016479
6.73085e-06
-0.000168266
6.56438e-06
-0.000171542
6.07959e-06
-0.000174521
5.52129e-06
-0.000177165
4.98481e-06
-0.000179513
4.56325e-06
-0.000181649
4.28136e-06
-0.000183655
4.10877e-06
-0.000185586
3.99058e-06
-0.000187463
3.88118e-06
-0.000189287
3.75515e-06
-0.000191047
3.59954e-06
-0.000192724
3.40354e-06
-0.000194294
3.15298e-06
-0.000195725
2.83168e-06
-0.000196982
2.42703e-06
-0.000198026
1.93708e-06
-0.000198824
1.37586e-06
-0.000199355
7.74756e-07
-0.000199617
1.78791e-07
-0.000199632
-3.72086e-07
-0.000199433
-8.47893e-07
-0.000199063
-1.20087e-06
-0.000198583
-1.38671e-06
-0.000198056
-1.39568e-06
-0.000197537
-1.24535e-06
-0.000197064
-9.74724e-07
-0.000196654
-6.3413e-07
-0.000196311
-2.73392e-07
-0.000196041
6.40264e-08
-0.00019584
3.43955e-07
-0.000195691
5.57004e-07
-0.000195576
7.14763e-07
-0.000195484
8.29227e-07
-0.000195406
9.09418e-07
-0.000195332
9.61407e-07
-0.000195259
9.88353e-07
-0.000195179
9.91619e-07
-0.000195087
9.71443e-07
-0.000194977
9.27531e-07
-0.000194841
8.59582e-07
-0.000194672
7.67533e-07
-0.000194464
6.51872e-07
-0.000194209
5.13679e-07
-0.0001939
3.54716e-07
-0.000193532
1.77187e-07
-0.000193099
-1.64533e-08
-0.000192596
-2.23317e-07
-0.000192019
-4.3992e-07
-0.000191367
-6.62747e-07
-0.000190639
-8.88267e-07
-0.000189838
-1.11301e-06
-0.000188963
-1.33392e-06
-0.000188018
-1.54827e-06
-0.000187007
-1.75348e-06
-0.000185932
-1.94725e-06
-0.000184798
-2.12772e-06
-0.000183612
-2.29352e-06
-0.000182378
-2.44373e-06
-0.000181101
-2.57777e-06
-0.000179789
-2.6955e-06
-0.000178447
-2.79703e-06
-0.00017708
-2.88276e-06
-0.000175694
-2.95335e-06
-0.000174295
-3.0096e-06
-0.000172887
-3.05246e-06
-0.000171475
-3.08299e-06
-0.000170063
-3.10231e-06
-0.000168655
-3.11156e-06
-0.000167253
-3.11189e-06
-0.000165861
-3.10443e-06
-0.000164481
-3.09025e-06
-0.000163114
-3.07039e-06
-0.000161764
-3.04584e-06
-0.00016043
-3.01747e-06
-0.000159113
-2.98613e-06
-0.000157815
-2.95257e-06
-0.000156535
-2.91746e-06
-0.000155274
-2.88142e-06
-0.000154031
-2.84499e-06
-0.000152807
-2.80866e-06
-0.0001516
-2.77286e-06
-0.000150411
-2.73799e-06
-0.000149238
-2.70437e-06
-0.00014808
-2.67231e-06
-0.000146937
-2.64208e-06
-0.000145808
-2.61391e-06
-0.000144692
-2.58801e-06
-0.000143587
-2.56456e-06
-0.000142492
-2.54373e-06
-0.000141406
-2.52566e-06
-0.000140327
-2.51047e-06
-0.000139255
-2.49827e-06
-0.000138188
-2.48915e-06
-0.000137124
-2.4832e-06
-0.000136063
-2.48048e-06
-0.000135002
-2.48099e-06
-0.000133941
-2.48475e-06
-0.000132768
-2.75101e-06
-0.000131478
-3.02863e-06
-0.000130068
-3.31337e-06
-0.000128536
-3.60009e-06
-0.000126886
-3.88229e-06
-0.000125123
-4.15245e-06
-0.000123255
-4.40221e-06
-0.000121296
-4.6228e-06
-0.000119261
-4.80555e-06
-0.00011717
-4.94262e-06
-0.000115045
-5.02763e-06
-0.000112911
-5.05635e-06
-0.000110791
-5.02711e-06
-0.000108709
-4.94105e-06
-0.000106689
-4.802e-06
-0.000104748
-4.61616e-06
-0.000102903
-4.39146e-06
-0.000101167
-4.13687e-06
-9.95481e-05
-3.86168e-06
-9.80503e-05
-3.5748e-06
-9.66752e-05
-3.28427e-06
-9.54212e-05
-2.99697e-06
-9.42845e-05
-2.7184e-06
-9.32596e-05
-2.45269e-06
-9.23397e-05
-2.20273e-06
-9.15175e-05
-1.97027e-06
-9.07852e-05
-1.75617e-06
-9.01352e-05
-1.56053e-06
-8.9496e-05
-1.53653e-06
-8.8864e-05
-1.52058e-06
-8.82359e-05
-1.51212e-06
-8.76088e-05
-1.51073e-06
-8.69799e-05
-1.51598e-06
-8.63467e-05
-1.52747e-06
-8.57066e-05
-1.5448e-06
-8.50574e-05
-1.56756e-06
-8.43971e-05
-1.59533e-06
-8.37238e-05
-1.62764e-06
-8.30358e-05
-1.66402e-06
-8.23318e-05
-1.70393e-06
-8.16104e-05
-1.74677e-06
-8.08709e-05
-1.79188e-06
-8.01126e-05
-1.83852e-06
-7.93353e-05
-1.88585e-06
-7.85391e-05
-1.93296e-06
-7.77247e-05
-1.97881e-06
-7.6893e-05
-2.02228e-06
-7.60455e-05
-2.06212e-06
-7.51846e-05
-2.09701e-06
-7.43127e-05
-2.12551e-06
-7.34333e-05
-2.14612e-06
-7.25503e-05
-2.1573e-06
-7.16682e-05
-2.15751e-06
-7.07924e-05
-2.14522e-06
-6.99286e-05
-2.11902e-06
-6.90831e-05
-2.07764e-06
-6.82627e-05
-2.02006e-06
-6.74743e-05
-1.94558e-06
-6.67253e-05
-1.85388e-06
-6.60227e-05
-1.74514e-06
-6.53732e-05
-1.62005e-06
-6.47834e-05
-1.47987e-06
-6.42586e-05
-1.3264e-06
-6.38037e-05
-1.16196e-06
-6.34221e-05
-9.89285e-07
-6.31162e-05
-8.11367e-07
-6.28869e-05
-6.31269e-07
-6.2734e-05
-4.51897e-07
-6.26561e-05
-2.75757e-07
-6.2651e-05
-1.04772e-07
-6.27135e-05
5.80706e-08
-6.28388e-05
2.08979e-07
-6.30239e-05
3.49673e-07
-6.32657e-05
4.85191e-07
-6.35608e-05
6.18724e-07
-6.39057e-05
7.54039e-07
-6.42958e-05
8.95543e-07
-6.47254e-05
1.04853e-06
-6.51859e-05
1.21944e-06
-6.56659e-05
1.41619e-06
-6.61507e-05
1.64834e-06
-6.6624e-05
1.92644e-06
-6.70695e-05
2.26048e-06
-6.74721e-05
2.6563e-06
-6.78124e-05
3.08391e-06
-6.80684e-05
3.54053e-06
5.38087e-06
-0.000210132
7.39848e-06
-0.000215061
1.1812e-05
-0.000220276
1.19458e-05
-0.000225799
1.20874e-05
-0.000231366
1.16466e-05
-0.000236779
1.09344e-05
-0.00024183
1.00351e-05
-0.000246364
9.09755e-06
-0.000250329
8.24616e-06
-0.000253784
7.56401e-06
-0.000256858
7.06462e-06
-0.000259678
6.70094e-06
-0.000262324
6.40172e-06
-0.000264828
6.10314e-06
-0.000267182
5.75737e-06
-0.000269355
5.32605e-06
-0.0002713
4.77664e-06
-0.000272959
4.08589e-06
-0.000274269
3.24782e-06
-0.000275174
2.28095e-06
-0.00027563
1.23062e-06
-0.000275617
1.65491e-07
-0.000275141
-8.47707e-07
-0.000274239
-1.75021e-06
-0.000272973
-2.46648e-06
-0.000271428
-2.93188e-06
-0.000269699
-3.12462e-06
-0.000267884
-3.06086e-06
-0.00026607
-2.78843e-06
-0.00026433
-2.37415e-06
-0.000262715
-1.88842e-06
-0.000261256
-1.39513e-06
-0.000259969
-9.42575e-07
-0.000258857
-5.55454e-07
-0.000257904
-2.37837e-07
-0.000257091
1.54725e-08
-0.000256392
2.10966e-07
-0.000255786
3.55118e-07
-0.000255251
4.53687e-07
-0.00025477
5.1008e-07
-0.000254324
5.2588e-07
-0.000253898
5.01828e-07
-0.000253477
4.38506e-07
-0.000253046
3.367e-07
-0.000252592
1.97747e-07
-0.000252102
2.35725e-08
-0.000251564
-1.83144e-07
-0.000250968
-4.18909e-07
-0.000250305
-6.79592e-07
-0.000249568
-9.60584e-07
-0.000248751
-1.2569e-06
-0.00024785
-1.56346e-06
-0.000246863
-1.87516e-06
-0.000245789
-2.18702e-06
-0.000244629
-2.49443e-06
-0.000243384
-2.79316e-06
-0.000242058
-3.07933e-06
-0.000240656
-3.34959e-06
-0.000239182
-3.6012e-06
-0.000237644
-3.83207e-06
-0.000236047
-4.04073e-06
-0.000234398
-4.22626e-06
-0.000232705
-4.38827e-06
-0.000230975
-4.52687e-06
-0.000229216
-4.64256e-06
-0.000227433
-4.73617e-06
-0.000225634
-4.80885e-06
-0.000223824
-4.86193e-06
-0.00022201
-4.89692e-06
-0.000220197
-4.91544e-06
-0.00021839
-4.91917e-06
-0.000216592
-4.9098e-06
-0.000214807
-4.889e-06
-0.000213039
-4.85841e-06
-0.00021129
-4.81958e-06
-0.000209562
-4.77398e-06
-0.000207856
-4.72296e-06
-0.000206174
-4.6678e-06
-0.000204517
-4.60963e-06
-0.000202885
-4.54952e-06
-0.000201278
-4.48839e-06
-0.000199696
-4.42707e-06
-0.000198139
-4.36632e-06
-0.000196605
-4.30679e-06
-0.000195094
-4.24907e-06
-0.000193604
-4.19364e-06
-0.000192136
-4.14097e-06
-0.000190686
-4.09143e-06
-0.000189255
-4.04537e-06
-0.00018784
-4.00308e-06
-0.000186439
-3.96483e-06
-0.000185052
-3.93082e-06
-0.000183677
-3.90127e-06
-0.000182311
-3.87632e-06
-0.000180953
-3.85612e-06
-0.000179601
-3.84079e-06
-0.000178254
-3.83042e-06
-0.00017691
-3.82509e-06
-0.000175566
-3.82479e-06
-0.000174221
-3.82951e-06
-0.000172733
-4.23893e-06
-0.000171096
-4.66567e-06
-0.000169306
-5.10309e-06
-0.000167363
-5.54303e-06
-0.00016527
-5.97537e-06
-0.000163034
-6.3884e-06
-0.000160667
-6.76914e-06
-0.000158186
-7.10399e-06
-0.000155612
-7.37967e-06
-0.000152971
-7.58419e-06
-0.00015029
-7.70796e-06
-0.000147602
-7.74473e-06
-0.000144937
-7.69229e-06
-0.000142325
-7.55275e-06
-0.000139795
-7.33241e-06
-0.00013737
-7.04108e-06
-0.00013507
-6.69119e-06
-0.00013291
-6.29669e-06
-0.0001309
-5.87184e-06
-0.000129044
-5.43032e-06
-0.000127344
-4.98435e-06
-0.000125797
-4.54432e-06
-0.000124397
-4.11849e-06
-0.000123137
-3.71304e-06
-0.000122007
-3.33218e-06
-0.000120999
-2.9785e-06
-0.000120102
-2.65313e-06
-0.000119306
-2.35617e-06
-0.000118524
-2.31872e-06
-0.000117751
-2.2935e-06
-0.000116984
-2.27963e-06
-0.000116218
-2.27641e-06
-0.000115451
-2.2832e-06
-0.000114679
-2.29936e-06
-0.000113899
-2.32426e-06
-0.00011311
-2.35727e-06
-0.000112307
-2.39772e-06
-0.00011149
-2.44491e-06
-0.000110656
-2.49809e-06
-0.000109804
-2.55643e-06
-0.000108931
-2.61901e-06
-0.000108038
-2.68482e-06
-0.000107124
-2.75273e-06
-0.000106189
-2.82148e-06
-0.000105232
-2.88966e-06
-0.000104255
-2.95573e-06
-0.000103259
-3.01798e-06
-0.000102247
-3.07457e-06
-0.00010122
-3.12351e-06
-0.000100183
-3.16268e-06
-9.91393e-05
-3.18987e-06
-9.80938e-05
-3.20283e-06
-9.7052e-05
-3.19928e-06
-9.60202e-05
-3.17705e-06
-9.50051e-05
-3.13411e-06
-9.40141e-05
-3.06868e-06
-9.30548e-05
-2.97936e-06
-9.21351e-05
-2.86525e-06
-9.12629e-05
-2.72603e-06
-9.04459e-05
-2.56213e-06
-8.96912e-05
-2.37476e-06
-8.90052e-05
-2.16595e-06
-8.8393e-05
-1.9386e-06
-8.78586e-05
-1.69636e-06
-8.74043e-05
-1.44352e-06
-8.70309e-05
-1.1848e-06
-8.67371e-05
-9.25063e-07
-8.652e-05
-6.6899e-07
-8.6375e-05
-4.20785e-07
-8.62959e-05
-1.83893e-07
-8.62765e-05
3.86392e-08
-8.63108e-05
2.43268e-07
-8.63914e-05
4.30301e-07
-8.65101e-05
6.03837e-07
-8.66585e-05
7.67117e-07
-8.68285e-05
9.24084e-07
-8.70124e-05
1.07943e-06
-8.72026e-05
1.23876e-06
-8.73921e-05
1.40887e-06
-8.75739e-05
1.59803e-06
-8.77417e-05
1.81613e-06
-8.78892e-05
2.07394e-06
-8.80103e-05
2.38153e-06
-8.80988e-05
2.74487e-06
-8.81457e-05
3.1308e-06
-8.81361e-05
3.53092e-06
5.18899e-06
-0.000271042
1.0962e-05
-0.000277334
1.81043e-05
-0.000284145
1.87567e-05
-0.000291567
1.95091e-05
-0.00029934
1.94191e-05
-0.000307286
1.88804e-05
-0.000315181
1.79305e-05
-0.00032279
1.67062e-05
-0.000329876
1.53321e-05
-0.000336243
1.39317e-05
-0.000341788
1.26087e-05
-0.00034652
1.14334e-05
-0.000350544
1.0426e-05
-0.000353991
9.54961e-06
-0.000356959
8.72517e-06
-0.000359492
7.85978e-06
-0.000361587
6.87175e-06
-0.000363207
5.70559e-06
-0.0003643
4.34121e-06
-0.000364819
2.79923e-06
-0.000364729
1.14075e-06
-0.000364022
-5.4151e-07
-0.000362713
-2.15629e-06
-0.000360853
-3.61015e-06
-0.000358524
-4.79631e-06
-0.000355824
-5.63141e-06
-0.000352871
-6.07765e-06
-0.000349787
-6.14473e-06
-0.000346691
-5.88496e-06
-0.000343685
-5.37972e-06
-0.000340853
-4.72055e-06
-0.000338252
-3.99617e-06
-0.000335915
-3.27948e-06
-0.000333853
-2.61783e-06
-0.000332056
-2.03446e-06
-0.000330503
-1.53741e-06
-0.000329165
-1.12698e-06
-0.00032801
-7.99688e-07
-0.000327006
-5.50665e-07
-0.000326121
-3.75445e-07
-0.000325324
-2.70446e-07
-0.00032459
-2.32721e-07
-0.000323892
-2.59523e-07
-0.000323207
-3.48013e-07
-0.000322514
-4.94892e-07
-0.000321795
-6.96256e-07
-0.00032103
-9.47412e-07
-0.000320206
-1.24286e-06
-0.00031931
-1.57633e-06
-0.000318329
-1.94104e-06
-0.000317256
-2.32979e-06
-0.000316084
-2.73521e-06
-0.00031481
-3.14994e-06
-0.00031343
-3.56686e-06
-0.000311945
-3.97928e-06
-0.000310357
-4.38106e-06
-0.00030867
-4.7667e-06
-0.000306888
-5.13143e-06
-0.000305018
-5.47131e-06
-0.000303066
-5.78327e-06
-0.000301042
-6.06507e-06
-0.000298953
-6.31531e-06
-0.000296808
-6.53332e-06
-0.000294616
-6.71906e-06
-0.000292385
-6.87311e-06
-0.000290125
-6.99651e-06
-0.000287843
-7.09075e-06
-0.000285547
-7.1576e-06
-0.000283245
-7.19912e-06
-0.000280943
-7.21749e-06
-0.000278647
-7.21501e-06
-0.000276363
-7.19403e-06
-0.000274095
-7.15689e-06
-0.000271848
-7.10586e-06
-0.000269624
-7.04314e-06
-0.000267427
-6.97082e-06
-0.000265259
-6.89086e-06
-0.000263122
-6.80508e-06
-0.000261017
-6.71515e-06
-0.000258944
-6.6226e-06
-0.000256903
-6.5288e-06
-0.000254895
-6.43498e-06
-0.000252919
-6.34225e-06
-0.000250975
-6.25157e-06
-0.00024906
-6.16381e-06
-0.000247174
-6.0797e-06
-0.000245315
-5.9999e-06
-0.000243481
-5.92498e-06
-0.000241671
-5.85543e-06
-0.000239883
-5.79166e-06
-0.000238113
-5.73404e-06
-0.000236361
-5.68288e-06
-0.000234624
-5.63843e-06
-0.0002329
-5.60092e-06
-0.000231185
-5.57052e-06
-0.000229479
-5.54738e-06
-0.000227777
-5.53163e-06
-0.000226079
-5.52335e-06
-0.000224381
-5.52257e-06
-0.000222682
-5.52928e-06
-0.0002208
-6.12055e-06
-0.000218729
-6.73695e-06
-0.000216463
-7.36871e-06
-0.000214002
-8.00374e-06
-0.00021135
-8.62722e-06
-0.000208517
-9.22193e-06
-0.000205517
-9.7689e-06
-0.000202373
-1.02483e-05
-0.000199112
-1.06408e-05
-0.000195767
-1.09291e-05
-0.000192375
-1.10995e-05
-0.000188977
-1.11433e-05
-0.000185611
-1.10576e-05
-0.000182318
-1.08459e-05
-0.000179133
-1.05181e-05
-0.000176085
-1.00886e-05
-0.0001732
-9.57607e-06
-0.000170496
-9.00079e-06
-0.000167984
-8.38361e-06
-0.00016567
-7.74426e-06
-0.000163554
-7.10034e-06
-0.000161632
-6.46663e-06
-0.000159896
-5.8548e-06
-0.000158335
-5.27349e-06
-0.000156939
-4.72854e-06
-0.000155694
-4.22338e-06
-0.000154588
-3.75947e-06
-0.000153607
-3.33678e-06
-0.000152644
-3.28197e-06
-0.000151693
-3.24463e-06
-0.000150749
-3.22339e-06
-0.000149808
-3.21723e-06
-0.000148866
-3.22519e-06
-0.000147919
-3.24633e-06
-0.000146964
-3.27974e-06
-0.000145996
-3.32448e-06
-0.000145015
-3.3796e-06
-0.000144015
-3.44405e-06
-0.000142997
-3.51676e-06
-0.000141957
-3.59651e-06
-0.000140894
-3.682e-06
-0.000139807
-3.77177e-06
-0.000138695
-3.8642e-06
-0.000137559
-3.95751e-06
-0.000136399
-4.04971e-06
-0.000135216
-4.13863e-06
-0.000134012
-4.2219e-06
-0.00013279
-4.29693e-06
-0.000131553
-4.36099e-06
-0.000130304
-4.41116e-06
-0.00012905
-4.44446e-06
-0.000127795
-4.45782e-06
-0.000126546
-4.44825e-06
-0.00012531
-4.41287e-06
-0.000124095
-4.34905e-06
-0.000122909
-4.25459e-06
-0.00012176
-4.12781e-06
-0.000120658
-3.96774e-06
-0.00011961
-3.77427e-06
-0.000118624
-3.54828e-06
-0.000117707
-3.29174e-06
-0.000116865
-3.00777e-06
-0.000116103
-2.70058e-06
-0.000115424
-2.37542e-06
-0.000114829
-2.03835e-06
-0.000114318
-1.69592e-06
-0.000113888
-1.35489e-06
-0.000113535
-1.02172e-06
-0.000113254
-7.02202e-07
-0.000113037
-4.01082e-07
-0.000112876
-1.21859e-07
-0.000112766
1.32883e-07
-0.000112698
3.62379e-07
-0.000112663
5.69152e-07
-0.000112653
7.57275e-07
-0.000112661
9.31358e-07
-0.000112678
1.09688e-06
-0.0001127
1.26023e-06
-0.00011272
1.42884e-06
-0.000112733
1.61135e-06
-0.000112734
1.81769e-06
-0.000112719
2.05825e-06
-0.00011268
2.34256e-06
-0.000112611
2.67656e-06
-0.000112506
3.02538e-06
-0.000112351
3.37581e-06
4.81165e-06
-0.000340332
1.51651e-05
-0.000347757
2.55296e-05
-0.00035587
2.68694e-05
-0.000364806
2.84452e-05
-0.000374297
2.89097e-05
-0.000384182
2.87654e-05
-0.000394255
2.80041e-05
-0.000404304
2.67545e-05
-0.000414101
2.51298e-05
-0.00042342
2.32503e-05
-0.000432038
2.12269e-05
-0.000439764
1.91592e-05
-0.000446469
1.71306e-05
-0.000452112
1.51929e-05
-0.000456737
1.33504e-05
-0.000460432
1.15543e-05
-0.00046328
9.71998e-06
-0.000465335
7.76071e-06
-0.000466616
5.62239e-06
-0.000467122
3.3056e-06
-0.000466852
8.70527e-07
-0.000465814
-1.57957e-06
-0.000464039
-3.93119e-06
-0.000461585
-6.06465e-06
-0.00045853
-7.85077e-06
-0.000454979
-9.1827e-06
-0.000451055
-1.00022e-05
-0.000446893
-1.03064e-05
-0.000442632
-1.01456e-05
-0.000438403
-9.60878e-06
-0.00043432
-8.8038e-06
-0.000430474
-7.84209e-06
-0.00042693
-6.82288e-06
-0.000423727
-5.82112e-06
-0.000420876
-4.88606e-06
-0.000418366
-4.04693e-06
-0.000416174
-3.31917e-06
-0.000414265
-2.70885e-06
-0.000412599
-2.21632e-06
-0.000411135
-1.83894e-06
-0.000409833
-1.57266e-06
-0.000408653
-1.41276e-06
-0.000407559
-1.35409e-06
-0.000406516
-1.3911e-06
-0.000405493
-1.51764e-06
-0.000404462
-1.72685e-06
-0.000403399
-2.01105e-06
-0.00040228
-2.3617e-06
-0.000401087
-2.7695e-06
-0.000399803
-3.22461e-06
-0.000398416
-3.71672e-06
-0.000396916
-4.23539e-06
-0.000395296
-4.7703e-06
-0.000393551
-5.31144e-06
-0.000391681
-5.84939e-06
-0.000389686
-6.37548e-06
-0.000387571
-6.88201e-06
-0.00038534
-7.36228e-06
-0.000383001
-7.81074e-06
-0.000380561
-8.22299e-06
-0.00037803
-8.59579e-06
-0.000375419
-8.92701e-06
-0.000372737
-9.21551e-06
-0.000369995
-9.46106e-06
-0.000367203
-9.66426e-06
-0.000364374
-9.82635e-06
-0.000361515
-9.94918e-06
-0.000358638
-1.0035e-05
-0.00035575
-1.00865e-05
-0.000352861
-1.01066e-05
-0.000349978
-1.00982e-05
-0.000347108
-1.00644e-05
-0.000344256
-1.00085e-05
-0.000341429
-9.93335e-06
-0.00033863
-9.84205e-06
-0.000335863
-9.7374e-06
-0.000333132
-9.6221e-06
-0.000330438
-9.49864e-06
-0.000327784
-9.36934e-06
-0.00032517
-9.23634e-06
-0.000322598
-9.10157e-06
-0.000320066
-8.96676e-06
-0.000317574
-8.8335e-06
-0.000315123
-8.70317e-06
-0.00031271
-8.57699e-06
-0.000310333
-8.45606e-06
-0.000307992
-8.34131e-06
-0.000305683
-8.23357e-06
-0.000303405
-8.13354e-06
-0.000301155
-8.04184e-06
-0.00029893
-7.95899e-06
-0.000296728
-7.88542e-06
-0.000294545
-7.8215e-06
-0.000292378
-7.76756e-06
-0.000290225
-7.72384e-06
-0.000288081
-7.69054e-06
-0.000285945
-7.66783e-06
-0.000283813
-7.65582e-06
-0.000281681
-7.6546e-06
-0.000279546
-7.66421e-06
-0.000277182
-8.48458e-06
-0.000274579
-9.34018e-06
-0.00027173
-1.02173e-05
-0.000268635
-1.10989e-05
-0.000265298
-1.1964e-05
-0.000261731
-1.27886e-05
-0.000257954
-1.35458e-05
-0.000253995
-1.4208e-05
-0.000249888
-1.4748e-05
-0.000245675
-1.51418e-05
-0.000241404
-1.53701e-05
-0.000237126
-1.54212e-05
-0.000232893
-1.52914e-05
-0.000228752
-1.49862e-05
-0.000224751
-1.45196e-05
-0.000220927
-1.39126e-05
-0.000217311
-1.31915e-05
-0.000213927
-1.23852e-05
-0.000210788
-1.15227e-05
-0.0002079
-1.06317e-05
-0.000205264
-9.73668e-06
-0.000202873
-8.85787e-06
-0.000200716
-8.0113e-06
-0.000198781
-7.20864e-06
-0.000197052
-6.45768e-06
-0.000195512
-5.76287e-06
-0.000194146
-5.12598e-06
-0.000192936
-4.5467e-06
-0.000191748
-4.46944e-06
-0.000190577
-4.41634e-06
-0.000189415
-4.38529e-06
-0.000188257
-4.37483e-06
-0.000187099
-4.38357e-06
-0.000185935
-4.41022e-06
-0.000184761
-4.45346e-06
-0.000183574
-4.51198e-06
-0.000182369
-4.58444e-06
-0.000181144
-4.66939e-06
-0.000179895
-4.7653e-06
-0.000178621
-4.87051e-06
-0.00017732
-4.98321e-06
-0.00017599
-5.10137e-06
-0.000174632
-5.22279e-06
-0.000173244
-5.34502e-06
-0.000171828
-5.46538e-06
-0.000170386
-5.58092e-06
-0.00016892
-5.68845e-06
-0.000167432
-5.78454e-06
-0.000165927
-5.86555e-06
-0.000164411
-5.92765e-06
-0.000162888
-5.96692e-06
-0.000161367
-5.97943e-06
-0.000159854
-5.96133e-06
-0.000158358
-5.90899e-06
-0.000156888
-5.81921e-06
-0.000155453
-5.68931e-06
-0.000154063
-5.51742e-06
-0.000152728
-5.30261e-06
-0.000151458
-5.04509e-06
-0.000150259
-4.74642e-06
-0.000149142
-4.40952e-06
-0.000148111
-4.03882e-06
-0.000147171
-3.64012e-06
-0.000146326
-3.22049e-06
-0.000145576
-2.78797e-06
-0.000144921
-2.35122e-06
-0.000144357
-1.91898e-06
-0.000143879
-1.49966e-06
-0.000143481
-1.10069e-06
-0.000143153
-7.28162e-07
-0.000142889
-3.86485e-07
-0.000142678
-7.81634e-08
-0.000142512
1.96057e-07
-0.00014238
4.38055e-07
-0.000142275
6.52207e-07
-0.000142188
8.43983e-07
-0.000142111
1.01976e-06
-0.000142037
1.18681e-06
-0.000141962
1.35322e-06
-0.000141879
1.52805e-06
-0.000141782
1.72123e-06
-0.000141667
1.94276e-06
-0.000141526
2.20163e-06
-0.000141353
2.5037e-06
-0.00014114
2.81222e-06
-0.000140878
3.11448e-06
4.29787e-06
-0.000415489
1.98352e-05
-0.00042365
3.3691e-05
-0.000432608
3.5827e-05
-0.000442524
3.83613e-05
-0.000453125
3.95108e-05
-0.000464268
3.99081e-05
-0.000475767
3.95031e-05
-0.00048744
3.84282e-05
-0.000499108
3.67975e-05
-0.000510596
3.47379e-05
-0.00052173
3.23613e-05
-0.000532331
2.97599e-05
-0.000542204
2.70041e-05
-0.000551153
2.41416e-05
-0.000559001
2.11987e-05
-0.000565625
1.81782e-05
-0.000570967
1.50618e-05
-0.000575027
1.18201e-05
-0.000577837
8.43321e-06
-0.000579449
4.9168e-06
-0.000579917