/*--------------------------------*- C++ -*----------------------------------*\
| =========                 |                                                 |
| \\      /  F ield         | OpenFOAM: The Open Source CFD Toolbox           |
|  \\    /   O peration     | Version:  2406                                  |
|   \\  /    A nd           | Website:  www.openfoam.com                      |
|    \\/     M anipulation  |                                                 |
\*---------------------------------------------------------------------------*/
FoamFile
{
    version     2.0;
    format      ascii;
    arch        "LSB;label=32;scalar=64";
    class       volScalarField;
    location    "800";
    object      T;
}
// * * * * * * * * * * * * * * * * * * * * * * * * * * * * * * * * * * * * * //

dimensions      [0 0 0 1 0 0 0];

internalField   nonuniform List<scalar> 
5619
(
298.788
298.905
298.903
298.97
298.391
297.827
297.186
296.536
295.941
295.443
295.031
294.679
294.376
294.119
293.902
293.713
293.571
293.45
293.362
293.293
293.245
293.21
293.188
293.174
293.165
293.16
293.156
293.154
293.152
293.152
293.151
293.151
293.15
293.15
293.15
293.15
293.15
293.15
293.15
293.15
293.15
293.15
293.15
293.15
293.15
293.15
293.15
293.15
293.15
293.15
293.15
293.15
293.15
293.15
293.15
293.15
293.15
293.15
293.15
293.15
293.15
293.15
293.15
293.15
293.15
293.15
293.15
293.15
293.15
293.15
293.15
293.15
293.15
293.15
293.15
293.15
293.15
293.15
293.15
293.15
293.15
293.15
293.15
293.15
293.15
293.15
293.15
293.15
293.15
293.15
293.15
293.15
293.15
293.15
293.15
293.15
293.15
293.15
293.15
293.15
293.15
293.15
293.15
293.15
293.15
293.15
293.15
293.15
293.15
293.15
293.15
293.15
293.15
293.15
293.15
293.15
293.15
293.15
293.15
293.15
293.15
293.15
293.15
293.15
293.15
293.15
293.15
293.15
293.15
293.15
293.15
293.15
293.15
293.15
293.15
293.15
293.15
293.15
293.15
293.15
293.15
293.15
293.15
293.15
293.15
293.15
293.15
293.15
293.15
293.15
293.15
293.15
293.15
293.15
293.15
293.15
293.15
293.15
293.15
293.15
293.15
293.15
293.15
293.15
293.15
293.15
293.15
293.15
293.15
293.15
293.15
293.15
293.15
293.15
293.15
293.15
293.15
293.15
293.15
293.15
293.15
293.15
293.15
293.15
293.15
293.15
293.15
298.883
299.079
299.094
299.404
299.022
298.491
297.822
297.093
296.414
295.841
295.373
294.982
294.647
294.362
294.121
293.905
293.739
293.592
293.48
293.386
293.318
293.265
293.228
293.202
293.184
293.173
293.165
293.16
293.156
293.155
293.153
293.152
293.151
293.151
293.151
293.15
293.15
293.15
293.15
293.15
293.15
293.15
293.15
293.15
293.15
293.15
293.15
293.15
293.15
293.15
293.15
293.15
293.15
293.15
293.15
293.15
293.15
293.15
293.15
293.15
293.15
293.15
293.15
293.15
293.15
293.15
293.15
293.15
293.15
293.15
293.15
293.15
293.15
293.15
293.15
293.15
293.15
293.15
293.15
293.15
293.15
293.15
293.15
293.15
293.15
293.15
293.15
293.15
293.15
293.15
293.15
293.15
293.15
293.15
293.15
293.15
293.15
293.15
293.15
293.15
293.15
293.15
293.15
293.15
293.15
293.15
293.15
293.15
293.15
293.15
293.15
293.15
293.15
293.15
293.15
293.15
293.15
293.15
293.15
293.15
293.15
293.15
293.15
293.15
293.15
293.15
293.15
293.15
293.15
293.15
293.15
293.15
293.15
293.15
293.15
293.15
293.15
293.15
293.15
293.15
293.15
293.15
293.15
293.15
293.15
293.15
293.15
293.15
293.15
293.15
293.15
293.15
293.15
293.15
293.15
293.15
293.15
293.15
293.15
293.15
293.15
293.15
293.15
293.15
293.15
293.15
293.15
293.15
293.15
293.15
293.15
293.15
293.15
293.15
293.15
293.15
293.15
293.15
293.15
293.15
293.15
293.15
293.15
293.15
293.15
293.15
293.15
299.059
299.359
299.49
299.924
299.968
299.554
298.92
298.064
297.249
296.544
295.969
295.503
295.114
294.786
294.508
294.255
294.054
293.869
293.721
293.591
293.486
293.4
293.334
293.283
293.246
293.219
293.199
293.186
293.176
293.169
293.164
293.161
293.158
293.156
293.154
293.153
293.152
293.152
293.151
293.151
293.151
293.15
293.15
293.15
293.15
293.15
293.15
293.15
293.15
293.15
293.15
293.15
293.15
293.15
293.15
293.15
293.15
293.15
293.15
293.15
293.15
293.15
293.15
293.15
293.15
293.15
293.15
293.15
293.15
293.15
293.15
293.15
293.15
293.15
293.15
293.15
293.15
293.15
293.15
293.15
293.15
293.15
293.15
293.15
293.15
293.15
293.15
293.15
293.15
293.15
293.15
293.15
293.15
293.15
293.15
293.15
293.15
293.15
293.15
293.15
293.15
293.15
293.15
293.15
293.15
293.15
293.15
293.15
293.15
293.15
293.15
293.15
293.15
293.15
293.15
293.15
293.15
293.15
293.15
293.15
293.15
293.15
293.15
293.15
293.15
293.15
293.15
293.15
293.15
293.15
293.15
293.15
293.15
293.15
293.15
293.15
293.15
293.15
293.15
293.15
293.15
293.15
293.15
293.15
293.15
293.15
293.15
293.15
293.15
293.15
293.15
293.15
293.15
293.15
293.15
293.15
293.15
293.15
293.15
293.15
293.15
293.15
293.15
293.15
293.15
293.15
293.15
293.15
293.15
293.15
293.15
293.15
293.15
293.15
293.15
293.15
293.15
293.15
293.15
293.15
293.15
293.15
293.15
293.15
293.15
293.15
293.15
299.293
299.726
300.026
300.62
300.893
301.003
300.692
299.77
298.845
297.962
297.197
296.57
296.061
295.646
295.297
294.985
294.727
294.485
294.278
294.085
293.917
293.766
293.637
293.53
293.443
293.374
293.321
293.28
293.249
293.226
293.208
293.194
293.184
293.176
293.169
293.165
293.161
293.158
293.156
293.154
293.153
293.152
293.152
293.151
293.151
293.151
293.15
293.15
293.15
293.15
293.15
293.15
293.15
293.15
293.15
293.15
293.15
293.15
293.15
293.15
293.15
293.15
293.15
293.15
293.15
293.15
293.15
293.15
293.15
293.15
293.15
293.15
293.15
293.15
293.15
293.15
293.15
293.15
293.15
293.15
293.15
293.15
293.15
293.15
293.15
293.15
293.15
293.15
293.15
293.15
293.15
293.15
293.15
293.15
293.15
293.15
293.15
293.15
293.15
293.15
293.15
293.15
293.15
293.15
293.15
293.15
293.15
293.15
293.15
293.15
293.15
293.15
293.15
293.15
293.15
293.15
293.15
293.15
293.15
293.15
293.15
293.15
293.15
293.15
293.15
293.15
293.15
293.15
293.15
293.15
293.15
293.15
293.15
293.15
293.15
293.15
293.15
293.15
293.15
293.15
293.15
293.15
293.15
293.15
293.15
293.15
293.15
293.15
293.15
293.15
293.15
293.15
293.15
293.15
293.15
293.15
293.15
293.15
293.15
293.15
293.15
293.15
293.15
293.15
293.15
293.15
293.15
293.15
293.15
293.15
293.15
293.15
293.15
293.15
293.15
293.15
293.15
293.15
293.15
293.15
293.15
293.15
293.15
293.15
293.15
293.15
293.15
299.584
300.147
300.603
301.311
301.833
302.304
302.532
301.989
301.204
300.365
299.523
298.718
298.006
297.406
296.896
296.456
296.075
295.723
295.408
295.103
294.818
294.551
294.306
294.09
293.903
293.747
293.62
293.518
293.438
293.375
293.326
293.289
293.259
293.235
293.216
293.201
293.189
293.18
293.173
293.167
293.163
293.16
293.157
293.155
293.154
293.153
293.152
293.151
293.151
293.151
293.15
293.15
293.15
293.15
293.15
293.15
293.15
293.15
293.15
293.15
293.15
293.15
293.15
293.15
293.15
293.15
293.15
293.15
293.15
293.15
293.15
293.15
293.15
293.15
293.15
293.15
293.15
293.15
293.15
293.15
293.15
293.15
293.15
293.15
293.15
293.15
293.15
293.15
293.15
293.15
293.15
293.15
293.15
293.15
293.15
293.15
293.15
293.15
293.15
293.15
293.15
293.15
293.15
293.15
293.15
293.15
293.15
293.15
293.15
293.15
293.15
293.15
293.15
293.15
293.15
293.15
293.15
293.15
293.15
293.15
293.15
293.15
293.15
293.15
293.15
293.15
293.15
293.15
293.15
293.15
293.15
293.15
293.15
293.15
293.15
293.15
293.15
293.15
293.15
293.15
293.15
293.15
293.15
293.15
293.15
293.15
293.15
293.15
293.15
293.15
293.15
293.15
293.15
293.15
293.15
293.15
293.15
293.15
293.15
293.15
293.15
293.15
293.15
293.15
293.15
293.15
293.15
293.15
293.15
293.15
293.15
293.15
293.15
293.15
293.15
293.15
293.15
293.15
293.15
293.15
293.15
293.15
293.15
293.15
293.15
293.15
293.15
299.934
300.622
301.2
302.011
302.76
303.51
304.014
304.046
303.601
303.035
302.395
301.709
300.996
300.288
299.605
298.977
298.397
297.869
297.395
296.932
296.489
296.062
295.656
295.277
294.931
294.621
294.351
294.125
293.938
293.784
293.66
293.563
293.484
293.421
293.369
293.325
293.29
293.262
293.238
293.219
293.204
293.192
293.182
293.175
293.169
293.164
293.16
293.158
293.155
293.154
293.153
293.152
293.151
293.151
293.151
293.15
293.15
293.15
293.15
293.15
293.15
293.15
293.15
293.15
293.15
293.15
293.15
293.15
293.15
293.15
293.15
293.15
293.15
293.15
293.15
293.15
293.15
293.15
293.15
293.15
293.15
293.15
293.15
293.15
293.15
293.15
293.15
293.15
293.15
293.15
293.15
293.15
293.15
293.15
293.15
293.15
293.15
293.15
293.15
293.15
293.15
293.15
293.15
293.15
293.15
293.15
293.15
293.15
293.15
293.15
293.15
293.15
293.15
293.15
293.15
293.15
293.15
293.15
293.15
293.15
293.15
293.15
293.15
293.15
293.15
293.15
293.15
293.15
293.15
293.15
293.15
293.15
293.15
293.15
293.15
293.15
293.15
293.15
293.15
293.15
293.15
293.15
293.15
293.15
293.15
293.15
293.15
293.15
293.15
293.15
293.15
293.15
293.15
293.15
293.15
293.15
293.15
293.15
293.15
293.15
293.15
293.15
293.15
293.15
293.15
293.15
293.15
293.15
293.15
293.15
293.15
293.15
293.15
293.15
293.15
293.15
293.15
293.15
293.15
293.15
293.15
293.15
293.15
293.15
293.15
293.15
293.15
300.348
301.152
301.838
302.773
303.724
304.686
305.474
305.789
305.781
305.528
305.2
304.829
304.387
303.881
303.305
302.701
302.042
301.411
300.84
300.259
299.682
299.104
298.526
297.958
297.409
296.88
296.375
295.903
295.477
295.102
294.778
294.509
294.287
294.108
293.957
293.823
293.712
293.618
293.537
293.469
293.412
293.363
293.323
293.289
293.261
293.239
293.219
293.204
293.191
293.181
293.173
293.167
293.163
293.159
293.156
293.155
293.153
293.152
293.152
293.151
293.151
293.151
293.15
293.15
293.15
293.15
293.15
293.15
293.15
293.15
293.15
293.15
293.15
293.15
293.15
293.15
293.15
293.15
293.15
293.15
293.15
293.15
293.15
293.15
293.15
293.15
293.15
293.15
293.15
293.15
293.15
293.15
293.15
293.15
293.15
293.15
293.15
293.15
293.15
293.15
293.15
293.15
293.15
293.15
293.15
293.15
293.15
293.15
293.15
293.15
293.15
293.15
293.15
293.15
293.15
293.15
293.15
293.15
293.15
293.15
293.15
293.15
293.15
293.15
293.15
293.15
293.15
293.15
293.15
293.15
293.15
293.15
293.15
293.15
293.15
293.15
293.15
293.15
293.15
293.15
293.15
293.15
293.15
293.15
293.15
293.15
293.15
293.15
293.15
293.15
293.15
293.15
293.15
293.15
293.15
293.15
293.15
293.15
293.15
293.15
293.15
293.15
293.15
293.15
293.15
293.15
293.15
293.15
293.15
293.15
293.15
293.15
293.15
293.15
293.15
293.15
293.15
293.15
293.15
293.15
293.15
293.15
293.15
293.15
293.15
293.15
293.15
300.813
301.731
302.532
303.607
304.74
305.88
306.867
307.512
307.776
307.827
307.819
307.8
307.739
307.713
307.441
307.322
306.947
306.513
306.188
305.775
305.288
304.742
304.114
303.425
302.713
302.004
301.28
300.554
299.845
299.161
298.511
297.905
297.355
296.855
296.408
296.01
295.654
295.338
295.059
294.809
294.586
294.389
294.213
294.059
293.923
293.807
293.705
293.612
293.531
293.462
293.402
293.35
293.308
293.273
293.244
293.221
293.203
293.189
293.179
293.171
293.165
293.161
293.158
293.156
293.155
293.153
293.152
293.152
293.151
293.151
293.151
293.15
293.15
293.15
293.15
293.15
293.15
293.15
293.15
293.15
293.15
293.15
293.15
293.15
293.15
293.15
293.15
293.15
293.15
293.15
293.15
293.15
293.15
293.15
293.15
293.15
293.15
293.15
293.15
293.15
293.15
293.15
293.15
293.15
293.15
293.15
293.15
293.15
293.15
293.15
293.15
293.15
293.15
293.15
293.15
293.15
293.15
293.15
293.15
293.15
293.15
293.15
293.15
293.15
293.15
293.15
293.15
293.15
293.15
293.15
293.15
293.15
293.15
293.15
293.15
293.15
293.15
293.15
293.15
293.15
293.15
293.15
293.15
293.15
293.15
293.15
293.15
293.15
293.15
293.15
293.15
293.15
293.15
293.15
293.15
293.15
293.15
293.15
293.15
293.15
293.15
293.15
293.15
293.15
293.15
293.15
293.15
293.15
293.15
293.15
293.15
293.15
293.15
293.15
293.15
293.15
293.15
293.15
293.15
293.15
293.15
293.15
293.15
293.15
293.15
293.15
293.15
301.287
302.32
303.24
304.453
305.738
307.022
308.172
309.056
309.625
309.979
310.242
310.497
310.741
310.971
311.132
311.316
311.45
311.477
311.509
311.613
311.555
311.505
311.547
311.132
310.47
309.886
309.227
308.451
307.635
306.807
306.019
305.261
304.546
303.852
303.204
302.584
301.986
301.431
300.899
300.394
299.912
299.449
299.003
298.573
298.156
297.751
297.36
296.98
296.612
296.257
295.918
295.592
295.286
294.998
294.728
294.48
294.253
294.049
293.868
293.711
293.58
293.476
293.399
293.35
293.314
293.279
293.253
293.229
293.211
293.196
293.184
293.175
293.167
293.162
293.158
293.155
293.153
293.152
293.151
293.151
293.151
293.15
293.15
293.15
293.15
293.15
293.15
293.15
293.15
293.15
293.15
293.15
293.15
293.15
293.15
293.15
293.15
293.15
293.15
293.15
293.15
293.15
293.15
293.15
293.15
293.15
293.15
293.15
293.15
293.15
293.15
293.15
293.15
293.15
293.15
293.15
293.15
293.15
293.15
293.15
293.15
293.15
293.15
293.15
293.15
293.15
293.15
293.15
293.15
293.15
293.15
293.15
293.15
293.15
293.15
293.15
293.15
293.15
293.15
293.15
293.15
293.15
293.15
293.15
293.15
293.15
293.15
293.15
293.15
293.15
293.15
293.15
293.15
293.15
293.15
293.15
293.15
293.15
293.15
293.15
293.15
293.15
293.15
293.15
293.15
293.15
293.15
293.15
293.15
293.15
293.15
293.15
293.15
293.15
293.15
293.15
293.15
293.15
293.15
293.15
293.15
293.15
293.15
293.15
293.15
293.15
293.15
301.704
302.845
303.87
305.193
306.588
307.977
309.252
310.317
311.12
311.709
312.17
312.605
313.041
313.462
313.875
314.298
314.721
315.126
315.523
315.898
316.115
316.24
316.367
316.444
316.439
316.416
316.46
316.32
315.834
315.339
314.895
314.379
313.844
313.229
312.692
312.163
311.579
311.086
310.58
310.094
309.617
309.16
308.691
308.243
307.806
307.368
306.942
306.519
306.087
305.653
305.209
304.765
304.306
303.847
303.379
302.906
302.427
301.943
301.452
300.952
300.442
299.924
299.4
298.874
298.355
297.851
297.364
296.894
296.443
296.012
295.602
295.214
294.848
294.507
294.212
293.95
293.731
293.549
293.408
293.305
293.241
293.213
293.201
293.19
293.182
293.174
293.168
293.164
293.16
293.157
293.155
293.153
293.152
293.151
293.151
293.15
293.15
293.15
293.15
293.15
293.15
293.15
293.15
293.15
293.15
293.15
293.15
293.15
293.15
293.15
293.15
293.15
293.15
293.15
293.15
293.15
293.15
293.15
293.15
293.15
293.15
293.15
293.15
293.15
293.15
293.15
293.15
293.15
293.15
293.15
293.15
293.15
293.15
293.15
293.15
293.15
293.15
293.15
293.15
293.15
293.15
293.15
293.15
293.15
293.15
293.15
293.15
293.15
293.15
293.15
293.15
293.15
293.15
293.15
293.15
293.15
293.15
293.15
293.15
293.15
293.15
293.15
293.15
293.15
293.15
293.15
293.15
293.15
293.15
293.15
293.15
293.15
293.15
293.15
293.15
293.15
293.15
293.15
293.15
293.15
293.15
293.15
293.15
293.15
293.15
293.15
293.15
301.98
303.209
304.304
305.688
307.145
308.595
309.953
311.143
312.112
312.867
313.463
313.992
314.516
315.026
315.529
316.029
316.526
317.01
317.479
317.919
318.296
318.605
318.875
319.104
319.277
319.368
319.402
319.347
319.495
319.404
319.348
319.321
319.155
319.078
318.855
318.764
318.562
318.328
318.249
318.056
317.723
317.897
317.636
317.307
317.285
316.996
316.772
316.717
316.57
316.481
316.097
316.02
315.657
315.46
315.173
314.883
314.564
314.22
313.85
313.458
313.042
312.604
312.141
311.656
311.149
310.619
310.071
309.499
308.914
308.305
307.692
307.052
306.418
305.753
305.093
304.396
303.709
302.993
302.291
301.573
300.87
300.168
299.487
298.862
298.281
297.718
297.185
296.676
296.195
295.739
295.308
294.903
294.522
294.165
293.869
293.617
293.424
293.282
293.211
293.181
293.174
293.167
293.162
293.157
293.154
293.152
293.151
293.15
293.15
293.15
293.15
293.15
293.15
293.15
293.15
293.15
293.15
293.15
293.15
293.15
293.15
293.15
293.15
293.15
293.15
293.15
293.15
293.15
293.15
293.15
293.15
293.15
293.15
293.15
293.15
293.15
293.15
293.15
293.15
293.15
293.15
293.15
293.15
293.15
293.15
293.15
293.15
293.15
293.15
293.15
293.15
293.15
293.15
293.15
293.15
293.15
293.15
293.15
293.15
293.15
293.15
293.15
293.15
293.15
293.15
293.15
293.15
293.15
293.15
293.15
293.15
293.15
293.15
293.15
293.15
293.15
293.15
293.15
293.15
293.15
293.15
293.15
293.15
293.15
293.15
293.15
293.15
302.042
303.314
304.425
305.81
307.268
308.733
310.128
311.395
312.477
313.353
314.047
314.628
315.165
315.677
316.166
316.628
317.075
317.51
317.932
318.336
318.716
319.069
319.401
319.709
319.988
320.234
320.443
320.61
320.75
320.85
320.875
320.931
320.969
320.992
321.008
320.999
321.019
320.974
320.972
320.923
320.983
320.943
320.986
320.913
320.897
320.968
320.934
320.952
320.965
320.997
320.972
320.999
320.99
321.006
320.994
320.954
320.891
320.85
320.774
320.711
320.632
320.547
320.451
320.349
320.232
320.116
319.965
319.822
319.635
319.461
319.235
319.025
318.754
318.502
318.178
317.878
317.496
317.14
316.693
316.274
315.753
315.262
314.659
314.08
313.398
312.742
312.01
311.299
310.52
309.76
308.941
308.139
307.284
306.45
305.544
304.649
303.692
302.74
301.751
300.763
299.735
298.706
297.688
296.693
295.679
294.721
293.843
293.385
293.192
293.17
293.159
293.153
293.151
293.15
293.15
293.15
293.15
293.15
293.15
293.15
293.15
293.15
293.15
293.15
293.15
293.15
293.15
293.15
293.15
293.15
293.15
293.15
293.15
293.15
293.15
293.15
293.15
293.15
293.15
293.15
293.15
293.15
293.15
293.15
293.15
293.15
293.15
293.15
293.15
293.15
293.15
293.15
293.15
293.15
293.15
293.15
293.15
293.15
293.15
293.15
293.15
293.15
293.15
293.15
293.15
293.15
293.15
293.15
293.15
293.15
293.15
293.15
293.15
293.15
293.15
293.15
293.15
293.15
293.15
293.15
293.15
293.15
293.15
293.15
293.15
293.15
293.15
301.881
303.147
304.228
305.568
306.983
308.424
309.813
311.103
312.238
313.184
313.942
314.558
315.096
315.591
316.047
316.464
316.848
317.211
317.558
317.892
318.213
318.529
318.844
319.156
319.463
319.759
320.04
320.303
320.544
320.766
320.961
321.133
321.287
321.424
321.532
321.621
321.677
321.699
321.657
321.79
321.793
321.857
321.868
321.89
321.888
321.967
321.911
322.061
322.048
322.138
322.225
322.306
322.377
322.414
322.44
322.466
322.485
322.504
322.521
322.538
322.552
322.563
322.571
322.576
322.58
322.58
322.573
322.561
322.547
322.528
322.514
322.479
322.454
322.414
322.379
322.328
322.283
322.22
322.163
322.087
322.02
321.928
321.847
321.735
321.635
321.498
321.373
321.206
321.053
320.843
320.652
320.387
320.145
319.807
319.497
319.064
318.664
318.107
317.585
316.864
316.139
315.076
313.877
312.314
310.564
308.49
306.204
303.574
300.71
297.885
296.099
294.275
293.432
293.197
293.166
293.154
293.151
293.15
293.15
293.15
293.15
293.15
293.15
293.15
293.15
293.15
293.15
293.15
293.15
293.15
293.15
293.15
293.15
293.15
293.15
293.15
293.15
293.15
293.15
293.15
293.15
293.15
293.15
293.15
293.15
293.15
293.15
293.15
293.15
293.15
293.15
293.15
293.15
293.15
293.15
293.15
293.15
293.15
293.15
293.15
293.15
293.15
293.15
293.15
293.15
293.15
293.15
293.15
293.15
293.15
293.15
293.15
293.15
293.15
293.15
293.15
293.15
293.15
293.15
293.15
293.15
293.15
293.15
293.15
293.15
293.15
293.15
301.525
302.741
303.759
305.015
306.346
307.723
309.07
310.346
311.504
312.499
313.316
313.977
314.531
315.016
315.446
315.821
316.148
316.439
316.705
316.954
317.195
317.44
317.699
317.979
318.279
318.589
318.899
319.204
319.498
319.78
320.041
320.282
320.5
320.696
320.866
321.009
321.123
321.203
321.212
321.325
321.369
321.399
321.42
321.447
321.45
321.442
321.492
321.483
321.494
321.592
321.68
321.806
321.913
322.009
322.119
322.224
322.324
322.412
322.483
322.547
322.606
322.665
322.722
322.773
322.813
322.844
322.873
322.898
322.92
322.939
322.955
322.969
322.982
322.992
323.001
323.008
323.014
323.019
323.025
323.029
323.031
323.03
323.027
323.023
323.012
323.002
322.99
322.979
322.967
322.955
322.937
322.924
322.899
322.883
322.849
322.826
322.781
322.75
322.687
322.644
322.532
322.446
322.224
322.027
321.514
321.055
320.11
319.047
317.27
314.898
311.616
307.811
303.564
298.969
295.911
294.021
293.253
293.178
293.157
293.151
293.15
293.15
293.15
293.15
293.15
293.15
293.15
293.15
293.15
293.15
293.15
293.15
293.15
293.15
293.15
293.15
293.15
293.15
293.15
293.15
293.15
293.15
293.15
293.15
293.15
293.15
293.15
293.15
293.15
293.15
293.15
293.15
293.15
293.15
293.15
293.15
293.15
293.15
293.15
293.15
293.15
293.15
293.15
293.15
293.15
293.15
293.15
293.15
293.15
293.15
293.15
293.15
293.15
293.15
293.15
293.15
293.15
293.15
293.15
293.15
293.15
293.15
293.15
293.15
293.15
293.15
293.15
301.037
302.165
303.094
304.239
305.457
306.737
308.014
309.243
310.387
311.403
312.263
312.971
313.558
314.058
314.487
314.851
315.156
315.413
315.633
315.827
316.004
316.178
316.364
316.578
316.833
317.122
317.418
317.733
318.043
318.356
318.656
318.943
319.208
319.452
319.669
319.858
320.018
320.147
320.24
320.31
320.344
320.354
320.355
320.326
320.257
320.166
320.064
319.946
319.829
319.725
319.62
319.529
319.45
319.363
319.285
319.216
319.172
319.158
319.178
319.224
319.287
319.388
319.516
319.684
319.89
320.128
320.391
320.667
320.953
321.235
321.514
321.786
322.057
322.319
322.571
322.773
322.923
322.999
323.03
323.062
323.083
323.101
323.113
323.121
323.125
323.128
323.129
323.131
323.132
323.133
323.133
323.132
323.131
323.129
323.128
323.125
323.123
323.12
323.117
323.112
323.108
323.099
323.092
323.075
323.06
323.023
322.986
322.888
322.766
322.467
321.993
321.016
319.364
316.519
312.248
306.907
301.208
296.218
294.094
293.257
293.173
293.153
293.15
293.15
293.15
293.15
293.15
293.15
293.15
293.15
293.15
293.15
293.15
293.15
293.15
293.15
293.15
293.15
293.15
293.15
293.15
293.15
293.15
293.15
293.15
293.15
293.15
293.15
293.15
293.15
293.15
293.15
293.15
293.15
293.15
293.15
293.15
293.15
293.15
293.15
293.15
293.15
293.15
293.15
293.15
293.15
293.15
293.15
293.15
293.15
293.15
293.15
293.15
293.15
293.15
293.15
293.15
293.15
293.15
293.15
293.15
293.15
293.15
293.15
293.15
293.15
293.15
300.5
301.519
302.351
303.372
304.463
305.627
306.812
307.974
309.08
310.092
310.98
311.732
312.363
312.895
313.347
313.727
314.038
314.291
314.497
314.666
314.81
314.939
315.069
315.209
315.384
315.643
315.882
316.189
316.476
316.796
317.106
317.418
317.711
317.989
318.243
318.472
318.671
318.839
318.971
319.067
319.125
319.151
319.152
319.097
319.018
318.907
318.766
318.599
318.413
318.213
318.006
317.794
317.575
317.343
317.092
316.826
316.542
316.244
315.94
315.642
315.357
315.1
314.882
314.701
314.561
314.477
314.445
314.47
314.585
314.752
315.094
315.395
315.858
316.284
316.856
317.442
318.145
318.896
319.687
320.433
321.078
321.659
322.184
322.644
322.907
323.028
323.075
323.113
323.132
323.141
323.145
323.146
323.147
323.148
323.148
323.148
323.148
323.148
323.148
323.147
323.147
323.147
323.146
323.145
323.144
323.143
323.14
323.138
323.131
323.123
323.106
323.078
323.02
322.851
322.369
320.97
318.286
313.573
306.955
299.869
295.29
293.485
293.199
293.157
293.151
293.15
293.15
293.15
293.15
293.15
293.15
293.15
293.15
293.15
293.15
293.15
293.15
293.15
293.15
293.15
293.15
293.15
293.15
293.15
293.15
293.15
293.15
293.15
293.15
293.15
293.15
293.15
293.15
293.15
293.15
293.15
293.15
293.15
293.15
293.15
293.15
293.15
293.15
293.15
293.15
293.15
293.15
293.15
293.15
293.15
293.15
293.15
293.15
293.15
293.15
293.15
293.15
293.15
293.15
293.15
293.15
293.15
293.15
293.15
293.15
293.15
293.15
299.988
300.893
301.631
302.53
303.496
304.538
305.62
306.705
307.756
308.746
309.642
310.427
311.1
311.674
312.162
312.572
312.909
313.181
313.397
313.567
313.702
313.812
313.912
314.016
314.095
314.328
314.472
314.768
314.994
315.308
315.593
315.914
316.213
316.505
316.779
317.034
317.261
317.46
317.625
317.755
317.848
317.902
317.92
317.919
317.872
317.795
317.681
317.533
317.357
317.161
316.95
316.724
316.484
316.23
315.96
315.679
315.39
315.103
314.815
314.527
314.241
313.961
313.688
313.423
313.165
312.912
312.664
312.424
312.196
311.981
311.785
311.607
311.458
311.347
311.305
311.292
311.443
311.668
312.053
312.583
313.317
314.202
315.205
316.315
317.565
318.92
320.269
321.26
322.155
322.76
323.016
323.093
323.128
323.143
323.148
323.149
323.149
323.15
323.15
323.15
323.15
323.15
323.15
323.15
323.15
323.15
323.149
323.149
323.149
323.149
323.148
323.147
323.145
323.141
323.13
323.104
323.04
322.725
321.227
317.691
311.552
303.671
296.292
293.75
293.215
293.157
293.151
293.15
293.15
293.15
293.15
293.15
293.15
293.15
293.15
293.15
293.15
293.15
293.15
293.15
293.15
293.15
293.15
293.15
293.15
293.15
293.15
293.15
293.15
293.15
293.15
293.15
293.15
293.15
293.15
293.15
293.15
293.15
293.15
293.15
293.15
293.15
293.15
293.15
293.15
293.15
293.15
293.15
293.15
293.15
293.15
293.15
293.15
293.15
293.15
293.15
293.15
293.15
293.15
293.15
293.15
293.15
293.15
293.15
293.15
293.15
293.15
299.545
300.344
301.002
301.792
302.644
303.573
304.555
305.557
306.55
307.504
308.393
309.195
309.901
310.514
311.041
311.488
311.86
312.163
312.403
312.589
312.732
312.841
312.93
313.021
313.042
313.246
313.309
313.576
313.718
314.02
314.25
314.572
314.857
315.148
315.422
315.689
315.926
316.142
316.326
316.478
316.596
316.68
316.73
316.752
316.757
316.739
316.671
316.572
316.448
316.301
316.134
315.948
315.746
315.53
315.302
315.064
314.821
314.575
314.329
314.083
313.839
313.596
313.355
313.114
312.873
312.632
312.39
312.145
311.9
311.654
311.408
311.165
310.928
310.7
310.485
310.283
310.099
309.934
309.789
309.669
309.592
309.57
309.618
309.783
310.143
310.763
311.733
313.103
314.759
316.621
318.725
320.855
322.061
322.864
323.072
323.128
323.145
323.149
323.15
323.15
323.15
323.15
323.15
323.15
323.15
323.15
323.15
323.15
323.15
323.15
323.15
323.15
323.15
323.15
323.149
323.149
323.148
323.141
323.118
323.04
322.587
319.665
313.73
304.803
296.264
293.54
293.209
293.158
293.151
293.15
293.15
293.15
293.15
293.15
293.15
293.15
293.15
293.15
293.15
293.15
293.15
293.15
293.15
293.15
293.15
293.15
293.15
293.15
293.15
293.15
293.15
293.15
293.15
293.15
293.15
293.15
293.15
293.15
293.15
293.15
293.15
293.15
293.15
293.15
293.15
293.15
293.15
293.15
293.15
293.15
293.15
293.15
293.15
293.15
293.15
293.15
293.15
293.15
293.15
293.15
293.15
293.15
293.15
293.15
293.15
293.15
293.15
299.192
299.9
300.492
301.191
301.948
302.781
303.673
304.6
305.534
306.448
307.32
308.128
308.855
309.499
310.06
310.543
310.951
311.286
311.556
311.766
311.926
312.045
312.132
312.217
312.22
312.385
312.409
312.639
312.712
312.991
313.147
313.464
313.725
314.007
314.267
314.537
314.77
314.989
315.177
315.339
315.473
315.579
315.654
315.703
315.73
315.739
315.719
315.664
315.586
315.487
315.37
315.233
315.081
314.916
314.739
314.55
314.354
314.153
313.95
313.743
313.536
313.327
313.117
312.906
312.694
312.48
312.264
312.047
311.828
311.607
311.384
311.159
310.934
310.71
310.487
310.265
310.046
309.83
309.619
309.414
309.221
309.041
308.878
308.737
308.626
308.558
308.547
308.615
308.81
309.288
310.284
312.025
314.567
317.513
320.827
322.407
323.026
323.126
323.145
323.148
323.149
323.15
323.15
323.15
323.15
323.15
323.15
323.15
323.15
323.15
323.15
323.15
323.15
323.15
323.15
323.15
323.15
323.15
323.149
323.148
323.139
323.08
322.741
320.159
312.898
302.352
295.384
293.48
293.205
293.159
293.152
293.15
293.15
293.15
293.15
293.15
293.15
293.15
293.15
293.15
293.15
293.15
293.15
293.15
293.15
293.15
293.15
293.15
293.15
293.15
293.15
293.15
293.15
293.15
293.15
293.15
293.15
293.15
293.15
293.15
293.15
293.15
293.15
293.15
293.15
293.15
293.15
293.15
293.15
293.15
293.15
293.15
293.15
293.15
293.15
293.15
293.15
293.15
293.15
293.15
293.15
293.15
293.15
293.15
293.15
293.15
293.15
298.928
299.563
300.105
300.733
301.415
302.171
302.99
303.852
304.734
305.612
306.463
307.266
308.006
308.671
309.26
309.772
310.21
310.576
310.873
311.108
311.288
311.42
311.513
311.598
311.594
311.735
311.74
311.932
311.964
312.219
312.307
312.606
312.843
313.115
313.351
313.624
313.844
314.066
314.253
314.419
314.562
314.679
314.77
314.835
314.879
314.905
314.907
314.881
314.834
314.768
314.689
314.586
314.473
314.342
314.205
314.048
313.888
313.718
313.549
313.371
313.195
313.012
312.831
312.644
312.457
312.268
312.077
311.886
311.693
311.498
311.299
311.099
310.898
310.696
310.492
310.288
310.083
309.878
309.673
309.47
309.27
309.073
308.88
308.695
308.52
308.357
308.211
308.085
307.989
307.939
307.962
308.103
308.488
309.617
312.182
316.183
320.689
322.716
323.09
323.14
323.148
323.15
323.15
323.15
323.15
323.15
323.15
323.15
323.15
323.15
323.15
323.15
323.15
323.15
323.15
323.15
323.15
323.15
323.15
323.15
323.15
323.149
323.141
323.061
322.411
317.445
307.153
297.59
294.164
293.351
293.189
293.158
293.152
293.151
293.15
293.15
293.15
293.15
293.15
293.15
293.15
293.15
293.15
293.15
293.15
293.15
293.15
293.15
293.15
293.15
293.15
293.15
293.15
293.15
293.15
293.15
293.15
293.15
293.15
293.15
293.15
293.15
293.15
293.15
293.15
293.15
293.15
293.15
293.15
293.15
293.15
293.15
293.15
293.15
293.15
293.15
293.15
293.15
293.15
293.15
293.15
293.15
293.15
293.15
293.15
293.15
293.15
298.748
299.327
299.832
300.407
301.033
301.733
302.496
303.308
304.147
304.993
305.824
306.62
307.363
308.042
308.649
309.184
309.645
310.034
310.354
310.61
310.808
310.954
311.056
311.148
311.14
311.268
311.265
311.426
311.437
311.665
311.705
311.982
312.197
312.464
312.67
312.951
313.15
313.384
313.569
313.739
313.886
314.009
314.106
314.181
314.234
314.271
314.284
314.274
314.244
314.193
314.145
314.056
313.975
313.858
313.755
313.606
313.476
313.317
313.179
313.011
312.863
312.692
312.535
312.358
312.192
312.02
311.843
311.678
311.503
311.329
311.147
310.967
310.787
310.607
310.421
310.237
310.053
309.865
309.678
309.491
309.304
309.117
308.933
308.752
308.576
308.403
308.236
308.075
307.926
307.796
307.689
307.611
307.581
307.658
307.989
309.208
313.008
318.738
322.515
323.104
323.147
323.15
323.15
323.15
323.15
323.15
323.15
323.15
323.15
323.15
323.15
323.15
323.15
323.15
323.15
323.15
323.15
323.15
323.15
323.15
323.15
323.15
323.15
323.148
323.113
322.652
318.395
306.829
297.671
294.406
293.483
293.248
293.187
293.168
293.158
293.153
293.151
293.15
293.15
293.15
293.15
293.15
293.15
293.15
293.15
293.15
293.15
293.15
293.15
293.15
293.15
293.15
293.15
293.15
293.15
293.15
293.15
293.15
293.15
293.15
293.15
293.15
293.15
293.15
293.15
293.15
293.15
293.15
293.15
293.15
293.15
293.15
293.15
293.15
293.15
293.15
293.15
293.15
293.15
293.15
293.15
293.15