/*--------------------------------*- C++ -*----------------------------------*\
| =========                 |                                                 |
| \\      /  F ield         | OpenFOAM: The Open Source CFD Toolbox           |
|  \\    /   O peration     | Version:  2406                                  |
|   \\  /    A nd           | Website:  www.openfoam.com                      |
|    \\/     M anipulation  |                                                 |
\*---------------------------------------------------------------------------*/
FoamFile
{
    version     2.0;
    format      ascii;
    arch        "LSB;label=32;scalar=64";
    class       volVectorField;
    location    "800";
    object      U;
}
// * * * * * * * * * * * * * * * * * * * * * * * * * * * * * * * * * * * * * //

dimensions      [0 1 -1 0 0 0 0];

internalField   nonuniform List<vector> 
5619
(
(1.84222 -0.000330913 0)
(1.88218 -0.000384458 0)
(1.91057 -0.00038407 0)
(1.94031 -0.000374859 0)
(1.96662 -0.000360442 0)
(1.99067 -0.000351934 0)
(2.01281 -0.000352036 0)
(2.03387 -0.000359671 0)
(2.05438 -0.00037123 0)
(2.07457 -0.000382609 0)
(2.09441 -0.000390862 0)
(2.11373 -0.000395041 0)
(2.13236 -0.000395296 0)
(2.15011 -0.000391463 0)
(2.16681 -0.000382235 0)
(2.1822 -0.000364785 0)
(2.19594 -0.000335048 0)
(2.20757 -0.000289008 0)
(2.21658 -0.000224298 0)
(2.22252 -0.000141464 0)
(2.2251 -4.41668e-05 0)
(2.22431 6.74132e-05 0)
(2.22016 0.000195459 0)
(2.21275 0.000330755 0)
(2.20267 0.000459295 0)
(2.19084 0.000570727 0)
(2.17839 0.000656243 0)
(2.16643 0.000709436 0)
(2.15604 0.000725222 0)
(2.14804 0.000697992 0)
(2.14303 0.000620903 0)
(2.14133 0.000492149 0)
(2.14302 0.00034474 0)
(2.14732 0.000203352 0)
(2.15381 5.3392e-05 0)
(2.16222 -0.000111708 0)
(2.1723 -0.000289934 0)
(2.18382 -0.000477732 0)
(2.19656 -0.000670722 0)
(2.21028 -0.000864423 0)
(2.22472 -0.00105431 0)
(2.23962 -0.00123618 0)
(2.25472 -0.00140595 0)
(2.26976 -0.00155975 0)
(2.28449 -0.00169409 0)
(2.29866 -0.00180595 0)
(2.31205 -0.00189273 0)
(2.32443 -0.00195233 0)
(2.33564 -0.00198348 0)
(2.34552 -0.00198602 0)
(2.35393 -0.00196043 0)
(2.36078 -0.00190739 0)
(2.366 -0.00182621 0)
(2.36955 -0.00171486 0)
(2.37142 -0.00156947 0)
(2.37163 -0.0013766 0)
(2.37011 -0.00113828 0)
(2.36685 -0.000874517 0)
(2.36195 -0.000595277 0)
(2.3555 -0.000304427 0)
(2.34761 -5.39286e-06 0)
(2.3384 0.000298753 0)
(2.328 0.000605415 0)
(2.31653 0.00091214 0)
(2.3041 0.0012167 0)
(2.29084 0.00151727 0)
(2.27686 0.00181232 0)
(2.26226 0.00210069 0)
(2.24715 0.00238153 0)
(2.23162 0.00265408 0)
(2.21575 0.00291771 0)
(2.19962 0.0031721 0)
(2.1833 0.00341703 0)
(2.16684 0.00365243 0)
(2.1503 0.00387849 0)
(2.13373 0.00409538 0)
(2.11716 0.00430324 0)
(2.10063 0.00450224 0)
(2.08416 0.00469261 0)
(2.06777 0.00487459 0)
(2.05149 0.00504844 0)
(2.03532 0.00521441 0)
(2.01927 0.00537275 0)
(2.00336 0.00552366 0)
(1.98757 0.00566734 0)
(1.97192 0.00580391 0)
(1.95639 0.00593349 0)
(1.94099 0.0060562 0)
(1.9257 0.00617217 0)
(1.91052 0.00628157 0)
(1.89543 0.00638454 0)
(1.88044 0.00648121 0)
(1.86551 0.00657167 0)
(1.85064 0.00665608 0)
(1.83581 0.00673466 0)
(1.82101 0.00680786 0)
(1.80621 0.00687632 0)
(1.79143 0.0069408 0)
(1.77667 0.00700458 0)
(1.76158 0.00707447 0)
(1.74597 0.0071293 0)
(1.72848 0.00715893 0)
(1.70932 0.00717734 0)
(1.68838 0.00718499 0)
(1.66569 0.00718275 0)
(1.64128 0.00716996 0)
(1.61526 0.00714559 0)
(1.58777 0.00710831 0)
(1.559 0.00705689 0)
(1.5292 0.00699032 0)
(1.49869 0.00690806 0)
(1.46778 0.00681019 0)
(1.43682 0.00669746 0)
(1.40618 0.00657136 0)
(1.3762 0.00643401 0)
(1.34718 0.006288 0)
(1.3194 0.00613628 0)
(1.29308 0.00598187 0)
(1.26837 0.00582781 0)
(1.24539 0.00567695 0)
(1.22417 0.0055318 0)
(1.20473 0.00539447 0)
(1.18704 0.00526669 0)
(1.17101 0.00514988 0)
(1.15657 0.0050452 0)
(1.14362 0.00495344 0)
(1.13209 0.0048768 0)
(1.12164 0.00482014 0)
(1.11204 0.00476965 0)
(1.10244 0.00470961 0)
(1.09293 0.00464687 0)
(1.08343 0.00458163 0)
(1.07391 0.00451426 0)
(1.06433 0.00444467 0)
(1.05465 0.00437264 0)
(1.04484 0.0042979 0)
(1.03486 0.00422018 0)
(1.02468 0.0041392 0)
(1.01427 0.00405463 0)
(1.00362 0.00396617 0)
(0.992696 0.00387354 0)
(0.981485 0.00377645 0)
(0.969974 0.00367463 0)
(0.958155 0.00356784 0)
(0.946026 0.00345586 0)
(0.93359 0.00333853 0)
(0.920859 0.00321571 0)
(0.907849 0.00308737 0)
(0.894586 0.00295349 0)
(0.881107 0.00281418 0)
(0.867453 0.00266964 0)
(0.85368 0.0025202 0)
(0.839851 0.0023663 0)
(0.826038 0.00220854 0)
(0.812325 0.00204768 0)
(0.798803 0.00188465 0)
(0.785569 0.00172052 0)
(0.772729 0.00155653 0)
(0.760389 0.00139406 0)
(0.748656 0.00123458 0)
(0.737635 0.00107966 0)
(0.727423 0.00093088 0)
(0.718108 0.00078977 0)
(0.709762 0.00065773 0)
(0.702443 0.00053597 0)
(0.696187 0.000425441 0)
(0.691011 0.000326784 0)
(0.686914 0.000240283 0)
(0.683873 0.000165837 0)
(0.681857 0.000102881 0)
(0.68082 5.01652e-05 0)
(0.680725 7.70467e-06 0)
(0.681479 -2.25936e-05 0)
(0.682965 -4.28141e-05 0)
(0.685161 -5.66475e-05 0)
(0.688081 -6.50523e-05 0)
(0.691796 -6.86996e-05 0)
(0.696461 -6.75017e-05 0)
(0.702369 -5.90215e-05 0)
(0.710018 -3.38444e-05 0)
(0.720208 3.68425e-05 0)
(0.734135 0.000233198 0)
(0.753445 0.000768925 0)
(0.78021 0.00221551 0)
(0.816923 0.00618178 0)
(0.866431 0.0176118 0)
(0.926668 0.0544988 0)
(2.13835 -0.00100637 0)
(2.18643 -0.00139846 0)
(2.22454 -0.00135915 0)
(2.26428 -0.00132474 0)
(2.3002 -0.00124925 0)
(2.33277 -0.00119566 0)
(2.3621 -0.00117713 0)
(2.38917 -0.00119316 0)
(2.41492 -0.00122829 0)
(2.43998 -0.00126633 0)
(2.46459 -0.00129662 0)
(2.48869 -0.00131459 0)
(2.5121 -0.00131859 0)
(2.53463 -0.00130613 0)
(2.55604 -0.00127168 0)
(2.57605 -0.00120573 0)
(2.59426 -0.0010958 0)
(2.61018 -0.000929905 0)
(2.62325 -0.00070148 0)
(2.63294 -0.000414073 0)
(2.63888 -8.36639e-05 0)
(2.64097 0.000270093 0)
(2.63962 0.000636715 0)
(2.63514 0.000982572 0)
(2.6283 0.0012494 0)
(2.62023 0.00139064 0)
(2.61227 0.0013743 0)
(2.60569 0.0011877 0)
(2.60155 0.000840652 0)
(2.60052 0.000363549 0)
(2.60282 -0.000195634 0)
(2.60819 -0.000762095 0)
(2.6155 -0.0012686 0)
(2.62433 -0.00170679 0)
(2.63417 -0.00209472 0)
(2.64457 -0.00244091 0)
(2.65519 -0.0027497 0)
(2.66578 -0.0030227 0)
(2.67613 -0.00325862 0)
(2.6861 -0.00345427 0)
(2.69553 -0.0036049 0)
(2.7043 -0.00370497 0)
(2.71226 -0.00374859 0)
(2.7193 -0.00372987 0)
(2.72528 -0.00364368 0)
(2.7301 -0.00348608 0)
(2.73362 -0.00325449 0)
(2.73577 -0.00294739 0)
(2.73646 -0.00256498 0)
(2.73563 -0.00210869 0)
(2.73324 -0.00158021 0)
(2.72926 -0.00098054 0)
(2.72368 -0.000313472 0)
(2.71649 0.000410283 0)
(2.70772 0.00118184 0)
(2.69742 0.00200483 0)
(2.68575 0.00287631 0)
(2.67282 0.0037794 0)
(2.65874 0.00470201 0)
(2.64359 0.00563616 0)
(2.62749 0.00657447 0)
(2.61053 0.00751022 0)
(2.59282 0.00843771 0)
(2.57448 0.00935168 0)
(2.55559 0.0102474 0)
(2.53627 0.0111211 0)
(2.51659 0.0119697 0)
(2.49665 0.0127909 0)
(2.47653 0.0135828 0)
(2.45629 0.0143443 0)
(2.43601 0.0150746 0)
(2.41574 0.0157735 0)
(2.39552 0.016441 0)
(2.37542 0.0170774 0)
(2.35545 0.0176835 0)
(2.33566 0.0182601 0)
(2.31607 0.0188081 0)
(2.29669 0.0193285 0)
(2.27754 0.019822 0)
(2.25863 0.0202898 0)
(2.23997 0.0207327 0)
(2.22156 0.0211515 0)
(2.20341 0.0215471 0)
(2.18549 0.0219202 0)
(2.16783 0.0222715 0)
(2.15039 0.0226015 0)
(2.13318 0.0229108 0)
(2.11618 0.0231998 0)
(2.09938 0.0234688 0)
(2.08276 0.0237182 0)
(2.06631 0.0239483 0)
(2.05002 0.0241595 0)
(2.03386 0.024352 0)
(2.01781 0.0245259 0)
(2.00186 0.0246816 0)
(1.98599 0.0248196 0)
(1.97016 0.0249404 0)
(1.9544 0.0250448 0)
(1.9387 0.0251362 0)
(1.92273 0.0252221 0)
(1.90628 0.0252838 0)
(1.88791 0.0253049 0)
(1.86781 0.025293 0)
(1.84589 0.0252471 0)
(1.82217 0.0251659 0)
(1.7967 0.0250467 0)
(1.76957 0.0248863 0)
(1.74095 0.0246816 0)
(1.71105 0.0244299 0)
(1.68013 0.0241297 0)
(1.6485 0.023781 0)
(1.61651 0.0233857 0)
(1.58452 0.0229477 0)
(1.55288 0.0224728 0)
(1.52195 0.0219684 0)
(1.49205 0.0214434 0)
(1.46345 0.0209071 0)
(1.43636 0.0203688 0)
(1.41095 0.0198374 0)
(1.38732 0.019321 0)
(1.36552 0.0188263 0)
(1.34555 0.0183586 0)
(1.32738 0.0179217 0)
(1.31093 0.0175185 0)
(1.29612 0.0171505 0)
(1.28285 0.0168182 0)
(1.27105 0.0165234 0)
(1.26038 0.0162697 0)
(1.2506 0.0160435 0)
(1.24086 0.0158089 0)
(1.23122 0.0155693 0)
(1.2216 0.0153246 0)
(1.21198 0.0150741 0)
(1.20229 0.014817 0)
(1.19252 0.0145523 0)
(1.18262 0.0142789 0)
(1.17255 0.0139957 0)
(1.16229 0.0137016 0)
(1.15181 0.0133957 0)
(1.14108 0.0130768 0)
(1.13009 0.0127442 0)
(1.11882 0.0123969 0)
(1.10725 0.0120341 0)
(1.09537 0.0116552 0)
(1.0832 0.0112597 0)
(1.07072 0.0108471 0)
(1.05795 0.0104173 0)
(1.04491 0.00997039 0)
(1.03163 0.00950664 0)
(1.01815 0.00902672 0)
(1.0045 0.00853165 0)
(0.990738 0.00802281 0)
(0.976938 0.00750206 0)
(0.963171 0.00697169 0)
(0.949521 0.00643449 0)
(0.936081 0.00589373 0)
(0.922951 0.00535313 0)
(0.910238 0.00481683 0)
(0.898051 0.00428933 0)
(0.8865 0.00377536 0)
(0.875692 0.00327976 0)
(0.865729 0.00280724 0)
(0.856703 0.00236224 0)
(0.848691 0.00194866 0)
(0.841755 0.00156965 0)
(0.83594 0.00122745 0)
(0.831271 0.000923166 0)
(0.827754 0.000656683 0)
(0.825381 0.000426564 0)
(0.82413 0.000229969 0)
(0.823973 6.30898e-05 0)
(0.824886 -7.18405e-05 0)
(0.826718 -0.000177047 0)
(0.8295 -0.000264819 0)
(0.833242 -0.000344383 0)
(0.837994 -0.000423452 0)
(0.843848 -0.000511072 0)
(0.850946 -0.000618839 0)
(0.859476 -0.000762909 0)
(0.869659 -0.000968116 0)
(0.881717 -0.00127736 0)
(0.89582 -0.00177432 0)
(0.912014 -0.0026396 0)
(0.930146 -0.0042866 0)
(0.949847 -0.00766949 0)
(0.970489 -0.014968 0)
(0.988465 -0.0293062 0)
(2.28436 -0.00207494 0)
(2.33974 -0.00315629 0)
(2.38837 -0.00315535 0)
(2.44071 -0.00313698 0)
(2.49054 -0.00296042 0)
(2.53675 -0.00276081 0)
(2.57798 -0.00260235 0)
(2.61436 -0.00253907 0)
(2.6469 -0.0025713 0)
(2.67701 -0.00265785 0)
(2.70574 -0.00274848 0)
(2.73363 -0.00281338 0)
(2.76079 -0.00284505 0)
(2.78712 -0.00284284 0)
(2.81239 -0.00280034 0)
(2.83631 -0.00270159 0)
(2.85845 -0.00252415 0)
(2.87831 -0.00224565 0)
(2.89533 -0.00185234 0)
(2.90897 -0.00134737 0)
(2.9188 -0.000756368 0)
(2.92461 -0.000125637 0)
(2.92654 0.000504875 0)
(2.92513 0.00109298 0)
(2.92079 0.00155726 0)
(2.91434 0.00181408 0)
(2.90675 0.00181838 0)
(2.89892 0.00156369 0)
(2.89154 0.00108232 0)
(2.88503 0.000436484 0)
(2.87952 -0.000294637 0)
(2.87497 -0.0010109 0)
(2.87158 -0.00163779 0)
(2.86908 -0.00216398 0)
(2.8672 -0.00260402 0)
(2.86572 -0.00297613 0)
(2.8645 -0.00329426 0)
(2.86341 -0.00356463 0)
(2.86236 -0.00378624 0)
(2.86127 -0.00395371 0)
(2.86003 -0.00405861 0)
(2.85858 -0.00409034 0)
(2.8568 -0.00403731 0)
(2.8546 -0.00388771 0)
(2.85187 -0.00363087 0)
(2.84851 -0.00325784 0)
(2.84441 -0.00276171 0)
(2.83948 -0.00213701 0)
(2.83364 -0.00138038 0)
(2.8268 -0.000491975 0)
(2.81891 0.00052407 0)
(2.80991 0.00166483 0)
(2.79981 0.00292477 0)
(2.78861 0.00429129 0)
(2.77633 0.00574837 0)
(2.76299 0.00728148 0)
(2.74865 0.00887754 0)
(2.73335 0.0105238 0)
(2.71715 0.0122056 0)
(2.70014 0.0139091 0)
(2.68238 0.015621 0)
(2.66397 0.0173288 0)
(2.64498 0.0190217 0)
(2.62551 0.0206899 0)
(2.60563 0.0223248 0)
(2.58544 0.0239192 0)
(2.56502 0.0254674 0)
(2.54443 0.0269648 0)
(2.52375 0.028408 0)
(2.50303 0.0297948 0)
(2.48235 0.0311239 0)
(2.46174 0.0323949 0)
(2.44125 0.0336079 0)
(2.42092 0.0347637 0)
(2.40079 0.0358634 0)
(2.38086 0.0369084 0)
(2.36118 0.0379004 0)
(2.34175 0.0388412 0)
(2.32258 0.0397326 0)
(2.30368 0.0405761 0)
(2.28505 0.0413733 0)
(2.2667 0.0421257 0)
(2.24861 0.0428345 0)
(2.23079 0.0435012 0)
(2.21323 0.0441268 0)
(2.19591 0.0447125 0)
(2.17883 0.0452591 0)
(2.16197 0.0457674 0)
(2.14532 0.0462381 0)
(2.12886 0.0466719 0)
(2.11257 0.0470694 0)
(2.09645 0.0474312 0)
(2.08046 0.0477577 0)
(2.0646 0.0480494 0)
(2.04883 0.0483066 0)
(2.03315 0.0485297 0)
(2.01753 0.0487192 0)
(2.00197 0.0488751 0)
(1.98648 0.0489968 0)
(1.97074 0.0490855 0)
(1.95451 0.0491392 0)
(1.93642 0.049143 0)
(1.91663 0.0490907 0)
(1.89506 0.0489777 0)
(1.87174 0.0487973 0)
(1.84671 0.0485428 0)
(1.82008 0.048207 0)
(1.79202 0.0477838 0)
(1.76273 0.0472684 0)
(1.73247 0.0466584 0)
(1.70156 0.0459547 0)
(1.67033 0.0451617 0)
(1.63914 0.0442876 0)
(1.60835 0.0433444 0)
(1.57828 0.042347 0)
(1.54925 0.0413126 0)
(1.52152 0.0402592 0)
(1.49529 0.0392052 0)
(1.47071 0.0381676 0)
(1.44788 0.0371614 0)
(1.42685 0.0361993 0)
(1.4076 0.035291 0)
(1.39009 0.0344435 0)
(1.37427 0.0336608 0)
(1.36002 0.0329448 0)
(1.34728 0.0322949 0)
(1.33595 0.0317088 0)
(1.32571 0.0311837 0)
(1.31634 0.0307147 0)
(1.30701 0.0302454 0)
(1.29778 0.0297724 0)
(1.28858 0.0292934 0)
(1.27937 0.0288059 0)
(1.27012 0.0283075 0)
(1.26079 0.0277959 0)
(1.25133 0.0272687 0)
(1.24173 0.0267237 0)
(1.23196 0.0261587 0)
(1.22198 0.0255715 0)
(1.21177 0.02496 0)
(1.20132 0.0243224 0)
(1.19061 0.0236569 0)
(1.17962 0.0229618 0)
(1.16836 0.0222359 0)
(1.15682 0.0214779 0)
(1.145 0.0206871 0)
(1.13293 0.019863 0)
(1.12061 0.0190058 0)
(1.10807 0.018116 0)
(1.09536 0.0171949 0)
(1.08251 0.0162444 0)
(1.06957 0.0152671 0)
(1.05662 0.0142666 0)
(1.04372 0.0132474 0)
(1.03095 0.0122148 0)
(1.0184 0.0111751 0)
(1.00618 0.0101354 0)
(0.99437 0.00910369 0)
(0.983088 0.00808859 0)
(0.972437 0.00709917 0)
(0.962519 0.00614462 0)
(0.953432 0.00523394 0)
(0.945262 0.00437553 0)
(0.938087 0.00357682 0)
(0.931966 0.0028438 0)
(0.926942 0.00218075 0)
(0.923039 0.00158988 0)
(0.920261 0.00107122 0)
(0.918597 0.000622585 0)
(0.918018 0.000240005 0)
(0.918482 -7.96578e-05 0)
(0.919883 -0.000335561 0)
(0.922184 -0.000538837 0)
(0.925339 -0.000706958 0)
(0.929299 -0.000848708 0)
(0.934014 -0.000971968 0)
(0.93943 -0.00108306 0)
(0.945473 -0.00118643 0)
(0.95204 -0.00128331 0)
(0.958985 -0.00136876 0)
(0.966114 -0.00142499 0)
(0.973195 -0.00140792 0)
(0.979979 -0.00122358 0)
(0.986223 -0.000695664 0)
(0.991737 0.000445749 0)
(0.996402 0.00209067 0)
(0.998422 0.000152522 0)
(2.35828 -0.00359628 0)
(2.41735 -0.00586212 0)
(2.4728 -0.00609807 0)
(2.53511 -0.00632943 0)
(2.59856 -0.00623194 0)
(2.66167 -0.00597156 0)
(2.72175 -0.00560785 0)
(2.77664 -0.00524725 0)
(2.82501 -0.00498082 0)
(2.86694 -0.00486197 0)
(2.9037 -0.00488275 0)
(2.93693 -0.00498438 0)
(2.96788 -0.00509451 0)
(2.99716 -0.00515804 0)
(3.02485 -0.00514034 0)
(3.05073 -0.00501203 0)
(3.07432 -0.00473858 0)
(3.09502 -0.00428303 0)
(3.11211 -0.00361826 0)
(3.12491 -0.00274119 0)
(3.13279 -0.00168294 0)
(3.13537 -0.000512113 0)
(3.1326 0.000691026 0)
(3.12467 0.00185253 0)
(3.11218 0.00285234 0)
(3.09598 0.00355725 0)
(3.07711 0.00389235 0)
(3.05671 0.00384073 0)
(3.03585 0.00344337 0)
(3.01546 0.00278492 0)
(2.99626 0.0019683 0)
(2.97871 0.00109843 0)
(2.96305 0.000275958 0)
(2.94941 -0.000438829 0)
(2.93771 -0.00104187 0)
(2.92772 -0.00154524 0)
(2.91918 -0.00195844 0)
(2.91182 -0.00228923 0)
(2.90538 -0.00253976 0)
(2.89965 -0.00270505 0)
(2.89442 -0.00277424 0)
(2.88951 -0.00273285 0)
(2.88474 -0.00256488 0)
(2.87994 -0.00225389 0)
(2.87494 -0.00178457 0)
(2.86961 -0.00114331 0)
(2.86381 -0.00031964 0)
(2.85739 0.000692981 0)
(2.85026 0.00189836 0)
(2.84233 0.00329622 0)
(2.83351 0.00488128 0)
(2.82376 0.00664433 0)
(2.81304 0.00857429 0)
(2.80133 0.0106586 0)
(2.78863 0.0128825 0)
(2.77496 0.0152284 0)
(2.76034 0.017675 0)
(2.74482 0.0202 0)
(2.72846 0.0227813 0)
(2.71132 0.0253981 0)
(2.69348 0.0280302 0)
(2.67501 0.0306586 0)
(2.65599 0.033266 0)
(2.63652 0.0358371 0)
(2.61666 0.038358 0)
(2.5965 0.0408173 0)
(2.57611 0.0432054 0)
(2.55558 0.0455145 0)
(2.53496 0.0477391 0)
(2.51432 0.0498752 0)
(2.49372 0.0519202 0)
(2.47321 0.0538733 0)
(2.45283 0.0557346 0)
(2.43261 0.0575053 0)
(2.4126 0.0591872 0)
(2.39282 0.0607827 0)
(2.37329 0.0622946 0)
(2.35402 0.0637259 0)
(2.33503 0.0650795 0)
(2.31633 0.0663585 0)
(2.29791 0.0675656 0)
(2.27977 0.0687035 0)
(2.26191 0.0697744 0)
(2.24433 0.0707805 0)
(2.22701 0.0717237 0)
(2.20995 0.0726056 0)
(2.19313 0.0734276 0)
(2.17654 0.0741907 0)
(2.16015 0.0748961 0)
(2.14397 0.0755446 0)
(2.12796 0.0761368 0)
(2.11211 0.0766735 0)
(2.0964 0.0771551 0)
(2.08081 0.077582 0)
(2.06532 0.0779546 0)
(2.04991 0.0782731 0)
(2.03456 0.078538 0)
(2.01927 0.0787491 0)
(2.00405 0.0789051 0)
(1.98858 0.0790043 0)
(1.97261 0.079048 0)
(1.9548 0.0790139 0)
(1.93532 0.0788884 0)
(1.91408 0.0786639 0)
(1.89112 0.0783281 0)
(1.8665 0.0778697 0)
(1.84031 0.0772771 0)
(1.81273 0.0765403 0)
(1.78396 0.0756524 0)
(1.75429 0.0746103 0)
(1.72401 0.0734166 0)
(1.69347 0.0720799 0)
(1.66302 0.0706149 0)
(1.63301 0.0690423 0)
(1.60377 0.067387 0)
(1.5756 0.0656773 0)
(1.54874 0.0639428 0)
(1.5234 0.0622125 0)
(1.4997 0.0605134 0)
(1.47774 0.0588692 0)
(1.45754 0.0572995 0)
(1.4391 0.0558193 0)
(1.42236 0.054439 0)
(1.40725 0.0531645 0)
(1.39367 0.0519981 0)
(1.38154 0.0509388 0)
(1.37076 0.0499823 0)
(1.36104 0.0491224 0)
(1.35214 0.0483546 0)
(1.34328 0.0475899 0)
(1.33453 0.0468212 0)
(1.32581 0.0460445 0)
(1.31709 0.0452556 0)
(1.30834 0.0444505 0)
(1.29952 0.0436253 0)
(1.2906 0.0427764 0)
(1.28154 0.0418999 0)
(1.27233 0.0409924 0)
(1.26293 0.0400506 0)
(1.25334 0.0390712 0)
(1.24353 0.0380513 0)
(1.23348 0.036988 0)
(1.2232 0.035879 0)
(1.21268 0.0347222 0)
(1.20191 0.033516 0)
(1.1909 0.0322593 0)
(1.17968 0.0309515 0)
(1.16825 0.029593 0)
(1.15664 0.0281848 0)
(1.14489 0.026729 0)
(1.13304 0.0252286 0)
(1.12115 0.0236881 0)
(1.10926 0.022113 0)
(1.09746 0.0205103 0)
(1.0858 0.0188884 0)
(1.07438 0.0172571 0)
(1.06328 0.0156277 0)
(1.05258 0.0140125 0)
(1.04238 0.012425 0)
(1.03277 0.0108792 0)
(1.02382 0.0093895 0)
(1.01563 0.00796998 0)
(1.00825 0.00663379 0)
(1.00174 0.00539263 0)
(0.996132 0.00425609 0)
(0.991444 0.00323111 0)
(0.987673 0.0023215 0)
(0.984795 0.00152774 0)
(0.982766 0.000846963 0)
(0.981524 0.000273482 0)
(0.980991 -0.000198129 0)
(0.981104 -0.00057373 0)
(0.98179 -0.000869409 0)
(0.982953 -0.00110472 0)
(0.984499 -0.00129357 0)
(0.986336 -0.00144861 0)
(0.988372 -0.00158161 0)
(0.99052 -0.00170417 0)
(0.992698 -0.00182885 0)
(0.994826 -0.00197081 0)
(0.996829 -0.00215006 0)
(0.998635 -0.00239324 0)
(1.00017 -0.00273278 0)
(1.00137 -0.00319093 0)
(1.00217 -0.00368568 0)
(1.00262 -0.00388164 0)
(1.00123 -0.00420157 0)
(2.38993 -0.00553622 0)
(2.44829 -0.00943211 0)
(2.50452 -0.0101181 0)
(2.56913 -0.0108804 0)
(2.63717 -0.0111703 0)
(2.70785 -0.0111804 0)
(2.77909 -0.0109169 0)
(2.8489 -0.0104625 0)
(2.91508 -0.00991063 0)
(2.97559 -0.00936283 0)
(3.02897 -0.00890172 0)
(3.07478 -0.00857133 0)
(3.11366 -0.00836464 0)
(3.14679 -0.00822312 0)
(3.17532 -0.00805394 0)
(3.19989 -0.00775415 0)
(3.22066 -0.00723015 0)
(3.2374 -0.00640741 0)
(3.24968 -0.00523919 0)
(3.25702 -0.00371818 0)
(3.25903 -0.00188752 0)
(3.25552 0.00015679 0)
(3.24652 0.0022993 0)
(3.23227 0.00440574 0)
(3.21341 0.00629358 0)
(3.19074 0.00778106 0)
(3.16526 0.00874447 0)
(3.13805 0.00913031 0)
(3.11021 0.00896265 0)
(3.08275 0.00833223 0)
(3.05651 0.00737024 0)
(3.03213 0.00622393 0)
(3.01001 0.005027 0)
(2.99034 0.00387324 0)
(2.97313 0.00281552 0)
(2.95821 0.0018785 0)
(2.94535 0.00107328 0)
(2.93428 0.000406169 0)
(2.9247 -0.00011949 0)
(2.91632 -0.000496077 0)
(2.90886 -0.000710196 0)
(2.90208 -0.000744464 0)
(2.89574 -0.000579447 0)
(2.88961 -0.000194905 0)
(2.88351 0.00042843 0)
(2.87724 0.00130799 0)
(2.87065 0.00245758 0)
(2.8636 0.00388671 0)
(2.85595 0.00559951 0)
(2.84759 0.00759514 0)
(2.83845 0.00986751 0)
(2.82844 0.0124053 0)
(2.81753 0.0151914 0)
(2.80569 0.0182046 0)
(2.7929 0.0214207 0)
(2.77918 0.0248134 0)
(2.76455 0.0283539 0)
(2.74905 0.0320117 0)
(2.73274 0.0357559 0)
(2.71566 0.0395559 0)
(2.6979 0.0433827 0)
(2.67951 0.0472085 0)
(2.66059 0.0510078 0)
(2.6412 0.0547575 0)
(2.62144 0.058437 0)
(2.60136 0.0620286 0)
(2.58106 0.0655174 0)
(2.56061 0.0688914 0)
(2.54006 0.0721412 0)
(2.51948 0.0752601 0)
(2.49893 0.0782438 0)
(2.47847 0.08109 0)
(2.45813 0.0837983 0)
(2.43795 0.0863699 0)
(2.41797 0.0888073 0)
(2.39822 0.0911139 0)
(2.37872 0.0932938 0)
(2.35949 0.0953517 0)
(2.34054 0.0972925 0)
(2.32187 0.0991211 0)
(2.30349 0.100843 0)
(2.28541 0.102461 0)
(2.26762 0.103982 0)
(2.2501 0.105408 0)
(2.23286 0.106744 0)
(2.21589 0.107991 0)
(2.19916 0.109154 0)
(2.18267 0.110233 0)
(2.1664 0.111232 0)
(2.15033 0.11215 0)
(2.13444 0.11299 0)
(2.11871 0.113753 0)
(2.10313 0.114438 0)
(2.08767 0.115046 0)
(2.07231 0.115577 0)
(2.05703 0.116031 0)
(2.04181 0.116408 0)
(2.02663 0.116708 0)
(2.01153 0.116929 0)
(1.99619 0.11707 0)
(1.98032 0.11713 0)
(1.96263 0.117074 0)
(1.94327 0.116881 0)
(1.92215 0.116535 0)
(1.89931 0.116016 0)
(1.8748 0.115306 0)
(1.84873 0.114387 0)
(1.82128 0.113244 0)
(1.79265 0.111867 0)
(1.76313 0.110251 0)
(1.73303 0.108402 0)
(1.70269 0.106334 0)
(1.67247 0.10407 0)
(1.64273 0.101645 0)
(1.61379 0.0990963 0)
(1.58596 0.0964698 0)
(1.55948 0.093811 0)
(1.53453 0.0911648 0)
(1.51125 0.0885723 0)
(1.48972 0.0860693 0)
(1.46996 0.083685 0)
(1.45194 0.0814411 0)
(1.43563 0.0793525 0)
(1.42092 0.0774273 0)
(1.40773 0.0756682 0)
(1.39596 0.0740729 0)
(1.38551 0.072635 0)
(1.3761 0.0713455 0)
(1.36749 0.0701938 0)
(1.35893 0.0690487 0)
(1.35047 0.0678986 0)
(1.34205 0.0667376 0)
(1.33364 0.0655594 0)
(1.3252 0.0643581 0)
(1.31671 0.0631279 0)
(1.30812 0.0618633 0)
(1.29941 0.0605589 0)
(1.29056 0.0592097 0)
(1.28155 0.0578109 0)
(1.27235 0.0563577 0)
(1.26295 0.0548461 0)
(1.25334 0.0532722 0)
(1.24352 0.0516327 0)
(1.23347 0.049925 0)
(1.22321 0.0481469 0)
(1.21274 0.0462973 0)
(1.20207 0.0443759 0)
(1.19122 0.0423835 0)
(1.18023 0.0403223 0)
(1.16911 0.0381959 0)
(1.15792 0.0360092 0)
(1.1467 0.0337693 0)
(1.1355 0.0314849 0)
(1.12439 0.0291666 0)
(1.11343 0.0268271 0)
(1.1027 0.0244811 0)
(1.09226 0.0221451 0)
(1.0822 0.0198371 0)
(1.07259 0.0175765 0)
(1.0635 0.0153833 0)
(1.05499 0.0132777 0)
(1.04714 0.0112794 0)
(1.03998 0.00940641 0)
(1.03356 0.00767475 0)
(1.02788 0.00609718 0)
(1.02296 0.00468265 0)
(1.01878 0.0034357 0)
(1.01531 0.00235618 0)
(1.0125 0.0014392 0)
(1.0103 0.000675493 0)
(1.00864 5.28953e-05 0)
(1.00745 -0.000440427 0)
(1.00668 -0.000821505 0)
(1.00625 -0.00111243 0)
(1.00607 -0.0013322 0)
(1.00608 -0.00149739 0)
(1.0062 -0.00162245 0)
(1.00639 -0.00171968 0)
(1.00659 -0.00179919 0)
(1.00675 -0.00186884 0)
(1.00682 -0.00193402 0)
(1.00677 -0.00199755 0)
(1.00653 -0.00206218 0)
(1.00605 -0.00213975 0)
(1.0053 -0.00224527 0)
(1.00433 -0.00245287 0)
(1.0019 -0.00352961 0)
(2.39581 -0.00787992 0)
(2.45061 -0.0137703 0)
(2.50374 -0.0150594 0)
(2.56541 -0.0165529 0)
(2.63113 -0.0174454 0)
(2.70051 -0.0179824 0)
(2.77195 -0.0181191 0)
(2.84402 -0.0179022 0)
(2.91514 -0.0173798 0)
(2.98368 -0.0166213 0)
(3.04801 -0.0157102 0)
(3.10661 -0.0147385 0)
(3.15825 -0.0137844 0)
(3.20231 -0.0128836 0)
(3.23883 -0.0120084 0)
(3.26837 -0.0110669 0)
(3.29161 -0.00992718 0)
(3.30908 -0.0084541 0)
(3.32101 -0.00654921 0)
(3.32744 -0.00417924 0)
(3.32833 -0.00138928 0)
(3.32369 0.00170553 0)
(3.31365 0.00495868 0)
(3.29852 0.00818592 0)
(3.27878 0.0111511 0)
(3.25509 0.0136225 0)
(3.22826 0.0154225 0)
(3.19924 0.016453 0)
(3.16901 0.016709 0)
(3.13855 0.0162709 0)
(3.10874 0.0152777 0)
(3.08034 0.0139038 0)
(3.05391 0.0123261 0)
(3.02981 0.0106902 0)
(3.00822 0.00909742 0)
(2.98913 0.00761474 0)
(2.97241 0.00628685 0)
(2.95785 0.00514398 0)
(2.94517 0.00420915 0)
(2.93409 0.0035033 0)
(2.9243 0.00304771 0)
(2.91551 0.00286516 0)
(2.90747 0.00297957 0)
(2.89991 0.00341518 0)
(2.8926 0.0041949 0)
(2.88534 0.00533923 0)
(2.87792 0.00686443 0)
(2.87019 0.00878133 0)
(2.86199 0.0110945 0)
(2.85319 0.0138021 0)
(2.84371 0.016895 0)
(2.83344 0.020358 0)
(2.82234 0.0241693 0)
(2.81037 0.0283012 0)
(2.7975 0.0327211 0)
(2.78373 0.0373921 0)
(2.76909 0.0422744 0)
(2.75361 0.0473262 0)
(2.73732 0.0525051 0)
(2.72028 0.0577689 0)
(2.70256 0.0630769 0)
(2.68423 0.0683905 0)
(2.66536 0.0736738 0)
(2.64602 0.078894 0)
(2.62629 0.0840217 0)
(2.60625 0.0890313 0)
(2.58597 0.0939012 0)
(2.56552 0.0986133 0)
(2.54497 0.103154 0)
(2.52437 0.107511 0)
(2.5038 0.111679 0)
(2.48329 0.115652 0)
(2.46289 0.119429 0)
(2.44265 0.12301 0)
(2.42259 0.126398 0)
(2.40275 0.129597 0)
(2.38316 0.132612 0)
(2.36383 0.13545 0)
(2.34477 0.138118 0)
(2.32599 0.140623 0)
(2.30751 0.142972 0)
(2.28932 0.145172 0)
(2.27142 0.147231 0)
(2.25381 0.149156 0)
(2.23648 0.150951 0)
(2.21941 0.152624 0)
(2.2026 0.154178 0)
(2.18604 0.155618 0)
(2.16969 0.156948 0)
(2.15356 0.15817 0)
(2.13762 0.159288 0)
(2.12184 0.160302 0)
(2.10622 0.161214 0)
(2.09072 0.162025 0)
(2.07533 0.162736 0)
(2.06002 0.163347 0)
(2.04477 0.163857 0)
(2.02958 0.164266 0)
(2.01444 0.164573 0)
(1.99909 0.164777 0)
(1.98317 0.164874 0)
(1.96545 0.164813 0)
(1.94602 0.164557 0)
(1.92484 0.164078 0)
(1.90192 0.163346 0)
(1.87731 0.162332 0)
(1.85113 0.16101 0)
(1.82355 0.159357 0)
(1.79479 0.157358 0)
(1.76513 0.155007 0)
(1.73489 0.152314 0)
(1.70442 0.149299 0)
(1.67408 0.145999 0)
(1.64424 0.142463 0)
(1.61523 0.13875 0)
(1.58736 0.134925 0)
(1.56086 0.131057 0)
(1.53594 0.127211 0)
(1.51271 0.123448 0)
(1.49126 0.119818 0)
(1.47161 0.116364 0)
(1.45372 0.113117 0)
(1.43754 0.110099 0)
(1.42298 0.10732 0)
(1.40994 0.104785 0)
(1.39831 0.10249 0)
(1.38801 0.100428 0)
(1.37876 0.0985843 0)
(1.37028 0.0969394 0)
(1.36186 0.0953109 0)
(1.35355 0.0936789 0)
(1.34529 0.0920337 0)
(1.33703 0.0903663 0)
(1.32876 0.0886681 0)
(1.32043 0.0869309 0)
(1.31202 0.0851466 0)
(1.30349 0.0833079 0)
(1.29483 0.0814074 0)
(1.28601 0.0794386 0)
(1.27702 0.0773952 0)
(1.26784 0.0752715 0)
(1.25847 0.0730625 0)
(1.24888 0.0707641 0)
(1.23909 0.0683729 0)
(1.2291 0.0658866 0)
(1.21891 0.0633041 0)
(1.20853 0.0606257 0)
(1.198 0.0578533 0)
(1.18733 0.0549906 0)
(1.17655 0.0520432 0)
(1.16571 0.0490192 0)
(1.15485 0.0459286 0)
(1.14403 0.0427845 0)
(1.1333 0.0396022 0)
(1.12272 0.0363998 0)
(1.11236 0.0331978 0)
(1.10228 0.030019 0)
(1.09257 0.0268883 0)
(1.08328 0.0238318 0)
(1.07448 0.0208762 0)
(1.06623 0.0180483 0)
(1.05858 0.0153735 0)
(1.05156 0.0128751 0)
(1.04521 0.010573 0)
(1.03954 0.00848285 0)
(1.03456 0.00661501 0)
(1.03023 0.00497401 0)
(1.02654 0.00355826 0)
(1.02344 0.00236018 0)
(1.02088 0.00136673 0)
(1.0188 0.000560202 0)
(1.01713 -7.97898e-05 0)
(1.0158 -0.000574674 0)
(1.01476 -0.000949582 0)
(1.01394 -0.00122993 0)
(1.01327 -0.00143817 0)
(1.0127 -0.00159425 0)
(1.01217 -0.00171574 0)
(1.01165 -0.00181811 0)
(1.01109 -0.00191493 0)
(1.01046 -0.00201769 0)
(1.00971 -0.00213409 0)
(1.00881 -0.00226544 0)
(1.00769 -0.00240235 0)
(1.00634 -0.00249526 0)
(1.00478 -0.00253642 0)
(1.00202 -0.00326434 0)
(2.38187 -0.0105721 0)
(2.43108 -0.0187192 0)
(2.47859 -0.0207304 0)
(2.53412 -0.0231037 0)
(2.59359 -0.024747 0)
(2.65686 -0.0259728 0)
(2.72269 -0.0266911 0)
(2.7901 -0.0269327 0)
(2.85798 -0.026726 0)
(2.92534 -0.0261178 0)
(2.99116 -0.0251553 0)
(3.05445 -0.0238876 0)
(3.11411 -0.022369 0)
(3.16899 -0.0206536 0)
(3.21796 -0.0187767 0)
(3.26011 -0.0167292 0)
(3.2949 -0.0144477 0)
(3.32218 -0.0118283 0)
(3.3421 -0.00876418 0)
(3.35491 -0.0051921 0)
(3.36091 -0.0011305 0)
(3.36046 0.0033102 0)
(3.3541 0.00796612 0)
(3.34244 0.0126216 0)
(3.32604 0.017001 0)
(3.30548 0.0208157 0)
(3.2814 0.0238281 0)
(3.25458 0.0258816 0)
(3.22583 0.0269253 0)
(3.19599 0.0270114 0)
(3.16589 0.0262663 0)
(3.13628 0.0248713 0)
(3.10781 0.0230283 0)
(3.08101 0.0209259 0)
(3.05624 0.0187226 0)
(3.03369 0.0165456 0)
(3.01341 0.0144945 0)
(2.99534 0.0126457 0)
(2.97933 0.0110584 0)
(2.96517 0.00978075 0)
(2.95259 0.008854 0)
(2.94134 0.00831587 0)
(2.93113 0.00820152 0)
(2.92171 0.00854392 0)
(2.91281 0.00937289 0)
(2.90419 0.0107141 0)
(2.89565 0.0125876 0)
(2.88699 0.0150062 0)
(2.87802 0.0179749 0)
(2.8686 0.0214902 0)
(2.85861 0.0255391 0)
(2.84793 0.0301 0)
(2.8365 0.0351425 0)
(2.82426 0.0406289 0)
(2.81116 0.0465146 0)
(2.7972 0.05275 0)
(2.78239 0.0592811 0)
(2.76674 0.0660519 0)
(2.7503 0.0730051 0)
(2.7331 0.0800841 0)
(2.71522 0.0872339 0)
(2.69671 0.0944023 0)
(2.67764 0.10154 0)
(2.6581 0.108603 0)
(2.63814 0.115551 0)
(2.61786 0.122348 0)
(2.59732 0.128964 0)
(2.5766 0.135374 0)
(2.55575 0.141556 0)
(2.53485 0.147494 0)
(2.51395 0.153178 0)
(2.4931 0.158599 0)
(2.47235 0.163752 0)
(2.45174 0.168639 0)
(2.43132 0.173259 0)
(2.4111 0.177617 0)
(2.39111 0.18172 0)
(2.37138 0.185575 0)
(2.35192 0.18919 0)
(2.33275 0.192576 0)
(2.31387 0.195742 0)
(2.29528 0.198698 0)
(2.27698 0.201454 0)
(2.25898 0.204021 0)
(2.24126 0.206407 0)
(2.22382 0.208621 0)
(2.20664 0.210671 0)
(2.18972 0.212564 0)
(2.17303 0.214307 0)
(2.15656 0.215905 0)
(2.14029 0.217362 0)
(2.1242 0.218683 0)
(2.10827 0.219871 0)
(2.09249 0.220927 0)
(2.07682 0.221855 0)
(2.06124 0.222653 0)
(2.04573 0.223324 0)
(2.03028 0.223866 0)
(2.01489 0.22428 0)
(1.99931 0.224565 0)
(1.98315 0.224715 0)
(1.96516 0.224654 0)
(1.94546 0.224329 0)
(1.92399 0.223696 0)
(1.90075 0.22271 0)
(1.87583 0.22133 0)
(1.84932 0.219514 0)
(1.82139 0.217231 0)
(1.79229 0.214457 0)
(1.76228 0.211185 0)
(1.73169 0.207426 0)
(1.70089 0.20321 0)
(1.67023 0.198589 0)
(1.64009 0.19363 0)
(1.61081 0.188421 0)
(1.5827 0.183053 0)
(1.55601 0.177623 0)
(1.53094 0.172227 0)
(1.5076 0.166948 0)
(1.48609 0.16186 0)
(1.46639 0.157022 0)
(1.4485 0.152477 0)
(1.43234 0.148255 0)
(1.41783 0.144372 0)
(1.40484 0.140832 0)
(1.39328 0.137632 0)
(1.38305 0.13476 0)
(1.37387 0.132199 0)
(1.36546 0.129916 0)
(1.35713 0.127664 0)
(1.34891 0.125414 0)
(1.34074 0.123151 0)
(1.33259 0.120861 0)
(1.32443 0.118531 0)
(1.31622 0.116152 0)
(1.30794 0.11371 0)
(1.29955 0.111197 0)
(1.29103 0.108602 0)
(1.28237 0.105916 0)
(1.27355 0.10313 0)
(1.26455 0.100238 0)
(1.25536 0.0972329 0)
(1.24598 0.0941093 0)
(1.23641 0.0908633 0)
(1.22665 0.0874924 0)
(1.21671 0.083996 0)
(1.2066 0.0803752 0)
(1.19634 0.0766336 0)
(1.18596 0.0727768 0)
(1.1755 0.0688138 0)
(1.16498 0.0647559 0)
(1.15446 0.060618 0)
(1.14399 0.0564183 0)
(1.13361 0.0521782 0)
(1.1234 0.0479224 0)
(1.11341 0.043679 0)
(1.10371 0.0394785 0)
(1.09435 0.0353538 0)
(1.08542 0.0313392 0)
(1.07696 0.0274694 0)
(1.06902 0.0237784 0)
(1.06166 0.0202985 0)
(1.0549 0.0170585 0)
(1.04877 0.0140825 0)
(1.04328 0.0113889 0)
(1.03842 0.00898911 0)
(1.03419 0.00688701 0)