/*--------------------------------*- C++ -*----------------------------------*\
| =========                 |                                                 |
| \\      /  F ield         | OpenFOAM: The Open Source CFD Toolbox           |
|  \\    /   O peration     | Version:  2406                                  |
|   \\  /    A nd           | Website:  www.openfoam.com                      |
|    \\/     M anipulation  |                                                 |
\*---------------------------------------------------------------------------*/
FoamFile
{
    version     2.0;
    format      ascii;
    arch        "LSB;label=32;scalar=64";
    class       surfaceScalarField;
    location    "0.3";
    object      phi;
}
// * * * * * * * * * * * * * * * * * * * * * * * * * * * * * * * * * * * * * //

dimensions      [0 3 -1 0 0 0 0];

oriented        oriented;

internalField   nonuniform List<scalar> 
445
(
1.45283e-05
5.72186e-11
1.45282e-05
3.26507e-11
1.45282e-05
1.28632e-11
1.45282e-05
5.75649e-13
1.45282e-05
-6.82379e-12
1.45282e-05
-9.94751e-12
1.45282e-05
-8.18591e-12
1.45282e-05
-2.43703e-12
1.45282e-05
5.69898e-12
1.45282e-05
9.34283e-12
1.45282e-05
6.69332e-12
1.45282e-05
5.85637e-13
1.45282e-05
-4.76611e-12
1.45282e-05
-4.13964e-12
1.45282e-05
7.1098e-13
1.45282e-05
4.43453e-12
1.45282e-05
3.1072e-12
1.45282e-05
-2.40273e-12
1.45282e-05
-8.05895e-12
1.45282e-05
-8.67049e-12
1.45282e-05
-3.73808e-12
1.45282e-05
3.57794e-12
1.45282e-05
9.03557e-12
1.45282e-05
9.60483e-12
1.45282e-05
5.65139e-12
1.45282e-05
-1.01168e-12
1.45282e-05
-7.69428e-12
1.45282e-05
-1.07301e-11
1.45282e-05
-8.85644e-12
1.45282e-05
-3.28723e-12
1.45282e-05
4.52554e-12
1.45282e-05
8.77852e-12
1.45282e-05
7.65521e-12
1.45282e-05
3.15182e-12
1.45282e-05
-2.57415e-12
1.45282e-05
-5.09847e-12
1.45282e-05
-2.62576e-12
1.45282e-05
1.55155e-12
1.45282e-05
4.16258e-12
1.45282e-05
2.36272e-12
1.45282e-05
-2.25326e-12
1.45282e-05
-5.76496e-12
1.45282e-05
-5.18315e-12
1.45282e-05
-1.45452e-12
1.45282e-05
3.7233e-12
1.45282e-05
5.88415e-12
1.45282e-05
5.46863e-12
1.45282e-05
3.58747e-12
1.45282e-05
1.57996e-12
-1.5682e-12
3.16353e-05
1.12472e-10
3.16353e-05
7.77574e-11
3.16353e-05
4.00878e-11
3.16353e-05
7.59294e-12
3.16353e-05
-1.3421e-11
3.16353e-05
-2.12809e-11
3.16353e-05
-1.83068e-11
3.16353e-05
-8.88155e-12
3.16353e-05
2.52637e-12
3.16353e-05
1.04893e-11
3.16353e-05
1.14354e-11
3.16353e-05
6.04187e-12
3.16353e-05
-1.80709e-12
3.16353e-05
-6.30486e-12
3.16353e-05
-4.85745e-12
3.16353e-05
-7.98608e-13
3.16353e-05
7.85445e-13
3.16353e-05
-2.34242e-12
3.16353e-05
-7.90065e-12
3.16353e-05
-1.06871e-11
3.16353e-05
-7.3996e-12
3.16353e-05
1.46093e-12
3.16352e-05
1.04887e-11
3.16352e-05
1.47088e-11
3.16352e-05
1.15196e-11
3.16352e-05
2.63493e-12
3.16352e-05
-8.62895e-12
3.16352e-05
-1.63567e-11
3.16352e-05
-1.71094e-11
3.16352e-05
-1.03893e-11
3.16352e-05
9.77135e-13
3.16352e-05
1.13787e-11
3.16352e-05
1.54796e-11
3.16352e-05
1.17417e-11
3.16352e-05
2.92606e-12
3.16352e-05
-5.20228e-12
3.16352e-05
-7.31753e-12
3.16352e-05
-3.5521e-12
3.16352e-05
1.67204e-12
3.16352e-05
3.06606e-12
3.16352e-05
-1.09507e-12
3.16352e-05
-6.91312e-12
3.16352e-05
-9.11003e-12
3.16352e-05
-4.96675e-12
3.16352e-05
3.66017e-12
3.16352e-05
1.12074e-11
3.16352e-05
1.35121e-11
3.16352e-05
1.00353e-11
3.16352e-05
3.56616e-12
-2.41573e-12
3.72761e-05
1.17766e-10
3.72761e-05
8.42663e-11
3.72761e-05
4.57884e-11
3.72761e-05
1.0324e-11
3.72761e-05
-1.29249e-11
3.72761e-05
-2.0911e-11
3.72761e-05
-1.70763e-11
3.72761e-05
-7.82523e-12
3.72761e-05
1.28494e-12
3.72761e-05
6.88177e-12
3.72761e-05
8.04594e-12
3.72761e-05
5.6621e-12
3.72761e-05
9.61187e-13
3.72761e-05
-2.6658e-12
3.72761e-05
-4.26119e-12
3.72761e-05
-3.71386e-12
3.72761e-05
-3.26657e-12
3.72761e-05
-4.13948e-12
3.72761e-05
-6.09124e-12
3.72761e-05
-6.75509e-12
3.72761e-05
-3.89369e-12
3.72761e-05
2.44213e-12
3.72761e-05
9.07226e-12
3.72761e-05
1.22564e-11
3.72761e-05
9.72421e-12
3.72761e-05
2.1497e-12
3.72761e-05
-6.94448e-12
3.72761e-05
-1.33491e-11
3.72761e-05
-1.42651e-11
3.72761e-05
-9.31314e-12
3.72761e-05
-5.40511e-13
3.72761e-05
7.90144e-12
3.72761e-05
1.24631e-11
3.72761e-05
1.09974e-11
3.72761e-05
5.2555e-12
3.72761e-05
-2.15179e-12
3.72761e-05
-5.82508e-12
3.72761e-05
-4.94983e-12
3.72761e-05
-1.34252e-12
3.72761e-05
3.98581e-13
3.72761e-05
-1.52609e-12
3.72761e-05
-5.545e-12
3.72761e-05
-7.70732e-12
3.72761e-05
-4.93981e-12
3.72761e-05
2.15282e-12
3.72761e-05
9.59995e-12
3.72761e-05
1.29357e-11
3.72761e-05
1.02442e-11
3.72761e-05
3.63116e-12
-1.78466e-12
3.16353e-05
6.5402e-11
3.16353e-05
4.48162e-11
3.16353e-05
2.35704e-11
3.16353e-05
5.02268e-12
3.16353e-05
-7.16383e-12
3.16353e-05
-1.06099e-11
3.16353e-05
-7.75869e-12
3.16353e-05
-2.91643e-12
3.16353e-05
4.47078e-13
3.16353e-05
1.18973e-12
3.16353e-05
9.4875e-13
3.16353e-05
6.46853e-13
3.16353e-05
1.03937e-12
3.16353e-05
7.02996e-13
3.16353e-05
-4.59316e-13
3.16353e-05
-2.26091e-12
3.16353e-05
-3.84902e-12
3.16353e-05
-4.02508e-12
3.16353e-05
-3.03457e-12
3.16352e-05
-1.7405e-12
3.16352e-05
-2.85012e-14
3.16352e-05
2.32812e-12
3.16352e-05
3.81908e-12
3.16352e-05
4.22526e-12
3.16353e-05
2.88449e-12
3.16352e-05
-2.38073e-13
3.16352e-05
-3.04454e-12
3.16352e-05
-4.78097e-12
3.16352e-05
-4.5929e-12
3.16352e-05
-2.79811e-12
3.16352e-05
-2.71535e-13
3.16352e-05
1.92045e-12
3.16352e-05
3.24056e-12
3.16352e-05
3.3129e-12
3.16352e-05
2.37274e-12
3.16352e-05
3.26012e-13
3.16352e-05
-1.40365e-12
3.16352e-05
-2.10003e-12
3.16352e-05
-1.9029e-12
3.16352e-05
-1.38942e-12
3.16352e-05
-1.44336e-12
3.16352e-05
-1.99425e-12
3.16352e-05
-2.49687e-12
3.16352e-05
-1.71439e-12
3.16352e-05
6.7158e-13
3.16352e-05
3.5513e-12
3.16352e-05
5.15474e-12
3.16353e-05
4.00009e-12
3.16353e-05
7.29458e-13
-1.23711e-12
1.45282e-05
1.45282e-05
1.45283e-05
1.45283e-05
1.45283e-05
1.45282e-05
1.45282e-05
1.45282e-05
1.45282e-05
1.45282e-05
1.45282e-05
1.45282e-05
1.45282e-05
1.45282e-05
1.45282e-05
1.45282e-05
1.45282e-05
1.45282e-05
1.45282e-05
1.45282e-05
1.45282e-05
1.45282e-05
1.45282e-05
1.45282e-05
1.45282e-05
1.45282e-05
1.45282e-05
1.45282e-05
1.45282e-05
1.45282e-05
1.45282e-05
1.45282e-05
1.45282e-05
1.45282e-05
1.45282e-05
1.45282e-05
1.45282e-05
1.45282e-05
1.45282e-05
1.45282e-05
1.45282e-05
1.45282e-05
1.45282e-05
1.45282e-05
1.45282e-05
1.45282e-05
1.45282e-05
1.45282e-05
1.45282e-05
)
;

boundaryField
{
    inlet
    {
        type            calculated;
        value           nonuniform List<scalar> 5(-1.45283e-05 -3.16354e-05 -3.72761e-05 -3.16352e-05 -1.45281e-05);
    }
    outlet
    {
        type            calculated;
        value           nonuniform List<scalar> 5(1.45282e-05 3.16352e-05 3.72761e-05 3.16352e-05 1.45282e-05);
    }
    walls
    {
        type            calculated;
        value           uniform 0;
    }
    frontAndBack
    {
        type            empty;
    }
}


// ************************************************************************* //
