/*--------------------------------*- C++ -*----------------------------------*\
| =========                 |                                                 |
| \\      /  F ield         | OpenFOAM: The Open Source CFD Toolbox           |
|  \\    /   O peration     | Version:  2406                                  |
|   \\  /    A nd           | Website:  www.openfoam.com                      |
|    \\/     M anipulation  |                                                 |
\*---------------------------------------------------------------------------*/
FoamFile
{
    version     2.0;
    format      ascii;
    arch        "LSB;label=32;scalar=64";
    class       volVectorField;
    location    "0.3";
    object      U;
}
// * * * * * * * * * * * * * * * * * * * * * * * * * * * * * * * * * * * * * //

dimensions      [0 1 -1 0 0 0 0];

internalField   nonuniform List<vector> 
250
(
(0.0726415 1.47538e-07 0)
(0.0726413 7.75657e-08 0)
(0.0726411 2.33215e-08 0)
(0.0726411 -6.59184e-09 0)
(0.0726411 -2.17832e-08 0)
(0.0726412 -2.66583e-08 0)
(0.0726412 -2.01208e-08 0)
(0.0726412 -3.69765e-09 0)
(0.0726412 1.34785e-08 0)
(0.0726412 2.28298e-08 0)
(0.0726411 1.70211e-08 0)
(0.0726411 5.76604e-10 0)
(0.0726411 -1.13748e-08 0)
(0.0726411 -1.01834e-08 0)
(0.0726411 1.46314e-09 0)
(0.0726411 1.16125e-08 0)
(0.0726411 9.78111e-09 0)
(0.0726411 -2.80888e-09 0)
(0.0726411 -1.50799e-08 0)
(0.0726411 -1.79885e-08 0)
(0.0726411 -8.95438e-09 0)
(0.0726411 6.54927e-09 0)
(0.072641 1.92116e-08 0)
(0.072641 2.23565e-08 0)
(0.072641 1.36819e-08 0)
(0.0726409 -2.04399e-09 0)
(0.072641 -1.74565e-08 0)
(0.072641 -2.56631e-08 0)
(0.072641 -2.15745e-08 0)
(0.072641 -6.68576e-09 0)
(0.072641 9.6853e-09 0)
(0.072641 2.047e-08 0)
(0.072641 1.88315e-08 0)
(0.0726409 5.35046e-09 0)
(0.0726409 -8.11608e-09 0)
(0.0726409 -1.25255e-08 0)
(0.0726409 -6.44594e-09 0)
(0.0726409 4.62169e-09 0)
(0.0726409 1.05659e-08 0)
(0.0726409 6.77526e-09 0)
(0.072641 -3.77624e-09 0)
(0.072641 -1.27558e-08 0)
(0.072641 -1.28159e-08 0)
(0.072641 -3.19183e-09 0)
(0.072641 8.01315e-09 0)
(0.072641 1.44635e-08 0)
(0.072641 1.27197e-08 0)
(0.072641 7.34819e-09 0)
(0.0726409 2.61009e-09 0)
(0.072641 -6.05703e-09 0)
(0.158177 4.66619e-07 0)
(0.158177 3.0215e-07 0)
(0.158177 1.41204e-07 0)
(0.158176 1.80783e-08 0)
(0.158176 -5.84331e-08 0)
(0.158176 -8.71187e-08 0)
(0.158177 -7.2807e-08 0)
(0.158177 -2.91383e-08 0)
(0.158177 2.04687e-08 0)
(0.158176 5.23062e-08 0)
(0.158176 4.96811e-08 0)
(0.158176 1.81427e-08 0)
(0.158176 -1.47921e-08 0)
(0.158176 -2.51667e-08 0)
(0.158176 -1.10878e-08 0)
(0.158176 8.47819e-09 0)
(0.158176 1.04496e-08 0)
(0.158176 -1.06246e-08 0)
(0.158176 -3.77653e-08 0)
(0.158176 -4.7794e-08 0)
(0.158176 -2.85227e-08 0)
(0.158176 1.10678e-08 0)
(0.158176 4.90843e-08 0)
(0.158176 6.42524e-08 0)
(0.158176 4.67435e-08 0)
(0.158176 4.5939e-09 0)
(0.158176 -4.17467e-08 0)
(0.158176 -7.19386e-08 0)
(0.158176 -7.03853e-08 0)
(0.158176 -3.64389e-08 0)
(0.158176 1.222e-08 0)
(0.158176 5.2389e-08 0)
(0.158176 6.30914e-08 0)
(0.158176 3.96065e-08 0)
(0.158176 1.5631e-09 0)
(0.158176 -2.54221e-08 0)
(0.158176 -2.59988e-08 0)
(0.158176 -5.38486e-09 0)
(0.158176 1.4407e-08 0)
(0.158176 1.41058e-08 0)
(0.158176 -7.1837e-09 0)
(0.158176 -3.22261e-08 0)
(0.158176 -3.8625e-08 0)
(0.158176 -1.74296e-08 0)
(0.158176 1.78188e-08 0)
(0.158176 4.58606e-08 0)
(0.158176 5.10584e-08 0)
(0.158176 3.61348e-08 0)
(0.158176 1.29627e-08 0)
(0.158176 -1.33451e-08 0)
(0.186381 6.55831e-07 0)
(0.186381 4.68324e-07 0)
(0.186381 2.53866e-07 0)
(0.186381 6.02445e-08 0)
(0.186381 -6.91791e-08 0)
(0.186381 -1.18323e-07 0)
(0.186381 -1.0121e-07 0)
(0.186381 -4.75131e-08 0)
(0.186381 1.15833e-08 0)
(0.186381 5.00369e-08 0)
(0.186381 5.54231e-08 0)
(0.186381 3.18971e-08 0)
(0.186381 -1.21953e-09 0)
(0.186381 -2.22202e-08 0)
(0.186381 -2.23438e-08 0)
(0.186381 -1.16725e-08 0)
(0.186381 -8.21304e-09 0)
(0.18638 -2.1297e-08 0)
(0.18638 -4.22715e-08 0)
(0.18638 -5.04147e-08 0)
(0.18638 -3.05593e-08 0)
(0.18638 1.25665e-08 0)
(0.18638 5.70462e-08 0)
(0.18638 7.76592e-08 0)
(0.18638 6.0887e-08 0)
(0.18638 1.23518e-08 0)
(0.18638 -4.49305e-08 0)
(0.18638 -8.51804e-08 0)
(0.18638 -8.99021e-08 0)
(0.18638 -5.61424e-08 0)
(0.18638 1.35657e-09 0)
(0.18638 5.51035e-08 0)
(0.18638 7.96968e-08 0)
(0.18638 6.50651e-08 0)
(0.18638 2.25904e-08 0)
(0.18638 -1.89354e-08 0)
(0.18638 -3.509e-08 0)
(0.18638 -2.2422e-08 0)
(0.18638 1.81325e-10 0)
(0.18638 7.80586e-09 0)
(0.18638 -9.01106e-09 0)
(0.18638 -3.62536e-08 0)
(0.18638 -4.79477e-08 0)
(0.18638 -2.80082e-08 0)
(0.18638 1.63041e-08 0)
(0.18638 5.88777e-08 0)
(0.18638 7.53347e-08 0)
(0.18638 5.85485e-08 0)
(0.18638 2.17702e-08 0)
(0.18638 -1.07383e-08 0)
(0.158176 5.18588e-07 0)
(0.158176 3.64784e-07 0)
(0.158177 1.95579e-07 0)
(0.158177 4.42746e-08 0)
(0.158177 -5.34643e-08 0)
(0.158177 -8.61232e-08 0)
(0.158177 -6.84435e-08 0)
(0.158176 -2.93669e-08 0)
(0.158176 4.93106e-09 0)
(0.158176 2.18753e-08 0)
(0.158176 2.27698e-08 0)
(0.158176 1.52242e-08 0)
(0.158176 4.30492e-09 0)
(0.158176 -6.02699e-09 0)
(0.158176 -1.25848e-08 0)
(0.158176 -1.53938e-08 0)
(0.158176 -1.72528e-08 0)
(0.158176 -2.1551e-08 0)
(0.158176 -2.62353e-08 0)
(0.158176 -2.42813e-08 0)
(0.158176 -1.06997e-08 0)
(0.158176 1.26e-08 0)
(0.158176 3.57878e-08 0)
(0.158176 4.52896e-08 0)
(0.158176 3.39092e-08 0)
(0.158176 5.33827e-09 0)
(0.158176 -2.84021e-08 0)
(0.158176 -5.06418e-08 0)
(0.158176 -5.19618e-08 0)
(0.158176 -3.29309e-08 0)
(0.158176 -2.17126e-09 0)
(0.158176 2.69709e-08 0)
(0.158176 4.23194e-08 0)
(0.158176 3.8343e-08 0)
(0.158176 1.80863e-08 0)
(0.158176 -5.26392e-09 0)
(0.158176 -1.92207e-08 0)
(0.158176 -1.8291e-08 0)
(0.158176 -8.48552e-09 0)
(0.158176 -2.33977e-09 0)
(0.158176 -8.15148e-09 0)
(0.158176 -2.1178e-08 0)
(0.158176 -2.78405e-08 0)
(0.158176 -1.7561e-08 0)
(0.158176 8.51943e-09 0)
(0.158176 3.68596e-08 0)
(0.158176 5.04566e-08 0)
(0.158176 3.99631e-08 0)
(0.158176 1.27135e-08 0)
(0.158176 -6.21716e-09 0)
(0.0726408 1.79265e-07 0)
(0.0726411 1.17807e-07 0)
(0.0726413 5.76397e-08 0)
(0.0726413 8.10821e-09 0)
(0.0726413 -2.09581e-08 0)
(0.0726413 -2.79987e-08 0)
(0.0726412 -1.93265e-08 0)
(0.0726412 -6.40089e-09 0)
(0.0726411 1.08848e-09 0)
(0.0726412 1.36327e-09 0)
(0.0726412 -7.45089e-10 0)
(0.0726412 2.36337e-11 0)
(0.0726411 1.96367e-09 0)
(0.0726411 2.10761e-09 0)
(0.0726411 -1.46699e-09 0)
(0.0726411 -6.01265e-09 0)
(0.0726411 -8.57711e-09 0)
(0.0726411 -9.01693e-09 0)
(0.072641 -7.50445e-09 0)
(0.072641 -3.80204e-09 0)
(0.072641 8.5032e-10 0)
(0.072641 5.32383e-09 0)
(0.072641 9.06947e-09 0)
(0.072641 9.40656e-09 0)
(0.072641 5.50927e-09 0)
(0.0726411 -1.01643e-09 0)
(0.072641 -8.19786e-09 0)
(0.072641 -1.16803e-08 0)
(0.0726409 -1.03082e-08 0)
(0.0726409 -5.76368e-09 0)
(0.0726409 -4.26398e-10 0)
(0.0726409 3.79694e-09 0)
(0.072641 6.23735e-09 0)
(0.072641 6.66639e-09 0)
(0.072641 4.70993e-09 0)
(0.072641 1.0095e-09 0)
(0.072641 -2.94651e-09 0)
(0.072641 -5.20227e-09 0)
(0.072641 -4.63675e-09 0)
(0.072641 -3.12736e-09 0)
(0.072641 -3.00664e-09 0)
(0.072641 -4.58264e-09 0)
(0.0726409 -5.53081e-09 0)
(0.0726409 -3.54045e-09 0)
(0.0726409 2.05259e-09 0)
(0.072641 9.04582e-09 0)
(0.072641 1.28778e-08 0)
(0.072641 9.64697e-09 0)
(0.072641 9.51649e-10 0)
(0.072641 -2.9148e-09 0)
)
;

boundaryField
{
    inlet
    {
        type            zeroGradient;
    }
    outlet
    {
        type            zeroGradient;
    }
    walls
    {
        type            noSlip;
    }
    frontAndBack
    {
        type            empty;
    }
}


// ************************************************************************* //
