/*--------------------------------*- C++ -*----------------------------------*\
| =========                 |                                                 |
| \\      /  F ield         | OpenFOAM: The Open Source CFD Toolbox           |
|  \\    /   O peration     | Version:  2406                                  |
|   \\  /    A nd           | Website:  www.openfoam.com                      |
|    \\/     M anipulation  |                                                 |
\*---------------------------------------------------------------------------*/
FoamFile
{
    version     2.0;
    format      ascii;
    arch        "LSB;label=32;scalar=64";
    class       surfaceScalarField;
    location    "529";
    object      phi;
}
// * * * * * * * * * * * * * * * * * * * * * * * * * * * * * * * * * * * * * //

dimensions      [0 3 -1 0 0 0 0];

oriented        oriented;

internalField   nonuniform List<scalar> 
7780
(
8.7471462e-07
-3.9573346e-10
8.7506826e-07
-3.5363706e-10
8.7531244e-07
-2.4416554e-10
8.7548115e-07
-1.687003e-10
8.7559753e-07
-1.1637824e-10
8.7567734e-07
-7.9809946e-11
8.7573175e-07
-5.4409174e-11
8.7576859e-07
-3.6843146e-11
8.757933e-07
-2.4711227e-11
8.7580965e-07
-1.6358711e-11
8.7582029e-07
-1.0644411e-11
8.7582706e-07
-6.7722463e-12
8.7583124e-07
-4.1817607e-12
8.7583372e-07
-2.4772882e-12
8.7583509e-07
-1.3792705e-12
8.7583578e-07
-6.911558e-13
8.7583606e-07
-2.7561546e-13
8.7583609e-07
-3.7758868e-14
8.75836e-07
8.7334643e-14
8.7583586e-07
1.432929e-13
8.758357e-07
1.5865284e-13
8.7583555e-07
1.5178443e-13
8.7583542e-07
1.3415454e-13
8.758353e-07
1.1269186e-13
8.7583521e-07
9.1244068e-14
8.7583514e-07
7.1836903e-14
8.7583509e-07
5.5251815e-14
8.7583505e-07
4.1693343e-14
8.7583502e-07
3.0913261e-14
8.75835e-07
2.2599146e-14
8.7583498e-07
1.6285045e-14
8.7583497e-07
1.162444e-14
8.7583496e-07
8.2051937e-15
8.7583496e-07
5.7823867e-15
8.7583495e-07
4.0547385e-15
8.7583495e-07
2.8866549e-15
8.7583495e-07
2.0718421e-15
8.7583495e-07
1.5568563e-15
8.7583495e-07
1.2004482e-15
8.7583495e-07
1.0014e-15
8.7583495e-07
8.5792569e-16
8.7583495e-07
7.99031e-16
8.7583495e-07
7.4498476e-16
8.7583495e-07
7.4077336e-16
8.7583495e-07
7.1854533e-16
8.7583495e-07
7.3104415e-16
8.7583495e-07
7.1611554e-16
8.7583495e-07
7.2998475e-16
8.7583495e-07
7.1347768e-16
8.7583495e-07
7.238196e-16
8.7583495e-07
7.0350895e-16
8.7583495e-07
7.0952176e-16
8.7583495e-07
6.8553111e-16
8.7583495e-07
6.8799448e-16
8.7583495e-07
6.6123373e-16
8.7583495e-07
6.610925e-16
8.7583495e-07
6.324761e-16
8.7583495e-07
6.3029979e-16
8.7583495e-07
6.0067854e-16
8.7583495e-07
5.9716905e-16
8.7583495e-07
5.6674857e-16
8.7583496e-07
5.6227262e-16
8.7583496e-07
5.3164569e-16
8.7583496e-07
5.2646499e-16
8.7583496e-07
4.9554767e-16
8.7583496e-07
4.8997675e-16
8.7583496e-07
4.5925414e-16
8.7583496e-07
4.5343026e-16
8.7583496e-07
4.2299731e-16
8.7583496e-07
4.1717069e-16
8.7583496e-07
3.8750171e-16
8.7583496e-07
3.8182148e-16
8.7583496e-07
3.5280974e-16
8.7583496e-07
3.4757952e-16
8.7583496e-07
3.1949167e-16
8.7583496e-07
3.1509921e-16
8.7583496e-07
2.8826829e-16
8.7583496e-07
2.8458767e-16
8.7583496e-07
2.5907621e-16
8.7583496e-07
2.5630028e-16
8.7583496e-07
2.3200287e-16
8.7583496e-07
2.3024362e-16
8.7583496e-07
2.0740662e-16
8.7583496e-07
2.0673015e-16
8.7583496e-07
1.8508404e-16
8.7583496e-07
1.8511193e-16
8.7583496e-07
1.6436757e-16
8.7583496e-07
1.652319e-16
8.7583496e-07
1.4533466e-16
8.7583496e-07
1.4665643e-16
8.7583496e-07
1.2704274e-16
8.7583496e-07
1.2877573e-16
8.7583496e-07
1.0986261e-16
8.7583496e-07
1.1157459e-16
8.7583496e-07
9.2637691e-17
8.7583496e-07
9.4316103e-17
8.7583496e-07
7.5308967e-17
8.7583496e-07
7.6735383e-17
8.7583496e-07
5.7726481e-17
8.7583496e-07
5.9177536e-17
8.7583496e-07
3.9841533e-17
8.7583496e-07
4.1142138e-17
8.7583496e-07
2.1570343e-17
8.7583496e-07
2.2526115e-17
8.7583496e-07
2.8100259e-18
8.7583496e-07
3.709421e-18
8.7583496e-07
-1.6564084e-17
8.7583496e-07
-1.5802975e-17
8.7583496e-07
-3.6428393e-17
8.7583496e-07
-3.6271276e-17
8.7583496e-07
-5.747438e-17
8.7583496e-07
-5.7737887e-17
8.7583496e-07
-7.9781828e-17
8.7583496e-07
-8.0582233e-17
8.7583496e-07
-1.0383471e-16
8.7583496e-07
-1.0562201e-16
8.7583496e-07
-1.2990881e-16
8.7583496e-07
-1.3242219e-16
8.7583496e-07
-1.5809994e-16
8.7583496e-07
-1.6155655e-16
8.7583496e-07
-1.8842482e-16
8.7583496e-07
-1.926957e-16
8.7583496e-07
-2.2076577e-16
8.7583496e-07
-2.2577174e-16
8.7583496e-07
-2.5503118e-16
8.7583496e-07
-2.6046974e-16
8.7583496e-07
-2.9068985e-16
8.7583496e-07
-2.9654584e-16
8.7583496e-07
-3.2782798e-16
8.7583496e-07
-3.3395992e-16
8.7583496e-07
-3.6583836e-16
8.7583496e-07
-3.7205797e-16
8.7583496e-07
-4.0481473e-16
8.7583496e-07
-4.1133608e-16
8.7583496e-07
-4.447494e-16
8.7583496e-07
-4.5145894e-16
8.7583496e-07
-4.8558639e-16
8.7583496e-07
-4.9246898e-16
8.7583496e-07
-5.2753073e-16
8.7583496e-07
-5.3463442e-16
8.7583496e-07
-5.706253e-16
8.7583496e-07
-5.7786821e-16
8.7583495e-07
-6.145958e-16
8.7583495e-07
-6.2198608e-16
8.7583495e-07
-6.5935661e-16
8.7583495e-07
-6.666771e-16
8.7583495e-07
-7.0425203e-16
8.7583495e-07
-7.1131486e-16
8.7583495e-07
-7.4872578e-16
8.7583495e-07
-7.5468103e-16
8.7583495e-07
-7.914342e-16
8.7583495e-07
-7.9583652e-16
8.7583495e-07
-8.3127444e-16
8.7583495e-07
-8.3352833e-16
8.7583495e-07
-8.6733124e-16
8.7583495e-07
-8.6826748e-16
8.7583495e-07
-9.02649e-16
8.7583495e-07
-9.0583629e-16
8.7583495e-07
-9.4775691e-16
8.7583495e-07
-9.6642929e-16
8.7583495e-07
-1.03629e-15
8.7583495e-07
-1.1035032e-15
8.7583495e-07
-1.2524072e-15
8.7583495e-07
-1.4447518e-15
8.7583495e-07
-1.7847873e-15
8.7583495e-07
-2.2641082e-15
8.7583496e-07
-3.0233735e-15
8.7583496e-07
-4.1061568e-15
8.7583496e-07
-5.7126021e-15
8.7583497e-07
-7.9646504e-15
8.7583498e-07
-1.1145065e-14
8.7583499e-07
-1.5469372e-14
8.7583501e-07
-2.1292384e-14
8.7583504e-07
-2.8869092e-14
8.7583508e-07
-3.8488416e-14
8.7583513e-07
-5.0164141e-14
8.7583519e-07
-6.3604219e-14
8.7583527e-07
-7.7690757e-14
8.7583536e-07
-9.006454e-14
8.7583545e-07
-9.6109229e-14
8.7583554e-07
-8.770202e-14
8.7583559e-07
-5.1125233e-14
8.7583555e-07
3.6101649e-14
8.7583534e-07
2.097121e-13
8.7583482e-07
5.2545399e-13
8.7583376e-07
1.0680329e-12
8.758318e-07
1.9655297e-12
8.7582839e-07
3.407931e-12
8.7582272e-07
5.6761186e-12
8.7581355e-07
9.1801746e-12
8.7579903e-07
1.4518725e-11
8.7577648e-07
2.2561338e-11
8.7574191e-07
3.4575415e-11
8.756895e-07
5.2414128e-11
8.7561072e-07
7.8770554e-11
8.7549332e-07
1.1738533e-10
8.7532004e-07
1.7326469e-10
8.7506613e-07
2.5390445e-10
8.7469478e-07
3.7135242e-10
4.178579e-10
2.4365731e-06
-8.4940898e-10
2.4370408e-06
-8.2130374e-10
2.4374381e-06
-6.4147169e-10
2.4377473e-06
-4.7794626e-10
2.4379802e-06
-3.4920023e-10
2.4381513e-06
-2.5099263e-10
2.4382748e-06
-1.7790817e-10
2.4383625e-06
-1.2452748e-10
2.4384238e-06
-8.6034285e-11
2.4384661e-06
-5.858329e-11
2.4384946e-06
-3.9230346e-11
2.4385136e-06
-2.5756145e-11
2.4385259e-06
-1.6505642e-11
2.4385337e-06
-1.0256104e-11
2.4385384e-06
-6.1127772e-12
2.4385412e-06
-3.4274057e-12
2.4385426e-06
-1.7355868e-12
2.4385433e-06
-7.0871344e-13
2.4385435e-06
-1.1745616e-13
2.4385435e-06
1.9610184e-13
2.4385433e-06
3.3861444e-13
2.4385431e-06
3.8020768e-13
2.4385428e-06
3.6621362e-13
2.4385426e-06
3.250272e-13
2.4385424e-06
2.7377597e-13
2.4385423e-06
2.2211827e-13
2.4385422e-06
1.7509131e-13
2.4385421e-06
1.3478978e-13
2.438542e-06
1.0171722e-13
2.4385419e-06
7.5401269e-14
2.4385419e-06
5.5029826e-14
2.4385419e-06
3.9573175e-14
2.4385419e-06
2.8107215e-14
2.4385419e-06
1.9724744e-14
2.4385418e-06
1.3736168e-14
2.4385418e-06
9.5016134e-15
2.4385418e-06
6.5935382e-15
2.4385418e-06
4.604346e-15
2.4385418e-06
3.304114e-15
2.4385418e-06
2.4458445e-15
2.4385418e-06
1.9261346e-15
2.4385418e-06
1.5953224e-15
2.4385418e-06
1.4235731e-15
2.4385418e-06
1.3159989e-15
2.4385418e-06
1.28192e-15
2.4385418e-06
1.2549656e-15
2.4385418e-06
1.2641247e-15
2.4385418e-06
1.2573953e-15
2.4385418e-06
1.2722355e-15
2.4385418e-06
1.2629381e-15
2.4385418e-06
1.2706924e-15
2.4385418e-06
1.2530546e-15
2.4385418e-06
1.2520343e-15
2.4385418e-06
1.226038e-15
2.4385418e-06
1.2174109e-15
2.4385418e-06
1.1853371e-15
2.4385418e-06
1.1711956e-15
2.4385418e-06
1.1349134e-15
2.4385418e-06
1.1169064e-15
2.4385418e-06
1.0778652e-15
2.4385418e-06
1.0573489e-15
2.4385418e-06
1.0164394e-15
2.4385418e-06
9.942042e-16
2.4385418e-06
9.524507e-16
2.4385418e-06
9.2933917e-16
2.4385418e-06
8.8704769e-16
2.4385418e-06
8.6323373e-16
2.4385418e-06
8.2109226e-16
2.4385418e-06
7.9736458e-16
2.4385418e-06
7.5562764e-16
2.4385418e-06
7.3197812e-16
2.4385418e-06
6.9107224e-16
2.4385418e-06
6.6856288e-16
2.4385418e-06
6.2895835e-16
2.4385418e-06
6.0737869e-16
2.4385418e-06
5.6939561e-16
2.4385418e-06
5.4967434e-16
2.4385418e-06
5.1370451e-16
2.4385418e-06
4.9549871e-16
2.4385418e-06
4.6178479e-16
2.4385418e-06
4.457393e-16
2.4385418e-06
4.1431691e-16
2.4385418e-06
4.0005925e-16
2.4385418e-06
3.7072253e-16
2.4385418e-06
3.5822028e-16
2.4385418e-06
3.3066932e-16
2.4385418e-06
3.1987671e-16
2.4385418e-06
2.9390522e-16
2.4385418e-06
2.8417323e-16
2.4385418e-06
2.591243e-16
2.4385418e-06
2.5040712e-16
2.4385418e-06
2.2621266e-16
2.4385418e-06
2.1769917e-16
2.4385418e-06
1.9378754e-16
2.4385418e-06
1.8550755e-16
2.4385418e-06
1.6160889e-16
2.4385418e-06
1.5324244e-16
2.4385418e-06
1.2905026e-16
2.4385418e-06
1.2032609e-16
2.4385418e-06
9.6014339e-17
2.4385418e-06
8.6992696e-17
2.4385418e-06
6.2195021e-17
2.4385418e-06
5.2806052e-17
2.4385418e-06
2.7494265e-17
2.4385418e-06
1.7727233e-17
2.4385418e-06
-8.2193635e-18
2.4385418e-06
-1.845008e-17
2.4385418e-06
-4.493713e-17
2.4385418e-06
-5.5916239e-17
2.4385418e-06
-8.3364696e-17
2.4385418e-06
-9.5112972e-17
2.4385418e-06
-1.2367375e-16
2.4385418e-06
-1.3658433e-16
2.4385418e-06
-1.6672515e-16
2.4385418e-06
-1.8108937e-16
2.4385418e-06
-2.1293307e-16
2.4385418e-06
-2.2898619e-16
2.4385418e-06
-2.6302443e-16
2.4385418e-06
-2.8063784e-16
2.4385418e-06
-3.1681323e-16
2.4385418e-06
-3.3628259e-16
2.4385418e-06
-3.7448107e-16
2.4385418e-06
-3.955906e-16
2.4385418e-06
-4.3560568e-16
2.4385418e-06
-4.5823106e-16
2.4385418e-06
-5.00031e-16
2.4385418e-06
-5.2391414e-16
2.4385418e-06
-5.6708164e-16
2.4385418e-06
-5.9145231e-16
2.4385418e-06
-6.3583044e-16
2.4385418e-06
-6.6105447e-16
2.4385418e-06
-7.0641655e-16
2.4385418e-06
-7.3228939e-16
2.4385418e-06
-7.7853594e-16
2.4385418e-06
-8.0501766e-16
2.4385418e-06
-8.5224694e-16
2.4385418e-06
-8.7910469e-16
2.4385418e-06
-9.2742936e-16
2.4385418e-06
-9.5497964e-16
2.4385418e-06
-1.0041641e-15
2.4385418e-06
-1.0321291e-15
2.4385418e-06
-1.0822414e-15
2.4385418e-06
-1.1104052e-15
2.4385418e-06
-1.1610225e-15
2.4385418e-06
-1.1891612e-15
2.4385418e-06
-1.2397504e-15
2.4385418e-06
-1.2671822e-15
2.4385418e-06
-1.3168392e-15
2.4385418e-06
-1.3425838e-15
2.4385418e-06
-1.3903928e-15
2.4385418e-06
-1.4132793e-15
2.4385418e-06
-1.4586493e-15
2.4385418e-06
-1.4783765e-15
2.4385418e-06
-1.5215397e-15
2.4385418e-06
-1.5409437e-15
2.4385418e-06
-1.5878512e-15
2.4385418e-06
-1.6177701e-15
2.4385418e-06
-1.6878714e-15
2.4385418e-06
-1.7608503e-15
2.4385418e-06
-1.9061837e-15
2.4385418e-06
-2.103664e-15
2.4385418e-06
-2.447406e-15
2.4385418e-06
-2.9531323e-15
2.4385418e-06
-3.7628982e-15
2.4385418e-06
-4.960041e-15
2.4385418e-06
-6.7733097e-15
2.4385418e-06
-9.4015112e-15
2.4385418e-06
-1.3214195e-14
2.4385419e-06
-1.8583553e-14
2.4385419e-06
-2.6068053e-14
2.4385419e-06
-3.6236428e-14
2.4385419e-06
-4.9799017e-14
2.438542e-06
-6.7370015e-14
2.438542e-06
-8.9453406e-14
2.4385421e-06
-1.1600089e-13
2.4385422e-06
-1.4603003e-13
2.4385423e-06
-1.766444e-13
2.4385424e-06
-2.0177207e-13
2.4385426e-06
-2.0993401e-13
2.4385426e-06
-1.8104803e-13
2.4385426e-06
-8.1590036e-14
2.4385424e-06
1.4288994e-13
2.4385419e-06
5.7842516e-13
2.4385408e-06
1.3577321e-12
2.4385386e-06
2.6812169e-12
2.4385348e-06
4.8477208e-12
2.4385285e-06
8.2953118e-12
2.4385183e-06
1.3658808e-11
2.4385021e-06
2.1844978e-11
2.4384771e-06
3.4135146e-11
2.4384394e-06
5.2316278e-11
2.4383831e-06
7.8850239e-11
2.4383006e-06
1.1707582e-10
2.4381816e-06
1.7142657e-10
2.4380128e-06
2.4753463e-10
2.4377783e-06
3.5183236e-10
2.4374609e-06
4.9063546e-10
2.4370465e-06
6.6832102e-10
2.4365511e-06
8.6674107e-10
9.0187309e-10
3.8137194e-06
-1.1950531e-09
3.8140932e-06
-1.1951469e-09
3.8144506e-06
-9.9879817e-10
3.8147575e-06
-7.8480684e-10
3.8150059e-06
-5.9759221e-10
3.8151991e-06
-4.4425845e-10
3.8153451e-06
-3.2385764e-10
3.8154527e-06
-2.3214339e-10
3.8155304e-06
-1.6377874e-10
3.8155855e-06
-1.1370089e-10
3.8156239e-06
-7.7592244e-11
3.8156501e-06
-5.1951012e-11
3.8156676e-06
-3.4024364e-11
3.815679e-06
-2.1697198e-11
3.8156863e-06
-1.337393e-11
3.8156907e-06
-7.8702091e-12
3.8156933e-06
-4.3201388e-12
3.8156947e-06
-2.1000557e-12
3.8156954e-06
-7.6754858e-13
3.8156956e-06
-1.3746059e-14
3.8156955e-06
3.7376672e-13
3.8156954e-06
5.3783529e-13
3.8156952e-06
5.7200884e-13
3.815695e-06
5.3642102e-13
3.8156948e-06
4.6838309e-13
3.8156946e-06
3.9005173e-13
3.8156945e-06
3.137259e-13
3.8156943e-06
2.4554052e-13
3.8156943e-06
1.8786684e-13
3.8156942e-06
1.4096052e-13
3.8156941e-06
1.0393293e-13
3.8156941e-06
7.5428245e-14
3.8156941e-06
5.393882e-14
3.8156941e-06
3.8058749e-14
3.8156941e-06
2.6524871e-14
3.8156941e-06
1.8305112e-14
3.815694e-06
1.2541174e-14
3.815694e-06
8.584716e-15
3.815694e-06
5.9138731e-15
3.815694e-06
4.1616139e-15
3.815694e-06
3.0335485e-15
3.815694e-06
2.3404927e-15
3.815694e-06
1.9241768e-15
3.815694e-06
1.6975724e-15
3.815694e-06
1.5777775e-15
3.815694e-06
1.5323409e-15
3.815694e-06
1.5169887e-15
3.815694e-06
1.5260346e-15
3.815694e-06
1.5341921e-15
3.8156941e-06
1.5483704e-15
3.8156941e-06
1.5512701e-15
3.8156941e-06
1.5548471e-15
3.8156941e-06
1.5454001e-15
3.8156941e-06
1.536361e-15
3.8156941e-06
1.5151346e-15
3.8156941e-06
1.4956765e-15
3.8156941e-06
1.4659173e-15
3.8156941e-06
1.439147e-15
3.8156941e-06
1.4033766e-15
3.8156941e-06
1.3715527e-15
3.8156941e-06
1.3317946e-15
3.8156941e-06
1.2969226e-15
3.8156941e-06
1.2547504e-15
3.8156941e-06
1.217918e-15
3.8156941e-06
1.1744582e-15
3.8156941e-06
1.136644e-15
3.8156941e-06
1.0925146e-15
3.8156941e-06
1.0539794e-15
3.8156941e-06
1.0097471e-15
3.8156941e-06
9.7156463e-16
3.8156941e-06
9.279334e-16
3.8156941e-06
8.9028381e-16
3.8156941e-06
8.4768989e-16
3.8156941e-06
8.1155758e-16
3.8156941e-06
7.7059451e-16
3.8156941e-06
7.3620182e-16
3.8156941e-06
6.9742463e-16
3.8156941e-06
6.6518349e-16
3.8156941e-06
6.2885459e-16
3.8156941e-06
5.9894021e-16
3.8156941e-06
5.65215e-16
3.8156941e-06
5.380221e-16
3.8156941e-06
5.0703069e-16
3.8156941e-06
4.8234996e-16
3.8156941e-06
4.5363599e-16
3.8156941e-06
4.3111998e-16
3.8156941e-06
4.044323e-16
3.8156941e-06
3.8366934e-16
3.8156941e-06
3.5856908e-16
3.8156941e-06
3.3922193e-16
3.8156941e-06
3.1534739e-16
3.8156941e-06
2.965936e-16
3.8156941e-06
2.7327595e-16
3.8156941e-06
2.5518446e-16
3.8156941e-06
2.3199622e-16
3.8156941e-06
2.1375784e-16
3.8156941e-06
1.9033879e-16
3.8156941e-06
1.7171341e-16
3.8156941e-06
1.48111e-16
3.8156941e-06
1.2894082e-16
3.8156941e-06
1.0485838e-16
3.8156941e-06
8.5432122e-17
3.8156941e-06
6.0525202e-17
3.8156941e-06
4.0520615e-17
3.8156941e-06
1.5298659e-17
3.8156941e-06
-5.4339742e-18
3.8156941e-06
-3.1450871e-17
3.8156941e-06
-5.3089636e-17
3.8156941e-06
-8.0117633e-17
3.8156941e-06
-1.0248813e-16
3.8156941e-06
-1.3064206e-16
3.8156941e-06
-1.5458145e-16
3.8156941e-06
-1.8425154e-16
3.8156941e-06
-2.0983056e-16
3.8156941e-06
-2.4141339e-16
3.8156941e-06
-2.6894193e-16
3.8156941e-06
-3.0289602e-16
3.8156941e-06
-3.3269346e-16
3.8156941e-06
-3.6884135e-16
3.8156941e-06
-4.0097417e-16
3.8156941e-06
-4.3986934e-16
3.8156941e-06
-4.7429295e-16
3.8156941e-06
-5.1536488e-16
3.8156941e-06
-5.5192941e-16
3.8156941e-06
-5.9513415e-16
3.8156941e-06
-6.334048e-16
3.8156941e-06
-6.7829484e-16
3.8156941e-06
-7.1807769e-16
3.8156941e-06
-7.6431106e-16
3.8156941e-06
-8.0507317e-16
3.8156941e-06
-8.5261837e-16
3.8156941e-06
-8.9447461e-16
3.8156941e-06
-9.428371e-16
3.8156941e-06
-9.8540752e-16
3.8156941e-06
-1.0348397e-15
3.8156941e-06
-1.0780299e-15
3.8156941e-06
-1.1282707e-15
3.8156941e-06
-1.1721819e-15
3.8156941e-06
-1.2231104e-15
3.8156941e-06
-1.2675789e-15
3.8156941e-06
-1.3190323e-15
3.8156941e-06
-1.3637925e-15
3.8156941e-06
-1.415335e-15
3.8156941e-06
-1.4598953e-15
3.8156941e-06
-1.5111191e-15
3.8156941e-06
-1.5546655e-15
3.8156941e-06
-1.6043056e-15
3.8156941e-06
-1.6454925e-15
3.8156941e-06
-1.6923872e-15
3.8156941e-06
-1.7303333e-15
3.8156941e-06
-1.7735966e-15
3.8156941e-06
-1.807616e-15
3.8156941e-06
-1.848329e-15
3.815694e-06
-1.8821804e-15
3.815694e-06
-1.9279759e-15
3.815694e-06
-1.976522e-15
3.815694e-06
-2.0535022e-15
3.815694e-06
-2.1601854e-15
3.815694e-06
-2.3378083e-15
3.815694e-06
-2.6105555e-15
3.815694e-06
-3.053213e-15
3.815694e-06
-3.7364352e-15
3.815694e-06
-4.8004932e-15
3.815694e-06
-6.4056579e-15
3.815694e-06
-8.8103815e-15
3.8156941e-06
-1.2329819e-14
3.8156941e-06
-1.7416358e-14
3.8156941e-06
-2.4620465e-14
3.8156941e-06
-3.4661364e-14
3.8156941e-06
-4.8366918e-14
3.8156941e-06
-6.6689893e-14
3.8156942e-06
-9.055589e-14
3.8156942e-06
-1.2070573e-13
3.8156943e-06
-1.5726447e-13
3.8156944e-06
-1.9911775e-13
3.8156945e-06
-2.4275813e-13
3.8156946e-06
-2.8053538e-13
3.8156947e-06
-2.9781521e-13
3.8156947e-06
-2.6871581e-13
3.8156947e-06
-1.4965829e-13
3.8156945e-06
1.302198e-13
3.8156939e-06
6.8331419e-13
3.8156928e-06
1.683234e-12
3.8156908e-06
3.3924566e-12
3.8156873e-06
6.2014392e-12
3.8156815e-06
1.0681381e-11
3.8156721e-06
1.7655123e-11
3.8156575e-06
2.8289427e-11
3.8156351e-06
4.4213021e-11
3.8156016e-06
6.7660626e-11
3.8155523e-06
1.0164e-10
3.815481e-06
1.5010294e-10
3.81538e-06
2.1807676e-10
3.8152398e-06
3.1164688e-10
3.8150498e-06
4.375e-10
3.8148002e-06
6.0143668e-10
3.8144852e-06
8.0559405e-10
3.8141109e-06
1.0426295e-09
3.813711e-06
1.266718e-09
1.275128e-09
5.009586e-06
-1.3964203e-09
5.0098076e-06
-1.4167826e-09
5.0100421e-06
-1.2332669e-09
5.0102633e-06
-1.0059765e-09
5.0104559e-06
-7.9027724e-10
5.0106149e-06
-6.0316181e-10
5.0107406e-06
-4.4964946e-10
5.0108371e-06
-3.2858047e-10
5.0109091e-06
-2.3578767e-10
5.0109616e-06
-1.6625361e-10
5.0109992e-06
-1.1515037e-10
5.0110255e-06
-7.8255184e-11
5.0110435e-06
-5.2071795e-11
5.0110556e-06
-3.3810452e-11
5.0110636e-06
-2.1305613e-11
5.0110686e-06
-1.291326e-11
5.0110717e-06
-7.4091775e-12
5.0110735e-06
-3.897729e-12
5.0110745e-06
-1.7346905e-12
5.0110749e-06
-4.6444216e-13
5.0110751e-06
2.2989025e-13
5.011075e-06
5.6458743e-13
5.0110749e-06
6.8386964e-13
5.0110748e-06
6.8156563e-13
5.0110746e-06
6.1712395e-13
5.0110745e-06
5.2680332e-13
5.0110744e-06
4.316183e-13
5.0110743e-06
3.427878e-13
5.0110742e-06
2.6548743e-13
5.0110741e-06
2.0128731e-13
5.0110741e-06
1.4978783e-13
5.0110741e-06
1.0958924e-13
5.011074e-06
7.8936179e-14
5.011074e-06
5.6026416e-14
5.011074e-06
3.9229742e-14
5.011074e-06
2.7126306e-14
5.011074e-06
1.8565863e-14
5.011074e-06
1.2613891e-14
5.011074e-06
8.5625147e-15
5.011074e-06
5.8568871e-15
5.011074e-06
4.1011244e-15
5.011074e-06
2.988944e-15
5.011074e-06
2.3173298e-15
5.011074e-06
1.9265838e-15
5.011074e-06
1.7221458e-15
5.011074e-06
1.6234843e-15
5.011074e-06
1.5935764e-15
5.011074e-06
1.5923605e-15
5.011074e-06
1.6101597e-15
5.011074e-06
1.6264504e-15
5.011074e-06
1.6441902e-15
5.011074e-06
1.65093e-15
5.011074e-06
1.6546568e-15
5.011074e-06
1.6463366e-15
5.011074e-06
1.6354258e-15
5.011074e-06
1.6137018e-15
5.011074e-06
1.5912648e-15
5.011074e-06
1.5600351e-15
5.011074e-06
1.5295207e-15
5.011074e-06
1.4916729e-15
5.011074e-06
1.4558471e-15
5.011074e-06
1.413868e-15
5.011074e-06
1.3746595e-15
5.011074e-06
1.3301995e-15
5.011074e-06
1.2889103e-15
5.011074e-06
1.2429205e-15
5.011074e-06
1.2006336e-15
5.011074e-06
1.153999e-15
5.011074e-06
1.1112814e-15
5.011074e-06
1.06456e-15
5.011074e-06
1.0223418e-15
5.011074e-06
9.7639909e-16
5.011074e-06
9.3508925e-16
5.011074e-06
8.9045638e-16
5.011074e-06
8.5064474e-16
5.011074e-06
8.0829724e-16
5.011074e-06
7.7062235e-16
5.011074e-06
7.3059171e-16
5.011074e-06
6.9543433e-16
5.011074e-06
6.5808553e-16
5.011074e-06
6.2578457e-16
5.011074e-06
5.9132421e-16
5.011074e-06
5.6168477e-16
5.011074e-06
5.2992733e-16
5.011074e-06
5.0291299e-16
5.011074e-06
4.7356209e-16
5.011074e-06
4.4873237e-16
5.011074e-06
4.2143687e-16
5.011074e-06
3.9822526e-16
5.011074e-06
3.7230547e-16
5.011074e-06
3.5035399e-16
5.011074e-06
3.2545549e-16
5.011074e-06
3.041096e-16
5.011074e-06
2.7943589e-16
5.011074e-06
2.5823117e-16
5.011074e-06
2.3364192e-16
5.011074e-06
2.1216951e-16
5.011074e-06
1.8722778e-16
5.011074e-06
1.6518293e-16
5.011074e-06
1.3970511e-16
5.011074e-06
1.1731814e-16
5.011074e-06
9.1094952e-17
5.011074e-06
6.8365108e-17
5.011074e-06
4.1604488e-17
5.011074e-06
1.7803922e-17
5.011074e-06
-9.6886848e-18
5.011074e-06
-3.40436e-17
5.011074e-06
-6.2400278e-17
5.011074e-06
-8.7797905e-17
5.011074e-06
-1.1730656e-16
5.011074e-06
-1.4389668e-16
5.011074e-06
-1.7478887e-16
5.011074e-06
-2.0312915e-16
5.011074e-06
-2.3607381e-16
5.011074e-06
-2.6631856e-16
5.011074e-06
-3.0134603e-16
5.011074e-06
-3.3368925e-16
5.011074e-06
-3.7106157e-16
5.011074e-06
-4.0615927e-16
5.011074e-06
-4.4631767e-16
5.011074e-06
-4.8374294e-16
5.011074e-06
-5.2635978e-16
5.011074e-06
-5.6624349e-16
5.011074e-06
-6.1110139e-16
5.011074e-06
-6.5311101e-16
5.011074e-06
-7.0008226e-16
5.011074e-06
-7.4382682e-16
5.011074e-06
-7.9260604e-16
5.011074e-06
-8.378252e-16
5.011074e-06
-8.8795059e-16
5.011074e-06
-9.342317e-16
5.011074e-06
-9.8546568e-16
5.011074e-06
-1.0325993e-15
5.011074e-06
-1.0845601e-15
5.011074e-06
-1.1322904e-15
5.011074e-06
-1.1850458e-15
5.011074e-06
-1.2334224e-15
5.011074e-06
-1.28669e-15
5.011074e-06
-1.3355242e-15
5.011074e-06
-1.3889892e-15
5.011074e-06
-1.4377076e-15
5.011074e-06
-1.4912739e-15
5.011074e-06
-1.5396275e-15
5.011074e-06
-1.5925029e-15
5.011074e-06
-1.6395428e-15
5.011074e-06
-1.6906876e-15
5.011074e-06
-1.7351155e-15
5.011074e-06
-1.7829915e-15
5.011074e-06
-1.8236953e-15
5.011074e-06
-1.867194e-15
5.011074e-06
-1.9032673e-15
5.011074e-06
-1.9431848e-15
5.011074e-06
-1.9781803e-15
5.011074e-06
-2.0221356e-15
5.011074e-06
-2.0702753e-15
5.011074e-06
-2.1434577e-15
5.011074e-06
-2.247448e-15
5.011074e-06
-2.4186922e-15
5.011074e-06
-2.6862974e-15
5.011074e-06
-3.1206123e-15
5.011074e-06
-3.7987658e-15
5.011074e-06
-4.858152e-15
5.011074e-06
-6.4684844e-15
5.011074e-06
-8.8912861e-15
5.011074e-06
-1.2459088e-14
5.011074e-06
-1.7640973e-14
5.011074e-06
-2.5024985e-14
5.011074e-06
-3.5376891e-14
5.011074e-06
-4.9605353e-14
5.011074e-06
-6.8772852e-14
5.0110741e-06
-9.3974529e-14
5.0110741e-06
-1.2618411e-13
5.0110742e-06
-1.6586193e-13
5.0110742e-06
-2.1234822e-13
5.0110743e-06
-2.6275769e-13
5.0110743e-06
-3.1025843e-13
5.0110744e-06
-3.4128246e-13
5.0110744e-06
-3.3127513e-13
5.0110744e-06
-2.3823181e-13
5.0110742e-06
6.8124526e-15
5.0110738e-06
5.1421048e-13
5.0110731e-06
1.4556321e-12
5.0110717e-06
3.0919045e-12
5.0110692e-06
5.8124924e-12
5.0110653e-06
1.0188611e-11
5.0110589e-06
1.704412e-11
5.011049e-06
2.7547014e-11
5.011034e-06
4.332449e-11
5.0110116e-06
6.6600168e-11
5.0109789e-06
1.0034732e-10
5.0109321e-06
1.4843702e-10
5.0108665e-06
2.157367e-10
5.0107765e-06
3.0806689e-10
5.0106563e-06
4.3183625e-10
5.0105009e-06
5.929797e-10
5.0103077e-06
7.945632e-10
5.0100805e-06
1.0328126e-09
5.0098332e-06
1.2899248e-09
5.0095924e-06
1.5074708e-09
1.4965821e-09
6.0275115e-06
-1.444928e-09
6.0275709e-06
-1.4761269e-09
6.0276563e-06
-1.3186238e-09
6.0277546e-06
-1.1043295e-09
6.0278525e-06
-8.8813236e-10
6.0279412e-06
-6.9191405e-10
6.0280167e-06
-5.2514011e-10
6.028078e-06
-3.8981001e-10
6.0281258e-06
-2.8365019e-10
6.0281621e-06
-2.0255849e-10
6.0281889e-06
-1.4198854e-10
6.0282083e-06
-9.7641392e-11
6.028222e-06
-6.5772631e-11
6.0282315e-06
-4.3285677e-11
6.0282379e-06
-2.7711876e-11
6.0282421e-06
-1.7138014e-11
6.0282448e-06
-1.0115553e-11
6.0282465e-06
-5.5699486e-12
6.0282475e-06
-2.7189105e-12
6.028248e-06
-1.003079e-12
6.0282483e-06
-2.9698558e-14
6.0282484e-06
4.7231134e-13
6.0282484e-06
6.8606572e-13
6.0282483e-06
7.3204975e-13
6.0282482e-06
6.8768589e-13
6.0282482e-06
6.0110157e-13
6.0282481e-06
5.0090962e-13
6.028248e-06
4.0305878e-13
6.028248e-06
3.1550981e-13
6.028248e-06
2.4139307e-13
6.0282479e-06
1.8106127e-13
6.0282479e-06
1.3341762e-13
6.0282479e-06
9.6715719e-14
6.0282479e-06
6.9045944e-14
6.0282479e-06
4.8584053e-14
6.0282479e-06
3.3728529e-14
6.0282479e-06
2.313125e-14
6.0282479e-06
1.5709213e-14
6.0282479e-06
1.0606083e-14
6.0282479e-06
7.171441e-15
6.0282479e-06
4.9112784e-15
6.0282479e-06
3.4667635e-15
6.0282479e-06
2.5730725e-15
6.0282479e-06
2.0471367e-15
6.0282479e-06
1.7557656e-15
6.0282479e-06
1.6129269e-15
6.0282479e-06
1.5558119e-15
6.0282479e-06
1.5478418e-15
6.0282479e-06
1.5615815e-15
6.0282479e-06
1.5843988e-15
6.0282479e-06
1.6050489e-15
6.0282479e-06
1.6214055e-15
6.0282479e-06
1.6286276e-15
6.0282479e-06
1.6292469e-15
6.0282479e-06
1.6205732e-15
6.0282479e-06
1.6063048e-15
6.0282479e-06
1.584558e-15
6.0282479e-06
1.5592068e-15
6.0282479e-06
1.5284022e-15
6.0282479e-06
1.4954346e-15
6.0282479e-06
1.4583268e-15
6.0282479e-06
1.4204755e-15
6.0282479e-06
1.379526e-15
6.0282479e-06
1.3385727e-15
6.0282479e-06
1.2952764e-15
6.0282479e-06
1.2524815e-15
6.0282479e-06
1.207779e-15
6.0282479e-06
1.1639153e-15
6.0282479e-06
1.1186234e-15
6.0282479e-06
1.0746474e-15
6.0282479e-06
1.0297028e-15
6.0282479e-06
9.8620658e-16
6.0282479e-06
9.4209639e-16
6.0282479e-06
9.000071e-16
6.0282479e-06
8.5757736e-16
6.0282479e-06
8.1710496e-16
6.0282479e-06
7.76911e-16
6.0282479e-06
7.3900069e-16
6.0282479e-06
7.0126319e-16
6.0282479e-06
6.6597208e-16
6.0282479e-06
6.30889e-16
6.0282479e-06
5.9836077e-16
6.0282479e-06
5.6631418e-16
6.0282479e-06
5.365627e-16
6.0282479e-06
5.0691636e-16
6.0282479e-06
4.7974109e-16
6.0282479e-06
4.5242142e-16
6.0282479e-06
4.2689784e-16
6.0282479e-06
4.0127027e-16
6.0282479e-06
3.7735147e-16
6.0282479e-06
3.5304444e-16
6.0282479e-06
3.2997708e-16
6.0282479e-06
3.0609929e-16
6.0282479e-06
2.8338434e-16
6.0282479e-06
2.5983078e-16
6.0282479e-06
2.3692922e-16
6.0282479e-06
2.1318248e-16
6.0282479e-06
1.9000947e-16
6.0282479e-06
1.6574991e-16
6.0282479e-06
1.4206144e-16
6.0282479e-06
1.1712006e-16
6.0282479e-06
9.2868108e-17
6.0282479e-06
6.731995e-17
6.0282479e-06
4.2546435e-17
6.0282479e-06
1.6102516e-17
6.0282479e-06
-9.4839037e-18
6.0282479e-06
-3.6611751e-17
6.0282479e-06
-6.3233064e-17
6.0282479e-06
-9.1214126e-17
6.0282479e-06
-1.1879753e-16
6.0282479e-06
-1.4815224e-16
6.0282479e-06
-1.771704e-16
6.0282479e-06
-2.080846e-16
6.0282479e-06
-2.3875578e-16
6.0282479e-06
-2.715974e-16
6.0282479e-06
-3.0437548e-16
6.0282479e-06
-3.395987e-16
6.0282479e-06
-3.748156e-16
6.0282479e-06
-4.1237876e-16
6.0282479e-06
-4.5019302e-16
6.0282479e-06
-4.9022173e-16
6.0282479e-06
-5.3059954e-16
6.0282479e-06
-5.7305332e-16
6.0282479e-06
-6.1553409e-16
6.0282479e-06
-6.6027114e-16
6.0282479e-06
-7.0492444e-16
6.0282479e-06
-7.5148277e-16
6.0282479e-06
-7.9758624e-16
6.0282479e-06
-8.4566003e-16
6.0282479e-06
-8.930192e-16
6.0282479e-06
-9.4235235e-16
6.0282479e-06
-9.9063633e-16
6.0282479e-06
-1.0407008e-15
6.0282479e-06
-1.0897964e-15
6.0282479e-06
-1.1405186e-15
6.0282479e-06
-1.1900813e-15
6.0282479e-06
-1.2411413e-15
6.0282479e-06
-1.2908798e-15
6.0282479e-06
-1.3421214e-15
6.0282479e-06
-1.391951e-15
6.0282479e-06
-1.442981e-15
6.0282479e-06
-1.4921244e-15
6.0282479e-06
-1.5422692e-15
6.0282479e-06
-1.5900646e-15
6.0282479e-06
-1.6383848e-15
6.0282479e-06
-1.6835871e-15
6.0282479e-06
-1.7288898e-15
6.0282479e-06
-1.7702411e-15
6.0282479e-06
-1.8107278e-15
6.0282479e-06
-1.8473301e-15
6.0282479e-06
-1.8835176e-15
6.0282479e-06
-1.9174112e-15
6.0282479e-06
-1.9546799e-15
6.0282479e-06
-1.9967618e-15
6.0282479e-06
-2.0549608e-15
6.0282479e-06
-2.1394038e-15
6.0282479e-06
-2.2746577e-15
6.0282479e-06
-2.4904147e-15
6.0282479e-06
-2.8399828e-15
6.0282479e-06
-3.3942094e-15
6.0282479e-06
-4.2648338e-15
6.0282479e-06
-5.6033187e-15
6.0282479e-06
-7.6306586e-15
6.0282479e-06
-1.0644209e-14
6.0282479e-06
-1.5052711e-14
6.0282479e-06
-2.1389264e-14
6.0282479e-06
-3.0345358e-14
6.0282479e-06
-4.2771836e-14
6.0282479e-06
-5.9681559e-14
6.0282479e-06
-8.2184373e-14
6.0282479e-06
-1.1136543e-13
6.0282479e-06
-1.4800454e-13
6.028248e-06
-1.9209146e-13
6.028248e-06
-2.4196559e-13
6.028248e-06
-2.929155e-13
6.028248e-06
-3.3491832e-13
6.028248e-06
-3.4912835e-13
6.028248e-06
-3.0250677e-13
6.0282479e-06
-1.3978293e-13
6.0282477e-06
2.2848686e-13
6.0282473e-06
9.4305228e-13
6.0282465e-06
2.2199015e-12
6.0282452e-06
4.3838114e-12
6.0282431e-06
7.9142728e-12
6.0282398e-06
1.3506699e-11
6.0282347e-06
2.2151838e-11
6.028227e-06
3.5235617e-11
6.0282157e-06
5.4658781e-11
6.0281993e-06
8.297085e-11
6.0281762e-06
1.235024e-10
6.0281441e-06
1.8046155e-10
6.028101e-06
2.589283e-10
6.0280444e-06
3.6462801e-10
6.027973e-06
5.0327792e-10
6.0278868e-06
6.7913589e-10
6.0277891e-06
8.9222406e-10
6.0276877e-06
1.134186e-09
6.0275958e-06
1.3818015e-09
6.0275273e-06
1.5759627e-09
1.5545012e-09
6.8705874e-06
-1.3493247e-09
6.8704946e-06
-1.3833212e-09
6.8704328e-06
-1.2568112e-09
6.8704008e-06
-1.0722695e-09
6.8703901e-06
-8.7745489e-10
6.8703926e-06
-6.9442249e-10
6.870402e-06
-5.3448662e-10
6.8704139e-06
-4.0172348e-10
6.8704258e-06
-2.9560231e-10
6.8704365e-06
-2.1325762e-10
6.8704455e-06
-1.5092674e-10
6.8704526e-06
-1.0476021e-10
6.870458e-06
-7.1241287e-11
6.8704621e-06
-4.7365292e-11
6.8704651e-06
-3.0679148e-11
6.8704672e-06
-1.9246758e-11
6.8704686e-06
-1.1580883e-11
6.8704696e-06
-6.5650224e-12
6.8704703e-06
-3.3779915e-12
6.8704707e-06
-1.4272582e-12
6.870471e-06
-2.9318802e-13
6.8704711e-06
3.1600995e-13
6.8704712e-06
5.9926336e-13
6.8704713e-06
6.889857e-13
6.8704713e-06
6.7106307e-13
6.8704713e-06
5.9957358e-13
6.8704713e-06
5.0725166e-13
6.8704713e-06
4.1282883e-13
6.8704713e-06
3.2611376e-13
6.8704713e-06
2.5142014e-13
6.8704713e-06
1.8984544e-13
6.8704712e-06
1.4073019e-13
6.8704712e-06
1.0257996e-13
6.8704712e-06
7.3605329e-14
6.8704712e-06
5.2037843e-14