/*--------------------------------*- C++ -*----------------------------------*\
| =========                 |                                                 |
| \\      /  F ield         | OpenFOAM: The Open Source CFD Toolbox           |
|  \\    /   O peration     | Version:  2406                                  |
|   \\  /    A nd           | Website:  www.openfoam.com                      |
|    \\/     M anipulation  |                                                 |
\*---------------------------------------------------------------------------*/
FoamFile
{
    version     2.0;
    format      ascii;
    arch        "LSB;label=32;scalar=64";
    class       volVectorField;
    location    "529";
    object      U;
}
// * * * * * * * * * * * * * * * * * * * * * * * * * * * * * * * * * * * * * //

dimensions      [0 1 -1 0 0 0 0];

internalField   nonuniform List<vector> 
4000
(
(0.017489794 -3.1642411e-06 0)
(0.01749692 -2.2175909e-06 0)
(0.017504211 -1.2018128e-06 0)
(0.017508235 -7.7617766e-07 0)
(0.017510963 -4.8927578e-07 0)
(0.017512876 -3.0329328e-07 0)
(0.017514185 -1.8862511e-07 0)
(0.01751507 -1.1719229e-07 0)
(0.017515666 -7.2002075e-08 0)
(0.017516063 -4.3323102e-08 0)
(0.017516323 -2.5194468e-08 0)
(0.01751649 -1.3856588e-08 0)
(0.017516595 -6.9001903e-09 0)
(0.017516658 -2.7622473e-09 0)
(0.017516694 -4.1692061e-10 0)
(0.017516713 8.0852711e-10 0)
(0.017516721 1.354179e-09 0)
(0.017516724 1.5040705e-09 0)
(0.017516723 1.4398596e-09 0)
(0.01751672 1.2738639e-09 0)
(0.017516717 1.0709371e-09 0)
(0.017516714 8.6769175e-10 0)
(0.017516711 6.8313491e-10 0)
(0.017516708 5.2571685e-10 0)
(0.017516706 3.9670487e-10 0)
(0.017516705 2.9457692e-10 0)
(0.017516704 2.1546926e-10 0)
(0.017516703 1.5584498e-10 0)
(0.017516702 1.1144503e-10 0)
(0.017516701 7.9321114e-11 0)
(0.017516701 5.6144425e-11 0)
(0.017516701 4.0068548e-11 0)
(0.017516701 2.8773927e-11 0)
(0.017516701 2.1349098e-11 0)
(0.0175167 1.6232533e-11 0)
(0.0175167 1.3148635e-11 0)
(0.0175167 1.1016681e-11 0)
(0.0175167 9.9497937e-12 0)
(0.0175167 9.1424834e-12 0)
(0.0175167 8.9187361e-12 0)
(0.0175167 8.6282178e-12 0)
(0.0175167 8.7025708e-12 0)
(0.0175167 8.5641677e-12 0)
(0.0175167 8.7032509e-12 0)
(0.0175167 8.5771757e-12 0)
(0.0175167 8.691991e-12 0)
(0.0175167 8.528023e-12 0)
(0.0175167 8.5981582e-12 0)
(0.0175167 8.3889015e-12 0)
(0.0175167 8.4148227e-12 0)
(0.0175167 8.1689093e-12 0)
(0.0175167 8.1568959e-12 0)
(0.0175167 7.884589e-12 0)
(0.0175167 7.8463374e-12 0)
(0.0175167 7.5543592e-12 0)
(0.0175167 7.4988639e-12 0)
(0.0175167 7.1950987e-12 0)
(0.0175167 7.1239153e-12 0)
(0.0175167 6.8115399e-12 0)
(0.0175167 6.7291618e-12 0)
(0.0175167 6.413748e-12 0)
(0.0175167 6.3242991e-12 0)
(0.0175167 6.0063767e-12 0)
(0.0175167 5.9120668e-12 0)
(0.0175167 5.5924014e-12 0)
(0.0175167 5.49467e-12 0)
(0.0175167 5.1780708e-12 0)
(0.0175167 5.0796489e-12 0)
(0.0175167 4.764043e-12 0)
(0.0175167 4.6664986e-12 0)
(0.0175167 4.3588378e-12 0)
(0.0175167 4.2631327e-12 0)
(0.0175167 3.9648682e-12 0)
(0.0175167 3.8772645e-12 0)
(0.0175167 3.5876397e-12 0)
(0.0175167 3.5069552e-12 0)
(0.0175167 3.232859e-12 0)
(0.0175167 3.1641321e-12 0)
(0.0175167 2.9051803e-12 0)
(0.0175167 2.8456637e-12 0)
(0.0175167 2.5999453e-12 0)
(0.0175167 2.5556626e-12 0)
(0.0175167 2.3240343e-12 0)
(0.0175167 2.2892839e-12 0)
(0.0175167 2.0714382e-12 0)
(0.0175167 2.0487563e-12 0)
(0.0175167 1.8426545e-12 0)
(0.0175167 1.8277138e-12 0)
(0.0175167 1.630277e-12 0)
(0.0175167 1.619461e-12 0)
(0.0175167 1.4280442e-12 0)
(0.0175167 1.421811e-12 0)
(0.0175167 1.2360232e-12 0)
(0.0175167 1.2290651e-12 0)
(0.0175167 1.0429796e-12 0)
(0.0175167 1.038762e-12 0)
(0.0175167 8.494182e-13 0)
(0.0175167 8.4341196e-13 0)
(0.0175167 6.5592875e-13 0)
(0.0175167 6.4729598e-13 0)
(0.0175167 4.5588212e-13 0)
(0.0175167 4.4720979e-13 0)
(0.0175167 2.5289363e-13 0)
(0.0175167 2.4195101e-13 0)
(0.0175167 4.35184e-14 0)
(0.0175167 3.2044859e-14 0)
(0.0175167 -1.7060706e-13 0)
(0.0175167 -1.8519916e-13 0)
(0.0175167 -3.9337642e-13 0)
(0.0175167 -4.1182099e-13 0)
(0.0175167 -6.2345515e-13 0)
(0.0175167 -6.5224395e-13 0)
(0.0175167 -8.7312505e-13 0)
(0.0175167 -9.0995089e-13 0)
(0.0175167 -1.1424554e-12 0)
(0.0175167 -1.1881912e-12 0)
(0.0175167 -1.4331257e-12 0)
(0.0175167 -1.4910673e-12 0)
(0.0175167 -1.7493082e-12 0)
(0.0175167 -1.8183633e-12 0)
(0.0175167 -2.0914098e-12 0)
(0.0175167 -2.1724409e-12 0)
(0.0175167 -2.4577732e-12 0)
(0.0175167 -2.5430904e-12 0)
(0.0175167 -2.8454935e-12 0)
(0.0175167 -2.9393201e-12 0)
(0.0175167 -3.2477419e-12 0)
(0.0175167 -3.3457227e-12 0)
(0.0175167 -3.6648888e-12 0)
(0.0175167 -3.7681817e-12 0)
(0.0175167 -4.0948632e-12 0)
(0.0175167 -4.2001701e-12 0)
(0.0175167 -4.5356894e-12 0)
(0.0175167 -4.64336e-12 0)
(0.0175167 -4.9870179e-12 0)
(0.0175167 -5.0985534e-12 0)
(0.0175167 -5.44977e-12 0)
(0.0175167 -5.5655486e-12 0)
(0.0175167 -5.9297935e-12 0)
(0.0175167 -6.0469969e-12 0)
(0.0175167 -6.4197542e-12 0)
(0.0175167 -6.5418863e-12 0)
(0.0175167 -6.9282012e-12 0)
(0.0175167 -7.0551191e-12 0)
(0.0175167 -7.4483753e-12 0)
(0.0175167 -7.5795281e-12 0)
(0.0175167 -7.9799125e-12 0)
(0.0175167 -8.1091472e-12 0)
(0.0175167 -8.509691e-12 0)
(0.0175167 -8.6339047e-12 0)
(0.0175167 -9.0343232e-12 0)
(0.0175167 -9.1458725e-12 0)
(0.0175167 -9.5305495e-12 0)
(0.0175167 -9.6215162e-12 0)
(0.0175167 -9.9836876e-12 0)
(0.0175167 -1.0037579e-11 0)
(0.0175167 -1.0359307e-11 0)
(0.0175167 -1.0369357e-11 0)
(0.0175167 -1.0651064e-11 0)
(0.0175167 -1.0621468e-11 0)
(0.0175167 -1.0888636e-11 0)
(0.0175167 -1.0894553e-11 0)
(0.0175167 -1.1272585e-11 0)
(0.0175167 -1.152424e-11 0)
(0.0175167 -1.2363133e-11 0)
(0.0175167 -1.3419519e-11 0)
(0.0175167 -1.5554425e-11 0)
(0.0175167 -1.8660727e-11 0)
(0.017516701 -2.3884357e-11 0)
(0.017516701 -3.1577278e-11 0)
(0.017516701 -4.3406645e-11 0)
(0.017516701 -6.0454983e-11 0)
(0.017516701 -8.5199043e-11 0)
(0.017516702 -1.1975371e-10 0)
(0.017516702 -1.6761932e-10 0)
(0.017516703 -2.3194e-10 0)
(0.017516704 -3.1678653e-10 0)
(0.017516706 -4.2504804e-10 0)
(0.017516708 -5.5852728e-10 0)
(0.017516709 -7.1459315e-10 0)
(0.017516711 -8.8376502e-10 0)
(0.017516713 -1.0437774e-09 0)
(0.017516713 -1.1493439e-09 0)
(0.017516712 -1.1173031e-09 0)
(0.017516705 -8.0211763e-10 0)
(0.017516691 3.5200275e-11 0)
(0.017516663 1.7895822e-09 0)
(0.017516612 5.0909374e-09 0)
(0.017516526 1.0949937e-08 0)
(0.017516385 2.0957798e-08 0)
(0.017516158 3.7646833e-08 0)
(0.017515802 6.5045085e-08 0)
(0.017515251 1.0963437e-07 0)
(0.017514411 1.8205046e-07 0)
(0.017513137 3.0078275e-07 0)
(0.017511229 4.9651187e-07 0)
(0.017508453 8.0175799e-07 0)
(0.017504299 1.2514834e-06 0)
(0.017496687 2.3219694e-06 0)
(0.017489123 3.3306881e-06 0)
(0.048726962 -1.2780467e-05 0)
(0.048733699 -1.2046341e-05 0)
(0.04874529 -8.8761191e-06 0)
(0.048752332 -6.291389e-06 0)
(0.048757584 -4.4215086e-06 0)
(0.04876156 -3.0792575e-06 0)
(0.048764455 -2.1251531e-06 0)
(0.048766519 -1.4535872e-06 0)
(0.048767971 -9.8365369e-07 0)
(0.048768977 -6.5673945e-07 0)
(0.048769663 -4.311172e-07 0)
(0.048770123 -2.7701374e-07 0)
(0.048770424 -1.731268e-07 0)
(0.048770616 -1.0422217e-07 0)
(0.048770735 -5.9435204e-08 0)
(0.048770806 -3.1062396e-08 0)
(0.048770845 -1.3685361e-08 0)
(0.048770864 -3.5341754e-09 0)
(0.048770872 1.9826643e-09 0)
(0.048770872 4.6213005e-09 0)
(0.04877087 5.5445713e-09 0)
(0.048770865 5.5025346e-09 0)
(0.04877086 4.9695625e-09 0)
(0.048770856 4.2351077e-09 0)
(0.048770852 3.4660098e-09 0)
(0.048770849 2.7510122e-09 0)
(0.048770846 2.1302889e-09 0)
(0.048770844 1.6158287e-09 0)
(0.048770842 1.2036434e-09 0)
(0.048770841 8.8239992e-10 0)
(0.04877084 6.3757366e-10 0)
(0.048770839 4.5486568e-10 0)
(0.048770839 3.2089236e-10 0)
(0.048770839 2.2453517e-10 0)
(0.048770839 1.5630209e-10 0)
(0.048770838 1.0899917e-10 0)
(0.048770838 7.6691522e-11 0)
(0.048770838 5.5228986e-11 0)
(0.048770838 4.1174642e-11 0)
(0.048770838 3.2376215e-11 0)
(0.048770838 2.6930407e-11 0)
(0.048770838 2.3845909e-11 0)
(0.048770838 2.2090393e-11 0)
(0.048770838 2.1307132e-11 0)
(0.048770838 2.0920302e-11 0)
(0.048770838 2.0890735e-11 0)
(0.048770838 2.0864286e-11 0)
(0.048770838 2.0961219e-11 0)
(0.048770838 2.0918595e-11 0)
(0.048770838 2.091762e-11 0)
(0.048770838 2.0749716e-11 0)
(0.048770838 2.0614683e-11 0)
(0.048770838 2.031424e-11 0)
(0.048770838 2.0064317e-11 0)
(0.048770838 1.9665066e-11 0)
(0.048770838 1.932563e-11 0)
(0.048770838 1.8854459e-11 0)
(0.048770838 1.8454897e-11 0)
(0.048770838 1.7938917e-11 0)
(0.048770838 1.7498179e-11 0)
(0.048770838 1.6950953e-11 0)
(0.048770838 1.6486937e-11 0)
(0.048770838 1.5919038e-11 0)
(0.048770838 1.5439155e-11 0)
(0.048770838 1.4858259e-11 0)
(0.048770838 1.4370822e-11 0)
(0.048770838 1.3786783e-11 0)
(0.048770838 1.329738e-11 0)
(0.048770838 1.2718278e-11 0)
(0.048770838 1.2234137e-11 0)
(0.048770838 1.1663937e-11 0)
(0.048770838 1.1189509e-11 0)
(0.048770838 1.0638817e-11 0)
(0.048770838 1.0181453e-11 0)
(0.048770838 9.65408e-12 0)
(0.048770838 9.2193739e-12 0)
(0.048770838 8.7225615e-12 0)
(0.048770839 8.3198466e-12 0)
(0.048770839 7.854419e-12 0)
(0.048770839 7.4837189e-12 0)
(0.048770839 7.0529598e-12 0)
(0.048770839 6.716919e-12 0)
(0.048770839 6.3201969e-12 0)
(0.048770839 6.0155108e-12 0)
(0.048770839 5.6510254e-12 0)
(0.048770839 5.3739468e-12 0)
(0.048770839 5.0365088e-12 0)
(0.048770839 4.7847831e-12 0)
(0.048770839 4.4642546e-12 0)
(0.048770839 4.228318e-12 0)
(0.048770839 3.9248024e-12 0)
(0.048770839 3.7010281e-12 0)
(0.048770839 3.4025185e-12 0)
(0.048770839 3.1802446e-12 0)
(0.048770839 2.8872235e-12 0)
(0.048770839 2.6669682e-12 0)
(0.048770839 2.3719714e-12 0)
(0.048770839 2.1457004e-12 0)
(0.048770839 1.84686e-12 0)
(0.048770839 1.6170362e-12 0)
(0.048770839 1.312167e-12 0)
(0.048770839 1.0790857e-12 0)
(0.048770839 7.6864333e-13 0)
(0.048770839 5.2289344e-13 0)
(0.048770839 2.0524681e-13 0)
(0.048770839 -4.6011572e-14 0)
(0.048770839 -3.7210571e-13 0)
(0.048770839 -6.3172971e-13 0)
(0.048770839 -9.6824692e-13 0)
(0.048770839 -1.2419694e-12 0)
(0.048770839 -1.5965618e-12 0)
(0.048770839 -1.8863543e-12 0)
(0.048770839 -2.2615488e-12 0)
(0.048770839 -2.5719452e-12 0)
(0.048770839 -2.9720595e-12 0)
(0.048770839 -3.3136149e-12 0)
(0.048770839 -3.7471979e-12 0)
(0.048770839 -4.1170924e-12 0)
(0.048770839 -4.5797002e-12 0)
(0.048770839 -4.9802912e-12 0)
(0.048770839 -5.4768193e-12 0)
(0.048770839 -5.9081874e-12 0)
(0.048770839 -6.4315316e-12 0)
(0.048770839 -6.893647e-12 0)
(0.048770839 -7.4442228e-12 0)
(0.048770839 -7.9245732e-12 0)
(0.048770839 -8.4985204e-12 0)
(0.048770839 -9.0006805e-12 0)
(0.048770839 -9.5941625e-12 0)
(0.048770839 -1.0108661e-11 0)
(0.048770838 -1.0716567e-11 0)
(0.048770838 -1.12441e-11 0)
(0.048770838 -1.18661e-11 0)
(0.048770838 -1.2405251e-11 0)
(0.048770838 -1.3042142e-11 0)
(0.048770838 -1.3591866e-11 0)
(0.048770838 -1.4242854e-11 0)
(0.048770838 -1.4805843e-11 0)
(0.048770838 -1.5473862e-11 0)
(0.048770838 -1.6050263e-11 0)
(0.048770838 -1.6731353e-11 0)
(0.048770838 -1.7321998e-11 0)
(0.048770838 -1.8014217e-11 0)
(0.048770838 -1.8613728e-11 0)
(0.048770838 -1.9316792e-11 0)
(0.048770838 -1.9912765e-11 0)
(0.048770838 -2.0614197e-11 0)
(0.048770838 -2.1200866e-11 0)
(0.048770838 -2.1884333e-11 0)
(0.048770838 -2.2445323e-11 0)
(0.048770838 -2.3093487e-11 0)
(0.048770838 -2.3608256e-11 0)
(0.048770838 -2.4206648e-11 0)
(0.048770838 -2.4667589e-11 0)
(0.048770838 -2.5222734e-11 0)
(0.048770838 -2.5674706e-11 0)
(0.048770838 -2.6287033e-11 0)
(0.048770838 -2.6903085e-11 0)
(0.048770838 -2.7893369e-11 0)
(0.048770838 -2.9224522e-11 0)
(0.048770838 -3.1462489e-11 0)
(0.048770838 -3.4858138e-11 0)
(0.048770838 -4.039972e-11 0)
(0.048770838 -4.8927429e-11 0)
(0.048770838 -6.2220046e-11 0)
(0.048770838 -8.2221627e-11 0)
(0.048770838 -1.1215757e-10 0)
(0.048770839 -1.5583136e-10 0)
(0.048770839 -2.1877418e-10 0)
(0.048770839 -3.0754401e-10 0)
(0.048770839 -4.3069077e-10 0)
(0.04877084 -5.9777596e-10 0)
(0.048770841 -8.1958409e-10 0)
(0.048770842 -1.105902e-09 0)
(0.048770843 -1.4634325e-09 0)
(0.048770845 -1.8899333e-09 0)
(0.048770847 -2.3660992e-09 0)
(0.048770849 -2.840308e-09 0)
(0.048770852 -3.2061618e-09 0)
(0.048770854 -3.2658856e-09 0)
(0.048770855 -2.6777103e-09 0)
(0.048770854 -8.7080857e-10 0)
(0.048770847 3.0795447e-09 0)
(0.048770832 1.0629582e-08 0)
(0.048770802 2.4021687e-08 0)
(0.048770746 4.665389e-08 0)
(0.04877065 8.360502e-08 0)
(0.048770493 1.4237126e-07 0)
(0.04877024 2.3390539e-07 0)
(0.048769845 3.7406835e-07 0)
(0.04876924 5.8568352e-07 0)
(0.04876833 9.01412e-07 0)
(0.048766983 1.367825e-06 0)
(0.048765021 2.0509871e-06 0)
(0.048762203 3.0425453e-06 0)
(0.048758245 4.4622662e-06 0)
(0.048752907 6.4634116e-06 0)
(0.048745643 9.238366e-06 0)
(0.048733474 1.2676407e-05 0)
(0.048726154 1.352462e-05 0)
(0.076272304 -2.1057054e-05 0)
(0.076274487 -2.0760563e-05 0)
(0.076285798 -1.6814693e-05 0)
(0.076292498 -1.2855554e-05 0)
(0.076297899 -9.5717391e-06 0)
(0.076302285 -6.9829746e-06 0)
(0.076305646 -5.0094187e-06 0)
(0.076308141 -3.5413331e-06 0)
(0.076309957 -2.4678142e-06 0)
(0.076311254 -1.6937782e-06 0)
(0.076312164 -1.1430923e-06 0)
(0.076312791 -7.5663129e-07 0)
(0.076313213 -4.8936027e-07 0)
(0.076313492 -3.0749061e-07 0)
(0.076313672 -1.8600184e-07 0)
(0.076313783 -1.0659651e-07 0)
(0.076313849 -5.6062785e-08 0)
(0.076313886 -2.4987367e-08 0)
(0.076313905 -6.7583081e-09 0)
(0.076313912 3.2008053e-09 0)
(0.076313913 8.0058265e-09 0)
(0.076313911 9.7264761e-09 0)
(0.076313907 9.7051085e-09 0)
(0.076313903 8.7928417e-09 0)
(0.076313899 7.5092611e-09 0)
(0.076313895 6.1548005e-09 0)
(0.076313892 4.8903053e-09 0)
(0.07631389 3.7894912e-09 0)
(0.076313888 2.8752549e-09 0)
(0.076313886 2.1416203e-09 0)
(0.076313885 1.5690721e-09 0)
(0.076313884 1.1322587e-09 0)
(0.076313884 8.0591811e-10 0)
(0.076313883 5.6643501e-10 0)
(0.076313883 3.9400611e-10 0)
(0.076313883 2.7183982e-10 0)
(0.076313883 1.8703681e-10 0)
(0.076313883 1.2910755e-10 0)
(0.076313883 9.0556997e-11 0)
(0.076313882 6.5338689e-11 0)
(0.076313882 4.9495726e-11 0)
(0.076313882 3.973166e-11 0)
(0.076313883 3.4168193e-11 0)
(0.076313883 3.1058325e-11 0)
(0.076313883 2.9656471e-11 0)
(0.076313883 2.9036839e-11 0)
(0.076313883 2.9020051e-11 0)
(0.076313883 2.9080691e-11 0)
(0.076313883 2.930463e-11 0)
(0.076313883 2.9358044e-11 0)
(0.076313883 2.9441727e-11 0)
(0.076313883 2.9291864e-11 0)
(0.076313883 2.9154391e-11 0)
(0.076313883 2.8787083e-11 0)
(0.076313883 2.8449174e-11 0)
(0.076313883 2.7915446e-11 0)
(0.076313883 2.7435569e-11 0)
(0.076313883 2.6785136e-11 0)
(0.076313883 2.6206483e-11 0)
(0.076313883 2.5477529e-11 0)
(0.076313883 2.4835598e-11 0)
(0.076313883 2.4056038e-11 0)
(0.076313883 2.3374694e-11 0)
(0.076313883 2.2567238e-11 0)
(0.076313883 2.1863175e-11 0)
(0.076313883 2.1038261e-11 0)
(0.076313883 2.0320756e-11 0)
(0.076313883 1.9492302e-11 0)
(0.076313883 1.8775663e-11 0)
(0.076313883 1.7951623e-11 0)
(0.076313883 1.7244387e-11 0)
(0.076313883 1.6438204e-11 0)
(0.076313883 1.5747744e-11 0)
(0.076313883 1.4969376e-11 0)
(0.076313883 1.4309473e-11 0)
(0.076313883 1.3568298e-11 0)
(0.076313883 1.2948017e-11 0)
(0.076313883 1.2249719e-11 0)
(0.076313883 1.1672347e-11 0)
(0.076313883 1.1023772e-11 0)
(0.076313883 1.0494651e-11 0)
(0.076313883 9.8937439e-12 0)
(0.076313883 9.413785e-12 0)
(0.076313883 8.8614522e-12 0)
(0.076313883 8.4253183e-12 0)
(0.076313883 7.9161381e-12 0)
(0.076313883 7.5163461e-12 0)
(0.076313883 7.0378321e-12 0)
(0.076313883 6.67005e-12 0)
(0.076313883 6.2169814e-12 0)
(0.076313883 5.8692908e-12 0)
(0.076313883 5.4325775e-12 0)
(0.076313883 5.09369e-12 0)
(0.076313883 4.6646155e-12 0)
(0.076313883 4.3297638e-12 0)
(0.076313883 3.8991948e-12 0)
(0.076313883 3.5576847e-12 0)
(0.076313883 3.1257169e-12 0)
(0.076313883 2.7780787e-12 0)
(0.076313883 2.3362126e-12 0)
(0.076313883 1.9820392e-12 0)
(0.076313883 1.5320076e-12 0)
(0.076313883 1.1657072e-12 0)
(0.076313883 7.0542194e-13 0)
(0.076313883 3.3288069e-13 0)
(0.076313883 -1.4077806e-13 0)
(0.076313883 -5.2859469e-13 0)
(0.076313883 -1.0191727e-12 0)
(0.076313883 -1.4213214e-12 0)
(0.076313883 -1.9312607e-12 0)
(0.076313883 -2.357127e-12 0)
(0.076313883 -2.8933154e-12 0)
(0.076313883 -3.3435734e-12 0)
(0.076313883 -3.9145197e-12 0)
(0.076313883 -4.4031789e-12 0)
(0.076313883 -5.0119304e-12 0)
(0.076313883 -5.5368609e-12 0)
(0.076313883 -6.1928779e-12 0)
(0.076313883 -6.7635356e-12 0)
(0.076313883 -7.4665073e-12 0)
(0.076313883 -8.0820034e-12 0)
(0.076313883 -8.8242847e-12 0)
(0.076313883 -9.4829031e-12 0)
(0.076313883 -1.0268124e-11 0)
(0.076313883 -1.0962319e-11 0)
(0.076313883 -1.1784001e-11 0)
(0.076313883 -1.2508152e-11 0)
(0.076313883 -1.3358574e-11 0)
(0.076313883 -1.4105046e-11 0)
(0.076313883 -1.4980703e-11 0)
(0.076313883 -1.5748388e-11 0)
(0.076313883 -1.6643198e-11 0)
(0.076313883 -1.7427084e-11 0)
(0.076313883 -1.8338484e-11 0)
(0.076313883 -1.9138524e-11 0)
(0.076313883 -2.006715e-11 0)
(0.076313883 -2.0881148e-11 0)
(0.076313883 -2.1828152e-11 0)
(0.076313883 -2.2656503e-11 0)
(0.076313883 -2.361882e-11 0)
(0.076313883 -2.4460206e-11 0)
(0.076313883 -2.5434071e-11 0)
(0.076313883 -2.6279452e-11 0)
(0.076313883 -2.7259825e-11 0)
(0.076313883 -2.8103062e-11 0)
(0.076313883 -2.9071329e-11 0)
(0.076313883 -2.9892448e-11 0)
(0.076313883 -3.0833747e-11 0)
(0.076313883 -3.1608182e-11 0)
(0.076313883 -3.2493415e-11 0)
(0.076313883 -3.3199499e-11 0)
(0.076313883 -3.4016523e-11 0)
(0.076313883 -3.4661491e-11 0)
(0.076313883 -3.544299e-11 0)
(0.076313883 -3.6117977e-11 0)
(0.076313883 -3.7056349e-11 0)
(0.076313883 -3.8110108e-11 0)
(0.076313883 -3.9806932e-11 0)
(0.076313883 -4.2222196e-11 0)
(0.076313883 -4.6231726e-11 0)
(0.076313883 -5.2407692e-11 0)
(0.076313883 -6.2331816e-11 0)
(0.076313883 -7.7580949e-11 0)
(0.076313883 -1.0111184e-10 0)
(0.076313883 -1.3635691e-10 0)
(0.076313883 -1.8870832e-10 0)
(0.076313883 -2.6473624e-10 0)
(0.076313883 -3.7367448e-10 0)
(0.076313883 -5.2664479e-10 0)
(0.076313883 -7.377931e-10 0)
(0.076313884 -1.0229628e-09 0)
(0.076313885 -1.3994809e-09 0)
(0.076313886 -1.8825675e-09 0)
(0.076313887 -2.4810904e-09 0)
(0.076313888 -3.1874971e-09 0)
(0.07631389 -3.962986e-09 0)
(0.076313892 -4.7112459e-09 0)
(0.076313894 -5.2385069e-09 0)
(0.076313896 -5.1903355e-09 0)
(0.076313896 -3.9572851e-09 0)
(0.076313895 -5.3331601e-10 0)
(0.076313888 6.6997117e-09 0)
(0.076313873 2.0273196e-08 0)
(0.076313844 4.4056951e-08 0)
(0.076313791 8.3861796e-08 0)
(0.076313703 1.4828193e-07 0)
(0.076313558 2.4983121e-07 0)
(0.076313328 4.0648095e-07 0)
(0.076312972 6.4367179e-07 0)
(0.076312432 9.969232e-07 0)
(0.076311629 1.5150678e-06 0)
(0.076310457 2.2640736e-06 0)
(0.076308775 3.3310442e-06 0)
(0.07630641 4.8271636e-06 0)
(0.07630315 6.8851511e-06 0)
(0.076298794 9.6408837e-06 0)
(0.076293309 1.3195985e-05 0)
(0.076286404 1.7531322e-05 0)
(0.076274433 2.1949153e-05 0)
(0.076271861 2.2404174e-05 0)
(0.10019264 -2.6681656e-05 0)
(0.10018932 -2.6904579e-05 0)
(0.1001987 -2.3006789e-05 0)
(0.10020335 -1.8444822e-05 0)
(0.10020734 -1.4271185e-05 0)
(0.10021086 -1.0748398e-05 0)
(0.10021371 -7.9204668e-06 0)
(0.10021591 -5.7293799e-06 0)
(0.10021757 -4.074274e-06 0)
(0.10021879 -2.8489302e-06 0)
(0.10021967 -1.9575835e-06 0)
(0.10022029 -1.3198066e-06 0)
(0.10022073 -8.7085553e-07 0)
(0.10022102 -5.6012623e-07 0)
(0.10022121 -3.4895194e-07 0)
(0.10022133 -2.0834202e-07 0)
(0.10022141 -1.1692747e-07 0)
(0.10022146 -5.9209679e-08 0)
(0.10022148 -2.4125755e-08 0)
(0.1002215 -3.906788e-09 0)
(0.1002215 6.8172628e-09 0)
(0.1002215 1.1683438e-08 0)
(0.1002215 1.3094309e-08 0)
(0.1002215 1.2602101e-08 0)
(0.1002215 1.1179958e-08 0)
(0.10022149 9.4133353e-09 0)
(0.10022149 7.6344637e-09 0)
(0.10022149 6.0148337e-09 0)
(0.10022149 4.6275872e-09 0)
(0.10022148 3.4886138e-09 0)
(0.10022148 2.5829807e-09 0)
(0.10022148 1.8813227e-09 0)
(0.10022148 1.3496066e-09 0)
(0.10022148 9.5456981e-10 0)
(0.10022148 6.6643345e-10 0)
(0.10022148 4.5997869e-10 0)
(0.10022148 3.1466228e-10 0)
(0.10022148 2.1426016e-10 0)
(0.10022148 1.4625926e-10 0)
(0.10022148 1.0122424e-10 0)
(0.10022148 7.2161627e-11 0)
(0.10022148 5.4001198e-11 0)
(0.10022148 4.3105607e-11 0)
(0.10022148 3.6937017e-11 0)
(0.10022148 3.3739041e-11 0)
(0.10022148 3.2326872e-11 0)
(0.10022148 3.1921503e-11 0)
(0.10022148 3.201803e-11 0)
(0.10022148 3.2314145e-11 0)
(0.10022148 3.2621863e-11 0)
(0.10022148 3.2845603e-11 0)
(0.10022148 3.2940561e-11 0)
(0.10022148 3.2889258e-11 0)
(0.10022148 3.2699351e-11 0)
(0.10022148 3.2378304e-11 0)
(0.10022148 3.1940739e-11 0)
(0.10022148 3.1413181e-11 0)
(0.10022148 3.0804341e-11 0)
(0.10022148 3.0130606e-11 0)
(0.10022148 2.9404653e-11 0)
(0.10022148 2.8639856e-11 0)
(0.10022148 2.7838248e-11 0)
(0.10022148 2.7012632e-11 0)
(0.10022148 2.6167179e-11 0)
(0.10022148 2.530561e-11 0)
(0.10022148 2.4434838e-11 0)
(0.10022148 2.355775e-11 0)
(0.10022148 2.2673197e-11 0)
(0.10022148 2.1790457e-11 0)
(0.10022148 2.0911424e-11 0)
(0.10022148 2.0036821e-11 0)
(0.10022148 1.917226e-11 0)
(0.10022148 1.8317198e-11 0)
(0.10022148 1.7479847e-11 0)
(0.10022148 1.6658793e-11 0)
(0.10022148 1.5860509e-11 0)
(0.10022148 1.5085264e-11 0)
(0.10022148 1.4333836e-11 0)
(0.10022148 1.3607774e-11 0)
(0.10022148 1.2908542e-11 0)
(0.10022148 1.2238541e-11 0)
(0.10022148 1.1595494e-11 0)
(0.10022148 1.098218e-11 0)
(0.10022148 1.0394882e-11 0)
(0.10022148 9.8310097e-12 0)
(0.10022148 9.2886562e-12 0)
(0.10022148 8.7688238e-12 0)
(0.10022148 8.2659219e-12 0)
(0.10022148 7.7769161e-12 0)
(0.10022148 7.305366e-12 0)
(0.10022148 6.8402911e-12 0)
(0.10022148 6.3847983e-12 0)
(0.10022148 5.9331917e-12 0)
(0.10022148 5.4865441e-12 0)
(0.10022148 5.0360827e-12 0)
(0.10022148 4.5863879e-12 0)
(0.10022148 4.1355122e-12 0)
(0.10022148 3.6790803e-12 0)
(0.10022148 3.2174945e-12 0)
(0.10022148 2.7520023e-12 0)
(0.10022148 2.2807532e-12 0)
(0.10022148 1.8030107e-12 0)
(0.10022148 1.3224118e-12 0)
(0.10022148 8.3328885e-13 0)
(0.10022148 3.3483582e-13 0)
(0.10022148 -1.7086972e-13 0)
(0.10022148 -6.8151708e-13 0)
(0.10022148 -1.2015513e-12 0)
(0.10022148 -1.7347993e-12 0)
(0.10022148 -2.2740846e-12 0)
(0.10022148 -2.829326e-12 0)
(0.10022148 -3.4024448e-12 0)
(0.10022148 -3.9902647e-12 0)
(0.10022148 -4.5972224e-12 0)
(0.10022148 -5.2239892e-12 0)
(0.10022148 -5.8762893e-12 0)
(0.10022148 -6.5514492e-12 0)
(0.10022148 -7.2517506e-12 0)
(0.10022148 -7.9762791e-12 0)
(0.10022148 -8.7275468e-12 0)
(0.10022148 -9.5027836e-12 0)
(0.10022148 -1.0304201e-11 0)
(0.10022148 -1.1126388e-11 0)
(0.10022148 -1.1971346e-11 0)
(0.10022148 -1.283526e-11 0)
(0.10022148 -1.3722344e-11 0)
(0.10022148 -1.4624544e-11 0)
(0.10022148 -1.5541211e-11 0)
(0.10022148 -1.6471817e-11 0)
(0.10022148 -1.7417099e-11 0)
(0.10022148 -1.8368126e-11 0)
(0.10022148 -1.9333019e-11 0)
(0.10022148 -2.0302701e-11 0)
(0.10022148 -2.128691e-11 0)
(0.10022148 -2.2274717e-11 0)
(0.10022148 -2.3267169e-11 0)
(0.10022148 -2.4269025e-11 0)
(0.10022148 -2.5279442e-11 0)
(0.10022148 -2.6292278e-11 0)
(0.10022148 -2.7310514e-11 0)
(0.10022148 -2.8328475e-11 0)
(0.10022148 -2.9347669e-11 0)
(0.10022148 -3.0367528e-11 0)
(0.10022148 -3.1376731e-11 0)
(0.10022148 -3.2377311e-11 0)
(0.10022148 -3.33604e-11 0)
(0.10022148 -3.4317585e-11 0)
(0.10022148 -3.5244278e-11 0)
(0.10022148 -3.6134653e-11 0)
(0.10022148 -3.6980443e-11 0)
(0.10022148 -3.7784908e-11 0)
(0.10022148 -3.8554521e-11 0)
(0.10022148 -3.9315259e-11 0)
(0.10022148 -4.0116843e-11 0)
(0.10022148 -4.105336e-11 0)
(0.10022148 -4.2291192e-11 0)
(0.10022148 -4.4095973e-11 0)
(0.10022148 -4.689964e-11 0)
(0.10022148 -5.1365727e-11 0)
(0.10022148 -5.8500663e-11 0)
(0.10022148 -6.979496e-11 0)
(0.10022148 -8.7425744e-11 0)
(0.10022148 -1.1449305e-10 0)
(0.10022148 -1.5534874e-10 0)
(0.10022148 -2.1599248e-10 0)
(0.10022148 -3.0449293e-10 0)
(0.10022148 -4.3147786e-10 0)
(0.10022148 -6.1052999e-10 0)
(0.10022148 -8.5840289e-10 0)
(0.10022148 -1.1947384e-09 0)
(0.10022148 -1.6408937e-09 0)
(0.10022148 -2.2170836e-09 0)
(0.10022148 -2.9367439e-09 0)
(0.10022149 -3.7962844e-09 0)
(0.10022149 -4.7575711e-09 0)
(0.10022149 -5.7190694e-09 0)
(0.10022149 -6.4698449e-09 0)
(0.10022149 -6.6179077e-09 0)
(0.10022149 -5.4814036e-09 0)
(0.10022149 -1.9266258e-09 0)
(0.10022148 5.8770005e-09 0)
(0.10022147 2.0805734e-08 0)
(0.10022145 4.7266338e-08 0)
(0.10022142 9.1883812e-08 0)
(0.10022136 1.6444857e-07 0)
(0.10022126 2.7919101e-07 0)
(0.1002211 4.5646064e-07 0)
(0.10022086 7.2488255e-07 0)
(0.1002205 1.124028e-06 0)
(0.10021997 1.7075543e-06 0)
(0.10021919 2.5465772e-06 0)
(0.10021809 3.7326327e-06 0)
(0.10021656 5.3788063e-06 0)
(0.10021449 7.6159507e-06 0)
(0.10021174 1.0576869e-05 0)
(0.10020826 1.4355222e-05 0)
(0.10020421 1.8932459e-05 0)
(0.10019943 2.4036132e-05 0)
(0.10018938 2.8567449e-05 0)
(0.1001927 2.8529361e-05 0)
(0.1205542 -2.9178211e-05 0)
(0.12054542 -2.9725095e-05 0)
(0.12055237 -2.6268885e-05 0)
(0.12055431 -2.1750276e-05 0)
(0.12055609 -1.7308136e-05 0)
(0.12055798 -1.33561e-05 0)
(0.12055965 -1.0050932e-05 0)
(0.12056102 -7.4045e-06 0)
(0.1205621 -5.3514345e-06 0)
(0.12056293 -3.7977358e-06 0)
(0.12056355 -2.646436e-06 0)
(0.12056401 -1.8093312e-06 0)
(0.12056433 -1.2115075e-06 0)
(0.12056455 -7.9211027e-07 0)
(0.12056471 -5.0327107e-07 0)
(0.12056481 -3.0827695e-07 0)
(0.12056488 -1.7956473e-07 0)
(0.12056492 -9.6830873e-08 0)
(0.12056494 -4.5383825e-08 0)
(0.12056496 -1.4776582e-08 0)
(0.12056497 2.2910132e-09 0)
(0.12056497 1.083057e-08 0)
(0.12056497 1.4206381e-08 0)
(0.12056497 1.4619396e-08 0)
(0.12056497 1.3474245e-08 0)
(0.12056497 1.1636328e-08 0)
(0.12056496 9.6140545e-09 0)
(0.12056496 7.6852938e-09 0)
(0.12056496 5.9839719e-09 0)
(0.12056496 4.5575762e-09 0)
(0.12056496 3.4049675e-09 0)
(0.12056496 2.5000328e-09 0)
(0.12056496 1.806419e-09 0)
(0.12056496 1.2857469e-09 0)
(0.12056496 9.0231897e-10 0)
(0.12056496 6.2497785e-10 0)
(0.12056496 4.279448e-10 0)
(0.12056496 2.9044749e-10 0)
(0.12056496 1.9635486e-10 0)
(0.12056496 1.3327193e-10 0)
(0.12056496 9.2027633e-11 0)
(0.12056496 6.5792839e-11 0)
(0.12056496 4.9734519e-11 0)
(0.12056496 4.034746e-11 0)
(0.12056496 3.5275106e-11 0)
(0.12056496 3.28173e-11 0)
(0.12056496 3.1936267e-11 0)
(0.12056496 3.1859783e-11 0)
(0.12056496 3.2194943e-11 0)
(0.12056496 3.2614143e-11 0)
(0.12056496 3.3014504e-11 0)
(0.12056496 3.3264899e-11 0)
(0.12056496 3.3383709e-11 0)
(0.12056496 3.3314453e-11 0)
(0.12056496 3.3117046e-11 0)
(0.12056496 3.2762494e-11 0)
(0.12056496 3.2312565e-11 0)
(0.12056496 3.1743232e-11 0)
(0.12056496 3.111922e-11 0)
(0.12056496 3.0406606e-11 0)
(0.12056496 2.9659715e-11 0)
(0.12056496 2.885317e-11 0)
(0.12056496 2.8033951e-11 0)
(0.12056496 2.7167679e-11 0)
(0.12056496 2.6306347e-11 0)
(0.12056496 2.5407199e-11 0)
(0.12056496 2.4518643e-11 0)
(0.12056496 2.3603812e-11 0)
(0.12056496 2.2704351e-11 0)
(0.12056496 2.1787195e-11 0)
(0.12056496 2.0896057e-11 0)
(0.12056496 1.9991239e-11 0)
(0.12056496 1.9119067e-11 0)
(0.12056496 1.8239431e-11 0)
(0.12056496 1.7402004e-11 0)
(0.12056496 1.6560365e-11 0)
(0.12056496 1.5764102e-11 0)
(0.12056496 1.4971944e-11 0)
(0.12056496 1.4228694e-11 0)
(0.12056496 1.3490941e-11 0)
(0.12056496 1.280238e-11 0)
(0.12056496 1.2122637e-11 0)
(0.12056496 1.1491181e-11 0)
(0.12056496 1.0868299e-11 0)
(0.12056496 1.0288069e-11 0)
(0.12056496 9.7128367e-12 0)
(0.12056496 9.1789451e-12 0)
(0.12056496 8.6436399e-12 0)
(0.12056496 8.1443156e-12 0)
(0.12056496 7.637854e-12 0)
(0.12056496 7.1636616e-12 0)
(0.12056496 6.6754848e-12 0)
(0.12056496 6.213547e-12 0)
(0.12056496 5.733521e-12 0)
(0.12056496 5.2745856e-12 0)
(0.12056496 4.7929809e-12 0)
(0.12056496 4.3289188e-12 0)
(0.12056496 3.8399521e-12 0)
(0.12056496 3.365714e-12 0)
(0.12056496 2.8665327e-12 0)
(0.12056496 2.3810985e-12 0)
(0.12056496 1.8708541e-12 0)
(0.12056496 1.3717119e-12 0)
(0.12056496 8.4701763e-13 0)
(0.12056496 3.3358219e-13 0)
(0.12056496 -2.0530812e-13 0)
(0.12056496 -7.3439857e-13 0)
(0.12056496 -1.2920239e-12 0)
(0.12056496 -1.8403828e-12 0)
(0.12056496 -2.4190002e-12 0)
(0.12056496 -2.9937309e-12 0)
(0.12056496 -3.5990266e-12 0)
(0.12056496 -4.2076747e-12 0)
(0.12056496 -4.8533749e-12 0)
(0.12056496 -5.5014231e-12 0)
(0.12056496 -6.1887653e-12 0)
(0.12056496 -6.8803669e-12 0)
(0.12056496 -7.6186607e-12 0)
(0.12056496 -8.3617267e-12 0)
(0.12056496 -9.1511541e-12 0)
(0.12056496 -9.9461143e-12 0)
(0.12056496 -1.0786725e-11 0)
(0.12056496 -1.1631729e-11 0)
(0.12056496 -1.2516942e-11 0)
(0.12056496 -1.3405256e-11 0)
(0.12056496 -1.433453e-11 0)
(0.12056496 -1.5257626e-11 0)
(0.12056496 -1.6219463e-11 0)
(0.12056496 -1.717396e-11 0)
(0.12056496 -1.8160363e-11 0)
(0.12056496 -1.9139082e-11 0)
(0.12056496 -2.0145207e-11 0)
(0.12056496 -2.1139374e-11 0)
(0.12056496 -2.2164085e-11 0)
(0.12056496 -2.3169835e-11 0)
(0.12056496 -2.4207902e-11 0)
(0.12056496 -2.5221125e-11 0)
(0.12056496 -2.6266214e-11 0)
(0.12056496 -2.7286911e-11 0)
(0.12056496 -2.8330581e-11 0)
(0.12056496 -2.934952e-11 0)
(0.12056496 -3.0388437e-11 0)
(0.12056496 -3.1392545e-11 0)
(0.12056496 -3.2410972e-11 0)
(0.12056496 -3.3385473e-11 0)
(0.12056496 -3.4359453e-11 0)
(0.12056496 -3.5273544e-11 0)
(0.12056496 -3.6172341e-11 0)
(0.12056496 -3.6996954e-11 0)
(0.12056496 -3.7806563e-11 0)
(0.12056496 -3.8542397e-11 0)
(0.12056496 -3.9285146e-11 0)
(0.12056496 -4.001798e-11 0)
(0.12056496 -4.0883353e-11 0)
(0.12056496 -4.1968959e-11 0)
(0.12056496 -4.3568502e-11 0)
(0.12056496 -4.6017432e-11 0)
(0.12056496 -4.997674e-11 0)
(0.12056496 -5.6312173e-11 0)
(0.12056496 -6.6455192e-11 0)
(0.12056496 -8.2371246e-11 0)
(0.12056496 -1.0701391e-10 0)
(0.12056496 -1.4442693e-10 0)
(0.12056496 -2.0034832e-10 0)
(0.12056496 -2.8243918e-10 0)
(0.12056496 -4.0101103e-10 0)
(0.12056496 -5.6928132e-10 0)
(0.12056496 -8.0392625e-10 0)
(0.12056496 -1.1248163e-09 0)
(0.12056496 -1.554422e-09 0)
(0.12056496 -2.1153921e-09 0)
(0.12056496 -2.8260378e-09 0)
(0.12056496 -3.6914346e-09 0)
(0.12056496 -4.6882866e-09 0)
(0.12056496 -5.7392819e-09 0)
(0.12056496 -6.6721314e-09 0)
(0.12056496 -7.154872e-09 0)
(0.12056496 -6.5969189e-09 0)
(0.12056496 -3.999948e-09 0)
(0.12056496 2.2630649e-09 0)