/*--------------------------------*- C++ -*----------------------------------*\
| =========                 |                                                 |
| \\      /  F ield         | OpenFOAM: The Open Source CFD Toolbox           |
|  \\    /   O peration     | Version:  2406                                  |
|   \\  /    A nd           | Website:  www.openfoam.com                      |
|    \\/     M anipulation  |                                                 |
\*---------------------------------------------------------------------------*/
FoamFile
{
    version     2.0;
    format      ascii;
    arch        "LSB;label=32;scalar=64";
    class       surfaceScalarField;
    location    "0.3";
    object      phi;
}
// * * * * * * * * * * * * * * * * * * * * * * * * * * * * * * * * * * * * * //

dimensions      [0 3 -1 0 0 0 0];

oriented        oriented;

internalField   nonuniform List<scalar> 
1890
(
3.64927e-06
-4.88227e-12
3.64928e-06
-5.28281e-12
3.64928e-06
-4.20137e-12
3.64928e-06
-2.71462e-12
3.64928e-06
-1.78883e-12
3.64928e-06
-1.21957e-12
3.64928e-06
-1.93853e-13
3.64928e-06
8.4482e-13
3.64928e-06
8.76632e-13
3.64928e-06
4.84143e-13
3.64927e-06
3.40966e-13
3.64927e-06
8.03361e-13
3.64927e-06
1.32775e-12
3.64927e-06
1.09849e-12
3.64927e-06
2.4656e-13
3.64927e-06
-2.87078e-13
3.64927e-06
8.69195e-14
3.64927e-06
9.7712e-13
3.64927e-06
1.36986e-12
3.64927e-06
8.19887e-13
3.64927e-06
-3.22528e-13
3.64927e-06
-1.1659e-12
3.64927e-06
-1.1138e-12
3.64927e-06
-5.66613e-13
3.64927e-06
-8.38671e-14
3.64927e-06
-2.71225e-13
3.64927e-06
-8.8716e-13
3.64927e-06
-1.32702e-12
3.64927e-06
-1.09614e-12
3.64928e-06
-3.33851e-13
3.64928e-06
2.71521e-13
3.64928e-06
1.65373e-13
3.64928e-06
-3.0828e-13
3.64928e-06
-7.11189e-13
3.64928e-06
-4.77957e-13
3.64928e-06
1.42626e-13
3.64928e-06
4.62535e-13
3.64928e-06
1.31587e-13
3.64928e-06
-3.36974e-13
3.64928e-06
-2.81416e-13
3.64928e-06
4.7834e-13
3.64928e-06
1.27449e-12
3.64928e-06
1.47734e-12
3.64928e-06
7.64049e-13
3.64928e-06
-1.54054e-13
3.64928e-06
-3.91814e-13
3.64928e-06
2.39692e-13
3.64928e-06
1.04001e-12
3.64928e-06
1.19824e-12
3.64928e-06
6.35447e-13
3.64928e-06
-1.61921e-15
3.64928e-06
2.92405e-14
3.64927e-06
7.0526e-13
3.64927e-06
1.30107e-12
3.64927e-06
1.11566e-12
3.64927e-06
3.53743e-13
3.64927e-06
-3.63571e-13
3.64927e-06
-3.61722e-13
3.64927e-06
3.00235e-13
3.64927e-06
8.03719e-13
3.64927e-06
5.08424e-13
3.64927e-06
-2.93781e-13
3.64927e-06
-9.80585e-13
3.64927e-06
-8.48237e-13
3.64927e-06
-2.32603e-13
3.64928e-06
2.45261e-13
3.64928e-06
3.12825e-14
3.64928e-06
-5.60976e-13
3.64928e-06
-8.87617e-13
3.64928e-06
-5.75643e-13
3.64928e-06
2.83441e-14
3.64928e-06
3.8941e-13
3.64928e-06
8.57625e-14
3.64928e-06
-4.2982e-13
3.64928e-06
-6.10923e-13
3.64928e-06
-1.52397e-13
3.64928e-06
5.23013e-13
3.64928e-06
8.65786e-13
3.64928e-06
6.01746e-13
3.64928e-06
1.49238e-13
3.64928e-06
-4.61556e-14
3.64928e-06
2.74835e-13
3.64928e-06
7.78547e-13
3.64928e-06
9.67137e-13
3.64928e-06
6.74815e-13
3.64928e-06
2.36431e-13
3.64928e-06
-1.51588e-14
3.64928e-06
1.30417e-13
3.64928e-06
3.67495e-13
3.64928e-06
4.80787e-13
3.64928e-06
3.1713e-13
3.64928e-06
5.99789e-14
3.64927e-06
-2.01902e-14
3.64927e-06
1.96918e-13
3.64927e-06
5.55359e-13
3.64927e-06
9.14332e-13
3.64927e-06
1.31525e-12
3.64927e-06
2.00429e-12
3.64926e-06
2.92509e-12
3.51218e-12
9.43427e-06
-7.2832e-12
9.43428e-06
-7.675e-12
9.43428e-06
-7.33678e-12
9.43428e-06
-6.3392e-12
9.43428e-06
-4.96905e-12
9.43428e-06
-3.41218e-12
9.43428e-06
-2.0826e-12
9.43428e-06
-4.99012e-13
9.43428e-06
6.52292e-13
9.43428e-06
1.54501e-12
9.43428e-06
2.14217e-12
9.43428e-06
2.39757e-12
9.43427e-06
2.31354e-12
9.43427e-06
2.1837e-12
9.43427e-06
2.06142e-12
9.43427e-06
1.77507e-12
9.43428e-06
1.28087e-12
9.43428e-06
5.06542e-13
9.43428e-06
-2.85104e-13
9.43428e-06
-1.00589e-12
9.43428e-06
-1.58971e-12
9.43428e-06
-1.95987e-12
9.43428e-06
-2.05363e-12
9.43428e-06
-1.61811e-12
9.43428e-06
-8.28897e-13
9.43428e-06
-2.18309e-13
9.43428e-06
-1.69749e-13
9.43428e-06
-5.67793e-13
9.43428e-06
-8.69183e-13
9.43428e-06
-5.61331e-13
9.43428e-06
1.67998e-13
9.43428e-06
7.19706e-13
9.43428e-06
6.37322e-13
9.43428e-06
1.33181e-13
9.43428e-06
4.22514e-14
9.43428e-06
7.08838e-13
9.43428e-06
1.765e-12
9.43428e-06
2.47242e-12
9.43429e-06
2.09438e-12
9.43429e-06
1.00785e-12
9.43429e-06
9.38507e-14
9.43428e-06
-4.8437e-14
9.43428e-06
3.60762e-13
9.43428e-06
4.71057e-13
9.43429e-06
7.46173e-14
9.43428e-06
-5.29213e-13
9.43428e-06
-5.97203e-13
9.43428e-06
1.8832e-13
9.43428e-06
1.20544e-12
9.43428e-06
1.53925e-12
9.43428e-06
9.52004e-13
9.43428e-06
1.2929e-13
9.43428e-06
-3.7304e-14
9.43428e-06
5.34716e-13
9.43428e-06
1.43748e-12
9.43428e-06
1.67185e-12
9.43428e-06
1.04407e-12
9.43428e-06
1.89814e-13
9.43428e-06
-6.15232e-14
9.43428e-06
2.43047e-13
9.43428e-06
6.45004e-13
9.43428e-06
3.51022e-13
9.43428e-06
-5.69396e-13
9.43428e-06
-1.32461e-12
9.43428e-06
-1.26697e-12
9.43428e-06
-4.81861e-13
9.43428e-06
2.67319e-13
9.43428e-06
3.65131e-13
9.43428e-06
-1.19767e-13
9.43429e-06
-5.21572e-13
9.43429e-06
-2.40565e-13
9.43429e-06
5.81849e-13
9.43429e-06
1.20824e-12
9.43429e-06
1.20984e-12
9.43429e-06
7.30044e-13
9.43429e-06
4.18804e-13
9.43429e-06
5.93332e-13
9.43429e-06
1.08743e-12
9.43429e-06
1.41971e-12
9.43429e-06
1.16851e-12
9.43429e-06
5.57055e-13
9.43429e-06
1.94349e-13
9.43429e-06
2.82028e-13
9.43429e-06
5.49772e-13
9.43429e-06
5.68541e-13
9.43428e-06
5.50706e-14
9.43428e-06
-5.7293e-13
9.43428e-06
-8.69645e-13
9.43428e-06
-6.02915e-13
9.43428e-06
-8.60307e-14
9.43428e-06
2.11199e-13
9.43428e-06
1.48611e-13
9.43428e-06
9.57102e-14
9.43428e-06
4.89923e-13
9.43428e-06
1.46237e-12
9.43427e-06
2.72283e-12
9.43427e-06
4.13028e-12
9.43427e-06
5.95686e-12
9.43427e-06
7.1939e-12
6.60335e-12
1.37389e-05
-9.88164e-12
1.37389e-05
-9.84442e-12
1.37389e-05
-7.71391e-12
1.37389e-05
-5.88866e-12
1.37389e-05
-4.56912e-12
1.37389e-05
-2.91157e-12
1.37389e-05
-1.18364e-12
1.37389e-05
5.54515e-13
1.37389e-05
1.53095e-12
1.37389e-05
2.05618e-12
1.37389e-05
2.35443e-12
1.37389e-05
2.21755e-12
1.37389e-05
1.76283e-12
1.37389e-05
1.41731e-12
1.37389e-05
1.39862e-12
1.37389e-05
1.41872e-12
1.37389e-05
9.40627e-13
1.37389e-05
-8.43319e-14
1.37389e-05
-1.03765e-12
1.37389e-05
-1.42699e-12
1.37389e-05
-1.17381e-12
1.37389e-05
-8.35282e-13
1.37389e-05
-9.27182e-13
1.37389e-05
-1.38302e-12
1.37389e-05
-1.60773e-12
1.37389e-05
-1.25393e-12
1.37389e-05
-5.2524e-13
1.37389e-05
-6.89998e-15
1.37389e-05
-6.02167e-14
1.37389e-05
-3.12974e-13
1.37389e-05
-1.60979e-13
1.37389e-05
5.87349e-13
1.37389e-05
1.65568e-12
1.37389e-05
2.25463e-12
1.37389e-05
2.12867e-12
1.37389e-05
1.66027e-12
1.37389e-05
1.51747e-12
1.37389e-05
1.64637e-12
1.37389e-05
1.72558e-12
1.37389e-05
1.12769e-12
1.37389e-05
-6.8152e-14
1.37389e-05
-1.03367e-12
1.37389e-05
-1.24307e-12
1.37389e-05
-6.425e-13
1.37389e-05
-2.84847e-14
1.37389e-05
2.88594e-14
1.37389e-05
-4.77151e-13
1.37389e-05
-9.49129e-13
1.37389e-05
-6.72376e-13
1.37389e-05
2.20281e-13
1.37389e-05
1.0277e-12
1.37389e-05
1.20472e-12
1.37389e-05
8.93505e-13
1.37389e-05
7.38162e-13
1.37389e-05
1.20485e-12
1.37389e-05
2.02531e-12
1.37389e-05
2.44549e-12
1.37389e-05
1.99563e-12
1.37389e-05
9.60911e-13
1.37389e-05
1.93682e-13
1.37389e-05
1.03072e-14
1.37389e-05
1.95355e-13
1.37389e-05
1.34426e-13
1.37389e-05
-4.17676e-13
1.37389e-05
-1.25661e-12
1.37389e-05
-1.61114e-12
1.37389e-05
-1.26149e-12
1.37389e-05
-5.84466e-13
1.37389e-05
-1.63917e-13
1.37389e-05
-2.32009e-13
1.37389e-05
-4.52594e-13
1.37389e-05
-1.88213e-13
1.37389e-05
6.01217e-13
1.37389e-05
1.36769e-12
1.37389e-05
1.71955e-12
1.37389e-05
1.50784e-12
1.37389e-05
1.10111e-12
1.37389e-05
1.00078e-12
1.37389e-05
1.28635e-12
1.37389e-05
1.58568e-12
1.37389e-05
1.45298e-12
1.37389e-05
8.49719e-13
1.37389e-05
1.44713e-13
1.37389e-05
-2.16931e-13
1.37389e-05
-2.62473e-13
1.37389e-05
-2.9918e-13
1.37389e-05
-5.43892e-13
1.37389e-05
-8.55473e-13
1.37389e-05
-9.86393e-13
1.37389e-05
-6.78417e-13
1.37389e-05
-1.44641e-13
1.37389e-05
2.79575e-13
1.37389e-05
5.84243e-13
1.37389e-05
1.11142e-12
1.37389e-05
2.24125e-12
1.37389e-05
3.94583e-12
1.37389e-05
5.86781e-12
1.37389e-05
7.84036e-12
1.37389e-05
8.83569e-12
7.65436e-12
1.65914e-05
-6.50216e-12
1.65914e-05
-5.39182e-12
1.65914e-05
-2.71591e-12
1.65914e-05
-1.24601e-12
1.65914e-05
-6.36848e-13
1.65914e-05
3.50429e-13
1.65914e-05
1.2962e-12
1.65914e-05
2.02518e-12
1.65914e-05
2.37216e-12
1.65914e-05
2.20325e-12
1.65914e-05
1.63113e-12
1.65914e-05
8.48258e-13
1.65914e-05
1.92066e-13
1.65914e-05
-5.99657e-14
1.65914e-05
1.57166e-13
1.65914e-05
6.3396e-13
1.65914e-05
9.26356e-13
1.65914e-05
7.22413e-13
1.65914e-05
4.11355e-14
1.65914e-05
-7.44358e-13
1.65914e-05
-1.22065e-12
1.65914e-05
-1.33037e-12
1.65914e-05
-1.38688e-12
1.65914e-05
-1.71301e-12
1.65914e-05
-2.23117e-12
1.65914e-05
-2.53242e-12
1.65914e-05
-2.19457e-12
1.65914e-05
-1.25791e-12
1.65914e-05
-1.50291e-13
1.65914e-05
6.70127e-13
1.65914e-05
9.85061e-13
1.65914e-05
1.22751e-12
1.65914e-05
1.658e-12
1.65914e-05
2.26809e-12
1.65914e-05
2.64343e-12
1.65914e-05
2.42125e-12
1.65914e-05
1.71596e-12
1.65914e-05
1.0598e-12
1.65914e-05
7.64331e-13
1.65914e-05
6.79791e-13
1.65914e-05
3.50224e-13
1.65914e-05
-3.95618e-13
1.65914e-05
-1.28334e-12
1.65914e-05
-1.77555e-12
1.65914e-05
-1.63099e-12
1.65914e-05
-1.0913e-12
1.65914e-05
-6.7076e-13
1.65914e-05
-5.76543e-13
1.65914e-05
-6.05086e-13
1.65914e-05
-2.40204e-13
1.65914e-05
4.62119e-13
1.65914e-05
1.3308e-12
1.65914e-05
1.81341e-12
1.65914e-05
1.78983e-12
1.65914e-05
1.58626e-12
1.65914e-05
1.61788e-12
1.65914e-05
1.95204e-12
1.65914e-05
2.22385e-12
1.65914e-05
1.98599e-12
1.65914e-05
1.22691e-12
1.65914e-05
3.62196e-13
1.65914e-05
-2.71411e-13
1.65914e-05
-4.96543e-13
1.65914e-05
-6.70048e-13
1.65914e-05
-1.15108e-12
1.65914e-05
-1.85131e-12
1.65914e-05
-2.35774e-12
1.65914e-05
-2.36594e-12
1.65914e-05
-1.89677e-12
1.65914e-05
-1.37283e-12
1.65914e-05
-9.5035e-13
1.65914e-05
-6.34619e-13
1.65914e-05
-2.18161e-13
1.65914e-05
4.47356e-13
1.65914e-05
1.22718e-12
1.65914e-05
1.78944e-12
1.65914e-05
1.93981e-12
1.65914e-05
1.75316e-12
1.65914e-05
1.4936e-12
1.65914e-05
1.32167e-12
1.65914e-05
1.23501e-12
1.65914e-05
1.06571e-12
1.65914e-05
6.79336e-13
1.65914e-05
1.70845e-13
1.65914e-05
-3.52789e-13
1.65914e-05
-7.12806e-13
1.65914e-05
-9.427e-13
1.65914e-05
-1.14323e-12
1.65914e-05
-1.32959e-12
1.65914e-05
-1.36958e-12
1.65914e-05
-1.12694e-12
1.65914e-05
-6.22665e-13
1.65914e-05
1.81793e-13
1.65914e-05
1.11274e-12
1.65914e-05
2.21985e-12
1.65914e-05
3.69431e-12
1.65914e-05
5.40087e-12
1.65914e-05
6.85306e-12
1.65914e-05
7.47575e-12
6.61365e-12
1.80123e-05
-1.17724e-12
1.80123e-05
-8.77081e-14
1.80123e-05
1.75924e-12
1.80123e-05
2.64672e-12
1.80123e-05
2.31856e-12
1.80122e-05
2.3072e-12
1.80122e-05
2.2561e-12
1.80122e-05
1.59584e-12
1.80122e-05
8.62456e-13
1.80122e-05
4.67836e-13
1.80122e-05
3.29611e-13
1.80122e-05
2.5973e-13
1.80122e-05
1.86118e-13
1.80122e-05
8.98428e-14
1.80122e-05
3.0162e-15
1.80122e-05
-1.09729e-14
1.80122e-05
6.49996e-14
1.80122e-05
1.57164e-13
1.80122e-05
1.30121e-13
1.80122e-05
-1.29443e-13
1.80122e-05
-5.97929e-13
1.80122e-05
-1.03406e-12
1.80122e-05
-1.20826e-12
1.80122e-05
-1.12163e-12
1.80122e-05
-9.71131e-13
1.80122e-05
-8.96661e-13
1.80122e-05
-8.30103e-13
1.80122e-05
-5.42566e-13
1.80122e-05
8.29852e-14
1.80122e-05
8.3986e-13
1.80122e-05
1.39071e-12
1.80123e-05
1.60403e-12
1.80123e-05
1.69531e-12
1.80123e-05
1.8876e-12
1.80123e-05
2.16826e-12
1.80123e-05
2.27826e-12
1.80123e-05
1.90972e-12
1.80123e-05
1.10001e-12
1.80123e-05
2.48337e-13
1.80123e-05
-2.61665e-13
1.80123e-05
-4.54569e-13
1.80123e-05
-6.35774e-13
1.80123e-05
-1.05502e-12
1.80123e-05
-1.68586e-12
1.80123e-05
-2.13172e-12
1.80123e-05
-2.13462e-12
1.80123e-05
-1.73112e-12
1.80123e-05
-1.3192e-12
1.80123e-05
-9.55769e-13
1.80123e-05
-6.37773e-13
1.80123e-05
-1.40498e-13
1.80123e-05
6.61829e-13
1.80123e-05
1.58435e-12
1.80123e-05
2.20668e-12
1.80123e-05
2.361e-12
1.80123e-05
2.19544e-12
1.80123e-05
2.03008e-12
1.80123e-05
1.99927e-12
1.80123e-05
1.95023e-12
1.80123e-05
1.60658e-12
1.80123e-05
9.05505e-13
1.80123e-05
5.01221e-14
1.80123e-05
-6.58517e-13
1.80123e-05
-1.07489e-12
1.80123e-05
-1.36982e-12
1.80123e-05
-1.77603e-12
1.80123e-05
-2.24007e-12
1.80123e-05
-2.51004e-12
1.80123e-05
-2.35725e-12
1.80123e-05
-1.75015e-12
1.80123e-05
-1.0119e-12
1.80123e-05
-3.37556e-13
1.80123e-05
1.12001e-13
1.80123e-05
4.63987e-13
1.80123e-05
9.01164e-13
1.80123e-05
1.37968e-12
1.80123e-05
1.72577e-12
1.80123e-05
1.78291e-12
1.80123e-05
1.54242e-12
1.80123e-05
1.12301e-12
1.80123e-05
6.84365e-13
1.80123e-05
3.36585e-13
1.80123e-05
5.89035e-14
1.80123e-05
-2.89113e-13
1.80123e-05
-7.87043e-13
1.80123e-05
-1.33334e-12
1.80123e-05
-1.68438e-12
1.80123e-05
-1.66985e-12
1.80123e-05
-1.37932e-12
1.80123e-05
-1.04365e-12
1.80123e-05
-7.78184e-13
1.80123e-05
-4.62064e-13
1.80123e-05
1.18319e-13
1.80123e-05
9.62116e-13
1.80123e-05
1.90983e-12
1.80123e-05
2.94529e-12
1.80123e-05
4.21105e-12
1.80123e-05
4.68931e-12
1.80123e-05
4.27124e-12
3.65905e-12
1.80123e-05
3.63185e-12
1.80123e-05
5.7094e-12
1.80123e-05
6.01287e-12
1.80123e-05
5.36059e-12
1.80123e-05
4.30321e-12
1.80122e-05
3.25305e-12
1.80122e-05
2.43319e-12
1.80122e-05
1.32991e-12
1.80122e-05
2.64954e-13
1.80122e-05
-2.25937e-13
1.80122e-05
-1.66958e-13
1.80122e-05
1.01601e-13
1.80122e-05
3.94842e-13
1.80122e-05
6.52692e-13
1.80122e-05
8.09851e-13
1.80122e-05
7.97149e-13
1.80123e-05
6.46728e-13
1.80123e-05
3.97312e-13
1.80123e-05
2.9167e-14
1.80123e-05
-3.51299e-13
1.80122e-05
-7.44358e-13
1.80122e-05
-1.20578e-12
1.80122e-05
-1.52618e-12
1.80122e-05
-1.54375e-12
1.80122e-05
-1.30792e-12
1.80122e-05
-1.01937e-12
1.80122e-05
-8.10845e-13
1.80122e-05
-6.37291e-13
1.80122e-05
-2.44177e-13
1.80122e-05
4.72181e-13
1.80123e-05
1.25592e-12
1.80123e-05
1.80954e-12
1.80123e-05
1.93011e-12
1.80123e-05
1.80649e-12
1.80123e-05
1.71561e-12
1.80123e-05
1.77615e-12
1.80123e-05
1.84047e-12
1.80123e-05
1.62882e-12
1.80123e-05
1.06398e-12
1.80123e-05
4.15007e-13
1.80123e-05
-1.45912e-13
1.80123e-05
-4.76383e-13
1.80123e-05
-8.01061e-13
1.80123e-05
-1.30715e-12
1.80123e-05
-1.85754e-12
1.80123e-05
-2.19485e-12
1.80123e-05
-2.06224e-12
1.80123e-05
-1.48755e-12
1.80123e-05
-8.0271e-13
1.80123e-05
-2.3945e-13
1.80123e-05
1.08979e-13
1.80123e-05
4.76813e-13
1.80123e-05
1.04867e-12
1.80123e-05
1.69651e-12
1.80123e-05
2.13891e-12
1.80123e-05
2.18502e-12
1.80123e-05
1.90823e-12
1.80123e-05
1.57844e-12
1.80123e-05
1.34761e-12
1.80123e-05
1.12583e-12
1.80123e-05
7.07806e-13
1.80123e-05
-3.1921e-14
1.80123e-05
-7.93523e-13
1.80123e-05
-1.42145e-12
1.80123e-05
-1.66002e-12
1.80123e-05
-1.61921e-12
1.80123e-05
-1.54283e-12
1.80123e-05
-1.48817e-12
1.80123e-05
-1.37706e-12
1.80123e-05
-1.04616e-12
1.80123e-05
-4.34316e-13
1.80123e-05
2.63454e-13
1.80123e-05
8.08204e-13
1.80123e-05
1.13307e-12
1.80123e-05
1.35611e-12
1.80123e-05
1.60032e-12
1.80123e-05
1.80032e-12
1.80123e-05
1.7971e-12
1.80123e-05
1.48753e-12
1.80123e-05
9.78614e-13
1.80123e-05
4.98393e-13
1.80123e-05
2.33021e-13
1.80123e-05
1.37792e-13
1.80123e-05
-5.07716e-15
1.80123e-05
-4.25159e-13
1.80123e-05
-9.7727e-13
1.80123e-05
-1.42149e-12
1.80123e-05
-1.41785e-12
1.80123e-05
-9.9811e-13
1.80123e-05
-4.97803e-13
1.80123e-05
-2.30391e-13
1.80123e-05
-1.56312e-13
1.80123e-05
-1.39869e-13
1.80123e-05
9.68819e-14
1.80123e-05
5.29476e-13
1.80123e-05
8.24585e-13
1.80123e-05
1.36084e-12
1.80123e-05
1.23095e-12
1.80123e-05
4.08675e-13
4.88614e-14
1.65914e-05
5.79734e-12
1.65914e-05
8.64279e-12
1.65914e-05
8.41968e-12
1.65914e-05
6.55257e-12
1.65914e-05
4.90452e-12
1.65914e-05
3.22595e-12
1.65914e-05
1.80254e-12
1.65914e-05
9.2186e-13
1.65914e-05
6.92609e-13
1.65914e-05
9.03239e-13
1.65914e-05
1.13154e-12
1.65914e-05
1.08619e-12
1.65914e-05
8.49437e-13
1.65914e-05
6.84605e-13
1.65914e-05
6.31538e-13
1.65914e-05
4.85682e-13
1.65914e-05
1.442e-13
1.65914e-05
-3.13798e-13
1.65914e-05
-6.82786e-13
1.65914e-05
-8.39612e-13
1.65914e-05
-9.12316e-13
1.65914e-05
-1.0637e-12
1.65914e-05
-1.31265e-12
1.65914e-05
-1.46814e-12
1.65914e-05
-1.35251e-12
1.65914e-05
-1.02478e-12
1.65914e-05
-6.68084e-13
1.65914e-05
-4.57686e-13
1.65914e-05
-3.47691e-13
1.65914e-05
-8.55075e-14
1.65914e-05
4.77101e-13
1.65914e-05
1.27261e-12
1.65914e-05
1.90782e-12
1.65914e-05
2.12262e-12
1.65914e-05
1.99815e-12
1.65914e-05
1.83886e-12
1.65914e-05
1.82413e-12
1.65914e-05
1.88048e-12
1.65914e-05
1.72305e-12
1.65914e-05
1.1363e-12
1.65914e-05
4.1249e-13
1.65914e-05
-2.25874e-13
1.65914e-05
-5.26288e-13
1.65914e-05
-6.10957e-13
1.65914e-05
-7.56887e-13
1.65914e-05
-1.04423e-12
1.65914e-05
-1.28985e-12
1.65914e-05
-1.19234e-12
1.65914e-05
-6.50986e-13
1.65914e-05
4.92505e-14
1.65914e-05
5.43445e-13
1.65914e-05
6.93664e-13
1.65914e-05
7.1595e-13
1.65914e-05
8.76199e-13
1.65914e-05
1.2108e-12
1.65914e-05
1.48366e-12
1.65914e-05
1.40848e-12
1.65914e-05
9.85508e-13
1.65914e-05
4.95785e-13
1.65914e-05
2.16622e-13
1.65914e-05
1.5691e-13
1.65914e-05
5.98702e-14
1.65914e-05
-2.26991e-13
1.65914e-05
-7.24812e-13
1.65914e-05
-1.10764e-12
1.65914e-05
-1.11436e-12
1.65914e-05
-8.21098e-13
1.65914e-05
-4.90257e-13
1.65914e-05
-2.96762e-13
1.65914e-05
-2.2324e-13
1.65914e-05
-5.73573e-14
1.65914e-05
3.60126e-13
1.65914e-05
9.05817e-13
1.65914e-05
1.31588e-12
1.65914e-05
1.44149e-12
1.65914e-05
1.35705e-12
1.65914e-05
1.2356e-12
1.65914e-05
1.15402e-12
1.65914e-05
1.01606e-12
1.65914e-05
7.43767e-13
1.65914e-05
4.07222e-13
1.65914e-05
1.89004e-13
1.65914e-05
1.46124e-13
1.65914e-05
9.90184e-14
1.65914e-05
-1.44595e-13
1.65914e-05
-5.36382e-13
1.65914e-05
-7.58176e-13
1.65914e-05
-6.07123e-13
1.65914e-05
-2.053e-13
1.65914e-05
6.04865e-14
1.65914e-05
-3.73217e-14
1.65914e-05
-3.47479e-13
1.65914e-05
-6.50894e-13
1.65914e-05
-8.00777e-13
1.65914e-05
-7.24531e-13
1.65914e-05
-8.91798e-13
1.65914e-05
-1.1661e-12
1.65914e-05
-2.28898e-12
1.65914e-05
-3.54044e-12
-3.04149e-12
1.37389e-05
5.31737e-12
1.37389e-05
7.14192e-12
1.37389e-05
6.57664e-12
1.37389e-05
4.56488e-12
1.37389e-05
3.10143e-12
1.37389e-05
2.13933e-12
1.37389e-05
1.44941e-12
1.37389e-05
1.18825e-12
1.37389e-05
1.40327e-12
1.37389e-05
1.64262e-12
1.37389e-05
1.54738e-12
1.37389e-05
9.78202e-13
1.37389e-05
2.38625e-13
1.37389e-05
-2.82565e-13
1.37389e-05
-4.02498e-13
1.37389e-05
-3.0189e-13
1.37389e-05
-2.54724e-13
1.37389e-05
-3.56457e-13
1.37389e-05
-4.84761e-13
1.37389e-05
-3.90614e-13
1.37389e-05
-6.16971e-14
1.37389e-05
2.3778e-13
1.37389e-05
1.61386e-13
1.37389e-05
-3.63021e-13
1.37389e-05
-1.05962e-12
1.37389e-05
-1.52152e-12
1.37389e-05
-1.52765e-12
1.37389e-05
-1.15957e-12
1.37389e-05
-5.54006e-13
1.37389e-05
7.03116e-14
1.37389e-05
6.51842e-13
1.37389e-05
1.28003e-12
1.37389e-05
1.86709e-12
1.37389e-05
2.22385e-12
1.37389e-05
2.14443e-12
1.37389e-05
1.67643e-12
1.37389e-05
1.16736e-12
1.37389e-05
9.05194e-13
1.37389e-05
8.85546e-13
1.37389e-05
8.96228e-13
1.37389e-05
6.35449e-13
1.37389e-05
7.0913e-14
1.37389e-05
-5.1374e-13
1.37389e-05
-8.1372e-13
1.37389e-05
-8.0462e-13
1.37389e-05
-7.2449e-13
1.37389e-05
-7.85517e-13
1.37389e-05
-9.41061e-13
1.37389e-05
-9.30078e-13
1.37389e-05
-5.82609e-13
1.37389e-05
-7.5094e-15
1.37389e-05
4.32611e-13
1.37389e-05
5.26472e-13
1.37389e-05
3.76168e-13
1.37389e-05
2.64898e-13
1.37389e-05
3.67087e-13
1.37389e-05
5.71561e-13
1.37389e-05
6.15634e-13
1.37389e-05
3.84841e-13
1.37389e-05
1.08016e-14
1.37389e-05
-2.33394e-13
1.37389e-05
-2.38657e-13
1.37389e-05
-5.79327e-14
1.37389e-05
4.49598e-14
1.37389e-05
-2.1835e-14
1.37389e-05
-1.044e-13
1.37389e-05
-2.8093e-14
1.37389e-05
2.05445e-13
1.37389e-05
4.48495e-13
1.37389e-05
5.35342e-13
1.37389e-05
4.34055e-13
1.37389e-05
3.41189e-13
1.37389e-05
4.73449e-13
1.37389e-05
8.27235e-13
1.37389e-05
1.16467e-12
1.37389e-05
1.20722e-12
1.37389e-05
8.81281e-13
1.37389e-05
3.83181e-13
1.37389e-05
-3.35686e-15
1.37389e-05
-1.30929e-13
1.37389e-05
-6.32471e-14
1.37389e-05
2.20404e-14
1.37389e-05
-1.16498e-14
1.37389e-05
-1.81856e-13
1.37389e-05
-3.81592e-13
1.37389e-05
-4.52783e-13
1.37389e-05
-3.25431e-13
1.37389e-05
-8.19421e-14
1.37389e-05
1.13539e-13
1.37389e-05
1.61657e-13
1.37389e-05
-3.84248e-14
1.37389e-05
-2.54057e-13
1.37389e-05
-5.34616e-13
1.37389e-05
-9.74139e-13
1.37389e-05
-1.28688e-12
1.37389e-05
-1.73697e-12
1.37389e-05
-1.91014e-12
1.37389e-05
-2.41547e-12
1.37389e-05
-3.72486e-12
-3.57447e-12
9.43427e-06
2.97272e-12
9.43427e-06
3.42376e-12
9.43427e-06
3.16953e-12
9.43427e-06
2.20195e-12
9.43428e-06
1.00561e-12
9.43428e-06
1.13819e-13
9.43428e-06
-1.73282e-13
9.43428e-06
4.87017e-14
9.43428e-06
3.25923e-13
9.43428e-06
2.64306e-13
9.43428e-06
-6.86566e-14
9.43428e-06
-3.62223e-13
9.43428e-06
-4.45897e-13
9.43428e-06
-3.24003e-13
9.43428e-06
-1.13214e-13
9.43428e-06
5.25461e-14
9.43428e-06
1.04618e-13
9.43428e-06
6.32261e-14
9.43428e-06
-2.59451e-14
9.43428e-06
-1.52038e-13
9.43428e-06
-2.32137e-13
9.43428e-06
-3.09331e-13
9.43428e-06
-4.26779e-13
9.43428e-06
-5.68182e-13
9.43428e-06
-6.49917e-13
9.43428e-06
-5.74322e-13
9.43428e-06
-2.50857e-13
9.43428e-06
2.11359e-13
9.43428e-06
6.02457e-13
9.43428e-06
7.83306e-13
9.43428e-06
7.14296e-13
9.43428e-06
5.16903e-13
9.43428e-06
3.96678e-13
9.43428e-06
4.2615e-13
9.43429e-06
5.56934e-13
9.43429e-06
6.83515e-13
9.43429e-06
7.57044e-13
9.43429e-06
7.75829e-13
9.43429e-06
7.37949e-13
9.43429e-06
6.1227e-13
9.43429e-06
3.72337e-13
9.43429e-06
-3.11626e-15
9.43429e-06
-3.78519e-13
9.43429e-06
-6.88141e-13
9.43429e-06
-7.98865e-13
9.43429e-06
-7.32021e-13
9.43428e-06
-6.13388e-13
9.43428e-06
-5.27053e-13
9.43428e-06
-4.66032e-13
9.43428e-06
-3.59443e-13
9.43428e-06
-2.11322e-13
9.43428e-06
-5.96058e-14
9.43428e-06
1.47838e-14
9.43428e-06
-2.78421e-14
9.43428e-06
-1.28921e-13
9.43428e-06
-1.91782e-13
9.43428e-06
-1.85264e-13
9.43428e-06
-1.62863e-13
9.43428e-06
-1.7037e-13
9.43428e-06
-2.18365e-13
9.43428e-06
-2.39488e-13
9.43428e-06
-1.66648e-13
9.43428e-06
3.25057e-14
9.43428e-06
2.709e-13
9.43428e-06
4.26063e-13
9.43428e-06
4.55654e-13
9.43428e-06
4.26096e-13
9.43428e-06
4.19791e-13
9.43428e-06
4.63342e-13
9.43428e-06
5.39496e-13
9.43428e-06
5.98019e-13
9.43428e-06
6.18007e-13
9.43429e-06
6.18692e-13
9.43429e-06
6.22783e-13
9.43429e-06
6.26505e-13
9.43429e-06
5.29011e-13
9.43429e-06
3.20588e-13
9.43429e-06
2.34435e-14
9.43429e-06
-2.01835e-13
9.43429e-06
-1.93173e-13
9.43429e-06
2.13471e-14
9.43429e-06
1.93171e-13
9.43429e-06
1.11419e-13
9.43429e-06
-1.80093e-13
9.43429e-06
-3.99904e-13
9.43429e-06
-2.81486e-13
9.43429e-06
8.08277e-14
9.43429e-06
3.03071e-13
9.43429e-06
1.20822e-13
9.43428e-06
-3.23699e-13
9.43428e-06
-7.3742e-13
9.43428e-06
-8.87989e-13
9.43428e-06
-8.00572e-13
9.43428e-06
-7.00722e-13
9.43428e-06
-6.40946e-13
9.43428e-06
-1.03226e-12
9.43428e-06
-1.8682e-12
9.43428e-06
-1.80152e-12
9.43428e-06
-2.02893e-12
-2.12322e-12
3.64927e-06
3.64927e-06
3.64927e-06
3.64927e-06
3.64928e-06
3.64928e-06
3.64928e-06
3.64927e-06
3.64927e-06
3.64927e-06
3.64927e-06
3.64927e-06
3.64927e-06
3.64927e-06
3.64927e-06
3.64927e-06
3.64927e-06
3.64927e-06
3.64927e-06
3.64927e-06
3.64927e-06
3.64927e-06
3.64927e-06
3.64927e-06
3.64927e-06
3.64927e-06
3.64927e-06
3.64927e-06
3.64927e-06
3.64927e-06
3.64928e-06
3.64928e-06
3.64928e-06
3.64928e-06
3.64928e-06
3.64928e-06
3.64928e-06
3.64928e-06
3.64928e-06
3.64928e-06
3.64928e-06
3.64928e-06
3.64928e-06
3.64928e-06
3.64928e-06
3.64928e-06
3.64928e-06
3.64928e-06
3.64928e-06
3.64928e-06
3.64928e-06
3.64927e-06
3.64927e-06
3.64927e-06
3.64927e-06
3.64927e-06
3.64927e-06
3.64927e-06
3.64927e-06
3.64927e-06
3.64928e-06
3.64928e-06
3.64928e-06
3.64928e-06
3.64928e-06
3.64928e-06
3.64928e-06
3.64928e-06
3.64928e-06
3.64928e-06
3.64928e-06
3.64928e-06
3.64928e-06
3.64928e-06
3.64928e-06
3.64928e-06
3.64928e-06
3.64928e-06
3.64928e-06
3.64928e-06
3.64928e-06
3.64928e-06
3.64928e-06
3.64928e-06
3.64928e-06
3.64928e-06
3.64928e-06
3.64928e-06
3.64928e-06
3.64928e-06
3.64927e-06
3.64927e-06
3.64927e-06
3.64927e-06
3.64927e-06
3.64928e-06
3.64927e-06
3.64927e-06
3.64927e-06
)
;

boundaryField
{
    inlet
    {
        type            calculated;
        value           nonuniform List<scalar> 10(-3.64927e-06 -9.43427e-06 -1.37389e-05 -1.65914e-05 -1.80123e-05 -1.80123e-05 -1.65914e-05 -1.37389e-05 -9.43426e-06 -3.64926e-06);
    }
    outlet
    {
        type            calculated;
        value           nonuniform List<scalar> 10(3.64926e-06 9.43426e-06 1.37389e-05 1.65914e-05 1.80123e-05 1.80123e-05 1.65914e-05 1.37389e-05 9.43428e-06 3.64927e-06);
    }
    walls
    {
        type            calculated;
        value           uniform 0;
    }
    frontAndBack
    {
        type            empty;
    }
}


// ************************************************************************* //
