/*--------------------------------*- C++ -*----------------------------------*\
| =========                 |                                                 |
| \\      /  F ield         | OpenFOAM: The Open Source CFD Toolbox           |
|  \\    /   O peration     | Version:  2406                                  |
|   \\  /    A nd           | Website:  www.openfoam.com                      |
|    \\/     M anipulation  |                                                 |
\*---------------------------------------------------------------------------*/
FoamFile
{
    version     2.0;
    format      ascii;
    arch        "LSB;label=32;scalar=64";
    class       volVectorField;
    location    "0.3";
    object      U;
}
// * * * * * * * * * * * * * * * * * * * * * * * * * * * * * * * * * * * * * //

dimensions      [0 1 -1 0 0 0 0];

internalField   nonuniform List<vector> 
1000
(
(0.0364927 -2.52196e-08 0)
(0.0364927 -2.66184e-08 0)
(0.0364928 -1.98739e-08 0)
(0.0364928 -1.25063e-08 0)
(0.0364928 -8.44689e-09 0)
(0.0364928 -7.30033e-09 0)
(0.0364928 -3.67352e-09 0)
(0.0364928 9.6213e-10 0)
(0.0364928 1.81658e-09 0)
(0.0364928 5.96621e-10 0)
(0.0364928 1.16976e-09 0)
(0.0364927 4.08731e-09 0)
(0.0364927 6.32705e-09 0)
(0.0364927 4.91294e-09 0)
(0.0364927 1.00329e-09 0)
(0.0364927 -1.07313e-09 0)
(0.0364927 1.207e-09 0)
(0.0364927 5.41491e-09 0)
(0.0364927 6.9079e-09 0)
(0.0364927 3.50025e-09 0)
(0.0364927 -2.5787e-09 0)
(0.0364927 -6.62631e-09 0)
(0.0364927 -6.20281e-09 0)
(0.0364927 -2.8398e-09 0)
(0.0364927 -2.99861e-10 0)
(0.0364927 -9.13668e-10 0)
(0.0364927 -3.57685e-09 0)
(0.0364927 -5.20202e-09 0)
(0.0364927 -3.73223e-09 0)
(0.0364928 -1.13542e-10 0)
(0.0364928 2.26281e-09 0)
(0.0364928 1.19312e-09 0)
(0.0364928 -2.0829e-09 0)
(0.0364928 -4.18502e-09 0)
(0.0364928 -3.02757e-09 0)
(0.0364928 3.42753e-11 0)
(0.0364928 1.74562e-09 0)
(0.0364928 6.35171e-10 0)
(0.0364928 -1.31958e-09 0)
(0.0364928 -7.75647e-10 0)
(0.0364928 2.74428e-09 0)
(0.0364928 6.44498e-09 0)
(0.0364928 6.64327e-09 0)
(0.0364928 2.83696e-09 0)
(0.0364928 -1.37169e-09 0)
(0.0364928 -2.07027e-09 0)
(0.0364928 1.40308e-09 0)
(0.0364928 5.45806e-09 0)
(0.0364928 6.04779e-09 0)
(0.0364928 3.0671e-09 0)
(0.0364928 -2.37523e-11 0)
(0.0364928 5.16016e-11 0)
(0.0364928 3.00712e-09 0)
(0.0364927 5.49661e-09 0)
(0.0364927 4.58952e-09 0)
(0.0364927 6.77257e-10 0)
(0.0364927 -2.61518e-09 0)
(0.0364927 -2.03225e-09 0)
(0.0364927 1.4161e-09 0)
(0.0364927 3.81223e-09 0)
(0.0364927 2.43933e-09 0)
(0.0364927 -1.63259e-09 0)
(0.0364927 -4.59486e-09 0)
(0.0364927 -3.85325e-09 0)
(0.0364927 -5.72097e-10 0)
(0.0364927 1.49223e-09 0)
(0.0364928 3.57022e-10 0)
(0.0364928 -2.43561e-09 0)
(0.0364928 -3.91237e-09 0)
(0.0364928 -2.41525e-09 0)
(0.0364928 7.14368e-10 0)
(0.0364928 2.11888e-09 0)
(0.0364928 6.77466e-10 0)
(0.0364928 -1.8571e-09 0)
(0.0364928 -2.58614e-09 0)
(0.0364928 -4.97217e-10 0)
(0.0364928 2.54013e-09 0)
(0.0364928 3.82458e-09 0)
(0.0364928 2.37689e-09 0)
(0.0364928 -1.03817e-10 0)
(0.0364928 -8.53715e-10 0)
(0.0364928 9.20006e-10 0)
(0.0364928 3.40638e-09 0)
(0.0364928 4.33408e-09 0)
(0.0364928 2.9925e-09 0)
(0.0364928 6.66382e-10 0)
(0.0364928 -6.24277e-10 0)
(0.0364928 -1.18597e-10 0)
(0.0364928 1.15669e-09 0)
(0.0364928 1.73521e-09 0)
(0.0364928 1.12428e-09 0)
(0.0364928 8.35586e-11 0)
(0.0364927 -1.88877e-10 0)
(0.0364927 8.58707e-10 0)
(0.0364927 2.70665e-09 0)
(0.0364927 4.50135e-09 0)
(0.0364927 6.66711e-09 0)
(0.0364927 1.07505e-08 0)
(0.0364927 1.61848e-08 0)
(0.0364926 1.90053e-08 0)
(0.0943427 -6.60501e-08 0)
(0.0943427 -6.98335e-08 0)
(0.0943428 -6.14236e-08 0)
(0.0943428 -4.81871e-08 0)
(0.0943428 -3.69691e-08 0)
(0.0943428 -2.59122e-08 0)
(0.0943428 -1.35276e-08 0)
(0.0943428 -6.25076e-10 0)
(0.0943428 6.18203e-09 0)
(0.0943428 9.22247e-09 0)
(0.0943428 1.19919e-08 0)
(0.0943428 1.56885e-08 0)
(0.0943428 1.82809e-08 0)
(0.0943427 1.65164e-08 0)
(0.0943427 1.14538e-08 0)
(0.0943427 7.43002e-09 0)
(0.0943428 7.11952e-09 0)
(0.0943428 8.31765e-09 0)
(0.0943428 6.49975e-09 0)
(0.0943428 -3.28202e-10 0)
(0.0943428 -9.90471e-09 0)
(0.0943428 -1.67271e-08 0)
(0.0943428 -1.66162e-08 0)
(0.0943428 -1.04132e-08 0)
(0.0943428 -3.5995e-09 0)
(0.0943428 -1.47508e-09 0)
(0.0943428 -4.83513e-09 0)
(0.0943428 -9.37713e-09 0)
(0.0943428 -9.4538e-09 0)
(0.0943428 -3.70386e-09 0)
(0.0943428 2.90197e-09 0)
(0.0943428 4.25903e-09 0)
(0.0943428 -1.52578e-10 0)
(0.0943428 -4.9881e-09 0)
(0.0943428 -4.05083e-09 0)
(0.0943428 3.36132e-09 0)
(0.0943428 1.12813e-08 0)
(0.0943428 1.28873e-08 0)
(0.0943428 8.18758e-09 0)
(0.0943429 3.3042e-09 0)
(0.0943429 3.30494e-09 0)
(0.0943428 7.73032e-09 0)
(0.0943428 1.04322e-08 0)
(0.0943428 6.84549e-09 0)
(0.0943428 -6.42269e-10 0)
(0.0943428 -4.79481e-09 0)
(0.0943428 -8.60032e-10 0)
(0.0943428 7.95171e-09 0)
(0.0943428 1.35157e-08 0)
(0.0943428 1.10671e-08 0)
(0.0943428 3.95785e-09 0)
(0.0943428 -2.09057e-10 0)
(0.0943428 2.76095e-09 0)
(0.0943428 9.56246e-09 0)
(0.0943428 1.27456e-08 0)
(0.0943428 8.81357e-09 0)
(0.0943428 1.46127e-09 0)
(0.0943428 -2.09197e-09 0)
(0.0943428 8.82698e-10 0)
(0.0943428 6.05573e-09 0)
(0.0943428 6.33146e-09 0)
(0.0943428 -7.55795e-11 0)
(0.0943428 -8.22158e-09 0)
(0.0943428 -1.09595e-08 0)
(0.0943428 -6.27128e-09 0)
(0.0943428 3.20649e-10 0)
(0.0943428 2.48049e-09 0)
(0.0943428 -8.09692e-10 0)
(0.0943428 -5.26517e-09 0)
(0.0943428 -5.44335e-09 0)
(0.0943429 -1.50451e-10 0)
(0.0943429 5.5596e-09 0)
(0.0943429 6.63503e-09 0)
(0.0943429 3.13565e-09 0)
(0.0943429 -3.03242e-10 0)
(0.0943429 5.1873e-10 0)
(0.0943429 5.40762e-09 0)
(0.0943429 9.88194e-09 0)
(0.0943429 9.68289e-09 0)
(0.0943429 5.37514e-09 0)
(0.0943429 1.57529e-09 0)
(0.0943429 1.91123e-09 0)
(0.0943429 5.5801e-09 0)
(0.0943429 8.2785e-09 0)
(0.0943429 6.58472e-09 0)
(0.0943428 1.34996e-09 0)
(0.0943428 -3.28798e-09 0)
(0.0943428 -3.84212e-09 0)
(0.0943428 -8.88475e-10 0)
(0.0943428 2.14792e-09 0)
(0.0943428 2.48516e-09 0)
(0.0943428 6.77881e-10 0)
(0.0943428 9.11806e-12 0)
(0.0943428 3.24914e-09 0)
(0.0943428 1.01658e-08 0)
(0.0943428 1.82674e-08 0)
(0.0943427 2.76916e-08 0)
(0.0943427 4.14942e-08 0)
(0.0943427 5.34919e-08 0)
(0.0943427 5.41318e-08 0)
(0.137389 -9.48254e-08 0)
(0.137389 -9.78476e-08 0)
(0.137389 -8.55861e-08 0)
(0.137389 -6.88455e-08 0)
(0.137389 -5.32491e-08 0)
(0.137389 -3.48441e-08 0)
(0.137389 -1.66668e-08 0)
(0.137389 5.9614e-10 0)
(0.137389 1.18389e-08 0)
(0.137389 1.9612e-08 0)
(0.137389 2.42222e-08 0)
(0.137389 2.43089e-08 0)
(0.137389 2.17207e-08 0)
(0.137389 1.93596e-08 0)
(0.137389 1.84557e-08 0)
(0.137389 1.69215e-08 0)
(0.137389 1.16598e-08 0)
(0.137389 2.79205e-09 0)
(0.137389 -6.23352e-09 0)
(0.137389 -1.16453e-08 0)
(0.137389 -1.34196e-08 0)
(0.137389 -1.43533e-08 0)
(0.137389 -1.57711e-08 0)
(0.137389 -1.60075e-08 0)
(0.137389 -1.3086e-08 0)
(0.137389 -7.87267e-09 0)
(0.137389 -3.78863e-09 0)
(0.137389 -3.44454e-09 0)
(0.137389 -5.51412e-09 0)
(0.137389 -5.48568e-09 0)
(0.137389 -6.1122e-10 0)
(0.137389 6.65869e-09 0)
(0.137389 1.15536e-08 0)
(0.137389 1.1756e-08 0)
(0.137389 9.98236e-09 0)
(0.137389 1.08992e-08 0)
(0.137389 1.61096e-08 0)
(0.137389 2.1015e-08 0)
(0.137389 1.96164e-08 0)
(0.137389 1.11306e-08 0)
(0.137389 5.1415e-10 0)
(0.137389 -5.249e-09 0)
(0.137389 -3.86248e-09 0)
(0.137389 3.1667e-10 0)
(0.137389 1.38668e-09 0)
(0.137389 -1.99418e-09 0)
(0.137389 -5.32125e-09 0)
(0.137389 -3.50789e-09 0)
(0.137389 3.47686e-09 0)
(0.137389 1.00211e-08 0)
(0.137389 1.09691e-08 0)
(0.137389 7.0216e-09 0)
(0.137389 4.01324e-09 0)
(0.137389 6.76494e-09 0)
(0.137389 1.36751e-08 0)
(0.137389 1.88963e-08 0)
(0.137389 1.75438e-08 0)
(0.137389 1.05136e-08 0)
(0.137389 3.60876e-09 0)
(0.137389 1.52509e-09 0)
(0.137389 3.0145e-09 0)
(0.137389 3.08868e-09 0)
(0.137389 -1.61889e-09 0)
(0.137389 -9.01754e-09 0)
(0.137389 -1.30003e-08 0)
(0.137389 -1.05818e-08 0)
(0.137389 -4.73016e-09 0)
(0.137389 -8.82136e-10 0)
(0.137389 -1.45236e-09 0)
(0.137389 -4.20319e-09 0)
(0.137389 -4.00524e-09 0)
(0.137389 1.51153e-09 0)
(0.137389 8.87515e-09 0)
(0.137389 1.30915e-08 0)
(0.137389 1.23022e-08 0)
(0.137389 9.23483e-09 0)
(0.137389 8.22768e-09 0)
(0.137389 1.07577e-08 0)
(0.137389 1.4057e-08 0)
(0.137389 1.43109e-08 0)
(0.137389 1.05115e-08 0)
(0.137389 5.29644e-09 0)
(0.137389 2.28169e-09 0)
(0.137389 2.17941e-09 0)
(0.137389 2.2923e-09 0)
(0.137389 -1.77399e-10 0)
(0.137389 -4.95185e-09 0)
(0.137389 -8.54394e-09 0)
(0.137389 -7.90129e-09 0)
(0.137389 -3.67888e-09 0)
(0.137389 5.58815e-10 0)
(0.137389 2.45153e-09 0)
(0.137389 3.76316e-09 0)
(0.137389 8.72219e-09 0)
(0.137389 1.99231e-08 0)
(0.137389 3.57025e-08 0)
(0.137389 5.34221e-08 0)
(0.137389 7.36821e-08 0)
(0.137389 8.55111e-08 0)
(0.137389 7.64368e-08 0)
(0.165914 -8.89563e-08 0)
(0.165914 -8.44708e-08 0)
(0.165914 -6.0818e-08 0)
(0.165914 -4.30258e-08 0)
(0.165914 -3.02118e-08 0)
(0.165914 -1.43573e-08 0)
(0.165914 3.65044e-10 0)
(0.165914 1.33881e-08 0)
(0.165914 2.08206e-08 0)
(0.165914 2.29768e-08 0)
(0.165914 2.14539e-08 0)
(0.165914 1.67161e-08 0)
(0.165914 1.09247e-08 0)
(0.165914 7.5923e-09 0)
(0.165914 8.3035e-09 0)
(0.165914 1.05653e-08 0)
(0.165914 9.57747e-09 0)
(0.165914 3.46536e-09 0)
(0.165914 -5.03977e-09 0)
(0.165914 -1.09692e-08 0)
(0.165914 -1.20638e-08 0)
(0.165914 -1.09678e-08 0)
(0.165914 -1.19504e-08 0)
(0.165914 -1.60578e-08 0)
(0.165914 -2.01092e-08 0)
(0.165914 -2.00285e-08 0)
(0.165914 -1.46448e-08 0)
(0.165914 -6.8685e-09 0)
(0.165914 -1.09574e-09 0)
(0.165914 1.36226e-09 0)
(0.165914 3.87038e-09 0)
(0.165914 9.5099e-09 0)
(0.165914 1.75241e-08 0)
(0.165914 2.37679e-08 0)
(0.165914 2.49416e-08 0)
(0.165914 2.11527e-08 0)
(0.165914 1.62419e-08 0)
(0.165914 1.37009e-08 0)
(0.165914 1.25106e-08 0)
(0.165914 9.22305e-09 0)
(0.165914 1.90606e-09 0)
(0.165914 -7.16416e-09 0)
(0.165914 -1.26948e-08 0)
(0.165914 -1.22659e-08 0)
(0.165914 -8.19046e-09 0)
(0.165914 -5.39986e-09 0)
(0.165914 -6.10681e-09 0)
(0.165914 -8.08638e-09 0)
(0.165914 -6.81666e-09 0)
(0.165914 -5.35232e-10 0)
(0.165914 7.82043e-09 0)
(0.165914 1.33487e-08 0)
(0.165914 1.43157e-08 0)
(0.165914 1.35067e-08 0)
(0.165914 1.48279e-08 0)
(0.165914 1.89674e-08 0)
(0.165914 2.26288e-08 0)
(0.165914 2.15933e-08 0)
(0.165914 1.50528e-08 0)
(0.165914 6.68822e-09 0)
(0.165914 1.13518e-09 0)
(0.165914 -7.2369e-10 0)
(0.165914 -1.80938e-09 0)
(0.165914 -5.86185e-09 0)
(0.165914 -1.25695e-08 0)
(0.165914 -1.79296e-08 0)
(0.165914 -1.86453e-08 0)
(0.165914 -1.52122e-08 0)
(0.165914 -1.05622e-08 0)
(0.165914 -7.65312e-09 0)
(0.165914 -6.57985e-09 0)
(0.165914 -4.07792e-09 0)
(0.165914 1.77889e-09 0)
(0.165914 9.45131e-09 0)
(0.165914 1.52673e-08 0)
(0.165914 1.71421e-08 0)
(0.165914 1.59692e-08 0)
(0.165914 1.45458e-08 0)
(0.165914 1.46318e-08 0)
(0.165914 1.52183e-08 0)
(0.165914 1.40551e-08 0)
(0.165914 1.00593e-08 0)
(0.165914 4.4084e-09 0)
(0.165914 -4.28602e-10 0)
(0.165914 -3.14559e-09 0)
(0.165914 -4.77231e-09 0)
(0.165914 -6.99975e-09 0)
(0.165914 -9.93592e-09 0)
(0.165914 -1.15657e-08 0)
(0.165914 -1.02182e-08 0)
(0.165914 -6.20812e-09 0)
(0.165914 -1.09828e-09 0)
(0.165914 4.60584e-09 0)
(0.165914 1.23396e-08 0)
(0.165914 2.42022e-08 0)
(0.165914 4.11572e-08 0)
(0.165914 6.04529e-08 0)
(0.165914 7.8495e-08 0)
(0.165914 8.67826e-08 0)
(0.165914 7.59204e-08 0)
(0.180123 -4.04277e-08 0)
(0.180123 -2.90176e-08 0)
(0.180123 -5.69833e-09 0)
(0.180123 6.03424e-09 0)
(0.180123 7.32647e-09 0)
(0.180122 1.24167e-08 0)
(0.180122 1.70614e-08 0)
(0.180122 1.74928e-08 0)
(0.180122 1.58213e-08 0)
(0.180122 1.3291e-08 0)
(0.180122 9.73522e-09 0)
(0.180122 5.52309e-09 0)
(0.180122 1.97841e-09 0)
(0.180122 2.82387e-10 0)
(0.180122 8.81039e-10 0)
(0.180122 3.00807e-09 0)
(0.180122 4.64451e-09 0)
(0.180122 3.99226e-09 0)
(0.180122 5.18802e-10 0)
(0.180122 -4.6547e-09 0)
(0.180122 -9.33818e-09 0)
(0.180122 -1.20683e-08 0)
(0.180122 -1.32597e-08 0)
(0.180122 -1.43944e-08 0)
(0.180122 -1.61067e-08 0)
(0.180122 -1.70833e-08 0)
(0.180122 -1.49774e-08 0)
(0.180122 -8.65706e-09 0)
(0.180122 2.75864e-10 0)
(0.180122 7.82552e-09 0)
(0.180122 1.22436e-08 0)
(0.180123 1.47098e-08 0)
(0.180123 1.78691e-08 0)
(0.180123 2.21344e-08 0)
(0.180123 2.53247e-08 0)
(0.180123 2.4587e-08 0)
(0.180123 1.89668e-08 0)
(0.180123 1.11846e-08 0)
(0.180123 4.98207e-09 0)
(0.180123 1.48533e-09 0)
(0.180123 -1.22648e-09 0)
(0.180123 -6.03602e-09 0)
(0.180123 -1.26913e-08 0)
(0.180123 -1.82251e-08 0)
(0.180123 -1.97404e-08 0)
(0.180123 -1.72195e-08 0)
(0.180123 -1.31659e-08 0)
(0.180123 -1.02116e-08 0)
(0.180123 -8.51683e-09 0)
(0.180123 -5.53102e-09 0)
(0.180123 9.83007e-10 0)
(0.180123 9.74955e-09 0)
(0.180123 1.70313e-08 0)
(0.180123 2.03664e-08 0)
(0.180123 2.05108e-08 0)
(0.180123 2.01004e-08 0)
(0.180123 2.08951e-08 0)
(0.180123 2.19091e-08 0)
(0.180123 2.02209e-08 0)
(0.180123 1.44937e-08 0)
(0.180123 6.28309e-09 0)
(0.180123 -1.29947e-09 0)
(0.180123 -6.25258e-09 0)
(0.180123 -9.5391e-09 0)
(0.180123 -1.37438e-08 0)
(0.180123 -1.93375e-08 0)
(0.180123 -2.40997e-08 0)
(0.180123 -2.52743e-08 0)
(0.180123 -2.19893e-08 0)
(0.180123 -1.56374e-08 0)
(0.180123 -9.3017e-09 0)
(0.180123 -4.48092e-09 0)
(0.180123 -1.83553e-10 0)
(0.180123 5.14175e-09 0)
(0.180123 1.12816e-08 0)
(0.180123 1.64805e-08 0)
(0.180123 1.89779e-08 0)
(0.180123 1.84391e-08 0)
(0.180123 1.59584e-08 0)
(0.180123 1.28837e-08 0)
(0.180123 9.92812e-09 0)
(0.180123 6.99359e-09 0)
(0.180123 3.41274e-09 0)
(0.180123 -1.21731e-09 0)
(0.180123 -6.45941e-09 0)
(0.180123 -1.11153e-08 0)
(0.180123 -1.40938e-08 0)
(0.180123 -1.50564e-08 0)
(0.180123 -1.44285e-08 0)
(0.180123 -1.27049e-08 0)
(0.180123 -9.8619e-09 0)
(0.180123 -5.24282e-09 0)
(0.180123 1.87619e-09 0)
(0.180123 1.14026e-08 0)
(0.180123 2.22813e-08 0)
(0.180123 3.54857e-08 0)
(0.180123 5.11145e-08 0)
(0.180123 6.11551e-08 0)
(0.180123 6.21519e-08 0)
(0.180123 5.44216e-08 0)
(0.180123 1.56786e-08 0)
(0.180123 3.24912e-08 0)
(0.180123 4.35941e-08 0)
(0.180123 4.44238e-08 0)
(0.180123 3.6324e-08 0)
(0.180122 2.96513e-08 0)
(0.180122 2.47023e-08 0)
(0.180122 1.54344e-08 0)
(0.180122 6.04105e-09 0)
(0.180122 1.29644e-09 0)
(0.180122 6.93368e-10 0)
(0.180122 1.67923e-09 0)
(0.180122 2.93425e-09 0)
(0.180122 3.92936e-09 0)
(0.180122 4.39442e-09 0)
(0.180122 4.20865e-09 0)
(0.180123 3.47668e-09 0)
(0.180123 2.31416e-09 0)
(0.180123 5.89487e-10 0)
(0.180123 -2.47862e-09 0)
(0.180122 -7.02929e-09 0)
(0.180122 -1.15525e-08 0)
(0.180122 -1.40548e-08 0)
(0.180122 -1.37711e-08 0)
(0.180122 -1.18221e-08 0)
(0.180122 -9.8716e-09 0)
(0.180122 -8.31151e-09 0)
(0.180122 -5.93383e-09 0)
(0.180122 -9.03842e-10 0)
(0.180122 6.30284e-09 0)
(0.180122 1.30146e-08 0)
(0.180123 1.70061e-08 0)
(0.180123 1.83843e-08 0)
(0.180123 1.91842e-08 0)
(0.180123 2.04173e-08 0)
(0.180123 2.13083e-08 0)
(0.180123 1.96376e-08 0)
(0.180123 1.42941e-08 0)
(0.180123 6.88868e-09 0)
(0.180123 3.9799e-10 0)
(0.180123 -3.41224e-09 0)
(0.180123 -6.1333e-09 0)
(0.180123 -1.01284e-08 0)
(0.180123 -1.57136e-08 0)
(0.180123 -2.06616e-08 0)
(0.180123 -2.21781e-08 0)
(0.180123 -1.94663e-08 0)
(0.180123 -1.40601e-08 0)
(0.180123 -8.70906e-09 0)
(0.180123 -4.58563e-09 0)
(0.180123 -3.54646e-10 0)
(0.180123 5.90117e-09 0)
(0.180123 1.35242e-08 0)
(0.180123 1.99403e-08 0)
(0.180123 2.30124e-08 0)
(0.180123 2.2603e-08 0)
(0.180123 2.05132e-08 0)
(0.180123 1.86778e-08 0)
(0.180123 1.70321e-08 0)
(0.180123 1.3954e-08 0)
(0.180123 8.15917e-09 0)
(0.180123 1.82225e-10 0)
(0.180123 -7.67889e-09 0)
(0.180123 -1.30993e-08 0)
(0.180123 -1.61368e-08 0)
(0.180123 -1.82736e-08 0)
(0.180123 -2.03595e-08 0)
(0.180123 -2.13434e-08 0)
(0.180123 -1.97729e-08 0)
(0.180123 -1.48851e-08 0)
(0.180123 -7.63729e-09 0)
(0.180123 -6.56175e-10 0)
(0.180123 4.41523e-09 0)
(0.180123 8.05301e-09 0)
(0.180123 1.16176e-08 0)
(0.180123 1.53577e-08 0)
(0.180123 1.81174e-08 0)
(0.180123 1.83789e-08 0)
(0.180123 1.5686e-08 0)
(0.180123 1.1087e-08 0)
(0.180123 6.4658e-09 0)
(0.180123 3.19977e-09 0)
(0.180123 1.09992e-09 0)
(0.180123 -1.52784e-09 0)
(0.180123 -6.13958e-09 0)
(0.180123 -1.19857e-08 0)
(0.180123 -1.61405e-08 0)
(0.180123 -1.61826e-08 0)
(0.180123 -1.263e-08 0)
(0.180123 -8.29374e-09 0)
(0.180123 -5.37095e-09 0)
(0.180123 -3.48209e-09 0)
(0.180123 -3.26887e-10 0)
(0.180123 5.53678e-09 0)
(0.180123 1.26918e-08 0)
(0.180123 1.95421e-08 0)
(0.180123 2.87106e-08 0)
(0.180123 3.03535e-08 0)
(0.180123 2.3612e-08 0)
(0.180123 1.83773e-08 0)
(0.165914 5.21564e-08 0)
(0.165914 7.84306e-08 0)
(0.165914 7.98376e-08 0)
(0.165914 6.6711e-08 0)
(0.165914 5.15928e-08 0)
(0.165914 3.61798e-08 0)
(0.165914 2.36708e-08 0)
(0.165914 1.27634e-08 0)
(0.165914 5.6186e-09 0)
(0.165914 3.82452e-09 0)
(0.165914 5.09682e-09 0)
(0.165914 6.21389e-09 0)
(0.165914 6.65625e-09 0)
(0.165914 7.267e-09 0)
(0.165914 7.79992e-09 0)
(0.165914 7.00523e-09 0)
(0.165914 4.29244e-09 0)
(0.165914 3.76115e-10 0)
(0.165914 -3.14107e-09 0)
(0.165914 -5.78657e-09 0)
(0.165914 -8.47737e-09 0)
(0.165914 -1.18103e-08 0)
(0.165914 -1.47297e-08 0)
(0.165914 -1.55281e-08 0)
(0.165914 -1.37187e-08 0)
(0.165914 -1.05401e-08 0)
(0.165914 -7.62331e-09 0)
(0.165914 -5.52277e-09 0)
(0.165914 -2.98949e-09 0)
(0.165914 1.74679e-09 0)
(0.165914 8.54288e-09 0)
(0.165914 1.52249e-08 0)
(0.165914 1.89692e-08 0)
(0.165914 1.95634e-08 0)
(0.165914 1.88094e-08 0)
(0.165914 1.85592e-08 0)
(0.165914 1.89983e-08 0)
(0.165914 1.82974e-08 0)
(0.165914 1.46518e-08 0)
(0.165914 8.24965e-09 0)
(0.165914 1.50405e-09 0)
(0.165914 -3.52331e-09 0)
(0.165914 -6.85282e-09 0)
(0.165914 -9.93734e-09 0)
(0.165914 -1.36263e-08 0)
(0.165914 -1.66437e-08 0)
(0.165914 -1.69651e-08 0)
(0.165914 -1.34129e-08 0)
(0.165914 -6.96171e-09 0)
(0.165914 -5.30683e-10 0)
(0.165914 3.64294e-09 0)
(0.165914 6.31057e-09 0)
(0.165914 9.37564e-09 0)
(0.165914 1.34164e-08 0)
(0.165914 1.72083e-08 0)
(0.165914 1.86507e-08 0)
(0.165914 1.6818e-08 0)
(0.165914 1.29831e-08 0)
(0.165914 9.32047e-09 0)
(0.165914 6.76837e-09 0)
(0.165914 4.33001e-09 0)
(0.165914 4.59879e-10 0)
(0.165914 -5.3246e-09 0)
(0.165914 -1.09974e-08 0)
(0.165914 -1.40865e-08 0)
(0.165914 -1.39771e-08 0)
(0.165914 -1.22043e-08 0)
(0.165914 -1.03291e-08 0)
(0.165914 -8.7221e-09 0)
(0.165914 -6.56412e-09 0)
(0.165914 -2.54019e-09 0)
(0.165914 3.17046e-09 0)
(0.165914 8.71969e-09 0)
(0.165914 1.24231e-08 0)
(0.165914 1.42292e-08 0)
(0.165914 1.5082e-08 0)
(0.165914 1.55732e-08 0)
(0.165914 1.51309e-08 0)
(0.165914 1.28456e-08 0)
(0.165914 8.87864e-09 0)
(0.165914 4.86702e-09 0)
(0.165914 2.56576e-09 0)
(0.165914 1.98509e-09 0)
(0.165914 1.05955e-09 0)
(0.165914 -2.11483e-09 0)
(0.165914 -6.98849e-09 0)
(0.165914 -1.03783e-08 0)
(0.165914 -9.58863e-09 0)
(0.165914 -5.48521e-09 0)
(0.165914 -1.71333e-09 0)
(0.165914 -9.15665e-10 0)
(0.165914 -2.5037e-09 0)
(0.165914 -4.07451e-09 0)
(0.165914 -3.82587e-09 0)
(0.165914 -1.72823e-09 0)
(0.165914 -1.78099e-09 0)
(0.165914 -1.56326e-09 0)
(0.165914 -8.35154e-09 0)
(0.165914 -1.88281e-08 0)
(0.165914 -1.79258e-08 0)
(0.137389 6.16081e-08 0)
(0.137389 8.58557e-08 0)
(0.137389 8.20122e-08 0)
(0.137389 6.13755e-08 0)
(0.137389 4.43418e-08 0)
(0.137389 2.9558e-08 0)
(0.137389 1.77011e-08 0)
(0.137389 1.11618e-08 0)
(0.137389 1.04005e-08 0)
(0.137389 1.25003e-08 0)
(0.137389 1.31594e-08 0)
(0.137389 1.00877e-08 0)
(0.137389 5.0622e-09 0)
(0.137389 1.63762e-09 0)
(0.137389 8.39003e-10 0)
(0.137389 7.44567e-10 0)
(0.137389 -6.8796e-10 0)
(0.137389 -3.53847e-09 0)
(0.137389 -6.0164e-09 0)
(0.137389 -6.34389e-09 0)
(0.137389 -4.88659e-09 0)
(0.137389 -4.04401e-09 0)
(0.137389 -5.60722e-09 0)
(0.137389 -8.98031e-09 0)
(0.137389 -1.18902e-08 0)
(0.137389 -1.2533e-08 0)
(0.137389 -1.07202e-08 0)
(0.137389 -7.44081e-09 0)
(0.137389 -3.84588e-09 0)
(0.137389 3.06497e-10 0)
(0.137389 5.73416e-09 0)
(0.137389 1.25933e-08 0)
(0.137389 1.87812e-08 0)
(0.137389 2.16175e-08 0)
(0.137389 2.05588e-08 0)
(0.137389 1.73918e-08 0)
(0.137389 1.47604e-08 0)
(0.137389 1.37901e-08 0)
(0.137389 1.32285e-08 0)
(0.137389 1.06833e-08 0)
(0.137389 5.38626e-09 0)
(0.137389 -7.90189e-10 0)
(0.137389 -5.3833e-09 0)
(0.137389 -7.40535e-09 0)
(0.137389 -8.14215e-09 0)
(0.137389 -9.16771e-09 0)
(0.137389 -1.06096e-08 0)
(0.137389 -1.08748e-08 0)
(0.137389 -8.16364e-09 0)
(0.137389 -2.71312e-09 0)
(0.137389 2.73148e-09 0)
(0.137389 5.64174e-09 0)
(0.137389 6.15979e-09 0)
(0.137389 6.13385e-09 0)
(0.137389 7.1779e-09 0)
(0.137389 8.97601e-09 0)
(0.137389 9.58054e-09 0)
(0.137389 7.67726e-09 0)
(0.137389 4.07029e-09 0)
(0.137389 8.09856e-10 0)
(0.137389 -7.52068e-10 0)
(0.137389 -8.59359e-10 0)
(0.137389 -1.35471e-09 0)
(0.137389 -3.23719e-09 0)
(0.137389 -5.29756e-09 0)
(0.137389 -5.56805e-09 0)
(0.137389 -3.59679e-09 0)
(0.137389 -6.81545e-10 0)
(0.137389 1.53781e-09 0)
(0.137389 2.28772e-09 0)
(0.137389 2.51015e-09 0)
(0.137389 3.97485e-09 0)
(0.137389 7.23952e-09 0)
(0.137389 1.09566e-08 0)
(0.137389 1.3149e-08 0)
(0.137389 1.27671e-08 0)
(0.137389 1.03856e-08 0)
(0.137389 7.36034e-09 0)
(0.137389 4.69477e-09 0)
(0.137389 2.73812e-09 0)
(0.137389 1.50851e-09 0)
(0.137389 9.82415e-10 0)
(0.137389 6.91941e-10 0)
(0.137389 -2.7382e-10 0)
(0.137389 -2.29831e-09 0)
(0.137389 -4.30276e-09 0)
(0.137389 -4.58528e-09 0)
(0.137389 -2.48441e-09 0)
(0.137389 4.89115e-10 0)
(0.137389 1.71542e-09 0)
(0.137389 1.30011e-10 0)
(0.137389 -2.98175e-09 0)
(0.137389 -6.40488e-09 0)
(0.137389 -9.86683e-09 0)
(0.137389 -1.21639e-08 0)
(0.137389 -1.59838e-08 0)
(0.137389 -1.93202e-08 0)
(0.137389 -2.8926e-08 0)
(0.137389 -4.20162e-08 0)
(0.137389 -3.79612e-08 0)
(0.0943427 4.60387e-08 0)
(0.0943427 5.72882e-08 0)
(0.0943427 5.20242e-08 0)
(0.0943427 3.54664e-08 0)
(0.0943427 2.10464e-08 0)
(0.0943428 1.12623e-08 0)
(0.0943428 6.18064e-09 0)
(0.0943428 5.99175e-09 0)
(0.0943428 8.14951e-09 0)
(0.0943428 8.95414e-09 0)
(0.0943428 6.69466e-09 0)
(0.0943428 2.2187e-09 0)
(0.0943428 -2.258e-09 0)
(0.0943428 -4.45366e-09 0)
(0.0943428 -3.93392e-09 0)
(0.0943428 -2.33973e-09 0)
(0.0943428 -1.48744e-09 0)
(0.0943428 -1.81953e-09 0)
(0.0943428 -2.59664e-09 0)
(0.0943428 -2.53865e-09 0)
(0.0943428 -1.16204e-09 0)
(0.0943428 2.20211e-10 0)
(0.0943428 -4.87237e-10 0)
(0.0943428 -3.92377e-09 0)
(0.0943428 -8.27959e-09 0)
(0.0943428 -1.05812e-08 0)
(0.0943428 -9.1546e-09 0)
(0.0943428 -4.56318e-09 0)
(0.0943428 8.28331e-10 0)
(0.0943428 5.0491e-09 0)
(0.0943428 7.49797e-09 0)
(0.0943428 9.29092e-09 0)
(0.0943428 1.15166e-08 0)
(0.0943428 1.33255e-08 0)
(0.0943429 1.33273e-08 0)
(0.0943429 1.13984e-08 0)
(0.0943429 8.91325e-09 0)
(0.0943429 7.51684e-09 0)
(0.0943429 7.54872e-09 0)
(0.0943429 7.40868e-09 0)
(0.0943429 5.23901e-09 0)
(0.0943429 8.75246e-10 0)
(0.0943429 -4.13248e-09 0)
(0.0943429 -7.34224e-09 0)
(0.0943429 -7.90625e-09 0)
(0.0943429 -7.11664e-09 0)
(0.0943428 -6.75568e-09 0)
(0.0943428 -7.21968e-09 0)
(0.0943428 -7.20455e-09 0)
(0.0943428 -5.23806e-09 0)
(0.0943428 -1.65112e-09 0)
(0.0943428 1.36766e-09 0)
(0.0943428 2.20784e-09 0)
(0.0943428 1.13987e-09 0)
(0.0943428 -1.00062e-10 0)
(0.0943428 -1.05669e-11 0)
(0.0943428 1.12899e-09 0)
(0.0943428 1.73686e-09 0)
(0.0943428 7.69634e-10 0)
(0.0943428 -1.23742e-09 0)
(0.0943428 -2.66137e-09 0)
(0.0943428 -2.13441e-09 0)
(0.0943428 3.13683e-11 0)
(0.0943428 2.10432e-09 0)
(0.0943428 2.83665e-09 0)
(0.0943428 2.65679e-09 0)
(0.0943428 2.83305e-09 0)
(0.0943428 3.886e-09 0)
(0.0943428 5.27715e-09 0)
(0.0943428 5.98489e-09 0)
(0.0943428 5.61451e-09 0)
(0.0943428 5.00339e-09 0)
(0.0943428 5.359e-09 0)
(0.0943429 6.9352e-09 0)
(0.0943429 8.52982e-09 0)
(0.0943429 8.30294e-09 0)
(0.0943429 5.48289e-09 0)
(0.0943429 1.28474e-09 0)
(0.0943429 -1.947e-09 0)
(0.0943429 -2.53784e-09 0)
(0.0943429 -9.9393e-10 0)
(0.0943429 5.03008e-10 0)
(0.0943429 9.41699e-12 0)
(0.0943429 -2.36948e-09 0)
(0.0943429 -4.4776e-09 0)
(0.0943429 -4.01519e-09 0)
(0.0943429 -1.18843e-09 0)
(0.0943429 1.45305e-09 0)
(0.0943429 1.64976e-09 0)
(0.0943428 -7.49502e-10 0)
(0.0943428 -3.99948e-09 0)
(0.0943428 -6.24815e-09 0)
(0.0943428 -7.62884e-09 0)
(0.0943428 -9.42559e-09 0)
(0.0943428 -1.10924e-08 0)
(0.0943428 -1.58078e-08 0)
(0.0943428 -2.12526e-08 0)
(0.0943428 -2.46431e-08 0)
(0.0943428 -3.30499e-08 0)
(0.0943428 -3.28563e-08 0)
(0.0364927 1.72643e-08 0)
(0.0364927 1.91844e-08 0)
(0.0364927 1.67673e-08 0)
(0.0364927 1.14565e-08 0)
(0.0364928 5.52389e-09 0)
(0.0364928 1.14631e-09 0)
(0.0364928 -3.33476e-10 0)
(0.0364928 7.60372e-10 0)
(0.0364927 2.10549e-09 0)
(0.0364927 1.65969e-09 0)
(0.0364927 -4.51888e-10 0)
(0.0364927 -2.664e-09 0)
(0.0364927 -3.70559e-09 0)
(0.0364927 -3.31949e-09 0)
(0.0364927 -2.08172e-09 0)
(0.0364927 -8.57981e-10 0)
(0.0364927 -1.76075e-10 0)
(0.0364927 -3.94095e-12 0)
(0.0364927 -6.85865e-11 0)
(0.0364927 -1.79625e-10 0)
(0.0364927 -2.30484e-10 0)
(0.0364927 -3.99611e-10 0)
(0.0364927 -1.00683e-09 0)
(0.0364927 -2.10943e-09 0)
(0.0364927 -3.16698e-09 0)
(0.0364927 -3.22603e-09 0)
(0.0364927 -1.83883e-09 0)
(0.0364927 5.40313e-10 0)
(0.0364927 2.8378e-09 0)
(0.0364927 4.13661e-09 0)
(0.0364928 4.16591e-09 0)
(0.0364928 3.36364e-09 0)
(0.0364928 2.6495e-09 0)
(0.0364928 2.40678e-09 0)
(0.0364928 2.39103e-09 0)
(0.0364928 2.38813e-09 0)
(0.0364928 2.4385e-09 0)
(0.0364928 2.60479e-09 0)
(0.0364928 2.82031e-09 0)
(0.0364928 2.72755e-09 0)
(0.0364928 1.90245e-09 0)
(0.0364928 3.87391e-10 0)
(0.0364928 -1.45869e-09 0)
(0.0364928 -2.8404e-09 0)
(0.0364928 -3.28556e-09 0)
(0.0364928 -3.021e-09 0)
(0.0364928 -2.63937e-09 0)
(0.0364928 -2.47637e-09 0)
(0.0364928 -2.36369e-09 0)
(0.0364928 -1.96125e-09 0)
(0.0364928 -1.21736e-09 0)
(0.0364927 -5.08719e-10 0)
(0.0364927 -3.25363e-10 0)
(0.0364927 -6.95183e-10 0)
(0.0364927 -1.17566e-09 0)
(0.0364927 -1.30651e-09 0)
(0.0364927 -1.00846e-09 0)
(0.0364927 -6.88226e-10 0)
(0.0364927 -7.15934e-10 0)
(0.0364927 -1.00417e-09 0)
(0.0364928 -1.16554e-09 0)
(0.0364928 -8.07328e-10 0)
(0.0364928 1.7429e-10 0)
(0.0364928 1.32589e-09 0)
(0.0364928 2.03632e-09 0)
(0.0364928 2.14283e-09 0)
(0.0364928 2.02403e-09 0)
(0.0364928 2.03045e-09 0)
(0.0364928 2.21822e-09 0)
(0.0364928 2.42224e-09 0)
(0.0364928 2.48205e-09 0)
(0.0364928 2.40979e-09 0)
(0.0364928 2.38558e-09 0)
(0.0364928 2.49437e-09 0)
(0.0364928 2.53864e-09 0)
(0.0364928 2.08227e-09 0)
(0.0364928 8.91766e-10 0)
(0.0364928 -6.59285e-10 0)
(0.0364928 -1.70866e-09 0)
(0.0364928 -1.57754e-09 0)
(0.0364928 -5.3302e-10 0)
(0.0364928 2.97393e-10 0)
(0.0364928 -8.51794e-11 0)
(0.0364928 -1.49587e-09 0)
(0.0364928 -2.5084e-09 0)
(0.0364928 -1.83092e-09 0)
(0.0364928 9.39396e-11 0)
(0.0364928 1.42661e-09 0)
(0.0364928 8.56981e-10 0)
(0.0364928 -1.17351e-09 0)
(0.0364928 -3.19417e-09 0)
(0.0364927 -4.15706e-09 0)
(0.0364927 -4.17971e-09 0)
(0.0364927 -3.99493e-09 0)
(0.0364927 -3.35912e-09 0)
(0.0364927 -4.56025e-09 0)
(0.0364928 -8.70069e-09 0)
(0.0364927 -1.04964e-08 0)
(0.0364927 -1.26268e-08 0)
(0.0364927 -1.27308e-08 0)
)
;

boundaryField
{
    inlet
    {
        type            zeroGradient;
    }
    outlet
    {
        type            zeroGradient;
    }
    walls
    {
        type            noSlip;
    }
    frontAndBack
    {
        type            empty;
    }
}


// ************************************************************************* //
