/*--------------------------------*- C++ -*----------------------------------*\
| =========                 |                                                 |
| \\      /  F ield         | OpenFOAM: The Open Source CFD Toolbox           |
|  \\    /   O peration     | Version:  2406                                  |
|   \\  /    A nd           | Website:  www.openfoam.com                      |
|    \\/     M anipulation  |                                                 |
\*---------------------------------------------------------------------------*/
FoamFile
{
    version     2.0;
    format      ascii;
    arch        "LSB;label=32;scalar=64";
    class       surfaceScalarField;
    location    "0.65";
    object      alphaPhi0.air;
}
// * * * * * * * * * * * * * * * * * * * * * * * * * * * * * * * * * * * * * //

dimensions      [0 3 -1 0 0 0 0];

oriented        oriented;

internalField   nonuniform List<scalar> 
12225
(
0.485203
1.80226e-06
0.485196
6.60049e-06
0.485189
7.30852e-06
0.485184
4.78553e-06
0.48518
3.54766e-06
0.485176
4.05455e-06
0.485172
4.78607e-06
0.485167
5.13038e-06
0.485161
5.77859e-06
0.485155
5.66935e-06
0.48515
5.36234e-06
0.485144
5.27794e-06
0.485139
5.13626e-06
0.485134
5.06142e-06
0.485129
4.91087e-06
0.485125
4.15821e-06
0.485122
3.38351e-06
0.485118
3.34157e-06
0.485114
4.0992e-06
0.485109
5.24368e-06
0.485103
5.72763e-06
0.485098
5.50143e-06
0.485092
5.47665e-06
0.485087
5.74911e-06
0.485081
5.76137e-06
0.485075
5.71147e-06
0.485069
5.96759e-06
0.485063
6.21035e-06
0.485057
6.24292e-06
0.48505
6.33912e-06
0.485044
6.61434e-06
0.485037
6.83296e-06
0.48503
6.85702e-06
0.485023
6.69162e-06
0.485017
6.38768e-06
0.485011
6.20289e-06
0.485004
6.31062e-06
0.484998
6.37785e-06
0.484992
6.17679e-06
0.484986
6.03107e-06
0.48498
6.24932e-06
0.484973
6.65748e-06
0.484966
6.84113e-06
0.484959
6.66634e-06
0.484953
6.36729e-06
0.484947
6.16994e-06
0.484941
6.03529e-06
0.484935
5.82884e-06
0.48493
5.57905e-06
0.484924
5.40347e-06
0.484919
5.31148e-06
0.484914
5.26005e-06
0.484908
5.3082e-06
0.484903
5.46902e-06
0.484897
5.57154e-06
0.484892
5.46814e-06
0.484886
5.30378e-06
0.484881
5.3379e-06
0.484876
5.56529e-06
0.48487
5.70131e-06
0.484864
5.55178e-06
0.484859
5.24834e-06
0.484854
5.04365e-06
0.484849
5.01109e-06
0.484844
5.02014e-06
0.484839
4.95983e-06
0.484834
4.86702e-06
0.484829
4.83952e-06
0.484824
4.90379e-06
0.484819
4.99974e-06
0.484814
5.06964e-06
0.484809
5.11124e-06
0.484804
5.11977e-06
0.484799
5.03384e-06
0.484794
4.83523e-06
0.48479
4.66398e-06
0.484785
4.69303e-06
0.48478
4.87945e-06
0.484775
4.97657e-06
0.48477
4.83619e-06
0.484766
4.59114e-06
0.484761
4.47805e-06
0.484757
4.55176e-06
0.484752
4.6471e-06
0.484747
4.58836e-06
0.484743
4.38302e-06
0.484739
4.20014e-06
0.484735
4.15928e-06
0.48473
4.21314e-06
0.484726
4.2353e-06
0.484722
4.1872e-06
0.484718
4.14367e-06
0.484714
4.17571e-06
0.484709
4.27547e-06
0.484705
4.38887e-06
0.4847
4.46994e-06
0.484696
4.50173e-06
0.484691
4.49291e-06
0.484687
4.50789e-06
0.484682
4.62732e-06
0.484677
4.83404e-06
0.484673
4.98056e-06
0.484668
4.94129e-06
0.484663
4.8063e-06
0.484658
4.81551e-06
0.484653
5.0501e-06
0.484648
5.29953e-06
0.484642
5.3246e-06
0.484637
5.18305e-06
0.484632
5.12546e-06
0.484627
5.23392e-06
0.484621
5.35116e-06
0.484616
5.36935e-06
0.484611
5.37819e-06
0.484605
5.45212e-06
0.4846
5.48063e-06
0.484594
5.35898e-06
0.484589
5.212e-06
0.484584
5.24213e-06
0.484578
5.4236e-06
0.484573
5.52513e-06
0.484568
5.43476e-06
0.484562
5.28281e-06
0.484557
5.21964e-06
0.484552
5.22235e-06
0.484547
5.21277e-06
0.484541
5.20366e-06
0.484536
5.22556e-06
0.484531
5.20139e-06
0.484526
5.04746e-06
0.484521
4.84615e-06
0.484516
4.77151e-06
0.484511
4.85064e-06
0.484506
4.93009e-06
0.484502
4.87888e-06
0.484497
4.70622e-06
0.484492
4.48788e-06
0.484488
4.28951e-06
0.484484
4.16594e-06
0.48448
4.14434e-06
0.484476
4.14488e-06
0.484472
4.02362e-06
0.484468
3.76287e-06
0.484464
3.50778e-06
0.484461
3.35939e-06
0.484458
3.23265e-06
0.484455
2.99359e-06
0.484452
2.66917e-06
0.48445
2.41633e-06
0.484447
2.30823e-06
0.484445
2.27103e-06
0.484443
2.20584e-06
0.484441
2.06953e-06
0.484439
1.84158e-06
0.484437
1.52525e-06
0.484436
1.20385e-06
0.484435
1.00289e-06
0.484434
9.56026e-07
0.484433
9.61171e-07
0.484432
9.33276e-07
0.484432
8.98412e-07
0.484431
8.96748e-07
0.48443
8.72151e-07
0.484429
7.25647e-07
0.484429
4.8443e-07
0.484428
3.01766e-07
0.484428
2.66475e-07
0.484428
3.16462e-07
0.484427
3.80791e-07
0.484427
4.53909e-07
0.484426
5.38595e-07
0.484426
5.68612e-07
0.484425
4.87541e-07
0.484425
3.58241e-07
0.484425
2.77615e-07
0.484424
2.74652e-07
0.484424
3.05761e-07
0.484424
2.74632e-07
0.484424
1.94714e-07
0.484423
1.80689e-07
0.484423
2.73403e-07
0.484423
4.31811e-07
0.484422
5.19282e-07
0.484422
4.49786e-07
0.484421
2.8636e-07
0.484421
1.64373e-07
0.484421
1.43994e-07
0.484421
2.11385e-07
0.484421
2.53092e-07
0.48442
2.15909e-07
0.48442
1.57825e-07
0.48442
1.50588e-07
0.48442
2.09368e-07
0.48442
2.69489e-07
0.484419
2.76709e-07
0.484419
2.36704e-07
0.484419
1.47736e-07
0.484419
3.41223e-08
0.484419
-6.73906e-10
0.484419
9.57536e-08
0.484419
2.59724e-07
0.484418
3.55401e-07
0.484418
3.14926e-07
0.484418
2.08384e-07
0.484418
1.52561e-07
0.484417
1.60526e-07
0.484417
1.50052e-07
0.484417
4.9189e-08
0.484417
-6.8444e-08
0.484417
-1.01141e-07
0.484417
-4.68401e-08
0.484417
1.74813e-08
0.484417
4.09283e-08
0.484417
5.08424e-08
0.484417
1.1747e-07
0.484417
2.49399e-07
0.484417
3.67072e-07
0.484416
3.56824e-07
0.484416
2.16285e-07
0.484416
6.45451e-08
0.484416
1.72606e-08
0.484416
6.42051e-08
0.484416
5.08826e-08
0.484416
-9.82907e-08
0.484416
-2.62176e-07
0.484416
-2.76821e-07
0.484417
-1.33593e-07
0.484417
2.04382e-09
0.484417
-1.96338e-08
0.484417
-1.60096e-07
0.484417
-2.35334e-07
0.484417
-1.45554e-07
0.484417
5.48341e-08
0.484417
1.68578e-07
0.484417
1.10384e-07
0.484417
-3.66227e-08
0.484417
-1.151e-07
0.484417
-6.23019e-08
0.484417
4.82475e-08
0.484417
8.8617e-08
0.484417
4.12281e-08
0.484417
-5.00716e-08
0.484417
-1.14938e-07
0.484417
-1.45621e-07
0.484417
-1.76732e-07
0.484418
-2.15162e-07
0.484418
-2.29065e-07
0.484418
-1.5683e-07
0.484418
-1.13285e-07
2.27491e-08
0.485207
5.49359e-07
0.485212
9.53324e-07
0.485218
1.87064e-06
0.48522
2.41962e-06
0.485221
2.20712e-06
0.485224
1.81207e-06
0.485226
2.13238e-06
0.485229
2.45534e-06
0.485232
2.44206e-06
0.485235
2.55457e-06
0.485239
2.10074e-06
0.485242
1.52343e-06
0.485246
1.38451e-06
0.485249
1.85345e-06
0.485252
2.62158e-06
0.485253
3.20281e-06
0.485253
3.37872e-06
0.485253
3.15898e-06
0.485254
2.42276e-06
0.485258
2.17943e-06
0.485261
2.72191e-06
0.485263
2.83484e-06
0.485266
2.30107e-06
0.48527
2.04655e-06
0.485274
2.2267e-06
0.485277
2.26282e-06
0.485281
2.19592e-06
0.485285
2.41982e-06
0.485288
2.77593e-06
0.485292
2.72349e-06
0.485296
2.50631e-06
0.4853
2.57918e-06
0.485304
2.76366e-06
0.485308
2.81711e-06
0.485312
2.66442e-06
0.485316
2.32045e-06
0.48532
2.17842e-06
0.485324
2.43043e-06
0.485327
2.61851e-06
0.485331
2.45184e-06
0.485335
2.29628e-06
0.485339
2.46524e-06
0.485343
2.69873e-06
0.485347
2.70819e-06
0.485351
2.66394e-06
0.485354
2.78792e-06
0.485357
2.95435e-06
0.48536
2.93913e-06
0.485363
2.80244e-06
0.485366
2.72902e-06
0.485368
2.64681e-06
0.485371
2.3807e-06
0.485374
2.09552e-06
0.485378
2.13444e-06
0.485381
2.45811e-06
0.485384
2.6137e-06
0.485387
2.35711e-06
0.48539
1.97241e-06
0.485394
1.85718e-06
0.485397
2.08076e-06
0.4854
2.38236e-06
0.485403
2.51335e-06
0.485406
2.44683e-06
0.485409
2.30394e-06
0.485411
2.22294e-06
0.485414
2.27319e-06
0.485416
2.41389e-06
0.485419
2.50673e-06
0.485421
2.42582e-06
0.485424
2.18861e-06
0.485427
1.95471e-06
0.48543
1.89085e-06
0.485433
2.03267e-06
0.485436
2.2499e-06
0.485439
2.35829e-06
0.485441
2.32053e-06
0.485443
2.30443e-06
0.485446
2.47017e-06
0.485448
2.73594e-06
0.48545
2.85923e-06
0.485452
2.74463e-06
0.485454
2.5688e-06
0.485456
2.56462e-06
0.485458
2.74702e-06
0.485459
2.90765e-06
0.485461
2.87067e-06
0.485462
2.70597e-06
0.485464
2.62952e-06
0.485465
2.71847e-06
0.485467
2.81525e-06
0.485468
2.75066e-06
0.48547
2.57e-06
0.485472
2.45656e-06
0.485473
2.48626e-06
0.485475
2.5657e-06
0.485477
2.58742e-06
0.485479
2.54703e-06
0.485481
2.48237e-06
0.485483
2.39101e-06
0.485486
2.29447e-06
0.485488
2.28301e-06
0.485491
2.40624e-06
0.485493
2.54309e-06
0.485495
2.49864e-06
0.485498
2.27886e-06
0.485501
2.13074e-06
0.485504
2.23129e-06
0.485507
2.44219e-06
0.485509
2.50369e-06
0.485512
2.39736e-06
0.485515
2.33256e-06
0.485518
2.40496e-06
0.485521
2.48285e-06
0.485524
2.46583e-06
0.485527
2.44507e-06
0.48553
2.50597e-06
0.485533
2.55046e-06
0.485535
2.46478e-06
0.485538
2.3458e-06
0.485541
2.37961e-06
0.485544
2.55281e-06
0.485547
2.67261e-06
0.48555
2.65122e-06
0.485552
2.59383e-06
0.485555
2.57972e-06
0.485558
2.54231e-06
0.48556
2.44057e-06
0.485563
2.38491e-06
0.485566
2.45877e-06
0.485568
2.54463e-06
0.485571
2.47646e-06
0.485573
2.29485e-06
0.485576
2.18997e-06
0.485579
2.23705e-06
0.485581
2.34168e-06
0.485583
2.41714e-06
0.485586
2.45813e-06
0.485587
2.45733e-06
0.485589
2.40218e-06
0.485591
2.36833e-06
0.485593
2.46245e-06
0.485594
2.63277e-06
0.485595
2.68582e-06
0.485596
2.55401e-06
0.485597
2.408e-06
0.485598
2.42317e-06
0.485598
2.55232e-06
0.485598
2.62813e-06
0.485598
2.60179e-06
0.485598
2.55239e-06
0.485598
2.52092e-06
0.485597
2.47607e-06
0.485597
2.4242e-06
0.485596
2.41526e-06
0.485595
2.43075e-06
0.485594
2.38574e-06
0.485593
2.27329e-06
0.485592
2.19961e-06
0.48559
2.22126e-06
0.485589
2.25736e-06
0.485588
2.22864e-06
0.485587
2.18723e-06
0.485585
2.21838e-06
0.485584
2.28491e-06
0.485582
2.28353e-06
0.48558
2.20994e-06
0.485578
2.15363e-06
0.485576
2.1449e-06
0.485574
2.12865e-06
0.485573
2.08834e-06
0.485571
2.09223e-06
0.48557
2.17501e-06
0.485568
2.25587e-06
0.485566
2.23508e-06
0.485564
2.12545e-06
0.485562
2.04778e-06
0.485561
2.09378e-06
0.485559
2.21064e-06
0.485557
2.27056e-06
0.485555
2.21758e-06
0.485553
2.1213e-06
0.485551
2.11061e-06
0.485549
2.2226e-06
0.485547
2.363e-06
0.485545
2.4151e-06
0.485543
2.35991e-06
0.485541
2.27702e-06
0.485539
2.25876e-06
0.485537
2.3024e-06
0.485535
2.33284e-06
0.485533
2.30248e-06
0.485531
2.23965e-06
0.485529
2.20903e-06
0.485527
2.23995e-06
0.485525
2.31749e-06
0.485522
2.41456e-06
0.48552
2.48597e-06
0.485518
2.47335e-06
0.485515
2.36972e-06
0.485513
2.25513e-06
0.485511
2.23164e-06
0.485509
2.30511e-06
0.485507
2.37245e-06
0.485505
2.35451e-06
0.485503
2.29983e-06
0.485501
2.30876e-06
0.485498
2.38875e-06
0.485496
2.4415e-06
0.485494
2.40012e-06
0.485491
2.30638e-06
0.485489
2.25465e-06
0.485487
2.27988e-06
0.485484
2.31734e-06
0.485482
2.28596e-06
0.48548
2.19345e-06
0.485478
2.13407e-06
0.485476
2.18976e-06
0.485474
2.31851e-06
0.485472
2.37746e-06
0.48547
2.28059e-06
0.485468
2.11416e-06
0.485466
2.04413e-06
0.485464
2.10479e-06
0.485462
2.15958e-06
0.485459
2.08182e-06
0.485457
1.92627e-06
0.485455
1.87253e-06
0.485453
2.00522e-06
0.485451
2.21188e-06
0.485448
2.3116e-06
0.485446
2.24711e-06
0.485443
2.12979e-06
0.485441
2.12828e-06
0.485439
2.27308e-06
0.485437
2.42716e-06
0.485435
2.43839e-06
0.485432
2.30358e-06
0.48543
2.15669e-06
0.485428
2.12321e-06
0.485426
2.20242e-06
0.485423
2.30566e-06
0.485421
2.3682e-06
0.485418
2.40718e-06
0.485416
2.46405e-06
0.485413
2.53376e-06
0.48541
2.55259e-06
0.485408
2.50613e-06
0.485405
2.41673e-06
0.485402
2.52668e-06
2.31401e-06
0.485209
-5.39633e-07
0.485208
1.28099e-06
0.485208
2.64441e-06
0.485208
2.16118e-06
0.485208
2.1223e-06
0.485208
2.00421e-06
0.485208
1.66808e-06
0.485209
1.79758e-06
0.485209
1.87399e-06
0.48521
2.40034e-06
0.485209
2.94096e-06
0.485207
3.26124e-06
0.485205
3.04925e-06
0.485205
2.38117e-06
0.485205
1.98474e-06
0.485206
2.23334e-06
0.485207
2.51251e-06
0.485208
2.74008e-06
0.485207
2.80716e-06
0.485207
2.70916e-06
0.485207
2.59073e-06
0.485207
2.43477e-06
0.485207
2.25057e-06
0.485207
2.13282e-06
0.485208
2.05747e-06
0.485208
1.89156e-06
0.485208
1.95014e-06
0.485208
2.04927e-06
0.485209
2.0782e-06
0.48521
2.11292e-06
0.48521
1.97078e-06
0.485211
1.80516e-06
0.485212
1.80047e-06
0.485213
1.94368e-06
0.485213
2.16199e-06
0.485214
2.22269e-06
0.485214
2.02415e-06
0.485214
1.86725e-06
0.485215
1.9813e-06
0.485215
2.13127e-06
0.485215
2.0413e-06
0.485216
1.85255e-06
0.485217
1.82816e-06
0.485218
1.93909e-06
0.485218
2.01071e-06
0.485219
2.00696e-06
0.48522
1.99828e-06
0.485221
1.98345e-06
0.485222
1.92437e-06
0.485223
1.91611e-06
0.485223
2.05595e-06
0.485224
2.19719e-06
0.485224
2.11677e-06
0.485224
1.87676e-06
0.485224
1.77499e-06
0.485225
1.91306e-06
0.485225
2.0774e-06
0.485225
2.08916e-06
0.485225
2.04429e-06
0.485225
2.15764e-06
0.485225
2.45747e-06
0.485225
2.73649e-06
0.485224
2.79181e-06
0.485224
2.6514e-06
0.485224
2.53358e-06
0.485223
2.60751e-06
0.485223
2.82818e-06
0.485223
3.00164e-06
0.485222
2.9896e-06
0.485221
2.82724e-06
0.485221
2.6329e-06
0.48522
2.46381e-06
0.48522
2.32417e-06
0.48522
2.24506e-06
0.48522
2.24687e-06
0.48522
2.25789e-06
0.48522
2.1761e-06
0.485221
2.00428e-06
0.485221
1.84994e-06
0.485222
1.79665e-06
0.485223
1.82614e-06
0.485224
1.86644e-06
0.485225
1.87761e-06
0.485226
1.87668e-06
0.485227
1.88866e-06
0.485228
1.89879e-06
0.485228
1.88303e-06
0.485229
1.8731e-06
0.48523
1.92849e-06
0.485231
2.03249e-06
0.485231
2.09493e-06
0.485232
2.08176e-06
0.485232
2.07966e-06
0.485233
2.16995e-06
0.485233
2.3048e-06
0.485233
2.37862e-06
0.485233
2.385e-06
0.485233
2.41405e-06
0.485233
2.49277e-06
0.485233
2.53057e-06
0.485233
2.46094e-06
0.485233
2.36766e-06
0.485233
2.3735e-06
0.485233
2.44266e-06
0.485233
2.41906e-06
0.485233
2.26743e-06
0.485233
2.14271e-06
0.485233
2.1565e-06
0.485233
2.20877e-06
0.485234
2.16256e-06
0.485234
2.07176e-06
0.485234
2.07311e-06
0.485235
2.12843e-06
0.485235
2.06834e-06
0.485236
1.87578e-06
0.485236
1.73488e-06
0.485237
1.75657e-06
0.485238
1.82952e-06
0.485238
1.82503e-06
0.485239
1.7959e-06
0.48524
1.85047e-06
0.48524
1.94499e-06
0.485241
1.95996e-06
0.485242
1.92211e-06
0.485242
1.97297e-06
0.485243
2.12406e-06
0.485243
2.2218e-06
0.485243
2.18912e-06
0.485243
2.13984e-06
0.485244
2.18365e-06
0.485244
2.25732e-06
0.485244
2.25509e-06
0.485244
2.20932e-06
0.485244
2.22171e-06
0.485244
2.29992e-06
0.485244
2.37651e-06
0.485244
2.42264e-06
0.485244
2.43168e-06
0.485244
2.3514e-06
0.485245
2.1663e-06
0.485245
2.00131e-06
0.485246
2.004e-06
0.485246
2.12776e-06
0.485247
2.17342e-06
0.485247
2.05928e-06
0.485247
1.91706e-06
0.485248
1.88943e-06
0.485249
1.95704e-06
0.485249
2.02786e-06
0.48525
2.08787e-06
0.48525
2.16549e-06
0.48525
2.22889e-06
0.485251
2.23409e-06
0.485251
2.22108e-06
0.485251
2.25926e-06
0.485251
2.32672e-06
0.485251
2.34521e-06
0.485251
2.32227e-06
0.485251
2.34873e-06
0.48525
2.44631e-06
0.48525
2.52662e-06
0.48525
2.53398e-06
0.48525
2.5263e-06
0.485249
2.56161e-06
0.485249
2.59618e-06
0.485249
2.56604e-06
0.485248
2.50157e-06
0.485248
2.47492e-06
0.485248
2.47684e-06
0.485247
2.44314e-06
0.485247
2.38067e-06
0.485247
2.37376e-06
0.485247
2.45565e-06
0.485246
2.54028e-06
0.485246
2.51478e-06
0.485245
2.37534e-06
0.485245
2.23651e-06
0.485245
2.20493e-06
0.485245
2.27431e-06
0.485245
2.34679e-06
0.485245
2.34542e-06
0.485245
2.29853e-06
0.485245
2.28986e-06
0.485245
2.34585e-06
0.485245
2.4002e-06
0.485245
2.36924e-06
0.485245
2.24533e-06
0.485245
2.10618e-06
0.485245
2.03185e-06
0.485246
2.02894e-06
0.485246
2.04843e-06
0.485246
2.05623e-06
0.485246
2.06013e-06
0.485246
2.07149e-06
0.485247
2.08114e-06
0.485247
2.09122e-06
0.485247
2.12664e-06
0.485247
2.18592e-06
0.485248
2.214e-06
0.485248
2.16681e-06
0.485248
2.08899e-06
0.485248
2.07217e-06
0.485248
2.13496e-06
0.485248
2.19617e-06
0.485249
2.18768e-06
0.485249
2.14299e-06
0.485249
2.14179e-06
0.485249
2.19729e-06
0.485249
2.24149e-06
0.48525
2.21666e-06
0.48525
2.14855e-06
0.48525
2.11679e-06
0.48525
2.16468e-06
0.48525
2.24717e-06
0.48525
2.2768e-06
0.48525
2.2233e-06
0.48525
2.15912e-06
0.48525
2.1822e-06
0.48525
2.28634e-06
0.48525
2.34741e-06
0.48525
2.26829e-06
0.48525
2.11012e-06
0.48525
2.02522e-06
0.48525
2.06828e-06
0.48525
2.12853e-06
0.48525
2.07513e-06
0.48525
1.92404e-06
0.48525
1.81467e-06
0.48525
1.84189e-06
0.485251
1.95105e-06
0.485251
1.99638e-06
0.485251
1.88967e-06
0.485252
1.69335e-06
0.485252
1.55363e-06
0.485253
1.54492e-06
0.485254
1.59661e-06
0.485255
1.58488e-06
0.485255
1.47493e-06
0.485256
1.34074e-06
0.485257
1.26874e-06
0.485258
1.26875e-06
0.485259
1.28987e-06
0.48526
1.29441e-06
0.485261
1.30396e-06
0.485263
1.36606e-06
0.485264
1.47416e-06
0.485265
1.56052e-06
0.485266
1.577e-06
0.485266
1.5429e-06
1.59913e-06
0.485205
1.60005e-07
0.485206
1.01059e-07
0.485208
4.99031e-07
0.485208
1.6812e-06
0.485209
1.67611e-06
0.485209
1.45717e-06
0.485209
1.64995e-06
0.48521
1.74708e-06
0.485209
2.29693e-06
0.485209
2.20098e-06
0.485211
1.71239e-06
0.485212
1.43581e-06
0.485214
1.64086e-06
0.485214
1.94977e-06
0.485214
1.74021e-06
0.485215
1.3841e-06
0.485216
1.33254e-06
0.485218
1.64527e-06
0.485219
1.60282e-06
0.48522
1.33079e-06
0.485221
1.69739e-06
0.485221
2.42505e-06
0.485221
2.66429e-06
0.48522
2.31478e-06
0.48522
2.3371e-06
0.48522
2.49216e-06
0.485219
2.25901e-06
0.485219
1.98749e-06
0.48522
1.89311e-06
0.48522
1.99653e-06
0.485219
2.13737e-06
0.485219
2.16482e-06
0.485219
1.99309e-06
0.485219
1.82332e-06
0.485219
1.99831e-06
0.485219
2.32834e-06
0.485219
2.3433e-06
0.485218
2.16155e-06
0.485218
2.2225e-06
0.485218
2.44765e-06
0.485218
2.43833e-06
0.485217
2.19445e-06
0.485217
2.04249e-06
0.485217
2.07928e-06
0.485217
2.14651e-06
0.485217
2.17265e-06
0.485216
2.22567e-06
0.485216
2.29131e-06
0.485216
2.252e-06
0.485215
2.14629e-06
0.485215
2.19553e-06
0.485215
2.43463e-06
0.485215
2.59155e-06
0.485214
2.46388e-06
0.485214
2.221e-06
0.485213
2.13063e-06
0.485213
2.18844e-06
0.485213
2.19059e-06
0.485213
2.04859e-06
0.485213
1.86426e-06
0.485214
1.73497e-06
0.485215
1.63339e-06
0.485217
1.51168e-06
0.485218
1.41872e-06
0.485219
1.43955e-06
0.48522
1.55561e-06
0.485221
1.65414e-06
0.485222
1.6724e-06
0.485224
1.67254e-06
0.485225
1.76466e-06
0.485225
1.96257e-06
0.485226
2.13709e-06
0.485226
2.15862e-06
0.485226
2.07442e-06
0.485226
2.05795e-06
0.485226
2.16787e-06
0.485226
2.25926e-06
0.485226
2.18115e-06
0.485226
1.9817e-06
0.485226
1.84935e-06
0.485226
1.88485e-06
0.485226
1.99512e-06
0.485226
2.013e-06
0.485226
1.89509e-06
0.485226
1.76752e-06
0.485226
1.76684e-06
0.485226
1.87981e-06
0.485226
1.98288e-06
0.485226
2.0163e-06
0.485226
2.03455e-06
0.485226
2.09673e-06
0.485226
2.18622e-06
0.485225
2.26194e-06
0.485225
2.31291e-06
0.485225
2.33023e-06
0.485225
2.28266e-06
0.485226
2.17512e-06
0.485226
2.0952e-06
0.485226
2.12055e-06
0.485227
2.19163e-06
0.485227
2.15449e-06
0.485227
1.96802e-06
0.485228
1.78808e-06
0.485228
1.77683e-06
0.485229
1.88015e-06
0.485229
1.90819e-06
0.48523
1.81188e-06
0.48523
1.73456e-06
0.485231
1.77383e-06
0.485231
1.84422e-06
0.485231
1.85189e-06
0.485231
1.85584e-06
0.485232
1.92952e-06
0.485232
1.98197e-06
0.485232
1.88209e-06
0.485232
1.7008e-06
0.485232
1.65187e-06
0.485232
1.79868e-06
0.485232
1.97891e-06
0.485231
2.04731e-06
0.485231
2.04555e-06
0.485231
2.06416e-06
0.485231
2.07442e-06
0.485231
2.02013e-06
0.485231
1.97187e-06
0.485231
2.03407e-06
0.485231
2.15339e-06
0.485231
2.16807e-06
0.485231
2.04054e-06
0.485231
1.90131e-06
0.485232
1.84998e-06
0.485232
1.84989e-06
0.485233
1.84801e-06
0.485233
1.8674e-06
0.485233
1.92116e-06
0.485234
1.95621e-06
0.485234
1.94852e-06
0.485235
1.9543e-06
0.485235
1.99164e-06
0.485235
1.97324e-06
0.485235
1.84791e-06
0.485236
1.72293e-06
0.485236
1.7317e-06
0.485236
1.84015e-06
0.485237
1.90222e-06
0.485237
1.8717e-06
0.485237
1.83859e-06
0.485237
1.8675e-06
0.485237
1.91776e-06
0.485237
1.94462e-06
0.485237
1.9682e-06
0.485237
1.99633e-06
0.485238
1.97604e-06
0.485238
1.88324e-06
0.485238
1.78632e-06
0.485239
1.75047e-06
0.48524
1.73923e-06
0.48524
1.68868e-06
0.485241
1.62877e-06
0.485242
1.63587e-06
0.485243
1.69524e-06
0.485243
1.71518e-06
0.485244
1.67265e-06
0.485245
1.64127e-06
0.485246
1.66012e-06
0.485247
1.67343e-06
0.485248
1.63793e-06
0.485249
1.60523e-06
0.48525
1.63806e-06
0.48525
1.70626e-06
0.485251
1.7333e-06
0.485252
1.71315e-06
0.485252
1.71825e-06
0.485253
1.79368e-06
0.485254
1.88723e-06
0.485254
1.90678e-06
0.485255
1.82917e-06
0.485255
1.73165e-06
0.485256
1.71778e-06
0.485256
1.81445e-06
0.485257
1.94785e-06
0.485257
2.02916e-06
0.485257
2.04342e-06
0.485257
2.04378e-06
0.485258
2.0698e-06
0.485258
2.09169e-06
0.485258
2.04732e-06
0.485258
1.92419e-06
0.485259
1.7861e-06
0.485259
1.71168e-06
0.485259
1.72051e-06
0.48526
1.77425e-06
0.48526
1.83459e-06
0.48526
1.88617e-06
0.48526
1.91231e-06
0.48526
1.89603e-06
0.485261
1.856e-06
0.485261
1.8425e-06
0.485261
1.87028e-06
0.485262
1.88742e-06
0.485262
1.84941e-06
0.485262
1.79567e-06
0.485263
1.80384e-06
0.485263
1.87999e-06
0.485263
1.94452e-06
0.485263
1.93303e-06
0.485264
1.87105e-06
0.485264
1.82897e-06
0.485264
1.8308e-06
0.485265
1.83394e-06
0.485265
1.7899e-06
0.485265
1.70777e-06
0.485266
1.65353e-06
0.485267
1.68297e-06
0.485267
1.7751e-06
0.485267
1.84262e-06
0.485268
1.82487e-06
0.485268
1.76536e-06
0.485269
1.76333e-06
0.485269
1.8422e-06
0.48527
1.9071e-06
0.48527
1.86406e-06
0.48527
1.7506e-06
0.48527
1.69693e-06
0.485271
1.76399e-06
0.485271
1.87247e-06
0.485271
1.90742e-06
0.485271
1.85196e-06
0.485271
1.79458e-06
0.485271
1.82489e-06
0.485271
1.93619e-06
0.485271
2.0268e-06
0.485271
2.00132e-06
0.48527
1.87265e-06
0.48527
1.74847e-06
0.48527
1.71458e-06
0.48527
1.75472e-06
0.48527
1.79465e-06
0.485269
1.79446e-06
0.485269
1.77779e-06
0.485268
1.78431e-06
0.485268
1.817e-06
0.485267
1.83763e-06
0.485267
1.81605e-06
0.485266
1.77802e-06
0.485266
1.77626e-06
0.485266
1.81878e-06
0.485265
1.84944e-06
0.485265
1.88917e-06
1.793e-06
0.485207
-7.78404e-08
0.485207
3.68385e-07
0.485207
4.70461e-07
0.485208
7.30286e-07
0.485208
1.66555e-06
0.485207
2.1283e-06
0.485207
1.74243e-06
0.485208
1.09543e-06
0.485209
9.8551e-07
0.48521
1.35422e-06
0.48521
1.83539e-06
0.485209
2.14451e-06
0.485209
1.95166e-06
0.485209
1.76254e-06
0.485209
2.01085e-06
0.485208
2.13094e-06
0.485208
1.65189e-06
0.485208
1.40177e-06
0.485208
1.70554e-06
0.485208
1.63211e-06
0.485208
1.09379e-06
0.48521
9.69102e-07
0.485211
1.48675e-06
0.485211
1.77181e-06
0.485212
1.64529e-06
0.485213
1.72661e-06
0.485213
1.99148e-06
0.485213
1.98541e-06
0.485213
1.76253e-06
0.485214
1.67984e-06
0.485214
1.77756e-06
0.485214
1.83866e-06
0.485215
1.78059e-06
0.485215
1.63881e-06
0.485215
1.55703e-06
0.485216
1.6462e-06
0.485216
1.74239e-06
0.485217
1.65245e-06
0.485218
1.47917e-06
0.485219
1.4307e-06
0.48522
1.49376e-06
0.48522
1.4996e-06
0.485221
1.41393e-06
0.485222
1.35661e-06
0.485222
1.40249e-06
0.485223
1.47535e-06
0.485224
1.50226e-06
0.485225
1.54729e-06
0.485225
1.64939e-06
0.485226
1.68981e-06
0.485226
1.59379e-06
0.485227
1.49075e-06
0.485228
1.5587e-06
0.485229
1.77288e-06
0.485229
1.96424e-06
0.485229
2.05238e-06
0.485229
2.12498e-06
0.485229
2.29224e-06
0.485229
2.52356e-06
0.485228
2.66479e-06
0.485227
2.61337e-06
0.485226
2.4395e-06
0.485225
2.31e-06
0.485225
2.31496e-06
0.485224
2.38545e-06
0.485223
2.37087e-06
0.485222
2.2017e-06
0.485222
1.96732e-06
0.485222
1.81995e-06
0.485222
1.83421e-06
0.485222
1.97101e-06
0.485222
2.12382e-06
0.485222
2.18616e-06
0.485222
2.13051e-06
0.485222
2.0369e-06
0.485222
2.00257e-06
0.485222
2.02897e-06
0.485222
2.04345e-06
0.485222
2.0153e-06
0.485222
1.99436e-06
0.485222
2.03068e-06
0.485222
2.09413e-06
0.485222
2.09489e-06
0.485222
1.98705e-06
0.485222
1.84122e-06
0.485222
1.78046e-06
0.485222
1.82877e-06
0.485222
1.86684e-06
0.485222
1.77986e-06
0.485222
1.60467e-06
0.485223
1.47249e-06
0.485224
1.43807e-06
0.485225
1.44382e-06
0.485225
1.4299e-06
0.485226
1.41006e-06
0.485227
1.41345e-06
0.485228
1.41917e-06
0.485229
1.41045e-06
0.485229
1.43467e-06
0.48523
1.54358e-06
0.48523
1.68497e-06
0.485231
1.74155e-06
0.485231
1.69917e-06
0.485231
1.69265e-06
0.485231
1.81521e-06
0.485231
1.96254e-06
0.485231
1.97238e-06
0.485231
1.86572e-06
0.485231
1.81223e-06
0.485231
1.871e-06
0.48523
1.92125e-06
0.48523
1.87635e-06
0.485231
1.8103e-06
0.485231
1.7986e-06
0.485231
1.7746e-06
0.485231
1.66082e-06
0.485231
1.54e-06
0.485231
1.55571e-06
0.485232
1.69002e-06
0.485232
1.78054e-06
0.485232
1.75331e-06
0.485232
1.70081e-06
0.485233
1.70347e-06
0.485233
1.71516e-06
0.485233
1.68923e-06
0.485234
1.69116e-06
0.485234
1.78296e-06
0.485234
1.8832e-06
0.485235
1.86766e-06
0.485235
1.75722e-06
0.485235
1.68663e-06
0.485235
1.71735e-06
0.485235
1.79532e-06
0.485235
1.87156e-06
0.485235
1.94108e-06
0.485235
1.9712e-06
0.485235
1.91561e-06
0.485235
1.81874e-06
0.485235
1.78891e-06
0.485236
1.8356e-06
0.485236
1.84009e-06
0.485236
1.73353e-06
0.485236
1.60244e-06
0.485236
1.55521e-06
0.485236
1.57166e-06
0.485237
1.56621e-06
0.485237
1.53012e-06
0.485237
1.5174e-06
0.485238
1.53003e-06
0.485238
1.51816e-06
0.485239
1.47701e-06
0.485239
1.44803e-06
0.48524
1.42287e-06
0.48524
1.34137e-06
0.485241
1.20547e-06
0.485241
1.10604e-06
0.485242
1.09768e-06
0.485243
1.12211e-06
0.485243
1.10969e-06
0.485244
1.08716e-06
0.485244
1.11263e-06
0.485245
1.16201e-06
0.485245
1.16632e-06
0.485246
1.12769e-06
0.485246
1.11152e-06
0.485247
1.13642e-06
0.485247
1.15741e-06
0.485248
1.16358e-06
0.485248
1.21202e-06
0.485249
1.33766e-06
0.485249
1.48557e-06
0.485249
1.57144e-06
0.485249
1.58204e-06
0.485249
1.58079e-06
0.48525
1.62391e-06
0.48525
1.69954e-06
0.48525
1.75096e-06
0.48525
1.74804e-06
0.48525
1.72845e-06
0.48525
1.75773e-06
0.48525
1.85263e-06
0.48525
1.95822e-06
0.48525
2.00222e-06
0.48525
1.9652e-06
0.48525
1.88925e-06
0.485251
1.82295e-06
0.485251
1.77195e-06
0.485251
1.71014e-06
0.485251
1.63079e-06
0.485252
1.56645e-06
0.485252
1.5508e-06
0.485252
1.58131e-06
0.485252
1.63633e-06
0.485252
1.70746e-06
0.485252
1.78663e-06
0.485252
1.83849e-06
0.485252
1.8282e-06
0.485253
1.77934e-06
0.485253
1.76012e-06
0.485253
1.79643e-06
0.485253
1.83847e-06
0.485253
1.83605e-06
0.485253
1.81098e-06
0.485253
1.81982e-06
0.485253
1.86682e-06
0.485253
1.8938e-06
0.485253
1.85428e-06
0.485253
1.76609e-06
0.485253
1.68262e-06
0.485253
1.63142e-06
0.485253
1.59087e-06
0.485254
1.52307e-06
0.485254
1.42577e-06
0.485254
1.34833e-06
0.485255
1.3459e-06
0.485255
1.40907e-06
0.485255
1.45623e-06
0.485256
1.42127e-06
0.485256
1.33751e-06
0.485257
1.29918e-06
0.485257
1.33615e-06
0.485258
1.36923e-06
0.485258
1.31634e-06
0.485259
1.20833e-06
0.485259
1.15732e-06
0.48526
1.22261e-06
0.485261
1.34837e-06
0.485261
1.43362e-06
0.485261
1.43613e-06
0.485262
1.40388e-06
0.485262
1.41895e-06
0.485263
1.50752e-06
0.485263
1.60511e-06
0.485263
1.6257e-06
0.485264
1.55995e-06
0.485264
1.47913e-06
0.485264
1.44694e-06
0.485265
1.45906e-06
0.485265
1.47107e-06
0.485265
1.45848e-06
0.485266
1.43895e-06
0.485266
1.4442e-06
0.485266
1.47371e-06
0.485267
1.48405e-06
0.485267
1.43921e-06
0.485267
1.3627e-06
0.485268
1.29897e-06
0.485268
1.26274e-06
0.485269
1.19808e-06
1.17297e-06
0.485206
6.3758e-07
0.485206
7.70144e-07
0.485206
3.53666e-07
0.485206
5.41627e-07
0.485207
6.66553e-07
0.485208
1.03513e-06
0.485208
1.45116e-06
0.485208
1.27164e-06
0.485208
1.161e-06
0.485208
1.46875e-06
0.485209
1.29963e-06
0.48521
8.74053e-07
0.485211
1.08203e-06
0.485211
1.51996e-06
0.485211
1.66701e-06
0.485212
1.7426e-06
0.485211
1.98686e-06
0.48521
2.20042e-06
0.48521
2.31754e-06
0.485209
2.19709e-06
0.485209
1.76622e-06
0.485208
1.57445e-06
0.485208
1.4062e-06
0.485209
1.11512e-06
0.485209
1.12033e-06
0.48521
1.26849e-06
0.48521
1.36658e-06
0.485211
1.3874e-06
0.485211
1.42395e-06
0.485212
1.46455e-06
0.485212
1.48827e-06
0.485212
1.58566e-06
0.485212
1.74058e-06
0.485212
1.73143e-06
0.485212
1.51282e-06
0.485212
1.37217e-06
0.485213
1.45428e-06
0.485213
1.55e-06
0.485213
1.5241e-06
0.485213
1.5279e-06
0.485212
1.65554e-06
0.485212
1.76928e-06
0.485212
1.77541e-06
0.485211
1.75788e-06
0.485211
1.76067e-06
0.485211
1.66752e-06
0.485211
1.44727e-06
0.485211
1.32762e-06
0.485211
1.45547e-06
0.485211
1.61245e-06
0.485211
1.50503e-06
0.485212
1.23549e-06
0.485212
1.16629e-06
0.485213
1.38127e-06
0.485213
1.56463e-06
0.485214
1.46462e-06
0.485214
1.2242e-06
0.485216
1.13809e-06
0.485217
1.25847e-06
0.485218
1.39285e-06
0.485219
1.42715e-06
0.48522
1.47651e-06
0.485221
1.66944e-06
0.485221
1.92355e-06
0.485222
2.03538e-06
0.485222
1.92245e-06
0.485223
1.6982e-06
0.485223
1.52744e-06
0.485223
1.45372e-06
0.485224
1.39676e-06
0.485225
1.30378e-06
0.485225
1.23145e-06
0.485226
1.24174e-06
0.485227
1.28739e-06
0.485228
1.27427e-06
0.485229
1.19766e-06
0.48523
1.14922e-06
0.48523
1.20254e-06
0.485231
1.33229e-06
0.485232
1.44627e-06
0.485232
1.47687e-06
0.485233
1.44313e-06
0.485234
1.42044e-06
0.485234
1.45345e-06
0.485234
1.52911e-06
0.485235
1.62695e-06
0.485235
1.74349e-06
0.485235
1.84887e-06
0.485235
1.88237e-06
0.485234
1.83215e-06
0.485234
1.77182e-06
0.485234
1.76876e-06
0.485233
1.79681e-06
0.485233
1.7867e-06
0.485233
1.74111e-06
0.485232
1.72757e-06
0.485232
1.75949e-06
0.485232
1.75667e-06
0.485231
1.65812e-06
0.485231
1.52583e-06
0.485232
1.46731e-06
0.485232
1.48204e-06
0.485232
1.46645e-06
0.485233
1.38122e-06
0.485233
1.30892e-06
0.485234
1.30321e-06
0.485234
1.28494e-06
0.485235
1.18063e-06
0.485236
1.07782e-06
0.485237
1.11207e-06
0.485237
1.24539e-06
0.485238
1.30321e-06
0.485238
1.22527e-06
0.485239
1.13546e-06
0.48524
1.14013e-06
0.48524
1.19367e-06
0.48524
1.22024e-06
0.485241
1.25218e-06
0.485241
1.34439e-06
0.485241
1.43439e-06
0.485242
1.41745e-06
0.485242
1.32324e-06
0.485243
1.28696e-06
0.485243
1.35069e-06
0.485243
1.41641e-06
0.485243
1.41635e-06
0.485244
1.40758e-06
0.485244
1.44587e-06
0.485245
1.47977e-06
0.485245
1.44851e-06
0.485245
1.39907e-06
0.485246
1.41368e-06
0.485246
1.48752e-06
0.485246
1.56344e-06
0.485247
1.62869e-06
0.485247
1.68712e-06
0.485247
1.68781e-06
0.485247
1.59051e-06
0.485248
1.46977e-06
0.485248
1.44536e-06
0.485248
1.51451e-06
0.485248
1.5573e-06
0.485249
1.51266e-06
0.485249
1.44899e-06
0.485249
1.44054e-06
0.485249
1.47139e-06
0.485249
1.50346e-06
0.485249
1.55393e-06
0.485249
1.6399e-06
0.485249