/*--------------------------------*- C++ -*----------------------------------*\
| =========                 |                                                 |
| \\      /  F ield         | OpenFOAM: The Open Source CFD Toolbox           |
|  \\    /   O peration     | Version:  2406                                  |
|   \\  /    A nd           | Website:  www.openfoam.com                      |
|    \\/     M anipulation  |                                                 |
\*---------------------------------------------------------------------------*/
FoamFile
{
    version     2.0;
    format      ascii;
    arch        "LSB;label=32;scalar=64";
    class       volScalarField;
    location    "0.65";
    object      p;
}
// * * * * * * * * * * * * * * * * * * * * * * * * * * * * * * * * * * * * * //

dimensions      [1 -1 -2 0 0 0 0];

internalField   nonuniform List<scalar> 
6250
(
547.427
-2384.35
-459.369
958.746
929.302
509.068
360.253
425.85
492.584
496.892
477.025
466.353
466.335
467.679
466.395
463.697
461.239
459.291
457.472
455.547
453.541
451.536
449.556
447.584
445.609
443.634
441.65
439.665
437.688
435.714
433.741
431.763
429.784
427.806
425.826
423.845
421.867
419.89
417.914
415.937
413.959
411.98
410.003
408.026
406.046
404.064
402.086
400.111
398.135
396.157
394.18
392.205
390.228
388.249
386.27
384.294
382.319
380.344
378.368
376.392
374.414
372.436
370.458
368.483
366.511
364.536
362.558
360.579
358.604
356.63
354.656
352.679
350.703
348.728
346.753
344.777
342.8
340.827
338.855
336.881
334.904
332.927
330.953
328.98
327.005
325.03
323.056
321.082
319.107
317.132
315.158
313.183
311.209
309.235
307.262
305.288
303.314
301.338
299.362
297.387
295.415
293.442
291.467
289.49
287.514
285.539
283.564
281.59
279.616
277.641
275.667
273.691
271.715
269.737
267.761
265.788
263.815
261.839
259.86
257.882
255.907
253.933
251.958
249.98
248.002
246.026
244.049
242.073
240.095
238.119
236.143
234.166
232.188
230.208
228.229
226.25
224.273
222.3
220.327
218.351
216.371
214.389
212.405
210.424
208.446
206.472
204.5
202.525
200.548
198.568
196.587
194.607
192.626
190.645
188.666
186.691
184.719
182.745
180.768
178.788
176.805
174.823
172.843
170.864
168.887
166.911
164.937
162.963
160.988
159.01
157.03
155.049
153.069
151.089
149.111
147.135
145.16
143.187
141.212
139.236
137.259
135.282
133.304
131.324
129.344
127.365
125.39
123.417
121.445
119.471
117.497
115.523
113.549
111.575
109.598
107.621
105.643
103.666
101.692
99.7194
97.7468
95.7743
93.802
91.8295
89.8565
87.883
85.9087
83.9331
81.9561
79.978
77.9995
76.0219
74.0458
72.0709
70.0967
68.1228
66.1496
64.1776
62.2066
60.2363
58.2664
56.2958
54.3236
52.3496
50.3745
48.3984
46.4215
44.4436
42.4643
40.4837
38.5027
36.5222
34.5429
32.5643
30.5858
28.6075
26.6304
24.6557
22.6832
20.7111
18.7383
16.7651
14.7926
12.8212
10.8507
8.87996
6.90799
4.93465
2.96086
0.986787
547.392
-2384.4
-459.395
958.753
929.311
509.067
360.255
425.857
492.588
496.884
477.02
466.355
466.337
467.677
466.395
463.7
461.247
459.296
457.466
455.536
453.532
451.529
449.55
447.581
445.605
443.631
441.654
439.673
437.693
435.713
433.734
431.756
429.778
427.802
425.827
423.849
421.87
419.89
417.912
415.935
413.957
411.978
410
408.025
406.048
404.069
402.09
400.112
398.136
396.159
394.182
392.205
390.226
388.248
386.272
384.296
382.321
380.344
378.366
376.388
374.412
372.438
370.463
368.486
366.509
364.534
362.559
360.582
358.604
356.628
354.653
352.678
350.704
348.73
346.756
344.778
342.8
340.824
338.854
336.883
334.908
332.928
330.951
328.978
327.007
325.034
323.058
321.081
319.105
317.132
315.159
313.185
311.21
309.235
307.26
305.286
303.313
301.339
299.363
297.386
295.412
293.44
291.467
289.491
287.513
285.535
283.561
281.59
279.619
277.644
275.666
273.688
271.712
269.738
267.762
265.787
263.813
261.839
259.862
257.882
255.905
253.932
251.96
249.984
248.004
246.024
244.046
242.071
240.097
238.123
236.147
234.168
232.186
230.205
228.227
226.252
224.278
222.304
220.329
218.352
216.372
214.39
212.407
210.427
208.448
206.474
204.502
202.531
200.555
198.573
196.588
194.604
192.625
190.648
188.672
186.697
184.722
182.747
180.77
178.79
176.807
174.824
172.842
170.864
168.888
166.915
164.94
162.965
160.989
159.011
157.03
155.049
153.068
151.089
149.112
147.136
145.161
143.187
141.214
139.239
137.26
135.28
133.301
131.323
129.345
127.367
125.39
123.416
121.443
119.472
117.5
115.525
113.549
111.573
109.597
107.621
105.644
103.668
101.692
99.7178
97.7452
95.7735
93.8025
91.8312
89.8584
87.884
85.9085
83.9326
81.9564
79.9793
78.0011
76.0223
74.0445
72.0685
70.0944
68.1214
66.1494
64.1783
62.2079
60.2377
58.2669
56.2957
54.324
52.3514
50.3768
48.4002
46.4219
44.4426
42.4633
40.4837
38.5035
36.5224
34.5414
32.5622
30.5852
28.609
26.6323
24.6557
22.6807
20.7085
18.7377
16.7667
14.7948
12.8223
10.8501
8.87861
6.90743
4.93522
2.9625
0.98617
547.396
-2384.4
-459.386
958.76
929.319
509.062
360.241
425.855
492.592
496.895
477.028
466.359
466.343
467.68
466.392
463.696
461.244
459.297
457.467
455.539
453.536
451.533
449.553
447.583
445.606
443.627
441.652
439.675
437.696
435.714
433.737
431.761
429.782
427.803
425.825
423.849
421.872
419.893
417.913
415.934
413.958
411.98
410
408.022
406.047
404.071
402.092
400.111
398.133
396.158
394.181
392.204
390.226
388.249
386.272
384.296
382.319
380.344
378.367
376.39
374.412
372.438
370.464
368.487
366.508
364.53
362.556
360.583
358.607
356.629
354.653
352.679
350.704
348.729
346.753
344.778
342.803
340.827
338.853
336.88
334.906
332.929
330.952
328.978
327.006
325.033
323.057
321.081
319.106
317.131
315.157
313.184
311.21
309.236
307.261
305.286
303.312
301.337
299.363
297.388
295.414
293.441
291.467
289.491
287.514
285.537
283.563
281.59
279.618
277.644
275.666
273.688
271.712
269.739
267.766
265.79
263.812
261.836
259.86
257.884
255.907
253.932
251.958
249.983
248.005
246.025
244.046
242.07
240.096
238.123
236.147
234.168
232.187
230.205
228.226
226.25
224.278
222.304
220.329
218.351
216.369
214.386
212.404
210.426
208.45
206.475
204.501
202.526
200.55
198.57
196.587
194.602
192.621
190.644
188.67
186.696
184.721
182.745
180.766
178.786
176.804
174.822
172.841
170.863
168.887
166.913
164.94
162.964
160.987
159.009
157.029
155.048
153.067
151.087
149.111
147.136
145.161
143.187
141.213
139.238
137.261
135.281
133.3
131.321
129.343
127.367
125.391
123.416
121.443
119.471
117.499
115.526
113.55
111.573
109.596
107.619
105.643
103.667
101.692
99.7179
97.7456
95.774
93.8025
91.8309
89.8587
87.8849
85.9092
83.9321
81.9546
79.9772
78
76.0226
74.0453
72.0688
70.0941
68.1212
66.1495
64.1787
62.2085
60.2382
58.2674
56.2959
54.3236
52.3503
50.3758
48.3999
46.4223
44.4432
42.4631
40.4827
38.5025
36.5224
34.542
32.562
30.5837
28.6074
26.6323
24.6573
22.6824
20.7087
18.7365
16.7654
14.7946
12.8233
10.8512
8.87879
6.90662
4.93443
2.96102
0.987201
547.402
-2384.4
-459.396
958.748
929.312
509.064
360.241
425.849
492.586
496.891
477.021
466.353
466.341
467.681
466.39
463.694
461.24
459.294
457.468
455.541
453.537
451.531
449.552
447.586
445.609
443.627
441.649
439.671
437.693
435.715
433.735
431.759
429.783
427.802
425.823
423.847
421.87
419.892
417.913
415.935
413.957
411.98
410.001
408.022
406.045
404.069
402.092
400.112
398.132
396.156
394.181
392.205
390.228
388.25
386.273
384.296
382.319
380.342
378.366
376.39
374.413
372.437
370.461
368.486
366.508
364.531
362.556
360.583
358.607
356.63
354.653
352.679
350.705
348.728
346.751
344.776
342.803
340.83
338.854
336.878
334.903
332.929
330.954
328.98
327.005
325.032
323.057
321.082
319.107
317.133
315.158
313.183
311.209
309.236
307.263
305.288
303.311
301.336
299.362
297.389
295.415
293.441
291.465
289.489
287.514
285.539
283.564
281.59
279.616
277.641
275.665
273.688
271.712
269.738
267.766
265.791
263.812
261.834
259.857
257.884
255.91
253.934
251.958
249.98
248.002
246.024
244.046
242.071
240.097
238.123
236.147
234.168
232.187
230.205
228.226
226.25
224.278
222.305
220.33
218.351
216.37
214.386
212.404
210.426
208.451
206.478
204.504
202.528
200.55
198.57
196.588
194.605
192.623
190.645
188.671
186.698
184.724
182.747
180.768
178.786
176.804
174.823
172.843
170.865
168.889
166.915
164.942
162.967
160.989
159.009
157.028
155.048
153.067
151.088
149.111
147.137
145.164
143.189
141.214
139.237
137.26
135.282
133.301
131.321
129.342
127.366
125.392
123.418
121.445
119.472
117.499
115.526
113.551
111.574
109.597
107.619
105.642
103.667
101.692
99.7184
97.7462
95.7745
93.8027
91.8306
89.8582
87.8848
85.91
83.9335
81.9555
79.9772
77.9994
76.0222
74.0456
72.0696
70.0946
68.1213
66.1494
64.1785
62.2081
60.2381
58.2677
56.2966
54.3243
52.3507
50.3758
48.3997
46.4223
44.4436
42.4636
40.4828
38.5021
36.5222
34.5427
32.5632
30.5841
28.6065
26.631
24.6568
22.6831
20.7097
18.7369
16.7649
14.7938
12.8229
10.8517
8.87959
6.90697
4.93424
2.96114
0.98719
547.391
-2384.41
-459.393
958.754
929.316
509.067
360.243
425.849
492.589
496.89
477.018
466.353
466.342
467.686
466.399
463.701
461.241
459.295
457.469
455.539
453.536
451.533
449.552
447.581
445.607
443.628
441.65
439.672
437.694
435.717
433.738
431.76
429.782
427.804
425.826
423.848
421.869
419.891
417.915
415.936
413.956
411.978
410.002
408.024
406.045
404.069
402.092
400.114
398.134
396.156
394.181
392.205
390.227
388.249
386.272
384.296
382.319
380.342
378.366
376.393
374.417
372.438
370.459
368.483
366.509
364.534
362.558
360.582
358.606
356.63
354.653
352.679
350.705
348.73
346.752
344.776
342.802
340.83
338.855
336.878
334.902
332.928
330.955
328.981
327.006
325.031
323.056
321.082
319.107
317.133
315.158
313.183
311.209
309.235
307.262
305.288
303.312
301.336
299.361
297.389
295.416
293.441
291.465
289.489
287.514
285.54
283.566
281.591
279.615
277.639
275.664
273.69
271.715
269.74
267.766
265.791
263.813
261.834
259.857
257.883
255.911
253.937
251.959
249.98
248
246.022
244.046
242.072
240.099
238.125
236.147
234.167
232.186
230.205
228.227
226.251
224.278
222.305
220.329
218.35
216.369
214.386
212.404
210.425
208.45
206.478
204.505
202.528
200.548
198.567
196.585
194.603
192.623
190.646
188.671
186.697
184.723
182.746
180.766
178.785
176.802
174.821
172.842
170.865
168.89
166.915
164.941
162.966
160.988
159.007
157.026
155.046
153.066
151.087
149.111
147.136
145.163
143.19
141.214
139.237
137.259
135.28
133.3
131.321
129.342
127.365
125.391
123.418
121.446
119.473
117.499
115.525
113.55
111.574
109.596
107.618
105.641
103.666
101.691
99.7176
97.7456
95.7745
93.8033
91.8312
89.8581
87.8842
85.9093
83.9332
81.9559
79.9775
77.999
76.0213
74.0446
72.069
70.0945
68.1214
66.1495
64.1785
62.208
60.2378
58.2676
56.2966
54.3246
52.3511
50.3759
48.3994
46.4217
44.4431
42.4634
40.4828
38.5017
36.5211
34.5417
32.5631
30.5848
28.6069
26.6305
24.6559
22.6827
20.71
18.7376
16.7655
14.7937
12.8223
10.8512
8.87956
6.90712
4.93422
2.96066
0.987307
547.383
-2384.41
-459.399
958.75
929.318
509.066
360.242
425.849
492.59
496.895
477.022
466.352
466.336
467.678
466.392
463.699
461.241
459.293
457.467
455.537
453.536
451.533
449.552
447.581
445.606
443.629
441.651
439.67
437.692
435.718
433.739
431.759
429.78
427.802
425.825
423.847
421.868
419.891
417.915
415.937
413.957
411.978
410.001
408.024
406.046
404.068
402.089
400.111
398.134
396.158
394.182
392.205
390.227
388.249
386.273
384.296
382.318
380.341
378.365
376.391
374.416
372.437
370.458
368.482
366.508
364.535
362.559
360.581
358.605
356.629
354.653
352.677
350.703
348.729
346.754
344.777
342.801
340.827
338.854
336.879
334.903
332.928
330.954
328.98
327.006
325.031
323.056
321.082
319.107
317.132
315.158
313.184
311.21
309.235
307.261
305.287
303.312
301.337
299.362
297.388
295.415
293.441
291.465
289.489
287.514
285.54
283.566
281.591
279.614
277.637
275.662
273.69
271.717
269.742
267.765
265.788
263.811
261.834
259.857
257.883
255.91
253.937
251.959
249.979
247.999
246.021
244.045
242.073
240.1
238.126
236.148
234.166
232.184
230.204
228.227
226.252
224.279
222.305
220.329
218.349
216.367
214.386
212.405
210.427
208.451
206.478
204.505
202.529
200.549
198.566
196.584
194.603
192.624
190.648
188.673
186.699
184.723
182.746
180.766
178.785
176.803
174.822
172.843
170.867
168.892
166.918
164.942
162.966
160.988
159.008
157.026
155.045
153.066
151.089
149.113
147.138
145.164
143.191
141.216
139.238
137.259
135.279
133.3
131.321
129.342
127.366
125.391
123.418
121.446
119.474
117.501
115.526
113.55
111.573
109.596
107.619
105.641
103.666
101.691
99.718
97.7458
95.7746
93.8036
91.832
89.8591
87.8848
85.9094
83.933
81.9558
79.9779
77.9996
76.0217
74.0448
72.069
70.0946
68.1215
66.1498
64.1791
62.2087
60.2383
58.2677
56.2966
54.3246
52.3513
50.3764
48.3998
46.4217
44.4428
42.4632
40.4832
38.5024
36.5213
34.5411
32.5624
30.5848
28.6077
26.6312
24.656
22.6823
20.7096
18.7377
16.766
14.7944
12.8226
10.851
8.87944
6.90727
4.93439
2.96101
0.987179
547.389
-2384.41
-459.409
958.74
929.315
509.067
360.248
425.85
492.584
496.892
477.022
466.352
466.34
467.681
466.393
463.699
461.242
459.296
457.471
455.538
453.534
451.534
449.554
447.581
445.608
443.631
441.651
439.67
437.691
435.714
433.738
431.76
429.781
427.803
425.826
423.848
421.869
419.891
417.914
415.937
413.958
411.977
409.999
408.025
406.05
404.071
402.09
400.111
398.135
396.158
394.18
392.202
390.226
388.251
386.274
384.296
382.319
380.343
378.368
376.391
374.414
372.437
370.461
368.485
366.51
364.535
362.558
360.581
358.604
356.629
354.654
352.679
350.703
348.729
346.755
344.779
342.802
340.826
338.853
336.881
334.906
332.929
330.954
328.98
327.006
325.031
323.057
321.082
319.107
317.132
315.158
313.184
311.21
309.236
307.26
305.285
303.312
301.338
299.364
297.389
295.414
293.439
291.465
289.491
287.516
285.541
283.565
281.59
279.614
277.638
275.663
273.69
271.718
269.744
267.766
265.787
263.809
261.833
259.859
257.886
255.912
253.936
251.958
249.978
247.998
246.021
244.046
242.074
240.101
238.126
236.148
234.166
232.184
230.204
228.227
226.253
224.28
222.306
220.329
218.349
216.366
214.385
212.405
210.429
208.454
206.479
204.504
202.527
200.548
198.566
196.583
194.602
192.624
190.648
188.674
186.699
184.723
182.744
180.764
178.783
176.801
174.821
172.843
170.867
168.892
166.918
164.942
162.965
160.986
159.006
157.025
155.044
153.064
151.088
149.113
147.139
145.165
143.191
141.215
139.238
137.259
135.278
133.298
131.319
129.342
127.366
125.392
123.418
121.446
119.474
117.501
115.526
113.55
111.573
109.595
107.617
105.64
103.665
101.69
99.7176
97.7456
95.7742
93.8031
91.8316
89.8591
87.8851
85.9096
83.9328
81.9553
79.9773
77.9993
76.0215
74.0445
72.0688
70.0944
68.1213
66.1494
64.1787
62.2086
60.2385
58.2679
56.2965
54.3243
52.3508
50.3761
48.3997
46.4217
44.4425
42.4625
40.4824
38.5022
36.5217
34.5413
32.5618
30.5839
28.6073
26.6315
24.6564
22.6824
20.7094
18.7373
16.7658
14.7944
12.8228
10.8511
8.87925
6.9071
4.93434
2.96081
0.987185
547.39
-2384.41
-459.402
958.743
929.309
509.06
360.24
425.848
492.586
496.892
477.022
466.354
466.342
467.682
466.39
463.698
461.243
459.292
457.467
455.541
453.537
451.533
449.556
447.583
445.605
443.628
441.651
439.673
437.692
435.713
433.736
431.759
429.781
427.804
425.826
423.846
421.867
419.89
417.914
415.938
413.958
411.978
409.998
408.022
406.046
404.068
402.091
400.114
398.137
396.158
394.179
392.201
390.226
388.251
386.273
384.294
382.317
380.344
378.369
376.39
374.411
372.435
370.462
368.486
366.509
364.532
362.557
360.581
358.604
356.628
354.653
352.68
350.704
348.728
346.753
344.777
342.801
340.827
338.853
336.88
334.906
332.929
330.953
328.979
327.005
325.031
323.057
321.082
319.107
317.133
315.158
313.184
311.21
309.235
307.26
305.286
303.312
301.339
299.364
297.388
295.413
293.438
291.464
289.491
287.518
285.542
283.565
281.588
279.612
277.638
275.664
273.691
271.718
269.743
267.766
265.786
263.807
261.832
259.86
257.888
255.913
253.936
251.956
249.976
247.997
246.02
244.047
242.075
240.102
238.126
236.147
234.165
232.184
230.204
228.227
226.253
224.28
222.305
220.328
218.348
216.366
214.384
212.405
210.429
208.455
206.48
204.504
202.526
200.546
198.565
196.583
194.603
192.625
190.649
188.675
186.7
184.723
182.744
180.763
178.782
176.801
174.822
172.844
170.869
168.894
166.92
164.944
162.966
160.986
159.005
157.024
155.044
153.065
151.088
149.114
147.141
145.167
143.192
141.216
139.238
137.259
135.278
133.298
131.318
129.341
127.366
125.393
123.42
121.448
119.475
117.502
115.527
113.55
111.573
109.595
107.617
105.64
103.665
101.69
99.7178
97.7462
95.7749
93.8037
91.832
89.8594
87.8855
85.9101
83.9334
81.9557
79.9775
77.9994
76.0216
74.0447
72.0691
70.0949
68.1218
66.1499
64.1789
62.2087
60.2387
58.2683
56.2971
54.3246
52.3509
50.3759
48.3996
46.4219
44.4429
42.4626
40.4821
38.5018
36.5218
34.5418
32.5623
30.5839
28.607
26.6314
24.6567
22.6829
20.7099
18.7376
16.7658
14.7944
12.8231
10.8514
8.87945
6.90717
4.93442
2.96092
0.987263
547.391
-2384.41
-459.405
958.741
929.312
509.066
360.242
425.851
492.586
496.889
477.022
466.354
466.339
467.68
466.393
463.699
461.24
459.292
457.468
455.541
453.535
451.53
449.553
447.583
445.608
443.627
441.649
439.673
437.695
435.716
433.737
431.758
429.783
427.806
425.826
423.845
421.867
419.891
417.913
415.936
413.959
411.983
410.003
408.023
406.043
404.066
402.091
400.114
398.135
396.156
394.179
392.204
390.229
388.251
386.273
384.295
382.318
380.343
378.368
376.391
374.413
372.437
370.462
368.486
366.509
364.532
362.557
360.582
358.605
356.628
354.653
352.681
350.707
348.73
346.752
344.776
342.802
340.829
338.855
336.88
334.905
332.929
330.954
328.98
327.006
325.031
323.056
321.082
319.108
317.134
315.16
313.184
311.208
309.234
307.26
305.287
303.314
301.34
299.364
297.387
295.411
293.437
291.464
289.492
287.519
285.543
283.565
281.587
279.61
277.638
275.666
273.694
271.719
269.743
267.764
265.786
263.808
261.833
259.861
257.889
255.914
253.936
251.956
249.975
247.997
246.021
244.048
242.077
240.103
238.126
236.146
234.164
232.184
230.205
228.229
226.255
224.281
222.305
220.327
218.347
216.366
214.385
212.406
210.43
208.456
206.481
204.504
202.525
200.544
198.563
196.583
194.603
192.626
190.65
188.675
186.699
184.722
182.743
180.762
178.78
176.8
174.822
172.845
170.87
168.895
166.92
164.943
162.965
160.984
159.003
157.022
155.043
153.065
151.088
149.114
147.141
145.168
143.193
141.216
139.237
137.257
135.277
133.297
131.318
129.341
127.366
125.393
123.42
121.448
119.476
117.502
115.526
113.55
111.572
109.594
107.616
105.639
103.664
101.69
99.7171
97.7457
95.7748
93.8037
91.832
89.8592
87.8852
85.9098
83.9331
81.9554
79.9772
77.9991
76.0214
74.0444
72.0687
70.0945
68.1217
66.1499
64.1789
62.2085
60.2384
58.268
56.2968
54.3245
52.3508
50.3756
48.399
46.4214
44.4426
42.4627
40.482
38.5012
36.5211
34.5416
32.5624
30.584
28.6069
26.6312
24.6565
22.6829
20.71
18.7378
16.7658
14.7943
12.8229
10.8514
8.87948
6.90714
4.93433
2.96087
0.987177
547.389
-2384.41
-459.406
958.743
929.311
509.063
360.243
425.85
492.584
496.887
477.021
466.352
466.339
467.681
466.392
463.7
461.244
459.292
457.466
455.541
453.534
451.529
449.553
447.586
445.609
443.626
441.648
439.673
437.695
435.715
433.736
431.759
429.783
427.803
425.824
423.847
421.871
419.892
417.912
415.933
413.957
411.981
410.002
408.023
406.045
404.069
402.092
400.114
398.134
396.156
394.179
392.204
390.227
388.249
386.273
384.296
382.319
380.341
378.365
376.39
374.415
372.438
370.461
368.484
366.508
364.533
362.557
360.581
358.605
356.628
354.653
352.68
350.706
348.729
346.75
344.775
342.802
340.83
338.855
336.879
334.903
332.928
330.954
328.98
327.005
325.03
323.055
321.081
319.108
317.135
315.16
313.183
311.207
309.232
307.26
305.289
303.316
301.34
299.363
297.385
295.41
293.437
291.465
289.493
287.519
285.542
283.564
281.586
279.61
277.637
275.667
273.695
271.719
269.741
267.762
265.784
263.808
261.834
259.861
257.889
255.913
253.935
251.954
249.974
247.997
246.022
244.049
242.077
240.102
238.125
236.144
234.163
232.183
230.205
228.23
226.255
224.281
222.305
220.326
218.345
216.365
214.385
212.408
210.431
208.456
206.481
204.503
202.524
200.543
198.562
196.582
194.604
192.627
190.651
188.676
186.699
184.721
182.741
180.761
178.78
176.8
174.822
172.847
170.872
168.897
166.921
164.943
162.964
160.984
159.002
157.021
155.042
153.065
151.09
149.116
147.143
145.169
143.194
141.216
139.237
137.257
135.276
133.296
131.318
129.341
127.366
125.393
123.421
121.45
119.477
117.503
115.527
113.55
111.572
109.594
107.616
105.639
103.664
101.69
99.7173
97.7459
95.7751
93.8042
91.8326
89.8599
87.8857
85.9102
83.9334
81.9557
79.9775
77.9993
76.0217
74.0449
72.0692
70.0948
68.1219
66.1503
64.1794
62.209
60.2387
58.2682
56.297
54.3247
52.351
50.3758
48.3991
46.4212
44.4424
42.4628
40.4823
38.5015
36.5209
34.5413
32.5625
30.5844
28.6073
26.6314
24.6567
22.683
20.7102
18.738
16.7662
14.7946
12.8231
10.8515
8.87965
6.90729
4.93446
2.96087
0.98729
547.388
-2384.42
-459.406
958.746
929.306
509.058
360.243
425.851
492.585
496.888
477.025
466.356
466.337
467.681
466.394
463.697
461.244
459.297
457.469
455.54
453.534
451.531
449.553
447.583
445.608
443.63
441.651
439.671
437.692
435.715
433.738
431.76
429.781
427.802
425.825
423.848
421.869
419.891
417.914
415.938
413.958
411.978
409.998
408.021
406.046
404.069
402.091
400.113
398.136
396.158
394.18
392.203
390.226
388.25
386.273
384.296
382.32
380.342
378.366
376.391
374.416
372.438
370.46
368.483
366.509
364.535
362.558
360.58
358.604
356.63
354.655
352.68
350.704
348.728
346.752
344.777
342.804
340.831
338.855
336.878
334.903
332.929
330.956
328.982
327.005
325.029
323.055
321.082
319.11
317.136
315.16
313.183
311.206
309.232
307.261
305.29
303.317
301.341
299.362
297.384
295.409
293.437
291.467
289.495
287.52
285.541
283.563
281.586
279.611
277.639
275.668
273.695
271.72
269.741
267.761
265.783
263.809
261.836
259.863
257.889
255.913
253.934
251.954
249.975
247.998
246.024
244.051
242.077
240.102
238.124
236.143
234.163
232.184
230.207
228.231
226.257
224.281
222.304
220.325
218.344
216.364
214.386
212.409
210.433
208.457
206.48
204.502
202.523
200.542
198.562
196.582
194.604
192.628
190.653
188.677
186.699
184.72
182.74
180.759
178.779
176.8
174.823
172.847
170.873
168.898
166.921
164.943
162.963
160.982
159.001
157.02
155.041
153.065
151.091
149.117
147.144
145.169
143.194
141.216
139.236
137.256
135.275
133.295
131.317
129.341
127.367
125.394
123.422
121.45
119.477
117.503
115.527
113.549
111.571
109.593
107.615
105.638
103.663
101.689
99.7169
97.7456
95.7748
93.804
91.8324
89.8597
87.8856
85.91
83.9331
81.9554
79.9771
77.9989
76.0214
74.0447
72.0691
70.0948
68.1217
66.15
64.1792
62.2089
60.2386
58.268
56.2966
54.3242
52.3506
50.3755
48.3989
46.4209
44.4418
42.4621
40.482
38.5014
36.5208
34.5409
32.5621
30.5843
28.6073
26.6315
24.6568
22.6831
20.7101
18.738
16.7662
14.7947
12.8231
10.8515
8.87962
6.90727
4.93441
2.96088
0.987235
547.385
-2384.42
-459.407
958.744
929.314
509.065
360.241
425.849
492.588
496.889
477.016
466.352
466.34
467.68
466.39
463.694
461.243
459.295
457.466
455.541
453.538
451.533
449.55
447.58
445.609
443.632
441.65
439.67
437.693
435.716
433.735
431.757
429.782
427.807
425.828
423.847
421.866
419.888
417.914
415.938
413.958
411.979
410.001
408.023
406.045
404.067
402.09
400.113
398.136
396.158
394.18
392.203
390.228
388.251
386.272
384.294
382.318
380.344
378.368
376.391
374.413
372.436
370.459
368.484
366.51
364.535
362.557
360.579
358.603
356.63
354.655
352.678
350.701
348.726
346.753
344.779
342.804
340.828
338.852
336.876
334.903
332.93
330.957
328.981
327.003
325.027
323.054
321.083
319.111
317.136
315.158
313.18
311.205
309.233
307.263
305.291
303.317
301.339
299.36
297.383
295.409
293.438
291.468
289.495
287.519
285.54
283.561
281.586
279.612
277.64
275.668
273.694
271.718
269.739
267.76
265.783
263.809
261.836
259.863
257.888
255.911
253.932
251.953
249.975
247.999
246.025
244.051
242.076
240.1
238.121
236.142
234.162
232.184
230.208
228.232
226.257
224.28
222.303
220.324
218.344
216.364
214.386
212.41
210.434
208.458
206.48
204.501
202.521
200.541
198.561
196.582
194.605
192.629
190.653
188.677
186.699
184.719
182.739
180.758
178.778
176.8
174.824
172.849
170.874
168.899
166.922
164.943
162.962
160.981
159
157.02
155.041
153.066
151.092
149.119
147.145
145.171
143.194
141.216
139.236
137.255
135.274
133.295
131.317
129.341
127.367
125.395
123.423
121.451
119.478
117.503
115.527
113.549
111.571
109.593
107.615
105.638
103.663
101.689
99.7172
97.746
95.7753
93.8045
91.8329
89.8602
87.886
85.9103
83.9334
81.9557
79.9776
77.9994
76.0217
74.045
72.0696
70.0953
68.1223
66.1504
64.1795
62.2092
60.2389
58.2683
56.2968
54.3243
52.3505
50.3754
48.399
46.4211
44.4419
42.462
40.4818
38.5015
36.5211
34.5412
32.5622
30.5844
28.6076
26.6318
24.6572
22.6835
20.7105
18.7382
16.7664
14.7949
12.8234
10.8517
8.87976
6.90735
4.93446
2.96088
0.987256
547.384
-2384.42
-459.407
958.746
929.31
509.057
360.239
425.849
492.584
496.89
477.023
466.354
466.337
467.682
466.396
463.696
461.24
459.295
457.471
455.541
453.535
451.532
449.553
447.582
445.606
443.627
441.65
439.674
437.696
435.716
433.735
431.757
429.781
427.805
425.827
423.849
421.869
419.89
417.912
415.934
413.957
411.981
410.003
408.023
406.044
404.067
402.092
400.114
398.134
396.155
394.179
392.204
390.229
388.251
386.272
384.294
382.318
380.345
378.369
376.39
374.412
372.436
370.461
368.486
366.509
364.533
362.558
360.582
358.606
356.63
354.655
352.678
350.701
348.728
346.756
344.782
342.805
340.826
338.85
336.877
334.906
332.934
330.959
328.981
327.003
325.027
323.055
321.084
319.112
317.136
315.157
313.18
311.205
309.234
307.265
305.293
303.317
301.338
299.359
297.383
295.411
293.44
291.469
289.495
287.518
285.539
283.561
281.586
279.614
277.643
275.669
273.693
271.716
269.738
267.761
265.785
263.81
261.837
259.864
257.888
255.91
253.932
251.954
249.977
248.001
246.026
244.052
242.076
240.098
238.12
236.141
234.163
232.186
230.209
228.234
226.258
224.28
222.301
220.322
218.343
216.365
214.387
212.411
210.435
208.458
206.48
204.5
202.52
200.54
198.561
196.583
194.607
192.631
190.654
188.677
186.698
184.718
182.738
180.757
178.778
176.8
174.825
172.85
170.875
168.899
166.922
164.942
162.961
160.979
158.998
157.019
155.041
153.066
151.092
149.12
147.146
145.171
143.194
141.215
139.235
137.254
135.273
133.294
131.316
129.341
127.367
125.395
123.424
121.452
119.478
117.503
115.527
113.549
111.57
109.592
107.614
105.637
103.662
101.689
99.7167
97.7457
95.7751
93.8043
91.8327
89.86
87.8857
85.91
83.933
81.9553
79.9772
77.9992
76.0216
74.0448
72.0693
70.0951
68.1222
66.1503
64.1794
62.2089
60.2387
58.268
56.2965
54.324
52.3501
50.3749
48.3984
46.4207
44.4417
42.4616
40.4813
38.501
36.5209
34.5411
32.5622
30.5843
28.6076
26.6319
24.6572
22.6835
20.7106
18.7383
16.7665
14.7949
12.8234
10.8518
8.87981
6.90738
4.93446
2.96089
0.987218
547.389
-2384.42
-459.413
958.744
929.311
509.066
360.242
425.849
492.588
496.892
477.02
466.354
466.341
467.681
466.394
463.696
461.241
459.294
457.468
455.539
453.534
451.534
449.555
447.581
445.605
443.627
441.65
439.671
437.692
435.715
433.74
431.76
429.779
427.8
425.825
423.849
421.87
419.89
417.911
415.935
413.959
411.981
410.001
408.021
406.044
404.069
402.093
400.113
398.133
396.156
394.181
392.205
390.227
388.249
386.272
384.296
382.32
380.343
378.366
376.389
374.412
372.437
370.463
368.486
366.508
364.531
362.557
360.583
358.607
356.629
354.652
352.676
350.702
348.729
346.756
344.781
342.802
340.823
338.848
336.877
334.907
332.934
330.957
328.978
327
325.026
323.055
321.085
319.112
317.135
315.156
313.178
311.205
309.235
307.265
305.292
303.315
301.336
299.358
297.384
295.412
293.441
291.469
289.493
287.516
285.538
283.562
281.587
279.615
277.643
275.669
273.692
271.714
269.737
267.761
265.786
263.812
261.838
259.863
257.886
255.909
253.931
251.954
249.978
248.002
246.027
244.051
242.074
240.096
238.118
236.14
234.163
232.187
230.211
228.235
226.258
224.279
222.3
220.321
218.342
216.365
214.388
212.412
210.435
208.458
206.479
204.499
202.519
200.539
198.561
196.584
194.608
192.632
190.655
188.677
186.698
184.717
182.736
180.756
178.778
176.801
174.826
172.851
170.876
168.9
166.922
164.942
162.96
160.978
158.998
157.019
155.042
153.067
151.094
149.121
147.147
145.172
143.195
141.215
139.235
137.253
135.273
133.294
131.317
129.342
127.368
125.397
123.425
121.453
119.479
117.504
115.527
113.549
111.57
109.591
107.614
105.637
103.662
101.689
99.7171
97.7462
95.7756
93.8048
91.8331
89.8603
87.8861
85.9103
83.9334
81.9555
79.9774
77.9995
76.022
74.0454
72.0698
70.0955
68.1226
66.1508
64.1798
62.2093
60.2389
58.2681
56.2966
54.3241
52.3502
50.3749
48.3982
46.4204
44.4416
42.4618
40.4813
38.5009
36.5209
34.5413
32.5625
30.5846
28.6079
26.6322
24.6575
22.6838
20.7109
18.7386
16.7668
14.7952
12.8236
10.8519
8.8799
6.90745
4.93452
2.96091
0.987199
547.382
-2384.42
-459.404
958.748
929.307
509.061
360.245
425.848
492.581
496.887
477.023
466.358
466.338
467.675
466.396
463.702
461.242
459.289
457.467
455.545
453.539
451.531
449.55
447.582
445.611
443.63
441.648
439.67
437.693
435.717
433.738
431.758
429.779
427.804
425.828
423.848
421.867
419.889
417.914
415.939
413.96
411.979
409.999
408.022
406.047
404.069
402.09
400.111
398.134
396.159
394.183
392.205
390.225
388.247
386.273
384.299
382.321
380.341
378.364
376.389
374.415
372.44
370.462
368.484
366.507
364.531
362.558
360.585
358.609
356.629
354.65
352.676
350.705
348.733
346.758
344.78
342.8
340.823
338.85
336.88
334.91
332.935
330.956
328.977
327
325.028
323.058
321.087
319.112
317.134
315.155
313.18
311.207
309.237
307.265
305.291
303.314
301.336
299.36
297.386
295.414
293.443
291.468
289.491
287.514
285.538
283.563
281.59
279.617
277.643
275.668
273.691
271.714
269.737
267.762
265.788
263.813
261.838
259.862
257.885
255.908
253.931
251.956
249.98
248.005
246.028
244.051
242.073
240.095
238.117
236.14
234.164
232.189
230.212
228.235
226.257
224.278
222.299
220.32
218.342
216.366
214.39
212.414
210.436
208.458
206.478
204.498
202.518
200.538
198.561
196.584
194.609
192.633
190.656
188.677
186.697
184.716
182.735
180.755
178.778
176.801
174.826
172.852
170.877
168.9
166.921
164.94
162.959
160.977
158.996
157.018
155.042
153.068
151.095
149.122
147.148
145.172
143.194
141.214
139.233
137.252
135.272
133.293