/*--------------------------------*- C++ -*----------------------------------*\
| =========                 |                                                 |
| \\      /  F ield         | OpenFOAM: The Open Source CFD Toolbox           |
|  \\    /   O peration     | Version:  2406                                  |
|   \\  /    A nd           | Website:  www.openfoam.com                      |
|    \\/     M anipulation  |                                                 |
\*---------------------------------------------------------------------------*/
FoamFile
{
    version     2.0;
    format      ascii;
    arch        "LSB;label=32;scalar=64";
    class       surfaceScalarField;
    location    "0.65";
    object      phi;
}
// * * * * * * * * * * * * * * * * * * * * * * * * * * * * * * * * * * * * * //

dimensions      [0 3 -1 0 0 0 0];

oriented        oriented;

internalField   nonuniform List<scalar> 
12225
(
0.485391
2.07828e-06
0.485385
6.0707e-06
0.485378
7.10765e-06
0.485373
5.1332e-06
0.485369
4.06812e-06
0.485365
4.1943e-06
0.485361
4.31579e-06
0.485356
4.3977e-06
0.485351
4.90778e-06
0.485346
5.68337e-06
0.48534
5.6395e-06
0.485335
5.28957e-06
0.48533
4.97071e-06
0.485325
4.92171e-06
0.48532
4.89351e-06
0.485315
4.50239e-06
0.485312
3.80124e-06
0.485308
3.51289e-06
0.485304
4.09214e-06
0.485299
4.93452e-06
0.485293
5.51401e-06
0.485288
5.69973e-06
0.485282
5.84024e-06
0.485276
5.90204e-06
0.48527
5.94376e-06
0.485264
5.90233e-06
0.485259
5.64065e-06
0.485253
5.48462e-06
0.485247
5.62713e-06
0.485241
6.06695e-06
0.485235
6.60391e-06
0.485228
6.9407e-06
0.485221
7.05362e-06
0.485214
7.01386e-06
0.485207
6.701e-06
0.485201
6.25862e-06
0.485195
6.10477e-06
0.485188
6.23435e-06
0.485182
6.31809e-06
0.485176
6.29549e-06
0.485169
6.32575e-06
0.485163
6.49702e-06
0.485156
6.71562e-06
0.48515
6.72772e-06
0.485143
6.42603e-06
0.485137
6.06983e-06
0.485131
5.93613e-06
0.485125
5.92778e-06
0.485119
5.78597e-06
0.485114
5.51724e-06
0.485109
5.34769e-06
0.485103
5.36365e-06
0.485098
5.43795e-06
0.485092
5.44584e-06
0.485087
5.40328e-06
0.485082
5.36266e-06
0.485076
5.33373e-06
0.485071
5.35613e-06
0.485065
5.49766e-06
0.48506
5.69014e-06
0.485054
5.68588e-06
0.485049
5.37807e-06
0.485044
5.01687e-06
0.485039
4.93547e-06
0.485034
5.09081e-06
0.485028
5.13855e-06
0.485023
4.93705e-06
0.485019
4.7327e-06
0.485014
4.793e-06
0.485009
5.04034e-06
0.485004
5.19257e-06
0.484999
5.14915e-06
0.484994
5.04233e-06
0.484989
4.95588e-06
0.484984
4.84236e-06
0.484979
4.73056e-06
0.484974
4.76148e-06
0.484969
4.92425e-06
0.484964
4.98279e-06
0.48496
4.79884e-06
0.484955
4.55621e-06
0.48495
4.51058e-06
0.484946
4.64046e-06
0.484941
4.70035e-06
0.484937
4.56247e-06
0.484932
4.35146e-06
0.484928
4.24899e-06
0.484924
4.27373e-06
0.484919
4.30775e-06
0.484915
4.26083e-06
0.484911
4.15746e-06
0.484907
4.08679e-06
0.484903
4.11132e-06
0.484899
4.22787e-06
0.484894
4.37874e-06
0.48489
4.48438e-06
0.484885
4.4965e-06
0.484881
4.45137e-06
0.484876
4.46251e-06
0.484872
4.59888e-06
0.484867
4.78674e-06
0.484862
4.8893e-06
0.484857
4.86224e-06
0.484852
4.81578e-06
0.484847
4.89043e-06
0.484842
5.08605e-06
0.484837
5.24854e-06
0.484832
5.23131e-06
0.484827
5.08971e-06
0.484822
5.04655e-06
0.484816
5.2138e-06
0.484811
5.43025e-06
0.484806
5.47028e-06
0.4848
5.35547e-06
0.484795
5.30682e-06
0.48479
5.39632e-06
0.484784
5.44501e-06
0.484779
5.33223e-06
0.484774
5.21674e-06
0.484768
5.3023e-06
0.484763
5.50243e-06
0.484757
5.53821e-06
0.484752
5.33142e-06
0.484747
5.11279e-06
0.484742
5.10883e-06
0.484736
5.27582e-06
0.484731
5.40266e-06
0.484726
5.36448e-06
0.48472
5.18453e-06
0.484715
4.94771e-06
0.484711
4.76046e-06
0.484706
4.73593e-06
0.484701
4.88837e-06
0.484696
5.05597e-06
0.484691
5.03263e-06
0.484686
4.78241e-06
0.484682
4.46436e-06
0.484678
4.24798e-06
0.484673
4.16877e-06
0.484669
4.17121e-06
0.484665
4.17766e-06
0.484661
4.10199e-06
0.484657
3.90517e-06
0.484653
3.6554e-06
0.48465
3.46661e-06
0.484647
3.33547e-06
0.484643
3.11666e-06
0.484641
2.7358e-06
0.484638
2.35255e-06
0.484636
2.20627e-06
0.484634
2.31949e-06
0.484631
2.44937e-06
0.484629
2.34463e-06
0.484627
1.98439e-06
0.484625
1.55277e-06
0.484624
1.23117e-06
0.484623
1.06322e-06
0.484622
9.95119e-07
0.484621
9.51539e-07
0.48462
9.05558e-07
0.484619
8.87302e-07
0.484619
9.20826e-07
0.484618
9.56512e-07
0.484617
8.87252e-07
0.484616
6.7091e-07
0.484616
3.94388e-07
0.484615
2.05801e-07
0.484615
1.9311e-07
0.484615
2.803e-07
0.484615
3.76796e-07
0.484614
4.70528e-07
0.484614
5.65323e-07
0.484613
6.0904e-07
0.484612
5.47995e-07
0.484612
4.01115e-07
0.484612
2.84667e-07
0.484611
2.62985e-07
0.484611
2.45728e-07
0.484611
1.68365e-07
0.484611
8.39355e-08
0.484611
1.38962e-07
0.48461
3.63977e-07
0.48461
5.73824e-07
0.484609
5.76657e-07
0.484609
4.04394e-07
0.484609
2.31902e-07
0.484608
1.83347e-07
0.484608
2.49226e-07
0.484608
2.76447e-07
0.484608
1.85654e-07
0.484608
7.07838e-08
0.484608
3.44164e-08
0.484607
1.37409e-07
0.484607
2.82108e-07
0.484607
3.39735e-07
0.484607
2.8232e-07
0.484606
1.71656e-07
0.484606
9.81457e-08
0.484606
8.26614e-08
0.484606
1.36105e-07
0.484606
2.28071e-07
0.484606
2.95761e-07
0.484605
2.78292e-07
0.484605
1.94469e-07
0.484605
1.15097e-07
0.484605
1.0914e-07
0.484605
1.50163e-07
0.484605
1.4403e-07
0.484605
5.23915e-08
0.484605
-8.76081e-08
0.484605
-1.44177e-07
0.484605
-9.07887e-08
0.484605
4.76372e-08
0.484605
1.65665e-07
0.484604
2.24874e-07
0.484604
2.50992e-07
0.484604
2.77978e-07
0.484604
2.79214e-07
0.484603
2.25814e-07
0.484603
1.61577e-07
0.484603
9.24035e-08
0.484603
6.80309e-08
0.484603
3.05145e-08
0.484603
-6.23406e-08
0.484603
-2.23187e-07
0.484604
-3.13416e-07
0.484604
-2.57284e-07
0.484604
-1.28025e-07
0.484604
-1.84579e-08
0.484604
-5.87835e-08
0.484604
-1.63743e-07
0.484604
-1.70499e-07
0.484604
-2.64239e-08
0.484604
1.53488e-07
0.484604
1.57969e-07
0.484604
3.99102e-09
0.484604
-1.41134e-07
0.484604
-1.06406e-07
0.484604
5.54665e-08
0.484604
1.80668e-07
0.484604
1.24855e-07
0.484604
-4.36545e-08
0.484604
-1.80599e-07
0.484604
-1.98063e-07
0.484605
-1.34789e-07
0.484605
-9.65227e-08
0.484605
-1.46558e-07
0.484605
-1.97039e-07
0.484605
-2.38977e-07
-4.41844e-08
0.485398
-3.01516e-07
0.485403
7.23256e-07
0.485408
1.82778e-06
0.485411
2.49406e-06
0.485413
2.12928e-06
0.485415
2.19877e-06
0.485416
2.74845e-06
0.485418
2.55521e-06
0.485421
2.27358e-06
0.485424
1.96731e-06
0.485428
2.02805e-06
0.485431
2.02013e-06
0.485435
1.73014e-06
0.485438
1.71239e-06
0.48544
2.34284e-06
0.485442
2.93469e-06
0.485443
3.16546e-06
0.485443
2.99275e-06
0.485445
2.60939e-06
0.485447
2.34617e-06
0.48545
2.54092e-06
0.485453
2.6804e-06
0.485457
2.4443e-06
0.48546
2.24307e-06
0.485464
2.22176e-06
0.485467
2.42895e-06
0.485471
2.48629e-06
0.485474
2.40685e-06
0.485477
2.52322e-06
0.48548
2.70173e-06
0.485484
2.62618e-06
0.485489
2.48565e-06
0.485493
2.54861e-06
0.485497
2.74331e-06
0.485501
2.84397e-06
0.485505
2.60567e-06
0.485509
2.18873e-06
0.485513
2.10128e-06
0.485517
2.36712e-06
0.485521
2.51636e-06
0.485525
2.38717e-06
0.485529
2.33685e-06
0.485533
2.61058e-06
0.485537
2.91702e-06
0.48554
2.90269e-06
0.485544
2.70068e-06
0.485547
2.67076e-06
0.48555
2.83619e-06
0.485553
2.92991e-06
0.485555
2.85748e-06
0.485558
2.72563e-06
0.485561
2.55316e-06
0.485564
2.31355e-06
0.485567
2.13723e-06
0.48557
2.19565e-06
0.485573
2.4127e-06
0.485576
2.49153e-06
0.485579
2.29236e-06
0.485583
2.01732e-06
0.485587
1.98535e-06
0.48559
2.22573e-06
0.485593
2.42996e-06
0.485596
2.39221e-06
0.485598
2.26525e-06
0.485601
2.29417e-06
0.485604
2.44931e-06
0.485606
2.51011e-06
0.485608
2.40529e-06
0.485611
2.27465e-06
0.485614
2.21313e-06
0.485617
2.14086e-06
0.48562
2.00921e-06
0.485623
1.97214e-06
0.485626
2.15417e-06
0.485628
2.37212e-06
0.485631
2.34495e-06
0.485633
2.15128e-06
0.485636
2.17597e-06
0.485639
2.55146e-06
0.48564
2.92615e-06
0.485642
2.92997e-06
0.485644
2.649e-06
0.485646
2.47714e-06
0.485648
2.60414e-06
0.48565
2.83764e-06
0.485651
2.90392e-06
0.485653
2.76994e-06
0.485654
2.62655e-06
0.485656
2.63631e-06
0.485658
2.76229e-06
0.485659
2.83791e-06
0.48566
2.7573e-06
0.485662
2.574e-06
0.485664
2.43065e-06
0.485666
2.42581e-06
0.485667
2.54095e-06
0.485669
2.65681e-06
0.485671
2.64293e-06
0.485673
2.47595e-06
0.485675
2.28654e-06
0.485678
2.23784e-06
0.48568
2.36338e-06
0.485683
2.52294e-06
0.485685
2.52965e-06
0.485688
2.35242e-06
0.485691
2.16306e-06
0.485694
2.15929e-06
0.485697
2.33985e-06
0.485699
2.4868e-06
0.485702
2.45672e-06
0.485705
2.37243e-06
0.485708
2.40816e-06
0.485711
2.49966e-06
0.485713
2.45704e-06
0.485716
2.31285e-06
0.48572
2.31381e-06
0.485722
2.5235e-06
0.485725
2.67365e-06
0.485728
2.54958e-06
0.485731
2.32113e-06
0.485734
2.3055e-06
0.485737
2.52617e-06
0.48574
2.71283e-06
0.485742
2.69756e-06
0.485745
2.5865e-06
0.485747
2.53009e-06
0.48575
2.5235e-06
0.485753
2.50534e-06
0.485756
2.48926e-06
0.485758
2.48985e-06
0.485761
2.44212e-06
0.485763
2.31236e-06
0.485766
2.20881e-06
0.485768
2.25057e-06
0.485771
2.38302e-06
0.485773
2.4486e-06
0.485775
2.39815e-06
0.485777
2.32222e-06
0.485779
2.30369e-06
0.485781
2.3581e-06
0.485783
2.48928e-06
0.485784
2.66681e-06
0.485785
2.75973e-06
0.485786
2.63936e-06
0.485787
2.3891e-06
0.485789
2.26926e-06
0.485789
2.4042e-06
0.485789
2.62137e-06
0.485789
2.68006e-06
0.485789
2.57239e-06
0.485788
2.48649e-06
0.485788
2.52817e-06
0.485788
2.60571e-06
0.485788
2.58237e-06
0.485787
2.44151e-06
0.485786
2.27387e-06
0.485784
2.1731e-06
0.485783
2.18089e-06
0.485782
2.26937e-06
0.485781
2.34981e-06
0.485779
2.34165e-06
0.485778
2.2618e-06
0.485776
2.2095e-06
0.485775
2.23371e-06
0.485774
2.26514e-06
0.485772
2.21529e-06
0.48577
2.11238e-06
0.485768
2.06759e-06
0.485766
2.10792e-06
0.485764
2.15588e-06
0.485763
2.16184e-06
0.485761
2.17529e-06
0.485759
2.24292e-06
0.485758
2.29864e-06
0.485756
2.23405e-06
0.485754
2.0783e-06
0.485752
1.99848e-06
0.48575
2.08467e-06
0.485748
2.22437e-06
0.485746
2.23454e-06
0.485744
2.11068e-06
0.485743
2.04368e-06
0.485741
2.16834e-06
0.485739
2.38992e-06
0.485737
2.50289e-06
0.485735
2.42379e-06
0.485733
2.26738e-06
0.485731
2.20628e-06
0.485729
2.27274e-06
0.485727
2.35207e-06
0.485724
2.33159e-06
0.485722
2.21567e-06
0.48572
2.12777e-06
0.485718
2.16486e-06
0.485716
2.30188e-06
0.485714
2.4381e-06
0.485712
2.50275e-06
0.48571
2.49187e-06
0.485707
2.42242e-06
0.485705
2.32954e-06
0.485703
2.26809e-06
0.485701
2.28149e-06
0.485699
2.34091e-06
0.485697
2.35906e-06
0.485695
2.29731e-06
0.485692
2.23191e-06
0.48569
2.26053e-06
0.485688
2.37523e-06
0.485686
2.47297e-06
0.485683
2.46336e-06
0.485681
2.3643e-06
0.485678
2.26472e-06
0.485676
2.24156e-06
0.485674
2.27174e-06
0.485672
2.28252e-06
0.48567
2.24745e-06
0.485668
2.22067e-06
0.485666
2.25257e-06
0.485664
2.30072e-06
0.485662
2.2794e-06
0.48566
2.17087e-06
0.485658
2.08126e-06
0.485656
2.08791e-06
0.485653
2.14285e-06
0.485651
2.12445e-06
0.485649
2.00329e-06
0.485647
1.88294e-06
0.485645
1.89617e-06
0.485643
2.06613e-06
0.48564
2.24587e-06
0.485638
2.2856e-06
0.485635
2.18187e-06
0.485633
2.10168e-06
0.485631
2.20326e-06
0.485629
2.41818e-06
0.485626
2.52504e-06
0.485624
2.40586e-06
0.485622
2.18239e-06
0.48562
2.06721e-06
0.485618
2.14861e-06
0.485615
2.3098e-06
0.485613
2.40045e-06
0.48561
2.38539e-06
0.485608
2.34646e-06
0.485605
2.37887e-06
0.485603
2.47699e-06
0.4856
2.5594e-06
0.485597
2.52389e-06
0.485595
2.58881e-06
2.32883e-06
0.485396
-4.26182e-07
0.485397
2.24205e-07
0.485397
1.65806e-06
0.485397
2.22389e-06
0.485397
2.3234e-06
0.485397
1.79649e-06
0.485398
1.61601e-06
0.485399
2.09281e-06
0.485399
2.2843e-06
0.485398
2.46816e-06
0.485398
2.83563e-06
0.485397
2.96246e-06
0.485396
2.784e-06
0.485395
2.34529e-06
0.485395
2.13851e-06
0.485396
2.25278e-06
0.485396
2.55856e-06
0.485397
2.74722e-06
0.485396
2.76621e-06
0.485396
2.58246e-06
0.485396
2.49138e-06
0.485396
2.5839e-06
0.485396
2.42294e-06
0.485397
2.06459e-06
0.485397
1.85363e-06
0.485398
1.8845e-06
0.485398
2.00644e-06
0.485398
2.13392e-06
0.485399
2.04266e-06
0.4854
1.94653e-06
0.4854
2.01883e-06
0.485401
1.93546e-06
0.485401
1.78139e-06
0.485402
1.84386e-06
0.485403
2.08095e-06
0.485403
2.25966e-06
0.485403
2.24388e-06
0.485403
2.07355e-06
0.485404
1.92446e-06
0.485404
1.94665e-06
0.485405
2.02642e-06
0.485405
1.94804e-06
0.485406
1.79074e-06
0.485407
1.80152e-06
0.485408
1.9625e-06
0.485409
2.03944e-06
0.485409
1.98261e-06
0.48541
1.95983e-06
0.485411
2.02308e-06
0.485412
2.07578e-06
0.485413
2.07919e-06
0.485413
2.07092e-06
0.485413
2.04337e-06
0.485414
1.95426e-06
0.485414
1.84985e-06
0.485414
1.85394e-06
0.485415
1.99263e-06
0.485415
2.11973e-06
0.485415
2.0855e-06
0.485415
1.98896e-06
0.485415
2.10432e-06
0.485415
2.48303e-06
0.485415
2.81796e-06
0.485414
2.82889e-06
0.485414
2.63017e-06
0.485414
2.55315e-06
0.485413
2.71551e-06
0.485413
2.9252e-06
0.485412
2.97561e-06
0.485412
2.87495e-06
0.485411
2.73202e-06
0.48541
2.57329e-06
0.48541
2.40687e-06
0.48541
2.32904e-06
0.48541
2.38097e-06
0.48541
2.39941e-06
0.48541
2.21621e-06
0.48541
1.94006e-06
0.485411
1.8338e-06
0.485412
1.93686e-06
0.485413
2.01826e-06
0.485413
1.91743e-06
0.485414
1.75495e-06
0.485415
1.73576e-06
0.485416
1.87018e-06
0.485417
1.98673e-06
0.485418
1.96132e-06
0.485418
1.85044e-06
0.485419
1.80216e-06
0.48542
1.88604e-06
0.485421
2.03522e-06
0.485421
2.13544e-06
0.485422
2.14699e-06
0.485422
2.1231e-06
0.485423
2.13816e-06
0.485423
2.22583e-06
0.485423
2.36532e-06
0.485423
2.48946e-06
0.485423
2.52711e-06
0.485423
2.47019e-06
0.485423
2.39183e-06
0.485423
2.38311e-06
0.485423
2.45669e-06
0.485423
2.51957e-06
0.485423
2.45742e-06
0.485423
2.26295e-06
0.485423
2.08884e-06
0.485423
2.10082e-06
0.485423
2.25613e-06
0.485423
2.33266e-06
0.485424
2.22387e-06
0.485424
2.08004e-06
0.485424
2.05811e-06
0.485425
2.07032e-06
0.485425
1.94369e-06
0.485426
1.74458e-06
0.485426
1.7111e-06
0.485427
1.87669e-06
0.485428
1.99044e-06
0.485428
1.87586e-06
0.485429
1.68934e-06
0.48543
1.68516e-06
0.485431
1.8692e-06
0.485431
2.04551e-06
0.485432
2.11067e-06
0.485432
2.12719e-06
0.485432
2.14462e-06
0.485433
2.12883e-06
0.485433
2.08711e-06
0.485434
2.1052e-06
0.485434
2.201e-06
0.485434
2.26905e-06
0.485434
2.24068e-06
0.485434
2.19561e-06
0.485434
2.23604e-06
0.485434
2.33597e-06
0.485434
2.39991e-06
0.485434
2.39741e-06
0.485434
2.35044e-06
0.485434
2.26197e-06
0.485435
2.15216e-06
0.485435
2.10649e-06
0.485436
2.169e-06
0.485436
2.21819e-06
0.485436
2.09609e-06
0.485437
1.8529e-06
0.485437
1.72504e-06
0.485438
1.84344e-06
0.485439
2.07454e-06
0.485439
2.20632e-06
0.48544
2.19672e-06
0.48544
2.16087e-06
0.48544
2.18405e-06
0.485441
2.2387e-06
0.485441
2.26446e-06
0.485441
2.24979e-06
0.485441
2.22625e-06
0.485441
2.23752e-06
0.485441
2.3189e-06
0.485441
2.46159e-06
0.48544
2.58908e-06
0.48544
2.61806e-06
0.48544
2.55577e-06
0.485439
2.49409e-06
0.485439
2.49095e-06
0.485439
2.50324e-06
0.485438
2.47349e-06
0.485438
2.43159e-06
0.485438
2.44466e-06
0.485437
2.50207e-06
0.485437
2.52517e-06
0.485437
2.49006e-06
0.485437
2.46959e-06
0.485436
2.51351e-06
0.485436
2.54326e-06
0.485436
2.44621e-06
0.485435
2.25073e-06
0.485435
2.12442e-06
0.485435
2.17746e-06
0.485435
2.32021e-06
0.485435
2.37924e-06
0.485435
2.32093e-06
0.485435
2.27495e-06
0.485435
2.34561e-06
0.485435
2.4709e-06
0.485435
2.49614e-06
0.485435
2.35613e-06
0.485435
2.14263e-06
0.485435
1.99986e-06
0.485435
1.98522e-06
0.485436
2.03623e-06
0.485436
2.05811e-06
0.485436
2.03008e-06
0.485436
2.00925e-06
0.485436
2.04379e-06
0.485437
2.11662e-06
0.485437
2.18189e-06
0.485437
2.22073e-06
0.485437
2.23222e-06
0.485437
2.20291e-06
0.485438
2.13071e-06
0.485438
2.06637e-06
0.485438
2.07526e-06
0.485438
2.14798e-06
0.485438
2.19924e-06
0.485438
2.17322e-06
0.485439
2.11141e-06
0.485439
2.09674e-06
0.485439
2.15583e-06
0.485439
2.23411e-06
0.48544
2.26005e-06
0.48544
2.21888e-06
0.48544
2.16805e-06
0.48544
2.16894e-06
0.48544
2.21274e-06
0.48544
2.23708e-06
0.48544
2.21757e-06
0.48544
2.20522e-06
0.48544
2.24651e-06
0.48544
2.30087e-06
0.48544
2.28081e-06
0.48544
2.17273e-06
0.48544
2.06458e-06
0.48544
2.04487e-06
0.48544
2.0959e-06
0.48544
2.11321e-06
0.48544
2.02929e-06
0.48544
1.89643e-06
0.48544
1.83498e-06
0.48544
1.89924e-06
0.48544
2.00239e-06
0.485441
1.99011e-06
0.485441
1.8165e-06
0.485442
1.61596e-06
0.485442
1.55433e-06
0.485443
1.63275e-06
0.485444
1.68791e-06
0.485445
1.59442e-06
0.485445
1.39956e-06
0.485446
1.25227e-06
0.485447
1.23365e-06
0.485448
1.29951e-06
0.485449
1.35171e-06
0.48545
1.34106e-06
0.485451
1.31299e-06
0.485453
1.34841e-06
0.485454
1.45652e-06
0.485455
1.5534e-06
0.485456
1.56289e-06
1.61387e-06
0.485397
4.97511e-07
0.485397
8.02899e-07
0.485398
7.14765e-07
0.485399
9.50267e-07
0.4854
1.39551e-06
0.4854
1.66339e-06
0.4854
1.67902e-06
0.4854
1.76474e-06
0.485401
1.87272e-06
0.485401
2.15695e-06
0.485402
2.12885e-06
0.485403
2.04847e-06
0.485403
2.04271e-06
0.485404
1.87262e-06
0.485404
1.49836e-06
0.485405
1.3013e-06
0.485406
1.39558e-06
0.485408
1.51829e-06
0.485409
1.55007e-06
0.48541
1.60722e-06
0.485411
1.68738e-06
0.485411
1.92288e-06
0.485411
2.33535e-06
0.485411
2.62262e-06
0.48541
2.56783e-06
0.48541
2.43752e-06
0.485409
2.30596e-06
0.485409
2.20793e-06
0.485409
2.12305e-06
0.485409
1.99695e-06
0.485409
1.93659e-06
0.485409
2.03973e-06
0.485409
2.09775e-06
0.485409
1.89839e-06
0.485409
1.78926e-06
0.485409
2.07927e-06
0.485409
2.40463e-06
0.485409
2.37057e-06
0.485408
2.19015e-06
0.485408
2.25059e-06
0.485408
2.45511e-06
0.485407
2.44151e-06
0.485407
2.19238e-06
0.485407
2.02531e-06
0.485407
2.08564e-06
0.485406
2.19499e-06
0.485406
2.20498e-06
0.485406
2.18159e-06
0.485406
2.18135e-06
0.485406
2.1609e-06
0.485406
2.15077e-06
0.485405
2.25202e-06
0.485405
2.43713e-06
0.485404
2.52571e-06
0.485404
2.42784e-06
0.485403
2.27015e-06
0.485403
2.22191e-06
0.485403
2.26582e-06
0.485403
2.20573e-06
0.485403
1.94961e-06
0.485403
1.68517e-06
0.485404
1.64454e-06
0.485405
1.75544e-06
0.485406
1.73363e-06
0.485408
1.50721e-06
0.485409
1.32502e-06
0.48541
1.40011e-06
0.485411
1.62315e-06
0.485413
1.74676e-06
0.485414
1.7465e-06
0.485415
1.8125e-06
0.485415
2.00004e-06
0.485416
2.12443e-06
0.485416
2.07739e-06
0.485416
2.01992e-06
0.485416
2.11778e-06
0.485416
2.2633e-06
0.485416
2.24458e-06
0.485416
2.06949e-06
0.485416
1.93499e-06
0.485416
1.93857e-06
0.485416
1.98426e-06
0.485416
1.95864e-06
0.485415
1.8749e-06
0.485416
1.81604e-06
0.485416
1.82084e-06
0.485416
1.86527e-06
0.485416
1.9118e-06
0.485416
1.9473e-06
0.485416
1.98137e-06
0.485416
2.02907e-06
0.485416
2.09898e-06
0.485416
2.1918e-06
0.485415
2.28937e-06
0.485415
2.34576e-06
0.485415
2.32028e-06
0.485415
2.23528e-06
0.485415
2.16598e-06
0.485416
2.15781e-06
0.485416
2.17496e-06
0.485416
2.14598e-06
0.485417
2.04736e-06
0.485417
1.93089e-06
0.485418
1.86784e-06
0.485419
1.86319e-06
0.485419
1.8384e-06
0.485419
1.7547e-06
0.48542
1.70529e-06
0.48542
1.79613e-06
0.485421
1.95107e-06
0.485421
1.97547e-06
0.485421
1.84062e-06
0.485421
1.74381e-06
0.485422
1.814e-06
0.485422
1.90933e-06
0.485421
1.85013e-06
0.485421
1.71518e-06
0.485422
1.72897e-06
0.485422
1.91284e-06
0.485422
2.04644e-06
0.485421
1.99937e-06
0.485421
1.90454e-06
0.485421
1.93728e-06
0.485421
2.07428e-06
0.485421
2.17548e-06
0.485421
2.1919e-06
0.485421
2.16745e-06
0.485421
2.10786e-06
0.485421
1.98951e-06
0.485421
1.86798e-06
0.485421
1.84175e-06
0.485422
1.90348e-06
0.485422
1.94075e-06
0.485422
1.90154e-06
0.485423
1.85338e-06
0.485423
1.85967e-06
0.485424
1.89926e-06
0.485424
1.94121e-06
0.485425
1.99335e-06
0.485425
2.03176e-06
0.485425
1.98174e-06
0.485425
1.84242e-06
0.485426
1.74084e-06
0.485426
1.7695e-06
0.485426
1.84495e-06
0.485426
1.82788e-06
0.485426
1.73711e-06
0.485427
1.73083e-06
0.485427
1.88025e-06
0.485427
2.06866e-06
0.485427
2.14074e-06
0.485427
2.0708e-06
0.485427
1.94593e-06
0.485428
1.84601e-06
0.485428
1.79112e-06
0.485429
1.76734e-06
0.485429
1.75163e-06
0.48543
1.72368e-06
0.48543
1.69245e-06
0.485431
1.69713e-06
0.485432
1.74656e-06
0.485433
1.7799e-06
0.485433
1.73044e-06
0.485434
1.62191e-06
0.485435
1.54801e-06
0.485436
1.55164e-06
0.485437
1.58208e-06
0.485438
1.59076e-06
0.485439
1.61042e-06
0.48544
1.69135e-06
0.48544
1.79815e-06
0.485441
1.83854e-06
0.485442
1.79567e-06
0.485442
1.76167e-06
0.485443
1.80547e-06
0.485444
1.86347e-06
0.485444
1.82146e-06
0.485445
1.68653e-06
0.485445
1.60812e-06
0.485446
1.7e-06
0.485446
1.89813e-06
0.485447
2.04427e-06
0.485447
2.07078e-06
0.485447
2.05218e-06
0.485447
2.08087e-06
0.485448
2.1421e-06
0.485448
2.13877e-06
0.485448
2.01237e-06
0.485448
1.81529e-06
0.485449
1.66702e-06
0.485449
1.64421e-06
0.485449
1.7182e-06
0.48545
1.80446e-06
0.48545
1.85511e-06
0.48545
1.88313e-06
0.48545
1.90895e-06
0.48545
1.92388e-06
0.485451
1.91976e-06
0.485451
1.91313e-06
0.485451
1.91078e-06
0.485452
1.88478e-06
0.485452
1.82062e-06
0.485452
1.76647e-06
0.485452
1.78584e-06
0.485453
1.8705e-06
0.485453
1.94144e-06
0.485453
1.93668e-06
0.485453
1.8717e-06
0.485454
1.81016e-06
0.485454
1.79428e-06
0.485455
1.80822e-06
0.485455
1.80216e-06
0.485455
1.75587e-06
0.485456
1.71006e-06
0.485456
1.71614e-06
0.485457
1.76491e-06
0.485457
1.79593e-06
0.485458
1.7827e-06
0.485458
1.77031e-06
0.485459
1.80585e-06
0.485459
1.86244e-06
0.485459
1.86705e-06
0.48546
1.79648e-06
0.48546
1.71729e-06
0.48546
1.71433e-06
0.485461
1.79387e-06
0.485461
1.87712e-06
0.485461
1.88599e-06
0.485461
1.82936e-06
0.485461
1.80076e-06
0.485461
1.87577e-06
0.485461
2.00915e-06
0.485461
2.06328e-06
0.485461
1.9641e-06
0.48546
1.79822e-06
0.48546
1.71515e-06
0.48546
1.75575e-06
0.48546
1.82789e-06
0.485459
1.83469e-06
0.485459
1.77721e-06
0.485458
1.72696e-06
0.485458
1.73975e-06
0.485458
1.80384e-06
0.485457
1.85324e-06
0.485457
1.83888e-06
0.485456
1.78965e-06
0.485456
1.77894e-06
0.485456
1.81111e-06
0.485455
1.88718e-06
1.81565e-06
0.485396
4.21482e-07
0.485396
7.43484e-07
0.485396
9.59643e-07
0.485396
9.38206e-07
0.485396
1.08433e-06
0.485396
1.54254e-06
0.485396
1.6501e-06
0.485397
1.27699e-06
0.485397
1.00037e-06
0.485399
9.38958e-07
0.4854
1.28831e-06
0.4854
1.75345e-06
0.4854
2.04898e-06
0.4854
2.18465e-06
0.485399
2.26435e-06
0.485398
2.114e-06
0.485398
1.74886e-06
0.485398
1.54251e-06
0.485397
1.68754e-06
0.485397
1.65892e-06
0.485398
1.31753e-06
0.485398
1.17093e-06
0.4854
1.31252e-06
0.485401
1.56387e-06
0.485401
1.687e-06
0.485402
1.6651e-06
0.485403
1.78314e-06
0.485403
1.99445e-06
0.485403
1.93842e-06
0.485403
1.69521e-06
0.485404
1.62761e-06
0.485404
1.78184e-06
0.485404
1.89002e-06
0.485404
1.79097e-06
0.485404
1.63305e-06
0.485405
1.59796e-06
0.485406
1.65095e-06
0.485406
1.65917e-06
0.485407
1.56144e-06
0.485408
1.42804e-06
0.485409
1.40129e-06
0.48541
1.49156e-06
0.485411
1.5253e-06
0.485411
1.4128e-06
0.485412
1.32435e-06
0.485413
1.4209e-06
0.485413
1.59441e-06
0.485414
1.65594e-06
0.485414
1.60294e-06
0.485415
1.56347e-06
0.485416
1.5879e-06
0.485416
1.60825e-06
0.485417
1.59018e-06
0.485418
1.60526e-06
0.485419
1.72706e-06
0.485419
1.90199e-06
0.485419
2.03667e-06
0.485419
2.1614e-06
0.485419
2.36171e-06
0.485419
2.57631e-06
0.485418
2.64275e-06
0.485417
2.54395e-06
0.485416
2.4306e-06
0.485415
2.39753e-06
0.485414
2.38725e-06
0.485413
2.32438e-06
0.485413
2.22521e-06
0.485412
2.12932e-06
0.485412
2.01873e-06
0.485412
1.89777e-06
0.485412
1.87603e-06
0.485412
2.02349e-06
0.485412
2.19183e-06
0.485411
2.16682e-06
0.485412
1.98779e-06
0.485412
1.91286e-06
0.485412
2.04052e-06
0.485412
2.17299e-06
0.485412
2.12059e-06
0.485412
1.96464e-06
0.485412
1.91399e-06
0.485412
2.01392e-06
0.485412
2.1152e-06
0.485412
2.08469e-06
0.485411
1.94804e-06
0.485411
1.82854e-06
0.485411
1.80545e-06
0.485412
1.84573e-06
0.485412
1.8512e-06
0.485412
1.75894e-06
0.485412
1.59677e-06
0.485413
1.449e-06
0.485414
1.38596e-06
0.485415
1.41596e-06
0.485415
1.48199e-06
0.485416
1.50084e-06
0.485417
1.43757e-06
0.485418
1.35261e-06
0.485419
1.34733e-06
0.485419
1.46099e-06
0.48542
1.62643e-06
0.48542
1.73106e-06
0.48542
1.72163e-06
0.485421
1.66559e-06
0.485421
1.68467e-06
0.485421
1.8028e-06
0.485421
1.90946e-06
0.485421
1.91745e-06
0.48542
1.89587e-06
0.48542
1.94382e-06
0.48542
1.99776e-06
0.48542
1.91233e-06
0.48542
1.72029e-06
0.485421
1.63124e-06
0.485421
1.72767e-06
0.485421
1.83354e-06
0.485421
1.76884e-06
0.485421
1.61067e-06
0.485421
1.56142e-06
0.485422
1.64895e-06
0.485422
1.7226e-06
0.485422
1.70471e-06
0.485422
1.68198e-06
0.485423
1.73051e-06
0.485423
1.79722e-06
0.485423
1.81137e-06
0.485424
1.79759e-06
0.485424
1.79866e-06
0.485424
1.78109e-06
0.485424
1.71062e-06
0.485425
1.65379e-06
0.485425
1.69962e-06
0.485425
1.81926e-06
0.485425
1.90199e-06
0.485425
1.90468e-06
0.485425
1.87577e-06
0.485425
1.85219e-06
0.485425
1.83287e-06
0.485425
1.84008e-06
0.485425
1.90019e-06
0.485425
1.95032e-06
0.485425
1.87562e-06
0.485425
1.67644e-06
0.485426
1.50291e-06
0.485426
1.47229e-06
0.485426
1.52856e-06
0.485427
1.5472e-06
0.485427
1.51463e-06
0.485427
1.51696e-06
0.485428
1.58613e-06
0.485428
1.64509e-06
0.485429
1.6095e-06
0.485429
1.47855e-06
0.48543
1.31259e-06
0.48543
1.17336e-06
0.485431
1.10144e-06
0.485431
1.10957e-06
0.485432
1.16382e-06
0.485433
1.20087e-06
0.485433
1.1942e-06
0.485434
1.17608e-06
0.485434
1.17515e-06
0.485435
1.16137e-06
0.485435
1.09579e-06
0.485436
1.01072e-06
0.485436
9.85122e-07
0.485437
1.04372e-06
0.485437
1.13327e-06
0.485438
1.21176e-06
0.485438
1.30831e-06
0.485439
1.45562e-06
0.485439
1.60095e-06
0.485439
1.65021e-06
0.485439
1.59503e-06
0.485439
1.53832e-06
0.48544
1.56868e-06
0.48544
1.64897e-06
0.48544
1.67892e-06
0.48544
1.64735e-06
0.48544
1.65506e-06
0.48544
1.77835e-06
0.48544
1.96178e-06
0.48544
2.07655e-06
0.48544
2.06096e-06
0.48544
1.96649e-06
0.48544
1.87752e-06
0.485441
1.82195e-06
0.485441
1.76349e-06
0.485441
1.66442e-06
0.485441
1.54425e-06
0.485441
1.46977e-06
0.485442
1.48728e-06
0.485442
1.57634e-06
0.485442
1.67973e-06
0.485442
1.76391e-06
0.485442
1.82691e-06
0.485442
1.86132e-06
0.485442
1.85311e-06
0.485442
1.82011e-06
0.485443
1.80787e-06
0.485443
1.82945e-06
0.485443
1.84395e-06
0.485443
1.81907e-06
0.485443
1.78299e-06
0.485443
1.78627e-06
0.485443
1.83219e-06
0.485443
1.87075e-06
0.485443
1.85398e-06
0.485443
1.77958e-06
0.485443
1.68622e-06
0.485443
1.61388e-06
0.485443
1.56517e-06
0.485444
1.51109e-06
0.485444
1.44071e-06
0.485444
1.38797e-06
0.485445
1.38729e-06
0.485445
1.41543e-06
0.485445
1.41352e-06
0.485446
1.36533e-06
0.485446
1.31894e-06
0.485447
1.32103e-06
0.485447
1.35e-06
0.485448
1.33999e-06
0.485448
1.26667e-06
0.485449
1.18595e-06
0.485449
1.17813e-06
0.48545
1.26411e-06
0.48545
1.37956e-06
0.485451
1.43616e-06
0.485451
1.41243e-06
0.485452
1.38401e-06
0.485452
1.4423e-06
0.485453
1.5742e-06
0.485453
1.66128e-06
0.485453
1.62185e-06
0.485454
1.50917e-06
0.485454
1.43733e-06
0.485454
1.44869e-06
0.485455
1.49132e-06
0.485455
1.50044e-06
0.485455
1.46384e-06
0.485455
1.42036e-06
0.485456
1.41645e-06
0.485456
1.45377e-06
0.485457
1.47709e-06
0.485457
1.43999e-06
0.485457
1.36122e-06
0.485458
1.2986e-06
0.485458
1.23317e-06
1.21191e-06
0.485397
-2.6599e-07
0.485398
4.67921e-07
0.485398
1.02744e-06
0.485397
1.23068e-06
0.485397
1.01522e-06
0.485398
1.01042e-06
0.485398
1.1161e-06
0.485398
1.47405e-06
0.485398
1.65455e-06
0.485397
1.53709e-06
0.485397
1.29746e-06
0.485398
1.1025e-06
0.485399
9.87969e-07
0.4854
1.14534e-06
0.485401
1.43882e-06
0.485401
1.71391e-06
0.485401
1.93075e-06
0.4854
1.96841e-06
0.4854
1.98845e-06
0.4854
2.15611e-06
0.485399
2.08052e-06
0.485398
1.7198e-06
0.485398
1.45231e-06
0.485398
1.25296e-06
0.485399
1.07371e-06
0.4854
1.1128e-06
0.4854
1.24136e-06
0.485401
1.32124e-06
0.485401
1.4661e-06
0.485401
1.63928e-06
0.485401
1.62556e-06
0.485402
1.54266e-06
0.485402
1.61285e-06
0.485402
1.71442e-06
0.485402
1.63458e-06
0.485402
1.45727e-06
0.485402
1.41447e-06
0.485402
1.5219e-06
0.485402
1.57962e-06
0.485402
1.51977e-06
0.485402
1.5224e-06
0.485402
1.69287e-06
0.485402
1.84072e-06
0.485401
1.78101e-06
0.485401
1.63276e-06
0.485401
1.57469e-06
0.485401
1.53754e-06
0.485401
1.41758e-06
0.485401
1.33756e-06
0.485402
1.44743e-06
0.485401
1.6148e-06
0.485401
1.5925e-06
0.485402
1.39045e-06
0.485402
1.27081e-06
0.485402
1.3771e-06
0.485403
1.50341e-06
0.485403
1.39558e-06
0.485404
1.13782e-06
0.485406
1.06898e-06
0.485407
1.3006e-06
0.485408
1.54831e-06
0.485409
1.5583e-06
0.48541
1.46621e-06
0.485411
1.55788e-06
0.485411
1.83237e-06
0.485412
2.0117e-06
0.485412
1.93078e-06
0.485412
1.72377e-06
0.485413
1.57896e-06
0.485413
1.48812e-06
0.485414
1.36402e-06
0.485415
1.25419e-06
0.485416
1.25429e-06
0.485416
1.30479e-06
0.485417
1.27087e-06
0.485418
1.17377e-06
0.485419
1.15629e-06
0.48542
1.2484e-06
0.48542
1.33079e-06
0.485421
1.33066e-06
0.485422
1.31576e-06
0.485422
1.36619e-06
0.485423
1.45588e-06
0.485424
1.50905e-06
0.485424
1.51502e-06
0.485424
1.53556e-06
0.485424
1.62158e-06
0.485425
1.75179e-06
0.485425
1.85176e-06
0.485424
1.86671e-06
0.485424
1.81397e-06
0.485424
1.7583e-06
0.485424
1.74629e-06
0.485423
1.77523e-06
0.485423
1.81302e-06
0.485423
1.82188e-06
0.485422
1.77763e-06
0.485422
1.69209e-06
0.485422
1.61188e-06
0.485421
1.58189e-06
0.485422
1.60224e-06
0.485422
1.61919e-06
0.485422
1.55767e-06
0.485422
1.40213e-06
0.485422
1.24651e-06
0.485423
1.21222e-06
0.485424
1.28834e-06
0.485424
1.32639e-06
0.485425
1.2473e-06
0.485426
1.15594e-06
0.485427
1.17087e-06
0.485427
1.22429e-06
0.485428
1.1773e-06
0.485428
1.06585e-06
0.485429
1.06762e-06
0.48543
1.22611e-06
0.48543
1.36415e-06
0.48543
1.33863e-06
0.485431
1.23344e-06
0.485431
1.21376e-06
0.485431
1.29476e-06
0.485432
1.36962e-06
0.485432
1.39689e-06
0.485432
1.42649e-06
0.485433
1.46666e-06
0.485433
1.45795e-06
0.485434
1.39428e-06
0.485434
1.35583e-06
0.485434
1.38494e-06
0.485435
1.42234e-06
0.485435
1.41686e-06
0.485435
1.41216e-06
0.485436
1.46454e-06
0.485436
1.54528e-06
0.485436
1.59309e-06
0.485436
1.6068e-06
0.485437
1.6139e-06
0.485437
1.60188e-06
0.485437
1.55795e-06
0.485438
1.53299e-06
0.485438
1.57419e-06
0.485438
1.6186e-06
0.485438
1.55617e-06
0.485438
1.39764e-06
0.485439
1.28769e-06
0.485439
1.32903e-06
0.485439
1.46917e-06
0.485439
1.59413e-06
0.485439
1.66546e-06
0.485439
1.71498e-06