/*--------------------------------*- C++ -*----------------------------------*\
| =========                 |                                                 |
| \\      /  F ield         | OpenFOAM: The Open Source CFD Toolbox           |
|  \\    /   O peration     | Version:  2406                                  |
|   \\  /    A nd           | Website:  www.openfoam.com                      |
|    \\/     M anipulation  |                                                 |
\*---------------------------------------------------------------------------*/
FoamFile
{
    version     2.0;
    format      ascii;
    arch        "LSB;label=32;scalar=64";
    class       volVectorField;
    location    "0.65";
    object      U;
}
// * * * * * * * * * * * * * * * * * * * * * * * * * * * * * * * * * * * * * //

dimensions      [0 1 -1 0 0 0 0];

internalField   nonuniform List<vector> 
6250
(
(47.5718 0.000114397 0)
(80.8899 0.00051751 0)
(69.6768 0.000777267 0)
(57.7007 0.000784428 0)
(56.8974 0.000693299 0)
(60.1391 0.000644573 0)
(61.585 0.00063138 0)
(61.1739 0.000644731 0)
(60.5911 0.000705501 0)
(60.4897 0.000800283 0)
(60.6225 0.000860514 0)
(60.7027 0.000893211 0)
(60.6935 0.000885625 0)
(60.6658 0.000873989 0)
(60.6572 0.000849245 0)
(60.6616 0.000782734 0)
(60.6654 0.000676693 0)
(60.6651 0.000593424 0)
(60.6635 0.000588788 0)
(60.6623 0.000666394 0)
(60.6619 0.000767376 0)
(60.6613 0.000831531 0)
(60.6607 0.000869985 0)
(60.6599 0.000901119 0)
(60.6591 0.000922683 0)
(60.6584 0.000916658 0)
(60.6576 0.000880023 0)
(60.657 0.000845444 0)
(60.6563 0.000842945 0)
(60.6556 0.000879366 0)
(60.6548 0.000944862 0)
(60.6539 0.00102072 0)
(60.653 0.00108275 0)
(60.6522 0.00111298 0)
(60.6513 0.00110329 0)
(60.6505 0.00106938 0)
(60.6497 0.00104777 0)
(60.649 0.00104575 0)
(60.6482 0.00103269 0)
(60.6474 0.000998511 0)
(60.6466 0.000971272 0)
(60.6458 0.000974889 0)
(60.645 0.000997311 0)
(60.6441 0.00100712 0)
(60.6433 0.000991229 0)
(60.6425 0.000965396 0)
(60.6418 0.000947142 0)
(60.641 0.000932451 0)
(60.6403 0.000910292 0)
(60.6396 0.000886076 0)
(60.6389 0.000874533 0)
(60.6382 0.00088042 0)
(60.6376 0.000896836 0)
(60.6369 0.000913982 0)
(60.6362 0.000922825 0)
(60.6355 0.000918587 0)
(60.6349 0.000909447 0)
(60.6342 0.000918337 0)
(60.6335 0.00096358 0)
(60.6328 0.00103265 0)
(60.6321 0.00108477 0)
(60.6314 0.00109088 0)
(60.6308 0.00106745 0)
(60.6302 0.00105226 0)
(60.6295 0.00105314 0)
(60.6289 0.00104352 0)
(60.6282 0.001009 0)
(60.6276 0.000973873 0)
(60.6271 0.000969968 0)
(60.6264 0.000995574 0)
(60.6258 0.00102078 0)
(60.6251 0.00102471 0)
(60.6245 0.00100934 0)
(60.6239 0.000979702 0)
(60.6233 0.000934064 0)
(60.6227 0.000880747 0)
(60.6221 0.00084272 0)
(60.6215 0.000829869 0)
(60.6209 0.000821437 0)
(60.6202 0.0007932 0)
(60.6196 0.000752765 0)
(60.6191 0.000729864 0)
(60.6185 0.000735194 0)
(60.6179 0.000745932 0)
(60.6173 0.000735012 0)
(60.6168 0.000701997 0)
(60.6163 0.000667425 0)
(60.6157 0.000645473 0)
(60.6152 0.000632024 0)
(60.6147 0.000617164 0)
(60.6141 0.00060041 0)
(60.6136 0.000589446 0)
(60.6131 0.000589055 0)
(60.6126 0.000597778 0)
(60.612 0.000613675 0)
(60.6115 0.000636428 0)
(60.6109 0.000662633 0)
(60.6104 0.00068627 0)
(60.6098 0.000707094 0)
(60.6093 0.000733023 0)
(60.6087 0.000769023 0)
(60.6081 0.000806709 0)
(60.6074 0.000831483 0)
(60.6068 0.000840088 0)
(60.6062 0.000847142 0)
(60.6056 0.000869264 0)
(60.605 0.000902626 0)
(60.6043 0.000924527 0)
(60.6037 0.000921455 0)
(60.603 0.00090832 0)
(60.6024 0.000909216 0)
(60.6017 0.000923929 0)
(60.601 0.000930123 0)
(60.6004 0.000918605 0)
(60.5997 0.000906219 0)
(60.599 0.000906552 0)
(60.5984 0.000907603 0)
(60.5977 0.00089359 0)
(60.597 0.000874451 0)
(60.5964 0.000872814 0)
(60.5957 0.000888209 0)
(60.595 0.000895526 0)
(60.5943 0.00088018 0)
(60.5937 0.000857011 0)
(60.593 0.000848833 0)
(60.5924 0.000860552 0)
(60.5917 0.000881225 0)
(60.591 0.000898901 0)
(60.5904 0.000904681 0)
(60.5897 0.000893446 0)
(60.5891 0.000872731 0)
(60.5885 0.000863391 0)
(60.5879 0.000878286 0)
(60.5873 0.000903275 0)
(60.5867 0.000910618 0)
(60.5861 0.000889549 0)
(60.5855 0.000853596 0)
(60.585 0.00081994 0)
(60.5844 0.000793718 0)
(60.5839 0.000772165 0)
(60.5834 0.000750724 0)
(60.5829 0.000722144 0)
(60.5824 0.00068166 0)
(60.5819 0.000637577 0)
(60.5815 0.00060511 0)
(60.581 0.000583813 0)
(60.5806 0.000552516 0)
(60.5802 0.000496456 0)
(60.5799 0.000430989 0)
(60.5796 0.000386778 0)
(60.5794 0.000375337 0)
(60.5791 0.000378659 0)
(60.5788 0.000371169 0)
(60.5785 0.000342616 0)
(60.5783 0.00029944 0)
(60.5781 0.000254473 0)
(60.578 0.000218917 0)
(60.5778 0.000196568 0)
(60.5777 0.00018218 0)
(60.5776 0.000167868 0)
(60.5775 0.000152685 0)
(60.5774 0.000142895 0)
(60.5773 0.000139587 0)
(60.5771 0.000130343 0)
(60.577 0.000101744 0)
(60.577 5.8913e-05 0)
(60.5769 2.20154e-05 0)
(60.5769 4.19109e-06 0)
(60.5769 3.23618e-06 0)
(60.5768 9.64124e-06 0)
(60.5768 1.79027e-05 0)
(60.5767 2.56656e-05 0)
(60.5766 2.7296e-05 0)
(60.5766 1.69757e-05 0)
(60.5765 -2.09358e-06 0)
(60.5765 -1.93791e-05 0)
(60.5764 -2.98471e-05 0)
(60.5764 -3.99513e-05 0)
(60.5764 -5.684e-05 0)
(60.5764 -7.38177e-05 0)
(60.5764 -7.59141e-05 0)
(60.5763 -5.94931e-05 0)
(60.5763 -4.05768e-05 0)
(60.5762 -4.00492e-05 0)
(60.5761 -6.35883e-05 0)
(60.5761 -9.73853e-05 0)
(60.5761 -0.000123275 0)
(60.576 -0.000135598 0)
(60.576 -0.000141187 0)
(60.576 -0.000147824 0)
(60.576 -0.000156525 0)
(60.576 -0.000160623 0)
(60.576 -0.000155859 0)
(60.5759 -0.000146145 0)
(60.5759 -0.0001405 0)
(60.5758 -0.000145529 0)
(60.5758 -0.000160076 0)
(60.5758 -0.000176403 0)
(60.5758 -0.000185322 0)
(60.5758 -0.000182333 0)
(60.5757 -0.000168555 0)
(60.5757 -0.000151527 0)
(60.5757 -0.000141978 0)
(60.5756 -0.000144929 0)
(60.5756 -0.000153815 0)
(60.5756 -0.000159636 0)
(60.5756 -0.000162076 0)
(60.5756 -0.000168232 0)
(60.5756 -0.000182033 0)
(60.5756 -0.000197582 0)
(60.5756 -0.000205612 0)
(60.5756 -0.000201097 0)
(60.5756 -0.000188802 0)
(60.5756 -0.000175754 0)
(60.5756 -0.000165168 0)
(60.5755 -0.000155312 0)
(60.5755 -0.000145602 0)
(60.5755 -0.000140841 0)
(60.5754 -0.000146494 0)
(60.5754 -0.000160223 0)
(60.5754 -0.000170913 0)
(60.5754 -0.000175074 0)
(60.5754 -0.0001807 0)
(60.5754 -0.000198168 0)
(60.5754 -0.000225453 0)
(60.5754 -0.000249607 0)
(60.5755 -0.00025842 0)
(60.5755 -0.000254958 0)
(60.5755 -0.000257087 0)
(60.5755 -0.000274748 0)
(60.5755 -0.000300127 0)
(60.5755 -0.000315072 0)
(60.5756 -0.000312292 0)
(60.5755 -0.000307656 0)
(60.5755 -0.000319979 0)
(60.5755 -0.000348613 0)
(60.5755 -0.000372452 0)
(60.5755 -0.000373244 0)
(60.5756 -0.000355466 0)
(60.5755 -0.000343642 0)
(60.5755 -0.000353942 0)
(60.5755 -0.000381583 0)
(60.5755 -0.000408992 0)
(60.5755 -0.000423812 0)
(60.5756 -0.000427685 0)
(60.5756 -0.000429362 0)
(60.5756 -0.000433524 0)
(60.5756 -0.00043061 0)
(60.5756 -0.000423595 0)
(60.5757 -0.000399239 0)
(47.5719 9.35436e-05 0)
(80.8914 0.00043321 0)
(69.6796 0.000635129 0)
(57.7053 0.000582741 0)
(56.9025 0.000436508 0)
(60.1452 0.000421692 0)
(61.5915 0.000474822 0)
(61.1813 0.000472682 0)
(60.5992 0.00047213 0)
(60.499 0.000487251 0)
(60.633 0.000467642 0)
(60.7143 0.000404428 0)
(60.706 0.00032613 0)
(60.6794 0.00031249 0)
(60.6719 0.000374338 0)
(60.6771 0.00042148 0)
(60.6816 0.000399565 0)
(60.6817 0.000359616 0)
(60.6806 0.000358849 0)
(60.6803 0.000400733 0)
(60.681 0.000477299 0)
(60.6815 0.000524663 0)
(60.6819 0.000532438 0)
(60.6823 0.00052776 0)
(60.6827 0.000532787 0)
(60.6832 0.000547439 0)
(60.6836 0.000545072 0)
(60.684 0.000539146 0)
(60.6844 0.000554476 0)
(60.6848 0.00058723 0)
(60.6852 0.000609481 0)
(60.6858 0.000615101 0)
(60.6864 0.000621103 0)
(60.6869 0.000626799 0)
(60.6874 0.000603318 0)
(60.6879 0.00054388 0)
(60.6883 0.000497758 0)
(60.6889 0.000509532 0)
(60.6894 0.000553928 0)
(60.6898 0.00058046 0)
(60.6903 0.000583061 0)
(60.6908 0.000598713 0)
(60.6914 0.000641831 0)
(60.6919 0.00067105 0)
(60.6923 0.000648293 0)
(60.6927 0.000599029 0)
(60.6931 0.00057351 0)
(60.6936 0.000573451 0)
(60.6939 0.000563169 0)
(60.6943 0.000532408 0)
(60.6946 0.000500166 0)
(60.6949 0.000474465 0)
(60.6953 0.000450096 0)
(60.6957 0.000434163 0)
(60.6961 0.000439098 0)
(60.6965 0.000453147 0)
(60.6969 0.00044553 0)
(60.6972 0.000406941 0)
(60.6976 0.000365052 0)
(60.6981 0.000345916 0)
(60.6986 0.000335022 0)
(60.699 0.000299143 0)
(60.6993 0.00024177 0)
(60.6996 0.000205916 0)
(60.7 0.000214443 0)
(60.7003 0.000238372 0)
(60.7006 0.000240457 0)
(60.7009 0.000225173 0)
(60.7012 0.000223004 0)
(60.7015 0.000240518 0)
(60.7019 0.00025396 0)
(60.7023 0.000251792 0)
(60.7027 0.00025491 0)
(60.7031 0.000280809 0)
(60.7034 0.000312067 0)
(60.7037 0.000325119 0)
(60.704 0.000332258 0)
(60.7043 0.000363382 0)
(60.7047 0.000414025 0)
(60.705 0.000444589 0)
(60.7051 0.000434321 0)
(60.7053 0.000408866 0)
(60.7056 0.000403861 0)
(60.7059 0.000421107 0)
(60.7061 0.000434801 0)
(60.7063 0.000429734 0)
(60.7065 0.000417597 0)
(60.7067 0.00041799 0)
(60.7069 0.000434802 0)
(60.7071 0.00045452 0)
(60.7073 0.000462668 0)
(60.7074 0.00045745 0)
(60.7076 0.000448099 0)
(60.7078 0.000444234 0)
(60.7081 0.000448662 0)
(60.7083 0.000456511 0)
(60.7086 0.000457638 0)
(60.7088 0.000443419 0)
(60.709 0.000416447 0)
(60.7093 0.000391549 0)
(60.7096 0.0003825 0)
(60.7099 0.000387413 0)
(60.7102 0.000390521 0)
(60.7105 0.000379255 0)
(60.7108 0.000358945 0)
(60.7111 0.000348686 0)
(60.7115 0.000359038 0)
(60.7119 0.000376497 0)
(60.7122 0.000379699 0)
(60.7125 0.000370243 0)
(60.7129 0.000372195 0)
(60.7133 0.000395226 0)
(60.7136 0.000417084 0)
(60.714 0.000417325 0)
(60.7144 0.000410646 0)
(60.7148 0.000423757 0)
(60.7151 0.000450629 0)
(60.7155 0.000459744 0)
(60.7158 0.000444146 0)
(60.7161 0.000434239 0)
(60.7166 0.000452027 0)
(60.717 0.000478064 0)
(60.7173 0.00048092 0)
(60.7176 0.000460988 0)
(60.7179 0.000443954 0)
(60.7182 0.000441533 0)
(60.7186 0.000440994 0)
(60.719 0.000429853 0)
(60.7193 0.000410043 0)
(60.7196 0.000386359 0)
(60.7199 0.000359742 0)
(60.7202 0.000337174 0)
(60.7205 0.00033122 0)
(60.7209 0.000341063 0)
(60.7212 0.00034707 0)
(60.7215 0.000333766 0)
(60.7218 0.000308434 0)
(60.7221 0.000288906 0)
(60.7223 0.000283337 0)
(60.7225 0.000290645 0)
(60.7227 0.000308722 0)
(60.7229 0.000329423 0)
(60.7231 0.000335202 0)
(60.7232 0.000316768 0)
(60.7234 0.000289209 0)
(60.7235 0.000275251 0)
(60.7236 0.000274926 0)
(60.7237 0.000267751 0)
(60.7236 0.000245378 0)
(60.7236 0.000225085 0)
(60.7236 0.000224395 0)
(60.7236 0.000235039 0)
(60.7235 0.000232457 0)
(60.7235 0.000204254 0)
(60.7234 0.000160093 0)
(60.7233 0.000118455 0)
(60.7231 9.22938e-05 0)
(60.723 8.4444e-05 0)
(60.7228 8.88988e-05 0)
(60.7227 9.51179e-05 0)
(60.7225 9.65238e-05 0)
(60.7223 9.6327e-05 0)
(60.7221 0.00010019 0)
(60.722 0.000103585 0)
(60.7218 9.51814e-05 0)
(60.7216 7.52016e-05 0)
(60.7213 5.96612e-05 0)
(60.7211 6.16656e-05 0)
(60.7209 7.73593e-05 0)
(60.7207 9.31992e-05 0)
(60.7204 0.000104143 0)
(60.7202 0.000115419 0)
(60.72 0.000127049 0)
(60.7198 0.000128305 0)
(60.7196 0.000113617 0)
(60.7194 9.57393e-05 0)
(60.7191 9.35761e-05 0)
(60.7189 0.000108517 0)
(60.7187 0.000122248 0)
(60.7184 0.000121929 0)
(60.7181 0.000117779 0)
(60.7179 0.000129248 0)
(60.7177 0.000158055 0)
(60.7175 0.000184059 0)
(60.7173 0.00018876 0)
(60.717 0.000176863 0)
(60.7167 0.000169444 0)
(60.7165 0.000178827 0)
(60.7162 0.000196897 0)
(60.716 0.000206641 0)
(60.7157 0.000200718 0)
(60.7154 0.000189431 0)
(60.7151 0.000187912 0)
(60.7149 0.000200059 0)
(60.7147 0.000215833 0)
(60.7144 0.00022307 0)
(60.7141 0.000219324 0)
(60.7138 0.000210954 0)
(60.7135 0.000204628 0)
(60.7133 0.000202697 0)
(60.713 0.00020624 0)
(60.7128 0.000213739 0)
(60.7125 0.000217895 0)
(60.7122 0.000211583 0)
(60.712 0.00019871 0)
(60.7117 0.000191359 0)
(60.7114 0.000195516 0)
(60.7112 0.000203848 0)
(60.7109 0.000204405 0)
(60.7106 0.000194504 0)
(60.7102 0.000182638 0)
(60.7099 0.000179975 0)
(60.7096 0.000188004 0)
(60.7094 0.000198739 0)
(60.7091 0.000203541 0)
(60.7089 0.000203121 0)
(60.7086 0.000205157 0)
(60.7084 0.000211943 0)
(60.7081 0.000215372 0)
(60.7079 0.000207801 0)
(60.7076 0.000195205 0)
(60.7073 0.000189309 0)
(60.7071 0.000193813 0)
(60.7068 0.000199309 0)
(60.7065 0.00019637 0)
(60.7062 0.000188562 0)
(60.706 0.000191502 0)
(60.7057 0.000214327 0)
(60.7055 0.000246153 0)
(60.7052 0.000268564 0)
(60.7049 0.000274202 0)
(60.7046 0.000276074 0)
(60.7043 0.000293584 0)
(60.704 0.000327777 0)
(60.7038 0.000358753 0)
(60.7035 0.000366036 0)
(60.7031 0.000351914 0)
(60.7028 0.000339364 0)
(60.7026 0.000346793 0)
(60.7023 0.000368083 0)
(60.7021 0.000384936 0)
(60.7018 0.000387281 0)
(60.7015 0.0003815 0)
(60.7011 0.000380631 0)
(60.7008 0.0003896 0)
(60.7005 0.000399624 0)
(60.7002 0.000399359 0)
(60.6998 0.000388235 0)
(60.6995 0.00038316 0)
(60.6991 0.000380474 0)
(47.5718 -3.95383e-05 0)
(80.891 -2.38828e-05 0)
(69.6787 6.37202e-05 0)
(57.7035 0.000122169 0)
(56.9008 0.000120084 0)
(60.1427 0.000105845 0)
(61.5895 0.000132217 0)
(61.179 0.000164896 0)
(60.5967 0.000164866 0)
(60.496 0.000150767 0)
(60.6295 0.000174534 0)
(60.7102 0.000186632 0)
(60.7015 0.000181232 0)
(60.6742 0.00015929 0)
(60.6663 0.000179019 0)
(60.6714 0.000239268 0)
(60.6758 0.000312801 0)
(60.6759 0.000356887 0)
(60.6747 0.00034951 0)
(60.6742 0.000288466 0)
(60.6743 0.000242843 0)
(60.6746 0.000204335 0)
(60.6746 0.000136627 0)
(60.6746 6.92655e-05 0)
(60.6746 4.27984e-05 0)
(60.6746 6.37081e-05 0)
(60.6747 8.55882e-05 0)
(60.6748 0.000101704 0)
(60.6748 0.000117797 0)
(60.6749 0.000131228 0)
(60.675 0.000123064 0)
(60.675 8.86949e-05 0)
(60.6751 6.15412e-05 0)
(60.6752 6.80954e-05 0)
(60.6754 9.38775e-05 0)
(60.6754 9.51917e-05 0)
(60.6754 6.01768e-05 0)
(60.6754 2.83942e-05 0)
(60.6754 2.89631e-05 0)
(60.6755 4.48631e-05 0)
(60.6756 4.47836e-05 0)
(60.6756 3.07669e-05 0)
(60.6757 3.13146e-05 0)
(60.6758 5.13325e-05 0)
(60.676 6.65289e-05 0)
(60.6761 6.83551e-05 0)
(60.6761 7.73207e-05 0)
(60.6762 0.000104371 0)
(60.6763 0.000132716 0)
(60.6765 0.000147963 0)
(60.6765 0.000153823 0)
(60.6766 0.000150378 0)
(60.6767 0.000129814 0)
(60.6767 0.000101357 0)
(60.6767 9.4007e-05 0)
(60.6768 0.000122378 0)
(60.6768 0.000164823 0)
(60.6769 0.000186659 0)
(60.6769 0.000181936 0)
(60.6769 0.000183017 0)
(60.6769 0.000222212 0)
(60.6769 0.000289038 0)
(60.6769 0.000339411 0)
(60.6768 0.000349859 0)
(60.6767 0.000341617 0)
(60.6767 0.000345648 0)
(60.6767 0.000363616 0)
(60.6767 0.000374085 0)
(60.6766 0.000363784 0)
(60.6765 0.000337352 0)
(60.6764 0.000302229 0)
(60.6763 0.000263157 0)
(60.6763 0.00023397 0)
(60.6762 0.000232459 0)
(60.6762 0.00025165 0)
(60.6762 0.000257507 0)
(60.6762 0.000233047 0)
(60.6762 0.0002066 0)
(60.6763 0.000214415 0)
(60.6764 0.000248808 0)
(60.6765 0.000268061 0)
(60.6766 0.000252722 0)
(60.6767 0.0002281 0)
(60.6768 0.000227278 0)
(60.6769 0.000249731 0)
(60.677 0.000266569 0)
(60.6771 0.000257993 0)
(60.6772 0.000233876 0)
(60.6773 0.000217634 0)
(60.6775 0.000217845 0)
(60.6776 0.0002213 0)
(60.6777 0.000212605 0)
(60.6777 0.00019329 0)
(60.6778 0.000177689 0)
(60.6778 0.000175678 0)
(60.6778 0.000185425 0)
(60.6779 0.000199436 0)
(60.6779 0.000210648 0)
(60.6779 0.000214366 0)
(60.6779 0.000210885 0)
(60.6779 0.000207838 0)
(60.6779 0.000215588 0)
(60.6779 0.000236023 0)
(60.6779 0.000255983 0)
(60.6779 0.000256559 0)
(60.6778 0.00023512 0)
(60.6778 0.000214422 0)
(60.6779 0.00021811 0)
(60.6779 0.000239667 0)
(60.6779 0.000250317 0)
(60.6779 0.000238905 0)
(60.678 0.000224511 0)
(60.678 0.000221878 0)
(60.6781 0.000217272 0)
(60.6781 0.000196062 0)
(60.6782 0.000174415 0)
(60.6782 0.000177401 0)
(60.6784 0.000196317 0)
(60.6784 0.000197099 0)
(60.6785 0.00017074 0)
(60.6786 0.00014751 0)
(60.6787 0.000153783 0)
(60.6788 0.00017883 0)
(60.6789 0.000196937 0)
(60.6789 0.000202346 0)
(60.679 0.000204721 0)
(60.679 0.000205395 0)
(60.6791 0.000199949 0)
(60.6791 0.000196124 0)
(60.6792 0.000206591 0)
(60.6792 0.000225683 0)
(60.6792 0.000233951 0)
(60.6792 0.000227511 0)
(60.6792 0.000224192 0)
(60.6793 0.000236276 0)
(60.6793 0.000254384 0)
(60.6793 0.000265013 0)
(60.6793 0.000268376 0)
(60.6793 0.000270463 0)
(60.6793 0.000272209 0)
(60.6793 0.000276488 0)
(60.6793 0.000291105 0)
(60.6794 0.000312146 0)
(60.6795 0.000317874 0)
(60.6795 0.000295979 0)
(60.6796 0.000268209 0)
(60.6796 0.00026921 0)
(60.6797 0.000303876 0)
(60.6798 0.000343155 0)
(60.6799 0.00036195 0)
(60.6799 0.000364222 0)
(60.68 0.000367113 0)
(60.68 0.000376023 0)
(60.6801 0.000384732 0)
(60.6801 0.000389814 0)
(60.6801 0.000393714 0)
(60.6801 0.000398656 0)
(60.6801 0.000406476 0)
(60.6801 0.00042028 0)
(60.6801 0.000438585 0)
(60.6801 0.000451059 0)
(60.68 0.000448318 0)
(60.68 0.000435355 0)
(60.6799 0.000427245 0)
(60.6799 0.000430132 0)
(60.6799 0.000434695 0)
(60.6798 0.000432095 0)
(60.6798 0.000426648 0)
(60.6797 0.000425516 0)
(60.6797 0.000426301 0)
(60.6797 0.000422492 0)
(60.6796 0.000416996 0)
(60.6796 0.000419512 0)
(60.6796 0.000429465 0)
(60.6795 0.000431847 0)
(60.6795 0.000416589 0)
(60.6794 0.000395298 0)
(60.6794 0.000389338 0)
(60.6794 0.000402758 0)
(60.6794 0.000416099 0)
(60.6794 0.000411299 0)
(60.6794 0.000394294 0)
(60.6793 0.000386167 0)
(60.6793 0.000396075 0)
(60.6793 0.000411301 0)
(60.6793 0.000413432 0)
(60.6793 0.000398392 0)
(60.6793 0.000378206 0)
(60.6793 0.000365945 0)
(60.6794 0.000363261 0)
(60.6794 0.000362547 0)
(60.6795 0.000357043 0)
(60.6795 0.00034927 0)
(60.6795 0.00034725 0)
(60.6795 0.000354873 0)
(60.6795 0.000368804 0)
(60.6796 0.000383414 0)
(60.6796 0.00039452 0)
(60.6797 0.000397864 0)
(60.6797 0.000390369 0)
(60.6797 0.000375284 0)
(60.6797 0.000363245 0)
(60.6797 0.000362334 0)
(60.6798 0.000368555 0)
(60.6798 0.000370956 0)
(60.6798 0.00036679 0)
(60.6798 0.000364937 0)
(60.6798 0.00037345 0)
(60.6799 0.000388683 0)
(60.6799 0.000398777 0)
(60.6799 0.000396672 0)
(60.6799 0.000386357 0)
(60.6799 0.00037855 0)
(60.68 0.000377771 0)
(60.68 0.000377857 0)
(60.68 0.000370792 0)
(60.68 0.00035878 0)
(60.68 0.00035226 0)
(60.68 0.000355257 0)
(60.68 0.000358086 0)
(60.68 0.000348155 0)
(60.68 0.000327974 0)
(60.68 0.000312357 0)
(60.68 0.000310291 0)
(60.68 0.000313128 0)
(60.68 0.000305903 0)
(60.68 0.000285382 0)
(60.6799 0.000265227 0)
(60.68 0.000261853 0)
(60.68 0.000273981 0)
(60.68 0.000282879 0)
(60.6801 0.000271495 0)
(60.6801 0.000244872 0)
(60.6801 0.000227636 0)
(60.6802 0.000234236 0)
(60.6804 0.00025063 0)
(60.6805 0.000250214 0)
(60.6805 0.000224904 0)
(60.6806 0.000192838 0)
(60.6807 0.000177642 0)
(60.6808 0.00018385 0)
(60.681 0.000198008 0)
(60.6811 0.000205676 0)
(60.6812 0.000205396 0)
(60.6814 0.000207464 0)
(60.6815 0.000218851 0)
(60.6816 0.000234185 0)
(60.6818 0.000237103 0)
(60.6819 0.000236901 0)
(60.682 0.000219466 0)
(47.5722 -3.73604e-07 0)
(80.8909 4.64218e-05 0)
(69.6788 0.000156165 0)
(57.7037 0.000262165 0)
(56.9011 0.000335521 0)
(60.1432 0.00032695 0)
(61.5897 0.000300837 0)
(61.1791 0.000322785 0)
(60.5969 0.000348904 0)
(60.4962 0.000381466 0)
(60.6299 0.000406659 0)
(60.7108 0.00041875 0)
(60.7024 0.000418859 0)
(60.6752 0.000390934 0)
(60.6675 0.00034288 0)
(60.6726 0.000302882 0)
(60.677 0.000301588 0)
(60.6773 0.00031678 0)
(60.6762 0.000333721 0)
(60.6758 0.000341554 0)
(60.6761 0.000364131 0)
(60.6764 0.000412254 0)
(60.6765 0.000450228 0)
(60.6764 0.000454452 0)
(60.6763 0.000426647 0)
(60.6762 0.000398569 0)
(60.6762 0.000375615 0)
(60.6762 0.00035952 0)
(60.6762 0.000338972 0)
(60.6761 0.000327059 0)
(60.6761 0.000341516 0)
(60.6762 0.000364407 0)
(60.6761 0.000377099 0)
(60.6761 0.000379089 0)
(60.6761 0.000398906 0)
(60.6762 0.000444933 0)
(60.6761 0.000478064 0)
(60.6761 0.000467202 0)
(60.6761 0.000437535 0)
(60.676 0.000433616 0)
(60.676 0.000450145 0)
(60.6759 0.000444906 0)
(60.6759 0.000413719 0)
(60.6758 0.000396419 0)
(60.6758 0.000409307 0)
(60.6758 0.000423269 0)
(60.6758 0.000415299 0)
(60.6757 0.00039694 0)
(60.6757 0.000382829 0)
(60.6757 0.000372147 0)
(60.6757 0.000368318 0)
(60.6757 0.000381371 0)
(60.6757 0.000403476 0)
(60.6756 0.000407759 0)
(60.6755 0.000381168 0)
(60.6755 0.00034365 0)
(60.6754 0.000324004 0)
(60.6754 0.000323478 0)
(60.6754 0.000317254 0)
(60.6754 0.000295884 0)
(60.6754 0.000286327 0)
(60.6755 0.000312758 0)
(60.6756 0.000353179 0)
(60.6757 0.00036336 0)
(60.6759 0.000336991 0)
(60.676 0.000313163 0)
(60.6762 0.000322791 0)
(60.6763 0.000352165 0)
(60.6765 0.000369644 0)
(60.6766 0.000369688 0)
(60.6768 0.000370168 0)
(60.6769 0.000375627 0)
(60.6769 0.000370539 0)
(60.6769 0.000350547 0)
(60.677 0.000333043 0)
(60.677 0.000327174 0)
(60.6771 0.000317286 0)
(60.677 0.000289453 0)
(60.677 0.000255429 0)
(60.677 0.000235395 0)
(60.677 0.00023037 0)
(60.677 0.000226436 0)
(60.677 0.000218375 0)
(60.6769 0.00021475 0)
(60.6769 0.000221853 0)
(60.677 0.00023404 0)
(60.677 0.00024229 0)
(60.677 0.000246167 0)
(60.677 0.000253837 0)
(60.6769 0.000271893 0)
(60.6769 0.000297627 0)
(60.6769 0.000322537 0)
(60.6769 0.000342 0)
(60.6769 0.000358016 0)
(60.6769 0.000372757 0)
(60.6769 0.000384539 0)
(60.6769 0.000391712 0)
(60.6769 0.000396069 0)
(60.677 0.00039942 0)
(60.677 0.000399676 0)
(60.677 0.00039284 0)
(60.6771 0.000378623 0)
(60.6771 0.000362636 0)
(60.6772 0.000350678 0)
(60.6773 0.000340225 0)
(60.6773 0.000323033 0)
(60.6774 0.000300636 0)
(60.6774 0.000289548 0)
(60.6775 0.000299429 0)
(60.6775 0.000313608 0)
(60.6776 0.000308234 0)
(60.6776 0.000286655 0)
(60.6776 0.000274202 0)
(60.6777 0.000278069 0)
(60.6777 0.000276773 0)
(60.6777 0.000257819 0)
(60.6777 0.000242074 0)
(60.6777 0.000252929 0)
(60.6777 0.00027862 0)
(60.6777 0.000288321 0)
(60.6777 0.000276628 0)
(60.6776 0.000268293 0)
(60.6776 0.000280116 0)
(60.6776 0.000301116 0)
(60.6776 0.000315236 0)
(60.6776 0.000323101 0)
(60.6776 0.000330882 0)
(60.6776 0.000334292 0)
(60.6776 0.000328243 0)
(60.6776 0.0003212 0)
(60.6777 0.000324566 0)
(60.6777 0.000334368 0)
(60.6777 0.00033789 0)
(60.6778 0.000333865 0)
(60.6778 0.000331878 0)
(60.6779 0.00033486 0)
(60.678 0.00033638 0)
(60.678 0.000333661 0)
(60.6781 0.000328846 0)
(60.6781 0.000317831 0)
(60.6781 0.000293667 0)
(60.6781 0.000263407 0)
(60.6782 0.000245499 0)
(60.6783 0.000244497 0)
(60.6783 0.000242557 0)
(60.6783 0.000225095 0)
(60.6783 0.000203022 0)
(60.6783 0.00019752 0)
(60.6783 0.000210688 0)
(60.6784 0.000224666 0)
(60.6784 0.000226111 0)
(60.6784 0.000218865 0)
(60.6784 0.000212441 0)
(60.6784 0.000209454 0)
(60.6785 0.000207856 0)
(60.6785 0.000207029 0)
(60.6786 0.000206939 0)
(60.6787 0.000206937 0)
(60.6787 0.000209062 0)
(60.6788 0.000217491 0)
(60.6789 0.000230725 0)
(60.679 0.000239281 0)
(60.6791 0.000236572 0)
(60.6792 0.000228138 0)
(60.6794 0.000223865 0)
(60.6795 0.000224126 0)
(60.6796 0.000221611 0)
(60.6797 0.000215487 0)
(60.6798 0.000214115 0)
(60.6799 0.000221491 0)
(60.68 0.000228762 0)
(60.6801 0.000225698 0)
(60.6802 0.000215988 0)
(60.6803 0.00021236 0)
(60.6804 0.00021681 0)
(60.6804 0.000215021 0)
(60.6805 0.000195488 0)
(60.6805 0.000168109 0)
(60.6806 0.000155505 0)
(60.6807 0.000166818 0)
(60.6808 0.000188142 0)
(60.6808 0.000200775 0)
(60.6808 0.000202054 0)
(60.6809 0.000203072 0)
(60.6809 0.000209953 0)
(60.681 0.000214557 0)
(60.681 0.00020482 0)
(60.681 0.000180193 0)
(60.681 0.000153872 0)
(60.6811 0.000140712 0)
(60.6811 0.000144234 0)
(60.6812 0.000155369 0)
(60.6812 0.000163583 0)
(60.6812 0.000166666 0)
(60.6812 0.000168651 0)
(60.6813 0.000171342 0)
(60.6813 0.000172469 0)
(60.6813 0.000171146 0)
(60.6814 0.000169429 0)
(60.6814 0.000167624 0)
(60.6814 0.000163086 0)
(60.6815 0.000156704 0)
(60.6815 0.000155406 0)
(60.6815 0.00016359 0)
(60.6816 0.000175352 0)
(60.6816 0.000180234 0)
(60.6816 0.000175196 0)
(60.6817 0.000167245 0)
(60.6817 0.00016488 0)
(60.6817 0.000169299 0)
(60.6818 0.000174322 0)
(60.6819 0.000173914 0)
(60.6819 0.000169859 0)
(60.682 0.000170174 0)
(60.682 0.000179177 0)
(60.6821 0.000191051 0)
(60.6821 0.000196927 0)
(60.6822 0.000196991 0)
(60.6823 0.000200231 0)
(60.6823 0.000211367 0)
(60.6824 0.000222865 0)
(60.6824 0.000224109 0)
(60.6824 0.000215234 0)
(60.6825 0.000207964 0)
(60.6825 0.000211709 0)
(60.6826 0.000222376 0)
(60.6826 0.000227247 0)
(60.6826 0.000220136 0)
(60.6826 0.000209091 0)
(60.6826 0.00020751 0)
(60.6826 0.000218537 0)
(60.6827 0.000228408 0)
(60.6826 0.000219498 0)
(60.6826 0.000191401 0)
(60.6825 0.000163408 0)
(60.6825 0.000153554 0)
(60.6825 0.000159484 0)
(60.6825 0.000164041 0)
(60.6825 0.000156139 0)
(60.6824 0.000140739 0)
(60.6823 0.000129474 0)
(60.6823 0.000127737 0)
(60.6822 0.00013074 0)
(60.6822 0.000130108 0)
(60.6821 0.000124694 0)
(60.682 0.00012338 0)
(60.682 0.000134088 0)
(60.682 0.000152325 0)
(60.6819 0.00016843 0)
(60.6819 0.000176895 0)
(47.5719 5.98612e-05 0)
(80.8909 0.000109284 0)
(69.6786 0.000100461 0)
(57.7034 8.08579e-05 0)
(56.9005 9.68891e-05 0)
(60.1428 0.000143468 0)
(61.5892 0.000160296 0)
(61.1787 0.000144563 0)
(60.5965 0.000137536 0)
(60.4959 0.000154833 0)
(60.6297 0.000159046 0)
(60.7105 0.000158593 0)
(60.702 0.000159848 0)
(60.6748 0.000153105 0)
(60.6669 0.000136336 0)
(60.6717 0.000110613 0)
(60.6759 8.42716e-05 0)
(60.6761 6.48168e-05 0)
(60.6749 6.80825e-05 0)
(60.6743 7.0258e-05 0)
(60.6745 5.7268e-05 0)
(60.6748 7.19443e-05 0)
(60.6749 0.000126849 0)
(60.675 0.000184726 0)
(60.6751 0.000209714 0)
(60.6752 0.0002196 0)
(60.6753 0.000233722 0)
(60.6754 0.000247338 0)
(60.6754 0.000235228 0)
(60.6754 0.000197098 0)
(60.6754 0.0001685 0)
(60.6755 0.000163551 0)
(60.6755 0.000156988 0)
(60.6755 0.000122562 0)
(60.6755 8.92829e-05 0)
(60.6756 9.98564e-05 0)
(60.6757 0.000135026 0)
(60.6758 0.000148612 0)
(60.6758 0.000139827 0)
(60.6759 0.000140443 0)
(60.676 0.000157543 0)
(60.6762 0.000165636 0)
(60.6763 0.000149037 0)
(60.6763 0.00012537 0)
(60.6764 0.000120243 0)
(60.6766 0.000135759 0)
(60.6766 0.000156056 0)
(60.6767 0.000170777 0)
(60.6768 0.000177363 0)
(60.6768 0.000174552 0)
(60.6769 0.000167521 0)
(60.677 0.000168614 0)
(60.6771 0.000183851 0)
(60.6772 0.000206116 0)
(60.6773 0.000225065 0)
(60.6774 0.000237452 0)
(60.6774 0.00024661 0)
(60.6774 0.000254029 0)
(60.6774 0.000250981 0)
(60.6774 0.000223384 0)
(60.6773 0.000172012 0)
(60.6771 0.000118549 0)
(60.677 8.16077e-05 0)
(60.677 5.80899e-05 0)
(60.6769 3.86262e-05 0)
(60.6767 2.80863e-05 0)
(60.6766 3.63562e-05 0)
(60.6765 5.64492e-05 0)
(60.6765 6.93701e-05 0)
(60.6765 7.31339e-05 0)
(60.6765 8.93802e-05 0)
(60.6765 0.00012965 0)
(60.6765 0.000171455 0)
(60.6764 0.000187787 0)
(60.6764 0.000187953 0)
(60.6764 0.000203633 0)
(60.6765 0.000240435 0)
(60.6765 0.000269976 0)
(60.6765 0.000271601 0)
(60.6765 0.000258714 0)
(60.6765 0.000255892 0)
(60.6765 0.000266063 0)
(60.6765 0.000271526 0)
(60.6765 0.000259347 0)
(60.6764 0.000235725 0)
(60.6764 0.000217038 0)
(60.6764 0.000212768 0)
(60.6764 0.000218279 0)
(60.6764 0.00022197 0)
(60.6765 0.000217405 0)
(60.6765 0.000207594 0)
(60.6766 0.000199274 0)
(60.6767 0.000196406 0)
(60.6768 0.000198297 0)
(60.6769 0.000199687 0)
(60.677 0.000192942 0)
(60.6771 0.000174885 0)
(60.6772 0.000152397 0)
(60.6773 0.000137922 0)
(60.6774 0.000137677 0)
(60.6775 0.000145014 0)
(60.6775 0.000146601 0)
(60.6775 0.000136718 0)
(60.6776 0.000125164 0)
(60.6776 0.000126517 0)
(60.6776 0.000140841 0)
(60.6776 0.000153347 0)
(60.6776 0.000157174 0)
(60.6776 0.000163932 0)
(60.6776 0.000181901 0)
(60.6776 0.000197189 0)
(60.6775 0.000193459 0)
(60.6775 0.000181051 0)
(60.6776 0.000184723 0)
(60.6776 0.000205504 0)
(60.6776 0.000217995 0)
(60.6776 0.000209345 0)
(60.6776 0.000198483 0)
(60.6776 0.000206088 0)
(60.6777 0.000224183 0)
(60.6777 0.000231479 0)
(60.6777 0.000225939 0)
(60.6778 0.000223039 0)
(60.6778 0.000228249 0)
(60.6779 0.000230722 0)
(60.6779 0.000223554 0)
(60.678 0.000212253 0)
(60.678 0.000200025 0)
(60.678 0.000181218 0)
(60.678 0.000156146 0)
(60.6781 0.00013816 0)
(60.6781 0.000136305 0)
(60.6781 0.000141773 0)
(60.6781 0.000141505 0)
(60.6781 0.00013615 0)
(60.6781 0.000134435 0)
(60.6781 0.000138314 0)
(60.6781 0.000145362 0)
(60.6781 0.000158309 0)
(60.6782 0.000178425 0)
(60.6782 0.00019461 0)
(60.6782 0.000194257 0)
(60.6782 0.000183489 0)
(60.6782 0.000181863 0)
(60.6782 0.000195962 0)
(60.6783 0.00021215 0)
(60.6783 0.000219039 0)
(60.6783 0.000223772 0)
(60.6784 0.000238283 0)
(60.6784 0.000259301 0)
(60.6785 0.000271933 0)
(60.6785 0.000267884 0)
(60.6786 0.00025142 0)
(60.6787 0.000230565 0)
(60.6787 0.000210959 0)
(60.6788 0.000197132 0)
(60.6789 0.000191273 0)
(60.679 0.000189351 0)
(60.679 0.000184671 0)
(60.6791 0.000176763 0)
(60.6792 0.000171175 0)
(60.6792 0.000168947 0)
(60.6793 0.000163149 0)
(60.6794 0.000149856 0)
(60.6794 0.000136609 0)
(60.6795 0.000133835 0)
(60.6796 0.000141647 0)
(60.6796 0.000152104 0)
(60.6797 0.000162312 0)
(60.6797 0.00017712 0)
(60.6798 0.0001974 0)
(60.6798 0.000213503 0)
(60.6799 0.000216286 0)
(60.6799 0.000210742 0)
(60.6799 0.000211285 0)
(60.6799 0.000223385 0)
(60.68 0.000236765 0)
(60.68 0.000240246 0)
(60.68 0.000237954 0)
(60.68 0.00024439 0)
(60.68 0.000265327 0)
(60.68 0.000290267 0)
(60.68 0.000305098 0)
(60.68 0.000307061 0)
(60.68 0.000304405 0)
(60.68 0.000304489 0)
(60.6801 0.000305912 0)
(60.6801 0.000301931 0)
(60.6801 0.000289435 0)
(60.6801 0.000273622 0)
(60.6802 0.000263862 0)
(60.6802 0.000265089 0)
(60.6802 0.000274175 0)
(60.6802 0.000284851 0)
(60.6803 0.000293712 0)
(60.6803 0.000299818 0)
(60.6803 0.000301683 0)
(60.6803 0.000298962 0)
(60.6803 0.000295499 0)
(60.6803 0.000295613 0)
(60.6803 0.000297455 0)
(60.6803 0.000295087 0)
(60.6803 0.000287886 0)
(60.6803 0.000282991 0)
(60.6803 0.000286247 0)
(60.6803 0.000294327 0)
(60.6803 0.000298444 0)
(60.6804 0.00029387 0)
(60.6804 0.000283817 0)
(60.6804 0.000274978 0)
(60.6804 0.0002704 0)
(60.6804 0.000266718 0)
(60.6804 0.000259082 0)
(60.6805 0.000248635 0)
(60.6805 0.000242489 0)
(60.6806 0.000244526 0)
(60.6806 0.000249228 0)
(60.6806 0.000248193 0)
(60.6807 0.000241041 0)
(60.6808 0.000235561 0)
(60.6808 0.000236669 0)
(60.6809 0.00023929 0)
(60.6809 0.000234865 0)