/*--------------------------------*- C++ -*----------------------------------*\
| =========                 |                                                 |
| \\      /  F ield         | OpenFOAM: The Open Source CFD Toolbox           |
|  \\    /   O peration     | Version:  2406                                  |
|   \\  /    A nd           | Website:  www.openfoam.com                      |
|    \\/     M anipulation  |                                                 |
\*---------------------------------------------------------------------------*/
FoamFile
{
    version     2.0;
    format      ascii;
    arch        "LSB;label=32;scalar=64";
    class       surfaceScalarField;
    location    "0.2";
    object      phi;
}
// * * * * * * * * * * * * * * * * * * * * * * * * * * * * * * * * * * * * * //

dimensions      [0 3 -1 0 0 0 0];

oriented        oriented;

internalField   nonuniform List<scalar> 
1890
(
3.36416e-06
-4.51996e-11
3.36419e-06
-3.56084e-11
3.36422e-06
-2.7896e-11
3.36424e-06
-2.17217e-11
3.36426e-06
-1.80006e-11
3.36427e-06
-1.35698e-11
3.36429e-06
-8.64183e-12
3.36429e-06
-4.42482e-12
3.3643e-06
-2.91136e-12
3.3643e-06
-1.70665e-12
3.3643e-06
3.28233e-13
3.3643e-06
1.90536e-12
3.3643e-06
2.18617e-12
3.36429e-06
1.98642e-12
3.36429e-06
1.40139e-12
3.36429e-06
6.06532e-13
3.36429e-06
-3.06291e-13
3.36429e-06
-1.32746e-12
3.3643e-06
-2.08686e-12
3.3643e-06
-2.64959e-12
3.3643e-06
-3.27203e-12
3.36431e-06
-3.98332e-12
3.36431e-06
-4.4847e-12
3.36431e-06
-4.80413e-12
3.36432e-06
-5.04487e-12
3.36432e-06
-4.90437e-12
3.36432e-06
-4.0374e-12
3.36433e-06
-2.45956e-12
3.36433e-06
-3.56088e-13
3.36433e-06
1.93059e-12
3.36432e-06
4.1068e-12
3.36432e-06
5.95189e-12
3.36431e-06
7.36617e-12
3.3643e-06
8.2307e-12
3.3643e-06
8.31428e-12
3.36429e-06
7.45276e-12
3.36428e-06
5.82289e-12
3.36428e-06
3.83378e-12
3.36428e-06
1.75121e-12
3.36428e-06
-4.84602e-13
3.36428e-06
-2.84984e-12
3.36428e-06
-5.09332e-12
3.36429e-06
-6.72365e-12
3.3643e-06
-7.34876e-12
3.3643e-06
-6.97182e-12
3.36431e-06
-5.92731e-12
3.36432e-06
-4.63783e-12
3.36432e-06
-3.37441e-12
3.36432e-06
-2.12164e-12
3.36432e-06
-4.65327e-13
3.36432e-06
1.46634e-12
3.36432e-06
3.37713e-12
3.36431e-06
4.68461e-12
3.36431e-06
5.12538e-12
3.3643e-06
4.94915e-12
3.3643e-06
4.59584e-12
3.36429e-06
4.20072e-12
3.36429e-06
3.47781e-12
3.36429e-06
2.15713e-12
3.36429e-06
3.08313e-13
3.36429e-06
-1.74545e-12
3.36429e-06
-3.40976e-12
3.3643e-06
-4.76406e-12
3.3643e-06
-5.80547e-12
3.36431e-06
-6.58479e-12
3.36432e-06
-6.93682e-12
3.36432e-06
-6.55694e-12
3.36433e-06
-5.2988e-12
3.36433e-06
-3.34122e-12
3.36433e-06
-1.10675e-12
3.36433e-06
9.85839e-13
3.36433e-06
2.74995e-12
3.36432e-06
4.21347e-12
3.36432e-06
5.35245e-12
3.36431e-06
6.01568e-12
3.3643e-06
5.9759e-12
3.3643e-06
5.22066e-12
3.3643e-06
4.12793e-12
3.36429e-06
3.01495e-12
3.36429e-06
2.0247e-12
3.36429e-06
1.22517e-12
3.36429e-06
4.55183e-13
3.36429e-06
-4.21414e-13
3.36429e-06
-1.39866e-12
3.3643e-06
-2.02338e-12
3.3643e-06
-2.11051e-12
3.3643e-06
-1.86219e-12
3.3643e-06
-1.64497e-12
3.3643e-06
-1.73496e-12
3.36431e-06
-2.05128e-12
3.36431e-06
-2.46903e-12
3.36431e-06
-2.93511e-12
3.36432e-06
-4.07983e-12
3.36432e-06
-5.60912e-12
3.36433e-06
-7.15001e-12
3.36434e-06
-8.41081e-12
3.36434e-06
-9.02691e-12
3.36435e-06
-9.4861e-12
3.36437e-06
-1.11302e-11
-1.4296e-11
8.60699e-06
-9.86168e-11
8.60704e-06
-8.85076e-11
8.60709e-06
-7.91999e-11
8.60713e-06
-6.59497e-11
8.60717e-06
-5.27311e-11
8.6072e-06
-4.05635e-11
8.60722e-06
-2.94178e-11
8.60723e-06
-1.9324e-11
8.60724e-06
-1.11549e-11
8.60724e-06
-3.71231e-12
8.60724e-06
2.32437e-12
8.60724e-06
5.28083e-12
8.60724e-06
5.7919e-12
8.60723e-06
5.39922e-12
8.60723e-06
4.13972e-12
8.60723e-06
1.56902e-12
8.60723e-06
-1.2335e-12
8.60723e-06
-3.54989e-12
8.60724e-06
-6.03939e-12
8.60724e-06
-9.06104e-12
8.60725e-06
-1.20874e-11
8.60726e-06
-1.4446e-11
8.60727e-06
-1.57525e-11
8.60728e-06
-1.60529e-11
8.60729e-06
-1.54797e-11
8.6073e-06
-1.37883e-11
8.60731e-06
-1.05318e-11
8.60731e-06
-5.5505e-12
8.60731e-06
8.56054e-13
8.60731e-06
7.80638e-12
8.6073e-06
1.43095e-11
8.60729e-06
1.97048e-11
8.60727e-06
2.37446e-11
8.60725e-06
2.62032e-11
8.60723e-06
2.66271e-11
8.60722e-06
2.45124e-11
8.6072e-06
1.97338e-11
8.6072e-06
1.28232e-11
8.60719e-06
4.81691e-12
8.60719e-06
-3.13163e-12
8.6072e-06
-1.01416e-11
8.60721e-06
-1.57281e-11
8.60722e-06
-1.96252e-11
8.60724e-06
-2.1626e-11
8.60725e-06
-2.15763e-11
8.60727e-06
-1.95198e-11
8.60728e-06
-1.58094e-11
8.60729e-06
-1.10377e-11
8.60729e-06
-5.7886e-12
8.60729e-06
-4.1067e-13
8.60729e-06
4.91254e-12
8.60728e-06
9.91322e-12
8.60727e-06
1.40001e-11
8.60726e-06
1.64406e-11
8.60725e-06
1.69166e-11
8.60723e-06
1.57198e-11
8.60722e-06
1.3401e-11
8.60722e-06
1.02176e-11
8.60721e-06
6.08981e-12
8.60721e-06
1.11782e-12
8.60721e-06
-4.76087e-12
8.60722e-06
-1.05582e-11
8.60723e-06
-1.57148e-11
8.60724e-06
-1.9549e-11
8.60726e-06
-2.16673e-11
8.60727e-06
-2.19085e-11
8.60729e-06
-2.02186e-11
8.6073e-06
-1.65669e-11
8.60731e-06
-1.10845e-11
8.60731e-06
-4.3147e-12
8.60731e-06
2.78803e-12
8.6073e-06
9.18701e-12
8.60729e-06
1.41922e-11
8.60728e-06
1.75124e-11
8.60727e-06
1.91725e-11
8.60725e-06
1.92835e-11
8.60724e-06
1.79101e-11
8.60723e-06
1.52561e-11
8.60722e-06
1.17291e-11
8.60722e-06
7.80206e-12
8.60722e-06
3.9288e-12
8.60722e-06
5.88322e-13
8.60722e-06
-2.25101e-12
8.60722e-06
-4.57456e-12
8.60722e-06
-6.27492e-12
8.60723e-06
-7.11142e-12
8.60723e-06
-7.16569e-12
8.60724e-06
-6.86832e-12
8.60725e-06
-6.87497e-12
8.60725e-06
-7.60373e-12
8.60726e-06
-8.97065e-12
8.60727e-06
-1.10288e-11
8.60728e-06
-1.40637e-11
8.60729e-06
-1.76211e-11
8.6073e-06
-2.09664e-11
8.60732e-06
-2.37957e-11
8.60733e-06
-2.60918e-11
8.60735e-06
-2.67609e-11
8.60737e-06
-2.70459e-11
-2.9999e-11
1.24506e-05
-1.31842e-10
1.24506e-05
-1.22106e-10
1.24507e-05
-1.11121e-10
1.24507e-05
-9.73297e-11
1.24507e-05
-7.9218e-11
1.24508e-05
-6.04774e-11
1.24508e-05
-4.17161e-11
1.24508e-05
-2.48523e-11
1.24508e-05
-1.07194e-11
1.24508e-05
-4.89424e-13
1.24508e-05
6.33428e-12
1.24508e-05
1.01462e-11
1.24508e-05
1.09665e-11
1.24508e-05
9.59188e-12
1.24508e-05
6.84107e-12
1.24508e-05
3.00925e-12
1.24508e-05
-1.38438e-12
1.24508e-05
-6.05638e-12
1.24508e-05
-1.12646e-11
1.24508e-05
-1.67616e-11
1.24508e-05
-2.17729e-11
1.24508e-05
-2.57608e-11
1.24508e-05
-2.83142e-11
1.24508e-05
-2.8912e-11
1.24508e-05
-2.72367e-11
1.24508e-05
-2.32458e-11
1.24508e-05
-1.69936e-11
1.24509e-05
-8.5899e-12
1.24509e-05
1.66566e-12
1.24508e-05
1.31377e-11
1.24508e-05
2.47441e-11
1.24508e-05
3.5153e-11
1.24508e-05
4.30466e-11
1.24508e-05
4.73576e-11
1.24508e-05
4.74636e-11
1.24507e-05
4.32172e-11
1.24507e-05
3.48802e-11
1.24507e-05
2.31998e-11
1.24507e-05
9.50322e-12
1.24507e-05
-4.50265e-12
1.24507e-05
-1.71805e-11
1.24507e-05
-2.73414e-11
1.24507e-05
-3.43048e-11
1.24508e-05
-3.78119e-11
1.24508e-05
-3.7906e-11
1.24508e-05
-3.47936e-11
1.24508e-05
-2.87873e-11
1.24508e-05
-2.04037e-11
1.24508e-05
-1.05018e-11
1.24508e-05
-1.83733e-13
1.24508e-05
9.40897e-12
1.24508e-05
1.76358e-11
1.24508e-05
2.40796e-11
1.24508e-05
2.83644e-11
1.24508e-05
3.00347e-11
1.24508e-05
2.88378e-11
1.24507e-05
2.49022e-11
1.24507e-05
1.86798e-11
1.24507e-05
1.07e-11
1.24507e-05
1.50509e-12
1.24507e-05
-8.4389e-12
1.24507e-05
-1.84391e-11
1.24508e-05
-2.7665e-11
1.24508e-05
-3.49949e-11
1.24508e-05
-3.92519e-11
1.24508e-05
-3.96905e-11
1.24508e-05
-3.62345e-11
1.24508e-05
-2.9351e-11
1.24508e-05
-1.97379e-11
1.24508e-05
-8.26136e-12
1.24508e-05
3.89913e-12
1.24508e-05
1.53275e-11
1.24508e-05
2.47053e-11
1.24508e-05
3.11004e-11
1.24508e-05
3.41392e-11
1.24508e-05
3.40405e-11
1.24508e-05
3.13977e-11
1.24508e-05
2.68798e-11
1.24507e-05
2.10964e-11
1.24507e-05
1.45337e-11
1.24507e-05
7.70633e-12
1.24507e-05
1.32077e-12
1.24507e-05
-4.02666e-12
1.24507e-05
-8.12421e-12
1.24507e-05
-1.0911e-11
1.24508e-05
-1.24858e-11
1.24508e-05
-1.32498e-11
1.24508e-05
-1.34159e-11
1.24508e-05
-1.31682e-11
1.24508e-05
-1.33597e-11
1.24508e-05
-1.48318e-11
1.24508e-05
-1.75247e-11
1.24508e-05
-2.10391e-11
1.24508e-05
-2.5015e-11
1.24508e-05
-2.86975e-11
1.24508e-05
-3.14757e-11
1.24508e-05
-3.32029e-11
1.24508e-05
-3.33763e-11
1.24508e-05
-3.18234e-11
-3.18742e-11
1.49683e-05
-1.32474e-10
1.49683e-05
-1.23828e-10
1.49683e-05
-1.10783e-10
1.49683e-05
-9.50382e-11
1.49683e-05
-7.4179e-11
1.49683e-05
-5.2781e-11
1.49683e-05
-3.29317e-11
1.49683e-05
-1.57662e-11
1.49683e-05
-1.40519e-12
1.49683e-05
8.27917e-12
1.49683e-05
1.34165e-11
1.49682e-05
1.54705e-11
1.49682e-05
1.51183e-11
1.49682e-05
1.27346e-11
1.49682e-05
8.86706e-12
1.49682e-05
3.78103e-12
1.49682e-05
-2.3251e-12
1.49682e-05
-9.10071e-12
1.49682e-05
-1.63056e-11
1.49683e-05
-2.34005e-11
1.49683e-05
-2.95825e-11
1.49683e-05
-3.43737e-11
1.49683e-05
-3.74311e-11
1.49683e-05
-3.81294e-11
1.49683e-05
-3.59058e-11
1.49683e-05
-3.05929e-11
1.49683e-05
-2.22255e-11
1.49683e-05
-1.0976e-11
1.49683e-05
2.68464e-12
1.49683e-05
1.7838e-11
1.49683e-05
3.31833e-11
1.49683e-05
4.70851e-11
1.49683e-05
5.77813e-11
1.49683e-05
6.36904e-11
1.49682e-05
6.38011e-11
1.49682e-05
5.79304e-11
1.49682e-05
4.66939e-11
1.49682e-05
3.13109e-11
1.49682e-05
1.34429e-11
1.49682e-05
-4.99481e-12
1.49682e-05
-2.20886e-11
1.49682e-05
-3.61592e-11
1.49682e-05
-4.59633e-11
1.49682e-05
-5.08505e-11
1.49683e-05
-5.08288e-11
1.49683e-05
-4.64224e-11
1.49683e-05
-3.83593e-11
1.49683e-05
-2.74034e-11
1.49683e-05
-1.44601e-11
1.49683e-05
-7.17565e-13
1.49683e-05
1.23736e-11
1.49683e-05
2.36256e-11
1.49683e-05
3.22556e-11
1.49683e-05
3.7856e-11
1.49682e-05
4.00947e-11
1.49682e-05
3.86991e-11
1.49682e-05
3.36652e-11
1.49682e-05
2.53582e-11
1.49682e-05
1.44789e-11
1.49682e-05
1.84212e-12
1.49682e-05
-1.15701e-11
1.49682e-05
-2.48408e-11
1.49682e-05
-3.69017e-11
1.49682e-05
-4.65235e-11
1.49683e-05
-5.23321e-11
1.49683e-05
-5.32288e-11
1.49683e-05
-4.8839e-11
1.49683e-05
-3.96172e-11
1.49683e-05
-2.65845e-11
1.49683e-05
-1.11199e-11
1.49683e-05
5.11246e-12
1.49683e-05
2.03361e-11
1.49683e-05
3.29653e-11
1.49683e-05
4.17949e-11
1.49683e-05
4.61491e-11
1.49683e-05
4.61359e-11
1.49682e-05
4.25842e-11
1.49682e-05
3.65267e-11
1.49682e-05
2.88187e-11
1.49682e-05
2.01258e-11
1.49682e-05
1.10806e-11
1.49682e-05
2.46052e-12
1.49682e-05
-4.99854e-12
1.49682e-05
-1.09039e-11
1.49682e-05
-1.50415e-11
1.49682e-05
-1.73206e-11
1.49682e-05
-1.81859e-11
1.49682e-05
-1.82823e-11
1.49683e-05
-1.78354e-11
1.49683e-05
-1.72091e-11
1.49683e-05
-1.70789e-11
1.49683e-05
-1.78275e-11
1.49683e-05
-1.93098e-11
1.49682e-05
-2.09795e-11
1.49682e-05
-2.21022e-11
1.49682e-05
-2.26492e-11
1.49682e-05
-2.19635e-11
1.49682e-05
-2.00554e-11
1.49682e-05
-1.75302e-11
-1.64353e-11
1.62132e-05
-1.03616e-10
1.62132e-05
-9.54118e-11
1.62132e-05
-8.10664e-11
1.62131e-05
-6.35605e-11
1.62131e-05
-4.41424e-11
1.62131e-05
-2.42525e-11
1.6213e-05
-6.94632e-12
1.6213e-05
5.97074e-12
1.6213e-05
1.49302e-11
1.6213e-05
2.05444e-11
1.6213e-05
2.2807e-11
1.6213e-05
2.21658e-11
1.6213e-05
1.93981e-11
1.6213e-05
1.51369e-11
1.6213e-05
9.94215e-12
1.6213e-05
3.94227e-12
1.6213e-05
-3.02075e-12
1.6213e-05
-1.07203e-11
1.6213e-05
-1.86188e-11
1.6213e-05
-2.61292e-11
1.6213e-05
-3.25869e-11
1.6213e-05
-3.74721e-11
1.6213e-05
-4.04698e-11
1.6213e-05
-4.11717e-11
1.6213e-05
-3.90351e-11
1.6213e-05
-3.35744e-11
1.6213e-05
-2.4495e-11
1.6213e-05
-1.1968e-11
1.6213e-05
3.19587e-12
1.6213e-05
1.97403e-11
1.6213e-05
3.62321e-11
1.6213e-05
5.11368e-11
1.6213e-05
6.27982e-11
1.6213e-05
6.95173e-11
1.6213e-05
6.99517e-11
1.6213e-05
6.36553e-11
1.6213e-05
5.13267e-11
1.6213e-05
3.45331e-11
1.6213e-05
1.52066e-11
1.6213e-05
-4.7087e-12
1.6213e-05
-2.3335e-11
1.6213e-05
-3.88917e-11
1.6213e-05
-4.9895e-11
1.6213e-05
-5.54528e-11
1.6213e-05
-5.54587e-11
1.6213e-05
-5.05366e-11
1.6213e-05
-4.17028e-11
1.6213e-05
-2.99616e-11
1.6213e-05
-1.62112e-11
1.6213e-05
-1.47723e-12
1.6213e-05
1.29881e-11
1.6213e-05
2.56567e-11
1.6213e-05
3.53555e-11
1.6213e-05
4.14446e-11
1.6213e-05
4.37038e-11
1.6213e-05
4.21029e-11
1.6213e-05
3.67474e-11
1.6213e-05
2.79082e-11
1.6213e-05
1.61165e-11
1.6213e-05
2.22374e-12
1.6213e-05
-1.26933e-11
1.6213e-05
-2.73393e-11
1.6213e-05
-4.04527e-11
1.6213e-05
-5.08186e-11
1.6213e-05
-5.72081e-11
1.6213e-05
-5.84783e-11
1.6213e-05
-5.39695e-11
1.6213e-05
-4.38964e-11
1.6213e-05
-2.94119e-11
1.6213e-05
-1.22761e-11
1.6213e-05
5.53316e-12
1.6213e-05
2.21204e-11
1.6213e-05
3.58766e-11
1.6213e-05
4.55904e-11
1.6213e-05
5.05785e-11
1.6213e-05
5.08789e-11
1.6213e-05
4.72427e-11
1.6213e-05
4.06982e-11
1.6213e-05
3.21959e-11
1.6213e-05
2.25713e-11
1.6213e-05
1.25853e-11
1.6213e-05
3.05696e-12
1.6213e-05
-5.19753e-12
1.6213e-05
-1.17991e-11
1.6213e-05
-1.66929e-11
1.6213e-05
-1.95695e-11
1.6213e-05
-2.0309e-11
1.6213e-05
-1.95495e-11
1.6213e-05
-1.80935e-11
1.6213e-05
-1.63172e-11
1.6213e-05
-1.42996e-11
1.6213e-05
-1.20394e-11
1.6213e-05
-9.50246e-12
1.62129e-05
-6.72138e-12
1.62129e-05
-3.56639e-12
1.62129e-05
-4.45786e-14
1.62129e-05
4.01494e-12
1.62128e-05
7.94041e-12
1.62128e-05
1.12765e-11
1.18134e-11
1.62133e-05
-6.36245e-11
1.62132e-05
-5.32484e-11
1.62132e-05
-3.91306e-11
1.62131e-05
-2.17026e-11
1.62131e-05
-5.10202e-12
1.62131e-05
9.38879e-12
1.6213e-05
2.03548e-11
1.6213e-05
2.68104e-11
1.6213e-05
2.99521e-11
1.6213e-05
3.04853e-11
1.6213e-05
2.85223e-11
1.6213e-05
2.49984e-11
1.6213e-05
2.06157e-11
1.6213e-05
1.52777e-11
1.6213e-05
9.27488e-12
1.6213e-05
3.04116e-12
1.6213e-05
-3.49106e-12
1.6213e-05
-1.03122e-11
1.6213e-05
-1.71452e-11
1.6213e-05
-2.36799e-11
1.6213e-05
-2.9465e-11
1.6213e-05
-3.38638e-11
1.6213e-05
-3.64499e-11
1.6213e-05
-3.70214e-11
1.6213e-05
-3.52564e-11
1.6213e-05
-3.05894e-11
1.6213e-05
-2.25589e-11
1.6213e-05
-1.12409e-11
1.6213e-05
2.61963e-12
1.6213e-05
1.78199e-11
1.6213e-05
3.29416e-11
1.6213e-05
4.64927e-11
1.6213e-05
5.69803e-11
1.6213e-05
6.30255e-11
1.6213e-05
6.35761e-11
1.6213e-05
5.82134e-11
1.6213e-05
4.73629e-11
1.6213e-05
3.22257e-11
1.6213e-05
1.44971e-11
1.6213e-05
-3.90271e-12
1.6213e-05
-2.10468e-11
1.6213e-05
-3.52396e-11
1.6213e-05
-4.52533e-11
1.6213e-05
-5.04344e-11
1.6213e-05
-5.06847e-11
1.6213e-05
-4.63636e-11
1.6213e-05
-3.82399e-11
1.6213e-05
-2.73573e-11
1.6213e-05
-1.47753e-11
1.6213e-05
-1.54251e-12
1.6213e-05
1.15385e-11
1.6213e-05
2.31695e-11
1.6213e-05
3.22878e-11
1.6213e-05
3.80611e-11
1.6213e-05
4.01483e-11
1.6213e-05
3.85918e-11
1.6213e-05
3.3605e-11
1.6213e-05
2.55694e-11
1.6213e-05
1.49556e-11
1.6213e-05
2.48272e-12
1.6213e-05
-1.12175e-11
1.6213e-05
-2.47965e-11
1.6213e-05
-3.6997e-11
1.6213e-05
-4.64802e-11
1.6213e-05
-5.21704e-11
1.6213e-05
-5.32756e-11
1.6213e-05
-4.93183e-11
1.6213e-05
-4.03517e-11
1.6213e-05
-2.72154e-11
1.6213e-05
-1.14479e-11
1.6213e-05
5.05862e-12
1.6213e-05
2.0359e-11
1.6213e-05
3.28014e-11
1.6213e-05
4.13936e-11
1.6213e-05
4.58368e-11
1.6213e-05
4.62898e-11
1.6213e-05
4.32186e-11
1.6213e-05
3.73046e-11
1.6213e-05
2.94326e-11
1.6213e-05
2.06134e-11
1.6213e-05
1.16332e-11
1.6213e-05
3.00778e-12
1.6213e-05
-4.635e-12
1.6213e-05
-1.06981e-11
1.6213e-05
-1.50706e-11
1.6213e-05
-1.77674e-11
1.6213e-05
-1.86606e-11
1.6213e-05
-1.7771e-11
1.6213e-05
-1.54731e-11
1.6213e-05
-1.23003e-11
1.6213e-05
-8.53094e-12
1.6213e-05
-3.87555e-12
1.6213e-05
1.88458e-12
1.62129e-05
8.34282e-12
1.62129e-05
1.53783e-11
1.62129e-05
2.29276e-11
1.62129e-05
3.01065e-11
1.62128e-05
3.45702e-11
1.62128e-05
3.71915e-11
3.88883e-11
1.49684e-05
-2.74962e-11
1.49684e-05
-1.82434e-11
1.49683e-05
-4.98923e-12
1.49683e-05
9.62559e-12
1.49683e-05
2.04426e-11
1.49683e-05
2.76266e-11
1.49683e-05
3.19838e-11
1.49683e-05
3.37007e-11
1.49683e-05
3.30142e-11
1.49683e-05
3.02137e-11
1.49683e-05
2.59589e-11
1.49683e-05
2.12685e-11
1.49683e-05
1.6636e-11
1.49683e-05
1.18117e-11
1.49683e-05
6.7696e-12
1.49683e-05
1.81643e-12
1.49683e-05
-3.02802e-12
1.49683e-05
-7.81032e-12
1.49683e-05
-1.24526e-11
1.49683e-05
-1.68968e-11
1.49682e-05
-2.10086e-11
1.49682e-05
-2.44237e-11
1.49682e-05
-2.67157e-11
1.49682e-05
-2.74758e-11
1.49682e-05
-2.62146e-11
1.49682e-05
-2.25614e-11
1.49682e-05
-1.64825e-11
1.49682e-05
-8.24133e-12
1.49682e-05
1.69844e-12
1.49682e-05
1.27319e-11
1.49682e-05
2.39407e-11
1.49682e-05
3.41724e-11
1.49682e-05
4.21763e-11
1.49683e-05
4.68413e-11
1.49683e-05
4.73919e-11
1.49683e-05
4.35322e-11
1.49683e-05
3.55172e-11
1.49683e-05
2.41556e-11
1.49683e-05
1.07174e-11
1.49683e-05
-3.23698e-12
1.49683e-05
-1.61083e-11
1.49683e-05
-2.65677e-11
1.49683e-05
-3.37862e-11
1.49683e-05
-3.74531e-11
1.49683e-05
-3.76246e-11
1.49683e-05
-3.45527e-11
1.49682e-05
-2.86233e-11
1.49682e-05
-2.04589e-11
1.49682e-05
-1.09187e-11
1.49682e-05
-8.88959e-13
1.49682e-05
8.79176e-12
1.49682e-05
1.74502e-11
1.49682e-05
2.43186e-11
1.49683e-05
2.87097e-11
1.49683e-05
3.02439e-11
1.49683e-05
2.89514e-11
1.49683e-05
2.51121e-11
1.49683e-05
1.91012e-11
1.49683e-05
1.13136e-11
1.49683e-05
2.15799e-12
1.49683e-05
-7.91845e-12
1.49683e-05
-1.81287e-11
1.49683e-05
-2.74552e-11
1.49683e-05
-3.47565e-11
1.49682e-05
-3.90827e-11
1.49682e-05
-3.98587e-11
1.49682e-05
-3.68527e-11
1.49682e-05
-3.01663e-11
1.49682e-05
-2.03536e-11
1.49682e-05
-8.50277e-12
1.49682e-05
3.90432e-12
1.49682e-05
1.52954e-11
1.49682e-05
2.4399e-11
1.49682e-05
3.06051e-11
1.49682e-05
3.38656e-11
1.49682e-05
3.43261e-11
1.49683e-05
3.22021e-11
1.49683e-05
2.79064e-11
1.49683e-05
2.20388e-11
1.49683e-05
1.5357e-11
1.49683e-05
8.54033e-12
1.49683e-05
1.95697e-12
1.49683e-05
-3.98348e-12
1.49683e-05
-8.64691e-12
1.49683e-05
-1.17465e-11
1.49683e-05
-1.3462e-11
1.49683e-05
-1.39461e-11
1.49683e-05
-1.32734e-11
1.49683e-05
-1.1359e-11
1.49683e-05
-8.02428e-12
1.49683e-05
-3.55939e-12
1.49683e-05
1.66334e-12
1.49682e-05
7.96361e-12
1.49682e-05
1.56811e-11
1.49682e-05
2.43678e-11
1.49682e-05
3.28753e-11
1.49682e-05
4.05307e-11
1.49682e-05
4.5516e-11
1.49682e-05
4.73252e-11
4.99494e-11
1.24508e-05
-4.63924e-12
1.24507e-05
6.59119e-13
1.24507e-05
9.41844e-12
1.24507e-05
1.67514e-11
1.24507e-05
2.17086e-11
1.24507e-05
2.46589e-11
1.24507e-05
2.5721e-11
1.24507e-05
2.50105e-11
1.24508e-05
2.29622e-11
1.24508e-05
2.02767e-11
1.24508e-05
1.70398e-11
1.24508e-05
1.32296e-11
1.24508e-05
9.5153e-12
1.24508e-05
6.40083e-12
1.24508e-05
3.66927e-12
1.24508e-05
1.0316e-12
1.24508e-05
-1.5682e-12
1.24508e-05
-4.08075e-12
1.24508e-05
-6.48331e-12
1.24508e-05
-8.76396e-12
1.24508e-05
-1.09977e-11
1.24508e-05
-1.31172e-11
1.24507e-05
-1.47519e-11
1.24507e-05
-1.53784e-11
1.24507e-05
-1.46146e-11
1.24507e-05
-1.24362e-11
1.24507e-05
-9.07454e-12
1.24507e-05
-4.72399e-12
1.24507e-05
5.32226e-13
1.24507e-05
6.53676e-12
1.24507e-05
1.28467e-11
1.24507e-05
1.87569e-11
1.24508e-05
2.34296e-11
1.24508e-05
2.61576e-11
1.24508e-05
2.65165e-11
1.24508e-05
2.4386e-11
1.24508e-05
1.99189e-11
1.24508e-05
1.35353e-11
1.24509e-05
5.93122e-12
1.24509e-05
-1.97808e-12
1.24508e-05
-9.23671e-12
1.24508e-05
-1.50566e-11
1.24508e-05
-1.89764e-11
1.24508e-05
-2.08909e-11
1.24508e-05
-2.09232e-11
1.24508e-05
-1.92565e-11
1.24508e-05
-1.60404e-11
1.24507e-05
-1.14647e-11
1.24507e-05
-5.94671e-12
1.24507e-05
-1.05281e-13
1.24507e-05
5.37977e-12
1.24508e-05
1.01214e-11
1.24508e-05
1.38286e-11
1.24508e-05
1.62419e-11
1.24508e-05
1.71394e-11
1.24508e-05
1.64505e-11
1.24508e-05
1.43122e-11
1.24508e-05
1.09269e-11
1.24508e-05
6.52996e-12
1.24508e-05
1.36133e-12
1.24508e-05
-4.29854e-12
1.24508e-05
-1.00679e-11
1.24508e-05
-1.54187e-11
1.24508e-05
-1.97027e-11
1.24508e-05
-2.22601e-11
1.24507e-05
-2.26692e-11
1.24507e-05
-2.08632e-11
1.24507e-05
-1.70448e-11
1.24507e-05
-1.15728e-11
1.24507e-05
-5.01291e-12
1.24507e-05
1.84854e-12
1.24507e-05
8.18063e-12
1.24507e-05
1.33176e-11
1.24507e-05
1.68782e-11
1.24508e-05
1.87346e-11
1.24508e-05
1.89199e-11
1.24508e-05
1.76238e-11
1.24508e-05
1.52065e-11
1.24508e-05
1.20027e-11
1.24508e-05
8.22269e-12
1.24508e-05
4.25069e-12
1.24508e-05
5.29647e-13
1.24508e-05
-2.56182e-12
1.24508e-05
-5.03844e-12
1.24508e-05
-6.80236e-12
1.24508e-05
-7.72907e-12
1.24508e-05
-7.74056e-12
1.24508e-05
-7.15321e-12
1.24508e-05
-6.23139e-12
1.24508e-05
-4.6346e-12
1.24508e-05
-1.91431e-12
1.24508e-05
2.16555e-12
1.24508e-05
7.26742e-12
1.24508e-05
1.32161e-11
1.24508e-05
1.90363e-11
1.24508e-05
2.42088e-11
1.24508e-05
2.89929e-11
1.24508e-05
3.40111e-11
1.24508e-05
3.70839e-11
4.18563e-11
8.60712e-06
5.77051e-13
8.60712e-06
2.44369e-12
8.60713e-06
5.21892e-12
8.60714e-06
7.38577e-12
8.60715e-06
8.94143e-12
8.60717e-06
9.78665e-12
8.60718e-06
1.00785e-11
8.6072e-06
9.61415e-12
8.60722e-06
8.29678e-12
8.60723e-06
6.84526e-12
8.60724e-06
5.67953e-12
8.60725e-06
4.37804e-12
8.60726e-06
2.88826e-12
8.60726e-06
1.70653e-12
8.60726e-06
1.02607e-12
8.60727e-06
4.87049e-13
8.60727e-06
-2.09941e-13
8.60726e-06
-9.75541e-13
8.60726e-06
-1.80378e-12
8.60725e-06
-2.51386e-12
8.60724e-06
-3.1757e-12
8.60723e-06
-3.85567e-12
8.60722e-06
-4.42316e-12
8.60721e-06
-4.65548e-12
8.6072e-06
-4.46294e-12
8.60719e-06
-3.88249e-12
8.60719e-06
-2.9362e-12
8.60719e-06
-1.61672e-12
8.60719e-06
6.43547e-14
8.60719e-06
1.9238e-12
8.6072e-06
3.86895e-12
8.60721e-06
5.7037e-12
8.60723e-06
7.19752e-12
8.60725e-06
8.12316e-12
8.60727e-06
8.3158e-12
8.60728e-06
7.69467e-12
8.6073e-06
6.28417e-12
8.60731e-06
4.23774e-12
8.60731e-06
1.81687e-12
8.60731e-06
-6.77374e-13
8.60731e-06
-2.97484e-12
8.6073e-06
-4.85552e-12
8.60728e-06
-6.12676e-12
8.60727e-06
-6.66508e-12
8.60725e-06
-6.50289e-12
8.60724e-06
-5.80089e-12
8.60723e-06
-4.73222e-12
8.60722e-06
-3.3444e-12
8.60722e-06
-1.64255e-12
8.60722e-06
2.56113e-13
8.60722e-06
2.06127e-12
8.60723e-06
3.52049e-12
8.60724e-06
4.53879e-12
8.60725e-06
5.12043e-12
8.60726e-06
5.3172e-12
8.60727e-06
5.15229e-12
8.60728e-06
4.61861e-12
8.60729e-06
3.63523e-12
8.60729e-06
2.14849e-12
8.60729e-06
2.67743e-13
8.60729e-06
-1.69261e-12
8.60728e-06
-3.45902e-12
8.60727e-06
-4.95338e-12
8.60726e-06
-6.17297e-12
8.60724e-06
-7.00175e-12
8.60722e-06
-7.22066e-12
8.60721e-06
-6.69435e-12
8.6072e-06
-5.45461e-12
8.60719e-06
-3.66494e-12
8.60719e-06
-1.59602e-12
8.60719e-06
4.69827e-13
8.60719e-06
2.38664e-12
8.6072e-06
4.07575e-12
8.60722e-06
5.33677e-12
8.60723e-06
5.94394e-12
8.60724e-06
5.88021e-12
8.60726e-06
5.34134e-12
8.60727e-06
4.52851e-12
8.60728e-06
3.49257e-12
8.60728e-06
2.23614e-12
8.60729e-06
1.02194e-12
8.60729e-06
6.98758e-14
8.60729e-06
-5.23856e-13
8.60728e-06
-1.11161e-12
8.60728e-06
-1.77099e-12
8.60727e-06
-2.32923e-12
8.60727e-06
-2.53809e-12
8.60726e-06
-2.32476e-12
8.60726e-06
-2.22778e-12
8.60726e-06
-1.94389e-12
8.60726e-06
-1.15056e-12
8.60726e-06
4.69972e-13
8.60726e-06
2.36436e-12
8.60727e-06
4.12301e-12
8.60728e-06
5.83291e-12
8.6073e-06
8.43282e-12
8.60732e-06
1.04968e-11
8.60734e-06
1.21314e-11
8.60736e-06
1.44759e-11
2.00285e-11
3.36422e-06
3.36422e-06
3.36423e-06
3.36424e-06
3.36425e-06
3.36426e-06
3.36427e-06
3.36427e-06
3.36428e-06
3.36429e-06
3.3643e-06
3.3643e-06
3.3643e-06
3.3643e-06
3.36431e-06
3.36431e-06
3.36431e-06
3.36431e-06
3.3643e-06
3.3643e-06
3.3643e-06
3.36429e-06
3.36429e-06
3.36429e-06
3.36428e-06
3.36428e-06
3.36427e-06
3.36427e-06
3.36427e-06
3.36428e-06
3.36428e-06
3.36429e-06
3.36429e-06
3.3643e-06
3.36431e-06
3.36432e-06
3.36432e-06
3.36433e-06
3.36433e-06
3.36433e-06
3.36433e-06
3.36432e-06
3.36432e-06
3.36431e-06
3.3643e-06
3.3643e-06
3.36429e-06
3.36429e-06
3.36429e-06
3.36429e-06
3.36429e-06
3.36429e-06
3.3643e-06
3.3643e-06
3.36431e-06
3.36431e-06
3.36432e-06
3.36432e-06
3.36432e-06
3.36432e-06
3.36432e-06
3.36432e-06
3.36431e-06
3.36431e-06
3.3643e-06
3.36429e-06
3.36429e-06
3.36428e-06
3.36428e-06
3.36428e-06
3.36428e-06
3.36428e-06
3.36428e-06
3.36429e-06
3.3643e-06
3.3643e-06
3.36431e-06
3.36431e-06
3.36432e-06
3.36432e-06
3.36432e-06
3.36432e-06
3.36432e-06
3.36432e-06
3.36432e-06
3.36431e-06
3.36431e-06
3.36431e-06
3.36431e-06
3.36431e-06
3.36431e-06
3.36431e-06
3.36431e-06
3.36431e-06
3.36432e-06
3.36433e-06
3.36434e-06
3.36435e-06
3.36436e-06
)
;

boundaryField
{
    inlet
    {
        type            calculated;
        value           nonuniform List<scalar> 10(-3.36411e-06 -8.60694e-06 -1.24506e-05 -1.49683e-05 -1.62132e-05 -1.62133e-05 -1.49685e-05 -1.24508e-05 -8.60713e-06 -3.36422e-06);
    }
    outlet
    {
        type            calculated;
        value           nonuniform List<scalar> 10(3.36438e-06 8.60738e-06 1.24508e-05 1.49682e-05 1.62128e-05 1.62128e-05 1.49682e-05 1.24508e-05 8.60738e-06 3.36438e-06);
    }
    walls
    {
        type            calculated;
        value           uniform 0;
    }
    frontAndBack
    {
        type            empty;
    }
}


// ************************************************************************* //
