/*--------------------------------*- C++ -*----------------------------------*\
| =========                 |                                                 |
| \\      /  F ield         | OpenFOAM: The Open Source CFD Toolbox           |
|  \\    /   O peration     | Version:  2406                                  |
|   \\  /    A nd           | Website:  www.openfoam.com                      |
|    \\/     M anipulation  |                                                 |
\*---------------------------------------------------------------------------*/
FoamFile
{
    version     2.0;
    format      ascii;
    arch        "LSB;label=32;scalar=64";
    class       volVectorField;
    location    "0.2";
    object      U;
}
// * * * * * * * * * * * * * * * * * * * * * * * * * * * * * * * * * * * * * //

dimensions      [0 1 -1 0 0 0 0];

internalField   nonuniform List<vector> 
1000
(
(0.0336413 -2.17278e-07 0)
(0.0336417 -1.60503e-07 0)
(0.0336421 -1.15732e-07 0)
(0.0336423 -8.49014e-08 0)
(0.0336425 -6.83189e-08 0)
(0.0336427 -5.25668e-08 0)
(0.0336428 -3.01832e-08 0)
(0.0336429 -1.47975e-08 0)
(0.033643 -9.68241e-09 0)
(0.033643 -4.20529e-09 0)
(0.033643 2.06113e-09 0)
(0.033643 6.51977e-09 0)
(0.033643 7.7578e-09 0)
(0.0336429 6.69741e-09 0)
(0.0336429 4.86056e-09 0)
(0.0336429 2.39163e-09 0)
(0.0336429 -1.2775e-09 0)
(0.0336429 -5.1944e-09 0)
(0.0336429 -7.51828e-09 0)
(0.033643 -8.75334e-09 0)
(0.033643 -1.07896e-08 0)
(0.033643 -1.31775e-08 0)
(0.0336431 -1.46687e-08 0)
(0.0336431 -1.59305e-08 0)
(0.0336432 -1.75882e-08 0)
(0.0336432 -1.80783e-08 0)
(0.0336432 -1.56119e-08 0)
(0.0336433 -1.00049e-08 0)
(0.0336433 -2.30484e-09 0)
(0.0336433 6.18751e-09 0)
(0.0336433 1.38038e-08 0)
(0.0336432 1.99375e-08 0)
(0.0336432 2.48384e-08 0)
(0.0336431 2.84704e-08 0)
(0.033643 2.94466e-08 0)
(0.0336429 2.63542e-08 0)
(0.0336429 1.99068e-08 0)
(0.0336428 1.24553e-08 0)
(0.0336428 5.36274e-09 0)
(0.0336428 -1.94096e-09 0)
(0.0336428 -1.02889e-08 0)
(0.0336428 -1.87353e-08 0)
(0.0336429 -2.50199e-08 0)
(0.0336429 -2.73868e-08 0)
(0.033643 -2.56743e-08 0)
(0.0336431 -2.13055e-08 0)
(0.0336431 -1.62123e-08 0)
(0.0336432 -1.14986e-08 0)
(0.0336432 -6.95259e-09 0)
(0.0336432 -1.74209e-09 0)
(0.0336432 5.23785e-09 0)
(0.0336432 1.26635e-08 0)
(0.0336432 1.77066e-08 0)
(0.0336431 1.87816e-08 0)
(0.0336431 1.73088e-08 0)
(0.033643 1.58352e-08 0)
(0.033643 1.49588e-08 0)
(0.0336429 1.28339e-08 0)
(0.0336429 7.93465e-09 0)
(0.0336429 1.08256e-09 0)
(0.0336429 -6.01822e-09 0)
(0.0336429 -1.20818e-08 0)
(0.0336429 -1.66994e-08 0)
(0.033643 -2.03667e-08 0)
(0.0336431 -2.31946e-08 0)
(0.0336431 -2.45292e-08 0)
(0.0336432 -2.34079e-08 0)
(0.0336432 -1.882e-08 0)
(0.0336433 -1.10492e-08 0)
(0.0336433 -2.30051e-09 0)
(0.0336433 5.10912e-09 0)
(0.0336433 1.09026e-08 0)
(0.0336432 1.60173e-08 0)
(0.0336432 2.03635e-08 0)
(0.0336431 2.24046e-08 0)
(0.0336431 2.1244e-08 0)
(0.033643 1.78054e-08 0)
(0.033643 1.37242e-08 0)
(0.0336429 1.00563e-08 0)
(0.0336429 7.11799e-09 0)
(0.0336429 5.11245e-09 0)
(0.0336429 3.32889e-09 0)
(0.0336429 -2.00474e-10 0)
(0.0336429 -5.0787e-09 0)
(0.0336429 -8.52258e-09 0)
(0.033643 -8.90768e-09 0)
(0.033643 -7.34466e-09 0)
(0.033643 -5.95834e-09 0)
(0.033643 -5.43772e-09 0)
(0.033643 -4.57829e-09 0)
(0.0336431 -3.57702e-09 0)
(0.0336431 -5.89096e-09 0)
(0.0336431 -1.17719e-08 0)
(0.0336432 -1.88742e-08 0)
(0.0336432 -2.61598e-08 0)
(0.0336433 -3.30543e-08 0)
(0.0336434 -3.73361e-08 0)
(0.0336435 -4.11041e-08 0)
(0.0336436 -5.07554e-08 0)
(0.0336437 -7.00064e-08 0)
(0.0860696 -7.3591e-07 0)
(0.0860701 -6.25015e-07 0)
(0.0860707 -5.28712e-07 0)
(0.0860712 -4.28318e-07 0)
(0.0860715 -3.43561e-07 0)
(0.0860719 -2.63999e-07 0)
(0.0860721 -1.88626e-07 0)
(0.0860723 -1.17359e-07 0)
(0.0860724 -7.24789e-08 0)
(0.0860724 -2.87074e-08 0)
(0.0860724 9.04667e-09 0)
(0.0860724 2.99642e-08 0)
(0.0860724 3.5356e-08 0)
(0.0860723 3.41553e-08 0)
(0.0860723 2.62088e-08 0)
(0.0860723 1.01988e-08 0)
(0.0860723 -7.3101e-09 0)
(0.0860723 -2.21642e-08 0)
(0.0860723 -3.6096e-08 0)
(0.0860724 -5.14507e-08 0)
(0.0860725 -6.81879e-08 0)
(0.0860726 -8.26006e-08 0)
(0.0860727 -9.08794e-08 0)
(0.0860728 -9.37483e-08 0)
(0.0860729 -9.27758e-08 0)
(0.086073 -8.53507e-08 0)
(0.0860731 -6.75297e-08 0)
(0.0860731 -3.79646e-08 0)
(0.0860731 9.82798e-10 0)
(0.0860731 4.36271e-08 0)
(0.0860731 8.30233e-08 0)
(0.0860729 1.15261e-07 0)
(0.0860728 1.39439e-07 0)
(0.0860726 1.5461e-07 0)
(0.0860724 1.57482e-07 0)
(0.0860722 1.44282e-07 0)
(0.0860721 1.14907e-07 0)
(0.086072 7.39963e-08 0)
(0.0860719 2.79531e-08 0)
(0.0860719 -1.79887e-08 0)
(0.0860719 -6.01908e-08 0)
(0.086072 -9.53262e-08 0)
(0.0860721 -1.20132e-07 0)
(0.0860723 -1.31999e-07 0)
(0.0860724 -1.29861e-07 0)
(0.0860726 -1.15156e-07 0)
(0.0860727 -9.16732e-08 0)
(0.0860728 -6.36773e-08 0)
(0.0860729 -3.39369e-08 0)
(0.0860729 -3.13415e-09 0)
(0.0860729 2.91759e-08 0)
(0.0860728 6.0654e-08 0)
(0.0860727 8.56218e-08 0)
(0.0860726 9.86201e-08 0)
(0.0860725 9.92345e-08 0)
(0.0860724 9.13877e-08 0)
(0.0860723 7.88086e-08 0)
(0.0860722 6.13625e-08 0)
(0.0860721 3.69816e-08 0)
(0.0860721 5.67026e-09 0)
(0.0860721 -2.91535e-08 0)
(0.0860722 -6.34227e-08 0)
(0.0860723 -9.28346e-08 0)
(0.0860724 -1.14609e-07 0)
(0.0860725 -1.27309e-07 0)
(0.0860727 -1.29591e-07 0)
(0.0860728 -1.20303e-07 0)
(0.0860729 -9.83885e-08 0)
(0.086073 -6.4601e-08 0)
(0.0860731 -2.32734e-08 0)
(0.0860731 1.87929e-08 0)
(0.086073 5.58542e-08 0)
(0.086073 8.48037e-08 0)
(0.0860728 1.04463e-07 0)
(0.0860727 1.14254e-07 0)
(0.0860726 1.13911e-07 0)
(0.0860725 1.03953e-07 0)
(0.0860723 8.66614e-08 0)
(0.0860723 6.54914e-08 0)
(0.0860722 4.32392e-08 0)
(0.0860722 2.24546e-08 0)
(0.0860721 4.73006e-09 0)
(0.0860722 -1.1393e-08 0)
(0.0860722 -2.66364e-08 0)
(0.0860722 -3.76416e-08 0)
(0.0860723 -4.18126e-08 0)
(0.0860723 -4.04944e-08 0)
(0.0860724 -3.7673e-08 0)
(0.0860724 -3.81066e-08 0)
(0.0860725 -4.26167e-08 0)
(0.0860725 -4.97923e-08 0)
(0.0860726 -6.34137e-08 0)
(0.0860727 -8.60195e-08 0)
(0.0860728 -1.12884e-07 0)
(0.0860729 -1.38714e-07 0)
(0.0860731 -1.61073e-07 0)
(0.0860732 -1.77979e-07 0)
(0.0860734 -1.86425e-07 0)
(0.0860736 -2.01802e-07 0)
(0.0860738 -2.38425e-07 0)
(0.124506 -1.22559e-06 0)
(0.124506 -1.12285e-06 0)
(0.124507 -1.0181e-06 0)
(0.124507 -8.76772e-07 0)
(0.124507 -7.1641e-07 0)
(0.124507 -5.52475e-07 0)
(0.124508 -3.95905e-07 0)
(0.124508 -2.53261e-07 0)
(0.124508 -1.33446e-07 0)
(0.124508 -3.94225e-08 0)
(0.124508 3.00301e-08 0)
(0.124508 6.98215e-08 0)
(0.124508 8.05374e-08 0)
(0.124508 7.41214e-08 0)
(0.124508 5.53789e-08 0)
(0.124508 2.40517e-08 0)
(0.124508 -1.17729e-08 0)
(0.124508 -4.68952e-08 0)
(0.124508 -8.54403e-08 0)
(0.124508 -1.28068e-07 0)
(0.124508 -1.6852e-07 0)
(0.124508 -2.00627e-07 0)
(0.124508 -2.20204e-07 0)
(0.124508 -2.24903e-07 0)
(0.124508 -2.13952e-07 0)
(0.124508 -1.85872e-07 0)
(0.124508 -1.38501e-07 0)
(0.124509 -7.15103e-08 0)
(0.124509 1.19909e-08 0)
(0.124509 1.0444e-07 0)
(0.124508 1.95436e-07 0)
(0.124508 2.74986e-07 0)
(0.124508 3.35163e-07 0)
(0.124508 3.69316e-07 0)
(0.124508 3.71903e-07 0)
(0.124508 3.39646e-07 0)
(0.124507 2.73393e-07 0)
(0.124507 1.79807e-07 0)
(0.124507 7.08765e-08 0)
(0.124507 -3.91759e-08 0)
(0.124507 -1.37942e-07 0)
(0.124507 -2.16972e-07 0)
(0.124507 -2.7139e-07 0)
(0.124508 -2.98745e-07 0)
(0.124508 -2.98512e-07 0)
(0.124508 -2.72068e-07 0)
(0.124508 -2.22912e-07 0)
(0.124508 -1.56701e-07 0)
(0.124508 -8.06672e-08 0)
(0.124508 -2.27931e-09 0)
(0.124508 7.22545e-08 0)
(0.124508 1.38227e-07 0)
(0.124508 1.9097e-07 0)
(0.124508 2.24809e-07 0)
(0.124508 2.35577e-07 0)
(0.124508 2.23299e-07 0)
(0.124508 1.91493e-07 0)
(0.124507 1.43937e-07 0)
(0.124507 8.29484e-08 0)
(0.124507 1.09725e-08 0)
(0.124507 -6.72566e-08 0)
(0.124507 -1.46011e-07 0)
(0.124507 -2.17696e-07 0)
(0.124508 -2.73391e-07 0)
(0.124508 -3.05115e-07 0)
(0.124508 -3.08169e-07 0)
(0.124508 -2.82053e-07 0)
(0.124508 -2.29166e-07 0)
(0.124508 -1.53561e-07 0)
(0.124508 -6.20391e-08 0)
(0.124508 3.47268e-08 0)
(0.124508 1.24323e-07 0)
(0.124508 1.96474e-07 0)
(0.124508 2.45076e-07 0)
(0.124508 2.68245e-07 0)
(0.124508 2.67572e-07 0)
(0.124508 2.46659e-07 0)
(0.124508 2.10188e-07 0)
(0.124508 1.63281e-07 0)
(0.124507 1.10492e-07 0)
(0.124507 5.66058e-08 0)
(0.124507 7.60167e-09 0)
(0.124507 -3.26625e-08 0)
(0.124507 -6.41731e-08 0)
(0.124507 -8.60612e-08 0)
(0.124508 -9.76072e-08 0)
(0.124508 -1.01444e-07 0)
(0.124508 -1.01084e-07 0)
(0.124508 -1.00956e-07 0)
(0.124508 -1.07563e-07 0)
(0.124508 -1.25015e-07 0)
(0.124508 -1.53455e-07 0)
(0.124508 -1.91909e-07 0)
(0.124508 -2.35712e-07 0)
(0.124508 -2.77168e-07 0)
(0.124508 -3.10974e-07 0)
(0.124508 -3.36573e-07 0)
(0.124508 -3.44286e-07 0)
(0.124508 -3.39272e-07 0)
(0.124508 -3.58116e-07 0)
(0.149683 -1.41824e-06 0)
(0.149683 -1.3239e-06 0)
(0.149683 -1.20425e-06 0)
(0.149683 -1.05294e-06 0)
(0.149683 -8.47801e-07 0)
(0.149683 -6.37131e-07 0)
(0.149683 -4.28783e-07 0)
(0.149683 -2.46148e-07 0)
(0.149683 -9.18935e-08 0)
(0.149683 1.87612e-08 0)
(0.149683 8.76677e-08 0)
(0.149683 1.23372e-07 0)
(0.149682 1.29839e-07 0)
(0.149682 1.13458e-07 0)
(0.149682 8.07123e-08 0)
(0.149682 3.50457e-08 0)
(0.149682 -1.87431e-08 0)
(0.149682 -7.74315e-08 0)
(0.149682 -1.41423e-07 0)
(0.149682 -2.06741e-07 0)
(0.149683 -2.64977e-07 0)
(0.149683 -3.106e-07 0)
(0.149683 -3.39661e-07 0)
(0.149683 -3.46462e-07 0)
(0.149683 -3.26464e-07 0)
(0.149683 -2.78436e-07 0)
(0.149683 -2.02816e-07 0)
(0.149683 -1.01225e-07 0)
(0.149683 2.23892e-08 0)
(0.149683 1.60223e-07 0)
(0.149683 3.00033e-07 0)
(0.149683 4.26371e-07 0)
(0.149683 5.22963e-07 0)
(0.149683 5.75836e-07 0)
(0.149683 5.76567e-07 0)
(0.149682 5.238e-07 0)
(0.149682 4.22363e-07 0)
(0.149682 2.82367e-07 0)
(0.149682 1.18984e-07 0)
(0.149682 -4.91956e-08 0)
(0.149682 -2.03663e-07 0)
(0.149682 -3.29368e-07 0)
(0.149682 -4.16239e-07 0)
(0.149682 -4.5957e-07 0)
(0.149682 -4.59673e-07 0)
(0.149683 -4.20483e-07 0)
(0.149683 -3.47535e-07 0)
(0.149683 -2.47574e-07 0)
(0.149683 -1.29596e-07 0)
(0.149683 -5.48968e-09 0)
(0.149683 1.1206e-07 0)
(0.149683 2.12891e-07 0)
(0.149683 2.91038e-07 0)
(0.149683 3.42493e-07 0)
(0.149683 3.6294e-07 0)
(0.149682 3.4944e-07 0)
(0.149682 3.02748e-07 0)
(0.149682 2.27452e-07 0)
(0.149682 1.30054e-07 0)
(0.149682 1.72846e-08 0)
(0.149682 -1.03737e-07 0)
(0.149682 -2.24213e-07 0)
(0.149682 -3.34235e-07 0)
(0.149682 -4.21818e-07 0)
(0.149683 -4.73921e-07 0)
(0.149683 -4.80844e-07 0)
(0.149683 -4.40068e-07 0)
(0.149683 -3.56544e-07 0)
(0.149683 -2.39368e-07 0)
(0.149683 -9.99765e-08 0)
(0.149683 4.71575e-08 0)
(0.149683 1.85229e-07 0)
(0.149683 2.98852e-07 0)
(0.149683 3.77137e-07 0)
(0.149683 4.15159e-07 0)
(0.149683 4.1466e-07 0)
(0.149683 3.82627e-07 0)
(0.149682 3.27833e-07 0)
(0.149682 2.58011e-07 0)
(0.149682 1.79036e-07 0)
(0.149682 9.65845e-08 0)
(0.149682 1.84627e-08 0)
(0.149682 -4.78777e-08 0)
(0.149682 -9.93438e-08 0)
(0.149682 -1.35026e-07 0)
(0.149682 -1.55034e-07 0)
(0.149682 -1.63197e-07 0)
(0.149682 -1.64264e-07 0)
(0.149682 -1.61628e-07 0)
(0.149683 -1.62052e-07 0)
(0.149683 -1.72712e-07 0)
(0.149683 -1.95307e-07 0)
(0.149683 -2.27385e-07 0)
(0.149683 -2.63536e-07 0)
(0.149682 -2.95344e-07 0)
(0.149682 -3.19007e-07 0)
(0.149682 -3.27924e-07 0)
(0.149682 -3.20979e-07 0)
(0.149682 -2.99547e-07 0)
(0.149682 -2.93916e-07 0)
(0.162132 -1.24406e-06 0)
(0.162132 -1.16113e-06 0)
(0.162132 -1.0214e-06 0)
(0.162131 -8.51893e-07 0)
(0.162131 -6.41512e-07 0)
(0.162131 -4.2437e-07 0)
(0.162131 -2.28667e-07 0)
(0.16213 -6.78804e-08 0)
(0.16213 5.75783e-08 0)
(0.16213 1.41061e-07 0)
(0.16213 1.83011e-07 0)
(0.16213 1.9282e-07 0)
(0.16213 1.77748e-07 0)
(0.16213 1.43629e-07 0)
(0.16213 9.68723e-08 0)
(0.16213 3.95742e-08 0)
(0.16213 -2.82153e-08 0)
(0.16213 -1.03792e-07 0)
(0.16213 -1.82989e-07 0)
(0.16213 -2.59472e-07 0)
(0.16213 -3.25382e-07 0)
(0.16213 -3.75705e-07 0)
(0.16213 -4.07226e-07 0)
(0.16213 -4.14504e-07 0)
(0.16213 -3.91649e-07 0)
(0.16213 -3.35168e-07 0)
(0.16213 -2.43829e-07 0)
(0.16213 -1.19526e-07 0)
(0.16213 3.10234e-08 0)
(0.16213 1.967e-07 0)
(0.16213 3.63216e-07 0)
(0.16213 5.1395e-07 0)
(0.16213 6.30773e-07 0)
(0.16213 6.9646e-07 0)
(0.16213 6.98994e-07 0)
(0.16213 6.35435e-07 0)
(0.16213 5.12701e-07 0)
(0.16213 3.45026e-07 0)
(0.16213 1.50852e-07 0)
(0.16213 -4.97258e-08 0)
(0.16213 -2.36671e-07 0)
(0.16213 -3.91719e-07 0)
(0.16213 -5.0058e-07 0)
(0.16213 -5.55289e-07 0)
(0.16213 -5.55397e-07 0)
(0.16213 -5.069e-07 0)
(0.16213 -4.18946e-07 0)
(0.16213 -3.00756e-07 0)
(0.16213 -1.61649e-07 0)
(0.16213 -1.29022e-08 0)
(0.16213 1.31308e-07 0)
(0.16213 2.56705e-07 0)
(0.16213 3.52711e-07 0)
(0.16213 4.13861e-07 0)
(0.16213 4.37448e-07 0)
(0.16213 4.21922e-07 0)
(0.16213 3.67749e-07 0)
(0.16213 2.78299e-07 0)
(0.16213 1.60114e-07 0)
(0.16213 2.19005e-08 0)
(0.16213 -1.26208e-07 0)
(0.16213 -2.72278e-07 0)
(0.16213 -4.03907e-07 0)
(0.16213 -5.08281e-07 0)
(0.16213 -5.72091e-07 0)
(0.16213 -5.83747e-07 0)
(0.16213 -5.37518e-07 0)
(0.16213 -4.36638e-07 0)
(0.16213 -2.92687e-07 0)
(0.16213 -1.22339e-07 0)
(0.16213 5.55005e-08 0)
(0.16213 2.21791e-07 0)
(0.16213 3.59645e-07 0)
(0.16213 4.56297e-07 0)
(0.16213 5.05013e-07 0)
(0.16213 5.06881e-07 0)
(0.16213 4.69794e-07 0)
(0.16213 4.04072e-07 0)
(0.16213 3.19342e-07 0)
(0.16213 2.23806e-07 0)
(0.16213 1.24679e-07 0)
(0.16213 2.9818e-08 0)
(0.16213 -5.26757e-08 0)
(0.16213 -1.18297e-07 0)
(0.16213 -1.6553e-07 0)
(0.16213 -1.92808e-07 0)
(0.16213 -2.01826e-07 0)
(0.16213 -1.98826e-07 0)
(0.16213 -1.89414e-07 0)
(0.16213 -1.78119e-07 0)
(0.16213 -1.68744e-07 0)
(0.16213 -1.62648e-07 0)
(0.16213 -1.59126e-07 0)
(0.16213 -1.56387e-07 0)
(0.162129 -1.49009e-07 0)
(0.162129 -1.35988e-07 0)
(0.162129 -1.13083e-07 0)
(0.162129 -8.18007e-08 0)
(0.162128 -5.15679e-08 0)
(0.162128 -4.27946e-08 0)
(0.162133 -8.4335e-07 0)
(0.162132 -7.49007e-07 0)
(0.162132 -6.03747e-07 0)
(0.162132 -4.20449e-07 0)
(0.162131 -2.35592e-07 0)
(0.162131 -5.74839e-08 0)
(0.162131 8.66657e-08 0)
(0.16213 1.85541e-07 0)
(0.16213 2.4702e-07 0)
(0.16213 2.76547e-07 0)
(0.16213 2.7525e-07 0)
(0.16213 2.51078e-07 0)
(0.16213 2.11853e-07 0)
(0.16213 1.6035e-07 0)
(0.16213 1.01033e-07 0)
(0.16213 3.65959e-08 0)
(0.16213 -3.44406e-08 0)
(0.16213 -1.11098e-07 0)
(0.16213 -1.88739e-07 0)
(0.16213 -2.62237e-07 0)
(0.16213 -3.25927e-07 0)
(0.16213 -3.74289e-07 0)
(0.16213 -4.03519e-07 0)
(0.16213 -4.10091e-07 0)
(0.16213 -3.89364e-07 0)
(0.16213 -3.36015e-07 0)
(0.16213 -2.46276e-07 0)
(0.16213 -1.21438e-07 0)
(0.16213 3.04784e-08 0)
(0.16213 1.9665e-07 0)
(0.16213 3.62049e-07 0)
(0.16213 5.10734e-07 0)
(0.16213 6.26288e-07 0)
(0.16213 6.92842e-07 0)
(0.16213 6.98142e-07 0)
(0.16213 6.37681e-07 0)
(0.16213 5.17074e-07 0)
(0.16213 3.50513e-07 0)
(0.16213 1.5689e-07 0)
(0.16213 -4.34562e-08 0)
(0.16213 -2.30477e-07 0)
(0.16213 -3.85994e-07 0)
(0.16213 -4.9595e-07 0)
(0.16213 -5.52402e-07 0)
(0.16213 -5.54312e-07 0)
(0.16213 -5.06625e-07 0)
(0.16213 -4.18471e-07 0)
(0.16213 -3.00501e-07 0)
(0.16213 -1.63006e-07 0)
(0.16213 -1.63015e-08 0)
(0.16213 1.27368e-07 0)
(0.16213 2.54724e-07 0)
(0.16213 3.53336e-07 0)
(0.16213 4.15336e-07 0)
(0.16213 4.38003e-07 0)
(0.16213 4.21615e-07 0)
(0.16213 3.6777e-07 0)
(0.16213 2.79732e-07 0)
(0.16213 1.62719e-07 0)
(0.16213 2.45332e-08 0)
(0.16213 -1.24488e-07 0)
(0.16213 -2.72202e-07 0)
(0.16213 -4.04812e-07 0)
(0.16213 -5.08669e-07 0)
(0.16213 -5.71806e-07 0)
(0.16213 -5.84395e-07 0)
(0.16213 -5.40493e-07 0)
(0.16213 -4.41156e-07 0)
(0.16213 -2.96701e-07 0)
(0.16213 -1.24638e-07 0)
(0.16213 5.46973e-08 0)
(0.16213 2.21487e-07 0)
(0.16213 3.58761e-07 0)
(0.16213 4.54793e-07 0)
(0.16213 5.04396e-07 0)
(0.16213 5.08808e-07 0)
(0.16213 4.74331e-07 0)
(0.16213 4.09461e-07 0)
(0.16213 3.23684e-07 0)
(0.16213 2.27098e-07 0)
(0.16213 1.2811e-07 0)
(0.16213 3.34351e-08 0)
(0.16213 -4.98378e-08 0)
(0.16213 -1.1643e-07 0)
(0.16213 -1.64852e-07 0)
(0.16213 -1.93774e-07 0)
(0.16213 -2.02615e-07 0)
(0.16213 -1.94704e-07 0)
(0.16213 -1.75394e-07 0)
(0.16213 -1.48997e-07 0)
(0.16213 -1.17636e-07 0)
(0.16213 -7.96587e-08 0)
(0.16213 -3.34747e-08 0)
(0.16213 1.82498e-08 0)
(0.162129 7.40667e-08 0)
(0.162129 1.34897e-07 0)
(0.162129 1.95394e-07 0)
(0.162129 2.39181e-07 0)
(0.162128 2.70394e-07 0)
(0.162128 2.80787e-07 0)
(0.149684 -4.1763e-07 0)
(0.149684 -3.14399e-07 0)
(0.149684 -1.71112e-07 0)
(0.149683 -6.37478e-09 0)
(0.149683 1.3267e-07 0)
(0.149683 2.40729e-07 0)
(0.149683 3.13382e-07 0)
(0.149683 3.48293e-07 0)
(0.149683 3.53542e-07 0)
(0.149683 3.35068e-07 0)
(0.149683 2.96785e-07 0)
(0.149683 2.48798e-07 0)
(0.149683 1.98141e-07 0)
(0.149683 1.43292e-07 0)
(0.149683 8.46539e-08 0)
(0.149683 2.52353e-08 0)
(0.149683 -3.48107e-08 0)
(0.149683 -9.55007e-08 0)
(0.149683 -1.54917e-07 0)
(0.149683 -2.11525e-07 0)
(0.149683 -2.62634e-07 0)
(0.149682 -3.03151e-07 0)
(0.149682 -3.28447e-07 0)
(0.149682 -3.35157e-07 0)
(0.149682 -3.19093e-07 0)
(0.149682 -2.75654e-07 0)
(0.149682 -2.02397e-07 0)
(0.149682 -1.0102e-07 0)
(0.149682 2.24194e-08 0)
(0.149682 1.5837e-07 0)
(0.149682 2.94774e-07 0)
(0.149682 4.17812e-07 0)
(0.149682 5.134e-07 0)
(0.149682 5.68905e-07 0)
(0.149683 5.74932e-07 0)
(0.149683 5.27591e-07 0)
(0.149683 4.30145e-07 0)
(0.149683 2.92942e-07 0)
(0.149683 1.31483e-07 0)
(0.149683 -3.60464e-08 0)
(0.149683 -1.91363e-07 0)
(0.149683 -3.18922e-07 0)
(0.149683 -4.08223e-07 0)
(0.149683 -4.5434e-07 0)
(0.149683 -4.57006e-07 0)
(0.149683 -4.19238e-07 0)
(0.149682 -3.46739e-07 0)
(0.149682 -2.4802e-07 0)
(0.149682 -1.33156e-07 0)
(0.149682 -1.22045e-08 0)
(0.149682 1.05485e-07 0)
(0.149682 2.10535e-07 0)
(0.149682 2.93298e-07 0)
(0.149682 3.45889e-07 0)
(0.149683 3.64603e-07 0)
(0.149683 3.49974e-07 0)
(0.149683 3.0449e-07 0)
(0.149683 2.3183e-07 0)
(0.149683 1.36365e-07 0)
(0.149683 2.36219e-08 0)
(0.149683 -9.91003e-08 0)
(0.149683 -2.22432e-07 0)
(0.149683 -3.34211e-07 0)
(0.149683 -4.21408e-07 0)
(0.149683 -4.73278e-07 0)
(0.149682 -4.82812e-07 0)
(0.149682 -4.46595e-07 0)
(0.149682 -3.65459e-07 0)
(0.149682 -2.4647e-07 0)
(0.149682 -1.0327e-07 0)
(0.149682 4.64724e-08 0)
(0.149682 1.84655e-07 0)
(0.149682 2.96477e-07 0)
(0.149682 3.73567e-07 0)
(0.149682 4.13784e-07 0)
(0.149682 4.18615e-07 0)
(0.149683 3.91792e-07 0)
(0.149683 3.39056e-07 0)
(0.149683 2.67855e-07 0)
(0.149683 1.87272e-07 0)
(0.149683 1.05146e-07 0)
(0.149683 2.62405e-08 0)
(0.149683 -4.41402e-08 0)
(0.149683 -9.98228e-08 0)
(0.149683 -1.38644e-07 0)
(0.149683 -1.61352e-07 0)
(0.149683 -1.68123e-07 0)
(0.149683 -1.59571e-07 0)
(0.149683 -1.36843e-07 0)
(0.149683 -1.01148e-07 0)
(0.149683 -5.52166e-08 0)
(0.149683 4.38477e-10 0)
(0.149682 6.84598e-08 0)
(0.149682 1.48725e-07 0)
(0.149682 2.38115e-07 0)
(0.149682 3.26801e-07 0)
(0.149682 4.09093e-07 0)
(0.149682 4.58736e-07 0)
(0.149682 4.80241e-07 0)
(0.149682 5.03765e-07 0)
(0.124508 -1.07889e-07 0)
(0.124508 -3.57817e-08 0)
(0.124507 7.85998e-08 0)
(0.124507 1.88439e-07 0)
(0.124507 2.64097e-07 0)
(0.124507 3.09227e-07 0)
(0.124507 3.29624e-07 0)
(0.124507 3.27278e-07 0)
(0.124507 3.05723e-07 0)
(0.124508 2.70673e-07 0)
(0.124508 2.27016e-07 0)
(0.124508 1.80165e-07 0)
(0.124508 1.3539e-07 0)
(0.124508 9.34153e-08 0)
(0.124508 5.29073e-08 0)
(0.124508 1.39122e-08 0)
(0.124508 -2.35926e-08 0)
(0.124508 -5.98095e-08 0)
(0.124508 -9.45009e-08 0)
(0.124508 -1.27838e-07 0)
(0.124508 -1.59696e-07 0)
(0.124508 -1.87571e-07 0)
(0.124508 -2.07263e-07 0)
(0.124507 -2.14207e-07 0)
(0.124507 -2.04187e-07 0)
(0.124507 -1.75203e-07 0)
(0.124507 -1.28182e-07 0)
(0.124507 -6.53576e-08 0)
(0.124507 1.06491e-08 0)
(0.124507 9.5753e-08 0)
(0.124507 1.83385e-07 0)
(0.124507 2.6422e-07 0)
(0.124507 3.27849e-07 0)
(0.124508 3.65175e-07 0)
(0.124508 3.70075e-07 0)
(0.124508 3.40277e-07 0)
(0.124508 2.77731e-07 0)
(0.124508 1.88679e-07 0)
(0.124509 8.3142e-08 0)
(0.124509 -2.63827e-08 0)
(0.124508 -1.27118e-07 0)
(0.124508 -2.08589e-07 0)
(0.124508 -2.64385e-07 0)
(0.124508 -2.92415e-07 0)
(0.124508 -2.93503e-07 0)
(0.124508 -2.69754e-07 0)
(0.124508 -2.23787e-07 0)
(0.124508 -1.59629e-07 0)
(0.124507 -8.37644e-08 0)
(0.124507 -4.15553e-09 0)
(0.124507 7.21002e-08 0)
(0.124508 1.39027e-07 0)
(0.124508 1.9175e-07 0)
(0.124508 2.25702e-07 0)
(0.124508 2.3785e-07 0)
(0.124508 2.27914e-07 0)
(0.124508 1.9798e-07 0)
(0.124508 1.50878e-07 0)
(0.124508 8.96878e-08 0)
(0.124508 1.76375e-08 0)
(0.124508 -6.13878e-08 0)
(0.124508 -1.41595e-07 0)
(0.124508 -2.15289e-07 0)
(0.124508 -2.73517e-07 0)
(0.124508 -3.08031e-07 0)
(0.124508 -3.13725e-07 0)
(0.124507 -2.89247e-07 0)
(0.124507 -2.36359e-07 0)
(0.124507 -1.59662e-07 0)
(0.124507 -6.73425e-08 0)
(0.124507 2.91827e-08 0)
(0.124507 1.17755e-07 0)
(0.124507 1.88833e-07 0)
(0.124507 2.37578e-07 0)
(0.124507 2.63037e-07 0)
(0.124508 2.66006e-07 0)
(0.124508 2.48603e-07 0)
(0.124508 2.1485e-07 0)
(0.124508 1.69433e-07 0)
(0.124508 1.17074e-07 0)
(0.124508 6.30775e-08 0)
(0.124508 1.17646e-08 0)
(0.124508 -3.34755e-08 0)
(0.124508 -6.9104e-08 0)
(0.124508 -9.3433e-08 0)
(0.124508 -1.06759e-07 0)
(0.124508 -1.09188e-07 0)
(0.124508 -1.02187e-07 0)
(0.124508 -8.64839e-08 0)
(0.124508 -5.9548e-08 0)
(0.124508 -1.99205e-08 0)
(0.124508 3.11511e-08 0)
(0.124508 9.37588e-08 0)
(0.124508 1.6832e-07 0)
(0.124508 2.48209e-07 0)
(0.124508 3.24075e-07 0)
(0.124508 3.90024e-07 0)
(0.124508 4.44457e-07 0)
(0.124508 4.70403e-07 0)
(0.124508 5.09749e-07 0)
(0.0860713 1.13329e-08 0)
(0.0860712 4.4059e-08 0)
(0.0860712 9.78824e-08 0)
(0.0860713 1.41082e-07 0)
(0.0860714 1.68456e-07 0)
(0.0860716 1.81634e-07 0)
(0.0860717 1.83112e-07 0)
(0.0860719 1.73184e-07 0)
(0.0860721 1.53134e-07 0)
(0.0860722 1.30102e-07 0)
(0.0860724 1.07342e-07 0)
(0.0860725 8.22639e-08 0)
(0.0860725 5.69821e-08 0)
(0.0860726 3.63383e-08 0)
(0.0860726 2.02139e-08 0)
(0.0860727 6.30516e-09 0)
(0.0860727 -6.94142e-09 0)
(0.0860726 -2.06803e-08 0)
(0.0860726 -3.4598e-08 0)
(0.0860726 -4.80116e-08 0)
(0.0860725 -6.12166e-08 0)
(0.0860724 -7.41734e-08 0)
(0.0860723 -8.4596e-08 0)
(0.0860722 -8.89666e-08 0)
(0.0860721 -8.50717e-08 0)
(0.086072 -7.30472e-08 0)
(0.0860719 -5.42453e-08 0)
(0.0860719 -2.95202e-08 0)
(0.0860718 8.58736e-10 0)
(0.0860719 3.60216e-08 0)
(0.0860719 7.33144e-08 0)
(0.0860721 1.08577e-07 0)
(0.0860722 1.36868e-07 0)
(0.0860724 1.53776e-07 0)
(0.0860726 1.56531e-07 0)
(0.0860728 1.44233e-07 0)
(0.0860729 1.17713e-07 0)
(0.086073 7.95525e-08 0)
(0.0860731 3.41023e-08 0)
(0.0860731 -1.30342e-08 0)
(0.0860731 -5.61901e-08 0)
(0.086073 -9.08043e-08 0)
(0.0860729 -1.13925e-07 0)
(0.0860728 -1.2458e-07 0)
(0.0860726 -1.23594e-07 0)
(0.0860725 -1.12621e-07 0)
(0.0860724 -9.31253e-08 0)
(0.0860723 -6.59988e-08 0)
(0.0860722 -3.30266e-08 0)
(0.0860722 2.21169e-09 0)
(0.0860722 3.52577e-08 0)
(0.0860723 6.28442e-08 0)
(0.0860723 8.36231e-08 0)
(0.0860724 9.68176e-08 0)
(0.0860725 1.0172e-07 0)
(0.0860726 9.78721e-08 0)
(0.0860728 8.58024e-08 0)
(0.0860728 6.60815e-08 0)
(0.0860729 3.94984e-08 0)
(0.0860729 7.60408e-09 0)
(0.0860729 -2.69628e-08 0)
(0.0860728 -6.10705e-08 0)
(0.0860727 -9.19678e-08 0)
(0.0860726 -1.16918e-07 0)
(0.0860725 -1.32383e-07 0)
(0.0860723 -1.35256e-07 0)
(0.0860722 -1.246e-07 0)
(0.086072 -1.01712e-07 0)
(0.0860719 -6.91004e-08 0)
(0.0860719 -3.04314e-08 0)
(0.0860719 9.52651e-09 0)
(0.0860719 4.62808e-08 0)
(0.086072 7.65974e-08 0)
(0.0860721 9.8092e-08 0)
(0.0860722 1.09121e-07 0)
(0.0860724 1.09403e-07 0)
(0.0860725 1.00715e-07 0)
(0.0860726 8.60506e-08 0)
(0.0860727 6.73251e-08 0)
(0.0860728 4.48672e-08 0)
(0.0860728 2.12303e-08 0)
(0.0860729 1.04522e-09 0)
(0.0860729 -1.46959e-08 0)
(0.0860729 -2.78742e-08 0)
(0.0860728 -3.89177e-08 0)
(0.0860728 -4.6004e-08 0)
(0.0860727 -4.69884e-08 0)
(0.0860727 -4.27537e-08 0)
(0.0860726 -3.67328e-08 0)
(0.0860726 -2.88764e-08 0)
(0.0860726 -1.26451e-08 0)
(0.0860726 1.59582e-08 0)
(0.0860726 5.03384e-08 0)
(0.0860727 8.8832e-08 0)
(0.0860728 1.24093e-07 0)
(0.0860729 1.62096e-07 0)
(0.0860731 1.96033e-07 0)
(0.0860733 2.31709e-07 0)
(0.0860735 2.65331e-07 0)
(0.0860738 3.25343e-07 0)
(0.0336422 8.02266e-09 0)
(0.0336422 1.71212e-08 0)
(0.0336422 2.88247e-08 0)
(0.0336423 3.53047e-08 0)
(0.0336424 3.91216e-08 0)
(0.0336425 4.13655e-08 0)
(0.0336426 4.18128e-08 0)
(0.0336427 3.84446e-08 0)
(0.0336428 3.12595e-08 0)
(0.0336429 2.46675e-08 0)
(0.0336429 2.05241e-08 0)
(0.033643 1.60203e-08 0)
(0.033643 1.02201e-08 0)
(0.033643 5.41842e-09 0)
(0.0336431 2.86598e-09 0)
(0.0336431 1.82426e-09 0)
(0.0336431 8.50457e-10 0)
(0.0336431 -1.23627e-09 0)
(0.0336431 -3.92348e-09 0)
(0.033643 -6.58565e-09 0)
(0.033643 -9.14413e-09 0)
(0.033643 -1.18422e-08 0)
(0.0336429 -1.42066e-08 0)
(0.0336429 -1.54355e-08 0)
(0.0336428 -1.53069e-08 0)
(0.0336428 -1.39832e-08 0)
(0.0336428 -1.13538e-08 0)
(0.0336427 -7.16139e-09 0)
(0.0336427 -1.56611e-09 0)
(0.0336427 5.01798e-09 0)
(0.0336428 1.19002e-08 0)
(0.0336428 1.85925e-08 0)
(0.0336429 2.43987e-08 0)
(0.033643 2.83471e-08 0)
(0.0336431 2.95334e-08 0)
(0.0336431 2.74871e-08 0)
(0.0336432 2.23355e-08 0)
(0.0336433 1.4785e-08 0)
(0.0336433 5.9294e-09 0)
(0.0336433 -3.06332e-09 0)
(0.0336433 -1.12344e-08 0)
(0.0336432 -1.78621e-08 0)
(0.0336432 -2.22818e-08 0)
(0.0336431 -2.39648e-08 0)
(0.0336431 -2.29626e-08 0)
(0.033643 -1.99928e-08 0)
(0.033643 -1.59354e-08 0)
(0.0336429 -1.09842e-08 0)
(0.0336429 -4.86238e-09 0)
(0.0336429 2.12813e-09 0)
(0.0336429 8.72015e-09 0)
(0.0336429 1.37082e-08 0)
(0.033643 1.68709e-08 0)
(0.033643 1.85789e-08 0)
(0.0336431 1.90782e-08 0)
(0.0336431 1.83311e-08 0)
(0.0336432 1.63742e-08 0)
(0.0336432 1.30272e-08 0)
(0.0336432 7.87557e-09 0)
(0.0336432 1.07157e-09 0)
(0.0336432 -6.21445e-09 0)
(0.0336432 -1.25873e-08 0)
(0.0336432 -1.76691e-08 0)
(0.0336431 -2.18801e-08 0)
(0.033643 -2.50045e-08 0)
(0.033643 -2.59556e-08 0)
(0.0336429 -2.40605e-08 0)
(0.0336428 -1.96646e-08 0)
(0.0336428 -1.35476e-08 0)
(0.0336428 -6.52629e-09 0)
(0.0336428 4.7416e-10 0)
(0.0336428 6.76198e-09 0)
(0.0336428 1.21088e-08 0)
(0.0336429 1.61981e-08 0)
(0.0336429 1.83638e-08 0)
(0.033643 1.82093e-08 0)
(0.0336431 1.62431e-08 0)
(0.0336431 1.34174e-08 0)
(0.0336431 1.01232e-08 0)
(0.0336432 6.1002e-09 0)
(0.0336432 1.83043e-09 0)
(0.0336432 -9.66034e-10 0)
(0.0336432 -2.17172e-09 0)
(0.0336432 -3.35754e-09 0)
(0.0336432 -5.71077e-09 0)
(0.0336432 -8.34879e-09 0)
(0.0336431 -9.21442e-09 0)
(0.0336431 -8.19454e-09 0)
(0.0336431 -7.65453e-09 0)
(0.0336431 -8.13682e-09 0)
(0.0336431 -5.47992e-09 0)
(0.0336431 1.45592e-09 0)
(0.0336431 8.59807e-09 0)
(0.0336431 1.36566e-08 0)
(0.0336432 1.91524e-08 0)
(0.0336432 2.73552e-08 0)
(0.0336433 3.69021e-08 0)
(0.0336434 4.63515e-08 0)
(0.0336436 6.22407e-08 0)
(0.0336438 9.54506e-08 0)
)
;

boundaryField
{
    inlet
    {
        type            zeroGradient;
    }
    outlet
    {
        type            zeroGradient;
    }
    walls
    {
        type            noSlip;
    }
    frontAndBack
    {
        type            empty;
    }
}


// ************************************************************************* //
