/*--------------------------------*- C++ -*----------------------------------*\
| =========                 |                                                 |
| \\      /  F ield         | OpenFOAM: The Open Source CFD Toolbox           |
|  \\    /   O peration     | Version:  2406                                  |
|   \\  /    A nd           | Website:  www.openfoam.com                      |
|    \\/     M anipulation  |                                                 |
\*---------------------------------------------------------------------------*/
FoamFile
{
    version     2.0;
    format      ascii;
    arch        "LSB;label=32;scalar=64";
    class       surfaceScalarField;
    location    "0.4";
    object      phi;
}
// * * * * * * * * * * * * * * * * * * * * * * * * * * * * * * * * * * * * * //

dimensions      [0 3 -1 0 0 0 0];

oriented        oriented;

internalField   nonuniform List<scalar> 
4335
(
2.03835e-05
-1.40307e-11
2.03835e-05
-1.36757e-11
2.03835e-05
-4.82667e-12
2.03835e-05
-2.05136e-13
2.03835e-05
-3.25315e-12
2.03835e-05
-1.00335e-11
2.03835e-05
-1.07187e-11
2.03835e-05
-6.64209e-12
2.03836e-05
-4.48898e-12
2.03836e-05
-1.10827e-11
2.03836e-05
-1.2554e-11
2.03836e-05
-6.57477e-12
2.03836e-05
-1.68919e-13
2.03836e-05
5.76525e-13
2.03836e-05
-1.46367e-12
2.03836e-05
-2.26198e-12
2.03836e-05
1.53984e-12
2.03836e-05
7.76839e-12
2.03836e-05
1.07557e-11
2.03836e-05
8.25878e-12
2.03836e-05
8.45351e-13
2.03836e-05
-6.43066e-12
2.03836e-05
-8.91092e-12
2.03836e-05
-6.61543e-12
2.03836e-05
-3.66714e-12
2.03836e-05
-3.36035e-12
2.03836e-05
-4.25063e-12
2.03836e-05
-3.6712e-12
2.03836e-05
-7.42215e-13
2.03836e-05
2.7157e-12
2.03836e-05
4.08108e-12
2.03836e-05
2.34236e-12
2.03836e-05
-4.98632e-13
2.03836e-05
-1.49782e-12
2.03836e-05
4.31508e-13
2.03836e-05
3.06932e-12
2.03836e-05
3.51304e-12
2.03837e-05
1.44e-12
2.03836e-05
-1.39162e-12
2.03836e-05
-3.34326e-12
2.03836e-05
-3.46608e-12
2.03836e-05
-2.24146e-12
2.03836e-05
-2.25019e-12
2.03836e-05
-4.47788e-12
2.03836e-05
-5.93252e-12
2.03836e-05
-4.21967e-12
2.03836e-05
-4.3444e-13
2.03837e-05
2.77505e-12
2.03837e-05
3.62071e-12
2.03837e-05
2.60526e-12
2.03836e-05
2.10366e-12
2.03836e-05
3.28331e-12
2.03836e-05
4.56382e-12
2.03836e-05
3.3733e-12
2.03836e-05
-8.86344e-13
2.03836e-05
-5.81985e-12
2.03837e-05
-7.93116e-12
2.03837e-05
-6.08934e-12
2.03837e-05
-2.88804e-12
2.03837e-05
-1.72549e-12
2.03837e-05
-3.12467e-12
2.03837e-05
-3.95237e-12
2.03837e-05
-1.5315e-12
2.03837e-05
3.23658e-12
2.03837e-05
6.89183e-12
2.03837e-05
6.78273e-12
2.03837e-05
4.06912e-12
2.03837e-05
2.38746e-12
2.03837e-05
4.06701e-12
2.03837e-05
7.58411e-12
2.03837e-05
9.29636e-12
2.03837e-05
7.49365e-12
2.03836e-05
4.08951e-12
2.03836e-05
2.28019e-12
2.03836e-05
3.07276e-12
2.03836e-05
4.38758e-12
2.03836e-05
3.44764e-12
2.03836e-05
3.00002e-13
2.03836e-05
-2.05695e-12
2.03836e-05
-8.17002e-13
2.03836e-05
3.451e-12
2.03836e-05
7.13128e-12
2.03836e-05
6.87016e-12
2.03836e-05
3.57765e-12
2.03836e-05
6.20104e-13
2.03836e-05
2.53017e-13
2.03836e-05
1.70718e-12
2.03836e-05
2.30131e-12
2.03836e-05
8.53369e-14
2.03836e-05
-3.46622e-12
2.03836e-05
-4.90846e-12
2.03836e-05
-3.44043e-12
2.03836e-05
-9.22546e-13
2.03836e-05
-4.60202e-13
2.03836e-05
-2.54746e-12
2.03836e-05
-4.73792e-12
2.03836e-05
-4.47011e-12
2.03836e-05
-1.86589e-12
2.03836e-05
4.50675e-13
2.03836e-05
1.02845e-13
2.03836e-05
-2.28826e-12
2.03836e-05
-3.80554e-12
2.03836e-05
-2.3506e-12
2.03836e-05
1.11476e-12
2.03836e-05
3.51405e-12
2.03836e-05
2.85235e-12
2.03836e-05
5.5744e-14
2.03836e-05
-1.58119e-12
2.03836e-05
-8.75991e-13
2.03836e-05
6.57077e-13
2.03836e-05
7.12927e-13
2.03836e-05
-1.28324e-12
2.03836e-05
-3.58258e-12
2.03836e-05
-4.04614e-12
2.03836e-05
-2.34145e-12
2.03836e-05
-2.59505e-13
2.03836e-05
1.34568e-13
2.03836e-05
-1.33938e-12
2.03836e-05
-2.13687e-12
2.03836e-05
-7.11382e-13
2.03836e-05
1.64452e-12
2.03836e-05
3.23181e-12
2.03836e-05
2.87581e-12
2.03836e-05
1.18777e-12
2.03836e-05
-2.90763e-13
2.03836e-05
-7.12013e-13
2.03836e-05
-4.31185e-13
2.03836e-05
-1.04226e-12
2.03836e-05
-3.2765e-12
2.03836e-05
-5.43387e-12
2.03836e-05
-5.79774e-12
2.03836e-05
-4.22279e-12
2.03836e-05
-2.04691e-12
2.03836e-05
-5.99814e-13
2.03836e-05
-1.21384e-12
2.03836e-05
-2.57505e-12
2.03836e-05
-3.42524e-12
2.03836e-05
-3.56805e-12
2.03836e-05
-3.12414e-12
2.03836e-05
-2.96103e-12
2.03836e-05
-2.90472e-12
2.03836e-05
-1.79771e-12
2.03836e-05
-2.53773e-13
2.03836e-05
7.71624e-13
2.03836e-05
1.75475e-12
2.03836e-05
2.38035e-12
2.03836e-05
2.42303e-12
2.03836e-05
2.99412e-12
2.03836e-05
4.23729e-12
5.1466e-12
5.56334e-05
-2.18715e-12
5.56334e-05
-2.05352e-11
5.56334e-05
-2.65713e-11
5.56334e-05
-2.73636e-11
5.56335e-05
-2.74085e-11
5.56335e-05
-2.67511e-11
5.56335e-05
-2.44594e-11
5.56335e-05
-2.75741e-11
5.56335e-05
-2.08041e-11
5.56335e-05
-1.48811e-11
5.56335e-05
-1.20991e-11
5.56335e-05
-1.06302e-11
5.56335e-05
-6.06325e-12
5.56335e-05
3.14137e-13
5.56335e-05
5.40961e-12
5.56335e-05
1.06103e-11
5.56335e-05
1.43265e-11
5.56335e-05
1.4392e-11
5.56335e-05
1.03206e-11
5.56335e-05
4.46243e-12
5.56335e-05
-2.05388e-12
5.56335e-05
-7.32954e-12
5.56335e-05
-7.80758e-12
5.56335e-05
-3.73513e-12
5.56335e-05
3.45477e-14
5.56335e-05
5.15905e-13
5.56335e-05
9.00947e-13
5.56335e-05
2.35158e-12
5.56335e-05
2.0344e-12
5.56335e-05
2.13903e-13
5.56335e-05
-4.52115e-14
5.56336e-05
1.97122e-12
5.56336e-05
3.6568e-12
5.56336e-05
3.05819e-12
5.56336e-05
1.74286e-12
5.56336e-05
1.20951e-12
5.56336e-05
1.91579e-13
5.56336e-05
-2.3e-12
5.56336e-05
-4.93683e-12
5.56336e-05
-6.38835e-12
5.56336e-05
-6.35973e-12
5.56336e-05
-4.50426e-12
5.56336e-05
-2.47129e-12
5.56336e-05
-3.06664e-12
5.56336e-05
-6.40104e-12
5.56336e-05
-8.63904e-12
5.56336e-05
-6.94687e-12
5.56336e-05
-1.36843e-12
5.56336e-05
5.05769e-12
5.56336e-05
8.1147e-12
5.56336e-05
6.86632e-12
5.56336e-05
3.28066e-12
5.56336e-05
3.38715e-13
5.56336e-05
-1.47865e-12
5.56336e-05
-4.10779e-12
5.56336e-05
-8.97408e-12
5.56336e-05
-1.45663e-11
5.56336e-05
-1.74662e-11
5.56336e-05
-1.56495e-11
5.56336e-05
-1.07332e-11
5.56336e-05
-6.04779e-12
5.56336e-05
-3.59218e-12
5.56336e-05
-1.57958e-12
5.56336e-05
2.20057e-12
5.56336e-05
8.16127e-12
5.56336e-05
1.36065e-11
5.56336e-05
1.50929e-11
5.56336e-05
1.2247e-11
5.56336e-05
8.15772e-12
5.56336e-05
6.33361e-12
5.56336e-05
7.30657e-12
5.56336e-05
8.37342e-12
5.56336e-05
7.22527e-12
5.56336e-05
4.1282e-12
5.56336e-05
1.67124e-12
5.56336e-05
1.68015e-12
5.56336e-05
3.31422e-12
5.56336e-05
4.54007e-12
5.56336e-05
4.06412e-12
5.56336e-05
3.59295e-12
5.56336e-05
5.33526e-12
5.56336e-05
9.11828e-12
5.56336e-05
1.20035e-11
5.56335e-05
1.09905e-11
5.56335e-05
5.89818e-12
5.56335e-05
-1.16533e-13
5.56335e-05
-3.34611e-12
5.56335e-05
-2.80191e-12
5.56335e-05
-1.51851e-12
5.56335e-05
-2.55564e-12
5.56335e-05
-6.02662e-12
5.56335e-05
-8.9859e-12
5.56335e-05
-8.71614e-12
5.56335e-05
-5.85532e-12
5.56335e-05
-3.40239e-12
5.56335e-05
-3.49307e-12
5.56335e-05
-5.35594e-12
5.56335e-05
-6.27521e-12
5.56335e-05
-4.54256e-12
5.56335e-05
-1.37286e-12
5.56335e-05
5.56716e-13
5.56335e-05
1.7395e-13
5.56335e-05
-8.34297e-13
5.56335e-05
1.79031e-13
5.56335e-05
3.87361e-12
5.56335e-05
7.41844e-12
5.56335e-05
7.93186e-12
5.56335e-05
5.13759e-12
5.56335e-05
1.61315e-12
5.56335e-05
-8.15939e-14
5.56335e-05
2.71524e-13
5.56335e-05
7.23573e-13
5.56335e-05
-5.08141e-13
5.56335e-05
-3.08327e-12
5.56335e-05
-4.86492e-12
5.56335e-05
-4.12861e-12
5.56335e-05
-1.45706e-12
5.56335e-05
5.77207e-13
5.56335e-05
6.50857e-13
5.56335e-05
-1.8188e-13
5.56335e-05
-2.92386e-13
5.56335e-05
8.54501e-13
5.56335e-05
2.00776e-12
5.56335e-05
1.55468e-12
5.56335e-05
-9.49537e-13
5.56335e-05
-4.27818e-12
5.56335e-05
-6.37083e-12
5.56335e-05
-6.30436e-12
5.56335e-05
-5.54426e-12
5.56335e-05
-5.7155e-12
5.56335e-05
-6.42817e-12
5.56335e-05
-6.58791e-12
5.56335e-05
-6.00329e-12
5.56335e-05
-4.88945e-12
5.56335e-05
-4.63771e-12
5.56335e-05
-5.66767e-12
5.56335e-05
-6.65736e-12
5.56335e-05
-6.91133e-12
5.56335e-05
-6.32685e-12
5.56335e-05
-5.57343e-12
5.56335e-05
-5.53686e-12
5.56335e-05
-5.45129e-12
5.56335e-05
-3.86788e-12
5.56335e-05
-1.51443e-12
5.56335e-05
7.82001e-13
5.56335e-05
4.09768e-12
5.56335e-05
5.99688e-12
5.56335e-05
7.69165e-12
5.56335e-05
8.79427e-12
8.72098e-12
8.53977e-05
5.80373e-12
8.53977e-05
-1.12543e-11
8.53977e-05
-1.93606e-11
8.53977e-05
-1.80744e-11
8.53977e-05
-1.86655e-11
8.53976e-05
-2.35251e-11
8.53976e-05
-1.38744e-11
8.53977e-05
-1.00011e-11
8.53977e-05
-5.68584e-12
8.53977e-05
-2.07386e-12
8.53976e-05
5.2156e-13
8.53976e-05
3.0713e-12
8.53976e-05
6.38715e-12
8.53976e-05
1.16684e-11
8.53976e-05
1.84472e-11
8.53976e-05
2.42689e-11
8.53976e-05
2.57061e-11
8.53976e-05
2.20926e-11
8.53976e-05
1.31557e-11
8.53976e-05
4.38398e-12
8.53976e-05
7.09236e-13
8.53976e-05
-1.20378e-13
8.53976e-05
-1.71997e-12
8.53976e-05
-3.10343e-12
8.53976e-05
-1.87861e-12
8.53976e-05
1.51215e-13
8.53976e-05
1.08325e-12
8.53976e-05
4.65281e-13
8.53976e-05
-1.46021e-12
8.53976e-05
-2.50815e-12
8.53976e-05
7.39251e-13
8.53976e-05
8.50145e-12
8.53976e-05
1.63811e-11
8.53976e-05
1.86579e-11
8.53976e-05
1.40696e-11
8.53976e-05
6.71185e-12
8.53976e-05
1.25822e-12
8.53976e-05
-1.03089e-12
8.53976e-05
-1.13584e-12
8.53976e-05
-8.44649e-13
8.53976e-05
-2.17684e-12
8.53976e-05
-5.23519e-12
8.53976e-05
-7.47299e-12
8.53976e-05
-8.07398e-12
8.53976e-05
-7.67149e-12
8.53976e-05
-6.28417e-12
8.53976e-05
-3.66996e-12
8.53976e-05
6.66269e-13
8.53976e-05
6.52579e-12
8.53976e-05
1.20284e-11
8.53976e-05
1.43726e-11
8.53976e-05
1.23919e-11
8.53976e-05
7.86003e-12
8.53976e-05
3.62312e-12
8.53976e-05
7.2367e-13
8.53976e-05
-2.05374e-12
8.53976e-05
-6.05958e-12
8.53976e-05
-1.09558e-11
8.53976e-05
-1.4553e-11
8.53976e-05
-1.46528e-11
8.53976e-05
-1.10469e-11
8.53976e-05
-5.76142e-12
8.53976e-05
-8.51951e-13
8.53977e-05
2.91004e-12
8.53977e-05
6.8228e-12
8.53977e-05
1.08118e-11
8.53976e-05
1.34489e-11
8.53976e-05
1.28218e-11
8.53976e-05
9.00115e-12
8.53976e-05
4.92558e-12
8.53976e-05
3.8976e-12
8.53976e-05
6.38621e-12
8.53976e-05
9.69565e-12
8.53976e-05
1.05189e-11
8.53976e-05
8.00258e-12
8.53976e-05
4.29192e-12
8.53976e-05
2.45993e-12
8.53976e-05
3.74159e-12
8.53976e-05
6.64995e-12
8.53976e-05
8.93434e-12
8.53976e-05
9.71224e-12
8.53976e-05
9.80747e-12
8.53976e-05
9.92009e-12
8.53976e-05
9.32834e-12
8.53976e-05
6.68349e-12
8.53976e-05
1.82153e-12
8.53976e-05
-3.34941e-12
8.53976e-05
-6.45386e-12
8.53976e-05
-6.57582e-12
8.53976e-05
-5.85165e-12
8.53976e-05
-6.7065e-12
8.53976e-05
-9.51983e-12
8.53976e-05
-1.20691e-11
8.53976e-05
-1.19269e-11
8.53976e-05
-9.01878e-12
8.53976e-05
-5.64653e-12
8.53976e-05
-4.13962e-12
8.53975e-05
-5.00074e-12
8.53975e-05
-6.35338e-12
8.53975e-05
-6.43562e-12
8.53975e-05
-5.20206e-12
8.53975e-05
-3.81527e-12
8.53975e-05
-3.25605e-12
8.53975e-05
-2.90853e-12
8.53975e-05
-1.12457e-12
8.53975e-05
1.95831e-12
8.53975e-05
4.41108e-12
8.53975e-05
3.91715e-12
8.53975e-05
3.40969e-13
8.53975e-05
-4.08298e-12
8.53975e-05
-6.71481e-12
8.53975e-05
-6.74364e-12
8.53975e-05
-5.64426e-12
8.53975e-05
-5.295e-12
8.53975e-05
-6.11763e-12
8.53975e-05
-6.84526e-12
8.53975e-05
-5.84406e-12
8.53975e-05
-3.37978e-12
8.53975e-05
-1.33657e-12
8.53976e-05
-7.00234e-13
8.53976e-05
-7.84883e-13
8.53976e-05
-4.03116e-13
8.53976e-05
7.29201e-13
8.53976e-05
1.7271e-12
8.53976e-05
1.53984e-12
8.53976e-05
-3.07707e-13
8.53976e-05
-3.15374e-12
8.53976e-05
-5.10039e-12
8.53976e-05
-5.2562e-12
8.53976e-05
-4.84179e-12
8.53976e-05
-4.7919e-12
8.53976e-05
-5.12042e-12
8.53976e-05
-5.63847e-12
8.53976e-05
-4.91611e-12
8.53976e-05
-3.08276e-12
8.53976e-05
-1.64451e-12
8.53976e-05
-1.43469e-12
8.53976e-05
-2.44292e-12
8.53976e-05
-5.01008e-12
8.53976e-05
-8.04893e-12
8.53976e-05
-8.27276e-12
8.53976e-05
-5.51984e-12
8.53976e-05
-2.08555e-12
8.53976e-05
1.56757e-12
8.53976e-05
4.55296e-12
8.53976e-05
6.44455e-12
8.53976e-05
5.49987e-12
8.53975e-05
4.37133e-12
8.53975e-05
6.13356e-12
5.95357e-12
0.000109705
2.30692e-11
0.000109705
1.74299e-11
0.000109705
9.93647e-12
0.000109705
7.87733e-12
0.000109705
1.06138e-11
0.000109705
5.37046e-12
0.000109705
6.18575e-12
0.000109705
1.20387e-11
0.000109705
1.8067e-11
0.000109705
2.21875e-11
0.000109705
2.50325e-11
0.000109705
2.90195e-11
0.000109705
3.375e-11
0.000109705
3.55391e-11
0.000109705
3.51742e-11
0.000109705
3.44049e-11
0.000109705
3.01716e-11
0.000109705
2.24446e-11
0.000109705
1.33315e-11
0.000109705
6.9837e-12
0.000109705
6.48853e-12
0.000109705
9.66764e-12
0.000109705
1.17282e-11
0.000109705
1.05439e-11
0.000109705
7.64927e-12
0.000109705
3.46355e-12
0.000109705
-2.43718e-13
0.000109705
2.97763e-14
0.000109705
3.56103e-12
0.000109705
6.62003e-12
0.000109705
6.99296e-12
0.000109705
6.02766e-12
0.000109705
5.83224e-12
0.000109705
5.93442e-12
0.000109705
3.80932e-12
0.000109705
-7.11104e-13
0.000109705
-4.24122e-12
0.000109705
-4.72559e-12
0.000109705
-3.40901e-12
0.000109705
-2.38593e-12
0.000109705
-3.5542e-12
0.000109705
-7.10196e-12
0.000109705
-1.01919e-11
0.000109705
-9.90052e-12
0.000109705
-5.97438e-12
0.000109705
-2.61364e-13
0.000109705
4.59971e-12
0.000109705
6.95016e-12
0.000109705
7.75649e-12
0.000109705
8.36217e-12
0.000109705
8.62013e-12
0.000109705
6.9327e-12
0.000109705
2.5801e-12
0.000109705
-3.06016e-12
0.000109705
-7.86243e-12
0.000109705
-1.10093e-11
0.000109705
-1.2941e-11
0.000109705
-1.49963e-11
0.000109705
-1.70114e-11
0.000109705
-1.75577e-11
0.000109705
-1.49633e-11
0.000109705
-9.27379e-12
0.000109705
-2.42356e-12
0.000109705
2.81071e-12
0.000109705
4.96741e-12
0.000109705
4.88134e-12
0.000109705
4.51858e-12
0.000109705
4.61946e-12
0.000109705
4.29749e-12
0.000109705
3.03847e-12
0.000109705
1.95245e-12
0.000109705
2.4981e-12
0.000109705
4.44159e-12
0.000109705
5.82682e-12
0.000109705
4.66653e-12
0.000109705
1.18301e-12
0.000109705
-1.86279e-12
0.000109705
-1.58382e-12
0.000109705
2.49433e-12
0.000109705
7.91316e-12
0.000109705
1.13506e-11
0.000109705
1.158e-11
0.000109705
9.90497e-12
0.000109705
8.51561e-12
0.000109705
8.16942e-12
0.000109705
7.75755e-12
0.000109705
6.00535e-12
0.000109705
3.074e-12
0.000109705
8.06947e-13
0.000109705
3.15395e-13
0.000109705
9.73897e-13
0.000109705
1.03459e-12
0.000109705
-3.28378e-13
0.000109705
-2.11855e-12
0.000109705
-2.85966e-12
0.000109705
-2.33481e-12
0.000109705
-2.03688e-12
0.000109705
-3.60939e-12
0.000109705
-6.93512e-12
0.000109705
-9.92211e-12
0.000109705
-1.01566e-11
0.000109705
-7.14837e-12
0.000109705
-2.59267e-12
0.000109705
1.17865e-12
0.000109705
3.13313e-12
0.000109705
3.50738e-12
0.000109705
3.40765e-12
0.000109705
2.71738e-12
0.000109705
1.07323e-12
0.000109705
-1.55758e-12
0.000109705
-4.18856e-12
0.000109705
-5.56309e-12
0.000109705
-5.39099e-12
0.000109705
-4.56604e-12
0.000109705
-4.3423e-12
0.000109705
-5.24988e-12
0.000109705
-6.24793e-12
0.000109705
-5.96898e-12
0.000109705
-4.43332e-12
0.000109705
-2.86338e-12
0.000109705
-2.07521e-12
0.000109705
-2.21954e-12
0.000109705
-2.81462e-12
0.000109705
-3.43856e-12
0.000109705
-3.87359e-12
0.000109705
-4.12587e-12
0.000109705
-4.75803e-12
0.000109705
-5.6505e-12
0.000109705
-5.6983e-12
0.000109705
-4.73863e-12
0.000109705
-3.44454e-12
0.000109705
-2.33313e-12
0.000109705
-1.59934e-12
0.000109705
-8.65051e-13
0.000109705
-3.99135e-13
0.000109705
-9.26961e-13
0.000109705
-2.61434e-12
0.000109705
-3.85208e-12
0.000109705
-3.89208e-12
0.000109705
-3.75412e-12
0.000109705
-2.52285e-12
0.000109705
-4.46328e-14
0.000109705
9.56005e-13
0.000109705
5.36011e-13
0.000109705
-1.06347e-12
0.000109705
-5.24362e-13
0.000109705
6.56684e-13
0.000109705
1.57843e-12
0.000109705
4.06474e-12
4.23786e-12
0.000128582
3.25057e-11
0.000128582
3.97038e-11
0.000128582
4.20984e-11
0.000128582
4.3704e-11
0.000128582
4.333e-11
0.000128582
4.47135e-11
0.000128582
4.71654e-11
0.000128582
5.34811e-11
0.000128582
5.70708e-11
0.000128582
5.78666e-11
0.000128582
5.47125e-11
0.000128582
5.12548e-11
0.000128582
5.23825e-11
0.000128582
5.61649e-11
0.000128582
5.68858e-11
0.000128582
5.33683e-11
0.000128582
4.59513e-11
0.000128582
3.86195e-11
0.000128582
3.51043e-11
0.000128582
3.32767e-11
0.000128582
2.95164e-11
0.000128582
2.43222e-11
0.000128582
1.9441e-11
0.000128582
1.46757e-11
0.000128582
1.08332e-11
0.000128582
8.06597e-12
0.000128582
5.86594e-12
0.000128582
3.70611e-12
0.000128582
2.42071e-12
0.000128582
2.05178e-12
0.000128582
2.04167e-12
0.000128582
1.93642e-12
0.000128582
2.01615e-12
0.000128582
3.18989e-12
0.000128582
4.33742e-12
0.000128582
2.38627e-12
0.000128582
-2.50771e-12
0.000128582
-6.75745e-12
0.000128582
-8.37679e-12
0.000128582
-7.43431e-12
0.000128582
-5.59563e-12
0.000128582
-4.40675e-12
0.000128582
-3.48323e-12
0.000128582
-1.55253e-12
0.000128582
1.53509e-12
0.000128582
4.95729e-12
0.000128582
7.27599e-12
0.000128582
6.99846e-12
0.000128582
4.15566e-12
0.000128582
1.21182e-12
0.000128582
-2.81815e-13
0.000128582
-1.03537e-12
0.000128582
-3.07848e-12
0.000128582
-6.93136e-12
0.000128582
-1.08948e-11
0.000128582
-1.29941e-11
0.000128582
-1.3003e-11
0.000128582
-1.21599e-11
0.000128582
-1.16609e-11
0.000128582
-1.15471e-11
0.000128582
-1.08774e-11
0.000128582
-8.89043e-12
0.000128582
-5.45379e-12
0.000128582
-1.87972e-12
0.000128582
1.00037e-13
0.000128582
5.67472e-14
0.000128582
-5.45721e-13
0.000128582
2.32718e-13
0.000128582
2.56881e-12
0.000128582
4.75765e-12
0.000128582
5.2636e-12
0.000128582
4.38181e-12
0.000128582
3.14488e-12
0.000128582
2.33067e-12
0.000128582
1.58507e-12
0.000128582
1.58823e-13
0.000128582
-1.59359e-12
0.000128582
-2.17714e-12
0.000128582
-4.2606e-13
0.000128582
3.19525e-12
0.000128582
6.66438e-12
0.000128582
8.09772e-12
0.000128582
7.35606e-12
0.000128582
5.81116e-12
0.000128582
5.03888e-12
0.000128582
5.34143e-12
0.000128582
5.83703e-12
0.000128582
5.00878e-12
0.000128582
3.32037e-12
0.000128582
2.21089e-12
0.000128582
2.39901e-12
0.000128582
2.99456e-12
0.000128582
2.37941e-12
0.000128582
-1.73455e-13
0.000128582
-3.66924e-12
0.000128582
-6.26987e-12
0.000128582
-7.27266e-12
0.000128582
-7.41711e-12
0.000128582
-7.71364e-12
0.000128582
-8.16881e-12
0.000128582
-7.65407e-12
0.000128582
-5.18305e-12
0.000128582
-1.24361e-12
0.000128582
2.21648e-12
0.000128582
3.57049e-12
0.000128582
2.70573e-12
0.000128582
1.20896e-12
0.000128582
4.16138e-13
0.000128582
5.67554e-13
0.000128582
7.54802e-13
0.000128582
3.861e-14
0.000128582
-1.5751e-12
0.000128582
-2.80771e-12
0.000128582
-3.03687e-12
0.000128582
-2.31699e-12
0.000128582
-2.0138e-12
0.000128582
-2.76369e-12
0.000128582
-3.76881e-12
0.000128582
-4.10135e-12
0.000128582
-3.68502e-12
0.000128582
-3.16508e-12
0.000128582
-3.2439e-12
0.000128582
-3.8306e-12
0.000128582
-4.36635e-12
0.000128582
-4.3431e-12
0.000128582
-3.16466e-12
0.000128582
-1.26869e-12
0.000128582
-7.99893e-14
0.000128582
6.3099e-14
0.000128582
-1.84753e-13
0.000128582
-4.82219e-13
0.000128582
-7.17459e-13
0.000128582
-8.35541e-13
0.000128582
-6.92384e-13
0.000128582
-3.85406e-13
0.000128582
2.84511e-13
0.000128582
8.83734e-13
0.000128582
2.70234e-13
0.000128582
-9.94142e-13
0.000128582
-2.09225e-12
0.000128582
-3.15342e-12
0.000128582
-3.93407e-12
0.000128582
-3.8432e-12
0.000128582
-2.00067e-12
0.000128582
4.46473e-13
0.000128582
1.9846e-13
0.000128582
1.25344e-13
0.000128582
-2.95502e-13
0.000128582
-2.81131e-13
4.09844e-13
0.00014205
5.80356e-11
0.00014205
7.1546e-11
0.00014205
7.82529e-11
0.00014205
8.14295e-11
0.00014205
8.93411e-11
0.00014205
9.36598e-11
0.00014205
9.29289e-11
0.00014205
9.579e-11
0.00014205
9.5467e-11
0.000142049
9.41333e-11
0.000142049
9.5079e-11
0.000142049
9.26674e-11
0.000142049
8.72562e-11
0.000142049
8.22212e-11
0.000142049
7.52918e-11
0.000142049
6.66002e-11
0.000142049
5.8443e-11
0.000142049
5.30111e-11
0.000142049
5.07279e-11
0.000142049
4.77886e-11
0.000142049
4.00691e-11
0.000142049
2.95255e-11
0.000142049
2.13233e-11
0.000142049
1.5978e-11
0.000142049
1.24952e-11
0.000142049
1.13382e-11
0.000142049
1.13882e-11
0.000142049
1.09464e-11
0.000142049
1.03643e-11
0.000142049
1.06214e-11
0.000142049
1.18629e-11
0.000142049
1.27349e-11
0.000142049
1.04987e-11
0.000142049
5.02751e-12
0.000142049
-4.11778e-13
0.000142049
-4.51487e-12
0.000142049
-8.64551e-12
0.000142049
-1.22917e-11
0.000142049
-1.41148e-11
0.000142049
-1.37238e-11
0.000142049
-1.15426e-11
0.000142049
-8.26855e-12
0.000142049
-4.37369e-12
0.000142049
8.37359e-16
0.000142049
3.91299e-12
0.000142049
6.84566e-12
0.000142049
9.02204e-12
0.000142049
1.00528e-11
0.000142049
9.0381e-12
0.000142049
5.97244e-12
0.000142049
2.46986e-12
0.000142049
3.38698e-13
0.000142049
-6.21223e-13
0.000142049
-2.06851e-12
0.000142049
-4.61786e-12
0.000142049
-7.24554e-12
0.000142049
-8.65366e-12
0.000142049
-8.67409e-12
0.000142049
-7.92911e-12
0.000142049
-6.97264e-12
0.000142049
-5.91379e-12
0.000142049
-4.59598e-12
0.000142049
-2.09587e-12
0.000142049
1.56786e-12
0.000142049
5.36992e-12
0.000142049
7.61233e-12
0.000142049
7.60083e-12
0.000142049
6.62674e-12
0.000142049
6.54717e-12
0.000142049
8.14891e-12
0.000142049
9.9469e-12
0.000142049
9.98962e-12
0.000142049
7.61487e-12
0.000142049
4.02265e-12
0.000142049
1.11786e-12
0.000142049
-2.47221e-13
0.000142049
-5.86852e-13
0.000142049
-5.60781e-13
0.000142049
-1.25051e-13
0.000142049
1.15658e-12
0.000142049
3.12682e-12
0.000142049
4.82446e-12
0.000142049
5.10219e-12
0.000142049
3.73761e-12
0.000142049
1.61925e-12
0.000142049
9.38906e-14
0.000142049
-2.26538e-13
0.000142049
-1.36082e-13
0.000142049
-6.41829e-13
0.000142049
-2.17656e-12
0.000142049
-3.83968e-12
0.000142049
-4.63052e-12
0.000142049
-4.52688e-12
0.000142049
-4.48316e-12
0.000142049
-5.06284e-12
0.000142049
-5.93198e-12
0.000142049
-6.26759e-12
0.000142049
-5.72582e-12
0.000142049
-4.59417e-12
0.000142049
-3.80302e-12
0.000142049
-3.77031e-12
0.000142049
-3.94292e-12
0.000142049
-3.43729e-12
0.000142049
-2.20657e-12
0.000142049
-1.24266e-12
0.000142049
-1.44855e-12
0.000142049
-2.54727e-12
0.000142049
-3.5261e-12
0.000142049
-3.44078e-12
0.000142049
-2.31058e-12
0.000142049
-1.18594e-12
0.000142049
-9.24741e-13
0.000142049
-1.34954e-12
0.000142049
-1.74303e-12
0.000142049
-1.55513e-12
0.000142049
-1.17471e-12
0.000142049
-1.69947e-12
0.000142049
-2.99388e-12
0.000142049
-3.68386e-12
0.000142049
-2.97763e-12
0.000142049
-1.22072e-12
0.000142049
3.65373e-13
0.000142049
7.53924e-13
0.000142049
-1.24871e-13
0.000142049
-1.75386e-12
0.000142049
-2.88405e-12
0.000142049
-2.62252e-12
0.000142049
-1.9181e-12
0.000142049
-2.17013e-12
0.000142049
-3.24172e-12
0.000142049
-4.06602e-12
0.000142049
-3.9165e-12
0.000142049
-3.14775e-12
0.000142049
-2.5649e-12
0.000142049
-2.63809e-12
0.000142049
-2.55377e-12
0.000142049
-1.5805e-12
0.000142049
-1.04051e-12
0.000142049
-5.86758e-13
0.000142049
1.27524e-12
0.000142049
3.35938e-12
0.000142049
4.39494e-12
0.000142049
4.04156e-12
0.000142049
7.41817e-13
0.000142049
-9.93828e-13
0.000142049
-1.65231e-12
0.000142049
8.81328e-14
0.000142049
2.39221e-12
0.000142049
3.87223e-13
-1.59702e-12
0.000150124
8.03189e-11
0.000150124
8.63096e-11
0.000150124
9.11849e-11
0.000150124
9.80989e-11
0.000150124
1.14217e-10
0.000150124
1.30209e-10
0.000150124
1.36326e-10
0.000150124
1.3946e-10
0.000150124
1.39185e-10
0.000150124
1.3521e-10
0.000150123
1.32903e-10
0.000150123
1.31686e-10
0.000150123
1.27002e-10
0.000150123
1.16829e-10
0.000150123
1.02486e-10
0.000150123
8.88135e-11
0.000150123
7.93762e-11
0.000150123
7.3025e-11
0.000150123
6.70487e-11
0.000150123
6.05637e-11
0.000150123
5.22441e-11
0.000150123
4.09965e-11
0.000150123
2.95175e-11
0.000150123
2.08256e-11
0.000150123
1.54775e-11
0.000150123
1.22192e-11
0.000150123
9.15865e-12
0.000150123
5.32636e-12
0.000150123
3.02687e-12
0.000150123
2.61112e-12
0.000150123
2.92557e-12
0.000150123
3.95363e-12
0.000150123
4.48445e-12
0.000150123
1.93401e-12
0.000150123
-2.27076e-12
0.000150123
-4.35473e-12
0.000150123
-4.11202e-12
0.000150123
-3.41693e-12
0.000150123
-3.54425e-12
0.000150123
-4.49652e-12
0.000150123
-5.28871e-12
0.000150123
-4.78327e-12
0.000150123
-3.14901e-12
0.000150123
-1.02791e-12
0.000150123
2.55764e-13
0.000150123
2.52408e-13
0.000150123
-5.24681e-13
0.000150123
-4.88969e-13
0.000150123
2.78652e-13
0.000150123
2.41942e-13
0.000150123
-1.66422e-12
0.000150123
-4.32215e-12
0.000150123
-5.56366e-12
0.000150123
-5.15554e-12
0.000150123
-4.33417e-12
0.000150123
-4.22506e-12
0.000150123
-4.71487e-12
0.000150123
-5.28362e-12
0.000150123
-5.24847e-12
0.000150123
-4.68093e-12
0.000150123
-3.78196e-12
0.000150123
-2.7486e-12
0.000150123
-1.58817e-12
0.000150123
-1.29579e-13
0.000150123
1.69994e-12
0.000150123
3.43715e-12
0.000150123
4.42242e-12
0.000150123
4.22521e-12
0.000150123
3.35041e-12
0.000150123
2.85045e-12
0.000150123
3.05653e-12
0.000150123
3.17706e-12
0.000150123
2.21216e-12
0.000150123
-1.69493e-13
0.000150123
-2.60349e-12
0.000150123
-3.50568e-12
0.000150123
-2.59549e-12
0.000150123
-9.91663e-13
0.000150123
-1.37906e-13
0.000150123
-2.83445e-13
0.000150123
-6.34296e-13
0.000150123
-2.91428e-13
0.000150123
6.2864e-13
0.000150123
1.26831e-12
0.000150123
1.07355e-12
0.000150123
2.81611e-13
0.000150123
-8.33062e-14
0.000150123
5.59033e-13
0.000150123
1.64635e-12
0.000150123
1.85686e-12
0.000150123
6.42864e-13
0.000150123
-1.16197e-12
0.000150123
-2.32987e-12
0.000150123
-2.37184e-12
0.000150123
-1.91784e-12
0.000150123
-1.9825e-12
0.000150123
-2.88176e-12
0.000150123
-4.09136e-12
0.000150123
-4.51663e-12
0.000150123
-3.70657e-12
0.000150123
-2.27571e-12
0.000150123
-1.15393e-12
0.000150123
-7.34929e-13
0.000150123
-4.96228e-13
0.000150123
-6.59647e-14
0.000150123
3.76074e-13
0.000150123
3.63141e-13
0.000150123
-3.59213e-13
0.000150123
-1.44732e-12
0.000150123
-2.16725e-12
0.000150123
-2.18637e-12
0.000150123
-1.80785e-12
0.000150123
-1.49444e-12
0.000150123
-1.80202e-12
0.000150123
-2.68578e-12
0.000150123
-3.26683e-12
0.000150123
-3.23502e-12
0.000150123
-2.91378e-12
0.000150123
-2.33801e-12
0.000150123
-1.41058e-12
0.000150123
-1.93491e-13
0.000150123
9.63971e-13
0.000150123
1.42867e-12
0.000150123
1.26925e-12
0.000150123
6.54363e-13
0.000150123
-5.86602e-13
0.000150123
-2.07638e-12
0.000150123
-2.90358e-12
0.000150123
-3.23875e-12
0.000150123
-3.32335e-12
0.000150123
-3.21125e-12
0.000150123
-2.72202e-12
0.000150123
-2.19564e-12
0.000150123
-1.81093e-12
0.000150123
-1.04494e-12
0.000150123
1.74777e-13
0.000150123
1.06333e-12
0.000150123
7.10109e-13
0.000150123
7.20908e-13
0.000150123
2.14231e-12
0.000150123
3.75718e-12
0.000150123
4.40367e-12
0.000150123
3.95666e-12
0.000150123
3.70453e-12
0.000150123
2.84958e-12
0.000150123
1.72128e-12
0.000150123
1.01331e-12
0.000150123
1.63262e-12
0.000150123
2.32027e-13
-1.1975e-12
0.000152814
8.25022e-11
0.000152814
8.61897e-11
0.000152814
1.05747e-10
0.000152814
1.22852e-10
0.000152814
1.39061e-10
0.000152814
1.57805e-10
0.000152814
1.71519e-10
0.000152814
1.77018e-10
0.000152814
1.77633e-10
0.000152814
1.74922e-10
0.000152814
1.69139e-10
0.000152814
1.59314e-10
0.000152814
1.44669e-10
0.000152814
1.2965e-10
0.000152814
1.18351e-10
0.000152814
1.0951e-10
0.000152814
1.01282e-10
0.000152814
9.26024e-11
0.000152814
8.06266e-11
0.000152814
6.61147e-11
0.000152814
5.39004e-11
0.000152814
4.54153e-11
0.000152814
3.88453e-11
0.000152814
3.20603e-11
0.000152814
2.40663e-11
0.000152814
1.55695e-11
0.000152814
6.80616e-12
0.000152814
-1.80259e-12
0.000152814
-7.50567e-12
0.000152814
-8.90149e-12
0.000152814
-8.39068e-12
0.000152814
-7.09827e-12
0.000152814
-3.96441e-12
0.000152814
-5.27201e-13
0.000152814
1.47267e-12
0.000152814
3.58557e-12
0.000152814
6.61061e-12
0.000152814
9.08251e-12
0.000152814
9.91226e-12
0.000152814
9.08194e-12
0.000152814
7.46931e-12
0.000152814
6.05252e-12
0.000152814
4.75994e-12
0.000152814
2.93461e-12
0.000152814
6.22287e-13
0.000152814
-1.83891e-12
0.000152814
-4.26444e-12
0.000152814
-6.39462e-12
0.000152814
-8.24558e-12
0.000152814
-1.01222e-11
0.000152814
-1.25769e-11
0.000152814
-1.53486e-11
0.000152814
-1.7055e-11
0.000152814
-1.63291e-11
0.000152814
-1.32526e-11
0.000152814
-9.44559e-12
0.000152814
-6.66201e-12
0.000152814
-5.07787e-12
0.000152814
-4.16828e-12
0.000152814
-3.59724e-12
0.000152814
-3.30826e-12
0.000152814
-3.59123e-12
0.000152814
-4.61998e-12
0.000152814
-6.08618e-12
0.000152814
-7.40291e-12
0.000152814
-7.88754e-12
0.000152814
-7.66038e-12
0.000152814
-7.42935e-12
0.000152814
-7.93036e-12
0.000152814
-9.02457e-12
0.000152814
-9.92821e-12
0.000152814
-1.00229e-11
0.000152814
-9.41845e-12
0.000152814
-8.69585e-12
0.000152814
-8.08485e-12
0.000152814
-7.37165e-12
0.000152814
-6.10633e-12
0.000152814
-4.29516e-12
0.000152814
-2.41131e-12
0.000152814
-1.30244e-12
0.000152814
-1.12574e-12
0.000152814
-1.24841e-12
0.000152814
-1.06087e-12
0.000152814
-5.15735e-13
0.000152814
1.644e-13
0.000152814
8.00358e-13
0.000152814
1.53899e-12
0.000152814
2.66757e-12
0.000152814
4.11176e-12
0.000152814
5.11206e-12
0.000152814
4.89911e-12
0.000152814
3.5342e-12
0.000152814
2.07087e-12
0.000152814
1.46241e-12
0.000152814
1.79217e-12
0.000152814
2.29774e-12
0.000152814
2.17757e-12
0.000152814
1.31214e-12
0.000152814
4.35354e-13
0.000152814
9.27611e-14
0.000152814
3.4862e-13
0.000152814
6.04454e-13
0.000152814
2.99225e-13
0.000152814
-4.06673e-13
0.000152814
-6.58546e-13
0.000152814
-1.81014e-13
0.000152814
6.86812e-13
0.000152814
1.33911e-12
0.000152814
1.37743e-12
0.000152814
1.18569e-12
0.000152814
1.36346e-12
0.000152814
2.11733e-12
0.000152814
3.13724e-12
0.000152814
3.56193e-12
0.000152814
2.7459e-12
0.000152814
1.42656e-12
0.000152814
8.83912e-13
0.000152814
1.25525e-12
0.000152814
1.96335e-12
0.000152814
2.45763e-12
0.000152814
2.45522e-12
0.000152814
2.09103e-12
0.000152814
1.44222e-12
0.000152814
1.05543e-12
0.000152814
1.50407e-12
0.000152814
2.00868e-12
0.000152814
1.97639e-12
0.000152814
1.85982e-12
0.000152814
1.80711e-12
0.000152814
1.59498e-12
0.000152814
1.3702e-12
0.000152814
2.12505e-12
0.000152814
3.67357e-12
0.000152814
4.72357e-12
0.000152814
5.10914e-12
0.000152814
5.11943e-12
0.000152814
4.46538e-12
0.000152814
2.62649e-12
0.000152814
1.25848e-12
0.000152814
2.07223e-12
0.000152814
3.73353e-12
0.000152814
5.00519e-12
0.000152814
4.24581e-12
0.000152814
3.70233e-12
0.000152814