/*--------------------------------*- C++ -*----------------------------------*\
| =========                 |                                                 |
| \\      /  F ield         | OpenFOAM: The Open Source CFD Toolbox           |
|  \\    /   O peration     | Version:  2406                                  |
|   \\  /    A nd           | Website:  www.openfoam.com                      |
|    \\/     M anipulation  |                                                 |
\*---------------------------------------------------------------------------*/
FoamFile
{
    version     2.0;
    format      ascii;
    arch        "LSB;label=32;scalar=64";
    class       surfaceScalarField;
    location    "0.5";
    object      phi;
}
// * * * * * * * * * * * * * * * * * * * * * * * * * * * * * * * * * * * * * //

dimensions      [0 3 -1 0 0 0 0];

oriented        oriented;

internalField   nonuniform List<scalar> 
4335
(
1.68951e-06
-1.91661e-12
1.68951e-06
-2.03867e-12
1.68951e-06
-1.34502e-12
1.68951e-06
-6.34999e-13
1.68951e-06
-1.5589e-12
1.68951e-06
-1.16377e-12
1.68951e-06
2.4174e-13
1.68951e-06
5.05929e-13
1.68951e-06
-1.14021e-14
1.68951e-06
-3.82843e-13
1.68951e-06
-1.65022e-13
1.68951e-06
6.52469e-14
1.68951e-06
-3.13714e-13
1.68951e-06
-7.46216e-13
1.68951e-06
-6.25498e-13
1.68951e-06
8.66451e-14
1.68951e-06
4.55007e-13
1.68951e-06
4.2066e-13
1.68951e-06
3.10068e-13
1.68951e-06
9.76951e-14
1.68951e-06
-8.11264e-14
1.68951e-06
-2.20553e-13
1.68951e-06
-3.1633e-13
1.68951e-06
-3.1311e-13
1.68951e-06
-2.49547e-13
1.68951e-06
-1.68472e-13
1.68951e-06
-1.36633e-13
1.68951e-06
-2.65301e-13
1.68951e-06
-3.59344e-13
1.68951e-06
-1.54815e-13
1.68951e-06
1.70178e-13
1.68951e-06
2.26492e-13
1.68951e-06
-1.99943e-14
1.68951e-06
-2.86212e-13
1.68951e-06
-2.70062e-13
1.68951e-06
-2.22688e-14
1.68951e-06
1.0499e-13
1.68951e-06
1.55593e-13
1.68951e-06
2.47781e-13
1.68951e-06
3.10044e-13
1.68951e-06
3.69557e-13
1.68951e-06
5.64681e-13
1.68951e-06
7.66541e-13
1.68951e-06
7.57132e-13
1.68951e-06
5.56787e-13
1.68951e-06
3.71792e-13
1.68951e-06
3.38323e-13
1.6895e-06
3.20729e-13
1.6895e-06
2.30936e-13
1.6895e-06
2.3527e-13
1.6895e-06
4.02608e-13
1.6895e-06
5.27812e-13
1.6895e-06
4.82358e-13
1.6895e-06
3.51794e-13
1.6895e-06
2.3998e-13
1.6895e-06
2.2047e-13
1.6895e-06
3.21272e-13
1.6895e-06
4.62195e-13
1.6895e-06
5.4509e-13
1.6895e-06
5.00369e-13
1.6895e-06
3.71975e-13
1.6895e-06
3.04183e-13
1.6895e-06
3.18446e-13
1.6895e-06
2.60123e-13
1.6895e-06
1.19684e-13
1.6895e-06
2.95736e-14
1.6895e-06
8.09956e-14
1.6895e-06
2.33257e-13
1.6895e-06
3.81506e-13
1.6895e-06
3.8357e-13
1.6895e-06
2.56017e-13
1.6895e-06
9.55204e-14
1.68951e-06
-3.33709e-14
1.68951e-06
-7.78135e-14
1.68951e-06
-3.91223e-14
1.68951e-06
-1.21579e-14
1.68951e-06
-3.93276e-14
1.68951e-06
-3.25795e-14
1.68951e-06
4.59351e-14
1.68951e-06
1.36252e-13
1.68951e-06
1.62252e-13
1.68951e-06
1.15835e-13
1.68951e-06
1.93293e-14
1.68951e-06
-1.29147e-13
1.68951e-06
-3.07785e-13
1.68951e-06
-4.37389e-13
1.68951e-06
-4.7129e-13
1.68951e-06
-4.15194e-13
1.68951e-06
-3.00073e-13
1.68951e-06
-1.63064e-13
1.68951e-06
-4.83918e-14
1.68951e-06
3.43164e-14
1.68951e-06
8.42848e-14
1.68951e-06
8.38483e-14
1.68951e-06
1.47249e-14
1.68951e-06
-1.1252e-13
1.68951e-06
-2.10364e-13
1.68951e-06
-2.15069e-13
1.68951e-06
-1.26551e-13
1.68951e-06
-3.39131e-15
1.68951e-06
5.88981e-14
1.68951e-06
-9.99806e-15
1.68951e-06
-9.72754e-14
1.68951e-06
-4.34933e-14
1.68951e-06
9.6515e-14
1.68951e-06
1.7865e-13
1.68951e-06
1.61948e-13
1.68951e-06
6.47693e-14
1.68951e-06
-5.67642e-14
1.68951e-06
-1.39286e-13
1.68951e-06
-1.50492e-13
1.68951e-06
-1.17111e-13
1.68951e-06
-1.18226e-13
1.68951e-06
-1.43759e-13
1.68951e-06
-6.46082e-14
1.68951e-06
8.41623e-14
1.68951e-06
1.16461e-13
1.68951e-06
2.08921e-14
1.68951e-06
-6.77643e-14
1.68951e-06
-8.46558e-14
1.68951e-06
-7.56145e-15
1.68951e-06
1.48338e-13
1.68951e-06
2.86419e-13
1.68951e-06
3.34535e-13
1.68951e-06
3.05483e-13
1.68951e-06
2.57295e-13
1.68951e-06
2.58751e-13
1.68951e-06
3.05887e-13
1.68951e-06
2.73014e-13
1.68951e-06
1.36926e-13
1.68951e-06
-1.26398e-14
1.68951e-06
-6.16159e-14
1.68951e-06
-4.65605e-15
1.68951e-06
7.25512e-15
1.68951e-06
-1.3242e-13
1.68951e-06
-3.2713e-13
1.68951e-06
-4.01377e-13
1.68951e-06
-3.67867e-13
1.68951e-06
-2.52592e-13
1.68951e-06
-8.1214e-14
1.68951e-06
-5.53416e-14
1.68951e-06
-1.01344e-13
1.68951e-06
-2.51368e-14
1.68951e-06
1.24518e-13
1.68951e-06
2.38837e-13
1.68951e-06
3.59619e-13
1.68951e-06
6.25456e-13
1.68951e-06
1.08305e-12
1.68951e-06
1.67718e-12
1.72146e-12
4.6154e-06
-3.22734e-12
4.61541e-06
-3.37968e-12
4.61541e-06
-3.94203e-12
4.61541e-06
-3.14512e-12
4.61541e-06
-2.15804e-12
4.61541e-06
-1.51608e-12
4.61541e-06
-1.37939e-12
4.61541e-06
-1.31962e-12
4.61541e-06
-2.92454e-13
4.61541e-06
7.19038e-13
4.61541e-06
6.82882e-13
4.61541e-06
1.77273e-13
4.61541e-06
-3.71635e-13
4.61541e-06
-4.35862e-13
4.61541e-06
6.80043e-14
4.61541e-06
7.19126e-13
4.61541e-06
7.07635e-13
4.61541e-06
-3.67611e-15
4.61541e-06
-5.28423e-13
4.61541e-06
-4.11077e-13
4.61541e-06
-9.46255e-14
4.61541e-06
-9.31185e-14
4.61541e-06
-3.84597e-13
4.61541e-06
-5.95062e-13
4.61541e-06
-5.73659e-13
4.61541e-06
-4.0065e-13
4.61541e-06
-1.42583e-13
4.61541e-06
-6.97031e-14
4.61541e-06
-3.44943e-13
4.61541e-06
-5.8636e-13
4.61541e-06
-4.1694e-13
4.61541e-06
4.42746e-14
4.61541e-06
3.87639e-13
4.61541e-06
3.28522e-13
4.61541e-06
1.2329e-13
4.61541e-06
1.6276e-13
4.61541e-06
3.98864e-13
4.61541e-06
6.02029e-13
4.61541e-06
7.81908e-13
4.61541e-06
8.78743e-13
4.61541e-06
8.71276e-13
4.61541e-06
9.46887e-13
4.61541e-06
1.14057e-12
4.61541e-06
1.20374e-12
4.6154e-06
9.538e-13
4.6154e-06
5.22434e-13
4.6154e-06
2.90146e-13
4.6154e-06
4.1096e-13
4.6154e-06
6.17634e-13
4.6154e-06
7.49571e-13
4.6154e-06
8.7637e-13
4.6154e-06
9.83794e-13
4.6154e-06
9.58696e-13
4.6154e-06
8.14365e-13
4.6154e-06
6.21344e-13
4.6154e-06
4.26169e-13
4.6154e-06
3.03985e-13
4.6154e-06
2.78534e-13
4.6154e-06
3.22961e-13
4.6154e-06
3.69952e-13
4.6154e-06
3.15855e-13
4.6154e-06
2.05597e-13
4.6154e-06
1.87034e-13
4.6154e-06
2.22644e-13
4.6154e-06
1.55003e-13
4.6154e-06
-4.95473e-14
4.6154e-06
-3.00614e-13
4.6154e-06
-4.66744e-13
4.6154e-06
-4.66921e-13
4.6154e-06
-3.51156e-13
4.6154e-06
-2.0239e-13
4.6154e-06
-6.94233e-14
4.6154e-06
-9.6019e-15
4.6154e-06
-2.20096e-14
4.6154e-06
-3.49045e-14
4.6154e-06
-6.29674e-14
4.6154e-06
-1.87903e-13
4.6154e-06
-3.93964e-13
4.61541e-06
-5.89843e-13
4.61541e-06
-7.01988e-13
4.61541e-06
-7.16762e-13
4.61541e-06
-6.6698e-13
4.61541e-06
-5.82227e-13
4.61541e-06
-5.18721e-13
4.61541e-06
-5.44888e-13
4.61541e-06
-6.32532e-13
4.61541e-06
-7.42411e-13
4.61541e-06
-8.04352e-13
4.61541e-06
-8.1386e-13
4.61541e-06
-7.79721e-13
4.61541e-06
-7.13675e-13
4.61541e-06
-6.18012e-13
4.61541e-06
-5.11643e-13
4.61541e-06
-3.98553e-13
4.61541e-06
-3.08434e-13
4.61541e-06
-2.79156e-13
4.61541e-06
-3.03258e-13
4.61541e-06
-3.20758e-13
4.61541e-06
-2.97514e-13
4.61541e-06
-2.4123e-13
4.61541e-06
-1.71555e-13
4.61541e-06
-1.66204e-13
4.61541e-06
-2.48214e-13
4.61541e-06
-2.61427e-13
4.61541e-06
-1.243e-13
4.61541e-06
5.53969e-14
4.61541e-06
1.92756e-13
4.61541e-06
2.03599e-13
4.61541e-06
1.09065e-13
4.61541e-06
-2.23086e-14
4.61541e-06
-1.32394e-13
4.61541e-06
-1.73199e-13
4.61541e-06
-1.8591e-13
4.61541e-06
-2.78306e-13
4.61541e-06
-3.67331e-13
4.61541e-06
-2.7997e-13
4.61541e-06
-1.092e-13
4.61541e-06
-2.95113e-14
4.61541e-06
-1.06429e-14
4.61541e-06
2.57142e-14
4.61541e-06
7.7906e-14
4.61541e-06
1.51468e-13
4.61541e-06
2.40886e-13
4.61541e-06
3.35188e-13
4.61541e-06
4.04539e-13
4.61541e-06
3.7754e-13
4.61541e-06
2.8464e-13
4.61541e-06
2.20819e-13
4.61541e-06
1.98779e-13
4.61541e-06
1.73641e-13
4.61541e-06
1.45527e-13
4.61541e-06
1.41096e-13
4.61541e-06
1.55526e-13
4.61541e-06
1.52126e-13
4.61541e-06
2.29629e-14
4.61541e-06
-2.68566e-13
4.61541e-06
-4.83986e-13
4.61541e-06
-5.40305e-13
4.61541e-06
-5.16301e-13
4.61541e-06
-2.59261e-13
4.61541e-06
1.47858e-13
4.61541e-06
4.02627e-13
4.61541e-06
4.6627e-13
4.61541e-06
6.57943e-13
4.61541e-06
1.21618e-12
4.61541e-06
1.88929e-12
4.6154e-06
2.54372e-12
4.6154e-06
3.50133e-12
4.6154e-06
4.1281e-12
4.12531e-12
7.08917e-06
-4.41534e-12
7.08917e-06
-5.57785e-12
7.08917e-06
-4.80924e-12
7.08918e-06
-2.73089e-12
7.08918e-06
-1.69948e-12
7.08918e-06
-1.91067e-12
7.08918e-06
-1.46503e-12
7.08918e-06
-3.90835e-13
7.08918e-06
1.1101e-13
7.08918e-06
7.92989e-14
7.08918e-06
-1.72562e-13
7.08918e-06
-1.89977e-13
7.08918e-06
1.50807e-13
7.08918e-06
3.16481e-13
7.08918e-06
5.88008e-13
7.08918e-06
9.25915e-13
7.08918e-06
8.03546e-13
7.08918e-06
2.18985e-13
7.08918e-06
-3.0196e-13
7.08918e-06
-4.22539e-13
7.08918e-06
-2.49069e-13
7.08918e-06
-1.30304e-13
7.08918e-06
-2.15623e-13
7.08918e-06
-3.72663e-13
7.08917e-06
-5.13429e-13
7.08917e-06
-6.35261e-13
7.08917e-06
-5.40491e-13
7.08917e-06
-1.79606e-13
7.08917e-06
7.99071e-14
7.08917e-06
4.32041e-14
7.08917e-06
-1.63342e-14
7.08917e-06
1.60107e-13
7.08917e-06
4.87394e-13
7.08917e-06
6.27742e-13
7.08917e-06
5.34133e-13
7.08917e-06
5.44235e-13
7.08917e-06
7.45005e-13
7.08917e-06
8.75414e-13
7.08917e-06
8.9954e-13
7.08917e-06
8.86549e-13
7.08917e-06
7.82405e-13
7.08917e-06
6.53728e-13
7.08917e-06
6.79284e-13
7.08917e-06
8.71776e-13
7.08917e-06
1.01365e-12
7.08917e-06
8.59208e-13
7.08917e-06
4.90791e-13
7.08917e-06
2.54959e-13
7.08917e-06
2.28216e-13
7.08917e-06
2.4222e-13
7.08917e-06
2.81665e-13
7.08917e-06
3.84172e-13
7.08917e-06
4.73688e-13
7.08917e-06
4.95809e-13
7.08917e-06
4.72263e-13
7.08917e-06
3.66765e-13
7.08917e-06
1.5629e-13
7.08917e-06
-1.17527e-13
7.08917e-06
-3.36818e-13
7.08917e-06
-3.81271e-13
7.08917e-06
-3.48287e-13
7.08917e-06
-4.1864e-13
7.08917e-06
-5.68277e-13
7.08917e-06
-6.79046e-13
7.08917e-06
-7.29428e-13
7.08917e-06
-7.15234e-13
7.08917e-06
-6.42215e-13
7.08917e-06
-5.4004e-13
7.08917e-06
-4.34184e-13
7.08917e-06
-3.64537e-13
7.08917e-06
-3.4284e-13
7.08917e-06
-3.26311e-13
7.08917e-06
-3.08525e-13
7.08917e-06
-3.20551e-13
7.08917e-06
-3.2584e-13
7.08917e-06
-2.89093e-13
7.08917e-06
-2.49619e-13
7.08917e-06
-2.53283e-13
7.08917e-06
-2.86492e-13
7.08917e-06
-3.81247e-13
7.08917e-06
-5.44676e-13
7.08917e-06
-7.5888e-13
7.08917e-06
-9.33323e-13
7.08917e-06
-9.79673e-13
7.08917e-06
-9.44225e-13
7.08917e-06
-9.2754e-13
7.08917e-06
-9.59247e-13
7.08917e-06
-9.88052e-13
7.08917e-06
-9.57209e-13
7.08917e-06
-8.50535e-13
7.08918e-06
-7.29515e-13
7.08918e-06
-6.52494e-13
7.08918e-06
-6.34739e-13
7.08918e-06
-6.17639e-13
7.08918e-06
-5.16931e-13
7.08918e-06
-3.38836e-13
7.08918e-06
-1.98055e-13
7.08918e-06
-1.7811e-13
7.08917e-06
-2.47403e-13
7.08917e-06
-3.28232e-13
7.08917e-06
-2.883e-13
7.08917e-06
-1.195e-13
7.08917e-06
2.58158e-14
7.08917e-06
5.34554e-14
7.08917e-06
2.06493e-14
7.08917e-06
-2.99045e-14
7.08917e-06
-5.63097e-14
7.08917e-06
-8.88686e-14
7.08917e-06
-1.68534e-13
7.08917e-06
-2.7926e-13
7.08917e-06
-3.77191e-13
7.08917e-06
-3.84941e-13
7.08917e-06
-2.81544e-13
7.08917e-06
-2.2395e-13
7.08917e-06
-3.49906e-13
7.08917e-06
-4.87812e-13
7.08917e-06
-4.42955e-13
7.08917e-06
-2.69098e-13
7.08917e-06
-7.54251e-14
7.08917e-06
6.94577e-14
7.08917e-06
1.2918e-13
7.08917e-06
1.35155e-13
7.08917e-06
1.38604e-13
7.08917e-06
1.75636e-13
7.08917e-06
2.27981e-13
7.08917e-06
2.27846e-13
7.08917e-06
1.5113e-13
7.08917e-06
8.66299e-14
7.08917e-06
1.46533e-13
7.08917e-06
2.66069e-13
7.08917e-06
2.95318e-13
7.08917e-06
2.43001e-13
7.08917e-06
2.02113e-13
7.08917e-06
2.02316e-13
7.08917e-06
1.73948e-13
7.08917e-06
8.38642e-14
7.08917e-06
1.18152e-13
7.08917e-06
2.80951e-13
7.08917e-06
2.98693e-13
7.08917e-06
2.64817e-13
7.08917e-06
4.7603e-13
7.08917e-06
8.41402e-13
7.08917e-06
1.27635e-12
7.08917e-06
1.91788e-12
7.08917e-06
2.75775e-12
7.08917e-06
3.56091e-12
7.08917e-06
4.29108e-12
7.08916e-06
5.15155e-12
7.08916e-06
5.87243e-12
5.87256e-12
9.11174e-06
-3.68392e-12
9.11174e-06
-3.4524e-12
9.11174e-06
-3.49114e-12
9.11174e-06
-3.64241e-12
9.11174e-06
-2.76937e-12
9.11174e-06
-1.13334e-12
9.11174e-06
-3.03006e-13
9.11174e-06
1.6699e-14
9.11174e-06
3.06905e-13
9.11174e-06
3.91187e-13
9.11174e-06
5.68567e-13
9.11174e-06
7.22503e-13
9.11174e-06
8.26856e-13
9.11174e-06
8.9855e-13
9.11174e-06
5.48967e-13
9.11174e-06
-7.51129e-14
9.11173e-06
-2.27965e-13
9.11173e-06
3.01067e-14
9.11174e-06
2.24102e-13
9.11174e-06
2.67017e-13
9.11174e-06
2.60248e-13
9.11174e-06
9.47168e-14
9.11174e-06
-3.40781e-13
9.11173e-06
-7.47849e-13
9.11173e-06
-8.14781e-13
9.11173e-06
-7.17318e-13
9.11173e-06
-6.42106e-13
9.11173e-06
-4.33146e-13
9.11173e-06
-2.30883e-14
9.11173e-06
2.88953e-13
9.11173e-06
2.6763e-13
9.11173e-06
-4.71165e-14
9.11173e-06
-2.5789e-13
9.11173e-06
-1.16306e-13
9.11173e-06
1.84784e-13
9.11173e-06
5.32323e-13
9.11173e-06
7.50443e-13
9.11173e-06
6.90493e-13
9.11173e-06
4.94063e-13
9.11173e-06
4.18512e-13
9.11173e-06
4.2349e-13
9.11173e-06
3.31743e-13
9.11173e-06
1.38694e-13
9.11173e-06
-1.07425e-14
9.11173e-06
5.6095e-14
9.11173e-06
2.25287e-13
9.11173e-06
2.52261e-13
9.11173e-06
1.39003e-13
9.11173e-06
2.27042e-14
9.11173e-06
-8.90135e-14
9.11173e-06
-1.4742e-13
9.11173e-06
-4.78163e-14
9.11173e-06
1.43393e-13
9.11173e-06
2.63686e-13
9.11173e-06
2.90604e-13
9.11173e-06
2.78424e-13
9.11173e-06
3.05702e-13
9.11173e-06
3.35569e-13
9.11173e-06
2.67922e-13
9.11173e-06
1.42626e-13
9.11173e-06
3.64224e-14
9.11173e-06
-7.9157e-14
9.11173e-06
-2.05658e-13
9.11173e-06
-2.91883e-13
9.11173e-06
-3.16361e-13
9.11173e-06
-2.67175e-13
9.11173e-06
-1.21593e-13
9.11173e-06
8.90767e-14
9.11173e-06
3.04381e-13
9.11173e-06
4.49649e-13
9.11173e-06
4.43344e-13
9.11173e-06
3.26585e-13
9.11173e-06
2.10219e-13
9.11173e-06
1.29449e-13
9.11173e-06
8.63964e-14
9.11173e-06
9.47159e-14
9.11174e-06
1.17876e-13
9.11174e-06
9.33751e-14
9.11174e-06
-4.18592e-15
9.11174e-06
-1.53336e-13
9.11174e-06
-3.13968e-13
9.11174e-06
-4.90027e-13
9.11174e-06
-6.81035e-13
9.11174e-06
-8.27815e-13
9.11174e-06
-8.709e-13
9.11174e-06
-8.47394e-13
9.11174e-06
-8.26988e-13
9.11174e-06
-8.49527e-13
9.11174e-06
-8.84226e-13
9.11174e-06
-8.57586e-13
9.11174e-06
-7.30215e-13
9.11174e-06
-5.62185e-13
9.11174e-06
-4.42048e-13
9.11174e-06
-4.31445e-13
9.11174e-06
-4.9604e-13
9.11174e-06
-5.45847e-13
9.11174e-06
-5.46904e-13
9.11174e-06
-5.16097e-13
9.11174e-06
-4.91305e-13
9.11173e-06
-5.06438e-13
9.11173e-06
-4.94074e-13
9.11173e-06
-3.50516e-13
9.11173e-06
-1.62976e-13
9.11173e-06
-6.49648e-14
9.11173e-06
-8.9647e-14
9.11173e-06
-1.90814e-13
9.11173e-06
-2.78147e-13
9.11173e-06
-2.98284e-13
9.11173e-06
-2.40561e-13
9.11173e-06
-1.53077e-13
9.11173e-06
-1.10166e-13
9.11173e-06
-1.40395e-13
9.11173e-06
-1.10809e-13
9.11173e-06
4.35203e-14
9.11173e-06
1.77073e-13
9.11173e-06
2.12044e-13
9.11173e-06
2.37152e-13
9.11173e-06
2.99297e-13
9.11173e-06
3.78826e-13
9.11173e-06
4.40886e-13
9.11173e-06
4.55948e-13
9.11173e-06
4.39395e-13
9.11173e-06
4.06494e-13
9.11173e-06
3.6291e-13
9.11173e-06
3.80178e-13
9.11173e-06
4.75897e-13
9.11173e-06
5.41401e-13
9.11173e-06
5.15074e-13
9.11173e-06
4.72454e-13
9.11173e-06
4.58775e-13
9.11173e-06
4.32214e-13
9.11173e-06
3.85948e-13
9.11173e-06
3.47098e-13
9.11173e-06
3.54252e-13
9.11173e-06
4.1122e-13
9.11173e-06
4.20586e-13
9.11173e-06
3.84506e-13
9.11173e-06
4.28662e-13
9.11173e-06
5.15143e-13
9.11173e-06
6.41828e-13
9.11173e-06
8.94301e-13
9.11173e-06
1.23595e-12
9.11173e-06
1.69949e-12
9.11173e-06
2.36405e-12
9.11173e-06
3.19012e-12
9.11173e-06
4.26653e-12
9.11173e-06
5.4584e-12
9.11173e-06
6.24518e-12
9.11173e-06
6.39421e-12
6.05576e-12
1.06839e-05
-1.91999e-12
1.06839e-05
-2.88499e-12
1.06839e-05
-2.68863e-12
1.06839e-05
-1.33267e-12
1.06839e-05
-5.15935e-13
1.06839e-05
3.33381e-13
1.06839e-05
4.90694e-13
1.06839e-05
1.16339e-13
1.06839e-05
2.40287e-13
1.06839e-05
6.81074e-13
1.06839e-05
7.63257e-13
1.06839e-05
7.49943e-13
1.06839e-05
6.03645e-13
1.06839e-05
2.49013e-13
1.06839e-05
-9.41544e-14
1.06839e-05
-1.51943e-13
1.06839e-05
1.21356e-13
1.06839e-05
5.05668e-13
1.06839e-05
6.10244e-13
1.06839e-05
3.4853e-13
1.06839e-05
-3.27271e-14
1.06839e-05
-3.54638e-13
1.06839e-05
-5.89953e-13
1.06839e-05
-6.96509e-13
1.06839e-05
-6.38943e-13
1.06839e-05
-5.92082e-13
1.06839e-05
-6.62573e-13
1.06839e-05
-5.78554e-13
1.06839e-05
-1.97443e-13
1.06839e-05
1.91467e-13
1.06839e-05
3.23432e-13
1.06839e-05
2.05966e-13
1.06839e-05
1.30247e-13
1.06839e-05
2.94464e-13
1.06839e-05
4.97111e-13
1.06839e-05
5.82842e-13
1.06839e-05
6.20401e-13
1.06839e-05
5.83962e-13
1.06839e-05
4.52641e-13
1.06839e-05
3.50634e-13
1.06839e-05
3.42198e-13
1.06839e-05
3.53012e-13
1.06839e-05
2.3359e-13
1.06839e-05
-2.51225e-14
1.06839e-05
-2.11706e-13
1.06839e-05
-2.18819e-13
1.06839e-05
-2.03419e-13
1.06839e-05
-2.62101e-13
1.06839e-05
-3.02219e-13
1.06839e-05
-2.92749e-13
1.06839e-05
-2.56286e-13
1.06839e-05
-1.38467e-13
1.06839e-05
5.97966e-14
1.06839e-05
1.88601e-13
1.06839e-05
1.69733e-13
1.06839e-05
7.3201e-15
1.06839e-05
-1.62519e-13
1.06839e-05
-2.00848e-13
1.06839e-05
-2.05675e-13
1.06839e-05
-3.01133e-13
1.06839e-05
-4.82848e-13
1.06839e-05
-7.06588e-13
1.06839e-05
-8.98106e-13
1.06839e-05
-9.34839e-13
1.06839e-05
-8.23138e-13
1.06839e-05
-6.86984e-13
1.06839e-05
-6.17782e-13
1.06839e-05
-6.14681e-13
1.06839e-05
-5.9218e-13
1.06839e-05
-4.77989e-13
1.06839e-05
-3.22657e-13
1.06839e-05
-2.2495e-13
1.06839e-05
-1.91518e-13
1.06839e-05
-1.80551e-13
1.06839e-05
-1.72291e-13
1.06839e-05
-1.59989e-13
1.06839e-05
-1.84558e-13
1.06839e-05
-2.75856e-13
1.06839e-05
-4.26157e-13
1.06839e-05
-5.91199e-13
1.06839e-05
-6.77749e-13
1.06839e-05
-6.99086e-13
1.06839e-05
-7.25637e-13
1.06839e-05
-8.32893e-13
1.06839e-05
-9.63807e-13
1.06839e-05
-1.01995e-12
1.06839e-05
-9.51256e-13
1.06839e-05
-8.17445e-13
1.06839e-05
-7.20757e-13
1.06839e-05
-6.98376e-13
1.06839e-05
-6.9169e-13
1.06839e-05
-6.21116e-13
1.06839e-05
-4.79347e-13
1.06839e-05
-3.55789e-13
1.06839e-05
-3.31658e-13
1.06839e-05
-3.58181e-13
1.06839e-05
-3.28751e-13
1.06839e-05
-1.89269e-13
1.06839e-05
1.39034e-14
1.06839e-05
1.56318e-13
1.06839e-05
1.21935e-13
1.06839e-05
8.68696e-15
1.06839e-05
-4.57294e-14
1.06839e-05
-1.00163e-14
1.06839e-05
4.00998e-14
1.06839e-05
1.1114e-14
1.06839e-05
-9.5875e-14
1.06839e-05
-1.75646e-13
1.06839e-05
-1.57028e-13
1.06839e-05
-5.74716e-14
1.06839e-05
3.31275e-14
1.06839e-05
-2.44792e-14
1.06839e-05
-1.94817e-13
1.06839e-05
-2.61035e-13
1.06839e-05
-2.16425e-13
1.06839e-05
-1.93375e-13
1.06839e-05
-2.40922e-13
1.06839e-05
-3.14461e-13
1.06839e-05
-3.37658e-13
1.06839e-05
-2.94885e-13
1.06839e-05
-2.04219e-13
1.06839e-05
-1.25597e-13
1.06839e-05
-1.06131e-13
1.06839e-05
-1.58729e-13
1.06839e-05
-1.8442e-13
1.06839e-05
-1.01145e-13
1.06839e-05
-6.97014e-15
1.06839e-05
-5.89864e-16
1.06839e-05
1.02398e-15
1.06839e-05
9.30168e-14
1.06839e-05
2.27544e-13
1.06839e-05
3.51334e-13
1.06839e-05
3.93045e-13
1.06839e-05
3.72018e-13
1.06839e-05
4.50019e-13
1.06839e-05
6.04212e-13
1.06839e-05
6.31194e-13
1.06839e-05
6.13771e-13
1.06839e-05
7.7817e-13
1.06839e-05
1.12781e-12
1.06839e-05
1.52999e-12
1.06839e-05
2.01552e-12
1.06839e-05
2.67364e-12
1.06839e-05
3.33937e-12
1.06839e-05
3.79911e-12
1.06839e-05
4.69533e-12
1.06839e-05
5.78537e-12
1.06839e-05
6.5261e-12
1.06839e-05
6.65136e-12
6.00342e-12
1.18064e-05
5.40295e-13
1.18064e-05
2.29353e-13
1.18064e-05
6.64408e-13
1.18064e-05
1.26201e-12
1.18064e-05
1.36025e-12
1.18064e-05
1.54692e-12
1.18064e-05
1.83617e-12
1.18064e-05
1.97517e-12
1.18064e-05
1.52016e-12
1.18064e-05
1.30265e-12
1.18064e-05
1.47519e-12
1.18064e-05
1.29588e-12
1.18064e-05
8.49487e-13
1.18064e-05
5.40313e-13
1.18064e-05
4.84314e-13
1.18064e-05
5.5766e-13
1.18064e-05
5.66709e-13
1.18064e-05
5.84956e-13
1.18064e-05
6.13225e-13
1.18064e-05
4.23077e-13
1.18064e-05
-2.70323e-14
1.18064e-05
-4.13477e-13
1.18064e-05
-5.41138e-13
1.18064e-05
-5.81886e-13
1.18064e-05
-5.80051e-13
1.18064e-05
-4.95421e-13
1.18064e-05
-4.20805e-13
1.18064e-05
-3.78945e-13
1.18064e-05
-3.19593e-13
1.18064e-05
-2.5335e-13
1.18064e-05
-1.94077e-13
1.18064e-05
-1.16634e-13
1.18064e-05
-9.57977e-15
1.18064e-05
1.4859e-13
1.18064e-05
2.35541e-13
1.18064e-05
1.4993e-13
1.18064e-05
9.91947e-14
1.18064e-05
2.03731e-13
1.18064e-05
2.70926e-13
1.18064e-05
1.97048e-13
1.18064e-05
8.64951e-14
1.18064e-05
6.1328e-14
1.18064e-05
1.19894e-13
1.18064e-05
9.71753e-14
1.18064e-05
-1.02731e-13
1.18064e-05
-3.59483e-13
1.18064e-05
-5.71336e-13
1.18064e-05
-6.85552e-13
1.18064e-05
-5.68935e-13
1.18064e-05
-2.36734e-13
1.18064e-05
5.32792e-14
1.18064e-05
1.55272e-13
1.18064e-05
1.48318e-13
1.18064e-05
1.66805e-13
1.18064e-05
2.61596e-13
1.18064e-05
3.19236e-13
1.18064e-05
2.25928e-13
1.18064e-05
4.28737e-14
1.18064e-05
-1.31171e-13
1.18064e-05
-2.49002e-13
1.18064e-05
-2.62918e-13
1.18064e-05
-2.43018e-13
1.18064e-05
-3.46835e-13
1.18064e-05
-5.39348e-13
1.18064e-05
-6.28618e-13
1.18064e-05
-5.25075e-13
1.18064e-05
-3.07055e-13
1.18064e-05
-1.54955e-13
1.18064e-05
-1.81537e-13
1.18064e-05
-3.06383e-13
1.18064e-05
-3.68252e-13
1.18064e-05
-2.74568e-13
1.18064e-05
-3.17788e-14
1.18064e-05
2.28325e-13
1.18064e-05
3.58242e-13
1.18064e-05
3.48756e-13
1.18064e-05
2.77848e-13
1.18064e-05
1.81561e-13
1.18064e-05
3.64291e-14
1.18064e-05
-1.78942e-13
1.18064e-05
-3.98663e-13
1.18064e-05
-5.02763e-13
1.18064e-05
-4.77352e-13
1.18064e-05
-4.35957e-13
1.18064e-05
-4.86335e-13
1.18064e-05
-6.12946e-13
1.18064e-05
-7.33983e-13
1.18064e-05
-7.20113e-13
1.18064e-05
-5.81786e-13
1.18064e-05
-4.30791e-13
1.18064e-05
-3.87951e-13
1.18064e-05
-4.77539e-13
1.18064e-05
-5.84696e-13
1.18064e-05
-5.92804e-13
1.18064e-05
-5.2094e-13
1.18064e-05
-4.67469e-13
1.18064e-05
-4.82652e-13
1.18064e-05
-5.31868e-13
1.18064e-05
-5.14089e-13
1.18064e-05
-3.97973e-13
1.18064e-05
-3.05304e-13
1.18064e-05
-3.41195e-13
1.18064e-05
-4.83892e-13
1.18064e-05
-6.291e-13
1.18064e-05
-6.45077e-13
1.18064e-05
-5.157e-13
1.18064e-05
-3.54832e-13
1.18064e-05
-2.50343e-13
1.18064e-05
-2.1846e-13
1.18064e-05
-1.87447e-13
1.18064e-05
-4.13136e-14
1.18064e-05
1.85754e-13
1.18064e-05
3.09888e-13
1.18064e-05
3.24767e-13
1.18064e-05
3.41709e-13
1.18064e-05
3.81549e-13
1.18064e-05
4.00946e-13
1.18064e-05
3.71572e-13
1.18064e-05
3.09597e-13
1.18064e-05
2.55987e-13
1.18064e-05
2.11457e-13
1.18064e-05
1.95817e-13
1.18064e-05
2.44411e-13
1.18064e-05
2.72368e-13
1.18064e-05
1.87992e-13
1.18064e-05
7.68931e-14
1.18064e-05
6.40482e-14
1.18064e-05
1.09429e-13
1.18064e-05
1.26575e-13
1.18064e-05
1.63368e-13
1.18064e-05
2.9693e-13
1.18064e-05
5.02744e-13
1.18064e-05
6.65706e-13
1.18064e-05
6.96773e-13
1.18064e-05
7.11762e-13
1.18064e-05
7.81813e-13
1.18064e-05
7.78033e-13
1.18064e-05
7.10994e-13
1.18064e-05
7.49648e-13
1.18064e-05
9.04636e-13
1.18064e-05
1.15867e-12
1.18064e-05
1.65112e-12
1.18064e-05
2.38991e-12
1.18064e-05
3.25923e-12
1.18064e-05
3.97414e-12
1.18064e-05
4.504e-12
1.18064e-05
5.24759e-12
1.18064e-05
5.84019e-12
1.18064e-05
5.88436e-12
5.43883e-12
1.24797e-05
2.88086e-12
1.24797e-05
3.3218e-12
1.24797e-05
3.80422e-12
1.24797e-05
3.89178e-12
1.24797e-05
3.82614e-12
1.24797e-05
3.70049e-12
1.24797e-05
3.18304e-12
1.24797e-05
2.81418e-12
1.24797e-05
2.47553e-12
1.24797e-05
2.22817e-12
1.24797e-05
1.87074e-12
1.24797e-05
1.19318e-12
1.24797e-05
6.43788e-13
1.24797e-05
6.2094e-13
1.24797e-05
1.04424e-12
1.24797e-05
1.34198e-12
1.24797e-05
1.06563e-12
1.24797e-05
5.27226e-13
1.24797e-05
2.58936e-13
1.24797e-05
2.83946e-13
1.24797e-05
2.73309e-13
1.24797e-05
8.66634e-14
1.24797e-05
-2.45493e-13
1.24797e-05
-7.09838e-13
1.24797e-05
-1.00549e-12
1.24797e-05
-8.08638e-13
1.24797e-05
-3.52758e-13
1.24797e-05
-1.37429e-13
1.24797e-05
-2.3585e-13
1.24797e-05
-3.48999e-13
1.24797e-05
-2.39064e-13
1.24797e-05
-3.38039e-14
1.24797e-05
-2.93113e-14
1.24797e-05
-1.51404e-13
1.24797e-05
-1.48478e-13
1.24797e-05
-2.42662e-14
1.24797e-05
1.27638e-13
1.24797e-05
2.9623e-13
1.24797e-05
4.15407e-13
1.24797e-05
4.24386e-13
1.24797e-05
3.22457e-13
1.24797e-05
1.32944e-13
1.24797e-05
-6.45903e-14
1.24797e-05
-2.08689e-13
1.24797e-05
-3.12442e-13
1.24797e-05
-3.06755e-13
1.24797e-05
-1.87958e-13
1.24797e-05
-1.59827e-13
1.24797e-05
-2.69055e-13
1.24797e-05
-3.19379e-13
1.24797e-05
-2.36322e-13
1.24797e-05
-1.26538e-13
1.24797e-05
-9.25945e-14
1.24797e-05
-1.4388e-13
1.24797e-05
-1.78051e-13
1.24797e-05
-1.26974e-13
1.24797e-05
-4.55091e-14
1.24797e-05
-1.68564e-14
1.24797e-05
-9.43618e-14
1.24797e-05
-3.21127e-13
1.24797e-05
-5.68068e-13
1.24797e-05
-6.50507e-13
1.24797e-05
-5.92373e-13
1.24797e-05
-5.72274e-13
1.24797e-05
-6.67493e-13
1.24797e-05
-7.91205e-13
1.24797e-05
-8.0335e-13
1.24797e-05
-6.47541e-13
1.24797e-05
-4.07893e-13
1.24797e-05
-2.22209e-13
1.24797e-05
-1.51798e-13
1.24797e-05
-1.70635e-13
1.24797e-05
-1.48976e-13
1.24797e-05
6.73937e-15
1.24797e-05
2.07878e-13
1.24797e-05
3.17066e-13
1.24797e-05
2.9144e-13
1.24797e-05
1.78923e-13
1.24797e-05
5.94717e-14
1.24797e-05
-5.53745e-14
1.24797e-05
-2.1808e-13
1.24797e-05
-4.08617e-13
1.24797e-05
-5.48741e-13
1.24797e-05
-5.90289e-13
1.24797e-05
-5.75657e-13
1.24797e-05
-5.89904e-13
1.24797e-05
-6.59689e-13
1.24797e-05
-7.25954e-13
1.24797e-05
-7.17387e-13
1.24797e-05
-6.28551e-13
1.24797e-05
-4.88928e-13
1.24797e-05
-3.90894e-13
1.24797e-05
-3.50737e-13
1.24797e-05
-2.87908e-13
1.24797e-05
-1.54866e-13
1.24797e-05
-6.02915e-15
1.24797e-05
6.90499e-14
1.24797e-05
1.64118e-14
1.24797e-05
-9.74404e-14
1.24797e-05
-1.71679e-13
1.24797e-05
-1.67177e-13
1.24797e-05
-1.53606e-13
1.24797e-05
-1.9788e-13
1.24797e-05
-3.32483e-13
1.24797e-05
-4.67824e-13
1.24797e-05
-4.97763e-13
1.24797e-05
-4.35327e-13
1.24797e-05
-3.42268e-13
1.24797e-05
-2.73057e-13
1.24797e-05
-2.73281e-13
1.24797e-05
-2.65804e-13
1.24797e-05
-1.59357e-13
1.24797e-05
-6.42347e-14
1.24797e-05
-6.67327e-14
1.24797e-05
-1.17715e-13
1.24797e-05
-1.14062e-13
1.24797e-05
-4.41924e-14
1.24797e-05
3.38475e-14
1.24797e-05
8.66571e-14
1.24797e-05
1.29124e-13
1.24797e-05
1.18008e-13
1.24797e-05
1.99808e-14
1.24797e-05
-6.13672e-14
1.24797e-05
-9.3225e-14
1.24797e-05
-1.95917e-13
1.24797e-05
-3.1877e-13
1.24797e-05
-2.30359e-13
1.24797e-05
7.35689e-14
1.24797e-05
3.09491e-13
1.24797e-05
3.36748e-13
1.24797e-05
2.96151e-13
1.24797e-05
3.36839e-13
1.24797e-05
5.00719e-13
1.24797e-05
6.93212e-13
1.24797e-05
7.86101e-13
1.24797e-05
7.67051e-13
1.24797e-05
7.26361e-13
1.24797e-05
8.28875e-13
1.24797e-05
1.05081e-12
1.24797e-05
1.21632e-12
1.24797e-05
1.41998e-12
1.24797e-05
1.86321e-12
1.24797e-05
2.2508e-12
1.24797e-05
2.54545e-12
1.24797e-05
3.40382e-12
1.24797e-05
4.04539e-12
1.24797e-05
4.22883e-12
1.24797e-05
4.39617e-12
1.24797e-05
4.28109e-12
4.32934e-12
1.27041e-05
5.32215e-12
1.27041e-05
5.53164e-12
1.27041e-05
5.7742e-12
1.27041e-05
5.76421e-12
1.27041e-05
5.29453e-12
1.27041e-05
4.28785e-12
1.27041e-05
3.75773e-12
1.27041e-05
3.42125e-12
1.27041e-05
2.55904e-12
1.27041e-05
1.75228e-12
1.27041e-05
1.35586e-12
1.27041e-05
1.15654e-12
1.27041e-05
9.48893e-13
1.27041e-05
8.02223e-13
1.27041e-05
8.19617e-13
1.27041e-05
8.85046e-13
1.27041e-05
7.34283e-13
1.27041e-05
3.27314e-13
1.27041e-05
-4.78361e-14
1.27041e-05
-1.63926e-13
1.27041e-05
-1.38168e-13
1.27041e-05
-1.77745e-13
1.2704e-05
-3.36812e-13
1.2704e-05
-6.57337e-13
1.2704e-05
-1.0544e-12
1.2704e-05
-1.22887e-12
1.2704e-05
-1.02467e-12
1.2704e-05
-6.61829e-13
1.2704e-05
-3.81889e-13
1.2704e-05
-3.28902e-13
1.2704e-05
-4.07167e-13
1.2704e-05
-4.50931e-13
1.2704e-05
-4.74839e-13
1.2704e-05
-4.71528e-13
1.2704e-05
-3.43776e-13
1.2704e-05
-1.6269e-13
1.2704e-05
-4.02065e-14
1.2704e-05
5.669e-14
1.2704e-05
1.21307e-13
1.2704e-05
6.51561e-14
1.2704e-05
-1.35291e-13
1.2704e-05
-4.03385e-13
1.2704e-05
-6.10148e-13
1.2704e-05
-6.9285e-13
1.2704e-05
-7.39263e-13
1.2704e-05
-7.5042e-13
1.2704e-05
-5.90463e-13
1.2704e-05
-3.27695e-13
1.2704e-05
-1.67126e-13
1.2704e-05
-1.53451e-13
1.2704e-05
-1.89087e-13
1.2704e-05
-1.6668e-13
1.2704e-05
-4.89109e-14
1.2704e-05
8.88987e-14
1.2704e-05
1.77742e-13
1.2704e-05
2.12561e-13
1.27041e-05
1.95814e-13
1.27041e-05
1.95668e-13
1.27041e-05
2.46474e-13
1.27041e-05
2.30094e-13
1.27041e-05
8.75772e-15
1.27041e-05
-2.98512e-13
1.27041e-05
-4.93838e-13
1.27041e-05
-5.34345e-13
1.27041e-05
-4.78525e-13
1.27041e-05
-4.57302e-13
1.27041e-05
-4.99364e-13
1.27041e-05
-5.6046e-13
1.27041e-05
-5.45627e-13
1.27041e-05
-4.13121e-13
1.27041e-05
-2.14455e-13
1.27041e-05
-7.56411e-14
1.27041e-05
-4.88951e-14
1.27041e-05
-3.47641e-14
1.27041e-05
3.03985e-14
1.27041e-05
1.31034e-13
1.27041e-05
2.38746e-13
1.27041e-05
2.8006e-13
1.27041e-05
2.6896e-13
1.27041e-05
2.59671e-13
1.27041e-05
2.34971e-13
1.27041e-05
1.25264e-13
1.27041e-05
-7.84108e-14
1.27041e-05
-2.92415e-13
1.27041e-05
-3.94495e-13
1.27041e-05
-3.5036e-13
1.27041e-05
-2.43932e-13
1.27041e-05
-1.78484e-13
1.27041e-05
-1.96204e-13
1.27041e-05
-2.43267e-13
1.27041e-05
-2.06531e-13
1.27041e-05
-6.92278e-14
1.27041e-05
5.74132e-14
1.27041e-05
9.36663e-14
1.27041e-05
6.38604e-14
1.27041e-05
4.27577e-14
1.27041e-05
8.6278e-14
1.27041e-05
1.47733e-13
1.27041e-05
1.24658e-13
1.2704e-05
1.00778e-14
1.2704e-05
-1.16022e-13
1.2704e-05
-1.52872e-13
1.2704e-05
-7.58893e-14
1.2704e-05
2.32531e-14
1.2704e-05
4.6682e-14
1.2704e-05
1.74198e-14
1.2704e-05
-2.12023e-15
1.2704e-05
4.14782e-14
1.2704e-05
1.70588e-13
1.2704e-05
2.68796e-13
1.2704e-05
2.51011e-13
1.2704e-05
2.03068e-13
1.2704e-05
2.18999e-13
1.2704e-05
2.49924e-13
1.2704e-05
2.27726e-13
1.2704e-05
1.71915e-13
1.2704e-05
1.49967e-13
1.2704e-05
1.86585e-13
1.2704e-05
2.32959e-13
1.2704e-05
2.78616e-13
1.2704e-05
2.54637e-13
1.2704e-05
7.20939e-14
1.2704e-05
-1.94716e-13
1.2704e-05
-3.59976e-13
1.2704e-05
-3.71635e-13
1.2704e-05
-3.06442e-13
1.2704e-05
-1.89559e-13
1.2704e-05
-2.44858e-14
1.2704e-05
1.10943e-13
1.2704e-05
2.25165e-13
1.27041e-05
3.37673e-13
1.27041e-05
3.55146e-13
1.27041e-05
3.03477e-13
1.27041e-05
3.48204e-13
1.27041e-05
4.87546e-13
1.27041e-05
5.84076e-13
1.27041e-05
5.77658e-13
1.27041e-05
6.2798e-13
1.27041e-05
8.7995e-13
1.27041e-05
1.16986e-12
1.27041e-05
1.30001e-12
1.27041e-05
1.36203e-12
1.27041e-05
1.49951e-12
1.27041e-05
1.71058e-12
1.27041e-05
2.10905e-12
1.27041e-05
2.59202e-12
1.27041e-05
2.76628e-12
1.27041e-05
2.82171e-12
1.27041e-05
2.56729e-12
2.13819e-12
1.24797e-05
7.5461e-12