/*--------------------------------*- C++ -*----------------------------------*\
| =========                 |                                                 |
| \\      /  F ield         | OpenFOAM: The Open Source CFD Toolbox           |
|  \\    /   O peration     | Version:  2406                                  |
|   \\  /    A nd           | Website:  www.openfoam.com                      |
|    \\/     M anipulation  |                                                 |
\*---------------------------------------------------------------------------*/
FoamFile
{
    version     2.0;
    format      ascii;
    arch        "LSB;label=32;scalar=64";
    class       volVectorField;
    location    "0.5";
    object      U;
}
// * * * * * * * * * * * * * * * * * * * * * * * * * * * * * * * * * * * * * //

dimensions      [0 1 -1 0 0 0 0];

internalField   nonuniform List<vector> 
2250
(
(0.0253426 -1.49762e-08 0)
(0.0253426 -1.59985e-08 0)
(0.0253426 -1.10873e-08 0)
(0.0253427 -6.38167e-09 0)
(0.0253427 -1.17229e-08 0)
(0.0253427 -8.62051e-09 0)
(0.0253427 1.2946e-09 0)
(0.0253427 4.36566e-09 0)
(0.0253427 1.51987e-09 0)
(0.0253427 -1.72404e-09 0)
(0.0253427 -1.30384e-09 0)
(0.0253427 -2.14959e-10 0)
(0.0253427 -3.27904e-09 0)
(0.0253427 -6.49959e-09 0)
(0.0253427 -5.50837e-09 0)
(0.0253427 -7.39443e-10 0)
(0.0253427 1.58834e-09 0)
(0.0253427 1.97603e-09 0)
(0.0253427 2.05395e-09 0)
(0.0253427 1.07795e-09 0)
(0.0253427 -5.39417e-10 0)
(0.0253427 -2.33388e-09 0)
(0.0253427 -3.62573e-09 0)
(0.0253427 -3.68279e-09 0)
(0.0253427 -2.86688e-09 0)
(0.0253427 -1.8385e-09 0)
(0.0253427 -1.52237e-09 0)
(0.0253427 -2.69119e-09 0)
(0.0253427 -3.43181e-09 0)
(0.0253427 -1.82399e-09 0)
(0.0253427 4.31237e-10 0)
(0.0253427 4.64918e-10 0)
(0.0253427 -1.72138e-09 0)
(0.0253427 -3.25999e-09 0)
(0.0253427 -2.06636e-09 0)
(0.0253427 7.30969e-11 0)
(0.0253427 9.62425e-10 0)
(0.0253427 1.2924e-09 0)
(0.0253427 1.96063e-09 0)
(0.0253427 2.29483e-09 0)
(0.0253427 2.59479e-09 0)
(0.0253427 4.01045e-09 0)
(0.0253426 5.81637e-09 0)
(0.0253426 6.36723e-09 0)
(0.0253426 5.4677e-09 0)
(0.0253426 4.40723e-09 0)
(0.0253426 4.0322e-09 0)
(0.0253426 3.50682e-09 0)
(0.0253426 2.36835e-09 0)
(0.0253426 2.04274e-09 0)
(0.0253426 3.04891e-09 0)
(0.0253426 3.79894e-09 0)
(0.0253426 3.4052e-09 0)
(0.0253426 2.60862e-09 0)
(0.0253426 2.21772e-09 0)
(0.0253426 2.53778e-09 0)
(0.0253425 3.40915e-09 0)
(0.0253425 4.36052e-09 0)
(0.0253425 4.89269e-09 0)
(0.0253425 4.49637e-09 0)
(0.0253426 3.38626e-09 0)
(0.0253426 2.58362e-09 0)
(0.0253426 2.25209e-09 0)
(0.0253426 1.43461e-09 0)
(0.0253426 1.53797e-10 0)
(0.0253425 -3.67609e-10 0)
(0.0253425 5.08322e-10 0)
(0.0253425 2.14539e-09 0)
(0.0253426 3.3377e-09 0)
(0.0253426 3.30225e-09 0)
(0.0253426 2.23726e-09 0)
(0.0253426 7.5013e-10 0)
(0.0253426 -6.50699e-10 0)
(0.0253426 -1.34951e-09 0)
(0.0253426 -1.30802e-09 0)
(0.0253426 -1.20146e-09 0)
(0.0253426 -1.23752e-09 0)
(0.0253426 -8.99824e-10 0)
(0.0253426 3.87506e-11 0)
(0.0253426 1.03423e-09 0)
(0.0253426 1.44041e-09 0)
(0.0253426 1.16232e-09 0)
(0.0253426 3.79945e-10 0)
(0.0253426 -8.95806e-10 0)
(0.0253426 -2.48693e-09 0)
(0.0253426 -3.73943e-09 0)
(0.0253427 -4.16188e-09 0)
(0.0253427 -3.68988e-09 0)
(0.0253427 -2.58272e-09 0)
(0.0253427 -1.25132e-09 0)
(0.0253427 -1.34378e-10 0)
(0.0253427 6.43916e-10 0)
(0.0253427 1.1418e-09 0)
(0.0253427 1.14593e-09 0)
(0.0253427 4.39947e-10 0)
(0.0253427 -8.6385e-10 0)
(0.0253427 -2.06264e-09 0)
(0.0253427 -2.43699e-09 0)
(0.0253427 -1.90446e-09 0)
(0.0253427 -9.70253e-10 0)
(0.0253427 -4.20658e-10 0)
(0.0253427 -6.59837e-10 0)
(0.0253427 -9.30924e-10 0)
(0.0253427 -2.39759e-10 0)
(0.0253426 1.03076e-09 0)
(0.0253426 1.86315e-09 0)
(0.0253426 1.89555e-09 0)
(0.0253426 1.21707e-09 0)
(0.0253426 1.80531e-10 0)
(0.0253426 -7.11737e-10 0)
(0.0253426 -1.04275e-09 0)
(0.0253426 -8.76931e-10 0)
(0.0253426 -7.55066e-10 0)
(0.0253426 -7.2323e-10 0)
(0.0253426 -4.64069e-11 0)
(0.0253426 1.032e-09 0)
(0.0253426 1.30424e-09 0)
(0.0253426 6.33466e-10 0)
(0.0253426 -1.06837e-10 0)
(0.0253426 -4.34932e-10 0)
(0.0253426 -1.84697e-10 0)
(0.0253426 6.37589e-10 0)
(0.0253426 1.55087e-09 0)
(0.0253426 2.13762e-09 0)
(0.0253426 2.25072e-09 0)
(0.0253426 2.14908e-09 0)
(0.0253426 2.42116e-09 0)
(0.0253426 2.8587e-09 0)
(0.0253426 2.57373e-09 0)
(0.0253426 1.29406e-09 0)
(0.0253426 8.24111e-11 0)
(0.0253426 -2.07528e-10 0)
(0.0253427 -6.09741e-11 0)
(0.0253427 -4.89234e-10 0)
(0.0253427 -1.94193e-09 0)
(0.0253427 -3.54575e-09 0)
(0.0253427 -4.19403e-09 0)
(0.0253427 -4.03043e-09 0)
(0.0253427 -3.14071e-09 0)
(0.0253427 -1.98807e-09 0)
(0.0253427 -1.77447e-09 0)
(0.0253427 -1.93205e-09 0)
(0.0253427 -1.28773e-09 0)
(0.0253427 -3.67782e-10 0)
(0.0253427 4.46635e-10 0)
(0.0253427 1.47103e-09 0)
(0.0253427 3.44464e-09 0)
(0.0253427 6.87411e-09 0)
(0.0253426 1.20144e-08 0)
(0.0253426 1.27134e-08 0)
(0.069231 -4.18113e-08 0)
(0.0692311 -4.33622e-08 0)
(0.0692311 -4.12922e-08 0)
(0.0692311 -2.9479e-08 0)
(0.0692311 -3.11395e-08 0)
(0.0692312 -2.20608e-08 0)
(0.0692312 -8.23302e-09 0)
(0.0692312 -6.22086e-09 0)
(0.0692311 -2.35023e-09 0)
(0.0692312 2.85764e-09 0)
(0.0692312 4.21809e-09 0)
(0.0692312 2.16774e-09 0)
(0.0692312 -5.57847e-09 0)
(0.0692312 -1.01242e-08 0)
(0.0692312 -5.592e-09 0)
(0.0692312 4.75484e-09 0)
(0.0692312 7.66671e-09 0)
(0.0692312 2.81479e-09 0)
(0.0692312 -1.32739e-09 0)
(0.0692312 -1.92562e-09 0)
(0.0692312 -1.41662e-09 0)
(0.0692312 -3.39e-09 0)
(0.0692312 -6.90544e-09 0)
(0.0692312 -8.21898e-09 0)
(0.0692312 -7.00154e-09 0)
(0.0692312 -4.65568e-09 0)
(0.0692312 -2.48282e-09 0)
(0.0692312 -3.34561e-09 0)
(0.0692312 -6.30336e-09 0)
(0.0692312 -6.39187e-09 0)
(0.0692312 -2.42035e-09 0)
(0.0692312 1.57909e-09 0)
(0.0692312 1.97074e-09 0)
(0.0692311 -4.73756e-10 0)
(0.0692311 -1.17576e-09 0)
(0.0692311 1.40129e-09 0)
(0.0692311 3.97582e-09 0)
(0.0692311 5.6552e-09 0)
(0.0692311 7.5751e-09 0)
(0.0692311 8.75569e-09 0)
(0.0692311 9.53207e-09 0)
(0.0692311 1.21601e-08 0)
(0.0692311 1.55058e-08 0)
(0.0692311 1.602e-08 0)
(0.0692311 1.25718e-08 0)
(0.0692311 7.83677e-09 0)
(0.069231 5.71243e-09 0)
(0.069231 6.42801e-09 0)
(0.069231 7.2977e-09 0)
(0.069231 8.34433e-09 0)
(0.069231 1.07474e-08 0)
(0.069231 1.25586e-08 0)
(0.069231 1.18591e-08 0)
(0.069231 9.52064e-09 0)
(0.069231 6.98384e-09 0)
(0.069231 5.38796e-09 0)
(0.069231 5.3819e-09 0)
(0.069231 6.36286e-09 0)
(0.069231 7.36364e-09 0)
(0.069231 7.27031e-09 0)
(0.069231 5.65437e-09 0)
(0.069231 4.10523e-09 0)
(0.069231 3.88492e-09 0)
(0.069231 3.50881e-09 0)
(0.069231 1.67042e-09 0)
(0.069231 -6.13714e-10 0)
(0.069231 -1.86587e-09 0)
(0.069231 -1.51715e-09 0)
(0.069231 -2.14249e-10 0)
(0.069231 6.64939e-10 0)
(0.069231 7.14969e-10 0)
(0.069231 3.34109e-10 0)
(0.069231 -3.98541e-10 0)
(0.069231 -9.29191e-10 0)
(0.069231 -7.83198e-10 0)
(0.0692311 -9.23561e-10 0)
(0.0692311 -2.23325e-09 0)
(0.0692311 -3.93838e-09 0)
(0.0692311 -4.86779e-09 0)
(0.0692311 -4.83408e-09 0)
(0.0692311 -4.45667e-09 0)
(0.0692311 -4.17251e-09 0)
(0.0692311 -4.1432e-09 0)
(0.0692311 -4.91887e-09 0)
(0.0692311 -6.88146e-09 0)
(0.0692311 -9.09684e-09 0)
(0.0692311 -1.0347e-08 0)
(0.0692311 -1.03078e-08 0)
(0.0692311 -9.21576e-09 0)
(0.0692311 -7.49701e-09 0)
(0.0692311 -5.72224e-09 0)
(0.0692311 -4.11229e-09 0)
(0.0692311 -2.60952e-09 0)
(0.0692311 -1.64192e-09 0)
(0.0692311 -1.70989e-09 0)
(0.0692311 -2.95069e-09 0)
(0.0692311 -4.43381e-09 0)
(0.0692311 -4.84052e-09 0)
(0.0692311 -3.9423e-09 0)
(0.0692311 -2.43254e-09 0)
(0.0692311 -1.42659e-09 0)
(0.0692311 -2.01529e-09 0)
(0.0692311 -3.27876e-09 0)
(0.0692311 -2.77501e-09 0)
(0.0692311 -3.00409e-10 0)
(0.0692311 2.14957e-09 0)
(0.0692311 3.17299e-09 0)
(0.0692311 2.53225e-09 0)
(0.0692311 7.96864e-10 0)
(0.0692311 -9.7613e-10 0)
(0.0692311 -2.02219e-09 0)
(0.0692311 -2.13288e-09 0)
(0.0692311 -2.21526e-09 0)
(0.0692311 -3.00389e-09 0)
(0.0692311 -2.87414e-09 0)
(0.0692311 -8.74979e-10 0)
(0.0692311 6.87436e-10 0)
(0.0692311 4.24869e-10 0)
(0.0692311 -3.31275e-10 0)
(0.0692311 -4.36221e-10 0)
(0.0692311 4.14568e-10 0)
(0.0692311 2.18016e-09 0)
(0.0692311 4.05965e-09 0)
(0.0692311 5.33185e-09 0)
(0.0692311 5.69775e-09 0)
(0.0692311 5.16935e-09 0)
(0.0692311 4.60259e-09 0)
(0.0692311 4.47e-09 0)
(0.0692311 3.92078e-09 0)
(0.0692311 2.32169e-09 0)
(0.0692311 7.93223e-10 0)
(0.0692311 5.04527e-10 0)
(0.0692311 1.04573e-09 0)
(0.0692311 9.13859e-10 0)
(0.0692311 -1.63578e-09 0)
(0.0692311 -5.84472e-09 0)
(0.0692311 -8.46458e-09 0)
(0.0692311 -8.83246e-09 0)
(0.0692311 -7.48297e-09 0)
(0.0692311 -4.13183e-09 0)
(0.0692311 -8.43555e-10 0)
(0.0692311 7.79263e-10 0)
(0.0692311 1.94989e-09 0)
(0.0692311 4.34786e-09 0)
(0.0692311 9.1331e-09 0)
(0.0692311 1.48496e-08 0)
(0.0692311 2.18336e-08 0)
(0.069231 3.31725e-08 0)
(0.069231 4.30832e-08 0)
(0.069231 4.41116e-08 0)
(0.106338 -6.05948e-08 0)
(0.106338 -7.11572e-08 0)
(0.106338 -7.00774e-08 0)
(0.106338 -4.68518e-08 0)
(0.106338 -2.9882e-08 0)
(0.106338 -2.75628e-08 0)
(0.106338 -2.24868e-08 0)
(0.106338 -1.28046e-08 0)
(0.106338 -1.31647e-09 0)
(0.106338 6.4288e-09 0)
(0.106338 4.24461e-09 0)
(0.106338 -4.70699e-10 0)
(0.106338 -2.37006e-09 0)
(0.106338 -1.33998e-09 0)
(0.106338 4.84912e-09 0)
(0.106338 1.23428e-08 0)
(0.106338 1.16925e-08 0)
(0.106338 2.23163e-09 0)
(0.106338 -6.13141e-09 0)
(0.106338 -6.56043e-09 0)
(0.106338 -3.09103e-09 0)
(0.106338 -2.34001e-09 0)
(0.106338 -5.20719e-09 0)
(0.106338 -7.74201e-09 0)
(0.106338 -8.45506e-09 0)
(0.106338 -7.8959e-09 0)
(0.106338 -4.9991e-09 0)
(0.106338 -1.62578e-09 0)
(0.106338 -1.97888e-09 0)
(0.106338 -4.23057e-09 0)
(0.106338 -3.15633e-09 0)
(0.106338 2.29838e-09 0)
(0.106338 7.809e-09 0)
(0.106338 8.70714e-09 0)
(0.106338 6.47951e-09 0)
(0.106338 6.59394e-09 0)
(0.106338 9.33231e-09 0)
(0.106338 1.14674e-08 0)
(0.106338 1.29915e-08 0)
(0.106338 1.3827e-08 0)
(0.106338 1.33144e-08 0)
(0.106338 1.32327e-08 0)
(0.106338 1.50686e-08 0)
(0.106338 1.70321e-08 0)
(0.106338 1.60631e-08 0)
(0.106338 1.13858e-08 0)
(0.106338 6.60709e-09 0)
(0.106338 5.67241e-09 0)
(0.106338 7.25762e-09 0)
(0.106338 8.62905e-09 0)
(0.106338 1.02058e-08 0)
(0.106338 1.20162e-08 0)
(0.106338 1.24853e-08 0)
(0.106338 1.14107e-08 0)
(0.106338 9.39607e-09 0)
(0.106338 6.70736e-09 0)
(0.106338 3.81235e-09 0)
(0.106338 1.28474e-09 0)
(0.106338 -2.14588e-10 0)
(0.106338 -3.84136e-10 0)
(0.106338 -7.49407e-10 0)
(0.106338 -2.25881e-09 0)
(0.106338 -3.50877e-09 0)
(0.106338 -3.81828e-09 0)
(0.106338 -4.4156e-09 0)
(0.106338 -5.72317e-09 0)
(0.106338 -7.18784e-09 0)
(0.106338 -7.93011e-09 0)
(0.106338 -7.42165e-09 0)
(0.106338 -6.21278e-09 0)
(0.106338 -5.01299e-09 0)
(0.106338 -3.89704e-09 0)
(0.106338 -3.28265e-09 0)
(0.106338 -3.45006e-09 0)
(0.106338 -3.5773e-09 0)
(0.106338 -3.47284e-09 0)
(0.106338 -4.04583e-09 0)
(0.106338 -5.54971e-09 0)
(0.106338 -7.33816e-09 0)
(0.106338 -8.86192e-09 0)
(0.106338 -1.01433e-08 0)
(0.106338 -1.13383e-08 0)
(0.106338 -1.19684e-08 0)
(0.106338 -1.18115e-08 0)
(0.106338 -1.17773e-08 0)
(0.106338 -1.24953e-08 0)
(0.106338 -1.34063e-08 0)
(0.106338 -1.39016e-08 0)
(0.106338 -1.35934e-08 0)
(0.106338 -1.23911e-08 0)
(0.106338 -1.09012e-08 0)
(0.106338 -9.71209e-09 0)
(0.106338 -8.93759e-09 0)
(0.106338 -8.11514e-09 0)
(0.106338 -6.83699e-09 0)
(0.106338 -5.40181e-09 0)
(0.106338 -4.59418e-09 0)
(0.106338 -4.57141e-09 0)
(0.106338 -4.97806e-09 0)
(0.106338 -5.14018e-09 0)
(0.106338 -4.17772e-09 0)
(0.106338 -2.72835e-09 0)
(0.106338 -2.20067e-09 0)
(0.106338 -2.10397e-09 0)
(0.106338 -1.27379e-09 0)
(0.106338 -4.99134e-11 0)
(0.106338 6.77587e-10 0)
(0.106338 4.71353e-10 0)
(0.106338 -8.10042e-10 0)
(0.106338 -2.62662e-09 0)
(0.106338 -4.18046e-09 0)
(0.106338 -4.53586e-09 0)
(0.106338 -3.8415e-09 0)
(0.106338 -4.1541e-09 0)
(0.106338 -5.97186e-09 0)
(0.106338 -6.59303e-09 0)
(0.106338 -5.12804e-09 0)
(0.106338 -3.24905e-09 0)
(0.106338 -1.55695e-09 0)
(0.106338 -3.6502e-11 0)
(0.106338 9.64657e-10 0)
(0.106338 1.72748e-09 0)
(0.106338 2.70492e-09 0)
(0.106338 3.96583e-09 0)
(0.106338 4.97021e-09 0)
(0.106338 4.72304e-09 0)
(0.106338 3.36036e-09 0)
(0.106338 2.52724e-09 0)
(0.106338 2.98977e-09 0)
(0.106338 3.68312e-09 0)
(0.106338 3.61099e-09 0)
(0.106338 3.09654e-09 0)
(0.106338 2.7859e-09 0)
(0.106338 2.65776e-09 0)
(0.106338 1.30175e-09 0)
(0.106338 -1.7601e-09 0)
(0.106338 -3.47632e-09 0)
(0.106338 -2.9283e-09 0)
(0.106338 -2.38504e-09 0)
(0.106338 -5.63532e-10 0)
(0.106338 4.29536e-09 0)
(0.106338 9.10145e-09 0)
(0.106338 1.29153e-08 0)
(0.106338 1.92484e-08 0)
(0.106338 2.99929e-08 0)
(0.106338 4.14074e-08 0)
(0.106338 5.21117e-08 0)
(0.106337 6.6459e-08 0)
(0.106337 7.70745e-08 0)
(0.106337 7.73697e-08 0)
(0.136676 -6.58771e-08 0)
(0.136676 -7.21121e-08 0)
(0.136676 -6.63123e-08 0)
(0.136676 -5.20675e-08 0)
(0.136676 -3.51968e-08 0)
(0.136676 -2.34979e-08 0)
(0.136676 -1.44746e-08 0)
(0.136676 -3.05865e-09 0)
(0.136676 2.86392e-09 0)
(0.136676 2.39135e-09 0)
(0.136676 1.65641e-09 0)
(0.136676 3.18636e-09 0)
(0.136676 6.86961e-09 0)
(0.136676 8.55258e-09 0)
(0.136676 8.18228e-09 0)
(0.136676 6.54334e-09 0)
(0.136676 4.8661e-09 0)
(0.136676 2.40217e-09 0)
(0.136676 -6.11893e-10 0)
(0.136676 -1.53394e-09 0)
(0.136676 -2.21658e-10 0)
(0.136676 -2.10589e-10 0)
(0.136676 -3.71848e-09 0)
(0.136676 -7.84333e-09 0)
(0.136676 -9.7442e-09 0)
(0.136676 -1.05579e-08 0)
(0.136676 -9.48013e-09 0)
(0.136676 -4.77355e-09 0)
(0.136676 5.53987e-10 0)
(0.136676 2.96743e-09 0)
(0.136676 2.53737e-09 0)
(0.136676 1.52878e-09 0)
(0.136676 2.14919e-09 0)
(0.136676 3.91723e-09 0)
(0.136676 5.65197e-09 0)
(0.136676 8.54343e-09 0)
(0.136676 1.19251e-08 0)
(0.136676 1.26464e-08 0)
(0.136676 1.13634e-08 0)
(0.136676 1.06431e-08 0)
(0.136676 9.79739e-09 0)
(0.136676 7.86707e-09 0)
(0.136676 6.17963e-09 0)
(0.136676 6.46035e-09 0)
(0.136676 8.29515e-09 0)
(0.136676 8.61073e-09 0)
(0.136676 6.02706e-09 0)
(0.136676 3.25157e-09 0)
(0.136676 2.01862e-09 0)
(0.136676 1.17381e-09 0)
(0.136676 9.95647e-10 0)
(0.136676 2.58191e-09 0)
(0.136676 4.79129e-09 0)
(0.136676 6.07104e-09 0)
(0.136676 6.11691e-09 0)
(0.136676 5.15359e-09 0)
(0.136676 3.59736e-09 0)
(0.136676 1.46895e-09 0)
(0.136676 -9.68559e-10 0)
(0.136676 -2.41615e-09 0)
(0.136676 -2.95284e-09 0)
(0.136676 -4.26738e-09 0)
(0.136676 -6.1742e-09 0)
(0.136676 -7.46056e-09 0)
(0.136676 -7.87192e-09 0)
(0.136676 -7.43209e-09 0)
(0.136676 -5.91996e-09 0)
(0.136676 -3.69419e-09 0)
(0.136676 -1.37863e-09 0)
(0.136676 1.14795e-10 0)
(0.136676 4.97619e-11 0)
(0.136676 -8.61397e-10 0)
(0.136676 -1.71392e-09 0)
(0.136676 -2.45511e-09 0)
(0.136676 -2.75392e-09 0)
(0.136676 -2.20156e-09 0)
(0.136676 -1.37965e-09 0)
(0.136676 -1.1657e-09 0)
(0.136676 -2.0022e-09 0)
(0.136676 -3.8368e-09 0)
(0.136676 -6.46599e-09 0)
(0.136676 -9.67589e-09 0)
(0.136676 -1.26608e-08 0)
(0.136676 -1.41202e-08 0)
(0.136676 -1.40136e-08 0)
(0.136676 -1.34604e-08 0)
(0.136676 -1.33277e-08 0)
(0.136676 -1.36094e-08 0)
(0.136676 -1.36868e-08 0)
(0.136676 -1.2862e-08 0)
(0.136676 -1.12264e-08 0)
(0.136676 -9.64255e-09 0)
(0.136676 -8.81137e-09 0)
(0.136676 -8.66595e-09 0)
(0.136676 -8.33166e-09 0)
(0.136676 -7.22316e-09 0)
(0.136676 -5.94142e-09 0)
(0.136676 -5.29615e-09 0)
(0.136676 -5.52511e-09 0)
(0.136676 -6.21424e-09 0)
(0.136676 -5.80887e-09 0)
(0.136676 -3.48442e-09 0)
(0.136676 -9.41025e-10 0)
(0.136676 4.55501e-11 0)
(0.136676 -4.35815e-10 0)
(0.136676 -1.68323e-09 0)
(0.136676 -2.89405e-09 0)
(0.136676 -3.52006e-09 0)
(0.136676 -3.73734e-09 0)
(0.136676 -3.81569e-09 0)
(0.136676 -4.07241e-09 0)
(0.136676 -4.27214e-09 0)
(0.136676 -3.2602e-09 0)
(0.136676 -1.77517e-09 0)
(0.136676 -1.96918e-09 0)
(0.136676 -3.0532e-09 0)
(0.136676 -2.66316e-09 0)
(0.136676 -7.88786e-10 0)
(0.136676 1.48949e-09 0)
(0.136676 3.33977e-09 0)
(0.136676 4.19806e-09 0)
(0.136676 4.36655e-09 0)
(0.136676 4.19553e-09 0)
(0.136676 3.97446e-09 0)
(0.136676 4.38775e-09 0)
(0.136676 5.1072e-09 0)
(0.136676 5.06746e-09 0)
(0.136676 4.62724e-09 0)
(0.136676 5.01533e-09 0)
(0.136676 5.85465e-09 0)
(0.136676 5.7693e-09 0)
(0.136676 4.84613e-09 0)
(0.136676 4.17553e-09 0)
(0.136676 4.3179e-09 0)
(0.136676 4.6127e-09 0)
(0.136676 4.11625e-09 0)
(0.136676 4.23805e-09 0)
(0.136676 5.88748e-09 0)
(0.136676 6.63733e-09 0)
(0.136676 7.20954e-09 0)
(0.136676 1.05953e-08 0)
(0.136676 1.59686e-08 0)
(0.136676 2.29917e-08 0)
(0.136676 3.32574e-08 0)
(0.136676 4.63169e-08 0)
(0.136676 6.10136e-08 0)
(0.136676 7.6027e-08 0)
(0.136676 8.87179e-08 0)
(0.136676 9.55568e-08 0)
(0.136676 9.26127e-08 0)
(0.160259 -4.51929e-08 0)
(0.160259 -5.21514e-08 0)
(0.160259 -5.00633e-08 0)
(0.160259 -4.06767e-08 0)
(0.160259 -2.83302e-08 0)
(0.160259 -8.81828e-09 0)
(0.160259 -7.85367e-10 0)
(0.160259 -1.66538e-09 0)
(0.160259 1.71375e-09 0)
(0.160259 6.92397e-09 0)
(0.160259 9.20049e-09 0)
(0.160259 1.01688e-08 0)
(0.160259 9.72036e-09 0)
(0.160259 7.92646e-09 0)
(0.160259 2.83688e-09 0)
(0.160259 -2.36493e-09 0)
(0.160259 -1.08977e-09 0)
(0.160259 3.69386e-09 0)
(0.160259 5.71393e-09 0)
(0.160259 4.08365e-09 0)
(0.160259 1.17275e-09 0)
(0.160259 -2.35846e-09 0)
(0.160259 -7.37675e-09 0)
(0.160259 -1.14651e-08 0)
(0.160259 -1.16853e-08 0)
(0.160259 -1.06125e-08 0)
(0.160259 -1.04574e-08 0)
(0.160259 -7.98165e-09 0)
(0.160259 -2.0039e-09 0)
(0.160259 3.32888e-09 0)
(0.160259 4.04264e-09 0)
(0.160259 5.85817e-10 0)
(0.160259 -1.83615e-09 0)
(0.160259 2.95275e-10 0)
(0.160259 4.5813e-09 0)
(0.160259 8.35121e-09 0)
(0.160259 1.07834e-08 0)
(0.160259 1.04149e-08 0)
(0.160259 7.77079e-09 0)
(0.160259 6.07974e-09 0)
(0.160259 5.92998e-09 0)
(0.160259 5.11259e-09 0)
(0.160259 2.50228e-09 0)
(0.160259 -5.14295e-10 0)
(0.160259 -1.2446e-09 0)
(0.160259 1.72578e-10 0)
(0.160259 5.61415e-10 0)
(0.160259 -8.50671e-10 0)
(0.160259 -2.14428e-09 0)
(0.160259 -2.93622e-09 0)
(0.160259 -3.11361e-09 0)
(0.160259 -1.50515e-09 0)
(0.160259 1.29731e-09 0)
(0.160259 3.19561e-09 0)
(0.160259 3.14947e-09 0)
(0.160259 1.819e-09 0)
(0.160259 9.62166e-10 0)
(0.160259 1.02669e-09 0)
(0.160259 5.03025e-10 0)
(0.160259 -1.15046e-09 0)
(0.160259 -3.21385e-09 0)
(0.160259 -5.63636e-09 0)
(0.160259 -7.97821e-09 0)
(0.160259 -8.99011e-09 0)
(0.160259 -8.45467e-09 0)
(0.160259 -7.2074e-09 0)
(0.160259 -5.7069e-09 0)
(0.160259 -4.11622e-09 0)
(0.160259 -2.28692e-09 0)
(0.160259 -3.63079e-10 0)
(0.160259 6.12211e-10 0)
(0.160259 3.38665e-10 0)
(0.160259 -2.65783e-10 0)
(0.160259 -7.1347e-10 0)
(0.160259 -8.77809e-10 0)
(0.160259 -6.19855e-10 0)
(0.160259 -5.91164e-10 0)
(0.160259 -1.68779e-09 0)
(0.160259 -3.89967e-09 0)
(0.160259 -6.36333e-09 0)
(0.160259 -8.12163e-09 0)
(0.160259 -9.31264e-09 0)
(0.160259 -1.07406e-08 0)
(0.160259 -1.24267e-08 0)
(0.160259 -1.35407e-08 0)
(0.160259 -1.37129e-08 0)
(0.160259 -1.32321e-08 0)
(0.160259 -1.26877e-08 0)
(0.160259 -1.24744e-08 0)
(0.160259 -1.22594e-08 0)
(0.160259 -1.12662e-08 0)
(0.160259 -9.38376e-09 0)
(0.160259 -7.27418e-09 0)
(0.160259 -6.09525e-09 0)
(0.160259 -6.23187e-09 0)
(0.160259 -6.61373e-09 0)
(0.160259 -6.20707e-09 0)
(0.160259 -4.73598e-09 0)
(0.160259 -2.79011e-09 0)
(0.160259 -1.81529e-09 0)
(0.160259 -2.1279e-09 0)
(0.160259 -2.0972e-09 0)
(0.160259 -1.02465e-09 0)
(0.160259 1.05683e-10 0)
(0.160259 3.79198e-10 0)
(0.160259 -5.70485e-10 0)
(0.160259 -2.08823e-09 0)
(0.160259 -2.82101e-09 0)
(0.160259 -2.25156e-09 0)
(0.160259 -9.11816e-10 0)
(0.160259 -6.35479e-11 0)
(0.160259 -9.88577e-10 0)
(0.160259 -2.30437e-09 0)
(0.160259 -1.80443e-09 0)
(0.160259 -4.04271e-10 0)
(0.160259 1.01743e-10 0)
(0.160259 3.84527e-11 0)
(0.160259 7.06249e-11 0)
(0.160259 3.63617e-10 0)
(0.160259 1.0173e-09 0)
(0.160259 1.75e-09 0)
(0.160259 2.2636e-09 0)
(0.160259 2.2127e-09 0)
(0.160259 1.49287e-09 0)
(0.160259 1.42773e-09 0)
(0.160259 2.82629e-09 0)
(0.160259 4.06433e-09 0)
(0.160259 3.84881e-09 0)
(0.160259 3.32594e-09 0)
(0.160259 3.77026e-09 0)
(0.160259 4.70808e-09 0)
(0.160259 5.35668e-09 0)
(0.160259 5.41881e-09 0)
(0.160259 5.41168e-09 0)
(0.160259 6.476e-09 0)
(0.160259 7.71149e-09 0)
(0.160259 7.60872e-09 0)
(0.160259 7.88402e-09 0)
(0.160259 9.97875e-09 0)
(0.160259 1.37752e-08 0)
(0.160259 1.88906e-08 0)
(0.160259 2.53535e-08 0)
(0.160259 3.40447e-08 0)
(0.160259 4.44383e-08 0)
(0.160259 5.45147e-08 0)
(0.160259 6.97541e-08 0)
(0.160259 8.75886e-08 0)
(0.160259 9.91243e-08 0)
(0.160259 1.0084e-07 0)
(0.160259 9.32465e-08 0)
(0.177096 -1.06003e-08 0)
(0.177096 -2.05682e-08 0)
(0.177096 -1.81086e-08 0)
(0.177096 -2.4449e-09 0)
(0.177096 4.59953e-09 0)
(0.177096 1.11096e-08 0)
(0.177096 1.48107e-08 0)
(0.177096 1.36742e-08 0)
(0.177096 1.2044e-08 0)
(0.177096 1.44989e-08 0)
(0.177096 1.66014e-08 0)
(0.177096 1.50588e-08 0)
(0.177096 1.06603e-08 0)
(0.177096 5.88799e-09 0)
(0.177096 2.98593e-09 0)
(0.177096 3.01795e-09 0)
(0.177096 5.15335e-09 0)
(0.177096 8.02726e-09 0)
(0.177096 8.8874e-09 0)
(0.177096 5.43678e-09 0)
(0.177096 -9.94795e-10 0)
(0.177096 -6.33852e-09 0)
(0.177096 -9.127e-09 0)
(0.177096 -1.02303e-08 0)
(0.177096 -9.61512e-09 0)
(0.177096 -8.37347e-09 0)
(0.177096 -8.26418e-09 0)
(0.177096 -7.43914e-09 0)
(0.177096 -4.49823e-09 0)
(0.177096 -1.45034e-09 0)
(0.177096 -1.76052e-10 0)
(0.177096 -4.43641e-10 0)
(0.177096 7.72589e-11 0)
(0.177096 2.92458e-09 0)
(0.177096 5.47908e-09 0)
(0.177096 5.60493e-09 0)
(0.177096 5.52752e-09 0)
(0.177096 6.01272e-09 0)
(0.177096 5.40565e-09 0)
(0.177096 4.03772e-09 0)
(0.177096 3.38477e-09 0)
(0.177096 3.46027e-09 0)
(0.177096 3.14402e-09 0)
(0.177096 1.01428e-09 0)
(0.177096 -2.18328e-09 0)
(0.177096 -4.34845e-09 0)
(0.177096 -5.72681e-09 0)
(0.177096 -6.82936e-09 0)
(0.177096 -6.03481e-09 0)
(0.177096 -3.35374e-09 0)
(0.177096 -9.40544e-10 0)
(0.177096 5.60108e-10 0)
(0.177096 1.77769e-09 0)
(0.177096 2.83327e-09 0)
(0.177096 3.30667e-09 0)
(0.177096 2.51657e-09 0)
(0.177096 7.87961e-10 0)
(0.177096 -5.97816e-10 0)
(0.177096 -1.74712e-09 0)
(0.177096 -3.26804e-09 0)
(0.177096 -4.76306e-09 0)
(0.177096 -6.33919e-09 0)
(0.177096 -8.61194e-09 0)
(0.177096 -1.03975e-08 0)
(0.177096 -1.03213e-08 0)
(0.177096 -8.68143e-09 0)
(0.177096 -6.75672e-09 0)
(0.177096 -5.85365e-09 0)
(0.177096 -6.03881e-09 0)
(0.177096 -6.14001e-09 0)
(0.177096 -5.38357e-09 0)
(0.177096 -3.83288e-09 0)
(0.177096 -1.60661e-09 0)
(0.177096 5.13968e-10 0)
(0.177096 1.56947e-09 0)
(0.177096 1.52142e-09 0)
(0.177096 6.41383e-10 0)
(0.177096 -1.16011e-09 0)
(0.177096 -3.75983e-09 0)
(0.177096 -6.62231e-09 0)
(0.177096 -8.64001e-09 0)
(0.177096 -9.11303e-09 0)
(0.177096 -8.86538e-09 0)
(0.177096 -9.29906e-09 0)
(0.177096 -1.07382e-08 0)
(0.177096 -1.23996e-08 0)
(0.177096 -1.30555e-08 0)
(0.177096 -1.2157e-08 0)
(0.177096 -1.0507e-08 0)
(0.177096 -9.17384e-09 0)
(0.177096 -8.66189e-09 0)
(0.177096 -8.59961e-09 0)
(0.177096 -8.13025e-09 0)
(0.177096 -7.10266e-09 0)
(0.177096 -6.31818e-09 0)
(0.177096 -6.08521e-09 0)
(0.177096 -5.91833e-09 0)
(0.177096 -5.14826e-09 0)
(0.177096 -3.30597e-09 0)
(0.177096 -1.36069e-09 0)
(0.177096 -1.00885e-09 0)
(0.177096 -2.21282e-09 0)
(0.177096 -3.66911e-09 0)
(0.177096 -4.43658e-09 0)
(0.177096 -4.15922e-09 0)
(0.177096 -3.36914e-09 0)
(0.177096 -2.88476e-09 0)
(0.177096 -2.58689e-09 0)
(0.177096 -2.17803e-09 0)
(0.177096 -1.30665e-09 0)
(0.177096 2.71414e-10 0)
(0.177096 1.28115e-09 0)
(0.177096 7.786e-10 0)
(0.177096 3.47389e-10 0)
(0.177096 1.04113e-09 0)
(0.177096 1.71962e-09 0)
(0.177096 1.64012e-09 0)
(0.177096 8.98322e-10 0)
(0.177096 2.19394e-11 0)
(0.177096 -2.8039e-10 0)
(0.177096 -1.50201e-10 0)
(0.177096 2.3864e-10 0)
(0.177096 8.18257e-10 0)
(0.177096 8.12144e-10 0)
(0.177096 8.90284e-11 0)
(0.177096 -1.45751e-10 0)
(0.177096 3.98857e-10 0)
(0.177096 7.00804e-10 0)
(0.177096 6.62769e-10 0)
(0.177096 1.56521e-09 0)
(0.177096 3.87878e-09 0)
(0.177096 6.64174e-09 0)
(0.177096 8.28081e-09 0)
(0.177096 8.33279e-09 0)
(0.177096 8.9633e-09 0)
(0.177096 1.05045e-08 0)
(0.177096 1.04861e-08 0)
(0.177096 9.78824e-09 0)
(0.177096 1.16081e-08 0)
(0.177096 1.57382e-08 0)
(0.177096 2.09289e-08 0)
(0.177096 2.8472e-08 0)
(0.177096 3.91389e-08 0)
(0.177096 5.08454e-08 0)
(0.177096 6.01103e-08 0)
(0.177096 7.1132e-08 0)
(0.177096 8.51238e-08 0)
(0.177096 9.54379e-08 0)
(0.177096 9.66434e-08 0)
(0.177096 8.81109e-08 0)
(0.187195 2.51803e-08 0)
(0.187195 2.74858e-08 0)
(0.187195 3.41612e-08 0)
(0.187195 3.81548e-08 0)
(0.187195 3.87626e-08 0)
(0.187195 3.96304e-08 0)
(0.187195 3.85498e-08 0)
(0.187195 3.69534e-08 0)
(0.187195 3.0786e-08 0)
(0.187195 2.69477e-08 0)
(0.187195 2.57073e-08 0)
(0.187195 1.94396e-08 0)
(0.187195 1.21736e-08 0)
(0.187195 9.95003e-09 0)
(0.187195 1.2952e-08 0)
(0.187195 1.54448e-08 0)
(0.187195 1.29054e-08 0)
(0.187195 8.53488e-09 0)
(0.187195 6.5817e-09 0)
(0.187195 5.32197e-09 0)
(0.187195 2.06981e-09 0)
(0.187195 -1.89807e-09 0)
(0.187195 -5.08248e-09 0)
(0.187195 -8.72145e-09 0)
(0.187195 -1.1083e-08 0)
(0.187195 -9.28586e-09 0)
(0.187195 -5.65616e-09 0)
(0.187195 -4.00217e-09 0)
(0.187195 -4.54739e-09 0)
(0.187195 -5.12752e-09 0)
(0.187195 -3.77192e-09 0)
(0.187195 -1.42453e-09 0)
(0.187195 -3.20021e-10 0)
(0.187195 6.07652e-11 0)
(0.187195 6.72872e-10 0)
(0.187195 8.77127e-10 0)
(0.187195 1.61716e-09 0)
(0.187195 3.71599e-09 0)
(0.187195 5.24773e-09 0)
(0.187195 4.93251e-09 0)
(0.187195 3.4567e-09 0)
(0.187195 1.90464e-09 0)
(0.187195 8.70637e-10 0)
(0.187195 -5.66678e-10 0)
(0.187195 -3.10243e-09 0)
(0.187195 -4.97428e-09 0)
(0.187195 -5.4395e-09 0)
(0.187195 -5.72166e-09 0)
(0.187195 -5.50196e-09 0)
(0.187195 -3.64509e-09 0)
(0.187195 -1.28936e-09 0)
(0.187195 -2.49607e-11 0)
(0.187195 8.40045e-11 0)
(0.187195 -2.8272e-11 0)
(0.187195 7.16494e-10 0)
(0.187195 1.76721e-09 0)
(0.187195 1.74694e-09 0)
(0.187195 6.2417e-10 0)
(0.187195 -1.17631e-09 0)
(0.187195 -3.72393e-09 0)
(0.187195 -5.71258e-09 0)
(0.187195 -6.26074e-09 0)
(0.187195 -6.68679e-09 0)
(0.187195 -8.03392e-09 0)
(0.187195 -9.45007e-09 0)
(0.187195 -9.66835e-09 0)
(0.187195 -8.22742e-09 0)
(0.187195 -5.98586e-09 0)
(0.187195 -4.4404e-09 0)
(0.187195 -3.88641e-09 0)
(0.187195 -3.60841e-09 0)
(0.187195 -2.85523e-09 0)
(0.187195 -8.56066e-10 0)
(0.187195 2.09476e-09 0)
(0.187195 4.3817e-09 0)
(0.187195 5.03621e-09 0)
(0.187195 4.33247e-09 0)
(0.187195 2.8981e-09 0)
(0.187195 1.05088e-09 0)
(0.187195 -1.33524e-09 0)
(0.187195 -4.22937e-09 0)
(0.187195 -6.55336e-09 0)
(0.187195 -7.63707e-09 0)
(0.187195 -7.92742e-09 0)
(0.187195 -8.45373e-09 0)
(0.187195 -9.73187e-09 0)
(0.187195 -1.10766e-08 0)
(0.187195 -1.126e-08 0)
(0.187195 -9.96533e-09 0)
(0.187195 -8.01482e-09 0)
(0.187195 -6.65332e-09 0)
(0.187195 -6.61296e-09 0)
(0.187195 -7.11222e-09 0)
(0.187195 -6.66619e-09 0)
(0.187195 -5.10336e-09 0)
(0.187195 -3.58486e-09 0)
(0.187195 -3.15059e-09 0)
(0.187195 -4.01772e-09 0)
(0.187195 -4.94871e-09 0)
(0.187195 -4.72835e-09 0)
(0.187195 -4.02967e-09 0)
(0.187195 -4.20323e-09 0)
(0.187195 -5.65397e-09 0)
(0.187195 -7.80958e-09 0)
(0.187195 -9.05577e-09 0)
(0.187195 -8.50343e-09 0)
(0.187195 -7.01801e-09 0)
(0.187195 -5.64173e-09 0)
(0.187195 -4.90582e-09 0)
(0.187195 -4.61014e-09 0)
(0.187195 -3.27128e-09 0)
(0.187195 -5.39949e-10 0)
(0.187195 1.46801e-09 0)
(0.187195 1.79395e-09 0)
(0.187195 1.73894e-09 0)
(0.187195 2.20129e-09 0)
(0.187195 2.8956e-09 0)
(0.187195 3.22967e-09 0)
(0.187195 3.15574e-09 0)
(0.187195 3.12128e-09 0)
(0.187195 2.76188e-09 0)
(0.187195 1.92493e-09 0)
(0.187195 1.67621e-09 0)
(0.187195 1.59453e-09 0)
(0.187195 6.96237e-11 0)
(0.187195 -1.86175e-09 0)
(0.187195 -1.28881e-09 0)
(0.187195 1.57352e-09 0)
(0.187195 3.73511e-09 0)
(0.187195 4.40856e-09 0)
(0.187195 5.215e-09 0)
(0.187195 7.05505e-09 0)
(0.187195 9.35869e-09 0)
(0.187195 1.08633e-08 0)
(0.187195 1.16323e-08 0)
(0.187195 1.21173e-08 0)
(0.187195 1.19057e-08 0)
(0.187195 1.22487e-08 0)
(0.187195 1.41857e-08 0)
(0.187195 1.64624e-08 0)
(0.187195 1.97066e-08 0)
(0.187195 2.66414e-08 0)
(0.187195 3.53851e-08 0)
(0.187195 4.44919e-08 0)
(0.187195 5.64617e-08 0)
(0.187195 6.58548e-08 0)
(0.187195 7.30129e-08 0)
(0.187195 7.88907e-08 0)
(0.187195 7.83491e-08 0)
(0.187195 7.53259e-08 0)
(0.190561 6.26463e-08 0)
(0.190561 6.7148e-08 0)
(0.190561 7.32115e-08 0)
(0.190561 7.41419e-08 0)
(0.190561 7.00681e-08 0)
(0.190561 6.19303e-08 0)
(0.190561 5.36941e-08 0)
(0.190561 4.82361e-08 0)
(0.190561 3.84103e-08 0)
(0.190561 3.00714e-08 0)
(0.190561 2.43766e-08 0)
(0.190561 1.83186e-08 0)
(0.190561 1.31346e-08 0)
(0.190561 1.16573e-08 0)
(0.190561 1.456e-08 0)
(0.190561 1.66936e-08 0)
(0.190561 1.2938e-08 0)
(0.190561 5.55614e-09 0)
(0.190561 9.1838e-10 0)
(0.190561 6.34945e-10 0)
(0.190561 1.1467e-09 0)
(0.190561 -2.50318e-10 0)
(0.190561 -3.79994e-09 0)
(0.190561 -9.74349e-09 0)
(0.190561 -1.53596e-08 0)
(0.190561 -1.55566e-08 0)
(0.190561 -1.07891e-08 0)
(0.190561 -6.31416e-09 0)
(0.190561 -4.73178e-09 0)
(0.190561 -4.86762e-09 0)
(0.190561 -4.34532e-09 0)
(0.190561 -3.05222e-09 0)
(0.190561 -3.34687e-09 0)
(0.190561 -4.50578e-09 0)
(0.190561 -3.68207e-09 0)
(0.190561 -1.36259e-09 0)
(0.190561 7.84772e-10 0)
(0.190561 2.81807e-09 0)
(0.190561 4.22724e-09 0)
(0.190561 3.901e-09 0)
(0.190561 1.53457e-09 0)
(0.190561 -2.18128e-09 0)
(0.190561 -5.393e-09 0)
(0.190561 -7.1734e-09 0)
(0.190561 -8.23117e-09 0)
(0.190561 -8.00101e-09 0)
(0.190561 -5.65311e-09 0)
(0.190561 -3.33418e-09 0)
(0.190561 -3.04204e-09 0)
(0.190561 -3.65427e-09 0)
(0.190561 -3.6113e-09 0)
(0.190561 -2.73412e-09 0)
(0.190561 -1.60127e-09 0)
(0.190561 -8.62019e-10 0)
(0.190561 -2.75409e-10 0)
(0.190561 4.99224e-10 0)
(0.190561 8.77534e-10 0)
(0.190561 9.39779e-10 0)
(0.190561 7.93236e-10 0)
(0.190561 -9.18295e-10 0)
(0.190561 -4.40528e-09 0)
(0.190561 -7.55988e-09 0)
(0.190561 -9.02578e-09 0)
(0.190561 -9.38668e-09 0)
(0.190561 -9.66491e-09 0)
(0.190561 -1.01668e-08 0)
(0.190561 -1.03355e-08 0)
(0.190561 -9.33288e-09 0)
(0.190561 -7.2514e-09 0)
(0.190561 -4.75935e-09 0)
(0.190561 -2.73358e-09 0)
(0.190561 -1.93435e-09 0)
(0.190561 -1.82392e-09 0)
(0.190561 -9.39279e-10 0)
(0.190561 9.33748e-10 0)
(0.190561 2.79243e-09 0)
(0.190561 3.69903e-09 0)
(0.190561 3.43692e-09 0)
(0.190561 2.67367e-09 0)
(0.190561 1.77677e-09 0)
(0.190561 2.47538e-10 0)
(0.190561 -2.19179e-09 0)
(0.190561 -4.87239e-09 0)
(0.190561 -6.80732e-09 0)