/*--------------------------------*- C++ -*----------------------------------*\
| =========                 |                                                 |
| \\      /  F ield         | OpenFOAM: The Open Source CFD Toolbox           |
|  \\    /   O peration     | Version:  2406                                  |
|   \\  /    A nd           | Website:  www.openfoam.com                      |
|    \\/     M anipulation  |                                                 |
\*---------------------------------------------------------------------------*/
FoamFile
{
    version     2.0;
    format      ascii;
    arch        "LSB;label=32;scalar=64";
    class       surfaceScalarField;
    location    "530";
    object      phi;
}
// * * * * * * * * * * * * * * * * * * * * * * * * * * * * * * * * * * * * * //

dimensions      [0 3 -1 0 0 0 0];

oriented        oriented;

internalField   nonuniform List<scalar> 
7780
(
8.75063e-07
-3.9403447e-10
8.7541512e-07
-3.5211961e-10
8.7565825e-07
-2.4311785e-10
8.7582623e-07
-1.6797653e-10
8.7594212e-07
-1.1587929e-10
8.7602159e-07
-7.9468136e-11
8.7607577e-07
-5.4176484e-11
8.7611245e-07
-3.6685864e-11
8.7613705e-07
-2.4605966e-11
8.7615334e-07
-1.628921e-11
8.7616393e-07
-1.0599328e-11
8.7617067e-07
-6.7436709e-12
8.7617483e-07
-4.1641981e-12
8.761773e-07
-2.4669481e-12
8.7617867e-07
-1.3735649e-12
8.7617935e-07
-6.8834072e-13
8.7617963e-07
-2.7453516e-13
8.7617966e-07
-3.7663015e-14
8.7617958e-07
8.6920089e-14
8.7617943e-07
1.4265666e-13
8.7617928e-07
1.5796317e-13
8.7617912e-07
1.5113219e-13
8.7617899e-07
1.3358289e-13
8.7617888e-07
1.1221492e-13
8.7617879e-07
9.0860548e-14
8.7617872e-07
7.1536828e-14
8.7617866e-07
5.5022699e-14
8.7617862e-07
4.1522039e-14
8.7617859e-07
3.0787496e-14
8.7617857e-07
2.2508599e-14
8.7617856e-07
1.6221086e-14
8.7617855e-07
1.157988e-14
8.7617854e-07
8.1748781e-15
8.7617853e-07
5.7622237e-15
8.7617853e-07
4.0417204e-15
8.7617853e-07
2.8784488e-15
8.7617853e-07
2.0668615e-15
8.7617853e-07
1.5539908e-15
8.7617853e-07
1.1988724e-15
8.7617853e-07
1.0006629e-15
8.7617853e-07
8.5751884e-16
8.7617853e-07
7.9859641e-16
8.7617853e-07
7.4467454e-16
8.7617853e-07
7.404803e-16
8.7617853e-07
7.1812832e-16
8.7617853e-07
7.3052508e-16
8.7617853e-07
7.1564342e-16
8.7617853e-07
7.2923688e-16
8.7617853e-07
7.1270713e-16
8.7617853e-07
7.2287387e-16
8.7617853e-07
7.0256524e-16
8.7617853e-07
7.0859553e-16
8.7617853e-07
6.8461711e-16
8.7617853e-07
6.8711105e-16
8.7617853e-07
6.6045291e-16
8.7617853e-07
6.600241e-16
8.7617853e-07
6.3152353e-16
8.7617853e-07
6.2925954e-16
8.7617853e-07
5.9965823e-16
8.7617853e-07
5.9595879e-16
8.7617853e-07
5.6568366e-16
8.7617853e-07
5.6107798e-16
8.7617853e-07
5.30487e-16
8.7617853e-07
5.2532964e-16
8.7617853e-07
4.9462328e-16
8.7617853e-07
4.889991e-16
8.7617853e-07
4.5833532e-16
8.7617853e-07
4.5242156e-16
8.7617853e-07
4.221819e-16
8.7617853e-07
4.162988e-16
8.7617853e-07
3.8652709e-16
8.7617853e-07
3.8090029e-16
8.7617853e-07
3.5195588e-16
8.7617853e-07
3.4679052e-16
8.7617853e-07
3.1874606e-16
8.7617853e-07
3.1431424e-16
8.7617853e-07
2.8750377e-16
8.7617853e-07
2.8377574e-16
8.7617853e-07
2.5831591e-16
8.7617853e-07
2.5568905e-16
8.7617853e-07
2.3143319e-16
8.7617853e-07
2.2983882e-16
8.7617853e-07
2.0690017e-16
8.7617853e-07
2.0628679e-16
8.7617853e-07
1.8452316e-16
8.7617853e-07
1.8463305e-16
8.7617853e-07
1.6393405e-16
8.7617853e-07
1.6473187e-16
8.7617853e-07
1.4480438e-16
8.7617853e-07
1.4619505e-16
8.7617853e-07
1.2699052e-16
8.7617853e-07
1.2857342e-16
8.7617853e-07
1.0948968e-16
8.7617853e-07
1.1114384e-16
8.7617853e-07
9.2320956e-17
8.7617853e-07
9.4003311e-17
8.7617853e-07
7.5139273e-17
8.7617853e-07
7.6651518e-17
8.7617853e-07
5.7562349e-17
8.7617853e-07
5.896417e-17
8.7617853e-07
3.9862997e-17
8.7617853e-07
4.1110445e-17
8.7617853e-07
2.1566967e-17
8.7617853e-07
2.2685009e-17
8.7617853e-07
3.1145927e-18
8.7617853e-07
3.8879254e-18
8.7617853e-07
-1.6183388e-17
8.7617853e-07
-1.5624016e-17
8.7617853e-07
-3.6173182e-17
8.7617853e-07
-3.5902217e-17
8.7617853e-07
-5.7052092e-17
8.7617853e-07
-5.7424715e-17
8.7617853e-07
-7.9464866e-17
8.7617853e-07
-8.0386323e-17
8.7617853e-07
-1.0341972e-16
8.7617853e-07
-1.0510147e-16
8.7617853e-07
-1.2927506e-16
8.7617853e-07
-1.319056e-16
8.7617853e-07
-1.5727771e-16
8.7617853e-07
-1.6071391e-16
8.7617853e-07
-1.8752886e-16
8.7617853e-07
-1.9194806e-16
8.7617853e-07
-2.1999823e-16
8.7617853e-07
-2.2488373e-16
8.7617853e-07
-2.5418129e-16
8.7617853e-07
-2.5962953e-16
8.7617853e-07
-2.897884e-16
8.7617853e-07
-2.9564243e-16
8.7617853e-07
-3.2679594e-16
8.7617853e-07
-3.3297185e-16
8.7617853e-07
-3.6476648e-16
8.7617853e-07
-3.711242e-16
8.7617853e-07
-4.0353606e-16
8.7617853e-07
-4.0999968e-16
8.7617853e-07
-4.4336128e-16
8.7617853e-07
-4.5010038e-16
8.7617853e-07
-4.8428354e-16
8.7617853e-07
-4.9121444e-16
8.7617853e-07
-5.2626941e-16
8.7617853e-07
-5.3329311e-16
8.7617853e-07
-5.6919332e-16
8.7617853e-07
-5.7654314e-16
8.7617853e-07
-6.1310728e-16
8.7617853e-07
-6.2073033e-16
8.7617853e-07
-6.5795468e-16
8.7617853e-07
-6.653443e-16
8.7617853e-07
-7.0289369e-16
8.7617853e-07
-7.0997206e-16
8.7617853e-07
-7.4725309e-16
8.7617853e-07
-7.5340458e-16
8.7617853e-07
-7.9019784e-16
8.7617853e-07
-7.9459204e-16
8.7617853e-07
-8.299925e-16
8.7617853e-07
-8.3250722e-16
8.7617853e-07
-8.6626008e-16
8.7617853e-07
-8.6730031e-16
8.7617853e-07
-9.0144632e-16
8.7617853e-07
-9.0495839e-16
8.7617853e-07
-9.4651953e-16
8.7617853e-07
-9.6521725e-16
8.7617853e-07
-1.0350196e-15
8.7617853e-07
-1.1020187e-15
8.7617853e-07
-1.2502477e-15
8.7617853e-07
-1.4416863e-15
8.7617853e-07
-1.7801456e-15
8.7617853e-07
-2.2573712e-15
8.7617853e-07
-3.0131663e-15
8.7617853e-07
-4.0910535e-15
8.7617854e-07
-5.6901087e-15
8.7617855e-07
-7.9321802e-15
8.7617856e-07
-1.1098289e-14
8.7617857e-07
-1.5403339e-14
8.7617859e-07
-2.1200494e-14
8.7617862e-07
-2.8743506e-14
8.7617866e-07
-3.8319864e-14
8.761787e-07
-4.9943703e-14
8.7617877e-07
-6.3324051e-14
8.7617884e-07
-7.7347853e-14
8.7617893e-07
-8.9665841e-14
8.7617903e-07
-9.5682408e-14
8.7617911e-07
-8.7309752e-14
8.7617916e-07
-5.0890184e-14
8.7617913e-07
3.5959107e-14
8.7617892e-07
2.0881668e-13
8.761784e-07
5.2318924e-13
8.7617734e-07
1.0634167e-12
8.7617539e-07
1.9570283e-12
8.76172e-07
3.3931951e-12
8.7616635e-07
5.651595e-12
8.7615722e-07
9.1405573e-12
8.7614277e-07
1.4456155e-11
8.7612031e-07
2.2464254e-11
8.7608589e-07
3.4426868e-11
8.760337e-07
5.2189302e-11
8.7595525e-07
7.8433207e-11
8.7583836e-07
1.1688336e-10
8.7566582e-07
1.7252475e-10
8.7541299e-07
2.5282134e-10
8.7504322e-07
3.6976969e-10
4.1607737e-10
2.437602e-06
-8.4575795e-10
2.4380677e-06
-8.1777491e-10
2.4384633e-06
-6.3871665e-10
2.4387712e-06
-4.7589448e-10
2.439003e-06
-3.4770237e-10
2.4391735e-06
-2.4991725e-10
2.4392965e-06
-1.7714701e-10
2.4393838e-06
-1.2399562e-10
2.4394448e-06
-8.5667573e-11
2.4394869e-06
-5.8334173e-11
2.4395153e-06
-3.9063978e-11
2.4395342e-06
-2.5647266e-11
2.4395465e-06
-1.6436133e-11
2.4395542e-06
-1.0213116e-11
2.4395589e-06
-6.0873134e-12
2.4395617e-06
-3.4132552e-12
2.4395631e-06
-1.7285294e-12
2.4395638e-06
-7.0593493e-13
2.439564e-06
-1.171202e-13
2.4395639e-06
1.9516011e-13
2.4395638e-06
3.3710841e-13
2.4395635e-06
3.7855501e-13
2.4395633e-06
3.6464125e-13
2.4395631e-06
3.2364373e-13
2.4395629e-06
2.7261928e-13
2.4395628e-06
2.2118653e-13
2.4395626e-06
1.7436224e-13
2.4395625e-06
1.342332e-13
2.4395625e-06
1.0130168e-13
2.4395624e-06
7.5097053e-14
2.4395624e-06
5.4811655e-14
2.4395624e-06
3.9420069e-14
2.4395623e-06
2.8002262e-14
2.4395623e-06
1.9654673e-14
2.4395623e-06
1.3690859e-14
2.4395623e-06
9.4737555e-15
2.4395623e-06
6.5773359e-15
2.4395623e-06
4.5962009e-15
2.4395623e-06
3.3009878e-15
2.4395623e-06
2.4457825e-15
2.4395623e-06
1.9278873e-15
2.4395623e-06
1.5981324e-15
2.4395623e-06
1.4268373e-15
2.4395623e-06
1.3193364e-15
2.4395623e-06
1.2850412e-15
2.4395623e-06
1.2580557e-15
2.4395623e-06
1.2668853e-15
2.4395623e-06
1.2599318e-15
2.4395623e-06
1.2742797e-15
2.4395623e-06
1.2646603e-15
2.4395623e-06
1.2722614e-15
2.4395623e-06
1.2543387e-15
2.4395623e-06
1.252998e-15
2.4395623e-06
1.2270145e-15
2.4395623e-06
1.2181165e-15
2.4395623e-06
1.1860576e-15
2.4395623e-06
1.1714889e-15
2.4395623e-06
1.1352673e-15
2.4395623e-06
1.1170684e-15
2.4395623e-06
1.0779326e-15
2.4395623e-06
1.0572873e-15
2.4395623e-06
1.0163936e-15
2.4395623e-06
9.9418915e-16
2.4395623e-06
9.5241102e-16
2.4395623e-06
9.291585e-16
2.4395623e-06
8.8688858e-16
2.4395623e-06
8.6308863e-16
2.4395623e-06
8.2080471e-16
2.4395623e-06
7.9685138e-16
2.4395623e-06
7.5498232e-16
2.4395623e-06
7.3153087e-16
2.4395623e-06
6.9068286e-16
2.4395623e-06
6.6789844e-16
2.4395623e-06
6.2834539e-16
2.4395623e-06
6.0679228e-16
2.4395623e-06
5.6891989e-16
2.4395623e-06
5.4899817e-16
2.4395623e-06
5.1323294e-16
2.4395623e-06
4.951159e-16
2.4395623e-06
4.6138686e-16
2.4395623e-06
4.4522786e-16
2.4395623e-06
4.1368269e-16
2.4395623e-06
3.9953329e-16
2.4395623e-06
3.7019741e-16
2.4395623e-06
3.5767509e-16
2.4395623e-06
3.3025635e-16
2.4395623e-06
3.1944927e-16
2.4395623e-06
2.9340156e-16
2.4395623e-06
2.8383543e-16
2.4395623e-06
2.5886754e-16
2.4395623e-06
2.4996075e-16
2.4395623e-06
2.2580344e-16
2.4395623e-06
2.1747702e-16
2.4395623e-06
1.9357153e-16
2.4395623e-06
1.8529232e-16
2.4395623e-06
1.6145011e-16
2.4395623e-06
1.5297263e-16
2.4395623e-06
1.2892158e-16
2.4395623e-06
1.2030379e-16
2.4395623e-06
9.5946505e-17
2.4395623e-06
8.6900003e-17
2.4395623e-06
6.226969e-17
2.4395623e-06
5.2975297e-17
2.4395623e-06
2.7717885e-17
2.4395623e-06
1.7872424e-17
2.4395623e-06
-7.8468729e-18
2.4395623e-06
-1.8026986e-17
2.4395623e-06
-4.4496231e-17
2.4395623e-06
-5.5405484e-17
2.4395623e-06
-8.2828494e-17
2.4395623e-06
-9.4677565e-17
2.4395623e-06
-1.231801e-16
2.4395623e-06
-1.3601254e-16
2.4395623e-06
-1.6615906e-16
2.4395623e-06
-1.8040719e-16
2.4395623e-06
-2.1240967e-16
2.4395623e-06
-2.2844004e-16
2.4395623e-06
-2.6240089e-16
2.4395623e-06
-2.8005346e-16
2.4395623e-06
-3.1620975e-16
2.4395623e-06
-3.3573149e-16
2.4395623e-06
-3.7381367e-16
2.4395623e-06
-3.949518e-16
2.4395623e-06
-4.3502372e-16
2.4395623e-06
-4.5751221e-16
2.4395623e-06
-4.9913186e-16
2.4395623e-06
-5.2286019e-16
2.4395623e-06
-5.660248e-16
2.4395623e-06
-5.9059368e-16
2.4395623e-06
-6.3474598e-16
2.4395623e-06
-6.5995164e-16
2.4395623e-06
-7.0531074e-16
2.4395623e-06
-7.3120368e-16
2.4395623e-06
-7.7753916e-16
2.4395623e-06
-8.0389163e-16
2.4395623e-06
-8.5130377e-16
2.4395623e-06
-8.7829773e-16
2.4395623e-06
-9.2654815e-16
2.4395623e-06
-9.5412035e-16
2.4395623e-06
-1.0033387e-15
2.4395623e-06
-1.0312531e-15
2.4395623e-06
-1.0815243e-15
2.4395623e-06
-1.1098738e-15
2.4395623e-06
-1.1606288e-15
2.4395623e-06
-1.1888646e-15
2.4395623e-06
-1.2396639e-15
2.4395623e-06
-1.267233e-15
2.4395623e-06
-1.3170687e-15
2.4395623e-06
-1.3430677e-15
2.4395623e-06
-1.3910375e-15
2.4395623e-06
-1.4139797e-15
2.4395623e-06
-1.4594243e-15
2.4395623e-06
-1.4795677e-15
2.4395623e-06
-1.5228524e-15
2.4395623e-06
-1.5424333e-15
2.4395623e-06
-1.589447e-15
2.4395623e-06
-1.6195093e-15
2.4395623e-06
-1.6894226e-15
2.4395623e-06
-1.7623599e-15
2.4395623e-06
-1.9072316e-15
2.4395623e-06
-2.1040023e-15
2.4395623e-06
-2.446331e-15
2.4395623e-06
-2.9499687e-15
2.4395623e-06
-3.75609e-15
2.4395623e-06
-4.9478006e-15
2.4395623e-06
-6.7527525e-15
2.4395623e-06
-9.3692045e-15
2.4395623e-06
-1.3164605e-14
2.4395623e-06
-1.8509847e-14
2.4395624e-06
-2.5960658e-14
2.4395624e-06
-3.6083543e-14
2.4395624e-06
-4.9585783e-14
2.4395625e-06
-6.7078479e-14
2.4395625e-06
-8.9063236e-14
2.4395626e-06
-1.1549229e-13
2.4395627e-06
-1.4538719e-13
2.4395628e-06
-1.7586397e-13
2.4395629e-06
-2.0087706e-13
2.439563e-06
-2.0899778e-13
2.4395631e-06
-1.8023097e-13
2.4395631e-06
-8.1198744e-14
2.4395629e-06
1.4231264e-13
2.4395624e-06
5.7596245e-13
2.4395612e-06
1.3518931e-12
2.4395591e-06
2.6696445e-12
2.4395553e-06
4.8267692e-12
2.439549e-06
8.2594509e-12
2.4395388e-06
1.3599783e-11
2.4395227e-06
2.175065e-11
2.4394979e-06
3.3987902e-11
2.4394603e-06
5.2090887e-11
2.4394042e-06
7.8510992e-11
2.4393221e-06
1.1657283e-10
2.4392036e-06
1.7069114e-10
2.4390355e-06
2.4647423e-10
2.4388021e-06
3.5032724e-10
2.4384861e-06
4.8853922e-10
2.4380734e-06
6.6546876e-10
2.4375801e-06
8.6304523e-10
8.9802883e-10
3.8154005e-06
-1.1899109e-09
3.8157728e-06
-1.190006e-09
3.8161286e-06
-9.945048e-10
3.8164341e-06
-7.8143576e-10
3.8166815e-06
-5.9502787e-10
3.8168739e-06
-4.4235447e-10
3.8170192e-06
-3.2247173e-10
3.8171264e-06
-2.3115168e-10
3.8172038e-06
-1.6308046e-10
3.8172587e-06
-1.1321721e-10
3.8172969e-06
-7.7263016e-11
3.8173229e-06
-5.1731228e-11
3.8173404e-06
-3.3880913e-11
3.8173518e-06
-2.1606095e-11
3.817359e-06
-1.3318063e-11
3.8173634e-06
-7.8375592e-12
3.817366e-06
-4.3024015e-12
3.8173674e-06
-2.0915957e-12
3.817368e-06
-7.6461892e-13
3.8173682e-06
-1.3914323e-14
3.8173682e-06
3.7203221e-13
3.817368e-06
5.3546274e-13
3.8173678e-06
5.6953357e-13
3.8173676e-06
5.3412585e-13
3.8173674e-06
4.6639631e-13
3.8173673e-06
3.8840983e-13
3.8173671e-06
3.1241538e-13
3.817367e-06
2.4452345e-13
3.8173669e-06
1.8709628e-13
3.8173669e-06
1.4038954e-13
3.8173668e-06
1.0351885e-13
3.8173668e-06
7.513433e-14
3.8173668e-06
5.3735301e-14
3.8173667e-06
3.7921735e-14
3.8173667e-06
2.6435909e-14
3.8173667e-06
1.8250011e-14
3.8173667e-06
1.2509705e-14
3.8173667e-06
8.5688838e-15
3.8173667e-06
5.9086959e-15
3.8173667e-06
4.1630942e-15
3.8173667e-06
3.0389771e-15
3.8173667e-06
2.3480832e-15
3.8173667e-06
1.9328509e-15
3.8173667e-06
1.7064264e-15
3.8173667e-06
1.5866867e-15
3.8173667e-06
1.5406867e-15
3.8173667e-06
1.5248801e-15
3.8173667e-06
1.5335632e-15
3.8173667e-06
1.5410881e-15
3.8173667e-06
1.5547007e-15
3.8173667e-06
1.5572219e-15
3.8173667e-06
1.5603542e-15
3.8173667e-06
1.5503998e-15
3.8173667e-06
1.5408875e-15
3.8173667e-06
1.519362e-15
3.8173667e-06
1.4995966e-15
3.8173667e-06
1.4695301e-15
3.8173667e-06
1.4424733e-15
3.8173667e-06
1.4064783e-15
3.8173667e-06
1.3744271e-15
3.8173667e-06
1.3346101e-15
3.8173667e-06
1.2993768e-15
3.8173667e-06
1.2571555e-15
3.8173667e-06
1.2202473e-15
3.8173667e-06
1.1765841e-15
3.8173667e-06
1.1384944e-15
3.8173667e-06
1.0941461e-15
3.8173667e-06
1.0555757e-15
3.8173667e-06
1.0111609e-15
3.8173667e-06
9.7276917e-16
3.8173667e-06
9.2898719e-16
3.8173667e-06
8.9131147e-16
3.8173667e-06
8.4873585e-16
3.8173667e-06
8.1233192e-16
3.8173667e-06
7.7134967e-16
3.8173667e-06
7.3671255e-16
3.8173667e-06
6.9794389e-16
3.8173667e-06
6.6577949e-16
3.8173667e-06
6.2931781e-16
3.8173667e-06
5.9943237e-16
3.8173667e-06
5.6571556e-16
3.8173667e-06
5.383881e-16
3.8173667e-06
5.072921e-16
3.8173667e-06
4.8245902e-16
3.8173667e-06
4.5383852e-16
3.8173667e-06
4.3113949e-16
3.8173667e-06
4.0460275e-16
3.8173667e-06
3.8387055e-16
3.8173667e-06
3.5880834e-16
3.8173667e-06
3.3941101e-16
3.8173667e-06
3.1549884e-16
3.8173667e-06
2.9691193e-16
3.8173667e-06
2.7344935e-16
3.8173667e-06
2.5510855e-16
3.8173667e-06
2.3212459e-16
3.8173667e-06
2.1384032e-16
3.8173667e-06
1.9041801e-16
3.8173667e-06
1.7176097e-16
3.8173667e-06
1.4823207e-16
3.8173667e-06
1.2914849e-16
3.8173667e-06
1.0512183e-16
3.8173667e-06
8.5678605e-17
3.8173667e-06
6.0968144e-17
3.8173667e-06
4.0892758e-17
3.8173667e-06
1.546296e-17
3.8173667e-06
-5.1633151e-18
3.8173667e-06
-3.1235433e-17
3.8173667e-06
-5.2745726e-17
3.8173667e-06
-7.9639201e-17
3.8173667e-06
-1.0217713e-16
3.8173667e-06
-1.3023683e-16
3.8173667e-06
-1.5417352e-16
3.8173667e-06
-1.8387802e-16
3.8173667e-06
-2.0931928e-16
3.8173667e-06
-2.4115894e-16
3.8173667e-06
-2.6861251e-16
3.8173667e-06
-3.0241633e-16
3.8173667e-06
-3.3218239e-16
3.8173667e-06
-3.6868748e-16
3.8173667e-06
-4.0081059e-16
3.8173667e-06
-4.3948437e-16
3.8173667e-06
-4.7400566e-16
3.8173667e-06
-5.1507139e-16
3.8173667e-06
-5.5173136e-16
3.8173667e-06
-5.9486442e-16
3.8173667e-06
-6.331987e-16
3.8173667e-06
-6.7804766e-16
3.8173667e-06
-7.1789677e-16
3.8173667e-06
-7.6433809e-16
3.8173667e-06
-8.0532607e-16
3.8173667e-06
-8.5289873e-16
3.8173667e-06
-8.946676e-16
3.8173667e-06
-9.4316428e-16
3.8173667e-06
-9.8606124e-16
3.8173667e-06
-1.0354586e-15
3.8173667e-06
-1.0788792e-15
3.8173667e-06
-1.129141e-15
3.8173667e-06
-1.1733607e-15
3.8173667e-06
-1.2242926e-15
3.8173667e-06
-1.2690284e-15
3.8173667e-06
-1.320659e-15
3.8173667e-06
-1.3656893e-15
3.8173667e-06
-1.4176843e-15
3.8173667e-06
-1.4623923e-15
3.8173667e-06
-1.5140338e-15
3.8173667e-06
-1.5578126e-15
3.8173667e-06
-1.6078265e-15
3.8173667e-06
-1.6495649e-15
3.8173667e-06
-1.6969139e-15
3.8173667e-06
-1.7350834e-15
3.8173667e-06
-1.7787768e-15
3.8173667e-06
-1.8132677e-15
3.8173667e-06
-1.8543346e-15
3.8173667e-06
-1.8886339e-15
3.8173667e-06
-1.934777e-15
3.8173667e-06
-1.9836555e-15
3.8173667e-06
-2.0607319e-15
3.8173667e-06
-2.1673244e-15
3.8173667e-06
-2.3447692e-15
3.8173667e-06
-2.6165455e-15
3.8173667e-06
-3.057378e-15
3.8173667e-06
-3.7376961e-15
3.8173667e-06
-4.796878e-15
3.8173667e-06
-6.3948858e-15
3.8173667e-06
-8.788762e-15
3.8173667e-06
-1.2292064e-14
3.8173667e-06
-1.7355454e-14
3.8173667e-06
-2.4526938e-14
3.8173668e-06
-3.4522587e-14
3.8173668e-06
-4.8166846e-14
3.8173668e-06
-6.6407732e-14
3.8173668e-06
-9.016688e-14
3.8173669e-06
-1.2018203e-13
3.817367e-06
-1.5657734e-13
3.817367e-06
-1.9824304e-13
3.8173671e-06
-2.4168675e-13
3.8173672e-06
-2.7929148e-13
3.8173673e-06
-2.9648674e-13
3.8173674e-06
-2.6750309e-13
3.8173674e-06
-1.4895139e-13
3.8173671e-06
1.2972282e-13
3.8173666e-06
6.8042746e-13
3.8173655e-06
1.6760189e-12
3.8173635e-06
3.3778391e-12
3.81736e-06
6.1746582e-12
3.8173542e-06
1.0635214e-11
3.8173449e-06
1.757881e-11
3.8173303e-06
2.8167201e-11
3.817308e-06
4.4022141e-11
3.8172747e-06
6.7368806e-11
3.8172256e-06
1.0120213e-10
3.8171546e-06
1.4945711e-10
3.8170541e-06
2.1713972e-10
3.8169144e-06
3.1030962e-10
3.8167253e-06
4.3562527e-10
3.8164767e-06
5.9886286e-10
3.8161631e-06
8.021508e-10
3.8157904e-06
1.038178e-09
3.8153921e-06
1.2613146e-09
1.2696912e-09
5.0118764e-06
-1.3904056e-09
5.0120971e-06
-1.410682e-09
5.0123306e-06
-1.2279614e-09
5.0125508e-06
-1.0016529e-09
5.0127427e-06
-7.8688474e-10
5.0129009e-06
-6.0057615e-10
5.0130262e-06
-4.4772492e-10
5.0131222e-06
-3.271766e-10
5.0131939e-06
-2.3478227e-10
5.0132462e-06
-1.6554627e-10
5.0132836e-06
-1.1466167e-10
5.0133098e-06
-7.7923999e-11
5.0133277e-06
-5.1852128e-11
5.0133398e-06
-3.3668359e-11
5.0133477e-06
-2.1216483e-11
5.0133527e-06
-1.2859557e-11
5.0133558e-06
-7.3786186e-12
5.0133576e-06
-3.8818666e-12
5.0133585e-06
-1.7278278e-12
5.013359e-06
-4.6282238e-13
5.0133591e-06
2.286792e-13
5.0133591e-06
5.6204347e-13
5.013359e-06
6.8088326e-13
5.0133589e-06
6.78634e-13
5.0133587e-06
6.144961e-13
5.0133586e-06
5.245789e-13
5.0133585e-06
4.2981033e-13
5.0133584e-06
3.4136388e-13
5.0133583e-06
2.6439547e-13
5.0133582e-06
2.0046947e-13
5.0133582e-06
1.4918862e-13
5.0133582e-06
1.0915981e-13
5.0133581e-06
7.8635766e-14
5.0133581e-06
5.5821968e-14
5.0133581e-06
3.9095322e-14
5.0133581e-06
2.7042123e-14
5.0133581e-06
1.8516828e-14
5.0133581e-06
1.2588969e-14
5.0133581e-06
8.5534283e-15
5.0133581e-06
5.8581787e-15
5.0133581e-06
4.1088489e-15
5.0133581e-06
3.000634e-15
5.0133581e-06
2.3308578e-15
5.0133581e-06
1.9409779e-15
5.0133581e-06
1.7362327e-15
5.0133581e-06
1.6372651e-15
5.0133581e-06
1.6066324e-15
5.0133581e-06
1.6046139e-15
5.0133581e-06
1.6217228e-15
5.0133581e-06
1.6374303e-15
5.0133581e-06
1.6543701e-15
5.0133581e-06
1.6604564e-15
5.0133581e-06
1.6635238e-15
5.0133581e-06
1.6546724e-15
5.0133581e-06
1.6431425e-15
5.0133581e-06
1.6211668e-15
5.0133581e-06
1.5982919e-15
5.0133581e-06
1.5664689e-15
5.0133581e-06
1.5355688e-15
5.0133581e-06
1.4975292e-15
5.0133581e-06
1.4613567e-15
5.0133581e-06
1.4190989e-15
5.0133581e-06
1.3796804e-15
5.0133581e-06
1.3347479e-15
5.0133581e-06
1.2932403e-15
5.0133581e-06
1.2469368e-15
5.0133581e-06
1.204241e-15
5.0133581e-06
1.1574495e-15
5.0133581e-06
1.1143918e-15
5.0133581e-06
1.0675093e-15
5.0133581e-06
1.0249914e-15
5.0133581e-06
9.7896227e-16
5.0133581e-06
9.3739421e-16
5.0133581e-06
8.927976e-16
5.0133581e-06
8.5292396e-16
5.0133581e-06
8.1028665e-16
5.0133581e-06
7.7239322e-16
5.0133581e-06
7.3216502e-16
5.0133581e-06
6.9700492e-16
5.0133581e-06
6.5963939e-16
5.0133581e-06
6.2714449e-16
5.0133581e-06
5.9235066e-16
5.0133581e-06
5.626539e-16
5.0133581e-06
5.3073992e-16
5.0133581e-06
5.0367963e-16
5.0133581e-06
4.7427088e-16
5.0133581e-06
4.4937229e-16
5.0133581e-06
4.2205656e-16
5.0133581e-06
3.9878937e-16
5.0133581e-06
3.7287438e-16
5.0133581e-06
3.5079177e-16
5.0133581e-06
3.2576103e-16
5.0133581e-06
3.0450558e-16
5.0133581e-06
2.7993201e-16
5.0133581e-06
2.5856266e-16
5.0133581e-06
2.339666e-16
5.0133581e-06
2.1256168e-16
5.0133581e-06
1.8753404e-16
5.0133581e-06
1.656223e-16
5.0133581e-06
1.4015547e-16
5.0133581e-06
1.1777379e-16
5.0133581e-06
9.1688101e-17
5.0133581e-06
6.8655115e-17
5.0133581e-06
4.1975381e-17
5.0133581e-06
1.8334627e-17
5.0133581e-06
-9.1412313e-18
5.0133581e-06
-3.3583205e-17
5.0133581e-06
-6.1877048e-17
5.0133581e-06
-8.7379265e-17
5.0133581e-06
-1.1693114e-16
5.0133581e-06
-1.4361601e-16
5.0133581e-06
-1.7444969e-16
5.0133581e-06
-2.027429e-16
5.0133581e-06
-2.3566984e-16
5.0133581e-06
-2.659297e-16
5.0133581e-06
-3.0109019e-16
5.0133581e-06
-3.3373184e-16
5.0133581e-06
-3.7130789e-16
5.0133581e-06
-4.0621446e-16
5.0133581e-06
-4.4632022e-16
5.0133581e-06
-4.8400655e-16
5.0133581e-06
-5.2679632e-16
5.0133581e-06
-5.6679813e-16
5.0133581e-06
-6.1170161e-16
5.0133581e-06
-6.5383398e-16
5.0133581e-06
-7.010435e-16
5.0133581e-06
-7.4493687e-16
5.0133581e-06
-7.9369426e-16
5.0133581e-06
-8.3917991e-16
5.0133581e-06
-8.8940099e-16
5.0133581e-06
-9.3585555e-16
5.0133581e-06
-9.8706137e-16
5.0133581e-06
-1.034399e-15
5.0133581e-06
-1.0865043e-15
5.0133581e-06
-1.1346782e-15
5.0133581e-06
-1.1876126e-15
5.0133581e-06
-1.2362323e-15
5.0133581e-06
-1.2898845e-15
5.0133581e-06
-1.3388523e-15
5.0133581e-06
-1.3927274e-15
5.0133581e-06
-1.442006e-15
5.0133581e-06
-1.4958314e-15
5.0133581e-06
-1.5446066e-15
5.0133581e-06
-1.5979159e-15
5.0133581e-06
-1.6455722e-15
5.0133581e-06
-1.6971557e-15
5.0133581e-06
-1.7422022e-15
5.0133581e-06
-1.7904972e-15
5.0133581e-06
-1.8317135e-15
5.0133581e-06
-1.8759618e-15
5.0133581e-06
-1.9127935e-15
5.0133581e-06
-1.9534466e-15
5.0133581e-06
-1.989164e-15
5.0133581e-06
-2.0336943e-15
5.0133581e-06
-2.0821335e-15
5.0133581e-06
-2.1557145e-15
5.0133581e-06
-2.2600063e-15
5.0133581e-06
-2.4311669e-15
5.0133581e-06
-2.6980556e-15
5.0133581e-06
-3.1307038e-15
5.0133581e-06
-3.8058232e-15
5.0133581e-06
-4.8605815e-15
5.0133581e-06
-6.4636625e-15
5.0133581e-06
-8.8754585e-15
5.0133581e-06
-1.242697e-14
5.0133581e-06
-1.7585194e-14
5.0133581e-06
-2.4935663e-14
5.0133581e-06
-3.5240875e-14
5.0133581e-06
-4.9405044e-14
5.0133581e-06
-6.84865e-14
5.0133582e-06
-9.3574975e-14
5.0133582e-06
-1.2564034e-13
5.0133582e-06
-1.651402e-13
5.0133583e-06
-2.1141779e-13
5.0133584e-06
-2.6159998e-13
5.0133584e-06
-3.0888465e-13
5.0133585e-06
-3.3976203e-13
5.0133585e-06
-3.2978491e-13
5.0133585e-06
-2.3713126e-13
5.0133583e-06
6.8645308e-15
5.0133579e-06
5.1207558e-13
5.0133572e-06
1.4494266e-12
5.0133558e-06
3.0786154e-12
5.0133534e-06
5.7874216e-12
5.0133494e-06
1.0144594e-11
5.0133431e-06
1.6970444e-11
5.0133332e-06
2.7427943e-11
5.0133183e-06
4.3137309e-11
5.013296e-06
6.6312643e-11
5.0132634e-06
9.9914516e-11
5.0132168e-06
1.4779751e-10
5.0131515e-06
2.1480837e-10
5.0130619e-06
3.0674294e-10
5.0129422e-06
4.2998281e-10
5.0127874e-06
5.9043797e-10
5.0125951e-06
7.9116177e-10
5.0123688e-06
1.0283967e-09
5.0121226e-06
1.2844156e-09
5.0118829e-06
1.5010385e-09
1.4901996e-09
6.0303543e-06
-1.4386989e-09
6.0304134e-06
-1.4697651e-09
6.0304984e-06
-1.3129469e-09
6.0305964e-06
-1.0995807e-09
6.0306938e-06
-8.8431839e-10
6.0307822e-06
-6.8894723e-10
6.0308574e-06
-5.2289216e-10
6.0309183e-06
-3.8814444e-10
6.030966e-06
-2.8244066e-10
6.0310021e-06
-2.0169667e-10
6.0310288e-06
-1.4138591e-10
6.0310481e-06
-9.7228107e-11
6.0310618e-06
-6.5495095e-11
6.0310712e-06
-4.3103679e-11
6.0310776e-06
-2.7595854e-11
6.0310818e-06
-1.7066643e-11
6.0310845e-06
-1.0073726e-11
6.0310861e-06
-5.5471639e-12
6.0310871e-06
-2.7080054e-12
6.0310877e-06
-9.9927344e-13
6.0310879e-06
-2.9879663e-14
6.031088e-06
4.701093e-13
6.031088e-06
6.8303688e-13
6.031088e-06
7.2888297e-13
6.0310879e-06
6.8474672e-13
6.0310878e-06
5.9855585e-13
6.0310877e-06
4.9880574e-13
6.0310877e-06
4.0138023e-13
6.0310876e-06
3.1420842e-13
6.0310876e-06
2.4040875e-13
6.0310876e-06
1.803339e-13
6.0310875e-06
1.3289226e-13
6.0310875e-06
9.634503e-14
6.0310875e-06
6.879123e-14
6.0310875e-06
4.8414823e-14
6.0310875e-06
3.3620731e-14
6.0310875e-06
2.306723e-14
6.0310875e-06
1.5675192e-14
6.0310875e-06
1.0592577e-14
6.0310875e-06
7.1712443e-15
6.0310875e-06
4.9195296e-15
6.0310875e-06
3.4798306e-15
6.0310875e-06
2.5888803e-15
6.0310875e-06
2.064058e-15
6.0310875e-06
1.7730243e-15
6.0310875e-06
1.629753e-15
6.0310875e-06
1.5719001e-15
6.0310875e-06
1.5629068e-15
6.0310875e-06
1.5758648e-15
6.0310875e-06
1.5978793e-15
6.0310875e-06
1.617676e-15
6.0310875e-06
1.6333e-15
6.0310875e-06
1.6398877e-15
6.0310875e-06
1.6396814e-15
6.0310875e-06
1.6305114e-15
6.0310875e-06
1.6156005e-15
6.0310875e-06
1.5935227e-15
6.0310875e-06
1.5676598e-15
6.0310875e-06
1.5363364e-15
6.0310875e-06
1.5029805e-15
6.0310875e-06
1.4654423e-15
6.0310875e-06
1.4271681e-15
6.0310875e-06
1.3857836e-15
6.0310875e-06
1.3443621e-15
6.0310875e-06
1.3005231e-15
6.0310875e-06
1.2572793e-15
6.0310875e-06
1.2123653e-15
6.0310875e-06
1.1681361e-15
6.0310875e-06
1.1227933e-15
6.0310875e-06
1.0786277e-15
6.0310875e-06
1.03344e-15
6.0310875e-06
9.8975879e-16
6.0310875e-06
9.4532622e-16
6.0310875e-06
9.0300668e-16
6.0310875e-06
8.6046348e-16
6.0310875e-06
8.1994808e-16
6.0310875e-06
7.7943229e-16
6.0310875e-06
7.4120301e-16
6.0310875e-06
7.0329194e-16
6.0310875e-06
6.6785971e-16
6.0310875e-06
6.3271754e-16
6.0310875e-06
6.0002699e-16
6.0310875e-06
5.6772525e-16
6.0310875e-06
5.3776151e-16
6.0310875e-06
5.0809315e-16
6.0310875e-06
4.8063248e-16
6.0310875e-06
4.5326352e-16
6.0310875e-06
4.2781805e-16
6.0310875e-06
4.0220842e-16
6.0310875e-06
3.7817027e-16
6.0310875e-06
3.5384332e-16
6.0310875e-06
3.3073528e-16
6.0310875e-06
3.0685526e-16
6.0310875e-06
2.8410694e-16
6.0310875e-06
2.6046049e-16
6.0310875e-06
2.3768912e-16
6.0310875e-06
2.1376995e-16
6.0310875e-06
1.9063067e-16
6.0310875e-06
1.6621281e-16
6.0310875e-06
1.4262233e-16
6.0310875e-06
1.1778312e-16
6.0310875e-06
9.3352735e-17
6.0310875e-06
6.787883e-17
6.0310875e-06
4.2953187e-17
6.0310875e-06
1.6595587e-17
6.0310875e-06
-9.0638227e-18
6.0310875e-06
-3.6038342e-17
6.0310875e-06
-6.2546745e-17
6.0310875e-06
-9.069148e-17
6.0310875e-06
-1.1829127e-16
6.0310875e-06
-1.476662e-16
6.0310875e-06
-1.7677301e-16
6.0310875e-06
-2.0767115e-16
6.0310875e-06
-2.3850706e-16
6.0310875e-06
-2.7144364e-16
6.0310875e-06
-3.0432099e-16
6.0310875e-06
-3.3968366e-16
6.0310875e-06
-3.7513849e-16
6.0310875e-06
-4.128933e-16
6.0310875e-06
-4.5079143e-16
6.0310875e-06
-4.9113484e-16
6.0310875e-06
-5.313989e-16
6.0310875e-06
-5.7411397e-16
6.0310875e-06
-6.166503e-16
6.0310875e-06
-6.6157029e-16
6.0310875e-06
-7.0630157e-16
6.0310875e-06
-7.5316195e-16
6.0310875e-06
-7.9946794e-16
6.0310875e-06
-8.4770329e-16
6.0310875e-06
-8.9529155e-16
6.0310875e-06
-9.4463998e-16
6.0310875e-06
-9.9334926e-16
6.0310875e-06
-1.0436825e-15
6.0310875e-06
-1.0929994e-15
6.0310875e-06
-1.1438942e-15
6.0310875e-06
-1.1936725e-15
6.0310875e-06
-1.2451231e-15
6.0310875e-06
-1.2953225e-15
6.0310875e-06
-1.3469794e-15
6.0310875e-06
-1.3970692e-15
6.0310875e-06
-1.4484384e-15
6.0310875e-06
-1.4981144e-15
6.0310875e-06
-1.5487354e-15
6.0310875e-06
-1.5971682e-15
6.0310875e-06
-1.6460861e-15
6.0310875e-06
-1.6919629e-15
6.0310875e-06
-1.7377502e-15
6.0310875e-06
-1.7798287e-15
6.0310875e-06
-1.8211275e-15
6.0310875e-06
-1.8583841e-15
6.0310875e-06
-1.8955182e-15
6.0310875e-06
-1.9300824e-15
6.0310875e-06
-1.9679718e-15
6.0310875e-06
-2.0107898e-15
6.0310875e-06
-2.0694525e-15
6.0310875e-06
-2.1544384e-15
6.0310875e-06
-2.2897728e-15
6.0310875e-06
-2.5052774e-15
6.0310875e-06
-2.8537809e-15
6.0310875e-06
-3.4059744e-15
6.0310875e-06
-4.2728356e-15
6.0310875e-06
-5.6053197e-15
6.0310875e-06
-7.623462e-15
6.0310875e-06
-1.0623091e-14
6.0310875e-06
-1.5011472e-14
6.0310875e-06
-2.1319273e-14
6.0310875e-06
-3.0234562e-14
6.0310875e-06
-4.2604798e-14
6.0310875e-06
-5.94382e-14
6.0310875e-06
-8.1839708e-14
6.0310875e-06
-1.1088964e-13
6.0310876e-06
-1.4736404e-13
6.0310876e-06
-1.9125281e-13
6.0310876e-06
-2.4090212e-13
6.0310877e-06
-2.9162071e-13
6.0310877e-06
-3.3342912e-13
6.0310877e-06
-3.4756384e-13
6.0310877e-06
-3.0112917e-13
6.0310876e-06
-1.3909496e-13
6.0310873e-06
2.2759366e-13
6.0310869e-06
9.3907524e-13
6.0310861e-06
2.2104011e-12
6.0310849e-06
4.3649415e-12
6.0310828e-06
7.8801139e-12
6.0310795e-06
1.3448331e-11
6.0310744e-06
2.2056071e-11
6.0310667e-06
3.5083304e-11
6.0310554e-06
5.4422623e-11
6.0310392e-06
8.2612634e-11
6.0310161e-06
1.2296969e-10
6.0309842e-06
1.7968399e-10
6.0309412e-06
2.5781394e-10
6.0308849e-06
3.6306067e-10
6.0308138e-06
5.0111733e-10
6.030728e-06
6.7622405e-10
6.0306307e-06
8.8840341e-10
6.0305298e-06
1.1293351e-09
6.0304383e-06
1.3758982e-09
6.0303701e-06
1.5692365e-09
1.5478704e-09
6.8739125e-06
-1.3435034e-09
6.8738201e-06
-1.3773549e-09
6.8737585e-06
-1.2513971e-09
6.8737266e-06
-1.0676564e-09
6.873716e-06
-8.7368553e-10
6.8737185e-06
-6.914443e-10
6.8737278e-06
-5.3219842e-10
6.8737396e-06
-4.0000694e-10
6.8737515e-06
-2.9434183e-10
6.8737622e-06
-2.123503e-10
6.8737711e-06
-1.5028618e-10
6.8737782e-06
-1.0431679e-10
6.8737836e-06
-7.0940649e-11
6.8737877e-06
-4.7166098e-11
6.8737906e-06
-3.0550649e-11
6.8737927e-06
-1.9166542e-11
6.8737942e-06
-1.1532929e-11
6.8737952e-06
-6.5380898e-12
6.8737958e-06
-3.3643495e-12
6.8737962e-06
-1.4216991e-12
6.8737965e-06
-2.9228657e-13
6.8737967e-06
3.1444454e-13
6.8737968e-06
5.9658333e-13
6.8737968e-06
6.859875e-13
6.8737968e-06
6.6818435e-13
6.8737968e-06
5.9702756e-13
6.8737968e-06
5.0511628e-13
6.8737968e-06