/*--------------------------------*- C++ -*----------------------------------*\
| =========                 |                                                 |
| \\      /  F ield         | OpenFOAM: The Open Source CFD Toolbox           |
|  \\    /   O peration     | Version:  2406                                  |
|   \\  /    A nd           | Website:  www.openfoam.com                      |
|    \\/     M anipulation  |                                                 |
\*---------------------------------------------------------------------------*/
FoamFile
{
    version     2.0;
    format      ascii;
    arch        "LSB;label=32;scalar=64";
    class       volVectorField;
    location    "530";
    object      U;
}
// * * * * * * * * * * * * * * * * * * * * * * * * * * * * * * * * * * * * * //

dimensions      [0 1 -1 0 0 0 0];

internalField   nonuniform List<vector> 
4000
(
(0.017496781 -3.1506681e-06 0)
(0.017503876 -2.2080882e-06 0)
(0.017511136 -1.1966606e-06 0)
(0.017515143 -7.7284981e-07 0)
(0.017517859 -4.8717947e-07 0)
(0.017519764 -3.0199528e-07 0)
(0.017521067 -1.8781916e-07 0)
(0.017521949 -1.1669266e-07 0)
(0.017522542 -7.169598e-08 0)
(0.017522937 -4.3139603e-08 0)
(0.017523196 -2.5088269e-08 0)
(0.017523363 -1.3798583e-08 0)
(0.017523467 -6.8716345e-09 0)
(0.017523529 -2.7511164e-09 0)
(0.017523565 -4.1559697e-10 0)
(0.017523584 8.0478547e-10 0)
(0.017523593 1.3482359e-09 0)
(0.017523595 1.4975755e-09 0)
(0.017523594 1.4336981e-09 0)
(0.017523592 1.2684491e-09 0)
(0.017523588 1.0664093e-09 0)
(0.017523585 8.6404002e-10 0)
(0.017523582 6.8027183e-10 0)
(0.01752358 5.235229e-10 0)
(0.017523578 3.9505468e-10 0)
(0.017523576 2.9335797e-10 0)
(0.017523575 2.1457998e-10 0)
(0.017523574 1.5520326e-10 0)
(0.017523573 1.1098912e-10 0)
(0.017523573 7.899738e-11 0)
(0.017523573 5.5917667e-11 0)
(0.017523572 3.9905638e-11 0)
(0.017523572 2.8656385e-11 0)
(0.017523572 2.1261271e-11 0)
(0.017523572 1.6166306e-11 0)
(0.017523572 1.3093536e-11 0)
(0.017523572 1.0971162e-11 0)
(0.017523572 9.9062701e-12 0)
(0.017523572 9.1016051e-12 0)
(0.017523572 8.8789205e-12 0)
(0.017523572 8.5891882e-12 0)
(0.017523572 8.6615895e-12 0)
(0.017523572 8.5251493e-12 0)
(0.017523572 8.6624926e-12 0)
(0.017523572 8.5364536e-12 0)
(0.017523572 8.6505699e-12 0)
(0.017523572 8.4873878e-12 0)
(0.017523572 8.5550606e-12 0)
(0.017523572 8.3475346e-12 0)
(0.017523572 8.3716436e-12 0)
(0.017523572 8.1275502e-12 0)
(0.017523572 8.1158081e-12 0)
(0.017523572 7.8432438e-12 0)
(0.017523572 7.806725e-12 0)
(0.017523572 7.5151521e-12 0)
(0.017523572 7.4582942e-12 0)
(0.017523572 7.1565181e-12 0)
(0.017523572 7.0844008e-12 0)
(0.017523572 6.77632e-12 0)
(0.017523572 6.6933261e-12 0)
(0.017523572 6.3776498e-12 0)
(0.017523572 6.290235e-12 0)
(0.017523572 5.9718401e-12 0)
(0.017523572 5.8783628e-12 0)
(0.017523572 5.5602796e-12 0)
(0.017523572 5.4631555e-12 0)
(0.017523572 5.1472497e-12 0)
(0.017523572 5.0504304e-12 0)
(0.017523572 4.7372746e-12 0)
(0.017523572 4.6394024e-12 0)
(0.017523572 4.3338745e-12 0)
(0.017523572 4.2376344e-12 0)
(0.017523572 3.9416126e-12 0)
(0.017523572 3.853516e-12 0)
(0.017523572 3.5673059e-12 0)
(0.017523572 3.4861135e-12 0)
(0.017523572 3.214785e-12 0)
(0.017523572 3.1456038e-12 0)
(0.017523572 2.8889596e-12 0)
(0.017523572 2.827204e-12 0)
(0.017523572 2.5859059e-12 0)
(0.017523572 2.5409542e-12 0)
(0.017523572 2.3116505e-12 0)
(0.017523572 2.2763657e-12 0)
(0.017523572 2.0619118e-12 0)
(0.017523572 2.0379673e-12 0)
(0.017523572 1.8315037e-12 0)
(0.017523572 1.8172573e-12 0)
(0.017523572 1.6213163e-12 0)
(0.017523572 1.6101071e-12 0)
(0.017523572 1.4185739e-12 0)
(0.017523572 1.4151834e-12 0)
(0.017523572 1.2288393e-12 0)
(0.017523572 1.2217801e-12 0)
(0.017523572 1.0376971e-12 0)
(0.017523572 1.0329246e-12 0)
(0.017523572 8.4437639e-13 0)
(0.017523572 8.3828071e-13 0)
(0.017523572 6.5232262e-13 0)
(0.017523572 6.4462008e-13 0)
(0.017523572 4.5400983e-13 0)
(0.017523572 4.460032e-13 0)
(0.017523572 2.5232696e-13 0)
(0.017523572 2.4307644e-13 0)
(0.017523572 4.5480127e-14 0)
(0.017523572 3.2553728e-14 0)
(0.017523572 -1.6656232e-13 0)
(0.017523572 -1.8185567e-13 0)
(0.017523572 -3.8649326e-13 0)
(0.017523572 -4.0527822e-13 0)
(0.017523572 -6.1739623e-13 0)
(0.017523572 -6.4498971e-13 0)
(0.017523572 -8.6562733e-13 0)
(0.017523572 -9.0198401e-13 0)
(0.017523572 -1.1313436e-12 0)
(0.017523572 -1.1777152e-12 0)
(0.017523572 -1.4218284e-12 0)
(0.017523572 -1.4792756e-12 0)
(0.017523572 -1.7350669e-12 0)
(0.017523572 -1.8025943e-12 0)
(0.017523572 -2.0766818e-12 0)
(0.017523572 -2.1566569e-12 0)
(0.017523572 -2.4393227e-12 0)
(0.017523572 -2.525467e-12 0)
(0.017523572 -2.8240606e-12 0)
(0.017523572 -2.9189755e-12 0)
(0.017523572 -3.2249106e-12 0)
(0.017523572 -3.3234325e-12 0)
(0.017523572 -3.6412754e-12 0)
(0.017523572 -3.7437445e-12 0)
(0.017523572 -4.0693426e-12 0)
(0.017523572 -4.173476e-12 0)
(0.017523572 -4.5056838e-12 0)
(0.017523572 -4.6136611e-12 0)
(0.017523572 -4.9553423e-12 0)
(0.017523572 -5.0640669e-12 0)
(0.017523572 -5.417146e-12 0)
(0.017523572 -5.5306149e-12 0)
(0.017523572 -5.8935998e-12 0)
(0.017523572 -6.0097204e-12 0)
(0.017523572 -6.3810422e-12 0)
(0.017523572 -6.5041006e-12 0)
(0.017523572 -6.8864018e-12 0)
(0.017523572 -7.0136495e-12 0)
(0.017523572 -7.4058238e-12 0)
(0.017523572 -7.5372325e-12 0)
(0.017523572 -7.9350698e-12 0)
(0.017523572 -8.0635965e-12 0)
(0.017523572 -8.4630736e-12 0)
(0.017523572 -8.5875947e-12 0)
(0.017523572 -8.985909e-12 0)
(0.017523572 -9.0965958e-12 0)
(0.017523572 -9.4807089e-12 0)
(0.017523572 -9.5713348e-12 0)
(0.017523572 -9.9308923e-12 0)
(0.017523572 -9.9856309e-12 0)
(0.017523572 -1.0306592e-11 0)
(0.017523572 -1.0316702e-11 0)
(0.017523572 -1.0596978e-11 0)
(0.017523572 -1.0568178e-11 0)
(0.017523572 -1.0836764e-11 0)
(0.017523572 -1.0840822e-11 0)
(0.017523572 -1.1217403e-11 0)
(0.017523572 -1.1470744e-11 0)
(0.017523572 -1.230498e-11 0)
(0.017523572 -1.3356583e-11 0)
(0.017523572 -1.5482363e-11 0)
(0.017523572 -1.8576909e-11 0)
(0.017523572 -2.377543e-11 0)
(0.017523572 -3.1433916e-11 0)
(0.017523572 -4.3211774e-11 0)
(0.017523573 -6.0183467e-11 0)
(0.017523573 -8.4818924e-11 0)
(0.017523573 -1.1922052e-10 0)
(0.017523574 -1.6687204e-10 0)
(0.017523575 -2.309109e-10 0)
(0.017523576 -3.1538417e-10 0)
(0.017523577 -4.2317211e-10 0)
(0.017523579 -5.5606872e-10 0)
(0.017523581 -7.1145905e-10 0)
(0.017523583 -8.7989874e-10 0)
(0.017523584 -1.0392281e-09 0)
(0.017523585 -1.1443555e-09 0)
(0.017523583 -1.1124773e-09 0)
(0.017523577 -7.9869464e-10 0)
(0.017523562 3.4955206e-11 0)
(0.017523534 1.781693e-09 0)
(0.017523484 5.0687205e-09 0)
(0.017523398 1.0902381e-08 0)
(0.017523257 2.086708e-08 0)
(0.017523032 3.7484325e-08 0)
(0.017522677 6.4764999e-08 0)
(0.017522129 1.0916335e-07 0)
(0.017521292 1.8126992e-07 0)
(0.017520023 2.9949556e-07 0)
(0.017518124 4.9439054e-07 0)
(0.017515359 7.98337e-07 0)
(0.017511224 1.2461487e-06 0)
(0.017503644 2.3120795e-06 0)
(0.017496112 3.3165004e-06 0)
(0.04874756 -1.2725573e-05 0)
(0.048754267 -1.1994624e-05 0)
(0.048765809 -8.8380214e-06 0)
(0.048772821 -6.2643925e-06 0)
(0.048778051 -4.4025489e-06 0)
(0.048782009 -3.0660675e-06 0)
(0.048784892 -2.1160627e-06 0)
(0.048786947 -1.4473802e-06 0)
(0.048788393 -9.7946214e-07 0)
(0.048789395 -6.5394781e-07 0)
(0.048790078 -4.292899e-07 0)
(0.048790535 -2.7584362e-07 0)
(0.048790835 -1.7239854e-07 0)
(0.048791027 -1.0378608e-07 0)
(0.048791145 -5.9188346e-08 0)
(0.048791216 -3.0934894e-08 0)
(0.048791254 -1.3630562e-08 0)
(0.048791274 -3.5215361e-09 0)
(0.048791281 1.9726478e-09 0)
(0.048791282 4.6006651e-09 0)
(0.048791279 5.52045e-09 0)
(0.048791275 5.4788969e-09 0)
(0.04879127 4.9483925e-09 0)
(0.048791265 4.2171831e-09 0)
(0.048791261 3.4514277e-09 0)
(0.048791258 2.7395025e-09 0)
(0.048791255 2.121432e-09 0)
(0.048791253 1.6091551e-09 0)
(0.048791252 1.1987111e-09 0)
(0.048791251 8.7882079e-10 0)
(0.04879125 6.3501912e-10 0)
(0.048791249 4.5307538e-10 0)
(0.048791249 3.1965908e-10 0)
(0.048791248 2.2369867e-10 0)
(0.048791248 1.5574773e-10 0)
(0.048791248 1.0863619e-10 0)
(0.048791248 7.6454924e-11 0)
(0.048791248 5.5077988e-11 0)
(0.048791248 4.107875e-11 0)
(0.048791248 3.2311511e-11 0)
(0.048791248 2.6881716e-11 0)
(0.048791248 2.3805627e-11 0)
(0.048791248 2.2051316e-11 0)
(0.048791248 2.1270777e-11 0)
(0.048791248 2.0876595e-11 0)
(0.048791248 2.0846662e-11 0)
(0.048791248 2.0816011e-11 0)
(0.048791248 2.0909117e-11 0)
(0.048791248 2.0862899e-11 0)
(0.048791248 2.0861363e-11 0)
(0.048791248 2.0690764e-11 0)
(0.048791248 2.0552481e-11 0)
(0.048791248 2.0253635e-11 0)
(0.048791248 2.0000736e-11 0)
(0.048791248 1.9600848e-11 0)
(0.048791248 1.9261857e-11 0)
(0.048791248 1.8788697e-11 0)
(0.048791248 1.8392703e-11 0)
(0.048791248 1.7872337e-11 0)
(0.048791248 1.7433587e-11 0)
(0.048791248 1.6886888e-11 0)
(0.048791248 1.6421858e-11 0)
(0.048791248 1.5857675e-11 0)
(0.048791248 1.5379402e-11 0)
(0.048791248 1.4800069e-11 0)
(0.048791248 1.4313019e-11 0)
(0.048791248 1.3732148e-11 0)
(0.048791248 1.3242544e-11 0)
(0.048791248 1.266409e-11 0)
(0.048791248 1.2181142e-11 0)
(0.048791248 1.1613927e-11 0)
(0.048791248 1.1143976e-11 0)
(0.048791248 1.0593438e-11 0)
(0.048791248 1.0139457e-11 0)
(0.048791248 9.6098124e-12 0)
(0.048791248 9.1801819e-12 0)
(0.048791248 8.6832916e-12 0)
(0.048791248 8.2837683e-12 0)
(0.048791248 7.8178017e-12 0)
(0.048791248 7.4515592e-12 0)
(0.048791248 7.0201704e-12 0)
(0.048791248 6.6858443e-12 0)
(0.048791248 6.2904492e-12 0)
(0.048791248 5.9891174e-12 0)
(0.048791248 5.6224518e-12 0)
(0.048791248 5.3480439e-12 0)
(0.048791248 5.0130787e-12 0)
(0.048791248 4.7608267e-12 0)
(0.048791248 4.4439901e-12 0)
(0.048791248 4.2078221e-12 0)
(0.048791248 3.907119e-12 0)
(0.048791248 3.6804106e-12 0)
(0.048791248 3.3861116e-12 0)
(0.048791248 3.1647506e-12 0)
(0.048791248 2.8733314e-12 0)
(0.048791248 2.653236e-12 0)
(0.048791248 2.3588309e-12 0)
(0.048791248 2.1354227e-12 0)
(0.048791248 1.8373957e-12 0)
(0.048791248 1.6105176e-12 0)
(0.048791248 1.307733e-12 0)
(0.048791248 1.0761963e-12 0)
(0.048791248 7.6624688e-13 0)
(0.048791248 5.236796e-13 0)
(0.048791248 2.0819563e-13 0)
(0.048791248 -3.9850813e-14 0)
(0.048791248 -3.6698252e-13 0)
(0.048791248 -6.2283637e-13 0)
(0.048791248 -9.6043603e-13 0)
(0.048791248 -1.2326449e-12 0)
(0.048791248 -1.5843276e-12 0)
(0.048791248 -1.8716664e-12 0)
(0.048791248 -2.2447842e-12 0)
(0.048791248 -2.5539867e-12 0)
(0.048791248 -2.9540719e-12 0)
(0.048791248 -3.2926415e-12 0)
(0.048791248 -3.7231773e-12 0)
(0.048791248 -4.0917473e-12 0)
(0.048791248 -4.5520407e-12 0)
(0.048791248 -4.9511745e-12 0)
(0.048791248 -5.4442324e-12 0)
(0.048791248 -5.8739154e-12 0)
(0.048791248 -6.3972581e-12 0)
(0.048791248 -6.8540912e-12 0)
(0.048791248 -7.4047486e-12 0)
(0.048791248 -7.8824857e-12 0)
(0.048791248 -8.4552572e-12 0)
(0.048791248 -8.9543333e-12 0)
(0.048791248 -9.5446524e-12 0)
(0.048791248 -1.0057397e-11 0)
(0.048791248 -1.0663034e-11 0)
(0.048791248 -1.1188592e-11 0)
(0.048791248 -1.1810033e-11 0)
(0.048791248 -1.2344763e-11 0)
(0.048791248 -1.298035e-11 0)
(0.048791248 -1.3530026e-11 0)
(0.048791248 -1.4179468e-11 0)
(0.048791248 -1.474115e-11 0)
(0.048791248 -1.5409498e-11 0)
(0.048791248 -1.5982274e-11 0)
(0.048791248 -1.6663341e-11 0)
(0.048791248 -1.7250534e-11 0)
(0.048791248 -1.7945158e-11 0)
(0.048791248 -1.8542512e-11 0)
(0.048791248 -1.9245148e-11 0)
(0.048791248 -1.9840505e-11 0)
(0.048791248 -2.0540741e-11 0)
(0.048791248 -2.112808e-11 0)
(0.048791248 -2.1811754e-11 0)
(0.048791248 -2.2371317e-11 0)
(0.048791248 -2.3019808e-11 0)
(0.048791248 -2.3535115e-11 0)
(0.048791248 -2.4133232e-11 0)
(0.048791248 -2.4595614e-11 0)
(0.048791248 -2.5153835e-11 0)
(0.048791248 -2.5604487e-11 0)
(0.048791248 -2.6218343e-11 0)
(0.048791248 -2.6833359e-11 0)
(0.048791248 -2.7821834e-11 0)
(0.048791248 -2.915093e-11 0)
(0.048791248 -3.1377387e-11 0)
(0.048791248 -3.4764545e-11 0)
(0.048791248 -4.0280475e-11 0)
(0.048791248 -4.8770851e-11 0)
(0.048791248 -6.2005061e-11 0)
(0.048791248 -8.1916898e-11 0)
(0.048791248 -1.117197e-10 0)
(0.048791248 -1.5519702e-10 0)
(0.048791248 -2.1785896e-10 0)
(0.048791249 -3.0623173e-10 0)
(0.048791249 -4.2882808e-10 0)
(0.04879125 -5.9516769e-10 0)
(0.04879125 -8.1599078e-10 0)
(0.048791251 -1.1010357e-09 0)
(0.048791253 -1.4569793e-09 0)
(0.048791254 -1.8815836e-09 0)
(0.048791256 -2.3556376e-09 0)
(0.048791259 -2.8277369e-09 0)
(0.048791261 -3.1919509e-09 0)
(0.048791264 -3.2513656e-09 0)
(0.048791265 -2.6657096e-09 0)
(0.048791263 -8.6663052e-10 0)
(0.048791257 3.066576e-09 0)
(0.048791242 1.058384e-08 0)
(0.048791211 2.3917848e-08 0)
(0.048791156 4.6451976e-08 0)
(0.048791061 8.3243203e-08 0)
(0.048790904 1.4175554e-07 0)
(0.048790652 2.3289483e-07 0)
(0.048790259 3.7245427e-07 0)
(0.048789656 5.8315989e-07 0)
(0.04878875 8.9753377e-07 0)
(0.04878741 1.3619492e-06 0)
(0.048785456 2.0421903e-06 0)
(0.048782649 3.0295154e-06 0)
(0.048778709 4.4431835e-06 0)
(0.048773393 6.4358068e-06 0)
(0.048766161 9.1989522e-06 0)
(0.048754044 1.262237e-05 0)
(0.048746754 1.3466982e-05 0)
(0.076305936 -2.0966502e-05 0)
(0.07630811 -2.0671318e-05 0)
(0.076319372 -1.674245e-05 0)
(0.076326043 -1.2800353e-05 0)
(0.076331421 -9.5306758e-06 0)
(0.076335788 -6.9530524e-06 0)
(0.076339134 -4.987984e-06 0)
(0.076341618 -3.5262059e-06 0)
(0.076343427 -2.4572934e-06 0)
(0.076344719 -1.6865737e-06 0)
(0.076345625 -1.1382429e-06 0)
(0.076346249 -7.5343106e-07 0)
(0.07634667 -4.8729784e-07 0)
(0.076346947 -3.0620027e-07 0)
(0.076347126 -1.8522561e-07 0)
(0.076347237 -1.0615507e-07 0)
(0.076347303 -5.5833455e-08 0)
(0.07634734 -2.4887742e-08 0)
(0.076347358 -6.7342012e-09 0)
(0.076347366 3.184126e-09 0)
(0.076347367 7.9698861e-09 0)
(0.076347364 9.684064e-09 0)
(0.07634736 9.6633746e-09 0)
(0.076347356 8.7553771e-09 0)
(0.076347352 7.4774993e-09 0)
(0.076347348 6.1289411e-09 0)
(0.076347345 4.8698979e-09 0)
(0.076347343 3.7737961e-09 0)
(0.076347341 2.863453e-09 0)
(0.076347339 2.1329253e-09 0)
(0.076347338 1.5627936e-09 0)
(0.076347338 1.1278173e-09 0)
(0.076347337 8.0284027e-10 0)
(0.076347337 5.643575e-10 0)
(0.076347336 3.9263868e-10 0)
(0.076347336 2.7097716e-10 0)
(0.076347336 1.8651817e-10 0)
(0.076347336 1.2881949e-10 0)
(0.076347336 9.0416684e-11 0)
(0.076347336 6.5293531e-11 0)
(0.076347336 4.9506769e-11 0)
(0.076347336 3.9774226e-11 0)
(0.076347336 3.4222359e-11 0)
(0.076347336 3.111337e-11 0)
(0.076347336 2.9711527e-11 0)
(0.076347336 2.9085361e-11 0)
(0.076347336 2.906026e-11 0)
(0.076347336 2.9112083e-11 0)
(0.076347336 2.93301e-11 0)
(0.076347336 2.937187e-11 0)
(0.076347336 2.9449951e-11 0)
(0.076347336 2.929627e-11 0)
(0.076347336 2.9150904e-11 0)
(0.076347336 2.8780575e-11 0)
(0.076347336 2.8440472e-11 0)
(0.076347336 2.7902562e-11 0)
(0.076347336 2.7421255e-11 0)
(0.076347336 2.6766854e-11 0)
(0.076347336 2.6188393e-11 0)
(0.076347336 2.5457346e-11 0)
(0.076347336 2.4814063e-11 0)
(0.076347336 2.4032471e-11 0)
(0.076347336 2.3349493e-11 0)
(0.076347336 2.2540951e-11 0)
(0.076347336 2.1836191e-11 0)
(0.076347336 2.1010249e-11 0)
(0.076347336 2.0293147e-11 0)
(0.076347336 1.946269e-11 0)
(0.076347336 1.8747214e-11 0)
(0.076347336 1.7924705e-11 0)
(0.076347336 1.7214404e-11 0)
(0.076347336 1.6409076e-11 0)
(0.076347336 1.5720465e-11 0)
(0.076347336 1.4942282e-11 0)
(0.076347336 1.4284198e-11 0)
(0.076347336 1.3543225e-11 0)
(0.076347336 1.2922833e-11 0)
(0.076347336 1.2224532e-11 0)
(0.076347336 1.1652083e-11 0)
(0.076347336 1.1002128e-11 0)
(0.076347336 1.0474092e-11 0)
(0.076347336 9.8745684e-12 0)
(0.076347336 9.3954442e-12 0)
(0.076347336 8.8434679e-12 0)
(0.076347336 8.4078624e-12 0)
(0.076347336 7.8999763e-12 0)
(0.076347336 7.4993057e-12 0)
(0.076347336 7.0226015e-12 0)
(0.076347336 6.6527703e-12 0)
(0.076347336 6.2025099e-12 0)
(0.076347336 5.8531014e-12 0)
(0.076347336 5.4177907e-12 0)
(0.076347336 5.0801912e-12 0)
(0.076347336 4.6541213e-12 0)
(0.076347336 4.3183635e-12 0)
(0.076347336 3.8913916e-12 0)
(0.076347336 3.552857e-12 0)
(0.076347336 3.1178367e-12 0)
(0.076347336 2.7744787e-12 0)
(0.076347336 2.3306843e-12 0)
(0.076347336 1.9792722e-12 0)
(0.076347336 1.5315573e-12 0)
(0.076347336 1.1693856e-12 0)
(0.076347336 7.0809812e-13 0)
(0.076347336 3.3676729e-13 0)
(0.076347336 -1.3751126e-13 0)
(0.076347336 -5.2076789e-13 0)
(0.076347336 -1.0122302e-12 0)
(0.076347336 -1.412016e-12 0)
(0.076347336 -1.9187789e-12 0)
(0.076347336 -2.3420693e-12 0)
(0.076347336 -2.8783766e-12 0)
(0.076347336 -3.3275857e-12 0)
(0.076347336 -3.8962816e-12 0)
(0.076347336 -4.3825001e-12 0)
(0.076347336 -4.9904062e-12 0)
(0.076347336 -5.5183072e-12 0)
(0.076347336 -6.169546e-12 0)
(0.076347336 -6.7397473e-12 0)
(0.076347336 -7.4397401e-12 0)
(0.076347336 -8.0549564e-12 0)
(0.076347336 -8.796439e-12 0)
(0.076347336 -9.4533749e-12 0)
(0.076347336 -1.0238797e-11 0)
(0.076347336 -1.0929608e-11 0)
(0.076347336 -1.1751029e-11 0)
(0.076347336 -1.2472996e-11 0)
(0.076347336 -1.3321206e-11 0)
(0.076347336 -1.4067922e-11 0)
(0.076347336 -1.4942804e-11 0)
(0.076347336 -1.5706848e-11 0)
(0.076347336 -1.6602849e-11 0)
(0.076347336 -1.738527e-11 0)
(0.076347336 -1.8298798e-11 0)
(0.076347336 -1.9097805e-11 0)
(0.076347336 -2.0026627e-11 0)
(0.076347336 -2.0839611e-11 0)
(0.076347336 -2.1788624e-11 0)
(0.076347336 -2.261536e-11 0)
(0.076347336 -2.3580484e-11 0)
(0.076347336 -2.4422039e-11 0)
(0.076347336 -2.5399198e-11 0)
(0.076347336 -2.6246114e-11 0)
(0.076347336 -2.7226803e-11 0)
(0.076347336 -2.8072186e-11 0)
(0.076347336 -2.9044471e-11 0)
(0.076347336 -2.9868598e-11 0)
(0.076347336 -3.0813548e-11 0)
(0.076347336 -3.1592948e-11 0)
(0.076347336 -3.2482366e-11 0)
(0.076347336 -3.3192514e-11 0)
(0.076347336 -3.4014156e-11 0)
(0.076347336 -3.4663697e-11 0)
(0.076347336 -3.5450126e-11 0)
(0.076347336 -3.6128451e-11 0)
(0.076347336 -3.7072388e-11 0)
(0.076347336 -3.8126021e-11 0)
(0.076347336 -3.9822202e-11 0)
(0.076347336 -4.2233454e-11 0)
(0.076347336 -4.6228926e-11 0)
(0.076347336 -5.2380848e-11 0)
(0.076347336 -6.2262489e-11 0)
(0.076347336 -7.7445418e-11 0)
(0.076347336 -1.0086908e-10 0)
(0.076347336 -1.3595535e-10 0)
(0.076347336 -1.880706e-10 0)
(0.076347336 -2.6375581e-10 0)
(0.076347336 -3.722022e-10 0)
(0.076347337 -5.2448195e-10 0)
(0.076347337 -7.3468502e-10 0)
(0.076347337 -1.018581e-09 0)
(0.076347338 -1.3934167e-09 0)
(0.076347339 -1.8743478e-09 0)
(0.07634734 -2.4702027e-09 0)
(0.076347342 -3.1734566e-09 0)
(0.076347343 -3.9454791e-09 0)
(0.076347345 -4.6903703e-09 0)
(0.076347347 -5.2152106e-09 0)
(0.076347349 -5.1671064e-09 0)
(0.07634735 -3.9392687e-09 0)
(0.076347348 -5.3003567e-10 0)
(0.076347341 6.6717135e-09 0)
(0.076347326 2.0186397e-08 0)
(0.076347297 4.3867075e-08 0)
(0.076347245 8.3499479e-08 0)
(0.076347157 1.4764076e-07 0)
(0.076347013 2.4875096e-07 0)
(0.076346784 4.0472427e-07 0)
(0.076346429 6.4089243e-07 0)
(0.076345892 9.9262314e-07 0)
(0.076345092 1.5085409e-06 0)
(0.076343925 2.2543329e-06 0)
(0.076342251 3.3167332e-06 0)
(0.076339896 4.8064542e-06 0)
(0.076336649 6.8556538e-06 0)
(0.076332313 9.5996357e-06 0)
(0.076326851 1.3139597e-05 0)
(0.076319975 1.745649e-05 0)
(0.076308055 2.1855544e-05 0)
(0.076305495 2.2308663e-05 0)
(0.10023845 -2.6566792e-05 0)
(0.10023514 -2.6788791e-05 0)
(0.10024448 -2.2907857e-05 0)
(0.10024911 -1.8365574e-05 0)
(0.10025308 -1.4209935e-05 0)
(0.10025659 -1.0702328e-05 0)
(0.10025942 -7.8865694e-06 0)
(0.10026161 -5.7049022e-06 0)
(0.10026327 -4.0569016e-06 0)
(0.10026448 -2.8368095e-06 0)
(0.10026536 -1.9492758e-06 0)
(0.10026598 -1.3142215e-06 0)
(0.10026641 -8.6718235e-07 0)
(0.1002667 -5.5777284e-07 0)
(0.10026689 -3.4749282e-07 0)
(0.10026702 -2.074763e-07 0)
(0.10026709 -1.16446e-07 0)
(0.10026714 -5.8969635e-08 0)
(0.10026717 -2.4031547e-08 0)
(0.10026718 -3.8958953e-09 0)
(0.10026718 6.7845781e-09 0)
(0.10026718 1.1631553e-08 0)
(0.10026718 1.3037481e-08 0)
(0.10026718 1.2548091e-08 0)
(0.10026718 1.1132468e-08 0)
(0.10026717 9.3736549e-09 0)
(0.10026717 7.6025177e-09 0)
(0.10026717 5.9898641e-09 0)
(0.10026717 4.60855e-09 0)
(0.10026717 3.4744259e-09 0)
(0.10026717 2.572631e-09 0)
(0.10026716 1.8739326e-09 0)
(0.10026716 1.3444512e-09 0)
(0.10026716 9.5106458e-10 0)
(0.10026716 6.6412785e-10 0)
(0.10026716 4.5852151e-10 0)
(0.10026716 3.1380034e-10 0)
(0.10026716 2.1380241e-10 0)
(0.10026716 1.4607209e-10 0)
(0.10026716 1.0120703e-10 0)
(0.10026716 7.2249473e-11 0)
(0.10026716 5.4145164e-11 0)
(0.10026716 4.3281138e-11 0)
(0.10026716 3.712453e-11 0)
(0.10026716 3.3924411e-11 0)
(0.10026716 3.2503416e-11 0)
(0.10026716 3.2085182e-11 0)
(0.10026716 3.2171005e-11 0)
(0.10026716 3.2452084e-11 0)
(0.10026716 3.2749474e-11 0)
(0.10026716 3.2961509e-11 0)
(0.10026716 3.3044669e-11 0)
(0.10026716 3.298746e-11 0)
(0.10026716 3.2785155e-11 0)
(0.10026716 3.2455841e-11 0)
(0.10026716 3.2013839e-11 0)
(0.10026716 3.1478255e-11 0)
(0.10026716 3.0864757e-11 0)
(0.10026716 3.0185519e-11 0)
(0.10026716 2.9454734e-11 0)
(0.10026716 2.8684595e-11 0)
(0.10026716 2.7880741e-11 0)
(0.10026716 2.705046e-11 0)
(0.10026716 2.6200892e-11 0)
(0.10026716 2.533772e-11 0)
(0.10026716 2.4464129e-11 0)
(0.10026716 2.3582218e-11 0)
(0.10026716 2.269609e-11 0)
(0.10026716 2.1810728e-11 0)
(0.10026716 2.0926804e-11 0)
(0.10026716 2.0053564e-11 0)
(0.10026716 1.9185604e-11 0)
(0.10026716 1.832876e-11 0)
(0.10026716 1.7489034e-11 0)
(0.10026716 1.6668395e-11 0)
(0.10026716 1.5867308e-11 0)
(0.10026716 1.5091011e-11 0)
(0.10026716 1.4339819e-11 0)
(0.10026716 1.361237e-11 0)
(0.10026716 1.2913503e-11 0)
(0.10026716 1.2241253e-11 0)
(0.10026716 1.159878e-11 0)
(0.10026716 1.0983286e-11 0)
(0.10026716 1.0396043e-11 0)
(0.10026716 9.8295447e-12 0)
(0.10026716 9.2880848e-12 0)
(0.10026716 8.7671597e-12 0)
(0.10026716 8.2645129e-12 0)
(0.10026716 7.7769049e-12 0)
(0.10026716 7.3027128e-12 0)
(0.10026716 6.8400145e-12 0)
(0.10026716 6.3832893e-12 0)
(0.10026716 5.932606e-12 0)
(0.10026716 5.4838283e-12 0)
(0.10026716 5.0359342e-12 0)
(0.10026716 4.5859828e-12 0)
(0.10026716 4.1341738e-12 0)
(0.10026716 3.6801887e-12 0)
(0.10026716 3.2166026e-12 0)
(0.10026716 2.7558248e-12 0)
(0.10026716 2.2840501e-12 0)
(0.10026716 1.8069842e-12 0)
(0.10026716 1.3266168e-12 0)
(0.10026716 8.3849764e-13 0)
(0.10026716 3.4135796e-13 0)
(0.10026716 -1.61646e-13 0)
(0.10026716 -6.7171842e-13 0)
(0.10026716 -1.1915697e-12 0)
(0.10026716 -1.7216347e-12 0)
(0.10026716 -2.2636143e-12 0)
(0.10026716 -2.8183273e-12 0)
(0.10026716 -3.3875562e-12 0)
(0.10026716 -3.9771317e-12 0)
(0.10026716 -4.5836628e-12 0)
(0.10026716 -5.2122971e-12 0)
(0.10026716 -5.8631129e-12 0)
(0.10026716 -6.5351403e-12 0)
(0.10026716 -7.2374563e-12 0)
(0.10026716 -7.9600517e-12 0)
(0.10026716 -8.713905e-12 0)
(0.10026716 -9.4877408e-12 0)
(0.10026716 -1.0288028e-11 0)
(0.10026716 -1.1111649e-11 0)
(0.10026716 -1.1957385e-11 0)
(0.10026716 -1.2822481e-11 0)
(0.10026716 -1.3710202e-11 0)
(0.10026716 -1.4612109e-11 0)
(0.10026716 -1.5532965e-11 0)
(0.10026716 -1.6462975e-11 0)
(0.10026716 -1.7407893e-11 0)
(0.10026716 -1.8363652e-11 0)
(0.10026716 -1.9325201e-11 0)
(0.10026716 -2.0300377e-11 0)
(0.10026716 -2.1283183e-11 0)
(0.10026716 -2.2274963e-11 0)
(0.10026716 -2.3272928e-11 0)
(0.10026716 -2.4277301e-11 0)
(0.10026716 -2.5289378e-11 0)
(0.10026716 -2.63068e-11 0)
(0.10026716 -2.7326419e-11 0)
(0.10026716 -2.8350632e-11 0)
(0.10026716 -2.9376003e-11 0)
(0.10026716 -3.0400084e-11 0)
(0.10026716 -3.1417038e-11 0)
(0.10026716 -3.2423513e-11 0)
(0.10026716 -3.3413379e-11 0)
(0.10026716 -3.4379668e-11 0)
(0.10026716 -3.5313931e-11 0)
(0.10026716 -3.6209514e-11 0)
(0.10026716 -3.7067392e-11 0)
(0.10026716 -3.7882156e-11 0)
(0.10026716 -3.8661673e-11 0)
(0.10026716 -3.9431991e-11 0)
(0.10026716 -4.0243727e-11 0)
(0.10026716 -4.1188643e-11 0)
(0.10026716 -4.2429875e-11 0)
(0.10026716 -4.4238621e-11 0)
(0.10026716 -4.7040141e-11 0)
(0.10026716 -5.1494614e-11 0)
(0.10026716 -5.860344e-11 0)
(0.10026716 -6.985262e-11 0)
(0.10026716 -8.7405559e-11 0)
(0.10026716 -1.1435088e-10 0)
(0.10026716 -1.5502286e-10 0)
(0.10026716 -2.1538986e-10 0)
(0.10026716 -3.0348593e-10 0)
(0.10026716 -4.2989327e-10 0)
(0.10026716 -6.0813892e-10 0)
(0.10026716 -8.5489503e-10 0)
(0.10026716 -1.1897202e-09 0)
(0.10026716 -1.6338774e-09 0)
(0.10026717 -2.2074877e-09 0)
(0.10026717 -2.9239278e-09 0)
(0.10026717 -3.7796207e-09 0)
(0.10026717 -4.7365928e-09 0)
(0.10026717 -5.6937512e-09 0)
(0.10026717 -6.4410741e-09 0)
(0.10026717 -6.5882772e-09 0)
(0.10026717 -5.4564744e-09 0)
(0.10026717 -1.9168922e-09 0)
(0.10026717 5.853098e-09 0)
(0.10026716 2.071726e-08 0)
(0.10026713 4.7063271e-08 0)
(0.1002671 9.1487472e-08 0)
(0.10026704 1.63738e-07 0)
(0.10026694 2.7798395e-07 0)
(0.10026678 4.5448733e-07 0)
(0.10026655 7.2175044e-07 0)
(0.10026619 1.1191751e-06 0)
(0.10026565 1.7001896e-06 0)
(0.10026488 2.5356063e-06 0)
(0.10026379 3.7165723e-06 0)
(0.10026227 5.3556931e-06 0)
(0.1002602 7.583268e-06 0)
(0.10025747 1.0531541e-05 0)
(0.100254 1.429378e-05 0)
(0.10024997 1.8851525e-05 0)
(0.10024521 2.3933493e-05 0)
(0.1002352 2.8445571e-05 0)
(0.1002385 2.8407706e-05 0)
(0.12061104 -2.9052477e-05 0)
(0.1206023 -2.9597041e-05 0)
(0.12060921 -2.6155835e-05 0)
(0.12061115 -2.1656772e-05 0)
(0.12061292 -1.7233823e-05 0)
(0.1206148 -1.3298838e-05 0)
(0.12061646 -1.000791e-05 0)
(0.12061783 -7.3728631e-06 0)
(0.1206189 -5.3286152e-06 0)
(0.12061973 -3.7815774e-06 0)
(0.12062035 -2.6352037e-06 0)
(0.1206208 -1.801673e-06 0)
(0.12062112 -1.2063957e-06 0)
(0.12062135 -7.8878014e-07 0)
(0.1206215 -5.0116448e-07 0)
(0.1206216 -3.0699368e-07 0)
(0.12062167 -1.7882288e-07 0)
(0.12062171 -9.6435489e-08 0)
(0.12062174 -4.5202698e-08 0)
(0.12062175 -1.4721987e-08 0)
(0.12062176 2.275821e-09 0)
(0.12062176 1.0781129e-08 0)
(0.12062176 1.4144076e-08 0)
(0.12062176 1.4556367e-08 0)
(0.12062176 1.3416779e-08 0)
(0.12062176 1.1587124e-08 0)
(0.12062176 9.5737174e-09 0)
(0.12062176 7.6533095e-09 0)
(0.12062175 5.9592986e-09 0)
(0.12062175 4.5389918e-09 0)
(0.12062175 3.3912815e-09 0)
(0.12062175 2.490174e-09 0)
(0.12062175 1.799482e-09 0)
(0.12062175 1.2809934e-09 0)
(0.12062175 8.9916347e-10 0)
(0.12062175 6.2297256e-10 0)
(0.12062175 4.2674823e-10 0)
(0.12062175 2.8980857e-10 0)
(0.12062175 1.9608782e-10 0)
(0.12062175 1.3324971e-10 0)
(0.12062175 9.2156684e-11 0)
(0.12062175 6.6011056e-11 0)
(0.12062175 5.0001189e-11 0)
(0.12062175 4.0631628e-11 0)
(0.12062175 3.5561308e-11 0)
(0.12062175 3.3096417e-11 0)
(0.12062175 3.2202092e-11 0)
(0.12062175 3.211154e-11 0)
(0.12062175 3.2427464e-11 0)
(0.12062175 3.2833818e-11 0)
(0.12062175 3.3216725e-11 0)
(0.12062175 3.3453444e-11 0)
(0.12062175 3.3557623e-11 0)
(0.12062175 3.3480184e-11 0)
(0.12062175 3.3269795e-11 0)
(0.12062175 3.2906099e-11 0)
(0.12062175 3.2448846e-11 0)
(0.12062175 3.187128e-11 0)
(0.12062175 3.1238019e-11 0)
(0.12062175 3.051823e-11 0)
(0.12062175 2.9764977e-11 0)
(0.12062175 2.8951028e-11 0)
(0.12062175 2.8125909e-11 0)
(0.12062175 2.725502e-11 0)
(0.12062175 2.6385066e-11 0)
(0.12062175 2.5480523e-11 0)
(0.12062175 2.458761e-11 0)
(0.12062175 2.3667406e-11 0)
(0.12062175 2.2763472e-11 0)
(0.12062175 2.1841764e-11 0)
(0.12062175 2.094678e-11 0)
(0.12062175 2.0038236e-11 0)
(0.12062175 1.9161853e-11 0)
(0.12062175 1.828253e-11 0)
(0.12062175 1.7440043e-11 0)
(0.12062175 1.6595294e-11 0)
(0.12062175 1.5797173e-11 0)
(0.12062175 1.5002713e-11 0)
(0.12062175 1.4254909e-11 0)
(0.12062175 1.3516949e-11 0)
(0.12062175 1.2825716e-11 0)
(0.12062175 1.2142906e-11 0)
(0.12062175 1.1511334e-11 0)
(0.12062175 1.0883482e-11 0)
(0.12062175 1.0304035e-11 0)
(0.12062175 9.7270956e-12 0)
(0.12062175 9.1945324e-12 0)
(0.12062175 8.657494e-12 0)
(0.12062175 8.1560476e-12 0)
(0.12062175 7.6502479e-12 0)
(0.12062175 7.1712791e-12 0)
(0.12062175 6.6863728e-12 0)
(0.12062175 6.2212969e-12 0)
(0.12062175 5.7430664e-12 0)
(0.12062175 5.2829827e-12 0)
(0.12062175 4.8013626e-12 0)
(0.12062175 4.3372658e-12 0)
(0.12062175 3.8482522e-12 0)
(0.12062175 3.3748297e-12 0)
(0.12062175 2.8758711e-12 0)
(0.12062175 2.3896751e-12 0)
(0.12062175 1.8799172e-12 0)
(0.12062175 1.3814284e-12 0)
(0.12062175 8.5679738e-13 0)
(0.12062175 3.4343506e-13 0)
(0.12062175 -1.9598767e-13 0)
(0.12062175 -7.233032e-13 0)
(0.12062175 -1.2807664e-12 0)
(0.12062175 -1.8291567e-12 0)
(0.12062175 -2.4076381e-12 0)
(0.12062175 -2.9823504e-12 0)
(0.12062175 -3.5913565e-12 0)
(0.12062175 -4.1970426e-12 0)
(0.12062175 -4.8446291e-12 0)
(0.12062175 -5.4914179e-12 0)
(0.12062175 -6.1827198e-12 0)
(0.12062175 -6.8740556e-12 0)
(0.12062175 -7.6134774e-12 0)
(0.12062175 -8.3580057e-12 0)
(0.12062175 -9.1485781e-12 0)
(0.12062175 -9.9437132e-12 0)
(0.12062175 -1.0789526e-11 0)
(0.12062175 -1.1632661e-11 0)
(0.12062175 -1.2520418e-11 0)
(0.12062175 -1.3410292e-11 0)
(0.12062175 -1.4340457e-11 0)
(0.12062175 -1.5267628e-11 0)
(0.12062175 -1.6230242e-11 0)
(0.12062175 -1.7189485e-11 0)
(0.12062175 -1.8180075e-11 0)
(0.12062175 -1.9160335e-11 0)
(0.12062175 -2.0172181e-11 0)
(0.12062175 -2.1166852e-11 0)
(0.12062175 -2.2197242e-11 0)
(0.12062175 -2.320742e-11 0)
(0.12062175 -2.4245646e-11 0)
(0.12062175 -2.5268395e-11 0)
(0.12062175 -2.6319203e-11 0)
(0.12062175 -2.7343497e-11 0)
(0.12062175 -2.8397178e-11 0)
(0.12062175 -2.9422929e-11 0)
(0.12062175 -3.0468202e-11 0)
(0.12062175 -3.1481288e-11 0)
(0.12062175 -3.2511641e-11 0)
(0.12062175 -3.3494734e-11 0)
(0.12062175 -3.4480979e-11 0)
(0.12062175 -3.5402713e-11 0)
(0.12062175 -3.631586e-11 0)
(0.12062175 -3.715426e-11 0)
(0.12062175 -3.7974592e-11 0)
(0.12062175 -3.8723289e-11 0)
(0.12062175 -3.9479051e-11 0)
(0.12062175 -4.022767e-11 0)
(0.12062175 -4.1103726e-11 0)
(0.12062175 -4.2197919e-11 0)
(0.12062175 -4.3807167e-11 0)
(0.12062175 -4.6260005e-11 0)
(0.12062175 -5.0213114e-11 0)
(0.12062175 -5.6527168e-11 0)
(0.12062175 -6.6632624e-11 0)
(0.12062175 -8.2481267e-11 0)
(0.12062175 -1.0701532e-10 0)
(0.12062175 -1.4425976e-10 0)
(0.12062175 -1.9992563e-10 0)
(0.12062175 -2.8164112e-10 0)
(0.12062175 -3.9967322e-10 0)
(0.12062175 -5.6718022e-10 0)
(0.12062175 -8.0076024e-10 0)
(0.12062175 -1.1202037e-09 0)
(0.12062175 -1.5478779e-09 0)
(0.12062175 -2.1063249e-09 0)