/*--------------------------------*- C++ -*----------------------------------*\
| =========                 |                                                 |
| \\      /  F ield         | OpenFOAM: The Open Source CFD Toolbox           |
|  \\    /   O peration     | Version:  2406                                  |
|   \\  /    A nd           | Website:  www.openfoam.com                      |
|    \\/     M anipulation  |                                                 |
\*---------------------------------------------------------------------------*/
FoamFile
{
    version     2.0;
    format      ascii;
    arch        "LSB;label=32;scalar=64";
    class       surfaceScalarField;
    location    "0.3";
    object      phi;
}
// * * * * * * * * * * * * * * * * * * * * * * * * * * * * * * * * * * * * * //

dimensions      [0 3 -1 0 0 0 0];

oriented        oriented;

internalField   nonuniform List<scalar> 
4335
(
1.97965e-05
-5.07189e-12
1.97965e-05
-1.33274e-11
1.97965e-05
-1.47279e-11
1.97965e-05
-1.88481e-11
1.97965e-05
-2.35006e-11
1.97966e-05
-2.27458e-11
1.97966e-05
-1.55921e-11
1.97966e-05
-1.58194e-11
1.97966e-05
-1.91813e-11
1.97966e-05
-1.59228e-11
1.97966e-05
-9.32262e-12
1.97966e-05
-1.74663e-12
1.97966e-05
7.00282e-12
1.97966e-05
7.77963e-12
1.97966e-05
3.48139e-12
1.97966e-05
-2.76763e-12
1.97966e-05
-5.83237e-12
1.97966e-05
-5.9606e-12
1.97966e-05
-5.96549e-12
1.97966e-05
-4.46931e-12
1.97966e-05
-7.45327e-13
1.97966e-05
3.93503e-12
1.97966e-05
5.86376e-12
1.97966e-05
2.30653e-12
1.97966e-05
-1.54697e-12
1.97966e-05
-7.49114e-13
1.97966e-05
1.12497e-12
1.97966e-05
1.78949e-13
1.97966e-05
-2.9395e-12
1.97966e-05
-6.11424e-12
1.97966e-05
-6.38396e-12
1.97966e-05
-2.52619e-12
1.97966e-05
1.30952e-12
1.97966e-05
2.0047e-12
1.97966e-05
8.13903e-13
1.97966e-05
-1.10185e-12
1.97966e-05
-2.87993e-12
1.97966e-05
-1.97076e-12
1.97966e-05
1.31294e-12
1.97966e-05
3.18485e-12
1.97966e-05
1.9586e-12
1.97966e-05
6.62488e-14
1.97966e-05
5.16869e-13
1.97966e-05
3.79576e-12
1.97966e-05
6.78867e-12
1.97966e-05
6.1639e-12
1.97966e-05
2.92863e-12
1.97966e-05
9.85516e-13
1.97966e-05
2.50104e-12
1.97966e-05
6.01786e-12
1.97966e-05
7.91396e-12
1.97966e-05
5.86977e-12
1.97966e-05
1.63545e-12
1.97966e-05
-4.9353e-13
1.97966e-05
1.44382e-12
1.97966e-05
5.33139e-12
1.97966e-05
7.36139e-12
1.97966e-05
6.18652e-12
1.97966e-05
3.94393e-12
1.97966e-05
4.08029e-12
1.97966e-05
7.33324e-12
1.97966e-05
1.05652e-11
1.97966e-05
1.00891e-11
1.97966e-05
5.52999e-12
1.97965e-05
2.03783e-13
1.97965e-05
-1.9083e-12
1.97965e-05
-1.39169e-13
1.97965e-05
2.43664e-12
1.97965e-05
2.84059e-12
1.97965e-05
9.29635e-13
1.97965e-05
-2.8211e-13
1.97965e-05
1.58899e-12
1.97965e-05
4.77223e-12
1.97965e-05
5.22144e-12
1.97965e-05
1.40409e-12
1.97965e-05
-3.7159e-12
1.97965e-05
-5.92758e-12
1.97965e-05
-4.05571e-12
1.97965e-05
-6.70494e-13
1.97965e-05
6.30862e-13
1.97965e-05
-1.24922e-12
1.97965e-05
-3.86983e-12
1.97965e-05
-4.01728e-12
1.97965e-05
-1.44371e-12
1.97965e-05
7.58558e-13
1.97965e-05
-2.96758e-13
1.97965e-05
-3.74781e-12
1.97965e-05
-5.7166e-12
1.97965e-05
-3.62207e-12
1.97965e-05
9.89987e-13
1.97965e-05
4.26814e-12
1.97965e-05
3.94412e-12
1.97965e-05
1.60658e-12
1.97965e-05
3.05706e-13
1.97965e-05
1.58645e-12
1.97965e-05
4.10131e-12
1.97965e-05
4.77575e-12
1.97965e-05
2.32203e-12
1.97965e-05
-1.31903e-12
1.97965e-05
-3.13619e-12
1.97965e-05
-2.45089e-12
1.97965e-05
-1.82971e-12
1.97965e-05
-4.02233e-12
1.97965e-05
-8.54031e-12
1.97965e-05
-1.15447e-11
1.97965e-05
-1.0086e-11
1.97965e-05
-5.70282e-12
1.97966e-05
-2.45721e-12
1.97966e-05
-2.5107e-12
1.97966e-05
-4.18472e-12
1.97966e-05
-4.69064e-12
1.97966e-05
-3.35956e-12
1.97966e-05
-1.89093e-12
1.97966e-05
-1.90123e-12
1.97966e-05
-3.47299e-12
1.97966e-05
-5.65534e-12
1.97966e-05
-6.8911e-12
1.97966e-05
-5.42693e-12
1.97966e-05
-2.08469e-12
1.97966e-05
-6.48353e-13
1.97966e-05
-2.51512e-12
1.97966e-05
-4.16099e-12
1.97966e-05
-2.49582e-12
1.97966e-05
9.38207e-13
1.97966e-05
2.54777e-12
1.97966e-05
1.60263e-12
1.97966e-05
2.76291e-13
1.97966e-05
1.77688e-13
1.97966e-05
4.59751e-13
1.97966e-05
8.71438e-13
1.97966e-05
2.58178e-12
1.97966e-05
4.01777e-12
1.97966e-05
2.30705e-12
1.97966e-05
-4.22679e-13
1.97966e-05
-7.5923e-13
1.97966e-05
-4.0158e-13
1.97966e-05
-2.08385e-12
1.97966e-05
-4.34481e-12
1.97967e-05
-4.98941e-12
1.97967e-05
-4.42388e-12
1.97967e-05
-3.95143e-12
1.97967e-05
-3.05454e-12
1.97967e-05
-8.48677e-13
1.97967e-05
1.4563e-12
1.97967e-05
1.30454e-12
1.97967e-05
-1.65834e-12
1.97967e-05
-3.75621e-12
1.97967e-05
-2.17005e-12
1.97966e-05
2.04401e-12
3.73075e-12
5.38981e-05
-4.72279e-12
5.38981e-05
-1.99872e-11
5.38981e-05
-2.73278e-11
5.38981e-05
-3.14778e-11
5.38981e-05
-3.44331e-11
5.38981e-05
-3.54322e-11
5.38982e-05
-2.65886e-11
5.38982e-05
-2.34782e-11
5.38982e-05
-2.64293e-11
5.38982e-05
-1.50981e-11
5.38982e-05
6.00465e-12
5.38982e-05
6.47536e-12
5.38982e-05
9.99556e-13
5.38982e-05
-7.83717e-13
5.38982e-05
2.51366e-13
5.38982e-05
3.53805e-13
5.38982e-05
4.32808e-13
5.38982e-05
6.47952e-13
5.38982e-05
1.40705e-12
5.38982e-05
4.51998e-12
5.38982e-05
8.12255e-12
5.38982e-05
9.43849e-12
5.38982e-05
9.84958e-12
5.38982e-05
8.74572e-12
5.38982e-05
4.39303e-12
5.38982e-05
-9.17112e-13
5.38982e-05
-4.70983e-12
5.38982e-05
-5.67493e-12
5.38982e-05
-2.70083e-12
5.38982e-05
1.25676e-12
5.38982e-05
2.22849e-12
5.38982e-05
1.94661e-12
5.38982e-05
2.73971e-12
5.38982e-05
3.94862e-12
5.38982e-05
5.70066e-12
5.38982e-05
7.74981e-12
5.38982e-05
8.23103e-12
5.38982e-05
8.20993e-12
5.38982e-05
1.04694e-11
5.38982e-05
1.45896e-11
5.38982e-05
1.751e-11
5.38982e-05
1.71676e-11
5.38982e-05
1.46352e-11
5.38982e-05
1.39469e-11
5.38982e-05
1.75167e-11
5.38982e-05
2.25917e-11
5.38982e-05
2.45378e-11
5.38982e-05
2.21185e-11
5.38982e-05
1.76335e-11
5.38982e-05
1.45304e-11
5.38981e-05
1.45227e-11
5.38981e-05
1.54655e-11
5.38982e-05
1.42593e-11
5.38982e-05
1.08998e-11
5.38982e-05
8.88039e-12
5.38981e-05
1.0884e-11
5.38981e-05
1.58333e-11
5.38981e-05
1.98184e-11
5.38981e-05
1.94879e-11
5.38981e-05
1.53769e-11
5.38981e-05
1.14428e-11
5.38981e-05
1.05785e-11
5.38981e-05
1.15794e-11
5.38981e-05
1.08223e-11
5.38981e-05
6.80355e-12
5.38981e-05
1.09087e-12
5.38981e-05
-2.27231e-12
5.38981e-05
-1.16883e-12
5.38981e-05
2.50446e-12
5.38981e-05
4.7019e-12
5.38981e-05
3.57528e-12
5.38981e-05
1.61416e-12
5.38981e-05
2.36172e-12
5.38981e-05
5.56955e-12
5.38981e-05
7.34456e-12
5.38981e-05
4.26399e-12
5.38981e-05
-2.34877e-12
5.38981e-05
-8.13725e-12
5.38981e-05
-9.78521e-12
5.38981e-05
-7.6446e-12
5.38981e-05
-5.8653e-12
5.38981e-05
-7.25668e-12
5.38981e-05
-1.09223e-11
5.38981e-05
-1.3028e-11
5.38981e-05
-1.13668e-11
5.38981e-05
-8.01536e-12
5.38981e-05
-6.97996e-12
5.38981e-05
-9.33078e-12
5.38981e-05
-1.16845e-11
5.38981e-05
-1.03241e-11
5.38981e-05
-4.62034e-12
5.38981e-05
1.98778e-12
5.38981e-05
5.49955e-12
5.38981e-05
4.84442e-12
5.38981e-05
2.17189e-12
5.38981e-05
8.91066e-13
5.38981e-05
1.63118e-12
5.38981e-05
2.00729e-12
5.38981e-05
-7.32507e-13
5.38981e-05
-6.24142e-12
5.38981e-05
-1.08223e-11
5.38981e-05
-1.17606e-11
5.38981e-05
-1.03586e-11
5.38981e-05
-1.04577e-11
5.38981e-05
-1.36639e-11
5.38981e-05
-1.71148e-11
5.38981e-05
-1.71892e-11
5.38981e-05
-1.35391e-11
5.38981e-05
-9.2092e-12
5.38981e-05
-7.56523e-12
5.38981e-05
-9.06792e-12
5.38981e-05
-1.12216e-11
5.38981e-05
-1.21907e-11
5.38981e-05
-1.13353e-11
5.38981e-05
-9.68176e-12
5.38981e-05
-9.11857e-12
5.38981e-05
-1.05736e-11
5.38981e-05
-1.21661e-11
5.38981e-05
-1.05057e-11
5.38981e-05
-5.72299e-12
5.38981e-05
-2.10574e-12
5.38981e-05
-1.69966e-12
5.38981e-05
-1.72879e-12
5.38981e-05
5.31931e-13
5.38982e-05
4.73725e-12
5.38982e-05
8.10841e-12
5.38982e-05
9.00068e-12
5.38982e-05
8.50156e-12
5.38982e-05
7.55885e-12
5.38982e-05
6.32203e-12
5.38982e-05
6.60924e-12
5.38982e-05
8.85346e-12
5.38982e-05
8.74936e-12
5.38982e-05
4.51548e-12
5.38982e-05
8.58691e-13
5.38982e-05
7.29719e-13
5.38982e-05
8.6337e-13
5.38982e-05
-1.43516e-12
5.38982e-05
-4.6306e-12
5.38982e-05
-6.20988e-12
5.38982e-05
-5.75491e-12
5.38982e-05
-4.97321e-12
5.38982e-05
-4.1917e-12
5.38982e-05
-2.13931e-12
5.38982e-05
6.12321e-13
5.38982e-05
1.14138e-12
5.38982e-05
-6.9731e-13
5.38982e-05
-1.46222e-12
5.38982e-05
1.59436e-12
2.07032e-12
8.25899e-05
-6.5938e-13
8.25899e-05
-9.09101e-12
8.25898e-05
-2.71697e-11
8.25898e-05
-3.01487e-11
8.25898e-05
-2.89539e-11
8.25898e-05
-3.33732e-11
8.25898e-05
-3.44498e-11
8.25898e-05
-2.76511e-11
8.25898e-05
-1.66641e-11
8.25898e-05
-1.23416e-11
8.25898e-05
-5.988e-12
8.25898e-05
-3.16511e-12
8.25898e-05
-1.01074e-12
8.25898e-05
5.515e-12
8.25898e-05
1.10438e-11
8.25897e-05
1.11701e-11
8.25897e-05
1.13356e-11
8.25897e-05
1.41618e-11
8.25897e-05
1.73108e-11
8.25897e-05
1.95191e-11
8.25897e-05
1.93635e-11
8.25897e-05
1.5476e-11
8.25897e-05
1.2352e-11
8.25897e-05
1.20846e-11
8.25897e-05
1.05105e-11
8.25897e-05
6.08269e-12
8.25897e-05
1.17304e-12
8.25897e-05
-2.08978e-12
8.25897e-05
-1.74919e-12
8.25897e-05
1.95004e-12
8.25897e-05
4.26334e-12
8.25897e-05
3.39447e-12
8.25897e-05
1.77641e-12
8.25897e-05
4.78138e-13
8.25897e-05
8.99891e-13
8.25897e-05
4.30177e-12
8.25897e-05
8.30642e-12
8.25897e-05
9.79307e-12
8.25897e-05
9.55723e-12
8.25897e-05
1.00847e-11
8.25897e-05
1.25562e-11
8.25897e-05
1.58221e-11
8.25897e-05
1.70212e-11
8.25897e-05
1.5614e-11
8.25897e-05
1.49086e-11
8.25897e-05
1.75657e-11
8.25897e-05
2.24071e-11
8.25897e-05
2.61985e-11
8.25897e-05
2.62318e-11
8.25897e-05
2.25938e-11
8.25897e-05
1.86267e-11
8.25897e-05
1.74853e-11
8.25897e-05
1.86107e-11
8.25897e-05
1.92835e-11
8.25897e-05
1.80997e-11
8.25897e-05
1.61813e-11
8.25897e-05
1.58467e-11
8.25897e-05
1.79893e-11
8.25897e-05
2.03908e-11
8.25897e-05
1.99323e-11
8.25897e-05
1.63556e-11
8.25897e-05
1.23732e-11
8.25897e-05
1.08011e-11
8.25897e-05
1.1936e-11
8.25897e-05
1.30481e-11
8.25897e-05
1.13522e-11
8.25897e-05
7.4396e-12
8.25897e-05
4.26575e-12
8.25897e-05
4.41954e-12
8.25896e-05
7.21736e-12
8.25896e-05
8.98462e-12
8.25896e-05
7.17771e-12
8.25896e-05
3.13918e-12
8.25896e-05
3.73421e-13
8.25896e-05
3.78464e-13
8.25896e-05
1.2803e-12
8.25896e-05
3.85913e-13
8.25896e-05
-3.00875e-12
8.25896e-05
-6.64414e-12
8.25896e-05
-7.71854e-12
8.25896e-05
-5.93006e-12
8.25896e-05
-4.18887e-12
8.25896e-05
-5.47511e-12
8.25896e-05
-9.71829e-12
8.25896e-05
-1.35793e-11
8.25896e-05
-1.39072e-11
8.25896e-05
-1.1242e-11
8.25896e-05
-8.66508e-12
8.25896e-05
-8.34969e-12
8.25896e-05
-9.02746e-12
8.25896e-05
-8.05399e-12
8.25896e-05
-4.32726e-12
8.25896e-05
2.07153e-13
8.25896e-05
2.96738e-12
8.25896e-05
2.39953e-12
8.25896e-05
-7.05347e-14
8.25896e-05
-1.34805e-12
8.25896e-05
-3.07963e-13
8.25896e-05
6.57165e-13
8.25896e-05
-1.74275e-12
8.25896e-05
-7.62943e-12
8.25896e-05
-1.36126e-11
8.25896e-05
-1.61645e-11
8.25896e-05
-1.54256e-11
8.25896e-05
-1.4543e-11
8.25896e-05
-1.55713e-11
8.25896e-05
-1.76223e-11
8.25896e-05
-1.85867e-11
8.25896e-05
-1.74373e-11
8.25896e-05
-1.54172e-11
8.25896e-05
-1.44966e-11
8.25896e-05
-1.52586e-11
8.25896e-05
-1.65892e-11
8.25896e-05
-1.6724e-11
8.25896e-05
-1.46342e-11
8.25896e-05
-1.09454e-11
8.25896e-05
-8.30933e-12
8.25896e-05
-8.51144e-12
8.25896e-05
-9.1124e-12
8.25896e-05
-6.54473e-12
8.25896e-05
-1.518e-12
8.25896e-05
2.62443e-12
8.25897e-05
4.28006e-12
8.25897e-05
4.92489e-12
8.25897e-05
6.38091e-12
8.25897e-05
8.7002e-12
8.25897e-05
1.05812e-11
8.25897e-05
1.2011e-11
8.25897e-05
1.3217e-11
8.25897e-05
1.26037e-11
8.25897e-05
1.01252e-11
8.25897e-05
8.89589e-12
8.25897e-05
8.67391e-12
8.25897e-05
5.49094e-12
8.25897e-05
-5.20559e-13
8.25897e-05
-4.58939e-12
8.25897e-05
-5.42844e-12
8.25897e-05
-5.65532e-12
8.25897e-05
-7.12292e-12
8.25897e-05
-8.92009e-12
8.25897e-05
-8.61813e-12
8.25897e-05
-6.51055e-12
8.25897e-05
-5.15661e-12
8.25897e-05
-4.81761e-12
8.25897e-05
-5.10158e-12
8.25897e-05
-4.69015e-12
8.25897e-05
-4.00669e-12
8.25897e-05
-3.24777e-12
8.25898e-05
-1.20134e-12
-1.3572e-12
0.000105948
1.33563e-11
0.000105948
2.39786e-11
0.000105948
2.61782e-11
0.000105948
1.78862e-11
0.000105948
1.05673e-11
0.000105948
1.21094e-11
0.000105948
1.70272e-11
0.000105948
1.45871e-11
0.000105948
2.0735e-11
0.000105948
2.72589e-11
0.000105948
2.93397e-11
0.000105948
3.26913e-11
0.000105948
3.60289e-11
0.000105947
3.8275e-11
0.000105947
3.79359e-11
0.000105947
3.43762e-11
0.000105947
3.08189e-11
0.000105947
2.79029e-11
0.000105947
2.27141e-11
0.000105947
1.79014e-11
0.000105947
1.72782e-11
0.000105947
1.73184e-11
0.000105947
1.52207e-11
0.000105947
1.26145e-11
0.000105947
9.58853e-12
0.000105947
6.53695e-12
0.000105947
5.49716e-12
0.000105947
5.59688e-12
0.000105947
6.10642e-12
0.000105947
8.0471e-12
0.000105947
1.03533e-11
0.000105947
1.06584e-11
0.000105947
9.80334e-12
0.000105947
8.81097e-12
0.000105947
8.97804e-12
0.000105947
1.23388e-11
0.000105947
1.84288e-11
0.000105947
2.30042e-11
0.000105947
2.37356e-11
0.000105947
2.17817e-11
0.000105947
1.99725e-11
0.000105947
2.0997e-11
0.000105947
2.42662e-11
0.000105947
2.64796e-11
0.000105947
2.63641e-11
0.000105947
2.56858e-11
0.000105947
2.61391e-11
0.000105947
2.78303e-11
0.000105947
2.90297e-11
0.000105947
2.74015e-11
0.000105947
2.2839e-11
0.000105947
1.87739e-11
0.000105947
1.74389e-11
0.000105947
1.79348e-11
0.000105947
1.73983e-11
0.000105947
1.3957e-11
0.000105947
8.96255e-12
0.000105947
6.29066e-12
0.000105947
8.4325e-12
0.000105947
1.36638e-11
0.000105947
1.79215e-11
0.000105947
1.85199e-11
0.000105947
1.61933e-11
0.000105947
1.38567e-11
0.000105947
1.30953e-11
0.000105947
1.27524e-11
0.000105947
1.0824e-11
0.000105947
7.13135e-12
0.000105947
4.00363e-12
0.000105947
3.79913e-12
0.000105947
5.95907e-12
0.000105947
6.98224e-12
0.000105947
4.21705e-12
0.000105947
-1.09673e-12
0.000105947
-5.32165e-12
0.000105947
-6.04907e-12
0.000105947
-4.27438e-12
0.000105947
-3.41446e-12
0.000105947
-5.81512e-12
0.000105947
-1.04918e-11
0.000105947
-1.41e-11
0.000105947
-1.43575e-11
0.000105947
-1.24691e-11
0.000105947
-1.14896e-11
0.000105947
-1.26454e-11
0.000105947
-1.38727e-11
0.000105947
-1.26293e-11
0.000105947
-8.80574e-12
0.000105947
-5.11774e-12
0.000105947
-3.76796e-12
0.000105947
-4.53225e-12
0.000105947
-5.40386e-12
0.000105947
-4.66227e-12
0.000105947
-2.28255e-12
0.000105947
-4.27595e-13
0.000105947
-1.17379e-12
0.000105947
-3.97748e-12
0.000105947
-5.83335e-12
0.000105947
-4.95844e-12
0.000105947
-3.11286e-12
0.000105947
-3.81099e-12
0.000105947
-8.08811e-12
0.000105947
-1.33819e-11
0.000105947
-1.6693e-11
0.000105947
-1.78566e-11
0.000105947
-1.87681e-11
0.000105947
-2.05675e-11
0.000105947
-2.28653e-11
0.000105947
-2.43316e-11
0.000105947
-2.37644e-11
0.000105947
-2.1162e-11
0.000105947
-1.78194e-11
0.000105947
-1.51183e-11
0.000105947
-1.36738e-11
0.000105947
-1.26717e-11
0.000105947
-1.02693e-11
0.000105947
-6.56288e-12
0.000105947
-4.46629e-12
0.000105947
-5.28247e-12
0.000105947
-6.097e-12
0.000105947
-3.94097e-12
0.000105947
3.46251e-13
0.000105947
4.19365e-12
0.000105947
6.67075e-12
0.000105947
8.53341e-12
0.000105947
1.04342e-11
0.000105947
1.169e-11
0.000105947
1.25457e-11
0.000105947
1.45815e-11
0.000105947
1.66379e-11
0.000105947
1.51316e-11
0.000105947
1.12338e-11
0.000105947
9.19299e-12
0.000105947
7.91015e-12
0.000105947
3.34952e-12
0.000105947
-3.57088e-12
0.000105947
-8.73203e-12
0.000105947
-1.05607e-11
0.000105947
-1.03706e-11
0.000105947
-9.63769e-12
0.000105947
-7.51921e-12
0.000105947
-3.91412e-12
0.000105947
-2.1581e-12
0.000105947
-2.2552e-12
0.000105947
-2.28084e-12
0.000105947
-1.92241e-12
0.000105947
-2.90814e-12
0.000105947
-1.87636e-12
0.000105947
-3.14483e-12
-1.76347e-12
0.000124039
4.89423e-11
0.000124039
4.60892e-11
0.000124039
5.28557e-11
0.000124039
5.60576e-11
0.000124039
5.44806e-11
0.000124039
5.20498e-11
0.000124039
5.50187e-11
0.000124039
5.58393e-11
0.000124039
5.67842e-11
0.000124039
5.90288e-11
0.000124039
5.80231e-11
0.000124039
6.09175e-11
0.000124039
6.25631e-11
0.000124039
5.81697e-11
0.000124039
5.44033e-11
0.000124039
5.29073e-11
0.000124039
5.11351e-11
0.000124039
4.78877e-11
0.000124039
4.20033e-11
0.000124039
3.62994e-11
0.000124039
3.43844e-11
0.000124039
3.20864e-11
0.000124039
2.52544e-11
0.000124039
1.76596e-11
0.000124039
1.28821e-11
0.000124039
1.05401e-11
0.000124039
1.07008e-11
0.000124039
1.17472e-11
0.000124039
1.1354e-11
0.000124039
1.04364e-11
0.000124039
1.02851e-11
0.000124039
1.06445e-11
0.000124039
1.19572e-11
0.000124039
1.35038e-11
0.000124039
1.29257e-11
0.000124039
1.0946e-11
0.000124039
1.00787e-11
0.000124039
1.05269e-11
0.000124039
1.1171e-11
0.000124039
1.1215e-11
0.000124038
1.04923e-11
0.000124038
1.07239e-11
0.000124038
1.37269e-11
0.000124038
1.82755e-11
0.000124039
2.15936e-11
0.000124039
2.25228e-11
0.000124039
2.19596e-11
0.000124039
2.19335e-11
0.000124039
2.37254e-11
0.000124039
2.59548e-11
0.000124039
2.57801e-11
0.000124039
2.25709e-11
0.000124039
1.82292e-11
0.000124039
1.52394e-11
0.000124039
1.45502e-11
0.000124039
1.50127e-11
0.000124039
1.45077e-11
0.000124039
1.25294e-11
0.000124039
1.10623e-11
0.000124039
1.19404e-11
0.000124039
1.47771e-11
0.000124039
1.70546e-11
0.000124039
1.6714e-11
0.000124039
1.42678e-11
0.000124039
1.24543e-11
0.000124039
1.29298e-11
0.000124039
1.49133e-11
0.000124039
1.57656e-11
0.000124039
1.36699e-11
0.000124039
9.69173e-12
0.000124039
6.53138e-12
0.000124039
5.53797e-12
0.000124039
4.87708e-12
0.000124039
2.53175e-12
0.000124039
-1.67122e-12
0.000124039
-5.90158e-12
0.000124039
-8.19235e-12
0.000124039
-8.47347e-12
0.000124039
-8.69657e-12
0.000124039
-1.06622e-11
0.000124039
-1.40018e-11
0.000124039
-1.58788e-11
0.000124039
-1.43824e-11
0.000124039
-1.03724e-11
0.000124039
-7.15e-12
0.000124039
-6.883e-12
0.000124039
-8.41349e-12
0.000124039
-9.13917e-12
0.000124038
-7.91922e-12
0.000124038
-5.79738e-12
0.000124039
-4.44045e-12
0.000124039
-4.77064e-12
0.000124038
-6.25614e-12
0.000124038
-6.76902e-12
0.000124038
-5.52484e-12
0.000124038
-3.77072e-12
0.000124038
-3.88016e-12
0.000124038
-6.16935e-12
0.000124038
-7.97193e-12
0.000124038
-7.02117e-12
0.000124038
-4.46137e-12
0.000124038
-3.47502e-12
0.000124038
-5.54688e-12
0.000124038
-9.04209e-12
0.000124038
-1.1961e-11
0.000124038
-1.3991e-11
0.000124038
-1.5745e-11
0.000124038
-1.78072e-11
0.000124038
-2.03351e-11
0.000124038
-2.25431e-11
0.000124038
-2.29084e-11
0.000124038
-2.06925e-11
0.000124038
-1.69085e-11
0.000124039
-1.36761e-11
0.000124039
-1.27142e-11
0.000124039
-1.28007e-11
0.000124039
-1.0845e-11
0.000124039
-6.40812e-12
0.000124039
-2.1565e-12
0.000124039
4.76454e-13
0.000124039
2.5711e-12
0.000124039
5.14168e-12
0.000124039
7.77998e-12
0.000124039
9.77907e-12
0.000124039
1.08491e-11
0.000124039
1.18156e-11
0.000124039
1.2404e-11
0.000124039
1.18947e-11
0.000124039
1.19195e-11
0.000124039
1.41124e-11
0.000124039
1.50192e-11
0.000124039
1.14136e-11
0.000124039
5.93415e-12
0.000124039
2.04863e-12
0.000124039
-7.84389e-13
0.000124039
-4.19364e-12
0.000124039
-7.74421e-12
0.000124039
-1.02807e-11
0.000124039
-1.10186e-11
0.000124039
-1.0967e-11
0.000124039
-1.08085e-11
0.000124039
-9.15867e-12
0.000124039
-7.07455e-12
0.000124039
-6.12016e-12
0.000124039
-4.14591e-12
0.000124039
-9.10241e-13
0.000124039
-1.19052e-12
0.000124039
-2.45919e-12
0.000124039
-6.86388e-12
-7.14299e-12
0.00013692
7.08736e-11
0.00013692
6.81409e-11
0.00013692
6.78876e-11
0.00013692
7.48295e-11
0.00013692
9.43102e-11
0.00013692
1.06533e-10
0.00013692
1.01196e-10
0.00013692
1.06321e-10
0.000136919
1.11163e-10
0.000136919
1.14618e-10
0.000136919
1.13085e-10
0.000136919
1.08007e-10
0.000136919
1.01624e-10
0.000136919
9.25273e-11
0.000136919
8.54317e-11
0.000136919
8.12074e-11
0.000136919
7.56142e-11
0.000136919
6.92196e-11
0.000136919
6.27553e-11
0.000136919
5.4946e-11
0.000136919
4.76567e-11
0.000136919
4.05472e-11
0.000136919
3.05404e-11
0.000136919
2.06533e-11
0.000136919
1.55975e-11
0.000136919
1.44401e-11
0.000136919
1.49827e-11
0.000136919
1.63745e-11
0.000136919
1.63875e-11
0.000136919
1.42354e-11
0.000136919
1.06534e-11
0.000136919
6.6136e-12
0.000136919
4.52953e-12
0.000136919
5.83001e-12
0.000136919
7.33731e-12
0.000136919
6.06877e-12
0.000136919
2.86588e-12
0.000136919
-1.17767e-13
0.000136919
-1.24928e-12
0.000136919
-1.89048e-13
0.000136919
1.68376e-12
0.000136919
3.19827e-12
0.000136919
5.36026e-12
0.000136919
8.92772e-12
0.000136919
1.28935e-11
0.000136919
1.57578e-11
0.000136919
1.66339e-11
0.000136919
1.57402e-11
0.000136919
1.49817e-11
0.000136919
1.59626e-11
0.000136919
1.78625e-11
0.000136919
1.86361e-11
0.000136919
1.71952e-11
0.000136919
1.40946e-11
0.000136919
1.11493e-11
0.000136919
1.01696e-11
0.000136919
1.11715e-11
0.000136919
1.24536e-11
0.000136919
1.25396e-11
0.000136919
1.20684e-11
0.000136919
1.24477e-11
0.000136919
1.42166e-11
0.000136919
1.63612e-11
0.000136919
1.7187e-11
0.000136919
1.66219e-11
0.000136919
1.60799e-11
0.000136919
1.69844e-11
0.000136919
1.88931e-11
0.000136919
1.94538e-11
0.000136919
1.66537e-11
0.000136919
1.09926e-11
0.000136919
5.17232e-12
0.000136919
1.26633e-12
0.000136919
-7.9469e-13
0.000136919
-2.54686e-12
0.000136919
-4.93202e-12
0.000136919
-7.45277e-12
0.000136919
-8.81854e-12
0.000136919
-8.56249e-12
0.000136919
-7.43839e-12
0.000136919
-7.06802e-12
0.000136919
-8.08595e-12
0.000136919
-9.18591e-12
0.000136919
-8.40811e-12
0.000136919
-5.91951e-12
0.000136919
-3.90026e-12
0.000136919
-3.81731e-12
0.000136919
-5.05093e-12
0.000136919
-6.03974e-12
0.000136919
-6.0205e-12
0.000136919
-5.24212e-12
0.000136919
-4.87538e-12
0.000136919
-6.0628e-12
0.000136919
-8.4219e-12
0.000136919
-9.93958e-12
0.000136919
-8.8929e-12
0.000136919
-6.1804e-12
0.000136919
-4.68567e-12
0.000136919
-5.56541e-12
0.000136919
-6.87084e-12
0.000136919
-6.25901e-12
0.000136919
-4.24845e-12
0.000136919
-3.11069e-12
0.000136919
-3.74989e-12
0.000136919
-5.46355e-12
0.000136919
-7.51068e-12
0.000136919
-9.62184e-12
0.000136919
-1.16897e-11
0.000136919
-1.39522e-11
0.000136919
-1.661e-11
0.000136919
-1.88631e-11
0.000136919
-1.92209e-11
0.000136919
-1.68429e-11
0.000136919
-1.25248e-11
0.000136919
-8.69446e-12
0.000136919
-7.02732e-12
0.000136919
-6.12104e-12
0.000136919
-3.59281e-12
0.000136919
3.10049e-13
0.000136919
3.47852e-12
0.000136919
4.76638e-12
0.000136919
4.84802e-12
0.000136919
5.29451e-12
0.000136919
6.44347e-12
0.000136919
6.87105e-12
0.000136919
6.42618e-12
0.000136919
6.46823e-12
0.000136919
6.76396e-12
0.000136919
6.28345e-12
0.000136919
6.19841e-12
0.000136919
6.88236e-12
0.000136919
6.1898e-12
0.000136919
3.00675e-12
0.000136919
-8.71767e-13
0.000136919
-3.73896e-12
0.000136919
-5.42229e-12
0.000136919
-6.59528e-12
0.000136919
-8.06023e-12
0.000136919
-8.64392e-12
0.000136919
-7.48463e-12
0.000136919
-6.82145e-12
0.000136919
-6.13079e-12
0.000136919
-3.30634e-12
0.000136919
-1.34408e-12
0.000136919
-2.04301e-12
0.000136919
-3.19461e-12
0.000136919
-1.60413e-12
0.000136919
-2.62343e-12
0.000136919
-6.38187e-12
-1.11959e-11
0.000144631
8.3661e-11
0.000144631
9.32532e-11
0.000144631
1.07885e-10
0.000144631
1.26505e-10
0.000144631
1.47167e-10
0.000144631
1.70526e-10
0.000144631
1.77915e-10
0.000144631
1.87426e-10
0.000144631
1.8601e-10
0.000144631
1.77895e-10
0.000144631
1.68807e-10
0.000144631
1.57046e-10
0.000144631
1.43604e-10
0.000144631
1.29533e-10
0.00014463
1.15191e-10
0.00014463
1.00961e-10
0.00014463
8.72017e-11
0.00014463
7.86736e-11
0.00014463
7.59313e-11
0.00014463
7.05338e-11
0.00014463
6.00725e-11
0.00014463
5.0157e-11
0.00014463
4.21219e-11
0.00014463
3.48596e-11
0.00014463
2.92609e-11
0.00014463
2.4832e-11
0.00014463
2.16421e-11
0.00014463
2.04816e-11
0.00014463
2.05019e-11
0.00014463
2.0302e-11
0.00014463
1.94455e-11
0.00014463
1.70222e-11
0.00014463
1.32838e-11
0.00014463
1.12771e-11
0.00014463
1.21052e-11
0.00014463
1.35425e-11
0.00014463
1.38149e-11
0.00014463
1.25271e-11
0.00014463
1.03442e-11
0.00014463
8.99711e-12
0.00014463
9.06655e-12
0.00014463
8.99988e-12
0.00014463
8.05271e-12
0.00014463
7.08509e-12
0.00014463
6.9496e-12
0.00014463
7.81859e-12
0.00014463
9.00078e-12
0.00014463
8.71501e-12
0.00014463
6.28307e-12
0.00014463
3.36244e-12
0.00014463
2.00005e-12
0.00014463
2.67383e-12
0.00014463
4.48693e-12
0.00014463
6.07796e-12
0.00014463
6.56485e-12
0.00014463
6.32384e-12
0.00014463
6.34615e-12
0.00014463
7.14327e-12
0.00014463
8.06615e-12
0.00014463
8.33402e-12
0.00014463
8.18408e-12
0.00014463
8.62368e-12
0.00014463
1.05807e-11
0.00014463
1.29696e-11
0.00014463
1.41458e-11
0.00014463
1.33031e-11
0.00014463
1.12831e-11
0.00014463
9.62477e-12
0.00014463
9.07546e-12
0.00014463
8.58249e-12
0.00014463
6.52074e-12
0.00014463
2.72294e-12
0.00014463
-1.1928e-12
0.00014463
-3.58598e-12
0.00014463
-4.23167e-12
0.00014463
-4.18693e-12
0.00014463
-4.49201e-12
0.00014463
-5.16613e-12
0.00014463
-5.29162e-12
0.00014463
-4.07789e-12
0.00014463
-1.93916e-12
0.00014463
-5.514e-13
0.00014463
-1.2377e-12
0.00014463
-3.2763e-12
0.00014463
-4.726e-12
0.00014463
-4.76125e-12
0.00014463
-4.32906e-12
0.00014463
-4.48777e-12
0.00014463
-5.42881e-12
0.00014463
-6.87848e-12
0.00014463
-8.0916e-12
0.00014463
-8.49435e-12
0.00014463
-8.08285e-12
0.00014463
-8.08322e-12
0.00014463
-9.16619e-12
0.00014463
-9.98941e-12
0.00014463
-8.59941e-12
0.00014463
-5.37954e-12
0.00014463
-3.10718e-12
0.00014463
-3.20942e-12
0.00014463
-4.23388e-12
0.00014463
-4.6199e-12
0.00014463
-4.36706e-12
0.00014463
-4.51661e-12
0.00014463
-5.49701e-12
0.00014463
-7.54123e-12
0.00014463
-1.04363e-11
0.00014463
-1.30693e-11
0.00014463
-1.39971e-11
0.00014463
-1.33519e-11
0.00014463
-1.2416e-11
0.00014463
-1.19413e-11
0.00014463
-1.13457e-11
0.00014463
-9.36109e-12
0.00014463
-5.89143e-12
0.00014463
-2.49347e-12
0.00014463
-4.03723e-14
0.00014463
2.29431e-12
0.00014463
5.05618e-12
0.00014463
7.64342e-12
0.00014463
9.17647e-12
0.00014463
9.00038e-12
0.00014463
7.99351e-12
0.00014463
7.65826e-12
0.00014463
7.68224e-12
0.00014463
7.05678e-12
0.00014463
6.55099e-12
0.00014463
7.07317e-12
0.00014463
6.62792e-12
0.00014463
4.31414e-12
0.00014463
1.58599e-12
0.00014463
-5.86021e-13
0.00014463
-2.5719e-12
0.00014463
-4.38362e-12
0.00014463
-5.01908e-12
0.00014463
-4.34765e-12
0.00014463
-3.9345e-12
0.00014463
-5.37229e-12
0.00014463
-6.72268e-12
0.00014463
-4.2533e-12
0.00014463
-1.25611e-12
0.00014463
-1.95947e-12
0.00014463
-1.77523e-12
0.00014463
4.12013e-13
0.00014463
7.55945e-13
0.00014463
-1.1239e-12
0.00014463
-2.20536e-12
0.00014463
-5.91998e-12
0.00014463
-1.08047e-11
-1.57052e-11
0.000147199
8.37077e-11
0.000147199
9.22487e-11
0.000147199
1.24922e-10
0.000147199
1.61327e-10
0.000147199
1.78627e-10
0.000147199
1.93033e-10
0.000147199
2.14499e-10
0.000147198
2.29922e-10
0.000147198
2.27756e-10
0.000147198
2.17089e-10
0.000147198
2.07355e-10
0.000147198
1.96043e-10
0.000147198
1.80615e-10
0.000147198
1.62726e-10
0.000147198
1.44647e-10
0.000147198
1.28475e-10
0.000147198
1.12669e-10
0.000147198
9.7997e-11
0.000147198
8.82526e-11
0.000147198
7.99447e-11
0.000147198
6.81461e-11
0.000147198
5.6089e-11
0.000147198
4.73008e-11
0.000147198
4.05291e-11
0.000147198
3.47753e-11
0.000147198
2.93593e-11
0.000147198
2.34081e-11
0.000147198
1.76903e-11
0.000147198
1.34364e-11
0.000147198
1.12326e-11
0.000147198
1.18234e-11
0.000147198
1.3969e-11
0.000147198
1.49057e-11
0.000147198
1.43747e-11
0.000147198
1.39149e-11
0.000147198
1.36106e-11
0.000147198
1.29454e-11
0.000147198
1.17176e-11
0.000147198
9.60115e-12
0.000147198
7.43649e-12
0.000147198
6.68584e-12
0.000147198
6.64662e-12
0.000147198
5.42366e-12
0.000147198
2.60038e-12
0.000147198
-7.67897e-13
0.000147198
-2.89462e-12
0.000147198
-2.31092e-12
0.000147198
9.96695e-14
0.000147198
1.76916e-12
0.000147198
1.28965e-12
0.000147198
-5.47828e-13
0.000147198
-2.2378e-12
0.000147198
-2.6458e-12
0.000147198
-1.756e-12
0.000147198
-4.2571e-13
0.000147198
5.94523e-13
0.000147198
1.32657e-12
0.000147198
2.33552e-12
0.000147198
3.70715e-12
0.000147198
4.81009e-12
0.000147198
4.86805e-12
0.000147198
4.27569e-12
0.000147198
4.42874e-12
0.000147198
6.0803e-12
0.000147198
8.40246e-12
0.000147198
9.69042e-12
0.000147198
8.69282e-12
0.000147198
5.63276e-12
0.000147198
2.19756e-12
0.000147198
4.30307e-14
0.000147198
-7.64782e-13
0.000147198
-1.27688e-12
0.000147198
-1.64019e-12
0.000147198
-1.45755e-12
0.000147198
-1.8628e-13
0.000147198
1.67815e-12
0.000147198
2.9432e-12
0.000147198
2.82269e-12
0.000147198
1.60724e-12
0.000147198
4.47202e-13
0.000147198
5.72844e-13
0.000147198
1.85207e-12
0.000147198
2.41116e-12
0.000147198
7.57725e-13
0.000147198
-2.53184e-12
0.000147198
-5.57834e-12
0.000147198
-7.41898e-12
0.000147198
-8.42302e-12
0.000147198
-9.02193e-12
0.000147198
-9.57306e-12
0.000147198
-1.01338e-11
0.000147198
-1.02663e-11
0.000147198
-9.06787e-12
0.000147198
-6.73791e-12
0.000147198
-4.91841e-12
0.000147198
-4.75385e-12
0.000147198
-5.1917e-12
0.000147198
-4.42311e-12
0.000147198
-2.74494e-12
0.000147198
-2.02255e-12
0.000147198
-2.66915e-12
0.000147198
-3.85596e-12
0.000147198
-4.77194e-12
0.000147198
-5.72476e-12
0.000147198
-6.86311e-12
0.000147198
-8.19248e-12
0.000147198
-1.01237e-11
0.000147198
-1.24139e-11
0.000147198
-1.32093e-11
0.000147198
-1.09064e-11
0.000147198
-6.19672e-12
0.000147198
-1.47761e-12
0.000147198
1.53881e-12
0.000147198
3.21222e-12
0.000147198
4.9549e-12
0.000147198
7.04295e-12
0.000147198
8.73707e-12
0.000147198
9.87201e-12
0.000147198
1.05105e-11
0.000147198
1.07383e-11
0.000147198
1.09733e-11
0.000147198
1.11128e-11
0.000147198
9.99833e-12
0.000147198
7.4869e-12
0.000147198
4.58911e-12
0.000147198
2.01128e-12
0.000147198
8.70561e-13
0.000147198
1.4208e-12
0.000147198
1.96277e-12
0.000147198
5.94175e-13
0.000147198
-1.67334e-12
0.000147198
-3.14129e-12
0.000147198
-3.9033e-12
0.000147198
-4.76076e-12
0.000147198
-5.5358e-12
0.000147198
-4.88153e-12
0.000147198
-1.93439e-12
0.000147198
1.09071e-12
0.000147198
1.26253e-12
0.000147198
7.0685e-13
0.000147198
1.80435e-12
0.000147198
2.3953e-13
0.000147198
-3.93752e-12
0.000147198
-5.26768e-12
0.000147198
-5.72147e-12
0.000147198
-4.87011e-12
0.000147198
-5.99138e-12
0.000147198
-8.60942e-12
0.000147198
-1.16968e-11
-1.33037e-11
0.000144631
9.74923e-11
0.000144631
1.10797e-10
0.000144631
1.35377e-10
0.000144631
1.67996e-10
0.000144631
1.94208e-10