/*--------------------------------*- C++ -*----------------------------------*\
| =========                 |                                                 |
| \\      /  F ield         | OpenFOAM: The Open Source CFD Toolbox           |
|  \\    /   O peration     | Version:  2406                                  |
|   \\  /    A nd           | Website:  www.openfoam.com                      |
|    \\/     M anipulation  |                                                 |
\*---------------------------------------------------------------------------*/
FoamFile
{
    version     2.0;
    format      ascii;
    arch        "LSB;label=32;scalar=64";
    class       volVectorField;
    location    "0.3";
    object      U;
}
// * * * * * * * * * * * * * * * * * * * * * * * * * * * * * * * * * * * * * //

dimensions      [0 1 -1 0 0 0 0];

internalField   nonuniform List<vector> 
2250
(
(0.296947 -5.17013e-08 0)
(0.296947 -1.20309e-07 0)
(0.296947 -1.45546e-07 0)
(0.296948 -1.7535e-07 0)
(0.296948 -1.90533e-07 0)
(0.296948 -1.7136e-07 0)
(0.296948 -1.15426e-07 0)
(0.296949 -1.25345e-07 0)
(0.296949 -1.65778e-07 0)
(0.296949 -1.45598e-07 0)
(0.296949 -8.82516e-08 0)
(0.296949 -3.68264e-08 0)
(0.29695 2.15758e-08 0)
(0.29695 3.12358e-08 0)
(0.29695 1.71454e-08 0)
(0.296949 -1.51431e-08 0)
(0.296949 -3.53109e-08 0)
(0.296949 -3.57408e-08 0)
(0.296949 -3.65437e-08 0)
(0.296949 -3.46119e-08 0)
(0.296949 -1.4416e-08 0)
(0.296949 2.3757e-08 0)
(0.296949 4.35618e-08 0)
(0.296949 1.83325e-08 0)
(0.296949 -1.2728e-08 0)
(0.296949 -8.94693e-09 0)
(0.296949 7.90629e-09 0)
(0.296949 6.52222e-09 0)
(0.296949 -1.17029e-08 0)
(0.296949 -3.07761e-08 0)
(0.296949 -2.83711e-08 0)
(0.296949 -1.64776e-09 0)
(0.296949 2.09851e-08 0)
(0.296949 2.31879e-08 0)
(0.296949 1.38607e-08 0)
(0.296949 -2.61342e-09 0)
(0.296949 -1.73881e-08 0)
(0.296949 -1.04845e-08 0)
(0.296949 1.52704e-08 0)
(0.296949 3.21918e-08 0)
(0.296949 2.69026e-08 0)
(0.296949 1.4692e-08 0)
(0.296949 1.76411e-08 0)
(0.296949 3.90882e-08 0)
(0.296949 5.68902e-08 0)
(0.296949 4.99713e-08 0)
(0.296949 2.6731e-08 0)
(0.296949 1.40884e-08 0)
(0.296949 2.65024e-08 0)
(0.296949 5.36545e-08 0)
(0.296949 6.83628e-08 0)
(0.296949 5.18319e-08 0)
(0.296949 1.75837e-08 0)
(0.296949 -1.50421e-09 0)
(0.296949 1.04983e-08 0)
(0.296949 3.87311e-08 0)
(0.296949 5.72541e-08 0)
(0.296949 5.48004e-08 0)
(0.296949 4.5872e-08 0)
(0.296949 5.36676e-08 0)
(0.296948 8.25479e-08 0)
(0.296948 1.09854e-07 0)
(0.296948 1.076e-07 0)
(0.296948 7.04934e-08 0)
(0.296948 2.18709e-08 0)
(0.296948 -9.0576e-09 0)
(0.296948 -1.22226e-08 0)
(0.296948 -3.61732e-09 0)
(0.296948 -4.9457e-09 0)
(0.296948 -1.67599e-08 0)
(0.296948 -1.85237e-08 0)
(0.296948 3.61565e-09 0)
(0.296948 3.47619e-08 0)
(0.296948 4.37689e-08 0)
(0.296948 1.84986e-08 0)
(0.296948 -1.98796e-08 0)
(0.296948 -3.91024e-08 0)
(0.296948 -2.8214e-08 0)
(0.296948 -5.58381e-09 0)
(0.296948 2.199e-09 0)
(0.296948 -1.34611e-08 0)
(0.296948 -3.56185e-08 0)
(0.296948 -4.14011e-08 0)
(0.296948 -2.70581e-08 0)
(0.296948 -1.25134e-08 0)
(0.296948 -1.77311e-08 0)
(0.296948 -3.77963e-08 0)
(0.296948 -4.59251e-08 0)
(0.296948 -2.38344e-08 0)
(0.296948 1.61944e-08 0)
(0.296948 4.44663e-08 0)
(0.296948 4.40825e-08 0)
(0.296948 2.43445e-08 0)
(0.296948 8.49598e-09 0)
(0.296948 9.94475e-09 0)
(0.296948 2.14944e-08 0)
(0.296948 2.46432e-08 0)
(0.296948 9.92507e-09 0)
(0.296948 -1.26141e-08 0)
(0.296948 -2.43698e-08 0)
(0.296948 -2.00702e-08 0)
(0.296948 -1.69907e-08 0)
(0.296948 -3.72953e-08 0)
(0.296948 -7.70083e-08 0)
(0.296948 -1.04366e-07 0)
(0.296948 -9.57424e-08 0)
(0.296948 -6.28627e-08 0)
(0.296948 -3.74257e-08 0)
(0.296948 -3.42407e-08 0)
(0.296949 -4.16036e-08 0)
(0.296949 -4.20924e-08 0)
(0.296949 -3.23292e-08 0)
(0.296949 -2.20156e-08 0)
(0.296949 -2.02958e-08 0)
(0.296949 -2.94612e-08 0)
(0.296949 -4.53334e-08 0)
(0.296949 -5.46285e-08 0)
(0.296949 -4.2451e-08 0)
(0.296949 -1.59123e-08 0)
(0.296949 -3.14956e-09 0)
(0.296949 -1.37161e-08 0)
(0.296949 -2.26428e-08 0)
(0.296949 -8.25985e-09 0)
(0.296949 1.75556e-08 0)
(0.296949 2.97726e-08 0)
(0.296949 2.26079e-08 0)
(0.296949 1.26751e-08 0)
(0.296949 1.14135e-08 0)
(0.296949 1.26813e-08 0)
(0.296949 1.59187e-08 0)
(0.296949 2.91978e-08 0)
(0.296949 3.94455e-08 0)
(0.296949 2.57686e-08 0)
(0.29695 1.64614e-09 0)
(0.29695 -6.58982e-09 0)
(0.29695 -7.17133e-09 0)
(0.29695 -2.07528e-08 0)
(0.29695 -4.07274e-08 0)
(0.29695 -4.75495e-08 0)
(0.29695 -3.9934e-08 0)
(0.29695 -3.19001e-08 0)
(0.29695 -2.6041e-08 0)
(0.29695 -1.32514e-08 0)
(0.29695 1.47088e-09 0)
(0.29695 -6.21374e-10 0)
(0.29695 -2.41592e-08 0)
(0.29695 -3.9011e-08 0)
(0.29695 -1.63271e-08 0)
(0.29695 2.49005e-08 0)
(0.29695 4.04523e-08 0)
(0.808471 -1.02461e-07 0)
(0.808471 -2.97016e-07 0)
(0.808471 -3.7927e-07 0)
(0.808471 -4.53996e-07 0)
(0.808472 -5.0957e-07 0)
(0.808472 -4.95435e-07 0)
(0.808472 -3.59821e-07 0)
(0.808473 -3.32017e-07 0)
(0.808473 -3.73579e-07 0)
(0.808473 -2.74272e-07 0)
(0.808473 -6.06311e-08 0)
(0.808473 4.52555e-09 0)
(0.808474 3.14552e-08 0)
(0.808473 2.63653e-08 0)
(0.808473 -5.82317e-10 0)
(0.808473 -4.30113e-08 0)
(0.808473 -6.19334e-08 0)
(0.808473 -5.93441e-08 0)
(0.808473 -4.81649e-08 0)
(0.808473 -7.96724e-09 0)
(0.808473 4.6055e-08 0)
(0.808473 9.34863e-08 0)
(0.808473 1.18743e-07 0)
(0.808473 8.60046e-08 0)
(0.808473 2.0012e-08 0)
(0.808473 -1.66782e-08 0)
(0.808472 -2.98877e-08 0)
(0.808472 -4.15e-08 0)
(0.808472 -3.95032e-08 0)
(0.808472 -3.49452e-08 0)
(0.808473 -2.85406e-08 0)
(0.808473 4.97484e-09 0)
(0.808473 4.41678e-08 0)
(0.808473 5.88387e-08 0)
(0.808472 6.43446e-08 0)
(0.808472 6.54041e-08 0)
(0.808472 5.28822e-08 0)
(0.808473 5.8162e-08 0)
(0.808473 1.00497e-07 0)
(0.808472 1.46945e-07 0)
(0.808472 1.60708e-07 0)
(0.808473 1.43204e-07 0)
(0.808473 1.2725e-07 0)
(0.808473 1.48757e-07 0)
(0.808472 2.00431e-07 0)
(0.808472 2.33378e-07 0)
(0.808472 2.22305e-07 0)
(0.808472 1.88791e-07 0)
(0.808472 1.65866e-07 0)
(0.808472 1.69523e-07 0)
(0.808472 1.8422e-07 0)
(0.808472 1.74695e-07 0)
(0.808472 1.29441e-07 0)
(0.808472 8.48528e-08 0)
(0.808472 8.33091e-08 0)
(0.808472 1.2892e-07 0)
(0.808472 1.85872e-07 0)
(0.808472 2.09263e-07 0)
(0.808472 1.89321e-07 0)
(0.808472 1.59943e-07 0)
(0.808472 1.58237e-07 0)
(0.808472 1.80564e-07 0)
(0.808472 1.87722e-07 0)
(0.808472 1.47419e-07 0)
(0.808472 6.9935e-08 0)
(0.808472 3.10672e-10 0)
(0.808472 -2.05596e-08 0)
(0.808472 3.84872e-09 0)
(0.808471 3.26322e-08 0)
(0.808471 3.28578e-08 0)
(0.808471 1.50588e-08 0)
(0.808471 1.77674e-08 0)
(0.808471 5.36481e-08 0)
(0.808471 8.64293e-08 0)
(0.808471 7.08939e-08 0)
(0.808471 6.20325e-09 0)
(0.808471 -6.44618e-08 0)
(0.808471 -9.58899e-08 0)
(0.808471 -8.12662e-08 0)
(0.808471 -5.41916e-08 0)
(0.808471 -5.39378e-08 0)
(0.808471 -8.57279e-08 0)
(0.808471 -1.1712e-07 0)
(0.808471 -1.15553e-07 0)
(0.808471 -8.74656e-08 0)
(0.808471 -7.0829e-08 0)
(0.808471 -8.9893e-08 0)
(0.808471 -1.22714e-07 0)
(0.808471 -1.22875e-07 0)
(0.808471 -7.14703e-08 0)
(0.808471 4.3267e-09 0)
(0.808471 5.81268e-08 0)
(0.808471 6.78472e-08 0)
(0.808471 4.99915e-08 0)
(0.808471 3.6736e-08 0)
(0.808471 4.24586e-08 0)
(0.808471 4.97141e-08 0)
(0.808471 2.95564e-08 0)
(0.808471 -2.353e-08 0)
(0.808471 -8.31449e-08 0)
(0.808471 -1.16584e-07 0)
(0.808471 -1.20369e-07 0)
(0.808471 -1.26948e-07 0)
(0.808471 -1.65118e-07 0)
(0.808471 -2.15859e-07 0)
(0.808471 -2.3123e-07 0)
(0.808471 -1.9407e-07 0)
(0.808472 -1.37523e-07 0)
(0.808472 -1.03754e-07 0)
(0.808472 -1.02619e-07 0)
(0.808472 -1.13931e-07 0)
(0.808472 -1.18577e-07 0)
(0.808472 -1.14865e-07 0)
(0.808472 -1.09889e-07 0)
(0.808472 -1.09188e-07 0)
(0.808472 -1.20764e-07 0)
(0.808472 -1.43371e-07 0)
(0.808472 -1.45944e-07 0)
(0.808472 -1.04786e-07 0)
(0.808472 -5.29659e-08 0)
(0.808472 -3.66515e-08 0)
(0.808472 -4.2271e-08 0)
(0.808472 -2.54429e-08 0)
(0.808472 2.3252e-08 0)
(0.808472 7.18563e-08 0)
(0.808472 9.10921e-08 0)
(0.808472 8.65099e-08 0)
(0.808472 7.95846e-08 0)
(0.808473 7.07289e-08 0)
(0.808473 6.13479e-08 0)
(0.808473 7.64498e-08 0)
(0.808473 1.04405e-07 0)
(0.808473 8.86236e-08 0)
(0.808473 3.18907e-08 0)
(0.808473 -1.66613e-09 0)
(0.808473 -2.27414e-09 0)
(0.808473 -1.5499e-08 0)
(0.808473 -5.12549e-08 0)
(0.808473 -8.24446e-08 0)
(0.808473 -9.07884e-08 0)
(0.808473 -8.05591e-08 0)
(0.808473 -6.48203e-08 0)
(0.808473 -4.08452e-08 0)
(0.808473 -6.33969e-09 0)
(0.808473 1.51376e-08 0)
(0.808473 -5.09262e-09 0)
(0.808473 -3.9316e-08 0)
(0.808473 -3.09887e-08 0)
(0.808473 3.32161e-08 0)
(0.808474 6.22744e-08 0)
(1.23885 -7.06382e-08 0)
(1.23885 -2.60179e-07 0)
(1.23885 -4.80157e-07 0)
(1.23885 -5.59679e-07 0)
(1.23885 -5.85878e-07 0)
(1.23885 -6.29658e-07 0)
(1.23885 -5.65183e-07 0)
(1.23885 -4.75806e-07 0)
(1.23885 -3.97147e-07 0)
(1.23885 -2.77037e-07 0)
(1.23885 -6.42782e-08 0)
(1.23885 -2.70135e-08 0)
(1.23885 -4.92764e-08 0)
(1.23885 -1.41847e-08 0)
(1.23885 4.10316e-08 0)
(1.23885 4.6756e-08 0)
(1.23885 5.29179e-08 0)
(1.23885 7.63831e-08 0)
(1.23885 1.03881e-07 0)
(1.23885 1.4684e-07 0)
(1.23885 1.79553e-07 0)
(1.23885 1.69215e-07 0)
(1.23885 1.50664e-07 0)
(1.23885 1.38059e-07 0)
(1.23885 9.24196e-08 0)
(1.23884 1.99104e-08 0)
(1.23884 -4.44446e-08 0)
(1.23884 -7.67565e-08 0)
(1.23884 -4.95018e-08 0)
(1.23884 1.23254e-08 0)
(1.23884 4.16281e-08 0)
(1.23884 3.70993e-08 0)
(1.23884 3.35082e-08 0)
(1.23884 3.52176e-08 0)
(1.23884 5.38671e-08 0)
(1.23884 9.81158e-08 0)
(1.23884 1.33771e-07 0)
(1.23884 1.42571e-07 0)
(1.23884 1.52045e-07 0)
(1.23884 1.80854e-07 0)
(1.23884 2.17618e-07 0)
(1.23884 2.38141e-07 0)
(1.23884 2.28324e-07 0)
(1.23884 2.13605e-07 0)
(1.23884 2.37392e-07 0)
(1.23884 2.99064e-07 0)
(1.23884 3.55397e-07 0)
(1.23885 3.69833e-07 0)
(1.23885 3.36482e-07 0)
(1.23885 2.81189e-07 0)
(1.23885 2.43778e-07 0)
(1.23884 2.37639e-07 0)
(1.23884 2.36676e-07 0)
(1.23885 2.19549e-07 0)
(1.23885 1.98095e-07 0)
(1.23885 2.00445e-07 0)
(1.23884 2.3828e-07 0)
(1.23884 2.88342e-07 0)
(1.23884 3.07252e-07 0)
(1.23884 2.75742e-07 0)
(1.23884 2.18973e-07 0)
(1.23885 1.79268e-07 0)
(1.23885 1.72483e-07 0)
(1.23885 1.75274e-07 0)
(1.23885 1.53817e-07 0)
(1.23885 1.01868e-07 0)
(1.23885 4.9011e-08 0)
(1.23884 3.42853e-08 0)
(1.23884 6.50634e-08 0)
(1.23884 1.05668e-07 0)
(1.23884 1.13009e-07 0)
(1.23884 8.37262e-08 0)
(1.23884 5.49787e-08 0)
(1.23884 5.35244e-08 0)
(1.23884 6.24128e-08 0)
(1.23884 4.54624e-08 0)
(1.23884 -1.09991e-08 0)
(1.23884 -8.08572e-08 0)
(1.23884 -1.22614e-07 0)
(1.23884 -1.18168e-07 0)
(1.23884 -9.10407e-08 0)
(1.23884 -8.50035e-08 0)
(1.23884 -1.18343e-07 0)
(1.23884 -1.64533e-07 0)
(1.23884 -1.8145e-07 0)
(1.23884 -1.58946e-07 0)
(1.23884 -1.29513e-07 0)
(1.23884 -1.27687e-07 0)
(1.23884 -1.45146e-07 0)
(1.23884 -1.42173e-07 0)
(1.23884 -9.3849e-08 0)
(1.23884 -1.6229e-08 0)
(1.23884 4.88294e-08 0)
(1.23884 6.93753e-08 0)
(1.23884 4.82534e-08 0)
(1.23884 1.89888e-08 0)
(1.23884 1.12632e-08 0)
(1.23884 1.6448e-08 0)
(1.23884 -2.43236e-09 0)
(1.23884 -6.65521e-08 0)
(1.23884 -1.52563e-07 0)
(1.23884 -2.11768e-07 0)
(1.23884 -2.23123e-07 0)
(1.23884 -2.16677e-07 0)
(1.23884 -2.30313e-07 0)
(1.23884 -2.59798e-07 0)
(1.23884 -2.71297e-07 0)
(1.23884 -2.4774e-07 0)
(1.23884 -2.0653e-07 0)
(1.23884 -1.78129e-07 0)
(1.23884 -1.79096e-07 0)
(1.23884 -1.99989e-07 0)
(1.23884 -2.17492e-07 0)
(1.23884 -2.14917e-07 0)
(1.23884 -1.87727e-07 0)
(1.23884 -1.52412e-07 0)
(1.23884 -1.41515e-07 0)
(1.23884 -1.56868e-07 0)
(1.23884 -1.51307e-07 0)
(1.23884 -9.64386e-08 0)
(1.23884 -2.97047e-08 0)
(1.23884 5.11903e-09 0)
(1.23884 1.76757e-08 0)
(1.23884 4.13842e-08 0)
(1.23884 8.5538e-08 0)
(1.23884 1.28159e-07 0)
(1.23885 1.49268e-07 0)
(1.23885 1.57283e-07 0)
(1.23885 1.60229e-07 0)
(1.23885 1.45689e-07 0)
(1.23885 1.25742e-07 0)
(1.23885 1.29756e-07 0)
(1.23885 1.27665e-07 0)
(1.23885 7.25218e-08 0)
(1.23885 -1.48205e-09 0)
(1.23885 -3.49202e-08 0)
(1.23885 -4.05675e-08 0)
(1.23885 -5.95257e-08 0)
(1.23885 -9.64795e-08 0)
(1.23885 -1.24975e-07 0)
(1.23885 -1.21345e-07 0)
(1.23885 -1.00898e-07 0)
(1.23885 -8.34369e-08 0)
(1.23885 -6.17165e-08 0)
(1.23885 -3.56752e-08 0)
(1.23885 -1.98229e-08 0)
(1.23885 -2.03439e-08 0)
(1.23885 -2.34455e-08 0)
(1.23885 1.69914e-08 0)
(1.23885 6.77909e-09 0)
(1.58922 6.34497e-08 0)
(1.58922 8.53155e-08 0)
(1.58922 -4.36384e-08 0)
(1.58922 -1.32026e-07 0)
(1.58922 -2.03538e-07 0)
(1.58922 -2.46564e-07 0)
(1.58922 -2.28635e-07 0)
(1.58921 -1.93802e-07 0)
(1.58921 -6.70058e-08 0)
(1.58921 2.72874e-08 0)
(1.58921 9.97206e-08 0)
(1.58921 1.54434e-07 0)
(1.58921 2.04479e-07 0)
(1.58921 2.84008e-07 0)
(1.58921 3.40493e-07 0)
(1.58921 3.26891e-07 0)
(1.58921 3.02138e-07 0)
(1.58921 2.96486e-07 0)
(1.58921 2.79537e-07 0)
(1.58921 2.63323e-07 0)
(1.58921 2.58711e-07 0)
(1.58921 2.28765e-07 0)
(1.58921 1.86918e-07 0)
(1.58921 1.66351e-07 0)
(1.58921 1.37034e-07 0)
(1.58921 8.62489e-08 0)
(1.58921 4.26023e-08 0)
(1.58921 1.75479e-08 0)
(1.58921 2.61163e-08 0)
(1.58921 7.1668e-08 0)
(1.58921 1.0486e-07 0)
(1.58921 9.94996e-08 0)
(1.58921 8.27532e-08 0)
(1.58921 6.68387e-08 0)
(1.58921 6.76086e-08 0)
(1.58921 1.15402e-07 0)
(1.58921 1.8989e-07 0)
(1.58921 2.34491e-07 0)
(1.58921 2.36736e-07 0)
(1.58921 2.24472e-07 0)
(1.58921 2.29445e-07 0)
(1.58921 2.6355e-07 0)
(1.58921 2.99246e-07 0)
(1.58921 3.06713e-07 0)
(1.58921 3.0166e-07 0)
(1.58921 3.17346e-07 0)
(1.58921 3.57933e-07 0)
(1.58921 4.01099e-07 0)
(1.58921 4.13465e-07 0)
(1.58921 3.7575e-07 0)
(1.58921 3.13912e-07 0)
(1.58921 2.74076e-07 0)
(1.58921 2.71226e-07 0)
(1.58921 2.79377e-07 0)
(1.58921 2.66583e-07 0)
(1.58921 2.27055e-07 0)
(1.58921 1.87738e-07 0)
(1.58921 1.84395e-07 0)
(1.58921 2.20007e-07 0)
(1.58921 2.5975e-07 0)
(1.58921 2.67745e-07 0)
(1.58921 2.4228e-07 0)
(1.58921 2.10161e-07 0)
(1.58921 1.96344e-07 0)
(1.58921 1.96125e-07 0)
(1.58921 1.83827e-07 0)
(1.58921 1.4313e-07 0)
(1.58921 9.32474e-08 0)
(1.58921 7.19276e-08 0)
(1.58921 9.21425e-08 0)
(1.58921 1.22123e-07 0)
(1.58921 1.15232e-07 0)
(1.58921 6.15092e-08 0)
(1.58921 -3.62803e-09 0)
(1.58921 -3.93347e-08 0)
(1.58921 -3.97077e-08 0)
(1.58921 -3.25803e-08 0)
(1.58921 -5.02156e-08 0)
(1.58921 -9.55718e-08 0)
(1.58921 -1.4085e-07 0)
(1.58921 -1.57236e-07 0)
(1.58921 -1.47103e-07 0)
(1.58921 -1.4129e-07 0)
(1.58921 -1.6302e-07 0)
(1.58921 -1.98294e-07 0)
(1.58921 -2.08921e-07 0)
(1.58921 -1.77386e-07 0)
(1.58921 -1.27751e-07 0)
(1.58921 -9.61646e-08 0)
(1.58921 -9.09106e-08 0)
(1.58921 -9.15338e-08 0)
(1.58921 -7.37846e-08 0)
(1.58921 -3.4355e-08 0)
(1.58921 4.37709e-09 0)
(1.58921 1.5467e-08 0)
(1.58921 -6.57366e-09 0)
(1.58921 -3.62035e-08 0)
(1.58921 -4.25301e-08 0)
(1.58921 -2.82287e-08 0)
(1.58921 -3.02122e-08 0)
(1.58921 -7.8833e-08 0)
(1.58921 -1.58035e-07 0)
(1.58921 -2.20085e-07 0)
(1.58921 -2.40734e-07 0)
(1.58921 -2.42558e-07 0)
(1.58921 -2.56998e-07 0)
(1.58921 -2.85503e-07 0)
(1.58921 -3.08668e-07 0)
(1.58921 -3.11498e-07 0)
(1.58921 -2.93562e-07 0)
(1.58921 -2.6778e-07 0)
(1.58921 -2.4697e-07 0)
(1.58921 -2.34336e-07 0)
(1.58921 -2.24517e-07 0)
(1.58921 -2.02523e-07 0)
(1.58921 -1.5619e-07 0)
(1.58921 -1.05979e-07 0)
(1.58921 -9.06098e-08 0)
(1.58921 -1.03191e-07 0)
(1.58921 -9.32674e-08 0)
(1.58921 -4.14636e-08 0)
(1.58921 1.78531e-08 0)
(1.58921 5.49631e-08 0)
(1.58921 7.44373e-08 0)
(1.58921 9.72782e-08 0)
(1.58921 1.27909e-07 0)
(1.58921 1.51068e-07 0)
(1.58921 1.69199e-07 0)
(1.58921 1.9844e-07 0)
(1.58921 2.16011e-07 0)
(1.58921 1.90194e-07 0)
(1.58921 1.51843e-07 0)
(1.58921 1.36215e-07 0)
(1.58921 1.06317e-07 0)
(1.58921 2.91422e-08 0)
(1.58921 -5.63406e-08 0)
(1.58921 -1.05864e-07 0)
(1.58921 -1.22863e-07 0)
(1.58921 -1.32451e-07 0)
(1.58921 -1.4259e-07 0)
(1.58921 -1.26606e-07 0)
(1.58921 -8.61118e-08 0)
(1.58921 -6.36101e-08 0)
(1.58921 -6.2457e-08 0)
(1.58921 -6.19135e-08 0)
(1.58921 -5.01389e-08 0)
(1.58921 -4.44861e-08 0)
(1.58921 -2.89044e-08 0)
(1.58921 -2.78924e-08 0)
(1.58921 -1.97028e-08 0)
(1.86059 4.58615e-07 0)
(1.86059 5.14923e-07 0)
(1.86059 5.83698e-07 0)
(1.86059 5.55436e-07 0)
(1.86059 4.77104e-07 0)
(1.86059 4.44682e-07 0)
(1.86059 4.86241e-07 0)
(1.86059 4.72715e-07 0)
(1.86058 5.25154e-07 0)
(1.86058 5.85119e-07 0)
(1.86058 5.94476e-07 0)
(1.86058 6.49231e-07 0)
(1.86058 7.06067e-07 0)
(1.86058 7.13888e-07 0)
(1.86058 6.8832e-07 0)
(1.86058 6.48068e-07 0)
(1.86058 6.08567e-07 0)
(1.86058 5.65844e-07 0)
(1.86058 4.85424e-07 0)
(1.86058 4.06316e-07 0)
(1.86058 3.86127e-07 0)
(1.86058 3.67803e-07 0)
(1.86058 3.00418e-07 0)
(1.86058 2.24018e-07 0)
(1.86058 1.67092e-07 0)
(1.86058 1.31251e-07 0)
(1.86058 1.28025e-07 0)
(1.86058 1.38723e-07 0)
(1.86058 1.41492e-07 0)
(1.86058 1.5062e-07 0)
(1.86058 1.62474e-07 0)
(1.86058 1.62262e-07 0)
(1.86058 1.6439e-07 0)
(1.86058 1.69132e-07 0)
(1.86058 1.64247e-07 0)
(1.86058 1.73307e-07 0)
(1.86058 2.1264e-07 0)
(1.86058 2.52968e-07 0)
(1.86058 2.65822e-07 0)
(1.86058 2.52469e-07 0)
(1.86058 2.33838e-07 0)
(1.86058 2.44309e-07 0)
(1.86058 2.92856e-07 0)
(1.86058 3.4498e-07 0)
(1.86058 3.70669e-07 0)
(1.86058 3.75298e-07 0)
(1.86058 3.76154e-07 0)
(1.86058 3.88166e-07 0)
(1.86058 4.10441e-07 0)
(1.86058 4.16688e-07 0)
(1.86058 3.86158e-07 0)
(1.86058 3.33207e-07 0)
(1.86058 2.88568e-07 0)
(1.86058 2.65607e-07 0)
(1.86058 2.52705e-07 0)
(1.86058 2.27146e-07 0)
(1.86058 1.82818e-07 0)
(1.86058 1.44592e-07 0)
(1.86058 1.45726e-07 0)
(1.86058 1.90809e-07 0)
(1.86058 2.46493e-07 0)
(1.86058 2.72218e-07 0)
(1.86058 2.54709e-07 0)
(1.86058 2.18839e-07 0)
(1.86058 1.96352e-07 0)
(1.86058 1.9468e-07 0)
(1.86058 1.93643e-07 0)
(1.86058 1.70702e-07 0)
(1.86058 1.28321e-07 0)
(1.86058 9.29164e-08 0)
(1.86058 8.14773e-08 0)
(1.86058 7.79082e-08 0)
(1.86058 5.16293e-08 0)
(1.86058 -5.70347e-09 0)
(1.86058 -6.85851e-08 0)
(1.86058 -1.05448e-07 0)
(1.86058 -1.08028e-07 0)
(1.86058 -1.01103e-07 0)
(1.86058 -1.1742e-07 0)
(1.86058 -1.6429e-07 0)
(1.86058 -2.14538e-07 0)
(1.86058 -2.32436e-07 0)
(1.86058 -2.08163e-07 0)
(1.86058 -1.69917e-07 0)
(1.86058 -1.53572e-07 0)
(1.86058 -1.62121e-07 0)
(1.86058 -1.6716e-07 0)
(1.86058 -1.46394e-07 0)
(1.86058 -1.09918e-07 0)
(1.86058 -8.28959e-08 0)
(1.86058 -7.75055e-08 0)
(1.86058 -8.67368e-08 0)
(1.86058 -9.10354e-08 0)
(1.86058 -7.76972e-08 0)
(1.86058 -5.2996e-08 0)
(1.86058 -4.08914e-08 0)
(1.86058 -5.70068e-08 0)
(1.86058 -8.41172e-08 0)
(1.86058 -8.85466e-08 0)
(1.86058 -6.411e-08 0)
(1.86058 -4.51777e-08 0)
(1.86058 -6.80232e-08 0)
(1.86058 -1.26265e-07 0)
(1.86058 -1.82897e-07 0)
(1.86058 -2.1841e-07 0)
(1.86058 -2.44899e-07 0)
(1.86058 -2.76446e-07 0)
(1.86058 -3.12827e-07 0)
(1.86058 -3.44063e-07 0)
(1.86058 -3.56583e-07 0)
(1.86058 -3.39861e-07 0)
(1.86058 -2.96602e-07 0)
(1.86058 -2.43884e-07 0)
(1.86058 -2.04768e-07 0)
(1.86058 -1.88337e-07 0)
(1.86058 -1.70758e-07 0)
(1.86058 -1.26734e-07 0)
(1.86058 -7.53827e-08 0)
(1.86058 -4.90937e-08 0)
(1.86058 -3.77328e-08 0)
(1.86058 -9.18444e-09 0)
(1.86058 4.02552e-08 0)
(1.86058 8.74216e-08 0)
(1.86058 1.16858e-07 0)
(1.86058 1.36668e-07 0)
(1.86058 1.59853e-07 0)
(1.86058 1.77088e-07 0)
(1.86058 1.80899e-07 0)
(1.86058 1.9778e-07 0)
(1.86058 2.32268e-07 0)
(1.86058 2.33918e-07 0)
(1.86058 1.81043e-07 0)
(1.86058 1.2226e-07 0)
(1.86058 8.21254e-08 0)
(1.86058 2.70575e-08 0)
(1.86058 -5.2457e-08 0)
(1.86058 -1.23285e-07 0)
(1.86058 -1.60146e-07 0)
(1.86058 -1.64771e-07 0)
(1.86058 -1.5943e-07 0)
(1.86058 -1.43446e-07 0)
(1.86058 -1.02322e-07 0)
(1.86058 -6.78132e-08 0)
(1.86058 -5.76049e-08 0)
(1.86058 -4.4652e-08 0)
(1.86058 -1.87641e-08 0)
(1.86058 -3.13128e-08 0)
(1.86058 -2.56365e-08 0)
(1.86058 -7.40232e-08 0)
(1.86058 -6.31309e-08 0)
(2.0538 9.14093e-07 0)
(2.0538 8.58218e-07 0)
(2.0538 9.18875e-07 0)
(2.0538 9.80708e-07 0)
(2.0538 1.1172e-06 0)
(2.0538 1.18497e-06 0)
(2.05379 1.1628e-06 0)
(2.05379 1.20063e-06 0)
(2.05379 1.24221e-06 0)
(2.05379 1.27903e-06 0)
(2.05379 1.26408e-06 0)
(2.05379 1.25294e-06 0)
(2.05379 1.22854e-06 0)
(2.05379 1.1278e-06 0)
(2.05379 1.03965e-06 0)
(2.05379 9.93426e-07 0)
(2.05379 9.42048e-07 0)
(2.05379 8.76451e-07 0)
(2.05379 7.85968e-07 0)
(2.05379 6.83826e-07 0)
(2.05379 6.1668e-07 0)
(2.05379 5.49932e-07 0)
(2.05379 4.26546e-07 0)
(2.05379 2.95043e-07 0)
(2.05379 2.18841e-07 0)
(2.05378 1.91974e-07 0)
(2.05378 1.98193e-07 0)
(2.05378 2.15193e-07 0)
(2.05378 2.10857e-07 0)
(2.05378 1.88365e-07 0)
(2.05378 1.62408e-07 0)
(2.05378 1.36212e-07 0)
(2.05378 1.31358e-07 0)
(2.05378 1.55008e-07 0)
(2.05378 1.65543e-07 0)
(2.05378 1.41774e-07 0)
(2.05378 1.0908e-07 0)
(2.05378 8.90176e-08 0)
(2.05378 8.56561e-08 0)
(2.05378 9.39538e-08 0)
(2.05378 1.0065e-07 0)
(2.05378 1.09833e-07 0)
(2.05378 1.44375e-07 0)
(2.05378 2.02699e-07 0)
(2.05378 2.58143e-07 0)
(2.05378 2.91799e-07 0)
(2.05378 2.99499e-07 0)
(2.05378 2.93281e-07 0)
(2.05378 2.9771e-07 0)
(2.05378 3.18943e-07 0)
(2.05378 3.31237e-07 0)
(2.05378 3.13e-07 0)
(2.05378 2.69084e-07 0)
(2.05379 2.22057e-07 0)
(2.05379 1.94717e-07 0)
(2.05378 1.92076e-07 0)
(2.05378 1.98402e-07 0)
(2.05378 1.95932e-07 0)
(2.05378 1.8581e-07 0)
(2.05379 1.8466e-07 0)
(2.05379 2.03186e-07 0)
(2.05379 2.2972e-07 0)
(2.05379 2.42063e-07 0)
(2.05379 2.3071e-07 0)
(2.05379 2.11922e-07 0)
(2.05379 2.10124e-07 0)
(2.05379 2.3121e-07 0)
(2.05379 2.52917e-07 0)
(2.05379 2.43061e-07 0)
(2.05379 1.93175e-07 0)
(2.05379 1.26406e-07 0)
(2.05379 7.25274e-08 0)
(2.05379 3.85505e-08 0)
(2.05378 8.45843e-09 0)
(2.05378 -3.24254e-08 0)
(2.05378 -7.97031e-08 0)
(2.05378 -1.15967e-07 0)
(2.05378 -1.29628e-07 0)
(2.05378 -1.29616e-07 0)
(2.05378 -1.34871e-07 0)
(2.05378 -1.54999e-07 0)
(2.05378 -1.77226e-07 0)
(2.05378 -1.76054e-07 0)
(2.05379 -1.42981e-07 0)
(2.05378 -1.01705e-07 0)
(2.05378 -8.48904e-08 0)
(2.05378 -9.72553e-08 0)
(2.05378 -1.1512e-07 0)
(2.05378 -1.16491e-07 0)
(2.05378 -1.01799e-07 0)
(2.05378 -8.58291e-08 0)
(2.05378 -8.34201e-08 0)
(2.05378 -9.86503e-08 0)
(2.05378 -1.17357e-07 0)
(2.05378 -1.17762e-07 0)
(2.05378 -9.52364e-08 0)
(2.05378 -7.23912e-08 0)
(2.05378 -7.49206e-08 0)
(2.05378 -9.50947e-08 0)
(2.05378 -9.9611e-08 0)
(2.05378 -7.56438e-08 0)
(2.05378 -5.14062e-08 0)
(2.05378 -5.74769e-08 0)
(2.05378 -9.06593e-08 0)
(2.05378 -1.29107e-07 0)
(2.05378 -1.63076e-07 0)
(2.05378 -1.95353e-07 0)
(2.05378 -2.28548e-07 0)
(2.05378 -2.6406e-07 0)
(2.05378 -2.97801e-07 0)
(2.05378 -3.15044e-07 0)
(2.05378 -3.00293e-07 0)
(2.05378 -2.52682e-07 0)
(2.05378 -1.93639e-07 0)
(2.05378 -1.55916e-07 0)
(2.05378 -1.44672e-07 0)
(2.05378 -1.25228e-07 0)
(2.05378 -7.36754e-08 0)
(2.05378 -1.14784e-08 0)
(2.05378 3.31551e-08 0)
(2.05378 5.83484e-08 0)
(2.05378 7.7919e-08 0)
(2.05378 1.01698e-07 0)
(2.05378 1.24595e-07 0)
(2.05379 1.3591e-07 0)
(2.05379 1.41466e-07 0)
(2.05379 1.49525e-07 0)
(2.05379 1.49395e-07 0)
(2.05379 1.44887e-07 0)
(2.05379 1.57097e-07 0)
(2.05379 1.6801e-07 0)
(2.05379 1.35295e-07 0)
(2.05379 6.58296e-08 0)
(2.05379 2.74743e-09 0)
(2.05379 -4.15203e-08 0)
(2.05379 -7.77462e-08 0)
(2.05379 -1.11387e-07 0)
(2.05379 -1.41036e-07 0)
(2.05379 -1.48025e-07 0)
(2.05379 -1.36066e-07 0)
(2.05379 -1.31372e-07 0)
(2.05379 -1.1645e-07 0)
(2.05379 -7.676e-08 0)
(2.05379 -4.82194e-08 0)
(2.05379 -3.66275e-08 0)
(2.05379 -2.78406e-08 0)
(2.05379 -2.37743e-08 0)
(2.05379 -4.57929e-08 0)
(2.05379 -1.03201e-07 0)
(2.05379 -1.43403e-07 0)
(2.16947 1.17138e-06 0)
(2.16947 1.23628e-06 0)
(2.16947 1.33594e-06 0)
(2.16947 1.51987e-06 0)
(2.16947 1.81558e-06 0)
(2.16946 2.10443e-06 0)
(2.16946 2.11956e-06 0)
(2.16946 2.22058e-06 0)
(2.16946 2.24689e-06 0)
(2.16946 2.22026e-06 0)
(2.16946 2.14015e-06 0)
(2.16946 2.00614e-06 0)
(2.16946 1.84383e-06 0)
(2.16946 1.66146e-06 0)
(2.16946 1.50096e-06 0)
(2.16946 1.36612e-06 0)
(2.16946 1.22629e-06 0)
(2.16946 1.11904e-06 0)
(2.16946 1.05227e-06 0)
(2.16946 9.53086e-07 0)
(2.16946 8.1609e-07 0)
(2.16946 6.82031e-07 0)
(2.16946 5.41812e-07 0)
(2.16946 4.10129e-07 0)
(2.16945 3.26664e-07 0)
(2.16945 2.84353e-07 0)
(2.16945 2.65767e-07 0)
(2.16945 2.67826e-07 0)
(2.16945 2.68068e-07 0)
(2.16945 2.51723e-07 0)
(2.16945 2.23221e-07 0)
(2.16945 1.80447e-07 0)
(2.16945 1.40827e-07 0)
(2.16945 1.3651e-07 0)
(2.16945 1.52601e-07 0)
(2.16945 1.491e-07 0)
(2.16945 1.20178e-07 0)
(2.16945 8.16296e-08 0)
(2.16945 5.30009e-08 0)
(2.16945 5.06527e-08 0)
(2.16945 6.62793e-08 0)
(2.16945 7.75239e-08 0)
(2.16945 8.64663e-08 0)
(2.16945 1.04679e-07 0)
(2.16945 1.31001e-07 0)
(2.16945 1.57761e-07 0)
(2.16945 1.74157e-07 0)
(2.16945 1.67555e-07 0)
(2.16945 1.45354e-07 0)
(2.16945 1.31476e-07 0)
(2.16945 1.35851e-07 0)
(2.16945 1.47616e-07 0)
(2.16945 1.52446e-07 0)
(2.16945 1.44196e-07 0)
(2.16945 1.29722e-07 0)
(2.16945 1.2487e-07 0)
(2.16945 1.36727e-07 0)
(2.16945 1.54719e-07 0)
(2.16945 1.63004e-07 0)
(2.16945 1.57206e-07 0)
(2.16945 1.52493e-07 0)
(2.16945 1.6471e-07 0)
(2.16945 1.92654e-07 0)
(2.16945 2.18188e-07 0)
(2.16945 2.27442e-07 0)
(2.16945 2.23273e-07 0)
(2.16945 2.19734e-07 0)
(2.16945 2.24732e-07 0)
(2.16945 2.26895e-07 0)
(2.16945 2.03574e-07 0)
(2.16945 1.45926e-07 0)
(2.16945 7.26706e-08 0)
(2.16945 1.23114e-08 0)
(2.16945 -2.16213e-08 0)
(2.16945 -3.87901e-08 0)
(2.16945 -5.54538e-08 0)
(2.16945 -7.70431e-08 0)
(2.16945 -9.39019e-08 0)
(2.16945 -9.43715e-08 0)
(2.16945 -7.81374e-08 0)
(2.16945 -5.95082e-08 0)
(2.16945 -5.61846e-08 0)
(2.16945 -7.03317e-08 0)
(2.16945 -8.33669e-08 0)
(2.16945 -7.91745e-08 0)
(2.16945 -6.58939e-08 0)
(2.16945 -6.19215e-08 0)
(2.16945 -7.1673e-08 0)
(2.16945 -8.62453e-08 0)
(2.16945 -9.71211e-08 0)
(2.16945 -1.02662e-07 0)
(2.16945 -1.0376e-07 0)
(2.16945 -1.09387e-07 0)
(2.16945 -1.26816e-07 0)
(2.16945 -1.47404e-07 0)
(2.16945 -1.48684e-07 0)
(2.16945 -1.20433e-07 0)
(2.16945 -8.4521e-08 0)
(2.16945 -7.12462e-08 0)
(2.16945 -7.96434e-08 0)
(2.16945 -8.26294e-08 0)
(2.16945 -6.8817e-08 0)
(2.16945 -5.53645e-08 0)
(2.16945 -5.80425e-08 0)
(2.16945 -7.61112e-08 0)
(2.16945 -1.04893e-07 0)
(2.16945 -1.41863e-07 0)
(2.16945 -1.77621e-07 0)
(2.16945 -2.02552e-07 0)
(2.16945 -2.17442e-07 0)
(2.16945 -2.25921e-07 0)
(2.16945 -2.25107e-07 0)
(2.16945 -2.04691e-07 0)
(2.16945 -1.59121e-07 0)
(2.16945 -1.05034e-07 0)
(2.16945 -6.81517e-08 0)
(2.16945 -4.55442e-08 0)
(2.16945 -1.17297e-08 0)
(2.16945 3.80612e-08 0)
(2.16945 8.29719e-08 0)
(2.16945 1.04695e-07 0)
(2.16945 1.04058e-07 0)
(2.16945 1.00372e-07 0)
(2.16945 1.07944e-07 0)
(2.16945 1.1204e-07 0)
(2.16945 1.01704e-07 0)
(2.16946 9.6578e-08 0)
(2.16946 1.01822e-07 0)
(2.16946 9.49076e-08 0)
(2.16946 7.51269e-08 0)
(2.16946 5.81325e-08 0)
(2.16946 3.75669e-08 0)
(2.16946 -3.99498e-10 0)
(2.16946 -4.43961e-08 0)
(2.16946 -7.09066e-08 0)
(2.16946 -7.38659e-08 0)
(2.16946 -7.39686e-08 0)
(2.16946 -9.52809e-08 0)
(2.16946 -1.09178e-07 0)
(2.16946 -8.00125e-08 0)
(2.16946 -5.19138e-08 0)
(2.16946 -5.53833e-08 0)
(2.16946 -4.0743e-08 0)
(2.16946 -1.43965e-08 0)
(2.16946 -1.34811e-08 0)
(2.16946 -4.03992e-08 0)
(2.16946 -3.64517e-08 0)
(2.16946 -7.89409e-08 0)
(2.16946 -1.37889e-07 0)
(2.16946 -2.12559e-07 0)
(2.20798 1.2653e-06 0)
(2.20798 1.41067e-06 0)
(2.20798 1.75325e-06 0)
(2.20798 2.18676e-06 0)
(2.20798 2.48809e-06 0)
(2.20798 2.77744e-06 0)
(2.20798 2.99805e-06 0)
(2.20798 3.19454e-06 0)
(2.20798 3.17111e-06 0)
(2.20798 3.03024e-06 0)
(2.20798 2.87895e-06 0)
(2.20798 2.69735e-06 0)
(2.20797 2.46901e-06 0)
(2.20797 2.22188e-06 0)
(2.20797 1.97796e-06 0)
(2.20797 1.75021e-06 0)
(2.20797 1.52755e-06 0)
(2.20797 1.35279e-06 0)
(2.20797 1.25726e-06 0)
(2.20797 1.14981e-06 0)
(2.20797 9.76038e-07 0)
(2.20797 8.03331e-07 0)
(2.20797 6.69786e-07 0)
(2.20797 5.59414e-07 0)
(2.20797 4.72248e-07 0)
(2.20797 4.01409e-07 0)
(2.20797 3.36574e-07 0)
(2.20797 2.89212e-07 0)
(2.20797 2.59324e-07 0)
(2.20797 2.39036e-07 0)
(2.20797 2.32971e-07 0)
(2.20797 2.26604e-07 0)
(2.20797 2.02008e-07 0)
(2.20797 1.78677e-07 0)
(2.20797 1.76837e-07 0)
(2.20797 1.83087e-07 0)
(2.20797 1.81042e-07 0)
(2.20797 1.63861e-07 0)
(2.20797 1.3313e-07 0)
(2.20797 1.09532e-07 0)
(2.20797 1.07388e-07 0)
(2.20797 1.09648e-07 0)
(2.20797 9.71235e-08 0)
(2.20797 7.20953e-08 0)
(2.20797 4.5986e-08 0)
(2.20797 3.38978e-08 0)
(2.20797 4.39971e-08 0)
(2.20797 5.84118e-08 0)
(2.20797 5.30292e-08 0)
(2.20797 2.84714e-08 0)
(2.20797 5.77465e-09 0)
(2.20797 8.68056e-10 0)
(2.20797 1.5331e-08 0)
(2.20797 3.74556e-08 0)
(2.20797 5.23695e-08 0)
(2.20797 5.58425e-08 0)
(2.20797 5.67157e-08 0)
(2.20797 6.42656e-08 0)
(2.20797 7.76678e-08 0)
(2.20797 8.77031e-08 0)
(2.20797 9.01299e-08 0)
(2.20797 9.57395e-08 0)
(2.20797 1.16977e-07 0)
(2.20797 1.51373e-07 0)
(2.20797 1.81566e-07 0)
(2.20797 1.88508e-07 0)
(2.20797 1.67275e-07 0)
(2.20797 1.30423e-07 0)
(2.20797 9.70876e-08 0)
(2.20797 7.28475e-08 0)
(2.20797 4.85849e-08 0)
(2.20797 1.56316e-08 0)
(2.20797 -1.90302e-08 0)
(2.20797 -3.84503e-08 0)
(2.20797 -3.53844e-08 0)
(2.20797 -2.05623e-08 0)
(2.20797 -1.07339e-08 0)
(2.20797 -1.31617e-08 0)
(2.20797 -2.01485e-08 0)
(2.20797 -1.81726e-08 0)
(2.20797 -1.25768e-09 0)
(2.20797 1.7665e-08 0)
(2.20797 1.52972e-08 0)
(2.20797 -1.43654e-08 0)
(2.20797 -5.21561e-08 0)
(2.20797 -7.66663e-08 0)
(2.20797 -8.66339e-08 0)
(2.20797 -9.25796e-08 0)
(2.20797 -1.01267e-07 0)
(2.20797 -1.146e-07 0)
(2.20797 -1.29791e-07 0)
(2.20797 -1.37711e-07 0)
(2.20797 -1.31047e-07 0)
(2.20797 -1.17942e-07 0)
(2.20797 -1.1473e-07 0)
(2.20797 -1.20282e-07 0)
(2.20797 -1.13251e-07 0)
(2.20797 -8.22617e-08 0)
(2.20797 -4.84318e-08 0)
(2.20797 -3.83457e-08 0)
(2.20797 -4.97778e-08 0)
(2.20797 -6.10723e-08 0)
(2.20797 -6.59533e-08 0)
(2.20797 -7.39701e-08 0)
(2.20797 -8.9925e-08 0)
(2.20797 -1.14937e-07 0)
(2.20797 -1.51142e-07 0)
(2.20797 -1.88772e-07 0)
(2.20797 -2.04674e-07 0)
(2.20797 -1.86811e-07 0)
(2.20797 -1.46696e-07 0)
(2.20797 -1.0714e-07 0)
(2.20797 -7.93781e-08 0)
(2.20797 -5.18234e-08 0)
(2.20797 -1.11291e-08 0)
(2.20797 3.31575e-08 0)
(2.20797 6.71505e-08 0)
(2.20797 9.4383e-08 0)
(2.20797 1.20018e-07 0)
(2.20797 1.4004e-07 0)
(2.20797 1.5069e-07 0)
(2.20797 1.48315e-07 0)
(2.20797 1.32319e-07 0)
(2.20797 1.13494e-07 0)
(2.20797 9.39111e-08 0)
(2.20797 6.77703e-08 0)
(2.20797 5.14392e-08 0)
(2.20797 5.86833e-08 0)
(2.20797 6.1386e-08 0)
(2.20797 3.36626e-08 0)
(2.20797 -5.10568e-09 0)
(2.20797 -3.07415e-08 0)
(2.20797 -4.70063e-08 0)
(2.20797 -6.48168e-08 0)
(2.20797 -7.68319e-08 0)