/*--------------------------------*- C++ -*----------------------------------*\
| =========                 |                                                 |
| \\      /  F ield         | OpenFOAM: The Open Source CFD Toolbox           |
|  \\    /   O peration     | Version:  2406                                  |
|   \\  /    A nd           | Website:  www.openfoam.com                      |
|    \\/     M anipulation  |                                                 |
\*---------------------------------------------------------------------------*/
FoamFile
{
    version     2.0;
    format      ascii;
    arch        "LSB;label=32;scalar=64";
    class       surfaceScalarField;
    location    "0.2";
    object      phi;
}
// * * * * * * * * * * * * * * * * * * * * * * * * * * * * * * * * * * * * * //

dimensions      [0 3 -1 0 0 0 0];

oriented        oriented;

internalField   nonuniform List<scalar> 
7780
(
8.4181e-07
1.05377e-10
8.41729e-07
8.0191e-11
8.41671e-07
5.92354e-11
8.41624e-07
4.61478e-11
8.41585e-07
3.84252e-11
8.41552e-07
3.26837e-11
8.41525e-07
2.82186e-11
8.415e-07
2.41231e-11
8.41479e-07
2.11685e-11
8.41461e-07
1.82775e-11
8.41445e-07
1.56661e-11
8.41432e-07
1.31627e-11
8.41421e-07
1.08791e-11
8.41412e-07
8.89981e-12
8.41405e-07
7.12586e-12
8.414e-07
5.48197e-12
8.41396e-07
3.99458e-12
8.41394e-07
2.45643e-12
8.41392e-07
1.0597e-12
8.41392e-07
1.90166e-13
8.41393e-07
-8.42794e-13
8.41394e-07
-1.85925e-12
8.41397e-07
-2.48692e-12
8.414e-07
-2.91862e-12
8.41404e-07
-3.43327e-12
8.41408e-07
-4.21398e-12
8.41413e-07
-5.14511e-12
8.41419e-07
-5.84929e-12
8.41425e-07
-6.36632e-12
8.41432e-07
-6.93845e-12
8.41439e-07
-7.44508e-12
8.41447e-07
-7.77714e-12
8.41455e-07
-8.10331e-12
8.41463e-07
-8.49781e-12
8.41472e-07
-8.79725e-12
8.4148e-07
-8.93972e-12
8.41489e-07
-9.09852e-12
8.41499e-07
-9.33388e-12
8.41508e-07
-9.44521e-12
8.41517e-07
-9.30779e-12
8.41526e-07
-9.04694e-12
8.41535e-07
-8.79556e-12
8.41543e-07
-8.48941e-12
8.41551e-07
-7.96512e-12
8.41559e-07
-7.20735e-12
8.41565e-07
-6.40311e-12
8.41571e-07
-5.6738e-12
8.41575e-07
-4.88361e-12
8.41579e-07
-3.81198e-12
8.41581e-07
-2.40719e-12
8.41582e-07
-8.43061e-13
8.41582e-07
6.43023e-13
8.4158e-07
1.9796e-12
8.41576e-07
3.33927e-12
8.41571e-07
4.90043e-12
8.41565e-07
6.62838e-12
8.41557e-07
8.31319e-12
8.41548e-07
9.77515e-12
8.41537e-07
1.09812e-11
8.41525e-07
1.19912e-11
8.41512e-07
1.28651e-11
8.41498e-07
1.36115e-11
8.41484e-07
1.41501e-11
8.4147e-07
1.43276e-11
8.41456e-07
1.40351e-11
8.41442e-07
1.33135e-11
8.41429e-07
1.23025e-11
8.41418e-07
1.10839e-11
8.41409e-07
9.61466e-12
8.41401e-07
7.8162e-12
8.41395e-07
5.67451e-12
8.41392e-07
3.23883e-12
8.41391e-07
5.91027e-13
8.41393e-07
-2.13534e-12
8.41398e-07
-4.75739e-12
8.41405e-07
-7.13362e-12
8.41414e-07
-9.24419e-12
8.41426e-07
-1.11467e-11
8.41439e-07
-1.2858e-11
8.41453e-07
-1.42987e-11
8.41468e-07
-1.53468e-11
8.41484e-07
-1.59227e-11
8.415e-07
-1.60182e-11
8.41516e-07
-1.56637e-11
8.41531e-07
-1.4901e-11
8.41545e-07
-1.37855e-11
8.41558e-07
-1.23744e-11
8.41568e-07
-1.06957e-11
8.41577e-07
-8.76895e-12
8.41584e-07
-6.67536e-12
8.41588e-07
-4.56706e-12
8.41591e-07
-2.57485e-12
8.41592e-07
-7.39719e-13
8.41591e-07
9.37668e-13
8.41589e-07
2.41714e-12
8.41585e-07
3.63461e-12
8.41581e-07
4.56466e-12
8.41575e-07
5.23399e-12
8.4157e-07
5.694e-12
8.41564e-07
6.00988e-12
8.41558e-07
6.25209e-12
8.41551e-07
6.46921e-12
8.41545e-07
6.68203e-12
8.41538e-07
6.91573e-12
8.41531e-07
7.21177e-12
8.41523e-07
7.58682e-12
8.41515e-07
7.99601e-12
8.41507e-07
8.36449e-12
8.41498e-07
8.66256e-12
8.41489e-07
8.92858e-12
8.4148e-07
9.18853e-12
8.41471e-07
9.35948e-12
8.41462e-07
9.28981e-12
8.41453e-07
8.92253e-12
8.41444e-07
8.35114e-12
8.41436e-07
7.65503e-12
8.41429e-07
6.74755e-12
8.41424e-07
5.47966e-12
8.4142e-07
3.84299e-12
8.41418e-07
1.96078e-12
8.41417e-07
-8.44716e-14
8.41419e-07
-2.27509e-12
8.41424e-07
-4.55813e-12
8.4143e-07
-6.8177e-12
8.41439e-07
-8.97281e-12
8.4145e-07
-1.09817e-11
8.41463e-07
-1.27507e-11
8.41477e-07
-1.41424e-11
8.41492e-07
-1.50902e-11
8.41508e-07
-1.56238e-11
8.41524e-07
-1.57818e-11
8.41539e-07
-1.55663e-11
8.41554e-07
-1.49704e-11
8.41569e-07
-1.39769e-11
8.41581e-07
-1.25432e-11
8.41592e-07
-1.06632e-11
8.416e-07
-8.4393e-12
8.41607e-07
-6.03643e-12
8.4161e-07
-3.57627e-12
8.41612e-07
-1.12203e-12
8.4161e-07
1.2686e-12
8.41607e-07
3.53703e-12
8.41601e-07
5.66192e-12
8.41593e-07
7.63887e-12
8.41584e-07
9.43272e-12
8.41573e-07
1.09667e-11
8.41561e-07
1.21468e-11
8.41548e-07
1.29094e-11
8.41535e-07
1.32849e-11
8.41521e-07
1.33802e-11
8.41508e-07
1.32318e-11
8.41496e-07
1.27274e-11
8.41484e-07
1.17772e-11
8.41473e-07
1.0505e-11
8.41464e-07
9.12959e-12
8.41456e-07
7.71169e-12
8.4145e-07
6.17011e-12
8.41445e-07
4.49679e-12
8.41443e-07
2.79127e-12
8.41442e-07
1.12181e-12
8.41442e-07
-4.8933e-13
8.41444e-07
-1.97082e-12
8.41447e-07
-3.26237e-12
8.41452e-07
-4.4008e-12
8.41457e-07
-5.42874e-12
8.41464e-07
-6.27933e-12
8.41471e-07
-6.89143e-12
8.41478e-07
-7.33165e-12
8.41486e-07
-7.64599e-12
8.41493e-07
-7.72221e-12
8.41501e-07
-7.49411e-12
8.41508e-07
-7.1258e-12
8.41515e-07
-6.75661e-12
8.41521e-07
-6.26023e-12
8.41527e-07
-5.51019e-12
8.41532e-07
-4.63034e-12
8.41535e-07
-3.78087e-12
8.41538e-07
-2.98928e-12
8.41541e-07
-2.25177e-12
8.41542e-07
-1.532e-12
8.41543e-07
-7.73223e-13
8.41543e-07
-1.94081e-14
8.41542e-07
6.83041e-13
8.41541e-07
1.41662e-12
8.41538e-07
2.265e-12
8.41535e-07
3.2414e-12
8.41531e-07
4.2685e-12
8.41526e-07
5.25774e-12
8.4152e-07
6.35155e-12
8.41512e-07
7.77048e-12
8.41503e-07
9.37318e-12
8.41493e-07
1.08649e-11
8.4148e-07
1.23974e-11
8.41465e-07
1.44227e-11
8.41448e-07
1.70503e-11
8.41427e-07
2.02171e-11
8.41403e-07
2.43995e-11
8.41371e-07
3.0932e-11
8.41329e-07
4.20941e-11
5.57259e-11
2.33674e-06
2.61064e-10
2.3366e-06
2.27362e-10
2.33647e-06
1.92018e-10
2.33635e-06
1.63381e-10
2.33625e-06
1.41286e-10
2.33616e-06
1.2284e-10
2.33608e-06
1.07668e-10
2.33601e-06
9.43343e-11
2.33595e-06
8.23393e-11
2.33589e-06
7.11956e-11
2.33585e-06
6.10704e-11
2.33581e-06
5.18392e-11
2.33578e-06
4.33951e-11
2.33575e-06
3.56777e-11
2.33573e-06
2.8564e-11
2.33571e-06
2.21165e-11
2.3357e-06
1.61374e-11
2.33569e-06
1.09531e-11
2.33568e-06
6.12209e-12
2.33568e-06
1.71639e-12
2.33568e-06
-2.02963e-12
2.33569e-06
-5.13405e-12
2.33569e-06
-8.02377e-12
2.3357e-06
-1.09149e-11
2.33571e-06
-1.36438e-11
2.33572e-06
-1.62179e-11
2.33574e-06
-1.8731e-11
2.33575e-06
-2.10968e-11
2.33577e-06
-2.32713e-11
2.33579e-06
-2.53316e-11
2.33581e-06
-2.73086e-11
2.33583e-06
-2.91024e-11
2.33585e-06
-3.06099e-11
2.33587e-06
-3.18982e-11
2.3359e-06
-3.30632e-11
2.33592e-06
-3.40332e-11
2.33595e-06
-3.46786e-11
2.33597e-06
-3.49263e-11
2.336e-06
-3.47732e-11
2.33602e-06
-3.43427e-11
2.33605e-06
-3.37437e-11
2.33607e-06
-3.28332e-11
2.3361e-06
-3.13697e-11
2.33612e-06
-2.93289e-11
2.33614e-06
-2.68702e-11
2.33615e-06
-2.41031e-11
2.33617e-06
-2.09597e-11
2.33618e-06
-1.72569e-11
2.33619e-06
-1.29015e-11
2.33619e-06
-8.0045e-12
2.3362e-06
-2.77399e-12
2.33619e-06
2.63664e-12
2.33619e-06
8.20077e-12
2.33618e-06
1.39846e-11
2.33616e-06
1.99861e-11
2.33614e-06
2.60116e-11
2.33612e-06
3.1746e-11
2.33609e-06
3.69495e-11
2.33606e-06
4.15719e-11
2.33603e-06
4.56595e-11
2.33599e-06
4.91669e-11
2.33596e-06
5.18833e-11
2.33592e-06
5.35093e-11
2.33588e-06
5.37899e-11
2.33584e-06
5.26281e-11
2.3358e-06
5.01122e-11
2.33577e-06
4.64095e-11
2.33574e-06
4.16005e-11
2.33571e-06
3.56318e-11
2.33569e-06
2.8464e-11
2.33568e-06
2.02437e-11
2.33567e-06
1.12828e-11
2.33567e-06
1.8926e-12
2.33567e-06
-7.68469e-12
2.33568e-06
-1.7189e-11
2.3357e-06
-2.6279e-11
2.33573e-06
-3.4615e-11
2.33576e-06
-4.19679e-11
2.33579e-06
-4.82122e-11
2.33583e-06
-5.32295e-11
2.33587e-06
-5.68519e-11
2.33592e-06
-5.8909e-11
2.33596e-06
-5.93106e-11
2.336e-06
-5.80688e-11
2.33604e-06
-5.52662e-11
2.33608e-06
-5.10551e-11
2.33612e-06
-4.56813e-11
2.33614e-06
-3.94401e-11
2.33617e-06
-3.25831e-11
2.33619e-06
-2.53093e-11
2.3362e-06
-1.78572e-11
2.33621e-06
-1.05442e-11
2.33621e-06
-3.67834e-12
2.33621e-06
2.53202e-12
2.3362e-06
7.9654e-12
2.3362e-06
1.25483e-11
2.33618e-06
1.62673e-11
2.33617e-06
1.9183e-11
2.33615e-06
2.13983e-11
2.33614e-06
2.30311e-11
2.33612e-06
2.42256e-11
2.3361e-06
2.5149e-11
2.33608e-06
2.59558e-11
2.33606e-06
2.6766e-11
2.33604e-06
2.76743e-11
2.33602e-06
2.87464e-11
2.336e-06
2.99812e-11
2.33597e-06
3.12811e-11
2.33595e-06
3.24843e-11
2.33592e-06
3.34547e-11
2.3359e-06
3.41346e-11
2.33587e-06
3.44624e-11
2.33585e-06
3.42414e-11
2.33583e-06
3.31814e-11
2.3358e-06
3.11149e-11
2.33578e-06
2.80912e-11
2.33577e-06
2.41957e-11
2.33575e-06
1.93744e-11
2.33574e-06
1.35377e-11
2.33574e-06
6.74923e-12
2.33574e-06
-7.96124e-13
2.33574e-06
-8.893e-12
2.33576e-06
-1.73006e-11
2.33577e-06
-2.56485e-11
2.3358e-06
-3.35253e-11
2.33583e-06
-4.06435e-11
2.33586e-06
-4.68331e-11
2.3359e-06
-5.19134e-11
2.33594e-06
-5.56736e-11
2.33598e-06
-5.79522e-11
2.33603e-06
-5.86606e-11
2.33607e-06
-5.77572e-11
2.33611e-06
-5.5263e-11
2.33615e-06
-5.127e-11
2.33618e-06
-4.58842e-11
2.33621e-06
-3.92076e-11
2.33623e-06
-3.14265e-11
2.33625e-06
-2.28628e-11
2.33626e-06
-1.38809e-11
2.33626e-06
-4.7771e-12
2.33626e-06
4.21347e-12
2.33625e-06
1.28626e-11
2.33623e-06
2.09518e-11
2.33621e-06
2.82924e-11
2.33619e-06
3.47234e-11
2.33616e-06
4.01148e-11
2.33613e-06
4.43574e-11
2.33609e-06
4.73185e-11
2.33606e-06
4.88704e-11
2.33602e-06
4.90313e-11
2.33599e-06
4.79931e-11
2.33595e-06
4.59176e-11
2.33592e-06
4.2804e-11
2.33589e-06
3.86751e-11
2.33587e-06
3.3771e-11
2.33585e-06
2.84033e-11
2.33583e-06
2.27209e-11
2.33582e-06
1.67733e-11
2.33581e-06
1.06946e-11
2.33581e-06
4.66603e-12
2.33581e-06
-1.19627e-12
2.33582e-06
-6.76158e-12
2.33582e-06
-1.18053e-11
2.33584e-06
-1.61601e-11
2.33585e-06
-1.98451e-11
2.33587e-06
-2.29172e-11
2.33589e-06
-2.53225e-11
2.33591e-06
-2.70012e-11
2.33593e-06
-2.79725e-11
2.33595e-06
-2.81963e-11
2.33597e-06
-2.75747e-11
2.33599e-06
-2.62352e-11
2.336e-06
-2.45292e-11
2.33602e-06
-2.26068e-11
2.33604e-06
-2.03465e-11
2.33605e-06
-1.77527e-11
2.33606e-06
-1.49772e-11
2.33607e-06
-1.20356e-11
2.33608e-06
-8.93453e-12
2.33608e-06
-5.84415e-12
2.33608e-06
-2.87475e-12
2.33608e-06
4.5547e-14
2.33608e-06
3.04084e-12
2.33607e-06
6.22004e-12
2.33607e-06
9.6186e-12
2.33606e-06
1.32437e-11
2.33604e-06
1.71264e-11
2.33603e-06
2.1231e-11
2.33601e-06
2.5577e-11
2.33599e-06
3.03965e-11
2.33596e-06
3.58274e-11
2.33593e-06
4.17807e-11
2.33589e-06
4.83396e-11
2.33585e-06
5.57395e-11
2.33581e-06
6.41896e-11
2.33575e-06
7.41973e-11
2.33569e-06
8.636e-11
2.33562e-06
1.01429e-10
2.33554e-06
1.20275e-10
1.37997e-10
3.64862e-06
4.36867e-10
3.64845e-06
4.04596e-10
3.64827e-06
3.62979e-10
3.64811e-06
3.23454e-10
3.64797e-06
2.87241e-10
3.64783e-06
2.55493e-10
3.64772e-06
2.26661e-10
3.64761e-06
2.00359e-10
3.64752e-06
1.7605e-10
3.64743e-06
1.53474e-10
3.64736e-06
1.32424e-10
3.6473e-06
1.12784e-10
3.64725e-06
9.49256e-11
3.64721e-06
7.87029e-11
3.64717e-06
6.32445e-11
3.64714e-06
4.92032e-11
3.64712e-06
3.68684e-11
3.64711e-06
2.56184e-11
3.6471e-06
1.5504e-11
3.64709e-06
6.43631e-12
3.64709e-06
-1.86807e-12
3.6471e-06
-9.37405e-12
3.64711e-06
-1.61221e-11
3.64712e-06
-2.23833e-11
3.64713e-06
-2.81848e-11
3.64715e-06
-3.37225e-11
3.64717e-06
-3.91939e-11
3.64719e-06
-4.43593e-11
3.64722e-06
-4.90656e-11
3.64725e-06
-5.34732e-11
3.64728e-06
-5.76385e-11
3.64731e-06
-6.13945e-11
3.64734e-06
-6.45948e-11
3.64738e-06
-6.73325e-11
3.64741e-06
-6.97785e-11
3.64745e-06
-7.18068e-11
3.64749e-06
-7.30936e-11
3.64753e-06
-7.35376e-11
3.64757e-06
-7.32863e-11
3.6476e-06
-7.24494e-11
3.64764e-06
-7.09464e-11
3.64768e-06
-6.85717e-11
3.64771e-06
-6.52055e-11
3.64774e-06
-6.0922e-11
3.64777e-06
-5.58088e-11
3.6478e-06
-4.97944e-11
3.64782e-06
-4.27281e-11
3.64784e-06
-3.45409e-11
3.64785e-06
-2.53347e-11
3.64786e-06
-1.53264e-11
3.64786e-06
-4.66412e-12
3.64785e-06
6.63497e-12
3.64784e-06
1.85384e-11
3.64783e-06
3.08731e-11
3.6478e-06
4.33448e-11
3.64777e-06
5.56162e-11
3.64774e-06
6.73561e-11
3.6477e-06
7.82668e-11
3.64765e-06
8.81193e-11
3.6476e-06
9.67299e-11
3.64755e-06
1.03845e-10
3.64749e-06
1.09082e-10
3.64743e-06
1.12033e-10
3.64737e-06
1.12413e-10
3.64731e-06
1.10098e-10
3.64726e-06
1.05077e-10
3.64721e-06
9.7391e-11
3.64716e-06
8.711e-11
3.64712e-06
7.43338e-11
3.64709e-06
5.9232e-11
3.64707e-06
4.2123e-11
3.64706e-06
2.35046e-11
3.64706e-06
3.96804e-12
3.64707e-06
-1.59167e-11
3.64708e-06
-3.56123e-11
3.64711e-06
-5.45489e-11
3.64715e-06
-7.2114e-11
3.6472e-06
-8.773e-11
3.64725e-06
-1.00929e-10
3.64731e-06
-1.11357e-10
3.64737e-06
-1.18735e-10
3.64743e-06
-1.22848e-10
3.6475e-06
-1.23598e-10
3.64756e-06
-1.21042e-10
3.64762e-06
-1.1536e-10
3.64768e-06
-1.0682e-10
3.64773e-06
-9.58136e-11
3.64777e-06
-8.28779e-11
3.64781e-06
-6.86254e-11
3.64783e-06
-5.36196e-11
3.64785e-06
-3.83588e-11
3.64787e-06
-2.33502e-11
3.64787e-06
-9.11564e-12
3.64787e-06
3.90612e-12
3.64786e-06
1.54322e-11
3.64785e-06
2.53216e-11
3.64783e-06
3.35429e-11
3.64781e-06
4.01659e-11
3.64779e-06
4.53401e-11
3.64776e-06
4.92674e-11
3.64774e-06
5.2203e-11
3.64771e-06
5.44582e-11
3.64768e-06
5.63539e-11
3.64764e-06
5.81489e-11
3.64761e-06
6.00051e-11
3.64758e-06
6.20022e-11
3.64754e-06
6.41573e-11
3.64751e-06
6.64087e-11
3.64747e-06
6.85762e-11
3.64744e-06
7.0369e-11
3.6474e-06
7.14844e-11
3.64736e-06
7.1693e-11
3.64733e-06
7.07734e-11
3.64729e-06
6.83916e-11
3.64726e-06
6.41614e-11
3.64723e-06
5.78635e-11
3.6472e-06
4.95132e-11
3.64718e-06
3.91919e-11
3.64717e-06
2.69412e-11
3.64716e-06
1.28849e-11
3.64716e-06
-2.65217e-12
3.64717e-06
-1.92146e-11
3.64719e-06
-3.63019e-11
3.64722e-06
-5.33191e-11
3.64726e-06
-6.95617e-11
3.6473e-06
-8.43637e-11
3.64735e-06
-9.72272e-11
3.64741e-06
-1.07771e-10
3.64747e-06
-1.15632e-10
3.64753e-06
-1.20487e-10
3.64759e-06
-1.22106e-10
3.64765e-06
-1.20362e-10
3.64771e-06
-1.15242e-10
3.64777e-06
-1.06893e-10
3.64782e-06
-9.56118e-11
3.64786e-06
-8.17692e-11
3.6479e-06
-6.57957e-11
3.64792e-06
-4.82269e-11
3.64794e-06
-2.96845e-11
3.64794e-06
-1.07711e-11
3.64794e-06
7.98284e-12
3.64793e-06
2.60815e-11
3.6479e-06
4.304e-11
3.64787e-06
5.84101e-11
3.64784e-06
7.18071e-11
3.64779e-06
8.29382e-11
3.64775e-06
9.16243e-11
3.6477e-06
9.77432e-11
3.64764e-06
1.01144e-10
3.64759e-06
1.01723e-10
3.64754e-06
9.96126e-11
3.64749e-06
9.51649e-11
3.64745e-06
8.86967e-11
3.6474e-06
8.03855e-11
3.64737e-06
7.04673e-11
3.64734e-06
5.93524e-11
3.64731e-06
4.74524e-11
3.64729e-06
3.50468e-11
3.64728e-06
2.24053e-11
3.64728e-06
9.8822e-12
3.64728e-06
-2.19489e-12
3.64728e-06
-1.35833e-11
3.6473e-06
-2.40181e-11
3.64731e-06
-3.32191e-11
3.64734e-06
-4.1064e-11
3.64736e-06
-4.75698e-11
3.64739e-06
-5.26619e-11
3.64742e-06
-5.61652e-11
3.64745e-06
-5.8063e-11
3.64748e-06
-5.85245e-11
3.64751e-06
-5.76389e-11
3.64754e-06
-5.54147e-11
3.64756e-06
-5.20538e-11
3.64759e-06
-4.78778e-11
3.64761e-06
-4.303e-11
3.64763e-06
-3.7569e-11
3.64765e-06
-3.16541e-11
3.64766e-06
-2.54144e-11
3.64767e-06
-1.89405e-11
3.64768e-06
-1.24094e-11
3.64768e-06
-5.90645e-12
3.64768e-06
6.93795e-13
3.64768e-06
7.52659e-12
3.64767e-06
1.46294e-11
3.64766e-06
2.19644e-11
3.64764e-06
2.95435e-11
3.64762e-06
3.75722e-11
3.64759e-06
4.62366e-11
3.64757e-06
5.55216e-11
3.64753e-06
6.54732e-11
3.64749e-06
7.63454e-11
3.64744e-06
8.84295e-11
3.64739e-06
1.01742e-10
3.64733e-06
1.16184e-10
3.64726e-06
1.32182e-10
3.64718e-06
1.50116e-10
3.6471e-06
1.70051e-10
3.64701e-06
1.92018e-10
3.64692e-06
2.14401e-10
2.31792e-10
4.78285e-06
6.21917e-10
4.78266e-06
5.92548e-10
4.78248e-06
5.50577e-10
4.7823e-06
5.0467e-10
4.78213e-06
4.58588e-10
4.78197e-06
4.13991e-10
4.78182e-06
3.71274e-10
4.78169e-06
3.31022e-10
4.78157e-06
2.92579e-10
4.78147e-06
2.56332e-10
4.78138e-06
2.22339e-10
4.7813e-06
1.90574e-10
4.78124e-06
1.60694e-10
4.78118e-06
1.33412e-10
4.78114e-06
1.08422e-10
4.7811e-06
8.54713e-11
4.78107e-06
6.4752e-11
4.78105e-06
4.57483e-11
4.78104e-06
2.86303e-11
4.78103e-06
1.34501e-11
4.78103e-06
-4.67698e-13
4.78104e-06
-1.33084e-11
4.78104e-06
-2.48732e-11
4.78106e-06
-3.54286e-11
4.78108e-06
-4.54789e-11
4.7811e-06
-5.51039e-11
4.78112e-06
-6.40832e-11
4.78115e-06
-7.24423e-11
4.78118e-06
-8.03432e-11
4.78121e-06
-8.77352e-11
4.78125e-06
-9.44736e-11
4.78129e-06
-1.00539e-10
4.78133e-06
-1.05945e-10
4.78138e-06
-1.10647e-10
4.78142e-06
-1.14564e-10
4.78147e-06
-1.17538e-10
4.78151e-06
-1.19426e-10
4.78156e-06
-1.20257e-10
4.78161e-06
-1.20078e-10
4.78165e-06
-1.18749e-10
4.7817e-06
-1.16065e-10
4.78174e-06
-1.11905e-10
4.78178e-06
-1.06248e-10
4.78182e-06
-9.91385e-11
4.78186e-06
-9.0598e-11
4.78189e-06
-8.05217e-11
4.78191e-06
-6.87647e-11
4.78193e-06
-5.53001e-11
4.78195e-06
-4.02729e-11
4.78196e-06
-2.39275e-11
4.78196e-06
-6.44779e-12
4.78195e-06
1.20954e-11
4.78194e-06
3.15855e-11
4.78192e-06
5.17046e-11
4.78189e-06
7.19658e-11
4.78186e-06
9.18559e-11
4.78181e-06
1.10925e-10
4.78176e-06
1.28765e-10
4.7817e-06
1.44951e-10
4.78164e-06
1.59024e-10
4.78158e-06
1.70466e-10
4.78151e-06
1.78705e-10
4.78144e-06
1.83215e-10
4.78136e-06
1.83644e-10
4.78129e-06
1.79805e-10
4.78123e-06
1.71591e-10
4.78117e-06
1.58951e-10
4.78111e-06
1.41967e-10
4.78106e-06
1.20922e-10
4.78103e-06
9.6249e-11
4.781e-06
6.84746e-11
4.78099e-06
3.82568e-11
4.78098e-06
6.43777e-12
4.78099e-06
-2.60061e-11
4.78102e-06
-5.80839e-11
4.78105e-06
-8.88562e-11
4.7811e-06
-1.17424e-10
4.78115e-06
-1.42911e-10
4.78121e-06
-1.64506e-10
4.78128e-06
-1.81535e-10
4.78136e-06
-1.93507e-10
4.78144e-06
-2.00119e-10
4.78151e-06
-2.01263e-10
4.78159e-06
-1.97054e-10
4.78166e-06
-1.8783e-10
4.78173e-06
-1.74086e-10
4.78179e-06
-1.56429e-10
4.78185e-06
-1.3562e-10
4.78189e-06
-1.12576e-10
4.78193e-06
-8.82673e-11
4.78195e-06
-6.35907e-11
4.78197e-06
-3.9346e-11
4.78197e-06
-1.62742e-11
4.78197e-06
4.97599e-12
4.78196e-06
2.39372e-11
4.78195e-06
4.03568e-11
4.78193e-06
5.41624e-11
4.7819e-06
6.5426e-11
4.78188e-06
7.43455e-11
4.78184e-06
8.12227e-11
4.78181e-06
8.64472e-11
4.78177e-06
9.04825e-11
4.78173e-06
9.38175e-11
4.7817e-06
9.68749e-11
4.78166e-06
9.99307e-11
4.78161e-06
1.03096e-10
4.78157e-06
1.06362e-10
4.78153e-06
1.09644e-10
4.78148e-06
1.12768e-10
4.78144e-06
1.15394e-10
4.78139e-06
1.17011e-10
4.78135e-06
1.17076e-10
4.7813e-06
1.15153e-10
4.78126e-06
1.10862e-10
4.78122e-06
1.03775e-10
4.78119e-06
9.34888e-11
4.78116e-06
7.98231e-11
4.78113e-06
6.28472e-11
4.78112e-06
4.27514e-11
4.78111e-06
1.98281e-11
4.78111e-06
-5.40247e-12
4.78112e-06
-3.21749e-11
4.78115e-06
-5.96252e-11
4.78118e-06
-8.68777e-11
4.78122e-06
-1.12999e-10
4.78128e-06
-1.37008e-10
4.78134e-06
-1.57996e-10
4.7814e-06
-1.75205e-10
4.78148e-06
-1.88004e-10
4.78155e-06
-1.95878e-10
4.78163e-06
-1.98483e-10
4.7817e-06
-1.95656e-10
4.78178e-06
-1.87402e-10
4.78184e-06
-1.73921e-10
4.7819e-06
-1.55659e-10
4.78196e-06
-1.33252e-10
4.782e-06
-1.07444e-10
4.78203e-06
-7.90614e-11
4.78205e-06
-4.90225e-11
4.78206e-06
-1.82813e-11
4.78205e-06
1.22505e-11
4.78204e-06
4.17213e-11
4.78201e-06
6.93362e-11
4.78197e-06
9.43849e-11
4.78193e-06
1.16256e-10
4.78188e-06
1.34434e-10
4.78182e-06
1.48537e-10
4.78176e-06
1.58378e-10
4.7817e-06
1.63883e-10
4.78163e-06
1.65012e-10
4.78157e-06
1.61843e-10
4.78151e-06
1.54735e-10
4.78146e-06
1.44237e-10
4.78141e-06
1.30837e-10
4.78136e-06
1.14932e-10
4.78132e-06
9.70021e-11
4.78129e-06
7.76385e-11
4.78127e-06
5.73873e-11
4.78126e-06
3.67421e-11
4.78125e-06
1.62743e-11
4.78125e-06
-3.40775e-12
4.78126e-06
-2.18455e-11
4.78127e-06
-3.87355e-11
4.78129e-06
-5.37853e-11
4.78132e-06
-6.67204e-11
4.78135e-06
-7.73813e-11
4.78138e-06
-8.56508e-11
4.78142e-06
-9.1362e-11
4.78145e-06
-9.44731e-11
4.78149e-06
-9.52345e-11
4.78153e-06
-9.39468e-11
4.78156e-06
-9.06876e-11
4.7816e-06
-8.55326e-11
4.78163e-06
-7.88106e-11
4.78166e-06
-7.08701e-11
4.78168e-06
-6.18962e-11
4.7817e-06
-5.21169e-11
4.78172e-06
-4.18382e-11
4.78173e-06
-3.12512e-11
4.78174e-06
-2.04264e-11
4.78174e-06
-9.37639e-12
4.78174e-06
1.91818e-12
4.78173e-06
1.34712e-11
4.78172e-06
2.53307e-11
4.78171e-06
3.75448e-11
4.78169e-06
5.01379e-11
4.78166e-06
6.33406e-11
4.78163e-06
7.75659e-11
4.78159e-06
9.29877e-11
4.78155e-06
1.09508e-10
4.7815e-06
1.27181e-10
4.78144e-06
1.46296e-10
4.78138e-06
1.6698e-10
4.7813e-06
1.89237e-10
4.78122e-06
2.13128e-10
4.78113e-06
2.38407e-10
4.78104e-06
2.64526e-10
4.78094e-06
2.90515e-10
4.78084e-06
3.13774e-10
3.30041e-10
5.7445e-06
8.02536e-10
5.74432e-06
7.764e-10
5.74413e-06
7.37417e-10
5.74394e-06
6.8898e-10
5.74377e-06
6.35935e-10
5.7436e-06
5.80933e-10
5.74345e-06
5.26592e-10
5.74331e-06
4.72332e-10
5.74318e-06
4.19964e-10
5.74306e-06
3.70056e-10
5.74296e-06
3.2205e-10
5.74288e-06
2.76948e-10
5.7428e-06
2.34834e-10
5.74274e-06
1.9573e-10
5.74269e-06
1.59783e-10
5.74265e-06
1.26743e-10
5.74262e-06
9.66934e-11
5.74259e-06
6.95793e-11
5.74258e-06
4.48862e-11
5.74257e-06
2.24863e-11
5.74256e-06
2.14119e-12
5.74257e-06
-1.63209e-11
5.74258e-06
-3.31776e-11
5.74259e-06
-4.90491e-11
5.74261e-06
-6.4046e-11
5.74263e-06
-7.78206e-11
5.74266e-06
-9.0567e-11
5.74269e-06
-1.02732e-10
5.74272e-06
-1.14291e-10
5.74276e-06
-1.24952e-10
5.7428e-06
-1.34591e-10
5.74284e-06
-1.43334e-10
5.74288e-06
-1.51265e-10
5.74293e-06
-1.58153e-10
5.74298e-06
-1.63673e-10
5.74303e-06
-1.67738e-10
5.74308e-06
-1.70397e-10
5.74313e-06
-1.71619e-10
5.74318e-06
-1.71245e-10
5.74323e-06
-1.69071e-10
5.74328e-06
-1.64968e-10
5.74333e-06
-1.58892e-10
5.74338e-06
-1.50791e-10
5.74342e-06
-1.4059e-10
5.74345e-06
-1.28208e-10
5.74349e-06
-1.13558e-10
5.74351e-06
-9.66067e-11
5.74354e-06
-7.74189e-11
5.74355e-06
-5.61135e-11
5.74356e-06
-3.28546e-11
5.74356e-06
-7.86551e-12
5.74356e-06
1.85971e-11
5.74354e-06
4.62299e-11
5.74352e-06
7.46118e-11
5.74349e-06
1.03174e-10
5.74345e-06
1.31261e-10
5.7434e-06
1.58236e-10
5.74335e-06
1.83496e-10
5.74329e-06
2.064e-10
5.74322e-06
2.26229e-10
5.74315e-06
2.42232e-10
5.74307e-06
2.53674e-10
5.74299e-06
2.59901e-10
5.74292e-06
2.60413e-10
5.74284e-06
2.54885e-10
5.74277e-06
2.43139e-10
5.74271e-06
2.25125e-10
5.74265e-06
2.00976e-10
5.7426e-06
1.71092e-10
5.74256e-06
1.36115e-10
5.74253e-06
9.68373e-11
5.74251e-06
5.41836e-11
5.74251e-06
9.26893e-12
5.74252e-06
-3.65882e-11
5.74254e-06
-8.19737e-11
5.74258e-06
-1.25511e-10
5.74263e-06
-1.65912e-10
5.74269e-06
-2.01964e-10
5.74276e-06
-2.32542e-10
5.74283e-06
-2.56679e-10
5.74291e-06
-2.73667e-10
5.743e-06
-2.83093e-10
5.74308e-06
-2.84818e-10
5.74316e-06
-2.78983e-10
5.74324e-06
-2.66051e-10
5.74331e-06
-2.46769e-10
5.74338e-06
-2.22069e-10
5.74343e-06
-1.92997e-10
5.74348e-06
-1.60729e-10
5.74352e-06
-1.26554e-10
5.74355e-06
-9.1767e-11
5.74357e-06
-5.75454e-11
5.74358e-06
-2.49095e-11
5.74357e-06
5.28916e-12
5.74357e-06
3.24093e-11
5.74355e-06
5.60573e-11
5.74353e-06
7.60757e-11
5.7435e-06
9.2519e-11
5.74347e-06
1.05643e-10
5.74344e-06
1.1588e-10
5.7434e-06
1.23781e-10
5.74336e-06
1.29958e-10
5.74332e-06
1.35022e-10
5.74328e-06
1.39519e-10
5.74323e-06
1.43858e-10
5.74319e-06
1.4826e-10
5.74314e-06
1.52738e-10
5.74309e-06
1.57137e-10
5.74304e-06
1.61191e-10
5.74299e-06
1.64502e-10
5.74295e-06
1.66469e-10
5.7429e-06
1.66312e-10
5.74285e-06
1.63269e-10
5.7428e-06
1.56749e-10
5.74276e-06
1.46285e-10
5.74272e-06
1.31458e-10
5.74269e-06
1.11984e-10
5.74267e-06
8.78646e-11
5.74265e-06
5.93773e-11
5.74264e-06
2.70003e-11
5.74264e-06
-8.54814e-12
5.74266e-06
-4.62407e-11
5.74268e-06
-8.4842e-11
5.74272e-06
-1.23093e-10
5.74277e-06
-1.59761e-10
5.74282e-06
-1.93579e-10
5.74289e-06
-2.23276e-10
5.74296e-06
-2.47683e-10
5.74304e-06
-2.65823e-10
5.74312e-06
-2.76937e-10
5.7432e-06
-2.80551e-10
5.74328e-06
-2.7649e-10
5.74336e-06
-2.64839e-10
5.74343e-06
-2.45903e-10
5.7435e-06
-2.20259e-10
5.74355e-06
-1.88767e-10
5.7436e-06
-1.52488e-10
5.74363e-06
-1.12578e-10
5.74365e-06
-7.02709e-11
5.74366e-06
-2.68702e-11
5.74366e-06
1.6304e-11
5.74364e-06
5.79869e-11
5.74361e-06
9.70232e-11
5.74357e-06
1.32425e-10
5.74353e-06
1.63385e-10
5.74347e-06
1.89208e-10
5.74341e-06
2.09293e-10
5.74335e-06
2.23252e-10
5.74328e-06
2.31019e-10
5.74321e-06
2.32727e-10
5.74314e-06
2.28575e-10
5.74308e-06
2.189e-10
5.74302e-06
2.04293e-10
5.74297e-06
1.85478e-10
5.74292e-06
1.63126e-10
5.74288e-06
1.37899e-10
5.74284e-06
1.10567e-10
5.74282e-06
8.196e-11
5.7428e-06
5.28471e-11
5.7428e-06
2.398e-11
5.7428e-06
-3.85525e-12
5.74281e-06
-2.99758e-11
5.74282e-06
-5.39165e-11
5.74284e-06
-7.53029e-11
5.74287e-06
-9.37313e-11
5.7429e-06
-1.08886e-10
5.74294e-06
-1.2064e-10
5.74297e-06
-1.28918e-10
5.74301e-06
-1.33643e-10
5.74305e-06
-1.34939e-10
5.74309e-06
-1.3318e-10
5.74313e-06
-1.2867e-10
5.74317e-06
-1.21565e-10
5.7432e-06
-1.12171e-10
5.74323e-06
-1.00957e-10
5.74326e-06
-8.82823e-11
5.74328e-06
-7.44465e-11
5.7433e-06
-5.98019e-11
5.74331e-06
-4.45913e-11
5.74332e-06
-2.89028e-11
5.74332e-06
-1.28014e-11
5.74332e-06
3.62711e-12
5.74331e-06
2.03065e-11
5.7433e-06
3.72935e-11
5.74328e-06
5.48006e-11
5.74326e-06
7.30072e-11
5.74323e-06
9.21232e-11
5.7432e-06
1.12494e-10
5.74316e-06
1.34271e-10
5.74311e-06
1.57461e-10
5.74305e-06
1.82281e-10
5.74299e-06
2.08848e-10
5.74292e-06
2.37151e-10
5.74284e-06
2.67058e-10
5.74276e-06
2.97963e-10
5.74267e-06
3.29319e-10
5.74257e-06
3.6027e-10
5.74247e-06
3.88391e-10
5.74238e-06
4.11193e-10
4.26009e-10
6.53817e-06
9.67641e-10
6.538e-06
9.45034e-10
6.53783e-06
9.09124e-10
6.53766e-06
8.60803e-10
6.53749e-06
8.03958e-10
6.53733e-06
7.41584e-10
6.53718e-06
6.76669e-10
6.53704e-06
6.11202e-10
6.53691e-06
5.46414e-10
6.5368e-06
4.82859e-10
6.5367e-06
4.22004e-10
6.53661e-06
3.64204e-10
6.53654e-06
3.0976e-10
6.53648e-06
2.59102e-10
6.53642e-06
2.12365e-10
6.53638e-06
1.69528e-10
6.53635e-06
1.30363e-10
6.53632e-06
9.46224e-11
6.5363e-06
6.19989e-11
6.53629e-06
3.26125e-11
6.53629e-06
6.13829e-12
6.53629e-06
-1.83267e-11
6.5363e-06
-4.10244e-11
6.53631e-06
-6.18806e-11
6.53633e-06
-8.11454e-11
6.53635e-06
-9.91792e-11
6.53638e-06
-1.16268e-10
6.5364e-06
-1.32416e-10
6.53644e-06
-1.47396e-10
6.53647e-06
-1.61132e-10
6.53651e-06
-1.73734e-10
6.53655e-06
-1.85244e-10
6.5366e-06
-1.9552e-10
6.53665e-06
-2.04274e-10
6.53669e-06
-2.11322e-10
6.53674e-06
-2.16679e-10
6.53679e-06
-2.20287e-10
6.53684e-06
-2.21895e-10
6.53689e-06
-2.21281e-10
6.53694e-06
-2.18324e-10
6.53699e-06
-2.12926e-10
6.53704e-06
-2.05002e-10
6.53708e-06
-1.94462e-10
6.53712e-06
-1.81177e-10
6.53716e-06
-1.65007e-10
6.53719e-06
-1.45868e-10
6.53722e-06
-1.23797e-10
6.53724e-06
-9.8934e-11
6.53725e-06
-7.14197e-11
6.53726e-06
-4.1399e-11
6.53726e-06
-9.11926e-12
6.53726e-06
2.50468e-11
6.53724e-06
6.06376e-11
6.53722e-06
9.71005e-11
6.53719e-06
1.33768e-10
6.53715e-06
1.69871e-10
6.5371e-06
2.04593e-10
6.53705e-06
2.37111e-10
6.53699e-06
2.6654e-10
6.53692e-06
2.91925e-10
6.53685e-06
3.12305e-10
6.53678e-06
3.268e-10
6.53671e-06
3.34635e-10
6.53663e-06
3.35156e-10
6.53656e-06
3.27897e-10
6.53649e-06
3.12633e-10
6.53642e-06
2.89366e-10
6.53637e-06
2.58302e-10
6.53632e-06
2.19891e-10
6.53628e-06
1.74884e-10
6.53625e-06
1.24331e-10
6.53624e-06
6.95107e-11
6.53623e-06
1.18891e-11
6.53624e-06
-4.69056e-11
6.53627e-06
-1.05138e-10
6.5363e-06
-1.61056e-10
6.53635e-06
-2.12961e-10
6.53641e-06
-2.59256e-10
6.53647e-06
-2.98493e-10
6.53655e-06
-3.29456e-10
6.53662e-06
-3.51261e-10
6.5367e-06
-3.63411e-10
6.53679e-06
-3.65761e-10
6.53687e-06
-3.58482e-10
6.53694e-06
-3.42098e-10
6.53701e-06
-3.17522e-10
6.53708e-06
-2.85984e-10
6.53713e-06
-2.48886e-10
6.53718e-06
-2.07714e-10
6.53722e-06
-1.64034e-10
6.53724e-06
-1.19456e-10
6.53726e-06
-7.55075e-11
6.53727e-06
-3.35222e-11
6.53727e-06
5.41335e-12
6.53726e-06
4.04846e-11
6.53725e-06
7.11737e-11
6.53723e-06
9.72571e-11
6.5372e-06
1.18786e-10
6.53717e-06
1.36072e-10
6.53714e-06
1.49666e-10
6.5371e-06
1.60276e-10
6.53706e-06
1.68664e-10
6.53702e-06
1.75557e-10
6.53698e-06
1.81584e-10
6.53694e-06
1.87243e-10
6.53689e-06
1.92855e-10
6.53685e-06
1.98509e-10
6.5368e-06
2.04027e-10
6.53675e-06
2.09002e-10
6.5367e-06
2.12879e-10
6.53665e-06
2.1496e-10
6.53661e-06
2.14369e-10
6.53656e-06
2.10139e-10
6.53651e-06
2.01422e-10
6.53647e-06
1.87601e-10
6.53644e-06
1.68226e-10
6.5364e-06
1.42991e-10
6.53638e-06
1.11865e-10
6.53636e-06
7.51991e-11
6.53636e-06
3.36662e-11
6.53636e-06
-1.1809e-11
6.53637e-06
-6.00157e-11
6.5364e-06
-1.09454e-10
6.53643e-06
-1.5848e-10
6.53648e-06
-2.0545e-10
6.53654e-06
-2.48742e-10
6.5366e-06
-2.86757e-10
6.53667e-06
-3.18012e-10
6.53674e-06
-3.41255e-10
6.53682e-06
-3.55522e-10
6.5369e-06
-3.6018e-10
6.53698e-06
-3.54978e-10
6.53706e-06
-3.40048e-10
6.53713e-06
-3.15832e-10
6.53719e-06
-2.83069e-10
6.53724e-06
-2.42808e-10
6.53729e-06
-1.96379e-10
6.53732e-06
-1.45271e-10
6.53734e-06
-9.10633e-11
6.53735e-06
-3.54104e-11
6.53735e-06
1.99972e-11
6.53733e-06
7.35298e-11
6.5373e-06
1.237e-10
6.53727e-06
1.69217e-10
6.53722e-06
2.09025e-10
6.53717e-06
2.42259e-10
6.53711e-06
2.68186e-10
6.53705e-06
2.86271e-10
6.53698e-06
2.96349e-10
6.53692e-06
2.98635e-10
6.53685e-06
2.93499e-10
6.53679e-06
2.81361e-10
6.53673e-06
2.62824e-10
6.53668e-06
2.38742e-10
6.53663e-06
2.10063e-10
6.53659e-06
1.77694e-10
6.53656e-06
1.426e-10
6.53653e-06
1.0586e-10
6.53652e-06
6.85395e-11
6.53651e-06
3.15791e-11
6.53651e-06
-4.14153e-12
6.53652e-06
-3.77859e-11
6.53653e-06
-6.86663e-11
6.53655e-06
-9.62461e-11
6.53658e-06
-1.20022e-10
6.53661e-06
-1.39567e-10
6.53665e-06
-1.54701e-10
6.53668e-06
-1.65446e-10
6.53672e-06
-1.71794e-10
6.53676e-06
-1.73765e-10
6.5368e-06
-1.7164e-10
6.53683e-06
-1.65858e-10
6.53687e-06
-1.56767e-10
6.5369e-06
-1.44744e-10
6.53693e-06
-1.30347e-10
6.53696e-06
-1.14104e-10
6.53698e-06
-9.63652e-11
6.537e-06
-7.74104e-11
6.53701e-06
-5.75143e-11
6.53702e-06
-3.69462e-11
6.53702e-06
-1.59203e-11
6.53702e-06
5.48858e-12
6.53701e-06
2.725e-11
6.537e-06
4.94027e-11
6.53698e-06
7.22605e-11
6.53696e-06
9.61831e-11
6.53693e-06
1.21269e-10
6.5369e-06
1.47572e-10
6.53686e-06
1.75351e-10
6.53681e-06
2.05048e-10
6.53675e-06
2.36867e-10
6.53669e-06
2.70532e-10
6.53662e-06
3.05755e-10
6.53655e-06
3.42238e-10
6.53647e-06
3.79084e-10
6.53638e-06
4.15144e-10
6.53629e-06
4.49202e-10
6.5362e-06
4.78503e-10
6.53611e-06
5.00113e-10
5.13298e-10
7.16789e-06
1.10729e-09
7.16775e-06
1.0872e-09
7.1676e-06