/*--------------------------------*- C++ -*----------------------------------*\
| =========                 |                                                 |
| \\      /  F ield         | OpenFOAM: The Open Source CFD Toolbox           |
|  \\    /   O peration     | Version:  2406                                  |
|   \\  /    A nd           | Website:  www.openfoam.com                      |
|    \\/     M anipulation  |                                                 |
\*---------------------------------------------------------------------------*/
FoamFile
{
    version     2.0;
    format      ascii;
    arch        "LSB;label=32;scalar=64";
    class       volVectorField;
    location    "0.2";
    object      U;
}
// * * * * * * * * * * * * * * * * * * * * * * * * * * * * * * * * * * * * * //

dimensions      [0 1 -1 0 0 0 0];

internalField   nonuniform List<vector> 
4000
(
(0.0168375 9.45098e-07 0)
(0.0168355 6.61953e-07 0)
(0.0168339 4.3298e-07 0)
(0.0168329 3.00945e-07 0)
(0.0168321 2.32057e-07 0)
(0.0168314 1.88852e-07 0)
(0.0168308 1.58942e-07 0)
(0.0168302 1.31655e-07 0)
(0.0168298 1.14638e-07 0)
(0.0168294 9.86944e-08 0)
(0.016829 8.34962e-08 0)
(0.0168288 6.90369e-08 0)
(0.0168285 5.67075e-08 0)
(0.0168283 4.54359e-08 0)
(0.0168282 3.53892e-08 0)
(0.016828 2.64771e-08 0)
(0.0168279 1.8229e-08 0)
(0.0168279 8.96083e-09 0)
(0.0168278 3.24167e-10 0)
(0.0168278 -3.9426e-09 0)
(0.0168278 -9.52245e-09 0)
(0.0168279 -1.52384e-08 0)
(0.0168279 -1.75416e-08 0)
(0.016828 -1.80119e-08 0)
(0.016828 -1.95504e-08 0)
(0.0168281 -2.41607e-08 0)
(0.0168282 -3.07436e-08 0)
(0.0168283 -3.54988e-08 0)
(0.0168284 -3.85175e-08 0)
(0.0168286 -4.20713e-08 0)
(0.0168287 -4.50688e-08 0)
(0.0168289 -4.63367e-08 0)
(0.016829 -4.75174e-08 0)
(0.0168292 -4.96659e-08 0)
(0.0168293 -5.13573e-08 0)
(0.0168295 -5.17968e-08 0)
(0.0168297 -5.25578e-08 0)
(0.0168299 -5.44136e-08 0)
(0.0168301 -5.56824e-08 0)
(0.0168302 -5.51536e-08 0)
(0.0168304 -5.37188e-08 0)
(0.0168306 -5.24986e-08 0)
(0.0168308 -5.11747e-08 0)
(0.0168309 -4.85029e-08 0)
(0.0168311 -4.42284e-08 0)
(0.0168312 -3.97686e-08 0)
(0.0168314 -3.60995e-08 0)
(0.0168315 -3.21138e-08 0)
(0.0168315 -2.60412e-08 0)
(0.0168316 -1.74762e-08 0)
(0.0168316 -7.77997e-09 0)
(0.0168316 1.08578e-09 0)
(0.0168316 8.55569e-09 0)
(0.0168316 1.60137e-08 0)
(0.0168315 2.50979e-08 0)
(0.0168314 3.57421e-08 0)
(0.0168312 4.62822e-08 0)
(0.0168311 5.51638e-08 0)
(0.0168309 6.21157e-08 0)
(0.0168306 6.78143e-08 0)
(0.0168304 7.30023e-08 0)
(0.0168301 7.78979e-08 0)
(0.0168298 8.18368e-08 0)
(0.0168295 8.34912e-08 0)
(0.0168293 8.19447e-08 0)
(0.016829 7.75861e-08 0)
(0.0168287 7.16424e-08 0)
(0.0168285 6.48499e-08 0)
(0.0168283 5.68714e-08 0)
(0.0168281 4.69548e-08 0)
(0.016828 3.46998e-08 0)
(0.0168279 2.01453e-08 0)
(0.0168278 3.76754e-09 0)
(0.0168278 -1.32411e-08 0)
(0.0168279 -2.9215e-08 0)
(0.016828 -4.30251e-08 0)
(0.0168282 -5.47792e-08 0)
(0.0168284 -6.53167e-08 0)
(0.0168286 -7.51339e-08 0)
(0.0168289 -8.38538e-08 0)
(0.0168292 -9.05476e-08 0)
(0.0168295 -9.4428e-08 0)
(0.0168298 -9.52674e-08 0)
(0.0168302 -9.32752e-08 0)
(0.0168305 -8.87856e-08 0)
(0.0168308 -8.21429e-08 0)
(0.016831 -7.36398e-08 0)
(0.0168313 -6.33747e-08 0)
(0.0168315 -5.13942e-08 0)
(0.0168316 -3.82016e-08 0)
(0.0168317 -2.48914e-08 0)
(0.0168318 -1.25006e-08 0)
(0.0168318 -1.40302e-09 0)
(0.0168318 8.44507e-09 0)
(0.0168318 1.69294e-08 0)
(0.0168317 2.37046e-08 0)
(0.0168317 2.85045e-08 0)
(0.0168316 3.13079e-08 0)
(0.0168315 3.24297e-08 0)
(0.0168313 3.26002e-08 0)
(0.0168312 3.26904e-08 0)
(0.0168311 3.32035e-08 0)
(0.016831 3.42308e-08 0)
(0.0168308 3.58883e-08 0)
(0.0168307 3.84161e-08 0)
(0.0168305 4.17288e-08 0)
(0.0168304 4.52046e-08 0)
(0.0168302 4.81858e-08 0)
(0.0168301 5.06094e-08 0)
(0.0168299 5.29532e-08 0)
(0.0168297 5.54198e-08 0)
(0.0168295 5.72416e-08 0)
(0.0168293 5.71764e-08 0)
(0.0168291 5.49031e-08 0)
(0.016829 5.14319e-08 0)
(0.0168288 4.76104e-08 0)
(0.0168287 4.27275e-08 0)
(0.0168285 3.53924e-08 0)
(0.0168284 2.53777e-08 0)
(0.0168284 1.36618e-08 0)
(0.0168283 9.74316e-10 0)
(0.0168284 -1.2621e-08 0)
(0.0168284 -2.67799e-08 0)
(0.0168285 -4.0721e-08 0)
(0.0168287 -5.39799e-08 0)
(0.0168289 -6.63695e-08 0)
(0.0168291 -7.72201e-08 0)
(0.0168294 -8.55409e-08 0)
(0.0168297 -9.09629e-08 0)
(0.01683 -9.3834e-08 0)
(0.0168303 -9.45096e-08 0)
(0.0168306 -9.31545e-08 0)
(0.0168309 -8.98967e-08 0)
(0.0168312 -8.44431e-08 0)
(0.0168315 -7.59122e-08 0)
(0.0168317 -6.38819e-08 0)
(0.0168319 -4.93699e-08 0)
(0.0168321 -3.40926e-08 0)
(0.0168322 -1.90531e-08 0)
(0.0168322 -4.46632e-09 0)
(0.0168322 9.43199e-09 0)
(0.0168322 2.23721e-08 0)
(0.0168321 3.45293e-08 0)
(0.016832 4.62639e-08 0)
(0.0168318 5.73894e-08 0)
(0.0168316 6.70877e-08 0)
(0.0168313 7.44317e-08 0)
(0.0168311 7.8953e-08 0)
(0.0168308 8.10491e-08 0)
(0.0168306 8.16723e-08 0)
(0.0168303 8.10494e-08 0)
(0.01683 7.8077e-08 0)
(0.0168298 7.18626e-08 0)
(0.0168296 6.34285e-08 0)
(0.0168294 5.4714e-08 0)
(0.0168292 4.62672e-08 0)
(0.0168291 3.72218e-08 0)
(0.0168289 2.7172e-08 0)
(0.0168289 1.66828e-08 0)
(0.0168288 6.27976e-09 0)
(0.0168288 -3.69132e-09 0)
(0.0168289 -1.25536e-08 0)
(0.0168289 -1.9873e-08 0)
(0.016829 -2.6255e-08 0)
(0.0168291 -3.23115e-08 0)
(0.0168292 -3.75507e-08 0)
(0.0168293 -4.14519e-08 0)
(0.0168295 -4.45253e-08 0)
(0.0168296 -4.68671e-08 0)
(0.0168298 -4.71091e-08 0)
(0.0168299 -4.46949e-08 0)
(0.0168301 -4.15524e-08 0)
(0.0168302 -3.92447e-08 0)
(0.0168304 -3.64532e-08 0)
(0.0168305 -3.16801e-08 0)
(0.0168306 -2.59206e-08 0)
(0.0168307 -2.06473e-08 0)
(0.0168307 -1.60537e-08 0)
(0.0168308 -1.21278e-08 0)
(0.0168308 -8.7497e-09 0)
(0.0168309 -5.39321e-09 0)
(0.0168309 -2.07385e-09 0)
(0.0168309 1.12151e-09 0)
(0.0168308 4.74952e-09 0)
(0.0168308 9.35257e-09 0)
(0.0168307 1.50926e-08 0)
(0.0168307 2.12969e-08 0)
(0.0168306 2.69832e-08 0)
(0.0168305 3.33815e-08 0)
(0.0168303 4.24915e-08 0)
(0.0168302 5.28002e-08 0)
(0.01683 6.14774e-08 0)
(0.0168297 6.99082e-08 0)
(0.0168295 8.22948e-08 0)
(0.0168291 1.00244e-07 0)
(0.0168288 1.24356e-07 0)
(0.0168283 1.60789e-07 0)
(0.0168278 2.26297e-07 0)
(0.016827 3.47183e-07 0)
(0.0168259 4.99221e-07 0)
(0.0467369 3.47199e-06 0)
(0.0467336 2.83707e-06 0)
(0.0467305 2.23769e-06 0)
(0.046728 1.81035e-06 0)
(0.0467259 1.5232e-06 0)
(0.046724 1.30003e-06 0)
(0.0467223 1.12586e-06 0)
(0.0467208 9.75183e-07 0)
(0.0467195 8.48917e-07 0)
(0.0467183 7.30175e-07 0)
(0.0467174 6.24762e-07 0)
(0.0467165 5.27215e-07 0)
(0.0467158 4.38332e-07 0)
(0.0467152 3.58772e-07 0)
(0.0467147 2.85493e-07 0)
(0.0467144 2.191e-07 0)
(0.0467141 1.57546e-07 0)
(0.0467139 1.0161e-07 0)
(0.0467137 5.01289e-08 0)
(0.0467137 7.47371e-09 0)
(0.0467136 -3.1712e-08 0)
(0.0467137 -6.46823e-08 0)
(0.0467138 -9.16388e-08 0)
(0.0467139 -1.17258e-07 0)
(0.0467141 -1.42994e-07 0)
(0.0467143 -1.70603e-07 0)
(0.0467146 -1.99665e-07 0)
(0.0467149 -2.25409e-07 0)
(0.0467152 -2.47724e-07 0)
(0.0467156 -2.69641e-07 0)
(0.0467159 -2.90098e-07 0)
(0.0467164 -3.072e-07 0)
(0.0467168 -3.21961e-07 0)
(0.0467172 -3.35842e-07 0)
(0.0467177 -3.47969e-07 0)
(0.0467182 -3.57032e-07 0)
(0.0467187 -3.63812e-07 0)
(0.0467192 -3.68375e-07 0)
(0.0467197 -3.68473e-07 0)
(0.0467202 -3.63882e-07 0)
(0.0467207 -3.57105e-07 0)
(0.0467212 -3.48307e-07 0)
(0.0467217 -3.34455e-07 0)
(0.0467221 -3.13507e-07 0)
(0.0467225 -2.86831e-07 0)
(0.0467229 -2.57536e-07 0)
(0.0467232 -2.26331e-07 0)
(0.0467235 -1.89936e-07 0)
(0.0467237 -1.44951e-07 0)
(0.0467238 -9.18126e-08 0)
(0.0467239 -3.43931e-08 0)
(0.0467239 2.32119e-08 0)
(0.0467238 8.01808e-08 0)
(0.0467237 1.39215e-07 0)
(0.0467234 2.02498e-07 0)
(0.0467231 2.68031e-07 0)
(0.0467227 3.3074e-07 0)
(0.0467222 3.86619e-07 0)
(0.0467216 4.35102e-07 0)
(0.0467209 4.77586e-07 0)
(0.0467202 5.14597e-07 0)
(0.0467195 5.44485e-07 0)
(0.0467187 5.63712e-07 0)
(0.0467179 5.68294e-07 0)
(0.0467172 5.56227e-07 0)
(0.0467164 5.28945e-07 0)
(0.0467157 4.8966e-07 0)
(0.046715 4.39967e-07 0)
(0.0467145 3.78691e-07 0)
(0.046714 3.04341e-07 0)
(0.0467136 2.17864e-07 0)
(0.0467134 1.22351e-07 0)
(0.0467133 2.11336e-08 0)
(0.0467133 -8.25163e-08 0)
(0.0467135 -1.84479e-07 0)
(0.0467138 -2.80304e-07 0)
(0.0467143 -3.67031e-07 0)
(0.0467148 -4.43733e-07 0)
(0.0467155 -5.09989e-07 0)
(0.0467163 -5.64225e-07 0)
(0.0467171 -6.03741e-07 0)
(0.0467179 -6.2613e-07 0)
(0.0467188 -6.30428e-07 0)
(0.0467197 -6.16993e-07 0)
(0.0467205 -5.86898e-07 0)
(0.0467213 -5.41936e-07 0)
(0.046722 -4.84712e-07 0)
(0.0467226 -4.17923e-07 0)
(0.0467232 -3.43715e-07 0)
(0.0467236 -2.64403e-07 0)
(0.0467239 -1.8348e-07 0)
(0.0467241 -1.05002e-07 0)
(0.0467242 -3.19851e-08 0)
(0.0467242 3.38715e-08 0)
(0.0467242 9.12133e-08 0)
(0.046724 1.38801e-07 0)
(0.0467238 1.76309e-07 0)
(0.0467235 2.04562e-07 0)
(0.0467232 2.24954e-07 0)
(0.0467229 2.39199e-07 0)
(0.0467226 2.49396e-07 0)
(0.0467222 2.57625e-07 0)
(0.0467218 2.65442e-07 0)
(0.0467214 2.74065e-07 0)
(0.046721 2.8468e-07 0)
(0.0467206 2.97937e-07 0)
(0.0467201 3.13147e-07 0)
(0.0467197 3.28437e-07 0)
(0.0467192 3.42026e-07 0)
(0.0467187 3.53328e-07 0)
(0.0467182 3.6239e-07 0)
(0.0467177 3.67906e-07 0)
(0.0467172 3.66464e-07 0)
(0.0467167 3.5487e-07 0)
(0.0467163 3.32883e-07 0)
(0.0467159 3.02157e-07 0)
(0.0467155 2.62654e-07 0)
(0.0467151 2.12109e-07 0)
(0.0467149 1.49376e-07 0)
(0.0467148 7.62297e-08 0)
(0.0467147 -4.74252e-09 0)
(0.0467148 -9.17833e-08 0)
(0.046715 -1.82372e-07 0)
(0.0467153 -2.72141e-07 0)
(0.0467157 -3.56774e-07 0)
(0.0467162 -4.33625e-07 0)
(0.0467169 -5.0056e-07 0)
(0.0467176 -5.54783e-07 0)
(0.0467184 -5.93924e-07 0)
(0.0467192 -6.17101e-07 0)
(0.0467201 -6.24104e-07 0)
(0.0467209 -6.14627e-07 0)
(0.0467218 -5.88783e-07 0)
(0.0467226 -5.47141e-07 0)
(0.0467233 -4.89928e-07 0)
(0.0467239 -4.17585e-07 0)
(0.0467244 -3.32616e-07 0)
(0.0467248 -2.39649e-07 0)
(0.0467251 -1.43201e-07 0)
(0.0467252 -4.63058e-08 0)
(0.0467252 4.87404e-08 0)
(0.0467251 1.39697e-07 0)
(0.0467249 2.24763e-07 0)
(0.0467245 3.02604e-07 0)
(0.0467241 3.71709e-07 0)
(0.0467235 4.30205e-07 0)
(0.0467229 4.76063e-07 0)
(0.0467222 5.07312e-07 0)
(0.0467215 5.23123e-07 0)
(0.0467208 5.24937e-07 0)
(0.0467201 5.14974e-07 0)
(0.0467194 4.93329e-07 0)
(0.0467188 4.587e-07 0)
(0.0467182 4.12442e-07 0)
(0.0467176 3.59139e-07 0)
(0.0467172 3.02231e-07 0)
(0.0467168 2.41852e-07 0)
(0.0467165 1.77923e-07 0)
(0.0467163 1.12439e-07 0)
(0.0467162 4.76015e-08 0)
(0.0467162 -1.54046e-08 0)
(0.0467162 -7.47173e-08 0)
(0.0467164 -1.27613e-07 0)
(0.0467166 -1.73137e-07 0)
(0.0467168 -2.12283e-07 0)
(0.0467172 -2.45095e-07 0)
(0.0467175 -2.70377e-07 0)
(0.0467179 -2.88166e-07 0)
(0.0467183 -2.99051e-07 0)
(0.0467187 -3.01303e-07 0)
(0.0467191 -2.93134e-07 0)
(0.0467195 -2.77607e-07 0)
(0.0467199 -2.59809e-07 0)
(0.0467203 -2.39764e-07 0)
(0.0467206 -2.14531e-07 0)
(0.0467209 -1.85126e-07 0)
(0.0467211 -1.5468e-07 0)
(0.0467213 -1.2371e-07 0)
(0.0467215 -9.22171e-08 0)
(0.0467216 -6.13534e-08 0)
(0.0467216 -3.14532e-08 0)
(0.0467217 -2.216e-09 0)
(0.0467216 2.72623e-08 0)
(0.0467216 5.88792e-08 0)
(0.0467214 9.37276e-08 0)
(0.0467213 1.31821e-07 0)
(0.046721 1.7254e-07 0)
(0.0467207 2.1456e-07 0)
(0.0467204 2.59566e-07 0)
(0.04672 3.12227e-07 0)
(0.0467195 3.72273e-07 0)
(0.0467189 4.3525e-07 0)
(0.0467183 5.03531e-07 0)
(0.0467175 5.84877e-07 0)
(0.0467166 6.83156e-07 0)
(0.0467156 8.03756e-07 0)
(0.0467145 9.603e-07 0)
(0.0467132 1.17929e-06 0)
(0.0467116 1.49732e-06 0)
(0.0467098 1.83427e-06 0)
(0.0729749 6.86641e-06 0)
(0.072971 6.18605e-06 0)
(0.0729671 5.38639e-06 0)
(0.0729638 4.68589e-06 0)
(0.0729608 4.09631e-06 0)
(0.072958 3.59715e-06 0)
(0.0729554 3.16604e-06 0)
(0.0729532 2.78163e-06 0)
(0.0729512 2.4334e-06 0)
(0.0729494 2.11181e-06 0)
(0.0729479 1.81529e-06 0)
(0.0729466 1.54183e-06 0)
(0.0729455 1.29318e-06 0)
(0.0729445 1.06752e-06 0)
(0.0729437 8.54413e-07 0)
(0.0729431 6.60779e-07 0)
(0.0729426 4.88788e-07 0)
(0.0729423 3.34659e-07 0)
(0.072942 1.93907e-07 0)
(0.0729419 6.74397e-08 0)
(0.0729419 -4.52767e-08 0)
(0.0729419 -1.44212e-07 0)
(0.072942 -2.34072e-07 0)
(0.0729422 -3.19565e-07 0)
(0.0729425 -3.9895e-07 0)
(0.0729428 -4.74463e-07 0)
(0.0729432 -5.49455e-07 0)
(0.0729436 -6.20429e-07 0)
(0.0729441 -6.84961e-07 0)
(0.0729446 -7.45493e-07 0)
(0.0729452 -8.0317e-07 0)
(0.0729458 -8.55345e-07 0)
(0.0729465 -8.99438e-07 0)
(0.0729472 -9.37123e-07 0)
(0.0729479 -9.71201e-07 0)
(0.0729487 -9.99737e-07 0)
(0.0729494 -1.01821e-06 0)
(0.0729502 -1.0249e-06 0)
(0.072951 -1.02127e-06 0)
(0.0729517 -1.00964e-06 0)
(0.0729525 -9.90288e-07 0)
(0.0729532 -9.59836e-07 0)
(0.0729539 -9.14772e-07 0)
(0.0729545 -8.55527e-07 0)
(0.0729552 -7.84437e-07 0)
(0.0729557 -7.01869e-07 0)
(0.0729562 -6.05757e-07 0)
(0.0729566 -4.93656e-07 0)
(0.0729569 -3.65593e-07 0)
(0.0729571 -2.2468e-07 0)
(0.0729572 -7.43372e-08 0)
(0.0729571 8.37769e-08 0)
(0.072957 2.49077e-07 0)
(0.0729567 4.20573e-07 0)
(0.0729563 5.95545e-07 0)
(0.0729558 7.69028e-07 0)
(0.0729552 9.34864e-07 0)
(0.0729544 1.08786e-06 0)
(0.0729535 1.22531e-06 0)
(0.0729525 1.34598e-06 0)
(0.0729515 1.44711e-06 0)
(0.0729504 1.52308e-06 0)
(0.0729492 1.56707e-06 0)
(0.072948 1.57383e-06 0)
(0.0729468 1.54125e-06 0)
(0.0729457 1.47012e-06 0)
(0.0729446 1.36252e-06 0)
(0.0729437 1.21992e-06 0)
(0.0729428 1.04267e-06 0)
(0.0729421 8.31845e-07 0)
(0.0729416 5.9179e-07 0)
(0.0729413 3.30213e-07 0)
(0.0729411 5.57585e-08 0)
(0.0729412 -2.23811e-07 0)
(0.0729414 -5.00862e-07 0)
(0.0729419 -7.66691e-07 0)
(0.0729426 -1.01222e-06 0)
(0.0729434 -1.22983e-06 0)
(0.0729444 -1.414e-06 0)
(0.0729455 -1.56036e-06 0)
(0.0729467 -1.6647e-06 0)
(0.072948 -1.72329e-06 0)
(0.0729493 -1.73422e-06 0)
(0.0729506 -1.69803e-06 0)
(0.0729518 -1.61721e-06 0)
(0.072953 -1.49578e-06 0)
(0.0729541 -1.33979e-06 0)
(0.072955 -1.15725e-06 0)
(0.0729558 -9.56455e-07 0)
(0.0729564 -7.44643e-07 0)
(0.0729569 -5.28771e-07 0)
(0.0729573 -3.167e-07 0)
(0.0729574 -1.16441e-07 0)
(0.0729575 6.57237e-08 0)
(0.0729574 2.2591e-07 0)
(0.0729572 3.62132e-07 0)
(0.0729569 4.74062e-07 0)
(0.0729565 5.63018e-07 0)
(0.072956 6.31456e-07 0)
(0.0729555 6.825e-07 0)
(0.072955 7.20088e-07 0)
(0.0729544 7.48938e-07 0)
(0.0729538 7.73682e-07 0)
(0.0729532 7.97963e-07 0)
(0.0729526 8.24213e-07 0)
(0.0729519 8.53767e-07 0)
(0.0729512 8.86676e-07 0)
(0.0729505 9.21299e-07 0)
(0.0729498 9.54263e-07 0)
(0.0729491 9.8145e-07 0)
(0.0729484 9.99457e-07 0)
(0.0729476 1.00559e-06 0)
(0.0729469 9.95869e-07 0)
(0.0729462 9.64211e-07 0)
(0.0729455 9.05212e-07 0)
(0.0729448 8.17304e-07 0)
(0.0729443 7.01597e-07 0)
(0.0729438 5.58391e-07 0)
(0.0729435 3.87094e-07 0)
(0.0729433 1.89363e-07 0)
(0.0729432 -2.98679e-08 0)
(0.0729433 -2.64304e-07 0)
(0.0729436 -5.06837e-07 0)
(0.0729441 -7.48188e-07 0)
(0.0729447 -9.77585e-07 0)
(0.0729455 -1.18588e-06 0)
(0.0729465 -1.36677e-06 0)
(0.0729475 -1.51502e-06 0)
(0.0729487 -1.62528e-06 0)
(0.0729499 -1.69295e-06 0)
(0.0729512 -1.71499e-06 0)
(0.0729525 -1.68972e-06 0)
(0.0729537 -1.61724e-06 0)
(0.0729549 -1.49989e-06 0)
(0.0729559 -1.34149e-06 0)
(0.0729569 -1.14645e-06 0)
(0.0729576 -9.20554e-07 0)
(0.0729582 -6.72076e-07 0)
(0.0729586 -4.10568e-07 0)
(0.0729589 -1.44637e-07 0)
(0.0729589 1.18483e-07 0)
(0.0729587 3.71976e-07 0)
(0.0729584 6.09247e-07 0)
(0.0729578 8.24387e-07 0)
(0.0729572 1.01232e-06 0)
(0.0729563 1.16904e-06 0)
(0.0729554 1.29175e-06 0)
(0.0729545 1.37787e-06 0)
(0.0729534 1.42463e-06 0)
(0.0729524 1.43117e-06 0)
(0.0729513 1.40074e-06 0)
(0.0729503 1.33845e-06 0)
(0.0729493 1.24731e-06 0)
(0.0729485 1.12905e-06 0)
(0.0729477 9.8811e-07 0)
(0.072947 8.3145e-07 0)
(0.0729464 6.64467e-07 0)
(0.072946 4.90224e-07 0)
(0.0729457 3.12504e-07 0)
(0.0729455 1.36429e-07 0)
(0.0729455 -3.37672e-08 0)
(0.0729456 -1.94561e-07 0)
(0.0729458 -3.413e-07 0)
(0.0729461 -4.69747e-07 0)
(0.0729465 -5.78989e-07 0)
(0.0729469 -6.69732e-07 0)
(0.0729475 -7.40622e-07 0)
(0.072948 -7.8935e-07 0)
(0.0729486 -8.16037e-07 0)
(0.0729492 -8.22016e-07 0)
(0.0729499 -8.07174e-07 0)
(0.0729505 -7.72828e-07 0)
(0.072951 -7.24433e-07 0)
(0.0729516 -6.66526e-07 0)
(0.072952 -5.99107e-07 0)
(0.0729525 -5.22694e-07 0)
(0.0729528 -4.40401e-07 0)
(0.0729531 -3.53673e-07 0)
(0.0729534 -2.63412e-07 0)
(0.0729535 -1.72974e-07 0)
(0.0729536 -8.4167e-08 0)
(0.0729536 5.07068e-09 0)
(0.0729536 9.73514e-08 0)
(0.0729535 1.93978e-07 0)
(0.0729533 2.94754e-07 0)
(0.072953 3.99946e-07 0)
(0.0729526 5.12061e-07 0)
(0.0729522 6.32548e-07 0)
(0.0729516 7.61338e-07 0)
(0.072951 9.01237e-07 0)
(0.0729502 1.05623e-06 0)
(0.0729494 1.22858e-06 0)
(0.0729484 1.41971e-06 0)
(0.0729472 1.63134e-06 0)
(0.0729459 1.8706e-06 0)
(0.0729445 2.14758e-06 0)
(0.0729429 2.4707e-06 0)
(0.0729411 2.8494e-06 0)
(0.0729391 3.27584e-06 0)
(0.072937 3.63809e-06 0)
(0.0956596 1.05781e-05 0)
(0.0956555 9.95252e-06 0)
(0.0956514 9.09723e-06 0)
(0.0956477 8.22265e-06 0)
(0.0956442 7.38235e-06 0)
(0.0956409 6.60921e-06 0)
(0.0956378 5.89007e-06 0)
(0.0956351 5.225e-06 0)
(0.0956326 4.60105e-06 0)
(0.0956304 4.01889e-06 0)
(0.0956285 3.47499e-06 0)
(0.0956268 2.96864e-06 0)
(0.0956254 2.499e-06 0)
(0.0956242 2.07072e-06 0)
(0.0956232 1.67362e-06 0)
(0.0956224 1.31094e-06 0)
(0.0956217 9.8632e-07 0)
(0.0956212 6.89694e-07 0)
(0.0956209 4.23268e-07 0)
(0.0956207 1.86258e-07 0)
(0.0956206 -3.10382e-08 0)
(0.0956207 -2.3035e-07 0)
(0.0956208 -4.09545e-07 0)
(0.095621 -5.73571e-07 0)
(0.0956213 -7.28317e-07 0)
(0.0956217 -8.7677e-07 0)
(0.0956222 -1.0182e-06 0)
(0.0956227 -1.15029e-06 0)
(0.0956233 -1.27344e-06 0)
(0.0956239 -1.38895e-06 0)
(0.0956246 -1.49584e-06 0)
(0.0956254 -1.59213e-06 0)
(0.0956262 -1.67647e-06 0)
(0.0956271 -1.74934e-06 0)
(0.095628 -1.81173e-06 0)
(0.0956289 -1.86095e-06 0)
(0.0956298 -1.89237e-06 0)
(0.0956307 -1.90512e-06 0)
(0.0956317 -1.90097e-06 0)
(0.0956326 -1.87975e-06 0)
(0.0956335 -1.83884e-06 0)
(0.0956344 -1.7751e-06 0)
(0.0956353 -1.68688e-06 0)
(0.0956361 -1.57517e-06 0)
(0.0956368 -1.44106e-06 0)
(0.0956375 -1.28306e-06 0)
(0.095638 -1.09838e-06 0)
(0.0956385 -8.85924e-07 0)
(0.0956389 -6.47884e-07 0)
(0.0956391 -3.88711e-07 0)
(0.0956392 -1.11844e-07 0)
(0.0956392 1.81665e-07 0)
(0.095639 4.90372e-07 0)
(0.0956387 8.09638e-07 0)
(0.0956382 1.1319e-06 0)
(0.0956375 1.44874e-06 0)
(0.0956367 1.75235e-06 0)
(0.0956358 2.03569e-06 0)
(0.0956347 2.29232e-06 0)
(0.0956335 2.51592e-06 0)
(0.0956322 2.69895e-06 0)
(0.0956308 2.83205e-06 0)
(0.0956294 2.90602e-06 0)
(0.095628 2.91445e-06 0)
(0.0956266 2.85422e-06 0)
(0.0956252 2.72418e-06 0)
(0.0956239 2.52428e-06 0)
(0.0956227 2.25607e-06 0)
(0.0956217 1.92323e-06 0)
(0.0956209 1.53159e-06 0)
(0.0956202 1.08947e-06 0)
(0.0956198 6.08317e-07 0)
(0.0956196 1.02334e-07 0)
(0.0956197 -4.13245e-07 0)
(0.09562 -9.23368e-07 0)
(0.0956206 -1.41314e-06 0)
(0.0956214 -1.86765e-06 0)
(0.0956224 -2.27258e-06 0)
(0.0956236 -2.61531e-06 0)
(0.095625 -2.88569e-06 0)
(0.0956264 -3.07613e-06 0)
(0.095628 -3.18159e-06 0)
(0.0956295 -3.2e-06 0)
(0.0956311 -3.133e-06 0)
(0.0956326 -2.98569e-06 0)
(0.095634 -2.76564e-06 0)
(0.0956353 -2.48273e-06 0)
(0.0956364 -2.14974e-06 0)
(0.0956374 -1.78175e-06 0)
(0.0956382 -1.39397e-06 0)
(0.0956388 -1.00023e-06 0)
(0.0956392 -6.13423e-07 0)
(0.0956395 -2.45936e-07 0)
(0.0956395 9.15015e-08 0)
(0.0956394 3.91375e-07 0)
(0.0956392 6.49713e-07 0)
(0.0956388 8.65568e-07 0)
(0.0956384 1.04053e-06 0)
(0.0956378 1.17815e-06 0)
(0.0956372 1.28342e-06 0)
(0.0956365 1.36272e-06 0)
(0.0956358 1.42372e-06 0)
(0.0956351 1.47445e-06 0)
(0.0956343 1.52162e-06 0)
(0.0956335 1.56954e-06 0)
(0.0956327 1.62022e-06 0)
(0.0956319 1.67378e-06 0)
(0.095631 1.72876e-06 0)
(0.0956301 1.78154e-06 0)
(0.0956292 1.82582e-06 0)
(0.0956283 1.85356e-06 0)
(0.0956274 1.85718e-06 0)
(0.0956265 1.83013e-06 0)
(0.0956256 1.76535e-06 0)
(0.0956248 1.65473e-06 0)
(0.095624 1.49209e-06 0)
(0.0956234 1.27577e-06 0)
(0.0956228 1.00727e-06 0)
(0.0956224 6.88906e-07 0)
(0.0956222 3.24762e-07 0)
(0.0956221 -7.68687e-08 0)
(0.0956223 -5.03966e-07 0)
(0.0956226 -9.43071e-07 0)
(0.0956232 -1.37964e-06 0)
(0.095624 -1.79749e-06 0)
(0.095625 -2.18034e-06 0)
(0.0956261 -2.51425e-06 0)
(0.0956274 -2.7879e-06 0)
(0.0956288 -2.99147e-06 0)
(0.0956303 -3.11682e-06 0)
(0.0956318 -3.15839e-06 0)
(0.0956334 -3.11326e-06 0)
(0.0956348 -2.98123e-06 0)
(0.0956362 -2.76576e-06 0)
(0.0956375 -2.47433e-06 0)
(0.0956387 -2.11698e-06 0)
(0.0956396 -1.70514e-06 0)
(0.0956403 -1.25215e-06 0)
(0.0956408 -7.73238e-07 0)
(0.0956411 -2.83835e-07 0)
(0.0956412 2.01848e-07 0)
(0.095641 6.7055e-07 0)
(0.0956405 1.1096e-06 0)
(0.0956399 1.50755e-06 0)
(0.0956391 1.8547e-06 0)
(0.0956381 2.14317e-06 0)
(0.095637 2.3675e-06 0)
(0.0956358 2.52452e-06 0)
(0.0956346 2.61195e-06 0)
(0.0956333 2.62836e-06 0)
(0.0956321 2.57586e-06 0)
(0.0956308 2.46157e-06 0)
(0.0956297 2.29407e-06 0)
(0.0956286 2.07995e-06 0)
(0.0956276 1.82532e-06 0)
(0.0956268 1.53888e-06 0)
(0.0956261 1.23052e-06 0)
(0.0956256 9.08488e-07 0)
(0.0956252 5.8043e-07 0)
(0.095625 2.55483e-07 0)
(0.095625 -5.72161e-08 0)
(0.0956251 -3.50856e-07 0)
(0.0956253 -6.19883e-07 0)
(0.0956257 -8.58668e-07 0)
(0.0956261 -1.0633e-06 0)
(0.0956267 -1.23232e-06 0)
(0.0956273 -1.36366e-06 0)
(0.095628 -1.45386e-06 0)
(0.0956287 -1.50257e-06 0)
(0.0956295 -1.51421e-06 0)
(0.0956302 -1.49264e-06 0)
(0.0956309 -1.43844e-06 0)
(0.0956316 -1.35421e-06 0)
(0.0956323 -1.24652e-06 0)
(0.0956329 -1.12035e-06 0)
(0.0956334 -9.78101e-07 0)
(0.0956338 -8.23666e-07 0)
(0.0956342 -6.61403e-07 0)
(0.0956345 -4.93947e-07 0)
(0.0956347 -3.23516e-07 0)
(0.0956348 -1.51096e-07 0)
(0.0956348 2.44902e-08 0)
(0.0956347 2.04618e-07 0)
(0.0956346 3.90294e-07 0)
(0.0956343 5.81809e-07 0)
(0.095634 7.79611e-07 0)
(0.0956335 9.88074e-07 0)
(0.0956329 1.21305e-06 0)
(0.0956323 1.456e-06 0)
(0.0956314 1.71649e-06 0)
(0.0956305 1.9979e-06 0)
(0.0956294 2.30655e-06 0)
(0.0956282 2.64429e-06 0)
(0.0956268 3.01076e-06 0)
(0.0956253 3.4113e-06 0)
(0.0956236 3.8479e-06 0)
(0.0956218 4.31592e-06 0)
(0.0956198 4.80578e-06 0)
(0.0956176 5.27175e-06 0)
(0.0956155 5.61298e-06 0)
(0.114892 1.43002e-05 0)
(0.114888 1.37406e-05 0)
(0.114884 1.29217e-05 0)
(0.114881 1.19616e-05 0)
(0.114877 1.09558e-05 0)
(0.114874 9.94572e-06 0)
(0.11487 8.96533e-06 0)
(0.114867 8.01468e-06 0)
(0.114865 7.1022e-06 0)
(0.114862 6.23894e-06 0)
(0.11486 5.41936e-06 0)
(0.114858 4.65077e-06 0)
(0.114857 3.93199e-06 0)
(0.114855 3.27056e-06 0)
(0.114854 2.66323e-06 0)
(0.114853 2.10526e-06 0)
(0.114853 1.59932e-06 0)
(0.114852 1.14014e-06 0)
(0.114852 7.24554e-07 0)
(0.114851 3.50786e-07 0)
(0.114851 9.68731e-09 0)
(0.114851 -3.01442e-07 0)
(0.114851 -5.83599e-07 0)
(0.114852 -8.46376e-07 0)
(0.114852 -1.09571e-06 0)
(0.114852 -1.32853e-06 0)
(0.114853 -1.54464e-06 0)
(0.114853 -1.74887e-06 0)
(0.114854 -1.94253e-06 0)
(0.114855 -2.12224e-06 0)
(0.114856 -2.28541e-06 0)
(0.114856 -2.43298e-06 0)
(0.114857 -2.56575e-06 0)
(0.114858 -2.68096e-06 0)
(0.114859 -2.77491e-06 0)
(0.11486 -2.84527e-06 0)
(0.114861 -2.89085e-06 0)
(0.114862 -2.91135e-06 0)
(0.114863 -2.90575e-06 0)
(0.114864 -2.87089e-06 0)
(0.114865 -2.80348e-06 0)
(0.114866 -2.70171e-06 0)
(0.114867 -2.56463e-06 0)
(0.114868 -2.39199e-06 0)
(0.114869 -2.18339e-06 0)
(0.114869 -1.93701e-06 0)
(0.11487 -1.65096e-06 0)
(0.114871 -1.32547e-06 0)
(0.114871 -9.63088e-07 0)
(0.114871 -5.67961e-07 0)
(0.114871 -1.44268e-07 0)
(0.114871 3.04664e-07 0)
(0.114871 7.74722e-07 0)
(0.114871 1.25869e-06 0)
(0.11487 1.74612e-06 0)
(0.114869 2.22526e-06 0)
(0.114869 2.68509e-06 0)
(0.114868 3.11543e-06 0)
(0.114866 3.5057e-06 0)
(0.114865 3.84426e-06 0)
(0.114864 4.11847e-06 0)
(0.114862 4.31524e-06 0)
(0.114861 4.42275e-06 0)
(0.114859 4.43241e-06 0)
(0.114858 4.3391e-06 0)
(0.114856 4.13997e-06 0)
(0.114855 3.83403e-06 0)
(0.114853 3.42351e-06 0)
(0.114852 2.91518e-06 0)
(0.114851 2.31965e-06 0)
(0.114851 1.65009e-06 0)
(0.11485 9.22354e-07 0)
(0.11485 1.56087e-07 0)
(0.11485 -6.2578e-07 0)
(0.114851 -1.39928e-06 0)
(0.114851 -2.1413e-06 0)
(0.114852 -2.82994e-06 0)
(0.114853 -3.44437e-06 0)
(0.114854 -3.96523e-06 0)
(0.114856 -4.37613e-06 0)
(0.114857 -4.66511e-06 0)
(0.114859 -4.82499e-06 0)
(0.114861 -4.85334e-06 0)
(0.114862 -4.75272e-06 0)
(0.114864 -4.5311e-06 0)
(0.114866 -4.20087e-06 0)
(0.114867 -3.77751e-06 0)
(0.114868 -3.27905e-06 0)
(0.114869 -2.72637e-06 0)
(0.11487 -2.14205e-06 0)
(0.114871 -1.54804e-06 0)
(0.114871 -9.6419e-07 0)
(0.114871 -4.08104e-07 0)
(0.114872 1.05327e-07 0)
(0.114871 5.65079e-07 0)
(0.114871 9.64635e-07 0)
(0.114871 1.30164e-06 0)
(0.11487 1.57742e-06 0)
(0.11487 1.79666e-06 0)
(0.114869 1.96676e-06 0)
(0.114868 2.09711e-06 0)
(0.114868 2.19844e-06 0)
(0.114867 2.28177e-06 0)
(0.114866 2.35676e-06 0)
(0.114865 2.43023e-06 0)
(0.114864 2.50549e-06 0)
(0.114863 2.58268e-06 0)
(0.114862 2.65953e-06 0)
(0.114861 2.73159e-06 0)
(0.11486 2.79139e-06 0)
(0.114859 2.82773e-06 0)
(0.114858 2.82741e-06 0)
(0.114857 2.77846e-06 0)
(0.114857 2.67116e-06 0)
(0.114856 2.49655e-06 0)
(0.114855 2.24638e-06 0)
(0.114854 1.91596e-06 0)
(0.114854 1.50598e-06 0)
(0.114853 1.02111e-06 0)
(0.114853 4.69075e-07 0)
(0.114853 -1.37747e-07 0)
(0.114853 -7.81475e-07 0)
(0.114853 -1.44118e-06 0)
(0.114854 -2.09552e-06 0)
(0.114855 -2.7228e-06 0)
(0.114856 -3.30055e-06 0)
(0.114857 -3.80694e-06 0)
(0.114858 -4.2227e-06 0)
(0.11486 -4.53164e-06 0)
(0.114862 -4.72109e-06 0)
(0.114863 -4.783e-06 0)
(0.114865 -4.71413e-06 0)
(0.114866 -4.51527e-06 0)
(0.114868 -4.19137e-06 0)
(0.114869 -3.7526e-06 0)
(0.114871 -3.2141e-06 0)
(0.114872 -2.59395e-06 0)
(0.114872 -1.91185e-06 0)
(0.114873 -1.18927e-06 0)
(0.114873 -4.48808e-07 0)
(0.114873 2.87204e-07 0)
(0.114873 9.97694e-07 0)
(0.114873 1.66322e-06 0)
(0.114872 2.26674e-06 0)
(0.114871 2.79404e-06 0)
(0.11487 3.23304e-06 0)
(0.114869 3.57404e-06 0)
(0.114868 3.81134e-06 0)
(0.114866 3.94355e-06 0)
(0.114865 3.97156e-06 0)
(0.114864 3.89815e-06 0)
(0.114862 3.73024e-06 0)
(0.114861 3.47922e-06 0)
(0.11486 3.15721e-06 0)
(0.114859 2.77493e-06 0)
(0.114858 2.34375e-06 0)
(0.114857 1.87726e-06 0)
(0.114857 1.38924e-06 0)
(0.114856 8.92377e-07 0)
(0.114856 3.99891e-07 0)
(0.114856 -7.43843e-08 0)
(0.114856 -5.19158e-07 0)
(0.114856 -9.26757e-07 0)
(0.114857 -1.29042e-06 0)
(0.114857 -1.60333e-06 0)
(0.114858 -1.86079e-06 0)
(0.114858 -2.06044e-06 0)
(0.114859 -2.19984e-06 0)
(0.11486 -2.27776e-06 0)
(0.114861 -2.29805e-06 0)
(0.114861 -2.2675e-06 0)
(0.114862 -2.18981e-06 0)
(0.114863 -2.06711e-06 0)
(0.114864 -1.90583e-06 0)
(0.114864 -1.71438e-06 0)
(0.114865 -1.49828e-06 0)
(0.114865 -1.2627e-06 0)
(0.114866 -1.01409e-06 0)
(0.114866 -7.56727e-07 0)
(0.114866 -4.92212e-07 0)
(0.114866 -2.21431e-07 0)
(0.114866 5.47611e-08 0)
(0.114866 3.3571e-07 0)
(0.114866 6.22731e-07 0)
(0.114866 9.18717e-07 0)
(0.114865 1.22566e-06 0)
(0.114865 1.54778e-06 0)
(0.114864 1.89262e-06 0)
(0.114864 2.26366e-06 0)
(0.114863 2.66019e-06 0)
(0.114862 3.08508e-06 0)
(0.11486 3.54252e-06 0)
(0.114859 4.03387e-06 0)
(0.114858 4.55831e-06 0)
(0.114856 5.11086e-06 0)
(0.114854 5.68376e-06 0)
(0.114852 6.26247e-06 0)
(0.11485 6.81115e-06 0)
(0.114848 7.27722e-06 0)
(0.114846 7.58967e-06 0)
(0.130766 1.78056e-05 0)
(0.130762 1.73203e-05 0)
(0.130758 1.6566e-05 0)
(0.130755 1.55901e-05 0)
(0.130751 1.4479e-05 0)
(0.130748 1.32935e-05 0)
(0.130745 1.20885e-05 0)
(0.130742 1.08807e-05 0)
(0.130739 9.70142e-06 0)
(0.130737 8.5588e-06 0)
(0.130735 7.46357e-06 0)
(0.130733 6.42973e-06 0)
(0.130731 5.45976e-06 0)
(0.13073 4.55859e-06 0)
(0.130729 3.72848e-06 0)
(0.130728 2.96678e-06 0)
(0.130727 2.27303e-06 0)
(0.130727 1.64273e-06 0)
(0.130726 1.06722e-06 0)
(0.130726 5.47633e-07 0)
(0.130726 7.85725e-08 0)
(0.130726 -3.51599e-07 0)
(0.130726 -7.48331e-07 0)
(0.130726 -1.11669e-06 0)
(0.130726 -1.46022e-06 0)
(0.130727 -1.77922e-06 0)
(0.130727 -2.07846e-06 0)
(0.130728 -2.36239e-06 0)
(0.130728 -2.62867e-06 0)
(0.130729 -2.87369e-06 0)
(0.13073 -3.09706e-06 0)
(0.130731 -3.30021e-06 0)
(0.130732 -3.48268e-06 0)
(0.130732 -3.63959e-06 0)
(0.130733 -3.76593e-06 0)
(0.130734 -3.86069e-06 0)
(0.130735 -3.92355e-06 0)
(0.130736 -3.9518e-06 0)
(0.130737 -3.94189e-06 0)
(0.130738 -3.89061e-06 0)
(0.130739 -3.79544e-06 0)
(0.13074 -3.65488e-06 0)
(0.130741 -3.46753e-06 0)
(0.130742 -3.23158e-06 0)
(0.130743 -2.94498e-06 0)
(0.130743 -2.60591e-06 0)
(0.130744 -2.21419e-06 0)
(0.130745 -1.77178e-06 0)
(0.130745 -1.2814e-06 0)
(0.130745 -7.46282e-07 0)
(0.130745 -1.71181e-07 0)
(0.130745 4.37669e-07 0)
(0.130745 1.07266e-06 0)
(0.130745 1.72404e-06 0)
(0.130744 2.37938e-06 0)
(0.130743 3.02434e-06 0)
(0.130743 3.64425e-06 0)
(0.130742 4.22469e-06 0)
(0.13074 4.7504e-06 0)
(0.130739 5.20462e-06 0)
(0.130738 5.5702e-06 0)
(0.130736 5.83088e-06 0)
(0.130735 5.97223e-06 0)
(0.130733 5.98266e-06 0)
(0.130732 5.85427e-06 0)
(0.13073 5.583e-06 0)
(0.130729 5.16829e-06 0)
(0.130728 4.61357e-06 0)
(0.130727 3.92738e-06 0)
(0.130726 3.12376e-06 0)
(0.130725 2.2212e-06 0)
(0.130725 1.24184e-06 0)
(0.130725 2.11642e-07 0)
(0.130725 -8.39775e-07 0)
(0.130725 -1.88079e-06 0)
(0.130726 -2.87996e-06 0)
(0.130726 -3.80729e-06 0)
(0.130728 -4.63454e-06 0)
(0.130729 -5.33586e-06 0)
(0.13073 -5.88936e-06 0)
(0.130732 -6.27903e-06 0)
(0.130733 -6.49563e-06 0)
(0.130735 -6.53635e-06 0)
(0.130737 -6.40441e-06 0)
(0.130738 -6.10967e-06 0)
(0.13074 -5.66879e-06 0)
(0.130741 -5.1035e-06 0)
(0.130742 -4.43843e-06 0)
(0.130743 -3.70036e-06 0)
(0.130744 -2.91796e-06 0)
(0.130745 -2.12042e-06 0)
(0.130745 -1.33499e-06 0)
(0.130745 -5.85407e-07 0)
(0.130745 1.08893e-07 0)
(0.130745 7.33395e-07 0)
(0.130745 1.27901e-06 0)
(0.130745 1.74188e-06 0)
(0.130744 2.12303e-06 0)
(0.130744 2.4282e-06 0)
(0.130743 2.66729e-06 0)
(0.130742 2.85295e-06 0)
(0.130742 2.99894e-06 0)
(0.130741 3.11872e-06 0)
(0.13074 3.2242e-06 0)
(0.130739 3.3245e-06 0)
(0.130738 3.42497e-06 0)
(0.130737 3.52664e-06 0)
(0.130736 3.62622e-06 0)
(0.130735 3.717e-06 0)
(0.130735 3.78941e-06 0)
(0.130734 3.83032e-06 0)
(0.130733 3.82308e-06 0)
(0.130732 3.75031e-06 0)
(0.130731 3.59756e-06 0)
(0.13073 3.3539e-06 0)
(0.130729 3.01058e-06 0)
(0.130728 2.56168e-06 0)
(0.130728 2.00686e-06 0)
(0.130727 1.35244e-06 0)
(0.130727 6.09986e-07 0)