/*--------------------------------*- C++ -*----------------------------------*\
| =========                 |                                                 |
| \\      /  F ield         | OpenFOAM: The Open Source CFD Toolbox           |
|  \\    /   O peration     | Version:  2406                                  |
|   \\  /    A nd           | Website:  www.openfoam.com                      |
|    \\/     M anipulation  |                                                 |
\*---------------------------------------------------------------------------*/
FoamFile
{
    version     2.0;
    format      ascii;
    arch        "LSB;label=32;scalar=64";
    class       surfaceScalarField;
    location    "1.75";
    object      alphaPhi0.air;
}
// * * * * * * * * * * * * * * * * * * * * * * * * * * * * * * * * * * * * * //

dimensions      [0 3 -1 0 0 0 0];

oriented        oriented;

internalField   nonuniform List<scalar> 
12225
(
0.511089
1.77424e-06
0.511082
6.70373e-06
0.511074
7.90257e-06
0.511069
5.44925e-06
0.511064
4.52746e-06
0.511059
5.16306e-06
0.511053
5.47086e-06
0.511049
4.87191e-06
0.511044
4.46563e-06
0.511039
4.83648e-06
0.511034
5.37087e-06
0.511028
5.58219e-06
0.511023
5.3685e-06
0.511018
5.10367e-06
0.511013
5.19012e-06
0.511007
5.28304e-06
0.511002
5.34425e-06
0.510996
5.70388e-06
0.51099
5.91204e-06
0.510985
5.87926e-06
0.510979
5.66867e-06
0.510974
5.19596e-06
0.510968
5.16276e-06
0.510963
5.56867e-06
0.510957
5.60698e-06
0.510952
5.35697e-06
0.510947
5.2445e-06
0.510941
5.37707e-06
0.510936
5.50132e-06
0.51093
5.39413e-06
0.510925
5.1936e-06
0.51092
5.09282e-06
0.510915
4.98652e-06
0.51091
4.99014e-06
0.510905
5.28074e-06
0.510899
5.54669e-06
0.510894
5.75217e-06
0.510888
5.94568e-06
0.510882
5.69712e-06
0.510877
5.17251e-06
0.510872
4.89938e-06
0.510867
4.91182e-06
0.510862
5.31794e-06
0.510856
5.92463e-06
0.510849
6.2719e-06
0.510843
6.26836e-06
0.510837
5.77872e-06
0.510832
5.13968e-06
0.510827
4.92392e-06
0.510822
4.93219e-06
0.510817
5.14001e-06
0.510812
5.48898e-06
0.510806
5.60806e-06
0.510801
5.55933e-06
0.510795
5.34387e-06
0.51079
5.13384e-06
0.510785
5.26434e-06
0.51078
5.31596e-06
0.510774
5.09169e-06
0.510769
4.97294e-06
0.510764
5.16972e-06
0.510759
5.58691e-06
0.510753
5.721e-06
0.510748
5.42882e-06
0.510742
5.28102e-06
0.510737
5.24705e-06
0.510732
5.26015e-06
0.510726
5.48737e-06
0.510721
5.54055e-06
0.510715
5.5053e-06
0.51071
5.73219e-06
0.510704
5.99954e-06
0.510697
6.22832e-06
0.510691
6.20405e-06
0.510685
5.68411e-06
0.51068
5.17669e-06
0.510675
5.07599e-06
0.51067
5.26222e-06
0.510664
5.54653e-06
0.510659
5.64007e-06
0.510653
5.50614e-06
0.510648
5.3727e-06
0.510643
5.19225e-06
0.510638
5.01068e-06
0.510632
5.14995e-06
0.510627
5.54721e-06
0.510621
5.81584e-06
0.510615
5.88303e-06
0.510609
5.87073e-06
0.510604
5.69157e-06
0.510598
5.55974e-06
0.510592
5.69376e-06
0.510587
5.63614e-06
0.510581
5.37359e-06
0.510576
5.34933e-06
0.510571
5.42869e-06
0.510565
5.37112e-06
0.51056
5.06978e-06
0.510555
4.86856e-06
0.51055
5.18488e-06
0.510545
5.48976e-06
0.510539
5.612e-06
0.510533
5.88441e-06
0.510527
5.92087e-06
0.510522
5.70514e-06
0.510516
5.6366e-06
0.51051
5.54316e-06
0.510505
5.36488e-06
0.5105
5.17533e-06
0.510495
5.03932e-06
0.51049
5.2219e-06
0.510484
5.45638e-06
0.510479
5.42968e-06
0.510473
5.36652e-06
0.510468
5.30638e-06
0.510463
5.36532e-06
0.510457
5.64921e-06
0.510451
5.78143e-06
0.510445
5.79715e-06
0.510439
5.92462e-06
0.510434
5.87887e-06
0.510428
5.5915e-06
0.510423
5.28103e-06
0.510418
5.12519e-06
0.510412
5.19e-06
0.510407
5.26826e-06
0.510402
5.32143e-06
0.510396
5.47605e-06
0.510391
5.61118e-06
0.510385
5.69321e-06
0.510379
5.65497e-06
0.510374
5.35518e-06
0.510369
5.10471e-06
0.510364
5.05164e-06
0.510359
5.10289e-06
0.510353
5.34814e-06
0.510348
5.56709e-06
0.510342
5.58271e-06
0.510337
5.54474e-06
0.510331
5.4387e-06
0.510326
5.26313e-06
0.510321
5.10158e-06
0.510316
5.0112e-06
0.510311
5.14977e-06
0.510305
5.50902e-06
0.510299
5.83644e-06
0.510293
5.90877e-06
0.510288
5.675e-06
0.510282
5.38914e-06
0.510277
5.28151e-06
0.510272
5.26778e-06
0.510266
5.38232e-06
0.510261
5.66709e-06
0.510255
5.88316e-06
0.510249
5.91854e-06
0.510243
5.78554e-06
0.510238
5.47905e-06
0.510233
5.14676e-06
0.510228
4.98331e-06
0.510222
5.16098e-06
0.510217
5.62815e-06
0.510211
6.03662e-06
0.510205
6.18112e-06
0.510199
6.08523e-06
0.510193
5.78448e-06
0.510187
5.40211e-06
0.510182
5.27571e-06
0.510176
5.57126e-06
0.510171
5.92817e-06
0.510165
6.02743e-06
0.510159
5.93605e-06
0.510153
5.66657e-06
0.510148
5.31551e-06
0.510142
5.24294e-06
0.510137
5.39235e-06
0.510132
5.36001e-06
0.510126
5.22388e-06
0.510121
5.25196e-06
0.510116
5.37177e-06
0.51011
5.46396e-06
0.510105
5.53166e-06
0.510099
5.52872e-06
0.510094
5.36007e-06
0.510089
4.99368e-06
0.510084
4.71972e-06
0.510079
5.00021e-06
0.510074
5.58479e-06
0.510068
5.8567e-06
0.510062
5.86569e-06
0.510056
5.68391e-06
0.510051
5.19907e-06
0.510046
4.87033e-06
0.510041
5.02308e-06
0.510036
5.31762e-06
0.51003
5.4801e-06
0.510025
5.49866e-06
0.510019
5.46902e-06
0.510014
5.37787e-06
0.510009
5.15758e-06
0.510004
5.02825e-06
0.509999
5.13387e-06
0.509993
5.33621e-06
0.509988
5.62858e-06
0.509982
6.02028e-06
0.509975
6.20956e-06
0.509969
6.00481e-06
0.509964
5.63649e-06
0.509958
5.32301e-06
0.509953
5.07498e-06
0.509948
5.03043e-06
0.509943
5.3594e-06
0.509937
5.77349e-06
0.509931
5.761e-06
0.509926
5.34955e-06
0.509921
5.05841e-06
0.509916
5.16334e-06
0.50991
5.49029e-06
0.509905
5.71704e-06
0.509899
5.71599e-06
0.509893
5.64236e-06
0.509888
5.67246e-06
0.509882
5.67633e-06
0.509877
5.44619e-06
0.509871
5.15803e-06
0.509866
5.01851e-06
0.509861
4.96492e-06
0.509856
5.00886e-06
0.509851
5.17405e-06
0.509846
5.41841e-06
0.50984
5.75652e-06
0.509834
6.01897e-06
0.509828
5.87435e-06
0.509823
5.31166e-06
0.509818
4.7382e-06
0.509813
4.6237e-06
0.509808
5.0198e-06
0.509803
5.42532e-06
0.509798
5.46994e-06
0.509792
5.34577e-06
0.509787
5.28493e-06
0.509782
5.23537e-06
0.509777
5.12956e-06
0.509771
5.08532e-06
0.509766
5.25222e-06
0.509761
5.60331e-06
0.509755
6.00531e-06
0.509748
6.19057e-06
0.509743
5.91211e-06
0.509737
5.94797e-06
5.24391e-06
0.511094
1.29423e-07
0.5111
7.14505e-07
0.511106
1.48782e-06
0.51111
1.93342e-06
0.511112
2.1629e-06
0.511115
2.18251e-06
0.511118
2.41064e-06
0.51112
2.61879e-06
0.511122
2.42595e-06
0.511125
2.06053e-06
0.511129
1.71257e-06
0.511133
1.56472e-06
0.511136
2.09691e-06
0.511139
2.59653e-06
0.511141
2.43055e-06
0.511144
2.23585e-06
0.511147
2.35568e-06
0.511151
2.53834e-06
0.511154
2.63914e-06
0.511157
2.63451e-06
0.51116
2.62678e-06
0.511163
2.68088e-06
0.511165
2.72403e-06
0.511168
2.88456e-06
0.51117
3.08595e-06
0.511173
2.92723e-06
0.511176
2.52638e-06
0.511179
2.30088e-06
0.511182
2.20035e-06
0.511185
1.92959e-06
0.511189
1.9617e-06
0.511191
2.49925e-06
0.511193
2.8234e-06
0.511195
2.88208e-06
0.511198
2.94417e-06
0.511201
2.55881e-06
0.511205
1.98432e-06
0.511209
1.9707e-06
0.511212
2.50017e-06
0.511214
3.08017e-06
0.511215
3.48505e-06
0.511217
3.50333e-06
0.511219
2.90526e-06
0.511223
2.19213e-06
0.511227
1.99191e-06
0.511231
2.02739e-06
0.511235
2.21685e-06
0.511237
2.67556e-06
0.511239
2.93957e-06
0.511241
2.81398e-06
0.511244
2.53652e-06
0.511247
2.35607e-06
0.511251
2.19903e-06
0.511254
1.91796e-06
0.511257
2.12321e-06
0.51126
2.85979e-06
0.511262
3.00977e-06
0.511265
2.58861e-06
0.511267
2.4384e-06
0.51127
2.30215e-06
0.511273
1.94598e-06
0.511277
1.82795e-06
0.511281
2.1075e-06
0.511284
2.40905e-06
0.511286
2.52296e-06
0.511289
2.68505e-06
0.511291
2.82503e-06
0.511294
2.72207e-06
0.511297
2.65619e-06
0.5113
2.7169e-06
0.511303
2.51092e-06
0.511307
2.16133e-06
0.511311
2.10682e-06
0.511315
2.33651e-06
0.511318
2.58593e-06
0.51132
2.65935e-06
0.511323
2.55992e-06
0.511326
2.4065e-06
0.511329
2.11621e-06
0.511333
1.82337e-06
0.511337
1.85591e-06
0.51134
2.06711e-06
0.511343
2.32183e-06
0.511345
2.51164e-06
0.511348
2.50866e-06
0.511351
2.49726e-06
0.511354
2.47025e-06
0.511358
2.41956e-06
0.511361
2.50731e-06
0.511364
2.64025e-06
0.511367
2.6344e-06
0.51137
2.54682e-06
0.511373
2.58345e-06
0.511376
2.72513e-06
0.511379
2.69754e-06
0.511382
2.47788e-06
0.511385
2.26914e-06
0.511388
2.30328e-06
0.51139
2.6961e-06
0.511392
3.06044e-06
0.511394
3.0637e-06
0.511397
2.91549e-06
0.5114
2.68351e-06
0.511404
2.3695e-06
0.511407
2.16427e-06
0.511411
2.12229e-06
0.511414
2.28071e-06
0.511417
2.45962e-06
0.51142
2.41024e-06
0.511422
2.29343e-06
0.511425
2.27888e-06
0.511428
2.39934e-06
0.511431
2.60941e-06
0.511434
2.7529e-06
0.511436
2.73565e-06
0.511439
2.52479e-06
0.511443
2.2319e-06
0.511446
2.14764e-06
0.51145
2.25351e-06
0.511454
2.31633e-06
0.511457
2.46359e-06
0.51146
2.71278e-06
0.511462
2.83745e-06
0.511464
2.90394e-06
0.511467
2.96041e-06
0.511469
2.8679e-06
0.511472
2.67078e-06
0.511475
2.4896e-06
0.511478
2.34642e-06
0.511482
2.19006e-06
0.511485
2.12003e-06
0.511488
2.27814e-06
0.511491
2.54406e-06
0.511493
2.76528e-06
0.511495
2.77265e-06
0.511498
2.52076e-06
0.511501
2.3502e-06
0.511505
2.39048e-06
0.511508
2.39243e-06
0.511511
2.39599e-06
0.511514
2.46779e-06
0.511516
2.44815e-06
0.511519
2.35127e-06
0.511522
2.20271e-06
0.511525
2.0052e-06
0.511529
1.95456e-06
0.511533
2.19632e-06
0.511536
2.68553e-06
0.511538
3.10269e-06
0.51154
3.13139e-06
0.511543
2.8363e-06
0.511546
2.4284e-06
0.511549
2.1726e-06
0.511553
2.19351e-06
0.511556
2.37021e-06
0.511559
2.77175e-06
0.511562
3.28788e-06
0.511563
3.42542e-06
0.511565
3.09565e-06
0.511568
2.64184e-06
0.511571
2.27988e-06
0.511575
2.07238e-06
0.511579
2.13512e-06
0.511583
2.42951e-06
0.511586
2.72193e-06
0.511588
2.91899e-06
0.511591
2.96044e-06
0.511593
2.94446e-06
0.511596
3.00094e-06
0.511599
3.00033e-06
0.511602
2.95504e-06
0.511605
2.94375e-06
0.511608
2.74527e-06
0.51161
2.37885e-06
0.511613
2.2692e-06
0.511616
2.41787e-06
0.511619
2.46033e-06
0.511622
2.36296e-06
0.511625
2.30623e-06
0.511628
2.25806e-06
0.511632
2.2414e-06
0.511635
2.51595e-06
0.511637
2.96437e-06
0.511639
3.03765e-06
0.511641
2.60423e-06
0.511644
2.0896e-06
0.511648
1.84759e-06
0.511652
1.95051e-06
0.511655
2.29087e-06
0.511658
2.74735e-06
0.51166
3.08095e-06
0.511662
3.06058e-06
0.511664
2.82128e-06
0.511667
2.57927e-06
0.51167
2.3124e-06
0.511674
2.07137e-06
0.511677
2.11576e-06
0.51168
2.46887e-06
0.511682
2.76054e-06
0.511685
2.73808e-06
0.511687
2.51883e-06
0.51169
2.22782e-06
0.511694
1.92823e-06
0.511698
1.80052e-06
0.511702
1.97749e-06
0.511706
2.33709e-06
0.511709
2.68985e-06
0.511712
2.91307e-06
0.511714
2.8621e-06
0.511716
2.55525e-06
0.511719
2.22517e-06
0.511723
2.06854e-06
0.511727
2.18501e-06
0.51173
2.35717e-06
0.511732
2.31262e-06
0.511735
2.20382e-06
0.511739
2.25539e-06
0.511742
2.37224e-06
0.511745
2.4847e-06
0.511748
2.57084e-06
0.511751
2.59609e-06
0.511754
2.65802e-06
0.511757
2.7639e-06
0.511759
2.73751e-06
0.511762
2.60215e-06
0.511764
2.48886e-06
0.511767
2.38342e-06
0.51177
2.33366e-06
0.511773
2.39132e-06
0.511776
2.44293e-06
0.51178
2.55565e-06
0.511783
2.85163e-06
0.511785
3.05478e-06
0.511787
2.85615e-06
0.511789
2.39723e-06
0.511792
2.13729e-06
0.511795
2.31106e-06
0.511798
2.57244e-06
0.511801
2.55719e-06
0.511803
2.50065e-06
0.511806
2.6537e-06
0.511808
2.86235e-06
0.51181
2.89183e-06
0.511813
2.64457e-06
0.511816
2.31384e-06
0.51182
2.1964e-06
0.511824
2.32985e-06
0.511827
2.48578e-06
0.511831
2.49246e-06
2.57743e-06
0.511093
1.85268e-07
0.511093
7.62676e-07
0.511093
1.33692e-06
0.511093
1.82303e-06
0.511094
1.77891e-06
0.511094
1.61589e-06
0.511095
1.76734e-06
0.511095
1.96684e-06
0.511096
2.15608e-06
0.511095
2.37003e-06
0.511095
2.24903e-06
0.511095
1.82781e-06
0.511095
1.63642e-06
0.511096
1.7184e-06
0.511097
1.82199e-06
0.511097
2.14587e-06
0.511097
2.53005e-06
0.511097
2.41593e-06
0.511097
2.07336e-06
0.511098
2.17305e-06
0.511098
2.36621e-06
0.511098
2.10125e-06
0.511099
1.97766e-06
0.5111
2.16944e-06
0.511101
2.2813e-06
0.511101
2.64872e-06
0.511101
2.91645e-06
0.5111
2.58427e-06
0.5111
2.14485e-06
0.511101
1.69014e-06
0.511101
1.53483e-06
0.511102
2.04825e-06
0.511102
2.54354e-06
0.511102
2.76221e-06
0.511102
2.725e-06
0.511102
2.30416e-06
0.511102
2.11555e-06
0.511102
2.23952e-06
0.511102
2.26839e-06
0.511103
2.31689e-06
0.511104
2.35986e-06
0.511105
2.7137e-06
0.511105
3.27809e-06
0.511104
3.13148e-06
0.511103
2.42629e-06
0.511103
1.85502e-06
0.511104
1.67868e-06
0.511104
2.08667e-06
0.511105
2.50526e-06
0.511105
2.39408e-06
0.511106
2.24074e-06
0.511106
2.24685e-06
0.511106
2.20921e-06
0.511106
2.09367e-06
0.511106
1.87571e-06
0.511107
1.94224e-06
0.511107
2.33574e-06
0.511108
2.23792e-06
0.511108
1.86013e-06
0.511109
1.98889e-06
0.511108
2.26089e-06
0.511108
2.18646e-06
0.511108
2.04001e-06
0.511108
2.12944e-06
0.511109
2.27973e-06
0.511109
2.26299e-06
0.51111
2.26374e-06
0.51111
2.35365e-06
0.51111
2.23892e-06
0.511111
2.12801e-06
0.511111
2.37595e-06
0.511111
2.56086e-06
0.51111
2.39292e-06
0.511111
2.09504e-06
0.511111
1.89547e-06
0.511112
2.03565e-06
0.511112
2.23932e-06
0.511112
2.16653e-06
0.511113
1.95471e-06
0.511113
1.59552e-06
0.511113
1.36621e-06
0.511114
1.5722e-06
0.511114
1.85199e-06
0.511115
2.0013e-06
0.511115
2.16167e-06
0.511115
2.39125e-06
0.511115
2.50932e-06
0.511115
2.20372e-06
0.511116
1.86837e-06
0.511117
2.09516e-06
0.511117
2.43427e-06
0.511117
2.50668e-06
0.511117
2.60984e-06
0.511117
2.70536e-06
0.511117
2.5281e-06
0.511117
2.0913e-06
0.511118
1.9028e-06
0.511118
2.14192e-06
0.511118
2.31e-06
0.511119
2.4827e-06
0.511119
2.74491e-06
0.511119
2.69937e-06
0.51112
2.53712e-06
0.51112
2.36868e-06
0.51112
2.14471e-06
0.51112
2.1449e-06
0.51112
2.24397e-06
0.51112
2.19329e-06
0.51112
2.03808e-06
0.511121
1.88045e-06
0.511121
1.96247e-06
0.511121
2.23276e-06
0.511121
2.33093e-06
0.511122
2.36161e-06
0.511122
2.528e-06
0.511122
2.57819e-06
0.511122
2.45768e-06
0.511122
2.40104e-06
0.511121
2.37563e-06
0.511121
2.30433e-06
0.511122
2.29616e-06
0.511122
2.30668e-06
0.511123
2.24884e-06
0.511123
2.2631e-06
0.511124
2.31172e-06
0.511124
2.32708e-06
0.511125
2.49246e-06
0.511124
2.63183e-06
0.511124
2.53844e-06
0.511124
2.37103e-06
0.511124
2.0957e-06
0.511125
1.84276e-06
0.511125
1.91178e-06
0.511126
2.11321e-06
0.511126
2.24092e-06
0.511127
2.27747e-06
0.511127
2.12827e-06
0.511127
1.93412e-06
0.511128
1.81999e-06
0.511128
1.77341e-06
0.511129
1.8899e-06
0.511129
2.01888e-06
0.51113
2.0195e-06
0.51113
2.08139e-06
0.51113
2.16347e-06
0.511129
2.21597e-06
0.511129
2.28426e-06
0.51113
2.29758e-06
0.51113
2.42833e-06
0.511131
2.6134e-06
0.511131
2.58815e-06
0.511131
2.53244e-06
0.511131
2.47377e-06
0.511131
2.3396e-06
0.511131
2.37369e-06
0.511131
2.48538e-06
0.511132
2.48855e-06
0.511133
2.52051e-06
0.511133
2.47542e-06
0.511134
2.36028e-06
0.511133
2.48867e-06
0.511133
2.64749e-06
0.511132
2.53645e-06
0.511132
2.41073e-06
0.511133
2.42581e-06
0.511133
2.56845e-06
0.511133
2.78012e-06
0.511133
2.95728e-06
0.511133
3.08607e-06
0.511133
3.03485e-06
0.511133
2.74176e-06
0.511134
2.47467e-06
0.511134
2.34844e-06
0.511134
2.20695e-06
0.511134
2.11601e-06
0.511135
2.21243e-06
0.511135
2.32345e-06
0.511135
2.248e-06
0.511135
2.06617e-06
0.511135
1.97298e-06
0.511136
1.87852e-06
0.511137
1.6276e-06
0.511138
1.60765e-06
0.511139
2.04171e-06
0.511139
2.37567e-06
0.511139
2.38236e-06
0.511139
2.32013e-06
0.511138
2.21445e-06
0.511138
2.12189e-06
0.511139
2.19672e-06
0.51114
2.35392e-06
0.51114
2.46147e-06
0.511141
2.42525e-06
0.511141
2.29337e-06
0.511141
2.26586e-06
0.511141
2.19028e-06
0.511141
1.95432e-06
0.511142
1.96457e-06
0.511142
2.22832e-06
0.511143
2.27951e-06
0.511143
2.18126e-06
0.511143
2.20813e-06
0.511143
2.20038e-06
0.511142
2.03105e-06
0.511143
1.92271e-06
0.511143
1.92313e-06
0.511144
1.86517e-06
0.511145
1.92937e-06
0.511145
2.32526e-06
0.511145
2.7049e-06
0.511145
2.68313e-06
0.511144
2.24453e-06
0.511145
1.68462e-06
0.511146
1.41232e-06
0.511147
1.53441e-06
0.511147
1.8465e-06
0.511147
2.15275e-06
0.511147
2.37896e-06
0.511147
2.5549e-06
0.511147
2.68504e-06
0.511147
2.69499e-06
0.511147
2.60061e-06
0.511147
2.49942e-06
0.511148
2.39402e-06
0.511148
2.25062e-06
0.511148
2.16442e-06
0.511148
2.26906e-06
0.511148
2.57305e-06
0.511148
2.88491e-06
0.511147
2.83639e-06
0.511147
2.33588e-06
0.511148
1.87179e-06
0.51115
1.88931e-06
0.51115
2.17705e-06
0.51115
2.3023e-06
0.51115
2.23005e-06
0.51115
2.13699e-06
0.511151
2.09014e-06
0.511151
2.01845e-06
0.511152
1.93315e-06
0.511153
2.04219e-06
0.511153
2.4135e-06
0.511153
2.79936e-06
0.511153
2.96617e-06
0.511152
2.80173e-06
0.511152
2.39854e-06
0.511152
2.08788e-06
0.511153
1.97062e-06
0.511153
1.9375e-06
2.00621e-06
0.511094
5.76231e-08
0.511094
5.9265e-07
0.511094
9.82448e-07
0.511095
1.22236e-06
0.511096
1.31387e-06
0.511096
1.36752e-06
0.511096
1.18556e-06
0.511097
1.25986e-06
0.511097
1.82319e-06
0.511098
1.98837e-06
0.511098
1.8598e-06
0.511098
1.87024e-06
0.511098
1.84118e-06
0.511098
1.86976e-06
0.511098
1.89282e-06
0.511098
1.79377e-06
0.511099
1.8012e-06
0.511099
2.13316e-06
0.511099
2.48561e-06
0.511099
2.3315e-06
0.511099
1.98972e-06
0.511099
2.1385e-06
0.511099
2.23709e-06
0.511099
2.10807e-06
0.511099
2.20533e-06
0.511099
2.16362e-06
0.5111
1.77484e-06
0.511101
1.59e-06
0.511101
1.99051e-06
0.511101
2.5092e-06
0.5111
2.44727e-06
0.5111
2.11199e-06
0.5111
2.13853e-06
0.511101
2.18299e-06
0.511101
1.98631e-06
0.511102
1.95377e-06
0.511102
1.99075e-06
0.511102
1.97631e-06
0.511102
2.08304e-06
0.511102
2.19299e-06
0.511103
2.11965e-06
0.511103
2.03993e-06
0.511104
2.22452e-06
0.511105
2.58759e-06
0.511105
2.61037e-06
0.511104
2.26517e-06
0.511104
2.08543e-06
0.511104
2.00472e-06
0.511105
1.95481e-06
0.511105
2.22905e-06
0.511105
2.20347e-06
0.511105
1.68346e-06
0.511106
1.48312e-06
0.511106
1.73461e-06
0.511106
2.15793e-06
0.511106
2.36619e-06
0.511106
2.08402e-06
0.511107
1.70116e-06
0.511107
1.41411e-06
0.511108
1.3693e-06
0.511108
1.7648e-06
0.511108
2.06179e-06
0.511108
2.08749e-06
0.511108
2.21827e-06
0.511108
2.18446e-06
0.511109
1.94488e-06
0.511109
1.76341e-06
0.51111
1.6512e-06
0.51111
1.81839e-06
0.51111
1.96492e-06
0.511111
1.84118e-06
0.511111
1.9469e-06
0.511112
2.07866e-06
0.511112
1.85334e-06
0.511112
1.72867e-06
0.511112
1.82227e-06
0.511113
1.72441e-06
0.511114
1.4709e-06
0.511114
1.39016e-06
0.511114
1.49977e-06
0.511114
1.49506e-06
0.511114
1.35486e-06
0.511115
1.40806e-06
0.511115
1.60243e-06
0.511116
1.8343e-06
0.511116
2.13412e-06
0.511116
2.17405e-06
0.511116
2.01375e-06
0.511116
1.91954e-06
0.511116
1.836e-06
0.511117
1.93458e-06
0.511117
2.17428e-06
0.511118
2.35284e-06
0.511118
2.50131e-06
0.511118
2.48641e-06
0.511118
2.25935e-06
0.511118
2.0558e-06
0.511118
2.04767e-06
0.511118
2.20309e-06
0.511118
2.30056e-06
0.511118
2.35545e-06
0.511119
2.40894e-06
0.511119
2.24402e-06
0.511119
2.04631e-06
0.511119
1.99925e-06
0.51112
1.8342e-06
0.51112
1.68604e-06
0.511121
1.70481e-06
0.511121
1.6728e-06
0.511121
1.69689e-06
0.511121
1.82265e-06
0.511122
1.9578e-06
0.511122
2.13043e-06
0.511122
2.12504e-06
0.511123
2.02945e-06
0.511123
2.03538e-06
0.511124
1.98525e-06
0.511124
2.09479e-06
0.511124
2.41377e-06
0.511124
2.50847e-06
0.511124
2.41776e-06
0.511123
2.37639e-06
0.511123
2.35001e-06
0.511123
2.30138e-06
0.511123
2.17898e-06
0.511124
2.02233e-06
0.511124
1.97491e-06
0.511125
2.09136e-06
0.511125
2.30824e-06
0.511125
2.41027e-06
0.511125
2.34799e-06
0.511124
2.20749e-06
0.511124
1.93185e-06
0.511125
1.71282e-06
0.511125
1.71672e-06
0.511126
1.78388e-06
0.511126
1.92704e-06
0.511126
2.01412e-06
0.511126
1.80291e-06
0.511126
1.49357e-06
0.511127
1.31088e-06
0.511128
1.31998e-06
0.511128
1.5395e-06
0.511128
1.74917e-06
0.511129
1.91318e-06
0.511129
2.13979e-06
0.511129
2.31275e-06
0.511129
2.32252e-06
0.511129
2.15566e-06
0.51113
1.91425e-06
0.51113
1.9392e-06
0.511131
2.18889e-06
0.511131
2.3679e-06
0.51113
2.55373e-06
0.51113
2.63626e-06
0.51113
2.45191e-06
0.51113
2.23222e-06
0.511131
2.08289e-06
0.511131
1.97e-06
0.511132
1.89057e-06
0.511132
1.89126e-06
0.511133
2.08961e-06
0.511133
2.32674e-06
0.511133
2.42981e-06
0.511133
2.56357e-06
0.511133
2.783e-06
0.511133
2.88833e-06
0.511133
2.79661e-06
0.511133
2.671e-06
0.511134
2.63978e-06
0.511134
2.59103e-06
0.511134
2.4481e-06
0.511134
2.34762e-06
0.511134
2.21085e-06
0.511134
1.88672e-06
0.511135
1.72463e-06
0.511135
1.8655e-06
0.511135
1.87012e-06
0.511136
1.773e-06
0.511136
1.94382e-06
0.511136
2.11592e-06
0.511135
1.92721e-06
0.511135
1.63347e-06
0.511136
1.521e-06
0.511137
1.56892e-06
0.511137
1.71682e-06
0.511138
1.95156e-06
0.511138
2.2669e-06
0.511137
2.43848e-06
0.511137
2.32016e-06
0.511137
2.15279e-06
0.511138
1.95399e-06
0.511139
1.67277e-06
0.511139
1.65697e-06
0.51114
1.95606e-06
0.51114
2.14731e-06
0.511139
2.01695e-06
0.51114
1.79018e-06
0.51114
1.71612e-06
0.511141
1.69876e-06
0.511141
1.64037e-06
0.511142
1.62675e-06
0.511142
1.61238e-06
0.511143
1.58456e-06
0.511143
1.69866e-06
0.511143
1.93034e-06
0.511143
2.03589e-06
0.511143
1.95438e-06
0.511143
1.91665e-06
0.511144
2.00118e-06
0.511145
2.02123e-06
0.511145
1.8534e-06
0.511145
1.60313e-06
0.511145
1.48689e-06
0.511145
1.53786e-06
0.511145
1.66843e-06
0.511146
1.86481e-06
0.511146
2.10251e-06
0.511146
2.37993e-06
0.511146
2.61537e-06
0.511146
2.59461e-06
0.511146
2.41527e-06
0.511147
2.35232e-06
0.511147
2.27564e-06
0.511147
2.02645e-06
0.511147
1.82083e-06
0.511148
1.77757e-06
0.511148
1.91636e-06
0.511149
2.30135e-06
0.511149
2.6174e-06
0.511149
2.4776e-06
0.511149
1.99841e-06
0.511149
1.58017e-06
0.51115
1.51773e-06
0.51115
1.73027e-06
0.511151
1.91071e-06
0.511151
1.99542e-06
0.511151
2.10091e-06
0.511151
2.20284e-06
0.51115
2.20833e-06
0.51115
2.12675e-06
0.511151
2.0711e-06
0.511151
2.17295e-06
0.511152
2.37946e-06
0.511152
2.37408e-06
0.511153
2.0691e-06
0.511153
1.73514e-06
0.511153
1.6263e-06
0.511154
1.7494e-06
1.84496e-06
0.511094
3.49671e-08
0.511094
4.82131e-07
0.511094
8.63695e-07
0.511094
1.0939e-06
0.511094
1.27978e-06
0.511095
1.01824e-06
0.511095
9.16558e-07
0.511095
1.33158e-06
0.511095
1.58769e-06
0.511095
1.57357e-06
0.511096
1.52547e-06
0.511096
1.50014e-06
0.511096
1.72761e-06
0.511096
1.87397e-06
0.511096
1.62942e-06
0.511097
1.51687e-06
0.511097
1.79278e-06
0.511097
2.07454e-06
0.511097
1.87419e-06
0.511098
1.39184e-06
0.511099
1.20117e-06
0.5111
1.62935e-06
0.5111
2.32846e-06
0.511099
2.52685e-06
0.511099
2.28619e-06
0.511099
2.00685e-06
0.511099
1.67287e-06
0.511099
1.48024e-06
0.5111
1.50063e-06
0.511101
1.44445e-06
0.511102
1.39282e-06
0.511102
1.75441e-06
0.511102
2.38867e-06
0.511102
2.56303e-06
0.511102
2.25319e-06
0.511102
1.96909e-06
0.511102
1.7743e-06
0.511102
1.82086e-06
0.511102
2.07315e-06
0.511102
2.27496e-06
0.511102
2.41464e-06
0.511101
2.37036e-06
0.511101
1.99969e-06
0.511103
1.46129e-06
0.511104
1.19061e-06
0.511105
1.48585e-06
0.511105
1.90627e-06
0.511105
2.00237e-06
0.511105
1.91036e-06
0.511106
1.63571e-06
0.511106
1.27535e-06
0.511107
1.17517e-06
0.511107
1.50916e-06
0.511107
2.10044e-06
0.511106
2.29094e-06
0.511107
1.93085e-06
0.511107
1.56666e-06
0.511108
1.31166e-06
0.511108
1.2721e-06
0.511108
1.54413e-06
0.511108
1.57033e-06
0.511109
1.42361e-06
0.511109
1.54037e-06
0.51111
1.71732e-06
0.51111
1.79459e-06
0.51111
1.64704e-06
0.511111
1.4369e-06
0.511111
1.64606e-06
0.511111
1.90567e-06
0.511111
1.82736e-06
0.511111
1.74996e-06
0.511111
1.58225e-06
0.511112
1.41482e-06
0.511112
1.64855e-06
0.511112
1.88422e-06
0.511112
1.82953e-06
0.511112
1.61223e-06
0.511112
1.14608e-06
0.511113
8.35558e-07
0.511113
9.23218e-07
0.511114
1.12228e-06
0.511114
1.29343e-06
0.511114
1.41268e-06
0.511114
1.65431e-06
0.511114
1.81223e-06
0.511114
1.58351e-06
0.511115
1.53918e-06
0.511115
1.71111e-06
0.511116
1.64905e-06
0.511116
1.77626e-06
0.511115
2.14446e-06
0.511115
2.37867e-06
0.511115
2.36466e-06
0.511116
1.97338e-06
0.511117
1.65561e-06
0.511117
1.73287e-06
0.511117
1.89338e-06
0.511117
2.19638e-06
0.511117
2.29702e-06
0.511117
2.04709e-06
0.511118
2.06673e-06
0.511118
2.12152e-06
0.511118
1.99996e-06
0.511118
1.93336e-06
0.511119
1.73277e-06
0.511119
1.60871e-06
0.511119
1.57745e-06
0.511119
1.34692e-06
0.51112
1.30953e-06
0.51112
1.52902e-06
0.51112
1.69401e-06
0.51112
1.88261e-06
0.51112
1.97349e-06
0.51112
1.86344e-06
0.511121
1.77412e-06
0.511121
1.78776e-06
0.511121
1.85878e-06
0.511121
1.90829e-06
0.511122
2.02906e-06
0.511122
2.20051e-06
0.511122
2.14146e-06
0.511122
2.0841e-06
0.511123
2.13801e-06
0.511123
2.03246e-06
0.511123
2.09716e-06
0.511123
2.30124e-06
0.511122
2.20919e-06
0.511123
2.01541e-06
0.511123
1.79194e-06
0.511124
1.63287e-06
0.511124
1.83458e-06
0.511125
2.0446e-06
0.511124
1.9807e-06
0.511124
1.78787e-06
0.511125
1.55339e-06
0.511125
1.42944e-06
0.511125
1.3643e-06
0.511126
1.26451e-06
0.511127
1.33758e-06
0.511127
1.42658e-06
0.511127
1.35343e-06
0.511127
1.28329e-06
0.511127
1.13284e-06
0.511128
1.07486e-06
0.511128
1.40533e-06
0.511129
1.79242e-06
0.511129
2.08091e-06
0.511129
2.22365e-06
0.511129
2.04102e-06
0.511129
1.85428e-06
0.511129
1.83975e-06
0.51113
1.80978e-06
0.51113
1.89129e-06
0.511131
2.11184e-06
0.511131
2.27977e-06
0.511131
2.34628e-06
0.511131
2.18251e-06
0.511131
1.84898e-06
0.511132
1.67661e-06
0.511132
1.66498e-06
0.511132
1.72775e-06
0.511132
1.93116e-06
0.511132
2.14111e-06
0.511133
2.256e-06
0.511133
2.38178e-06
0.511133
2.54214e-06
0.511133
2.70508e-06
0.511133
2.83899e-06
0.511133
2.87242e-06
0.511133
2.75804e-06
0.511133
2.45509e-06
0.511133
2.04288e-06
0.511134
1.83456e-06
0.511134
1.90715e-06
0.511134
1.93091e-06
0.511134
1.77904e-06
0.511134
1.60018e-06
0.511135
1.4599e-06
0.511135
1.3485e-06
0.511136
1.29008e-06
0.511137
1.41538e-06
0.511137
1.60983e-06
0.511137
1.56696e-06
0.511137
1.49383e-06
0.511137
1.58906e-06
0.511137
1.57772e-06
0.511137
1.56274e-06
0.511138
1.78971e-06
0.511138
2.03518e-06
0.511139
2.1085e-06
0.511139
2.0095e-06
0.511139
1.83557e-06
0.511139
1.698e-06
0.511139
1.50962e-06
0.511139
1.40685e-06
0.51114
1.63066e-06
0.51114
1.8512e-06
0.51114
1.76742e-06
0.51114
1.59609e-06
0.51114
1.49042e-06
0.511141
1.42091e-06
0.511141
1.40812e-06
0.511141
1.42701e-06
0.511141
1.39011e-06
0.511142
1.32483e-06
0.511142
1.42546e-06
0.511143
1.68918e-06
0.511143
1.79542e-06
0.511143
1.66368e-06
0.511143
1.51629e-06
0.511144
1.3935e-06
0.511145
1.21579e-06
0.511145
1.09753e-06
0.511145
1.2239e-06
0.511145
1.53556e-06
0.511145
1.8047e-06
0.511145
1.90875e-06
0.511145
1.91045e-06
0.511146
1.98457e-06
0.511146
2.10539e-06
0.511147
2.10387e-06
0.511147
2.00203e-06
0.511148
1.87575e-06
0.511148
1.82712e-06
0.511148
1.96037e-06
0.511148
2.13636e-06
0.511148
2.22039e-06
0.511147
2.19813e-06
0.511147
2.05233e-06
0.511148
1.94834e-06
0.511149
1.94246e-06
0.511149
1.76767e-06
0.511149
1.48022e-06
0.511149
1.45784e-06
0.511149
1.69098e-06
0.511149
1.87077e-06
0.511149
1.87181e-06
0.51115
1.82904e-06
0.51115
1.89713e-06
0.51115
2.04508e-06
0.51115
2.15075e-06
0.51115
2.11143e-06
0.51115
1.8918e-06
0.511151
1.6742e-06
0.511152
1.64114e-06
0.511152
1.59748e-06
0.511152
1.40932e-06
0.511153
1.28529e-06
0.511153
1.39052e-06
1.48647e-06
0.511094
7.74746e-08
0.511094
1.98069e-07
0.511095
4.17773e-07
0.511095
5.8474e-07
0.511096
6.27767e-07
0.511096
1.0572e-06
0.511095
1.41987e-06
0.511095
1.45993e-06
0.511095
1.35741e-06
0.511096
1.25962e-06
0.511096
1.35024e-06
0.511096
1.46371e-06
0.511096
1.30625e-06
0.511097
1.19296e-06
0.511097
1.34276e-06
0.511097
1.54709e-06
0.511097
1.66307e-06
0.511098
1.58484e-06
0.511098
1.3466e-06
0.511099
1.09103e-06
0.511099
1.19143e-06
0.511099
1.69445e-06
0.511099
1.89472e-06
0.5111
2.02847e-06
0.5111
2.11708e-06
0.5111
1.72242e-06
0.5111
1.67388e-06
0.5111
1.88184e-06
0.511099
1.73705e-06
0.511099
1.73028e-06
0.511099
1.85787e-06
0.511099
1.73416e-06
0.511099
1.61411e-06
0.5111
1.69827e-06
0.511101
1.82564e-06
0.511101
1.77754e-06
0.511101
1.56275e-06
0.511101
1.43592e-06
0.511102
1.44453e-06
0.511103
1.65488e-06
0.511103
1.86594e-06
0.511104
1.7063e-06
0.511104
1.45797e-06
0.511104
1.46695e-06
0.511104
1.67174e-06
0.511104
1.77642e-06
0.511104
1.63451e-06
0.511104
1.6565e-06
0.511105
1.65991e-06
0.511105
1.42879e-06
0.511105
1.3198e-06
0.511105
1.19418e-06
0.511105
1.303e-06
0.511105
2.04321e-06
0.511105
2.31715e-06
0.511105
1.59657e-06
0.511106
9.48056e-07
0.511106
9.82008e-07
0.511106
1.27286e-06
0.511107
1.27835e-06
0.511107
1.10347e-06
0.511107
1.19981e-06
0.511107
1.31983e-06
0.511108
1.24744e-06
0.511109
1.18753e-06
0.511109
1.17113e-06
0.511109
1.22087e-06
0.511109
1.43978e-06
0.51111
1.71293e-06
0.51111
1.76512e-06
0.51111
1.53461e-06
0.51111
1.31994e-06
0.51111
1.30549e-06
0.511111
1.38824e-06
0.511111
1.48942e-06
0.511111
1.44789e-06
0.511112
1.17544e-06
0.511112
9.46775e-07
0.511112
8.65434e-07
0.511112
7.62072e-07
0.511113
6.25238e-07
0.511113
5.87497e-07
0.511114
8.56866e-07
0.511114
1.3338e-06
0.511114
1.57449e-06
0.511114
1.46199e-06
0.511115
1.25323e-06
0.511115
1.30646e-06
0.511115
1.52466e-06
0.511116
1.48126e-06
0.511116
1.60718e-06
0.511116
2.07785e-06
0.511117
2.15897e-06
0.511117
1.91808e-06
0.511117
1.69613e-06
0.511117
1.46946e-06
0.511117
1.49516e-06
0.511118
1.73403e-06
0.511118
1.93622e-06
0.511118
2.01636e-06
0.511118
1.93128e-06
0.511119
1.91548e-06
0.511119
1.88484e-06
0.511119
1.58337e-06
0.511119
1.36008e-06
0.51112
1.26915e-06
0.51112
1.11318e-06
0.51112
1.19545e-06
0.51112
1.41483e-06
0.51112
1.4585e-06
0.51112
1.49766e-06
0.511121
1.5464e-06
0.511121
1.59053e-06
0.511121
1.60908e-06
0.511122
1.41301e-06
0.511122
1.33601e-06
0.511122
1.6448e-06
0.511122
1.92714e-06
0.511122
2.03261e-06
0.511123
2.08505e-06
0.511123
1.99669e-06
0.511123
1.82422e-06
0.511123
1.68833e-06
0.511124
1.55275e-06
0.511124
1.53675e-06
0.511125
1.73049e-06
0.511125
1.97172e-06
0.511125
2.0851e-06
0.511125
2.02211e-06
0.511125
1.83307e-06
0.511125
1.67635e-06
0.511125
1.6052e-06
0.511126
1.51016e-06
0.511126
1.4081e-06
0.511126
1.39419e-06
0.511126
1.41064e-06
0.511126
1.37887e-06
0.511126
1.20049e-06
0.511127
8.6851e-07
0.511128
6.54442e-07
0.511128
6.51376e-07
0.511129
7.67709e-07
0.511129
1.03309e-06
0.511129
1.2867e-06
0.511129
1.41658e-06
0.511129
1.58749e-06
0.511129
1.65235e-06
0.51113
1.48448e-06
0.511131
1.42101e-06
0.511131
1.50626e-06
0.511131
1.64002e-06
0.511131