/*--------------------------------*- C++ -*----------------------------------*\
| =========                 |                                                 |
| \\      /  F ield         | OpenFOAM: The Open Source CFD Toolbox           |
|  \\    /   O peration     | Version:  2406                                  |
|   \\  /    A nd           | Website:  www.openfoam.com                      |
|    \\/     M anipulation  |                                                 |
\*---------------------------------------------------------------------------*/
FoamFile
{
    version     2.0;
    format      ascii;
    arch        "LSB;label=32;scalar=64";
    class       surfaceScalarField;
    location    "1.75";
    object      phi;
}
// * * * * * * * * * * * * * * * * * * * * * * * * * * * * * * * * * * * * * //

dimensions      [0 3 -1 0 0 0 0];

oriented        oriented;

internalField   nonuniform List<scalar> 
12225
(
0.511089
1.79842e-06
0.511083
6.72613e-06
0.511074
8.04668e-06
0.511069
5.48575e-06
0.511065
4.29449e-06
0.511059
5.2282e-06
0.511054
5.84117e-06
0.511048
5.17172e-06
0.511044
4.45208e-06
0.51104
4.44246e-06
0.511035
4.88537e-06
0.511029
5.45692e-06
0.511024
5.71785e-06
0.511018
5.47296e-06
0.511013
5.21986e-06
0.511008
5.25978e-06
0.511002
5.37019e-06
0.510997
5.53148e-06
0.510991
5.64141e-06
0.510985
5.68293e-06
0.51098
5.70117e-06
0.510974
5.53563e-06
0.510969
5.567e-06
0.510963
5.70947e-06
0.510957
5.46606e-06
0.510952
5.28381e-06
0.510947
5.20196e-06
0.510942
5.04599e-06
0.510937
5.18348e-06
0.510931
5.39901e-06
0.510926
5.46137e-06
0.51092
5.68022e-06
0.510915
5.55757e-06
0.51091
4.86153e-06
0.510905
4.67727e-06
0.5109
5.12374e-06
0.510894
5.53234e-06
0.510888
5.90866e-06
0.510883
5.88063e-06
0.510877
5.41376e-06
0.510872
5.12952e-06
0.510867
4.99328e-06
0.510862
5.06227e-06
0.510856
5.5924e-06
0.51085
6.23608e-06
0.510844
6.44483e-06
0.510838
5.92906e-06
0.510833
5.2278e-06
0.510827
5.04716e-06
0.510822
5.14799e-06
0.510817
5.25826e-06
0.510812
5.25846e-06
0.510807
5.08013e-06
0.510802
5.18078e-06
0.510796
5.45207e-06
0.510791
5.57109e-06
0.510785
5.65421e-06
0.510779
5.41047e-06
0.510774
4.97344e-06
0.51077
4.8141e-06
0.510765
5.05024e-06
0.510759
5.67625e-06
0.510753
5.95573e-06
0.510748
5.48008e-06
0.510742
5.09464e-06
0.510737
4.9779e-06
0.510732
4.96687e-06
0.510727
5.30862e-06
0.510722
5.66504e-06
0.510716
5.77581e-06
0.51071
5.85962e-06
0.510704
5.92074e-06
0.510698
6.04048e-06
0.510692
6.09372e-06
0.510686
5.82829e-06
0.51068
5.51771e-06
0.510675
5.26515e-06
0.51067
5.15582e-06
0.510665
5.38786e-06
0.510659
5.54895e-06
0.510654
5.40324e-06
0.510648
5.26e-06
0.510643
5.18506e-06
0.510638
5.16428e-06
0.510633
5.34878e-06
0.510627
5.72503e-06
0.510621
5.8871e-06
0.510615
5.66221e-06
0.51061
5.57143e-06
0.510604
5.64849e-06
0.510599
5.61087e-06
0.510593
5.71547e-06
0.510587
5.69536e-06
0.510582
5.40177e-06
0.510576
5.34904e-06
0.510571
5.41897e-06
0.510566
5.47379e-06
0.51056
5.35869e-06
0.510555
5.01338e-06
0.51055
5.08681e-06
0.510545
5.32382e-06
0.510539
5.41007e-06
0.510534
5.79235e-06
0.510528
6.02047e-06
0.510522
5.83263e-06
0.510516
5.61658e-06
0.510511
5.36314e-06
0.510506
5.26114e-06
0.5105
5.30907e-06
0.510495
5.16747e-06
0.51049
5.11106e-06
0.510485
5.30471e-06
0.510479
5.37233e-06
0.510474
5.34075e-06
0.510469
5.40646e-06
0.510463
5.53533e-06
0.510457
5.7937e-06
0.510451
5.91562e-06
0.510446
5.70726e-06
0.51044
5.57892e-06
0.510434
5.63607e-06
0.510429
5.63192e-06
0.510423
5.51888e-06
0.510418
5.34148e-06
0.510413
5.15146e-06
0.510408
5.09031e-06
0.510402
5.25438e-06
0.510397
5.47028e-06
0.510391
5.62911e-06
0.510385
5.80057e-06
0.51038
5.80049e-06
0.510374
5.46842e-06
0.510369
5.1399e-06
0.510364
5.05565e-06
0.510359
5.11274e-06
0.510354
5.27341e-06
0.510348
5.40653e-06
0.510343
5.435e-06
0.510337
5.44543e-06
0.510332
5.41235e-06
0.510327
5.38823e-06
0.510321
5.30349e-06
0.510316
5.131e-06
0.510311
5.20045e-06
0.510305
5.42648e-06
0.5103
5.64559e-06
0.510294
5.89682e-06
0.510288
5.86369e-06
0.510282
5.57117e-06
0.510277
5.3249e-06
0.510272
5.13753e-06
0.510267
5.15135e-06
0.510262
5.36007e-06
0.510256
5.57143e-06
0.51025
5.76044e-06
0.510244
5.77639e-06
0.510239
5.67724e-06
0.510233
5.66412e-06
0.510227
5.57135e-06
0.510222
5.45233e-06
0.510217
5.51119e-06
0.510211
5.66282e-06
0.510205
5.80853e-06
0.510199
5.84269e-06
0.510193
5.70094e-06
0.510188
5.449e-06
0.510183
5.25646e-06
0.510177
5.40942e-06
0.510172
5.84408e-06
0.510165
6.10572e-06
0.510159
6.02578e-06
0.510154
5.86756e-06
0.510148
5.69198e-06
0.510142
5.47508e-06
0.510137
5.3933e-06
0.510132
5.30095e-06
0.510127
5.11208e-06
0.510122
5.04919e-06
0.510116
5.11095e-06
0.510111
5.25649e-06
0.510106
5.45351e-06
0.5101
5.55245e-06
0.510095
5.54199e-06
0.510089
5.39345e-06
0.510084
5.11041e-06
0.510079
5.03789e-06
0.510074
5.33696e-06
0.510068
5.65976e-06
0.510062
5.75759e-06
0.510057
5.65992e-06
0.510051
5.33082e-06
0.510046
4.97154e-06
0.510041
4.90453e-06
0.510036
5.14215e-06
0.510031
5.44622e-06
0.510025
5.49077e-06
0.51002
5.43001e-06
0.510014
5.52083e-06
0.510009
5.47822e-06
0.510004
5.19855e-06
0.509999
5.03128e-06
0.509994
5.13366e-06
0.509988
5.40559e-06
0.509982
5.77929e-06
0.509976
6.09349e-06
0.50997
6.09886e-06
0.509964
5.82009e-06
0.509959
5.45925e-06
0.509954
5.13369e-06
0.509949
4.98147e-06
0.509944
5.2136e-06
0.509938
5.73039e-06
0.509932
5.97298e-06
0.509926
5.63014e-06
0.509921
5.16026e-06
0.509916
5.04527e-06
0.509911
5.2623e-06
0.509905
5.5713e-06
0.5099
5.7052e-06
0.509894
5.60869e-06
0.509888
5.5965e-06
0.509883
5.72397e-06
0.509877
5.67008e-06
0.509872
5.39541e-06
0.509866
5.0872e-06
0.509862
4.85367e-06
0.509857
4.83705e-06
0.509852
5.09893e-06
0.509846
5.46298e-06
0.50984
5.74516e-06
0.509835
5.88581e-06
0.509829
5.80081e-06
0.509823
5.47533e-06
0.509818
5.03735e-06
0.509813
4.73216e-06
0.509809
4.8436e-06
0.509803
5.22703e-06
0.509798
5.46375e-06
0.509792
5.46501e-06
0.509787
5.32716e-06
0.509782
5.1383e-06
0.509777
5.08462e-06
0.509772
5.18802e-06
0.509766
5.34028e-06
0.509761
5.49534e-06
0.509755
5.68663e-06
0.509749
5.94674e-06
0.509743
6.01175e-06
0.509737
6.26811e-06
5.45601e-06
0.511095
-3.94613e-08
0.511101
9.13434e-07
0.511107
2.11919e-06
0.51111
2.46485e-06
0.511112
2.14339e-06
0.511115
1.84476e-06
0.511119
2.04138e-06
0.511122
2.50725e-06
0.511123
2.88508e-06
0.511125
2.60881e-06
0.511128
1.9065e-06
0.511132
1.51335e-06
0.511136
1.70623e-06
0.511139
2.21629e-06
0.511142
2.41557e-06
0.511145
2.43009e-06
0.511148
2.51624e-06
0.511151
2.67176e-06
0.511154
2.88041e-06
0.511157
2.67101e-06
0.51116
2.35506e-06
0.511163
2.49919e-06
0.511166
2.52701e-06
0.511169
2.54481e-06
0.511172
2.99886e-06
0.511174
3.13941e-06
0.511176
2.82033e-06
0.511179
2.60001e-06
0.511181
2.38242e-06
0.511185
2.09249e-06
0.511188
1.89914e-06
0.511192
1.9641e-06
0.511195
2.38682e-06
0.511197
2.74098e-06
0.511199
2.946e-06
0.511201
3.09307e-06
0.511204
2.61816e-06
0.511208
1.89912e-06
0.511212
2.10428e-06
0.511214
2.77853e-06
0.511216
3.14519e-06
0.511218
3.32791e-06
0.51122
3.20503e-06
0.511223
2.66103e-06
0.511227
2.10195e-06
0.511231
1.99876e-06
0.511235
2.26348e-06
0.511238
2.66986e-06
0.51124
3.02832e-06
0.511242
2.89012e-06
0.511245
2.14853e-06
0.511248
1.89597e-06
0.511251
2.43137e-06
0.511254
2.61273e-06
0.511257
2.39535e-06
0.51126
2.46249e-06
0.511263
2.63893e-06
0.511266
2.58097e-06
0.511268
2.47099e-06
0.51127
2.44761e-06
0.511273
2.21298e-06
0.511277
1.86203e-06
0.511281
1.97859e-06
0.511284
2.4223e-06
0.511287
2.60448e-06
0.511289
2.57563e-06
0.511292
2.51239e-06
0.511294
2.41522e-06
0.511298
2.47422e-06
0.511301
2.737e-06
0.511304
2.86049e-06
0.511307
2.6509e-06
0.511311
2.29002e-06
0.511315
2.16085e-06
0.511318
2.27376e-06
0.511321
2.3739e-06
0.511324
2.48061e-06
0.511327
2.5864e-06
0.51133
2.50178e-06
0.511333
2.25441e-06
0.511336
2.06373e-06
0.511339
1.94399e-06
0.511343
1.97907e-06
0.511346
2.18845e-06
0.511349
2.31359e-06
0.511352
2.4233e-06
0.511355
2.64106e-06
0.511358
2.70518e-06
0.511361
2.55797e-06
0.511364
2.48106e-06
0.511368
2.45139e-06
0.511371
2.30329e-06
0.511374
2.44841e-06
0.511377
2.95164e-06
0.511379
3.07929e-06
0.511382
2.76357e-06
0.511385
2.46972e-06
0.511388
2.29477e-06
0.51139
2.3379e-06
0.511393
2.57193e-06
0.511395
2.69413e-06
0.511398
2.73066e-06
0.511401
2.81137e-06
0.511404
2.82929e-06
0.511408
2.66133e-06
0.511411
2.33621e-06
0.511414
2.21824e-06
0.511417
2.31886e-06
0.51142
2.24104e-06
0.511423
2.16978e-06
0.511426
2.23385e-06
0.511429
2.28504e-06
0.511432
2.43722e-06
0.511434
2.64581e-06
0.511437
2.78909e-06
0.51144
2.77277e-06
0.511443
2.53722e-06
0.511447
2.31614e-06
0.51145
2.19738e-06
0.511454
2.20246e-06
0.511457
2.40568e-06
0.51146
2.57894e-06
0.511463
2.67457e-06
0.511465
2.82651e-06
0.511467
2.9087e-06
0.51147
2.86686e-06
0.511472
2.76244e-06
0.511475
2.59433e-06
0.511478
2.46801e-06
0.511482
2.3808e-06
0.511485
2.22721e-06
0.511489
2.1117e-06
0.511492
2.21195e-06
0.511494
2.58141e-06
0.511496
2.86904e-06
0.511499
2.79352e-06
0.511501
2.62686e-06
0.511504
2.48494e-06
0.511508
2.32879e-06
0.511511
2.29402e-06
0.511514
2.31434e-06
0.511517
2.39387e-06
0.511519
2.49416e-06
0.511522
2.3508e-06
0.511525
2.06215e-06
0.511529
1.88154e-06
0.511533
1.94972e-06
0.511537
2.39523e-06
0.511539
2.91837e-06
0.511542
3.13984e-06
0.511544
3.0989e-06
0.511546
2.83382e-06
0.511549
2.43075e-06
0.511552
2.18208e-06
0.511556
2.13224e-06
0.511559
2.31561e-06
0.511562
2.78347e-06
0.511565
3.18296e-06
0.511567
3.21789e-06
0.511569
2.97609e-06
0.511572
2.6744e-06
0.511576
2.43206e-06
0.511579
2.27636e-06
0.511583
2.29643e-06
0.511586
2.46787e-06
0.511589
2.67539e-06
0.511591
2.81402e-06
0.511594
2.91062e-06
0.511596
3.01933e-06
0.511599
3.0668e-06
0.511602
2.98824e-06
0.511606
2.82481e-06
0.511609
2.66653e-06
0.511612
2.48296e-06
0.511615
2.38506e-06
0.511617
2.54592e-06
0.51162
2.73507e-06
0.511622
2.6341e-06
0.511625
2.35461e-06
0.511628
2.22186e-06
0.511631
2.2344e-06
0.511634
2.31506e-06
0.511637
2.58114e-06
0.51164
2.82011e-06
0.511642
2.73219e-06
0.511645
2.4116e-06
0.511648
2.0745e-06
0.511652
2.01382e-06
0.511655
2.20844e-06
0.511659
2.47636e-06
0.511661
2.84245e-06
0.511663
3.04417e-06
0.511665
2.91315e-06
0.511667
2.69385e-06
0.51167
2.48698e-06
0.511674
2.21868e-06
0.511677
2.01008e-06
0.51168
2.15175e-06
0.511683
2.59803e-06
0.511686
2.87448e-06
0.511688
2.74149e-06
0.511691
2.41789e-06
0.511694
2.10585e-06
0.511698
1.8538e-06
0.511702
1.82887e-06
0.511706
2.10415e-06
0.511709
2.49586e-06
0.511712
2.82834e-06
0.511714
2.94507e-06
0.511716
2.75213e-06
0.511719
2.38416e-06
0.511723
2.08587e-06
0.511727
2.10352e-06
0.51173
2.33482e-06
0.511733
2.40753e-06
0.511736
2.25225e-06
0.511739
2.17775e-06
0.511742
2.30147e-06
0.511745
2.50915e-06
0.511748
2.60013e-06
0.511751
2.49318e-06
0.511755
2.41444e-06
0.511758
2.54601e-06
0.51176
2.76314e-06
0.511763
2.86414e-06
0.511765
2.73592e-06
0.511767
2.43605e-06
0.51177
2.26821e-06
0.511773
2.36489e-06
0.511776
2.44281e-06
0.51178
2.46887e-06
0.511783
2.67481e-06
0.511785
2.90469e-06
0.511788
2.90957e-06
0.51179
2.62008e-06
0.511792
2.237e-06
0.511795
2.18622e-06
0.511798
2.47901e-06
0.511801
2.63308e-06
0.511804
2.58972e-06
0.511806
2.59443e-06
0.511809
2.69791e-06
0.511811
2.82029e-06
0.511814
2.78879e-06
0.511817
2.59158e-06
0.51182
2.39199e-06
0.511824
2.27333e-06
0.511827
2.25932e-06
0.511831
2.34667e-06
2.57651e-06
0.511093
1.92721e-07
0.511093
9.54249e-07
0.511094
1.56027e-06
0.511094
2.14413e-06
0.511094
2.25674e-06
0.511094
1.75574e-06
0.511095
1.59972e-06
0.511095
1.80951e-06
0.511096
2.00402e-06
0.511096
2.28617e-06
0.511096
2.37368e-06
0.511095
2.14929e-06
0.511095
1.79049e-06
0.511096
1.55996e-06
0.511097
1.55807e-06
0.511097
1.81408e-06
0.511097
2.47835e-06
0.511097
2.74863e-06
0.511098
2.27563e-06
0.511098
2.13796e-06
0.511098
2.40272e-06
0.511099
2.26669e-06
0.511099
2.11943e-06
0.511099
2.10824e-06
0.511101
1.93525e-06
0.511101
2.19246e-06
0.511102
2.59016e-06
0.511102
2.76956e-06
0.511101
2.93848e-06
0.511101
2.33815e-06
0.511101
1.4337e-06
0.511102
1.51321e-06
0.511102
1.92159e-06
0.511102
2.39559e-06
0.511102
2.98166e-06
0.511103
2.78809e-06
0.511103
2.28243e-06
0.511103
2.14694e-06
0.511103
2.10284e-06
0.511103
2.25454e-06
0.511104
2.53719e-06
0.511105
2.66062e-06
0.511105
2.75822e-06
0.511105
2.84652e-06
0.511104
2.74551e-06
0.511104
2.40001e-06
0.511104
2.13415e-06
0.511104
2.27088e-06
0.511105
2.30515e-06
0.511106
2.06085e-06
0.511106
1.96292e-06
0.511106
1.99562e-06
0.511106
2.1968e-06
0.511106
2.50294e-06
0.511106
2.41359e-06
0.511107
2.06465e-06
0.511107
2.04564e-06
0.511108
2.1514e-06
0.511108
1.95659e-06
0.511109
1.79724e-06
0.511109
2.01798e-06
0.511109
2.34459e-06
0.511108
2.30548e-06
0.511109
2.07538e-06
0.511109
2.07081e-06
0.51111
2.09824e-06
0.51111
2.12562e-06
0.51111
2.33e-06
0.51111
2.33785e-06
0.511111
2.14271e-06
0.511111
2.24155e-06
0.511112
2.51982e-06
0.511111
2.5914e-06
0.511111
2.37329e-06
0.511111
2.06262e-06
0.511112
2.01389e-06
0.511112
2.03649e-06
0.511113
1.86177e-06
0.511113
1.92875e-06
0.511114
2.03924e-06
0.511114
1.77906e-06
0.511114
1.63372e-06
0.511115
1.71354e-06
0.511115
1.8099e-06
0.511115
2.04576e-06
0.511115
2.30115e-06
0.511115
2.43512e-06
0.511116
2.33478e-06
0.511116
1.98971e-06
0.511117
1.86794e-06
0.511117
2.11021e-06
0.511117
2.39335e-06
0.511117
2.5821e-06
0.511117
2.73368e-06
0.511118
2.89161e-06
0.511118
2.65064e-06
0.511118
2.04685e-06
0.511118
1.88335e-06
0.511119
2.03404e-06
0.511119
2.19346e-06
0.511119
2.5441e-06
0.511119
2.68633e-06
0.51112
2.56233e-06
0.51112
2.39289e-06
0.51112
2.25527e-06
0.51112
2.34128e-06
0.51112
2.30897e-06
0.511121
2.08465e-06
0.511121
2.02788e-06
0.511121
1.9573e-06
0.511121
1.8866e-06
0.511122
2.08792e-06
0.511122
2.35194e-06
0.511122
2.41588e-06
0.511122
2.45653e-06
0.511122
2.54577e-06
0.511123
2.43497e-06
0.511122
2.38174e-06
0.511122
2.5784e-06
0.511122
2.52891e-06
0.511122
2.2876e-06
0.511122
2.21019e-06
0.511123
2.09071e-06
0.511124
2.07602e-06
0.511124
2.32605e-06
0.511125
2.41869e-06
0.511125
2.43067e-06
0.511125
2.57054e-06
0.511125
2.65283e-06
0.511125
2.66986e-06
0.511124
2.42729e-06
0.511125
1.92039e-06
0.511125
1.66182e-06
0.511126
1.77277e-06
0.511127
2.07058e-06
0.511127
2.32159e-06
0.511127
2.29132e-06
0.511128
2.14461e-06
0.511128
1.99621e-06
0.511129
1.80451e-06
0.511129
1.77617e-06
0.51113
1.95633e-06
0.51113
2.09089e-06
0.51113
2.182e-06
0.51113
2.19148e-06
0.51113
2.05755e-06
0.51113
2.05937e-06
0.51113
2.18524e-06
0.511131
2.31241e-06
0.511131
2.49284e-06
0.511132
2.49406e-06
0.511132
2.41251e-06
0.511132
2.47888e-06
0.511132
2.49543e-06
0.511131
2.5319e-06
0.511131
2.64738e-06
0.511131
2.61981e-06
0.511132
2.53547e-06
0.511133
2.407e-06
0.511134
2.20801e-06
0.511134
2.24165e-06
0.511134
2.48454e-06
0.511134
2.62048e-06
0.511133
2.54257e-06
0.511133
2.33742e-06
0.511134
2.35847e-06
0.511134
2.66969e-06
0.511134
2.92511e-06
0.511134
3.08514e-06
0.511134
3.20236e-06
0.511134
3.08125e-06
0.511134
2.7073e-06
0.511134
2.38847e-06
0.511134
2.1936e-06
0.511135
2.03329e-06
0.511135
2.09321e-06
0.511136
2.32255e-06
0.511136
2.38507e-06
0.511136
2.21721e-06
0.511136
2.06159e-06
0.511136
2.05112e-06
0.511137
1.91883e-06
0.511138
1.72328e-06
0.511138
1.82901e-06
0.511139
2.02515e-06
0.511139
2.13328e-06
0.511139
2.24091e-06
0.511139
2.28044e-06
0.511139
2.27811e-06
0.511139
2.25313e-06
0.51114
2.18533e-06
0.511141
2.23512e-06
0.511141
2.35162e-06
0.511142
2.32634e-06
0.511142
2.35436e-06
0.511142
2.44069e-06
0.511141
2.20213e-06
0.511142
1.88237e-06
0.511142
1.95073e-06
0.511143
2.20784e-06
0.511143
2.31802e-06
0.511143
2.28683e-06
0.511143
2.1772e-06
0.511143
2.00456e-06
0.511143
1.92464e-06
0.511143
2.00513e-06
0.511144
2.03744e-06
0.511145
1.95733e-06
0.511145
2.02358e-06
0.511146
2.36238e-06
0.511146
2.67945e-06
0.511145
2.57944e-06
0.511145
2.13521e-06
0.511146
1.73827e-06
0.511146
1.57148e-06
0.511147
1.6252e-06
0.511147
1.80239e-06
0.511148
2.02784e-06
0.511148
2.33059e-06
0.511148
2.64823e-06
0.511148
2.75981e-06
0.511147
2.61651e-06
0.511148
2.45045e-06
0.511148
2.47396e-06
0.511148
2.54009e-06
0.511148
2.41678e-06
0.511149
2.20641e-06
0.511149
2.18474e-06
0.511149
2.49782e-06
0.511148
2.84454e-06
0.511148
2.74098e-06
0.511148
2.26923e-06
0.511149
1.93254e-06
0.51115
1.98383e-06
0.511151
2.17558e-06
0.511151
2.2279e-06
0.511151
2.20263e-06
0.511151
2.20795e-06
0.511151
2.11867e-06
0.511152
1.97297e-06
0.511153
1.97876e-06
0.511153
2.17667e-06
0.511154
2.49058e-06
0.511154
2.75917e-06
0.511153
2.79906e-06
0.511153
2.63074e-06
0.511153
2.40773e-06
0.511153
2.19198e-06
0.511153
1.97909e-06
1.96873e-06
0.511094
1.15833e-07
0.511094
5.17994e-07
0.511095
9.47542e-07
0.511096
1.37108e-06
0.511096
1.49523e-06
0.511097
1.35505e-06
0.511097
1.30563e-06
0.511097
1.40083e-06
0.511098
1.56597e-06
0.511098
1.81414e-06
0.511099
2.0639e-06
0.511099
2.11074e-06
0.511099
1.8493e-06
0.511098
1.74149e-06
0.511098
1.94917e-06
0.511098
1.95163e-06
0.511099
1.84853e-06
0.511099
1.97792e-06
0.511099
2.24691e-06
0.511099
2.33157e-06
0.511099
2.22019e-06
0.511099
2.19544e-06
0.511099
2.23525e-06
0.511099
2.21744e-06
0.511099
2.01559e-06
0.511099
1.93274e-06
0.5111
2.12432e-06
0.511101
1.92204e-06
0.511102
1.73093e-06
0.511102
2.22642e-06
0.511101
2.33557e-06
0.511101
1.92467e-06
0.5111
2.07415e-06
0.5111
2.3862e-06
0.511101
2.27104e-06
0.511102
2.07448e-06
0.511102
1.824e-06
0.511103
1.76307e-06
0.511103
2.15388e-06
0.511103
2.30995e-06
0.511103
2.13698e-06
0.511104
2.07355e-06
0.511104
2.03763e-06
0.511105
2.17216e-06
0.511105
2.41991e-06
0.511105
2.50475e-06
0.511105
2.60399e-06
0.511105
2.46484e-06
0.511105
1.86706e-06
0.511106
1.59394e-06
0.511106
1.82262e-06
0.511106
2.08705e-06
0.511106
2.17675e-06
0.511106
1.87208e-06
0.511107
1.77968e-06
0.511107
2.15351e-06
0.511107
2.12242e-06
0.511107
1.80016e-06
0.511107
1.64078e-06
0.511108
1.52583e-06
0.511108
1.58543e-06
0.511109
1.83279e-06
0.511109
2.06143e-06
0.511109
2.14635e-06
0.511109
2.00283e-06
0.511109
1.90241e-06
0.511109
1.89658e-06
0.51111
1.72712e-06
0.51111
1.76971e-06
0.51111
2.05131e-06
0.511111
1.96095e-06
0.511111
1.7975e-06
0.511112
1.88419e-06
0.511113
1.84058e-06
0.511113
1.75355e-06
0.511113
1.87332e-06
0.511113
2.02262e-06
0.511113
1.85583e-06
0.511114
1.41485e-06
0.511114
1.31745e-06
0.511115
1.52709e-06
0.511115
1.44684e-06
0.511115
1.31206e-06
0.511116
1.45503e-06
0.511116
1.71714e-06
0.511116
2.04724e-06
0.511116
2.24006e-06
0.511117
2.12012e-06
0.511117
1.88484e-06
0.511117
1.73309e-06
0.511117
1.81243e-06
0.511118
2.00322e-06
0.511118
2.23545e-06
0.511118
2.55329e-06
0.511118
2.68376e-06
0.511118
2.56042e-06
0.511118
2.31371e-06
0.511118
1.99745e-06
0.511118
1.8289e-06
0.511119
1.87598e-06
0.511119
2.139e-06
0.511119
2.49255e-06
0.511119
2.52059e-06
0.511119
2.24699e-06
0.51112
2.00553e-06
0.51112
1.8643e-06
0.511121
1.8279e-06
0.511121
1.76717e-06
0.511121
1.58277e-06
0.511122
1.54632e-06
0.511122
1.65573e-06
0.511122
1.73677e-06
0.511123
2.06226e-06
0.511123
2.40689e-06
0.511123
2.38284e-06
0.511123
2.20607e-06
0.511124
1.89513e-06
0.511124
1.70695e-06
0.511125
2.07421e-06
0.511125
2.55887e-06
0.511124
2.66761e-06
0.511124
2.47509e-06
0.511124
2.23902e-06
0.511124
2.1813e-06
0.511124
2.23766e-06
0.511124
2.18887e-06
0.511124
2.03181e-06
0.511125
2.02439e-06
0.511125
2.22159e-06
0.511126
2.30781e-06
0.511126
2.30008e-06
0.511126
2.35395e-06
0.511125
2.20573e-06
0.511125
1.91196e-06
0.511125
1.77077e-06
0.511126
1.67898e-06
0.511126
1.7337e-06
0.511127
1.95124e-06
0.511127
1.9346e-06
0.511127
1.72513e-06
0.511127
1.49822e-06
0.511128
1.33717e-06
0.511128
1.42604e-06
0.511129
1.59877e-06
0.511129
1.79854e-06
0.511129
2.04428e-06
0.511129
2.15429e-06
0.511129
2.23909e-06
0.511129
2.28922e-06
0.51113
2.08144e-06
0.51113
1.92056e-06
0.51113
1.99295e-06
0.511131
2.06671e-06
0.511131
2.24812e-06
0.511131
2.5332e-06
0.511131
2.61844e-06
0.511131
2.53448e-06
0.511131
2.3739e-06
0.511132
2.14843e-06
0.511132
1.94392e-06
0.511132
1.80293e-06
0.511133
1.83885e-06
0.511134
2.06454e-06
0.511134
2.26681e-06
0.511134
2.39205e-06
0.511134
2.60202e-06
0.511133
2.87005e-06
0.511133
2.97177e-06
0.511134
2.84946e-06
0.511134
2.67492e-06
0.511135
2.5875e-06
0.511135
2.49818e-06
0.511135
2.40116e-06
0.511135
2.39002e-06
0.511134
2.23129e-06
0.511135
1.93252e-06
0.511135
1.83277e-06
0.511136
1.86725e-06
0.511136
1.8471e-06
0.511136
1.85284e-06
0.511136
1.95298e-06
0.511136
1.98257e-06
0.511136
1.83509e-06
0.511136
1.65104e-06
0.511137
1.58923e-06
0.511137
1.67753e-06
0.511138
1.77553e-06
0.511138
1.94239e-06
0.511138
2.24577e-06
0.511138
2.35275e-06
0.511138
2.24396e-06
0.511138
2.09444e-06
0.511138
1.80756e-06
0.511139
1.55911e-06
0.51114
1.6873e-06
0.51114
2.1071e-06
0.51114
2.30592e-06
0.51114
2.02389e-06
0.51114
1.65244e-06
0.511141
1.56665e-06
0.511142
1.6647e-06
0.511142
1.74503e-06
0.511143
1.71657e-06
0.511143
1.58334e-06
0.511143
1.53398e-06
0.511144
1.73778e-06
0.511144
2.01722e-06
0.511144
2.09875e-06
0.511144
2.0257e-06
0.511144
1.99439e-06
0.511145
1.99791e-06
0.511145
1.90366e-06
0.511146
1.7281e-06
0.511146
1.61585e-06
0.511146
1.59024e-06
0.511146
1.59581e-06
0.511146
1.67402e-06
0.511146
1.83985e-06
0.511146
2.11358e-06
0.511147
2.465e-06
0.511147
2.60775e-06
0.511147
2.48423e-06
0.511147
2.40056e-06
0.511147
2.36559e-06
0.511147
2.21289e-06
0.511148
2.04853e-06
0.511148
1.92401e-06
0.511148
1.81704e-06
0.511149
1.94712e-06
0.511149
2.2793e-06
0.51115
2.44147e-06
0.51115
2.29889e-06
0.51115
1.94635e-06
0.51115
1.66422e-06
0.511151
1.68197e-06
0.511151
1.83397e-06
0.511151
1.93349e-06
0.511151
2.03496e-06
0.511151
2.14003e-06
0.511151
2.17483e-06
0.511151
2.14919e-06
0.511151
2.07921e-06
0.511151
2.05912e-06
0.511152
2.236e-06
0.511152
2.39577e-06
0.511153
2.26377e-06
0.511153
1.9349e-06
0.511154
1.6699e-06
0.511154
1.63842e-06
1.74526e-06
0.511094
1.18304e-07
0.511094
5.9885e-07
0.511094
1.0728e-06
0.511094
1.17738e-06
0.511095
1.1865e-06
0.511095
1.13364e-06
0.511095
9.90285e-07
0.511095
1.24269e-06
0.511095
1.50093e-06
0.511095
1.59479e-06
0.511096
1.60885e-06
0.511097
1.41533e-06
0.511097
1.54071e-06
0.511097
1.81702e-06
0.511097
1.74724e-06
0.511097
1.67992e-06
0.511097
1.8454e-06
0.511097
1.89027e-06
0.511098
1.74696e-06
0.511099
1.70925e-06
0.511099
1.62688e-06
0.5111
1.5683e-06
0.5111
1.8638e-06
0.5111
2.05712e-06
0.5111
2.14794e-06
0.5111
2.36797e-06
0.5111
2.1817e-06
0.5111
1.80814e-06
0.5111
1.55561e-06
0.511101
1.2835e-06
0.511102
1.20138e-06
0.511103
1.36483e-06
0.511103
1.98071e-06
0.511102
2.6933e-06
0.511102
2.48501e-06
0.511102
1.7982e-06
0.511103
1.67951e-06
0.511102
1.9699e-06
0.511102
2.27474e-06
0.511102
2.42262e-06
0.511102
2.20131e-06
0.511102
1.94021e-06
0.511102
1.96715e-06
0.511103
1.91416e-06
0.511103
1.66188e-06
0.511104
1.63186e-06
0.511105
1.80101e-06
0.511106
1.82548e-06
0.511106
1.68385e-06
0.511106
1.50536e-06
0.511106
1.48408e-06
0.511107
1.43697e-06
0.511108
1.44483e-06
0.511108
1.93232e-06
0.511107
2.30916e-06
0.511107
2.03473e-06
0.511108
1.69424e-06
0.511108
1.42644e-06
0.511108
1.14249e-06
0.511109
1.36336e-06
0.511108
1.74125e-06
0.511109
1.62447e-06
0.511109
1.45031e-06
0.51111
1.48303e-06
0.51111
1.60896e-06
0.511111
1.69687e-06
0.511111
1.52979e-06
0.511111
1.477e-06
0.511111
1.71417e-06
0.511111
1.84418e-06
0.511111
1.90201e-06
0.511111
1.78603e-06
0.511112
1.41434e-06
0.511112
1.37983e-06
0.511113
1.64661e-06
0.511113
1.74897e-06
0.511113
1.85948e-06
0.511113
1.78774e-06
0.511113
1.34232e-06
0.511113
9.40086e-07
0.511114
8.06751e-07
0.511115
9.8975e-07
0.511114
1.33095e-06
0.511114
1.6389e-06
0.511114
1.84885e-06
0.511115
1.67863e-06
0.511115
1.4423e-06
0.511116
1.60833e-06
0.511116
1.70353e-06
0.511116
1.60933e-06
0.511116
1.77619e-06
0.511116
2.22991e-06
0.511116
2.56162e-06
0.511116
2.37836e-06
0.511117
1.99126e-06
0.511117
1.85107e-06
0.511118
1.79763e-06
0.511118
1.91524e-06
0.511118
2.04318e-06
0.511118
1.84271e-06
0.511118
1.86541e-06
0.511118
2.08868e-06
0.511119
2.09637e-06
0.511119
2.12002e-06
0.511119
1.98417e-06
0.511119
1.69423e-06
0.511119
1.5536e-06
0.51112
1.40339e-06
0.51112
1.3006e-06
0.51112
1.36249e-06
0.51112
1.56654e-06
0.51112
1.84153e-06
0.51112
1.90066e-06
0.511121
1.87234e-06
0.511121
1.93992e-06
0.511122
1.94264e-06
0.511122
1.92933e-06
0.511121
1.87907e-06
0.511122
1.83191e-06
0.511122
1.98241e-06
0.511123
2.13133e-06
0.511123
2.19823e-06
0.511123
2.21289e-06
0.511123
2.01048e-06
0.511123
1.93888e-06
0.511123
2.16222e-06
0.511123
2.28971e-06
0.511123
2.30449e-06
0.511123
2.0807e-06
0.511124
1.59731e-06
0.511125
1.51261e-06
0.511125
1.85859e-06
0.511125
2.09672e-06
0.511125
2.04214e-06
0.511125
1.75936e-06
0.511125
1.49891e-06
0.511126
1.37242e-06
0.511126
1.28176e-06
0.511127
1.33458e-06
0.511127
1.49013e-06
0.511127
1.50207e-06
0.511127
1.40382e-06
0.511127
1.21717e-06
0.511128
9.72937e-07
0.511129
1.05122e-06
0.511129
1.49038e-06
0.511129
1.91664e-06
0.51113
2.14352e-06
0.51113
2.11387e-06
0.51113
1.97011e-06
0.51113
1.85316e-06
0.51113
1.77508e-06
0.51113
1.8556e-06
0.511131
1.99773e-06
0.511131
2.11928e-06
0.511131
2.32209e-06
0.511131
2.32169e-06
0.511132
1.98964e-06
0.511132
1.72991e-06
0.511133
1.63736e-06
0.511133
1.64404e-06
0.511133
1.81013e-06
0.511133
1.97196e-06
0.511133
2.08895e-06
0.511133
2.2984e-06
0.511133
2.49976e-06
0.511133
2.65265e-06
0.511134
2.82899e-06
0.511134
2.89757e-06
0.511133
2.78771e-06
0.511133
2.59861e-06
0.511134
2.2713e-06
0.511134
1.92099e-06
0.511135
1.93536e-06
0.511135
2.11797e-06
0.511135
2.01971e-06
0.511135
1.75165e-06
0.511135
1.57773e-06
0.511135
1.50349e-06
0.511136
1.40894e-06
0.511136
1.3959e-06
0.511137
1.52524e-06
0.511137
1.5051e-06
0.511137
1.38823e-06
0.511138
1.40743e-06
0.511138
1.48025e-06
0.511138
1.59551e-06
0.511138
1.74723e-06
0.511139
1.88268e-06
0.511139
2.00755e-06
0.511139
2.00078e-06
0.511139
1.88945e-06
0.511139
1.84738e-06
0.511139
1.67641e-06
0.511139
1.33e-06
0.51114
1.34053e-06
0.511141
1.73925e-06
0.511141
1.9469e-06
0.511141
1.81263e-06
0.511141
1.55451e-06
0.511141
1.37032e-06
0.511141
1.35637e-06
0.511142
1.43219e-06
0.511142
1.47994e-06
0.511142
1.46412e-06
0.511142
1.45488e-06
0.511143
1.55507e-06
0.511143
1.70211e-06
0.511143
1.71994e-06
0.511144
1.61826e-06
0.511144
1.53015e-06
0.511145
1.416e-06
0.511145
1.22918e-06
0.511146
1.13655e-06
0.511146
1.26308e-06
0.511146
1.53783e-06
0.511146
1.77027e-06
0.511146
1.82169e-06
0.511146
1.85168e-06
0.511147
2.0003e-06
0.511147
2.12385e-06
0.511147
2.17492e-06
0.511148
2.13505e-06
0.511148
1.93932e-06
0.511149
1.79224e-06
0.511149
1.86927e-06
0.511149
2.05232e-06
0.511148
2.16688e-06
0.511148
2.13836e-06
0.511148
2.06066e-06
0.511149
2.02264e-06
0.511149
1.92705e-06
0.511149
1.70225e-06
0.51115
1.50274e-06
0.51115
1.55718e-06
0.51115
1.80637e-06
0.51115
1.92695e-06
0.51115
1.88149e-06
0.51115
1.86561e-06
0.51115
1.88385e-06
0.511151
1.947e-06
0.511151
2.0552e-06
0.511151
2.01609e-06
0.511151
1.80097e-06
0.511152
1.67329e-06
0.511152
1.68777e-06
0.511153
1.61497e-06
0.511153
1.42635e-06
0.511153
1.349e-06
1.41347e-06
0.511094
8.02061e-08
0.511094
2.90943e-07
0.511095
4.73279e-07
0.511096
5.81852e-07
0.511096
6.46461e-07
0.511096
9.09978e-07
0.511096
1.12778e-06
0.511096
1.28812e-06
0.511096
1.56299e-06
0.511096
1.61912e-06
0.511096
1.45683e-06
0.511096
1.2103e-06
0.511097
1.06604e-06
0.511098
1.19158e-06
0.511098
1.50917e-06
0.511098
1.70224e-06
0.511098
1.56684e-06
0.511098
1.5565e-06
0.511098
1.77463e-06
0.511099
1.57519e-06
0.511099
1.27527e-06
0.511099
1.43409e-06
0.511099
1.47432e-06
0.5111
1.58845e-06
0.5111
1.97813e-06
0.5111
2.1126e-06
0.5111
2.13213e-06
0.5111
1.88074e-06
0.5111
1.45233e-06
0.5111
1.44517e-06
0.5111
1.69228e-06
0.511099
1.95942e-06
0.511099
1.94923e-06
0.5111
1.55349e-06
0.511101
1.48831e-06
0.511101
1.76593e-06
0.511101
1.93044e-06
0.511101
1.89025e-06
0.511102
1.49039e-06
0.511103
1.21885e-06
0.511104
1.42595e-06
0.511104
1.62792e-06
0.511105
1.62392e-06
0.511105
1.59195e-06
0.511105
1.75737e-06
0.511104
2.03418e-06
0.511104
1.84036e-06
0.511105
1.405e-06
0.511105
1.25091e-06
0.511105
1.31537e-06
0.511105
1.57333e-06
0.511105
1.67117e-06
0.511105
1.43449e-06
0.511105
1.53843e-06
0.511106
2.00656e-06
0.511106
2.00714e-06
0.511106
1.40644e-06
0.511107
9.82541e-07
0.511107
1.14268e-06
0.511107
1.34477e-06
0.511107
1.24172e-06
0.511108
1.11016e-06
0.511108
1.07243e-06
0.511108
1.09385e-06
0.511109
1.21577e-06
0.511109
1.28447e-06
0.51111
1.15711e-06
0.51111
1.16505e-06
0.51111
1.50883e-06
0.51111
1.82194e-06
0.51111
1.76208e-06
0.511111
1.42157e-06
0.511111
1.18115e-06
0.511111
1.22779e-06
0.511111
1.44505e-06
0.511111
1.55114e-06
0.511112
1.38125e-06
0.511112
1.15791e-06
0.511113
1.04823e-06
0.511113
9.52319e-07
0.511113
8.0997e-07
0.511113
6.69933e-07
0.511114
7.22132e-07
0.511114
1.07294e-06
0.511115
1.40542e-06
0.511115
1.44604e-06
0.511115
1.18187e-06
0.511116
1.09565e-06
0.511116
1.45849e-06
0.511116
1.60017e-06
0.511116
1.53196e-06
0.511117
1.89401e-06
0.511117
2.23451e-06
0.511117
2.15344e-06
0.511117
1.93752e-06
0.511117
1.65664e-06
0.511118
1.45138e-06
0.511118
1.42849e-06
0.511119
1.59236e-06
0.511119
1.85456e-06
0.511119
1.88704e-06
0.511119
1.83854e-06
0.511119
1.89673e-06
0.511119
1.75407e-06
0.51112
1.53289e-06
0.51112
1.44972e-06
0.51112
1.27183e-06
0.511121
1.097e-06
0.511121
1.15602e-06
0.511121
1.30134e-06
0.511121
1.45694e-06
0.511121
1.57338e-06
0.511121
1.67069e-06
0.511122
1.78596e-06
0.511122
1.62952e-06
0.511122
1.36479e-06
0.511123
1.45498e-06
0.511123
1.71853e-06
0.511123
1.94138e-06
0.511123
2.0686e-06
0.511123
1.93975e-06
0.511124
1.79068e-06
0.511124
1.81053e-06
0.511124
1.75217e-06
0.511124
1.60883e-06
0.511125
1.67063e-06
0.511125
1.91454e-06
0.511126
2.02325e-06
0.511126
1.9465e-06
0.511126
1.80424e-06
0.511125
1.64901e-06
0.511126
1.63299e-06
0.511126
1.68361e-06
0.511127
1.55306e-06
0.511127
1.43439e-06
0.511127
1.45643e-06
0.511127
1.40718e-06
0.511127
1.30875e-06
0.511127
1.1318e-06
0.511128
8.7636e-07
0.511128
7.69853e-07
0.511129
7.45648e-07
0.511129
8.01621e-07
0.511129
1.059e-06
0.511129
1.24658e-06
0.511129
1.37645e-06
0.51113
1.57827e-06
0.51113
1.57429e-06
0.511131
1.45374e-06
0.511131
1.47662e-06
0.511132
1.5231e-06
0.511132