/*--------------------------------*- C++ -*----------------------------------*\
| =========                 |                                                 |
| \\      /  F ield         | OpenFOAM: The Open Source CFD Toolbox           |
|  \\    /   O peration     | Version:  2406                                  |
|   \\  /    A nd           | Website:  www.openfoam.com                      |
|    \\/     M anipulation  |                                                 |
\*---------------------------------------------------------------------------*/
FoamFile
{
    version     2.0;
    format      ascii;
    arch        "LSB;label=32;scalar=64";
    class       volVectorField;
    location    "1.75";
    object      U;
}
// * * * * * * * * * * * * * * * * * * * * * * * * * * * * * * * * * * * * * //

dimensions      [0 1 -1 0 0 0 0];

internalField   nonuniform List<vector> 
6250
(
(50.5444 9.90894e-05 0)
(85.4545 0.000548442 0)
(73.2834 0.000858002 0)
(60.6372 0.000844141 0)
(59.8927 0.000750354 0)
(63.3519 0.000771641 0)
(64.8614 0.000827105 0)
(64.41 0.000798231 0)
(63.793 0.0007152 0)
(63.6904 0.000681097 0)
(63.833 0.00073378 0)
(63.9173 0.000832798 0)
(63.9067 0.000894863 0)
(63.8772 0.000871832 0)
(63.8684 0.000812601 0)
(63.8731 0.000780114 0)
(63.8769 0.000782601 0)
(63.8764 0.000809013 0)
(63.8744 0.000839416 0)
(63.8732 0.000869499 0)
(63.8726 0.000903376 0)
(63.8721 0.000905779 0)
(63.8715 0.000881691 0)
(63.8707 0.000858596 0)
(63.87 0.000830307 0)
(63.8694 0.000809322 0)
(63.8686 0.000812617 0)
(63.8681 0.000842054 0)
(63.8674 0.000889968 0)
(63.8667 0.000922789 0)
(63.8661 0.000921734 0)
(63.8654 0.000905102 0)
(63.8646 0.000860724 0)
(63.864 0.000786704 0)
(63.8635 0.000759161 0)
(63.8628 0.000807072 0)
(63.8621 0.00089147 0)
(63.8615 0.00098763 0)
(63.8607 0.00103334 0)
(63.8599 0.000979532 0)
(63.8593 0.000871798 0)
(63.8587 0.000771502 0)
(63.8581 0.000736106 0)
(63.8574 0.000805192 0)
(63.8567 0.000939502 0)
(63.8558 0.00104648 0)
(63.8551 0.00104614 0)
(63.8544 0.000961575 0)
(63.8537 0.000884302 0)
(63.8531 0.000845557 0)
(63.8525 0.000842482 0)
(63.8518 0.000861437 0)
(63.8512 0.000872623 0)
(63.8505 0.000891562 0)
(63.8499 0.000921936 0)
(63.8492 0.000931208 0)
(63.8485 0.000915753 0)
(63.8478 0.0008871 0)
(63.8471 0.000866999 0)
(63.8465 0.000864989 0)
(63.8459 0.000882262 0)
(63.8453 0.000942543 0)
(63.8445 0.00100641 0)
(63.8437 0.00100483 0)
(63.8432 0.000958376 0)
(63.8425 0.00090495 0)
(63.8419 0.000853862 0)
(63.8413 0.000837439 0)
(63.8405 0.000864944 0)
(63.8398 0.00091178 0)
(63.8391 0.000961774 0)
(63.8384 0.00100776 0)
(63.8376 0.0010536 0)
(63.8369 0.00107953 0)
(63.8361 0.00105147 0)
(63.8354 0.000987062 0)
(63.8347 0.000927168 0)
(63.8341 0.000901503 0)
(63.8335 0.000924858 0)
(63.8327 0.000969527 0)
(63.832 0.000998729 0)
(63.8314 0.00100809 0)
(63.8307 0.00100113 0)
(63.8301 0.000974496 0)
(63.8295 0.000943393 0)
(63.8288 0.000934664 0)
(63.828 0.000938397 0)
(63.8273 0.000934257 0)
(63.8266 0.000942112 0)
(63.8259 0.000960473 0)
(63.8252 0.000968575 0)
(63.8245 0.000986531 0)
(63.8238 0.00100354 0)
(63.823 0.000990745 0)
(63.8224 0.000967093 0)
(63.8217 0.000950341 0)
(63.8211 0.000945364 0)
(63.8204 0.000924415 0)
(63.8197 0.000873067 0)
(63.8191 0.000848815 0)
(63.8184 0.000860294 0)
(63.8178 0.000888227 0)
(63.8171 0.000949842 0)
(63.8163 0.00101008 0)
(63.8156 0.00103538 0)
(63.8149 0.00104107 0)
(63.8141 0.00103473 0)
(63.8135 0.00102689 0)
(63.8129 0.00101461 0)
(63.8122 0.00097873 0)
(63.8116 0.000938615 0)
(63.8109 0.000920535 0)
(63.8102 0.000915407 0)
(63.8096 0.000918021 0)
(63.8089 0.000928687 0)
(63.8082 0.000947466 0)
(63.8075 0.000985828 0)
(63.8068 0.0010235 0)
(63.806 0.00103389 0)
(63.8053 0.00103913 0)
(63.8047 0.00105118 0)
(63.8039 0.00104176 0)
(63.8032 0.000995209 0)
(63.8026 0.000927626 0)
(63.8019 0.000869045 0)
(63.8013 0.00084956 0)
(63.8006 0.000877882 0)
(63.7999 0.000931877 0)
(63.7993 0.000986006 0)
(63.7986 0.00102671 0)
(63.7978 0.00103731 0)
(63.7971 0.00100441 0)
(63.7965 0.000946445 0)
(63.7958 0.000895428 0)
(63.7952 0.000866 0)
(63.7945 0.000869367 0)
(63.7939 0.000901947 0)
(63.7932 0.000941828 0)
(63.7925 0.000973317 0)
(63.7918 0.00098462 0)
(63.7912 0.000975491 0)
(63.7905 0.000949166 0)
(63.7898 0.000916888 0)
(63.7892 0.000912667 0)
(63.7885 0.00094712 0)
(63.7878 0.00100445 0)
(63.7871 0.00105773 0)
(63.7864 0.00106098 0)
(63.7856 0.00100651 0)
(63.785 0.000938291 0)
(63.7843 0.000897363 0)
(63.7837 0.000904702 0)
(63.783 0.000948802 0)
(63.7823 0.000996976 0)
(63.7816 0.00102464 0)
(63.7809 0.00101687 0)
(63.7802 0.000981708 0)
(63.7795 0.000940508 0)
(63.7788 0.000902097 0)
(63.7781 0.000883307 0)
(63.7774 0.000904895 0)
(63.7767 0.000963111 0)
(63.776 0.00103665 0)
(63.7753 0.00109327 0)
(63.7745 0.00110212 0)
(63.7738 0.00105622 0)
(63.7732 0.000982486 0)
(63.7725 0.000934801 0)
(63.7718 0.000943261 0)
(63.7711 0.000983049 0)
(63.7703 0.00102131 0)
(63.7696 0.00104426 0)
(63.7688 0.0010377 0)
(63.7681 0.00100487 0)
(63.7675 0.000974436 0)
(63.7668 0.000951783 0)
(63.7661 0.000929378 0)
(63.7655 0.000922314 0)
(63.7649 0.000938467 0)
(63.7642 0.000966022 0)
(63.7636 0.000988043 0)
(63.7628 0.000992655 0)
(63.7622 0.000976962 0)
(63.7615 0.000937674 0)
(63.7608 0.000888725 0)
(63.7602 0.000880001 0)
(63.7596 0.000939737 0)
(63.7589 0.00102437 0)
(63.7581 0.00107702 0)
(63.7574 0.00107213 0)
(63.7567 0.00100604 0)
(63.7561 0.000912679 0)
(63.7555 0.000851505 0)
(63.7549 0.00085988 0)
(63.7542 0.000922853 0)
(63.7535 0.000991413 0)
(63.7528 0.00103955 0)
(63.7522 0.00105783 0)
(63.7514 0.00102494 0)
(63.7508 0.000954662 0)
(63.7502 0.000906811 0)
(63.7495 0.000916817 0)
(63.7489 0.000970698 0)
(63.7482 0.00104131 0)
(63.7474 0.00109962 0)
(63.7466 0.00111518 0)
(63.7459 0.00108069 0)
(63.7452 0.00101807 0)
(63.7445 0.000955214 0)
(63.7439 0.000918652 0)
(63.7433 0.000937264 0)
(63.7426 0.00100873 0)
(63.7418 0.00107085 0)
(63.7411 0.0010616 0)
(63.7404 0.000995284 0)
(63.7398 0.000936338 0)
(63.7392 0.000924834 0)
(63.7385 0.000954937 0)
(63.7378 0.000994653 0)
(63.7371 0.00102229 0)
(63.7364 0.00104811 0)
(63.7357 0.00107442 0)
(63.735 0.00107188 0)
(63.7343 0.00102701 0)
(63.7336 0.000963135 0)
(63.733 0.000911076 0)
(63.7324 0.000892815 0)
(63.7318 0.00091601 0)
(63.7311 0.000965442 0)
(63.7304 0.00101892 0)
(63.7297 0.00106105 0)
(63.729 0.00106923 0)
(63.7282 0.00102459 0)
(63.7276 0.00094353 0)
(63.727 0.000876611 0)
(63.7264 0.000872642 0)
(63.7258 0.000922993 0)
(63.7251 0.000968947 0)
(63.7244 0.000977595 0)
(63.7237 0.000958625 0)
(63.7231 0.000931256 0)
(63.7224 0.000908787 0)
(63.7218 0.000896795 0)
(63.7211 0.000902794 0)
(63.7205 0.000935326 0)
(63.7198 0.000991031 0)
(63.719 0.00105145 0)
(63.7183 0.00106995 0)
(63.7176 0.00107296 0)
(63.7165 0.00100091 0)
(50.5447 8.51068e-05 0)
(85.4557 0.000472133 0)
(73.2866 0.00072288 0)
(60.6421 0.000640476 0)
(59.8983 0.000477451 0)
(63.3583 0.000464278 0)
(64.869 0.000525204 0)
(64.4187 0.000529234 0)
(63.8025 0.000492351 0)
(63.7007 0.000453108 0)
(63.8442 0.000423294 0)
(63.9295 0.000426242 0)
(63.9202 0.000463777 0)
(63.8919 0.000503247 0)
(63.884 0.000514469 0)
(63.8898 0.00051311 0)
(63.8947 0.000511093 0)
(63.8951 0.000516536 0)
(63.8942 0.000533217 0)
(63.894 0.000534132 0)
(63.8946 0.000520847 0)
(63.8952 0.000507525 0)
(63.8956 0.00050663 0)
(63.896 0.000524738 0)
(63.8963 0.00054475 0)
(63.8966 0.000535705 0)
(63.8968 0.000481099 0)
(63.8972 0.00042595 0)
(63.8975 0.000412221 0)
(63.8978 0.000422217 0)
(63.8983 0.000443426 0)
(63.8988 0.000485872 0)
(63.8992 0.000502852 0)
(63.8996 0.000456793 0)
(63.8998 0.000426577 0)
(63.9 0.000440916 0)
(63.9003 0.000432693 0)
(63.9007 0.00041829 0)
(63.9013 0.000435309 0)
(63.9017 0.00045954 0)
(63.9019 0.000482345 0)
(63.9022 0.00049764 0)
(63.9023 0.00049116 0)
(63.9026 0.000475977 0)
(63.9031 0.000477553 0)
(63.9036 0.000494906 0)
(63.9042 0.00049569 0)
(63.9046 0.000479022 0)
(63.9048 0.000476987 0)
(63.9051 0.000464533 0)
(63.9054 0.000420285 0)
(63.9059 0.00039856 0)
(63.9063 0.000413585 0)
(63.9065 0.000422637 0)
(63.9069 0.000421299 0)
(63.9073 0.000442919 0)
(63.9076 0.000479117 0)
(63.9081 0.000468021 0)
(63.9084 0.000417915 0)
(63.9087 0.000382982 0)
(63.9089 0.000362525 0)
(63.9094 0.000365858 0)
(63.9099 0.000390836 0)
(63.9104 0.000400411 0)
(63.9107 0.000399124 0)
(63.911 0.000402309 0)
(63.9113 0.000411541 0)
(63.9116 0.00043379 0)
(63.912 0.000459644 0)
(63.9124 0.000481039 0)
(63.9128 0.000492681 0)
(63.9132 0.000475599 0)
(63.9136 0.00044735 0)
(63.9141 0.000435215 0)
(63.9146 0.00042753 0)
(63.915 0.000416457 0)
(63.9153 0.000403781 0)
(63.9157 0.000398854 0)
(63.916 0.000405845 0)
(63.9164 0.000398362 0)
(63.9168 0.000371038 0)
(63.9172 0.00034695 0)
(63.9177 0.000339418 0)
(63.918 0.000348441 0)
(63.9184 0.000372385 0)
(63.9188 0.000416242 0)
(63.9192 0.000454523 0)
(63.9196 0.000457544 0)
(63.9199 0.000455541 0)
(63.9204 0.000465231 0)
(63.9207 0.000456199 0)
(63.9211 0.000429941 0)
(63.9216 0.000409773 0)
(63.922 0.000406035 0)
(63.9222 0.00041034 0)
(63.9225 0.000409606 0)
(63.9229 0.000417721 0)
(63.9233 0.00041716 0)
(63.9236 0.0003986 0)
(63.9239 0.000410867 0)
(63.9243 0.000430088 0)
(63.9246 0.000428344 0)
(63.9249 0.000445136 0)
(63.9253 0.00045774 0)
(63.9257 0.00043404 0)
(63.9262 0.000391326 0)
(63.9265 0.000354295 0)
(63.9269 0.000342328 0)
(63.9273 0.000337339 0)
(63.9277 0.000327157 0)
(63.928 0.000337167 0)
(63.9284 0.00036933 0)
(63.9288 0.000396795 0)
(63.9291 0.000414367 0)
(63.9295 0.000430149 0)
(63.9298 0.000432166 0)
(63.9301 0.000419977 0)
(63.9306 0.000399681 0)
(63.9311 0.000367748 0)
(63.9315 0.000354197 0)
(63.9319 0.000381227 0)
(63.9323 0.000416305 0)
(63.9327 0.000434471 0)
(63.933 0.0004417 0)
(63.9333 0.000435064 0)
(63.9336 0.000416229 0)
(63.9339 0.000401482 0)
(63.9342 0.000391836 0)
(63.9346 0.000389024 0)
(63.935 0.000396932 0)
(63.9354 0.000397602 0)
(63.9359 0.000383644 0)
(63.9363 0.000382622 0)
(63.9366 0.000411273 0)
(63.9369 0.000437733 0)
(63.9371 0.000436474 0)
(63.9375 0.000421679 0)
(63.9379 0.000407203 0)
(63.9382 0.000399166 0)
(63.9387 0.000397172 0)
(63.939 0.000393823 0)
(63.9394 0.000381102 0)
(63.9398 0.00035794 0)
(63.9401 0.000340326 0)
(63.9405 0.000336564 0)
(63.9409 0.000350034 0)
(63.9414 0.000385498 0)
(63.9419 0.000424122 0)
(63.9423 0.000444814 0)
(63.9426 0.00044053 0)
(63.9428 0.000415256 0)
(63.9431 0.00038611 0)
(63.9434 0.000368402 0)
(63.9438 0.00037108 0)
(63.9442 0.000390561 0)
(63.9447 0.000417385 0)
(63.9451 0.000454278 0)
(63.9454 0.000487047 0)
(63.9457 0.000484805 0)
(63.946 0.000454669 0)
(63.9464 0.000425059 0)
(63.9467 0.000401377 0)
(63.9472 0.000384301 0)
(63.9476 0.000378448 0)
(63.948 0.000381777 0)
(63.9484 0.000385421 0)
(63.9487 0.000387328 0)
(63.949 0.000406288 0)
(63.9494 0.000446305 0)
(63.9497 0.000472054 0)
(63.9501 0.000463897 0)
(63.9505 0.000443627 0)
(63.9509 0.000420482 0)
(63.9513 0.000389131 0)
(63.9516 0.000370869 0)
(63.952 0.000373612 0)
(63.9523 0.000373325 0)
(63.9526 0.000361097 0)
(63.9529 0.000348969 0)
(63.9533 0.000353908 0)
(63.9537 0.000372005 0)
(63.9541 0.000393844 0)
(63.9545 0.000425603 0)
(63.9548 0.000438839 0)
(63.9551 0.000401612 0)
(63.9554 0.000344636 0)
(63.9558 0.00031677 0)
(63.9563 0.000327663 0)
(63.9567 0.000357071 0)
(63.9571 0.000387346 0)
(63.9575 0.000404769 0)
(63.9578 0.000400059 0)
(63.958 0.000384172 0)
(63.9582 0.000377142 0)
(63.9586 0.000374139 0)
(63.959 0.000350271 0)
(63.9594 0.000324288 0)
(63.9599 0.000339928 0)
(63.9603 0.000375693 0)
(63.9606 0.000381955 0)
(63.9608 0.000361 0)
(63.9611 0.000341132 0)
(63.9615 0.000331607 0)
(63.962 0.000336107 0)
(63.9625 0.000359587 0)
(63.963 0.000387744 0)
(63.9635 0.00040587 0)
(63.9639 0.000414964 0)
(63.9642 0.000407555 0)
(63.9644 0.000377618 0)
(63.9647 0.000347904 0)
(63.9651 0.000345133 0)
(63.9656 0.000361325 0)
(63.9661 0.000367387 0)
(63.9664 0.000354002 0)
(63.9668 0.000343613 0)
(63.9671 0.000356193 0)
(63.9675 0.000385588 0)
(63.968 0.000405191 0)
(63.9683 0.000395221 0)
(63.9687 0.000373811 0)
(63.9691 0.000367892 0)
(63.9696 0.000370787 0)
(63.9699 0.000365601 0)
(63.9702 0.000349673 0)
(63.9705 0.000327075 0)
(63.9707 0.000308628 0)
(63.9711 0.000312609 0)
(63.9714 0.00033753 0)
(63.9718 0.000359022 0)
(63.9722 0.000376712 0)
(63.9727 0.000403192 0)
(63.973 0.000418303 0)
(63.9733 0.000395033 0)
(63.9736 0.000342367 0)
(63.9738 0.000306481 0)
(63.9742 0.000322273 0)
(63.9746 0.000363322 0)
(63.9749 0.000385322 0)
(63.9753 0.000386123 0)
(63.9757 0.000386754 0)
(63.976 0.000396447 0)
(63.9763 0.000406607 0)
(63.9765 0.000400653 0)
(63.9769 0.000382408 0)
(63.9773 0.000376831 0)
(63.9777 0.000395317 0)
(63.9782 0.000411736 0)
(63.9786 0.000443558 0)
(63.9793 0.000412961 0)
(50.5446 1.99227e-05 0)
(85.4552 4.93793e-05 0)
(73.2854 4.82535e-05 0)
(60.6402 6.43738e-05 0)
(59.8961 7.46385e-05 0)
(63.3558 6.28949e-05 0)
(64.8661 6.58595e-05 0)
(64.4154 0.000105785 0)
(63.7991 0.000165195 0)
(63.6973 0.000185857 0)
(63.8404 0.000135281 0)
(63.9252 6.12631e-05 0)
(63.9153 2.42901e-05 0)
(63.8865 4.07555e-05 0)
(63.8785 7.21819e-05 0)
(63.884 0.00011427 0)
(63.8886 0.000183916 0)
(63.8886 0.000224874 0)
(63.8873 0.000201793 0)
(63.887 0.000148635 0)
(63.8871 0.000118627 0)
(63.8873 0.000116817 0)
(63.8875 0.00012617 0)
(63.8874 0.000147241 0)
(63.8874 0.000177581 0)
(63.8877 0.000217539 0)
(63.8877 0.000239289 0)
(63.8877 0.000235035 0)
(63.8877 0.000215965 0)
(63.8875 0.000130125 0)
(63.8876 1.67148e-05 0)
(63.8877 1.41456e-05 0)
(63.8877 0.000109977 0)
(63.8878 0.000222152 0)
(63.8878 0.000321525 0)
(63.8878 0.00034004 0)
(63.8879 0.000252525 0)
(63.8879 0.000147623 0)
(63.8878 0.000116709 0)
(63.8879 0.000170695 0)
(63.8879 0.000253449 0)
(63.8881 0.000318392 0)
(63.8881 0.000335297 0)
(63.8881 0.000277625 0)
(63.8881 0.000171104 0)
(63.888 6.97873e-05 0)
(63.888 3.53801e-05 0)
(63.888 9.71753e-05 0)
(63.888 0.000186764 0)
(63.8882 0.000213905 0)
(63.8883 0.000169847 0)
(63.8882 0.0001399 0)
(63.8883 0.000179558 0)
(63.8883 0.000217843 0)
(63.8883 0.000199385 0)
(63.8883 0.000171785 0)
(63.8884 0.000179979 0)
(63.8885 0.00019497 0)
(63.8885 0.000190648 0)
(63.8886 0.000191018 0)
(63.8887 0.000197899 0)
(63.8886 0.000192204 0)
(63.8885 0.00017573 0)
(63.8885 0.000167932 0)
(63.8886 0.000180912 0)
(63.8887 0.000198727 0)
(63.8887 0.000217199 0)
(63.8888 0.000237649 0)
(63.8888 0.000239375 0)
(63.8888 0.00022216 0)
(63.8889 0.000209393 0)
(63.889 0.000195435 0)
(63.8889 0.000165608 0)
(63.8889 0.000137322 0)
(63.8889 0.000135384 0)
(63.889 0.000167886 0)
(63.889 0.000203166 0)
(63.889 0.000212419 0)
(63.8892 0.000211314 0)
(63.8892 0.000190261 0)
(63.8892 0.000143336 0)
(63.8893 0.000116979 0)
(63.8893 0.000133737 0)
(63.8893 0.00017695 0)
(63.8894 0.000220441 0)
(63.8894 0.000247138 0)
(63.8894 0.000256275 0)
(63.8895 0.000231483 0)
(63.8895 0.000175517 0)
(63.8896 0.00014797 0)
(63.8897 0.000167452 0)
(63.8897 0.000193655 0)
(63.8896 0.000227308 0)
(63.8896 0.000277242 0)
(63.8897 0.000303585 0)
(63.8897 0.000264516 0)
(63.8897 0.000189913 0)
(63.8898 0.000159616 0)
(63.8898 0.000188132 0)
(63.8899 0.000241019 0)
(63.89 0.000286838 0)
(63.8899 0.000296978 0)
(63.8899 0.000281042 0)
(63.89 0.000253042 0)
(63.89 0.000218681 0)
(63.8901 0.000196741 0)
(63.89 0.000191195 0)
(63.89 0.000196794 0)
(63.8901 0.000202892 0)
(63.8901 0.000204566 0)
(63.8902 0.000210716 0)
(63.8902 0.000226737 0)
(63.8902 0.000246738 0)
(63.8902 0.000254126 0)
(63.8902 0.000259598 0)
(63.8903 0.000265644 0)
(63.8903 0.000246219 0)
(63.8903 0.000227041 0)
(63.8903 0.000227591 0)
(63.8902 0.000212703 0)
(63.8902 0.000188758 0)
(63.8903 0.000183154 0)
(63.8903 0.000192043 0)
(63.8904 0.000226887 0)
(63.8905 0.000280027 0)
(63.8905 0.000307849 0)
(63.8906 0.000309971 0)
(63.8906 0.000298075 0)
(63.8906 0.000268223 0)
(63.8906 0.000230596 0)
(63.8905 0.000179752 0)
(63.8905 0.000128137 0)
(63.8906 0.000125436 0)
(63.8907 0.000182142 0)
(63.8908 0.000250556 0)
(63.8909 0.000278416 0)
(63.8909 0.000259655 0)
(63.891 0.000219029 0)
(63.891 0.000177612 0)
(63.891 0.000155595 0)
(63.8911 0.000172843 0)
(63.8912 0.000225147 0)
(63.8912 0.000271478 0)
(63.8913 0.000276229 0)
(63.8913 0.000234486 0)
(63.8912 0.000169873 0)
(63.8912 0.00013718 0)
(63.8912 0.000166304 0)
(63.8913 0.000235965 0)
(63.8914 0.000303959 0)
(63.8914 0.000328993 0)
(63.8915 0.000304856 0)
(63.8916 0.000256329 0)
(63.8915 0.000207591 0)
(63.8915 0.00018301 0)
(63.8914 0.000196944 0)
(63.8914 0.00024092 0)
(63.8914 0.000288781 0)
(63.8916 0.000305024 0)
(63.8916 0.000284914 0)
(63.8917 0.000262997 0)
(63.8918 0.000249964 0)
(63.8917 0.000231164 0)
(63.8917 0.000207882 0)
(63.8917 0.000197503 0)
(63.8917 0.000222886 0)
(63.8917 0.000277827 0)
(63.8917 0.000326014 0)
(63.8917 0.00035068 0)
(63.8917 0.000349743 0)
(63.8917 0.000314855 0)
(63.8917 0.000262057 0)
(63.8917 0.000227694 0)
(63.8918 0.000213936 0)
(63.8918 0.000213131 0)
(63.8919 0.000242155 0)
(63.8919 0.000282246 0)
(63.892 0.000284072 0)
(63.892 0.00024396 0)
(63.892 0.000206653 0)
(63.892 0.000192054 0)
(63.892 0.000181367 0)
(63.8921 0.000190852 0)
(63.8923 0.000236913 0)
(63.8924 0.000280566 0)
(63.8924 0.000286834 0)
(63.8924 0.000258953 0)
(63.8924 0.000222761 0)
(63.8924 0.000200125 0)
(63.8924 0.000204195 0)
(63.8924 0.000243701 0)
(63.8925 0.000301135 0)
(63.8926 0.000337212 0)
(63.8927 0.000330702 0)
(63.8927 0.000298045 0)
(63.8927 0.000249053 0)
(63.8926 0.000188371 0)
(63.8927 0.000169983 0)
(63.8927 0.00022579 0)
(63.8928 0.000296537 0)
(63.8929 0.000317011 0)
(63.8929 0.000289078 0)
(63.8929 0.000240211 0)
(63.8929 0.000188053 0)
(63.8929 0.000159594 0)
(63.8929 0.000168792 0)
(63.8929 0.000195708 0)
(63.893 0.000223432 0)
(63.8931 0.000252741 0)
(63.8932 0.000280067 0)
(63.8932 0.000283352 0)
(63.8932 0.000248059 0)
(63.8931 0.000202177 0)
(63.8932 0.000184365 0)
(63.8933 0.000191632 0)
(63.8934 0.000204147 0)
(63.8934 0.000217351 0)
(63.8935 0.000230983 0)
(63.8935 0.000246678 0)
(63.8935 0.000255951 0)
(63.8935 0.000246401 0)
(63.8934 0.000232507 0)
(63.8934 0.00024241 0)
(63.8935 0.000280958 0)
(63.8935 0.000319626 0)
(63.8935 0.000327207 0)
(63.8936 0.000305317 0)
(63.8936 0.000289672 0)
(63.8936 0.000303478 0)
(63.8936 0.000311141 0)
(63.8935 0.000279311 0)
(63.8935 0.000240721 0)
(63.8936 0.00023914 0)
(63.8937 0.00027219 0)
(63.8938 0.000297332 0)
(63.8938 0.000285416 0)
(63.8938 0.000267258 0)
(63.8939 0.000268086 0)
(63.8939 0.000261344 0)
(63.894 0.000240266 0)
(63.8941 0.00023397 0)
(63.8941 0.000258993 0)
(63.8942 0.000304455 0)
(63.8942 0.000331076 0)
(63.8942 0.000310288 0)
(63.8942 0.000258624 0)
(63.8941 0.000210874 0)
(63.8941 0.000190947 0)
(63.8941 0.000190042 0)
(63.8943 0.000207415 0)
(50.5445 1.54401e-05 0)
(85.4553 8.89646e-05 0)
(73.2855 0.000186329 0)
(60.6403 0.000290574 0)
(59.8964 0.000340104 0)
(63.3562 0.000315131 0)
(64.8664 0.000291502 0)
(64.4158 0.000299157 0)
(63.7994 0.000318542 0)
(63.6974 0.000352738 0)
(63.8407 0.000392184 0)
(63.9256 0.000412807 0)
(63.9158 0.000385194 0)
(63.8869 0.000340547 0)
(63.8787 0.000322635 0)
(63.8841 0.000325149 0)
(63.8886 0.000356875 0)
(63.8888 0.000380046 0)
(63.8876 0.000376312 0)
(63.887 0.000389158 0)
(63.8872 0.000416306 0)
(63.8875 0.000416258 0)
(63.8875 0.000395394 0)
(63.8874 0.000368287 0)
(63.8874 0.000333137 0)
(63.8874 0.000341698 0)
(63.8875 0.000391174 0)
(63.8875 0.000417299 0)
(63.8877 0.000435322 0)
(63.8878 0.00043713 0)
(63.8877 0.000391577 0)
(63.8876 0.000356126 0)
(63.8876 0.000358665 0)
(63.8875 0.000370749 0)
(63.8875 0.000371494 0)
(63.8877 0.000344333 0)
(63.8878 0.000317123 0)
(63.8878 0.00033274 0)
(63.8879 0.000376763 0)
(63.8878 0.000391885 0)
(63.8878 0.000362154 0)
(63.8879 0.00033281 0)
(63.888 0.000342171 0)
(63.8881 0.000398914 0)
(63.8882 0.0004726 0)
(63.8882 0.000505939 0)
(63.8881 0.000497434 0)
(63.8881 0.000464353 0)
(63.8881 0.000391038 0)
(63.8882 0.000328271 0)
(63.8882 0.000326498 0)
(63.8882 0.000354914 0)
(63.8882 0.000381208 0)
(63.8882 0.000377477 0)
(63.8883 0.000356705 0)
(63.8884 0.000351901 0)
(63.8883 0.00034392 0)
(63.8884 0.000320281 0)
(63.8884 0.000292336 0)
(63.8884 0.000277883 0)
(63.8885 0.000299779 0)
(63.8885 0.000344285 0)
(63.8886 0.000370992 0)
(63.8886 0.000367823 0)
(63.8886 0.0003489 0)
(63.8886 0.0003265 0)
(63.8886 0.000311426 0)
(63.8887 0.000305475 0)
(63.8888 0.000312766 0)
(63.8888 0.000334853 0)
(63.8888 0.000358462 0)
(63.8889 0.000390867 0)
(63.889 0.000424996 0)
(63.8891 0.000417734 0)
(63.8891 0.00036985 0)
(63.8891 0.000334932 0)
(63.8892 0.000323397 0)
(63.8891 0.000299362 0)
(63.8891 0.000278387 0)
(63.8893 0.000288106 0)
(63.8893 0.00029781 0)
(63.8893 0.000285382 0)
(63.8894 0.000269676 0)
(63.8894 0.000267913 0)
(63.8895 0.000283018 0)
(63.8895 0.000317092 0)
(63.8895 0.000355113 0)
(63.8896 0.000359725 0)
(63.8896 0.000326921 0)
(63.8896 0.00030727 0)
(63.8896 0.000328296 0)
(63.8897 0.000360974 0)
(63.8897 0.000389964 0)
(63.8897 0.000423951 0)
(63.8898 0.000446143 0)
(63.8898 0.000419753 0)
(63.8898 0.000351908 0)
(63.8897 0.000302708 0)
(63.8898 0.000286083 0)
(63.8898 0.000290943 0)
(63.8899 0.00033091 0)
(63.8899 0.000373047 0)
(63.8899 0.000379578 0)
(63.8899 0.000360408 0)
(63.8899 0.000343585 0)
(63.89 0.000348547 0)
(63.89 0.000352841 0)
(63.8901 0.000336759 0)
(63.8901 0.000311643 0)
(63.8902 0.000290744 0)
(63.8902 0.000279046 0)
(63.8902 0.000284058 0)
(63.8903 0.000318345 0)
(63.8903 0.000353201 0)
(63.8903 0.000364042 0)
(63.8903 0.000363009 0)
(63.8904 0.000339636 0)
(63.8905 0.000328369 0)
(63.8906 0.00037291 0)
(63.8906 0.000415392 0)
(63.8905 0.000413004 0)
(63.8905 0.000383679 0)
(63.8905 0.000337573 0)
(63.8905 0.000305619 0)
(63.8905 0.000304383 0)
(63.8905 0.000300099 0)
(63.8905 0.000294342 0)
(63.8906 0.000318103 0)
(63.8907 0.000365347 0)
(63.8907 0.000406257 0)
(63.8908 0.000411993 0)
(63.8907 0.000378631 0)
(63.8906 0.000325245 0)
(63.8906 0.000280737 0)
(63.8906 0.000269875 0)
(63.8907 0.000280704 0)
(63.8908 0.000301288 0)
(63.8908 0.000327192 0)
(63.8908 0.000328192 0)
(63.8908 0.00029557 0)
(63.8908 0.000256132 0)
(63.8909 0.000236048 0)
(63.891 0.000244339 0)
(63.8911 0.000273241 0)
(63.8911 0.000310099 0)
(63.8912 0.000339809 0)
(63.8911 0.000355812 0)
(63.8911 0.000359791 0)
(63.8911 0.00034922 0)
(63.8911 0.000326021 0)
(63.8912 0.000308693 0)
(63.8913 0.000320571 0)
(63.8913 0.000353845 0)
(63.8914 0.000389192 0)
(63.8914 0.000421317 0)
(63.8914 0.000429126 0)
(63.8914 0.000400683 0)
(63.8914 0.000359727 0)
(63.8915 0.000323441 0)
(63.8915 0.000296941 0)
(63.8915 0.000298535 0)
(63.8916 0.00033418 0)
(63.8917 0.000377871 0)
(63.8917 0.000398234 0)
(63.8917 0.000391029 0)
(63.8917 0.000388222 0)
(63.8917 0.000403888 0)
(63.8917 0.000414276 0)
(63.8917 0.00041365 0)
(63.8917 0.000416035 0)
(63.8918 0.00041661 0)
(63.8918 0.000398478 0)
(63.8919 0.000374485 0)
(63.8919 0.000357066 0)
(63.8918 0.000325186 0)
(63.8918 0.000294149 0)
(63.8918 0.000296045 0)
(63.8919 0.000309331 0)
(63.892 0.00030718 0)
(63.892 0.000305564 0)
(63.892 0.000316335 0)
(63.892 0.000303013 0)
(63.892 0.000258099 0)
(63.892 0.00022613 0)
(63.8921 0.000222598 0)
(63.8921 0.000245049 0)
(63.8922 0.000285437 0)
(63.8922 0.000327551 0)
(63.8922 0.000358735 0)
(63.8922 0.000353922 0)
(63.8922 0.000316742 0)
(63.8922 0.000281214 0)
(63.8923 0.000252754 0)
(63.8923 0.00023754 0)
(63.8924 0.000271584 0)
(63.8925 0.000341566 0)
(63.8925 0.000366104 0)
(63.8925 0.00032255 0)
(63.8925 0.000275294 0)
(63.8926 0.000261183 0)
(63.8927 0.000265667 0)
(63.8927 0.000276851 0)
(63.8928 0.000285772 0)
(63.8929 0.000283024 0)
(63.8929 0.000285035 0)
(63.893 0.0003057 0)
(63.893 0.000318259 0)
(63.893 0.000301663 0)
(63.8929 0.000286892 0)
(63.8929 0.000310483 0)
(63.893 0.000351799 0)
(63.8931 0.000359893 0)
(63.8932 0.000323015 0)
(63.8932 0.000272402 0)
(63.8932 0.000233259 0)
(63.8932 0.000213831 0)
(63.8932 0.000222203 0)
(63.8933 0.000258128 0)
(63.8933 0.000320403 0)
(63.8933 0.000392225 0)
(63.8933 0.000427869 0)
(63.8933 0.000412367 0)
(63.8934 0.000382138 0)
(63.8934 0.000361845 0)
(63.8934 0.000336555 0)
(63.8935 0.000296391 0)
(63.8935 0.000256915 0)
(63.8935 0.000246673 0)
(63.8936 0.000291503 0)
(63.8937 0.000361133 0)
(63.8937 0.000384724 0)
(63.8937 0.000341961 0)
(63.8937 0.0002746 0)
(63.8937 0.000237499 0)
(63.8938 0.000244743 0)
(63.8938 0.000263697 0)
(63.8939 0.00027664 0)
(63.8939 0.000288591 0)
(63.8939 0.000290547 0)
(63.8939 0.00027872 0)
(63.8939 0.000268552 0)
(63.8939 0.000270045 0)
(63.8939 0.000291416 0)
(63.894 0.000338305 0)
(63.894 0.000382873 0)
(63.8941 0.000386507 0)
(63.8941 0.000351314 0)
(63.8942 0.000307123 0)
(63.8942 0.000278197 0)
(63.8943 0.00028032 0)
(50.5446 1.39695e-05 0)
(85.4554 7.20707e-05 0)
(73.2854 0.000128873 0)
(60.6401 0.000144429 0)
(59.8962 0.000131672 0)
(63.3559 0.000101738 0)
(64.8662 7.58905e-05 0)
(64.4155 9.0778e-05 0)
(63.7991 0.000117698 0)
(63.6971 0.000140492 0)
(63.8403 0.000149696 0)
(63.9253 0.000130817 0)
(63.9156 0.000122263 0)
(63.8867 0.000149818 0)
(63.8785 0.000176823 0)
(63.884 0.000170101 0)
(63.8885 0.000161828 0)
(63.8886 0.000169437 0)
(63.8874 0.000181758 0)
(63.8869 0.000190408 0)
(63.8872 0.00017777 0)
(63.8875 0.000165511 0)
(63.8876 0.000181799 0)
(63.8875 0.000190287 0)
(63.8875 0.000175534 0)
(63.8875 0.000172546 0)
(63.8874 0.000156988 0)
(63.8875 0.00010421 0)
(63.8874 7.16901e-05 0)
(63.8875 0.000101351 0)
(63.8877 0.00013446 0)
(63.8878 0.000138114 0)
(63.8878 0.000183945 0)
(63.8879 0.000254077 0)
(63.8877 0.000245512 0)
(63.8878 0.000181233 0)
(63.8879 0.000142265 0)
(63.8878 0.000152123 0)
(63.8878 0.000198599 0)
(63.8878 0.000227744 0)
(63.8877 0.000213344 0)
(63.8878 0.000188902 0)
(63.8878 0.000173875 0)
(63.8878 0.000160613 0)
(63.8879 0.000137764 0)
(63.888 0.000127336 0)
(63.888 0.000152033 0)
(63.8882 0.000165518 0)
(63.8882 0.00012694 0)
(63.8882 9.46405e-05 0)
(63.8883 0.000109658 0)
(63.8883 0.000127971 0)
(63.8884 0.000134019 0)
(63.8885 0.000145069 0)
(63.8884 0.000163023 0)
(63.8883 0.000176053 0)
(63.8885 0.000170961 0)
(63.8885 0.000146041 0)
(63.8885 0.00010825 0)
(63.8886 9.77997e-05 0)
(63.8886 0.00012497 0)
(63.8885 0.000143646 0)
(63.8886 0.000151462 0)
(63.8887 0.000163017 0)
(63.8888 0.000170753 0)
(63.8888 0.000172051 0)
(63.8888 0.000157326 0)
(63.8889 0.000138599 0)
(63.8889 0.000144791 0)
(63.8889 0.000155532 0)
(63.889 0.000140009 0)
(63.8889 0.000108533 0)
(63.8889 7.83191e-05 0)
(63.8891 7.1656e-05 0)
(63.8891 9.44939e-05 0)
(63.8891 0.000128309 0)
(63.8891 0.000162217 0)
(63.8891 0.000154816 0)
(63.8891 9.64179e-05 0)
(63.8891 5.7222e-05 0)
(63.8892 6.35012e-05 0)
(63.8893 8.54737e-05 0)
(63.8893 0.000108988 0)
(63.8893 0.000136388 0)
(63.8893 0.000163433 0)
(63.8892 0.000170566 0)
(63.8894 0.000163302 0)
(63.8895 0.000166274 0)
(63.8895 0.000161134 0)
(63.8895 0.000140786 0)
(63.8895 0.000144537 0)
(63.8895 0.000175595 0)
(63.8895 0.000204596 0)
(63.8894 0.000212317 0)
(63.8895 0.000204732 0)
(63.8896 0.000204938 0)
(63.8897 0.000207212 0)
(63.8898 0.000211258 0)
(63.8897 0.000211964 0)
(63.8897 0.000192943 0)
(63.8897 0.00019864 0)
(63.8898 0.00022989 0)
(63.8898 0.000230053 0)
(63.8899 0.000206517 0)
(63.8898 0.000175765 0)
(63.8899 0.000144448 0)
(63.8899 0.000126142 0)
(63.8899 0.000108245 0)
(63.89 9.13983e-05 0)
(63.89 9.78311e-05 0)
(63.89 0.000129599 0)
(63.89 0.000168469 0)
(63.89 0.00020241 0)
(63.8901 0.000221756 0)
(63.8901 0.000218508 0)
(63.8902 0.000201568 0)
(63.8902 0.000173631 0)
(63.8901 0.000147095 0)
(63.8902 0.000158191 0)
(63.8903 0.000201807 0)
(63.8903 0.000233219 0)
(63.8904 0.000244221 0)
(63.8904 0.000248003 0)
(63.8903 0.00024249 0)
(63.8904 0.000242578 0)
(63.8905 0.000247061 0)
(63.8904 0.000230372 0)
(63.8904 0.000211092 0)
(63.8903 0.000195272 0)
(63.8904 0.00016514 0)
(63.8905 0.000160107 0)
(63.8906 0.000198415 0)
(63.8907 0.000225279 0)
(63.8906 0.000214557 0)
(63.8906 0.000184486 0)
(63.8907 0.00015077 0)
(63.8907 0.00013351 0)
(63.8907 0.000136455 0)
(63.8908 0.000145385 0)
(63.8909 0.000154901 0)
(63.8909 0.000149394 0)
(63.8909 0.000130294 0)
(63.8909 0.000113414 0)
(63.8909 9.90973e-05 0)
(63.891 0.00011226 0)
(63.8911 0.000160787 0)
(63.8912 0.000206365 0)
(63.8912 0.000232524 0)
(63.8912 0.000233004 0)
(63.8912 0.000205057 0)
(63.8912 0.000176405 0)
(63.8912 0.000165939 0)
(63.8913 0.000169537 0)
(63.8913 0.000186546 0)
(63.8913 0.000215506 0)
(63.8914 0.000243861 0)
(63.8914 0.000249102 0)
(63.8914 0.000223419 0)
(63.8915 0.000191471 0)
(63.8915 0.000167831 0)
(63.8916 0.00015126 0)
(63.8916 0.000154718 0)
(63.8916 0.00017565 0)
(63.8916 0.000198793 0)
(63.8916 0.000226012 0)
(63.8916 0.000260224 0)
(63.8917 0.000292421 0)
(63.8917 0.000308856 0)
(63.8917 0.0003026 0)
(63.8917 0.00028295 0)
(63.8917 0.000264804 0)
(63.8917 0.000240129 0)
(63.8917 0.000214936 0)
(63.8918 0.000219979 0)
(63.8919 0.000228221 0)
(63.8918 0.000203649 0)
(63.8918 0.000172297 0)
(63.8919 0.000155447 0)
(63.8919 0.000148093 0)
(63.8919 0.000149882 0)
(63.892 0.000170718 0)
(63.8921 0.000198814 0)
(63.8921 0.000201845 0)
(63.8922 0.000184216 0)
(63.8922 0.000169937 0)
(63.8922 0.000163921 0)
(63.8922 0.000164024 0)
(63.8922 0.000178772 0)
(63.8923 0.000213462 0)
(63.8924 0.000243386 0)
(63.8924 0.000248017 0)
(63.8924 0.000234747 0)
(63.8924 0.000209357 0)
(63.8924 0.000170308 0)
(63.8924 0.000140623 0)
(63.8925 0.000157644 0)
(63.8926 0.000196052 0)
(63.8926 0.000197566 0)
(63.8926 0.000168109 0)
(63.8926 0.00014455 0)
(63.8926 0.000137301 0)
(63.8927 0.00014041 0)
(63.8927 0.000141456 0)
(63.8927 0.000133126 0)
(63.8927 0.000128946 0)
(63.8927 0.000148685 0)
(63.8928 0.000187007 0)
(63.8929 0.000212912 0)
(63.8929 0.000207019 0)
(63.8929 0.000184187 0)
(63.893 0.000164466 0)
(63.8931 0.000144657 0)
(63.8931 0.000123547 0)
(63.8932 0.000120656 0)
(63.8932 0.000143905 0)
(63.8933 0.000178105 0)
(63.8933 0.000203684 0)
(63.8932 0.000207045 0)
(63.8932 0.00020624 0)
(63.8933 0.000225038 0)
(63.8934 0.000241303 0)
(63.8934 0.000237933 0)
(63.8934 0.000229038 0)
(63.8935 0.000215981 0)
(63.8936 0.000200603 0)