/*--------------------------------*- C++ -*----------------------------------*\
| =========                 |                                                 |
| \\      /  F ield         | OpenFOAM: The Open Source CFD Toolbox           |
|  \\    /   O peration     | Version:  2406                                  |
|   \\  /    A nd           | Website:  www.openfoam.com                      |
|    \\/     M anipulation  |                                                 |
\*---------------------------------------------------------------------------*/
FoamFile
{
    version     2.0;
    format      ascii;
    arch        "LSB;label=32;scalar=64";
    class       surfaceScalarField;
    location    "0.2";
    object      phi;
}
// * * * * * * * * * * * * * * * * * * * * * * * * * * * * * * * * * * * * * //

dimensions      [0 3 -1 0 0 0 0];

oriented        oriented;

internalField   nonuniform List<scalar> 
4335
(
8.48401e-06
-2.47619e-11
8.48403e-06
-2.03855e-11
8.48405e-06
-1.22233e-11
8.48407e-06
-1.07518e-11
8.48409e-06
-1.11335e-11
8.4841e-06
-1.30465e-11
8.48411e-06
-8.71201e-12
8.48411e-06
-7.58801e-12
8.48413e-06
-5.21592e-12
8.48414e-06
-6.8075e-12
8.48414e-06
-7.18869e-12
8.48415e-06
-5.24195e-12
8.48416e-06
-6.13629e-12
8.48416e-06
-8.69836e-12
8.48416e-06
-4.8951e-12
8.48417e-06
-2.8433e-12
8.48417e-06
-4.86073e-12
8.48417e-06
-3.71184e-12
8.48417e-06
-8.266e-13
8.48417e-06
-7.98587e-13
8.48417e-06
-7.99056e-13
8.48418e-06
1.15033e-12
8.48418e-06
2.19912e-12
8.48418e-06
-7.31922e-13
8.48418e-06
-3.79137e-12
8.48418e-06
-4.23674e-12
8.48418e-06
-3.70451e-12
8.48419e-06
-1.74153e-12
8.48419e-06
4.07193e-13
8.48419e-06
5.87086e-13
8.48419e-06
-7.87906e-13
8.4842e-06
-2.76105e-12
8.4842e-06
-4.77827e-12
8.4842e-06
-5.352e-12
8.48421e-06
-4.01031e-12
8.48421e-06
-2.49271e-12
8.48421e-06
-2.64145e-12
8.48422e-06
-4.39059e-12
8.48422e-06
-6.80831e-12
8.48422e-06
-8.289e-12
8.48423e-06
-6.87387e-12
8.48423e-06
-3.93642e-12
8.48423e-06
-2.60146e-12
8.48423e-06
-2.44633e-12
8.48423e-06
-1.90256e-12
8.48423e-06
-9.72411e-13
8.48424e-06
7.47875e-13
8.48424e-06
2.38572e-12
8.48423e-06
3.02813e-12
8.48423e-06
3.8934e-12
8.48422e-06
5.29793e-12
8.48421e-06
6.09819e-12
8.4842e-06
6.34061e-12
8.48419e-06
6.88997e-12
8.48418e-06
7.33642e-12
8.48417e-06
8.10678e-12
8.48415e-06
1.06136e-11
8.48414e-06
1.33268e-11
8.48413e-06
1.30517e-11
8.48412e-06
1.03156e-11
8.48411e-06
8.24308e-12
8.4841e-06
7.70622e-12
8.48409e-06
7.18174e-12
8.48409e-06
5.49896e-12
8.48409e-06
2.50557e-12
8.48409e-06
-8.32306e-13
8.48409e-06
-3.37201e-12
8.4841e-06
-4.80294e-12
8.4841e-06
-5.99768e-12
8.48411e-06
-7.37806e-12
8.48413e-06
-8.77378e-12
8.48414e-06
-9.94255e-12
8.48415e-06
-1.02317e-11
8.48416e-06
-9.7886e-12
8.48417e-06
-9.6558e-12
8.48418e-06
-9.16168e-12
8.48419e-06
-6.80756e-12
8.4842e-06
-3.66664e-12
8.4842e-06
-1.58268e-12
8.4842e-06
4.52435e-14
8.4842e-06
1.48001e-12
8.4842e-06
2.00684e-12
8.4842e-06
1.79163e-12
8.48419e-06
2.24754e-12
8.48419e-06
3.8265e-12
8.48418e-06
5.63535e-12
8.48418e-06
5.89214e-12
8.48417e-06
4.58229e-12
8.48416e-06
3.86837e-12
8.48416e-06
4.95112e-12
8.48415e-06
6.73206e-12
8.48414e-06
7.52639e-12
8.48414e-06
6.49721e-12
8.48413e-06
4.26497e-12
8.48413e-06
2.79371e-12
8.48412e-06
3.14285e-12
8.48412e-06
4.2246e-12
8.48412e-06
4.13677e-12
8.48412e-06
1.88533e-12
8.48412e-06
-1.59552e-12
8.48412e-06
-4.63728e-12
8.48413e-06
-6.88764e-12
8.48414e-06
-8.79968e-12
8.48415e-06
-1.00421e-11
8.48416e-06
-1.03821e-11
8.48417e-06
-1.04618e-11
8.48418e-06
-1.06385e-11
8.48419e-06
-1.0415e-11
8.48419e-06
-9.51566e-12
8.4842e-06
-8.15749e-12
8.4842e-06
-5.92477e-12
8.4842e-06
-2.53588e-12
8.4842e-06
1.13099e-12
8.4842e-06
3.96273e-12
8.48419e-06
6.365e-12
8.48418e-06
8.32068e-12
8.48417e-06
9.45036e-12
8.48415e-06
1.01842e-11
8.48414e-06
1.11325e-11
8.48413e-06
1.21644e-11
8.48412e-06
1.27983e-11
8.48411e-06
1.19595e-11
8.4841e-06
9.16723e-12
8.48409e-06
5.97625e-12
8.48408e-06
4.43506e-12
8.48408e-06
4.58946e-12
8.48408e-06
4.29899e-12
8.48407e-06
2.653e-12
8.48407e-06
-1.41147e-13
8.48407e-06
-3.06456e-12
8.48407e-06
-4.22377e-12
8.48408e-06
-4.35797e-12
8.48408e-06
-5.13281e-12
8.48409e-06
-5.41056e-12
8.48409e-06
-4.84416e-12
8.4841e-06
-4.86285e-12
8.4841e-06
-5.04747e-12
8.48411e-06
-4.6834e-12
8.48411e-06
-4.36447e-12
8.48412e-06
-4.4629e-12
8.48412e-06
-3.78967e-12
8.48412e-06
-2.51497e-12
8.48413e-06
-2.13491e-12
8.48413e-06
-7.24619e-13
8.48413e-06
5.82561e-13
8.48413e-06
1.80556e-12
8.48413e-06
2.43703e-12
8.48413e-06
1.8013e-12
8.48413e-06
2.40176e-12
1.83863e-12
2.29323e-05
-4.94558e-11
2.29323e-05
-4.81056e-11
2.29323e-05
-4.89804e-11
2.29324e-05
-4.57005e-11
2.29324e-05
-4.13471e-11
2.29324e-05
-3.63393e-11
2.29324e-05
-3.68966e-11
2.29324e-05
-3.43682e-11
2.29325e-05
-2.49313e-11
2.29325e-05
-2.26748e-11
2.29325e-05
-2.20949e-11
2.29325e-05
-1.88713e-11
2.29325e-05
-1.29293e-11
2.29325e-05
-1.05541e-11
2.29325e-05
-1.19633e-11
2.29325e-05
-1.17191e-11
2.29326e-05
-1.02498e-11
2.29326e-05
-1.03346e-11
2.29326e-05
-1.15291e-11
2.29326e-05
-1.07774e-11
2.29326e-05
-6.71416e-12
2.29326e-05
-3.51443e-12
2.29326e-05
-4.24964e-12
2.29326e-05
-5.82583e-12
2.29326e-05
-5.53928e-12
2.29326e-05
-4.2682e-12
2.29326e-05
-4.09646e-12
2.29326e-05
-3.76751e-12
2.29326e-05
-4.15054e-12
2.29326e-05
-7.4161e-12
2.29326e-05
-1.03779e-11
2.29326e-05
-1.07781e-11
2.29326e-05
-1.1102e-11
2.29326e-05
-1.23181e-11
2.29326e-05
-1.32136e-11
2.29327e-05
-1.44984e-11
2.29327e-05
-1.68705e-11
2.29327e-05
-1.86652e-11
2.29327e-05
-1.91755e-11
2.29327e-05
-1.95543e-11
2.29327e-05
-1.9192e-11
2.29327e-05
-1.71773e-11
2.29327e-05
-1.49017e-11
2.29327e-05
-1.19714e-11
2.29327e-05
-6.85019e-12
2.29327e-05
-1.0762e-12
2.29327e-05
4.37678e-12
2.29327e-05
1.00604e-11
2.29327e-05
1.51384e-11
2.29327e-05
1.93839e-11
2.29327e-05
2.36149e-11
2.29327e-05
2.67193e-11
2.29326e-05
2.82463e-11
2.29326e-05
3.04639e-11
2.29326e-05
3.39265e-11
2.29326e-05
3.66089e-11
2.29325e-05
3.86614e-11
2.29325e-05
4.12157e-11
2.29325e-05
4.19771e-11
2.29325e-05
3.82391e-11
2.29324e-05
3.11321e-11
2.29324e-05
2.31352e-11
2.29324e-05
1.50695e-11
2.29324e-05
7.00318e-12
2.29324e-05
-1.40352e-12
2.29324e-05
-1.0324e-11
2.29324e-05
-1.92542e-11
2.29324e-05
-2.71067e-11
2.29325e-05
-3.34927e-11
2.29325e-05
-3.81309e-11
2.29325e-05
-4.06736e-11
2.29325e-05
-4.17331e-11
2.29326e-05
-4.15067e-11
2.29326e-05
-3.93257e-11
2.29326e-05
-3.57365e-11
2.29327e-05
-3.14258e-11
2.29327e-05
-2.51935e-11
2.29327e-05
-1.72203e-11
2.29327e-05
-1.0228e-11
2.29327e-05
-4.75358e-12
2.29327e-05
1.05241e-12
2.29327e-05
7.67991e-12
2.29327e-05
1.32379e-11
2.29327e-05
1.62905e-11
2.29327e-05
1.76433e-11
2.29326e-05
1.95379e-11
2.29326e-05
2.24706e-11
2.29326e-05
2.45818e-11
2.29326e-05
2.49371e-11
2.29326e-05
2.43637e-11
2.29326e-05
2.3727e-11
2.29325e-05
2.35136e-11
2.29325e-05
2.35422e-11
2.29325e-05
2.25048e-11
2.29325e-05
1.95751e-11
2.29325e-05
1.51851e-11
2.29325e-05
9.96366e-12
2.29325e-05
4.17292e-12
2.29325e-05
-2.36282e-12
2.29325e-05
-9.87339e-12
2.29325e-05
-1.73737e-11
2.29325e-05
-2.39633e-11
2.29325e-05
-3.01792e-11
2.29326e-05
-3.61674e-11
2.29326e-05
-4.05073e-11
2.29326e-05
-4.20481e-11
2.29326e-05
-4.08532e-11
2.29327e-05
-3.71362e-11
2.29327e-05
-3.11712e-11
2.29327e-05
-2.40088e-11
2.29327e-05
-1.64549e-11
2.29327e-05
-7.97045e-12
2.29327e-05
1.66782e-12
2.29327e-05
1.15427e-11
2.29327e-05
2.07902e-11
2.29327e-05
2.85613e-11
2.29326e-05
3.37168e-11
2.29326e-05
3.63261e-11
2.29326e-05
3.76188e-11
2.29326e-05
3.82824e-11
2.29325e-05
3.86904e-11
2.29325e-05
3.85368e-11
2.29325e-05
3.59087e-11
2.29325e-05
3.0063e-11
2.29325e-05
2.32396e-11
2.29324e-05
1.77472e-11
2.29324e-05
1.33391e-11
2.29324e-05
9.2314e-12
2.29324e-05
4.86556e-12
2.29324e-05
-3.17342e-13
2.29324e-05
-4.34908e-12
2.29324e-05
-6.54631e-12
2.29324e-05
-9.78483e-12
2.29325e-05
-1.36747e-11
2.29325e-05
-1.44311e-11
2.29325e-05
-1.2522e-11
2.29325e-05
-1.10044e-11
2.29325e-05
-1.07402e-11
2.29325e-05
-1.09594e-11
2.29325e-05
-1.1371e-11
2.29325e-05
-1.0631e-11
2.29325e-05
-7.69831e-12
2.29325e-05
-6.67515e-12
2.29325e-05
-6.37796e-12
2.29325e-05
-2.8444e-12
2.29325e-05
8.43519e-14
2.29325e-05
2.41651e-12
2.29326e-05
4.69892e-12
2.29326e-05
4.02803e-12
1.07332e-12
3.49595e-05
-7.27628e-11
3.49595e-05
-7.65661e-11
3.49595e-05
-7.81867e-11
3.49596e-05
-7.16112e-11
3.49596e-05
-6.86028e-11
3.49596e-05
-6.41972e-11
3.49596e-05
-5.48224e-11
3.49597e-05
-4.8442e-11
3.49597e-05
-4.56037e-11
3.49597e-05
-3.92031e-11
3.49597e-05
-3.33482e-11
3.49597e-05
-3.26952e-11
3.49597e-05
-3.11086e-11
3.49597e-05
-2.66831e-11
3.49598e-05
-2.54738e-11
3.49598e-05
-2.3374e-11
3.49598e-05
-1.79635e-11
3.49598e-05
-1.60731e-11
3.49598e-05
-1.57359e-11
3.49598e-05
-1.32634e-11
3.49598e-05
-1.17922e-11
3.49598e-05
-1.23009e-11
3.49598e-05
-1.24138e-11
3.49598e-05
-1.15857e-11
3.49598e-05
-1.04324e-11
3.49598e-05
-8.18021e-12
3.49598e-05
-7.77146e-12
3.49598e-05
-9.81821e-12
3.49598e-05
-1.08514e-11
3.49598e-05
-1.17268e-11
3.49598e-05
-1.41767e-11
3.49599e-05
-1.71835e-11
3.49599e-05
-2.04968e-11
3.49599e-05
-2.42071e-11
3.49599e-05
-2.70021e-11
3.49599e-05
-2.92459e-11
3.49599e-05
-3.25283e-11
3.49599e-05
-3.55627e-11
3.49599e-05
-3.64749e-11
3.496e-05
-3.64024e-11
3.496e-05
-3.58107e-11
3.496e-05
-3.26144e-11
3.496e-05
-2.72839e-11
3.496e-05
-2.11562e-11
3.496e-05
-1.29354e-11
3.496e-05
-3.29651e-12
3.496e-05
6.02049e-12
3.496e-05
1.51478e-11
3.496e-05
2.46381e-11
3.496e-05
3.31755e-11
3.496e-05
4.17319e-11
3.49599e-05
5.09383e-11
3.49599e-05
5.93843e-11
3.49599e-05
6.71752e-11
3.49598e-05
7.50794e-11
3.49598e-05
8.05774e-11
3.49597e-05
8.12976e-11
3.49597e-05
7.90669e-11
3.49597e-05
7.54025e-11
3.49596e-05
6.86216e-11
3.49596e-05
5.76213e-11
3.49596e-05
4.34381e-11
3.49596e-05
2.71853e-11
3.49596e-05
9.93898e-12
3.49596e-05
-7.10755e-12
3.49596e-05
-2.38595e-11
3.49596e-05
-4.01717e-11
3.49596e-05
-5.49638e-11
3.49597e-05
-6.75777e-11
3.49597e-05
-7.75967e-11
3.49597e-05
-8.39675e-11
3.49598e-05
-8.64388e-11
3.49598e-05
-8.53296e-11
3.49599e-05
-7.98119e-11
3.49599e-05
-7.02143e-11
3.49599e-05
-5.92344e-11
3.496e-05
-4.79576e-11
3.496e-05
-3.54457e-11
3.496e-05
-2.2442e-11
3.496e-05
-1.04314e-11
3.496e-05
8.59955e-13
3.496e-05
1.21081e-11
3.496e-05
2.24457e-11
3.496e-05
3.01874e-11
3.49599e-05
3.49058e-11
3.49599e-05
3.84315e-11
3.49599e-05
4.27557e-11
3.49599e-05
4.71964e-11
3.49599e-05
4.99737e-11
3.49598e-05
5.07694e-11
3.49598e-05
5.00802e-11
3.49598e-05
4.85442e-11
3.49598e-05
4.64577e-11
3.49597e-05
4.28098e-11
3.49597e-05
3.62488e-11
3.49597e-05
2.68933e-11
3.49597e-05
1.57518e-11
3.49597e-05
3.58222e-12
3.49597e-05
-9.19866e-12
3.49597e-05
-2.31022e-11
3.49597e-05
-3.75728e-11
3.49598e-05
-5.09022e-11
3.49598e-05
-6.22744e-11
3.49598e-05
-7.19641e-11
3.49599e-05
-7.93177e-11
3.49599e-05
-8.27816e-11
3.49599e-05
-8.14713e-11
3.496e-05
-7.52444e-11
3.496e-05
-6.40453e-11
3.496e-05
-4.89048e-11
3.496e-05
-3.19963e-11
3.496e-05
-1.43918e-11
3.496e-05
3.7534e-12
3.496e-05
2.15146e-11
3.496e-05
3.78408e-11
3.496e-05
5.2261e-11
3.496e-05
6.37663e-11
3.49599e-05
7.13575e-11
3.49599e-05
7.547e-11
3.49599e-05
7.66071e-11
3.49598e-05
7.48798e-11
3.49598e-05
7.11366e-11
3.49597e-05
6.55289e-11
3.49597e-05
5.71966e-11
3.49597e-05
4.66181e-11
3.49597e-05
3.56303e-11
3.49597e-05
2.5047e-11
3.49597e-05
1.51517e-11
3.49597e-05
6.71219e-12
3.49597e-05
-1.13437e-12
3.49597e-05
-8.73021e-12
3.49597e-05
-1.45515e-11
3.49597e-05
-1.96703e-11
3.49597e-05
-2.54439e-11
3.49597e-05
-2.92005e-11
3.49597e-05
-2.9308e-11
3.49597e-05
-2.76011e-11
3.49597e-05
-2.55049e-11
3.49598e-05
-2.32985e-11
3.49598e-05
-2.15486e-11
3.49598e-05
-2.05006e-11
3.49598e-05
-1.77827e-11
3.49598e-05
-1.44777e-11
3.49598e-05
-1.16976e-11
3.49598e-05
-5.79173e-12
3.49598e-05
-2.19803e-12
3.49598e-05
-8.10179e-13
3.49598e-05
3.4117e-12
3.49598e-05
6.11891e-14
1.72894e-15
4.46579e-05
-8.90853e-11
4.46579e-05
-9.60744e-11
4.46579e-05
-9.10836e-11
4.46579e-05
-9.36764e-11
4.46579e-05
-8.60247e-11
4.46579e-05
-7.61475e-11
4.4658e-05
-6.94867e-11
4.4658e-05
-6.77116e-11
4.4658e-05
-5.97184e-11
4.4658e-05
-5.26225e-11
4.4658e-05
-4.62685e-11
4.4658e-05
-4.40356e-11
4.4658e-05
-4.23216e-11
4.4658e-05
-3.86671e-11
4.4658e-05
-3.23154e-11
4.46581e-05
-2.80337e-11
4.46581e-05
-2.75321e-11
4.46581e-05
-2.86067e-11
4.46581e-05
-2.65224e-11
4.46581e-05
-2.17227e-11
4.46581e-05
-1.80111e-11
4.46581e-05
-1.64749e-11
4.46581e-05
-1.59467e-11
4.46581e-05
-1.5287e-11
4.46581e-05
-1.44726e-11
4.46581e-05
-1.2047e-11
4.46581e-05
-1.07326e-11
4.46581e-05
-1.37445e-11
4.46581e-05
-1.77599e-11
4.46581e-05
-2.06706e-11
4.46581e-05
-2.3067e-11
4.46581e-05
-2.42017e-11
4.46582e-05
-2.55684e-11
4.46582e-05
-3.08193e-11
4.46582e-05
-3.8548e-11
4.46582e-05
-4.43953e-11
4.46582e-05
-4.81799e-11
4.46582e-05
-5.07355e-11
4.46582e-05
-5.09205e-11
4.46583e-05
-5.00687e-11
4.46583e-05
-4.98931e-11
4.46583e-05
-4.68725e-11
4.46583e-05
-3.87191e-11
4.46583e-05
-2.85867e-11
4.46583e-05
-1.79435e-11
4.46583e-05
-6.30989e-12
4.46583e-05
5.71891e-12
4.46583e-05
1.91489e-11
4.46583e-05
3.4728e-11
4.46583e-05
5.00929e-11
4.46583e-05
6.41137e-11
4.46582e-05
7.83334e-11
4.46582e-05
9.25006e-11
4.46581e-05
1.05206e-10
4.46581e-05
1.16565e-10
4.46581e-05
1.2529e-10
4.4658e-05
1.27991e-10
4.4658e-05
1.24304e-10
4.46579e-05
1.16705e-10
4.46579e-05
1.05401e-10
4.46579e-05
8.87869e-11
4.46578e-05
6.6917e-11
4.46578e-05
4.13993e-11
4.46578e-05
1.42423e-11
4.46578e-05
-1.26426e-11
4.46578e-05
-3.87681e-11
4.46579e-05
-6.44282e-11
4.46579e-05
-8.81863e-11
4.46579e-05
-1.07752e-10
4.4658e-05
-1.22052e-10
4.4658e-05
-1.30357e-10
4.46581e-05
-1.32582e-10
4.46581e-05
-1.30029e-10
4.46582e-05
-1.22671e-10
4.46582e-05
-1.09437e-10
4.46582e-05
-9.2093e-11
4.46583e-05
-7.36822e-11
4.46583e-05
-5.46215e-11
4.46583e-05
-3.46622e-11
4.46583e-05
-1.52297e-11
4.46583e-05
2.36853e-12
4.46583e-05
1.81327e-11
4.46583e-05
3.25862e-11
4.46583e-05
4.57315e-11
4.46582e-05
5.64806e-11
4.46582e-05
6.42558e-11
4.46582e-05
7.00246e-11
4.46582e-05
7.44611e-11
4.46581e-05
7.72066e-11
4.46581e-05
7.82847e-11
4.46581e-05
7.76498e-11
4.46581e-05
7.48466e-11
4.4658e-05
6.99166e-11
4.4658e-05
6.27146e-11
4.4658e-05
5.22443e-11
4.4658e-05
3.80955e-11
4.4658e-05
2.09503e-11
4.4658e-05
1.77658e-12
4.4658e-05
-1.85538e-11
4.4658e-05
-3.98708e-11
4.4658e-05
-6.20547e-11
4.46581e-05
-8.34549e-11
4.46581e-05
-1.01524e-10
4.46581e-05
-1.14726e-10
4.46582e-05
-1.22479e-10
4.46582e-05
-1.24413e-10
4.46583e-05
-1.206e-10
4.46583e-05
-1.1133e-10
4.46583e-05
-9.61184e-11
4.46583e-05
-7.4785e-11
4.46584e-05
-4.92285e-11
4.46584e-05
-2.21019e-11
4.46584e-05
5.10946e-12
4.46584e-05
3.08917e-11
4.46583e-05
5.36577e-11
4.46583e-05
7.34367e-11
4.46583e-05
9.07641e-11
4.46582e-05
1.04766e-10
4.46582e-05
1.14204e-10
4.46582e-05
1.18108e-10
4.46581e-05
1.15684e-10
4.46581e-05
1.08346e-10
4.46581e-05
9.89744e-11
4.4658e-05
8.81969e-11
4.4658e-05
7.49962e-11
4.4658e-05
5.97691e-11
4.4658e-05
4.35292e-11
4.4658e-05
2.71692e-11
4.4658e-05
1.27652e-11
4.4658e-05
2.23374e-13
4.4658e-05
-1.25062e-11
4.4658e-05
-2.36193e-11
4.4658e-05
-3.07537e-11
4.4658e-05
-3.57293e-11
4.4658e-05
-4.01277e-11
4.4658e-05
-4.27162e-11
4.4658e-05
-4.28454e-11
4.46581e-05
-4.12981e-11
4.46581e-05
-3.91389e-11
4.46581e-05
-3.66004e-11
4.46581e-05
-3.49501e-11
4.46581e-05
-3.22719e-11
4.46581e-05
-2.5477e-11
4.46581e-05
-1.85657e-11
4.46581e-05
-1.29881e-11
4.46581e-05
-7.92093e-12
4.46582e-05
-3.83484e-12
4.46582e-05
-1.51703e-12
4.46582e-05
4.84002e-13
-4.56448e-12
5.2109e-05
-9.63475e-11
5.2109e-05
-9.3333e-11
5.2109e-05
-9.97364e-11
5.2109e-05
-9.39657e-11
5.2109e-05
-8.76386e-11
5.2109e-05
-8.56034e-11
5.2109e-05
-7.50676e-11
5.2109e-05
-6.48485e-11
5.21091e-05
-5.97364e-11
5.21091e-05
-5.65413e-11
5.21091e-05
-5.16538e-11
5.21091e-05
-4.63351e-11
5.21091e-05
-4.16775e-11
5.21091e-05
-3.91157e-11
5.21091e-05
-3.7408e-11
5.21091e-05
-3.50064e-11
5.21091e-05
-3.24843e-11
5.21091e-05
-3.04263e-11
5.21091e-05
-2.84297e-11
5.21091e-05
-2.55562e-11
5.21091e-05
-2.32407e-11
5.21091e-05
-2.28252e-11
5.21091e-05
-2.19757e-11
5.21091e-05
-1.85803e-11
5.21091e-05
-1.69742e-11
5.21091e-05
-1.80212e-11
5.21091e-05
-1.81576e-11
5.21091e-05
-1.85266e-11
5.21091e-05
-2.07155e-11
5.21091e-05
-2.43657e-11
5.21091e-05
-2.98227e-11
5.21092e-05
-3.55161e-11
5.21092e-05
-3.90636e-11
5.21092e-05
-4.26046e-11
5.21092e-05
-4.85457e-11
5.21092e-05
-5.43484e-11
5.21092e-05
-5.84573e-11
5.21092e-05
-6.24081e-11
5.21092e-05
-6.46941e-11
5.21092e-05
-6.33685e-11
5.21093e-05
-6.07388e-11
5.21093e-05
-5.68711e-11
5.21093e-05
-4.88222e-11
5.21093e-05
-3.78546e-11
5.21093e-05
-2.60096e-11
5.21093e-05
-1.20615e-11
5.21093e-05
4.23759e-12
5.21093e-05
2.2647e-11
5.21093e-05
4.37509e-11
5.21093e-05
6.57636e-11
5.21092e-05
8.60829e-11
5.21092e-05
1.05357e-10
5.21092e-05
1.24307e-10
5.21091e-05
1.40866e-10
5.21091e-05
1.54031e-10
5.21091e-05
1.64322e-10
5.2109e-05
1.69589e-10
5.2109e-05
1.6687e-10
5.21089e-05
1.56595e-10
5.21089e-05
1.40356e-10
5.21089e-05
1.18353e-10
5.21088e-05
9.07927e-11
5.21088e-05
5.85408e-11
5.21088e-05
2.26434e-11
5.21088e-05
-1.48305e-11
5.21088e-05
-5.13465e-11
5.21089e-05
-8.56164e-11
5.21089e-05
-1.16347e-10
5.21089e-05
-1.41456e-10
5.2109e-05
-1.59881e-10
5.2109e-05
-1.71046e-10
5.21091e-05
-1.7414e-10
5.21091e-05
-1.70266e-10
5.21092e-05
-1.61187e-10
5.21092e-05
-1.46413e-10
5.21092e-05
-1.25759e-10
5.21092e-05
-1.01545e-10
5.21093e-05
-7.55382e-11
5.21093e-05
-4.8093e-11
5.21093e-05
-2.08746e-11
5.21093e-05
3.71508e-12
5.21093e-05
2.44873e-11
5.21093e-05
4.22298e-11
5.21092e-05
5.85048e-11
5.21092e-05
7.32769e-11
5.21092e-05
8.48008e-11
5.21092e-05
9.26152e-11
5.21092e-05
9.78301e-11
5.21091e-05
1.01306e-10
5.21091e-05
1.03428e-10
5.21091e-05
1.03586e-10
5.21091e-05
9.98773e-11
5.21091e-05
9.15505e-11
5.2109e-05
7.98728e-11
5.2109e-05
6.57168e-11
5.2109e-05
4.84152e-11
5.2109e-05
2.69837e-11
5.2109e-05
1.37163e-12
5.2109e-05
-2.70052e-11
5.2109e-05
-5.61533e-11
5.2109e-05
-8.47663e-11
5.21091e-05
-1.11524e-10
5.21091e-05
-1.34386e-10
5.21091e-05
-1.5158e-10
5.21092e-05
-1.61975e-10
5.21092e-05
-1.64506e-10
5.21093e-05
-1.58623e-10
5.21093e-05
-1.45053e-10
5.21093e-05
-1.24806e-10
5.21093e-05
-9.81797e-11
5.21094e-05
-6.63804e-11
5.21094e-05
-3.20885e-11
5.21094e-05
2.81225e-12
5.21094e-05
3.69573e-11
5.21093e-05
6.81768e-11
5.21093e-05
9.50593e-11
5.21093e-05
1.17839e-10
5.21093e-05
1.36223e-10
5.21092e-05
1.48823e-10
5.21092e-05
1.54612e-10
5.21091e-05
1.52949e-10
5.21091e-05
1.44477e-10
5.21091e-05
1.31896e-10
5.2109e-05
1.17018e-10
5.2109e-05
9.94708e-11
5.2109e-05
7.96667e-11
5.2109e-05
5.90345e-11
5.2109e-05
3.80435e-11
5.2109e-05
1.82619e-11
5.2109e-05
1.46431e-12
5.2109e-05
-1.37892e-11
5.2109e-05
-2.8245e-11
5.2109e-05
-3.94773e-11
5.2109e-05
-4.66723e-11
5.2109e-05
-5.12108e-11
5.2109e-05
-5.34454e-11
5.21091e-05
-5.42081e-11
5.21091e-05
-5.4091e-11
5.21091e-05
-5.26963e-11
5.21091e-05
-4.88708e-11
5.21091e-05
-4.37089e-11
5.21091e-05
-3.96046e-11
5.21091e-05
-3.38344e-11
5.21091e-05
-2.64547e-11
5.21092e-05
-2.16588e-11
5.21092e-05
-1.55779e-11
5.21092e-05
-7.54573e-12
5.21092e-05
-5.54815e-12
5.21092e-05
-3.23521e-12
-1.53916e-12
5.73805e-05
-8.76556e-11
5.73804e-05
-8.95694e-11
5.73804e-05
-8.79293e-11
5.73804e-05
-8.01204e-11
5.73804e-05
-7.80391e-11
5.73804e-05
-6.66536e-11
5.73804e-05
-6.34627e-11
5.73804e-05
-5.84412e-11
5.73804e-05
-5.15871e-11
5.73804e-05
-4.56864e-11
5.73804e-05
-4.43983e-11
5.73804e-05
-4.07955e-11
5.73804e-05
-3.76569e-11
5.73804e-05
-3.57056e-11
5.73804e-05
-3.4797e-11
5.73804e-05
-3.44283e-11
5.73804e-05
-3.28045e-11
5.73804e-05
-2.99532e-11
5.73804e-05
-2.67014e-11
5.73804e-05
-2.36255e-11
5.73804e-05
-2.28364e-11
5.73804e-05
-2.37765e-11
5.73804e-05
-2.37557e-11
5.73804e-05
-2.18337e-11
5.73804e-05
-2.0885e-11
5.73804e-05
-2.09887e-11
5.73804e-05
-1.99727e-11
5.73804e-05
-2.12168e-11
5.73804e-05
-2.63781e-11
5.73804e-05
-3.16471e-11
5.73804e-05
-3.62448e-11
5.73804e-05
-4.21737e-11
5.73804e-05
-4.79878e-11
5.73804e-05
-5.2871e-11
5.73804e-05
-5.9375e-11
5.73804e-05
-6.61334e-11
5.73804e-05
-6.95723e-11
5.73805e-05
-7.1648e-11
5.73805e-05
-7.42983e-11
5.73805e-05
-7.40464e-11
5.73805e-05
-6.98815e-11
5.73805e-05
-6.42159e-11
5.73805e-05
-5.63447e-11
5.73805e-05
-4.54322e-11
5.73805e-05
-3.20072e-11
5.73805e-05
-1.44133e-11
5.73805e-05
7.39528e-12
5.73805e-05
3.01496e-11
5.73805e-05
5.25919e-11
5.73805e-05
7.55782e-11
5.73805e-05
9.89203e-11
5.73804e-05
1.22847e-10
5.73804e-05
1.47713e-10
5.73804e-05
1.7041e-10
5.73804e-05
1.86966e-10
5.73803e-05
1.97297e-10
5.73803e-05
2.02143e-10
5.73803e-05
1.99657e-10
5.73802e-05
1.88189e-10
5.73802e-05
1.68046e-10
5.73802e-05
1.40226e-10
5.73802e-05
1.06431e-10
5.73801e-05
6.85927e-11
5.73801e-05
2.737e-11
5.73801e-05
-1.65566e-11
5.73802e-05
-6.06796e-11
5.73802e-05
-1.02218e-10
5.73802e-05
-1.39077e-10
5.73802e-05
-1.6899e-10
5.73803e-05
-1.90755e-10
5.73803e-05
-2.04476e-10
5.73803e-05
-2.09222e-10
5.73804e-05
-2.04363e-10
5.73804e-05
-1.9153e-10
5.73804e-05
-1.72222e-10
5.73804e-05
-1.46989e-10
5.73805e-05
-1.17831e-10
5.73805e-05
-8.70398e-11
5.73805e-05
-5.53168e-11
5.73805e-05
-2.34074e-11
5.73805e-05
6.55739e-12
5.73805e-05
3.23445e-11
5.73805e-05
5.29494e-11
5.73805e-05
6.96907e-11
5.73804e-05
8.46488e-11
5.73804e-05
9.80835e-11
5.73804e-05
1.09108e-10
5.73804e-05
1.17131e-10
5.73804e-05
1.21359e-10
5.73804e-05
1.21675e-10
5.73804e-05
1.19224e-10
5.73803e-05
1.14278e-10
5.73803e-05
1.05769e-10
5.73803e-05
9.31524e-11
5.73803e-05
7.63566e-11
5.73803e-05
5.50263e-11
5.73803e-05
2.89015e-11
5.73803e-05
-1.62071e-12
5.73803e-05
-3.51173e-11
5.73803e-05
-6.94544e-11
5.73803e-05
-1.02765e-10
5.73803e-05
-1.3339e-10
5.73804e-05
-1.59305e-10
5.73804e-05
-1.78742e-10
5.73804e-05
-1.90607e-10
5.73804e-05
-1.93656e-10
5.73805e-05
-1.86446e-10
5.73805e-05
-1.69298e-10
5.73805e-05
-1.44572e-10
5.73805e-05
-1.13899e-10
5.73806e-05
-7.77292e-11
5.73806e-05
-3.78685e-11
5.73806e-05
2.98864e-12
5.73806e-05
4.31803e-11
5.73805e-05
8.1193e-11
5.73805e-05
1.1475e-10
5.73805e-05
1.41889e-10
5.73805e-05
1.6149e-10
5.73805e-05
1.732e-10
5.73804e-05
1.78068e-10
5.73804e-05
1.76998e-10
5.73804e-05
1.69297e-10
5.73803e-05
1.55218e-10
5.73803e-05
1.36923e-10
5.73803e-05
1.15903e-10
5.73803e-05
9.3056e-11
5.73803e-05
6.98835e-11
5.73803e-05
4.64047e-11
5.73803e-05
2.25134e-11
5.73803e-05
7.23051e-13
5.73803e-05
-1.75543e-11
5.73803e-05
-3.32701e-11
5.73803e-05
-4.62456e-11
5.73803e-05
-5.51862e-11
5.73803e-05
-6.03989e-11
5.73803e-05
-6.27861e-11
5.73803e-05
-6.38019e-11
5.73803e-05
-6.36679e-11
5.73804e-05
-6.1649e-11
5.73804e-05
-5.77702e-11
5.73804e-05
-5.14426e-11
5.73804e-05
-4.50043e-11
5.73804e-05
-3.8567e-11
5.73804e-05
-3.18718e-11
5.73804e-05
-2.50468e-11
5.73804e-05
-1.9511e-11
5.73804e-05
-1.45701e-11
5.73804e-05
-6.38212e-12
5.73804e-05
-7.90948e-12
-1.11999e-11
6.05226e-05
-7.78649e-11
6.05226e-05
-7.56669e-11
6.05225e-05
-7.25343e-11
6.05225e-05
-6.23096e-11
6.05225e-05
-5.89838e-11
6.05225e-05
-5.56424e-11
6.05225e-05
-4.80863e-11
6.05225e-05
-3.72258e-11
6.05224e-05
-3.60069e-11
6.05224e-05
-3.16162e-11
6.05224e-05
-2.65412e-11
6.05224e-05
-2.71857e-11
6.05224e-05
-3.17147e-11
6.05224e-05
-3.25054e-11
6.05224e-05
-2.96129e-11
6.05224e-05
-2.82503e-11
6.05223e-05
-2.61429e-11
6.05223e-05
-2.31114e-11
6.05223e-05
-2.36656e-11
6.05223e-05
-2.60814e-11
6.05223e-05
-2.5516e-11
6.05223e-05
-2.14565e-11
6.05223e-05
-1.82434e-11
6.05223e-05
-1.82384e-11
6.05223e-05
-2.04937e-11
6.05223e-05
-2.30699e-11
6.05223e-05
-2.38057e-11
6.05223e-05
-2.5181e-11
6.05223e-05
-3.02227e-11
6.05223e-05
-3.59093e-11
6.05224e-05
-3.94882e-11
6.05224e-05
-4.39427e-11
6.05224e-05
-5.07261e-11
6.05224e-05
-5.69962e-11
6.05224e-05
-6.28824e-11
6.05224e-05
-6.96836e-11
6.05224e-05
-7.45285e-11
6.05224e-05
-7.62291e-11
6.05224e-05
-7.72874e-11
6.05224e-05
-7.66972e-11
6.05224e-05
-7.25391e-11
6.05224e-05
-6.69603e-11
6.05224e-05
-6.02604e-11
6.05224e-05
-4.99888e-11
6.05224e-05
-3.56145e-11
6.05224e-05
-1.68224e-11
6.05224e-05
6.46041e-12
6.05224e-05
3.11261e-11
6.05224e-05
5.5009e-11
6.05224e-05
7.96543e-11
6.05224e-05
1.05864e-10
6.05224e-05
1.32239e-10
6.05223e-05
1.58322e-10
6.05223e-05
1.82965e-10
6.05223e-05
2.02259e-10
6.05223e-05
2.13543e-10
6.05223e-05
2.17246e-10
6.05223e-05
2.13526e-10
6.05222e-05
2.01842e-10
6.05222e-05
1.82198e-10
6.05222e-05
1.54323e-10
6.05222e-05
1.18212e-10
6.05222e-05
7.57736e-11
6.05222e-05
2.94891e-11
6.05222e-05
-1.87224e-11
6.05222e-05
-6.62836e-11
6.05222e-05
-1.10651e-10
6.05222e-05
-1.50481e-10
6.05222e-05
-1.83903e-10
6.05223e-05
-2.08623e-10
6.05223e-05
-2.2383e-10
6.05223e-05
-2.29163e-10
6.05223e-05
-2.24015e-10
6.05223e-05
-2.0978e-10
6.05223e-05
-1.88642e-10
6.05224e-05
-1.61183e-10
6.05224e-05
-1.28382e-10
6.05224e-05
-9.31423e-11
6.05224e-05
-5.83096e-11
6.05224e-05
-2.5448e-11
6.05224e-05
4.83535e-12
6.05224e-05
3.23926e-11
6.05224e-05
5.64934e-11
6.05224e-05
7.64059e-11
6.05224e-05
9.27355e-11
6.05224e-05
1.06286e-10
6.05223e-05
1.17205e-10
6.05223e-05
1.25609e-10
6.05223e-05
1.30784e-10
6.05223e-05
1.31557e-10
6.05223e-05
1.28549e-10
6.05223e-05
1.23172e-10
6.05223e-05
1.14978e-10
6.05223e-05
1.02194e-10
6.05223e-05
8.36519e-11
6.05223e-05
5.92061e-11
6.05223e-05
2.95964e-11
6.05223e-05
-3.95263e-12
6.05223e-05
-3.98452e-11
6.05223e-05
-7.61266e-11
6.05223e-05
-1.11261e-10
6.05223e-05
-1.44176e-10
6.05223e-05
-1.72864e-10
6.05223e-05
-1.94381e-10
6.05224e-05
-2.06627e-10
6.05224e-05
-2.09007e-10
6.05224e-05
-2.01303e-10
6.05224e-05
-1.836e-10
6.05224e-05
-1.57579e-10
6.05224e-05
-1.24965e-10
6.05224e-05
-8.6019e-11
6.05224e-05
-4.20821e-11
6.05224e-05
3.03081e-12
6.05224e-05
4.60943e-11
6.05224e-05
8.59942e-11
6.05224e-05
1.219e-10
6.05224e-05
1.52029e-10
6.05224e-05
1.74272e-10
6.05224e-05
1.87174e-10
6.05224e-05
1.91544e-10
6.05224e-05
1.89616e-10
6.05223e-05
1.81692e-10
6.05223e-05
1.67302e-10
6.05223e-05
1.48151e-10
6.05223e-05
1.25957e-10
6.05223e-05
1.00838e-10
6.05223e-05
7.42307e-11
6.05223e-05
4.85184e-11
6.05223e-05
2.44688e-11
6.05223e-05
2.35926e-12
6.05223e-05
-1.71208e-11
6.05223e-05
-3.3817e-11
6.05223e-05
-4.71772e-11
6.05223e-05
-5.68491e-11
6.05223e-05
-6.42903e-11
6.05223e-05
-6.95898e-11
6.05223e-05
-7.1008e-11
6.05223e-05
-6.89616e-11
6.05223e-05
-6.52215e-11
6.05223e-05
-6.124e-11
6.05223e-05
-5.55316e-11
6.05224e-05
-4.94525e-11
6.05224e-05
-4.26598e-11
6.05224e-05
-3.75022e-11
6.05224e-05
-2.99218e-11
6.05224e-05
-1.955e-11
6.05224e-05
-1.60531e-11
6.05224e-05
-1.43742e-11
6.05224e-05
-8.97087e-12
-8.11397e-12
6.15665e-05
-5.60949e-11
6.15665e-05
-4.80251e-11
6.15665e-05
-4.2429e-11
6.15664e-05
-4.15717e-11
6.15664e-05
-2.81053e-11
6.15664e-05
-1.79352e-11
6.15664e-05
-1.79329e-11
6.15663e-05
-1.08947e-11
6.15663e-05
-7.14984e-12
6.15663e-05
-9.63064e-12
6.15663e-05
-1.08038e-11
6.15663e-05
-1.15788e-11
6.15663e-05
-1.19245e-11
6.15662e-05
-1.34671e-11
6.15662e-05
-1.44864e-11
6.15662e-05
-1.52383e-11
6.15662e-05
-1.68909e-11
6.15662e-05
-1.80056e-11
6.15662e-05
-1.868e-11
6.15662e-05
-1.84898e-11
6.15662e-05
-1.67e-11
6.15662e-05
-1.5725e-11
6.15662e-05
-1.75731e-11
6.15662e-05
-1.90053e-11
6.15662e-05
-1.79602e-11
6.15662e-05
-1.8476e-11
6.15662e-05
-2.1645e-11
6.15662e-05
-2.52226e-11
6.15662e-05
-2.97152e-11
6.15662e-05
-3.45735e-11
6.15662e-05
-3.72884e-11
6.15662e-05
-3.99824e-11
6.15662e-05
-4.66621e-11
6.15662e-05
-5.46545e-11
6.15662e-05
-5.9998e-11
6.15662e-05
-6.46791e-11
6.15662e-05
-6.99735e-11
6.15662e-05
-7.3486e-11
6.15662e-05
-7.51101e-11
6.15662e-05
-7.56309e-11
6.15662e-05
-7.38941e-11
6.15662e-05
-7.03042e-11
6.15662e-05
-6.464e-11
6.15662e-05
-5.38973e-11
6.15662e-05
-3.76005e-11
6.15662e-05
-1.81032e-11
6.15662e-05
3.58803e-12
6.15662e-05
2.68683e-11
6.15662e-05
5.1139e-11
6.15662e-05
7.76615e-11
6.15662e-05
1.06887e-10
6.15662e-05
1.3578e-10
6.15662e-05
1.61448e-10
6.15662e-05
1.83674e-10
6.15662e-05
2.01554e-10
6.15662e-05
2.13066e-10
6.15661e-05
2.17633e-10
6.15661e-05
2.15018e-10
6.15661e-05
2.04084e-10
6.15661e-05
1.84432e-10
6.15661e-05
1.56329e-10
6.15661e-05
1.20067e-10
6.15661e-05
7.73298e-11
6.15661e-05
3.08682e-11
6.15661e-05
-1.73493e-11
6.15662e-05
-6.53349e-11
6.15662e-05
-1.1018e-10
6.15662e-05
-1.49866e-10
6.15662e-05
-1.83109e-10
6.15662e-05
-2.07971e-10
6.15662e-05
-2.23204e-10
6.15662e-05
-2.28508e-10
6.15662e-05
-2.23381e-10
6.15662e-05
-2.08636e-10
6.15662e-05
-1.8684e-10
6.15662e-05
-1.59495e-10
6.15662e-05
-1.26972e-10
6.15662e-05
-9.1151e-11
6.15662e-05
-5.53229e-11
6.15662e-05
-2.23033e-11
6.15662e-05
6.5778e-12
6.15662e-05
3.19185e-11
6.15662e-05
5.46534e-11
6.15662e-05
7.46414e-11
6.15662e-05
9.16106e-11
6.15662e-05
1.05483e-10
6.15662e-05
1.15915e-10
6.15662e-05
1.2321e-10
6.15662e-05
1.28017e-10
6.15662e-05
1.29809e-10
6.15662e-05
1.27863e-10
6.15662e-05
1.22389e-10
6.15662e-05
1.13237e-10
6.15662e-05
9.94755e-11
6.15662e-05
8.0652e-11
6.15662e-05
5.71063e-11
6.15662e-05
2.91721e-11
6.15662e-05
-3.19175e-12
6.15662e-05
-3.94749e-11
6.15662e-05
-7.73661e-11
6.15662e-05
-1.13727e-10
6.15662e-05
-1.46619e-10
6.15662e-05
-1.74771e-10
6.15662e-05
-1.96036e-10
6.15662e-05
-2.08173e-10
6.15662e-05
-2.10495e-10
6.15662e-05
-2.0351e-10
6.15662e-05
-1.87055e-10
6.15662e-05
-1.61215e-10
6.15662e-05
-1.27839e-10
6.15662e-05
-8.88759e-11
6.15662e-05
-4.56003e-11
6.15662e-05
-1.92672e-13
6.15662e-05
4.42306e-11
6.15662e-05
8.50372e-11
6.15662e-05
1.20684e-10
6.15662e-05
1.50101e-10
6.15662e-05
1.72172e-10
6.15662e-05
1.8554e-10
6.15662e-05
1.89819e-10
6.15662e-05
1.86933e-10
6.15662e-05
1.78569e-10
6.15662e-05
1.64757e-10
6.15662e-05
1.46303e-10
6.15662e-05
1.24816e-10
6.15662e-05
1.00706e-10
6.15662e-05
7.4686e-11
6.15662e-05
4.88625e-11
6.15662e-05
2.4772e-11
6.15662e-05
2.87998e-12
6.15662e-05
-1.65757e-11
6.15662e-05
-3.34696e-11
6.15662e-05
-4.75557e-11
6.15662e-05
-5.80877e-11
6.15662e-05
-6.52003e-11
6.15662e-05
-6.91642e-11
6.15662e-05
-7.00665e-11
6.15662e-05
-6.97377e-11
6.15662e-05
-6.73699e-11
6.15662e-05
-6.22103e-11
6.15662e-05
-5.64292e-11
6.15662e-05
-4.90465e-11
6.15662e-05
-4.24114e-11
6.15662e-05
-3.41818e-11
6.15662e-05
-2.79389e-11