/*--------------------------------*- C++ -*----------------------------------*\
| =========                 |                                                 |
| \\      /  F ield         | OpenFOAM: The Open Source CFD Toolbox           |
|  \\    /   O peration     | Version:  2406                                  |
|   \\  /    A nd           | Website:  www.openfoam.com                      |
|    \\/     M anipulation  |                                                 |
\*---------------------------------------------------------------------------*/
FoamFile
{
    version     2.0;
    format      ascii;
    arch        "LSB;label=32;scalar=64";
    class       volVectorField;
    location    "0.2";
    object      U;
}
// * * * * * * * * * * * * * * * * * * * * * * * * * * * * * * * * * * * * * //

dimensions      [0 1 -1 0 0 0 0];

internalField   nonuniform List<vector> 
2250
(
(0.12726 -1.73528e-07 0)
(0.12726 -1.35738e-07 0)
(0.127261 -7.41151e-08 0)
(0.127261 -6.31114e-08 0)
(0.127261 -5.99526e-08 0)
(0.127261 -7.56048e-08 0)
(0.127262 -4.75303e-08 0)
(0.127262 -4.08271e-08 0)
(0.127262 -2.1201e-08 0)
(0.127262 -3.9767e-08 0)
(0.127262 -4.45586e-08 0)
(0.127262 -2.54811e-08 0)
(0.127262 -2.89124e-08 0)
(0.127262 -4.83654e-08 0)
(0.127262 -2.26783e-08 0)
(0.127262 -1.24926e-08 0)
(0.127263 -2.65834e-08 0)
(0.127263 -1.79335e-08 0)
(0.127263 5.6444e-10 0)
(0.127263 -1.42587e-09 0)
(0.127263 1.11869e-09 0)
(0.127263 1.8771e-08 0)
(0.127263 2.27135e-08 0)
(0.127263 -4.58973e-09 0)
(0.127263 -2.76885e-08 0)
(0.127263 -2.57759e-08 0)
(0.127263 -1.78725e-08 0)
(0.127263 -4.68723e-09 0)
(0.127263 8.09012e-09 0)
(0.127263 7.0464e-09 0)
(0.127263 -2.60898e-09 0)
(0.127263 -1.38988e-08 0)
(0.127263 -2.51089e-08 0)
(0.127263 -2.9493e-08 0)
(0.127263 -2.1008e-08 0)
(0.127263 -9.31554e-09 0)
(0.127263 -6.93874e-09 0)
(0.127263 -1.6089e-08 0)
(0.127263 -3.3345e-08 0)
(0.127263 -4.63561e-08 0)
(0.127263 -3.91624e-08 0)
(0.127263 -2.00379e-08 0)
(0.127263 -1.05818e-08 0)
(0.127264 -8.20417e-09 0)
(0.127264 -3.55922e-09 0)
(0.127264 2.36299e-09 0)
(0.127264 1.13225e-08 0)
(0.127264 1.8556e-08 0)
(0.127264 1.71913e-08 0)
(0.127263 1.59445e-08 0)
(0.127263 2.02722e-08 0)
(0.127263 2.25514e-08 0)
(0.127263 2.31119e-08 0)
(0.127263 2.63165e-08 0)
(0.127263 2.84764e-08 0)
(0.127263 3.28752e-08 0)
(0.127262 4.95619e-08 0)
(0.127262 6.85771e-08 0)
(0.127262 6.90478e-08 0)
(0.127262 5.43569e-08 0)
(0.127262 4.52006e-08 0)
(0.127262 4.71198e-08 0)
(0.127261 5.01732e-08 0)
(0.127261 4.67932e-08 0)
(0.127261 3.42618e-08 0)
(0.127261 1.6111e-08 0)
(0.127261 1.15973e-09 0)
(0.127261 -7.54548e-09 0)
(0.127261 -1.57884e-08 0)
(0.127262 -2.4906e-08 0)
(0.127262 -3.17405e-08 0)
(0.127262 -3.6575e-08 0)
(0.127262 -3.90335e-08 0)
(0.127262 -4.08734e-08 0)
(0.127263 -4.65882e-08 0)
(0.127263 -4.82189e-08 0)
(0.127263 -3.41128e-08 0)
(0.127263 -1.35764e-08 0)
(0.127263 -1.66831e-09 0)
(0.127263 3.26257e-09 0)
(0.127263 7.3982e-09 0)
(0.127263 7.5109e-09 0)
(0.127263 3.79921e-09 0)
(0.127263 4.03395e-09 0)
(0.127263 1.34842e-08 0)
(0.127263 2.68666e-08 0)
(0.127263 2.98551e-08 0)
(0.127263 2.00224e-08 0)
(0.127263 1.27653e-08 0)
(0.127262 1.90578e-08 0)
(0.127262 3.21518e-08 0)
(0.127262 3.91223e-08 0)
(0.127262 3.27436e-08 0)
(0.127262 1.8065e-08 0)
(0.127262 1.0147e-08 0)
(0.127262 1.57809e-08 0)
(0.127262 2.643e-08 0)
(0.127262 3.02479e-08 0)
(0.127262 2.11065e-08 0)
(0.127262 2.91878e-09 0)
(0.127262 -1.48595e-08 0)
(0.127262 -2.88856e-08 0)
(0.127262 -4.08e-08 0)
(0.127262 -4.82894e-08 0)
(0.127262 -5.02532e-08 0)
(0.127262 -5.09203e-08 0)
(0.127263 -5.29171e-08 0)
(0.127263 -5.38099e-08 0)
(0.127263 -5.10411e-08 0)
(0.127263 -4.39247e-08 0)
(0.127263 -2.98148e-08 0)
(0.127263 -8.70139e-09 0)
(0.127263 1.23699e-08 0)
(0.127263 2.81256e-08 0)
(0.127263 4.02209e-08 0)
(0.127263 4.94486e-08 0)
(0.127263 5.35306e-08 0)
(0.127262 5.49485e-08 0)
(0.127262 5.86759e-08 0)
(0.127262 6.47669e-08 0)
(0.127262 6.98678e-08 0)
(0.127262 6.49003e-08 0)
(0.127262 4.36868e-08 0)
(0.127261 2.0127e-08 0)
(0.127261 1.2854e-08 0)
(0.127261 1.92603e-08 0)
(0.127261 2.39095e-08 0)
(0.127261 1.84584e-08 0)
(0.127261 2.00201e-09 0)
(0.127261 -1.77171e-08 0)
(0.127261 -2.57087e-08 0)
(0.127261 -2.67389e-08 0)
(0.127261 -3.20511e-08 0)
(0.127261 -3.1892e-08 0)
(0.127261 -2.40002e-08 0)
(0.127261 -2.15667e-08 0)
(0.127261 -2.29151e-08 0)
(0.127262 -2.18902e-08 0)
(0.127262 -2.04409e-08 0)
(0.127262 -2.12538e-08 0)
(0.127262 -1.6562e-08 0)
(0.127262 -9.00898e-09 0)
(0.127262 -8.51418e-09 0)
(0.127262 9.23378e-10 0)
(0.127262 1.22785e-08 0)
(0.127262 2.19375e-08 0)
(0.127262 2.41173e-08 0)
(0.127262 1.9733e-08 0)
(0.127262 2.25049e-08 0)
(0.127262 1.5617e-08 0)
(0.343984 -5.52653e-07 0)
(0.343984 -5.05894e-07 0)
(0.343985 -4.35445e-07 0)
(0.343985 -4.0316e-07 0)
(0.343986 -3.70483e-07 0)
(0.343986 -3.53897e-07 0)
(0.343986 -3.18992e-07 0)
(0.343987 -2.91243e-07 0)
(0.343987 -2.09009e-07 0)
(0.343987 -1.99649e-07 0)
(0.343987 -2.02409e-07 0)
(0.343988 -1.64783e-07 0)
(0.343988 -1.27407e-07 0)
(0.343988 -1.33169e-07 0)
(0.343988 -1.14632e-07 0)
(0.343988 -9.37577e-08 0)
(0.343988 -1.01696e-07 0)
(0.343988 -9.54947e-08 0)
(0.343988 -8.0998e-08 0)
(0.343988 -7.53932e-08 0)
(0.343989 -4.53681e-08 0)
(0.343989 -4.82398e-09 0)
(0.343989 -3.15009e-09 0)
(0.343989 -4.24034e-08 0)
(0.343989 -6.89446e-08 0)
(0.343989 -6.27662e-08 0)
(0.343989 -5.37873e-08 0)
(0.343989 -3.32329e-08 0)
(0.343989 -1.91953e-08 0)
(0.343989 -4.37414e-08 0)
(0.343989 -7.5791e-08 0)
(0.343989 -9.32869e-08 0)
(0.343989 -1.10784e-07 0)
(0.343989 -1.22462e-07 0)
(0.34399 -1.15737e-07 0)
(0.34399 -1.11317e-07 0)
(0.34399 -1.27472e-07 0)
(0.34399 -1.52453e-07 0)
(0.34399 -1.75302e-07 0)
(0.34399 -1.9074e-07 0)
(0.34399 -1.77948e-07 0)
(0.343991 -1.40311e-07 0)
(0.343991 -1.13721e-07 0)
(0.343991 -9.21102e-08 0)
(0.343991 -5.15376e-08 0)
(0.343991 -4.20103e-09 0)
(0.343991 4.36396e-08 0)
(0.343991 9.05259e-08 0)
(0.343991 1.23352e-07 0)
(0.343991 1.51664e-07 0)
(0.343991 1.86445e-07 0)
(0.34399 2.07937e-07 0)
(0.34399 2.13826e-07 0)
(0.34399 2.29088e-07 0)
(0.343989 2.54451e-07 0)
(0.343989 2.78042e-07 0)
(0.343988 3.13359e-07 0)
(0.343988 3.56145e-07 0)
(0.343987 3.62542e-07 0)
(0.343987 3.17548e-07 0)
(0.343987 2.56646e-07 0)
(0.343986 2.04292e-07 0)
(0.343986 1.53299e-07 0)
(0.343986 9.40634e-08 0)
(0.343986 2.33726e-08 0)
(0.343986 -5.61644e-08 0)
(0.343986 -1.30878e-07 0)
(0.343986 -1.90857e-07 0)
(0.343987 -2.40499e-07 0)
(0.343987 -2.81328e-07 0)
(0.343987 -3.08609e-07 0)
(0.343988 -3.23891e-07 0)
(0.343988 -3.24443e-07 0)
(0.343989 -3.09005e-07 0)
(0.343989 -2.90064e-07 0)
(0.34399 -2.64358e-07 0)
(0.34399 -2.08097e-07 0)
(0.34399 -1.31001e-07 0)
(0.34399 -6.92255e-08 0)
(0.343991 -2.6109e-08 0)
(0.343991 1.77257e-08 0)
(0.34399 6.20284e-08 0)
(0.34399 9.41577e-08 0)
(0.34399 1.13935e-07 0)
(0.34399 1.32405e-07 0)
(0.34399 1.58528e-07 0)
(0.34399 1.80211e-07 0)
(0.343989 1.83053e-07 0)
(0.343989 1.78062e-07 0)
(0.343989 1.82222e-07 0)
(0.343989 1.92845e-07 0)
(0.343988 1.99478e-07 0)
(0.343988 1.93658e-07 0)
(0.343988 1.70982e-07 0)
(0.343988 1.42432e-07 0)
(0.343987 1.20403e-07 0)
(0.343987 9.94006e-08 0)
(0.343987 6.52157e-08 0)
(0.343987 9.07716e-09 0)
(0.343987 -6.34053e-08 0)
(0.343987 -1.32995e-07 0)
(0.343988 -1.91367e-07 0)
(0.343988 -2.46434e-07 0)
(0.343988 -2.96545e-07 0)
(0.343989 -3.29299e-07 0)
(0.343989 -3.41332e-07 0)
(0.34399 -3.35685e-07 0)
(0.34399 -3.10191e-07 0)
(0.34399 -2.65862e-07 0)
(0.343991 -2.11705e-07 0)
(0.343991 -1.48072e-07 0)
(0.343991 -6.73812e-08 0)
(0.343991 2.27162e-08 0)
(0.343991 1.0888e-07 0)
(0.343991 1.86867e-07 0)
(0.34399 2.50665e-07 0)
(0.34399 2.89676e-07 0)
(0.34399 3.08255e-07 0)
(0.343989 3.20403e-07 0)
(0.343989 3.31085e-07 0)
(0.343988 3.39608e-07 0)
(0.343988 3.33278e-07 0)
(0.343987 2.91596e-07 0)
(0.343987 2.24557e-07 0)
(0.343987 1.68691e-07 0)
(0.343987 1.37107e-07 0)
(0.343987 1.10467e-07 0)
(0.343986 7.57955e-08 0)
(0.343986 2.94473e-08 0)
(0.343986 -2.58179e-08 0)
(0.343986 -6.06712e-08 0)
(0.343986 -7.40726e-08 0)
(0.343987 -1.01592e-07 0)
(0.343987 -1.30138e-07 0)
(0.343987 -1.27145e-07 0)
(0.343987 -1.0936e-07 0)
(0.343987 -9.74646e-08 0)
(0.343987 -9.31649e-08 0)
(0.343988 -9.37365e-08 0)
(0.343988 -9.91289e-08 0)
(0.343988 -8.93937e-08 0)
(0.343988 -5.81822e-08 0)
(0.343988 -5.02147e-08 0)
(0.343988 -3.91849e-08 0)
(0.343988 -2.68349e-09 0)
(0.343988 2.77095e-08 0)
(0.343988 4.96569e-08 0)
(0.343988 5.50093e-08 0)
(0.343988 5.72623e-08 0)
(0.343988 2.91727e-08 0)
(0.524392 -9.41638e-07 0)
(0.524392 -9.57247e-07 0)
(0.524393 -9.82629e-07 0)
(0.524393 -8.97577e-07 0)
(0.524394 -8.48031e-07 0)
(0.524394 -7.61533e-07 0)
(0.524394 -6.99998e-07 0)
(0.524395 -6.2591e-07 0)
(0.524395 -5.30777e-07 0)
(0.524395 -4.67519e-07 0)
(0.524395 -4.14585e-07 0)
(0.524396 -3.85943e-07 0)
(0.524396 -3.34419e-07 0)
(0.524396 -2.80918e-07 0)
(0.524396 -2.8428e-07 0)
(0.524396 -2.67851e-07 0)
(0.524397 -2.15006e-07 0)
(0.524397 -2.00328e-07 0)
(0.524397 -2.0551e-07 0)
(0.524397 -1.79088e-07 0)
(0.524397 -1.34915e-07 0)
(0.524397 -1.12923e-07 0)
(0.524397 -1.20105e-07 0)
(0.524397 -1.27903e-07 0)
(0.524397 -1.17053e-07 0)
(0.524397 -9.0625e-08 0)
(0.524397 -8.73413e-08 0)
(0.524397 -1.01459e-07 0)
(0.524397 -1.12516e-07 0)
(0.524398 -1.43282e-07 0)
(0.524398 -1.82153e-07 0)
(0.524398 -2.04586e-07 0)
(0.524398 -2.30688e-07 0)
(0.524398 -2.69339e-07 0)
(0.524398 -2.97961e-07 0)
(0.524398 -3.22746e-07 0)
(0.524399 -3.62207e-07 0)
(0.524399 -3.95705e-07 0)
(0.524399 -4.04723e-07 0)
(0.524399 -4.06733e-07 0)
(0.524399 -4.00032e-07 0)
(0.5244 -3.61631e-07 0)
(0.5244 -3.05278e-07 0)
(0.5244 -2.38257e-07 0)
(0.5244 -1.4005e-07 0)
(0.5244 -2.79426e-08 0)
(0.5244 7.61648e-08 0)
(0.5244 1.8346e-07 0)
(0.5244 2.8832e-07 0)
(0.5244 3.79879e-07 0)
(0.5244 4.71569e-07 0)
(0.524399 5.59894e-07 0)
(0.524399 6.30903e-07 0)
(0.524398 7.02322e-07 0)
(0.524398 7.84602e-07 0)
(0.524397 8.4451e-07 0)
(0.524396 8.65533e-07 0)
(0.524396 8.69733e-07 0)
(0.524395 8.50999e-07 0)
(0.524395 7.7572e-07 0)
(0.524394 6.44253e-07 0)
(0.524394 4.83422e-07 0)
(0.524393 3.07718e-07 0)
(0.524393 1.25372e-07 0)
(0.524393 -5.66198e-08 0)
(0.524393 -2.40812e-07 0)
(0.524394 -4.22421e-07 0)
(0.524394 -5.85356e-07 0)
(0.524395 -7.22623e-07 0)
(0.524395 -8.2997e-07 0)
(0.524396 -8.96663e-07 0)
(0.524396 -9.24207e-07 0)
(0.524397 -9.15252e-07 0)
(0.524398 -8.58434e-07 0)
(0.524398 -7.61746e-07 0)
(0.524399 -6.51435e-07 0)
(0.524399 -5.25714e-07 0)
(0.5244 -3.77465e-07 0)
(0.5244 -2.32285e-07 0)
(0.5244 -1.06887e-07 0)
(0.5244 1.56611e-08 0)
(0.5244 1.4393e-07 0)
(0.5244 2.58641e-07 0)
(0.5244 3.36426e-07 0)
(0.524399 3.79518e-07 0)
(0.524399 4.17894e-07 0)
(0.524399 4.70466e-07 0)
(0.524398 5.18387e-07 0)
(0.524398 5.4114e-07 0)
(0.524398 5.42393e-07 0)
(0.524397 5.32663e-07 0)
(0.524397 5.20337e-07 0)
(0.524397 5.05935e-07 0)
(0.524396 4.72247e-07 0)
(0.524396 4.03985e-07 0)
(0.524396 3.05898e-07 0)
(0.524396 1.89615e-07 0)
(0.524396 6.18458e-08 0)
(0.524396 -7.78635e-08 0)
(0.524396 -2.32856e-07 0)
(0.524396 -3.91544e-07 0)
(0.524396 -5.35258e-07 0)
(0.524397 -6.63152e-07 0)
(0.524397 -7.78844e-07 0)
(0.524398 -8.66434e-07 0)
(0.524398 -9.04683e-07 0)
(0.524399 -8.86646e-07 0)
(0.524399 -8.12932e-07 0)
(0.5244 -6.86017e-07 0)
(0.5244 -5.22306e-07 0)
(0.524401 -3.44214e-07 0)
(0.524401 -1.54392e-07 0)
(0.524401 4.86094e-08 0)
(0.524401 2.50942e-07 0)
(0.5244 4.37482e-07 0)
(0.5244 5.98698e-07 0)
(0.5244 7.18393e-07 0)
(0.524399 7.89634e-07 0)
(0.524399 8.25231e-07 0)
(0.524398 8.34496e-07 0)
(0.524397 8.22251e-07 0)
(0.524397 7.93581e-07 0)
(0.524396 7.34245e-07 0)
(0.524396 6.3046e-07 0)
(0.524396 5.02271e-07 0)
(0.524395 3.81262e-07 0)
(0.524395 2.72265e-07 0)
(0.524395 1.71101e-07 0)
(0.524395 7.91356e-08 0)
(0.524395 -1.35632e-08 0)
(0.524395 -9.61278e-08 0)
(0.524395 -1.5194e-07 0)
(0.524395 -2.11476e-07 0)
(0.524395 -2.82416e-07 0)
(0.524395 -3.15625e-07 0)
(0.524396 -3.00893e-07 0)
(0.524396 -2.7417e-07 0)
(0.524396 -2.54211e-07 0)
(0.524396 -2.3938e-07 0)
(0.524397 -2.30944e-07 0)
(0.524397 -2.1913e-07 0)
(0.524397 -1.77913e-07 0)
(0.524397 -1.46152e-07 0)
(0.524397 -1.24646e-07 0)
(0.524397 -5.50986e-08 0)
(0.524397 -7.95619e-09 0)
(0.524397 1.87694e-08 0)
(0.524398 6.95608e-08 0)
(0.524398 3.29455e-08 0)
(0.524398 1.2375e-08 0)
(0.669868 -1.2526e-06 0)
(0.669868 -1.33896e-06 0)
(0.669868 -1.31803e-06 0)
(0.669868 -1.2874e-06 0)
(0.669869 -1.20027e-06 0)
(0.669869 -1.09538e-06 0)
(0.669869 -9.64847e-07 0)
(0.669869 -9.02068e-07 0)
(0.66987 -8.11094e-07 0)
(0.66987 -7.11175e-07 0)
(0.66987 -6.21181e-07 0)
(0.66987 -5.97244e-07 0)
(0.66987 -5.69661e-07 0)
(0.669871 -5.10537e-07 0)
(0.669871 -4.49092e-07 0)
(0.669871 -3.99947e-07 0)
(0.669871 -3.54277e-07 0)
(0.669871 -3.47368e-07 0)
(0.669871 -3.27043e-07 0)
(0.669871 -2.68208e-07 0)
(0.669871 -2.26687e-07 0)
(0.669871 -2.19808e-07 0)
(0.669871 -2.1754e-07 0)
(0.669871 -2.04489e-07 0)
(0.669872 -1.86511e-07 0)
(0.669872 -1.51144e-07 0)
(0.669872 -1.4027e-07 0)
(0.669872 -1.79657e-07 0)
(0.669872 -2.16672e-07 0)
(0.669872 -2.42432e-07 0)
(0.669872 -2.77022e-07 0)
(0.669872 -3.08451e-07 0)
(0.669872 -3.4398e-07 0)
(0.669872 -4.10768e-07 0)
(0.669873 -4.889e-07 0)
(0.669873 -5.48654e-07 0)
(0.669873 -6.01262e-07 0)
(0.669873 -6.438e-07 0)
(0.669873 -6.53074e-07 0)
(0.669874 -6.47094e-07 0)
(0.669874 -6.42016e-07 0)
(0.669874 -5.95858e-07 0)
(0.669874 -4.95666e-07 0)
(0.669874 -3.75226e-07 0)
(0.669875 -2.34713e-07 0)
(0.669875 -7.5138e-08 0)
(0.669875 8.31045e-08 0)
(0.669875 2.53141e-07 0)
(0.669875 4.41448e-07 0)
(0.669874 6.21725e-07 0)
(0.669874 7.92015e-07 0)
(0.669874 9.68002e-07 0)
(0.669873 1.13736e-06 0)
(0.669872 1.29067e-06 0)
(0.669872 1.43471e-06 0)
(0.669871 1.54119e-06 0)
(0.66987 1.56734e-06 0)
(0.66987 1.524e-06 0)
(0.669869 1.44047e-06 0)
(0.669869 1.30529e-06 0)
(0.669868 1.09828e-06 0)
(0.669868 8.28046e-07 0)
(0.669867 5.14823e-07 0)
(0.669867 1.81737e-07 0)
(0.669867 -1.47975e-07 0)
(0.669867 -4.69111e-07 0)
(0.669868 -7.8356e-07 0)
(0.669868 -1.07214e-06 0)
(0.669869 -1.31223e-06 0)
(0.669869 -1.49367e-06 0)
(0.66987 -1.60461e-06 0)
(0.669871 -1.64206e-06 0)
(0.669871 -1.61625e-06 0)
(0.669872 -1.51927e-06 0)
(0.669873 -1.34595e-06 0)
(0.669873 -1.13178e-06 0)
(0.669874 -9.09175e-07 0)
(0.669874 -6.73415e-07 0)
(0.669874 -4.26687e-07 0)
(0.669874 -1.90399e-07 0)
(0.669875 2.67023e-08 0)
(0.669874 2.28657e-07 0)
(0.669874 4.13412e-07 0)
(0.669874 5.69742e-07 0)
(0.669874 6.85974e-07 0)
(0.669873 7.70609e-07 0)
(0.669873 8.46039e-07 0)
(0.669873 9.12867e-07 0)
(0.669872 9.54874e-07 0)
(0.669872 9.68909e-07 0)
(0.669872 9.58332e-07 0)
(0.669871 9.25524e-07 0)
(0.669871 8.73407e-07 0)
(0.66987 7.92548e-07 0)
(0.66987 6.64774e-07 0)
(0.66987 4.88744e-07 0)
(0.66987 2.77838e-07 0)
(0.66987 4.46984e-08 0)
(0.66987 -2.03814e-07 0)
(0.66987 -4.68508e-07 0)
(0.66987 -7.44069e-07 0)
(0.669871 -1.00492e-06 0)
(0.669871 -1.22605e-06 0)
(0.669872 -1.398e-06 0)
(0.669872 -1.51146e-06 0)
(0.669873 -1.55206e-06 0)
(0.669874 -1.51355e-06 0)
(0.669874 -1.39637e-06 0)
(0.669875 -1.19644e-06 0)
(0.669875 -9.21083e-07 0)
(0.669875 -6.01606e-07 0)
(0.669876 -2.66176e-07 0)
(0.669876 7.37378e-08 0)
(0.669876 4.0002e-07 0)
(0.669875 6.92974e-07 0)
(0.669875 9.48978e-07 0)
(0.669875 1.16445e-06 0)
(0.669874 1.32521e-06 0)
(0.669873 1.42525e-06 0)
(0.669873 1.4609e-06 0)
(0.669872 1.4268e-06 0)
(0.669872 1.3413e-06 0)
(0.669871 1.22909e-06 0)
(0.669871 1.08782e-06 0)
(0.66987 9.11359e-07 0)
(0.66987 7.15329e-07 0)
(0.66987 5.13593e-07 0)
(0.669869 3.1582e-07 0)
(0.669869 1.43814e-07 0)
(0.669869 -9.50598e-09 0)
(0.669869 -1.61536e-07 0)
(0.669869 -2.86809e-07 0)
(0.66987 -3.76606e-07 0)
(0.66987 -4.56652e-07 0)
(0.66987 -5.19226e-07 0)
(0.66987 -5.40891e-07 0)
(0.66987 -5.2908e-07 0)
(0.669871 -5.00605e-07 0)
(0.669871 -4.66873e-07 0)
(0.669871 -4.3511e-07 0)
(0.669871 -4.16067e-07 0)
(0.669872 -3.76055e-07 0)
(0.669872 -2.99699e-07 0)
(0.669872 -2.26439e-07 0)
(0.669872 -1.40342e-07 0)
(0.669872 -7.2073e-08 0)
(0.669872 -3.28983e-08 0)
(0.669872 1.88547e-08 0)
(0.669872 6.94054e-09 0)
(0.669872 -3.38219e-08 0)
(0.781635 -1.43101e-06 0)
(0.781635 -1.4663e-06 0)
(0.781635 -1.47254e-06 0)
(0.781635 -1.46421e-06 0)
(0.781636 -1.35544e-06 0)
(0.781636 -1.26687e-06 0)
(0.781636 -1.13139e-06 0)
(0.781636 -1.03803e-06 0)
(0.781636 -9.42426e-07 0)
(0.781636 -8.59523e-07 0)
(0.781636 -7.68831e-07 0)
(0.781636 -7.14516e-07 0)
(0.781636 -6.62725e-07 0)
(0.781636 -6.09834e-07 0)
(0.781636 -5.43927e-07 0)
(0.781636 -4.91593e-07 0)
(0.781636 -4.69695e-07 0)
(0.781636 -4.58747e-07 0)
(0.781636 -4.21893e-07 0)
(0.781636 -3.61686e-07 0)
(0.781636 -3.18079e-07 0)
(0.781636 -3.04872e-07 0)
(0.781637 -2.92451e-07 0)
(0.781637 -2.59076e-07 0)
(0.781637 -2.40198e-07 0)
(0.781637 -2.30275e-07 0)
(0.781637 -2.21431e-07 0)
(0.781637 -2.45905e-07 0)
(0.781637 -2.90572e-07 0)
(0.781637 -3.37623e-07 0)
(0.781637 -3.96112e-07 0)
(0.781637 -4.49691e-07 0)
(0.781637 -4.88855e-07 0)
(0.781637 -5.54711e-07 0)
(0.781638 -6.56179e-07 0)
(0.781638 -7.4361e-07 0)
(0.781638 -8.04505e-07 0)
(0.781638 -8.5635e-07 0)
(0.781638 -8.77686e-07 0)
(0.781639 -8.62588e-07 0)
(0.781639 -8.41676e-07 0)
(0.781639 -7.89532e-07 0)
(0.781639 -6.67257e-07 0)
(0.781639 -5.08637e-07 0)
(0.781639 -3.39328e-07 0)
(0.781639 -1.44811e-07 0)
(0.78164 7.21494e-08 0)
(0.781639 3.15124e-07 0)
(0.781639 5.93399e-07 0)
(0.781639 8.76432e-07 0)
(0.781639 1.13689e-06 0)
(0.781638 1.3913e-06 0)
(0.781638 1.64304e-06 0)
(0.781637 1.86567e-06 0)
(0.781637 2.0521e-06 0)
(0.781636 2.19617e-06 0)
(0.781636 2.25647e-06 0)
(0.781635 2.20822e-06 0)
(0.781634 2.07308e-06 0)
(0.781634 1.86397e-06 0)
(0.781633 1.57055e-06 0)
(0.781633 1.19558e-06 0)
(0.781633 7.58006e-07 0)
(0.781632 2.80114e-07 0)
(0.781632 -2.08305e-07 0)
(0.781633 -6.83786e-07 0)
(0.781633 -1.13893e-06 0)
(0.781633 -1.55353e-06 0)
(0.781634 -1.89359e-06 0)
(0.781634 -2.14183e-06 0)
(0.781635 -2.28895e-06 0)
(0.781636 -2.32957e-06 0)
(0.781636 -2.28184e-06 0)
(0.781637 -2.15776e-06 0)
(0.781638 -1.94446e-06 0)
(0.781638 -1.65438e-06 0)
(0.781639 -1.32952e-06 0)
(0.781639 -9.87389e-07 0)
(0.781639 -6.27914e-07 0)
(0.781639 -2.73662e-07 0)
(0.781639 4.79465e-08 0)
(0.781639 3.2604e-07 0)
(0.781639 5.69568e-07 0)
(0.781639 7.91539e-07 0)
(0.781639 9.84879e-07 0)
(0.781638 1.13181e-06 0)
(0.781638 1.23512e-06 0)
(0.781638 1.30835e-06 0)
(0.781637 1.35572e-06 0)
(0.781637 1.38026e-06 0)
(0.781637 1.37671e-06 0)
(0.781636 1.32766e-06 0)
(0.781636 1.22822e-06 0)
(0.781636 1.08615e-06 0)
(0.781635 8.99301e-07 0)
(0.781635 6.59565e-07 0)
(0.781635 3.66199e-07 0)
(0.781635 2.68889e-08 0)
(0.781635 -3.42129e-07 0)
(0.781635 -7.25475e-07 0)
(0.781635 -1.11208e-06 0)
(0.781636 -1.47844e-06 0)
(0.781636 -1.78922e-06 0)
(0.781637 -2.01936e-06 0)
(0.781637 -2.15606e-06 0)
(0.781638 -2.18917e-06 0)
(0.781639 -2.11577e-06 0)
(0.781639 -1.94306e-06 0)
(0.78164 -1.67394e-06 0)
(0.78164 -1.30912e-06 0)
(0.78164 -8.73371e-07 0)
(0.78164 -4.07998e-07 0)
(0.781641 6.17284e-08 0)
(0.78164 5.1535e-07 0)
(0.78164 9.24827e-07 0)
(0.78164 1.27887e-06 0)
(0.78164 1.58237e-06 0)
(0.781639 1.82667e-06 0)
(0.781639 1.99293e-06 0)
(0.781638 2.06678e-06 0)
(0.781637 2.03662e-06 0)
(0.781637 1.9167e-06 0)
(0.781636 1.74969e-06 0)
(0.781636 1.55554e-06 0)
(0.781636 1.32355e-06 0)
(0.781635 1.05877e-06 0)
(0.781635 7.79297e-07 0)
(0.781635 4.95731e-07 0)
(0.781635 2.35897e-07 0)
(0.781635 1.26004e-08 0)
(0.781635 -2.00628e-07 0)
(0.781635 -3.9546e-07 0)
(0.781635 -5.34923e-07 0)
(0.781635 -6.27018e-07 0)
(0.781635 -6.95267e-07 0)
(0.781636 -7.32921e-07 0)
(0.781636 -7.40277e-07 0)
(0.781636 -7.27525e-07 0)
(0.781636 -7.0029e-07 0)
(0.781636 -6.5245e-07 0)
(0.781637 -6.01503e-07 0)
(0.781637 -5.49678e-07 0)
(0.781637 -4.53015e-07 0)
(0.781637 -3.42463e-07 0)
(0.781637 -2.6243e-07 0)
(0.781637 -1.79705e-07 0)
(0.781637 -8.47593e-08 0)
(0.781638 -5.69523e-08 0)
(0.781637 -1.8262e-08 0)
(0.781638 -4.87133e-08 0)
(0.860707 -1.41371e-06 0)
(0.860707 -1.40498e-06 0)
(0.860707 -1.45179e-06 0)
(0.860707 -1.34379e-06 0)
(0.860706 -1.288e-06 0)
(0.860706 -1.18573e-06 0)
(0.860706 -1.09038e-06 0)
(0.860706 -9.72407e-07 0)
(0.860706 -8.7733e-07 0)
(0.860706 -8.07737e-07 0)
(0.860706 -7.60927e-07 0)
(0.860706 -6.88036e-07 0)
(0.860706 -6.25675e-07 0)
(0.860706 -5.87914e-07 0)
(0.860705 -5.69627e-07 0)
(0.860705 -5.45691e-07 0)
(0.860705 -5.07242e-07 0)
(0.860705 -4.65254e-07 0)
(0.860705 -4.25764e-07 0)
(0.860705 -3.81987e-07 0)
(0.860705 -3.57486e-07 0)
(0.860705 -3.59079e-07 0)
(0.860705 -3.50483e-07 0)
(0.860705 -3.09634e-07 0)
(0.860706 -2.90424e-07 0)
(0.860706 -2.99324e-07 0)
(0.860706 -2.91999e-07 0)
(0.860706 -3.02153e-07 0)
(0.860706 -3.56493e-07 0)
(0.860706 -4.24909e-07 0)
(0.860706 -5.02128e-07 0)
(0.860706 -5.90158e-07 0)
(0.860706 -6.61356e-07 0)
(0.860706 -7.26114e-07 0)
(0.860706 -8.21606e-07 0)
(0.860706 -9.18451e-07 0)
(0.860707 -9.77703e-07 0)
(0.860707 -1.02528e-06 0)
(0.860707 -1.06417e-06 0)
(0.860707 -1.05306e-06 0)
(0.860707 -1.00165e-06 0)
(0.860707 -9.28706e-07 0)
(0.860707 -8.06367e-07 0)
(0.860708 -6.38527e-07 0)
(0.860708 -4.45665e-07 0)
(0.860708 -2.05512e-07 0)
(0.860708 8.56607e-08 0)
(0.860708 4.00911e-07 0)
(0.860708 7.34077e-07 0)
(0.860707 1.07772e-06 0)
(0.860707 1.41106e-06 0)
(0.860707 1.74064e-06 0)
(0.860706 2.07451e-06 0)
(0.860706 2.3739e-06 0)
(0.860706 2.60102e-06 0)
(0.860705 2.75833e-06 0)
(0.860705 2.8346e-06 0)
(0.860704 2.79395e-06 0)
(0.860704 2.62792e-06 0)
(0.860703 2.35092e-06 0)
(0.860703 1.97131e-06 0)
(0.860702 1.5032e-06 0)
(0.860702 9.68377e-07 0)
(0.860702 3.80277e-07 0)
(0.860702 -2.404e-07 0)
(0.860702 -8.55178e-07 0)
(0.860702 -1.43333e-06 0)
(0.860703 -1.94988e-06 0)
(0.860703 -2.37157e-06 0)
(0.860704 -2.67923e-06 0)
(0.860704 -2.86818e-06 0)
(0.860705 -2.92647e-06 0)
(0.860705 -2.85954e-06 0)
(0.860706 -2.69344e-06 0)
(0.860706 -2.43445e-06 0)
(0.860706 -2.08386e-06 0)
(0.860707 -1.67468e-06 0)
(0.860707 -1.23947e-06 0)
(0.860707 -7.87943e-07 0)
(0.860707 -3.38214e-07 0)
(0.860707 7.76024e-08 0)
(0.860707 4.33495e-07 0)
(0.860707 7.2715e-07 0)
(0.860707 9.79198e-07 0)
(0.860707 1.20576e-06 0)
(0.860707 1.39627e-06 0)
(0.860706 1.54004e-06 0)
(0.860706 1.64071e-06 0)
(0.860706 1.69938e-06 0)
(0.860706 1.71833e-06 0)
(0.860705 1.70111e-06 0)
(0.860705 1.63507e-06 0)
(0.860705 1.50702e-06 0)
(0.860705 1.32273e-06 0)
(0.860704 1.08736e-06 0)
(0.860704 7.91979e-07 0)
(0.860704 4.27573e-07 0)
(0.860704 -1.47528e-09 0)
(0.860704 -4.72954e-07 0)
(0.860704 -9.56333e-07 0)
(0.860705 -1.42843e-06 0)
(0.860705 -1.86642e-06 0)
(0.860705 -2.2386e-06 0)
(0.860706 -2.51757e-06 0)
(0.860706 -2.68628e-06 0)
(0.860706 -2.72751e-06 0)
(0.860707 -2.62718e-06 0)
(0.860707 -2.39394e-06 0)
(0.860708 -2.05276e-06 0)
(0.860708 -1.61707e-06 0)
(0.860708 -1.09921e-06 0)
(0.860708 -5.3406e-07 0)
(0.860709 4.28948e-08 0)
(0.860708 6.08667e-07 0)
(0.860708 1.13588e-06 0)
(0.860708 1.59673e-06 0)
(0.860708 1.9777e-06 0)
(0.860707 2.26758e-06 0)
(0.860707 2.45312e-06 0)
(0.860707 2.53523e-06 0)
(0.860706 2.51647e-06 0)
(0.860706 2.39561e-06 0)
(0.860705 2.19382e-06 0)
(0.860705 1.94087e-06 0)
(0.860705 1.64553e-06 0)
(0.860705 1.31848e-06 0)
(0.860704 9.82895e-07 0)
(0.860704 6.4337e-07 0)
(0.860704 3.10878e-07 0)
(0.860704 1.66973e-08 0)
(0.860704 -2.39795e-07 0)
(0.860704 -4.71546e-07 0)
(0.860704 -6.57786e-07 0)
(0.860704 -7.80949e-07 0)
(0.860705 -8.54362e-07 0)
(0.860705 -8.89363e-07 0)
(0.860705 -9.03307e-07 0)
(0.860705 -9.01994e-07 0)
(0.860705 -8.76416e-07 0)
(0.860705 -8.17028e-07 0)
(0.860706 -7.28631e-07 0)
(0.860706 -6.47624e-07 0)
(0.860706 -5.54305e-07 0)
(0.860706 -4.46168e-07 0)
(0.860706 -3.56391e-07 0)
(0.860706 -2.70057e-07 0)
(0.860706 -1.7102e-07 0)
(0.860706 -9.43823e-08 0)
(0.860706 -9.17094e-08 0)
(0.860706 -9.70957e-08 0)
(0.907839 -1.2672e-06 0)
(0.907838 -1.26656e-06 0)
(0.907838 -1.23055e-06 0)
(0.907838 -1.09437e-06 0)
(0.907838 -1.05478e-06 0)
(0.907837 -9.46441e-07 0)
(0.907837 -8.63869e-07 0)
(0.907837 -7.49676e-07 0)
(0.907837 -6.90236e-07 0)
(0.907836 -6.07451e-07 0)
(0.907836 -5.5757e-07 0)
(0.907836 -5.30462e-07 0)
(0.907836 -5.39132e-07 0)
(0.907836 -5.32087e-07 0)
(0.907835 -5.0296e-07 0)
(0.907835 -4.85969e-07 0)
(0.907835 -4.52619e-07 0)
(0.907835 -4.07389e-07 0)
(0.907835 -3.90136e-07 0)
(0.907835 -3.86893e-07 0)
(0.907835 -3.73852e-07 0)
(0.907835 -3.46309e-07 0)
(0.907835 -3.20529e-07 0)
(0.907835 -3.0639e-07 0)
(0.907835 -3.16997e-07 0)
(0.907835 -3.37553e-07 0)
(0.907835 -3.34683e-07 0)
(0.907835 -3.5308e-07 0)
(0.907835 -4.29752e-07 0)
(0.907835 -5.1425e-07 0)
(0.907835 -5.78971e-07 0)
(0.907835 -6.59478e-07 0)
(0.907835 -7.5531e-07 0)
(0.907835 -8.39957e-07 0)
(0.907835 -9.34907e-07 0)
(0.907835 -1.03998e-06 0)
(0.907836 -1.10516e-06 0)
(0.907836 -1.13474e-06 0)
(0.907836 -1.16221e-06 0)
(0.907836 -1.15482e-06 0)
(0.907836 -1.09106e-06 0)
(0.907836 -1.00511e-06 0)
(0.907836 -8.93175e-07 0)
(0.907836 -7.29792e-07 0)
(0.907836 -5.16074e-07 0)
(0.907836 -2.38238e-07 0)
(0.907836 1.05137e-07 0)
(0.907836 4.67393e-07 0)
(0.907836 8.2278e-07 0)
(0.907836 1.18875e-06 0)
(0.907836 1.56926e-06 0)
(0.907835 1.95464e-06 0)
(0.907835 2.34358e-06 0)
(0.907835 2.7041e-06 0)
(0.907835 2.97728e-06 0)
(0.907835 3.14226e-06 0)
(0.907834 3.20711e-06 0)
(0.907834 3.15881e-06 0)
(0.907834 2.98124e-06 0)
(0.907833 2.67752e-06 0)
(0.907833 2.25295e-06 0)
(0.907833 1.71952e-06 0)
(0.907833 1.10597e-06 0)
(0.907833 4.36308e-07 0)
(0.907833 -2.68789e-07 0)
(0.907833 -9.70573e-07 0)
(0.907833 -1.6273e-06 0)
(0.907833 -2.21275e-06 0)
(0.907833 -2.69663e-06 0)
(0.907834 -3.05261e-06 0)
(0.907834 -3.27425e-06 0)
(0.907834 -3.35098e-06 0)
(0.907834 -3.27396e-06 0)
(0.907835 -3.0671e-06 0)
(0.907835 -2.75874e-06 0)
(0.907835 -2.35693e-06 0)
(0.907835 -1.88365e-06 0)
(0.907836 -1.37834e-06 0)
(0.907836 -8.69182e-07 0)
(0.907836 -3.7452e-07 0)
(0.907836 8.48073e-08 0)
(0.907836 4.92716e-07 0)
(0.907836 8.36129e-07 0)
(0.907836 1.11812e-06 0)
(0.907836 1.35791e-06 0)
(0.907835 1.56399e-06 0)
(0.907835 1.73145e-06 0)
(0.907835 1.85659e-06 0)
(0.907835 1.92853e-06 0)
(0.907835 1.93794e-06 0)
(0.907835 1.89735e-06 0)
(0.907835 1.81815e-06 0)
(0.907835 1.68882e-06 0)
(0.907834 1.49336e-06 0)
(0.907834 1.22347e-06 0)
(0.907834 8.74618e-07 0)
(0.907834 4.48837e-07 0)
(0.907834 -4.17692e-08 0)
(0.907834 -5.73054e-07 0)
(0.907834 -1.11295e-06 0)
(0.907834 -1.6355e-06 0)
(0.907835 -2.12028e-06 0)
(0.907835 -2.53679e-06 0)
(0.907835 -2.84932e-06 0)
(0.907835 -3.03369e-06 0)
(0.907835 -3.07542e-06 0)
(0.907836 -2.9614e-06 0)
(0.907836 -2.69525e-06 0)
(0.907836 -2.30846e-06 0)
(0.907836 -1.8267e-06 0)
(0.907837 -1.25453e-06 0)
(0.907837 -6.15097e-07 0)
(0.907837 4.18999e-08 0)
(0.907837 6.78545e-07 0)
(0.907837 1.2741e-06 0)
(0.907836 1.80481e-06 0)
(0.907836 2.24292e-06 0)
(0.907836 2.56437e-06 0)
(0.907836 2.75474e-06 0)
(0.907836 2.8275e-06 0)
(0.907835 2.80675e-06 0)
(0.907835 2.68949e-06 0)
(0.907835 2.47305e-06 0)
(0.907835 2.18621e-06 0)
(0.907835 1.85436e-06 0)
(0.907835 1.48624e-06 0)
(0.907834 1.10448e-06 0)
(0.907834 7.2726e-07 0)
(0.907834 3.59893e-07 0)
(0.907834 2.39076e-08 0)
(0.907834 -2.64781e-07 0)
(0.907834 -5.12161e-07 0)
(0.907834 -7.13899e-07 0)
(0.907834 -8.57101e-07 0)
(0.907835 -9.53378e-07 0)
(0.907835 -1.01054e-06 0)
(0.907835 -1.02911e-06 0)
(0.907835 -1.01405e-06 0)
(0.907835 -9.71364e-07 0)
(0.907835 -9.10938e-07 0)
(0.907835 -8.17443e-07 0)
(0.907835 -7.20875e-07 0)
(0.907835 -6.20459e-07 0)
(0.907835 -5.31601e-07 0)
(0.907835 -4.23677e-07 0)
(0.907836 -3.02804e-07 0)
(0.907836 -2.4384e-07 0)
(0.907836 -1.61174e-07 0)
(0.907835 -1.3148e-07 0)
(0.907836 -1.49825e-07 0)
(0.923498 -1.01661e-06 0)
(0.923497 -9.39188e-07 0)
(0.923497 -8.74008e-07 0)
(0.923497 -7.93889e-07 0)
(0.923496 -6.62096e-07 0)
(0.923496 -5.57982e-07 0)
(0.923496 -5.04577e-07 0)
(0.923495 -3.69374e-07 0)
(0.923495 -3.32184e-07 0)
(0.923495 -3.15832e-07 0)
(0.923495 -2.82683e-07 0)
(0.923494 -2.96338e-07 0)
(0.923494 -3.35309e-07 0)
(0.923494 -3.50342e-07 0)
(0.923494 -3.30951e-07 0)
(0.923493 -3.26469e-07 0)
(0.923493 -3.27831e-07 0)
(0.923493 -3.16439e-07 0)
(0.923493 -3.25325e-07 0)
(0.923493 -3.40924e-07 0)
(0.923493 -3.2254e-07 0)
(0.923493 -2.83879e-07 0)
(0.923493 -2.73469e-07 0)
(0.923493 -2.85161e-07 0)
(0.923493 -2.9515e-07 0)
(0.923493 -3.17769e-07 0)
(0.923493 -3.46007e-07 0)
(0.923493 -3.8336e-07 0)
(0.923493 -4.56452e-07 0)
(0.923493 -5.37764e-07 0)
(0.923493 -5.87171e-07 0)
(0.923493 -6.42995e-07 0)
(0.923493 -7.4631e-07 0)
(0.923493 -8.5565e-07 0)
(0.923493 -9.42084e-07 0)
(0.923493 -1.03029e-06 0)
(0.923493 -1.10778e-06 0)
(0.923493 -1.14728e-06 0)
(0.923493 -1.16711e-06 0)
(0.923493 -1.16554e-06 0)
(0.923493 -1.11937e-06 0)
(0.923493 -1.04837e-06 0)
(0.923493 -9.53442e-07 0)
(0.923493 -7.9286e-07 0)
(0.923493 -5.58248e-07 0)
(0.923493 -2.65501e-07 0)
(0.923493 7.78575e-08 0)
(0.923492 4.44224e-07 0)
(0.923492 8.13178e-07 0)
(0.923492 1.20546e-06 0)
(0.923492 1.63023e-06 0)
(0.923492 2.05379e-06 0)
(0.923492 2.4501e-06 0)
(0.923492 2.80802e-06 0)
(0.923492 3.09121e-06 0)
(0.923492 3.26481e-06 0)
(0.923492 3.32783e-06 0)
(0.923492 3.27943e-06 0)
(0.923492 3.10672e-06 0)
(0.923492 2.80667e-06 0)
(0.923492 2.37926e-06 0)
(0.923492 1.82649e-06 0)
(0.923492 1.17562e-06 0)
(0.923492 4.66766e-07 0)
(0.923492 -2.70695e-07 0)
(0.923492 -1.00238e-06 0)
(0.923492 -1.68581e-06 0)
(0.923492 -2.29381e-06 0)
(0.923492 -2.80255e-06 0)
(0.923492 -3.18157e-06 0)
(0.923492 -3.41581e-06 0)
(0.923492 -3.49915e-06 0)
(0.923492 -3.4217e-06 0)
(0.923492 -3.19989e-06 0)
(0.923492 -2.87084e-06 0)
(0.923492 -2.45182e-06 0)
(0.923492 -1.95347e-06 0)
(0.923492 -1.41151e-06 0)
(0.923492 -8.71542e-07 0)
(0.923492 -3.67216e-07 0)
(0.923492 8.59611e-08 0)
(0.923492 4.91047e-07 0)
(0.923492 8.50101e-07 0)
(0.923492 1.15604e-06 0)
(0.923492 1.41053e-06 0)
(0.923492 1.61955e-06 0)
(0.923492 1.78291e-06 0)
(0.923492 1.9039e-06 0)
(0.923492 1.98107e-06 0)
(0.923493 2.0013e-06 0)
(0.923493 1.9641e-06 0)
(0.923493 1.88156e-06 0)
(0.923493 1.74862e-06 0)
(0.923493 1.54482e-06 0)
(0.923493 1.25855e-06 0)