/*--------------------------------*- C++ -*----------------------------------*\
| =========                 |                                                 |
| \\      /  F ield         | OpenFOAM: The Open Source CFD Toolbox           |
|  \\    /   O peration     | Version:  2406                                  |
|   \\  /    A nd           | Website:  www.openfoam.com                      |
|    \\/     M anipulation  |                                                 |
\*---------------------------------------------------------------------------*/
FoamFile
{
    version     2.0;
    format      ascii;
    arch        "LSB;label=32;scalar=64";
    class       surfaceScalarField;
    location    "2.05";
    object      alphaPhi0.air;
}
// * * * * * * * * * * * * * * * * * * * * * * * * * * * * * * * * * * * * * //

dimensions      [0 3 -1 0 0 0 0];

oriented        oriented;

internalField   nonuniform List<scalar> 
12225
(
0.511135
1.63064e-06
0.511129
6.23569e-06
0.511121
7.44075e-06
0.511116
5.25657e-06
0.511112
4.22952e-06
0.511107
4.46269e-06
0.511102
5.1001e-06
0.511097
5.42027e-06
0.511092
5.31533e-06
0.511086
5.322e-06
0.511081
5.29066e-06
0.511076
5.20516e-06
0.51107
5.43426e-06
0.511065
5.76888e-06
0.511059
5.88942e-06
0.511053
5.65981e-06
0.511048
5.29944e-06
0.511043
5.17484e-06
0.511037
5.38389e-06
0.511032
5.45275e-06
0.511027
5.16119e-06
0.511021
5.2458e-06
0.511016
5.77774e-06
0.51101
5.83654e-06
0.511004
5.47774e-06
0.510999
5.63541e-06
0.510993
6.10181e-06
0.510987
5.97007e-06
0.510981
5.40645e-06
0.510976
5.08751e-06
0.510971
5.16392e-06
0.510965
5.40971e-06
0.51096
5.658e-06
0.510954
5.8619e-06
0.510948
5.92923e-06
0.510942
5.86997e-06
0.510937
5.56011e-06
0.510932
4.80386e-06
0.510928
4.2259e-06
0.510923
4.33787e-06
0.510919
4.71175e-06
0.510913
5.20535e-06
0.510908
5.7618e-06
0.510902
5.95996e-06
0.510896
5.75824e-06
0.51089
5.71518e-06
0.510884
5.92356e-06
0.510878
5.81995e-06
0.510873
5.52857e-06
0.510868
5.32408e-06
0.510862
5.23576e-06
0.510857
5.3685e-06
0.510852
5.28614e-06
0.510846
5.14536e-06
0.510841
5.18233e-06
0.510836
5.0009e-06
0.510831
4.87078e-06
0.510826
4.9512e-06
0.510821
5.16626e-06
0.510816
5.66157e-06
0.51081
6.02752e-06
0.510804
5.99069e-06
0.510798
5.8018e-06
0.510792
5.57571e-06
0.510787
5.37789e-06
0.510781
5.43832e-06
0.510776
5.70556e-06
0.51077
5.95262e-06
0.510764
6.0571e-06
0.510758
5.72963e-06
0.510753
5.09945e-06
0.510748
4.74451e-06
0.510743
4.77062e-06
0.510738
4.88282e-06
0.510733
5.04059e-06
0.510728
5.4604e-06
0.510722
5.8851e-06
0.510716
5.69915e-06
0.510711
5.05163e-06
0.510707
4.80226e-06
0.510701
5.16255e-06
0.510696
5.63596e-06
0.51069
6.03107e-06
0.510684
6.19391e-06
0.510677
6.03332e-06
0.510672
5.82439e-06
0.510666
5.67776e-06
0.51066
5.66213e-06
0.510655
5.75751e-06
0.510649
5.77761e-06
0.510643
5.76428e-06
0.510637
5.69642e-06
0.510632
5.37253e-06
0.510627
4.83322e-06
0.510623
4.51508e-06
0.510618
4.74393e-06
0.510613
5.22177e-06
0.510607
5.41721e-06
0.510602
5.49323e-06
0.510596
5.70911e-06
0.51059
5.74153e-06
0.510585
5.60564e-06
0.510579
5.52512e-06
0.510574
5.3649e-06
0.510569
5.27576e-06
0.510563
5.38953e-06
0.510558
5.39012e-06
0.510552
5.37668e-06
0.510547
5.59295e-06
0.510541
5.76708e-06
0.510535
5.75784e-06
0.51053
5.63153e-06
0.510524
5.48022e-06
0.510519
5.39909e-06
0.510513
5.23969e-06
0.510508
5.18926e-06
0.510503
5.49725e-06
0.510497
5.81508e-06
0.510491
5.83871e-06
0.510486
5.58418e-06
0.51048
5.42657e-06
0.510475
5.58358e-06
0.510469
5.64272e-06
0.510463
5.49635e-06
0.510458
5.30117e-06
0.510453
5.08217e-06
0.510448
5.01613e-06
0.510443
5.06833e-06
0.510438
5.07371e-06
0.510433
5.09781e-06
0.510427
5.34203e-06
0.510422
5.84846e-06
0.510416
6.07535e-06
0.51041
5.86305e-06
0.510404
5.76478e-06
0.510398
5.58984e-06
0.510393
5.16225e-06
0.510388
5.00284e-06
0.510383
5.13284e-06
0.510378
5.29907e-06
0.510372
5.38921e-06
0.510367
5.47233e-06
0.510361
5.81416e-06
0.510355
5.95719e-06
0.51035
5.44641e-06
0.510345
4.87357e-06
0.51034
4.69596e-06
0.510335
4.80778e-06
0.51033
5.23004e-06
0.510324
5.77462e-06
0.510318
6.1021e-06
0.510312
6.16475e-06
0.510306
5.89329e-06
0.510301
5.50434e-06
0.510295
5.41535e-06
0.51029
5.40086e-06
0.510285
5.23908e-06
0.510279
5.17855e-06
0.510274
5.3008e-06
0.510269
5.38831e-06
0.510263
5.35507e-06
0.510258
5.28645e-06
0.510253
5.13884e-06
0.510248
4.93904e-06
0.510243
4.8494e-06
0.510238
5.00533e-06
0.510233
5.44062e-06
0.510227
5.80291e-06
0.510221
5.79789e-06
0.510215
5.55132e-06
0.51021
5.3319e-06
0.510205
5.31981e-06
0.510199
5.37321e-06
0.510194
5.38219e-06
0.510189
5.37166e-06
0.510183
5.25435e-06
0.510178
5.16762e-06
0.510173
5.22143e-06
0.510168
5.26937e-06
0.510162
5.44789e-06
0.510157
5.78267e-06
0.510151
5.80773e-06
0.510145
5.54632e-06
0.51014
5.48059e-06
0.510134
5.62119e-06
0.510128
5.79463e-06
0.510122
5.97595e-06
0.510116
6.01355e-06
0.510111
5.75309e-06
0.510105
5.36043e-06
0.5101
5.1031e-06
0.510095
4.97936e-06
0.51009
4.9541e-06
0.510085
5.10831e-06
0.51008
5.32719e-06
0.510074
5.4769e-06
0.510069
5.64507e-06
0.510063
5.78316e-06
0.510057
5.65137e-06
0.510052
5.36502e-06
0.510047
5.25352e-06
0.510041
5.36783e-06
0.510036
5.62045e-06
0.51003
5.80821e-06
0.510024
5.84069e-06
0.510018
5.85434e-06
0.510012
5.85349e-06
0.510007
5.6699e-06
0.510001
5.38384e-06
0.509996
5.23299e-06
0.509991
5.21482e-06
0.509985
5.30307e-06
0.50998
5.4395e-06
0.509975
5.43827e-06
0.509969
5.29218e-06
0.509964
5.2256e-06
0.509959
5.45238e-06
0.509953
5.70583e-06
0.509947
5.63578e-06
0.509942
5.42977e-06
0.509937
5.2829e-06
0.509931
5.30108e-06
0.509926
5.51605e-06
0.50992
5.72674e-06
0.509914
5.78792e-06
0.509908
5.66994e-06
0.509903
5.52369e-06
0.509898
5.41781e-06
0.509892
5.25621e-06
0.509887
5.21427e-06
0.509882
5.38248e-06
0.509876
5.5334e-06
0.509871
5.53033e-06
0.509865
5.40817e-06
0.50986
5.22572e-06
0.509855
5.09221e-06
0.50985
5.15098e-06
0.509844
5.26259e-06
0.509839
5.35497e-06
0.509834
5.52709e-06
0.509828
5.52083e-06
0.509823
5.41353e-06
0.509817
5.4539e-06
0.509812
5.40065e-06
0.509807
5.28952e-06
0.509801
5.38799e-06
0.509795
5.7492e-06
0.509789
6.01251e-06
0.509783
6.28297e-06
5.48391e-06
0.51114
-3.30026e-08
0.511146
4.76139e-07
0.511152
1.52004e-06
0.511155
2.38427e-06
0.511156
2.68084e-06
0.511158
2.45562e-06
0.511161
1.99717e-06
0.511165
1.91272e-06
0.511168
2.20479e-06
0.511171
2.64652e-06
0.511173
2.95448e-06
0.511175
2.7572e-06
0.511178
2.54091e-06
0.511182
2.47771e-06
0.511185
2.30911e-06
0.511189
1.99879e-06
0.511192
1.90523e-06
0.511195
2.17114e-06
0.511198
2.32991e-06
0.511201
2.39681e-06
0.511204
2.37644e-06
0.511207
2.07172e-06
0.511211
1.97612e-06
0.511215
2.17841e-06
0.511218
2.37936e-06
0.511221
3.00172e-06
0.511223
3.49017e-06
0.511226
3.3544e-06
0.511228
3.23227e-06
0.51123
3.01376e-06
0.511233
2.59726e-06
0.511236
2.2235e-06
0.51124
1.9692e-06
0.511243
2.06791e-06
0.511247
2.28528e-06
0.511251
2.17068e-06
0.511254
1.96142e-06
0.511257
2.19627e-06
0.511258
2.63881e-06
0.51126
2.6158e-06
0.511262
2.38113e-06
0.511265
2.62834e-06
0.511268
3.19447e-06
0.51127
3.40182e-06
0.511273
3.21538e-06
0.511275
3.01496e-06
0.511279
2.67086e-06
0.511282
2.16541e-06
0.511286
2.09421e-06
0.511289
2.46291e-06
0.511292
2.30767e-06
0.511295
1.59198e-06
0.511299
1.34525e-06
0.511303
1.68901e-06
0.511306
2.11356e-06
0.511308
2.35165e-06
0.511311
2.30397e-06
0.511314
2.27307e-06
0.511316
2.5685e-06
0.511319
3.02573e-06
0.511322
3.38215e-06
0.511324
3.57838e-06
0.511326
3.40822e-06
0.511329
2.76445e-06
0.511332
2.24904e-06
0.511336
2.19433e-06
0.511339
2.18415e-06
0.511343
2.0498e-06
0.511347
1.97933e-06
0.511351
2.04375e-06
0.511354
2.07248e-06
0.511357
2.01776e-06
0.511359
2.0866e-06
0.511362
2.3148e-06
0.511364
2.70217e-06
0.511366
3.20215e-06
0.511369
3.40089e-06
0.511371
3.10044e-06
0.511374
2.63283e-06
0.511376
2.39103e-06
0.511379
2.53141e-06
0.511382
2.74568e-06
0.511385
2.8701e-06
0.511388
3.08867e-06
0.511391
3.26449e-06
0.511394
3.06294e-06
0.511397
2.42692e-06
0.511401
1.80474e-06
0.511405
1.68109e-06
0.511409
1.848e-06
0.511412
1.99091e-06
0.511416
2.19607e-06
0.511419
2.60661e-06
0.511421
3.04582e-06
0.511422
3.08262e-06
0.511424
2.73218e-06
0.511427
2.53085e-06
0.51143
2.42223e-06
0.511433
2.12778e-06
0.511437
2.16005e-06
0.51144
2.69487e-06
0.511442
2.95047e-06
0.511445
2.74079e-06
0.511448
2.63237e-06
0.51145
2.64516e-06
0.511453
2.43043e-06
0.511457
2.249e-06
0.51146
2.35128e-06
0.511463
2.48465e-06
0.511466
2.41656e-06
0.511469
2.26304e-06
0.511473
2.43093e-06
0.511475
2.86239e-06
0.511478
2.91949e-06
0.51148
2.58942e-06
0.511483
2.34764e-06
0.511487
2.27141e-06
0.51149
2.19227e-06
0.511494
2.11937e-06
0.511497
2.18358e-06
0.5115
2.27117e-06
0.511504
2.26678e-06
0.511507
2.28646e-06
0.51151
2.38431e-06
0.511513
2.56487e-06
0.511515
2.74238e-06
0.511517
2.79612e-06
0.51152
2.89882e-06
0.511522
3.1138e-06
0.511524
3.19772e-06
0.511526
3.04924e-06
0.511529
2.8334e-06
0.511532
2.84444e-06
0.511535
3.10148e-06
0.511537
3.23027e-06
0.51154
3.01547e-06
0.511542
2.63404e-06
0.511545
2.31424e-06
0.511548
2.06002e-06
0.511552
1.71035e-06
0.511556
1.35347e-06
0.51156
1.45186e-06
0.511564
2.08733e-06
0.511567
2.71128e-06
0.511569
2.9968e-06
0.511571
2.99443e-06
0.511573
2.90333e-06
0.511575
2.72414e-06
0.511578
2.46706e-06
0.511581
2.53684e-06
0.511584
2.73166e-06
0.511588
2.63845e-06
0.511591
2.56275e-06
0.511594
2.54543e-06
0.511597
2.4601e-06
0.5116
2.40633e-06
0.511603
2.24212e-06
0.511606
2.02585e-06
0.51161
1.92119e-06
0.511613
1.91471e-06
0.511617
1.96401e-06
0.51162
2.15498e-06
0.511622
2.4231e-06
0.511625
2.61471e-06
0.511627
2.75914e-06
0.511629
2.81916e-06
0.511632
2.69035e-06
0.511635
2.50024e-06
0.511638
2.41723e-06
0.511642
2.45852e-06
0.511644
2.52264e-06
0.511647
2.52891e-06
0.51165
2.42504e-06
0.511653
2.30209e-06
0.511656
2.37186e-06
0.511659
2.6211e-06
0.511661
2.80717e-06
0.511664
2.81198e-06
0.511666
2.72665e-06
0.511669
2.60585e-06
0.511672
2.47506e-06
0.511676
2.49758e-06
0.511678
2.62819e-06
0.511681
2.59747e-06
0.511685
2.46974e-06
0.511688
2.37943e-06
0.511692
2.2894e-06
0.511695
2.24767e-06
0.511699
2.27299e-06
0.511702
2.41133e-06
0.511704
2.60588e-06
0.511707
2.65719e-06
0.511709
2.55742e-06
0.511712
2.32767e-06
0.511715
2.15847e-06
0.511718
2.22147e-06
0.511722
2.32497e-06
0.511725
2.54347e-06
0.511728
2.93709e-06
0.51173
3.1432e-06
0.511732
3.16439e-06
0.511734
3.09058e-06
0.511737
2.7725e-06
0.51174
2.44234e-06
0.511744
2.4004e-06
0.511747
2.45503e-06
0.511751
2.40995e-06
0.511754
2.32782e-06
0.511757
2.27087e-06
0.51176
2.18967e-06
0.511763
2.01944e-06
0.511767
2.05673e-06
0.51177
2.41309e-06
0.511772
2.52819e-06
0.511775
2.30391e-06
0.511779
2.10962e-06
0.511782
2.10114e-06
0.511785
2.3661e-06
0.511788
2.69341e-06
0.511791
2.86268e-06
0.511793
2.78014e-06
0.511796
2.52511e-06
0.511799
2.49045e-06
0.511802
2.58505e-06
0.511806
2.50588e-06
0.511809
2.40267e-06
0.511812
2.46114e-06
0.511815
2.64635e-06
0.511817
2.72102e-06
0.51182
2.59866e-06
0.511823
2.3361e-06
0.511826
2.01817e-06
0.51183
2.03207e-06
0.511833
2.41542e-06
0.511835
2.74536e-06
0.511838
2.85976e-06
0.51184
2.77532e-06
0.511843
2.61886e-06
0.511845
2.53554e-06
0.511848
2.56701e-06
0.511851
2.74059e-06
0.511854
3.02535e-06
0.511856
3.20793e-06
0.511858
3.05535e-06
0.511861
2.71499e-06
0.511864
2.4641e-06
0.511867
2.47776e-06
0.51187
2.62922e-06
0.511874
2.77785e-06
2.97426e-06
0.511139
1.92573e-07
0.511139
7.83959e-07
0.511139
1.2422e-06
0.51114
1.67728e-06
0.51114
2.0701e-06
0.511141
2.08561e-06
0.511141
1.75325e-06
0.511141
1.57638e-06
0.511142
1.92951e-06
0.511142
2.32609e-06
0.511142
2.44322e-06
0.511143
2.49646e-06
0.511143
2.57248e-06
0.511143
2.44516e-06
0.511143
2.00587e-06
0.511143
1.68287e-06
0.511143
1.81092e-06
0.511143
2.12487e-06
0.511144
2.23146e-06
0.511144
1.91579e-06
0.511145
1.64262e-06
0.511145
1.96385e-06
0.511144
2.388e-06
0.511144
2.54608e-06
0.511144
2.42301e-06
0.511145
1.94057e-06
0.511147
1.93802e-06
0.511147
2.77097e-06
0.511147
3.0093e-06
0.511148
2.26234e-06
0.511149
1.9393e-06
0.511149
2.23589e-06
0.511148
2.4054e-06
0.511148
2.45518e-06
0.511148
2.45772e-06
0.511148
2.07233e-06
0.511149
1.44721e-06
0.511149
1.2511e-06
0.51115
1.77555e-06
0.51115
2.57335e-06
0.51115
2.96726e-06
0.511149
2.97871e-06
0.51115
2.94699e-06
0.51115
2.82292e-06
0.511151
2.77353e-06
0.511151
2.84613e-06
0.511151
2.62968e-06
0.511151
2.33437e-06
0.511151
2.02296e-06
0.511152
1.54608e-06
0.511152
1.60914e-06
0.511152
2.06796e-06
0.511151
1.99692e-06
0.511151
1.79438e-06
0.511151
1.88541e-06
0.511152
2.01124e-06
0.511152
2.40763e-06
0.511151
2.94693e-06
0.511151
3.00337e-06
0.511151
2.71354e-06
0.511152
2.49585e-06
0.511153
2.42361e-06
0.511154
2.3448e-06
0.511155
2.14488e-06
0.511155
2.10889e-06
0.511155
2.29706e-06
0.511155
2.26967e-06
0.511155
1.98057e-06
0.511155
1.69248e-06
0.511155
1.56858e-06
0.511156
1.70921e-06
0.511156
1.76377e-06
0.511156
1.67631e-06
0.511157
2.11434e-06
0.511156
2.78968e-06
0.511157
2.92531e-06
0.511157
2.70861e-06
0.511158
2.42125e-06
0.511159
2.04536e-06
0.511159
1.86762e-06
0.51116
2.16529e-06
0.51116
2.68812e-06
0.511159
3.11175e-06
0.511159
3.28473e-06
0.511159
3.12612e-06
0.51116
2.76048e-06
0.51116
2.21604e-06
0.51116
1.75367e-06
0.51116
1.89399e-06
0.511159
2.30245e-06
0.511159
2.32217e-06
0.511159
2.02458e-06
0.51116
1.83406e-06
0.511161
1.87979e-06
0.511162
2.08417e-06
0.511162
2.39993e-06
0.511162
2.50989e-06
0.511163
2.31266e-06
0.511162
2.24569e-06
0.511162
2.39717e-06
0.511162
2.42942e-06
0.511163
2.30012e-06
0.511164
2.03997e-06
0.511165
1.77464e-06
0.511165
1.84066e-06
0.511166
2.03265e-06
0.511166
2.19463e-06
0.511166
2.59345e-06
0.511165
2.81833e-06
0.511165
2.4689e-06
0.511165
2.03626e-06
0.511166
1.90973e-06
0.511167
2.01783e-06
0.511168
2.17024e-06
0.511168
2.21715e-06
0.511168
2.18424e-06
0.511168
2.19782e-06
0.511168
2.19827e-06
0.511168
1.99231e-06
0.511169
1.76681e-06
0.511169
1.9009e-06
0.511169
2.21464e-06
0.511169
2.35511e-06
0.511169
2.34643e-06
0.511169
2.35163e-06
0.51117
2.50584e-06
0.51117
2.76344e-06
0.51117
2.92955e-06
0.51117
2.92272e-06
0.51117
2.68642e-06
0.511171
2.40447e-06
0.511171
2.43945e-06
0.511171
2.79195e-06
0.511171
3.0478e-06
0.511172
2.87125e-06
0.511172
2.498e-06
0.511173
2.42452e-06
0.511172
2.52992e-06
0.511172
2.3632e-06
0.511172
2.03926e-06
0.511171
1.83698e-06
0.511171
1.87194e-06
0.511171
2.10999e-06
0.511171
2.16343e-06
0.511172
2.06146e-06
0.511173
1.9993e-06
0.511174
1.87298e-06
0.511175
1.962e-06
0.511175
2.26661e-06
0.511175
2.47137e-06
0.511175
2.65634e-06
0.511175
2.7162e-06
0.511175
2.57167e-06
0.511175
2.32313e-06
0.511176
1.99749e-06
0.511177
1.85216e-06
0.511177
1.98197e-06
0.511177
2.11352e-06
0.511177
2.0076e-06
0.511177
1.76927e-06
0.511177
1.63033e-06
0.511178
1.58878e-06
0.511178
1.64138e-06
0.511179
1.93662e-06
0.511179
2.37813e-06
0.51118
2.63808e-06
0.51118
2.67797e-06
0.51118
2.57837e-06
0.51118
2.2685e-06
0.51118
2.00997e-06
0.511181
2.12807e-06
0.511181
2.31095e-06
0.511181
2.20441e-06
0.511181
2.0982e-06
0.511181
2.31653e-06
0.511181
2.62994e-06
0.511181
2.78323e-06
0.511181
2.7177e-06
0.511182
2.41171e-06
0.511182
2.09596e-06
0.511183
1.96876e-06
0.511183
2.03145e-06
0.511184
2.24321e-06
0.511184
2.38938e-06
0.511184
2.39424e-06
0.511184
2.43585e-06
0.511184
2.43081e-06
0.511184
2.38263e-06
0.511183
2.32603e-06
0.511184
2.15621e-06
0.511184
2.02993e-06
0.511185
1.93205e-06
0.511186
1.92592e-06
0.511186
2.20149e-06
0.511186
2.42823e-06
0.511185
2.48669e-06
0.511185
2.4946e-06
0.511185
2.33484e-06
0.511186
2.16149e-06
0.511187
2.17951e-06
0.511188
2.36602e-06
0.511188
2.61603e-06
0.511188
2.7611e-06
0.511188
2.78619e-06
0.511188
2.81694e-06
0.511187
2.75046e-06
0.511187
2.49906e-06
0.511187
2.19174e-06
0.511188
1.80042e-06
0.511188
1.51683e-06
0.511189
1.55261e-06
0.511189
1.60413e-06
0.51119
1.70043e-06
0.511191
1.94797e-06
0.511191
2.09872e-06
0.511191
2.06819e-06
0.511191
1.84329e-06
0.511192
1.66994e-06
0.511193
1.87131e-06
0.511193
2.33145e-06
0.511193
2.65221e-06
0.511193
2.61904e-06
0.511193
2.4623e-06
0.511194
2.32398e-06
0.511194
2.21148e-06
0.511194
2.24091e-06
0.511194
2.31982e-06
0.511194
2.41322e-06
0.511195
2.42457e-06
0.511195
2.12602e-06
0.511196
1.76371e-06
0.511196
1.63131e-06
0.511196
1.73309e-06
0.511197
1.991e-06
0.511197
2.27722e-06
0.511198
2.58014e-06
0.511197
2.91107e-06
0.511197
3.06051e-06
0.511197
2.82581e-06
0.511197
2.38461e-06
0.511198
2.07345e-06
0.511199
2.04197e-06
0.511199
2.33617e-06
0.5112
2.68924e-06
0.5112
2.79646e-06
0.5112
2.63363e-06
0.5112
2.31047e-06
0.5112
2.21885e-06
0.5112
2.56752e-06
2.77407e-06
0.511139
1.08288e-07
0.51114
5.30343e-07
0.51114
9.92228e-07
0.51114
1.29672e-06
0.511141
1.43416e-06
0.511141
1.66669e-06
0.511141
1.95177e-06
0.511141
2.12298e-06
0.511141
1.9467e-06
0.511141
1.70101e-06
0.511142
1.83113e-06
0.511142
2.14474e-06
0.511143
2.124e-06
0.511143
1.80315e-06
0.511144
1.73216e-06
0.511143
1.99551e-06
0.511143
2.15331e-06
0.511143
1.85173e-06
0.511144
1.35731e-06
0.511144
1.71431e-06
0.511144
2.19507e-06
0.511144
1.7031e-06
0.511145
1.40946e-06
0.511146
1.989e-06
0.511145
2.77233e-06
0.511144
2.99654e-06
0.511144
2.31611e-06
0.511145
1.74338e-06
0.511146
2.0127e-06
0.511146
2.19973e-06
0.511146
1.80102e-06
0.511147
1.57396e-06
0.511147
1.83964e-06
0.511148
1.94131e-06
0.511149
1.58906e-06
0.511149
1.26694e-06
0.511149
1.5651e-06
0.511148
2.31078e-06
0.511147
2.56159e-06
0.511148
2.2658e-06
0.511148
2.37543e-06
0.511148
2.91663e-06
0.511148
3.28828e-06
0.511148
3.13363e-06
0.511148
2.46746e-06
0.511149
1.75111e-06
0.51115
1.59817e-06
0.511151
1.83257e-06
0.511151
1.77795e-06
0.511151
1.56369e-06
0.511151
1.26618e-06
0.511152
1.15346e-06
0.511152
1.71274e-06
0.511152
1.97299e-06
0.511152
1.61178e-06
0.511153
1.76329e-06
0.511153
2.25534e-06
0.511153
2.57171e-06
0.511153
2.95511e-06
0.511153
3.10672e-06
0.511153
2.71563e-06
0.511153
2.20328e-06
0.511153
1.90745e-06
0.511154
1.7089e-06
0.511154
1.56775e-06
0.511155
1.6616e-06
0.511155
1.93718e-06
0.511155
1.86653e-06
0.511156
1.3971e-06
0.511156
1.20509e-06
0.511156
1.38549e-06
0.511157
1.51816e-06
0.511157
1.65512e-06
0.511157
2.07169e-06
0.511157
2.61004e-06
0.511157
2.70181e-06
0.511158
2.1506e-06
0.511158
1.76781e-06
0.511158
2.11188e-06
0.511158
2.46222e-06
0.511157
2.46497e-06
0.511158
2.50167e-06
0.511158
2.55309e-06
0.511159
2.57117e-06
0.511159
2.50256e-06
0.51116
2.19302e-06
0.51116
1.87916e-06
0.51116
1.7077e-06
0.511161
1.60064e-06
0.511161
1.70043e-06
0.511162
1.96613e-06
0.511162
1.98314e-06
0.511162
1.81819e-06
0.511162
1.97339e-06
0.511161
2.30006e-06
0.511162
2.24669e-06
0.511162
1.83265e-06
0.511163
1.66091e-06
0.511163
1.8656e-06
0.511164
1.99402e-06
0.511164
2.0531e-06
0.511164
2.17583e-06
0.511164
2.15679e-06
0.511164
1.97639e-06
0.511164
1.74794e-06
0.511164
1.61544e-06
0.511165
1.70509e-06
0.511166
1.92026e-06
0.511166
2.14347e-06
0.511166
2.28825e-06
0.511166
2.17852e-06
0.511166
1.9817e-06
0.511166
1.89961e-06
0.511167
1.84296e-06
0.511167
1.78335e-06
0.511168
1.71484e-06
0.511168
1.69303e-06
0.511169
1.67418e-06
0.511169
1.6293e-06
0.511169
1.72125e-06
0.511169
1.76015e-06
0.51117
1.7952e-06
0.51117
2.16644e-06
0.51117
2.51203e-06
0.511169
2.62483e-06
0.511169
2.63222e-06
0.511169
2.45781e-06
0.51117
2.41321e-06
0.51117
2.63269e-06
0.51117
2.75475e-06
0.51117
2.73437e-06
0.51117
2.64919e-06
0.51117
2.74596e-06
0.51117
2.88069e-06
0.51117
2.50157e-06
0.511171
2.0457e-06
0.511171
1.98165e-06
0.511172
1.97604e-06
0.511172
1.91863e-06
0.511172
1.85368e-06
0.511172
1.89935e-06
0.511172
2.0549e-06
0.511172
1.9893e-06
0.511173
1.77809e-06
0.511173
1.65165e-06
0.511173
1.57492e-06
0.511174
1.68254e-06
0.511174
1.99864e-06
0.511174
2.19243e-06
0.511174
2.12617e-06
0.511175
1.91371e-06
0.511176
1.87278e-06
0.511176
2.15602e-06
0.511176
2.29553e-06
0.511176
2.01545e-06
0.511176
1.69624e-06
0.511177
1.54755e-06
0.511177
1.48744e-06
0.511178
1.45227e-06
0.511178
1.53419e-06
0.511178
1.7021e-06
0.511178
1.78814e-06
0.511177
1.897e-06
0.511177
1.98241e-06
0.511178
2.01748e-06
0.511178
2.20663e-06
0.511179
2.3327e-06
0.511179
2.21453e-06
0.511179
2.06338e-06
0.511179
1.92075e-06
0.51118
1.82004e-06
0.51118
1.8408e-06
0.51118
1.91961e-06
0.51118
2.02532e-06
0.51118
2.18064e-06
0.511181
2.34102e-06
0.511181
2.4351e-06
0.511181
2.48823e-06
0.511181
2.48324e-06
0.511181
2.15367e-06
0.511182
1.62708e-06
0.511182
1.48036e-06
0.511183
1.75598e-06
0.511183
2.09379e-06
0.511183
2.3447e-06
0.511183
2.3214e-06
0.511184
1.97711e-06
0.511184
1.65607e-06
0.511185
1.63955e-06
0.511185
1.79836e-06
0.511185
1.92217e-06
0.511185
1.93702e-06
0.511185
1.87104e-06
0.511186
1.78968e-06
0.511187
1.74093e-06
0.511187
1.82787e-06
0.511188
1.95938e-06
0.511188
2.05834e-06
0.511188
2.26128e-06
0.511188
2.43202e-06
0.511188
2.43073e-06
0.511188
2.35985e-06
0.511188
2.36039e-06
0.511189
2.45339e-06
0.511189
2.40305e-06
0.51119
2.19641e-06
0.51119
2.05537e-06
0.51119
2.01374e-06
0.51119
1.95203e-06
0.51119
1.75144e-06
0.51119
1.48068e-06
0.51119
1.29868e-06
0.511191
1.25083e-06
0.511191
1.30346e-06
0.511192
1.41353e-06
0.511192
1.53906e-06
0.511193
1.65079e-06
0.511193
1.78672e-06
0.511193
1.85498e-06
0.511193
1.86297e-06
0.511194
2.05395e-06
0.511194
2.34414e-06
0.511194
2.5098e-06
0.511194
2.51185e-06
0.511194
2.32844e-06
0.511194
2.11368e-06
0.511194
2.0638e-06
0.511194
2.15187e-06
0.511194
2.12776e-06
0.511195
1.91828e-06
0.511195
1.77166e-06
0.511195
1.69605e-06
0.511195
1.64585e-06
0.511195
1.78041e-06
0.511195
1.98521e-06
0.511196
2.12299e-06
0.511196
2.29096e-06
0.511197
2.55128e-06
0.511197
2.75113e-06
0.511197
2.73871e-06
0.511196
2.62893e-06
0.511196
2.46453e-06
0.511196
2.24532e-06
0.511196
2.13369e-06
0.511197
2.18382e-06
0.511197
2.18416e-06
0.511197
2.07624e-06
0.511198
2.15586e-06
0.511198
2.43719e-06
2.5068e-06
0.511139
1.13628e-07
0.511139
3.95015e-07
0.51114
7.32486e-07
0.51114
8.83188e-07
0.51114
1.08633e-06
0.511141
1.36311e-06
0.511141
1.526e-06
0.511141
1.75709e-06
0.511142
1.7729e-06
0.511142
1.54617e-06
0.511142
1.56656e-06
0.511143
1.69796e-06
0.511143
1.59325e-06
0.511143
1.73646e-06
0.511143
1.99943e-06
0.511143
2.02928e-06
0.511143
1.97951e-06
0.511143
2.00223e-06
0.511142
2.09526e-06
0.511142
1.54769e-06
0.511144
9.2866e-07
0.511144
1.2017e-06
0.511144
1.47361e-06
0.511144
1.74753e-06
0.511145
2.08251e-06
0.511146
2.00151e-06
0.511146
2.12733e-06
0.511146
2.00027e-06
0.511146
1.43497e-06
0.511147
1.58711e-06
0.511147
1.85515e-06
0.511147
1.57161e-06
0.511148
1.18157e-06
0.511149
9.21517e-07
0.511149
1.17706e-06
0.511149
1.69484e-06
0.511148
1.86812e-06
0.511149
1.79898e-06
0.511149
1.93946e-06
0.511149
2.49328e-06
0.511149
2.92319e-06
0.511149
2.85469e-06
0.51115
2.49749e-06
0.511151
2.04237e-06
0.511151
1.7626e-06
0.511151
1.93719e-06
0.51115
2.33485e-06
0.51115
2.31704e-06
0.51115
1.6782e-06
0.511151
1.00603e-06
0.511151
9.1978e-07
0.511151
1.17046e-06
0.511151
1.25959e-06
0.511152
1.33633e-06
0.511152
1.50606e-06
0.511152
1.69089e-06
0.511152
1.9419e-06
0.511153
2.22352e-06
0.511153
2.38462e-06
0.511154
2.38496e-06
0.511155
2.32539e-06
0.511155
2.05448e-06
0.511155
1.71163e-06
0.511155
1.77998e-06
0.511154
1.88929e-06
0.511155
1.60501e-06
0.511155
1.40315e-06
0.511156
1.35009e-06
0.511156
1.02447e-06
0.511156
7.36888e-07
0.511157
8.68291e-07
0.511157
1.15587e-06
0.511157
1.47761e-06
0.511158
1.97132e-06
0.511158
2.30437e-06
0.511158
2.19553e-06
0.511159
1.89129e-06
0.511159
1.6692e-06
0.511159
1.78316e-06
0.511159
2.19429e-06
0.511159
2.55055e-06
0.511159
2.8069e-06
0.511159
2.98802e-06
0.511158
2.81804e-06
0.511159
2.06047e-06
0.51116
1.32897e-06
0.51116
1.32086e-06
0.51116
1.60296e-06
0.51116
1.75037e-06
0.51116
1.92533e-06
0.51116
1.94223e-06
0.51116
1.71481e-06
0.51116
1.55649e-06
0.511161
1.56083e-06
0.511162
1.62735e-06
0.511162
1.6198e-06
0.511162
1.53424e-06
0.511162
1.64537e-06
0.511162
1.97012e-06
0.511162
2.08452e-06
0.511162
1.90864e-06
0.511163
1.72166e-06
0.511163
1.63353e-06
0.511164
1.53904e-06
0.511164
1.55013e-06
0.511164
1.8863e-06
0.511163
2.16698e-06
0.511163
1.92389e-06
0.511164
1.4056e-06
0.511165
1.26005e-06
0.511166
1.67044e-06
0.511166
1.9783e-06
0.511166
1.83353e-06
0.511166
1.63788e-06
0.511166
1.55065e-06
0.511166
1.4429e-06
0.511167
1.32878e-06
0.511167
1.35228e-06
0.511167
1.53893e-06
0.511167
1.60747e-06
0.511167
1.60338e-06
0.511167
1.6789e-06
0.511168
1.66877e-06
0.511169
1.78192e-06
0.511169
2.07482e-06
0.51117
2.30613e-06
0.511169
2.64737e-06
0.511169
2.80784e-06
0.511169
2.50447e-06
0.51117
2.36566e-06
0.51117
2.5959e-06
0.511169
2.82064e-06
0.511169
2.9001e-06
0.51117
2.69815e-06
0.51117
2.3227e-06
0.51117
2.183e-06
0.511169
2.12367e-06
0.51117
1.78989e-06
0.51117
1.36033e-06
0.511171
1.14814e-06
0.511172
1.21242e-06
0.511172
1.36776e-06
0.511173
1.54268e-06
0.511173
1.6746e-06
0.511173
1.68681e-06
0.511173
1.62775e-06
0.511173
1.41796e-06
0.511174
1.32329e-06
0.511174
1.59259e-06
0.511175
1.8175e-06
0.511175
1.8867e-06
0.511175
1.84089e-06
0.511175
1.59694e-06
0.511176
1.49331e-06
0.511176
1.61916e-06
0.511176
1.6474e-06
0.511177
1.4081e-06
0.511177
1.08965e-06
0.511177
9.74317e-07
0.511178
1.04934e-06
0.511178
1.25853e-06
0.511179
1.59979e-06
0.511178
1.94872e-06
0.511178
2.22729e-06
0.511178
2.2955e-06
0.511178
2.03181e-06
0.511179
1.70101e-06
0.511179
1.63287e-06
0.51118
1.81358e-06
0.51118
1.99212e-06
0.511179
1.87733e-06
0.51118
1.62546e-06
0.51118
1.70597e-06
0.51118
2.00464e-06
0.51118
2.11193e-06
0.51118
1.99654e-06
0.511181
1.8476e-06
0.511182
1.80573e-06
0.511182
1.85138e-06
0.511182
1.97539e-06
0.511182
2.12289e-06
0.511181
2.12542e-06
0.511181
2.06633e-06
0.511181
2.00895e-06
0.511182
1.83603e-06
0.511182
1.73854e-06
0.511182
1.73108e-06
0.511182
1.6094e-06
0.511183
1.49823e-06
0.511183
1.36924e-06
0.511184
1.26274e-06
0.511184
1.40435e-06
0.511184
1.59799e-06
0.511185
1.70331e-06
0.511185
1.74045e-06
0.511185
1.68362e-06
0.511185
1.68724e-06
0.511185
1.82824e-06
0.511185
2.05339e-06
0.511186
2.23874e-06
0.511186
2.2805e-06
0.511186
2.26291e-06
0.511186
2.2635e-06
0.511186
2.27986e-06
0.511186
2.26508e-06
0.511186
2.13084e-06
0.511187
1.89779e-06
0.511187
1.68231e-06
0.511187
1.42105e-06
0.511188
1.13162e-06
0.511188
1.10638e-06
0.511188
1.19263e-06
0.511189
1.10521e-06
0.511189
9.47969e-07
0.51119
7.41421e-07
0.511191
6.48728e-07
0.511191
9.07937e-07
0.511192
1.393e-06
0.511192
1.79042e-06
0.511192
1.9097e-06
0.511192
1.96487e-06
0.511192
2.06252e-06
0.511192
2.07527e-06
0.511193
2.07462e-06
0.511193
2.07821e-06
0.511193
2.14938e-06
0.511193
2.22543e-06
0.511193
1.99037e-06
0.511194
1.60686e-06
0.511194
1.394e-06
0.511195
1.35353e-06
0.511195
1.42917e-06
0.511195
1.48454e-06
0.511195
1.50911e-06
0.511196
1.63519e-06
0.511196
1.86855e-06
0.511196
2.16233e-06
0.511196
2.37661e-06
0.511197
2.41716e-06
0.511197
2.4305e-06
0.511197
2.48793e-06
0.511197
2.43405e-06
0.511197
2.28665e-06
0.511197
2.14597e-06
0.511197
1.93756e-06
0.511198
1.77106e-06
0.511198
1.95328e-06
0.511198
2.20872e-06
0.511198
2.24291e-06
2.175e-06
0.51114
1.41168e-08
0.51114
1.21569e-07
0.511141
4.92014e-07
0.51114
1.04834e-06
0.51114
1.34678e-06
0.51114
1.16659e-06
0.511141
1.07401e-06
0.511141
1.10936e-06
0.511142
1.24138e-06
0.511142
1.54555e-06
0.511142
1.58544e-06
0.511142
1.46604e-06
0.511142
1.54381e-06
0.511142
1.64826e-06
0.511143
1.58948e-06
0.511143
1.51653e-06
0.511144
1.64446e-06
0.511144
1.64256e-06
0.511145
1.31222e-06
0.511145
9.89666e-07
0.511145
9.2486e-07
0.511145
1.17729e-06
0.511145
1.48534e-06
0.511146
1.40958e-06
0.511146
1.54015e-06
0.511146
2.21898e-06
0.511146
2.12295e-06
0.511146
1.46656e-06
0.511146
1.49674e-06
0.511146
1.67108e-06
0.511146
1.65489e-06
0.511147
1.53688e-06
0.511147
1.16202e-06
0.511147
7.99639e-07
0.511147
6.87985e-07
0.511148
1.10454e-06
0.511148
1.77422e-06
0.511148
2.03705e-06
0.511148
1.93374e-06
0.511148
1.88735e-06
0.511149
2.40367e-06
0.511149
2.76392e-06
0.511149
2.19009e-06
0.51115
1.60354e-06
0.51115
1.60577e-06
0.51115
1.73518e-06
0.511151
1.62795e-06
0.511152
1.40031e-06
0.511152
1.40003e-06
0.511151
1.51238e-06
0.511151
1.32246e-06
0.511151
1.06322e-06
0.511151
1.15376e-06
0.511151
1.29093e-06
0.511151
1.41191e-06
0.511151
1.69975e-06
0.511151
1.8108e-06
0.511152
1.68006e-06
0.511153
1.68125e-06
0.511153
1.8398e-06
0.511154
1.84627e-06
0.511154
1.61094e-06
0.511154
1.47512e-06
0.511155
1.43922e-06
0.511155
1.31394e-06
0.511156
1.21498e-06
0.511156
1.06258e-06
0.511156
9.05252e-07
0.511156
1.05108e-06
0.511156
1.06107e-06
0.511156
8.06911e-07
0.511156
1.07317e-06
0.511156
1.65608e-06
0.511156
1.78606e-06
0.511157
1.65399e-06
0.511158
1.53969e-06
0.511158
1.52942e-06
0.511158
1.80748e-06
0.511157
2.26314e-06
0.511157
2.54552e-06
0.511157
2.60606e-06
0.511157
2.63957e-06
0.511158
2.41078e-06
0.511159
1.89185e-06
0.511159
1.52197e-06
0.511159
1.34894e-06
0.511159
1.41471e-06
0.511159
1.68512e-06
0.511159
1.79486e-06
0.511159
1.6053e-06
0.51116
1.35343e-06
0.51116
1.2924e-06
0.51116
1.34228e-06
0.511161
1.42545e-06
0.511161
1.51763e-06
0.511161
1.5178e-06
0.511161
1.42159e-06
0.511161
1.36802e-06
0.511162
1.50374e-06
0.511162
1.69213e-06
0.511162
1.66078e-06
0.511162
1.52527e-06
0.511163
1.4798e-06
0.511163
1.39005e-06
0.511163
1.35611e-06
0.511163
1.63469e-06
0.511163
1.84792e-06
0.511164
1.5885e-06
0.511164
1.175e-06
0.511164
1.04729e-06
0.511165
1.1613e-06
0.511166
1.22647e-06
0.511166
1.18368e-06
0.511167
1.17963e-06
0.511167
1.23592e-06
0.511167
1.31526e-06
0.511167
1.32226e-06
0.511167
1.21345e-06
0.511168
1.13451e-06
0.511168
1.17008e-06
0.511168
1.23443e-06
0.511169
1.33459e-06
0.511169
1.64989e-06
0.511169
2.04139e-06
0.511168
2.22466e-06
0.511168
2.29319e-06
0.511169
2.2666e-06
0.511169
2.10089e-06
0.51117
2.05335e-06
0.51117
2.2315e-06
0.51117
2.54424e-06
0.51117
2.73806e-06
0.511171
2.44667e-06
0.511171
2.02931e-06
0.511172
2.00463e-06
0.511172
2.02742e-06
0.511172
1.76281e-06
0.511172
1.49626e-06
0.511172
1.47626e-06
0.511172
1.55787e-06
0.511172
1.56475e-06
0.511172
1.38173e-06
0.511172
1.03771e-06
0.511173
8.91544e-07
0.511173
1.08094e-06
0.511174
1.32121e-06
0.511174
1.42201e-06
0.511174
1.43437e-06
0.511174
1.43262e-06
0.511174
1.45233e-06
0.511175
1.48833e-06
0.511175
1.39527e-06