/*--------------------------------*- C++ -*----------------------------------*\
| =========                 |                                                 |
| \\      /  F ield         | OpenFOAM: The Open Source CFD Toolbox           |
|  \\    /   O peration     | Version:  2406                                  |
|   \\  /    A nd           | Website:  www.openfoam.com                      |
|    \\/     M anipulation  |                                                 |
\*---------------------------------------------------------------------------*/
FoamFile
{
    version     2.0;
    format      ascii;
    arch        "LSB;label=32;scalar=64";
    class       volScalarField;
    location    "2.05";
    object      p;
}
// * * * * * * * * * * * * * * * * * * * * * * * * * * * * * * * * * * * * * //

dimensions      [1 -1 -2 0 0 0 0];

internalField   nonuniform List<scalar> 
6250
(
-3.3923
-3226.98
-1037.87
539.198
494.564
25.4322
-135.263
-57.9518
18.5221
24.9098
4.76129
-4.83684
-2.56609
1.13533
1.8784
1.06175
0.523321
0.554757
0.722995
0.777073
0.745988
0.708705
0.696097
0.699859
0.696307
0.68556
0.681339
0.681164
0.677427
0.671266
0.669444
0.670521
0.665858
0.659041
0.657273
0.65575
0.653442
0.651874
0.647066
0.644703
0.646608
0.646237
0.647164
0.647727
0.641026
0.633082
0.627207
0.619633
0.61551
0.619477
0.622681
0.618134
0.612595
0.611834
0.611036
0.608235
0.607173
0.60689
0.606464
0.606388
0.602402
0.595804
0.591598
0.585365
0.575205
0.566772
0.563939
0.564992
0.563912
0.559025
0.552569
0.546875
0.544616
0.545867
0.545753
0.543801
0.54599
0.547161
0.542237
0.536995
0.531394
0.524111
0.52176
0.526397
0.52643
0.521475
0.522284
0.524296
0.523826
0.521733
0.518899
0.517225
0.513001
0.507478
0.49864
0.487226
0.483188
0.4833
0.482042
0.480108
0.477959
0.474818
0.468567
0.461031
0.454473
0.45034
0.446683
0.442262
0.441576
0.442229
0.439187
0.432239
0.424075
0.420627
0.421539
0.422829
0.424254
0.423229
0.417901
0.409774
0.401944
0.397951
0.395062
0.390395
0.387165
0.387581
0.388824
0.386467
0.382986
0.379903
0.372602
0.363329
0.357026
0.354621
0.354015
0.353036
0.355256
0.362377
0.367902
0.366751
0.361141
0.354344
0.349104
0.344586
0.337914
0.335785
0.338604
0.337103
0.333973
0.333387
0.331816
0.327598
0.325456
0.32758
0.327167
0.322405
0.314783
0.304497
0.299362
0.303564
0.310066
0.312951
0.31146
0.307471
0.305123
0.303883
0.301182
0.297691
0.290765
0.281232
0.274477
0.271381
0.268839
0.263578
0.259232
0.256556
0.25079
0.244743
0.238845
0.2321
0.230143
0.230566
0.225765
0.218568
0.213996
0.210902
0.209009
0.208005
0.205873
0.203328
0.202984
0.204047
0.202373
0.198155
0.193808
0.190101
0.186587
0.181361
0.175871
0.171192
0.166474
0.16297
0.161493
0.158952
0.151739
0.142749
0.133012
0.123657
0.120289
0.119444
0.116434
0.112609
0.110515
0.109869
0.107256
0.105198
0.104701
0.103337
0.0997405
0.0945514
0.0927526
0.0909623
0.0898398
0.0950731
0.0967045
0.0909938
0.0850991
0.0810748
0.0780955
0.0735127
0.0681508
0.0624338
0.0558097
0.0524693
0.051997
0.0511395
0.0500033
0.0493734
0.0471057
0.0403221
0.033087
0.0270311
0.0211354
0.019401
0.0201978
0.019766
0.0181964
0.0146179
0.0112944
-0.000343043
-3.42331
-3227.04
-1037.91
539.205
494.581
25.4329
-135.268
-57.9485
18.5237
24.9041
4.75602
-4.83651
-2.56342
1.13456
1.87538
1.06045
0.524028
0.552766
0.718689
0.774901
0.743736
0.707421
0.69688
0.698529
0.694673
0.684733
0.678327
0.67878
0.680489
0.680048
0.674255
0.665012
0.660457
0.657131
0.652746
0.653923
0.655926
0.654875
0.656781
0.655281
0.644969
0.641189
0.647298
0.644552
0.63308
0.627652
0.624376
0.618747
0.619473
0.623689
0.623031
0.618633
0.613504
0.609799
0.608082
0.609167
0.611687
0.610665
0.605861
0.602194
0.600253
0.596861
0.592871
0.584864
0.571011
0.562636
0.562769
0.562814
0.562584
0.562286
0.557085
0.551276
0.54786
0.544775
0.544291
0.543069
0.53972
0.540334
0.545747
0.546488
0.535538
0.522495
0.518141
0.522999
0.525481
0.519732
0.51788
0.520424
0.522567
0.523951
0.523306
0.52288
0.516811
0.505558
0.496969
0.492485
0.489284
0.481168
0.474665
0.475493
0.477695
0.478185
0.472243
0.460264
0.450004
0.446094
0.446095
0.445123
0.444907
0.442938
0.436574
0.431361
0.426562
0.421594
0.421686
0.424222
0.422488
0.41669
0.411843
0.409893
0.407811
0.402521
0.395832
0.391966
0.388968
0.385931
0.385542
0.384553
0.384861
0.385357
0.374853
0.358427
0.349913
0.351116
0.354006
0.355017
0.359977
0.366486
0.368653
0.367118
0.361412
0.352685
0.344501
0.338949
0.337491
0.341112
0.343329
0.338324
0.332673
0.330871
0.33076
0.329004
0.325501
0.323885
0.323014
0.321112
0.316277
0.308606
0.305029
0.305659
0.306853
0.309143
0.31056
0.310045
0.309828
0.30753
0.300615
0.292623
0.284803
0.278385
0.275295
0.273243
0.270227
0.264591
0.259245
0.255791
0.250671
0.245637
0.240367
0.233393
0.228359
0.226641
0.225285
0.21978
0.212517
0.209196
0.207246
0.204485
0.204697
0.20723
0.209208
0.209545
0.204901
0.196542
0.189823
0.187322
0.185938
0.180195
0.17428
0.172321
0.170235
0.165632
0.159304
0.153891
0.148579
0.142318
0.135354
0.12721
0.121037
0.117326
0.115189
0.112769
0.110288
0.110961
0.109665
0.10573
0.102783
0.100824
0.0997023
0.0973274
0.0961044
0.0924988
0.0875241
0.0915364
0.0939059
0.0888654
0.0865311
0.0848266
0.0805321
0.0743059
0.0664291
0.0583068
0.0531194
0.0548502
0.0577716
0.055947
0.0516105
0.0471345
0.0438653
0.0384938
0.031161
0.025565
0.0208118
0.0199346
0.0217723
0.0201998
0.0160051
0.0118755
0.00668391
0.0034139
-3.42073
-3227.03
-1037.9
539.209
494.582
25.4322
-135.268
-57.9474
18.5263
24.9063
4.75421
-4.84062
-2.56387
1.13951
1.88111
1.06292
0.525573
0.556929
0.720668
0.774025
0.743657
0.706613
0.696141
0.700733
0.702813
0.690342
0.671785
0.673838
0.684566
0.681183
0.672018
0.664796
0.660929
0.661868
0.661101
0.657511
0.656478
0.652626
0.647318
0.647699
0.646287
0.645973
0.652153
0.648422
0.635571
0.62813
0.623697
0.623156
0.624922
0.618732
0.613831
0.617802
0.617025
0.610402
0.607788
0.608188
0.609111
0.609357
0.606319
0.603038
0.601376
0.598243
0.592628
0.583058
0.573004
0.568999
0.567728
0.564333
0.559912
0.5559
0.55306
0.551447
0.547146
0.544709
0.549798
0.549276
0.540754
0.537517
0.54006
0.539152
0.530984
0.525733
0.526824
0.527218
0.526321
0.52363
0.521098
0.521004
0.523162
0.524472
0.523972
0.524517
0.515265
0.497477
0.488685
0.488754
0.48882
0.484485
0.481098
0.481217
0.478697
0.475307
0.469989
0.461043
0.452919
0.447248
0.444916
0.445953
0.446909
0.442129
0.434142
0.430033
0.426272
0.422993
0.424269
0.425448
0.423932
0.418933
0.412082
0.408195
0.403669
0.397049
0.394132
0.395761
0.394784
0.388102
0.385061
0.38588
0.383501
0.379089
0.36981
0.359222
0.35563
0.354922
0.354232
0.356351
0.361631
0.365995
0.365281
0.361681
0.359489
0.355968
0.348139
0.342315
0.340728
0.339378
0.336732
0.333029
0.331252
0.330778
0.331981
0.335332
0.333407
0.327849
0.322877
0.314811
0.306574
0.304604
0.308412
0.312282
0.311799
0.309492
0.307801
0.305294
0.304847
0.305702
0.301272
0.294185
0.287609
0.281098
0.276077
0.272019
0.268981
0.264362
0.258417
0.254828
0.249785
0.243859
0.240518
0.236904
0.23241
0.228638
0.224315
0.217228
0.210567
0.209832
0.210556
0.207761
0.207242
0.208864
0.20716
0.204347
0.199866
0.194447
0.192174
0.190574
0.187557
0.181759
0.174432
0.169375
0.16628
0.163932
0.161151
0.157087
0.150612
0.142728
0.136077
0.130296
0.123718
0.115506
0.111884
0.112796
0.110812
0.10962
0.10948
0.106994
0.103451
0.0998842
0.0977512
0.093829
0.0924713
0.096366
0.0960449
0.0933113
0.0908881
0.0871108
0.0850973
0.0834762
0.0800542
0.0738584
0.0667337
0.0619026
0.0581279
0.0563774
0.0558458
0.0540531
0.0512928
0.0468258
0.0426309
0.0382733
0.0314668
0.0248596
0.020022
0.0189178
0.0212028
0.0218538
0.0184549
0.0129936
0.00855043
0.00396657
-3.42356
-3227.04
-1037.91
539.199
494.576
25.4319
-135.272
-57.9556
18.5225
24.9052
4.75163
-4.84188
-2.56365
1.13871
1.87461
1.05443
0.524295
0.558962
0.719007
0.770721
0.74404
0.70769
0.690194
0.693366
0.699474
0.693736
0.681916
0.677578
0.679586
0.678689
0.670461
0.659068
0.657907
0.66589
0.664161
0.655634
0.654007
0.651996
0.648677
0.651626
0.653952
0.650317
0.645194
0.642821
0.63898
0.628301
0.61754
0.617692
0.622465
0.62053
0.617922
0.616183
0.611561
0.610816
0.610804
0.606983
0.606634
0.609512
0.607883
0.602904
0.600952
0.598653
0.591035
0.580956
0.57217
0.566294
0.564779
0.565179
0.56054
0.553818
0.5519
0.551853
0.549057
0.545524
0.546724
0.548943
0.547077
0.542936
0.538651
0.534959
0.530348
0.528007
0.526051
0.5218
0.522699
0.525513
0.525389
0.5239
0.521407
0.520595
0.520775
0.519523
0.513084
0.503588
0.497305
0.491695
0.486517
0.482197
0.480175
0.480124
0.476877
0.472928
0.468185
0.462196
0.457621
0.45121
0.445975
0.444038
0.441945
0.439937
0.436277
0.43047
0.425726
0.424396
0.424816
0.423523
0.422295
0.418668
0.41064
0.406329
0.403609
0.396998
0.393558
0.395205
0.394971
0.390456
0.387804
0.387334
0.382509
0.375581
0.369685
0.363527
0.357388
0.352275
0.351231
0.355572
0.362023
0.365965
0.366306
0.3635
0.358279
0.351965
0.344009
0.340686
0.343084
0.340506
0.336529
0.337484
0.336636
0.332056
0.328665
0.327712
0.327175
0.32704
0.324567
0.31668
0.309191
0.306789
0.307514
0.310066
0.311955
0.310488
0.308516
0.306886
0.304364
0.302257
0.298359
0.292116
0.286381
0.281951
0.277081
0.270166
0.266011
0.264348
0.259909
0.255396
0.250466
0.24407
0.240424
0.238758
0.235186
0.228822
0.221477
0.214798
0.210027
0.20843
0.209365
0.209444
0.208169
0.2084
0.208101
0.204508
0.199747
0.196554
0.193883
0.188769
0.183042
0.178307
0.173508
0.170135
0.16897
0.166855
0.161486
0.155819
0.14917
0.140254
0.133718
0.129409
0.124473
0.118301
0.11437
0.113709
0.110946
0.108417
0.107574
0.105802
0.104015
0.102284
0.100258
0.0943551
0.0901777
0.0945032
0.0960119
0.0929643
0.0917499
0.0883873
0.0829945
0.079433
0.0772542
0.0742343
0.0710002
0.0679463
0.0631243
0.0584717
0.0548146
0.0516205
0.0491274
0.0449938
0.0408765
0.0367559
0.0306109
0.0262403
0.0230164
0.0202611
0.0199299
0.0200744
0.0180955
0.0137386
0.0077845
0.00242435
-3.42574
-3227.05
-1037.91
539.199
494.58
25.4387
-135.269
-57.9564
18.521
24.9047
4.75414
-4.84093
-2.56578
1.13946
1.88069
1.05937
0.522618
0.555474
0.721898
0.775171
0.740738
0.705627
0.697702
0.698193
0.696744
0.691514
0.687926
0.686725
0.680553
0.67432
0.672226
0.66752
0.662068
0.661124
0.660139
0.659632
0.659578
0.654112
0.647774
0.650384
0.656709
0.653863
0.643917
0.639236
0.636874
0.628801
0.622453
0.62237
0.623458
0.622184
0.618561
0.613519
0.609778
0.609166
0.608615
0.607726
0.608977
0.610209
0.607144
0.602375
0.601048
0.597629
0.589237
0.581768
0.575643
0.569117
0.565333
0.563807
0.558589
0.55326
0.552472
0.55222
0.552797
0.551845
0.54604
0.542768
0.545555
0.544518
0.537767
0.53435
0.53217
0.530299
0.529113
0.524361
0.523492
0.526711
0.526422
0.522962
0.521237
0.524643
0.523036
0.51443
0.509726
0.50655
0.498546
0.488811
0.483758
0.482893
0.48343
0.483247
0.478595
0.473293
0.467906
0.461229
0.457313
0.452825
0.447237
0.443911
0.441342
0.439885
0.437577
0.431379
0.426331
0.426557
0.425664
0.422056
0.421658
0.417852
0.408478
0.4037
0.402209
0.401703
0.401036
0.396047
0.391031
0.38743
0.387396
0.390074
0.384151
0.374187
0.368178
0.362239
0.357255
0.354178
0.354296
0.359361
0.363235
0.363396
0.364345
0.363359
0.356195
0.348644
0.344735
0.343253
0.343141
0.34123
0.337006
0.334575
0.335551
0.33426
0.329674
0.328298
0.328458
0.326464
0.322435
0.316173
0.311605
0.308804
0.307643
0.311654
0.312856
0.307691
0.305592
0.305551
0.304096
0.302416
0.29624
0.288627
0.285304
0.283371
0.279393
0.271523
0.264871
0.262258
0.258249
0.25479
0.252067
0.246559
0.241964
0.239638
0.236165
0.22894
0.220576
0.215766
0.2119
0.208038
0.208747
0.211191
0.2115
0.21181
0.208606
0.200963
0.196049
0.194985
0.193665
0.189474
0.183293
0.177892
0.173885
0.170138
0.167189
0.165558
0.162232
0.15668
0.150219
0.143334
0.136745
0.130114
0.124679
0.118477
0.112594
0.111594
0.110754
0.108755
0.107379
0.10619
0.105001
0.100893
0.0987152
0.0983217
0.0950233
0.0947027
0.0946076
0.0913616
0.0895375
0.0876087
0.0840171
0.0798607
0.0773685
0.0762967
0.0731771
0.0687386
0.0644426
0.0602124
0.0554424
0.050526
0.047208
0.0441694
0.0411402
0.0368273
0.0296776
0.0254586
0.0242873
0.0222872
0.0207226
0.0193403
0.0170215
0.0139099
0.00840063
0.0026691
-3.42892
-3227.05
-1037.92
539.202
494.582
25.4358
-135.271
-57.9574
18.5178
24.8988
4.75043
-4.84117
-2.56578
1.13749
1.87648
1.05626
0.519899
0.553124
0.721273
0.775256
0.741421
0.704417
0.696818
0.698686
0.693113
0.688989
0.689604
0.68725
0.683616
0.677463
0.668678
0.664955
0.664928
0.662918
0.65765
0.654407
0.65559
0.655037
0.652814
0.652465
0.653549
0.652841
0.64706
0.640883
0.635472
0.627262
0.62092
0.618541
0.618329
0.619106
0.618313
0.616286
0.613312
0.607775
0.603497
0.606476
0.609965
0.608191
0.606453
0.604279
0.600474
0.594651
0.586043
0.578905
0.574207
0.570261
0.566115
0.561267
0.557889
0.556455
0.552444
0.548649
0.552305
0.553673
0.546592
0.542748
0.544509
0.543084
0.539034
0.53722
0.532564
0.527919
0.528814
0.526343
0.523844
0.527211
0.527201
0.522557
0.520497
0.521502
0.518913
0.512869
0.509171
0.506396
0.500176
0.49157
0.487021
0.484608
0.480658
0.479305
0.476951
0.473109
0.470228
0.463991
0.457
0.451164
0.445986
0.442729
0.440727
0.441233
0.439033
0.432107
0.427953
0.425486
0.422639
0.421614
0.420491
0.416135
0.408675
0.40212
0.399335
0.40156
0.403699
0.398036
0.391035
0.388795
0.386917
0.384635
0.38185
0.376635
0.369397
0.363234
0.35917
0.355498
0.355735
0.359247
0.359605
0.359503
0.362544
0.361936
0.354925
0.350748
0.348375
0.341745
0.338998
0.338603
0.335235
0.33636
0.338836
0.33558
0.331263
0.328233
0.325175
0.322432
0.318877
0.315007
0.313261
0.312157
0.311405
0.312818
0.311466
0.305918
0.303296
0.302763
0.300408
0.298577
0.296234
0.291856
0.286791
0.280477
0.274261
0.269476
0.265804
0.262004
0.257292
0.254484
0.25282
0.249298
0.245778
0.241526
0.234478
0.226063
0.217778
0.213389
0.214378
0.214148
0.211153
0.210226
0.210233
0.207952
0.204992
0.201839
0.1976
0.194787
0.193336
0.188215
0.180559
0.176065
0.173247
0.169229
0.167628
0.167854
0.1635
0.156619
0.150517
0.143436
0.135955
0.127745
0.121167
0.117917
0.114997
0.113225
0.111426
0.108146
0.106034
0.106198
0.105873
0.101449
0.0990718
0.100508
0.0973118
0.0937097
0.093799
0.0916262
0.0879887
0.0857265
0.0823086
0.0791731
0.0803711
0.0801449
0.073649
0.0670292
0.0633983
0.0608953
0.0573578
0.0520315
0.0474243
0.0432449
0.0389504
0.0354508
0.0314077
0.0278828
0.0257693
0.023292
0.0198889
0.0172064
0.0168123
0.0137829
0.00714883
0.00232449
-3.43154
-3227.06
-1037.91
539.203
494.578
25.4309
-135.271
-57.9577
18.5168
24.9007
4.75121
-4.84261
-2.56564
1.13556
1.87185
1.05865
0.525977
0.55613
0.724988
0.776541
0.740793
0.706169
0.695813
0.696953
0.697675
0.694435
0.691178
0.689842
0.684576
0.676304
0.671469
0.667491
0.6626
0.660912
0.661721
0.659165
0.655216
0.656922
0.659345
0.656039
0.651266
0.648073
0.644522
0.638921
0.63276
0.629478
0.628761
0.625313
0.62083
0.619311
0.618184
0.616528
0.61067
0.601848
0.60167
0.609343
0.612754
0.610746
0.607567
0.602705
0.596588
0.590728
0.585189
0.578636
0.574318
0.573632
0.568451
0.561654
0.55981
0.556843
0.551679
0.550263
0.551329
0.551074
0.551049
0.549376
0.544355
0.540155
0.537455
0.537627
0.537522
0.531658
0.527383
0.527792
0.527046
0.525894
0.524856
0.522396
0.520951
0.521544
0.520432
0.516786
0.511265
0.503919
0.498049
0.4927
0.48752
0.484949
0.482544
0.480561
0.477837
0.474338
0.472262
0.465039
0.454502
0.448073
0.444674
0.44429
0.445056
0.442886
0.438258
0.434631
0.430332
0.423908
0.422202
0.421742
0.416998
0.413916
0.410544
0.405156
0.402917
0.403438
0.401129
0.393558
0.390619
0.393081
0.38907
0.38315
0.38074
0.376541
0.37038
0.364097
0.359235
0.357821
0.3593
0.360317
0.359922
0.360933
0.360257
0.355786
0.351762
0.349226
0.347571
0.345671
0.341608
0.338298
0.338588
0.338855
0.335334
0.332309
0.330164
0.326923
0.32585
0.324002
0.320035
0.31739
0.315394
0.314371
0.312887
0.30998
0.307373
0.304767
0.304119
0.30375
0.300445
0.296313
0.29221
0.288808
0.285159
0.27959
0.275425
0.271683
0.265352
0.260863
0.258989
0.254916
0.250114
0.248632
0.248375
0.244637
0.237104
0.228096
0.218161
0.212569
0.214044
0.214031
0.212625
0.215063
0.213694
0.207391
0.20288
0.199682
0.197255
0.195348
0.190348
0.184845
0.181598
0.176786
0.172055
0.171125
0.170812
0.168131
0.162994
0.155806
0.148692
0.144
0.138242
0.12793
0.120185
0.118004
0.115089
0.112205
0.110856
0.109407
0.108868
0.107998
0.105601
0.102675
0.101099
0.100851
0.098095
0.0943426
0.093529
0.0923914
0.0882111
0.0835585
0.0806622
0.080814
0.0827963
0.0804228
0.073496
0.0684176
0.0653244
0.0619976
0.0574406
0.0516345
0.0472666
0.0441356
0.0393751
0.0351793
0.0329652
0.0299322
0.0257939
0.0218546
0.0184941
0.0171996
0.0175648
0.0150315
0.00908455
0.00317936
-3.42989
-3227.05
-1037.91
539.198
494.572
25.4291
-135.268
-57.953
18.5164
24.8954
4.74547
-4.84529
-2.56765
1.13203
1.87163
1.06012
0.526038
0.555976
0.72116
0.772679
0.741312
0.707891
0.698462
0.698017
0.693491
0.693344
0.695168
0.691181
0.685855
0.678482
0.670332
0.66662
0.663999
0.659838
0.660595
0.663487
0.659113
0.653575
0.65415
0.654332
0.649797
0.64658
0.64419
0.637865
0.633279
0.631744
0.628059
0.6244
0.621275
0.617016
0.616239
0.61601
0.60898
0.602427
0.603612
0.607926
0.61048
0.609304
0.60444
0.599551
0.595272
0.588543
0.583102
0.579955
0.57517
0.571158
0.567052
0.561721
0.558586
0.557082
0.555122
0.551165
0.547859
0.548227
0.550167
0.549175
0.544777
0.541748
0.541269
0.540096
0.536266
0.530814
0.527924
0.527125
0.526086
0.525337
0.523962
0.522962
0.521326
0.518243
0.519294
0.519672
0.510629
0.500358
0.496397
0.493122
0.489774
0.488224
0.483944
0.479766
0.476918
0.4732
0.470274
0.462668
0.452575
0.446925
0.444894
0.447719
0.448135
0.442446
0.438046
0.434659
0.429549
0.423156
0.420829
0.421181
0.416726
0.412071
0.408393
0.404976
0.40525
0.40389
0.398964
0.393329
0.390448
0.391885
0.389188
0.382201
0.378455
0.375054
0.370212
0.36651
0.363528
0.361526
0.360545
0.358836
0.357307
0.355713
0.352846
0.353685
0.35546
0.352407
0.349567
0.343584
0.335863
0.336477
0.338751
0.337566
0.336212
0.333779
0.331269
0.328305
0.324549
0.320956
0.318575
0.316902
0.314869
0.315995
0.316238
0.311428
0.306551
0.302121
0.299036
0.29814
0.297162
0.296223
0.293281
0.288792
0.28384
0.277568
0.273015
0.269255
0.262745
0.259356
0.260334
0.256926
0.25249
0.252173
0.249153
0.242405
0.234076
0.225232
0.219687
0.216767
0.21588
0.216278
0.214903
0.214158
0.212803
0.205877
0.198409
0.196359
0.19626
0.194196
0.189821
0.186051
0.182731
0.176052
0.170219
0.169149
0.168947
0.168009
0.165289
0.158644
0.149706
0.141334
0.133869
0.125658
0.118567
0.116755
0.117415
0.115112
0.111782
0.110498
0.109123
0.10631
0.105385
0.105541
0.102475
0.100043
0.099837
0.0960026
0.0917741
0.0903187
0.0861816
0.0817541
0.0827316
0.0852874
0.083371
0.077631
0.0731971
0.0694376
0.0646511
0.0616988
0.0586883
0.053757
0.0489671
0.043949
0.0392278
0.035378
0.0332324
0.0312079
0.0248098
0.0180341
0.0189333
0.0205953
0.0187429
0.0150559
0.0103177
0.00446553
-3.42835
-3227.05
-1037.92
539.193
494.572
25.4305
-135.269
-57.9543
18.5149
24.8941
4.74457
-4.84881
-2.5695
1.13196
1.87107
1.05978
0.528451
0.559838
0.720853
0.772806
0.742038
0.707314
0.697536
0.696188
0.698725
0.702858
0.697627
0.688733
0.685087
0.680016
0.671353
0.667349
0.667833
0.664491
0.660829
0.659455
0.658185
0.659886
0.659819
0.655081
0.648717
0.642027
0.639601
0.638869
0.636514
0.632038
0.626807
0.626018
0.624888
0.622238
0.621219
0.613848
0.603962
0.602411
0.604199
0.606461
0.610243
0.609626
0.603812
0.597742
0.592899
0.58739
0.58211
0.57862
0.575815
0.572499
0.568981
0.566034
0.561669
0.557086
0.553259
0.548676
0.547293
0.550515
0.553422
0.552562
0.547242
0.542565
0.540326
0.538216
0.53798
0.535799
0.530009
0.528251
0.528111
0.524243
0.521745
0.522271
0.521031
0.519514
0.520664
0.518576
0.512182
0.505365
0.498146
0.492645
0.488577
0.485956
0.484654
0.48297
0.479674
0.47419
0.4688
0.460782
0.451435
0.44745
0.446811
0.448913
0.449677
0.444004
0.438211
0.435008
0.431466
0.426274
0.421882
0.417988
0.413208
0.410733
0.409148
0.409676
0.409124
0.400916
0.395511
0.395512
0.393382
0.390817
0.386965
0.38258
0.378599
0.3746
0.373329
0.370265
0.36563
0.363262
0.359326
0.357156
0.358256
0.356387
0.352873
0.351722
0.352367
0.350933
0.347078
0.342637
0.338878
0.338103
0.338821
0.33991
0.338081
0.332264
0.328268
0.325231
0.322837
0.322404
0.322357
0.321639
0.3194
0.317913
0.313535
0.305731
0.302388
0.301611
0.301393
0.29958
0.295459
0.29417
0.291376
0.285446
0.281215
0.276875
0.271435
0.267333
0.264806
0.262861
0.261543
0.258178
0.252641
0.24989
0.248467
0.243777
0.235549
0.228425
0.223841
0.218462
0.216233
0.21775
0.217182
0.215053
0.211301
0.204304
0.199691
0.198766
0.196185
0.191655
0.187266
0.182997
0.179569
0.176228
0.173413
0.173469
0.17298
0.167823
0.16203
0.157009
0.14763
0.137711
0.132474
0.12707
0.121313
0.11985
0.11899
0.115131
0.112774
0.112065
0.108781
0.106152
0.107314
0.108193
0.10443
0.0995549
0.0980104
0.0958643
0.0927526
0.0905386
0.0859454
0.0826178
0.0844432
0.0856952
0.0824512
0.0774574
0.0746895
0.0725568
0.067704
0.0623088
0.0578045
0.053957
0.0495105
0.0441748
0.0395503
0.0352526
0.0334574
0.031724
0.0251946
0.0185024
0.019767
0.0222036
0.0204794
0.0172872
0.0120236
0.00496869
-3.4299
-3227.06
-1037.92
539.192
494.574
25.4348
-135.268
-57.9547
18.5147
24.8932
4.74129
-4.85501
-2.57486
1.13058
1.87269
1.06151
0.529509
0.561738
0.721137
0.767246
0.738027
0.708859
0.697242
0.697386
0.701749
0.702328
0.698048
0.691961
0.688079
0.679437
0.667687
0.666694
0.670082
0.668842
0.665595
0.663505
0.659996
0.655006
0.651989
0.652307
0.64999
0.640721
0.636377
0.639478
0.639123
0.634836
0.628387
0.624663
0.625318
0.621927
0.615438
0.609024
0.604966
0.606541
0.607529
0.607478
0.608329
0.604037
0.597446
0.593976
0.590239
0.585833
0.584034
0.580372
0.575747
0.572901
0.566891
0.563131
0.562605
0.556618
0.551515
0.550909
0.550351
0.550527
0.550437
0.549449
0.5482
0.545138
0.541793
0.538899
0.536345
0.534257
0.531167
0.528569
0.527455
0.525514
0.521405
0.518983
0.521657
0.522961
0.51965
0.515646
0.509935
0.50276
0.497797
0.494872
0.490907
0.488064
0.486992
0.483547
0.47911
0.471196
0.461556
0.455258
0.451859
0.451359
0.451166
0.450385
0.448165
0.443887
0.439935
0.433382
0.429408
0.428191
0.42184
0.416109
0.412719
0.409081
0.407544
0.408811
0.408256
0.401313
0.396564
0.396454
0.392182
0.38791
0.386031
0.382089
0.377298
0.373793
0.373437
0.372943
0.369347
0.365713
0.361464
0.355714
0.35161
0.350973
0.351089
0.351824
0.353426
0.34961
0.344754
0.344122
0.34116
0.336827
0.334359
0.334836
0.335947
0.333196
0.330931
0.327855
0.324106
0.323309
0.32102
0.319334
0.318779
0.316476
0.312259
0.306239
0.302135
0.300017
0.298979
0.296631
0.292931
0.291838
0.288105
0.282879
0.281336
0.277341
0.269328
0.263684
0.262698
0.261265
0.260303
0.261004
0.25759
0.252359
0.24709
0.240276
0.234309
0.229846
0.226098
0.221132
0.217654
0.21889
0.219283
0.215313
0.208928
0.202484
0.198285
0.195242
0.192479
0.191212
0.189191
0.183939
0.178007
0.17433
0.173107
0.173022
0.171802
0.167477
0.161336
0.154784
0.146216
0.137352
0.131012
0.126599
0.122878
0.120018
0.118676
0.116965
0.115258
0.113431
0.110196
0.108144
0.105943
0.104231
0.104305
0.101067
0.0981308
0.0967339
0.09195
0.0875431
0.0852633
0.0852678
0.0873091
0.0866088
0.0831217
0.0783586
0.0739848
0.0713662
0.0674613
0.0622004
0.0576029
0.0550211
0.051955
0.0450682
0.0391319
0.0361157
0.0324974
0.0283942
0.0260855
0.0227259
0.0210806
0.0222556
0.0207947
0.0164781
0.010671
0.00417815
-3.43314
-3227.06
-1037.92
539.193
494.574
25.4354
-135.267
-57.9589
18.51
24.8919
4.74047
-4.85569
-2.57436
1.13279
1.87077
1.05613
0.529553
0.563082
0.723381
0.769836
0.733961
0.705018
0.70047
0.703652
0.705728
0.702424
0.697977
0.695157
0.688581
0.676249
0.67073
0.672703
0.672642
0.669727
0.664283
0.662816
0.665604
0.660865
0.650059
0.646129
0.647434
0.643119
0.638161
0.638816
0.638457
0.633677
0.627946
0.626243
0.627565
0.626296
0.619095
0.608329
0.604641
0.606321
0.605437
0.60554
0.60344
0.599248
0.599733
0.595903
0.589689
0.586275
0.580665
0.577626
0.578834
0.574405
0.566979
0.566743
0.565752
0.55721
0.549578
0.548619
0.552762
0.555804
0.553463
0.549389
0.545319
0.543058
0.54485
0.542453
0.535451
0.534096
0.534395
0.532215
0.529751
0.525757
0.521722
0.519367
0.519444
0.520587
0.521002
0.518983
0.512849
0.503892
0.496138
0.494025
0.493097
0.491005
0.488582
0.482773
0.477634
0.471281
0.461672
0.455049
0.451323
0.452276
0.453605
0.450329
0.448507
0.447372
0.442487
0.435242
0.430927
0.427125
0.419353
0.414343
0.413049
0.411443
0.410077
0.408011
0.40581
0.401847
0.3985
0.3973
0.393038
0.387771
0.384054
0.380592
0.377604
0.376384
0.378293
0.375586
0.367679
0.364641
0.36207
0.357154
0.353673
0.350214
0.349413
0.352026
0.352925
0.348635
0.342406
0.339586
0.339048
0.33951
0.339109
0.337702
0.336177
0.33144
0.327275
0.325283
0.325319
0.327332
0.32615
0.324076
0.319375
0.312055
0.307804
0.304242
0.302059
0.300369
0.29743
0.295464
0.293213
0.290709
0.286263
0.281588
0.278364
0.272817
0.267067
0.264758
0.265879
0.264756
0.260436
0.259112
0.257794
0.253183
0.247754
0.24267
0.237277
0.230885
0.226587
0.224044
0.222141
0.221721
0.219114
0.212549
0.206509
0.203766
0.201203
0.196387
0.191997
0.189578
0.18674
0.181675
0.176095
0.174277
0.17589
0.174655
0.171709
0.168233
0.159809
0.150574
0.143573
0.136629
0.131357
0.129114
0.127164
0.122733
0.1196
0.118369
0.114661
0.111888
0.111358
0.110701
0.108111
0.10521
0.103669
0.0994491
0.0964255
0.0964061
0.0922588
0.0885322
0.0887615
0.0891898
0.088599
0.0854068
0.0823598
0.0796122
0.074115
0.0700757
0.0671444
0.0639467
0.0616794
0.0589588
0.0521611
0.0422093
0.0377737
0.0367954
0.0316164
0.0269684
0.0271815
0.026363
0.024811
0.0240547
0.0198165
0.0140825
0.00942078
0.00391783
-3.43388
-3227.06
-1037.92
539.191
494.576
25.4362
-135.268
-57.959
18.5088
24.8892
4.73974
-4.85132
-2.57589
1.12303
1.8685
1.0593
0.528195
0.561229
0.722041
0.767748
0.733854
0.703858
0.703083
0.712022
0.708006
0.701109
0.700513
0.693771
0.685126
0.678447
0.673181
0.671507
0.670584
0.674334
0.674882
0.667842
0.663845
0.65859
0.649835
0.645281
0.643897
0.638672
0.634548
0.637984
0.639206
0.636225
0.633386
0.629486
0.626073
0.619888
0.613359
0.609466
0.606731
0.608866
0.608686
0.602484
0.5976
0.596332
0.594559
0.591339
0.589532
0.585519
0.580139
0.580122
0.578909
0.574449
0.570131
0.565315
0.562043
0.557025
0.551488
0.552595
0.554565
0.552837
0.551848
0.548048
0.542849
0.543775
0.545636
0.541977
0.536884
0.534292
0.533022
0.532268
0.529383
0.524781
0.523329
0.521132
0.519533
0.520865
0.519563
0.514864
0.508795
0.503064
0.498816
0.496888
0.495544
0.492261
0.48863
0.482107
0.473435
0.466036
0.4599
0.456457
0.45381
0.453502
0.452948
0.449574
0.448984
0.448253
0.444269
0.437693
0.430422
0.425396
0.418754
0.412672
0.410133
0.409242
0.408932
0.407288
0.406409
0.403997
0.398602
0.395764
0.391989
0.387134
0.383795
0.378864
0.376587
0.377162
0.376504
0.375516
0.372526
0.367694
0.361217
0.353283
0.349328
0.350985
0.352803
0.349982
0.346646
0.345245
0.343513
0.341558
0.338191
0.337043
0.337387
0.335422
0.334111
0.330963
0.327877
0.32822
0.328652
0.328205
0.32481
0.321762
0.318105
0.310687
0.305703
0.30276
0.301116
0.298911
0.295943
0.295856
0.291907
0.285391
0.282387
0.279335
0.275195
0.271693
0.268153
0.264038
0.262966
0.2627
0.260499
0.261086
0.25991
0.253401
0.247068
0.242798
0.238812
0.233082
0.228275
0.225779
0.223334
0.221876
0.218604
0.212498
0.207083
0.202203
0.197996
0.194825
0.191818
0.190059
0.186671
0.179747
0.174487
0.173189
0.173907
0.173237
0.170715
0.167113
0.158601
0.148959
0.142354
0.137202
0.133034
0.129623
0.127475
0.124112
0.120436
0.119356
0.116798
0.113542
0.111361
0.109152
0.106903
0.103896
0.102686
0.100986
0.0977103
0.0961554
0.0923154
0.0882513
0.0879684
0.0889432
0.0894117
0.0873229
0.0841688
0.0790908
0.0717931
0.0688603
0.0679816
0.0661681
0.0641644
0.0579713
0.0501602
0.0437175
0.0385441
0.0351034
0.031417
0.0283436
0.0275579
0.0267656
0.0254171
0.0229678
0.0179539
0.013926
0.00904882
0.00285621
-3.43519
-3227.06
-1037.92
539.194
494.577
25.4331
-135.273
-57.9598
18.5133
24.8914
4.73539
-4.85661
-2.57556
1.12308
1.86675
1.06212
0.529305
0.558234
0.719616
0.767359
0.736152
0.707752
0.703223
0.70721
0.70948
0.707072
0.698486
0.689425
0.685234
0.681968
0.679142
0.676299
0.672371
0.673838
0.675883
0.671384
0.66449
0.656881
0.649861
0.645609
0.643737
0.640719
0.636983
0.637403
0.637197
0.635814
0.634333
0.628747
0.625809
0.623741
0.616024
0.611094
0.610031
0.606569
0.601001
0.597609
0.59496
0.592442
0.593908
0.59409
0.590041
0.5859
0.583004
0.580881
0.576745
0.574081
0.572901
0.567574
0.562155
0.559293
0.555365
0.553767
0.554122
0.553358
0.551874
0.547102
0.543487
0.544581
0.544205
0.541359
0.537919
0.53654
0.537535
0.536765
0.530574
0.524131
0.522351
0.520242
0.519307
0.521957
0.521034
0.516624
0.510684
0.50425
0.49999
0.497678
0.496402
0.493542
0.488887
0.48045
0.472016
0.466845
0.460907
0.457429
0.455112
0.45221
0.452706
0.452654
0.451018
0.449115
0.445886
0.440511
0.431609
0.422991
0.41729
0.413459
0.410399
0.408656
0.409116
0.407674
0.40589
0.4048
0.400065
0.3953
0.392728
0.388815
0.38259
0.377623
0.377778
0.378563
0.377342
0.376246
0.373389
0.368762
0.362034
0.354795
0.350654
0.349352
0.351033
0.350395
0.345816
0.34413
0.341839
0.338676
0.337888
0.339595
0.338874
0.335224
0.333912
0.332136
0.329519
0.329027
0.328646
0.328788
0.326531
0.321938
0.316308
0.308877
0.305062
0.302901
0.298876
0.295521
0.295355
0.296783
0.292403
0.285851
0.281269
0.275774
0.27185
0.268958
0.266306
0.263978
0.262782
0.264441
0.264405
0.261771
0.258516
0.254614
0.25011
0.245041
0.23984
0.233972
0.229741
0.228873
0.226434
0.221282
0.216372
0.212679
0.209147
0.203974
0.198205
0.194157
0.1917
0.188898
0.183094
0.176917
0.174452
0.173791
0.174529
0.173882
0.169469
0.164153
0.156562
0.14843
0.143195
0.138739
0.135295
0.131488
0.129015
0.126822
0.122205
0.119879
0.117539
0.113064
0.11047
0.110159
0.109306
0.104875
0.102169
0.101766
0.098024
0.0950161
0.0927208
0.0897799
0.0897876
0.0900449
0.0892501
0.0869632
0.0830654
0.0790055
0.0736677
0.06934
0.0686051
0.069847
0.0673858
0.0587108
0.0514106
0.044585