/*--------------------------------*- C++ -*----------------------------------*\
| =========                 |                                                 |
| \\      /  F ield         | OpenFOAM: The Open Source CFD Toolbox           |
|  \\    /   O peration     | Version:  2406                                  |
|   \\  /    A nd           | Website:  www.openfoam.com                      |
|    \\/     M anipulation  |                                                 |
\*---------------------------------------------------------------------------*/
FoamFile
{
    version     2.0;
    format      ascii;
    arch        "LSB;label=32;scalar=64";
    class       surfaceScalarField;
    location    "2.05";
    object      phi;
}
// * * * * * * * * * * * * * * * * * * * * * * * * * * * * * * * * * * * * * //

dimensions      [0 3 -1 0 0 0 0];

oriented        oriented;

internalField   nonuniform List<scalar> 
12225
(
0.511135
1.66809e-06
0.511129
6.16805e-06
0.511121
7.53017e-06
0.511116
5.49298e-06
0.511112
4.27504e-06
0.511107
4.57028e-06
0.511102
5.03402e-06
0.511097
4.90894e-06
0.511092
4.97009e-06
0.511087
5.38879e-06
0.511081
5.55968e-06
0.511076
5.29789e-06
0.511071
5.20024e-06
0.511065
5.4999e-06
0.511059
5.78527e-06
0.511054
5.74183e-06
0.511048
5.44516e-06
0.511043
5.37003e-06
0.511037
5.53271e-06
0.511032
5.55729e-06
0.511026
5.4465e-06
0.511021
5.32467e-06
0.511015
5.44418e-06
0.51101
5.67631e-06
0.511004
5.5516e-06
0.510999
5.48308e-06
0.510993
5.87269e-06
0.510987
6.11442e-06
0.510981
5.71298e-06
0.510976
4.9843e-06
0.510971
4.90224e-06
0.510966
5.52216e-06
0.51096
5.79839e-06
0.510954
5.81646e-06
0.510948
6.00359e-06
0.510942
5.92299e-06
0.510937
5.61554e-06
0.510931
5.1072e-06
0.510927
4.27444e-06
0.510923
3.99357e-06
0.510919
4.54616e-06
0.510914
4.98784e-06
0.510908
5.26137e-06
0.510903
5.79554e-06
0.510896
6.19367e-06
0.51089
6.16039e-06
0.510884
6.04567e-06
0.510878
5.81098e-06
0.510873
5.34441e-06
0.510868
5.15573e-06
0.510862
5.34076e-06
0.510857
5.45666e-06
0.510852
5.2862e-06
0.510847
5.22758e-06
0.510841
5.38163e-06
0.510836
5.21605e-06
0.510831
4.87009e-06
0.510826
4.73852e-06
0.510821
4.91685e-06
0.510816
5.43227e-06
0.51081
5.83008e-06
0.510804
5.90764e-06
0.510798
5.86e-06
0.510793
5.75169e-06
0.510787
5.68611e-06
0.510781
5.59664e-06
0.510776
5.55063e-06
0.51077
5.7941e-06
0.510764
6.00039e-06
0.510758
5.789e-06
0.510753
5.38173e-06
0.510748
4.97399e-06
0.510743
4.7677e-06
0.510738
4.87976e-06
0.510733
4.93788e-06
0.510728
5.11305e-06
0.510722
5.78259e-06
0.510716
6.1105e-06
0.510711
5.41381e-06
0.510706
4.64066e-06
0.510701
4.72957e-06
0.510696
5.27721e-06
0.51069
5.79146e-06
0.510684
6.08063e-06
0.510678
6.07937e-06
0.510672
6.09999e-06
0.510666
6.09783e-06
0.51066
5.96292e-06
0.510654
5.80504e-06
0.510649
5.59217e-06
0.510643
5.44135e-06
0.510638
5.34729e-06
0.510633
5.31005e-06
0.510627
5.3589e-06
0.510622
5.14735e-06
0.510617
4.6971e-06
0.510613
4.6318e-06
0.510608
5.13944e-06
0.510602
5.64914e-06
0.510596
5.78936e-06
0.51059
5.66315e-06
0.510585
5.43684e-06
0.51058
5.34838e-06
0.510574
5.425e-06
0.510569
5.57849e-06
0.510563
5.69991e-06
0.510557
5.54147e-06
0.510552
5.28938e-06
0.510547
5.27424e-06
0.510541
5.48549e-06
0.510536
5.75625e-06
0.51053
5.71829e-06
0.510524
5.47161e-06
0.510519
5.43409e-06
0.510514
5.34288e-06
0.510509
5.17579e-06
0.510503
5.42738e-06
0.510497
5.91033e-06
0.510491
6.07502e-06
0.510485
5.7236e-06
0.51048
5.24605e-06
0.510475
5.25297e-06
0.510469
5.51229e-06
0.510464
5.49777e-06
0.510459
5.36492e-06
0.510453
5.33525e-06
0.510448
5.34353e-06
0.510443
5.27599e-06
0.510438
5.01019e-06
0.510433
4.77245e-06
0.510428
5.02373e-06
0.510422
5.70189e-06
0.510416
6.14282e-06
0.51041
6.019e-06
0.510404
5.8293e-06
0.510398
5.66642e-06
0.510393
5.25013e-06
0.510388
5.01044e-06
0.510383
5.11134e-06
0.510378
5.21932e-06
0.510372
5.29597e-06
0.510367
5.38978e-06
0.510361
5.7266e-06
0.510355
6.07482e-06
0.51035
5.75905e-06
0.510344
5.06993e-06
0.51034
4.70975e-06
0.510335
4.76828e-06
0.51033
5.09821e-06
0.510324
5.52695e-06
0.510319
5.80583e-06
0.510313
5.87011e-06
0.510307
5.83485e-06
0.510301
5.82047e-06
0.510295
5.83995e-06
0.510289
5.71573e-06
0.510284
5.43379e-06
0.510279
5.12988e-06
0.510274
4.93001e-06
0.510269
5.05278e-06
0.510264
5.37908e-06
0.510258
5.53245e-06
0.510253
5.38259e-06
0.510248
5.02564e-06
0.510243
4.71317e-06
0.510238
4.71399e-06
0.510233
5.13892e-06
0.510227
5.72992e-06
0.510221
6.03539e-06
0.510215
5.88433e-06
0.51021
5.51092e-06
0.510205
5.28782e-06
0.510199
5.24786e-06
0.510194
5.26158e-06
0.510189
5.33132e-06
0.510183
5.36501e-06
0.510178
5.31495e-06
0.510173
5.2584e-06
0.510168
5.19312e-06
0.510162
5.2321e-06
0.510157
5.56187e-06
0.510151
5.82409e-06
0.510145
5.65119e-06
0.51014
5.50023e-06
0.510134
5.63762e-06
0.510128
5.79049e-06
0.510122
5.9649e-06
0.510116
6.11996e-06
0.51011
5.91564e-06
0.510105
5.39713e-06
0.5101
4.99797e-06
0.510095
4.88239e-06
0.51009
4.98246e-06
0.510085
5.22185e-06
0.51008
5.39864e-06
0.510074
5.39747e-06
0.510069
5.4166e-06
0.510063
5.63949e-06
0.510057
5.77749e-06
0.510052
5.57707e-06
0.510046
5.26701e-06
0.510041
5.18627e-06
0.510036
5.4853e-06
0.51003
5.83856e-06
0.510024
5.93799e-06
0.510018
5.90371e-06
0.510012
5.77818e-06
0.510007
5.57625e-06
0.510001
5.45672e-06
0.509996
5.44473e-06
0.509991
5.37365e-06
0.509985
5.29414e-06
0.50998
5.36551e-06
0.509974
5.39533e-06
0.509969
5.29807e-06
0.509964
5.24516e-06
0.509959
5.3765e-06
0.509953
5.60697e-06
0.509947
5.61998e-06
0.509942
5.45311e-06
0.509937
5.28368e-06
0.509931
5.24984e-06
0.509926
5.45405e-06
0.50992
5.68131e-06
0.509914
5.86265e-06
0.509908
5.88909e-06
0.509903
5.602e-06
0.509897
5.33031e-06
0.509892
5.22635e-06
0.509887
5.22283e-06
0.509882
5.40354e-06
0.509876
5.61948e-06
0.50987
5.5926e-06
0.509865
5.29966e-06
0.50986
5.02418e-06
0.509855
4.9659e-06
0.50985
5.10813e-06
0.509845
5.31685e-06
0.509839
5.40602e-06
0.509834
5.47226e-06
0.509828
5.55363e-06
0.509823
5.56335e-06
0.509817
5.59698e-06
0.509812
5.51679e-06
0.509806
5.29816e-06
0.509801
5.25907e-06
0.509796
5.52694e-06
0.50979
5.83109e-06
0.509783
6.31742e-06
5.60276e-06
0.511141
-1.96985e-07
0.511147
4.33983e-07
0.511153
1.59592e-06
0.511156
2.47955e-06
0.511157
2.67143e-06
0.511159
2.48844e-06
0.511162
2.23553e-06
0.511165
2.1292e-06
0.511168
2.10071e-06
0.511171
2.34046e-06
0.511173
2.93002e-06
0.511176
3.17927e-06
0.511178
2.88627e-06
0.511181
2.45908e-06
0.511184
2.22134e-06
0.511188
2.16324e-06
0.511191
2.0379e-06
0.511195
1.86822e-06
0.511198
2.0504e-06
0.511202
2.42739e-06
0.511205
2.50843e-06
0.511208
2.28567e-06
0.511211
2.20214e-06
0.511214
2.25273e-06
0.511218
2.05323e-06
0.511221
2.3284e-06
0.511224
3.21828e-06
0.511226
3.45076e-06
0.511229
3.24478e-06
0.51123
3.19757e-06
0.511232
2.88067e-06
0.511236
2.45025e-06
0.511239
2.262e-06
0.511243
2.01427e-06
0.511247
1.83334e-06
0.511251
2.00387e-06
0.511254
2.08422e-06
0.511257
2.18863e-06
0.511259
2.63566e-06
0.51126
2.70632e-06
0.511263
2.30044e-06
0.511265
2.26802e-06
0.511268
2.65107e-06
0.511271
3.03901e-06
0.511274
3.1692e-06
0.511277
3.20779e-06
0.51128
3.12647e-06
0.511283
2.54685e-06
0.511286
2.11434e-06
0.511289
2.49942e-06
0.511291
2.70577e-06
0.511295
2.07508e-06
0.511298
1.54999e-06
0.511302
1.58699e-06
0.511306
1.78649e-06
0.511309
2.04762e-06
0.511311
2.25052e-06
0.511314
2.30634e-06
0.511316
2.42548e-06
0.511319
2.72287e-06
0.511322
3.09207e-06
0.511324
3.37906e-06
0.511327
3.51437e-06
0.511329
3.29594e-06
0.511332
2.6648e-06
0.511336
2.133e-06
0.511339
2.01923e-06
0.511343
2.0762e-06
0.511347
2.22974e-06
0.51135
2.42416e-06
0.511353
2.2999e-06
0.511356
1.97706e-06
0.511359
1.92547e-06
0.511362
2.01637e-06
0.511365
2.09398e-06
0.511367
2.49702e-06
0.51137
3.09609e-06
0.511373
3.40418e-06
0.511375
3.35723e-06
0.511376
3.06792e-06
0.511378
2.75364e-06
0.511381
2.4344e-06
0.511385
2.27765e-06
0.511388
2.71963e-06
0.511391
3.22108e-06
0.511394
3.11934e-06
0.511397
2.66968e-06
0.511401
2.15494e-06
0.511405
1.82802e-06
0.511409
1.82765e-06
0.511412
1.92169e-06
0.511416
1.99846e-06
0.511419
2.36345e-06
0.511421
3.00848e-06
0.511423
3.26236e-06
0.511425
2.98269e-06
0.511427
2.677e-06
0.511429
2.39482e-06
0.511433
2.02562e-06
0.511437
1.9546e-06
0.51144
2.44278e-06
0.511442
2.95286e-06
0.511445
2.98028e-06
0.511448
2.71921e-06
0.511451
2.46146e-06
0.511454
2.3568e-06
0.511457
2.35076e-06
0.51146
2.30309e-06
0.511463
2.34292e-06
0.511466
2.51766e-06
0.511469
2.54757e-06
0.511472
2.5026e-06
0.511475
2.65504e-06
0.511478
2.719e-06
0.511481
2.55572e-06
0.511484
2.40833e-06
0.511487
2.25546e-06
0.51149
2.1766e-06
0.511494
2.27598e-06
0.511498
2.40617e-06
0.5115
2.50936e-06
0.511503
2.52847e-06
0.511506
2.40836e-06
0.511509
2.19372e-06
0.511513
2.0571e-06
0.511516
2.25059e-06
0.511519
2.5128e-06
0.511521
2.65397e-06
0.511523
3.05088e-06
0.511525
3.49299e-06
0.511526
3.46676e-06
0.511529
3.01935e-06
0.511532
2.6657e-06
0.511535
2.85874e-06
0.511538
3.19683e-06
0.511541
3.09158e-06
0.511543
2.7417e-06
0.511546
2.46886e-06
0.511548
2.38228e-06
0.511551
2.26237e-06
0.511555
1.776e-06
0.511559
1.33567e-06
0.511563
1.55353e-06
0.511567
2.13522e-06
0.51157
2.61326e-06
0.511572
2.96266e-06
0.511574
3.15653e-06
0.511576
3.03733e-06
0.511578
2.66425e-06
0.511581
2.55479e-06
0.511584
2.67894e-06
0.511587
2.52081e-06
0.511591
2.36101e-06
0.511594
2.39401e-06
0.511598
2.41439e-06
0.511601
2.66303e-06
0.511603
2.83133e-06
0.511606
2.49814e-06
0.511609
1.96021e-06
0.511613
1.58532e-06
0.511616
1.57257e-06
0.51162
1.91e-06
0.511623
2.32044e-06
0.511625
2.66314e-06
0.511627
2.86984e-06
0.511629
2.87144e-06
0.511631
2.77382e-06
0.511635
2.64936e-06
0.511638
2.495e-06
0.511642
2.39953e-06
0.511645
2.40757e-06
0.511647
2.51593e-06
0.51165
2.55666e-06
0.511653
2.44833e-06
0.511656
2.41644e-06
0.511659
2.52835e-06
0.511661
2.70954e-06
0.511664
2.85298e-06
0.511666
2.74995e-06
0.511669
2.45739e-06
0.511672
2.25652e-06
0.511676
2.3634e-06
0.511679
2.68719e-06
0.511681
2.85226e-06
0.511684
2.75e-06
0.511687
2.50261e-06
0.511691
2.23119e-06
0.511695
2.12866e-06
0.511699
2.1458e-06
0.511702
2.2346e-06
0.511705
2.48532e-06
0.511707
2.71141e-06
0.511709
2.74152e-06
0.511712
2.53923e-06
0.511715
2.22058e-06
0.511718
2.13315e-06
0.511721
2.23856e-06
0.511725
2.37252e-06
0.511728
2.70362e-06
0.51173
3.08093e-06
0.511732
3.27805e-06
0.511734
3.21425e-06
0.511737
2.87021e-06
0.51174
2.55021e-06
0.511744
2.47141e-06
0.511747
2.50806e-06
0.51175
2.46501e-06
0.511754
2.28458e-06
0.511757
2.16083e-06
0.51176
2.23562e-06
0.511763
2.2098e-06
0.511766
2.02508e-06
0.51177
2.15673e-06
0.511773
2.43723e-06
0.511775
2.41519e-06
0.511779
2.22801e-06
0.511782
2.12912e-06
0.511785
2.28048e-06
0.511788
2.5478e-06
0.511791
2.83147e-06
0.511793
2.95469e-06
0.511796
2.52702e-06
0.511799
2.13976e-06
0.511802
2.3894e-06
0.511806
2.65421e-06
0.511809
2.61031e-06
0.511812
2.57412e-06
0.511815
2.65867e-06
0.511817
2.72834e-06
0.51182
2.68581e-06
0.511823
2.4643e-06
0.511826
2.02232e-06
0.51183
1.77928e-06
0.511833
2.06117e-06
0.511836
2.49464e-06
0.511838
2.72492e-06
0.51184
2.73904e-06
0.511843
2.72595e-06
0.511846
2.7581e-06
0.511848
2.70861e-06
0.511851
2.69586e-06
0.511854
2.84539e-06
0.511857
3.0325e-06
0.511859
3.10441e-06
0.511861
2.96526e-06
0.511864
2.64535e-06
0.511867
2.43648e-06
0.51187
2.47722e-06
0.511874
2.60153e-06
2.89167e-06
0.511139
1.66511e-07
0.511138
7.31897e-07
0.511139
1.24565e-06
0.51114
1.65001e-06
0.51114
1.88827e-06
0.511141
1.8838e-06
0.511141
1.96054e-06
0.511141
2.06536e-06
0.511141
2.02495e-06
0.511142
2.06487e-06
0.511142
2.27423e-06
0.511143
2.42174e-06
0.511144
2.50218e-06
0.511143
2.50778e-06
0.511143
2.47275e-06
0.511143
2.25264e-06
0.511143
1.86238e-06
0.511143
1.80751e-06
0.511143
2.04601e-06
0.511144
2.05021e-06
0.511144
1.78884e-06
0.511145
1.85473e-06
0.511145
2.30868e-06
0.511144
2.55248e-06
0.511144
2.49221e-06
0.511144
2.06368e-06
0.511146
1.58411e-06
0.511147
2.11227e-06
0.511148
2.81491e-06
0.511148
2.63659e-06
0.511149
2.41068e-06
0.511149
2.51178e-06
0.511149
2.32249e-06
0.511149
2.02923e-06
0.511148
2.15215e-06
0.511148
2.23168e-06
0.511148
1.84662e-06
0.511149
1.51008e-06
0.51115
1.59786e-06
0.511151
2.04957e-06
0.511151
2.23335e-06
0.511151
2.39727e-06
0.51115
3.02473e-06
0.51115
3.18985e-06
0.51115
2.77785e-06
0.511151
2.76698e-06
0.511151
2.92528e-06
0.511151
2.76457e-06
0.511151
2.32761e-06
0.511151
1.71759e-06
0.511153
1.52369e-06
0.511153
1.98595e-06
0.511152
2.20298e-06
0.511152
1.88593e-06
0.511152
1.75464e-06
0.511152
1.96463e-06
0.511152
2.30639e-06
0.511152
2.628e-06
0.511151
2.75575e-06
0.511151
2.78047e-06
0.511152
2.6749e-06
0.511152
2.50863e-06
0.511153
2.5067e-06
0.511154
2.41947e-06
0.511155
2.22891e-06
0.511155
2.26241e-06
0.511154
2.27749e-06
0.511154
2.03841e-06
0.511155
1.84932e-06
0.511155
1.78799e-06
0.511156
1.78939e-06
0.511156
1.75019e-06
0.511157
1.56771e-06
0.511157
1.78512e-06
0.511156
2.46749e-06
0.511156
2.75755e-06
0.511157
2.53241e-06
0.511158
2.2806e-06
0.511159
2.22525e-06
0.51116
2.25656e-06
0.51116
2.24174e-06
0.51116
2.3414e-06
0.51116
2.71192e-06
0.511159
3.15588e-06
0.511159
3.23396e-06
0.51116
2.9013e-06
0.51116
2.34414e-06
0.51116
1.86181e-06
0.51116
1.92546e-06
0.51116
2.22657e-06
0.511159
2.35046e-06
0.511159
2.39647e-06
0.511159
2.1791e-06
0.51116
1.7124e-06
0.511162
1.59682e-06
0.511163
2.09622e-06
0.511163
2.61192e-06
0.511163
2.58389e-06
0.511163
2.31233e-06
0.511162
2.19087e-06
0.511163
2.25848e-06
0.511163
2.41333e-06
0.511164
2.41385e-06
0.511164
2.06862e-06
0.511165
1.70659e-06
0.511166
1.66034e-06
0.511166
1.82747e-06
0.511166
2.289e-06
0.511166
2.80887e-06
0.511166
2.73273e-06
0.511166
2.29982e-06
0.511166
2.07173e-06
0.511167
2.01726e-06
0.511168
2.0254e-06
0.511168
2.10262e-06
0.511168
2.20828e-06
0.511168
2.26092e-06
0.511168
2.23114e-06
0.511168
2.15356e-06
0.511169
2.0015e-06
0.511169
1.92086e-06
0.51117
2.04969e-06
0.51117
2.19234e-06
0.51117
2.26499e-06
0.51117
2.32253e-06
0.51117
2.37358e-06
0.51117
2.51883e-06
0.51117
2.66927e-06
0.51117
2.82435e-06
0.51117
2.9376e-06
0.511171
2.7287e-06
0.511172
2.39479e-06
0.511172
2.46135e-06
0.511172
2.84607e-06
0.511172
3.0155e-06
0.511172
2.78551e-06
0.511173
2.52237e-06
0.511173
2.46504e-06
0.511173
2.37001e-06
0.511173
2.17915e-06
0.511172
2.10253e-06
0.511172
2.13388e-06
0.511171
2.24381e-06
0.511171
2.19448e-06
0.511171
1.95643e-06
0.511173
1.95503e-06
0.511174
1.95427e-06
0.511175
1.7929e-06
0.511176
1.88201e-06
0.511176
2.15363e-06
0.511176
2.55896e-06
0.511176
2.9594e-06
0.511175
2.92286e-06
0.511175
2.54559e-06
0.511175
2.16978e-06
0.511176
1.94547e-06
0.511177
1.88405e-06
0.511178
1.94018e-06
0.511177
2.04454e-06
0.511177
1.9796e-06
0.511177
1.70816e-06
0.511177
1.54018e-06
0.511178
1.58144e-06
0.511179
1.75543e-06
0.51118
2.16693e-06
0.51118
2.61021e-06
0.51118
2.78943e-06
0.51118
2.78061e-06
0.51118
2.55951e-06
0.51118
2.17398e-06
0.51118
2.03942e-06
0.511181
2.25378e-06
0.511181
2.37129e-06
0.511181
2.20201e-06
0.511181
2.14145e-06
0.511181
2.33243e-06
0.511182
2.55686e-06
0.511182
2.718e-06
0.511182
2.6727e-06
0.511182
2.35742e-06
0.511182
1.99315e-06
0.511183
1.86144e-06
0.511183
2.06655e-06
0.511184
2.29752e-06
0.511184
2.37011e-06
0.511184
2.51216e-06
0.511184
2.55319e-06
0.511184
2.35269e-06
0.511184
2.24948e-06
0.511184
2.16629e-06
0.511184
2.0232e-06
0.511185
2.01522e-06
0.511186
2.03816e-06
0.511186
2.08512e-06
0.511186
2.21498e-06
0.511186
2.43367e-06
0.511185
2.66073e-06
0.511185
2.58421e-06
0.511185
2.32055e-06
0.511186
2.17928e-06
0.511187
2.17967e-06
0.511188
2.37191e-06
0.511189
2.64364e-06
0.511188
2.75349e-06
0.511188
2.78432e-06
0.511188
2.81817e-06
0.511187
2.6903e-06
0.511187
2.4213e-06
0.511187
2.03838e-06
0.511188
1.63451e-06
0.511189
1.52211e-06
0.511189
1.56396e-06
0.51119
1.62271e-06
0.51119
1.84357e-06
0.511191
2.05781e-06
0.511191
2.11106e-06
0.511191
1.91653e-06
0.511192
1.64786e-06
0.511193
1.66585e-06
0.511193
2.02636e-06
0.511194
2.47767e-06
0.511194
2.63732e-06
0.511193
2.5269e-06
0.511193
2.41194e-06
0.511194
2.26887e-06
0.511194
2.22989e-06
0.511194
2.36084e-06
0.511194
2.52732e-06
0.511195
2.60642e-06
0.511195
2.35006e-06
0.511195
1.84696e-06
0.511196
1.44517e-06
0.511197
1.30306e-06
0.511197
1.505e-06
0.511198
1.96887e-06
0.511198
2.46147e-06
0.511198
2.8592e-06
0.511197
3.0938e-06
0.511197
3.06906e-06
0.511197
2.7954e-06
0.511197
2.41655e-06
0.511198
2.0732e-06
0.511199
2.03194e-06
0.5112
2.33633e-06
0.5112
2.6832e-06
0.5112
2.78746e-06
0.5112
2.53634e-06
0.5112
2.2528e-06
0.5112
2.3966e-06
2.6646e-06
0.511139
7.64403e-08
0.511139
6.35978e-07
0.51114
1.08929e-06
0.51114
1.31211e-06
0.51114
1.30256e-06
0.511141
1.29167e-06
0.511141
1.67192e-06
0.511141
2.06434e-06
0.511141
2.22626e-06
0.511141
2.07925e-06
0.511142
1.88173e-06
0.511142
2.07114e-06
0.511142
2.27028e-06
0.511143
2.04513e-06
0.511143
1.66829e-06
0.511144
1.72778e-06
0.511144
2.19014e-06
0.511143
2.28424e-06
0.511143
1.76141e-06
0.511144
1.58153e-06
0.511144
2.10188e-06
0.511143
1.91704e-06
0.511144
1.31293e-06
0.511145
1.53535e-06
0.511146
2.45527e-06
0.511145
2.97103e-06
0.511144
2.32389e-06
0.511144
1.54648e-06
0.511145
1.83447e-06
0.511146
2.34045e-06
0.511146
1.94736e-06
0.511147
1.38962e-06
0.511148
1.57853e-06
0.511148
2.08731e-06
0.511148
2.00693e-06
0.511149
1.47685e-06
0.511149
1.30144e-06
0.511149
1.70431e-06
0.511149
2.14104e-06
0.511149
2.21915e-06
0.511149
2.21134e-06
0.511148
2.49478e-06
0.511148
3.05675e-06
0.511148
3.36921e-06
0.511148
3.04032e-06
0.511148
2.29251e-06
0.51115
1.7095e-06
0.511151
1.71581e-06
0.511151
1.90698e-06
0.511151
1.73138e-06
0.511151
1.39352e-06
0.511152
1.26349e-06
0.511153
1.54243e-06
0.511153
1.89508e-06
0.511153
1.85047e-06
0.511153
1.74636e-06
0.511153
1.87017e-06
0.511154
2.18856e-06
0.511154
2.73079e-06
0.511153
3.08089e-06
0.511153
2.94553e-06
0.511153
2.64777e-06
0.511153
2.32763e-06
0.511154
1.90241e-06
0.511154
1.56767e-06
0.511155
1.54092e-06
0.511155
1.81265e-06
0.511155
2.01215e-06
0.511156
1.83915e-06
0.511156
1.50526e-06
0.511156
1.36216e-06
0.511157
1.40909e-06
0.511157
1.31461e-06
0.511157
1.33581e-06
0.511158
2.08384e-06
0.511158
2.873e-06
0.511157
2.66605e-06
0.511158
2.06795e-06
0.511158
2.02839e-06
0.511158
2.18483e-06
0.511158
2.18073e-06
0.511158
2.25382e-06
0.511158
2.37435e-06
0.511159
2.54399e-06
0.51116
2.67467e-06
0.51116
2.43508e-06
0.51116
2.04141e-06
0.51116
1.81953e-06
0.511161
1.63182e-06
0.511161
1.48515e-06
0.511162
1.77453e-06
0.511162
2.2759e-06
0.511162
2.20595e-06
0.511162
1.87366e-06
0.511162
1.93125e-06
0.511161
2.14801e-06
0.511162
2.087e-06
0.511163
1.81506e-06
0.511163
1.69236e-06
0.511164
1.79074e-06
0.511164
1.97333e-06
0.511164
2.14454e-06
0.511165
2.17347e-06
0.511165
2.07872e-06
0.511164
1.84185e-06
0.511165
1.59147e-06
0.511165
1.6081e-06
0.511165
1.83811e-06
0.511166
2.10369e-06
0.511166
2.25183e-06
0.511167
2.14078e-06
0.511167
1.99709e-06
0.511167
1.93089e-06
0.511167
1.78734e-06
0.511167
1.76727e-06
0.511168
1.85301e-06
0.511168
1.81993e-06
0.511169
1.7962e-06
0.511169
1.80685e-06
0.511169
1.86667e-06
0.511169
1.86218e-06
0.51117
1.59394e-06
0.51117
1.57497e-06
0.51117
2.06958e-06
0.51117
2.54791e-06
0.51117
2.73093e-06
0.51117
2.57565e-06
0.51117
2.3747e-06
0.51117
2.53878e-06
0.51117
2.75284e-06
0.51117
2.76506e-06
0.51117
2.7038e-06
0.51117
2.66549e-06
0.51117
2.72707e-06
0.51117
2.57031e-06
0.511171
2.17329e-06
0.511172
2.05742e-06
0.511172
2.18049e-06
0.511172
2.16208e-06
0.511172
1.97936e-06
0.511172
1.96542e-06
0.511172
2.13367e-06
0.511173
2.02035e-06
0.511173
1.81307e-06
0.511173
1.79377e-06
0.511173
1.65766e-06
0.511174
1.62277e-06
0.511174
1.90335e-06
0.511174
2.00615e-06
0.511174
1.91687e-06
0.511174
1.94079e-06
0.511175
1.96401e-06
0.511176
2.08094e-06
0.511176
2.31098e-06
0.511176
2.30538e-06
0.511176
2.01933e-06
0.511176
1.63956e-06
0.511177
1.42833e-06
0.511178
1.40268e-06
0.511178
1.37675e-06
0.511178
1.51836e-06
0.511178
1.78881e-06
0.511178
1.93933e-06
0.511178
1.99886e-06
0.511178
2.03007e-06
0.511178
2.18132e-06
0.511178
2.45411e-06
0.511179
2.495e-06
0.511179
2.2674e-06
0.511179
1.99302e-06
0.511179
1.80284e-06
0.51118
1.80629e-06
0.51118
1.95831e-06
0.51118
2.09123e-06
0.51118
2.21964e-06
0.51118
2.32246e-06
0.511181
2.30099e-06
0.511181
2.25661e-06
0.511181
2.27711e-06
0.511182
2.16894e-06
0.511182
1.86911e-06
0.511182
1.70812e-06
0.511182
1.80737e-06
0.511183
1.94306e-06
0.511183
2.1014e-06
0.511183
2.2333e-06
0.511184
2.09892e-06
0.511184
1.79898e-06
0.511185
1.59668e-06
0.511185
1.58883e-06
0.511186
1.82121e-06
0.511185
2.08864e-06
0.511185
2.08409e-06
0.511186
1.91517e-06
0.511186
1.76944e-06
0.511187
1.73359e-06
0.511188
1.89363e-06
0.511188
2.10046e-06
0.511188
2.22894e-06
0.511188
2.34056e-06
0.511188
2.43328e-06
0.511188
2.386e-06
0.511188
2.27399e-06
0.511188
2.34302e-06
0.511189
2.41319e-06
0.511189
2.25882e-06
0.51119
2.1113e-06
0.51119
2.10244e-06
0.51119
2.03163e-06
0.51119
1.84353e-06
0.51119
1.67173e-06
0.51119
1.50718e-06
0.51119
1.33885e-06
0.511191
1.28693e-06
0.511192
1.3674e-06
0.511192
1.45107e-06
0.511193
1.49728e-06
0.511193
1.68488e-06
0.511192
1.80638e-06
0.511193
1.62436e-06
0.511194
1.66078e-06
0.511194
2.09119e-06
0.511194
2.43574e-06
0.511194
2.57322e-06
0.511194
2.53482e-06
0.511194
2.33256e-06
0.511194
2.15481e-06
0.511194
2.18621e-06
0.511195
2.21546e-06
0.511195
1.96402e-06
0.511195
1.70652e-06
0.511195
1.6062e-06
0.511195
1.52538e-06
0.511195
1.57135e-06
0.511195
1.75922e-06
0.511195
1.97967e-06
0.511196
2.21312e-06
0.511197
2.44662e-06
0.511197
2.6572e-06
0.511197
2.77107e-06
0.511197
2.78572e-06
0.511196
2.63184e-06
0.511196
2.296e-06
0.511196
2.07112e-06
0.511197
2.09863e-06
0.511197
2.21822e-06
0.511198
2.21817e-06
0.511198
2.15048e-06
0.511198
2.26541e-06
2.4288e-06
0.511139
1.58282e-07
0.511139
5.80389e-07
0.51114
7.91696e-07
0.51114
6.93021e-07
0.511141
8.39651e-07
0.511141
1.28676e-06
0.511141
1.4478e-06
0.511141
1.58456e-06
0.511142
1.83169e-06
0.511142
1.94518e-06
0.511142
1.82006e-06
0.511142
1.66004e-06
0.511143
1.58397e-06
0.511143
1.73888e-06
0.511143
1.99364e-06
0.511143
2.02601e-06
0.511143
2.03369e-06
0.511143
2.09797e-06
0.511143
2.08232e-06
0.511143
1.68001e-06
0.511144
1.15781e-06
0.511144
1.27568e-06
0.511144
1.35611e-06
0.511144
1.35869e-06
0.511145
1.82942e-06
0.511146
2.02518e-06
0.511146
2.08351e-06
0.511146
2.0115e-06
0.511146
1.37836e-06
0.511147
1.30271e-06
0.511147
1.848e-06
0.511147
1.78295e-06
0.511147
1.2707e-06
0.511148
1.01141e-06
0.511149
1.17949e-06
0.511149
1.50884e-06
0.511149
1.6671e-06
0.511149
1.63807e-06
0.511149
1.62816e-06
0.51115
1.978e-06
0.511149
2.55243e-06
0.511149
2.75007e-06
0.511149
2.57824e-06
0.51115
2.37894e-06
0.511151
2.20418e-06
0.511151
2.0803e-06
0.511151
2.0933e-06
0.511151
2.20026e-06
0.51115
2.06338e-06
0.51115
1.64531e-06
0.511151
1.24343e-06
0.511151
9.64666e-07
0.511152
8.90403e-07
0.511152
1.24722e-06
0.511152
1.67163e-06
0.511152
1.69664e-06
0.511153
1.72487e-06
0.511153
2.03524e-06
0.511153
2.20705e-06
0.511154
2.2373e-06
0.511155
2.41482e-06
0.511155
2.45166e-06
0.511155
2.21546e-06
0.511155
2.06826e-06
0.511154
1.95706e-06
0.511154
1.61977e-06
0.511155
1.41219e-06
0.511155
1.49627e-06
0.511156
1.24528e-06
0.511157
7.57477e-07
0.511157
7.73398e-07
0.511158
1.09463e-06
0.511158
1.26383e-06
0.511157
1.54141e-06
0.511157
1.9483e-06
0.511158
2.13028e-06
0.511159
2.08658e-06
0.511159
1.86292e-06
0.511159
1.65708e-06
0.51116
1.82644e-06
0.51116
2.2672e-06
0.511159
2.66859e-06
0.511159
2.81034e-06
0.511159
2.71591e-06
0.511159
2.35272e-06
0.51116
1.749e-06
0.51116
1.45655e-06
0.511161
1.53539e-06
0.51116
1.66229e-06
0.51116
1.9306e-06
0.51116
2.04821e-06
0.51116
1.84436e-06
0.511161
1.67209e-06
0.511161
1.58817e-06
0.511161
1.5424e-06
0.511162
1.54054e-06
0.511163
1.44653e-06
0.511163
1.45794e-06
0.511163
1.82195e-06
0.511163
2.10049e-06
0.511162
2.04604e-06
0.511163
1.85234e-06
0.511163
1.58429e-06
0.511164
1.42843e-06
0.511164
1.51725e-06
0.511164
1.78773e-06
0.511164
2.04536e-06
0.511164
2.04687e-06
0.511164
1.7317e-06
0.511165
1.35732e-06
0.511166
1.40508e-06
0.511166
1.66271e-06
0.511166
1.66459e-06
0.511166
1.71999e-06
0.511166
1.78695e-06
0.511166
1.60716e-06
0.511167
1.514e-06
0.511167
1.49439e-06
0.511167
1.457e-06
0.511168
1.56193e-06
0.511168
1.68265e-06
0.511168
1.63457e-06
0.511168
1.43148e-06
0.511169
1.50205e-06
0.511169
1.89067e-06
0.51117
2.10219e-06
0.51117
2.41932e-06
0.511169
2.86187e-06
0.511169
2.71903e-06
0.51117
2.38593e-06
0.51117
2.45934e-06
0.51117
2.63031e-06
0.51117
2.73123e-06
0.51117
2.70812e-06
0.51117
2.43429e-06
0.51117
2.2649e-06
0.51117
2.32248e-06
0.51117
2.1797e-06
0.51117
1.78264e-06
0.511171
1.48229e-06
0.511171
1.3818e-06
0.511172
1.28397e-06
0.511173
1.30439e-06
0.511173
1.58143e-06
0.511173
1.73109e-06
0.511173
1.7294e-06
0.511173
1.63279e-06
0.511174
1.34842e-06
0.511174
1.35291e-06
0.511175
1.61609e-06
0.511175
1.70033e-06
0.511175
1.7853e-06
0.511175
1.82954e-06
0.511176
1.80979e-06
0.511176
1.84964e-06
0.511176
1.74859e-06
0.511177
1.43747e-06
0.511177
1.04038e-06
0.511178
7.96111e-07
0.511178
8.74713e-07
0.511178
1.1567e-06
0.511179
1.50211e-06
0.511179
1.86215e-06
0.511179
2.18045e-06
0.511178
2.40991e-06
0.511178
2.38438e-06
0.511178
2.04565e-06
0.511179
1.71632e-06
0.51118
1.71909e-06
0.51118
1.99918e-06
0.511179
2.15332e-06
0.511179
1.88021e-06
0.51118
1.64375e-06
0.51118
1.80461e-06
0.51118
2.01541e-06
0.51118
2.04184e-06
0.511181
1.94888e-06
0.511181
1.79854e-06
0.511182
1.6767e-06
0.511182
1.74746e-06
0.511182
1.98152e-06
0.511182
2.09041e-06
0.511181
2.11754e-06
0.511181
2.15988e-06
0.511181
1.92151e-06
0.511182
1.6251e-06
0.511182
1.66686e-06
0.511183
1.63529e-06
0.511183
1.46521e-06
0.511183
1.4674e-06
0.511183
1.45086e-06
0.511184
1.39315e-06
0.511185
1.51023e-06
0.511185
1.6914e-06
0.511185
1.76036e-06
0.511185
1.77912e-06
0.511185
1.82675e-06
0.511185
1.83145e-06
0.511185
1.90864e-06
0.511186
2.12052e-06
0.511186
2.19906e-06
0.511186
2.16725e-06
0.511186
2.22232e-06
0.511186
2.27188e-06
0.511186
2.24758e-06
0.511186
2.16929e-06
0.511187
2.00433e-06
0.511187
1.88888e-06
0.511187
1.80646e-06
0.511187
1.47002e-06
0.511188
1.13449e-06
0.511188
1.08076e-06
0.511189
1.07182e-06
0.511189
1.04874e-06
0.511189
9.21563e-07
0.51119
7.06357e-07
0.511191
7.0067e-07
0.511192
1.00103e-06
0.511192
1.41335e-06
0.511192
1.59501e-06
0.511192
1.68166e-06
0.511192
1.92857e-06
0.511192
2.06379e-06
0.511193
2.11063e-06
0.511193
2.19283e-06
0.511193
2.24025e-06
0.511193
2.30202e-06
0.511193
2.13668e-06
0.511194
1.68087e-06
0.511194
1.37142e-06
0.511195
1.35747e-06
0.511195
1.45741e-06
0.511195
1.4652e-06
0.511195
1.37939e-06
0.511195
1.40206e-06
0.511196
1.61855e-06
0.511196
1.94392e-06
0.511196
2.22054e-06
0.511197
2.38957e-06
0.511197
2.43995e-06
0.511197
2.40499e-06
0.511198
2.3692e-06
0.511198
2.30893e-06
0.511197
2.20405e-06
0.511197
2.09869e-06
0.511198
1.98458e-06
0.511198
1.91957e-06
0.511198
2.03507e-06
0.511198
2.18435e-06
2.18532e-06
0.51114
1.26558e-07
0.51114
1.34772e-07
0.511141
1.55961e-07
0.511141
5.23299e-07
0.511141
1.23092e-06
0.51114
1.49485e-06
0.511141
1.29396e-06
0.511141
1.19608e-06
0.511141
1.23929e-06
0.511142
1.37521e-06
0.511142
1.56475e-06
0.511142
1.6256e-06
0.511142
1.57059e-06
0.511142
1.72756e-06
0.511142
1.98577e-06
0.511143
1.69373e-06
0.511143
1.41251e-06
0.511144
1.43776e-06
0.511145
1.32703e-06
0.511145
1.28385e-06
0.511145
1.12807e-06
0.511146
9.12834e-07
0.511146
1.2066e-06
0.511146
1.49021e-06
0.511146
1.43491e-06
0.511146
1.75284e-06
0.511146
1.93697e-06
0.511147
1.55999e-06
0.511147
1.52575e-06
0.511146
1.6333e-06
0.511147
1.46327e-06
0.511147
1.48692e-06
0.511147
1.49913e-06
0.511147
1.17515e-06
0.511147
7.08515e-07
0.511148
7.23307e-07
0.511148
1.3726e-06
0.511148
1.67384e-06
0.511148
1.55709e-06
0.511149
1.63527e-06
0.511149
2.24055e-06
0.511149
2.87544e-06
0.511149
2.66985e-06
0.511149
2.12661e-06
0.511149
1.87383e-06
0.51115
1.61585e-06
0.51115
1.32476e-06
0.511151
1.28521e-06
0.511152
1.42806e-06
0.511152
1.50307e-06
0.511152
1.37934e-06
0.511152
1.20544e-06
0.511151
1.32971e-06
0.511151
1.58523e-06
0.511151
1.51404e-06
0.511151
1.43048e-06
0.511152
1.51604e-06
0.511152
1.54818e-06
0.511153
1.67683e-06
0.511153
1.9189e-06
0.511153
2.07469e-06
0.511154
2.00741e-06
0.511154
1.76674e-06
0.511155
1.59912e-06
0.511155
1.43479e-06
0.511156
1.20157e-06
0.511156
1.1012e-06
0.511156
1.05073e-06
0.511157
1.02406e-06
0.511156
1.06388e-06
0.511156
8.73248e-07
0.511156
7.98409e-07
0.511156
1.31609e-06
0.511156
1.75109e-06
0.511157
1.56548e-06
0.511157
1.33162e-06
0.511158
1.51277e-06
0.511158
1.81941e-06
0.511158
2.0577e-06
0.511157
2.17021e-06
0.511157
2.11757e-06
0.511158
2.35909e-06
0.511158
2.65686e-06
0.511158
2.31077e-06
0.511159
1.80297e-06
0.511159
1.57404e-06
0.511159
1.44749e-06
0.511159
1.47776e-06
0.511159
1.62382e-06
0.511159
1.71942e-06
0.51116
1.61345e-06
0.51116
1.34439e-06
0.511161
1.25836e-06
0.511161
1.48929e-06
0.511161
1.60631e-06
0.511161
1.43971e-06
0.511161
1.32647e-06
0.511161
1.25926e-06
0.511162
1.28929e-06
0.511162
1.54179e-06
0.511163
1.70632e-06
0.511163
1.64642e-06
0.511163
1.4801e-06
0.511163
1.34849e-06
0.511163
1.41055e-06
0.511163
1.65766e-06
0.511163
1.88464e-06
0.511164
1.72162e-06
0.511164
1.24416e-06
0.511165
1.03188e-06
0.511165
1.08976e-06
0.511165
1.05191e-06
0.511166
1.08036e-06
0.511166
1.2515e-06
0.511167
1.25586e-06
0.511167
1.29785e-06
0.511167
1.47978e-06
0.511167
1.40403e-06
0.511168
1.18783e-06
0.511168
1.09163e-06
0.511169
1.05167e-06
0.511169
1.15692e-06
0.511169
1.53466e-06
0.511169
1.96087e-06
0.511169
2.06123e-06
0.511169
1.98711e-06
0.511169
2.11892e-06
0.51117
2.27694e-06
0.51117
2.28378e-06
0.51117
2.25036e-06
0.51117
2.27883e-06
0.51117
2.49387e-06
0.511171
2.52604e-06
0.511171
2.14548e-06
0.511172
1.88262e-06
0.511172
1.91866e-06
0.511173
1.89095e-06
0.511173
1.74211e-06
0.511173
1.80918e-06
0.511172
1.96907e-06
0.511172
1.81537e-06
0.511172
1.55738e-06
0.511172
1.24215e-06
0.511173
8.73434e-07
0.511173
9.49273e-07
0.511174
1.27761e-06
0.511174
1.22333e-06
0.511174
1.20824e-06
0.511174
1.48162e-06
0.511174
1.57652e-06
0.511174
1.5618e-06
0.511175
1.55134e-06
0.511175
1.33231e-06
0.511176