/*--------------------------------*- C++ -*----------------------------------*\
| =========                 |                                                 |
| \\      /  F ield         | OpenFOAM: The Open Source CFD Toolbox           |
|  \\    /   O peration     | Version:  2406                                  |
|   \\  /    A nd           | Website:  www.openfoam.com                      |
|    \\/     M anipulation  |                                                 |
\*---------------------------------------------------------------------------*/
FoamFile
{
    version     2.0;
    format      ascii;
    arch        "LSB;label=32;scalar=64";
    class       volVectorField;
    location    "2.05";
    object      U;
}
// * * * * * * * * * * * * * * * * * * * * * * * * * * * * * * * * * * * * * //

dimensions      [0 1 -1 0 0 0 0];

internalField   nonuniform List<vector> 
6250
(
(50.5473 9.2911e-05 0)
(85.4612 0.000513844 0)
(73.2904 0.000815555 0)
(60.6432 0.00082325 0)
(59.8982 0.000715103 0)
(63.3577 0.00066993 0)
(64.8674 0.000686713 0)
(64.4161 0.000708831 0)
(63.799 0.000728395 0)
(63.6964 0.000757854 0)
(63.8388 0.00077634 0)
(63.9231 0.00076532 0)
(63.9126 0.000768374 0)
(63.8831 0.000813435 0)
(63.8742 0.00087285 0)
(63.8789 0.000905437 0)
(63.8827 0.000897137 0)
(63.8821 0.00088448 0)
(63.8802 0.000890415 0)
(63.879 0.00089388 0)
(63.8784 0.000873766 0)
(63.878 0.000846953 0)
(63.8774 0.000855406 0)
(63.8766 0.000884839 0)
(63.8758 0.000884312 0)
(63.8752 0.000867972 0)
(63.8745 0.000875775 0)
(63.8737 0.000884474 0)
(63.873 0.00085534 0)
(63.8723 0.00080736 0)
(63.8717 0.000804824 0)
(63.8711 0.000861766 0)
(63.8703 0.000921084 0)
(63.8696 0.000964164 0)
(63.8689 0.00100689 0)
(63.8681 0.00102923 0)
(63.8674 0.00101611 0)
(63.8667 0.000955459 0)
(63.8661 0.000837936 0)
(63.8657 0.000732048 0)
(63.8651 0.000708394 0)
(63.8645 0.00074502 0)
(63.8639 0.000799436 0)
(63.8632 0.000857552 0)
(63.8624 0.000893388 0)
(63.8617 0.000894932 0)
(63.8609 0.000903647 0)
(63.8601 0.000936726 0)
(63.8594 0.000968229 0)
(63.8588 0.000984729 0)
(63.8582 0.000984925 0)
(63.8575 0.000986103 0)
(63.8568 0.000998145 0)
(63.8562 0.00101838 0)
(63.8555 0.00103227 0)
(63.8548 0.00099667 0)
(63.8542 0.000916593 0)
(63.8536 0.000842378 0)
(63.853 0.000812209 0)
(63.8524 0.00083743 0)
(63.8516 0.000874157 0)
(63.8509 0.000880657 0)
(63.8502 0.000866877 0)
(63.8494 0.000860626 0)
(63.8487 0.000878015 0)
(63.848 0.000910888 0)
(63.8473 0.000953227 0)
(63.8466 0.00100957 0)
(63.8459 0.0010613 0)
(63.8451 0.00107213 0)
(63.8444 0.00103338 0)
(63.8438 0.000969369 0)
(63.8432 0.000910408 0)
(63.8426 0.000869424 0)
(63.8419 0.000837641 0)
(63.8413 0.000833827 0)
(63.8407 0.000880581 0)
(63.8399 0.000920315 0)
(63.8392 0.000884779 0)
(63.8386 0.000818519 0)
(63.838 0.000808421 0)
(63.8374 0.000855663 0)
(63.8367 0.000921799 0)
(63.8359 0.000976796 0)
(63.8351 0.00100135 0)
(63.8344 0.00101532 0)
(63.8336 0.00103179 0)
(63.8329 0.00104588 0)
(63.8322 0.00105777 0)
(63.8314 0.00106178 0)
(63.8307 0.00106105 0)
(63.8301 0.00105353 0)
(63.8294 0.00102815 0)
(63.8288 0.000975523 0)
(63.828 0.000890868 0)
(63.8274 0.000809754 0)
(63.8269 0.000795378 0)
(63.8263 0.000855533 0)
(63.8256 0.000929409 0)
(63.8249 0.00097142 0)
(63.8242 0.000971024 0)
(63.8235 0.000935595 0)
(63.8228 0.000905335 0)
(63.8221 0.000907947 0)
(63.8214 0.000934291 0)
(63.8207 0.000963161 0)
(63.82 0.000969615 0)
(63.8194 0.000958059 0)
(63.8187 0.000955354 0)
(63.818 0.000970768 0)
(63.8173 0.00099028 0)
(63.8166 0.000983897 0)
(63.8159 0.000949671 0)
(63.8152 0.000924631 0)
(63.8145 0.000919405 0)
(63.8139 0.000927804 0)
(63.8133 0.000961277 0)
(63.8125 0.00101047 0)
(63.8118 0.00104184 0)
(63.811 0.00102867 0)
(63.8103 0.000989904 0)
(63.8097 0.000983499 0)
(63.809 0.00101388 0)
(63.8083 0.00103409 0)
(63.8077 0.00102601 0)
(63.807 0.000995088 0)
(63.8063 0.000948904 0)
(63.8056 0.000896874 0)
(63.805 0.000844737 0)
(63.8044 0.0008053 0)
(63.8038 0.00080508 0)
(63.8031 0.00086003 0)
(63.8024 0.000932868 0)
(63.8016 0.000972446 0)
(63.8009 0.000991568 0)
(63.8001 0.00100301 0)
(63.7995 0.000989217 0)
(63.7989 0.00097469 0)
(63.7982 0.000981782 0)
(63.7975 0.000999002 0)
(63.7969 0.00101518 0)
(63.7962 0.00102336 0)
(63.7956 0.00103796 0)
(63.7948 0.00104752 0)
(63.794 0.00100207 0)
(63.7934 0.000910773 0)
(63.7928 0.000835527 0)
(63.7922 0.000808378 0)
(63.7916 0.000830078 0)
(63.7909 0.000884625 0)
(63.7902 0.000939548 0)
(63.7894 0.000984249 0)
(63.7887 0.0010287 0)
(63.788 0.00106533 0)
(63.7873 0.00107552 0)
(63.7865 0.00104774 0)
(63.7858 0.000993755 0)
(63.7852 0.000948123 0)
(63.7846 0.00094051 0)
(63.784 0.000974487 0)
(63.7833 0.00101503 0)
(63.7826 0.00102046 0)
(63.7819 0.000978125 0)
(63.7812 0.000906503 0)
(63.7807 0.000842799 0)
(63.7801 0.000821916 0)
(63.7795 0.000865245 0)
(63.7788 0.000951892 0)
(63.778 0.00102252 0)
(63.7773 0.00103479 0)
(63.7766 0.000995154 0)
(63.7759 0.000951141 0)
(63.7752 0.000935265 0)
(63.7746 0.000942912 0)
(63.774 0.000962289 0)
(63.7733 0.000976328 0)
(63.7726 0.000973744 0)
(63.7719 0.000960844 0)
(63.7713 0.000942329 0)
(63.7706 0.000930022 0)
(63.77 0.000946795 0)
(63.7692 0.000975215 0)
(63.7685 0.000979866 0)
(63.7678 0.000982806 0)
(63.7671 0.00101555 0)
(63.7664 0.00106271 0)
(63.7657 0.00110481 0)
(63.7649 0.00113142 0)
(63.7642 0.0011224 0)
(63.7634 0.00107601 0)
(63.7628 0.00102064 0)
(63.7622 0.000977001 0)
(63.7616 0.000948772 0)
(63.761 0.000939537 0)
(63.7603 0.00095021 0)
(63.7596 0.000970659 0)
(63.7589 0.000996136 0)
(63.7582 0.00102472 0)
(63.7575 0.00102487 0)
(63.7568 0.000971182 0)
(63.7561 0.000895562 0)
(63.7555 0.000859787 0)
(63.7548 0.000898804 0)
(63.7541 0.000981571 0)
(63.7534 0.00104957 0)
(63.7526 0.001079 0)
(63.7519 0.00107586 0)
(63.7512 0.00105468 0)
(63.7505 0.00103134 0)
(63.7498 0.00101337 0)
(63.7491 0.000995188 0)
(63.7485 0.000985076 0)
(63.7478 0.000992993 0)
(63.7471 0.000994845 0)
(63.7465 0.000978572 0)
(63.7458 0.000964528 0)
(63.7452 0.000974226 0)
(63.7445 0.00100078 0)
(63.7437 0.00100771 0)
(63.7431 0.000984541 0)
(63.7424 0.000951842 0)
(63.7417 0.000939834 0)
(63.7411 0.000965921 0)
(63.7404 0.00100345 0)
(63.7396 0.00102497 0)
(63.7389 0.00102162 0)
(63.7382 0.00099483 0)
(63.7375 0.000966377 0)
(63.7369 0.000947758 0)
(63.7362 0.000940108 0)
(63.7356 0.000950179 0)
(63.7348 0.000974093 0)
(63.7341 0.000992863 0)
(63.7335 0.000988929 0)
(63.7328 0.000967918 0)
(63.7322 0.000946493 0)
(63.7316 0.000935879 0)
(63.7309 0.000937889 0)
(63.7302 0.000943278 0)
(63.7296 0.000954271 0)
(63.7289 0.000965514 0)
(63.7282 0.000959611 0)
(63.7275 0.000943089 0)
(63.7268 0.000923261 0)
(63.7261 0.000910951 0)
(63.7255 0.000925834 0)
(63.7248 0.000973594 0)
(63.7241 0.00102326 0)
(63.7234 0.00107463 0)
(63.7223 0.00103676 0)
(50.5475 6.86414e-05 0)
(85.4624 0.000398582 0)
(73.2935 0.000647343 0)
(60.6479 0.000638693 0)
(59.9037 0.000530637 0)
(63.3637 0.000493993 0)
(64.8744 0.000495753 0)
(64.4241 0.000487302 0)
(63.8079 0.000489136 0)
(63.7063 0.000529098 0)
(63.8499 0.000579639 0)
(63.9351 0.000573227 0)
(63.9255 0.000533548 0)
(63.897 0.000512829 0)
(63.8893 0.000511516 0)
(63.8951 0.0005022 0)
(63.9001 0.000465465 0)
(63.9006 0.000440377 0)
(63.8998 0.000455332 0)
(63.8997 0.000476747 0)
(63.9002 0.000479359 0)
(63.9008 0.000467337 0)
(63.9012 0.000473762 0)
(63.9016 0.000485384 0)
(63.902 0.000451869 0)
(63.9024 0.000464166 0)
(63.9028 0.000578607 0)
(63.9031 0.000651247 0)
(63.9035 0.000607829 0)
(63.9037 0.000519876 0)
(63.9039 0.000474692 0)
(63.9042 0.000479885 0)
(63.9047 0.000469887 0)
(63.9051 0.000438715 0)
(63.9056 0.000423254 0)
(63.9062 0.000416094 0)
(63.9066 0.000399372 0)
(63.907 0.000381635 0)
(63.9073 0.000373089 0)
(63.9074 0.000376213 0)
(63.9076 0.000393603 0)
(63.908 0.000427027 0)
(63.9084 0.000482295 0)
(63.9086 0.000553674 0)
(63.909 0.000597747 0)
(63.9094 0.000592917 0)
(63.9097 0.000552943 0)
(63.9101 0.000465868 0)
(63.9106 0.000377177 0)
(63.9109 0.000373636 0)
(63.9112 0.000403224 0)
(63.9116 0.000370789 0)
(63.9121 0.000306268 0)
(63.9125 0.000286511 0)
(63.913 0.000316995 0)
(63.9135 0.000343007 0)
(63.9138 0.000346887 0)
(63.9141 0.000355199 0)
(63.9144 0.000395595 0)
(63.9147 0.000477375 0)
(63.9151 0.000558262 0)
(63.9154 0.000598857 0)
(63.9157 0.000599975 0)
(63.916 0.000560284 0)
(63.9163 0.000491811 0)
(63.9168 0.000429617 0)
(63.9172 0.000401894 0)
(63.9176 0.000411352 0)
(63.9181 0.000433807 0)
(63.9186 0.000434591 0)
(63.9189 0.00039392 0)
(63.9193 0.000334644 0)
(63.9197 0.000312956 0)
(63.9201 0.0003337 0)
(63.9204 0.000353448 0)
(63.9207 0.000401653 0)
(63.9211 0.000506006 0)
(63.9214 0.00057346 0)
(63.9218 0.000526479 0)
(63.9219 0.000434152 0)
(63.9221 0.000402579 0)
(63.9224 0.000420553 0)
(63.9228 0.000449428 0)
(63.9233 0.000493611 0)
(63.9237 0.000518116 0)
(63.924 0.00050161 0)
(63.9245 0.000458708 0)
(63.9249 0.000405997 0)
(63.9254 0.000365527 0)
(63.9259 0.000336991 0)
(63.9263 0.000318965 0)
(63.9268 0.000319762 0)
(63.9271 0.000357991 0)
(63.9275 0.000425077 0)
(63.9277 0.000449668 0)
(63.928 0.000411014 0)
(63.9282 0.000378196 0)
(63.9284 0.000386689 0)
(63.9289 0.000398711 0)
(63.9294 0.000404128 0)
(63.9298 0.000427355 0)
(63.9302 0.000449309 0)
(63.9304 0.000452164 0)
(63.9308 0.000448002 0)
(63.9311 0.000447215 0)
(63.9315 0.000445343 0)
(63.932 0.000421836 0)
(63.9323 0.000383218 0)
(63.9327 0.000365605 0)
(63.9331 0.000385488 0)
(63.9334 0.000420103 0)
(63.9339 0.000437939 0)
(63.9342 0.00044418 0)
(63.9346 0.000444754 0)
(63.935 0.000419979 0)
(63.9353 0.000382998 0)
(63.9356 0.000372613 0)
(63.9361 0.000393354 0)
(63.9366 0.000414527 0)
(63.937 0.000405171 0)
(63.9374 0.000379612 0)
(63.9377 0.000374644 0)
(63.9381 0.000376133 0)
(63.9385 0.000351967 0)
(63.9389 0.000328203 0)
(63.9393 0.00034435 0)
(63.9397 0.000380249 0)
(63.94 0.000405268 0)
(63.9403 0.000425136 0)
(63.9405 0.000444671 0)
(63.9406 0.00046643 0)
(63.9409 0.000491513 0)
(63.9413 0.000501861 0)
(63.9418 0.000491423 0)
(63.9421 0.000474787 0)
(63.9424 0.000442639 0)
(63.9428 0.000382908 0)
(63.943 0.000332688 0)
(63.9434 0.000318012 0)
(63.9437 0.0003138 0)
(63.9441 0.000293635 0)
(63.9446 0.000280493 0)
(63.9451 0.00032917 0)
(63.9456 0.000410751 0)
(63.9461 0.0004421 0)
(63.9465 0.000426647 0)
(63.9466 0.00041752 0)
(63.9468 0.000423965 0)
(63.9471 0.00043221 0)
(63.9474 0.000452072 0)
(63.9478 0.000466776 0)
(63.9482 0.000439543 0)
(63.9487 0.000399113 0)
(63.9491 0.000380805 0)
(63.9495 0.000386063 0)
(63.95 0.000408604 0)
(63.9503 0.000411587 0)
(63.9506 0.000366805 0)
(63.951 0.00030472 0)
(63.9513 0.000276623 0)
(63.9518 0.000298337 0)
(63.9523 0.000342807 0)
(63.9527 0.000375932 0)
(63.953 0.000387781 0)
(63.9533 0.000388225 0)
(63.9535 0.000387844 0)
(63.9537 0.000401136 0)
(63.9541 0.000424012 0)
(63.9545 0.000430687 0)
(63.955 0.000414087 0)
(63.9554 0.000391006 0)
(63.9558 0.000381919 0)
(63.9561 0.000380144 0)
(63.9564 0.000374326 0)
(63.9568 0.000376008 0)
(63.9572 0.000379336 0)
(63.9575 0.000375883 0)
(63.9578 0.000371748 0)
(63.9581 0.00036313 0)
(63.9584 0.000362038 0)
(63.9588 0.00039162 0)
(63.9593 0.000430245 0)
(63.9597 0.000435734 0)
(63.96 0.000413245 0)
(63.9603 0.000390896 0)
(63.9607 0.00036909 0)
(63.9611 0.000350273 0)
(63.9616 0.000345386 0)
(63.9622 0.00033454 0)
(63.9626 0.000312721 0)
(63.9629 0.000312685 0)
(63.9632 0.000333624 0)
(63.9635 0.000350898 0)
(63.9638 0.000350305 0)
(63.9641 0.000332105 0)
(63.9646 0.000320963 0)
(63.965 0.000331963 0)
(63.9653 0.000369913 0)
(63.9658 0.000424005 0)
(63.9661 0.000457397 0)
(63.9664 0.000459633 0)
(63.9666 0.000447838 0)
(63.9669 0.000435538 0)
(63.9673 0.000424145 0)
(63.9677 0.000410754 0)
(63.9682 0.000397087 0)
(63.9686 0.000376993 0)
(63.969 0.000349354 0)
(63.9694 0.000335124 0)
(63.9698 0.000347347 0)
(63.9702 0.000352039 0)
(63.9706 0.000339534 0)
(63.971 0.000353559 0)
(63.9714 0.000376439 0)
(63.9717 0.000366549 0)
(63.9721 0.000341185 0)
(63.9725 0.000338913 0)
(63.9729 0.000374072 0)
(63.9733 0.000409406 0)
(63.9737 0.000422823 0)
(63.974 0.000411731 0)
(63.9742 0.000369588 0)
(63.9747 0.000349476 0)
(63.9752 0.000383484 0)
(63.9755 0.000426776 0)
(63.9759 0.000438413 0)
(63.9763 0.000419797 0)
(63.9767 0.000401246 0)
(63.977 0.000388479 0)
(63.9773 0.000377377 0)
(63.9776 0.000376419 0)
(63.978 0.000371191 0)
(63.9785 0.000358863 0)
(63.979 0.000354481 0)
(63.9793 0.000356189 0)
(63.9796 0.000356808 0)
(63.9799 0.000356358 0)
(63.9802 0.000361521 0)
(63.9805 0.00037118 0)
(63.9809 0.000387219 0)
(63.9812 0.00041514 0)
(63.9816 0.000446647 0)
(63.9819 0.000470888 0)
(63.9822 0.000463077 0)
(63.9825 0.000416846 0)
(63.9828 0.000369371 0)
(63.9832 0.000364959 0)
(63.9836 0.000396837 0)
(63.984 0.00044789 0)
(63.9846 0.000415651 0)
(50.5474 6.58549e-06 0)
(85.4619 6.8256e-06 0)
(73.2921 3.80683e-06 0)
(60.6459 3.60894e-05 0)
(59.9015 8.74548e-05 0)
(63.3615 0.00012258 0)
(64.8721 0.000120836 0)
(64.4213 0.00010047 0)
(63.8049 8.80779e-05 0)
(63.7028 0.000115644 0)
(63.8461 0.000178228 0)
(63.9311 0.000214173 0)
(63.9214 0.000201401 0)
(63.8925 0.000164119 0)
(63.8844 0.000132061 0)
(63.8897 0.000103589 0)
(63.8942 6.68139e-05 0)
(63.8944 5.79572e-05 0)
(63.8931 0.000104201 0)
(63.8926 0.00015168 0)
(63.8928 0.000145074 0)
(63.8931 0.000118402 0)
(63.8932 0.000133034 0)
(63.8931 0.00016096 0)
(63.8931 0.000144995 0)
(63.8929 0.000115695 0)
(63.8931 0.000130796 0)
(63.8935 0.000189873 0)
(63.8934 0.00024856 0)
(63.8934 0.000247424 0)
(63.8936 0.000205283 0)
(63.8936 0.000181736 0)
(63.8936 0.000156821 0)
(63.8936 0.000116367 0)
(63.8935 0.000110187 0)
(63.8935 0.000132568 0)
(63.8935 0.000123835 0)
(63.8935 0.000104919 0)
(63.8937 0.000137327 0)
(63.8939 0.000191848 0)
(63.8938 0.000203994 0)
(63.8938 0.000205439 0)
(63.8938 0.000244537 0)
(63.8937 0.000259647 0)
(63.8938 0.000235218 0)
(63.8939 0.000252352 0)
(63.8939 0.00028462 0)
(63.8939 0.000248088 0)
(63.8938 0.000183557 0)
(63.8938 0.000165597 0)
(63.8941 0.000177831 0)
(63.8942 0.000172726 0)
(63.894 0.00014002 0)
(63.894 0.000103073 0)
(63.894 9.78831e-05 0)
(63.894 0.0001352 0)
(63.894 0.000189487 0)
(63.894 0.000225996 0)
(63.8939 0.00023348 0)
(63.8939 0.000231569 0)
(63.8939 0.000232591 0)
(63.894 0.000248781 0)
(63.8941 0.000280828 0)
(63.8942 0.000276664 0)
(63.8943 0.000223837 0)
(63.8944 0.000182852 0)
(63.8943 0.000163328 0)
(63.8943 0.000133804 0)
(63.8943 0.000110696 0)
(63.8944 0.000111227 0)
(63.8945 0.000119958 0)
(63.8945 0.000125412 0)
(63.8945 0.00013609 0)
(63.8946 0.000174865 0)
(63.8946 0.000230908 0)
(63.8945 0.000268365 0)
(63.8945 0.000277901 0)
(63.8947 0.000273296 0)
(63.8948 0.000268675 0)
(63.8949 0.000258913 0)
(63.895 0.000241973 0)
(63.8951 0.000220387 0)
(63.895 0.000218762 0)
(63.8949 0.000269052 0)
(63.8949 0.000314766 0)
(63.8949 0.000296168 0)
(63.895 0.00022595 0)
(63.895 0.000146754 0)
(63.8951 0.000120836 0)
(63.895 0.000148103 0)
(63.8949 0.000175891 0)
(63.8949 0.000183683 0)
(63.8948 0.000187982 0)
(63.8949 0.000213137 0)
(63.8952 0.000248077 0)
(63.8954 0.000279166 0)
(63.8954 0.000293938 0)
(63.8954 0.00026439 0)
(63.8954 0.000203333 0)
(63.8953 0.000172526 0)
(63.8953 0.000207678 0)
(63.8954 0.000263332 0)
(63.8954 0.000270332 0)
(63.8955 0.000218563 0)
(63.8956 0.000162512 0)
(63.8957 0.000148788 0)
(63.8958 0.00016681 0)
(63.8958 0.000206727 0)
(63.8958 0.000253355 0)
(63.8957 0.000257134 0)
(63.8957 0.000213012 0)
(63.8958 0.000180589 0)
(63.8958 0.000196805 0)
(63.8959 0.000225886 0)
(63.896 0.000232216 0)
(63.896 0.000228272 0)
(63.896 0.000220712 0)
(63.896 0.000210269 0)
(63.896 0.000201794 0)
(63.8961 0.000191336 0)
(63.8961 0.000193197 0)
(63.8962 0.000211859 0)
(63.8963 0.000220363 0)
(63.8963 0.00020714 0)
(63.8962 0.000189849 0)
(63.8962 0.00019981 0)
(63.8962 0.000235839 0)
(63.8962 0.000278504 0)
(63.8962 0.000336506 0)
(63.8963 0.000382762 0)
(63.8963 0.000363528 0)
(63.8964 0.000293399 0)
(63.8965 0.000249699 0)
(63.8965 0.00027906 0)
(63.8965 0.000323552 0)
(63.8965 0.000314921 0)
(63.8966 0.000279187 0)
(63.8966 0.000260272 0)
(63.8966 0.000247344 0)
(63.8966 0.000214323 0)
(63.8966 0.000156727 0)
(63.8965 0.000110592 0)
(63.8964 0.000125657 0)
(63.8963 0.000174341 0)
(63.8964 0.000212675 0)
(63.8965 0.000256418 0)
(63.8966 0.00028597 0)
(63.8968 0.000269004 0)
(63.8969 0.000229412 0)
(63.897 0.000218599 0)
(63.8971 0.000254609 0)
(63.897 0.000283104 0)
(63.8969 0.00027169 0)
(63.8969 0.000234525 0)
(63.8969 0.00019527 0)
(63.8969 0.000195143 0)
(63.8971 0.00022165 0)
(63.8972 0.000227086 0)
(63.8972 0.000204728 0)
(63.8972 0.000164467 0)
(63.8971 0.000131969 0)
(63.8971 0.000136853 0)
(63.8972 0.000172633 0)
(63.8973 0.000222094 0)
(63.8974 0.000279642 0)
(63.8975 0.000321816 0)
(63.8975 0.000324137 0)
(63.8975 0.000292789 0)
(63.8975 0.000243465 0)
(63.8975 0.000201552 0)
(63.8975 0.000201779 0)
(63.8976 0.000241252 0)
(63.8976 0.000262555 0)
(63.8976 0.00023934 0)
(63.8977 0.000222307 0)
(63.8977 0.000242682 0)
(63.8977 0.000283597 0)
(63.8977 0.000317777 0)
(63.8977 0.000310743 0)
(63.8977 0.000261885 0)
(63.8978 0.00021351 0)
(63.8978 0.000209081 0)
(63.8979 0.000253195 0)
(63.8979 0.000293624 0)
(63.898 0.000293766 0)
(63.8981 0.000273424 0)
(63.898 0.000246563 0)
(63.898 0.000225413 0)
(63.898 0.000224919 0)
(63.8979 0.000231831 0)
(63.898 0.000245106 0)
(63.8981 0.000264318 0)
(63.8981 0.000275912 0)
(63.8982 0.000278952 0)
(63.8983 0.000270825 0)
(63.8982 0.000267362 0)
(63.8982 0.000267764 0)
(63.8981 0.000251858 0)
(63.8981 0.00024692 0)
(63.8982 0.000271637 0)
(63.8984 0.000306179 0)
(63.8985 0.000326848 0)
(63.8986 0.000313812 0)
(63.8986 0.000275772 0)
(63.8985 0.000249736 0)
(63.8985 0.000251175 0)
(63.8984 0.00025304 0)
(63.8984 0.000235598 0)
(63.8984 0.000203953 0)
(63.8984 0.000178276 0)
(63.8986 0.000168627 0)
(63.8986 0.000162546 0)
(63.8987 0.000179972 0)
(63.8988 0.000221269 0)
(63.8988 0.00024405 0)
(63.8989 0.000238122 0)
(63.8988 0.000210229 0)
(63.8989 0.000184651 0)
(63.899 0.000190367 0)
(63.8991 0.000239393 0)
(63.8992 0.00030258 0)
(63.8993 0.000302335 0)
(63.8992 0.000256652 0)
(63.8992 0.000235339 0)
(63.8992 0.0002229 0)
(63.8992 0.000211312 0)
(63.8993 0.000222533 0)
(63.8993 0.000255063 0)
(63.8993 0.00028319 0)
(63.8993 0.000275739 0)
(63.8994 0.000231751 0)
(63.8995 0.000166974 0)
(63.8995 0.000124245 0)
(63.8996 0.000150121 0)
(63.8997 0.000220955 0)
(63.8997 0.000286639 0)
(63.8997 0.000328198 0)
(63.8997 0.000347905 0)
(63.8997 0.000342391 0)
(63.8996 0.000305275 0)
(63.8996 0.000260155 0)
(63.8997 0.000238945 0)
(63.8998 0.00025853 0)
(63.9 0.000304474 0)
(63.9 0.000334471 0)
(63.9 0.000321789 0)
(63.9 0.000276796 0)
(63.9 0.000243289 0)
(63.9 0.000252139 0)
(63.9 0.000292321 0)
(50.5474 1.057e-05 0)
(85.462 8.90366e-05 0)
(73.2922 0.000181892 0)
(60.646 0.000255899 0)
(59.9016 0.000294131 0)
(63.3615 0.000300868 0)
(64.872 0.000325333 0)
(64.4213 0.000356446 0)
(63.8049 0.000366246 0)
(63.7028 0.000355092 0)
(63.846 0.000351544 0)
(63.931 0.000376527 0)
(63.9212 0.000407437 0)
(63.8924 0.000408678 0)
(63.8843 0.000386984 0)
(63.8898 0.000372489 0)
(63.8944 0.000376423 0)
(63.8943 0.000377816 0)
(63.893 0.000345832 0)
(63.8926 0.000321437 0)
(63.8928 0.000336426 0)
(63.8929 0.000340577 0)
(63.893 0.000336331 0)
(63.8932 0.000371759 0)
(63.8932 0.000440638 0)
(63.8931 0.000453465 0)
(63.893 0.000362826 0)
(63.893 0.000311539 0)
(63.8932 0.00037438 0)
(63.8932 0.000425166 0)
(63.8932 0.000394955 0)
(63.8933 0.0003513 0)
(63.8935 0.00035527 0)
(63.8935 0.000393308 0)
(63.8934 0.000411995 0)
(63.8936 0.000374901 0)
(63.8937 0.000316228 0)
(63.8937 0.000303009 0)
(63.8936 0.000337577 0)
(63.8936 0.000362414 0)
(63.8936 0.000353972 0)
(63.8935 0.000371709 0)
(63.8935 0.000453489 0)
(63.8936 0.000503163 0)
(63.8935 0.000464563 0)
(63.8935 0.000405653 0)
(63.8936 0.000366988 0)
(63.8938 0.000357882 0)
(63.8939 0.000354142 0)
(63.8939 0.000312933 0)
(63.8939 0.00027387 0)
(63.8939 0.000296875 0)
(63.8941 0.000357711 0)
(63.8941 0.000389894 0)
(63.894 0.000376343 0)
(63.8941 0.000359953 0)
(63.8941 0.000374452 0)
(63.8942 0.000411138 0)
(63.8942 0.000448466 0)
(63.8942 0.000462656 0)
(63.8942 0.000431191 0)
(63.8941 0.000377867 0)
(63.8941 0.000341063 0)
(63.8942 0.00031239 0)
(63.8942 0.000292015 0)
(63.8943 0.00031048 0)
(63.8944 0.00035514 0)
(63.8944 0.000377912 0)
(63.8944 0.000366982 0)
(63.8945 0.000343553 0)
(63.8945 0.000329734 0)
(63.8946 0.000315643 0)
(63.8946 0.000274583 0)
(63.8946 0.000267321 0)
(63.8947 0.000349347 0)
(63.8947 0.000422407 0)
(63.8947 0.00039107 0)
(63.8947 0.000318373 0)
(63.8947 0.000303076 0)
(63.8947 0.000325088 0)
(63.8947 0.000334942 0)
(63.8948 0.000349591 0)
(63.8947 0.000384516 0)
(63.8948 0.000429509 0)
(63.8949 0.000448381 0)
(63.895 0.000422745 0)
(63.895 0.000378915 0)
(63.895 0.000343841 0)
(63.895 0.000336361 0)
(63.8951 0.000346323 0)
(63.8952 0.000371518 0)
(63.8953 0.000400896 0)
(63.8952 0.000372386 0)
(63.8953 0.000295924 0)
(63.8952 0.000260021 0)
(63.8952 0.000297072 0)
(63.8952 0.000342976 0)
(63.8953 0.000337729 0)
(63.8954 0.000312941 0)
(63.8954 0.000309356 0)
(63.8955 0.000326284 0)
(63.8955 0.000348356 0)
(63.8955 0.000350798 0)
(63.8956 0.000325175 0)
(63.8956 0.000290019 0)
(63.8955 0.000269436 0)
(63.8956 0.000277829 0)
(63.8956 0.000326227 0)
(63.8957 0.000394007 0)
(63.8958 0.000421059 0)
(63.8958 0.000391135 0)
(63.8958 0.000346248 0)
(63.8958 0.000308277 0)
(63.8959 0.000279007 0)
(63.8959 0.000277675 0)
(63.8959 0.00030253 0)
(63.896 0.000323862 0)
(63.896 0.000331547 0)
(63.8961 0.000326118 0)
(63.8962 0.000313247 0)
(63.8961 0.00030059 0)
(63.8961 0.000287312 0)
(63.8963 0.0003001 0)
(63.8963 0.000355938 0)
(63.8963 0.000411608 0)
(63.8962 0.000430475 0)
(63.8962 0.000406539 0)
(63.8962 0.000362927 0)
(63.8963 0.00034946 0)
(63.8963 0.000361909 0)
(63.8963 0.000356629 0)
(63.8963 0.000335452 0)
(63.8962 0.000340898 0)
(63.8962 0.000384029 0)
(63.8963 0.000400948 0)
(63.8964 0.000365199 0)
(63.8964 0.000339844 0)
(63.8965 0.000351136 0)
(63.8965 0.000364351 0)
(63.8965 0.000364965 0)
(63.8965 0.000375111 0)
(63.8965 0.000394454 0)
(63.8965 0.00038799 0)
(63.8966 0.000343351 0)
(63.8967 0.000287452 0)
(63.8966 0.000250255 0)
(63.8967 0.000236079 0)
(63.8967 0.00024655 0)
(63.8967 0.000275262 0)
(63.8967 0.000303604 0)
(63.8968 0.000333676 0)
(63.8969 0.000362019 0)
(63.897 0.000383265 0)
(63.8971 0.000396448 0)
(63.897 0.000380577 0)
(63.897 0.000333988 0)
(63.897 0.000282694 0)
(63.8971 0.000263923 0)
(63.8972 0.000281263 0)
(63.8973 0.000291486 0)
(63.8973 0.000283689 0)
(63.8973 0.000274235 0)
(63.8973 0.000263592 0)
(63.8972 0.000256268 0)
(63.8972 0.000266218 0)
(63.8972 0.000300704 0)
(63.8973 0.000348472 0)
(63.8973 0.000384675 0)
(63.8974 0.00038336 0)
(63.8974 0.000342901 0)
(63.8974 0.000303356 0)
(63.8974 0.000301448 0)
(63.8976 0.000316521 0)
(63.8976 0.000317399 0)
(63.8975 0.000321107 0)
(63.8976 0.000340247 0)
(63.8975 0.000359784 0)
(63.8976 0.000373536 0)
(63.8977 0.000373177 0)
(63.8977 0.000338858 0)
(63.8977 0.000272414 0)
(63.8977 0.000223063 0)
(63.8978 0.00022754 0)
(63.8978 0.000259936 0)
(63.8978 0.000300551 0)
(63.8979 0.000352057 0)
(63.8979 0.00037513 0)
(63.898 0.000348372 0)
(63.8981 0.000314295 0)
(63.8982 0.000291406 0)
(63.8982 0.00028062 0)
(63.8982 0.000282037 0)
(63.8982 0.000275443 0)
(63.8982 0.000268441 0)
(63.8982 0.00027638 0)
(63.8983 0.000305365 0)
(63.8984 0.000346378 0)
(63.8985 0.000357702 0)
(63.8985 0.000334331 0)
(63.8985 0.000305473 0)
(63.8985 0.000289582 0)
(63.8984 0.000298464 0)
(63.8985 0.000329985 0)
(63.8985 0.000371655 0)
(63.8986 0.00040226 0)
(63.8986 0.000402926 0)
(63.8987 0.000380058 0)
(63.8988 0.000353312 0)
(63.8988 0.000318438 0)
(63.8988 0.000275523 0)
(63.8988 0.000252846 0)
(63.8987 0.000241483 0)
(63.8987 0.000226987 0)
(63.8988 0.000227399 0)
(63.8989 0.000245612 0)
(63.899 0.000267502 0)
(63.8991 0.000272638 0)
(63.8991 0.000267504 0)
(63.8991 0.00026411 0)
(63.899 0.000261087 0)
(63.8992 0.000283906 0)
(63.8993 0.000324599 0)
(63.8993 0.000354574 0)
(63.8993 0.000372926 0)
(63.8993 0.00037026 0)
(63.8992 0.000354199 0)
(63.8992 0.000344076 0)
(63.8993 0.00034675 0)
(63.8993 0.000349127 0)
(63.8994 0.000317289 0)
(63.8994 0.000262399 0)
(63.8994 0.000220811 0)
(63.8993 0.000205258 0)
(63.8994 0.000226764 0)
(63.8993 0.000275832 0)
(63.8994 0.000329333 0)
(63.8995 0.000375793 0)
(63.8996 0.000406834 0)
(63.8996 0.00041281 0)
(63.8996 0.000388681 0)
(63.8996 0.000347965 0)
(63.8996 0.000302328 0)
(63.8995 0.00026996 0)
(63.8995 0.00027684 0)
(63.8996 0.000316776 0)
(63.8997 0.000353813 0)
(63.8997 0.0003512 0)
(63.8997 0.000322548 0)
(63.8997 0.00032475 0)
(63.8998 0.000355781 0)
(50.5474 1.46023e-05 0)
(85.4619 8.02628e-05 0)
(73.2923 0.000123018 0)
(60.646 0.000115423 0)
(59.9016 9.40368e-05 0)
(63.3615 0.00010127 0)
(64.8719 0.000139424 0)
(64.4213 0.000189615 0)
(63.8049 0.000225266 0)
(63.7029 0.00021468 0)
(63.8461 0.000178447 0)
(63.931 0.000164099 0)
(63.9212 0.000160182 0)
(63.8925 0.000145385 0)
(63.8843 0.000128883 0)
(63.8897 0.000135169 0)
(63.8942 0.00017778 0)
(63.8943 0.000197218 0)
(63.8931 0.000158536 0)
(63.8924 0.00012217 0)
(63.8927 0.000133353 0)
(63.8931 0.000142941 0)
(63.8931 9.68653e-05 0)
(63.893 8.3521e-05 0)
(63.8931 0.000169245 0)
(63.8931 0.000243426 0)
(63.8933 0.00022058 0)
(63.8932 0.000154737 0)
(63.8932 0.000109472 0)
(63.8934 0.000118112 0)
(63.8934 0.000133205 0)
(63.8934 0.000102094 0)
(63.8933 7.4379e-05 0)
(63.8935 7.94212e-05 0)
(63.8936 8.51656e-05 0)
(63.8937 7.26079e-05 0)
(63.8936 6.70523e-05 0)
(63.8935 9.80469e-05 0)
(63.8936 0.000145959 0)
(63.8937 0.000193124 0)
(63.8937 0.000238473 0)
(63.8936 0.000272116 0)
(63.8936 0.000298283 0)
(63.8938 0.000309777 0)
(63.8939 0.000277808 0)
(63.8939 0.000206739 0)
(63.8939 0.000152561 0)
(63.8938 0.000156108 0)
(63.8938 0.000161564 0)
(63.8938 0.000116327 0)
(63.8938 5.53505e-05 0)
(63.8938 1.49088e-05 0)
(63.8939 1.94959e-05 0)
(63.894 6.45367e-05 0)
(63.8941 9.48678e-05 0)
(63.894 9.62768e-05 0)
(63.8941 0.000108323 0)
(63.8941 0.000159429 0)
(63.8941 0.000235281 0)
(63.8942 0.000291634 0)
(63.8943 0.000307578 0)
(63.8943 0.000288426 0)
(63.8944 0.000241217 0)
(63.8944 0.000190498 0)
(63.8943 0.000151976 0)
(63.8943 0.000118651 0)
(63.8943 0.000111789 0)
(63.8944 0.000124539 0)
(63.8944 9.49105e-05 0)
(63.8945 3.5511e-05 0)
(63.8946 2.04945e-05 0)
(63.8947 4.70764e-05 0)
(63.8947 6.18103e-05 0)
(63.8947 8.88843e-05 0)
(63.8946 0.000175187 0)
(63.8947 0.000261456 0)
(63.8949 0.000265207 0)
(63.8948 0.000210503 0)
(63.8949 0.000182363 0)
(63.895 0.000194967 0)
(63.895 0.000217193 0)
(63.895 0.00024673 0)
(63.8949 0.00026445 0)
(63.8948 0.000265136 0)
(63.8949 0.000243303 0)
(63.8949 0.000176957 0)
(63.895 0.000115437 0)
(63.895 9.54715e-05 0)
(63.8951 9.00411e-05 0)
(63.8951 9.38619e-05 0)
(63.8949 0.000120904 0)
(63.895 0.000156571 0)
(63.8951 0.000166221 0)
(63.8951 0.000159394 0)
(63.8951 0.00017105 0)
(63.8952 0.000187159 0)
(63.8953 0.00016893 0)
(63.8954 0.000141537 0)
(63.8954 0.000160512 0)
(63.8953 0.000193554 0)
(63.8953 0.000197716 0)
(63.8953 0.000186416 0)
(63.8954 0.000171445 0)
(63.8955 0.000162745 0)
(63.8956 0.000156224 0)
(63.8955 0.000149308 0)
(63.8955 0.000154021 0)
(63.8954 0.000157587 0)
(63.8954 0.000145621 0)
(63.8956 0.000129211 0)
(63.8957 0.000135081 0)
(63.8957 0.000162252 0)
(63.8958 0.000178929 0)
(63.8958 0.000184129 0)
(63.8958 0.000183974 0)
(63.8958 0.000166128 0)
(63.8958 0.000140137 0)
(63.8958 0.000121899 0)
(63.8959 0.000121517 0)
(63.896 0.000148263 0)
(63.896 0.000173671 0)
(63.896 0.000159669 0)
(63.896 0.000131802 0)
(63.896 0.000142369 0)
(63.8961 0.000184078 0)
(63.8962 0.000217704 0)
(63.8963 0.000248352 0)
(63.8962 0.000286346 0)
(63.8961 0.000305145 0)
(63.8962 0.000302352 0)
(63.8962 0.000306464 0)
(63.8962 0.000315496 0)
(63.8962 0.000320975 0)
(63.8962 0.000317221 0)
(63.8963 0.000275002 0)
(63.8963 0.000219352 0)
(63.8962 0.000202978 0)
(63.8962 0.000198953 0)
(63.8963 0.000167073 0)
(63.8963 0.000120823 0)
(63.8963 0.00010246 0)
(63.8964 0.000116002 0)
(63.8966 0.000128866 0)
(63.8966 0.000148856 0)
(63.8966 0.000173981 0)
(63.8966 0.000178571 0)
(63.8966 0.000171347 0)
(63.8966 0.000171777 0)
(63.8968 0.000184045 0)
(63.8968 0.000191401 0)
(63.8968 0.000185476 0)
(63.8969 0.000176398 0)
(63.8969 0.000172832 0)
(63.8969 0.00018305 0)
(63.897 0.000191669 0)
(63.897 0.000175386 0)
(63.8971 0.000135587 0)
(63.8971 9.18596e-05 0)
(63.8972 6.45079e-05 0)
(63.8973 6.34532e-05 0)
(63.8973 9.52559e-05 0)
(63.8973 0.000148272 0)
(63.8974 0.000200767 0)
(63.8973 0.000243612 0)
(63.8973 0.000270075 0)
(63.8973 0.000274304 0)
(63.8972 0.000250749 0)
(63.8974 0.00020799 0)
(63.8975 0.000177137 0)
(63.8975 0.000177034 0)
(63.8974 0.000185342 0)
(63.8974 0.000178346 0)
(63.8975 0.000176866 0)
(63.8975 0.000200781 0)
(63.8975 0.000230308 0)
(63.8976 0.000236003 0)
(63.8976 0.000209414 0)
(63.8976 0.000177648 0)
(63.8977 0.000173772 0)
(63.8978 0.000197482 0)
(63.8978 0.00022438 0)
(63.8977 0.000241094 0)
(63.8977 0.000251158 0)
(63.8977 0.000245417 0)
(63.8976 0.000211635 0)
(63.8977 0.000171993 0)
(63.8978 0.00014843 0)
(63.8978 0.00013189 0)
(63.8978 0.000128101 0)
(63.8979 0.000148936 0)
(63.8979 0.000178241 0)
(63.8979 0.000199656 0)
(63.898 0.000203188 0)
(63.8981 0.000188997 0)
(63.8981 0.000166141 0)
(63.8981 0.000152067 0)
(63.8981 0.000166014 0)
(63.8981 0.000195021 0)
(63.8982 0.000227705 0)
(63.8982 0.000263729 0)
(63.8982 0.000282056 0)
(63.8983 0.000270238 0)
(63.8983 0.000246562 0)
(63.8983 0.000235895 0)
(63.8983 0.000230703 0)
(63.8983 0.000212012 0)
(63.8983 0.000190339 0)
(63.8983 0.000184557 0)
(63.8984 0.000182932 0)
(63.8984 0.000160805 0)
(63.8985 0.000135339 0)
(63.8985 0.000122177 0)
(63.8985 0.000110789 0)
(63.8986 0.00010759 0)
(63.8986 0.000106356 0)
(63.8987 9.67251e-05 0)
(63.8988 9.58956e-05 0)
(63.8989 0.000128311 0)
(63.899 0.000172973 0)
(63.899 0.000178173 0)
(63.899 0.000174803 0)
(63.899 0.00020621 0)
(63.899 0.000236991 0)
(63.8991 0.000250377 0)
(63.8992 0.000251703 0)
(63.8992 0.000239563 0)
(63.8992 0.00022921 0)