/*--------------------------------*- C++ -*----------------------------------*\
| =========                 |                                                 |
| \\      /  F ield         | OpenFOAM: The Open Source CFD Toolbox           |
|  \\    /   O peration     | Version:  2406                                  |
|   \\  /    A nd           | Website:  www.openfoam.com                      |
|    \\/     M anipulation  |                                                 |
\*---------------------------------------------------------------------------*/
FoamFile
{
    version     2.0;
    format      ascii;
    arch        "LSB;label=32;scalar=64";
    class       surfaceScalarField;
    location    "1.8";
    object      alphaPhi0.air;
}
// * * * * * * * * * * * * * * * * * * * * * * * * * * * * * * * * * * * * * //

dimensions      [0 3 -1 0 0 0 0];

oriented        oriented;

internalField   nonuniform List<scalar> 
12225
(
0.511103
1.55923e-06
0.511097
6.04901e-06
0.511089
7.19901e-06
0.511084
5.1503e-06
0.51108
3.99813e-06
0.511076
4.16555e-06
0.511071
4.91597e-06
0.511065
5.93607e-06
0.511059
6.55787e-06
0.511052
6.27199e-06
0.511047
5.68275e-06
0.511041
5.65194e-06
0.511035
5.72109e-06
0.51103
5.32772e-06
0.511025
5.00838e-06
0.51102
4.64502e-06
0.511016
4.58003e-06
0.511011
4.93435e-06
0.511006
5.06602e-06
0.511
5.52115e-06
0.510994
5.87754e-06
0.510989
5.56052e-06
0.510984
5.35801e-06
0.510978
5.52974e-06
0.510972
5.84967e-06
0.510966
6.17997e-06
0.51096
6.20135e-06
0.510954
5.69242e-06
0.510949
5.21884e-06
0.510944
5.26381e-06
0.510938
5.57783e-06
0.510932
5.67934e-06
0.510927
5.39589e-06
0.510922
5.08039e-06
0.510917
4.86533e-06
0.510912
4.76529e-06
0.510907
5.08288e-06
0.510902
5.53976e-06
0.510896
5.74388e-06
0.51089
5.92865e-06
0.510884
5.95685e-06
0.510878
5.64761e-06
0.510873
5.56528e-06
0.510867
5.73605e-06
0.510862
5.51333e-06
0.510857
5.00394e-06
0.510852
4.73584e-06
0.510847
4.7332e-06
0.510842
4.97626e-06
0.510837
5.44799e-06
0.510831
5.84798e-06
0.510825
5.76584e-06
0.51082
5.23668e-06
0.510815
4.94813e-06
0.51081
5.1992e-06
0.510804
5.62589e-06
0.510798
5.83901e-06
0.510793
5.49032e-06
0.510788
5.06562e-06
0.510782
5.33073e-06
0.510777
5.75093e-06
0.510771
5.74711e-06
0.510765
5.51366e-06
0.51076
5.3283e-06
0.510754
5.54743e-06
0.510748
5.88861e-06
0.510743
5.79096e-06
0.510737
5.36888e-06
0.510732
4.86981e-06
0.510728
4.71475e-06
0.510723
4.99535e-06
0.510717
5.24742e-06
0.510712
5.49846e-06
0.510706
5.76832e-06
0.5107
5.82137e-06
0.510695
5.68933e-06
0.510689
5.3849e-06
0.510684
5.16403e-06
0.510679
5.3327e-06
0.510673
5.4425e-06
0.510668
5.14149e-06
0.510663
4.96792e-06
0.510658
5.16336e-06
0.510653
5.29422e-06
0.510647
5.36887e-06
0.510642
5.57738e-06
0.510636
5.75595e-06
0.51063
5.71735e-06
0.510625
5.43434e-06
0.51062
5.36473e-06
0.510614
5.68657e-06
0.510608
5.86826e-06
0.510602
5.90377e-06
0.510596
5.95962e-06
0.51059
5.77385e-06
0.510585
5.50337e-06
0.51058
5.38812e-06
0.510574
5.272e-06
0.510569
5.10001e-06
0.510564
4.93539e-06
0.510559
4.8486e-06
0.510554
5.04658e-06
0.510549
5.50772e-06
0.510543
5.82333e-06
0.510537
5.88784e-06
0.510531
5.87036e-06
0.510525
5.78251e-06
0.51052
5.71035e-06
0.510514
5.74732e-06
0.510508
5.84424e-06
0.510502
5.7928e-06
0.510497
5.37676e-06
0.510492
4.97623e-06
0.510487
4.98778e-06
0.510482
5.10499e-06
0.510477
5.15892e-06
0.510471
5.3549e-06
0.510466
5.69762e-06
0.51046
5.86755e-06
0.510454
5.71347e-06
0.510449
5.61415e-06
0.510443
5.63565e-06
0.510437
5.49496e-06
0.510432
5.39799e-06
0.510426
5.49819e-06
0.510421
5.52737e-06
0.510415
5.53186e-06
0.51041
5.68482e-06
0.510404
5.68411e-06
0.510399
5.4607e-06
0.510393
5.26854e-06
0.510388
4.97189e-06
0.510384
4.80913e-06
0.510378
5.14172e-06
0.510373
5.52783e-06
0.510367
5.75927e-06
0.510361
6.03513e-06
0.510355
6.14344e-06
0.510349
5.94781e-06
0.510343
5.65291e-06
0.510338
5.35228e-06
0.510333
5.06161e-06
0.510328
4.91529e-06
0.510323
4.85266e-06
0.510318
4.84708e-06
0.510313
5.10268e-06
0.510308
5.43469e-06
0.510302
5.58972e-06
0.510296
5.70092e-06
0.510291
5.86707e-06
0.510285
5.94962e-06
0.510279
5.77722e-06
0.510273
5.41921e-06
0.510268
5.02523e-06
0.510264
4.87251e-06
0.510258
5.18188e-06
0.510253
5.54165e-06
0.510247
5.62057e-06
0.510242
5.48406e-06
0.510237
5.18852e-06
0.510231
5.05085e-06
0.510226
5.29124e-06
0.510221
5.54187e-06
0.510215
5.58478e-06
0.510209
5.61344e-06
0.510204
5.56204e-06
0.510199
5.3303e-06
0.510193
5.30488e-06
0.510188
5.50753e-06
0.510182
5.59926e-06
0.510176
5.68273e-06
0.510171
5.74566e-06
0.510165
5.64399e-06
0.51016
5.54166e-06
0.510154
5.49459e-06
0.510149
5.45199e-06
0.510143
5.50327e-06
0.510137
5.70443e-06
0.510131
5.89556e-06
0.510126
5.95407e-06
0.51012
5.91124e-06
0.510114
5.75753e-06
0.510108
5.58728e-06
0.510103
5.45665e-06
0.510098
5.30253e-06
0.510092
5.29221e-06
0.510087
5.45273e-06
0.510081
5.64453e-06
0.510075
5.83135e-06
0.510069
5.80365e-06
0.510064
5.58866e-06
0.510058
5.48581e-06
0.510053
5.51944e-06
0.510047
5.66285e-06
0.510041
5.75217e-06
0.510036
5.58997e-06
0.510031
5.34347e-06
0.510025
5.14036e-06
0.51002
5.0704e-06
0.510015
5.25718e-06
0.51001
5.46474e-06
0.510004
5.38993e-06
0.509999
5.15301e-06
0.509994
5.03729e-06
0.509989
5.12357e-06
0.509984
5.40454e-06
0.509978
5.67242e-06
0.509972
5.63525e-06
0.509967
5.40004e-06
0.509962
5.15145e-06
0.509957
5.04464e-06
0.509951
5.23533e-06
0.509946
5.40929e-06
0.509941
5.30212e-06
0.509936
5.12563e-06
0.509931
5.03524e-06
0.509926
4.99056e-06
0.50992
5.08437e-06
0.509915
5.57073e-06
0.509909
6.17731e-06
0.509902
6.27938e-06
0.509896
5.92358e-06
0.509891
5.54407e-06
0.509886
5.3496e-06
0.50988
5.35784e-06
0.509875
5.41095e-06
0.509869
5.34308e-06
0.509864
5.25187e-06
0.509859
5.25637e-06
0.509854
5.20982e-06
0.509849
5.19337e-06
0.509843
5.42561e-06
0.509837
5.69565e-06
0.509832
5.80807e-06
0.509826
5.74463e-06
0.50982
5.53881e-06
0.509815
5.42127e-06
0.509809
5.4999e-06
0.509804
5.54855e-06
0.509799
5.35084e-06
0.509793
5.13538e-06
0.509788
5.14505e-06
0.509783
5.23833e-06
0.509778
5.44639e-06
0.509772
5.68444e-06
0.509766
5.62462e-06
0.509761
5.50724e-06
0.509755
5.42167e-06
0.50975
5.78009e-06
5.24258e-06
0.511108
4.70305e-09
0.511113
9.41503e-07
0.511118
2.24627e-06
0.51112
2.96751e-06
0.511122
2.27842e-06
0.511124
1.40941e-06
0.511128
1.53834e-06
0.511132
2.09243e-06
0.511136
2.0246e-06
0.511141
1.72844e-06
0.511145
1.64796e-06
0.511149
1.70155e-06
0.511152
2.34823e-06
0.511154
3.1842e-06
0.511156
3.04759e-06
0.511159
2.22396e-06
0.511161
1.93565e-06
0.511163
2.9103e-06
0.511165
3.68849e-06
0.511167
2.93797e-06
0.511171
1.93796e-06
0.511175
2.0399e-06
0.511177
2.7074e-06
0.51118
2.90199e-06
0.511183
3.03175e-06
0.511186
3.26876e-06
0.511189
3.23079e-06
0.511192
2.64875e-06
0.511195
1.87626e-06
0.511198
1.85604e-06
0.511202
2.42449e-06
0.511204
2.74554e-06
0.511207
2.51509e-06
0.51121
2.14801e-06
0.511213
2.34339e-06
0.511215
2.95271e-06
0.511216
3.25129e-06
0.511219
2.93643e-06
0.511222
2.43736e-06
0.511226
2.21076e-06
0.51123
2.1855e-06
0.511233
2.13742e-06
0.511237
2.00029e-06
0.511241
1.95909e-06
0.511244
2.16294e-06
0.511247
2.39954e-06
0.511249
2.47578e-06
0.511251
2.34264e-06
0.511254
2.2048e-06
0.511257
2.37853e-06
0.511261
2.4655e-06
0.511264
2.20116e-06
0.511267
2.09057e-06
0.51127
2.34294e-06
0.511272
2.7113e-06
0.511275
2.83611e-06
0.511278
2.65182e-06
0.511281
2.52827e-06
0.511284
2.54631e-06
0.511287
2.59658e-06
0.51129
2.60061e-06
0.511293
2.40111e-06
0.511296
2.46152e-06
0.511299
2.86825e-06
0.511301
2.9145e-06
0.511304
2.75298e-06
0.511307
2.8208e-06
0.51131
2.73458e-06
0.511312
2.49436e-06
0.511314
2.5177e-06
0.511317
2.39677e-06
0.51132
1.97131e-06
0.511324
2.02679e-06
0.511327
2.65195e-06
0.51133
3.05544e-06
0.511333
2.81086e-06
0.511336
2.43241e-06
0.511338
2.55172e-06
0.511341
2.69963e-06
0.511344
2.59049e-06
0.511346
2.65649e-06
0.511348
2.68502e-06
0.511351
2.54931e-06
0.511354
2.47832e-06
0.511357
2.39177e-06
0.51136
2.42017e-06
0.511363
2.61103e-06
0.511366
2.63146e-06
0.511369
2.36951e-06
0.511373
2.03956e-06
0.511376
1.9568e-06
0.51138
2.17953e-06
0.511383
2.47681e-06
0.511387
2.73635e-06
0.51139
2.87435e-06
0.511392
2.77427e-06
0.511395
2.70095e-06
0.511397
2.83695e-06
0.5114
2.77767e-06
0.511402
2.40521e-06
0.511405
2.02199e-06
0.511408
1.77264e-06
0.511412
1.86483e-06
0.511416
2.22894e-06
0.511419
2.60007e-06
0.511422
2.82351e-06
0.511425
2.5934e-06
0.511429
2.05094e-06
0.511433
1.80319e-06
0.511437
1.96347e-06
0.51144
2.37678e-06
0.511443
2.84922e-06
0.511445
2.9267e-06
0.511447
2.57862e-06
0.51145
2.23815e-06
0.511453
2.08122e-06
0.511456
2.16344e-06
0.51146
2.34461e-06
0.511463
2.32747e-06
0.511466
2.33474e-06
0.511469
2.62486e-06
0.511472
2.82446e-06
0.511475
2.85281e-06
0.511477
2.81306e-06
0.51148
2.57416e-06
0.511484
2.32033e-06
0.511487
2.22347e-06
0.51149
2.24215e-06
0.511493
2.56514e-06
0.511496
2.90474e-06
0.511498
2.85584e-06
0.511501
2.70428e-06
0.511503
2.52435e-06
0.511506
2.21884e-06
0.511509
2.08364e-06
0.511513
2.20787e-06
0.511517
2.3465e-06
0.51152
2.4633e-06
0.511524
2.52119e-06
0.511527
2.45381e-06
0.51153
2.47613e-06
0.511532
2.55642e-06
0.511535
2.43667e-06
0.511537
2.35472e-06
0.51154
2.44587e-06
0.511542
2.51042e-06
0.511545
2.54698e-06
0.511548
2.60466e-06
0.511551
2.7547e-06
0.511554
2.87536e-06
0.511557
2.67313e-06
0.511561
2.39589e-06
0.511564
2.4338e-06
0.511566
2.5914e-06
0.511568
2.66821e-06
0.511571
2.69858e-06
0.511574
2.5672e-06
0.511577
2.40106e-06
0.51158
2.46265e-06
0.511583
2.55125e-06
0.511585
2.56462e-06
0.511588
2.56262e-06
0.511591
2.48451e-06
0.511594
2.43305e-06
0.511597
2.45334e-06
0.5116
2.4258e-06
0.511603
2.38016e-06
0.511606
2.38521e-06
0.511609
2.44969e-06
0.511612
2.61588e-06
0.511615
2.83511e-06
0.511618
2.82593e-06
0.511621
2.53595e-06
0.511624
2.23916e-06
0.511628
2.08302e-06
0.511631
2.13487e-06
0.511634
2.32531e-06
0.511638
2.4261e-06
0.511641
2.37226e-06
0.511645
2.25779e-06
0.511649
2.22452e-06
0.511652
2.36099e-06
0.511655
2.64338e-06
0.511657
2.96222e-06
0.51166
3.05303e-06
0.511662
2.90632e-06
0.511665
2.74779e-06
0.511668
2.63634e-06
0.511671
2.65114e-06
0.511674
2.71205e-06
0.511677
2.63532e-06
0.51168
2.58426e-06
0.511683
2.61333e-06
0.511686
2.6336e-06
0.511689
2.82393e-06
0.511691
3.11881e-06
0.511693
3.15383e-06
0.511696
2.89151e-06
0.511698
2.55136e-06
0.511701
2.26622e-06
0.511704
2.25316e-06
0.511707
2.64908e-06
0.511709
3.05114e-06
0.511711
3.04284e-06
0.511714
2.66572e-06
0.511717
2.2644e-06
0.51172
2.21824e-06
0.511723
2.45845e-06
0.511726
2.6364e-06
0.511729
2.6641e-06
0.511731
2.60661e-06
0.511734
2.60151e-06
0.511736
2.7259e-06
0.511739
2.87695e-06
0.511741
2.87857e-06
0.511744
2.57579e-06
0.511746
2.09323e-06
0.51175
1.73106e-06
0.511754
1.77497e-06
0.511758
2.25111e-06
0.511761
2.62377e-06
0.511765
2.58212e-06
0.511768
2.47309e-06
0.51177
2.51391e-06
0.511773
2.65961e-06
0.511776
2.86413e-06
0.511778
3.07133e-06
0.51178
3.11541e-06
0.511783
2.82615e-06
0.511785
2.34981e-06
0.511789
1.96631e-06
0.511792
1.87359e-06
0.511796
2.1046e-06
0.511799
2.38768e-06
0.511803
2.40648e-06
0.511806
2.19121e-06
0.511809
2.0284e-06
0.511813
2.00104e-06
0.511816
2.09148e-06
0.511819
2.27658e-06
0.511822
2.40091e-06
0.511825
2.50263e-06
0.511827
2.54805e-06
0.51183
2.3884e-06
0.511834
2.38443e-06
0.511837
2.69482e-06
0.511839
2.88779e-06
0.511842
2.76274e-06
0.511845
2.41202e-06
2.36621e-06
0.511107
1.60267e-08
0.511107
7.22168e-07
0.511108
1.35984e-06
0.511109
1.54983e-06
0.51111
1.55898e-06
0.511109
1.99792e-06
0.511109
2.36443e-06
0.511108
2.25809e-06
0.511108
2.24745e-06
0.511108
2.17401e-06
0.511108
1.87658e-06
0.511107
1.90025e-06
0.511108
2.01707e-06
0.511109
1.80304e-06
0.51111
1.64565e-06
0.511111
2.0762e-06
0.51111
2.82946e-06
0.51111
2.98863e-06
0.511111
2.59959e-06
0.511111
2.3599e-06
0.511111
1.94836e-06
0.511112
1.52027e-06
0.511113
1.94429e-06
0.511113
2.2689e-06
0.511114
2.36928e-06
0.511114
2.89346e-06
0.511115
2.90242e-06
0.511115
2.49878e-06
0.511114
2.442e-06
0.511114
2.50459e-06
0.511113
2.54896e-06
0.511114
2.53475e-06
0.511114
2.16571e-06
0.511114
1.88945e-06
0.511114
2.20089e-06
0.511115
2.54441e-06
0.511115
2.62396e-06
0.511116
2.53485e-06
0.511116
2.23158e-06
0.511116
2.09087e-06
0.511116
2.26934e-06
0.511116
2.35122e-06
0.511116
2.12631e-06
0.511116
1.85793e-06
0.511116
1.64945e-06
0.511117
1.5822e-06
0.511118
1.84963e-06
0.511118
2.05242e-06
0.511118
2.04904e-06
0.511118
2.16614e-06
0.511119
1.95781e-06
0.51112
1.43619e-06
0.51112
1.51744e-06
0.511121
2.03436e-06
0.511121
2.24644e-06
0.511122
2.30559e-06
0.511122
2.50053e-06
0.511122
2.71981e-06
0.511121
2.8626e-06
0.511121
2.82125e-06
0.511121
2.59253e-06
0.511121
2.47534e-06
0.511121
2.50208e-06
0.511121
2.52543e-06
0.511122
2.63474e-06
0.511122
2.43401e-06
0.511123
1.79576e-06
0.511124
1.48473e-06
0.511125
1.46171e-06
0.511126
1.50691e-06
0.511126
2.10432e-06
0.511126
2.74982e-06
0.511125
2.90455e-06
0.511125
2.84506e-06
0.511125
2.64827e-06
0.511125
2.54315e-06
0.511125
2.59752e-06
0.511125
2.39027e-06
0.511126
1.9333e-06
0.511127
1.79754e-06
0.511127
2.1988e-06
0.511127
2.62121e-06
0.511127
2.76032e-06
0.511127
2.72554e-06
0.511127
2.40996e-06
0.511127
1.91101e-06
0.511128
1.69367e-06
0.511129
1.90405e-06
0.511129
2.24533e-06
0.511129
2.46586e-06
0.511128
2.55515e-06
0.511128
2.59125e-06
0.511128
2.55307e-06
0.511128
2.30314e-06
0.511129
2.0629e-06
0.51113
2.03189e-06
0.51113
1.95562e-06
0.511131
1.98623e-06
0.511132
2.18725e-06
0.511132
2.17876e-06
0.511132
2.15731e-06
0.511131
2.21531e-06
0.511131
2.09438e-06
0.511131
2.01497e-06
0.511132
2.15732e-06
0.511132
2.25865e-06
0.511133
2.19426e-06
0.511133
2.10554e-06
0.511133
2.00718e-06
0.511133
1.79711e-06
0.511134
1.53408e-06
0.511135
1.48216e-06
0.511136
1.80794e-06
0.511136
2.24644e-06
0.511136
2.46247e-06
0.511136
2.3827e-06
0.511136
2.10882e-06
0.511136
2.07461e-06
0.511136
2.34852e-06
0.511136
2.41678e-06
0.511136
2.29117e-06
0.511137
2.25499e-06
0.511138
2.19927e-06
0.511138
2.28849e-06
0.511138
2.57532e-06
0.511138
2.6172e-06
0.511138
2.40223e-06
0.511138
2.20223e-06
0.511138
2.05036e-06
0.511139
1.9508e-06
0.51114
1.89756e-06
0.511141
1.94812e-06
0.511141
2.06198e-06
0.511142
2.0691e-06
0.511142
2.07378e-06
0.511141
2.30029e-06
0.511141
2.48104e-06
0.511142
2.25814e-06
0.511142
1.93904e-06
0.511143
1.85667e-06
0.511143
1.95298e-06
0.511144
2.25132e-06
0.511143
2.5195e-06
0.511143
2.54121e-06
0.511143
2.51358e-06
0.511143
2.47675e-06
0.511143
2.53284e-06
0.511143
2.77585e-06
0.511143
2.76644e-06
0.511144
2.42704e-06
0.511144
2.2254e-06
0.511144
2.20614e-06
0.511144
2.2904e-06
0.511144
2.49916e-06
0.511145
2.57084e-06
0.511145
2.55343e-06
0.511145
2.54907e-06
0.511145
2.33373e-06
0.511145
2.15751e-06
0.511145
2.19368e-06
0.511146
2.14111e-06
0.511146
2.07028e-06
0.511147
2.10592e-06
0.511147
2.11098e-06
0.511147
2.17989e-06
0.511147
2.34985e-06
0.511147
2.3421e-06
0.511148
2.17391e-06
0.511148
2.09966e-06
0.511148
2.13817e-06
0.511149
2.28885e-06
0.511149
2.43974e-06
0.51115
2.38507e-06
0.51115
2.15551e-06
0.51115
1.82167e-06
0.51115
1.57439e-06
0.511151
1.64345e-06
0.511152
1.86239e-06
0.511152
2.00229e-06
0.511152
2.08597e-06
0.511152
2.2138e-06
0.511152
2.33836e-06
0.511152
2.44298e-06
0.511153
2.67713e-06
0.511153
2.9045e-06
0.511153
2.93509e-06
0.511153
2.8632e-06
0.511153
2.68022e-06
0.511153
2.48335e-06
0.511153
2.48236e-06
0.511153
2.56072e-06
0.511153
2.55958e-06
0.511153
2.46616e-06
0.511154
2.33128e-06
0.511154
2.26608e-06
0.511155
2.36435e-06
0.511156
2.59326e-06
0.511156
2.75691e-06
0.511155
2.81777e-06
0.511155
2.85555e-06
0.511154
2.71968e-06
0.511154
2.51554e-06
0.511155
2.44717e-06
0.511156
2.29162e-06
0.511156
2.12209e-06
0.511156
2.24408e-06
0.511156
2.40125e-06
0.511156
2.41125e-06
0.511156
2.53397e-06
0.511156
2.70027e-06
0.511156
2.6057e-06
0.511157
2.3074e-06
0.511157
1.97338e-06
0.511158
1.8131e-06
0.511159
1.99128e-06
0.51116
2.15477e-06
0.51116
2.11192e-06
0.511159
2.04924e-06
0.511159
1.87837e-06
0.51116
1.73297e-06
0.511161
1.85279e-06
0.511161
1.99115e-06
0.511162
2.08196e-06
0.511162
2.27061e-06
0.511162
2.4915e-06
0.511162
2.6671e-06
0.511162
2.79099e-06
0.511163
2.83157e-06
0.511163
2.68892e-06
0.511163
2.39924e-06
0.511163
2.083e-06
0.511163
1.75075e-06
0.511163
1.52929e-06
0.511164
1.64205e-06
0.511165
1.92438e-06
0.511165
1.91895e-06
0.511165
1.703e-06
0.511166
1.62032e-06
0.511166
1.6288e-06
0.511167
1.80588e-06
0.511167
2.1248e-06
0.511167
2.31306e-06
0.511167
2.41739e-06
0.511167
2.42565e-06
0.511167
2.32788e-06
0.511168
2.34844e-06
0.511168
2.44065e-06
0.511168
2.29343e-06
0.511169
1.84733e-06
1.79767e-06
0.511107
3.97895e-07
0.511107
8.52509e-07
0.511107
8.9241e-07
0.511108
9.08242e-07
0.511108
1.31024e-06
0.511108
1.84718e-06
0.511109
1.87227e-06
0.511109
1.63703e-06
0.51111
1.46402e-06
0.511111
1.51664e-06
0.511111
1.87661e-06
0.511111
1.85275e-06
0.511111
1.51146e-06
0.511111
1.52214e-06
0.511111
1.78104e-06
0.511111
1.99216e-06
0.511112
2.24791e-06
0.511112
2.52385e-06
0.511113
2.43196e-06
0.511113
1.90902e-06
0.511113
1.86121e-06
0.511112
2.22129e-06
0.511112
2.00582e-06
0.511113
1.76522e-06
0.511113
1.89055e-06
0.511114
1.84265e-06
0.511115
1.99733e-06
0.511115
2.59454e-06
0.511115
2.96616e-06
0.511114
2.98994e-06
0.511114
2.76796e-06
0.511114
2.39206e-06
0.511114
2.22983e-06
0.511114
2.25502e-06
0.511114
2.15738e-06
0.511114
1.93974e-06
0.511115
1.55844e-06
0.511117
1.11489e-06
0.511118
1.08609e-06
0.511119
1.47271e-06
0.511119
1.80158e-06
0.511119
2.14192e-06
0.511119
2.23394e-06
0.511119
1.87283e-06
0.511119
1.72971e-06
0.511119
1.7228e-06
0.511119
1.51239e-06
0.51112
1.56464e-06
0.51112
1.82434e-06
0.51112
1.85134e-06
0.511121
1.73261e-06
0.51112
1.69635e-06
0.51112
1.75271e-06
0.51112
1.83099e-06
0.511121
1.9805e-06
0.511121
2.13663e-06
0.511121
2.25923e-06
0.511121
2.58626e-06
0.511121
2.81194e-06
0.511121
2.63768e-06
0.511121
2.47111e-06
0.511122
2.39179e-06
0.511122
2.48018e-06
0.511121
2.69164e-06
0.511122
2.42213e-06
0.511122
1.95954e-06
0.511122
1.71851e-06
0.511122
1.41824e-06
0.511122
1.31447e-06
0.511122
1.41991e-06
0.511123
1.43117e-06
0.511124
1.79653e-06
0.511125
2.37687e-06
0.511125
2.32781e-06
0.511126
2.0789e-06
0.511126
2.2757e-06
0.511126
2.4697e-06
0.511126
2.49787e-06
0.511126
2.31942e-06
0.511125
1.87601e-06
0.511126
1.75514e-06
0.511127
1.9744e-06
0.511127
2.1691e-06
0.511127
2.4376e-06
0.511127
2.53142e-06
0.511127
2.24682e-06
0.511127
1.82918e-06
0.511127
1.65744e-06
0.511127
1.8882e-06
0.511128
2.07422e-06
0.511128
2.03191e-06
0.511129
2.08296e-06
0.511129
2.22671e-06
0.511129
2.37928e-06
0.511129
2.54764e-06
0.511128
2.43411e-06
0.511128
1.95324e-06
0.511129
1.44218e-06
0.51113
1.03234e-06
0.511131
1.04554e-06
0.511132
1.65055e-06
0.511132
2.07494e-06
0.511132
2.08222e-06
0.511132
1.97706e-06
0.511132
1.73637e-06
0.511133
1.59014e-06
0.511134
1.53703e-06
0.511134
1.46824e-06
0.511135
1.55445e-06
0.511135
1.58185e-06
0.511135
1.56962e-06
0.511135
1.75114e-06
0.511135
1.75789e-06
0.511135
1.5087e-06
0.511136
1.53291e-06
0.511137
1.83328e-06
0.511137
1.96221e-06
0.511137
1.95115e-06
0.511137
2.04003e-06
0.511138
2.27021e-06
0.511137
2.48796e-06
0.511137
2.48056e-06
0.511137
2.2139e-06
0.511138
1.87528e-06
0.511138
1.71933e-06
0.511139
1.88736e-06
0.511139
2.18934e-06
0.511139
2.24747e-06
0.511139
2.06832e-06
0.511139
1.90855e-06
0.511139
1.76059e-06
0.51114
1.65744e-06
0.51114
1.68104e-06
0.51114
1.69584e-06
0.511141
1.70075e-06
0.511141
1.78109e-06
0.511142
1.87815e-06
0.511142
1.96173e-06
0.511142
2.04237e-06
0.511142
2.00859e-06
0.511142
1.80881e-06
0.511143
1.6809e-06
0.511143
1.81251e-06
0.511144
2.12495e-06
0.511144
2.40283e-06
0.511144
2.47083e-06
0.511144
2.44304e-06
0.511144
2.49574e-06
0.511144
2.61923e-06
0.511144
2.60579e-06
0.511144
2.27463e-06
0.511145
1.93576e-06
0.511145
1.91568e-06
0.511145
2.08829e-06
0.511146
2.28875e-06
0.511146
2.38488e-06
0.511146
2.30104e-06
0.511146
2.19645e-06
0.511146
2.15794e-06
0.511146
2.15619e-06
0.511146
2.17702e-06
0.511146
2.06765e-06
0.511146
1.90771e-06
0.511147
1.92304e-06
0.511147
1.93386e-06
0.511147
1.92816e-06
0.511147
2.08938e-06
0.511147
2.23936e-06
0.511147
2.30035e-06
0.511147
2.33253e-06
0.511147
2.2201e-06
0.511148
1.9188e-06
0.511148
1.62196e-06
0.511149
1.54467e-06
0.511149
1.57714e-06
0.511149
1.57329e-06
0.511149
1.56202e-06
0.51115
1.51193e-06
0.51115
1.52068e-06
0.511151
1.68668e-06
0.511151
1.94708e-06
0.511151
2.20455e-06
0.511151
2.32707e-06
0.511151
2.43438e-06
0.511152
2.64842e-06
0.511152
2.79719e-06
0.511152
2.79929e-06
0.511152
2.62631e-06
0.511152
2.29263e-06
0.511152
2.05967e-06
0.511153
2.07353e-06
0.511153
2.27493e-06
0.511153
2.54152e-06
0.511153
2.65128e-06
0.511153
2.48029e-06
0.511153
2.15929e-06
0.511153
1.91862e-06
0.511154
1.95179e-06
0.511155
2.2394e-06
0.511155
2.52175e-06
0.511155
2.6276e-06
0.511155
2.62551e-06
0.511155
2.59848e-06
0.511155
2.50688e-06
0.511155
2.25685e-06
0.511155
1.92194e-06
0.511156
1.77798e-06
0.511156
1.88925e-06
0.511156
2.13153e-06
0.511157
2.47791e-06
0.511157
2.68325e-06
0.511156
2.49714e-06
0.511156
2.10314e-06
0.511156
1.64661e-06
0.511157
1.24624e-06
0.511158
1.16469e-06
0.511159
1.44899e-06
0.511159
1.90581e-06
0.511159
2.16039e-06
0.511158
2.06931e-06
0.511158
1.94124e-06
0.511158
1.90934e-06
0.511159
1.89554e-06
0.511159
1.94348e-06
0.511159
2.14168e-06
0.51116
2.34894e-06
0.51116
2.33021e-06
0.511161
2.19206e-06
0.511161
2.02556e-06
0.511162
1.89997e-06
0.511162
1.96508e-06
0.511162
1.89249e-06
0.511162
1.45953e-06
0.511162
1.06021e-06
0.511163
9.92289e-07
0.511164
1.24362e-06
0.511164
1.65472e-06
0.511164
1.8873e-06
0.511164
1.81324e-06
0.511164
1.78253e-06
0.511164
1.78205e-06
0.511165
1.59453e-06
0.511166
1.55488e-06
0.511166
1.6521e-06
0.511167
1.64623e-06
0.511168
1.72148e-06
0.511168
1.86804e-06
0.511169
1.92944e-06
0.511169
1.95844e-06
2.05266e-06
0.511108
2.04924e-07
0.511108
5.0539e-07
0.511108
6.69079e-07
0.511108
1.05428e-06
0.511108
1.57158e-06
0.511108
1.65437e-06
0.511108
1.7057e-06
0.511108
1.67055e-06
0.511108
1.43439e-06
0.511108
1.32978e-06
0.511109
1.36059e-06
0.511109
1.54301e-06
0.511109
1.40478e-06
0.51111
8.02254e-07
0.511111
1.02484e-06
0.511111
2.09285e-06
0.51111
2.5175e-06
0.511111
1.80624e-06
0.511112
1.15449e-06
0.511113
1.75789e-06
0.511112
2.68135e-06
0.511111
2.6598e-06
0.511111
2.36697e-06
0.511111
2.16403e-06
0.511111
1.71072e-06
0.511111
1.34077e-06
0.511112
1.54867e-06
0.511112
2.06226e-06
0.511113
2.41927e-06
0.511113
2.44682e-06
0.511114
2.09657e-06
0.511115
1.8122e-06
0.511115
1.96054e-06
0.511115
2.21395e-06
0.511115
2.31141e-06
0.511115
1.89275e-06
0.511115
1.29456e-06
0.511115
1.40147e-06
0.511114
1.75974e-06
0.511114
1.70741e-06
0.511114
1.32147e-06
0.511116
8.33307e-07
0.511117
6.94559e-07
0.511118
1.02663e-06
0.511118
1.5134e-06
0.511118
1.7909e-06
0.511118
1.77373e-06
0.511118
1.7067e-06
0.511118
1.5255e-06
0.511119
1.18141e-06
0.51112
1.01493e-06
0.51112
1.13628e-06
0.51112
1.35176e-06
0.511121
1.66767e-06
0.511121
2.09635e-06
0.51112
2.39597e-06
0.51112
2.46518e-06
0.51112
2.38119e-06
0.511121
2.24851e-06
0.511121
2.252e-06
0.511121
2.35613e-06
0.511121
2.42706e-06
0.511121
2.3558e-06
0.511122
1.99911e-06
0.511123
1.72862e-06
0.511123
1.7011e-06
0.511123
1.48119e-06
0.511123
1.40017e-06
0.511123
1.49964e-06
0.511123
1.26613e-06
0.511123
1.39588e-06
0.511123
2.01471e-06
0.511123
2.11238e-06
0.511124
1.77322e-06
0.511124
1.58875e-06
0.511125
1.72138e-06
0.511125
1.92519e-06
0.511126
1.92297e-06
0.511126
2.01514e-06
0.511126
2.14007e-06
0.511126
2.01236e-06
0.511126
1.9576e-06
0.511126
1.86609e-06
0.511127
1.55126e-06
0.511128
1.5526e-06
0.511128
1.82802e-06
0.511128
1.90561e-06
0.511128
1.98475e-06
0.511128
1.969e-06
0.511128
1.71709e-06
0.511129
1.69423e-06
0.511129
1.74775e-06
0.511129
1.75609e-06
0.51113
1.96257e-06
0.51113
1.97907e-06
0.511131
1.95578e-06
0.511131
1.98046e-06
0.511131
1.49765e-06
0.511131
1.00423e-06
0.511131
1.01318e-06
0.511131
1.11949e-06
0.511132
1.30783e-06
0.511133
1.6579e-06
0.511133
1.77155e-06
0.511133
1.55314e-06
0.511133
1.31916e-06
0.511134
1.17566e-06
0.511134
1.1669e-06
0.511134
1.29435e-06
0.511134
1.37326e-06
0.511135
1.41787e-06
0.511135
1.46713e-06
0.511135
1.5412e-06
0.511135
1.66627e-06
0.511135
1.61937e-06
0.511135
1.49926e-06
0.511136
1.56002e-06
0.511136
1.69036e-06
0.511136
1.96503e-06
0.511136
2.2291e-06
0.511136
2.11592e-06
0.511137
1.99324e-06
0.511137
2.10132e-06
0.511137
2.02034e-06
0.511137
1.8054e-06
0.511137
1.69847e-06
0.511137
1.57632e-06
0.511138
1.58527e-06
0.511138
1.77261e-06
0.511139
1.78795e-06
0.511139
1.6159e-06
0.511139
1.42315e-06
0.511139
1.24925e-06
0.51114
1.30316e-06
0.51114
1.54629e-06
0.51114
1.59936e-06
0.51114
1.55073e-06
0.511141
1.55837e-06
0.511141
1.55153e-06
0.511142
1.73096e-06
0.511142
1.8936e-06
0.511141
1.76709e-06
0.511142
1.73506e-06
0.511142
1.81225e-06
0.511142
1.95265e-06
0.511142
2.41309e-06
0.511142
2.7704e-06
0.511142
2.63884e-06
0.511142
2.25731e-06
0.511143
1.82482e-06
0.511144
1.69415e-06
0.511144
1.96316e-06
0.511143
2.14664e-06
0.511143
2.12544e-06
0.511144
2.02396e-06
0.511144
1.8052e-06
0.511145
1.76594e-06
0.511145
1.98494e-06
0.511145
2.08314e-06
0.511145
2.03892e-06
0.511145
2.03197e-06
0.511145
1.99725e-06
0.511145
1.90906e-06
0.511145
1.79842e-06
0.511146
1.62825e-06
0.511146
1.5768e-06
0.511146
1.80817e-06
0.511147
2.07555e-06
0.511147
2.17236e-06
0.511147
2.07195e-06
0.511147
1.80002e-06
0.511148
1.53785e-06
0.511148
1.37782e-06
0.511148
1.29193e-06
0.511149
1.23133e-06
0.511149
1.15765e-06
0.511149
1.09947e-06
0.51115
1.06971e-06
0.51115
1.17882e-06
0.51115
1.46179e-06
0.511151
1.77405e-06
0.511151
2.09785e-06
0.511151
2.37845e-06
0.511151
2.47254e-06
0.511151
2.36021e-06
0.511151
2.20825e-06
0.511152
2.24233e-06
0.511152
2.33996e-06
0.511152
2.31871e-06
0.511152
2.23031e-06
0.511152
2.05292e-06
0.511153
1.89354e-06
0.511153
1.92625e-06
0.511154
2.07856e-06
0.511154
2.23727e-06
0.511154
2.25635e-06
0.511154
2.1241e-06
0.511154
2.03542e-06
0.511154
2.01049e-06
0.511154
2.11978e-06
0.511154
2.39572e-06
0.511155
2.4518e-06
0.511155
2.22362e-06
0.511155
2.12079e-06
0.511155
2.1598e-06
0.511155
2.10637e-06
0.511155
2.02654e-06
0.511155
1.92854e-06
0.511155
1.81732e-06
0.511156
1.89082e-06
0.511157
1.99374e-06
0.511157
1.8556e-06
0.511158
1.64981e-06
0.511158
1.40928e-06
0.511158
1.11145e-06
0.511158
1.0922e-06
0.511158
1.35527e-06
0.511159
1.63681e-06
0.511159
1.84148e-06
0.511159
1.84092e-06
0.511159
1.72358e-06
0.511159
1.72697e-06
0.51116
1.82699e-06
0.51116
1.84907e-06
0.51116
1.81619e-06
0.51116
1.88517e-06
0.511161
1.9042e-06
0.511161
1.79384e-06
0.511162
1.74981e-06
0.511162
1.68026e-06
0.511162
1.51477e-06
0.511163
1.41929e-06
0.511163
1.34482e-06
0.511163
1.19815e-06
0.511162
1.17014e-06
0.511162
1.2957e-06
0.511163
1.35689e-06
0.511163
1.44115e-06
0.511163
1.51801e-06
0.511164
1.39144e-06
0.511164
1.27992e-06
0.511165
1.16848e-06
0.511165
9.35825e-07
0.511166
9.94925e-07
0.511166
1.35298e-06
0.511167
1.4595e-06
0.511167
1.26486e-06
0.511168
1.31427e-06
0.511168
1.68069e-06
2.00624e-06
0.511108
-1.22799e-07
0.511108
2.3884e-07
0.511108
9.33407e-07
0.511107
1.49016e-06
0.511108
1.42145e-06
0.511108
1.2388e-06
0.511108
1.29014e-06
0.511109
1.29048e-06
0.511109
1.0084e-06
0.51111
9.51655e-07
0.51111
1.03422e-06
0.511111
7.39995e-07
0.511111
7.60358e-07
0.511111
1.27607e-06
0.51111
1.62127e-06
0.511111
1.59912e-06
0.511112
1.40268e-06
0.511112
1.38927e-06
0.511112
1.32341e-06
0.511113
1.31461e-06
0.511114
1.71863e-06
0.511114
1.81466e-06
0.511115
1.5492e-06
0.511116
1.6708e-06
0.511115
2.0663e-06
0.511114
2.35154e-06
0.511113
2.4445e-06
0.511113
2.38569e-06
0.511113
2.18409e-06
0.511114
1.95999e-06
0.511114
1.96364e-06
0.511114
1.97492e-06
0.511114
1.82695e-06
0.511115
1.6924e-06
0.511115
1.46697e-06
0.511116
1.07587e-06
0.511117
9.39855e-07
0.511117
1.2202e-06
0.511117
1.45226e-06
0.511117
1.45103e-06
0.511117
1.24912e-06
0.511117
8.98028e-07
0.511117
8.42394e-07
0.511117
1.10683e-06
0.511117
1.2734e-06
0.511118
1.26368e-06
0.511118
1.26382e-06
0.511119
1.4766e-06
0.511119
1.52294e-06
0.511119
1.20681e-06
0.511119
1.05107e-06
0.511119
1.11073e-06
0.511119
1.19181e-06
0.511119
1.3428e-06
0.51112
1.51637e-06
0.51112
1.84751e-06
0.51112
2.19577e-06
0.511121
2.21779e-06
0.511121
2.09944e-06
0.511121
2.03446e-06
0.511121
2.1102e-06
0.511121
2.34087e-06
0.511121
2.4544e-06
0.511121
2.23426e-06
0.511121
1.62841e-06
0.511122
1.09214e-06
0.511122
1.10861e-06
0.511122
1.29876e-06
0.511122
1.35255e-06
0.511122
1.40481e-06
0.511122
1.26976e-06
0.511123
1.0254e-06
0.511124
1.06475e-06
0.511125
1.36649e-06
0.511125
1.49196e-06
0.511125
1.48496e-06
0.511126
1.44183e-06
0.511126
1.43495e-06
0.511126
1.59154e-06
0.511127
1.78959e-06
0.511127
1.99502e-06
0.511127
2.10397e-06
0.511127
1.93723e-06
0.511126
1.70717e-06
0.511126
1.60878e-06
0.511126
1.73155e-06
0.511126
1.9688e-06
0.511126
1.92394e-06
0.511127
1.70213e-06
0.511127
1.47302e-06
0.511127
1.27128e-06
0.511128
1.41187e-06
0.511128
1.71721e-06
0.511128
1.79766e-06
0.511128
1.73445e-06
0.511129
1.48803e-06
0.51113
1.01408e-06
0.51113
7.74586e-07
0.51113
9.40695e-07
0.51113
1.06853e-06
0.51113
1.0899e-06
0.511131
1.08261e-06
0.511131
1.03862e-06
0.511132
1.22768e-06
0.511132
1.43502e-06
0.511132
1.37489e-06
0.511132
1.11122e-06
0.511132
6.94996e-07
0.511133
5.69865e-07
0.511134
9.39865e-07
0.511134
1.28716e-06
0.511134
1.43455e-06
0.511134
1.34207e-06
0.511134
1.10532e-06
0.511135
1.12946e-06
0.511135
1.40176e-06
0.511135
1.57207e-06
0.511135
1.59575e-06
0.511135
1.6485e-06
0.511136
1.80736e-06
0.511136
1.90457e-06
0.511136
1.77095e-06
0.511137
1.59032e-06
0.511137
1.51264e-06
0.511138
1.41485e-06
0.511138
1.422e-06
0.511138
1.60683e-06
0.511138
1.59096e-06
0.511138
1.32934e-06
0.511139
1.15885e-06
0.51114
1.07561e-06
0.51114
9.93327e-07
0.51114
1.03436e-06
0.51114
1.14118e-06
0.511141
1.183e-06
0.511141
1.19127e-06
0.511141
1.2528e-06
0.511142
1.44621e-06
0.511142
1.56447e-06
0.511142
1.44692e-06
0.511142
1.36645e-06
0.511143
1.43331e-06
0.511143
1.6401e-06
0.511143
2.00547e-06
0.511142
2.20504e-06
0.511143
2.13324e-06
0.511143
2.1389e-06
0.511144
2.21452e-06
0.511144
2.12034e-06
0.511144