/*--------------------------------*- C++ -*----------------------------------*\
| =========                 |                                                 |
| \\      /  F ield         | OpenFOAM: The Open Source CFD Toolbox           |
|  \\    /   O peration     | Version:  2406                                  |
|   \\  /    A nd           | Website:  www.openfoam.com                      |
|    \\/     M anipulation  |                                                 |
\*---------------------------------------------------------------------------*/
FoamFile
{
    version     2.0;
    format      ascii;
    arch        "LSB;label=32;scalar=64";
    class       volScalarField;
    location    "1.8";
    object      p_rgh;
}
// * * * * * * * * * * * * * * * * * * * * * * * * * * * * * * * * * * * * * //

dimensions      [1 -1 -2 0 0 0 0];

internalField   nonuniform List<scalar> 
6250
(
-2.92118
-3226.04
-1037.08
539.788
495.125
26.0339
-134.643
-57.3398
19.1154
25.489
5.33687
-4.25792
-1.9758
1.72628
2.45427
1.62931
1.09237
1.13079
1.30658
1.35701
1.32113
1.29056
1.28256
1.28183
1.27656
1.26871
1.25821
1.24913
1.24942
1.25074
1.24974
1.25259
1.25296
1.24376
1.23111
1.21637
1.20228
1.19497
1.18339
1.17022
1.1649
1.15399
1.14231
1.13927
1.12828
1.11185
1.10506
1.10173
1.09713
1.09357
1.08771
1.07742
1.0667
1.06001
1.05437
1.04789
1.0462
1.04718
1.04704
1.04773
1.04579
1.04183
1.04119
1.0416
1.03881
1.03466
1.02996
1.02193
1.01479
1.01116
1.00949
1.00773
1.00171
0.996899
0.991576
0.978138
0.968287
0.965274
0.960632
0.956405
0.955454
0.956592
0.953379
0.945796
0.941348
0.936646
0.931101
0.928256
0.922252
0.912566
0.904171
0.897177
0.890921
0.884862
0.877298
0.867407
0.858294
0.852741
0.849571
0.845189
0.838154
0.834764
0.833277
0.825741
0.818258
0.814055
0.80703
0.796457
0.787094
0.780994
0.775314
0.773927
0.777719
0.780333
0.781895
0.779528
0.771668
0.763219
0.754887
0.745173
0.734735
0.728001
0.722099
0.712062
0.704181
0.699568
0.693927
0.688695
0.684956
0.679105
0.669962
0.661607
0.654161
0.649266
0.647534
0.642441
0.635387
0.629303
0.625125
0.626123
0.627596
0.625701
0.62109
0.612763
0.604581
0.602024
0.603305
0.603131
0.601807
0.599578
0.592302
0.581227
0.570359
0.561017
0.554136
0.549764
0.546728
0.541939
0.535043
0.528524
0.522053
0.517382
0.516633
0.517026
0.515019
0.509661
0.504994
0.502601
0.499756
0.49703
0.492703
0.4851
0.475431
0.464616
0.455985
0.447787
0.438798
0.433394
0.428909
0.422604
0.415766
0.408433
0.40278
0.400532
0.399679
0.397788
0.397272
0.398795
0.39775
0.394391
0.389713
0.384764
0.383218
0.3834
0.382416
0.378269
0.370505
0.362133
0.354052
0.347744
0.341332
0.33223
0.325743
0.3198
0.31009
0.30197
0.295322
0.286521
0.277963
0.270936
0.263643
0.257101
0.250207
0.238996
0.229339
0.224323
0.218057
0.211605
0.205031
0.197147
0.190129
0.182242
0.17365
0.166216
0.159631
0.153055
0.146289
0.139783
0.132395
0.124467
0.117573
0.113485
0.110724
0.105175
0.0975922
0.0877049
0.0798151
0.0794292
0.0767037
0.0676675
0.060553
0.0537303
0.04529
0.0416012
0.0389908
0.0296697
0.0199449
0.0143603
0.0108908
-0.000240645
-2.95049
-3226.1
-1037.11
539.797
495.14
26.0412
-134.641
-57.3438
19.1052
25.4757
5.32813
-4.25857
-1.97573
1.72747
2.45958
1.63177
1.08856
1.12424
1.30412
1.36135
1.32136
1.28384
1.28057
1.28747
1.28251
1.2676
1.25043
1.24479
1.25143
1.254
1.25085
1.24988
1.25109
1.24356
1.22752
1.21623
1.20972
1.20238
1.18672
1.16543
1.15443
1.15084
1.1435
1.13368
1.12564
1.12207
1.11465
1.09927
1.09039
1.08889
1.08461
1.07796
1.06873
1.05934
1.05384
1.0488
1.04531
1.04673
1.05011
1.04961
1.04546
1.04407
1.04155
1.03542
1.03122
1.02951
1.03041
1.02838
1.02314
1.01956
1.01202
1.00346
0.998881
0.993286
0.985085
0.976349
0.970024
0.965128
0.961945
0.95943
0.954237
0.953668
0.953789
0.946688
0.942712
0.940843
0.933728
0.925689
0.918096
0.910969
0.90396
0.896132
0.888969
0.883438
0.879312
0.870512
0.857673
0.850532
0.847331
0.844515
0.842603
0.839344
0.834449
0.827267
0.817392
0.808658
0.80374
0.795467
0.783619
0.778187
0.774412
0.774756
0.784136
0.787614
0.785221
0.780553
0.768668
0.758387
0.752424
0.744082
0.735801
0.730445
0.721999
0.710705
0.703889
0.699182
0.694542
0.689004
0.681627
0.676732
0.671214
0.664411
0.658786
0.650927
0.643225
0.638618
0.635189
0.630064
0.625383
0.62604
0.626471
0.622945
0.618752
0.614819
0.611348
0.607203
0.60439
0.602913
0.598242
0.593542
0.589378
0.580818
0.571943
0.565742
0.557982
0.550465
0.545779
0.539629
0.533072
0.528737
0.523028
0.517765
0.514887
0.512604
0.512234
0.510699
0.508372
0.507761
0.502661
0.494749
0.487768
0.480322
0.474837
0.468257
0.458913
0.449413
0.439101
0.430302
0.423838
0.418827
0.414922
0.410424
0.40558
0.40183
0.401094
0.400522
0.398036
0.396937
0.395173
0.392655
0.390793
0.386817
0.383428
0.382464
0.382091
0.380026
0.373823
0.365288
0.354951
0.344768
0.337431
0.330874
0.326958
0.323775
0.314926
0.301818
0.289413
0.282057
0.277535
0.27255
0.267623
0.259472
0.248449
0.238308
0.230402
0.224361
0.218143
0.212455
0.204849
0.194697
0.186637
0.179261
0.172057
0.166182
0.161004
0.155912
0.148688
0.140706
0.133723
0.126327
0.117695
0.110463
0.105714
0.100678
0.0968334
0.0910776
0.082245
0.0788012
0.0764137
0.0696529
0.0637215
0.0563202
0.046285
0.0388471
0.0320696
0.0256055
0.0227411
0.0183379
0.00982208
0.00454846
-2.95068
-3226.09
-1037.11
539.795
495.133
26.0386
-134.638
-57.3372
19.1146
25.4857
5.3377
-4.25348
-1.97879
1.72256
2.45623
1.63157
1.09499
1.13611
1.30993
1.353
1.3156
1.2914
1.2856
1.28297
1.27999
1.26864
1.25085
1.24323
1.24966
1.25877
1.26087
1.25361
1.24665
1.23968
1.22707
1.21537
1.20506
1.19638
1.18746
1.17319
1.16241
1.15614
1.14353
1.1291
1.12144
1.11811
1.11417
1.1059
1.09644
1.08933
1.08285
1.07695
1.06811
1.05714
1.05222
1.04925
1.04522
1.04746
1.05314
1.05177
1.04501
1.0446
1.04506
1.03744
1.0332
1.0343
1.02847
1.01764
1.01539
1.01709
1.01131
1.00855
1.00722
0.996099
0.984203
0.976089
0.970456
0.966008
0.960973
0.959337
0.956452
0.952741
0.95252
0.94794
0.942075
0.938999
0.932727
0.925147
0.917863
0.910949
0.905514
0.898478
0.891916
0.8879
0.88031
0.868628
0.859084
0.849524
0.840469
0.840613
0.842131
0.837702
0.83494
0.83054
0.820792
0.810498
0.803228
0.797459
0.786646
0.77665
0.775441
0.779648
0.784205
0.78386
0.781493
0.777379
0.768397
0.760088
0.753128
0.74604
0.738489
0.72839
0.71835
0.711542
0.706605
0.699641
0.693034
0.68791
0.681317
0.676953
0.671273
0.662014
0.656413
0.651768
0.644768
0.638633
0.635336
0.632852
0.629912
0.630386
0.629872
0.622232
0.61296
0.607356
0.606519
0.607916
0.608501
0.608142
0.60392
0.594792
0.585412
0.578274
0.571029
0.563451
0.557335
0.551276
0.545538
0.54056
0.534022
0.527349
0.522281
0.518801
0.515719
0.512307
0.511995
0.511346
0.508166
0.508197
0.505811
0.497577
0.489026
0.479758
0.471255
0.464694
0.45774
0.449251
0.43999
0.433135
0.426493
0.418977
0.4138
0.409844
0.406385
0.403257
0.401003
0.399834
0.398529
0.398056
0.396142
0.39247
0.389381
0.386355
0.385518
0.384842
0.381656
0.377125
0.369652
0.362263
0.35545
0.346475
0.339306
0.333138
0.326787
0.321672
0.313377
0.3016
0.29141
0.284513
0.278908
0.274163
0.268688
0.257374
0.244729
0.236413
0.230311
0.225195
0.218403
0.211127
0.205085
0.196677
0.188093
0.181942
0.175339
0.166583
0.158831
0.153818
0.147454
0.139391
0.131575
0.124076
0.117922
0.113685
0.109181
0.101607
0.0953845
0.0910389
0.0836602
0.0783015
0.0749689
0.0679224
0.061059
0.0553504
0.0482999
0.0416922
0.0343625
0.0273014
0.0230097
0.0168053
0.00725156
0.0018996
-2.95524
-3226.1
-1037.12
539.788
495.132
26.0334
-134.647
-57.3447
19.1077
25.4791
5.33077
-4.2567
-1.98046
1.7199
2.45664
1.63294
1.09476
1.13153
1.30388
1.35716
1.32407
1.28966
1.27686
1.27636
1.27521
1.26654
1.25234
1.24447
1.24866
1.2566
1.2617
1.25726
1.24885
1.24191
1.22955
1.21483
1.20278
1.19255
1.18245
1.16996
1.15829
1.15102
1.14406
1.13552
1.12696
1.11808
1.11015
1.10262
1.09613
1.09238
1.0855
1.07491
1.06431
1.05447
1.05169
1.05392
1.05161
1.04647
1.04596
1.04944
1.04908
1.0461
1.04165
1.03515
1.03371
1.03334
1.02805
1.02046
1.01563
1.01545
1.01118
1.00743
1.00695
0.995444
0.982022
0.976591
0.969955
0.963475
0.962054
0.962643
0.95865
0.952209
0.950251
0.94761
0.942418
0.937895
0.932389
0.925855
0.917987
0.90993
0.903267
0.897593
0.892614
0.885677
0.876688
0.867286
0.858937
0.852224
0.84508
0.841318
0.840622
0.836695
0.832538
0.829237
0.823005
0.812423
0.801544
0.79446
0.785101
0.776642
0.777323
0.781823
0.785243
0.785488
0.782082
0.776218
0.76812
0.760085
0.751384
0.744506
0.739181
0.728883
0.717734
0.710359
0.703604
0.696468
0.690967
0.686269
0.680663
0.677418
0.673737
0.666798
0.660457
0.652302
0.643139
0.636496
0.632054
0.631037
0.630301
0.62911
0.628791
0.62425
0.615983
0.610301
0.60823
0.606749
0.605998
0.605865
0.602876
0.596919
0.58844
0.578262
0.568555
0.559691
0.555231
0.553528
0.547439
0.539784
0.533072
0.525692
0.521434
0.520555
0.517061
0.51196
0.511327
0.511251
0.508264
0.506473
0.503013
0.497567
0.492239
0.482895
0.472512
0.463147
0.453098
0.445394
0.439235
0.43304
0.426756
0.420406
0.41463
0.408817
0.405424
0.403792
0.40177
0.401456
0.401188
0.399734
0.397219
0.39292
0.387694
0.382961
0.382865
0.384954
0.383191
0.378564
0.369966
0.359808
0.352633
0.345357
0.339212
0.335893
0.330514
0.322202
0.313759
0.303499
0.290453
0.281854
0.278196
0.2729
0.266457
0.25793
0.247784
0.240602
0.233846
0.225347
0.21607
0.207537
0.201495
0.194717
0.186261
0.180067
0.175996
0.170078
0.16283
0.155641
0.145585
0.135214
0.128504
0.123606
0.119573
0.115753
0.110014
0.100894
0.0920735
0.0874799
0.0840121
0.0802944
0.0754748
0.0681776
0.0623395
0.057319
0.0490831
0.0405906
0.0328978
0.02574
0.0214724
0.0172973
0.0111349
0.0039468
-2.95995
-3226.11
-1037.13
539.788
495.134
26.0345
-134.647
-57.3445
19.1101
25.4825
5.33213
-4.25417
-1.97341
1.72439
2.45338
1.62967
1.099
1.13864
1.30851
1.35583
1.32263
1.29317
1.28069
1.28158
1.27661
1.26239
1.25593
1.25158
1.24936
1.25281
1.25431
1.25125
1.25002
1.24415
1.22726
1.21452
1.20649
1.19385
1.18375
1.17574
1.16109
1.14671
1.14036
1.13585
1.12913
1.12137
1.11315
1.1052
1.09814
1.09142
1.08219
1.0728
1.06435
1.05482
1.05178
1.05435
1.05457
1.05262
1.04908
1.0482
1.04844
1.04461
1.04126
1.03915
1.03565
1.03096
1.02526
1.01807
1.01367
1.01607
1.01553
1.01066
1.00567
0.994693
0.983063
0.975841
0.971355
0.967971
0.96018
0.957853
0.960928
0.956311
0.952998
0.950123
0.939859
0.932107
0.928512
0.92496
0.920515
0.913045
0.905785
0.900834
0.894363
0.885694
0.87539
0.862757
0.85471
0.851835
0.845914
0.843393
0.844267
0.838896
0.833149
0.828621
0.821514
0.812788
0.802044
0.79325
0.785752
0.780621
0.782877
0.784609
0.783488
0.783335
0.780179
0.775013
0.770521
0.762252
0.751279
0.744429
0.736687
0.725732
0.719983
0.713611
0.702528
0.694046
0.68759
0.683361
0.681841
0.679043
0.67448
0.668097
0.659668
0.651772
0.646705
0.640664
0.633891
0.632195
0.630206
0.626285
0.625979
0.623743
0.617441
0.612629
0.609908
0.608476
0.607363
0.605249
0.601923
0.595372
0.585394
0.576801
0.569849
0.562103
0.557616
0.553441
0.545306
0.538603
0.532354
0.525292
0.521495
0.519364
0.517472
0.514891
0.512102
0.51181
0.511043
0.507353
0.501883
0.496229
0.490177
0.482134
0.473765
0.463802
0.453225
0.445926
0.438111
0.431017
0.426671
0.420481
0.41497
0.412182
0.409162
0.405515
0.402589
0.401118
0.400192
0.399823
0.397956
0.393592
0.389518
0.385151
0.382633
0.382307
0.379405
0.375265
0.369637
0.361874
0.354385
0.346054
0.339643
0.336444
0.330674
0.321186
0.311853
0.303283
0.293634
0.285695
0.279968
0.272169
0.264171
0.256284
0.247097
0.240025
0.233954
0.226365
0.217506
0.2076
0.199776
0.194525
0.187724
0.180327
0.175765
0.171016
0.16362
0.155342
0.145221
0.134464
0.127735
0.123922
0.118601
0.113563
0.110108
0.101556
0.0913024
0.0883195
0.0855107
0.0798076
0.0768021
0.0709277
0.0618014
0.0554871
0.0479402
0.0407987
0.0364226
0.0284954
0.0198146
0.0150736
0.00949318
0.00266458
-2.96262
-3226.12
-1037.13
539.786
495.133
26.0311
-134.654
-57.3513
19.107
25.4816
5.32945
-4.25942
-1.97917
1.72202
2.45911
1.63158
1.09209
1.13457
1.31262
1.36485
1.32378
1.28791
1.27868
1.27704
1.2699
1.26155
1.25828
1.25363
1.25046
1.2514
1.25364
1.25488
1.25078
1.23679
1.21849
1.21072
1.20781
1.1953
1.18064
1.17212
1.16036
1.14699
1.14318
1.1402
1.1301
1.11799
1.10809
1.10276
1.10004
1.09503
1.08434
1.07132
1.06095
1.05297
1.05243
1.05684
1.05531
1.05085
1.04812
1.04796
1.04954
1.04799
1.04243
1.0368
1.03407
1.02891
1.02192
1.01782
1.0136
1.01429
1.01657
1.00984
1.00201
0.993473
0.983668
0.978634
0.972935
0.966342
0.961405
0.958535
0.958961
0.95677
0.951777
0.947506
0.94199
0.934191
0.9268
0.921984
0.916705
0.911465
0.907368
0.901237
0.893352
0.884421
0.875219
0.864458
0.853676
0.849724
0.84672
0.840962
0.840182
0.840482
0.835477
0.828076
0.821599
0.812981
0.801093
0.792364
0.786757
0.784011
0.785084
0.783643
0.781341
0.782415
0.781593
0.776377
0.768499
0.759694
0.751357
0.743893
0.736533
0.72836
0.719066
0.707729
0.69755
0.691526
0.68725
0.684678
0.682908
0.679518
0.675052
0.668898
0.660534
0.651057
0.643879
0.640596
0.636878
0.633608
0.633088
0.629088
0.621996
0.619524
0.618401
0.613058
0.609624
0.609477
0.60673
0.604286
0.602847
0.596469
0.585969
0.575386
0.566304
0.560127
0.556957
0.55325
0.54576
0.537761
0.531799
0.52657
0.522036
0.51847
0.515787
0.513345
0.512652
0.513866
0.51222
0.507577
0.501712
0.495169
0.489069
0.481078
0.472017
0.463112
0.453155
0.444676
0.437236
0.430696
0.425996
0.42074
0.41615
0.412609
0.409059
0.406162
0.40369
0.402774
0.402221
0.40005
0.396455
0.392104
0.389008
0.386518
0.384226
0.381912
0.377227
0.37214
0.366949
0.359701
0.353004
0.348173
0.343366
0.337429
0.330956
0.322261
0.311074
0.301938
0.294004
0.286033
0.280382
0.272992
0.263296
0.256326
0.24959
0.240623
0.231895
0.222987
0.214455
0.207845
0.201334
0.195595
0.18918
0.180107
0.174343
0.17185
0.164699
0.152975
0.141374
0.132166
0.127493
0.125665
0.120489
0.112702
0.106247
0.0985906
0.0917357
0.0896448
0.0869698
0.0815133
0.0770654
0.0712715
0.0626808
0.0549852
0.0471272
0.0401317
0.0346906
0.0265404
0.0201241
0.0161517
0.0093161
0.00272287
-2.96264
-3226.12
-1037.13
539.782
495.13
26.0293
-134.656
-57.3527
19.1046
25.483
5.33595
-4.26048
-1.98105
1.72346
2.45571
1.63101
1.09678
1.13859
1.3144
1.36454
1.32638
1.29408
1.2811
1.27735
1.2764
1.26687
1.25483
1.25072
1.25196
1.25142
1.25113
1.25097
1.24556
1.23403
1.22099
1.21399
1.2075
1.19378
1.18099
1.1736
1.16466
1.15488
1.1468
1.13536
1.12468
1.11968
1.11468
1.1067
1.0984
1.09209
1.08288
1.0703
1.06309
1.05848
1.05555
1.0561
1.05396
1.05279
1.05203
1.04799
1.04782
1.04814
1.04338
1.04002
1.03697
1.02657
1.01751
1.01703
1.01436
1.01399
1.01859
1.01279
1.00074
0.993158
0.986891
0.979054
0.971421
0.968552
0.963696
0.957633
0.959878
0.959651
0.952905
0.946503
0.93953
0.933208
0.926721
0.919977
0.915693
0.912502
0.908811
0.903278
0.893937
0.882421
0.873849
0.864532
0.853299
0.849281
0.847807
0.843804
0.841815
0.840275
0.836534
0.829272
0.821499
0.813627
0.800763
0.790675
0.788003
0.787308
0.788566
0.786681
0.781484
0.781598
0.782206
0.776976
0.770152
0.761347
0.750449
0.742344
0.734617
0.726271
0.718865
0.707516
0.695764
0.689782
0.685559
0.683974
0.685729
0.682482
0.674641
0.66864
0.6613
0.651854
0.646921
0.643746
0.637005
0.632984
0.632771
0.62899
0.624052
0.62156
0.617381
0.612336
0.609887
0.609291
0.609007
0.607108
0.602214
0.593793
0.582773
0.573557
0.568249
0.563325
0.557538
0.55152
0.544975
0.538534
0.531675
0.525727
0.521817
0.517695
0.51626
0.517139
0.514812
0.512371
0.511244
0.507541
0.501818
0.496199
0.489574
0.479886
0.471267
0.463624
0.452195
0.443476
0.43833
0.430356
0.424332
0.421864
0.418712
0.415611
0.411684
0.405758
0.402584
0.403842
0.403868
0.40156
0.398011
0.392114
0.388176
0.387353
0.385016
0.380344
0.375325
0.370886
0.365126
0.359118
0.355025
0.35063
0.345386
0.338329
0.329488
0.320963
0.311119
0.301829
0.295589
0.288873
0.281066
0.27363
0.264479
0.255093
0.247886
0.239981
0.231369
0.222647
0.214347
0.208711
0.201825
0.194674
0.190229
0.182424
0.174302
0.170418
0.163125
0.15121
0.141924
0.134304
0.126376
0.123645
0.121091
0.111955
0.103821
0.0982057
0.0926758
0.0909108
0.0893148
0.0833208
0.0776424
0.0720194
0.0623653
0.0544546
0.0481693
0.0396193
0.0344531
0.0299699
0.0214865
0.0118824
0.00510728
0.00212857
-2.96385
-3226.12
-1037.14
539.78
495.128
26.0288
-134.656
-57.3569
19.1028
25.4844
5.33228
-4.26785
-1.98686
1.72208
2.45751
1.63178
1.09735
1.14232
1.31567
1.36392
1.32633
1.29306
1.28165
1.27911
1.27829
1.26796
1.25265
1.24792
1.25174
1.25263
1.25138
1.24834
1.238
1.22773
1.22262
1.21364
1.20251
1.19382
1.18072
1.16794
1.16235
1.15879
1.15216
1.13849
1.12331
1.11528
1.11086
1.10716
1.10191
1.09266
1.08174
1.06936
1.06065
1.05995
1.06021
1.0562
1.05144
1.05124
1.05194
1.05117
1.05112
1.04802
1.04225
1.03707
1.032
1.02429
1.01612
1.01613
1.01867
1.01705
1.01497
1.00727
0.997088
0.993166
0.989758
0.981768
0.971311
0.96729
0.965845
0.959928
0.957948
0.956523
0.951132
0.946376
0.939447
0.932683
0.927863
0.920392
0.913362
0.909791
0.905237
0.89912
0.893595
0.884223
0.873968
0.865892
0.854257
0.846572
0.846118
0.844347
0.842096
0.839282
0.835495
0.830465
0.821901
0.811864
0.800946
0.792281
0.788996
0.78804
0.786448
0.784364
0.783298
0.784957
0.784847
0.776664
0.765656
0.758219
0.750811
0.742955
0.735227
0.725718
0.715001
0.703066
0.693154
0.688124
0.685087
0.684183
0.685058
0.681681
0.674826
0.669722
0.663166
0.654027
0.647108
0.641679
0.637399
0.635442
0.63306
0.629387
0.625044
0.619583
0.615189
0.613227
0.61087
0.608447
0.608361
0.606506
0.600415
0.593446
0.58432
0.573428
0.566524
0.561522
0.554626
0.549862
0.545492
0.538384
0.532868
0.528151
0.521035
0.515498
0.515028
0.516851
0.51709
0.514317
0.509271
0.505059
0.501428
0.495009
0.487424
0.480118
0.472053
0.462421
0.451064
0.442707
0.437849
0.431842
0.425745
0.420781
0.417377
0.415353
0.411506
0.406812
0.404591
0.404619
0.404669
0.402751
0.397804
0.391399
0.387972
0.386946
0.384305
0.3799
0.374539
0.368567
0.362846
0.35843
0.354678
0.350972
0.347317
0.339511
0.329592
0.321873
0.311351
0.300921
0.295575
0.288921
0.2809
0.274531
0.264184
0.253561
0.248767
0.240824
0.229734
0.221528
0.213242
0.208039
0.203094
0.194164
0.188634
0.18342
0.175363
0.168941
0.160305
0.148714
0.140789
0.135335
0.128173
0.123224
0.118759
0.109433
0.101054
0.097029
0.0949575
0.0929892
0.0896261
0.0852547
0.0784611
0.0697391
0.0626975
0.0571824
0.0483262
0.0374694
0.031509
0.0274262
0.0223103
0.0148684
0.0058832
0.00170823
-2.96318
-3226.12
-1037.14
539.779
495.125
26.027
-134.656
-57.3545
19.1014
25.4741
5.32658
-4.261
-1.97862
1.7208
2.44943
1.63285
1.10887
1.14768
1.3104
1.35925
1.32815
1.297
1.28804
1.2841
1.27574
1.26499
1.25848
1.25443
1.24955
1.24869
1.24747
1.24093
1.23505
1.23129
1.22475
1.21278
1.1998
1.19168
1.18275
1.17274
1.1673
1.16067
1.14833
1.13396
1.12488
1.12145
1.11499
1.10667
1.10064
1.09037
1.07838
1.07267
1.06853
1.06313
1.06023
1.05684
1.05208
1.05225
1.05279
1.05008
1.05037
1.04938
1.04378
1.0374
1.0295
1.0216
1.01745
1.01803
1.01897
1.01717
1.01402
1.00802
1.00158
0.994152
0.985541
0.980805
0.974868
0.969169
0.96742
0.961872
0.959228
0.959804
0.952983
0.943532
0.935604
0.929445
0.925579
0.920928
0.916289
0.912043
0.905079
0.897954
0.892288
0.882511
0.872249
0.865242
0.855826
0.849674
0.848585
0.846803
0.844114
0.838875
0.834621
0.831129
0.820849
0.810185
0.801959
0.793743
0.792148
0.792604
0.787521
0.785238
0.78664
0.78487
0.783347
0.778129
0.766561
0.757684
0.750205
0.74224
0.73516
0.724296
0.712706
0.703078
0.692454
0.685754
0.685359
0.685057
0.683972
0.682361
0.675779
0.668725
0.665
0.657787
0.648684
0.643188
0.638969
0.635658
0.633255
0.629662
0.625414
0.620409
0.615594
0.614019
0.612508
0.609073
0.608479
0.606379
0.598127
0.590354
0.583212
0.574621
0.56907
0.563448
0.555282
0.549846
0.54491
0.537688
0.531612
0.525525
0.520231
0.519256
0.519184
0.518324
0.517706
0.51392
0.507217
0.50339
0.500698
0.494469
0.488265
0.481839
0.471551
0.460994
0.451203
0.442196
0.436773
0.432247
0.427265
0.423897
0.420544
0.415594
0.410321
0.406679
0.405026
0.404904
0.405684
0.404375
0.399041
0.393305
0.390067
0.386673
0.382764
0.378445
0.371687
0.366854
0.365125
0.36198
0.357145
0.351316
0.345552
0.33864
0.329078
0.32079
0.313069
0.303998
0.297296
0.291207
0.282066
0.272921
0.263326
0.252794
0.2467
0.240174
0.230187
0.223508
0.215393
0.206824
0.201735
0.193813
0.186915
0.183417
0.176461
0.167236
0.159152
0.150042
0.140636
0.134896
0.129353
0.122036
0.116113
0.10911
0.101799
0.097905
0.0956961
0.0925138
0.0892693
0.0864876
0.0807376
0.0718785
0.0633707
0.0550317
0.0468458
0.0390158
0.0324809
0.0276207
0.0222366
0.0134393
0.00594257
0.00259645
-2.96676
-3226.13
-1037.14
539.782
495.129
26.0264
-134.659
-57.3588
19.0973
25.4764
5.33089
-4.26459
-1.98895
1.71638
2.45566
1.63892
1.11254
1.14866
1.30567
1.35564
1.3292
1.29712
1.28874
1.28414
1.27328
1.26863
1.2653
1.25516
1.24557
1.24382
1.24404
1.24119
1.23652
1.22779
1.22105
1.21404
1.19876
1.18765
1.18172
1.17477
1.16874
1.15721
1.14395
1.13649
1.12847
1.1185
1.11338
1.11102
1.10076
1.08599
1.0791
1.07499
1.06917
1.0675
1.06289
1.05403
1.05051
1.05156
1.0532
1.05349
1.05065
1.04656
1.04203
1.034
1.0255
1.02145
1.01879
1.01893
1.02096
1.01633
1.00923
1.00634
1.00293
0.994907
0.984813
0.979849
0.975222
0.968187
0.967302
0.966533
0.961419
0.956573
0.95038
0.942297
0.933933
0.928138
0.924959
0.921037
0.915955
0.909695
0.902369
0.895314
0.889736
0.882965
0.873071
0.864639
0.857883
0.850457
0.845238
0.844824
0.845881
0.840458
0.833762
0.829608
0.819363
0.807713
0.80284
0.797827
0.792375
0.789915
0.787099
0.787122
0.789965
0.786927
0.780681
0.774891
0.766754
0.758983
0.750034
0.740238
0.732342
0.721869
0.710198
0.700495
0.691463
0.687099
0.685973
0.682191
0.680517
0.681557
0.676942
0.669912
0.665163
0.658007
0.650208
0.643931
0.638727
0.637124
0.634971
0.629246
0.624484
0.619812
0.614844
0.613921
0.613934
0.610173
0.606256
0.603088
0.596605
0.589117
0.583049
0.57491
0.566648
0.562618
0.558348
0.550099
0.541995
0.535875
0.530453
0.525493
0.521903
0.520375
0.519512
0.518183
0.516821
0.512825
0.506275
0.50209
0.499185
0.494033
0.488591
0.481222
0.469193
0.458474
0.451037
0.443635
0.437831
0.432987
0.427985
0.424225
0.419608
0.413898
0.410194
0.40763
0.405505
0.405248
0.405663
0.404131
0.399999
0.394849
0.390325
0.385991
0.381479
0.376408
0.370499
0.366715
0.36523
0.362754
0.358328
0.351175
0.343818
0.337718
0.329662
0.32159
0.313824
0.303862
0.296966
0.293097
0.283187
0.270549
0.262037
0.253373
0.245844
0.239489
0.230281
0.222785
0.215231
0.206048
0.200136
0.192793
0.185305
0.182162
0.1764
0.166142
0.156832
0.149033
0.141547
0.136222
0.130686
0.121305
0.111769
0.105765
0.102753
0.099234
0.0958535
0.0953687
0.0918152
0.0862471
0.0816165
0.0730738
0.0611622
0.0522071
0.0459127
0.0389982
0.0325899
0.0272706
0.0209502
0.0137884
0.00591249
0.00107223
-2.96813
-3226.13
-1037.14
539.781
495.127
26.0271
-134.659
-57.3632
19.0963
25.4751
5.32766
-4.26084
-1.98462
1.71702
2.46
1.6438
1.10559
1.13945
1.31179
1.3662
1.33128
1.29372
1.28161
1.28191
1.28193
1.27665
1.26487
1.25364
1.24461
1.2389
1.24003
1.23954
1.2356
1.22942
1.22096
1.21201
1.19691
1.18422
1.18331
1.18102
1.16852
1.15337
1.14234
1.13626
1.13175
1.12441
1.11563
1.10702
1.09713
1.08882
1.0838
1.07922
1.07476
1.06909
1.05983
1.05373
1.05306
1.05195
1.05289
1.05512
1.05138
1.04393
1.03811
1.03262
1.02756
1.02501
1.02194
1.01845
1.0169
1.01469
1.01369
1.01009
1.00076
0.992793
0.986867
0.981838
0.977791
0.969985
0.964916
0.96671
0.965352
0.958701
0.951329
0.943059
0.933687
0.925865
0.920759
0.917733
0.915728
0.911297
0.903524
0.895521
0.888629
0.881092
0.872563
0.865313
0.859329
0.853743
0.847526
0.842649
0.843576
0.843885
0.836836
0.828433
0.818756
0.80801
0.801822
0.798565
0.794935
0.793465
0.791961
0.789574
0.789564
0.787162
0.780875
0.774071
0.766556
0.75945
0.751158
0.741202
0.731198
0.71892
0.707811
0.699993
0.692246
0.686973
0.684544
0.682764
0.682272
0.681559
0.676738
0.669234
0.663511
0.658804
0.653718
0.648452
0.642408
0.637945
0.633847
0.628143
0.624756
0.622188
0.617457
0.614025
0.612511
0.609683
0.606715
0.603042
0.595427
0.587331
0.581179
0.574234
0.56765
0.563829
0.559982
0.552633
0.543608
0.535517
0.528127
0.523341
0.522145
0.522688
0.523007
0.52055
0.516207
0.511613
0.505077
0.500009
0.498765
0.495259
0.488206
0.4806
0.46986
0.458486
0.45118
0.444074
0.436956
0.433686
0.430739
0.426309
0.42039
0.413983
0.410033
0.407542
0.405994
0.406351
0.405938
0.403971
0.400728
0.395983
0.392046
0.387749
0.381109
0.374762
0.369935
0.367455
0.366578
0.36404
0.359644
0.352442
0.343648
0.336722
0.328952
0.320339
0.314172
0.30747
0.300059
0.293589
0.282879
0.270115
0.262328
0.254119
0.244857
0.238889
0.230779
0.222036
0.214641
0.205384
0.19881
0.192853
0.185207
0.180282
0.174335
0.165132
0.157068
0.150078
0.143011
0.136916
0.129544
0.120075
0.111591
0.105218
0.102389
0.100782
0.0971448
0.0953417
0.0932768
0.0876145
0.0821492
0.074029
0.0621973
0.0515828
0.0443138
0.0391711
0.0338413
0.0262703
0.0167612
0.00998671
0.0072124
0.0032873
-2.96934
-3226.13
-1037.14
539.781
495.128
26.0237
-134.665
-57.3624
19.1027
25.4837
5.32977
-4.26976
-1.9918
1.72324
2.46403
1.63439
1.10194
1.14463
1.31236
1.367
1.33136
1.28859
1.2814
1.28925
1.28645
1.27607
1.26196
1.24949
1.24254
1.23903
1.24134
1.24122
1.23535
1.22762
1.21866
1.21087
1.19808
1.1838
1.1796
1.17608
1.16395
1.15245
1.14649
1.13934
1.13155
1.12468
1.11497
1.10346
1.09563
1.09185
1.08815
1.08345
1.07772
1.07011
1.05782
1.04922
1.05174
1.05413
1.05538
1.05763
1.04876
1.03746
1.03645
1.03263
1.02578
1.02577
1.02364
1.01762
1.01607
1.01524
1.01232
1.0072
0.99926
0.994392
0.988843
0.980504
0.976434
0.971592
0.966634
0.967912
0.964474
0.95609
0.950325
0.941567
0.932138
0.927193
0.922173
0.917307
0.913054
0.906775
0.900699
0.894386
0.886607
0.880453
0.874967
0.866838
0.859296
0.853017
0.845278
0.841865
0.844493
0.843224
0.835425
0.825982
0.81713
0.80884
0.803951
0.80071
0.795147
0.792665
0.793953
0.792279
0.789417
0.785428
0.778757
0.773354
0.768123
0.760376
0.749685
0.738605
0.729209
0.71774
0.706026
0.697714
0.691318
0.686449
0.683415
0.68242
0.682084
0.680023
0.675713
0.669262
0.66297
0.658718
0.65491
0.649386
0.643187
0.638769
0.634684
0.629012
0.623853
0.620915
0.617936
0.614376
0.611844
0.609188
0.604525
0.599517
0.594432
0.587216
0.579431
0.573701
0.568707
0.563843
0.559706
0.552275
0.541717
0.534132
0.528817
0.524864
0.523734
0.523273
0.52255
0.519745
0.51426
0.509289
0.5045
0.500439
0.498533
0.494855
0.487175
0.477866
0.467361
0.457551
0.451782
0.445729
0.438338
0.434358
0.430316
0.424808
0.420667
0.414849
0.409232
0.40673
0.405504
0.405895
0.406581
0.405001
0.401319
0.396604
0.391914
0.386244
0.380119
0.375567
0.37148
0.368325
0.366356
0.362973
0.358579
0.35222
0.342973
0.335968
0.33036
0.321698
0.31422
0.30856
0.300019
0.291297
0.28209
0.270475
0.26194
0.255244
0.246279
0.237853
0.228357
0.218926
0.212456
0.205003
0.197585
0.191672
0.184995
0.178615
0.171243
0.162697
0.15636
0.151507
0.145634
0.137326
0.126597
0.117568
0.111527
0.106277
0.103195
0.101829
0.0991557
0.0978152
0.095491
0.0876618
0.0791477
0.0699912
0.0598344
0.0512838
0.0447445
0.040016
0.0335452
0.0234594
0.0141864
0.00962742
0.0072614
0.00329292
-2.96606
-3226.12
-1037.14
539.773
495.12
26.0227
-134.66
-57.3576
19.1002
25.4751
5.32596
-4.26195
-1.98003
1.7218
2.45542
1.63486
1.10629
1.14708
1.3158
1.36539
1.32725
1.29113
1.2882
1.29436
1.28772
1.27503
1.26045
1.24592
1.23981
1.2403
1.24076
1.23778
1.23401
1.22901
1.21898
1.20898
1.19708
1.18497
1.17914
1.17151
1.16102
1.1547
1.14891
1.14156
1.1356
1.12571
1.11163
1.10183
1.09874
1.09718
1.09374
1.08755
1.0778
1.06704
1.05801
1.05078
1.05146
1.05627
1.05652
1.05607
1.04972
1.03671
1.03113
1.03152
1.02881
1.02747
1.02484
1.01792
1.01542
1.01598
1.01275
1.00751
0.999866
0.993282
0.989256
0.981722
0.976586
0.974991
0.971009
0.968916
0.964583
0.954949
0.948496
0.942116
0.933432
0.926885
0.921214
0.916
0.910977
0.90615
0.901807
0.894568
0.88595
0.879533
0.874316
0.867133
0.859599
0.854124
0.847497
0.842488
0.842888
0.842547
0.836911
0.827021
0.816708
0.80855
0.804072
0.802707
0.799635
0.797316
0.79612
0.791515
0.789
0.787486
0.781473
0.773723
0.766621
0.759766
0.750332
0.738164
0.72724
0.716976
0.706751
0.698565
0.691624
0.685103
0.681755
0.682414
0.683168
0.679957
0.674146
0.668689
0.663284
0.659163
0.657352
0.654131
0.646399
0.638321
0.633795
0.629573
0.625288
0.623155
0.619604
0.614082
0.61046
0.607624
0.603786
0.599197
0.592668
0.585009
0.579485
0.575422
0.57051
0.565066
0.559705
0.552155
0.542307
0.534391
0.528611
0.52545
0.526205
0.525928
0.522689
0.518455
0.513086
0.508173
0.504416
0.501518
0.498855
0.49427
0.486456
0.476378
0.467408
0.459086
0.451271
0.445497
0.440306
0.436352
0.43218
0.425936
0.42009
0.413707
0.408361
0.406339
0.406162
0.40761
0.40781
0.405477
0.402721
0.397968
0.391196
0.385351
0.381081
0.377175
0.373517
0.370863
0.367504
0.362445
0.357384
0.351825
0.343994
0.335668
0.32858
0.322081
0.317555
0.312519
0.301301
0.288725
0.280058
0.271577
0.263648
0.256608
0.24757
0.236923
0.225124
0.215865
0.211878
0.206143
0.197634
0.190731
0.182358
0.174511
0.170075
0.164355
0.158288
0.152605
0.144546
0.135443
0.125976
0.117728
0.112919
0.108533
0.104628
0.104136
0.102831
0.098327
0.094088
0.0880008
0.0788137
0.0688858
0.0593107
0.051504
0.0453544
0.0396708
0.0318967
0.0230825
0.0134282
0.00609746
0.00419687
0.00255885
-2.96692
-3226.12
-1037.14
539.77
495.119
26.0253
-134.657
-57.3561
19.0971
25.4735
5.3316
-4.26082
-1.98412
1.72298
2.45634
1.6348
1.10794
1.1444
1.31009
1.36333
1.33009
1.29824
1.29308
1.29299
1.28667
1.27527
1.25872
1.2439
1.23936
1.24013
1.23924
1.23369
1.22904
1.22881
1.22191
1.20875
1.19533
1.18299
1.17518
1.1707
1.16436
1.15453
1.14727
1.14311
1.13445
1.12392
1.11402
1.10199
1.09721
1.10191
1.09939
1.08919
1.07766
1.06277
1.05337
1.05306
1.05592
1.05908
1.05781
1.05126
1.0429
1.03567
1.03239
1.03025
1.02872
1.02735
1.02308
1.01917
1.01613
1.01311
1.01283
1.00956
0.999352
0.991019
0.986822
0.981231
0.977271
0.976992
0.975347
0.970343
0.962387
0.954177
0.947218
0.937862
0.931625
0.928335
0.921441
0.916541
0.911063
0.903176
0.898477
0.892351
0.885134
0.879943
0.874722
0.868065
0.857395