/*--------------------------------*- C++ -*----------------------------------*\
| =========                 |                                                 |
| \\      /  F ield         | OpenFOAM: The Open Source CFD Toolbox           |
|  \\    /   O peration     | Version:  2406                                  |
|   \\  /    A nd           | Website:  www.openfoam.com                      |
|    \\/     M anipulation  |                                                 |
\*---------------------------------------------------------------------------*/
FoamFile
{
    version     2.0;
    format      ascii;
    arch        "LSB;label=32;scalar=64";
    class       surfaceScalarField;
    location    "1.8";
    object      phi;
}
// * * * * * * * * * * * * * * * * * * * * * * * * * * * * * * * * * * * * * //

dimensions      [0 3 -1 0 0 0 0];

oriented        oriented;

internalField   nonuniform List<scalar> 
12225
(
0.511103
1.56475e-06
0.511097
5.9976e-06
0.51109
7.27449e-06
0.511085
5.41443e-06
0.51108
4.30881e-06
0.511076
4.03399e-06
0.511072
4.2315e-06
0.511067
5.14054e-06
0.511061
6.27934e-06
0.511054
6.79446e-06
0.511047
6.38751e-06
0.511042
5.7489e-06
0.511036
5.57768e-06
0.511031
5.43809e-06
0.511025
5.15276e-06
0.511021
4.89611e-06
0.511016
4.84711e-06
0.511011
5.05074e-06
0.511006
4.99906e-06
0.511001
4.98093e-06
0.510995
5.47755e-06
0.510989
5.80698e-06
0.510984
5.56171e-06
0.510979
5.26155e-06
0.510973
5.35889e-06
0.510967
5.96237e-06
0.510961
6.56044e-06
0.510954
6.32449e-06
0.510949
5.55073e-06
0.510944
5.08405e-06
0.510939
5.16401e-06
0.510933
5.53703e-06
0.510927
5.60676e-06
0.510922
5.41513e-06
0.510917
5.30989e-06
0.510912
4.96667e-06
0.510907
4.67491e-06
0.510902
4.8605e-06
0.510897
5.19718e-06
0.510891
5.78087e-06
0.510885
6.27567e-06
0.510879
5.95734e-06
0.510873
5.62735e-06
0.510867
5.93026e-06
0.510862
5.80566e-06
0.510857
4.93119e-06
0.510852
4.51469e-06
0.510847
4.84638e-06
0.510842
5.16145e-06
0.510837
5.42354e-06
0.510831
5.77225e-06
0.510825
5.76308e-06
0.51082
5.4038e-06
0.510815
5.18347e-06
0.510809
5.17468e-06
0.510804
5.31933e-06
0.510798
5.6263e-06
0.510793
5.61199e-06
0.510788
5.19325e-06
0.510783
5.15774e-06
0.510777
5.46958e-06
0.510772
5.50423e-06
0.510766
5.49171e-06
0.51076
5.64819e-06
0.510755
5.8767e-06
0.510749
6.04459e-06
0.510743
5.82037e-06
0.510737
5.40325e-06
0.510732
4.9719e-06
0.510728
4.56889e-06
0.510723
4.7242e-06
0.510718
5.14644e-06
0.510713
5.29067e-06
0.510707
5.58819e-06
0.510701
6.00632e-06
0.510695
5.96176e-06
0.510689
5.56758e-06
0.510684
5.29505e-06
0.510679
5.20689e-06
0.510674
5.19327e-06
0.510669
5.24752e-06
0.510663
5.2367e-06
0.510658
5.17818e-06
0.510653
5.22007e-06
0.510648
5.24784e-06
0.510642
5.25891e-06
0.510637
5.45772e-06
0.510631
5.77104e-06
0.510625
5.79487e-06
0.51062
5.55942e-06
0.510614
5.52149e-06
0.510609
5.66011e-06
0.510603
5.82719e-06
0.510597
5.94357e-06
0.510591
5.72792e-06
0.510586
5.48831e-06
0.51058
5.54458e-06
0.510575
5.55436e-06
0.510569
5.50193e-06
0.510564
5.33062e-06
0.510559
4.86556e-06
0.510554
4.69303e-06
0.510549
5.03648e-06
0.510544
5.37416e-06
0.510538
5.70643e-06
0.510532
6.05083e-06
0.510526
5.99215e-06
0.51052
5.76819e-06
0.510514
5.77765e-06
0.510509
5.83578e-06
0.510503
5.90004e-06
0.510497
5.70087e-06
0.510492
5.09446e-06
0.510487
4.79517e-06
0.510482
4.87895e-06
0.510477
4.9955e-06
0.510472
5.32753e-06
0.510466
5.70321e-06
0.51046
5.84586e-06
0.510455
5.77989e-06
0.510449
5.59751e-06
0.510443
5.51418e-06
0.510438
5.58609e-06
0.510432
5.61712e-06
0.510427
5.53741e-06
0.510421
5.43968e-06
0.510416
5.37289e-06
0.51041
5.52662e-06
0.510405
5.82857e-06
0.510399
5.81658e-06
0.510393
5.53698e-06
0.510388
5.12942e-06
0.510383
4.73075e-06
0.510378
4.86138e-06
0.510373
5.34326e-06
0.510367
5.64457e-06
0.510362
5.82122e-06
0.510356
5.94065e-06
0.51035
5.91887e-06
0.510344
5.78242e-06
0.510338
5.62707e-06
0.510333
5.48899e-06
0.510328
5.32717e-06
0.510323
5.0018e-06
0.510318
4.62122e-06
0.510313
4.67515e-06
0.510308
5.05129e-06
0.510303
5.33526e-06
0.510297
5.67412e-06
0.510291
5.99694e-06
0.510285
6.04794e-06
0.510279
5.91737e-06
0.510274
5.58695e-06
0.510269
5.10462e-06
0.510264
4.86702e-06
0.510259
5.03835e-06
0.510253
5.34708e-06
0.510248
5.58167e-06
0.510242
5.61155e-06
0.510237
5.39344e-06
0.510232
5.19486e-06
0.510226
5.22598e-06
0.510221
5.42449e-06
0.510215
5.64736e-06
0.51021
5.70344e-06
0.510204
5.56171e-06
0.510199
5.28188e-06
0.510194
5.07084e-06
0.510188
5.19793e-06
0.510183
5.50228e-06
0.510177
5.80944e-06
0.510171
6.00457e-06
0.510165
5.82635e-06
0.51016
5.52568e-06
0.510154
5.41826e-06
0.510149
5.36065e-06
0.510144
5.40355e-06
0.510138
5.67082e-06
0.510132
5.95535e-06
0.510126
6.05541e-06
0.51012
5.97555e-06
0.510114
5.76667e-06
0.510109
5.57564e-06
0.510103
5.51868e-06
0.510098
5.39896e-06
0.510092
5.25384e-06
0.510087
5.34307e-06
0.510081
5.55612e-06
0.510076
5.7733e-06
0.51007
5.83819e-06
0.510064
5.63305e-06
0.510059
5.47259e-06
0.510053
5.5002e-06
0.510048
5.60408e-06
0.510042
5.67048e-06
0.510036
5.57274e-06
0.510031
5.40366e-06
0.510026
5.23905e-06
0.510021
5.17245e-06
0.510015
5.33744e-06
0.51001
5.49488e-06
0.510004
5.41884e-06
0.509999
5.20535e-06
0.509994
4.9784e-06
0.509989
4.8901e-06
0.509984
5.19163e-06
0.509978
5.68535e-06
0.509973
5.78708e-06
0.509967
5.55049e-06
0.509962
5.27352e-06
0.509957
4.98178e-06
0.509952
5.04069e-06
0.509946
5.38045e-06
0.509941
5.43059e-06
0.509936
5.27163e-06
0.509931
5.14654e-06
0.509926
4.99577e-06
0.509921
4.91027e-06
0.509915
5.18892e-06
0.50991
5.79146e-06
0.509903
6.22775e-06
0.509897
6.23917e-06
0.509891
5.9253e-06
0.509886
5.54891e-06
0.50988
5.34381e-06
0.509875
5.2746e-06
0.50987
5.27782e-06
0.509865
5.31672e-06
0.509859
5.30585e-06
0.509854
5.21227e-06
0.509849
5.17523e-06
0.509843
5.3582e-06
0.509838
5.6428e-06
0.509832
5.85535e-06
0.509826
5.82467e-06
0.509821
5.54208e-06
0.509815
5.37582e-06
0.50981
5.45423e-06
0.509804
5.52737e-06
0.509799
5.40921e-06
0.509794
5.20665e-06
0.509788
5.13122e-06
0.509783
5.16572e-06
0.509778
5.39947e-06
0.509772
5.79753e-06
0.509766
5.81539e-06
0.509761
5.49943e-06
0.509756
5.27729e-06
0.50975
5.61201e-06
5.12962e-06
0.511108
-1.03528e-07
0.511114
6.97556e-07
0.511119
2.09846e-06
0.511121
3.38481e-06
0.511122
3.22365e-06
0.511124
2.19599e-06
0.511126
1.63317e-06
0.51113
1.70473e-06
0.511134
1.8037e-06
0.511139
1.74397e-06
0.511144
1.56007e-06
0.511148
1.56703e-06
0.511152
2.19414e-06
0.511154
2.97952e-06
0.511156
3.18037e-06
0.511159
2.59862e-06
0.511162
1.84975e-06
0.511165
1.86257e-06
0.511167
2.75577e-06
0.511168
3.51557e-06
0.511171
3.09678e-06
0.511175
2.04679e-06
0.511178
2.14807e-06
0.51118
2.81644e-06
0.511183
3.01225e-06
0.511186
3.11697e-06
0.511189
3.29588e-06
0.511192
3.20248e-06
0.511195
2.62994e-06
0.511198
1.87616e-06
0.511202
1.62879e-06
0.511205
2.12637e-06
0.511208
2.66005e-06
0.511211
2.55132e-06
0.511214
2.31679e-06
0.511216
2.58186e-06
0.511218
3.14376e-06
0.511219
3.3776e-06
0.511222
2.94879e-06
0.511225
2.30799e-06
0.511229
2.03105e-06
0.511233
2.04115e-06
0.511237
2.14084e-06
0.51124
2.21738e-06
0.511244
2.30412e-06
0.511246
2.44332e-06
0.511249
2.31539e-06
0.511251
1.92792e-06
0.511255
1.8444e-06
0.511258
2.21071e-06
0.511261
2.53143e-06
0.511265
2.46104e-06
0.511268
2.29325e-06
0.51127
2.38456e-06
0.511273
2.59988e-06
0.511276
2.72654e-06
0.511279
2.73124e-06
0.511282
2.60579e-06
0.511284
2.43323e-06
0.511287
2.41294e-06
0.51129
2.57257e-06
0.511293
2.49567e-06
0.511296
2.32181e-06
0.511299
2.56489e-06
0.511302
2.71209e-06
0.511306
2.60534e-06
0.511309
2.94739e-06
0.511311
3.31392e-06
0.511313
3.01724e-06
0.511315
2.62207e-06
0.511317
2.40482e-06
0.51132
1.97476e-06
0.511324
1.75131e-06
0.511327
2.22742e-06
0.51133
2.8078e-06
0.511333
2.9565e-06
0.511336
2.70844e-06
0.511339
2.54131e-06
0.511341
2.66323e-06
0.511344
2.58035e-06
0.511347
2.4849e-06
0.511349
2.68234e-06
0.511352
2.69098e-06
0.511355
2.51732e-06
0.511357
2.44264e-06
0.51136
2.4313e-06
0.511363
2.52432e-06
0.511366
2.63487e-06
0.511369
2.60096e-06
0.511373
2.36674e-06
0.511376
2.06401e-06
0.51138
2.02344e-06
0.511383
2.17806e-06
0.511387
2.35952e-06
0.51139
2.72476e-06
0.511393
2.88433e-06
0.511395
2.64762e-06
0.511398
2.74869e-06
0.511401
3.05992e-06
0.511403
2.82995e-06
0.511406
2.36294e-06
0.511408
2.01997e-06
0.511412
1.79613e-06
0.511415
1.86028e-06
0.511419
2.15149e-06
0.511422
2.56078e-06
0.511425
2.81674e-06
0.511429
2.46008e-06
0.511432
2.03727e-06
0.511436
2.08919e-06
0.51144
2.12474e-06
0.511443
2.18329e-06
0.511446
2.5033e-06
0.511448
2.65909e-06
0.51145
2.5805e-06
0.511453
2.44322e-06
0.511456
2.2482e-06
0.51146
2.18987e-06
0.511463
2.29324e-06
0.511467
2.31152e-06
0.51147
2.41708e-06
0.511473
2.74925e-06
0.511475
2.93815e-06
0.511478
2.80843e-06
0.511481
2.58959e-06
0.511484
2.51701e-06
0.511487
2.51294e-06
0.51149
2.39385e-06
0.511493
2.42046e-06
0.511496
2.63049e-06
0.511499
2.74385e-06
0.511502
2.82737e-06
0.511504
2.72071e-06
0.511506
2.32968e-06
0.511509
2.1194e-06
0.511513
2.24543e-06
0.511516
2.39423e-06
0.51152
2.39308e-06
0.511523
2.32924e-06
0.511527
2.21787e-06
0.51153
2.19473e-06
0.511533
2.43218e-06
0.511536
2.69274e-06
0.511538
2.80262e-06
0.51154
2.70268e-06
0.511542
2.38656e-06
0.511545
2.21484e-06
0.511548
2.25676e-06
0.511552
2.3884e-06
0.511555
2.75122e-06
0.511558
2.99944e-06
0.511561
2.78825e-06
0.511564
2.60522e-06
0.511566
2.65891e-06
0.511569
2.60884e-06
0.511571
2.56999e-06
0.511574
2.58178e-06
0.511577
2.45631e-06
0.51158
2.45562e-06
0.511583
2.58323e-06
0.511586
2.57279e-06
0.511588
2.50281e-06
0.511591
2.46475e-06
0.511594
2.50441e-06
0.511598
2.55247e-06
0.511601
2.495e-06
0.511604
2.45097e-06
0.511606
2.3603e-06
0.511609
2.22152e-06
0.511612
2.30638e-06
0.511616
2.56668e-06
0.511619
2.79226e-06
0.511622
2.87915e-06
0.511625
2.70764e-06
0.511628
2.37707e-06
0.511631
2.19768e-06
0.511634
2.1939e-06
0.511638
2.1964e-06
0.511641
2.26443e-06
0.511645
2.38368e-06
0.511648
2.40297e-06
0.511652
2.38551e-06
0.511655
2.41773e-06
0.511658
2.57415e-06
0.511661
2.8107e-06
0.511663
2.88242e-06
0.511665
2.77337e-06
0.511668
2.64242e-06
0.511672
2.62907e-06
0.511675
2.75e-06
0.511677
2.80214e-06
0.51168
2.71009e-06
0.511683
2.54148e-06
0.511686
2.46063e-06
0.511689
2.67553e-06
0.511692
3.04435e-06
0.511694
3.27323e-06
0.511696
3.1681e-06
0.511698
2.77286e-06
0.511701
2.4098e-06
0.511705
2.25269e-06
0.511708
2.38613e-06
0.51171
2.7558e-06
0.511712
2.98443e-06
0.511714
2.8623e-06
0.511717
2.50839e-06
0.51172
2.25323e-06
0.511724
2.33571e-06
0.511727
2.52607e-06
0.511729
2.5502e-06
0.511732
2.51947e-06
0.511734
2.61733e-06
0.511737
2.77418e-06
0.51174
2.84301e-06
0.511742
2.8216e-06
0.511744
2.66246e-06
0.511747
2.42737e-06
0.51175
2.17697e-06
0.511753
1.91872e-06
0.511757
1.98719e-06
0.511761
2.33622e-06
0.511764
2.46131e-06
0.511768
2.41214e-06
0.511771
2.46022e-06
0.511774
2.60404e-06
0.511776
2.7591e-06
0.511779
2.90798e-06
0.511781
3.05017e-06
0.511783
3.06751e-06
0.511786
2.8321e-06
0.511788
2.35487e-06
0.511792
1.91276e-06
0.511796
1.84132e-06
0.511799
2.14231e-06
0.511803
2.45604e-06
0.511806
2.40468e-06
0.511809
2.16025e-06
0.511812
2.06097e-06
0.511816
2.08411e-06
0.511819
2.21365e-06
0.511822
2.35637e-06
0.511825
2.37693e-06
0.511828
2.32462e-06
0.511831
2.24524e-06
0.511834
2.29116e-06
0.511838
2.53858e-06
0.51184
2.80703e-06
0.511843
2.90523e-06
0.511845
2.77135e-06
2.61199e-06
0.511107
2.08214e-07
0.511107
8.72578e-07
0.511108
1.50696e-06
0.511109
1.67683e-06
0.511111
1.45886e-06
0.511111
1.85159e-06
0.511111
2.37039e-06
0.51111
2.47479e-06
0.511109
2.46402e-06
0.511109
2.34078e-06
0.511108
2.16266e-06
0.511108
1.9595e-06
0.511108
1.90719e-06
0.511109
1.88591e-06
0.51111
1.75011e-06
0.511111
1.8852e-06
0.511111
2.28027e-06
0.51111
2.7401e-06
0.51111
2.92795e-06
0.511111
2.4901e-06
0.511112
1.8428e-06
0.511112
1.67638e-06
0.511112
2.00994e-06
0.511113
2.26347e-06
0.511114
2.41396e-06
0.511114
2.69157e-06
0.511115
2.72972e-06
0.511115
2.5704e-06
0.511115
2.56302e-06
0.511115
2.60843e-06
0.511114
2.48601e-06
0.511113
2.37874e-06
0.511114
2.29951e-06
0.511114
2.04664e-06
0.511115
1.9856e-06
0.511115
2.27034e-06
0.511116
2.55965e-06
0.511116
2.73366e-06
0.511117
2.64332e-06
0.511116
2.32829e-06
0.511116
2.25485e-06
0.511116
2.38534e-06
0.511116
2.21739e-06
0.511116
1.78988e-06
0.511117
1.52409e-06
0.511118
1.63587e-06
0.511118
1.97744e-06
0.511118
2.13553e-06
0.511118
1.97688e-06
0.511118
1.84339e-06
0.511119
1.84424e-06
0.51112
1.80113e-06
0.51112
1.79891e-06
0.51112
1.95527e-06
0.511121
2.05897e-06
0.511122
1.96808e-06
0.511123
1.96141e-06
0.511123
2.39513e-06
0.511122
2.96343e-06
0.511122
2.96548e-06
0.511122
2.56498e-06
0.511122
2.4516e-06
0.511121
2.60029e-06
0.511121
2.62688e-06
0.511121
2.6224e-06
0.511121
2.61017e-06
0.511122
2.18024e-06
0.511124
1.66247e-06
0.511125
1.58551e-06
0.511126
1.6245e-06
0.511127
1.86878e-06
0.511127
2.32896e-06
0.511126
2.51813e-06
0.511125
2.6802e-06
0.511125
2.77859e-06
0.511126
2.63364e-06
0.511126
2.67039e-06
0.511126
2.63758e-06
0.511126
2.20906e-06
0.511127
1.84567e-06
0.511127
1.89168e-06
0.511128
2.22138e-06
0.511128
2.58334e-06
0.511128
2.72652e-06
0.511128
2.60421e-06
0.511128
2.34556e-06
0.511128
2.04741e-06
0.511129
1.8876e-06
0.511129
1.99686e-06
0.51113
2.25279e-06
0.511129
2.47604e-06
0.511129
2.50362e-06
0.511128
2.42409e-06
0.511128
2.4329e-06
0.511129
2.40568e-06
0.511129
2.31413e-06
0.51113
2.18975e-06
0.511131
1.94839e-06
0.511132
1.86616e-06
0.511133
2.04739e-06
0.511133
2.19e-06
0.511132
2.24745e-06
0.511132
2.27199e-06
0.511132
2.14284e-06
0.511132
1.95646e-06
0.511132
1.99089e-06
0.511133
2.21994e-06
0.511133
2.32045e-06
0.511133
2.16706e-06
0.511133
1.86525e-06
0.511134
1.5107e-06
0.511135
1.37522e-06
0.511136
1.57234e-06
0.511136
1.92918e-06
0.511137
2.25873e-06
0.511137
2.41933e-06
0.511137
2.2982e-06
0.511137
2.16943e-06
0.511137
2.28984e-06
0.511137
2.35469e-06
0.511137
2.22412e-06
0.511137
2.23416e-06
0.511138
2.31402e-06
0.511138
2.37092e-06
0.511138
2.55945e-06
0.511138
2.67188e-06
0.511138
2.62393e-06
0.511138
2.51322e-06
0.511138
2.30677e-06
0.511139
2.08177e-06
0.51114
1.84948e-06
0.511141
1.67164e-06
0.511142
1.73323e-06
0.511142
1.96409e-06
0.511142
2.10507e-06
0.511142
2.21649e-06
0.511142
2.41602e-06
0.511142
2.36324e-06
0.511142
2.09823e-06
0.511143
2.02122e-06
0.511143
1.99881e-06
0.511143
2.01081e-06
0.511144
2.15567e-06
0.511144
2.27816e-06
0.511145
2.43022e-06
0.511144
2.59539e-06
0.511144
2.64469e-06
0.511143
2.70771e-06
0.511143
2.70129e-06
0.511143
2.4465e-06
0.511144
2.27681e-06
0.511145
2.32149e-06
0.511145
2.37899e-06
0.511145
2.53385e-06
0.511145
2.59613e-06
0.511145
2.46119e-06
0.511145
2.49519e-06
0.511145
2.51873e-06
0.511145
2.36225e-06
0.511146
2.3061e-06
0.511146
2.21692e-06
0.511146
2.049e-06
0.511147
2.03435e-06
0.511147
2.08169e-06
0.511148
2.13585e-06
0.511148
2.22545e-06
0.511148
2.24991e-06
0.511148
2.25977e-06
0.511148
2.28185e-06
0.511148
2.1707e-06
0.511149
2.08667e-06
0.511149
2.21274e-06
0.51115
2.31909e-06
0.51115
2.32946e-06
0.51115
2.26132e-06
0.511151
1.99e-06
0.511151
1.76191e-06
0.511151
1.7933e-06
0.511152
1.86709e-06
0.511152
1.87706e-06
0.511153
1.98444e-06
0.511153
2.19929e-06
0.511153
2.32657e-06
0.511153
2.44471e-06
0.511153
2.67319e-06
0.511153
2.80256e-06
0.511153
2.80848e-06
0.511153
2.73567e-06
0.511153
2.54085e-06
0.511154
2.44112e-06
0.511154
2.52939e-06
0.511154
2.65668e-06
0.511154
2.65835e-06
0.511154
2.48051e-06
0.511154
2.31637e-06
0.511155
2.309e-06
0.511156
2.48105e-06
0.511156
2.76054e-06
0.511156
2.90309e-06
0.511155
2.90431e-06
0.511155
2.78604e-06
0.511155
2.4771e-06
0.511155
2.30368e-06
0.511156
2.36481e-06
0.511156
2.30439e-06
0.511157
2.2006e-06
0.511157
2.27859e-06
0.511157
2.35093e-06
0.511157
2.39119e-06
0.511157
2.60985e-06
0.511157
2.75335e-06
0.511157
2.55417e-06
0.511157
2.1778e-06
0.511158
1.82914e-06
0.511159
1.77676e-06
0.51116
1.99327e-06
0.51116
2.14578e-06
0.51116
2.21468e-06
0.51116
2.13885e-06
0.51116
1.93596e-06
0.51116
1.92655e-06
0.511161
2.00865e-06
0.511161
1.96474e-06
0.511162
1.90913e-06
0.511163
2.00942e-06
0.511163
2.33664e-06
0.511163
2.7846e-06
0.511163
3.10158e-06
0.511163
3.07316e-06
0.511163
2.72566e-06
0.511163
2.26154e-06
0.511163
1.86949e-06
0.511163
1.63517e-06
0.511164
1.62461e-06
0.511165
1.88647e-06
0.511165
2.03206e-06
0.511165
1.79367e-06
0.511166
1.59986e-06
0.511166
1.60844e-06
0.511167
1.6889e-06
0.511167
1.85197e-06
0.511168
2.04868e-06
0.511168
2.28905e-06
0.511167
2.46143e-06
0.511167
2.4124e-06
0.511167
2.34063e-06
0.511168
2.38652e-06
0.511168
2.3493e-06
0.511169
1.98589e-06
1.84888e-06
0.511107
2.82458e-07
0.511107
1.06037e-06
0.511107
1.34591e-06
0.511108
1.21337e-06
0.511108
1.20058e-06
0.511108
1.55141e-06
0.511109
1.95148e-06
0.511109
2.07998e-06
0.51111
1.85615e-06
0.51111
1.64417e-06
0.511111
1.81006e-06
0.511111
1.85031e-06
0.511111
1.53317e-06
0.511112
1.46073e-06
0.511112
1.78295e-06
0.511112
1.88077e-06
0.511112
1.88398e-06
0.511113
2.1422e-06
0.511113
2.25365e-06
0.511114
2.11601e-06
0.511114
1.96133e-06
0.511113
1.93374e-06
0.511113
2.00939e-06
0.511114
1.87345e-06
0.511114
1.99549e-06
0.511115
2.19056e-06
0.511116
1.84073e-06
0.511116
1.81693e-06
0.511117
2.36484e-06
0.511116
2.94512e-06
0.511115
3.31626e-06
0.511115
3.08359e-06
0.511115
2.4239e-06
0.511114
2.14385e-06
0.511114
2.32566e-06
0.511114
2.28491e-06
0.511115
1.83657e-06
0.511116
1.44837e-06
0.511117
1.22396e-06
0.511119
1.14443e-06
0.511119
1.46735e-06
0.51112
2.11644e-06
0.51112
2.39676e-06
0.511119
2.05648e-06
0.511119
1.6986e-06
0.511119
1.53632e-06
0.51112
1.41867e-06
0.51112
1.46699e-06
0.511121
1.65495e-06
0.511121
1.84356e-06
0.511121
1.93868e-06
0.511121
1.84528e-06
0.511121
1.72205e-06
0.511121
1.76348e-06
0.511121
1.92521e-06
0.511121
2.05987e-06
0.511121
1.99375e-06
0.511121
1.99673e-06
0.511122
2.41921e-06
0.511122
2.75419e-06
0.511122
2.68112e-06
0.511122
2.54272e-06
0.511122
2.44559e-06
0.511122
2.41158e-06
0.511122
2.41226e-06
0.511123
2.36452e-06
0.511123
2.23469e-06
0.511122
1.9153e-06
0.511122
1.61013e-06
0.511123
1.38066e-06
0.511123
1.09064e-06
0.511124
1.3037e-06
0.511125
2.0857e-06
0.511125
2.42972e-06
0.511126
2.25855e-06
0.511126
2.26399e-06
0.511126
2.2174e-06
0.511127
2.16736e-06
0.511127
2.47325e-06
0.511126
2.36638e-06
0.511126
1.82454e-06
0.511127
1.71215e-06
0.511127
1.86791e-06
0.511128
2.15061e-06
0.511128
2.57994e-06
0.511128
2.66866e-06
0.511127
2.34316e-06
0.511127
1.92931e-06
0.511128
1.72782e-06
0.511128
1.81543e-06
0.511129
1.90985e-06
0.511129
1.95452e-06
0.511129
2.09828e-06
0.51113
2.26722e-06
0.51113
2.492e-06
0.511129
2.69085e-06
0.511129
2.47962e-06
0.511129
1.95426e-06
0.511129
1.41242e-06
0.51113
1.01601e-06
0.511131
1.15117e-06
0.511132
1.62075e-06
0.511132
1.90944e-06
0.511132
2.08299e-06
0.511132
2.03947e-06
0.511133
1.72514e-06
0.511133
1.52583e-06
0.511134
1.51774e-06
0.511135
1.54477e-06
0.511135
1.45633e-06
0.511135
1.28655e-06
0.511135
1.40779e-06
0.511135
1.67366e-06
0.511136
1.68215e-06
0.511136
1.70745e-06
0.511137
1.8159e-06
0.511137
1.75562e-06
0.511138
1.76298e-06
0.511138
1.93042e-06
0.511138
2.16633e-06
0.511138
2.53603e-06
0.511137
2.65928e-06
0.511137
2.25884e-06
0.511138
1.91103e-06
0.511139
1.94073e-06
0.511139
2.09359e-06
0.511139
2.33428e-06
0.51114
2.39194e-06
0.51114
2.13176e-06
0.51114
1.96043e-06
0.51114
1.82892e-06
0.51114
1.65172e-06
0.51114
1.66553e-06
0.51114
1.65094e-06
0.511141
1.50548e-06
0.511142
1.53354e-06
0.511142
1.72023e-06
0.511143
1.86263e-06
0.511143
1.98907e-06
0.511143
2.08727e-06
0.511143
2.02218e-06
0.511143
1.88163e-06
0.511143
1.77506e-06
0.511144
1.80438e-06
0.511144
2.02046e-06
0.511145
2.19207e-06
0.511145
2.31847e-06
0.511145
2.54273e-06
0.511145
2.71207e-06
0.511145
2.72853e-06
0.511144
2.54291e-06
0.511145
2.18827e-06
0.511145
1.97983e-06
0.511146
1.99906e-06
0.511146
2.13074e-06
0.511146
2.31491e-06
0.511146
2.37751e-06
0.511146
2.30129e-06
0.511147
2.27541e-06
0.511147
2.24157e-06
0.511147
2.20457e-06
0.511147
2.19048e-06
0.511147
1.99651e-06
0.511147
1.82265e-06
0.511147
1.88067e-06
0.511147
1.87375e-06
0.511148
1.85459e-06
0.511148
2.05058e-06
0.511148
2.27861e-06
0.511148
2.41309e-06
0.511147
2.40746e-06
0.511148
2.14808e-06
0.511148
1.80942e-06
0.511149
1.67894e-06
0.511149
1.66846e-06
0.51115
1.62849e-06
0.51115
1.65878e-06
0.51115
1.63259e-06
0.51115
1.5035e-06
0.511151
1.56458e-06
0.511151
1.73495e-06
0.511151
1.84481e-06
0.511152
2.01093e-06
0.511152
2.23852e-06
0.511152
2.46128e-06
0.511152
2.6529e-06
0.511152
2.74525e-06
0.511152
2.65892e-06
0.511152
2.44525e-06
0.511152
2.24905e-06
0.511153
2.09241e-06
0.511153
2.09458e-06
0.511154
2.35051e-06
0.511154
2.63194e-06
0.511153
2.72661e-06
0.511153
2.57861e-06
0.511153
2.2314e-06
0.511154
1.97266e-06
0.511155
2.0456e-06
0.511155
2.29713e-06
0.511156
2.47604e-06
0.511156
2.5471e-06
0.511155
2.56271e-06
0.511155
2.53826e-06
0.511155
2.43331e-06
0.511155
2.14963e-06
0.511156
1.8171e-06
0.511156
1.71248e-06
0.511157
1.8767e-06
0.511157
2.22592e-06
0.511157
2.60678e-06
0.511157
2.69887e-06
0.511157
2.45477e-06
0.511157
2.0039e-06
0.511157
1.49561e-06
0.511158
1.19729e-06
0.511159
1.24511e-06
0.511159
1.65108e-06
0.511159
2.09663e-06
0.511159
2.14594e-06
0.511159
1.97308e-06
0.511159
1.9011e-06
0.511159
1.89333e-06
0.511159
1.8828e-06
0.511159
1.96465e-06
0.511159
2.1672e-06
0.51116
2.31513e-06
0.511161
2.3728e-06
0.511161
2.2927e-06
0.511162
2.07902e-06
0.511162
2.04078e-06
0.511162
2.0303e-06
0.511162
1.70017e-06
0.511162
1.3469e-06
0.511163
1.20357e-06
0.511164
1.15892e-06
0.511164
1.34795e-06
0.511164
1.6523e-06
0.511164
1.6569e-06
0.511164
1.61775e-06
0.511164
1.77432e-06
0.511165
1.76981e-06
0.511165
1.69683e-06
0.511166
1.64005e-06
0.511167
1.47767e-06
0.511168
1.55734e-06
0.511168
1.88016e-06
0.511169
1.99624e-06
0.511169
1.97242e-06
2.01344e-06
0.511108
1.49786e-07
0.511108
6.83507e-07
0.511109
9.4325e-07
0.511109
1.08519e-06
0.511109
1.37874e-06
0.511109
1.65431e-06
0.511109
2.04404e-06
0.511108
2.13138e-06
0.511109
1.75947e-06
0.511109
1.39229e-06
0.511109
1.37286e-06
0.51111
1.58233e-06
0.511109
1.64896e-06
0.51111
1.16351e-06
0.511111
6.54864e-07
0.511111
1.39513e-06
0.511111
2.39009e-06
0.511111
2.2068e-06
0.511112
1.34905e-06
0.511113
9.92351e-07
0.511113
1.81182e-06
0.511112
2.53814e-06
0.511112
2.43362e-06
0.511111
2.36438e-06
0.511111
2.20186e-06
0.511112
1.69704e-06
0.511112
1.45878e-06
0.511112
1.64955e-06
0.511113
2.01653e-06
0.511113
2.42301e-06
0.511114
2.40867e-06
0.511115
1.98484e-06
0.511116
1.94697e-06
0.511115
2.37405e-06
0.511115
2.68137e-06
0.511115
2.40756e-06
0.511115
1.6691e-06
0.511115
1.34645e-06
0.511115
1.61451e-06
0.511114
1.75338e-06
0.511114
1.49655e-06
0.511115
1.07048e-06
0.511117
6.95878e-07
0.511118
6.53757e-07
0.511119
1.09944e-06
0.511119
1.65851e-06
0.511118
1.89065e-06
0.511118
1.77848e-06
0.511118
1.51822e-06
0.511119
1.21517e-06
0.51112
1.05412e-06
0.51112
1.19176e-06
0.511121
1.4103e-06
0.511121
1.54798e-06
0.511121
1.67357e-06
0.511121
1.8561e-06
0.511121
2.18283e-06
0.511121
2.43563e-06
0.511121
2.37418e-06
0.511121
2.26688e-06
0.511122
2.22099e-06
0.511122
2.16996e-06
0.511122
2.27052e-06
0.511122
2.31654e-06
0.511123
2.06198e-06
0.511123
1.86304e-06
0.511124
1.74934e-06
0.511124
1.53691e-06
0.511124
1.52801e-06
0.511124
1.48204e-06
0.511124
1.34399e-06
0.511123
1.6327e-06
0.511124
1.95924e-06
0.511124
1.93453e-06
0.511125
1.74182e-06
0.511125
1.51995e-06
0.511126
1.68813e-06
0.511126
1.94024e-06
0.511127
1.88062e-06
0.511127
2.00109e-06
0.511127
2.12491e-06
0.511126
1.96976e-06
0.511126
1.91946e-06
0.511127
1.77836e-06
0.511128
1.51227e-06
0.511129
1.63122e-06
0.511129
1.93126e-06
0.511129
2.13074e-06
0.511129
2.22855e-06
0.511128
1.97276e-06
0.511129
1.65168e-06
0.511129
1.59068e-06
0.511129
1.63725e-06
0.51113
1.86614e-06
0.51113
2.00071e-06
0.511131
1.98749e-06
0.511131
2.15837e-06
0.511131
1.93201e-06
0.511132
1.30932e-06
0.511131
1.14378e-06
0.511131
1.16452e-06
0.511132
1.04893e-06
0.511133
1.25422e-06
0.511133
1.57817e-06
0.511134
1.62155e-06
0.511134
1.5487e-06
0.511134
1.43219e-06
0.511134
1.28413e-06
0.511134
1.14971e-06
0.511135
1.01742e-06
0.511135
1.06335e-06
0.511135
1.32373e-06
0.511135
1.57647e-06
0.511135
1.6847e-06
0.511135
1.53939e-06
0.511136
1.40524e-06
0.511136
1.59165e-06
0.511136
1.72374e-06
0.511136
1.76161e-06
0.511136
2.02669e-06
0.511137
2.11463e-06
0.511137
2.01116e-06
0.511137
2.22019e-06
0.511137
2.37865e-06
0.511137
2.19859e-06
0.511137
1.96364e-06
0.511138
1.71239e-06
0.511138
1.59675e-06
0.511139
1.69543e-06
0.511139
1.70777e-06
0.511139
1.60368e-06
0.511139
1.48139e-06
0.51114
1.30283e-06
0.51114
1.31754e-06
0.51114
1.55637e-06
0.51114
1.49617e-06
0.51114
1.30693e-06
0.511141
1.38056e-06
0.511142
1.35938e-06
0.511142
1.49398e-06
0.511142
1.98787e-06
0.511142
2.02958e-06
0.511142
1.71142e-06
0.511142
1.67577e-06
0.511142
1.79647e-06
0.511143
2.07164e-06
0.511142
2.48677e-06
0.511142
2.61454e-06
0.511143
2.42561e-06
0.511143
2.14081e-06
0.511144
1.92569e-06
0.511144
2.02057e-06
0.511144
2.17705e-06
0.511144
2.1259e-06
0.511144
2.05071e-06
0.511144
1.92778e-06
0.511145
1.8368e-06
0.511145
1.96096e-06
0.511145
2.01158e-06
0.511146
1.96046e-06
0.511146
2.01979e-06
0.511146
2.0753e-06
0.511146
2.07087e-06
0.511146
1.96578e-06
0.511146
1.68354e-06
0.511146
1.48811e-06
0.511147
1.59301e-06
0.511147
1.79973e-06
0.511147
2.00439e-06
0.511147
2.16364e-06
0.511148
2.08891e-06
0.511148
1.88183e-06
0.511148
1.6686e-06
0.511148
1.39513e-06
0.511149
1.24002e-06
0.511149
1.2493e-06
0.51115
1.21555e-06
0.51115
1.1505e-06
0.51115
1.18255e-06
0.511151
1.28759e-06
0.511151
1.43208e-06
0.511151
1.70483e-06
0.511151
2.02058e-06
0.511151
2.20993e-06
0.511151
2.28483e-06
0.511152
2.22997e-06
0.511152
2.17359e-06
0.511153
2.28214e-06
0.511153
2.36602e-06
0.511153
2.32072e-06
0.511153
2.16005e-06
0.511153
1.9154e-06
0.511153
1.83633e-06
0.511154
2.01481e-06
0.511154
2.29401e-06
0.511154
2.45748e-06
0.511154
2.38048e-06
0.511154
2.24044e-06
0.511154
2.10716e-06
0.511154
1.92652e-06
0.511155
1.96962e-06
0.511155
2.21834e-06
0.511155
2.28256e-06
0.511156
2.24118e-06
0.511156
2.30283e-06
0.511156
2.24199e-06
0.511156
2.03075e-06
0.511155
1.86608e-06
0.511156
1.74635e-06
0.511156
1.79416e-06
0.511157
2.00062e-06
0.511157
1.95054e-06
0.511158
1.71479e-06
0.511158
1.58331e-06
0.511159
1.42809e-06
0.511158
1.34318e-06
0.511158
1.36914e-06
0.511159
1.38182e-06
0.511159
1.55783e-06
0.511159
1.75367e-06
0.51116
1.745e-06
0.51116
1.75422e-06
0.51116
1.80865e-06
0.51116
1.7421e-06
0.51116
1.71002e-06
0.511161
1.92765e-06
0.511161
2.12663e-06
0.511161
2.04279e-06
0.511162
1.85111e-06
0.511162
1.66167e-06
0.511162
1.5154e-06
0.511163
1.55379e-06
0.511163
1.67412e-06
0.511163
1.53196e-06
0.511163
1.21584e-06
0.511163
1.11132e-06
0.511163
1.13391e-06
0.511163
1.24212e-06
0.511164
1.44805e-06
0.511164
1.42044e-06
0.511164
1.2989e-06
0.511165
1.27784e-06
0.511165
1.11086e-06
0.511166
1.00571e-06
0.511166
1.21633e-06
0.511166
1.39224e-06
0.511167
1.25989e-06
0.511168
1.25759e-06
0.511168
1.55023e-06
1.89114e-06
0.511108
-2.8006e-08
0.511108
1.30651e-07
0.511108
6.63649e-07
0.511108
1.34247e-06
0.511108
1.55959e-06
0.511108
1.50446e-06
0.511109
1.52421e-06
0.511109
1.51161e-06
0.511109
1.48166e-06
0.51111
1.15843e-06
0.51111
7.65927e-07
0.511111
9.53821e-07
0.511112
1.08936e-06
0.511112
1.17159e-06
0.511111
1.47802e-06
0.511111
1.45072e-06
0.511112
1.34011e-06
0.511113
1.36184e-06
0.511113
1.28637e-06
0.511112
1.20623e-06
0.511113
1.30152e-06
0.511114
1.40051e-06
0.511115
1.61034e-06
0.511115
1.75908e-06
0.511116
1.62829e-06
0.511116
1.77924e-06
0.511115
2.30641e-06
0.511114
2.48382e-06
0.511114
2.27181e-06
0.511114
2.12076e-06
0.511115
2.18866e-06
0.511114
2.25648e-06
0.511114
2.2298e-06
0.511114
2.13183e-06
0.511115
1.78698e-06
0.511116
1.32738e-06
0.511117
1.14209e-06
0.511117
1.24553e-06
0.511117
1.32857e-06
0.511117
1.4033e-06
0.511118
1.30074e-06
0.511118
8.05197e-07
0.511118
6.23188e-07
0.511118
1.0448e-06
0.511117
1.34158e-06
0.511118
1.2227e-06
0.511119
1.05259e-06
0.511119
1.24913e-06
0.511119
1.59759e-06
0.511119
1.51574e-06
0.511119
1.24606e-06
0.511119
1.13511e-06
0.511119
1.00812e-06
0.51112
9.67134e-07
0.51112
1.17339e-06
0.51112
1.6047e-06
0.51112
2.05741e-06
0.511121
2.09349e-06
0.511121
1.93432e-06
0.511122
2.01071e-06
0.511122
2.11192e-06
0.511122
2.21778e-06
0.511122
2.35801e-06
0.511122
2.21453e-06
0.511122
1.85111e-06
0.511122
1.66306e-06
0.511122
1.60665e-06
0.511122
1.45024e-06
0.511122
1.3018e-06
0.511123
1.30187e-06
0.511123
1.15124e-06
0.511123
1.05832e-06
0.511124
1.27254e-06
0.511125
1.40144e-06
0.511125
1.26129e-06
0.511125
1.32062e-06
0.511126
1.45568e-06
0.511126
1.3383e-06
0.511127
1.36005e-06
0.511127
1.60417e-06
0.511127
1.76935e-06
0.511127
1.92784e-06
0.511127
2.01253e-06
0.511127
1.97018e-06
0.511127
1.87662e-06
0.511127
1.72913e-06
0.511127
1.81135e-06
0.511127
2.00932e-06
0.511127
1.95621e-06
0.511127
1.72031e-06
0.511128
1.43276e-06
0.511128
1.32541e-06
0.511128
1.55612e-06
0.511128
1.82424e-06
0.511128
1.86714e-06
0.511129
1.65976e-06
0.511129
1.3105e-06
0.51113
1.05893e-06
0.511131
9.58964e-07
0.511131
8.83763e-07
0.511131
9.58895e-07
0.511131
1.11039e-06
0.511131
1.04627e-06
0.511132
1.09827e-06
0.511132
1.29988e-06
0.511132
1.28768e-06
0.511133
1.22771e-06
0.511133
1.06298e-06
0.511133
7.3808e-07
0.511134
6.48935e-07
0.511134
7.91014e-07
0.511134
1.03186e-06
0.511134
1.29788e-06
0.511135
1.28937e-06
0.511135
1.18541e-06
0.511135
1.24699e-06
0.511136
1.30354e-06
0.511136
1.43718e-06
0.511136
1.67662e-06
0.511136
1.85114e-06
0.511136
1.99052e-06
0.511136
1.93142e-06
0.511137
1.68716e-06
0.511138
1.64955e-06
0.511138
1.72161e-06
0.511138
1.69621e-06
0.511138
1.73709e-06
0.511138
1.67493e-06
0.511139
1.34129e-06
0.511139
1.14708e-06
0.51114
1.1718e-06
0.51114
1.08e-06
0.51114
9.903e-07
0.511141
9.81473e-07
0.511141
9.23975e-07
0.511142
1.00214e-06
0.511142
1.21744e-06
0.511142
1.37176e-06
0.511142
1.45081e-06
0.511142
1.40851e-06
0.511143
1.27117e-06
0.511143
1.31857e-06
0.511143
1.60672e-06
0.511143
1.86121e-06
0.511143
2.01028e-06
0.511143
2.07555e-06
0.511143
2.04591e-06
0.511144
2.10178e-06
0.511144