/*--------------------------------*- C++ -*----------------------------------*\
| =========                 |                                                 |
| \\      /  F ield         | OpenFOAM: The Open Source CFD Toolbox           |
|  \\    /   O peration     | Version:  2406                                  |
|   \\  /    A nd           | Website:  www.openfoam.com                      |
|    \\/     M anipulation  |                                                 |
\*---------------------------------------------------------------------------*/
FoamFile
{
    version     2.0;
    format      ascii;
    arch        "LSB;label=32;scalar=64";
    class       volVectorField;
    location    "1.8";
    object      U;
}
// * * * * * * * * * * * * * * * * * * * * * * * * * * * * * * * * * * * * * //

dimensions      [0 1 -1 0 0 0 0];

internalField   nonuniform List<vector> 
6250
(
(50.5453 8.92877e-05 0)
(85.4565 0.000499863 0)
(73.2856 0.000772014 0)
(60.6392 0.000765512 0)
(59.8945 0.000660576 0)
(63.3538 0.00059815 0)
(64.8636 0.000625782 0)
(64.4124 0.000739875 0)
(63.7951 0.000886407 0)
(63.6923 0.000986216 0)
(63.8346 0.000992467 0)
(63.9188 0.000947644 0)
(63.9083 0.000918653 0)
(63.8787 0.000877561 0)
(63.8699 0.000806789 0)
(63.8747 0.000743052 0)
(63.8786 0.000728492 0)
(63.8781 0.000760751 0)
(63.8761 0.000757733 0)
(63.875 0.00073054 0)
(63.8746 0.000766872 0)
(63.8741 0.000838824 0)
(63.8734 0.00087334 0)
(63.8726 0.000863413 0)
(63.872 0.000865973 0)
(63.8713 0.000926238 0)
(63.8705 0.000994236 0)
(63.8697 0.000985949 0)
(63.869 0.00092057 0)
(63.8683 0.000877813 0)
(63.8676 0.000894525 0)
(63.867 0.000940271 0)
(63.8663 0.000946008 0)
(63.8656 0.000913967 0)
(63.8649 0.000883232 0)
(63.8642 0.00083844 0)
(63.8637 0.000791996 0)
(63.8631 0.000779363 0)
(63.8624 0.000810349 0)
(63.8618 0.00089618 0)
(63.861 0.000990913 0)
(63.8602 0.00101494 0)
(63.8596 0.000997249 0)
(63.8589 0.0010053 0)
(63.858 0.000997476 0)
(63.8574 0.000922465 0)
(63.8568 0.000842257 0)
(63.8562 0.000825962 0)
(63.8556 0.000854141 0)
(63.855 0.000891147 0)
(63.8542 0.000923375 0)
(63.8535 0.000927893 0)
(63.8528 0.000896268 0)
(63.8522 0.000858189 0)
(63.8515 0.000837543 0)
(63.8508 0.000848254 0)
(63.8502 0.000900137 0)
(63.8494 0.000941345 0)
(63.8488 0.000927295 0)
(63.8482 0.000910707 0)
(63.8475 0.000920997 0)
(63.8468 0.000922975 0)
(63.8461 0.000917323 0)
(63.8454 0.000916864 0)
(63.8447 0.000925142 0)
(63.844 0.000949734 0)
(63.8432 0.000967072 0)
(63.8425 0.000950068 0)
(63.8418 0.000892334 0)
(63.8412 0.000825456 0)
(63.8407 0.000814338 0)
(63.8401 0.000861273 0)
(63.8394 0.000925068 0)
(63.8388 0.000990726 0)
(63.838 0.00102954 0)
(63.8372 0.0010151 0)
(63.8365 0.000966254 0)
(63.8359 0.000914768 0)
(63.8352 0.000871376 0)
(63.8345 0.0008405 0)
(63.8339 0.000833237 0)
(63.8333 0.000849345 0)
(63.8326 0.00088176 0)
(63.8319 0.000920967 0)
(63.8313 0.000944222 0)
(63.8306 0.000936014 0)
(63.83 0.000916439 0)
(63.8293 0.000916569 0)
(63.8285 0.000929483 0)
(63.8278 0.000945434 0)
(63.8271 0.000979727 0)
(63.8264 0.00101635 0)
(63.8257 0.00103055 0)
(63.825 0.00102379 0)
(63.8242 0.000993689 0)
(63.8235 0.000961461 0)
(63.8229 0.00095862 0)
(63.8222 0.000969141 0)
(63.8215 0.000970133 0)
(63.8208 0.000955142 0)
(63.8201 0.000927957 0)
(63.8196 0.000921499 0)
(63.819 0.000949246 0)
(63.8183 0.000976264 0)
(63.8176 0.00098403 0)
(63.8169 0.000980869 0)
(63.8161 0.000965992 0)
(63.8154 0.000961135 0)
(63.8147 0.000995867 0)
(63.8139 0.00104748 0)
(63.8132 0.00107568 0)
(63.8125 0.00104832 0)
(63.8118 0.000969414 0)
(63.8112 0.000909025 0)
(63.8106 0.000906286 0)
(63.8099 0.000937081 0)
(63.8093 0.000976749 0)
(63.8086 0.00100741 0)
(63.8079 0.00102066 0)
(63.8072 0.00101532 0)
(63.8065 0.000997122 0)
(63.8058 0.000979129 0)
(63.8051 0.000962166 0)
(63.8044 0.000942902 0)
(63.8037 0.000933278 0)
(63.803 0.000945651 0)
(63.8023 0.00097497 0)
(63.8017 0.00101748 0)
(63.801 0.00104918 0)
(63.8002 0.00102648 0)
(63.7995 0.000960678 0)
(63.7988 0.000885489 0)
(63.7982 0.000827709 0)
(63.7976 0.000835232 0)
(63.797 0.000904137 0)
(63.7963 0.000976201 0)
(63.7956 0.00102323 0)
(63.7948 0.00104714 0)
(63.7941 0.00105296 0)
(63.7934 0.00104575 0)
(63.7926 0.00103218 0)
(63.792 0.00101488 0)
(63.7913 0.000993115 0)
(63.7906 0.000958327 0)
(63.79 0.000912031 0)
(63.7895 0.000891156 0)
(63.7889 0.000908796 0)
(63.7882 0.000939278 0)
(63.7875 0.000974916 0)
(63.7868 0.00100814 0)
(63.786 0.00102345 0)
(63.7853 0.00102247 0)
(63.7845 0.00100513 0)
(63.7839 0.000966107 0)
(63.7833 0.000927174 0)
(63.7827 0.000923644 0)
(63.782 0.000952872 0)
(63.7813 0.000986367 0)
(63.7806 0.00100078 0)
(63.7799 0.000977814 0)
(63.7793 0.000931671 0)
(63.7786 0.000903428 0)
(63.778 0.000912113 0)
(63.7773 0.00094287 0)
(63.7766 0.000971387 0)
(63.7758 0.000982098 0)
(63.7752 0.000965532 0)
(63.7745 0.000937607 0)
(63.7739 0.000933944 0)
(63.7732 0.000957893 0)
(63.7725 0.000993223 0)
(63.7718 0.00102367 0)
(63.771 0.00102786 0)
(63.7703 0.00101353 0)
(63.7696 0.000999869 0)
(63.7689 0.000982506 0)
(63.7683 0.00096674 0)
(63.7676 0.000975548 0)
(63.7669 0.00101136 0)
(63.7661 0.00105134 0)
(63.7654 0.00107598 0)
(63.7646 0.00107684 0)
(63.7639 0.00106045 0)
(63.7632 0.00103983 0)
(63.7625 0.00100716 0)
(63.7619 0.000967715 0)
(63.7612 0.000948784 0)
(63.7605 0.000953798 0)
(63.7598 0.000972932 0)
(63.7591 0.00098837 0)
(63.7584 0.000986748 0)
(63.7577 0.000984204 0)
(63.757 0.000988096 0)
(63.7563 0.000991312 0)
(63.7556 0.00098881 0)
(63.7549 0.000973457 0)
(63.7542 0.000952943 0)
(63.7535 0.000939225 0)
(63.7529 0.000941073 0)
(63.7523 0.000964812 0)
(63.7516 0.000990033 0)
(63.7509 0.000986406 0)
(63.7502 0.000948172 0)
(63.7496 0.000895973 0)
(63.749 0.000865768 0)
(63.7484 0.000890902 0)
(63.7477 0.000958218 0)
(63.7469 0.00100554 0)
(63.7462 0.00100793 0)
(63.7455 0.000984535 0)
(63.7449 0.000953204 0)
(63.7443 0.000942605 0)
(63.7436 0.00095151 0)
(63.7429 0.000940554 0)
(63.7423 0.000905482 0)
(63.7416 0.00087809 0)
(63.741 0.000879179 0)
(63.7404 0.000905861 0)
(63.7398 0.000958628 0)
(63.7391 0.00102978 0)
(63.7383 0.00107736 0)
(63.7375 0.0010771 0)
(63.7368 0.00104763 0)
(63.7361 0.00101799 0)
(63.7354 0.00100423 0)
(63.7347 0.0010022 0)
(63.7341 0.00100013 0)
(63.7334 0.000989246 0)
(63.7327 0.000970491 0)
(63.7321 0.000949887 0)
(63.7314 0.000940729 0)
(63.7308 0.000961171 0)
(63.7301 0.00100324 0)
(63.7294 0.00104204 0)
(63.7286 0.00105645 0)
(63.7279 0.00104206 0)
(63.7272 0.00102548 0)
(63.7266 0.00102955 0)
(63.7258 0.00104466 0)
(63.7252 0.00104381 0)
(63.7245 0.00102035 0)
(63.7239 0.000993189 0)
(63.7232 0.000973402 0)
(63.7226 0.000976603 0)
(63.7219 0.00100832 0)
(63.7211 0.00102133 0)
(63.7204 0.000994222 0)
(63.7198 0.000954322 0)
(63.7192 0.000967767 0)
(63.7182 0.000966554 0)
(50.5455 6.80014e-05 0)
(85.4576 0.000410229 0)
(73.2885 0.000684714 0)
(60.6436 0.000706409 0)
(59.8995 0.000591037 0)
(63.3595 0.000454319 0)
(64.8699 0.00039042 0)
(64.4196 0.000440578 0)
(63.8036 0.000520733 0)
(63.7023 0.000543146 0)
(63.8461 0.000493384 0)
(63.9316 0.000442978 0)
(63.9222 0.000476449 0)
(63.8937 0.000537138 0)
(63.8858 0.000552603 0)
(63.8915 0.000504534 0)
(63.8963 0.000428802 0)
(63.8969 0.00041195 0)
(63.8959 0.000464795 0)
(63.8956 0.000535959 0)
(63.8959 0.000566403 0)
(63.8966 0.000539618 0)
(63.8972 0.00052074 0)
(63.8974 0.000524017 0)
(63.8977 0.000524304 0)
(63.898 0.000548782 0)
(63.8984 0.000584831 0)
(63.8989 0.000563673 0)
(63.8992 0.000470451 0)
(63.8995 0.000377841 0)
(63.9 0.000356968 0)
(63.9004 0.000414089 0)
(63.9009 0.000465021 0)
(63.9011 0.000457833 0)
(63.9016 0.000440266 0)
(63.9019 0.000435514 0)
(63.9021 0.000451817 0)
(63.9023 0.00047671 0)
(63.9025 0.00046538 0)
(63.9029 0.000454244 0)
(63.9034 0.000464698 0)
(63.9039 0.000441105 0)
(63.9044 0.000413822 0)
(63.9048 0.000437449 0)
(63.9053 0.000454409 0)
(63.9057 0.000419353 0)
(63.9059 0.000376602 0)
(63.9062 0.00036162 0)
(63.9067 0.000376083 0)
(63.9071 0.000428083 0)
(63.9074 0.000489726 0)
(63.9079 0.000502202 0)
(63.9083 0.000472199 0)
(63.9086 0.00045315 0)
(63.909 0.000454946 0)
(63.9093 0.000466644 0)
(63.9096 0.000482336 0)
(63.91 0.000462956 0)
(63.9104 0.000402447 0)
(63.9107 0.000383412 0)
(63.9111 0.000424947 0)
(63.9114 0.000441866 0)
(63.9118 0.000432924 0)
(63.9122 0.000456308 0)
(63.9126 0.0004902 0)
(63.913 0.000504857 0)
(63.9135 0.000516315 0)
(63.9137 0.000515555 0)
(63.914 0.000463164 0)
(63.9142 0.000392647 0)
(63.9144 0.000367309 0)
(63.9148 0.000346863 0)
(63.9152 0.000321452 0)
(63.9157 0.000359435 0)
(63.9161 0.000434266 0)
(63.9165 0.000460724 0)
(63.9168 0.000429248 0)
(63.9172 0.000409053 0)
(63.9175 0.000434737 0)
(63.9178 0.000462699 0)
(63.9182 0.000473166 0)
(63.9185 0.000465109 0)
(63.9188 0.000431806 0)
(63.9191 0.00040072 0)
(63.9195 0.000391443 0)
(63.9198 0.000407931 0)
(63.9202 0.000454329 0)
(63.9206 0.000498056 0)
(63.921 0.000486967 0)
(63.9214 0.000422989 0)
(63.9218 0.000368807 0)
(63.9222 0.000363426 0)
(63.9227 0.000391363 0)
(63.9232 0.000427301 0)
(63.9236 0.000451925 0)
(63.9239 0.000451752 0)
(63.9242 0.000436909 0)
(63.9247 0.000436669 0)
(63.9249 0.000443413 0)
(63.9252 0.000405887 0)
(63.9256 0.000327461 0)
(63.9258 0.000279354 0)
(63.9262 0.000295147 0)
(63.9267 0.000347076 0)
(63.9271 0.000409333 0)
(63.9276 0.000469494 0)
(63.928 0.00048471 0)
(63.9283 0.000438518 0)
(63.9288 0.000397612 0)
(63.9293 0.000398616 0)
(63.9297 0.000411507 0)
(63.9303 0.000410842 0)
(63.9306 0.000389004 0)
(63.9308 0.000363413 0)
(63.9312 0.000341619 0)
(63.9314 0.000320562 0)
(63.9318 0.000324813 0)
(63.9322 0.000363876 0)
(63.9327 0.000402887 0)
(63.9331 0.000409293 0)
(63.9336 0.000406955 0)
(63.9339 0.000430483 0)
(63.9342 0.000456736 0)
(63.9346 0.000452551 0)
(63.9349 0.000421405 0)
(63.9353 0.000389804 0)
(63.9357 0.000370063 0)
(63.936 0.000369397 0)
(63.9365 0.000401697 0)
(63.9369 0.000436489 0)
(63.9372 0.000446123 0)
(63.9376 0.000434704 0)
(63.9378 0.000399091 0)
(63.9381 0.000368431 0)
(63.9385 0.00037194 0)
(63.9389 0.000393374 0)
(63.9393 0.000409497 0)
(63.9397 0.000411974 0)
(63.9402 0.000406529 0)
(63.9407 0.000392556 0)
(63.9411 0.000375697 0)
(63.9415 0.000369592 0)
(63.9418 0.000363976 0)
(63.9422 0.000343924 0)
(63.9424 0.000314652 0)
(63.9426 0.00030779 0)
(63.943 0.000335248 0)
(63.9433 0.000363549 0)
(63.9437 0.000389457 0)
(63.9442 0.000432198 0)
(63.9446 0.000464047 0)
(63.9449 0.000453236 0)
(63.9453 0.000416652 0)
(63.9457 0.000375712 0)
(63.9459 0.000342144 0)
(63.9462 0.00034053 0)
(63.9466 0.000360658 0)
(63.9469 0.000374173 0)
(63.9474 0.000387634 0)
(63.9477 0.000395661 0)
(63.948 0.000391033 0)
(63.9484 0.000392688 0)
(63.9487 0.000406339 0)
(63.9491 0.000422848 0)
(63.9495 0.000427553 0)
(63.9499 0.000413544 0)
(63.9503 0.000389409 0)
(63.9506 0.000367178 0)
(63.9509 0.000364957 0)
(63.9514 0.00038754 0)
(63.9517 0.000423627 0)
(63.9522 0.000452033 0)
(63.9526 0.000443995 0)
(63.9529 0.000407517 0)
(63.9533 0.00037521 0)
(63.9537 0.000362452 0)
(63.954 0.000372648 0)
(63.9545 0.000396326 0)
(63.9549 0.000417996 0)
(63.9554 0.000424946 0)
(63.9558 0.00041302 0)
(63.9563 0.000388069 0)
(63.9567 0.000365632 0)
(63.9571 0.000366022 0)
(63.9574 0.000374723 0)
(63.9577 0.000374802 0)
(63.958 0.000383648 0)
(63.9584 0.000403403 0)
(63.9587 0.000429972 0)
(63.9592 0.000449602 0)
(63.9595 0.000435382 0)
(63.9598 0.000404156 0)
(63.9602 0.000384488 0)
(63.9606 0.000390138 0)
(63.961 0.000423919 0)
(63.9613 0.0004561 0)
(63.9616 0.00045774 0)
(63.9619 0.000419518 0)
(63.9621 0.000362505 0)
(63.9625 0.000329495 0)
(63.9629 0.00032768 0)
(63.9633 0.000347661 0)
(63.9636 0.000381218 0)
(63.9639 0.000400962 0)
(63.9641 0.000394784 0)
(63.9644 0.000384971 0)
(63.9648 0.000388551 0)
(63.9653 0.000390741 0)
(63.9657 0.000381448 0)
(63.966 0.000361406 0)
(63.9663 0.000336092 0)
(63.9666 0.000345977 0)
(63.967 0.000393726 0)
(63.9673 0.000425567 0)
(63.9676 0.000424423 0)
(63.9679 0.00039905 0)
(63.9682 0.000359528 0)
(63.9686 0.000323038 0)
(63.9689 0.00031756 0)
(63.9694 0.000369377 0)
(63.9699 0.000436223 0)
(63.9703 0.00045089 0)
(63.9708 0.000416663 0)
(63.9712 0.000378292 0)
(63.9716 0.000359513 0)
(63.9719 0.000354561 0)
(63.9722 0.000359107 0)
(63.9725 0.000371878 0)
(63.9728 0.000379382 0)
(63.973 0.000365866 0)
(63.9733 0.000335472 0)
(63.9738 0.000320242 0)
(63.9742 0.000340602 0)
(63.9747 0.000382512 0)
(63.9752 0.000402022 0)
(63.9755 0.000370219 0)
(63.9759 0.000331782 0)
(63.9764 0.00033106 0)
(63.9768 0.000347772 0)
(63.9772 0.000350846 0)
(63.9776 0.000335494 0)
(63.9779 0.000319865 0)
(63.9783 0.000314896 0)
(63.9786 0.000327409 0)
(63.979 0.000367275 0)
(63.9795 0.000401864 0)
(63.9799 0.000406383 0)
(63.9802 0.000391735 0)
(63.9804 0.000403018 0)
(63.981 0.000372291 0)
(50.5454 1.29394e-05 0)
(85.4573 3.12169e-05 0)
(73.2874 7.65152e-05 0)
(60.6419 0.000125684 0)
(59.8981 0.000125839 0)
(63.3581 0.000105775 0)
(64.8682 0.000101632 0)
(64.4174 0.000108151 0)
(63.8009 9.55089e-05 0)
(63.6988 6.59179e-05 0)
(63.8419 3.65996e-05 0)
(63.9267 2.33152e-05 0)
(63.9169 7.00263e-05 0)
(63.8881 0.000144725 0)
(63.8801 0.000174648 0)
(63.8858 0.000150328 0)
(63.8902 0.000123095 0)
(63.8902 0.00016264 0)
(63.8888 0.000254575 0)
(63.8883 0.000288783 0)
(63.8888 0.000193344 0)
(63.8891 6.3095e-05 0)
(63.8891 6.23077e-05 0)
(63.8891 0.000147788 0)
(63.8892 0.00021029 0)
(63.8892 0.000256574 0)
(63.8892 0.000272098 0)
(63.8894 0.00024808 0)
(63.8895 0.000197849 0)
(63.8894 0.000137267 0)
(63.8892 0.000102111 0)
(63.8892 0.000123131 0)
(63.8892 0.000157171 0)
(63.8893 0.000144161 0)
(63.8893 0.000133394 0)
(63.8894 0.000186073 0)
(63.8894 0.000280888 0)
(63.8895 0.000351019 0)
(63.8896 0.000326566 0)
(63.8895 0.000235711 0)
(63.8896 0.000166943 0)
(63.8895 0.000137192 0)
(63.8894 0.000113108 0)
(63.8895 8.31133e-05 0)
(63.8896 7.35106e-05 0)
(63.8897 0.00010911 0)
(63.8898 0.000161139 0)
(63.8898 0.000173615 0)
(63.8897 0.000148718 0)
(63.8897 0.00013919 0)
(63.8898 0.000143547 0)
(63.8899 0.000124248 0)
(63.89 0.000111248 0)
(63.89 0.000142968 0)
(63.8901 0.000187429 0)
(63.8902 0.000205159 0)
(63.8903 0.000199422 0)
(63.8904 0.000204597 0)
(63.8903 0.000228471 0)
(63.8902 0.000235229 0)
(63.8902 0.000218294 0)
(63.8903 0.000198376 0)
(63.8902 0.00019389 0)
(63.8901 0.000210635 0)
(63.8902 0.000219647 0)
(63.8902 0.000205949 0)
(63.8902 0.000188654 0)
(63.8904 0.000185251 0)
(63.8906 0.000191356 0)
(63.8907 0.000204192 0)
(63.8908 0.000233019 0)
(63.8909 0.000238322 0)
(63.8907 0.000215658 0)
(63.8906 0.000234923 0)
(63.8907 0.000279035 0)
(63.8907 0.000285162 0)
(63.8907 0.000260497 0)
(63.8907 0.00023493 0)
(63.8907 0.000207095 0)
(63.8908 0.000167472 0)
(63.8909 0.000160381 0)
(63.891 0.00020301 0)
(63.891 0.000232993 0)
(63.891 0.000226716 0)
(63.891 0.00020153 0)
(63.8909 0.000173638 0)
(63.891 0.000164373 0)
(63.8911 0.000173883 0)
(63.8912 0.000187443 0)
(63.8912 0.000192417 0)
(63.8912 0.000186974 0)
(63.8911 0.000185363 0)
(63.8911 0.000194965 0)
(63.8911 0.000211271 0)
(63.891 0.00023147 0)
(63.8911 0.000237724 0)
(63.8912 0.000217705 0)
(63.8912 0.000214633 0)
(63.8914 0.000247677 0)
(63.8916 0.00026412 0)
(63.8916 0.00024453 0)
(63.8916 0.000212358 0)
(63.8915 0.000177396 0)
(63.8915 0.000155379 0)
(63.8915 0.000166051 0)
(63.8915 0.000211631 0)
(63.8916 0.000251837 0)
(63.8917 0.000229106 0)
(63.8916 0.000168819 0)
(63.8916 0.000126936 0)
(63.8917 0.000102855 0)
(63.8918 0.000112712 0)
(63.8919 0.000172013 0)
(63.892 0.000239704 0)
(63.8921 0.000281237 0)
(63.8921 0.000282611 0)
(63.8921 0.000246403 0)
(63.8921 0.000213629 0)
(63.8921 0.000211388 0)
(63.8921 0.000210994 0)
(63.8921 0.000207019 0)
(63.8921 0.00022536 0)
(63.8922 0.000245737 0)
(63.8923 0.000255299 0)
(63.8923 0.000268346 0)
(63.8923 0.000275498 0)
(63.8923 0.000262437 0)
(63.8923 0.000225667 0)
(63.8922 0.000197866 0)
(63.8923 0.00020227 0)
(63.8924 0.000212919 0)
(63.8925 0.000223815 0)
(63.8927 0.000234182 0)
(63.8928 0.000226784 0)
(63.8928 0.000209681 0)
(63.8928 0.000210149 0)
(63.8928 0.000227499 0)
(63.8927 0.000225197 0)
(63.8928 0.000202022 0)
(63.8928 0.000184067 0)
(63.8928 0.000182721 0)
(63.8929 0.00021332 0)
(63.8929 0.00025825 0)
(63.893 0.000284899 0)
(63.8931 0.000291057 0)
(63.8931 0.000278327 0)
(63.893 0.000262583 0)
(63.893 0.000264499 0)
(63.8929 0.000273547 0)
(63.8929 0.000274228 0)
(63.893 0.000262957 0)
(63.8931 0.000239224 0)
(63.8931 0.000230412 0)
(63.8931 0.000258704 0)
(63.8931 0.000285496 0)
(63.8931 0.000289849 0)
(63.8932 0.000287129 0)
(63.8931 0.000264983 0)
(63.8931 0.000239058 0)
(63.8932 0.000238275 0)
(63.8932 0.000241592 0)
(63.8933 0.00023507 0)
(63.8933 0.000229236 0)
(63.8934 0.000228303 0)
(63.8934 0.000226592 0)
(63.8935 0.000220198 0)
(63.8935 0.000216836 0)
(63.8935 0.000216661 0)
(63.8935 0.000213468 0)
(63.8935 0.000210909 0)
(63.8936 0.00021911 0)
(63.8936 0.000239319 0)
(63.8937 0.000253705 0)
(63.8938 0.000248797 0)
(63.8938 0.000224974 0)
(63.8938 0.000196097 0)
(63.8938 0.000185696 0)
(63.8939 0.000191754 0)
(63.8939 0.000196939 0)
(63.894 0.00019464 0)
(63.8941 0.00019128 0)
(63.8941 0.000201095 0)
(63.8941 0.000222275 0)
(63.8941 0.000256698 0)
(63.8942 0.000300773 0)
(63.8942 0.000321079 0)
(63.8942 0.00030852 0)
(63.8942 0.000278294 0)
(63.8941 0.000250911 0)
(63.8942 0.000249447 0)
(63.8942 0.000264777 0)
(63.8942 0.000276167 0)
(63.8943 0.000268204 0)
(63.8942 0.000242636 0)
(63.8942 0.000233843 0)
(63.8943 0.000258268 0)
(63.8944 0.000303522 0)
(63.8945 0.000340529 0)
(63.8945 0.000340176 0)
(63.8945 0.000314051 0)
(63.8944 0.000280509 0)
(63.8943 0.000256506 0)
(63.8944 0.000269434 0)
(63.8945 0.00029645 0)
(63.8945 0.000289788 0)
(63.8946 0.000256194 0)
(63.8946 0.000236605 0)
(63.8946 0.000242929 0)
(63.8946 0.000259715 0)
(63.8946 0.00027613 0)
(63.8946 0.000280649 0)
(63.8945 0.000272262 0)
(63.8946 0.000258057 0)
(63.8947 0.000245389 0)
(63.8949 0.000257553 0)
(63.895 0.000280086 0)
(63.895 0.000275489 0)
(63.8951 0.000245033 0)
(63.895 0.000197189 0)
(63.895 0.000166325 0)
(63.895 0.000181471 0)
(63.8951 0.000204383 0)
(63.8951 0.000210368 0)
(63.8952 0.000221004 0)
(63.8953 0.000250438 0)
(63.8954 0.000291637 0)
(63.8954 0.000335302 0)
(63.8954 0.000371287 0)
(63.8954 0.000376078 0)
(63.8954 0.000338455 0)
(63.8954 0.000270871 0)
(63.8954 0.000200581 0)
(63.8954 0.000161577 0)
(63.8954 0.000175203 0)
(63.8956 0.000222699 0)
(63.8956 0.000240789 0)
(63.8956 0.000210326 0)
(63.8957 0.000172979 0)
(63.8957 0.000153587 0)
(63.8958 0.000166112 0)
(63.8959 0.000204437 0)
(63.8959 0.000241987 0)
(63.896 0.000272263 0)
(63.8959 0.000281368 0)
(63.8959 0.000267817 0)
(63.8959 0.000267895 0)
(63.896 0.000292966 0)
(63.896 0.000310216 0)
(63.8961 0.000274137 0)
(63.8963 0.000226378 0)
(50.5455 2.57138e-05 0)
(85.4573 0.00012224 0)
(73.2874 0.000202278 0)
(60.6419 0.000222924 0)
(59.8978 0.000219142 0)
(63.3576 0.000283076 0)
(64.8679 0.000370898 0)
(64.4172 0.000401027 0)
(63.8008 0.000393521 0)
(63.6989 0.000388477 0)
(63.8422 0.000403358 0)
(63.9271 0.000398045 0)
(63.9173 0.000355746 0)
(63.8886 0.000318969 0)
(63.8804 0.00030976 0)
(63.8858 0.000325078 0)
(63.8903 0.000363609 0)
(63.8905 0.000419524 0)
(63.8893 0.000435127 0)
(63.8888 0.00038092 0)
(63.8891 0.000308283 0)
(63.8892 0.000293752 0)
(63.8892 0.000335317 0)
(63.8892 0.000347192 0)
(63.8892 0.000352557 0)
(63.8893 0.000387944 0)
(63.8894 0.000397514 0)
(63.8895 0.000401382 0)
(63.8896 0.000439319 0)
(63.8896 0.000491852 0)
(63.8895 0.000525353 0)
(63.8893 0.000514959 0)
(63.8893 0.000461645 0)
(63.8893 0.000400131 0)
(63.8893 0.000372065 0)
(63.8892 0.000357612 0)
(63.8893 0.000324877 0)
(63.8894 0.000291591 0)
(63.8896 0.000267457 0)
(63.8897 0.000262338 0)
(63.8899 0.000313872 0)
(63.89 0.000411413 0)
(63.89 0.000464475 0)
(63.8899 0.000428294 0)
(63.8899 0.00036435 0)
(63.8899 0.000321432 0)
(63.8899 0.000300146 0)
(63.89 0.000297081 0)
(63.8901 0.000306014 0)
(63.8901 0.000326553 0)
(63.8901 0.000344517 0)
(63.8901 0.000335176 0)
(63.8901 0.000317843 0)
(63.8901 0.000319407 0)
(63.8901 0.000323364 0)
(63.8901 0.000312671 0)
(63.8901 0.000305262 0)
(63.8901 0.000349771 0)
(63.8902 0.000441858 0)
(63.8903 0.000484421 0)
(63.8903 0.000450937 0)
(63.8902 0.000419553 0)
(63.8902 0.000420853 0)
(63.8903 0.000428019 0)
(63.8903 0.00042721 0)
(63.8903 0.000416416 0)
(63.8903 0.000370642 0)
(63.8903 0.000294138 0)
(63.8903 0.000241624 0)
(63.8903 0.000218501 0)
(63.8903 0.00021982 0)
(63.8905 0.000274841 0)
(63.8906 0.000360946 0)
(63.8906 0.000412106 0)
(63.8907 0.000403779 0)
(63.8907 0.000385237 0)
(63.8907 0.000390725 0)
(63.8908 0.000397053 0)
(63.8909 0.00038413 0)
(63.8908 0.00033662 0)
(63.8907 0.000295904 0)
(63.8908 0.000322703 0)
(63.8909 0.000384437 0)
(63.891 0.000438752 0)
(63.891 0.000468406 0)
(63.891 0.000443132 0)
(63.8909 0.000369303 0)
(63.8909 0.000300827 0)
(63.8909 0.000291041 0)
(63.891 0.000336141 0)
(63.891 0.000382259 0)
(63.8911 0.000394945 0)
(63.8912 0.000384845 0)
(63.8912 0.000373148 0)
(63.8912 0.000369887 0)
(63.8912 0.000371762 0)
(63.8911 0.000350575 0)
(63.8911 0.000300373 0)
(63.8911 0.000256757 0)
(63.8912 0.000246725 0)
(63.8914 0.000281418 0)
(63.8915 0.000336391 0)
(63.8915 0.000366535 0)
(63.8916 0.000358061 0)
(63.8915 0.000319461 0)
(63.8915 0.000285336 0)
(63.8916 0.000288913 0)
(63.8917 0.00031255 0)
(63.8918 0.000330316 0)
(63.8919 0.000320507 0)
(63.8919 0.000276561 0)
(63.8919 0.000248904 0)
(63.8919 0.000255991 0)
(63.8919 0.000263667 0)
(63.892 0.000284809 0)
(63.892 0.000321152 0)
(63.8921 0.000330493 0)
(63.8922 0.000321477 0)
(63.8922 0.000328375 0)
(63.8923 0.000341169 0)
(63.8923 0.000352736 0)
(63.8922 0.000362467 0)
(63.8922 0.000342978 0)
(63.8922 0.000316061 0)
(63.8923 0.00032782 0)
(63.8924 0.000362139 0)
(63.8924 0.000397287 0)
(63.8924 0.000410744 0)
(63.8924 0.000379757 0)
(63.8925 0.000326684 0)
(63.8925 0.000270115 0)
(63.8925 0.000229281 0)
(63.8925 0.000233412 0)
(63.8925 0.000262635 0)
(63.8926 0.000278959 0)
(63.8926 0.0002935 0)
(63.8927 0.000323497 0)
(63.8928 0.000336133 0)
(63.8929 0.00032567 0)
(63.8929 0.000323174 0)
(63.8929 0.000318478 0)
(63.8928 0.00030748 0)
(63.8929 0.000307504 0)
(63.8929 0.000320792 0)
(63.893 0.000345302 0)
(63.893 0.000358861 0)
(63.8931 0.000354392 0)
(63.8931 0.000359229 0)
(63.8931 0.000371527 0)
(63.8931 0.000371448 0)
(63.8931 0.000360653 0)
(63.8931 0.000344907 0)
(63.8931 0.000334338 0)
(63.8931 0.000339994 0)
(63.8932 0.000346155 0)
(63.8933 0.000349181 0)
(63.8933 0.000360389 0)
(63.8933 0.00035994 0)
(63.8933 0.000342217 0)
(63.8933 0.000325361 0)
(63.8934 0.000309841 0)
(63.8933 0.000294932 0)
(63.8933 0.000281867 0)
(63.8933 0.000279047 0)
(63.8934 0.00029529 0)
(63.8934 0.000313867 0)
(63.8935 0.000323868 0)
(63.8935 0.000332903 0)
(63.8935 0.000340719 0)
(63.8935 0.000341886 0)
(63.8934 0.000339778 0)
(63.8934 0.000335438 0)
(63.8935 0.000322858 0)
(63.8935 0.000312984 0)
(63.8936 0.000305522 0)
(63.8937 0.000282569 0)
(63.8937 0.000260032 0)
(63.8937 0.00025293 0)
(63.8938 0.000254952 0)
(63.8938 0.000270763 0)
(63.8938 0.000298288 0)
(63.8939 0.000325494 0)
(63.8939 0.000341687 0)
(63.8939 0.000353664 0)
(63.894 0.000377735 0)
(63.894 0.000403177 0)
(63.894 0.000417014 0)
(63.894 0.000410499 0)
(63.894 0.000378885 0)
(63.8941 0.000347988 0)
(63.8941 0.000339182 0)
(63.8941 0.000354997 0)
(63.8942 0.000383385 0)
(63.8942 0.000395538 0)
(63.8942 0.000382441 0)
(63.8941 0.000352712 0)
(63.8941 0.000325973 0)
(63.8942 0.000326882 0)
(63.8943 0.000354037 0)
(63.8944 0.000390268 0)
(63.8945 0.00040492 0)
(63.8945 0.000378362 0)
(63.8944 0.000343613 0)
(63.8944 0.000326999 0)
(63.8944 0.000311228 0)
(63.8944 0.000291182 0)
(63.8944 0.000286254 0)
(63.8945 0.00029803 0)
(63.8946 0.000319982 0)
(63.8946 0.000363361 0)
(63.8947 0.000405163 0)
(63.8946 0.000396897 0)
(63.8946 0.000338909 0)
(63.8946 0.000262176 0)
(63.8946 0.000207004 0)
(63.8947 0.000197416 0)
(63.8948 0.000220589 0)
(63.8949 0.000267716 0)
(63.8949 0.000306962 0)
(63.8949 0.000303164 0)
(63.8949 0.000284352 0)
(63.8949 0.000277552 0)
(63.8949 0.000273587 0)
(63.8949 0.000268941 0)
(63.8949 0.000281506 0)
(63.8949 0.000321312 0)
(63.8949 0.00036442 0)
(63.895 0.000387589 0)
(63.8951 0.000376217 0)
(63.8952 0.000334078 0)
(63.8953 0.000300491 0)
(63.8953 0.000282648 0)
(63.8953 0.000249078 0)
(63.8952 0.000214269 0)
(63.8953 0.000213961 0)
(63.8955 0.000227668 0)
(63.8955 0.000237663 0)
(63.8956 0.000255371 0)
(63.8955 0.000260995 0)
(63.8955 0.000261234 0)
(63.8956 0.000279984 0)
(63.8956 0.000292684 0)
(63.8956 0.000300977 0)
(63.8957 0.000308589 0)
(63.8958 0.000292342 0)
(63.8959 0.000278324 0)
(63.896 0.000291086 0)
(63.8961 0.000301014 0)
(63.8961 0.000281225 0)
(63.8961 0.000273226 0)
(50.5454 2.60856e-05 0)
(85.4574 0.000123228 0)
(73.2876 0.00015654 0)
(60.6421 0.000131096 0)
(59.8979 0.000125196 0)
(63.3576 0.000161506 0)
(64.8679 0.000202879 0)
(64.4172 0.000201283 0)
(63.8007 0.000152746 0)
(63.6987 0.000102764 0)
(63.842 0.000103428 0)
(63.927 0.000129588 0)
(63.9171 0.000129286 0)
(63.8882 9.76248e-05 0)
(63.8802 7.69489e-05 0)
(63.8858 0.000126706 0)
(63.8902 0.000194846 0)
(63.8902 0.000197901 0)
(63.889 0.00013666 0)
(63.8887 0.000108396 0)
(63.889 0.000178838 0)
(63.8891 0.000257938 0)
(63.8891 0.000259915 0)
(63.889 0.000223918 0)
(63.8888 0.000200783 0)
(63.8889 0.000152849 0)
(63.889 7.7617e-05 0)
(63.889 6.40666e-05 0)
(63.8891 0.000132091 0)
(63.8891 0.000221537 0)
(63.8892 0.000253984 0)
(63.8893 0.000199659 0)
(63.8895 0.000144739 0)
(63.8894 0.000165939 0)
(63.8894 0.000233392 0)
(63.8894 0.00024861 0)
(63.8894 0.000177974 0)
(63.8894 0.000111549 0)
(63.8894 9.9339e-05 0)
(63.8893 9.79677e-05 0)
(63.8892 9.21703e-05 0)
(63.8893 9.35896e-05 0)
(63.8895 8.42262e-05 0)
(63.8897 6.11173e-05 0)
(63.8898 6.19878e-05 0)
(63.8899 9.2231e-05 0)
(63.8898 0.000113883 0)
(63.8898 0.000118909 0)
(63.8897 0.000118151 0)
(63.8898 0.000110887 0)
(63.8899 0.000105421 0)
(63.89 0.000112416 0)
(63.8901 0.000128926 0)
(63.8901 0.000150721 0)
(63.8901 0.000175855 0)
(63.8901 0.000195648 0)
(63.8902 0.000202579 0)
(63.8901 0.000202587 0)
(63.89 0.000206579 0)
(63.8901 0.000208507 0)
(63.8902 0.000201914 0)
(63.8902 0.000195967 0)
(63.8903 0.000198351 0)
(63.8903 0.000200769 0)
(63.8903 0.000191441 0)
(63.8904 0.000189702 0)
(63.8904 0.000189975 0)
(63.8905 0.00016799 0)
(63.8905 0.000151588 0)
(63.8905 0.000125882 0)
(63.8905 8.10695e-05 0)
(63.8905 0.000102874 0)
(63.8904 0.000180007 0)
(63.8905 0.000207709 0)
(63.8905 0.000175999 0)
(63.8906 0.000153089 0)
(63.8907 0.000163419 0)
(63.8907 0.000181458 0)
(63.8908 0.000206319 0)
(63.8909 0.000221125 0)
(63.8909 0.000192137 0)
(63.8908 0.000148895 0)
(63.8908 0.000124785 0)
(63.8908 0.000117676 0)
(63.8909 0.000135155 0)
(63.8911 0.000173629 0)
(63.8912 0.000197064 0)
(63.8912 0.000193114 0)
(63.8911 0.000181076 0)
(63.891 0.000158764 0)
(63.8911 0.000136293 0)
(63.8911 0.000135523 0)
(63.8911 0.000154843 0)
(63.8912 0.000193667 0)
(63.8912 0.000231566 0)
(63.8913 0.000251252 0)
(63.8915 0.000251305 0)
(63.8914 0.000198495 0)
(63.8914 0.000104093 0)
(63.8915 4.54419e-05 0)
(63.8914 4.71597e-05 0)
(63.8914 7.59839e-05 0)
(63.8916 0.000121211 0)
(63.8916 0.000168826 0)
(63.8917 0.00017286 0)
(63.8917 0.000134283 0)
(63.8917 9.68041e-05 0)
(63.8917 8.02239e-05 0)
(63.8918 8.04612e-05 0)
(63.8919 7.5596e-05 0)
(63.8919 7.00722e-05 0)
(63.8919 9.85343e-05 0)
(63.8919 0.000142393 0)
(63.8919 0.000155844 0)
(63.8919 0.000140996 0)
(63.892 0.000124403 0)
(63.892 0.000123804 0)
(63.892 0.000140486 0)
(63.892 0.000171575 0)
(63.8921 0.000219372 0)
(63.892 0.00025708 0)
(63.8921 0.000257732 0)
(63.8922 0.000238095 0)
(63.8921 0.000217431 0)
(63.8921 0.000196404 0)
(63.8921 0.000175958 0)
(63.8921 0.000162825 0)
(63.8923 0.000158067 0)
(63.8923 0.0001612 0)
(63.8923 0.000175576 0)
(63.8924 0.000184006 0)
(63.8924 0.000175329 0)
(63.8924 0.000161201 0)
(63.8925 0.000149706 0)
(63.8925 0.000144378 0)
(63.8925 0.000136494 0)
(63.8925 0.000130978 0)
(63.8926 0.000137802 0)
(63.8926 0.000143553 0)
(63.8928 0.000162567 0)
(63.8928 0.000191884 0)
(63.8927 0.000182245 0)
(63.8928 0.000144873 0)
(63.8928 0.000133092 0)
(63.8928 0.000155658 0)
(63.8928 0.000201141 0)
(63.8928 0.000258439 0)
(63.8928 0.0002961 0)
(63.8928 0.000294298 0)
(63.8929 0.000265856 0)
(63.8929 0.000231184 0)
(63.893 0.00021265 0)
(63.893 0.000211397 0)
(63.893 0.000210118 0)
(63.893 0.000209418 0)
(63.893 0.000208158 0)
(63.8931 0.000206743 0)
(63.8931 0.000218003 0)
(63.8931 0.000232862 0)
(63.8932 0.000236317 0)
(63.8932 0.000238665 0)
(63.8932 0.000242022 0)
(63.8932 0.000229222 0)
(63.8932 0.000206338 0)
(63.8932 0.000183934 0)
(63.8933 0.000160119 0)
(63.8933 0.000158644 0)
(63.8933 0.00019013 0)
(63.8934 0.000226612 0)
(63.8934 0.000244962 0)
(63.8934 0.0002341 0)
(63.8935 0.00019847 0)
(63.8935 0.000158235 0)
(63.8935 0.000135113 0)
(63.8936 0.000133486 0)
(63.8936 0.000137675 0)
(63.8936 0.000141672 0)
(63.8937 0.000137544 0)
(63.8938 0.000123638 0)
(63.8938 0.000124014 0)
(63.8939 0.00014333 0)
(63.8939 0.000170773 0)
(63.8939 0.000200057 0)
(63.8939 0.000221032 0)
(63.8939 0.000230867 0)
(63.8939 0.000231327 0)
(63.894 0.000235178 0)
(63.8941 0.000247545 0)
(63.8941 0.000251234 0)
(63.8941 0.000241474 0)
(63.8941 0.00021589 0)
(63.8941 0.000186176 0)
(63.8941 0.000189387 0)
(63.8942 0.000227613 0)
(63.8943 0.000271118 0)
(63.8943 0.000286779 0)
(63.8943 0.000255686 0)
(63.8943 0.000209448 0)
(63.8942 0.000184135 0)
(63.8942 0.000181645 0)
(63.8943 0.000205091 0)
(63.8944 0.000244735 0)
(63.8944 0.000269217 0)
(63.8945 0.000276803 0)
(63.8945 0.000279728 0)
(63.8945 0.000259994 0)
(63.8945 0.00021481 0)
(63.8944 0.00017516 0)
(63.8944 0.000157841 0)
(63.8945 0.000179476 0)
(63.8945 0.000232334 0)
(63.8946 0.000259431 0)
(63.8947 0.000247087 0)
(63.8948 0.000216191 0)
(63.8948 0.000169098 0)
(63.8948 0.000132389 0)
(63.8948 0.000129798 0)
(63.8948 0.000161598 0)
(63.8949 0.000211553 0)
(63.8949 0.000231008 0)
(63.8949 0.000213361 0)
(63.895 0.0002027 0)
(63.895 0.000207632 0)
(63.895 0.000204856 0)