/*--------------------------------*- C++ -*----------------------------------*\
| =========                 |                                                 |
| \\      /  F ield         | OpenFOAM: The Open Source CFD Toolbox           |
|  \\    /   O peration     | Version:  2406                                  |
|   \\  /    A nd           | Website:  www.openfoam.com                      |
|    \\/     M anipulation  |                                                 |
\*---------------------------------------------------------------------------*/
FoamFile
{
    version     2.0;
    format      ascii;
    arch        "LSB;label=32;scalar=64";
    class       volScalarField;
    location    "0.05";
    object      alpha.glycerin;
}
// * * * * * * * * * * * * * * * * * * * * * * * * * * * * * * * * * * * * * //

dimensions      [0 0 0 0 0 0 0];

internalField   nonuniform List<scalar> 
6250
(
1.84877e-54
1.61593e-53
1.06676e-52
4.15373e-52
1.16921e-51
2.45063e-51
4.29744e-51
7.41417e-51
1.52989e-50
4.58288e-50
1.89073e-49
8.02986e-49
2.7401e-48
7.68953e-48
8.32187e-47
2.5691e-45
3.3396e-44
2.15953e-43
8.74601e-43
1.9466e-42
3.23955e-42
3.20817e-40
1.71667e-37
2.35754e-36
2.42106e-36
2.67177e-36
-1.35992e-11
0.357159
0.942227
0.995375
0.998798
0.999528
0.999698
0.999747
0.999758
0.999938
1.00004
1.00009
1.00007
1.00002
0.99997
0.999921
0.999934
0.999977
1
1.00003
1.00005
1.00005
1.00006
1.00006
1.00005
1.00002
0.999998
0.999974
0.999912
0.999948
0.999974
0.999985
0.999981
0.999982
0.999989
0.999996
1
1.00002
1.00002
1.00002
1.00002
1
0.999985
0.99996
0.999959
0.999959
0.999959
0.999973
0.999994
1
1.00001
1.00001
1.00001
1.00001
1
0.999999
0.999988
0.99998
0.999977
0.999976
0.999976
0.999978
0.999982
0.999987
0.999989
0.999989
0.999988
0.999985
0.999982
0.999982
0.999982
0.999984
0.999989
0.999993
0.999994
0.999994
0.999995
0.999994
0.999989
0.999984
0.999981
0.99998
0.99998
0.99998
0.99998
0.999981
0.999981
0.999981
0.999979
0.999975
0.999975
0.999975
0.999975
0.999975
0.999976
0.999982
0.999988
0.999991
0.999993
0.999995
0.999997
0.999996
0.999996
0.999994
0.999992
0.99999
0.999988
0.999985
0.999985
0.999985
0.999986
0.999988
0.99999
0.999993
0.999995
0.999996
0.999997
0.999997
0.999996
0.999992
0.99999
0.99999
0.99999
0.999991
0.999991
0.999991
0.999992
0.999993
0.999994
0.999994
0.999995
0.999996
0.999996
0.999997
0.999998
0.999998
0.999998
0.999998
0.999999
1
1
1
0.999999
0.999998
0.999998
0.999995
0.999991
0.999991
0.999994
0.999991
0.999988
0.999983
0.999983
0.999987
0.99999
0.99999
0.99999
0.999991
0.999993
0.999993
0.999993
0.999994
0.999994
0.999994
0.999994
0.999995
0.999995
0.999995
0.999996
0.999999
1
1
1.00001
1.00001
1.00001
1.00001
1.00001
1.00001
1.00001
1.00001
1.00001
1.00001
1.00001
1.00001
1.00001
1.00001
1
1
1
1
1
1.00001
1.00001
1.00001
1.00001
1.00001
1.00001
1.00001
1.00001
1.00001
1.00001
1.00001
1.00001
1.00001
1.00001
1.00001
1
0.999995
0.999985
0.999993
0.999999
1
1
1
1
1
1
0.999997
0.999988
0.999997
1
1.00001
1.00001
0.999998
5.20939e-55
4.00498e-54
2.57089e-53
9.47718e-53
2.46708e-52
3.64646e-52
3.3126e-52
2.1287e-52
9.75328e-53
3.68248e-53
1.95456e-53
1.88769e-53
1.67889e-52
1.53652e-49
3.91081e-47
3.10151e-45
8.36885e-44
9.53881e-43
7.45675e-42
2.83084e-41
1.40274e-39
1.20528e-37
8.13006e-36
3.90106e-35
2.26693e-35
2.66173e-36
0.00203467
0.0190704
0.0784962
0.439711
0.936927
0.996124
0.998339
0.998891
0.999377
0.999659
0.99985
0.999917
0.999931
0.999928
0.999889
0.99987
0.999865
0.999926
1
1.00002
1.00005
1.00006
1.00005
1.00003
1
0.999973
0.999911
0.999911
0.999911
0.999912
0.999974
1.00001
1.00003
1.00003
1.00002
1
0.999989
0.999953
0.999953
0.999953
0.999956
0.999973
0.999979
0.999986
0.999993
0.999998
0.999999
0.999999
0.999999
0.999999
0.999996
0.999996
0.999997
1
1.00001
1.00002
1.00002
1.00003
1.00005
1.00005
1.00006
1.00007
1.00007
1.00007
1.00007
1.00006
1.00006
1.00005
1.00005
1.00005
1.00005
1.00005
1.00004
1.00004
1.00003
1.00002
1.00002
1.00001
1
0.999994
0.999988
0.999996
1
1.00001
1.00001
1.00002
1.00002
1.00003
1.00003
1.00003
1.00003
1.00003
1.00003
1.00003
1.00004
1.00004
1.00004
1.00004
1.00004
1.00004
1.00004
1.00004
1.00004
1.00004
1.00004
1.00004
1.00004
1.00004
1.00004
1.00005
1.00005
1.00005
1.00006
1.00006
1.00006
1.00006
1.00006
1.00006
1.00006
1.00005
1.00005
1.00004
1.00004
1.00003
1.00003
1.00003
1.00003
1.00003
1.00003
1.00003
1.00003
1.00003
1.00003
1.00003
1.00003
1.00003
1.00003
1.00003
1.00003
1.00003
1.00003
1.00003
1.00002
1.00002
1.00002
1.00001
1.00001
1
0.999997
0.999995
0.99999
0.999986
0.999985
0.999964
0.999959
0.999958
0.999958
0.999958
0.999958
0.999958
0.999959
0.999987
0.999959
0.999958
0.999958
0.999958
0.999958
0.999958
0.999965
0.999958
0.999958
0.999958
0.999958
0.999959
0.999974
0.99999
0.999992
0.999994
0.999997
1
1
0.999999
0.999999
0.999995
0.999988
0.999988
0.999988
0.999988
0.999988
0.999988
0.999988
0.999988
0.999999
1
1
1
1.00001
1.00001
1.00001
1.00001
1.00002
1.00002
1.00001
1.00001
1.00001
1
1
0.999988
0.999984
0.999984
0.999986
0.999997
1
1
1
1
0.999993
0.999988
0.999988
0.999996
1
1
1
0.999998
3.84227e-57
2.20546e-55
9.87803e-55
2.79978e-54
4.86601e-54
8.04126e-54
9.39296e-54
9.00162e-54
6.229e-54
5.37901e-54
6.2198e-54
1.80299e-53
1.34592e-51
6.05989e-50
1.47381e-47
1.91682e-45
1.13295e-43
2.61148e-42
2.83043e-41
2.28626e-40
5.53146e-39
2.96173e-37
3.19551e-35
4.13435e-35
3.98229e-35
1.81497e-06
0.000390802
0.00241337
0.0168127
0.0566324
0.207083
0.656335
0.983734
0.993911
0.996821
0.998583
0.999427
0.999772
0.999867
0.999858
0.99982
0.999872
0.999956
0.999986
1
1
1.00004
1.00007
1.00008
1.00007
1.00005
1.00003
1
0.999999
0.999956
0.999917
0.999921
0.999931
0.999993
1
1.00003
1.00005
1.00005
1.00005
1.00004
1.00002
1
0.999978
0.999941
0.99994
0.99994
0.99994
0.999941
0.999945
0.999968
0.999999
1
1
0.999999
0.999998
0.999983
0.999977
0.999976
0.999976
0.999976
0.999976
0.999981
0.999995
1
1
0.999999
0.999989
0.999982
0.999982
0.999982
0.999982
0.999984
0.999998
1
1
1
1
1
0.999996
0.999977
0.999965
0.999963
0.999963
0.999963
0.999963
0.999963
0.999965
0.999967
0.999983
0.99997
0.999969
0.999969
0.999969
0.999968
0.999968
0.999968
0.999968
0.999969
0.999988
0.999998
0.999997
0.999995
0.999995
0.999995
0.999995
0.999991
0.999987
0.999987
0.999987
0.999987
0.999987
0.999989
0.999999
1
1
1.00001
1.00001
1.00001
1.00001
1.00001
1.00001
1
0.999998
0.999988
0.999987
0.999987
0.999987
0.999987
0.999987
0.999988
0.999988
0.999995
1
1
1
1
1
1
1
1
1.00001
1.00001
1
1
1
1
1
1
0.999997
0.999996
0.999985
0.999976
0.999974
0.999971
0.999967
0.999962
0.999978
0.999984
0.999984
0.999982
0.999986
0.999987
0.999987
0.999986
0.999979
0.999987
0.999988
0.999988
0.999968
0.999977
0.999998
1
1
1
1
1.00001
1.00001
1.00001
1.00001
1.00002
1.00002
1.00002
1.00002
1.00001
1.00001
1.00001
1.00001
1.00001
1.00001
1
0.999997
1
1
1.00001
1.00001
1.00001
1.00001
1.00001
1.00001
1.00002
1.00002
1.00002
1.00002
1.00002
1.00002
1.00001
1.00001
1.00001
0.999999
0.999991
0.999984
0.999986
0.999988
0.999999
1
1
1
0.999996
0.999988
0.999992
1
1
1
1
1
-1.57066e-63
-7.46273e-58
5.39852e-58
4.26154e-57
7.84055e-57
5.17155e-56
1.24299e-55
6.42807e-55
2.25871e-54
2.84665e-54
-7.1743e-54
9.26683e-52
2.5395e-50
7.80848e-49
7.85215e-48
5.55679e-47
1.86479e-46
1.93286e-43
6.01381e-42
8.14454e-41
1.78591e-39
1.65114e-38
3.85551e-35
4.74191e-35
6.96411e-35
1.48008e-06
0.000136533
0.00137394
0.00694984
0.0256609
0.0866318
0.320274
0.810673
0.961533
0.979398
0.990502
0.995544
0.997909
0.999014
0.999526
0.999734
0.999833
0.999901
0.999961
0.999991
1
1
1
1
0.999997
0.999992
0.999991
0.999981
0.999928
0.999916
0.99993
0.999961
0.999972
0.999987
1
1
1
1.00001
1.00001
1.00001
1.00001
1
0.999997
0.999997
0.999991
0.999981
0.999967
0.99998
0.999989
0.999997
1
1
1
1.00001
1.00001
1.00001
1.00001
1.00001
1.00002
1.00002
1.00002
1.00003
1.00003
1.00004
1.00004
1.00004
1.00003
1.00003
1.00003
1.00002
1.00002
1.00002
1.00002
1.00002
1.00002
1.00002
1.00001
1.00001
1
0.999999
0.999996
0.999985
0.999991
0.999999
1
1
1.00001
1.00001
1.00001
1.00001
1.00001
1.00001
1.00001
1.00001
1.00001
1.00001
1.00001
1.00001
1.00002
1.00002
1.00002
1.00002
1.00002
1.00002
1.00002
1.00002
1.00002
1.00002
1.00002
1.00002
1.00003
1.00003
1.00003
1.00004
1.00004
1.00004
1.00004
1.00004
1.00004
1.00004
1.00004
1.00003
1.00003
1.00002
1.00002
1.00002
1.00002
1.00001
1.00001
1.00001
1.00001
1.00001
1.00001
1.00001
1.00001
1.00001
1.00002
1.00002
1.00002
1.00002
1.00002
1.00002
1.00002
1.00002
1.00001
1.00001
1.00001
1
1
0.999997
0.999995
0.999994
0.999991
0.999977
0.999963
0.999962
0.999961
0.999961
0.999961
0.999963
0.999966
0.999966
0.999973
0.999984
0.999971
0.999968
0.999968
0.999967
0.999967
0.999967
0.99997
0.999967
0.999967
0.999967
0.999967
0.99998
0.999997
1
1
1
1
1
1
1
1
1
1
1
0.999997
0.999993
0.999993
0.999993
0.999993
0.999996
1
1
1
1.00001
1.00001
1.00001
1.00001
1.00002
1.00002
1.00002
1.00002
1.00001
1.00001
1
0.999998
0.999986
0.999985
0.999986
0.999998
1
1
1
1
0.999992
0.999986
0.999994
1
1
1
1
1
-1.0787e-61
-5.25338e-60
2.48299e-59
1.1055e-58
-1.23466e-63
-3.4698e-55
-3.23702e-55
5.68674e-54
4.06812e-53
1.12796e-52
-4.75992e-52
2.2734e-50
4.48616e-49
1.6164e-47
-1.18768e-46
1.37479e-63
1.32259e-45
5.68226e-45
1.60481e-43
6.20808e-42
6.21938e-41
8.25293e-41
3.6416e-35
7.3651e-35
9.86555e-35
1.5689e-06
9.32264e-05
0.00112423
0.00632636
0.0220691
0.0726571
0.24543
0.69886
0.923953
0.957884
0.977694
0.988374
0.993975
0.996879
0.998362
0.999129
0.999541
0.999764
0.999887
0.999958
0.999991
1
1
1
1
0.999997
0.999993
0.999966
0.999916
0.999914
0.999914
0.999914
0.999954
1
1.00002
1.00003
1.00003
1.00002
1.00001
0.999999
0.99996
0.999957
0.999957
0.999957
0.999957
0.999957
0.999957
0.999957
0.999961
0.999986
0.999995
0.999977
0.999977
0.999977
0.999977
0.999978
0.99998
0.999994
1
1
1.00001
1.00001
1.00001
1.00001
1.00001
1.00001
1.00001
1.00001
1.00001
1.00001
1.00002
1.00002
1.00002
1.00002
1.00002
1.00001
1.00001
1
1
0.999988
0.999975
0.999974
0.999973
0.999973
0.999973
0.999973
0.999974
0.99999
0.999999
0.999989
0.999986
0.999986
0.999986
0.999985
0.999986
0.999986
0.999995
1
1
1
1
1.00001
1.00001
1
1
1
1
1
1
1
1
1.00001
1.00001
1.00002
1.00002
1.00002
1.00002
1.00003
1.00003
1.00002
1.00002
1.00002
1.00001
1.00001
1
1
1
1
1
1
1
1
1.00001
1.00001
1.00001
1.00001
1.00001
1.00001
1.00001
1.00001
1.00001
1.00001
1.00001
1.00001
1.00001
1.00001
1.00001
1
1
1
0.999998
0.999997
0.999995
0.999972
0.999965
0.999963
0.999971
0.99998
0.99998
0.999974
0.999981
0.999982
0.999983
0.999983
0.999983
0.999979
0.999982
0.999982
0.999982
0.999975
0.999969
0.99997
0.999992
0.999999
1
1
1
1
1.00001
1.00001
1.00001
1.00001
1.00001
1.00001
1.00001
1.00001
1.00001
1.00001
1
1
0.999998
0.999993
1
1
1
1.00001
1.00001
1.00001
1.00001
1.00001
1.00002
1.00002
1.00002
1.00002
1.00002
1.00001
1.00001
1
0.999999
0.999987
0.999986
0.999987
0.999991
1
1
1
1
0.999987
0.999985
0.999995
1
1
1
1
1
-3.99872e-64
3.23794e-64
0
-4.00117e-74
-1.14477e-64
-3.40163e-57
2.7548e-55
2.10985e-53
4.1709e-52
4.53194e-52
-7.74826e-51
5.23288e-49
2.68607e-47
3.9027e-46
-1.55724e-44
-1.28972e-44
8.54637e-44
3.9375e-43
1.57292e-42
3.95283e-42
5.65391e-42
3.42827e-41
5.43253e-35
8.15724e-35
1.40249e-34
1.52623e-06
8.47689e-05
0.00101311
0.00614365
0.0216997
0.0759076
0.226429
0.644217
0.918031
0.954065
0.974399
0.985789
0.992135
0.99569
0.997655
0.998721
0.999316
0.999654
0.999818
0.999899
0.99996
0.999991
1
1.00001
1.00001
1.00002
1.00001
1.00001
1.00001
1.00001
1
0.999961
0.999953
0.999993
1
1.00001
1.00003
1.00003
1.00003
1.00002
1.00001
0.999999
0.999995
0.999989
0.999957
0.999957
0.999957
0.999971
0.999987
0.999995
0.999998
1
1
1
1
0.999995
0.999997
1
1
1.00001
1.00001
1.00002
1.00002
1.00002
1.00002
1.00002
1.00002
1.00001
1.00001
1.00001
1.00001
1.00001
1.00001
1.00001
1.00001
1.00001
1.00001
1
1
0.999999
0.999998
0.999981
0.999974
0.999979
0.999991
0.999994
0.999994
0.999995
0.999998
0.999997
0.999997
0.999997
0.999996
0.999997
0.999999
1
1
1
1.00001
1.00001
1.00001
1.00001
1.00001
1.00001
1.00001
1.00001
1.00001
1.00001
1.00001
1.00001
1.00002
1.00002
1.00003
1.00003
1.00003
1.00003
1.00004
1.00004
1.00003
1.00003
1.00003
1.00002
1.00002
1.00002
1.00001
1.00001
1.00001
1
1
1.00001
1.00001
1.00001
1.00001
1.00001
1.00001
1.00001
1.00001
1.00001
1.00001
1.00001
1.00001
1.00001
1.00001
1.00001
1.00001
1.00001
1
1
1
0.999997
0.999995
0.999995
0.999973
0.999965
0.999964
0.999963
0.999963
0.999963
0.999965
0.999967
0.999967
0.99997
0.999982
0.999983
0.99998
0.999968
0.999965
0.999968
0.999972
0.999969
0.999969
0.999969
0.999969
0.999969
0.999981
0.999999
1
1
1
1
1
1
1
1
1
1
1
1
1
0.999995
0.999994
0.999994
0.999995
1
1
1
1
1.00001
1.00001
1.00001
1.00001
1.00002
1.00002
1.00002
1.00002
1.00001
1.00001
1
0.999996
0.999987
0.999986
0.999987
0.999997
1
1
1
0.999998
0.999985
0.999985
0.999996
1
1
1
1
1
0
0
-2.88507e-59
-2.2516e-58
-2.85281e-58
-6.28446e-57
-8.73835e-56
1.97486e-53
3.28628e-52
-1.59744e-50
-4.29432e-65
1.26787e-49
8.16697e-48
-8.5996e-51
-9.1521e-43
-4.68899e-43
-4.3641e-46
4.7828e-43
1.80307e-40
6.14858e-40
1.52046e-39
5.04317e-38
4.02009e-35
1.22568e-34
1.54258e-34
1.44303e-06
8.41596e-05
0.00104197
0.00616891
0.0220612
0.0758475
0.226473
0.638827
0.917016
0.953264
0.97385
0.985468
0.991938
0.99553
0.997549
0.998666
0.999267
0.999602
0.999794
0.999889
0.999939
0.999974
0.999994
1
1
1
0.999998
0.999987
0.999991
1
1.00001
1.00001
1
0.999997
0.999974
0.999975
0.999997
1
1
1
1
0.999997
0.999998
0.999983
0.999966
0.999983
0.999983
0.999985
0.999982
0.999972
0.999971
0.999971
0.999971
0.999971
0.999971
0.999973
0.999989
1
1
1
1.00001
1.00001
1.00002
1.00002
1.00002
1.00002
1.00002
1.00002
1.00002
1.00002
1.00002
1.00002
1.00002
1.00001
1.00001
1.00001
1
1
0.999997
0.999984
0.999979
0.999979
0.999977
0.999979
0.99998
0.999993
0.999995
0.999995
0.999994
0.999992
0.999992
0.999992
0.999992
0.999992
0.999992
0.999999
1
1
1
1.00001
1.00001
1.00001
1.00001
1.00001
1.00001
1.00001
1
1
1.00001
1.00001
1.00001
1.00002
1.00002
1.00002
1.00003
1.00003
1.00003
1.00003
1.00003
1.00003
1.00003
1.00002
1.00002
1.00001
1.00001
1.00001
1.00001
1.00001
1
1
1
1.00001
1.00001
1.00001
1.00001
1.00001
1.00001
1.00001
1.00001
1.00001
1.00002
1.00002
1.00002
1.00001
1.00001
1.00001
1.00001
1
1
0.999999
0.999997
0.999997
0.999994
0.999977
0.999965
0.999964
0.999964
0.999976
0.999977
0.999978
0.999979
0.999979
0.999979
0.999977
0.999978
0.999979
0.999979
0.999979
0.999979
0.999972
0.999969
0.999969
0.999971
0.999991
0.999998
1
1
1
1
1
1.00001
1.00001
1.00001
1.00001
1.00001
1
1
1
1
0.999999
0.999995
0.999994
0.999998
1
1
1
1.00001
1.00001
1.00001
1.00001
1.00002
1.00002
1.00002
1.00002
1.00002
1.00001
1.00001
1
0.999995
0.999987
0.999986
0.999987
0.999997
1
1
1
0.999996
0.999985
0.999985
0.999995
1
1
1
1
1
0
-2.80448e-61
-2.55632e-58
-4.82145e-58
-1.70347e-57
-2.10886e-54
-1.12976e-53
-9.24963e-54
4.77097e-51
-7.23475e-49
-4.02507e-49
8.3274e-48
9.3918e-47
-1.61604e-51
-1.49483e-41
-8.9261e-46
4.31239e-44
3.22337e-43
1.50721e-40
1.21807e-39
2.27349e-39
1.62697e-36
2.51816e-35
8.19846e-35
2.56888e-34
1.39663e-06
8.60536e-05
0.00107453
0.00620898
0.0222079
0.0747882
0.230991
0.653042
0.917971
0.953753
0.974063
0.985543
0.991972
0.995553
0.997553
0.998656
0.999259
0.999604
0.9998
0.999894
0.999942
0.999977
0.999995
1
1
1
0.999998
0.999975
0.999941
0.999941
0.999941
0.999942
0.999947
0.999963
0.999977
0.999987
1
1
1
0.999999
0.999983
0.99997
0.999967
0.999967
0.999967
0.999967
0.99997
0.999987
0.999998
1
1
1
1
1
1
1
1
1
1
1.00001
1.00001
1.00002
1.00002
1.00002
1.00002
1.00002
1.00002
1.00002
1.00002
1.00002
1.00002
1.00002
1.00002
1.00002
1.00002
1.00001
1.00001
1.00001
1
1
0.999994
0.999979
0.999979
0.999979
0.999986
0.999993
0.999995
0.999996
0.999996
0.999996
0.999996
0.999992
0.999991
0.999992
0.999998
1
1
1
1
1.00001
1.00001
1.00001
1.00001
1.00001
1.00001
1.00001
1.00001
1.00001
1.00001
1.00001
1.00002
1.00002
1.00002
1.00003
1.00003
1.00003
1.00003
1.00003
1.00003
1.00003
1.00003
1.00002
1.00002
1.00002
1.00001
1.00001
1.00001
1
1
1.00001
1.00001
1.00001
1.00001
1.00001
1.00001
1.00001
1.00001
1.00001
1.00002
1.00002
1.00002
1.00002
1.00002
1.00001
1.00001
1.00001
1.00001
1
1
0.999999
0.999998
0.999996
0.99998
0.99997
0.999968
0.999966
0.999967
0.999971
0.999975
0.999977
0.999978
0.999979
0.999979
0.999979
0.999978
0.999976
0.999971
0.999972
0.999972
0.999972
0.99997
0.99997
0.999971
0.999979
0.999997
0.999999
1
1
1
1
1
1
1.00001
1.00001
1
1
1
1
1
0.999998
0.999996
0.999995
0.999999
1
1
1
1.00001
1.00001
1.00001
1.00001
1.00002
1.00002
1.00002
1.00002
1.00002
1.00001
1.00001
1
0.999996
0.999986
0.999985
0.999986
0.999999
1
1
1
0.999996
0.999985
0.999985
0.999994
1
1
1
1
1
-3.81126e-65
-1.39748e-60
-6.8134e-58
-9.70807e-58
-3.79121e-55
-1.66275e-52
-5.92937e-54
6.98591e-52
2.86308e-49
8.61861e-49
-3.15617e-47
3.96458e-46
6.20081e-45
2.09137e-43
-9.57015e-43
-1.68191e-39
5.78757e-41
1.79784e-40
3.00525e-40
7.72616e-40
7.11184e-37
1.4513e-35
5.78572e-35
6.43408e-34
1.59511e-33
1.3898e-06
8.86986e-05
0.00108917
0.00623795
0.0221843
0.0741483
0.235868
0.669969
0.919319
0.95452
0.974491
0.985753
0.992053
0.995607
0.997589
0.998664
0.999255
0.999615
0.99981
0.999889
0.999948
0.999985
0.999999
1
1.00001
1.00002
1.00002
1.00001
1
1
0.999994
0.999984
0.999994
1
1.00001
1.00002
1.00002
1.00001
1.00001
1
0.999997
0.999996
0.999993
0.999987
0.999967
0.999983
0.999983
0.999983
0.999969
0.999968
0.999967
0.999967
0.999967
0.999968
0.999973
0.999988
1
1
1
1
1.00001
1.00001
1.00002
1.00002
1.00002
1.00002
1.00002
1.00002
1.00001
1.00001
1.00001
1.00001
1.00001
1
1
1
1
0.999999
0.999994
0.999981
0.99998
0.999979
0.999979
0.999979
0.999979
0.99998
0.999991
0.999995
0.999996
0.999991
0.999991
0.999991
0.999991
0.999991
0.999992
0.999999
1
1
1
1
1.00001
1.00001
1.00001
1
1
1
1
1.00001
1.00001
1.00001
1.00001
1.00002
1.00002
1.00003
1.00003
1.00003
1.00003
1.00003
1.00003
1.00003
1.00002
1.00002
1.00002
1.00001
1.00001
1.00001
1
1
1
0.999999
1
1
1
1
1.00001
1.00001
1.00001
1.00001
1.00001
1.00001
1.00001
1.00001
1.00001
1.00001
1.00001
1.00001
1
1
0.999999
0.999998
0.999997
0.999989
0.999972
0.999971
0.99997
0.999969
0.99997
0.999971
0.999971
0.999976
0.999977
0.999978
0.999979
0.999978
0.999978
0.999975
0.99997
0.999972
0.999972
0.999971
0.99997
0.99997
0.99997
0.999982
0.999997
0.999999
1
1
1
1
1
1
1
1
1
1
1
1
1
0.999998
0.999996
0.999996
0.999996
0.999999
1
1
1
1.00001
1.00001
1.00001
1.00001
1.00002
1.00002
1.00002
1.00002
1.00001
1.00001
1
0.999992
0.999985
0.999985
0.999985
0.999998
1
1.00001
1
1
0.999985
0.999985
0.999995
1
1
1
1
1
-1.44002e-62
-6.89209e-58
-1.788e-55
-2.62624e-55
-2.20585e-55
-5.12711e-53
-8.77874e-53
1.85189e-48
1.76386e-47
9.76581e-47
5.43161e-46
2.81533e-44
5.52211e-42
1.11591e-39
2.22584e-38
1.61409e-37
9.81977e-37
1.63293e-36
-1.68711e-35
1.40264e-36
1.42067e-36
8.08826e-36
5.01011e-35
9.84371e-33
1.36575e-32
1.39931e-06
9.10219e-05
0.00109811
0.00625589
0.0221972
0.0737866
0.239905
0.682882
0.9204
0.955126
0.974834
0.985927
0.992132
0.995638
0.997594
0.998668
0.999275
0.999631
0.999793
0.999895
0.999962
0.999994
1
1.00002
1.00003
1.00002
1.00002
1.00001
1
0.999998
1
0.999997
0.999994
0.999973
0.999969
0.99997
0.99997
0.99997
0.999989
0.999984
0.999961
0.999957
0.999955
0.999955
0.999955
0.999958
0.999973
0.999989
0.999992
0.999994
0.999995
0.999995
0.999995
0.999995
0.999989
0.999987
0.999992
1
1
1
1.00001
1.00001
1.00002
1.00002
1.00002
1.00003
1.00003
1.00003
1.00002
1.00002
1.00002
1.00002
1.00002
1.00002
1.00001
1.00001
1.00001
1
0.999999
0.999999
0.999991
0.99998
0.999979
0.999979
0.999981
0.999993
0.999994
0.999995
0.999996
0.999996
0.999996
0.999993
0.999991
0.999994
0.999999
1
1
1
1
1.00001
1.00001
1.00001
1.00001
1.00001
1.00001
1.00001
1.00001
1.00001
1.00001
1.00001
1.00002
1.00002
1.00002
1.00003
1.00003
1.00003
1.00003
1.00003
1.00003
1.00003
1.00003
1.00002
1.00002
1.00002
1.00001
1.00001
1.00001
1
1
1
1.00001
1.00001
1.00001
1.00001
1.00001
1.00001
1.00001
1.00001
1.00002
1.00002
1.00002
1.00002
1.00002
1.00001
1.00001
1.00001
1.00001
1
1
0.999999
0.999997
0.999996
0.999993
0.999978
0.999971
0.99997
0.999971
0.999977
0.999977
0.999978
0.999973
0.999973
0.999974
0.999978
0.999973
0.999972
0.999972
0.999972
0.999973
0.999972
0.99997
0.99997
0.99997
0.999988
0.999997
0.999999
1
1
1
1
1
1
1
1
1
1
1
1
1
1
0.999997
0.999996
0.999999
1
1
1
1
1.00001
1.00001
1.00001
1.00001
1.00002
1.00002
1.00002
1.00002
1.00001
1.00001
1
0.999996
0.999985
0.999984
0.999985
1
1
1.00001
1.00001
1
0.99999
0.999985
0.999995
1
1
1
1
1
-7.35436e-61
-7.62898e-57
-8.32422e-55
-1.21355e-54
-6.09507e-55
-2.92578e-66
3.4494e-50
6.29648e-47
1.06618e-45
7.57495e-45
3.00225e-44
1.50186e-42
6.00995e-40
4.04809e-38
1.01389e-36
9.37158e-36
6.88794e-35
7.70548e-34
2.06065e-32
2.17544e-31
3.15583e-31
6.28392e-30
4.40146e-29
1.07735e-28
4.64029e-29
1.41416e-06
9.23664e-05
0.00110193
0.00626463
0.0222194
0.073643
0.242211
0.689806
0.920987
0.955451
0.974993
0.986013
0.992179
0.995647
0.997585
0.998658
0.999267
0.999624
0.999789
0.999885
0.999956
0.999992
1
1.00002
1.00003
1.00003
1.00001
1
0.999985
0.999951
0.999951
0.999951
0.999951
0.999952
0.999988
1
1.00001
1.00001
1.00001
1
1
0.999999
0.999998
0.999997
0.999992
0.999992
0.999992
0.999991
0.999985
0.999981
0.999984
0.999987
0.999988
0.999992
0.999995
0.999998
1
1
1
1.00001
1.00001
1.00001
1.00002
1.00002
1.00003
1.00003
1.00002
1.00002
1.00002
1.00002
1.00002
1.00001
1.00001
1.00001
1.00001
1.00001
1
1
0.999999
0.999999
0.999987
0.999981
0.999981
0.99998
0.999981
0.999988
0.999994
0.999995
0.999995
0.999996
0.999995
0.999993
0.999994
0.999999
1
1
1
1
1
1.00001
1.00001
1.00001
1.00001
1.00001
1.00001
1.00001
1.00001
1.00001
1.00001
1.00001
1.00002
1.00002
1.00002
1.00003
1.00003
1.00003
1.00003
1.00003
1.00003
1.00003
1.00002
1.00002
1.00002
1.00001
1.00001
1.00001
1
1
1
1
1
1
1.00001
1.00001
1.00001
1.00001
1.00001
1.00001
1.00001
1.00002
1.00002
1.00002
1.00001
1.00001
1.00001
1.00001
1.00001
1
1
0.999999
0.999998
0.999997
0.999985
0.999976
0.999973
0.999972
0.999974
0.999977
0.999978
0.999978
0.999978
0.999978
0.999978
0.999974
0.999971
0.999971
0.999971
0.999972
0.999974
0.999974
0.999972
0.999969
0.99997
0.999986
0.999997
0.999999
1
1
1
1
1
1
1
1
1
1
1
1
1
1
0.999998
0.999997
0.999998
1
1
1
1
1.00001
1.00001
1.00001
1.00001
1.00002
1.00002
1.00002
1.00002
1.00001
1.00001
1
0.999995
0.999984
0.999984
0.999984
0.999994
1
1.00001
1
1
0.999987
0.999986
0.999993
1
1
1
1
1
-1.4015e-58
-5.81466e-56
-8.18029e-54
-8.32178e-54
-4.27426e-54
-1.02528e-48
-1.26302e-46
4.82587e-45
6.66543e-44
4.03563e-43
1.50184e-42
7.78372e-41
3.43401e-38
1.79953e-36
4.63941e-35
4.46696e-34
3.36421e-33
5.17655e-32
1.84731e-30
2.42346e-29
5.27908e-29
3.3824e-28
2.69685e-27
7.87697e-27
3.84663e-27
1.42076e-06
9.23593e-05
0.0011025
0.00626722
0.0222237
0.0736183
0.242283
0.690064
0.921041
0.955488
0.97499
0.986003
0.992186
0.995632
0.997568
0.998647
0.999242
0.999585
0.999792
0.999881
0.999935
0.999975
0.999996
1
1.00001
1.00002
1.00002
1.00001
1
0.999999
0.999998
0.999986
0.999951
0.999969
0.999998
1
1
1
0.999988
0.999974
0.999948
0.999949
0.999945
0.999943
0.999942
0.999942
0.999942
0.999949
0.999985
0.999988
0.999991
0.999991
0.999991
0.999991
0.999991
0.999991
0.999991
0.999997
1
1
1
1.00001
1.00001
1.00002
1.00002
1.00002
1.00002
1.00002
1.00002
1.00002
1.00002
1.00001
1.00001
1.00001
1.00001
1.00001
1
1
0.999999
0.999993
0.999983
0.999982
0.999981
0.999981
0.999981
0.999981
0.999983
0.999993
0.999995
0.999993
0.999993
0.999993
0.999993
0.999994
0.999997
1
1
1
1
1
1
1
1
1
1.00001
1.00001
1.00001
1.00001
1.00001
1.00001
1.00002
1.00002
1.00002
1.00003
1.00003
1.00003
1.00003
1.00003
1.00003
1.00003
1.00002
1.00002
1.00002
1.00001
1.00001
1.00001
1
1
1
1
1
1
1.00001
1.00001
1.00001
1.00001
1.00001
1.00001
1.00001
1.00002
1.00002
1.00001
1.00001
1.00001
1.00001
1.00001
1
1
1
0.999998
0.999998
0.999994
0.999978
0.999976
0.999976
0.999974
0.999975
0.999976
0.999977
0.999978
0.999974
0.999969
0.999975
0.999974
0.999971
0.999971
0.999971
0.999971
0.999974
0.999974
0.999965
0.999966
0.999972
0.999992
0.999997
0.999999
1
1
1
1
1
1
1
1
1
1
1
1
1
1
1
0.999998
0.999998
0.999999
1
1
1
1
1.00001
1.00001
1.00001
1.00002
1.00002
1.00002
1.00002
1.00001
1.00001
1
0.999995
0.999984
0.999984
0.999984
0.999989
1
1
1
1
0.999987
0.999986
0.999994
1
1
1
1
1
-9.52521e-60
-2.53759e-55
-8.33549e-54
-7.10926e-53
-3.62927e-49
-3.89931e-46
-8.64472e-45
4.25445e-43
4.38123e-42
2.2537e-41
7.78352e-41
7.57912e-38
1.03035e-36
5.43764e-35
1.52506e-33
1.64008e-32
1.327e-31
1.98489e-30
7.43153e-29
9.91497e-28
3.94767e-27
1.33062e-26
1.2491e-25
2.68905e-25
1.15276e-25
1.4116e-06
9.07805e-05
0.00109839
0.00626076
0.0222089
0.0737446
0.240034
0.683374
0.920503
0.955179
0.974851
0.985954
0.992149
0.995647
0.997608
0.998677
0.999262
0.999623
0.999813
0.999891
0.99995
0.999987
1
1
1.00002
1.00002
1.00002
1.00001
1
0.999991
0.999953
0.999951
0.999952
0.999952
0.999972
1
1
1.00001
1.00001
1.00001
1
1
1
0.999998
0.999998
0.999995
0.999987
0.999966
0.999974
0.999979
0.999985
0.999989
0.999994
0.999996
0.999996
0.999999
1
1
1
1.00001
1.00001
1.00002
1.00002
1.00002
1.00003
1.00003
1.00002
1.00002
1.00002
1.00002
1.00001
1.00001
1.00001
1.00001
1.00001
1.00001
1
1
0.999999
0.999996
0.999983
0.999982
0.999982
0.999981
0.999981
0.999982
0.999991
0.999994
0.999995
0.999995
0.999995
0.999994
0.999993
0.999994
0.999997
1
1
1
1
1
1
1
1
1.00001
1.00001
1.00001
1.00001
1.00001
1.00001
1.00002
1.00002
1.00002
1.00002
1.00003
1.00003
1.00003
1.00003
1.00003
1.00003
1.00003
1.00002
1.00002
1.00002
1.00001
1.00001
1.00001
1
1
1
1
1
1
1.00001
1.00001
1.00001
1.00001
1.00001
1.00001
1.00001
1.00001
1.00001
1.00001
1.00001
1.00001
1.00001
1.00001
1
1
1
0.999998
0.999996
0.999994
0.999991
0.999978
0.999976
0.999975
0.999975
0.999975
0.999977
0.999977
0.99997
0.999969
0.999969
0.99997
0.999971
0.999971
0.999971
0.999972
0.999973
0.999971
0.999965
0.999965
0.999973
0.999995
0.999997
0.999999
1
1
1
1
1
1
1
1
1
1
1
1
1
1
1
0.999998
1
1
1
1
1
1.00001
1.00001
1.00001
1.00001
1.00002
1.00002
1.00002
1.00002
1.00001
1.00001
1
0.999996
0.999984
0.999984
0.999984
0.999986
1
1
1
0.999999
0.999986
0.999986
0.999994
1
1
1
1
1
-2.17844e-58
-6.64008e-54
-5.38829e-51
-7.14469e-49
-4.63954e-47
-4.0304e-44
-4.14518e-43
3.73124e-41
-2.44321e-39
-1.52513e-39
1.71949e-39
1.54231e-35
3.48208e-35
1.62826e-33
4.79522e-32
5.32201e-31
4.70486e-30
7.02712e-29
1.84217e-27
3.46078e-26
3.14727e-25
6.81144e-25
5.46046e-24
1.32616e-23
5.80121e-24
1.39973e-06
8.78507e-05
0.00108428
0.00622928
0.0222028
0.0740904
0.235731
0.66977
0.919396
0.954568
0.974481
0.985744
0.992084
0.995605
0.997563
0.998662
0.999268
0.999597
0.999785
0.999887
0.99994
0.999973
0.999993
1
1
1
0.999987
0.999984
0.999984
0.99999
0.99999
0.999954
0.999995
1
1.00001
1.00001
1.00001
1.00001
1
0.999997
0.999978
0.999951
0.999948
0.999948
0.999948
0.999948
0.999957
0.999989
0.999992
0.999995
0.999996
0.999996
0.999996
0.999997
0.999993
0.999992
0.999992
0.999992
0.999994
1
1
1.00001
1.00001
1.00002
1.00002
1.00002
1.00002
1.00002
1.00002
1.00002
1.00002
1.00002
1.00001
1.00001
1.00001
1.00001
1.00001
1
1
0.999999
0.999992
0.999983
0.999982
0.999982
0.999982
0.999982
0.999986
0.999994
0.999995
0.999995
0.999995
0.999995
0.999998
0.999999
1
1
1
1
1
1
1
1
1.00001
1.00001
1.00001
1.00001
1.00001
1.00001
1.00001
1.00002
1.00002
1.00002
1.00002
1.00003
1.00003
1.00003
1.00003
1.00003
1.00003
1.00003
1.00002
1.00002
1.00002
1.00001
1.00001
1.00001
1.00001
1
1
1
1.00001
1.00001
1.00001
1.00001
1.00001
1.00001
1.00001
1.00001
1.00001
1.00001
1.00001
1.00001
1.00001
1.00001
1.00001
1.00001
1
1
1
0.999998
0.999997
0.999994
0.999993
0.99999
0.999978
0.999975
0.999975
0.999975
0.999977
0.999973
0.99997
0.99997
0.999974
0.999974
0.999972
0.999971
0.999971
0.999971
0.999973
0.999973
0.999965
0.999966
0.999978
0.999995
0.999997
0.999999
1
1
1
1
1
1
1
1
1
1
1
1
1
1
1
0.999999
0.999999
1
1
1
1
1
1.00001
1.00001
1.00001
1.00001
1.00002
1.00002
1.00002
1.00001
1.00001
1.00001
1
0.999985
0.999984
0.999984
0.999984
0.999999
1
1
0.999997
0.999986
0.999986
0.999995
1
1
1
1
1
-1.15908e-54
-1.45294e-50
-3.82217e-48
-6.66677e-47
4.90319e-45
-1.64444e-42
1.95483e-40
3.22845e-39
2.15574e-38
6.87937e-38
2.45035e-37
9.63315e-34
4.2161e-33
3.61143e-32
1.32413e-30
1.41672e-29
1.29695e-28
1.81148e-27
3.72953e-26
8.36938e-25
9.81555e-24
1.97412e-23
1.41366e-22
2.51701e-22
1.32001e-23
1.3999e-06
8.41349e-05
0.0010627
0.00618177
0.0222675
0.0748178
0.230198
0.650399
0.91777
0.953593
0.973911
0.985426
0.991894
0.995482
0.997508
0.998643
0.999242
0.999572
0.999772
0.99988
0.999934
0.999968
0.999984
1
1
0.999999
0.999993
0.999989
0.999989
0.999944
0.999935
0.999935
0.999935
0.999936
0.99995
1
1
1.00001
1.00001
1.00001
1.00001
1
0.999999
0.999994
0.999965
0.999952
0.999959
0.999962
0.999965
0.99998
0.999987
0.999996
0.999997
0.999997
0.999999
1
1
1
1
1.00001
1.00001
1.00001
1.00002
1.00002
1.00002
1.00002
1.00002
1.00002
1.00002
1.00002
1.00001
1.00001
1.00001
1.00001
1.00001
1.00001
1
1
0.999999
0.999998
0.999988
0.999984
0.999983
0.999982
0.999982
0.999983
0.999985
0.999992
0.999994
0.999994
0.999995
0.999995
0.999997
0.999998
0.999999
1
1
1
1
1
1
1
1.00001
1.00001
1.00001
1.00001
1.00001
1.00001
1.00001
1.00002
1.00002
1.00002
1.00002
1.00003
1.00003
1.00003
1.00003
1.00003
1.00003
1.00003
1.00002
1.00002
1.00002
1.00001
1.00001
1.00001
1.00001
1
1
1
1.00001
1.00001
1.00001
1.00001
1.00001
1.00001
1.00001
1.00001
1.00001
1.00001
1.00001
1.00001
1.00001
1.00001
1.00001
1.00001
1
1
1
0.999998
0.999997
0.999996
0.999992
0.999979
0.999976
0.999975
0.999975
0.999975
0.999977
0.999977
0.999977
0.99997
0.999974
0.999974
0.999974
0.999972
0.999971
0.999972
0.999974
0.999973
0.999966
0.999967
0.999979
0.999996
0.999997
0.999999
1
1
1
1
1
1
1
1
1
1
1
1
1
1
1
1
1
1
1
1
1
1
1.00001
1.00001
1.00001
1.00001
1.00002
1.00002
1.00002
1.00001
1.00001
1.00001
1
0.999988
0.999985
0.999984
0.999991
1
1
1
1
0.999988
0.999986
0.999996
1
1
1
1
1
-4.58849e-51
-1.21676e-47
-8.34304e-46
6.57197e-45
1.78262e-42
1.10327e-40
1.92202e-38