/*--------------------------------*- C++ -*----------------------------------*\
| =========                 |                                                 |
| \\      /  F ield         | OpenFOAM: The Open Source CFD Toolbox           |
|  \\    /   O peration     | Version:  2406                                  |
|   \\  /    A nd           | Website:  www.openfoam.com                      |
|    \\/     M anipulation  |                                                 |
\*---------------------------------------------------------------------------*/
FoamFile
{
    version     2.0;
    format      ascii;
    arch        "LSB;label=32;scalar=64";
    class       surfaceScalarField;
    location    "0.05";
    object      alphaPhi0.glycerin;
}
// * * * * * * * * * * * * * * * * * * * * * * * * * * * * * * * * * * * * * //

dimensions      [0 3 -1 0 0 0 0];

oriented        oriented;

internalField   nonuniform List<scalar> 
12225
(
1.31997e-61
1.89896e-63
1.39778e-60
7.01006e-62
7.31722e-60
4.38023e-61
2.42467e-59
1.4815e-60
5.68793e-59
3.27966e-60
1.03244e-58
4.69209e-60
1.70033e-58
4.20031e-60
3.01577e-58
1.10814e-60
6.92428e-58
-8.04647e-62
2.36263e-57
-6.43328e-62
1.04957e-56
-3.79168e-62
4.47145e-56
-2.58341e-62
1.47218e-55
-8.49299e-62
4.46044e-55
-1.34542e-58
5.69478e-54
-3.61288e-56
1.82438e-52
-2.69697e-54
2.36774e-51
-7.34339e-53
1.48888e-50
-5.99096e-52
5.40341e-50
-3.19128e-51
1.12698e-49
-5.09752e-51
5.0457e-49
-3.75507e-49
5.76048e-47
-5.74197e-47
1.49501e-44
-4.56959e-45
1.20794e-43
-1.08818e-43
1.48422e-43
-5.44749e-44
7.9095e-44
3.39138e-44
2.25437e-09
7.0269e-11
1.84786e-08
1.09567e-09
2.02192e-08
1.53615e-09
1.93875e-08
9.68521e-10
1.89413e-08
4.84254e-10
1.8957e-08
-2.84326e-13
1.92003e-08
-2.35663e-10
1.95159e-08
-3.10315e-10
1.98237e-08
-2.95774e-10
2.0087e-08
-2.56863e-10
2.03053e-08
-2.15077e-10
2.04805e-08
-1.7738e-10
2.06211e-08
-1.45265e-10
2.07352e-08
-1.18115e-10
2.08275e-08
-9.54696e-11
2.09081e-08
-7.73392e-11
2.09751e-08
-6.32781e-11
2.1029e-08
-5.23246e-11
2.10735e-08
-4.36486e-11
2.111e-08
-3.65105e-11
2.11405e-08
-3.06804e-11
2.11666e-08
-2.59992e-11
2.11894e-08
-2.24669e-11
2.12097e-08
-1.97987e-11
2.12277e-08
-1.74839e-11
2.12436e-08
-1.54402e-11
2.12573e-08
-1.35105e-11
2.1269e-08
-1.16889e-11
2.12815e-08
-9.95701e-12
2.12915e-08
-8.47388e-12
2.12994e-08
-6.97031e-12
2.13059e-08
-5.75839e-12
2.13116e-08
-4.69929e-12
2.13167e-08
-3.93974e-12
2.1321e-08
-3.55799e-12
2.13243e-08
-3.51937e-12
2.13274e-08
-3.59528e-12
2.13302e-08
-3.73267e-12
2.13326e-08
-3.77587e-12
2.13349e-08
-3.68711e-12
2.13371e-08
-3.49954e-12
2.13391e-08
-3.21008e-12
2.13405e-08
-2.8329e-12
2.13432e-08
-2.46296e-12
2.13458e-08
-2.14792e-12
2.13481e-08
-1.97834e-12
2.13506e-08
-1.90132e-12
2.13529e-08
-1.96704e-12
2.13543e-08
-2.13222e-12
2.13557e-08
-2.15923e-12
2.13569e-08
-2.1963e-12
2.1358e-08
-2.12387e-12
2.13589e-08
-1.92657e-12
2.13597e-08
-1.6887e-12
2.13602e-08
-1.38725e-12
2.13606e-08
-1.10978e-12
2.13608e-08
-8.25465e-13
2.13612e-08
-5.88884e-13
2.13616e-08
-3.64082e-13
2.1362e-08
-1.77514e-13
2.13622e-08
-1.04138e-14
2.13624e-08
1.38614e-13
2.13624e-08
2.87665e-13
2.13622e-08
3.12007e-13
2.1362e-08
2.95434e-13
2.13617e-08
2.60683e-13
2.13614e-08
2.13033e-13
2.13613e-08
1.11142e-13
2.13612e-08
-6.22236e-14
2.13613e-08
-1.16028e-13
2.13613e-08
-1.04523e-13
2.13614e-08
-2.27751e-13
2.13615e-08
-2.82062e-13
2.13615e-08
-3.61906e-13
2.13616e-08
-4.41029e-13
2.13617e-08
-5.25367e-13
2.13618e-08
-6.06285e-13
2.1362e-08
-7.0254e-13
2.13622e-08
-7.84842e-13
2.13628e-08
-8.50076e-13
2.13634e-08
-8.58682e-13
2.13641e-08
-8.45318e-13
2.13647e-08
-8.16743e-13
2.13654e-08
-7.70134e-13
2.13659e-08
-6.87339e-13
2.13664e-08
-5.75375e-13
2.13668e-08
-5.34353e-13
2.1367e-08
-4.31034e-13
2.13673e-08
-4.3585e-13
2.13675e-08
-4.30006e-13
2.13678e-08
-4.62706e-13
2.13681e-08
-4.89716e-13
2.13683e-08
-4.84738e-13
2.13686e-08
-4.50357e-13
2.1369e-08
-3.97904e-13
2.13694e-08
-3.84149e-13
2.13696e-08
-3.67133e-13
2.13698e-08
-2.80895e-13
2.13699e-08
-2.46069e-13
2.13699e-08
-8.61774e-14
2.137e-08
-1.57706e-13
2.137e-08
-1.31729e-13
2.137e-08
-1.23906e-13
2.137e-08
-1.21242e-13
2.137e-08
-1.27053e-13
2.13701e-08
-1.26522e-13
2.13703e-08
-2.44912e-13
2.13705e-08
-1.25458e-13
2.13706e-08
-9.50848e-14
2.13707e-08
-5.85903e-14
2.13707e-08
-1.99712e-14
2.13706e-08
2.59915e-14
2.13704e-08
8.37466e-14
2.13702e-08
1.55761e-13
2.13698e-08
2.17377e-13
2.13693e-08
2.72236e-13
2.13688e-08
2.77861e-13
2.13683e-08
2.86483e-13
2.13677e-08
2.80019e-13
2.13672e-08
2.59103e-13
2.13667e-08
2.35419e-13
2.13662e-08
2.02451e-13
2.13658e-08
1.66685e-13
2.13653e-08
1.01417e-13
2.1365e-08
3.25532e-14
2.13646e-08
-3.14698e-14
2.13643e-08
-8.13676e-14
2.13639e-08
-1.14896e-13
2.13636e-08
-1.41352e-13
2.13633e-08
-1.78143e-13
2.1363e-08
-1.80911e-13
2.13626e-08
-1.63507e-13
2.13623e-08
-1.47323e-13
2.1362e-08
-1.24499e-13
2.13617e-08
-9.8622e-14
2.13614e-08
-7.07161e-14
2.13611e-08
-4.54631e-14
2.13607e-08
-1.9575e-14
2.13603e-08
9.66669e-15
2.136e-08
1.52949e-14
2.13596e-08
-1.88379e-15
2.13592e-08
-1.65974e-14
2.13588e-08
-3.37004e-14
2.13584e-08
-6.33029e-14
2.13581e-08
-1.16803e-13
2.13578e-08
-1.88788e-13
2.13576e-08
-2.51508e-13
2.13575e-08
-2.95895e-13
2.13575e-08
-3.42008e-13
2.13574e-08
-4.03816e-13
2.13575e-08
-4.66315e-13
2.1358e-08
-5.10977e-13
2.13585e-08
-5.51647e-13
2.13589e-08
-5.80923e-13
2.13594e-08
-6.08819e-13
2.13598e-08
-5.91278e-13
2.13603e-08
-6.0173e-13
2.13608e-08
-6.00557e-13
2.13612e-08
-5.87919e-13
2.13616e-08
-5.29628e-13
2.13619e-08
-4.97352e-13
2.13623e-08
-5.41397e-13
2.13625e-08
-4.62801e-13
2.13627e-08
-4.03978e-13
2.13629e-08
-3.68947e-13
2.1363e-08
-3.27412e-13
2.13632e-08
-3.1504e-13
2.13633e-08
-3.35123e-13
2.13635e-08
-3.37323e-13
2.13637e-08
-2.77599e-13
2.13638e-08
-1.34192e-13
2.13639e-08
-2.14794e-13
2.13641e-08
-1.89993e-13
2.13643e-08
-1.51789e-13
2.13644e-08
-1.25638e-13
2.13646e-08
-1.07278e-13
2.13647e-08
-8.24481e-14
2.13648e-08
-4.92059e-14
2.13648e-08
-1.54012e-14
2.13648e-08
6.65209e-16
2.13647e-08
2.51664e-14
2.13646e-08
5.43401e-14
2.13645e-08
7.41163e-14
2.13643e-08
9.62522e-14
2.1364e-08
1.17037e-13
2.13637e-08
1.50731e-13
2.13634e-08
1.47664e-13
2.1363e-08
1.6926e-13
2.13626e-08
2.04443e-13
2.13622e-08
2.07302e-13
2.13618e-08
2.40003e-13
2.13613e-08
2.70561e-13
2.13608e-08
3.00669e-13
2.13603e-08
3.31098e-13
2.13597e-08
3.75743e-13
2.13591e-08
4.32848e-13
2.13584e-08
5.02692e-13
2.13576e-08
5.86101e-13
2.13567e-08
6.83492e-13
2.13557e-08
7.96672e-13
2.13545e-08
9.28073e-13
2.13532e-08
1.08045e-12
2.13516e-08
1.25875e-12
2.13498e-08
1.47626e-12
2.13477e-08
1.74535e-12
2.13454e-08
2.08147e-12
2.13425e-08
2.51198e-12
2.13389e-08
3.08162e-12
2.13353e-08
3.84123e-12
2.13305e-08
4.79842e-12
2.13243e-08
6.07321e-12
2.13165e-08
7.76352e-12
2.13064e-08
1.00224e-11
2.12932e-08
1.3061e-11
2.12759e-08
1.71393e-11
2.12531e-08
2.26456e-11
2.1223e-08
3.00204e-11
2.11831e-08
3.98004e-11
2.11307e-08
5.24962e-11
2.10621e-08
6.85438e-11
2.09737e-08
8.83771e-11
2.08623e-08
1.1164e-10
2.07278e-08
1.34373e-10
1.37259e-10
3.94343e-62
1.93238e-64
4.49161e-61
5.29496e-63
2.55956e-60
4.21505e-62
8.71539e-60
1.33752e-61
1.70953e-59
2.52592e-61
1.84905e-59
1.64396e-61
1.47115e-59
4.41218e-62
8.00152e-60
-1.13285e-65
3.1719e-60
-9.27394e-63
1.66039e-60
-1.03145e-62
1.38125e-60
-2.2552e-62
1.34206e-60
-3.77377e-62
1.18636e-59
-2.90443e-61
1.27311e-56
-4.458e-59
3.26277e-54
-1.39155e-56
2.66193e-52
-2.22508e-54
7.53055e-51
-1.03228e-52
9.19305e-50
-2.06474e-51
7.1115e-49
-1.00409e-50
2.73218e-48
3.18975e-50
1.15731e-46
3.1612e-48
9.92981e-45
3.36173e-46
6.90453e-43
2.6149e-44
1.88012e-42
5.49359e-44
3.09132e-42
9.71353e-44
6.48685e-29
4.52043e-30
2.83712e-10
1.31246e-11
2.19503e-09
4.90196e-11
1.41753e-08
1.20487e-10
3.87988e-08
3.50223e-10
4.30926e-08
2.99209e-10
4.36231e-08
-3.20475e-10
4.42296e-08
-7.63023e-10
4.48192e-08
-8.46163e-10
4.53198e-08
-7.70152e-10
4.57267e-08
-6.51289e-10
4.60519e-08
-5.35449e-10
4.6314e-08
-4.35451e-10
4.65273e-08
-3.53899e-10
4.67012e-08
-2.88729e-10
4.68441e-08
-2.36671e-10
4.69641e-08
-1.95109e-10
4.70649e-08
-1.61558e-10
4.71483e-08
-1.35142e-10
4.7219e-08
-1.14364e-10
4.72796e-08
-9.78073e-11
4.73301e-08
-8.4117e-11
4.7373e-08
-7.27983e-11
4.741e-08
-6.2912e-11
4.74432e-08
-5.49099e-11
4.74733e-08
-4.79824e-11
4.74987e-08
-4.20642e-11
4.75234e-08
-3.69186e-11
4.75456e-08
-3.26132e-11
4.75658e-08
-2.89684e-11
4.75846e-08
-2.60477e-11
4.75995e-08
-2.34677e-11
4.76138e-08
-2.11416e-11
4.76246e-08
-1.90842e-11
4.76328e-08
-1.69627e-11
4.76399e-08
-1.49215e-11
4.7646e-08
-1.2841e-11
4.76513e-08
-1.10483e-11
4.76574e-08
-9.45249e-12
4.76633e-08
-8.19492e-12
4.76699e-08
-7.34157e-12
4.76761e-08
-6.69284e-12
4.76808e-08
-6.08991e-12
4.76852e-08
-5.45668e-12
4.76892e-08
-4.72045e-12
4.7693e-08
-4.02574e-12
4.76964e-08
-3.31831e-12
4.76996e-08
-2.50927e-12
4.77027e-08
-2.00017e-12
4.77052e-08
-1.5048e-12
4.77076e-08
-1.26042e-12
4.77099e-08
-1.02779e-12
4.77119e-08
-8.12292e-13
4.77139e-08
-7.05621e-13
4.77156e-08
-6.17568e-13
4.77172e-08
-6.52295e-13
4.77186e-08
-7.61434e-13
4.77199e-08
-8.55775e-13
4.7721e-08
-8.25984e-13
4.77218e-08
-7.36688e-13
4.77224e-08
-6.26387e-13
4.7723e-08
-5.30308e-13
4.77233e-08
-4.27793e-13
4.77237e-08
-3.50428e-13
4.77238e-08
-2.01085e-13
4.77238e-08
-3.52282e-14
4.77236e-08
6.26052e-14
4.77235e-08
1.23895e-13
4.77235e-08
1.29958e-13
4.77233e-08
2.6974e-13
4.77233e-08
2.23055e-13
4.77235e-08
9.39587e-14
4.77237e-08
1.44853e-13
4.77238e-08
1.54326e-13
4.77238e-08
2.13107e-13
4.77237e-08
1.93086e-13
4.77236e-08
1.0576e-13
4.77235e-08
7.93644e-14
4.77233e-08
2.19457e-14
4.77232e-08
-3.40018e-14
4.77231e-08
-3.6574e-14
4.77238e-08
-9.30149e-14
4.77243e-08
-1.2485e-13
4.7725e-08
-1.14749e-13
4.77258e-08
-1.39401e-13
4.77267e-08
-2.03562e-13
4.77274e-08
-6.10486e-14
4.77281e-08
-3.84641e-14
4.77288e-08
-2.33511e-13
4.77293e-08
-1.11217e-13
4.77295e-08
-1.02043e-13
4.77297e-08
-1.26171e-13
4.77299e-08
-1.14925e-13
4.773e-08
-1.06923e-13
4.77302e-08
-8.63607e-14
4.77304e-08
4.58314e-14
4.77306e-08
1.15171e-13
4.77308e-08
1.42473e-13
4.77311e-08
8.2891e-14
4.77313e-08
1.23573e-13
4.77318e-08
6.41625e-14
4.7732e-08
1.6254e-13
4.77322e-08
1.28403e-13
4.77324e-08
1.00212e-13
4.77326e-08
6.24872e-14
4.77327e-08
3.89391e-14
4.77329e-08
1.19496e-14
4.77328e-08
8.56176e-14
4.77329e-08
-4.39573e-14
4.7733e-08
-1.05473e-14
4.77331e-08
3.20662e-14
4.77331e-08
4.927e-14
4.7733e-08
6.83721e-14
4.77329e-08
1.0199e-13
4.77327e-08
1.51372e-13
4.77325e-08
1.63316e-13
4.77323e-08
1.50334e-13
4.7732e-08
2.1069e-13
4.77316e-08
2.60634e-13
4.77311e-08
2.93715e-13
4.77305e-08
2.83768e-13
4.77299e-08
2.78468e-13
4.77293e-08
2.84431e-13
4.77287e-08
2.99398e-13
4.77281e-08
2.37408e-13
4.77276e-08
2.13738e-13
4.7727e-08
1.86149e-13
4.77265e-08
1.69052e-13
4.77259e-08
1.86406e-13
4.77254e-08
2.18399e-13
4.77248e-08
2.45403e-13
4.77243e-08
2.47733e-13
4.7724e-08
2.49831e-13
4.77236e-08
3.09615e-13
4.77234e-08
3.6849e-13
4.77232e-08
4.10587e-13
4.7723e-08
4.42607e-13
4.77229e-08
4.76933e-13
4.77228e-08
5.01439e-13
4.77227e-08
4.98553e-13
4.77226e-08
5.17689e-13
4.77224e-08
5.46431e-13
4.77222e-08
5.5141e-13
4.77219e-08
5.53049e-13
4.77216e-08
5.28555e-13
4.77212e-08
4.60827e-13
4.77209e-08
3.69809e-13
4.77206e-08
3.39209e-13
4.77202e-08
2.95027e-13
4.77199e-08
2.61171e-13
4.77194e-08
2.07307e-13
4.77192e-08
1.41e-13
4.77189e-08
8.39566e-14
4.77186e-08
2.71793e-14
4.77191e-08
-5.0686e-15
4.77191e-08
-5.66867e-14
4.77193e-08
-9.0272e-14
4.77194e-08
-8.01208e-14
4.77195e-08
-1.63594e-13
4.77197e-08
-1.33683e-13
4.77198e-08
-1.51704e-13
4.772e-08
-8.37091e-14
4.77198e-08
-8.79232e-14
4.77197e-08
-1.85872e-13
4.77196e-08
-1.67072e-13
4.77194e-08
-9.02239e-14
4.77193e-08
-4.51494e-14
4.77192e-08
-9.16766e-14
4.77191e-08
-1.44871e-13
4.7719e-08
-5.21905e-14
4.77189e-08
-5.73221e-14
4.7719e-08
-1.20004e-13
4.7719e-08
-5.3445e-14
4.77192e-08
7.35209e-15
4.77203e-08
4.02523e-14
4.77211e-08
4.20099e-14
4.77212e-08
4.75685e-14
4.77213e-08
7.18413e-14
4.77213e-08
1.08497e-13
4.77213e-08
1.67748e-13
4.77213e-08
2.16509e-13
4.77212e-08
2.37563e-13
4.7721e-08
2.64163e-13
4.77207e-08
3.06338e-13
4.77203e-08
3.44773e-13
4.77199e-08
3.98502e-13
4.77196e-08
4.43818e-13
4.77191e-08
5.34383e-13
4.77186e-08
5.96468e-13
4.77181e-08
6.52738e-13
4.77175e-08
7.04836e-13
4.77168e-08
8.29099e-13
4.77164e-08
9.3281e-13
4.77158e-08
1.0427e-12
4.77151e-08
1.16948e-12
4.77142e-08
1.32554e-12
4.77132e-08
1.51478e-12
4.77121e-08
1.74016e-12
4.77108e-08
2.00568e-12
4.77093e-08
2.31686e-12
4.77074e-08
2.68026e-12
4.77052e-08
3.1045e-12
4.77026e-08
3.60359e-12
4.76996e-08
4.19588e-12
4.7696e-08
4.90943e-12
4.76918e-08
5.77848e-12
4.76868e-08
6.84914e-12
4.76808e-08
8.18351e-12
4.76739e-08
9.86668e-12
4.76659e-08
1.19968e-11
4.76563e-08
1.46913e-11
4.7645e-08
1.81362e-11
4.76304e-08
2.25598e-11
4.76123e-08
2.82768e-11
4.75898e-08
3.56774e-11
4.75618e-08
4.52729e-11
4.75268e-08
5.76533e-11
4.74833e-08
7.34654e-11
4.74299e-08
9.33322e-11
4.73648e-08
1.17683e-10
4.7287e-08
1.46567e-10
4.7196e-08
1.79401e-10
4.70947e-08
2.13119e-10
4.6991e-08
2.38268e-10
2.37966e-10
5.92902e-64
3.22652e-66
1.94652e-62
3.87464e-64
1.07979e-61
3.2976e-63
3.25302e-61
9.1045e-63
7.24488e-61
9.19483e-63
8.74071e-61
2.48047e-63
7.73908e-61
9.96256e-64
5.40179e-61
-1.50133e-64
3.64675e-61
-2.65964e-63
3.71672e-61
-7.82497e-63
4.20844e-61
1.33793e-62
1.97353e-60
-1.17656e-60
2.02071e-58
-1.28505e-59
4.71864e-57
-1.28429e-58
1.18965e-54
-1.2001e-56
1.54779e-52
-1.04555e-55
9.55501e-51
-1.61667e-55
2.35485e-49
-1.11309e-52
2.70518e-48
6.6345e-51
2.17477e-47
2.55551e-49
4.79243e-46
9.74123e-48
2.51995e-44
6.21848e-46
2.30849e-42
8.9562e-44
3.70284e-42
8.13386e-44
3.11347e-42
1.1259e-43
3.46051e-13
1.72273e-14
5.92085e-11
2.00076e-12
4.63864e-10
9.01884e-12
2.31663e-09
2.74369e-11
9.8214e-09
5.27932e-11
3.57658e-08
4.76972e-11
5.93263e-08
-3.49486e-10
6.00929e-08
-8.82856e-10
6.04457e-08
-1.04143e-09
6.07858e-08
-9.92691e-10
6.10576e-08
-8.65429e-10
6.12731e-08
-7.28324e-10
6.14505e-08
-6.04155e-10
6.16026e-08
-4.9897e-10
6.17338e-08
-4.13128e-10
6.18496e-08
-3.43794e-10
6.19463e-08
-2.87891e-10
6.20278e-08
-2.42672e-10
6.20992e-08
-2.05696e-10
6.21603e-08
-1.75524e-10
6.22157e-08
-1.50993e-10
6.22644e-08
-1.30862e-10
6.23072e-08
-1.14129e-10
6.23452e-08
-1.00135e-10
6.23786e-08
-8.76961e-11
6.24084e-08
-7.72692e-11
6.24351e-08
-6.82262e-11
6.24589e-08
-6.03437e-11
6.24797e-08
-5.33872e-11
6.24984e-08
-4.7176e-11
6.25149e-08
-4.16524e-11
6.25304e-08
-3.70294e-11
6.25474e-08
-3.31151e-11
6.25593e-08
-2.99574e-11
6.25709e-08
-2.7391e-11
6.25808e-08
-2.50208e-11
6.25893e-08
-2.27209e-11
6.25965e-08
-2.0436e-11
6.26029e-08
-1.82053e-11
6.26087e-08
-1.61051e-11
6.26138e-08
-1.42383e-11
6.26183e-08
-1.26227e-11
6.26214e-08
-1.12623e-11
6.26263e-08
-1.00548e-11
6.2631e-08
-9.06428e-12
6.26354e-08
-8.13701e-12
6.26397e-08
-7.31803e-12
6.26441e-08
-6.66983e-12
6.2648e-08
-5.90889e-12
6.26518e-08
-5.21352e-12
6.26547e-08
-4.46177e-12
6.26574e-08
-3.84563e-12
6.26596e-08
-3.22996e-12
6.26614e-08
-2.67144e-12
6.26623e-08
-2.20641e-12
6.26636e-08
-1.83895e-12
6.26648e-08
-1.55212e-12
6.26658e-08
-1.30739e-12
6.26666e-08
-1.11269e-12
6.26673e-08
-9.72095e-13
6.26681e-08
-8.67479e-13
6.26692e-08
-7.7299e-13
6.26696e-08
-6.82617e-13
6.26698e-08
-5.7231e-13
6.267e-08
-4.92886e-13
6.267e-08
-4.95796e-13
6.26698e-08
-4.8602e-13
6.26702e-08
-4.71673e-13
6.26705e-08
-4.3167e-13
6.26709e-08
-4.40102e-13
6.26713e-08
-4.65287e-13
6.2672e-08
-4.75146e-13
6.26724e-08
-4.75837e-13
6.26727e-08
-4.62662e-13
6.2673e-08
-4.60541e-13
6.26732e-08
-4.62317e-13
6.26734e-08
-4.57817e-13
6.26735e-08
-5.10087e-13
6.26722e-08
-5.52053e-13
6.26719e-08
-5.86391e-13
6.26723e-08
-6.19909e-13
6.26726e-08
-5.69523e-13
6.2673e-08
-5.61774e-13
6.26734e-08
-5.6244e-13
6.26739e-08
-5.04468e-13
6.26748e-08
-4.11479e-13
6.26754e-08
-5.02489e-13
6.26758e-08
-5.09432e-13
6.26756e-08
-4.05661e-13
6.26756e-08
-4.46293e-13
6.26758e-08
-4.74189e-13
6.26759e-08
-4.43658e-13
6.2676e-08
-4.32341e-13
6.26761e-08
-3.97526e-13
6.26761e-08
-3.28037e-13
6.26763e-08
-3.14298e-13
6.26765e-08
-2.53075e-13
6.2678e-08
-1.86217e-13
6.26788e-08
-1.21689e-13
6.26788e-08
-1.24724e-13
6.26788e-08
-1.45894e-13
6.26791e-08
-1.2296e-13
6.26793e-08
-9.33391e-14
6.26794e-08
-7.16832e-14
6.26795e-08
-5.45513e-14
6.26796e-08
-5.22287e-14
6.26798e-08
-6.19198e-14
6.268e-08
-6.28198e-14
6.268e-08
-3.3496e-14
6.26801e-08
-2.35902e-14
6.26802e-08
-6.88005e-15
6.26804e-08
2.92566e-14
6.26803e-08
6.30712e-14
6.26803e-08
8.08934e-14
6.26802e-08
7.0172e-14
6.26801e-08
7.72866e-14
6.26799e-08
8.62306e-14
6.26797e-08
1.2674e-13
6.26794e-08
1.44146e-13
6.2679e-08
1.43277e-13
6.26785e-08
1.43553e-13
6.2678e-08
1.15739e-13
6.2677e-08
7.27834e-14
6.26766e-08
3.26497e-14
6.26761e-08
3.08811e-14
6.26756e-08
-1.45295e-14
6.2675e-08
-4.22693e-14
6.26745e-08
-7.94424e-14
6.26741e-08
-9.61759e-14
6.26737e-08
-8.8646e-14
6.26735e-08
-6.00277e-14
6.26733e-08
-5.21603e-14
6.26729e-08
-4.50799e-14
6.26726e-08
-3.64736e-14
6.26724e-08
-1.08094e-14
6.26723e-08
2.02062e-14
6.26722e-08
4.81883e-14
6.26722e-08
6.47785e-14
6.26722e-08
7.11278e-14
6.26722e-08
8.06844e-14
6.26721e-08
8.54327e-14
6.2672e-08
1.05969e-13
6.26718e-08
1.10673e-13
6.26716e-08
8.89882e-14
6.26714e-08
6.40036e-14
6.26713e-08
4.32089e-14
6.26711e-08
2.41289e-14
6.26711e-08
-4.01213e-14
6.26704e-08
-9.99632e-14
6.26693e-08
-1.29173e-13
6.26689e-08
-1.64627e-13
6.2669e-08
-1.76192e-13
6.26692e-08
-2.09614e-13
6.26696e-08
-2.38925e-13
6.267e-08
-2.52631e-13
6.26706e-08
-2.69788e-13
6.26712e-08
-2.77514e-13
6.26715e-08
-3.48038e-13
6.26714e-08
-3.43452e-13
6.26716e-08
-3.28509e-13
6.26715e-08
-2.71732e-13
6.26714e-08
-2.9789e-13
6.26715e-08
-2.75728e-13
6.2671e-08
-2.8632e-13
6.26711e-08
-2.27425e-13
6.26711e-08
-2.25011e-13
6.26711e-08
-2.42033e-13
6.2671e-08
-1.87457e-13
6.26709e-08
-9.53914e-14
6.2671e-08
-1.35464e-13
6.26711e-08
-1.50498e-13
6.26712e-08
-1.46717e-13
6.26712e-08
-4.32714e-15
6.26714e-08
-5.42637e-15
6.26716e-08
2.2341e-14
6.26718e-08
4.15784e-14
6.2672e-08
5.99878e-14
6.26722e-08
1.01727e-13
6.26724e-08
1.41782e-13
6.26725e-08
1.83181e-13
6.26725e-08
2.32875e-13
6.26724e-08
2.95442e-13
6.26723e-08
3.45992e-13
6.2672e-08
4.04471e-13
6.26716e-08
4.66854e-13
6.26712e-08
5.40066e-13
6.26707e-08
6.16345e-13
6.26702e-08
7.06311e-13
6.26695e-08
8.07686e-13
6.26687e-08
9.17472e-13
6.26675e-08
1.07584e-12
6.2667e-08
1.20901e-12
6.26664e-08
1.39336e-12
6.26656e-08
1.59885e-12
6.26647e-08
1.8375e-12
6.26637e-08
2.12108e-12
6.26626e-08
2.45717e-12
6.26613e-08
2.85371e-12
6.26598e-08
3.31999e-12
6.2658e-08
3.86676e-12
6.26558e-08
4.50754e-12
6.26533e-08
5.26e-12
6.26504e-08
6.14443e-12
6.26469e-08
7.19356e-12
6.26428e-08
8.44623e-12
6.26381e-08
9.95415e-12
6.26326e-08
1.17852e-11
6.26263e-08
1.40228e-11
6.26184e-08
1.67832e-11
6.26098e-08
2.01889e-11
6.26002e-08
2.44248e-11
6.25887e-08
2.96966e-11
6.25749e-08
3.62952e-11
6.25586e-08
4.45594e-11
6.25394e-08
5.49148e-11
6.25168e-08
6.78549e-11
6.24905e-08
8.39046e-11
6.24601e-08
1.0358e-10
6.24263e-08
1.27234e-10
6.23892e-08
1.54856e-10
6.23499e-08
1.85881e-10
6.23106e-08
2.18888e-10
6.22738e-08
2.50121e-10
6.22411e-08
2.71161e-10
2.70452e-10
2.38065e-66
1.36113e-68
3.83291e-64
1.20799e-65
3.62152e-63
1.61991e-64
1.23295e-62
5.02612e-64
2.20431e-62
3.33025e-64
2.7332e-62
1.15507e-63
2.59663e-62
2.61095e-64
6.03208e-62
-7.86082e-64
2.11266e-61
-1.24855e-62
3.62013e-61
-3.33066e-62
-4.75778e-61
8.67264e-61
1.32419e-58
-1.79652e-59
3.93161e-57
-1.26219e-58
6.26067e-56
-2.09586e-57
7.99173e-55
1.03775e-55
5.66866e-54
-1.1275e-56
2.00031e-53
-2.03615e-56
1.5624e-50
6.02492e-54
5.36066e-49
2.05731e-51
7.71461e-48
5.89624e-50
1.67319e-46
2.16713e-48
1.99453e-45
2.85922e-47
3.48478e-42
1.25714e-43
8.09624e-42
1.58103e-43
1.36714e-41
2.32571e-43
2.93361e-13
8.5823e-15
2.55826e-11
5.61692e-13
2.4514e-10
3.42225e-12
1.20997e-09
9.68196e-12
4.67777e-09
1.70174e-11
2.1072e-08
-8.34167e-13
5.68246e-08
-2.21142e-10
6.73363e-08
-7.04359e-10
6.83668e-08
-8.86883e-10
6.9066e-08
-8.91563e-10
6.94023e-08
-8.19436e-10
6.95811e-08
-7.2245e-10
6.96889e-08
-6.24202e-10
6.9765e-08
-5.34036e-10
6.98293e-08
-4.55437e-10
6.98853e-08
-3.88843e-10
6.99373e-08
-3.33381e-10
6.99863e-08
-2.87267e-10
7.00309e-08
-2.48522e-10
7.00715e-08
-2.15696e-10
7.01082e-08
-1.8785e-10
7.01417e-08
-1.6431e-10
7.01717e-08
-1.44422e-10
7.01991e-08
-1.27492e-10
7.02245e-08
-1.12855e-10
7.0248e-08
-1.00163e-10
7.02694e-08
-8.91976e-11
7.02888e-08
-7.97562e-11
7.03072e-08
-7.15649e-11
7.03254e-08
-6.43011e-11
7.03415e-08
-5.77685e-11
7.03539e-08
-5.17958e-11
7.03642e-08
-4.63406e-11
7.03724e-08
-4.14032e-11
7.03815e-08
-3.70654e-11
7.03898e-08
-3.32806e-11
7.03969e-08
-2.99904e-11
7.04035e-08
-2.70782e-11
7.04095e-08
-2.44489e-11
7.0415e-08
-2.19869e-11
7.04201e-08
-1.96531e-11
7.04249e-08
-1.74185e-11
7.04294e-08
-1.53647e-11
7.04334e-08
-1.35194e-11
7.04373e-08
-1.18236e-11
7.04417e-08
-1.03028e-11
7.0447e-08
-9.06681e-12
7.04511e-08
-8.03104e-12
7.04546e-08
-7.10876e-12
7.04575e-08
-6.35633e-12
7.04604e-08
-5.70238e-12
7.0463e-08
-5.07746e-12
7.04654e-08
-4.59629e-12
7.04675e-08
-4.16092e-12
7.04693e-08
-3.7403e-12
7.04707e-08
-3.31849e-12
7.04719e-08
-2.8994e-12
7.04729e-08
-2.49987e-12
7.04738e-08
-2.13239e-12
7.04746e-08
-1.80557e-12
7.04754e-08
-1.52949e-12
7.04762e-08
-1.29833e-12
7.0477e-08
-1.10511e-12
7.04776e-08
-9.43438e-13
7.04781e-08
-8.11542e-13
7.04783e-08
-6.92638e-13
7.04784e-08
-6.00591e-13
7.04785e-08
-5.14822e-13
7.04786e-08
-4.2867e-13
7.04787e-08
-3.52339e-13
7.04788e-08
-2.91157e-13
7.0479e-08
-2.50855e-13
7.04792e-08
-2.23017e-13
7.04794e-08
-1.95317e-13
7.04795e-08
-1.88615e-13
7.04796e-08
-1.90073e-13
7.04796e-08
-2.0523e-13
7.04794e-08
-2.28497e-13
7.04793e-08
-2.49639e-13
7.0479e-08
-2.60324e-13
7.0479e-08
-2.65636e-13
7.04799e-08
-3.13384e-13
7.04806e-08
-2.94343e-13
7.0481e-08
-2.52333e-13
7.04815e-08
-1.95497e-13
7.04822e-08
-2.22092e-13
7.04827e-08
-2.62729e-13
7.04832e-08
-3.32124e-13
7.04836e-08
-2.35793e-13
7.04837e-08
-2.13326e-13
7.04838e-08
-2.00338e-13
7.04838e-08
-2.07804e-13
7.04838e-08
-1.88986e-13
7.04838e-08
-1.43702e-13
7.04839e-08
-1.07049e-13
7.04841e-08
-1.14183e-13
7.04844e-08
-1.00669e-13
7.04847e-08
-5.47273e-14
7.0485e-08
-2.84753e-14
7.04854e-08
-4.08887e-14
7.04857e-08
-5.99077e-14
7.0486e-08
-7.65612e-14
7.04863e-08
-7.52096e-14
7.04865e-08
-6.84722e-14
7.04867e-08
-6.51614e-14
7.0487e-08
-6.71001e-14
7.04871e-08
-6.3492e-14
7.04873e-08
-4.26887e-14
7.04874e-08
-2.51229e-14
7.04876e-08
-2.27646e-14
7.04877e-08
-1.36918e-14
7.04878e-08
3.81854e-15
7.04879e-08
2.28341e-14
7.04879e-08
3.52415e-14
7.04878e-08
4.36442e-14
7.04877e-08
5.15646e-14
7.04875e-08
7.33379e-14
7.04872e-08
1.05499e-13
7.04868e-08
1.4243e-13
7.04863e-08
1.63824e-13
7.04857e-08
1.76209e-13
7.04851e-08
1.8486e-13
7.04844e-08
1.84514e-13
7.04837e-08
1.74317e-13
7.04831e-08
1.80356e-13
7.04824e-08
1.74662e-13
7.04818e-08
1.37671e-13
7.04812e-08
1.31395e-13
7.04806e-08
1.37856e-13
7.048e-08
1.54342e-13
7.04796e-08
1.57982e-13
7.04792e-08
1.59348e-13
7.04789e-08
1.71198e-13
7.04786e-08
2.03408e-13
7.04784e-08
2.28035e-13
7.04783e-08
2.53784e-13
7.04783e-08
2.78032e-13
7.04782e-08
2.96738e-13
7.04782e-08
3.07136e-13
7.04782e-08
3.11727e-13
7.04781e-08
3.17207e-13
7.0478e-08
3.28715e-13
7.04778e-08
3.3245e-13
7.04776e-08
3.22586e-13
7.04773e-08
3.05777e-13
7.04769e-08
2.85039e-13
7.04766e-08
2.532e-13
7.04762e-08
2.15695e-13
7.04758e-08
1.75714e-13
7.04756e-08
1.3926e-13
7.04753e-08
1.07323e-13
7.04749e-08
7.49568e-14
7.04746e-08
3.40993e-14
7.04746e-08
-2.47068e-15
7.04745e-08
-3.49976e-14
7.04746e-08
-5.5738e-14
7.04747e-08
-8.95038e-14
7.04747e-08
-6.99996e-14
7.04754e-08
-6.83572e-14
7.04756e-08
-1.36757e-13
7.04758e-08
-1.1963e-13
7.04758e-08
-9.70607e-14
7.04758e-08
-1.067e-13
7.04754e-08
-8.10956e-14
7.04751e-08
-1.10438e-13
7.0475e-08
-1.56636e-13
7.04748e-08
-8.39592e-14
7.04746e-08
-3.45883e-14
7.04745e-08
-5.03693e-14
7.04744e-08
-5.63614e-14
7.04744e-08
-3.43782e-14
7.04743e-08
-1.20211e-15
7.04744e-08
5.96291e-15
7.04743e-08
1.08274e-13
7.04753e-08
1.07704e-13
7.04766e-08
1.55545e-13
7.04767e-08
1.95074e-13
7.04767e-08
2.34776e-13
7.04767e-08
2.8646e-13
7.04768e-08
3.45707e-13
7.04768e-08
4.06614e-13
7.04768e-08
4.73347e-13
7.04767e-08
5.49359e-13
7.04765e-08
6.3197e-13
7.04763e-08
7.26108e-13
7.04759e-08
8.23652e-13
7.04754e-08
9.34384e-13
7.04748e-08
1.05861e-12
7.04739e-08
1.20361e-12
7.04734e-08
1.3716e-12
7.04726e-08
1.55969e-12
7.04719e-08
1.78964e-12
7.04711e-08
2.04617e-12
7.04706e-08
2.34244e-12
7.04698e-08
2.68745e-12
7.04689e-08
3.09203e-12
7.04679e-08
3.56598e-12
7.04668e-08
4.12007e-12
7.04654e-08
4.76658e-12
7.04638e-08
5.52038e-12
7.04619e-08
6.39946e-12
7.04597e-08
7.42483e-12
7.04571e-08
8.62659e-12
7.0454e-08
1.00382e-11
7.04505e-08
1.17077e-11
7.04465e-08
1.36924e-11
7.04419e-08
1.60634e-11
7.04368e-08
1.89111e-11
7.04305e-08
2.23478e-11
7.04242e-08
2.65171e-11
7.04171e-08
3.15631e-11
7.04097e-08
3.76922e-11
7.0401e-08
4.51447e-11
7.03913e-08
5.42073e-11
7.03811e-08
6.52074e-11
7.03704e-08
7.85072e-11
7.03599e-08
9.44382e-11
7.03502e-08
1.1325e-10
7.03424e-08
1.35023e-10
7.03379e-08
1.59418e-10
7.03382e-08
1.85674e-10
7.0345e-08
2.12333e-10
7.03588e-08
2.36422e-10
7.03781e-08
2.52074e-10
2.52305e-10
1.78077e-68
5.88236e-71
1.16024e-65
2.04902e-67
1.70992e-64
4.24833e-66
6.60869e-64
1.42391e-65
1.03054e-63
8.61428e-66
-2.29692e-62
-4.87e-64
-2.15729e-62
-3.56842e-65
4.79596e-61
-4.53176e-63
4.57424e-60
-1.07187e-61
8.9332e-60
-7.0517e-61
-3.21952e-59
1.56603e-59
3.58287e-57
-1.9915e-58
4.79095e-56
-1.10496e-56
1.33916e-54
-3.00174e-55
-8.02651e-54
1.33743e-53
1.99481e-54
5.51758e-54
1.15121e-52
1.29019e-55
5.47289e-52
3.14962e-54
1.38736e-50
1.68043e-52
5.10231e-49
5.0669e-51
6.66262e-48
6.69396e-50
3.9792e-47
5.35999e-49
4.07628e-42
1.11003e-43
9.46201e-42
1.37577e-43
2.16872e-41
2.72909e-43
3.33468e-13
5.14494e-15
1.96242e-11
2.22776e-13
2.25025e-10
1.63338e-12
1.1659e-09
4.56687e-12
4.25139e-09
6.06285e-12
1.68774e-08
-1.10117e-11
5.16003e-08
-1.38494e-10
6.83318e-08
-4.98011e-10
7.09845e-08
-6.33047e-10
7.24419e-08
-6.77553e-10
7.31707e-08
-6.56392e-10
7.35376e-08
-6.06903e-10
7.3718e-08
-5.47473e-10
7.38084e-08
-4.87213e-10
7.38567e-08
-4.30352e-10
7.38874e-08
-3.7874e-10
7.39075e-08
-3.33105e-10
7.39255e-08
-2.93401e-10
7.39429e-08
-2.58996e-10
7.39592e-08
-2.29007e-10
7.39748e-08
-2.02702e-10
7.39915e-08
-1.79631e-10
7.40081e-08
-1.59496e-10
7.40239e-08
-1.41953e-10
7.40386e-08
-1.26574e-10
7.4052e-08
-1.13034e-10
7.40642e-08
-1.01012e-10
7.40767e-08
-9.04067e-11
7.40889e-08
-8.10983e-11
7.40989e-08
-7.29762e-11
7.41082e-08
-6.60262e-11
7.41177e-08
-5.99433e-11
7.41264e-08
-5.43953e-11
7.4134e-08
-4.93274e-11
7.41404e-08
-4.45777e-11
7.41454e-08
-4.01385e-11
7.41496e-08
-3.6046e-11
7.41532e-08
-3.23101e-11
7.41567e-08
-2.89901e-11
7.41587e-08
-2.60495e-11
7.41627e-08
-2.34132e-11
7.41666e-08
-2.1084e-11
7.41703e-08
-1.89658e-11
7.41739e-08
-1.70952e-11
7.41775e-08
-1.53388e-11
7.4181e-08
-1.36792e-11
7.41842e-08
-1.20971e-11
7.41879e-08
-1.06277e-11
7.41924e-08
-9.25073e-12
7.4195e-08
-8.00615e-12
7.41965e-08
-6.93674e-12
7.41987e-08
-5.99864e-12
7.42007e-08
-5.19463e-12
7.42025e-08
-4.52203e-12
7.42044e-08
-3.97422e-12
7.42062e-08
-3.51439e-12
7.4208e-08
-3.1484e-12
7.4209e-08
-2.83804e-12
7.42098e-08
-2.57375e-12
7.42107e-08
-2.34297e-12
7.42115e-08
-2.12832e-12
7.42122e-08
-1.92929e-12
7.42127e-08
-1.74296e-12
7.42131e-08
-1.60241e-12
7.42134e-08
-1.47124e-12
7.42137e-08
-1.34283e-12
7.42139e-08
-1.23694e-12
7.42142e-08
-1.14714e-12
7.42145e-08
-1.06384e-12
7.42148e-08
-9.78243e-13
7.42152e-08
-8.94425e-13
7.42155e-08
-8.16274e-13
7.42157e-08
-7.46881e-13
7.42159e-08
-6.90605e-13
7.4216e-08
-6.46475e-13
7.4216e-08
-6.10439e-13
7.4216e-08
-5.83171e-13
7.42159e-08
-5.59755e-13
7.42152e-08
-5.39608e-13
7.42146e-08
-5.17996e-13
7.4215e-08
-5.06786e-13
7.42154e-08
-5.42076e-13
7.42158e-08
-4.75307e-13
7.42161e-08
-4.2823e-13
7.42166e-08
-4.07343e-13
7.42172e-08
-4.16821e-13
7.42185e-08
-4.08306e-13
7.42193e-08
-3.60474e-13
7.42189e-08
-3.78739e-13
7.42187e-08
-3.76454e-13
7.42188e-08
-3.54192e-13
7.42188e-08
-3.28637e-13
7.42188e-08
-3.25838e-13
7.42189e-08
-2.99243e-13
7.4219e-08
-2.85205e-13
7.42196e-08
-2.56926e-13
7.42201e-08
-2.16411e-13
7.42202e-08
-1.93535e-13
7.42205e-08
-1.79777e-13
7.42209e-08
-1.6733e-13
7.42212e-08
-1.59717e-13
7.42214e-08
-1.48674e-13
7.42216e-08
-1.31968e-13
7.42218e-08
-1.17428e-13
7.42219e-08
-1.05005e-13
7.42221e-08
-9.29944e-14
7.42222e-08
-8.2097e-14
7.42224e-08
-5.30382e-14
7.42225e-08
-3.42519e-14
7.42226e-08
-1.85468e-14
7.42228e-08
-7.10771e-15
7.42229e-08
1.50519e-15
7.4223e-08
7.17085e-15
7.42231e-08
1.10654e-14
7.42231e-08
1.55984e-14
7.42229e-08
2.42379e-14
7.42227e-08
3.54937e-14
7.42225e-08
3.10526e-14
7.42221e-08
2.69285e-14
7.42217e-08
2.6075e-14
7.42212e-08
2.44519e-14
7.42206e-08
1.87738e-14
7.42199e-08
1.27383e-14
7.42193e-08
6.33026e-15
7.42186e-08
-1.42643e-14
7.42179e-08
-3.10656e-14
7.42174e-08
-5.68024e-14
7.42168e-08
-4.89011e-14
7.42163e-08
-4.88956e-14
7.42158e-08
-5.23291e-14
7.42154e-08
-5.36858e-14
7.42153e-08
-4.04566e-14
7.4215e-08
-2.71202e-14
7.42148e-08
-1.52117e-14
7.42147e-08
2.92632e-15
7.42146e-08
2.20972e-14
7.42145e-08
4.03065e-14
7.42145e-08
5.63139e-14
7.42145e-08
6.91091e-14
7.42144e-08
7.78611e-14
7.42143e-08
8.31096e-14
7.42142e-08
8.02868e-14
7.4214e-08
7.48421e-14
7.42138e-08
6.52275e-14
7.42135e-08
5.11914e-14
7.42132e-08
3.44181e-14
7.4213e-08
1.41257e-14
7.42128e-08
-1.0529e-14
7.42126e-08
-3.58555e-14
7.42124e-08
-6.26134e-14
7.42123e-08
-8.66808e-14
7.4212e-08
-1.12264e-13
7.4211e-08
-1.36328e-13
7.42109e-08
-1.6053e-13
7.42111e-08
-1.68845e-13
7.42114e-08
-1.76344e-13
7.42118e-08
-1.722e-13
7.42124e-08
-1.96191e-13
7.42127e-08
-1.89334e-13
7.42128e-08
-1.13707e-13
7.42128e-08
-1.68919e-13
7.42128e-08
-1.63407e-13
7.42128e-08
-1.5662e-13
7.42128e-08
-1.34342e-13
7.42126e-08
-1.26367e-13
7.42123e-08
-7.09647e-14
7.42122e-08
-8.86026e-14
7.42122e-08
-1.1539e-13
7.4212e-08