/*--------------------------------*- C++ -*----------------------------------*\
| =========                 |                                                 |
| \\      /  F ield         | OpenFOAM: The Open Source CFD Toolbox           |
|  \\    /   O peration     | Version:  2406                                  |
|   \\  /    A nd           | Website:  www.openfoam.com                      |
|    \\/     M anipulation  |                                                 |
\*---------------------------------------------------------------------------*/
FoamFile
{
    version     2.0;
    format      ascii;
    arch        "LSB;label=32;scalar=64";
    class       surfaceScalarField;
    location    "0.05";
    object      alphaPhi0.air;
}
// * * * * * * * * * * * * * * * * * * * * * * * * * * * * * * * * * * * * * //

dimensions      [0 3 -1 0 0 0 0];

oriented        oriented;

internalField   nonuniform List<scalar> 
12225
(
0.0695073
8.83666e-07
0.0695025
4.78443e-06
0.0694998
2.75266e-06
0.069501
-1.22919e-06
0.069503
-2.01974e-06
0.0695049
-1.90023e-06
0.0695071
-2.17444e-06
0.0695062
9.52957e-07
0.0695036
2.59803e-06
0.069502
1.53495e-06
0.0695025
-4.54297e-07
0.0695035
-9.95805e-07
0.0695046
-1.17333e-06
0.0695063
-1.61628e-06
0.0695072
-8.87556e-07
0.0695076
-3.96826e-07
0.0695082
-6.59378e-07
0.0695072
1.00598e-06
0.0695048
2.40455e-06
0.0695031
1.69193e-06
0.0695024
7.37274e-07
0.0695009
1.4342e-06
0.0694977
3.24333e-06
0.069496
1.66304e-06
0.069499
-3.02985e-06
0.0695037
-4.69454e-06
0.0695055
-1.76318e-06
0.0695051
3.9578e-07
0.0695049
1.96938e-07
0.0695047
2.81126e-07
0.0695039
7.0853e-07
0.0695025
1.4769e-06
0.0695009
1.57629e-06
0.0695009
-4.20848e-08
0.0695021
-1.16193e-06
0.0695032
-1.15577e-06
0.0695039
-7.09625e-07
0.0695039
8.94377e-08
0.0695031
7.8989e-07
0.0695028
2.79232e-07
0.0695034
-5.70043e-07
0.0695045
-1.10192e-06
0.069505
-4.99368e-07
0.0695044
5.56959e-07
0.0695033
1.10872e-06
0.0695021
1.15434e-06
0.0695011
9.98207e-07
0.0695009
2.73599e-07
0.069502
-1.12496e-06
0.0695043
-2.32253e-06
0.0695065
-2.18289e-06
0.0695069
-4.26926e-07
0.0695052
1.74795e-06
0.0695027
2.50319e-06
0.0695016
1.05881e-06
0.0695023
-6.57637e-07
0.069503
-6.83889e-07
0.0695028
1.45367e-07
0.0695029
-1.27761e-07
0.069504
-1.05715e-06
0.0695046
-6.31711e-07
0.0695035
1.13697e-06
0.0695016
1.88805e-06
0.0695011
5.05658e-07
0.0695024
-1.3398e-06
0.069504
-1.60752e-06
0.0695045
-4.87743e-07
0.0695039
6.88817e-07
0.0695029
9.69983e-07
0.0695025
3.97607e-07
0.0695029
-4.03327e-07
0.0695036
-7.35293e-07
0.0695038
-2.0971e-07
0.0695032
6.19352e-07
0.0695026
6.57149e-07
0.0695028
-2.66884e-07
0.0695038
-1.01034e-06
0.0695045
-6.58669e-07
0.069504
4.50506e-07
0.069503
1.03561e-06
0.0695025
5.11294e-07
0.069503
-5.58536e-07
0.0695041
-1.0869e-06
0.0695047
-6.04083e-07
0.0695043
4.03449e-07
0.0695034
9.62258e-07
0.0695027
6.2958e-07
0.069503
-2.95934e-07
0.069504
-9.23643e-07
0.0695047
-7.05141e-07
0.0695046
7.49496e-08
0.069504
5.92969e-07
0.0695035
5.12892e-07
0.0695034
7.65214e-08
0.0695037
-2.81069e-07
0.069504
-3.16141e-07
0.0695041
-1.20134e-07
0.069504
9.50299e-08
0.0695038
2.56085e-07
0.0695035
2.91469e-07
0.0695033
1.81973e-07
0.0695033
1.64449e-08
0.0695033
-5.27031e-08
0.0695034
-1.88931e-08
0.0695033
4.06443e-08
0.0695034
-3.19315e-08
0.0695035
-1.75626e-07
0.0695037
-1.86283e-07
0.0695037
1.72083e-08
0.0695034
2.47858e-07
0.0695032
2.15793e-07
0.0695033
-9.71283e-08
0.0695037
-3.74656e-07
0.069504
-2.87254e-07
0.0695038
1.87197e-07
0.0695032
6.33953e-07
0.0695025
6.49886e-07
0.0695023
2.32008e-07
0.0695027
-3.95995e-07
0.0695034
-7.57158e-07
0.0695041
-6.49646e-07
0.0695042
-1.27245e-07
0.0695038
4.53333e-07
0.069503
7.39411e-07
0.0695025
4.74139e-07
0.0695026
-3.58101e-08
0.069503
-3.78951e-07
0.0695032
-2.60403e-07
0.0695031
1.09776e-07
0.0695028
3.07888e-07
0.0695027
6.89161e-08
0.0695031
-4.0733e-07
0.0695038
-6.06647e-07
0.069504
-2.30048e-07
0.0695035
4.50535e-07
0.0695027
8.3777e-07
0.0695021
5.60707e-07
0.0695023
-2.08776e-07
0.0695032
-8.78078e-07
0.0695041
-8.72854e-07
0.0695042
-7.85784e-08
0.0695033
8.2777e-07
0.0695022
1.10776e-06
0.0695016
6.71025e-07
0.0695017
-1.17965e-07
0.0695025
-7.84009e-07
0.0695035
-1.02614e-06
0.0695044
-9.24819e-07
0.0695051
-6.33242e-07
0.0695052
-1.00861e-07
0.0695046
5.79958e-07
0.0695034
1.1344e-06
0.069502
1.43075e-06
0.0695009
1.13413e-06
0.0695008
1.17913e-07
0.069502
-1.20969e-06
0.069504
-2.01982e-06
0.0695058
-1.75942e-06
0.0695063
-5.17769e-07
0.0695053
9.44814e-07
0.0695036
1.71e-06
0.0695021
1.46544e-06
0.0695015
6.42464e-07
0.0695016
-1.32729e-07
0.0695023
-6.22174e-07
0.0695031
-8.69097e-07
0.0695041
-9.73603e-07
0.069505
-9.34065e-07
0.0695056
-5.71511e-07
0.0695054
1.74609e-07
0.0695044
1.01074e-06
0.069503
1.42336e-06
0.0695018
1.15453e-06
0.0695015
3.30867e-07
0.0695021
-6.26896e-07
0.0695034
-1.23934e-06
0.0695046
-1.21663e-06
0.0695053
-6.57927e-07
0.0695052
3.6565e-08
0.0695047
5.47074e-07
0.0695039
7.33882e-07
0.0695033
6.60329e-07
0.0695027
5.28397e-07
0.0695023
4.13495e-07
0.0695021
2.1891e-07
0.0695022
-1.35093e-07
0.0695028
-5.62519e-07
0.0695036
-7.87623e-07
0.0695042
-6.03668e-07
0.0695043
-7.04395e-08
0.0695038
4.99055e-07
0.069503
7.52914e-07
0.0695024
5.87625e-07
0.0695022
1.84503e-07
0.0695024
-1.54722e-07
0.0695027
-2.91696e-07
0.069503
-2.98606e-07
0.0695033
-3.36178e-07
0.0695038
-4.77233e-07
0.0695044
-5.69511e-07
0.0695047
-3.35409e-07
0.0695045
2.0884e-07
0.0695037
7.66679e-07
0.0695028
9.49876e-07
0.0695021
6.88235e-07
0.0695019
1.7893e-07
0.0695022
-2.82225e-07
0.0695027
-4.94571e-07
0.0695032
-4.56841e-07
0.0695035
-3.43473e-07
0.0695038
-3.27132e-07
0.0695042
-4.08501e-07
0.0695046
-3.92902e-07
0.0695048
-1.51873e-07
0.0695045
2.78252e-07
0.0695039
6.36567e-07
0.0695031
7.3291e-07
0.0695026
5.61452e-07
0.0695023
2.81224e-07
0.0695022
5.26812e-08
0.0695023
-1.15511e-07
0.0695026
-2.71399e-07
0.0695031
-4.71024e-07
0.0695038
-6.62783e-07
0.0695045
-7.58455e-07
0.0695052
-6.533e-07
0.0695055
-2.95461e-07
0.0695053
1.38949e-07
0.0695049
4.28796e-07
0.0695044
5.20075e-07
0.0695038
5.23523e-07
0.0695033
5.32497e-07
0.0695028
5.58564e-07
0.0695022
5.52113e-07
0.0695018
4.11766e-07
0.0695017
1.32355e-07
0.0695019
-1.93734e-07
0.0695024
-5.00177e-07
0.0695031
-6.97958e-07
0.0695038
-7.90274e-07
0.0695047
-8.13176e-07
0.0695054
-7.79307e-07
0.0695061
-6.884e-07
0.0695067
-5.49045e-07
0.069507
-3.02907e-07
0.069507
1.98416e-08
0.0695067
2.96229e-07
0.0695062
4.48409e-07
0.0695057
4.54124e-07
2.56079e-07
0.0695145
3.8854e-06
0.0695147
4.56305e-06
0.0695156
1.91274e-06
0.0695127
1.62352e-06
0.0695097
9.98284e-07
0.0695074
4.0357e-07
0.0695049
2.69424e-07
0.0695065
-6.57212e-07
0.0695118
-2.59905e-06
0.0695134
-6.86034e-08
0.0695127
2.46755e-07
0.0695107
9.45144e-07
0.0695077
1.79963e-06
0.0695053
7.75471e-07
0.0695052
-7.50912e-07
0.0695059
-1.05466e-06
0.0695068
-1.61882e-06
0.0695093
-1.42789e-06
0.0695123
-6.58698e-07
0.0695149
-8.92017e-07
0.0695154
2.67209e-07
0.0695162
6.38096e-07
0.0695189
5.43603e-07
0.0695191
1.45597e-06
0.0695135
2.58719e-06
0.0695072
1.57777e-06
0.0695061
-6.38394e-07
0.0695073
-8.16983e-07
0.0695078
-3.37292e-07
0.0695089
-7.70678e-07
0.0695109
-1.32531e-06
0.069514
-1.6312e-06
0.0695162
-5.9144e-07
0.0695149
1.21089e-06
0.0695121
1.6746e-06
0.06951
8.93264e-07
0.0695092
1.06955e-07
0.0695096
-2.74541e-07
0.0695107
-3.23302e-07
0.069511
2.3238e-08
0.06951
4.02606e-07
0.0695089
-2.40713e-08
0.0695089
-4.6312e-07
0.0695098
-4.08323e-07
0.0695116
-6.39641e-07
0.0695139
-1.1349e-06
0.0695155
-6.26631e-07
0.0695149
8.85859e-07
0.0695118
1.92907e-06
0.0695081
1.4611e-06
0.069506
-9.66098e-08
0.0695072
-1.62526e-06
0.0695108
-1.93278e-06
0.0695141
-8.04231e-07
0.0695147
5.31488e-07
0.069513
1.0232e-06
0.0695111
1.16799e-06
0.0695098
1.45827e-06
0.0695087
1.0006e-06
0.0695084
-7.75376e-07
0.0695101
-2.27242e-06
0.0695127
-1.53137e-06
0.0695138
8.28559e-07
0.0695121
2.19068e-06
0.0695096
1.19789e-06
0.0695088
-8.05872e-07
0.06951
-1.74786e-06
0.0695117
-1.01095e-06
0.0695123
3.81365e-07
0.0695115
1.18319e-06
0.0695103
7.91571e-07
0.0695098
-2.50315e-07
0.0695103
-7.06108e-07
0.0695111
-1.21313e-07
0.0695112
5.86209e-07
0.0695106
2.81397e-07
0.0695103
-7.51134e-07
0.0695109
-1.18854e-06
0.0695117
-3.69854e-07
0.069512
7.03939e-07
0.0695117
8.79566e-07
0.069511
1.38637e-07
0.0695104
-5.09908e-07
0.0695103
-4.73016e-07
0.0695107
-2.07634e-08
0.0695114
2.2384e-07
0.069512
4.84607e-08
0.0695119
-1.97717e-07
0.0695111
-1.32122e-07
0.0695103
1.32273e-07
0.0695101
2.49391e-07
0.0695107
2.56589e-08
0.0695116
-4.17015e-07
0.0695122
-5.74481e-07
0.0695122
-2.35266e-07
0.0695116
3.06469e-07
0.0695109
5.55341e-07
0.0695107
3.23958e-07
0.069511
-6.24776e-08
0.0695115
-1.74754e-07
0.0695116
1.77387e-08
0.0695114
1.9043e-07
0.0695113
9.72148e-08
0.0695114
-1.1229e-07
0.0695116
-1.48694e-07
0.0695115
4.0928e-08
0.0695111
2.06906e-07
0.0695108
1.09741e-07
0.069511
-1.49647e-07
0.0695115
-2.5081e-07
0.0695117
-9.9943e-09
0.0695112
4.03192e-07
0.0695102
6.71057e-07
0.0695093
6.0358e-07
0.0695092
2.61183e-07
0.06951
-1.60322e-07
0.0695111
-4.55128e-07
0.0695118
-4.60632e-07
0.0695117
-2.52444e-07
0.0695109
3.5595e-08
0.06951
1.72161e-07
0.0695098
1.30213e-07
0.0695102
6.13168e-08
0.0695108
1.48754e-07
0.0695109
3.19779e-07
0.0695106
3.03313e-07
0.0695102
2.64395e-08
0.0695102
-3.18394e-07
0.0695107
-3.96367e-07
0.0695112
-1.71766e-07
0.0695112
8.7975e-08
0.0695107
1.34765e-07
0.0695101
-7.65373e-08
0.0695101
-2.28898e-07
0.0695106
-5.66507e-08
0.0695111
3.66177e-07
0.069511
6.95546e-07
0.0695103
5.13173e-07
0.0695094
-5.88282e-08
0.0695092
-6.27661e-07
0.0695097
-6.1987e-07
0.0695106
-1.67941e-08
0.069511
6.66567e-07
0.069511
7.13749e-07
0.0695109
-5.35763e-08
0.0695112
-1.08279e-06
0.0695117
-1.55162e-06
0.0695119
-1.09341e-06
0.0695112
2.71377e-08
0.06951
1.09726e-06
0.0695091
1.50388e-06
0.0695092
1.04942e-06
0.0695104
2.23895e-07
0.069512
-4.11991e-07
0.0695128
-7.35497e-07
0.0695125
-9.26228e-07
0.0695115
-1.02873e-06
0.0695106
-8.47007e-07
0.0695103
-2.3466e-07
0.0695106
7.20771e-07
0.0695108
1.46507e-06
0.0695108
1.43967e-06
0.0695109
6.01298e-07
0.0695114
-6.08189e-07
0.0695122
-1.4473e-06
0.0695128
-1.52641e-06
0.0695128
-9.27758e-07
0.069512
-1.15774e-07
0.0695109
5.03131e-07
0.0695103
7.65481e-07
0.0695105
7.76156e-07
0.0695114
5.98564e-07
0.0695122
2.85262e-07
0.0695127
-1.36015e-07
0.0695126
-5.69324e-07
0.0695123
-8.7897e-07
0.0695119
-8.57793e-07
0.0695117
-3.99191e-07
0.0695113
3.67049e-07
0.0695108
1.09121e-06
0.0695101
1.39685e-06
0.0695096
1.14985e-06
0.0695097
4.89141e-07
0.0695102
-1.49884e-07
0.0695109
-4.75661e-07
0.0695113
-4.74957e-07
0.069511
-3.31693e-07
0.0695105
-2.11445e-07
0.06951
-1.07162e-07
0.0695099
3.9731e-08
0.06951
3.16565e-07
0.0695102
6.12117e-07
0.0695101
6.96022e-07
0.0695098
4.11512e-07
0.0695098
-1.26703e-07
0.0695102
-6.41371e-07
0.0695107
-8.45943e-07
0.0695111
-7.04212e-07
0.069511
-3.69569e-07
0.0695105
-6.76031e-08
0.0695101
8.43504e-08
0.0695101
1.83387e-07
0.0695105
3.2659e-07
0.069511
4.60181e-07
0.0695112
4.63553e-07
0.0695112
2.12373e-07
0.0695111
-2.04403e-07
0.0695112
-5.99851e-07
0.0695115
-7.3582e-07
0.0695118
-5.91385e-07
0.0695117
-3.0712e-07
0.0695114
-1.17069e-07
0.0695111
-8.32371e-08
0.0695111
-8.42277e-08
0.0695113
4.05762e-08
0.0695116
3.12964e-07
0.0695118
6.05376e-07
0.0695116
6.87261e-07
0.0695114
5.01211e-07
0.0695113
1.46392e-07
0.0695114
-1.59247e-07
0.0695114
-2.74655e-07
0.0695111
-2.36317e-07
0.0695106
-1.61083e-07
0.06951
-1.2354e-07
0.0695095
-1.42849e-07
0.0695093
-1.44004e-07
0.0695095
-2.04544e-08
0.0695097
1.69829e-07
0.06951
2.96858e-07
0.0695102
2.77038e-07
0.0695106
1.45588e-07
0.0695112
1.77499e-08
0.0695118
-8.13827e-08
0.0695124
-1.5577e-07
0.0695127
-2.55423e-07
0.069513
-4.11804e-07
0.0695131
-5.9262e-07
0.0695131
-7.20436e-07
0.069513
-7.41743e-07
0.0695129
-6.59997e-07
0.0695126
-5.25462e-07
0.0695123
-3.80339e-07
0.069512
-2.47016e-07
0.0695118
-1.30617e-07
0.0695118
-4.34377e-09
0.069512
1.36937e-07
0.0695122
2.37382e-07
0.0695124
2.46908e-07
1.59037e-07
0.0695108
-3.48916e-07
0.0695139
1.46815e-06
0.0695146
1.18325e-06
0.0695158
3.65928e-07
0.0695157
1.11052e-06
0.0695146
1.55963e-06
0.0695154
-5.1338e-07
0.0695142
4.79492e-07
0.0695098
1.79604e-06
0.0695095
2.79424e-07
0.0695097
-2.71026e-08
0.0695106
1.12123e-07
0.0695129
-4.98779e-07
0.0695139
-2.15108e-07
0.0695117
1.42309e-06
0.0695077
2.91536e-06
0.0695051
9.55009e-07
0.0695049
-1.2328e-06
0.0695042
3.10986e-08
0.0695026
6.94016e-07
0.0695046
-1.73194e-06
0.0695097
-4.41449e-06
0.0695126
-2.40163e-06
0.0695129
1.21737e-06
0.069515
4.7133e-07
0.0695173
-7.24496e-07
0.0695153
1.37893e-06
0.0695135
9.84417e-07
0.069513
1.83527e-07
0.0695112
1.02008e-06
0.0695094
4.24017e-07
0.0695077
9.00493e-08
0.0695071
3.17291e-09
0.0695088
-5.01777e-07
0.0695106
-1.44039e-07
0.0695114
1.06525e-07
0.0695118
-2.23873e-07
0.0695117
-2.0647e-07
0.0695118
-4.16019e-07
0.0695125
-6.44268e-07
0.0695126
2.90044e-07
0.0695114
1.19175e-06
0.0695101
7.94419e-07
0.0695096
5.15214e-08
0.0695093
-2.85036e-07
0.0695089
-7.05187e-07
0.0695093
-1.08092e-06
0.0695111
-8.63577e-07
0.0695131
-8.07796e-08
0.0695137
8.64984e-07
0.0695122
1.3452e-06
0.06951
5.68474e-07
0.069509
-8.89205e-07
0.0695095
-1.28185e-06
0.0695101
-1.07106e-07
0.0695103
8.51253e-07
0.069511
4.76748e-07
0.0695125
-9.56911e-08
0.0695132
2.98359e-07
0.0695117
7.80815e-07
0.0695092
2.13541e-07
0.0695084
-7.55002e-07
0.06951
-7.73354e-07
0.0695121
9.23451e-08
0.0695127
5.70128e-07
0.0695117
1.99716e-07
0.0695103
-3.00457e-07
0.0695096
-3.31932e-07
0.06951
-5.19771e-08
0.069511
2.19323e-07
0.0695114
3.78776e-07
0.0695109
2.82638e-07
0.0695103
-1.01786e-07
0.0695106
-4.69775e-07
0.0695116
-4.21025e-07
0.069512
-9.77283e-08
0.0695112
9.48228e-08
0.06951
-1.5329e-08
0.0695098
-1.52087e-07
0.0695107
-2.05244e-07
0.0695117
-1.64133e-07
0.0695119
-5.5725e-08
0.0695112
1.66735e-07
0.0695104
3.26037e-07
0.0695103
1.57579e-07
0.0695108
-2.85609e-07
0.0695114
-5.89436e-07
0.0695116
-3.95601e-07
0.0695113
1.72344e-07
0.0695109
5.60763e-07
0.0695108
3.45306e-07
0.0695111
-2.68614e-07
0.0695114
-7.36903e-07
0.0695115
-6.69828e-07
0.0695113
-9.51302e-08
0.0695111
5.30287e-07
0.0695109
7.35084e-07
0.0695109
4.08941e-07
0.0695109
-1.51315e-07
0.0695112
-4.48167e-07
0.0695115
-2.29649e-07
0.0695114
2.17823e-07
0.0695111
4.12225e-07
0.0695108
1.71928e-07
0.0695109
-1.78457e-07
0.0695112
-2.65651e-07
0.0695114
-3.46049e-08
0.0695113
2.10212e-07
0.069511
2.09428e-07
0.0695107
3.98167e-08
0.0695106
3.96759e-08
0.0695107
3.42404e-07
0.0695106
7.36047e-07
0.0695104
8.17422e-07
0.0695102
4.32362e-07
0.0695103
-2.46686e-07
0.0695107
-8.1101e-07
0.0695111
-8.90654e-07
0.0695113
-4.22704e-07
0.069511
2.83216e-07
0.0695104
7.6356e-07
0.0695099
6.91074e-07
0.0695098
1.68144e-07
0.0695103
-3.4067e-07
0.069511
-3.85658e-07
0.0695113
-1.14636e-08
0.0695109
3.8151e-07
0.0695102
3.90378e-07
0.0695098
-4.27218e-09
0.0695101
-4.58487e-07
0.0695108
-6.20742e-07
0.0695113
-3.59116e-07
0.0695111
9.27776e-08
0.0695105
4.14783e-07
0.06951
4.72718e-07
0.06951
3.74125e-07
0.0695104
2.97477e-07
0.0695106
2.23914e-07
0.0695105
1.32805e-07
0.0695099
-5.66311e-08
0.0695095
-2.37717e-07
0.0695098
-2.8417e-07
0.0695106
-1.74141e-07
0.0695114
-8.27724e-08
0.0695116
-2.44178e-07
0.0695112
-6.75775e-07
0.0695107
-1.04698e-06
0.0695105
-8.89456e-07
0.0695105
3.73017e-09
0.0695105
1.14393e-06
0.0695103
1.6918e-06
0.0695101
1.25763e-06
0.0695102
1.24019e-07
0.0695108
-1.04863e-06
0.0695117
-1.61872e-06
0.0695122
-1.41696e-06
0.0695118
-6.85305e-07
0.0695109
6.84397e-08
0.0695101
5.9142e-07
0.0695099
8.90927e-07
0.0695104
9.74429e-07
0.0695111
7.35886e-07
0.0695115
1.83059e-07
0.0695116
-6.28428e-07
0.0695115
-1.34666e-06
0.0695115
-1.57213e-06
0.0695117
-1.11917e-06
0.0695118
-1.94132e-07
0.0695115
7.66884e-07
0.069511
1.28353e-06
0.0695106
1.1298e-06
0.0695108
4.55948e-07
0.0695114
-3.00071e-07
0.069512
-7.96389e-07
0.0695123
-8.90921e-07
0.0695121
-6.7341e-07
0.0695116
-3.01764e-07
0.069511
1.59891e-07
0.0695107
6.72079e-07
0.0695106
1.15089e-06
0.0695106
1.40947e-06
0.0695105
1.27222e-06
0.0695103
7.18878e-07
0.0695102
-2.41961e-08
0.0695103
-6.38293e-07
0.0695107
-8.41178e-07
0.069511
-6.02278e-07
0.0695109
-1.25413e-07
0.0695105
3.11304e-07
0.06951
5.21558e-07
0.0695097
5.38528e-07
0.0695099
4.87328e-07
0.0695102
4.12156e-07
0.0695103
2.51874e-07
0.0695103
-6.85813e-08
0.0695101
-5.23615e-07
0.0695102
-9.1687e-07
0.0695105
-1.02202e-06
0.0695109
-7.55534e-07
0.0695111
-2.03581e-07
0.0695108
3.31337e-07
0.0695104
5.5946e-07
0.0695103
4.71896e-07
0.0695105
2.47053e-07
0.0695109
6.66101e-08
0.0695112
-5.64364e-08
0.0695112
-1.97881e-07
0.069511
-4.16595e-07
0.0695109
-6.41156e-07
0.069511
-7.38069e-07
0.0695114
-6.26325e-07
0.0695116
-3.71452e-07
0.0695116
-9.05088e-08
0.0695114
1.11378e-07
0.0695112
2.4699e-07
0.0695111
3.7271e-07
0.0695112
5.1479e-07
0.0695113
6.15122e-07
0.0695112
5.86086e-07
0.069511
3.8689e-07
0.0695107
9.61661e-08
0.0695106
-1.39293e-07
0.0695106
-2.10405e-07
0.0695105
-1.3019e-07
0.0695104
-2.12553e-09
0.0695102
5.60848e-08
0.0695101
1.57065e-08
0.0695101
-4.00604e-08
0.0695103
-4.26183e-08
0.0695106
-1.5549e-09
0.0695108
3.36811e-08
0.069511
-1.43911e-09
0.0695111
-1.13933e-07
0.0695113
-2.78935e-07
0.0695116
-4.39081e-07
0.0695119
-5.61502e-07
0.0695121
-6.50902e-07
0.0695123
-7.22674e-07
0.0695123
-7.72866e-07
0.0695124
-7.71756e-07
0.0695124
-6.93639e-07
0.0695124
-5.53296e-07
0.0695124
-3.91319e-07
0.0695124
-2.37046e-07
0.0695124
-9.90155e-08
0.0695123
1.95973e-08
0.0695124
1.19649e-07
0.0695124
1.84656e-07
0.0695125
2.0127e-07
1.39334e-07
0.0695038
-2.56737e-07
0.0695041
1.18647e-06
0.0695032
2.03075e-06
0.0695041
-5.146e-07
0.0695066
-1.37665e-06
0.0695088
-5.93967e-07
0.0695078
4.42133e-07
0.0695092
-9.37257e-07
0.0695113
-3.01047e-07
0.0695116
-9.32714e-10
0.0695126
-9.82859e-07
0.0695137
-9.48674e-07
0.0695129
2.42064e-07
0.0695124
2.61751e-07
0.0695153
-1.40824e-06
0.0695188
-6.12768e-07
0.069518
1.80914e-06
0.0695151
1.6768e-06
0.0695154
-3.12428e-07
0.0695164
-3.01476e-07
0.0695119
2.77753e-06
0.0695038
3.71045e-06
0.0695015
-1.68317e-07
0.0695055
-2.72989e-06
0.0695063
-3.51e-07
0.0695063
-7.76826e-07
0.0695095
-1.77127e-06
0.0695104
7.75787e-08
0.0695104
1.35773e-07
0.0695117
-2.29241e-07
0.0695113
7.76776e-07
0.0695108
6.71675e-07
0.069511
-2.68579e-07
0.0695111
-5.63069e-07
0.0695113
-3.36531e-07
0.0695114
3.80264e-09
0.0695108
3.47329e-07
0.06951
5.80673e-07
0.0695095
7.79622e-08
0.0695097
-7.74517e-07
0.0695106
-6.70241e-07
0.0695118
-1.99305e-08
0.0695127
-9.78928e-08
0.0695132
-4.62558e-07
0.0695129
8.55575e-08
0.0695113
8.76604e-07
0.0695094
7.9777e-07
0.0695087
-1.63593e-07
0.0695096
-9.85496e-07
0.0695113
-8.44696e-07
0.0695125
1.91035e-07
0.0695121
9.70091e-07
0.0695106
6.08368e-07
0.0695094
-9.95406e-08
0.0695092
5.40273e-08
0.0695095
5.44826e-07
0.06951
5.66772e-09
0.0695111
-1.20769e-06
0.0695126
-1.21894e-06
0.0695131
3.5785e-07
0.0695116
1.71271e-06
0.0695095
1.28628e-06
0.0695091
-3.16435e-07
0.0695105
-1.36755e-06
0.0695122
-1.09251e-06
0.0695124
-2.74747e-08
0.0695112
8.92935e-07
0.0695099
1.01841e-06
0.0695095
3.08003e-07
0.0695102
-5.14372e-07
0.0695112
-5.80931e-07
0.0695114
7.64942e-08
0.0695109
4.29549e-07
0.0695105
-6.60322e-08
0.0695108
-7.11343e-07
0.0695113
-6.17837e-07
0.0695113
1.37763e-07
0.0695106
5.86092e-07
0.0695102
2.74942e-07
0.0695104
-3.84993e-07
0.0695109
-6.61584e-07
0.0695112
-3.57322e-07
0.0695112
1.78188e-07
0.0695111
4.15886e-07
0.0695111
1.63438e-07
0.0695111
-3.0422e-07
0.069511
-5.2394e-07
0.0695109
-2.86935e-07
0.069511
1.54587e-07
0.0695112
3.33117e-07
0.0695114
7.99142e-08
0.0695115
-3.47172e-07
0.0695113
-5.08227e-07
0.0695109
-2.81895e-07
0.0695107
1.37264e-07
0.0695108
4.23156e-07
0.0695111
4.15153e-07
0.0695113
1.71814e-07
0.0695113
-1.29834e-07
0.0695112
-2.84405e-07
0.0695111
-1.57898e-07
0.0695111
1.51643e-07
0.0695112
3.80805e-07
0.069511
3.22327e-07
0.0695108
2.22457e-08
0.0695108
-2.40989e-07
0.069511
-2.43175e-07
0.0695112
-2.32303e-09
0.0695112
2.63836e-07
0.0695108
3.95513e-07
0.0695104
4.44365e-07
0.0695103
4.96639e-07
0.0695104
5.64206e-07
0.0695108
4.90126e-07
0.069511
1.53531e-07
0.0695111
-3.13537e-07
0.0695109
-6.48273e-07
0.0695107
-6.25539e-07
0.0695105
-2.31954e-07
0.0695105
3.1399e-07
0.0695105
7.02992e-07
0.0695105
6.89197e-07
0.0695104
2.73763e-07
0.0695103
-2.73373e-07
0.0695105
-5.51348e-07
0.0695108
-3.07096e-07
0.069511
2.27711e-07
0.0695107
6.03032e-07
0.0695103
4.05544e-07
0.0695101
-2.11309e-07
0.0695103
-8.0199e-07
0.0695108
-8.42565e-07
0.0695111
-2.40513e-07
0.0695109
5.77147e-07
0.0695104
1.02916e-06
0.0695099
8.79337e-07
0.0695098
3.16599e-07
0.0695103
-1.84243e-07
0.0695107
-3.13473e-07
0.0695107
-6.52263e-08
0.0695103
1.72405e-07
0.0695099
7.919e-08
0.0695101
-3.25578e-07
0.0695107
-7.47292e-07
0.0695114
-9.24789e-07
0.0695116
-8.06533e-07
0.069511
-4.98522e-07
0.0695102
-5.78102e-08
0.0695098
4.30323e-07
0.06951
9.17722e-07
0.0695105
1.1411e-06
0.0695109
8.58362e-07
0.069511
3.89463e-08
0.069511
-1.00978e-06
0.0695111
-1.72998e-06
0.0695114
-1.67279e-06
0.0695115
-8.36521e-07
0.0695113
2.92551e-07
0.0695107
1.17858e-06
0.0695101
1.44766e-06
0.0695101
1.01396e-06
0.0695106
1.7202e-07
0.0695114
-6.13272e-07
0.069512
-1.14917e-06
0.069512
-1.3629e-06
0.0695116
-1.22101e-06
0.0695113
-7.37121e-07
0.0695111
-8.40472e-09
0.0695111
7.70723e-07
0.0695111
1.21872e-06
0.0695112
1.08944e-06
0.0695112
4.29996e-07
0.0695113
-4.26497e-07
0.0695116
-1.08251e-06
0.0695119
-1.21332e-06
0.069512
-7.8572e-07
0.0695118
-1.82285e-08
0.0695112
7.40989e-07
0.0695106
1.25966e-06
0.0695103
1.47064e-06
0.0695103
1.37949e-06
0.0695105
1.04083e-06
0.0695107
5.45141e-07
0.0695107
-1.67578e-08
0.0695106
-5.15223e-07
0.0695105
-7.7671e-07
0.0695106
-6.76336e-07
0.0695107
-2.33883e-07
0.0695106
3.52643e-07
0.0695104
8.14441e-07
0.06951
9.35683e-07
0.0695097
7.19675e-07
0.0695098
3.19499e-07
0.0695102
-8.10451e-08
0.0695105
-4.01583e-07
0.0695106
-6.5625e-07
0.0695106
-8.55265e-07
0.0695105
-9.45179e-07
0.0695105
-7.91073e-07
0.0695107
-3.4015e-07
0.0695108
2.03405e-07
0.0695108
5.79148e-07
0.0695106
6.13872e-07
0.0695105
3.46777e-07
0.0695106
-2.28837e-08
0.0695109
-3.12818e-07
0.0695111
-4.50657e-07
0.0695112
-5.02214e-07
0.0695111
-5.67434e-07
0.0695111
-6.6236e-07
0.0695111
-7.0628e-07
0.0695114
-5.97848e-07
0.0695116
-3.10815e-07
0.0695116
8.21845e-08
0.0695114
4.32775e-07
0.0695112
6.21515e-07
0.069511
6.47793e-07
0.0695111
5.95372e-07
0.0695111
5.20754e-07
0.0695111
4.18937e-07
0.0695109
2.80995e-07
0.0695107
1.16955e-07
0.0695105
-8.07302e-09
0.0695104
-5.39867e-08
0.0695104
-1.55162e-08
0.0695104
4.85077e-08
0.0695103
6.35503e-08
0.0695103
7.07512e-09
0.0695103
-8.48489e-08
0.0695105
-1.61476e-07
0.0695107
-1.94851e-07
0.0695109
-2.1652e-07
0.0695111
-2.81415e-07
0.0695113
-4.1587e-07
0.0695114
-5.96265e-07
0.0695116
-7.675e-07
0.0695118
-8.77213e-07
0.069512
-9.09743e-07
0.0695121
-8.83236e-07
0.0695122
-8.16665e-07
0.0695122
-7.11363e-07
0.0695122
-5.70645e-07
0.0695122
-4.17288e-07
0.0695123
-2.67461e-07
0.0695123
-1.21739e-07
0.0695123
1.18491e-08
0.0695123
1.2013e-07
0.0695123
1.90119e-07
0.0695123
2.10885e-07
1.47468e-07
0.0695146
-2.37486e-06
0.0695173
-1.55642e-06
0.0695177
1.66068e-06
0.069515
2.20341e-06
0.0695112
2.40883e-06
0.0695112
-5.79735e-07
0.0695123
-6.45669e-07
0.0695113
1.29078e-08
0.0695107
2.97271e-07
0.0695098
9.32929e-07
0.0695085
2.42137e-07
0.0695076
-3.82114e-08
0.0695081
-2.59583e-07
0.0695092
-8.62973e-07
0.0695084
-5.31223e-07
0.069507
7.81754e-07
0.0695083
5.14853e-07
0.0695108
-8.3365e-07
0.0695109
-4.81881e-07
0.0695099
7.55799e-07
0.0695128
-1.87951e-07
0.069518
-1.40413e-06
0.0695171
7.21767e-07
0.069513
1.34664e-06
0.069513
-3.45842e-07
0.0695116
6.67061e-07
0.0695087
1.03618e-06
0.0695091
-3.27083e-07
0.0695096
-3.38454e-07
0.0695097
-3.56824e-07
0.069511
-4.70208e-07
0.0695115
1.15779e-07
0.069511
2.60325e-07
0.0695109
-4.90421e-07
0.0695113
-7.08283e-07
0.0695112
7.17111e-08
0.0695113
3.15349e-07
0.0695117
2.05229e-07
0.0695113
4.29593e-07
0.0695103
2.46101e-07
0.0695098
-2.3366e-07
0.0695101
-2.74701e-07
0.0695102
-1.65399e-07
0.06951
-2.53768e-07
0.0695101
-7.35121e-08
0.0695106
3.48809e-07
0.069511
4.92414e-07
0.0695105
2.57533e-07
0.0695098
-2.63843e-07
0.0695098
-7.86191e-07
0.0695107
-7.1426e-07
0.0695115
1.15178e-07
0.0695114
7.43114e-07
0.0695109
3.45588e-07
0.0695112
-1.84011e-07
0.0695116
8.69404e-08
0.0695112
4.34435e-07
0.0695101
-1.32418e-07
0.0695098
-9.18733e-07
0.0695107
-5.15005e-07
0.0695116
7.82665e-07
0.0695117
1.25761e-06
0.0695111
2.18804e-07
0.0695108
-1.05085e-06
0.0695108
-1.10845e-06
0.0695108
-5.0929e-08
0.0695108
9.49183e-07
0.0695107
1.06107e-06
0.0695107
3.45695e-07
0.0695107
-5.39042e-07
0.069511
-8.51125e-07
0.0695115
-3.7235e-07
0.0695116
3.05654e-07
0.0695111
4.29995e-07
0.0695104
1.18163e-08
0.06951
-2.94966e-07
0.0695103
-1.64734e-07
0.0695109
4.14591e-08
0.0695112
-6.4378e-08
0.0695111
-3.13403e-07
0.0695108
-3.20706e-07
0.0695105
-6.34209e-08
0.0695106
1.30848e-07
0.069511
2.70133e-08
0.0695114
-2.82021e-07
0.0695115
-4.45162e-07
0.0695113
-3.04057e-07
0.069511
2.66891e-08
0.0695109
2.45396e-07
0.0695111
1.61882e-07
0.0695113
-1.64204e-07
0.0695114
-4.02642e-07
0.0695112
-2.97647e-07
0.0695108
9.12967e-08
0.0695106
3.79332e-07
0.0695107
3.11892e-07
0.0695111
6.33456e-10
0.0695115
-2.14178e-07
0.0695115
-1.58684e-07
0.0695112
5.57976e-08
0.0695108
1.83341e-07
0.0695108
1.69906e-07
0.0695111
1.23299e-07
0.0695112
1.3413e-07
0.0695111
1.53294e-07
0.0695108
9.60996e-08
0.0695106
-3.03438e-08
0.0695107
-9.48256e-08
0.0695109
1.37669e-08
0.069511
2.87971e-07
0.0695108
6.06038e-07
0.0695106
7.63521e-07
0.0695105
6.45988e-07
0.0695107
2.66199e-07
0.0695111
-2.32738e-07
0.0695114
-5.7028e-07
0.0695113
-5.38039e-07
0.0695108
-1.51828e-07
0.0695102
3.32893e-07
0.0695099
5.87007e-07
0.0695101
5.02207e-07
0.0695107
1.81943e-07
0.069511
-1.17062e-07
0.069511
-2.44332e-07
0.0695106
-1.81583e-07
0.0695103
2.03071e-08
0.0695103
2.54046e-07
0.0695105
3.48478e-07
0.0695108
1.74518e-07
0.0695108
-2.30954e-07
0.0695106
-6.06599e-07
0.0695104
-6.34451e-07
0.0695104
-2.07625e-07
0.0695105
4.69356e-07
0.0695105
9.81953e-07
0.0695104
9.86708e-07
0.0695102
4.80834e-07
0.0695102
-1.49874e-07
0.0695104
-4.82056e-07
0.0695106
-3.08985e-07
0.0695107
6.63889e-08
0.0695106
2.06059e-07
0.0695104
-1.20084e-07
0.0695104
-7.54737e-07
0.0695107
-1.22509e-06
0.069511
-1.13925e-06
0.069511
-4.77541e-07
0.0695106
3.79489e-07
0.06951
9.95824e-07
0.0695098
1.17202e-06
0.0695101
8.1933e-07
0.0695108
1.43818e-07
0.0695114
-5.75214e-07
0.0695116
-1.18041e-06
0.0695114
-1.5025e-06
0.069511
-1.3495e-06
0.0695109
-6.86197e-07
0.0695108
3.41084e-07
0.0695107
1.29375e-06
0.0695106
1.60455e-06
0.0695105
1.06655e-06
0.0695107
-2.12741e-08
0.0695112
-1.0884e-06
0.0695117
-1.69685e-06
0.069512
-1.65849e-06
0.0695119
-1.08356e-06
0.0695114
-2.6079e-07
0.0695109
4.9418e-07
0.0695107
9.76188e-07
0.0695108
1.06828e-06
0.0695112
7.43469e-07
0.0695115
1.31239e-07
0.0695116
-5.63676e-07
0.0695116
-1.07664e-06
0.0695116
-1.17764e-06
0.0695116
-7.62078e-07
0.0695115
5.75955e-08
0.0695112
9.82107e-07
0.0695108
1.67695e-06
0.0695104
1.89165e-06
0.0695102
1.57734e-06
0.0695103
9.24676e-07
0.0695106
2.35522e-07
0.0695109
-2.87314e-07
0.069511
-5.63555e-07
0.0695108
-6.0453e-07
0.0695105
-4.40347e-07
0.0695104
-8.47714e-08
0.0695104
3.9241e-07
0.0695103
8.38885e-07
0.0695102
1.06263e-06
0.06951
9.28839e-07
0.0695099
4.51926e-07
0.06951
-1.69309e-07
0.0695103
-7.13917e-07
0.0695106
-1.0109e-06
0.0695108
-1.04508e-06
0.0695108
-8.86597e-07
0.0695106
-5.95488e-07
0.0695104
-2.32957e-07
0.0695105
1.25361e-07
0.0695107
4.01333e-07
0.0695108
4.98932e-07
0.0695108
3.73142e-07
0.0695107
6.18104e-08
0.0695107
-3.12872e-07
0.0695109
-5.97916e-07
0.0695111
-7.25406e-07
0.0695113
-7.36078e-07
0.0695113
-7.12263e-07
0.0695113
-6.83889e-07
0.0695113
-6.04757e-07
0.0695114
-3.82106e-07
0.0695114
2.46173e-09
0.0695114
4.37082e-07
0.0695113
7.48904e-07
0.0695111
8.3703e-07
0.069511
7.43186e-07
0.0695109
5.70716e-07
0.0695109
4.15858e-07
0.0695109
3.19378e-07
0.0695107
2.61196e-07
0.0695105
1.97335e-07
0.0695104
1.19537e-07
0.0695103
4.70315e-08
0.0695103
7.25565e-09
0.0695104
-8.18241e-09
0.0695104
-4.32923e-08
0.0695105
-1.17344e-07
0.0695105
-2.195e-07
0.0695107
-3.23565e-07
0.0695109
-4.17665e-07
0.0695111
-5.09382e-07
0.0695113
-6.21151e-07
0.0695115
-7.64067e-07
0.0695116
-9.15656e-07
0.0695118
-1.02638e-06
0.0695119
-1.05471e-06
0.069512
-9.96588e-07
0.0695121
-8.79676e-07
0.0695121
-7.31719e-07
0.0695121
-5.74414e-07
0.0695121
-4.2173e-07
0.0695121
-2.74981e-07
0.0695121
-1.26647e-07
0.0695121
1.83401e-08
0.0695121
1.38758e-07
0.0695121
2.16141e-07
0.0695121
2.34945e-07
1.60645e-07
0.0695056
4.91847e-07
0.0695045
-4.6611e-07
0.069508
-1.88478e-06
0.0695112
-9.97173e-07
0.0695128
8.99819e-07
0.0695107
1.45111e-06
0.069509
1.06572e-06
0.0695099
-8.76484e-07
0.0695103
-8.59905e-08
0.0695099
1.29068e-06
0.0695097
4.49211e-07
0.0695108
-1.07826e-06
0.0695107
-1.74765e-07
0.069509
7.9423e-07
0.0695094
-9.13212e-07
0.0695125
-2.3319e-06
0.0695138
-7.54772e-07
0.0695115
1.44764e-06
0.0695101
9.24595e-07
0.0695118
-9.58829e-07
0.0695123
-6.89999e-07
0.0695096
1.28738e-06
0.0695099
4.15804e-07
0.0695114
-1.23548e-07
0.0695099
1.11933e-06
0.0695106
6.31217e-08
0.0695124
-7.82637e-07
0.0695114
6.19014e-07
0.0695107
3.73248e-07
0.069511
-6.4946e-07
0.0695109
-3.9385e-07
0.0695109
1.16344e-07
0.0695108
3.63946e-07
0.0695103
2.54891e-08
0.06951
-3.60362e-07
0.0695101
-3.47476e-08
0.0695105
-1.62072e-07
0.0695115
-7.0858e-07
0.0695122
-2.92261e-07
0.0695121
3.18911e-07
0.0695119
1.39171e-08
0.0695119
-3.48873e-07
0.0695117
7.81586e-08
0.0695109
5.02318e-07
0.0695106
2.96547e-07
0.0695111
-1.51512e-07
0.0695117
-1.68998e-07
0.0695117
3.01183e-07
0.0695106
8.52167e-07
0.0695091
6.57997e-07
0.0695085
-9.51929e-08
0.0695091
-5.32677e-07
0.0695102
-3.36759e-07
0.0695109
-3.39881e-07
0.0695114
-6.64547e-07
0.069512
-5.08362e-07