/*--------------------------------*- C++ -*----------------------------------*\
| =========                 |                                                 |
| \\      /  F ield         | OpenFOAM: The Open Source CFD Toolbox           |
|  \\    /   O peration     | Version:  2406                                  |
|   \\  /    A nd           | Website:  www.openfoam.com                      |
|    \\/     M anipulation  |                                                 |
\*---------------------------------------------------------------------------*/
FoamFile
{
    version     2.0;
    format      ascii;
    arch        "LSB;label=32;scalar=64";
    class       volScalarField;
    location    "0.05";
    object      p_rgh;
}
// * * * * * * * * * * * * * * * * * * * * * * * * * * * * * * * * * * * * * //

dimensions      [1 -1 -2 0 0 0 0];

internalField   nonuniform List<scalar> 
6250
(
4999.99
4999.99
4999.98
4999.98
4999.98
4999.98
4999.98
4999.98
4999.98
4999.98
4999.97
4999.97
4999.97
4999.97
4999.97
4999.97
4999.97
4999.97
4999.97
4999.96
4999.96
4999.96
4999.96
4999.96
4999.96
4999.96
4999.95
4996.7
5004.58
4980.69
4959.95
4945.96
4932.27
4917.18
4900.64
4882.93
4864.32
4844.96
4824.96
4804.41
4783.45
4762.18
4740.65
4718.91
4696.98
4674.9
4652.7
4630.4
4608.03
4585.58
4563.07
4540.5
4517.88
4495.23
4472.56
4449.83
4427.08
4404.31
4381.52
4358.73
4335.93
4313.12
4290.29
4267.45
4244.6
4221.74
4198.87
4176
4153.13
4130.26
4107.38
4084.49
4061.6
4038.7
4015.8
3992.9
3970
3947.11
3924.21
3901.32
3878.43
3855.53
3832.63
3809.73
3786.82
3763.9
3740.99
3718.08
3695.18
3672.29
3649.41
3626.53
3603.64
3580.75
3557.85
3534.94
3512.02
3489.11
3466.21
3443.32
3420.43
3397.56
3374.69
3351.81
3328.93
3306.05
3283.16
3260.26
3237.37
3214.47
3191.58
3168.69
3145.8
3122.9
3100.01
3077.12
3054.23
3031.34
3008.44
2985.55
2962.65
2939.75
2916.85
2893.96
2871.06
2848.17
2825.29
2802.4
2779.52
2756.63
2733.74
2710.84
2687.93
2665.02
2642.1
2619.18
2596.27
2573.36
2550.46
2527.57
2504.68
2481.8
2458.92
2436.03
2413.14
2390.25
2367.35
2344.45
2321.54
2298.63
2275.72
2252.82
2229.92
2207.03
2184.15
2161.27
2138.4
2115.53
2092.66
2069.78
2046.91
2024.02
2001.13
1978.24
1955.34
1932.43
1909.53
1886.61
1863.7
1840.79
1817.87
1794.96
1772.05
1749.13
1726.22
1703.31
1680.41
1657.5
1634.6
1611.71
1588.81
1565.93
1543.04
1520.16
1497.29
1474.42
1451.54
1428.67
1405.8
1382.92
1360.03
1337.13
1314.23
1291.31
1268.39
1245.46
1222.53
1199.59
1176.65
1153.7
1130.75
1107.8
1084.84
1061.89
1038.92
1015.96
992.99
970.018
947.043
924.064
901.081
878.095
855.104
832.108
809.107
786.101
763.09
740.075
717.057
694.036
671.014
647.991
624.969
601.949
578.932
555.92
532.913
509.91
486.912
463.918
440.928
417.942
394.96
371.982
349.009
326.037
303.072
280.112
257.16
234.219
211.29
188.38
165.499
142.658
119.88
97.1875
74.5903
52.0604
29.8688
9.46168
4999.99
4999.98
4999.98
4999.98
4999.98
4999.98
4999.98
4999.98
4999.98
4999.98
4999.97
4999.97
4999.97
4999.97
4999.97
4999.97
4999.97
4999.97
4999.97
4999.96
4999.96
4999.96
4999.96
4999.96
4999.96
4999.96
5000.07
5000.58
4997.65
4979.97
4963.82
4946.6
4931.19
4916.9
4900.88
4883.31
4864.66
4845.27
4825.23
4804.64
4783.63
4762.31
4740.75
4718.99
4697.04
4674.94
4652.73
4630.43
4608.06
4585.61
4563.1
4540.53
4517.91
4495.25
4472.56
4449.84
4427.1
4404.33
4381.56
4358.76
4335.94
4313.11
4290.27
4267.41
4244.55
4221.69
4198.83
4175.97
4153.11
4130.25
4107.37
4084.49
4061.6
4038.7
4015.8
3992.9
3970.01
3947.11
3924.22
3901.32
3878.42
3855.53
3832.62
3809.71
3786.8
3763.88
3740.97
3718.07
3695.17
3672.29
3649.41
3626.53
3603.65
3580.75
3557.85
3534.94
3512.02
3489.12
3466.22
3443.33
3420.45
3397.57
3374.69
3351.81
3328.93
3306.04
3283.15
3260.25
3237.35
3214.46
3191.56
3168.67
3145.77
3122.88
3099.99
3077.09
3054.2
3031.3
3008.41
2985.51
2962.62
2939.72
2916.83
2893.94
2871.05
2848.17
2825.29
2802.41
2779.53
2756.64
2733.75
2710.84
2687.93
2665.02
2642.1
2619.19
2596.27
2573.37
2550.47
2527.58
2504.7
2481.82
2458.94
2436.05
2413.16
2390.26
2367.36
2344.45
2321.54
2298.63
2275.72
2252.81
2229.91
2207.02
2184.14
2161.26
2138.39
2115.52
2092.66
2069.78
2046.9
2024.02
2001.13
1978.23
1955.33
1932.42
1909.52
1886.6
1863.69
1840.78
1817.86
1794.95
1772.03
1749.12
1726.21
1703.3
1680.39
1657.49
1634.59
1611.69
1588.8
1565.91
1543.03
1520.15
1497.28
1474.41
1451.54
1428.67
1405.8
1382.92
1360.03
1337.13
1314.23
1291.32
1268.39
1245.46
1222.53
1199.59
1176.65
1153.7
1130.75
1107.8
1084.84
1061.89
1038.92
1015.96
992.99
970.018
947.044
924.066
901.085
878.099
855.107
832.111
809.109
786.103
763.091
740.075
717.056
694.034
671.011
647.987
624.965
601.945
578.929
555.918
532.913
509.912
486.915
463.924
440.936
417.954
394.975
372.001
349.032
326.067
303.107
280.155
257.21
234.276
211.355
188.451
165.571
142.722
119.917
97.1694
74.434
51.5946
29.023
9.08987
4999.99
4999.98
4999.98
4999.98
4999.98
4999.98
4999.98
4999.98
4999.98
4999.98
4999.97
4999.97
4999.97
4999.97
4999.97
4999.97
4999.97
4999.97
4999.97
4999.96
4999.96
4999.96
4999.96
4999.96
4999.96
4999.96
4999.97
4999.95
4999.35
4997.12
4988.31
4964.96
4943.8
4926.09
4907.59
4888.41
4868.64
4848.33
4827.6
4806.52
4785.15
4763.54
4741.73
4719.76
4697.66
4675.45
4653.15
4630.77
4608.32
4585.82
4563.25
4540.66
4518.02
4495.36
4472.66
4449.93
4427.17
4404.38
4381.59
4358.78
4335.97
4313.14
4290.31
4267.46
4244.61
4221.74
4198.88
4176
4153.13
4130.25
4107.37
4084.48
4061.6
4038.71
4015.81
3992.92
3970.02
3947.12
3924.22
3901.33
3878.44
3855.55
3832.64
3809.73
3786.81
3763.89
3740.98
3718.07
3695.17
3672.29
3649.41
3626.52
3603.64
3580.73
3557.83
3534.91
3512
3489.1
3466.21
3443.32
3420.45
3397.57
3374.69
3351.81
3328.93
3306.04
3283.15
3260.25
3237.36
3214.47
3191.58
3168.69
3145.8
3122.9
3100.01
3077.12
3054.22
3031.33
3008.43
2985.53
2962.63
2939.73
2916.84
2893.94
2871.05
2848.17
2825.29
2802.41
2779.53
2756.64
2733.75
2710.84
2687.93
2665.01
2642.09
2619.18
2596.26
2573.36
2550.46
2527.57
2504.69
2481.81
2458.93
2436.05
2413.16
2390.26
2367.36
2344.45
2321.53
2298.62
2275.71
2252.81
2229.91
2207.02
2184.14
2161.27
2138.4
2115.54
2092.67
2069.8
2046.92
2024.03
2001.14
1978.24
1955.34
1932.44
1909.53
1886.61
1863.7
1840.79
1817.87
1794.96
1772.04
1749.13
1726.21
1703.3
1680.4
1657.49
1634.59
1611.69
1588.8
1565.91
1543.03
1520.16
1497.28
1474.42
1451.55
1428.68
1405.81
1382.93
1360.04
1337.14
1314.24
1291.33
1268.4
1245.47
1222.54
1199.6
1176.65
1153.71
1130.76
1107.81
1084.85
1061.9
1038.93
1015.97
993
970.028
947.054
924.075
901.094
878.107
855.116
832.119
809.116
786.109
763.096
740.079
717.058
694.035
671.011
647.986
624.964
601.944
578.929
555.918
532.913
509.913
486.917
463.925
440.938
417.956
394.978
372.004
349.035
326.071
303.112
280.159
257.212
234.274
211.347
188.432
165.531
142.651
119.799
96.9785
74.1076
51.0039
28.1487
8.7256
4999.99
4999.98
4999.98
4999.98
4999.98
4999.98
4999.98
4999.98
4999.98
4999.98
4999.97
4999.97
4999.97
4999.97
4999.97
4999.97
4999.97
4999.97
4999.96
4999.96
4999.96
4999.96
4999.96
4999.96
4999.96
4999.96
4999.96
4999.94
4999.77
4998.92
4995.61
4985.3
4965.14
4941.84
4919.16
4897.13
4875.35
4853.54
4831.66
4809.72
4787.72
4765.63
4743.44
4721.17
4698.82
4676.41
4653.95
4631.45
4608.9
4586.29
4563.65
4540.99
4518.31
4495.61
4472.89
4450.12
4427.33
4404.52
4381.69
4358.86
4336.03
4313.19
4290.35
4267.5
4244.64
4221.78
4198.91
4176.03
4153.16
4130.28
4107.4
4084.52
4061.63
4038.74
4015.84
3992.94
3970.03
3947.12
3924.22
3901.33
3878.43
3855.54
3832.64
3809.73
3786.81
3763.89
3740.98
3718.07
3695.17
3672.29
3649.4
3626.52
3603.62
3580.72
3557.82
3534.91
3512
3489.11
3466.22
3443.33
3420.45
3397.57
3374.69
3351.8
3328.91
3306.02
3283.13
3260.23
3237.34
3214.45
3191.56
3168.67
3145.78
3122.89
3100
3077.1
3054.21
3031.31
3008.41
2985.51
2962.62
2939.72
2916.83
2893.94
2871.05
2848.18
2825.3
2802.42
2779.54
2756.65
2733.75
2710.84
2687.93
2665.01
2642.09
2619.18
2596.27
2573.36
2550.47
2527.58
2504.7
2481.82
2458.94
2436.05
2413.16
2390.26
2367.35
2344.44
2321.52
2298.61
2275.7
2252.79
2229.9
2207.01
2184.14
2161.27
2138.4
2115.53
2092.66
2069.79
2046.91
2024.03
2001.13
1978.24
1955.34
1932.43
1909.52
1886.61
1863.7
1840.79
1817.87
1794.95
1772.04
1749.12
1726.21
1703.3
1680.39
1657.48
1634.58
1611.68
1588.79
1565.9
1543.02
1520.15
1497.28
1474.41
1451.55
1428.68
1405.81
1382.93
1360.04
1337.14
1314.24
1291.32
1268.4
1245.47
1222.53
1199.6
1176.66
1153.71
1130.76
1107.81
1084.86
1061.9
1038.94
1015.97
993.001
970.03
947.055
924.077
901.095
878.108
855.116
832.118
809.115
786.106
763.093
740.075
717.054
694.03
671.005
647.98
624.957
601.937
578.922
555.912
532.907
509.906
486.91
463.918
440.93
417.946
394.966
371.99
349.017
326.049
303.084
280.123
257.166
234.213
211.266
188.325
165.389
142.461
119.547
96.6474
73.6554
50.3559
27.3372
8.39945
4999.99
4999.98
4999.98
4999.98
4999.98
4999.98
4999.98
4999.98
4999.98
4999.97
4999.97
4999.97
4999.97
4999.97
4999.97
4999.97
4999.97
4999.97
4999.96
4999.96
4999.96
4999.96
4999.96
4999.96
4999.96
4999.96
4999.96
4999.95
4999.88
4999.47
4997.89
4991.93
4975.56
4952.48
4928.19
4904.58
4881.54
4858.68
4835.92
4813.25
4790.62
4768.01
4745.42
4722.83
4700.23
4677.61
4654.97
4632.32
4609.63
4586.93
4564.2
4541.46
4518.71
4495.94
4473.15
4450.35
4427.53
4404.7
4381.86
4359.02
4336.18
4313.32
4290.45
4267.58
4244.7
4221.83
4198.95
4176.07
4153.19
4130.31
4107.43
4084.54
4061.65
4038.75
4015.84
3992.94
3970.03
3947.13
3924.23
3901.34
3878.45
3855.55
3832.65
3809.74
3786.82
3763.9
3740.99
3718.08
3695.18
3672.28
3649.39
3626.5
3603.61
3580.71
3557.81
3534.91
3512.01
3489.12
3466.23
3443.34
3420.46
3397.57
3374.69
3351.8
3328.9
3306.01
3283.12
3260.23
3237.35
3214.46
3191.57
3168.68
3145.79
3122.9
3100.01
3077.11
3054.21
3031.31
3008.41
2985.51
2962.62
2939.72
2916.83
2893.94
2871.06
2848.18
2825.3
2802.42
2779.54
2756.65
2733.75
2710.84
2687.93
2665.01
2642.09
2619.18
2596.27
2573.37
2550.47
2527.58
2504.7
2481.82
2458.94
2436.05
2413.16
2390.26
2367.35
2344.44
2321.52
2298.61
2275.7
2252.79
2229.9
2207.02
2184.14
2161.27
2138.4
2115.54
2092.67
2069.79
2046.91
2024.03
2001.14
1978.24
1955.34
1932.44
1909.53
1886.62
1863.71
1840.79
1817.88
1794.96
1772.04
1749.13
1726.21
1703.3
1680.38
1657.48
1634.57
1611.68
1588.79
1565.9
1543.02
1520.15
1497.28
1474.42
1451.55
1428.69
1405.81
1382.93
1360.04
1337.15
1314.24
1291.32
1268.4
1245.47
1222.54
1199.6
1176.66
1153.72
1130.77
1107.82
1084.86
1061.9
1038.94
1015.97
993.006
970.034
947.06
924.082
901.099
878.111
855.118
832.119
809.114
786.104
763.09
740.071
717.049
694.024
670.998
647.973
624.95
601.93
578.915
555.905
532.899
509.897
486.899
463.905
440.915
417.928
394.944
371.963
348.985
326.01
303.036
280.064
257.092
234.122
211.153
188.185
165.214
142.243
119.278
96.3166
73.2392
49.8097
26.6957
8.13664
4999.99
4999.98
4999.98
4999.98
4999.98
4999.98
4999.98
4999.98
4999.98
4999.97
4999.97
4999.97
4999.97
4999.97
4999.97
4999.97
4999.97
4999.97
4999.96
4999.96
4999.96
4999.96
4999.96
4999.96
4999.96
4999.96
4999.95
4999.95
4999.89
4999.57
4998.33
4993.88
4980.43
4958.5
4934.08
4909.92
4886.28
4862.86
4839.58
4816.42
4793.34
4770.34
4747.41
4724.53
4701.69
4678.86
4656.04
4633.22
4610.4
4587.59
4564.78
4541.97
4519.15
4496.31
4473.47
4450.61
4427.76
4404.9
4382.05
4359.2
4336.33
4313.46
4290.58
4267.69
4244.8
4221.91
4199.03
4176.15
4153.26
4130.37
4107.48
4084.58
4061.67
4038.77
4015.86
3992.95
3970.04
3947.14
3924.25
3901.36
3878.46
3855.57
3832.66
3809.75
3786.83
3763.91
3740.99
3718.08
3695.18
3672.28
3649.39
3626.49
3603.6
3580.7
3557.81
3534.91
3512.02
3489.13
3466.23
3443.35
3420.46
3397.57
3374.67
3351.78
3328.89
3306
3283.11
3260.22
3237.33
3214.45
3191.56
3168.68
3145.79
3122.9
3100
3077.11
3054.21
3031.31
3008.41
2985.51
2962.61
2939.72
2916.83
2893.95
2871.07
2848.19
2825.31
2802.43
2779.55
2756.65
2733.75
2710.84
2687.93
2665.01
2642.09
2619.18
2596.27
2573.37
2550.48
2527.59
2504.71
2481.83
2458.95
2436.06
2413.16
2390.26
2367.35
2344.43
2321.51
2298.6
2275.69
2252.79
2229.9
2207.02
2184.14
2161.27
2138.4
2115.53
2092.66
2069.79
2046.91
2024.02
2001.13
1978.24
1955.34
1932.44
1909.53
1886.62
1863.71
1840.8
1817.88
1794.96
1772.04
1749.12
1726.21
1703.29
1680.38
1657.47
1634.57
1611.67
1588.78
1565.9
1543.02
1520.15
1497.28
1474.42
1451.55
1428.69
1405.81
1382.93
1360.04
1337.15
1314.24
1291.32
1268.4
1245.47
1222.54
1199.61
1176.67
1153.72
1130.77
1107.82
1084.87
1061.91
1038.94
1015.98
993.008
970.037
947.062
924.083
901.099
878.111
855.116
832.116
809.11
786.1
763.085
740.065
717.042
694.017
670.99
647.965
624.942
601.922
578.907
555.895
532.888
509.884
486.885
463.888
440.895
417.905
394.916
371.93
348.945
325.962
302.978
279.994
257.007
234.021
211.031
188.038
165.039
142.034
119.032
96.0281
72.8963
49.3884
26.222
7.93333
4999.99
4999.98
4999.98
4999.98
4999.98
4999.98
4999.98
4999.98
4999.98
4999.97
4999.97
4999.97
4999.97
4999.97
4999.97
4999.97
4999.97
4999.96
4999.96
4999.96
4999.96
4999.96
4999.96
4999.96
4999.96
4999.95
4999.95
4999.94
4999.87
4999.55
4998.36
4994.25
4982.24
4961.57
4937.5
4913.37
4889.6
4865.94
4842.38
4818.94
4795.6
4772.36
4749.19
4726.09
4703.04
4680.03
4657.04
4634.09
4611.17
4588.27
4565.38
4542.5
4519.62
4496.72
4473.82
4450.93
4428.03
4405.15
4382.26
4359.38
4336.49
4313.59
4290.68
4267.78
4244.89
4222
4199.11
4176.22
4153.32
4130.42
4107.51
4084.6
4061.69
4038.78
4015.88
3992.97
3970.07
3947.16
3924.26
3901.36
3878.47
3855.56
3832.66
3809.75
3786.83
3763.91
3740.99
3718.08
3695.17
3672.28
3649.38
3626.49
3603.6
3580.71
3557.82
3534.92
3512.03
3489.13
3466.24
3443.35
3420.46
3397.56
3374.67
3351.78
3328.88
3305.99
3283.1
3260.22
3237.33
3214.45
3191.56
3168.68
3145.79
3122.9
3100
3077.1
3054.2
3031.3
3008.4
2985.51
2962.61
2939.72
2916.84
2893.95
2871.07
2848.2
2825.32
2802.44
2779.55
2756.65
2733.75
2710.84
2687.93
2665.01
2642.09
2619.18
2596.28
2573.38
2550.49
2527.6
2504.72
2481.84
2458.95
2436.06
2413.16
2390.25
2367.34
2344.43
2321.51
2298.6
2275.69
2252.8
2229.9
2207.02
2184.14
2161.27
2138.4
2115.53
2092.66
2069.78
2046.91
2024.02
2001.13
1978.24
1955.34
1932.44
1909.54
1886.63
1863.72
1840.8
1817.88
1794.97
1772.05
1749.13
1726.21
1703.29
1680.38
1657.47
1634.56
1611.67
1588.78
1565.89
1543.02
1520.15
1497.28
1474.42
1451.55
1428.69
1405.81
1382.93
1360.04
1337.15
1314.24
1291.33
1268.4
1245.48
1222.55
1199.61
1176.67
1153.73
1130.78
1107.83
1084.87
1061.91
1038.95
1015.98
993.011
970.039
947.064
924.084
901.099
878.109
855.113
832.112
809.105
786.094
763.078
740.058
717.034
694.009
670.982
647.956
624.932
601.913
578.897
555.884
532.876
509.87
486.869
463.87
440.873
417.879
394.885
371.893
348.902
325.911
302.917
279.921
256.922
233.921
210.915
187.902
164.881
141.853
118.825
95.7959
72.6334
49.082
25.8892
7.7822
4999.99
4999.98
4999.98
4999.98
4999.98
4999.98
4999.98
4999.98
4999.98
4999.97
4999.97
4999.97
4999.97
4999.97
4999.97
4999.97
4999.97
4999.96
4999.96
4999.96
4999.96
4999.96
4999.96
4999.96
4999.96
4999.95
4999.95
4999.94
4999.86
4999.53
4998.33
4994.29
4983.03
4963.09
4939.41
4915.49
4891.78
4868.09
4844.43
4820.85
4797.37
4773.98
4750.67
4727.42
4704.23
4681.09
4657.99
4634.95
4611.94
4588.97
4566
4543.04
4520.07
4497.11
4474.15
4451.21
4428.28
4405.37
4382.46
4359.56
4336.65
4313.74
4290.82
4267.91
4245
4222.1
4199.2
4176.29
4153.38
4130.46
4107.54
4084.62
4061.72
4038.81
4015.91
3993
3970.09
3947.19
3924.28
3901.37
3878.47
3855.57
3832.66
3809.76
3786.84
3763.92
3741.01
3718.09
3695.18
3672.28
3649.39
3626.5
3603.61
3580.72
3557.83
3534.93
3512.04
3489.14
3466.24
3443.34
3420.45
3397.56
3374.66
3351.77
3328.88
3305.99
3283.1
3260.21
3237.33
3214.44
3191.56
3168.67
3145.78
3122.89
3099.99
3077.1
3054.2
3031.3
3008.4
2985.51
2962.62
2939.73
2916.84
2893.96
2871.08
2848.2
2825.32
2802.44
2779.55
2756.65
2733.75
2710.84
2687.93
2665.01
2642.1
2619.19
2596.28
2573.39
2550.5
2527.61
2504.73
2481.84
2458.95
2436.06
2413.16
2390.25
2367.34
2344.43
2321.51
2298.6
2275.7
2252.8
2229.91
2207.02
2184.14
2161.27
2138.4
2115.53
2092.65
2069.78
2046.9
2024.02
2001.13
1978.24
1955.34
1932.44
1909.54
1886.63
1863.72
1840.81
1817.89
1794.97
1772.05
1749.13
1726.21
1703.29
1680.37
1657.46
1634.56
1611.66
1588.77
1565.89
1543.02
1520.15
1497.28
1474.42
1451.55
1428.69
1405.81
1382.93
1360.04
1337.14
1314.24
1291.32
1268.4
1245.48
1222.55
1199.61
1176.68
1153.73
1130.78
1107.83
1084.87
1061.91
1038.95
1015.98
993.012
970.04
947.064
924.083
901.097
878.106
855.109
832.107
809.099
786.087
763.071
740.05
717.026
694
670.973
647.947
624.924
601.904
578.887
555.874
532.864
509.857
486.853
463.852
440.852
417.853
394.855
371.857
348.86
325.862
302.86
279.854
256.845
233.832
210.813
187.786
164.749
141.706
118.663
95.6187
72.4412
48.8682
25.6639
7.67429
4999.99
4999.98
4999.98
4999.98
4999.98
4999.98
4999.98
4999.98
4999.97
4999.97
4999.97
4999.97
4999.97
4999.97
4999.97
4999.97
4999.97
4999.96
4999.96
4999.96
4999.96
4999.96
4999.96
4999.96
4999.95
4999.95
4999.95
4999.94
4999.86
4999.52
4998.32
4994.31
4983.4
4963.83
4940.48
4916.77
4893.17
4869.53
4845.88
4822.27
4798.72
4775.24
4751.83
4728.49
4705.2
4681.97
4658.79
4635.66
4612.58
4589.53
4566.49
4543.47
4520.45
4497.44
4474.45
4451.47
4428.52
4405.58
4382.65
4359.73
4336.8
4313.86
4290.93
4268
4245.08
4222.17
4199.26
4176.34
4153.42
4130.51
4107.59
4084.67
4061.76
4038.85
4015.95
3993.03
3970.12
3947.2
3924.29
3901.38
3878.48
3855.57
3832.67
3809.76
3786.84
3763.92
3741.01
3718.09
3695.19
3672.29
3649.41
3626.52
3603.63
3580.74
3557.84
3534.94
3512.04
3489.14
3466.24
3443.35
3420.45
3397.56
3374.67
3351.77
3328.88
3305.99
3283.1
3260.21
3237.32
3214.44
3191.55
3168.66
3145.77
3122.88
3099.99
3077.09
3054.19
3031.3
3008.4
2985.51
2962.62
2939.73
2916.85
2893.97
2871.08
2848.2
2825.32
2802.44
2779.55
2756.65
2733.75
2710.84
2687.93
2665.01
2642.1
2619.19
2596.29
2573.4
2550.5
2527.62
2504.73
2481.84
2458.95
2436.06
2413.16
2390.25
2367.34
2344.43
2321.52
2298.61
2275.7
2252.8
2229.91
2207.02
2184.14
2161.27
2138.39
2115.52
2092.65
2069.77
2046.9
2024.01
2001.13
1978.24
1955.34
1932.45
1909.54
1886.64
1863.72
1840.81
1817.89
1794.97
1772.05
1749.13
1726.21
1703.29
1680.37
1657.46
1634.56
1611.66
1588.77
1565.89
1543.02
1520.15
1497.28
1474.42
1451.55
1428.68
1405.81
1382.93
1360.04
1337.14
1314.24
1291.32
1268.41
1245.48
1222.55
1199.62
1176.68
1153.74
1130.79
1107.83
1084.88
1061.92
1038.95
1015.98
993.013
970.04
947.063
924.081
901.095
878.102
855.104
832.1
809.092
786.079
763.062
740.042
717.017
693.991
670.964
647.939
624.916
601.896
578.879
555.865
532.853
509.845
486.84
463.836
440.833
417.83
394.827
371.825
348.824
325.819
302.811
279.797
256.78
233.759
210.73
187.692
164.645
141.592
118.54
95.4888
72.3052
48.7232
25.5158
7.59991
4999.99
4999.98
4999.98
4999.98
4999.98
4999.98
4999.98
4999.98
4999.97
4999.97
4999.97
4999.97
4999.97
4999.97
4999.97
4999.97
4999.96
4999.96
4999.96
4999.96
4999.96
4999.96
4999.96
4999.96
4999.95
4999.95
4999.95
4999.94
4999.85
4999.51
4998.32
4994.36
4983.59
4964.23
4941.1
4917.56
4894.06
4870.49
4846.87
4823.26
4799.69
4776.17
4752.7
4729.29
4705.95
4682.66
4659.42
4636.23
4613.08
4589.97
4566.88
4543.82
4520.78
4497.74
4474.72
4451.72
4428.73
4405.75
4382.8
4359.85
4336.9
4313.96
4291.02
4268.08
4245.16
4222.24
4199.32
4176.4
4153.48
4130.55
4107.62
4084.7
4061.78
4038.87
4015.96
3993.04
3970.12
3947.21
3924.29
3901.39
3878.48
3855.58
3832.68
3809.77
3786.85
3763.93
3741.02
3718.11
3695.21
3672.32
3649.43
3626.54
3603.64
3580.75
3557.84
3534.94
3512.04
3489.14
3466.24
3443.35
3420.46
3397.56
3374.67
3351.77
3328.88
3305.98
3283.09
3260.2
3237.31
3214.43
3191.54
3168.65
3145.76
3122.87
3099.98
3077.08
3054.19
3031.3
3008.4
2985.51
2962.62
2939.74
2916.85
2893.97
2871.09
2848.21
2825.32
2802.43
2779.54
2756.64
2733.74
2710.83
2687.92
2665.01
2642.1
2619.2
2596.3
2573.4
2550.51
2527.62
2504.73
2481.85
2458.95
2436.06
2413.16
2390.25
2367.34
2344.43
2321.52
2298.61
2275.71
2252.81
2229.91
2207.03
2184.14
2161.27
2138.39
2115.52
2092.65
2069.77
2046.89
2024.01
2001.13
1978.24
1955.34
1932.45
1909.54
1886.64
1863.73
1840.81
1817.89
1794.97
1772.05
1749.13
1726.21
1703.29
1680.37
1657.46
1634.56
1611.66
1588.77
1565.89
1543.02
1520.15
1497.28
1474.42
1451.55
1428.68
1405.81
1382.93
1360.04
1337.14
1314.24
1291.32
1268.41
1245.48
1222.55
1199.62
1176.68
1153.74
1130.79
1107.84
1084.88
1061.92
1038.95
1015.98
993.013
970.039
947.062
924.079
901.091
878.097
855.097
832.092
809.083
786.07
763.054
740.033
717.009
693.983
670.957
647.932
624.91
601.89
578.873
555.858
532.846
509.836
486.829
463.823
440.817
417.811
394.805
371.8
348.795
325.786
302.772
279.753
256.729
233.701
210.665
187.621
164.567
141.509
118.452
95.3981
72.213
48.6283
25.4214
7.55081
4999.99
4999.98
4999.98
4999.98
4999.98
4999.98
4999.98
4999.98
4999.97
4999.97
4999.97
4999.97
4999.97
4999.97
4999.97
4999.97
4999.96
4999.96
4999.96
4999.96
4999.96
4999.96
4999.96
4999.96
4999.95
4999.95
4999.95
4999.94
4999.85
4999.51
4998.33
4994.4
4983.72
4964.48
4941.48
4918.06
4894.64
4871.12
4847.52
4823.92
4800.33
4776.79
4753.3
4729.87
4706.5
4683.18
4659.9
4636.67
4613.48
4590.32
4567.19
4544.1
4521.02
4497.97
4474.93
4451.9
4428.89
4405.9
4382.93
4359.97
4337.01
4314.05
4291.09
4268.15
4245.21
4222.29
4199.36
4176.44
4153.52
4130.59
4107.66
4084.73
4061.81
4038.89
4015.98
3993.06
3970.14
3947.23
3924.31
3901.4
3878.49
3855.59
3832.68
3809.77
3786.85
3763.94
3741.03
3718.12
3695.23
3672.33
3649.44
3626.55
3603.65
3580.75
3557.84
3534.94
3512.03
3489.14
3466.24
3443.35
3420.46
3397.57
3374.67
3351.78
3328.88
3305.98
3283.09
3260.2
3237.31
3214.42
3191.54
3168.65
3145.76
3122.87
3099.98
3077.08
3054.19
3031.3
3008.4
2985.51
2962.63
2939.74
2916.85
2893.97
2871.09
2848.2
2825.32
2802.43
2779.54
2756.64
2733.74
2710.83
2687.92
2665.01
2642.11
2619.2
2596.3
2573.41
2550.52
2527.63
2504.74
2481.85
2458.95
2436.06
2413.16
2390.25
2367.34
2344.43
2321.52
2298.61
2275.71
2252.81
2229.92
2207.03
2184.14
2161.27
2138.39
2115.52
2092.64
2069.77
2046.89
2024.01
2001.12
1978.24
1955.34
1932.45
1909.54
1886.64
1863.73
1840.81
1817.89
1794.97
1772.05
1749.13
1726.21
1703.29
1680.37
1657.46
1634.56
1611.67
1588.78
1565.9
1543.02
1520.15
1497.29
1474.42
1451.55
1428.68
1405.81
1382.93
1360.04
1337.14
1314.24
1291.32
1268.41
1245.48
1222.55
1199.62
1176.68
1153.74
1130.79
1107.84
1084.88
1061.92
1038.95
1015.98
993.013
970.038
947.06
924.076
901.086
878.09
855.09
832.084
809.075
786.062
763.046
740.025
717.002
693.977
670.951
647.927
624.906
601.886
578.869
555.854
532.841
509.83
486.822
463.814
440.807
417.798
394.791
371.783
348.775
325.763
302.744
279.721
256.692
233.66
210.62
187.571
164.514
141.452
118.393
95.3383
72.1534
48.569
25.3639
7.52026
4999.99
4999.98
4999.98
4999.98
4999.98
4999.98
4999.98
4999.98
4999.97
4999.97
4999.97
4999.97
4999.97
4999.97
4999.97
4999.97
4999.96
4999.96
4999.96
4999.96
4999.96
4999.96
4999.96
4999.96
4999.95
4999.95
4999.95
4999.94
4999.85
4999.52
4998.34
4994.43
4983.83
4964.68
4941.76
4918.39
4895.02
4871.53
4847.94
4824.34
4800.74
4777.19
4753.69
4730.25
4706.86
4683.51
4660.2
4636.93
4613.7
4590.52
4567.38
4544.28
4521.2
4498.13
4475.07
4452.02
4428.99
4405.98
4382.99
4360.01
4337.05
4314.09
4291.14
4268.2
4245.26
4222.33
4199.41
4176.48
4153.55
4130.61
4107.67
4084.74
4061.81
4038.89
4015.97
3993.06
3970.15
3947.23
3924.32
3901.42
3878.51
3855.6
3832.69
3809.78
3786.86
3763.95
3741.04
3718.14
3695.24
3672.35
3649.45
3626.56
3603.65
3580.75
3557.84
3534.93
3512.03
3489.14
3466.25
3443.36
3420.46
3397.57
3374.68
3351.78
3328.88
3305.98
3283.09
3260.2
3237.31
3214.42
3191.53
3168.64
3145.76
3122.87
3099.97
3077.08
3054.19
3031.3
3008.41
2985.52
2962.63
2939.74
2916.86
2893.97
2871.09
2848.2
2825.32
2802.43
2779.53
2756.63
2733.73
2710.83
2687.92
2665.01
2642.11
2619.2
2596.31
2573.41
2550.52
2527.63
2504.74
2481.85
2458.95
2436.06
2413.16
2390.25
2367.35
2344.44
2321.53
2298.62
2275.71
2252.81
2229.92
2207.03
2184.15
2161.27
2138.39
2115.52
2092.64
2069.77
2046.89
2024.01
2001.12
1978.23
1955.34
1932.44
1909.54
1886.64
1863.72
1840.81
1817.89
1794.97
1772.05
1749.13
1726.21
1703.29
1680.38
1657.47
1634.57
1611.67
1588.78
1565.9
1543.03
1520.16
1497.29
1474.42
1451.55
1428.68
1405.81
1382.92
1360.03
1337.14
1314.23
1291.32
1268.41
1245.48
1222.55
1199.62
1176.68
1153.74
1130.79
1107.84
1084.88
1061.92
1038.95
1015.98
993.012
970.037
947.057
924.072
901.081
878.084
855.082
832.076
809.066
786.054
763.038
740.019
716.996
693.972
670.948
647.925
624.905
601.885
578.868
555.852
532.838
509.828
486.819
463.811
440.803
417.793
394.784
371.775
348.765
325.75
302.729
279.702
256.671
233.636
210.593
187.542
164.483
141.419
118.359
95.3041
72.1201
48.5365
25.3329
7.50378
4999.99
4999.98
4999.98
4999.98
4999.98
4999.98
4999.98
4999.98
4999.97
4999.97
4999.97
4999.97
4999.97
4999.97
4999.97
4999.97
4999.96
4999.96
4999.96
4999.96
4999.96
4999.96
4999.96
4999.96
4999.95
4999.95
4999.95
4999.94
4999.85
4999.52
4998.34
4994.45
4983.92
4964.86
4941.97
4918.61
4895.23
4871.74
4848.16
4824.55
4800.96
4777.4
4753.88
4730.41
4707
4683.63
4660.31
4637.04
4613.82
4590.63
4567.49
4544.37
4521.27
4498.19
4475.12
4452.06
4429.04
4406.03
4383.05
4360.08
4337.11
4314.14
4291.17
4268.22
4245.27
4222.34
4199.41
4176.48
4153.54
4130.61
4107.68
4084.75
4061.82
4038.91
4015.99
3993.08
3970.17
3947.25
3924.34
3901.43
3878.52
3855.6
3832.69
3809.78
3786.87
3763.96
3741.05
3718.15
3695.25
3672.35
3649.45
3626.55
3603.65
3580.74
3557.84
3534.93
3512.04
3489.14
3466.25
3443.36
3420.47
3397.57
3374.68
3351.78
3328.88
3305.98
3283.09
3260.2
3237.31
3214.42
3191.53
3168.64
3145.75
3122.86
3099.97
3077.08
3054.19
3031.3
3008.41
2985.52
2962.63
2939.74
2916.86
2893.97
2871.09
2848.2
2825.31
2802.42
2779.53
2756.63
2733.73
2710.82
2687.92
2665.01
2642.11
2619.2
2596.31
2573.41
2550.52
2527.63
2504.74
2481.85
2458.95
2436.06
2413.16
2390.25
2367.35
2344.44
2321.53
2298.62
2275.72
2252.82
2229.92
2207.04
2184.15
2161.27
2138.39
2115.52
2092.64
2069.77
2046.89
2024.01
2001.12
1978.23
1955.34
1932.44
1909.54
1886.63
1863.72
1840.81
1817.89
1794.97
1772.05
1749.13
1726.21
1703.29
1680.38
1657.48
1634.57
1611.68
1588.79
1565.91
1543.03
1520.16
1497.29
1474.42
1451.55
1428.68
1405.8
1382.92
1360.03
1337.14
1314.23
1291.32
1268.4
1245.48
1222.55
1199.62
1176.68
1153.74
1130.79
1107.83
1084.88
1061.91
1038.95
1015.98
993.011
970.036
947.055
924.068
901.076
878.078
855.075
832.069
809.059
786.047
763.033
740.014
716.993
693.97
670.947
647.925
624.905
601.887
578.869
555.854
532.84
509.83
486.822
463.814
440.805
417.795
394.785
371.776
348.764
325.748
302.725
279.697
256.665
233.629
210.585
187.533
164.473
141.408
118.347
95.2924
72.1091
48.5261
25.3233
7.49866
4999.99
4999.98
4999.98
4999.98
4999.98
4999.98
4999.98
4999.97
4999.97
4999.97
4999.97
4999.97
4999.97
4999.97
4999.97
4999.97
4999.96
4999.96
4999.96
4999.96
4999.96
4999.96
4999.96
4999.96
4999.95
4999.95
4999.95
4999.94
4999.85
4999.52
4998.33
4994.45
4984.01
4965.04
4942.13
4918.72
4895.31
4871.78
4848.17
4824.55
4800.94
4777.37
4753.84
4730.37
4706.95
4683.59
4660.28
4637.02
4613.79
4590.59
4567.45
4544.33
4521.25
4498.18
4475.12
4452.07
4429.04
4406.02
4383.03
4360.06
4337.09
4314.12
4291.16
4268.21
4245.27
4222.34
4199.41
4176.48
4153.54
4130.6
4107.67
4084.73
4061.81
4038.9
4015.99
3993.08
3970.17
3947.26
3924.35
3901.43
3878.52
3855.61
3832.69
3809.78
3786.87
3763.96
3741.06
3718.16
3695.26
3672.36
3649.45
3626.55
3603.65
3580.74
3557.83
3534.93
3512.04
3489.14
3466.25
3443.36
3420.47
3397.57
3374.68
3351.78
3328.88
3305.98
3283.09
3260.2
3237.31
3214.42
3191.53
3168.65
3145.76
3122.86
3099.97
3077.08
3054.19
3031.3
3008.41
2985.52
2962.63
2939.74
2916.86
2893.97
2871.08
2848.2
2825.31
2802.41
2779.52
2756.62
2733.72
2710.82
2687.91
2665.01
2642.1
2619.2
2596.31
2573.41
2550.52
2527.63
2504.74
2481.84
2458.95
2436.06
2413.16
2390.25
2367.35
2344.44
2321.53
2298.63
2275.72
2252.82
2229.93
2207.04
2184.16
2161.28
2138.4
2115.52
2092.65
2069.77
2046.89
2024
2001.12
1978.23
1955.33
1932.44
1909.53
1886.63
1863.72
1840.8
1817.89
1794.97
1772.05
1749.13
1726.21
1703.3
1680.39
1657.48
1634.58
1611.69
1588.8
1565.91
1543.04
1520.16
1497.29
1474.42
1451.55
1428.68
1405.8
1382.92
1360.03
1337.13
1314.23
1291.32
1268.4
1245.48
1222.55
1199.61
1176.67
1153.73
1130.78
1107.83
1084.87
1061.91
1038.95
1015.98
993.01
970.034
947.052
924.064
901.07
878.071
855.068
832.062
809.053
786.042
763.028
740.011
716.991
693.97
670.948
647.927
624.908
601.89
578.873
555.859
532.846
509.838
486.831
463.824
440.815
417.805
394.794
371.784
348.773
325.757
302.735
279.707
256.676
233.639
210.595
187.543
164.483
141.418
118.358
95.3031
72.1196
48.5362
25.3329
7.50371
4999.99
4999.98
4999.98
4999.98
4999.98
4999.98
4999.98
4999.97
4999.97
4999.97
4999.97
4999.97
4999.97
4999.97
4999.97
4999.97
4999.96
4999.96
4999.96
4999.96
4999.96
4999.96
4999.96
4999.95
4999.95
4999.95
4999.95
4999.94
4999.86
4999.52
4998.32
4994.43
4984.08
4965.19
4942.21
4918.69
4895.21
4871.63
4847.98
4824.33
4800.7
4777.13
4753.6
4730.13
4706.72
4683.37
4660.07
4636.83
4613.62
4590.46
4567.32
4544.21
4521.13
4498.06
4475.01
4451.98
4428.97
4405.98
4383.01
4360.03
4337.06
4314.09
4291.12
4268.17
4245.23
4222.3
4199.38
4176.45
4153.52
4130.59
4107.67
4084.74
4061.82
4038.91
4016
3993.09
3970.18
3947.26
3924.35
3901.43
3878.52
3855.6
3832.69
3809.78
3786.87
3763.96
3741.05
3718.15
3695.25
3672.35
3649.45
3626.55
3603.64
3580.74
3557.83
3534.93
3512.03
3489.14
3466.25
3443.36
3420.46
3397.57
3374.67
3351.78
3328.88
3305.99
3283.1
3260.21
3237.32
3214.43
3191.54
3168.65
3145.76
3122.86
3099.97
3077.08
3054.19
3031.3
3008.41
2985.52
2962.63
2939.75
2916.86
2893.97
2871.08
2848.19
2825.3
2802.41
2779.51
2756.61
2733.71
2710.81
2687.91
2665
2642.1
2619.2
2596.3
2573.41
2550.51
2527.62
2504.73
2481.84
2458.95
2436.05
2413.16
2390.25
2367.35
2344.44
2321.54
2298.63
2275.73
2252.83
2229.94
2207.05
2184.17
2161.28
2138.41
2115.53
2092.65
2069.77
2046.89
2024
2001.12
1978.22
1955.33
1932.43
1909.53
1886.62
1863.71
1840.8
1817.88
1794.97
1772.05
1749.13
1726.22
1703.31
1680.4
1657.49
1634.59
1611.7
1588.81
1565.92