/*--------------------------------*- C++ -*----------------------------------*\
| =========                 |                                                 |
| \\      /  F ield         | OpenFOAM: The Open Source CFD Toolbox           |
|  \\    /   O peration     | Version:  2406                                  |
|   \\  /    A nd           | Website:  www.openfoam.com                      |
|    \\/     M anipulation  |                                                 |
\*---------------------------------------------------------------------------*/
FoamFile
{
    version     2.0;
    format      ascii;
    arch        "LSB;label=32;scalar=64";
    class       surfaceScalarField;
    location    "0.05";
    object      phi;
}
// * * * * * * * * * * * * * * * * * * * * * * * * * * * * * * * * * * * * * //

dimensions      [0 3 -1 0 0 0 0];

oriented        oriented;

internalField   nonuniform List<scalar> 
12225
(
0.0789768
1.79037e-06
0.0789707
6.156e-06
0.0789677
2.93436e-06
0.0789693
-1.547e-06
0.0789704
-1.1487e-06
0.0789712
-7.38261e-07
0.0789723
-1.13745e-06
0.0789735
-1.23003e-06
0.0789723
1.198e-06
0.0789708
1.49847e-06
0.0789706
2.05241e-07
0.0789712
-5.93713e-07
0.0789719
-6.85287e-07
0.0789732
-1.32238e-06
0.0789746
-1.34108e-06
0.0789751
-5.64079e-07
0.0789754
-3.13333e-07
0.0789752
2.1514e-07
0.0789738
1.40713e-06
0.0789726
1.17763e-06
0.0789718
8.43595e-07
0.0789705
1.31717e-06
0.0789676
2.88426e-06
0.0789647
2.90102e-06
0.0789652
-4.55744e-07
0.0789685
-3.31137e-06
0.0789707
-2.29997e-06
0.0789713
-5.61743e-07
0.0789723
-9.93019e-07
0.0789735
-1.21704e-06
0.0789729
6.66564e-07
0.0789711
1.7866e-06
0.0789698
1.31145e-06
0.0789698
1.15098e-08
0.0789708
-1.02478e-06
0.0789715
-7.60614e-07
0.0789717
-2.00825e-07
0.0789718
-3.40005e-08
0.0789714
4.07655e-07
0.0789709
5.08514e-07
0.0789708
2.33758e-09
0.0789715
-6.58306e-07
0.0789721
-6.02862e-07
0.078972
8.89504e-08
0.0789713
6.85163e-07
0.0789708
5.41212e-07
0.0789706
2.2644e-07
0.0789705
1.0001e-07
0.0789704
6.76759e-08
0.0789711
-6.99865e-07
0.0789724
-1.30018e-06
0.0789733
-8.73294e-07
0.078973
2.89257e-07
0.0789716
1.38278e-06
0.0789706
9.81329e-07
0.0789708
-1.59173e-07
0.0789717
-8.82975e-07
0.078972
-3.04513e-07
0.0789714
6.02674e-07
0.0789708
5.76878e-07
0.0789707
6.89738e-08
0.0789711
-3.2516e-07
0.078971
4.47567e-08
0.0789707
2.76548e-07
0.0789705
2.28263e-07
0.0789707
-2.26263e-07
0.0789712
-4.9508e-07
0.0789717
-4.83988e-07
0.0789717
1.49231e-08
0.0789714
3.05612e-07
0.0789711
3.25594e-07
0.0789712
-9.89115e-08
0.0789714
-2.48387e-07
0.0789714
5.28941e-08
0.0789711
2.68238e-07
0.078971
9.29429e-08
0.0789714
-4.52805e-07
0.078972
-5.35135e-07
0.0789721
-1.53316e-07
0.0789716
4.91505e-07
0.0789711
5.57433e-07
0.078971
1.3227e-07
0.0789715
-5.60499e-07
0.0789723
-7.7658e-07
0.0789726
-3.14955e-07
0.0789722
4.42611e-07
0.0789714
7.4969e-07
0.0789711
3.38976e-07
0.0789715
-4.35671e-07
0.0789723
-8.39009e-07
0.0789728
-4.54333e-07
0.0789726
2.1374e-07
0.0789721
5.26074e-07
0.0789717
3.25441e-07
0.0789717
-1.31498e-10
0.078972
-2.38713e-07
0.0789722
-1.97787e-07
0.0789723
-9.36712e-08
0.0789722
2.35201e-08
0.0789721
1.67492e-07
0.0789718
2.71363e-07
0.0789715
3.11899e-07
0.0789713
2.15352e-07
0.0789713
1.90135e-08
0.0789714
-1.71839e-07
0.0789717
-2.61924e-07
0.0789719
-2.56644e-07
0.0789721
-1.07975e-07
0.0789719
1.54942e-07
0.0789715
3.68779e-07
0.0789712
2.94259e-07
0.0789713
-8.35535e-08
0.0789718
-4.85464e-07
0.0789723
-4.82941e-07
0.0789723
6.38149e-09
0.0789716
7.13064e-07
0.0789706
9.24395e-07
0.0789701
5.05022e-07
0.0789704
-2.10522e-07
0.0789711
-7.48168e-07
0.0789719
-7.66831e-07
0.0789722
-3.21864e-07
0.078972
2.27181e-07
0.0789714
5.59473e-07
0.0789709
4.8494e-07
0.0789707
2.30592e-07
0.0789708
-6.13961e-08
0.0789709
-1.27408e-07
0.0789709
-5.79214e-08
0.0789709
7.60747e-08
0.0789708
7.92707e-09
0.0789711
-2.15081e-07
0.0789715
-4.19666e-07
0.0789718
-3.17845e-07
0.0789717
1.04887e-07
0.0789712
5.46766e-07
0.0789705
6.39624e-07
0.0789702
3.23266e-07
0.0789705
-3.58469e-07
0.0789714
-8.28107e-07
0.078972
-6.63111e-07
0.0789719
1.62454e-07
0.078971
8.36925e-07
0.0789701
9.34782e-07
0.0789696
5.45362e-07
0.0789697
-1.64118e-07
0.0789705
-7.66881e-07
0.0789716
-1.09682e-06
0.0789727
-1.14292e-06
0.0789734
-7.16235e-07
0.0789734
7.0407e-08
0.0789724
9.35042e-07
0.078971
1.48477e-06
0.0789694
1.53488e-06
0.0789685
9.10998e-07
0.0789688
-3.29306e-07
0.0789704
-1.60864e-06
0.0789726
-2.13665e-06
0.0789741
-1.52822e-06
0.0789742
-1.32909e-07
0.078973
1.19391e-06
0.0789714
1.6811e-06
0.07897
1.32785e-06
0.0789694
6.46022e-07
0.0789694
-4.78522e-08
0.0789701
-6.96025e-07
0.0789713
-1.18617e-06
0.0789727
-1.39812e-06
0.0789739
-1.13492e-06
0.0789742
-3.3764e-07
0.0789735
7.31658e-07
0.078972
1.45857e-06
0.0789705
1.47319e-06
0.0789696
8.92832e-07
0.0789696
3.37191e-08
0.0789704
-8.17853e-07
0.0789717
-1.29661e-06
0.0789729
-1.21779e-06
0.0789736
-6.87689e-07
0.0789736
7.08105e-09
0.078973
6.18783e-07
0.0789721
9.2913e-07
0.0789712
9.16349e-07
0.0789704
7.41749e-07
0.07897
4.3716e-07
0.0789699
5.01456e-08
0.0789703
-3.91695e-07
0.0789711
-7.40832e-07
0.0789719
-8.08063e-07
0.0789724
-4.88427e-07
0.0789723
7.31243e-08
0.0789717
5.58042e-07
0.078971
7.20179e-07
0.0789704
5.59322e-07
0.0789702
2.43848e-07
0.0789703
-6.13216e-08
0.0789705
-2.85781e-07
0.078971
-4.48674e-07
0.0789716
-5.86926e-07
0.0789723
-6.9696e-07
0.0789728
-5.50748e-07
0.0789729
-5.6839e-08
0.0789723
5.50142e-07
0.0789714
9.13951e-07
0.0789705
8.76344e-07
0.07897
5.47852e-07
0.0789699
1.27877e-07
0.0789701
-2.54395e-07
0.0789706
-4.8221e-07
0.0789712
-5.53807e-07
0.0789717
-5.59556e-07
0.0789723
-5.65904e-07
0.0789728
-5.24287e-07
0.0789731
-3.24122e-07
0.0789731
5.31707e-08
0.0789726
4.79787e-07
0.0789719
7.43925e-07
0.0789711
7.63038e-07
0.0789705
5.95076e-07
0.0789701
3.54793e-07
0.0789701
7.43469e-08
0.0789703
-2.08288e-07
0.0789708
-4.86912e-07
0.0789715
-7.23274e-07
0.0789724
-8.67108e-07
0.0789733
-8.95741e-07
0.0789739
-6.90786e-07
0.0789742
-2.25219e-07
0.0789739
2.9264e-07
0.0789733
6.14088e-07
0.0789726
7.15171e-07
0.0789718
7.57337e-07
0.078971
7.59742e-07
0.0789703
7.24081e-07
0.0789697
6.0823e-07
0.0789694
3.42856e-07
0.0789693
1.52176e-08
0.0789697
-3.82576e-07
0.0789705
-7.36439e-07
0.0789714
-9.85833e-07
0.0789726
-1.11134e-06
0.0789737
-1.11336e-06
0.0789747
-1.00787e-06
0.0789755
-8.40397e-07
0.0789761
-5.99698e-07
0.0789763
-2.354e-07
0.0789761
2.15425e-07
0.0789756
4.90531e-07
0.0789751
5.63674e-07
3.67053e-07
0.0789824
2.19503e-06
0.0789858
2.76233e-06
0.0789861
2.69157e-06
0.0789828
1.72805e-06
0.0789812
4.05005e-07
0.0789806
-1.31764e-07
0.0789779
1.55981e-06
0.0789769
-1.23382e-07
0.0789796
-1.61308e-06
0.0789823
-1.12168e-06
0.0789824
1.35065e-07
0.0789818
-6.73062e-09
0.0789802
9.2534e-07
0.0789777
1.11414e-06
0.0789759
4.74247e-07
0.0789755
-1.03093e-07
0.0789761
-9.72682e-07
0.0789776
-1.28565e-06
0.0789794
-3.76528e-07
0.0789808
-2.0618e-07
0.0789824
-7.44561e-07
0.0789848
-1.14059e-06
0.0789886
-8.85566e-07
0.0789908
6.44061e-07
0.0789881
2.23629e-06
0.0789829
1.93151e-06
0.0789805
1.27425e-07
0.0789805
-5.36493e-07
0.0789787
7.59928e-07
0.0789775
3.83005e-08
0.0789794
-1.27116e-06
0.0789824
-1.18568e-06
0.0789843
-5.85981e-07
0.0789841
1.82609e-07
0.0789823
7.23325e-07
0.078981
5.89434e-07
0.0789804
3.69191e-07
0.0789802
2.37695e-07
0.0789806
-1.35692e-08
0.0789811
-1.79228e-08
0.0789809
1.75321e-07
0.0789804
-1.47583e-07
0.0789804
-6.19697e-07
0.0789808
-3.24914e-07
0.0789812
2.97031e-07
0.0789817
2.68063e-08
0.0789825
-5.79293e-07
0.0789832
-5.3593e-07
0.0789829
3.38745e-07
0.0789814
8.44778e-07
0.0789796
4.98174e-07
0.0789791
-3.8081e-07
0.0789803
-9.4412e-07
0.0789824
-6.86326e-07
0.0789834
-8.3238e-08
0.0789829
3.69292e-07
0.0789815
5.8458e-07
0.0789803
8.45478e-07
0.0789801
8.19368e-07
0.0789805
1.61709e-07
0.0789812
-6.60385e-07
0.0789817
-8.38218e-07
0.0789819
-1.31759e-07
0.0789816
6.08095e-07
0.0789811
6.9912e-07
0.0789807
1.87437e-07
0.0789807
-4.44791e-07
0.0789809
-7.61926e-07
0.0789814
-4.70743e-07
0.0789815
2.01761e-07
0.0789812
6.42724e-07
0.0789807
3.72644e-07
0.0789806
-1.4908e-07
0.0789809
-1.80399e-07
0.0789809
2.49685e-07
0.0789807
3.10541e-07
0.0789806
-3.61699e-07
0.078981
-9.93289e-07
0.0789817
-7.75507e-07
0.078982
1.26401e-07
0.0789819
6.95627e-07
0.0789816
4.07404e-07
0.0789813
-2.42125e-07
0.078981
-5.27308e-07
0.078981
-2.45641e-07
0.0789813
1.74641e-07
0.0789817
2.65008e-07
0.0789821
-3.82974e-08
0.078982
-3.01901e-07
0.0789814
-2.56148e-07
0.0789808
1.05934e-07
0.0789807
3.38218e-07
0.0789811
1.14514e-07
0.0789819
-4.06309e-07
0.0789825
-6.36435e-07
0.0789826
-3.07518e-07
0.0789821
2.99384e-07
0.0789814
5.92849e-07
0.078981
3.86631e-07
0.0789812
-4.00929e-08
0.0789817
-2.10659e-07
0.078982
-2.70174e-08
0.0789821
1.97181e-07
0.0789819
1.96599e-07
0.0789817
1.23378e-08
0.0789815
-1.1553e-07
0.0789814
-7.71821e-08
0.0789812
1.27687e-08
0.0789814
2.25252e-08
0.0789818
-1.67416e-08
0.078982
4.42248e-08
0.0789817
2.0289e-07
0.0789808
3.95659e-07
0.0789799
4.84399e-07
0.0789795
4.3208e-07
0.0789798
3.71199e-07
0.0789806
1.46165e-07
0.0789812
-1.50904e-07
0.0789815
-4.37325e-07
0.0789813
-5.64218e-07
0.0789808
-3.28061e-07
0.0789805
6.14229e-08
0.0789803
4.13403e-07
0.0789803
5.24123e-07
0.0789804
4.30284e-07
0.0789804
1.70796e-07
0.0789805
-1.03444e-07
0.0789806
-2.45651e-07
0.0789807
-2.12846e-07
0.0789809
-5.12824e-08
0.0789809
1.85034e-08
0.0789807
-5.20937e-08
0.0789805
-2.05275e-07
0.0789805
-3.0397e-07
0.0789807
-1.19307e-07
0.078981
2.38866e-07
0.078981
6.6518e-07
0.0789806
7.18389e-07
0.0789799
2.90607e-07
0.0789794
-2.98511e-07
0.0789794
-6.703e-07
0.07898
-4.15756e-07
0.0789806
2.33246e-07
0.0789808
7.2539e-07
0.0789809
4.72737e-07
0.0789811
-4.44798e-07
0.0789817
-1.33917e-06
0.0789822
-1.55271e-06
0.078982
-9.81446e-07
0.0789811
2.13475e-07
0.0789799
1.19807e-06
0.0789794
1.46844e-06
0.0789798
1.07171e-06
0.0789811
2.98131e-07
0.0789823
-3.37137e-07
0.0789829
-8.70871e-07
0.0789825
-1.28359e-06
0.0789818
-1.38168e-06
0.0789812
-9.38151e-07
0.078981
6.22135e-08
0.078981
1.19184e-06
0.0789809
1.73729e-06
0.0789809
1.344e-06
0.0789813
2.5427e-07
0.0789822
-9.19127e-07
0.0789831
-1.58289e-06
0.0789834
-1.52509e-06
0.078983
-1.0286e-06
0.0789821
-2.37452e-07
0.0789814
4.18458e-07
0.0789812
9.13558e-07
0.0789815
1.12213e-06
0.0789821
8.91749e-07
0.0789827
3.16149e-07
0.0789831
-3.63795e-07
0.0789832
-9.2083e-07
0.078983
-1.12071e-06
0.0789826
-8.46998e-07
0.0789821
-1.86708e-07
0.0789815
6.53635e-07
0.0789808
1.34552e-06
0.0789801
1.5809e-06
0.0789798
1.23375e-06
0.0789799
6.19048e-07
0.0789804
-3.83492e-08
0.0789809
-4.26472e-07
0.0789811
-5.72472e-07
0.0789809
-5.42476e-07
0.0789804
-3.79641e-07
0.0789801
-1.24387e-07
0.07898
1.93303e-07
0.0789799
5.62028e-07
0.0789799
7.98885e-07
0.0789797
7.11413e-07
0.0789797
2.93519e-07
0.0789799
-2.64488e-07
0.0789803
-7.1619e-07
0.0789807
-8.88304e-07
0.0789809
-7.7747e-07
0.0789808
-5.3869e-07
0.0789805
-2.31688e-07
0.0789804
3.75352e-08
0.0789806
3.11969e-07
0.078981
5.12719e-07
0.0789813
5.7242e-07
0.0789815
3.96099e-07
0.0789816
3.71551e-08
0.0789817
-3.89263e-07
0.0789819
-6.9024e-07
0.0789821
-7.65492e-07
0.0789822
-6.37492e-07
0.0789821
-4.63311e-07
0.0789819
-2.99323e-07
0.0789817
-1.9248e-07
0.0789818
-1.37557e-08
0.078982
2.50174e-07
0.0789822
5.83223e-07
0.0789822
7.93547e-07
0.078982
7.68346e-07
0.0789818
5.2466e-07
0.0789817
1.89948e-07
0.0789816
-8.76777e-08
0.0789813
-2.31897e-07
0.0789809
-2.80382e-07
0.0789803
-2.65322e-07
0.0789796
-2.2767e-07
0.0789791
-2.24476e-07
0.0789791
-1.39874e-07
0.0789793
4.65473e-08
0.0789797
2.32557e-07
0.0789801
3.07479e-07
0.0789806
2.42843e-07
0.0789813
1.13611e-07
0.078982
-1.77133e-08
0.0789828
-1.53332e-07
0.0789834
-2.99697e-07
0.0789839
-4.8525e-07
0.0789842
-7.02141e-07
0.0789844
-8.84432e-07
0.0789843
-9.77894e-07
0.0789842
-9.56495e-07
0.0789839
-8.36757e-07
0.0789836
-6.55508e-07
0.0789832
-4.55487e-07
0.0789829
-2.88017e-07
0.0789828
-1.25625e-07
0.0789829
7.91934e-08
0.0789831
2.65817e-07
0.0789834
3.32876e-07
2.42853e-07
0.0789824
-1.66699e-06
0.0789842
8.64905e-07
0.0789854
1.58088e-06
0.0789873
-2.08501e-07
0.0789862
1.52432e-06
0.0789856
4.1394e-07
0.0789864
8.45037e-07
0.0789858
4.17536e-07
0.0789832
9.50219e-07
0.0789813
8.28606e-07
0.0789814
1.09579e-08
0.0789812
1.94509e-07
0.0789816
5.39157e-07
0.0789829
-1.69164e-07
0.0789835
-1.17994e-07
0.0789822
1.18783e-06
0.0789798
1.41506e-06
0.0789786
-2.66914e-08
0.0789788
-5.79756e-07
0.0789776
9.62373e-07
0.078976
8.99135e-07
0.0789765
-1.59362e-06
0.0789781
-2.56632e-06
0.0789798
-1.02691e-06
0.0789821
-8.61871e-08
0.078985
-9.4617e-07
0.0789845
6.06429e-07
0.0789825
1.43842e-06
0.0789833
1.29004e-08
0.078983
3.23003e-07
0.0789813
4.13326e-07
0.0789803
-2.02881e-07
0.0789795
2.65773e-07
0.0789792
4.59087e-07
0.0789799
5.51344e-08
0.0789806
-1.05003e-07
0.0789811
-1.96549e-07
0.0789816
-1.80231e-07
0.0789817
-2.02386e-07
0.0789821
-3.7832e-07
0.0789824
-7.21731e-08
0.0789816
6.12177e-07
0.0789803
6.50145e-07
0.0789799
9.62486e-08
0.0789804
-1.49668e-07
0.0789806
-2.43385e-07
0.0789804
-4.06551e-07
0.0789805
-6.374e-07
0.0789814
-4.64789e-07
0.0789821
1.23928e-07
0.0789818
7.32625e-07
0.0789808
6.71177e-07
0.0789801
-2.1374e-07
0.0789804
-1.03637e-06
0.0789811
-7.56711e-07
0.0789811
3.12612e-07
0.0789808
9.67946e-07
0.0789808
7.83239e-07
0.0789815
1.43542e-07
0.0789819
-1.95659e-07
0.0789814
-2.03522e-07
0.0789806
-4.41409e-10
0.0789802
2.11659e-07
0.0789806
2.51659e-07
0.0789813
1.17437e-08
0.0789818
-3.16227e-07
0.0789816
-3.0837e-07
0.078981
-8.51594e-08
0.0789803
1.47869e-07
0.0789803
2.07561e-07
0.0789807
2.2719e-07
0.078981
1.61754e-07
0.0789808
-1.20751e-08
0.0789808
-2.08403e-07
0.0789813
-2.17025e-07
0.0789818
-1.27368e-07
0.0789816
-1.6874e-07
0.0789808
-2.60169e-07
0.0789803
-2.41742e-07
0.0789805
-9.61058e-08
0.0789813
-5.87274e-08
0.0789818
-1.5595e-07
0.0789818
-1.62178e-07
0.0789812
6.93581e-08
0.0789807
2.51125e-07
0.0789807
9.18472e-08
0.0789813
-3.1009e-07
0.0789818
-5.35769e-07
0.0789818
-2.97583e-07
0.0789813
2.10021e-07
0.078981
4.79223e-07
0.0789811
2.20441e-07
0.0789815
-3.11129e-07
0.0789818
-6.99421e-07
0.0789818
-6.02298e-07
0.0789816
-1.014e-07
0.0789814
4.61927e-07
0.0789813
6.8905e-07
0.0789812
4.52203e-07
0.0789812
-4.51771e-08
0.0789814
-3.25231e-07
0.0789815
-2.02268e-07
0.0789816
1.19064e-07
0.0789816
2.5667e-07
0.0789814
1.30627e-07
0.0789814
-4.83256e-08
0.0789813
-3.8572e-08
0.0789813
9.19522e-08
0.0789811
1.35184e-07
0.0789811
7.57481e-09
0.0789812
-4.84386e-08
0.0789813
1.50839e-07
0.078981
6.51224e-07
0.0789804
1.05071e-06
0.0789799
9.56031e-07
0.0789799
3.56175e-07
0.0789805
-4.13788e-07
0.0789812
-8.69832e-07
0.0789816
-8.03748e-07
0.0789813
-3.13932e-07
0.0789807
3.17292e-07
0.07898
7.0644e-07
0.0789798
6.62835e-07
0.07898
2.80699e-07
0.0789806
-1.00675e-07
0.078981
-2.31643e-07
0.0789809
-8.46672e-08
0.0789806
1.27086e-07
0.0789802
1.85421e-07
0.0789801
3.04078e-09
0.0789804
-2.97261e-07
0.0789809
-4.71418e-07
0.078981
-3.92628e-07
0.0789808
-6.45827e-08
0.0789804
2.94072e-07
0.0789801
5.23111e-07
0.0789802
5.94053e-07
0.0789804
4.87101e-07
0.0789804
2.82209e-07
0.0789801
3.19302e-08
0.0789796
-2.03028e-07
0.0789795
-3.06071e-07
0.07898
-2.31279e-07
0.0789808
-1.03458e-07
0.0789814
-1.49431e-07
0.0789815
-5.1433e-07
0.0789812
-1.04831e-06
0.0789809
-1.29783e-06
0.0789808
-8.03224e-07
0.0789806
3.62665e-07
0.0789803
1.4985e-06
0.07898
1.77415e-06
0.07898
1.08874e-06
0.0789804
-1.39799e-07
0.0789813
-1.23247e-06
0.0789822
-1.69731e-06
0.0789823
-1.44352e-06
0.0789817
-8.06749e-07
0.0789808
-4.68293e-08
0.0789803
6.49303e-07
0.0789803
1.17325e-06
0.0789808
1.26777e-06
0.0789813
8.21864e-07
0.0789816
-8.57812e-08
0.0789818
-1.12406e-06
0.078982
-1.79944e-06
0.0789823
-1.76281e-06
0.0789823
-1.04949e-06
0.078982
1.28029e-08
0.0789815
9.60262e-07
0.078981
1.39444e-06
0.078981
1.15612e-06
0.0789814
4.69391e-07
0.078982
-3.11043e-07
0.0789825
-8.75834e-07
0.0789827
-1.06531e-06
0.0789824
-8.72899e-07
0.0789819
-3.60277e-07
0.0789814
3.4407e-07
0.078981
1.09166e-06
0.0789807
1.6414e-06
0.0789805
1.77817e-06
0.0789803
1.41999e-06
0.0789802
7.00947e-07
0.0789803
-8.82989e-08
0.0789805
-6.73583e-07
0.0789808
-8.48342e-07
0.0789809
-6.23884e-07
0.0789807
-1.75166e-07
0.0789803
2.66847e-07
0.0789799
5.65136e-07
0.0789798
7.2017e-07
0.0789798
7.21181e-07
0.07898
5.60275e-07
0.0789801
2.09211e-07
0.0789801
-2.78472e-07
0.0789802
-7.94844e-07
0.0789804
-1.12439e-06
0.0789808
-1.13409e-06
0.078981
-7.89233e-07
0.078981
-2.07205e-07
0.0789807
2.88423e-07
0.0789805
5.1143e-07
0.0789806
4.68055e-07
0.0789809
2.97495e-07
0.0789812
9.17546e-08
0.0789813
-1.33495e-07
0.0789813
-3.94305e-07
0.0789813
-6.58869e-07
0.0789814
-8.39275e-07
0.0789816
-8.54175e-07
0.0789818
-7.0641e-07
0.078982
-4.43404e-07
0.0789819
-1.62449e-07
0.0789818
1.21897e-07
0.0789817
3.99743e-07
0.0789816
6.46805e-07
0.0789816
8.08357e-07
0.0789815
8.36402e-07
0.0789813
6.99651e-07
0.0789811
4.32253e-07
0.0789809
1.37916e-07
0.0789807
-6.95599e-08
0.0789806
-1.42147e-07
0.0789804
-1.07247e-07
0.0789802
-4.80241e-08
0.0789801
-4.53314e-08
0.07898
-6.87771e-08
0.0789801
-6.37422e-08
0.0789804
-4.11091e-08
0.0789807
-3.84291e-08
0.078981
-7.13766e-08
0.0789813
-1.46564e-07
0.0789816
-2.93335e-07
0.0789819
-4.81405e-07
0.0789823
-6.71183e-07
0.0789826
-8.41984e-07
0.0789829
-9.79916e-07
0.0789831
-1.06809e-06
0.0789832
-1.08814e-06
0.0789832
-1.02246e-06
0.0789833
-8.75175e-07
0.0789833
-6.76919e-07
0.0789833
-4.68804e-07
0.0789833
-2.74339e-07
0.0789833
-9.22177e-08
0.0789833
7.77823e-08
0.0789833
2.13068e-07
0.0789834
2.72586e-07
2.06845e-07
0.0789781
7.47768e-07
0.0789767
2.29131e-06
0.0789741
4.15102e-06
0.078972
1.86283e-06
0.0789733
2.70483e-07
0.078975
-1.25663e-06
0.0789772
-1.36633e-06
0.0789779
-3.08601e-07
0.0789786
2.56124e-07
0.0789787
7.20172e-07
0.0789788
-1.60672e-08
0.0789805
-1.57192e-06
0.0789824
-1.36812e-06
0.0789827
-4.1472e-07
0.0789828
-2.6025e-07
0.0789841
-1.59665e-07
0.0789852
3.82643e-07
0.078984
1.09815e-06
0.0789837
-2.39232e-07
0.0789855
-8.47512e-07
0.0789852
1.18663e-06
0.0789807
2.90006e-06
0.0789767
1.44607e-06
0.0789771
-1.43586e-06
0.0789766
4.51746e-07
0.0789747
9.62021e-07
0.0789771
-1.85843e-06
0.0789804
-1.88518e-06
0.0789807
-2.23811e-07
0.0789808
1.96677e-07
0.0789809
3.4628e-07
0.0789801
5.28751e-07
0.0789804
-2.80008e-08
0.0789812
-2.57324e-07
0.0789812
4.78019e-08
0.0789811
-5.09142e-08
0.0789812
-2.75612e-07
0.0789808
1.58945e-07
0.0789803
3.08632e-07
0.0789803
-3.36125e-07
0.0789808
-6.10499e-07
0.0789814
3.32787e-08
0.0789817
3.41199e-07
0.078982
-2.3443e-07
0.0789825
-6.38246e-07
0.0789825
-1.68083e-07
0.0789815
5.12298e-07
0.0789805
4.4697e-07
0.0789802
-1.76102e-07
0.0789808
-5.22731e-07
0.0789817
-1.64985e-07
0.078982
4.10255e-07
0.0789813
4.56077e-07
0.0789802
6.80436e-08
0.0789795
-4.48108e-08
0.0789795
2.71779e-07
0.0789801
3.9997e-07
0.078981
-1.25246e-07
0.0789818
-6.64455e-07
0.0789821
-5.26496e-07
0.0789818
1.82041e-07
0.078981
7.67372e-07
0.0789805
7.3241e-07
0.0789806
1.14979e-07
0.0789812
-5.96035e-07
0.0789817
-8.36392e-07
0.0789817
-2.59483e-07
0.078981
5.93791e-07
0.0789803
8.78018e-07
0.0789801
3.72915e-07
0.0789806
-2.51402e-07
0.0789811
-3.33318e-07
0.0789811
-6.54148e-09
0.0789809
2.56809e-08
0.078981
-3.27335e-07
0.0789814
-5.16007e-07
0.0789815
-2.72336e-07
0.078981
1.58833e-07
0.0789805
2.52069e-07
0.0789805
-5.93663e-08
0.0789809
-4.49286e-07
0.0789813
-5.39542e-07
0.0789814
-2.41532e-07
0.0789812
1.88849e-07
0.0789812
3.24461e-07
0.0789812
1.58066e-08
0.0789814
-4.41291e-07
0.0789814
-5.73298e-07
0.0789813
-2.26496e-07
0.0789813
2.42994e-07
0.0789814
3.82855e-07
0.0789816
-1.5254e-08
0.0789818
-4.49575e-07
0.0789816
-5.47928e-07
0.0789812
-2.20339e-07
0.0789809
2.03071e-07
0.078981
4.19386e-07
0.0789813
3.48736e-07
0.0789817
1.21007e-07
0.0789817
-9.02922e-08
0.0789815
-1.3203e-07
0.0789813
-5.28276e-09
0.0789813
1.71196e-07
0.0789813
2.42106e-07
0.0789813
1.37239e-07
0.0789812
-8.75104e-09
0.0789812
-5.56294e-08
0.0789813
5.28876e-08
0.0789812
1.72033e-07
0.0789811
1.95778e-07
0.0789808
1.87615e-07
0.0789807
3.07835e-07
0.0789807
6.56647e-07
0.0789807
9.91469e-07
0.0789808
9.07906e-07
0.0789808
2.94901e-07
0.0789809
-5.2107e-07
0.0789811
-9.99943e-07
0.0789811
-8.06647e-07
0.0789809
-1.00904e-07
0.0789805
6.61679e-07
0.0789802
9.92243e-07
0.0789801
7.47147e-07
0.0789803
1.39806e-07
0.0789806
-4.13423e-07
0.0789809
-5.09635e-07
0.0789809
-1.554e-07
0.0789807
3.39993e-07
0.0789804
5.19652e-07
0.0789802
2.28095e-07
0.0789802
-3.66295e-07
0.0789806
-8.08377e-07
0.0789809
-7.29963e-07
0.078981
-1.11973e-07
0.0789806
6.30605e-07
0.0789801
1.01431e-06
0.0789799
8.59224e-07
0.07898
3.74453e-07
0.0789803
-8.29815e-08
0.0789806
-1.94167e-07
0.0789804
-4.86497e-08
0.0789801
4.44163e-08
0.07898
-1.15828e-07
0.0789803
-4.95858e-07
0.0789811
-8.67369e-07
0.0789816
-1.03047e-06
0.0789815
-9.51302e-07
0.0789808
-6.48913e-07
0.0789801
-1.08648e-07
0.0789799
6.00625e-07
0.0789802
1.22628e-06
0.0789806
1.35794e-06
0.0789809
7.91629e-07
0.078981
-2.74436e-07
0.0789812
-1.42159e-06
0.0789815
-2.00611e-06
0.0789818
-1.70366e-06
0.0789817
-7.36437e-07
0.0789812
4.44024e-07
0.0789805
1.31865e-06
0.0789802
1.52456e-06
0.0789804
1.02738e-06
0.0789811
1.30475e-07
0.0789818
-7.98186e-07
0.0789822
-1.52173e-06
0.0789823
-1.81586e-06
0.078982
-1.55913e-06
0.0789818
-7.9404e-07
0.0789815
2.59118e-07
0.0789814
1.1597e-06
0.0789813
1.46906e-06
0.0789813
1.09946e-06
0.0789815
2.70974e-07
0.0789819
-6.47001e-07
0.0789822
-1.24484e-06
0.0789825
-1.28538e-06
0.0789824
-7.8257e-07
0.0789819
6.70503e-08
0.0789813
9.45995e-07
0.0789808
1.63821e-06
0.0789805
1.96558e-06
0.0789804
1.83963e-06
0.0789805
1.33418e-06
0.0789806
6.06513e-07
0.0789806
-1.16621e-07
0.0789806
-6.76251e-07
0.0789806
-8.83489e-07
0.0789807
-6.77925e-07
0.0789807
-1.61689e-07
0.0789805
4.67145e-07
0.0789801
9.31264e-07
0.0789798
1.05953e-06
0.0789797
8.43547e-07
0.0789798
4.18868e-07
0.0789801
-7.45197e-08
0.0789804
-5.41112e-07
0.0789805
-9.29087e-07
0.0789805
-1.17783e-06
0.0789806
-1.19428e-06
0.0789807
-8.68631e-07
0.0789808
-3.02313e-07
0.0789808
2.38285e-07
0.0789808
5.39524e-07
0.0789808
5.07328e-07
0.0789808
2.59148e-07
0.078981
-6.98623e-08
0.0789812
-3.57264e-07
0.0789814
-5.65573e-07
0.0789814
-7.24205e-07
0.0789814
-8.52919e-07
0.0789815
-9.23378e-07
0.0789817
-8.71139e-07
0.0789819
-6.61973e-07
0.078982
-2.83813e-07
0.0789819
1.92242e-07
0.0789817
6.10314e-07
0.0789815
8.54846e-07
0.0789814
9.28377e-07
0.0789813
8.8852e-07
0.0789813
7.6535e-07
0.0789811
5.84618e-07
0.0789809
3.72563e-07
0.0789806
1.8161e-07
0.0789804
5.07087e-08
0.0789803
-5.07567e-09
0.0789803
-1.02746e-08
0.0789803
-1.75788e-08
0.0789803
-5.89208e-08
0.0789803
-1.20708e-07
0.0789805
-1.99619e-07
0.0789807
-2.78014e-07
0.078981
-3.4446e-07
0.0789813
-4.19978e-07
0.0789815
-5.47852e-07
0.0789818
-7.3356e-07
0.0789821
-9.45476e-07
0.0789823
-1.13199e-06
0.0789826
-1.24859e-06
0.0789828
-1.27656e-06
0.0789829
-1.22163e-06
0.078983
-1.09581e-06
0.0789831
-9.14072e-07
0.0789831
-7.05941e-07
0.0789831
-5.05641e-07
0.0789832
-3.06183e-07
0.0789832
-1.02698e-07
0.0789832
7.80045e-08
0.0789832
2.13494e-07
0.0789832
2.79705e-07
2.18564e-07
0.0789777
-1.50341e-06
0.0789834
-3.47146e-06
0.0789885
-9.39419e-07
0.0789898
5.98388e-07
0.0789872
2.8612e-06
0.0789832
2.7654e-06
0.0789823
-4.63997e-07
0.0789832
-1.24485e-06
0.0789843
-8.1456e-07
0.0789848
2.27467e-07
0.0789835
1.28005e-06
0.078981
9.09451e-07
0.0789787
9.23749e-07
0.0789781
1.96127e-07
0.0789789
-1.04436e-06
0.078979
-3.37009e-07
0.0789787
7.55531e-07
0.0789794
3.57388e-07
0.0789797
-5.11485e-07
0.0789791
-2.52543e-07
0.0789806
-2.63519e-07
0.0789841
-6.82073e-07
0.0789852
3.9132e-07
0.0789832
5.02466e-07
0.078985
-1.30105e-06
0.0789863
-3.81005e-07
0.0789824
2.11174e-06
0.0789793
1.19185e-06
0.0789796
-5.16136e-07
0.0789801
-2.65083e-07
0.0789803
1.28729e-07
0.0789808
-2.11763e-08
0.078981
-1.91732e-07
0.0789811
-3.74628e-07
0.0789817
-5.10998e-07
0.0789818
-1.79702e-07
0.0789813
1.83967e-07
0.0789812
3.21383e-07
0.0789811
4.1542e-07
0.0789805
2.04518e-07
0.0789801
-2.26391e-07
0.0789805
-3.59677e-07
0.078981
-1.4078e-07
0.0789808
3.06798e-09
0.0789802
-1.09645e-07
0.0789801
-9.58789e-09
0.0789803
3.23242e-07
0.0789803
4.35663e-07
0.07898
1.50818e-07
0.0789799
-4.2574e-07
0.0789804
-7.47135e-07
0.0789813
-4.80723e-07
0.0789816
1.61139e-07
0.0789812
4.72484e-07
0.0789808
3.34043e-07
0.078981
1.00122e-07
0.0789814
1.35869e-08
0.0789814
-1.38913e-07
0.0789811
-3.60229e-07
0.0789808
-2.57659e-07
0.0789808
2.34087e-07
0.0789809
6.49434e-07
0.0789812
4.44249e-07
0.0789815
-2.1966e-07
0.0789816
-6.82063e-07
0.0789813
-4.90083e-07
0.0789808
2.00491e-07
0.0789806
8.38785e-07
0.0789806
8.27282e-07
0.0789808
1.52392e-07
0.0789811
-5.56945e-07
0.0789814
-6.34124e-07
0.0789816
-1.47491e-07
0.0789814
2.11614e-07
0.078981
8.27341e-08
0.0789807
-1.76322e-07
0.0789805
-1.66076e-07
0.0789807
1.69926e-08
0.078981
-1.06399e-08
0.0789812
-2.84453e-07
0.0789812
-4.7643e-07
0.078981
-3.40103e-07
0.0789808
-3.27391e-08
0.0789809
1.23751e-07
0.0789812
-2.77128e-08
0.0789816
-3.51973e-07
0.0789817
-5.37479e-07
0.0789815
-4.06817e-07
0.0789813
-2.63935e-08
0.0789813
2.68749e-07
0.0789815
2.06671e-07
0.0789816
-1.68394e-07
0.0789816
-4.51024e-07
0.0789814
-3.28375e-07
0.0789811
1.11578e-07
0.0789809
3.97328e-07
0.078981
3.25503e-07
0.0789813
6.60184e-09
0.0789816
-2.02802e-07
0.0789817
-1.38156e-07
0.0789814
1.00388e-07
0.0789812
2.30807e-07
0.0789812
2.04589e-07
0.0789813
1.32214e-07
0.0789813
1.22073e-07
0.0789811
1.63024e-07
0.0789809
1.57247e-07
0.0789809
8.55066e-08
0.078981
3.11814e-08
0.0789811
7.1679e-08
0.078981
2.94635e-07
0.0789807
6.02013e-07
0.0789805
8.51804e-07
0.0789807
8.67383e-07
0.078981
5.34897e-07
0.0789814
-6.19001e-08
0.0789815
-6.05658e-07
0.0789812
-7.44962e-07
0.0789808
-3.34503e-07
0.0789803
3.49127e-07
0.0789801
8.55098e-07
0.0789803
8.53461e-07
0.0789806
4.01734e-07
0.0789809
-1.56418e-07
0.0789809
-4.64933e-07
0.0789808
-3.31311e-07
0.0789806
6.82326e-08
0.0789804
4.43482e-07
0.0789805
4.79911e-07
0.0789806
1.09981e-07
0.0789807
-4.33003e-07
0.0789806
-7.67299e-07
0.0789805
-6.16738e-07
0.0789804
-3.9346e-08
0.0789804
6.62797e-07
0.0789803
1.07937e-06
0.0789802
9.61858e-07
0.0789802
4.22777e-07
0.0789803
-1.63491e-07
0.0789805
-3.90532e-07
0.0789806
-2.09682e-07
0.0789806
6.03739e-08
0.0789805
2.58198e-08
0.0789804
-4.31341e-07
0.0789806
-1.05252e-06
0.078981
-1.39614e-06
0.0789812
-1.15599e-06
0.0789809
-4.33008e-07
0.0789804
4.36122e-07
0.0789799
1.10217e-06
0.0789798
1.27738e-06
0.0789803
8.79228e-07
0.078981
9.99031e-08
0.0789815
-7.81394e-07
0.0789817
-1.54482e-06
0.0789815
-1.86956e-06
0.0789814
-1.54883e-06
0.0789812
-5.9854e-07
0.078981
6.77595e-07
0.0789807
1.62619e-06
0.0789805
1.68622e-06
0.0789807
8.87957e-07
0.0789811
-3.23843e-07
0.0789817
-1.42628e-06
0.0789822
-2.02135e-06
0.0789824
-1.94541e-06
0.0789821
-1.29147e-06
0.0789816
-3.19998e-07
0.0789812
6.44053e-07
0.0789811
1.28924e-06
0.0789812
1.35284e-06
0.0789815
8.40866e-07
0.0789818
-9.88888e-09
0.078982
-8.55676e-07
0.0789821
-1.36118e-06
0.0789821
-1.30675e-06
0.078982
-6.79246e-07
0.0789818
3.1494e-07
0.0789813
1.37339e-06
0.0789808
2.13889e-06
0.0789805
2.35086e-06
0.0789803
1.96259e-06
0.0789805
1.19916e-06
0.0789807
3.69388e-07
0.0789809
-3.08041e-07
0.0789809
-7.03555e-07
0.0789808
-7.68266e-07
0.0789806
-5.12163e-07
0.0789805
-1.41697e-09
0.0789803
6.13562e-07
0.0789802
1.09601e-06
0.07898
1.25718e-06
0.0789798
1.00258e-06
0.0789798
4.31482e-07
0.07898
-2.59935e-07
0.0789803
-8.62046e-07
0.0789806
-1.22802e-06
0.0789807
-1.32176e-06
0.0789807
-1.16051e-06
0.0789806
-7.82116e-07
0.0789806
-2.95409e-07
0.0789807
1.36565e-07
0.0789809
4.05491e-07
0.0789809
4.4176e-07
0.0789809
2.53952e-07
0.0789809
-8.1113e-08
0.078981
-4.49303e-07
0.0789812
-7.40896e-07
0.0789814
-9.19038e-07
0.0789815
-1.00335e-06
0.0789816
-1.01363e-06
0.0789817
-9.38782e-07
0.0789818
-7.29667e-07
0.0789818
-3.26297e-07
0.0789818
2.00106e-07
0.0789817
6.98369e-07
0.0789816
1.01811e-06
0.0789814
1.1141e-06
0.0789812
1.03475e-06
0.0789811
8.65063e-07
0.078981
6.81701e-07
0.0789809
5.21766e-07
0.0789807
3.82259e-07
0.0789805
2.55924e-07
0.0789803
1.3828e-07
0.0789803
3.88463e-08
0.0789803
-4.09767e-08
0.0789804
-1.14806e-07
0.0789805
-2.07369e-07
0.0789806
-3.14178e-07
0.0789807
-4.31295e-07
0.0789809
-5.58632e-07
0.0789812
-6.91772e-07
0.0789815
-8.39758e-07
0.0789818
-1.01548e-06
0.078982
-1.20568e-06
0.0789823
-1.37035e-06
0.0789825
-1.46238e-06
0.0789827
-1.45326e-06
0.0789828
-1.34795e-06
0.0789829
-1.17011e-06
0.0789829
-9.52459e-07
0.0789829
-7.27743e-07
0.0789829
-5.21657e-07
0.0789829
-3.12536e-07
0.0789829
-9.14203e-08
0.0789829
1.02132e-07
0.0789829
2.4458e-07
0.0789829
3.10542e-07
2.38025e-07
0.0789797
1.09539e-06
0.0789748
1.41506e-06
0.0789734
4.32142e-07
0.0789756
-1.54548e-06
0.0789798
-1.38476e-06
0.0789823
2.36947e-07
0.07898
1.87351e-06
0.0789779
8.6262e-07
0.0789775
-4.24569e-07
0.078978
-2.60986e-07
0.0789787
5.75523e-07
0.0789799
-2.98664e-07
0.078982
-1.1586e-06
0.078982
1.67499e-07
0.0789804
5.78537e-07
0.0789812
-1.14112e-06
0.0789833
-1.30271e-06
0.0789833
3.8287e-07
0.0789816
1.11961e-06
0.0789815
-7.68875e-08
0.0789818
-5.97631e-07
0.0789806
5.22569e-07
0.0789809
1.00252e-07
0.0789814
-3.36779e-08
0.0789792
8.85768e-07
0.0789785
3.14154e-07
0.0789814
-7.36895e-07
0.0789825
8.2997e-08
0.0789813
6.2941e-07
0.0789815
-3.80345e-07
0.0789822
-5.66351e-07
0.0789818
3.00803e-07
0.0789811
5.733e-07
0.0789807
-3.95757e-09
0.0789806
-4.59824e-07
0.0789807
-2.11332e-07
0.0789808
8.88469e-08
0.0789814
-2.78423e-07
0.0789821
-3.03761e-07
0.0789822
1.36242e-07
0.0789818
1.61229e-07
0.0789818
-3.78699e-07
0.0789822
-5.18026e-07
0.0789821
1.05416e-07
0.0789815
4.97649e-07
0.0789812
2.53044e-07
0.0789816
-6.27113e-08
0.078982
1.81541e-08
0.0789816
5.27064e-07
0.0789805
6.51161e-07
0.0789795
3.46365e-07
0.0789791
-7.54917e-08
0.0789794
-1.79545e-07
0.0789801
-2.40983e-07
0.0789809