/*--------------------------------*- C++ -*----------------------------------*\
| =========                 |                                                 |
| \\      /  F ield         | OpenFOAM: The Open Source CFD Toolbox           |
|  \\    /   O peration     | Version:  2406                                  |
|   \\  /    A nd           | Website:  www.openfoam.com                      |
|    \\/     M anipulation  |                                                 |
\*---------------------------------------------------------------------------*/
FoamFile
{
    version     2.0;
    format      ascii;
    arch        "LSB;label=32;scalar=64";
    class       surfaceScalarField;
    location    "0.05";
    object      phi;
}
// * * * * * * * * * * * * * * * * * * * * * * * * * * * * * * * * * * * * * //

dimensions      [0 3 -1 0 0 0 0];

oriented        oriented;

internalField   nonuniform List<scalar> 
12225
(
5.21055e-08
1.81569e-09
4.80234e-08
4.08768e-09
4.40278e-08
3.97252e-09
4.05929e-08
3.37973e-09
3.77035e-08
2.79254e-09
3.54779e-08
2.07549e-09
3.40664e-08
1.23651e-09
3.3471e-08
4.39229e-10
3.35103e-08
-1.60842e-10
3.3969e-08
-5.33732e-10
3.46275e-08
-6.94266e-10
3.53165e-08
-7.05294e-10
3.59479e-08
-6.51296e-10
3.65137e-08
-6.15524e-10
3.70778e-08
-6.56566e-10
3.77374e-08
-7.84006e-10
3.85454e-08
-9.44827e-10
3.94436e-08
-1.04373e-09
4.02778e-08
-1.0029e-09
4.09037e-08
-8.18928e-10
4.13556e-08
-6.1954e-10
4.19572e-08
-6.72338e-10
4.31244e-08
-1.1689e-09
4.50716e-08
-1.86018e-09
4.59478e-08
-7.94436e-10
3.77065e-08
8.30295e-09
2.65315e-08
1.11897e-08
2.36782e-08
2.86497e-09
2.13721e-08
2.30295e-09
2.02257e-08
1.14314e-09
1.94359e-08
7.94443e-10
1.92644e-08
1.70375e-10
1.94231e-08
-1.62784e-10
1.97521e-08
-3.26841e-10
2.012e-08
-3.65596e-10
2.04561e-08
-3.38903e-10
2.07452e-08
-2.91519e-10
2.09887e-08
-2.43204e-10
2.11894e-08
-1.99864e-10
2.13523e-08
-1.63168e-10
2.14836e-08
-1.328e-10
2.15904e-08
-1.07898e-10
2.16789e-08
-8.8425e-11
2.1753e-08
-7.30804e-11
2.18148e-08
-6.09182e-11
2.18662e-08
-5.11387e-11
2.19089e-08
-4.32599e-11
2.19452e-08
-3.69322e-11
2.19767e-08
-3.18065e-11
2.20042e-08
-2.75783e-11
2.20282e-08
-2.40348e-11
2.20489e-08
-2.09557e-11
2.2067e-08
-1.82837e-11
2.20831e-08
-1.58665e-11
2.20975e-08
-1.37971e-11
2.21102e-08
-1.22572e-11
2.2121e-08
-1.10785e-11
2.21301e-08
-1.0119e-11
2.21378e-08
-9.25273e-12
2.21449e-08
-8.22975e-12
2.21516e-08
-7.09017e-12
2.21579e-08
-5.83508e-12
2.21634e-08
-4.71082e-12
2.21681e-08
-3.8343e-12
2.21718e-08
-3.06345e-12
2.2175e-08
-2.63145e-12
2.21779e-08
-2.3125e-12
2.21807e-08
-2.00483e-12
2.21835e-08
-1.75157e-12
2.21859e-08
-1.53524e-12
2.21878e-08
-1.38829e-12
2.21893e-08
-1.25889e-12
2.21904e-08
-1.13186e-12
2.21914e-08
-9.79932e-13
2.21922e-08
-8.24376e-13
2.2193e-08
-6.85062e-13
2.21935e-08
-5.52961e-13
2.21939e-08
-4.61321e-13
2.21941e-08
-3.98309e-13
2.21944e-08
-3.31264e-13
2.21948e-08
-2.491e-13
2.21956e-08
-1.38223e-13
2.21966e-08
-1.41913e-14
2.21976e-08
1.22245e-13
2.21983e-08
2.46367e-13
2.21986e-08
3.12625e-13
2.21983e-08
2.8961e-13
2.21976e-08
2.20104e-13
2.21967e-08
1.4249e-13
2.21959e-08
4.83219e-14
2.21956e-08
-6.81563e-14
2.21957e-08
-9.39952e-14
2.21963e-08
-5.26956e-14
2.2197e-08
1.17868e-14
2.21976e-08
6.33512e-14
2.21978e-08
7.61015e-14
2.21976e-08
-2.33666e-14
2.2197e-08
-7.76024e-14
2.21961e-08
-1.41024e-13
2.21952e-08
-2.34963e-13
2.21945e-08
-2.95786e-13
2.21942e-08
-3.00211e-13
2.21943e-08
-2.48638e-13
2.21947e-08
-1.78782e-13
2.21953e-08
-1.01176e-13
2.21958e-08
-1.05161e-14
2.21962e-08
6.30441e-14
2.21964e-08
1.48162e-13
2.21963e-08
1.98877e-13
2.2196e-08
2.28422e-13
2.21957e-08
2.63534e-13
2.21955e-08
2.96492e-13
2.21954e-08
3.28127e-13
2.21954e-08
3.91895e-13
2.21957e-08
4.94819e-13
2.2196e-08
5.75347e-13
2.21964e-08
6.39797e-13
2.21968e-08
6.75457e-13
2.21971e-08
6.93525e-13
2.21972e-08
6.97836e-13
2.21972e-08
6.99677e-13
2.2197e-08
6.76027e-13
2.21967e-08
5.80267e-13
2.21965e-08
4.35794e-13
2.21963e-08
3.57297e-13
2.21962e-08
2.15514e-13
2.21962e-08
2.13345e-13
2.21965e-08
9.05686e-14
2.21969e-08
-2.74992e-15
2.21974e-08
-4.40883e-14
2.21979e-08
-7.1283e-14
2.21984e-08
-8.01127e-14
2.21987e-08
-1.00262e-13
2.21988e-08
-3.13356e-14
2.21986e-08
-3.31083e-14
2.21983e-08
-4.54633e-14
2.21979e-08
-7.95394e-14
2.21975e-08
-1.24296e-13
2.21972e-08
-1.60622e-13
2.2197e-08
-1.9129e-13
2.21969e-08
-2.11899e-13
2.21969e-08
-2.29696e-13
2.21969e-08
-2.36798e-13
2.21971e-08
-2.65111e-13
2.21974e-08
-2.59349e-13
2.21977e-08
-2.36801e-13
2.2198e-08
-1.85713e-13
2.21982e-08
-1.05672e-13
2.21983e-08
-2.5339e-14
2.21983e-08
5.58841e-14
2.21982e-08
1.0899e-13
2.2198e-08
1.44378e-13
2.21976e-08
1.63949e-13
2.21972e-08
1.72924e-13
2.21968e-08
1.71566e-13
2.21965e-08
1.63471e-13
2.21962e-08
1.30353e-13
2.21961e-08
1.07413e-13
2.21961e-08
1.1124e-13
2.21962e-08
1.22997e-13
2.21964e-08
1.4759e-13
2.21966e-08
1.72887e-13
2.21969e-08
1.98842e-13
2.21973e-08
2.27082e-13
2.21976e-08
2.60088e-13
2.21979e-08
2.97594e-13
2.21981e-08
3.16262e-13
2.21983e-08
3.34947e-13
2.21984e-08
3.57339e-13
2.21985e-08
3.7633e-13
2.21985e-08
3.83477e-13
2.21983e-08
3.71194e-13
2.21982e-08
3.60674e-13
2.21979e-08
3.63528e-13
2.21976e-08
3.65241e-13
2.21973e-08
3.31671e-13
2.2197e-08
3.07096e-13
2.21967e-08
2.9183e-13
2.21964e-08
2.73319e-13
2.21962e-08
2.32794e-13
2.2196e-08
2.14751e-13
2.21958e-08
1.98153e-13
2.21956e-08
1.62032e-13
2.21955e-08
1.02174e-13
2.21955e-08
5.21891e-14
2.21956e-08
6.20233e-14
2.21957e-08
-2.57815e-15
2.21961e-08
-1.38933e-13
2.21966e-08
-1.1728e-13
2.21971e-08
-1.22376e-13
2.21977e-08
-1.10604e-13
2.21984e-08
-7.77518e-14
2.2199e-08
-7.80164e-14
2.21997e-08
-1.06849e-13
2.22003e-08
-1.03579e-13
2.22009e-08
-4.81319e-14
2.22013e-08
4.48396e-14
2.22017e-08
2.22461e-14
2.2202e-08
4.86722e-14
2.22024e-08
6.66593e-15
2.22027e-08
3.36118e-14
2.2203e-08
4.48946e-14
2.22034e-08
5.20841e-14
2.22037e-08
6.91251e-14
2.2204e-08
9.32521e-14
2.22042e-08
1.10932e-13
2.22043e-08
1.17598e-13
2.22044e-08
1.27227e-13
2.22045e-08
1.21871e-13
2.22045e-08
1.12725e-13
2.22046e-08
1.07406e-13
2.22046e-08
1.24678e-13
2.22047e-08
1.15991e-13
2.22047e-08
1.39991e-13
2.22048e-08
1.60167e-13
2.22048e-08
1.97045e-13
2.22048e-08
2.39018e-13
2.22047e-08
2.77639e-13
2.22046e-08
3.33911e-13
2.22044e-08
3.87969e-13
2.22042e-08
4.55018e-13
2.22038e-08
5.3029e-13
2.22033e-08
6.12413e-13
2.22026e-08
6.9983e-13
2.22018e-08
7.94471e-13
2.22009e-08
9.02291e-13
2.21999e-08
1.03176e-12
2.21987e-08
1.18594e-12
2.21973e-08
1.37478e-12
2.21957e-08
1.61185e-12
2.21938e-08
1.90745e-12
2.21915e-08
2.27595e-12
2.21887e-08
2.74007e-12
2.21854e-08
3.33842e-12
2.21812e-08
4.15666e-12
2.2176e-08
5.16625e-12
2.21695e-08
6.47105e-12
2.21612e-08
8.21635e-12
2.21506e-08
1.05477e-11
2.21369e-08
1.36832e-11
2.2119e-08
1.79033e-11
2.20954e-08
2.35517e-11
2.20643e-08
3.10579e-11
2.20234e-08
4.09451e-11
2.19697e-08
5.37353e-11
2.18999e-08
6.98198e-11
2.18103e-08
8.96475e-11
2.16974e-08
1.12939e-10
2.15618e-08
1.35654e-10
1.38772e-10
6.38024e-08
8.78333e-10
6.44511e-08
3.43008e-09
6.35639e-08
4.88073e-09
6.18981e-08
5.14917e-09
6.01948e-08
4.70258e-09
5.88262e-08
3.73017e-09
5.79528e-08
2.41247e-09
5.75995e-08
1.05355e-09
5.76966e-08
-9.70291e-11
5.80831e-08
-8.58546e-10
5.86336e-08
-1.21669e-09
5.92542e-08
-1.25514e-09
5.98581e-08
-1.12432e-09
6.03546e-08
-9.79929e-10
6.07009e-08
-9.18886e-10
6.09468e-08
-9.41842e-10
6.11694e-08
-9.60468e-10
6.1329e-08
-8.41438e-10
6.12205e-08
-4.91001e-10
6.05227e-08
1.58985e-10
5.90292e-08
9.67958e-10
5.68205e-08
1.5332e-09
5.4177e-08
1.52463e-09
5.11903e-08
1.01918e-09
4.76473e-08
2.5427e-09
4.60796e-08
9.79718e-09
4.95217e-08
7.7227e-09
4.55693e-08
6.816e-09
4.43587e-08
3.51247e-09
4.43687e-08
1.13023e-09
4.46506e-08
5.15385e-10
4.49451e-08
-1.24722e-10
4.54459e-08
-6.65551e-10
4.61098e-08
-9.89594e-10
4.675e-08
-1.00376e-09
4.73052e-08
-8.93981e-10
4.7762e-08
-7.51141e-10
4.8137e-08
-6.17147e-10
4.84439e-08
-5.03047e-10
4.86936e-08
-4.10209e-10
4.88959e-08
-3.35875e-10
4.90618e-08
-2.76133e-10
4.92003e-08
-2.27978e-10
4.93175e-08
-1.89259e-10
4.94164e-08
-1.58319e-10
4.94993e-08
-1.33521e-10
4.95691e-08
-1.13449e-10
4.96287e-08
-9.6849e-11
4.96808e-08
-8.30583e-11
4.97266e-08
-7.15103e-11
4.97665e-08
-6.20102e-11
4.98012e-08
-5.42151e-11
4.98311e-08
-4.7697e-11
4.98576e-08
-4.21847e-11
4.98809e-08
-3.722e-11
4.99015e-08
-3.2874e-11
4.99194e-08
-2.88868e-11
4.99355e-08
-2.55958e-11
4.99501e-08
-2.26239e-11
4.99635e-08
-2.00215e-11
4.99756e-08
-1.77607e-11
4.99863e-08
-1.59331e-11
4.99952e-08
-1.43555e-11
5.00027e-08
-1.31732e-11
5.00095e-08
-1.20116e-11
5.00154e-08
-1.05664e-11
5.00209e-08
-9.09026e-12
5.0026e-08
-7.73806e-12
5.00307e-08
-6.52857e-12
5.00347e-08
-5.47696e-12
5.00382e-08
-4.77941e-12
5.00415e-08
-4.27306e-12
5.00443e-08
-3.73174e-12
5.00469e-08
-3.31189e-12
5.00491e-08
-2.94236e-12
5.00509e-08
-2.60655e-12
5.00522e-08
-2.29482e-12
5.00531e-08
-2.02879e-12
5.00538e-08
-1.81427e-12
5.00545e-08
-1.67822e-12
5.00556e-08
-1.56058e-12
5.00569e-08
-1.44644e-12
5.00583e-08
-1.32181e-12
5.00596e-08
-1.22531e-12
5.00605e-08
-1.05914e-12
5.00606e-08
-8.55771e-13
5.00602e-08
-7.36712e-13
5.00595e-08
-6.6479e-13
5.00588e-08
-6.01317e-13
5.00585e-08
-4.81946e-13
5.00585e-08
-2.57361e-13
5.00591e-08
-8.95835e-15
5.006e-08
2.17763e-13
5.0061e-08
3.78386e-13
5.00618e-08
4.63815e-13
5.00621e-08
5.4035e-13
5.00618e-08
4.56041e-13
5.00611e-08
2.58538e-13
5.00604e-08
6.37175e-14
5.00597e-08
-5.81551e-14
5.00593e-08
-1.6205e-13
5.00593e-08
-2.32476e-13
5.00596e-08
-2.36888e-13
5.00602e-08
-2.15323e-13
5.00609e-08
-1.85967e-13
5.00615e-08
-1.6755e-13
5.00618e-08
-1.19136e-13
5.00619e-08
-2.27393e-13
5.00618e-08
-3.31744e-13
5.00614e-08
-4.59372e-13
5.00611e-08
-6.18813e-13
5.00608e-08
-7.40083e-13
5.00607e-08
-8.43179e-13
5.0061e-08
-9.98688e-13
5.00613e-08
-9.63804e-13
5.00618e-08
-8.83307e-13
5.00623e-08
-8.58221e-13
5.00626e-08
-7.52416e-13
5.00628e-08
-6.38118e-13
5.00628e-08
-5.21479e-13
5.00627e-08
-4.20047e-13
5.00624e-08
-2.28294e-13
5.0062e-08
-1.91859e-13
5.00616e-08
-1.60229e-13
5.00615e-08
-2.45665e-13
5.00616e-08
-1.9976e-13
5.0062e-08
-2.46109e-13
5.00625e-08
-1.75997e-13
5.00632e-08
-1.21611e-13
5.00639e-08
-7.75927e-14
5.00645e-08
2.86596e-15
5.00649e-08
7.19726e-14
5.0065e-08
9.28063e-14
5.00651e-08
3.35213e-14
5.00648e-08
7.32142e-14
5.00644e-08
1.30867e-13
5.00639e-08
1.20196e-13
5.00634e-08
1.07633e-13
5.0063e-08
1.17753e-13
5.00628e-08
1.38581e-13
5.00627e-08
1.1863e-13
5.00628e-08
9.37966e-14
5.0063e-08
6.70746e-14
5.00633e-08
1.05292e-13
5.00635e-08
1.2788e-13
5.00638e-08
1.3017e-13
5.00642e-08
1.17459e-13
5.00644e-08
1.20555e-13
5.00645e-08
1.32093e-13
5.00645e-08
1.40137e-13
5.00643e-08
7.12519e-14
5.0064e-08
2.76061e-14
5.00635e-08
-2.22697e-14
5.00629e-08
-7.98314e-14
5.00623e-08
-1.30864e-13
5.00618e-08
-1.66229e-13
5.00614e-08
-2.04255e-13
5.00611e-08
-2.45755e-13
5.0061e-08
-2.65438e-13
5.00611e-08
-2.45973e-13
5.00613e-08
-2.33767e-13
5.00616e-08
-2.20151e-13
5.00619e-08
-2.0291e-13
5.00623e-08
-1.83244e-13
5.00628e-08
-1.67e-13
5.00632e-08
-1.52199e-13
5.00636e-08
-1.16933e-13
5.00639e-08
-7.81889e-14
5.00641e-08
-4.18357e-14
5.00643e-08
-1.69557e-14
5.00643e-08
-1.65057e-14
5.00642e-08
-3.83633e-14
5.00639e-08
-3.73414e-14
5.00637e-08
-4.02469e-14
5.00634e-08
-4.95806e-14
5.0063e-08
-6.42978e-14
5.00627e-08
-7.59881e-14
5.00623e-08
-9.8703e-14
5.0062e-08
-1.27059e-13
5.00618e-08
-1.64537e-13
5.00615e-08
-1.83601e-13
5.00612e-08
-2.01332e-13
5.0061e-08
-2.36161e-13
5.00608e-08
-2.50434e-13
5.00607e-08
-3.35583e-13
5.00608e-08
-3.63458e-13
5.0061e-08
-3.26485e-13
5.00612e-08
-3.0703e-13
5.00617e-08
-4.28578e-13
5.00623e-08
-4.44327e-13
5.0063e-08
-3.39254e-13
5.00636e-08
-2.56314e-13
5.00643e-08
-2.8749e-13
5.0065e-08
-3.32191e-13
5.00655e-08
-2.23562e-13
5.0066e-08
-2.1023e-13
5.00665e-08
-2.15659e-13
5.0067e-08
-2.22006e-13
5.00675e-08
-2.41761e-13
5.00678e-08
-1.44212e-13
5.00682e-08
-1.09878e-13
5.00686e-08
-1.03611e-13
5.0069e-08
-9.97724e-14
5.00694e-08
-6.96796e-14
5.00696e-08
-2.90417e-14
5.00698e-08
3.03821e-14
5.00699e-08
7.45281e-14
5.00699e-08
7.4422e-14
5.00698e-08
8.88288e-14
5.00698e-08
9.55477e-14
5.00697e-08
1.19915e-13
5.00696e-08
1.48188e-13
5.00694e-08
2.41329e-13
5.00692e-08
3.18421e-13
5.0069e-08
3.99595e-13
5.00688e-08
4.43479e-13
5.00685e-08
5.67388e-13
5.00681e-08
7.15301e-13
5.00676e-08
8.58546e-13
5.0067e-08
1.01192e-12
5.00663e-08
1.1951e-12
5.00654e-08
1.40487e-12
5.00642e-08
1.64447e-12
5.00628e-08
1.91829e-12
5.00611e-08
2.23643e-12
5.00592e-08
2.61364e-12
5.0057e-08
3.06557e-12
5.00545e-08
3.6138e-12
5.00515e-08
4.2503e-12
5.0048e-08
5.03054e-12
5.00439e-08
5.97869e-12
5.0039e-08
7.14144e-12
5.00331e-08
8.5802e-12
5.00261e-08
1.03846e-11
5.00175e-08
1.26623e-11
5.00071e-08
1.55237e-11
4.99944e-08
1.91701e-11
4.99787e-08
2.3847e-11
4.99594e-08
2.9873e-11
4.99355e-08
3.76604e-11
4.99057e-08
4.76889e-11
4.98687e-08
6.05354e-11
4.9823e-08
7.6835e-11
4.97669e-08
9.71795e-11
4.96988e-08
1.21993e-10
4.96174e-08
1.51303e-10
4.95228e-08
1.84461e-10
4.94174e-08
2.18356e-10
4.93096e-08
2.4362e-10
2.43543e-10
6.60614e-08
6.34847e-10
6.67642e-08
2.67501e-09
6.7338e-08
4.18398e-09
6.75746e-08
4.71501e-09
6.76412e-08
4.41713e-09
6.7698e-08
3.49492e-09
6.77872e-08
2.21267e-09
6.79165e-08
8.8613e-10
6.80572e-08
-2.33066e-10
6.821e-08
-1.00866e-09
6.83783e-08
-1.41737e-09
6.85672e-08
-1.50972e-09
6.87581e-08
-1.39061e-09
6.88856e-08
-1.19123e-09
6.88612e-08
-1.01174e-09
6.86202e-08
-8.66095e-10
6.81376e-08
-6.76964e-10
6.74095e-08
-3.15357e-10
6.64324e-08
3.28024e-10
6.5317e-08
1.2184e-09
6.40379e-08
2.23981e-09
6.25991e-08
3.02725e-09
6.10555e-08
3.15946e-09
5.92679e-08
2.8487e-09
5.82724e-08
3.57739e-09
6.02337e-08
7.88909e-09
6.06557e-08
7.2557e-09
6.25059e-08
4.92415e-09
6.32518e-08
2.80347e-09
6.26371e-08
1.74263e-09
6.23397e-08
8.04019e-10
6.24794e-08
-2.61561e-10
6.28645e-08
-1.04815e-09
6.3271e-08
-1.39925e-09
6.36671e-08
-1.40207e-09
6.40212e-08
-1.24747e-09
6.43268e-08
-1.0558e-09
6.45857e-08
-8.76866e-10
6.48044e-08
-7.23746e-10
6.49909e-08
-5.96989e-10
6.51504e-08
-4.94149e-10
6.52869e-08
-4.11594e-10
6.54037e-08
-3.447e-10
6.55043e-08
-2.9029e-10
6.5591e-08
-2.4591e-10
6.56661e-08
-2.09637e-10
6.57313e-08
-1.79887e-10
6.57884e-08
-1.55269e-10
6.58385e-08
-1.34725e-10
6.58824e-08
-1.17225e-10
6.5921e-08
-1.02333e-10
6.59551e-08
-8.97278e-11
6.59854e-08
-7.90289e-11
6.60126e-08
-6.99625e-11
6.6037e-08
-6.20396e-11
6.6059e-08
-5.51152e-11
6.60786e-08
-4.89557e-11
6.60959e-08
-4.32359e-11
6.61112e-08
-3.81939e-11
6.61248e-08
-3.3757e-11
6.61369e-08
-2.98997e-11
6.61477e-08
-2.65758e-11
6.61576e-08
-2.37574e-11
6.61666e-08
-2.11538e-11
6.61747e-08
-1.87755e-11
6.61822e-08
-1.66037e-11
6.61891e-08
-1.46753e-11
6.61949e-08
-1.2996e-11
6.61998e-08
-1.16489e-11
6.6204e-08
-1.04018e-11
6.62075e-08
-9.27449e-12
6.6211e-08
-8.35326e-12
6.62143e-08
-7.28485e-12
6.62175e-08
-6.32342e-12
6.62203e-08
-5.48914e-12
6.62225e-08
-4.74938e-12
6.62241e-08
-4.08009e-12
6.62252e-08
-3.48698e-12
6.62262e-08
-2.97375e-12
6.62273e-08
-2.56839e-12
6.62287e-08
-2.2543e-12
6.62304e-08
-1.95167e-12
6.62322e-08
-1.78542e-12
6.62337e-08
-1.59764e-12
6.62346e-08
-1.44983e-12
6.62349e-08
-1.31555e-12
6.62346e-08
-1.1547e-12
6.6234e-08
-9.69752e-13
6.62334e-08
-7.71196e-13
6.62332e-08
-5.39376e-13
6.62335e-08
-3.71024e-13
6.62344e-08
-2.59205e-13
6.62356e-08
-1.89757e-13
6.62366e-08
-1.60102e-13
6.62372e-08
-1.84337e-13
6.62374e-08
-2.76871e-13
6.6237e-08
-3.38669e-13
6.62363e-08
-3.93756e-13
6.62356e-08
-4.21195e-13
6.6235e-08
-3.88887e-13
6.62348e-08
-3.07858e-13
6.6235e-08
-2.14087e-13
6.62354e-08
-1.3103e-13
6.6236e-08
-6.3602e-14
6.62366e-08
-5.73855e-15
6.6237e-08
4.16579e-14
6.62372e-08
-3.10831e-14
6.62371e-08
1.02755e-14
6.62367e-08
-9.98412e-15
6.62364e-08
-5.84179e-14
6.6236e-08
-8.73061e-14
6.62359e-08
-8.54099e-14
6.6236e-08
-7.55985e-14
6.62362e-08
-1.58904e-14
6.62366e-08
-2.36995e-14
6.62372e-08
-1.15464e-14
6.62376e-08
5.21319e-14
6.62379e-08
9.12278e-14
6.6238e-08
1.12873e-13
6.62379e-08
1.27351e-13
6.62376e-08
1.50461e-13
6.62373e-08
9.35876e-14
6.6237e-08
6.64704e-14
6.62368e-08
3.26415e-14
6.62366e-08
-9.35573e-15
6.62367e-08
-8.49928e-14
6.62371e-08
-1.54051e-13
6.62377e-08
-1.49796e-13
6.62384e-08
-1.35711e-13
6.62391e-08
-1.1193e-13
6.62397e-08
-1.19147e-13
6.62402e-08
-1.42e-13
6.62404e-08
-1.64421e-13
6.62403e-08
-1.53574e-13
6.624e-08
-1.64795e-13
6.62395e-08
-1.82018e-13
6.62391e-08
-1.61401e-13
6.62386e-08
-1.31626e-13
6.62382e-08
-1.30752e-13
6.6238e-08
-1.3991e-13
6.62379e-08
-1.37451e-13
6.6238e-08
-1.31817e-13
6.62382e-08
-1.19867e-13
6.62384e-08
-5.77099e-14
6.62388e-08
-1.03029e-14
6.62392e-08
4.18555e-14
6.62396e-08
8.99884e-14
6.62399e-08
1.16513e-13
6.624e-08
1.38363e-13
6.624e-08
1.52166e-13
6.62397e-08
1.81887e-13
6.62392e-08
1.69059e-13
6.62386e-08
1.47897e-13
6.6238e-08
1.25685e-13
6.62373e-08
9.80822e-14
6.62368e-08
1.02697e-13
6.62364e-08
1.17425e-13
6.62361e-08
1.26592e-13
6.62361e-08
1.23846e-13
6.62362e-08
1.28765e-13
6.62364e-08
1.44794e-13
6.62368e-08
1.61461e-13
6.62372e-08
1.71649e-13
6.62377e-08
1.76876e-13
6.62382e-08
1.82256e-13
6.62387e-08
1.88072e-13
6.62392e-08
2.05001e-13
6.62395e-08
2.27579e-13
6.62398e-08
2.36836e-13
6.624e-08
2.40081e-13
6.62401e-08
2.38153e-13
6.624e-08
2.34575e-13
6.62398e-08
2.06926e-13
6.62395e-08
1.84817e-13
6.62392e-08
1.60248e-13
6.62389e-08
1.33581e-13
6.62386e-08
1.29808e-13
6.62383e-08
1.256e-13
6.62379e-08
1.01099e-13
6.62375e-08
9.32441e-14
6.62372e-08
7.75479e-14
6.62368e-08
4.60776e-14
6.62365e-08
7.24682e-15
6.62363e-08
-5.4748e-14
6.62361e-08
-6.85955e-14
6.62361e-08
-1.1099e-13
6.62362e-08
-1.19241e-13
6.62366e-08
-1.25172e-13
6.6237e-08
-1.78307e-13
6.62375e-08
-7.97737e-14
6.62381e-08
-8.44128e-14
6.62389e-08
-1.15693e-13
6.62396e-08
-5.3049e-14
6.624e-08
5.11799e-14
6.62405e-08
2.85658e-14
6.6241e-08
-1.33673e-14
6.62415e-08
-3.41708e-14
6.62418e-08
1.28126e-14
6.62421e-08
8.34535e-14
6.62425e-08
8.18828e-14
6.62429e-08
1.05985e-13
6.62434e-08
1.2064e-13
6.62437e-08
1.309e-13
6.62441e-08
1.76206e-13
6.62443e-08
2.36949e-13
6.62445e-08
2.67782e-13
6.62445e-08
3.04069e-13
6.62445e-08
3.56781e-13
6.62444e-08
4.01567e-13
6.62443e-08
4.51449e-13
6.62441e-08
5.16088e-13
6.62439e-08
5.96852e-13
6.62437e-08
6.95843e-13
6.62435e-08
8.15955e-13
6.62433e-08
9.47306e-13
6.62429e-08
1.1259e-12
6.62425e-08
1.28011e-12
6.62421e-08
1.48526e-12
6.62415e-08
1.71521e-12
6.62408e-08
1.97976e-12
6.62398e-08
2.28744e-12
6.62387e-08
2.64703e-12
6.62373e-08
3.06355e-12
6.62356e-08
3.54807e-12
6.62336e-08
4.11633e-12
6.62314e-08
4.78841e-12
6.62288e-08
5.58735e-12
6.62259e-08
6.52581e-12
6.62224e-08
7.66568e-12
6.62184e-08
9.02553e-12
6.62137e-08
1.06586e-11
6.62081e-08
1.26385e-11
6.62016e-08
1.50551e-11
6.6194e-08
1.80182e-11
6.61849e-08
2.16704e-11
6.61741e-08
2.61952e-11
6.61613e-08
3.18329e-11
6.61463e-08
3.88727e-11
6.61285e-08
4.7685e-11
6.61074e-08
5.86921e-11
6.60826e-08
7.23772e-11
6.60539e-08
8.92601e-11
6.60209e-08
1.09829e-10
6.59838e-08
1.34412e-10
6.59429e-08
1.62947e-10
6.58994e-08
1.94862e-10
6.58553e-08
2.28655e-10
6.58133e-08
2.60456e-10
6.57752e-08
2.8182e-10
2.81136e-10
6.7749e-08
5.61641e-10
6.81216e-08
2.3564e-09
6.86833e-08
3.71995e-09
6.92934e-08
4.23058e-09
6.98904e-08
3.93769e-09
7.04294e-08
3.02553e-09
7.08544e-08
1.78499e-09
7.11344e-08
5.42299e-10
7.12696e-08
-4.55649e-10
7.13168e-08
-1.10128e-09
7.13377e-08
-1.4104e-09
7.13379e-08
-1.45779e-09
7.12712e-08
-1.3233e-09
7.11031e-08
-1.07332e-09
7.0849e-08
-7.58782e-10
7.05262e-08
-4.07526e-10
7.00961e-08
-1.84468e-11
6.94673e-08
4.87093e-10
6.86689e-08
1.16309e-09
6.78225e-08
2.03415e-09
6.71062e-08
2.97636e-09
6.63847e-08
3.6965e-09
6.56366e-08
3.81642e-09
6.5057e-08
3.3432e-09
6.50722e-08
3.4351e-09
6.75117e-08
5.4211e-09
7.00223e-08
4.72151e-09
7.17855e-08
3.15065e-09
7.27236e-08
1.87995e-09
7.35721e-08
8.89553e-10
7.42026e-08
1.67708e-10
7.43485e-08
-4.05471e-10
7.42299e-08
-9.2723e-10
7.4085e-08
-1.25502e-09
7.39946e-08
-1.31384e-09
7.39586e-08
-1.21113e-09
7.39693e-08
-1.0637e-09
7.40074e-08
-9.14024e-10
7.40602e-08
-7.78566e-10
7.41212e-08
-6.60581e-10
7.41866e-08
-5.60194e-10
7.42522e-08
-4.76117e-10
7.43152e-08
-4.06244e-10
7.43737e-08
-3.48243e-10
7.44272e-08
-2.9987e-10
7.4476e-08
-2.59263e-10
7.45207e-08
-2.2497e-10
7.45618e-08
-1.95982e-10
7.4599e-08
-1.71436e-10
7.46321e-08
-1.50575e-10
7.46614e-08
-1.32668e-10
7.46876e-08
-1.17156e-10
7.47114e-08
-1.03608e-10
7.47335e-08
-9.17046e-11
7.47541e-08
-8.11999e-11
7.4773e-08
-7.21295e-11
7.47897e-08
-6.42692e-11
7.48045e-08
-5.75149e-11
7.48172e-08
-5.16425e-11
7.48283e-08
-4.64341e-11
7.48383e-08
-4.16714e-11
7.48475e-08
-3.72417e-11
7.48561e-08
-3.31346e-11
7.48642e-08
-2.92935e-11
7.48715e-08
-2.58068e-11
7.48781e-08
-2.27358e-11
7.4884e-08
-2.00635e-11
7.48891e-08
-1.77977e-11
7.48936e-08
-1.58978e-11
7.48977e-08
-1.42261e-11
7.49014e-08
-1.26251e-11
7.49047e-08
-1.10588e-11
7.4908e-08
-9.70482e-12
7.49111e-08
-8.44504e-12
7.49139e-08
-7.3397e-12
7.49162e-08
-6.48152e-12
7.49177e-08
-5.68057e-12
7.49187e-08
-5.05503e-12
7.49196e-08
-4.56775e-12
7.49206e-08
-4.0874e-12
7.49218e-08
-3.60641e-12
7.49235e-08
-3.22085e-12
7.49252e-08
-2.82862e-12
7.49266e-08
-2.50808e-12
7.49276e-08
-2.23174e-12
7.49279e-08
-2.00066e-12
7.49278e-08
-1.76688e-12
7.49275e-08
-1.50701e-12
7.49272e-08
-1.2278e-12
7.49273e-08
-9.34887e-13
7.49277e-08
-6.75639e-13
7.49285e-08
-4.92349e-13
7.49293e-08
-3.96252e-13
7.49301e-08
-3.84312e-13
7.49306e-08
-4.31566e-13
7.49307e-08
-5.13701e-13
7.49304e-08
-5.89092e-13
7.493e-08
-6.3378e-13
7.49295e-08
-6.27819e-13
7.49292e-08
-5.63984e-13
7.49292e-08
-4.64691e-13
7.49294e-08
-3.57233e-13
7.49299e-08
-2.69076e-13
7.49304e-08
-2.15512e-13
7.49308e-08
-2.05858e-13
7.49311e-08
-2.47785e-13
7.4931e-08
-2.7429e-13
7.49308e-08
-4.27438e-13
7.49305e-08
-5.40548e-13
7.49302e-08
-6.30023e-13
7.49298e-08
-6.3173e-13
7.49297e-08
-7.20062e-13
7.49299e-08
-7.12571e-13
7.49303e-08
-7.15415e-13
7.49307e-08
-5.67114e-13
7.4931e-08
-4.47308e-13
7.49313e-08
-3.48632e-13
7.49315e-08
-2.59329e-13
7.49314e-08
-1.78142e-13
7.49312e-08
-1.03913e-13
7.49308e-08
-8.6389e-14
7.49304e-08
-1.21315e-13
7.493e-08
-1.36767e-13
7.49298e-08
-1.30548e-13
7.49297e-08
-1.38687e-13
7.49299e-08
-1.61915e-13
7.49304e-08
-1.64493e-13
7.49311e-08
-1.44622e-13
7.49318e-08
-1.0335e-13
7.49326e-08
-7.04261e-14
7.49332e-08
-5.38824e-14
7.49336e-08
-4.56027e-14
7.49337e-08
-2.66098e-14
7.49336e-08
-2.21653e-14
7.49332e-08
-2.98673e-14
7.49328e-08
-3.70454e-14
7.49323e-08
-2.80711e-14
7.49319e-08
-1.55209e-14
7.49315e-08
-1.35175e-14
7.49314e-08
-1.63856e-14
7.49313e-08
-2.31804e-14
7.49314e-08
-3.17029e-14
7.49317e-08
-2.39862e-14
7.49321e-08
5.48603e-15
7.49325e-08
4.20039e-14
7.4933e-08
7.154e-14
7.49334e-08
9.69851e-14
7.49337e-08
1.11407e-13
7.49338e-08
1.11986e-13
7.49336e-08
1.04651e-13
7.49332e-08
9.02661e-14
7.49327e-08
5.41016e-14
7.4932e-08
7.10379e-15
7.49314e-08
-2.59128e-14
7.49307e-08
-3.55601e-14
7.49301e-08
-5.32734e-14
7.49298e-08
-6.28151e-14
7.49296e-08
-6.34601e-14
7.49296e-08
-5.69993e-14
7.49297e-08
-4.87834e-14
7.49299e-08
-3.99155e-14
7.49303e-08
-3.16483e-14
7.49308e-08
-2.52862e-14
7.49313e-08
-1.9965e-14
7.49318e-08
-1.43712e-14
7.49323e-08
-6.28525e-15
7.49328e-08
5.14822e-15
7.49332e-08
2.49169e-14
7.49335e-08
3.99055e-14
7.49337e-08
4.72363e-14
7.49338e-08
4.78693e-14
7.49337e-08
4.09527e-14
7.49335e-08
2.87411e-14
7.49333e-08
1.35189e-14
7.4933e-08
-7.53093e-16
7.49326e-08
-7.58553e-15
7.49323e-08
-1.03751e-14
7.49319e-08
-2.31115e-14
7.49316e-08
-5.11097e-14
7.49312e-08
-6.77396e-14
7.49309e-08
-9.48252e-14
7.49306e-08
-1.02086e-13
7.49303e-08
-1.3413e-13
7.493e-08
-1.35435e-13
7.49299e-08
-2.19476e-13
7.49298e-08
-1.80496e-13
7.493e-08
-1.71952e-13
7.49303e-08
-1.89785e-13
7.49306e-08
-1.43642e-13
7.49312e-08
-1.58597e-13
7.49319e-08
-1.67922e-13
7.49325e-08
-9.5796e-14
7.4933e-08
-4.27201e-14
7.49337e-08
-6.25296e-14
7.49342e-08
-3.5481e-14
7.49346e-08
-5.44702e-14
7.4935e-08
-5.53372e-14
7.49353e-08
-1.9024e-14
7.49358e-08
-7.27696e-15
7.49362e-08
6.84619e-14
7.49367e-08
6.20146e-14
7.49371e-08
1.11695e-13
7.49375e-08
1.65689e-13
7.49378e-08
2.16557e-13
7.4938e-08
2.67072e-13
7.49382e-08
3.23488e-13
7.49382e-08
3.83616e-13
7.49381e-08
4.46968e-13
7.4938e-08
5.17516e-13
7.49379e-08
6.08149e-13
7.49378e-08
7.08307e-13
7.49376e-08
8.24238e-13
7.49374e-08
9.64178e-13
7.49373e-08
1.12604e-12
7.4937e-08
1.32032e-12
7.49367e-08
1.53917e-12
7.49364e-08
1.77678e-12
7.49359e-08
2.08564e-12
7.49354e-08
2.41517e-12
7.49347e-08
2.79458e-12
7.49338e-08
3.23046e-12
7.49327e-08
3.73423e-12
7.49314e-08
4.31798e-12
7.49298e-08
4.99876e-12
7.4928e-08
5.79799e-12
7.49259e-08
6.73963e-12
7.49236e-08
7.84837e-12
7.4921e-08
9.16294e-12
7.4918e-08
1.06961e-11
7.49144e-08
1.25096e-11
7.49104e-08
1.4671e-11
7.49058e-08
1.72547e-11
7.49005e-08
2.03545e-11
7.48944e-08
2.40832e-11
7.48874e-08
2.85828e-11
7.48795e-08
3.40325e-11
7.48707e-08
4.06679e-11
7.48609e-08
4.87354e-11
7.485e-08
5.85377e-11
7.48383e-08
7.04012e-11
7.48259e-08
8.46898e-11
7.48136e-08
1.01724e-10
7.48018e-08
1.21742e-10
7.47914e-08
1.44772e-10
7.4784e-08
1.70469e-10
7.4781e-08
1.98012e-10
7.47839e-08
2.2585e-10
7.47936e-08
2.50827e-10
7.48086e-08
2.66983e-10
2.67162e-10
6.94721e-08
4.94203e-10
6.96536e-08
2.09538e-09
6.99645e-08
3.32075e-09
7.03705e-08
3.77886e-09
7.08381e-08
3.49554e-09
7.13299e-08
2.62301e-09
7.1792e-08
1.42598e-09
7.21792e-08
2.17077e-10
7.24571e-08
-7.51015e-10
7.26469e-08
-1.35282e-09
7.28007e-08
-1.59373e-09
7.29391e-08
-1.56454e-09
7.30259e-08
-1.37353e-09
7.30123e-08
-1.09324e-09
7.28911e-08
-7.46198e-10
7.26894e-08
-3.27906e-10
7.24156e-08
1.70529e-10
7.21004e-08
7.47848e-10
7.17815e-08
1.42593e-09
7.15245e-08
2.19981e-09
7.15285e-08
2.98234e-09
7.1661e-08
3.53458e-09
7.18116e-08
3.59068e-09
7.20574e-08
3.07473e-09
7.29321e-08
2.79963e-09
7.50725e-08
3.27229e-09
7.72093e-08
2.56755e-09
7.86561e-08
1.70762e-09
7.95474e-08
9.72048e-10
8.00507e-08
3.89742e-10
8.02717e-08
-4.92725e-11
8.02893e-08
-4.23975e-10
8.0116e-08
-7.53696e-10
7.98216e-08
-9.60025e-10
7.95303e-08
-1.02276e-09
7.93011e-08
-9.82534e-10
7.91355e-08
-8.98163e-10
7.90251e-08
-8.02692e-10
7.89565e-08
-7.0902e-10
7.8918e-08
-6.22126e-10
7.89007e-08
-5.4391e-10
7.8898e-08
-4.74773e-10
7.89052e-08
-4.14472e-10
7.89192e-08
-3.62311e-10
7.8937e-08
-3.1732e-10
7.89568e-08
-2.78413e-10
7.89772e-08
-2.44643e-10
7.89977e-08
-2.15342e-10
7.90175e-08
-1.90039e-10
7.90362e-08
-1.68288e-10
7.90535e-08
-1.49453e-10
7.90695e-08
-1.33129e-10
7.90845e-08
-1.18676e-10
7.90987e-08
-1.05773e-10
7.9112e-08
-9.4135e-11
7.91242e-08
-8.39863e-11
7.91352e-08
-7.50731e-11
7.91449e-08
-6.73146e-11
7.91536e-08
-6.04621e-11
7.91617e-08
-5.44073e-11
7.91693e-08
-4.88737e-11
7.91765e-08
-4.38031e-11
7.91831e-08
-3.91981e-11
7.91891e-08
-3.50497e-11
7.91943e-08
-3.13778e-11
7.91988e-08
-2.81448e-11
7.92028e-08
-2.52458e-11
7.92064e-08
-2.26057e-11
7.92098e-08
-2.00689e-11
7.9213e-08
-1.78159e-11
7.92162e-08
-1.5698e-11
7.92192e-08
-1.37795e-11
7.9222e-08
-1.21031e-11
7.92245e-08
-1.06459e-11
7.92265e-08
-9.38122e-12
7.92281e-08
-8.29521e-12
7.92293e-08
-7.44319e-12
7.92303e-08
-6.67418e-12
7.92311e-08
-5.92949e-12
7.92321e-08
-5.30951e-12
7.92334e-08
-4.77719e-12
7.92348e-08
-4.17082e-12
7.92363e-08
-3.65811e-12
7.92377e-08
-3.20304e-12
7.92386e-08
-2.82298e-12
7.92391e-08
-2.50083e-12
7.92392e-08
-2.21207e-12
7.9239e-08
-1.94038e-12
7.92388e-08
-1.67273e-12
7.92387e-08
-1.44155e-12
7.92389e-08
-1.226e-12
7.92393e-08
-1.06085e-12
7.92399e-08
-9.5949e-13
7.92404e-08
-9.08096e-13
7.92407e-08
-8.87645e-13
7.92408e-08
-8.62076e-13
7.92407e-08
-8.31816e-13
7.92405e-08
-7.72803e-13
7.92402e-08
-6.79076e-13
7.92401e-08
-5.50079e-13
7.92402e-08
-4.11112e-13
7.92404e-08
-2.84165e-13
7.92408e-08
-1.84325e-13
7.92411e-08
-1.23471e-13
7.92414e-08
-9.70381e-14
7.92414e-08
-1.14997e-13
7.92414e-08
-1.6047e-13
7.92412e-08
-2.47341e-13
7.92409e-08
-2.8273e-13
7.92406e-08
-3.08058e-13
7.92405e-08
-3.41325e-13
7.92406e-08
-3.50987e-13
7.92409e-08
-3.13947e-13
7.92412e-08
-2.25906e-13
7.92417e-08
-1.81174e-13
7.92421e-08
-1.33453e-13
7.92423e-08
-7.26924e-14
7.92423e-08
-5.32876e-14
7.92422e-08
-4.331e-14
7.92418e-08
-5.99306e-14
7.92414e-08
-1.07414e-13
7.92409e-08
-1.51067e-13
7.92405e-08
-1.8341e-13
7.92403e-08
-2.18172e-13
7.92403e-08
-2.41677e-13
7.92405e-08
-2.49055e-13
7.9241e-08
-2.41694e-13
7.92417e-08
-2.21581e-13
7.92425e-08
-1.91536e-13
7.92432e-08
-1.71397e-13
7.92437e-08
-1.61593e-13
7.92441e-08
-1.59995e-13
7.92442e-08
-1.48649e-13
7.92441e-08
-1.50442e-13
7.92438e-08
-1.53309e-13
7.92433e-08
-1.53453e-13
7.92428e-08
-1.49167e-13
7.92424e-08
-1.43997e-13
7.92421e-08
-1.3521e-13
7.92419e-08
-1.24607e-13
7.92418e-08
-1.06235e-13
7.92419e-08
-7.65972e-14
7.92422e-08
-3.7062e-14
7.92426e-08
-2.40739e-15
7.92431e-08
4.25998e-14
7.92435e-08
8.87656e-14
7.92439e-08
1.27147e-13
7.92442e-08
1.5537e-13
7.92442e-08
1.6833e-13
7.9244e-08
1.65569e-13
7.92436e-08
1.47896e-13
7.9243e-08
1.25759e-13
7.92424e-08
9.67814e-14
7.92417e-08
8.1529e-14
7.92411e-08
7.48119e-14
7.92406e-08
7.222e-14
7.92402e-08
7.42109e-14
7.92401e-08
7.97178e-14
7.92401e-08
8.45067e-14
7.92402e-08
8.85661e-14
7.92405e-08
9.07674e-14
7.92409e-08
9.15574e-14
7.92413e-08
9.17548e-14
7.92418e-08
9.25931e-14
7.92424e-08
9.56378e-14
7.92429e-08
1.01105e-13
7.92434e-08
1.07178e-13
7.92438e-08
1.11246e-13
7.9244e-08
1.13125e-13
7.92442e-08
1.11493e-13
7.92443e-08
1.06229e-13
7.92442e-08
9.75296e-14
7.9244e-08
8.70274e-14
7.92437e-08
7.67331e-14
7.92434e-08
6.97011e-14
7.92431e-08
6.22762e-14
7.92428e-08
5.57295e-14
7.92424e-08
3.88215e-14
7.92421e-08
1.72496e-14
7.92417e-08
5.41082e-16
7.92413e-08
-9.28826e-15
7.9241e-08
-3.93339e-14
7.92406e-08
-4.67978e-14
7.92404e-08
-8.39367e-14
7.92402e-08
-4.2045e-14
7.92403e-08
-7.929e-14
7.92405e-08
-8.94556e-14
7.92408e-08
-6.68784e-14
7.92413e-08
-5.18944e-14
7.92419e-08
-1.94682e-14
7.92424e-08
4.67106e-14
7.9243e-08
8.50891e-14
7.92436e-08
2.09817e-14
7.92442e-08
1.74961e-14
7.92447e-08
4.32832e-14
7.92451e-08
7.44789e-14
7.92455e-08