/*--------------------------------*- C++ -*----------------------------------*\
| =========                 |                                                 |
| \\      /  F ield         | OpenFOAM: The Open Source CFD Toolbox           |
|  \\    /   O peration     | Version:  2406                                  |
|   \\  /    A nd           | Website:  www.openfoam.com                      |
|    \\/     M anipulation  |                                                 |
\*---------------------------------------------------------------------------*/
FoamFile
{
    version     2.0;
    format      ascii;
    arch        "LSB;label=32;scalar=64";
    class       volVectorField;
    location    "0.05";
    object      U;
}
// * * * * * * * * * * * * * * * * * * * * * * * * * * * * * * * * * * * * * //

dimensions      [0 1 -1 0 0 0 0];

internalField   nonuniform List<vector> 
6250
(
(9.37294 0.000115658 0)
(13.6688 0.000381383 0)
(10.3505 0.0007105 0)
(8.98677 8.32584e-05 0)
(9.63377 -0.000701003 0)
(10.0353 -0.000312599 0)
(9.93803 0.000213815 0)
(9.84521 0.000130408 0)
(9.85762 0.000143533 0)
(9.87499 9.24492e-05 0)
(9.87362 -4.14575e-05 0)
(9.87105 -0.000218249 0)
(9.87115 -0.000267256 0)
(9.8715 -0.000257449 0)
(9.87181 -0.000195721 0)
(9.87199 -0.000104005 0)
(9.87179 -4.04255e-05 0)
(9.87197 7.36474e-05 0)
(9.87195 0.000192443 0)
(9.87153 0.000204734 0)
(9.87149 0.000194705 0)
(9.87141 0.000231868 0)
(9.87135 0.00031153 0)
(9.87063 0.00025477 0)
(9.87036 -0.000107186 0)
(9.87084 -0.000425996 0)
(9.87147 -0.000376108 0)
(9.87138 -8.08596e-05 0)
(9.8712 -5.68734e-06 0)
(9.87178 -5.14755e-05 0)
(9.87173 7.23176e-05 0)
(9.87155 0.000208727 0)
(9.87129 0.000203139 0)
(9.87104 3.63308e-05 0)
(9.87131 -0.000136738 0)
(9.87145 -0.000155438 0)
(9.87143 -7.90542e-05 0)
(9.87153 1.3523e-05 0)
(9.87147 7.68086e-05 0)
(9.87135 6.41276e-05 0)
(9.87132 -1.82149e-05 0)
(9.87137 -8.41999e-05 0)
(9.87149 -6.01456e-05 0)
(9.87156 2.15443e-05 0)
(9.87148 7.55787e-05 0)
(9.87136 7.62137e-05 0)
(9.87133 5.94037e-05 0)
(9.87133 4.17682e-05 0)
(9.87128 -1.09463e-05 0)
(9.87129 -0.000100995 0)
(9.87145 -0.000171725 0)
(9.87166 -0.000133166 0)
(9.8717 2.57214e-05 0)
(9.87154 0.000169435 0)
(9.87133 0.000162304 0)
(9.8713 1.69498e-05 0)
(9.87144 -9.49677e-05 0)
(9.87153 -7.8303e-05 0)
(9.87145 -4.32181e-06 0)
(9.87134 2.76211e-05 0)
(9.87134 1.97894e-05 0)
(9.87139 3.67665e-05 0)
(9.87138 5.31328e-05 0)
(9.87134 3.08031e-05 0)
(9.87131 -2.99184e-05 0)
(9.87133 -7.23841e-05 0)
(9.87138 -6.4368e-05 0)
(9.87144 -1.34716e-05 0)
(9.87147 3.35595e-05 0)
(9.87145 4.54278e-05 0)
(9.8714 8.93192e-06 0)
(9.87137 -3.40392e-05 0)
(9.87142 -3.57016e-05 0)
(9.87144 6.93599e-06 0)
(9.87139 3.45034e-05 0)
(9.87136 4.6101e-06 0)
(9.8714 -4.44335e-05 0)
(9.8715 -5.25318e-05 0)
(9.87155 2.91239e-06 0)
(9.87147 5.8454e-05 0)
(9.87138 6.10499e-05 0)
(9.87135 3.45689e-06 0)
(9.87141 -6.46052e-05 0)
(9.87153 -8.46622e-05 0)
(9.87159 -3.00051e-05 0)
(9.87154 5.29417e-05 0)
(9.87143 8.98852e-05 0)
(9.87137 4.27327e-05 0)
(9.87141 -5.09331e-05 0)
(9.87153 -0.000102728 0)
(9.87161 -6.02675e-05 0)
(9.87158 2.70084e-05 0)
(9.87151 7.47705e-05 0)
(9.87146 5.36507e-05 0)
(9.87147 -3.76562e-06 0)
(9.8715 -3.95315e-05 0)
(9.87151 -3.44737e-05 0)
(9.87152 -7.20536e-06 0)
(9.87153 1.53294e-05 0)
(9.87153 2.14358e-05 0)
(9.87151 1.76067e-05 0)
(9.87145 1.31695e-05 0)
(9.8714 1.23283e-05 0)
(9.87139 1.04415e-05 0)
(9.87142 1.4494e-06 0)
(9.87147 -1.54836e-05 0)
(9.8715 -2.86506e-05 0)
(9.87151 -2.26481e-05 0)
(9.87149 7.0849e-06 0)
(9.87144 3.54084e-05 0)
(9.87141 3.05203e-05 0)
(9.87141 -1.11721e-05 0)
(9.87146 -5.69554e-05 0)
(9.87153 -6.35634e-05 0)
(9.87156 -1.35136e-05 0)
(9.87149 5.61522e-05 0)
(9.87136 9.07704e-05 0)
(9.87126 6.57568e-05 0)
(9.87126 1.02603e-06 0)
(9.87135 -5.89942e-05 0)
(9.87147 -7.65867e-05 0)
(9.87154 -4.53991e-05 0)
(9.87152 1.16251e-05 0)
(9.87144 5.33288e-05 0)
(9.87136 5.23834e-05 0)
(9.87134 1.55113e-05 0)
(9.87135 -1.7718e-05 0)
(9.87137 -1.90876e-05 0)
(9.87138 8.42567e-06 0)
(9.87135 2.83545e-05 0)
(9.87134 1.31143e-05 0)
(9.87135 -2.97707e-05 0)
(9.87141 -6.09764e-05 0)
(9.87148 -4.44729e-05 0)
(9.87149 1.66728e-05 0)
(9.87144 7.22663e-05 0)
(9.87135 7.59823e-05 0)
(9.87127 1.90332e-05 0)
(9.87127 -5.85446e-05 0)
(9.87136 -9.99241e-05 0)
(9.87148 -6.32661e-05 0)
(9.87152 2.35358e-05 0)
(9.87143 9.08306e-05 0)
(9.87131 9.43342e-05 0)
(9.87122 4.74177e-05 0)
(9.8712 -7.2112e-06 0)
(9.87127 -4.47255e-05 0)
(9.87138 -6.75302e-05 0)
(9.87152 -9.04735e-05 0)
(9.87165 -9.37237e-05 0)
(9.87168 -4.72293e-05 0)
(9.8716 3.73748e-05 0)
(9.87147 0.000127323 0)
(9.87128 0.000173977 0)
(9.87111 0.000134333 0)
(9.87106 9.48067e-06 0)
(9.87119 -0.000132353 0)
(9.87145 -0.000201413 0)
(9.8717 -0.000156512 0)
(9.8718 -3.01812e-05 0)
(9.87169 8.8877e-05 0)
(9.8715 0.000131931 0)
(9.87132 0.000103756 0)
(9.87122 5.65318e-05 0)
(9.87119 2.06835e-05 0)
(9.87123 -1.38346e-05 0)
(9.87134 -6.01634e-05 0)
(9.8715 -0.000108968 0)
(9.87166 -0.000123934 0)
(9.87177 -7.50672e-05 0)
(9.87173 2.43364e-05 0)
(9.87157 0.000114087 0)
(9.87139 0.000141191 0)
(9.87126 0.000100746 0)
(9.8712 2.09688e-05 0)
(9.87126 -5.85071e-05 0)
(9.8714 -0.000102077 0)
(9.87156 -9.6421e-05 0)
(9.87167 -5.71624e-05 0)
(9.8717 -1.19344e-05 0)
(9.87165 2.30072e-05 0)
(9.87154 4.18723e-05 0)
(9.87143 5.11008e-05 0)
(9.87135 5.93988e-05 0)
(9.87128 5.61014e-05 0)
(9.87125 2.99562e-05 0)
(9.87127 -1.68107e-05 0)
(9.87134 -6.14441e-05 0)
(9.87144 -7.54674e-05 0)
(9.87153 -4.69885e-05 0)
(9.87155 6.83516e-06 0)
(9.87149 4.88421e-05 0)
(9.8714 5.46453e-05 0)
(9.87132 3.03434e-05 0)
(9.87128 8.74717e-07 0)
(9.87128 -1.41238e-05 0)
(9.87131 -1.56923e-05 0)
(9.87136 -1.88222e-05 0)
(9.87142 -3.61273e-05 0)
(9.8715 -6.01777e-05 0)
(9.87159 -5.89163e-05 0)
(9.87163 -1.39452e-05 0)
(9.87158 5.24303e-05 0)
(9.87148 9.70247e-05 0)
(9.87136 9.40136e-05 0)
(9.87127 5.52014e-05 0)
(9.87123 8.57083e-06 0)
(9.87124 -2.51243e-05 0)
(9.87129 -3.84182e-05 0)
(9.87136 -4.03348e-05 0)
(9.87143 -4.51045e-05 0)
(9.8715 -5.6948e-05 0)
(9.87157 -6.30352e-05 0)
(9.87163 -4.65342e-05 0)
(9.87165 -5.20747e-06 0)
(9.87161 3.9583e-05 0)
(9.87153 6.55028e-05 0)
(9.87143 6.47124e-05 0)
(9.87135 4.73156e-05 0)
(9.8713 2.79656e-05 0)
(9.87127 1.35125e-05 0)
(9.87128 -1.84557e-06 0)
(9.87132 -2.54946e-05 0)
(9.8714 -5.41462e-05 0)
(9.87149 -7.66588e-05 0)
(9.8716 -8.3177e-05 0)
(9.8717 -6.28859e-05 0)
(9.87176 -1.84339e-05 0)
(9.87176 2.7967e-05 0)
(9.87167 5.42544e-05 0)
(9.87159 5.94875e-05 0)
(9.87151 6.10332e-05 0)
(9.87142 6.51111e-05 0)
(9.87133 6.86207e-05 0)
(9.87124 6.22647e-05 0)
(9.87118 3.94737e-05 0)
(9.87116 4.35294e-06 0)
(9.87119 -3.28929e-05 0)
(9.87126 -6.39557e-05 0)
(9.87137 -8.50011e-05 0)
(9.8715 -9.69693e-05 0)
(9.87164 -0.000101072 0)
(9.87178 -9.72291e-05 0)
(9.87189 -8.67199e-05 0)
(9.87198 -6.747e-05 0)
(9.87204 -3.30731e-05 0)
(9.87204 7.46863e-06 0)
(9.87198 3.66911e-05 0)
(9.87192 4.87633e-05 0)
(9.87188 3.57867e-05 0)
(9.37335 0.000241823 0)
(13.6696 0.000662369 0)
(10.3542 0.000463872 0)
(8.98807 0.000130056 0)
(9.63474 -8.11063e-05 0)
(10.0372 -0.000164407 0)
(9.93946 4.51656e-05 0)
(9.84489 -0.000129384 0)
(9.8582 -0.000133735 0)
(9.87652 -5.0849e-05 0)
(9.87509 2.81822e-05 0)
(9.87241 -1.47219e-05 0)
(9.87239 5.84245e-05 0)
(9.87243 3.68381e-05 0)
(9.87203 -2.90895e-05 0)
(9.87203 -7.88724e-05 0)
(9.87188 -0.00013172 0)
(9.87197 -9.48102e-05 0)
(9.87249 3.50166e-05 0)
(9.87251 2.31019e-05 0)
(9.87266 -2.18699e-05 0)
(9.87282 6.31454e-05 0)
(9.87334 0.000228579 0)
(9.87394 0.000366545 0)
(9.87383 0.000170298 0)
(9.87314 -3.84211e-05 0)
(9.87249 -0.000166131 0)
(9.87267 -0.000134233 0)
(9.87254 -6.71828e-05 0)
(9.87207 -0.000100662 0)
(9.87223 -6.91684e-05 0)
(9.87268 -7.29208e-06 0)
(9.87297 3.72852e-05 0)
(9.87307 4.32072e-05 0)
(9.8729 1.30271e-05 0)
(9.87267 1.07965e-05 0)
(9.87261 9.51459e-06 0)
(9.87255 6.67768e-06 0)
(9.87251 2.72117e-05 0)
(9.8726 5.06502e-05 0)
(9.87266 1.70383e-05 0)
(9.87256 -7.49276e-05 0)
(9.87252 -0.000114888 0)
(9.8726 -3.65768e-05 0)
(9.87265 5.94731e-05 0)
(9.87265 5.48092e-05 0)
(9.87275 -7.77835e-06 0)
(9.8729 -1.19494e-05 0)
(9.87295 2.87852e-05 0)
(9.87281 2.1646e-05 0)
(9.87251 -5.76504e-05 0)
(9.87231 -0.000112884 0)
(9.8724 -5.68696e-05 0)
(9.87271 5.56152e-05 0)
(9.87296 9.48431e-05 0)
(9.87295 2.24621e-05 0)
(9.87277 -3.01479e-05 0)
(9.87258 2.43318e-05 0)
(9.87249 8.91912e-05 0)
(9.87251 4.42558e-05 0)
(9.8726 -6.2722e-05 0)
(9.87271 -8.05667e-05 0)
(9.87276 3.01452e-06 0)
(9.87272 8.09841e-05 0)
(9.87265 6.7201e-05 0)
(9.87261 -1.02603e-05 0)
(9.87258 -7.65267e-05 0)
(9.87259 -8.25548e-05 0)
(9.87265 -2.94982e-05 0)
(9.87271 4.27339e-05 0)
(9.87269 6.37536e-05 0)
(9.87261 1.70843e-05 0)
(9.87255 -3.09984e-05 0)
(9.8726 -8.80048e-06 0)
(9.87264 4.73833e-05 0)
(9.8726 3.66219e-05 0)
(9.87256 -5.38544e-05 0)
(9.87259 -0.000121904 0)
(9.87268 -7.43959e-05 0)
(9.87274 4.05563e-05 0)
(9.87274 0.000104659 0)
(9.87272 5.67362e-05 0)
(9.8727 -4.7767e-05 0)
(9.87266 -0.000105394 0)
(9.87261 -6.30528e-05 0)
(9.87261 3.15627e-05 0)
(9.87266 8.49337e-05 0)
(9.87275 4.99436e-05 0)
(9.87279 -3.63193e-05 0)
(9.87274 -8.67986e-05 0)
(9.87263 -5.11166e-05 0)
(9.87257 2.52203e-05 0)
(9.87258 5.78888e-05 0)
(9.87267 2.33064e-05 0)
(9.87279 -3.15085e-05 0)
(9.87285 -4.66378e-05 0)
(9.87282 -1.71554e-05 0)
(9.87271 1.91014e-05 0)
(9.87262 3.04638e-05 0)
(9.87262 2.17754e-05 0)
(9.87268 1.50794e-05 0)
(9.87274 1.68193e-05 0)
(9.87276 1.71617e-05 0)
(9.87275 7.32398e-06 0)
(9.87273 -6.99664e-06 0)
(9.87272 -1.63576e-05 0)
(9.8727 -1.67391e-05 0)
(9.87265 -9.8655e-06 0)
(9.87263 3.5313e-06 0)
(9.87267 1.68811e-05 0)
(9.87275 2.00406e-05 0)
(9.87278 7.33052e-06 0)
(9.8727 -1.18268e-05 0)
(9.87255 -1.33444e-05 0)
(9.87241 2.03898e-05 0)
(9.8724 6.58857e-05 0)
(9.87251 8.08052e-05 0)
(9.87263 4.17791e-05 0)
(9.8727 -2.84724e-05 0)
(9.8727 -8.177e-05 0)
(9.87264 -8.47137e-05 0)
(9.87257 -3.74798e-05 0)
(9.87252 2.75139e-05 0)
(9.87252 7.37214e-05 0)
(9.87254 7.73285e-05 0)
(9.87255 3.89884e-05 0)
(9.87256 -1.09687e-05 0)
(9.87257 -3.82213e-05 0)
(9.87259 -2.66234e-05 0)
(9.8726 3.48377e-06 0)
(9.8726 1.84231e-05 0)
(9.87259 -2.88372e-06 0)
(9.87257 -4.34217e-05 0)
(9.87255 -5.7353e-05 0)
(9.87257 -1.75552e-05 0)
(9.87262 5.51469e-05 0)
(9.87264 0.000102223 0)
(9.8726 7.92731e-05 0)
(9.87253 -6.9555e-06 0)
(9.87244 -9.6937e-05 0)
(9.87239 -0.000108058 0)
(9.87244 -2.45783e-05 0)
(9.87254 8.95378e-05 0)
(9.8726 0.00014132 0)
(9.8726 8.79255e-05 0)
(9.87263 -3.51349e-05 0)
(9.87269 -0.000148371 0)
(9.87277 -0.000187247 0)
(9.8728 -0.000144624 0)
(9.8727 -4.93534e-05 0)
(9.87252 6.69158e-05 0)
(9.87239 0.000145922 0)
(9.87242 0.000165304 0)
(9.87256 0.000146164 0)
(9.87275 7.73628e-05 0)
(9.87289 -5.1113e-05 0)
(9.87288 -0.000193163 0)
(9.87277 -0.000265652 0)
(9.87266 -0.000206298 0)
(9.87259 -3.01679e-05 0)
(9.87259 0.000159638 0)
(9.87261 0.000247252 0)
(9.87262 0.000199364 0)
(9.87264 7.29053e-05 0)
(9.87274 -5.62467e-05 0)
(9.87288 -0.000142112 0)
(9.87295 -0.000171545 0)
(9.87292 -0.000153801 0)
(9.87281 -0.000104457 0)
(9.87266 -1.97552e-05 0)
(9.87261 8.86392e-05 0)
(9.87264 0.00016883 0)
(9.87273 0.000175225 0)
(9.87283 0.000108838 0)
(9.8729 -2.12451e-06 0)
(9.87293 -0.000112655 0)
(9.87292 -0.00017254 0)
(9.87286 -0.000154007 0)
(9.87279 -7.08408e-05 0)
(9.87271 3.62594e-05 0)
(9.87261 0.000123738 0)
(9.87253 0.000157413 0)
(9.87247 0.000134475 0)
(9.87248 8.36684e-05 0)
(9.87253 3.37698e-05 0)
(9.87261 -1.13701e-05 0)
(9.87266 -5.2064e-05 0)
(9.87265 -8.23985e-05 0)
(9.87259 -8.82114e-05 0)
(9.87251 -5.56925e-05 0)
(9.87248 1.034e-05 0)
(9.87247 7.61565e-05 0)
(9.87248 0.000106564 0)
(9.87246 8.68791e-05 0)
(9.87245 3.07712e-05 0)
(9.87247 -2.96101e-05 0)
(9.87252 -6.98708e-05 0)
(9.87259 -8.37181e-05 0)
(9.87263 -8.19828e-05 0)
(9.87263 -7.47557e-05 0)
(9.87257 -5.58895e-05 0)
(9.87253 -8.77059e-06 0)
(9.87254 5.69637e-05 0)
(9.8726 0.000107893 0)
(9.87265 0.000115801 0)
(9.87267 7.8891e-05 0)
(9.87269 1.50242e-05 0)
(9.8727 -4.87557e-05 0)
(9.87272 -8.68356e-05 0)
(9.87275 -9.27055e-05 0)
(9.87277 -7.98545e-05 0)
(9.87277 -6.71012e-05 0)
(9.87274 -6.05838e-05 0)
(9.87271 -4.6307e-05 0)
(9.87271 -8.99291e-06 0)
(9.87273 4.58453e-05 0)
(9.87277 9.34367e-05 0)
(9.87278 0.000111734 0)
(9.87277 9.6012e-05 0)
(9.87275 5.82348e-05 0)
(9.87273 1.63373e-05 0)
(9.87273 -1.87007e-05 0)
(9.8727 -4.51556e-05 0)
(9.87265 -6.39258e-05 0)
(9.87258 -7.58319e-05 0)
(9.8725 -8.0842e-05 0)
(9.8724 -6.78422e-05 0)
(9.87236 -2.71649e-05 0)
(9.87238 2.6813e-05 0)
(9.87242 6.51732e-05 0)
(9.87246 7.74041e-05 0)
(9.87252 7.27738e-05 0)
(9.87261 6.08271e-05 0)
(9.87269 5.05984e-05 0)
(9.8728 3.79223e-05 0)
(9.87289 1.18328e-05 0)
(9.87297 -2.84356e-05 0)
(9.87302 -7.46473e-05 0)
(9.87305 -0.000115169 0)
(9.87306 -0.000140881 0)
(9.87305 -0.000148993 0)
(9.87301 -0.000141628 0)
(9.87297 -0.000122698 0)
(9.87292 -9.77974e-05 0)
(9.87287 -6.96607e-05 0)
(9.87283 -3.05421e-05 0)
(9.87284 1.60852e-05 0)
(9.87287 5.12951e-05 0)
(9.8729 6.42957e-05 0)
(9.87297 4.53392e-05 0)
(9.37284 1.0754e-05 0)
(13.6701 0.000232151 0)
(10.3529 -0.000110918 0)
(8.98901 -5.93978e-05 0)
(9.63553 0.000610614 0)
(10.0373 0.000266985 0)
(9.94032 6.19532e-05 0)
(9.84628 -6.57154e-05 0)
(9.85924 -5.54073e-05 0)
(9.87628 -1.56763e-05 0)
(9.87506 3.8155e-05 0)
(9.87228 0.000102892 0)
(9.87223 0.00019118 0)
(9.87291 0.000137722 0)
(9.87301 0.000100569 0)
(9.87295 0.000109396 0)
(9.87257 4.4751e-05 0)
(9.87224 -0.000120118 0)
(9.87242 -0.000122037 0)
(9.87246 1.08742e-05 0)
(9.87185 -6.35111e-05 0)
(9.87202 -0.000309855 0)
(9.87214 -0.000429094 0)
(9.87255 -0.0001045 0)
(9.87239 0.000208819 0)
(9.87292 0.000228604 0)
(9.87352 0.000193644 0)
(9.87265 0.000139027 0)
(9.87285 7.95374e-05 0)
(9.87308 4.93511e-05 0)
(9.87267 -5.17032e-05 0)
(9.87263 -0.000160598 0)
(9.87249 -0.000116322 0)
(9.87232 1.62508e-05 0)
(9.87245 0.000104225 0)
(9.87254 0.000101042 0)
(9.8726 3.85109e-05 0)
(9.87271 -2.46741e-05 0)
(9.87271 -6.07346e-05 0)
(9.8727 -3.7394e-05 0)
(9.8728 3.85403e-05 0)
(9.87279 7.01649e-05 0)
(9.8726 2.41348e-05 0)
(9.87247 -1.18291e-05 0)
(9.87253 -7.41645e-06 0)
(9.8726 -3.32524e-05 0)
(9.87255 -0.000101062 0)
(9.87252 -0.000112683 0)
(9.87261 -2.29035e-05 0)
(9.87276 9.5555e-05 0)
(9.87279 0.000146574 0)
(9.87265 7.74044e-05 0)
(9.87248 -7.73899e-05 0)
(9.87251 -0.000180499 0)
(9.87265 -0.000133837 0)
(9.87269 1.14749e-05 0)
(9.87259 0.000125229 0)
(9.87255 0.000150806 0)
(9.87265 0.000110838 0)
(9.87275 2.77786e-05 0)
(9.87272 -6.30496e-05 0)
(9.87261 -0.000103832 0)
(9.87252 -5.066e-05 0)
(9.87253 4.08115e-05 0)
(9.87261 8.37566e-05 0)
(9.8727 4.71714e-05 0)
(9.87274 -2.31552e-05 0)
(9.87268 -7.01606e-05 0)
(9.87256 -5.8568e-05 0)
(9.87252 3.89771e-06 0)
(9.87258 6.52259e-05 0)
(9.87263 6.19933e-05 0)
(9.8726 3.53766e-06 0)
(9.87257 -3.48625e-05 0)
(9.87263 -1.0987e-05 0)
(9.87273 2.10963e-05 0)
(9.87275 -7.99883e-06 0)
(9.87265 -6.81731e-05 0)
(9.87253 -8.24521e-05 0)
(9.87251 -2.93416e-05 0)
(9.8726 2.42616e-05 0)
(9.87273 2.82407e-05 0)
(9.87277 4.67056e-06 0)
(9.8727 -1.98822e-06 0)
(9.87258 4.22519e-06 0)
(9.87254 -5.3325e-06 0)
(9.87262 -3.44491e-05 0)
(9.87272 -4.77569e-05 0)
(9.87276 -1.72579e-05 0)
(9.87271 3.49245e-05 0)
(9.87262 5.59547e-05 0)
(9.87261 2.24911e-05 0)
(9.87267 -4.09582e-05 0)
(9.87272 -8.7654e-05 0)
(9.87273 -7.5895e-05 0)
(9.8727 -1.17459e-05 0)
(9.87268 5.50415e-05 0)
(9.87268 7.71974e-05 0)
(9.87267 4.42209e-05 0)
(9.87265 -6.95252e-06 0)
(9.87265 -2.77829e-05 0)
(9.87266 -8.6744e-06 0)
(9.87269 1.60774e-05 0)
(9.87271 1.62073e-05 0)
(9.87271 -1.93668e-06 0)
(9.87269 -8.62277e-06 0)
(9.87267 6.14989e-06 0)
(9.87265 2.10989e-05 0)
(9.87263 1.03694e-05 0)
(9.87262 -1.55459e-05 0)
(9.87265 -1.93316e-05 0)
(9.87268 2.12122e-05 0)
(9.87268 8.27747e-05 0)
(9.8726 0.000119986 0)
(9.87249 0.000102853 0)
(9.87244 3.92414e-05 0)
(9.8725 -3.51103e-05 0)
(9.87262 -8.58352e-05 0)
(9.87272 -9.05737e-05 0)
(9.87272 -4.80381e-05 0)
(9.87263 1.49541e-05 0)
(9.87252 6.1425e-05 0)
(9.87245 6.45047e-05 0)
(9.87246 3.54389e-05 0)
(9.87254 8.12152e-06 0)
(9.87262 1.50845e-06 0)
(9.87264 3.87394e-06 0)
(9.87261 2.45268e-09 0)
(9.87254 -1.40575e-05 0)
(9.8725 -2.48329e-05 0)
(9.87252 -2.29019e-05 0)
(9.87258 -1.33425e-05 0)
(9.87264 -7.30293e-06 0)
(9.87263 -8.77553e-06 0)
(9.87258 -6.42694e-06 0)
(9.87252 1.75033e-05 0)
(9.87251 5.56655e-05 0)
(9.87253 8.27629e-05 0)
(9.87257 7.01516e-05 0)
(9.87254 1.5002e-05 0)
(9.87247 -4.9599e-05 0)
(9.87242 -6.89251e-05 0)
(9.87244 -2.60147e-05 0)
(9.87255 3.15508e-05 0)
(9.87267 3.27335e-05 0)
(9.87272 -4.86517e-05 0)
(9.87269 -0.00015827 0)
(9.87263 -0.000202971 0)
(9.8726 -0.000121824 0)
(9.87258 5.24154e-05 0)
(9.87252 0.000207325 0)
(9.87249 0.000232624 0)
(9.8725 0.000120722 0)
(9.87252 -3.20717e-05 0)
(9.87263 -0.000141645 0)
(9.87276 -0.000176103 0)
(9.87282 -0.000152519 0)
(9.87277 -0.000104515 0)
(9.87264 -4.27902e-05 0)
(9.87251 4.10466e-05 0)
(9.87248 0.000134422 0)
(9.87255 0.000185496 0)
(9.87264 0.000147415 0)
(9.87271 2.13968e-05 0)
(9.87275 -0.000134938 0)
(9.87277 -0.000236207 0)
(9.87278 -0.000228004 0)
(9.87279 -0.000122784 0)
(9.87276 1.20992e-05 0)
(9.87269 0.00011618 0)
(9.87261 0.000157898 0)
(9.8726 0.000131753 0)
(9.87265 6.11338e-05 0)
(9.87274 -1.74689e-05 0)
(9.87283 -8.07445e-05 0)
(9.87287 -0.000116691 0)
(9.87285 -0.000117249 0)
(9.87278 -7.63723e-05 0)
(9.8727 4.08319e-06 0)
(9.87262 0.000108225 0)
(9.87257 0.000197485 0)
(9.87255 0.000227572 0)
(9.87255 0.000178749 0)
(9.87254 7.60291e-05 0)
(9.87254 -2.54533e-05 0)
(9.87257 -8.68347e-05 0)
(9.87261 -9.35343e-05 0)
(9.87263 -6.16495e-05 0)
(9.87261 -1.97995e-05 0)
(9.87255 1.36191e-05 0)
(9.87249 4.05918e-05 0)
(9.87245 6.80676e-05 0)
(9.87245 9.06421e-05 0)
(9.87248 8.89573e-05 0)
(9.87251 4.7399e-05 0)
(9.87252 -2.62148e-05 0)
(9.87252 -0.000100115 0)
(9.87255 -0.000137838 0)
(9.87258 -0.000123907 0)
(9.87263 -7.03812e-05 0)
(9.87264 -1.11296e-05 0)
(9.8726 2.76801e-05 0)
(9.87256 4.15941e-05 0)
(9.87256 4.08788e-05 0)
(9.87258 3.66878e-05 0)
(9.87262 2.65319e-05 0)
(9.87266 -1.92746e-07 0)
(9.87267 -4.29815e-05 0)
(9.87266 -8.53524e-05 0)
(9.87266 -0.000105475 0)
(9.87268 -9.33253e-05 0)
(9.87271 -5.95151e-05 0)
(9.87274 -2.69237e-05 0)
(9.87274 -7.52843e-06 0)
(9.87273 6.76392e-06 0)
(9.87271 3.15317e-05 0)
(9.8727 6.55262e-05 0)
(9.8727 9.4722e-05 0)
(9.87271 0.000101585 0)
(9.8727 7.83308e-05 0)
(9.87267 3.47127e-05 0)
(9.87264 -6.3855e-06 0)
(9.87261 -2.60611e-05 0)
(9.87259 -2.26789e-05 0)
(9.87256 -8.93915e-06 0)
(9.87255 -1.15199e-06 0)
(9.87251 -6.91475e-06 0)
(9.87248 -1.3218e-05 0)
(9.87248 -6.97744e-06 0)
(9.87251 5.73128e-06 0)
(9.87254 1.42582e-05 0)
(9.8726 8.74698e-06 0)
(9.87265 -1.08279e-05 0)
(9.87267 -3.348e-05 0)
(9.87271 -5.27158e-05 0)
(9.87276 -6.9328e-05 0)
(9.87282 -8.52564e-05 0)
(9.87286 -0.000101962 0)
(9.87289 -0.000116381 0)
(9.8729 -0.000122854 0)
(9.87291 -0.000116192 0)
(9.87291 -9.66714e-05 0)
(9.87291 -6.97523e-05 0)
(9.87291 -4.24784e-05 0)
(9.87292 -2.12525e-05 0)
(9.8729 -4.5398e-06 0)
(9.8729 1.31642e-05 0)
(9.8729 2.80145e-05 0)
(9.87293 3.24399e-05 0)
(9.87296 2.26339e-05 0)
(9.37332 -6.81005e-05 0)
(13.6687 0.000165481 0)
(10.352 0.000595099 0)
(8.9872 8.69096e-05 0)
(9.63383 -0.000153739 0)
(10.0356 -0.000171473 0)
(9.93919 7.29094e-06 0)
(9.84518 0.000100241 0)
(9.85825 0.00019093 0)
(9.87622 0.000128803 0)
(9.87458 -5.37031e-05 0)
(9.87199 -0.000200828 0)
(9.87245 -0.000202918 0)
(9.87293 -0.000170399 0)
(9.87279 -8.69511e-05 0)
(9.87293 5.12557e-05 0)
(9.87319 0.000148884 0)
(9.87314 0.000141134 0)
(9.87273 3.05654e-05 0)
(9.8731 9.55243e-05 0)
(9.87335 0.000216371 0)
(9.87314 0.000189149 0)
(9.87194 -7.6359e-06 0)
(9.87198 -0.000217311 0)
(9.87256 -0.000109862 0)
(9.87165 -0.000110628 0)
(9.87174 -0.000157147 0)
(9.87267 -5.41088e-05 0)
(9.87256 -3.68009e-07 0)
(9.87249 6.17358e-05 0)
(9.87275 0.000116999 0)
(9.87249 9.85913e-05 0)
(9.87247 4.62862e-05 0)
(9.87268 -2.31001e-05 0)
(9.87265 -5.13476e-05 0)
(9.87261 -5.47375e-05 0)
(9.87266 -4.07004e-05 0)
(9.87266 1.07744e-05 0)
(9.87258 1.09008e-05 0)
(9.8725 -6.6167e-05 0)
(9.87254 -6.84118e-05 0)
(9.87265 3.55604e-05 0)
(9.8727 8.22132e-05 0)
(9.87272 1.09087e-05 0)
(9.87281 -5.41276e-05 0)
(9.87287 -2.70455e-05 0)
(9.87277 2.09243e-05 0)
(9.87258 2.68018e-06 0)
(9.87248 -5.35729e-05 0)
(9.87254 -5.87026e-05 0)
(9.87268 1.97586e-05 0)
(9.87277 9.01972e-05 0)
(9.87271 5.21437e-05 0)
(9.87258 -4.36003e-05 0)
(9.87248 -5.66798e-05 0)
(9.87244 2.73631e-05 0)
(9.87246 7.38212e-05 0)
(9.87255 1.43749e-05 0)
(9.87269 -5.72326e-05 0)
(9.87278 -4.15329e-05 0)
(9.87276 3.57003e-05 0)
(9.87265 8.27732e-05 0)
(9.87257 6.28639e-05 0)
(9.87256 1.10823e-06 0)
(9.87262 -5.94141e-05 0)
(9.8727 -7.58124e-05 0)
(9.87273 -2.99616e-05 0)
(9.87268 4.3712e-05 0)
(9.87257 7.22221e-05 0)
(9.8725 3.53268e-05 0)
(9.87254 -8.81803e-06 0)
(9.87263 -1.08382e-05 0)
(9.87265 3.33066e-06 0)
(9.87259 -1.21717e-05 0)
(9.87259 -4.82687e-05 0)
(9.87267 -5.81634e-05 0)
(9.87272 -2.71436e-05 0)
(9.87267 1.22953e-05 0)
(9.87256 2.50852e-05 0)
(9.87252 5.89743e-07 0)
(9.87258 -4.29079e-05 0)
(9.87267 -6.77071e-05 0)
(9.8727 -4.099e-05 0)
(9.87267 2.33676e-05 0)
(9.87263 6.35522e-05 0)
(9.87262 3.06221e-05 0)
(9.87266 -4.85294e-05 0)
(9.8727 -9.44341e-05 0)
(9.87269 -5.66693e-05 0)
(9.87266 2.75564e-05 0)
(9.87265 7.03842e-05 0)
(9.87268 3.02778e-05 0)
(9.87273 -4.95976e-05 0)
(9.87273 -9.52427e-05 0)
(9.87268 -6.84788e-05 0)
(9.87261 5.55003e-06 0)
(9.8726 6.83515e-05 0)
(9.87265 8.02326e-05 0)
(9.87271 4.04615e-05 0)
(9.87273 -1.61652e-05 0)
(9.87269 -4.0412e-05 0)
(9.87265 -1.63571e-05 0)
(9.87264 2.5271e-05 0)
(9.87267 4.15881e-05 0)
(9.87268 1.99635e-05 0)
(9.87267 -1.14506e-05 0)
(9.87265 -1.74002e-05 0)
(9.87264 4.62428e-06 0)
(9.87264 2.56325e-05 0)
(9.87264 2.25688e-05 0)
(9.87263 1.00696e-05 0)
(9.8726 2.45564e-05 0)
(9.87259 7.5915e-05 0)
(9.87258 0.000127056 0)
(9.87258 0.000123629 0)
(9.87258 4.95897e-05 0)
(9.8726 -5.40984e-05 0)
(9.87264 -0.000122562 0)
(9.87266 -0.000115393 0)
(9.87264 -3.88464e-05 0)
(9.87259 5.89443e-05 0)
(9.87253 0.000117813 0)
(9.8725 0.000104986 0)
(9.87251 3.2513e-05 0)
(9.87256 -4.31942e-05 0)
(9.87261 -6.4635e-05 0)
(9.87263 -2.28103e-05 0)
(9.87261 3.94742e-05 0)
(9.87256 6.37929e-05 0)
(9.87252 2.5668e-05 0)
(9.87251 -4.8075e-05 0)
(9.87255 -9.86103e-05 0)
(9.8726 -8.17768e-05 0)
(9.87264 -7.77388e-06 0)
(9.87261 7.25066e-05 0)
(9.87255 0.000106963 0)
(9.87249 8.69813e-05 0)
(9.87248 4.07188e-05 0)
(9.87252 5.50169e-06 0)
(9.87257 -2.11485e-06 0)
(9.87257 -2.10824e-07 0)
(9.87252 -7.60435e-06 0)
(9.87248 -2.88418e-05 0)
(9.8725 -5.40287e-05 0)
(9.8726 -7.40496e-05 0)
(9.8727 -9.1194e-05 0)
(9.87273 -0.000108208 0)
(9.87266 -0.000111317 0)
(9.87255 -6.78405e-05 0)
(9.87245 4.20889e-05 0)
(9.87246 0.000160797 0)
(9.87254 0.00020503 0)
(9.87261 0.000140767 0)
(9.87264 -1.00475e-05 0)
(9.87266 -0.000169225 0)
(9.87269 -0.000248231 0)
(9.87273 -0.000210133 0)
(9.87273 -9.18537e-05 0)
(9.87268 3.91038e-05 0)
(9.87256 0.000132775 0)
(9.8725 0.000163927 0)
(9.87252 0.000131011 0)
(9.87261 5.2628e-05 0)
(9.87272 -4.91301e-05 0)
(9.8728 -0.000150647 0)
(9.87282 -0.000215528 0)
(9.87278 -0.000211943 0)
(9.87273 -0.000132511 0)
(9.87269 1.8302e-06 0)
(9.87264 0.000130388 0)
(9.87262 0.000188812 0)
(9.87266 0.000152681 0)
(9.87269 4.88821e-05 0)
(9.87274 -6.67621e-05 0)
(9.87279 -0.000141359 0)
(9.87283 -0.000148793 0)
(9.87283 -9.57102e-05 0)
(9.87277 -9.7594e-06 0)
(9.87269 8.29572e-05 0)
(9.8726 0.000164488 0)
(9.87254 0.000216307 0)
(9.87253 0.000222114 0)
(9.87256 0.00017752 0)
(9.87258 9.47589e-05 0)
(9.8726 -4.78921e-06 0)
(9.8726 -8.55519e-05 0)
(9.8726 -0.000116608 0)
(9.8726 -8.90758e-05 0)
(9.87259 -2.0832e-05 0)
(9.87257 5.28305e-05 0)
(9.87252 0.000100243 0)
(9.87247 0.000110449 0)
(9.87244 9.00091e-05 0)
(9.87245 5.33877e-05 0)
(9.87249 9.03259e-06 0)
(9.87254 -4.38778e-05 0)
(9.87257 -9.94262e-05 0)
(9.87258 -0.000142576 0)
(9.87259 -0.000153513 0)
(9.87259 -0.000114786 0)
(9.87259 -3.6723e-05 0)
(9.87259 3.80491e-05 0)
(9.87259 7.50603e-05 0)
(9.87259 6.54628e-05 0)
(9.87259 3.00527e-05 0)
(9.8726 -5.76213e-06 0)
(9.87263 -3.3414e-05 0)
(9.87266 -5.56455e-05 0)
(9.87268 -7.90471e-05 0)
(9.87268 -0.000102251 0)
(9.87268 -0.000114767 0)
(9.87269 -0.000106039 0)
(9.87272 -7.41529e-05 0)
(9.87274 -2.69344e-05 0)
(9.87274 2.429e-05 0)
(9.87272 6.66001e-05 0)
(9.8727 9.26457e-05 0)
(9.87268 0.000104304 0)
(9.87268 0.000105498 0)
(9.87268 9.44878e-05 0)
(9.87267 6.96079e-05 0)
(9.87265 3.63388e-05 0)
(9.87261 6.37055e-06 0)
(9.87257 -1.05152e-05 0)
(9.87255 -1.19698e-05 0)
(9.87255 -4.91595e-06 0)
(9.87253 -1.61184e-06 0)
(9.87251 -5.33951e-06 0)
(9.87252 -1.2243e-05 0)
(9.87253 -1.8972e-05 0)
(9.87255 -2.34285e-05 0)
(9.87259 -2.60144e-05 0)
(9.87264 -3.23612e-05 0)
(9.87267 -4.80257e-05 0)
(9.8727 -7.29091e-05 0)
(9.87274 -0.000100839 0)
(9.87278 -0.000124485 0)
(9.87282 -0.000139701 0)
(9.87285 -0.000145666 0)
(9.87287 -0.000143194 0)
(9.87288 -0.000132256 0)
(9.87288 -0.000113093 0)
(9.87288 -8.84929e-05 0)
(9.87289 -6.3125e-05 0)
(9.87289 -3.82681e-05 0)
(9.87288 -1.35899e-05 0)
(9.87289 8.96995e-06 0)
(9.87289 2.59973e-05 0)
(9.8729 3.38785e-05 0)
(9.87293 2.66008e-05 0)
(9.37243 -4.31398e-05 0)
(13.6691 -8.96321e-05 0)
(10.3537 0.000193584 0)
(8.98924 0.000206575 0)
(9.63611 0.000173111 0)
(10.0369 7.75754e-05 0)
(9.93987 -0.000183679 0)
(9.84592 -0.000152886 0)
(9.85877 -0.000110507 0)
(9.87699 4.9241e-05 0)
(9.87549 0.000131981 0)
(9.87234 4.06186e-05 0)
(9.87206 8.32122e-05 0)
(9.8723 6.61198e-05 0)
(9.87237 -7.13545e-05 0)
(9.87246 -4.02392e-05 0)
(9.87229 5.63243e-05 0)
(9.87231 6.61674e-05 0)
(9.8726 -0.000113751 0)
(9.8723 -0.000172978 0)
(9.87235 2.01249e-05 0)
(9.87278 0.000177988 0)
(9.87345 0.000219456 0)
(9.87288 4.72559e-05 0)
(9.87266 -5.50356e-05 0)
(9.87363 1.81482e-05 0)
(9.87317 2.85004e-05 0)
(9.87238 -5.84465e-05 0)
(9.87236 -9.6951e-05 0)
(9.87251 -6.24541e-05 0)
(9.87252 1.07901e-05 0)
(9.87256 5.16907e-05 0)
(9.87265 1.34728e-06 0)
(9.87259 -5.26381e-05 0)
(9.87265 -4.13857e-05 0)
(9.87279 -1.31611e-05 0)
(9.87269 1.24903e-05 0)
(9.87261 5.87822e-05 0)
(9.87269 7.38965e-05 0)
(9.87262 7.28849e-07 0)
(9.87247 -6.67254e-05 0)
(9.87251 -3.96174e-05 0)
(9.87264 1.74194e-06 0)
(9.87264 -2.71366e-05 0)
(9.87255 -6.02263e-05 0)
(9.87251 -1.73776e-05 0)
(9.87253 5.92014e-05 0)
(9.87255 7.15327e-05 0)
(9.87251 4.68925e-06 0)
(9.87245 -7.47782e-05 0)
(9.87249 -9.09433e-05 0)
(9.87264 -3.16482e-05 0)
(9.87273 4.22478e-05 0)
(9.87267 6.70972e-05 0)
(9.8726 5.54367e-05 0)
(9.87262 4.88239e-05 0)
(9.87267 2.90012e-05 0)
(9.87269 -3.25388e-05 0)
(9.87265 -9.56054e-05 0)
(9.87261 -7.99132e-05 0)
(9.87259 1.93535e-05 0)
(9.87259 0.000110775 0)
(9.87262 0.000104553 0)
(9.87269 6.4658e-06 0)
(9.87273 -9.39388e-05 0)
(9.87269 -0.000109255 0)
(9.87261 -2.04557e-05 0)
(9.87256 9.66029e-05 0)
(9.87258 0.000130419 0)
(9.8726 4.814e-05 0)
(9.87262 -5.56917e-05 0)
(9.87266 -7.19295e-05 0)
(9.8727 -1.16912e-05 0)
(9.87269 2.47081e-05 0)
(9.87265 -8.20047e-06 0)
(9.87261 -5.22314e-05 0)
(9.87259 -4.15196e-05 0)
(9.87258 6.02636e-06 0)
(9.87259 2.63292e-05 0)
(9.87262 -3.55251e-06 0)
(9.87266 -4.73302e-05 0)
(9.87266 -5.90183e-05 0)
(9.87262 -3.15315e-05 0)
(9.8726 5.96852e-06 0)
(9.87261 1.72633e-05 0)
(9.87267 -8.3038e-06 0)
(9.87271 -4.552e-05 0)
(9.87271 -5.59221e-05 0)
(9.87268 -2.52397e-05 0)
(9.87266 1.89431e-05 0)
(9.87267 3.00477e-05 0)
(9.87269 -4.84066e-06 0)
(9.87271 -5.00734e-05 0)
(9.87269 -5.469e-05 0)
(9.87265 -1.29339e-05 0)
(9.87261 3.37329e-05 0)
(9.8726 4.84491e-05 0)
(9.87264 2.90615e-05 0)
(9.8727 -9.39215e-07 0)
(9.87272 -1.58418e-05 0)
(9.87269 -9.56684e-06 0)
(9.87264 8.38384e-06 0)
(9.87263 2.55959e-05 0)
(9.87266 3.20611e-05 0)
(9.87269 2.45215e-05 0)
(9.87267 9.19786e-06 0)
(9.87262 -2.31206e-06 0)
(9.87259 -2.11521e-06 0)
(9.8726 9.27024e-06 0)
(9.87264 2.4965e-05 0)
(9.87266 4.14374e-05 0)
(9.87262 6.44131e-05 0)
(9.87257 9.44071e-05 0)
(9.87255 0.000110711 0)
(9.87259 8.4331e-05 0)
(9.87266 1.22531e-05 0)
(9.8727 -6.88773e-05 0)
(9.87269 -0.000105747 0)
(9.87264 -7.22002e-05 0)
(9.87256 9.92999e-06 0)
(9.87251 8.73718e-05 0)
(9.8725 0.000114007 0)
(9.87254 8.01634e-05 0)
(9.8726 1.08433e-05 0)
(9.87263 -5.03813e-05 0)
(9.87262 -6.336e-05 0)
(9.87259 -2.0247e-05 0)
(9.87256 4.19178e-05 0)
(9.87255 7.1074e-05 0)
(9.87256 3.70329e-05 0)
(9.87258 -4.0824e-05 0)
(9.87259 -0.000104302 0)
(9.87258 -0.00010063 0)
(9.87256 -2.21211e-05 0)
(9.87255 8.25278e-05 0)
(9.87255 0.000144279 0)
(9.87254 0.000127233 0)
(9.87253 5.04551e-05 0)
(9.87253 -2.57684e-05 0)
(9.87254 -4.67955e-05 0)
(9.87257 -1.38813e-05 0)
(9.87257 1.98284e-05 0)
(9.87256 5.80951e-06 0)
(9.87255 -5.99961e-05 0)
(9.87256 -0.000135266 0)
(9.87261 -0.000167201 0)
(9.87266 -0.000133064 0)
(9.87265 -5.32493e-05 0)
(9.87259 3.54304e-05 0)
(9.87247 0.000109421 0)
(9.87244 0.000147093 0)
(9.87249 0.000129678 0)
(9.8726 5.85951e-05 0)
(9.87269 -5.45699e-05 0)
(9.87274 -0.000175494 0)
(9.87272 -0.000245292 0)
(9.87268 -0.000218022 0)
(9.87266 -9.75258e-05 0)
(9.87262 6.81083e-05 0)
(9.87256 0.000196063 0)
(9.87254 0.000215283 0)
(9.87257 0.000124123 0)
(9.87262 -1.92962e-05 0)
(9.87271 -0.000149914 0)
(9.87279 -0.000225913 0)
(9.87282 -0.000230932 0)
(9.87279 -0.000172388 0)
(9.87272 -6.99157e-05 0)
(9.87264 5.07444e-05 0)
(9.8726 0.000146894 0)
(9.87261 0.000176172 0)
(9.87267 0.000128008 0)
(9.87272 2.47153e-05 0)
(9.87277 -9.06082e-05 0)
(9.87279 -0.000167829 0)
(9.87279 -0.000171248 0)
(9.87277 -9.66036e-05 0)
(9.87273 2.59515e-05 0)
(9.87268 0.000152489 0)
(9.8726 0.000242606 0)
(9.87255 0.000270734 0)
(9.87252 0.000233956 0)
(9.87255 0.000154323 0)
(9.87259 6.26263e-05 0)
(9.87263 -2.14763e-05 0)
(9.87264 -8.14115e-05 0)
(9.87263 -0.000103578 0)
(9.8726 -8.09117e-05 0)
(9.87257 -1.74e-05 0)
(9.87253 6.53095e-05 0)
(9.87251 0.00013138 0)
(9.87249 0.000151863 0)
(9.87247 0.000118741 0)
(9.87246 4.94801e-05 0)
(9.87248 -2.73652e-05 0)
(9.87253 -9.1217e-05 0)
(9.87257 -0.000132295 0)
(9.87261 -0.000150741 0)