/*--------------------------------*- C++ -*----------------------------------*\
| =========                 |                                                 |
| \\      /  F ield         | OpenFOAM: The Open Source CFD Toolbox           |
|  \\    /   O peration     | Version:  2406                                  |
|   \\  /    A nd           | Website:  www.openfoam.com                      |
|    \\/     M anipulation  |                                                 |
\*---------------------------------------------------------------------------*/
FoamFile
{
    version     2.0;
    format      ascii;
    arch        "LSB;label=32;scalar=64";
    class       volVectorField;
    location    "0.05";
    object      U;
}
// * * * * * * * * * * * * * * * * * * * * * * * * * * * * * * * * * * * * * //

dimensions      [0 1 -1 0 0 0 0];

internalField   nonuniform List<vector> 
6250
(
(0.0646064 0.00265771 0)
(0.0738838 0.00599409 0)
(0.059251 0.00516049 0)
(0.0514715 0.00386527 0)
(0.0482943 0.00288375 0)
(0.0456317 0.00197172 0)
(0.0433159 0.00105598 0)
(0.0420359 0.000284904 0)
(0.041737 -0.000239932 0)
(0.0421083 -0.000513524 0)
(0.0428513 -0.000594539 0)
(0.0437165 -0.000578932 0)
(0.0445448 -0.000569946 0)
(0.0452843 -0.000648135 0)
(0.0459794 -0.000851397 0)
(0.0467377 -0.00116414 0)
(0.0476607 -0.00151866 0)
(0.0487534 -0.00182596 0)
(0.0498794 -0.00203988 0)
(0.050814 -0.00220274 0)
(0.0514314 -0.00244725 0)
(0.0520329 -0.00288831 0)
(0.0529903 -0.00345922 0)
(0.055488 -0.00365766 0)
(0.0636421 -0.00184479 0)
(0.059206 0.0200679 0)
(0.0319588 0.0387495 0)
(0.0294563 0.0186411 0)
(0.0271185 0.00828704 0)
(0.0258955 0.00257232 0)
(0.0247829 0.000886396 0)
(0.0241336 0.000213667 0)
(0.0241084 -5.3552e-05 0)
(0.0244522 -0.000194506 0)
(0.0249155 -0.000243658 0)
(0.0253706 -0.000246779 0)
(0.0257624 -0.000219108 0)
(0.0260955 -0.000188036 0)
(0.0263712 -0.000156973 0)
(0.0265968 -0.000128995 0)
(0.0267791 -0.000104772 0)
(0.0269267 -8.41323e-05 0)
(0.0270476 -6.79364e-05 0)
(0.0271483 -5.57591e-05 0)
(0.0272326 -4.64275e-05 0)
(0.0273028 -3.90234e-05 0)
(0.0273612 -3.29354e-05 0)
(0.0274103 -2.79627e-05 0)
(0.0274524 -2.37578e-05 0)
(0.0274891 -2.03785e-05 0)
(0.0275211 -1.75221e-05 0)
(0.0275489 -1.51178e-05 0)
(0.027573 -1.30639e-05 0)
(0.0275943 -1.13636e-05 0)
(0.0276135 -9.72544e-06 0)
(0.0276303 -8.5861e-06 0)
(0.0276449 -8.06344e-06 0)
(0.0276572 -7.69911e-06 0)
(0.0276676 -7.28413e-06 0)
(0.0276769 -6.48905e-06 0)
(0.0276856 -5.49374e-06 0)
(0.0276937 -4.30369e-06 0)
(0.0277011 -3.20284e-06 0)
(0.0277074 -2.4039e-06 0)
(0.0277126 -1.76599e-06 0)
(0.0277168 -1.46117e-06 0)
(0.0277206 -1.25114e-06 0)
(0.0277242 -9.8053e-07 0)
(0.0277278 -7.04924e-07 0)
(0.0277311 -4.09204e-07 0)
(0.0277337 -2.03068e-07 0)
(0.0277358 -1.56754e-07 0)
(0.0277374 -6.48546e-08 0)
(0.0277386 3.16971e-08 0)
(0.0277397 1.36815e-07 0)
(0.0277408 2.16411e-07 0)
(0.0277417 3.54745e-07 0)
(0.0277422 4.21626e-07 0)
(0.0277426 4.07876e-07 0)
(0.0277428 3.7125e-07 0)
(0.0277432 3.229e-07 0)
(0.027744 3.07399e-07 0)
(0.0277451 3.18908e-07 0)
(0.0277464 4.00123e-07 0)
(0.0277475 4.88793e-07 0)
(0.0277481 5.10299e-07 0)
(0.0277481 4.22915e-07 0)
(0.0277475 2.94162e-07 0)
(0.0277465 1.57813e-07 0)
(0.0277454 -1.20707e-08 0)
(0.0277447 -1.95504e-07 0)
(0.0277446 -2.71766e-07 0)
(0.027745 -2.23164e-07 0)
(0.0277458 -1.4396e-07 0)
(0.0277466 -3.94402e-08 0)
(0.0277471 -4.90945e-09 0)
(0.0277471 -1.01212e-07 0)
(0.0277466 -1.28248e-07 0)
(0.0277456 -1.81404e-07 0)
(0.0277445 -2.81378e-07 0)
(0.0277435 -3.5836e-07 0)
(0.0277429 -3.65228e-07 0)
(0.0277428 -3.00647e-07 0)
(0.0277431 -2.27153e-07 0)
(0.0277437 -1.4183e-07 0)
(0.0277444 -3.81508e-09 0)
(0.027745 1.23439e-07 0)
(0.0277454 2.64039e-07 0)
(0.0277454 3.5561e-07 0)
(0.0277452 4.20166e-07 0)
(0.0277448 4.58715e-07 0)
(0.0277445 4.88372e-07 0)
(0.0277442 5.18559e-07 0)
(0.0277442 5.53206e-07 0)
(0.0277444 6.83409e-07 0)
(0.0277448 7.81358e-07 0)
(0.0277453 8.81846e-07 0)
(0.0277458 9.39953e-07 0)
(0.0277462 9.83182e-07 0)
(0.0277465 1.00165e-06 0)
(0.0277465 1.03825e-06 0)
(0.0277463 1.02867e-06 0)
(0.027746 9.10321e-07 0)
(0.0277457 7.06888e-07 0)
(0.0277454 6.04528e-07 0)
(0.0277453 4.39597e-07 0)
(0.0277453 4.49069e-07 0)
(0.0277455 3.04972e-07 0)
(0.0277459 1.93941e-07 0)
(0.0277465 1.25934e-07 0)
(0.0277471 9.04816e-08 0)
(0.0277477 6.02062e-08 0)
(0.0277482 4.38596e-08 0)
(0.0277484 8.47994e-08 0)
(0.0277483 6.94965e-08 0)
(0.027748 8.39651e-09 0)
(0.0277476 -7.62684e-08 0)
(0.0277471 -1.66075e-07 0)
(0.0277467 -2.37729e-07 0)
(0.0277464 -2.90213e-07 0)
(0.0277462 -3.23051e-07 0)
(0.0277461 -3.46755e-07 0)
(0.0277461 -3.57601e-07 0)
(0.0277463 -4.00366e-07 0)
(0.0277466 -4.11651e-07 0)
(0.0277469 -3.94359e-07 0)
(0.0277473 -3.23606e-07 0)
(0.0277476 -2.2459e-07 0)
(0.0277478 -1.24053e-07 0)
(0.0277479 -3.40387e-08 0)
(0.0277478 2.89219e-08 0)
(0.0277476 6.95109e-08 0)
(0.0277473 1.00738e-07 0)
(0.0277468 1.20623e-07 0)
(0.0277463 1.32681e-07 0)
(0.0277458 1.37941e-07 0)
(0.0277454 1.13933e-07 0)
(0.0277452 9.72792e-08 0)
(0.0277451 1.13219e-07 0)
(0.0277452 1.35485e-07 0)
(0.0277453 1.66389e-07 0)
(0.0277456 1.91919e-07 0)
(0.027746 2.15856e-07 0)
(0.0277464 2.45216e-07 0)
(0.0277468 2.82384e-07 0)
(0.0277471 3.23792e-07 0)
(0.0277475 3.43203e-07 0)
(0.0277478 3.63274e-07 0)
(0.027748 3.93901e-07 0)
(0.0277481 4.28878e-07 0)
(0.0277481 4.49926e-07 0)
(0.027748 4.47228e-07 0)
(0.0277478 4.67914e-07 0)
(0.0277476 5.12978e-07 0)
(0.0277472 5.21873e-07 0)
(0.0277468 4.81969e-07 0)
(0.0277464 4.55686e-07 0)
(0.027746 4.72109e-07 0)
(0.0277457 4.99264e-07 0)
(0.0277453 4.75582e-07 0)
(0.0277451 4.32547e-07 0)
(0.0277448 3.87844e-07 0)
(0.0277446 3.39587e-07 0)
(0.0277445 2.57222e-07 0)
(0.0277444 1.98192e-07 0)
(0.0277444 1.74913e-07 0)
(0.0277446 7.71637e-08 0)
(0.0277449 -7.52921e-08 0)
(0.0277454 -6.28167e-08 0)
(0.0277461 -7.78408e-08 0)
(0.0277468 -7.25718e-08 0)
(0.0277476 -4.44923e-08 0)
(0.0277484 -6.24725e-08 0)
(0.0277492 -1.1421e-07 0)
(0.02775 -9.51377e-08 0)
(0.0277507 -1.51113e-08 0)
(0.0277513 9.60737e-08 0)
(0.0277518 8.27196e-08 0)
(0.0277523 9.52777e-08 0)
(0.0277527 2.94417e-08 0)
(0.0277532 4.10803e-08 0)
(0.0277536 5.9669e-08 0)
(0.027754 7.92079e-08 0)
(0.0277544 9.79761e-08 0)
(0.0277548 1.18081e-07 0)
(0.0277551 1.30739e-07 0)
(0.0277553 1.31417e-07 0)
(0.0277555 1.3127e-07 0)
(0.0277556 1.1869e-07 0)
(0.0277557 9.67986e-08 0)
(0.0277557 7.41977e-08 0)
(0.0277558 6.10357e-08 0)
(0.0277558 2.52993e-08 0)
(0.0277559 2.38766e-08 0)
(0.0277559 4.49002e-08 0)
(0.027756 7.29032e-08 0)
(0.027756 9.87602e-08 0)
(0.0277559 1.04166e-07 0)
(0.0277559 1.33624e-07 0)
(0.0277557 1.66488e-07 0)
(0.0277554 2.07796e-07 0)
(0.027755 2.49894e-07 0)
(0.0277544 2.88686e-07 0)
(0.0277537 3.21855e-07 0)
(0.0277528 3.51127e-07 0)
(0.0277518 3.81794e-07 0)
(0.0277505 4.23105e-07 0)
(0.0277491 4.75863e-07 0)
(0.0277475 5.48689e-07 0)
(0.0277457 6.54346e-07 0)
(0.0277435 8.00728e-07 0)
(0.0277409 9.83033e-07 0)
(0.0277378 1.22155e-06 0)
(0.027734 1.54644e-06 0)
(0.0277294 2.0653e-06 0)
(0.0277236 2.68834e-06 0)
(0.0277164 3.40491e-06 0)
(0.0277073 4.43149e-06 0)
(0.0276957 5.88595e-06 0)
(0.0276808 7.98032e-06 0)
(0.0276613 1.0953e-05 0)
(0.0276358 1.51973e-05 0)
(0.0276021 2.1136e-05 0)
(0.0275577 2.94641e-05 0)
(0.0274995 4.09253e-05 0)
(0.0274245 5.60683e-05 0)
(0.0273265 7.54604e-05 0)
(0.027186 0.000101307 0)
(0.0269875 0.000137988 0)
(0.0268913 0.000157047 0)
(0.0765173 0.003437 0)
(0.0957194 0.0106304 0)
(0.0827482 0.013271 0)
(0.076504 0.0128716 0)
(0.0755107 0.0111959 0)
(0.0744634 0.00864922 0)
(0.0729726 0.00548288 0)
(0.0720741 0.00229639 0)
(0.0719372 -0.000315129 0)
(0.0722955 -0.00202027 0)
(0.0729241 -0.00279067 0)
(0.073686 -0.00283835 0)
(0.0744669 -0.00253093 0)
(0.0751565 -0.00225738 0)
(0.0756794 -0.00227523 0)
(0.0760506 -0.00259674 0)
(0.0763551 -0.00298211 0)
(0.0766214 -0.00306096 0)
(0.0767095 -0.00254452 0)
(0.0762709 -0.00145257 0)
(0.0749306 -0.000240788 0)
(0.0725576 0.000236951 0)
(0.0695223 -0.000738604 0)
(0.0655432 -0.00278106 0)
(0.0591627 0.000397896 0)
(0.0607596 0.0247876 0)
(0.0624825 0.0174329 0)
(0.0586198 0.0057131 0)
(0.0545385 0.00709081 0)
(0.0549427 0.00510878 0)
(0.0553831 0.00272419 0)
(0.0559387 0.000147369 0)
(0.0565463 -0.00113348 0)
(0.0572173 -0.00169597 0)
(0.0580481 -0.00174841 0)
(0.0588015 -0.0015621 0)
(0.0594434 -0.00132573 0)
(0.0599568 -0.00109221 0)
(0.06038 -0.000890403 0)
(0.060724 -0.000724298 0)
(0.0610038 -0.000590152 0)
(0.061232 -0.000481965 0)
(0.0614207 -0.000395553 0)
(0.0615791 -0.000326458 0)
(0.0617131 -0.000271636 0)
(0.0618259 -0.000227868 0)
(0.0619208 -0.000192715 0)
(0.0620012 -0.000164009 0)
(0.0620706 -0.000140543 0)
(0.0621314 -0.00012094 0)
(0.0621846 -0.000104892 0)
(0.062231 -9.14905e-05 0)
(0.0622712 -8.01557e-05 0)
(0.0623064 -7.02451e-05 0)
(0.0623374 -6.16222e-05 0)
(0.0623647 -5.44139e-05 0)
(0.0623886 -4.81338e-05 0)
(0.0624098 -4.30162e-05 0)
(0.0624289 -3.83724e-05 0)
(0.0624464 -3.39216e-05 0)
(0.0624624 -2.96894e-05 0)
(0.0624766 -2.58635e-05 0)
(0.0624887 -2.26181e-05 0)
(0.062499 -2.01596e-05 0)
(0.0625078 -1.78442e-05 0)
(0.0625157 -1.55743e-05 0)
(0.0625229 -1.33398e-05 0)
(0.0625295 -1.12609e-05 0)
(0.0625357 -9.48119e-06 0)
(0.0625411 -8.00581e-06 0)
(0.0625457 -7.1181e-06 0)
(0.0625498 -6.46649e-06 0)
(0.0625536 -5.78036e-06 0)
(0.062557 -5.123e-06 0)
(0.0625601 -4.49326e-06 0)
(0.0625627 -3.86008e-06 0)
(0.0625646 -3.28817e-06 0)
(0.0625659 -2.83928e-06 0)
(0.0625668 -2.51332e-06 0)
(0.0625677 -2.27499e-06 0)
(0.0625688 -2.0375e-06 0)
(0.0625703 -1.74871e-06 0)
(0.062572 -1.42673e-06 0)
(0.0625738 -1.11936e-06 0)
(0.0625751 -7.59637e-07 0)
(0.0625757 -4.3922e-07 0)
(0.0625756 -3.55699e-07 0)
(0.0625749 -3.88854e-07 0)
(0.062574 -4.40728e-07 0)
(0.0625733 -4.0605e-07 0)
(0.0625731 -2.61737e-07 0)
(0.0625735 5.07548e-08 0)
(0.0625744 3.98458e-07 0)
(0.0625756 6.88573e-07 0)
(0.0625768 8.4036e-07 0)
(0.0625774 9.1748e-07 0)
(0.0625774 6.45099e-07 0)
(0.0625768 2.88682e-07 0)
(0.062576 -7.03538e-08 0)
(0.0625751 -3.65189e-07 0)
(0.0625744 -6.0268e-07 0)
(0.0625741 -7.13849e-07 0)
(0.0625743 -6.75116e-07 0)
(0.0625749 -5.56105e-07 0)
(0.0625757 -4.18767e-07 0)
(0.0625765 -2.92674e-07 0)
(0.0625771 -1.3587e-07 0)
(0.0625774 -1.52729e-07 0)
(0.0625773 -2.17116e-07 0)
(0.062577 -3.54212e-07 0)
(0.0625766 -4.9926e-07 0)
(0.0625762 -6.30602e-07 0)
(0.0625759 -7.25608e-07 0)
(0.062576 -8.29757e-07 0)
(0.0625764 -6.45692e-07 0)
(0.0625769 -4.33154e-07 0)
(0.0625776 -3.0724e-07 0)
(0.0625781 -1.21264e-07 0)
(0.0625785 5.18194e-08 0)
(0.0625786 2.23491e-07 0)
(0.0625785 3.61553e-07 0)
(0.0625782 5.69465e-07 0)
(0.0625777 4.81429e-07 0)
(0.0625772 3.17985e-07 0)
(0.0625769 1.19003e-07 0)
(0.0625769 1.48175e-09 0)
(0.0625772 -3.63607e-08 0)
(0.0625778 -9.62554e-08 0)
(0.0625786 -1.36632e-07 0)
(0.0625795 -1.27647e-07 0)
(0.0625803 -5.31144e-08 0)
(0.0625809 1.49518e-08 0)
(0.0625812 7.20282e-09 0)
(0.0625813 1.00157e-08 0)
(0.0625811 5.26279e-08 0)
(0.0625807 1.00136e-07 0)
(0.0625801 3.91112e-08 0)
(0.0625795 -3.20525e-08 0)
(0.062579 -4.80858e-08 0)
(0.0625786 -3.85592e-08 0)
(0.0625784 -5.60839e-08 0)
(0.0625784 -8.94887e-08 0)
(0.0625786 -1.15344e-07 0)
(0.0625789 -9.85207e-08 0)
(0.0625793 -6.47647e-08 0)
(0.0625796 -4.12577e-08 0)
(0.06258 -5.60901e-09 0)
(0.0625803 9.45928e-08 0)
(0.0625806 1.97243e-07 0)
(0.0625806 2.97678e-07 0)
(0.0625805 2.61341e-07 0)
(0.0625802 2.4175e-07 0)
(0.0625797 1.99149e-07 0)
(0.062579 1.47381e-07 0)
(0.0625783 8.9535e-08 0)
(0.0625776 4.21069e-08 0)
(0.062577 -4.31548e-08 0)
(0.0625766 -1.13266e-07 0)
(0.0625763 -1.22609e-07 0)
(0.0625763 -7.26358e-08 0)
(0.0625765 -1.91118e-08 0)
(0.0625768 3.299e-08 0)
(0.0625772 8.84693e-08 0)
(0.0625776 1.49415e-07 0)
(0.0625782 2.13614e-07 0)
(0.0625787 2.80674e-07 0)
(0.0625793 3.50645e-07 0)
(0.0625797 4.25028e-07 0)
(0.0625801 4.99405e-07 0)
(0.0625803 5.49443e-07 0)
(0.0625803 5.4659e-07 0)
(0.0625803 4.91798e-07 0)
(0.0625801 4.62823e-07 0)
(0.0625798 4.49187e-07 0)
(0.0625794 4.37819e-07 0)
(0.062579 3.5773e-07 0)
(0.0625785 2.84799e-07 0)
(0.0625781 1.91102e-07 0)
(0.0625777 7.05697e-08 0)
(0.0625773 -6.45049e-08 0)
(0.062577 -1.07416e-07 0)
(0.0625767 -1.43826e-07 0)
(0.0625764 -2.2801e-07 0)
(0.0625762 -3.13456e-07 0)
(0.062576 -4.77632e-07 0)
(0.062576 -4.75153e-07 0)
(0.0625762 -4.85923e-07 0)
(0.0625764 -6.57081e-07 0)
(0.0625768 -8.24843e-07 0)
(0.0625775 -8.05616e-07 0)
(0.0625783 -6.34767e-07 0)
(0.0625791 -4.77933e-07 0)
(0.06258 -5.20729e-07 0)
(0.0625808 -6.19464e-07 0)
(0.0625816 -5.22119e-07 0)
(0.0625822 -4.14633e-07 0)
(0.0625828 -2.93314e-07 0)
(0.0625834 -3.05354e-07 0)
(0.062584 -3.05311e-07 0)
(0.0625846 -2.03918e-07 0)
(0.062585 -9.75328e-08 0)
(0.0625855 -7.61527e-08 0)
(0.062586 -7.30968e-08 0)
(0.0625865 -6.45598e-09 0)
(0.0625869 9.16203e-08 0)
(0.0625872 1.95871e-07 0)
(0.0625873 2.65812e-07 0)
(0.0625874 2.77991e-07 0)
(0.0625873 2.83841e-07 0)
(0.0625873 2.67506e-07 0)
(0.0625872 2.95491e-07 0)
(0.062587 3.61266e-07 0)
(0.0625869 4.67167e-07 0)
(0.0625867 5.89054e-07 0)
(0.0625864 6.89467e-07 0)
(0.0625861 7.76109e-07 0)
(0.0625858 9.55469e-07 0)
(0.0625854 1.19042e-06 0)
(0.0625848 1.41836e-06 0)
(0.0625842 1.64191e-06 0)
(0.0625834 1.92198e-06 0)
(0.0625823 2.24449e-06 0)
(0.062581 2.61089e-06 0)
(0.0625794 3.02271e-06 0)
(0.0625775 3.49393e-06 0)
(0.0625753 4.05041e-06 0)
(0.0625727 4.71998e-06 0)
(0.0625698 5.52965e-06 0)
(0.0625664 6.48285e-06 0)
(0.0625624 7.66314e-06 0)
(0.0625577 9.11172e-06 0)
(0.0625521 1.09118e-05 0)
(0.0625454 1.31616e-05 0)
(0.0625374 1.60402e-05 0)
(0.0625278 1.97899e-05 0)
(0.062516 2.45127e-05 0)
(0.0625017 3.06561e-05 0)
(0.0624842 3.87012e-05 0)
(0.0624626 4.9329e-05 0)
(0.0624359 6.34081e-05 0)
(0.0624026 8.20858e-05 0)
(0.0623613 0.00010666 0)
(0.0623101 0.000138835 0)
(0.0622467 0.000180308 0)
(0.0621699 0.000232758 0)
(0.0620793 0.000297154 0)
(0.0619702 0.000373492 0)
(0.061817 0.000455534 0)
(0.061601 0.000520611 0)
(0.0616598 0.000522334 0)
(0.0790022 0.00192211 0)
(0.0994769 0.00755192 0)
(0.0866707 0.0114328 0)
(0.0820918 0.0127535 0)
(0.0836354 0.0119904 0)
(0.0848328 0.00958591 0)
(0.0848632 0.00617515 0)
(0.0848206 0.00261019 0)
(0.084969 -0.000396934 0)
(0.0851611 -0.00245676 0)
(0.0853538 -0.00350629 0)
(0.0855797 -0.00371543 0)
(0.085837 -0.00340637 0)
(0.0860606 -0.00294825 0)
(0.0861432 -0.00260871 0)
(0.0859922 -0.00242572 0)
(0.0855551 -0.0021878 0)
(0.0848039 -0.00153179 0)
(0.0837276 -0.000122822 0)
(0.0823973 0.00211059 0)
(0.0808627 0.00473853 0)
(0.0792038 0.00682466 0)
(0.0771241 0.00739723 0)
(0.0753629 0.00690895 0)
(0.0720459 0.00983016 0)
(0.074354 0.0238486 0)
(0.0765137 0.0208792 0)
(0.07798 0.0161372 0)
(0.0789837 0.00794091 0)
(0.0777222 0.00278465 0)
(0.077392 0.00192746 0)
(0.0777643 -2.24196e-05 0)
(0.07826 -0.00207187 0)
(0.0788252 -0.00318047 0)
(0.0793463 -0.00322695 0)
(0.0798206 -0.00287441 0)
(0.0802295 -0.00240465 0)
(0.0805813 -0.00197714 0)
(0.0808782 -0.00161421 0)
(0.08113 -0.00131831 0)
(0.0813448 -0.00108115 0)
(0.0815288 -0.000891821 0)
(0.0816864 -0.000739935 0)
(0.0818216 -0.000617661 0)
(0.081938 -0.000519118 0)
(0.0820386 -0.000439438 0)
(0.0821258 -0.000374677 0)
(0.082202 -0.000321346 0)
(0.0822686 -0.000277111 0)
(0.0823271 -0.000239872 0)
(0.0823784 -0.000208637 0)
(0.0824237 -0.000182517 0)
(0.0824639 -0.000160455 0)
(0.0824997 -0.000141829 0)
(0.0825318 -0.00012539 0)
(0.0825606 -0.000111067 0)
(0.0825865 -9.81447e-05 0)
(0.0826096 -8.66635e-05 0)
(0.08263 -7.64697e-05 0)
(0.082648 -6.75689e-05 0)
(0.082664 -5.98108e-05 0)
(0.0826783 -5.33299e-05 0)
(0.0826911 -4.77927e-05 0)
(0.0827028 -4.30586e-05 0)
(0.0827135 -3.85847e-05 0)
(0.0827233 -3.40226e-05 0)
(0.0827323 -2.97253e-05 0)
(0.0827402 -2.59328e-05 0)
(0.082747 -2.27348e-05 0)
(0.0827526 -1.98782e-05 0)
(0.0827573 -1.75928e-05 0)
(0.0827616 -1.575e-05 0)
(0.0827658 -1.36657e-05 0)
(0.0827699 -1.18388e-05 0)
(0.0827737 -1.02944e-05 0)
(0.0827769 -9.02075e-06 0)
(0.0827793 -7.90692e-06 0)
(0.0827809 -6.94509e-06 0)
(0.0827822 -6.09529e-06 0)
(0.0827834 -5.44967e-06 0)
(0.082785 -4.87893e-06 0)
(0.082787 -4.32002e-06 0)
(0.0827892 -3.9051e-06 0)
(0.0827912 -3.53242e-06 0)
(0.0827927 -3.12072e-06 0)
(0.0827934 -2.69445e-06 0)
(0.0827934 -2.32072e-06 0)
(0.0827928 -1.99613e-06 0)
(0.0827921 -1.64955e-06 0)
(0.0827916 -1.19162e-06 0)
(0.0827917 -6.74487e-07 0)
(0.0827925 -2.0221e-07 0)
(0.0827938 1.71904e-07 0)
(0.0827951 4.15535e-07 0)
(0.0827962 4.70299e-07 0)
(0.0827966 4.42427e-07 0)
(0.0827966 2.5079e-07 0)
(0.0827959 -8.46029e-08 0)
(0.082795 -3.67029e-07 0)
(0.0827941 -4.91136e-07 0)
(0.0827936 -5.09287e-07 0)
(0.0827936 -4.84358e-07 0)
(0.082794 -3.91609e-07 0)
(0.0827946 -3.00835e-07 0)
(0.0827954 -1.94953e-07 0)
(0.082796 -1.01382e-07 0)
(0.0827964 -1.28216e-07 0)
(0.0827965 -2.24997e-07 0)
(0.0827962 -3.94247e-07 0)
(0.0827957 -6.26387e-07 0)
(0.0827952 -8.80392e-07 0)
(0.0827949 -1.01937e-06 0)
(0.0827948 -1.16034e-06 0)
(0.082795 -1.27815e-06 0)
(0.0827955 -1.28813e-06 0)
(0.0827961 -1.1588e-06 0)
(0.0827968 -1.05527e-06 0)
(0.0827973 -8.69533e-07 0)
(0.0827975 -7.00865e-07 0)
(0.0827975 -5.31629e-07 0)
(0.0827972 -3.66991e-07 0)
(0.0827968 -1.82008e-07 0)
(0.0827964 -1.55243e-07 0)
(0.0827961 -1.448e-07 0)
(0.0827958 -3.44558e-07 0)
(0.0827958 -3.93991e-07 0)
(0.0827961 -5.55105e-07 0)
(0.0827967 -4.48461e-07 0)
(0.0827976 -3.64912e-07 0)
(0.0827985 -2.64368e-07 0)
(0.0827993 -1.82683e-07 0)
(0.0828 -1.15358e-07 0)
(0.0828004 -1.45895e-07 0)
(0.0828004 -1.97486e-07 0)
(0.0828001 -1.83445e-07 0)
(0.0827996 -1.18794e-07 0)
(0.0827991 -9.00486e-08 0)
(0.0827985 -5.86906e-08 0)
(0.082798 -4.54264e-08 0)
(0.0827976 -2.74729e-08 0)
(0.0827975 -5.81979e-08 0)
(0.0827975 -8.32884e-08 0)
(0.0827976 -1.06323e-07 0)
(0.0827979 2.55251e-08 0)
(0.0827983 1.17423e-07 0)
(0.0827988 1.86552e-07 0)
(0.0827992 2.18268e-07 0)
(0.0827996 2.41719e-07 0)
(0.0827999 2.75461e-07 0)
(0.0828 3.06217e-07 0)
(0.0827998 2.56391e-07 0)
(0.0827994 1.86782e-07 0)
(0.0827987 9.98912e-08 0)
(0.0827979 2.89167e-09 0)
(0.0827971 -8.64536e-08 0)
(0.0827964 -1.14154e-07 0)
(0.0827958 -1.35052e-07 0)
(0.0827953 -1.77913e-07 0)
(0.0827951 -2.10998e-07 0)
(0.0827951 -1.82793e-07 0)
(0.0827953 -1.45586e-07 0)
(0.0827957 -1.05184e-07 0)
(0.0827962 -6.92491e-08 0)
(0.0827968 -3.80469e-08 0)
(0.0827974 -9.44542e-09 0)
(0.0827981 2.15785e-08 0)
(0.0827987 9.37089e-08 0)
(0.0827992 1.80003e-07 0)
(0.0827996 2.4547e-07 0)
(0.0828 2.86342e-07 0)
(0.0828001 2.8745e-07 0)
(0.0828001 2.54794e-07 0)
(0.0827999 2.13116e-07 0)
(0.0827996 1.75117e-07 0)
(0.0827992 1.20499e-07 0)
(0.0827988 6.55389e-08 0)
(0.0827984 5.49611e-08 0)
(0.082798 3.54343e-08 0)
(0.0827976 -1.38185e-08 0)
(0.0827972 -6.89697e-08 0)
(0.0827967 -1.13101e-07 0)
(0.0827962 -1.76946e-07 0)
(0.0827958 -2.89539e-07 0)
(0.0827955 -3.95694e-07 0)
(0.0827953 -5.35723e-07 0)
(0.0827951 -6.12576e-07 0)
(0.0827952 -5.87144e-07 0)
(0.0827955 -5.75511e-07 0)
(0.082796 -7.551e-07 0)
(0.0827966 -6.7001e-07 0)
(0.0827973 -5.47408e-07 0)
(0.0827981 -4.84808e-07 0)
(0.082799 -4.50498e-07 0)
(0.0827997 -3.69048e-07 0)
(0.0828003 -2.19815e-07 0)
(0.0828009 -2.69314e-07 0)
(0.0828015 -3.09931e-07 0)
(0.0828021 -2.94686e-07 0)
(0.0828025 -2.09077e-07 0)
(0.0828029 -1.08226e-07 0)
(0.0828034 -4.15065e-08 0)
(0.0828039 -1.32476e-08 0)
(0.0828045 1.04399e-08 0)
(0.0828049 1.03567e-07 0)
(0.0828053 2.2949e-07 0)
(0.0828055 3.48032e-07 0)
(0.0828057 4.44898e-07 0)
(0.0828057 5.12795e-07 0)
(0.0828056 5.76983e-07 0)
(0.0828054 6.51049e-07 0)
(0.0828052 7.48942e-07 0)
(0.082805 8.875e-07 0)
(0.0828048 1.12269e-06 0)
(0.0828046 1.37191e-06 0)
(0.0828043 1.63583e-06 0)
(0.0828039 1.91171e-06 0)
(0.0828034 2.26436e-06 0)
(0.0828029 2.69363e-06 0)
(0.0828022 3.15729e-06 0)
(0.0828014 3.67968e-06 0)
(0.0828004 4.29065e-06 0)
(0.0827991 5e-06 0)
(0.0827975 5.81876e-06 0)
(0.0827956 6.76684e-06 0)
(0.0827933 7.87703e-06 0)
(0.0827907 9.19331e-06 0)
(0.0827877 1.07642e-05 0)
(0.0827843 1.26356e-05 0)
(0.0827803 1.4876e-05 0)
(0.0827757 1.75823e-05 0)
(0.0827703 2.08584e-05 0)
(0.0827639 2.48597e-05 0)
(0.0827564 2.97896e-05 0)
(0.0827476 3.59071e-05 0)
(0.0827372 4.35397e-05 0)
(0.0827249 5.31103e-05 0)
(0.0827103 6.51918e-05 0)
(0.082693 8.0542e-05 0)
(0.0826726 0.000100048 0)
(0.0826484 0.000124888 0)
(0.0826199 0.000156325 0)
(0.0825865 0.000195925 0)
(0.0825479 0.000245118 0)
(0.0825039 0.00030523 0)
(0.0824554 0.000376615 0)
(0.0824061 0.000458494 0)
(0.0823519 0.000547622 0)
(0.082261 0.000634356 0)
(0.082104 0.000695068 0)
(0.0823443 0.000694102 0)
(0.080664 0.00146908 0)
(0.102162 0.00613849 0)
(0.0885855 0.00967376 0)
(0.0837954 0.0110359 0)
(0.0859929 0.0103807 0)
(0.0879805 0.00815065 0)
(0.0885456 0.00504547 0)
(0.0887774 0.00186745 0)
(0.0890196 -0.000764813 0)
(0.089152 -0.00254601 0)
(0.0891815 -0.00346321 0)
(0.0891741 -0.00367082 0)
(0.0891312 -0.00339528 0)
(0.0890027 -0.00286997 0)
(0.0887592 -0.00226623 0)
(0.0884081 -0.00163117 0)
(0.0879387 -0.000872338 0)
(0.087273 0.000208118 0)
(0.0863653 0.00183965 0)
(0.0853052 0.00409818 0)
(0.0842964 0.00662148 0)
(0.0833987 0.00857085 0)
(0.0824949 0.0088604 0)
(0.0815905 0.00777314 0)
(0.0796386 0.00864262 0)
(0.0825981 0.0160869 0)
(0.0869517 0.0151797 0)
(0.0891788 0.0109218 0)
(0.0906416 0.00593535 0)
(0.0917393 0.0030275 0)
(0.0925027 0.000970842 0)
(0.0925364 -0.000974953 0)
(0.0925214 -0.00257772 0)
(0.0926049 -0.00347802 0)
(0.0925405 -0.00358575 0)
(0.0924693 -0.0032376 0)
(0.0924435 -0.00278804 0)
(0.092479 -0.00234822 0)
(0.0925387 -0.00196436 0)
(0.092612 -0.00163965 0)
(0.0926921 -0.00137092 0)
(0.0927747 -0.00115127 0)
(0.0928555 -0.000971533 0)
(0.0929316 -0.000824351 0)
(0.0930018 -0.000703248 0)
(0.0930658 -0.000603174 0)
(0.0931242 -0.00051996 0)
(0.0931778 -0.000450505 0)
(0.0932265 -0.000392113 0)
(0.0932703 -0.000342613 0)
(0.0933093 -0.000300281 0)
(0.0933439 -0.000264128 0)
(0.0933751 -0.00023302 0)
(0.0934038 -0.000206168 0)
(0.0934303 -0.000182566 0)
(0.0934549 -0.000162095 0)
(0.0934771 -0.000144147 0)
(0.0934968 -0.000128211 0)
(0.093514 -0.000114295 0)
(0.0935288 -0.000102028 0)
(0.0935419 -9.11362e-05 0)
(0.0935539 -8.12739e-05 0)
(0.093565 -7.23956e-05 0)
(0.0935754 -6.40756e-05 0)
(0.093585 -5.65088e-05 0)
(0.0935937 -4.97634e-05 0)
(0.0936015 -4.39356e-05 0)
(0.0936083 -3.8987e-05 0)
(0.0936144 -3.49274e-05 0)
(0.0936197 -3.12542e-05 0)
(0.0936245 -2.77693e-05 0)
(0.0936289 -2.45672e-05 0)
(0.093633 -2.14323e-05 0)
(0.093637 -1.86452e-05 0)
(0.0936408 -1.61893e-05 0)
(0.0936439 -1.41694e-05 0)
(0.0936462 -1.22873e-05 0)
(0.0936478 -1.07089e-05 0)
(0.093649 -9.40964e-06 0)
(0.0936501 -8.25324e-06 0)
(0.0936516 -7.25431e-06 0)
(0.0936534 -6.39793e-06 0)
(0.0936555 -5.73935e-06 0)
(0.0936574 -5.14325e-06 0)
(0.0936589 -4.65749e-06 0)
(0.0936597 -4.2113e-06 0)
(0.0936599 -3.72184e-06 0)
(0.0936596 -3.13087e-06 0)
(0.0936592 -2.49396e-06 0)
(0.0936591 -1.81928e-06 0)
(0.0936594 -1.28123e-06 0)
(0.0936601 -9.46267e-07 0)
(0.0936611 -7.57282e-07 0)
(0.0936622 -7.46469e-07 0)
(0.093663 -8.35116e-07 0)
(0.0936633 -1.05323e-06 0)
(0.0936632 -1.21606e-06 0)
(0.0936628 -1.32055e-06 0)
(0.0936622 -1.33793e-06 0)
(0.0936617 -1.20596e-06 0)
(0.0936615 -9.84108e-07 0)
(0.0936616 -7.39846e-07 0)
(0.093662 -5.2984e-07 0)
(0.0936626 -3.77415e-07 0)
(0.0936633 -3.04917e-07 0)
(0.0936637 -3.05662e-07 0)
(0.0936639 -4.38314e-07 0)
(0.0936637 -5.69252e-07 0)
(0.0936634 -7.3727e-07 0)
(0.0936629 -8.9514e-07 0)
(0.0936625 -9.36299e-07 0)
(0.0936622 -1.05026e-06 0)
(0.0936622 -1.0059e-06 0)
(0.0936625 -9.50688e-07 0)
(0.0936631 -7.30315e-07 0)
(0.0936636 -5.78843e-07 0)
(0.093664 -3.6384e-07 0)
(0.0936643 -2.00862e-07 0)
(0.0936644 -5.65875e-08 0)
(0.0936641 4.90859e-08 0)
(0.0936637 9.44452e-08 0)
(0.0936632 -3.11097e-08 0)
(0.0936627 -8.0203e-08 0)
(0.0936623 -1.1362e-07 0)
(0.0936621 -1.42321e-07 0)
(0.0936623 -2.67001e-07 0)
(0.0936627 -3.48874e-07 0)
(0.0936635 -3.33641e-07 0)
(0.0936644 -2.57659e-07 0)
(0.0936653 -1.98797e-07 0)
(0.0936662 -1.88941e-07 0)
(0.0936668 -2.26366e-07 0)
(0.0936671 -2.20445e-07 0)
(0.093667 -2.18186e-07 0)
(0.0936667 -2.28101e-07 0)
(0.0936662 -2.6028e-07 0)
(0.0936656 -2.23354e-07 0)
(0.0936651 -1.65561e-07 0)
(0.0936646 -1.5717e-07 0)
(0.0936643 -1.75271e-07 0)
(0.0936642 -1.86415e-07 0)
(0.0936643 -1.94627e-07 0)
(0.0936645 -1.66976e-07 0)
(0.0936649 -5.48199e-08 0)
(0.0936654 5.5248e-08 0)
(0.093666 1.55837e-07 0)
(0.0936665 2.51225e-07 0)
(0.0936669 2.9628e-07 0)
(0.0936671 3.29851e-07 0)
(0.0936671 3.322e-07 0)
(0.0936668 3.63457e-07 0)
(0.0936662 3.04158e-07 0)
(0.0936655 2.26443e-07 0)
(0.0936647 1.52205e-07 0)
(0.0936638 1.04674e-07 0)
(0.093663 8.43401e-08 0)
(0.0936625 9.13471e-08 0)
(0.0936621 1.01172e-07 0)
(0.093662 1.04784e-07 0)
(0.093662 1.155e-07 0)
(0.0936622 1.40901e-07 0)
(0.0936626 1.6885e-07 0)
(0.0936631 1.87639e-07 0)
(0.0936637 2.01208e-07 0)
(0.0936644 2.12794e-07 0)
(0.0936651 2.3124e-07 0)
(0.0936657 2.66825e-07 0)
(0.0936663 3.20243e-07 0)
(0.0936668 3.50159e-07 0)
(0.0936671 3.63897e-07 0)
(0.0936672 3.64674e-07 0)
(0.0936672 3.52037e-07 0)
(0.093667 3.05201e-07 0)
(0.0936667 2.5599e-07 0)
(0.0936664 2.0501e-07 0)
(0.093666 1.70431e-07 0)
(0.0936655 1.58133e-07 0)
(0.0936651 1.38372e-07 0)
(0.0936647 7.09984e-08 0)
(0.0936642 4.63453e-08 0)
(0.0936638 -9.5114e-09 0)
(0.0936634 -6.42469e-08 0)
(0.093663 -1.42241e-07 0)
(0.0936627 -2.31703e-07 0)
(0.0936624 -3.38946e-07 0)
(0.0936623 -3.66813e-07 0)
(0.0936624 -3.50765e-07 0)
(0.0936627 -3.73947e-07 0)
(0.0936631 -3.86878e-07 0)
(0.0936637 -3.09096e-07 0)
(0.0936644 -3.24362e-07 0)
(0.0936652 -2.64916e-07 0)
(0.0936659 -1.03503e-07 0)
(0.0936667 9.10717e-09 0)
(0.0936674 9.59011e-09 0)
(0.093668 -8.45441e-08 0)
(0.0936685 -1.16177e-07 0)
(0.0936689 2.01847e-09 0)
(0.0936695 1.15836e-07 0)
(0.09367 2.21449e-07 0)
(0.0936706 2.45176e-07 0)
(0.0936711 3.15771e-07 0)
(0.0936716 3.88717e-07 0)
(0.0936721 5.07945e-07 0)
(0.0936724 6.44784e-07 0)
(0.0936726 7.53166e-07 0)
(0.0936727 8.77434e-07 0)
(0.0936727 1.02146e-06 0)
(0.0936726 1.17656e-06 0)
(0.0936725 1.35372e-06 0)
(0.0936723 1.56748e-06 0)
(0.0936721 1.80822e-06 0)
(0.0936719 2.11109e-06 0)
(0.0936717 2.46354e-06 0)
(0.0936714 2.88235e-06 0)
(0.0936711 3.38031e-06 0)
(0.0936707 3.88081e-06 0)
(0.0936702 4.527e-06 0)
(0.0936696 5.23866e-06 0)
(0.0936688 6.05584e-06 0)
(0.0936679 6.9994e-06 0)
(0.0936666 8.09689e-06 0)
(0.0936651 9.36998e-06 0)
(0.0936633 1.08547e-05 0)
(0.0936612 1.25993e-05 0)
(0.0936588 1.46593e-05 0)
(0.0936561 1.70979e-05 0)
(0.093653 1.99825e-05 0)
(0.0936495 2.34102e-05 0)
(0.0936454 2.74874e-05 0)
(0.0936407 3.23723e-05 0)
(0.0936353 3.82583e-05 0)
(0.0936292 4.53913e-05 0)
(0.0936221 5.40591e-05 0)
(0.0936139 6.46554e-05 0)
(0.0936047 7.76402e-05 0)
(0.0935942 9.36668e-05 0)
(0.0935825 0.000113411 0)
(0.0935696 0.000137801 0)
(0.0935554 0.000167779 0)
(0.0935403 0.000204497 0)
(0.0935246 0.000248967 0)
(0.0935092 0.000302165 0)
(0.0934947 0.000364388 0)
(0.093484 0.000435067 0)
(0.0934815 0.000512106 0)
(0.0934823 0.000591406 0)
(0.0934465 0.000663761 0)
(0.0933371 0.000711172 0)
(0.0937146 0.00071047 0)
(0.0822939 0.00131217 0)
(0.104936 0.00552281 0)
(0.0906405 0.00871468 0)
(0.0851364 0.00988582 0)
(0.0871447 0.00914214 0)
(0.0891316 0.00691442 0)
(0.089705 0.00390457 0)
(0.0899921 0.000898442 0)
(0.0903798 -0.00150287 0)
(0.0907045 -0.00302292 0)
(0.0909353 -0.00368594 0)
(0.091114 -0.00368791 0)
(0.0912436 -0.00325588 0)
(0.0912839 -0.00256158 0)
(0.0912102 -0.00169167 0)
(0.0910238 -0.000663368 0)
(0.0907283 0.00054677 0)
(0.0903336 0.00199251 0)
(0.0899087 0.003754 0)
(0.0895306 0.00583369 0)
(0.0893501 0.00796785 0)
(0.0894167 0.00950591 0)
(0.089645 0.00965104 0)
(0.0899006 0.00830391 0)
(0.0897108 0.00785835 0)
(0.0923839 0.0103864 0)
(0.0960501 0.00862982 0)
(0.0978969 0.00567941 0)
(0.0990629 0.00320582 0)
(0.0999489 0.00127978 0)
(0.100315 -0.000167611 0)
(0.100162 -0.00126983 0)
(0.0999012 -0.00222012 0)
(0.0998043 -0.00282883 0)
(0.099573 -0.00297271 0)
(0.0992633 -0.0028013 0)
(0.0990065 -0.00251037 0)
(0.0988348 -0.00220069 0)
(0.098728 -0.00190862 0)
(0.0986643 -0.00164642 0)
(0.0986317 -0.0014172 0)
(0.0986207 -0.00122021 0)
(0.0986247 -0.00105264 0)
(0.0986388 -0.000910718 0)
(0.0986593 -0.00079048 0)
(0.0986833 -0.000688139 0)
(0.0987087 -0.000600665 0)
(0.0987345 -0.000525764 0)
(0.0987597 -0.000461802 0)
(0.0987839 -0.000407038 0)
(0.0988064 -0.000359934 0)
(0.0988272 -0.000319127 0)
(0.0988466 -0.000283364 0)
(0.0988649 -0.000251729 0)
(0.0988819 -0.000223535 0)
(0.0988979 -0.000199021 0)
(0.0989124 -0.00017759 0)
(0.0989253 -0.000159007 0)
(0.0989368 -0.000142719 0)
(0.0989473 -0.000128317 0)
(0.098957 -0.000115171 0)
(0.0989662 -0.000103068 0)
(0.0989749 -9.20056e-05 0)
(0.0989828 -8.18705e-05 0)
(0.0989898 -7.28232e-05 0)
(0.0989958 -6.48395e-05 0)
(0.0990011 -5.77455e-05 0)
(0.0990059 -5.14461e-05 0)
(0.0990102 -4.57255e-05 0)
(0.0990144 -4.0645e-05 0)
(0.0990183 -3.58771e-05 0)
(0.0990222 -3.1458e-05 0)
(0.0990258 -2.7677e-05 0)
(0.0990291 -2.42775e-05 0)
(0.0990319 -2.13331e-05 0)
(0.0990342 -1.88556e-05 0)
(0.0990359 -1.67268e-05 0)
(0.0990373 -1.4892e-05 0)
(0.0990384 -1.3271e-05 0)
(0.0990395 -1.18502e-05 0)
(0.0990409 -1.05546e-05 0)
(0.0990426 -9.31839e-06 0)
(0.0990445 -8.18309e-06 0)
(0.0990462 -7.21061e-06 0)
(0.0990477 -6.37145e-06 0)
(0.0990486 -5.66157e-06 0)
(0.099049 -4.98266e-06 0)
(0.0990489 -4.30377e-06 0)
(0.0990487 -3.6204e-06 0)
(0.0990485 -2.96808e-06 0)
(0.0990485 -2.39497e-06 0)
(0.0990489 -1.96262e-06 0)
(0.0990495 -1.73091e-06 0)
(0.0990501 -1.63652e-06 0)
(0.0990507 -1.66724e-06 0)
(0.099051 -1.72179e-06 0)
(0.099051 -1.76744e-06 0)
(0.0990508 -1.74075e-06 0)
(0.0990505 -1.61156e-06 0)
(0.0990502 -1.3697e-06 0)
(0.0990502 -1.07474e-06 0)
(0.0990504 -7.78986e-07 0)
(0.0990507 -5.4616e-07 0)
(0.0990512 -4.04938e-07 0)
(0.0990516 -3.53279e-07 0)
(0.0990518 -4.34451e-07 0)
(0.0990518 -5.28743e-07 0)
(0.0990516 -8.48275e-07 0)
(0.0990513 -1.03148e-06 0)
(0.0990509 -1.18915e-06 0)
(0.0990507 -1.23051e-06 0)
(0.0990507 -1.35592e-06 0)