/*--------------------------------*- C++ -*----------------------------------*\
| =========                 |                                                 |
| \\      /  F ield         | OpenFOAM: The Open Source CFD Toolbox           |
|  \\    /   O peration     | Version:  2406                                  |
|   \\  /    A nd           | Website:  www.openfoam.com                      |
|    \\/     M anipulation  |                                                 |
\*---------------------------------------------------------------------------*/
FoamFile
{
    version     2.0;
    format      ascii;
    arch        "LSB;label=32;scalar=64";
    class       volScalarField;
    location    "0.05";
    object      alpha.glycerin;
}
// * * * * * * * * * * * * * * * * * * * * * * * * * * * * * * * * * * * * * //

dimensions      [0 0 0 0 0 0 0];

internalField   nonuniform List<scalar> 
6250
(
-1.91096e-29
-3.32846e-25
-7.34842e-21
-1.99575e-22
0.555969
0.953742
1
1
1
1
1
1
1
1
1
1
1
1
1
1
1
1
1
1
1
1
1
1
1
1
1
1
1
1
1
1
1
1
1
1
1
1
1
1
1
1
1
1
1
1
1
1
1
1
1
1
1
1
1
1
1
1
1
1
1
1
1
1
1
1
1
1
1
1
1
1
1
1
1
1
1
1
1
1
1
1
1
1
1
1
1
1
1
1
1
1
1
1
1
1
1
1
1
1
1
1
1
1
1
1
1
1
1
1
1
1
1
1
1
1
1
1
1
1
1
1
1
1
1
1
1
1
1
1
1
1
1
1
1
1
1
1
1
1
1
1
1
1
1
1
1
1
1
1
1
1
1
1
1
1
1
1
1
1
1
1
1
1
1
1
1
1
1
1
1
1
1
1
1
1
1
1
1
1
1
1
1
1
1
1
1
1
1
1
1
1
1
1
1
1
1
1
1
1
1
1
1
1
1
1
1
1
1
1
1
1
1
1
1
1
1
1
1
1
1
1
1
1
1
1
1
1
1
1
1
1
1
1
1
1
1
1
1
1
1
1
1
1
1
1
-1.02472e-29
-1.82984e-25
-4.11196e-21
0.00201798
0.0260249
0.0106426
0.0509515
0.145615
0.289399
0.487866
0.622726
0.690011
0.722379
0.743903
0.776229
0.830116
0.916011
0.963099
0.954658
0.943225
0.942377
0.948227
0.960823
0.970685
0.97629
0.980498
0.985447
0.991074
0.995555
0.998456
0.999936
1
1
1
1
1
0.999999
1
1
1
1
1
1
1
1
1
1
1
1
1
1
1
1
1
1
1
1
1
1
1
1
1
1
1
1
1
1
1
1
1
1
1
1
1
1
1
1
1
1
1
1
1
1
1
1
1
1
1
1
1
1
1
1
1
1
1
1
1
1
1
1
1
1
1
1
1
1
1
1
1
1
1
1
1
1
1
1
1
1
1
1
1
1
1
1
1
1
1
1
1
1
1
1
1
1
1
1
1
1
1
1
1
1
1
1
1
1
1
1
1
1
1
1
1
1
1
1
1
1
1
1
1
1
1
1
1
1
1
1
1
1
1
1
1
1
1
1
1
1
1
1
1
1
1
1
1
1
1
1
1
1
1
1
1
1
1
1
1
1
1
1
1
1
1
1
1
1
1
1
1
1
1
1
1
1
1
1
1
1
1
1
1
1
1
1
1
1
1
1
1
1
1
1
1
1
1
1
1
1
1
1
1
1
1
1
1
1
1
1
1
-3.94186e-30
-7.90742e-26
-3.10142e-21
0.000518861
1.40073e-11
1.51405e-11
1.84954e-12
1.88179e-12
1.84954e-12
1.88179e-12
1.84954e-12
1.88179e-12
0.00015116
0.00271693
0.00436179
0.000933119
2.54534e-10
0.0159129
0.0816672
0.231752
0.278761
0.252612
0.200234
0.188709
0.198565
0.238448
0.305942
0.372528
0.430815
0.49961
0.592051
0.67474
0.701314
0.694573
0.666702
0.6235
0.596283
0.599072
0.633224
0.717853
0.817426
0.853437
0.849557
0.847872
0.857231
0.885327
0.919677
0.956797
0.986473
0.987156
0.970416
0.932776
0.910544
0.905837
0.911368
0.931233
0.958602
0.9892
0.999975
1
1
0.999405
0.992186
0.987004
0.988453
0.995099
0.999998
1
1
1
1
0.999864
0.999686
0.999919
1
1
1
1
1
1
1
1
1
1
1
1
1
1
1
1
1
1
1
1
1
1
1
1
1
1
1
1
1
1
1
1
1
1
1
1
1
1
1
1
1
1
1
1
1
1
1
1
1
1
1
1
1
1
1
1
1
1
1
1
1
1
1
1
1
1
1
1
1
1
1
1
1
1
1
1
1
1
1
1
1
1
1
1
1
1
1
1
1
1
1
1
1
1
1
1
1
1
1
1
1
1
1
1
1
1
1
1
1
1
1
1
1
1
1
1
1
1
1
1
1
1
1
1
1
1
1
1
1
1
1
1
1
1
1
1
1
1
1
1
1
1
1
1
1
1
1
1
1
1
1
1
1
1
1
1
1
1
1
1
1
1
1
1
1
1
1
1
1
1
1
1
1
1
1
1
-9.90532e-31
-2.47518e-26
-7.57552e-22
3.23242e-18
1.31788e-09
4.92495e-09
6.10135e-09
6.52218e-09
6.21835e-09
3.27156e-09
1.30957e-09
4.00853e-10
2.73965e-14
1.85379e-21
-2.64795e-19
7.6484e-19
2.49377e-10
2.84625e-15
-4.61803e-20
2.84624e-15
-2.27698e-20
2.84623e-15
-4.84521e-31
2.84623e-15
-2.3257e-29
6.00069e-14
3.7517e-14
2.28459e-13
1.96131e-13
2.53151e-13
1.96131e-13
7.59102e-13
6.40951e-13
1.27619e-12
1.2726e-12
1.28016e-12
1.2726e-12
4.64257e-12
4.6411e-12
1.58084e-10
1.51152e-10
0.0347579
0.097892
0.0937296
0.057855
0.038302
0.0480591
0.16917
0.432339
0.489191
0.388667
0.181243
0.0748855
0.0634829
0.0566241
0.05408
0.107755
0.373461
0.650967
0.675163
0.667059
0.626381
0.459355
0.270201
0.273006
0.430369
0.732551
0.900441
0.909335
0.887088
0.789516
0.602235
0.534518
0.575459
0.696824
0.836628
0.929895
0.982254
0.999708
1
0.995083
0.957007
0.90656
0.902473
0.919611
0.969844
0.999314
1
1
1
0.999141
0.996405
0.99763
0.999963
1
1
1
1
1
1
1
1
1
1
1
1
1
1
1
1
1
1
1
1
1
1
1
1
1
1
1
1
1
1
1
1
1
1
1
1
1
1
1
1
1
1
1
1
1
1
1
1
1
1
1
1
1
1
1
1
1
1
1
1
1
1
1
1
1
1
1
1
1
1
1
1
1
1
1
1
1
1
1
1
1
1
1
1
1
1
1
1
1
1
1
1
1
1
1
1
1
1
1
1
1
1
1
1
1
1
1
1
1
1
1
1
1
1
1
1
1
1
1
1
1
1
1
1
1
1
1
1
1
1
1
1
1
1
1
1
1
1
1
1
1
1
1
1
1
1
1
1
1
1
1
1
1
1
1
1
-1.33152e-31
-5.08287e-27
-1.29136e-22
2.26559e-11
8.42048e-10
1.97192e-09
3.72231e-09
4.78675e-09
4.68884e-09
2.87036e-09
1.93821e-09
9.43757e-10
4.0577e-10
1.69245e-10
7.2924e-11
4.10401e-11
6.04597e-11
6.37663e-11
6.71201e-11
6.67785e-11
6.26403e-11
5.48115e-11
5.22255e-11
5.65917e-11
8.13629e-11
1.1428e-10
1.99865e-10
3.09182e-10
5.49558e-10
8.91035e-10
1.20369e-09
1.20926e-09
6.96157e-11
1.36032e-09
2.59987e-08
3.59907e-08
3.96491e-08
2.77146e-08
8.0256e-09
9.54472e-09
1.268e-08
2.42492e-09
2.63646e-09
3.76402e-09
3.97094e-09
5.77857e-09
5.75443e-09
7.35454e-09
3.88639e-09
3.89149e-09
2.57787e-09
2.5849e-09
3.37399e-09
4.89163e-09
4.08304e-09
3.52105e-09
4.00226e-09
2.76222e-09
2.71769e-09
2.33394e-09
2.23827e-09
2.14525e-09
1.98219e-09
1.86126e-09
1.86591e-09
1.83572e-09
1.83817e-09
0.0320297
0.140278
0.109132
0.0109748
2.27666e-09
2.28184e-09
1.55818e-09
1.15791e-09
1.08611e-09
8.33293e-10
0.228323
0.629958
0.706067
0.60131
0.279128
0.032383
0.00182245
2.62971e-09
0.212641
0.734395
0.885204
0.87982
0.852691
0.663087
0.405206
0.44582
0.676214
0.898288
0.975379
0.976292
0.942477
0.914748
0.925479
0.966897
0.99736
0.999994
0.999979
1
1
1
1
1
1
1
1
1
1
1
1
1
1
1
1
1
1
1
1
1
1
1
1
1
1
1
1
1
1
1
1
1
1
1
1
1
1
1
1
1
1
1
1
1
1
1
1
1
1
1
1
1
1
1
1
1
1
1
1
1
1
1
1
1
1
1
1
1
1
1
1
1
1
1
1
1
1
1
1
1
1
1
1
1
1
1
1
1
1
1
1
1
1
1
1
1
1
1
1
1
1
1
1
1
1
1
1
1
1
1
1
1
1
1
1
1
1
1
1
1
1
1
1
1
1
1
1
1
1
1
1
1
1
1
1
1
1
1
1
1
1
1
1
1
1
-9.20723e-33
-6.35135e-28
-1.44076e-23
2.79209e-11
1.78251e-10
3.37919e-10
7.32965e-10
1.13552e-09
1.17114e-09
9.1703e-10
7.41589e-10
3.21419e-10
1.67993e-10
7.6287e-11
4.00711e-11
2.79553e-11
2.78275e-11
3.08968e-11
3.61779e-11
3.94163e-11
4.08362e-11
4.1018e-11
4.11122e-11
4.17088e-11
4.48629e-11
4.99058e-11
5.96939e-11
7.42592e-11
9.91304e-11
1.36507e-10
1.97867e-10
2.73085e-10
3.27795e-10
4.32237e-10
1.1203e-09
1.23661e-09
7.77137e-09
1.30655e-08
1.2276e-08
7.98095e-09
4.36391e-09
2.24474e-09
2.88253e-08
4.31991e-08
4.72388e-08
1.6993e-08
1.19014e-08
1.05028e-07
3.87893e-07
3.88332e-07
2.15657e-07
6.74441e-09
8.28546e-09
1.15404e-06
1.26979e-06
1.26665e-06
2.80006e-07
1.30046e-08
1.1258e-08
2.33227e-08
2.34685e-08
1.47311e-08
6.6598e-09
2.65855e-09
2.9139e-09
3.28025e-09
2.81307e-09
2.59822e-09
1.77418e-09
1.72427e-09
2.38854e-09
2.97866e-09
3.21786e-09
3.13222e-09
2.9761e-09
1.78921e-09
1.42943e-09
1.1925e-09
1.32511e-09
7.27279e-10
7.42978e-10
7.07548e-10
9.43365e-10
9.14243e-10
1.01235e-09
7.68628e-10
4.40741e-09
0.00650836
0.0355164
0.0266639
3.89532e-05
8.15973e-10
8.21306e-10
5.77418e-10
5.74827e-10
0.183365
0.450196
0.284686
0.0598031
0.0533948
0.224652
0.563395
0.598181
0.58727
0.685289
0.863427
0.928165
0.922987
0.912206
0.921066
0.961322
0.996769
1
1
1
1
1
1
1
1
1
1
1
1
1
1
1
1
1
1
1
1
1
1
1
1
1
1
1
1
1
1
1
1
1
1
1
1
1
1
1
1
1
1
1
1
1
1
1
1
1
1
1
1
1
1
1
1
1
1
1
1
1
1
1
1
1
1
1
1
1
1
1
1
1
1
1
1
1
1
1
1
1
1
1
1
1
1
1
1
1
1
1
1
1
1
1
1
1
1
1
1
1
1
1
1
1
1
1
1
1
1
1
1
1
1
1
1
1
1
1
1
1
1
1
1
1
1
1
1
1
1
1
1
1
1
1
1
1
1
-3.71791e-34
-4.8844e-29
-9.98912e-25
5.22553e-12
2.04316e-11
3.30029e-11
9.8126e-11
1.31708e-10
1.57141e-10
1.51402e-10
1.18712e-10
5.84321e-11
3.31327e-11
1.75835e-11
1.17308e-11
1.03037e-11
1.1014e-11
1.23772e-11
1.48508e-11
1.67208e-11
1.87609e-11
2.00477e-11
2.13255e-11
2.22453e-11
2.36486e-11
2.4981e-11
2.7641e-11
3.09843e-11
3.62746e-11
4.40161e-11
5.60306e-11
7.38987e-11
9.91694e-11
1.39254e-10
1.6288e-10
1.75032e-10
2.69425e-10
9.02482e-10
2.126e-09
2.00677e-09
1.80758e-09
2.09466e-09
5.68356e-09
4.60599e-09
4.60477e-09
3.95824e-09
4.61961e-08
7.69781e-08
5.70584e-08
2.40697e-08
8.49232e-09
3.93622e-09
4.47051e-09
5.97542e-07
7.13209e-07
1.23978e-07
1.72699e-08
1.45849e-08
1.03305e-08
7.70672e-09
5.79322e-09
3.01921e-09
3.15826e-09
7.82107e-07
2.64743e-06
2.63338e-06
1.47743e-06
2.93238e-08
7.68512e-09
6.95517e-09
6.55031e-09
6.24951e-09
5.99505e-09
5.95326e-09
5.39912e-09
5.3918e-09
4.97834e-09
4.95356e-09
4.51925e-09
4.45244e-09
4.19425e-09
4.20227e-09
4.09413e-09
4.11611e-09
3.56328e-09
2.97427e-09
1.96118e-09
1.35443e-09
9.66122e-10
9.66122e-10
9.66122e-10
1.21075e-09
1.29838e-09
1.18251e-09
7.51322e-10
5.70398e-10
5.81916e-10
5.7457e-10
5.86087e-10
5.7877e-10
7.31006e-10
5.87838e-10
6.18508e-10
5.87838e-10
6.17349e-10
0.000731709
0.11476
0.185156
0.120974
0.0771275
0.188098
0.553708
0.715968
0.717078
0.766842
0.877062
0.966266
0.997571
1
1
1
1
1
1
1
1
1
1
1
1
1
1
1
1
1
1
1
1
1
1
1
1
1
1
1
1
1
1
1
1
1
1
1
1
1
1
1
1
1
1
1
1
1
1
1
1
1
1
1
1
1
1
1
1
1
1
1
1
1
1
1
1
1
1
1
1
1
1
1
1
1
1
1
1
1
1
1
1
1
1
1
1
1
1
1
1
1
1
1
1
1
1
1
1
1
1
1
1
1
1
1
1
1
1
1
1
1
1
1
1
1
1
1
1
1
1
1
1
1
1
1
1
1
1
1
1
1
1
1
1
-9.40893e-36
-2.40555e-30
-4.4116e-26
2.45684e-13
1.75951e-12
3.14258e-12
1.04299e-11
1.44121e-11
1.71204e-11
1.50931e-11
1.25368e-11
6.36598e-12
3.95018e-12
2.71296e-12
2.43236e-12
2.58476e-12
3.16869e-12
3.76347e-12
4.7238e-12
5.49231e-12
6.48034e-12
7.16573e-12
7.89894e-12
8.40303e-12
9.02677e-12
9.53269e-12
1.03233e-11
1.12643e-11
1.26384e-11
1.46399e-11
1.76722e-11
2.21455e-11
2.89495e-11
3.9546e-11
5.22069e-11
6.98138e-11
8.57412e-11
1.11656e-10
2.41045e-10
2.96044e-10
4.89109e-10
5.84585e-10
9.60697e-10
8.8035e-10
1.62127e-09
1.79781e-09
4.76889e-09
1.07575e-08
1.35495e-08
7.06247e-09
4.28932e-09
2.45029e-09
4.18769e-09
9.55673e-09
8.82517e-08
9.50659e-08
1.64789e-08
6.91401e-09
5.37309e-09
3.73444e-09
2.98714e-09
1.66118e-09
5.06607e-09
1.26124e-06
2.60714e-06
1.62944e-06
3.56433e-08
1.90129e-08
1.2521e-08
1.21346e-08
1.1619e-08
1.1792e-08
9.29721e-09
8.99469e-09
6.99833e-09
7.03238e-09
5.71951e-09
5.56037e-09
4.66363e-09
4.56517e-09
4.08853e-09
4.04165e-09
3.6951e-09
3.65415e-09
3.36207e-09
3.3189e-09
2.93836e-09
2.85033e-09
2.49921e-09
2.45605e-09
2.38158e-09
2.38707e-09
2.33044e-09
2.30043e-09
2.19312e-09
2.22237e-09
2.26913e-09
2.51805e-09
2.83307e-09
3.37547e-09
3.94525e-09
4.32271e-09
4.37988e-09
4.1006e-09
3.26108e-09
1.60396e-09
1.56872e-09
1.58941e-09
1.53847e-09
2.57752e-09
2.13012e-09
1.94418e-09
1.73321e-09
1.7663e-09
1.73137e-09
6.77777e-09
0.0608786
0.45366
0.680539
0.733499
0.827777
0.940913
0.995782
1
1
1
1
1
1
1
1
1
1
1
1
1
1
1
1
1
1
1
1
1
1
1
1
1
1
1
1
1
1
1
1
1
1
1
1
1
1
1
1
1
1
1
1
1
1
1
1
1
1
1
1
1
1
1
1
1
1
1
1
1
1
1
1
1
1
1
1
1
1
1
1
1
1
1
1
1
1
1
1
1
1
1
1
1
1
1
1
1
1
1
1
1
1
1
1
1
1
1
1
1
1
1
1
1
1
1
1
1
1
1
1
1
1
1
1
1
1
1
1
1
1
1
1
1
1
1
-1.55564e-37
-7.83866e-32
-1.31147e-27
7.62352e-15
7.50457e-14
1.54823e-13
5.71782e-13
8.22939e-13
9.95015e-13
8.88117e-13
7.55157e-13
4.44994e-13
3.42751e-13
3.17858e-13
3.80431e-13
4.68108e-13
6.42441e-13
8.06018e-13
1.06478e-12
1.27602e-12
1.55229e-12
1.75172e-12
1.97991e-12
2.14195e-12
2.34013e-12
2.49863e-12
2.74042e-12
2.97334e-12
3.39642e-12
3.90518e-12
4.63917e-12
5.71859e-12
7.38124e-12
9.03407e-12
1.36668e-11
1.68128e-11
2.57061e-11
3.17531e-11
5.15898e-11
6.20692e-11
1.00915e-10
1.19175e-10
1.77882e-10
1.97628e-10
3.18916e-10
3.66667e-10
6.28694e-10
7.24758e-10
8.10008e-10
7.95209e-10
7.85757e-10
7.98963e-10
1.01314e-09
1.28918e-09
1.88267e-09
2.3114e-09
2.56766e-09
2.64225e-09
2.61311e-09
2.21863e-09
2.24442e-09
1.48079e-09
4.83868e-09
7.08209e-08
2.80882e-07
2.63236e-07
4.83784e-08
2.06805e-08
8.42121e-09
1.07259e-08
8.78476e-09
8.58257e-09
7.31582e-09
7.35404e-09
5.84561e-09
5.67011e-09
4.51139e-09
4.36461e-09
3.51522e-09
3.37312e-09
2.76687e-09
2.64619e-09
2.20757e-09
2.1139e-09
1.82172e-09
1.75188e-09
1.57683e-09
1.5409e-09
1.43614e-09
1.40563e-09
1.30292e-09
1.27113e-09
1.1772e-09
1.14459e-09
1.07323e-09
1.04398e-09
9.90391e-10
9.73608e-10
9.66625e-10
9.91773e-10
1.04789e-09
1.13126e-09
1.30509e-09
1.49634e-09
2.37828e-09
2.80811e-09
5.66008e-09
7.65958e-09
8.65034e-09
8.21344e-09
7.85371e-09
5.71176e-09
5.12595e-09
4.40377e-09
3.12664e-09
2.23704e-09
1.65166e-09
1.67702e-09
1.61591e-09
2.949e-09
6.01344e-09
1.09124e-08
0.356282
0.857115
0.917521
0.961626
0.997662
1
1
1
1
1
1
1
1
1
1
1
1
1
1
1
1
1
1
1
1
1
1
1
1
1
1
1
1
1
1
1
1
1
1
1
1
1
1
1
1
1
1
1
1
1
1
1
1
1
1
1
1
1
1
1
1
1
1
1
1
1
1
1
1
1
1
1
1
1
1
1
1
1
1
1
1
1
1
1
1
1
1
1
1
1
1
1
1
1
1
1
1
1
1
1
1
1
1
1
1
1
1
1
1
1
1
1
1
1
1
1
1
1
1
1
1
1
1
1
1
1
1
1
-1.69164e-39
-1.68821e-33
-2.71377e-29
1.51644e-16
1.92009e-15
4.5079e-15
1.82972e-14
2.71784e-14
3.43867e-14
3.21849e-14
2.8602e-14
2.23044e-14
2.34667e-14
2.85692e-14
4.24625e-14
5.78296e-14
8.67163e-14
1.13932e-13
1.57355e-13
1.93195e-13
2.41055e-13
2.76738e-13
3.20949e-13
3.54466e-13
3.99451e-13
4.36012e-13
4.91332e-13
5.42992e-13
6.35401e-13
7.28913e-13
9.05981e-13
1.03796e-12
1.50098e-12
1.76322e-12
2.79459e-12
3.3749e-12
5.28266e-12
6.2742e-12
9.71424e-12
1.15126e-11
1.75836e-11
2.0492e-11
2.97873e-11
3.41166e-11
4.90577e-11
5.46388e-11
7.46328e-11
8.2759e-11
9.17455e-11
9.81973e-11
1.09645e-10
1.20902e-10
1.42985e-10
1.6243e-10
1.98504e-10
2.29286e-10
2.84859e-10
3.33063e-10
4.25424e-10
4.98942e-10
7.49665e-10
9.33041e-10
2.6222e-09
5.02949e-09
5.68029e-09
1.01369e-08
8.1102e-09
7.10104e-09
5.04688e-09
4.8594e-09
3.86753e-09
3.72307e-09
3.05576e-09
2.9308e-09
2.41229e-09
2.28266e-09
1.84585e-09
1.73339e-09
1.39864e-09
1.30576e-09
1.06053e-09
9.92394e-10
8.19284e-10
7.6457e-10
6.36777e-10
5.98866e-10
5.16082e-10
4.90368e-10
4.27734e-10
4.02683e-10
3.44896e-10
3.21297e-10
2.80006e-10
2.63308e-10
2.32146e-10
2.19388e-10
2.03132e-10
2.00145e-10
2.01829e-10
2.14682e-10
2.37859e-10
2.79363e-10
3.84074e-10
5.00743e-10
7.6446e-10
9.72422e-10
1.44395e-09
1.65318e-09
2.25729e-09
2.28426e-09
3.15647e-09
3.46786e-09
5.21262e-09
5.47931e-09
5.53392e-09
5.04654e-09
4.49391e-09
3.09368e-09
2.66118e-09
2.3671e-09
1.14748e-09
8.77657e-10
7.56949e-10
5.4413e-09
2.00338e-09
0.0525831
0.702877
0.992493
0.999769
1
1
1
1
1
1
1
1
1
1
1
1
1
1
1
1
1
1
1
1
1
1
1
1
1
1
1
1
1
1
1
1
1
1
1
1
1
1
1
1
1
1
1
1
1
1
1
1
1
1
1
1
1
1
1
1
1
1
1
1
1
1
1
1
1
1
1
1
1
1
1
1
1
1
1
1
1
1
1
1
1
1
1
1
1
1
1
1
1
1
1
1
1
1
1
1
1
1
1
1
1
1
1
1
1
1
1
1
1
1
1
1
1
1
1
1
1
1
1
1
1
-1.15953e-41
-2.27513e-35
-3.81585e-31
3.23867e-18
2.86787e-17
8.48595e-17
3.3185e-16
5.22701e-16
6.79614e-16
7.15755e-16
7.50963e-16
7.93992e-16
1.23685e-15
1.75659e-15
3.05394e-15
4.51754e-15
7.22899e-15
9.85195e-15
1.41161e-14
1.76931e-14
2.26728e-14
2.65616e-14
3.13352e-14
3.58329e-14
4.07786e-14
4.81143e-14
5.37139e-14
6.39132e-14
7.66885e-14
8.5828e-14
1.17202e-13
1.34731e-13
2.0601e-13
2.46204e-13
3.90735e-13
4.67765e-13
7.27156e-13
8.59162e-13
1.30603e-12
1.53617e-12
2.29332e-12
2.65844e-12
3.81718e-12
4.3912e-12
5.97576e-12
6.84533e-12
8.36187e-12
9.56543e-12
1.12445e-11
1.26644e-11
1.49268e-11
1.69382e-11
2.02789e-11
2.32732e-11
2.83541e-11
3.30492e-11
4.12376e-11
4.85774e-11
6.29699e-11
7.65593e-11
1.07622e-10
1.49742e-10
2.27171e-10
3.34123e-10
4.54844e-10
5.60195e-10
6.05065e-10
6.19638e-10
6.01001e-10
5.94894e-10
5.4814e-10
5.25105e-10
4.66856e-10
4.45295e-10
3.82598e-10
3.59188e-10
3.02471e-10
2.81252e-10
2.32143e-10
2.14043e-10
1.75634e-10
1.62832e-10
1.35078e-10
1.24873e-10
1.0411e-10
9.72377e-11
8.34932e-11
7.85923e-11
6.78441e-11
6.34703e-11
5.33989e-11
4.9046e-11
4.21785e-11
3.94381e-11
3.49004e-11
3.30531e-11
3.1105e-11
3.09439e-11
3.15273e-11
3.31823e-11
3.78208e-11
4.35032e-11
5.60767e-11
7.16582e-11
1.03815e-10
1.24358e-10
1.87436e-10
2.13084e-10
3.07383e-10
3.47567e-10
5.06354e-10
5.79133e-10
8.43778e-10
9.4311e-10
1.13651e-09
1.17504e-09
1.25311e-09
1.26874e-09
1.28177e-09
1.22163e-09
1.17006e-09
9.97425e-10
7.97727e-10
5.95919e-10
2.52786e-10
1.31465e-11
1.37201e-11
1.24284e-11
0.470375
0.994005
1
1
1
1
1
1
1
1
1
1
1
1
1
1
1
1
1
1
1
1
1
1
1
1
1
1
1
1
1
1
1
1
1
1
1
1
1
1
1
1
1
1
1
1
1
1
1
1
1
1
1
1
1
1
1
1
1
1
1
1
1
1
1
1
1
1
1
1
1
1
1
1
1
1
1
1
1
1
1
1
1
1
1
1
1
1
1
1
1
1
1
1
1
1
1
1
1
1
1
1
1
1
1
1
1
1
1
1
1
1
1
1
1
1
1
1
1
1
1
1
-4.3343e-44
-1.61459e-37
-3.14555e-33
2.75944e-20
2.28002e-19
9.38969e-19
2.90601e-18
5.09178e-18
7.26628e-18
9.4373e-18
1.39236e-17
2.25856e-17
4.11518e-17
6.53417e-17
1.28866e-16
2.10534e-16
3.28109e-16
4.77082e-16
6.26728e-16
8.70916e-16
1.12816e-15
1.35711e-15
1.66153e-15
1.9624e-15
2.34619e-15
2.79024e-15
3.3849e-15
3.9602e-15
4.99048e-15
6.03835e-15
8.38872e-15
1.04959e-14
1.55786e-14
1.9158e-14
3.07417e-14
3.67739e-14
5.69996e-14
6.74508e-14
1.01813e-13
1.18878e-13
1.74615e-13
2.03208e-13
2.85673e-13
3.23188e-13
4.44924e-13
5.30217e-13
6.63251e-13
7.74525e-13
9.59045e-13
1.12123e-12
1.37397e-12
1.59506e-12
1.9514e-12
2.26794e-12
2.7957e-12
3.28234e-12
4.10631e-12
4.86086e-12
6.15791e-12
7.57884e-12
9.53438e-12
1.21746e-11
1.56227e-11
1.98302e-11
2.45566e-11
2.9269e-11
3.34605e-11
3.68031e-11
3.74025e-11
3.99574e-11
4.03322e-11
3.99874e-11
3.8104e-11
3.68532e-11
3.281e-11
3.09278e-11
2.64751e-11
2.46717e-11
2.07023e-11
1.92337e-11
1.60253e-11
1.4781e-11
1.2161e-11
1.12088e-11
9.24794e-12
8.53061e-12
7.07076e-12
6.52454e-12
5.34763e-12
4.86326e-12
3.90882e-12
3.52102e-12
2.93458e-12
2.6907e-12
2.36502e-12
2.2594e-12
2.2247e-12
2.31223e-12
2.54036e-12
2.90021e-12
3.75859e-12
4.84862e-12
7.25655e-12
9.59129e-12
1.44757e-11
1.78509e-11
2.73368e-11
3.12186e-11
4.23709e-11
4.77025e-11
6.27666e-11
7.0192e-11
8.68838e-11
9.58963e-11
1.19277e-10
1.31364e-10
1.57391e-10
1.67026e-10
1.91906e-10
2.02609e-10
2.26319e-10
2.39126e-10
2.52232e-10
2.42913e-10
2.21519e-10
1.52164e-10
7.79594e-11
1.2457e-11
4.98255e-09
0.172657
0.911162
1
1
1
1
1
1
1
1
1
1
1
1
1
1
1
1
1
1
1
1
1
1
1
1
1
1
1
1
1
1
1
1
1
1
1
1
1
1
1
1
1
1
1
1
1
1
1
1
1
1
1
1
1
1
1
1
1
1
1
1
1
1
1
1
1
1
1
1
1
1
1
1
1
1
1
1
1
1
1
1
1
1
1
1
1
1
1
1
1
1
1
1
1
1
1
1
1
1
1
1
1
1
1
1
1
1
1
1
1
1
1
1
1
1
1
1
1
1
1
-5.1025e-47
-3.95478e-40
-4.81915e-36
6.64192e-23
6.50644e-22
3.44948e-21
1.24218e-20
3.45967e-20
9.32989e-20
2.29509e-19
5.42497e-19
1.10544e-18
2.26002e-18
4.08062e-18
7.47652e-18
1.27894e-17
1.89908e-17
3.18765e-17
4.48315e-17
6.92037e-17
8.86973e-17
1.34444e-16
1.85202e-16
2.42259e-16
3.14169e-16
4.00875e-16
5.04722e-16
6.08994e-16
7.99645e-16
9.78399e-16
1.30634e-15
1.62765e-15
2.25909e-15
2.68664e-15
4.07509e-15
4.79791e-15
7.18968e-15
8.43306e-15
1.2321e-14
1.43469e-14
2.02708e-14
2.32342e-14
3.20847e-14
3.73331e-14
4.73747e-14
5.68345e-14
7.09456e-14
8.30306e-14
1.03787e-13
1.22148e-13
1.4968e-13
1.73061e-13
2.09126e-13
2.40681e-13
2.91429e-13
3.37136e-13
4.09834e-13
4.72051e-13
5.72393e-13
6.75939e-13
7.99423e-13
9.5013e-13
1.12323e-12
1.31546e-12
1.51896e-12
1.72326e-12
1.85241e-12
2.08458e-12
2.15918e-12
2.21379e-12
2.17371e-12
2.10691e-12
1.89993e-12
1.79376e-12
1.51699e-12
1.40313e-12
1.15233e-12
1.05234e-12
8.38768e-13
7.58468e-13
5.97084e-13
5.38407e-13
4.26731e-13
3.88002e-13
3.16861e-13
2.9226e-13
2.48453e-13
2.33313e-13
2.05294e-13
1.92175e-13
1.76839e-13
1.69511e-13
1.62809e-13
1.60835e-13
1.62748e-13
1.7137e-13
1.8598e-13
2.0698e-13
2.51079e-13
2.98192e-13
3.87159e-13
4.79467e-13
6.42605e-13
7.91499e-13
1.10947e-12
1.33469e-12
2.07568e-12
2.43762e-12
3.87302e-12
4.70796e-12
7.6528e-12
9.4182e-12
1.37166e-11
1.61083e-11
2.12793e-11
2.36188e-11
2.80359e-11
2.96024e-11
3.52285e-11
3.88e-11
4.61018e-11
5.03315e-11
5.7437e-11
5.98899e-11
5.96949e-11
5.32835e-11
3.88334e-11
1.85221e-11
1.53803e-11
1.55213e-11
0.559909
1
1
1
1
1
1
1
1
1
1
1
1
1
1
1
1
1
1
1
1
1
1
1
1
1
1
1
1
1
1
1
1
1
1
1
1
1
1
1
1
1
1
1
1
1
1
1
1
1
1
1
1
1
1
1
1
1
1
1
1
1
1
1
1
1
1
1
1
1
1
1
1
1
1
1
1
1
1
1
1
1
1
1
1
1
1
1
1
1
1
1
1
1
1
1
1
1
1
1
1
1
1
1
1
1
1
1
1
1
1
1
1
1
1
1
1
1
1
1
-2.28935e-47
-3.55745e-38
-3.4682e-34
3.79441e-21
3.80136e-20
2.24931e-19
9.89981e-19
3.63416e-18
1.04144e-17
2.43003e-17
5.76044e-17
8.85224e-17
2.07712e-16
2.55898e-16
5.39243e-16
8.44383e-16
1.34307e-15
1.86353e-15
2.79539e-15
3.74329e-15
5.47266e-15
7.11435e-15
9.83462e-15
1.22959e-14
1.61959e-14
1.96342e-14
2.49745e-14
2.95161e-14
3.73265e-14
4.42641e-14
5.64667e-14
6.77692e-14
8.84373e-14
1.02111e-13
1.45503e-13
1.67585e-13
2.38721e-13
2.74966e-13
3.85711e-13
4.40678e-13
6.15005e-13
6.72607e-13
9.21117e-13
1.0861e-12
1.3237e-12
1.52004e-12
1.82349e-12
2.08411e-12
2.50219e-12
2.85759e-12
3.38045e-12
3.82242e-12
4.50628e-12
5.10358e-12
6.06215e-12
6.92374e-12
8.33202e-12
9.81215e-12
1.16727e-11
1.38404e-11
1.67307e-11
2.04269e-11
2.46661e-11
2.91684e-11
3.16327e-11
3.79642e-11
4.0298e-11
4.39156e-11
4.51081e-11
4.53398e-11
4.39834e-11
4.23651e-11
3.80296e-11
3.59263e-11
3.02342e-11
2.78763e-11
2.26887e-11
2.07157e-11
1.64109e-11
1.47352e-11
1.13396e-11
1.01407e-11
7.79944e-12
6.96732e-12
5.3867e-12
4.84494e-12
3.88519e-12
3.56346e-12
2.97778e-12
2.73383e-12
2.44043e-12
2.35173e-12
2.28136e-12
2.29875e-12
2.35814e-12
2.49382e-12
2.69373e-12
2.97176e-12
3.5424e-12
4.15935e-12
5.43332e-12
6.89643e-12
9.78617e-12
1.25576e-11
1.868e-11
2.29288e-11
3.54095e-11
4.07413e-11
5.70721e-11
6.62609e-11
8.78236e-11
9.91007e-11
1.29111e-10
1.45555e-10
1.85951e-10
2.0548e-10
2.44687e-10
2.58104e-10
2.90067e-10
3.03319e-10
3.25029e-10
3.36154e-10
3.39395e-10
3.26638e-10
3.04466e-10
2.0794e-10
1.02136e-10
1.27496e-11
6.06746e-09
0.172233
0.910876
1
1
1
1
1
1
1
1
1
1
1
1
1
1
1
1
1
1
1
1
1
1
1
1
1
1
1
1
1
1
1
1
1
1
1
1
1
1
1
1
1
1
1
1
1
1
1
1
1
1
1
1
1
1
1
1
1
1
1
1
1
1
1
1
1
1
1
1
1
1
1
1
1
1
1
1
1
1
1
1
1
1
1
1
1
1
1
1
1
1
1
1
1
1
1
1
1
1
1
1
1
1
1
1
1
1
1
1
1
1
1
1
1
1
1
1
1
1
1
-6.24205e-45
-4.65945e-36
-5.33836e-32
7.01019e-19
5.19681e-18
1.98167e-17
7.57414e-17
2.00823e-16
5.47961e-16
9.16715e-16
2.56882e-15
3.64538e-15
7.44626e-15
1.06474e-14
1.67099e-14
2.28979e-14
3.43738e-14
4.54242e-14
6.48067e-14
8.30461e-14
1.1477e-13
1.44069e-13
1.92201e-13
2.34821e-13
2.98721e-13
3.51823e-13
4.40499e-13
5.1387e-13
6.22489e-13
7.14364e-13
8.68398e-13
1.00516e-12
1.24935e-12
1.4092e-12
1.90545e-12
2.15513e-12
2.95693e-12
3.36556e-12
4.60757e-12
5.04031e-12
7.12391e-12
8.71344e-12
1.10397e-11
1.28708e-11
1.53446e-11
1.72563e-11
2.03305e-11
2.30185e-11
2.71968e-11
3.07235e-11
3.59744e-11
4.01575e-11
4.66394e-11
5.20083e-11
6.08724e-11
6.86625e-11
8.33429e-11
1.00365e-10
1.25659e-10
1.59145e-10
2.14364e-10
2.90738e-10
3.74245e-10
4.52965e-10
4.98108e-10
5.56012e-10
5.67216e-10
5.80536e-10
5.71896e-10
5.60587e-10
5.16525e-10
4.94627e-10
4.2209e-10
3.93747e-10
3.2555e-10
3.004e-10
2.42099e-10
2.21412e-10
1.74798e-10
1.57178e-10
1.20453e-10
1.07759e-10
8.27338e-11
7.42038e-11
5.8332e-11
5.31294e-11
4.39458e-11
4.09415e-11
3.5896e-11
3.40016e-11
3.13655e-11
3.05044e-11
2.98464e-11
2.99438e-11
3.05017e-11
3.12684e-11
3.31207e-11
3.50124e-11
3.83244e-11
4.19206e-11
4.88453e-11
5.59644e-11
6.96658e-11
8.32385e-11
1.15376e-10
1.36405e-10
2.10132e-10
2.42854e-10
3.7835e-10
4.48561e-10
6.93828e-10
8.22113e-10
1.30208e-09
1.52562e-09
1.9923e-09
2.10669e-09
2.31168e-09
2.31919e-09
2.34843e-09
2.04992e-09
1.81368e-09
1.32059e-09
9.55439e-10
6.52314e-10
2.51982e-10
1.36297e-11
1.43846e-11
1.26962e-11
0.469302
0.993904
1
1
1
1
1
1
1
1
1
1
1
1
1
1
1
1
1
1
1
1
1
1
1
1
1
1
1
1
1
1
1
1
1
1
1
1
1
1
1
1
1
1
1
1
1
1
1
1
1
1
1
1
1
1
1
1
1
1
1
1
1
1
1
1
1
1
1
1
1
1
1
1
1
1
1
1
1
1
1
1
1
1
1
1
1
1
1
1
1
1
1
1
1
1
1
1
1
1
1
1
1
1
1
1
1
1
1
1
1
1
1
1
1
1
1
1
1
1
1
1
-9.23775e-43
-3.39322e-34
-3.46574e-30
5.79643e-17
4.41261e-16
1.02317e-15
3.86191e-15
6.18239e-15
1.76e-14
2.64093e-14
6.24278e-14
8.261e-14
1.48749e-13
1.97423e-13
2.80732e-13
3.5781e-13
4.90003e-13
6.12987e-13
8.21053e-13
1.00972e-12
1.3196e-12
1.6068e-12
2.07081e-12
2.46526e-12
3.0391e-12
3.49161e-12
4.16555e-12
4.7119e-12
5.52534e-12
6.20961e-12
7.2912e-12
7.97259e-12
9.92983e-12
1.08823e-11
1.39328e-11
1.54875e-11
2.04031e-11
2.21877e-11
3.05519e-11
3.70605e-11
4.82635e-11
5.95701e-11
8.00137e-11
9.20593e-11
1.1017e-10
1.21248e-10
1.38604e-10
1.53247e-10
1.82073e-10
2.08818e-10
2.55131e-10
2.90157e-10
3.41582e-10
3.81114e-10
4.35648e-10
4.76607e-10
5.579e-10
6.57345e-10
8.94297e-10
1.37378e-09
2.22837e-09
4.74547e-09
4.89334e-09
6.41835e-09
5.37255e-09
5.05203e-09
3.95133e-09
3.83756e-09
3.42222e-09
3.35662e-09
2.87813e-09
2.76311e-09
2.27514e-09
2.15682e-09
1.74221e-09
1.63053e-09
1.29427e-09
1.20105e-09
9.4838e-10
8.68607e-10
6.73999e-10
6.13778e-10
4.78462e-10
4.34759e-10
3.45479e-10
3.17539e-10
2.64402e-10
2.46023e-10
2.20079e-10
2.0946e-10
1.94384e-10
1.89954e-10
1.85885e-10
1.86224e-10
1.87518e-10
1.92293e-10
1.99723e-10
2.07663e-10
2.21819e-10
2.36591e-10
2.66695e-10
3.00484e-10
3.6774e-10
4.06154e-10
6.12436e-10
6.66684e-10
1.22626e-09
1.42583e-09
2.28718e-09
2.44499e-09
3.69069e-09
3.88099e-09
8.06864e-09
9.82365e-09
1.07369e-08
1.01733e-08
9.86702e-09
5.62129e-09
4.11393e-09
2.86165e-09
1.57287e-09
4.4666e-10
1.31407e-10
1.61141e-11
1.42675e-11
0.0520073
0.701709
0.992481
0.999767
1
1
1
1
1
1
1
1
1
1
1
1
1
1
1
1
1
1
1
1
1
1
1
1
1
1
1
1
1
1
1
1
1
1
1
1
1
1
1
1
1
1
1
1
1
1
1
1
1
1
1
1
1
1
1
1
1
1
1
1
1
1
1
1
1
1
1
1
1
1
1
1
1
1
1
1
1
1
1
1
1
1
1
1
1
1
1
1
1
1
1
1
1
1
1
1
1
1
1
1
1
1
1
1
1
1
1
1
1
1
1
1
1
1
1
1
1
1
1
1
1
-8.59597e-41
-1.57616e-32
-1.42608e-28
2.13298e-15
2.36486e-14
4.80332e-14
1.32742e-13
1.78275e-13
3.52415e-13
4.69556e-13
9.21682e-13
1.14155e-12
1.81155e-12
2.27441e-12
2.96353e-12
3.53852e-12
4.4382e-12
5.28708e-12
6.76398e-12
8.0962e-12
1.01273e-11
1.18394e-11
1.42241e-11
1.61203e-11
1.92479e-11
2.17965e-11
2.5291e-11
2.80743e-11
3.21282e-11
3.53958e-11
4.02924e-11
4.3284e-11
5.16435e-11
5.56955e-11
6.82677e-11
7.2474e-11
9.35566e-11
1.08148e-10
1.39563e-10
1.66373e-10
2.19284e-10
2.71532e-10
5.10792e-10
6.77298e-10
8.88131e-10
9.339e-10
9.1428e-10
8.74393e-10
9.65294e-10
1.19016e-09
2.20685e-09
3.13155e-09
3.74298e-09
4.15479e-09
4.18822e-09
3.95359e-09
3.01925e-09
2.37966e-09
2.67096e-09
4.46551e-09
1.9284e-08
1.31929e-07
2.00437e-07
9.97371e-08
4.74559e-09
6.56881e-09
6.47234e-09
6.65432e-09
6.5995e-09
6.63145e-09
5.81096e-09
5.67321e-09
4.54845e-09
4.43428e-09
3.61404e-09
3.48867e-09
2.8206e-09
2.67525e-09
2.13725e-09
2.02171e-09
1.63087e-09
1.52484e-09
1.22261e-09
1.13879e-09
9.49278e-10
8.9796e-10
8.16497e-10
8.01391e-10
7.97461e-10
8.0824e-10
8.14523e-10
8.4622e-10
8.64744e-10
9.19844e-10
9.53827e-10
9.90927e-10
1.02689e-09
1.04963e-09
1.08679e-09
1.10625e-09
1.16685e-09
1.20881e-09
1.24568e-09
1.22335e-09
1.386e-09
1.1318e-10
6.33013e-09
1.01348e-08
1.76439e-08
1.72245e-08
1.76302e-08
1.41036e-08
1.09438e-08
5.15428e-09
3.96889e-09
2.51323e-09
1.48714e-09
7.89912e-10
2.19067e-10
-1.04699e-11
-2.16845e-11
5.37147e-09
0.35437
0.856682
0.917535
0.961565
0.997641
1
1
1
1
1
1
1
1
1
1
1
1
1
1
1
1
1
1
1
1
1
1
1
1
1
1
1
1
1
1
1
1
1
1
1
1
1
1
1
1
1
1
1
1
1
1
1
1
1
1
1
1
1
1
1
1
1
1
1
1
1
1
1
1
1
1
1
1
1
1
1
1
1
1
1
1
1
1
1
1
1
1
1
1
1
1
1
1
1
1
1
1
1
1
1
1
1
1
1
1
1
1
1
1
1
1
1
1
1
1
1
1
1
1
1
1
1
1
1
1
1
1
1
-5.2499e-39
-4.86806e-31
-4.02183e-27
6.84236e-14
7.36985e-13
1.39862e-12
3.02145e-12
3.51612e-12
4.75179e-12
5.49787e-12
8.66508e-12
9.90685e-12
1.49728e-11
1.7471e-11
2.0808e-11
2.34685e-11
2.76079e-11
3.14605e-11
3.8029e-11
4.40693e-11
5.30111e-11
5.98705e-11
6.98528e-11
7.7793e-11
8.88919e-11
9.71846e-11
1.08717e-10
1.18082e-10
1.322e-10
1.40405e-10
1.61595e-10
1.70722e-10
1.96393e-10
2.08312e-10
2.50432e-10
2.57684e-10
3.4483e-10
3.98444e-10
5.319e-10
6.41351e-10
8.68977e-10
9.51357e-10
3.82476e-09
5.76228e-09
9.97009e-09
9.14929e-09
6.13521e-09
4.30735e-09
3.06628e-09
1.98142e-09
8.91126e-09
1.35652e-07
1.25214e-07
1.81905e-08
6.76445e-09
5.36887e-09
4.15497e-09
3.2241e-09
2.87744e-09
4.2853e-09
3.34158e-07
2.85833e-06
1.64841e-06
4.13178e-08
5.11155e-09
8.70057e-09
8.68882e-09
8.74991e-09
6.90914e-09
6.70966e-09
5.29536e-09
5.16596e-09
4.19594e-09
4.06459e-09
3.47311e-09
3.39367e-09
3.04766e-09
3.00435e-09
2.72748e-09
2.6699e-09
2.36667e-09
2.30094e-09
2.05117e-09
1.98391e-09
1.81178e-09
1.79956e-09
1.71838e-09
1.648e-09
1.53891e-09
1.60367e-09
1.63561e-09
1.87635e-09
2.00811e-09
2.28799e-09
2.35214e-09
2.37615e-09
2.16886e-09
2.39485e-09
2.88475e-09
5.64962e-09
8.12155e-09
9.00563e-09
9.15834e-09
5.93494e-09
3.38516e-09
1.30713e-10
1.86386e-10
6.94655e-11
8.28599e-11
2.62691e-09
2.74485e-09
1.52972e-09
4.93671e-11
3.24117e-11
3.30854e-10
3.1545e-10
0.0599333
0.452129
0.680493
0.733391
0.827375
0.940612
0.995731
1
1
1
1
1
1
1
1
1
1
1
1
1
1
1
1
1
1
1
1
1
1
1
1
1
1
1
1
1
1
1
1
1
1
1
1
1
1
1
1
1
1
1
1
1
1
1
1
1
1
1
1
1
1
1
1
1
1
1
1
1
1
1
1
1
1
1
1
1
1
1
1
1
1
1
1
1
1
1
1
1
1
1
1
1
1
1
1
1
1
1
1
1
1
1
1
1
1
1
1
1
1
1
1
1
1
1
1
1
1
1
1
1
1
1
1
1
1
1
1
1
1
1
1
1
1
1
-2.09149e-37
-9.96648e-30
-8.23545e-26
1.08111e-12
1.32518e-11
2.42066e-11
4.33841e-11
4.50974e-11
4.43647e-11
4.39438e-11
5.34871e-11
5.8956e-11
7.91532e-11
8.853e-11
1.00126e-10
1.07743e-10
1.20314e-10
1.33689e-10
1.58687e-10
1.80662e-10
2.16417e-10
2.42752e-10
2.76912e-10
3.00259e-10
3.27023e-10
3.45957e-10
3.74621e-10
3.87571e-10
4.34723e-10
4.48974e-10
5.0802e-10
5.27715e-10
5.98567e-10
6.18207e-10
8.07858e-10
7.97796e-10
1.80848e-09
1.84249e-09
2.219e-09
2.52134e-09
4.70757e-09
4.44654e-09
1.49711e-08
3.90979e-08
3.91967e-08
3.76799e-08
1.67006e-08
7.05924e-09
5.51801e-09
2.48643e-08
4.498e-07
6.52815e-07
3.14775e-07
2.48838e-08
1.78202e-08
2.14653e-08
1.98478e-08
1.04656e-08
5.1156e-09
6.63065e-09
7.27207e-08
2.76878e-06
2.88868e-06
2.59969e-06
1.62123e-07
1.41205e-08
2.58923e-09
3.63015e-09
3.59828e-09
3.59022e-09
3.09441e-09
2.95705e-09
2.83225e-09
2.84259e-09
2.847e-09
2.88221e-09
2.79064e-09
2.77575e-09
2.59695e-09
2.59954e-09
2.45448e-09
3.24458e-09
3.79326e-09
4.38845e-09
4.37248e-09
4.40807e-09
2.15213e-09
8.46941e-10
1.88742e-10
1.89096e-10
1.88742e-10
9.26903e-10
1.16201e-09
1.01042e-09
3.91707e-10
2.31985e-10
-6.2467e-27
-4.98024e-12
-1.05275e-27
1.27364e-09
1.354e-09
4.55355e-26
-1.33975e-26
-1.75167e-19
1.91484e-10
0.000227677
0.112936
0.186302
0.122635
0.0774852
0.185905
0.55028
0.716339
0.717694
0.766719
0.876472
0.965974
0.997535
1
1
1
1
1
1
1
1
1
1
1
1
1
1
1
1
1
1
1
1
1
1
1
1
1
1
1
1
1
1
1
1
1
1
1
1
1
1
1
1
1
1
1
1
1
1
1
1
1
1
1
1
1
1
1
1
1
1
1
1