/*--------------------------------*- C++ -*----------------------------------*\
| =========                 |                                                 |
| \\      /  F ield         | OpenFOAM: The Open Source CFD Toolbox           |
|  \\    /   O peration     | Version:  2406                                  |
|   \\  /    A nd           | Website:  www.openfoam.com                      |
|    \\/     M anipulation  |                                                 |
\*---------------------------------------------------------------------------*/
FoamFile
{
    version     2.0;
    format      ascii;
    arch        "LSB;label=32;scalar=64";
    class       volScalarField;
    location    "0.05";
    object      alphas;
}
// * * * * * * * * * * * * * * * * * * * * * * * * * * * * * * * * * * * * * //

dimensions      [0 0 0 0 0 0 0];

internalField   nonuniform List<scalar> 
6250
(
1
1
1
1
0.444031
0.0462577
2.53367e-13
2.53367e-13
5.52756e-14
2.64478e-15
2.64478e-15
2.64478e-15
2.64478e-15
4.47538e-18
4.47546e-18
4.46751e-18
4.46768e-18
4.03207e-20
4.03208e-20
4.04152e-20
4.02559e-20
3.99749e-20
4.01952e-20
3.30354e-15
1.4946e-20
1.49461e-20
-9.79691e-25
-1.79154e-25
4.46141e-24
1.02902e-24
3.82293e-25
-2.77063e-09
-1.88531e-09
-1.22623e-09
-8.17168e-10
-5.54193e-10
-2.67596e-10
-2.44187e-10
-1.5184e-10
-8.68483e-11
-4.69286e-11
-2.02786e-11
-6.61828e-12
3.64253e-12
7.59696e-12
9.29216e-12
9.36692e-12
1.29146e-11
9.77505e-12
8.71529e-12
5.91582e-12
5.25684e-12
4.16056e-12
3.95656e-12
3.49957e-12
3.85879e-12
3.90062e-12
4.39836e-12
4.09308e-12
3.5798e-12
2.6043e-12
1.54454e-12
1.00612e-12
1.12924e-12
9.45018e-13
1.01735e-12
1.07372e-12
1.14284e-12
9.98482e-13
9.31244e-13
7.0903e-13
7.04346e-13
5.75766e-13
6.71055e-13
6.9299e-13
7.86434e-13
8.29396e-13
7.99499e-13
6.26133e-13
4.92931e-13
2.99815e-13
2.35095e-13
1.55206e-13
1.35506e-13
1.22675e-13
1.21574e-13
1.13076e-13
1.03306e-13
8.05569e-14
6.38353e-14
4.24213e-14
3.41429e-14
2.53369e-14
2.25569e-14
1.89185e-14
1.71569e-14
1.39466e-14
1.23008e-14
9.17287e-15
7.93301e-15
6.22752e-15
5.60603e-15
4.02061e-15
3.50425e-15
2.70827e-15
1.94666e-15
1.57001e-15
1.01337e-15
8.55464e-16
5.481e-16
4.17714e-16
2.67886e-16
2.14139e-16
1.33701e-16
8.78692e-17
6.47069e-17
3.68874e-17
2.64051e-17
1.82098e-17
1.08602e-17
6.95932e-18
3.89369e-18
2.27245e-18
1.18517e-18
6.0296e-19
3.03491e-19
1.4801e-19
6.84232e-20
3.01893e-20
1.29112e-20
5.304e-21
2.08016e-21
8.0261e-22
2.91438e-22
1.03121e-22
3.49394e-23
1.13238e-23
3.58189e-24
1.10785e-24
3.36824e-25
9.96874e-26
2.86686e-26
8.0146e-27
2.17986e-27
5.77432e-28
1.48887e-28
3.73531e-29
9.1237e-30
2.17198e-30
5.04412e-31
1.14351e-31
2.53111e-32
5.47005e-33
1.15373e-33
2.37385e-34
4.76106e-35
9.30175e-36
1.76829e-36
3.26785e-37
5.86123e-38
1.01885e-38
1.71199e-39
2.77413e-40
4.31687e-41
6.42529e-42
9.08213e-43
1.21053e-43
1.50229e-44
1.71276e-45
1.74952e-46
1.55502e-47
1.13652e-48
6.35105e-50
2.34511e-51
4.60515e-53
8.68224e-55
1.71389e-56
3.49605e-58
7.21446e-60
1.49358e-61
3.07926e-63
6.29677e-65
1.38153e-66
9.35343e-68
4.15668e-68
2.80142e-68
1.93066e-68
1.30464e-68
8.23476e-69
5.08799e-69
3.0242e-69
1.85393e-69
1.13775e-69
7.45067e-70
5.17099e-70
3.76111e-70
2.63263e-70
1.80916e-70
1.18247e-70
7.16807e-71
4.07877e-71
2.11177e-71
1.02368e-71
4.5927e-72
2.00896e-72
8.42338e-73
3.56892e-73
1.49409e-73
6.5919e-74
2.8066e-74
1.23198e-74
5.10525e-75
2.17641e-75
8.43074e-76
3.31961e-76
1.18031e-76
4.3281e-77
1.45131e-77
5.13678e-78
1.70258e-78
6.03509e-79
2.00048e-79
7.12764e-80
2.33823e-80
8.22731e-81
2.58784e-81
8.81532e-82
2.63095e-82
8.68798e-83
2.45468e-83
8.13591e-84
2.24458e-84
8.24231e-85
2.28027e-85
1.01074e-85
3.22355e-86
1.7193e-86
6.79211e-87
4.25936e-87
2.10856e-87
1.4258e-87
8.35978e-88
6.01639e-88
3.91991e-88
2.91868e-88
2.08692e-88
1.61385e-88
1.14343e-88
3.14679e-89
1.6989e-90
1
1
1
0.997982
0.973975
0.989357
0.949049
0.854385
0.710601
0.512134
0.377274
0.309989
0.277621
0.256097
0.223771
0.169884
0.0839888
0.0369012
0.0453416
0.0567752
0.0576228
0.0517727
0.0391773
0.0293147
0.0237098
0.0195024
0.0145527
0.00892594
0.00444497
0.00154429
6.35915e-05
-9.03028e-21
2.16279e-22
9.00475e-22
-2.23761e-21
3.89419e-20
1.36979e-06
1.00777e-07
5.3349e-12
1.47493e-23
1.20201e-12
8.37039e-22
1.35914e-21
9.2488e-20
9.1374e-12
2.13767e-11
1.37148e-11
1.46003e-11
9.77042e-12
1.04196e-11
1.2025e-11
5.29691e-12
8.72451e-12
1.04301e-11
1.16321e-11
2.72371e-11
3.9008e-12
3.87785e-12
3.90089e-12
7.50173e-11
6.50078e-11
9.85702e-13
9.85957e-13
1.04471e-11
9.13197e-13
9.15324e-13
9.55271e-13
3.19549e-11
2.80718e-11
3.29766e-11
2.73232e-11
8.82307e-11
5.7544e-13
6.49192e-11
2.67782e-11
2.89221e-11
2.91719e-11
3.04238e-11
2.66111e-11
2.64561e-11
1.51753e-11
1.67407e-11
1.05156e-11
1.02882e-11
7.24356e-12
7.3049e-12
7.15053e-12
7.21515e-12
6.44793e-12
5.66397e-12
3.70132e-12
3.84815e-12
2.53858e-12
2.38387e-12
2.07104e-12
1.89546e-12
1.61033e-12
1.49685e-12
1.23819e-12
1.12051e-12
9.35426e-13
8.26903e-13
6.65818e-13
5.2958e-13
4.42969e-13
3.44729e-13
2.73461e-13
2.12875e-13
1.5884e-13
1.28286e-13
9.84737e-14
7.3853e-14
5.3564e-14
4.06726e-14
2.97373e-14
1.84912e-14
1.54432e-14
8.79514e-15
6.88296e-15
4.00573e-15
2.92805e-15
1.66863e-15
1.09978e-15
5.97976e-16
3.51006e-16
1.84592e-16
1.01626e-16
5.09261e-17
2.561e-17
1.18976e-17
5.51887e-18
2.07645e-18
1.04587e-18
4.33637e-19
1.73507e-19
6.67127e-20
2.43244e-20
8.70327e-21
3.03534e-21
1.06262e-21
3.66275e-22
1.23238e-22
4.04285e-23
1.29515e-23
4.05964e-24
1.24423e-24
3.72297e-25
1.08753e-25
3.10495e-26
8.67568e-27
2.37473e-27
6.3714e-28
1.6759e-28
4.32123e-29
1.09186e-29
2.70218e-30
6.54636e-31
1.55144e-31
3.59415e-32
8.13187e-33
1.79494e-33
3.85974e-34
8.07158e-35
1.63768e-35
3.21427e-36
6.07806e-37
1.10161e-37
1.89992e-38
3.08832e-39
4.66599e-40
6.42622e-41
7.8328e-42
8.11282e-43
7.04409e-44
6.02711e-45
5.1579e-46
4.41066e-47
3.75989e-48
3.19112e-49
2.69582e-50
2.26734e-51
1.8995e-52
1.5865e-53
1.32292e-54
1.10359e-55
9.23321e-57
7.77513e-58
6.66148e-59
6.15004e-60
7.86123e-61
2.06223e-61
9.26112e-62
4.96806e-62
2.8875e-62
1.84201e-62
1.31122e-62
9.88157e-63
7.36708e-63
5.2521e-63
3.5641e-63
2.28577e-63
1.37025e-63
7.66419e-64
4.0212e-64
2.00789e-64
9.61358e-65
4.4802e-65
2.05343e-65
9.31623e-66
4.16454e-66
1.83211e-66
7.89023e-67
3.32902e-67
1.36806e-67
5.47026e-68
2.11138e-68
7.93996e-69
2.90466e-69
1.04321e-69
3.68166e-70
1.2944e-70
4.49702e-71
1.58478e-71
5.41825e-72
1.91263e-72
6.48161e-73
2.24966e-73
7.46277e-74
2.54519e-74
8.29466e-75
2.84148e-75
9.32901e-76
3.30275e-76
1.14371e-76
4.41484e-77
1.70521e-77
7.38902e-78
3.21825e-78
1.53695e-78
7.39333e-79
3.81658e-79
1.98906e-79
1.08624e-79
5.97117e-80
3.38637e-80
1.92855e-80
1.11571e-80
6.26265e-81
3.14621e-81
1.31393e-81
1
1
1
0.999481
1
1
1
1
1
1
1
1
0.999849
0.997283
0.995638
0.999067
1
0.984087
0.918333
0.768248
0.721239
0.747388
0.799766
0.811291
0.801435
0.761552
0.694058
0.627472
0.569185
0.50039
0.407949
0.32526
0.298686
0.305427
0.333298
0.3765
0.403717
0.400928
0.366776
0.282147
0.182574
0.146563
0.150443
0.152128
0.142769
0.114673
0.0803228
0.0432034
0.0135274
0.0128438
0.029584
0.0672245
0.0894563
0.0941633
0.0886319
0.0687673
0.0413975
0.0108003
2.53487e-05
7.10537e-11
6.88275e-11
0.000594978
0.00781443
0.0129963
0.0115474
0.00490114
2.01828e-06
2.62069e-11
2.50396e-11
2.62069e-11
2.50396e-11
0.000135689
0.000314356
8.05285e-05
2.01795e-10
2.99684e-10
2.91877e-11
3.46748e-11
2.65873e-11
2.79523e-10
1.50669e-11
3.4373e-10
5.67163e-11
5.51007e-10
7.2149e-12
8.56179e-11
7.152e-12
4.33727e-11
5.40055e-11
5.54074e-11
3.68407e-12
2.25078e-10
2.52166e-12
4.55362e-11
3.10241e-11
3.03833e-11
2.82577e-11
2.78116e-11
2.54185e-11
2.31026e-11
2.03846e-11
1.89653e-11
1.73538e-11
1.54751e-11
1.21807e-11
1.09642e-11
9.12679e-12
7.69666e-12
6.24171e-12
5.27266e-12
4.55853e-12
3.6023e-12
2.94345e-12
2.22993e-12
1.78942e-12
1.2057e-12
9.98363e-13
5.8625e-13
5.13463e-13
3.07284e-13
2.39336e-13
1.49108e-13
9.97205e-14
6.36481e-14
4.253e-14
2.38622e-14
1.52749e-14
7.15613e-15
4.59128e-15
2.05422e-15
1.17849e-15
5.72971e-16
2.86434e-16
1.32981e-16
5.99384e-17
2.59978e-17
1.04087e-17
4.1757e-18
1.55953e-18
6.2001e-19
2.48939e-19
9.79048e-20
3.75138e-20
1.40876e-20
5.20709e-21
1.8922e-21
6.73289e-22
2.3428e-22
7.98271e-23
2.66907e-23
8.77124e-24
2.83578e-24
9.02408e-25
2.82685e-25
8.7157e-26
2.64399e-26
7.88855e-27
2.3138e-27
6.66881e-28
1.88779e-28
5.24564e-29
1.4298e-29
3.81934e-30
9.9865e-31
2.55182e-31
6.35871e-32
1.54069e-32
3.61584e-33
8.17634e-34
1.76861e-34
3.62373e-35
6.95143e-36
1.24632e-36
2.19652e-37
3.86821e-38
6.80796e-39
1.19622e-39
2.0977e-40
3.67293e-41
6.4289e-42
1.12691e-42
1.98225e-43
3.5061e-44
6.24596e-45
1.12172e-45
2.03071e-46
3.70154e-47
6.77986e-48
1.24499e-48
2.28743e-49
4.19981e-50
7.70405e-51
1.41366e-51
2.60538e-52
4.88537e-53
9.75819e-54
2.38413e-54
8.67715e-55
4.52539e-55
2.70735e-55
1.63798e-55
9.65433e-56
5.48709e-56
3.00029e-56
1.57975e-56
8.01282e-57
3.91746e-57
1.852e-57
8.51411e-58
3.83137e-58
1.69656e-58
7.3903e-59
3.15151e-59
1.30902e-59
5.28228e-60
2.07074e-60
7.89959e-61
2.94056e-61
1.07154e-61
3.8387e-62
1.35835e-62
4.76959e-63
1.66768e-63
5.81525e-64
2.03928e-64
7.13114e-65
2.49441e-65
8.68597e-66
3.03835e-66
1.06277e-66
3.74571e-67
1.32421e-67
4.77021e-68
1.749e-68
6.61005e-69
2.55844e-69
1.02351e-69
4.20016e-70
1.77523e-70
7.68639e-71
3.40541e-71
1.53886e-71
7.06079e-72
3.28845e-72
1.5456e-72
7.3275e-73
3.48785e-73
1.65056e-73
7.54879e-74
3.14619e-74
1
1
1
1
1
1
1
1
1
1
1
1
1
1
1
1
1
1
1
1
1
1
1
1
1
1
1
1
1
1
1
1
1
1
1
1
1
1
1
1
1
0.965242
0.902108
0.90627
0.942145
0.961698
0.951941
0.83083
0.567661
0.510809
0.611333
0.818757
0.925114
0.936517
0.943376
0.94592
0.892245
0.626539
0.349033
0.324837
0.332941
0.373619
0.540645
0.729799
0.726994
0.569631
0.267449
0.0995594
0.090665
0.112912
0.210484
0.397765
0.465482
0.424541
0.303176
0.163372
0.0701047
0.017746
0.000292173
2.8379e-10
0.00491711
0.0429928
0.0934398
0.0975274
0.0803887
0.0301563
0.000686001
1.98109e-11
1.94344e-11
1.98109e-11
0.000858916
0.00359515
0.00237006
3.65909e-05
1.91572e-11
1.88902e-11
1.88908e-11
1.88902e-11
1.88908e-11
1.88902e-11
1.88908e-11
1.88902e-11
1.73524e-11
2.59317e-10
9.97041e-11
8.68575e-11
6.9384e-11
6.88773e-11
5.98154e-11
5.77832e-11
4.85479e-11
4.42425e-11
3.96507e-11
3.34443e-11
2.88801e-11
2.40897e-11
2.05849e-11
1.55943e-11
1.34357e-11
9.21598e-12
7.31275e-12
4.47492e-12
3.37742e-12
2.2227e-12
1.57592e-12
1.00759e-12
7.22287e-13
3.8613e-13
2.70495e-13
1.39221e-13
9.05921e-14
4.84849e-14
2.67675e-14
1.41699e-14
7.09085e-15
3.41401e-15
1.44481e-15
6.64796e-16
2.29684e-16
9.99591e-17
4.72185e-17
2.19374e-17
9.65986e-18
4.22754e-18
1.84007e-18
7.94173e-19
3.35468e-19
1.38403e-19
5.5904e-20
2.22029e-20
8.69349e-21
3.36041e-21
1.28327e-21
4.84294e-22
1.8062e-22
6.6556e-23
2.42235e-23
8.70536e-24
3.08838e-24
1.08142e-24
3.73699e-25
1.27422e-25
4.28624e-26
1.42193e-26
4.64985e-27
1.49779e-27
4.74758e-28
1.47878e-28
4.51817e-29
1.35119e-29
3.94801e-30
1.12852e-30
3.19673e-31
9.06906e-32
2.57772e-32
7.33899e-33
2.09221e-33
5.96811e-34
1.70196e-34
4.84919e-35
1.38057e-35
3.93199e-36
1.12227e-36
3.21528e-37
9.25271e-38
2.67311e-38
7.74188e-39
2.24408e-39
6.50158e-40
1.88133e-40
5.43606e-41
1.56871e-41
4.52234e-42
1.30276e-42
3.751e-43
1.07963e-43
3.1069e-44
8.94313e-45
2.57838e-45
7.47282e-46
2.19517e-46
6.6342e-47
2.10679e-47
7.17622e-48
2.64381e-48
1.0427e-48
4.30436e-49
1.81738e-49
7.7157e-50
3.26054e-50
1.36416e-50
5.63692e-51
2.29672e-51
9.20475e-52
3.6191e-52
1.39402e-52
5.26257e-53
1.95048e-53
7.11374e-54
2.55926e-54
9.10343e-55
3.20869e-55
1.12312e-55
3.92384e-56
1.37218e-56
4.79814e-57
1.6796e-57
5.89735e-58
2.07915e-58
7.34469e-59
2.60706e-59
9.30441e-60
3.35182e-60
1.21668e-60
4.46397e-61
1.65443e-61
6.21026e-62
2.36049e-62
9.088e-63
3.54507e-63
1.39785e-63
5.57587e-64
2.24105e-64
9.08735e-65
3.70077e-65
1.51508e-65
6.21413e-66
2.54641e-66
1.02982e-66
3.99477e-67
1
1
1
1
1
1
1
1
1
1
1
1
1
1
1
1
1
1
1
1
1
1
1
1
1
1
1
1
1
1
1
1
1
1
1
1
1
1
1
1
1
1
1
1
1
1
1
1
1
1
1
1
1
1
1
1
1
1
1
1
1
1
1
1
1
1
1
0.96797
0.859722
0.890868
0.989025
1
1
1
1
1
1
0.771677
0.370042
0.293933
0.39869
0.720872
0.967617
0.998178
1
0.787359
0.265605
0.114796
0.12018
0.147309
0.336913
0.594794
0.55418
0.323786
0.101712
0.024621
0.0237078
0.0575225
0.085252
0.0745214
0.0331033
0.00263984
5.71898e-06
2.06616e-05
7.82922e-10
7.59471e-10
6.91181e-11
9.63895e-10
8.01565e-11
9.35635e-10
4.83987e-11
1.43805e-10
1.38124e-10
1.40005e-10
1.49806e-10
1.30971e-10
1.31506e-10
1.28374e-10
1.2292e-10
1.0078e-10
8.8708e-11
6.02682e-11
5.09275e-11
3.35593e-11
2.70443e-11
1.73221e-11
1.33697e-11
8.36766e-12
6.29425e-12
3.83017e-12
2.55371e-12
1.58259e-12
9.57551e-13
5.60593e-13
3.09563e-13
1.67211e-13
8.89295e-14
4.58481e-14
2.06078e-14
1.01022e-14
3.45004e-15
1.93933e-15
6.93872e-16
3.93822e-16
2.01038e-16
1.06352e-16
5.23153e-17
2.50795e-17
1.17492e-17
5.478e-18
2.53745e-18
1.16483e-18
5.2949e-19
2.38458e-19
1.06431e-19
4.70809e-20
2.06368e-20
8.96101e-21
3.85423e-21
1.64215e-21
6.93207e-22
2.90013e-22
1.20288e-22
4.94807e-23
2.01932e-23
8.17851e-24
3.28828e-24
1.31285e-24
5.20659e-25
2.05216e-25
8.04683e-26
3.14589e-26
1.22992e-26
4.80886e-27
1.87992e-27
7.34601e-28
2.86854e-28
1.11906e-28
4.36035e-29
1.69655e-29
6.59038e-30
2.55552e-30
9.89044e-31
3.82012e-31
1.47241e-31
5.66293e-32
2.17318e-32
8.3209e-33
3.17868e-33
1.21144e-33
4.60584e-34
1.74678e-34
6.60775e-35
2.49293e-35
9.37915e-36
3.51853e-36
1.31598e-36
4.9065e-37
1.82337e-37
6.75311e-38
2.49237e-38
9.16566e-39
3.35837e-39
1.22601e-39
4.45929e-40
1.61606e-40
5.83594e-41
2.10029e-41
7.53441e-42
2.69484e-42
9.61329e-43
3.42158e-43
1.21548e-43
4.31056e-44
1.52615e-44
5.3937e-45
1.90252e-45
6.69688e-46
2.35229e-46
8.24658e-47
2.88666e-47
1.00902e-47
3.52324e-48
1.22982e-48
4.29237e-49
1.49813e-49
5.23076e-50
1.82757e-50
6.39564e-51
2.24171e-51
7.87387e-52
2.77006e-52
9.76822e-53
3.45177e-53
1.22342e-53
4.34909e-54
1.55161e-54
5.55674e-55
1.99743e-55
7.21004e-56
2.61093e-56
9.49114e-57
3.45771e-57
1.26334e-57
4.62018e-58
1.69221e-58
6.19793e-59
2.26865e-59
8.26432e-60
2.96504e-60
1
1
1
1
1
1
1
1
1
1
1
1
1
1
1
1
1
1
1
1
1
1
1
1
1
1
1
1
1
1
1
1
1
1
1
1
1
1
1
1
1
1
1
1
1
1
1
1
1
1
1
1
1
0.999999
0.999999
0.999999
1
1
1
1
1
1
1
1
1
1
1
1
1
1
1
1
1
1
1
1
1
1
1
1
1
1
1
1
1
1
1
0.993492
0.964484
0.973336
0.999961
1
1
1
1
0.816635
0.549804
0.715314
0.940197
0.946605
0.775348
0.436605
0.401819
0.41273
0.314711
0.136573
0.0718347
0.0770128
0.0877943
0.0789336
0.0386775
0.00323085
1.3818e-10
6.22718e-10
2.53464e-10
1.0157e-09
1.31813e-10
5.2911e-10
3.84849e-10
4.14154e-10
3.95661e-10
3.0496e-10
2.79514e-10
2.27883e-10
2.02919e-10
1.48214e-10
1.28598e-10
8.78118e-11
6.76422e-11
4.47329e-11
3.35045e-11
2.02441e-11
1.4439e-11
9.65307e-12
6.51178e-12
3.68444e-12
2.2242e-12
1.1702e-12
6.5434e-13
3.99782e-13
1.6434e-13
9.65082e-14
4.99037e-14
2.6187e-14
1.25343e-14
6.90126e-15
2.20482e-15
1.32118e-15
5.38568e-16
3.2269e-16
1.89388e-16
1.07947e-16
5.92785e-17
3.19148e-17
1.68956e-17
8.85565e-18
4.59923e-18
2.36643e-18
1.20615e-18
6.09191e-19
3.05063e-19
1.51553e-19
7.47348e-20
3.66022e-20
1.78136e-20
8.61957e-21
4.14887e-21
1.98745e-21
9.47951e-22
4.50401e-22
2.13281e-22
1.00718e-22
4.74423e-23
2.22897e-23
1.0444e-23
4.87969e-24
2.27303e-24
1.05543e-24
4.88421e-25
2.25233e-25
1.03487e-25
4.73704e-26
2.16005e-26
9.81145e-27
4.43916e-27
2.0006e-27
8.98079e-28
4.01574e-28
1.78863e-28
7.93565e-29
3.50714e-29
1.54394e-29
6.77031e-30
2.95715e-30
1.28649e-30
5.57424e-31
2.40537e-31
1.03363e-31
4.42278e-32
1.88426e-32
7.99207e-33
3.37454e-33
1.4183e-33
5.9331e-34
2.47015e-34
1.02344e-34
4.21958e-35
1.73108e-35
7.06624e-36
2.86986e-36
1.15964e-36
4.66188e-37
1.8645e-37
7.41856e-38
2.93647e-38
1.15631e-38
4.52956e-39
1.7651e-39
6.8425e-40
2.63869e-40
1.01227e-40
3.8631e-41
1.46662e-41
5.53914e-42
2.08121e-42
7.77935e-43
2.89288e-43
1.07024e-43
3.93918e-44
1.44248e-44
5.25544e-45
1.90506e-45
6.87114e-46
2.46595e-46
8.80647e-47
3.12972e-47
1.10695e-47
3.89686e-48
1.36554e-48
4.76385e-49
1.65474e-49
5.7241e-50
1.97221e-50
6.77001e-51
2.31573e-51
7.89586e-52
2.68425e-52
9.10124e-53
3.07785e-53
1.03741e-53
1
1
1
1
1
1
1
1
1
1
1
1
1
1
1
1
1
1
1
1
1
1
1
1
1
1
1
1
1
1
1
1
1
1
1
1
1
1
1
1
1
1
1
1
1
1
1
1
1
1
1
1
1
0.999999
0.999999
1
1
1
1
1
1
1
1
0.999999
0.999997
0.999997
0.999999
1
1
1
1
1
1
1
1
1
1
1
1
1
1
1
1
1
1
1
1
1
1
1
1
1
1
1
1
1
1
1
1
1
1
1
1
1
1
0.999268
0.88524
0.814844
0.879026
0.922873
0.811902
0.446292
0.284032
0.282922
0.233158
0.122938
0.0337335
0.00242901
9.78448e-10
2.53138e-09
1.09329e-09
1.71709e-09
2.76068e-10
4.33503e-10
5.09049e-10
4.98303e-10
4.83562e-10
4.39238e-10
3.97436e-10
2.85801e-10
2.36346e-10
1.56095e-10
1.19512e-10
8.18077e-11
5.94054e-11
3.82151e-11
2.59614e-11
1.55261e-11
9.69918e-12
6.17978e-12
3.5868e-12
2.10861e-12
1.20806e-12
7.08897e-13
3.94418e-13
2.5486e-13
1.00989e-13
6.66311e-14
2.7471e-14
1.84147e-14
7.70396e-15
5.11736e-15
2.13228e-15
1.42934e-15
6.3557e-16
3.87077e-16
2.35148e-16
1.41742e-16
8.37529e-17
4.85525e-17
2.7733e-17
1.56879e-17
8.80822e-18
4.91153e-18
2.71978e-18
1.49551e-18
8.16492e-19
4.42621e-19
2.38273e-19
1.274e-19
6.76765e-20
3.57295e-20
1.8752e-20
9.78587e-21
5.07906e-21
2.62236e-21
1.34715e-21
6.88713e-22
3.50464e-22
1.77545e-22
8.95589e-23
4.49898e-23
2.25108e-23
1.12201e-23
5.5717e-24
2.75678e-24
1.35917e-24
6.67759e-25
3.26927e-25
1.595e-25
7.75415e-26
3.75614e-26
1.81278e-26
8.71567e-27
4.17402e-27
1.99091e-27
9.45658e-28
4.47242e-28
2.10582e-28
9.86997e-29
4.60441e-29
2.13772e-29
9.87648e-30
4.5404e-30
2.07679e-30
9.45091e-31
4.27871e-31
1.92706e-31
8.6338e-32
3.84792e-32
1.70591e-32
7.52295e-33
3.3e-33
1.43989e-33
6.24924e-34
2.69778e-34
1.1584e-34
4.94747e-35
2.1017e-35
8.88013e-36
3.73181e-36
1.55979e-36
6.48413e-37
2.68084e-37
1.10235e-37
4.50801e-38
1.83345e-38
7.4159e-39
2.98309e-39
1.19337e-39
4.74777e-40
1.87848e-40
7.39147e-41
2.89242e-41
1.12565e-41
4.35672e-42
1.67702e-42
6.42009e-43
2.44444e-43
9.25674e-44
3.48649e-44
1.30611e-44
4.86674e-45
1.80376e-45
6.64982e-46
2.43863e-46
8.89604e-47
3.22832e-47
1.16545e-47
4.18559e-48
1
1
1
1
1
1
1
1
1
1
1
1
1
1
1
1
1
1
1
1
1
1
1
1
1
1
1
1
1
1
1
1
1
1
1
1
1
1
1
1
1
1
1
1
1
1
1
1
1
1
1
1
1
1
1
1
1
1
1
1
1
1
1
0.999999
0.999997
0.999998
1
1
1
1
1
1
1
1
1
1
1
1
1
1
1
1
1
1
1
1
1
1
1
1
1
1
1
1
1
1
1
1
1
1
1
1
1
1
1
1
1
1
1
1
1
1
1
1
1
1
0.939121
0.54634
0.319461
0.266501
0.172223
0.0590874
0.00421832
1.94238e-09
5.08256e-10
8.90085e-10
4.82338e-10
7.0222e-10
8.80144e-10
9.1515e-10
8.85018e-10
6.87945e-10
5.93233e-10
3.83705e-10
3.08177e-10
2.07245e-10
1.48737e-10
9.7161e-11
6.4139e-11
4.44267e-11
2.91666e-11
1.9224e-11
1.21086e-11
8.55596e-12
4.20765e-12
3.17201e-12
1.5991e-12
1.13399e-12
5.38251e-13
3.89951e-13
1.90783e-13
1.37366e-13
6.54826e-14
4.65718e-14
2.19759e-14
1.56367e-14
7.31783e-15
5.07403e-15
2.25886e-15
1.51335e-15
7.19357e-16
4.27092e-16
2.575e-16
1.5809e-16
9.62934e-17
5.78021e-17
3.44315e-17
2.04011e-17
1.19869e-17
6.96746e-18
4.00569e-18
2.28009e-18
1.28665e-18
7.2069e-19
4.01124e-19
2.22026e-19
1.22283e-19
6.7038e-20
3.65892e-20
1.98843e-20
1.076e-20
5.79785e-21
3.11083e-21
1.66202e-21
8.84182e-22
4.68369e-22
2.4704e-22
1.29739e-22
6.78413e-23
3.53204e-23
1.83087e-23
9.44892e-24
4.85505e-24
2.48362e-24
1.26488e-24
6.41327e-25
3.2372e-25
1.62672e-25
8.13763e-26
4.05247e-26
2.00893e-26
9.91345e-27
4.86952e-27
2.38087e-27
1.15867e-27
5.61237e-28
2.70568e-28
1.29819e-28
6.19886e-29
2.94566e-29
1.39294e-29
6.55461e-30
3.06905e-30
1.42984e-30
6.62796e-31
3.05677e-31
1.40255e-31
6.4022e-32
2.90722e-32
1.31326e-32
5.90106e-33
2.63756e-33
1.17261e-33
5.18531e-34
2.28062e-34
9.9765e-35
4.34054e-35
1.8782e-35
8.0829e-36
3.45952e-36
1.4726e-36
6.23406e-37
2.62467e-37
1.09899e-37
4.57647e-38
1.89534e-38
7.80665e-39
3.19791e-39
1.30285e-39
5.27907e-40
2.12743e-40
8.527e-41
3.39926e-41
1.3478e-41
5.3153e-42
2.08495e-42
8.13462e-43
3.15689e-43
1.21863e-43
4.67926e-44
1
1
1
1
1
1
1
1
1
1
1
1
1
1
1
1
1
1
1
1
1
1
1
1
1
1
1
1
1
1
1
1
1
1
1
1
1
1
1
1
1
1
1
1
1
1
1
1
1
1
1
1
1
1
1
1
1
1
1
1
1
1
1
1
1
1
1
1
1
1
1
1
1
1
1
1
1
1
1
1
1
1
1
1
1
1
1
1
1
1
1
1
1
1
1
1
1
1
1
1
1
1
1
1
1
1
1
1
1
1
1
1
1
1
1
1
1
1
1
1
1
1
0.643718
0.142885
0.082479
0.0383736
0.00233832
7.23023e-10
7.54644e-10
1.33883e-09
1.55321e-09
1.59597e-09
1.57923e-09
1.35118e-09
1.10656e-09
7.38357e-10
4.85499e-10
3.48743e-10
2.54176e-10
1.74593e-10
1.24673e-10
9.3453e-11
5.54337e-11
4.42334e-11
2.51972e-11
1.99138e-11
1.13204e-11
8.56148e-12
4.55963e-12
3.46175e-12
1.86234e-12
1.40388e-12
7.34308e-13
5.45284e-13
2.79497e-13
2.06824e-13
1.04157e-13
7.5574e-14
3.61912e-14
2.55429e-14
1.15945e-14
8.06192e-15
3.67676e-15
2.53439e-15
1.13852e-15
7.70747e-16
3.71948e-16
2.76085e-16
1.35066e-16
8.59178e-17
5.4433e-17
3.34361e-17
2.00243e-17
1.181e-17
6.89381e-18
3.99119e-18
2.29519e-18
1.31281e-18
7.47745e-19
4.24456e-19
2.4024e-19
1.35603e-19
7.63295e-20
4.28396e-20
2.39677e-20
1.33635e-20
7.42362e-21
4.10769e-21
2.26341e-21
1.2417e-21
6.78068e-22
3.68521e-22
1.99307e-22
1.07252e-22
5.74214e-23
3.05844e-23
1.62057e-23
8.54215e-24
4.47918e-24
2.33649e-24
1.21248e-24
6.2595e-25
3.21494e-25
1.64281e-25
8.35215e-26
4.22491e-26
2.12646e-26
1.06494e-26
5.30676e-27
2.63132e-27
1.29825e-27
6.37356e-28
3.11345e-28
1.51332e-28
7.31878e-29
3.52174e-29
1.68606e-29
8.03107e-30
3.80579e-30
1.79421e-30
8.41477e-31
3.92591e-31
1.82202e-31
8.4114e-32
3.86253e-32
1.76423e-32
8.01501e-33
3.6217e-33
1.62769e-33
7.27565e-34
3.23451e-34
1.43014e-34
6.28885e-35
2.75035e-35
1.19625e-35
5.17457e-36
2.22608e-36
9.52405e-37
4.05244e-37
1.71485e-37
7.21689e-38
3.02059e-38
1.25734e-38
5.20519e-39
2.14312e-39
8.77582e-40
3.57408e-40
1.44772e-40
5.83244e-41
2.33707e-41
1
1
1
1
1
1
1
1
1
1
1
1
1
1
1
1
1
1
1
1
1
1
1
1
1
1
1
1
1
1
1
1
1
1
1
1
1
1
1
1
1
1
1
1
1
1
1
1
1
1
1
1
1
1
1
1
1
1
1
1
1
1
1
1
1
1
1
1
1
1
1
1
1
1
1
1
1
1
1
1
1
1
1
1
1
1
1
1
1
1
1
1
1
1
1
1
1
1
1
1
1
1
1
1
1
1
1
1
1
1
1
1
1
1
1
1
1
1
1
1
1
1
1
1
1
0.947417
0.297123
0.00750719
0.000230868
1.37275e-09
1.50989e-09
1.95158e-09
2.15357e-09
2.20344e-09
2.18317e-09
1.98668e-09
1.62728e-09
1.07214e-09
6.22841e-10
4.8618e-10
3.37136e-10
2.74925e-10
1.64076e-10
1.37393e-10
8.83472e-11
7.15339e-11
4.2793e-11
3.38291e-11
1.9848e-11
1.56962e-11
9.1321e-12
7.14414e-12
4.03288e-12
3.10134e-12
1.70013e-12
1.29571e-12
6.92351e-13
5.16978e-13
2.62687e-13
1.91573e-13
9.26405e-14
6.57395e-14
3.04525e-14
2.13723e-14
9.92604e-15
7.0342e-15
3.2497e-15
2.194e-15
9.7044e-16
6.27236e-16
3.17981e-16
2.04312e-16
1.23034e-16
7.33901e-17
4.41148e-17
2.66692e-17
1.61489e-17
9.7619e-18
5.87657e-18
3.51777e-18
2.09271e-18
1.23729e-18
7.27338e-19
4.25348e-19
2.47575e-19
1.43475e-19
8.27992e-20
4.75857e-20
2.72328e-20
1.5517e-20
8.80115e-21
4.96812e-21
2.79043e-21
1.55915e-21
8.66477e-22
4.78863e-22
2.63141e-22
1.43762e-22
7.80806e-23
4.21561e-23
2.26246e-23
1.20699e-23
6.40067e-24
3.3741e-24
1.76812e-24
9.21096e-25
4.77041e-25
2.45633e-25
1.25753e-25
6.40139e-26
3.24025e-26
1.631e-26
8.16438e-27
4.0645e-27
2.01245e-27
9.91054e-28
4.85445e-28
2.3652e-28
1.14629e-28
5.52625e-29
2.65025e-29
1.26435e-29
6.00044e-30
2.83292e-30
1.33053e-30
6.21663e-31
2.88954e-31
1.33612e-31
6.14613e-32
2.81256e-32
1.28039e-32
5.79865e-33
2.61249e-33
1.17091e-33
5.22087e-34
2.31584e-34
1.02195e-34
4.48644e-35
1.95946e-35
8.51404e-36
3.68049e-36
1.5829e-36
6.77299e-37
2.88335e-37
1.22126e-37
5.14661e-38
2.15794e-38
9.00269e-39
3.737e-39
1.54347e-39
1
1
1
1
1
1
1
1
1
1
1
1
1
1
1
1
1
1
1
1
1
1
1
1
1
1
1
1
1
1
1
1
1
1
1
1
1
1
1
1
1
1
1
1
1
1
1
1
1
1
1
1
1
1
1
1
1
1
1
1
1
1
1
1
1
1
1
1
1
1
1
1
1
1
1
1
1
1
1
1
1
1
1
1
1
1
1
1
1
1
1
1
1
1
1
1
1
1
1
1
1
1
1
1
1
1
1
1
1
1
1
1
1
1
1
1
1
1
1
1
1
1
1
1
1
1
1
1
0.529625
0.00599507
1.67224e-09
1.88968e-09
1.77115e-09
2.15194e-09
2.26873e-09
2.24472e-09
2.19585e-09
1.93263e-09
1.33475e-09
1.02681e-09
6.12233e-10
4.95138e-10
3.35418e-10
2.76439e-10
1.78217e-10
1.52283e-10
9.70467e-11
7.78766e-11
4.80198e-11
3.91005e-11
2.40826e-11
1.93389e-11
1.15128e-11
9.07439e-12
5.23379e-12
4.08617e-12
2.30754e-12
1.77452e-12
9.62535e-13
7.2577e-13
3.7706e-13
2.76674e-13
1.3545e-13
9.69303e-14
4.61311e-14
3.30536e-14
1.58416e-14
1.10839e-14
5.08684e-15
3.55045e-15
1.61934e-15
1.06479e-15
5.01455e-16
3.25389e-16
1.85115e-16
1.082e-16
6.6096e-17
4.0493e-17
2.48118e-17
1.5217e-17
9.30879e-18
5.66503e-18
3.42657e-18
2.06004e-18
1.23141e-18
7.32192e-19
4.3323e-19
2.55163e-19
1.49627e-19
8.73644e-20
5.0792e-20
2.94009e-20
1.69426e-20
9.71821e-21
5.5476e-21
3.15108e-21
1.78063e-21
1.00088e-21
5.59514e-22
3.11035e-22
1.71921e-22
9.44765e-23
5.16136e-23
2.80299e-23
1.51313e-23
8.1192e-24
4.33034e-24
2.29561e-24
1.20959e-24
6.33492e-25
3.29771e-25
1.70631e-25
8.77574e-26
4.48642e-26
2.27991e-26
1.15172e-26
5.78365e-27
2.88734e-27
1.43301e-27
7.07083e-28
3.4688e-28
1.69197e-28
8.20587e-29
3.95727e-29
1.89766e-29
9.04926e-30
4.29133e-30
2.02382e-30
9.49212e-31
4.42773e-31
2.05418e-31
9.47855e-32
4.35015e-32
1.98579e-32
9.01648e-33
4.07214e-33
1.82936e-33
8.17465e-34
3.63365e-34
1.60667e-34
7.06686e-35
3.09207e-35
1.34587e-35
5.82772e-36
2.51038e-36
1.07582e-36
4.58672e-37
1.94554e-37
8.21036e-38
3.44729e-38
1
1
1
1
1
1
1
1
1
1
1
1
1
1
1
1
1
1
1
1
1
1
1
1
1
1
1
1
1
1
1
1
1
1
1
1
1
1
1
1
1
1
1
1
1
1
1
1
1
1
1
1
1
1
1
1
1
1
1
1
1
1
1
1
1
1
1
1
1
1
1
1
1
1
1
1
1
1
1
1
1
1
1
1
1
1
1
1
1
1
1
1
1
1
1
1
1
1
1
1
1
1
1
1
1
1
1
1
1
1
1
1
1
1
1
1
1
1
1
1
1
1
1
1
1
1
1
1
1
0.827343
0.0888381
1.88936e-09
1.5795e-09
1.82203e-09
2.06462e-09
2.17899e-09
2.20803e-09
2.03424e-09
1.61139e-09
1.29416e-09
8.467e-10
7.1011e-10
4.74189e-10
3.86187e-10
2.50892e-10
2.15401e-10
1.44956e-10
1.2129e-10
7.74916e-11
6.3494e-11
4.02381e-11
3.28479e-11
2.015e-11
1.61013e-11
9.56694e-12
7.57943e-12
4.42039e-12
3.45394e-12
1.94118e-12
1.49078e-12
8.06906e-13
6.05776e-13
3.09932e-13
2.24604e-13
1.07505e-13
7.71402e-14
3.73939e-14
2.65374e-14
1.25001e-14
8.9002e-15
4.1523e-15
2.80108e-15
1.27765e-15
8.87006e-16
3.95219e-16
2.51135e-16
1.43833e-16
8.56114e-17
5.29189e-17
3.27037e-17
2.016e-17
1.24127e-17
7.62141e-18
4.65933e-18
2.83367e-18
1.71373e-18
1.03052e-18
6.16185e-19
3.66404e-19
2.16702e-19
1.2749e-19
7.46194e-20
4.34537e-20
2.51783e-20
1.45166e-20
8.32799e-21
4.7537e-21
2.69968e-21
1.52525e-21
8.57181e-22
4.79141e-22
2.66358e-22
1.47244e-22
8.09359e-23
4.42326e-23
2.40334e-23
1.29818e-23
6.97081e-24
3.72092e-24
1.97437e-24
1.04138e-24
5.46008e-25
2.84575e-25
1.47438e-25
7.59358e-26
3.88795e-26
1.979e-26
1.00147e-26
5.03865e-27
2.52054e-27
1.2537e-27
6.20066e-28
3.04958e-28
1.49149e-28
7.25427e-29
3.50895e-29
1.68804e-29
8.07648e-30
3.84332e-30
1.81905e-30
8.56332e-31
4.00964e-31
1.86741e-31
8.65065e-32
3.98599e-32
1.82686e-32
8.32841e-33
3.77666e-33
1.70353e-33
7.64351e-34
3.41148e-34
1.51464e-34
6.68954e-35
2.93911e-35
1.28463e-35
5.58586e-36
2.41638e-36
1.03995e-36
4.45291e-37
1.89701e-37
1
1
1
1
1
1
1
1
1
1
1
1
1
1
1
1
1
1
1
1
1
1
1
1
1
1
1
1
1
1
1
1
1
1
1
1
1
1
1
1
1
1
1
1
1
1
1
1
1
1
1
1
1
1
1
1
1
1
1
1
1
1
1
1
1
1
1
1
1
1
1
1
1
1
1
1
1
1
1
1
1
1
1
1
1
1
1
1
1
1
1
1
1
1
1
1
1
1
1
1
1
1
1
1
1
1
1
1
1
1
1
1
1
1
1
1
1
1
1
1
1
1
1
1
1
1
1
1
1
1
0.440091
1.24788e-08
1.57893e-09
1.5801e-09
1.87824e-09
2.03526e-09
2.06792e-09
1.96681e-09
1.68143e-09
1.40811e-09
9.2169e-10
7.63695e-10
5.22265e-10
4.31955e-10
2.82605e-10
2.41687e-10
1.64262e-10
1.39661e-10
9.06112e-11
7.40476e-11
4.70968e-11
3.87469e-11
2.4181e-11
1.94701e-11
1.17566e-11
9.38737e-12
5.57109e-12
4.39087e-12
2.49658e-12
1.91859e-12
1.03925e-12
7.8348e-13
4.09206e-13
3.0062e-13
1.47248e-13
1.06241e-13
5.12092e-14
3.60196e-14
1.67942e-14
1.19811e-14
5.64963e-15
3.91281e-15
1.72678e-15
1.12275e-15
5.30429e-16
3.54551e-16
1.84864e-16
1.14986e-16
7.01032e-17
4.24585e-17
2.62217e-17
1.62852e-17
1.00658e-17
6.17998e-18
3.77093e-18
2.28843e-18
1.38167e-18
8.30012e-19
4.96088e-19
2.94998e-19
1.74535e-19
1.02748e-19
6.019e-20
3.50879e-20
2.03555e-20
1.17512e-20
6.75051e-21
3.85831e-21
2.19388e-21
1.24086e-21
6.98027e-22
3.90484e-22
2.17204e-22
1.20121e-22
6.60427e-23
3.60956e-23
1.96104e-23
1.05902e-23
5.68451e-24
3.03283e-24
1.60829e-24
8.47699e-25
4.44095e-25
2.31244e-25
1.19682e-25
6.15675e-26
3.14808e-26
1.59998e-26
8.08291e-27
4.0589e-27
2.02602e-27
1.00527e-27
4.95834e-28
2.43114e-28
1.18499e-28
5.74199e-29
2.76608e-29
1.32475e-29
6.30783e-30
2.98621e-30
1.40562e-30
6.57869e-31
3.0616e-31
1.41681e-31
6.51998e-32
2.9838e-32
1.358e-32
6.14684e-33
2.76724e-33
1.23908e-33
5.51866e-34
2.44491e-34
1.07747e-34
4.72371e-35
2.0602e-35
8.9393e-36
3.85906e-36
1.65753e-36
7.08367e-37
3.01222e-37
1
1
1
1
1
1
1
1
1
1
1
1
1
1
1
1
1
1
1
1
1
1
1
1
1
1
1
1
1
1
1
1
1
1
1
1
1
1
1
1
1
1
1
1
1
1
1
1
1
1
1
1
1
1
1
1
1
1
1
1
1
1
1
1
1
1
1
1
1
1
1
1
1
1
1
1
1
1
1
1
1
1
1
1
1
1
1
1
1
1
1
1
1
1
1
1
1
1
1
1
1
1
1
1
1
1
1
1
1
1
1
1
1
1
1
1
1
1
1
1
1
1
1
1
1
1
1
1
1
0.827767
0.0891242
1.99736e-09
1.57925e-09
1.76038e-09
1.96014e-09
2.04698e-09
2.04309e-09
1.90207e-09
1.60363e-09
1.25688e-09
7.77006e-10
6.3129e-10
4.3708e-10
3.66039e-10
2.44121e-10
2.0747e-10
1.39562e-10
1.1829e-10
7.59025e-11
6.15831e-11
3.87292e-11
3.17154e-11
1.96069e-11
1.57203e-11
9.42633e-12
7.50596e-12
4.42233e-12
3.47005e-12
1.96411e-12
1.51222e-12
8.23237e-13
6.20207e-13
3.19581e-13
2.32161e-13
1.11231e-13
7.95173e-14
3.77321e-14
2.63618e-14
1.21541e-14
8.64153e-15
4.04453e-15
2.79306e-15
1.23304e-15
8.24175e-16
3.72005e-16
2.3574e-16
1.45827e-16
8.96885e-17
5.4661e-17
3.37775e-17
2.11148e-17
1.31475e-17
8.11287e-18
4.96418e-18
3.01472e-18
1.81801e-18
1.08911e-18
6.48393e-19
3.83756e-19
2.25874e-19
1.3225e-19
7.7044e-20
4.46658e-20
2.57721e-20
1.48008e-20
8.46003e-21
4.81268e-21
2.72451e-21
1.5347e-21
8.60069e-22
4.79471e-22
2.65861e-22
1.46608e-22
8.03956e-23
4.38366e-23
2.37653e-23
1.28093e-23
6.86387e-24
3.65643e-24
1.93635e-24
1.01939e-24
5.33494e-25
2.77553e-25
1.43547e-25
7.38035e-26
3.77224e-26
1.91677e-26
9.6826e-27
4.8627e-27
2.42793e-27
1.20525e-27
5.94859e-28
2.91916e-28
1.42437e-28
6.91066e-29
3.33399e-29
1.59945e-29
7.63048e-30
3.62012e-30
1.70803e-30
8.01466e-31
3.74027e-31
1.73605e-31
8.01442e-32
3.68e-32
1.68073e-32
7.63543e-33
3.45037e-33
1.55097e-33
6.93519e-34
3.08489e-34