/*--------------------------------*- C++ -*----------------------------------*\
| =========                 |                                                 |
| \\      /  F ield         | OpenFOAM: The Open Source CFD Toolbox           |
|  \\    /   O peration     | Version:  2406                                  |
|   \\  /    A nd           | Website:  www.openfoam.com                      |
|    \\/     M anipulation  |                                                 |
\*---------------------------------------------------------------------------*/
FoamFile
{
    version     2.0;
    format      ascii;
    arch        "LSB;label=32;scalar=64";
    class       volScalarField;
    location    "0.05";
    object      alpha.glycerin_0;
}
// * * * * * * * * * * * * * * * * * * * * * * * * * * * * * * * * * * * * * //

dimensions      [0 0 0 0 0 0 0];

internalField   nonuniform List<scalar> 
6250
(
-2.14573e-29
-3.63365e-25
-7.69177e-21
-8.70367e-23
0.559865
0.953941
1
1
1
1
1
1
1
1
1
1
1
1
1
1
1
1
1
1
1
1
1
1
1
1
1
1
1
1
1
1
1
1
1
1
1
1
1
1
1
1
1
1
1
1
1
1
1
1
1
1
1
1
1
1
1
1
1
1
1
1
1
1
1
1
1
1
1
1
1
1
1
1
1
1
1
1
1
1
1
1
1
1
1
1
1
1
1
1
1
1
1
1
1
1
1
1
1
1
1
1
1
1
1
1
1
1
1
1
1
1
1
1
1
1
1
1
1
1
1
1
1
1
1
1
1
1
1
1
1
1
1
1
1
1
1
1
1
1
1
1
1
1
1
1
1
1
1
1
1
1
1
1
1
1
1
1
1
1
1
1
1
1
1
1
1
1
1
1
1
1
1
1
1
1
1
1
1
1
1
1
1
1
1
1
1
1
1
1
1
1
1
1
1
1
1
1
1
1
1
1
1
1
1
1
1
1
1
1
1
1
1
1
1
1
1
1
1
1
1
1
1
1
1
1
1
1
1
1
1
1
1
1
1
1
1
1
1
1
1
1
1
1
1
1
-1.14967e-29
-1.99564e-25
-4.17232e-21
0.0022059
0.0257839
0.010426
0.0511737
0.145683
0.289882
0.48869
0.623283
0.690271
0.722421
0.743939
0.776372
0.830365
0.916392
0.963074
0.954573
0.943347
0.942551
0.94839
0.960917
0.97071
0.976298
0.980526
0.985516
0.991148
0.995608
0.99849
0.999944
1
1
1
1
1
0.999999
1
1
1
1
1
1
1
1
1
1
1
1
1
1
1
1
1
1
1
1
1
1
1
1
1
1
1
1
1
1
1
1
1
1
1
1
1
1
1
1
1
1
1
1
1
1
1
1
1
1
1
1
1
1
1
1
1
1
1
1
1
1
1
1
1
1
1
1
1
1
1
1
1
1
1
1
1
1
1
1
1
1
1
1
1
1
1
1
1
1
1
1
1
1
1
1
1
1
1
1
1
1
1
1
1
1
1
1
1
1
1
1
1
1
1
1
1
1
1
1
1
1
1
1
1
1
1
1
1
1
1
1
1
1
1
1
1
1
1
1
1
1
1
1
1
1
1
1
1
1
1
1
1
1
1
1
1
1
1
1
1
1
1
1
1
1
1
1
1
1
1
1
1
1
1
1
1
1
1
1
1
1
1
1
1
1
1
1
1
1
1
1
1
1
1
1
1
1
1
1
1
1
1
1
1
1
1
1
1
1
1
1
1
-4.41612e-30
-8.60845e-26
-3.09438e-21
0.000511479
3.13324e-09
4.1289e-09
1.72947e-09
1.73049e-09
1.40073e-11
1.51405e-11
1.84954e-12
1.88179e-12
0.000147313
0.00268549
0.00430161
0.000882456
2.76272e-10
0.0160083
0.0824483
0.232908
0.279077
0.252502
0.200064
0.188786
0.198806
0.239062
0.306826
0.373425
0.431757
0.500808
0.593574
0.676064
0.70217
0.695198
0.666983
0.623703
0.596883
0.599921
0.634757
0.720019
0.819179
0.854129
0.850243
0.848707
0.858194
0.886363
0.920565
0.95796
0.98696
0.987285
0.97011
0.932557
0.910965
0.906683
0.912538
0.932531
0.960042
0.990219
0.999996
1
1
0.999343
0.992136
0.987441
0.988995
0.995696
1
1
1
1
1
0.99988
0.999763
0.999963
1
1
1
1
1
1
1
1
1
1
1
1
1
1
1
1
1
1
1
1
1
1
1
1
1
1
1
1
1
1
1
1
1
1
1
1
1
1
1
1
1
1
1
1
1
1
1
1
1
1
1
1
1
1
1
1
1
1
1
1
1
1
1
1
1
1
1
1
1
1
1
1
1
1
1
1
1
1
1
1
1
1
1
1
1
1
1
1
1
1
1
1
1
1
1
1
1
1
1
1
1
1
1
1
1
1
1
1
1
1
1
1
1
1
1
1
1
1
1
1
1
1
1
1
1
1
1
1
1
1
1
1
1
1
1
1
1
1
1
1
1
1
1
1
1
1
1
1
1
1
1
1
1
1
1
1
1
1
1
1
1
1
1
1
1
1
1
1
1
1
1
1
1
1
1
1
-1.10676e-30
-2.68706e-26
-7.51576e-22
1.41611e-22
2.84437e-09
5.44345e-09
6.73082e-09
6.70198e-09
6.11833e-09
2.32114e-09
1.11942e-09
2.37431e-10
1.23824e-14
-2.26189e-19
-1.26897e-19
9.78785e-19
2.70656e-10
1.6346e-11
2.1149e-14
2.20831e-13
-6.70883e-15
6.0007e-14
3.75171e-14
1.56278e-09
2.1017e-13
2.53151e-13
1.96131e-13
7.59102e-13
6.40951e-13
2.42123e-12
1.94925e-12
4.09351e-12
1.2726e-12
1.99596e-11
4.6411e-12
4.64257e-12
4.6411e-12
4.64257e-12
4.6411e-12
1.29233e-10
1.21418e-10
0.0363551
0.0991437
0.0940644
0.0575625
0.0385914
0.0494277
0.175592
0.438355
0.489458
0.386354
0.178781
0.0751055
0.0641056
0.0572608
0.0552957
0.114696
0.388941
0.657312
0.676851
0.66864
0.625257
0.453859
0.272149
0.280477
0.447304
0.747108
0.90395
0.910676
0.885724
0.782488
0.598445
0.542734
0.587337
0.71101
0.847359
0.936624
0.985979
0.99993
1
0.994077
0.954216
0.908359
0.906782
0.926475
0.97637
0.999799
1
1
1
0.998992
0.997062
0.998418
1
1
1
1
1
1
1
1
1
1
1
1
1
1
1
1
1
1
1
1
1
1
1
1
1
1
1
1
1
1
1
1
1
1
1
1
1
1
1
1
1
1
1
1
1
1
1
1
1
1
1
1
1
1
1
1
1
1
1
1
1
1
1
1
1
1
1
1
1
1
1
1
1
1
1
1
1
1
1
1
1
1
1
1
1
1
1
1
1
1
1
1
1
1
1
1
1
1
1
1
1
1
1
1
1
1
1
1
1
1
1
1
1
1
1
1
1
1
1
1
1
1
1
1
1
1
1
1
1
1
1
1
1
1
1
1
1
1
1
1
1
1
1
1
1
1
1
1
1
1
1
1
1
1
1
1
1
-1.48315e-31
-5.50146e-27
-1.26852e-22
9.34862e-11
1.38194e-09
2.24107e-09
4.08697e-09
4.46609e-09
4.41e-09
2.4189e-09
1.65652e-09
6.04533e-10
2.79954e-10
1.12007e-10
5.10778e-11
3.55242e-11
6.30736e-11
6.7397e-11
6.96552e-11
6.68962e-11
6.12696e-11
5.24534e-11
5.18736e-11
5.8317e-11
8.88567e-11
1.23075e-10
2.24145e-10
3.37433e-10
6.14708e-10
9.77709e-10
1.27697e-09
1.19972e-09
2.32114e-12
4.3739e-09
2.85996e-08
3.79566e-08
4.01983e-08
2.45799e-08
5.35357e-09
1.03592e-08
1.30011e-08
3.0817e-09
3.57977e-09
5.40589e-09
5.64923e-09
5.73132e-09
5.72105e-09
8.80482e-09
5.05798e-09
5.05869e-09
2.63824e-09
2.56602e-09
2.63824e-09
4.90513e-09
4.90443e-09
5.27341e-09
2.67895e-09
2.6869e-09
2.61495e-09
2.67613e-09
2.07072e-09
2.08988e-09
1.9565e-09
1.95678e-09
1.85633e-09
1.86009e-09
1.83099e-09
0.0380501
0.146337
0.108022
0.00897597
2.26954e-09
2.27474e-09
1.49992e-09
1.11505e-09
1.06453e-09
0.00719611
0.272981
0.652715
0.700748
0.586353
0.259147
0.030125
0.00334658
0.00774983
0.274908
0.778269
0.886315
0.880617
0.844512
0.633798
0.415448
0.480617
0.717677
0.918088
0.979261
0.975899
0.939076
0.92067
0.935251
0.976852
0.998993
1
1
1
1
1
1
1
1
1
1
1
1
1
1
1
1
1
1
1
1
1
1
1
1
1
1
1
1
1
1
1
1
1
1
1
1
1
1
1
1
1
1
1
1
1
1
1
1
1
1
1
1
1
1
1
1
1
1
1
1
1
1
1
1
1
1
1
1
1
1
1
1
1
1
1
1
1
1
1
1
1
1
1
1
1
1
1
1
1
1
1
1
1
1
1
1
1
1
1
1
1
1
1
1
1
1
1
1
1
1
1
1
1
1
1
1
1
1
1
1
1
1
1
1
1
1
1
1
1
1
1
1
1
1
1
1
1
1
1
1
1
1
1
1
1
1
1
1
-1.02328e-32
-6.85713e-28
-1.39403e-23
5.30811e-11
2.28894e-10
3.80319e-10
8.40232e-10
1.08308e-09
1.07688e-09
7.69377e-10
5.74977e-10
2.18821e-10
1.17263e-10
4.41649e-11
3.09874e-11
2.45801e-11
2.76405e-11
3.13563e-11
3.77636e-11
3.99743e-11
4.10764e-11
4.09252e-11
4.11155e-11
4.1926e-11
4.61596e-11
5.16863e-11
6.3223e-11
7.91171e-11
1.07294e-10
1.47806e-10
2.17367e-10
2.96226e-10
3.4825e-10
5.12939e-10
1.17902e-09
1.33415e-09
9.86843e-09
1.33953e-08
1.22052e-08
6.17729e-09
3.29991e-09
3.15518e-09
3.84457e-08
4.72336e-08
4.78182e-08
8.86079e-09
1.10228e-08
2.04052e-07
3.84784e-07
3.88332e-07
1.34726e-07
1.9975e-09
2.2885e-07
1.26925e-06
1.27317e-06
1.14249e-06
9.02921e-08
4.39105e-09
1.71923e-08
2.31767e-08
2.37628e-08
1.23301e-08
4.94889e-09
1.95649e-09
3.0652e-09
3.3346e-09
2.73395e-09
2.27636e-09
1.70056e-09
1.72433e-09
2.40718e-09
2.96077e-09
3.18047e-09
3.07078e-09
2.88245e-09
1.70017e-09
1.35267e-09
1.15265e-09
1.29499e-09
6.83445e-10
6.99554e-10
6.71453e-10
8.82624e-10
8.52008e-10
9.28244e-10
7.14581e-10
4.879e-09
0.0111386
0.0410807
0.0273067
7.79091e-10
7.74534e-10
8.01288e-10
5.876e-10
5.7877e-10
0.254932
0.451235
0.250091
0.0583301
0.0734844
0.300084
0.597615
0.603172
0.609621
0.729938
0.891003
0.933387
0.926054
0.919491
0.93354
0.975686
0.999283
1
1
1
1
1
1
1
1
1
1
1
1
1
1
1
1
1
1
1
1
1
1
1
1
1
1
1
1
1
1
1
1
1
1
1
1
1
1
1
1
1
1
1
1
1
1
1
1
1
1
1
1
1
1
1
1
1
1
1
1
1
1
1
1
1
1
1
1
1
1
1
1
1
1
1
1
1
1
1
1
1
1
1
1
1
1
1
1
1
1
1
1
1
1
1
1
1
1
1
1
1
1
1
1
1
1
1
1
1
1
1
1
1
1
1
1
1
1
1
1
1
1
1
1
1
1
1
1
1
1
1
1
1
1
1
1
1
1
-4.12594e-34
-5.26353e-29
-9.50443e-25
5.91632e-12
2.53875e-11
4.09523e-11
1.15917e-10
1.41736e-10
1.55014e-10
1.23962e-10
9.47455e-11
3.88446e-11
2.25988e-11
1.15733e-11
9.83871e-12
9.67939e-12
1.10624e-11
1.2524e-11
1.55365e-11
1.70027e-11
1.93835e-11
2.02589e-11
2.17101e-11
2.24198e-11
2.41396e-11
2.53183e-11
2.86671e-11
3.20683e-11
3.8159e-11
4.66245e-11
6.00202e-11
7.96627e-11
1.07527e-10
1.52559e-10
1.74701e-10
1.9597e-10
3.91294e-10
1.13525e-09
2.08795e-09
1.78778e-09
1.77655e-09
2.87934e-09
6.02395e-09
3.11757e-09
4.24703e-09
2.45728e-08
6.13259e-08
6.30495e-08
4.71933e-08
1.4959e-08
7.68142e-09
1.88573e-09
5.38112e-09
8.87342e-07
5.23936e-07
3.02816e-08
1.77141e-08
1.31467e-08
9.41895e-09
6.4938e-09
5.07184e-09
1.73323e-09
3.58367e-09
1.77908e-06
2.65264e-06
2.60867e-06
6.532e-07
6.05732e-09
6.88938e-09
6.8175e-09
6.40711e-09
6.12324e-09
5.88304e-09
5.8136e-09
5.29487e-09
5.30516e-09
4.91411e-09
4.88085e-09
4.46364e-09
4.3877e-09
4.18489e-09
4.20767e-09
4.09693e-09
4.12016e-09
3.44972e-09
2.83094e-09
1.73144e-09
1.25579e-09
9.66122e-10
9.66122e-10
9.76132e-10
1.22683e-09
1.29308e-09
1.14343e-09
6.53428e-10
6.33146e-10
5.90368e-10
5.7877e-10
5.90368e-10
7.03019e-10
6.19148e-10
5.87838e-10
6.19148e-10
7.95045e-10
7.60694e-10
0.0116462
0.155506
0.188746
0.113119
0.0984555
0.279267
0.635797
0.723433
0.737007
0.807445
0.915167
0.98368
0.999658
1
1
1
1
1
1
1
1
1
1
1
1
1
1
1
1
1
1
1
1
1
1
1
1
1
1
1
1
1
1
1
1
1
1
1
1
1
1
1
1
1
1
1
1
1
1
1
1
1
1
1
1
1
1
1
1
1
1
1
1
1
1
1
1
1
1
1
1
1
1
1
1
1
1
1
1
1
1
1
1
1
1
1
1
1
1
1
1
1
1
1
1
1
1
1
1
1
1
1
1
1
1
1
1
1
1
1
1
1
1
1
1
1
1
1
1
1
1
1
1
1
1
1
1
1
1
1
1
1
1
1
1
-1.04286e-35
-2.588e-30
-4.15172e-26
3.01229e-13
1.66655e-12
3.2374e-12
9.96219e-12
1.28685e-11
1.38723e-11
1.13079e-11
8.77698e-12
4.09756e-12
2.77849e-12
2.13284e-12
2.24091e-12
2.51949e-12
3.28074e-12
3.82128e-12
4.96915e-12
5.59072e-12
6.75005e-12
7.24719e-12
8.07827e-12
8.44704e-12
9.17979e-12
9.59225e-12
1.0548e-11
1.14982e-11
1.3053e-11
1.52625e-11
1.86531e-11
2.35739e-11
3.11574e-11
4.29626e-11
5.60052e-11
7.60458e-11
9.32953e-11
1.43002e-10
2.3679e-10
3.17872e-10
5.24021e-10
6.37819e-10
9.8437e-10
9.03692e-10
1.97632e-09
2.42036e-09
6.70392e-09
1.30014e-08
1.23245e-08
5.09626e-09
3.31626e-09
1.70653e-09
5.50399e-09
2.77535e-08
1.10055e-07
6.50867e-08
9.7788e-09
4.70682e-09
5.24476e-09
2.83506e-09
2.82002e-09
9.44065e-10
6.53395e-08
2.20012e-06
2.6091e-06
5.70431e-07
2.0026e-08
1.49194e-08
1.19288e-08
1.22391e-08
1.14087e-08
1.08589e-08
9.04386e-09
8.07303e-09
6.95447e-09
6.6958e-09
5.41384e-09
5.3081e-09
4.48826e-09
4.41672e-09
3.99936e-09
3.94376e-09
3.61261e-09
3.58229e-09
3.28327e-09
3.22916e-09
2.85822e-09
2.76844e-09
2.45708e-09
2.4271e-09
2.38914e-09
2.39016e-09
2.32046e-09
2.281e-09
2.18477e-09
2.25041e-09
2.31966e-09
2.67615e-09
3.01254e-09
3.66594e-09
4.21016e-09
4.48818e-09
4.43065e-09
4.05309e-09
3.04293e-09
1.88869e-09
1.59985e-09
1.74853e-09
1.67163e-09
2.46234e-09
1.86896e-09
1.7283e-09
1.66849e-09
1.71013e-09
1.70186e-09
8.53775e-09
0.176071
0.584783
0.702021
0.762609
0.873196
0.970951
0.999585
1
1
1
1
1
1
1
1
1
1
1
1
1
1
1
1
1
1
1
1
1
1
1
1
1
1
1
1
1
1
1
1
1
1
1
1
1
1
1
1
1
1
1
1
1
1
1
1
1
1
1
1
1
1
1
1
1
1
1
1
1
1
1
1
1
1
1
1
1
1
1
1
1
1
1
1
1
1
1
1
1
1
1
1
1
1
1
1
1
1
1
1
1
1
1
1
1
1
1
1
1
1
1
1
1
1
1
1
1
1
1
1
1
1
1
1
1
1
1
1
1
1
1
1
1
1
1
-1.72218e-37
-8.4161e-32
-1.23671e-27
9.09366e-15
6.72913e-14
1.54568e-13
5.04329e-13
6.83009e-13
7.42618e-13
6.2643e-13
5.03432e-13
3.05241e-13
2.67374e-13
2.83565e-13
3.77719e-13
4.6686e-13
6.75323e-13
8.19138e-13
1.12186e-12
1.29433e-12
1.6106e-12
1.76122e-12
2.01924e-12
2.14136e-12
2.37021e-12
2.49931e-12
2.7901e-12
2.99695e-12
3.5185e-12
4.0236e-12
4.84512e-12
6.03289e-12
7.89301e-12
1.00817e-11
1.45098e-11
1.88264e-11
2.74089e-11
3.58394e-11
5.46479e-11
6.74349e-11
1.07857e-10
1.2677e-10
1.86972e-10
2.09564e-10
3.58075e-10
4.18051e-10
7.04494e-10
7.49124e-10
8.04983e-10
7.73678e-10
7.82946e-10
8.07677e-10
1.14348e-09
1.40944e-09
2.147e-09
2.40487e-09
2.67731e-09
2.64133e-09
2.58159e-09
1.97507e-09
2.34098e-09
9.72079e-10
8.21541e-09
1.55257e-07
2.72368e-07
1.84272e-07
1.8021e-08
1.10345e-08
1.02183e-08
1.07091e-08
8.12873e-09
8.25251e-09
7.06834e-09
6.98408e-09
5.47657e-09
5.32997e-09
4.26789e-09
4.1104e-09
3.3218e-09
3.18449e-09
2.62322e-09
2.50363e-09
2.09654e-09
2.01204e-09
1.73693e-09
1.66979e-09
1.51886e-09
1.48778e-09
1.39577e-09
1.36803e-09
1.27404e-09
1.24272e-09
1.15595e-09
1.11897e-09
1.0644e-09
1.01933e-09
9.87352e-10
9.70562e-10
9.68766e-10
1.01167e-09
1.0783e-09
1.1729e-09
1.3981e-09
1.58073e-09
2.87183e-09
2.92177e-09
7.23293e-09
8.39385e-09
9.00678e-09
8.16839e-09
6.99216e-09
5.84164e-09
4.84093e-09
4.14551e-09
2.62771e-09
1.96297e-09
1.65987e-09
1.60572e-09
1.58082e-09
3.45182e-09
7.08503e-09
0.0534948
0.610694
0.898247
0.932456
0.981409
0.999841
1
1
1
1
1
1
1
1
1
1
1
1
1
1
1
1
1
1
1
1
1
1
1
1
1
1
1
1
1
1
1
1
1
1
1
1
1
1
1
1
1
1
1
1
1
1
1
1
1
1
1
1
1
1
1
1
1
1
1
1
1
1
1
1
1
1
1
1
1
1
1
1
1
1
1
1
1
1
1
1
1
1
1
1
1
1
1
1
1
1
1
1
1
1
1
1
1
1
1
1
1
1
1
1
1
1
1
1
1
1
1
1
1
1
1
1
1
1
1
1
1
1
1
-1.87048e-39
-1.80618e-33
-2.59623e-29
1.77347e-16
1.66422e-15
4.36515e-15
1.51503e-14
2.11986e-14
2.41849e-14
2.19672e-14
1.91351e-14
1.70721e-14
2.08426e-14
2.71692e-14
4.38582e-14
5.81544e-14
9.16317e-14
1.15387e-13
1.65138e-13
1.94356e-13
2.48256e-13
2.75837e-13
3.2595e-13
3.52481e-13
4.04881e-13
4.34747e-13
5.00495e-13
5.45885e-13
6.58238e-13
7.41913e-13
9.59984e-13
1.10238e-12
1.60712e-12
1.90706e-12
3.0538e-12
3.68534e-12
5.69018e-12
6.75451e-12
1.04012e-11
1.23589e-11
1.86789e-11
2.17345e-11
3.15272e-11
3.63989e-11
5.23601e-11
5.96971e-11
7.85222e-11
8.32777e-11
9.45557e-11
9.94352e-11
1.14962e-10
1.25011e-10
1.53997e-10
1.69117e-10
2.1576e-10
2.38433e-10
3.10347e-10
3.4683e-10
4.68994e-10
5.21485e-10
8.89461e-10
9.98467e-10
3.6437e-09
5.03919e-09
7.98395e-09
8.92102e-09
7.07508e-09
5.91601e-09
4.97646e-09
4.3718e-09
3.71963e-09
3.48598e-09
2.89267e-09
2.7763e-09
2.26345e-09
2.13789e-09
1.72838e-09
1.6182e-09
1.30639e-09
1.21748e-09
9.91381e-10
9.29855e-10
7.65798e-10
7.12677e-10
5.96127e-10
5.61544e-10
4.8577e-10
4.62087e-10
4.04109e-10
3.8041e-10
3.27162e-10
3.01852e-10
2.71074e-10
2.48624e-10
2.2578e-10
2.09918e-10
2.0122e-10
1.99753e-10
2.03697e-10
2.22761e-10
2.50101e-10
2.99718e-10
4.38251e-10
5.46595e-10
8.94748e-10
1.03422e-09
1.69425e-09
1.86577e-09
2.42894e-09
2.39273e-09
3.5374e-09
4.10356e-09
5.48883e-09
5.53001e-09
5.54352e-09
4.78807e-09
3.84941e-09
3.10369e-09
2.4799e-09
2.0889e-09
1.04185e-09
7.90952e-10
7.28911e-10
7.56872e-09
7.89571e-11
0.238063
0.905391
0.995915
1
1
1
1
1
1
1
1
1
1
1
1
1
1
1
1
1
1
1
1
1
1
1
1
1
1
1
1
1
1
1
1
1
1
1
1
1
1
1
1
1
1
1
1
1
1
1
1
1
1
1
1
1
1
1
1
1
1
1
1
1
1
1
1
1
1
1
1
1
1
1
1
1
1
1
1
1
1
1
1
1
1
1
1
1
1
1
1
1
1
1
1
1
1
1
1
1
1
1
1
1
1
1
1
1
1
1
1
1
1
1
1
1
1
1
1
1
1
1
1
1
1
-1.28058e-41
-2.41532e-35
-3.71864e-31
3.31468e-18
2.40084e-17
8.68106e-17
2.48135e-16
3.75607e-16
4.67777e-16
4.97721e-16
5.63003e-16
6.75418e-16
1.20544e-15
1.69985e-15
3.21243e-15
4.56351e-15
7.61507e-15
9.91174e-15
1.47076e-14
1.76249e-14
2.31908e-14
2.62814e-14
3.15305e-14
3.57145e-14
4.2296e-14
4.7299e-14
5.59117e-14
6.3358e-14
7.96777e-14
8.91633e-14
1.23143e-13
1.43457e-13
2.22949e-13
2.67712e-13
4.22426e-13
5.0603e-13
7.78272e-13
9.19287e-13
1.38987e-12
1.6395e-12
2.43087e-12
2.81679e-12
4.03935e-12
4.67531e-12
6.25326e-12
6.97227e-12
8.90399e-12
9.82248e-12
1.19137e-11
1.30804e-11
1.59609e-11
1.76293e-11
2.1888e-11
2.43483e-11
3.08269e-11
3.47383e-11
4.51639e-11
5.10105e-11
6.98383e-11
8.09867e-11
1.22248e-10
1.66878e-10
2.52111e-10
3.60812e-10
4.75797e-10
5.52656e-10
5.86222e-10
5.96303e-10
5.87602e-10
5.70278e-10
5.30895e-10
4.98015e-10
4.51433e-10
4.23904e-10
3.62085e-10
3.39648e-10
2.84425e-10
2.63666e-10
2.17001e-10
1.99578e-10
1.6383e-10
1.52176e-10
1.25415e-10
1.15534e-10
9.66504e-11
9.04658e-11
7.79065e-11
7.34154e-11
6.35591e-11
5.94702e-11
5.01169e-11
4.572e-11
4.06381e-11
3.71506e-11
3.39621e-11
3.18707e-11
3.08847e-11
3.10133e-11
3.19565e-11
3.41642e-11
4.05613e-11
4.62747e-11
6.31796e-11
7.83619e-11
1.20227e-10
1.40777e-10
2.09559e-10
2.37563e-10
3.44104e-10
3.87701e-10
5.67909e-10
6.54042e-10
9.256e-10
1.01545e-09
1.17419e-09
1.20595e-09
1.27189e-09
1.27306e-09
1.281e-09
1.2076e-09
1.14811e-09
9.13674e-10
7.23691e-10
5.21331e-10
1.03369e-10
1.1764e-11
1.186e-11
0.0743577
0.785863
1
1
1
1
1
1
1
1
1
1
1
1
1
1
1
1
1
1
1
1
1
1
1
1
1
1
1
1
1
1
1
1
1
1
1
1
1
1
1
1
1
1
1
1
1
1
1
1
1
1
1
1
1
1
1
1
1
1
1
1
1
1
1
1
1
1
1
1
1
1
1
1
1
1
1
1
1
1
1
1
1
1
1
1
1
1
1
1
1
1
1
1
1
1
1
1
1
1
1
1
1
1
1
1
1
1
1
1
1
1
1
1
1
1
1
1
1
1
1
1
1
-4.78154e-44
-1.68041e-37
-3.09837e-33
2.48467e-20
1.85072e-19
7.79854e-19
2.10314e-18
3.52878e-18
5.02721e-18
7.11822e-18
1.22764e-17
2.21195e-17
4.15241e-17
6.48965e-17
1.38005e-16
2.1764e-16
3.36041e-16
4.87886e-16
6.58976e-16
8.41721e-16
1.1465e-15
1.33989e-15
1.69053e-15
1.94143e-15
2.41232e-15
2.77416e-15
3.47721e-15
3.98479e-15
5.21529e-15
6.1741e-15
9.10014e-15
1.08127e-14
1.72526e-14
2.08833e-14
3.30265e-14
3.95122e-14
6.07103e-14
7.19439e-14
1.07641e-13
1.25658e-13
1.84044e-13
2.1552e-13
2.98164e-13
3.39096e-13
4.70792e-13
5.49693e-13
7.12754e-13
8.02774e-13
1.03939e-12
1.17304e-12
1.49014e-12
1.67157e-12
2.12142e-12
2.3806e-12
3.04945e-12
3.45586e-12
4.49498e-12
5.11472e-12
6.74592e-12
8.08628e-12
1.02743e-11
1.30993e-11
1.66628e-11
2.08519e-11
2.53984e-11
2.98091e-11
3.36697e-11
3.67608e-11
3.81391e-11
3.94878e-11
3.97028e-11
3.90671e-11
3.71053e-11
3.55247e-11
3.12827e-11
2.93835e-11
2.50045e-11
2.32233e-11
1.94176e-11
1.80449e-11
1.49162e-11
1.37038e-11
1.12468e-11
1.03559e-11
8.52212e-12
7.85822e-12
6.51856e-12
6.01767e-12
4.93325e-12
4.49068e-12
3.61774e-12
3.22771e-12
2.80215e-12
2.49671e-12
2.30882e-12
2.22127e-12
2.21773e-12
2.37439e-12
2.66909e-12
3.08926e-12
4.24583e-12
5.34285e-12
8.54716e-12
1.04745e-11
1.70417e-11
2.05077e-11
3.04577e-11
3.44165e-11
4.66351e-11
5.25322e-11
6.81942e-11
7.67676e-11
9.18591e-11
1.04911e-10
1.25722e-10
1.42004e-10
1.63349e-10
1.7504e-10
1.99601e-10
2.12431e-10
2.33038e-10
2.49774e-10
2.53655e-10
2.36895e-10
1.97737e-10
1.35107e-10
4.30649e-11
1.47514e-11
1.16662e-08
0.48356
0.998133
1
1
1
1
1
1
1
1
1
1
1
1
1
1
1
1
1
1
1
1
1
1
1
1
1
1
1
1
1
1
1
1
1
1
1
1
1
1
1
1
1
1
1
1
1
1
1
1
1
1
1
1
1
1
1
1
1
1
1
1
1
1
1
1
1
1
1
1
1
1
1
1
1
1
1
1
1
1
1
1
1
1
1
1
1
1
1
1
1
1
1
1
1
1
1
1
1
1
1
1
1
1
1
1
1
1
1
1
1
1
1
1
1
1
1
1
1
1
1
-5.62469e-47
-3.92548e-40
-2.81141e-36
5.30131e-23
5.19846e-22
2.76286e-21
9.89215e-21
2.89456e-20
8.61801e-20
2.20766e-19
5.30576e-19
1.11323e-18
2.23556e-18
4.18851e-18
7.53679e-18
1.3014e-17
2.1092e-17
3.28293e-17
4.94044e-17
7.14651e-17
1.01164e-16
1.33562e-16
1.92531e-16
2.47615e-16
3.2181e-16
4.11556e-16
5.15341e-16
6.13966e-16
8.38324e-16
9.90103e-16
1.38023e-15
1.65898e-15
2.42134e-15
2.84698e-15
4.29492e-15
5.07717e-15
7.55811e-15
8.87581e-15
1.29276e-14
1.5067e-14
2.11395e-14
2.43655e-14
3.36053e-14
3.77878e-14
5.07723e-14
5.89658e-14
7.61125e-14
8.6098e-14
1.12666e-13
1.27753e-13
1.61741e-13
1.80484e-13
2.25487e-13
2.51123e-13
3.14812e-13
3.52358e-13
4.42542e-13
4.9036e-13
6.15506e-13
7.08431e-13
8.40714e-13
9.96682e-13
1.17039e-12
1.36137e-12
1.56066e-12
1.75483e-12
1.92618e-12
2.06526e-12
2.14877e-12
2.17174e-12
2.11716e-12
2.02105e-12
1.82788e-12
1.69756e-12
1.42405e-12
1.3137e-12
1.0714e-12
9.73842e-13
7.7194e-13
6.9807e-13
5.45577e-13
4.90335e-13
3.88613e-13
3.53705e-13
2.8973e-13
2.68218e-13
2.30315e-13
2.17282e-13
1.93628e-13
1.80754e-13
1.72325e-13
1.65092e-13
1.60505e-13
1.60534e-13
1.64216e-13
1.76654e-13
1.93846e-13
2.18075e-13
2.76409e-13
3.2022e-13
4.37892e-13
5.22043e-13
7.34361e-13
8.56173e-13
1.29476e-12
1.5379e-12
2.36708e-12
2.77399e-12
4.48965e-12
5.48363e-12
8.7655e-12
1.09404e-11
1.4911e-11
1.818e-11
2.24962e-11
2.55118e-11
2.90568e-11
3.11931e-11
3.74884e-11
4.20745e-11
4.80377e-11
5.42346e-11
5.88759e-11
6.09086e-11
5.83681e-11
5.03551e-11
3.10432e-11
1.46529e-11
1.47514e-11
0.1001
0.859119
1
1
1
1
1
1
1
1
1
1
1
1
1
1
1
1
1
1
1
1
1
1
1
1
1
1
1
1
1
1
1
1
1
1
1
1
1
1
1
1
1
1
1
1
1
1
1
1
1
1
1
1
1
1
1
1
1
1
1
1
1
1
1
1
1
1
1
1
1
1
1
1
1
1
1
1
1
1
1
1
1
1
1
1
1
1
1
1
1
1
1
1
1
1
1
1
1
1
1
1
1
1
1
1
1
1
1
1
1
1
1
1
1
1
1
1
1
1
1
-2.5204e-47
-3.80118e-38
-3.00997e-34
2.72242e-21
3.12262e-20
2.05933e-19
9.14345e-19
3.56613e-18
9.97283e-18
2.44234e-17
5.54977e-17
9.00513e-17
2.00954e-16
2.82055e-16
5.49733e-16
8.4042e-16
1.36367e-15
1.84007e-15
2.87395e-15
3.73814e-15
5.7189e-15
7.16471e-15
1.02846e-14
1.23854e-14
1.68823e-14
1.97741e-14
2.58976e-14
2.95673e-14
3.88753e-14
4.45613e-14
5.91483e-14
6.86283e-14
9.35038e-14
1.06905e-13
1.5236e-13
1.75931e-13
2.49805e-13
2.88754e-13
4.0204e-13
4.63337e-13
6.43401e-13
7.22083e-13
9.64982e-13
1.11151e-12
1.39624e-12
1.55584e-12
1.93527e-12
2.14998e-12
2.67934e-12
2.96497e-12
3.61265e-12
3.9673e-12
4.82415e-12
5.30839e-12
6.51233e-12
7.21838e-12
8.97837e-12
1.03404e-11
1.23882e-11
1.45682e-11
1.76911e-11
2.15093e-11
2.56769e-11
3.0014e-11
3.41019e-11
3.77812e-11
4.06105e-11
4.32764e-11
4.4431e-11
4.43216e-11
4.25396e-11
4.03278e-11
3.64831e-11
3.38812e-11
2.82855e-11
2.60168e-11
2.10247e-11
1.91729e-11
1.50078e-11
1.33935e-11
1.02693e-11
9.17949e-12
7.03352e-12
6.27187e-12
4.85928e-12
4.38521e-12
3.56182e-12
3.28646e-12
2.78843e-12
2.56542e-12
2.38698e-12
2.29707e-12
2.27382e-12
2.3147e-12
2.39299e-12
2.57193e-12
2.79803e-12
3.1166e-12
3.86373e-12
4.44645e-12
6.15215e-12
7.54049e-12
1.13137e-11
1.36216e-11
2.1974e-11
2.63809e-11
3.96909e-11
4.53164e-11
6.34388e-11
7.48298e-11
9.42831e-11
1.10651e-10
1.38382e-10
1.61757e-10
1.96443e-10
2.2212e-10
2.52572e-10
2.68796e-10
2.99015e-10
3.14801e-10
3.30555e-10
3.43487e-10
3.38864e-10
3.19415e-10
2.78229e-10
1.79577e-10
5.33347e-11
1.47514e-11
1.35876e-08
0.482888
0.998095
1
1
1
1
1
1
1
1
1
1
1
1
1
1
1
1
1
1
1
1
1
1
1
1
1
1
1
1
1
1
1
1
1
1
1
1
1
1
1
1
1
1
1
1
1
1
1
1
1
1
1
1
1
1
1
1
1
1
1
1
1
1
1
1
1
1
1
1
1
1
1
1
1
1
1
1
1
1
1
1
1
1
1
1
1
1
1
1
1
1
1
1
1
1
1
1
1
1
1
1
1
1
1
1
1
1
1
1
1
1
1
1
1
1
1
1
1
1
1
-6.8829e-45
-4.98707e-36
-5.35141e-32
5.66957e-19
3.90702e-18
1.75893e-17
6.52503e-17
1.95626e-16
5.13185e-16
9.32459e-16
2.46553e-15
3.61566e-15
7.16157e-15
1.00168e-14
1.66902e-14
2.21447e-14
3.50694e-14
4.46868e-14
6.68107e-14
8.27408e-14
1.19691e-13
1.45063e-13
2.01019e-13
2.37193e-13
3.10743e-13
3.53941e-13
4.60196e-13
5.18014e-13
6.44204e-13
7.17897e-13
9.01784e-13
1.01458e-12
1.30755e-12
1.46368e-12
1.98358e-12
2.24992e-12
3.08801e-12
3.5365e-12
4.79697e-12
5.40601e-12
7.53576e-12
8.95344e-12
1.16877e-11
1.31096e-11
1.60654e-11
1.75504e-11
2.14964e-11
2.3732e-11
2.89726e-11
3.17913e-11
3.83164e-11
4.14507e-11
4.96648e-11
5.37527e-11
6.50956e-11
7.12711e-11
9.04528e-11
1.06994e-10
1.3639e-10
1.71097e-10
2.32636e-10
3.09608e-10
3.89487e-10
4.58176e-10
5.06609e-10
5.42046e-10
5.59503e-10
5.66203e-10
5.55363e-10
5.37975e-10
4.97444e-10
4.69459e-10
3.97215e-10
3.69791e-10
3.04117e-10
2.79405e-10
2.2411e-10
2.04941e-10
1.60181e-10
1.43215e-10
1.09346e-10
9.76888e-11
7.48449e-11
6.71492e-11
5.3096e-11
4.85291e-11
4.06761e-11
3.81444e-11
3.40888e-11
3.24286e-11
3.08184e-11
3.00239e-11
2.98333e-11
3.02074e-11
3.08736e-11
3.18559e-11
3.42424e-11
3.59471e-11
4.02547e-11
4.36449e-11
5.28053e-11
5.92332e-11
7.73371e-11
8.86582e-11
1.33872e-10
1.54121e-10
2.38317e-10
2.76357e-10
4.32271e-10
5.26559e-10
7.73814e-10
9.8758e-10
1.4244e-09
1.74332e-09
2.05349e-09
2.22178e-09
2.33669e-09
2.3124e-09
2.32304e-09
1.93525e-09
1.71844e-09
1.08612e-09
8.39773e-10
5.38952e-10
8.31503e-11
1.20879e-11
1.19542e-11
0.0738916
0.785146
1
1
1
1
1
1
1
1
1
1
1
1
1
1
1
1
1
1
1
1
1
1
1
1
1
1
1
1
1
1
1
1
1
1
1
1
1
1
1
1
1
1
1
1
1
1
1
1
1
1
1
1
1
1
1
1
1
1
1
1
1
1
1
1
1
1
1
1
1
1
1
1
1
1
1
1
1
1
1
1
1
1
1
1
1
1
1
1
1
1
1
1
1
1
1
1
1
1
1
1
1
1
1
1
1
1
1
1
1
1
1
1
1
1
1
1
1
1
1
1
1
-1.02036e-42
-3.63829e-34
-3.50588e-30
5.48366e-17
3.30186e-16
8.65656e-16
3.15003e-15
5.63581e-15
1.65601e-14
2.64119e-14
6.06563e-14
8.14017e-14
1.4446e-13
1.86943e-13
2.78553e-13
3.44721e-13
4.9567e-13
6.02084e-13
8.41171e-13
1.00363e-12
1.3662e-12
1.62133e-12
2.17239e-12
2.50213e-12
3.16811e-12
3.52068e-12
4.31714e-12
4.7453e-12
5.7009e-12
6.24786e-12
7.53181e-12
8.17192e-12
1.01922e-11
1.12022e-11
1.44033e-11
1.61135e-11
2.11944e-11
2.36627e-11
3.21402e-11
3.79746e-11
5.18052e-11
6.19244e-11
8.52052e-11
9.06802e-11
1.13879e-10
1.2059e-10
1.449e-10
1.56948e-10
1.95831e-10
2.17944e-10
2.7602e-10
2.99783e-10
3.64965e-10
3.92428e-10
4.59632e-10
4.87742e-10
5.98557e-10
7.00692e-10
1.0192e-09
1.61289e-09
3.33286e-09
4.20804e-09
5.92191e-09
6.08802e-09
4.92548e-09
4.61465e-09
3.74597e-09
3.69016e-09
3.29413e-09
3.21079e-09
2.7243e-09
2.60627e-09
2.13915e-09
2.02089e-09
1.62697e-09
1.51601e-09
1.20023e-09
1.11476e-09
8.74463e-10
7.96564e-10
6.18008e-10
5.62295e-10
4.37749e-10
3.97753e-10
3.18033e-10
2.92845e-10
2.46303e-10
2.29054e-10
2.12622e-10
2.00384e-10
1.91708e-10
1.87279e-10
1.85813e-10
1.87044e-10
1.8983e-10
1.94142e-10
2.04528e-10
2.11735e-10
2.29998e-10
2.43625e-10
2.8356e-10
3.14341e-10
4.00654e-10
4.421e-10
6.91721e-10
7.59252e-10
1.43534e-09
1.68457e-09
2.58348e-09
2.7065e-09
4.14694e-09
5.27204e-09
8.74926e-09
1.05804e-08
1.10035e-08
9.7818e-09
8.41839e-09
5.43713e-09
3.48706e-09
2.44801e-09
1.09901e-09
7.20829e-11
7.59773e-11
4.58733e-11
1.91905e-11
0.236928
0.904766
0.995918
1
1
1
1
1
1
1
1
1
1
1
1
1
1
1
1
1
1
1
1
1
1
1
1
1
1
1
1
1
1
1
1
1
1
1
1
1
1
1
1
1
1
1
1
1
1
1
1
1
1
1
1
1
1
1
1
1
1
1
1
1
1
1
1
1
1
1
1
1
1
1
1
1
1
1
1
1
1
1
1
1
1
1
1
1
1
1
1
1
1
1
1
1
1
1
1
1
1
1
1
1
1
1
1
1
1
1
1
1
1
1
1
1
1
1
1
1
1
1
1
1
1
-9.51228e-41
-1.69313e-32
-1.44045e-28
2.48044e-15
1.88756e-14
4.0462e-14
1.0675e-13
1.52911e-13
3.25614e-13
4.61623e-13
9.05999e-13
1.10685e-12
1.75784e-12
2.17106e-12
2.92855e-12
3.40225e-12
4.43462e-12
5.1941e-12
6.94724e-12
8.10236e-12
1.04892e-11
1.1941e-11
1.47119e-11
1.62373e-11
2.00829e-11
2.21007e-11
2.61834e-11
2.83602e-11
3.31455e-11
3.56831e-11
4.14327e-11
4.41742e-11
5.27592e-11
5.71252e-11
7.00204e-11
7.59863e-11
9.71309e-11
1.0846e-10
1.48996e-10
1.68655e-10
2.35746e-10
2.83999e-10
5.77692e-10
6.59365e-10
9.06369e-10
8.86119e-10
8.80925e-10
8.47425e-10
1.02722e-09
1.31146e-09
2.76748e-09
3.35899e-09
4.10273e-09
4.17789e-09
4.20619e-09
3.42501e-09
2.98936e-09
2.00015e-09
3.24179e-09
5.20599e-09
4.66424e-08
1.6871e-07
1.7454e-07
3.90202e-08
8.52227e-09
6.74996e-09
6.28671e-09
6.8252e-09
6.50601e-09
6.50721e-09
5.47522e-09
5.31495e-09
4.32176e-09
4.19894e-09
3.41456e-09
3.29828e-09
2.64934e-09
2.49881e-09
2.00792e-09
1.89952e-09
1.52572e-09
1.42143e-09
1.14156e-09
1.06436e-09
8.9667e-10
8.50264e-10
7.88767e-10
7.85625e-10
7.91743e-10
8.0981e-10
8.28697e-10
8.59023e-10
8.9457e-10
9.38363e-10
9.77129e-10
1.01767e-09
1.0485e-09
1.06976e-09
1.11005e-09
1.13012e-09
1.19837e-09
1.22382e-09
1.26267e-09
1.20374e-09
1.48851e-09
1.42498e-10
9.0407e-09
1.42122e-08
1.78622e-08
1.7549e-08
1.79523e-08
1.27371e-08
7.99529e-09
5.25754e-09
3.35443e-09
1.97118e-09
1.12972e-09
4.47035e-10
-1.08273e-11
-9.44689e-12
-8.43094e-11
0.0527047
0.609166
0.898206
0.932442
0.981342
0.999837
1
1
1
1
1
1
1
1
1
1
1
1
1
1
1
1
1
1
1
1
1
1
1
1
1
1
1
1
1
1
1
1
1
1
1
1
1
1
1
1
1
1
1
1
1
1
1
1
1
1
1
1
1
1
1
1
1
1
1
1
1
1
1
1
1
1
1
1
1
1
1
1
1
1
1
1
1
1
1
1
1
1
1
1
1
1
1
1
1
1
1
1
1
1
1
1
1
1
1
1
1
1
1
1
1
1
1
1
1
1
1
1
1
1
1
1
1
1
1
1
1
1
1
-5.82069e-39
-5.23886e-31
-3.98849e-27
9.08373e-14
6.34875e-13
1.22572e-12
2.45427e-12
2.89053e-12
4.23261e-12
5.23181e-12
8.57808e-12
1.08046e-11
1.46856e-11
1.67071e-11
2.043e-11
2.26106e-11
2.74985e-11
3.09161e-11
3.87779e-11
4.41792e-11
5.46756e-11
6.01028e-11
7.21938e-11
7.85704e-11
9.18824e-11
9.80669e-11
1.1186e-10
1.19353e-10
1.362e-10
1.43462e-10
1.64618e-10
1.74029e-10
1.99445e-10
2.13131e-10
2.55825e-10
2.63015e-10
3.52409e-10
3.89202e-10
5.65775e-10
6.37964e-10
8.80845e-10
9.25217e-10
5.10922e-09
7.39955e-09
9.98213e-09
7.35554e-09
6.26073e-09
3.17654e-09
2.67626e-09
1.37065e-09
4.57459e-08
1.56444e-07
8.16187e-08
6.49362e-09
7.47898e-09
4.44419e-09
3.70901e-09
2.83333e-09
2.80288e-09
5.13753e-09
1.25165e-06
2.86632e-06
6.89249e-07
1.36814e-08
8.985e-09
9.53279e-09
8.46072e-09
8.45206e-09
6.43891e-09
6.32618e-09
5.01937e-09
4.86629e-09
3.99364e-09
3.86845e-09
3.35563e-09
3.28738e-09
2.97226e-09
2.93688e-09
2.65126e-09
2.58335e-09
2.28692e-09
2.22311e-09
1.98541e-09
1.91974e-09
1.77179e-09
1.76899e-09
1.69001e-09
1.60832e-09
1.55132e-09
1.64542e-09
1.71958e-09
1.94534e-09
2.16135e-09
2.32571e-09
2.39122e-09
2.3851e-09
2.15765e-09
2.45514e-09
4.07902e-09
5.85864e-09
9.32081e-09
9.23686e-09
9.28622e-09
4.7996e-09
2.79e-09
1.64388e-10
1.8689e-10
1.75849e-10
7.5387e-10
2.42917e-09
2.33581e-09
7.47668e-10
1.04558e-10
7.95938e-11
2.82557e-10
2.67364e-09
0.174408
0.583872
0.702056
0.762385
0.872791
0.970762
0.999575
1
1
1
1
1
1
1
1
1
1
1
1
1
1
1
1
1
1
1
1
1
1
1
1
1
1
1
1
1
1
1
1
1
1
1
1
1
1
1
1
1
1
1
1
1
1
1
1
1
1
1
1
1
1
1
1
1
1
1
1
1
1
1
1
1
1
1
1
1
1
1
1
1
1
1
1
1
1
1
1
1
1
1
1
1
1
1
1
1
1
1
1
1
1
1
1
1
1
1
1
1
1
1
1
1
1
1
1
1
1
1
1
1
1
1
1
1
1
1
1
1
1
1
1
1
1
1
-2.32325e-37
-1.07436e-29
-7.81661e-26
1.69885e-12
1.25817e-11
2.27973e-11
3.65227e-11
3.68592e-11
3.77163e-11
3.98804e-11
5.28769e-11
6.18975e-11
7.86456e-11
8.58832e-11
9.80515e-11
1.03671e-10
1.18669e-10
1.3134e-10
1.61532e-10
1.81092e-10
2.25441e-10
2.45442e-10
2.86337e-10
3.02656e-10
3.33631e-10
3.47578e-10
3.82895e-10
3.96555e-10
4.43189e-10
4.6013e-10
5.18176e-10
5.42485e-10
6.08427e-10
6.32294e-10
8.30964e-10
8.55334e-10
1.87694e-09
1.88471e-09
2.19805e-09
2.65895e-09
5.35936e-09
2.36765e-09
3.01905e-08
3.83733e-08
3.91967e-08
3.14579e-08
1.25755e-08
3.13964e-09
5.94338e-09
2.41049e-07
5.04707e-07
5.18003e-07
1.9084e-07
1.71982e-08
2.02387e-08
2.26835e-08
1.85766e-08
5.50307e-09
4.63448e-09
7.00105e-09
1.10124e-06
2.90309e-06
2.8947e-06
1.6734e-06
5.48936e-09
4.05299e-09
3.53586e-09
3.87545e-09
3.60334e-09
3.50404e-09
2.96782e-09
2.88347e-09
2.82042e-09
2.83817e-09
2.84458e-09
2.87328e-09
2.77184e-09
2.75318e-09
2.56342e-09
2.60836e-09
2.49982e-09
3.4375e-09
4.01335e-09
4.50847e-09
4.3859e-09
4.29917e-09
1.73734e-09
6.26881e-10
1.87578e-10
1.87659e-10
4.72442e-10
9.95701e-10
1.16395e-09
9.48201e-10
2.5258e-10
1.90638e-10
-3.44652e-12
-3.08296e-19
-1.1129e-11
1.29704e-09
1.0758e-09
-1.04969e-19
-2.19978e-11
-6.42051e-27
1.07235e-10
0.0107806
0.154106
0.190105
0.114576
0.0985551
0.2762
0.633417
0.72399
0.737436
0.807129
0.914642
0.983503
0.99965
1
1
1
1
1
1
1
1
1
1
1
1
1
1
1
1
1
1
1
1
1
1
1
1
1
1
1
1
1
1
1
1
1
1
1
1
1
1
1
1
1
1
1
1
1
1
1
1
1
1
1
1
1
1
1
1
1
1
1
1
1
1
1
1
1
1
1
1
1
1
1
1
1
1
1
1
1
1
1
1
1
1
1
1
1
1
1
1
1
1
1
1
1
1
1
1
1
1
1
1
1
1
1
1