/*--------------------------------*- C++ -*----------------------------------*\
| =========                 |                                                 |
| \\      /  F ield         | OpenFOAM: The Open Source CFD Toolbox           |
|  \\    /   O peration     | Version:  2406                                  |
|   \\  /    A nd           | Website:  www.openfoam.com                      |
|    \\/     M anipulation  |                                                 |
\*---------------------------------------------------------------------------*/
FoamFile
{
    version     2.0;
    format      ascii;
    arch        "LSB;label=32;scalar=64";
    class       volScalarField;
    location    "0.05";
    object      p;
}
// * * * * * * * * * * * * * * * * * * * * * * * * * * * * * * * * * * * * * //

dimensions      [1 -1 -2 0 0 0 0];

internalField   nonuniform List<scalar> 
6250
(
4997.8
4999.4
4999.39
4999.35
5012.64
5058
5054.61
5037.17
5028.09
5023.31
5019.21
5014.42
5009.41
5005.21
5002.18
4999.78
4997.48
4995.86
4996.26
4997.72
4997.93
4996.08
4993.33
4991.05
4989.65
4989.13
4989.28
4989.66
4990.19
4991.05
4992.21
4993.15
4993.28
4992.41
4990.75
4988.68
4986.71
4985.33
4984.79
4985.12
4985.96
4986.84
4987.21
4986.72
4985.67
4984.85
4985.1
4986.55
4988.23
4988.58
4986.8
4983.42
4979.67
4976.53
4974.32
4973.32
4974.12
4976.54
4979.36
4981.22
4981.46
4980.01
4977.31
4974.42
4972.72
4972.91
4974.55
4976.46
4977.37
4976.47
4973.64
4969.6
4965.5
4962.37
4960.75
4960.68
4961.94
4963.96
4965.82
4966.55
4965.53
4962.81
4959.1
4955.53
4953.14
4952.36
4952.76
4953.45
4953.59
4952.67
4950.68
4948.05
4945.48
4943.46
4942.12
4941.2
4940.27
4939.03
4937.42
4935.62
4933.82
4932.06
4930.31
4928.51
4926.62
4924.6
4922.35
4919.77
4916.79
4913.39
4909.58
4905.38
4900.78
4895.75
4890.29
4884.36
4877.93
4870.94
4863.32
4854.99
4845.91
4836.01
4825.25
4813.59
4800.99
4787.41
4772.84
4757.25
4740.64
4723.02
4704.4
4684.81
4664.27
4642.83
4620.54
4597.45
4573.61
4549.1
4523.96
4498.26
4472.05
4445.38
4418.31
4390.88
4363.14
4335.12
4306.87
4278.41
4249.76
4220.97
4192.04
4163
4133.86
4104.64
4075.35
4046
4016.6
3987.16
3957.68
3928.17
3898.63
3869.07
3839.49
3809.89
3780.28
3750.66
3721.02
3691.38
3661.73
3632.06
3602.39
3572.72
3543.03
3513.35
3483.65
3453.95
3424.25
3394.54
3364.82
3335.11
3305.39
3275.66
3245.93
3216.2
3186.46
3156.72
3126.98
3097.23
3067.48
3037.73
3007.97
2978.22
2948.46
2918.7
2888.94
2859.17
2829.41
2799.64
2769.88
2740.11
2710.34
2680.57
2650.8
2621.03
2591.26
2561.49
2531.72
2501.94
2472.17
2442.4
2412.63
2382.85
2353.08
2323.3
2293.53
2263.75
2233.97
2204.19
2174.42
2144.64
2114.85
2085.07
2055.29
2025.5
1995.72
1965.93
1936.15
1906.36
1876.57
1846.78
1816.98
1787.19
1757.4
1727.61
1697.81
1668.02
1638.23
1608.43
1578.64
1548.84
1519.05
1489.25
1459.45
1429.66
1399.86
1370.06
1340.27
1310.47
1280.67
1250.87
4997.23
4999.13
4999.12
4998.3
4999.17
4997.06
4996.15
4993.87
4993.27
4997.1
5001.69
5000.68
4996.4
4993.39
4992.36
4992.58
4993.04
4990.05
4991.47
4998.01
5000.31
4995.72
4990.09
4987.12
4986.08
4986.22
4987.16
4987.68
4987.49
4987.92
4989.65
4991.36
4991.65
4990.55
4988.5
4985.72
4982.86
4980.6
4979.6
4980.09
4981.29
4982.79
4983.84
4983.22
4981.11
4978.98
4978.57
4980.81
4983.88
4985.05
4983.02
4978.55
4973.76
4970.08
4966.95
4964.68
4965.17
4968.59
4972.59
4975.07
4975.44
4973.74
4970.13
4965.73
4963
4963.42
4966.11
4969.19
4970.91
4970.21
4966.9
4961.79
4956.64
4952.99
4951.26
4951.23
4952.76
4955.4
4957.98
4959.25
4958.35
4955.14
4950.33
4945.49
4942.5
4942.08
4943.31
4944.81
4945.48
4944.74
4942.48
4939.25
4936.14
4933.97
4932.83
4932.27
4931.64
4930.44
4928.66
4926.68
4924.85
4923.2
4921.56
4919.82
4918
4916.1
4914.03
4911.61
4908.74
4905.42
4901.7
4897.62
4893.15
4888.26
4882.93
4877.16
4870.92
4864.15
4856.77
4848.69
4839.86
4830.23
4819.75
4808.38
4796.09
4782.83
4768.59
4753.33
4737.06
4719.76
4701.45
4682.15
4661.89
4640.72
4618.66
4595.79
4572.16
4547.83
4522.85
4497.29
4471.21
4444.65
4417.68
4390.34
4362.67
4334.72
4306.52
4278.11
4249.51
4220.75
4191.85
4162.83
4133.72
4104.52
4075.24
4045.91
4016.52
3987.09
3957.62
3928.12
3898.58
3869.03
3839.45
3809.86
3780.25
3750.63
3721
3691.36
3661.71
3632.05
3602.38
3572.7
3543.02
3513.33
3483.64
3453.94
3424.24
3394.53
3364.82
3335.1
3305.38
3275.65
3245.92
3216.19
3186.45
3156.71
3126.97
3097.22
3067.47
3037.72
3007.97
2978.21
2948.45
2918.69
2888.93
2859.16
2829.4
2799.63
2769.87
2740.1
2710.33
2680.56
2650.79
2621.02
2591.25
2561.48
2531.71
2501.94
2472.17
2442.39
2412.62
2382.85
2353.07
2323.3
2293.52
2263.74
2233.97
2204.19
2174.41
2144.63
2114.85
2085.07
2055.29
2025.5
1995.72
1965.93
1936.14
1906.35
1876.56
1846.77
1816.98
1787.19
1757.4
1727.6
1697.81
1668.02
1638.22
1608.43
1578.63
1548.84
1519.04
1489.24
1459.45
1429.65
1399.86
1370.06
1340.26
1310.46
1280.67
1250.87
4996.06
4998.06
4998.32
4997.78
4996.91
4996.07
4995.24
4993.88
4993.72
4994.66
4995.31
4995.46
4995.4
4995.3
4995.17
4994.93
4994.74
4994.44
4993.41
4996.18
4999.01
4995.57
4993.08
4992.42
4992.23
4992.14
4992.65
4992.92
4991.94
4991.58
4994.29
4998.38
4998.61
4996.23
4993.27
4989.74
4986.95
4984.98
4984.31
4985.76
4987.46
4989.62
4992.46
4989.99
4981.69
4972.43
4967.76
4976.74
4990.55
4996.48
4988.69
4975.49
4966.64
4967.29
4965.34
4956.03
4954.31
4963.22
4973.03
4977
4976.9
4974.29
4965.24
4951.06
4942.86
4946.39
4954.31
4963.07
4969.09
4969.72
4963.76
4952.47
4940.94
4934.17
4931.25
4930.86
4934.12
4941.81
4949.82
4954.43
4953.94
4947.85
4937.19
4925.92
4920.44
4923.45
4930.54
4936.81
4939.94
4939.33
4934.92
4928.11
4922.67
4920.9
4922.07
4924.09
4924.93
4923.49
4920.3
4917.17
4915.29
4914.24
4913.04
4911.42
4909.72
4908.2
4906.61
4904.51
4901.7
4898.33
4894.68
4890.81
4886.61
4881.96
4876.85
4871.36
4865.51
4859.18
4852.26
4844.6
4836.15
4826.88
4816.77
4805.78
4793.86
4780.97
4767.07
4752.14
4736.16
4719.13
4701.05
4681.94
4661.83
4640.77
4618.8
4595.99
4572.39
4548.08
4523.1
4497.54
4471.44
4444.86
4417.87
4390.5
4362.81
4334.83
4306.61
4278.17
4249.55
4220.78
4191.86
4162.83
4133.71
4104.5
4075.22
4045.88
4016.48
3987.05
3957.58
3928.07
3898.54
3868.98
3839.41
3809.82
3780.21
3750.59
3720.96
3691.32
3661.67
3632.01
3602.34
3572.67
3542.99
3513.3
3483.61
3453.91
3424.21
3394.51
3364.79
3335.08
3305.36
3275.63
3245.91
3216.17
3186.44
3156.7
3126.95
3097.21
3067.46
3037.7
3007.95
2978.19
2948.43
2918.67
2888.91
2859.15
2829.38
2799.62
2769.85
2740.08
2710.31
2680.54
2650.77
2621.01
2591.24
2561.46
2531.69
2501.92
2472.15
2442.38
2412.61
2382.83
2353.06
2323.28
2293.51
2263.73
2233.96
2204.18
2174.4
2144.62
2114.84
2085.06
2055.28
2025.49
1995.71
1965.92
1936.13
1906.34
1876.55
1846.76
1816.97
1787.18
1757.39
1727.59
1697.8
1668.01
1638.21
1608.42
1578.62
1548.83
1519.03
1489.24
1459.44
1429.64
1399.85
1370.05
1340.26
1310.46
1280.67
1250.87
4994.76
4996.79
4997.38
4996.58
4995.76
4995.38
4995.18
4995.14
4995.27
4995.47
4995.64
4995.78
4995.9
4995.83
4995.42
4995.16
4995.25
4995.2
4994.32
4993.37
4993.52
4994
4994.3
4994.43
4994.48
4994.48
4994.47
4994.47
4994.46
4994.46
4994.45
4994.45
4994.46
4994.45
4994.43
4994.4
4994.36
4994.29
4994.19
4994.04
4993.84
4993.46
4993.93
4993.17
4991.77
4991.23
4990.77
4989.65
5001.5
5011.69
4998.84
4990.97
4991.16
4991.26
4990.91
4989.72
4987.61
4987.55
5003
5003.29
4998.71
4997.14
4985.49
4979.2
4975.03
4974
4979.29
4993.9
5002.33
4998.37
4980.22
4965.56
4961.01
4961.37
4963.04
4955.98
4942.29
4947.69
4963.16
4973.23
4968.83
4953.75
4933.78
4917.92
4906.12
4906.98
4921.04
4934.84
4941.58
4941.29
4930.55
4910.06
4894.76
4892.13
4898.1
4908.43
4915.39
4913.72
4905.12
4897.98
4897.56
4900.41
4901.71
4900.72
4899.74
4900.15
4900.58
4899.31
4896.03
4891.87
4888.11
4884.85
4881.23
4876.78
4871.75
4866.54
4861.27
4855.7
4849.5
4842.44
4834.48
4825.68
4816.06
4805.57
4794.12
4781.65
4768.12
4753.5
4737.77
4720.93
4702.97
4683.92
4663.82
4642.72
4620.67
4597.75
4574.03
4549.57
4524.45
4498.73
4472.49
4445.78
4418.65
4391.17
4363.37
4335.29
4306.98
4278.47
4249.78
4220.95
4191.99
4162.92
4133.76
4104.52
4075.21
4045.86
4016.45
3987
3957.52
3928.01
3898.47
3868.91
3839.34
3809.75
3780.14
3750.52
3720.89
3691.25
3661.61
3631.95
3602.29
3572.61
3542.94
3513.25
3483.56
3453.87
3424.17
3394.46
3364.76
3335.04
3305.32
3275.6
3245.87
3216.14
3186.41
3156.67
3126.92
3097.18
3067.43
3037.68
3007.92
2978.16
2948.4
2918.64
2888.88
2859.12
2829.35
2799.59
2769.82
2740.05
2710.29
2680.52
2650.75
2620.98
2591.21
2561.44
2531.67
2501.9
2472.13
2442.36
2412.59
2382.81
2353.04
2323.27
2293.49
2263.72
2233.94
2204.16
2174.38
2144.61
2114.83
2085.04
2055.26
2025.48
1995.69
1965.9
1936.12
1906.33
1876.54
1846.75
1816.95
1787.16
1757.37
1727.58
1697.78
1667.99
1638.19
1608.4
1578.61
1548.81
1519.02
1489.22
1459.43
1429.63
1399.84
1370.05
1340.25
1310.46
1280.66
1250.86
4993.92
4996
4997.11
4996.78
4996.26
4995.95
4995.75
4995.57
4995.42
4995.36
4995.37
4995.38
4995.33
4995.22
4995.05
4994.9
4994.76
4994.55
4994.33
4994.24
4994.28
4994.37
4994.44
4994.47
4994.49
4994.5
4994.5
4994.51
4994.52
4994.52
4994.53
4994.54
4994.55
4994.56
4994.58
4994.6
4994.63
4994.66
4994.71
4994.76
4994.87
4994.65
4992.98
4992.14
4992.18
4992.4
4992.65
4992.94
4993.36
4993.35
4993.19
4993.04
4993.03
4993.04
4993.01
4992.95
4992.98
4993.14
4993.29
4993.21
4993.15
4993.06
4992.96
4992.88
4992.79
4992.68
4992.63
4992.3
4995.07
4993.42
4991.19
4991.54
4991.68
4991.84
4992
4991.93
4991.82
4985.92
5006.39
5027.76
5007.7
4990.67
4990.75
4991
4990.84
4979.96
4990.79
5004.13
4998.47
4992.03
4969.15
4955.12
4947.23
4944.09
4940.44
4944.88
4952.42
4937.09
4907.57
4886.45
4887.26
4893.69
4892.13
4881.8
4875.93
4878.97
4885.45
4887.28
4882.17
4874.86
4871.72
4872.57
4872.59
4869.48
4864.79
4860.64
4857.27
4853.52
4848.48
4841.93
4834.18
4825.65
4816.51
4806.62
4795.77
4783.8
4770.71
4756.44
4740.98
4724.28
4706.37
4687.27
4667.05
4645.77
4623.51
4600.35
4576.37
4551.66
4526.28
4500.33
4473.86
4446.94
4419.62
4391.97
4364.01
4335.81
4307.38
4278.77
4250
4221.09
4192.07
4162.96
4133.76
4104.49
4075.16
4045.78
4016.36
3986.9
3957.41
3927.9
3898.36
3868.8
3839.23
3809.64
3780.03
3750.42
3720.79
3691.16
3661.51
3631.86
3602.2
3572.53
3542.86
3513.18
3483.5
3453.8
3424.11
3394.41
3364.7
3334.99
3305.27
3275.55
3245.83
3216.1
3186.36
3156.62
3126.88
3097.14
3067.39
3037.63
3007.88
2978.12
2948.37
2918.6
2888.84
2859.08
2829.31
2799.55
2769.78
2740.02
2710.25
2680.48
2650.71
2620.94
2591.18
2561.41
2531.64
2501.87
2472.1
2442.33
2412.56
2382.79
2353.01
2323.24
2293.47
2263.69
2233.92
2204.14
2174.36
2144.58
2114.8
2085.02
2055.24
2025.46
1995.67
1965.88
1936.1
1906.31
1876.52
1846.72
1816.93
1787.14
1757.35
1727.55
1697.76
1667.97
1638.17
1608.38
1578.58
1548.79
1519
1489.2
1459.41
1429.62
1399.83
1370.03
1340.24
1310.45
1280.66
1250.86
4993.42
4995.46
4996.84
4996.73
4996.3
4996.02
4995.85
4995.72
4995.61
4995.54
4995.49
4995.44
4995.38
4995.29
4995.18
4995.06
4994.93
4994.8
4994.67
4994.54
4994.45
4994.42
4994.43
4994.45
4994.47
4994.47
4994.48
4994.48
4994.47
4994.47
4994.46
4994.46
4994.45
4994.43
4994.42
4994.39
4994.34
4994.28
4994.18
4994.02
4993.78
4993.43
4993.1
4992.96
4992.99
4993.07
4993.13
4993.17
4993.19
4993.19
4993.19
4993.19
4993.2
4993.2
4993.21
4993.22
4993.24
4993.25
4993.26
4993.27
4993.28
4993.3
4993.34
4993.39
4993.45
4993.52
4993.64
4993.44
4991.84
4990.85
4990.89
4991.09
4991.33
4991.59
4991.83
4992.03
4992.17
4992.17
4991.95
4991.78
4991.92
4991.7
4991.59
4991.67
4991.79
4991.86
4991.98
4991.47
4991.06
4990.47
4990.54
4990.73
4990.83
4990.8
4990.84
4987.7
5012.3
4991.35
4983.99
4981.17
4973.53
4981.04
4973.37
4950.6
4939.96
4936.33
4935.51
4929.4
4908.02
4880.04
4866.61
4865.25
4863.04
4852.02
4839.7
4834.21
4836.16
4840.76
4842
4838.33
4832.03
4825.21
4817.87
4809.32
4799.22
4787.62
4774.79
4760.82
4745.59
4728.99
4711.03
4691.75
4671.26
4649.65
4627.01
4603.47
4579.11
4554.02
4528.3
4502.03
4475.27
4448.09
4420.55
4392.69
4364.57
4336.21
4307.66
4278.95
4250.1
4221.12
4192.05
4162.89
4133.65
4104.36
4075.01
4045.62
4016.19
3986.73
3957.24
3927.72
3898.19
3868.63
3839.06
3809.48
3779.88
3750.28
3720.66
3691.03
3661.39
3631.74
3602.09
3572.43
3542.76
3513.09
3483.41
3453.72
3424.03
3394.33
3364.63
3334.92
3305.21
3275.49
3245.77
3216.04
3186.3
3156.57
3126.83
3097.08
3067.33
3037.58
3007.83
2978.07
2948.31
2918.55
2888.79
2859.03
2829.27
2799.5
2769.73
2739.97
2710.2
2680.44
2650.67
2620.9
2591.13
2561.37
2531.6
2501.83
2472.06
2442.29
2412.52
2382.75
2352.98
2323.21
2293.43
2263.66
2233.89
2204.11
2174.33
2144.55
2114.78
2084.99
2055.21
2025.43
1995.64
1965.86
1936.07
1906.28
1876.49
1846.7
1816.9
1787.11
1757.32
1727.52
1697.73
1667.94
1638.14
1608.35
1578.55
1548.76
1518.97
1489.18
1459.39
1429.6
1399.81
1370.02
1340.23
1310.44
1280.65
1250.86
4993.08
4995.06
4996.58
4996.6
4996.23
4996
4995.88
4995.79
4995.69
4995.6
4995.52
4995.44
4995.36
4995.27
4995.17
4995.07
4994.97
4994.87
4994.77
4994.68
4994.62
4994.59
4994.58
4994.57
4994.56
4994.54
4994.53
4994.52
4994.5
4994.49
4994.47
4994.45
4994.43
4994.41
4994.38
4994.34
4994.28
4994.21
4994.12
4994
4993.86
4993.68
4993.48
4993.28
4993.14
4993.07
4993.06
4993.1
4993.13
4993.15
4993.15
4993.13
4993.11
4993.1
4993.09
4993.08
4993.08
4993.09
4993.1
4993.1
4993.08
4993.05
4992.99
4992.92
4992.83
4992.7
4992.49
4992.15
4991.78
4991.61
4991.61
4991.65
4991.74
4991.86
4991.97
4992.06
4992.14
4992.17
4992.15
4992.13
4992.13
4992.13
4992.12
4992.11
4992.17
4992.31
4992.37
4992.23
4991.41
4990.31
4990.22
4990.44
4990.73
4991.01
4991.23
4991.35
4991.44
4990.74
4990.35
4990.31
4990.64
4991.23
4991.1
4990.98
4990.58
4989.98
4987.08
4987.64
4980.42
4977.34
4970.46
4970.52
4971.21
4946.73
4925.95
4900.29
4865.24
4853.52
4846.51
4831.1
4814.98
4807.16
4806.67
4806.23
4800.9
4791.68
4780.13
4766.9
4751.98
4735.34
4717.11
4697.43
4676.44
4654.26
4631.05
4606.94
4582.05
4556.48
4530.32
4503.65
4476.55
4449.07
4421.28
4393.21
4364.91
4336.41
4307.74
4278.94
4250.01
4220.98
4191.86
4162.67
4133.41
4104.11
4074.75
4045.36
4015.93
3986.47
3956.99
3927.48
3897.96
3868.41
3838.85
3809.28
3779.69
3750.1
3720.49
3690.87
3661.24
3631.6
3601.96
3572.3
3542.64
3512.97
3483.3
3453.62
3423.93
3394.24
3364.54
3334.84
3305.13
3275.41
3245.69
3215.97
3186.23
3156.5
3126.76
3097.02
3067.27
3037.52
3007.77
2978.01
2948.25
2918.49
2888.73
2858.97
2829.21
2799.44
2769.68
2739.91
2710.15
2680.38
2650.62
2620.85
2591.09
2561.32
2531.56
2501.79
2472.02
2442.25
2412.48
2382.71
2352.94
2323.17
2293.4
2263.62
2233.85
2204.08
2174.3
2144.52
2114.74
2084.96
2055.18
2025.39
1995.61
1965.82
1936.03
1906.24
1876.45
1846.66
1816.87
1787.08
1757.28
1727.49
1697.69
1667.9
1638.11
1608.31
1578.52
1548.73
1518.94
1489.15
1459.36
1429.58
1399.79
1370
1340.22
1310.43
1280.65
1250.86
4992.85
4994.78
4996.39
4996.49
4996.17
4995.96
4995.86
4995.79
4995.71
4995.62
4995.54
4995.46
4995.38
4995.3
4995.21
4995.13
4995.04
4994.96
4994.88
4994.81
4994.75
4994.7
4994.66
4994.63
4994.59
4994.57
4994.54
4994.51
4994.48
4994.46
4994.43
4994.4
4994.36
4994.33
4994.28
4994.23
4994.17
4994.1
4994.01
4993.91
4993.8
4993.67
4993.54
4993.42
4993.34
4993.3
4993.28
4993.27
4993.26
4993.25
4993.23
4993.22
4993.2
4993.19
4993.18
4993.16
4993.15
4993.13
4993.12
4993.09
4993.06
4993.02
4992.98
4992.92
4992.84
4992.74
4992.61
4992.44
4992.24
4992.06
4991.93
4991.87
4991.86
4991.88
4991.91
4991.93
4991.94
4991.92
4991.88
4991.83
4991.78
4991.73
4991.68
4991.65
4991.65
4991.65
4991.57
4991.36
4991.06
4990.86
4990.83
4990.91
4991.04
4991.18
4991.3
4991.39
4991.37
4991.33
4991.34
4991.38
4991.44
4991.48
4991.5
4991.52
4991.54
4991.55
4991.16
4989.6
4989.14
4989.21
4989.63
4990.47
4990.66
4990.53
4990.05
4988.7
4981.93
4975.75
4972.71
4948.93
4910.25
4854.81
4815.09
4806.93
4797.9
4785.43
4778.61
4771.6
4759.65
4743.64
4725.12
4704.79
4682.94
4659.86
4635.78
4610.86
4585.24
4559.02
4532.31
4505.16
4477.66
4449.85
4421.78
4393.49
4365.02
4336.38
4307.61
4278.72
4249.73
4220.66
4191.52
4162.31
4133.05
4103.74
4074.39
4045.01
4015.59
3986.15
3956.68
3927.19
3897.68
3868.15
3838.6
3809.05
3779.47
3749.89
3720.29
3690.69
3661.07
3631.44
3601.8
3572.16
3542.51
3512.85
3483.18
3453.51
3423.82
3394.14
3364.44
3334.74
3305.04
3275.32
3245.61
3215.88
3186.15
3156.42
3126.68
3096.94
3067.2
3037.45
3007.69
2977.94
2948.18
2918.43
2888.67
2858.91
2829.14
2799.38
2769.62
2739.86
2710.09
2680.33
2650.57
2620.8
2591.04
2561.27
2531.51
2501.74
2471.97
2442.21
2412.44
2382.67
2352.9
2323.13
2293.36
2263.59
2233.81
2204.04
2174.26
2144.48
2114.7
2084.92
2055.14
2025.36
1995.57
1965.78
1935.99
1906.2
1876.41
1846.62
1816.83
1787.04
1757.24
1727.45
1697.65
1667.86
1638.07
1608.28
1578.49
1548.7
1518.91
1489.12
1459.34
1429.55
1399.77
1369.99
1340.21
1310.43
1280.65
1250.86
4992.69
4994.58
4996.26
4996.4
4996.1
4995.91
4995.83
4995.77
4995.7
4995.63
4995.55
4995.47
4995.4
4995.32
4995.24
4995.17
4995.09
4995.02
4994.95
4994.88
4994.82
4994.76
4994.72
4994.67
4994.63
4994.6
4994.56
4994.52
4994.49
4994.45
4994.42
4994.38
4994.34
4994.29
4994.24
4994.19
4994.13
4994.06
4993.99
4993.9
4993.81
4993.72
4993.63
4993.54
4993.47
4993.41
4993.35
4993.31
4993.28
4993.24
4993.22
4993.19
4993.16
4993.13
4993.11
4993.09
4993.06
4993.04
4993.01
4992.97
4992.93
4992.89
4992.83
4992.77
4992.69
4992.6
4992.49
4992.37
4992.25
4992.14
4992.06
4992.02
4992
4991.99
4992
4992
4992
4992
4991.99
4991.98
4991.96
4991.93
4991.9
4991.86
4991.82
4991.76
4991.68
4991.56
4991.42
4991.28
4991.17
4991.12
4991.11
4991.12
4991.13
4991.13
4991.09
4991.03
4990.97
4990.93
4990.92
4990.93
4990.92
4990.89
4990.86
4990.84
4990.82
4990.74
4990.7
4990.72
4990.77
4990.82
4990.84
4990.85
4990.87
4990.86
4990.65
4990.16
4990.06
4990.21
4988.85
4988.04
4972.48
4971.55
4920.73
4818.34
4781.49
4775.67
4767.3
4753.29
4735.15
4714.1
4690.99
4666.63
4641.34
4615.33
4588.75
4561.72
4534.32
4506.61
4478.65
4450.47
4422.11
4393.59
4364.94
4336.18
4307.31
4278.36
4249.33
4220.23
4191.07
4161.86
4132.6
4103.3
4073.97
4044.6
4015.2
3985.78
3956.33
3926.86
3897.37
3867.86
3838.33
3808.79
3779.24
3749.67
3720.08
3690.49
3660.88
3631.27
3601.64
3572.01
3542.36
3512.71
3483.05
3453.38
3423.71
3394.03
3364.34
3334.64
3304.94
3275.23
3245.51
3215.79
3186.06
3156.33
3126.6
3096.86
3067.11
3037.37
3007.62
2977.86
2948.11
2918.35
2888.59
2858.83
2829.08
2799.31
2769.55
2739.79
2710.03
2680.27
2650.51
2620.75
2590.98
2561.22
2531.46
2501.69
2471.93
2442.16
2412.39
2382.62
2352.86
2323.09
2293.31
2263.54
2233.77
2204
2174.22
2144.44
2114.66
2084.88
2055.1
2025.31
1995.53
1965.74
1935.95
1906.16
1876.37
1846.58
1816.78
1786.99
1757.2
1727.4
1697.61
1667.82
1638.03
1608.24
1578.45
1548.66
1518.87
1489.09
1459.31
1429.53
1399.75
1369.97
1340.19
1310.42
1280.64
1250.86
4992.58
4994.44
4996.16
4996.34
4996.05
4995.86
4995.8
4995.75
4995.69
4995.62
4995.55
4995.48
4995.41
4995.33
4995.26
4995.19
4995.12
4995.05
4994.99
4994.92
4994.86
4994.81
4994.76
4994.71
4994.66
4994.62
4994.57
4994.53
4994.49
4994.45
4994.4
4994.36
4994.31
4994.26
4994.21
4994.16
4994.1
4994.03
4993.96
4993.89
4993.82
4993.74
4993.66
4993.59
4993.53
4993.47
4993.42
4993.37
4993.33
4993.3
4993.26
4993.23
4993.2
4993.17
4993.14
4993.11
4993.08
4993.04
4993.01
4992.97
4992.92
4992.87
4992.81
4992.75
4992.68
4992.6
4992.52
4992.44
4992.35
4992.27
4992.2
4992.14
4992.1
4992.06
4992.02
4991.99
4991.96
4991.92
4991.88
4991.84
4991.8
4991.76
4991.72
4991.67
4991.62
4991.57
4991.51
4991.43
4991.35
4991.28
4991.23
4991.2
4991.19
4991.2
4991.2
4991.2
4991.2
4991.19
4991.18
4991.18
4991.17
4991.16
4991.12
4991.06
4990.99
4990.88
4990.74
4990.56
4990.45
4990.41
4990.42
4990.47
4990.5
4990.51
4990.49
4990.5
4990.58
4990.59
4990.6
4990.66
4990.69
4990.71
4990.67
4990.03
4988.24
4979.83
4950.02
4877.73
4804.17
4771.78
4750.8
4727.21
4701.7
4675.28
4648.14
4620.55
4592.69
4564.61
4536.38
4508.03
4479.56
4450.99
4422.33
4393.59
4364.78
4335.89
4306.94
4277.93
4248.87
4219.75
4190.59
4161.38
4132.13
4102.85
4073.53
4044.19
4014.81
3985.41
3955.98
3926.53
3897.06
3867.57
3838.06
3808.54
3779
3749.44
3719.87
3690.29
3660.7
3631.09
3601.48
3571.85
3542.21
3512.57
3482.92
3453.26
3423.59
3393.91
3364.22
3334.53
3304.83
3275.12
3245.41
3215.69
3185.97
3156.24
3126.51
3096.77
3067.03
3037.28
3007.53
2977.78
2948.03
2918.27
2888.52
2858.76
2829
2799.25
2769.49
2739.73
2709.97
2680.21
2650.45
2620.69
2590.93
2561.17
2531.4
2501.64
2471.88
2442.11
2412.35
2382.58
2352.81
2323.04
2293.27
2263.5
2233.73
2203.95
2174.17
2144.4
2114.62
2084.84
2055.05
2025.27
1995.48
1965.69
1935.9
1906.11
1876.32
1846.53
1816.74
1786.94
1757.15
1727.36
1697.56
1667.77
1637.98
1608.19
1578.41
1548.62
1518.84
1489.06
1459.28
1429.5
1399.73
1369.95
1340.18
1310.41
1280.63
1250.86
4992.51
4994.35
4996.1
4996.29
4996.01
4995.83
4995.77
4995.73
4995.68
4995.61
4995.55
4995.48
4995.41
4995.34
4995.28
4995.21
4995.14
4995.08
4995.01
4994.95
4994.89
4994.83
4994.78
4994.73
4994.68
4994.63
4994.58
4994.54
4994.49
4994.45
4994.4
4994.35
4994.3
4994.25
4994.2
4994.14
4994.08
4994.02
4993.96
4993.89
4993.83
4993.76
4993.69
4993.63
4993.56
4993.51
4993.45
4993.4
4993.36
4993.31
4993.27
4993.23
4993.19
4993.15
4993.12
4993.08
4993.04
4993
4992.96
4992.91
4992.86
4992.81
4992.76
4992.7
4992.63
4992.56
4992.49
4992.42
4992.35
4992.28
4992.22
4992.16
4992.12
4992.08
4992.04
4992.01
4991.98
4991.95
4991.93
4991.89
4991.86
4991.82
4991.78
4991.74
4991.69
4991.64
4991.58
4991.53
4991.46
4991.4
4991.35
4991.3
4991.26
4991.22
4991.19
4991.16
4991.13
4991.09
4991.06
4991.02
4990.99
4990.96
4990.93
4990.9
4990.87
4990.82
4990.78
4990.74
4990.71
4990.7
4990.69
4990.68
4990.67
4990.64
4990.61
4990.56
4990.51
4990.46
4990.42
4990.4
4990.41
4990.46
4990.61
4990.68
4990.71
4990.56
4989.82
4987.66
4938.35
4834.56
4780.96
4746.56
4715.69
4686.21
4656.39
4626.7
4597.18
4567.85
4538.66
4509.57
4480.56
4451.58
4422.61
4393.65
4364.67
4335.66
4306.63
4277.57
4248.47
4219.33
4190.16
4160.96
4131.72
4102.45
4073.15
4043.81
4014.45
3985.07
3955.66
3926.23
3896.77
3867.3
3837.81
3808.3
3778.77
3749.23
3719.67
3690.1
3660.52
3630.92
3601.31
3571.7
3542.07
3512.43
3482.78
3453.13
3423.46
3393.79
3364.11
3334.42
3304.72
3275.02
3245.31
3215.59
3185.87
3156.14
3126.41
3096.67
3066.93
3037.19
3007.45
2977.7
2947.95
2918.19
2888.44
2858.69
2828.93
2799.18
2769.42
2739.66
2709.91
2680.15
2650.39
2620.63
2590.87
2561.11
2531.35
2501.59
2471.83
2442.06
2412.3
2382.53
2352.76
2322.99
2293.22
2263.45
2233.68
2203.9
2174.13
2144.35
2114.57
2084.79
2055
2025.22
1995.43
1965.64
1935.85
1906.06
1876.27
1846.48
1816.68
1786.89
1757.1
1727.31
1697.52
1667.73
1637.94
1608.15
1578.37
1548.58
1518.8
1489.03
1459.25
1429.48
1399.71
1369.94
1340.17
1310.4
1280.63
1250.85
4992.47
4994.3
4996.06
4996.27
4995.99
4995.81
4995.75
4995.72
4995.67
4995.61
4995.54
4995.48
4995.41
4995.35
4995.28
4995.22
4995.15
4995.09
4995.03
4994.97
4994.91
4994.85
4994.79
4994.74
4994.69
4994.64
4994.59
4994.54
4994.49
4994.45
4994.4
4994.35
4994.3
4994.24
4994.19
4994.13
4994.08
4994.02
4993.96
4993.89
4993.83
4993.76
4993.7
4993.64
4993.58
4993.52
4993.47
4993.42
4993.37
4993.33
4993.28
4993.24
4993.2
4993.17
4993.13
4993.09
4993.05
4993.01
4992.96
4992.92
4992.87
4992.82
4992.76
4992.7
4992.64
4992.58
4992.51
4992.45
4992.39
4992.32
4992.26
4992.21
4992.16
4992.11
4992.06
4992.02
4991.98
4991.93
4991.89
4991.85
4991.81
4991.76
4991.72
4991.67
4991.62
4991.57
4991.52
4991.46
4991.41
4991.36
4991.32
4991.28
4991.25
4991.23
4991.2
4991.18
4991.16
4991.14
4991.12
4991.09
4991.06
4991.03
4990.99
4990.95
4990.9
4990.84
4990.78
4990.72
4990.66
4990.62
4990.59
4990.56
4990.55
4990.54
4990.52
4990.52
4990.51
4990.5
4990.5
4990.49
4990.48
4990.47
4990.46
4990.47
4990.53
4990.73
4990.87
4990.98
4990.59
4958.73
4825.81
4755.25
4722.6
4690.93
4660.22
4629.96
4599.75
4569.78
4540.07
4510.57
4481.23
4452
4422.84
4393.72
4364.62
4335.54
4306.44
4277.33
4248.2
4219.05
4189.87
4160.66
4131.42
4102.15
4072.85
4043.53
4014.18
3984.81
3955.41
3925.98
3896.54
3867.08
3837.59
3808.09
3778.58
3749.04
3719.49
3689.93
3660.35
3630.76
3601.16
3571.55
3541.93
3512.3
3482.66
3453
3423.34
3393.67
3363.99
3334.31
3304.61
3274.91
3245.2
3215.49
3185.77
3156.04
3126.31
3096.58
3066.84
3037.1
3007.36
2977.61
2947.86
2918.11
2888.36
2858.61
2828.86
2799.11
2769.35
2739.6
2709.85
2680.09
2650.33
2620.58
2590.82
2561.06
2531.3
2501.54
2471.78
2442.01
2412.25
2382.48
2352.72
2322.95
2293.18
2263.41
2233.63
2203.86
2174.08
2144.3
2114.52
2084.74
2054.95
2025.17
1995.38
1965.59
1935.8
1906.01
1876.22
1846.42
1816.63
1786.84
1757.05
1727.26
1697.47
1667.68
1637.89
1608.11
1578.33
1548.55
1518.77
1489
1459.22
1429.45
1399.69
1369.92
1340.16
1310.39
1280.63
1250.85
4992.46
4994.28
4996.05
4996.26
4995.98
4995.8
4995.75
4995.72
4995.67
4995.61
4995.54
4995.48
4995.42
4995.35
4995.29
4995.22
4995.16
4995.09
4995.03
4994.97
4994.91
4994.85
4994.8
4994.74
4994.69
4994.64
4994.59
4994.54
4994.49
4994.45
4994.4
4994.35
4994.3
4994.24
4994.19
4994.13
4994.08
4994.02
4993.96
4993.89
4993.83
4993.77
4993.71
4993.64
4993.59
4993.53
4993.48
4993.42
4993.38
4993.33
4993.28
4993.24
4993.2
4993.16
4993.12
4993.07
4993.03
4992.99
4992.94
4992.9
4992.85
4992.79
4992.74
4992.68
4992.62
4992.56
4992.5
4992.43
4992.37
4992.31
4992.25
4992.19
4992.15
4992.1
4992.06
4992.02
4991.98
4991.95
4991.91
4991.88
4991.84
4991.8
4991.76
4991.71
4991.67
4991.62
4991.57
4991.52
4991.47
4991.42
4991.37
4991.33
4991.29
4991.25
4991.21
4991.18
4991.14
4991.11
4991.07
4991.03
4991
4990.97
4990.93
4990.9
4990.86
4990.82
4990.79
4990.75
4990.72
4990.7
4990.67
4990.65
4990.63
4990.6
4990.58
4990.55
4990.53
4990.51
4990.49
4990.49
4990.5
4990.53
4990.56
4990.59
4990.64
4990.71
4990.78
4990.92
4991.17
4990.99
4899.5
4776.47
4732.58
4699.63
4666.5
4634.83
4603.36
4572.43
4542.01
4511.99
4482.26
4452.74
4423.36
4394.07
4364.85
4335.67
4306.5
4277.33
4248.16
4218.97
4189.76
4160.53
4131.28
4102
4072.7
4043.37
4014.01
3984.64
3955.24
3925.82
3896.37
3866.91
3837.43
3807.93
3778.42
3748.89
3719.34
3689.78
3660.21
3630.63
3601.03
3571.42
3541.8
3512.17
3482.53
3452.88
3423.23
3393.56
3363.88
3334.2
3304.5
3274.8
3245.1
3215.38
3185.67
3155.94
3126.22
3096.48
3066.75
3037.01
3007.27
2977.53
2947.78
2918.04
2888.29
2858.54
2828.79
2799.04
2769.29
2739.54
2709.79
2680.03
2650.28
2620.52
2590.77
2561.01
2531.25
2501.49
2471.73
2441.97
2412.2
2382.44
2352.67
2322.9
2293.13
2263.36
2233.59
2203.81
2174.03
2144.25
2114.47
2084.69
2054.9
2025.11
1995.33
1965.54
1935.75
1905.95
1876.16
1846.37
1816.58
1786.79
1757
1727.21
1697.42
1667.63
1637.85
1608.07
1578.29
1548.51
1518.74
1488.97
1459.2
1429.43
1399.67
1369.91
1340.14
1310.38
1280.62
1250.85
4992.47
4994.3
4996.06
4996.27
4995.99
4995.81
4995.75
4995.72
4995.67
4995.61
4995.54
4995.48
4995.41
4995.35
4995.28
4995.22
4995.15
4995.09
4995.03
4994.97
4994.91
4994.85
4994.79
4994.74
4994.69
4994.64
4994.59
4994.54
4994.49
4994.45
4994.4
4994.35
4994.3
4994.24
4994.19
4994.13
4994.08
4994.02
4993.96
4993.89
4993.83
4993.76
4993.7
4993.64
4993.58
4993.52
4993.47
4993.42
4993.37
4993.33
4993.28
4993.24
4993.2
4993.16
4993.13
4993.09
4993.05
4993.01
4992.96
4992.92
4992.87
4992.82
4992.76
4992.7
4992.64
4992.58
4992.51
4992.45
4992.38
4992.32
4992.26
4992.21
4992.16
4992.11
4992.06
4992.02
4991.98
4991.93
4991.89
4991.85
4991.8
4991.76
4991.71
4991.67
4991.62
4991.57
4991.52
4991.46
4991.41
4991.36
4991.32
4991.28
4991.25
4991.23
4991.2
4991.18
4991.16
4991.14
4991.12
4991.09
4991.07
4991.04
4991
4990.95
4990.9
4990.85
4990.79
4990.73
4990.67
4990.62
4990.59
4990.57
4990.55
4990.54
4990.52
4990.52
4990.51
4990.51
4990.51
4990.51
4990.5
4990.5
4990.51
4990.54
4990.61
4990.8
4990.94
4991.02
4990.6
4958.82
4826.18
4756.16
4724.01
4692.69
4662.16
4631.93
4601.63
4571.5
4541.6
4511.89
4482.34
4452.92
4423.59
4394.32
4365.09
4335.88
4306.68
4277.48
4248.28
4219.06
4189.82
4160.57
4131.29
4101.99
4072.67
4043.32
4013.95
3984.57
3955.15
3925.72
3896.28
3866.81
3837.32
3807.82
3778.3
3748.77
3719.23
3689.67
3660.09
3630.51
3600.92
3571.31
3541.69
3512.06
3482.42
3452.77
3423.12
3393.45
3363.77
3334.09
3304.4
3274.7
3244.99
3215.28
3185.57
3155.84
3126.12
3096.39
3066.66
3036.92
3007.18
2977.44
2947.7
2917.96
2888.21
2858.47
2828.72
2798.98
2769.23
2739.48
2709.73
2679.98
2650.22
2620.47
2590.71
2560.96
2531.2
2501.44
2471.68
2441.92
2412.16
2382.39
2352.62
2322.86
2293.09
2263.31
2233.54
2203.76
2173.98
2144.2
2114.42
2084.63
2054.85
2025.06
1995.27
1965.48
1935.69
1905.9
1876.11
1846.32
1816.53
1786.74
1756.95
1727.16
1697.37
1667.59
1637.81
1608.03
1578.25
1548.48
1518.71
1488.94
1459.18
1429.41
1399.65
1369.89
1340.13
1310.37
1280.62
1250.85
4992.51
4994.35
4996.09
4996.29
4996.01
4995.83
4995.77
4995.73
4995.68
4995.61
4995.55
4995.48
4995.41
4995.34
4995.28
4995.21
4995.14
4995.08
4995.01
4994.95
4994.89
4994.83
4994.78
4994.73
4994.68
4994.63
4994.58
4994.54
4994.49
4994.45
4994.4
4994.35
4994.3
4994.25
4994.2
4994.14
4994.08
4994.02
4993.96
4993.89
4993.83
4993.76
4993.69
4993.62
4993.56
4993.5
4993.45
4993.4
4993.35
4993.31
4993.27
4993.23
4993.19
4993.15
4993.11
4993.08
4993.04
4993
4992.96
4992.91
4992.86
4992.81
4992.76
4992.7
4992.63
4992.56
4992.49
4992.42
4992.35
4992.28
4992.22
4992.16
4992.12
4992.08
4992.04
4992.01
4991.98
4991.95
4991.93
4991.89
4991.86
4991.82
4991.78
4991.74
4991.69
4991.64
4991.58
4991.53
4991.46
4991.4
4991.35
4991.3
4991.26
4991.23
4991.2
4991.16
4991.13
4991.1
4991.06
4991.03
4990.99
4990.97
4990.94
4990.91
4990.88
4990.84
4990.79
4990.76
4990.73
4990.71
4990.7
4990.69
4990.67
4990.64
4990.6
4990.56
4990.52
4990.47
4990.44
4990.43
4990.44
4990.51
4990.69
4990.77
4990.83
4990.69
4989.94
4987.75
4938.51
4835.08
4782.3
4748.76
4718.61
4689.58
4659.98
4630.27
4600.58
4570.95
4541.41
4511.95
4482.57
4453.25
4423.97
4394.72
4365.5
4336.27
4307.05
4277.82
4248.58
4219.33
4190.05
4160.76
4131.45
4102.12
4072.76
4043.39
4014
3984.59
3955.16
3925.71
3896.24
3866.76
3837.27
3807.76
3778.23
3748.69
3719.14
3689.58
3660
3630.42
3600.82
3571.21
3541.59
3511.96
3482.32
3452.67
3423.01
3393.34
3363.67
3333.99
3304.29
3274.6
3244.89
3215.18
3185.47
3155.75
3126.03
3096.3
3066.57
3036.83
3007.1