/*--------------------------------*- C++ -*----------------------------------*\
| =========                 |                                                 |
| \\      /  F ield         | OpenFOAM: The Open Source CFD Toolbox           |
|  \\    /   O peration     | Version:  2406                                  |
|   \\  /    A nd           | Website:  www.openfoam.com                      |
|    \\/     M anipulation  |                                                 |
\*---------------------------------------------------------------------------*/
FoamFile
{
    version     2.0;
    format      ascii;
    arch        "LSB;label=32;scalar=64";
    class       volScalarField;
    location    "0.05";
    object      p_rgh;
}
// * * * * * * * * * * * * * * * * * * * * * * * * * * * * * * * * * * * * * //

dimensions      [1 -1 -2 0 0 0 0];

internalField   nonuniform List<scalar> 
6250
(
4997.79
4999.39
4999.38
4999.34
5000.27
5032.06
5022.48
5000.09
4986.07
4976.35
4967.3
4957.57
4947.61
4938.47
4930.5
4923.15
4915.9
4909.35
4904.8
4901.31
4896.58
4889.79
4882.1
4874.87
4868.53
4863.06
4858.27
4853.7
4849.29
4845.21
4841.43
4837.42
4832.6
4826.79
4820.19
4813.17
4806.26
4799.94
4794.45
4789.84
4785.74
4781.67
4777.09
4771.66
4765.66
4759.91
4755.21
4751.72
4748.45
4743.86
4737.13
4728.81
4720.12
4712.03
4704.88
4698.94
4694.79
4692.27
4690.14
4687.06
4682.36
4675.97
4668.31
4660.48
4653.84
4649.09
4645.78
4642.75
4638.72
4632.87
4625.1
4616.12
4607.07
4599
4592.43
4587.42
4583.74
4580.81
4577.73
4573.52
4567.55
4559.88
4551.23
4542.71
4535.39
4529.66
4525.11
4520.86
4516.06
4510.2
4503.26
4495.69
4488.17
4481.21
4474.93
4469.06
4463.19
4457
4450.45
4443.71
4436.96
4430.26
4423.57
4416.82
4409.99
4403.02
4395.83
4388.31
4380.39
4372.04
4363.29
4354.14
4344.6
4334.63
4324.22
4313.35
4301.98
4290.04
4277.47
4264.21
4250.18
4235.33
4219.63
4203.03
4185.48
4166.96
4147.44
4126.91
4105.36
4082.8
4059.23
4034.69
4009.21
3982.83
3955.59
3927.56
3898.78
3869.32
3839.24
3808.59
3777.43
3745.82
3713.81
3681.44
3648.75
3615.79
3582.59
3549.19
3515.6
3481.86
3447.99
3414
3379.92
3345.76
3311.52
3277.23
3242.89
3208.5
3174.08
3139.62
3105.14
3070.64
3036.11
3001.57
2967.02
2932.45
2897.87
2863.28
2828.69
2794.08
2759.47
2724.85
2690.22
2655.59
2620.95
2586.31
2551.66
2517.01
2482.35
2447.69
2413.02
2378.35
2343.68
2309
2274.32
2239.64
2204.95
2170.26
2135.56
2100.87
2066.17
2031.47
1996.77
1962.06
1927.36
1892.65
1857.94
1823.23
1788.52
1753.81
1719.1
1684.38
1649.67
1614.96
1580.24
1545.53
1510.81
1476.1
1441.38
1406.66
1371.95
1337.23
1302.51
1267.79
1233.07
1198.35
1163.63
1128.91
1094.18
1059.46
1024.74
990.01
955.283
920.555
885.826
851.095
816.364
781.631
746.898
712.163
677.428
642.692
607.956
573.219
538.482
503.744
469.006
434.268
399.529
364.789
330.05
295.31
260.57
225.829
191.089
156.348
121.607
86.8646
52.1234
17.3767
4997.22
4999.12
4999.11
4998.24
4998.57
4996.74
4994.49
4988.44
4981.08
4974.16
4969.35
4961.43
4951.75
4943.72
4936.7
4928.96
4918.31
4906.72
4904.15
4907.07
4904.79
4894.92
4883.21
4874.34
4867.83
4862.6
4858.05
4852.94
4847.21
4842.3
4838.87
4835.63
4830.97
4824.93
4817.94
4810.22
4802.41
4795.21
4789.27
4784.81
4781.06
4777.62
4773.73
4768.17
4761.1
4754.03
4748.68
4745.98
4744.11
4740.33
4733.36
4723.94
4714.21
4705.59
4697.51
4690.3
4685.85
4684.32
4683.37
4680.92
4676.33
4669.7
4661.14
4651.79
4644.12
4639.6
4637.34
4635.48
4632.26
4626.61
4618.36
4608.3
4598.21
4589.61
4582.94
4577.96
4574.56
4572.25
4569.89
4566.22
4560.37
4552.21
4542.46
4532.68
4524.74
4519.38
4515.67
4512.22
4507.95
4502.27
4495.07
4486.89
4478.84
4471.72
4465.63
4460.13
4454.56
4448.42
4441.69
4434.77
4428
4421.4
4414.82
4408.13
4401.37
4394.53
4387.51
4380.14
4372.33
4364.07
4355.41
4346.38
4336.97
4327.13
4316.86
4306.15
4294.96
4283.25
4270.92
4257.9
4244.13
4229.55
4214.13
4197.82
4180.58
4162.38
4143.19
4122.99
4101.77
4079.53
4056.28
4032.04
4006.83
3980.71
3953.72
3925.9
3897.33
3868.05
3838.13
3807.62
3776.6
3745.1
3713.18
3680.9
3648.29
3615.39
3582.25
3548.89
3515.35
3481.64
3447.8
3413.84
3379.78
3345.64
3311.42
3277.14
3242.81
3208.43
3174.02
3139.57
3105.1
3070.6
3036.08
3001.54
2966.99
2932.43
2897.85
2863.26
2828.67
2794.06
2759.45
2724.83
2690.21
2655.58
2620.94
2586.3
2551.65
2517
2482.34
2447.68
2413.01
2378.34
2343.67
2308.99
2274.31
2239.63
2204.94
2170.25
2135.56
2100.86
2066.16
2031.46
1996.76
1962.06
1927.35
1892.64
1857.93
1823.22
1788.51
1753.8
1719.09
1684.38
1649.66
1614.95
1580.23
1545.52
1510.8
1476.09
1441.37
1406.66
1371.94
1337.22
1302.5
1267.79
1233.07
1198.35
1163.62
1128.9
1094.18
1059.46
1024.73
990.006
955.279
920.551
885.822
851.091
816.36
781.627
746.893
712.159
677.424
642.688
607.951
573.214
538.477
503.739
469.001
434.263
399.524
364.785
330.045
295.305
260.566
225.825
191.085
156.345
121.604
86.8625
52.1216
17.376
4996.06
4998.05
4998.31
4997.75
4996.88
4996.05
4995.21
4993.84
4993.68
4994.61
4995.26
4995.4
4995.33
4995.06
4994.78
4994.78
4994.66
4992.99
4985.86
4973.77
4970.68
4968.64
4970.72
4970.41
4968.08
4961.98
4952.48
4942.19
4931.16
4918.64
4904.96
4893.25
4885.88
4881.14
4879.5
4880.25
4879.28
4873.84
4863.71
4845.52
4823.76
4814.49
4813.92
4807.62
4793.07
4773.25
4756.32
4752.04
4754.02
4754.9
4746.4
4737.98
4730.28
4727.68
4719.75
4700.5
4686.54
4682.02
4683.82
4682.84
4677.8
4670.43
4658.66
4641.2
4627.66
4624.16
4625.54
4629.36
4630.43
4626.12
4615.22
4599.03
4582.62
4570.83
4562.94
4557.6
4555.91
4558.66
4561.73
4561.4
4555.96
4544.93
4529.33
4513.11
4502.68
4500.76
4502.9
4504.22
4502.41
4496.86
4487.5
4475.75
4465.36
4458.65
4454.87
4451.96
4447.85
4441.47
4433.33
4425.26
4418.43
4412.44
4406.3
4399.73
4393.09
4386.63
4380.09
4373.04
4365.29
4356.98
4348.38
4339.57
4330.43
4320.83
4310.78
4300.35
4289.55
4278.28
4266.41
4253.81
4240.42
4226.21
4211.15
4195.22
4178.35
4160.52
4141.67
4121.8
4100.88
4078.9
4055.87
4031.82
4006.77
3980.76
3953.85
3926.1
3897.56
3868.3
3838.38
3807.87
3776.83
3745.31
3713.37
3681.06
3648.42
3615.5
3582.34
3548.96
3515.39
3481.67
3447.81
3413.84
3379.77
3345.62
3311.39
3277.11
3242.77
3208.39
3173.98
3139.53
3105.05
3070.55
3036.03
3001.5
2966.95
2932.38
2897.81
2863.23
2828.63
2794.03
2759.42
2724.8
2690.18
2655.55
2620.91
2586.27
2551.62
2516.97
2482.32
2447.66
2412.99
2378.33
2343.65
2308.98
2274.3
2239.61
2204.93
2170.23
2135.54
2100.84
2066.15
2031.44
1996.74
1962.04
1927.33
1892.62
1857.92
1823.21
1788.5
1753.78
1719.07
1684.36
1649.65
1614.93
1580.22
1545.5
1510.79
1476.07
1441.36
1406.64
1371.93
1337.21
1302.49
1267.77
1233.05
1198.33
1163.61
1128.89
1094.17
1059.45
1024.72
989.997
955.27
920.542
885.813
851.082
816.351
781.618
746.884
712.149
677.414
642.678
607.941
573.204
538.467
503.729
468.991
434.252
399.514
364.775
330.036
295.296
260.557
225.818
191.079
156.339
121.6
86.8591
52.1193
17.375
4994.75
4996.78
4997.37
4996.56
4995.74
4995.35
4995.15
4995.1
4995.23
4995.42
4995.59
4995.72
4995.84
4995.76
4995.35
4995.08
4995.17
4995.11
4994.23
4993.27
4993.42
4993.9
4994.19
4994.32
4994.36
4994.36
4994.34
4994.33
4994.33
4994.32
4994.3
4994.3
4994.3
4994.29
4994.26
4994.23
4994.18
4994.11
4994.01
4993.85
4993.64
4986.13
4973.18
4972.83
4978.84
4982.41
4979.5
4949.73
4897.71
4891.85
4901.65
4944.62
4971.49
4974.22
4975.41
4974.63
4957.26
4881.21
4814.64
4804.6
4799.1
4806.58
4843.4
4894.16
4887.75
4834.46
4738.37
4693.38
4694.36
4693.53
4704.97
4752.55
4769.27
4752.11
4706.28
4643.64
4590.57
4571.34
4575.18
4580.19
4572.8
4568.13
4563.99
4545.33
4521.91
4497.01
4493.69
4502.26
4504.05
4498.82
4483.52
4459.32
4438.54
4429.89
4430.91
4436.3
4438.31
4431.7
4418.15
4406.07
4400.7
4398.6
4394.97
4389.04
4383.11
4378.57
4374.06
4367.84
4359.62
4350.52
4341.82
4333.62
4325.04
4315.66
4305.68
4295.53
4285.31
4274.8
4263.66
4251.65
4238.75
4225
4210.43
4195
4178.61
4161.2
4142.72
4123.16
4102.49
4080.7
4057.8
4033.8
4008.76
3982.71
3955.72
3927.86
3899.19
3869.79
3839.73
3809.07
3777.88
3746.22
3714.16
3681.73
3648.98
3615.96
3582.71
3549.25
3515.62
3481.84
3447.94
3413.92
3379.82
3345.64
3311.39
3277.09
3242.74
3208.35
3173.92
3139.46
3104.98
3070.48
3035.96
3001.43
2966.88
2932.32
2897.74
2863.16
2828.57
2793.97
2759.36
2724.75
2690.12
2655.5
2620.86
2586.22
2551.58
2516.93
2482.28
2447.62
2412.96
2378.29
2343.62
2308.95
2274.27
2239.58
2204.9
2170.21
2135.51
2100.82
2066.12
2031.42
1996.71
1962.01
1927.3
1892.6
1857.89
1823.18
1788.47
1753.76
1719.04
1684.33
1649.62
1614.91
1580.19
1545.48
1510.77
1476.05
1441.34
1406.62
1371.91
1337.19
1302.47
1267.75
1233.04
1198.32
1163.6
1128.88
1094.15
1059.43
1024.71
989.981
955.255
920.527
885.798
851.067
816.335
781.602
746.868
712.134
677.398
642.662
607.925
573.188
538.45
503.712
468.974
434.236
399.497
364.759
330.021
295.282
260.544
225.806
191.068
156.331
121.593
86.8543
52.1165
17.3741
4993.92
4995.99
4997.1
4996.76
4996.24
4995.93
4995.72
4995.53
4995.38
4995.31
4995.32
4995.32
4995.27
4995.15
4994.98
4994.83
4994.68
4994.47
4994.25
4994.14
4994.18
4994.27
4994.33
4994.36
4994.37
4994.37
4994.38
4994.38
4994.38
4994.38
4994.38
4994.39
4994.39
4994.4
4994.41
4994.43
4994.45
4994.48
4994.52
4994.57
4994.67
4994.45
4992.78
4991.93
4991.97
4992.18
4992.42
4992.71
4993.12
4993.12
4992.94
4992.79
4992.78
4992.78
4992.74
4992.69
4992.71
4992.86
4993.01
4992.92
4992.86
4992.76
4992.66
4992.58
4992.48
4992.37
4992.31
4981.29
4947.29
4955.62
4987.03
4991.2
4991.33
4991.48
4991.64
4991.57
4991.45
4898.16
4761.77
4750.14
4768.23
4877.92
4977.15
4989.85
4990.43
4889.75
4676.62
4621.15
4613.47
4614.67
4672.33
4771.55
4743.11
4631.36
4520.72
4484.35
4486.64
4482.77
4462.08
4431.15
4406.83
4393.22
4385.39
4370.12
4359.3
4357.39
4358.94
4355.82
4345.77
4333.5
4325.42
4321.33
4316.41
4308.36
4298.72
4289.63
4281.31
4272.61
4262.63
4251.14
4238.44
4224.97
4210.88
4196.06
4180.26
4163.35
4145.31
4126.1
4105.69
4084.05
4061.2
4037.16
4011.99
3985.77
3958.56
3930.46
3901.54
3871.88
3841.56
3810.66
3779.25
3747.38
3715.12
3682.52
3649.63
3616.48
3583.11
3549.55
3515.84
3481.99
3448.02
3413.96
3379.82
3345.61
3311.33
3277.01
3242.65
3208.25
3173.81
3139.35
3104.87
3070.37
3035.85
3001.32
2966.77
2932.21
2897.64
2863.06
2828.48
2793.88
2759.28
2724.66
2690.05
2655.42
2620.79
2586.16
2551.52
2516.87
2482.22
2447.57
2412.91
2378.24
2343.57
2308.9
2274.22
2239.54
2204.85
2170.16
2135.47
2100.78
2066.08
2031.38
1996.67
1961.97
1927.26
1892.56
1857.85
1823.14
1788.43
1753.72
1719.01
1684.3
1649.58
1614.87
1580.16
1545.45
1510.73
1476.02
1441.31
1406.59
1371.88
1337.16
1302.45
1267.73
1233.01
1198.29
1163.57
1128.85
1094.13
1059.41
1024.68
989.96
955.234
920.506
885.777
851.046
816.314
781.581
746.847
712.111
677.376
642.639
607.902
573.165
538.427
503.689
468.951
434.213
399.475
364.737
330
295.263
260.526
225.79
191.055
156.319
121.584
86.848
52.1129
17.3729
4993.42
4995.45
4996.82
4996.72
4996.28
4995.99
4995.82
4995.68
4995.57
4995.49
4995.44
4995.39
4995.32
4995.22
4995.11
4994.98
4994.85
4994.72
4994.58
4994.45
4994.35
4994.32
4994.32
4994.34
4994.35
4994.35
4994.35
4994.34
4994.34
4994.33
4994.32
4994.3
4994.29
4994.27
4994.25
4994.22
4994.17
4994.1
4993.99
4993.83
4993.59
4993.23
4992.89
4992.75
4992.78
4992.85
4992.91
4992.94
4992.96
4992.95
4992.95
4992.94
4992.94
4992.95
4992.95
4992.96
4992.97
4992.98
4992.98
4992.98
4992.99
4993.01
4993.04
4993.08
4993.14
4993.21
4993.32
4993.12
4991.51
4990.52
4990.55
4990.75
4990.98
4991.23
4991.47
4991.67
4991.8
4991.8
4991.57
4991.39
4991.54
4991.31
4991.2
4991.27
4991.38
4991.45
4991.57
4988.23
4975.11
4978.26
4990.09
4990.29
4990.39
4990.35
4990.39
4900.75
4797.27
4853.79
4954.42
4954.46
4861.53
4698.11
4670.05
4649.89
4585.76
4485.91
4446.78
4438.82
4418.66
4381.38
4341.42
4315.79
4306.86
4290.89
4273.63
4263.2
4260.2
4259.85
4256.15
4247.54
4236.3
4224.53
4212.25
4198.76
4183.71
4167.17
4149.39
4130.48
4110.3
4088.76
4065.85
4041.64
4016.2
3989.64
3962.07
3933.58
3904.27
3874.24
3843.58
3812.36
3780.66
3748.53
3716.05
3683.25
3650.18
3616.88
3583.39
3549.73
3515.93
3482.02
3448
3413.89
3379.71
3345.48
3311.19
3276.85
3242.48
3208.07
3173.64
3139.18
3104.7
3070.2
3035.69
3001.16
2966.62
2932.07
2897.51
2862.93
2828.35
2793.76
2759.16
2724.56
2689.95
2655.33
2620.7
2586.07
2551.44
2516.8
2482.15
2447.5
2412.84
2378.18
2343.51
2308.84
2274.16
2239.48
2204.8
2170.11
2135.42
2100.72
2066.03
2031.33
1996.62
1961.92
1927.21
1892.51
1857.8
1823.09
1788.38
1753.67
1718.96
1684.25
1649.54
1614.83
1580.12
1545.41
1510.7
1475.98
1441.27
1406.56
1371.84
1337.13
1302.41
1267.7
1232.98
1198.26
1163.54
1128.82
1094.1
1059.38
1024.66
989.932
955.206
920.478
885.749
851.018
816.286
781.553
746.818
712.083
677.347
642.61
607.873
573.135
538.398
503.66
468.922
434.184
399.447
364.71
329.974
295.239
260.505
225.771
191.038
156.305
121.573
86.8405
52.1086
17.3716
4993.08
4995.05
4996.57
4996.59
4996.21
4995.97
4995.85
4995.75
4995.65
4995.56
4995.47
4995.39
4995.3
4995.21
4995.1
4995
4994.89
4994.78
4994.68
4994.59
4994.53
4994.49
4994.47
4994.45
4994.44
4994.42
4994.4
4994.38
4994.37
4994.35
4994.33
4994.3
4994.28
4994.25
4994.21
4994.17
4994.11
4994.03
4993.94
4993.81
4993.66
4993.48
4993.27
4993.08
4992.93
4992.85
4992.84
4992.87
4992.9
4992.91
4992.9
4992.88
4992.86
4992.84
4992.82
4992.81
4992.81
4992.81
4992.82
4992.82
4992.79
4992.75
4992.69
4992.62
4992.52
4992.38
4992.17
4991.82
4991.45
4991.27
4991.27
4991.31
4991.39
4991.5
4991.61
4991.7
4991.77
4991.8
4991.77
4991.75
4991.75
4991.74
4991.73
4991.71
4991.77
4991.9
4991.96
4991.81
4990.98
4989.88
4989.78
4990
4990.29
4990.56
4990.77
4990.89
4990.97
4990.28
4989.88
4989.83
4990.15
4990.75
4990.61
4990.48
4990.08
4989.09
4926.2
4888.81
4915.07
4935.1
4867.28
4665.05
4572.84
4544.2
4491.73
4399.4
4308.69
4274.03
4260.66
4240.31
4219.25
4206.48
4201.05
4195.66
4185.39
4171.23
4154.74
4136.56
4116.69
4095.11
4071.94
4047.32
4021.38
3994.26
3966.11
3937.05
3907.22
3876.7
3845.6
3813.99
3781.94
3749.52
3716.78
3683.77
3650.52
3617.08
3583.47
3549.72
3515.85
3481.87
3447.81
3413.68
3379.48
3345.23
3310.93
3276.59
3242.22
3207.82
3173.39
3138.94
3104.47
3069.98
3035.48
3000.96
2966.43
2931.89
2897.34
2862.77
2828.2
2793.62
2759.03
2724.43
2689.83
2655.22
2620.6
2585.97
2551.34
2516.71
2482.06
2447.42
2412.76
2378.1
2343.44
2308.77
2274.09
2239.42
2204.73
2170.04
2135.35
2100.66
2065.96
2031.26
1996.56
1961.86
1927.15
1892.45
1857.74
1823.03
1788.33
1753.62
1718.91
1684.2
1649.49
1614.78
1580.07
1545.36
1510.65
1475.94
1441.23
1406.52
1371.8
1337.09
1302.37
1267.66
1232.94
1198.23
1163.51
1128.79
1094.07
1059.35
1024.62
989.899
955.173
920.445
885.715
850.984
816.252
781.519
746.784
712.048
677.312
642.575
607.838
573.1
538.362
503.625
468.887
434.15
399.414
364.679
329.945
295.212
260.48
225.749
191.019
156.29
121.561
86.8321
52.1039
17.3701
4992.85
4994.77
4996.38
4996.48
4996.14
4995.93
4995.83
4995.76
4995.67
4995.58
4995.49
4995.4
4995.32
4995.23
4995.14
4995.05
4994.97
4994.88
4994.8
4994.72
4994.65
4994.6
4994.55
4994.51
4994.48
4994.44
4994.41
4994.38
4994.35
4994.31
4994.28
4994.25
4994.21
4994.16
4994.12
4994.06
4993.99
4993.92
4993.83
4993.72
4993.6
4993.47
4993.33
4993.21
4993.13
4993.08
4993.06
4993.04
4993.03
4993.01
4992.99
4992.97
4992.95
4992.93
4992.91
4992.9
4992.88
4992.86
4992.83
4992.81
4992.77
4992.73
4992.67
4992.61
4992.53
4992.42
4992.29
4992.12
4991.92
4991.72
4991.59
4991.52
4991.51
4991.53
4991.55
4991.57
4991.57
4991.54
4991.5
4991.44
4991.4
4991.34
4991.29
4991.25
4991.25
4991.24
4991.16
4990.94
4990.63
4990.43
4990.39
4990.47
4990.6
4990.73
4990.85
4990.93
4990.91
4990.86
4990.86
4990.9
4990.96
4991
4991.01
4991.02
4991.04
4991.04
4990.65
4989.08
4988.62
4988.68
4989.1
4989.94
4990.12
4989.98
4989.5
4988.15
4946.34
4711.91
4573.84
4515.43
4417.02
4289.59
4212.02
4196.36
4182.39
4164.98
4153.22
4141.26
4124.37
4103.41
4079.95
4054.67
4027.88
3999.86
3970.83
3940.97
3910.4
3879.24
3847.58
3815.5
3783.05
3750.3
3717.28
3684.05
3650.63
3617.05
3583.34
3549.5
3515.57
3481.56
3447.47
3413.32
3379.11
3344.86
3310.57
3276.24
3241.88
3207.49
3173.08
3138.64
3104.19
3069.72
3035.23
3000.73
2966.21
2931.68
2897.14
2862.59
2828.03
2793.46
2758.88
2724.29
2689.69
2655.09
2620.48
2585.86
2551.24
2516.6
2481.97
2447.32
2412.67
2378.02
2343.35
2308.69
2274.01
2239.34
2204.66
2169.97
2135.28
2100.59
2065.89
2031.19
1996.49
1961.79
1927.09
1892.38
1857.68
1822.97
1788.26
1753.56
1718.85
1684.14
1649.44
1614.73
1580.02
1545.31
1510.6
1475.89
1441.18
1406.47
1371.76
1337.05
1302.33
1267.62
1232.9
1198.19
1163.47
1128.75
1094.03
1059.31
1024.59
989.861
955.134
920.406
885.677
850.945
816.213
781.479
746.744
712.008
677.272
642.535
607.797
573.06
538.322
503.585
468.849
434.113
399.378
364.644
329.912
295.182
260.453
225.725
190.999
156.273
121.548
86.8231
52.0989
17.3686
4992.69
4994.57
4996.24
4996.39
4996.08
4995.88
4995.8
4995.74
4995.66
4995.58
4995.5
4995.42
4995.34
4995.26
4995.17
4995.09
4995.01
4994.93
4994.86
4994.79
4994.72
4994.66
4994.61
4994.56
4994.52
4994.47
4994.43
4994.39
4994.35
4994.31
4994.27
4994.23
4994.18
4994.13
4994.08
4994.02
4993.95
4993.88
4993.8
4993.71
4993.62
4993.52
4993.42
4993.33
4993.25
4993.19
4993.13
4993.08
4993.04
4993.01
4992.97
4992.94
4992.91
4992.88
4992.85
4992.82
4992.79
4992.76
4992.73
4992.69
4992.64
4992.59
4992.53
4992.46
4992.38
4992.28
4992.17
4992.05
4991.92
4991.8
4991.72
4991.67
4991.65
4991.64
4991.64
4991.64
4991.64
4991.63
4991.61
4991.59
4991.57
4991.54
4991.5
4991.46
4991.41
4991.35
4991.26
4991.14
4990.99
4990.85
4990.73
4990.68
4990.67
4990.68
4990.68
4990.67
4990.63
4990.56
4990.49
4990.45
4990.44
4990.44
4990.43
4990.39
4990.36
4990.33
4990.3
4990.22
4990.18
4990.2
4990.24
4990.28
4990.3
4990.3
4990.32
4990.31
4990.09
4989.59
4989.49
4989.64
4988.27
4987.46
4756.33
4448.14
4355.94
4221.67
4157.56
4145.33
4132.01
4113.06
4089.98
4063.99
4035.93
4006.62
3976.39
3945.44
3913.92
3881.94
3849.6
3816.94
3784.04
3750.92
3717.61
3684.15
3650.56
3616.85
3583.04
3549.14
3515.16
3481.12
3447.02
3412.87
3378.67
3344.42
3310.14
3275.83
3241.49
3207.12
3172.73
3138.32
3103.88
3069.43
3034.96
3000.47
2965.97
2931.46
2896.93
2862.39
2827.85
2793.29
2758.72
2724.14
2689.55
2654.95
2620.35
2585.74
2551.12
2516.49
2481.86
2447.22
2412.57
2377.92
2343.26
2308.6
2273.92
2239.25
2204.57
2169.89
2135.2
2100.51
2065.81
2031.12
1996.42
1961.72
1927.02
1892.31
1857.61
1822.9
1788.2
1753.5
1718.79
1684.08
1649.38
1614.67
1579.97
1545.26
1510.55
1475.84
1441.13
1406.42
1371.71
1337
1302.29
1267.57
1232.86
1198.14
1163.43
1128.71
1093.99
1059.27
1024.54
989.818
955.092
920.363
885.633
850.902
816.169
781.435
746.7
711.964
677.227
642.49
607.753
573.015
538.278
503.542
468.806
434.072
399.339
364.608
329.878
295.15
260.424
225.7
190.977
156.256
121.535
86.8138
52.0938
17.367
4992.58
4994.43
4996.15
4996.32
4996.02
4995.83
4995.76
4995.72
4995.65
4995.58
4995.5
4995.42
4995.35
4995.27
4995.19
4995.12
4995.04
4994.97
4994.9
4994.83
4994.77
4994.71
4994.65
4994.59
4994.54
4994.49
4994.45
4994.4
4994.35
4994.31
4994.26
4994.21
4994.16
4994.1
4994.05
4993.99
4993.92
4993.85
4993.78
4993.7
4993.62
4993.54
4993.46
4993.38
4993.31
4993.25
4993.19
4993.14
4993.1
4993.06
4993.02
4992.99
4992.95
4992.92
4992.88
4992.84
4992.81
4992.77
4992.73
4992.68
4992.63
4992.57
4992.51
4992.44
4992.37
4992.29
4992.2
4992.11
4992.02
4991.94
4991.86
4991.8
4991.75
4991.7
4991.66
4991.63
4991.59
4991.55
4991.5
4991.46
4991.41
4991.37
4991.32
4991.27
4991.22
4991.16
4991.09
4991.01
4990.93
4990.85
4990.79
4990.76
4990.75
4990.75
4990.75
4990.75
4990.74
4990.72
4990.71
4990.7
4990.69
4990.67
4990.62
4990.56
4990.49
4990.38
4990.23
4990.04
4989.93
4989.88
4989.89
4989.93
4989.96
4989.96
4989.94
4989.95
4990.02
4990.02
4990.03
4990.09
4990.11
4990.12
4990.08
4989.44
4987.64
4946.64
4510.26
4252.12
4169.03
4131.55
4105.63
4077.09
4046.64
4015.27
3983.19
3950.66
3917.85
3884.83
3851.66
3818.36
3784.95
3751.44
3717.83
3684.15
3650.39
3616.56
3582.67
3548.71
3514.7
3480.64
3446.54
3412.39
3378.2
3343.97
3309.71
3275.42
3241.1
3206.75
3172.38
3137.99
3103.57
3069.14
3034.69
3000.22
2965.73
2931.23
2896.72
2862.2
2827.66
2793.11
2758.55
2723.98
2689.4
2654.81
2620.22
2585.61
2551
2516.38
2481.75
2447.11
2412.47
2377.82
2343.16
2308.5
2273.83
2239.16
2204.48
2169.8
2135.11
2100.42
2065.73
2031.03
1996.34
1961.64
1926.94
1892.24
1857.54
1822.84
1788.13
1753.43
1718.73
1684.02
1649.32
1614.62
1579.91
1545.21
1510.5
1475.79
1441.08
1406.38
1371.67
1336.95
1302.24
1267.53
1232.82
1198.1
1163.38
1128.66
1093.94
1059.22
1024.5
989.773
955.046
920.317
885.587
850.855
816.121
781.387
746.652
711.915
677.179
642.442
607.705
572.968
538.232
503.496
468.762
434.03
399.299
364.57
329.843
295.118
260.396
225.675
190.956
156.238
121.522
86.8046
52.0887
17.3655
4992.51
4994.34
4996.08
4996.28
4995.99
4995.8
4995.74
4995.7
4995.64
4995.57
4995.5
4995.42
4995.35
4995.28
4995.21
4995.13
4995.06
4994.99
4994.92
4994.86
4994.79
4994.73
4994.67
4994.62
4994.56
4994.51
4994.46
4994.41
4994.35
4994.3
4994.25
4994.2
4994.15
4994.09
4994.03
4993.97
4993.91
4993.84
4993.77
4993.7
4993.63
4993.56
4993.49
4993.42
4993.35
4993.29
4993.23
4993.17
4993.12
4993.07
4993.03
4992.98
4992.94
4992.9
4992.85
4992.81
4992.77
4992.72
4992.68
4992.63
4992.57
4992.52
4992.46
4992.39
4992.32
4992.25
4992.17
4992.1
4992.02
4991.95
4991.88
4991.82
4991.77
4991.72
4991.68
4991.65
4991.62
4991.58
4991.55
4991.51
4991.47
4991.43
4991.38
4991.34
4991.28
4991.23
4991.17
4991.1
4991.04
4990.97
4990.91
4990.86
4990.81
4990.78
4990.74
4990.7
4990.67
4990.63
4990.58
4990.54
4990.51
4990.47
4990.44
4990.4
4990.36
4990.32
4990.27
4990.23
4990.19
4990.17
4990.16
4990.15
4990.13
4990.09
4990.05
4990.01
4989.95
4989.9
4989.85
4989.83
4989.83
4989.87
4990.03
4990.08
4990.11
4989.95
4989.21
4987.05
4639.2
4198.17
4135.79
4096.44
4060.64
4026.21
3991.44
3956.81
3922.35
3888.07
3853.94
3819.91
3785.95
3752.02
3718.12
3684.21
3650.28
3616.33
3582.36
3548.35
3514.31
3480.23
3446.11
3411.96
3377.78
3343.57
3309.32
3275.05
3240.74
3206.41
3172.06
3137.69
3103.29
3068.87
3034.43
2999.98
2965.51
2931.02
2896.52
2862.01
2827.48
2792.94
2758.39
2723.83
2689.26
2654.67
2620.08
2585.48
2550.87
2516.26
2481.63
2447
2412.36
2377.71
2343.06
2308.4
2273.73
2239.06
2204.38
2169.7
2135.02
2100.33
2065.64
2030.95
1996.26
1961.56
1926.86
1892.16
1857.47
1822.77
1788.07
1753.37
1718.67
1683.96
1649.26
1614.56
1579.86
1545.15
1510.45
1475.74
1441.03
1406.33
1371.62
1336.91
1302.2
1267.48
1232.77
1198.05
1163.34
1128.62
1093.9
1059.18
1024.45
989.725
954.997
920.268
885.537
850.805
816.071
781.336
746.601
711.864
677.128
642.391
607.655
572.919
538.183
503.449
468.717
433.987
399.258
364.532
329.808
295.087
260.368
225.651
190.936
156.222
121.509
86.7957
52.0838
17.364
4992.47
4994.29
4996.05
4996.25
4995.96
4995.78
4995.72
4995.68
4995.63
4995.56
4995.49
4995.42
4995.35
4995.28
4995.21
4995.14
4995.07
4995
4994.94
4994.87
4994.81
4994.75
4994.69
4994.63
4994.57
4994.52
4994.46
4994.41
4994.36
4994.3
4994.25
4994.2
4994.14
4994.08
4994.03
4993.96
4993.9
4993.84
4993.77
4993.7
4993.63
4993.56
4993.5
4993.43
4993.36
4993.3
4993.24
4993.19
4993.14
4993.09
4993.04
4993
4992.95
4992.91
4992.86
4992.82
4992.78
4992.73
4992.68
4992.63
4992.58
4992.52
4992.46
4992.4
4992.33
4992.26
4992.2
4992.13
4992.06
4991.99
4991.92
4991.87
4991.81
4991.76
4991.71
4991.66
4991.61
4991.56
4991.51
4991.47
4991.42
4991.37
4991.32
4991.27
4991.21
4991.16
4991.1
4991.04
4990.99
4990.93
4990.88
4990.84
4990.81
4990.78
4990.75
4990.72
4990.69
4990.67
4990.64
4990.61
4990.58
4990.54
4990.5
4990.45
4990.4
4990.34
4990.27
4990.2
4990.14
4990.09
4990.06
4990.03
4990.01
4989.99
4989.97
4989.96
4989.95
4989.94
4989.93
4989.92
4989.9
4989.88
4989.88
4989.88
4989.93
4990.12
4990.27
4990.36
4989.97
4847.68
4237.9
4105.14
4067.54
4030.92
3995.27
3960.07
3924.92
3890
3855.35
3820.91
3786.62
3752.44
3718.34
3684.28
3650.24
3616.21
3582.17
3548.12
3514.04
3479.94
3445.82
3411.66
3377.48
3343.27
3309.03
3274.76
3240.47
3206.15
3171.81
3137.44
3103.05
3068.65
3034.22
2999.77
2965.31
2930.83
2896.34
2861.84
2827.32
2792.78
2758.24
2723.68
2689.12
2654.54
2619.95
2585.36
2550.75
2516.14
2481.52
2446.89
2412.25
2377.6
2342.95
2308.29
2273.63
2238.96
2204.29
2169.61
2134.93
2100.24
2065.55
2030.86
1996.17
1961.48
1926.79
1892.09
1857.39
1822.7
1788
1753.3
1718.6
1683.91
1649.21
1614.5
1579.8
1545.1
1510.4
1475.69
1440.99
1406.28
1371.57
1336.86
1302.15
1267.44
1232.72
1198.01
1163.29
1128.57
1093.85
1059.13
1024.4
989.675
954.947
920.217
885.485
850.752
816.018
781.283
746.548
711.812
677.075
642.339
607.603
572.868
538.135
503.402
468.672
433.944
399.218
364.495
329.774
295.056
260.341
225.627
190.916
156.206
121.497
86.7874
52.0792
17.3626
4992.46
4994.27
4996.03
4996.24
4995.96
4995.78
4995.72
4995.68
4995.63
4995.56
4995.49
4995.42
4995.36
4995.29
4995.22
4995.15
4995.08
4995.01
4994.94
4994.88
4994.81
4994.75
4994.69
4994.63
4994.57
4994.52
4994.46
4994.41
4994.36
4994.3
4994.25
4994.19
4994.14
4994.08
4994.02
4993.96
4993.9
4993.84
4993.77
4993.7
4993.64
4993.57
4993.5
4993.44
4993.37
4993.31
4993.25
4993.2
4993.14
4993.09
4993.04
4992.99
4992.95
4992.9
4992.85
4992.81
4992.76
4992.71
4992.66
4992.61
4992.56
4992.5
4992.44
4992.38
4992.31
4992.24
4992.18
4992.11
4992.04
4991.97
4991.91
4991.85
4991.8
4991.75
4991.7
4991.66
4991.62
4991.58
4991.54
4991.49
4991.45
4991.41
4991.36
4991.31
4991.26
4991.21
4991.16
4991.1
4991.05
4990.99
4990.94
4990.89
4990.84
4990.8
4990.76
4990.72
4990.68
4990.64
4990.6
4990.56
4990.52
4990.48
4990.44
4990.4
4990.36
4990.32
4990.28
4990.24
4990.2
4990.17
4990.14
4990.12
4990.09
4990.06
4990.03
4989.99
4989.97
4989.94
4989.92
4989.92
4989.92
4989.94
4989.97
4990
4990.04
4990.11
4990.17
4990.31
4990.56
4990.37
4537.99
4126.35
4077.52
4039.62
4001.55
3964.93
3928.52
3892.65
3857.29
3822.33
3787.65
3753.18
3718.86
3684.63
3650.47
3616.34
3582.23
3548.12
3514
3479.86
3445.71
3411.54
3377.34
3343.12
3308.87
3274.6
3240.3
3205.98
3171.64
3137.27
3102.89
3068.48
3034.06
2999.61
2965.16
2930.68
2896.19
2861.69
2827.17
2792.65
2758.1
2723.55
2688.99
2654.42
2619.83
2585.24
2550.64
2516.02
2481.4
2446.77
2412.14
2377.49
2342.84
2308.19
2273.53
2238.86
2204.19
2169.51
2134.83
2100.15
2065.47
2030.78
1996.09
1961.4
1926.71
1892.02
1857.32
1822.63
1787.94
1753.24
1718.54
1683.85
1649.15
1614.45
1579.75
1545.05
1510.35
1475.64
1440.94
1406.23
1371.52
1336.81
1302.1
1267.39
1232.68
1197.96
1163.24
1128.52
1093.8
1059.08
1024.35
989.624
954.895
920.164
885.432
850.699
815.965
781.23
746.494
711.758
677.022
642.287
607.552
572.818
538.086
503.356
468.628
433.903
399.18
364.46
329.742
295.028
260.316
225.606
190.898
156.191
121.485
86.7797
52.0749
17.3614
4992.47
4994.29
4996.04
4996.25
4995.96
4995.78
4995.72
4995.68
4995.63
4995.56
4995.49
4995.42
4995.35
4995.28
4995.21
4995.14
4995.07
4995
4994.94
4994.87
4994.81
4994.75
4994.69
4994.63
4994.57
4994.52
4994.46
4994.41
4994.36
4994.3
4994.25
4994.2
4994.14
4994.08
4994.02
4993.96
4993.9
4993.84
4993.77
4993.7
4993.63
4993.56
4993.5
4993.43
4993.36
4993.3
4993.24
4993.19
4993.14
4993.09
4993.04
4993
4992.95
4992.91
4992.86
4992.82
4992.78
4992.73
4992.68
4992.63
4992.58
4992.52
4992.46
4992.4
4992.33
4992.26
4992.19
4992.12
4992.06
4991.99
4991.92
4991.86
4991.81
4991.76
4991.71
4991.66
4991.61
4991.56
4991.51
4991.47
4991.42
4991.37
4991.32
4991.27
4991.21
4991.16
4991.1
4991.04
4990.99
4990.93
4990.88
4990.84
4990.81
4990.78
4990.75
4990.72
4990.7
4990.67
4990.64
4990.62
4990.59
4990.55
4990.5
4990.46
4990.4
4990.34
4990.28
4990.21
4990.15
4990.1
4990.06
4990.03
4990.01
4989.99
4989.97
4989.96
4989.95
4989.94
4989.94
4989.93
4989.92
4989.92
4989.93
4989.95
4990.02
4990.2
4990.33
4990.4
4989.98
4848.03
4238.45
4106.04
4068.95
4032.69
3997.21
3962.03
3926.79
3891.72
3856.87
3822.22
3787.73
3753.36
3719.09
3684.87
3650.7
3616.55
3582.41
3548.27
3514.12
3479.96
3445.78
3411.58
3377.35
3343.11
3308.84
3274.55
3240.24
3205.91
3171.56
3137.18
3102.79
3068.38
3033.95
2999.5
2965.04
2930.57
2896.08
2861.57
2827.06
2792.53
2757.99
2723.44
2688.88
2654.3
2619.72
2585.13
2550.53
2515.91
2481.3
2446.67
2412.03
2377.39
2342.74
2308.09
2273.43
2238.76
2204.09
2169.42
2134.74
2100.06
2065.38
2030.7
1996.01
1961.32
1926.64
1891.95
1857.26
1822.57
1787.87
1753.18
1718.49
1683.79
1649.09
1614.4
1579.7
1545
1510.3
1475.59
1440.89
1406.18
1371.48
1336.77
1302.06
1267.34
1232.63
1197.91
1163.2
1128.47
1093.75
1059.03
1024.3
989.573
954.843
920.112
885.379
850.645
815.911
781.175
746.44
711.705
676.969
642.235
607.502
572.77
538.04
503.312
468.587
433.864
399.144
364.427
329.713
295.001
260.292
225.586
190.881
156.178
121.475
86.7727
52.0711
17.3603
4992.51
4994.34
4996.08
4996.27
4995.98
4995.8
4995.74
4995.7
4995.64
4995.57
4995.49
4995.42
4995.35
4995.28
4995.21
4995.13
4995.06
4994.99
4994.92
4994.86
4994.79
4994.73
4994.67
4994.61
4994.56
4994.51
4994.46
4994.4
4994.35
4994.3
4994.25
4994.2
4994.15
4994.09
4994.03
4993.97
4993.91
4993.84
4993.77
4993.7
4993.63
4993.56
4993.49
4993.42
4993.35
4993.29
4993.23
4993.17
4993.12
4993.07
4993.03
4992.98
4992.94
4992.89
4992.85
4992.81
4992.77
4992.72
4992.67
4992.63
4992.57
4992.52
4992.46
4992.39
4992.32
4992.25
4992.17
4992.1
4992.02
4991.95
4991.88
4991.82
4991.77
4991.72
4991.68
4991.65
4991.61
4991.58
4991.55
4991.51
4991.47
4991.43
4991.38
4991.34
4991.28
4991.23
4991.17
4991.1
4991.04
4990.97
4990.91
4990.86
4990.81
4990.78
4990.74
4990.71
4990.67
4990.63
4990.59
4990.55
4990.51
4990.48
4990.45
4990.41
4990.38
4990.33
4990.28
4990.24
4990.21
4990.18
4990.17
4990.15
4990.13
4990.09
4990.05
4990.01
4989.96
4989.9
4989.87
4989.85
4989.86
4989.93
4990.1
4990.18
4990.23
4990.09
4989.34
4987.14
4640.04
4198.75
4137.13
4098.64
4063.55
4029.58
3995.03
3960.38
3925.74
3891.17
3856.69
3822.29
3787.96
3753.7
3719.47
3685.28
3651.11
3616.94
3582.78
3548.61
3514.42
3480.22
3446
3411.77
3377.51
3343.24
3308.94
3274.62
3240.29
3205.93
3171.56
3137.16
3102.76
3068.33
3033.89
2999.44
2964.97
2930.49
2895.99
2861.48
2826.96
2792.43
2757.89
2723.34
2688.78
2654.2
2619.62
2585.03
2550.42
2515.81
2481.19
2446.56
2411.93
2377.29
2342.64
2307.99
2273.33
2238.67
2204