/*--------------------------------*- C++ -*----------------------------------*\
| =========                 |                                                 |
| \\      /  F ield         | OpenFOAM: The Open Source CFD Toolbox           |
|  \\    /   O peration     | Version:  2406                                  |
|   \\  /    A nd           | Website:  www.openfoam.com                      |
|    \\/     M anipulation  |                                                 |
\*---------------------------------------------------------------------------*/
FoamFile
{
    version     2.0;
    format      ascii;
    arch        "LSB;label=32;scalar=64";
    class       surfaceScalarField;
    location    "0.05";
    object      phi;
}
// * * * * * * * * * * * * * * * * * * * * * * * * * * * * * * * * * * * * * //

dimensions      [0 3 -1 0 0 0 0];

oriented        oriented;

internalField   nonuniform List<scalar> 
12225
(
3.73536e-07
1.16308e-07
1.98113e-07
1.75423e-07
6.38738e-08
1.34239e-07
1.94674e-08
4.44064e-08
1.57038e-08
3.76365e-09
1.60242e-08
-3.20442e-10
1.5215e-08
8.09224e-10
1.31048e-08
2.11015e-09
1.18431e-08
1.2617e-09
1.13403e-08
5.02874e-10
1.13077e-08
3.25334e-11
1.12993e-08
8.39809e-12
1.10896e-08
2.09743e-10
1.07511e-08
3.38495e-10
1.04536e-08
2.97497e-10
1.02474e-08
2.06223e-10
9.99916e-09
2.48204e-10
9.64274e-09
3.56416e-10
9.59912e-09
4.3624e-11
1.01186e-08
-5.19505e-10
1.08813e-08
-7.62631e-10
1.13996e-08
-5.18386e-10
1.15168e-08
-1.17129e-10
1.13922e-08
1.24555e-10
1.11994e-08
1.9278e-10
1.10746e-08
1.24832e-10
1.11116e-08
-3.70241e-11
1.1267e-08
-1.55337e-10
1.15105e-08
-2.43538e-10
1.18963e-08
-3.8584e-10
1.25185e-08
-6.22139e-10
1.33621e-08
-8.43641e-10
1.42808e-08
-9.18704e-10
1.51121e-08
-8.31252e-10
1.57442e-08
-6.32096e-10
1.61278e-08
-3.83664e-10
1.62989e-08
-1.71045e-10
1.63704e-08
-7.15365e-11
1.64882e-08
-1.17754e-10
1.68003e-08
-3.12103e-10
1.73631e-08
-5.62838e-10
1.81527e-08
-7.89612e-10
1.90439e-08
-8.91181e-10
1.98272e-08
-7.83301e-10
2.0365e-08
-5.37812e-10
2.07238e-08
-3.58819e-10
2.11863e-08
-4.62416e-10
2.21012e-08
-9.14934e-10
2.35726e-08
-1.47139e-09
2.53124e-08
-1.73982e-09
2.68569e-08
-1.54448e-09
2.79206e-08
-1.0637e-09
2.85169e-08
-5.96328e-10
2.88231e-08
-3.06147e-10
2.89788e-08
-1.55733e-10
2.91173e-08
-1.38552e-10
2.95588e-08
-4.41408e-10
3.0599e-08
-1.04027e-09
3.2246e-08
-1.64698e-09
3.42449e-08
-1.99887e-09
3.62713e-08
-2.02638e-09
3.80315e-08
-1.76026e-09
3.93119e-08
-1.28042e-09
4.01238e-08
-8.11877e-10
4.07795e-08
-6.55646e-10
4.17056e-08
-9.26093e-10
4.31791e-08
-1.47353e-09
4.52109e-08
-2.03183e-09
4.75703e-08
-2.35941e-09
4.98948e-08
-2.32443e-09
5.18472e-08
-1.95241e-09
5.32637e-08
-1.41651e-09
5.42168e-08
-9.53071e-10
5.494e-08
-7.2323e-10
5.56977e-08
-7.57713e-10
5.67162e-08
-1.01854e-09
5.81751e-08
-1.45891e-09
6.0157e-08
-1.98182e-09
6.25748e-08
-2.41783e-09
6.51764e-08
-2.60157e-09
6.76379e-08
-2.46149e-09
6.96957e-08
-2.05786e-09
7.12562e-08
-1.5605e-09
7.24494e-08
-1.19323e-09
7.3576e-08
-1.12658e-09
7.49425e-08
-1.36648e-09
7.66982e-08
-1.75572e-09
7.87922e-08
-2.09398e-09
8.10408e-08
-2.2486e-09
8.32243e-08
-2.18346e-09
8.51738e-08
-1.94958e-09
8.68464e-08
-1.6726e-09
8.83416e-08
-1.49518e-09
8.98227e-08
-1.48114e-09
9.1421e-08
-1.59826e-09
9.31767e-08
-1.75568e-09
9.50368e-08
-1.86015e-09
9.69075e-08
-1.87073e-09
9.87241e-08
-1.81659e-09
1.00482e-07
-1.75752e-09
1.02212e-07
-1.7301e-09
1.03945e-07
-1.7329e-09
1.05695e-07
-1.75043e-09
1.07472e-07
-1.77652e-09
1.09284e-07
-1.8128e-09
1.1114e-07
-1.85517e-09
1.1303e-07
-1.89052e-09
1.14937e-07
-1.90644e-09
1.16838e-07
-1.90132e-09
1.18722e-07
-1.88413e-09
1.20588e-07
-1.86562e-09
1.22439e-07
-1.85127e-09
1.24281e-07
-1.84169e-09
1.26117e-07
-1.8366e-09
1.27953e-07
-1.8364e-09
1.29794e-07
-1.84087e-09
1.31642e-07
-1.84775e-09
1.33495e-07
-1.85336e-09
1.3535e-07
-1.85423e-09
1.37198e-07
-1.84848e-09
1.39034e-07
-1.83557e-09
1.40849e-07
-1.81564e-09
1.42638e-07
-1.78858e-09
1.44392e-07
-1.75399e-09
1.46103e-07
-1.71136e-09
1.47764e-07
-1.66043e-09
1.49365e-07
-1.60123e-09
1.50899e-07
-1.53422e-09
1.52359e-07
-1.4601e-09
1.53739e-07
-1.37995e-09
1.55034e-07
-1.29499e-09
1.56241e-07
-1.20668e-09
1.57358e-07
-1.11649e-09
1.58384e-07
-1.02593e-09
1.5932e-07
-9.36349e-10
1.60169e-07
-8.49015e-10
1.60934e-07
-7.64956e-10
1.61619e-07
-6.85035e-10
1.62229e-07
-6.0987e-10
1.62769e-07
-5.39908e-10
1.63244e-07
-4.75387e-10
1.63661e-07
-4.1641e-10
1.64024e-07
-3.62924e-10
1.64338e-07
-3.14787e-10
1.6461e-07
-2.71756e-10
1.64844e-07
-2.33547e-10
1.65044e-07
-1.9982e-10
1.65214e-07
-1.70226e-10
1.65358e-07
-1.44394e-10
1.6548e-07
-1.21967e-10
1.65583e-07
-1.0259e-10
1.65669e-07
-8.59307e-11
1.6574e-07
-7.16709e-11
1.658e-07
-5.95231e-11
1.65849e-07
-4.92178e-11
1.6589e-07
-4.05149e-11
1.65923e-07
-3.31949e-11
1.6595e-07
-2.70657e-11
1.65972e-07
-2.19547e-11
1.6599e-07
-1.77111e-11
1.66004e-07
-1.42031e-11
1.66015e-07
-1.13161e-11
1.66024e-07
-8.95251e-12
1.66031e-07
-7.02557e-12
1.66037e-07
-5.46472e-12
1.66041e-07
-4.2059e-12
1.66044e-07
-3.19916e-12
1.66046e-07
-2.39702e-12
1.66048e-07
-1.76513e-12
1.66049e-07
-1.26887e-12
1.6605e-07
-8.85448e-13
1.66051e-07
-5.89723e-13
1.66051e-07
-3.67692e-13
1.66051e-07
-2.01042e-13
1.66051e-07
-8.07701e-14
1.66051e-07
3.91782e-15
1.66051e-07
6.1755e-14
1.66051e-07
1.01326e-13
1.66051e-07
1.23532e-13
1.66051e-07
1.35719e-13
1.66051e-07
1.37298e-13
1.66051e-07
1.34549e-13
1.6605e-07
1.26112e-13
1.6605e-07
1.16697e-13
1.6605e-07
1.04273e-13
1.6605e-07
9.31101e-14
1.6605e-07
8.08337e-14
1.6605e-07
7.04916e-14
1.6605e-07
5.94302e-14
1.6605e-07
5.07267e-14
1.6605e-07
4.17343e-14
1.6605e-07
3.47002e-14
1.6605e-07
2.70924e-14
1.6605e-07
2.15088e-14
1.6605e-07
1.56264e-14
1.6605e-07
1.13664e-14
1.6605e-07
6.61103e-15
1.6605e-07
3.7026e-15
1.6605e-07
6.54031e-16
1.6605e-07
-9.27524e-16
1.6605e-07
-3.00898e-15
1.6605e-07
-3.64828e-15
1.6605e-07
-4.71955e-15
1.6605e-07
-4.99654e-15
1.6605e-07
-6.19222e-15
1.6605e-07
-6.69076e-15
1.6605e-07
-7.91423e-15
1.6605e-07
-8.83002e-15
1.6605e-07
-1.05883e-14
1.6605e-07
-1.16817e-14
1.6605e-07
-1.30709e-14
1.6605e-07
-1.39235e-14
1.6605e-07
-1.51197e-14
1.6605e-07
-1.56288e-14
1.6605e-07
-1.62226e-14
1.6605e-07
-1.64992e-14
1.6605e-07
-1.72324e-14
1.6605e-07
-1.75956e-14
1.6605e-07
-1.82509e-14
1.6605e-07
-1.87919e-14
1.6605e-07
-1.97489e-14
1.6605e-07
-2.02899e-14
1.6605e-07
-2.08119e-14
1.6605e-07
-2.09466e-14
1.6605e-07
-2.1189e-14
1.6605e-07
-2.07892e-14
1.6605e-07
-2.02681e-14
1.6605e-07
-1.93229e-14
1.6605e-07
-1.86369e-14
1.6605e-07
-1.75223e-14
1.6605e-07
-1.66116e-14
1.6605e-07
-1.55964e-14
1.6605e-07
-1.51352e-14
1.6605e-07
-1.44655e-14
1.6605e-07
-1.41818e-14
1.6605e-07
-1.38563e-14
1.6605e-07
-1.41637e-14
1.6605e-07
-1.415e-14
1.6605e-07
-1.45684e-14
1.6605e-07
-1.49158e-14
1.6605e-07
-1.60039e-14
1.6605e-07
-1.67024e-14
1.6605e-07
-1.84668e-14
1.6605e-07
-2.05421e-14
1.6605e-07
-2.46207e-14
1.6605e-07
-2.90319e-14
1.6605e-07
-3.58444e-14
1.6605e-07
-4.00369e-14
1.6605e-07
-7.76875e-15
1.03949e-14
5.13086e-07
1.90877e-07
3.5679e-07
3.3172e-07
1.88533e-07
3.02496e-07
8.77592e-08
1.4518e-07
5.36314e-08
3.78914e-08
2.75233e-08
2.57877e-08
1.86206e-08
9.71189e-09
1.54605e-08
5.27027e-09
1.535e-08
1.37221e-09
1.71881e-08
-1.33523e-09
1.93407e-08
-2.12006e-09
2.05716e-08
-1.22254e-09
2.07021e-08
7.93074e-11
2.03717e-08
6.68812e-10
1.99318e-08
7.3743e-10
1.98256e-08
3.1246e-10
2.04768e-08
-4.02985e-10
1.99652e-08
8.67951e-10
1.98293e-08
1.79575e-10
2.1326e-08
-2.01624e-09
2.33812e-08
-2.81787e-09
2.43949e-08
-1.53208e-09
2.44751e-08
-1.97331e-10
2.43496e-08
2.50109e-10
2.42969e-08
2.45504e-10
2.4482e-08
-6.0349e-11
2.5098e-08
-6.53013e-10
2.59619e-08
-1.01918e-09
2.68121e-08
-1.0938e-09
2.78031e-08
-1.37676e-09
2.92867e-08
-2.10577e-09
3.12313e-08
-2.78827e-09
3.3253e-08
-2.94041e-09
3.50874e-08
-2.66566e-09
3.66191e-08
-2.16377e-09
3.77525e-08
-1.51703e-09
3.85639e-08
-9.82518e-10
3.92372e-08
-7.448e-10
4.00551e-08
-9.35696e-10
4.13292e-08
-1.58616e-09
4.30297e-08
-2.2633e-09
4.51415e-08
-2.90145e-09
4.75479e-08
-3.29757e-09
4.97717e-08
-3.00715e-09
5.14184e-08
-2.18447e-09
5.25574e-08
-1.49786e-09
5.3763e-08
-1.66801e-09
5.60006e-08
-3.15255e-09
5.9548e-08
-5.01879e-09
6.37033e-08
-5.89508e-09
6.74131e-08
-5.25425e-09
7.00935e-08
-3.74409e-09
7.19784e-08
-2.4813e-09
7.36444e-08
-1.9721e-09
7.51601e-08
-1.67148e-09
7.65266e-08
-1.50508e-09
7.84361e-08
-2.35087e-09
8.16239e-08
-4.22801e-09
8.6033e-08
-6.05616e-09
9.10624e-08
-7.02825e-09
9.6107e-08
-7.07099e-09
1.0068e-07
-6.33283e-09
1.04324e-07
-4.92435e-09
1.06949e-07
-3.43686e-09
1.09259e-07
-2.9657e-09
1.12249e-07
-3.91629e-09
1.16443e-07
-5.66802e-09
1.21804e-07
-7.39225e-09
1.27835e-07
-8.39088e-09
1.33804e-07
-8.29312e-09
1.39036e-07
-7.18493e-09
1.43215e-07
-5.59549e-09
1.46574e-07
-4.31149e-09
1.49651e-07
-3.80027e-09
1.52902e-07
-4.00938e-09
1.56625e-07
-4.74114e-09
1.61146e-07
-5.97969e-09
1.66694e-07
-7.53022e-09
1.73137e-07
-8.86048e-09
1.7997e-07
-9.43512e-09
1.86527e-07
-9.01814e-09
1.92246e-07
-7.77687e-09
1.96901e-07
-6.21527e-09
2.00752e-07
-5.04395e-09
2.0452e-07
-4.89451e-09
2.08937e-07
-5.7844e-09
2.14277e-07
-7.09511e-09
2.20349e-07
-8.16608e-09
2.2672e-07
-8.61974e-09
2.32907e-07
-8.37028e-09
2.38531e-07
-7.57368e-09
2.435e-07
-6.64145e-09
2.48082e-07
-6.07727e-09
2.52692e-07
-6.09071e-09
2.57628e-07
-6.53433e-09
2.62951e-07
-7.07879e-09
2.68494e-07
-7.40319e-09
2.73995e-07
-7.37235e-09
2.79298e-07
-7.11944e-09
2.84425e-07
-6.88401e-09
2.89486e-07
-6.79167e-09
2.94557e-07
-6.80386e-09
2.99647e-07
-6.83973e-09
3.04752e-07
-6.88202e-09
3.09895e-07
-6.95545e-09
3.15095e-07
-7.05593e-09
3.2034e-07
-7.13505e-09
3.25577e-07
-7.14314e-09
3.3075e-07
-7.07452e-09
3.35832e-07
-6.9665e-09
3.40827e-07
-6.86043e-09
3.45748e-07
-6.77208e-09
3.50603e-07
-6.69715e-09
3.55398e-07
-6.63169e-09
3.60141e-07
-6.57866e-09
3.6484e-07
-6.53983e-09
3.695e-07
-6.50857e-09
3.74119e-07
-6.47189e-09
3.78683e-07
-6.4181e-09
3.83176e-07
-6.34192e-09
3.87584e-07
-6.24368e-09
3.91894e-07
-6.12528e-09
3.96093e-07
-5.9872e-09
4.00167e-07
-5.82822e-09
4.04102e-07
-5.64666e-09
4.07884e-07
-5.44181e-09
4.11496e-07
-5.21413e-09
4.14928e-07
-4.96528e-09
4.18165e-07
-4.69777e-09
4.212e-07
-4.41504e-09
4.24027e-07
-4.12112e-09
4.2664e-07
-3.82049e-09
4.29042e-07
-3.51775e-09
4.31233e-07
-3.21738e-09
4.3322e-07
-2.92345e-09
4.35011e-07
-2.63956e-09
4.36614e-07
-2.36864e-09
4.38042e-07
-2.11299e-09
4.39307e-07
-1.87423e-09
4.4042e-07
-1.65336e-09
4.41396e-07
-1.45085e-09
4.42246e-07
-1.2667e-09
4.42984e-07
-1.10052e-09
4.43621e-07
-9.51623e-10
4.44168e-07
-8.19092e-10
4.44636e-07
-7.01867e-10
4.45035e-07
-5.98787e-10
4.45374e-07
-5.08648e-10
4.45659e-07
-4.30241e-10
4.459e-07
-3.62384e-10
4.46101e-07
-3.03938e-10
4.46269e-07
-2.53835e-10
4.46409e-07
-2.11078e-10
4.46524e-07
-1.74752e-10
4.46619e-07
-1.44023e-10
4.46696e-07
-1.1814e-10
4.4676e-07
-9.64335e-11
4.46811e-07
-7.83071e-11
4.46852e-07
-6.32353e-11
4.46885e-07
-5.07594e-11
4.46911e-07
-4.04788e-11
4.46932e-07
-3.20473e-11
4.46948e-07
-2.51665e-11
4.46961e-07
-1.95804e-11
4.4697e-07
-1.50715e-11
4.46978e-07
-1.14533e-11
4.46983e-07
-8.57008e-12
4.46987e-07
-6.28841e-12
4.4699e-07
-4.49876e-12
4.46992e-07
-3.10707e-12
4.46993e-07
-2.03796e-12
4.46993e-07
-1.22626e-12
4.46994e-07
-6.21669e-13
4.46994e-07
-1.7922e-13
4.46993e-07
1.34592e-13
4.46993e-07
3.53757e-13
4.46993e-07
4.97396e-13
4.46992e-07
5.85301e-13
4.46991e-07
6.28676e-13
4.46991e-07
6.41221e-13
4.4699e-07
6.29214e-13
4.4699e-07
6.0227e-13
4.4699e-07
5.63265e-13
4.46989e-07
5.19135e-13
4.46989e-07
4.70735e-13
4.46988e-07
4.22952e-13
4.46988e-07
3.74985e-13
4.46988e-07
3.30475e-13
4.46988e-07
2.87864e-13
4.46987e-07
2.49788e-13
4.46987e-07
2.14026e-13
4.46987e-07
1.82812e-13
4.46987e-07
1.53973e-13
4.46987e-07
1.29332e-13
4.46987e-07
1.06595e-13
4.46987e-07
8.75577e-14
4.46987e-07
7.02376e-14
4.46987e-07
5.62671e-14
4.46986e-07
4.35118e-14
4.46986e-07
3.36526e-14
4.46986e-07
2.46924e-14
4.46986e-07
1.81686e-14
4.46986e-07
1.18404e-14
4.46986e-07
7.31833e-15
4.46986e-07
2.61007e-15
4.46986e-07
-7.76699e-16
4.46986e-07
-4.80166e-15
4.46986e-07
-7.83521e-15
4.46986e-07
-1.1397e-14
4.46986e-07
-1.39419e-14
4.46986e-07
-1.70016e-14
4.46986e-07
-1.90087e-14
4.46986e-07
-2.12952e-14
4.46986e-07
-2.24969e-14
4.46986e-07
-2.41714e-14
4.46986e-07
-2.49521e-14
4.46986e-07
-2.62252e-14
4.46986e-07
-2.67642e-14
4.46986e-07
-2.80255e-14
4.46986e-07
-2.87046e-14
4.46986e-07
-2.98999e-14
4.46986e-07
-3.04111e-14
4.46986e-07
-3.14229e-14
4.46986e-07
-3.16085e-14
4.46986e-07
-3.21075e-14
4.46986e-07
-3.16444e-14
4.46986e-07
-3.15719e-14
4.46986e-07
-3.06736e-14
4.46986e-07
-3.01123e-14
4.46986e-07
-2.88969e-14
4.46986e-07
-2.83211e-14
4.46986e-07
-2.73303e-14
4.46986e-07
-2.69694e-14
4.46986e-07
-2.63271e-14
4.46986e-07
-2.65334e-14
4.46986e-07
-2.65847e-14
4.46986e-07
-2.73911e-14
4.46986e-07
-2.79999e-14
4.46986e-07
-2.96383e-14
4.46986e-07
-3.11868e-14
4.46986e-07
-3.38202e-14
4.46986e-07
-3.64901e-14
4.46986e-07
-4.08057e-14
4.46987e-07
-4.56232e-14
4.46987e-07
-5.30095e-14
4.46987e-07
-6.12329e-14
4.46987e-07
-7.23039e-14
4.46987e-07
-8.23557e-14
4.46987e-07
-8.42386e-14
-8.55098e-14
7.98162e-07
1.79138e-07
7.99351e-07
3.30531e-07
7.09311e-07
3.92537e-07
5.27103e-07
3.27388e-07
3.52482e-07
2.12512e-07
1.91411e-07
1.86858e-07
7.54491e-08
1.25674e-07
2.08415e-08
5.98779e-08
1.07322e-08
1.14815e-08
1.53831e-08
-5.98607e-09
1.87566e-08
-5.49362e-09
2.001e-08
-2.47589e-09
2.16242e-08
-1.53484e-09
2.31724e-08
-8.79435e-10
2.27058e-08
1.20405e-09
2.10072e-08
2.01108e-09
2.14153e-08
-8.11048e-10
2.35311e-08
-1.2479e-09
2.45166e-08
-8.05919e-10
2.59055e-08
-3.40519e-09
2.76635e-08
-4.57587e-09
2.81231e-08
-1.99161e-09
2.79414e-08
-1.56305e-11
2.81482e-08
4.33179e-11
2.87653e-08
-3.71575e-10
2.98376e-08
-1.13266e-09
3.16246e-08
-2.44003e-09
3.35054e-08
-2.89995e-09
3.48723e-08
-2.46073e-09
3.61118e-08
-2.61627e-09
3.81716e-08
-4.16555e-09
4.08829e-08
-5.49958e-09
4.32964e-08
-5.35397e-09
4.53582e-08
-4.72742e-09
4.73613e-08
-4.1669e-09
4.89156e-08
-3.07125e-09
5.02678e-08
-2.33473e-09
5.16407e-08
-2.11773e-09
5.33329e-08
-2.62788e-09
5.62931e-08
-4.54638e-09
5.91002e-08
-5.07042e-09
6.1894e-08
-5.69527e-09
6.5618e-08
-7.02151e-09
6.90556e-08
-6.44475e-09
7.13209e-08
-4.44979e-09
7.26002e-08
-2.7771e-09
7.29102e-08
-1.97803e-09
7.55307e-08
-5.77311e-09
8.08234e-08
-1.03115e-08
8.7351e-08
-1.24226e-08
9.24046e-08
-1.03079e-08
9.53555e-08
-6.69494e-09
9.71245e-08
-4.2503e-09
1.0075e-07
-5.59718e-09
1.05298e-07
-6.21987e-09
1.08087e-07
-4.29366e-09
1.11251e-07
-5.51551e-09
1.16516e-07
-9.49296e-09
1.2337e-07
-1.29101e-08
1.3041e-07
-1.4068e-08
1.37237e-07
-1.38979e-08
1.44015e-07
-1.31115e-08
1.49749e-07
-1.06579e-08
1.53443e-07
-7.13085e-09
1.56702e-07
-6.22463e-09
1.61758e-07
-8.97232e-09
1.68308e-07
-1.22179e-08
1.76298e-07
-1.53828e-08
1.85194e-07
-1.72866e-08
1.94028e-07
-1.71271e-08
2.01822e-07
-1.49786e-08
2.08209e-07
-1.19833e-08
2.1383e-07
-9.93258e-09
2.19848e-07
-9.81762e-09
2.26374e-07
-1.05355e-08
2.33016e-07
-1.13838e-08
2.40076e-07
-1.30396e-08
2.4859e-07
-1.60439e-08
2.58605e-07
-1.88751e-08
2.69322e-07
-2.01524e-08
2.79652e-07
-1.93484e-08
2.88698e-07
-1.68227e-08
2.9604e-07
-1.35574e-08
3.01963e-07
-1.09671e-08
3.078e-07
-1.07308e-08
3.15122e-07
-1.31063e-08
3.24248e-07
-1.62215e-08
3.3461e-07
-1.85281e-08
3.45389e-07
-1.93987e-08
3.5579e-07
-1.87718e-08
3.6508e-07
-1.68633e-08
3.72989e-07
-1.45503e-08
3.80233e-07
-1.33212e-08
3.87768e-07
-1.36262e-08
3.96161e-07
-1.49265e-08
4.05434e-07
-1.63526e-08
4.15105e-07
-1.70739e-08
4.24483e-07
-1.67503e-08
4.33202e-07
-1.58384e-08
4.41482e-07
-1.51635e-08
4.49743e-07
-1.50531e-08
4.58143e-07
-1.52041e-08
4.66568e-07
-1.52647e-08
4.74922e-07
-1.52362e-08
4.83262e-07
-1.52955e-08
4.91691e-07
-1.5484e-08
5.00194e-07
-1.56386e-08
5.08641e-07
-1.55899e-08
5.16889e-07
-1.53231e-08
5.24894e-07
-1.49709e-08
5.32697e-07
-1.46633e-08
5.40346e-07
-1.44212e-08
5.47847e-07
-1.41983e-08
5.55188e-07
-1.3973e-08
5.62376e-07
-1.37669e-08
5.69437e-07
-1.36006e-08
5.76391e-07
-1.34629e-08
5.83236e-07
-1.33167e-08
5.89947e-07
-1.3129e-08
5.96495e-07
-1.28903e-08
6.02861e-07
-1.26093e-08
6.09033e-07
-1.22976e-08
6.15005e-07
-1.19583e-08
6.20763e-07
-1.15872e-08
6.26295e-07
-1.11784e-08
6.31583e-07
-1.07295e-08
6.3661e-07
-1.02413e-08
6.41362e-07
-9.71677e-09
6.45825e-07
-9.16071e-09
6.49989e-07
-8.5795e-09
6.53849e-07
-7.98087e-09
6.57402e-07
-7.37351e-09
6.6065e-07
-6.76629e-09
6.63601e-07
-6.16781e-09
6.66263e-07
-5.58582e-09
6.68651e-07
-5.02696e-09
6.70779e-07
-4.49658e-09
6.72664e-07
-3.99869e-09
6.74326e-07
-3.53598e-09
6.75783e-07
-3.10995e-09
6.77053e-07
-2.72108e-09
6.78155e-07
-2.36894e-09
6.79107e-07
-2.05243e-09
6.79925e-07
-1.7699e-09
6.80626e-07
-1.51935e-09
6.81222e-07
-1.29849e-09
6.81728e-07
-1.10492e-09
6.82156e-07
-9.36173e-10
6.82516e-07
-7.89842e-10
6.82817e-07
-6.63561e-10
6.83068e-07
-5.55107e-10
6.83277e-07
-4.62383e-10
6.83449e-07
-3.83467e-10
6.83591e-07
-3.16591e-10
6.83707e-07
-2.60168e-10
6.83802e-07
-2.12762e-10
6.83878e-07
-1.73108e-10
6.8394e-07
-1.40076e-10
6.83989e-07
-1.12686e-10
6.84029e-07
-9.00727e-11
6.8406e-07
-7.14923e-11
6.84084e-07
-5.62976e-11
6.84103e-07
-4.39373e-11
6.84117e-07
-3.39358e-11
6.84128e-07
-2.58922e-11
6.84136e-07
-1.94631e-11
6.84142e-07
-1.43622e-11
6.84146e-07
-1.03459e-11
6.84149e-07
-7.21288e-12
6.8415e-07
-4.79335e-12
6.84151e-07
-2.94837e-12
6.84151e-07
-1.56232e-12
6.84151e-07
-5.41054e-13
6.84151e-07
1.94371e-13
6.8415e-07
7.10331e-13
6.8415e-07
1.05701e-12
6.84149e-07
1.27293e-12
6.84148e-07
1.39048e-12
6.84147e-07
1.43369e-12
6.84146e-07
1.42321e-12
6.84146e-07
1.37398e-12
6.84145e-07
1.29913e-12
6.84144e-07
1.20757e-12
6.84144e-07
1.10714e-12
6.84143e-07
1.00302e-12
6.84143e-07
8.99692e-13
6.84142e-07
7.99747e-13
6.84142e-07
7.05203e-13
6.84142e-07
6.17246e-13
6.84141e-07
5.36573e-13
6.84141e-07
4.63385e-13
6.84141e-07
3.9742e-13
6.84141e-07
3.38643e-13
6.8414e-07
2.86491e-13
6.8414e-07
2.40709e-13
6.8414e-07
2.00476e-13
6.8414e-07
1.65671e-13
6.8414e-07
1.35612e-13
6.8414e-07
1.09981e-13
6.8414e-07
8.81108e-14
6.8414e-07
6.96425e-14
6.8414e-07
5.41844e-14
6.8414e-07
4.1089e-14
6.8414e-07
3.00455e-14
6.8414e-07
2.04807e-14
6.8414e-07
1.23666e-14
6.8414e-07
5.12036e-15
6.8414e-07
-1.22235e-15
6.8414e-07
-6.95648e-15
6.8414e-07
-1.18433e-14
6.8414e-07
-1.62035e-14
6.8414e-07
-1.98391e-14
6.8414e-07
-2.30223e-14
6.8414e-07
-2.54461e-14
6.8414e-07
-2.76209e-14
6.8414e-07
-2.92963e-14
6.8414e-07
-3.09566e-14
6.8414e-07
-3.2215e-14
6.8414e-07
-3.36199e-14
6.8414e-07
-3.48178e-14
6.8414e-07
-3.61251e-14
6.8414e-07
-3.71205e-14
6.8414e-07
-3.80819e-14
6.8414e-07
-3.87409e-14
6.8414e-07
-3.92428e-14
6.8414e-07
-3.93432e-14
6.8414e-07
-3.92281e-14
6.8414e-07
-3.89061e-14
6.8414e-07
-3.84546e-14
6.8414e-07
-3.79212e-14
6.8414e-07
-3.74121e-14
6.8414e-07
-3.7134e-14
6.8414e-07
-3.70091e-14
6.8414e-07
-3.7234e-14
6.8414e-07
-3.77273e-14
6.8414e-07
-3.87792e-14
6.8414e-07
-4.0164e-14
6.8414e-07
-4.20897e-14
6.8414e-07
-4.45196e-14
6.8414e-07
-4.76538e-14
6.8414e-07
-5.15541e-14
6.8414e-07
-5.62064e-14
6.8414e-07
-6.20881e-14
6.8414e-07
-6.92582e-14
6.8414e-07
-7.82937e-14
6.8414e-07
-8.89823e-14
6.8414e-07
-1.01836e-13
6.8414e-07
-1.15568e-13
6.8414e-07
-1.26782e-13
-1.34016e-13
1.07527e-06
1.07216e-07
1.18386e-06
2.21942e-07
1.29825e-06
2.78148e-07
1.35569e-06
2.69951e-07
1.31823e-06
2.49973e-07
1.27678e-06
2.28309e-07
1.20346e-06
1.9899e-07
1.1005e-06
1.62839e-07
9.99768e-07
1.12216e-07
9.13036e-07
8.07455e-08
8.31528e-07
7.6015e-08
7.43917e-07
8.51346e-08
6.4192e-07
1.00463e-07
5.33596e-07
1.07445e-07
4.36933e-07
9.78665e-08
3.4397e-07
9.49739e-08
2.34763e-07
1.08397e-07
1.29981e-07
1.03534e-07
5.90146e-08
7.01602e-08
2.7227e-08
2.83824e-08
1.74967e-08
5.15444e-09
1.86566e-08
-3.15147e-09
2.36782e-08
-5.03723e-09
2.79644e-08
-4.24286e-09
3.08235e-08
-3.23059e-09
3.26948e-08
-3.00406e-09
3.3582e-08
-3.32716e-09
3.45402e-08
-3.85811e-09
3.66743e-08
-4.59482e-09
3.93809e-08
-5.32288e-09
4.11048e-08
-5.88935e-09
4.17729e-08
-6.16767e-09
4.24407e-08
-6.02175e-09
4.34797e-08
-5.76644e-09
4.48744e-08
-5.56147e-09
4.69879e-08
-5.18476e-09
4.97904e-08
-5.1372e-09
5.32229e-08
-5.55027e-09
5.69856e-08
-6.39052e-09
6.10678e-08
-8.62858e-09
6.63077e-08
-1.03103e-08
7.12423e-08
-1.06299e-08
7.19846e-08
-7.76376e-09
7.20404e-08
-6.50063e-09
7.31672e-08
-5.57654e-09
7.66021e-08
-6.21206e-09
7.96655e-08
-5.0414e-09
8.51425e-08
-1.12501e-08
8.98051e-08
-1.49742e-08
9.5482e-08
-1.80995e-08
9.86371e-08
-1.3463e-08
1.00821e-07
-8.87929e-09
1.01388e-07
-4.81675e-09
1.06139e-07
-1.03488e-08
1.13994e-07
-1.40742e-08
1.22558e-07
-1.28581e-08
1.30734e-07
-1.36918e-08
1.39724e-07
-1.84823e-08
1.46918e-07
-2.01042e-08
1.52569e-07
-1.97193e-08
1.57017e-07
-1.83459e-08
1.63909e-07
-2.00037e-08
1.71996e-07
-1.87441e-08
1.76978e-07
-1.21133e-08
1.83372e-07
-1.26184e-08
1.94861e-07
-2.04614e-08
2.02809e-07
-2.0166e-08
2.10045e-07
-2.26189e-08
2.1843e-07
-2.56715e-08
2.26778e-07
-2.54747e-08
2.33924e-07
-2.21254e-08
2.40861e-07
-1.89195e-08
2.49367e-07
-1.84391e-08
2.61094e-07
-2.15447e-08
2.75521e-07
-2.49625e-08
2.87486e-07
-2.33486e-08
2.9512e-07
-2.06738e-08
3.03794e-07
-2.47176e-08
3.14632e-07
-2.97133e-08
3.26858e-07
-3.23779e-08
3.38294e-07
-3.07847e-08
3.48624e-07
-2.71525e-08
3.57952e-07
-2.2885e-08
3.68606e-07
-2.16212e-08
3.79112e-07
-2.12372e-08
3.89905e-07
-2.38993e-08
4.0241e-07
-2.87265e-08
4.15929e-07
-3.20472e-08
4.29704e-07
-3.31742e-08
4.43396e-07
-3.24633e-08
4.55983e-07
-2.94501e-08
4.66358e-07
-2.49261e-08
4.76496e-07
-2.3459e-08
4.87484e-07
-2.46135e-08
4.99538e-07
-2.69807e-08
5.13151e-07
-2.99659e-08
5.27548e-07
-3.14705e-08
5.41118e-07
-3.03209e-08
5.52925e-07
-2.76449e-08
5.63901e-07
-2.61394e-08
5.75417e-07
-2.65695e-08
5.87628e-07
-2.74151e-08
5.99851e-07
-2.7488e-08
6.11652e-07
-2.70362e-08
6.23266e-07
-2.69096e-08
6.3515e-07
-2.73689e-08
6.47303e-07
-2.77912e-08
6.59331e-07
-2.76183e-08
6.70848e-07
-2.684e-08
6.81804e-07
-2.5927e-08
6.9244e-07
-2.52992e-08
7.02922e-07
-2.49026e-08
7.13184e-07
-2.44609e-08
7.23118e-07
-2.39063e-08
7.32713e-07
-2.33623e-08
7.42058e-07
-2.29451e-08
7.51225e-07
-2.263e-08
7.60214e-07
-2.23062e-08
7.68966e-07
-2.18803e-08
7.77414e-07
-2.13383e-08
7.85531e-07
-2.07269e-08
7.93326e-07
-2.00924e-08
8.00814e-07
-1.94463e-08
8.07997e-07
-1.87699e-08
8.14861e-07
-1.8043e-08
8.21391e-07
-1.72587e-08
8.27568e-07
-1.64189e-08
8.3338e-07
-1.55287e-08
8.38814e-07
-1.45947e-08
8.43861e-07
-1.36261e-08
8.48515e-07
-1.26349e-08
8.52776e-07
-1.1635e-08
8.56651e-07
-1.0641e-08
8.6015e-07
-9.66672e-09
8.63289e-07
-8.72443e-09
8.66086e-07
-7.82448e-09
8.68564e-07
-6.97496e-09
8.70747e-07
-6.18162e-09
8.7266e-07
-5.44809e-09
8.74326e-07
-4.77601e-09
8.7577e-07
-4.16545e-09
8.77016e-07
-3.61506e-09
8.78086e-07
-3.12251e-09
8.79001e-07
-2.68466e-09
8.79779e-07
-2.2979e-09
8.80439e-07
-1.95825e-09
8.80996e-07
-1.66165e-09
8.81464e-07
-1.40399e-09
8.81855e-07
-1.18129e-09
8.82181e-07
-9.8971e-10
8.82452e-07
-8.25684e-10
8.82676e-07
-6.85862e-10
8.82859e-07
-5.67207e-10
8.8301e-07
-4.66936e-10
8.83132e-07
-3.8257e-10
8.83231e-07
-3.11881e-10
8.83311e-07
-2.5291e-10
8.83375e-07
-2.03923e-10
8.83426e-07
-1.63413e-10
8.83466e-07
-1.30062e-10
8.83497e-07
-1.0274e-10
8.83521e-07
-8.04634e-11
8.83539e-07
-6.24013e-11
8.83553e-07
-4.7836e-11
8.83564e-07
-3.61659e-11
8.83571e-07
-2.68761e-11
8.83576e-07
-1.95392e-11
8.8358e-07
-1.37919e-11
8.83582e-07
-9.33537e-12
8.83583e-07
-5.91758e-12
8.83583e-07
-3.33371e-12
8.83583e-07
-1.41182e-12
8.83583e-07
-1.37738e-14
8.83582e-07
9.79116e-13
8.83581e-07
1.657e-12
8.8358e-07
2.09348e-12
8.83579e-07
2.34485e-12
8.83578e-07
2.45841e-12
8.83577e-07
2.46939e-12
8.83576e-07
2.40765e-12
8.83575e-07
2.29488e-12
8.83574e-07
2.14945e-12
8.83573e-07
1.9842e-12
8.83572e-07
1.80984e-12
8.83572e-07
1.6337e-12
8.83571e-07
1.46143e-12
8.83571e-07
1.29679e-12
8.8357e-07
1.14218e-12
8.8357e-07
9.99307e-13
8.83569e-07
8.68593e-13
8.83569e-07
7.50518e-13
8.83569e-07
6.44348e-13
8.83569e-07
5.5011e-13
8.83569e-07
4.66535e-13
8.83568e-07
3.93379e-13
8.83568e-07
3.29227e-13
8.83568e-07
2.73812e-13
8.83568e-07
2.25841e-13
8.83568e-07
1.84852e-13
8.83568e-07
1.49785e-13
8.83568e-07
1.20081e-13
8.83568e-07
9.49507e-14
8.83568e-07
7.36644e-14
8.83568e-07
5.56632e-14
8.83568e-07
4.03279e-14
8.83568e-07
2.7306e-14
8.83568e-07
1.60831e-14
8.83568e-07
6.46404e-15
8.83568e-07
-1.82264e-15
8.83568e-07
-8.82795e-15
8.83568e-07
-1.48259e-14
8.83568e-07
-1.97823e-14
8.83568e-07
-2.39691e-14
8.83568e-07
-2.7285e-14
8.83568e-07
-3.01688e-14
8.83568e-07
-3.24673e-14
8.83568e-07
-3.45956e-14
8.83568e-07
-3.63389e-14
8.83568e-07
-3.80979e-14
8.83568e-07
-3.96337e-14
8.83568e-07
-4.11497e-14
8.83568e-07
-4.24311e-14
8.83568e-07
-4.36039e-14
8.83568e-07
-4.45523e-14
8.83568e-07
-4.52463e-14
8.83568e-07
-4.57128e-14
8.83568e-07
-4.59154e-14
8.83568e-07
-4.6076e-14
8.83568e-07
-4.60045e-14
8.83568e-07
-4.60701e-14
8.83568e-07
-4.60536e-14
8.83568e-07
-4.64513e-14
8.83568e-07
-4.68648e-14
8.83568e-07
-4.78702e-14
8.83568e-07
-4.90324e-14
8.83568e-07
-5.09207e-14
8.83568e-07
-5.30738e-14
8.83568e-07
-5.59662e-14
8.83568e-07
-5.93589e-14
8.83568e-07
-6.35292e-14
8.83568e-07
-6.85024e-14
8.83568e-07
-7.43013e-14
8.83568e-07
-8.13618e-14
8.83568e-07
-8.95293e-14
8.83568e-07
-9.94356e-14
8.83568e-07
-1.10723e-13
8.83568e-07
-1.23963e-13
8.83568e-07
-1.3805e-13
8.83568e-07
-1.51242e-13
-1.61031e-13
1.19492e-06
5.83355e-08
1.28418e-06
1.32679e-07
1.38227e-06
1.8006e-07
1.45418e-06
1.98043e-07
1.50296e-06
2.01189e-07
1.53634e-06
1.94927e-07
1.55419e-06
1.81143e-07
1.55723e-06
1.59796e-07
1.53305e-06
1.36396e-07
1.49269e-06
1.2111e-07
1.45324e-06
1.1546e-07
1.42236e-06
1.16012e-07
1.403e-06
1.19832e-07
1.3867e-06
1.23745e-07
1.36094e-06
1.23621e-07
1.3365e-06
1.19418e-07
1.32943e-06
1.1546e-07
1.32127e-06
1.11697e-07
1.29211e-06
9.93227e-08
1.24409e-06
7.64042e-08
1.2024e-06
4.68447e-08
1.17063e-06
2.86157e-08
1.14544e-06
2.0148e-08
1.12487e-06
1.63292e-08
1.10705e-06
1.45948e-08
1.09026e-06
1.37826e-08
1.07352e-06
1.34079e-08
1.05622e-06
1.34453e-08
1.03764e-06
1.39858e-08
1.01721e-06
1.51062e-08
9.94457e-07
1.6866e-08
9.68703e-07
1.95864e-08
9.38932e-07
2.37488e-08
9.03752e-07
2.94146e-08
8.61645e-07
3.65452e-08
8.10936e-07
4.55243e-08
7.49218e-07
5.65808e-08
6.73565e-07
7.01031e-08
5.80311e-07
8.68636e-08
4.63973e-07
1.0771e-07
3.16935e-07
1.36728e-07
1.8227e-07
1.24035e-07
1.00404e-07
7.41024e-08
6.36776e-08
3.02254e-08
5.41381e-08
3.96301e-09
6.53933e-08
-1.74673e-08
8.5785e-08
-2.54331e-08
9.78137e-08
-2.32788e-08
9.76845e-08
-1.48449e-08
9.00272e-08
-1.04423e-08
8.72841e-08
-1.07199e-08
9.28729e-08
-1.4468e-08
1.04822e-07
-1.67656e-08
1.12393e-07
-1.792e-08
1.19386e-07
-2.1067e-08
1.31877e-07
-2.5349e-08
1.45655e-07
-2.74699e-08
1.5249e-07
-2.53173e-08
1.53165e-07
-2.07793e-08
1.53211e-07
-1.97651e-08
1.54498e-07
-1.96337e-08
1.55024e-07
-2.05295e-08
1.60009e-07
-2.37291e-08
1.75724e-07
-2.7828e-08
1.95353e-07
-3.22471e-08
2.10497e-07
-3.56061e-08
2.22014e-07
-3.16832e-08
2.27319e-07
-2.79234e-08
2.27181e-07
-2.55335e-08
2.25372e-07
-2.36663e-08
2.22345e-07
-1.90979e-08
2.31213e-07
-2.77881e-08
2.46639e-07
-3.38643e-08
2.6289e-07
-3.77959e-08
2.80816e-07
-4.28888e-08
3.06879e-07
-4.94114e-08
3.25178e-07
-3.8973e-08
3.36426e-07
-3.59658e-08
3.42407e-07
-3.56943e-08
3.50731e-07
-4.07023e-08
3.54449e-07
-3.4502e-08
3.59772e-07
-3.24755e-08
3.59035e-07
-2.21486e-08
3.89403e-07
-5.19893e-08
4.2983e-07
-6.16636e-08
4.48742e-07
-4.28118e-08
4.59329e-07
-3.9313e-08
4.69144e-07
-4.18625e-08
4.78319e-07
-4.23493e-08
4.89839e-07
-4.39831e-08
5.04907e-07
-4.45186e-08
5.17828e-07
-3.78466e-08
5.37711e-07
-4.33421e-08
5.58153e-07
-4.50562e-08
5.72891e-07
-4.17184e-08
5.87528e-07
-4.46032e-08
6.04524e-07
-4.84658e-08
6.20526e-07
-4.63229e-08
6.34283e-07
-4.14021e-08
6.48011e-07
-3.9868e-08
6.63747e-07
-4.23053e-08
6.80668e-07
-4.43364e-08
6.9724e-07
-4.40594e-08
7.12337e-07
-4.2133e-08
7.27041e-07
-4.16136e-08
7.42377e-07
-4.27049e-08
7.58553e-07
-4.39679e-08
7.74707e-07
-4.37721e-08
7.89803e-07
-4.19355e-08
8.03775e-07
-3.98994e-08
8.17551e-07
-3.90751e-08
8.31595e-07
-3.89462e-08
8.45475e-07
-3.83415e-08
8.58676e-07
-3.71068e-08
8.71135e-07
-3.58214e-08
8.83169e-07
-3.49795e-08
8.95013e-07
-3.44736e-08
9.06632e-07
-3.39249e-08
9.17828e-07
-3.30768e-08
9.28435e-07
-3.19452e-08
9.38424e-07
-3.07159e-08
9.47877e-07
-2.95455e-08
9.5688e-07
-2.84487e-08
9.65463e-07
-2.73536e-08
9.73611e-07
-2.61909e-08
9.81302e-07
-2.49495e-08
9.88526e-07
-2.36427e-08
9.95277e-07
-2.22797e-08
1.00155e-06
-2.08651e-08
1.00733e-06
-1.94086e-08
1.01262e-06
-1.79276e-08
1.01743e-06
-1.64429e-08
1.02177e-06
-1.49764e-08
1.02565e-06
-1.35483e-08
1.0291e-06
-1.21762e-08
1.03215e-06
-1.08745e-08
1.03483e-06
-9.6537e-09
1.03717e-06
-8.52096e-09
1.0392e-06
-7.48012e-09
1.04096e-06
-6.53215e-09
1.04247e-06
-5.67585e-09
1.04376e-06
-4.90811e-09
1.04486e-06
-4.22461e-09
1.0458e-06
-3.61997e-09
1.04659e-06
-3.08835e-09
1.04725e-06
-2.62354e-09
1.04781e-06
-2.21932e-09
1.04828e-06
-1.86954e-09
1.04866e-06
-1.56836e-09
1.04898e-06
-1.31019e-09
1.04925e-06
-1.0899e-09
1.04946e-06
-9.02723e-10
1.04964e-06
-7.4438e-10
1.04979e-06
-6.10975e-10
1.0499e-06
-4.99062e-10
1.05e-06
-4.0556e-10
1.05007e-06
-3.27781e-10
1.05013e-06
-2.6335e-10
1.05018e-06
-2.10221e-10
1.05021e-06
-1.66607e-10
1.05024e-06
-1.30981e-10
1.05026e-06
-1.02025e-10
1.05028e-06
-7.86213e-11
1.05029e-06
-5.98134e-11
1.0503e-06
-4.48e-11
1.05031e-06
-3.28974e-11
1.05031e-06
-2.354e-11
1.05031e-06
-1.62476e-11
1.05031e-06
-1.06272e-11
1.05031e-06
-6.34742e-12
1.05031e-06
-3.13988e-12
1.05031e-06
-7.7956e-13
1.05031e-06
9.14955e-13
1.05031e-06
2.09535e-12
1.05031e-06
2.87561e-12
1.05031e-06
3.35148e-12
1.05031e-06
3.59574e-12
1.05031e-06
3.66979e-12
1.0503e-06
3.61892e-12
1.0503e-06
3.4815e-12
1.0503e-06
3.28504e-12
1.0503e-06
3.05268e-12
1.0503e-06
2.80047e-12
1.0503e-06
2.54158e-12
1.0503e-06
2.28486e-12
1.0503e-06
2.03703e-12
1.0503e-06
1.80245e-12
1.0503e-06
1.5838e-12
1.0503e-06
1.38285e-12
1.0503e-06
1.19984e-12