/*--------------------------------*- C++ -*----------------------------------*\
| =========                 |                                                 |
| \\      /  F ield         | OpenFOAM: The Open Source CFD Toolbox           |
|  \\    /   O peration     | Version:  2406                                  |
|   \\  /    A nd           | Website:  www.openfoam.com                      |
|    \\/     M anipulation  |                                                 |
\*---------------------------------------------------------------------------*/
FoamFile
{
    version     2.0;
    format      ascii;
    arch        "LSB;label=32;scalar=64";
    class       volVectorField;
    location    "0.05";
    object      U;
}
// * * * * * * * * * * * * * * * * * * * * * * * * * * * * * * * * * * * * * //

dimensions      [0 1 -1 0 0 0 0];

internalField   nonuniform List<vector> 
6250
(
(1.47467 0.165661 0)
(0.136994 0.269215 0)
(0.13991 0.18879 0)
(0.0204963 0.0425081 0)
(0.0216482 0.014932 0)
(0.0200431 0.00383124 0)
(0.0190682 0.000965765 0)
(0.0175816 0.00133101 0)
(0.0155605 0.00121022 0)
(0.0143809 0.00069349 0)
(0.0140944 0.000178865 0)
(0.0141314 5.12049e-05 0)
(0.014021 0.000171065 0)
(0.0136716 0.000270288 0)
(0.0132557 0.00027578 0)
(0.0129261 0.000221801 0)
(0.0126368 0.000238079 0)
(0.0122417 0.000355522 0)
(0.0119542 0.000108265 0)
(0.0122518 -0.000416027 0)
(0.0131166 -0.0006543 0)
(0.0139813 -0.000405177 0)
(0.0143936 -2.34084e-05 0)
(0.0143605 0.000207234 0)
(0.0141213 0.000276287 0)
(0.0138958 0.000232118 0)
(0.0138318 0.000123811 0)
(0.0139529 4.17043e-05 0)
(0.0141989 5.12662e-06 0)
(0.0145807 -7.89725e-05 0)
(0.0152075 -0.000258019 0)
(0.0161425 -0.000434033 0)
(0.0172785 -0.000488394 0)
(0.0184053 -0.000413385 0)
(0.0193394 -0.000248339 0)
(0.0199745 -3.07217e-05 0)
(0.0203022 0.000174281 0)
(0.0204209 0.000302263 0)
(0.0205035 0.000301017 0)
(0.0207495 0.000165899 0)
(0.0212955 -2.1793e-05 0)
(0.0221618 -0.000196041 0)
(0.0232501 -0.000280911 0)
(0.0243324 -0.000198749 0)
(0.0251611 3.38491e-06 0)
(0.0256779 0.000167073 0)
(0.0261208 0.000124478 0)
(0.0269374 -0.000195172 0)
(0.0284549 -0.000600475 0)
(0.0305465 -0.000797459 0)
(0.0326836 -0.000650268 0)
(0.0343472 -0.000283255 0)
(0.0353679 8.26902e-05 0)
(0.0358943 0.000327474 0)
(0.0361369 0.000495316 0)
(0.0362583 0.000556286 0)
(0.0365562 0.000364403 0)
(0.0374538 -6.03695e-05 0)
(0.0391625 -0.000499403 0)
(0.0415108 -0.000754397 0)
(0.044105 -0.00077749 0)
(0.046532 -0.000589186 0)
(0.048448 -0.000233799 0)
(0.0497108 0.000133274 0)
(0.0505413 0.000274949 0)
(0.0514507 9.29347e-05 0)
(0.0529199 -0.000294522 0)
(0.0551399 -0.000697183 0)
(0.0579585 -0.000937882 0)
(0.0609704 -0.000917782 0)
(0.0637004 -0.000647916 0)
(0.0658133 -0.000246745 0)
(0.0672559 0.000110401 0)
(0.0682418 0.000297211 0)
(0.0691045 0.000291039 0)
(0.0701629 0.000119324 0)
(0.0716821 -0.000188032 0)
(0.07384 -0.000560711 0)
(0.0766377 -0.00087214 0)
(0.079848 -0.00100622 0)
(0.0830824 -0.000912242 0)
(0.0859446 -0.00062441 0)
(0.0881941 -0.000256004 0)
(0.089859 2.99306e-05 0)
(0.0912372 9.61009e-05 0)
(0.0927454 -6.92999e-05 0)
(0.0946895 -0.000348201 0)
(0.0971272 -0.000595029 0)
(0.0998917 -0.000715491 0)
(0.102707 -0.000680451 0)
(0.105311 -0.000521259 0)
(0.107564 -0.000323958 0)
(0.109511 -0.000192391 0)
(0.111338 -0.00017718 0)
(0.113244 -0.000257456 0)
(0.115344 -0.000369181 0)
(0.117622 -0.000446117 0)
(0.119971 -0.0004582 0)
(0.122283 -0.000424628 0)
(0.124514 -0.000388083 0)
(0.126687 -0.0003752 0)
(0.128846 -0.000384609 0)
(0.131019 -0.0004045 0)
(0.133221 -0.000430289 0)
(0.135463 -0.000463927 0)
(0.137756 -0.00050335 0)
(0.140101 -0.000539677 0)
(0.142479 -0.000563706 0)
(0.144863 -0.000573705 0)
(0.14723 -0.000575497 0)
(0.149574 -0.000576666 0)
(0.151896 -0.000581064 0)
(0.154203 -0.000589134 0)
(0.1565 -0.000600766 0)
(0.158795 -0.000616624 0)
(0.161093 -0.000637112 0)
(0.163398 -0.000661026 0)
(0.165713 -0.000685904 0)
(0.168032 -0.000709098 0)
(0.170348 -0.00072908 0)
(0.172652 -0.000745292 0)
(0.174936 -0.000757797 0)
(0.177191 -0.000766421 0)
(0.179407 -0.000770839 0)
(0.181575 -0.000770444 0)
(0.183685 -0.000764853 0)
(0.185726 -0.000753716 0)
(0.187687 -0.000737053 0)
(0.18956 -0.00071495 0)
(0.191337 -0.000687858 0)
(0.193009 -0.000656278 0)
(0.194574 -0.000621006 0)
(0.196026 -0.000582814 0)
(0.197364 -0.000542648 0)
(0.19859 -0.000501331 0)
(0.199705 -0.000459741 0)
(0.200712 -0.000418578 0)
(0.201617 -0.000378523 0)
(0.202425 -0.000340061 0)
(0.203142 -0.00030363 0)
(0.203775 -0.000269485 0)
(0.204331 -0.000237849 0)
(0.204817 -0.000208783 0)
(0.205239 -0.000182339 0)
(0.205604 -0.000158444 0)
(0.205918 -0.000137037 0)
(0.206188 -0.000117967 0)
(0.206418 -0.000101106 0)
(0.206614 -8.6268e-05 0)
(0.20678 -7.33021e-05 0)
(0.206919 -6.20161e-05 0)
(0.207036 -5.2257e-05 0)
(0.207134 -4.38454e-05 0)
(0.207216 -3.66424e-05 0)
(0.207283 -3.04917e-05 0)
(0.207339 -2.52719e-05 0)
(0.207385 -2.08529e-05 0)
(0.207422 -1.71347e-05 0)
(0.207452 -1.40137e-05 0)
(0.207477 -1.14089e-05 0)
(0.207497 -9.24063e-06 0)
(0.207513 -7.44552e-06 0)
(0.207525 -5.96525e-06 0)
(0.207535 -4.74974e-06 0)
(0.207543 -3.7577e-06 0)
(0.207549 -2.95034e-06 0)
(0.207553 -2.29973e-06 0)
(0.207557 -1.77506e-06 0)
(0.207559 -1.35846e-06 0)
(0.207561 -1.02539e-06 0)
(0.207562 -7.6583e-07 0)
(0.207563 -5.60115e-07 0)
(0.207564 -4.04541e-07 0)
(0.207564 -2.83398e-07 0)
(0.207564 -1.97037e-07 0)
(0.207564 -1.29288e-07 0)
(0.207564 -8.29959e-08 0)
(0.207564 -4.59228e-08 0)
(0.207564 -2.35836e-08 0)
(0.207564 -5.41576e-09 0)
(0.207564 2.01094e-09 0)
(0.207563 9.10499e-09 0)
(0.207563 8.91621e-09 0)
(0.207563 1.05589e-08 0)
(0.207563 6.60866e-09 0)
(0.207563 6.22811e-09 0)
(0.207563 1.88215e-09 0)
(0.207562 1.45918e-09 0)
(0.207562 -2.78494e-09 0)
(0.207562 -2.7871e-09 0)
(0.207562 -6.10205e-09 0)
(0.207562 -5.68767e-09 0)
(0.207562 -8.906e-09 0)
(0.207562 -8.31995e-09 0)
(0.207562 -1.0923e-08 0)
(0.207562 -1.02178e-08 0)
(0.207562 -1.28675e-08 0)
(0.207562 -1.18955e-08 0)
(0.207562 -1.3609e-08 0)
(0.207562 -1.21298e-08 0)
(0.207562 -1.3531e-08 0)
(0.207562 -1.16943e-08 0)
(0.207562 -1.23598e-08 0)
(0.207562 -1.05292e-08 0)
(0.207562 -1.15655e-08 0)
(0.207562 -1.0257e-08 0)
(0.207562 -1.14653e-08 0)
(0.207562 -1.08937e-08 0)
(0.207562 -1.29306e-08 0)
(0.207562 -1.29089e-08 0)
(0.207562 -1.47648e-08 0)
(0.207562 -1.47699e-08 0)
(0.207562 -1.66646e-08 0)
(0.207562 -1.64676e-08 0)
(0.207562 -1.76638e-08 0)
(0.207562 -1.72198e-08 0)
(0.207562 -1.847e-08 0)
(0.207562 -1.81067e-08 0)
(0.207562 -1.9149e-08 0)
(0.207562 -1.89779e-08 0)
(0.207562 -2.04426e-08 0)
(0.207562 -2.03863e-08 0)
(0.207562 -2.14637e-08 0)
(0.207562 -2.10783e-08 0)
(0.207562 -2.20287e-08 0)
(0.207562 -2.11914e-08 0)
(0.207562 -2.13204e-08 0)
(0.207562 -1.98522e-08 0)
(0.207562 -1.97539e-08 0)
(0.207562 -1.80307e-08 0)
(0.207562 -1.75348e-08 0)
(0.207562 -1.57496e-08 0)
(0.207562 -1.56131e-08 0)
(0.207562 -1.40943e-08 0)
(0.207562 -1.40217e-08 0)
(0.207562 -1.27625e-08 0)
(0.207562 -1.339e-08 0)
(0.207562 -1.24203e-08 0)
(0.207562 -1.3195e-08 0)
(0.207562 -1.2582e-08 0)
(0.207562 -1.38438e-08 0)
(0.207562 -1.34847e-08 0)
(0.207563 -1.56474e-08 0)
(0.207563 -1.66313e-08 0)
(0.207563 -2.23035e-08 0)
(0.207563 -2.87686e-08 0)
(0.207563 -4.51808e-08 0)
(0.207563 -5.16604e-08 0)
(0.207563 1.01528e-07 0)
(0.207563 1.96667e-07 0)
(1.69164 0.413251 0)
(0.436924 0.692003 0)
(0.267082 0.494705 0)
(0.123933 0.173398 0)
(0.0854269 0.0179578 0)
(0.045361 -0.00249433 0)
(0.0259805 0.00301708 0)
(0.0203623 0.00562098 0)
(0.0188466 0.00335442 0)
(0.0202537 0.00129306 0)
(0.0228619 6.78647e-05 0)
(0.0250063 5.19316e-05 0)
(0.0258851 0.000768232 0)
(0.0257997 0.0012336 0)
(0.0252624 0.00110605 0)
(0.0248771 0.000801953 0)
(0.0250231 0.000838527 0)
(0.0250991 0.00110058 0)
(0.0248772 7.26282e-05 0)
(0.0256852 -0.00221946 0)
(0.0279037 -0.00334354 0)
(0.0299245 -0.00219782 0)
(0.0306752 -0.000611721 0)
(0.0305867 0.000270317 0)
(0.0303683 0.00051412 0)
(0.0304138 0.000230616 0)
(0.0309228 -0.000471639 0)
(0.03185 -0.00110577 0)
(0.0329137 -0.00151917 0)
(0.0340505 -0.00216984 0)
(0.0355916 -0.00331474 0)
(0.0377651 -0.00438876 0)
(0.0403082 -0.00468661 0)
(0.0427811 -0.00423842 0)
(0.0449141 -0.00333515 0)
(0.0465689 -0.00222011 0)
(0.047742 -0.00130621 0)
(0.0486018 -0.000896268 0)
(0.0494701 -0.00119982 0)
(0.0507466 -0.00224172 0)
(0.0526161 -0.00344551 0)
(0.0550384 -0.00441196 0)
(0.0579331 -0.00481432 0)
(0.0609161 -0.00425551 0)
(0.0633615 -0.00305747 0)
(0.0650129 -0.00215637 0)
(0.0662951 -0.00252724 0)
(0.0683015 -0.0047031 0)
(0.071966 -0.00742432 0)
(0.0770242 -0.00869942 0)
(0.0821561 -0.0076411 0)
(0.0861671 -0.00530269 0)
(0.0889317 -0.00324508 0)
(0.0910686 -0.00221093 0)
(0.0930038 -0.00164777 0)
(0.0947096 -0.00151574 0)
(0.0966083 -0.00284911 0)
(0.0997161 -0.00558876 0)
(0.104539 -0.00833891 0)
(0.110597 -0.00985729 0)
(0.117051 -0.00994371 0)
(0.1232 -0.00877474 0)
(0.128382 -0.00656373 0)
(0.132188 -0.00429297 0)
(0.135055 -0.00351305 0)
(0.138184 -0.00480653 0)
(0.142617 -0.00729892 0)
(0.148658 -0.00983714 0)
(0.155949 -0.0113506 0)
(0.163649 -0.0112276 0)
(0.170774 -0.00955297 0)
(0.176647 -0.00709247 0)
(0.181254 -0.00494682 0)
(0.185146 -0.0038908 0)
(0.188998 -0.00401096 0)
(0.193271 -0.00512878 0)
(0.198348 -0.00709553 0)
(0.20463 -0.00951885 0)
(0.212222 -0.0115585 0)
(0.220694 -0.0124328 0)
(0.229237 -0.0118248 0)
(0.237005 -0.0100029 0)
(0.243458 -0.00771904 0)
(0.248629 -0.00600517 0)
(0.253203 -0.00570547 0)
(0.25819 -0.00687131 0)
(0.26428 -0.00871552 0)
(0.271505 -0.0102867 0)
(0.279417 -0.0109892 0)
(0.287386 -0.0106811 0)
(0.294822 -0.0095959 0)
(0.301406 -0.00830951 0)
(0.307277 -0.00750962 0)
(0.312926 -0.00749162 0)
(0.318847 -0.0080781 0)
(0.325281 -0.00882656 0)
(0.332135 -0.00930186 0)
(0.339093 -0.00932407 0)
(0.345861 -0.00904345 0)
(0.35236 -0.00875644 0)
(0.358704 -0.00863428 0)
(0.365026 -0.00865297 0)
(0.371373 -0.00872725 0)
(0.377741 -0.00883079 0)
(0.384141 -0.00897928 0)
(0.390607 -0.00915772 0)
(0.397146 -0.00930338 0)
(0.403712 -0.00935775 0)
(0.410229 -0.00931495 0)
(0.416641 -0.00921921 0)
(0.422937 -0.00912108 0)
(0.429132 -0.00904381 0)
(0.43524 -0.00898714 0)
(0.441269 -0.00894833 0)
(0.447228 -0.00892961 0)
(0.453127 -0.00893048 0)
(0.458978 -0.00894082 0)
(0.46478 -0.00894345 0)
(0.470523 -0.00892244 0)
(0.476189 -0.00886936 0)
(0.481756 -0.00878253 0)
(0.487208 -0.00866302 0)
(0.49253 -0.00851066 0)
(0.497705 -0.00832373 0)
(0.502715 -0.00810004 0)
(0.507543 -0.00783869 0)
(0.512168 -0.00754028 0)
(0.516574 -0.00720719 0)
(0.520745 -0.00684306 0)
(0.524667 -0.00645297 0)
(0.528332 -0.00604282 0)
(0.531732 -0.00561936 0)
(0.534865 -0.00518942 0)
(0.537734 -0.00475982 0)
(0.540344 -0.00433679 0)
(0.542702 -0.00392593 0)
(0.54482 -0.00353183 0)
(0.546711 -0.00315826 0)
(0.54839 -0.00280788 0)
(0.549872 -0.00248253 0)
(0.551174 -0.00218315 0)
(0.552311 -0.00191003 0)
(0.5533 -0.00166279 0)
(0.554155 -0.00144065 0)
(0.554892 -0.00124238 0)
(0.555524 -0.00106658 0)
(0.556063 -0.000911606 0)
(0.556522 -0.000775797 0)
(0.55691 -0.000657396 0)
(0.557237 -0.000554722 0)
(0.557511 -0.000466105 0)
(0.55774 -0.000389997 0)
(0.557931 -0.000324918 0)
(0.558089 -0.000269532 0)
(0.558219 -0.00022259 0)
(0.558326 -0.000182986 0)
(0.558414 -0.000149707 0)
(0.558485 -0.000121871 0)
(0.558542 -9.86799e-05 0)
(0.558588 -7.94488e-05 0)
(0.558625 -6.35682e-05 0)
(0.558654 -5.05178e-05 0)
(0.558676 -3.98433e-05 0)
(0.558694 -3.11565e-05 0)
(0.558708 -2.41267e-05 0)
(0.558718 -1.84693e-05 0)
(0.558726 -1.39482e-05 0)
(0.558732 -1.03564e-05 0)
(0.558736 -7.52965e-06 0)
(0.558738 -5.31956e-06 0)
(0.55874 -3.61486e-06 0)
(0.558741 -2.31005e-06 0)
(0.558742 -1.33383e-06 0)
(0.558742 -6.11052e-07 0)
(0.558742 -9.37351e-08 0)
(0.558741 2.75989e-07 0)
(0.558741 5.22998e-07 0)
(0.55874 6.85164e-07 0)
(0.55874 7.72974e-07 0)
(0.558739 8.1442e-07 0)
(0.558738 8.12079e-07 0)
(0.558738 7.88268e-07 0)
(0.558737 7.40839e-07 0)
(0.558737 6.87485e-07 0)
(0.558736 6.22638e-07 0)
(0.558736 5.6132e-07 0)
(0.558735 4.95749e-07 0)
(0.558735 4.38131e-07 0)
(0.558735 3.79224e-07 0)
(0.558734 3.30034e-07 0)
(0.558734 2.80708e-07 0)
(0.558734 2.40725e-07 0)
(0.558734 2.00338e-07 0)
(0.558734 1.68798e-07 0)
(0.558733 1.36714e-07 0)
(0.558733 1.12418e-07 0)
(0.558733 8.71162e-08 0)
(0.558733 6.93957e-08 0)
(0.558733 5.07615e-08 0)
(0.558733 3.88676e-08 0)
(0.558733 2.54416e-08 0)
(0.558733 1.8207e-08 0)
(0.558733 9.01352e-09 0)
(0.558733 4.58203e-09 0)
(0.558733 -2.70671e-09 0)
(0.558733 -6.11118e-09 0)
(0.558733 -1.25842e-08 0)
(0.558733 -1.61434e-08 0)
(0.558733 -2.28232e-08 0)
(0.558733 -2.63844e-08 0)
(0.558733 -3.23057e-08 0)
(0.558733 -3.51702e-08 0)
(0.558733 -4.01507e-08 0)
(0.558733 -4.1815e-08 0)
(0.558733 -4.52802e-08 0)
(0.558733 -4.60239e-08 0)
(0.558733 -4.89085e-08 0)
(0.558733 -4.93642e-08 0)
(0.558733 -5.1944e-08 0)
(0.558733 -5.26365e-08 0)
(0.558733 -5.54732e-08 0)
(0.558733 -5.60524e-08 0)
(0.558733 -5.82134e-08 0)
(0.558733 -5.802e-08 0)
(0.558733 -5.92744e-08 0)
(0.558733 -5.77485e-08 0)
(0.558733 -5.74462e-08 0)
(0.558733 -5.46416e-08 0)
(0.558733 -5.34768e-08 0)
(0.558733 -5.0026e-08 0)
(0.558733 -4.84832e-08 0)
(0.558733 -4.52912e-08 0)
(0.558733 -4.44564e-08 0)
(0.558733 -4.21314e-08 0)
(0.558733 -4.22681e-08 0)
(0.558733 -4.12974e-08 0)
(0.558733 -4.31458e-08 0)
(0.558733 -4.35282e-08 0)
(0.558733 -4.69788e-08 0)
(0.558733 -4.92798e-08 0)
(0.558733 -5.51295e-08 0)
(0.558733 -5.97434e-08 0)
(0.558733 -6.92061e-08 0)
(0.558733 -7.8991e-08 0)
(0.558733 -9.66756e-08 0)
(0.558733 -1.1426e-07 0)
(0.558733 -1.38607e-07 0)
(0.558733 -1.5709e-07 0)
(0.558733 -1.52686e-07 0)
(0.558734 -1.53786e-07 0)
(2.10978 0.475542 0)
(0.981895 0.873605 0)
(0.838819 0.990984 0)
(0.807107 0.597056 0)
(0.488714 0.1418 0)
(0.39276 0.112356 0)
(0.112361 0.020416 0)
(0.0418662 0.00364577 0)
(0.0180549 -0.00130551 0)
(0.0172366 -0.00311155 0)
(0.0216922 -0.00367001 0)
(0.0241506 -0.00209491 0)
(0.0254292 0.000998094 0)
(0.0286067 0.00199643 0)
(0.029433 0.000447708 0)
(0.0269535 -0.000703142 0)
(0.0252194 -0.000294654 0)
(0.0282356 0.00336809 0)
(0.0307693 -0.000101452 0)
(0.0320292 -0.00683863 0)
(0.0332379 -0.00872655 0)
(0.034545 -0.00483984 0)
(0.0351188 -0.000680411 0)
(0.0351115 0.000739312 0)
(0.0354457 0.000572117 0)
(0.0365669 -0.000519512 0)
(0.0384521 -0.00227957 0)
(0.040648 -0.00331598 0)
(0.0425943 -0.00356473 0)
(0.0443025 -0.00445738 0)
(0.0464761 -0.00657191 0)
(0.0493963 -0.00852477 0)
(0.0525618 -0.00903216 0)
(0.055457 -0.00832661 0)
(0.0580007 -0.00693668 0)
(0.0601938 -0.00509496 0)
(0.0619789 -0.00352453 0)
(0.0635777 -0.00282564 0)
(0.0655482 -0.00340446 0)
(0.0684104 -0.00525849 0)
(0.0719295 -0.00730128 0)
(0.0757225 -0.00964071 0)
(0.0798297 -0.011319 0)
(0.0842412 -0.0104644 0)
(0.0878145 -0.00788308 0)
(0.0898393 -0.0058351 0)
(0.0907399 -0.00632898 0)
(0.0925881 -0.0112815 0)
(0.0974872 -0.0182719 0)
(0.105089 -0.0217777 0)
(0.112509 -0.0189038 0)
(0.117433 -0.013562 0)
(0.120407 -0.00960559 0)
(0.123776 -0.00826783 0)
(0.128537 -0.00740179 0)
(0.133067 -0.00678557 0)
(0.136991 -0.00981164 0)
(0.142171 -0.0167017 0)
(0.149712 -0.0235159 0)
(0.158509 -0.026507 0)
(0.167397 -0.0263524 0)
(0.176072 -0.0239864 0)
(0.183796 -0.0189692 0)
(0.189449 -0.0137332 0)
(0.193705 -0.0125331 0)
(0.19876 -0.0165741 0)
(0.205975 -0.0229057 0)
(0.215134 -0.0288669 0)
(0.225865 -0.0320978 0)
(0.237219 -0.0313911 0)
(0.247695 -0.0271307 0)
(0.256362 -0.0216542 0)
(0.263742 -0.0178553 0)
(0.27093 -0.0170945 0)
(0.278774 -0.0185322 0)
(0.287043 -0.0209286 0)
(0.295503 -0.024364 0)
(0.30508 -0.0292175 0)
(0.316709 -0.0337234 0)
(0.329939 -0.0356717 0)
(0.343401 -0.0339892 0)
(0.355611 -0.0294297 0)
(0.36573 -0.0239349 0)
(0.373816 -0.02002 0)
(0.380941 -0.0194741 0)
(0.388973 -0.0224364 0)
(0.39924 -0.0270189 0)
(0.411565 -0.0307562 0)
(0.425007 -0.0322989 0)
(0.438459 -0.0313623 0)
(0.45086 -0.0283342 0)
(0.461513 -0.0246356 0)
(0.470796 -0.022401 0)
(0.479868 -0.022417 0)
(0.489741 -0.0240894 0)
(0.500832 -0.0262272 0)
(0.512829 -0.0275094 0)
(0.524866 -0.0273231 0)
(0.53619 -0.0262249 0)
(0.54674 -0.0252865 0)
(0.557012 -0.0250261 0)
(0.567417 -0.0251799 0)
(0.577951 -0.0253472 0)
(0.588439 -0.0254746 0)
(0.598855 -0.025723 0)
(0.609328 -0.0261036 0)
(0.619932 -0.0263987 0)
(0.630564 -0.0263914 0)
(0.641023 -0.0260685 0)
(0.651181 -0.0256016 0)
(0.66105 -0.0251673 0)
(0.670701 -0.0248126 0)
(0.68017 -0.0244975 0)
(0.689445 -0.024202 0)
(0.698521 -0.0239467 0)
(0.707422 -0.0237481 0)
(0.71618 -0.0235826 0)
(0.72481 -0.0233993 0)
(0.733289 -0.023153 0)
(0.741583 -0.022825 0)
(0.749658 -0.0224198 0)
(0.757497 -0.0219475 0)
(0.76509 -0.0214109 0)
(0.772425 -0.0208045 0)
(0.779487 -0.0201217 0)
(0.786254 -0.0193594 0)
(0.792706 -0.0185195 0)
(0.798821 -0.0176082 0)
(0.804583 -0.0166345 0)
(0.809978 -0.0156105 0)
(0.814993 -0.0145505 0)
(0.819626 -0.0134703 0)
(0.823875 -0.0123861 0)
(0.827747 -0.0113135 0)
(0.831251 -0.0102667 0)
(0.834402 -0.00925818 0)
(0.837219 -0.00829788 0)
(0.839722 -0.00739357 0)
(0.841933 -0.00655063 0)
(0.843877 -0.00577227 0)
(0.845575 -0.00505983 0)
(0.847053 -0.00441298 0)
(0.848331 -0.00383013 0)
(0.849433 -0.00330861 0)
(0.850377 -0.00284504 0)
(0.851184 -0.00243552 0)
(0.851869 -0.00207585 0)
(0.852449 -0.00176168 0)
(0.852938 -0.00148872 0)
(0.853349 -0.00125272 0)
(0.853692 -0.00104967 0)
(0.853977 -0.000875774 0)
(0.854213 -0.000727523 0)
(0.854408 -0.000601681 0)
(0.854568 -0.000495335 0)
(0.854699 -0.000405842 0)
(0.854805 -0.000330861 0)
(0.85489 -0.000268304 0)
(0.854959 -0.000216344 0)
(0.855014 -0.000173374 0)
(0.855058 -0.000138006 0)
(0.855092 -0.000109029 0)
(0.855118 -8.54121e-05 0)
(0.855139 -6.62622e-05 0)
(0.855154 -5.08265e-05 0)
(0.855166 -3.84585e-05 0)
(0.855174 -2.86186e-05 0)
(0.85518 -2.08471e-05 0)
(0.855184 -1.47638e-05 0)
(0.855187 -1.00465e-05 0)
(0.855189 -6.43261e-06 0)
(0.855189 -3.70184e-06 0)
(0.855189 -1.67624e-06 0)
(0.855189 -2.02616e-07 0)
(0.855188 8.43212e-07 0)
(0.855188 1.56064e-06 0)
(0.855187 2.02416e-06 0)
(0.855186 2.29565e-06 0)
(0.855185 2.42066e-06 0)
(0.855184 2.43866e-06 0)
(0.855183 2.37846e-06 0)
(0.855182 2.26551e-06 0)
(0.855181 2.11695e-06 0)
(0.85518 1.94812e-06 0)
(0.855179 1.76954e-06 0)
(0.855179 1.59016e-06 0)
(0.855178 1.4151e-06 0)
(0.855178 1.24843e-06 0)
(0.855177 1.09283e-06 0)
(0.855177 9.49802e-07 0)
(0.855176 8.19651e-07 0)
(0.855176 7.01958e-07 0)
(0.855176 5.96922e-07 0)
(0.855176 5.03518e-07 0)
(0.855176 4.21219e-07 0)
(0.855175 3.48435e-07 0)
(0.855175 2.854e-07 0)
(0.855175 2.30814e-07 0)
(0.855175 1.84235e-07 0)
(0.855175 1.4431e-07 0)
(0.855175 1.10853e-07 0)
(0.855175 8.30875e-08 0)
(0.855175 5.97397e-08 0)
(0.855175 4.0144e-08 0)
(0.855175 2.33383e-08 0)
(0.855175 9.23271e-09 0)
(0.855175 -3.58388e-09 0)
(0.855175 -1.50588e-08 0)
(0.855175 -2.56455e-08 0)
(0.855175 -3.48006e-08 0)
(0.855175 -4.32564e-08 0)
(0.855175 -5.05444e-08 0)
(0.855175 -5.69289e-08 0)
(0.855175 -6.17047e-08 0)
(0.855175 -6.59853e-08 0)
(0.855175 -6.92167e-08 0)
(0.855175 -7.22607e-08 0)
(0.855175 -7.43278e-08 0)
(0.855175 -7.67651e-08 0)
(0.855175 -7.88465e-08 0)
(0.855175 -8.11162e-08 0)
(0.855175 -8.27146e-08 0)
(0.855175 -8.43334e-08 0)
(0.855175 -8.54422e-08 0)
(0.855175 -8.60208e-08 0)
(0.855175 -8.56962e-08 0)
(0.855175 -8.49017e-08 0)
(0.855175 -8.36925e-08 0)
(0.855175 -8.20563e-08 0)
(0.855175 -8.01358e-08 0)
(0.855175 -7.8359e-08 0)
(0.855175 -7.71081e-08 0)
(0.855175 -7.61849e-08 0)
(0.855175 -7.59889e-08 0)
(0.855175 -7.65644e-08 0)
(0.855175 -7.84955e-08 0)
(0.855175 -8.11893e-08 0)
(0.855175 -8.51115e-08 0)
(0.855175 -9.02671e-08 0)
(0.855175 -9.7212e-08 0)
(0.855175 -1.05822e-07 0)
(0.855175 -1.16138e-07 0)
(0.855175 -1.29247e-07 0)
(0.855175 -1.45755e-07 0)
(0.855175 -1.66651e-07 0)
(0.855175 -1.91955e-07 0)
(0.855175 -2.22279e-07 0)
(0.855175 -2.53954e-07 0)
(0.855175 -2.74777e-07 0)
(0.855175 -2.8882e-07 0)
(2.48566 0.354906 0)
(1.52858 0.709003 0)
(1.40864 0.893726 0)
(1.61084 0.88519 0)
(1.69703 0.838467 0)
(1.6472 0.749099 0)
(1.55248 0.613645 0)
(1.44833 0.360054 0)
(1.32771 0.108501 0)
(1.19951 -0.00127963 0)
(1.08584 -0.0085063 0)
(0.985951 0.00877247 0)
(0.928644 0.0238139 0)
(0.715008 0.0279332 0)
(0.517412 0.025573 0)
(0.51186 0.0280783 0)
(0.484007 0.0283896 0)
(0.181164 0.0162429 0)
(0.088021 -0.000568726 0)
(0.0479951 -0.0110055 0)
(0.0269236 -0.0128569 0)
(0.0207372 -0.00574712 0)
(0.0259236 -0.000409141 0)
(0.0326105 7.54145e-05 0)
(0.0367967 -0.000471367 0)
(0.0399336 -0.00165503 0)
(0.0416918 -0.00431072 0)
(0.0422831 -0.00534519 0)
(0.0440677 -0.0045111 0)
(0.0476286 -0.00481293 0)
(0.05078 -0.00793607 0)
(0.0519921 -0.0106486 0)
(0.0525078 -0.0103924 0)
(0.0535941 -0.00920196 0)
(0.0550657 -0.00813913 0)
(0.0571849 -0.00594104 0)
(0.0602869 -0.00452595 0)
(0.0642041 -0.00408875 0)
(0.0689524 -0.00498837 0)
(0.0734564 -0.00896147 0)
(0.078792 -0.00823367 0)
(0.0877694 -0.0126144 0)
(0.0901331 -0.0188153 0)
(0.0896313 -0.0182872 0)
(0.0898422 -0.0123794 0)
(0.0921788 -0.00700381 0)
(0.09724 -0.00568072 0)
(0.104399 -0.017445 0)
(0.110383 -0.0295245 0)
(0.115738 -0.0349518 0)
(0.12062 -0.0298791 0)
(0.124173 -0.0199028 0)
(0.126544 -0.0117104 0)
(0.129803 -0.0144231 0)
(0.136169 -0.0162244 0)
(0.146108 -0.0116867 0)
(0.159525 -0.0162413 0)
(0.170793 -0.0281177 0)
(0.179355 -0.0369679 0)
(0.186861 -0.0404249 0)
(0.193685 -0.04035 0)
(0.200687 -0.0386345 0)
(0.208749 -0.0325986 0)
(0.217037 -0.0223853 0)
(0.225369 -0.0190318 0)
(0.237229 -0.0265198 0)
(0.248788 -0.0358582 0)
(0.2584 -0.0457214 0)
(0.267978 -0.0524906 0)
(0.278161 -0.0525342 0)
(0.287342 -0.0465591 0)
(0.296029 -0.0379174 0)
(0.305996 -0.031413 0)
(0.318998 -0.0303441 0)
(0.335566 -0.0318297 0)
(0.351837 -0.0341315 0)
(0.364487 -0.0404618 0)
(0.374518 -0.0513254 0)
(0.38634 -0.0617265 0)
(0.400909 -0.0667067 0)
(0.415949 -0.0634826 0)
(0.429307 -0.0550795 0)
(0.44121 -0.0446926 0)
(0.453482 -0.0361986 0)
(0.467406 -0.0364807 0)
(0.480747 -0.0461986 0)
(0.495163 -0.0575163 0)
(0.511304 -0.064866 0)
(0.528547 -0.0668954 0)
(0.545996 -0.0644065 0)
(0.562288 -0.0576159 0)
(0.57631 -0.0498837 0)
(0.589169 -0.0472742 0)
(0.602387 -0.049538 0)
(0.616754 -0.0537305 0)
(0.632759 -0.0579519 0)
(0.650476 -0.0598439 0)
(0.668135 -0.0577971 0)
(0.683964 -0.0538373 0)
(0.698061 -0.0511839 0)
(0.712011 -0.0508131 0)
(0.726867 -0.0512424 0)
(0.742207 -0.0510386 0)
(0.757239 -0.0503682 0)
(0.771822 -0.0502149 0)
(0.78647 -0.0507833 0)
(0.801527 -0.0513717 0)
(0.81673 -0.0511931 0)
(0.831503 -0.0501449 0)
(0.845534 -0.0488117 0)
(0.858988 -0.0477683 0)
(0.872173 -0.0470359 0)
(0.885152 -0.0463308 0)
(0.897786 -0.045538 0)
(0.909982 -0.0447846 0)
(0.921801 -0.0441876 0)
(0.933364 -0.0437035 0)
(0.944722 -0.0431767 0)
(0.955827 -0.0424836 0)
(0.966587 -0.0416048 0)
(0.976943 -0.0405908 0)
(0.986885 -0.0394953 0)
(0.996435 -0.038332 0)
(1.00561 -0.0370824 0)
(1.01439 -0.0357227 0)
(1.02277 -0.0342423 0)
(1.03071 -0.0326432 0)
(1.03821 -0.0309345 0)
(1.04524 -0.0291302 0)
(1.05179 -0.0272497 0)
(1.05786 -0.0253178 0)
(1.06343 -0.0233622 0)
(1.06851 -0.0214114 0)
(1.07311 -0.0194928 0)
(1.07726 -0.0176309 0)
(1.08096 -0.0158466 0)
(1.08425 -0.0141567 0)
(1.08716 -0.0125733 0)
(1.08971 -0.0111046 0)
(1.09194 -0.00975479 0)
(1.09387 -0.00852483 0)
(1.09555 -0.00741289 0)
(1.09699 -0.00641508 0)
(1.09822 -0.00552575 0)
(1.09928 -0.00473823 0)
(1.10017 -0.00404501 0)
(1.10093 -0.00343827 0)
(1.10156 -0.00291005 0)
(1.1021 -0.00245256 0)
(1.10254 -0.00205822 0)
(1.10291 -0.00171996 0)
(1.10322 -0.00143108 0)
(1.10347 -0.0011855 0)
(1.10368 -0.000977617 0)
(1.10385 -0.000802412 0)
(1.10398 -0.000655367 0)
(1.10409 -0.000532497 0)
(1.10418 -0.000430261 0)
(1.10425 -0.000345578 0)
(1.10431 -0.000275744 0)
(1.10435 -0.000218432 0)
(1.10439 -0.000171621 0)
(1.10441 -0.000133593 0)
(1.10443 -0.000102865 0)
(1.10445 -7.81896e-05 0)
(1.10446 -5.85002e-05 0)
(1.10447 -4.29077e-05 0)
(1.10447 -3.06564e-05 0)
(1.10448 -2.1123e-05 0)
(1.10448 -1.37819e-05 0)
(1.10448 -8.2044e-06 0)
(1.10448 -4.03173e-06 0)
(1.10448 -9.72149e-07 0)
(1.10448 1.22194e-06 0)
(1.10448 2.74436e-06 0)
(1.10448 3.75092e-06 0)
(1.10447 4.36037e-06 0)
(1.10447 4.67201e-06 0)
(1.10447 4.76013e-06 0)
(1.10447 4.6879e-06 0)
(1.10447 4.50137e-06 0)
(1.10447 4.23978e-06 0)
(1.10447 3.93064e-06 0)
(1.10447 3.59721e-06 0)
(1.10446 3.25554e-06 0)
(1.10446 2.91817e-06 0)
(1.10446 2.59336e-06 0)
(1.10446 2.28671e-06 0)
(1.10446 2.00219e-06 0)
(1.10446 1.74101e-06 0)
(1.10446 1.50438e-06 0)
(1.10446 1.29095e-06 0)
(1.10446 1.10107e-06 0)
(1.10446 9.32144e-07 0)
(1.10446 7.8392e-07 0)
(1.10446 6.53431e-07 0)
(1.10446 5.40615e-07 0)
(1.10446 4.42658e-07 0)
(1.10446 3.58998e-07 0)
(1.10446 2.87339e-07 0)
(1.10446 2.26933e-07 0)
(1.10446 1.76006e-07 0)
(1.10446 1.33132e-07 0)
(1.10446 9.70532e-08 0)
(1.10446 6.645e-08 0)
(1.10446 4.05265e-08 0)
(1.10446 1.80267e-08 0)
(1.10446 -1.42509e-09 0)
(1.10446 -1.83988e-08 0)
(1.10446 -3.29376e-08 0)
(1.10446 -4.56074e-08 0)
(1.10446 -5.61768e-08 0)
(1.10446 -6.51119e-08 0)
(1.10446 -7.20607e-08 0)
(1.10446 -7.80437e-08 0)
(1.10446 -8.25872e-08 0)
(1.10446 -8.67271e-08 0)
(1.10446 -8.98563e-08 0)
(1.10446 -9.313e-08 0)
(1.10446 -9.58391e-08 0)
(1.10446 -9.86299e-08 0)
(1.10446 -1.00831e-07 0)
(1.10446 -1.02963e-07 0)
(1.10446 -1.04516e-07 0)
(1.10446 -1.05564e-07 0)
(1.10446 -1.05968e-07 0)
(1.10446 -1.05883e-07 0)
(1.10446 -1.05545e-07 0)
(1.10446 -1.0478e-07 0)
(1.10446 -1.04205e-07 0)
(1.10446 -1.03622e-07 0)
(1.10446 -1.03946e-07 0)
(1.10446 -1.04497e-07 0)
(1.10446 -1.06394e-07 0)
(1.10446 -1.08873e-07 0)
(1.10446 -1.13103e-07 0)
(1.10446 -1.18027e-07 0)
(1.10446 -1.24746e-07 0)
(1.10446 -1.32683e-07 0)
(1.10446 -1.42581e-07 0)
(1.10446 -1.54263e-07 0)
(1.10446 -1.68029e-07 0)
(1.10446 -1.84698e-07 0)
(1.10446 -2.04282e-07 0)
(1.10446 -2.28081e-07 0)
(1.10446 -2.55694e-07 0)
(1.10446 -2.88377e-07 0)
(1.10446 -3.23472e-07 0)
(1.10446 -3.54532e-07 0)
(1.10446 -3.7626e-07 0)
(2.67168 0.197668 0)
(1.75645 0.425311 0)
(1.53549 0.557616 0)
(1.70883 0.587996 0)
(1.85701 0.566582 0)
(1.9175 0.525697 0)
(1.9387 0.469665 0)
(1.94585 0.401308 0)
(1.93609 0.34519 0)
(1.89958 0.317275 0)
(1.8464 0.312852 0)
(1.79658 0.326379 0)
(1.76369 0.355838 0)
(1.73889 0.383438 0)
(1.71505 0.379868 0)
(1.68961 0.364593 0)
(1.66671 0.374591 0)
(1.64494 0.392831 0)
(1.62905 0.330424 0)
(1.59517 0.17821 0)
(1.53949 0.0566516 0)
(1.4841 0.00116048 0)
(1.44365 -0.0167171 0)
(1.4158 -0.019078 0)
(1.39359 -0.0172745 0)
(1.37297 -0.016226 0)
(1.3524 -0.0167101 0)
(1.33129 -0.0177937 0)
(1.30904 -0.0191406 0)
(1.28488 -0.0205931 0)
(1.25811 -0.0223448 0)
(1.22803 -0.0225642 0)
(1.19366 -0.0196657 0)
(1.15342 -0.0157209 0)
(1.10555 -0.0121869 0)
(1.04823 -0.00774925 0)
(0.978818 -0.00388234 0)
(0.893581 -0.000375799 0)
(0.788011 0.00401748 0)
(0.653521 0.00835119 0)
(0.621287 0.0206688 0)
(0.228155 -0.00260249 0)
(0.148424 -0.0207524 0)
(0.101166 -0.0249914 0)
(0.0714013 -0.0256661 0)
(0.0693068 -0.0283249 0)
(0.0930416 -0.0167622 0)
(0.121698 -0.0232832 0)
(0.126171 -0.0313275 0)
(0.116777 -0.039216 0)
(0.107545 -0.0295755 0)
(0.109177 -0.020096 0)
(0.124542 -0.01197 0)
(0.13897 -0.0257562 0)
(0.141325 -0.0348915 0)
(0.153706 -0.030265 0)
(0.176005 -0.0274758 0)
(0.190445 -0.0365771 0)
(0.191427 -0.0415471 0)
(0.190711 -0.041989 0)
(0.192499 -0.0392134 0)
(0.193664 -0.0420434 0)
(0.193768 -0.0385718 0)
(0.206509 -0.02448 0)
(0.232692 -0.0245619 0)
(0.255388 -0.0409475 0)
(0.271274 -0.0402799 0)
(0.283558 -0.0545615 0)
(0.285204 -0.0663145 0)
(0.282463 -0.065981 0)
(0.277994 -0.0534828 0)
(0.279855 -0.0377976 0)
(0.298093 -0.0338225 0)
(0.318573 -0.0386503 0)
(0.339343 -0.0454884 0)
(0.362154 -0.0440935 0)
(0.400499 -0.0483925 0)
(0.417182 -0.0679551 0)
(0.425436 -0.0813038 0)
(0.433181 -0.0883721 0)
(0.440559 -0.0852998 0)
(0.444948 -0.0763983 0)
(0.446883 -0.0602487 0)
(0.453004 -0.0451466 0)
(0.521977 -0.0476223 0)
(0.554517 -0.0656527 0)
(0.568405 -0.0795415 0)
(0.580033 -0.0898761 0)
(0.592181 -0.0948212 0)
(0.604799 -0.0943831 0)
(0.619155 -0.0872204 0)
(0.637734 -0.0735804 0)
(0.660613 -0.0674476 0)
(0.685662 -0.0697665 0)
(0.70734 -0.0787391 0)
(0.725839 -0.0912781 0)
(0.745081 -0.0985504 0)
(0.765213 -0.0942117 0)
(0.783832 -0.0852096 0)
(0.801496 -0.0817414 0)
(0.819975 -0.0854498 0)
(0.84031 -0.0899814 0)
(0.861146 -0.0904091 0)
(0.880977 -0.0884609 0)
(0.899671 -0.0882187 0)
(0.918445 -0.0895743 0)
(0.938075 -0.0904272 0)
(0.958365 -0.089164 0)
(0.977984 -0.0857257 0)
(0.996128 -0.0819227 0)
(1.01341 -0.0793941 0)
(1.03079 -0.0777792 0)
(1.04829 -0.0759176 0)
(1.06527 -0.0735635 0)
(1.0813 -0.0713475 0)
(1.09656 -0.0698085 0)
(1.11145 -0.0688486 0)
(1.12614 -0.0679599 0)
(1.14044 -0.0666733 0)
(1.1541 -0.0649223 0)
(1.16696 -0.0629378 0)
(1.17909 -0.0609186 0)
(1.19061 -0.058893 0)
(1.2016 -0.056776 0)
(1.21206 -0.0544999 0)
(1.22197 -0.0520503 0)
(1.23129 -0.0494438 0)
(1.24003 -0.0466992 0)
(1.24817 -0.0438332 0)
(1.2557 -0.0408701 0)
(1.26262 -0.0378453 0)
(1.26893 -0.034801 0)
(1.27464 -0.0317811 0)
(1.27977 -0.0288275 0)
(1.28434 -0.0259775 0)
(1.2884 -0.0232619 0)
(1.29197 -0.0207043 0)
(1.29509 -0.0183213 0)
(1.29782 -0.016123 0)
(1.30018 -0.0141131 0)
(1.30221 -0.0122911 0)
(1.30395 -0.010652 0)
(1.30544 -0.009188 0)
(1.30671 -0.007889 0)
(1.30778 -0.00674361 0)
(1.30868 -0.00573946 0)
(1.30944 -0.00486401 0)
(1.31008 -0.00410468 0)
(1.31061 -0.00344935 0)
(1.31105 -0.00288642 0)
(1.31141 -0.0024051 0)
(1.31171 -0.00199536 0)
(1.31195 -0.0016481 0)
(1.31215 -0.00135501 0)
(1.31231 -0.00110871 0)
(1.31244 -0.000902599 0)
(1.31255 -0.00073086 0)
(1.31263 -0.000588369 0)
(1.31269 -0.000470681 0)
(1.31275 -0.000373913 0)
(1.31279 -0.000294739 0)
(1.31282 -0.000230274 0)
(1.31284 -0.000178079 0)
(1.31286 -0.000136053 0)
(1.31287 -0.000102437 0)
(1.31288 -7.57252e-05 0)
(1.31288 -5.46724e-05 0)
(1.31289 -3.82187e-05 0)
(1.31289 -2.54951e-05 0)
(1.31289 -1.57682e-05 0)
(1.31289 -8.44308e-06 0)
(1.31289 -3.02065e-06 0)
(1.31289 9.03569e-07 0)
(1.31289 3.66772e-06 0)
(1.31289 5.5296e-06 0)
(1.31289 6.70223e-06 0)