/*--------------------------------*- C++ -*----------------------------------*\
| =========                 |                                                 |
| \\      /  F ield         | OpenFOAM: The Open Source CFD Toolbox           |
|  \\    /   O peration     | Version:  2406                                  |
|   \\  /    A nd           | Website:  www.openfoam.com                      |
|    \\/     M anipulation  |                                                 |
\*---------------------------------------------------------------------------*/
FoamFile
{
    version     2.0;
    format      ascii;
    arch        "LSB;label=32;scalar=64";
    class       surfaceScalarField;
    location    "0.5";
    object      phi;
}
// * * * * * * * * * * * * * * * * * * * * * * * * * * * * * * * * * * * * * //

dimensions      [0 3 -1 0 0 0 0];

oriented        oriented;

internalField   nonuniform List<scalar> 
4335
(
9.57303e-06
-7.32255e-12
9.57304e-06
-7.98791e-12
9.57304e-06
-9.75881e-12
9.57306e-06
-3.331e-12
9.57306e-06
-9.03854e-12
9.57307e-06
-5.83868e-12
9.57308e-06
-3.72062e-12
9.57308e-06
-7.0074e-12
9.57307e-06
-8.40919e-12
9.57308e-06
-1.02723e-12
9.57309e-06
5.29475e-12
9.57309e-06
3.53581e-12
9.57308e-06
-2.35155e-12
9.57307e-06
-4.25855e-12
9.57308e-06
-1.58945e-12
9.57308e-06
1.59835e-12
9.57309e-06
2.6614e-12
9.57308e-06
2.95938e-12
9.57308e-06
1.4727e-12
9.57308e-06
-9.5863e-13
9.57308e-06
-2.43949e-12
9.57308e-06
-3.56294e-12
9.57309e-06
-3.51576e-12
9.57309e-06
-1.57804e-12
9.57309e-06
6.07792e-13
9.57309e-06
1.43534e-12
9.57309e-06
9.84439e-13
9.57309e-06
5.96387e-13
9.57309e-06
8.28225e-13
9.57309e-06
1.2621e-12
9.5731e-06
1.24153e-12
9.5731e-06
7.16798e-13
9.5731e-06
1.62191e-13
9.5731e-06
-4.89321e-14
9.5731e-06
2.45345e-14
9.5731e-06
3.40186e-13
9.57311e-06
6.66203e-13
9.57311e-06
2.85622e-13
9.57311e-06
-6.91044e-13
9.57311e-06
-1.28831e-12
9.57311e-06
-9.64032e-13
9.57311e-06
-4.53236e-13
9.57311e-06
-4.56269e-13
9.57311e-06
-1.04694e-12
9.57311e-06
-1.43373e-12
9.5731e-06
-1.23468e-12
9.57311e-06
-8.46458e-13
9.57311e-06
-9.93653e-13
9.57311e-06
-1.52856e-12
9.57311e-06
-1.95204e-12
9.57311e-06
-1.86208e-12
9.57311e-06
-1.37385e-12
9.57311e-06
-6.10149e-13
9.57311e-06
-3.36013e-13
9.57312e-06
-8.37403e-13
9.57312e-06
-1.65489e-12
9.57312e-06
-1.88108e-12
9.57312e-06
-1.1692e-12
9.57312e-06
-1.94646e-13
9.57312e-06
7.29147e-13
9.57312e-06
1.79114e-12
9.57312e-06
3.43867e-12
9.57312e-06
5.12838e-12
9.57312e-06
5.79299e-12
9.57312e-06
4.72796e-12
9.57312e-06
2.69184e-12
9.57311e-06
1.05915e-12
9.57311e-06
8.6104e-13
9.57311e-06
1.97003e-12
9.57311e-06
3.21791e-12
9.5731e-06
3.50071e-12
9.5731e-06
2.69916e-12
9.5731e-06
1.96744e-12
9.57309e-06
2.10429e-12
9.57309e-06
2.85921e-12
9.57308e-06
3.08786e-12
9.57308e-06
2.09157e-12
9.57308e-06
6.70738e-13
9.57307e-06
-2.73541e-14
9.57307e-06
2.51132e-13
9.57307e-06
4.8952e-13
9.57307e-06
-5.12276e-13
9.57307e-06
-2.62373e-12
9.57307e-06
-4.41421e-12
9.57307e-06
-4.61402e-12
9.57307e-06
-3.21951e-12
9.57307e-06
-1.64432e-12
9.57307e-06
-1.30832e-12
9.57307e-06
-2.24564e-12
9.57307e-06
-3.14536e-12
9.57307e-06
-2.78272e-12
9.57307e-06
-1.4184e-12
9.57307e-06
-3.61337e-13
9.57307e-06
-5.34351e-13
9.57307e-06
-1.4382e-12
9.57307e-06
-1.85222e-12
9.57308e-06
-1.25835e-12
9.57308e-06
-3.25707e-13
9.57308e-06
-2.50423e-13
9.57308e-06
-1.26322e-12
9.57309e-06
-2.31563e-12
9.57309e-06
-2.091e-12
9.57309e-06
-4.63083e-13
9.57309e-06
1.26442e-12
9.57309e-06
1.77073e-12
9.57309e-06
1.07694e-12
9.57309e-06
4.26869e-13
9.57309e-06
8.97192e-13
9.57308e-06
2.22096e-12
9.57308e-06
3.19384e-12
9.57309e-06
2.9595e-12
9.57309e-06
1.81685e-12
9.57309e-06
8.33727e-13
9.57309e-06
7.71742e-13
9.57309e-06
1.28343e-12
9.57309e-06
1.36079e-12
9.57309e-06
6.7637e-13
9.57309e-06
1.15959e-13
9.57309e-06
5.10983e-13
9.57309e-06
1.41478e-12
9.57309e-06
1.70236e-12
9.57309e-06
6.43111e-13
9.57309e-06
-1.39654e-12
9.5731e-06
-3.18477e-12
9.5731e-06
-3.70662e-12
9.5731e-06
-2.90965e-12
9.5731e-06
-1.6051e-12
9.57311e-06
-9.69848e-13
9.57311e-06
-1.41534e-12
9.57311e-06
-2.03576e-12
9.57311e-06
-1.63707e-12
9.57311e-06
-4.40115e-13
9.57312e-06
3.69812e-13
9.57312e-06
9.88368e-13
9.57312e-06
1.75664e-12
9.57311e-06
2.31527e-12
9.57311e-06
2.72468e-12
9.57311e-06
3.49077e-12
9.57311e-06
4.1479e-12
9.5731e-06
4.4037e-12
9.5731e-06
4.75696e-12
9.5731e-06
5.13878e-12
9.5731e-06
5.54035e-12
9.5731e-06
6.30978e-12
9.5731e-06
6.54333e-12
9.5731e-06
5.45222e-12
9.57309e-06
5.35664e-12
9.57309e-06
7.05094e-12
9.57308e-06
7.38041e-12
5.00967e-12
2.61517e-05
-2.03526e-11
2.61517e-05
-1.77883e-11
2.61517e-05
-2.57488e-11
2.61517e-05
-1.89867e-11
2.61518e-05
-1.3072e-11
2.61518e-05
-1.10531e-11
2.61518e-05
-1.09241e-11
2.61518e-05
-4.05187e-12
2.61518e-05
1.97485e-12
2.61518e-05
4.25781e-12
2.61518e-05
2.63014e-12
2.61518e-05
-7.1002e-13
2.61518e-05
-1.02605e-12
2.61518e-05
1.22627e-12
2.61518e-05
4.07294e-12
2.61518e-05
6.01584e-12
2.61518e-05
5.70045e-12
2.61518e-05
3.49339e-12
2.61518e-05
1.22454e-12
2.61518e-05
-4.18017e-13
2.61518e-05
-1.20447e-12
2.61518e-05
-1.19442e-12
2.61518e-05
-6.57583e-13
2.61518e-05
1.17956e-13
2.61518e-05
1.09481e-13
2.61518e-05
-1.36266e-12
2.61518e-05
-3.565e-12
2.61518e-05
-5.40592e-12
2.61518e-05
-5.72998e-12
2.61518e-05
-4.16681e-12
2.61518e-05
-1.48406e-12
2.61518e-05
9.63702e-13
2.61518e-05
2.18674e-12
2.61518e-05
2.22044e-12
2.61518e-05
1.68645e-12
2.61518e-05
1.22955e-12
2.61518e-05
1.11539e-12
2.61518e-05
1.01721e-12
2.61518e-05
1.81769e-13
2.61518e-05
-7.90575e-13
2.61518e-05
-1.22716e-12
2.61518e-05
-8.68293e-13
2.61518e-05
-3.95685e-13
2.61518e-05
-5.61986e-13
2.61518e-05
-1.27103e-12
2.61518e-05
-1.50927e-12
2.61518e-05
-6.55648e-13
2.61518e-05
6.44668e-13
2.61518e-05
1.20893e-12
2.61518e-05
8.5073e-13
2.61518e-05
2.2513e-13
2.61518e-05
1.22503e-13
2.61518e-05
7.79606e-13
2.61518e-05
1.42463e-12
2.61518e-05
6.25282e-13
2.61518e-05
-2.03614e-12
2.61518e-05
-5.10838e-12
2.61518e-05
-6.481e-12
2.61518e-05
-5.2083e-12
2.61518e-05
-2.47013e-12
2.61518e-05
-2.11585e-13
2.61518e-05
7.83608e-13
2.61518e-05
1.25341e-12
2.61518e-05
2.10891e-12
2.61518e-05
3.15766e-12
2.61518e-05
3.56308e-12
2.61518e-05
2.57757e-12
2.61518e-05
1.08657e-12
2.61518e-05
5.76872e-13
2.61518e-05
1.94054e-12
2.61518e-05
4.37859e-12
2.61518e-05
6.05896e-12
2.61518e-05
5.84275e-12
2.61518e-05
4.49827e-12
2.61518e-05
3.67154e-12
2.61518e-05
4.08262e-12
2.61518e-05
4.69732e-12
2.61518e-05
4.10802e-12
2.61518e-05
2.27296e-12
2.61518e-05
6.56133e-13
2.61518e-05
7.17753e-13
2.61518e-05
2.28272e-12
2.61518e-05
3.67537e-12
2.61518e-05
3.53627e-12
2.61518e-05
2.16885e-12
2.61518e-05
9.50501e-13
2.61518e-05
1.21358e-12
2.61518e-05
2.39171e-12
2.61518e-05
2.72418e-12
2.61518e-05
1.38645e-12
2.61518e-05
-5.1047e-13
2.61518e-05
-1.15806e-12
2.61518e-05
-1.60474e-13
2.61518e-05
1.10301e-12
2.61518e-05
6.4483e-13
2.61518e-05
-1.59737e-12
2.61518e-05
-3.86879e-12
2.61518e-05
-4.20294e-12
2.61518e-05
-2.41958e-12
2.61518e-05
-1.53688e-13
2.61518e-05
6.47494e-13
2.61518e-05
-2.3009e-13
2.61518e-05
-1.20341e-12
2.61518e-05
-8.83219e-13
2.61518e-05
3.65795e-13
2.61518e-05
9.82853e-13
2.61518e-05
6.6143e-14
2.61518e-05
-1.50324e-12
2.61518e-05
-2.14007e-12
2.61518e-05
-1.28739e-12
2.61518e-05
7.23055e-14
2.61518e-05
2.22078e-13
2.61518e-05
-1.16331e-12
2.61518e-05
-2.89305e-12
2.61518e-05
-2.91852e-12
2.61518e-05
-9.28714e-13
2.61518e-05
1.30781e-12
2.61518e-05
2.1623e-12
2.61518e-05
1.21001e-12
2.61518e-05
-2.28829e-13
2.61518e-05
-1.17132e-12
2.61518e-05
-1.50277e-12
2.61518e-05
-2.01993e-12
2.61518e-05
-3.17365e-12
2.61518e-05
-4.36234e-12
2.61518e-05
-4.83809e-12
2.61518e-05
-4.32276e-12
2.61518e-05
-3.45578e-12
2.61518e-05
-3.48142e-12
2.61518e-05
-4.96885e-12
2.61518e-05
-6.37688e-12
2.61518e-05
-6.32102e-12
2.61518e-05
-5.37242e-12
2.61518e-05
-4.61788e-12
2.61518e-05
-4.18175e-12
2.61518e-05
-4.04425e-12
2.61518e-05
-4.05868e-12
2.61518e-05
-3.35773e-12
2.61518e-05
-1.99303e-12
2.61518e-05
-1.07089e-12
2.61518e-05
-6.6972e-13
2.61518e-05
-6.78521e-13
2.61518e-05
-1.14584e-12
2.61518e-05
-7.57538e-13
2.61518e-05
1.00322e-12
2.61518e-05
1.79599e-12
2.61518e-05
2.72285e-12
2.61518e-05
5.41531e-12
2.61518e-05
9.4706e-12
1.09257e-11
4.01686e-05
-1.95443e-11
4.01686e-05
-2.38128e-11
4.01686e-05
-2.22319e-11
4.01686e-05
-2.26642e-11
4.01686e-05
-1.95139e-11
4.01686e-05
-1.13919e-11
4.01686e-05
-5.34477e-12
4.01686e-05
-1.65615e-12
4.01686e-05
-5.90937e-13
4.01686e-05
-4.65026e-13
4.01686e-05
-9.39522e-13
4.01686e-05
-8.43426e-13
4.01686e-05
8.37009e-13
4.01686e-05
2.86661e-12
4.01686e-05
3.84503e-12
4.01686e-05
1.35789e-12
4.01686e-05
-1.1169e-12
4.01686e-05
-1.61493e-12
4.01686e-05
-1.77472e-12
4.01686e-05
-2.22123e-12
4.01686e-05
-1.90443e-12
4.01686e-05
-9.40562e-13
4.01686e-05
-5.80264e-13
4.01686e-05
-1.24575e-12
4.01686e-05
-2.48964e-12
4.01686e-05
-3.68369e-12
4.01686e-05
-4.13593e-12
4.01686e-05
-3.69906e-12
4.01686e-05
-2.71282e-12
4.01686e-05
-1.57053e-12
4.01686e-05
-6.17074e-13
4.01686e-05
-3.71765e-13
4.01686e-05
-9.87216e-13
4.01686e-05
-1.69269e-12
4.01686e-05
-1.738e-12
4.01686e-05
-1.23731e-12
4.01686e-05
-4.25856e-13
4.01686e-05
4.80502e-13
4.01686e-05
8.05045e-13
4.01686e-05
8.74414e-14
4.01686e-05
-1.18701e-12
4.01686e-05
-1.79678e-12
4.01686e-05
-1.11432e-12
4.01686e-05
1.76064e-13
4.01686e-05
5.02073e-13
4.01686e-05
-8.64192e-13
4.01686e-05
-2.97132e-12
4.01686e-05
-4.4753e-12
4.01686e-05
-5.0068e-12
4.01686e-05
-4.91405e-12
4.01686e-05
-4.7538e-12
4.01686e-05
-4.74841e-12
4.01686e-05
-4.46759e-12
4.01686e-05
-3.41943e-12
4.01686e-05
-2.00731e-12
4.01687e-05
-1.40206e-12
4.01687e-05
-2.35311e-12
4.01687e-05
-4.00568e-12
4.01687e-05
-4.45244e-12
4.01687e-05
-2.58371e-12
4.01687e-05
5.92913e-13
4.01687e-05
2.76052e-12
4.01687e-05
2.65302e-12
4.01687e-05
1.08267e-12
4.01687e-05
-1.07073e-13
4.01687e-05
1.52374e-13
4.01687e-05
1.3556e-12
4.01687e-05
2.2551e-12
4.01686e-05
2.40244e-12
4.01686e-05
2.52542e-12
4.01686e-05
3.61013e-12
4.01686e-05
5.54728e-12
4.01686e-05
6.85923e-12
4.01686e-05
6.25663e-12
4.01686e-05
4.20104e-12
4.01686e-05
2.52897e-12
4.01686e-05
2.52797e-12
4.01686e-05
3.50697e-12
4.01686e-05
3.54751e-12
4.01686e-05
1.63462e-12
4.01686e-05
-1.25845e-12
4.01686e-05
-3.24621e-12
4.01686e-05
-3.05051e-12
4.01686e-05
-1.50081e-12
4.01686e-05
-6.0457e-13
4.01686e-05
-1.03463e-12
4.01686e-05
-1.91399e-12
4.01686e-05
-1.64801e-12
4.01686e-05
-1.59564e-13
4.01686e-05
1.16328e-12
4.01686e-05
7.17848e-13
4.01686e-05
-1.25825e-12
4.01686e-05
-2.90667e-12
4.01686e-05
-2.74445e-12
4.01686e-05
-1.02248e-12
4.01686e-05
5.79826e-13
4.01686e-05
8.0676e-13
4.01686e-05
1.67081e-13
4.01686e-05
2.91998e-13
4.01686e-05
2.23885e-12
4.01686e-05
4.9771e-12
4.01686e-05
6.55155e-12
4.01686e-05
6.06266e-12
4.01686e-05
4.66336e-12
4.01686e-05
4.11291e-12
4.01686e-05
4.81472e-12
4.01686e-05
5.54966e-12
4.01686e-05
5.03948e-12
4.01686e-05
3.11412e-12
4.01686e-05
1.25535e-12
4.01686e-05
5.79096e-13
4.01686e-05
1.23963e-12
4.01686e-05
1.6816e-12
4.01686e-05
7.52333e-13
4.01686e-05
-1.05174e-12
4.01686e-05
-1.94193e-12
4.01686e-05
-1.11493e-12
4.01686e-05
6.1521e-13
4.01686e-05
1.40843e-12
4.01686e-05
6.79141e-13
4.01686e-05
-7.48352e-13
4.01686e-05
-1.60646e-12
4.01686e-05
-1.52784e-12
4.01686e-05
-1.16515e-12
4.01686e-05
-1.21959e-12
4.01686e-05
-1.858e-12
4.01686e-05
-2.72238e-12
4.01686e-05
-2.82986e-12
4.01686e-05
-1.99356e-12
4.01686e-05
-1.60918e-12
4.01687e-05
-2.55993e-12
4.01687e-05
-3.75136e-12
4.01687e-05
-3.88459e-12
4.01687e-05
-3.03507e-12
4.01686e-05
-1.60955e-12
4.01686e-05
-3.53997e-13
4.01686e-05
4.08207e-14
4.01686e-05
8.89964e-14
4.01686e-05
7.54419e-13
4.01686e-05
1.69926e-12
4.01686e-05
2.60802e-12
4.01686e-05
3.31546e-12
4.01686e-05
3.0794e-12
4.01686e-05
2.5732e-12
4.01686e-05
3.61669e-12
4.01686e-05
5.33624e-12
4.01686e-05
7.13168e-12
4.01686e-05
8.80094e-12
4.01686e-05
1.17815e-11
1.24996e-11
5.16289e-05
-1.26439e-11
5.16289e-05
-1.5652e-11
5.16289e-05
-1.85352e-11
5.16289e-05
-1.72963e-11
5.16289e-05
-1.02482e-11
5.16289e-05
-3.97727e-12
5.16289e-05
-3.01892e-14
5.16289e-05
2.30767e-12
5.16289e-05
3.74527e-12
5.16289e-05
5.89249e-12
5.16289e-05
6.42402e-12
5.16289e-05
6.89628e-12
5.16289e-05
6.65474e-12
5.16289e-05
6.25085e-12
5.16289e-05
4.62354e-12
5.16289e-05
3.22296e-12
5.16289e-05
2.01567e-12
5.16289e-05
6.99507e-14
5.16289e-05
-1.01551e-12
5.16289e-05
-1.06737e-12
5.16289e-05
-3.14045e-13
5.16289e-05
1.19635e-12
5.16289e-05
1.93477e-12
5.16289e-05
7.21148e-13
5.16289e-05
-1.81242e-12
5.16289e-05
-4.05812e-12
5.16289e-05
-4.99131e-12
5.16289e-05
-4.36134e-12
5.16289e-05
-3.54833e-12
5.16289e-05
-3.33333e-12
5.16289e-05
-3.56978e-12
5.16289e-05
-3.43332e-12
5.16289e-05
-2.72787e-12
5.16289e-05
-1.94333e-12
5.16289e-05
-1.40585e-12
5.16289e-05
-1.27225e-12
5.16289e-05
-1.44949e-12
5.16289e-05
-1.51292e-12
5.16289e-05
-1.04655e-12
5.16289e-05
-7.56405e-13
5.16289e-05
-1.17172e-12
5.16289e-05
-2.19183e-12
5.16289e-05
-3.01331e-12
5.16289e-05
-2.92477e-12
5.16289e-05
-2.33012e-12
5.16289e-05
-2.25079e-12
5.16289e-05
-2.99818e-12
5.16289e-05
-3.86369e-12
5.16289e-05
-3.97057e-12
5.16289e-05
-3.15262e-12
5.16289e-05
-1.89758e-12
5.16289e-05
-1.17855e-12
5.16289e-05
-1.55958e-12
5.16289e-05
-2.5112e-12
5.16289e-05
-3.09155e-12
5.16289e-05
-3.05579e-12
5.16289e-05
-2.88487e-12
5.16289e-05
-3.27602e-12
5.16289e-05
-4.1373e-12
5.16289e-05
-4.37684e-12
5.16289e-05
-3.15731e-12
5.16289e-05
-9.38884e-13
5.16289e-05
8.37562e-13
5.16289e-05
1.28608e-12
5.16289e-05
1.0047e-12
5.16289e-05
1.38303e-12
5.16289e-05
3.20865e-12
5.16289e-05
5.79241e-12
5.16289e-05
7.47644e-12
5.16289e-05
7.27885e-12
5.16289e-05
5.88871e-12
5.16289e-05
4.84096e-12
5.16289e-05
4.95169e-12
5.16289e-05
5.48834e-12
5.16289e-05
5.06251e-12
5.16289e-05
3.38604e-12
5.16289e-05
1.64933e-12
5.16289e-05
1.23531e-12
5.16289e-05
2.15509e-12
5.16289e-05
3.00218e-12
5.16289e-05
2.47801e-12
5.16289e-05
8.24742e-13
5.16289e-05
-5.35223e-13
5.16289e-05
-3.77252e-13
5.16289e-05
9.26523e-13
5.16289e-05
1.64726e-12
5.16289e-05
6.67739e-13
5.16289e-05
-1.34463e-12
5.16289e-05
-2.56552e-12
5.16289e-05
-2.02183e-12
5.16289e-05
-5.67934e-13
5.16289e-05
1.35363e-13
5.16289e-05
-5.48867e-13
5.16289e-05
-1.56499e-12
5.16289e-05
-1.37055e-12
5.16289e-05
4.01891e-13
5.16289e-05
2.55069e-12
5.16289e-05
3.58446e-12
5.16289e-05
3.13002e-12
5.16289e-05
2.37985e-12
5.16289e-05
2.6572e-12
5.16289e-05
3.74269e-12
5.16289e-05
4.19307e-12
5.16289e-05
3.10959e-12
5.16289e-05
1.11886e-12
5.16289e-05
-1.90323e-13
5.16289e-05
-4.36227e-14
5.16289e-05
8.53626e-13
5.16289e-05
1.09543e-12
5.16289e-05
-1.54334e-13
5.16289e-05
-2.15117e-12
5.16289e-05
-3.43265e-12
5.16289e-05
-3.0446e-12
5.16289e-05
-1.7877e-12
5.16289e-05
-9.92424e-13
5.16289e-05
-1.06501e-12
5.16289e-05
-9.09522e-13
5.16289e-05
2.90835e-13
5.16289e-05
2.11724e-12
5.16289e-05
3.41404e-12
5.16289e-05
3.41323e-12
5.16289e-05
2.57549e-12
5.16289e-05
1.8735e-12
5.16289e-05
1.6975e-12
5.16289e-05
1.90305e-12
5.16289e-05
1.9168e-12
5.16289e-05
1.08941e-12
5.16289e-05
-5.45474e-13
5.16289e-05
-1.79386e-12
5.16289e-05
-2.0147e-12
5.16289e-05
-2.06428e-12
5.16289e-05
-2.40166e-12
5.16289e-05
-2.63131e-12
5.16289e-05
-2.61703e-12
5.16289e-05
-2.46443e-12
5.16289e-05
-1.95313e-12
5.16289e-05
-1.47434e-12
5.16289e-05
-1.44095e-12
5.16289e-05
-1.19293e-12
5.16289e-05
-7.01917e-13
5.16289e-05
-3.66717e-13
5.16289e-05
3.54715e-13
5.16289e-05
1.68162e-12
5.16289e-05
2.16898e-12
5.16289e-05
3.64957e-12
5.16289e-05
7.34611e-12
5.16289e-05
1.06062e-11
5.16289e-05
1.26773e-11
5.16289e-05
1.40832e-11
1.32828e-11
6.05373e-05
-4.99841e-12
6.05373e-05
-8.50427e-12
6.05373e-05
-7.50396e-12
6.05373e-05
-3.45579e-12
6.05372e-05
1.56469e-12
6.05372e-05
6.76242e-12
6.05372e-05
1.01616e-11
6.05372e-05
1.0547e-11
6.05372e-05
1.0818e-11
6.05372e-05
1.16523e-11
6.05372e-05
1.28747e-11
6.05372e-05
1.52069e-11
6.05372e-05
1.45512e-11
6.05372e-05
1.15906e-11
6.05372e-05
9.20658e-12
6.05372e-05
7.77927e-12
6.05372e-05
5.70658e-12
6.05372e-05
3.18389e-12
6.05372e-05
2.31465e-12
6.05372e-05
3.40291e-12
6.05372e-05
4.61077e-12
6.05372e-05
4.82347e-12
6.05372e-05
3.83501e-12
6.05372e-05
1.7032e-12
6.05372e-05
-9.06328e-13
6.05372e-05
-3.38371e-12
6.05372e-05
-5.04849e-12
6.05372e-05
-5.39407e-12
6.05372e-05
-4.74341e-12
6.05372e-05
-4.16821e-12
6.05372e-05
-4.48964e-12
6.05372e-05
-5.17779e-12
6.05372e-05
-5.64882e-12
6.05372e-05
-5.40729e-12
6.05372e-05
-4.3786e-12
6.05372e-05
-3.10396e-12
6.05372e-05
-2.46981e-12
6.05372e-05
-2.65343e-12
6.05372e-05
-3.00557e-12
6.05372e-05
-2.74339e-12
6.05372e-05
-2.01146e-12
6.05372e-05
-1.73628e-12
6.05372e-05
-2.29949e-12
6.05372e-05
-3.16827e-12
6.05372e-05
-3.37149e-12
6.05372e-05
-2.6902e-12
6.05372e-05
-1.9505e-12
6.05372e-05
-1.88606e-12
6.05372e-05
-2.41155e-12
6.05372e-05
-2.62506e-12
6.05372e-05
-1.59357e-12
6.05372e-05
5.25504e-13
6.05372e-05
2.14086e-12
6.05372e-05
1.70619e-12
6.05372e-05
-7.14639e-13
6.05372e-05
-3.41825e-12
6.05372e-05
-4.51419e-12
6.05372e-05
-3.44935e-12
6.05372e-05
-1.34592e-12
6.05372e-05
3.20886e-13
6.05372e-05
1.10685e-12
6.05372e-05
1.52366e-12
6.05372e-05
1.96407e-12
6.05372e-05
2.30942e-12
6.05372e-05
2.25381e-12
6.05372e-05
1.92474e-12
6.05372e-05
2.15489e-12
6.05372e-05
3.73941e-12
6.05372e-05
6.06787e-12
6.05372e-05
7.48753e-12
6.05372e-05
6.77718e-12
6.05372e-05
4.18834e-12
6.05372e-05
1.63467e-12
6.05372e-05
8.81628e-13
6.05372e-05
1.96911e-12
6.05372e-05
3.38303e-12
6.05372e-05
3.71536e-12
6.05372e-05
2.91235e-12
6.05372e-05
2.12508e-12
6.05372e-05
2.21394e-12
6.05372e-05
2.74702e-12
6.05372e-05
2.54135e-12
6.05372e-05
1.11668e-12
6.05372e-05
-3.37822e-13
6.05372e-05
-5.46774e-13
6.05372e-05
6.26122e-13
6.05372e-05
1.93616e-12
6.05372e-05
1.75745e-12
6.05372e-05
-7.79241e-15
6.05372e-05
-2.03075e-12
6.05372e-05
-2.9123e-12
6.05372e-05
-2.63632e-12
6.05372e-05
-2.48629e-12
6.05372e-05
-3.52624e-12
6.05372e-05
-5.29322e-12
6.05372e-05
-6.15653e-12
6.05372e-05
-4.92319e-12
6.05372e-05
-2.20049e-12
6.05372e-05
1.05519e-13
6.05372e-05
6.67702e-13
6.05372e-05
-1.67921e-14
6.05372e-05
-5.15227e-13
6.05372e-05
-1.00738e-13
6.05372e-05
5.11363e-13
6.05372e-05
3.10162e-13
6.05372e-05
-8.09219e-13
6.05372e-05
-1.88565e-12
6.05372e-05
-1.9145e-12
6.05372e-05
-1.06641e-12
6.05372e-05
-4.58623e-13
6.05372e-05
-1.16095e-12
6.05372e-05
-2.89282e-12
6.05372e-05
-4.04652e-12
6.05372e-05
-3.26827e-12
6.05372e-05
-8.55969e-13
6.05372e-05
1.58654e-12
6.05372e-05
2.85099e-12
6.05372e-05
3.1827e-12
6.05372e-05
3.48505e-12
6.05372e-05
4.15209e-12
6.05372e-05
4.54011e-12
6.05372e-05
4.17338e-12
6.05372e-05
3.32412e-12
6.05372e-05
2.70916e-12
6.05372e-05
2.81674e-12
6.05372e-05
3.64507e-12
6.05372e-05
4.34943e-12
6.05372e-05
3.8025e-12
6.05372e-05
2.27432e-12
6.05372e-05
1.3469e-12
6.05372e-05
1.58097e-12
6.05372e-05
2.13683e-12
6.05372e-05
2.31367e-12
6.05372e-05
1.77978e-12
6.05372e-05
7.87257e-13
6.05372e-05
2.44696e-13
6.05372e-05
4.58338e-13
6.05372e-05
9.04973e-13
6.05372e-05
1.70754e-12
6.05372e-05
2.56794e-12
6.05372e-05
2.76765e-12
6.05372e-05
3.00257e-12
6.05372e-05
3.85551e-12
6.05372e-05
4.44333e-12
6.05372e-05
4.13991e-12
6.05372e-05
6.14813e-12
6.05372e-05
8.87404e-12
6.05372e-05
1.13519e-11
6.05372e-05
1.25957e-11
1.18463e-11
6.68976e-05
6.73099e-12
6.68975e-05
6.88755e-12
6.68975e-05
1.14191e-11
6.68975e-05
1.79194e-11
6.68975e-05
1.95563e-11
6.68975e-05
2.05525e-11
6.68974e-05
2.13764e-11
6.68974e-05
2.11426e-11
6.68974e-05
2.09015e-11
6.68974e-05
2.25968e-11
6.68974e-05
2.23458e-11
6.68974e-05
1.90699e-11
6.68974e-05
1.64418e-11
6.68974e-05
1.42484e-11
6.68974e-05
1.13042e-11
6.68974e-05
8.45213e-12
6.68974e-05
6.6838e-12
6.68974e-05
5.5407e-12
6.68974e-05
5.18338e-12
6.68974e-05
5.32526e-12
6.68974e-05
4.34347e-12
6.68974e-05
2.16332e-12
6.68974e-05
-9.0257e-14
6.68974e-05
-1.67514e-12
6.68974e-05
-2.39708e-12
6.68974e-05
-2.37989e-12
6.68974e-05
-1.88573e-12
6.68974e-05
-1.24796e-12
6.68974e-05
-9.48498e-13
6.68974e-05
-1.54318e-12
6.68974e-05
-3.24115e-12
6.68974e-05
-5.27002e-12
6.68974e-05
-6.45818e-12
6.68974e-05
-6.45624e-12
6.68974e-05
-5.66982e-12
6.68974e-05
-4.43137e-12
6.68974e-05
-3.04201e-12
6.68974e-05
-2.12185e-12
6.68974e-05
-1.78785e-12
6.68974e-05
-1.65746e-12
6.68974e-05
-1.28792e-12
6.68974e-05
-7.91574e-13
6.68974e-05
-7.7065e-13
6.68974e-05
-1.46822e-12
6.68974e-05
-2.41557e-12
6.68974e-05
-2.74692e-12
6.68974e-05
-2.19802e-12
6.68974e-05
-1.19826e-12
6.68974e-05
-5.31498e-13
6.68974e-05
-9.76441e-13
6.68974e-05
-1.97632e-12
6.68974e-05
-2.35173e-12
6.68974e-05
-1.53327e-12
6.68974e-05
4.16774e-14
6.68974e-05
1.16217e-12
6.68974e-05
8.76264e-13
6.68974e-05
-9.57807e-14
6.68974e-05
-6.60766e-13
6.68974e-05
-1.25213e-13
6.68974e-05
7.687e-13
6.68974e-05
1.16929e-12
6.68974e-05
7.02262e-13
6.68974e-05
1.7032e-13
6.68974e-05
4.63456e-13
6.68974e-05
1.89637e-12
6.68974e-05
3.51453e-12
6.68974e-05
4.25117e-12
6.68974e-05
3.92471e-12
6.68974e-05
3.33677e-12
6.68974e-05
3.42205e-12
6.68974e-05
4.1159e-12
6.68974e-05
4.46164e-12
6.68974e-05
3.69486e-12
6.68974e-05
2.2757e-12
6.68974e-05
1.34303e-12
6.68974e-05
1.65266e-12
6.68974e-05
2.46525e-12
6.68974e-05
2.66935e-12
6.68974e-05
1.86575e-12
6.68974e-05
4.88916e-13
6.68974e-05
-2.58228e-13
6.68974e-05
7.2291e-14
6.68974e-05
6.27982e-13
6.68974e-05
5.00892e-13
6.68974e-05
-6.03349e-13
6.68974e-05
-1.57463e-12
6.68974e-05
-1.62454e-12
6.68974e-05
-8.51856e-13
6.68974e-05
-2.82666e-13
6.68974e-05
-8.00054e-13
6.68974e-05
-2.19323e-12
6.68974e-05
-3.39272e-12
6.68974e-05
-3.53072e-12
6.68974e-05
-2.72692e-12
6.68974e-05
-1.9205e-12
6.68974e-05
-1.88569e-12
6.68974e-05
-2.24808e-12
6.68974e-05
-1.94656e-12
6.68974e-05
-8.28474e-13
6.68974e-05
2.76134e-13
6.68974e-05
3.9976e-13
6.68974e-05
-5.53272e-13
6.68974e-05
-1.69497e-12
6.68974e-05
-2.24836e-12
6.68974e-05
-2.02118e-12
6.68974e-05
-1.69707e-12
6.68974e-05
-1.98936e-12
6.68974e-05
-2.82024e-12
6.68974e-05
-3.27532e-12
6.68974e-05
-2.46934e-12
6.68974e-05
-5.67088e-13
6.68974e-05
1.22523e-12
6.68974e-05
1.90869e-12
6.68974e-05
1.64087e-12
6.68974e-05
1.25322e-12
6.68974e-05
1.18433e-12
6.68974e-05
1.21102e-12
6.68974e-05
9.30803e-13
6.68974e-05
7.46663e-13
6.68974e-05
1.22141e-12
6.68974e-05
2.42901e-12
6.68974e-05
3.77714e-12
6.68974e-05
4.74868e-12
6.68974e-05
4.9278e-12
6.68974e-05
4.11285e-12
6.68974e-05
3.03879e-12
6.68974e-05
2.72707e-12
6.68974e-05
3.00237e-12
6.68974e-05
2.68278e-12
6.68974e-05
1.58401e-12
6.68974e-05
6.58852e-13
6.68974e-05
4.04196e-13
6.68974e-05
6.65407e-13
6.68974e-05
8.28348e-13
6.68974e-05
4.53096e-13
6.68974e-05
-5.27307e-14
6.68974e-05
-1.09156e-13
6.68974e-05
1.4246e-13
6.68974e-05
6.44937e-13
6.68974e-05
1.54754e-12
6.68974e-05
1.85755e-12
6.68974e-05
1.38523e-12
6.68974e-05
2.01386e-12
6.68974e-05
4.57104e-12
6.68974e-05
5.67527e-12
6.68974e-05
6.00358e-12
6.68974e-05
6.75155e-12
6.68974e-05
7.76842e-12
6.68974e-05
9.01885e-12
9.69431e-12
7.07125e-05
2.23762e-11
7.07125e-05
2.70326e-11
7.07125e-05
3.10653e-11
7.07125e-05
3.59737e-11
7.07124e-05
3.45804e-11
7.07124e-05
3.40489e-11
7.07124e-05
3.33479e-11
7.07124e-05
3.40655e-11
7.07124e-05
3.26984e-11
7.07124e-05
3.09128e-11
7.07124e-05
2.57116e-11
7.07124e-05
1.99887e-11
7.07123e-05
1.63872e-11
7.07123e-05
1.45331e-11
7.07123e-05
1.33297e-11
7.07123e-05
1.11316e-11
7.07123e-05
8.07714e-12
7.07123e-05
4.7713e-12
7.07123e-05
1.89747e-12
7.07123e-05
6.15624e-13
7.07123e-05
9.6156e-13
7.07123e-05
1.84508e-12
7.07123e-05
2.12424e-12
7.07123e-05
1.54726e-12
7.07123e-05
8.75317e-13
7.07123e-05
8.24783e-13
7.07123e-05
1.0144e-12
7.07123e-05
5.29453e-13
7.07123e-05
-7.81501e-13
7.07123e-05
-2.07015e-12
7.07123e-05
-2.81013e-12
7.07123e-05
-2.74434e-12
7.07123e-05
-2.34934e-12
7.07123e-05
-2.26774e-12
7.07123e-05
-2.55388e-12
7.07123e-05
-2.5812e-12
7.07123e-05
-1.59211e-12
7.07123e-05
2.48892e-13
7.07123e-05
1.66637e-12
7.07123e-05
1.58106e-12
7.07123e-05
-1.40155e-13
7.07123e-05
-2.38216e-12
7.07123e-05
-4.06266e-12
7.07123e-05
-4.62468e-12
7.07123e-05
-4.2372e-12
7.07123e-05
-3.34526e-12
7.07123e-05
-2.597e-12
7.07123e-05
-2.17846e-12
7.07123e-05
-1.67708e-12
7.07123e-05
-6.67729e-13
7.07123e-05
7.53538e-13
7.07123e-05
2.02961e-12
7.07123e-05
2.66629e-12
7.07123e-05
2.53767e-12
7.07123e-05
1.91474e-12
7.07123e-05
1.20274e-12
7.07123e-05
5.82961e-13
7.07123e-05
1.21028e-13
7.07123e-05
-2.0128e-13
7.07123e-05
-2.41988e-13
7.07123e-05
-1.62969e-13
7.07123e-05
-7.40982e-15
7.07123e-05
2.48981e-13
7.07123e-05
7.08199e-13
7.07123e-05
1.52995e-12
7.07123e-05
2.75337e-12
7.07123e-05
4.07328e-12
7.07123e-05
4.81787e-12
7.07123e-05
4.6481e-12
7.07123e-05
3.47166e-12
7.07123e-05
1.97056e-12
7.07123e-05
9.33355e-13
7.07123e-05
4.36869e-13
7.07123e-05
3.17067e-13
7.07123e-05
2.32115e-13
7.07123e-05
1.43511e-14
7.07123e-05
-1.62407e-13
7.07123e-05
-1.78811e-13
7.07123e-05
-5.91111e-14
7.07123e-05
-1.38995e-13
7.07123e-05
-3.86238e-13
7.07123e-05
-5.44203e-13
7.07123e-05
-4.04963e-13
7.07123e-05
-1.99993e-14
7.07123e-05
1.72702e-13
7.07123e-05
-3.60311e-13
7.07123e-05
-1.19378e-12
7.07123e-05
-1.85889e-12
7.07123e-05
-1.57425e-12
7.07123e-05
-4.86283e-13
7.07123e-05
7.61661e-13
7.07123e-05
1.71531e-12
7.07123e-05
1.93338e-12
7.07123e-05
1.92065e-12
7.07123e-05
2.20414e-12
7.07123e-05
2.71927e-12
7.07123e-05
3.11591e-12
7.07123e-05
3.04368e-12
7.07123e-05
2.63865e-12
7.07123e-05
2.01784e-12
7.07123e-05
1.18129e-12
7.07123e-05
1.24779e-13
7.07124e-05
-1.19843e-12
7.07124e-05
-2.52651e-12
7.07124e-05
-3.40288e-12
7.07124e-05
-3.37243e-12
7.07124e-05
-2.41557e-12
7.07124e-05
-1.04792e-12
7.07124e-05
-1.78567e-13
7.07124e-05
-1.82502e-13
7.07124e-05
-5.85458e-13
7.07124e-05
-8.10305e-13
7.07124e-05
-9.60419e-13
7.07124e-05
-1.19976e-12
7.07124e-05
-1.5352e-12
7.07124e-05
-1.74732e-12
7.07124e-05
-1.58435e-12
7.07124e-05
-9.76798e-13
7.07124e-05
-8.65098e-14
7.07124e-05
1.11528e-12
7.07124e-05
2.35511e-12
7.07124e-05
3.16367e-12
7.07124e-05
3.68645e-12
7.07124e-05
4.29229e-12
7.07124e-05
4.63884e-12
7.07124e-05
3.92409e-12
7.07124e-05
2.36664e-12
7.07124e-05
1.10311e-12
7.07124e-05
6.64819e-13
7.07124e-05
8.1811e-13
7.07124e-05
9.32713e-13
7.07124e-05
8.06537e-13
7.07124e-05
2.17385e-13
7.07124e-05
-7.11379e-13
7.07124e-05
-1.60923e-12
7.07124e-05
-1.83948e-12
7.07124e-05
-1.4469e-12
7.07124e-05
-1.42794e-12
7.07123e-05
-2.37143e-12
7.07123e-05
-2.92581e-12
7.07123e-05
-1.77438e-12
7.07123e-05
-6.27997e-13
7.07123e-05
3.16287e-13
7.07123e-05
1.82828e-12
7.07123e-05
3.4253e-12
7.07123e-05
3.80745e-12
7.07123e-05
4.43059e-12
7.07123e-05
5.00006e-12
7.07123e-05
5.31128e-12
3.85513e-12
7.1984e-05
3.67038e-11
7.1984e-05
4.16806e-11
7.1984e-05
4.69968e-11
7.19839e-05
4.9944e-11
7.19839e-05
5.05026e-11
7.19839e-05
4.92794e-11
7.19839e-05
4.87444e-11
7.19839e-05
4.59202e-11
7.19839e-05
4.00019e-11
7.19839e-05
3.48508e-11
7.19839e-05
3.06917e-11
7.19839e-05
2.56069e-11
7.19838e-05
2.06519e-11
7.19838e-05
1.64551e-11
7.19838e-05
1.24578e-11
7.19838e-05
8.72343e-12
7.19838e-05
6.48143e-12
7.19838e-05
5.87654e-12
7.19838e-05
5.38672e-12
7.19838e-05
4.40749e-12
7.19838e-05
3.34814e-12
7.19838e-05
2.63786e-12
7.19838e-05
1.98166e-12
7.19838e-05
1.49157e-12
7.19838e-05
9.43288e-13
7.19838e-05
6.94005e-13
7.19838e-05
8.31492e-13
7.19838e-05
9.83875e-13
7.19838e-05
1.08297e-12
7.19838e-05
1.18318e-12
7.19838e-05
1.16241e-12
7.19838e-05
8.10754e-13
7.19838e-05
1.16491e-13
7.19838e-05
-2.94429e-13
7.19838e-05
-4.70701e-13
7.19838e-05
-5.61169e-13
7.19838e-05
-6.96968e-13
7.19838e-05
-8.24979e-13
7.19838e-05
-1.14074e-12
7.19838e-05
-1.84863e-12
7.19838e-05
-2.94801e-12
7.19838e-05
-4.02596e-12
7.19838e-05
-4.39949e-12
7.19838e-05
-3.70297e-12
7.19838e-05
-2.17658e-12
7.19838e-05
-4.46712e-13
7.19838e-05
8.25019e-13
7.19838e-05
1.25251e-12
7.19838e-05
1.17605e-12
7.19838e-05
1.07829e-12
7.19838e-05
1.18614e-12
7.19838e-05
1.32303e-12
7.19838e-05
1.22282e-12
7.19838e-05
7.90781e-13
7.19838e-05
1.55379e-13
7.19838e-05
-4.62901e-13
7.19838e-05
-8.03774e-13
7.19838e-05
-9.87713e-13
7.19838e-05
-8.79591e-13
7.19838e-05
-4.5206e-13
7.19838e-05
2.83039e-13
7.19838e-05
1.27511e-12
7.19838e-05
2.39767e-12
7.19838e-05
3.52775e-12
7.19838e-05
4.15314e-12
7.19838e-05
3.91394e-12
7.19838e-05
2.78954e-12
7.19838e-05
1.09886e-12
7.19838e-05
-6.08281e-13
7.19838e-05
-1.81921e-12
7.19838e-05
-2.52417e-12
7.19838e-05
-2.63769e-12
7.19838e-05
-2.44824e-12
7.19838e-05
-2.09975e-12
7.19838e-05
-1.56283e-12
7.19838e-05
-8.38902e-13
7.19838e-05
-2.42797e-13
7.19838e-05
5.86138e-14
7.19838e-05
-5.349e-14
7.19838e-05
-3.5891e-13
7.19838e-05
-6.8993e-13
7.19838e-05
-9.48647e-13
7.19838e-05
-1.16968e-12
7.19838e-05
-1.53875e-12
7.19838e-05
-2.04075e-12
7.19838e-05
-2.31492e-12
7.19838e-05
-2.06253e-12
7.19838e-05
-1.25767e-12
7.19838e-05
-2.66568e-13
7.19838e-05
4.7854e-13
7.19838e-05
1.03705e-12
7.19838e-05
1.47146e-12
7.19839e-05
1.97192e-12
7.19839e-05
2.6443e-12
7.19839e-05
3.22498e-12
7.19839e-05
3.51305e-12
7.19839e-05
3.3217e-12
7.19839e-05
2.76567e-12
7.19839e-05
2.13898e-12
7.19839e-05
1.59116e-12
7.19839e-05
9.79972e-13
7.19839e-05
3.04337e-13
7.19839e-05
-1.8364e-13
7.19839e-05
-1.60481e-13
7.19839e-05
2.57043e-13
7.19839e-05
4.79555e-13
7.19839e-05
1.08645e-13
7.19839e-05
-6.59637e-13
7.19839e-05
-1.35008e-12
7.19839e-05
-1.6197e-12
7.19839e-05
-1.39209e-12
7.19839e-05
-8.56237e-13
7.19839e-05
-3.91286e-13
7.19839e-05
-2.30122e-13
7.19839e-05
-3.1045e-13
7.19839e-05
-2.94089e-13
7.19839e-05
1.53131e-13
7.19839e-05
7.03271e-13
7.19839e-05
9.57906e-13
7.19839e-05
1.12937e-12
7.19839e-05
1.75852e-12
7.19839e-05
2.59431e-12
7.19839e-05
3.00507e-12
7.19839e-05
2.90576e-12
7.19839e-05
2.59409e-12
7.19839e-05
2.11669e-12
7.19839e-05
1.48188e-12
7.19839e-05
1.19383e-12
7.19839e-05
1.46656e-12
7.19839e-05
1.62561e-12
7.19839e-05
9.0678e-13
7.19839e-05
-5.55306e-13
7.19839e-05
-1.61564e-12
7.19839e-05
-1.5271e-12
7.19839e-05
-1.48428e-12
7.19839e-05
-2.37582e-12
7.19839e-05
-3.27874e-12
7.19839e-05
-3.40201e-12
7.19839e-05
-3.65922e-12
7.19838e-05
-3.5079e-12
7.19838e-05
-2.52472e-12
7.19838e-05
-8.64893e-13
7.19838e-05
1.73687e-13
7.19838e-05
1.99608e-13
7.19838e-05
3.59354e-13
7.19838e-05
1.00621e-12
7.19838e-05
1.66129e-12