/*--------------------------------*- C++ -*----------------------------------*\
| =========                 |                                                 |
| \\      /  F ield         | OpenFOAM: The Open Source CFD Toolbox           |
|  \\    /   O peration     | Version:  2406                                  |
|   \\  /    A nd           | Website:  www.openfoam.com                      |
|    \\/     M anipulation  |                                                 |
\*---------------------------------------------------------------------------*/
FoamFile
{
    version     2.0;
    format      ascii;
    arch        "LSB;label=32;scalar=64";
    class       volVectorField;
    location    "0.5";
    object      U;
}
// * * * * * * * * * * * * * * * * * * * * * * * * * * * * * * * * * * * * * //

dimensions      [0 1 -1 0 0 0 0];

internalField   nonuniform List<vector> 
2250
(
(0.143595 -5.49614e-08 0)
(0.143595 -5.82503e-08 0)
(0.143596 -7.2329e-08 0)
(0.143596 -3.30579e-08 0)
(0.143596 -6.9184e-08 0)
(0.143596 -4.44652e-08 0)
(0.143596 -2.55483e-08 0)
(0.143596 -4.53656e-08 0)
(0.143596 -5.81538e-08 0)
(0.143596 -6.45174e-09 0)
(0.143596 3.85178e-08 0)
(0.143596 3.08432e-08 0)
(0.143596 -5.47019e-09 0)
(0.143596 -1.97144e-08 0)
(0.143596 -7.08706e-09 0)
(0.143596 8.57895e-09 0)
(0.143596 1.3478e-08 0)
(0.143596 1.92552e-08 0)
(0.143596 1.24086e-08 0)
(0.143596 -3.81064e-09 0)
(0.143596 -1.62121e-08 0)
(0.143596 -2.55359e-08 0)
(0.143596 -2.40692e-08 0)
(0.143596 -9.52084e-09 0)
(0.143596 3.63482e-09 0)
(0.143596 5.28614e-09 0)
(0.143596 8.25729e-10 0)
(0.143596 -9.96686e-10 0)
(0.143596 1.90233e-09 0)
(0.143596 6.02863e-09 0)
(0.143596 6.50502e-09 0)
(0.143596 3.00677e-09 0)
(0.143596 -1.30049e-09 0)
(0.143596 -3.4706e-09 0)
(0.143597 -2.57207e-09 0)
(0.143597 1.27896e-09 0)
(0.143597 4.82207e-09 0)
(0.143597 2.33909e-09 0)
(0.143597 -3.73222e-09 0)
(0.143597 -6.19652e-09 0)
(0.143597 -3.14344e-09 0)
(0.143597 -6.41811e-10 0)
(0.143597 -2.06151e-09 0)
(0.143597 -5.98784e-09 0)
(0.143597 -7.88072e-09 0)
(0.143597 -6.20596e-09 0)
(0.143597 -4.42899e-09 0)
(0.143597 -5.95836e-09 0)
(0.143597 -1.04724e-08 0)
(0.143597 -1.49271e-08 0)
(0.143597 -1.5781e-08 0)
(0.143597 -1.05776e-08 0)
(0.143597 -1.91794e-09 0)
(0.143597 3.05196e-09 0)
(0.143597 -6.77254e-12 0)
(0.143597 -7.12232e-09 0)
(0.143597 -1.1417e-08 0)
(0.143597 -1.06275e-08 0)
(0.143597 -7.07225e-09 0)
(0.143597 -2.23871e-09 0)
(0.143597 5.88059e-09 0)
(0.143597 1.90871e-08 0)
(0.143597 3.25995e-08 0)
(0.143597 3.80977e-08 0)
(0.143597 3.1294e-08 0)
(0.143597 1.6217e-08 0)
(0.143597 3.20468e-09 0)
(0.143597 -6.52113e-11 0)
(0.143597 7.35057e-09 0)
(0.143597 1.73843e-08 0)
(0.143597 2.13104e-08 0)
(0.143597 1.82025e-08 0)
(0.143596 1.46918e-08 0)
(0.143596 1.71872e-08 0)
(0.143596 2.32969e-08 0)
(0.143596 2.45869e-08 0)
(0.143596 1.69949e-08 0)
(0.143596 6.06732e-09 0)
(0.143596 5.57809e-10 0)
(0.143596 2.35846e-09 0)
(0.143596 4.36812e-09 0)
(0.143596 -1.03687e-09 0)
(0.143596 -1.33118e-08 0)
(0.143596 -2.37125e-08 0)
(0.143596 -2.39065e-08 0)
(0.143596 -1.34084e-08 0)
(0.143596 -1.74993e-09 0)
(0.143596 7.7016e-10 0)
(0.143596 -6.88529e-09 0)
(0.143596 -1.52307e-08 0)
(0.143596 -1.51222e-08 0)
(0.143596 -7.78186e-09 0)
(0.143596 -2.33268e-09 0)
(0.143596 -5.32662e-09 0)
(0.143596 -1.32482e-08 0)
(0.143596 -1.77804e-08 0)
(0.143596 -1.50425e-08 0)
(0.143596 -9.17442e-09 0)
(0.143596 -8.04065e-09 0)
(0.143596 -1.35991e-08 0)
(0.143596 -1.88892e-08 0)
(0.143596 -1.55694e-08 0)
(0.143596 -2.84323e-09 0)
(0.143596 1.02941e-08 0)
(0.143596 1.45315e-08 0)
(0.143596 9.30822e-09 0)
(0.143596 3.27951e-09 0)
(0.143596 4.91401e-09 0)
(0.143596 1.32003e-08 0)
(0.143596 1.97714e-08 0)
(0.143596 1.8226e-08 0)
(0.143596 1.05453e-08 0)
(0.143596 4.01706e-09 0)
(0.143596 3.96327e-09 0)
(0.143596 7.31287e-09 0)
(0.143596 7.77298e-09 0)
(0.143596 3.63048e-09 0)
(0.143596 3.82117e-10 0)
(0.143596 3.1128e-09 0)
(0.143596 8.98093e-09 0)
(0.143596 1.10059e-08 0)
(0.143596 3.52939e-09 0)
(0.143596 -1.17125e-08 0)
(0.143596 -2.58741e-08 0)
(0.143596 -3.04877e-08 0)
(0.143596 -2.45611e-08 0)
(0.143597 -1.51009e-08 0)
(0.143597 -1.07259e-08 0)
(0.143597 -1.38961e-08 0)
(0.143597 -1.76028e-08 0)
(0.143597 -1.44525e-08 0)
(0.143597 -7.46571e-09 0)
(0.143597 -2.24684e-09 0)
(0.143597 2.7054e-09 0)
(0.143597 7.5282e-09 0)
(0.143597 9.50907e-09 0)
(0.143597 1.15078e-08 0)
(0.143597 1.82877e-08 0)
(0.143597 2.50105e-08 0)
(0.143597 2.69164e-08 0)
(0.143597 2.71714e-08 0)
(0.143597 2.73124e-08 0)
(0.143597 2.82405e-08 0)
(0.143596 3.20017e-08 0)
(0.143596 3.33631e-08 0)
(0.143596 2.76673e-08 0)
(0.143596 3.00968e-08 0)
(0.143596 4.36122e-08 0)
(0.143596 4.77097e-08 0)
(0.143596 3.51156e-08 0)
(0.392276 -2.05984e-07 0)
(0.392276 -2.08435e-07 0)
(0.392276 -2.77304e-07 0)
(0.392276 -1.76401e-07 0)
(0.392276 -1.80262e-07 0)
(0.392276 -1.33263e-07 0)
(0.392276 -1.16454e-07 0)
(0.392277 -8.93303e-08 0)
(0.392277 -5.40009e-08 0)
(0.392277 2.31893e-08 0)
(0.392277 6.45646e-08 0)
(0.392277 2.43316e-08 0)
(0.392277 -2.39396e-08 0)
(0.392277 -2.18477e-08 0)
(0.392277 1.83603e-08 0)
(0.392277 5.6626e-08 0)
(0.392277 6.0097e-08 0)
(0.392277 4.63298e-08 0)
(0.392277 1.96416e-08 0)
(0.392277 -1.02156e-08 0)
(0.392277 -2.86111e-08 0)
(0.392277 -3.91312e-08 0)
(0.392277 -3.4151e-08 0)
(0.392277 -1.01819e-08 0)
(0.392277 7.65728e-09 0)
(0.392277 7.60585e-10 0)
(0.392277 -2.03568e-08 0)
(0.392277 -3.54331e-08 0)
(0.392277 -3.47451e-08 0)
(0.392277 -2.00929e-08 0)
(0.392277 -9.29284e-10 0)
(0.392277 1.26117e-08 0)
(0.392277 1.64291e-08 0)
(0.392277 1.38705e-08 0)
(0.392277 9.43847e-09 0)
(0.392277 8.16889e-09 0)
(0.392277 1.04765e-08 0)
(0.392277 7.24632e-09 0)
(0.392277 -5.11333e-09 0)
(0.392277 -1.55966e-08 0)
(0.392277 -1.43125e-08 0)
(0.392277 -6.60142e-09 0)
(0.392277 -3.92316e-09 0)
(0.392277 -1.0554e-08 0)
(0.392277 -1.92629e-08 0)
(0.392277 -1.93041e-08 0)
(0.392277 -1.01127e-08 0)
(0.392277 -1.65175e-09 0)
(0.392277 -2.04422e-09 0)
(0.392277 -9.08394e-09 0)
(0.392277 -1.48136e-08 0)
(0.392277 -1.14996e-08 0)
(0.392277 1.2947e-09 0)
(0.392277 1.09867e-08 0)
(0.392277 2.19599e-09 0)
(0.392277 -2.43881e-08 0)
(0.392277 -5.00347e-08 0)
(0.392277 -5.59876e-08 0)
(0.392277 -3.90235e-08 0)
(0.392277 -1.14207e-08 0)
(0.392277 1.40153e-08 0)
(0.392278 3.45664e-08 0)
(0.392278 5.19706e-08 0)
(0.392277 6.36574e-08 0)
(0.392277 6.29543e-08 0)
(0.392277 4.79114e-08 0)
(0.392277 2.65907e-08 0)
(0.392277 1.25945e-08 0)
(0.392277 1.69248e-08 0)
(0.392277 3.74646e-08 0)
(0.392277 5.9153e-08 0)
(0.392277 6.69535e-08 0)
(0.392277 6.01295e-08 0)
(0.392277 5.20077e-08 0)
(0.392277 5.32867e-08 0)
(0.392277 5.91494e-08 0)
(0.392277 5.61362e-08 0)
(0.392277 3.92322e-08 0)
(0.392277 1.82712e-08 0)
(0.392277 7.07547e-09 0)
(0.392277 8.39772e-09 0)
(0.392277 1.19937e-08 0)
(0.392277 6.71869e-09 0)
(0.392277 -7.43364e-09 0)
(0.392277 -1.87062e-08 0)
(0.392277 -1.53107e-08 0)
(0.392277 5.03136e-10 0)
(0.392277 1.2274e-08 0)
(0.392277 6.57808e-09 0)
(0.392277 -1.23515e-08 0)
(0.392277 -2.58194e-08 0)
(0.392277 -2.13489e-08 0)
(0.392277 -6.34185e-09 0)
(0.392277 -2.57058e-10 0)
(0.392277 -1.20771e-08 0)
(0.392277 -3.2969e-08 0)
(0.392277 -4.57613e-08 0)
(0.392277 -4.11064e-08 0)
(0.392277 -2.66045e-08 0)
(0.392277 -1.7049e-08 0)
(0.392277 -1.84296e-08 0)
(0.392277 -2.19428e-08 0)
(0.392277 -1.46746e-08 0)
(0.392277 3.19489e-09 0)
(0.392277 1.83326e-08 0)
(0.392277 1.83191e-08 0)
(0.392277 6.13268e-09 0)
(0.392277 -2.49649e-09 0)
(0.392277 2.99347e-09 0)
(0.392277 1.73203e-08 0)
(0.392277 2.53749e-08 0)
(0.392277 1.71471e-08 0)
(0.392277 -1.67421e-09 0)
(0.392277 -1.43207e-08 0)
(0.392277 -1.03244e-08 0)
(0.392277 4.60071e-09 0)
(0.392277 1.5998e-08 0)
(0.392277 1.71846e-08 0)
(0.392277 1.31779e-08 0)
(0.392277 8.61837e-09 0)
(0.392277 3.12385e-09 0)
(0.392277 -8.49102e-09 0)
(0.392277 -2.95969e-08 0)
(0.392277 -5.36066e-08 0)
(0.392277 -6.75953e-08 0)
(0.392277 -6.47091e-08 0)
(0.392277 -4.96867e-08 0)
(0.392277 -3.73296e-08 0)
(0.392277 -4.13937e-08 0)
(0.392277 -5.74639e-08 0)
(0.392277 -6.45178e-08 0)
(0.392277 -5.46036e-08 0)
(0.392277 -4.03053e-08 0)
(0.392277 -2.82134e-08 0)
(0.392277 -1.74681e-08 0)
(0.392277 -1.20066e-08 0)
(0.392277 -9.38124e-09 0)
(0.392277 2.38535e-09 0)
(0.392277 1.925e-08 0)
(0.392277 2.93011e-08 0)
(0.392277 3.46055e-08 0)
(0.392277 3.61697e-08 0)
(0.392277 3.44774e-08 0)
(0.392277 4.21055e-08 0)
(0.392277 5.60461e-08 0)
(0.392277 5.32137e-08 0)
(0.392277 5.97984e-08 0)
(0.392277 9.39e-08 0)
(0.392277 1.2698e-07 0)
(0.392277 1.2117e-07 0)
(0.602529 -3.26411e-07 0)
(0.602529 -3.31072e-07 0)
(0.602529 -3.93751e-07 0)
(0.602529 -3.39955e-07 0)
(0.602529 -2.69398e-07 0)
(0.602529 -1.91974e-07 0)
(0.602529 -1.41104e-07 0)
(0.60253 -5.68645e-08 0)
(0.60253 -4.36065e-10 0)
(0.602529 1.63776e-08 0)
(0.602529 4.35752e-09 0)
(0.602529 -1.28356e-08 0)
(0.602529 -2.38838e-09 0)
(0.602529 2.51245e-08 0)
(0.602529 4.90047e-08 0)
(0.602529 4.55811e-08 0)
(0.602529 2.87311e-08 0)
(0.602529 1.05209e-08 0)
(0.602529 -7.06895e-09 0)
(0.602529 -2.28611e-08 0)
(0.602529 -2.69193e-08 0)
(0.602529 -2.00248e-08 0)
(0.602529 -1.39178e-08 0)
(0.602529 -1.27259e-08 0)
(0.602529 -2.065e-08 0)
(0.602529 -3.92657e-08 0)
(0.602529 -5.88012e-08 0)
(0.602529 -6.83143e-08 0)
(0.602529 -6.32718e-08 0)
(0.602529 -4.48427e-08 0)
(0.602529 -1.92081e-08 0)
(0.602529 5.75209e-10 0)
(0.602529 5.46424e-09 0)
(0.602529 7.02748e-10 0)
(0.602529 -3.88069e-09 0)
(0.602529 -3.43694e-09 0)
(0.60253 3.26724e-09 0)
(0.60253 1.12958e-08 0)
(0.60253 9.93852e-09 0)
(0.60253 -2.11559e-09 0)
(0.60253 -1.45126e-08 0)
(0.60253 -1.63628e-08 0)
(0.60253 -8.89866e-09 0)
(0.60253 -2.34901e-09 0)
(0.60253 -6.06391e-09 0)
(0.60253 -1.81963e-08 0)
(0.60253 -2.84048e-08 0)
(0.60253 -3.13618e-08 0)
(0.60253 -3.12457e-08 0)
(0.60253 -3.25078e-08 0)
(0.60253 -3.50059e-08 0)
(0.60253 -3.50953e-08 0)
(0.60253 -2.75135e-08 0)
(0.60253 -1.45475e-08 0)
(0.60253 -1.03761e-08 0)
(0.60253 -2.72518e-08 0)
(0.60253 -5.87312e-08 0)
(0.60253 -8.12571e-08 0)
(0.60253 -7.33672e-08 0)
(0.60253 -3.61258e-08 0)
(0.60253 7.27361e-09 0)
(0.60253 3.25161e-08 0)
(0.60253 3.54426e-08 0)
(0.60253 2.92123e-08 0)
(0.60253 2.70234e-08 0)
(0.60253 3.07043e-08 0)
(0.60253 3.27192e-08 0)
(0.60253 2.90028e-08 0)
(0.60253 2.6653e-08 0)
(0.60253 3.81581e-08 0)
(0.60253 6.54239e-08 0)
(0.60253 9.31644e-08 0)
(0.60253 1.01469e-07 0)
(0.60253 8.60787e-08 0)
(0.60253 6.37076e-08 0)
(0.602529 5.40325e-08 0)
(0.602529 5.89921e-08 0)
(0.602529 6.2194e-08 0)
(0.602529 4.82284e-08 0)
(0.602529 2.0646e-08 0)
(0.602529 -2.04685e-09 0)
(0.602529 -5.40444e-09 0)
(0.602529 6.72071e-09 0)
(0.602529 1.72546e-08 0)
(0.602529 1.39399e-08 0)
(0.602529 2.01824e-09 0)
(0.602529 -2.84507e-09 0)
(0.602529 6.8849e-09 0)
(0.602529 2.01965e-08 0)
(0.602529 1.89566e-08 0)
(0.602529 -3.07063e-10 0)
(0.602529 -2.16541e-08 0)
(0.602529 -2.78281e-08 0)
(0.602529 -1.85818e-08 0)
(0.602529 -9.42532e-09 0)
(0.602529 -1.41213e-08 0)
(0.602529 -2.92472e-08 0)
(0.602529 -3.64942e-08 0)
(0.602529 -2.07893e-08 0)
(0.602529 1.24388e-08 0)
(0.602529 4.07115e-08 0)
(0.602529 4.74276e-08 0)
(0.602529 3.73634e-08 0)
(0.60253 2.98287e-08 0)
(0.60253 3.59781e-08 0)
(0.60253 4.70331e-08 0)
(0.60253 4.6934e-08 0)
(0.60253 3.13477e-08 0)
(0.60253 1.23412e-08 0)
(0.60253 4.26181e-09 0)
(0.60253 8.53048e-09 0)
(0.60253 1.29487e-08 0)
(0.60253 4.22041e-09 0)
(0.60253 -1.64359e-08 0)
(0.60253 -3.10972e-08 0)
(0.60253 -2.35623e-08 0)
(0.60253 9.91509e-10 0)
(0.60253 2.08681e-08 0)
(0.60253 2.09021e-08 0)
(0.60253 3.87256e-09 0)
(0.60253 -1.56123e-08 0)
(0.60253 -2.62527e-08 0)
(0.60253 -3.06082e-08 0)
(0.60253 -3.69875e-08 0)
(0.60253 -4.68674e-08 0)
(0.60253 -5.57061e-08 0)
(0.60253 -5.81926e-08 0)
(0.60253 -5.22006e-08 0)
(0.60253 -4.65602e-08 0)
(0.60253 -5.48776e-08 0)
(0.60253 -7.2254e-08 0)
(0.60253 -7.94645e-08 0)
(0.60253 -7.16484e-08 0)
(0.60253 -5.74668e-08 0)
(0.60253 -4.14001e-08 0)
(0.60253 -2.9445e-08 0)
(0.60253 -2.61754e-08 0)
(0.60253 -2.08413e-08 0)
(0.60253 -5.82503e-09 0)
(0.60253 8.33287e-09 0)
(0.60253 1.78939e-08 0)
(0.602529 2.27555e-08 0)
(0.602529 1.82471e-08 0)
(0.602529 1.84334e-08 0)
(0.602529 3.91968e-08 0)
(0.602529 5.80251e-08 0)
(0.602529 7.90169e-08 0)
(0.602529 1.1222e-07 0)
(0.602529 1.66931e-07 0)
(0.602529 1.82623e-07 0)
(0.774434 -2.73151e-07 0)
(0.774434 -3.25426e-07 0)
(0.774434 -3.36689e-07 0)
(0.774434 -3.29518e-07 0)
(0.774434 -2.4972e-07 0)
(0.774434 -1.39795e-07 0)
(0.774434 -6.45816e-08 0)
(0.774433 -1.68486e-08 0)
(0.774433 4.68556e-09 0)
(0.774433 2.9026e-08 0)
(0.774433 3.43447e-08 0)
(0.774433 3.81679e-08 0)
(0.774433 4.41162e-08 0)
(0.774433 5.53407e-08 0)
(0.774433 5.41295e-08 0)
(0.774433 3.01111e-08 0)
(0.774433 5.33603e-09 0)
(0.774433 -1.3696e-08 0)
(0.774433 -2.48642e-08 0)
(0.774433 -2.90232e-08 0)
(0.774433 -1.98801e-08 0)
(0.774433 -5.57177e-10 0)
(0.774433 6.20088e-09 0)
(0.774433 -8.90738e-09 0)
(0.774433 -3.64931e-08 0)
(0.774433 -6.12049e-08 0)
(0.774433 -7.03578e-08 0)
(0.774433 -6.40332e-08 0)
(0.774433 -5.1489e-08 0)
(0.774433 -4.17446e-08 0)
(0.774433 -3.61107e-08 0)
(0.774433 -3.20344e-08 0)
(0.774433 -2.91253e-08 0)
(0.774433 -2.64098e-08 0)
(0.774433 -2.20023e-08 0)
(0.774433 -1.73645e-08 0)
(0.774433 -1.15428e-08 0)
(0.774433 -2.99275e-09 0)
(0.774433 3.17293e-09 0)
(0.774433 -1.9822e-09 0)
(0.774433 -1.75565e-08 0)
(0.774433 -3.22417e-08 0)
(0.774433 -3.48188e-08 0)
(0.774433 -2.58777e-08 0)
(0.774433 -1.87162e-08 0)
(0.774433 -2.6938e-08 0)
(0.774433 -4.78111e-08 0)
(0.774433 -6.59755e-08 0)
(0.774433 -7.03154e-08 0)
(0.774433 -6.18545e-08 0)
(0.774433 -4.9662e-08 0)
(0.774433 -4.40182e-08 0)
(0.774433 -4.60085e-08 0)
(0.774433 -4.67143e-08 0)
(0.774433 -4.11784e-08 0)
(0.774433 -3.69694e-08 0)
(0.774433 -4.39336e-08 0)
(0.774433 -6.05689e-08 0)
(0.774433 -7.10489e-08 0)
(0.774433 -5.82834e-08 0)
(0.774433 -2.34986e-08 0)
(0.774433 1.18499e-08 0)
(0.774433 2.65062e-08 0)
(0.774433 1.93263e-08 0)
(0.774433 8.89415e-09 0)
(0.774433 1.43666e-08 0)
(0.774433 3.82533e-08 0)
(0.774433 6.52628e-08 0)
(0.774433 7.87438e-08 0)
(0.774433 7.72428e-08 0)
(0.774433 7.45177e-08 0)
(0.774433 8.18377e-08 0)
(0.774433 9.34737e-08 0)
(0.774433 9.29005e-08 0)
(0.774433 7.26302e-08 0)
(0.774433 4.54789e-08 0)
(0.774433 3.14224e-08 0)
(0.774433 3.61555e-08 0)
(0.774433 4.48439e-08 0)
(0.774433 3.81602e-08 0)
(0.774433 1.28253e-08 0)
(0.774433 -1.41205e-08 0)
(0.774433 -2.23995e-08 0)
(0.774433 -9.60291e-09 0)
(0.774433 6.72203e-09 0)
(0.774433 7.11455e-09 0)
(0.774433 -9.6674e-09 0)
(0.774433 -2.51783e-08 0)
(0.774433 -2.31197e-08 0)
(0.774433 -8.02806e-09 0)
(0.774433 5.42168e-10 0)
(0.774433 -8.95525e-09 0)
(0.774433 -2.71406e-08 0)
(0.774433 -3.33175e-08 0)
(0.774433 -1.79871e-08 0)
(0.774433 8.64243e-09 0)
(0.774433 2.77129e-08 0)
(0.774433 3.07802e-08 0)
(0.774433 2.86855e-08 0)
(0.774433 3.82614e-08 0)
(0.774433 6.18746e-08 0)
(0.774433 8.27857e-08 0)
(0.774433 8.27069e-08 0)
(0.774433 6.29613e-08 0)
(0.774433 4.23035e-08 0)
(0.774433 3.68127e-08 0)
(0.774433 4.39291e-08 0)
(0.774433 4.66841e-08 0)
(0.774433 3.37047e-08 0)
(0.774433 9.33851e-09 0)
(0.774433 -1.10302e-08 0)
(0.774433 -1.62394e-08 0)
(0.774433 -1.07503e-08 0)
(0.774433 -9.10951e-09 0)
(0.774433 -1.75045e-08 0)
(0.774433 -2.4803e-08 0)
(0.774433 -1.65318e-08 0)
(0.774433 6.26017e-09 0)
(0.774433 2.78393e-08 0)
(0.774433 3.31244e-08 0)
(0.774433 2.1759e-08 0)
(0.774433 7.68054e-09 0)
(0.774433 2.38732e-09 0)
(0.774433 3.94271e-09 0)
(0.774433 4.69495e-09 0)
(0.774433 -1.40672e-09 0)
(0.774433 -1.54229e-08 0)
(0.774433 -2.86377e-08 0)
(0.774433 -3.12338e-08 0)
(0.774433 -2.96376e-08 0)
(0.774433 -3.7043e-08 0)
(0.774433 -4.84321e-08 0)
(0.774433 -5.17792e-08 0)
(0.774433 -4.60621e-08 0)
(0.774433 -3.36877e-08 0)
(0.774433 -1.90388e-08 0)
(0.774433 -1.20395e-08 0)
(0.774433 -1.27744e-08 0)
(0.774433 -7.97991e-09 0)
(0.774433 3.16608e-09 0)
(0.774433 1.3793e-08 0)
(0.774433 2.49138e-08 0)
(0.774433 3.34681e-08 0)
(0.774433 3.52588e-08 0)
(0.774433 5.64007e-08 0)
(0.774433 9.81271e-08 0)
(0.774433 1.3788e-07 0)
(0.774433 1.68878e-07 0)
(0.774433 2.01828e-07 0)
(0.774433 2.02928e-07 0)
(0.90806 -1.37514e-07 0)
(0.908059 -2.11233e-07 0)
(0.908059 -2.19264e-07 0)
(0.908059 -1.77058e-07 0)
(0.908059 -9.0712e-08 0)
(0.908059 -5.86828e-09 0)
(0.908058 5.32736e-08 0)
(0.908058 7.91467e-08 0)
(0.908058 9.9083e-08 0)
(0.908058 1.24047e-07 0)
(0.908058 1.34945e-07 0)
(0.908058 1.53554e-07 0)
(0.908058 1.48513e-07 0)
(0.908058 1.30545e-07 0)
(0.908058 1.04939e-07 0)
(0.908058 8.36154e-08 0)
(0.908058 5.67423e-08 0)
(0.908058 2.14072e-08 0)
(0.908057 5.29669e-09 0)
(0.908057 1.16745e-08 0)
(0.908057 2.61727e-08 0)
(0.908057 4.07528e-08 0)
(0.908057 4.00429e-08 0)
(0.908057 1.55048e-08 0)
(0.908057 -2.31466e-08 0)
(0.908057 -5.87585e-08 0)
(0.908057 -7.74203e-08 0)
(0.908057 -7.61504e-08 0)
(0.908057 -6.47003e-08 0)
(0.908057 -5.71632e-08 0)
(0.908057 -5.94096e-08 0)
(0.908057 -6.37107e-08 0)
(0.908057 -6.22793e-08 0)
(0.908057 -5.36663e-08 0)
(0.908057 -4.04696e-08 0)
(0.908057 -2.95017e-08 0)
(0.908057 -2.66104e-08 0)
(0.908058 -2.86821e-08 0)
(0.908058 -2.91846e-08 0)
(0.908058 -2.74468e-08 0)
(0.908058 -2.83262e-08 0)
(0.908058 -3.555e-08 0)
(0.908058 -4.53476e-08 0)
(0.908058 -4.98371e-08 0)
(0.908058 -4.54296e-08 0)
(0.908058 -3.85452e-08 0)
(0.908058 -3.78276e-08 0)
(0.908058 -4.352e-08 0)
(0.908058 -4.83315e-08 0)
(0.908058 -4.32355e-08 0)
(0.908058 -2.53304e-08 0)
(0.908058 -4.0786e-09 0)
(0.908058 3.65273e-09 0)
(0.908058 -9.37579e-09 0)
(0.908058 -3.37816e-08 0)
(0.908058 -5.36192e-08 0)
(0.908058 -5.96799e-08 0)
(0.908058 -5.40401e-08 0)
(0.908058 -4.4649e-08 0)
(0.908058 -3.42248e-08 0)
(0.908058 -1.93042e-08 0)
(0.908058 8.60373e-10 0)
(0.908058 1.87818e-08 0)
(0.908058 2.66096e-08 0)
(0.908058 2.54481e-08 0)
(0.908058 2.64166e-08 0)
(0.908058 4.2205e-08 0)
(0.908058 7.33797e-08 0)
(0.908058 1.03799e-07 0)
(0.908058 1.132e-07 0)
(0.908058 9.63331e-08 0)
(0.908058 6.81758e-08 0)
(0.908057 4.99806e-08 0)
(0.908057 4.91445e-08 0)
(0.908057 5.48122e-08 0)
(0.908057 5.28635e-08 0)
(0.908057 4.20221e-08 0)
(0.908057 3.28112e-08 0)
(0.908057 3.45119e-08 0)
(0.908057 4.28199e-08 0)
(0.908057 4.37993e-08 0)
(0.908058 2.95445e-08 0)
(0.908058 8.46622e-09 0)
(0.908058 -2.55351e-09 0)
(0.908058 4.34048e-09 0)
(0.908058 1.78073e-08 0)
(0.908057 1.92452e-08 0)
(0.908057 1.76567e-09 0)
(0.908058 -2.1333e-08 0)
(0.908058 -3.19599e-08 0)
(0.908058 -2.61399e-08 0)
(0.908058 -1.71799e-08 0)
(0.908058 -2.01809e-08 0)
(0.908058 -3.52458e-08 0)
(0.908058 -4.70997e-08 0)
(0.908058 -3.98798e-08 0)
(0.908058 -1.33778e-08 0)
(0.908058 1.53718e-08 0)
(0.908058 2.89787e-08 0)
(0.908058 2.64606e-08 0)
(0.908058 2.21206e-08 0)
(0.908058 2.58776e-08 0)
(0.908058 3.26195e-08 0)
(0.908058 2.93129e-08 0)
(0.908058 1.21614e-08 0)
(0.908058 -7.38235e-09 0)
(0.908058 -1.50914e-08 0)
(0.908058 -8.65908e-09 0)
(0.908058 -3.2712e-10 0)
(0.908058 -5.35592e-09 0)
(0.908058 -2.6364e-08 0)
(0.908058 -4.92771e-08 0)
(0.908058 -5.53165e-08 0)
(0.908058 -3.96372e-08 0)
(0.908058 -1.46814e-08 0)
(0.908058 4.3492e-09 0)
(0.908058 1.51079e-08 0)
(0.908058 2.57295e-08 0)
(0.908058 4.14516e-08 0)
(0.908058 5.65521e-08 0)
(0.908058 6.01032e-08 0)
(0.908058 5.09774e-08 0)
(0.908058 3.88982e-08 0)
(0.908058 3.27978e-08 0)
(0.908058 3.50407e-08 0)
(0.908058 4.0581e-08 0)
(0.908058 3.8549e-08 0)
(0.908058 2.23412e-08 0)
(0.908058 2.60769e-09 0)
(0.908058 -5.48242e-09 0)
(0.908058 -4.58126e-09 0)
(0.908058 -3.50943e-09 0)
(0.908058 -4.55649e-09 0)
(0.908058 -9.87958e-09 0)
(0.908058 -1.76599e-08 0)
(0.908058 -1.87229e-08 0)
(0.908058 -1.33323e-08 0)
(0.908058 -8.73151e-09 0)
(0.908058 -1.28287e-09 0)
(0.908058 9.39914e-09 0)
(0.908058 1.51862e-08 0)
(0.908058 2.37874e-08 0)
(0.908057 4.02224e-08 0)
(0.908057 4.80227e-08 0)
(0.908057 5.85203e-08 0)
(0.908057 1.03749e-07 0)
(0.908057 1.4965e-07 0)
(0.908057 1.85909e-07 0)
(0.908057 2.0806e-07 0)
(0.908058 1.962e-07 0)
(1.00346 7.26502e-10 0)
(1.00346 -1.80804e-08 0)
(1.00346 1.76698e-08 0)
(1.00346 9.15725e-08 0)
(1.00346 1.40786e-07 0)
(1.00346 1.87124e-07 0)
(1.00346 2.26251e-07 0)
(1.00346 2.30416e-07 0)
(1.00346 2.31224e-07 0)
(1.00346 2.50547e-07 0)
(1.00346 2.57947e-07 0)
(1.00346 2.53999e-07 0)
(1.00346 2.34764e-07 0)
(1.00346 1.9997e-07 0)
(1.00346 1.60062e-07 0)
(1.00346 1.25338e-07 0)
(1.00346 9.35747e-08 0)
(1.00346 6.41917e-08 0)
(1.00346 5.42801e-08 0)
(1.00346 6.21555e-08 0)
(1.00346 6.25886e-08 0)
(1.00346 4.88247e-08 0)
(1.00346 2.63962e-08 0)
(1.00346 -5.04589e-11 0)
(1.00346 -2.46235e-08 0)
(1.00346 -4.26955e-08 0)
(1.00346 -5.07409e-08 0)
(1.00346 -4.83211e-08 0)
(1.00346 -4.14364e-08 0)
(1.00346 -4.16152e-08 0)
(1.00346 -5.55682e-08 0)
(1.00346 -7.64571e-08 0)
(1.00346 -9.08788e-08 0)
(1.00346 -9.09792e-08 0)
(1.00346 -7.70395e-08 0)
(1.00346 -5.65503e-08 0)
(1.00346 -4.12663e-08 0)
(1.00346 -3.67796e-08 0)
(1.00346 -3.80037e-08 0)
(1.00346 -3.54078e-08 0)
(1.00346 -2.71214e-08 0)
(1.00346 -2.01605e-08 0)
(1.00346 -2.19801e-08 0)
(1.00346 -3.17832e-08 0)
(1.00346 -3.98485e-08 0)
(1.00346 -3.80253e-08 0)
(1.00346 -2.87675e-08 0)
(1.00346 -2.07413e-08 0)
(1.00346 -2.00121e-08 0)
(1.00346 -2.47607e-08 0)
(1.00346 -2.54716e-08 0)
(1.00346 -1.41422e-08 0)
(1.00346 3.44873e-09 0)
(1.00346 1.14381e-08 0)
(1.00346 1.35491e-09 0)
(1.00346 -1.89908e-08 0)
(1.00346 -3.25112e-08 0)
(1.00346 -2.72316e-08 0)
(1.00346 -6.89612e-09 0)
(1.00346 1.26894e-08 0)
(1.00346 2.07218e-08 0)
(1.00346 1.90667e-08 0)
(1.00346 1.69229e-08 0)
(1.00346 2.0968e-08 0)
(1.00346 3.0295e-08 0)
(1.00346 3.9851e-08 0)
(1.00346 4.71066e-08 0)
(1.00346 5.62576e-08 0)
(1.00346 7.06343e-08 0)
(1.00346 8.4212e-08 0)
(1.00346 8.47023e-08 0)
(1.00346 6.71133e-08 0)
(1.00346 4.1451e-08 0)
(1.00346 2.4981e-08 0)
(1.00346 2.6835e-08 0)
(1.00346 3.96337e-08 0)
(1.00346 4.87027e-08 0)
(1.00346 4.52698e-08 0)
(1.00346 3.30052e-08 0)
(1.00346 2.30348e-08 0)
(1.00346 2.07273e-08 0)
(1.00346 2.07993e-08 0)
(1.00346 1.39515e-08 0)
(1.00346 1.62822e-10 0)
(1.00346 -1.02931e-08 0)
(1.00346 -8.47573e-09 0)
(1.00346 2.12606e-09 0)
(1.00346 8.15268e-09 0)
(1.00346 -6.19295e-10 0)
(1.00346 -2.00408e-08 0)
(1.00346 -3.7045e-08 0)
(1.00346 -4.36142e-08 0)
(1.00346 -4.30492e-08 0)
(1.00346 -4.52264e-08 0)
(1.00346 -5.37342e-08 0)
(1.00346 -6.07222e-08 0)
(1.00346 -5.43572e-08 0)
(1.00346 -3.20351e-08 0)
(1.00346 -6.8171e-09 0)
(1.00346 5.06497e-09 0)
(1.00346 -2.37912e-10 0)
(1.00346 -1.19843e-08 0)
(1.00346 -1.78401e-08 0)
(1.00346 -1.62105e-08 0)
(1.00346 -1.51105e-08 0)
(1.00346 -2.09163e-08 0)
(1.00346 -3.13055e-08 0)
(1.00346 -3.77388e-08 0)
(1.00346 -3.40774e-08 0)
(1.00346 -2.2713e-08 0)
(1.00346 -1.36819e-08 0)
(1.00346 -1.35742e-08 0)
(1.00346 -1.73689e-08 0)
(1.00346 -1.33694e-08 0)
(1.00346 2.23647e-09 0)
(1.00346 2.03647e-08 0)
(1.00346 2.99756e-08 0)
(1.00346 2.99745e-08 0)
(1.00346 2.98197e-08 0)
(1.00346 3.77795e-08 0)
(1.00346 5.02501e-08 0)
(1.00346 5.87192e-08 0)
(1.00346 6.02259e-08 0)
(1.00346 5.6817e-08 0)
(1.00346 5.19785e-08 0)
(1.00346 5.10744e-08 0)
(1.00346 5.45583e-08 0)
(1.00346 5.26719e-08 0)
(1.00346 3.91427e-08 0)
(1.00346 2.42484e-08 0)
(1.00346 1.85843e-08 0)
(1.00346 2.00044e-08 0)
(1.00346 2.29618e-08 0)
(1.00346 2.04704e-08 0)
(1.00346 1.06847e-08 0)
(1.00346 2.84831e-09 0)
(1.00346 4.19678e-09 0)
(1.00346 1.10102e-08 0)
(1.00346 2.17504e-08 0)
(1.00346 3.4666e-08 0)
(1.00346 3.83607e-08 0)
(1.00346 3.7591e-08 0)
(1.00346 4.97844e-08 0)
(1.00346 7.1754e-08 0)
(1.00346 7.59117e-08 0)
(1.00346 9.43645e-08 0)
(1.00346 1.22703e-07 0)
(1.00346 1.48501e-07 0)
(1.00346 1.6843e-07 0)
(1.00346 1.66522e-07 0)
(1.06069 2.18278e-07 0)
(1.06069 2.55103e-07 0)
(1.06069 3.17725e-07 0)
(1.06069 3.98557e-07 0)
(1.06069 4.03522e-07 0)
(1.06069 4.11748e-07 0)
(1.06069 4.15665e-07 0)
(1.06069 4.18956e-07 0)
(1.06069 4.0424e-07 0)
(1.06069 4.03768e-07 0)
(1.06069 3.67366e-07 0)
(1.06069 3.02289e-07 0)
(1.06069 2.54752e-07 0)
(1.06069 2.22393e-07 0)
(1.06069 1.90119e-07 0)
(1.06069 1.51299e-07 0)
(1.06069 1.13691e-07 0)
(1.06069 7.95017e-08 0)
(1.06069 5.55381e-08 0)
(1.06069 4.68597e-08 0)
(1.06069 4.11557e-08 0)
(1.06069 3.07735e-08 0)
(1.06069 1.65611e-08 0)
(1.06069 4.15105e-10 0)
(1.06069 -1.03172e-08 0)
(1.06069 -1.06204e-08 0)
(1.06069 -4.96945e-09 0)
(1.06069 -3.09936e-09 0)
(1.06069 -1.17055e-08 0)
(1.06068 -2.89551e-08 0)
(1.06068 -4.82086e-08 0)
(1.06068 -6.27734e-08 0)
(1.06068 -6.84211e-08 0)
(1.06068 -6.8102e-08 0)
(1.06068 -6.38674e-08 0)
(1.06069 -5.33028e-08 0)
(1.06069 -3.50361e-08 0)
(1.06069 -1.48525e-08 0)
(1.06069 -1.76305e-09 0)
(1.06069 -2.79738e-10 0)
(1.06069 -7.65962e-09 0)
(1.06069 -1.88624e-08 0)
(1.06069 -3.02762e-08 0)
(1.06069 -3.99457e-08 0)
(1.06069 -4.52473e-08 0)
(1.06069 -4.32191e-08 0)
(1.06069 -3.45435e-08 0)
(1.06069 -2.38094e-08 0)
(1.06069 -1.51266e-08 0)
(1.06069 -1.10391e-08 0)
(1.06069 -9.7617e-09 0)
(1.06069 -5.16924e-09 0)
(1.06069 6.24109e-09 0)
(1.06069 1.91287e-08 0)
(1.06069 2.48834e-08 0)
(1.06069 1.97117e-08 0)
(1.06069 8.285e-09 0)
(1.06069 3.22855e-10 0)
(1.06069 1.21347e-09 0)
(1.06069 7.09829e-09 0)
(1.06069 9.54061e-09 0)
(1.06069 5.91263e-09 0)
(1.06069 2.02855e-09 0)
(1.06069 5.92153e-09 0)
(1.06069 2.10668e-08 0)
(1.06069 4.24029e-08 0)
(1.06069 5.90429e-08 0)
(1.06069 6.38397e-08 0)
(1.06069 5.9376e-08 0)
(1.06069 5.33319e-08 0)
(1.06069 4.92201e-08 0)
(1.06069 4.40769e-08 0)
(1.06068 3.41465e-08 0)
(1.06068 2.18399e-08 0)
(1.06068 1.39247e-08 0)
(1.06068 1.39773e-08 0)
(1.06069 1.88106e-08 0)
(1.06069 2.10404e-08 0)
(1.06069 1.50924e-08 0)
(1.06069 3.33124e-09 0)
(1.06069 -5.24476e-09 0)
(1.06069 -4.8639e-09 0)
(1.06069 3.90038e-10 0)
(1.06069 1.35105e-09 0)
(1.06069 -5.86093e-09 0)
(1.06069 -1.64873e-08 0)
(1.06069 -2.22554e-08 0)
(1.06069 -1.96976e-08 0)
(1.06069 -1.34022e-08 0)
(1.06069 -9.73234e-09 0)
(1.06069 -1.10282e-08 0)
(1.06069 -1.40316e-08 0)
(1.06069 -1.37212e-08 0)
(1.06069 -8.36533e-09 0)
(1.06069 -1.5807e-09 0)
(1.06069 1.70151e-09 0)
(1.06069 1.58571e-09 0)
(1.06069 2.98678e-09 0)
(1.06069 8.34714e-09 0)
(1.06069 1.28711e-08 0)
(1.06069 8.43042e-09 0)
(1.06069 -6.30289e-09 0)
(1.06069 -2.45252e-08 0)
(1.06069 -3.75539e-08 0)
(1.06069 -4.17409e-08 0)
(1.06069 -3.92065e-08 0)
(1.06069 -3.40103e-08 0)
(1.06069 -2.95639e-08 0)
(1.06069 -2.54917e-08 0)
(1.06069 -1.81459e-08 0)
(1.06069 -6.25497e-09 0)
(1.06069 4.81649e-09 0)
(1.06069 8.57053e-09 0)
(1.06069 4.50053e-09 0)
(1.06069 -1.82356e-09 0)
(1.06069 -5.00695e-09 0)
(1.06069 -4.28624e-09 0)
(1.06069 -1.59111e-09 0)
(1.06069 3.93978e-09 0)
(1.06069 1.66499e-08 0)
(1.06069 3.53776e-08 0)
(1.06069 5.27931e-08 0)
(1.06069 6.47882e-08 0)
(1.06069 7.0041e-08 0)
(1.06069 6.60718e-08 0)
(1.06069 5.36978e-08 0)
(1.06069 4.13365e-08 0)
(1.06069 3.45608e-08 0)
(1.06069 2.80275e-08 0)
(1.06069 1.94857e-08 0)
(1.06069 1.33828e-08 0)
(1.06069 1.05165e-08 0)
(1.06069 8.59757e-09 0)
(1.06069 3.50929e-09 0)
(1.06069 -4.58463e-09 0)
(1.06069 -9.21015e-09 0)
(1.06069 -7.14635e-09 0)
(1.06069 -5.17528e-09 0)
(1.06069 -7.31731e-09 0)
(1.06069 -4.22807e-09 0)
(1.06069 5.18646e-09 0)
(1.06069 9.09901e-09 0)
(1.06069 2.1172e-08 0)
(1.06069 5.28616e-08 0)
(1.06069 7.30863e-08 0)
(1.06069 7.74916e-08 0)
(1.06069 8.8194e-08 0)
(1.06069 1.00431e-07 0)
(1.06069 1.10582e-07 0)
(1.06069 1.0566e-07 0)
(1.07976 4.51516e-07 0)
(1.07976 5.22187e-07 0)
(1.07976 5.93311e-07 0)
(1.07976 6.59114e-07 0)
(1.07976 6.55335e-07 0)
(1.07976 6.42598e-07 0)
(1.07976 6.30641e-07 0)
(1.07976 6.12802e-07 0)
(1.07976 5.57023e-07 0)
(1.07976 5.03118e-07 0)
(1.07976 4.32584e-07 0)
(1.07976 3.51165e-07 0)
(1.07976 2.85503e-07 0)
(1.07976 2.36867e-07 0)
(1.07976 1.95415e-07 0)
(1.07976 1.51169e-07 0)
(1.07976 1.12373e-07 0)
(1.07976 8.30457e-08 0)
(1.07976 5.76886e-08 0)
(1.07976 4.08817e-08 0)
(1.07976 3.5216e-08 0)
(1.07976 3.48317e-08 0)
(1.07976 3.25364e-08 0)
(1.07976 2.34749e-08 0)
(1.07976 1.36389e-08 0)
(1.07976 1.02271e-08 0)
(1.07976 1.10906e-08 0)
(1.07976 8.97276e-09 0)
(1.07976 3.49211e-10 0)
(1.07976 -9.43974e-09 0)
(1.07976 -1.52266e-08 0)
(1.07976 -1.7236e-08 0)
(1.07976 -1.76038e-08 0)
(1.07976 -1.87939e-08 0)
(1.07976 -2.16411e-08 0)
(1.07976 -2.21271e-08 0)
(1.07976 -1.57239e-08 0)
(1.07976 -3.782e-09 0)
(1.07976 4.96635e-09 0)
(1.07976 1.08935e-10 0)
(1.07976 -1.98053e-08 0)
(1.07976 -4.51161e-08 0)
(1.07976 -6.24165e-08 0)
(1.07976 -6.37301e-08 0)
(1.07976 -5.03608e-08 0)
(1.07976 -3.08338e-08 0)
(1.07976 -1.51214e-08 0)
(1.07976 -7.60544e-09 0)
(1.07976 -4.05104e-09 0)
(1.07976 2.26915e-09 0)
(1.07976 1.24464e-08 0)
(1.07976 2.22042e-08 0)
(1.07976 2.67155e-08 0)
(1.07976 2.41834e-08 0)
(1.07976 1.65774e-08 0)
(1.07976 7.65634e-09 0)
(1.07976 -2.28499e-10 0)
(1.07976 -5.79098e-09 0)
(1.07976 -8.24526e-09 0)
(1.07976 -6.8156e-09 0)
(1.07976 -1.80755e-09 0)
(1.07976 6.37622e-09 0)
(1.07976 1.70095e-08 0)
(1.07976 2.86066e-08 0)
(1.07976 3.95303e-08 0)
(1.07976 4.79037e-08 0)
(1.07976 5.12693e-08 0)
(1.07976 4.60251e-08 0)
(1.07976 3.15333e-08 0)
(1.07976 1.25095e-08 0)
(1.07976 -3.6408e-09 0)
(1.07976 -1.21715e-08 0)
(1.07976 -1.36008e-08 0)
(1.07976 -1.12446e-08 0)
(1.07976 -7.86594e-09 0)
(1.07976 -4.55956e-09 0)
(1.07976 -1.99545e-09 0)
(1.07976 -2.91291e-10 0)
(1.07976 -2.04889e-10 0)
(1.07976 -3.36033e-09 0)
(1.07976 -8.68507e-09 0)
(1.07976 -1.29157e-08 0)
(1.07976 -1.37153e-08 0)
(1.07976 -1.33665e-08 0)
(1.07976 -1.55826e-08 0)
(1.07976 -2.10296e-08 0)
(1.07976 -2.62196e-08 0)
(1.07976 -2.55382e-08 0)
(1.07976 -1.66031e-08 0)
(1.07976 -2.40021e-09 0)
(1.07976 1.14387e-08 0)
(1.07976 2.1087e-08 0)
(1.07976 2.6575e-08 0)
(1.07976 3.15137e-08 0)
(1.07976 3.84555e-08 0)
(1.07976 4.53597e-08 0)
(1.07976 4.79391e-08 0)
(1.07976 4.40036e-08 0)
(1.07976 3.63462e-08 0)
(1.07976 2.76755e-08 0)
(1.07976 1.77618e-08 0)
(1.07976 5.30215e-09 0)
(1.07976 -7.82094e-09 0)
(1.07976 -1.77911e-08 0)
(1.07976 -2.19577e-08 0)
(1.07976 -2.09406e-08 0)
(1.07976 -1.64297e-08 0)
(1.07976 -1.16662e-08 0)
(1.07976 -1.0463e-08 0)
(1.07976 -1.29596e-08 0)
(1.07976 -1.49307e-08 0)
(1.07976 -1.29678e-08 0)
(1.07976 -9.17594e-09 0)
(1.07976 -8.65424e-09 0)
(1.07976 -1.21287e-08 0)